# Field minima and maxima
# Time        	field         	min           	location(min) 	max           	location(max) 
0.01          	mag(U)        	0.000000e+00	(4.857083e-04 0.000000e+00 5.000000e-02)	6.941467e+01	(1.330963e-02 7.653773e-04 5.000000e-02)
0.02          	mag(U)        	0.000000e+00	(4.857083e-04 0.000000e+00 5.000000e-02)	6.974420e+01	(8.330788e-03 4.573260e-04 5.000000e-02)
0.03          	mag(U)        	0.000000e+00	(4.857083e-04 0.000000e+00 5.000000e-02)	7.022342e+01	(1.131105e-02 4.573260e-04 5.000000e-02)
0.04          	mag(U)        	0.000000e+00	(4.857083e-04 0.000000e+00 5.000000e-02)	7.072560e+01	(1.330963e-02 4.573260e-04 5.000000e-02)
0.05          	mag(U)        	0.000000e+00	(4.857083e-04 0.000000e+00 5.000000e-02)	7.119917e+01	(1.632522e-02 4.573260e-04 5.000000e-02)
0.06          	mag(U)        	0.000000e+00	(4.857083e-04 0.000000e+00 5.000000e-02)	7.161874e+01	(1.936222e-02 4.573260e-04 5.000000e-02)
0.07          	mag(U)        	0.000000e+00	(4.857083e-04 0.000000e+00 5.000000e-02)	7.197866e+01	(2.139884e-02 4.573260e-04 5.000000e-02)
0.08          	mag(U)        	0.000000e+00	(4.857083e-04 0.000000e+00 5.000000e-02)	7.227450e+01	(2.344510e-02 4.573260e-04 5.000000e-02)
0.09          	mag(U)        	0.000000e+00	(4.857083e-04 0.000000e+00 5.000000e-02)	7.251071e+01	(2.447185e-02 4.573260e-04 5.000000e-02)
0.1           	mag(U)        	0.000000e+00	(4.857083e-04 0.000000e+00 5.000000e-02)	7.269411e+01	(2.653262e-02 4.573260e-04 5.000000e-02)
0.11          	mag(U)        	0.000000e+00	(4.857083e-04 0.000000e+00 5.000000e-02)	7.283294e+01	(2.756666e-02 4.573260e-04 5.000000e-02)
0.12          	mag(U)        	0.000000e+00	(4.857083e-04 0.000000e+00 5.000000e-02)	7.293688e+01	(2.756666e-02 4.573260e-04 5.000000e-02)
0.13          	mag(U)        	0.000000e+00	(4.857083e-04 0.000000e+00 5.000000e-02)	7.301227e+01	(2.860314e-02 4.573260e-04 5.000000e-02)
0.14          	mag(U)        	0.000000e+00	(4.857083e-04 0.000000e+00 5.000000e-02)	7.306769e+01	(2.860314e-02 4.573260e-04 5.000000e-02)
0.15          	mag(U)        	0.000000e+00	(4.857083e-04 0.000000e+00 5.000000e-02)	7.310720e+01	(2.860314e-02 4.573260e-04 5.000000e-02)
0.16          	mag(U)        	0.000000e+00	(4.857083e-04 0.000000e+00 5.000000e-02)	7.313525e+01	(2.860314e-02 4.573260e-04 5.000000e-02)
0.17          	mag(U)        	0.000000e+00	(4.857083e-04 0.000000e+00 5.000000e-02)	7.315502e+01	(2.860314e-02 4.573260e-04 5.000000e-02)
0.18          	mag(U)        	0.000000e+00	(4.857083e-04 0.000000e+00 5.000000e-02)	7.316884e+01	(2.860314e-02 4.573260e-04 5.000000e-02)
0.19          	mag(U)        	0.000000e+00	(4.857083e-04 0.000000e+00 5.000000e-02)	7.317836e+01	(2.860314e-02 4.573260e-04 5.000000e-02)
0.2           	mag(U)        	0.000000e+00	(4.857083e-04 0.000000e+00 5.000000e-02)	7.318481e+01	(2.860314e-02 4.573260e-04 5.000000e-02)
0.21          	mag(U)        	0.000000e+00	(4.857083e-04 0.000000e+00 5.000000e-02)	7.318908e+01	(2.860314e-02 4.573260e-04 5.000000e-02)
0.22          	mag(U)        	0.000000e+00	(4.857083e-04 0.000000e+00 5.000000e-02)	7.319179e+01	(2.860314e-02 4.573260e-04 5.000000e-02)
0.23          	mag(U)        	0.000000e+00	(4.857083e-04 0.000000e+00 5.000000e-02)	7.319342e+01	(2.860314e-02 4.573260e-04 5.000000e-02)
0.24          	mag(U)        	0.000000e+00	(4.857083e-04 0.000000e+00 5.000000e-02)	7.319431e+01	(2.860314e-02 4.573260e-04 5.000000e-02)
0.25          	mag(U)        	0.000000e+00	(4.857083e-04 0.000000e+00 5.000000e-02)	7.319468e+01	(2.860314e-02 4.573260e-04 5.000000e-02)
0.26          	mag(U)        	0.000000e+00	(4.857083e-04 0.000000e+00 5.000000e-02)	7.319472e+01	(2.860314e-02 4.573260e-04 5.000000e-02)
0.27          	mag(U)        	0.000000e+00	(4.857083e-04 0.000000e+00 5.000000e-02)	7.319453e+01	(2.860314e-02 4.573260e-04 5.000000e-02)
0.28          	mag(U)        	0.000000e+00	(4.857083e-04 0.000000e+00 5.000000e-02)	7.319422e+01	(2.860314e-02 4.573260e-04 5.000000e-02)
0.29          	mag(U)        	0.000000e+00	(4.857083e-04 0.000000e+00 5.000000e-02)	7.319382e+01	(2.860314e-02 4.573260e-04 5.000000e-02)
0.3           	mag(U)        	0.000000e+00	(4.857083e-04 0.000000e+00 5.000000e-02)	7.319339e+01	(2.860314e-02 4.573260e-04 5.000000e-02)
0.31          	mag(U)        	0.000000e+00	(4.857083e-04 0.000000e+00 5.000000e-02)	7.319295e+01	(2.860314e-02 4.573260e-04 5.000000e-02)
0.32          	mag(U)        	0.000000e+00	(4.857083e-04 0.000000e+00 5.000000e-02)	7.319252e+01	(2.860314e-02 4.573260e-04 5.000000e-02)
0.33          	mag(U)        	0.000000e+00	(4.857083e-04 0.000000e+00 5.000000e-02)	7.319210e+01	(2.860314e-02 4.573260e-04 5.000000e-02)
0.34          	mag(U)        	0.000000e+00	(4.857083e-04 0.000000e+00 5.000000e-02)	7.319171e+01	(2.860314e-02 4.573260e-04 5.000000e-02)
0.35          	mag(U)        	0.000000e+00	(4.857083e-04 0.000000e+00 5.000000e-02)	7.319134e+01	(2.860314e-02 4.573260e-04 5.000000e-02)
0.36          	mag(U)        	0.000000e+00	(4.857083e-04 0.000000e+00 5.000000e-02)	7.319100e+01	(2.860314e-02 4.573260e-04 5.000000e-02)
0.37          	mag(U)        	0.000000e+00	(4.857083e-04 0.000000e+00 5.000000e-02)	7.319069e+01	(2.860314e-02 4.573260e-04 5.000000e-02)
0.38          	mag(U)        	0.000000e+00	(4.857083e-04 0.000000e+00 5.000000e-02)	7.319040e+01	(2.860314e-02 4.573260e-04 5.000000e-02)
0.39          	mag(U)        	0.000000e+00	(4.857083e-04 0.000000e+00 5.000000e-02)	7.319014e+01	(2.860314e-02 4.573260e-04 5.000000e-02)
0.4           	mag(U)        	0.000000e+00	(4.857083e-04 0.000000e+00 5.000000e-02)	7.318989e+01	(2.860314e-02 4.573260e-04 5.000000e-02)
0.41          	mag(U)        	0.000000e+00	(4.857083e-04 0.000000e+00 5.000000e-02)	7.318967e+01	(2.860314e-02 4.573260e-04 5.000000e-02)
0.42          	mag(U)        	0.000000e+00	(4.857083e-04 0.000000e+00 5.000000e-02)	7.319580e+01	(7.671392e-02 7.653773e-04 5.000000e-02)
0.43          	mag(U)        	0.000000e+00	(4.857083e-04 0.000000e+00 5.000000e-02)	7.320137e+01	(7.671392e-02 7.653773e-04 5.000000e-02)
0.44          	mag(U)        	0.000000e+00	(4.857083e-04 0.000000e+00 5.000000e-02)	7.320623e+01	(7.556416e-02 7.653773e-04 5.000000e-02)
0.45          	mag(U)        	0.000000e+00	(4.857083e-04 0.000000e+00 5.000000e-02)	7.321057e+01	(7.556416e-02 7.653773e-04 5.000000e-02)
0.46          	mag(U)        	0.000000e+00	(4.857083e-04 0.000000e+00 5.000000e-02)	7.321434e+01	(7.556416e-02 7.653773e-04 5.000000e-02)
0.47          	mag(U)        	0.000000e+00	(4.857083e-04 0.000000e+00 5.000000e-02)	7.321760e+01	(7.556416e-02 7.653773e-04 5.000000e-02)
0.48          	mag(U)        	0.000000e+00	(4.857083e-04 0.000000e+00 5.000000e-02)	7.322044e+01	(7.556416e-02 7.653773e-04 5.000000e-02)
0.49          	mag(U)        	0.000000e+00	(4.857083e-04 0.000000e+00 5.000000e-02)	7.322290e+01	(7.556416e-02 7.653773e-04 5.000000e-02)
0.5           	mag(U)        	0.000000e+00	(4.857083e-04 0.000000e+00 5.000000e-02)	7.322504e+01	(7.556416e-02 7.653773e-04 5.000000e-02)
0.51          	mag(U)        	0.000000e+00	(4.857083e-04 0.000000e+00 5.000000e-02)	7.322690e+01	(7.556416e-02 7.653773e-04 5.000000e-02)
0.52          	mag(U)        	0.000000e+00	(4.857083e-04 0.000000e+00 5.000000e-02)	7.322851e+01	(7.556416e-02 7.653773e-04 5.000000e-02)
0.53          	mag(U)        	0.000000e+00	(4.857083e-04 0.000000e+00 5.000000e-02)	7.322990e+01	(7.556416e-02 7.653773e-04 5.000000e-02)
0.54          	mag(U)        	0.000000e+00	(4.857083e-04 0.000000e+00 5.000000e-02)	7.323111e+01	(7.556416e-02 7.653773e-04 5.000000e-02)
0.55          	mag(U)        	0.000000e+00	(4.857083e-04 0.000000e+00 5.000000e-02)	7.323216e+01	(7.556416e-02 7.653773e-04 5.000000e-02)
0.56          	mag(U)        	0.000000e+00	(4.857083e-04 0.000000e+00 5.000000e-02)	7.323306e+01	(7.556416e-02 7.653773e-04 5.000000e-02)
0.57          	mag(U)        	0.000000e+00	(4.857083e-04 0.000000e+00 5.000000e-02)	7.323384e+01	(7.556416e-02 7.653773e-04 5.000000e-02)
0.58          	mag(U)        	0.000000e+00	(4.857083e-04 0.000000e+00 5.000000e-02)	7.323451e+01	(7.556416e-02 7.653773e-04 5.000000e-02)
0.59          	mag(U)        	0.000000e+00	(4.857083e-04 0.000000e+00 5.000000e-02)	7.323509e+01	(7.556416e-02 7.653773e-04 5.000000e-02)
0.6           	mag(U)        	0.000000e+00	(4.857083e-04 0.000000e+00 5.000000e-02)	7.323559e+01	(7.556416e-02 7.653773e-04 5.000000e-02)
0.61          	mag(U)        	0.000000e+00	(4.857083e-04 0.000000e+00 5.000000e-02)	7.323601e+01	(7.556416e-02 7.653773e-04 5.000000e-02)
0.62          	mag(U)        	0.000000e+00	(4.857083e-04 0.000000e+00 5.000000e-02)	7.323637e+01	(7.556416e-02 7.653773e-04 5.000000e-02)
0.63          	mag(U)        	0.000000e+00	(4.857083e-04 0.000000e+00 5.000000e-02)	7.323668e+01	(7.556416e-02 7.653773e-04 5.000000e-02)
0.64          	mag(U)        	0.000000e+00	(4.857083e-04 0.000000e+00 5.000000e-02)	7.323695e+01	(7.556416e-02 7.653773e-04 5.000000e-02)
0.65          	mag(U)        	0.000000e+00	(4.857083e-04 0.000000e+00 5.000000e-02)	7.323717e+01	(7.556416e-02 7.653773e-04 5.000000e-02)
0.66          	mag(U)        	0.000000e+00	(4.857083e-04 0.000000e+00 5.000000e-02)	7.323736e+01	(7.556416e-02 7.653773e-04 5.000000e-02)
0.67          	mag(U)        	0.000000e+00	(4.857083e-04 0.000000e+00 5.000000e-02)	7.323752e+01	(7.556416e-02 7.653773e-04 5.000000e-02)
0.68          	mag(U)        	0.000000e+00	(4.857083e-04 0.000000e+00 5.000000e-02)	7.323765e+01	(7.556416e-02 7.653773e-04 5.000000e-02)
0.69          	mag(U)        	0.000000e+00	(4.857083e-04 0.000000e+00 5.000000e-02)	7.323776e+01	(7.556416e-02 7.653773e-04 5.000000e-02)
0.7           	mag(U)        	0.000000e+00	(4.857083e-04 0.000000e+00 5.000000e-02)	7.323785e+01	(7.556416e-02 7.653773e-04 5.000000e-02)
0.71          	mag(U)        	0.000000e+00	(4.857083e-04 0.000000e+00 5.000000e-02)	7.323793e+01	(7.556416e-02 7.653773e-04 5.000000e-02)
0.72          	mag(U)        	0.000000e+00	(4.857083e-04 0.000000e+00 5.000000e-02)	7.323799e+01	(7.556416e-02 7.653773e-04 5.000000e-02)
0.73          	mag(U)        	0.000000e+00	(4.857083e-04 0.000000e+00 5.000000e-02)	7.323804e+01	(7.556416e-02 7.653773e-04 5.000000e-02)
0.74          	mag(U)        	0.000000e+00	(4.857083e-04 0.000000e+00 5.000000e-02)	7.323808e+01	(7.556416e-02 7.653773e-04 5.000000e-02)
0.75          	mag(U)        	0.000000e+00	(4.857083e-04 0.000000e+00 5.000000e-02)	7.323812e+01	(7.556416e-02 7.653773e-04 5.000000e-02)
0.76          	mag(U)        	0.000000e+00	(4.857083e-04 0.000000e+00 5.000000e-02)	7.323814e+01	(7.556416e-02 7.653773e-04 5.000000e-02)
0.77          	mag(U)        	0.000000e+00	(4.857083e-04 0.000000e+00 5.000000e-02)	7.323816e+01	(7.556416e-02 7.653773e-04 5.000000e-02)
0.78          	mag(U)        	0.000000e+00	(4.857083e-04 0.000000e+00 5.000000e-02)	7.323818e+01	(7.556416e-02 7.653773e-04 5.000000e-02)
0.79          	mag(U)        	0.000000e+00	(4.857083e-04 0.000000e+00 5.000000e-02)	7.323820e+01	(7.556416e-02 7.653773e-04 5.000000e-02)
0.8           	mag(U)        	0.000000e+00	(4.857083e-04 0.000000e+00 5.000000e-02)	7.323821e+01	(7.556416e-02 7.653773e-04 5.000000e-02)
0.81          	mag(U)        	0.000000e+00	(4.857083e-04 0.000000e+00 5.000000e-02)	7.323822e+01	(7.556416e-02 7.653773e-04 5.000000e-02)
0.82          	mag(U)        	0.000000e+00	(4.857083e-04 0.000000e+00 5.000000e-02)	7.323822e+01	(7.556416e-02 7.653773e-04 5.000000e-02)
0.83          	mag(U)        	0.000000e+00	(4.857083e-04 0.000000e+00 5.000000e-02)	7.323823e+01	(7.556416e-02 7.653773e-04 5.000000e-02)
0.84          	mag(U)        	0.000000e+00	(4.857083e-04 0.000000e+00 5.000000e-02)	7.323823e+01	(7.556416e-02 7.653773e-04 5.000000e-02)
0.85          	mag(U)        	0.000000e+00	(4.857083e-04 0.000000e+00 5.000000e-02)	7.323824e+01	(7.556416e-02 7.653773e-04 5.000000e-02)
0.86          	mag(U)        	0.000000e+00	(4.857083e-04 0.000000e+00 5.000000e-02)	7.323824e+01	(7.556416e-02 7.653773e-04 5.000000e-02)
0.87          	mag(U)        	0.000000e+00	(4.857083e-04 0.000000e+00 5.000000e-02)	7.323825e+01	(7.556416e-02 7.653773e-04 5.000000e-02)
0.88          	mag(U)        	0.000000e+00	(4.857083e-04 0.000000e+00 5.000000e-02)	7.323825e+01	(7.556416e-02 7.653773e-04 5.000000e-02)
0.89          	mag(U)        	0.000000e+00	(4.857083e-04 0.000000e+00 5.000000e-02)	7.323826e+01	(7.556416e-02 7.653773e-04 5.000000e-02)
0.9           	mag(U)        	0.000000e+00	(4.857083e-04 0.000000e+00 5.000000e-02)	7.323826e+01	(7.556416e-02 7.653773e-04 5.000000e-02)
0.91          	mag(U)        	0.000000e+00	(4.857083e-04 0.000000e+00 5.000000e-02)	7.323826e+01	(7.556416e-02 7.653773e-04 5.000000e-02)
0.92          	mag(U)        	0.000000e+00	(4.857083e-04 0.000000e+00 5.000000e-02)	7.323827e+01	(7.556416e-02 7.653773e-04 5.000000e-02)
0.93          	mag(U)        	0.000000e+00	(4.857083e-04 0.000000e+00 5.000000e-02)	7.323828e+01	(7.556416e-02 7.653773e-04 5.000000e-02)
0.94          	mag(U)        	0.000000e+00	(4.857083e-04 0.000000e+00 5.000000e-02)	7.323828e+01	(7.556416e-02 7.653773e-04 5.000000e-02)
0.95          	mag(U)        	0.000000e+00	(4.857083e-04 0.000000e+00 5.000000e-02)	7.323829e+01	(7.556416e-02 7.653773e-04 5.000000e-02)
0.96          	mag(U)        	0.000000e+00	(4.857083e-04 0.000000e+00 5.000000e-02)	7.323829e+01	(7.556416e-02 7.653773e-04 5.000000e-02)
0.97          	mag(U)        	0.000000e+00	(4.857083e-04 0.000000e+00 5.000000e-02)	7.323830e+01	(7.556416e-02 7.653773e-04 5.000000e-02)
0.98          	mag(U)        	0.000000e+00	(4.857083e-04 0.000000e+00 5.000000e-02)	7.323831e+01	(7.556416e-02 7.653773e-04 5.000000e-02)
0.99          	mag(U)        	0.000000e+00	(4.857083e-04 0.000000e+00 5.000000e-02)	7.323831e+01	(7.556416e-02 7.653773e-04 5.000000e-02)
1             	mag(U)        	0.000000e+00	(4.857083e-04 0.000000e+00 5.000000e-02)	7.323832e+01	(7.556416e-02 7.653773e-04 5.000000e-02)
1.01          	mag(U)        	0.000000e+00	(4.857083e-04 0.000000e+00 5.000000e-02)	7.323833e+01	(7.556416e-02 7.653773e-04 5.000000e-02)
1.02          	mag(U)        	0.000000e+00	(4.857083e-04 0.000000e+00 5.000000e-02)	7.323834e+01	(7.556416e-02 7.653773e-04 5.000000e-02)
1.03          	mag(U)        	0.000000e+00	(4.857083e-04 0.000000e+00 5.000000e-02)	7.323834e+01	(7.556416e-02 7.653773e-04 5.000000e-02)
1.04          	mag(U)        	0.000000e+00	(4.857083e-04 0.000000e+00 5.000000e-02)	7.323835e+01	(7.556416e-02 7.653773e-04 5.000000e-02)
1.05          	mag(U)        	0.000000e+00	(4.857083e-04 0.000000e+00 5.000000e-02)	7.323836e+01	(7.556416e-02 7.653773e-04 5.000000e-02)
1.06          	mag(U)        	0.000000e+00	(4.857083e-04 0.000000e+00 5.000000e-02)	7.323836e+01	(7.556416e-02 7.653773e-04 5.000000e-02)
1.07          	mag(U)        	0.000000e+00	(4.857083e-04 0.000000e+00 5.000000e-02)	7.323837e+01	(7.556416e-02 7.653773e-04 5.000000e-02)
1.08          	mag(U)        	0.000000e+00	(4.857083e-04 0.000000e+00 5.000000e-02)	7.323838e+01	(7.556416e-02 7.653773e-04 5.000000e-02)
1.09          	mag(U)        	0.000000e+00	(4.857083e-04 0.000000e+00 5.000000e-02)	7.323838e+01	(7.556416e-02 7.653773e-04 5.000000e-02)
1.1           	mag(U)        	0.000000e+00	(4.857083e-04 0.000000e+00 5.000000e-02)	7.323839e+01	(7.556416e-02 7.653773e-04 5.000000e-02)
1.11          	mag(U)        	0.000000e+00	(4.857083e-04 0.000000e+00 5.000000e-02)	7.323839e+01	(7.556416e-02 7.653773e-04 5.000000e-02)
1.12          	mag(U)        	0.000000e+00	(4.857083e-04 0.000000e+00 5.000000e-02)	7.323840e+01	(7.556416e-02 7.653773e-04 5.000000e-02)
1.13          	mag(U)        	0.000000e+00	(4.857083e-04 0.000000e+00 5.000000e-02)	7.323840e+01	(7.556416e-02 7.653773e-04 5.000000e-02)
1.14          	mag(U)        	0.000000e+00	(4.857083e-04 0.000000e+00 5.000000e-02)	7.323841e+01	(7.556416e-02 7.653773e-04 5.000000e-02)
1.15          	mag(U)        	0.000000e+00	(4.857083e-04 0.000000e+00 5.000000e-02)	7.323841e+01	(7.556416e-02 7.653773e-04 5.000000e-02)
1.16          	mag(U)        	0.000000e+00	(4.857083e-04 0.000000e+00 5.000000e-02)	7.323842e+01	(7.556416e-02 7.653773e-04 5.000000e-02)
1.17          	mag(U)        	0.000000e+00	(4.857083e-04 0.000000e+00 5.000000e-02)	7.323842e+01	(7.556416e-02 7.653773e-04 5.000000e-02)
1.18          	mag(U)        	0.000000e+00	(4.857083e-04 0.000000e+00 5.000000e-02)	7.323842e+01	(7.556416e-02 7.653773e-04 5.000000e-02)
1.19          	mag(U)        	0.000000e+00	(4.857083e-04 0.000000e+00 5.000000e-02)	7.323842e+01	(7.556416e-02 7.653773e-04 5.000000e-02)
1.2           	mag(U)        	0.000000e+00	(4.857083e-04 0.000000e+00 5.000000e-02)	7.323843e+01	(7.556416e-02 7.653773e-04 5.000000e-02)
1.21          	mag(U)        	0.000000e+00	(4.857083e-04 0.000000e+00 5.000000e-02)	7.323843e+01	(7.556416e-02 7.653773e-04 5.000000e-02)
1.22          	mag(U)        	0.000000e+00	(4.857083e-04 0.000000e+00 5.000000e-02)	7.323843e+01	(7.556416e-02 7.653773e-04 5.000000e-02)
1.23          	mag(U)        	0.000000e+00	(4.857083e-04 0.000000e+00 5.000000e-02)	7.323843e+01	(7.556416e-02 7.653773e-04 5.000000e-02)
1.24          	mag(U)        	0.000000e+00	(4.857083e-04 0.000000e+00 5.000000e-02)	7.323843e+01	(7.556416e-02 7.653773e-04 5.000000e-02)
1.25          	mag(U)        	0.000000e+00	(4.857083e-04 0.000000e+00 5.000000e-02)	7.323843e+01	(7.556416e-02 7.653773e-04 5.000000e-02)
1.26          	mag(U)        	0.000000e+00	(4.857083e-04 0.000000e+00 5.000000e-02)	7.323844e+01	(7.556416e-02 7.653773e-04 5.000000e-02)
1.27          	mag(U)        	0.000000e+00	(4.857083e-04 0.000000e+00 5.000000e-02)	7.323844e+01	(7.556416e-02 7.653773e-04 5.000000e-02)
1.28          	mag(U)        	0.000000e+00	(4.857083e-04 0.000000e+00 5.000000e-02)	7.323844e+01	(7.556416e-02 7.653773e-04 5.000000e-02)
1.29          	mag(U)        	0.000000e+00	(4.857083e-04 0.000000e+00 5.000000e-02)	7.323844e+01	(7.556416e-02 7.653773e-04 5.000000e-02)
1.3           	mag(U)        	0.000000e+00	(4.857083e-04 0.000000e+00 5.000000e-02)	7.323844e+01	(7.556416e-02 7.653773e-04 5.000000e-02)
1.31          	mag(U)        	0.000000e+00	(4.857083e-04 0.000000e+00 5.000000e-02)	7.323844e+01	(7.556416e-02 7.653773e-04 5.000000e-02)
1.32          	mag(U)        	0.000000e+00	(4.857083e-04 0.000000e+00 5.000000e-02)	7.323844e+01	(7.556416e-02 7.653773e-04 5.000000e-02)
1.33          	mag(U)        	0.000000e+00	(4.857083e-04 0.000000e+00 5.000000e-02)	7.323844e+01	(7.556416e-02 7.653773e-04 5.000000e-02)
1.34          	mag(U)        	0.000000e+00	(4.857083e-04 0.000000e+00 5.000000e-02)	7.323843e+01	(7.556416e-02 7.653773e-04 5.000000e-02)
1.35          	mag(U)        	0.000000e+00	(4.857083e-04 0.000000e+00 5.000000e-02)	7.323843e+01	(7.556416e-02 7.653773e-04 5.000000e-02)
1.36          	mag(U)        	0.000000e+00	(4.857083e-04 0.000000e+00 5.000000e-02)	7.323843e+01	(7.556416e-02 7.653773e-04 5.000000e-02)
1.37          	mag(U)        	0.000000e+00	(4.857083e-04 0.000000e+00 5.000000e-02)	7.323843e+01	(7.556416e-02 7.653773e-04 5.000000e-02)
1.38          	mag(U)        	0.000000e+00	(4.857083e-04 0.000000e+00 5.000000e-02)	7.323843e+01	(7.556416e-02 7.653773e-04 5.000000e-02)
1.39          	mag(U)        	0.000000e+00	(4.857083e-04 0.000000e+00 5.000000e-02)	7.323843e+01	(7.556416e-02 7.653773e-04 5.000000e-02)
1.4           	mag(U)        	0.000000e+00	(4.857083e-04 0.000000e+00 5.000000e-02)	7.323843e+01	(7.556416e-02 7.653773e-04 5.000000e-02)
1.41          	mag(U)        	0.000000e+00	(4.857083e-04 0.000000e+00 5.000000e-02)	7.323843e+01	(7.556416e-02 7.653773e-04 5.000000e-02)
1.42          	mag(U)        	0.000000e+00	(4.857083e-04 0.000000e+00 5.000000e-02)	7.323843e+01	(7.556416e-02 7.653773e-04 5.000000e-02)
1.43          	mag(U)        	0.000000e+00	(4.857083e-04 0.000000e+00 5.000000e-02)	7.323843e+01	(7.556416e-02 7.653773e-04 5.000000e-02)
1.44          	mag(U)        	0.000000e+00	(4.857083e-04 0.000000e+00 5.000000e-02)	7.323843e+01	(7.556416e-02 7.653773e-04 5.000000e-02)
1.45          	mag(U)        	0.000000e+00	(4.857083e-04 0.000000e+00 5.000000e-02)	7.323843e+01	(7.556416e-02 7.653773e-04 5.000000e-02)
1.46          	mag(U)        	0.000000e+00	(4.857083e-04 0.000000e+00 5.000000e-02)	7.323843e+01	(7.556416e-02 7.653773e-04 5.000000e-02)
1.47          	mag(U)        	0.000000e+00	(4.857083e-04 0.000000e+00 5.000000e-02)	7.323842e+01	(7.556416e-02 7.653773e-04 5.000000e-02)
1.48          	mag(U)        	0.000000e+00	(4.857083e-04 0.000000e+00 5.000000e-02)	7.323842e+01	(7.556416e-02 7.653773e-04 5.000000e-02)
1.49          	mag(U)        	0.000000e+00	(4.857083e-04 0.000000e+00 5.000000e-02)	7.323842e+01	(7.556416e-02 7.653773e-04 5.000000e-02)
1.5           	mag(U)        	0.000000e+00	(4.857083e-04 0.000000e+00 5.000000e-02)	7.323842e+01	(7.556416e-02 7.653773e-04 5.000000e-02)
1.51          	mag(U)        	0.000000e+00	(4.857083e-04 0.000000e+00 5.000000e-02)	7.323842e+01	(7.556416e-02 7.653773e-04 5.000000e-02)
1.52          	mag(U)        	0.000000e+00	(4.857083e-04 0.000000e+00 5.000000e-02)	7.323842e+01	(7.556416e-02 7.653773e-04 5.000000e-02)
1.53          	mag(U)        	0.000000e+00	(4.857083e-04 0.000000e+00 5.000000e-02)	7.323842e+01	(7.556416e-02 7.653773e-04 5.000000e-02)
1.54          	mag(U)        	0.000000e+00	(4.857083e-04 0.000000e+00 5.000000e-02)	7.323842e+01	(7.556416e-02 7.653773e-04 5.000000e-02)
1.55          	mag(U)        	0.000000e+00	(4.857083e-04 0.000000e+00 5.000000e-02)	7.323842e+01	(7.556416e-02 7.653773e-04 5.000000e-02)
1.56          	mag(U)        	0.000000e+00	(4.857083e-04 0.000000e+00 5.000000e-02)	7.323842e+01	(7.556416e-02 7.653773e-04 5.000000e-02)
1.57          	mag(U)        	0.000000e+00	(4.857083e-04 0.000000e+00 5.000000e-02)	7.323842e+01	(7.556416e-02 7.653773e-04 5.000000e-02)
1.58          	mag(U)        	0.000000e+00	(4.857083e-04 0.000000e+00 5.000000e-02)	7.323842e+01	(7.556416e-02 7.653773e-04 5.000000e-02)
1.59          	mag(U)        	0.000000e+00	(4.857083e-04 0.000000e+00 5.000000e-02)	7.323842e+01	(7.556416e-02 7.653773e-04 5.000000e-02)
1.6           	mag(U)        	0.000000e+00	(4.857083e-04 0.000000e+00 5.000000e-02)	7.323842e+01	(7.556416e-02 7.653773e-04 5.000000e-02)
1.61          	mag(U)        	0.000000e+00	(4.857083e-04 0.000000e+00 5.000000e-02)	7.323842e+01	(7.556416e-02 7.653773e-04 5.000000e-02)
1.62          	mag(U)        	0.000000e+00	(4.857083e-04 0.000000e+00 5.000000e-02)	7.323842e+01	(7.556416e-02 7.653773e-04 5.000000e-02)
1.63          	mag(U)        	0.000000e+00	(4.857083e-04 0.000000e+00 5.000000e-02)	7.323842e+01	(7.556416e-02 7.653773e-04 5.000000e-02)
1.64          	mag(U)        	0.000000e+00	(4.857083e-04 0.000000e+00 5.000000e-02)	7.323842e+01	(7.556416e-02 7.653773e-04 5.000000e-02)
1.65          	mag(U)        	0.000000e+00	(4.857083e-04 0.000000e+00 5.000000e-02)	7.323842e+01	(7.556416e-02 7.653773e-04 5.000000e-02)
1.66          	mag(U)        	0.000000e+00	(4.857083e-04 0.000000e+00 5.000000e-02)	7.323842e+01	(7.556416e-02 7.653773e-04 5.000000e-02)
1.67          	mag(U)        	0.000000e+00	(4.857083e-04 0.000000e+00 5.000000e-02)	7.323842e+01	(7.556416e-02 7.653773e-04 5.000000e-02)
1.68          	mag(U)        	0.000000e+00	(4.857083e-04 0.000000e+00 5.000000e-02)	7.323842e+01	(7.556416e-02 7.653773e-04 5.000000e-02)
1.69          	mag(U)        	0.000000e+00	(4.857083e-04 0.000000e+00 5.000000e-02)	7.323842e+01	(7.556416e-02 7.653773e-04 5.000000e-02)
1.7           	mag(U)        	0.000000e+00	(4.857083e-04 0.000000e+00 5.000000e-02)	7.323842e+01	(7.556416e-02 7.653773e-04 5.000000e-02)
1.71          	mag(U)        	0.000000e+00	(4.857083e-04 0.000000e+00 5.000000e-02)	7.323842e+01	(7.556416e-02 7.653773e-04 5.000000e-02)
1.72          	mag(U)        	0.000000e+00	(4.857083e-04 0.000000e+00 5.000000e-02)	7.323842e+01	(7.556416e-02 7.653773e-04 5.000000e-02)
1.73          	mag(U)        	0.000000e+00	(4.857083e-04 0.000000e+00 5.000000e-02)	7.323842e+01	(7.556416e-02 7.653773e-04 5.000000e-02)
1.74          	mag(U)        	0.000000e+00	(4.857083e-04 0.000000e+00 5.000000e-02)	7.323842e+01	(7.556416e-02 7.653773e-04 5.000000e-02)
1.75          	mag(U)        	0.000000e+00	(4.857083e-04 0.000000e+00 5.000000e-02)	7.323842e+01	(7.556416e-02 7.653773e-04 5.000000e-02)
1.76          	mag(U)        	0.000000e+00	(4.857083e-04 0.000000e+00 5.000000e-02)	7.323842e+01	(7.556416e-02 7.653773e-04 5.000000e-02)
1.77          	mag(U)        	0.000000e+00	(4.857083e-04 0.000000e+00 5.000000e-02)	7.323842e+01	(7.556416e-02 7.653773e-04 5.000000e-02)
1.78          	mag(U)        	0.000000e+00	(4.857083e-04 0.000000e+00 5.000000e-02)	7.323842e+01	(7.556416e-02 7.653773e-04 5.000000e-02)
1.79          	mag(U)        	0.000000e+00	(4.857083e-04 0.000000e+00 5.000000e-02)	7.323842e+01	(7.556416e-02 7.653773e-04 5.000000e-02)
1.8           	mag(U)        	0.000000e+00	(4.857083e-04 0.000000e+00 5.000000e-02)	7.323842e+01	(7.556416e-02 7.653773e-04 5.000000e-02)
1.81          	mag(U)        	0.000000e+00	(4.857083e-04 0.000000e+00 5.000000e-02)	7.323842e+01	(7.556416e-02 7.653773e-04 5.000000e-02)
1.82          	mag(U)        	0.000000e+00	(4.857083e-04 0.000000e+00 5.000000e-02)	7.323842e+01	(7.556416e-02 7.653773e-04 5.000000e-02)
1.83          	mag(U)        	0.000000e+00	(4.857083e-04 0.000000e+00 5.000000e-02)	7.323842e+01	(7.556416e-02 7.653773e-04 5.000000e-02)
1.84          	mag(U)        	0.000000e+00	(4.857083e-04 0.000000e+00 5.000000e-02)	7.323842e+01	(7.556416e-02 7.653773e-04 5.000000e-02)
1.85          	mag(U)        	0.000000e+00	(4.857083e-04 0.000000e+00 5.000000e-02)	7.323842e+01	(7.556416e-02 7.653773e-04 5.000000e-02)
1.86          	mag(U)        	0.000000e+00	(4.857083e-04 0.000000e+00 5.000000e-02)	7.323842e+01	(7.556416e-02 7.653773e-04 5.000000e-02)
1.87          	mag(U)        	0.000000e+00	(4.857083e-04 0.000000e+00 5.000000e-02)	7.323842e+01	(7.556416e-02 7.653773e-04 5.000000e-02)
1.88          	mag(U)        	0.000000e+00	(4.857083e-04 0.000000e+00 5.000000e-02)	7.323842e+01	(7.556416e-02 7.653773e-04 5.000000e-02)
1.89          	mag(U)        	0.000000e+00	(4.857083e-04 0.000000e+00 5.000000e-02)	7.323842e+01	(7.556416e-02 7.653773e-04 5.000000e-02)
1.9           	mag(U)        	0.000000e+00	(4.857083e-04 0.000000e+00 5.000000e-02)	7.323842e+01	(7.556416e-02 7.653773e-04 5.000000e-02)
1.91          	mag(U)        	0.000000e+00	(4.857083e-04 0.000000e+00 5.000000e-02)	7.323842e+01	(7.556416e-02 7.653773e-04 5.000000e-02)
1.92          	mag(U)        	0.000000e+00	(4.857083e-04 0.000000e+00 5.000000e-02)	7.323842e+01	(7.556416e-02 7.653773e-04 5.000000e-02)
1.93          	mag(U)        	0.000000e+00	(4.857083e-04 0.000000e+00 5.000000e-02)	7.323842e+01	(7.556416e-02 7.653773e-04 5.000000e-02)
1.94          	mag(U)        	0.000000e+00	(4.857083e-04 0.000000e+00 5.000000e-02)	7.323842e+01	(7.556416e-02 7.653773e-04 5.000000e-02)
1.95          	mag(U)        	0.000000e+00	(4.857083e-04 0.000000e+00 5.000000e-02)	7.323842e+01	(7.556416e-02 7.653773e-04 5.000000e-02)
1.96          	mag(U)        	0.000000e+00	(4.857083e-04 0.000000e+00 5.000000e-02)	7.323842e+01	(7.556416e-02 7.653773e-04 5.000000e-02)
1.97          	mag(U)        	0.000000e+00	(4.857083e-04 0.000000e+00 5.000000e-02)	7.323842e+01	(7.556416e-02 7.653773e-04 5.000000e-02)
1.98          	mag(U)        	0.000000e+00	(4.857083e-04 0.000000e+00 5.000000e-02)	7.323842e+01	(7.556416e-02 7.653773e-04 5.000000e-02)
1.99          	mag(U)        	0.000000e+00	(4.857083e-04 0.000000e+00 5.000000e-02)	7.323842e+01	(7.556416e-02 7.653773e-04 5.000000e-02)
2             	mag(U)        	0.000000e+00	(4.857083e-04 0.000000e+00 5.000000e-02)	7.323842e+01	(7.556416e-02 7.653773e-04 5.000000e-02)
2.01          	mag(U)        	0.000000e+00	(4.857083e-04 0.000000e+00 5.000000e-02)	7.323842e+01	(7.556416e-02 7.653773e-04 5.000000e-02)
2.02          	mag(U)        	0.000000e+00	(4.857083e-04 0.000000e+00 5.000000e-02)	7.323842e+01	(7.556416e-02 7.653773e-04 5.000000e-02)
2.03          	mag(U)        	0.000000e+00	(4.857083e-04 0.000000e+00 5.000000e-02)	7.323842e+01	(7.556416e-02 7.653773e-04 5.000000e-02)
2.04          	mag(U)        	0.000000e+00	(4.857083e-04 0.000000e+00 5.000000e-02)	7.323842e+01	(7.556416e-02 7.653773e-04 5.000000e-02)
2.05          	mag(U)        	0.000000e+00	(4.857083e-04 0.000000e+00 5.000000e-02)	7.323842e+01	(7.556416e-02 7.653773e-04 5.000000e-02)
2.06          	mag(U)        	0.000000e+00	(4.857083e-04 0.000000e+00 5.000000e-02)	7.323842e+01	(7.556416e-02 7.653773e-04 5.000000e-02)
2.07          	mag(U)        	0.000000e+00	(4.857083e-04 0.000000e+00 5.000000e-02)	7.323842e+01	(7.556416e-02 7.653773e-04 5.000000e-02)
2.08          	mag(U)        	0.000000e+00	(4.857083e-04 0.000000e+00 5.000000e-02)	7.323842e+01	(7.556416e-02 7.653773e-04 5.000000e-02)
2.09          	mag(U)        	0.000000e+00	(4.857083e-04 0.000000e+00 5.000000e-02)	7.323842e+01	(7.556416e-02 7.653773e-04 5.000000e-02)
2.1           	mag(U)        	0.000000e+00	(4.857083e-04 0.000000e+00 5.000000e-02)	7.323842e+01	(7.556416e-02 7.653773e-04 5.000000e-02)
2.11          	mag(U)        	0.000000e+00	(4.857083e-04 0.000000e+00 5.000000e-02)	7.323842e+01	(7.556416e-02 7.653773e-04 5.000000e-02)
2.12          	mag(U)        	0.000000e+00	(4.857083e-04 0.000000e+00 5.000000e-02)	7.323842e+01	(7.556416e-02 7.653773e-04 5.000000e-02)
2.13          	mag(U)        	0.000000e+00	(4.857083e-04 0.000000e+00 5.000000e-02)	7.323842e+01	(7.556416e-02 7.653773e-04 5.000000e-02)
2.14          	mag(U)        	0.000000e+00	(4.857083e-04 0.000000e+00 5.000000e-02)	7.323842e+01	(7.556416e-02 7.653773e-04 5.000000e-02)
2.15          	mag(U)        	0.000000e+00	(4.857083e-04 0.000000e+00 5.000000e-02)	7.323842e+01	(7.556416e-02 7.653773e-04 5.000000e-02)
2.16          	mag(U)        	0.000000e+00	(4.857083e-04 0.000000e+00 5.000000e-02)	7.323842e+01	(7.556416e-02 7.653773e-04 5.000000e-02)