/*--------------------------------*- C++ -*----------------------------------*\
| =========                 |                                                 |
| \\      /  F ield         | OpenFOAM: The Open Source CFD Toolbox           |
|  \\    /   O peration     | Version:  v2012                                 |
|   \\  /    A nd           | Website:  www.openfoam.com                      |
|    \\/     M anipulation  |                                                 |
\*---------------------------------------------------------------------------*/
FoamFile
{
    version     2.0;
    format      ascii;
    class       volScalarField;
    location    "27";
    object      k;
}
// * * * * * * * * * * * * * * * * * * * * * * * * * * * * * * * * * * * * * //

dimensions      [0 2 -2 0 0 0 0];


internalField   nonuniform List<scalar> 
209825
(
0.00102355
0.000928644
0.000855633
0.000801694
0.000761631
0.000731324
0.000707654
0.000688843
0.000673435
0.00066074
0.000649979
0.000640889
0.000632989
0.0006262
0.00062017
0.000614941
0.000610215
0.000606091
0.000602304
0.000598984
0.000595894
0.00059318
0.000590613
0.000588366
0.000586219
0.000584342
0.000582524
0.000580936
0.000579399
0.000578051
0.000576721
0.000575577
0.000574441
0.000573467
0.000572491
0.000571655
0.000570795
0.000570073
0.000569325
0.000568701
0.000568054
0.000567517
0.000566948
0.00056648
0.000565979
0.000565581
0.000565138
0.000564802
0.000564422
0.000564127
0.000563801
0.000563561
0.000563269
0.000563058
0.000562821
0.000562653
0.000562444
0.000562303
0.000562148
0.000562019
0.000561875
0.000561802
0.000561661
0.000561562
0.000561491
0.00056144
0.000561305
0.000561315
0.000561305
0.0005614
0.00056146
0.000561622
0.000561698
0.000561872
0.000561947
0.000562134
0.000562237
0.000562469
0.000562605
0.000562906
0.00056308
0.000563442
0.000563643
0.000564064
0.000564302
0.000564804
0.000565093
0.000565708
0.000566056
0.000566825
0.000567212
0.00056841
0.000568651
0.000574984
0.0102239
0.0107976
0.00102355
0.000928645
0.000855633
0.000801691
0.000761626
0.000731317
0.000707645
0.000688831
0.000673422
0.000660726
0.000649964
0.000640873
0.000632972
0.000626183
0.000620151
0.000614922
0.000610195
0.000606071
0.000602284
0.000598964
0.000595872
0.000593158
0.000590591
0.000588344
0.000586197
0.000584319
0.000582501
0.000580913
0.000579376
0.000578027
0.000576697
0.000575553
0.000574417
0.000573443
0.000572467
0.00057163
0.00057077
0.000570048
0.0005693
0.000568676
0.000568029
0.000567492
0.000566923
0.000566454
0.000565954
0.000565556
0.000565113
0.000564777
0.000564396
0.000564101
0.000563775
0.000563536
0.000563243
0.000563032
0.000562796
0.000562627
0.000562418
0.000562277
0.000562123
0.000561993
0.000561849
0.000561776
0.000561635
0.000561536
0.000561465
0.000561414
0.000561279
0.000561289
0.000561279
0.000561374
0.000561434
0.000561596
0.000561672
0.000561846
0.000561921
0.000562107
0.00056221
0.000562443
0.000562579
0.00056288
0.000563054
0.000563416
0.000563617
0.000564037
0.000564275
0.000564777
0.000565067
0.000565681
0.000566029
0.000566798
0.000567185
0.000568383
0.000568624
0.000574967
0.0102336
0.0108093
0.00102355
0.000928647
0.000855627
0.000801676
0.0007616
0.000731281
0.0007076
0.00068878
0.000673365
0.000660664
0.000649897
0.000640802
0.000632898
0.000626106
0.000620072
0.000614841
0.000610112
0.000605986
0.000602197
0.000598876
0.000595783
0.000593068
0.0005905
0.000588251
0.000586103
0.000584225
0.000582406
0.000580817
0.000579279
0.00057793
0.000576599
0.000575455
0.000574318
0.000573344
0.000572366
0.00057153
0.000570669
0.000569947
0.000569198
0.000568574
0.000567926
0.000567389
0.00056682
0.000566351
0.00056585
0.000565452
0.000565009
0.000564673
0.000564292
0.000563997
0.00056367
0.000563431
0.000563138
0.000562927
0.00056269
0.000562521
0.000562312
0.000562171
0.000562016
0.000561887
0.000561743
0.000561669
0.000561529
0.00056143
0.000561358
0.000561307
0.000561172
0.000561182
0.000561171
0.000561267
0.000561326
0.000561488
0.000561564
0.000561738
0.000561813
0.000561999
0.000562102
0.000562334
0.00056247
0.000562771
0.000562945
0.000563307
0.000563507
0.000563928
0.000564166
0.000564667
0.000564957
0.00056557
0.000565918
0.000566687
0.000567074
0.000568271
0.000568511
0.000574873
0.0102549
0.0108344
0.00102355
0.000928649
0.000855618
0.000801649
0.000761554
0.000731219
0.000707525
0.000688694
0.000673268
0.000660559
0.000649785
0.000640684
0.000632775
0.000625978
0.00061994
0.000614704
0.000609973
0.000605843
0.000602052
0.000598728
0.000595633
0.000592915
0.000590346
0.000588095
0.000585945
0.000584066
0.000582246
0.000580655
0.000579116
0.000577766
0.000576434
0.000575289
0.000574151
0.000573176
0.000572198
0.000571361
0.000570499
0.000569776
0.000569027
0.000568403
0.000567754
0.000567217
0.000566646
0.000566177
0.000565676
0.000565277
0.000564834
0.000564497
0.000564116
0.000563821
0.000563494
0.000563254
0.000562961
0.00056275
0.000562513
0.000562343
0.000562134
0.000561993
0.000561838
0.000561709
0.000561564
0.00056149
0.00056135
0.00056125
0.000561178
0.000561128
0.000560993
0.000561002
0.000560991
0.000561086
0.000561145
0.000561306
0.000561382
0.000561556
0.000561631
0.000561817
0.000561919
0.000562151
0.000562287
0.000562588
0.000562761
0.000563123
0.000563323
0.000563743
0.000563981
0.000564482
0.000564771
0.000565384
0.000565732
0.0005665
0.000566886
0.000568084
0.000568321
0.000574713
0.0102884
0.0108736
0.00102356
0.000928653
0.000855605
0.00080161
0.000761491
0.000731133
0.000707419
0.000688571
0.000673132
0.000660411
0.000649627
0.000640517
0.0006326
0.000625796
0.000619752
0.000614511
0.000609775
0.000605642
0.000601846
0.000598519
0.000595421
0.0005927
0.000590128
0.000587875
0.000585723
0.000583841
0.000582019
0.000580427
0.000578887
0.000577535
0.000576202
0.000575055
0.000573916
0.00057294
0.00057196
0.000571122
0.00057026
0.000569536
0.000568786
0.00056816
0.000567511
0.000566973
0.000566402
0.000565932
0.00056543
0.000565031
0.000564587
0.00056425
0.000563868
0.000563572
0.000563245
0.000563005
0.000562712
0.0005625
0.000562262
0.000562093
0.000561883
0.000561741
0.000561586
0.000561457
0.000561312
0.000561238
0.000561097
0.000560998
0.000560925
0.000560874
0.000560739
0.000560748
0.000560736
0.000560831
0.000560889
0.00056105
0.000561126
0.000561299
0.000561374
0.00056156
0.000561662
0.000561894
0.000562029
0.000562329
0.000562502
0.000562863
0.000563064
0.000563483
0.00056372
0.000564221
0.00056451
0.000565122
0.000565469
0.000566236
0.000566622
0.000567818
0.000568053
0.000574486
0.0103349
0.0109276
0.00102356
0.000928658
0.000855588
0.000801561
0.000761408
0.000731021
0.000707282
0.000688413
0.000672955
0.000660219
0.000649422
0.0006403
0.000632373
0.000625561
0.000619509
0.000614262
0.000609519
0.00060538
0.00060158
0.000598248
0.000595146
0.000592422
0.000589846
0.00058759
0.000585435
0.00058355
0.000581726
0.000580132
0.000578589
0.000577235
0.0005759
0.000574752
0.000573611
0.000572633
0.000571652
0.000570813
0.000569949
0.000569224
0.000568473
0.000567846
0.000567196
0.000566657
0.000566085
0.000565615
0.000565112
0.000564712
0.000564267
0.000563929
0.000563547
0.00056325
0.000562923
0.000562682
0.000562388
0.000562176
0.000561938
0.000561768
0.000561558
0.000561416
0.00056126
0.00056113
0.000560985
0.00056091
0.00056077
0.00056067
0.000560597
0.000560546
0.000560411
0.000560419
0.000560406
0.0005605
0.000560558
0.000560718
0.000560793
0.000560967
0.000561041
0.000561226
0.000561328
0.000561559
0.000561695
0.000561994
0.000562167
0.000562527
0.000562727
0.000563146
0.000563383
0.000563882
0.00056417
0.000564782
0.000565128
0.000565894
0.000566279
0.000567475
0.000567705
0.000574192
0.0103952
0.0109974
0.00102357
0.000928665
0.000855567
0.0008015
0.000761307
0.000730883
0.000707113
0.000688218
0.000672738
0.000659983
0.000649169
0.000640034
0.000632095
0.000625272
0.00061921
0.000613954
0.000609204
0.000605058
0.000601252
0.000597914
0.000594807
0.000592078
0.000589498
0.000587239
0.00058508
0.000583192
0.000581365
0.000579768
0.000578222
0.000576866
0.000575529
0.000574378
0.000573235
0.000572256
0.000571273
0.000570432
0.000569566
0.00056884
0.000568087
0.00056746
0.000566808
0.000566268
0.000565695
0.000565223
0.000564719
0.000564318
0.000563873
0.000563534
0.000563151
0.000562854
0.000562525
0.000562284
0.000561989
0.000561776
0.000561538
0.000561367
0.000561156
0.000561014
0.000560858
0.000560728
0.000560582
0.000560507
0.000560366
0.000560266
0.000560192
0.000560141
0.000560006
0.000560013
0.000559999
0.000560093
0.000560149
0.000560309
0.000560384
0.000560557
0.00056063
0.000560815
0.000560917
0.000561147
0.000561282
0.000561581
0.000561753
0.000562113
0.000562312
0.00056273
0.000562966
0.000563465
0.000563752
0.000564362
0.000564708
0.000565473
0.000565856
0.000567051
0.000567277
0.000573829
0.0104699
0.0110837
0.00102358
0.000928672
0.000855542
0.000801428
0.000761186
0.00073072
0.000706913
0.000687986
0.00067248
0.000659702
0.000648869
0.000639717
0.000631763
0.000624927
0.000618854
0.000613588
0.000608829
0.000604675
0.000600861
0.000597517
0.000594404
0.00059167
0.000589084
0.00058682
0.000584657
0.000582766
0.000580934
0.000579334
0.000577785
0.000576426
0.000575086
0.000573933
0.000572788
0.000571806
0.000570821
0.000569978
0.00056911
0.000568382
0.000567628
0.000566999
0.000566345
0.000565804
0.000565229
0.000564757
0.000564252
0.00056385
0.000563403
0.000563063
0.000562679
0.000562381
0.000562051
0.000561809
0.000561514
0.0005613
0.000561061
0.00056089
0.000560678
0.000560535
0.000560378
0.000560248
0.000560101
0.000560026
0.000559885
0.000559785
0.00055971
0.000559659
0.000559524
0.00055953
0.000559514
0.000559607
0.000559663
0.000559821
0.000559896
0.000560068
0.000560141
0.000560326
0.000560427
0.000560656
0.000560791
0.000561088
0.00056126
0.000561618
0.000561818
0.000562234
0.00056247
0.000562967
0.000563254
0.000563863
0.000564208
0.00056497
0.000565353
0.000566546
0.000566767
0.000573398
0.0105599
0.0111872
0.00102358
0.000928681
0.000855514
0.000801344
0.000761047
0.00073053
0.00070668
0.000687717
0.00067218
0.000659376
0.00064852
0.000639348
0.000631377
0.000624526
0.00061844
0.000613162
0.000608393
0.000604229
0.000600407
0.000597055
0.000593935
0.000591194
0.000588603
0.000586333
0.000584165
0.000582269
0.000580434
0.000578829
0.000577277
0.000575915
0.000574571
0.000573415
0.000572267
0.000571282
0.000570295
0.000569449
0.00056858
0.00056785
0.000567093
0.000566462
0.000565807
0.000565264
0.000564688
0.000564214
0.000563707
0.000563304
0.000562856
0.000562515
0.00056213
0.000561831
0.0005615
0.000561257
0.000560961
0.000560746
0.000560506
0.000560334
0.000560122
0.000559978
0.00055982
0.00055969
0.000559542
0.000559467
0.000559325
0.000559225
0.000559149
0.000559098
0.000558963
0.000558967
0.00055895
0.000559042
0.000559096
0.000559254
0.000559327
0.000559499
0.000559572
0.000559756
0.000559856
0.000560085
0.000560219
0.000560515
0.000560686
0.000561044
0.000561242
0.000561657
0.000561893
0.000562388
0.000562674
0.000563281
0.000563625
0.000564385
0.000564766
0.000565958
0.000566173
0.000572897
0.0106655
0.0113088
0.00102359
0.000928691
0.000855482
0.00080125
0.000760889
0.000730314
0.000706415
0.00068741
0.000671838
0.000659003
0.000648122
0.000638928
0.000630937
0.000624069
0.000617968
0.000612676
0.000607895
0.00060372
0.000599888
0.000596527
0.000593399
0.000590651
0.000588053
0.000585777
0.000583604
0.000581702
0.000579862
0.000578253
0.000576696
0.00057533
0.000573983
0.000572823
0.000571672
0.000570684
0.000569694
0.000568846
0.000567974
0.000567241
0.000566483
0.000565849
0.000565192
0.000564647
0.000564069
0.000563594
0.000563086
0.000562681
0.000562231
0.000561889
0.000561502
0.000561202
0.00056087
0.000560626
0.000560329
0.000560113
0.000559872
0.000559699
0.000559486
0.000559342
0.000559183
0.000559052
0.000558903
0.000558827
0.000558686
0.000558584
0.000558508
0.000558456
0.000558322
0.000558324
0.000558305
0.000558396
0.000558448
0.000558605
0.000558678
0.000558849
0.000558921
0.000559104
0.000559204
0.000559432
0.000559565
0.000559859
0.00056003
0.000560386
0.000560584
0.000560998
0.000561233
0.000561726
0.000562011
0.000562616
0.000562959
0.000563717
0.000564096
0.000565286
0.000565495
0.000572325
0.0107873
0.011449
0.00102361
0.000928703
0.000855447
0.000801145
0.000760712
0.000730073
0.000706118
0.000687066
0.000671454
0.000658585
0.000647674
0.000638455
0.000630442
0.000623554
0.000617436
0.000612129
0.000607334
0.000603147
0.000599304
0.000595933
0.000592795
0.000590039
0.000587434
0.000585151
0.000582971
0.000581063
0.000579217
0.000577603
0.000576042
0.000574671
0.00057332
0.000572156
0.000571001
0.00057001
0.000569016
0.000568166
0.000567291
0.000566555
0.000565794
0.000565159
0.000564499
0.000563952
0.000563372
0.000562895
0.000562385
0.000561979
0.000561527
0.000561184
0.000560795
0.000560494
0.00056016
0.000559915
0.000559617
0.0005594
0.000559157
0.000558984
0.00055877
0.000558624
0.000558464
0.000558333
0.000558183
0.000558106
0.000557964
0.000557863
0.000557785
0.000557733
0.000557599
0.000557599
0.000557578
0.000557668
0.000557718
0.000557874
0.000557946
0.000558116
0.000558188
0.000558369
0.000558469
0.000558696
0.000558828
0.000559121
0.000559291
0.000559645
0.000559842
0.000560255
0.000560488
0.00056098
0.000561264
0.000561866
0.000562208
0.000562963
0.000563341
0.000564529
0.00056473
0.000571682
0.0109257
0.0116085
0.00102362
0.000928717
0.000855408
0.000801029
0.000760516
0.000729805
0.000705788
0.000686683
0.000671027
0.00065812
0.000647177
0.000637929
0.000629891
0.000622982
0.000616844
0.00061152
0.000606709
0.000602509
0.000598653
0.000595271
0.000592123
0.000589358
0.000586744
0.000584453
0.000582266
0.000580352
0.0005785
0.00057688
0.000575313
0.000573937
0.000572581
0.000571413
0.000570254
0.000569259
0.000568262
0.000567408
0.000566529
0.000565791
0.000565027
0.000564389
0.000563727
0.000563178
0.000562595
0.000562116
0.000561603
0.000561196
0.000560742
0.000560397
0.000560007
0.000559704
0.000559369
0.000559122
0.000558823
0.000558605
0.00055836
0.000558186
0.000557971
0.000557824
0.000557663
0.000557531
0.00055738
0.000557303
0.00055716
0.000557058
0.000556979
0.000556926
0.000556793
0.000556791
0.000556768
0.000556856
0.000556905
0.000557059
0.00055713
0.000557299
0.00055737
0.000557551
0.00055765
0.000557875
0.000558006
0.000558297
0.000558467
0.000558819
0.000559016
0.000559426
0.000559659
0.000560148
0.000560431
0.000561031
0.000561371
0.000562123
0.000562499
0.000563684
0.000563877
0.000570966
0.0110808
0.011788
0.00102363
0.000928731
0.000855367
0.000800902
0.000760301
0.00072951
0.000705425
0.000686263
0.000670556
0.000657608
0.000646628
0.000637349
0.000629284
0.000622351
0.000616192
0.000610849
0.000606021
0.000601806
0.000597936
0.000594541
0.000591382
0.000588607
0.000585983
0.000583683
0.000581488
0.000579566
0.000577707
0.000576081
0.000574508
0.000573127
0.000571766
0.000570593
0.000569429
0.00056843
0.000567428
0.000566571
0.000565689
0.000564948
0.00056418
0.000563539
0.000562874
0.000562322
0.000561737
0.000561256
0.000560741
0.000560331
0.000559875
0.000559529
0.000559137
0.000558832
0.000558495
0.000558247
0.000557946
0.000557727
0.000557481
0.000557305
0.000557089
0.000556941
0.000556779
0.000556646
0.000556494
0.000556416
0.000556273
0.00055617
0.000556089
0.000556036
0.000555904
0.000555899
0.000555873
0.00055596
0.000556006
0.000556159
0.000556229
0.000556397
0.000556467
0.000556646
0.000556745
0.000556968
0.000557098
0.000557388
0.000557556
0.000557907
0.000558102
0.000558511
0.000558742
0.00055923
0.000559511
0.000560108
0.000560446
0.000561196
0.000561569
0.000562752
0.000562935
0.000570177
0.0112526
0.0119881
0.00102365
0.000928748
0.000855322
0.000800764
0.000760067
0.00072919
0.00070503
0.000685803
0.000670043
0.000657048
0.000646029
0.000636715
0.00062862
0.00062166
0.000615478
0.000610114
0.000605267
0.000601035
0.00059715
0.000593742
0.00059057
0.000587784
0.00058515
0.000582841
0.000580636
0.000578706
0.00057684
0.000575207
0.000573627
0.00057224
0.000570873
0.000569695
0.000568526
0.000567522
0.000566516
0.000565654
0.000564768
0.000564023
0.000563252
0.000562608
0.00056194
0.000561385
0.000560797
0.000560314
0.000559796
0.000559384
0.000558926
0.000558577
0.000558183
0.000557877
0.000557537
0.000557288
0.000556985
0.000556764
0.000556517
0.00055634
0.000556122
0.000555973
0.000555809
0.000555676
0.000555522
0.000555443
0.0005553
0.000555196
0.000555114
0.00055506
0.000554928
0.000554921
0.000554892
0.000554978
0.000555021
0.000555172
0.000555241
0.000555408
0.000555477
0.000555655
0.000555753
0.000555975
0.000556104
0.000556391
0.000556558
0.000556907
0.000557101
0.000557508
0.000557738
0.000558223
0.000558503
0.000559096
0.000559433
0.000560179
0.000560549
0.00056173
0.000561904
0.000569313
0.0114407
0.0122093
0.00102366
0.000928766
0.000855275
0.000800617
0.000759815
0.000728843
0.000704602
0.000685306
0.000669486
0.000656441
0.000645378
0.000636027
0.000627898
0.00062091
0.000614702
0.000609316
0.000604448
0.000600198
0.000596296
0.000592873
0.000589688
0.000586889
0.000584243
0.000581924
0.000579709
0.000577771
0.000575896
0.000574255
0.000572668
0.000571275
0.000569901
0.000568717
0.000567543
0.000566534
0.000565522
0.000564656
0.000563766
0.000563018
0.000562243
0.000561595
0.000560923
0.000560366
0.000559774
0.000559288
0.000558767
0.000558353
0.000557892
0.000557541
0.000557145
0.000556837
0.000556495
0.000556244
0.000555939
0.000555717
0.000555467
0.000555289
0.00055507
0.000554919
0.000554754
0.000554619
0.000554464
0.000554384
0.00055424
0.000554136
0.000554052
0.000553998
0.000553866
0.000553857
0.000553824
0.000553908
0.000553949
0.000554098
0.000554166
0.000554332
0.000554399
0.000554576
0.000554672
0.000554893
0.000555021
0.000555306
0.000555472
0.000555818
0.000556011
0.000556415
0.000556644
0.000557126
0.000557405
0.000557995
0.000558329
0.000559072
0.000559439
0.000560617
0.00056078
0.000568374
0.0116446
0.012452
0.00102368
0.000928787
0.000855225
0.000800459
0.000759544
0.00072847
0.000704141
0.000684769
0.000668886
0.000655786
0.000644676
0.000635283
0.000627119
0.000620099
0.000613864
0.000608453
0.000603563
0.000599293
0.000595373
0.000591934
0.000588733
0.000585921
0.000583263
0.000580932
0.000578707
0.000576759
0.000574875
0.000573226
0.00057163
0.00057023
0.00056885
0.00056766
0.000566479
0.000565464
0.000564448
0.000563577
0.000562682
0.000561929
0.00056115
0.000560498
0.000559822
0.000559262
0.000558667
0.000558178
0.000557654
0.000557237
0.000556773
0.00055642
0.000556021
0.000555711
0.000555367
0.000555113
0.000554807
0.000554583
0.000554331
0.000554151
0.00055393
0.000553778
0.000553611
0.000553476
0.000553319
0.000553238
0.000553093
0.000552988
0.000552902
0.000552848
0.000552716
0.000552705
0.000552668
0.00055275
0.000552788
0.000552936
0.000553001
0.000553166
0.000553232
0.000553408
0.000553503
0.000553721
0.000553848
0.000554131
0.000554295
0.000554639
0.000554831
0.000555233
0.00055546
0.000555939
0.000556216
0.000556802
0.000557135
0.000557873
0.000558237
0.000559412
0.000559564
0.000567358
0.0118634
0.0127166
0.00102369
0.000928809
0.000855173
0.000800291
0.000759256
0.000728072
0.000703647
0.000684194
0.000668242
0.000655083
0.000643921
0.000634485
0.000626282
0.000619228
0.000612962
0.000607524
0.000602611
0.000598319
0.00059438
0.000590923
0.000587706
0.000584879
0.000582207
0.000579864
0.000577628
0.000575669
0.000573775
0.000572117
0.000570514
0.000569106
0.000567718
0.000566521
0.000565333
0.000564313
0.00056329
0.000562414
0.000561514
0.000560757
0.000559973
0.000559317
0.000558637
0.000558073
0.000557474
0.000556982
0.000556455
0.000556035
0.000555568
0.000555212
0.00055481
0.000554498
0.000554151
0.000553896
0.000553587
0.000553361
0.000553107
0.000552926
0.000552703
0.000552549
0.00055238
0.000552244
0.000552085
0.000552003
0.000551857
0.000551751
0.000551663
0.000551608
0.000551477
0.000551463
0.000551423
0.000551503
0.000551537
0.000551683
0.000551747
0.00055191
0.000551975
0.000552149
0.000552243
0.000552459
0.000552585
0.000552864
0.000553028
0.000553369
0.00055356
0.000553958
0.000554184
0.00055466
0.000554935
0.000555517
0.000555847
0.000556581
0.000556942
0.000558114
0.000558254
0.000566263
0.0120959
0.0130035
0.00102371
0.000928833
0.000855118
0.000800113
0.000758949
0.000727648
0.00070312
0.000683581
0.000667554
0.000654331
0.000643115
0.000633631
0.000625386
0.000618296
0.000611997
0.000606531
0.000601591
0.000597276
0.000593316
0.00058984
0.000586606
0.000583763
0.000581077
0.00057872
0.000576472
0.000574502
0.000572597
0.00057093
0.000569316
0.000567901
0.000566504
0.0005653
0.000564105
0.000563079
0.000562049
0.000561168
0.000560262
0.0005595
0.000558711
0.000558051
0.000557366
0.000556798
0.000556195
0.0005557
0.000555169
0.000554746
0.000554276
0.000553917
0.000553512
0.000553197
0.000552847
0.00055259
0.000552279
0.000552051
0.000551794
0.000551611
0.000551386
0.000551231
0.00055106
0.000550923
0.000550762
0.000550678
0.000550532
0.000550425
0.000550335
0.000550279
0.000550148
0.000550131
0.000550087
0.000550164
0.000550195
0.000550339
0.000550401
0.000550562
0.000550626
0.000550798
0.000550891
0.000551105
0.000551229
0.000551506
0.000551668
0.000552006
0.000552196
0.000552591
0.000552816
0.000553287
0.00055356
0.000554138
0.000554466
0.000555195
0.000555553
0.000556721
0.000556849
0.000565088
0.0123404
0.0133127
0.00102373
0.000928859
0.000855062
0.000799927
0.000758626
0.000727198
0.000702562
0.000682929
0.000666822
0.000653531
0.000642256
0.000632721
0.000624431
0.000617302
0.000610969
0.000605471
0.000600504
0.000596164
0.000592181
0.000588685
0.000585432
0.000582572
0.00057987
0.0005775
0.000575237
0.000573255
0.00057134
0.000569661
0.000568038
0.000566613
0.000565208
0.000563996
0.000562794
0.00056176
0.000560724
0.000559837
0.000558925
0.000558157
0.000557363
0.000556698
0.000556008
0.000555436
0.000554829
0.00055433
0.000553795
0.000553369
0.000552895
0.000552533
0.000552125
0.000551808
0.000551455
0.000551195
0.000550881
0.000550651
0.000550392
0.000550207
0.00054998
0.000549822
0.000549649
0.000549511
0.000549348
0.000549263
0.000549115
0.000549007
0.000548915
0.000548858
0.000548727
0.000548708
0.000548659
0.000548734
0.000548762
0.000548903
0.000548963
0.000549122
0.000549185
0.000549355
0.000549446
0.000549658
0.000549781
0.000550054
0.000550215
0.00055055
0.000550738
0.00055113
0.000551353
0.000551821
0.000552091
0.000552665
0.00055299
0.000553714
0.000554068
0.000555232
0.000555347
0.000563832
0.0125949
0.0136442
0.00102375
0.000928887
0.000855004
0.000799731
0.000758284
0.000726723
0.000701971
0.000682238
0.000666047
0.000652683
0.000641345
0.000631755
0.000623418
0.000616247
0.000609876
0.000604345
0.000599348
0.000594982
0.000590974
0.000587456
0.000584183
0.000581305
0.000578587
0.000576201
0.000573924
0.00057193
0.000570001
0.000568312
0.000566678
0.000565244
0.00056383
0.000562609
0.000561398
0.000560357
0.000559314
0.00055842
0.000557502
0.000556728
0.000555928
0.000555258
0.000554563
0.000553986
0.000553375
0.000552872
0.000552332
0.000551903
0.000551425
0.00055106
0.000550648
0.000550328
0.000549972
0.000549709
0.000549393
0.000549161
0.000548898
0.000548712
0.000548482
0.000548322
0.000548147
0.000548007
0.000547842
0.000547755
0.000547607
0.000547498
0.000547403
0.000547346
0.000547214
0.000547193
0.000547139
0.000547211
0.000547235
0.000547374
0.000547432
0.000547589
0.00054765
0.000547818
0.000547908
0.000548117
0.000548238
0.000548508
0.000548667
0.000548999
0.000549185
0.000549574
0.000549795
0.000550259
0.000550527
0.000551096
0.000551418
0.000552137
0.000552487
0.000553646
0.000553748
0.000562493
0.0128567
0.0139976
0.00102377
0.000928917
0.000854945
0.000799527
0.000757926
0.000726224
0.000701348
0.00068151
0.000665228
0.000651786
0.000640382
0.000630734
0.000622345
0.00061513
0.000608719
0.000603153
0.000598124
0.000593729
0.000589696
0.000586154
0.00058286
0.000579963
0.000577226
0.000574824
0.000572532
0.000570524
0.000568582
0.000566881
0.000565236
0.000563791
0.000562367
0.000561138
0.000559918
0.000558869
0.000557817
0.000556917
0.000555991
0.000555212
0.000554406
0.000553731
0.00055303
0.000552448
0.000551831
0.000551324
0.00055078
0.000550347
0.000549865
0.000549496
0.000549081
0.000548758
0.000548398
0.000548133
0.000547813
0.000547579
0.000547313
0.000547124
0.000546892
0.00054673
0.000546552
0.000546411
0.000546244
0.000546155
0.000546005
0.000545895
0.000545798
0.00054574
0.000545608
0.000545584
0.000545526
0.000545594
0.000545615
0.00054575
0.000545806
0.000545961
0.00054602
0.000546186
0.000546274
0.000546481
0.0005466
0.000546867
0.000547024
0.000547352
0.000547537
0.000547922
0.000548141
0.0005486
0.000548866
0.000549429
0.000549749
0.000550462
0.000550808
0.000551962
0.000552051
0.000561067
0.0131229
0.0143725
0.00102379
0.00092895
0.000854884
0.000799315
0.000757552
0.0007257
0.000700694
0.000680744
0.000664366
0.000650842
0.000639366
0.000629656
0.000621214
0.00061395
0.000607497
0.000601894
0.000596831
0.000592405
0.000588345
0.000584778
0.000581461
0.000578543
0.000575788
0.000573368
0.00057106
0.000569037
0.000567082
0.000565368
0.00056371
0.000562255
0.00056082
0.000559581
0.000558351
0.000557294
0.000556234
0.000555326
0.000554394
0.000553608
0.000552795
0.000552114
0.000551407
0.000550821
0.000550198
0.000549687
0.000549138
0.0005487
0.000548214
0.000547842
0.000547422
0.000547096
0.000546732
0.000546464
0.000546141
0.000545904
0.000545636
0.000545444
0.000545209
0.000545045
0.000544864
0.000544722
0.000544552
0.000544462
0.00054431
0.000544199
0.000544098
0.00054404
0.000543907
0.000543881
0.000543818
0.000543883
0.000543899
0.000544032
0.000544085
0.000544238
0.000544295
0.000544459
0.000544545
0.000544749
0.000544866
0.000545129
0.000545284
0.000545609
0.000545791
0.000546172
0.000546389
0.000546844
0.000547108
0.000547665
0.000547982
0.000548689
0.000549031
0.00055018
0.000550255
0.000559554
0.0133898
0.0147678
0.00102382
0.000928985
0.000854822
0.000799095
0.000757162
0.000725153
0.000700008
0.00067994
0.000663461
0.000649849
0.000638298
0.000628523
0.000620022
0.000612709
0.000606211
0.000600567
0.000595468
0.000591011
0.000586921
0.000583328
0.000579987
0.000577047
0.000574271
0.000571833
0.000569508
0.000567469
0.000565499
0.000563772
0.000562101
0.000560634
0.000559188
0.000557939
0.000556699
0.000555633
0.000554564
0.000553648
0.000552708
0.000551915
0.000551095
0.000550408
0.000549695
0.000549103
0.000548475
0.000547959
0.000547404
0.000546963
0.000546472
0.000546095
0.000545672
0.000545342
0.000544974
0.000544703
0.000544377
0.000544137
0.000543864
0.000543671
0.000543433
0.000543266
0.000543082
0.000542939
0.000542765
0.000542673
0.000542521
0.000542408
0.000542304
0.000542245
0.000542112
0.000542083
0.000542015
0.000542076
0.000542088
0.000542217
0.000542268
0.000542418
0.000542473
0.000542634
0.000542719
0.00054292
0.000543035
0.000543294
0.000543447
0.000543768
0.000543948
0.000544325
0.00054454
0.00054499
0.00054525
0.000545803
0.000546116
0.000546817
0.000547154
0.000548297
0.000548358
0.000557951
0.0136534
0.0151821
0.00102384
0.000929022
0.00085476
0.000798868
0.000756757
0.000724582
0.000699292
0.000679099
0.000662512
0.000648809
0.000637178
0.000627333
0.000618772
0.000611405
0.00060486
0.000599174
0.000594037
0.000589545
0.000585424
0.000581803
0.000578436
0.000575473
0.000572676
0.000570219
0.000567875
0.000565819
0.000563834
0.000562092
0.000560408
0.000558929
0.000557471
0.00055621
0.00055496
0.000553884
0.000552806
0.000551882
0.000550933
0.000550133
0.000549305
0.000548612
0.000547892
0.000547294
0.00054666
0.000546139
0.000545579
0.000545133
0.000544637
0.000544256
0.000543828
0.000543495
0.000543122
0.000542848
0.000542518
0.000542275
0.000541999
0.000541803
0.000541562
0.000541392
0.000541205
0.00054106
0.000540884
0.00054079
0.000540635
0.000540521
0.000540415
0.000540354
0.00054022
0.000540189
0.000540116
0.000540172
0.000540181
0.000540306
0.000540353
0.000540501
0.000540554
0.000540713
0.000540795
0.000540993
0.000541106
0.000541361
0.000541512
0.000541828
0.000542007
0.000542379
0.000542591
0.000543036
0.000543294
0.00054384
0.00054415
0.000544845
0.000545176
0.000546313
0.00054636
0.000556255
0.0139091
0.0156134
0.00102386
0.000929062
0.000854698
0.000798634
0.000756337
0.000723988
0.000698546
0.000678221
0.000661522
0.000647721
0.000636006
0.000626088
0.000617463
0.000610039
0.000603444
0.000597713
0.000592536
0.000588008
0.000583854
0.000580204
0.00057681
0.000573822
0.000571002
0.000568524
0.000566161
0.000564088
0.000562086
0.000560329
0.00055863
0.000557138
0.000555667
0.000554395
0.000553134
0.000552048
0.000550959
0.000550027
0.000549069
0.000548261
0.000547426
0.000546726
0.000545998
0.000545394
0.000544754
0.000544227
0.000543661
0.00054321
0.000542709
0.000542324
0.000541891
0.000541554
0.000541177
0.000540899
0.000540565
0.000540319
0.000540039
0.00053984
0.000539596
0.000539423
0.000539233
0.000539086
0.000538906
0.00053881
0.000538654
0.000538538
0.000538428
0.000538367
0.000538232
0.000538198
0.00053812
0.000538171
0.000538176
0.000538297
0.000538341
0.000538486
0.000538536
0.000538693
0.000538773
0.000538967
0.000539078
0.000539329
0.000539477
0.000539789
0.000539965
0.000540333
0.000540543
0.000540983
0.000541237
0.000541777
0.000542084
0.000542771
0.000543098
0.000544227
0.000544261
0.000554462
0.0141516
0.0160593
0.00102389
0.000929104
0.000854636
0.000798394
0.000755902
0.000723372
0.00069777
0.000677307
0.000660489
0.000646586
0.000634783
0.000624788
0.000616095
0.000608612
0.000601963
0.000596185
0.000590966
0.000586399
0.000582211
0.00057853
0.000575107
0.000572094
0.00056925
0.00056675
0.000564366
0.000562274
0.000560254
0.000558481
0.000556767
0.000555261
0.000553777
0.000552493
0.00055122
0.000550123
0.000549024
0.000548082
0.000547115
0.000546299
0.000545455
0.000544748
0.000544012
0.000543402
0.000542755
0.000542223
0.000541651
0.000541195
0.000540688
0.000540298
0.00053986
0.000539518
0.000539137
0.000538855
0.000538517
0.000538267
0.000537983
0.000537781
0.000537533
0.000537358
0.000537164
0.000537015