/*--------------------------------*- C++ -*----------------------------------*\
| =========                 |                                                 |
| \\      /  F ield         | OpenFOAM: The Open Source CFD Toolbox           |
|  \\    /   O peration     | Version:  v2012                                 |
|   \\  /    A nd           | Website:  www.openfoam.com                      |
|    \\/     M anipulation  |                                                 |
\*---------------------------------------------------------------------------*/
FoamFile
{
    version     2.0;
    format      ascii;
    class       volScalarField;
    location    "27";
    object      nut;
}
// * * * * * * * * * * * * * * * * * * * * * * * * * * * * * * * * * * * * * //

dimensions      [0 2 -1 0 0 0 0];


internalField   nonuniform List<scalar> 
209825
(
1.24915e-07
1.19338e-07
1.11216e-07
1.03584e-07
9.72697e-08
9.22214e-08
8.81431e-08
8.48309e-08
8.20741e-08
7.97773e-08
7.78128e-08
7.61425e-08
7.46833e-08
7.3425e-08
7.23027e-08
7.13272e-08
7.04435e-08
6.96711e-08
6.89609e-08
6.83373e-08
6.77565e-08
6.7246e-08
6.67628e-08
6.63386e-08
6.59337e-08
6.55791e-08
6.52357e-08
6.49342e-08
6.46435e-08
6.43879e-08
6.41352e-08
6.39165e-08
6.37001e-08
6.35139e-08
6.33274e-08
6.31655e-08
6.30009e-08
6.28618e-08
6.27175e-08
6.2596e-08
6.24697e-08
6.23628e-08
6.22523e-08
6.21605e-08
6.20607e-08
6.19798e-08
6.18938e-08
6.18266e-08
6.17477e-08
6.16878e-08
6.16286e-08
6.15739e-08
6.15101e-08
6.14648e-08
6.14117e-08
6.13755e-08
6.13215e-08
6.12757e-08
6.12363e-08
6.11881e-08
6.11529e-08
6.11369e-08
6.10956e-08
6.10621e-08
6.10275e-08
6.09949e-08
6.09505e-08
6.09393e-08
6.09164e-08
6.09158e-08
6.09087e-08
6.09167e-08
6.09101e-08
6.09204e-08
6.09128e-08
6.09216e-08
6.09201e-08
6.09296e-08
6.0933e-08
6.09499e-08
6.09574e-08
6.0979e-08
6.09895e-08
6.1013e-08
6.10266e-08
6.10552e-08
6.10717e-08
6.11074e-08
6.11258e-08
6.11673e-08
6.1184e-08
6.12359e-08
6.12337e-08
6.17048e-08
3.22357e-06
1.94784e-08
1.24915e-07
1.19339e-07
1.11217e-07
1.03586e-07
9.72718e-08
9.22234e-08
8.81448e-08
8.48324e-08
8.20754e-08
7.97784e-08
7.78138e-08
7.61433e-08
7.4684e-08
7.34256e-08
7.23031e-08
7.13275e-08
7.04437e-08
6.96711e-08
6.89609e-08
6.83373e-08
6.77564e-08
6.72458e-08
6.67625e-08
6.63383e-08
6.59333e-08
6.55787e-08
6.52352e-08
6.49337e-08
6.4643e-08
6.43874e-08
6.41346e-08
6.39158e-08
6.36994e-08
6.35132e-08
6.33266e-08
6.31647e-08
6.30001e-08
6.2861e-08
6.27167e-08
6.25951e-08
6.24688e-08
6.23619e-08
6.22514e-08
6.21595e-08
6.20598e-08
6.19788e-08
6.18929e-08
6.18256e-08
6.17468e-08
6.16868e-08
6.16276e-08
6.15729e-08
6.1509e-08
6.14638e-08
6.14107e-08
6.13745e-08
6.13205e-08
6.12746e-08
6.12352e-08
6.1187e-08
6.11518e-08
6.11358e-08
6.10945e-08
6.1061e-08
6.10264e-08
6.09938e-08
6.09494e-08
6.09382e-08
6.09153e-08
6.09147e-08
6.09076e-08
6.09155e-08
6.0909e-08
6.09192e-08
6.09116e-08
6.09205e-08
6.09189e-08
6.09284e-08
6.09318e-08
6.09487e-08
6.09562e-08
6.09778e-08
6.09883e-08
6.10118e-08
6.10254e-08
6.1054e-08
6.10705e-08
6.11061e-08
6.11246e-08
6.11661e-08
6.11828e-08
6.12346e-08
6.12324e-08
6.17042e-08
3.22438e-06
1.9642e-08
1.24915e-07
1.19344e-07
1.11225e-07
1.03595e-07
9.72804e-08
9.22312e-08
8.81517e-08
8.48384e-08
8.20805e-08
7.97827e-08
7.78174e-08
7.61462e-08
7.46863e-08
7.34274e-08
7.23045e-08
7.13284e-08
7.04442e-08
6.96713e-08
6.89608e-08
6.83368e-08
6.77557e-08
6.72449e-08
6.67613e-08
6.63369e-08
6.59317e-08
6.5577e-08
6.52334e-08
6.49317e-08
6.46408e-08
6.4385e-08
6.41321e-08
6.39133e-08
6.36967e-08
6.35104e-08
6.33238e-08
6.31618e-08
6.29971e-08
6.28579e-08
6.27135e-08
6.25919e-08
6.24655e-08
6.23585e-08
6.2248e-08
6.2156e-08
6.20562e-08
6.19752e-08
6.18892e-08
6.18219e-08
6.1743e-08
6.1683e-08
6.16237e-08
6.1569e-08
6.15051e-08
6.14598e-08
6.14067e-08
6.13705e-08
6.13165e-08
6.12706e-08
6.12312e-08
6.11829e-08
6.11477e-08
6.11316e-08
6.10903e-08
6.10569e-08
6.10222e-08
6.09896e-08
6.09452e-08
6.09339e-08
6.0911e-08
6.09103e-08
6.09032e-08
6.09111e-08
6.09045e-08
6.09147e-08
6.09072e-08
6.09159e-08
6.09144e-08
6.09239e-08
6.09273e-08
6.09441e-08
6.09516e-08
6.09732e-08
6.09837e-08
6.10071e-08
6.10207e-08
6.10493e-08
6.10657e-08
6.11013e-08
6.11198e-08
6.11612e-08
6.11779e-08
6.12297e-08
6.12275e-08
6.17006e-08
3.2266e-06
1.98789e-08
1.24916e-07
1.19352e-07
1.11239e-07
1.0361e-07
9.7295e-08
9.22444e-08
8.81634e-08
8.48485e-08
8.20891e-08
7.97899e-08
7.78234e-08
7.61511e-08
7.46903e-08
7.34304e-08
7.23068e-08
7.13299e-08
7.04451e-08
6.96717e-08
6.89606e-08
6.83362e-08
6.77546e-08
6.72434e-08
6.67595e-08
6.63347e-08
6.59292e-08
6.55741e-08
6.52303e-08
6.49283e-08
6.46372e-08
6.43813e-08
6.41281e-08
6.39091e-08
6.36923e-08
6.35059e-08
6.33191e-08
6.3157e-08
6.29921e-08
6.28528e-08
6.27082e-08
6.25865e-08
6.246e-08
6.2353e-08
6.22423e-08
6.21503e-08
6.20503e-08
6.19693e-08
6.18832e-08
6.18158e-08
6.17368e-08
6.16767e-08
6.16174e-08
6.15626e-08
6.14987e-08
6.14533e-08
6.14001e-08
6.13639e-08
6.13098e-08
6.12639e-08
6.12245e-08
6.11762e-08
6.11409e-08
6.11248e-08
6.10834e-08
6.105e-08
6.10153e-08
6.09827e-08
6.09383e-08
6.09268e-08
6.09038e-08
6.09031e-08
6.08959e-08
6.09038e-08
6.08971e-08
6.09073e-08
6.08997e-08
6.09085e-08
6.09069e-08
6.09163e-08
6.09197e-08
6.09364e-08
6.0944e-08
6.09654e-08
6.09759e-08
6.09994e-08
6.10129e-08
6.10414e-08
6.10578e-08
6.10934e-08
6.11118e-08
6.11532e-08
6.11699e-08
6.12217e-08
6.12193e-08
6.16945e-08
3.2302e-06
2.01648e-08
1.24916e-07
1.19363e-07
1.11258e-07
1.03631e-07
9.73156e-08
9.22631e-08
8.81798e-08
8.48627e-08
8.21012e-08
7.98002e-08
7.78319e-08
7.61582e-08
7.46959e-08
7.34349e-08
7.23101e-08
7.13323e-08
7.04465e-08
6.96723e-08
6.89604e-08
6.83353e-08
6.77531e-08
6.72414e-08
6.67569e-08
6.63317e-08
6.59257e-08
6.55702e-08
6.5226e-08
6.49237e-08
6.46322e-08
6.4376e-08
6.41226e-08
6.39032e-08
6.36862e-08
6.34995e-08
6.33125e-08
6.31502e-08
6.29851e-08
6.28457e-08
6.27009e-08
6.2579e-08
6.24523e-08
6.23452e-08
6.22343e-08
6.21422e-08
6.20421e-08
6.19609e-08
6.18747e-08
6.18072e-08
6.17281e-08
6.1668e-08
6.16085e-08
6.15537e-08
6.14897e-08
6.14442e-08
6.1391e-08
6.13547e-08
6.13005e-08
6.12546e-08
6.12151e-08
6.11668e-08
6.11314e-08
6.11152e-08
6.10738e-08
6.10403e-08
6.10056e-08
6.09729e-08
6.09285e-08
6.09169e-08
6.08938e-08
6.0893e-08
6.08857e-08
6.08935e-08
6.08868e-08
6.08969e-08
6.08893e-08
6.0898e-08
6.08964e-08
6.09058e-08
6.09091e-08
6.09257e-08
6.09333e-08
6.09546e-08
6.09651e-08
6.09885e-08
6.1002e-08
6.10304e-08
6.10468e-08
6.10823e-08
6.11007e-08
6.1142e-08
6.11586e-08
6.12104e-08
6.12078e-08
6.16859e-08
3.23522e-06
2.04908e-08
1.24916e-07
1.19377e-07
1.11282e-07
1.03659e-07
9.73423e-08
9.22875e-08
8.82013e-08
8.48813e-08
8.21171e-08
7.98136e-08
7.78431e-08
7.61673e-08
7.47033e-08
7.34407e-08
7.23144e-08
7.13353e-08
7.04484e-08
6.96731e-08
6.89603e-08
6.83343e-08
6.77512e-08
6.72388e-08
6.67537e-08
6.63278e-08
6.59213e-08
6.55652e-08
6.52205e-08
6.49178e-08
6.46258e-08
6.43692e-08
6.41154e-08
6.38957e-08
6.36784e-08
6.34914e-08
6.33041e-08
6.31415e-08
6.29761e-08
6.28364e-08
6.26914e-08
6.25693e-08
6.24425e-08
6.23351e-08
6.2224e-08
6.21318e-08
6.20315e-08
6.19502e-08
6.18638e-08
6.17962e-08
6.1717e-08
6.16567e-08
6.15971e-08
6.15422e-08
6.1478e-08
6.14325e-08
6.13791e-08
6.13428e-08
6.12885e-08
6.12425e-08
6.12029e-08
6.11546e-08
6.11191e-08
6.11029e-08
6.10614e-08
6.10279e-08
6.09931e-08
6.09604e-08
6.09159e-08
6.09041e-08
6.08809e-08
6.088e-08
6.08725e-08
6.08802e-08
6.08735e-08
6.08835e-08
6.08759e-08
6.08844e-08
6.08828e-08
6.08921e-08
6.08954e-08
6.09119e-08
6.09194e-08
6.09407e-08
6.09511e-08
6.09744e-08
6.09879e-08
6.10162e-08
6.10325e-08
6.10679e-08
6.10863e-08
6.11275e-08
6.11441e-08
6.11958e-08
6.1193e-08
6.16748e-08
3.24171e-06
2.08541e-08
1.24917e-07
1.19395e-07
1.11312e-07
1.03693e-07
9.73754e-08
9.23175e-08
8.82278e-08
8.49042e-08
8.21367e-08
7.98302e-08
7.7857e-08
7.61788e-08
7.47125e-08
7.34479e-08
7.23199e-08
7.13392e-08
7.04508e-08
6.96742e-08
6.89602e-08
6.83331e-08
6.7749e-08
6.72357e-08
6.67497e-08
6.63231e-08
6.59158e-08
6.55592e-08
6.52138e-08
6.49105e-08
6.4618e-08
6.43609e-08
6.41067e-08
6.38865e-08
6.36688e-08
6.34814e-08
6.32937e-08
6.31308e-08
6.29651e-08
6.28251e-08
6.26798e-08
6.25575e-08
6.24303e-08
6.23227e-08
6.22115e-08
6.2119e-08
6.20185e-08
6.1937e-08
6.18504e-08
6.17826e-08
6.17032e-08
6.16428e-08
6.1583e-08
6.1528e-08
6.14637e-08
6.1418e-08
6.13645e-08
6.13282e-08
6.12738e-08
6.12276e-08
6.1188e-08
6.11397e-08
6.1104e-08
6.10877e-08
6.10462e-08
6.10126e-08
6.09777e-08
6.0945e-08
6.09005e-08
6.08884e-08
6.0865e-08
6.0864e-08
6.08563e-08
6.08639e-08
6.08571e-08
6.0867e-08
6.08593e-08
6.08678e-08
6.08662e-08
6.08753e-08
6.08786e-08
6.08949e-08
6.09024e-08
6.09236e-08
6.09339e-08
6.09571e-08
6.09705e-08
6.09987e-08
6.1015e-08
6.10502e-08
6.10685e-08
6.11097e-08
6.11261e-08
6.11778e-08
6.11748e-08
6.16611e-08
3.2497e-06
2.12554e-08
1.24917e-07
1.19416e-07
1.11348e-07
1.03734e-07
9.74148e-08
9.23534e-08
8.82595e-08
8.49317e-08
8.21602e-08
7.98501e-08
7.78736e-08
7.61925e-08
7.47236e-08
7.34566e-08
7.23265e-08
7.13439e-08
7.04538e-08
6.96756e-08
6.89601e-08
6.83318e-08
6.77465e-08
6.72321e-08
6.67451e-08
6.63175e-08
6.59094e-08
6.5552e-08
6.52058e-08
6.49019e-08
6.46088e-08
6.43511e-08
6.40963e-08
6.38756e-08
6.36574e-08
6.34695e-08
6.32814e-08
6.31181e-08
6.2952e-08
6.28117e-08
6.2666e-08
6.25434e-08
6.24159e-08
6.23081e-08
6.21965e-08
6.21038e-08
6.20031e-08
6.19213e-08
6.18345e-08
6.17665e-08
6.16869e-08
6.16262e-08
6.15662e-08
6.15112e-08
6.14466e-08
6.14008e-08
6.13472e-08
6.13107e-08
6.12562e-08
6.121e-08
6.11703e-08
6.11219e-08
6.1086e-08
6.10696e-08
6.1028e-08
6.09943e-08
6.09593e-08
6.09266e-08
6.08821e-08
6.08697e-08
6.0846e-08
6.08449e-08
6.08369e-08
6.08444e-08
6.08375e-08
6.08474e-08
6.08396e-08
6.0848e-08
6.08463e-08
6.08553e-08
6.08585e-08
6.08747e-08
6.08821e-08
6.09031e-08
6.09135e-08
6.09365e-08
6.09498e-08
6.09779e-08
6.09941e-08
6.10292e-08
6.10474e-08
6.10884e-08
6.11048e-08
6.11564e-08
6.11531e-08
6.16449e-08
3.25922e-06
2.16984e-08
1.24918e-07
1.1944e-07
1.1139e-07
1.03781e-07
9.74608e-08
9.23954e-08
8.82965e-08
8.49638e-08
8.21877e-08
7.98734e-08
7.78931e-08
7.62086e-08
7.47366e-08
7.34669e-08
7.23343e-08
7.13494e-08
7.04573e-08
6.96773e-08
6.89602e-08
6.83303e-08
6.77436e-08
6.72279e-08
6.67397e-08
6.63111e-08
6.5902e-08
6.55436e-08
6.51967e-08
6.48919e-08
6.4598e-08
6.43397e-08
6.40842e-08
6.3863e-08
6.36441e-08
6.34558e-08
6.32671e-08
6.31033e-08
6.29368e-08
6.27961e-08
6.265e-08
6.2527e-08
6.23992e-08
6.2291e-08
6.21791e-08
6.20861e-08
6.19851e-08
6.19031e-08
6.18159e-08
6.17477e-08
6.16679e-08
6.1607e-08
6.15468e-08
6.14916e-08
6.14268e-08
6.13808e-08
6.1327e-08
6.12905e-08
6.12357e-08
6.11894e-08
6.11496e-08
6.11012e-08
6.1065e-08
6.10486e-08
6.10069e-08
6.09731e-08
6.0938e-08
6.09052e-08
6.08607e-08
6.0848e-08
6.0824e-08
6.08227e-08
6.08145e-08
6.08218e-08
6.08148e-08
6.08245e-08
6.08167e-08
6.08249e-08
6.08232e-08
6.08321e-08
6.08352e-08
6.08512e-08
6.08585e-08
6.08793e-08
6.08896e-08
6.09125e-08
6.09257e-08
6.09537e-08
6.09697e-08
6.10047e-08
6.10228e-08
6.10637e-08
6.108e-08
6.11315e-08
6.11278e-08
6.16261e-08
3.27028e-06
2.2189e-08
1.24919e-07
1.19468e-07
1.11437e-07
1.03835e-07
9.75135e-08
9.24434e-08
8.8339e-08
8.50007e-08
8.22194e-08
7.99002e-08
7.79156e-08
7.62271e-08
7.47516e-08
7.34788e-08
7.23433e-08
7.13559e-08
7.04614e-08
6.96793e-08
6.89603e-08
6.83287e-08
6.77404e-08
6.72233e-08
6.67337e-08
6.63039e-08
6.58936e-08
6.55342e-08
6.51862e-08
6.48806e-08
6.45858e-08
6.43267e-08
6.40705e-08
6.38485e-08
6.3629e-08
6.344e-08
6.32508e-08
6.30865e-08
6.29194e-08
6.27783e-08
6.26317e-08
6.25083e-08
6.238e-08
6.22715e-08
6.21592e-08
6.20659e-08
6.19645e-08
6.18823e-08
6.17948e-08
6.17263e-08
6.16462e-08
6.1585e-08
6.15245e-08
6.14692e-08
6.14041e-08
6.1358e-08
6.1304e-08
6.12673e-08
6.12124e-08
6.11659e-08
6.1126e-08
6.10775e-08
6.10411e-08
6.10245e-08
6.09827e-08
6.09489e-08
6.09136e-08
6.08807e-08
6.08362e-08
6.08231e-08
6.07988e-08
6.07973e-08
6.07888e-08
6.0796e-08
6.07888e-08
6.07984e-08
6.07905e-08
6.07985e-08
6.07967e-08
6.08054e-08
6.08084e-08
6.08242e-08
6.08315e-08
6.08521e-08
6.08623e-08
6.0885e-08
6.08982e-08
6.09259e-08
6.09419e-08
6.09766e-08
6.09947e-08
6.10353e-08
6.10515e-08
6.11029e-08
6.10989e-08
6.16046e-08
3.28287e-06
2.27346e-08
1.24919e-07
1.19499e-07
1.11491e-07
1.03896e-07
9.75729e-08
9.24977e-08
8.8387e-08
8.50425e-08
8.22552e-08
7.99306e-08
7.79411e-08
7.62482e-08
7.47687e-08
7.34923e-08
7.23536e-08
7.13634e-08
7.04663e-08
6.96818e-08
6.89606e-08
6.8327e-08
6.77369e-08
6.72181e-08
6.6727e-08
6.62958e-08
6.58842e-08
6.55236e-08
6.51745e-08
6.48678e-08
6.45721e-08
6.43121e-08
6.4055e-08
6.38323e-08
6.3612e-08
6.34224e-08
6.32324e-08
6.30676e-08
6.28999e-08
6.27582e-08
6.26111e-08
6.24872e-08
6.23585e-08
6.22495e-08
6.21368e-08
6.20431e-08
6.19414e-08
6.18588e-08
6.17709e-08
6.17021e-08
6.16217e-08
6.15603e-08
6.14994e-08
6.14439e-08
6.13786e-08
6.13322e-08
6.1278e-08
6.12412e-08
6.1186e-08
6.11394e-08
6.10994e-08
6.10508e-08
6.10141e-08
6.09973e-08
6.09554e-08
6.09215e-08
6.0886e-08
6.08531e-08
6.08087e-08
6.07951e-08
6.07704e-08
6.07687e-08
6.07598e-08
6.07668e-08
6.07595e-08
6.07689e-08
6.07609e-08
6.07687e-08
6.07669e-08
6.07754e-08
6.07783e-08
6.07938e-08
6.0801e-08
6.08214e-08
6.08316e-08
6.08541e-08
6.08671e-08
6.08947e-08
6.09105e-08
6.0945e-08
6.09629e-08
6.10034e-08
6.10195e-08
6.10708e-08
6.10663e-08
6.15805e-08
3.29697e-06
2.33443e-08
1.2492e-07
1.19533e-07
1.1155e-07
1.03964e-07
9.76392e-08
9.25584e-08
8.84408e-08
8.50893e-08
8.22954e-08
7.99648e-08
7.79697e-08
7.62719e-08
7.4788e-08
7.35076e-08
7.23653e-08
7.13718e-08
7.04718e-08
6.96846e-08
6.8961e-08
6.83252e-08
6.77331e-08
6.72124e-08
6.67197e-08
6.62869e-08
6.58738e-08
6.55119e-08
6.51615e-08
6.48537e-08
6.45568e-08
6.42959e-08
6.40378e-08
6.38143e-08
6.35931e-08
6.34027e-08
6.3212e-08
6.30465e-08
6.28781e-08
6.27358e-08
6.25882e-08
6.24638e-08
6.23345e-08
6.22251e-08
6.21118e-08
6.20177e-08
6.19156e-08
6.18326e-08
6.17443e-08
6.16751e-08
6.15944e-08
6.15326e-08
6.14714e-08
6.14157e-08
6.13501e-08
6.13034e-08
6.12489e-08
6.1212e-08
6.11566e-08
6.11098e-08
6.10697e-08
6.1021e-08
6.0984e-08
6.0967e-08
6.0925e-08
6.0891e-08
6.08553e-08
6.08224e-08
6.0778e-08
6.07638e-08
6.07387e-08
6.07367e-08
6.07274e-08
6.07342e-08
6.07267e-08
6.0736e-08
6.07279e-08
6.07355e-08
6.07336e-08
6.07419e-08
6.07447e-08
6.07599e-08
6.0767e-08
6.07872e-08
6.07972e-08
6.08195e-08
6.08324e-08
6.08597e-08
6.08754e-08
6.09097e-08
6.09275e-08
6.09677e-08
6.09837e-08
6.10348e-08
6.10299e-08
6.15536e-08
3.31249e-06
2.40282e-08
1.2492e-07
1.1957e-07
1.11615e-07
1.04039e-07
9.77126e-08
9.26257e-08
8.85005e-08
8.51413e-08
8.23401e-08
8.00027e-08
7.80016e-08
7.62984e-08
7.48095e-08
7.35247e-08
7.23785e-08
7.13814e-08
7.0478e-08
6.96879e-08
6.89616e-08
6.83234e-08
6.7729e-08
6.72063e-08
6.67117e-08
6.62772e-08
6.58624e-08
6.5499e-08
6.51473e-08
6.48382e-08
6.45401e-08
6.4278e-08
6.40189e-08
6.37944e-08
6.35723e-08
6.3381e-08
6.31894e-08
6.30232e-08
6.28541e-08
6.27112e-08
6.25628e-08
6.24379e-08
6.2308e-08
6.21981e-08
6.20842e-08
6.19897e-08
6.18871e-08
6.18036e-08
6.17149e-08
6.16454e-08
6.15642e-08
6.15021e-08
6.14404e-08
6.13846e-08
6.13185e-08
6.12716e-08
6.12169e-08
6.11798e-08
6.11241e-08
6.10771e-08
6.10368e-08
6.0988e-08
6.09507e-08
6.09335e-08
6.08913e-08
6.08572e-08
6.08213e-08
6.07883e-08
6.07439e-08
6.07293e-08
6.07036e-08
6.07014e-08
6.06917e-08
6.06982e-08
6.06906e-08
6.06996e-08
6.06914e-08
6.06987e-08
6.06968e-08
6.07048e-08
6.07075e-08
6.07224e-08
6.07294e-08
6.07493e-08
6.07592e-08
6.07813e-08
6.0794e-08
6.08211e-08
6.08367e-08
6.08706e-08
6.08883e-08
6.09283e-08
6.0944e-08
6.0995e-08
6.09896e-08
6.15238e-08
3.32935e-06
2.47978e-08
1.24921e-07
1.19611e-07
1.11687e-07
1.04121e-07
9.77932e-08
9.26997e-08
8.85662e-08
8.51985e-08
8.23894e-08
8.00447e-08
7.80369e-08
7.63277e-08
7.48334e-08
7.35438e-08
7.23931e-08
7.13921e-08
7.04851e-08
6.96918e-08
6.89625e-08
6.83216e-08
6.77247e-08
6.71998e-08
6.6703e-08
6.62666e-08
6.58501e-08
6.5485e-08
6.51318e-08
6.48213e-08
6.45218e-08
6.42585e-08
6.39982e-08
6.37727e-08
6.35495e-08
6.33573e-08
6.31648e-08
6.29978e-08
6.28278e-08
6.26842e-08
6.25351e-08
6.24095e-08
6.22789e-08
6.21685e-08
6.2054e-08
6.1959e-08
6.18558e-08
6.17719e-08
6.16826e-08
6.16127e-08
6.15312e-08
6.14687e-08
6.14064e-08
6.13504e-08
6.12839e-08
6.12367e-08
6.11817e-08
6.11445e-08
6.10884e-08
6.10413e-08
6.10008e-08
6.09519e-08
6.09141e-08
6.08968e-08
6.08544e-08
6.08201e-08
6.0784e-08
6.07509e-08
6.07066e-08
6.06914e-08
6.06652e-08
6.06626e-08
6.06524e-08
6.06587e-08
6.06508e-08
6.06596e-08
6.06513e-08
6.06583e-08
6.06563e-08
6.06641e-08
6.06667e-08
6.06812e-08
6.06882e-08
6.07077e-08
6.07175e-08
6.07393e-08
6.07519e-08
6.07787e-08
6.07941e-08
6.08277e-08
6.08452e-08
6.0885e-08
6.09006e-08
6.09514e-08
6.09454e-08
6.14913e-08
3.34738e-06
2.56652e-08
1.24921e-07
1.19655e-07
1.11764e-07
1.0421e-07
9.78811e-08
9.27805e-08
8.86381e-08
8.52613e-08
8.24434e-08
8.00907e-08
7.80757e-08
7.63599e-08
7.48597e-08
7.35648e-08
7.24093e-08
7.1404e-08
7.04931e-08
6.96962e-08
6.89636e-08
6.83198e-08
6.77202e-08
6.71928e-08
6.66937e-08
6.62552e-08
6.58367e-08
6.54699e-08
6.5115e-08
6.48029e-08
6.4502e-08
6.42374e-08
6.39758e-08
6.37491e-08
6.35247e-08
6.33315e-08
6.3138e-08
6.29701e-08
6.27992e-08
6.26548e-08
6.25049e-08
6.23786e-08
6.22473e-08
6.21362e-08
6.20211e-08
6.19255e-08
6.18218e-08
6.17374e-08
6.16475e-08
6.15772e-08
6.14952e-08
6.14322e-08
6.13694e-08
6.13132e-08
6.12463e-08
6.11987e-08
6.11433e-08
6.11059e-08
6.10496e-08
6.10022e-08
6.09615e-08
6.09124e-08
6.08743e-08
6.08567e-08
6.08141e-08
6.07798e-08
6.07434e-08
6.07102e-08
6.06658e-08
6.06501e-08
6.06233e-08
6.06203e-08
6.06096e-08
6.06156e-08
6.06075e-08
6.06161e-08
6.06076e-08
6.06143e-08
6.06123e-08
6.06197e-08
6.06221e-08
6.06363e-08
6.06431e-08
6.06623e-08
6.0672e-08
6.06935e-08
6.0706e-08
6.07324e-08
6.07477e-08
6.07809e-08
6.07983e-08
6.08377e-08
6.08531e-08
6.09037e-08
6.08972e-08
6.14558e-08
3.36641e-06
2.66434e-08
1.24922e-07
1.19702e-07
1.11848e-07
1.04307e-07
9.79765e-08
9.28684e-08
8.87163e-08
8.53297e-08
8.25024e-08
8.0141e-08
7.81181e-08
7.63952e-08
7.48886e-08
7.35879e-08
7.24272e-08
7.14172e-08
7.0502e-08
6.97013e-08
6.89651e-08
6.83181e-08
6.77155e-08
6.71854e-08
6.66839e-08
6.62431e-08
6.58225e-08
6.54537e-08
6.50969e-08
6.47832e-08
6.44806e-08
6.42146e-08
6.39516e-08
6.37236e-08
6.3498e-08
6.33037e-08
6.3109e-08
6.29402e-08
6.27683e-08
6.2623e-08
6.24723e-08
6.23452e-08
6.22131e-08
6.21014e-08
6.19855e-08
6.18893e-08
6.17849e-08
6.17e-08
6.16095e-08
6.15387e-08
6.14561e-08
6.13927e-08
6.13294e-08
6.12728e-08
6.12054e-08
6.11575e-08
6.11018e-08
6.10642e-08
6.10074e-08
6.09598e-08
6.09189e-08
6.08697e-08
6.08311e-08
6.08133e-08
6.07705e-08
6.0736e-08
6.06993e-08
6.06661e-08
6.06217e-08
6.06054e-08
6.05778e-08
6.05745e-08
6.05633e-08
6.05689e-08
6.05606e-08
6.05688e-08
6.05602e-08
6.05666e-08
6.05645e-08
6.05716e-08
6.05739e-08
6.05877e-08
6.05943e-08
6.06131e-08
6.06227e-08
6.06439e-08
6.06562e-08
6.06823e-08
6.06973e-08
6.07302e-08
6.07474e-08
6.07865e-08
6.08017e-08
6.0852e-08
6.08449e-08
6.14172e-08
3.38616e-06
2.77464e-08
1.24922e-07
1.19752e-07
1.11937e-07
1.04411e-07
9.80795e-08
9.29634e-08
8.88011e-08
8.54038e-08
8.25664e-08
8.01958e-08
7.81643e-08
7.64337e-08
7.49201e-08
7.36133e-08
7.24469e-08
7.14318e-08
7.0512e-08
6.9707e-08
6.8967e-08
6.83165e-08
6.77107e-08
6.71778e-08
6.66735e-08
6.62303e-08
6.58073e-08
6.54364e-08
6.50776e-08
6.47621e-08
6.44577e-08
6.41902e-08
6.39257e-08
6.36963e-08
6.34693e-08
6.32738e-08
6.30779e-08
6.29081e-08
6.27351e-08
6.25889e-08
6.24372e-08
6.23093e-08
6.21763e-08
6.20638e-08
6.19471e-08
6.18504e-08
6.17453e-08
6.16598e-08
6.15686e-08
6.14972e-08
6.14141e-08
6.13501e-08
6.12861e-08
6.12293e-08
6.11614e-08
6.11131e-08
6.10569e-08
6.10192e-08
6.0962e-08
6.09141e-08
6.0873e-08
6.08237e-08
6.07846e-08
6.07664e-08
6.07234e-08
6.06887e-08
6.06517e-08
6.06184e-08
6.0574e-08
6.05571e-08
6.05288e-08
6.05251e-08
6.05133e-08
6.05185e-08
6.05099e-08
6.05179e-08
6.05091e-08
6.05152e-08
6.05129e-08
6.05196e-08
6.05218e-08
6.05351e-08
6.05417e-08
6.056e-08
6.05695e-08
6.05903e-08
6.06024e-08
6.06281e-08
6.0643e-08
6.06754e-08
6.06924e-08
6.07312e-08
6.07462e-08
6.07962e-08
6.07884e-08
6.13756e-08
3.40631e-06
2.89887e-08
1.24922e-07
1.19805e-07
1.12033e-07
1.04522e-07
9.81902e-08
9.30658e-08
8.88925e-08
8.5484e-08
8.26357e-08
8.0255e-08
7.82144e-08
7.64756e-08
7.49545e-08
7.36409e-08
7.24685e-08
7.14479e-08
7.0523e-08
6.97136e-08
6.89695e-08
6.83152e-08
6.77059e-08
6.71698e-08
6.66626e-08
6.62167e-08
6.57912e-08
6.54181e-08
6.50571e-08
6.47396e-08
6.44334e-08
6.41641e-08
6.3898e-08
6.36671e-08
6.34387e-08
6.32418e-08
6.30446e-08
6.28736e-08
6.26996e-08
6.25523e-08
6.23996e-08
6.22708e-08
6.21369e-08
6.20236e-08
6.1906e-08
6.18086e-08
6.17027e-08
6.16166e-08
6.15246e-08
6.14527e-08
6.1369e-08
6.13045e-08
6.12397e-08
6.11826e-08
6.11142e-08
6.10654e-08
6.10088e-08
6.09709e-08
6.09132e-08
6.08651e-08
6.08237e-08
6.07742e-08
6.07346e-08
6.07161e-08
6.06728e-08
6.0638e-08
6.06006e-08
6.05673e-08
6.05227e-08
6.05053e-08
6.04763e-08
6.0472e-08
6.04596e-08
6.04644e-08
6.04555e-08
6.04631e-08
6.04541e-08
6.04599e-08
6.04574e-08
6.04639e-08
6.04658e-08
6.04787e-08
6.04851e-08
6.0503e-08
6.05123e-08
6.05327e-08
6.05446e-08
6.057e-08
6.05846e-08
6.06166e-08
6.06334e-08
6.06718e-08
6.06865e-08
6.07362e-08
6.07278e-08
6.13308e-08
3.42647e-06
3.03855e-08
1.24922e-07
1.19862e-07
1.12135e-07
1.04642e-07
9.83088e-08
9.31757e-08
8.89909e-08
8.55703e-08
8.27105e-08
8.0319e-08
7.82686e-08
7.65209e-08
7.49918e-08
7.3671e-08
7.2492e-08
7.14655e-08
7.05353e-08
6.9721e-08
6.89724e-08
6.83141e-08
6.77011e-08
6.71616e-08
6.66513e-08
6.62025e-08
6.57743e-08
6.53987e-08
6.50354e-08
6.47158e-08
6.44075e-08
6.41365e-08
6.38686e-08
6.36361e-08
6.3406e-08
6.32078e-08
6.30092e-08
6.2837e-08
6.26616e-08
6.25133e-08
6.23595e-08
6.22297e-08
6.20948e-08
6.19807e-08
6.18622e-08
6.1764e-08
6.16573e-08
6.15705e-08
6.14777e-08
6.14052e-08
6.13208e-08
6.12557e-08
6.11901e-08
6.11327e-08
6.10637e-08
6.10144e-08
6.09573e-08
6.09192e-08
6.0861e-08
6.08127e-08
6.07709e-08
6.07213e-08
6.06811e-08
6.06623e-08
6.06187e-08
6.05837e-08
6.0546e-08
6.05125e-08
6.04679e-08
6.04499e-08
6.042e-08
6.04152e-08
6.04021e-08
6.04066e-08
6.03973e-08
6.04046e-08
6.03953e-08
6.04007e-08
6.03981e-08
6.04042e-08
6.04059e-08
6.04183e-08
6.04245e-08
6.0442e-08
6.04511e-08
6.04711e-08
6.04828e-08
6.05077e-08
6.05221e-08
6.05537e-08
6.05702e-08
6.06082e-08
6.06226e-08
6.06719e-08
6.06628e-08
6.12827e-08
3.44618e-06
3.19524e-08
1.24921e-07
1.19921e-07
1.12243e-07
1.04768e-07
9.84354e-08
9.32933e-08
8.90963e-08
8.5663e-08
8.27908e-08
8.03879e-08
7.83271e-08
7.65699e-08
7.50322e-08
7.37037e-08
7.25177e-08
7.14849e-08
7.05489e-08
6.97294e-08
6.8976e-08
6.83134e-08
6.76963e-08
6.71533e-08
6.66395e-08
6.61877e-08
6.57566e-08
6.53783e-08
6.50126e-08
6.46907e-08
6.43802e-08
6.41072e-08
6.38374e-08
6.36032e-08
6.33715e-08
6.31716e-08
6.29716e-08
6.27981e-08
6.26214e-08
6.24719e-08
6.23168e-08
6.2186e-08
6.20501e-08
6.1935e-08
6.18155e-08
6.17165e-08
6.16089e-08
6.15214e-08
6.14278e-08
6.13546e-08
6.12695e-08
6.12037e-08
6.11373e-08
6.10795e-08
6.10099e-08
6.09601e-08
6.09025e-08
6.08642e-08
6.08055e-08
6.07568e-08
6.07147e-08
6.06649e-08
6.06241e-08
6.0605e-08
6.05611e-08
6.05258e-08
6.04877e-08
6.04542e-08
6.04094e-08
6.03908e-08
6.03601e-08
6.03546e-08
6.03409e-08
6.03449e-08
6.03353e-08
6.03421e-08
6.03327e-08
6.03376e-08
6.03349e-08
6.03405e-08
6.0342e-08
6.03539e-08
6.03599e-08
6.03769e-08
6.03858e-08
6.04054e-08
6.04168e-08
6.04413e-08
6.04554e-08
6.04865e-08
6.05028e-08
6.05403e-08
6.05545e-08
6.06034e-08
6.05936e-08
6.12312e-08
3.46488e-06
3.37062e-08
1.24921e-07
1.19983e-07
1.12357e-07
1.04903e-07
9.85701e-08
9.34187e-08
8.92089e-08
8.57622e-08
8.2877e-08
8.0462e-08
7.83899e-08
7.66227e-08
7.50758e-08
7.37391e-08
7.25456e-08
7.15061e-08
7.0564e-08
6.97389e-08
6.89804e-08
6.83132e-08
6.76918e-08
6.71448e-08
6.66275e-08
6.61723e-08
6.57381e-08
6.53571e-08
6.49887e-08
6.46644e-08
6.43515e-08
6.40764e-08
6.38046e-08
6.35685e-08
6.33349e-08
6.31335e-08
6.29318e-08
6.27569e-08
6.25788e-08
6.2428e-08
6.22717e-08
6.21398e-08
6.20026e-08
6.18866e-08
6.1766e-08
6.16662e-08
6.15577e-08
6.14693e-08
6.13748e-08
6.13009e-08
6.12151e-08
6.11486e-08
6.10813e-08
6.1023e-08
6.09528e-08
6.09025e-08
6.08443e-08
6.08057e-08
6.07464e-08
6.06975e-08
6.0655e-08
6.06049e-08
6.05635e-08
6.0544e-08
6.04998e-08
6.04644e-08
6.04258e-08
6.03921e-08
6.03472e-08
6.0328e-08
6.02964e-08
6.02903e-08
6.02759e-08
6.02793e-08
6.02693e-08
6.02757e-08
6.02661e-08
6.02706e-08
6.02677e-08
6.02728e-08
6.02741e-08
6.02854e-08
6.02912e-08
6.03077e-08
6.03164e-08
6.03355e-08
6.03467e-08
6.03707e-08
6.03845e-08
6.04151e-08
6.04311e-08
6.04682e-08
6.04821e-08
6.05304e-08
6.05199e-08
6.11761e-08
3.48194e-06
3.56634e-08
1.2492e-07
1.20048e-07
1.12477e-07
1.05046e-07
9.87132e-08
9.35522e-08
8.93291e-08
8.58681e-08
8.29691e-08
8.05413e-08
7.84574e-08
7.66795e-08
7.51229e-08
7.37774e-08
7.2576e-08
7.15293e-08
7.05805e-08
6.97496e-08
6.89856e-08
6.83134e-08
6.76875e-08
6.71364e-08
6.66151e-08
6.61565e-08
6.5719e-08
6.53349e-08
6.49637e-08
6.46368e-08
6.43213e-08
6.40441e-08
6.37701e-08
6.35321e-08
6.32965e-08
6.30933e-08
6.28899e-08
6.27135e-08
6.25338e-08
6.23817e-08
6.2224e-08
6.20909e-08
6.19526e-08
6.18355e-08
6.17138e-08
6.1613e-08
6.15035e-08
6.14143e-08
6.13188e-08
6.12441e-08
6.11575e-08
6.10903e-08
6.1022e-08
6.09633e-08
6.08924e-08
6.08415e-08
6.07826e-08
6.07438e-08
6.06839e-08
6.06347e-08
6.05917e-08
6.05415e-08
6.04994e-08
6.04795e-08
6.04348e-08
6.03992e-08
6.03602e-08
6.03264e-08
6.02813e-08
6.02614e-08
6.0229e-08
6.02221e-08
6.0207e-08
6.02099e-08
6.01994e-08
6.02054e-08
6.01954e-08
6.01995e-08
6.01964e-08
6.02011e-08
6.02022e-08
6.02128e-08
6.02185e-08
6.02343e-08
6.02428e-08
6.02615e-08
6.02724e-08
6.02958e-08
6.03094e-08
6.03393e-08
6.03551e-08
6.03917e-08
6.04052e-08
6.0453e-08
6.04418e-08
6.11174e-08
3.49666e-06
3.78404e-08
1.24918e-07
1.20116e-07
1.12603e-07
1.05196e-07
9.88647e-08
9.3694e-08
8.94569e-08
8.59811e-08
8.30675e-08
8.06261e-08
7.85298e-08
7.67405e-08
7.51735e-08
7.38188e-08
7.26089e-08
7.15545e-08
7.05988e-08
6.97615e-08
6.89917e-08
6.83143e-08
6.76835e-08
6.7128e-08
6.66026e-08
6.61403e-08
6.56992e-08
6.53119e-08
6.49376e-08
6.4608e-08
6.42899e-08
6.40102e-08
6.37339e-08
6.34938e-08
6.32562e-08
6.30511e-08
6.28458e-08
6.26679e-08
6.24866e-08
6.2333e-08
6.21739e-08
6.20395e-08
6.18998e-08
6.17817e-08
6.16587e-08
6.15569e-08
6.14464e-08
6.13563e-08
6.12597e-08
6.11842e-08
6.10968e-08
6.10287e-08
6.09595e-08
6.09002e-08
6.08286e-08
6.07771e-08
6.07175e-08
6.06784e-08
6.06179e-08
6.05684e-08
6.05249e-08
6.04744e-08
6.04317e-08
6.04113e-08
6.03662e-08
6.03304e-08
6.02909e-08
6.0257e-08
6.02116e-08
6.01911e-08
6.01578e-08
6.015e-08
6.01342e-08
6.01365e-08
6.01256e-08
6.01311e-08
6.01208e-08
6.01244e-08
6.0121e-08
6.01252e-08
6.01261e-08
6.01361e-08
6.01415e-08
6.01567e-08
6.0165e-08
6.01831e-08
6.01938e-08
6.02167e-08
6.02299e-08
6.02593e-08
6.02747e-08
6.03107e-08
6.0324e-08
6.03711e-08
6.03592e-08
6.10547e-08
3.50826e-06
4.02532e-08
1.24917e-07
1.20186e-07
1.12735e-07
1.05354e-07
9.90247e-08
9.38441e-08
8.95926e-08
8.61012e-08
8.31724e-08
8.07167e-08
7.86071e-08
7.68059e-08
7.52279e-08
7.38634e-08
7.26445e-08
7.15821e-08
7.06189e-08
6.97749e-08
6.8999e-08
6.8316e-08
6.768e-08
6.71198e-08
6.65901e-08
6.61237e-08
6.56789e-08
6.52882e-08
6.49107e-08
6.45781e-08
6.42571e-08
6.3975e-08
6.36962e-08
6.34539e-08
6.3214e-08
6.3007e-08
6.27997e-08
6.26201e-08
6.2437e-08
6.2282e-08
6.21213e-08
6.19855e-08
6.18445e-08
6.17251e-08
6.16008e-08
6.1498e-08
6.13863e-08
6.12953e-08
6.11976e-08
6.11212e-08
6.10329e-08
6.0964e-08
6.08937e-08
6.08339e-08
6.07615e-08
6.07093e-08
6.0649e-08
6.06096e-08
6.05483e-08
6.04985e-08
6.04545e-08
6.04038e-08
6.03603e-08
6.03394e-08
6.02939e-08
6.02579e-08
6.02178e-08
6.01838e-08
6.01382e-08
6.01171e-08
6.00828e-08
6.0074e-08
6.00576e-08
6.00592e-08
6.00478e-08
6.00527e-08
6.00421e-08
6.00452e-08
6.00416e-08
6.00453e-08
6.00458e-08
6.00552e-08
6.00603e-08
6.00749e-08
6.0083e-08
6.01005e-08
6.01109e-08
6.01332e-08
6.01461e-08
6.01748e-08
6.019e-08
6.02254e-08
6.02383e-08
6.02846e-08
6.02721e-08
6.09881e-08
3.51588e-06
4.29167e-08
1.24915e-07
1.20258e-07
1.12873e-07
1.05521e-07
9.91935e-08
9.40029e-08
8.97364e-08
8.62288e-08
8.3284e-08
8.08132e-08
7.86897e-08
7.68758e-08
7.52863e-08
7.39114e-08
7.2683e-08
7.1612e-08
7.0641e-08
6.97899e-08
6.90074e-08
6.83186e-08
6.7677e-08
6.71119e-08
6.65775e-08
6.6107e-08
6.56581e-08
6.52638e-08
6.48829e-08
6.45472e-08
6.42232e-08
6.39383e-08
6.36569e-08
6.34122e-08
6.317e-08
6.29609e-08
6.27516e-08
6.25701e-08
6.23852e-08
6.22285e-08
6.20662e-08
6.1929e-08
6.17865e-08
6.16658e-08
6.15402e-08
6.14362e-08
6.13233e-08
6.12313e-08
6.11324e-08
6.10551e-08
6.09658e-08
6.0896e-08
6.08246e-08
6.07642e-08
6.06909e-08
6.06381e-08
6.05769e-08
6.05373e-08
6.04752e-08
6.04251e-08
6.03806e-08
6.03296e-08
6.02853e-08
6.02638e-08
6.02179e-08
6.01816e-08
6.0141e-08
6.01069e-08
6.00609e-08
6.00391e-08
6.0004e-08
5.99941e-08
5.9977e-08
5.99779e-08
5.99659e-08
5.99703e-08
5.99594e-08
5.99619e-08
5.9958e-08
5.99612e-08
5.99614e-08
5.99701e-08
5.99749e-08
5.99889e-08
5.99966e-08
6.00136e-08
6.00236e-08
6.00453e-08
6.00579e-08
6.00859e-08
6.01007e-08
6.01355e-08
6.0148e-08
6.01935e-08
6.01804e-08
6.09172e-08
3.51862e-06
4.58442e-08
1.24912e-07
1.20333e-07
1.13017e-07
1.05695e-07
9.93711e-08
9.41704e-08
8.98886e-08
8.6364e-08
8.34025e-08
8.09159e-08
7.87778e-08
7.69506e-08
7.53489e-08
7.3963e-08
7.27246e-08
7.16446e-08
7.06653e-08
6.98067e-08
6.90173e-08
6.83221e-08
6.76748e-08
6.71044e-08
6.65651e-08
6.60901e-08
6.5637e-08
6.52389e-08
6.48543e-08
6.45153e-08
6.41881e-08
6.39004e-08
6.36162e-08
6.3369e-08
6.31243e-08
6.2913e-08
6.27014e-08
6.2518e-08
6.23312e-08
6.21728e-08
6.20087e-08
6.187e-08
6.17258e-08
6.16039e-08
6.14768e-08
6.13716e-08
6.12574e-08
6.11643e-08
6.10642e-08
6.09859e-08
6.08956e-08
6.08248e-08