/*--------------------------------*- C++ -*----------------------------------*\
| =========                 |                                                 |
| \\      /  F ield         | OpenFOAM: The Open Source CFD Toolbox           |
|  \\    /   O peration     | Version:  v2012                                 |
|   \\  /    A nd           | Website:  www.openfoam.com                      |
|    \\/     M anipulation  |                                                 |
\*---------------------------------------------------------------------------*/
FoamFile
{
    version     2.0;
    format      ascii;
    class       volVectorField;
    location    "27";
    object      wallShearStress;
}
// * * * * * * * * * * * * * * * * * * * * * * * * * * * * * * * * * * * * * //

dimensions      [0 2 -2 0 0 0 0];


internalField   uniform (0 0 0);

boundaryField
{
    inlet
    {
        type            calculated;
        value           uniform (0 0 0);
    }
    outlet
    {
        type            calculated;
        value           uniform (0 0 0);
    }
    topWall
    {
        type            calculated;
        value           nonuniform List<vector> 
545
(
(5.79006e-08 -4.07422e-08 0)
(5.79131e-08 -1.14068e-07 0)
(5.78449e-08 -1.90263e-07 0)
(5.77672e-08 -2.64212e-07 0)
(5.76856e-08 -3.3498e-07 0)
(5.75911e-08 -4.03477e-07 0)
(5.74844e-08 -4.70286e-07 0)
(5.73659e-08 -5.35377e-07 0)
(5.72366e-08 -5.98604e-07 0)
(5.70974e-08 -6.59967e-07 0)
(5.69492e-08 -7.19543e-07 0)
(5.67931e-08 -7.77404e-07 0)
(5.66297e-08 -8.33587e-07 0)
(5.64599e-08 -8.88129e-07 0)
(5.62844e-08 -9.41066e-07 0)
(5.61038e-08 -9.92444e-07 0)
(5.59189e-08 -1.0423e-06 0)
(5.57301e-08 -1.09069e-06 0)
(5.55381e-08 -1.13763e-06 0)
(5.53434e-08 -1.18318e-06 0)
(5.51465e-08 -1.22738e-06 0)
(5.49477e-08 -1.27025e-06 0)
(5.47476e-08 -1.31184e-06 0)
(5.45465e-08 -1.35218e-06 0)
(5.43448e-08 -1.39132e-06 0)
(5.41429e-08 -1.42928e-06 0)
(5.39409e-08 -1.46611e-06 0)
(5.37393e-08 -1.50183e-06 0)
(5.35382e-08 -1.53647e-06 0)
(5.33379e-08 -1.57008e-06 0)
(5.31387e-08 -1.60268e-06 0)
(5.29407e-08 -1.6343e-06 0)
(5.2744e-08 -1.66497e-06 0)
(5.2549e-08 -1.69473e-06 0)
(5.23557e-08 -1.72359e-06 0)
(5.21642e-08 -1.75158e-06 0)
(5.19747e-08 -1.77874e-06 0)
(5.17873e-08 -1.80509e-06 0)
(5.16021e-08 -1.83065e-06 0)
(5.14191e-08 -1.85545e-06 0)
(5.12385e-08 -1.87951e-06 0)
(5.10603e-08 -1.90285e-06 0)
(5.08845e-08 -1.9255e-06 0)
(5.07113e-08 -1.94748e-06 0)
(5.05406e-08 -1.9688e-06 0)
(5.03725e-08 -1.98949e-06 0)
(5.0207e-08 -2.00957e-06 0)
(5.00441e-08 -2.02906e-06 0)
(4.98838e-08 -2.04797e-06 0)
(4.97262e-08 -2.06632e-06 0)
(4.95712e-08 -2.08414e-06 0)
(4.94188e-08 -2.10143e-06 0)
(4.92691e-08 -2.11821e-06 0)
(4.9122e-08 -2.1345e-06 0)
(4.89775e-08 -2.15032e-06 0)
(4.88356e-08 -2.16567e-06 0)
(4.86962e-08 -2.18058e-06 0)
(4.85594e-08 -2.19505e-06 0)
(4.84251e-08 -2.2091e-06 0)
(4.82933e-08 -2.22274e-06 0)
(4.8164e-08 -2.23599e-06 0)
(4.80371e-08 -2.24885e-06 0)
(4.79125e-08 -2.26134e-06 0)
(4.77903e-08 -2.27347e-06 0)
(4.76705e-08 -2.28525e-06 0)
(4.75529e-08 -2.29669e-06 0)
(4.74375e-08 -2.30781e-06 0)
(4.73244e-08 -2.3186e-06 0)
(4.72134e-08 -2.32908e-06 0)
(4.71043e-08 -2.33926e-06 0)
(4.69983e-08 -2.34917e-06 0)
(4.68899e-08 -2.35876e-06 0)
(4.67863e-08 -2.36798e-06 0)
(4.66923e-08 -2.37695e-06 0)
(4.65987e-08 -2.38579e-06 0)
(4.65055e-08 -2.39458e-06 0)
(4.64123e-08 -2.40334e-06 0)
(4.63193e-08 -2.41204e-06 0)
(4.62263e-08 -2.42068e-06 0)
(4.61335e-08 -2.42926e-06 0)
(4.60408e-08 -2.43778e-06 0)
(4.59482e-08 -2.44625e-06 0)
(4.58557e-08 -2.45467e-06 0)
(4.57634e-08 -2.46302e-06 0)
(4.56711e-08 -2.47133e-06 0)
(4.5579e-08 -2.47958e-06 0)
(4.5487e-08 -2.48777e-06 0)
(4.53952e-08 -2.49591e-06 0)
(4.53035e-08 -2.504e-06 0)
(4.52119e-08 -2.51203e-06 0)
(4.51205e-08 -2.52001e-06 0)
(4.50291e-08 -2.52794e-06 0)
(4.49383e-08 -2.53582e-06 0)
(4.48457e-08 -2.54361e-06 0)
(4.47618e-08 -2.55147e-06 0)
(4.46409e-08 -2.55908e-06 0)
(4.45157e-08 -2.56596e-06 0)
(4.44376e-08 -2.57243e-06 0)
(4.43638e-08 -2.57863e-06 0)
(4.42909e-08 -2.58474e-06 0)
(4.42179e-08 -2.59098e-06 0)
(4.41447e-08 -2.59725e-06 0)
(4.40712e-08 -2.60351e-06 0)
(4.39974e-08 -2.60976e-06 0)
(4.39233e-08 -2.61601e-06 0)
(4.38488e-08 -2.62227e-06 0)
(4.3774e-08 -2.62853e-06 0)
(4.36989e-08 -2.6348e-06 0)
(4.36234e-08 -2.64107e-06 0)
(4.35476e-08 -2.64734e-06 0)
(4.34715e-08 -2.65362e-06 0)
(4.3395e-08 -2.65991e-06 0)
(4.33182e-08 -2.66619e-06 0)
(4.32411e-08 -2.67248e-06 0)
(4.31637e-08 -2.67878e-06 0)
(4.30859e-08 -2.68507e-06 0)
(4.30077e-08 -2.69138e-06 0)
(4.29293e-08 -2.69768e-06 0)
(4.28505e-08 -2.70399e-06 0)
(4.27713e-08 -2.7103e-06 0)
(4.26918e-08 -2.71661e-06 0)
(4.2612e-08 -2.72293e-06 0)
(4.25319e-08 -2.72925e-06 0)
(4.24514e-08 -2.73557e-06 0)
(4.23705e-08 -2.7419e-06 0)
(4.22893e-08 -2.74823e-06 0)
(4.22078e-08 -2.75456e-06 0)
(4.21259e-08 -2.76089e-06 0)
(4.20437e-08 -2.76723e-06 0)
(4.19611e-08 -2.77357e-06 0)
(4.18782e-08 -2.77991e-06 0)
(4.17949e-08 -2.78625e-06 0)
(4.17113e-08 -2.7926e-06 0)
(4.16274e-08 -2.79895e-06 0)
(4.15431e-08 -2.8053e-06 0)
(4.14584e-08 -2.81165e-06 0)
(4.13734e-08 -2.818e-06 0)
(4.12881e-08 -2.82436e-06 0)
(4.12023e-08 -2.83072e-06 0)
(4.11163e-08 -2.83708e-06 0)
(4.10299e-08 -2.84344e-06 0)
(4.09431e-08 -2.8498e-06 0)
(4.0856e-08 -2.85617e-06 0)
(4.07685e-08 -2.86253e-06 0)
(4.06807e-08 -2.8689e-06 0)
(4.05925e-08 -2.87527e-06 0)
(4.0504e-08 -2.88164e-06 0)
(4.04151e-08 -2.88801e-06 0)
(4.03259e-08 -2.89438e-06 0)
(4.02363e-08 -2.90075e-06 0)
(4.01463e-08 -2.90713e-06 0)
(4.0056e-08 -2.9135e-06 0)
(3.99653e-08 -2.91987e-06 0)
(3.98743e-08 -2.92625e-06 0)
(3.97829e-08 -2.93263e-06 0)
(3.96912e-08 -2.939e-06 0)
(3.95991e-08 -2.94538e-06 0)
(3.95066e-08 -2.95175e-06 0)
(3.94138e-08 -2.95813e-06 0)
(3.93206e-08 -2.96451e-06 0)
(3.92271e-08 -2.97088e-06 0)
(3.91332e-08 -2.97726e-06 0)
(3.90389e-08 -2.98363e-06 0)
(3.89443e-08 -2.99001e-06 0)
(3.88493e-08 -2.99638e-06 0)
(3.87539e-08 -3.00276e-06 0)
(3.86582e-08 -3.00913e-06 0)
(3.85621e-08 -3.0155e-06 0)
(3.84657e-08 -3.02188e-06 0)
(3.83689e-08 -3.02825e-06 0)
(3.82717e-08 -3.03462e-06 0)
(3.81742e-08 -3.04099e-06 0)
(3.80763e-08 -3.04735e-06 0)
(3.79781e-08 -3.05372e-06 0)
(3.78795e-08 -3.06008e-06 0)
(3.77805e-08 -3.06644e-06 0)
(3.76812e-08 -3.07281e-06 0)
(3.75815e-08 -3.07916e-06 0)
(3.74814e-08 -3.08552e-06 0)
(3.7381e-08 -3.09188e-06 0)
(3.72802e-08 -3.09823e-06 0)
(3.7179e-08 -3.10458e-06 0)
(3.70775e-08 -3.11093e-06 0)
(3.69756e-08 -3.11727e-06 0)
(3.68734e-08 -3.12362e-06 0)
(3.67708e-08 -3.12996e-06 0)
(3.66678e-08 -3.1363e-06 0)
(3.65645e-08 -3.14263e-06 0)
(3.64608e-08 -3.14896e-06 0)
(3.63568e-08 -3.15529e-06 0)
(3.62523e-08 -3.16162e-06 0)
(3.61476e-08 -3.16794e-06 0)
(3.60424e-08 -3.17426e-06 0)
(3.59369e-08 -3.18057e-06 0)
(3.58311e-08 -3.18688e-06 0)
(3.57248e-08 -3.19319e-06 0)
(3.56183e-08 -3.1995e-06 0)
(3.55113e-08 -3.2058e-06 0)
(3.5404e-08 -3.21209e-06 0)
(3.52964e-08 -3.21838e-06 0)
(3.51883e-08 -3.22467e-06 0)
(3.508e-08 -3.23095e-06 0)
(3.49712e-08 -3.23723e-06 0)
(3.48621e-08 -3.2435e-06 0)
(3.47527e-08 -3.24977e-06 0)
(3.46429e-08 -3.25603e-06 0)
(3.45327e-08 -3.26229e-06 0)
(3.44222e-08 -3.26854e-06 0)
(3.43113e-08 -3.27479e-06 0)
(3.42001e-08 -3.28103e-06 0)
(3.40885e-08 -3.28727e-06 0)
(3.39766e-08 -3.2935e-06 0)
(3.38643e-08 -3.29972e-06 0)
(3.37517e-08 -3.30594e-06 0)
(3.36387e-08 -3.31215e-06 0)
(3.35253e-08 -3.31836e-06 0)
(3.34116e-08 -3.32456e-06 0)
(3.32976e-08 -3.33075e-06 0)
(3.31832e-08 -3.33693e-06 0)
(3.30685e-08 -3.34311e-06 0)
(3.29534e-08 -3.34929e-06 0)
(3.2838e-08 -3.35545e-06 0)
(3.27222e-08 -3.36161e-06 0)
(3.26061e-08 -3.36776e-06 0)
(3.24896e-08 -3.3739e-06 0)
(3.23728e-08 -3.38004e-06 0)
(3.22557e-08 -3.38617e-06 0)
(3.21382e-08 -3.39229e-06 0)
(3.20204e-08 -3.3984e-06 0)
(3.19023e-08 -3.4045e-06 0)
(3.17838e-08 -3.4106e-06 0)
(3.1665e-08 -3.41669e-06 0)
(3.15458e-08 -3.42277e-06 0)
(3.14263e-08 -3.42884e-06 0)
(3.13065e-08 -3.4349e-06 0)
(3.11864e-08 -3.44095e-06 0)
(3.10659e-08 -3.44699e-06 0)
(3.09451e-08 -3.45303e-06 0)
(3.08239e-08 -3.45905e-06 0)
(3.07025e-08 -3.46507e-06 0)
(3.05807e-08 -3.47107e-06 0)
(3.04586e-08 -3.47707e-06 0)
(3.03362e-08 -3.48305e-06 0)
(3.02134e-08 -3.48903e-06 0)
(3.00904e-08 -3.49499e-06 0)
(2.9967e-08 -3.50095e-06 0)
(2.98433e-08 -3.50689e-06 0)
(2.97193e-08 -3.51283e-06 0)
(2.9595e-08 -3.51875e-06 0)
(2.94704e-08 -3.52466e-06 0)
(2.93455e-08 -3.53056e-06 0)
(2.92202e-08 -3.53645e-06 0)
(2.90947e-08 -3.54233e-06 0)
(2.89689e-08 -3.5482e-06 0)
(2.88427e-08 -3.55405e-06 0)
(2.87163e-08 -3.55989e-06 0)
(2.85895e-08 -3.56573e-06 0)
(2.84625e-08 -3.57154e-06 0)
(2.83352e-08 -3.57735e-06 0)
(2.82076e-08 -3.58315e-06 0)
(2.80797e-08 -3.58893e-06 0)
(2.79515e-08 -3.5947e-06 0)
(2.7823e-08 -3.60045e-06 0)
(2.76943e-08 -3.60619e-06 0)
(2.75652e-08 -3.61192e-06 0)
(2.74361e-08 -3.61765e-06 0)
(2.73056e-08 -3.62332e-06 0)
(2.7181e-08 -3.6291e-06 0)
(2.7035e-08 -3.63466e-06 0)
(2.68806e-08 -3.63991e-06 0)
(2.6757e-08 -3.64517e-06 0)
(2.66428e-08 -3.65022e-06 0)
(2.65274e-08 -3.65522e-06 0)
(2.64112e-08 -3.66034e-06 0)
(2.62937e-08 -3.66553e-06 0)
(2.61749e-08 -3.67073e-06 0)
(2.60548e-08 -3.67596e-06 0)
(2.59333e-08 -3.68122e-06 0)
(2.58105e-08 -3.68651e-06 0)
(2.56863e-08 -3.69184e-06 0)
(2.55607e-08 -3.69719e-06 0)
(2.54337e-08 -3.70258e-06 0)
(2.53054e-08 -3.708e-06 0)
(2.51756e-08 -3.71345e-06 0)
(2.50444e-08 -3.71893e-06 0)
(2.49119e-08 -3.72444e-06 0)
(2.47779e-08 -3.72998e-06 0)
(2.46424e-08 -3.73556e-06 0)
(2.45055e-08 -3.74116e-06 0)
(2.43672e-08 -3.74679e-06 0)
(2.42274e-08 -3.75244e-06 0)
(2.40861e-08 -3.75813e-06 0)
(2.39434e-08 -3.76385e-06 0)
(2.37991e-08 -3.76959e-06 0)
(2.36534e-08 -3.77536e-06 0)
(2.35062e-08 -3.78116e-06 0)
(2.33574e-08 -3.78698e-06 0)
(2.32071e-08 -3.79283e-06 0)
(2.30553e-08 -3.7987e-06 0)
(2.2902e-08 -3.8046e-06 0)
(2.27471e-08 -3.81052e-06 0)
(2.25906e-08 -3.81647e-06 0)
(2.24326e-08 -3.82243e-06 0)
(2.2273e-08 -3.82843e-06 0)
(2.21119e-08 -3.83444e-06 0)
(2.19492e-08 -3.84047e-06 0)
(2.17849e-08 -3.84652e-06 0)
(2.1619e-08 -3.8526e-06 0)
(2.14514e-08 -3.85869e-06 0)
(2.12823e-08 -3.8648e-06 0)
(2.11116e-08 -3.87092e-06 0)
(2.09393e-08 -3.87707e-06 0)
(2.07654e-08 -3.88323e-06 0)
(2.05898e-08 -3.8894e-06 0)
(2.04126e-08 -3.89559e-06 0)
(2.02338e-08 -3.90179e-06 0)
(2.00534e-08 -3.908e-06 0)
(1.98714e-08 -3.91422e-06 0)
(1.96877e-08 -3.92046e-06 0)
(1.95023e-08 -3.9267e-06 0)
(1.93154e-08 -3.93295e-06 0)
(1.91268e-08 -3.93921e-06 0)
(1.89366e-08 -3.94547e-06 0)
(1.87447e-08 -3.95173e-06 0)
(1.85512e-08 -3.958e-06 0)
(1.83561e-08 -3.96427e-06 0)
(1.81594e-08 -3.97055e-06 0)
(1.7961e-08 -3.97682e-06 0)
(1.7761e-08 -3.98309e-06 0)
(1.75595e-08 -3.98935e-06 0)
(1.73563e-08 -3.99562e-06 0)
(1.71515e-08 -4.00187e-06 0)
(1.69451e-08 -4.00812e-06 0)
(1.67371e-08 -4.01436e-06 0)
(1.65276e-08 -4.02059e-06 0)
(1.63165e-08 -4.02681e-06 0)
(1.61038e-08 -4.03301e-06 0)
(1.58896e-08 -4.0392e-06 0)
(1.56738e-08 -4.04537e-06 0)
(1.54565e-08 -4.05152e-06 0)
(1.52378e-08 -4.05765e-06 0)
(1.50175e-08 -4.06376e-06 0)
(1.47957e-08 -4.06985e-06 0)
(1.45725e-08 -4.07591e-06 0)
(1.43479e-08 -4.08194e-06 0)
(1.41218e-08 -4.08794e-06 0)
(1.38943e-08 -4.09391e-06 0)
(1.36655e-08 -4.09985e-06 0)
(1.34353e-08 -4.10575e-06 0)
(1.32037e-08 -4.11161e-06 0)
(1.29708e-08 -4.11743e-06 0)
(1.27367e-08 -4.12322e-06 0)
(1.25013e-08 -4.12895e-06 0)
(1.22646e-08 -4.13465e-06 0)
(1.20268e-08 -4.14029e-06 0)
(1.17878e-08 -4.14588e-06 0)
(1.15476e-08 -4.15142e-06 0)
(1.13063e-08 -4.1569e-06 0)
(1.1064e-08 -4.16232e-06 0)
(1.08206e-08 -4.16769e-06 0)
(1.05762e-08 -4.17299e-06 0)
(1.03309e-08 -4.17823e-06 0)
(1.00847e-08 -4.18339e-06 0)
(9.83753e-09 -4.18849e-06 0)
(9.58955e-09 -4.19351e-06 0)
(9.3408e-09 -4.19847e-06 0)
(9.09128e-09 -4.20333e-06 0)
(8.84108e-09 -4.20813e-06 0)
(8.59021e-09 -4.21283e-06 0)
(8.33876e-09 -4.21745e-06 0)
(8.08675e-09 -4.22198e-06 0)
(7.83425e-09 -4.22642e-06 0)
(7.5813e-09 -4.23076e-06 0)
(7.32797e-09 -4.23501e-06 0)
(7.0743e-09 -4.23915e-06 0)
(6.82038e-09 -4.2432e-06 0)
(6.56623e-09 -4.24713e-06 0)
(6.31195e-09 -4.25096e-06 0)
(6.05758e-09 -4.25467e-06 0)
(5.80319e-09 -4.25828e-06 0)
(5.54884e-09 -4.26176e-06 0)
(5.29462e-09 -4.26512e-06 0)
(5.04056e-09 -4.26836e-06 0)
(4.78677e-09 -4.27147e-06 0)
(4.5333e-09 -4.27445e-06 0)
(4.28022e-09 -4.27731e-06 0)
(4.02761e-09 -4.28002e-06 0)
(3.77556e-09 -4.2826e-06 0)
(3.52411e-09 -4.28503e-06 0)
(3.27337e-09 -4.28732e-06 0)
(3.02341e-09 -4.28946e-06 0)
(2.7743e-09 -4.29146e-06 0)
(2.52612e-09 -4.2933e-06 0)
(2.27897e-09 -4.29499e-06 0)
(2.03291e-09 -4.29651e-06 0)
(1.78804e-09 -4.29788e-06 0)
(1.54442e-09 -4.29907e-06 0)
(1.30217e-09 -4.30011e-06 0)
(1.06134e-09 -4.30097e-06 0)
(8.22044e-10 -4.30167e-06 0)
(5.84351e-10 -4.30218e-06 0)
(3.48355e-10 -4.30253e-06 0)
(1.14142e-10 -4.30268e-06 0)
(-1.18199e-10 -4.30266e-06 0)
(-3.48579e-10 -4.30245e-06 0)
(-5.7691e-10 -4.30206e-06 0)
(-8.03101e-10 -4.30147e-06 0)
(-1.02706e-09 -4.30069e-06 0)
(-1.2487e-09 -4.29971e-06 0)
(-1.46794e-09 -4.29855e-06 0)
(-1.68467e-09 -4.29718e-06 0)
(-1.89881e-09 -4.29561e-06 0)
(-2.11027e-09 -4.29384e-06 0)
(-2.31896e-09 -4.29187e-06 0)
(-2.52478e-09 -4.28968e-06 0)
(-2.72766e-09 -4.2873e-06 0)
(-2.92748e-09 -4.28469e-06 0)
(-3.1242e-09 -4.28189e-06 0)
(-3.31768e-09 -4.27886e-06 0)
(-3.50787e-09 -4.27564e-06 0)
(-3.69467e-09 -4.27218e-06 0)
(-3.87801e-09 -4.26853e-06 0)
(-4.05779e-09 -4.26464e-06 0)
(-4.23396e-09 -4.26055e-06 0)
(-4.40641e-09 -4.25623e-06 0)
(-4.57511e-09 -4.25171e-06 0)
(-4.73994e-09 -4.24695e-06 0)
(-4.90087e-09 -4.24199e-06 0)
(-5.05782e-09 -4.2368e-06 0)
(-5.21075e-09 -4.2314e-06 0)
(-5.35956e-09 -4.22577e-06 0)
(-5.50425e-09 -4.21994e-06 0)
(-5.64472e-09 -4.21387e-06 0)
(-5.78097e-09 -4.2076e-06 0)
(-5.91291e-09 -4.2011e-06 0)
(-6.04054e-09 -4.1944e-06 0)
(-6.16377e-09 -4.18747e-06 0)
(-6.28262e-09 -4.18035e-06 0)
(-6.397e-09 -4.17299e-06 0)
(-6.50693e-09 -4.16545e-06 0)
(-6.61232e-09 -4.15767e-06 0)
(-6.71321e-09 -4.14971e-06 0)
(-6.80949e-09 -4.14152e-06 0)
(-6.90119e-09 -4.13315e-06 0)
(-6.98821e-09 -4.12455e-06 0)
(-7.07056e-09 -4.11579e-06 0)
(-7.14823e-09 -4.10678e-06 0)
(-7.22083e-09 -4.09767e-06 0)
(-7.2904e-09 -4.08815e-06 0)
(-7.35e-09 -4.07869e-06 0)
(-7.40363e-09 -4.06806e-06 0)
(-7.46314e-09 -4.05586e-06 0)
(-7.5206e-09 -4.04366e-06 0)
(-7.571e-09 -4.03151e-06 0)
(-7.61473e-09 -4.01919e-06 0)
(-7.65192e-09 -4.00682e-06 0)
(-7.68266e-09 -3.99437e-06 0)
(-7.70726e-09 -3.98191e-06 0)
(-7.72581e-09 -3.96939e-06 0)
(-7.73868e-09 -3.95688e-06 0)
(-7.74597e-09 -3.94431e-06 0)
(-7.74801e-09 -3.93177e-06 0)
(-7.7449e-09 -3.9192e-06 0)
(-7.73698e-09 -3.90667e-06 0)
(-7.72432e-09 -3.89413e-06 0)
(-7.70724e-09 -3.88164e-06 0)
(-7.68582e-09 -3.86915e-06 0)
(-7.66035e-09 -3.85674e-06 0)
(-7.63088e-09 -3.84433e-06 0)
(-7.59771e-09 -3.83201e-06 0)
(-7.56086e-09 -3.81971e-06 0)
(-7.52062e-09 -3.80751e-06 0)
(-7.47699e-09 -3.79534e-06 0)
(-7.43024e-09 -3.78328e-06 0)
(-7.38036e-09 -3.77127e-06 0)
(-7.32762e-09 -3.75937e-06 0)
(-7.27199e-09 -3.74752e-06 0)
(-7.21371e-09 -3.73581e-06 0)
(-7.15276e-09 -3.72415e-06 0)
(-7.08937e-09 -3.71263e-06 0)
(-7.0235e-09 -3.70118e-06 0)
(-6.95537e-09 -3.68987e-06 0)
(-6.88495e-09 -3.67865e-06 0)
(-6.81243e-09 -3.66757e-06 0)
(-6.73777e-09 -3.65657e-06 0)
(-6.66117e-09 -3.64574e-06 0)
(-6.58258e-09 -3.63499e-06 0)
(-6.50219e-09 -3.62441e-06 0)
(-6.41995e-09 -3.61393e-06 0)
(-6.33602e-09 -3.60361e-06 0)
(-6.25037e-09 -3.5934e-06 0)
(-6.16315e-09 -3.58336e-06 0)
(-6.07431e-09 -3.57343e-06 0)
(-5.98401e-09 -3.56368e-06 0)
(-5.8922e-09 -3.55404e-06 0)
(-5.79902e-09 -3.54459e-06 0)
(-5.70441e-09 -3.53525e-06 0)
(-5.60852e-09 -3.52611e-06 0)
(-5.51128e-09 -3.51708e-06 0)
(-5.41283e-09 -3.50825e-06 0)
(-5.31312e-09 -3.49955e-06 0)
(-5.21226e-09 -3.49104e-06 0)
(-5.11019e-09 -3.48266e-06 0)
(-5.00704e-09 -3.47448e-06 0)
(-4.90275e-09 -3.46644e-06 0)
(-4.79742e-09 -3.45859e-06 0)
(-4.69101e-09 -3.45089e-06 0)
(-4.58361e-09 -3.44339e-06 0)
(-4.47518e-09 -3.43604e-06 0)
(-4.36581e-09 -3.42889e-06 0)
(-4.25545e-09 -3.4219e-06 0)
(-4.1442e-09 -3.4151e-06 0)
(-4.03201e-09 -3.40847e-06 0)
(-3.91896e-09 -3.40204e-06 0)
(-3.80502e-09 -3.39577e-06 0)
(-3.69027e-09 -3.38971e-06 0)
(-3.57468e-09 -3.38381e-06 0)
(-3.45831e-09 -3.37812e-06 0)
(-3.34114e-09 -3.3726e-06 0)
(-3.22325e-09 -3.36729e-06 0)
(-3.1046e-09 -3.36215e-06 0)
(-2.98526e-09 -3.35722e-06 0)
(-2.86521e-09 -3.35247e-06 0)
(-2.74451e-09 -3.34793e-06 0)
(-2.62315e-09 -3.34357e-06 0)
(-2.50117e-09 -3.33942e-06 0)
(-2.37857e-09 -3.33546e-06 0)
(-2.25538e-09 -3.33171e-06 0)
(-2.13161e-09 -3.32814e-06 0)
(-2.00728e-09 -3.32479e-06 0)
(-1.8824e-09 -3.32163e-06 0)
(-1.757e-09 -3.31868e-06 0)
(-1.6311e-09 -3.31592e-06 0)
(-1.50473e-09 -3.31338e-06 0)
(-1.37795e-09 -3.31103e-06 0)
(-1.25083e-09 -3.30892e-06 0)
(-1.12349e-09 -3.30691e-06 0)
(-9.96123e-10 -3.30542e-06 0)
(-8.68844e-10 -3.30314e-06 0)
(-7.42294e-10 -3.30433e-06 0)
(-6.1524e-10 -3.29464e-06 0)
(-4.92272e-10 -3.32054e-06 0)
(-3.55279e-10 -3.22047e-06 0)
(-2.66956e-10 -3.48446e-06 0)
(-1.28389e-10 -3.04302e-06 0)
)
;
    }
    bottomWall
    {
        type            calculated;
        value           nonuniform List<vector> 
449
(
(-52.8247 -0.957026 0)
(-34.8202 -0.00280517 0)
(-34.4233 -0.000257084 0)
(-33.0513 -0.000366012 0)
(-31.9174 -0.000317262 0)
(-30.8753 -0.000285698 0)
(-29.9539 -0.000250546 0)
(-29.1497 -0.000218581 0)
(-28.4451 -0.000191747 0)
(-27.8232 -0.000169644 0)
(-27.269 -0.000151412 0)
(-26.7711 -0.000136311 0)
(-26.3196 -0.000123794 0)
(-25.9069 -0.000113225 0)
(-25.5274 -0.000104067 0)
(-25.1771 -9.6025e-05 0)
(-24.8525 -8.89431e-05 0)
(-24.5505 -8.26639e-05 0)
(-24.2688 -7.70965e-05 0)
(-24.0049 -7.21601e-05 0)
(-23.757 -6.77582e-05 0)
(-23.5232 -6.38136e-05 0)
(-23.3022 -6.02705e-05 0)
(-23.0927 -5.70859e-05 0)
(-22.8935 -5.41953e-05 0)
(-22.7038 -5.15616e-05 0)
(-22.5227 -4.91608e-05 0)
(-22.3494 -4.69632e-05 0)
(-22.1833 -4.49457e-05 0)
(-22.0238 -4.30791e-05 0)
(-21.8705 -4.13468e-05 0)
(-21.7229 -3.97394e-05 0)
(-21.5806 -3.82461e-05 0)
(-21.4433 -3.68522e-05 0)
(-21.3105 -3.55537e-05 0)
(-21.1821 -3.43316e-05 0)
(-21.0577 -3.31878e-05 0)
(-20.9372 -3.21093e-05 0)
(-20.8202 -3.1097e-05 0)
(-20.7066 -3.0138e-05 0)
(-20.5962 -2.92303e-05 0)
(-20.4888 -2.83693e-05 0)
(-20.3843 -2.75513e-05 0)
(-20.2826 -2.67661e-05 0)
(-20.1835 -2.60151e-05 0)
(-20.087 -2.52954e-05 0)
(-19.9929 -2.46045e-05 0)
(-19.9011 -2.39398e-05 0)
(-19.8116 -2.33011e-05 0)
(-19.7242 -2.26906e-05 0)
(-19.6389 -2.21005e-05 0)
(-19.5557 -2.15415e-05 0)
(-19.4743 -2.10021e-05 0)
(-19.3947 -2.04858e-05 0)
(-19.317 -1.99902e-05 0)
(-19.2409 -1.95176e-05 0)
(-19.1664 -1.90638e-05 0)
(-19.0934 -1.86279e-05 0)
(-19.022 -1.8208e-05 0)
(-18.9519 -1.78066e-05 0)
(-18.8833 -1.7418e-05 0)
(-18.816 -1.70467e-05 0)
(-18.7499 -1.66864e-05 0)
(-18.6851 -1.63387e-05 0)
(-18.6214 -1.60034e-05 0)
(-18.559 -1.56815e-05 0)
(-18.4976 -1.53706e-05 0)
(-18.4373 -1.50671e-05 0)
(-18.378 -1.47757e-05 0)
(-18.3198 -1.44912e-05 0)
(-18.2625 -1.42172e-05 0)
(-18.2061 -1.39459e-05 0)
(-18.1507 -1.36872e-05 0)
(-18.0962 -1.34347e-05 0)
(-18.0426 -1.31914e-05 0)
(-17.9898 -1.29525e-05 0)
(-17.9379 -1.27226e-05 0)
(-17.8867 -1.24957e-05 0)
(-17.8364 -1.22774e-05 0)
(-17.7867 -1.20606e-05 0)
(-17.7379 -1.18557e-05 0)
(-17.6898 -1.1653e-05 0)
(-17.6424 -1.14603e-05 0)
(-17.5956 -1.12669e-05 0)
(-17.5496 -1.10816e-05 0)
(-17.504 -1.08963e-05 0)
(-17.4594 -1.07179e-05 0)
(-17.4151 -1.05471e-05 0)
(-17.3716 -1.03804e-05 0)
(-17.3286 -1.02161e-05 0)
(-17.2863 -1.0055e-05 0)
(-17.2444 -9.89587e-06 0)
(-17.2032 -9.74272e-06 0)
(-17.1624 -9.59328e-06 0)
(-17.1223 -9.44677e-06 0)
(-17.0825 -9.30469e-06 0)
(-17.0434 -9.16741e-06 0)
(-17.0046 -9.03203e-06 0)
(-16.9666 -8.89976e-06 0)
(-16.9287 -8.76906e-06 0)
(-16.8915 -8.64079e-06 0)
(-16.8546 -8.51706e-06 0)
(-16.8183 -8.39574e-06 0)
(-16.7823 -8.27575e-06 0)
(-16.7469 -8.15961e-06 0)
(-16.7117 -8.0474e-06 0)
(-16.6771 -7.93474e-06 0)
(-16.6427 -7.82906e-06 0)
(-16.6088 -7.72149e-06 0)
(-16.5752 -7.61859e-06 0)
(-16.5421 -7.5145e-06 0)
(-16.5092 -7.4131e-06 0)
(-16.4769 -7.31291e-06 0)
(-16.4447 -7.21655e-06 0)
(-16.4131 -7.12135e-06 0)
(-16.3816 -7.02964e-06 0)
(-16.3507 -6.9411e-06 0)
(-16.3199 -6.8548e-06 0)
(-16.2895 -6.76691e-06 0)
(-16.2593 -6.68072e-06 0)
(-16.2296 -6.59839e-06 0)
(-16.2 -6.51609e-06 0)
(-16.1709 -6.43451e-06 0)
(-16.1419 -6.35375e-06 0)
(-16.1134 -6.27464e-06 0)
(-16.085 -6.19656e-06 0)
(-16.0571 -6.12118e-06 0)
(-16.0292 -6.04789e-06 0)
(-16.0018 -5.97639e-06 0)
(-15.9745 -5.90784e-06 0)
(-15.9476 -5.83873e-06 0)
(-15.9208 -5.77186e-06 0)
(-15.8944 -5.70326e-06 0)
(-15.8681 -5.63561e-06 0)
(-15.8421 -5.56983e-06 0)
(-15.8163 -5.50481e-06 0)
(-15.7909 -5.44074e-06 0)
(-15.7656 -5.37877e-06 0)
(-15.7406 -5.3172e-06 0)
(-15.7157 -5.25968e-06 0)
(-15.6912 -5.2008e-06 0)
(-15.6667 -5.14517e-06 0)
(-15.6426 -5.08945e-06 0)
(-15.6186 -5.0366e-06 0)
(-15.5948 -4.98301e-06 0)
(-15.5712 -4.93072e-06 0)
(-15.5478 -4.8787e-06 0)
(-15.5246 -4.82558e-06 0)
(-15.5016 -4.7734e-06 0)
(-15.4788 -4.72165e-06 0)
(-15.4562 -4.673e-06 0)
(-15.4337 -4.62145e-06 0)
(-15.4115 -4.57383e-06 0)
(-15.3894 -4.52569e-06 0)
(-15.3676 -4.47866e-06 0)
(-15.3458 -4.43251e-06 0)
(-15.3243 -4.3883e-06 0)
(-15.3029 -4.34458e-06 0)
(-15.2817 -4.30035e-06 0)
(-15.2606 -4.25902e-06 0)
(-15.2398 -4.2164e-06 0)
(-15.219 -4.17445e-06 0)
(-15.1985 -4.13329e-06 0)
(-15.178 -4.09203e-06 0)
(-15.1578 -4.0488e-06 0)
(-15.1376 -4.00953e-06 0)
(-15.1177 -3.97181e-06 0)
(-15.0979 -3.93416e-06 0)
(-15.0782 -3.89734e-06 0)
(-15.0587 -3.86112e-06 0)
(-15.0393 -3.8247e-06 0)
(-15.02 -3.78877e-06 0)
(-15.0009 -3.75863e-06 0)
(-14.9829 -3.73768e-06 0)
(-14.966 -3.70976e-06 0)
(-14.949 -3.67355e-06 0)
(-14.932 -3.63861e-06 0)
(-14.915 -3.60531e-06 0)
(-14.898 -3.56946e-06 0)
(-14.8809 -3.53757e-06 0)
(-14.8638 -3.50633e-06 0)
(-14.8467 -3.47412e-06 0)
(-14.8296 -3.44283e-06 0)
(-14.8124 -3.41269e-06 0)
(-14.7952 -3.38089e-06 0)
(-14.7779 -3.35036e-06 0)
(-14.7607 -3.31983e-06 0)
(-14.7434 -3.29255e-06 0)
(-14.7261 -3.26343e-06 0)
(-14.7087 -3.23517e-06 0)
(-14.6913 -3.20207e-06 0)
(-14.6739 -3.1729e-06 0)
(-14.6564 -3.14481e-06 0)
(-14.639 -3.11339e-06 0)
(-14.6215 -3.08334e-06 0)
(-14.604 -3.05417e-06 0)
(-14.5864 -3.02789e-06 0)
(-14.5689 -2.99945e-06 0)
(-14.5513 -2.97222e-06 0)
(-14.5336 -2.94351e-06 0)
(-14.516 -2.91469e-06 0)
(-14.4984 -2.88654e-06 0)
(-14.4807 -2.8582e-06 0)
(-14.463 -2.83104e-06 0)
(-14.4453 -2.80162e-06 0)
(-14.4276 -2.77529e-06 0)
(-14.4098 -2.74498e-06 0)
(-14.3921 -2.71663e-06 0)
(-14.3743 -2.68834e-06 0)
(-14.3566 -2.66214e-06 0)
(-14.3388 -2.63557e-06 0)
(-14.3211 -2.60869e-06 0)
(-14.3032 -2.5841e-06 0)
(-14.2854 -2.56015e-06 0)
(-14.2676 -2.53604e-06 0)
(-14.2497 -2.50939e-06 0)
(-14.2318 -2.48465e-06 0)
(-14.214 -2.45851e-06 0)
(-14.1961 -2.43592e-06 0)
(-14.1781 -2.41021e-06 0)
(-14.1602 -2.38521e-06 0)
(-14.1423 -2.35958e-06 0)
(-14.1244 -2.33323e-06 0)
(-14.1065 -2.30922e-06 0)
(-14.0885 -2.28357e-06 0)
(-14.0706 -2.25891e-06 0)
(-14.0527 -2.23705e-06 0)
(-14.0348 -2.2107e-06 0)
(-14.0169 -2.18911e-06 0)
(-13.9989 -2.16585e-06 0)
(-13.981 -2.14185e-06 0)
(-13.963 -2.11975e-06 0)
(-13.9451 -2.09648e-06 0)
(-13.9271 -2.07379e-06 0)
(-13.9092 -2.05124e-06 0)
(-13.8913 -2.02804e-06 0)
(-13.8734 -2.0046e-06 0)
(-13.8555 -1.98146e-06 0)
(-13.8376 -1.96147e-06 0)
(-13.8197 -1.94138e-06 0)
(-13.8018 -1.92081e-06 0)
(-13.7838 -1.9011e-06 0)
(-13.7659 -1.88116e-06 0)
(-13.748 -1.85893e-06 0)
(-13.7301 -1.83742e-06 0)
(-13.7122 -1.81804e-06 0)
(-13.6943 -1.79632e-06 0)
(-13.6764 -1.77529e-06 0)
(-13.6586 -1.7557e-06 0)
(-13.6407 -1.7363e-06 0)
(-13.6229 -1.71737e-06 0)
(-13.605 -1.69833e-06 0)
(-13.5872 -1.67777e-06 0)
(-13.5694 -1.65951e-06 0)
(-13.5516 -1.64074e-06 0)
(-13.5338 -1.62323e-06 0)
(-13.516 -1.60288e-06 0)
(-13.4982 -1.58499e-06 0)
(-13.4805 -1.56684e-06 0)
(-13.4627 -1.54828e-06 0)
(-13.445 -1.53079e-06 0)
(-13.4273 -1.51273e-06 0)
(-13.4096 -1.49456e-06 0)
(-13.3919 -1.47574e-06 0)
(-13.3743 -1.45872e-06 0)
(-13.3567 -1.44118e-06 0)
(-13.3391 -1.4242e-06 0)
(-13.3215 -1.40897e-06 0)
(-13.3039 -1.39299e-06 0)
(-13.2863 -1.37545e-06 0)
(-13.2688 -1.35728e-06 0)
(-13.2513 -1.34128e-06 0)
(-13.2338 -1.32641e-06 0)
(-13.2163 -1.31254e-06 0)
(-13.1988 -1.29558e-06 0)
(-13.1814 -1.27958e-06 0)
(-13.164 -1.26509e-06 0)
(-13.1466 -1.24852e-06 0)
(-13.1293 -1.23454e-06 0)
(-13.1119 -1.2196e-06 0)
(-13.0946 -1.20659e-06 0)
(-13.0772 -1.19146e-06 0)
(-13.06 -1.17624e-06 0)
(-13.0427 -1.16176e-06 0)
(-13.0255 -1.14757e-06 0)
(-13.0082 -1.13347e-06 0)
(-12.9911 -1.11761e-06 0)
(-12.974 -1.10319e-06 0)
(-12.9569 -1.09065e-06 0)
(-12.9398 -1.07814e-06 0)
(-12.9227 -1.06638e-06 0)
(-12.9056 -1.05224e-06 0)
(-12.8887 -1.03866e-06 0)
(-12.8716 -1.02645e-06 0)
(-12.8547 -1.01297e-06 0)
(-12.8378 -9.99936e-07 0)
(-12.8209 -9.88741e-07 0)
(-12.804 -9.75803e-07 0)
(-12.7872 -9.645e-07 0)
(-12.7703 -9.53274e-07 0)
(-12.7536 -9.40582e-07 0)
(-12.7368 -9.30812e-07 0)
(-12.72 -9.18636e-07 0)
(-12.7033 -9.05723e-07 0)
(-12.6866 -8.91831e-07 0)
(-12.6701 -8.8065e-07 0)
(-12.6535 -8.71423e-07 0)
(-12.6369 -8.61137e-07 0)
(-12.6203 -8.4982e-07 0)
(-12.6038 -8.38875e-07 0)
(-12.5874 -8.27485e-07 0)
(-12.5709 -8.17721e-07 0)
(-12.5545 -8.07439e-07 0)
(-12.5381 -7.95416e-07 0)
(-12.5218 -7.84821e-07 0)
(-12.5056 -7.75635e-07 0)
(-12.4893 -7.65717e-07 0)
(-12.4731 -7.55968e-07 0)
(-12.4569 -7.45761e-07 0)
(-12.4408 -7.36783e-07 0)
(-12.4246 -7.27559e-07 0)
(-12.4086 -7.18159e-07 0)
(-12.3925 -7.07704e-07 0)
(-12.3765 -6.98678e-07 0)
(-12.3605 -6.89976e-07 0)
(-12.3446 -6.81451e-07 0)
(-12.3287 -6.72355e-07 0)
(-12.3129 -6.63167e-07 0)
(-12.297 -6.54384e-07 0)
(-12.2813 -6.46499e-07 0)
(-12.2654 -6.37472e-07 0)
(-12.2498 -6.27985e-07 0)
(-12.2341 -6.20746e-07 0)
(-12.2185 -6.1297e-07 0)
(-12.2029 -6.04122e-07 0)
(-12.1874 -5.94624e-07 0)
(-12.1719 -5.87199e-07 0)
(-12.1565 -5.80106e-07 0)
(-12.141 -5.7229e-07 0)
(-12.1257 -5.65024e-07 0)
(-12.1103 -5.57767e-07 0)
(-12.0951 -5.49517e-07 0)
(-12.0798 -5.42123e-07 0)
(-12.0646 -5.34909e-07 0)
(-12.0494 -5.27686e-07 0)
(-12.0343 -5.20971e-07 0)
(-12.0192 -5.14206e-07 0)
(-12.0042 -5.06668e-07 0)
(-11.9891 -5.00342e-07 0)
(-11.9742 -4.93447e-07 0)
(-11.9593 -4.86546e-07 0)
(-11.9444 -4.80066e-07 0)
(-11.9295 -4.73879e-07 0)
(-11.9147 -4.65056e-07 0)
(-11.8985 -4.56118e-07 0)
(-11.8808 -4.48156e-07 0)
(-11.8634 -4.41884e-07 0)
(-11.8462 -4.35473e-07 0)
(-11.8293 -4.28897e-07 0)
(-11.8126 -4.22585e-07 0)
(-11.7963 -4.16269e-07 0)
(-11.7801 -4.09924e-07 0)
(-11.7642 -4.04497e-07 0)
(-11.7484 -3.98481e-07 0)
(-11.733 -3.9205e-07 0)
(-11.7177 -3.8641e-07 0)
(-11.7028 -3.80862e-07 0)
(-11.6879 -3.75432e-07 0)
(-11.6734 -3.70361e-07 0)
(-11.659 -3.65647e-07 0)
(-11.6448 -3.60137e-07 0)
(-11.6308 -3.55662e-07 0)
(-11.617 -3.50326e-07 0)
(-11.6034 -3.45838e-07 0)
(-11.5899 -3.41909e-07 0)
(-11.5766 -3.37487e-07 0)
(-11.5635 -3.3203e-07 0)
(-11.5506 -3.27808e-07 0)
(-11.5379 -3.23783e-07 0)
(-11.5253 -3.2027e-07 0)
(-11.5128 -3.17004e-07 0)
(-11.5005 -3.12208e-07 0)
(-11.4884 -3.09136e-07 0)
(-11.4763 -3.05503e-07 0)
(-11.4645 -3.01239e-07 0)
(-11.4527 -2.97448e-07 0)
(-11.4412 -2.94965e-07 0)
(-11.4297 -2.91925e-07 0)
(-11.4184 -2.88947e-07 0)
(-11.4071 -2.85515e-07 0)
(-11.396 -2.82213e-07 0)
(-11.385 -2.78909e-07 0)
(-11.3742 -2.7534e-07 0)
(-11.3634 -2.72444e-07 0)
(-11.3529 -2.69196e-07 0)
(-11.3424 -2.66377e-07 0)
(-11.332 -2.63688e-07 0)
(-11.3217 -2.60419e-07 0)
(-11.3117 -2.57911e-07 0)
(-11.3016 -2.55436e-07 0)
(-11.2917 -2.52169e-07 0)
(-11.2818 -2.49771e-07 0)
(-11.2721 -2.46981e-07 0)
(-11.2625 -2.44665e-07 0)
(-11.253 -2.42212e-07 0)
(-11.2436 -2.40675e-07 0)
(-11.2342 -2.3767e-07 0)
(-11.225 -2.35399e-07 0)
(-11.2158 -2.33241e-07 0)
(-11.2067 -2.30634e-07 0)
(-11.1977 -2.28348e-07 0)
(-11.1889 -2.25867e-07 0)
(-11.18 -2.23249e-07 0)
(-11.1714 -2.21138e-07 0)
(-11.1627 -2.19518e-07 0)
(-11.1542 -2.1753e-07 0)
(-11.1457 -2.15418e-07 0)
(-11.1374 -2.13313e-07 0)
(-11.129 -2.11488e-07 0)
(-11.1208 -2.09275e-07 0)
(-11.1127 -2.07215e-07 0)
(-11.1046 -2.05773e-07 0)
(-11.0966 -2.05057e-07 0)
(-11.0886 -2.02148e-07 0)
(-11.0807 -2.01089e-07 0)
(-11.0728 -1.99331e-07 0)
(-11.0651 -1.98238e-07 0)
(-11.0573 -1.9645e-07 0)
(-11.0498 -1.95204e-07 0)
(-11.0421 -1.93045e-07 0)
(-11.0347 -1.92687e-07 0)
(-11.027 -1.90063e-07 0)
(-11.0198 -1.89568e-07 0)
(-11.0121 -1.87182e-07 0)
(-11.0052 -1.87028e-07 0)
(-10.9975 -1.85519e-07 0)
(-10.9907 -1.84738e-07 0)
(-10.9831 -1.83561e-07 0)
(-10.9763 -1.8135e-07 0)
(-10.9689 -1.80599e-07 0)
(-10.9622 -1.76751e-07 0)
(-10.9551 -1.79911e-07 0)
(-10.9481 -1.70077e-07 0)
(-10.9418 -1.83342e-07 0)
(-10.9337 -1.57668e-07 0)
(-10.9295 -1.96384e-07 0)
(-10.9183 -1.34546e-07 0)
(-10.9191 -1.71011e-07 0)
(-10.9046 -1.8969e-07 0)
)
;
    }
    symmetry
    {
        type            symmetryPlane;
    }
    frontAndBack
    {
        type            empty;
    }
}


// ************************************************************************* //
