/*--------------------------------*- C++ -*----------------------------------*\
| =========                 |                                                 |
| \\      /  F ield         | OpenFOAM: The Open Source CFD Toolbox           |
|  \\    /   O peration     | Version:  v2012                                 |
|   \\  /    A nd           | Website:  www.openfoam.com                      |
|    \\/     M anipulation  |                                                 |
\*---------------------------------------------------------------------------*/
FoamFile
{
    version     2.0;
    format      ascii;
    class       volVectorField;
    location    "7.5";
    object      wallShearStress;
}
// * * * * * * * * * * * * * * * * * * * * * * * * * * * * * * * * * * * * * //

dimensions      [0 2 -2 0 0 0 0];


internalField   uniform (0 0 0);

boundaryField
{
    inlet
    {
        type            calculated;
        value           uniform (0 0 0);
    }
    outlet
    {
        type            calculated;
        value           uniform (0 0 0);
    }
    topWall
    {
        type            calculated;
        value           nonuniform List<vector> 
545
(
(1.04952e-08 -7.36959e-09 0)
(1.05034e-08 -2.06953e-08 0)
(1.04578e-08 -3.44827e-08 0)
(1.04308e-08 -4.78527e-08 0)
(1.04047e-08 -6.06322e-08 0)
(1.03756e-08 -7.29855e-08 0)
(1.03427e-08 -8.50191e-08 0)
(1.03062e-08 -9.67277e-08 0)
(1.02662e-08 -1.08084e-07 0)
(1.02232e-08 -1.19087e-07 0)
(1.01773e-08 -1.2975e-07 0)
(1.01291e-08 -1.40086e-07 0)
(1.00786e-08 -1.50102e-07 0)
(1.00261e-08 -1.59804e-07 0)
(9.97199e-09 -1.692e-07 0)
(9.91637e-09 -1.78297e-07 0)
(9.85948e-09 -1.87105e-07 0)
(9.80151e-09 -1.9563e-07 0)
(9.74263e-09 -2.03881e-07 0)
(9.68301e-09 -2.11866e-07 0)
(9.62281e-09 -2.19593e-07 0)
(9.56216e-09 -2.27068e-07 0)
(9.5012e-09 -2.34301e-07 0)
(9.44004e-09 -2.41297e-07 0)
(9.3788e-09 -2.48065e-07 0)
(9.31757e-09 -2.54612e-07 0)
(9.25645e-09 -2.60944e-07 0)
(9.19551e-09 -2.67069e-07 0)
(9.13484e-09 -2.72993e-07 0)
(9.07449e-09 -2.78723e-07 0)
(9.01454e-09 -2.84264e-07 0)
(8.95504e-09 -2.89624e-07 0)
(8.89604e-09 -2.94809e-07 0)
(8.83758e-09 -2.99823e-07 0)
(8.7797e-09 -3.04673e-07 0)
(8.72243e-09 -3.09364e-07 0)
(8.66581e-09 -3.13902e-07 0)
(8.60987e-09 -3.18292e-07 0)
(8.55461e-09 -3.22538e-07 0)
(8.50007e-09 -3.26646e-07 0)
(8.44626e-09 -3.3062e-07 0)
(8.39319e-09 -3.34465e-07 0)
(8.34088e-09 -3.38185e-07 0)
(8.28932e-09 -3.41785e-07 0)
(8.23852e-09 -3.45268e-07 0)
(8.18849e-09 -3.48638e-07 0)
(8.13923e-09 -3.519e-07 0)
(8.09074e-09 -3.55057e-07 0)
(8.04301e-09 -3.58112e-07 0)
(7.99604e-09 -3.6107e-07 0)
(7.94983e-09 -3.63932e-07 0)
(7.90437e-09 -3.66703e-07 0)
(7.85965e-09 -3.69386e-07 0)
(7.81566e-09 -3.71983e-07 0)
(7.77239e-09 -3.74498e-07 0)
(7.72983e-09 -3.76933e-07 0)
(7.68797e-09 -3.79291e-07 0)
(7.6468e-09 -3.81574e-07 0)
(7.60631e-09 -3.83785e-07 0)
(7.56648e-09 -3.85927e-07 0)
(7.52729e-09 -3.88001e-07 0)
(7.48874e-09 -3.9001e-07 0)
(7.45081e-09 -3.91956e-07 0)
(7.41348e-09 -3.93842e-07 0)
(7.37674e-09 -3.95668e-07 0)
(7.34057e-09 -3.97438e-07 0)
(7.30495e-09 -3.99152e-07 0)
(7.26987e-09 -4.00813e-07 0)
(7.23536e-09 -4.02424e-07 0)
(7.20114e-09 -4.03981e-07 0)
(7.1683e-09 -4.05503e-07 0)
(7.13217e-09 -4.06948e-07 0)
(7.0981e-09 -4.08348e-07 0)
(7.07093e-09 -4.09732e-07 0)
(7.04397e-09 -4.11063e-07 0)
(7.0171e-09 -4.12384e-07 0)
(6.99029e-09 -4.13705e-07 0)
(6.96353e-09 -4.15018e-07 0)
(6.93682e-09 -4.16317e-07 0)
(6.91015e-09 -4.17604e-07 0)
(6.88354e-09 -4.1888e-07 0)
(6.85697e-09 -4.20146e-07 0)
(6.83046e-09 -4.21401e-07 0)
(6.80399e-09 -4.22646e-07 0)
(6.77758e-09 -4.2388e-07 0)
(6.75122e-09 -4.25104e-07 0)
(6.72491e-09 -4.26317e-07 0)
(6.69866e-09 -4.27521e-07 0)
(6.67246e-09 -4.28714e-07 0)
(6.64632e-09 -4.29896e-07 0)
(6.62025e-09 -4.3107e-07 0)
(6.59414e-09 -4.32231e-07 0)
(6.56849e-09 -4.33391e-07 0)
(6.54119e-09 -4.34515e-07 0)
(6.5212e-09 -4.35737e-07 0)
(6.47049e-09 -4.36731e-07 0)
(6.4119e-09 -4.37674e-07 0)
(6.38824e-09 -4.38767e-07 0)
(6.36773e-09 -4.39631e-07 0)
(6.34793e-09 -4.40468e-07 0)
(6.32825e-09 -4.41354e-07 0)
(6.30855e-09 -4.42261e-07 0)
(6.28878e-09 -4.43161e-07 0)
(6.26895e-09 -4.44051e-07 0)
(6.24905e-09 -4.4494e-07 0)
(6.22908e-09 -4.4583e-07 0)
(6.20903e-09 -4.4672e-07 0)
(6.18892e-09 -4.47609e-07 0)
(6.16874e-09 -4.48497e-07 0)
(6.14849e-09 -4.49384e-07 0)
(6.12817e-09 -4.50271e-07 0)
(6.10777e-09 -4.51157e-07 0)
(6.08731e-09 -4.52041e-07 0)
(6.06678e-09 -4.52925e-07 0)
(6.04618e-09 -4.53808e-07 0)
(6.02551e-09 -4.5469e-07 0)
(6.00477e-09 -4.55571e-07 0)
(5.98396e-09 -4.56451e-07 0)
(5.96308e-09 -4.5733e-07 0)
(5.94213e-09 -4.58208e-07 0)
(5.92111e-09 -4.59085e-07 0)
(5.90002e-09 -4.59961e-07 0)
(5.87886e-09 -4.60836e-07 0)
(5.85763e-09 -4.6171e-07 0)
(5.83633e-09 -4.62582e-07 0)
(5.81496e-09 -4.63454e-07 0)
(5.79352e-09 -4.64324e-07 0)
(5.77202e-09 -4.65194e-07 0)
(5.75044e-09 -4.66062e-07 0)
(5.72879e-09 -4.66928e-07 0)
(5.70708e-09 -4.67794e-07 0)
(5.6853e-09 -4.68658e-07 0)
(5.66344e-09 -4.69521e-07 0)
(5.64152e-09 -4.70383e-07 0)
(5.61953e-09 -4.71243e-07 0)
(5.59747e-09 -4.72102e-07 0)
(5.57534e-09 -4.7296e-07 0)
(5.55315e-09 -4.73816e-07 0)
(5.53088e-09 -4.74671e-07 0)
(5.50855e-09 -4.75525e-07 0)
(5.48615e-09 -4.76377e-07 0)
(5.46367e-09 -4.77227e-07 0)
(5.44114e-09 -4.78076e-07 0)
(5.41853e-09 -4.78924e-07 0)
(5.39586e-09 -4.7977e-07 0)
(5.37312e-09 -4.80614e-07 0)
(5.35031e-09 -4.81457e-07 0)
(5.32743e-09 -4.82298e-07 0)
(5.30449e-09 -4.83138e-07 0)
(5.28148e-09 -4.83976e-07 0)
(5.2584e-09 -4.84812e-07 0)
(5.23525e-09 -4.85646e-07 0)
(5.21204e-09 -4.86479e-07 0)
(5.18876e-09 -4.8731e-07 0)
(5.16542e-09 -4.88139e-07 0)
(5.14201e-09 -4.88967e-07 0)
(5.11853e-09 -4.89792e-07 0)
(5.09499e-09 -4.90616e-07 0)
(5.07139e-09 -4.91438e-07 0)
(5.04771e-09 -4.92258e-07 0)
(5.02398e-09 -4.93076e-07 0)
(5.00017e-09 -4.93892e-07 0)
(4.97631e-09 -4.94707e-07 0)
(4.95237e-09 -4.95519e-07 0)
(4.92838e-09 -4.96329e-07 0)
(4.90432e-09 -4.97137e-07 0)
(4.88019e-09 -4.97943e-07 0)
(4.85601e-09 -4.98747e-07 0)
(4.83175e-09 -4.99549e-07 0)
(4.80744e-09 -5.00349e-07 0)
(4.78306e-09 -5.01146e-07 0)
(4.75862e-09 -5.01942e-07 0)
(4.73412e-09 -5.02735e-07 0)
(4.70956e-09 -5.03526e-07 0)
(4.68493e-09 -5.04314e-07 0)
(4.66024e-09 -5.05101e-07 0)
(4.63549e-09 -5.05885e-07 0)
(4.61068e-09 -5.06667e-07 0)
(4.58581e-09 -5.07446e-07 0)
(4.56088e-09 -5.08223e-07 0)
(4.53589e-09 -5.08997e-07 0)
(4.51084e-09 -5.09769e-07 0)
(4.48573e-09 -5.10539e-07 0)
(4.46056e-09 -5.11306e-07 0)
(4.43533e-09 -5.12071e-07 0)
(4.41004e-09 -5.12833e-07 0)
(4.3847e-09 -5.13592e-07 0)
(4.35929e-09 -5.14349e-07 0)
(4.33383e-09 -5.15103e-07 0)
(4.30832e-09 -5.15855e-07 0)
(4.28274e-09 -5.16604e-07 0)
(4.25711e-09 -5.1735e-07 0)
(4.23142e-09 -5.18093e-07 0)
(4.20568e-09 -5.18834e-07 0)
(4.17988e-09 -5.19572e-07 0)
(4.15403e-09 -5.20307e-07 0)
(4.12812e-09 -5.21039e-07 0)
(4.10216e-09 -5.21768e-07 0)
(4.07615e-09 -5.22495e-07 0)
(4.05008e-09 -5.23218e-07 0)
(4.02396e-09 -5.23939e-07 0)
(3.99778e-09 -5.24656e-07 0)
(3.97156e-09 -5.25371e-07 0)
(3.94528e-09 -5.26082e-07 0)
(3.91895e-09 -5.26791e-07 0)
(3.89258e-09 -5.27496e-07 0)
(3.86615e-09 -5.28198e-07 0)
(3.83967e-09 -5.28898e-07 0)
(3.81314e-09 -5.29593e-07 0)
(3.78656e-09 -5.30286e-07 0)
(3.75994e-09 -5.30976e-07 0)
(3.73327e-09 -5.31662e-07 0)
(3.70654e-09 -5.32345e-07 0)
(3.67978e-09 -5.33025e-07 0)
(3.65296e-09 -5.33701e-07 0)
(3.62611e-09 -5.34374e-07 0)
(3.5992e-09 -5.35043e-07 0)
(3.57225e-09 -5.35709e-07 0)
(3.54526e-09 -5.36372e-07 0)
(3.51822e-09 -5.37031e-07 0)
(3.49114e-09 -5.37687e-07 0)
(3.46402e-09 -5.38339e-07 0)
(3.43685e-09 -5.38987e-07 0)
(3.40965e-09 -5.39632e-07 0)
(3.3824e-09 -5.40274e-07 0)
(3.35511e-09 -5.40911e-07 0)
(3.32778e-09 -5.41545e-07 0)
(3.30042e-09 -5.42176e-07 0)
(3.27301e-09 -5.42802e-07 0)
(3.24557e-09 -5.43425e-07 0)
(3.21809e-09 -5.44044e-07 0)
(3.19057e-09 -5.44659e-07 0)
(3.16302e-09 -5.4527e-07 0)
(3.13543e-09 -5.45878e-07 0)
(3.10781e-09 -5.46481e-07 0)
(3.08015e-09 -5.47081e-07 0)
(3.05246e-09 -5.47676e-07 0)
(3.02473e-09 -5.48268e-07 0)
(2.99698e-09 -5.48856e-07 0)
(2.96919e-09 -5.49439e-07 0)
(2.94137e-09 -5.50018e-07 0)
(2.91352e-09 -5.50594e-07 0)
(2.88564e-09 -5.51165e-07 0)
(2.85773e-09 -5.51732e-07 0)
(2.8298e-09 -5.52295e-07 0)
(2.80183e-09 -5.52854e-07 0)
(2.77385e-09 -5.53408e-07 0)
(2.74583e-09 -5.53958e-07 0)
(2.71779e-09 -5.54504e-07 0)
(2.68972e-09 -5.55045e-07 0)
(2.66163e-09 -5.55582e-07 0)
(2.63352e-09 -5.56115e-07 0)
(2.60539e-09 -5.56643e-07 0)
(2.57723e-09 -5.57167e-07 0)
(2.54905e-09 -5.57686e-07 0)
(2.52086e-09 -5.58201e-07 0)
(2.49264e-09 -5.58711e-07 0)
(2.46441e-09 -5.59217e-07 0)
(2.43615e-09 -5.59718e-07 0)
(2.40789e-09 -5.60215e-07 0)
(2.3796e-09 -5.60707e-07 0)
(2.3513e-09 -5.61194e-07 0)
(2.32298e-09 -5.61676e-07 0)
(2.29467e-09 -5.62155e-07 0)
(2.26628e-09 -5.62626e-07 0)
(2.23812e-09 -5.63101e-07 0)
(2.20893e-09 -5.63546e-07 0)
(2.18408e-09 -5.64093e-07 0)
(2.14076e-09 -5.64425e-07 0)
(2.09214e-09 -5.6477e-07 0)
(2.06517e-09 -5.65347e-07 0)
(2.04153e-09 -5.65719e-07 0)
(2.01849e-09 -5.66055e-07 0)
(1.99539e-09 -5.66432e-07 0)
(1.97208e-09 -5.66832e-07 0)
(1.94852e-09 -5.67228e-07 0)
(1.9247e-09 -5.67614e-07 0)
(1.90061e-09 -5.67999e-07 0)
(1.87627e-09 -5.68385e-07 0)
(1.85166e-09 -5.68771e-07 0)
(1.82679e-09 -5.69156e-07 0)
(1.80165e-09 -5.69539e-07 0)
(1.77625e-09 -5.69921e-07 0)
(1.75059e-09 -5.70302e-07 0)
(1.72466e-09 -5.70681e-07 0)
(1.69847e-09 -5.71059e-07 0)
(1.67202e-09 -5.71435e-07 0)
(1.6453e-09 -5.71809e-07 0)
(1.61832e-09 -5.72181e-07 0)
(1.59107e-09 -5.7255e-07 0)
(1.56356e-09 -5.72918e-07 0)
(1.53579e-09 -5.73283e-07 0)
(1.50776e-09 -5.73645e-07 0)
(1.47946e-09 -5.74004e-07 0)
(1.4509e-09 -5.7436e-07 0)
(1.42208e-09 -5.74713e-07 0)
(1.393e-09 -5.75063e-07 0)
(1.36366e-09 -5.75409e-07 0)
(1.33406e-09 -5.75751e-07 0)
(1.30421e-09 -5.7609e-07 0)
(1.27409e-09 -5.76424e-07 0)
(1.24372e-09 -5.76754e-07 0)
(1.2131e-09 -5.7708e-07 0)
(1.18222e-09 -5.774e-07 0)
(1.15109e-09 -5.77716e-07 0)
(1.11971e-09 -5.78027e-07 0)
(1.08808e-09 -5.78332e-07 0)
(1.0562e-09 -5.78632e-07 0)
(1.02408e-09 -5.78926e-07 0)
(9.91715e-10 -5.79214e-07 0)
(9.59108e-10 -5.79496e-07 0)
(9.26262e-10 -5.79771e-07 0)
(8.93179e-10 -5.80039e-07 0)
(8.59861e-10 -5.803e-07 0)
(8.26311e-10 -5.80554e-07 0)
(7.92533e-10 -5.80801e-07 0)
(7.58528e-10 -5.8104e-07 0)
(7.24299e-10 -5.8127e-07 0)
(6.89851e-10 -5.81493e-07 0)
(6.55185e-10 -5.81707e-07 0)
(6.20307e-10 -5.81911e-07 0)
(5.85218e-10 -5.82107e-07 0)
(5.49923e-10 -5.82293e-07 0)
(5.14426e-10 -5.8247e-07 0)
(4.78731e-10 -5.82636e-07 0)
(4.42842e-10 -5.82792e-07 0)
(4.06764e-10 -5.82937e-07 0)
(3.70501e-10 -5.83072e-07 0)
(3.34058e-10 -5.83194e-07 0)
(2.9744e-10 -5.83306e-07 0)
(2.60653e-10 -5.83405e-07 0)
(2.23701e-10 -5.83492e-07 0)
(1.8659e-10 -5.83566e-07 0)
(1.49326e-10 -5.83628e-07 0)
(1.11915e-10 -5.83676e-07 0)
(7.43632e-11 -5.8371e-07 0)
(3.66767e-11 -5.8373e-07 0)
(-1.13771e-12 -5.83736e-07 0)
(-3.90733e-11 -5.83727e-07 0)
(-7.71231e-11 -5.83703e-07 0)
(-1.1528e-10 -5.83663e-07 0)
(-1.53536e-10 -5.83608e-07 0)
(-1.91884e-10 -5.83536e-07 0)
(-2.30315e-10 -5.83448e-07 0)
(-2.68823e-10 -5.83342e-07 0)
(-3.07398e-10 -5.83219e-07 0)
(-3.46031e-10 -5.83078e-07 0)
(-3.84715e-10 -5.82919e-07 0)
(-4.2344e-10 -5.82742e-07 0)
(-4.62196e-10 -5.82545e-07 0)
(-5.00974e-10 -5.82329e-07 0)
(-5.39764e-10 -5.82093e-07 0)
(-5.78557e-10 -5.81837e-07 0)
(-6.17342e-10 -5.8156e-07 0)
(-6.56108e-10 -5.81262e-07 0)
(-6.94845e-10 -5.80943e-07 0)
(-7.33543e-10 -5.80601e-07 0)
(-7.72188e-10 -5.80238e-07 0)
(-8.10772e-10 -5.79851e-07 0)
(-8.4928e-10 -5.79442e-07 0)
(-8.87703e-10 -5.79009e-07 0)
(-9.26028e-10 -5.78552e-07 0)
(-9.64241e-10 -5.78071e-07 0)
(-1.00233e-09 -5.77564e-07 0)
(-1.04029e-09 -5.77033e-07 0)
(-1.07809e-09 -5.76476e-07 0)
(-1.11574e-09 -5.75892e-07 0)
(-1.1532e-09 -5.75283e-07 0)
(-1.19048e-09 -5.74646e-07 0)
(-1.22756e-09 -5.73982e-07 0)
(-1.26442e-09 -5.73291e-07 0)
(-1.30105e-09 -5.72571e-07 0)
(-1.33743e-09 -5.71823e-07 0)
(-1.37356e-09 -5.71047e-07 0)
(-1.40941e-09 -5.7024e-07 0)
(-1.44497e-09 -5.69405e-07 0)
(-1.48022e-09 -5.68539e-07 0)
(-1.51516e-09 -5.67643e-07 0)
(-1.54976e-09 -5.66716e-07 0)
(-1.58402e-09 -5.65758e-07 0)
(-1.61791e-09 -5.64769e-07 0)
(-1.65142e-09 -5.63747e-07 0)
(-1.68453e-09 -5.62694e-07 0)
(-1.71724e-09 -5.61609e-07 0)
(-1.74951e-09 -5.6049e-07 0)
(-1.78135e-09 -5.59339e-07 0)
(-1.81272e-09 -5.58154e-07 0)
(-1.84363e-09 -5.56936e-07 0)
(-1.87404e-09 -5.55684e-07 0)
(-1.90395e-09 -5.54398e-07 0)
(-1.93334e-09 -5.53077e-07 0)
(-1.96219e-09 -5.51722e-07 0)
(-1.9905e-09 -5.50332e-07 0)
(-2.01823e-09 -5.48907e-07 0)
(-2.04539e-09 -5.47447e-07 0)
(-2.07195e-09 -5.45952e-07 0)
(-2.0979e-09 -5.44421e-07 0)
(-2.12322e-09 -5.42855e-07 0)
(-2.14791e-09 -5.41252e-07 0)
(-2.17194e-09 -5.39614e-07 0)
(-2.1953e-09 -5.3794e-07 0)
(-2.21798e-09 -5.3623e-07 0)
(-2.23996e-09 -5.34484e-07 0)
(-2.26124e-09 -5.32702e-07 0)
(-2.28179e-09 -5.30884e-07 0)
(-2.30162e-09 -5.2903e-07 0)
(-2.32069e-09 -5.27139e-07 0)
(-2.33901e-09 -5.25213e-07 0)
(-2.35657e-09 -5.23251e-07 0)
(-2.37334e-09 -5.21253e-07 0)
(-2.38932e-09 -5.19219e-07 0)
(-2.40451e-09 -5.1715e-07 0)
(-2.41888e-09 -5.15046e-07 0)
(-2.43244e-09 -5.12906e-07 0)
(-2.44517e-09 -5.10732e-07 0)
(-2.45706e-09 -5.08523e-07 0)
(-2.46812e-09 -5.06279e-07 0)
(-2.47832e-09 -5.04001e-07 0)
(-2.48767e-09 -5.0169e-07 0)
(-2.49617e-09 -4.99345e-07 0)
(-2.50379e-09 -4.96966e-07 0)
(-2.51055e-09 -4.94555e-07 0)
(-2.51644e-09 -4.92112e-07 0)
(-2.52145e-09 -4.89637e-07 0)
(-2.52558e-09 -4.87131e-07 0)
(-2.52883e-09 -4.84593e-07 0)
(-2.5312e-09 -4.82025e-07 0)
(-2.5327e-09 -4.79428e-07 0)
(-2.53331e-09 -4.76801e-07 0)
(-2.53305e-09 -4.74145e-07 0)
(-2.53191e-09 -4.71461e-07 0)
(-2.5299e-09 -4.6875e-07 0)
(-2.52701e-09 -4.66012e-07 0)
(-2.52327e-09 -4.63248e-07 0)
(-2.51866e-09 -4.60459e-07 0)
(-2.5132e-09 -4.57645e-07 0)
(-2.50689e-09 -4.54807e-07 0)
(-2.49974e-09 -4.51946e-07 0)
(-2.49176e-09 -4.49062e-07 0)
(-2.48295e-09 -4.46157e-07 0)
(-2.47333e-09 -4.43232e-07 0)
(-2.4629e-09 -4.40286e-07 0)
(-2.45168e-09 -4.37322e-07 0)
(-2.43967e-09 -4.3434e-07 0)
(-2.4269e-09 -4.3134e-07 0)
(-2.41335e-09 -4.28326e-07 0)
(-2.3991e-09 -4.25288e-07 0)
(-2.38391e-09 -4.22263e-07 0)
(-2.36891e-09 -4.19104e-07 0)
(-2.34929e-09 -4.1615e-07 0)
(-2.32483e-09 -4.12819e-07 0)
(-2.30174e-09 -4.089e-07 0)
(-2.2793e-09 -4.05214e-07 0)
(-2.25657e-09 -4.0159e-07 0)
(-2.23338e-09 -3.97966e-07 0)
(-2.2097e-09 -3.9436e-07 0)
(-2.18556e-09 -3.90799e-07 0)
(-2.161e-09 -3.87284e-07 0)
(-2.13608e-09 -3.83811e-07 0)
(-2.11082e-09 -3.80376e-07 0)
(-2.08526e-09 -3.76981e-07 0)
(-2.05945e-09 -3.73629e-07 0)
(-2.03341e-09 -3.70318e-07 0)
(-2.00718e-09 -3.6705e-07 0)
(-1.98079e-09 -3.63825e-07 0)
(-1.95425e-09 -3.60642e-07 0)
(-1.92761e-09 -3.57502e-07 0)
(-1.90088e-09 -3.54406e-07 0)
(-1.87408e-09 -3.51352e-07 0)
(-1.84724e-09 -3.48343e-07 0)
(-1.82037e-09 -3.45376e-07 0)
(-1.79349e-09 -3.42454e-07 0)
(-1.76661e-09 -3.39574e-07 0)
(-1.73976e-09 -3.36738e-07 0)
(-1.71294e-09 -3.33946e-07 0)
(-1.68617e-09 -3.31197e-07 0)
(-1.65946e-09 -3.28491e-07 0)
(-1.63281e-09 -3.25829e-07 0)
(-1.60624e-09 -3.23209e-07 0)
(-1.57976e-09 -3.20632e-07 0)
(-1.55336e-09 -3.18099e-07 0)
(-1.52706e-09 -3.15607e-07 0)
(-1.50086e-09 -3.13159e-07 0)
(-1.47477e-09 -3.10752e-07 0)
(-1.44879e-09 -3.08388e-07 0)
(-1.42293e-09 -3.06065e-07 0)
(-1.39717e-09 -3.03785e-07 0)
(-1.37154e-09 -3.01546e-07 0)
(-1.34603e-09 -2.99348e-07 0)
(-1.32063e-09 -2.97191e-07 0)
(-1.29536e-09 -2.95076e-07 0)
(-1.2702e-09 -2.93001e-07 0)
(-1.24516e-09 -2.90967e-07 0)
(-1.22025e-09 -2.88973e-07 0)
(-1.19545e-09 -2.87019e-07 0)
(-1.17076e-09 -2.85106e-07 0)
(-1.14619e-09 -2.83232e-07 0)
(-1.12173e-09 -2.81398e-07 0)
(-1.09738e-09 -2.79603e-07 0)
(-1.07314e-09 -2.77848e-07 0)
(-1.049e-09 -2.76132e-07 0)
(-1.02496e-09 -2.74455e-07 0)
(-1.00101e-09 -2.72816e-07 0)
(-9.77168e-10 -2.71217e-07 0)
(-9.53413e-10 -2.69655e-07 0)
(-9.29745e-10 -2.68132e-07 0)
(-9.06162e-10 -2.66648e-07 0)
(-8.8266e-10 -2.65201e-07 0)
(-8.59235e-10 -2.63792e-07 0)
(-8.35883e-10 -2.62421e-07 0)
(-8.12602e-10 -2.61088e-07 0)
(-7.89388e-10 -2.59793e-07 0)
(-7.66236e-10 -2.58535e-07 0)
(-7.43144e-10 -2.57314e-07 0)
(-7.20108e-10 -2.56131e-07 0)
(-6.97125e-10 -2.54984e-07 0)
(-6.74191e-10 -2.53875e-07 0)
(-6.51303e-10 -2.52803e-07 0)
(-6.28459e-10 -2.51768e-07 0)
(-6.05654e-10 -2.5077e-07 0)
(-5.82886e-10 -2.49809e-07 0)
(-5.60153e-10 -2.48885e-07 0)
(-5.37452e-10 -2.47997e-07 0)
(-5.1478e-10 -2.47146e-07 0)
(-4.92136e-10 -2.46332e-07 0)
(-4.69516e-10 -2.45554e-07 0)
(-4.4692e-10 -2.44813e-07 0)
(-4.24346e-10 -2.44108e-07 0)
(-4.01793e-10 -2.4344e-07 0)
(-3.7926e-10 -2.42809e-07 0)
(-3.56746e-10 -2.42213e-07 0)
(-3.3425e-10 -2.41655e-07 0)
(-3.11773e-10 -2.41132e-07 0)
(-2.89313e-10 -2.40646e-07 0)
(-2.66869e-10 -2.40196e-07 0)
(-2.44437e-10 -2.39784e-07 0)
(-2.22008e-10 -2.39402e-07 0)
(-1.99581e-10 -2.39077e-07 0)
(-1.77111e-10 -2.38717e-07 0)
(-1.5469e-10 -2.38629e-07 0)
(-1.31913e-10 -2.37779e-07 0)
(-1.10307e-10 -2.39514e-07 0)
(-8.42217e-11 -2.32196e-07 0)
(-7.61949e-11 -2.51131e-07 0)
(-4.21308e-11 -2.19242e-07 0)
)
;
    }
    bottomWall
    {
        type            calculated;
        value           nonuniform List<vector> 
449
(
(-48.7444 -0.96706 0)
(-19.8319 -0.0051781 0)
(-14.4048 -0.00113859 0)
(-12.0891 -0.000546435 0)
(-10.683 -0.000350898 0)
(-9.69397 -0.000254107 0)
(-8.94508 -0.000195405 0)
(-8.35482 -0.000155667 0)
(-7.87617 -0.000127283 0)
(-7.47913 -0.000106245 0)
(-7.1438 -9.01482e-05 0)
(-6.85648 -7.75139e-05 0)
(-6.60733 -6.74025e-05 0)
(-6.38903 -5.91819e-05 0)
(-6.19603 -5.24048e-05 0)
(-6.02406 -4.67469e-05 0)
(-5.86977 -4.19705e-05 0)
(-5.7305 -3.78987e-05 0)
(-5.60412 -3.43977e-05 0)
(-5.48888 -3.13643e-05 0)
(-5.38333 -2.87176e-05 0)
(-5.28627 -2.6394e-05 0)
(-5.1967 -2.43423e-05 0)
(-5.11378 -2.25212e-05 0)
(-5.03677 -2.08972e-05 0)
(-4.96505 -1.94424e-05 0)
(-4.89808 -1.8134e-05 0)
(-4.83541 -1.69527e-05 0)
(-4.77662 -1.58825e-05 0)
(-4.72136 -1.49098e-05 0)
(-4.66932 -1.40229e-05 0)
(-4.62022 -1.32121e-05 0)
(-4.57382 -1.24687e-05 0)
(-4.52989 -1.17855e-05 0)
(-4.48824 -1.11561e-05 0)
(-4.4487 -1.0575e-05 0)
(-4.41111 -1.00373e-05 0)
(-4.37533 -9.5388e-06 0)
(-4.34123 -9.07574e-06 0)
(-4.30869 -8.64485e-06 0)
(-4.27761 -8.24319e-06 0)
(-4.24789 -7.86818e-06 0)
(-4.21945 -7.51751e-06 0)
(-4.1922 -7.18911e-06 0)
(-4.16607 -6.88113e-06 0)
(-4.14099 -6.59191e-06 0)
(-4.1169 -6.31997e-06 0)
(-4.09374 -6.06394e-06 0)
(-4.07146 -5.82262e-06 0)
(-4.05001 -5.5949e-06 0)
(-4.02935 -5.37978e-06 0)
(-4.00943 -5.17634e-06 0)
(-3.99021 -4.98377e-06 0)
(-3.97166 -4.8013e-06 0)
(-3.95375 -4.62825e-06 0)
(-3.93643 -4.46397e-06 0)
(-3.91969 -4.30789e-06 0)
(-3.90349 -4.15947e-06 0)
(-3.88781 -4.01823e-06 0)
(-3.87262 -3.88371e-06 0)
(-3.85791 -3.75549e-06 0)
(-3.84365 -3.6332e-06 0)
(-3.82981 -3.51646e-06 0)
(-3.81639 -3.40497e-06 0)
(-3.80336 -3.2984e-06 0)
(-3.79071 -3.19648e-06 0)
(-3.77841 -3.09894e-06 0)
(-3.76647 -3.00554e-06 0)
(-3.75485 -2.91604e-06 0)
(-3.74355 -2.83025e-06 0)
(-3.73256 -2.74795e-06 0)
(-3.72186 -2.66897e-06 0)
(-3.71145 -2.59313e-06 0)
(-3.7013 -2.52026e-06 0)
(-3.69142 -2.45022e-06 0)
(-3.68178 -2.38287e-06 0)
(-3.67239 -2.31807e-06 0)
(-3.66324 -2.25569e-06 0)
(-3.6543 -2.19562e-06 0)
(-3.64559 -2.13775e-06 0)
(-3.63708 -2.08198e-06 0)
(-3.62877 -2.0282e-06 0)
(-3.62066 -1.97632e-06 0)
(-3.61274 -1.92627e-06 0)
(-3.605 -1.87794e-06 0)
(-3.59744 -1.83127e-06 0)
(-3.59005 -1.78619e-06 0)
(-3.58282 -1.74262e-06 0)
(-3.57575 -1.7005e-06 0)
(-3.56883 -1.65977e-06 0)
(-3.56207 -1.62036e-06 0)
(-3.55545 -1.58223e-06 0)
(-3.54897 -1.54531e-06 0)
(-3.54262 -1.50957e-06 0)
(-3.53641 -1.47495e-06 0)
(-3.53032 -1.4414e-06 0)
(-3.52436 -1.40888e-06 0)
(-3.51852 -1.37736e-06 0)
(-3.5128 -1.3468e-06 0)
(-3.50719 -1.31714e-06 0)
(-3.5017 -1.28838e-06 0)
(-3.4963 -1.26045e-06 0)
(-3.49102 -1.23335e-06 0)
(-3.48583 -1.20703e-06 0)
(-3.48074 -1.18146e-06 0)
(-3.47575 -1.15662e-06 0)
(-3.47086 -1.13249e-06 0)
(-3.46605 -1.10903e-06 0)
(-3.46133 -1.08622e-06 0)
(-3.4567 -1.06405e-06 0)
(-3.45215 -1.04247e-06 0)
(-3.44768 -1.02149e-06 0)
(-3.4433 -1.00107e-06 0)
(-3.43899 -9.81196e-07 0)
(-3.43475 -9.6185e-07 0)
(-3.43059 -9.43013e-07 0)
(-3.4265 -9.24669e-07 0)
(-3.42249 -9.068e-07 0)
(-3.41853 -8.89392e-07 0)
(-3.41465 -8.72429e-07 0)
(-3.41083 -8.55897e-07 0)
(-3.40708 -8.39782e-07 0)
(-3.40339 -8.2407e-07 0)
(-3.39975 -8.08748e-07 0)
(-3.39618 -7.93805e-07 0)
(-3.39266 -7.79229e-07 0)
(-3.3892 -7.65007e-07 0)
(-3.3858 -7.5113e-07 0)
(-3.38245 -7.37586e-07 0)
(-3.37915 -7.24366e-07 0)
(-3.37591 -7.11459e-07 0)
(-3.37271 -6.98856e-07 0)
(-3.36957 -6.86549e-07 0)
(-3.36647 -6.74528e-07 0)
(-3.36342 -6.62785e-07 0)
(-3.36041 -6.51311e-07 0)
(-3.35745 -6.401e-07 0)
(-3.35454 -6.29143e-07 0)
(-3.35166 -6.18433e-07 0)
(-3.34883 -6.07963e-07 0)
(-3.34604 -5.97726e-07 0)
(-3.34329 -5.87716e-07 0)
(-3.34059 -5.77926e-07 0)
(-3.33792 -5.6835e-07 0)
(-3.33528 -5.58982e-07 0)
(-3.33269 -5.49817e-07 0)
(-3.33013 -5.40849e-07 0)
(-3.32761 -5.32072e-07 0)
(-3.32512 -5.23481e-07 0)
(-3.32267 -5.15071e-07 0)
(-3.32025 -5.06837e-07 0)
(-3.31786 -4.98774e-07 0)
(-3.31551 -4.90878e-07 0)
(-3.31319 -4.83143e-07 0)
(-3.3109 -4.75565e-07 0)
(-3.30864 -4.6814e-07 0)
(-3.30641 -4.60862e-07 0)
(-3.30421 -4.53728e-07 0)
(-3.30204 -4.46731e-07 0)
(-3.29989 -4.39868e-07 0)
(-3.29778 -4.33131e-07 0)
(-3.29569 -4.26516e-07 0)
(-3.29363 -4.20012e-07 0)
(-3.2916 -4.13612e-07 0)
(-3.28959 -4.07303e-07 0)
(-3.28761 -4.01064e-07 0)
(-3.28566 -3.94875e-07 0)
(-3.28373 -3.88691e-07 0)
(-3.28182 -3.82336e-07 0)
(-3.27995 -3.76448e-07 0)
(-3.27809 -3.67758e-07 0)
(-3.2763 -3.62802e-07 0)
(-3.27448 -3.65844e-07 0)
(-3.27275 -3.627e-07 0)
(-3.27116 -3.46663e-07 0)
(-3.26964 -3.32004e-07 0)
(-3.26815 -3.25847e-07 0)
(-3.26666 -3.21865e-07 0)
(-3.26517 -3.19029e-07 0)
(-3.26367 -3.16798e-07 0)
(-3.26217 -3.14879e-07 0)
(-3.26066 -3.13075e-07 0)
(-3.25914 -3.11272e-07 0)
(-3.25762 -3.09411e-07 0)
(-3.25608 -3.07468e-07 0)
(-3.25454 -3.05432e-07 0)
(-3.253 -3.03304e-07 0)
(-3.25144 -3.01085e-07 0)
(-3.24988 -2.98783e-07 0)
(-3.24832 -2.96403e-07 0)
(-3.24675 -2.93953e-07 0)
(-3.24518 -2.9144e-07 0)
(-3.24361 -2.88869e-07 0)
(-3.24203 -2.86246e-07 0)
(-3.24045 -2.83577e-07 0)
(-3.23886 -2.80867e-07 0)
(-3.23728 -2.7812e-07 0)
(-3.23569 -2.7534e-07 0)
(-3.23411 -2.72532e-07 0)
(-3.23252 -2.69699e-07 0)
(-3.23093 -2.66844e-07 0)
(-3.22934 -2.6397e-07 0)
(-3.22775 -2.61081e-07 0)
(-3.22616 -2.5818e-07 0)
(-3.22458 -2.55267e-07 0)
(-3.22299 -2.52347e-07 0)
(-3.2214 -2.49421e-07 0)
(-3.21982 -2.46491e-07 0)
(-3.21824 -2.43559e-07 0)
(-3.21666 -2.40627e-07 0)
(-3.21508 -2.37697e-07 0)
(-3.2135 -2.3477e-07 0)
(-3.21193 -2.31848e-07 0)
(-3.21036 -2.28932e-07 0)
(-3.20879 -2.26023e-07 0)
(-3.20723 -2.23124e-07 0)
(-3.20567 -2.20234e-07 0)
(-3.20411 -2.17355e-07 0)
(-3.20255 -2.14488e-07 0)
(-3.20101 -2.11635e-07 0)
(-3.19946 -2.08795e-07 0)
(-3.19792 -2.0597e-07 0)
(-3.19638 -2.03161e-07 0)
(-3.19485 -2.00368e-07 0)
(-3.19332 -1.97593e-07 0)
(-3.1918 -1.94835e-07 0)
(-3.19028 -1.92096e-07 0)
(-3.18877 -1.89376e-07 0)
(-3.18726 -1.86675e-07 0)
(-3.18576 -1.83995e-07 0)
(-3.18426 -1.81335e-07 0)
(-3.18277 -1.78697e-07 0)
(-3.18129 -1.7608e-07 0)
(-3.17981 -1.73485e-07 0)
(-3.17834 -1.70912e-07 0)
(-3.17687 -1.68361e-07 0)
(-3.17541 -1.65834e-07 0)
(-3.17396 -1.6333e-07 0)
(-3.17251 -1.60849e-07 0)
(-3.17107 -1.58392e-07 0)
(-3.16964 -1.55959e-07 0)
(-3.16821 -1.53551e-07 0)
(-3.16679 -1.51166e-07 0)
(-3.16538 -1.48806e-07 0)
(-3.16397 -1.46471e-07 0)
(-3.16257 -1.4416e-07 0)
(-3.16118 -1.41875e-07 0)
(-3.1598 -1.39614e-07 0)
(-3.15842 -1.37378e-07 0)
(-3.15705 -1.35167e-07 0)
(-3.15569 -1.32982e-07 0)
(-3.15433 -1.30821e-07 0)
(-3.15298 -1.28686e-07 0)
(-3.15165 -1.26576e-07 0)
(-3.15031 -1.24491e-07 0)
(-3.14899 -1.22431e-07 0)
(-3.14767 -1.20397e-07 0)
(-3.14637 -1.18387e-07 0)
(-3.14507 -1.16402e-07 0)
(-3.14377 -1.14443e-07 0)
(-3.14249 -1.12508e-07 0)
(-3.14122 -1.10598e-07 0)
(-3.13995 -1.08713e-07 0)
(-3.13869 -1.06852e-07 0)
(-3.13744 -1.05016e-07 0)
(-3.13619 -1.03205e-07 0)
(-3.13496 -1.01417e-07 0)
(-3.13373 -9.96541e-08 0)
(-3.13251 -9.7915e-08 0)
(-3.1313 -9.61998e-08 0)
(-3.1301 -9.45083e-08 0)
(-3.12891 -9.28405e-08 0)
(-3.12773 -9.11961e-08 0)
(-3.12655 -8.95751e-08 0)
(-3.12538 -8.79772e-08 0)
(-3.12422 -8.64022e-08 0)
(-3.12307 -8.48501e-08 0)
(-3.12193 -8.33206e-08 0)
(-3.1208 -8.18135e-08 0)
(-3.11967 -8.03287e-08 0)
(-3.11855 -7.88659e-08 0)
(-3.11745 -7.74251e-08 0)
(-3.11635 -7.6006e-08 0)
(-3.11526 -7.46083e-08 0)
(-3.11417 -7.3232e-08 0)
(-3.1131 -7.18767e-08 0)
(-3.11203 -7.05424e-08 0)
(-3.11098 -6.92288e-08 0)
(-3.10993 -6.79357e-08 0)
(-3.10889 -6.66628e-08 0)
(-3.10786 -6.54101e-08 0)
(-3.10683 -6.41772e-08 0)
(-3.10582 -6.2964e-08 0)
(-3.10481 -6.17702e-08 0)
(-3.10381 -6.05957e-08 0)
(-3.10282 -5.94402e-08 0)
(-3.10184 -5.83035e-08 0)
(-3.10087 -5.71854e-08 0)
(-3.09991 -5.60857e-08 0)
(-3.09895 -5.50042e-08 0)
(-3.098 -5.39406e-08 0)
(-3.09706 -5.28948e-08 0)
(-3.09613 -5.18665e-08 0)
(-3.09521 -5.08555e-08 0)
(-3.0943 -4.98616e-08 0)
(-3.09339 -4.88845e-08 0)
(-3.09249 -4.79242e-08 0)
(-3.0916 -4.69803e-08 0)
(-3.09072 -4.60526e-08 0)
(-3.08985 -4.5141e-08 0)
(-3.08898 -4.42452e-08 0)
(-3.08812 -4.33651e-08 0)
(-3.08727 -4.25003e-08 0)
(-3.08643 -4.16507e-08 0)
(-3.0856 -4.08161e-08 0)
(-3.08477 -3.99963e-08 0)
(-3.08395 -3.9191e-08 0)
(-3.08314 -3.84002e-08 0)
(-3.08234 -3.76234e-08 0)
(-3.08155 -3.68607e-08 0)
(-3.08076 -3.61118e-08 0)
(-3.07998 -3.53764e-08 0)
(-3.07921 -3.46544e-08 0)
(-3.07845 -3.39455e-08 0)
(-3.07769 -3.32497e-08 0)
(-3.07694 -3.25666e-08 0)
(-3.0762 -3.18962e-08 0)
(-3.07547 -3.12381e-08 0)
(-3.07474 -3.05923e-08 0)
(-3.07402 -2.99586e-08 0)
(-3.07331 -2.93367e-08 0)
(-3.0726 -2.87265e-08 0)
(-3.07191 -2.81278e-08 0)
(-3.07122 -2.75404e-08 0)
(-3.07053 -2.69642e-08 0)
(-3.06986 -2.6399e-08 0)
(-3.06919 -2.58447e-08 0)
(-3.06853 -2.5301e-08 0)
(-3.06787 -2.47679e-08 0)
(-3.06722 -2.42452e-08 0)
(-3.06658 -2.37327e-08 0)
(-3.06595 -2.32305e-08 0)
(-3.06532 -2.27383e-08 0)
(-3.0647 -2.22563e-08 0)
(-3.06408 -2.17844e-08 0)
(-3.06347 -2.13229e-08 0)
(-3.06287 -2.08722e-08 0)
(-3.06228 -2.04334e-08 0)
(-3.06169 -2.00087e-08 0)
(-3.06111 -1.9603e-08 0)
(-3.06053 -1.92212e-08 0)
(-3.05995 -1.89993e-08 0)
(-3.05938 -1.83418e-08 0)
(-3.05883 -1.94635e-08 0)
(-3.05809 -2.12215e-08 0)
(-3.05728 -2.08794e-08 0)
(-3.05649 -1.98508e-08 0)
(-3.05575 -1.85358e-08 0)
(-3.05507 -1.73662e-08 0)
(-3.05442 -1.63979e-08 0)
(-3.05381 -1.55793e-08 0)
(-3.05323 -1.48616e-08 0)
(-3.05268 -1.42179e-08 0)
(-3.05215 -1.36335e-08 0)
(-3.05164 -1.30981e-08 0)
(-3.05115 -1.26039e-08 0)
(-3.05068 -1.21445e-08 0)
(-3.05022 -1.17154e-08 0)
(-3.04978 -1.1313e-08 0)
(-3.04936 -1.09343e-08 0)
(-3.04895 -1.0577e-08 0)
(-3.04856 -1.02388e-08 0)
(-3.04817 -9.91811e-09 0)
(-3.0478 -9.61344e-09 0)
(-3.04744 -9.32346e-09 0)
(-3.04709 -9.04706e-09 0)
(-3.04676 -8.78321e-09 0)
(-3.04643 -8.53105e-09 0)
(-3.04611 -8.28977e-09 0)
(-3.0458 -8.05867e-09 0)
(-3.0455 -7.8371e-09 0)
(-3.0452 -7.62447e-09 0)
(-3.04492 -7.42026e-09 0)
(-3.04464 -7.22399e-09 0)
(-3.04437 -7.0352e-09 0)
(-3.04411 -6.85349e-09 0)
(-3.04385 -6.67848e-09 0)
(-3.0436 -6.50982e-09 0)
(-3.04336 -6.3472e-09 0)
(-3.04312 -6.1903e-09 0)
(-3.04289 -6.03886e-09 0)
(-3.04266 -5.8926e-09 0)
(-3.04244 -5.75129e-09 0)
(-3.04223 -5.6147e-09 0)
(-3.04202 -5.48262e-09 0)
(-3.04181 -5.35483e-09 0)
(-3.04161 -5.23117e-09 0)
(-3.04142 -5.11144e-09 0)
(-3.04123 -4.99548e-09 0)
(-3.04104 -4.88314e-09 0)
(-3.04086 -4.77426e-09 0)
(-3.04068 -4.66871e-09 0)
(-3.04051 -4.56634e-09 0)
(-3.04033 -4.46704e-09 0)
(-3.04017 -4.37068e-09 0)
(-3.04 -4.27716e-09 0)
(-3.03984 -4.18635e-09 0)
(-3.03969 -4.09817e-09 0)
(-3.03954 -4.01252e-09 0)
(-3.03939 -3.9293e-09 0)
(-3.03924 -3.84842e-09 0)
(-3.0391 -3.7698e-09 0)
(-3.03895 -3.69336e-09 0)
(-3.03882 -3.61903e-09 0)
(-3.03868 -3.54673e-09 0)
(-3.03855 -3.47639e-09 0)
(-3.03842 -3.40796e-09 0)
(-3.03829 -3.34136e-09 0)
(-3.03817 -3.27654e-09 0)
(-3.03805 -3.21345e-09 0)
(-3.03793 -3.15202e-09 0)
(-3.03781 -3.09222e-09 0)
(-3.03769 -3.03399e-09 0)
(-3.03758 -2.97728e-09 0)
(-3.03747 -2.92207e-09 0)
(-3.03736 -2.8683e-09 0)
(-3.03725 -2.81595e-09 0)
(-3.03715 -2.76498e-09 0)
(-3.03704 -2.71537e-09 0)
(-3.03694 -2.66709e-09 0)
(-3.03684 -2.62014e-09 0)
(-3.03675 -2.57451e-09 0)
(-3.03665 -2.5302e-09 0)
(-3.03656 -2.48723e-09 0)
(-3.03646 -2.44566e-09 0)
(-3.03637 -2.40556e-09 0)
(-3.03628 -2.36704e-09 0)
(-3.03619 -2.33041e-09 0)
(-3.03611 -2.29583e-09 0)
(-3.03602 -2.26449e-09 0)
(-3.03594 -2.23594e-09 0)
(-3.03585 -2.21766e-09 0)
(-3.03577 -2.19579e-09 0)
(-3.03569 -2.25918e-09 0)
(-3.0356 -2.07859e-09 0)
(-3.03553 -3.4888e-09 0)
(-3.03533 7.41475e-10 0)
(-3.0356 -1.17234e-09 0)
(-3.03523 -5.06679e-09 0)
)
;
    }
    symmetry
    {
        type            symmetryPlane;
    }
    frontAndBack
    {
        type            empty;
    }
}


// ************************************************************************* //
