/*--------------------------------*- C++ -*----------------------------------*\
| =========                 |                                                 |
| \\      /  F ield         | OpenFOAM: The Open Source CFD Toolbox           |
|  \\    /   O peration     | Version:  v2012                                 |
|   \\  /    A nd           | Website:  www.openfoam.com                      |
|    \\/     M anipulation  |                                                 |
\*---------------------------------------------------------------------------*/
FoamFile
{
    version     2.0;
    format      ascii;
    class       volScalarField;
    location    "7.5";
    object      yPlus;
}
// * * * * * * * * * * * * * * * * * * * * * * * * * * * * * * * * * * * * * //

dimensions      [0 0 0 0 0 0 0];


internalField   uniform 0;

boundaryField
{
    inlet
    {
        type            calculated;
        value           uniform 0;
    }
    outlet
    {
        type            calculated;
        value           uniform 0;
    }
    topWall
    {
        type            calculated;
        value           nonuniform List<scalar> 
545
(
0.0593896
0.102667
0.131639
0.15466
0.174131
0.19115
0.206332
0.220066
0.232614
0.244167
0.254867
0.264825
0.274128
0.282848
0.291044
0.298766
0.306056
0.312951
0.319483
0.325679
0.331564
0.337161
0.342488
0.347564
0.352405
0.357025
0.361437
0.365654
0.369687
0.373547
0.377242
0.380782
0.384175
0.387429
0.39055
0.393545
0.396421
0.399183
0.401837
0.404388
0.406841
0.4092
0.411469
0.413654
0.415756
0.417781
0.41973
0.421609
0.423419
0.425164
0.426846
0.428468
0.430033
0.431542
0.432998
0.434404
0.435761
0.43707
0.438335
0.439556
0.440736
0.441876
0.442977
0.444041
0.44507
0.446064
0.447025
0.447955
0.448853
0.449722
0.450563
0.451376
0.452152
0.452901
0.453643
0.454377
0.455104
0.455824
0.456536
0.457242
0.45794
0.458632
0.459317
0.459994
0.460666
0.46133
0.461988
0.46264
0.463285
0.463924
0.464556
0.465182
0.465803
0.466417
0.467024
0.467628
0.468165
0.468644
0.469122
0.469599
0.470075
0.470551
0.471025
0.471499
0.471972
0.472444
0.472916
0.473386
0.473855
0.474324
0.474792
0.475258
0.475724
0.476189
0.476653
0.477116
0.477578
0.47804
0.4785
0.478959
0.479417
0.479874
0.480331
0.480786
0.48124
0.481693
0.482146
0.482597
0.483047
0.483496
0.483944
0.484391
0.484837
0.485282
0.485725
0.486168
0.486609
0.48705
0.487489
0.487927
0.488364
0.4888
0.489235
0.489668
0.490101
0.490532
0.490962
0.491391
0.491819
0.492245
0.49267
0.493094
0.493517
0.493938
0.494358
0.494777
0.495195
0.495611
0.496026
0.49644
0.496853
0.497264
0.497674
0.498082
0.498489
0.498895
0.4993
0.499703
0.500104
0.500505
0.500903
0.501301
0.501697
0.502092
0.502485
0.502876
0.503267
0.503656
0.504043
0.504429
0.504813
0.505196
0.505577
0.505957
0.506335
0.506712
0.507087
0.507461
0.507833
0.508204
0.508572
0.50894
0.509305
0.50967
0.510032
0.510393
0.510752
0.511109
0.511465
0.511819
0.512172
0.512523
0.512872
0.513219
0.513565
0.513909
0.514251
0.514591
0.51493
0.515266
0.515602
0.515935
0.516266
0.516596
0.516924
0.51725
0.517574
0.517896
0.518216
0.518535
0.518851
0.519166
0.519479
0.51979
0.520099
0.520406
0.520711
0.521014
0.521315
0.521614
0.521912
0.522207
0.5225
0.522791
0.52308
0.523367
0.523652
0.523935
0.524216
0.524495
0.524772
0.525046
0.525319
0.525589
0.525857
0.526123
0.526387
0.526649
0.526909
0.527166
0.527421
0.527674
0.527925
0.528174
0.52842
0.528664
0.528906
0.529145
0.529383
0.529618
0.52985
0.530081
0.530309
0.530534
0.530758
0.530979
0.531198
0.531414
0.531628
0.531825
0.532009
0.532192
0.532376
0.532559
0.532742
0.532924
0.533107
0.533289
0.53347
0.533651
0.533832
0.534012
0.534191
0.53437
0.534548
0.534725
0.534901
0.535077
0.535251
0.535424
0.535596
0.535767
0.535936
0.536104
0.536271
0.536436
0.5366
0.536761
0.536921
0.537079
0.537235
0.53739
0.537542
0.537691
0.537839
0.537984
0.538126
0.538266
0.538403
0.538537
0.538668
0.538797
0.538922
0.539043
0.539162
0.539277
0.539388
0.539495
0.539599
0.539699
0.539794
0.539885
0.539972
0.540054
0.540132
0.540204
0.540272
0.540335
0.540392
0.540444
0.540491
0.540531
0.540566
0.540595
0.540618
0.540634
0.540644
0.540647
0.540644
0.540633
0.540615
0.54059
0.540557
0.540517
0.540469
0.540412
0.540347
0.540274
0.540193
0.540102
0.540002
0.539894
0.539775
0.539648
0.53951
0.539362
0.539204
0.539036
0.538857
0.538668
0.538467
0.538255
0.538032
0.537797
0.53755
0.537291
0.53702
0.536736
0.53644
0.53613
0.535808
0.535472
0.535123
0.53476
0.534383
0.533992
0.533587
0.533167
0.532732
0.532282
0.531818
0.531337
0.530841
0.53033
0.529802
0.529259
0.528698
0.528122
0.527529
0.526919
0.526291
0.525647
0.524985
0.524306
0.523609
0.522894
0.522161
0.52141
0.520641
0.519853
0.519047
0.518222
0.517378
0.516516
0.515634
0.514734
0.513814
0.512875
0.511917
0.510939
0.509942
0.508926
0.50789
0.506835
0.50576
0.504666
0.503552
0.502419
0.501266
0.500093
0.498902
0.497691
0.496461
0.495211
0.493943
0.492655
0.491349
0.490024
0.48868
0.487318
0.485937
0.484539
0.483122
0.481688
0.480236
0.478767
0.477281
0.475777
0.474258
0.472722
0.47117
0.469602
0.468019
0.466421
0.464808
0.463181
0.46154
0.459885
0.458217
0.456535
0.454657
0.452591
0.450537
0.448493
0.44646
0.44444
0.442432
0.440438
0.438457
0.436491
0.43454
0.432603
0.430683
0.428779
0.426891
0.425019
0.423165
0.421329
0.41951
0.41771
0.415928
0.414164
0.41242
0.410694
0.408988
0.407301
0.405634
0.403987
0.402359
0.400753
0.399166
0.3976
0.396054
0.39453
0.393026
0.391543
0.390082
0.388642
0.387223
0.385826
0.38445
0.383096
0.381764
0.380454
0.379166
0.377899
0.376656
0.375434
0.374235
0.373059
0.371905
0.370774
0.369665
0.36858
0.367517
0.366478
0.365462
0.364469
0.3635
0.362554
0.361632
0.360734
0.35986
0.359009
0.358183
0.35738
0.356602
0.355849
0.35512
0.354415
0.353735
0.35308
0.35245
0.351845
0.351265
0.35071
0.35018
0.349676
0.349197
0.348744
0.348316
0.347914
0.347538
0.347187
0.346863
0.346564
0.346291
0.346044
0.345824
0.34563
0.345461
0.34532
0.345203
0.345123
0.345024
)
;
    }
    bottomWall
    {
        type            calculated;
        value           nonuniform List<scalar> 
449
(
0.139758
0.0891426
0.0759724
0.0695983
0.0654258
0.0623237
0.0598679
0.057859
0.0561771
0.0547429
0.0535016
0.0524146
0.0514535
0.0505964
0.0498263
0.04913
0.0484967
0.047918
0.0473866
0.0468969
0.0464438
0.0460232
0.0456316
0.0452661
0.0449239
0.044603
0.0443012
0.0440168
0.0437484
0.0434946
0.0432543
0.0430262
0.0428096
0.0426036
0.0424073
0.0422201
0.0420413
0.0418704
0.041707
0.0415504
0.0414002
0.0412562
0.0411178
0.0409848
0.0408569
0.0407337
0.040615
0.0405007
0.0403903
0.0402838
0.0401809
0.0400814
0.0399853
0.0398922
0.0398021
0.0397149
0.0396303
0.0395484
0.0394689
0.0393917
0.0393168
0.039244
0.0391734
0.0391046
0.0390378
0.0389728
0.0389096
0.038848
0.0387881
0.0387297
0.0386728
0.0386173
0.0385632
0.0385105
0.0384591
0.0384088
0.0383598
0.038312
0.0382652
0.0382196
0.0381749
0.0381313
0.0380887
0.038047
0.0380062
0.0379663
0.0379273
0.0378891
0.0378517
0.0378151
0.0377792
0.0377441
0.0377097
0.037676
0.0376429
0.0376105
0.0375788
0.0375476
0.0375171
0.0374871
0.0374577
0.0374289
0.0374006
0.0373728
0.0373455
0.0373187
0.0372924
0.0372666
0.0372412
0.0372163
0.0371918
0.0371677
0.037144
0.0371208
0.0370979
0.0370755
0.0370534
0.0370316
0.0370103
0.0369892
0.0369685
0.0369482
0.0369282
0.0369084
0.036889
0.0368699
0.0368511
0.0368326
0.0368144
0.0367965
0.0367788
0.0367614
0.0367442
0.0367273
0.0367107
0.0366943
0.0366781
0.0366622
0.0366465
0.036631
0.0366157
0.0366007
0.0365859
0.0365712
0.0365568
0.0365426
0.0365286
0.0365147
0.0365011
0.0364876
0.0364743
0.0364612
0.0364483
0.0364355
0.0364229
0.0364105
0.0363982
0.0363861
0.0363742
0.0363624
0.0363507
0.0363392
0.0363278
0.0363166
0.0363055
0.0362946
0.0362838
0.0362732
0.0362627
0.0362523
0.0362421
0.0362321
0.0362221
0.0362125
0.0362037
0.0361953
0.036187
0.0361788
0.0361705
0.0361623
0.0361539
0.0361456
0.0361371
0.0361287
0.0361202
0.0361116
0.036103
0.0360944
0.0360858
0.0360771
0.0360684
0.0360596
0.0360509
0.0360421
0.0360333
0.0360245
0.0360157
0.0360069
0.0359981
0.0359892
0.0359804
0.0359715
0.0359627
0.0359538
0.035945
0.0359361
0.0359273
0.0359185
0.0359096
0.0359008
0.035892
0.0358832
0.0358744
0.0358657
0.0358569
0.0358482
0.0358394
0.0358307
0.035822
0.0358134
0.0358047
0.0357961
0.0357875
0.0357789
0.0357704
0.0357618
0.0357533
0.0357449
0.0357364
0.035728
0.0357196
0.0357112
0.0357029
0.0356946
0.0356863
0.0356781
0.0356699
0.0356617
0.0356536
0.0356455
0.0356375
0.0356294
0.0356215
0.0356135
0.0356056
0.0355977
0.0355899
0.0355821
0.0355743
0.0355666
0.035559
0.0355513
0.0355437
0.0355362
0.0355287
0.0355212
0.0355138
0.0355064
0.0354991
0.0354918
0.0354845
0.0354773
0.0354702
0.0354631
0.035456
0.035449
0.035442
0.035435
0.0354282
0.0354213
0.0354145
0.0354078
0.0354011
0.0353944
0.0353878
0.0353812
0.0353747
0.0353683
0.0353618
0.0353555
0.0353491
0.0353428
0.0353366
0.0353304
0.0353243
0.0353182
0.0353121
0.0353061
0.0353002
0.0352943
0.0352884
0.0352826
0.0352769
0.0352712
0.0352655
0.0352599
0.0352543
0.0352488
0.0352433
0.0352378
0.0352325
0.0352271
0.0352218
0.0352166
0.0352114
0.0352062
0.0352011
0.035196
0.035191
0.035186
0.0351811
0.0351762
0.0351714
0.0351666
0.0351618
0.0351571
0.0351525
0.0351479
0.0351433
0.0351388
0.0351343
0.0351298
0.0351254
0.0351211
0.0351168
0.0351125
0.0351083
0.0351041
0.0350999
0.0350958
0.0350918
0.0350877
0.0350837
0.0350798
0.0350759
0.035072
0.0350682
0.0350644
0.0350607
0.035057
0.0350533
0.0350497
0.0350461
0.0350426
0.035039
0.0350356
0.0350321
0.0350287
0.0350254
0.035022
0.0350187
0.0350154
0.0350121
0.035009
0.0350048
0.0350001
0.0349956
0.0349914
0.0349875
0.0349838
0.0349803
0.0349769
0.0349738
0.0349707
0.0349678
0.034965
0.0349623
0.0349597
0.0349572
0.0349548
0.0349524
0.0349502
0.034948
0.0349458
0.0349438
0.0349418
0.0349398
0.0349379
0.0349361
0.0349343
0.0349326
0.0349309
0.0349293
0.0349277
0.0349262
0.0349246
0.0349232
0.0349217
0.0349203
0.034919
0.0349177
0.0349164
0.0349151
0.0349139
0.0349127
0.0349115
0.0349103
0.0349092
0.0349081
0.034907
0.034906
0.034905
0.034904
0.034903
0.034902
0.0349011
0.0349002
0.0348993
0.0348984
0.0348976
0.0348967
0.0348959
0.0348951
0.0348943
0.0348935
0.0348927
0.034892
0.0348913
0.0348906
0.0348899
0.0348892
0.0348885
0.0348878
0.0348872
0.0348865
0.0348859
0.0348853
0.0348847
0.0348841
0.0348835
0.034883
0.0348824
0.0348818
0.0348813
0.0348808
0.0348802
0.0348797
0.0348792
0.0348787
0.0348782
0.0348777
0.0348773
0.0348768
0.0348763
0.0348758
0.0348754
0.0348743
0.0348758
0.0348737
)
;
    }
    symmetry
    {
        type            symmetryPlane;
    }
    frontAndBack
    {
        type            empty;
    }
}


// ************************************************************************* //
