/*--------------------------------*- C++ -*----------------------------------*\
| =========                 |                                                 |
| \\      /  F ield         | OpenFOAM: The Open Source CFD Toolbox           |
|  \\    /   O peration     | Version:  v2012                                 |
|   \\  /    A nd           | Website:  www.openfoam.com                      |
|    \\/     M anipulation  |                                                 |
\*---------------------------------------------------------------------------*/
FoamFile
{
    version     2.0;
    format      ascii;
    class       volScalarField;
    location    "15";
    object      nut;
}
// * * * * * * * * * * * * * * * * * * * * * * * * * * * * * * * * * * * * * //

dimensions      [0 2 -1 0 0 0 0];


internalField   nonuniform List<scalar> 
209825
(
1.22462e-07
1.13982e-07
1.07516e-07
1.03096e-07
9.99404e-08
9.75902e-08
9.57515e-08
9.42922e-08
9.30863e-08
9.20971e-08
9.12482e-08
9.05378e-08
8.99128e-08
8.93788e-08
8.8902e-08
8.84949e-08
8.81219e-08
8.78027e-08
8.75034e-08
8.72478e-08
8.70042e-08
8.67952e-08
8.65944e-08
8.64263e-08
8.62597e-08
8.61198e-08
8.59802e-08
8.5868e-08
8.57503e-08
8.56513e-08
8.55593e-08
8.54826e-08
8.5404e-08
8.53385e-08
8.52656e-08
8.52051e-08
8.51501e-08
8.5102e-08
8.50509e-08
8.50108e-08
8.49626e-08
8.49238e-08
8.48873e-08
8.48545e-08
8.48207e-08
8.47902e-08
8.47645e-08
8.4735e-08
8.47085e-08
8.46882e-08
8.46609e-08
8.46265e-08
8.46149e-08
8.46038e-08
8.45698e-08
8.45652e-08
8.45465e-08
8.45232e-08
8.44898e-08
8.44977e-08
8.44977e-08
8.44974e-08
8.44925e-08
8.45161e-08
8.45205e-08
8.45205e-08
8.45303e-08
8.45402e-08
8.4592e-08
8.45941e-08
8.45852e-08
8.46138e-08
8.46537e-08
8.46845e-08
8.47307e-08
8.47768e-08
8.48056e-08
8.48453e-08
8.48697e-08
8.4925e-08
8.49685e-08
8.50397e-08
8.50974e-08
8.51849e-08
8.52296e-08
8.53401e-08
8.53884e-08
8.55396e-08
8.56084e-08
8.57789e-08
8.58785e-08
8.61507e-08
8.62354e-08
8.69914e-08
2.28409e-06
6.78092e-09
1.22463e-07
1.13983e-07
1.07518e-07
1.03097e-07
9.99415e-08
9.75909e-08
9.57519e-08
9.42924e-08
9.30863e-08
9.2097e-08
9.12479e-08
9.05373e-08
8.99121e-08
8.93781e-08
8.89011e-08
8.8494e-08
8.81208e-08
8.78016e-08
8.75022e-08
8.72465e-08
8.70029e-08
8.67939e-08
8.6593e-08
8.64249e-08
8.62582e-08
8.61183e-08
8.59787e-08
8.58663e-08
8.57487e-08
8.56497e-08
8.55576e-08
8.54809e-08
8.54022e-08
8.53367e-08
8.52638e-08
8.52033e-08
8.51482e-08
8.51002e-08
8.5049e-08
8.50089e-08
8.49607e-08
8.49219e-08
8.48854e-08
8.48525e-08
8.48187e-08
8.47882e-08
8.47625e-08
8.4733e-08
8.47065e-08
8.46862e-08
8.46589e-08
8.46245e-08
8.46128e-08
8.46017e-08
8.45678e-08
8.45632e-08
8.45444e-08
8.45212e-08
8.44878e-08
8.44956e-08
8.44956e-08
8.44953e-08
8.44904e-08
8.4514e-08
8.45184e-08
8.45184e-08
8.45282e-08
8.45381e-08
8.45899e-08
8.4592e-08
8.45831e-08
8.46117e-08
8.46516e-08
8.46823e-08
8.47286e-08
8.47747e-08
8.48035e-08
8.48432e-08
8.48676e-08
8.49229e-08
8.49664e-08
8.50376e-08
8.50953e-08
8.51828e-08
8.52275e-08
8.5338e-08
8.53862e-08
8.55375e-08
8.56063e-08
8.57768e-08
8.58764e-08
8.61486e-08
8.62332e-08
8.69904e-08
2.28621e-06
6.86564e-09
1.22466e-07
1.1399e-07
1.07525e-07
1.03102e-07
9.99454e-08
9.75936e-08
9.57536e-08
9.42931e-08
9.30862e-08
9.20961e-08
9.12464e-08
9.05353e-08
8.99096e-08
8.93752e-08
8.88978e-08
8.84903e-08
8.81168e-08
8.77973e-08
8.74976e-08
8.72417e-08
8.69979e-08
8.67886e-08
8.65876e-08
8.64193e-08
8.62525e-08
8.61124e-08
8.59727e-08
8.58602e-08
8.57424e-08
8.56433e-08
8.55511e-08
8.54743e-08
8.53955e-08
8.53299e-08
8.5257e-08
8.51964e-08
8.51413e-08
8.50931e-08
8.50419e-08
8.50017e-08
8.49534e-08
8.49146e-08
8.48781e-08
8.48452e-08
8.48113e-08
8.47808e-08
8.47551e-08
8.47255e-08
8.4699e-08
8.46786e-08
8.46513e-08
8.4617e-08
8.46052e-08
8.45941e-08
8.45602e-08
8.45555e-08
8.45368e-08
8.45135e-08
8.448e-08
8.44878e-08
8.44878e-08
8.44875e-08
8.44826e-08
8.45061e-08
8.45105e-08
8.45105e-08
8.45203e-08
8.45302e-08
8.45819e-08
8.45841e-08
8.45752e-08
8.46038e-08
8.46436e-08
8.46743e-08
8.47205e-08
8.47667e-08
8.47954e-08
8.48352e-08
8.48596e-08
8.49149e-08
8.49583e-08
8.50295e-08
8.50872e-08
8.51747e-08
8.52193e-08
8.53298e-08
8.53781e-08
8.55293e-08
8.55981e-08
8.57685e-08
8.58681e-08
8.61403e-08
8.62246e-08
8.69845e-08
2.29261e-06
7.00419e-09
1.22471e-07
1.14001e-07
1.07536e-07
1.03111e-07
9.99521e-08
9.75982e-08
9.57564e-08
9.42943e-08
9.30861e-08
9.20948e-08
9.12441e-08
9.0532e-08
8.99055e-08
8.93704e-08
8.88923e-08
8.84842e-08
8.81102e-08
8.77902e-08
8.74901e-08
8.72338e-08
8.69896e-08
8.678e-08
8.65787e-08
8.64101e-08
8.6243e-08
8.61027e-08
8.59627e-08
8.585e-08
8.57321e-08
8.56328e-08
8.55404e-08
8.54634e-08
8.53845e-08
8.53188e-08
8.52457e-08
8.5185e-08
8.51297e-08
8.50815e-08
8.50302e-08
8.49899e-08
8.49415e-08
8.49026e-08
8.4866e-08
8.4833e-08
8.47991e-08
8.47685e-08
8.47427e-08
8.47131e-08
8.46865e-08
8.46662e-08
8.46388e-08
8.46044e-08
8.45926e-08
8.45815e-08
8.45475e-08
8.45428e-08
8.45241e-08
8.45007e-08
8.44672e-08
8.44749e-08
8.44749e-08
8.44746e-08
8.44696e-08
8.44931e-08
8.44974e-08
8.44974e-08
8.45072e-08
8.4517e-08
8.45687e-08
8.4571e-08
8.45622e-08
8.45906e-08
8.46303e-08
8.4661e-08
8.47072e-08
8.47533e-08
8.47821e-08
8.48219e-08
8.48463e-08
8.49015e-08
8.49449e-08
8.5016e-08
8.50736e-08
8.51612e-08
8.52058e-08
8.53163e-08
8.53645e-08
8.55156e-08
8.55844e-08
8.57547e-08
8.58542e-08
8.61264e-08
8.62102e-08
8.69743e-08
2.30306e-06
7.18408e-09
1.22479e-07
1.14018e-07
1.07552e-07
1.03124e-07
9.99616e-08
9.76048e-08
9.57604e-08
9.42962e-08
9.3086e-08
9.2093e-08
9.12408e-08
9.05275e-08
8.98999e-08
8.93637e-08
8.88847e-08
8.84758e-08
8.8101e-08
8.77803e-08
8.74796e-08
8.72228e-08
8.6978e-08
8.6768e-08
8.65662e-08
8.63972e-08
8.62297e-08
8.60891e-08
8.59488e-08
8.58358e-08
8.57176e-08
8.5618e-08
8.55254e-08
8.54481e-08
8.5369e-08
8.53031e-08
8.52298e-08
8.5169e-08
8.51135e-08
8.50651e-08
8.50137e-08
8.49733e-08
8.49248e-08
8.48858e-08
8.48491e-08
8.4816e-08
8.47819e-08
8.47513e-08
8.47254e-08
8.46958e-08
8.46691e-08
8.46487e-08
8.46213e-08
8.45868e-08
8.45749e-08
8.45638e-08
8.45298e-08
8.4525e-08
8.45063e-08
8.44829e-08
8.44492e-08
8.44567e-08
8.44567e-08
8.44565e-08
8.44513e-08
8.44748e-08
8.4479e-08
8.4479e-08
8.44889e-08
8.44986e-08
8.45501e-08
8.45527e-08
8.45438e-08
8.4572e-08
8.46117e-08
8.46424e-08
8.46884e-08
8.47346e-08
8.47634e-08
8.48032e-08
8.48275e-08
8.48827e-08
8.4926e-08
8.49971e-08
8.50547e-08
8.51422e-08
8.51868e-08
8.52973e-08
8.53455e-08
8.54963e-08
8.55653e-08
8.57353e-08
8.58347e-08
8.61068e-08
8.61901e-08
8.69598e-08
2.31766e-06
7.40207e-09
1.22489e-07
1.14039e-07
1.07572e-07
1.03141e-07
9.9974e-08
9.76135e-08
9.57657e-08
9.42986e-08
9.3086e-08
9.20909e-08
9.12367e-08
9.05217e-08
8.98926e-08
8.93551e-08
8.88749e-08
8.84649e-08
8.80892e-08
8.77676e-08
8.74661e-08
8.72085e-08
8.69631e-08
8.67525e-08
8.65501e-08
8.63806e-08
8.62126e-08
8.60716e-08
8.59308e-08
8.58175e-08
8.56989e-08
8.5599e-08
8.5506e-08
8.54285e-08
8.53491e-08
8.52829e-08
8.52094e-08
8.51483e-08
8.50926e-08
8.50441e-08
8.49924e-08
8.49518e-08
8.49032e-08
8.4864e-08
8.48272e-08
8.4794e-08
8.47598e-08
8.4729e-08
8.47031e-08
8.46734e-08
8.46466e-08
8.46261e-08
8.45987e-08
8.4564e-08
8.45521e-08
8.45409e-08
8.45069e-08
8.45021e-08
8.44832e-08
8.44598e-08
8.44259e-08
8.44333e-08
8.44333e-08
8.4433e-08
8.44278e-08
8.44511e-08
8.44552e-08
8.44552e-08
8.44652e-08
8.44748e-08
8.45261e-08
8.45289e-08
8.45201e-08
8.45481e-08
8.45876e-08
8.46183e-08
8.46642e-08
8.47104e-08
8.47392e-08
8.4779e-08
8.48034e-08
8.48585e-08
8.49017e-08
8.49727e-08
8.50301e-08
8.51178e-08
8.51623e-08
8.52727e-08
8.53208e-08
8.54714e-08
8.55404e-08
8.57102e-08
8.58095e-08
8.60815e-08
8.6164e-08
8.6941e-08
2.33651e-06
7.658e-09
1.22501e-07
1.14065e-07
1.07598e-07
1.03161e-07
9.99894e-08
9.76242e-08
9.57724e-08
9.43018e-08
9.30861e-08
9.20883e-08
9.12318e-08
9.05147e-08
8.98837e-08
8.93446e-08
8.88629e-08
8.84516e-08
8.80747e-08
8.7752e-08
8.74495e-08
8.7191e-08
8.69448e-08
8.67334e-08
8.65303e-08
8.63602e-08
8.61916e-08
8.605e-08
8.59087e-08
8.57949e-08
8.56759e-08
8.55756e-08
8.54821e-08
8.54043e-08
8.53245e-08
8.52581e-08
8.51843e-08
8.51229e-08
8.50669e-08
8.50181e-08
8.49662e-08
8.49254e-08
8.48766e-08
8.48373e-08
8.48003e-08
8.47669e-08
8.47325e-08
8.47017e-08
8.46756e-08
8.46458e-08
8.46188e-08
8.45983e-08
8.45708e-08
8.45361e-08
8.45239e-08
8.45128e-08
8.44787e-08
8.44738e-08
8.44549e-08
8.44313e-08
8.43973e-08
8.44044e-08
8.44044e-08
8.44042e-08
8.43988e-08
8.44219e-08
8.4426e-08
8.4426e-08
8.4436e-08
8.44454e-08
8.44966e-08
8.44997e-08
8.44908e-08
8.45186e-08
8.4558e-08
8.45886e-08
8.46343e-08
8.46805e-08
8.47094e-08
8.47493e-08
8.47736e-08
8.48286e-08
8.48717e-08
8.49427e-08
8.49999e-08
8.50876e-08
8.51321e-08
8.52424e-08
8.52905e-08
8.54408e-08
8.55099e-08
8.56793e-08
8.57784e-08
8.60503e-08
8.61319e-08
8.69179e-08
2.35969e-06
7.95364e-09
1.22515e-07
1.14096e-07
1.07628e-07
1.03186e-07
1.00008e-07
9.76372e-08
9.57805e-08
9.43057e-08
9.30863e-08
9.20853e-08
9.1226e-08
9.05064e-08
8.98732e-08
8.93321e-08
8.88487e-08
8.84358e-08
8.80574e-08
8.77335e-08
8.74298e-08
8.71703e-08
8.6923e-08
8.67108e-08
8.65068e-08
8.63359e-08
8.61666e-08
8.60244e-08
8.58825e-08
8.57681e-08
8.56485e-08
8.55477e-08
8.54538e-08
8.53755e-08
8.52953e-08
8.52285e-08
8.51543e-08
8.50926e-08
8.50363e-08
8.49872e-08
8.4935e-08
8.4894e-08
8.48449e-08
8.48054e-08
8.47682e-08
8.47347e-08
8.47e-08
8.46691e-08
8.46428e-08
8.46129e-08
8.45858e-08
8.45652e-08
8.45376e-08
8.45027e-08
8.44904e-08
8.44793e-08
8.44452e-08
8.44401e-08
8.44211e-08
8.43974e-08
8.43631e-08
8.437e-08
8.43701e-08
8.43698e-08
8.43642e-08
8.43872e-08
8.43911e-08
8.43911e-08
8.44012e-08
8.44105e-08
8.44614e-08
8.44649e-08
8.4456e-08
8.44834e-08
8.45227e-08
8.45532e-08
8.45987e-08
8.4645e-08
8.46738e-08
8.47138e-08
8.47381e-08
8.4793e-08
8.4836e-08
8.49068e-08
8.49639e-08
8.50516e-08
8.5096e-08
8.52063e-08
8.52543e-08
8.54042e-08
8.54734e-08
8.56425e-08
8.57413e-08
8.60131e-08
8.60936e-08
8.68902e-08
2.38726e-06
8.29232e-09
1.22532e-07
1.14132e-07
1.07663e-07
1.03215e-07
1.0003e-07
9.76524e-08
9.57901e-08
9.43104e-08
9.30867e-08
9.2082e-08
9.12194e-08
9.04969e-08
8.98611e-08
8.93178e-08
8.88322e-08
8.84175e-08
8.80374e-08
8.7712e-08
8.74069e-08
8.71461e-08
8.68977e-08
8.66844e-08
8.64795e-08
8.63077e-08
8.61376e-08
8.59946e-08
8.58519e-08
8.57368e-08
8.56166e-08
8.55153e-08
8.54207e-08
8.53419e-08
8.52613e-08
8.5194e-08
8.51195e-08
8.50574e-08
8.50006e-08
8.49513e-08
8.48987e-08
8.48574e-08
8.4808e-08
8.47683e-08
8.47308e-08
8.46971e-08
8.46622e-08
8.46311e-08
8.46047e-08
8.45747e-08
8.45473e-08
8.45266e-08
8.44989e-08
8.44639e-08
8.44514e-08
8.44402e-08
8.44061e-08
8.44008e-08
8.43818e-08
8.43579e-08
8.43234e-08
8.433e-08
8.433e-08
8.43297e-08
8.43239e-08
8.43468e-08
8.43504e-08
8.43504e-08
8.43606e-08
8.43697e-08
8.44203e-08
8.44243e-08
8.44154e-08
8.44425e-08
8.44815e-08
8.4512e-08
8.45572e-08
8.46035e-08
8.46324e-08
8.46725e-08
8.46967e-08
8.47515e-08
8.47943e-08
8.48651e-08
8.49219e-08
8.50097e-08
8.5054e-08
8.51642e-08
8.52122e-08
8.53616e-08
8.54309e-08
8.55995e-08
8.56981e-08
8.59697e-08
8.60489e-08
8.68581e-08
2.41926e-06
8.67869e-09
1.2255e-07
1.14174e-07
1.07704e-07
1.03248e-07
1.00054e-07
9.76699e-08
9.58011e-08
9.43158e-08
9.30872e-08
9.20782e-08
9.12119e-08
9.04861e-08
8.98474e-08
8.93014e-08
8.88135e-08
8.83966e-08
8.80146e-08
8.76875e-08
8.73808e-08
8.71186e-08
8.68688e-08
8.66543e-08
8.64482e-08
8.62755e-08
8.61044e-08
8.59605e-08
8.5817e-08
8.57011e-08
8.55802e-08
8.54782e-08
8.5383e-08
8.53036e-08
8.52224e-08
8.51546e-08
8.50796e-08
8.50171e-08
8.49599e-08
8.49101e-08
8.48572e-08
8.48156e-08
8.47659e-08
8.47258e-08
8.46881e-08
8.46541e-08
8.4619e-08
8.45877e-08
8.4561e-08
8.45309e-08
8.45033e-08
8.44825e-08
8.44546e-08
8.44194e-08
8.44067e-08
8.43955e-08
8.43613e-08
8.43559e-08
8.43368e-08
8.43128e-08
8.42779e-08
8.42842e-08
8.42842e-08
8.42839e-08
8.42778e-08
8.43005e-08
8.43039e-08
8.43039e-08
8.43142e-08
8.43231e-08
8.43734e-08
8.43778e-08
8.4369e-08
8.43956e-08
8.44344e-08
8.44648e-08
8.45098e-08
8.45561e-08
8.4585e-08
8.46252e-08
8.46493e-08
8.4704e-08
8.47466e-08
8.48173e-08
8.48739e-08
8.49617e-08
8.50059e-08
8.5116e-08
8.51639e-08
8.53128e-08
8.53822e-08
8.55504e-08
8.56487e-08
8.59201e-08
8.59978e-08
8.68212e-08
2.45569e-06
9.11869e-09
1.22571e-07
1.1422e-07
1.0775e-07
1.03285e-07
1.00083e-07
9.76899e-08
9.58138e-08
9.43222e-08
9.3088e-08
9.20742e-08
9.12036e-08
9.0474e-08
8.9832e-08
8.9283e-08
8.87924e-08
8.83732e-08
8.7989e-08
8.76599e-08
8.73514e-08
8.70876e-08
8.68363e-08
8.66205e-08
8.64131e-08
8.62391e-08
8.60669e-08
8.59221e-08
8.57776e-08
8.56609e-08
8.55392e-08
8.54364e-08
8.53404e-08
8.52604e-08
8.51785e-08
8.51102e-08
8.50347e-08
8.49717e-08
8.49139e-08
8.48637e-08
8.48103e-08
8.47683e-08
8.47183e-08
8.46779e-08
8.46399e-08
8.46056e-08
8.45701e-08
8.45387e-08
8.45118e-08
8.44815e-08
8.44536e-08
8.44327e-08
8.44047e-08
8.43692e-08
8.43563e-08
8.43451e-08
8.43108e-08
8.43052e-08
8.4286e-08
8.42618e-08
8.42266e-08
8.42324e-08
8.42324e-08
8.42322e-08
8.42258e-08
8.42482e-08
8.42514e-08
8.42514e-08
8.42619e-08
8.42705e-08
8.43204e-08
8.43253e-08
8.43166e-08
8.43427e-08
8.43813e-08
8.44115e-08
8.44562e-08
8.45026e-08
8.45315e-08
8.45717e-08
8.45958e-08
8.46503e-08
8.46928e-08
8.47633e-08
8.48196e-08
8.49075e-08
8.49516e-08
8.50616e-08
8.51094e-08
8.52577e-08
8.53273e-08
8.54948e-08
8.55928e-08
8.5864e-08
8.59401e-08
8.67796e-08
2.49652e-06
9.61958e-09
1.22594e-07
1.14272e-07
1.07801e-07
1.03327e-07
1.00114e-07
9.77124e-08
9.58281e-08
9.43294e-08
9.30891e-08
9.20699e-08
9.11945e-08
9.04607e-08
8.9815e-08
8.92627e-08
8.87691e-08
8.83472e-08
8.79605e-08
8.76292e-08
8.73187e-08
8.7053e-08
8.68001e-08
8.65827e-08
8.63739e-08
8.61986e-08
8.60252e-08
8.58792e-08
8.57337e-08
8.5616e-08
8.54934e-08
8.53898e-08
8.52929e-08
8.52122e-08
8.51295e-08
8.50607e-08
8.49846e-08
8.4921e-08
8.48626e-08
8.48119e-08
8.4758e-08
8.47156e-08
8.46652e-08
8.46245e-08
8.45861e-08
8.45515e-08
8.45156e-08
8.44839e-08
8.44568e-08
8.44263e-08
8.43981e-08
8.43771e-08
8.43489e-08
8.43132e-08
8.43e-08
8.42887e-08
8.42544e-08
8.42486e-08
8.42293e-08
8.42049e-08
8.41693e-08
8.41747e-08
8.41747e-08
8.41745e-08
8.41678e-08
8.41899e-08
8.41928e-08
8.41928e-08
8.42034e-08
8.42118e-08
8.42612e-08
8.42667e-08
8.4258e-08
8.42836e-08
8.43219e-08
8.4352e-08
8.43964e-08
8.44428e-08
8.44717e-08
8.4512e-08
8.45361e-08
8.45904e-08
8.46326e-08
8.4703e-08
8.4759e-08
8.4847e-08
8.48909e-08
8.50008e-08
8.50485e-08
8.51962e-08
8.52658e-08
8.54328e-08
8.55304e-08
8.58013e-08
8.58756e-08
8.67331e-08
2.54166e-06
1.01899e-08
1.22619e-07
1.14328e-07
1.07857e-07
1.03374e-07
1.0015e-07
9.77375e-08
9.58442e-08
9.43377e-08
9.30905e-08
9.20653e-08
9.11847e-08
9.04462e-08
8.97963e-08
8.92404e-08
8.87434e-08
8.83185e-08
8.79291e-08
8.75953e-08
8.72826e-08
8.70149e-08
8.67601e-08
8.65411e-08
8.63306e-08
8.61539e-08
8.59791e-08
8.58319e-08
8.56852e-08
8.55664e-08
8.54428e-08
8.53383e-08
8.52405e-08
8.51589e-08
8.50754e-08
8.50059e-08
8.49291e-08
8.48649e-08
8.48059e-08
8.47547e-08
8.47002e-08
8.46574e-08
8.46065e-08
8.45654e-08
8.45265e-08
8.44917e-08
8.44553e-08
8.44234e-08
8.43959e-08
8.43653e-08
8.43367e-08
8.43155e-08
8.42872e-08
8.42513e-08
8.42378e-08
8.42264e-08
8.4192e-08
8.41859e-08
8.41665e-08
8.41419e-08
8.41059e-08
8.41108e-08
8.41108e-08
8.41106e-08
8.41035e-08
8.41253e-08
8.41279e-08
8.41279e-08
8.41386e-08
8.41468e-08
8.41956e-08
8.42018e-08
8.41932e-08
8.42183e-08
8.42561e-08
8.42862e-08
8.43302e-08
8.43766e-08
8.44055e-08
8.4446e-08
8.44699e-08
8.45241e-08
8.45661e-08
8.46362e-08
8.46919e-08
8.47799e-08
8.48237e-08
8.49334e-08
8.49811e-08
8.5128e-08
8.51978e-08
8.53641e-08
8.54613e-08
8.5732e-08
8.58042e-08
8.66816e-08
2.59097e-06
1.08394e-08
1.22646e-07
1.1439e-07
1.07919e-07
1.03425e-07
1.00189e-07
9.77653e-08
9.58622e-08
9.43471e-08
9.30924e-08
9.20606e-08
9.11741e-08
9.04305e-08
8.9776e-08
8.9216e-08
8.87154e-08
8.82872e-08
8.78948e-08
8.75584e-08
8.72431e-08
8.69732e-08
8.67164e-08
8.64955e-08
8.62832e-08
8.61049e-08
8.59286e-08
8.57801e-08
8.5632e-08
8.55121e-08
8.53874e-08
8.52818e-08
8.51829e-08
8.51004e-08
8.50161e-08
8.49458e-08
8.48683e-08
8.48034e-08
8.47436e-08
8.46919e-08
8.46368e-08
8.45934e-08
8.45421e-08
8.45005e-08
8.44612e-08
8.44259e-08
8.43891e-08
8.4357e-08
8.43292e-08
8.42983e-08
8.42694e-08
8.4248e-08
8.42194e-08
8.41833e-08
8.41694e-08
8.4158e-08
8.41235e-08
8.41171e-08
8.40976e-08
8.40727e-08
8.40363e-08
8.40406e-08
8.40406e-08
8.40404e-08
8.40329e-08
8.40545e-08
8.40567e-08
8.40566e-08
8.40675e-08
8.40754e-08
8.41237e-08
8.41305e-08
8.41219e-08
8.41465e-08
8.4184e-08
8.42138e-08
8.42574e-08
8.43038e-08
8.43328e-08
8.43734e-08
8.43972e-08
8.44512e-08
8.44929e-08
8.45629e-08
8.46182e-08
8.47063e-08
8.47498e-08
8.48594e-08
8.4907e-08
8.50531e-08
8.5123e-08
8.52887e-08
8.53854e-08
8.56557e-08
8.57258e-08
8.66249e-08
2.64425e-06
1.15794e-08
1.22676e-07
1.14458e-07
1.07987e-07
1.03481e-07
1.00231e-07
9.77959e-08
9.58821e-08
9.43576e-08
9.30946e-08
9.20557e-08
9.11628e-08
9.04137e-08
8.97542e-08
8.91897e-08
8.8685e-08
8.82532e-08
8.78576e-08
8.75182e-08
8.72002e-08
8.69279e-08
8.66688e-08
8.64458e-08
8.62317e-08
8.60516e-08
8.58737e-08
8.57236e-08
8.55741e-08
8.54529e-08
8.5327e-08
8.52202e-08
8.51202e-08
8.50368e-08
8.49515e-08
8.48803e-08
8.4802e-08
8.47364e-08
8.46758e-08
8.46234e-08
8.45676e-08
8.45237e-08
8.44718e-08
8.44297e-08
8.43899e-08
8.43543e-08
8.43169e-08
8.42845e-08
8.42563e-08
8.42252e-08
8.41959e-08
8.41743e-08
8.41455e-08
8.41091e-08
8.40949e-08
8.40833e-08
8.40487e-08
8.40421e-08
8.40224e-08
8.39973e-08
8.39604e-08
8.39642e-08
8.39641e-08
8.39639e-08
8.39559e-08
8.39772e-08
8.39791e-08
8.39788e-08
8.39899e-08
8.39975e-08
8.40452e-08
8.40527e-08
8.40442e-08
8.40681e-08
8.41052e-08
8.41349e-08
8.41781e-08
8.42245e-08
8.42535e-08
8.42941e-08
8.43179e-08
8.43716e-08
8.44131e-08
8.44828e-08
8.45377e-08
8.46258e-08
8.46692e-08
8.47786e-08
8.48261e-08
8.49714e-08
8.50414e-08
8.52063e-08
8.53025e-08
8.55725e-08
8.56402e-08
8.65628e-08
2.70125e-06
1.24227e-08
1.22707e-07
1.1453e-07
1.0806e-07
1.03541e-07
1.00278e-07
9.78295e-08
9.5904e-08
9.43694e-08
9.30975e-08
9.20507e-08
9.11509e-08
9.03957e-08
8.97307e-08
8.91615e-08
8.86523e-08
8.82167e-08
8.78174e-08
8.74748e-08
8.71539e-08
8.68789e-08
8.66173e-08
8.63922e-08
8.61759e-08
8.59939e-08
8.58142e-08
8.56625e-08
8.55114e-08
8.53888e-08
8.52615e-08
8.51536e-08
8.50523e-08
8.49678e-08
8.48814e-08
8.48094e-08
8.47302e-08
8.46637e-08
8.46022e-08
8.45492e-08
8.44927e-08
8.44481e-08
8.43956e-08
8.4353e-08
8.43127e-08
8.42766e-08
8.42386e-08
8.42059e-08
8.41773e-08
8.4146e-08
8.41162e-08
8.40944e-08
8.40654e-08
8.40286e-08
8.4014e-08
8.40023e-08
8.39676e-08
8.39607e-08
8.39408e-08
8.39154e-08
8.3878e-08
8.38812e-08
8.38811e-08
8.38809e-08
8.38724e-08
8.38933e-08
8.38948e-08
8.38944e-08
8.39057e-08
8.39129e-08
8.396e-08
8.39683e-08
8.39599e-08
8.39831e-08
8.40197e-08
8.40493e-08
8.40919e-08
8.41383e-08
8.41673e-08
8.42081e-08
8.42318e-08
8.42853e-08
8.43264e-08
8.43959e-08
8.44504e-08
8.45385e-08
8.45817e-08
8.46909e-08
8.47383e-08
8.48826e-08
8.49527e-08
8.51168e-08
8.52124e-08
8.54821e-08
8.55473e-08
8.64953e-08
2.7616e-06
1.33837e-08
1.2274e-07
1.14608e-07
1.08139e-07
1.03607e-07
1.00329e-07
9.78662e-08
9.59282e-08
9.43825e-08
9.3101e-08
9.20457e-08
9.11385e-08
9.03766e-08
8.97057e-08
8.91313e-08
8.86174e-08
8.81775e-08
8.77743e-08
8.74283e-08
8.71041e-08
8.68263e-08
8.6562e-08
8.63344e-08
8.61158e-08
8.59318e-08
8.57501e-08
8.55967e-08
8.54439e-08
8.53197e-08
8.5191e-08
8.50817e-08
8.49791e-08
8.48934e-08
8.48059e-08
8.47328e-08
8.46528e-08
8.45854e-08
8.45229e-08
8.44691e-08
8.44118e-08
8.43666e-08
8.43134e-08
8.42702e-08
8.42293e-08
8.41927e-08
8.41542e-08
8.41211e-08
8.40921e-08
8.40605e-08
8.40301e-08
8.40082e-08
8.39788e-08
8.39418e-08
8.39267e-08
8.39149e-08
8.388e-08
8.38727e-08
8.38527e-08
8.3827e-08
8.37892e-08
8.37915e-08
8.37915e-08
8.37913e-08
8.37822e-08
8.38027e-08
8.38039e-08
8.38033e-08
8.38148e-08
8.38217e-08
8.3868e-08
8.3877e-08
8.38688e-08
8.38913e-08
8.39274e-08
8.39568e-08
8.39989e-08
8.40453e-08
8.40743e-08
8.41152e-08
8.41388e-08
8.4192e-08
8.42328e-08
8.43021e-08
8.4356e-08
8.44442e-08
8.44872e-08
8.45961e-08
8.46434e-08
8.47867e-08
8.48569e-08
8.50202e-08
8.51152e-08
8.53845e-08
8.5447e-08
8.6422e-08
2.82488e-06
1.44786e-08
1.22775e-07
1.14691e-07
1.08224e-07
1.03679e-07
1.00384e-07
9.79061e-08
9.59546e-08
9.43971e-08
9.31052e-08
9.20408e-08
9.11255e-08
9.03565e-08
8.96793e-08
8.90992e-08
8.85801e-08
8.81356e-08
8.77283e-08
8.73785e-08
8.70509e-08
8.67699e-08
8.65027e-08
8.62726e-08
8.60515e-08
8.58653e-08
8.56814e-08
8.55261e-08
8.53715e-08
8.52456e-08
8.51154e-08
8.50047e-08
8.49005e-08
8.48136e-08
8.47248e-08
8.46507e-08
8.45696e-08
8.45012e-08
8.44378e-08
8.43831e-08
8.43249e-08
8.4279e-08
8.42252e-08
8.41813e-08
8.41397e-08
8.41026e-08
8.40634e-08
8.40299e-08
8.40005e-08
8.39685e-08
8.39377e-08
8.39154e-08
8.38858e-08
8.38484e-08
8.38328e-08
8.3821e-08
8.37859e-08
8.37783e-08
8.37579e-08
8.37321e-08
8.36937e-08
8.36952e-08
8.36952e-08
8.3695e-08
8.36853e-08
8.37054e-08
8.37061e-08
8.37053e-08
8.3717e-08
8.37236e-08
8.3769e-08
8.37789e-08
8.37708e-08
8.37926e-08
8.38282e-08
8.38573e-08
8.38989e-08
8.39452e-08
8.39742e-08
8.40152e-08
8.40387e-08
8.40917e-08
8.41321e-08
8.42011e-08
8.42545e-08
8.43427e-08
8.43855e-08
8.44941e-08
8.45413e-08
8.46836e-08
8.47538e-08
8.49162e-08
8.50105e-08
8.52794e-08
8.53391e-08
8.63427e-08
2.89058e-06
1.57257e-08
1.22811e-07
1.14779e-07
1.08315e-07
1.03755e-07
1.00443e-07
9.79494e-08
9.59834e-08
9.44134e-08
9.31102e-08
9.20361e-08
9.11121e-08
9.03354e-08
8.96514e-08
8.90652e-08
8.85406e-08
8.80912e-08
8.76793e-08
8.73255e-08
8.69942e-08
8.67099e-08
8.64395e-08
8.62066e-08
8.59828e-08
8.57942e-08
8.56081e-08
8.54508e-08
8.52941e-08
8.51664e-08
8.50346e-08
8.49223e-08
8.48166e-08
8.47282e-08
8.46381e-08
8.45629e-08
8.44807e-08
8.44113e-08
8.43467e-08
8.42912e-08
8.4232e-08
8.41853e-08
8.41307e-08
8.40862e-08
8.40438e-08
8.40061e-08
8.39662e-08
8.39324e-08
8.39024e-08
8.38702e-08
8.38387e-08
8.38162e-08
8.37863e-08
8.37485e-08
8.37323e-08
8.37204e-08
8.36851e-08
8.36771e-08
8.36565e-08
8.36304e-08
8.35914e-08
8.35921e-08
8.35921e-08
8.35919e-08
8.35815e-08
8.36012e-08
8.36014e-08
8.36003e-08
8.36123e-08
8.36185e-08
8.36631e-08
8.36738e-08
8.36658e-08
8.36868e-08
8.37219e-08
8.37508e-08
8.37918e-08
8.38381e-08
8.3867e-08
8.39081e-08
8.39315e-08
8.39842e-08
8.40242e-08
8.40929e-08
8.41458e-08
8.42339e-08
8.42765e-08
8.43848e-08
8.44319e-08
8.4573e-08
8.46433e-08
8.48048e-08
8.48984e-08
8.51668e-08
8.52234e-08
8.62573e-08
2.95805e-06
1.71449e-08
1.22849e-07
1.14873e-07
1.08412e-07
1.03837e-07
1.00507e-07
9.79962e-08
9.60149e-08
9.44313e-08
9.31162e-08
9.20317e-08
9.10984e-08
9.03135e-08
8.96221e-08
8.90295e-08
8.84989e-08
8.80442e-08
8.76275e-08
8.72693e-08
8.6934e-08
8.66461e-08
8.63724e-08
8.61365e-08
8.59098e-08
8.57186e-08
8.55301e-08
8.53706e-08
8.52118e-08
8.50822e-08
8.49485e-08
8.48345e-08
8.47271e-08
8.46373e-08
8.45457e-08
8.44693e-08
8.43859e-08
8.43154e-08
8.42496e-08
8.41931e-08
8.4133e-08
8.40855e-08
8.403e-08
8.39848e-08
8.39416e-08
8.39033e-08
8.38625e-08
8.38283e-08
8.37978e-08
8.37652e-08
8.37331e-08
8.37103e-08
8.368e-08
8.36419e-08
8.36251e-08
8.3613e-08
8.35775e-08
8.35691e-08
8.35483e-08
8.35218e-08
8.34824e-08
8.34821e-08
8.34821e-08
8.34819e-08
8.34707e-08
8.349e-08
8.34896e-08
8.34883e-08
8.35005e-08
8.35064e-08
8.355e-08
8.35615e-08
8.35537e-08
8.3574e-08
8.36084e-08
8.36371e-08
8.36774e-08
8.37236e-08
8.37525e-08
8.37937e-08
8.3817e-08
8.38694e-08
8.3909e-08
8.39774e-08
8.40296e-08
8.41178e-08
8.416e-08
8.42681e-08
8.4315e-08
8.44549e-08
8.45252e-08
8.46857e-08
8.47786e-08
8.50465e-08
8.51e-08
8.61655e-08
3.02658e-06
1.87587e-08
1.22889e-07
1.14972e-07
1.08515e-07
1.03925e-07
1.00576e-07
9.80466e-08
9.6049e-08
9.44511e-08
9.31233e-08
9.20276e-08
9.10844e-08
9.02908e-08
8.95916e-08
8.8992e-08
8.84551e-08
8.79947e-08
8.75728e-08
8.721e-08
8.68704e-08
8.65787e-08
8.63014e-08
8.60622e-08
8.58325e-08
8.56385e-08
8.54474e-08
8.52855e-08
8.51244e-08
8.49927e-08
8.48572e-08
8.47414e-08
8.46321e-08
8.45408e-08
8.44476e-08
8.43699e-08
8.42852e-08
8.42135e-08
8.41464e-08
8.4089e-08
8.40277e-08
8.39793e-08
8.3923e-08
8.38769e-08
8.38328e-08
8.37939e-08
8.37523e-08
8.37177e-08
8.36866e-08
8.36536e-08
8.36208e-08
8.35977e-08
8.3567e-08
8.35285e-08
8.35111e-08
8.34989e-08
8.34631e-08
8.34543e-08
8.34331e-08
8.34064e-08
8.33664e-08
8.33652e-08
8.33651e-08
8.33648e-08
8.33529e-08
8.33717e-08
8.33707e-08
8.33691e-08
8.33815e-08
8.33871e-08
8.34297e-08
8.3442e-08
8.34344e-08
8.34539e-08
8.34876e-08
8.35161e-08
8.35557e-08
8.36018e-08
8.36307e-08
8.36719e-08
8.36951e-08
8.37472e-08
8.37863e-08
8.38544e-08
8.3906e-08
8.39941e-08
8.40361e-08
8.41437e-08
8.41905e-08
8.43292e-08
8.43994e-08
8.4559e-08
8.4651e-08
8.49183e-08
8.49686e-08
8.6067e-08
3.09532e-06
2.05913e-08
1.22931e-07
1.15076e-07
1.08624e-07
1.04018e-07
1.00649e-07
9.8101e-08
9.60861e-08
9.44729e-08
9.31317e-08
9.20241e-08
9.10703e-08
9.02674e-08
8.95598e-08
8.89528e-08
8.84091e-08
8.79427e-08
8.75153e-08
8.71476e-08
8.68034e-08
8.65075e-08
8.62264e-08
8.59838e-08
8.57508e-08
8.55539e-08
8.536e-08
8.51956e-08
8.50321e-08
8.48981e-08
8.47605e-08
8.46429e-08
8.45316e-08
8.44386e-08
8.43438e-08
8.42646e-08
8.41786e-08
8.41056e-08
8.40372e-08
8.39786e-08
8.39162e-08
8.38669e-08
8.38096e-08
8.37627e-08
8.37176e-08
8.3678e-08
8.36355e-08
8.36004e-08
8.35687e-08
8.35353e-08
8.35017e-08
8.34783e-08
8.34472e-08
8.34083e-08
8.33902e-08
8.33778e-08
8.33417e-08
8.33325e-08
8.33109e-08
8.32839e-08
8.32434e-08
8.32411e-08
8.3241e-08
8.32407e-08
8.32279e-08
8.32462e-08
8.32446e-08
8.32426e-08
8.32553e-08
8.32605e-08
8.3302e-08
8.33152e-08
8.33078e-08
8.33265e-08
8.33595e-08
8.33876e-08
8.34265e-08
8.34725e-08
8.35013e-08
8.35427e-08
8.35657e-08
8.36174e-08
8.36561e-08
8.37238e-08
8.37748e-08
8.38627e-08
8.39045e-08
8.40117e-08
8.40584e-08
8.41957e-08
8.42659e-08
8.44244e-08
8.45155e-08
8.47822e-08
8.48292e-08
8.59614e-08
3.16332e-06
2.26687e-08
1.22973e-07
1.15186e-07
1.0874e-07
1.04117e-07
1.00728e-07
9.81593e-08
9.61262e-08
9.44969e-08
9.31414e-08
9.20212e-08
9.10563e-08
9.02434e-08
8.95269e-08
8.8912e-08
8.83612e-08
8.78884e-08
8.7455e-08
8.7082e-08
8.6733e-08
8.64328e-08
8.61476e-08
8.59013e-08
8.56648e-08
8.54647e-08
8.52678e-08
8.51008e-08
8.49346e-08
8.47984e-08
8.46585e-08
8.45389e-08
8.44256e-08
8.43307e-08
8.42342e-08
8.41535e-08
8.4066e-08
8.39917e-08
8.39217e-08
8.38621e-08
8.37984e-08
8.3748e-08
8.36898e-08
8.36419e-08
8.35958e-08
8.35554e-08
8.35121e-08
8.34763e-08
8.34441e-08
8.34101e-08
8.33758e-08
8.33519e-08
8.33205e-08
8.32811e-08
8.32623e-08
8.32497e-08
8.32133e-08
8.32036e-08
8.31817e-08
8.31544e-08
8.31133e-08
8.31098e-08
8.31097e-08
8.31095e-08
8.30957e-08
8.31134e-08
8.31112e-08
8.31087e-08
8.31217e-08
8.31265e-08
8.31669e-08
8.31809e-08
8.31738e-08
8.31916e-08
8.32239e-08
8.32517e-08
8.32898e-08
8.33357e-08
8.33644e-08
8.34058e-08
8.34287e-08
8.34801e-08
8.35183e-08
8.35856e-08
8.36358e-08
8.37236e-08
8.37651e-08
8.38718e-08
8.39184e-08
8.40543e-08
8.41244e-08
8.42818e-08
8.4372e-08
8.4638e-08
8.46815e-08
8.58485e-08
3.2295e-06
2.50182e-08
1.23017e-07
1.153e-07
1.08862e-07
1.04223e-07
1.00811e-07
9.82219e-08
9.61696e-08
9.45233e-08
9.31526e-08
9.20191e-08
9.10423e-08
9.02189e-08
8.9493e-08
8.88698e-08
8.83113e-08
8.78316e-08
8.7392e-08
8.70135e-08
8.66593e-08
8.63544e-08
8.60648e-08
8.58147e-08
8.55745e-08
8.5371e-08
8.51709e-08
8.50011e-08
8.48322e-08
8.46934e-08
8.45512e-08
8.44294e-08
8.43139e-08
8.42171e-08
8.41187e-08
8.40364e-08
8.39473e-08
8.38716e-08
8.38001e-08
8.37392e-08
8.36742e-08
8.36227e-08
8.35634e-08
8.35145e-08
8.34673e-08
8.34261e-08
8.33819e-08
8.33455e-08
8.33125e-08
8.32781e-08
8.32429e-08
8.32187e-08
8.31868e-08
8.31469e-08
8.31274e-08
8.31145e-08
8.30778e-08
8.30676e-08
8.30452e-08
8.30177e-08
8.2976e-08
8.29713e-08
8.29712e-08
8.29709e-08
8.29561e-08
8.29733e-08
8.29703e-08
8.29674e-08
8.29806e-08
8.29851e-08
8.30243e-08
8.30391e-08
8.30323e-08
8.30492e-08
8.30806e-08
8.31082e-08
8.31455e-08
8.31911e-08
8.32197e-08
8.32612e-08
8.3284e-08
8.33349e-08
8.33727e-08
8.34395e-08
8.3489e-08
8.35766e-08
8.36178e-08
8.3724e-08
8.37705e-08
8.39049e-08
8.39749e-08
8.41312e-08
8.42204e-08
8.44855e-08
8.45256e-08
8.57278e-08
3.29267e-06
2.76681e-08
1.23063e-07
1.1542e-07
1.0899e-07
1.04334e-07
1.009e-07
9.8289e-08
9.62165e-08
9.45523e-08
9.31656e-08
9.2018e-08
9.10286e-08
9.01941e-08
8.94582e-08
8.88261e-08
8.82595e-08
8.77727e-08
8.73264e-08
8.69419e-08
8.65822e-08
8.62724e-08
8.59782e-08
8.5724e-08
8.54798e-08
8.52728e-08
8.50694e-08
8.48965e-08
8.47246e-08
8.45832e-08
8.44385e-08
8.43144e-08
8.41965e-08
8.40978e-08
8.39973e-08
8.39133e-08
8.38226e-08
8.37453e-08
8.36722e-08
8.361e-08
8.35436e-08
8.34909e-08
8.34305e-08
8.33806e-08
8.33321e-08
8.32901e-08
8.32449e-08
8.32078e-08
8.31741e-08
8.31392e-08
8.31031e-08
8.30783e-08
8.3046e-08
8.30057e-08
8.29853e-08
8.29722e-08
8.29352e-08
8.29243e-08
8.29016e-08
8.28737e-08
8.28315e-08
8.28255e-08
8.28254e-08
8.28251e-08
8.28091e-08
8.28258e-08
8.2822e-08
8.28185e-08
8.28321e-08
8.28362e-08
8.28741e-08
8.28896e-08
8.28831e-08
8.28992e-08
8.29298e-08
8.29569e-08
8.29934e-08
8.30388e-08
8.30673e-08
8.31088e-08
8.31315e-08
8.3182e-08
8.32192e-08
8.32856e-08
8.33343e-08
8.34217e-08
8.34625e-08
8.35682e-08
8.36145e-08
8.37473e-08
8.38172e-08
8.39724e-08
8.40605e-08
8.43246e-08
8.43613e-08
8.55991e-08
3.35151e-06
3.06477e-08
1.23109e-07
1.15544e-07
1.09125e-07
1.04452e-07
1.00995e-07
9.83607e-08
9.6267e-08
9.45839e-08
9.31804e-08
9.2018e-08
9.10154e-08
9.01692e-08
8.94227e-08
8.87812e-08
8.8206e-08
8.77116e-08
8.72583e-08
8.68675e-08
8.6502e-08
8.61869e-08
8.58879e-08
8.56292e-08
8.53809e-08
8.51701e-08
8.49631e-08
8.4787e-08
8.46121e-08
8.44678e-08
8.43205e-08
8.4194e-08
8.40736e-08
8.39727e-08
8.38701e-08
8.37843e-08
8.36918e-08
8.36129e-08
8.35381e-08
8.34744e-08
8.34066e-08
8.33527e-08
8.3291e-08
8.324e-08
8.31903e-08
8.31473e-08
8.31011e-08
8.30632e-08
8.30287e-08
8.29932e-08
8.29561e-08