/*--------------------------------*- C++ -*----------------------------------*\
| =========                 |                                                 |
| \\      /  F ield         | OpenFOAM: The Open Source CFD Toolbox           |
|  \\    /   O peration     | Version:  v2012                                 |
|   \\  /    A nd           | Website:  www.openfoam.com                      |
|    \\/     M anipulation  |                                                 |
\*---------------------------------------------------------------------------*/
FoamFile
{
    version     2.0;
    format      ascii;
    class       volVectorField;
    location    "15";
    object      wallShearStress;
}
// * * * * * * * * * * * * * * * * * * * * * * * * * * * * * * * * * * * * * //

dimensions      [0 2 -2 0 0 0 0];


internalField   uniform (0 0 0);

boundaryField
{
    inlet
    {
        type            calculated;
        value           uniform (0 0 0);
    }
    outlet
    {
        type            calculated;
        value           uniform (0 0 0);
    }
    topWall
    {
        type            calculated;
        value           nonuniform List<vector> 
545
(
(3.73774e-08 -2.62723e-08 0)
(3.74423e-08 -7.37365e-08 0)
(3.73358e-08 -1.22952e-07 0)
(3.72447e-08 -1.70656e-07 0)
(3.71698e-08 -2.16274e-07 0)
(3.70849e-08 -2.60397e-07 0)
(3.69906e-08 -3.03403e-07 0)
(3.68868e-08 -3.45275e-07 0)
(3.6774e-08 -3.85918e-07 0)
(3.66532e-08 -4.25328e-07 0)
(3.6525e-08 -4.63559e-07 0)
(3.63902e-08 -5.00653e-07 0)
(3.62495e-08 -5.36637e-07 0)
(3.61035e-08 -5.71534e-07 0)
(3.59529e-08 -6.05369e-07 0)
(3.57981e-08 -6.38172e-07 0)
(3.56398e-08 -6.6997e-07 0)
(3.54785e-08 -7.00791e-07 0)
(3.53145e-08 -7.30662e-07 0)
(3.51485e-08 -7.59609e-07 0)
(3.49807e-08 -7.8766e-07 0)
(3.48115e-08 -8.14839e-07 0)
(3.46413e-08 -8.41173e-07 0)
(3.44705e-08 -8.66686e-07 0)
(3.42993e-08 -8.91404e-07 0)
(3.41279e-08 -9.1535e-07 0)
(3.39567e-08 -9.38547e-07 0)
(3.37859e-08 -9.61019e-07 0)
(3.36156e-08 -9.82789e-07 0)
(3.34461e-08 -1.00388e-06 0)
(3.32776e-08 -1.02431e-06 0)
(3.31102e-08 -1.0441e-06 0)
(3.2944e-08 -1.06327e-06 0)
(3.27791e-08 -1.08184e-06 0)
(3.26158e-08 -1.09983e-06 0)
(3.2454e-08 -1.11726e-06 0)
(3.2294e-08 -1.13415e-06 0)
(3.21356e-08 -1.15051e-06 0)
(3.19791e-08 -1.16636e-06 0)
(3.18245e-08 -1.18172e-06 0)
(3.16718e-08 -1.1966e-06 0)
(3.15211e-08 -1.21102e-06 0)
(3.13724e-08 -1.22499e-06 0)
(3.12258e-08 -1.23853e-06 0)
(3.10812e-08 -1.25166e-06 0)
(3.09387e-08 -1.26437e-06 0)
(3.07982e-08 -1.2767e-06 0)
(3.06599e-08 -1.28864e-06 0)
(3.05236e-08 -1.30022e-06 0)
(3.03894e-08 -1.31145e-06 0)
(3.02573e-08 -1.32233e-06 0)
(3.01272e-08 -1.33287e-06 0)
(2.99992e-08 -1.3431e-06 0)
(2.98732e-08 -1.35301e-06 0)
(2.97492e-08 -1.36262e-06 0)
(2.96271e-08 -1.37194e-06 0)
(2.95071e-08 -1.38098e-06 0)
(2.93889e-08 -1.38974e-06 0)
(2.92726e-08 -1.39824e-06 0)
(2.91582e-08 -1.40648e-06 0)
(2.90457e-08 -1.41448e-06 0)
(2.89349e-08 -1.42223e-06 0)
(2.88258e-08 -1.42975e-06 0)
(2.87185e-08 -1.43704e-06 0)
(2.86128e-08 -1.44412e-06 0)
(2.85088e-08 -1.45098e-06 0)
(2.84063e-08 -1.45764e-06 0)
(2.83054e-08 -1.4641e-06 0)
(2.82061e-08 -1.47037e-06 0)
(2.81078e-08 -1.47644e-06 0)
(2.80133e-08 -1.48236e-06 0)
(2.79087e-08 -1.48806e-06 0)
(2.7812e-08 -1.49352e-06 0)
(2.77354e-08 -1.49889e-06 0)
(2.76571e-08 -1.50414e-06 0)
(2.75789e-08 -1.50933e-06 0)
(2.75008e-08 -1.51452e-06 0)
(2.74229e-08 -1.51968e-06 0)
(2.73451e-08 -1.5248e-06 0)
(2.72675e-08 -1.52987e-06 0)
(2.71899e-08 -1.53491e-06 0)
(2.71125e-08 -1.53991e-06 0)
(2.70352e-08 -1.54487e-06 0)
(2.6958e-08 -1.54979e-06 0)
(2.6881e-08 -1.55468e-06 0)
(2.68041e-08 -1.55954e-06 0)
(2.67273e-08 -1.56435e-06 0)
(2.66507e-08 -1.56913e-06 0)
(2.65742e-08 -1.57388e-06 0)
(2.64979e-08 -1.57859e-06 0)
(2.64218e-08 -1.58326e-06 0)
(2.63455e-08 -1.5879e-06 0)
(2.62704e-08 -1.59253e-06 0)
(2.61912e-08 -1.59701e-06 0)
(2.6132e-08 -1.60175e-06 0)
(2.59785e-08 -1.6061e-06 0)
(2.58144e-08 -1.60988e-06 0)
(2.57572e-08 -1.6139e-06 0)
(2.56982e-08 -1.61754e-06 0)
(2.56399e-08 -1.62095e-06 0)
(2.55819e-08 -1.62455e-06 0)
(2.55239e-08 -1.6282e-06 0)
(2.54657e-08 -1.63183e-06 0)
(2.54073e-08 -1.63543e-06 0)
(2.53486e-08 -1.63904e-06 0)
(2.52897e-08 -1.64265e-06 0)
(2.52305e-08 -1.64626e-06 0)
(2.51711e-08 -1.64987e-06 0)
(2.51114e-08 -1.65348e-06 0)
(2.50515e-08 -1.65709e-06 0)
(2.49914e-08 -1.6607e-06 0)
(2.4931e-08 -1.66431e-06 0)
(2.48704e-08 -1.66792e-06 0)
(2.48095e-08 -1.67153e-06 0)
(2.47484e-08 -1.67514e-06 0)
(2.4687e-08 -1.67875e-06 0)
(2.46255e-08 -1.68236e-06 0)
(2.45636e-08 -1.68597e-06 0)
(2.45016e-08 -1.68958e-06 0)
(2.44392e-08 -1.69318e-06 0)
(2.43767e-08 -1.69679e-06 0)
(2.43139e-08 -1.7004e-06 0)
(2.42508e-08 -1.704e-06 0)
(2.41876e-08 -1.7076e-06 0)
(2.4124e-08 -1.71121e-06 0)
(2.40603e-08 -1.71481e-06 0)
(2.39963e-08 -1.71841e-06 0)
(2.3932e-08 -1.72201e-06 0)
(2.38675e-08 -1.72561e-06 0)
(2.38028e-08 -1.7292e-06 0)
(2.37378e-08 -1.7328e-06 0)
(2.36726e-08 -1.73639e-06 0)
(2.36072e-08 -1.73999e-06 0)
(2.35415e-08 -1.74358e-06 0)
(2.34755e-08 -1.74717e-06 0)
(2.34094e-08 -1.75075e-06 0)
(2.33429e-08 -1.75434e-06 0)
(2.32763e-08 -1.75793e-06 0)
(2.32094e-08 -1.76151e-06 0)
(2.31422e-08 -1.76509e-06 0)
(2.30748e-08 -1.76867e-06 0)
(2.30072e-08 -1.77224e-06 0)
(2.29393e-08 -1.77582e-06 0)
(2.28712e-08 -1.77939e-06 0)
(2.28029e-08 -1.78296e-06 0)
(2.27343e-08 -1.78653e-06 0)
(2.26655e-08 -1.7901e-06 0)
(2.25964e-08 -1.79366e-06 0)
(2.25271e-08 -1.79722e-06 0)
(2.24576e-08 -1.80078e-06 0)
(2.23878e-08 -1.80433e-06 0)
(2.23178e-08 -1.80788e-06 0)
(2.22475e-08 -1.81143e-06 0)
(2.2177e-08 -1.81498e-06 0)
(2.21063e-08 -1.81853e-06 0)
(2.20353e-08 -1.82207e-06 0)
(2.19641e-08 -1.8256e-06 0)
(2.18926e-08 -1.82914e-06 0)
(2.18209e-08 -1.83267e-06 0)
(2.1749e-08 -1.8362e-06 0)
(2.16769e-08 -1.83972e-06 0)
(2.16045e-08 -1.84324e-06 0)
(2.15318e-08 -1.84676e-06 0)
(2.14589e-08 -1.85028e-06 0)
(2.13858e-08 -1.85379e-06 0)
(2.13125e-08 -1.85729e-06 0)
(2.12389e-08 -1.8608e-06 0)
(2.11651e-08 -1.8643e-06 0)
(2.1091e-08 -1.86779e-06 0)
(2.10167e-08 -1.87128e-06 0)
(2.09422e-08 -1.87477e-06 0)
(2.08674e-08 -1.87825e-06 0)
(2.07924e-08 -1.88173e-06 0)
(2.07172e-08 -1.8852e-06 0)
(2.06417e-08 -1.88867e-06 0)
(2.0566e-08 -1.89214e-06 0)
(2.049e-08 -1.8956e-06 0)
(2.04139e-08 -1.89905e-06 0)
(2.03374e-08 -1.9025e-06 0)
(2.02608e-08 -1.90595e-06 0)
(2.01839e-08 -1.90939e-06 0)
(2.01068e-08 -1.91283e-06 0)
(2.00295e-08 -1.91626e-06 0)
(1.99519e-08 -1.91968e-06 0)
(1.98741e-08 -1.9231e-06 0)
(1.9796e-08 -1.92652e-06 0)
(1.97177e-08 -1.92993e-06 0)
(1.96392e-08 -1.93333e-06 0)
(1.95605e-08 -1.93673e-06 0)
(1.94815e-08 -1.94012e-06 0)
(1.94023e-08 -1.94351e-06 0)
(1.93229e-08 -1.94689e-06 0)
(1.92432e-08 -1.95027e-06 0)
(1.91634e-08 -1.95364e-06 0)
(1.90832e-08 -1.957e-06 0)
(1.90029e-08 -1.96035e-06 0)
(1.89223e-08 -1.96371e-06 0)
(1.88416e-08 -1.96705e-06 0)
(1.87605e-08 -1.97039e-06 0)
(1.86793e-08 -1.97372e-06 0)
(1.85978e-08 -1.97704e-06 0)
(1.85162e-08 -1.98036e-06 0)
(1.84343e-08 -1.98367e-06 0)
(1.83521e-08 -1.98697e-06 0)
(1.82698e-08 -1.99027e-06 0)
(1.81872e-08 -1.99356e-06 0)
(1.81044e-08 -1.99684e-06 0)
(1.80214e-08 -2.00012e-06 0)
(1.79382e-08 -2.00338e-06 0)
(1.78548e-08 -2.00664e-06 0)
(1.77711e-08 -2.0099e-06 0)
(1.76873e-08 -2.01314e-06 0)
(1.76032e-08 -2.01638e-06 0)
(1.75189e-08 -2.01961e-06 0)
(1.74344e-08 -2.02283e-06 0)
(1.73497e-08 -2.02604e-06 0)
(1.72648e-08 -2.02925e-06 0)
(1.71797e-08 -2.03245e-06 0)
(1.70944e-08 -2.03563e-06 0)
(1.70088e-08 -2.03881e-06 0)
(1.69231e-08 -2.04198e-06 0)
(1.68372e-08 -2.04515e-06 0)
(1.6751e-08 -2.0483e-06 0)
(1.66647e-08 -2.05145e-06 0)
(1.65781e-08 -2.05458e-06 0)
(1.64914e-08 -2.05771e-06 0)
(1.64045e-08 -2.06083e-06 0)
(1.63173e-08 -2.06394e-06 0)
(1.623e-08 -2.06704e-06 0)
(1.61425e-08 -2.07013e-06 0)
(1.60548e-08 -2.07321e-06 0)
(1.59669e-08 -2.07628e-06 0)
(1.58788e-08 -2.07934e-06 0)
(1.57906e-08 -2.0824e-06 0)
(1.57021e-08 -2.08544e-06 0)
(1.56135e-08 -2.08847e-06 0)
(1.55247e-08 -2.09149e-06 0)
(1.54357e-08 -2.0945e-06 0)
(1.53465e-08 -2.0975e-06 0)
(1.52572e-08 -2.1005e-06 0)
(1.51677e-08 -2.10348e-06 0)
(1.5078e-08 -2.10645e-06 0)
(1.49881e-08 -2.1094e-06 0)
(1.48981e-08 -2.11235e-06 0)
(1.48078e-08 -2.11529e-06 0)
(1.47175e-08 -2.11822e-06 0)
(1.46269e-08 -2.12113e-06 0)
(1.45362e-08 -2.12404e-06 0)
(1.44454e-08 -2.12693e-06 0)
(1.43543e-08 -2.12981e-06 0)
(1.42632e-08 -2.13268e-06 0)
(1.41718e-08 -2.13554e-06 0)
(1.40803e-08 -2.13839e-06 0)
(1.39887e-08 -2.14122e-06 0)
(1.38969e-08 -2.14404e-06 0)
(1.3805e-08 -2.14685e-06 0)
(1.37129e-08 -2.14965e-06 0)
(1.36206e-08 -2.15244e-06 0)
(1.35283e-08 -2.15521e-06 0)
(1.34358e-08 -2.15798e-06 0)
(1.33431e-08 -2.16073e-06 0)
(1.32503e-08 -2.16346e-06 0)
(1.31574e-08 -2.16619e-06 0)
(1.30644e-08 -2.1689e-06 0)
(1.2971e-08 -2.17159e-06 0)
(1.28782e-08 -2.1743e-06 0)
(1.2783e-08 -2.1769e-06 0)
(1.27005e-08 -2.17977e-06 0)
(1.25576e-08 -2.18221e-06 0)
(1.24063e-08 -2.18442e-06 0)
(1.23272e-08 -2.18717e-06 0)
(1.22506e-08 -2.18953e-06 0)
(1.21724e-08 -2.19169e-06 0)
(1.20941e-08 -2.19402e-06 0)
(1.20152e-08 -2.19641e-06 0)
(1.19354e-08 -2.1988e-06 0)
(1.18545e-08 -2.20118e-06 0)
(1.17727e-08 -2.20356e-06 0)
(1.16899e-08 -2.20596e-06 0)
(1.16061e-08 -2.20837e-06 0)
(1.15214e-08 -2.21079e-06 0)
(1.14357e-08 -2.21321e-06 0)
(1.13491e-08 -2.21564e-06 0)
(1.12615e-08 -2.21808e-06 0)
(1.11729e-08 -2.22053e-06 0)
(1.10834e-08 -2.22298e-06 0)
(1.09929e-08 -2.22544e-06 0)
(1.09014e-08 -2.22791e-06 0)
(1.08089e-08 -2.23038e-06 0)
(1.07155e-08 -2.23286e-06 0)
(1.0621e-08 -2.23534e-06 0)
(1.05256e-08 -2.23783e-06 0)
(1.04292e-08 -2.24032e-06 0)
(1.03318e-08 -2.24282e-06 0)
(1.02334e-08 -2.24532e-06 0)
(1.01341e-08 -2.24782e-06 0)
(1.00337e-08 -2.25032e-06 0)
(9.93231e-09 -2.25283e-06 0)
(9.82993e-09 -2.25533e-06 0)
(9.72655e-09 -2.25784e-06 0)
(9.62217e-09 -2.26035e-06 0)
(9.51678e-09 -2.26286e-06 0)
(9.41038e-09 -2.26536e-06 0)
(9.30298e-09 -2.26787e-06 0)
(9.19457e-09 -2.27037e-06 0)
(9.08515e-09 -2.27287e-06 0)
(8.97472e-09 -2.27537e-06 0)
(8.86329e-09 -2.27786e-06 0)
(8.75085e-09 -2.28035e-06 0)
(8.6374e-09 -2.28284e-06 0)
(8.52295e-09 -2.28531e-06 0)
(8.4075e-09 -2.28779e-06 0)
(8.29105e-09 -2.29025e-06 0)
(8.1736e-09 -2.2927e-06 0)
(8.05516e-09 -2.29515e-06 0)
(7.93572e-09 -2.29759e-06 0)
(7.8153e-09 -2.30001e-06 0)
(7.6939e-09 -2.30243e-06 0)
(7.57151e-09 -2.30483e-06 0)
(7.44815e-09 -2.30722e-06 0)
(7.32382e-09 -2.30959e-06 0)
(7.19853e-09 -2.31195e-06 0)
(7.07229e-09 -2.3143e-06 0)
(6.94509e-09 -2.31663e-06 0)
(6.81695e-09 -2.31894e-06 0)
(6.68788e-09 -2.32123e-06 0)
(6.55788e-09 -2.3235e-06 0)
(6.42696e-09 -2.32575e-06 0)
(6.29513e-09 -2.32798e-06 0)
(6.16241e-09 -2.33019e-06 0)
(6.0288e-09 -2.33237e-06 0)
(5.89431e-09 -2.33453e-06 0)
(5.75896e-09 -2.33666e-06 0)
(5.62276e-09 -2.33876e-06 0)
(5.48571e-09 -2.34084e-06 0)
(5.34784e-09 -2.34289e-06 0)
(5.20916e-09 -2.3449e-06 0)
(5.06969e-09 -2.34689e-06 0)
(4.92943e-09 -2.34884e-06 0)
(4.78841e-09 -2.35075e-06 0)
(4.64664e-09 -2.35263e-06 0)
(4.50414e-09 -2.35448e-06 0)
(4.36093e-09 -2.35628e-06 0)
(4.21704e-09 -2.35805e-06 0)
(4.07246e-09 -2.35977e-06 0)
(3.92725e-09 -2.36145e-06 0)
(3.7814e-09 -2.36309e-06 0)
(3.63494e-09 -2.36468e-06 0)
(3.4879e-09 -2.36623e-06 0)
(3.34031e-09 -2.36772e-06 0)
(3.19217e-09 -2.36917e-06 0)
(3.04354e-09 -2.37057e-06 0)
(2.89442e-09 -2.37191e-06 0)
(2.74484e-09 -2.3732e-06 0)
(2.59484e-09 -2.37443e-06 0)
(2.44445e-09 -2.37561e-06 0)
(2.29369e-09 -2.37673e-06 0)
(2.14259e-09 -2.37779e-06 0)
(1.9912e-09 -2.37878e-06 0)
(1.83953e-09 -2.37971e-06 0)
(1.68762e-09 -2.38058e-06 0)
(1.53552e-09 -2.38138e-06 0)
(1.38325e-09 -2.38211e-06 0)
(1.23084e-09 -2.38277e-06 0)
(1.07835e-09 -2.38336e-06 0)
(9.25804e-10 -2.38387e-06 0)
(7.73243e-10 -2.38431e-06 0)
(6.20707e-10 -2.38468e-06 0)
(4.68238e-10 -2.38496e-06 0)
(3.15878e-10 -2.38516e-06 0)
(1.63669e-10 -2.38528e-06 0)
(1.16552e-11 -2.38532e-06 0)
(-1.40119e-10 -2.38527e-06 0)
(-2.91609e-10 -2.38514e-06 0)
(-4.42768e-10 -2.38492e-06 0)
(-5.93549e-10 -2.3846e-06 0)
(-7.43904e-10 -2.38419e-06 0)
(-8.93786e-10 -2.3837e-06 0)
(-1.04314e-09 -2.3831e-06 0)
(-1.19193e-09 -2.38241e-06 0)
(-1.34009e-09 -2.38161e-06 0)
(-1.48758e-09 -2.38072e-06 0)
(-1.63434e-09 -2.37972e-06 0)
(-1.78033e-09 -2.37862e-06 0)
(-1.92548e-09 -2.37741e-06 0)
(-2.06975e-09 -2.3761e-06 0)
(-2.21308e-09 -2.37468e-06 0)
(-2.35543e-09 -2.37315e-06 0)
(-2.49672e-09 -2.3715e-06 0)
(-2.63692e-09 -2.36975e-06 0)
(-2.77595e-09 -2.36787e-06 0)
(-2.91379e-09 -2.36589e-06 0)
(-3.05035e-09 -2.36378e-06 0)
(-3.1856e-09 -2.36155e-06 0)
(-3.31946e-09 -2.3592e-06 0)
(-3.4519e-09 -2.35674e-06 0)
(-3.58285e-09 -2.35414e-06 0)
(-3.71226e-09 -2.35143e-06 0)
(-3.84006e-09 -2.34858e-06 0)
(-3.96622e-09 -2.34562e-06 0)
(-4.09066e-09 -2.34252e-06 0)
(-4.21334e-09 -2.33929e-06 0)
(-4.33419e-09 -2.33593e-06 0)
(-4.45318e-09 -2.33245e-06 0)
(-4.57021e-09 -2.32882e-06 0)
(-4.68527e-09 -2.32507e-06 0)
(-4.79827e-09 -2.32118e-06 0)
(-4.90918e-09 -2.31716e-06 0)
(-5.01792e-09 -2.313e-06 0)
(-5.12445e-09 -2.30871e-06 0)
(-5.2287e-09 -2.30428e-06 0)
(-5.33065e-09 -2.29972e-06 0)
(-5.43019e-09 -2.29501e-06 0)
(-5.52732e-09 -2.29017e-06 0)
(-5.62195e-09 -2.28519e-06 0)
(-5.71405e-09 -2.28007e-06 0)
(-5.80354e-09 -2.27481e-06 0)
(-5.89041e-09 -2.26942e-06 0)
(-5.97457e-09 -2.26388e-06 0)
(-6.05601e-09 -2.25822e-06 0)
(-6.13465e-09 -2.2524e-06 0)
(-6.21048e-09 -2.24646e-06 0)
(-6.28342e-09 -2.24038e-06 0)
(-6.35348e-09 -2.23416e-06 0)
(-6.42059e-09 -2.2278e-06 0)
(-6.48474e-09 -2.22132e-06 0)
(-6.54589e-09 -2.21469e-06 0)
(-6.60403e-09 -2.20794e-06 0)
(-6.65912e-09 -2.20104e-06 0)
(-6.71118e-09 -2.19403e-06 0)
(-6.76015e-09 -2.18688e-06 0)
(-6.80607e-09 -2.1796e-06 0)
(-6.84888e-09 -2.1722e-06 0)
(-6.88864e-09 -2.16467e-06 0)
(-6.92528e-09 -2.15701e-06 0)
(-6.95887e-09 -2.14924e-06 0)
(-6.98935e-09 -2.14134e-06 0)
(-7.01679e-09 -2.13333e-06 0)
(-7.04112e-09 -2.1252e-06 0)
(-7.06243e-09 -2.11696e-06 0)
(-7.08064e-09 -2.10859e-06 0)
(-7.09584e-09 -2.10013e-06 0)
(-7.10794e-09 -2.09155e-06 0)
(-7.11702e-09 -2.08287e-06 0)
(-7.123e-09 -2.07407e-06 0)
(-7.12589e-09 -2.0652e-06 0)
(-7.12576e-09 -2.05618e-06 0)
(-7.12177e-09 -2.04718e-06 0)
(-7.11833e-09 -2.03773e-06 0)
(-7.10528e-09 -2.02869e-06 0)
(-7.07189e-09 -2.01862e-06 0)
(-7.04154e-09 -2.00677e-06 0)
(-7.01967e-09 -1.99537e-06 0)
(-6.99447e-09 -1.98419e-06 0)
(-6.96608e-09 -1.97289e-06 0)
(-6.93458e-09 -1.96161e-06 0)
(-6.90003e-09 -1.95038e-06 0)
(-6.86258e-09 -1.93925e-06 0)
(-6.82228e-09 -1.92817e-06 0)
(-6.77937e-09 -1.91717e-06 0)
(-6.73388e-09 -1.90622e-06 0)
(-6.68605e-09 -1.89536e-06 0)
(-6.6359e-09 -1.88456e-06 0)
(-6.58369e-09 -1.87387e-06 0)
(-6.52944e-09 -1.86325e-06 0)
(-6.47337e-09 -1.85273e-06 0)
(-6.4155e-09 -1.84228e-06 0)
(-6.35604e-09 -1.83195e-06 0)
(-6.295e-09 -1.8217e-06 0)
(-6.23258e-09 -1.81157e-06 0)
(-6.16876e-09 -1.80152e-06 0)
(-6.10374e-09 -1.79159e-06 0)
(-6.03748e-09 -1.78175e-06 0)
(-5.97017e-09 -1.77204e-06 0)
(-5.90176e-09 -1.76242e-06 0)
(-5.83243e-09 -1.75293e-06 0)
(-5.76214e-09 -1.74353e-06 0)
(-5.69102e-09 -1.73427e-06 0)
(-5.61905e-09 -1.72511e-06 0)
(-5.54636e-09 -1.71607e-06 0)
(-5.4729e-09 -1.70715e-06 0)
(-5.39881e-09 -1.69835e-06 0)
(-5.32403e-09 -1.68966e-06 0)
(-5.2487e-09 -1.68111e-06 0)
(-5.17275e-09 -1.67267e-06 0)
(-5.09632e-09 -1.66436e-06 0)
(-5.01934e-09 -1.65617e-06 0)
(-4.94192e-09 -1.64811e-06 0)
(-4.86403e-09 -1.64017e-06 0)
(-4.78575e-09 -1.63236e-06 0)
(-4.70705e-09 -1.62467e-06 0)
(-4.62801e-09 -1.61712e-06 0)
(-4.54859e-09 -1.60969e-06 0)
(-4.46888e-09 -1.60239e-06 0)
(-4.38883e-09 -1.59522e-06 0)
(-4.30853e-09 -1.58818e-06 0)
(-4.22791e-09 -1.58127e-06 0)
(-4.14707e-09 -1.5745e-06 0)
(-4.06595e-09 -1.56784e-06 0)
(-3.98463e-09 -1.56133e-06 0)
(-3.90306e-09 -1.55494e-06 0)
(-3.82129e-09 -1.5487e-06 0)
(-3.73929e-09 -1.54257e-06 0)
(-3.65711e-09 -1.53659e-06 0)
(-3.5747e-09 -1.53073e-06 0)
(-3.49212e-09 -1.52502e-06 0)
(-3.40933e-09 -1.51942e-06 0)
(-3.32637e-09 -1.51398e-06 0)
(-3.2432e-09 -1.50866e-06 0)
(-3.15986e-09 -1.50348e-06 0)
(-3.07631e-09 -1.49842e-06 0)
(-2.9926e-09 -1.49352e-06 0)
(-2.90868e-09 -1.48873e-06 0)
(-2.82459e-09 -1.4841e-06 0)
(-2.74031e-09 -1.47959e-06 0)
(-2.65585e-09 -1.47522e-06 0)
(-2.57119e-09 -1.47099e-06 0)
(-2.48636e-09 -1.4669e-06 0)
(-2.40134e-09 -1.46293e-06 0)
(-2.31615e-09 -1.45912e-06 0)
(-2.23076e-09 -1.45543e-06 0)
(-2.14521e-09 -1.45189e-06 0)
(-2.05946e-09 -1.44848e-06 0)
(-1.97355e-09 -1.44522e-06 0)
(-1.88745e-09 -1.44209e-06 0)
(-1.80117e-09 -1.4391e-06 0)
(-1.71472e-09 -1.43625e-06 0)
(-1.62809e-09 -1.43355e-06 0)
(-1.54128e-09 -1.43098e-06 0)
(-1.45429e-09 -1.42855e-06 0)
(-1.36712e-09 -1.42626e-06 0)
(-1.27976e-09 -1.42412e-06 0)
(-1.19221e-09 -1.42211e-06 0)
(-1.10447e-09 -1.42025e-06 0)
(-1.01651e-09 -1.41853e-06 0)
(-9.28325e-10 -1.41696e-06 0)
(-8.39876e-10 -1.4155e-06 0)
(-7.51157e-10 -1.4143e-06 0)
(-6.62029e-10 -1.41283e-06 0)
(-5.7289e-10 -1.41289e-06 0)
(-4.82436e-10 -1.40837e-06 0)
(-3.95947e-10 -1.4191e-06 0)
(-2.93122e-10 -1.37609e-06 0)
(-2.57007e-10 -1.48865e-06 0)
(-1.4162e-10 -1.29985e-06 0)
)
;
    }
    bottomWall
    {
        type            calculated;
        value           nonuniform List<vector> 
449
(
(-53.0191 -0.95933 0)
(-34.9507 -0.00281536 0)
(-34.5511 -0.000257415 0)
(-33.1799 -0.000368258 0)
(-32.0284 -0.000324482 0)
(-30.9529 -0.000293092 0)
(-30.0147 -0.000251587 0)
(-29.2223 -0.000213667 0)
(-28.5415 -0.0001859 0)
(-27.9364 -0.000166693 0)
(-27.3846 -0.000152456 0)
(-26.8753 -0.000140751 0)
(-26.4026 -0.000130381 0)
(-25.9635 -0.000121014 0)
(-25.5545 -0.000112599 0)
(-25.1728 -0.000104875 0)
(-24.8165 -9.78357e-05 0)
(-24.4829 -9.14497e-05 0)
(-24.1703 -8.55466e-05 0)
(-23.8771 -8.02282e-05 0)
(-23.6009 -7.53772e-05 0)
(-23.341 -7.09133e-05 0)
(-23.0955 -6.69236e-05 0)
(-22.863 -6.3167e-05 0)
(-22.6434 -5.96762e-05 0)
(-22.4349 -5.65512e-05 0)
(-22.2368 -5.36994e-05 0)
(-22.0479 -5.1037e-05 0)
(-21.8681 -4.86347e-05 0)
(-21.6959 -4.62859e-05 0)
(-21.5324 -4.4073e-05 0)
(-21.3755 -4.20908e-05 0)
(-21.2256 -4.02793e-05 0)
(-21.0813 -3.85923e-05 0)
(-20.9431 -3.70083e-05 0)
(-20.8097 -3.54406e-05 0)
(-20.6825 -3.40173e-05 0)
(-20.559 -3.26955e-05 0)
(-20.441 -3.14271e-05 0)
(-20.3263 -3.02584e-05 0)
(-20.2164 -2.91561e-05 0)
(-20.1094 -2.8169e-05 0)
(-20.0064 -2.7189e-05 0)
(-19.9062 -2.6257e-05 0)
(-19.8097 -2.53745e-05 0)
(-19.7157 -2.45507e-05 0)
(-19.6249 -2.37216e-05 0)
(-19.5368 -2.29752e-05 0)
(-19.4512 -2.22249e-05 0)
(-19.3684 -2.15256e-05 0)
(-19.2877 -2.08835e-05 0)
(-19.2094 -2.03223e-05 0)
(-19.1327 -1.96983e-05 0)
(-19.0588 -1.91134e-05 0)
(-18.9861 -1.85975e-05 0)
(-18.9158 -1.81091e-05 0)
(-18.8467 -1.76363e-05 0)
(-18.7797 -1.71395e-05 0)
(-18.714 -1.6701e-05 0)
(-18.6502 -1.62744e-05 0)
(-18.5875 -1.58652e-05 0)
(-18.5265 -1.54737e-05 0)
(-18.4667 -1.50648e-05 0)
(-18.4086 -1.46604e-05 0)
(-18.3516 -1.43249e-05 0)
(-18.2959 -1.4015e-05 0)
(-18.2411 -1.36897e-05 0)
(-18.1878 -1.33671e-05 0)
(-18.1352 -1.31042e-05 0)
(-18.0837 -1.28249e-05 0)
(-18.0332 -1.25121e-05 0)
(-17.9839 -1.22013e-05 0)
(-17.9356 -1.19663e-05 0)
(-17.888 -1.17469e-05 0)
(-17.8413 -1.14983e-05 0)
(-17.7954 -1.12778e-05 0)
(-17.7503 -1.1043e-05 0)
(-17.7061 -1.07999e-05 0)
(-17.6627 -1.05361e-05 0)
(-17.6205 -1.03002e-05 0)
(-17.5788 -1.01237e-05 0)
(-17.5378 -9.96164e-06 0)
(-17.4973 -9.79685e-06 0)
(-17.4575 -9.59511e-06 0)
(-17.4184 -9.38786e-06 0)
(-17.3801 -9.17107e-06 0)
(-17.3426 -9.01135e-06 0)
(-17.3055 -8.92713e-06 0)
(-17.2685 -8.78148e-06 0)
(-17.2324 -8.60177e-06 0)
(-17.1968 -8.42748e-06 0)
(-17.162 -8.24312e-06 0)
(-17.1278 -8.09558e-06 0)
(-17.094 -7.94181e-06 0)
(-17.061 -7.7812e-06 0)
(-17.0284 -7.66175e-06 0)
(-16.9962 -7.57444e-06 0)
(-16.9642 -7.44975e-06 0)
(-16.9329 -7.32044e-06 0)
(-16.9019 -7.1845e-06 0)
(-16.8716 -7.0682e-06 0)
(-16.8414 -6.96943e-06 0)
(-16.8118 -6.84184e-06 0)
(-16.7826 -6.71451e-06 0)
(-16.754 -6.61992e-06 0)
(-16.7254 -6.52806e-06 0)
(-16.6974 -6.4224e-06 0)
(-16.6697 -6.37395e-06 0)
(-16.642 -6.27824e-06 0)
(-16.615 -6.18526e-06 0)
(-16.5879 -6.0697e-06 0)
(-16.5618 -5.93031e-06 0)
(-16.5359 -5.82587e-06 0)
(-16.5106 -5.70419e-06 0)
(-16.4856 -5.59949e-06 0)
(-16.4611 -5.52955e-06 0)
(-16.4366 -5.48989e-06 0)
(-16.4123 -5.4207e-06 0)
(-16.3884 -5.317e-06 0)
(-16.3649 -5.26417e-06 0)
(-16.3413 -5.23886e-06 0)
(-16.3179 -5.16479e-06 0)
(-16.2949 -5.07971e-06 0)
(-16.2722 -4.9992e-06 0)
(-16.2498 -4.89e-06 0)
(-16.228 -4.79014e-06 0)
(-16.2063 -4.71494e-06 0)
(-16.1851 -4.64634e-06 0)
(-16.164 -4.60103e-06 0)
(-16.1431 -4.57519e-06 0)
(-16.1221 -4.55378e-06 0)
(-16.1013 -4.51879e-06 0)
(-16.0806 -4.44926e-06 0)
(-16.0603 -4.39e-06 0)
(-16.04 -4.34454e-06 0)
(-16.02 -4.26572e-06 0)
(-16.0004 -4.17302e-06 0)
(-15.9812 -4.10158e-06 0)
(-15.9622 -4.02117e-06 0)
(-15.9437 -3.95766e-06 0)
(-15.9251 -3.8612e-06 0)
(-15.9074 -3.80611e-06 0)
(-15.8893 -3.77971e-06 0)
(-15.8718 -3.75178e-06 0)
(-15.8538 -3.72731e-06 0)
(-15.8364 -3.71304e-06 0)
(-15.8185 -3.70338e-06 0)
(-15.8011 -3.62571e-06 0)
(-15.7839 -3.57505e-06 0)
(-15.7669 -3.53605e-06 0)
(-15.7499 -3.50382e-06 0)
(-15.7332 -3.43146e-06 0)
(-15.7169 -3.39289e-06 0)
(-15.7004 -3.32864e-06 0)
(-15.6847 -3.24696e-06 0)
(-15.6689 -3.21567e-06 0)
(-15.6534 -3.18357e-06 0)
(-15.6379 -3.14054e-06 0)
(-15.6227 -3.10062e-06 0)
(-15.6075 -3.10825e-06 0)
(-15.5922 -3.08428e-06 0)
(-15.5772 -3.06364e-06 0)
(-15.5619 -3.04968e-06 0)
(-15.547 -2.96857e-06 0)
(-15.5325 -2.88195e-06 0)
(-15.5184 -2.86063e-06 0)
(-15.504 -2.84478e-06 0)
(-15.49 -2.79588e-06 0)
(-15.476 -2.77865e-06 0)
(-15.4621 -2.76705e-06 0)
(-15.4482 -2.74705e-06 0)
(-15.4344 -2.75166e-06 0)
(-15.4204 -2.75578e-06 0)
(-15.4072 -2.78012e-06 0)
(-15.3944 -2.76964e-06 0)
(-15.3819 -2.70856e-06 0)
(-15.3695 -2.67104e-06 0)
(-15.357 -2.62682e-06 0)
(-15.3447 -2.56158e-06 0)
(-15.3327 -2.57847e-06 0)
(-15.3199 -2.58067e-06 0)
(-15.3076 -2.53125e-06 0)
(-15.295 -2.51495e-06 0)
(-15.2825 -2.47221e-06 0)
(-15.2701 -2.39947e-06 0)
(-15.2582 -2.34673e-06 0)
(-15.246 -2.32821e-06 0)
(-15.234 -2.34983e-06 0)
(-15.2213 -2.3567e-06 0)
(-15.2089 -2.33667e-06 0)
(-15.1963 -2.27578e-06 0)
(-15.1843 -2.27061e-06 0)
(-15.1714 -2.26733e-06 0)
(-15.1591 -2.18508e-06 0)
(-15.1469 -2.15505e-06 0)
(-15.1347 -2.14495e-06 0)
(-15.1223 -2.14499e-06 0)
(-15.1099 -2.11708e-06 0)
(-15.0976 -2.10981e-06 0)
(-15.0849 -2.10372e-06 0)
(-15.0724 -2.09172e-06 0)
(-15.0596 -2.0868e-06 0)
(-15.0469 -2.08158e-06 0)
(-15.0339 -2.05307e-06 0)
(-15.0212 -2.01923e-06 0)
(-15.0084 -1.98707e-06 0)
(-14.9959 -1.91613e-06 0)
(-14.9838 -1.83419e-06 0)
(-14.9721 -1.78555e-06 0)
(-14.9603 -1.74568e-06 0)
(-14.9489 -1.72145e-06 0)
(-14.9372 -1.70384e-06 0)
(-14.9257 -1.7139e-06 0)
(-14.9136 -1.73974e-06 0)
(-14.9015 -1.72781e-06 0)
(-14.8893 -1.70518e-06 0)
(-14.8772 -1.69807e-06 0)
(-14.8648 -1.70005e-06 0)
(-14.8525 -1.71824e-06 0)
(-14.8396 -1.70907e-06 0)
(-14.8271 -1.67817e-06 0)
(-14.8144 -1.67575e-06 0)
(-14.8017 -1.64796e-06 0)
(-14.7891 -1.64017e-06 0)
(-14.7763 -1.61051e-06 0)
(-14.7639 -1.57985e-06 0)
(-14.7513 -1.59878e-06 0)
(-14.7383 -1.54901e-06 0)
(-14.7262 -1.54568e-06 0)
(-14.713 -1.55985e-06 0)
(-14.7004 -1.51628e-06 0)
(-14.6876 -1.53638e-06 0)
(-14.6744 -1.5183e-06 0)
(-14.6617 -1.44832e-06 0)
(-14.6494 -1.4156e-06 0)
(-14.637 -1.39381e-06 0)
(-14.6249 -1.36353e-06 0)
(-14.6128 -1.30475e-06 0)
(-14.6014 -1.27912e-06 0)
(-14.5895 -1.26535e-06 0)
(-14.5782 -1.24614e-06 0)
(-14.5663 -1.26789e-06 0)
(-14.5542 -1.29186e-06 0)
(-14.5417 -1.29524e-06 0)
(-14.5293 -1.2822e-06 0)
(-14.5167 -1.28726e-06 0)
(-14.504 -1.24937e-06 0)
(-14.4919 -1.19803e-06 0)
(-14.4799 -1.19607e-06 0)
(-14.4676 -1.19151e-06 0)
(-14.4555 -1.19081e-06 0)
(-14.4429 -1.17603e-06 0)
(-14.4308 -1.14264e-06 0)
(-14.4187 -1.12994e-06 0)
(-14.4066 -1.12848e-06 0)
(-14.3943 -1.11935e-06 0)
(-14.3821 -1.08775e-06 0)
(-14.3702 -1.06594e-06 0)
(-14.3583 -1.06295e-06 0)
(-14.3462 -1.03931e-06 0)
(-14.3346 -1.03695e-06 0)
(-14.3222 -1.03331e-06 0)
(-14.3105 -1.01271e-06 0)
(-14.2983 -9.86175e-07 0)
(-14.287 -9.64977e-07 0)
(-14.2751 -9.59361e-07 0)
(-14.2636 -9.32471e-07 0)
(-14.2521 -9.37285e-07 0)
(-14.2402 -9.4208e-07 0)
(-14.2284 -9.23606e-07 0)
(-14.2167 -8.86775e-07 0)
(-14.2056 -8.54002e-07 0)
(-14.1945 -8.52394e-07 0)
(-14.1832 -8.69212e-07 0)
(-14.1714 -8.50658e-07 0)
(-14.1603 -8.20733e-07 0)
(-14.1491 -8.14834e-07 0)
(-14.138 -7.92524e-07 0)
(-14.1272 -7.81017e-07 0)
(-14.1161 -7.84596e-07 0)
(-14.1049 -7.90105e-07 0)
(-14.0934 -7.99723e-07 0)
(-14.0817 -7.76808e-07 0)
(-14.0706 -7.72911e-07 0)
(-14.0588 -7.64126e-07 0)
(-14.0477 -7.51046e-07 0)
(-14.0361 -7.09883e-07 0)
(-14.0261 -6.61961e-07 0)
(-14.0157 -6.53911e-07 0)
(-14.0057 -6.56235e-07 0)
(-13.9949 -6.83992e-07 0)
(-13.9839 -6.81585e-07 0)
(-13.973 -6.58808e-07 0)
(-13.9624 -6.60044e-07 0)
(-13.9512 -6.51012e-07 0)
(-13.9407 -6.16888e-07 0)
(-13.9304 -6.27196e-07 0)
(-13.9193 -6.17418e-07 0)
(-13.9092 -6.11182e-07 0)
(-13.898 -6.23537e-07 0)
(-13.8872 -6.04627e-07 0)
(-13.8765 -6.29657e-07 0)
(-13.8645 -6.46924e-07 0)
(-13.8529 -6.15027e-07 0)
(-13.8419 -5.56849e-07 0)
(-13.8324 -5.05659e-07 0)
(-13.823 -5.15739e-07 0)
(-13.8128 -5.2568e-07 0)
(-13.8029 -5.295e-07 0)
(-13.7923 -5.42362e-07 0)
(-13.7816 -5.23701e-07 0)
(-13.7716 -5.07761e-07 0)
(-13.7613 -5.05758e-07 0)
(-13.7511 -4.79875e-07 0)
(-13.7417 -4.55322e-07 0)
(-13.7323 -4.55625e-07 0)
(-13.7227 -4.69316e-07 0)
(-13.7125 -4.66252e-07 0)
(-13.7028 -4.5366e-07 0)
(-13.6929 -4.4499e-07 0)
(-13.6833 -4.56638e-07 0)
(-13.6727 -4.63538e-07 0)
(-13.6627 -4.45344e-07 0)
(-13.6527 -4.31863e-07 0)
(-13.643 -4.309e-07 0)
(-13.6328 -4.3584e-07 0)
(-13.6227 -4.3075e-07 0)
(-13.6125 -4.20422e-07 0)
(-13.6026 -3.99546e-07 0)
(-13.5933 -4.07262e-07 0)
(-13.5828 -4.10321e-07 0)
(-13.5731 -3.79763e-07 0)
(-13.564 -3.79025e-07 0)
(-13.5541 -3.96408e-07 0)
(-13.5438 -3.92926e-07 0)
(-13.5339 -3.50195e-07 0)
(-13.5258 -3.2085e-07 0)
(-13.5172 -3.31011e-07 0)
(-13.5082 -3.31463e-07 0)
(-13.4994 -3.34812e-07 0)
(-13.49 -3.52234e-07 0)
(-13.48 -3.47158e-07 0)
(-13.4708 -3.24824e-07 0)
(-13.4619 -3.16744e-07 0)
(-13.453 -3.07367e-07 0)
(-13.4444 -3.05175e-07 0)
(-13.4353 -3.16305e-07 0)
(-13.4259 -3.13165e-07 0)
(-13.4168 -3.07464e-07 0)
(-13.4075 -3.12138e-07 0)
(-13.398 -3.00004e-07 0)
(-13.3892 -2.87761e-07 0)
(-13.3802 -2.84315e-07 0)
(-13.3715 -2.70736e-07 0)
(-13.3623 -2.62641e-07 0)
(-13.3521 -2.58787e-07 0)
(-13.3421 -2.56765e-07 0)
(-13.3321 -2.59187e-07 0)
(-13.322 -2.50717e-07 0)
(-13.3125 -2.45964e-07 0)
(-13.3028 -2.38414e-07 0)
(-13.294 -2.25282e-07 0)
(-13.2853 -2.30245e-07 0)
(-13.276 -2.38643e-07 0)
(-13.2666 -2.27886e-07 0)
(-13.2583 -2.08523e-07 0)
(-13.2504 -2.04734e-07 0)
(-13.2424 -2.02873e-07 0)
(-13.2346 -2.10066e-07 0)
(-13.2259 -2.23719e-07 0)
(-13.2172 -2.08184e-07 0)
(-13.2097 -1.96515e-07 0)
(-13.2019 -1.93511e-07 0)
(-13.1947 -1.88932e-07 0)
(-13.1872 -2.02286e-07 0)
(-13.1789 -2.13773e-07 0)
(-13.1705 -1.98721e-07 0)
(-13.1634 -1.77824e-07 0)
(-13.1567 -1.65105e-07 0)
(-13.1506 -1.69287e-07 0)
(-13.1434 -1.89415e-07 0)
(-13.1358 -1.82596e-07 0)
(-13.1292 -1.83367e-07 0)
(-13.1215 -1.82451e-07 0)
(-13.115 -1.52099e-07 0)
(-13.1097 -1.23587e-07 0)
(-13.1054 -1.24356e-07 0)
(-13.1 -1.41278e-07 0)
(-13.0944 -1.54222e-07 0)
(-13.088 -1.61936e-07 0)
(-13.0818 -1.64663e-07 0)
(-13.0752 -1.67183e-07 0)
(-13.0688 -1.58721e-07 0)
(-13.0628 -1.54324e-07 0)
(-13.0568 -1.55476e-07 0)
(-13.0507 -1.54902e-07 0)
(-13.0447 -1.59121e-07 0)
(-13.0383 -1.56638e-07 0)
(-13.0325 -1.5102e-07 0)
(-13.0265 -1.52178e-07 0)
(-13.0206 -1.48755e-07 0)
(-13.0149 -1.46404e-07 0)
(-13.0092 -1.44365e-07 0)
(-13.0037 -1.30033e-07 0)
(-12.9991 -1.17102e-07 0)
(-12.9946 -1.28181e-07 0)
(-12.9891 -1.32385e-07 0)
(-12.9843 -1.19422e-07 0)
(-12.9798 -1.25611e-07 0)
(-12.9745 -1.26325e-07 0)
(-12.97 -1.25742e-07 0)
(-12.9647 -1.27276e-07 0)
(-12.9601 -1.19236e-07 0)
(-12.9554 -1.11658e-07 0)
(-12.9514 -1.09764e-07 0)
(-12.9469 -1.14489e-07 0)
(-12.9425 -1.16822e-07 0)
(-12.9378 -1.20747e-07 0)
(-12.933 -1.28183e-07 0)
(-12.9278 -1.29126e-07 0)
(-12.923 -1.08729e-07 0)
(-12.9193 -1.10457e-07 0)
(-12.9144 -1.29036e-07 0)
(-12.9093 -1.16092e-07 0)
(-12.9054 -1.00274e-07 0)
(-12.9014 -9.97322e-08 0)
(-12.8976 -9.36536e-08 0)
(-12.8942 -9.06994e-08 0)
(-12.8905 -9.57995e-08 0)
(-12.8867 -9.85761e-08 0)
(-12.8828 -1.03251e-07 0)
(-12.8786 -1.10073e-07 0)
(-12.8742 -1.07915e-07 0)
(-12.8703 -9.43607e-08 0)
(-12.8669 -8.91651e-08 0)
(-12.8633 -9.21874e-08 0)
(-12.8597 -9.1837e-08 0)
(-12.8561 -9.93831e-08 0)
(-12.852 -1.04676e-07 0)
(-12.848 -9.59027e-08 0)
(-12.8445 -9.39822e-08 0)
(-12.8407 -1.02296e-07 0)
(-12.8366 -9.84354e-08 0)
(-12.833 -9.80342e-08 0)
(-12.8289 -9.94546e-08 0)
(-12.8253 -1.12511e-07 0)
(-12.8201 -7.92e-08 0)
(-12.8192 -1.08098e-07 0)
(-12.8116 -9.92157e-08 0)
)
;
    }
    symmetry
    {
        type            symmetryPlane;
    }
    frontAndBack
    {
        type            empty;
    }
}


// ************************************************************************* //
