/*--------------------------------*- C++ -*----------------------------------*\
| =========                 |                                                 |
| \\      /  F ield         | OpenFOAM: The Open Source CFD Toolbox           |
|  \\    /   O peration     | Version:  v2012                                 |
|   \\  /    A nd           | Website:  www.openfoam.com                      |
|    \\/     M anipulation  |                                                 |
\*---------------------------------------------------------------------------*/
FoamFile
{
    version     2.0;
    format      ascii;
    class       volScalarField;
    location    "15";
    object      yPlus;
}
// * * * * * * * * * * * * * * * * * * * * * * * * * * * * * * * * * * * * * //

dimensions      [0 0 0 0 0 0 0];


internalField   uniform 0;

boundaryField
{
    inlet
    {
        type            calculated;
        value           uniform 0;
    }
    outlet
    {
        type            calculated;
        value           uniform 0;
    }
    topWall
    {
        type            calculated;
        value           nonuniform List<scalar> 
545
(
0.112112
0.193722
0.248521
0.292037
0.328855
0.361045
0.389773
0.415773
0.439545
0.461446
0.481745
0.500653
0.518333
0.534922
0.550529
0.565249
0.579161
0.592334
0.604827
0.616692
0.627976
0.63872
0.648959
0.658728
0.668055
0.676969
0.685494
0.693653
0.701466
0.708952
0.716129
0.723015
0.729623
0.735967
0.742062
0.74792
0.753551
0.758967
0.764178
0.769193
0.774021
0.778671
0.783151
0.787467
0.791628
0.79564
0.799509
0.803241
0.806842
0.810317
0.813671
0.81691
0.820038
0.823059
0.825978
0.828798
0.831523
0.834157
0.836704
0.839167
0.841548
0.843851
0.846079
0.848235
0.85032
0.852339
0.854292
0.856183
0.858014
0.859786
0.861502
0.863165
0.864752
0.866287
0.867807
0.869314
0.870807
0.872286
0.873752
0.875205
0.876645
0.878071
0.879485
0.880886
0.882275
0.883651
0.885014
0.886366
0.887705
0.889033
0.890348
0.891652
0.892944
0.894225
0.895495
0.896754
0.89788
0.898885
0.89989
0.900894
0.901896
0.902898
0.903899
0.904898
0.905897
0.906894
0.907891
0.908886
0.90988
0.910873
0.911865
0.912856
0.913846
0.914834
0.915821
0.916808
0.917793
0.918776
0.919759
0.92074
0.92172
0.922699
0.923677
0.924653
0.925628
0.926602
0.927574
0.928545
0.929515
0.930484
0.931451
0.932416
0.93338
0.934343
0.935305
0.936265
0.937223
0.938181
0.939136
0.94009
0.941043
0.941994
0.942944
0.943892
0.944839
0.945784
0.946727
0.947669
0.948609
0.949548
0.950485
0.95142
0.952354
0.953286
0.954216
0.955145
0.956072
0.956997
0.957921
0.958843
0.959763
0.960681
0.961597
0.962512
0.963425
0.964336
0.965245
0.966152
0.967057
0.967961
0.968862
0.969762
0.97066
0.971556
0.972449
0.973341
0.974231
0.975119
0.976004
0.976888
0.977769
0.978649
0.979526
0.980402
0.981275
0.982146
0.983015
0.983882
0.984746
0.985609
0.986469
0.987326
0.988182
0.989035
0.989886
0.990735
0.991582
0.992426
0.993268
0.994107
0.994944
0.995779
0.996611
0.997441
0.998268
0.999093
0.999915
1.00073
1.00155
1.00237
1.00318
1.00399
1.0048
1.0056
1.0064
1.0072
1.008
1.00879
1.00958
1.01037
1.01116
1.01194
1.01272
1.0135
1.01427
1.01505
1.01581
1.01658
1.01734
1.0181
1.01886
1.01962
1.02037
1.02112
1.02186
1.02261
1.02335
1.02408
1.02482
1.02555
1.02627
1.027
1.02772
1.02844
1.02915
1.02987
1.03057
1.03128
1.03198
1.03268
1.03338
1.03407
1.03476
1.03545
1.03613
1.03681
1.03748
1.03816
1.03882
1.03949
1.04015
1.04081
1.04147
1.04212
1.04277
1.04341
1.04405
1.04469
1.04533
1.04592
1.04647
1.04703
1.04759
1.04815
1.04871
1.04928
1.04985
1.05042
1.05099
1.05156
1.05214
1.05272
1.0533
1.05388
1.05446
1.05504
1.05562
1.05621
1.0568
1.05738
1.05797
1.05856
1.05915
1.05974
1.06033
1.06092
1.06151
1.0621
1.0627
1.06329
1.06388
1.06447
1.06506
1.06565
1.06624
1.06682
1.06741
1.06799
1.06858
1.06916
1.06974
1.07032
1.0709
1.07147
1.07204
1.07261
1.07318
1.07374
1.0743
1.07486
1.07541
1.07596
1.07651
1.07705
1.07759
1.07812
1.07865
1.07917
1.07969
1.0802
1.08071
1.08121
1.08171
1.08219
1.08267
1.08315
1.08361
1.08407
1.08453
1.08497
1.0854
1.08583
1.08625
1.08665
1.08705
1.08744
1.08782
1.08818
1.08854
1.08889
1.08922
1.08954
1.08985
1.09015
1.09043
1.0907
1.09096
1.0912
1.09143
1.09165
1.09185
1.09203
1.0922
1.09235
1.09249
1.09261
1.09271
1.09279
1.09286
1.09291
1.09294
1.09295
1.09294
1.09291
1.09286
1.09279
1.09269
1.09258
1.09244
1.09229
1.0921
1.0919
1.09167
1.09142
1.09115
1.09085
1.09052
1.09017
1.08979
1.08939
1.08896
1.0885
1.08802
1.08751
1.08697
1.0864
1.08581
1.08518
1.08452
1.08384
1.08312
1.08238
1.0816
1.0808
1.07996
1.07909
1.07819
1.07725
1.07629
1.07529
1.07426
1.07319
1.0721
1.07097
1.0698
1.06861
1.06737
1.06611
1.06481
1.06348
1.06211
1.06071
1.05927
1.0578
1.0563
1.05476
1.05319
1.05158
1.04994
1.04826
1.04656
1.04482
1.04304
1.04123
1.03939
1.03752
1.03561
1.03367
1.0317
1.0297
1.02766
1.0256
1.0235
1.02138
1.01922
1.01704
1.01482
1.01258
1.01031
1.00801
1.00543
1.00258
0.999733
0.996889
0.994044
0.991207
0.988371
0.985546
0.982725
0.979917
0.977116
0.974329
0.971552
0.968791
0.966042
0.963311
0.960593
0.957896
0.955214
0.952553
0.949909
0.947288
0.944685
0.942106
0.939547
0.937014
0.9345
0.932014
0.929549
0.927113
0.924699
0.922315
0.919953
0.917623
0.915316
0.913041
0.91079
0.908573
0.90638
0.904222
0.902089
0.899991
0.89792
0.895884
0.893876
0.891903
0.889959
0.888051
0.886173
0.884331
0.882519
0.880745
0.879001
0.877295
0.875621
0.873985
0.872381
0.870816
0.869284
0.867791
0.866331
0.864911
0.863525
0.862179
0.860868
0.859598
0.858363
0.857168
0.85601
0.854893
0.853812
0.852774
0.851772
0.850812
0.84989
0.84901
0.848169
0.84737
0.84661
0.845893
0.845215
0.84458
0.843985
0.843433
0.842922
0.842453
0.842027
0.841643
0.841301
0.841003
0.840747
0.840536
0.840363
0.840254
0.840107
)
;
    }
    bottomWall
    {
        type            calculated;
        value           nonuniform List<scalar> 
449
(
0.00275333
0.00482604
0.00540003
0.00535212
0.00527645
0.00517268
0.00507093
0.00498051
0.00489953
0.0048244
0.00475306
0.00468485
0.0046197
0.00455782
0.00449904
0.00444331
0.00439064
0.00434075
0.00429357
0.00424898
0.00420665
0.00416658
0.0041285
0.00409225
0.00405787
0.00402509
0.00399382
0.00396389
0.00393531
0.00390782
0.00388171
0.00385654
0.00383248
0.0038092
0.0037869
0.0037653
0.0037447
0.00372461
0.00370543
0.00368672
0.0036688
0.00365127
0.0036344
0.00361796
0.00360211
0.00358663
0.00357169
0.00355714
0.00354302
0.00352933
0.00351599
0.003503
0.00349026
0.00347801
0.00346593
0.00345424
0.0034427
0.00343155
0.00342058
0.00340991
0.00339943
0.00338923
0.0033792
0.00336949
0.00335993
0.00335057
0.00334135
0.00333237
0.00332352
0.00331482
0.00330629
0.00329798
0.00328983
0.00328177
0.00327387
0.0032661
0.00325844
0.00325095
0.00324359
0.00323645
0.00322936
0.0032224
0.00321548
0.0032087
0.00320204
0.00319552
0.00318915
0.00318279
0.00317647
0.00317029
0.0031642
0.00315825
0.0031524
0.00314663
0.00314098
0.00313541
0.00312988
0.0031244
0.00311903
0.0031137
0.0031085
0.0031033
0.00309822
0.00309319
0.00308826
0.00308334
0.00307852
0.00307372
0.00306893
0.00306426
0.00305959
0.00305509
0.00305063
0.00304627
0.00304199
0.00303777
0.00303356
0.00302937
0.00302524
0.00302119
0.00301709
0.00301304
0.00300905
0.00300511
0.00300123
0.00299747
0.00299374
0.00299008
0.00298643
0.00298281
0.00297916
0.00297553
0.00297191
0.00296837
0.00296482
0.00296134
0.00295792
0.00295458
0.00295127
0.00294806
0.00294486
0.00294183
0.00293868
0.00293566
0.00293253
0.00292953
0.00292638
0.00292336
0.00292034
0.00291739
0.00291442
0.00291151
0.00290866
0.00290579
0.00290307
0.00290034
0.00289765
0.00289495
0.00289232
0.00288968
0.00288699
0.00288437
0.0028817
0.00287908
0.00287658
0.00287413
0.00287163
0.0028692
0.00286679
0.00286436
0.00286195
0.00285953
0.00285708
0.00285477
0.00285251
0.00285032
0.00284814
0.00284596
0.0028438
0.00284169
0.00283942
0.00283724
0.002835
0.00283279
0.00283061
0.00282853
0.00282641
0.0028243
0.00282206
0.00281987
0.00281762
0.00281552
0.00281321
0.00281107
0.00280891
0.00280678
0.0028046
0.00280242
0.00280025
0.00279802
0.0027958
0.00279354
0.00279127
0.00278896
0.00278671
0.00278443
0.00278222
0.00278008
0.00277804
0.00277597
0.00277398
0.00277193
0.00276993
0.00276778
0.00276565
0.00276349
0.00276139
0.0027592
0.00275703
0.00275472
0.00275253
0.00275026
0.00274801
0.00274576
0.00274347
0.00274129
0.00273903
0.00273672
0.00273459
0.00273221
0.00272998
0.00272769
0.0027253
0.00272304
0.00272087
0.00271865
0.00271646
0.00271429
0.0027123
0.00271018
0.0027082
0.00270609
0.00270394
0.00270166
0.00269943
0.00269716
0.00269486
0.00269271
0.00269058
0.00268836
0.00268618
0.0026839
0.00268174
0.00267957
0.0026774
0.00267516
0.00267298
0.00267085
0.00266871
0.00266653
0.00266444
0.0026622
0.00266008
0.00265788
0.00265584
0.00265369
0.00265163
0.00264958
0.00264743
0.00264528
0.00264317
0.00264118
0.00263919
0.00263714
0.002635
0.00263301
0.00263098
0.00262896
0.00262701
0.002625
0.00262299
0.00262089
0.00261875
0.00261674
0.00261457
0.00261257
0.00261042
0.00260864
0.00260676
0.00260499
0.00260304
0.00260101
0.00259903
0.00259712
0.00259506
0.00259317
0.00259131
0.00258927
0.00258745
0.00258541
0.00258345
0.00258152
0.00257929
0.00257714
0.0025751
0.00257339
0.00257174
0.0025699
0.00256812
0.00256618
0.00256423
0.00256243
0.00256056
0.00255869
0.00255697
0.00255527
0.0025535
0.00255162
0.00254986
0.00254808
0.00254635
0.00254438
0.00254254
0.00254071
0.00253896
0.00253709
0.00253525
0.00253337
0.00253159
0.00252988
0.00252793
0.00252615
0.0025245
0.00252267
0.00252075
0.00251892
0.00251748
0.00251592
0.00251428
0.00251267
0.00251094
0.00250905
0.00250735
0.00250571
0.00250405
0.00250249
0.00250083
0.00249906
0.0024974
0.00249568
0.0024939
0.00249229
0.00249063
0.00248901
0.00248731
0.00248541
0.0024836
0.00248174
0.0024799
0.00247821
0.00247644
0.00247488
0.00247332
0.00247162
0.00246988
0.00246837
0.00246694
0.00246546
0.00246404
0.00246241
0.00246077
0.00245943
0.00245797
0.00245665
0.00245526
0.00245369
0.00245209
0.00245079
0.00244957
0.00244848
0.00244716
0.00244572
0.00244449
0.00244304
0.00244183
0.00244085
0.0024401
0.0024391
0.00243806
0.00243686
0.00243569
0.00243444
0.00243324
0.00243214
0.00243102
0.0024299
0.0024288
0.0024276
0.00242652
0.00242541
0.00242428
0.00242322
0.00242213
0.00242109
0.00242026
0.00241944
0.0024184
0.00241752
0.00241672
0.00241572
0.00241489
0.00241389
0.00241302
0.00241215
0.00241141
0.00241055
0.00240972
0.00240883
0.00240793
0.00240691
0.00240601
0.00240535
0.00240442
0.00240345
0.00240272
0.00240197
0.00240124
0.00240063
0.00239996
0.00239926
0.00239855
0.00239776
0.00239692
0.00239619
0.00239559
0.0023949
0.00239423
0.00239356
0.00239276
0.00239201
0.00239138
0.00239065
0.00238988
0.00238921
0.00238846
0.00238773
0.00238683
0.00238651
0.00238519
)
;
    }
    symmetry
    {
        type            symmetryPlane;
    }
    frontAndBack
    {
        type            empty;
    }
}


// ************************************************************************* //
