/*--------------------------------*- C++ -*----------------------------------*\
| =========                 |                                                 |
| \\      /  F ield         | OpenFOAM: The Open Source CFD Toolbox           |
|  \\    /   O peration     | Version:  v2012                                 |
|   \\  /    A nd           | Website:  www.openfoam.com                      |
|    \\/     M anipulation  |                                                 |
\*---------------------------------------------------------------------------*/
FoamFile
{
    version     2.0;
    format      ascii;
    class       volScalarField;
    location    "59.5";
    object      k;
}
// * * * * * * * * * * * * * * * * * * * * * * * * * * * * * * * * * * * * * //

dimensions      [0 2 -2 0 0 0 0];


internalField   nonuniform List<scalar> 
209825
(
0.00102381
0.00093271
0.000857626
0.000793494
0.00073751
0.000688311
0.000645121
0.000607312
0.000574244
0.000545324
0.000519947
0.000497641
0.000477913
0.000460443
0.000444846
0.000430931
0.000418391
0.00040713
0.000396887
0.000387642
0.00037916
0.000371474
0.000364361
0.000357902
0.000351872
0.000346392
0.000341229
0.00033654
0.000332082
0.000328041
0.000324161
0.000320656
0.000317256
0.000314199
0.000311201
0.000308523
0.000305864
0.000303507
0.000301137
0.000299057
0.000296935
0.000295092
0.000293184
0.000291547
0.000289825
0.000288367
0.000286807
0.000285506
0.000284089
0.000282926
0.000281634
0.000280592
0.000279412
0.000278478
0.000277397
0.000276559
0.000275568
0.000274813
0.000273905
0.000273223
0.00027239
0.000271774
0.00027101
0.000270452
0.000269749
0.000269245
0.000268597
0.000268141
0.000267543
0.000267132
0.000266579
0.000266207
0.000265703
0.000265373
0.000264896
0.000264582
0.000264118
0.00026382
0.000263368
0.000263084
0.000262643
0.000262375
0.000261942
0.000261691
0.000261265
0.000261032
0.000260615
0.0002604
0.000259994
0.000259797
0.000259398
0.000259222
0.000258804
0.000261631
0.0118112
0.0116769
0.00102381
0.000932709
0.000857626
0.000793494
0.00073751
0.000688312
0.000645122
0.000607313
0.000574244
0.000545324
0.000519947
0.000497641
0.000477912
0.000460442
0.000444844
0.00043093
0.000418389
0.000407128
0.000396885
0.000387639
0.000379156
0.00037147
0.000364358
0.000357898
0.000351868
0.000346387
0.000341224
0.000336535
0.000332077
0.000328035
0.000324155
0.00032065
0.00031725
0.000314194
0.000311195
0.000308517
0.000305857
0.000303501
0.000301131
0.00029905
0.000296928
0.000295085
0.000293178
0.00029154
0.000289818
0.00028836
0.0002868
0.000285499
0.000284082
0.000282918
0.000281627
0.000280585
0.000279405
0.00027847
0.00027739
0.000276551
0.00027556
0.000274805
0.000273897
0.000273215
0.000272382
0.000271766
0.000271002
0.000270444
0.000269741
0.000269237
0.000268589
0.000268133
0.000267535
0.000267124
0.000266571
0.000266199
0.000265695
0.000265365
0.000264888
0.000264574
0.00026411
0.000263811
0.00026336
0.000263076
0.000262635
0.000262366
0.000261934
0.000261682
0.000261257
0.000261024
0.000260607
0.000260391
0.000259986
0.000259788
0.000259389
0.000259214
0.000258795
0.000261626
0.0118281
0.0116941
0.00102381
0.000932709
0.000857626
0.000793495
0.000737513
0.000688315
0.000645125
0.000607315
0.000574246
0.000545324
0.000519945
0.000497638
0.000477907
0.000460435
0.000444836
0.00043092
0.000418378
0.000407115
0.000396871
0.000387624
0.00037914
0.000371453
0.000364339
0.000357878
0.000351848
0.000346366
0.000341203
0.000336512
0.000332054
0.000328012
0.000324131
0.000320625
0.000317225
0.000314168
0.000311169
0.00030849
0.00030583
0.000303473
0.000301102
0.000299022
0.000296899
0.000295056
0.000293148
0.000291511
0.000289788
0.00028833
0.00028677
0.000285468
0.00028405
0.000282887
0.000281595
0.000280553
0.000279373
0.000278438
0.000277357
0.000276518
0.000275527
0.000274772
0.000273864
0.000273182
0.000272349
0.000271732
0.000270968
0.00027041
0.000269707
0.000269202
0.000268554
0.000268099
0.0002675
0.000267089
0.000266536
0.000266164
0.00026566
0.00026533
0.000264852
0.000264538
0.000264074
0.000263776
0.000263324
0.00026304
0.000262599
0.00026233
0.000261898
0.000261646
0.000261221
0.000260987
0.00026057
0.000260355
0.000259949
0.000259752
0.000259352
0.000259177
0.000258758
0.000261598
0.0118741
0.0117406
0.00102381
0.000932708
0.000857626
0.000793497
0.000737517
0.000688321
0.000645131
0.00060732
0.000574249
0.000545325
0.000519943
0.000497633
0.000477899
0.000460424
0.000444823
0.000430904
0.000418359
0.000407094
0.000396847
0.000387599
0.000379113
0.000371424
0.000364308
0.000357846
0.000351814
0.000346331
0.000341166
0.000336475
0.000332015
0.000327972
0.00032409
0.000320583
0.000317182
0.000314124
0.000311124
0.000308445
0.000305784
0.000303426
0.000301055
0.000298973
0.000296851
0.000295007
0.000293098
0.00029146
0.000289737
0.000288278
0.000286718
0.000285416
0.000283998
0.000282834
0.000281542
0.000280499
0.000279319
0.000278383
0.000277303
0.000276463
0.000275472
0.000274716
0.000273808
0.000273125
0.000272292
0.000271676
0.000270911
0.000270353
0.00026965
0.000269145
0.000268496
0.000268041
0.000267442
0.00026703
0.000266477
0.000266105
0.000265601
0.00026527
0.000264793
0.000264479
0.000264014
0.000263716
0.000263264
0.00026298
0.000262538
0.00026227
0.000261837
0.000261585
0.000261159
0.000260926
0.000260509
0.000260293
0.000259887
0.00025969
0.00025929
0.000259115
0.000258696
0.00026155
0.0119483
0.0118157
0.00102381
0.000932707
0.000857626
0.0007935
0.000737522
0.000688328
0.000645138
0.000607326
0.000574252
0.000545325
0.00051994
0.000497625
0.000477888
0.000460408
0.000444803
0.00043088
0.000418332
0.000407064
0.000396814
0.000387563
0.000379074
0.000371382
0.000364265
0.0003578
0.000351766
0.000346281
0.000341114
0.000336421
0.00033196
0.000327915
0.000324032
0.000320524
0.000317121
0.000314062
0.000311061
0.00030838
0.000305719
0.00030336
0.000300988
0.000298905
0.000296782
0.000294937
0.000293028
0.000291389
0.000289665
0.000288206
0.000286645
0.000285342
0.000283923
0.000282759
0.000281466
0.000280423
0.000279242
0.000278306
0.000277225
0.000276385
0.000275393
0.000274638
0.000273729
0.000273046
0.000272213
0.000271595
0.00027083
0.000270272
0.000269568
0.000269063
0.000268415
0.000267959
0.00026736
0.000266948
0.000266394
0.000266022
0.000265517
0.000265187
0.000264709
0.000264395
0.00026393
0.000263631
0.000263179
0.000262895
0.000262453
0.000262184
0.000261751
0.000261499
0.000261073
0.00026084
0.000260422
0.000260206
0.0002598
0.000259603
0.000259202
0.000259027
0.000258609
0.000261482
0.0120517
0.0119207
0.00102381
0.000932706
0.000857625
0.000793503
0.00073753
0.000688338
0.000645148
0.000607334
0.000574257
0.000545325
0.000519935
0.000497615
0.000477872
0.000460388
0.000444778
0.00043085
0.000418297
0.000407025
0.000396771
0.000387516
0.000379024
0.000371329
0.000364208
0.000357741
0.000351704
0.000346216
0.000341047
0.000336352
0.000331889
0.000327842
0.000323957
0.000320447
0.000317042
0.000313982
0.000310979
0.000308297
0.000305634
0.000303274
0.000300901
0.000298817
0.000296693
0.000294847
0.000292937
0.000291297
0.000289572
0.000288112
0.00028655
0.000285247
0.000283827
0.000282662
0.000281368
0.000280325
0.000279143
0.000278207
0.000277125
0.000276284
0.000275292
0.000274536
0.000273626
0.000272943
0.000272109
0.000271492
0.000270726
0.000270167
0.000269463
0.000268958
0.000268309
0.000267852
0.000267253
0.000266841
0.000266286
0.000265914
0.000265409
0.000265078
0.0002646
0.000264286
0.000263821
0.000263522
0.000263069
0.000262785
0.000262342
0.000262073
0.00026164
0.000261388
0.000260961
0.000260728
0.00026031
0.000260094
0.000259687
0.00025949
0.000259089
0.000258914
0.000258495
0.000261394
0.0121854
0.0120572
0.00102381
0.000932704
0.000857625
0.000793507
0.000737539
0.00068835
0.000645161
0.000607345
0.000574264
0.000545326
0.00051993
0.000497603
0.000477854
0.000460363
0.000444747
0.000430813
0.000418255
0.000406977
0.000396719
0.000387458
0.000378962
0.000371263
0.000364139
0.000357667
0.000351628
0.000346137
0.000340965
0.000336266
0.000331801
0.000327751
0.000323864
0.000320352
0.000316946
0.000313883
0.000310879
0.000308195
0.00030553
0.000303169
0.000300794
0.000298709
0.000296583
0.000294736
0.000292824
0.000291183
0.000289458
0.000287996
0.000286433
0.000285129
0.000283708
0.000282542
0.000281248
0.000280204
0.000279021
0.000278084
0.000277001
0.00027616
0.000275167
0.00027441
0.0002735
0.000272816
0.000271982
0.000271364
0.000270598
0.000270038
0.000269334
0.000268828
0.000268178
0.000267721
0.000267121
0.000266709
0.000266154
0.000265781
0.000265276
0.000264945
0.000264466
0.000264151
0.000263686
0.000263386
0.000262933
0.000262649
0.000262206
0.000261937
0.000261503
0.000261251
0.000260824
0.00026059
0.000260171
0.000259955
0.000259548
0.00025935
0.000258949
0.000258774
0.000258355
0.000261286
0.0123503
0.0122266
0.00102381
0.000932702
0.000857625
0.000793512
0.000737549
0.000688364
0.000645176
0.000607357
0.000574271
0.000545327
0.000519923
0.000497589
0.000477832
0.000460333
0.00044471
0.000430769
0.000418205
0.00040692
0.000396656
0.00038739
0.000378889
0.000371185
0.000364056
0.000357581
0.000351537
0.000346042
0.000340867
0.000336165
0.000331696
0.000327644
0.000323754
0.000320239
0.000316831
0.000313765
0.000310759
0.000308073
0.000305407
0.000303043
0.000300667
0.00029858
0.000296452
0.000294604
0.000292691
0.000291048
0.000289321
0.000287859
0.000286294
0.000284989
0.000283567
0.0002824
0.000281105
0.000280059
0.000278876
0.000277938
0.000276854
0.000276012
0.000275018
0.000274261
0.00027335
0.000272665
0.00027183
0.000271211
0.000270444
0.000269884
0.000269179
0.000268673
0.000268022
0.000267565
0.000266965
0.000266552
0.000265996
0.000265623
0.000265117
0.000264786
0.000264307
0.000263991
0.000263525
0.000263226
0.000262772
0.000262487
0.000262044
0.000261774
0.00026134
0.000261087
0.00026066
0.000260426
0.000260007
0.00025979
0.000259383
0.000259185
0.000258783
0.000258607
0.000258189
0.000261157
0.0125471
0.0124309
0.00102381
0.0009327
0.000857624
0.000793517
0.000737562
0.000688381
0.000645193
0.000607371
0.00057428
0.000545328
0.000519916
0.000497573
0.000477807
0.000460299
0.000444668
0.000430719
0.000418146
0.000406854
0.000396584
0.000387311
0.000378804
0.000371094
0.000363961
0.00035748
0.000351432
0.000345932
0.000340753
0.000336047
0.000331575
0.000327519
0.000323626
0.000320108
0.000316697
0.000313629
0.00031062
0.000307932
0.000305263
0.000302898
0.000300519
0.00029843
0.0002963
0.00029445
0.000292536
0.000290892
0.000289163
0.000287699
0.000286133
0.000284826
0.000283403
0.000282235
0.000280938
0.000279892
0.000278707
0.000277768
0.000276684
0.000275841
0.000274846
0.000274087
0.000273175
0.00027249
0.000271654
0.000271034
0.000270267
0.000269706
0.000269
0.000268493
0.000267842
0.000267384
0.000266783
0.000266369
0.000265813
0.000265439
0.000264933
0.000264601
0.000264121
0.000263805
0.000263339
0.000263039
0.000262584
0.000262299
0.000261855
0.000261585
0.00026115
0.000260897
0.000260469
0.000260235
0.000259815
0.000259598
0.00025919
0.000258992
0.000258589
0.000258414
0.000257995
0.000261008
0.0127765
0.0126716
0.00102381
0.000932698
0.000857624
0.000793523
0.000737576
0.0006884
0.000645213
0.000607388
0.00057429
0.00054533
0.000519909
0.000497555
0.000477779
0.000460261
0.00044462
0.000430661
0.00041808
0.00040678
0.000396502
0.000387222
0.000378708
0.000370991
0.000363852
0.000357365
0.000351312
0.000345807
0.000340624
0.000335913
0.000331437
0.000327377
0.000323481
0.000319959
0.000316545
0.000313473
0.000310462
0.000307771
0.000305099
0.000302731
0.00030035
0.000298259
0.000296127
0.000294275
0.000292358
0.000290713
0.000288982
0.000287516
0.000285949
0.000284641
0.000283216
0.000282046
0.000280748
0.0002797
0.000278515
0.000277574
0.000276489
0.000275645
0.000274648
0.000273889
0.000272976
0.00027229
0.000271453
0.000270832
0.000270064
0.000269502
0.000268795
0.000268287
0.000267635
0.000267177
0.000266575
0.000266161
0.000265604
0.000265229
0.000264722
0.00026439
0.000263909
0.000263593
0.000263126
0.000262825
0.00026237
0.000262085
0.00026164
0.00026137
0.000260934
0.00026068
0.000260252
0.000260017
0.000259596
0.000259379
0.000258971
0.000258772
0.000258368
0.000258193
0.000257774
0.000260839
0.0130389
0.0129507
0.00102381
0.000932695
0.000857624
0.00079353
0.000737592
0.000688421
0.000645236
0.000607407
0.000574302
0.000545332
0.000519901
0.000497535
0.000477748
0.000460218
0.000444566
0.000430597
0.000418006
0.000406696
0.00039641
0.000387121
0.0003786
0.000370876
0.000363729
0.000357236
0.000351177
0.000345667
0.000340478
0.000335763
0.000331282
0.000327217
0.000323317
0.000319791
0.000316373
0.000313299
0.000310284
0.000307589
0.000304915
0.000302544
0.00030016
0.000298067
0.000295933
0.000294078
0.000292159
0.000290511
0.000288779
0.000287311
0.000285742
0.000284432
0.000283006
0.000281834
0.000280535
0.000279485
0.000278298
0.000277356
0.000276269
0.000275424
0.000274427
0.000273666
0.000272752
0.000272064
0.000271226
0.000270605
0.000269835
0.000269273
0.000268565
0.000268056
0.000267403
0.000266944
0.000266341
0.000265926
0.000265368
0.000264993
0.000264485
0.000264152
0.000263671
0.000263354
0.000262886
0.000262585
0.000262128
0.000261843
0.000261397
0.000261127
0.00026069
0.000260436
0.000260006
0.000259771
0.00025935
0.000259133
0.000258723
0.000258524
0.000258119
0.000257944
0.000257526
0.000260649
0.0133345
0.0132701
0.00102381
0.000932692
0.000857623
0.000793538
0.00073761
0.000688445
0.000645261
0.000607428
0.000574316
0.000545336
0.000519892
0.000497514
0.000477714
0.000460172
0.000444507
0.000430526
0.000417925
0.000406604
0.000396308
0.00038701
0.00037848
0.000370748
0.000363594
0.000357093
0.000351028
0.000345511
0.000340317
0.000335596
0.00033111
0.00032704
0.000323135
0.000319605
0.000316183
0.000313104
0.000310086
0.000307388
0.00030471
0.000302336
0.00029995
0.000297853
0.000295716
0.000293859
0.000291938
0.000290287
0.000288553
0.000287083
0.000285511
0.0002842
0.000282771
0.000281598
0.000280297
0.000279246
0.000278057
0.000277114
0.000276025
0.000275178
0.00027418
0.000273418
0.000272502
0.000271813
0.000270974
0.000270352
0.000269581
0.000269017
0.000268308
0.000267799
0.000267144
0.000266684
0.00026608
0.000265665
0.000265106
0.00026473
0.000264221
0.000263888
0.000263405
0.000263088
0.000262619
0.000262317
0.00026186
0.000261574
0.000261127
0.000260856
0.000260418
0.000260164
0.000259734
0.000259498
0.000259076
0.000258858
0.000258447
0.000258248
0.000257842
0.000257667
0.000257249
0.000260438
0.0136631
0.013632
0.00102381
0.000932688
0.000857622
0.000793547
0.000737629
0.000688472
0.00064529
0.000607452
0.000574332
0.00054534
0.000519883
0.000497491
0.000477677
0.000460121
0.000444443
0.000430449
0.000417835
0.000406503
0.000396196
0.000386888
0.000378348
0.000370607
0.000363445
0.000356936
0.000350863
0.00034534
0.000340139
0.000335412
0.00033092
0.000326845
0.000322935
0.0003194
0.000315973
0.00031289
0.000309868
0.000307166
0.000304485
0.000302107
0.000299717
0.000297617
0.000295478
0.000293617
0.000291694
0.000290041
0.000288304
0.000286831
0.000285258
0.000283943
0.000282513
0.000281338
0.000280035
0.000278982
0.000277791
0.000276846
0.000275756
0.000274908
0.000273907
0.000273144
0.000272227
0.000271537
0.000270696
0.000270072
0.0002693
0.000268736
0.000268025
0.000267515
0.000266859
0.000266398
0.000265793
0.000265377
0.000264817
0.00026444
0.00026393
0.000263596
0.000263112
0.000262795
0.000262324
0.000262022
0.000261564
0.000261277
0.000260829
0.000260558
0.000260119
0.000259865
0.000259433
0.000259197
0.000258773
0.000258555
0.000258143
0.000257943
0.000257537
0.000257361
0.000256943
0.000260206
0.0140243
0.0140386
0.00102381
0.000932684
0.000857621
0.000793556
0.000737651
0.000688501
0.000645321
0.000607479
0.00057435
0.000545345
0.000519874
0.000497466
0.000477638
0.000460066
0.000444374
0.000430365
0.000417738
0.000406393
0.000396074
0.000386755
0.000378205
0.000370454
0.000363283
0.000356765
0.000350684
0.000345153
0.000339945
0.000335211
0.000330713
0.000326632
0.000322716
0.000319176
0.000315745
0.000312657
0.00030963
0.000306924
0.000304239
0.000301857
0.000299463
0.00029736
0.000295217
0.000293353
0.000291427
0.000289771
0.000288031
0.000286556
0.00028498
0.000283663
0.000282231
0.000281053
0.000279748
0.000278693
0.0002775
0.000276554
0.000275461
0.000274612
0.000273609
0.000272844
0.000271926
0.000271234
0.000270392
0.000269767
0.000268993
0.000268428
0.000267716
0.000267204
0.000266547
0.000266086
0.000265479
0.000265061
0.0002645
0.000264123
0.000263612
0.000263277
0.000262792
0.000262473
0.000262002
0.000261699
0.00026124
0.000260952
0.000260503
0.000260232
0.000259791
0.000259536
0.000259103
0.000258867
0.000258442
0.000258224
0.000257811
0.00025761
0.000257202
0.000257026
0.000256609
0.000259952
0.0144171
0.014492
0.00102381
0.00093268
0.00085762
0.000793566
0.000737674
0.000688533
0.000645355
0.000607508
0.00057437
0.000545351
0.000519866
0.000497441
0.000477596
0.000460007
0.000444299
0.000430275
0.000417634
0.000406275
0.000395943
0.000386611
0.00037805
0.000370288
0.000363107
0.00035658
0.00035049
0.000344951
0.000339735
0.000334993
0.000330489
0.000326401
0.00032248
0.000318933
0.000315496
0.000312403
0.000309372
0.00030666
0.000303971
0.000301585
0.000299188
0.000297081
0.000294934
0.000293067
0.000291137
0.000289478
0.000287735
0.000286257
0.000284678
0.000283359
0.000281924
0.000280744
0.000279437
0.000278379
0.000277184
0.000276236
0.000275142
0.00027429
0.000273286
0.000272519
0.000271598
0.000270906
0.000270061
0.000269435
0.00026866
0.000268093
0.000267379
0.000266867
0.000266208
0.000265745
0.000265137
0.000264719
0.000264156
0.000263778
0.000263266
0.00026293
0.000262444
0.000262124
0.000261651
0.000261348
0.000260887
0.000260599
0.000260149
0.000259877
0.000259435
0.00025918
0.000258745
0.000258508
0.000258083
0.000257863
0.000257449
0.000257248
0.000256839
0.000256663
0.000256246
0.000259678
0.0148404
0.0149946
0.00102381
0.000932676
0.000857619
0.000793576
0.000737699
0.000688568
0.000645393
0.00060754
0.000574392
0.000545359
0.000519857
0.000497414
0.000477552
0.000459944
0.00044422
0.000430179
0.000417522
0.000406148
0.000395802
0.000386457
0.000377884
0.00037011
0.000362918
0.000356381
0.000350282
0.000344733
0.000339509
0.000334759
0.000330247
0.000326152
0.000322224
0.000318671
0.000315229
0.00031213
0.000309093
0.000306377
0.000303683
0.000301292
0.00029889
0.000296779
0.000294629
0.000292757
0.000290824
0.000289162
0.000287416
0.000285934
0.000284353
0.000283031
0.000281593
0.00028041
0.0002791
0.000278041
0.000276843
0.000275892
0.000274796
0.000273942
0.000272936
0.000272168
0.000271245
0.00027055
0.000269704
0.000269077
0.000268299
0.000267731
0.000267016
0.000266502
0.000265842
0.000265378
0.000264768
0.000264349
0.000263784
0.000263406
0.000262891
0.000262555
0.000262067
0.000261747
0.000261273
0.000260969
0.000260506
0.000260218
0.000259766
0.000259493
0.00025905
0.000258794
0.000258358
0.000258121
0.000257694
0.000257474
0.000257058
0.000256856
0.000256446
0.000256269
0.000255853
0.000259381
0.0152923
0.0155486
0.00102381
0.000932671
0.000857618
0.000793588
0.000737726
0.000688605
0.000645433
0.000607576
0.000574417
0.000545368
0.000519849
0.000497387
0.000477505
0.000459878
0.000444136
0.000430076
0.000417403
0.000406012
0.000395652
0.000386292
0.000377706
0.000369919
0.000362716
0.000356167
0.000350058
0.000344499
0.000339266
0.000334508
0.000329988
0.000325885
0.00032195
0.00031839
0.000314941
0.000311836
0.000308794
0.000306072
0.000303373
0.000300977
0.000298571
0.000296455
0.0002943
0.000292425
0.000290488
0.000288822
0.000287072
0.000285588
0.000284003
0.000282678
0.000281237
0.000280052
0.000278739
0.000277676
0.000276476
0.000275523
0.000274424
0.000273569
0.00027256
0.00027179
0.000270865
0.000270169
0.000269321
0.000268691
0.000267912
0.000267342
0.000266625
0.00026611
0.000265448
0.000264982
0.000264371
0.000263951
0.000263385
0.000263005
0.000262489
0.000262151
0.000261662
0.000261341
0.000260865
0.000260561
0.000260097
0.000259807
0.000259354
0.00025908
0.000258636
0.000258379
0.000257942
0.000257704
0.000257275
0.000257054
0.000256637
0.000256435
0.000256023
0.000255846
0.000255431
0.000259062
0.0157705
0.0161565
0.00102381
0.000932666
0.000857617
0.0007936
0.000737755
0.000688645
0.000645477
0.000607614
0.000574444
0.000545379
0.000519841
0.000497358
0.000477457
0.000459809
0.000444047
0.000429968
0.000417277
0.000405868
0.000395492
0.000386117
0.000377517
0.000369716
0.000362501
0.00035594
0.00034982
0.00034425
0.000339008
0.000334239
0.000329711
0.0003256
0.000321657
0.00031809
0.000314634
0.000311522
0.000308474
0.000305746
0.000303042
0.000300641
0.000298229
0.000296108
0.00029395
0.00029207
0.000290129
0.000288458
0.000286705
0.000285217
0.000283628
0.0002823
0.000280856
0.000279668
0.000278352
0.000277287
0.000276084
0.000275128
0.000274027
0.000273169
0.000272158
0.000271385
0.000270458
0.00026976
0.00026891
0.000268278
0.000267497
0.000266926
0.000266207
0.00026569
0.000265026
0.000264559
0.000263946
0.000263524
0.000262957
0.000262576
0.000262058
0.00026172
0.000261229
0.000260907
0.000260429
0.000260124
0.000259658
0.000259368
0.000258913
0.000258639
0.000258192
0.000257935
0.000257496
0.000257257
0.000256827
0.000256606
0.000256187
0.000255984
0.00025557
0.000255393
0.000254978
0.000258721
0.0162721
0.0168203
0.00102381
0.00093266
0.000857615
0.000793612
0.000737786
0.000688688
0.000645524
0.000607656
0.000574474
0.000545391
0.000519834
0.00049733
0.000477406
0.000459737
0.000443953
0.000429854
0.000417144
0.000405717
0.000395324
0.000385931
0.000377317
0.000369501
0.000362272
0.000355698
0.000349567
0.000343985
0.000338733
0.000333954
0.000329417
0.000325297
0.000321346
0.000317771
0.000314308
0.000311189
0.000308134
0.000305399
0.000302689
0.000300282
0.000297866
0.00029574
0.000293576
0.000291692
0.000289746
0.000288071
0.000286314
0.000284822
0.00028323
0.000281898
0.00028045
0.000279259
0.000277939
0.000276872
0.000275666
0.000274707
0.000273603
0.000272742
0.000271729
0.000270954
0.000270025
0.000269324
0.000268472
0.000267838
0.000267055
0.000266482
0.00026576
0.000265242
0.000264576
0.000264108
0.000263493
0.00026307
0.0002625
0.000262118
0.000261599
0.000261259
0.000260766
0.000260444
0.000259964
0.000259658
0.00025919
0.000258899
0.000258442
0.000258167
0.000257719
0.000257461
0.000257021
0.000256781
0.000256349
0.000256127
0.000255706
0.000255502
0.000255087
0.00025491
0.000254496
0.000258356
0.0167934
0.0175422
0.00102381
0.000932654
0.000857613
0.000793625
0.000737819
0.000688734
0.000645575
0.000607701
0.000574507
0.000545406
0.000519829
0.000497301
0.000477355
0.000459661
0.000443856
0.000429734
0.000417004
0.000405557
0.000395146
0.000385736
0.000377105
0.000369273
0.000362031
0.000355443
0.000349299
0.000343705
0.000338442
0.000333653
0.000329106
0.000324976
0.000321016
0.000317432
0.000313962
0.000310835
0.000307773
0.000305032
0.000302315
0.000299902
0.00029748
0.000295348
0.000293179
0.00029129
0.00028934
0.00028766
0.000285899
0.000284403
0.000282806
0.00028147
0.000280019
0.000278824
0.000277502
0.000276431
0.000275222
0.00027426
0.000273153
0.00027229
0.000271274
0.000270496
0.000269564
0.000268861
0.000268006
0.000267371
0.000266585
0.00026601
0.000265286
0.000264766
0.000264098
0.000263629
0.000263011
0.000262587
0.000262015
0.000261632
0.00026111
0.00026077
0.000260275
0.000259951
0.00025947
0.000259162
0.000258693
0.000258401
0.000257942
0.000257666
0.000257216
0.000256958
0.000256515
0.000256275
0.000255841
0.000255618
0.000255196
0.000254991
0.000254573
0.000254396
0.000253983
0.000257967
0.0173304
0.0183238
0.00102381
0.000932648
0.000857611
0.000793639
0.000737853
0.000688783
0.000645629
0.00060775
0.000574543
0.000545423
0.000519824
0.000497272
0.000477302
0.000459583
0.000443755
0.00042961
0.000416858
0.000405389
0.000394959
0.00038553
0.000376883
0.000369034
0.000361777
0.000355174
0.000349017
0.00034341
0.000338135
0.000333334
0.000328777
0.000324637
0.000320668
0.000317075
0.000313596
0.000310461
0.000307392
0.000304643
0.00030192
0.0002995
0.000297072
0.000294935
0.00029276
0.000290865
0.00028891
0.000287226
0.00028546
0.000283959
0.000282358
0.000281018
0.000279563
0.000278365
0.000277038
0.000275964
0.000274752
0.000273787
0.000272677
0.00027181
0.000270791
0.000270011
0.000269076
0.000268371
0.000267513
0.000266876
0.000266087
0.00026551
0.000264784
0.000264262
0.000263592
0.000263121
0.000262501
0.000262075
0.000261501
0.000261116
0.000260593
0.000260251
0.000259755
0.00025943
0.000258946
0.000258638
0.000258166
0.000257873
0.000257412
0.000257136
0.000256684
0.000256424
0.000255979
0.000255738
0.000255302
0.000255078
0.000254655
0.000254449
0.000254029
0.000253852
0.00025344
0.000257554
0.0178779
0.0191665
0.00102381
0.000932641
0.000857609
0.000793654
0.00073789
0.000688835
0.000645687
0.000607802
0.000574583
0.000545443
0.000519821
0.000497243
0.000477248
0.000459503
0.00044365
0.00042948
0.000416706
0.000405215
0.000394764
0.000385315
0.000376649
0.000368783
0.00036151
0.000354892
0.000348721
0.0003431
0.000337813
0.000332999
0.000328431
0.00032428
0.000320302
0.000316699
0.000313211
0.000310067
0.000306991
0.000304234
0.000301504
0.000299077
0.000296643
0.000294498
0.000292318
0.000290417
0.000288457
0.000286767
0.000284996
0.000283491
0.000281886
0.000280541
0.000279082
0.000277879
0.000276549
0.000275471
0.000274255
0.000273288
0.000272174
0.000271304
0.000270282
0.000269499
0.000268562
0.000267854
0.000266993
0.000266353
0.000265562
0.000264983
0.000264254
0.00026373
0.000263058
0.000262584
0.000261962
0.000261535
0.000260959
0.000260572
0.000260047
0.000259704
0.000259205
0.000258879
0.000258393
0.000258083
0.00025761
0.000257316
0.000256853
0.000256575
0.000256121
0.00025586
0.000255414
0.000255171
0.000254734
0.000254509
0.000254083
0.000253876
0.000253454
0.000253277
0.000252866
0.000257116
0.0184304
0.020071
0.00102382
0.000932635
0.000857606
0.000793669
0.000737928
0.000688889
0.000645749
0.000607859
0.000574626
0.000545465
0.00051982
0.000497215
0.000477193
0.000459421
0.000443542
0.000429345
0.000416547
0.000405033
0.000394561
0.000385091
0.000376406
0.000368521
0.000361231
0.000354596
0.00034841
0.000342775
0.000337474
0.000332648
0.000328068
0.000323905
0.000319917
0.000316304
0.000312807
0.000309654
0.000306569
0.000303804
0.000301066
0.000298632
0.000296191
0.00029404
0.000291853
0.000289946
0.00028798
0.000286285
0.000284509
0.000282998
0.000281388
0.00028004
0.000278576
0.000277369
0.000276035
0.000274953
0.000273733
0.000272762
0.000271645
0.000270772
0.000269746
0.00026896
0.000268019
0.000267309
0.000266445
0.000265803
0.000265009
0.000264427
0.000263696
0.00026317
0.000262495
0.00026202
0.000261395
0.000260966
0.000260387
0.000259999
0.000259472
0.000259127
0.000258626
0.000258298
0.00025781
0.000257499
0.000257023
0.000256729
0.000256263
0.000255984
0.000255528
0.000255266
0.000254817
0.000254574
0.000254134
0.000253908
0.00025348
0.000253272
0.000252848
0.000252671
0.000252261
0.000256652
0.0189815
0.0210372
0.00102382
0.000932627
0.000857603
0.000793684
0.000737968
0.000688947
0.000645814
0.000607919
0.000574673
0.000545491
0.000519821
0.000497188
0.000477138
0.000459337
0.00044343
0.000429207
0.000416383
0.000404844
0.000394349
0.000384857
0.000376152
0.000368248
0.00036094
0.000354287
0.000348086
0.000342435
0.000337121
0.000332281
0.000327689
0.000323513
0.000319514
0.00031589
0.000312384
0.00030922
0.000306127
0.000303353
0.000300607
0.000298165
0.000295717
0.000293558
0.000291366
0.000289452
0.00028748
0.000285779
0.000283997
0.000282481
0.000280867
0.000279513
0.000278045
0.000276833
0.000275495
0.000274408
0.000273185
0.00027221
0.000271089
0.000270212
0.000269184
0.000268394
0.00026745
0.000266737
0.00026587
0.000265225
0.000264428
0.000263844
0.00026311
0.000262582
0.000261903
0.000261426
0.000260799
0.000260368
0.000259787
0.000259397
0.000258867
0.000258521
0.000258017
0.000257688
0.000257198
0.000256886
0.000256407
0.000256111
0.000255643
0.000255364
0.000254905
0.000254642
0.000254191
0.000253947
0.000253504
0.000253277
0.000252847
0.000252638
0.000252211
0.000252034
0.000251626
0.00025616
0.0195241
0.022064
0.00102382
0.00093262
0.0008576
0.0007937
0.00073801
0.000689008
0.000645883
0.000607983
0.000574723
0.000545519
0.000519824
0.000497162
0.000477083
0.000459251
0.000443316
0.000429064
0.000416214
0.000404648
0.00039413
0.000384614
0.000375889
0.000367963
0.000360637
0.000353966
0.000347748
0.000342081
0.000336752
0.000331897
0.000327293
0.000323104
0.000319094
0.000315458
0.000311941
0.000308768
0.000305665
0.000302881
0.000300128
0.000297677
0.000295221
0.000293055
0.000290855
0.000288935
0.000286957
0.000285249
0.000283462
0.00028194
0.00028032
0.000278961
0.000277488
0.000276272
0.000274929
0.000273838
0.00027261
0.000271631
0.000270506
0.000269627
0.000268594
0.000267801
0.000266854
0.000266137
0.000265267
0.000264619
0.000263819
0.000263232
0.000262495
0.000261965
0.000261283
0.000260804
0.000260174
0.000259741
0.000259157
0.000258766
0.000258233
0.000257885
0.000257379
0.000257049
0.000256556
0.000256242
0.000255761
0.000255464
0.000254994
0.000254713
0.000254251
0.000253988
0.000253534
0.000253288
0.000252844
0.000252616
0.000252183
0.000251973
0.000251543
0.000251366
0.000250959
0.00025564
0.0200503
0.0231489
0.00102382
0.000932612
0.000857597
0.000793717
0.000738054
0.000689072
0.000645957
0.000608052
0.000574778
0.000545551
0.00051983
0.000497137
0.000477028
0.000459165
0.0004432
0.000428917
0.00041604
0.000404447
0.000393904
0.000384363
0.000375616
0.000367668
0.000360322
0.000353632
0.000347397
0.000341712
0.000336368
0.000331498
0.00032688
0.000322678
0.000318655
0.000315007
0.00031148
0.000308295
0.000305183
0.00030239
0.000299627
0.000297167
0.000294704
0.00029253
0.000290323
0.000288395
0.00028641
0.000284696
0.000282903
0.000281375
0.00027975
0.000278385
0.000276907
0.000275686
0.000274338
0.000273243
0.00027201
0.000271027
0.000269898
0.000269014
0.000267977
0.000267181
0.00026623
0.00026551
0.000264636
0.000263986
0.000263182
0.000262593