/*--------------------------------*- C++ -*----------------------------------*\
| =========                 |                                                 |
| \\      /  F ield         | OpenFOAM: The Open Source CFD Toolbox           |
|  \\    /   O peration     | Version:  v2012                                 |
|   \\  /    A nd           | Website:  www.openfoam.com                      |
|    \\/     M anipulation  |                                                 |
\*---------------------------------------------------------------------------*/
FoamFile
{
    version     2.0;
    format      ascii;
    class       volScalarField;
    location    "59.5";
    object      yPlus;
}
// * * * * * * * * * * * * * * * * * * * * * * * * * * * * * * * * * * * * * //

dimensions      [0 0 0 0 0 0 0];


internalField   uniform 0;

boundaryField
{
    inlet
    {
        type            calculated;
        value           uniform 0;
    }
    outlet
    {
        type            calculated;
        value           uniform 0;
    }
    topWall
    {
        type            calculated;
        value           nonuniform List<scalar> 
545
(
0.153782
0.265162
0.340175
0.39987
0.450405
0.494621
0.534114
0.569889
0.602629
0.632827
0.660849
0.686982
0.71145
0.734439
0.756098
0.776556
0.795921
0.814285
0.831729
0.848323
0.864131
0.879206
0.893599
0.907354
0.920511
0.933106
0.945173
0.956742
0.967841
0.978495
0.988727
0.998561
1.00802
1.01711
1.02586
1.03429
1.04241
1.05023
1.05776
1.06503
1.07204
1.0788
1.08532
1.09162
1.09771
1.10358
1.10926
1.11474
1.12004
1.12517
1.13012
1.13491
1.13955
1.14403
1.14837
1.15258
1.15664
1.16058
1.16439
1.16808
1.17166
1.17512
1.17848
1.18173
1.18489
1.18794
1.19091
1.19378
1.19656
1.19926
1.20188
1.20442
1.20686
1.20921
1.21154
1.21386
1.21616
1.21844
1.2207
1.22294
1.22517
1.22737
1.22956
1.23174
1.23389
1.23603
1.23815
1.24026
1.24235
1.24442
1.24648
1.24852
1.25055
1.25256
1.25455
1.25653
1.25831
1.25991
1.2615
1.2631
1.26469
1.26629
1.26788
1.26947
1.27107
1.27266
1.27425
1.27584
1.27743
1.27902
1.28062
1.28221
1.2838
1.28539
1.28697
1.28856
1.29015
1.29174
1.29333
1.29491
1.2965
1.29808
1.29967
1.30125
1.30284
1.30442
1.30601
1.30759
1.30917
1.31075
1.31233
1.31391
1.31549
1.31707
1.31865
1.32023
1.3218
1.32338
1.32496
1.32653
1.32811
1.32968
1.33125
1.33282
1.3344
1.33597
1.33754
1.3391
1.34067
1.34224
1.34381
1.34537
1.34694
1.3485
1.35006
1.35163
1.35319
1.35475
1.35631
1.35787
1.35942
1.36098
1.36253
1.36409
1.36564
1.36719
1.36875
1.3703
1.37185
1.37339
1.37494
1.37649
1.37803
1.37957
1.38112
1.38266
1.3842
1.38574
1.38727
1.38881
1.39035
1.39188
1.39341
1.39494
1.39647
1.398
1.39953
1.40106
1.40258
1.4041
1.40563
1.40715
1.40867
1.41018
1.4117
1.41321
1.41473
1.41624
1.41775
1.41926
1.42076
1.42227
1.42377
1.42528
1.42678
1.42828
1.42977
1.43127
1.43276
1.43426
1.43575
1.43723
1.43872
1.44021
1.44169
1.44317
1.44465
1.44613
1.44761
1.44908
1.45055
1.45202
1.45349
1.45496
1.45642
1.45789
1.45935
1.46081
1.46226
1.46372
1.46517
1.46662
1.46807
1.46951
1.47096
1.4724
1.47384
1.47528
1.47671
1.47814
1.47958
1.481
1.48243
1.48385
1.48528
1.48669
1.48811
1.48953
1.49094
1.49235
1.49375
1.49516
1.49656
1.49796
1.49936
1.50075
1.50215
1.50354
1.50492
1.50631
1.50769
1.50907
1.51044
1.51182
1.51319
1.51456
1.51592
1.51728
1.51864
1.51993
1.52113
1.52235
1.52358
1.52481
1.52605
1.5273
1.52856
1.52983
1.5311
1.53238
1.53368
1.53497
1.53628
1.5376
1.53892
1.54025
1.54159
1.54294
1.54429
1.54566
1.54703
1.54841
1.54979
1.55119
1.55259
1.554
1.55541
1.55684
1.55827
1.55971
1.56115
1.56261
1.56407
1.56553
1.56701
1.56849
1.56998
1.57147
1.57297
1.57448
1.57599
1.57751
1.57904
1.58057
1.5821
1.58365
1.58519
1.58675
1.58831
1.58987
1.59144
1.59301
1.59459
1.59617
1.59776
1.59935
1.60095
1.60254
1.60415
1.60575
1.60736
1.60897
1.61059
1.6122
1.61382
1.61544
1.61706
1.61869
1.62031
1.62194
1.62357
1.6252
1.62682
1.62845
1.63008
1.63171
1.63334
1.63496
1.63658
1.63821
1.63983
1.64144
1.64306
1.64467
1.64628
1.64788
1.64949
1.65108
1.65267
1.65426
1.65584
1.65742
1.65898
1.66055
1.6621
1.66365
1.66519
1.66672
1.66824
1.66975
1.67126
1.67275
1.67423
1.67571
1.67717
1.67862
1.68005
1.68148
1.68289
1.68429
1.68567
1.68704
1.68839
1.68973
1.69105
1.69236
1.69365
1.69492
1.69618
1.69741
1.69863
1.69983
1.70101
1.70217
1.7033
1.70442
1.70551
1.70658
1.70763
1.70866
1.70966
1.71064
1.71159
1.71252
1.71343
1.71431
1.71516
1.71598
1.71678
1.71755
1.71829
1.719
1.71968
1.72034
1.72096
1.72156
1.72212
1.72266
1.72316
1.72363
1.72407
1.72447
1.72485
1.72519
1.7255
1.72577
1.72601
1.72622
1.7264
1.72654
1.72664
1.72672
1.72675
1.72675
1.72672
1.72665
1.72655
1.72641
1.72624
1.72603
1.72578
1.72551
1.72519
1.72485
1.72446
1.72404
1.72359
1.72311
1.72258
1.72203
1.72137
1.72061
1.7198
1.71897
1.71809
1.71719
1.71625
1.7153
1.7143
1.7133
1.71226
1.7112
1.71013
1.70904
1.70792
1.7068
1.70566
1.70451
1.70334
1.70218
1.70099
1.69981
1.69861
1.69741
1.69621
1.695
1.69379
1.69259
1.69137
1.69017
1.68896
1.68776
1.68655
1.68536
1.68416
1.68298
1.6818
1.68063
1.67947
1.67831
1.67717
1.67603
1.67491
1.6738
1.67269
1.67161
1.67053
1.66947
1.66842
1.66739
1.66636
1.66537
1.66438
1.66341
1.66246
1.66152
1.6606
1.65971
1.65883
1.65797
1.65713
1.65631
1.65551
1.65473
1.65397
1.65324
1.65253
1.65184
1.65117
1.65052
1.6499
1.6493
1.64872
1.64818
1.64765
1.64715
1.64667
1.64622
1.64579
1.64539
1.64501
1.64466
1.64434
1.64404
1.64377
1.64352
1.6433
1.64311
1.64294
1.6428
1.64269
1.64261
1.64255
1.64252
1.6425
)
;
    }
    bottomWall
    {
        type            calculated;
        value           nonuniform List<scalar> 
449
(
0.00273456
0.0047963
0.00537231
0.00532575
0.00525518
0.00515933
0.00506208
0.00497109
0.00488758
0.00481125
0.00474142
0.00467738
0.00461845
0.00456388
0.00451316
0.0044659
0.00442168
0.0043802
0.00434113
0.00430423
0.00426931
0.00423619
0.00420468
0.00417467
0.00414601
0.00411861
0.00409237
0.0040672
0.00404302
0.00401976
0.00399736
0.00397576
0.00395492
0.00393478
0.0039153
0.00389643
0.00387817
0.00386044
0.00384324
0.00382652
0.00381028
0.00379447
0.00377908
0.00376409
0.00374948
0.00373523
0.00372134
0.00370777
0.00369454
0.00368161
0.00366898
0.00365664
0.00364455
0.00363275
0.00362117
0.00360985
0.00359875
0.00358788
0.0035772
0.00356674
0.00355647
0.00354639
0.00353649
0.00352677
0.0035172
0.00350782
0.00349858
0.0034895
0.00348056
0.00347177
0.00346312
0.0034546
0.00344621
0.00343795
0.00342982
0.0034218
0.0034139
0.00340612
0.00339844
0.00339088
0.00338341
0.00337605
0.00336879
0.00336163
0.00335456
0.00334758
0.0033407
0.0033339
0.00332718
0.00332055
0.00331401
0.00330754
0.00330115
0.00329483
0.00328859
0.00328242
0.00327633
0.0032703
0.00326434
0.00325845
0.00325262
0.00324686
0.00324116
0.00323552
0.00322993
0.00322441
0.00321895
0.00321354
0.00320818
0.00320288
0.00319764
0.00319244
0.0031873
0.0031822
0.00317716
0.00317216
0.00316721
0.0031623
0.00315744
0.00315263
0.00314786
0.00314313
0.00313844
0.0031338
0.0031292
0.00312463
0.00312011
0.00311562
0.00311118
0.00310677
0.00310239
0.00309806
0.00309375
0.00308949
0.00308526
0.00308106
0.00307689
0.00307276
0.00306866
0.00306459
0.00306056
0.00305655
0.00305257
0.00304863
0.00304471
0.00304082
0.00303697
0.00303314
0.00302933
0.00302556
0.00302181
0.00301809
0.00301439
0.00301072
0.00300708
0.00300346
0.00299986
0.00299629
0.00299275
0.00298922
0.00298572
0.00298225
0.00297879
0.00297536
0.00297196
0.00296857
0.0029652
0.00296186
0.00295854
0.00295524
0.00295195
0.00294869
0.00294545
0.00294241
0.00293955
0.00293668
0.0029338
0.00293092
0.00292802
0.00292511
0.0029222
0.00291927
0.00291634
0.0029134
0.00291045
0.00290749
0.00290452
0.00290155
0.00289857
0.00289557
0.00289257
0.00288956
0.00288655
0.00288352
0.00288049
0.00287745
0.0028744
0.00287134
0.00286828
0.0028652
0.00286213
0.00285904
0.00285594
0.00285284
0.00284973
0.00284662
0.0028435
0.00284037
0.00283723
0.00283409
0.00283094
0.00282778
0.00282462
0.00282145
0.00281827
0.00281509
0.0028119
0.00280871
0.00280551
0.0028023
0.00279909
0.00279587
0.00279265
0.00278942
0.00278619
0.00278295
0.0027797
0.00277645
0.0027732
0.00276994
0.00276667
0.0027634
0.00276013
0.00275685
0.00275356
0.00275027
0.00274698
0.00274368
0.00274038
0.00273708
0.00273377
0.00273045
0.00272714
0.00272382
0.00272049
0.00271716
0.00271383
0.0027105
0.00270716
0.00270382
0.00270047
0.00269712
0.00269377
0.00269042
0.00268706
0.0026837
0.00268034
0.00267698
0.00267361
0.00267024
0.00266687
0.0026635
0.00266012
0.00265674
0.00265337
0.00264998
0.0026466
0.00264322
0.00263983
0.00263644
0.00263306
0.00262966
0.00262627
0.00262288
0.00261949
0.00261609
0.0026127
0.0026093
0.0026059
0.0026025
0.00259911
0.00259571
0.00259231
0.00258891
0.00258551
0.00258211
0.00257871
0.00257531
0.00257191
0.00256851
0.00256511
0.00256171
0.00255831
0.00255491
0.00255152
0.00254812
0.00254472
0.00254133
0.00253793
0.00253454
0.00253115
0.00252776
0.00252436
0.00252098
0.00251759
0.0025142
0.00251082
0.00250743
0.00250405
0.00250067
0.00249729
0.00249392
0.00249054
0.00248717
0.0024838
0.00248043
0.00247706
0.0024737
0.00247033
0.00246698
0.00246362
0.00246026
0.00245691
0.00245356
0.00245021
0.00244687
0.00244353
0.00244019
0.00243685
0.00243352
0.00243019
0.00242687
0.00242354
0.00242022
0.00241691
0.00241359
0.00241028
0.00240698
0.00240367
0.00240037
0.00239708
0.00239379
0.0023905
0.00238721
0.00238393
0.00238066
0.00237738
0.00237412
0.00237085
0.00236759
0.00236434
0.00236108
0.00235784
0.00235459
0.00235099
0.00234707
0.00234321
0.0023394
0.00233564
0.00233193
0.00232828
0.00232468
0.00232113
0.00231762
0.00231417
0.00231075
0.00230739
0.00230406
0.00230078
0.00229754
0.00229434
0.00229118
0.00228806
0.00228498
0.00228194
0.00227893
0.00227596
0.00227302
0.00227012
0.00226725
0.00226441
0.00226161
0.00225884
0.0022561
0.00225339
0.00225071
0.00224806
0.00224543
0.00224284
0.00224027
0.00223774
0.00223522
0.00223274
0.00223027
0.00222784
0.00222542
0.00222304
0.00222067
0.00221834
0.00221602
0.00221373
0.00221145
0.0022092
0.00220697
0.00220477
0.00220258
0.00220041
0.00219826
0.00219614
0.00219403
0.00219194
0.00218987
0.00218782
0.00218578
0.00218377
0.00218177
0.00217979
0.00217782
0.00217588
0.00217394
0.00217203
0.00217012
0.00216824
0.00216637
0.00216452
0.00216267
0.00216086
0.00215903
0.00215725
0.00215545
0.0021537
0.00215191
0.00215021
0.00214843
0.00214677
0.00214499
0.00214337
0.0021416
0.00214002
0.00213825
0.00213671
0.00213496
0.0021334
0.00213174
0.00213002
0.00212871
0.00212646
0.00212611
0.00212287
)
;
    }
    symmetry
    {
        type            symmetryPlane;
    }
    frontAndBack
    {
        type            empty;
    }
}


// ************************************************************************* //
