/*--------------------------------*- C++ -*----------------------------------*\
| =========                 |                                                 |
| \\      /  F ield         | OpenFOAM: The Open Source CFD Toolbox           |
|  \\    /   O peration     | Version:  v2012                                 |
|   \\  /    A nd           | Website:  www.openfoam.com                      |
|    \\/     M anipulation  |                                                 |
\*---------------------------------------------------------------------------*/
FoamFile
{
    version     2.0;
    format      ascii;
    class       volVectorField;
    location    "49";
    object      wallShearStress;
}
// * * * * * * * * * * * * * * * * * * * * * * * * * * * * * * * * * * * * * //

dimensions      [0 2 -2 0 0 0 0];


internalField   uniform (0 0 0);

boundaryField
{
    inlet
    {
        type            calculated;
        value           uniform (0 0 0);
    }
    outlet
    {
        type            calculated;
        value           uniform (0 0 0);
    }
    topWall
    {
        type            calculated;
        value           nonuniform List<vector> 
545
(
(6.89755e-08 -4.85509e-08 0)
(6.89574e-08 -1.35829e-07 0)
(6.89114e-08 -2.26577e-07 0)
(6.88488e-08 -3.14689e-07 0)
(6.87729e-08 -3.9904e-07 0)
(6.86836e-08 -4.80713e-07 0)
(6.85818e-08 -5.60403e-07 0)
(6.84683e-08 -6.38072e-07 0)
(6.83442e-08 -7.13549e-07 0)
(6.82104e-08 -7.86833e-07 0)
(6.80678e-08 -8.5802e-07 0)
(6.79174e-08 -9.27192e-07 0)
(6.77597e-08 -9.94396e-07 0)
(6.75958e-08 -1.05967e-06 0)
(6.74261e-08 -1.12307e-06 0)
(6.72514e-08 -1.18463e-06 0)
(6.70724e-08 -1.24442e-06 0)
(6.68895e-08 -1.30247e-06 0)
(6.67034e-08 -1.35883e-06 0)
(6.65145e-08 -1.41355e-06 0)
(6.63233e-08 -1.46668e-06 0)
(6.61303e-08 -1.51826e-06 0)
(6.59358e-08 -1.56833e-06 0)
(6.57402e-08 -1.61693e-06 0)
(6.5544e-08 -1.66412e-06 0)
(6.53474e-08 -1.70992e-06 0)
(6.51507e-08 -1.75438e-06 0)
(6.49542e-08 -1.79753e-06 0)
(6.47582e-08 -1.83942e-06 0)
(6.45629e-08 -1.88009e-06 0)
(6.43685e-08 -1.91956e-06 0)
(6.41753e-08 -1.95788e-06 0)
(6.39833e-08 -1.99507e-06 0)
(6.37929e-08 -2.03118e-06 0)
(6.36041e-08 -2.06622e-06 0)
(6.34171e-08 -2.10025e-06 0)
(6.3232e-08 -2.13328e-06 0)
(6.30489e-08 -2.16534e-06 0)
(6.2868e-08 -2.19647e-06 0)
(6.26892e-08 -2.22669e-06 0)
(6.25127e-08 -2.25603e-06 0)
(6.23387e-08 -2.28452e-06 0)
(6.2167e-08 -2.31218e-06 0)
(6.19978e-08 -2.33904e-06 0)
(6.18311e-08 -2.36512e-06 0)
(6.1667e-08 -2.39044e-06 0)
(6.15055e-08 -2.41503e-06 0)
(6.13466e-08 -2.43891e-06 0)
(6.11904e-08 -2.4621e-06 0)
(6.10368e-08 -2.48462e-06 0)
(6.08858e-08 -2.50649e-06 0)
(6.07375e-08 -2.52774e-06 0)
(6.05919e-08 -2.54837e-06 0)
(6.0449e-08 -2.56841e-06 0)
(6.03087e-08 -2.58788e-06 0)
(6.0171e-08 -2.60679e-06 0)
(6.0036e-08 -2.62516e-06 0)
(5.99035e-08 -2.64301e-06 0)
(5.97737e-08 -2.66034e-06 0)
(5.96464e-08 -2.67719e-06 0)
(5.95217e-08 -2.69355e-06 0)
(5.93995e-08 -2.70945e-06 0)
(5.92798e-08 -2.7249e-06 0)
(5.91625e-08 -2.73992e-06 0)
(5.90477e-08 -2.7545e-06 0)
(5.89352e-08 -2.76868e-06 0)
(5.88252e-08 -2.78246e-06 0)
(5.87174e-08 -2.79585e-06 0)
(5.8612e-08 -2.80886e-06 0)
(5.85088e-08 -2.8215e-06 0)
(5.84079e-08 -2.8338e-06 0)
(5.83091e-08 -2.84573e-06 0)
(5.82132e-08 -2.85721e-06 0)
(5.812e-08 -2.86835e-06 0)
(5.80278e-08 -2.87936e-06 0)
(5.79359e-08 -2.89032e-06 0)
(5.7844e-08 -2.90123e-06 0)
(5.77523e-08 -2.91207e-06 0)
(5.76606e-08 -2.92285e-06 0)
(5.75691e-08 -2.93355e-06 0)
(5.74776e-08 -2.94419e-06 0)
(5.73862e-08 -2.95477e-06 0)
(5.72949e-08 -2.96528e-06 0)
(5.72038e-08 -2.97572e-06 0)
(5.71127e-08 -2.9861e-06 0)
(5.70218e-08 -2.99642e-06 0)
(5.69309e-08 -3.00668e-06 0)
(5.68402e-08 -3.01687e-06 0)
(5.67496e-08 -3.02699e-06 0)
(5.66591e-08 -3.03706e-06 0)
(5.65688e-08 -3.04706e-06 0)
(5.64786e-08 -3.057e-06 0)
(5.63885e-08 -3.06689e-06 0)
(5.62985e-08 -3.0767e-06 0)
(5.62092e-08 -3.08649e-06 0)
(5.61184e-08 -3.09609e-06 0)
(5.60312e-08 -3.10487e-06 0)
(5.59535e-08 -3.11287e-06 0)
(5.58797e-08 -3.12063e-06 0)
(5.5806e-08 -3.12842e-06 0)
(5.57322e-08 -3.13629e-06 0)
(5.56581e-08 -3.14418e-06 0)
(5.55836e-08 -3.15206e-06 0)
(5.55088e-08 -3.15994e-06 0)
(5.54336e-08 -3.16783e-06 0)
(5.53581e-08 -3.17573e-06 0)
(5.52823e-08 -3.18364e-06 0)
(5.52061e-08 -3.19156e-06 0)
(5.51295e-08 -3.19948e-06 0)
(5.50526e-08 -3.20742e-06 0)
(5.49753e-08 -3.21535e-06 0)
(5.48976e-08 -3.2233e-06 0)
(5.48196e-08 -3.23126e-06 0)
(5.47413e-08 -3.23922e-06 0)
(5.46625e-08 -3.24719e-06 0)
(5.45835e-08 -3.25516e-06 0)
(5.4504e-08 -3.26315e-06 0)
(5.44242e-08 -3.27114e-06 0)
(5.4344e-08 -3.27914e-06 0)
(5.42635e-08 -3.28714e-06 0)
(5.41826e-08 -3.29515e-06 0)
(5.41013e-08 -3.30317e-06 0)
(5.40197e-08 -3.3112e-06 0)
(5.39377e-08 -3.31923e-06 0)
(5.38553e-08 -3.32727e-06 0)
(5.37726e-08 -3.33531e-06 0)
(5.36895e-08 -3.34337e-06 0)
(5.3606e-08 -3.35143e-06 0)
(5.35221e-08 -3.35949e-06 0)
(5.34379e-08 -3.36756e-06 0)
(5.33532e-08 -3.37564e-06 0)
(5.32682e-08 -3.38372e-06 0)
(5.31829e-08 -3.39181e-06 0)
(5.30971e-08 -3.39991e-06 0)
(5.3011e-08 -3.40801e-06 0)
(5.29245e-08 -3.41612e-06 0)
(5.28376e-08 -3.42423e-06 0)
(5.27503e-08 -3.43235e-06 0)
(5.26627e-08 -3.44048e-06 0)
(5.25747e-08 -3.44861e-06 0)
(5.24862e-08 -3.45674e-06 0)
(5.23974e-08 -3.46489e-06 0)
(5.23082e-08 -3.47303e-06 0)
(5.22187e-08 -3.48119e-06 0)
(5.21287e-08 -3.48934e-06 0)
(5.20383e-08 -3.49751e-06 0)
(5.19476e-08 -3.50567e-06 0)
(5.18565e-08 -3.51385e-06 0)
(5.17649e-08 -3.52202e-06 0)
(5.1673e-08 -3.53021e-06 0)
(5.15807e-08 -3.53839e-06 0)
(5.1488e-08 -3.54658e-06 0)
(5.13949e-08 -3.55478e-06 0)
(5.13014e-08 -3.56298e-06 0)
(5.12076e-08 -3.57118e-06 0)
(5.11133e-08 -3.57939e-06 0)
(5.10186e-08 -3.58761e-06 0)
(5.09235e-08 -3.59582e-06 0)
(5.08281e-08 -3.60405e-06 0)
(5.07322e-08 -3.61227e-06 0)
(5.06359e-08 -3.6205e-06 0)
(5.05393e-08 -3.62873e-06 0)
(5.04422e-08 -3.63697e-06 0)
(5.03447e-08 -3.64521e-06 0)
(5.02468e-08 -3.65345e-06 0)
(5.01486e-08 -3.6617e-06 0)
(5.00499e-08 -3.66995e-06 0)
(4.99508e-08 -3.6782e-06 0)
(4.98513e-08 -3.68646e-06 0)
(4.97515e-08 -3.69472e-06 0)
(4.96512e-08 -3.70298e-06 0)
(4.95505e-08 -3.71124e-06 0)
(4.94494e-08 -3.71951e-06 0)
(4.93479e-08 -3.72778e-06 0)
(4.92459e-08 -3.73605e-06 0)
(4.91436e-08 -3.74432e-06 0)
(4.90409e-08 -3.7526e-06 0)
(4.89378e-08 -3.76088e-06 0)
(4.88342e-08 -3.76916e-06 0)
(4.87303e-08 -3.77744e-06 0)
(4.86259e-08 -3.78573e-06 0)
(4.85211e-08 -3.79401e-06 0)
(4.84159e-08 -3.8023e-06 0)
(4.83104e-08 -3.81059e-06 0)
(4.82044e-08 -3.81888e-06 0)
(4.8098e-08 -3.82717e-06 0)
(4.79911e-08 -3.83547e-06 0)
(4.78839e-08 -3.84376e-06 0)
(4.77763e-08 -3.85206e-06 0)
(4.76682e-08 -3.86035e-06 0)
(4.75597e-08 -3.86865e-06 0)
(4.74509e-08 -3.87694e-06 0)
(4.73416e-08 -3.88524e-06 0)
(4.72319e-08 -3.89354e-06 0)
(4.71218e-08 -3.90184e-06 0)
(4.70112e-08 -3.91014e-06 0)
(4.69003e-08 -3.91843e-06 0)
(4.6789e-08 -3.92673e-06 0)
(4.66772e-08 -3.93503e-06 0)
(4.6565e-08 -3.94333e-06 0)
(4.64524e-08 -3.95162e-06 0)
(4.63394e-08 -3.95992e-06 0)
(4.6226e-08 -3.96822e-06 0)
(4.61122e-08 -3.97651e-06 0)
(4.5998e-08 -3.9848e-06 0)
(4.58833e-08 -3.9931e-06 0)
(4.57683e-08 -4.00139e-06 0)
(4.56528e-08 -4.00968e-06 0)
(4.55369e-08 -4.01797e-06 0)
(4.54207e-08 -4.02626e-06 0)
(4.5304e-08 -4.03454e-06 0)
(4.51869e-08 -4.04282e-06 0)
(4.50693e-08 -4.0511e-06 0)
(4.49514e-08 -4.05938e-06 0)
(4.48331e-08 -4.06766e-06 0)
(4.47143e-08 -4.07594e-06 0)
(4.45952e-08 -4.08421e-06 0)
(4.44756e-08 -4.09248e-06 0)
(4.43556e-08 -4.10074e-06 0)
(4.42352e-08 -4.10901e-06 0)
(4.41145e-08 -4.11727e-06 0)
(4.39933e-08 -4.12553e-06 0)
(4.38717e-08 -4.13378e-06 0)
(4.37497e-08 -4.14203e-06 0)
(4.36272e-08 -4.15028e-06 0)
(4.35044e-08 -4.15852e-06 0)
(4.33812e-08 -4.16676e-06 0)
(4.32576e-08 -4.17499e-06 0)
(4.31336e-08 -4.18323e-06 0)
(4.30091e-08 -4.19145e-06 0)
(4.28843e-08 -4.19967e-06 0)
(4.27591e-08 -4.20789e-06 0)
(4.26335e-08 -4.2161e-06 0)
(4.25074e-08 -4.22431e-06 0)
(4.2381e-08 -4.23252e-06 0)
(4.22542e-08 -4.24071e-06 0)
(4.2127e-08 -4.24891e-06 0)
(4.19994e-08 -4.25709e-06 0)
(4.18714e-08 -4.26527e-06 0)
(4.1743e-08 -4.27345e-06 0)
(4.16142e-08 -4.28162e-06 0)
(4.1485e-08 -4.28978e-06 0)
(4.13554e-08 -4.29794e-06 0)
(4.12254e-08 -4.30609e-06 0)
(4.10951e-08 -4.31423e-06 0)
(4.09644e-08 -4.32237e-06 0)
(4.08332e-08 -4.3305e-06 0)
(4.07017e-08 -4.33863e-06 0)
(4.05698e-08 -4.34674e-06 0)
(4.04376e-08 -4.35485e-06 0)
(4.03049e-08 -4.36295e-06 0)
(4.01719e-08 -4.37105e-06 0)
(4.00385e-08 -4.37913e-06 0)
(3.99047e-08 -4.38721e-06 0)
(3.97705e-08 -4.39528e-06 0)
(3.9636e-08 -4.40334e-06 0)
(3.9501e-08 -4.4114e-06 0)
(3.93658e-08 -4.41944e-06 0)
(3.92301e-08 -4.42748e-06 0)
(3.90941e-08 -4.43551e-06 0)
(3.89577e-08 -4.44352e-06 0)
(3.8821e-08 -4.45153e-06 0)
(3.86838e-08 -4.45953e-06 0)
(3.85464e-08 -4.46752e-06 0)
(3.84085e-08 -4.4755e-06 0)
(3.82704e-08 -4.48347e-06 0)
(3.81318e-08 -4.49143e-06 0)
(3.79935e-08 -4.4994e-06 0)
(3.78553e-08 -4.50728e-06 0)
(3.77183e-08 -4.51478e-06 0)
(3.7588e-08 -4.52194e-06 0)
(3.74621e-08 -4.52902e-06 0)
(3.7335e-08 -4.53615e-06 0)
(3.72067e-08 -4.54338e-06 0)
(3.7077e-08 -4.55067e-06 0)
(3.69459e-08 -4.55801e-06 0)
(3.68134e-08 -4.56539e-06 0)
(3.66793e-08 -4.57283e-06 0)
(3.65438e-08 -4.58032e-06 0)
(3.64069e-08 -4.58786e-06 0)
(3.62684e-08 -4.59546e-06 0)
(3.61284e-08 -4.60311e-06 0)
(3.59868e-08 -4.61081e-06 0)
(3.58438e-08 -4.61857e-06 0)
(3.56992e-08 -4.62638e-06 0)
(3.5553e-08 -4.63424e-06 0)
(3.54053e-08 -4.64216e-06 0)
(3.52559e-08 -4.65013e-06 0)
(3.5105e-08 -4.65815e-06 0)
(3.49524e-08 -4.66622e-06 0)
(3.47982e-08 -4.67434e-06 0)
(3.46424e-08 -4.68252e-06 0)
(3.4485e-08 -4.69075e-06 0)
(3.43258e-08 -4.69903e-06 0)
(3.4165e-08 -4.70736e-06 0)
(3.40025e-08 -4.71574e-06 0)
(3.38383e-08 -4.72417e-06 0)
(3.36724e-08 -4.73265e-06 0)
(3.35047e-08 -4.74118e-06 0)
(3.33353e-08 -4.74976e-06 0)
(3.31642e-08 -4.75839e-06 0)
(3.29913e-08 -4.76707e-06 0)
(3.28166e-08 -4.77579e-06 0)
(3.26402e-08 -4.78457e-06 0)
(3.24619e-08 -4.79339e-06 0)
(3.22819e-08 -4.80226e-06 0)
(3.21e-08 -4.81117e-06 0)
(3.19163e-08 -4.82013e-06 0)
(3.17307e-08 -4.82913e-06 0)
(3.15433e-08 -4.83819e-06 0)
(3.13541e-08 -4.84728e-06 0)
(3.1163e-08 -4.85641e-06 0)
(3.097e-08 -4.86559e-06 0)
(3.07751e-08 -4.87481e-06 0)
(3.05783e-08 -4.88407e-06 0)
(3.03797e-08 -4.89338e-06 0)
(3.01791e-08 -4.90272e-06 0)
(2.99766e-08 -4.9121e-06 0)
(2.97722e-08 -4.92151e-06 0)
(2.95658e-08 -4.93097e-06 0)
(2.93575e-08 -4.94046e-06 0)
(2.91473e-08 -4.94998e-06 0)
(2.89351e-08 -4.95954e-06 0)
(2.8721e-08 -4.96914e-06 0)
(2.8505e-08 -4.97876e-06 0)
(2.82869e-08 -4.98841e-06 0)
(2.80669e-08 -4.9981e-06 0)
(2.7845e-08 -5.00781e-06 0)
(2.76211e-08 -5.01755e-06 0)
(2.73952e-08 -5.02731e-06 0)
(2.71673e-08 -5.0371e-06 0)
(2.69375e-08 -5.04692e-06 0)
(2.67058e-08 -5.05675e-06 0)
(2.6472e-08 -5.06661e-06 0)
(2.62363e-08 -5.07648e-06 0)
(2.59987e-08 -5.08638e-06 0)
(2.57591e-08 -5.09628e-06 0)
(2.55175e-08 -5.10621e-06 0)
(2.5274e-08 -5.11614e-06 0)
(2.50286e-08 -5.12609e-06 0)
(2.47812e-08 -5.13604e-06 0)
(2.4532e-08 -5.14601e-06 0)
(2.42808e-08 -5.15598e-06 0)
(2.40277e-08 -5.16595e-06 0)
(2.37727e-08 -5.17593e-06 0)
(2.35159e-08 -5.1859e-06 0)
(2.32572e-08 -5.19588e-06 0)
(2.29966e-08 -5.20585e-06 0)
(2.27342e-08 -5.21581e-06 0)
(2.247e-08 -5.22577e-06 0)
(2.2204e-08 -5.23572e-06 0)
(2.19363e-08 -5.24565e-06 0)
(2.16667e-08 -5.25557e-06 0)
(2.13955e-08 -5.26548e-06 0)
(2.11225e-08 -5.27536e-06 0)
(2.08479e-08 -5.28523e-06 0)
(2.05715e-08 -5.29506e-06 0)
(2.02936e-08 -5.30488e-06 0)
(2.0014e-08 -5.31466e-06 0)
(1.97329e-08 -5.32441e-06 0)
(1.94502e-08 -5.33413e-06 0)
(1.91661e-08 -5.34381e-06 0)
(1.88804e-08 -5.35345e-06 0)
(1.85933e-08 -5.36306e-06 0)
(1.83048e-08 -5.37261e-06 0)
(1.8015e-08 -5.38212e-06 0)
(1.77238e-08 -5.39157e-06 0)
(1.74313e-08 -5.40098e-06 0)
(1.71376e-08 -5.41032e-06 0)
(1.68427e-08 -5.41961e-06 0)
(1.65467e-08 -5.42883e-06 0)
(1.62495e-08 -5.43799e-06 0)
(1.59513e-08 -5.44708e-06 0)
(1.56522e-08 -5.4561e-06 0)
(1.53521e-08 -5.46503e-06 0)
(1.50511e-08 -5.4739e-06 0)
(1.47492e-08 -5.48268e-06 0)
(1.44467e-08 -5.49138e-06 0)
(1.41434e-08 -5.49998e-06 0)
(1.38394e-08 -5.5085e-06 0)
(1.35349e-08 -5.51692e-06 0)
(1.32299e-08 -5.52525e-06 0)
(1.29243e-08 -5.53347e-06 0)
(1.26185e-08 -5.54159e-06 0)
(1.23123e-08 -5.54959e-06 0)
(1.20059e-08 -5.55749e-06 0)
(1.16993e-08 -5.56526e-06 0)
(1.13926e-08 -5.57292e-06 0)
(1.10859e-08 -5.58046e-06 0)
(1.07793e-08 -5.58787e-06 0)
(1.04729e-08 -5.59514e-06 0)
(1.01666e-08 -5.6023e-06 0)
(9.86071e-09 -5.6093e-06 0)
(9.55519e-09 -5.61617e-06 0)
(9.25013e-09 -5.62289e-06 0)
(8.94567e-09 -5.62947e-06 0)
(8.64184e-09 -5.63589e-06 0)
(8.33878e-09 -5.64216e-06 0)
(8.03654e-09 -5.64827e-06 0)
(7.73525e-09 -5.65422e-06 0)
(7.43496e-09 -5.66e-06 0)
(7.13581e-09 -5.66562e-06 0)
(6.83786e-09 -5.67105e-06 0)
(6.54123e-09 -5.67632e-06 0)
(6.24599e-09 -5.6814e-06 0)
(5.95227e-09 -5.68631e-06 0)
(5.66013e-09 -5.69102e-06 0)
(5.36971e-09 -5.69555e-06 0)
(5.08108e-09 -5.69988e-06 0)
(4.79436e-09 -5.70403e-06 0)
(4.50963e-09 -5.70796e-06 0)
(4.22701e-09 -5.71171e-06 0)
(3.94658e-09 -5.71524e-06 0)
(3.66847e-09 -5.71857e-06 0)
(3.39275e-09 -5.72168e-06 0)
(3.11955e-09 -5.72459e-06 0)
(2.84894e-09 -5.72727e-06 0)
(2.58105e-09 -5.72975e-06 0)
(2.31596e-09 -5.73199e-06 0)
(2.05378e-09 -5.73402e-06 0)
(1.7946e-09 -5.73581e-06 0)
(1.53854e-09 -5.73739e-06 0)
(1.28566e-09 -5.73872e-06 0)
(1.03609e-09 -5.73984e-06 0)
(7.89902e-10 -5.74071e-06 0)
(5.47201e-10 -5.74136e-06 0)
(3.08072e-10 -5.74175e-06 0)
(7.26076e-11 -5.74192e-06 0)
(-1.59106e-10 -5.74184e-06 0)
(-3.86984e-10 -5.74153e-06 0)
(-6.1094e-10 -5.74096e-06 0)
(-8.30898e-10 -5.74017e-06 0)
(-1.04677e-09 -5.73911e-06 0)
(-1.25849e-09 -5.73783e-06 0)
(-1.46598e-09 -5.73628e-06 0)
(-1.66916e-09 -5.73451e-06 0)
(-1.86797e-09 -5.73246e-06 0)
(-2.06234e-09 -5.7302e-06 0)
(-2.2522e-09 -5.72766e-06 0)
(-2.4375e-09 -5.72491e-06 0)
(-2.61816e-09 -5.72188e-06 0)
(-2.79415e-09 -5.71863e-06 0)
(-2.96538e-09 -5.71511e-06 0)
(-3.13183e-09 -5.71138e-06 0)
(-3.2934e-09 -5.70737e-06 0)
(-3.4501e-09 -5.70316e-06 0)
(-3.60178e-09 -5.69867e-06 0)
(-3.74873e-09 -5.69398e-06 0)
(-3.88973e-09 -5.68899e-06 0)
(-4.03054e-09 -5.6838e-06 0)
(-4.17555e-09 -5.67781e-06 0)
(-4.3216e-09 -5.67095e-06 0)
(-4.46373e-09 -5.66375e-06 0)
(-4.59741e-09 -5.6564e-06 0)
(-4.72257e-09 -5.6488e-06 0)
(-4.8394e-09 -5.64106e-06 0)
(-4.94803e-09 -5.63308e-06 0)
(-5.04874e-09 -5.62498e-06 0)
(-5.14171e-09 -5.61668e-06 0)
(-5.22728e-09 -5.60828e-06 0)
(-5.30562e-09 -5.59971e-06 0)
(-5.37705e-09 -5.59106e-06 0)
(-5.44173e-09 -5.58225e-06 0)
(-5.49997e-09 -5.57339e-06 0)
(-5.5519e-09 -5.5644e-06 0)
(-5.59783e-09 -5.55537e-06 0)
(-5.63788e-09 -5.54623e-06 0)
(-5.67233e-09 -5.53707e-06 0)
(-5.7013e-09 -5.52782e-06 0)
(-5.72506e-09 -5.51857e-06 0)
(-5.74369e-09 -5.50924e-06 0)
(-5.75748e-09 -5.49993e-06 0)
(-5.76649e-09 -5.49056e-06 0)
(-5.77097e-09 -5.48122e-06 0)
(-5.77099e-09 -5.47184e-06 0)
(-5.7668e-09 -5.4625e-06 0)
(-5.75843e-09 -5.45313e-06 0)
(-5.74613e-09 -5.44382e-06 0)
(-5.72993e-09 -5.43449e-06 0)
(-5.71005e-09 -5.42523e-06 0)
(-5.68652e-09 -5.41597e-06 0)
(-5.65955e-09 -5.40679e-06 0)
(-5.62916e-09 -5.39761e-06 0)
(-5.59555e-09 -5.38853e-06 0)
(-5.55873e-09 -5.37946e-06 0)
(-5.5189e-09 -5.3705e-06 0)
(-5.47605e-09 -5.36156e-06 0)
(-5.43037e-09 -5.35274e-06 0)
(-5.38186e-09 -5.34395e-06 0)
(-5.33069e-09 -5.33528e-06 0)
(-5.27685e-09 -5.32666e-06 0)
(-5.22051e-09 -5.31817e-06 0)
(-5.16166e-09 -5.30973e-06 0)
(-5.10045e-09 -5.30143e-06 0)
(-5.03687e-09 -5.29318e-06 0)
(-4.97107e-09 -5.28509e-06 0)
(-4.90303e-09 -5.27706e-06 0)
(-4.83289e-09 -5.26919e-06 0)
(-4.76063e-09 -5.26138e-06 0)
(-4.68639e-09 -5.25374e-06 0)
(-4.61015e-09 -5.24618e-06 0)
(-4.53204e-09 -5.23879e-06 0)
(-4.45202e-09 -5.23148e-06 0)
(-4.37023e-09 -5.22435e-06 0)
(-4.28665e-09 -5.21731e-06 0)
(-4.20138e-09 -5.21044e-06 0)
(-4.11441e-09 -5.20368e-06 0)
(-4.02585e-09 -5.19709e-06 0)
(-3.93568e-09 -5.19062e-06 0)
(-3.844e-09 -5.18433e-06 0)
(-3.7508e-09 -5.17815e-06 0)
(-3.65618e-09 -5.17215e-06 0)
(-3.56012e-09 -5.16628e-06 0)
(-3.46271e-09 -5.1606e-06 0)
(-3.36395e-09 -5.15505e-06 0)
(-3.26393e-09 -5.14968e-06 0)
(-3.16263e-09 -5.14445e-06 0)
(-3.06014e-09 -5.13942e-06 0)
(-2.95647e-09 -5.13452e-06 0)
(-2.85168e-09 -5.12982e-06 0)
(-2.74579e-09 -5.12526e-06 0)
(-2.63885e-09 -5.1209e-06 0)
(-2.5309e-09 -5.11669e-06 0)
(-2.42198e-09 -5.11268e-06 0)
(-2.31211e-09 -5.10883e-06 0)
(-2.20136e-09 -5.10517e-06 0)
(-2.08975e-09 -5.10167e-06 0)
(-1.97733e-09 -5.09838e-06 0)
(-1.86412e-09 -5.09524e-06 0)
(-1.75018e-09 -5.09231e-06 0)
(-1.63553e-09 -5.08955e-06 0)
(-1.52023e-09 -5.08699e-06 0)
(-1.40431e-09 -5.0846e-06 0)
(-1.28782e-09 -5.08242e-06 0)
(-1.17079e-09 -5.0804e-06 0)
(-1.05328e-09 -5.07862e-06 0)
(-9.35341e-10 -5.07689e-06 0)
(-8.17043e-10 -5.07581e-06 0)
(-6.98397e-10 -5.07339e-06 0)
(-5.79659e-10 -5.0762e-06 0)
(-4.60361e-10 -5.06215e-06 0)
(-3.42116e-10 -5.10269e-06 0)
(-2.21071e-10 -4.94948e-06 0)
(-1.06171e-10 -5.35573e-06 0)
(-2.70252e-11 -4.67762e-06 0)
)
;
    }
    bottomWall
    {
        type            calculated;
        value           nonuniform List<vector> 
449
(
(-52.7036 -0.95552 0)
(-34.7374 -0.00279852 0)
(-34.3458 -0.000254871 0)
(-32.9839 -0.000363201 0)
(-31.8593 -0.000314925 0)
(-30.824 -0.000284004 0)
(-29.9075 -0.000249131 0)
(-29.1081 -0.000217261 0)
(-28.4078 -0.000190727 0)
(-27.7887 -0.000168971 0)
(-27.2363 -0.000150963 0)
(-26.7397 -0.000135869 0)
(-26.29 -0.000123221 0)
(-25.8795 -0.000112542 0)
(-25.5026 -0.00010333 0)
(-25.155 -9.53274e-05 0)
(-24.8326 -8.83375e-05 0)
(-24.5327 -8.22028e-05 0)
(-24.2522 -7.67978e-05 0)
(-23.9891 -7.1978e-05 0)
(-23.7416 -6.76553e-05 0)
(-23.5081 -6.37678e-05 0)
(-23.2872 -6.02609e-05 0)
(-23.0777 -5.70785e-05 0)
(-22.8785 -5.41819e-05 0)
(-22.6889 -5.15238e-05 0)
(-22.5079 -4.90873e-05 0)
(-22.335 -4.68466e-05 0)
(-22.1694 -4.478e-05 0)
(-22.0106 -4.28626e-05 0)
(-21.8582 -4.10853e-05 0)
(-21.7117 -3.94323e-05 0)
(-21.5706 -3.78935e-05 0)
(-21.4346 -3.64523e-05 0)
(-21.3035 -3.5107e-05 0)
(-21.1768 -3.38428e-05 0)
(-21.0543 -3.26597e-05 0)
(-20.9358 -3.15497e-05 0)
(-20.821 -3.05029e-05 0)
(-20.7096 -2.95161e-05 0)
(-20.6016 -2.85846e-05 0)
(-20.4967 -2.77055e-05 0)
(-20.3947 -2.68718e-05 0)
(-20.2956 -2.60783e-05 0)
(-20.1991 -2.5323e-05 0)
(-20.1052 -2.45991e-05 0)
(-20.0137 -2.39079e-05 0)
(-19.9246 -2.32496e-05 0)
(-19.8377 -2.26131e-05 0)
(-19.753 -2.20117e-05 0)
(-19.6702 -2.14328e-05 0)
(-19.5895 -2.08793e-05 0)
(-19.5107 -2.03549e-05 0)
(-19.4336 -1.98466e-05 0)
(-19.3582 -1.93651e-05 0)
(-19.2845 -1.89011e-05 0)
(-19.2124 -1.84598e-05 0)
(-19.1418 -1.8035e-05 0)
(-19.0726 -1.76284e-05 0)
(-19.0048 -1.72369e-05 0)
(-18.9384 -1.68609e-05 0)
(-18.8732 -1.64997e-05 0)
(-18.8093 -1.61507e-05 0)
(-18.7465 -1.58166e-05 0)
(-18.6849 -1.54918e-05 0)
(-18.6245 -1.51817e-05 0)
(-18.565 -1.48783e-05 0)
(-18.5067 -1.45891e-05 0)
(-18.4493 -1.43059e-05 0)
(-18.3929 -1.40341e-05 0)
(-18.3374 -1.37706e-05 0)
(-18.2828 -1.3513e-05 0)
(-18.2291 -1.32679e-05 0)
(-18.1763 -1.30246e-05 0)
(-18.1243 -1.27935e-05 0)
(-18.0731 -1.2566e-05 0)
(-18.0227 -1.23455e-05 0)
(-17.973 -1.21333e-05 0)
(-17.9241 -1.19232e-05 0)
(-17.8759 -1.17232e-05 0)
(-17.8284 -1.15263e-05 0)
(-17.7816 -1.13343e-05 0)
(-17.7355 -1.115e-05 0)
(-17.69 -1.09673e-05 0)
(-17.6451 -1.07917e-05 0)
(-17.6008 -1.06207e-05 0)
(-17.5572 -1.04519e-05 0)
(-17.5141 -1.02901e-05 0)
(-17.4716 -1.01312e-05 0)
(-17.4297 -9.97532e-06 0)
(-17.3882 -9.82539e-06 0)
(-17.3474 -9.67774e-06 0)
(-17.307 -9.53352e-06 0)
(-17.2671 -9.3942e-06 0)
(-17.2277 -9.25686e-06 0)
(-17.1889 -9.12295e-06 0)
(-17.1504 -8.99315e-06 0)
(-17.1125 -8.86533e-06 0)
(-17.0749 -8.74051e-06 0)
(-17.0379 -8.61949e-06 0)
(-17.0012 -8.50026e-06 0)
(-16.965 -8.38377e-06 0)
(-16.9291 -8.27058e-06 0)
(-16.8937 -8.15936e-06 0)
(-16.8587 -8.05025e-06 0)
(-16.824 -7.94428e-06 0)
(-16.7897 -7.84019e-06 0)
(-16.7558 -7.73796e-06 0)
(-16.7223 -7.63841e-06 0)
(-16.6891 -7.54088e-06 0)
(-16.6562 -7.44495e-06 0)
(-16.6237 -7.3513e-06 0)
(-16.5915 -7.25968e-06 0)
(-16.5597 -7.16964e-06 0)
(-16.5281 -7.08137e-06 0)
(-16.4969 -6.99511e-06 0)
(-16.466 -6.91041e-06 0)
(-16.4354 -6.82716e-06 0)
(-16.4051 -6.74574e-06 0)
(-16.375 -6.66587e-06 0)
(-16.3453 -6.58741e-06 0)
(-16.3158 -6.51041e-06 0)
(-16.2866 -6.43501e-06 0)
(-16.2577 -6.3609e-06 0)
(-16.229 -6.28811e-06 0)
(-16.2006 -6.21668e-06 0)
(-16.1725 -6.14663e-06 0)
(-16.1446 -6.07768e-06 0)
(-16.117 -6.01005e-06 0)
(-16.0896 -5.94355e-06 0)
(-16.0624 -5.87829e-06 0)
(-16.0355 -5.81403e-06 0)
(-16.0088 -5.75101e-06 0)
(-15.9823 -5.68899e-06 0)
(-15.956 -5.6281e-06 0)
(-15.93 -5.56814e-06 0)
(-15.9042 -5.50931e-06 0)
(-15.8786 -5.45134e-06 0)
(-15.8532 -5.39441e-06 0)
(-15.828 -5.3383e-06 0)
(-15.803 -5.28323e-06 0)
(-15.7782 -5.22893e-06 0)
(-15.7536 -5.17558e-06 0)
(-15.7292 -5.12302e-06 0)
(-15.705 -5.07136e-06 0)
(-15.681 -5.02047e-06 0)
(-15.6572 -4.97038e-06 0)
(-15.6335 -4.9211e-06 0)
(-15.61 -4.87255e-06 0)
(-15.5867 -4.82482e-06 0)
(-15.5636 -4.77769e-06 0)
(-15.5406 -4.7314e-06 0)
(-15.5178 -4.68569e-06 0)
(-15.4952 -4.64078e-06 0)
(-15.4728 -4.59638e-06 0)
(-15.4505 -4.55278e-06 0)
(-15.4283 -4.50972e-06 0)
(-15.4063 -4.46737e-06 0)
(-15.3845 -4.42552e-06 0)
(-15.3628 -4.38439e-06 0)
(-15.3413 -4.34376e-06 0)
(-15.3199 -4.3038e-06 0)
(-15.2987 -4.26432e-06 0)
(-15.2776 -4.22545e-06 0)
(-15.2567 -4.1871e-06 0)
(-15.2359 -4.14933e-06 0)
(-15.2152 -4.11208e-06 0)
(-15.1947 -4.07525e-06 0)
(-15.1743 -4.03911e-06 0)
(-15.154 -4.00317e-06 0)
(-15.1339 -3.96808e-06 0)
(-15.1139 -3.93311e-06 0)
(-15.094 -3.89683e-06 0)
(-15.0754 -3.86713e-06 0)
(-15.0579 -3.84037e-06 0)
(-15.0403 -3.80917e-06 0)
(-15.0227 -3.77863e-06 0)
(-15.005 -3.74868e-06 0)
(-14.9873 -3.71868e-06 0)
(-14.9695 -3.68906e-06 0)
(-14.9517 -3.6595e-06 0)
(-14.9338 -3.63008e-06 0)
(-14.9158 -3.60081e-06 0)
(-14.8979 -3.57164e-06 0)
(-14.8798 -3.54266e-06 0)
(-14.8618 -3.51375e-06 0)
(-14.8437 -3.48499e-06 0)
(-14.8255 -3.4563e-06 0)
(-14.8073 -3.42782e-06 0)
(-14.789 -3.39935e-06 0)
(-14.7707 -3.37111e-06 0)
(-14.7524 -3.3429e-06 0)
(-14.734 -3.31491e-06 0)
(-14.7155 -3.28696e-06 0)
(-14.6971 -3.25921e-06 0)
(-14.6785 -3.23152e-06 0)
(-14.66 -3.20397e-06 0)
(-14.6414 -3.17654e-06 0)
(-14.6227 -3.14925e-06 0)
(-14.604 -3.12208e-06 0)
(-14.5853 -3.09506e-06 0)
(-14.5666 -3.06814e-06 0)
(-14.5478 -3.04139e-06 0)
(-14.5289 -3.01474e-06 0)
(-14.51 -2.98826e-06 0)
(-14.4911 -2.96184e-06 0)
(-14.4722 -2.93562e-06 0)
(-14.4532 -2.9095e-06 0)
(-14.4342 -2.88355e-06 0)
(-14.4151 -2.85769e-06 0)
(-14.396 -2.83197e-06 0)
(-14.3769 -2.8064e-06 0)
(-14.3577 -2.78097e-06 0)
(-14.3385 -2.75569e-06 0)
(-14.3193 -2.73049e-06 0)
(-14.3 -2.70553e-06 0)
(-14.2808 -2.68064e-06 0)
(-14.2615 -2.65599e-06 0)
(-14.2421 -2.63133e-06 0)
(-14.2227 -2.60696e-06 0)
(-14.2033 -2.58261e-06 0)
(-14.1839 -2.55853e-06 0)
(-14.1644 -2.53445e-06 0)
(-14.145 -2.51064e-06 0)
(-14.1255 -2.48684e-06 0)
(-14.1059 -2.46336e-06 0)
(-14.0864 -2.43979e-06 0)
(-14.0668 -2.41661e-06 0)
(-14.0472 -2.39335e-06 0)
(-14.0275 -2.37046e-06 0)
(-14.0079 -2.34751e-06 0)
(-13.9882 -2.32489e-06 0)
(-13.9685 -2.30224e-06 0)
(-13.9488 -2.27993e-06 0)
(-13.9291 -2.25758e-06 0)
(-13.9093 -2.23553e-06 0)
(-13.8895 -2.21347e-06 0)
(-13.8698 -2.19175e-06 0)
(-13.8499 -2.16997e-06 0)
(-13.8301 -2.14849e-06 0)
(-13.8103 -2.12702e-06 0)
(-13.7904 -2.10589e-06 0)
(-13.7706 -2.08471e-06 0)
(-13.7507 -2.06386e-06 0)
(-13.7308 -2.043e-06 0)
(-13.7109 -2.02244e-06 0)
(-13.6909 -2.00189e-06 0)
(-13.671 -1.9816e-06 0)
(-13.651 -1.96134e-06 0)
(-13.6311 -1.94134e-06 0)
(-13.6111 -1.92139e-06 0)
(-13.5911 -1.90167e-06 0)
(-13.5711 -1.88204e-06 0)
(-13.5512 -1.86261e-06 0)
(-13.5311 -1.84328e-06 0)
(-13.5111 -1.8241e-06 0)
(-13.4911 -1.80511e-06 0)
(-13.4711 -1.78623e-06 0)
(-13.451 -1.76753e-06 0)
(-13.431 -1.74892e-06 0)
(-13.411 -1.73052e-06 0)
(-13.3909 -1.71219e-06 0)
(-13.3709 -1.6941e-06 0)
(-13.3508 -1.67605e-06 0)
(-13.3308 -1.65825e-06 0)
(-13.3107 -1.64048e-06 0)
(-13.2906 -1.62296e-06 0)
(-13.2706 -1.60547e-06 0)
(-13.2505 -1.58826e-06 0)
(-13.2305 -1.57105e-06 0)
(-13.2104 -1.55414e-06 0)
(-13.1904 -1.5372e-06 0)
(-13.1703 -1.52058e-06 0)
(-13.1503 -1.50387e-06 0)
(-13.1302 -1.4876e-06 0)
(-13.1102 -1.4712e-06 0)
(-13.0901 -1.45516e-06 0)
(-13.0701 -1.43902e-06 0)
(-13.0501 -1.42328e-06 0)
(-13.0301 -1.40742e-06 0)
(-13.01 -1.39191e-06 0)
(-12.99 -1.37636e-06 0)
(-12.97 -1.36118e-06 0)
(-12.95 -1.34586e-06 0)
(-12.9301 -1.33092e-06 0)
(-12.9101 -1.31588e-06 0)
(-12.8901 -1.30123e-06 0)
(-12.8702 -1.28643e-06 0)
(-12.8502 -1.27203e-06 0)
(-12.8303 -1.25753e-06 0)
(-12.8104 -1.24338e-06 0)
(-12.7905 -1.22917e-06 0)
(-12.7706 -1.21528e-06 0)
(-12.7507 -1.20131e-06 0)
(-12.7308 -1.18769e-06 0)
(-12.7109 -1.17398e-06 0)
(-12.6911 -1.16059e-06 0)
(-12.6713 -1.14719e-06 0)
(-12.6515 -1.134e-06 0)
(-12.6317 -1.12085e-06 0)
(-12.6119 -1.10796e-06 0)
(-12.5921 -1.09505e-06 0)
(-12.5724 -1.08238e-06 0)
(-12.5526 -1.06975e-06 0)
(-12.533 -1.05733e-06 0)
(-12.5132 -1.0449e-06 0)
(-12.4936 -1.03267e-06 0)
(-12.4739 -1.02056e-06 0)
(-12.4543 -1.00858e-06 0)
(-12.4346 -9.96699e-07 0)
(-12.4151 -9.84949e-07 0)
(-12.3955 -9.7331e-07 0)
(-12.376 -9.61775e-07 0)
(-12.3564 -9.50386e-07 0)
(-12.3369 -9.39068e-07 0)
(-12.3174 -9.27894e-07 0)
(-12.298 -9.16796e-07 0)
(-12.2785 -9.05864e-07 0)
(-12.2591 -8.95002e-07 0)
(-12.2397 -8.84279e-07 0)
(-12.2204 -8.73621e-07 0)
(-12.201 -8.63152e-07 0)
(-12.1817 -8.52716e-07 0)
(-12.1624 -8.42443e-07 0)
(-12.1432 -8.32206e-07 0)
(-12.1239 -8.2217e-07 0)
(-12.1047 -8.12147e-07 0)
(-12.0855 -8.02319e-07 0)
(-12.0664 -7.92495e-07 0)
(-12.0472 -7.82874e-07 0)
(-12.0282 -7.73264e-07 0)
(-12.0091 -7.63852e-07 0)
(-11.99 -7.54417e-07 0)
(-11.971 -7.45215e-07 0)
(-11.952 -7.35989e-07 0)
(-11.9331 -7.2698e-07 0)
(-11.9142 -7.17928e-07 0)
(-11.8953 -7.09111e-07 0)
(-11.8764 -7.00284e-07 0)
(-11.8576 -6.91651e-07 0)
(-11.8388 -6.83019e-07 0)
(-11.82 -6.74581e-07 0)
(-11.8013 -6.6614e-07 0)
(-11.7826 -6.57871e-07 0)
(-11.7639 -6.49626e-07 0)
(-11.7453 -6.41524e-07 0)
(-11.7267 -6.33478e-07 0)
(-11.7081 -6.25528e-07 0)
(-11.6896 -6.17673e-07 0)
(-11.6711 -6.09873e-07 0)
(-11.6526 -6.02223e-07 0)
(-11.6342 -5.94477e-07 0)
(-11.6158 -5.87108e-07 0)
(-11.5974 -5.79599e-07 0)
(-11.5771 -5.70716e-07 0)
(-11.5549 -5.61527e-07 0)
(-11.5331 -5.53306e-07 0)
(-11.5116 -5.45279e-07 0)
(-11.4904 -5.37282e-07 0)
(-11.4695 -5.2949e-07 0)
(-11.449 -5.21868e-07 0)
(-11.4287 -5.14418e-07 0)
(-11.4087 -5.07146e-07 0)
(-11.389 -5.0007e-07 0)
(-11.3696 -4.93139e-07 0)
(-11.3504 -4.86379e-07 0)
(-11.3315 -4.79764e-07 0)
(-11.3128 -4.73329e-07 0)
(-11.2944 -4.67003e-07 0)
(-11.2763 -4.60872e-07 0)
(-11.2584 -4.54835e-07 0)
(-11.2407 -4.48966e-07 0)
(-11.2232 -4.43188e-07 0)
(-11.206 -4.37567e-07 0)
(-11.189 -4.3205e-07 0)
(-11.1721 -4.2668e-07 0)
(-11.1556 -4.21402e-07 0)
(-11.1392 -4.1624e-07 0)
(-11.123 -4.11195e-07 0)
(-11.107 -4.06238e-07 0)
(-11.0912 -4.01415e-07 0)
(-11.0756 -3.96667e-07 0)
(-11.0601 -3.92013e-07 0)
(-11.0449 -3.87473e-07 0)
(-11.0298 -3.83018e-07 0)
(-11.0149 -3.78633e-07 0)
(-11.0002 -3.74348e-07 0)
(-10.9856 -3.70152e-07 0)
(-10.9712 -3.66044e-07 0)
(-10.9569 -3.62021e-07 0)
(-10.9429 -3.58066e-07 0)
(-10.9289 -3.54201e-07 0)
(-10.9151 -3.50393e-07 0)
(-10.9015 -3.46668e-07 0)
(-10.888 -3.43008e-07 0)
(-10.8746 -3.39418e-07 0)
(-10.8614 -3.35886e-07 0)
(-10.8483 -3.32434e-07 0)
(-10.8354 -3.29014e-07 0)
(-10.8226 -3.25698e-07 0)
(-10.8099 -3.22397e-07 0)
(-10.7974 -3.1919e-07 0)
(-10.785 -3.16009e-07 0)
(-10.7726 -3.1292e-07 0)
(-10.7605 -3.09844e-07 0)
(-10.7484 -3.06863e-07 0)
(-10.7364 -3.03919e-07 0)
(-10.7246 -3.01017e-07 0)
(-10.7129 -2.98178e-07 0)
(-10.7013 -2.95385e-07 0)
(-10.6898 -2.9264e-07 0)
(-10.6783 -2.89931e-07 0)
(-10.6671 -2.87292e-07 0)
(-10.6559 -2.84659e-07 0)
(-10.6448 -2.82129e-07 0)
(-10.6338 -2.79566e-07 0)
(-10.6229 -2.77152e-07 0)
(-10.6121 -2.74637e-07 0)
(-10.6014 -2.72341e-07 0)
(-10.5908 -2.6988e-07 0)
(-10.5803 -2.67711e-07 0)
(-10.5698 -2.65248e-07 0)
(-10.5595 -2.63236e-07 0)
(-10.5492 -2.60795e-07 0)
(-10.5391 -2.58909e-07 0)
(-10.529 -2.56464e-07 0)
(-10.519 -2.5476e-07 0)
(-10.509 -2.52297e-07 0)
(-10.4993 -2.5079e-07 0)
(-10.4894 -2.48297e-07 0)
(-10.4799 -2.46976e-07 0)
(-10.4701 -2.4449e-07 0)
(-10.4607 -2.43336e-07 0)
(-10.451 -2.40884e-07 0)
(-10.4419 -2.39828e-07 0)
(-10.4322 -2.37544e-07 0)
(-10.4233 -2.36429e-07 0)
(-10.4137 -2.34648e-07 0)
(-10.4049 -2.32969e-07 0)
(-10.3955 -2.32648e-07 0)
(-10.3867 -2.2877e-07 0)
(-10.3776 -2.32973e-07 0)
(-10.3685 -2.21552e-07 0)
(-10.3603 -2.39587e-07 0)
(-10.3497 -2.04536e-07 0)
(-10.3444 -2.59246e-07 0)
(-10.3292 -1.70483e-07 0)
(-10.3313 -2.33421e-07 0)
(-10.3105 -2.72821e-07 0)
)
;
    }
    symmetry
    {
        type            symmetryPlane;
    }
    frontAndBack
    {
        type            empty;
    }
}


// ************************************************************************* //
