/*--------------------------------*- C++ -*----------------------------------*\
| =========                 |                                                 |
| \\      /  F ield         | OpenFOAM: The Open Source CFD Toolbox           |
|  \\    /   O peration     | Version:  v2012                                 |
|   \\  /    A nd           | Website:  www.openfoam.com                      |
|    \\/     M anipulation  |                                                 |
\*---------------------------------------------------------------------------*/
FoamFile
{
    version     2.0;
    format      ascii;
    class       volScalarField;
    location    "49";
    object      yPlus;
}
// * * * * * * * * * * * * * * * * * * * * * * * * * * * * * * * * * * * * * //

dimensions      [0 0 0 0 0 0 0];


internalField   uniform 0;

boundaryField
{
    inlet
    {
        type            calculated;
        value           uniform 0;
    }
    outlet
    {
        type            calculated;
        value           uniform 0;
    }
    topWall
    {
        type            calculated;
        value           nonuniform List<scalar> 
545
(
0.152533
0.263028
0.337439
0.396648
0.446772
0.490627
0.529796
0.565276
0.597745
0.627691
0.655478
0.68139
0.705651
0.728442
0.749915
0.770196
0.789391
0.807593
0.824882
0.841327
0.856992
0.87193
0.886191
0.899818
0.912852
0.925329
0.937281
0.948739
0.959731
0.970281
0.980413
0.99015
0.99951
1.00851
1.01718
1.02552
1.03355
1.04129
1.04875
1.05594
1.06287
1.06956
1.07602
1.08225
1.08826
1.09407
1.09969
1.10511
1.11035
1.11542
1.12032
1.12505
1.12964
1.13407
1.13836
1.14251
1.14653
1.15042
1.15419
1.15784
1.16137
1.16479
1.16811
1.17132
1.17444
1.17745
1.18038
1.18322
1.18597
1.18863
1.19122
1.19373
1.19613
1.19845
1.20076
1.20304
1.20531
1.20756
1.20979
1.21201
1.2142
1.21638
1.21854
1.22069
1.22281
1.22492
1.22702
1.2291
1.23116
1.2332
1.23523
1.23725
1.23924
1.24123
1.24319
1.24514
1.2469
1.24848
1.25005
1.25162
1.25319
1.25476
1.25633
1.2579
1.25947
1.26104
1.26261
1.26418
1.26575
1.26732
1.26889
1.27045
1.27202
1.27359
1.27515
1.27672
1.27828
1.27985
1.28141
1.28297
1.28453
1.2861
1.28766
1.28922
1.29078
1.29234
1.2939
1.29546
1.29701
1.29857
1.30013
1.30168
1.30324
1.30479
1.30635
1.3079
1.30945
1.311
1.31256
1.31411
1.31565
1.3172
1.31875
1.3203
1.32184
1.32339
1.32493
1.32648
1.32802
1.32956
1.3311
1.33264
1.33418
1.33572
1.33726
1.33879
1.34033
1.34186
1.3434
1.34493
1.34646
1.34799
1.34952
1.35105
1.35257
1.3541
1.35562
1.35715
1.35867
1.36019
1.36171
1.36323
1.36475
1.36626
1.36778
1.36929
1.3708
1.37232
1.37383
1.37533
1.37684
1.37835
1.37985
1.38136
1.38286
1.38436
1.38586
1.38735
1.38885
1.39035
1.39184
1.39333
1.39482
1.39631
1.3978
1.39928
1.40077
1.40225
1.40373
1.40521
1.40669
1.40816
1.40964
1.41111
1.41258
1.41405
1.41552
1.41698
1.41845
1.41991
1.42137
1.42283
1.42429
1.42574
1.42719
1.42864
1.43009
1.43154
1.43299
1.43443
1.43587
1.43731
1.43875
1.44018
1.44162
1.44305
1.44448
1.4459
1.44733
1.44875
1.45017
1.45159
1.453
1.45442
1.45583
1.45724
1.45865
1.46005
1.46145
1.46285
1.46425
1.46565
1.46704
1.46843
1.46982
1.4712
1.47259
1.47397
1.47535
1.47672
1.4781
1.47947
1.48083
1.4822
1.48356
1.48492
1.48628
1.48764
1.48899
1.49034
1.49168
1.49303
1.49437
1.49571
1.49704
1.49837
1.4997
1.50103
1.50236
1.5036
1.50478
1.50596
1.50716
1.50836
1.50956
1.51078
1.512
1.51323
1.51447
1.51572
1.51698
1.51824
1.51951
1.52079
1.52207
1.52337
1.52467
1.52597
1.52729
1.52861
1.52994
1.53128
1.53263
1.53398
1.53534
1.5367
1.53808
1.53946
1.54085
1.54224
1.54364
1.54505
1.54646
1.54788
1.54931
1.55074
1.55218
1.55362
1.55508
1.55653
1.55799
1.55946
1.56094
1.56241
1.5639
1.56539
1.56688
1.56838
1.56988
1.57139
1.5729
1.57442
1.57594
1.57746
1.57899
1.58052
1.58205
1.58359
1.58513
1.58667
1.58822
1.58976
1.59131
1.59286
1.59442
1.59597
1.59752
1.59908
1.60063
1.60219
1.60375
1.6053
1.60686
1.60841
1.60996
1.61152
1.61306
1.61461
1.61616
1.6177
1.61924
1.62078
1.62231
1.62384
1.62536
1.62688
1.6284
1.62991
1.63141
1.63291
1.6344
1.63588
1.63735
1.63882
1.64028
1.64173
1.64318
1.64461
1.64603
1.64745
1.64885
1.65024
1.65162
1.65299
1.65434
1.65568
1.65701
1.65833
1.65963
1.66091
1.66218
1.66344
1.66468
1.6659
1.6671
1.66829
1.66946
1.67061
1.67173
1.67285
1.67394
1.67501
1.67605
1.67708
1.67809
1.67907
1.68003
1.68096
1.68187
1.68276
1.68362
1.68446
1.68527
1.68605
1.68681
1.68754
1.68824
1.68891
1.68955
1.69017
1.69075
1.69131
1.69183
1.69233
1.69279
1.69322
1.69362
1.69398
1.69432
1.69462
1.69488
1.69512
1.69532
1.69548
1.69561
1.69571
1.69577
1.6958
1.69578
1.69574
1.69566
1.69554
1.69539
1.6952
1.69497
1.69471
1.69441
1.69408
1.6937
1.6933
1.69285
1.69237
1.69185
1.6913
1.69071
1.69008
1.68942
1.68872
1.68799
1.68722
1.68633
1.6853
1.68424
1.68315
1.68202
1.68087
1.67968
1.67847
1.67723
1.67598
1.6747
1.67341
1.67209
1.67076
1.66941
1.66806
1.66669
1.66531
1.66392
1.66253
1.66112
1.65972
1.65831
1.6569
1.65548
1.65407
1.65265
1.65124
1.64982
1.64842
1.64701
1.64561
1.64421
1.64283
1.64145
1.64008
1.63872
1.63737
1.63602
1.6347
1.63338
1.63207
1.63078
1.6295
1.62824
1.62699
1.62576
1.62454
1.62334
1.62216
1.62099
1.61985
1.61872
1.61762
1.61653
1.61546
1.61441
1.61339
1.61239
1.61141
1.61045
1.60952
1.6086
1.60772
1.60685
1.60602
1.6052
1.60442
1.60365
1.60292
1.60221
1.60153
1.60087
1.60024
1.59964
1.59906
1.59852
1.598
1.59751
1.59705
1.59662
1.59622
1.59584
1.5955
1.59518
1.5949
1.59464
1.59442
1.59422
1.59406
1.59392
1.59382
1.59375
1.59371
1.59368
)
;
    }
    bottomWall
    {
        type            calculated;
        value           nonuniform List<scalar> 
449
(
0.00273788
0.0048005
0.00537402
0.00532688
0.00525608
0.00516028
0.00506301
0.00497193
0.00488832
0.00481192
0.004742
0.0046779
0.00461891
0.00456429
0.00451353
0.00446623
0.00442198
0.00438047
0.00434138
0.00430446
0.00426952
0.00423638
0.00420486
0.00417483
0.00414616
0.00411874
0.00409249
0.00406731
0.00404312
0.00401985
0.00399744
0.00397583
0.00395498
0.00393483
0.00391535
0.00389647
0.0038782
0.00386046
0.00384326
0.00382653
0.00381028
0.00379446
0.00377906
0.00376406
0.00374944
0.00373518
0.00372128
0.00370771
0.00369446
0.00368153
0.00366888
0.00365653
0.00364444
0.00363261
0.00362103
0.0036097
0.00359859
0.00358769
0.00357702
0.00356654
0.00355626
0.00354616
0.00353625
0.00352651
0.00351694
0.00350753
0.00349828
0.00348919
0.00348023
0.00347143
0.00346276
0.00345423
0.00344582
0.00343755
0.00342939
0.00342136
0.00341345
0.00340564
0.00339795
0.00339036
0.00338288
0.00337551
0.00336823
0.00336104
0.00335396
0.00334696
0.00334006
0.00333324
0.00332651
0.00331986
0.0033133
0.00330681
0.0033004
0.00329407
0.00328781
0.00328162
0.0032755
0.00326946
0.00326348
0.00325757
0.00325172
0.00324594
0.00324022
0.00323455
0.00322895
0.00322341
0.00321792
0.0032125
0.00320712
0.0032018
0.00319653
0.00319132
0.00318615
0.00318103
0.00317596
0.00317095
0.00316597
0.00316105
0.00315616
0.00315133
0.00314653
0.00314178
0.00313708
0.00313241
0.00312778
0.0031232
0.00311865
0.00311414
0.00310967
0.00310523
0.00310084
0.00309648
0.00309215
0.00308786
0.0030836
0.00307938
0.00307519
0.00307104
0.00306691
0.00306282
0.00305876
0.00305473
0.00305073
0.00304676
0.00304282
0.0030389
0.00303502
0.00303117
0.00302734
0.00302354
0.00301977
0.00301602
0.0030123
0.0030086
0.00300493
0.00300129
0.00299767
0.00299407
0.0029905
0.00298696
0.00298343
0.00297993
0.00297645
0.002973
0.00296956
0.00296615
0.00296276
0.0029594
0.00295605
0.00295272
0.00294942
0.00294613
0.00294286
0.0029398
0.00293692
0.00293402
0.00293112
0.00292821
0.00292529
0.00292237
0.00291943
0.00291648
0.00291353
0.00291056
0.00290759
0.00290461
0.00290162
0.00289862
0.00289561
0.0028926
0.00288957
0.00288654
0.0028835
0.00288045
0.00287739
0.00287433
0.00287125
0.00286817
0.00286509
0.00286199
0.00285889
0.00285577
0.00285266
0.00284953
0.0028464
0.00284326
0.00284011
0.00283695
0.00283379
0.00283063
0.00282745
0.00282427
0.00282108
0.00281789
0.00281469
0.00281148
0.00280827
0.00280505
0.00280182
0.00279859
0.00279536
0.00279211
0.00278887
0.00278561
0.00278235
0.00277909
0.00277582
0.00277254
0.00276926
0.00276598
0.00276269
0.0027594
0.0027561
0.0027528
0.00274949
0.00274618
0.00274286
0.00273954
0.00273621
0.00273289
0.00272955
0.00272622
0.00272287
0.00271954
0.00271618
0.00271284
0.00270948
0.00270613
0.00270276
0.00269941
0.00269603
0.00269267
0.00268929
0.00268593
0.00268254
0.00267917
0.00267578
0.00267241
0.00266901
0.00266563
0.00266224
0.00265885
0.00265545
0.00265206
0.00264866
0.00264527
0.00264187
0.00263847
0.00263506
0.00263167
0.00262826
0.00262486
0.00262145
0.00261805
0.00261464
0.00261123
0.00260782
0.00260442
0.002601
0.0025976
0.00259419
0.00259078
0.00258737
0.00258396
0.00258056
0.00257715
0.00257374
0.00257033
0.00256693
0.00256352
0.00256012
0.00255671
0.00255332
0.00254991
0.00254651
0.00254311
0.00253972
0.00253632
0.00253293
0.00252953
0.00252614
0.00252274
0.00251936
0.00251597
0.00251259
0.0025092
0.00250583
0.00250244
0.00249907
0.00249569
0.00249233
0.00248895
0.00248559
0.00248222
0.00247887
0.0024755
0.00247216
0.00246879
0.00246545
0.0024621
0.00245876
0.00245542
0.00245209
0.00244874
0.00244542
0.00244209
0.00243877
0.00243545
0.00243214
0.00242882
0.00242552
0.0024222
0.00241891
0.00241561
0.00241232
0.00240903
0.00240575
0.00240246
0.00239919
0.00239592
0.00239265
0.00238939
0.00238613
0.00238287
0.00237963
0.00237638
0.00237314
0.00236991
0.00236668
0.00236345
0.00236023
0.00235702
0.00235381
0.0023506
0.00234705
0.00234317
0.00233937
0.0023356
0.0023319
0.00232824
0.00232465
0.00232109
0.00231759
0.00231413
0.00231073
0.00230737
0.00230406
0.00230078
0.00229756
0.00229436
0.00229122
0.00228811
0.00228505
0.00228201
0.00227902
0.00227607
0.00227315
0.00227026
0.00226742
0.00226459
0.00226182
0.00225906
0.00225634
0.00225365
0.002251
0.00224836
0.00224577
0.00224319
0.00224066
0.00223814
0.00223565
0.00223319
0.00223075
0.00222834
0.00222596
0.00222359
0.00222126
0.00221894
0.00221666
0.00221439
0.00221215
0.00220992
0.00220772
0.00220554
0.00220339
0.00220124
0.00219913
0.00219703
0.00219495
0.00219289
0.00219085
0.00218883
0.00218683
0.00218484
0.00218287
0.00218092
0.00217899
0.00217706
0.00217517
0.00217328
0.00217142
0.00216955
0.00216772
0.00216589
0.0021641
0.00216229
0.00216053
0.00215874
0.00215701
0.00215524
0.00215355
0.0021518
0.00215015
0.00214841
0.00214679
0.00214507
0.00214348
0.00214177
0.00214022
0.00213851
0.00213698
0.00213531
0.00213376
0.00213218
0.00213048
0.00212923
0.002127
0.00212669
0.00212355
)
;
    }
    symmetry
    {
        type            symmetryPlane;
    }
    frontAndBack
    {
        type            empty;
    }
}


// ************************************************************************* //
