/*--------------------------------*- C++ -*----------------------------------*\
| =========                 |                                                 |
| \\      /  F ield         | OpenFOAM: The Open Source CFD Toolbox           |
|  \\    /   O peration     | Version:  v2012                                 |
|   \\  /    A nd           | Website:  www.openfoam.com                      |
|    \\/     M anipulation  |                                                 |
\*---------------------------------------------------------------------------*/
FoamFile
{
    version     2.0;
    format      ascii;
    class       volScalarField;
    location    "35";
    object      k;
}
// * * * * * * * * * * * * * * * * * * * * * * * * * * * * * * * * * * * * * //

dimensions      [0 2 -2 0 0 0 0];


internalField   nonuniform List<scalar> 
209825
(
0.00102381
0.00093011
0.000856172
0.000799924
0.000757659
0.000725638
0.000701002
0.000681657
0.000666219
0.00065367
0.00064335
0.000634736
0.000627487
0.000621313
0.000616023
0.000611446
0.000607468
0.000603985
0.000600916
0.000598205
0.000595791
0.000593645
0.000591712
0.000589986
0.000588416
0.000587013
0.000585719
0.000584564
0.000583486
0.00058253
0.000581628
0.000580823
0.000580062
0.000579391
0.000578742
0.00057817
0.000577612
0.000577132
0.000576655
0.000576245
0.000575833
0.00057549
0.000575136
0.000574834
0.000574534
0.000574282
0.000574015
0.000573795
0.000573563
0.000573378
0.00057319
0.000573042
0.000572875
0.000572741
0.000572611
0.000572493
0.000572373
0.000572288
0.000572167
0.0005721
0.000571999
0.000571948
0.000571852
0.000571799
0.000571681
0.000571653
0.000571659
0.000571659
0.000571645
0.00057167
0.00057167
0.000571738
0.000571738
0.000571821
0.000571853
0.000571955
0.000571988
0.00057209
0.000572134
0.000572248
0.000572304
0.000572429
0.000572491
0.000572631
0.000572705
0.000572868
0.000572952
0.000573139
0.000573228
0.000573453
0.000573545
0.000573805
0.000574044
0.000583427
0.00061491
0.00152401
0.00102381
0.00093011
0.000856172
0.000799923
0.000757656
0.000725633
0.000700996
0.00068165
0.00066621
0.00065366
0.00064334
0.000634724
0.000627475
0.0006213
0.00061601
0.000611432
0.000607454
0.00060397
0.000600901
0.00059819
0.000595775
0.00059363
0.000591697
0.00058997
0.000588399
0.000586997
0.000585703
0.000584547
0.00058347
0.000582513
0.000581611
0.000580806
0.000580045
0.000579374
0.000578724
0.000578153
0.000577594
0.000577114
0.000576637
0.000576227
0.000575815
0.000575473
0.000575119
0.000574816
0.000574517
0.000574264
0.000573997
0.000573777
0.000573545
0.00057336
0.000573172
0.000573023
0.000572856
0.000572722
0.000572593
0.000572474
0.000572355
0.00057227
0.000572149
0.000572082
0.000571981
0.00057193
0.000571833
0.000571781
0.000571663
0.000571635
0.000571641
0.000571641
0.000571627
0.000571652
0.000571652
0.000571719
0.000571719
0.000571802
0.000571834
0.000571936
0.00057197
0.000572071
0.000572116
0.000572229
0.000572285
0.000572411
0.000572472
0.000572612
0.000572687
0.00057285
0.000572933
0.00057312
0.000573209
0.000573434
0.000573526
0.000573786
0.000574026
0.000583426
0.0006149
0.00152488
0.00102381
0.000930111
0.00085617
0.000799915
0.000757641
0.000725611
0.000700968
0.000681616
0.000666172
0.000653618
0.000643295
0.000634676
0.000627425
0.000621247
0.000615956
0.000611376
0.000607396
0.000603911
0.000600842
0.000598129
0.000595714
0.000593567
0.000591633
0.000589906
0.000588335
0.000586932
0.000585637
0.000584481
0.000583403
0.000582446
0.000581543
0.000580739
0.000579977
0.000579306
0.000578656
0.000578084
0.000577525
0.000577045
0.000576568
0.000576157
0.000575745
0.000575403
0.000575048
0.000574746
0.000574446
0.000574194
0.000573926
0.000573706
0.000573474
0.000573289
0.000573101
0.000572952
0.000572785
0.000572651
0.000572522
0.000572403
0.000572283
0.000572198
0.000572077
0.00057201
0.000571909
0.000571858
0.000571761
0.000571709
0.000571591
0.000571562
0.000571568
0.000571568
0.000571554
0.000571579
0.000571579
0.000571646
0.000571646
0.000571729
0.000571761
0.000571863
0.000571896
0.000571997
0.000572042
0.000572156
0.000572211
0.000572337
0.000572398
0.000572538
0.000572613
0.000572775
0.000572859
0.000573045
0.000573135
0.00057336
0.000573452
0.000573712
0.000573951
0.000583386
0.000614841
0.00152663
0.00102382
0.000930114
0.000856167
0.000799901
0.000757615
0.000725574
0.00070092
0.00068156
0.000666108
0.000653548
0.000643219
0.000634596
0.00062734
0.000621159
0.000615864
0.000611282
0.0006073
0.000603813
0.000600741
0.000598027
0.00059561
0.000593462
0.000591527
0.000589799
0.000588227
0.000586822
0.000585527
0.00058437
0.000583292
0.000582334
0.00058143
0.000580625
0.000579863
0.000579191
0.000578541
0.000577969
0.000577409
0.000576929
0.000576451
0.000576041
0.000575628
0.000575285
0.000574931
0.000574628
0.000574328
0.000574075
0.000573807
0.000573587
0.000573355
0.000573169
0.000572981
0.000572832
0.000572665
0.000572531
0.000572401
0.000572282
0.000572162
0.000572077
0.000571956
0.000571889
0.000571788
0.000571737
0.00057164
0.000571587
0.00057147
0.000571441
0.000571447
0.000571446
0.000571432
0.000571457
0.000571456
0.000571523
0.000571523
0.000571606
0.000571638
0.00057174
0.000571773
0.000571874
0.000571918
0.000572032
0.000572087
0.000572213
0.000572274
0.000572414
0.000572488
0.000572651
0.000572734
0.000572921
0.00057301
0.000573235
0.000573327
0.000573586
0.000573826
0.000583316
0.00061474
0.00152866
0.00102382
0.000930117
0.000856162
0.000799882
0.000757579
0.000725522
0.000700853
0.00068148
0.000666018
0.000653448
0.000643112
0.000634482
0.000627221
0.000621035
0.000615736
0.00061115
0.000607164
0.000603674
0.0006006
0.000597883
0.000595464
0.000593314
0.000591377
0.000589647
0.000588074
0.000586668
0.000585372
0.000584214
0.000583134
0.000582176
0.000581271
0.000580465
0.000579702
0.00057903
0.000578379
0.000577806
0.000577246
0.000576765
0.000576287
0.000575876
0.000575462
0.000575119
0.000574764
0.000574461
0.000574161
0.000573908
0.00057364
0.000573419
0.000573187
0.000573001
0.000572812
0.000572663
0.000572496
0.000572361
0.000572232
0.000572113
0.000571992
0.000571907
0.000571786
0.000571719
0.000571617
0.000571566
0.000571469
0.000571417
0.000571299
0.000571269
0.000571275
0.000571274
0.00057126
0.000571284
0.000571284
0.00057135
0.00057135
0.000571433
0.000571464
0.000571566
0.000571599
0.0005717
0.000571744
0.000571858
0.000571913
0.000572038
0.000572099
0.000572239
0.000572313
0.000572475
0.000572558
0.000572745
0.000572834
0.000573058
0.00057315
0.000573409
0.00057365
0.000583216
0.000614597
0.00153096
0.00102382
0.000930121
0.000856157
0.000799857
0.000757532
0.000725454
0.000700766
0.000681377
0.000665901
0.00065332
0.000642973
0.000634334
0.000627066
0.000620874
0.000615569
0.000610978
0.000606988
0.000603494
0.000600416
0.000597697
0.000595275
0.000593123
0.000591183
0.000589451
0.000587876
0.000586469
0.00058517
0.000584011
0.00058293
0.00058197
0.000581065
0.000580258
0.000579494
0.000578821
0.000578168
0.000577595
0.000577034
0.000576553
0.000576074
0.000575662
0.000575248
0.000574905
0.000574549
0.000574245
0.000573945
0.000573691
0.000573423
0.000573202
0.000572969
0.000572783
0.000572594
0.000572445
0.000572277
0.000572142
0.000572012
0.000571893
0.000571772
0.000571687
0.000571565
0.000571498
0.000571396
0.000571345
0.000571248
0.000571195
0.000571077
0.000571047
0.000571053
0.000571052
0.000571037
0.00057106
0.00057106
0.000571126
0.000571126
0.000571208
0.000571239
0.000571341
0.000571374
0.000571474
0.000571518
0.000571631
0.000571686
0.000571811
0.000571873
0.000572012
0.000572086
0.000572248
0.000572331
0.000572517
0.000572606
0.00057283
0.000572921
0.00057318
0.000573422
0.000583086
0.00061441
0.00153346
0.00102382
0.000930126
0.00085615
0.000799827
0.000757475
0.00072537
0.000700659
0.00068125
0.000665757
0.000653161
0.000642802
0.000634153
0.000626875
0.000620675
0.000615363
0.000610767
0.000606771
0.000603272
0.00060019
0.000597467
0.000595041
0.000592886
0.000590944
0.000589209
0.000587632
0.000586222
0.000584922
0.000583761
0.000582679
0.000581717
0.00058081
0.000580002
0.000579237
0.000578562
0.000577909
0.000577335
0.000576773
0.000576291
0.000575811
0.000575399
0.000574984
0.00057464
0.000574284
0.000573979
0.000573678
0.000573424
0.000573155
0.000572934
0.0005727
0.000572514
0.000572324
0.000572175
0.000572006
0.000571871
0.000571741
0.000571621
0.0005715
0.000571415
0.000571293
0.000571225
0.000571123
0.000571072
0.000570974
0.000570922
0.000570804
0.000570773
0.000570778
0.000570777
0.000570762
0.000570785
0.000570784
0.000570849
0.000570849
0.000570931
0.000570962
0.000571063
0.000571096
0.000571196
0.00057124
0.000571353
0.000571407
0.000571532
0.000571593
0.000571732
0.000571806
0.000571967
0.00057205
0.000572235
0.000572324
0.000572548
0.000572639
0.000572897
0.000573141
0.000582926
0.000614182
0.00153605
0.00102382
0.000930132
0.000856141
0.000799791
0.000757407
0.000725271
0.000700532
0.000681099
0.000665586
0.000652973
0.000642599
0.000633937
0.000626648
0.000620438
0.000615118
0.000610514
0.000606512
0.000603008
0.000599921
0.000597193
0.000594763
0.000592604
0.000590659
0.000588921
0.000587341
0.000585929
0.000584626
0.000583463
0.000582379
0.000581415
0.000580507
0.000579697
0.00057893
0.000578255
0.0005776
0.000577025
0.000576462
0.000575978
0.000575498
0.000575084
0.000574669
0.000574324
0.000573967
0.000573662
0.00057336
0.000573105
0.000572836
0.000572614
0.00057238
0.000572193
0.000572003
0.000571853
0.000571684
0.000571548
0.000571417
0.000571298
0.000571176
0.000571091
0.000570968
0.0005709
0.000570798
0.000570746
0.000570649
0.000570596
0.000570478
0.000570447
0.000570451
0.00057045
0.000570433
0.000570456
0.000570455
0.000570519
0.000570519
0.000570601
0.000570631
0.000570732
0.000570764
0.000570864
0.000570907
0.00057102
0.000571075
0.000571199
0.00057126
0.000571398
0.000571471
0.000571632
0.000571715
0.0005719
0.000571988
0.000572212
0.000572302
0.00057256
0.000572806
0.000582738
0.00061391
0.00153854
0.00102383
0.000930139
0.000856132
0.000799749
0.000757327
0.000725155
0.000700385
0.000680924
0.000665386
0.000652753
0.000642362
0.000633685
0.000626384
0.000620163
0.000614833
0.000610221
0.000606211
0.0006027
0.000599607
0.000596874
0.000594439
0.000592276
0.000590327
0.000588585
0.000587002
0.000585587
0.000584282
0.000583116
0.000582029
0.000581064
0.000580153
0.000579342
0.000578573
0.000577896
0.00057724
0.000576663
0.000576099
0.000575615
0.000575133
0.000574718
0.000574302
0.000573956
0.000573598
0.000573292
0.000572989
0.000572734
0.000572464
0.000572242
0.000572006
0.000571819
0.000571628
0.000571478
0.000571308
0.000571172
0.000571041
0.000570921
0.000570799
0.000570713
0.00057059
0.000570522
0.000570419
0.000570367
0.000570269
0.000570216
0.000570099
0.000570066
0.00057007
0.000570068
0.000570051
0.000570073
0.000570072
0.000570135
0.000570135
0.000570216
0.000570246
0.000570346
0.000570378
0.000570477
0.00057052
0.000570633
0.000570687
0.000570811
0.000570871
0.000571009
0.000571082
0.000571243
0.000571325
0.000571509
0.000571597
0.00057182
0.00057191
0.000572168
0.000572415
0.000582521
0.000613594
0.00154065
0.00102383
0.000930147
0.000856121
0.000799702
0.000757237
0.000725024
0.000700216
0.000680723
0.000665159
0.000652502
0.000642092
0.000633398
0.000626082
0.000619848
0.000614507
0.000609885
0.000605867
0.000602348
0.000599248
0.000596509
0.000594069
0.000591901
0.000589947
0.000588202
0.000586614
0.000585196
0.000583888
0.000582719
0.00058163
0.000580662
0.000579749
0.000578936
0.000578165
0.000577486
0.000576828
0.00057625
0.000575685
0.000575198
0.000574715
0.0005743
0.000573882
0.000573535
0.000573176
0.000572869
0.000572565
0.000572309
0.000572038
0.000571815
0.000571579
0.000571391
0.0005712
0.000571048
0.000570879
0.000570742
0.00057061
0.000570489
0.000570367
0.00057028
0.000570157
0.000570089
0.000569986
0.000569933
0.000569835
0.000569782
0.000569665
0.000569631
0.000569634
0.000569632
0.000569614
0.000569635
0.000569633
0.000569695
0.000569695
0.000569776
0.000569805
0.000569904
0.000569936
0.000570035
0.000570078
0.000570189
0.000570243
0.000570366
0.000570427
0.000570564
0.000570636
0.000570796
0.000570878
0.000571062
0.00057115
0.000571371
0.000571461
0.000571718
0.000571968
0.000582276
0.000613235
0.00154197
0.00102383
0.000930156
0.000856109
0.000799649
0.000757136
0.000724876
0.000700027
0.000680498
0.000664903
0.00065222
0.000641787
0.000633074
0.000625742
0.000619494
0.00061414
0.000609507
0.000605479
0.000601951
0.000598844
0.000596097
0.000593651
0.000591477
0.000589519
0.000587769
0.000586177
0.000584755
0.000583443
0.000582272
0.000581179
0.000580208
0.000579293
0.000578477
0.000577704
0.000577023
0.000576364
0.000575784
0.000575217
0.000574729
0.000574244
0.000573827
0.000573408
0.00057306
0.0005727
0.000572392
0.000572087
0.00057183
0.000571558
0.000571334
0.000571098
0.000570909
0.000570716
0.000570564
0.000570394
0.000570256
0.000570124
0.000570003
0.000569879
0.000569793
0.000569669
0.0005696
0.000569496
0.000569443
0.000569345
0.000569292
0.000569174
0.00056914
0.000569142
0.000569139
0.00056912
0.00056914
0.000569138
0.000569199
0.000569199
0.000569279
0.000569307
0.000569406
0.000569437
0.000569536
0.000569578
0.000569689
0.000569742
0.000569865
0.000569925
0.000570061
0.000570134
0.000570293
0.000570374
0.000570557
0.000570644
0.000570866
0.000570954
0.000571211
0.000571464
0.000582003
0.000612831
0.00154196
0.00102384
0.000930166
0.000856096
0.00079959
0.000757024
0.000724712
0.000699817
0.000680247
0.000664618
0.000651906
0.000641448
0.000632714
0.000625363
0.000619098
0.000613731
0.000609085
0.000605046
0.000601509
0.000598393
0.000595639
0.000593186
0.000591005
0.000589041
0.000587286
0.000585689
0.000584263
0.000582947
0.000581772
0.000580676
0.000579702
0.000578784
0.000577966
0.00057719
0.000576507
0.000575846
0.000575263
0.000574694
0.000574205
0.000573718
0.0005733
0.00057288
0.00057253
0.000572169
0.00057186
0.000571553
0.000571295
0.000571022
0.000570798
0.00057056
0.00057037
0.000570177
0.000570024
0.000569853
0.000569715
0.000569581
0.00056946
0.000569335
0.000569248
0.000569124
0.000569054
0.00056895
0.000568897
0.000568798
0.000568745
0.000568627
0.000568592
0.000568592
0.000568589
0.00056857
0.000568588
0.000568586
0.000568645
0.000568645
0.000568724
0.000568751
0.00056885
0.00056888
0.000568978
0.00056902
0.00056913
0.000569183
0.000569306
0.000569365
0.000569501
0.000569572
0.000569731
0.000569812
0.000569994
0.000570081
0.000570301
0.000570388
0.000570645
0.000570902
0.000581702
0.000612383
0.00154012
0.00102384
0.000930177
0.000856082
0.000799526
0.000756901
0.000724532
0.000699585
0.000679971
0.000664304
0.00065156
0.000641074
0.000632316
0.000624944
0.000618662
0.000613279
0.000608619
0.000604568
0.00060102
0.000597894
0.000595132
0.000592671
0.000590484
0.000588513
0.000586752
0.00058515
0.000583719
0.000582399
0.00058122
0.00058012
0.000579143
0.000578222
0.0005774
0.000576622
0.000575936
0.000575272
0.000574688
0.000574117
0.000573626
0.000573137
0.000572717
0.000572295
0.000571944
0.000571581
0.000571271
0.000570963
0.000570704
0.00057043
0.000570204
0.000569965
0.000569774
0.00056958
0.000569426
0.000569254
0.000569115
0.000568981
0.000568859
0.000568734
0.000568646
0.000568521
0.000568451
0.000568346
0.000568292
0.000568193
0.00056814
0.000568023
0.000567986
0.000567985
0.000567981
0.000567961
0.000567978
0.000567975
0.000568032
0.000568032
0.000568111
0.000568137
0.000568235
0.000568265
0.000568362
0.000568403
0.000568513
0.000568565
0.000568687
0.000568745
0.000568881
0.000568952
0.000569109
0.00056919
0.000569371
0.000569457
0.000569676
0.000569763
0.000570019
0.00057028
0.000581372
0.000611888
0.00153646
0.00102385
0.000930189
0.000856067
0.000799456
0.000756767
0.000724335
0.000699332
0.00067967
0.000663961
0.000651181
0.000640664
0.00063188
0.000624486
0.000618184
0.000612784
0.000608109
0.000604044
0.000600484
0.000597348
0.000594576
0.000592107
0.000589912
0.000587934
0.000586167
0.000584559
0.000583123
0.000581798
0.000580614
0.00057951
0.000578529
0.000577605
0.00057678
0.000575999
0.00057531
0.000574644
0.000574057
0.000573483
0.00057299
0.0005725
0.000572078
0.000571654
0.000571301
0.000570937
0.000570625
0.000570315
0.000570055
0.000569779
0.000569553
0.000569313
0.000569121
0.000568925
0.00056877
0.000568597
0.000568458
0.000568322
0.0005682
0.000568073
0.000567985
0.00056786
0.000567789
0.000567683
0.000567629
0.000567529
0.000567476
0.000567359
0.000567321
0.000567319
0.000567314
0.000567292
0.000567309
0.000567305
0.00056736
0.00056736
0.000567438
0.000567463
0.00056756
0.000567589
0.000567686
0.000567726
0.000567835
0.000567887
0.000568008
0.000568066
0.0005682
0.000568271
0.000568427
0.000568507
0.000568687
0.000568773
0.000568991
0.000569077
0.000569332
0.000569598
0.000581015
0.000611346
0.001531
0.00102385
0.000930202
0.000856051
0.000799381
0.000756622
0.000724122
0.000699057
0.000679342
0.000663588
0.000650768
0.000640219
0.000631406
0.000623987
0.000617663
0.000612244
0.000607553
0.000603474
0.000599901
0.000596753
0.00059397
0.000591492
0.000589288
0.000587303
0.000585529
0.000583915
0.000582473
0.000581143
0.000579954
0.000578846
0.000577861
0.000576932
0.000576104
0.000575319
0.000574628
0.000573958
0.000573369
0.000572793
0.000572297
0.000571804
0.000571381
0.000570954
0.000570599
0.000570234
0.00056992
0.000569609
0.000569348
0.000569071
0.000568843
0.000568601
0.000568408
0.000568211
0.000568055
0.000567881
0.000567741
0.000567604
0.000567481
0.000567353
0.000567265
0.000567138
0.000567067
0.000566961
0.000566906
0.000566806
0.000566752
0.000566635
0.000566596
0.000566592
0.000566586
0.000566564
0.000566578
0.000566574
0.000566627
0.000566627
0.000566704
0.000566728
0.000566824
0.000566852
0.000566948
0.000566988
0.000567096
0.000567147
0.000567267
0.000567325
0.000567458
0.000567528
0.000567683
0.000567763
0.000567942
0.000568027
0.000568244
0.000568328
0.000568582
0.000568854
0.000580628
0.000610756
0.00152378
0.00102386
0.000930216
0.000856034
0.000799301
0.000756467
0.000723892
0.000698761
0.000678988
0.000663184
0.000650323
0.000639737
0.000630893
0.000623447
0.0006171
0.000611661
0.000606951
0.000602856
0.000599269
0.000596108
0.000593315
0.000590826
0.000588613
0.000586619
0.000584838
0.000583217
0.000581768
0.000580432
0.000579239
0.000578125
0.000577136
0.000576203
0.000575371
0.000574583
0.000573888
0.000573215
0.000572623
0.000572044
0.000571546
0.000571051
0.000570625
0.000570196
0.000569839
0.000569472
0.000569157
0.000568844
0.000568581
0.000568302
0.000568073
0.00056783
0.000567635
0.000567437
0.00056728
0.000567105
0.000566963
0.000566825
0.000566702
0.000566573
0.000566484
0.000566356
0.000566284
0.000566177
0.000566122
0.000566021
0.000565966
0.000565849
0.000565809
0.000565804
0.000565798
0.000565773
0.000565787
0.000565781
0.000565832
0.000565832
0.000565908
0.000565931
0.000566026
0.000566053
0.000566149
0.000566187
0.000566295
0.000566345
0.000566464
0.000566521
0.000566653
0.000566722
0.000566877
0.000566955
0.000567133
0.000567217
0.000567434
0.000567517
0.00056777
0.000568048
0.000580213
0.000610115
0.00151484
0.00102386
0.000930232
0.000856016
0.000799215
0.0007563
0.000723646
0.000698444
0.000678608
0.000662751
0.000649844
0.000639219
0.000630341
0.000622866
0.000616494
0.000611032
0.000606303
0.00060219
0.000598588
0.000595414
0.000592608
0.000590108
0.000587885
0.000585882
0.000584092
0.000582464
0.000581009
0.000579667
0.000578467
0.000577349
0.000576354
0.000575417
0.000574581
0.000573788
0.00057309
0.000572414
0.000571819
0.000571237
0.000570735
0.000570238
0.000569809
0.000569379
0.000569019
0.00056865
0.000568333
0.000568018
0.000567753
0.000567473
0.000567242
0.000566998
0.000566802
0.000566602
0.000566444
0.000566267
0.000566124
0.000565985
0.000565861
0.000565731
0.000565641
0.000565512
0.00056544
0.000565331
0.000565275
0.000565174
0.000565119
0.000565002
0.000564961
0.000564954
0.000564946
0.000564921
0.000564933
0.000564926
0.000564975
0.000564975
0.000565049
0.000565071
0.000565165
0.000565191
0.000565286
0.000565323
0.00056543
0.000565479
0.000565598
0.000565654
0.000565785
0.000565853
0.000566006
0.000566084
0.000566261
0.000566344
0.000566559
0.000566641
0.000566893
0.000567178
0.000579767
0.000609423
0.00150421
0.00102387
0.000930248
0.000855998
0.000799124
0.000756123
0.000723383
0.000698104
0.000678201
0.000662287
0.000649331
0.000638664
0.000629749
0.000622243
0.000615843
0.000610358
0.000605607
0.000601476
0.000597857
0.000594668
0.000591849
0.000589337
0.000587104
0.000585091
0.000583292
0.000581656
0.000580193
0.000578845
0.000577639
0.000576514
0.000575515
0.000574572
0.000573732
0.000572935
0.000572233
0.000571553
0.000570955
0.000570369
0.000569865
0.000569364
0.000568934
0.0005685
0.000568139
0.000567767
0.000567448
0.00056713
0.000566864
0.000566582
0.000566349
0.000566104
0.000565906
0.000565704
0.000565545
0.000565367
0.000565223
0.000565082
0.000564957
0.000564826
0.000564735
0.000564606
0.000564532
0.000564423
0.000564366
0.000564264
0.000564209
0.000564092
0.000564049
0.00056404
0.000564032
0.000564005
0.000564015
0.000564007
0.000564053
0.000564053
0.000564126
0.000564147
0.000564239
0.000564265
0.000564359
0.000564395
0.000564501
0.000564549
0.000564666
0.000564722
0.000564852
0.000564919
0.000565071
0.000565148
0.000565324
0.000565406
0.00056562
0.0005657
0.000565951
0.000566244
0.000579289
0.000608676
0.00149196
0.00102388
0.000930266
0.000855979
0.000799028
0.000755935
0.000723104
0.000697743
0.000677768
0.000661792
0.000648783
0.000638071
0.000629118
0.000621578
0.000615148
0.000609637
0.000604864
0.000600713
0.000597076
0.000593871
0.000591038
0.000588513
0.000586268
0.000584245
0.000582437
0.000580792
0.000579321
0.000577965
0.000576753
0.000575622
0.000574617
0.000573669
0.000572824
0.000572022
0.000571316
0.000570632
0.00057003
0.000569441
0.000568934
0.00056843
0.000567996
0.00056756
0.000567196
0.000566822
0.000566501
0.000566181
0.000565912
0.000565628
0.000565394
0.000565147
0.000564948
0.000564744
0.000564583
0.000564404
0.000564258
0.000564116
0.00056399
0.000563857
0.000563766
0.000563635
0.000563561
0.00056345
0.000563393
0.00056329
0.000563234
0.000563117
0.000563072
0.000563062
0.000563053
0.000563025
0.000563033
0.000563024
0.000563067
0.000563067
0.000563139
0.000563157
0.000563249
0.000563273
0.000563366
0.000563402
0.000563506
0.000563554
0.00056367
0.000563724
0.000563853
0.00056392
0.00056407
0.000564146
0.00056432
0.000564402
0.000564614
0.000564693
0.000564943
0.000565244
0.000578779
0.000607871
0.00147814
0.00102388
0.000930285
0.000855959
0.000798927
0.000755736
0.000722809
0.00069736
0.000677309
0.000661267
0.000648202
0.000637441
0.000628446
0.00062087
0.000614409
0.00060887
0.000604073
0.000599901
0.000596244
0.000593023
0.000590174
0.000587635
0.000585378
0.000583344
0.000581525
0.000579871
0.000578391
0.000577027
0.000575808
0.000574671
0.000573659
0.000572706
0.000571855
0.000571049
0.000570338
0.00056965
0.000569044
0.000568451
0.00056794
0.000567433
0.000566997
0.000566558
0.000566191
0.000565814
0.00056549
0.000565168
0.000564898
0.000564611
0.000564376
0.000564126
0.000563925
0.000563719
0.000563557
0.000563376
0.000563229
0.000563085
0.000562959
0.000562824
0.000562731
0.0005626
0.000562524
0.000562413
0.000562354
0.000562251
0.000562195
0.000562078
0.000562031
0.000562019
0.000562008
0.000561979
0.000561986
0.000561975
0.000562015
0.000562015
0.000562085
0.000562102
0.000562192
0.000562215
0.000562307
0.000562342
0.000562445
0.000562492
0.000562606
0.00056266
0.000562787
0.000562853
0.000563002
0.000563078
0.00056325
0.00056333
0.000563541
0.000563619
0.000563867
0.000564178
0.000578233
0.000607006
0.00146283
0.00102389
0.000930305
0.000855939
0.000798821
0.000755527
0.000722497
0.000696955
0.000676823
0.000660711
0.000647586
0.000636774
0.000627734
0.000620119
0.000613624
0.000608056
0.000603233
0.000599038
0.000595361
0.000592121
0.000589256
0.000586703
0.000584432
0.000582386
0.000580556
0.000578892
0.000577403
0.000576031
0.000574804
0.00057366
0.000572641
0.000571682
0.000570826
0.000570014
0.000569298
0.000568606
0.000567996
0.000567399
0.000566884
0.000566374
0.000565934
0.000565492
0.000565122
0.000564742
0.000564416
0.000564091
0.000563818
0.00056353
0.000563292
0.000563041
0.000562838
0.00056263
0.000562466
0.000562283
0.000562135
0.000561989
0.000561861
0.000561725
0.000561631
0.000561499
0.000561422
0.000561309
0.00056125
0.000561145
0.000561089
0.000560972
0.000560923
0.000560909
0.000560898
0.000560867
0.000560872
0.000560859
0.000560897
0.000560896
0.000560965
0.00056098
0.000561069
0.00056109
0.000561181
0.000561214
0.000561316
0.000561362
0.000561476
0.000561528
0.000561654
0.000561719
0.000561866
0.000561941
0.000562111
0.000562191
0.0005624
0.000562476
0.000562723
0.000563044
0.000577649
0.000606074
0.00144609
0.0010239
0.000930326
0.000855918
0.000798711
0.000755308
0.000722169
0.000696529
0.00067631
0.000660124
0.000646935
0.000636068
0.000626981
0.000619325
0.000612794
0.000607195
0.000602344
0.000598124
0.000594426
0.000591166
0.000588283
0.000585715
0.00058343
0.000581371
0.00057953
0.000577854
0.000576356
0.000574975
0.00057374
0.000572588
0.000571563
0.000570597
0.000569735
0.000568917
0.000568196
0.000567499
0.000566884
0.000566283
0.000565765
0.00056525
0.000564807
0.000564361
0.000563988
0.000563605
0.000563277
0.000562949
0.000562674
0.000562383
0.000562143
0.00056189
0.000561685
0.000561475
0.000561309
0.000561124
0.000560975
0.000560827
0.000560698
0.00056056
0.000560465
0.000560331
0.000560253
0.000560139
0.000560079
0.000559973
0.000559916
0.000559799
0.000559749
0.000559732
0.00055972
0.000559688
0.000559691
0.000559676
0.000559711
0.00055971
0.000559776
0.00055979
0.000559877
0.000559897
0.000559987
0.000560018
0.000560119
0.000560164
0.000560276
0.000560327
0.000560452
0.000560516
0.000560661
0.000560735
0.000560904
0.000560982
0.00056119
0.000561264
0.00056151
0.000561841
0.000577024
0.000605074
0.00142801
0.0010239
0.000930349
0.000855897
0.000798596
0.000755078
0.000721825
0.000696081
0.000675771
0.000659507
0.000646249
0.000635324
0.000626187
0.000618487
0.000611919
0.000606286
0.000601405
0.000597159
0.000593438
0.000590158
0.000587256
0.000584671
0.000582371
0.000580298
0.000578445
0.000576758
0.00057525
0.000573859
0.000572615
0.000571455
0.000570422
0.000569449
0.000568581
0.000567758
0.000567031
0.000566328
0.000565709
0.000565103
0.000564581
0.000564062
0.000563615
0.000563166
0.000562789
0.000562403
0.000562072
0.000561741
0.000561464
0.00056117
0.000560928
0.000560672
0.000560465
0.000560252
0.000560085
0.000559898
0.000559747
0.000559597
0.000559467
0.000559327
0.000559231
0.000559095
0.000559016
0.000558901
0.00055884
0.000558733
0.000558675
0.000558558
0.000558506
0.000558487
0.000558473
0.000558441
0.000558441
0.000558424
0.000558456
0.000558455
0.000558519
0.000558531
0.000558616
0.000558635
0.000558723
0.000558753
0.000558853
0.000558896
0.000559007
0.000559057
0.00055918
0.000559243
0.000559387
0.000559459
0.000559626
0.000559703
0.000559909
0.000559982
0.000560226
0.000560569
0.00057635
0.000604002
0.00140866
0.00102391
0.000930372
0.000855876
0.000798477
0.000754839
0.000721466
0.000695612
0.000675205
0.000658858
0.000645529
0.000634542
0.000625351
0.000617606
0.000610997
0.000605328
0.000600417
0.000596143
0.000592397
0.000589095
0.000586174
0.000583571
0.000581255
0.000579167
0.000577301
0.000575602
0.000574082
0.000572681
0.000571428
0.00057026
0.000569219
0.000568239
0.000567364
0.000566534
0.000565801
0.000565093
0.000564469
0.000563859
0.000563331
0.000562808
0.000562358
0.000561904
0.000561524
0.000561135
0.000560801
0.000560467
0.000560186
0.00055989
0.000559646
0.000559387
0.000559178
0.000558963
0.000558793
0.000558605
0.000558451
0.000558299
0.000558168
0.000558026
0.000557928
0.000557791
0.000557711
0.000557594
0.000557532
0.000557424
0.000557366
0.000557248
0.000557194
0.000557172
0.000557158
0.000557124
0.000557122
0.000557103
0.000557132
0.00055713
0.000557191
0.000557202
0.000557285
0.000557303
0.00055739
0.000557418
0.000557516
0.000557558
0.000557667
0.000557716
0.000557837
0.000557899
0.000558041
0.000558112
0.000558277
0.000558354
0.000558557
0.000558628
0.000558871
0.000559226
0.000575621
0.000602854
0.00138813
0.00102392
0.000930397
0.000855855
0.000798354
0.000754591
0.000721091
0.000695122
0.000674613
0.000658178
0.000644773
0.000633722
0.000624474
0.00061668
0.000610028
0.000604323
0.000599378
0.000595075
0.000591303
0.000587978
0.000585036
0.000582414
0.00058008
0.000577978
0.000576097
0.000574386
0.000572854
0.000571443
0.000570179
0.000569002
0.000567953
0.000566965
0.000566083
0.000565246
0.000564507
0.000563793
0.000563164
0.000562548
0.000562016
0.000561488
0.000561033
0.000560576
0.000560192
0.000559799
0.000559462
0.000559124
0.000558841
0.000558542
0.000558295
0.000558034
0.000557822
0.000557604
0.000557432
0.000557242
0.000557087
0.000556932
0.0005568
0.000556655
0.000556557
0.000556418
0.000556336
0.000556218
0.000556154
0.000556045
0.000555986
0.000555868
0.000555812
0.000555787
0.000555772
0.000555737
0.000555733
0.000555712
0.000555738
0.000555734
0.000555793
0.000555802
0.000555883
0.000555899
0.000555985
0.000556012
0.000556108
0.000556149
0.000556256
0.000556304
0.000556423
0.000556484
0.000556624
0.000556694
0.000556857
0.000556932
0.000557133
0.000557202
0.000557443
0.000557812
0.000574825
0.000601629
0.00136651
0.00102393
0.000930423
0.000855833
0.000798227
0.000754333
0.000720701
0.000694611
0.000673995
0.000657468
0.000643983
0.000632863
0.000623556
0.00061571
0.000609013
0.000603268
0.000598288
0.000593955
0.000590155
0.000586805
0.000583841
0.000581199
0.000578848
0.000576729
0.000574833
0.000573108
0.000571565
0.000570142
0.000568868
0.000567681
0.000566623
0.000565627
0.000564737
0.000563893
0.000563147
0.000562427
0.000561792
0.000561171
0.000560634
0.000560101
0.000559642
0.00055918
0.000558792
0.000558396
0.000558055
0.000557714
0.000557427
0.000557125
0.000556876
0.000556611
0.000556397
0.000556177
0.000556002
0.00055581