/*--------------------------------*- C++ -*----------------------------------*\
| =========                 |                                                 |
| \\      /  F ield         | OpenFOAM: The Open Source CFD Toolbox           |
|  \\    /   O peration     | Version:  v2012                                 |
|   \\  /    A nd           | Website:  www.openfoam.com                      |
|    \\/     M anipulation  |                                                 |
\*---------------------------------------------------------------------------*/
FoamFile
{
    version     2.0;
    format      ascii;
    class       volScalarField;
    location    "35";
    object      nut;
}
// * * * * * * * * * * * * * * * * * * * * * * * * * * * * * * * * * * * * * //

dimensions      [0 2 -1 0 0 0 0];


internalField   nonuniform List<scalar> 
209825
(
1.23935e-07
1.22951e-07
1.22292e-07
1.21956e-07
1.21863e-07
1.21898e-07
1.22014e-07
1.22154e-07
1.22319e-07
1.22475e-07
1.2264e-07
1.22787e-07
1.22938e-07
1.23069e-07
1.23204e-07
1.23318e-07
1.23437e-07
1.23537e-07
1.2364e-07
1.23727e-07
1.23818e-07
1.23893e-07
1.23973e-07
1.24039e-07
1.2411e-07
1.24167e-07
1.2423e-07
1.2428e-07
1.24336e-07
1.2438e-07
1.24431e-07
1.24469e-07
1.24514e-07
1.2455e-07
1.24591e-07
1.24621e-07
1.24657e-07
1.24685e-07
1.24719e-07
1.24744e-07
1.24773e-07
1.24799e-07
1.24826e-07
1.24845e-07
1.24872e-07
1.24892e-07
1.24915e-07
1.24932e-07
1.24952e-07
1.24968e-07
1.24988e-07
1.25003e-07
1.25019e-07
1.25035e-07
1.25052e-07
1.25065e-07
1.25078e-07
1.25094e-07
1.25102e-07
1.25114e-07
1.25119e-07
1.25133e-07
1.25136e-07
1.25141e-07
1.25138e-07
1.25148e-07
1.25169e-07
1.25179e-07
1.25191e-07
1.25204e-07
1.25218e-07
1.25239e-07
1.25253e-07
1.25277e-07
1.25297e-07
1.25324e-07
1.25341e-07
1.25366e-07
1.25382e-07
1.25405e-07
1.25418e-07
1.25439e-07
1.25453e-07
1.25472e-07
1.25488e-07
1.25506e-07
1.25524e-07
1.25542e-07
1.2556e-07
1.25582e-07
1.25601e-07
1.25622e-07
1.25658e-07
1.26854e-07
1.30409e-07
1.34409e-08
1.23935e-07
1.22951e-07
1.22292e-07
1.21956e-07
1.21863e-07
1.21898e-07
1.22014e-07
1.22154e-07
1.22319e-07
1.22475e-07
1.2264e-07
1.22787e-07
1.22938e-07
1.23069e-07
1.23204e-07
1.23318e-07
1.23437e-07
1.23536e-07
1.2364e-07
1.23727e-07
1.23818e-07
1.23893e-07
1.23973e-07
1.24039e-07
1.2411e-07
1.24167e-07
1.2423e-07
1.2428e-07
1.24336e-07
1.24381e-07
1.24431e-07
1.24469e-07
1.24514e-07
1.2455e-07
1.24591e-07
1.24621e-07
1.24657e-07
1.24685e-07
1.24719e-07
1.24744e-07
1.24773e-07
1.24799e-07
1.24826e-07
1.24846e-07
1.24873e-07
1.24892e-07
1.24915e-07
1.24933e-07
1.24952e-07
1.24968e-07
1.24988e-07
1.25003e-07
1.2502e-07
1.25035e-07
1.25052e-07
1.25065e-07
1.25078e-07
1.25094e-07
1.25102e-07
1.25114e-07
1.2512e-07
1.25133e-07
1.25136e-07
1.25142e-07
1.25138e-07
1.25148e-07
1.25169e-07
1.25179e-07
1.25191e-07
1.25204e-07
1.25218e-07
1.2524e-07
1.25253e-07
1.25277e-07
1.25297e-07
1.25325e-07
1.25342e-07
1.25366e-07
1.25382e-07
1.25405e-07
1.25418e-07
1.2544e-07
1.25453e-07
1.25472e-07
1.25488e-07
1.25506e-07
1.25524e-07
1.25542e-07
1.2556e-07
1.25582e-07
1.25601e-07
1.25622e-07
1.25658e-07
1.26856e-07
1.3041e-07
1.38515e-08
1.23935e-07
1.22951e-07
1.22292e-07
1.21956e-07
1.21862e-07
1.21896e-07
1.22012e-07
1.22153e-07
1.22317e-07
1.22473e-07
1.22638e-07
1.22785e-07
1.22936e-07
1.23067e-07
1.23201e-07
1.23316e-07
1.23435e-07
1.23534e-07
1.23638e-07
1.23724e-07
1.23816e-07
1.23891e-07
1.23971e-07
1.24037e-07
1.24108e-07
1.24165e-07
1.24228e-07
1.24278e-07
1.24334e-07
1.24378e-07
1.24428e-07
1.24467e-07
1.24512e-07
1.24548e-07
1.24589e-07
1.24619e-07
1.24655e-07
1.24683e-07
1.24717e-07
1.24742e-07
1.24771e-07
1.24797e-07
1.24824e-07
1.24843e-07
1.2487e-07
1.2489e-07
1.24913e-07
1.2493e-07
1.2495e-07
1.24966e-07
1.24986e-07
1.25001e-07
1.25017e-07
1.25033e-07
1.2505e-07
1.25063e-07
1.25076e-07
1.25092e-07
1.251e-07
1.25112e-07
1.25117e-07
1.25131e-07
1.25134e-07
1.25139e-07
1.25136e-07
1.25146e-07
1.25167e-07
1.25177e-07
1.25189e-07
1.25202e-07
1.25216e-07
1.25237e-07
1.25251e-07
1.25275e-07
1.25295e-07
1.25322e-07
1.25339e-07
1.25364e-07
1.2538e-07
1.25403e-07
1.25416e-07
1.25437e-07
1.25451e-07
1.2547e-07
1.25486e-07
1.25504e-07
1.25522e-07
1.2554e-07
1.25558e-07
1.2558e-07
1.25599e-07
1.2562e-07
1.25656e-07
1.26859e-07
1.3041e-07
1.43613e-08
1.23935e-07
1.22951e-07
1.22291e-07
1.21955e-07
1.2186e-07
1.21895e-07
1.2201e-07
1.2215e-07
1.22314e-07
1.2247e-07
1.22635e-07
1.22782e-07
1.22933e-07
1.23064e-07
1.23198e-07
1.23313e-07
1.23431e-07
1.23531e-07
1.23635e-07
1.23721e-07
1.23812e-07
1.23887e-07
1.23968e-07
1.24033e-07
1.24104e-07
1.24162e-07
1.24224e-07
1.24275e-07
1.2433e-07
1.24375e-07
1.24425e-07
1.24464e-07
1.24509e-07
1.24545e-07
1.24585e-07
1.24616e-07
1.24652e-07
1.2468e-07
1.24714e-07
1.24739e-07
1.24768e-07
1.24793e-07
1.24821e-07
1.2484e-07
1.24867e-07
1.24887e-07
1.2491e-07
1.24927e-07
1.24947e-07
1.24963e-07
1.24982e-07
1.24997e-07
1.25014e-07
1.2503e-07
1.25047e-07
1.25059e-07
1.25073e-07
1.25089e-07
1.25097e-07
1.25109e-07
1.25114e-07
1.25128e-07
1.25131e-07
1.25136e-07
1.25133e-07
1.25143e-07
1.25164e-07
1.25174e-07
1.25186e-07
1.25199e-07
1.25213e-07
1.25234e-07
1.25247e-07
1.25272e-07
1.25292e-07
1.25319e-07
1.25336e-07
1.25361e-07
1.25377e-07
1.254e-07
1.25413e-07
1.25434e-07
1.25448e-07
1.25467e-07
1.25483e-07
1.255e-07
1.25519e-07
1.25537e-07
1.25555e-07
1.25577e-07
1.25596e-07
1.25617e-07
1.25653e-07
1.26863e-07
1.3041e-07
1.4927e-08
1.23935e-07
1.22951e-07
1.22291e-07
1.21954e-07
1.21858e-07
1.21892e-07
1.22007e-07
1.22147e-07
1.2231e-07
1.22467e-07
1.22631e-07
1.22778e-07
1.22928e-07
1.23059e-07
1.23194e-07
1.23308e-07
1.23427e-07
1.23527e-07
1.2363e-07
1.23717e-07
1.23808e-07
1.23883e-07
1.23963e-07
1.24029e-07
1.241e-07
1.24157e-07
1.2422e-07
1.24271e-07
1.24326e-07
1.24371e-07
1.24421e-07
1.24459e-07
1.24505e-07
1.2454e-07
1.24581e-07
1.24611e-07
1.24647e-07
1.24676e-07
1.24709e-07
1.24735e-07
1.24764e-07
1.24789e-07
1.24817e-07
1.24836e-07
1.24863e-07
1.24883e-07
1.24906e-07
1.24923e-07
1.24943e-07
1.24959e-07
1.24978e-07
1.24993e-07
1.2501e-07
1.25026e-07
1.25042e-07
1.25055e-07
1.25069e-07
1.25085e-07
1.25093e-07
1.25105e-07
1.2511e-07
1.25124e-07
1.25127e-07
1.25133e-07
1.25129e-07
1.25139e-07
1.2516e-07
1.2517e-07
1.25182e-07
1.25195e-07
1.25209e-07
1.2523e-07
1.25243e-07
1.25268e-07
1.25288e-07
1.25315e-07
1.25332e-07
1.25357e-07
1.25373e-07
1.25396e-07
1.25409e-07
1.2543e-07
1.25444e-07
1.25463e-07
1.25479e-07
1.25496e-07
1.25515e-07
1.25532e-07
1.25551e-07
1.25573e-07
1.25592e-07
1.25613e-07
1.25649e-07
1.26869e-07
1.30411e-07
1.55406e-08
1.23935e-07
1.22951e-07
1.2229e-07
1.21952e-07
1.21856e-07
1.21889e-07
1.22003e-07
1.22142e-07
1.22306e-07
1.22462e-07
1.22626e-07
1.22772e-07
1.22923e-07
1.23054e-07
1.23188e-07
1.23303e-07
1.23421e-07
1.23521e-07
1.23625e-07
1.23711e-07
1.23802e-07
1.23877e-07
1.23958e-07
1.24023e-07
1.24094e-07
1.24152e-07
1.24214e-07
1.24265e-07
1.24321e-07
1.24365e-07
1.24415e-07
1.24454e-07
1.24499e-07
1.24535e-07
1.24576e-07
1.24606e-07
1.24642e-07
1.24671e-07
1.24704e-07
1.24729e-07
1.24759e-07
1.24784e-07
1.24812e-07
1.24831e-07
1.24858e-07
1.24878e-07
1.24901e-07
1.24918e-07
1.24938e-07
1.24954e-07
1.24973e-07
1.24988e-07
1.25005e-07
1.25021e-07
1.25037e-07
1.2505e-07
1.25064e-07
1.2508e-07
1.25088e-07
1.251e-07
1.25105e-07
1.25119e-07
1.25122e-07
1.25128e-07
1.25125e-07
1.25134e-07
1.25155e-07
1.25165e-07
1.25177e-07
1.2519e-07
1.25204e-07
1.25225e-07
1.25238e-07
1.25263e-07
1.25282e-07
1.2531e-07
1.25327e-07
1.25351e-07
1.25367e-07
1.2539e-07
1.25403e-07
1.25425e-07
1.25439e-07
1.25458e-07
1.25474e-07
1.25491e-07
1.2551e-07
1.25527e-07
1.25546e-07
1.25568e-07
1.25587e-07
1.25608e-07
1.25644e-07
1.26878e-07
1.30411e-07
1.62005e-08
1.23935e-07
1.22951e-07
1.2229e-07
1.2195e-07
1.21853e-07
1.21885e-07
1.21998e-07
1.22137e-07
1.223e-07
1.22456e-07
1.22619e-07
1.22766e-07
1.22917e-07
1.23047e-07
1.23182e-07
1.23296e-07
1.23415e-07
1.23514e-07
1.23618e-07
1.23704e-07
1.23796e-07
1.23871e-07
1.23951e-07
1.24017e-07
1.24088e-07
1.24145e-07
1.24208e-07
1.24259e-07
1.24314e-07
1.24359e-07
1.24409e-07
1.24448e-07
1.24493e-07
1.24529e-07
1.24569e-07
1.246e-07
1.24636e-07
1.24664e-07
1.24698e-07
1.24723e-07
1.24752e-07
1.24778e-07
1.24806e-07
1.24825e-07
1.24852e-07
1.24871e-07
1.24895e-07
1.24912e-07
1.24932e-07
1.24948e-07
1.24967e-07
1.24982e-07
1.24999e-07
1.25015e-07
1.25032e-07
1.25045e-07
1.25058e-07
1.25074e-07
1.25082e-07
1.25094e-07
1.251e-07
1.25113e-07
1.25116e-07
1.25122e-07
1.25119e-07
1.25128e-07
1.25149e-07
1.25159e-07
1.25171e-07
1.25184e-07
1.25198e-07
1.25219e-07
1.25232e-07
1.25257e-07
1.25276e-07
1.25304e-07
1.25321e-07
1.25345e-07
1.25361e-07
1.25384e-07
1.25397e-07
1.25419e-07
1.25433e-07
1.25452e-07
1.25468e-07
1.25486e-07
1.25504e-07
1.25522e-07
1.2554e-07
1.25562e-07
1.25581e-07
1.25602e-07
1.25638e-07
1.26888e-07
1.30412e-07
1.6907e-08
1.23935e-07
1.22951e-07
1.22289e-07
1.21948e-07
1.21849e-07
1.2188e-07
1.21993e-07
1.22131e-07
1.22293e-07
1.22449e-07
1.22612e-07
1.22758e-07
1.22909e-07
1.2304e-07
1.23174e-07
1.23288e-07
1.23407e-07
1.23506e-07
1.2361e-07
1.23696e-07
1.23788e-07
1.23863e-07
1.23943e-07
1.24009e-07
1.2408e-07
1.24138e-07
1.242e-07
1.24251e-07
1.24306e-07
1.24351e-07
1.24401e-07
1.2444e-07
1.24486e-07
1.24521e-07
1.24562e-07
1.24592e-07
1.24628e-07
1.24657e-07
1.24691e-07
1.24716e-07
1.24745e-07
1.24771e-07
1.24798e-07
1.24818e-07
1.24845e-07
1.24864e-07
1.24888e-07
1.24905e-07
1.24924e-07
1.24941e-07
1.2496e-07
1.24975e-07
1.24992e-07
1.25008e-07
1.25025e-07
1.25038e-07
1.25051e-07
1.25067e-07
1.25075e-07
1.25088e-07
1.25093e-07
1.25106e-07
1.25109e-07
1.25115e-07
1.25112e-07
1.25122e-07
1.25142e-07
1.25153e-07
1.25164e-07
1.25177e-07
1.25191e-07
1.25212e-07
1.25225e-07
1.2525e-07
1.25269e-07
1.25297e-07
1.25313e-07
1.25338e-07
1.25354e-07
1.25377e-07
1.2539e-07
1.25412e-07
1.25426e-07
1.25445e-07
1.25461e-07
1.25479e-07
1.25497e-07
1.25515e-07
1.25533e-07
1.25555e-07
1.25574e-07
1.25595e-07
1.25631e-07
1.26901e-07
1.30414e-07
1.76608e-08
1.23936e-07
1.22951e-07
1.22288e-07
1.21945e-07
1.21845e-07
1.21875e-07
1.21986e-07
1.22124e-07
1.22286e-07
1.2244e-07
1.22604e-07
1.2275e-07
1.229e-07
1.23031e-07
1.23165e-07
1.23279e-07
1.23398e-07
1.23497e-07
1.23601e-07
1.23687e-07
1.23779e-07
1.23854e-07
1.23935e-07
1.24e-07
1.24071e-07
1.24129e-07
1.24191e-07
1.24242e-07
1.24298e-07
1.24343e-07
1.24393e-07
1.24432e-07
1.24477e-07
1.24513e-07
1.24554e-07
1.24584e-07
1.2462e-07
1.24649e-07
1.24682e-07
1.24708e-07
1.24737e-07
1.24762e-07
1.2479e-07
1.24809e-07
1.24836e-07
1.24856e-07
1.2488e-07
1.24897e-07
1.24916e-07
1.24933e-07
1.24952e-07
1.24967e-07
1.24984e-07
1.25e-07
1.25017e-07
1.2503e-07
1.25043e-07
1.2506e-07
1.25067e-07
1.2508e-07
1.25085e-07
1.25098e-07
1.25102e-07
1.25108e-07
1.25105e-07
1.25114e-07
1.25134e-07
1.25145e-07
1.25156e-07
1.25169e-07
1.25183e-07
1.25204e-07
1.25217e-07
1.25242e-07
1.25261e-07
1.25288e-07
1.25305e-07
1.2533e-07
1.25346e-07
1.25369e-07
1.25382e-07
1.25404e-07
1.25418e-07
1.25437e-07
1.25453e-07
1.25471e-07
1.25489e-07
1.25507e-07
1.25525e-07
1.25547e-07
1.25566e-07
1.25587e-07
1.25624e-07
1.26917e-07
1.30416e-07
1.84627e-08
1.23936e-07
1.22951e-07
1.22287e-07
1.21943e-07
1.2184e-07
1.21868e-07
1.21979e-07
1.22115e-07
1.22277e-07
1.22431e-07
1.22594e-07
1.2274e-07
1.2289e-07
1.23021e-07
1.23155e-07
1.23269e-07
1.23387e-07
1.23487e-07
1.23591e-07
1.23677e-07
1.23769e-07
1.23844e-07
1.23924e-07
1.2399e-07
1.24061e-07
1.24119e-07
1.24182e-07
1.24232e-07
1.24288e-07
1.24333e-07
1.24383e-07
1.24422e-07
1.24467e-07
1.24503e-07
1.24544e-07
1.24575e-07
1.24611e-07
1.24639e-07
1.24673e-07
1.24698e-07
1.24728e-07
1.24753e-07
1.24781e-07
1.248e-07
1.24827e-07
1.24847e-07
1.2487e-07
1.24888e-07
1.24907e-07
1.24924e-07
1.24943e-07
1.24958e-07
1.24975e-07
1.24991e-07
1.25008e-07
1.25021e-07
1.25034e-07
1.25051e-07
1.25059e-07
1.25071e-07
1.25076e-07
1.2509e-07
1.25093e-07
1.25099e-07
1.25096e-07
1.25105e-07
1.25126e-07
1.25136e-07
1.25148e-07
1.2516e-07
1.25174e-07
1.25195e-07
1.25208e-07
1.25232e-07
1.25252e-07
1.25279e-07
1.25296e-07
1.25321e-07
1.25337e-07
1.2536e-07
1.25373e-07
1.25395e-07
1.25409e-07
1.25428e-07
1.25444e-07
1.25462e-07
1.2548e-07
1.25498e-07
1.25516e-07
1.25538e-07
1.25557e-07
1.25578e-07
1.25615e-07
1.26936e-07
1.30418e-07
1.93126e-08
1.23936e-07
1.22952e-07
1.22286e-07
1.21939e-07
1.21835e-07
1.21861e-07
1.21971e-07
1.22106e-07
1.22267e-07
1.22421e-07
1.22583e-07
1.22729e-07
1.22879e-07
1.23009e-07
1.23143e-07
1.23258e-07
1.23376e-07
1.23476e-07
1.23579e-07
1.23666e-07
1.23757e-07
1.23832e-07
1.23913e-07
1.23979e-07
1.2405e-07
1.24108e-07
1.2417e-07
1.24221e-07
1.24277e-07
1.24322e-07
1.24372e-07
1.24411e-07
1.24457e-07
1.24492e-07
1.24533e-07
1.24564e-07
1.246e-07
1.24629e-07
1.24662e-07
1.24688e-07
1.24717e-07
1.24743e-07
1.24771e-07
1.2479e-07
1.24817e-07
1.24837e-07
1.2486e-07
1.24878e-07
1.24897e-07
1.24914e-07
1.24933e-07
1.24948e-07
1.24965e-07
1.24981e-07
1.24998e-07
1.25011e-07
1.25025e-07
1.25041e-07
1.25049e-07
1.25061e-07
1.25067e-07
1.2508e-07
1.25083e-07
1.25089e-07
1.25087e-07
1.25096e-07
1.25116e-07
1.25126e-07
1.25138e-07
1.2515e-07
1.25164e-07
1.25185e-07
1.25198e-07
1.25222e-07
1.25242e-07
1.25269e-07
1.25286e-07
1.2531e-07
1.25327e-07
1.2535e-07
1.25363e-07
1.25385e-07
1.25399e-07
1.25418e-07
1.25434e-07
1.25452e-07
1.2547e-07
1.25488e-07
1.25506e-07
1.25528e-07
1.25547e-07
1.25568e-07
1.25605e-07
1.26958e-07
1.3042e-07
2.02093e-08
1.23936e-07
1.22952e-07
1.22284e-07
1.21936e-07
1.21829e-07
1.21854e-07
1.21962e-07
1.22096e-07
1.22256e-07
1.22409e-07
1.22572e-07
1.22717e-07
1.22867e-07
1.22997e-07
1.23131e-07
1.23245e-07
1.23363e-07
1.23463e-07
1.23567e-07
1.23653e-07
1.23745e-07
1.2382e-07
1.23901e-07
1.23966e-07
1.24038e-07
1.24095e-07
1.24158e-07
1.24209e-07
1.24265e-07
1.2431e-07
1.2436e-07
1.24399e-07
1.24445e-07
1.2448e-07
1.24521e-07
1.24552e-07
1.24588e-07
1.24617e-07
1.24651e-07
1.24676e-07
1.24706e-07
1.24731e-07
1.24759e-07
1.24778e-07
1.24806e-07
1.24825e-07
1.24849e-07
1.24866e-07
1.24886e-07
1.24902e-07
1.24922e-07
1.24937e-07
1.24954e-07
1.2497e-07
1.24987e-07
1.25e-07
1.25014e-07
1.2503e-07
1.25038e-07
1.2505e-07
1.25056e-07
1.25069e-07
1.25073e-07
1.25079e-07
1.25076e-07
1.25085e-07
1.25105e-07
1.25116e-07
1.25127e-07
1.25139e-07
1.25153e-07
1.25173e-07
1.25187e-07
1.25211e-07
1.2523e-07
1.25258e-07
1.25274e-07
1.25299e-07
1.25315e-07
1.25339e-07
1.25352e-07
1.25374e-07
1.25388e-07
1.25407e-07
1.25423e-07
1.25441e-07
1.25459e-07
1.25477e-07
1.25495e-07
1.25517e-07
1.25536e-07
1.25557e-07
1.25595e-07
1.26983e-07
1.30423e-07
2.1152e-08
1.23937e-07
1.22952e-07
1.22283e-07
1.21932e-07
1.21823e-07
1.21845e-07
1.21952e-07
1.22085e-07
1.22244e-07
1.22397e-07
1.22559e-07
1.22703e-07
1.22853e-07
1.22983e-07
1.23117e-07
1.23231e-07
1.23349e-07
1.23449e-07
1.23553e-07
1.23639e-07
1.23731e-07
1.23806e-07
1.23887e-07
1.23952e-07
1.24024e-07
1.24082e-07
1.24145e-07
1.24195e-07
1.24251e-07
1.24296e-07
1.24347e-07
1.24386e-07
1.24431e-07
1.24467e-07
1.24508e-07
1.24539e-07
1.24575e-07
1.24604e-07
1.24638e-07
1.24663e-07
1.24693e-07
1.24718e-07
1.24746e-07
1.24766e-07
1.24793e-07
1.24813e-07
1.24836e-07
1.24854e-07
1.24874e-07
1.2489e-07
1.2491e-07
1.24925e-07
1.24942e-07
1.24958e-07
1.24975e-07
1.24988e-07
1.25001e-07
1.25018e-07
1.25026e-07
1.25038e-07
1.25044e-07
1.25057e-07
1.25061e-07
1.25067e-07
1.25065e-07
1.25073e-07
1.25094e-07
1.25104e-07
1.25115e-07
1.25127e-07
1.25141e-07
1.25161e-07
1.25175e-07
1.25199e-07
1.25218e-07
1.25245e-07
1.25262e-07
1.25287e-07
1.25303e-07
1.25326e-07
1.2534e-07
1.25362e-07
1.25375e-07
1.25395e-07
1.25411e-07
1.25429e-07
1.25447e-07
1.25465e-07
1.25483e-07
1.25505e-07
1.25524e-07
1.25545e-07
1.25583e-07
1.27011e-07
1.30425e-07
2.21432e-08
1.23937e-07
1.22952e-07
1.22281e-07
1.21927e-07
1.21816e-07
1.21836e-07
1.21941e-07
1.22073e-07
1.22231e-07
1.22383e-07
1.22544e-07
1.22689e-07
1.22838e-07
1.22968e-07
1.23102e-07
1.23216e-07
1.23334e-07
1.23433e-07
1.23537e-07
1.23624e-07
1.23715e-07
1.23791e-07
1.23872e-07
1.23937e-07
1.24009e-07
1.24067e-07
1.2413e-07
1.24181e-07
1.24237e-07
1.24282e-07
1.24332e-07
1.24371e-07
1.24417e-07
1.24453e-07
1.24494e-07
1.24525e-07
1.24561e-07
1.2459e-07
1.24624e-07
1.24649e-07
1.24679e-07
1.24705e-07
1.24733e-07
1.24752e-07
1.24779e-07
1.24799e-07
1.24823e-07
1.2484e-07
1.2486e-07
1.24877e-07
1.24896e-07
1.24912e-07
1.24929e-07
1.24945e-07
1.24961e-07
1.24975e-07
1.24988e-07
1.25005e-07
1.25013e-07
1.25025e-07
1.25031e-07
1.25044e-07
1.25048e-07
1.25054e-07
1.25052e-07
1.25061e-07
1.25081e-07
1.25091e-07
1.25102e-07
1.25114e-07
1.25128e-07
1.25148e-07
1.25161e-07
1.25185e-07
1.25204e-07
1.25232e-07
1.25248e-07
1.25273e-07
1.25289e-07
1.25313e-07
1.25326e-07
1.25349e-07
1.25362e-07
1.25382e-07
1.25397e-07
1.25416e-07
1.25434e-07
1.25452e-07
1.2547e-07
1.25492e-07
1.2551e-07
1.25531e-07
1.25571e-07
1.27043e-07
1.30427e-07
2.31861e-08
1.23937e-07
1.22952e-07
1.22279e-07
1.21923e-07
1.21808e-07
1.21826e-07
1.21929e-07
1.2206e-07
1.22217e-07
1.22368e-07
1.22529e-07
1.22673e-07
1.22822e-07
1.22951e-07
1.23085e-07
1.23199e-07
1.23317e-07
1.23417e-07
1.23521e-07
1.23607e-07
1.23699e-07
1.23774e-07
1.23855e-07
1.23921e-07
1.23993e-07
1.24051e-07
1.24114e-07
1.24165e-07
1.24221e-07
1.24266e-07
1.24316e-07
1.24356e-07
1.24401e-07
1.24437e-07
1.24479e-07
1.24509e-07
1.24546e-07
1.24575e-07
1.24609e-07
1.24634e-07
1.24664e-07
1.2469e-07
1.24718e-07
1.24737e-07
1.24764e-07
1.24784e-07
1.24808e-07
1.24826e-07
1.24846e-07
1.24862e-07
1.24882e-07
1.24897e-07
1.24914e-07
1.2493e-07
1.24947e-07
1.2496e-07
1.24974e-07
1.2499e-07
1.24999e-07
1.25011e-07
1.25017e-07
1.2503e-07
1.25034e-07
1.25041e-07
1.25039e-07
1.25047e-07
1.25067e-07
1.25077e-07
1.25088e-07
1.251e-07
1.25114e-07
1.25133e-07
1.25147e-07
1.25171e-07
1.2519e-07
1.25217e-07
1.25233e-07
1.25258e-07
1.25274e-07
1.25298e-07
1.25312e-07
1.25334e-07
1.25348e-07
1.25368e-07
1.25383e-07
1.25402e-07
1.25419e-07
1.25437e-07
1.25455e-07
1.25478e-07
1.25496e-07
1.25517e-07
1.25557e-07
1.27079e-07
1.30429e-07
2.42838e-08
1.23938e-07
1.22953e-07
1.22277e-07
1.21918e-07
1.218e-07
1.21816e-07
1.21917e-07
1.22045e-07
1.22202e-07
1.22352e-07
1.22512e-07
1.22655e-07
1.22804e-07
1.22934e-07
1.23067e-07
1.23181e-07
1.23299e-07
1.23399e-07
1.23503e-07
1.23589e-07
1.23681e-07
1.23756e-07
1.23837e-07
1.23903e-07
1.23975e-07
1.24033e-07
1.24096e-07
1.24147e-07
1.24203e-07
1.24249e-07
1.24299e-07
1.24338e-07
1.24384e-07
1.24421e-07
1.24462e-07
1.24493e-07
1.24529e-07
1.24558e-07
1.24592e-07
1.24618e-07
1.24648e-07
1.24673e-07
1.24702e-07
1.24721e-07
1.24748e-07
1.24768e-07
1.24792e-07
1.2481e-07
1.2483e-07
1.24846e-07
1.24866e-07
1.24881e-07
1.24899e-07
1.24914e-07
1.24931e-07
1.24945e-07
1.24958e-07
1.24975e-07
1.24983e-07
1.24996e-07
1.25002e-07
1.25015e-07
1.25019e-07
1.25026e-07
1.25024e-07
1.25032e-07
1.25052e-07
1.25062e-07
1.25073e-07
1.25085e-07
1.25099e-07
1.25117e-07
1.25131e-07
1.25155e-07
1.25174e-07
1.25201e-07
1.25217e-07
1.25242e-07
1.25258e-07
1.25282e-07
1.25296e-07
1.25319e-07
1.25332e-07
1.25352e-07
1.25367e-07
1.25386e-07
1.25404e-07
1.25422e-07
1.2544e-07
1.25462e-07
1.2548e-07
1.25501e-07
1.25542e-07
1.27119e-07
1.3043e-07
2.54397e-08
1.23938e-07
1.22953e-07
1.22276e-07
1.21912e-07
1.21792e-07
1.21804e-07
1.21903e-07
1.2203e-07
1.22185e-07
1.22334e-07
1.22494e-07
1.22637e-07
1.22785e-07
1.22914e-07
1.23048e-07
1.23161e-07
1.2328e-07
1.23379e-07
1.23483e-07
1.2357e-07
1.23662e-07
1.23737e-07
1.23818e-07
1.23884e-07
1.23956e-07
1.24014e-07
1.24077e-07
1.24129e-07
1.24185e-07
1.2423e-07
1.24281e-07
1.2432e-07
1.24366e-07
1.24402e-07
1.24444e-07
1.24475e-07
1.24511e-07
1.2454e-07
1.24575e-07
1.246e-07
1.2463e-07
1.24656e-07
1.24684e-07
1.24704e-07
1.24731e-07
1.24751e-07
1.24775e-07
1.24793e-07
1.24813e-07
1.24829e-07
1.24849e-07
1.24865e-07
1.24882e-07
1.24898e-07
1.24915e-07
1.24928e-07
1.24942e-07
1.24958e-07
1.24967e-07
1.2498e-07
1.24985e-07
1.24999e-07
1.25003e-07
1.2501e-07
1.25008e-07
1.25016e-07
1.25036e-07
1.25046e-07
1.25057e-07
1.25068e-07
1.25082e-07
1.25101e-07
1.25115e-07
1.25138e-07
1.25157e-07
1.25184e-07
1.252e-07
1.25225e-07
1.25241e-07
1.25265e-07
1.25279e-07
1.25302e-07
1.25315e-07
1.25335e-07
1.25351e-07
1.2537e-07
1.25387e-07
1.25405e-07
1.25423e-07
1.25446e-07
1.25464e-07
1.25484e-07
1.25527e-07
1.27162e-07
1.3043e-07
2.66573e-08
1.23939e-07
1.22953e-07
1.22273e-07
1.21907e-07
1.21782e-07
1.21792e-07
1.21888e-07
1.22014e-07
1.22167e-07
1.22315e-07
1.22474e-07
1.22617e-07
1.22765e-07
1.22894e-07
1.23027e-07
1.23141e-07
1.23259e-07
1.23358e-07
1.23463e-07
1.23549e-07
1.23641e-07
1.23716e-07
1.23798e-07
1.23864e-07
1.23936e-07
1.23994e-07
1.24057e-07
1.24108e-07
1.24165e-07
1.2421e-07
1.24261e-07
1.243e-07
1.24347e-07
1.24383e-07
1.24424e-07
1.24456e-07
1.24492e-07
1.24521e-07
1.24556e-07
1.24581e-07
1.24611e-07
1.24637e-07
1.24665e-07
1.24685e-07
1.24712e-07
1.24733e-07
1.24756e-07
1.24774e-07
1.24794e-07
1.24811e-07
1.24831e-07
1.24846e-07
1.24864e-07
1.2488e-07
1.24897e-07
1.2491e-07
1.24924e-07
1.24941e-07
1.24949e-07
1.24962e-07
1.24968e-07
1.24981e-07
1.24986e-07
1.24992e-07
1.24991e-07
1.24999e-07
1.25018e-07
1.25029e-07
1.2504e-07
1.25051e-07
1.25064e-07
1.25082e-07
1.25097e-07
1.2512e-07
1.25138e-07
1.25165e-07
1.25182e-07
1.25206e-07
1.25222e-07
1.25246e-07
1.25261e-07
1.25284e-07
1.25297e-07
1.25318e-07
1.25333e-07
1.25352e-07
1.25369e-07
1.25387e-07
1.25405e-07
1.25428e-07
1.25446e-07
1.25466e-07
1.2551e-07
1.27209e-07
1.30427e-07
2.79405e-08
1.23939e-07
1.22954e-07
1.22271e-07
1.21901e-07
1.21773e-07
1.21779e-07
1.21873e-07
1.21996e-07
1.22148e-07
1.22295e-07
1.22454e-07
1.22595e-07
1.22743e-07
1.22872e-07
1.23005e-07
1.23118e-07
1.23237e-07
1.23336e-07
1.2344e-07
1.23527e-07
1.23619e-07
1.23694e-07
1.23776e-07
1.23842e-07
1.23914e-07
1.23972e-07
1.24036e-07
1.24087e-07
1.24144e-07
1.24189e-07
1.2424e-07
1.24279e-07
1.24326e-07
1.24362e-07
1.24404e-07
1.24435e-07
1.24472e-07
1.24501e-07
1.24535e-07
1.24561e-07
1.24591e-07
1.24617e-07
1.24645e-07
1.24665e-07
1.24693e-07
1.24713e-07
1.24737e-07
1.24755e-07
1.24775e-07
1.24792e-07
1.24811e-07
1.24827e-07
1.24844e-07
1.2486e-07
1.24877e-07
1.24891e-07
1.24905e-07
1.24922e-07
1.2493e-07
1.24943e-07
1.24949e-07
1.24963e-07
1.24967e-07
1.24974e-07
1.24973e-07
1.2498e-07
1.25e-07
1.2501e-07
1.25021e-07
1.25032e-07
1.25046e-07
1.25063e-07
1.25077e-07
1.25101e-07
1.25119e-07
1.25146e-07
1.25162e-07
1.25187e-07
1.25202e-07
1.25227e-07
1.25241e-07
1.25264e-07
1.25278e-07
1.25298e-07
1.25313e-07
1.25333e-07
1.2535e-07
1.25368e-07
1.25386e-07
1.25409e-07
1.25427e-07
1.25447e-07
1.25492e-07
1.27261e-07
1.30423e-07
2.92929e-08
1.2394e-07
1.22954e-07
1.22269e-07
1.21894e-07
1.21762e-07
1.21765e-07
1.21856e-07
1.21977e-07
1.22128e-07
1.22274e-07
1.22431e-07
1.22573e-07
1.2272e-07
1.22848e-07
1.22981e-07
1.23094e-07
1.23213e-07
1.23312e-07
1.23416e-07
1.23503e-07
1.23595e-07
1.23671e-07
1.23752e-07
1.23818e-07
1.23891e-07
1.23949e-07
1.24013e-07
1.24064e-07
1.24121e-07
1.24166e-07
1.24218e-07
1.24257e-07
1.24303e-07
1.2434e-07
1.24382e-07
1.24413e-07
1.2445e-07
1.24479e-07
1.24513e-07
1.24539e-07
1.2457e-07
1.24595e-07
1.24624e-07
1.24644e-07
1.24671e-07
1.24692e-07
1.24716e-07
1.24734e-07
1.24754e-07
1.24771e-07
1.24791e-07
1.24806e-07
1.24824e-07
1.2484e-07
1.24857e-07
1.24871e-07
1.24884e-07
1.24901e-07
1.2491e-07
1.24923e-07
1.24929e-07
1.24943e-07
1.24947e-07
1.24954e-07
1.24953e-07
1.24961e-07
1.2498e-07
1.2499e-07
1.25001e-07
1.25012e-07
1.25025e-07
1.25043e-07
1.25057e-07
1.2508e-07
1.25098e-07
1.25125e-07
1.25141e-07
1.25166e-07
1.25181e-07
1.25206e-07
1.25221e-07
1.25244e-07
1.25257e-07
1.25278e-07
1.25293e-07
1.25313e-07
1.25329e-07
1.25348e-07
1.25366e-07
1.25389e-07
1.25406e-07
1.25426e-07
1.25472e-07
1.27316e-07
1.26955e-07
3.07184e-08
1.2394e-07
1.22954e-07
1.22267e-07
1.21888e-07
1.21751e-07
1.2175e-07
1.21839e-07
1.21958e-07
1.22107e-07
1.22252e-07
1.22408e-07
1.22549e-07
1.22696e-07
1.22823e-07
1.22956e-07
1.23069e-07
1.23187e-07
1.23287e-07
1.23391e-07
1.23477e-07
1.2357e-07
1.23645e-07
1.23727e-07
1.23793e-07
1.23866e-07
1.23924e-07
1.23988e-07
1.24039e-07
1.24096e-07
1.24142e-07
1.24193e-07
1.24233e-07
1.2428e-07
1.24316e-07
1.24358e-07
1.24389e-07
1.24426e-07
1.24456e-07
1.2449e-07
1.24516e-07
1.24547e-07
1.24572e-07
1.24601e-07
1.24621e-07
1.24649e-07
1.24669e-07
1.24693e-07
1.24711e-07
1.24732e-07
1.24749e-07
1.24769e-07
1.24784e-07
1.24802e-07
1.24818e-07
1.24835e-07
1.24849e-07
1.24863e-07
1.24879e-07
1.24889e-07
1.24902e-07
1.24908e-07
1.24921e-07
1.24926e-07
1.24933e-07
1.24933e-07
1.2494e-07
1.24959e-07
1.24969e-07
1.2498e-07
1.24991e-07
1.25004e-07
1.25021e-07
1.25035e-07
1.25058e-07
1.25076e-07
1.25102e-07
1.25119e-07
1.25143e-07
1.25159e-07
1.25183e-07
1.25198e-07
1.25221e-07
1.25235e-07
1.25256e-07
1.25271e-07
1.25291e-07
1.25308e-07
1.25326e-07
1.25344e-07
1.25367e-07
1.25384e-07
1.25404e-07
1.25452e-07
1.27376e-07
1.20869e-07
3.2221e-08
1.23941e-07
1.22955e-07
1.22264e-07
1.21881e-07
1.2174e-07
1.21735e-07
1.2182e-07
1.21937e-07
1.22084e-07
1.22228e-07
1.22383e-07
1.22523e-07
1.22669e-07
1.22797e-07
1.2293e-07
1.23042e-07
1.23161e-07
1.2326e-07
1.23364e-07
1.23451e-07
1.23543e-07
1.23619e-07
1.23701e-07
1.23767e-07
1.23839e-07
1.23898e-07
1.23962e-07
1.24014e-07
1.24071e-07
1.24116e-07
1.24168e-07
1.24208e-07
1.24254e-07
1.24291e-07
1.24333e-07
1.24364e-07
1.24402e-07
1.24431e-07
1.24466e-07
1.24492e-07
1.24522e-07
1.24548e-07
1.24577e-07
1.24597e-07
1.24625e-07
1.24645e-07
1.24669e-07
1.24688e-07
1.24708e-07
1.24725e-07
1.24745e-07
1.24761e-07
1.24778e-07
1.24795e-07
1.24812e-07
1.24826e-07
1.2484e-07
1.24856e-07
1.24866e-07
1.24879e-07
1.24885e-07
1.24899e-07
1.24904e-07
1.24911e-07
1.24911e-07
1.24917e-07
1.24937e-07
1.24947e-07
1.24958e-07
1.24968e-07
1.24981e-07
1.24998e-07
1.25012e-07
1.25035e-07
1.25052e-07
1.25079e-07
1.25095e-07
1.25119e-07
1.25135e-07
1.25159e-07
1.25175e-07
1.25198e-07
1.25211e-07
1.25233e-07
1.25248e-07
1.25268e-07
1.25284e-07
1.25304e-07
1.25321e-07
1.25345e-07
1.25361e-07
1.25381e-07
1.2543e-07
1.27438e-07
1.15419e-07
3.38043e-08
1.23941e-07
1.22955e-07
1.22262e-07
1.21873e-07
1.21728e-07
1.21718e-07
1.21801e-07
1.21915e-07
1.2206e-07
1.22202e-07
1.22357e-07
1.22496e-07
1.22642e-07
1.22769e-07
1.22901e-07
1.23014e-07
1.23132e-07
1.23231e-07
1.23336e-07
1.23422e-07
1.23515e-07
1.2359e-07
1.23672e-07
1.23739e-07
1.23812e-07
1.2387e-07
1.23934e-07
1.23986e-07
1.24043e-07
1.24089e-07
1.24141e-07
1.24181e-07
1.24228e-07
1.24264e-07
1.24307e-07
1.24338e-07
1.24375e-07
1.24405e-07
1.2444e-07
1.24466e-07
1.24496e-07
1.24522e-07
1.24551e-07
1.24572e-07
1.24599e-07
1.2462e-07
1.24644e-07
1.24663e-07
1.24683e-07
1.247e-07
1.2472e-07
1.24736e-07
1.24754e-07
1.2477e-07
1.24787e-07
1.24801e-07
1.24815e-07
1.24832e-07
1.24841e-07
1.24855e-07
1.24861e-07
1.24875e-07
1.2488e-07
1.24887e-07
1.24887e-07
1.24894e-07
1.24913e-07
1.24923e-07
1.24934e-07
1.24944e-07
1.24957e-07
1.24973e-07
1.24988e-07
1.2501e-07
1.25027e-07
1.25054e-07
1.2507e-07
1.25094e-07
1.2511e-07
1.25134e-07
1.2515e-07
1.25173e-07
1.25187e-07
1.25208e-07
1.25223e-07
1.25244e-07
1.2526e-07
1.25279e-07
1.25297e-07
1.2532e-07
1.25337e-07
1.25356e-07
1.25407e-07
1.27504e-07
1.10541e-07
3.54717e-08
1.23942e-07
1.22956e-07
1.22259e-07
1.21866e-07
1.21715e-07
1.21701e-07
1.2178e-07
1.21892e-07
1.22035e-07
1.22176e-07
1.22329e-07
1.22467e-07
1.22613e-07
1.22739e-07
1.22872e-07
1.22984e-07
1.23102e-07
1.23201e-07
1.23306e-07
1.23392e-07
1.23485e-07
1.2356e-07
1.23643e-07
1.23709e-07
1.23782e-07
1.23841e-07
1.23905e-07
1.23957e-07
1.24014e-07
1.2406e-07
1.24112e-07
1.24152e-07
1.24199e-07
1.24236e-07
1.24278e-07
1.2431e-07
1.24348e-07
1.24377e-07
1.24412e-07
1.24439e-07
1.24469e-07
1.24495e-07
1.24524e-07
1.24545e-07
1.24572e-07
1.24593e-07
1.24617e-07
1.24636e-07
1.24657e-07
1.24674e-07
1.24694e-07
1.2471e-07
1.24728e-07
1.24744e-07
1.24761e-07
1.24775e-07
1.24789e-07
1.24806e-07
1.24816e-07
1.24829e-07
1.24836e-07
1.24849e-07
1.24855e-07
1.24862e-07
1.24862e-07
1.24869e-07
1.24888e-07
1.24898e-07
1.2491e-07
1.24919e-07
1.24932e-07
1.24947e-07
1.24962e-07
1.24984e-07
1.25001e-07
1.25027e-07
1.25043e-07
1.25068e-07
1.25083e-07
1.25108e-07
1.25123e-07
1.25147e-07
1.2516e-07
1.25182e-07
1.25197e-07
1.25218e-07
1.25234e-07
1.25254e-07
1.25271e-07
1.25295e-07
1.25311e-07
1.2533e-07
1.25383e-07
1.27572e-07
1.06177e-07
3.72262e-08
1.23943e-07
1.22956e-07
1.22256e-07
1.21858e-07
1.21702e-07
1.21684e-07
1.21759e-07
1.21867e-07
1.22009e-07
1.22148e-07
1.223e-07
1.22437e-07
1.22582e-07
1.22708e-07
1.2284e-07
1.22952e-07
1.2307e-07
1.23169e-07
1.23274e-07
1.2336e-07
1.23453e-07
1.23529e-07
1.23611e-07
1.23678e-07
1.23751e-07
1.2381e-07
1.23874e-07
1.23926e-07
1.23984e-07
1.2403e-07
1.24082e-07
1.24122e-07
1.24169e-07
1.24206e-07
1.24249e-07
1.24281e-07
1.24318e-07
1.24348e-07
1.24383e-07
1.2441e-07
1.2444e-07
1.24466e-07
1.24496e-07
1.24516e-07
1.24544e-07
1.24565e-07
1.24589e-07
1.24608e-07
1.24629e-07
1.24646e-07
1.24666e-07
1.24682e-07
1.247e-07
1.24716e-07
1.24734e-07
1.24748e-07
1.24762e-07
1.24779e-07
1.24789e-07
1.24802e-07
1.24809e-07
1.24822e-07
1.24828e-07
1.24836e-07
1.24836e-07
1.24843e-07
1.24861e-07
1.24872e-07
1.24883e-07
1.24893e-07
1.24905e-07
1.2492e-07
1.24935e-07
1.24956e-07
1.24973e-07
1.24999e-07
1.25015e-07
1.2504e-07
1.25055e-07
1.25079e-07
1.25095e-07
1.25119e-07
1.25133e-07
1.25155e-07
1.25169e-07
1.25191e-07
1.25206e-07
1.25226e-07
1.25243e-07
1.25268e-07
1.25283e-07
1.25303e-07
1.25357e-07
1.2764e-07
1.02277e-07
3.90696e-08
1.23943e-07
1.22957e-07
1.22254e-07
1.2185e-07
1.21688e-07
1.21665e-07
1.21736e-07
1.21842e-07
1.21981e-07
1.22118e-07
1.22269e-07
1.22406e-07
1.2255e-07
1.22675e-07
1.22807e-07
1.22919e-07
1.23037e-07
1.23136e-07
1.2324e-07
1.23327e-07
1.2342e-07
1.23496e-07
1.23578e-07
1.23645e-07
1.23718e-07
1.23777e-07
1.23842e-07
1.23894e-07
1.23952e-07
1.23998e-07
1.2405e-07
1.2409e-07
1.24138e-07
1.24175e-07
1.24218e-07
1.2425e-07
1.24287e-07
1.24317e-07
1.24352e-07
1.24379e-07
1.2441e-07
1.24436e-07
1.24466e-07
1.24486e-07
1.24514e-07
1.24535e-07
1.2456e-07
1.24578e-07
1.24599e-07
1.24616e-07