/*--------------------------------*- C++ -*----------------------------------*\
| =========                 |                                                 |
| \\      /  F ield         | OpenFOAM: The Open Source CFD Toolbox           |
|  \\    /   O peration     | Version:  v2012                                 |
|   \\  /    A nd           | Website:  www.openfoam.com                      |
|    \\/     M anipulation  |                                                 |
\*---------------------------------------------------------------------------*/
FoamFile
{
    version     2.0;
    format      ascii;
    class       volScalarField;
    location    "35";
    object      omega;
}
// * * * * * * * * * * * * * * * * * * * * * * * * * * * * * * * * * * * * * //

dimensions      [0 0 -1 0 0 0 0];


internalField   nonuniform List<scalar> 
209825
(
8260.91
7564.89
7001.05
6559.1
6217.32
5952.85
5745.27
5580.3
5446.58
5337.15
5245.85
5169.4
5104.09
5048.48
5000.04
4958.28
4921.29
4889.12
4860.2
4834.9
4811.83
4791.6
4772.9
4756.46
4741.08
4727.59
4714.8
4703.59
4692.83
4683.45
4674.32
4666.41
4658.59
4651.87
4645.14
4639.43
4633.61
4628.7
4623.63
4619.41
4615.03
4611.35
4607.49
4604.36
4600.97
4598.23
4595.23
4592.84
4590.27
4588.19
4585.98
4584.24
4582.28
4580.64
4579
4577.58
4576.12
4574.85
4573.6
4572.63
4571.63
4570.74
4569.86
4569.23
4568.4
4567.82
4567.12
4566.73
4566.19
4565.92
4565.41
4565.16
4564.68
4564.44
4563.98
4563.79
4563.45
4563.35
4563.13
4563.2
4563.18
4563.39
4563.39
4563.83
4563.83
4564.49
4564.48
4565.33
4565.38
4566.37
4566.41
4567.7
4568.32
4599.21
4715.25
113386
8260.91
7564.89
7001.05
6559.09
6217.3
5952.81
5745.22
5580.24
5446.51
5337.08
5245.77
5169.31
5104
5048.38
4999.93
4958.17
4921.17
4889
4860.08
4834.78
4811.71
4791.47
4772.77
4756.33
4740.95
4727.46
4714.67
4703.45
4692.69
4683.31
4674.18
4666.27
4658.45
4651.73
4645
4639.28
4633.47
4628.56
4623.49
4619.27
4614.88
4611.2
4607.35
4604.22
4600.82
4598.08
4595.09
4592.69
4590.12
4588.04
4585.83
4584.09
4582.13
4580.49
4578.85
4577.42
4575.97
4574.7
4573.45
4572.48
4571.47
4570.59
4569.7
4569.07
4568.25
4567.67
4566.96
4566.58
4566.04
4565.76
4565.25
4565
4564.52
4564.29
4563.82
4563.64
4563.29
4563.2
4562.98
4563.05
4563.02
4563.23
4563.23
4563.67
4563.67
4564.33
4564.33
4565.17
4565.22
4566.21
4566.26
4567.54
4568.16
4599.11
4715.13
110088
8260.92
7564.9
7001.04
6559.05
6217.22
5952.69
5745.06
5580.04
5446.28
5336.82
5245.48
5169.01
5103.68
5048.04
4999.58
4957.8
4920.8
4888.61
4859.68
4834.37
4811.3
4791.05
4772.35
4755.9
4740.52
4727.02
4714.23
4703.01
4692.24
4682.86
4673.72
4665.81
4657.99
4651.27
4644.53
4638.81
4633
4628.09
4623.01
4618.79
4614.4
4610.72
4606.87
4603.73
4600.34
4597.6
4594.6
4592.21
4589.63
4587.55
4585.34
4583.59
4581.64
4579.99
4578.35
4576.93
4575.47
4574.2
4572.95
4571.98
4570.97
4570.09
4569.2
4568.57
4567.75
4567.16
4566.46
4566.08
4565.53
4565.26
4564.75
4564.5
4564.02
4563.78
4563.32
4563.13
4562.78
4562.69
4562.47
4562.54
4562.51
4562.72
4562.72
4563.16
4563.16
4563.82
4563.82
4564.66
4564.71
4565.7
4565.74
4567.03
4567.65
4598.7
4714.68
106302
8260.92
7564.92
7001.04
6558.99
6217.08
5952.48
5744.78
5579.7
5445.88
5336.37
5244.99
5168.48
5103.12
5047.46
4998.97
4957.17
4920.15
4887.95
4859
4833.68
4810.59
4790.33
4771.62
4755.16
4739.77
4726.27
4713.47
4702.24
4691.47
4682.08
4672.94
4665.02
4657.2
4650.47
4643.73
4638.01
4632.19
4627.27
4622.2
4617.97
4613.58
4609.9
4606.04
4602.9
4599.51
4596.76
4593.76
4591.37
4588.79
4586.71
4584.5
4582.75
4580.8
4579.15
4577.51
4576.08
4574.62
4573.35
4572.1
4571.12
4570.12
4569.23
4568.35
4567.71
4566.89
4566.3
4565.6
4565.22
4564.67
4564.39
4563.89
4563.63
4563.15
4562.92
4562.45
4562.26
4561.92
4561.82
4561.6
4561.67
4561.64
4561.85
4561.85
4562.28
4562.28
4562.94
4562.94
4563.78
4563.83
4564.81
4564.86
4566.15
4566.77
4598
4713.9
102409
8260.92
7564.94
7001.02
6558.9
6216.89
5952.17
5744.37
5579.2
5445.31
5335.73
5244.29
5167.73
5102.32
5046.62
4998.1
4956.27
4919.22
4887
4858.03
4832.69
4809.58
4789.31
4770.58
4754.11
4738.71
4725.2
4712.38
4701.15
4690.37
4680.97
4671.82
4663.89
4656.07
4649.33
4642.59
4636.86
4631.04
4626.12
4621.04
4616.81
4612.41
4608.72
4604.86
4601.72
4598.33
4595.58
4592.58
4590.18
4587.6
4585.51
4583.3
4581.55
4579.59
4577.94
4576.3
4574.87
4573.41
4572.14
4570.89
4569.91
4568.9
4568.01
4567.13
4566.49
4565.67
4565.08
4564.37
4563.99
4563.44
4563.17
4562.65
4562.4
4561.92
4561.69
4561.22
4561.03
4560.68
4560.59
4560.36
4560.43
4560.4
4560.6
4560.61
4561.03
4561.03
4561.69
4561.69
4562.52
4562.57
4563.56
4563.6
4564.89
4565.51
4596.98
4712.78
98513.5
8260.93
7564.97
7001.01
6558.78
6216.63
5951.77
5743.84
5578.55
5444.56
5334.89
5243.38
5166.75
5101.29
5045.54
4996.97
4955.1
4918.02
4885.76
4856.77
4831.4
4808.27
4787.98
4769.23
4752.74
4737.33
4723.8
4710.97
4699.72
4688.93
4679.52
4670.36
4662.43
4654.59
4647.85
4641.1
4635.37
4629.53
4624.61
4619.52
4615.29
4610.89
4607.19
4603.33
4600.19
4596.78
4594.03
4591.02
4588.62
4586.04
4583.95
4581.73
4579.98
4578.02
4576.37
4574.72
4573.29
4571.83
4570.56
4569.3
4568.32
4567.31
4566.42
4565.53
4564.9
4564.07
4563.48
4562.78
4562.39
4561.84
4561.56
4561.05
4560.8
4560.31
4560.08
4559.61
4559.42
4559.07
4558.98
4558.75
4558.81
4558.78
4558.98
4558.98
4559.41
4559.41
4560.05
4560.05
4560.89
4560.94
4561.92
4561.96
4563.25
4563.87
4595.65
4711.33
94655.2
8260.94
7565
7001
6558.63
6216.31
5951.28
5743.19
5577.76
5443.63
5333.86
5242.25
5165.54
5100.01
5044.19
4995.57
4953.66
4916.52
4884.23
4855.2
4829.8
4806.64
4786.33
4767.55
4751.05
4735.61
4722.06
4709.22
4697.96
4687.15
4677.73
4668.56
4660.61
4652.77
4646.02
4639.26
4633.51
4627.67
4622.74
4617.65
4613.41
4609
4605.3
4601.43
4598.28
4594.87
4592.12
4589.11
4586.7
4584.11
4582.02
4579.8
4578.04
4576.08
4574.42
4572.77
4571.34
4569.88
4568.6
4567.34
4566.36
4565.35
4564.45
4563.56
4562.92
4562.1
4561.51
4560.8
4560.41
4559.85
4559.58
4559.06
4558.81
4558.33
4558.09
4557.62
4557.43
4557.08
4556.98
4556.75
4556.81
4556.77
4556.97
4556.97
4557.39
4557.39
4558.03
4558.03
4558.86
4558.91
4559.89
4559.93
4561.21
4561.85
4594.01
4709.53
90853
8260.95
7565.05
7000.98
6558.46
6215.93
5950.7
5742.41
5576.8
5442.53
5332.63
5240.9
5164.1
5098.47
5042.59
4993.9
4951.92
4914.74
4882.4
4853.33
4827.89
4804.7
4784.35
4765.55
4749.02
4733.56
4719.99
4707.13
4695.85
4685.02
4675.59
4666.4
4658.44
4650.58
4643.82
4637.05
4631.3
4625.45
4620.51
4615.4
4611.16
4606.74
4603.03
4599.16
4596
4592.59
4589.83
4586.81
4584.4
4581.81
4579.71
4577.48
4575.72
4573.76
4572.1
4570.44
4569.01
4567.54
4566.26
4565
4564.01
4562.99
4562.1
4561.2
4560.56
4559.73
4559.14
4558.43
4558.03
4557.48
4557.2
4556.69
4556.43
4555.95
4555.71
4555.24
4555.04
4554.69
4554.59
4554.36
4554.41
4554.37
4554.57
4554.57
4554.98
4554.98
4555.62
4555.62
4556.44
4556.49
4557.46
4557.5
4558.78
4559.42
4592.05
4707.39
87115.9
8260.96
7565.1
7000.95
6558.25
6215.49
5950.01
5741.5
5575.69
5441.24
5331.19
5239.33
5162.41
5096.69
5040.71
4991.95
4949.9
4912.66
4880.27
4851.14
4825.66
4802.43
4782.05
4763.21
4746.65
4731.17
4717.57
4704.69
4693.38
4682.54
4673.09
4663.88
4655.91
4648.04
4641.26
4634.47
4628.71
4622.85
4617.9
4612.78
4608.53
4604.1
4600.39
4596.5
4593.34
4589.92
4587.15
4584.13
4581.71
4579.11
4577.01
4574.78
4573.01
4571.04
4569.38
4567.72
4566.28
4564.81
4563.53
4562.26
4561.27
4560.25
4559.35
4558.45
4557.81
4556.97
4556.38
4555.66
4555.27
4554.71
4554.43
4553.91
4553.65
4553.17
4552.93
4552.46
4552.26
4551.91
4551.8
4551.56
4551.62
4551.57
4551.76
4551.76
4552.16
4552.16
4552.79
4552.79
4553.61
4553.66
4554.63
4554.67
4555.95
4556.59
4589.77
4704.91
83446.5
8260.97
7565.15
7000.93
6558.02
6214.99
5949.24
5740.46
5574.42
5439.77
5329.54
5237.54
5160.48
5094.64
5038.57
4989.71
4947.59
4910.28
4877.82
4848.64
4823.11
4799.84
4779.41
4760.54
4743.94
4728.42
4714.8
4701.89
4690.56
4679.7
4670.23
4661
4653.01
4645.12
4638.33
4631.52
4625.75
4619.87
4614.91
4609.78
4605.52
4601.08
4597.36
4593.46
4590.29
4586.86
4584.09
4581.06
4578.63
4576.03
4573.92
4571.68
4569.91
4567.93
4566.26
4564.6
4563.16
4561.68
4560.39
4559.12
4558.12
4557.1
4556.2
4555.29
4554.65
4553.81
4553.21
4552.49
4552.09
4551.53
4551.25
4550.73
4550.47
4549.98
4549.74
4549.27
4549.07
4548.71
4548.61
4548.36
4548.41
4548.36
4548.54
4548.54
4548.94
4548.94
4549.56
4549.56
4550.37
4550.41
4551.38
4551.41
4552.69
4553.34
4587.16
4702.08
79843
8260.98
7565.22
7000.9
6557.76
6214.43
5948.36
5739.29
5573
5438.12
5327.69
5235.51
5158.31
5092.34
5036.15
4987.19
4944.98
4907.59
4875.06
4845.82
4820.23
4796.9
4776.43
4757.52
4740.88
4725.33
4711.67
4698.73
4687.38
4676.48
4666.99
4657.74
4649.73
4641.82
4635.01
4628.19
4622.4
4616.51
4611.53
4606.39
4602.12
4597.67
4593.94
4590.03
4586.85
4583.41
4580.63
4577.59
4575.16
4572.54
4570.43
4568.18
4566.4
4564.42
4562.74
4561.07
4559.63
4558.14
4556.85
4555.57
4554.57
4553.54
4552.64
4551.73
4551.08
4550.24
4549.64
4548.91
4548.51
4547.94
4547.66
4547.13
4546.87
4546.38
4546.14
4545.67
4545.47
4545.11
4545
4544.75
4544.79
4544.73
4544.91
4544.9
4545.29
4545.29
4545.9
4545.9
4546.71
4546.75
4547.71
4547.74
4549.02
4549.68
4584.22
4698.9
76299.7
8260.99
7565.29
7000.88
6557.48
6213.81
5947.39
5737.99
5571.41
5436.27
5325.62
5233.25
5155.88
5089.77
5033.45
4984.38
4942.07
4904.59
4871.98
4842.67
4817.02
4793.63
4773.11
4754.14
4737.47
4721.87
4708.18
4695.2
4683.82
4672.89
4663.38
4654.1
4646.07
4638.13
4631.31
4624.47
4618.66
4612.75
4607.76
4602.61
4598.32
4593.86
4590.11
4586.19
4583
4579.55
4576.76
4573.71
4571.27
4568.65
4566.52
4564.26
4562.48
4560.49
4558.81
4557.13
4555.68
4554.19
4552.9
4551.61
4550.6
4549.57
4548.66
4547.74
4547.09
4546.24
4545.64
4544.91
4544.51
4543.93
4543.64
4543.12
4542.86
4542.36
4542.12
4541.64
4541.44
4541.08
4540.96
4540.71
4540.74
4540.68
4540.85
4540.84
4541.22
4541.22
4541.82
4541.82
4542.62
4542.65
4543.61
4543.64
4544.91
4545.58
4580.94
4695.37
72812.3
8261.01
7565.37
7000.85
6557.17
6213.13
5946.32
5736.56
5569.65
5434.24
5323.34
5230.76
5153.21
5086.93
5030.47
4981.27
4938.85
4901.27
4868.58
4839.18
4813.46
4790.01
4769.43
4750.41
4733.69
4718.04
4704.31
4691.3
4679.88
4668.93
4659.38
4650.07
4642.02
4634.06
4627.21
4620.35
4614.52
4608.59
4603.59
4598.42
4594.11
4589.64
4585.88
4581.94
4578.74
4575.28
4572.48
4569.42
4566.97
4564.33
4562.2
4559.93
4558.14
4556.15
4554.46
4552.77
4551.31
4549.81
4548.52
4547.22
4546.21
4545.17
4544.26
4543.33
4542.68
4541.82
4541.22
4540.48
4540.07
4539.5
4539.2
4538.67
4538.41
4537.91
4537.67
4537.19
4536.98
4536.61
4536.5
4536.24
4536.27
4536.19
4536.35
4536.34
4536.71
4536.71
4537.3
4537.3
4538.09
4538.12
4539.06
4539.09
4540.37
4541.05
4577.32
4691.49
69387.4
8261.02
7565.45
7000.81
6556.83
6212.38
5945.15
5735
5567.74
5432.01
5320.85
5228.03
5150.27
5083.81
5027.2
4977.87
4935.32
4897.63
4864.84
4835.36
4809.56
4786.04
4765.39
4746.31
4729.54
4713.85
4700.07
4687.01
4675.56
4664.57
4654.99
4645.65
4637.57
4629.58
4622.71
4615.83
4609.98
4604.03
4599.01
4593.82
4589.49
4585
4581.23
4577.28
4574.07
4570.59
4567.78
4564.71
4562.25
4559.6
4557.46
4555.18
4553.38
4551.38
4549.68
4547.98
4546.52
4545.01
4543.71
4542.41
4541.39
4540.34
4539.42
4538.49
4537.83
4536.97
4536.36
4535.62
4535.2
4534.62
4534.32
4533.79
4533.52
4533.02
4532.78
4532.29
4532.08
4531.71
4531.59
4531.33
4531.35
4531.26
4531.42
4531.4
4531.76
4531.76
4532.33
4532.33
4533.12
4533.14
4534.08
4534.1
4535.38
4536.07
4573.35
4687.26
66031.1
8261.04
7565.55
7000.78
6556.46
6211.58
5943.89
5733.3
5565.65
5429.59
5318.13
5225.06
5147.08
5080.42
5023.64
4974.16
4931.48
4893.67
4860.77
4831.19
4805.31
4781.71
4760.99
4741.85
4725.02
4709.27
4695.45
4682.34
4670.85
4659.82
4650.2
4640.83
4632.72
4624.7
4617.81
4610.9
4605.02
4599.05
4594.01
4588.8
4584.46
4579.95
4576.16
4572.19
4568.97
4565.48
4562.65
4559.57
4557.09
4554.44
4552.29
4549.99
4548.18
4546.17
4544.47
4542.76
4541.29
4539.77
4538.47
4537.15
4536.13
4535.07
4534.15
4533.21
4532.54
4531.68
4531.06
4530.31
4529.89
4529.3
4529
4528.46
4528.19
4527.69
4527.44
4526.95
4526.74
4526.36
4526.24
4525.98
4525.98
4525.89
4526.03
4526.01
4526.36
4526.35
4526.92
4526.92
4527.69
4527.71
4528.64
4528.66
4529.93
4530.64
4569.03
4682.67
62748.9
8261.06
7565.65
7000.75
6556.07
6210.71
5942.53
5731.47
5563.41
5426.97
5315.2
5221.84
5143.62
5076.76
5019.79
4970.14
4927.32
4889.37
4856.37
4826.68
4800.7
4777.02
4756.23
4737.01
4720.12
4704.31
4690.43
4677.28
4665.74
4654.66
4645.01
4635.61
4627.46
4619.41
4612.48
4605.55
4599.65
4593.65
4588.59
4583.36
4579
4574.47
4570.66
4566.68
4563.43
4559.93
4557.09
4553.99
4551.51
4548.83
4546.67
4544.37
4542.55
4540.52
4538.81
4537.09
4535.61
4534.09
4532.77
4531.45
4530.42
4529.35
4528.42
4527.47
4526.8
4525.93
4525.31
4524.55
4524.13
4523.53
4523.23
4522.68
4522.41
4521.9
4521.65
4521.16
4520.94
4520.56
4520.44
4520.17
4520.16
4520.05
4520.19
4520.17
4520.49
4520.49
4521.04
4521.04
4521.8
4521.82
4522.73
4522.75
4524.02
4524.75
4564.34
4677.73
59546.2
8261.07
7565.75
7000.72
6555.65
6209.78
5941.07
5729.51
5560.99
5424.16
5312.04
5218.38
5139.9
5072.81
5015.63
4965.81
4922.83
4884.75
4851.61
4821.81
4795.74
4771.96
4751.08
4731.79
4714.83
4698.96
4685.03
4671.82
4660.23
4649.11
4639.41
4629.97
4621.78
4613.7
4606.74
4599.78
4593.85
4587.83
4582.74
4577.48
4573.1
4568.55
4564.73
4560.72
4557.46
4553.94
4551.09
4547.97
4545.47
4542.79
4540.61
4538.29
4536.46
4534.43
4532.71
4530.98
4529.49
4527.95
4526.63
4525.3
4524.25
4523.18
4522.25
4521.28
4520.6
4519.73
4519.1
4518.34
4517.91
4517.3
4516.99
4516.44
4516.16
4515.66
4515.4
4514.91
4514.68
4514.3
4514.17
4513.9
4513.88
4513.76
4513.88
4513.85
4514.17
4514.17
4514.7
4514.7
4515.45
4515.46
4516.36
4516.38
4517.64
4518.39
4559.27
4672.43
56427.6
8261.09
7565.87
7000.68
6555.21
6208.8
5939.51
5727.41
5558.41
5421.15
5308.66
5214.68
5135.91
5068.57
5011.18
4961.16
4918.02
4879.78
4846.51
4816.59
4790.4
4766.52
4745.56
4726.19
4709.15
4693.21
4679.22
4665.95
4654.31
4643.14
4633.4
4623.91
4615.68
4607.56
4600.58
4593.57
4587.62
4581.57
4576.45
4571.17
4566.77
4562.19
4558.35
4554.32
4551.05
4547.5
4544.63
4541.5
4538.99
4536.29
4534.1
4531.77
4529.92
4527.88
4526.14
4524.4
4522.9
4521.36
4520.03
4518.68
4517.63
4516.54
4515.6
4514.63
4513.95
4513.06
4512.43
4511.66
4511.22
4510.61
4510.29
4509.73
4509.45
4508.94
4508.68
4508.18
4507.95
4507.56
4507.43
4507.15
4507.12
4506.99
4507.1
4507.07
4507.36
4507.36
4507.88
4507.88
4508.61
4508.62
4509.51
4509.52
4510.78
4511.56
4553.82
4666.78
53397.8
8261.11
7565.99
7000.65
6554.75
6207.75
5937.86
5725.18
5555.66
5417.94
5305.05
5210.72
5131.66
5064.05
5006.43
4956.2
4912.87
4874.47
4841.06
4811.01
4784.7
4760.71
4739.66
4720.19
4703.08
4687.06
4673
4659.67
4647.97
4636.75
4626.96
4617.42
4609.16
4601
4593.97
4586.94
4580.95
4574.87
4569.72
4564.41
4559.98
4555.38
4551.52
4547.47
4544.18
4540.61
4537.73
4534.58
4532.05
4529.33
4527.13
4524.78
4522.92
4520.86
4519.12
4517.36
4515.86
4514.3
4512.96
4511.6
4510.54
4509.44
4508.49
4507.51
4506.81
4505.92
4505.29
4504.5
4504.06
4503.44
4503.11
4502.55
4502.27
4501.75
4501.49
4500.98
4500.75
4500.35
4500.21
4499.93
4499.89
4499.74
4499.84
4499.8
4500.08
4500.08
4500.57
4500.57
4501.29
4501.3
4502.17
4502.18
4503.44
4504.24
4547.97
4660.77
50460.9
8261.13
7566.12
7000.62
6554.26
6206.65
5936.11
5722.82
5552.74
5414.53
5301.22
5206.52
5127.13
5059.23
5001.36
4950.92
4907.39
4868.82
4835.25
4805.05
4778.63
4754.52
4733.36
4713.8
4696.6
4680.51
4666.37
4652.97
4641.22
4629.93
4620.09
4610.51
4602.2
4594
4586.93
4579.86
4573.84
4567.72
4562.55
4557.21
4552.75
4548.12
4544.24
4540.17
4536.85
4533.26
4530.36
4527.19
4524.64
4521.91
4519.69
4517.32
4515.45
4513.38
4511.62
4509.85
4508.33
4506.76
4505.41
4504.04
4502.97
4501.86
4500.9
4499.91
4499.21
4498.3
4497.66
4496.87
4496.41
4495.78
4495.45
4494.88
4494.59
4494.07
4493.81
4493.3
4493.06
4492.66
4492.51
4492.22
4492.17
4492.01
4492.1
4492.05
4492.31
4492.31
4492.78
4492.78
4493.48
4493.49
4494.34
4494.35
4495.61
4496.43
4541.71
4654.42
47620.6
8261.15
7566.26
7000.59
6553.75
6205.49
5934.26
5720.32
5549.65
5410.93
5297.16
5202.06
5122.33
5054.13
4995.99
4945.31
4901.58
4862.81
4829.08
4798.73
4772.17
4747.95
4726.68
4707.02
4689.72
4673.54
4659.33
4645.86
4634.04
4622.69
4612.8
4603.16
4594.8
4586.55
4579.44
4572.33
4566.27
4560.12
4554.91
4549.54
4545.06
4540.4
4536.49
4532.39
4529.05
4525.45
4522.52
4519.33
4516.77
4514.01
4511.78
4509.39
4507.5
4505.41
4503.64
4501.86
4500.33
4498.74
4497.39
4496
4494.92
4493.79
4492.83
4491.82
4491.11
4490.2
4489.55
4488.75
4488.28
4487.64
4487.31
4486.73
4486.43
4485.91
4485.64
4485.12
4484.88
4484.47
4484.31
4484.02
4483.96
4483.78
4483.86
4483.8
4484.04
4484.04
4484.49
4484.49
4485.18
4485.18
4486.01
4486.02
4487.27
4488.12
4535.01
4647.69
44880.4
8261.17
7566.41
7000.56
6553.22
6204.28
5932.32
5717.69
5546.4
5407.12
5292.87
5197.35
5117.25
5048.73
4990.31
4939.37
4895.42
4856.46
4822.55
4792.04
4765.34
4740.98
4719.59
4699.82
4682.43
4666.16
4651.87
4638.32
4626.43
4615.01
4605.06
4595.36
4586.96
4578.65
4571.51
4564.34
4558.25
4552.06
4546.82
4541.41
4536.9
4532.21
4528.28
4524.15
4520.78
4517.15
4514.21
4511
4508.41
4505.64
4503.38
4500.98
4499.07
4496.97
4495.19
4493.38
4491.84
4490.24
4488.87
4487.47
4486.38
4485.24
4484.27
4483.24
4482.52
4481.6
4480.95
4480.13
4479.66
4479.01
4478.66
4478.08
4477.78
4477.24
4476.97
4476.45
4476.2
4475.78
4475.62
4475.32
4475.25
4475.06
4475.12
4475.05
4475.27
4475.27
4475.69
4475.69
4476.36
4476.36
4477.18
4477.18
4478.43
4479.31
4527.86
4640.57
42243.3
8261.19
7566.56
7000.53
6552.67
6203.01
5930.29
5714.93
5542.98
5403.12
5288.36
5192.39
5111.9
5043.03
4984.32
4933.11
4888.92
4849.75
4815.65
4784.97
4758.11
4733.61
4712.1
4692.22
4674.72
4658.35
4643.98
4630.34
4618.38
4606.9
4596.88
4587.12
4578.66
4570.3
4563.11
4555.9
4549.76
4543.53
4538.26
4532.81
4528.27
4523.55
4519.59
4515.43
4512.04
4508.38
4505.41
4502.18
4499.57
4496.77
4494.5
4492.08
4490.15
4488.03
4486.23
4484.41
4482.86
4481.24
4479.87
4478.45
4477.34
4476.18
4475.21
4474.16
4473.44
4472.5
4471.84
4471.01
4470.53
4469.87
4469.52
4468.92
4468.61
4468.07
4467.8
4467.27
4467.01
4466.59
4466.42
4466.11
4466.03
4465.82
4465.87
4465.79
4465.99
4465.98
4466.39
4466.39
4467.03
4467.03
4467.82
4467.82
4469.07
4469.99
4520.25
4633.03
39712.1
8261.21
7566.72
7000.51
6552.1
6201.69
5928.17
5712.04
5539.39
5398.91
5283.61
5187.17
5106.27
5037.04
4978
4926.51
4882.08
4842.68
4808.38
4777.52
4750.5
4725.85
4704.21
4684.2
4666.6
4650.12
4635.65
4621.93
4609.89
4598.33
4588.25
4578.43
4569.91
4561.5
4554.25
4546.99
4540.81
4534.53
4529.22
4523.74
4519.16
4514.41
4510.41
4506.23
4502.81
4499.12
4496.13
4492.87
4490.24
4487.42
4485.13
4482.68
4480.74
4478.6
4476.79
4474.94
4473.38
4471.74
4470.35
4468.92
4467.8
4466.62
4465.64
4464.58
4463.84
4462.9
4462.23
4461.38
4460.89
4460.22
4459.86
4459.25
4458.94
4458.39
4458.11
4457.58
4457.31
4456.88
4456.7
4456.39
4456.29
4456.07
4456.11
4456.01
4456.2
4456.18
4456.56
4456.56
4457.18
4457.18
4457.95
4457.95
4459.18
4460.14
4512.13
4625.02
37289.1
8261.23
7566.89
7000.49
6551.52
6200.32
5925.96
5709.02
5535.64
5394.51
5278.64
5181.7
5100.36
5030.75
4971.38
4919.59
4874.89
4835.25
4800.74
4769.69
4742.5
4717.69
4695.91
4675.77
4658.05
4641.46
4626.9
4613.08
4600.96
4589.32
4579.17
4569.27
4560.69
4552.22
4544.92
4537.61
4531.39
4525.06
4519.71
4514.19
4509.57
4504.78
4500.76
4496.53
4493.09
4489.37
4486.35
4483.07
4480.42
4477.57
4475.26
4472.78
4470.82
4468.66
4466.83
4464.97
4463.39
4461.74
4460.34
4458.88
4457.75
4456.56
4455.56
4454.49
4453.74
4452.78
4452.1
4451.24
4450.74
4450.05
4449.68
4449.07
4448.75
4448.2
4447.91
4447.37
4447.09
4446.65
4446.47
4446.14
4446.04
4445.81
4445.82
4445.71
4445.88
4445.85
4446.21
4446.21
4446.8
4446.8
4447.54
4447.54
4448.77
4449.77
4503.5
4616.51
34976.4
8261.25
7567.06
7000.47
6550.91
6198.9
5923.66
5705.87
5531.72
5389.91
5273.44
5175.98
5094.18
5024.16
4964.43
4912.32
4867.34
4827.45
4792.72
4761.46
4734.1
4709.12
4687.19
4666.91
4649.07
4632.37
4617.7
4603.79
4591.58
4579.85
4569.62
4559.66
4551.01
4542.48
4535.13
4527.76
4521.48
4515.11
4509.71
4504.15
4499.49
4494.66
4490.6
4486.35
4482.87
4479.12
4476.08
4472.76
4470.09
4467.21
4464.88
4462.38
4460.4
4458.22
4456.37
4454.49
4452.89
4451.22
4449.81
4448.33
4447.18
4445.97
4444.97
4443.87
4443.11
4442.14
4441.45
4440.58
4440.07
4439.36
4438.99
4438.36
4438.03
4437.47
4437.18
4436.63
4436.35
4435.9
4435.7
4435.37
4435.26
4435.01
4435.01
4434.88
4435.03
4435
4435.32
4435.32
4435.89
4435.89
4436.6
4436.6
4437.83
4438.87
4494.3
4607.46
32775.7
8261.27
7567.24
7000.46
6550.29
6197.43
5921.27
5702.6
5527.65
5385.11
5268.02
5170
5087.72
5017.27
4957.17
4904.72
4859.45
4819.29
4784.33
4752.86
4725.3
4700.15
4678.06
4657.64
4639.66
4622.84
4608.06
4594.04
4581.74
4569.93
4559.62
4549.58
4540.86
4532.26
4524.85
4517.42
4511.09
4504.67
4499.23
4493.62
4488.92
4484.05
4479.96
4475.66
4472.15
4468.37
4465.3
4461.95
4459.25
4456.35
4453.99
4451.47
4449.46
4447.26
4445.39
4443.49
4441.88
4440.18
4438.75
4437.26
4436.09
4434.86
4433.85
4432.74
4431.96
4430.97
4430.27
4429.39
4428.87
4428.15
4427.76
4427.12
4426.79
4426.22
4425.92
4425.36
4425.07
4424.61
4424.41
4424.06
4423.94
4423.69
4423.66
4423.52
4423.64
4423.6
4423.9
4423.9
4424.44
4424.44
4425.12
4425.12
4426.34
4427.42
4484.53
4597.83
30688.7
8261.29
7567.43
7000.46
6549.66
6195.92
5918.8
5699.2
5523.41
5380.12
5262.36
5163.76
5080.98
5010.08
4949.58
4896.79
4851.2
4810.77
4775.55
4743.86
4716.1
4690.76
4668.51
4647.93
4629.82
4612.87
4597.97
4583.85
4571.45
4559.54
4549.15
4539.02
4530.24
4521.56
4514.09
4506.6
4500.22
4493.74
4488.25
4482.59
4477.85
4472.93
4468.8
4464.47
4460.92
4457.11
4454
4450.63
4447.9
4444.97
4442.59
4440.03
4438
4435.78
4433.89
4431.96
4430.33
4428.62
4427.18
4425.66
4424.48
4423.23
4422.2
4421.07
4420.28
4419.27
4418.57
4417.67
4417.13
4416.4
4416
4415.35
4415
4414.43
4414.12
4413.55
4413.25
4412.78
4412.57
4412.21
4412.08
4411.81
4411.77
4411.61
4411.72
4411.66
4411.94
4411.93
4412.44
4412.44
4413.09
4413.09
4414.3
4415.43
4474.12
4587.59
28716.6
8261.31
7567.62
7000.45
6549.02
6194.36
5916.25
5695.69
5519.01
5374.94
5256.49
5157.28
5073.96
5002.59
4941.68
4888.52
4842.61
4801.87
4766.4
4734.46
4706.49
4680.96
4658.54
4637.8
4619.55
4602.45
4587.44
4573.19
4560.69
4548.68
4538.21
4527.99
4519.13
4510.39
4502.85
4495.29
4488.85
4482.31
4476.77
4471.06
4466.27
4461.31
4457.14
4452.77
4449.18
4445.33
4442.2
4438.79
4436.03
4433.07
4430.66
4428.08
4426.02
4423.77
4421.87
4419.91
4418.26
4416.53
4415.07
4413.53
4412.33
4411.06
4410.02
4408.86
4408.06
4407.04
4406.32
4405.4
4404.86
4404.1
4403.69
4403.03
4402.68
4402.09
4401.77
4401.2
4400.89
4400.41
4400.19
4399.82
4399.68
4399.4
4399.34
4399.15
4399.24
4399.18
4399.42
4399.41
4399.89
4399.89
4400.51
4400.51
4401.71
4402.88
4463.04
4576.68
26860.5
8261.33
7567.82
7000.46
6548.36
6192.76
5913.62
5692.05
5514.46
5369.56
5250.39
5150.54
5066.66
4994.8
4933.46
4879.9
4833.65
4792.61
4756.87
4724.68
4696.49
4670.75
4648.14
4627.23
4608.83
4591.59
4576.45
4562.08
4549.47
4537.36
4526.79
4516.49
4507.55
4498.72
4491.11
4483.49
4476.99
4470.38
4464.79
4459.03
4454.19
4449.18
4444.97
4440.55
4436.93
4433.04
4429.87
4426.43
4423.64
4420.65
4418.21
4415.59
4413.51
4411.23
4409.31
4407.33
4405.66
4403.9
4402.42
4400.86
4399.64
4398.35
4397.29
4396.12
4395.3
4394.26
4393.53
4392.6
4392.04
4391.27
4390.84
4390.17
4389.81
4389.21
4388.88
4388.3
4387.98
4387.49
4387.26
4386.87
4386.72
4386.43
4386.35
4386.15
4386.22
4386.13
4386.35
4386.34
4386.78
4386.78
4387.37
4387.37
4388.56
4389.78
4451.27
4565.07
25121.5
8261.35
7568.03
7000.47
6547.69
6191.12
5910.91
5688.3
5509.75
5364
5244.07
5143.56
5059.09
4986.71
4924.92
4870.96
4824.35
4782.98
4746.95
4714.5
4686.07
4660.12
4637.32
4616.23
4597.67
4580.28
4565.01
4550.51
4537.79
4525.56
4514.9
4504.5
4495.48
4486.56
4478.88
4471.19
4464.62
4457.95
4452.31
4446.48
4441.6
4436.54
4432.29
4427.82
4424.16
4420.23
4417.02
4413.54
4410.72
4407.69
4405.23
4402.58
4400.47
4398.16
4396.22
4394.2
4392.52
4390.73
4389.24
4387.65
4386.41
4385.09
4384.03
4382.83
4381.99
4380.94
4380.19
4379.24
4378.66
4377.88
4377.44
4376.75
4376.38
4375.77
4375.44
4374.85
4374.52
4374.01
4373.77
4373.37
4373.21
4372.9
4372.81
4372.59
4372.63
4372.53
4372.72
4372.7
4373.11
4373.11
4373.66
4373.66
4374.85
4376.11
4438.82
4552.73
23500.5
8261.36
7568.25
7000.49
6547.02
6189.44
5908.13
5684.44
5504.9
5358.25
5237.54
5136.32
5051.25
4978.33
4916.06
4861.67
4814.69
4772.98
4736.65
4703.92
4675.25
4649.08
4626.08
4604.8
4586.07
4568.52
4553.1
4538.47
4525.63
4513.29
4502.52
4492.03
4482.91
4473.92
4466.16
4458.38
4451.75
4445.02
4439.31
4433.43
4428.49
4423.37
4419.08
4414.56
4410.86
4406.88
4403.64
4400.13
4397.27
4394.2
4391.71
4389.02
4386.89
4384.55
4382.58
4380.54
4378.83
4377.02
4375.51
4373.9
4372.64
4371.29
4370.21
4368.99
4368.14
4367.06
4366.3
4365.33
4364.74
4363.93
4363.48
4362.78
4362.4
4361.77
4361.43
4360.83
4360.49
4359.97
4359.72
4359.31
4359.13
4358.81
4358.71
4358.46
4358.48
4358.37
4358.53
4358.49
4358.88
4358.87
4359.39
4359.39
4360.56
4361.86
4425.67
4539.62
21993.9
8261.37
7568.46
7000.51
6546.34
6187.73
5905.28
5680.47
5499.9
5352.32
5230.79
5128.85
5043.14
4969.65
4906.88
4852.05
4804.67
4762.61
4725.96
4692.95
4664.03
4637.61
4614.4
4592.92
4574.02
4556.31
4540.74
4525.97
4513.01
4500.55
4489.67
4479.07
4469.86
4460.77
4452.93
4445.08
4438.38
4431.57
4425.8
4419.86
4414.86
4409.69
4405.35
4400.78
4397.03
4393.01
4389.73
4386.17
4383.28
4380.18
4377.65
4374.93
4372.76
4370.4
4368.4
4366.33
4364.6
4362.76
4361.23
4359.59
4358.31
4356.94
4355.84
4354.59
4353.72
4352.62
4351.85
4350.86
4350.26
4349.43
4348.97
4348.24
4347.85
4347.21
4346.86
4346.25
4345.9
4345.37
4345.1
4344.67
4344.49
4344.15
4344.03
4343.77
4343.77
4343.63
4343.77
4343.72
4344.07
4344.06
4344.54
4344.54
4345.7
4347.04
4411.81
4525.7
20596.9
8261.39
7568.69
7000.54
6545.66
6185.99
5902.37
5676.4
5494.76
5346.21
5223.83
5121.13
5034.76
4960.68
4897.39
4842.1
4794.31
4751.88
4714.9
4681.58
4652.39
4625.73
4602.3
4580.61
4561.53
4543.64
4527.92
4513
4499.91
4487.32
4476.33
4465.62
4456.32
4447.13
4439.21
4431.27
4424.49
4417.61
4411.78
4405.77
4400.72
4395.48
4391.09
4386.47
4382.67
4378.61
4375.28
4371.69
4368.76
4365.61
4363.05
4360.29
4358.09
4355.69
4353.67
4351.57
4349.81
4347.94
4346.39
4344.72
4343.42
4342.02
4340.91
4339.63
4338.75
4337.63
4336.84
4335.83
4335.21
4334.36
4333.88
4333.14
4332.74
4332.09
4331.73
4331.1
4330.74
4330.19
4329.91
4329.47
4329.27
4328.91
4328.78
4328.51
4328.48
4328.32
4328.43
4328.37
4328.68
4328.68
4329.11
4329.11
4330.27
4331.64
4397.25
4510.93
19304.8
8261.4
7568.92
7000.58
6544.97
6184.23
5899.39
5672.23
5489.48
5339.93
5216.66
5113.17
5026.11
4951.42
4887.59
4831.81
4783.59
4740.77
4703.45
4669.82
4640.35
4613.43
4589.77
4567.87
4548.59
4530.52
4514.64
4499.57
4486.33
4473.61
4462.5
4451.68
4442.27
4432.99
4424.98
4416.95
4410.1
4403.14
4397.24
4391.15
4386.04
4380.75
4376.3
4371.62
4367.78
4363.67
4360.3
4356.66
4353.69
4350.5
4347.9
4345.11
4342.87
4340.44
4338.39
4336.25
4334.48
4332.57
4331
4329.3
4327.98
4326.55
4325.42
4324.11
4323.21
4322.07
4321.27
4320.23
4319.59
4318.72
4318.23
4317.47
4317.05
4316.39
4316.02
4315.38
4315.01
4314.45
4314.15
4313.69
4313.48
4313.1
4312.96
4312.67
4312.62
4312.43
4312.52
4312.44
4312.71
4312.71
4313.11
4313.1
4314.24
4315.65
4381.98
4495.29
18112.2
8261.41
7569.15
7000.63
6544.28
6182.43
5896.36
5667.96
5484.06
5333.48
5209.29
5104.98
5017.2
4941.87
4877.48
4821.19
4772.53
4729.31
4691.63
4657.67
4627.9
4600.71
4576.81
4554.68
4535.2
4516.95
4500.9
4485.66
4472.28
4459.42
4448.19
4437.24
4427.74
4418.34
4410.24
4402.12
4395.19
4388.15
4382.17
4376.02
4370.85
4365.49
4360.98
4356.25
4352.36
4348.19
4344.78
4341.08
4338.08
4334.84
4332.21
4329.37
4327.1
4324.63
4322.56
4320.38
4318.58
4316.64
4315.05
4313.32
4311.97
4310.51
4309.36
4308.03
4307.1
4305.94
4305.12
4304.06
4303.41
4302.52
4302
4301.23
4300.79
4300.12
4299.74
4299.09
4298.7
4298.12
4297.81
4297.34
4297.11
4296.71
4296.56
4296.25
4296.18
4295.97
4296.03
4295.92
4296.16
4296.16
4296.52
4296.5
4297.63
4299.07
4366
4478.74
17013.7
8261.41
7569.39
7000.69
6543.59
6180.62
5893.27
5663.6
5478.52
5326.86
5201.72
5096.57
5008.04
4932.04
4867.06
4810.25
4761.12
4717.48
4679.42
4645.12
4615.05
4587.58
4563.42
4541.06
4521.37
4502.92
4486.69
4471.29
4457.76
4444.75
4433.4
4422.32
4412.7
4403.2
4395
4386.78
4379.76
4372.64
4366.59
4360.36
4355.12
4349.69
4345.13
4340.33
4336.39
4332.16
4328.71
4324.97
4321.92
4318.64
4315.97
4313.09
4310.78
4308.27
4306.17
4303.95
4302.12
4300.15
4298.54
4296.77
4295.4
4293.91
4292.74
4291.38
4290.43
4289.24
4288.4
4287.32
4286.65
4285.73
4285.2
4284.41
4283.96
4283.26
4282.87
4282.21
4281.81
4281.21
4280.89
4280.4
4280.15
4279.74
4279.57
4279.24
4279.15
4278.92
4278.95
4278.82
4279.03
4279.02
4279.34
4279.31
4280.43
4281.9
4349.3
4461.26
16003.7
8261.42
7569.63
7000.76
6542.91
6178.78
5890.13
5659.15
5472.85
5320.09
5193.95
5087.92
4998.62
4921.93
4856.34
4798.99
4749.37
4705.29
4666.84
4632.19
4601.8
4574.03
4549.61
4527.01
4507.1
4488.44
4472.03
4456.44
4442.76
4429.6
4418.11
4406.9
4397.17
4387.55
4379.25
4370.94
4363.83
4356.61
4350.49
4344.18
4338.87
4333.37
4328.75
4323.88
4319.88
4315.6
4312.1
4308.3
4305.21
4301.88
4299.17
4296.24
4293.9
4291.35
4289.22
4286.96
4285.1
4283.1
4281.46
4279.66
4278.26
4276.74
4275.54
4274.15
4273.18
4271.96
4271.11
4270.01
4269.31
4268.37
4267.83
4267.01
4266.54
4265.83
4265.43
4264.75
4264.34
4263.73
4263.39
4262.87
4262.61
4262.18
4262
4261.65
4261.54
4261.28
4261.29
4261.14
4261.31
4261.29
4261.58
4261.53
4262.64
4264.12
4331.87
4442.8
15076.3
8261.42
7569.88
7000.84
6542.23
6176.93
5886.94
5654.63
5467.07
5313.16
5186
5079.06
4988.95
4911.55
4845.33
4787.4
4737.29
4692.74
4653.89
4618.86
4588.15
4560.07
4535.38
4512.52
4492.38
4473.51
4456.9
4441.14
4427.29
4413.97
4402.34
4391
4381.14
4371.4
4363
4354.58
4347.37
4340.06
4333.86
4327.47
4322.09
4316.51
4311.83
4306.89
4302.84
4298.5
4294.94
4291.09
4287.95
4284.57
4281.82
4278.85