/*--------------------------------*- C++ -*----------------------------------*\
| =========                 |                                                 |
| \\      /  F ield         | OpenFOAM: The Open Source CFD Toolbox           |
|  \\    /   O peration     | Version:  v2012                                 |
|   \\  /    A nd           | Website:  www.openfoam.com                      |
|    \\/     M anipulation  |                                                 |
\*---------------------------------------------------------------------------*/
FoamFile
{
    version     2.0;
    format      ascii;
    class       volScalarField;
    location    "35";
    object      yPlus;
}
// * * * * * * * * * * * * * * * * * * * * * * * * * * * * * * * * * * * * * //

dimensions      [0 0 0 0 0 0 0];


internalField   uniform 0;

boundaryField
{
    inlet
    {
        type            calculated;
        value           uniform 0;
    }
    outlet
    {
        type            calculated;
        value           uniform 0;
    }
    topWall
    {
        type            calculated;
        value           nonuniform List<scalar> 
545
(
0.111262
0.191851
0.246127
0.289321
0.325889
0.357886
0.386468
0.412361
0.43606
0.45792
0.478208
0.497129
0.514848
0.531497
0.547185
0.562005
0.576035
0.589342
0.601983
0.614011
0.62547
0.6364
0.646837
0.656812
0.666355
0.675493
0.684248
0.692643
0.700698
0.708431
0.71586
0.723
0.729866
0.736472
0.74283
0.748952
0.754849
0.760531
0.766009
0.771292
0.776387
0.781304
0.786049
0.790631
0.795055
0.799329
0.803459
0.80745
0.811308
0.815038
0.818645
0.822134
0.825509
0.828775
0.831936
0.834996
0.837958
0.840826
0.843604
0.846295
0.848901
0.851426
0.853873
0.856245
0.858543
0.860772
0.862932
0.865026
0.867057
0.869027
0.870938
0.872791
0.874566
0.876283
0.877986
0.879676
0.881353
0.883016
0.884667
0.886304
0.887928
0.88954
0.891139
0.892726
0.894301
0.895863
0.897413
0.898951
0.900478
0.901992
0.903495
0.904987
0.906467
0.907935
0.909393
0.910839
0.912143
0.913309
0.914474
0.91564
0.916805
0.917971
0.919136
0.920301
0.921466
0.92263
0.923795
0.924959
0.926123
0.927287
0.928451
0.929614
0.930778
0.931941
0.933104
0.934266
0.935429
0.936591
0.937752
0.938914
0.940075
0.941236
0.942397
0.943557
0.944718
0.945877
0.947037
0.948196
0.949355
0.950513
0.951671
0.952829
0.953987
0.955144
0.9563
0.957457
0.958612
0.959768
0.960923
0.962077
0.963232
0.964385
0.965539
0.966692
0.967844
0.968996
0.970147
0.971298
0.972449
0.973599
0.974748
0.975897
0.977045
0.978193
0.97934
0.980487
0.981633
0.982779
0.983924
0.985068
0.986212
0.987355
0.988497
0.989639
0.99078
0.991921
0.993061
0.9942
0.995339
0.996476
0.997614
0.99875
0.999886
1.00102
1.00215
1.00329
1.00442
1.00555
1.00668
1.00781
1.00894
1.01007
1.0112
1.01233
1.01345
1.01458
1.0157
1.01683
1.01795
1.01907
1.02019
1.02131
1.02243
1.02355
1.02467
1.02578
1.0269
1.02801
1.02913
1.03024
1.03135
1.03246
1.03357
1.03468
1.03578
1.03689
1.038
1.0391
1.0402
1.0413
1.0424
1.0435
1.0446
1.0457
1.04679
1.04789
1.04898
1.05007
1.05116
1.05225
1.05334
1.05443
1.05552
1.0566
1.05768
1.05876
1.05985
1.06092
1.062
1.06308
1.06415
1.06523
1.0663
1.06737
1.06844
1.06951
1.07057
1.07164
1.0727
1.07376
1.07483
1.07588
1.07694
1.078
1.07905
1.0801
1.08116
1.08221
1.08325
1.0843
1.08534
1.08639
1.08743
1.08847
1.08951
1.09054
1.09158
1.09261
1.09364
1.09467
1.0957
1.09672
1.09775
1.09877
1.09979
1.10081
1.10182
1.10284
1.10385
1.1048
1.1057
1.10661
1.10752
1.10844
1.10937
1.1103
1.11124
1.11218
1.11313
1.11409
1.11505
1.11602
1.117
1.11798
1.11897
1.11996
1.12096
1.12197
1.12298
1.124
1.12503
1.12606
1.12709
1.12814
1.12918
1.13024
1.1313
1.13237
1.13344
1.13452
1.1356
1.13669
1.13778
1.13888
1.13999
1.1411
1.14222
1.14334
1.14447
1.1456
1.14673
1.14788
1.14902
1.15017
1.15133
1.15249
1.15366
1.15483
1.156
1.15718
1.15836
1.15955
1.16074
1.16193
1.16313
1.16433
1.16554
1.16675
1.16796
1.16917
1.17039
1.17161
1.17283
1.17406
1.17529
1.17652
1.17775
1.17898
1.18022
1.18145
1.18269
1.18393
1.18517
1.18641
1.18765
1.18889
1.19013
1.19137
1.19261
1.19385
1.19509
1.19633
1.19757
1.1988
1.20004
1.20127
1.2025
1.20373
1.20495
1.20617
1.20739
1.2086
1.20981
1.21102
1.21222
1.21342
1.21461
1.2158
1.21698
1.21816
1.21933
1.22049
1.22165
1.2228
1.22394
1.22507
1.2262
1.22732
1.22842
1.22952
1.23061
1.23169
1.23276
1.23382
1.23487
1.23591
1.23693
1.23795
1.23895
1.23994
1.24091
1.24188
1.24283
1.24376
1.24468
1.24558
1.24647
1.24735
1.24821
1.24905
1.24987
1.25068
1.25147
1.25224
1.253
1.25373
1.25445
1.25515
1.25583
1.25649
1.25712
1.25774
1.25834
1.25891
1.25947
1.26
1.26051
1.261
1.26146
1.26191
1.26232
1.26272
1.26309
1.26344
1.26376
1.26406
1.26433
1.26458
1.2648
1.265
1.26517
1.26532
1.26544
1.26554
1.26561
1.26565
1.26566
1.26565
1.26562
1.26555
1.26546
1.26535
1.2652
1.26503
1.26484
1.26461
1.26436
1.26409
1.26379
1.26346
1.26306
1.26259
1.26209
1.26156
1.26101
1.26042
1.25981
1.25918
1.25852
1.25785
1.25715
1.25644
1.2557
1.25496
1.25419
1.25342
1.25263
1.25182
1.25101
1.25019
1.24936
1.24852
1.24768
1.24682
1.24597
1.24511
1.24424
1.24337
1.2425
1.24163
1.24076
1.23989
1.23902
1.23815
1.23728
1.23642
1.23556
1.2347
1.23385
1.233
1.23215
1.23132
1.23049
1.22967
1.22885
1.22804
1.22724
1.22646
1.22568
1.22491
1.22415
1.2234
1.22266
1.22193
1.22122
1.22052
1.21983
1.21915
1.21849
1.21784
1.21721
1.21659
1.21598
1.21539
1.21482
1.21426
1.21372
1.21319
1.21268
1.21219
1.21171
1.21125
1.21081
1.21039
1.20998
1.20959
1.20923
1.20888
1.20854
1.20823
1.20794
1.20766
1.20741
1.20717
1.20696
1.20676
1.20658
1.20643
1.20629
1.20618
1.20608
1.20601
1.20595
1.20592
1.20589
)
;
    }
    bottomWall
    {
        type            calculated;
        value           nonuniform List<scalar> 
449
(
0.139415
0.0889462
0.0758113
0.0694622
0.0653159
0.0622598
0.0599074
0.0581626
0.057146
0.057261
0.0598405
0.0638886
0.0669104
0.0686576
0.0695949
0.0700918
0.0703218
0.0703769
0.0703061
0.0701665
0.0699769
0.069759
0.0695265
0.069288
0.0690486
0.0688117
0.0685785
0.0683508
0.0681293
0.0679142
0.0677057
0.0675037
0.0673081
0.0671187
0.0669351
0.0667571
0.0665843
0.0664167
0.0662541
0.0660961
0.0659427
0.0657935
0.0656484
0.0655071
0.0653695
0.0652355
0.0651047
0.0649772
0.0648527
0.0647309
0.0646114
0.064494
0.0643787
0.0642654
0.0641542
0.0640449
0.0639376
0.0638322
0.0637287
0.0636271
0.0635272
0.0634291
0.0633327
0.0632379
0.0631447
0.063053
0.0629629
0.0628742
0.0627869
0.062701
0.0626163
0.0625329
0.0624507
0.0623698
0.06229
0.0622114
0.0621339
0.0620575
0.0619822
0.061908
0.0618347
0.0617625
0.0616912
0.0616208
0.0615514
0.0614829
0.0614152
0.0613484
0.0612823
0.0612171
0.0611527
0.061089
0.0610261
0.0609639
0.0609024
0.0608417
0.0607816
0.0607222
0.0606634
0.0606052
0.0605477
0.0604907
0.0604343
0.0603785
0.0603232
0.0602686
0.0602144
0.0601608
0.0601077
0.0600551
0.060003
0.0599515
0.0599004
0.0598497
0.0597996
0.0597499
0.0597006
0.0596518
0.0596034
0.0595554
0.0595079
0.0594608
0.059414
0.0593676
0.0593217
0.0592761
0.0592309
0.059186
0.0591415
0.0590974
0.0590536
0.0590102
0.0589671
0.0589243
0.0588818
0.0588397
0.0587978
0.0587563
0.0587151
0.0586742
0.0586336
0.0585932
0.0585532
0.0585134
0.0584739
0.0584347
0.0583957
0.058357
0.0583185
0.0582802
0.0582423
0.0582045
0.058167
0.0581298
0.0580928
0.058056
0.0580195
0.0579832
0.0579471
0.0579113
0.0578756
0.0578402
0.057805
0.05777
0.0577352
0.0577006
0.0576663
0.0576321
0.0575981
0.0575643
0.0575308
0.0574974
0.0574642
0.0574331
0.0574037
0.0573742
0.0573447
0.0573151
0.0572853
0.0572555
0.0572255
0.0571954
0.0571653
0.057135
0.0571046
0.0570741
0.0570435
0.0570128
0.056982
0.0569511
0.0569201
0.056889
0.0568578
0.0568265
0.0567952
0.0567637
0.0567321
0.0567004
0.0566686
0.0566367
0.0566048
0.0565727
0.0565406
0.0565083
0.056476
0.0564436
0.0564111
0.0563784
0.0563458
0.056313
0.0562801
0.056247
0.056214
0.0561808
0.0561475
0.0561142
0.0560808
0.0560473
0.0560137
0.05598
0.0559463
0.0559125
0.0558786
0.0558446
0.0558106
0.0557765
0.0557423
0.0557081
0.0556737
0.0556394
0.0556049
0.0555704
0.0555358
0.0555011
0.0554664
0.0554317
0.0553968
0.0553619
0.055327
0.055292
0.0552569
0.0552218
0.0551866
0.0551514
0.0551161
0.0550808
0.0550454
0.05501
0.0549745
0.054939
0.0549035
0.0548679
0.0548322
0.0547965
0.0547608
0.0547251
0.0546893
0.0546535
0.0546176
0.0545817
0.0545458
0.0545099
0.0544739
0.0544379
0.0544019
0.0543659
0.0543298
0.0542937
0.0542576
0.0542215
0.0541854
0.0541492
0.054113
0.0540768
0.0540405
0.0540043
0.053968
0.0539318
0.0538955
0.0538593
0.053823
0.0537867
0.0537505
0.0537142
0.053678
0.0536417
0.0536055
0.0535693
0.053533
0.0534968
0.0534606
0.0534245
0.0533883
0.0533522
0.053316
0.0532799
0.0532439
0.0532078
0.0531718
0.0531358
0.0530998
0.0530638
0.0530279
0.052992
0.0529561
0.0529203
0.0528845
0.0528487
0.052813
0.0527773
0.0527416
0.052706
0.0526704
0.0526349
0.0525994
0.0525639
0.0525285
0.0524931
0.0524578
0.0524225
0.0523872
0.052352
0.0523169
0.0522817
0.0522467
0.0522117
0.0521767
0.0521418
0.052107
0.0520721
0.0520374
0.0520027
0.051968
0.0519334
0.0518988
0.0518643
0.0518298
0.0517954
0.0517611
0.0517268
0.0516926
0.0516585
0.0516244
0.0515903
0.0515564
0.0515225
0.0514887
0.0514549
0.0514212
0.0513875
0.051354
0.0513205
0.0512871
0.0512537
0.0512167
0.0511764
0.0511368
0.0510977
0.0510592
0.0510213
0.050984
0.0509472
0.0509109
0.0508751
0.0508399
0.0508052
0.0507709
0.0507371
0.0507038
0.0506709
0.0506385
0.0506065
0.0505749
0.0505437
0.0505129
0.0504825
0.0504525
0.0504229
0.0503936
0.0503647
0.0503361
0.0503079
0.05028
0.0502524
0.0502252
0.0501982
0.0501716
0.0501452
0.0501192
0.0500934
0.050068
0.0500428
0.0500179
0.0499932
0.0499688
0.0499446
0.0499208
0.0498971
0.0498737
0.0498505
0.0498275
0.0498048
0.0497823
0.04976
0.0497379
0.049716
0.0496944
0.0496729
0.0496517
0.0496306
0.0496098
0.0495891
0.0495687
0.0495483
0.0495283
0.0495082
0.0494885
0.0494688
0.0494495
0.0494301
0.0494111
0.049392
0.0493734
0.0493546
0.0493363
0.0493178
0.0492997
0.0492815
0.0492638
0.0492458
0.0492283
0.0492106
0.0491935
0.049176
0.0491591
0.0491418
0.0491252
0.0491081
0.0490917
0.0490749
0.0490585
0.0490421
0.0490253
0.0490103
0.048991
0.0489812
0.0489526
0.0489588
0.0489201
)
;
    }
    symmetry
    {
        type            symmetryPlane;
    }
    frontAndBack
    {
        type            empty;
    }
}


// ************************************************************************* //
