/*--------------------------------*- C++ -*----------------------------------*\
| =========                 |                                                 |
| \\      /  F ield         | OpenFOAM: The Open Source CFD Toolbox           |
|  \\    /   O peration     | Version:  v2012                                 |
|   \\  /    A nd           | Website:  www.openfoam.com                      |
|    \\/     M anipulation  |                                                 |
\*---------------------------------------------------------------------------*/
FoamFile
{
    version     2.0;
    format      ascii;
    class       volScalarField;
    location    "39";
    object      nut;
}
// * * * * * * * * * * * * * * * * * * * * * * * * * * * * * * * * * * * * * //

dimensions      [0 2 -1 0 0 0 0];


internalField   nonuniform List<scalar> 
209825
(
1.2477e-07
1.2303e-07
1.17955e-07
1.10929e-07
1.03563e-07
9.6772e-08
9.0804e-08
8.56919e-08
8.13058e-08
7.75643e-08
7.43291e-08
7.15445e-08
6.91026e-08
6.69817e-08
6.50942e-08
6.34405e-08
6.19491e-08
6.06343e-08
5.94341e-08
5.83714e-08
5.73893e-08
5.6518e-08
5.57036e-08
5.49792e-08
5.42948e-08
5.36862e-08
5.31062e-08
5.25904e-08
5.20923e-08
5.16528e-08
5.12236e-08
5.08451e-08
5.04711e-08
5.01439e-08
4.98174e-08
4.95339e-08
4.92468e-08
4.89998e-08
4.87464e-08
4.85299e-08
4.83047e-08
4.81143e-08
4.79126e-08
4.77458e-08
4.75665e-08
4.74185e-08
4.72567e-08
4.71266e-08
4.69823e-08
4.68657e-08
4.67355e-08
4.66359e-08
4.65177e-08
4.64285e-08
4.63188e-08
4.62439e-08
4.61485e-08
4.60765e-08
4.5993e-08
4.5927e-08
4.58445e-08
4.57907e-08
4.57105e-08
4.56628e-08
4.55894e-08
4.55436e-08
4.54761e-08
4.54291e-08
4.53755e-08
4.53327e-08
4.52797e-08
4.52369e-08
4.51896e-08
4.51483e-08
4.51048e-08
4.50653e-08
4.50255e-08
4.4989e-08
4.49532e-08
4.49185e-08
4.48854e-08
4.48521e-08
4.48255e-08
4.47986e-08
4.47797e-08
4.47574e-08
4.47397e-08
4.47173e-08
4.47012e-08
4.46784e-08
4.46597e-08
4.46317e-08
4.46095e-08
4.49596e-08
3.32938e-06
2.24136e-08
1.2477e-07
1.2303e-07
1.17956e-07
1.1093e-07
1.03566e-07
9.67743e-08
9.08064e-08
8.56942e-08
8.1308e-08
7.75663e-08
7.43309e-08
7.15462e-08
6.91042e-08
6.69831e-08
6.50955e-08
6.34416e-08
6.19501e-08
6.06352e-08
5.94349e-08
5.83722e-08
5.739e-08
5.65186e-08
5.57041e-08
5.49796e-08
5.42952e-08
5.36866e-08
5.31065e-08
5.25906e-08
5.20925e-08
5.16529e-08
5.12237e-08
5.08451e-08
5.04711e-08
5.01439e-08
4.98173e-08
4.95338e-08
4.92467e-08
4.89997e-08
4.87462e-08
4.85297e-08
4.83045e-08
4.81141e-08
4.79123e-08
4.77456e-08
4.75662e-08
4.74182e-08
4.72564e-08
4.71263e-08
4.6982e-08
4.68653e-08
4.67351e-08
4.66355e-08
4.65174e-08
4.64281e-08
4.63184e-08
4.62435e-08
4.61481e-08
4.60761e-08
4.59925e-08
4.59266e-08
4.58441e-08
4.57902e-08
4.571e-08
4.56623e-08
4.55889e-08
4.55431e-08
4.54756e-08
4.54285e-08
4.5375e-08
4.53322e-08
4.52791e-08
4.52363e-08
4.51891e-08
4.51478e-08
4.51042e-08
4.50648e-08
4.50249e-08
4.49884e-08
4.49527e-08
4.49179e-08
4.48848e-08
4.48515e-08
4.48249e-08
4.4798e-08
4.47791e-08
4.47568e-08
4.4739e-08
4.47167e-08
4.47006e-08
4.46778e-08
4.4659e-08
4.46311e-08
4.46088e-08
4.49593e-08
3.33002e-06
2.25923e-08
1.24769e-07
1.23031e-07
1.17961e-07
1.10938e-07
1.03575e-07
9.6784e-08
9.0816e-08
8.57034e-08
8.13165e-08
7.75742e-08
7.43381e-08
7.15528e-08
6.91101e-08
6.69884e-08
6.51003e-08
6.34459e-08
6.1954e-08
6.06387e-08
5.94379e-08
5.83749e-08
5.73924e-08
5.65207e-08
5.57059e-08
5.49812e-08
5.42965e-08
5.36877e-08
5.31074e-08
5.25914e-08
5.20931e-08
5.16534e-08
5.1224e-08
5.08453e-08
5.04711e-08
5.01438e-08
4.98171e-08
4.95335e-08
4.92462e-08
4.89991e-08
4.87456e-08
4.8529e-08
4.83037e-08
4.81132e-08
4.79114e-08
4.77445e-08
4.75651e-08
4.7417e-08
4.72552e-08
4.7125e-08
4.69806e-08
4.68639e-08
4.67337e-08
4.6634e-08
4.65158e-08
4.64265e-08
4.63168e-08
4.62418e-08
4.61464e-08
4.60743e-08
4.59907e-08
4.59248e-08
4.58422e-08
4.57884e-08
4.57081e-08
4.56603e-08
4.5587e-08
4.55411e-08
4.54736e-08
4.54265e-08
4.5373e-08
4.53301e-08
4.52771e-08
4.52343e-08
4.5187e-08
4.51457e-08
4.51021e-08
4.50626e-08
4.50228e-08
4.49862e-08
4.49505e-08
4.49156e-08
4.48826e-08
4.48493e-08
4.48226e-08
4.47956e-08
4.47767e-08
4.47544e-08
4.47366e-08
4.47142e-08
4.46981e-08
4.46753e-08
4.46565e-08
4.46285e-08
4.46062e-08
4.49576e-08
3.33164e-06
2.28454e-08
1.24768e-07
1.23033e-07
1.17968e-07
1.1095e-07
1.0359e-07
9.68004e-08
9.08322e-08
8.57188e-08
8.13309e-08
7.75874e-08
7.43502e-08
7.15638e-08
6.912e-08
6.69974e-08
6.51084e-08
6.34532e-08
6.19605e-08
6.06445e-08
5.94431e-08
5.83795e-08
5.73964e-08
5.65243e-08
5.5709e-08
5.49839e-08
5.42988e-08
5.36896e-08
5.3109e-08
5.25927e-08
5.20941e-08
5.16541e-08
5.12245e-08
5.08455e-08
5.04711e-08
5.01437e-08
4.98167e-08
4.9533e-08
4.92455e-08
4.89982e-08
4.87445e-08
4.85279e-08
4.83024e-08
4.81118e-08
4.79098e-08
4.77429e-08
4.75633e-08
4.74151e-08
4.72532e-08
4.71229e-08
4.69784e-08
4.68617e-08
4.67313e-08
4.66316e-08
4.65133e-08
4.64239e-08
4.63141e-08
4.62391e-08
4.61436e-08
4.60715e-08
4.59878e-08
4.59218e-08
4.58392e-08
4.57853e-08
4.5705e-08
4.56572e-08
4.55838e-08
4.55379e-08
4.54703e-08
4.54233e-08
4.53697e-08
4.53267e-08
4.52737e-08
4.52308e-08
4.51835e-08
4.51422e-08
4.50986e-08
4.50591e-08
4.50192e-08
4.49826e-08
4.49468e-08
4.4912e-08
4.48788e-08
4.48455e-08
4.48188e-08
4.47917e-08
4.47728e-08
4.47504e-08
4.47325e-08
4.47101e-08
4.4694e-08
4.46711e-08
4.46523e-08
4.46243e-08
4.4602e-08
4.49547e-08
3.33426e-06
2.31465e-08
1.24767e-07
1.23036e-07
1.17979e-07
1.10968e-07
1.03612e-07
9.68236e-08
9.08551e-08
8.57407e-08
8.13513e-08
7.76062e-08
7.43674e-08
7.15794e-08
6.91341e-08
6.70101e-08
6.51199e-08
6.34635e-08
6.19697e-08
6.06527e-08
5.94505e-08
5.83861e-08
5.74022e-08
5.65294e-08
5.57135e-08
5.49878e-08
5.43021e-08
5.36925e-08
5.31114e-08
5.25946e-08
5.20956e-08
5.16552e-08
5.12253e-08
5.0846e-08
5.04713e-08
5.01435e-08
4.98163e-08
4.95323e-08
4.92445e-08
4.89971e-08
4.87431e-08
4.85263e-08
4.83006e-08
4.81098e-08
4.79077e-08
4.77406e-08
4.75608e-08
4.74125e-08
4.72504e-08
4.712e-08
4.69754e-08
4.68585e-08
4.6728e-08
4.66282e-08
4.65098e-08
4.64203e-08
4.63104e-08
4.62353e-08
4.61397e-08
4.60675e-08
4.59837e-08
4.59177e-08
4.5835e-08
4.57811e-08
4.57007e-08
4.56528e-08
4.55793e-08
4.55334e-08
4.54657e-08
4.54187e-08
4.5365e-08
4.5322e-08
4.52689e-08
4.5226e-08
4.51787e-08
4.51374e-08
4.50937e-08
4.50541e-08
4.50142e-08
4.49775e-08
4.49417e-08
4.49068e-08
4.48736e-08
4.48403e-08
4.48134e-08
4.47863e-08
4.47673e-08
4.47448e-08
4.47269e-08
4.47044e-08
4.46883e-08
4.46653e-08
4.46465e-08
4.46184e-08
4.45961e-08
4.49506e-08
3.33791e-06
2.34856e-08
1.24765e-07
1.23039e-07
1.17993e-07
1.10991e-07
1.0364e-07
9.68536e-08
9.08849e-08
8.57691e-08
8.13778e-08
7.76306e-08
7.43897e-08
7.15996e-08
6.91525e-08
6.70267e-08
6.51348e-08
6.34769e-08
6.19818e-08
6.06635e-08
5.94601e-08
5.83946e-08
5.74098e-08
5.6536e-08
5.57193e-08
5.49929e-08
5.43065e-08
5.36962e-08
5.31145e-08
5.25971e-08
5.20976e-08
5.16567e-08
5.12263e-08
5.08466e-08
5.04715e-08
5.01433e-08
4.98157e-08
4.95314e-08
4.92434e-08
4.89956e-08
4.87414e-08
4.85242e-08
4.82983e-08
4.81073e-08
4.79049e-08
4.77376e-08
4.75577e-08
4.74091e-08
4.72468e-08
4.71163e-08
4.69715e-08
4.68545e-08
4.67238e-08
4.66238e-08
4.65053e-08
4.64157e-08
4.63057e-08
4.62304e-08
4.61347e-08
4.60624e-08
4.59785e-08
4.59124e-08
4.58295e-08
4.57756e-08
4.56952e-08
4.56472e-08
4.55736e-08
4.55277e-08
4.54599e-08
4.54128e-08
4.5359e-08
4.5316e-08
4.52628e-08
4.52199e-08
4.51725e-08
4.51311e-08
4.50874e-08
4.50478e-08
4.50077e-08
4.4971e-08
4.49351e-08
4.49002e-08
4.48669e-08
4.48335e-08
4.48065e-08
4.47793e-08
4.47602e-08
4.47376e-08
4.47196e-08
4.46971e-08
4.46809e-08
4.46579e-08
4.4639e-08
4.46108e-08
4.45885e-08
4.49453e-08
3.34265e-06
2.38593e-08
1.24763e-07
1.23044e-07
1.18011e-07
1.1102e-07
1.03675e-07
9.68907e-08
9.09217e-08
8.58042e-08
8.14106e-08
7.76608e-08
7.44173e-08
7.16247e-08
6.91752e-08
6.70472e-08
6.51533e-08
6.34936e-08
6.19967e-08
6.06769e-08
5.9472e-08
5.84052e-08
5.74192e-08
5.65443e-08
5.57266e-08
5.49992e-08
5.43119e-08
5.37008e-08
5.31183e-08
5.26003e-08
5.21001e-08
5.16587e-08
5.12276e-08
5.08474e-08
5.04718e-08
5.01432e-08
4.98151e-08
4.95304e-08
4.92419e-08
4.89938e-08
4.87392e-08
4.85218e-08
4.82956e-08
4.81043e-08
4.79016e-08
4.7734e-08
4.75538e-08
4.74051e-08
4.72425e-08
4.71117e-08
4.69668e-08
4.68496e-08
4.67187e-08
4.66185e-08
4.64998e-08
4.641e-08
4.62998e-08
4.62244e-08
4.61285e-08
4.60561e-08
4.5972e-08
4.59058e-08
4.58229e-08
4.57689e-08
4.56884e-08
4.56403e-08
4.55666e-08
4.55206e-08
4.54527e-08
4.54055e-08
4.53517e-08
4.53086e-08
4.52554e-08
4.52123e-08
4.51649e-08
4.51235e-08
4.50796e-08
4.504e-08
4.49998e-08
4.49631e-08
4.49271e-08
4.48921e-08
4.48587e-08
4.48253e-08
4.4798e-08
4.47706e-08
4.47514e-08
4.47288e-08
4.47107e-08
4.46881e-08
4.46718e-08
4.46487e-08
4.46297e-08
4.46014e-08
4.45791e-08
4.49389e-08
3.34851e-06
2.42683e-08
1.24761e-07
1.23049e-07
1.18031e-07
1.11054e-07
1.03716e-07
9.69349e-08
9.09655e-08
8.5846e-08
8.14497e-08
7.76969e-08
7.44503e-08
7.16547e-08
6.92024e-08
6.70718e-08
6.51755e-08
6.35135e-08
6.20146e-08
6.06929e-08
5.94863e-08
5.8418e-08
5.74305e-08
5.65543e-08
5.57353e-08
5.50068e-08
5.43185e-08
5.37064e-08
5.3123e-08
5.26041e-08
5.21032e-08
5.1661e-08
5.12293e-08
5.08485e-08
5.04722e-08
5.01431e-08
4.98145e-08
4.95293e-08
4.92403e-08
4.89918e-08
4.87368e-08
4.85189e-08
4.82923e-08
4.81007e-08
4.78976e-08
4.77298e-08
4.75493e-08
4.74003e-08
4.72374e-08
4.71064e-08
4.69611e-08
4.68437e-08
4.67126e-08
4.66122e-08
4.64932e-08
4.64034e-08
4.62929e-08
4.62173e-08
4.61213e-08
4.60487e-08
4.59644e-08
4.58981e-08
4.5815e-08
4.57609e-08
4.56803e-08
4.56321e-08
4.55582e-08
4.55122e-08
4.54441e-08
4.53969e-08
4.53429e-08
4.52997e-08
4.52465e-08
4.52034e-08
4.51559e-08
4.51144e-08
4.50704e-08
4.50307e-08
4.49905e-08
4.49536e-08
4.49175e-08
4.48824e-08
4.4849e-08
4.48154e-08
4.4788e-08
4.47604e-08
4.47411e-08
4.47182e-08
4.47e-08
4.46774e-08
4.4661e-08
4.46378e-08
4.46188e-08
4.45903e-08
4.4568e-08
4.49313e-08
3.35553e-06
2.47166e-08
1.24758e-07
1.23055e-07
1.18055e-07
1.11093e-07
1.03765e-07
9.69863e-08
9.10166e-08
8.58949e-08
8.14954e-08
7.7739e-08
7.44888e-08
7.16898e-08
6.92342e-08
6.71006e-08
6.52014e-08
6.35369e-08
6.20355e-08
6.07117e-08
5.95031e-08
5.84329e-08
5.74437e-08
5.6566e-08
5.57455e-08
5.50157e-08
5.43262e-08
5.3713e-08
5.31285e-08
5.26087e-08
5.21068e-08
5.16638e-08
5.12313e-08
5.08497e-08
5.04728e-08
5.0143e-08
4.98138e-08
4.9528e-08
4.92385e-08
4.89895e-08
4.87339e-08
4.85157e-08
4.82886e-08
4.80966e-08
4.78931e-08
4.77249e-08
4.7544e-08
4.73947e-08
4.72315e-08
4.71002e-08
4.69546e-08
4.6837e-08
4.67055e-08
4.66049e-08
4.64857e-08
4.63956e-08
4.62849e-08
4.62091e-08
4.61128e-08
4.60401e-08
4.59555e-08
4.58892e-08
4.58058e-08
4.57517e-08
4.56709e-08
4.56226e-08
4.55485e-08
4.55025e-08
4.54342e-08
4.53869e-08
4.53328e-08
4.52895e-08
4.52361e-08
4.5193e-08
4.51454e-08
4.51038e-08
4.50597e-08
4.50199e-08
4.49795e-08
4.49426e-08
4.49063e-08
4.48712e-08
4.48376e-08
4.4804e-08
4.47763e-08
4.47485e-08
4.4729e-08
4.4706e-08
4.46877e-08
4.46649e-08
4.46484e-08
4.46251e-08
4.4606e-08
4.45774e-08
4.45551e-08
4.49224e-08
3.36374e-06
2.521e-08
1.24755e-07
1.23061e-07
1.18082e-07
1.11138e-07
1.0382e-07
9.70452e-08
9.10752e-08
8.59509e-08
8.15477e-08
7.77873e-08
7.4533e-08
7.17301e-08
6.92707e-08
6.71336e-08
6.52312e-08
6.35637e-08
6.20596e-08
6.07333e-08
5.95224e-08
5.84501e-08
5.7459e-08
5.65795e-08
5.57574e-08
5.50261e-08
5.43351e-08
5.37206e-08
5.31349e-08
5.2614e-08
5.21111e-08
5.16671e-08
5.12337e-08
5.08513e-08
5.04735e-08
5.0143e-08
4.9813e-08
4.95266e-08
4.92365e-08
4.89869e-08
4.87307e-08
4.8512e-08
4.82844e-08
4.8092e-08
4.7888e-08
4.77194e-08
4.7538e-08
4.73884e-08
4.72248e-08
4.70932e-08
4.69472e-08
4.68293e-08
4.66975e-08
4.65966e-08
4.64771e-08
4.63868e-08
4.62758e-08
4.61997e-08
4.61032e-08
4.60303e-08
4.59454e-08
4.58789e-08
4.57954e-08
4.57411e-08
4.56602e-08
4.56117e-08
4.55374e-08
4.54913e-08
4.54228e-08
4.53755e-08
4.53213e-08
4.52778e-08
4.52244e-08
4.51811e-08
4.51334e-08
4.50917e-08
4.50475e-08
4.50077e-08
4.49671e-08
4.49301e-08
4.48936e-08
4.48584e-08
4.48247e-08
4.4791e-08
4.47629e-08
4.47349e-08
4.47153e-08
4.46921e-08
4.46735e-08
4.46507e-08
4.46341e-08
4.46106e-08
4.45914e-08
4.45626e-08
4.45403e-08
4.49124e-08
3.37313e-06
2.57567e-08
1.24751e-07
1.23069e-07
1.18113e-07
1.11188e-07
1.03882e-07
9.71115e-08
9.11412e-08
8.60141e-08
8.16069e-08
7.7842e-08
7.45831e-08
7.17756e-08
6.93121e-08
6.7171e-08
6.5265e-08
6.35941e-08
6.2087e-08
6.07578e-08
5.95443e-08
5.84697e-08
5.74763e-08
5.65948e-08
5.57709e-08
5.50379e-08
5.43453e-08
5.37293e-08
5.31423e-08
5.26201e-08
5.2116e-08
5.16709e-08
5.12364e-08
5.08531e-08
5.04744e-08
5.01431e-08
4.98123e-08
4.95251e-08
4.92342e-08
4.8984e-08
4.87272e-08
4.85079e-08
4.82797e-08
4.80868e-08
4.78823e-08
4.77132e-08
4.75314e-08
4.73813e-08
4.72173e-08
4.70853e-08
4.69389e-08
4.68207e-08
4.66885e-08
4.65873e-08
4.64674e-08
4.63769e-08
4.62656e-08
4.61892e-08
4.60924e-08
4.60192e-08
4.59341e-08
4.58675e-08
4.57836e-08
4.57293e-08
4.56482e-08
4.55995e-08
4.5525e-08
4.54788e-08
4.54101e-08
4.53627e-08
4.53082e-08
4.52647e-08
4.52111e-08
4.51677e-08
4.51199e-08
4.50781e-08
4.50338e-08
4.49938e-08
4.49531e-08
4.49159e-08
4.48793e-08
4.4844e-08
4.48101e-08
4.47763e-08
4.47479e-08
4.47196e-08
4.46998e-08
4.46764e-08
4.46577e-08
4.46347e-08
4.46179e-08
4.45943e-08
4.4575e-08
4.4546e-08
4.45237e-08
4.49012e-08
3.38371e-06
2.63662e-08
1.24747e-07
1.23077e-07
1.18147e-07
1.11244e-07
1.03951e-07
9.71856e-08
9.1215e-08
8.60848e-08
8.16731e-08
7.79031e-08
7.46391e-08
7.18267e-08
6.93584e-08
6.72129e-08
6.53028e-08
6.36283e-08
6.21177e-08
6.07854e-08
5.9569e-08
5.84917e-08
5.74959e-08
5.66121e-08
5.57861e-08
5.50511e-08
5.43568e-08
5.37392e-08
5.31506e-08
5.26271e-08
5.21215e-08
5.16753e-08
5.12396e-08
5.08552e-08
5.04755e-08
5.01432e-08
4.98115e-08
4.95236e-08
4.92319e-08
4.89809e-08
4.87234e-08
4.85034e-08
4.82746e-08
4.80811e-08
4.7876e-08
4.77064e-08
4.7524e-08
4.73735e-08
4.7209e-08
4.70765e-08
4.69298e-08
4.68111e-08
4.66785e-08
4.6577e-08
4.64567e-08
4.63659e-08
4.62542e-08
4.61775e-08
4.60804e-08
4.6007e-08
4.59215e-08
4.58547e-08
4.57705e-08
4.57161e-08
4.56348e-08
4.55859e-08
4.55112e-08
4.54649e-08
4.53959e-08
4.53485e-08
4.52937e-08
4.525e-08
4.51963e-08
4.51528e-08
4.51049e-08
4.5063e-08
4.50185e-08
4.49784e-08
4.49374e-08
4.49002e-08
4.48633e-08
4.48279e-08
4.47938e-08
4.47599e-08
4.47312e-08
4.47026e-08
4.46826e-08
4.46589e-08
4.464e-08
4.46169e-08
4.45999e-08
4.45761e-08
4.45567e-08
4.45274e-08
4.45051e-08
4.48888e-08
3.39544e-06
2.7049e-08
1.24742e-07
1.23086e-07
1.18183e-07
1.11306e-07
1.04027e-07
9.72673e-08
9.12966e-08
8.6163e-08
8.17464e-08
7.79709e-08
7.47012e-08
7.18834e-08
6.94099e-08
6.72596e-08
6.5345e-08
6.36663e-08
6.21519e-08
6.08161e-08
5.95964e-08
5.85162e-08
5.75177e-08
5.66314e-08
5.5803e-08
5.5066e-08
5.43697e-08
5.37503e-08
5.316e-08
5.26349e-08
5.21279e-08
5.16803e-08
5.12433e-08
5.08577e-08
5.04768e-08
5.01436e-08
4.98108e-08
4.9522e-08
4.92293e-08
4.89776e-08
4.87192e-08
4.84986e-08
4.8269e-08
4.80749e-08
4.78691e-08
4.76989e-08
4.75159e-08
4.73649e-08
4.71998e-08
4.7067e-08
4.69197e-08
4.68006e-08
4.66675e-08
4.65656e-08
4.64449e-08
4.63537e-08
4.62417e-08
4.61646e-08
4.60672e-08
4.59934e-08
4.59076e-08
4.58406e-08
4.57561e-08
4.57015e-08
4.562e-08
4.55709e-08
4.54959e-08
4.54496e-08
4.53803e-08
4.53328e-08
4.52778e-08
4.52339e-08
4.518e-08
4.51364e-08
4.50883e-08
4.50463e-08
4.50016e-08
4.49614e-08
4.49202e-08
4.48828e-08
4.48457e-08
4.48102e-08
4.47759e-08
4.47419e-08
4.47128e-08
4.46839e-08
4.46635e-08
4.46396e-08
4.46204e-08
4.45972e-08
4.45801e-08
4.4556e-08
4.45365e-08
4.45069e-08
4.44847e-08
4.48752e-08
3.40823e-06
2.7817e-08
1.24738e-07
1.23095e-07
1.18224e-07
1.11374e-07
1.04111e-07
9.7357e-08
9.13862e-08
8.6249e-08
8.18271e-08
7.80456e-08
7.47697e-08
7.19459e-08
6.94666e-08
6.7311e-08
6.53914e-08
6.37082e-08
6.21896e-08
6.085e-08
5.96268e-08
5.85433e-08
5.75418e-08
5.66528e-08
5.58219e-08
5.50825e-08
5.4384e-08
5.37626e-08
5.31704e-08
5.26436e-08
5.2135e-08
5.16859e-08
5.12474e-08
5.08606e-08
5.04785e-08
5.0144e-08
4.98102e-08
4.95203e-08
4.92267e-08
4.8974e-08
4.87148e-08
4.84933e-08
4.82629e-08
4.80681e-08
4.78616e-08
4.76908e-08
4.75072e-08
4.73556e-08
4.71899e-08
4.70565e-08
4.69087e-08
4.67892e-08
4.66555e-08
4.65532e-08
4.6432e-08
4.63405e-08
4.6228e-08
4.61505e-08
4.60527e-08
4.59787e-08
4.58924e-08
4.58252e-08
4.57403e-08
4.56856e-08
4.56039e-08
4.55545e-08
4.54792e-08
4.54328e-08
4.53631e-08
4.53156e-08
4.52603e-08
4.52162e-08
4.51622e-08
4.51184e-08
4.50701e-08
4.5028e-08
4.49831e-08
4.49428e-08
4.49013e-08
4.48638e-08
4.48264e-08
4.47908e-08
4.47563e-08
4.47221e-08
4.46926e-08
4.46634e-08
4.46427e-08
4.46184e-08
4.4599e-08
4.45756e-08
4.45583e-08
4.4534e-08
4.45144e-08
4.44844e-08
4.44623e-08
4.48603e-08
3.42197e-06
2.86828e-08
1.24732e-07
1.23106e-07
1.18267e-07
1.11447e-07
1.04201e-07
9.74547e-08
9.14839e-08
8.63429e-08
8.19153e-08
7.81272e-08
7.48447e-08
7.20143e-08
6.95288e-08
6.73674e-08
6.54424e-08
6.37542e-08
6.22311e-08
6.08873e-08
5.96602e-08
5.85731e-08
5.75683e-08
5.66764e-08
5.58427e-08
5.51008e-08
5.43999e-08
5.37763e-08
5.3182e-08
5.26533e-08
5.21429e-08
5.16921e-08
5.12522e-08
5.08639e-08
5.04804e-08
5.01447e-08
4.98096e-08
4.95187e-08
4.92239e-08
4.89703e-08
4.87101e-08
4.84878e-08
4.82565e-08
4.80609e-08
4.78536e-08
4.76821e-08
4.74977e-08
4.73456e-08
4.71792e-08
4.70453e-08
4.68968e-08
4.67769e-08
4.66426e-08
4.65398e-08
4.64181e-08
4.63262e-08
4.62132e-08
4.61353e-08
4.60371e-08
4.59627e-08
4.58759e-08
4.58085e-08
4.57232e-08
4.56683e-08
4.55863e-08
4.55367e-08
4.54611e-08
4.54146e-08
4.53445e-08
4.52969e-08
4.52412e-08
4.5197e-08
4.51428e-08
4.50988e-08
4.50504e-08
4.50082e-08
4.4963e-08
4.49225e-08
4.48808e-08
4.48431e-08
4.48055e-08
4.47697e-08
4.47349e-08
4.47006e-08
4.46707e-08
4.46411e-08
4.46201e-08
4.45954e-08
4.45758e-08
4.45522e-08
4.45346e-08
4.45101e-08
4.44903e-08
4.446e-08
4.44378e-08
4.48442e-08
3.43651e-06
2.96597e-08
1.24726e-07
1.23117e-07
1.18314e-07
1.11525e-07
1.04299e-07
9.75605e-08
9.159e-08
8.64449e-08
8.20111e-08
7.82161e-08
7.49263e-08
7.20888e-08
6.95966e-08
6.74289e-08
6.54981e-08
6.38045e-08
6.22764e-08
6.0928e-08
5.96967e-08
5.86058e-08
5.75975e-08
5.67022e-08
5.58655e-08
5.51208e-08
5.44173e-08
5.37913e-08
5.31948e-08
5.26641e-08
5.21517e-08
5.16992e-08
5.12575e-08
5.08677e-08
5.04827e-08
5.01456e-08
4.98092e-08
4.9517e-08
4.92211e-08
4.89664e-08
4.87051e-08
4.84819e-08
4.82496e-08
4.80533e-08
4.78451e-08
4.76728e-08
4.74876e-08
4.73348e-08
4.71677e-08
4.70332e-08
4.6884e-08
4.67636e-08
4.66286e-08
4.65254e-08
4.64031e-08
4.63108e-08
4.61972e-08
4.61188e-08
4.60202e-08
4.59454e-08
4.58582e-08
4.57905e-08
4.57048e-08
4.56496e-08
4.55673e-08
4.55174e-08
4.54415e-08
4.53949e-08
4.53244e-08
4.52768e-08
4.52207e-08
4.51762e-08
4.51219e-08
4.50777e-08
4.50291e-08
4.49867e-08
4.49413e-08
4.49006e-08
4.48586e-08
4.48207e-08
4.47828e-08
4.47468e-08
4.47118e-08
4.46773e-08
4.4647e-08
4.46171e-08
4.45956e-08
4.45705e-08
4.45506e-08
4.45268e-08
4.4509e-08
4.44842e-08
4.44642e-08
4.44335e-08
4.44114e-08
4.48267e-08
3.45162e-06
3.07615e-08
1.2472e-07
1.23128e-07
1.18363e-07
1.1161e-07
1.04405e-07
9.76746e-08
9.17045e-08
8.65552e-08
8.21149e-08
7.83123e-08
7.50147e-08
7.21697e-08
6.96702e-08
6.74957e-08
6.55586e-08
6.38592e-08
6.23256e-08
6.09723e-08
5.97365e-08
5.86415e-08
5.76292e-08
5.67304e-08
5.58904e-08
5.51427e-08
5.44364e-08
5.38079e-08
5.32089e-08
5.2676e-08
5.21615e-08
5.1707e-08
5.12635e-08
5.0872e-08
5.04853e-08
5.01469e-08
4.98089e-08
4.95155e-08
4.92183e-08
4.89624e-08
4.87e-08
4.84757e-08
4.82424e-08
4.80451e-08
4.7836e-08
4.76629e-08
4.74769e-08
4.73234e-08
4.71555e-08
4.70202e-08
4.68704e-08
4.67494e-08
4.66137e-08
4.65099e-08
4.6387e-08
4.62942e-08
4.61801e-08
4.61012e-08
4.60021e-08
4.59269e-08
4.58391e-08
4.57712e-08
4.5685e-08
4.56296e-08
4.55469e-08
4.54967e-08
4.54205e-08
4.53737e-08
4.53028e-08
4.52551e-08
4.51986e-08
4.51539e-08
4.50994e-08
4.50549e-08
4.50061e-08
4.49636e-08
4.49179e-08
4.48771e-08
4.48347e-08
4.47966e-08
4.47584e-08
4.47223e-08
4.46869e-08
4.46523e-08
4.46216e-08
4.45912e-08
4.45693e-08
4.45437e-08
4.45236e-08
4.44995e-08
4.44814e-08
4.44563e-08
4.44361e-08
4.44049e-08
4.4383e-08
4.4808e-08
3.46702e-06
3.20028e-08
1.24714e-07
1.2314e-07
1.18416e-07
1.117e-07
1.04518e-07
9.77971e-08
9.18275e-08
8.66739e-08
8.22267e-08
7.84161e-08
7.51102e-08
7.2257e-08
6.97498e-08
6.7568e-08
6.5624e-08
6.39184e-08
6.2379e-08
6.10204e-08
5.97797e-08
5.86802e-08
5.76638e-08
5.67612e-08
5.59176e-08
5.51667e-08
5.44573e-08
5.3826e-08
5.32244e-08
5.26891e-08
5.21723e-08
5.17158e-08
5.12702e-08
5.08769e-08
5.04885e-08
5.01484e-08
4.98089e-08
4.95141e-08
4.92154e-08
4.89584e-08
4.86946e-08
4.84693e-08
4.82348e-08
4.80366e-08
4.78264e-08
4.76525e-08
4.74655e-08
4.73112e-08
4.71425e-08
4.70065e-08
4.68559e-08
4.67343e-08
4.65978e-08
4.64935e-08
4.63699e-08
4.62766e-08
4.61619e-08
4.60824e-08
4.59827e-08
4.59071e-08
4.58188e-08
4.57506e-08
4.56638e-08
4.56082e-08
4.55251e-08
4.54746e-08
4.5398e-08
4.53511e-08
4.52797e-08
4.52319e-08
4.51749e-08
4.513e-08
4.50753e-08
4.50306e-08
4.49816e-08
4.49388e-08
4.48929e-08
4.48518e-08
4.48092e-08
4.47709e-08
4.47323e-08
4.4696e-08
4.46603e-08
4.46255e-08
4.45944e-08
4.45635e-08
4.45411e-08
4.45149e-08
4.44946e-08
4.44702e-08
4.44519e-08
4.44264e-08
4.44061e-08
4.43743e-08
4.43525e-08
4.47879e-08
3.48235e-06
3.33984e-08
1.24706e-07
1.23152e-07
1.18472e-07
1.11796e-07
1.04639e-07
9.7928e-08
9.19594e-08
8.68013e-08
8.23468e-08
7.85277e-08
7.5213e-08
7.23511e-08
6.98355e-08
6.76459e-08
6.56947e-08
6.39823e-08
6.24367e-08
6.10725e-08
5.98264e-08
5.87221e-08
5.77012e-08
5.67945e-08
5.59471e-08
5.51927e-08
5.44801e-08
5.38458e-08
5.32413e-08
5.27035e-08
5.21842e-08
5.17254e-08
5.12777e-08
5.08825e-08
5.04922e-08
5.01504e-08
4.98092e-08
4.95128e-08
4.92127e-08
4.89543e-08
4.86892e-08
4.84627e-08
4.8227e-08
4.80277e-08
4.78164e-08
4.76415e-08
4.74535e-08
4.72984e-08
4.71287e-08
4.69921e-08
4.68405e-08
4.67183e-08
4.6581e-08
4.64761e-08
4.63517e-08
4.62579e-08
4.61425e-08
4.60625e-08
4.59622e-08
4.58861e-08
4.57971e-08
4.57286e-08
4.56413e-08
4.55853e-08
4.55019e-08
4.54511e-08
4.5374e-08
4.5327e-08
4.52551e-08
4.52072e-08
4.51498e-08
4.51045e-08
4.50496e-08
4.50047e-08
4.49554e-08
4.49125e-08
4.48662e-08
4.4825e-08
4.47819e-08
4.47434e-08
4.47044e-08
4.46679e-08
4.46319e-08
4.45969e-08
4.45654e-08
4.45341e-08
4.4511e-08
4.44842e-08
4.44638e-08
4.4439e-08
4.44204e-08
4.43945e-08
4.4374e-08
4.43416e-08
4.432e-08
4.47664e-08
3.49718e-06
3.49641e-08
1.24699e-07
1.23165e-07
1.18531e-07
1.11898e-07
1.04767e-07
9.80676e-08
9.21002e-08
8.69374e-08
8.24753e-08
7.86473e-08
7.53231e-08
7.2452e-08
6.99276e-08
6.77296e-08
6.57706e-08
6.40511e-08
6.24989e-08
6.11285e-08
5.98768e-08
5.87673e-08
5.77416e-08
5.68306e-08
5.59791e-08
5.5221e-08
5.45048e-08
5.38673e-08
5.32598e-08
5.27192e-08
5.21973e-08
5.17361e-08
5.12861e-08
5.08888e-08
5.04964e-08
5.01528e-08
4.98098e-08
4.95118e-08
4.921e-08
4.89502e-08
4.86836e-08
4.84559e-08
4.82189e-08
4.80185e-08
4.7806e-08
4.76301e-08
4.7441e-08
4.7285e-08
4.71143e-08
4.69768e-08
4.68244e-08
4.67014e-08
4.65633e-08
4.64577e-08
4.63325e-08
4.62382e-08
4.61221e-08
4.60414e-08
4.59405e-08
4.58639e-08
4.57742e-08
4.57054e-08
4.56174e-08
4.55611e-08
4.54773e-08
4.54262e-08
4.53487e-08
4.53014e-08
4.5229e-08
4.51811e-08
4.5123e-08
4.50775e-08
4.50223e-08
4.49771e-08
4.49276e-08
4.48845e-08
4.48379e-08
4.47964e-08
4.4753e-08
4.47142e-08
4.46749e-08
4.46381e-08
4.46017e-08
4.45665e-08
4.45347e-08
4.45028e-08
4.44791e-08
4.44517e-08
4.4431e-08
4.44059e-08
4.43869e-08
4.43606e-08
4.43398e-08
4.43067e-08
4.42855e-08
4.47435e-08
3.51102e-06
3.67155e-08
1.24691e-07
1.23179e-07
1.18593e-07
1.12005e-07
1.04903e-07
9.82158e-08
9.22501e-08
8.70826e-08
8.26125e-08
7.8775e-08
7.5441e-08
7.25601e-08
7.00262e-08
6.78194e-08
6.58521e-08
6.4125e-08
6.25657e-08
6.11888e-08
5.99311e-08
5.88161e-08
5.77853e-08
5.68695e-08
5.60136e-08
5.52515e-08
5.45316e-08
5.38907e-08
5.328e-08
5.27364e-08
5.22117e-08
5.17479e-08
5.12954e-08
5.08959e-08
5.05013e-08
5.01558e-08
4.98108e-08
4.95111e-08
4.92076e-08
4.89462e-08
4.86781e-08
4.8449e-08
4.82105e-08
4.8009e-08
4.77952e-08
4.76182e-08
4.7428e-08
4.7271e-08
4.70993e-08
4.69609e-08
4.68075e-08
4.66838e-08
4.65447e-08
4.64383e-08
4.63124e-08
4.62174e-08
4.61005e-08
4.60191e-08
4.59176e-08
4.58405e-08
4.57501e-08
4.56809e-08
4.55922e-08
4.55356e-08
4.54513e-08
4.53998e-08
4.53219e-08
4.52743e-08
4.52014e-08
4.51533e-08
4.50947e-08
4.50489e-08
4.49934e-08
4.4948e-08
4.48982e-08
4.48549e-08
4.48079e-08
4.47662e-08
4.47224e-08
4.46833e-08
4.46435e-08
4.46065e-08
4.45697e-08
4.45343e-08
4.45021e-08
4.44697e-08
4.44453e-08
4.44172e-08
4.43963e-08
4.43707e-08
4.43514e-08
4.43246e-08
4.43036e-08
4.42699e-08
4.42488e-08
4.47191e-08
3.52327e-06
3.86681e-08
1.24683e-07
1.23192e-07
1.18658e-07
1.12118e-07
1.05046e-07
9.83729e-08
9.24092e-08
8.7237e-08
8.27586e-08
7.89112e-08
7.55668e-08
7.26755e-08
7.01317e-08
6.79154e-08
6.59394e-08
6.42041e-08
6.26373e-08
6.12535e-08
5.99894e-08
5.88685e-08
5.78322e-08
5.69115e-08
5.60509e-08
5.52846e-08
5.45607e-08
5.39161e-08
5.33019e-08
5.27552e-08
5.22274e-08
5.1761e-08
5.13058e-08
5.09039e-08
5.0507e-08
5.01594e-08
4.98123e-08
4.95108e-08
4.92053e-08
4.89424e-08
4.86726e-08
4.8442e-08
4.82021e-08
4.79993e-08
4.77841e-08
4.7606e-08
4.74145e-08
4.72565e-08
4.70836e-08
4.69443e-08
4.67898e-08
4.66653e-08
4.65252e-08
4.64181e-08
4.62912e-08
4.61956e-08
4.60779e-08
4.59958e-08
4.58935e-08
4.58159e-08
4.57247e-08
4.56551e-08
4.55657e-08
4.55086e-08
4.54239e-08
4.5372e-08
4.52937e-08
4.52458e-08
4.51723e-08
4.51242e-08
4.50649e-08
4.50188e-08
4.4963e-08
4.49173e-08
4.48671e-08
4.48236e-08
4.47762e-08
4.47343e-08
4.469e-08
4.46507e-08
4.46105e-08
4.45732e-08
4.45359e-08
4.45003e-08
4.44677e-08
4.44349e-08
4.44096e-08
4.43809e-08
4.43596e-08
4.43336e-08
4.43139e-08
4.42866e-08
4.42654e-08
4.4231e-08
4.42101e-08
4.4693e-08
3.53326e-06
4.08376e-08
1.24674e-07
1.23206e-07
1.18726e-07
1.12237e-07
1.05197e-07
9.85389e-08
9.25777e-08
8.74007e-08
8.29138e-08
7.90561e-08
7.57006e-08
7.27985e-08
7.02441e-08
6.8018e-08
6.60326e-08
6.42887e-08
6.27139e-08
6.13228e-08
6.00519e-08
5.89247e-08
5.78827e-08
5.69566e-08
5.60911e-08
5.53202e-08
5.45921e-08
5.39436e-08
5.33257e-08
5.27757e-08
5.22447e-08
5.17753e-08
5.13173e-08
5.09129e-08
5.05135e-08
5.01636e-08
4.98143e-08
4.95108e-08
4.92034e-08
4.89387e-08
4.86672e-08
4.84351e-08
4.81935e-08
4.79894e-08
4.77728e-08
4.75934e-08
4.74005e-08
4.72415e-08
4.70674e-08
4.69271e-08
4.67715e-08
4.66461e-08
4.65049e-08
4.6397e-08
4.62692e-08
4.61729e-08
4.60543e-08
4.59714e-08
4.58684e-08
4.57901e-08
4.56981e-08
4.56281e-08
4.5538e-08
4.54804e-08
4.53951e-08
4.53429e-08
4.5264e-08
4.52159e-08
4.51417e-08
4.50935e-08
4.50336e-08
4.49871e-08
4.49311e-08
4.4885e-08
4.48345e-08
4.47907e-08
4.4743e-08
4.47008e-08
4.4656e-08
4.46164e-08
4.45757e-08
4.45382e-08
4.45004e-08
4.44645e-08
4.44315e-08
4.43982e-08
4.43722e-08
4.43427e-08
4.43211e-08
4.42945e-08
4.42745e-08
4.42466e-08
4.42252e-08
4.41901e-08
4.41693e-08
4.46654e-08
3.54026e-06
4.32385e-08
1.24665e-07
1.2322e-07
1.18796e-07
1.12361e-07
1.05356e-07
9.87139e-08
9.27557e-08
8.75741e-08
8.30784e-08
7.92098e-08
7.58429e-08
7.29293e-08
7.03638e-08
6.81272e-08
6.6132e-08
6.4379e-08
6.27958e-08
6.13969e-08
6.01187e-08
5.8985e-08
5.79368e-08
5.70051e-08
5.61343e-08
5.53587e-08
5.4626e-08
5.39734e-08
5.33515e-08
5.2798e-08
5.22636e-08
5.17911e-08
5.133e-08
5.0923e-08
5.05209e-08
5.01687e-08
4.9817e-08
4.95115e-08
4.9202e-08
4.89354e-08
4.86619e-08
4.84282e-08
4.81849e-08
4.79793e-08
4.77612e-08
4.75805e-08
4.73862e-08
4.72261e-08
4.70507e-08
4.69093e-08
4.67525e-08
4.66262e-08
4.64839e-08
4.63751e-08
4.62463e-08
4.61492e-08
4.60297e-08
4.5946e-08
4.58421e-08
4.57632e-08
4.56703e-08
4.55999e-08
4.55089e-08
4.54508e-08
4.5365e-08
4.53124e-08
4.52331e-08
4.51845e-08
4.51097e-08
4.50614e-08
4.50008e-08
4.4954e-08
4.48975e-08
4.48512e-08
4.48003e-08
4.47563e-08
4.47081e-08
4.46656e-08
4.46204e-08
4.45804e-08
4.45392e-08
4.45014e-08
4.44632e-08
4.4427e-08
4.43935e-08
4.43598e-08
4.43329e-08
4.43027e-08
4.42806e-08
4.42535e-08
4.42331e-08
4.42046e-08
4.41829e-08
4.41471e-08
4.41265e-08
4.4636e-08
3.54346e-06
4.58842e-08
1.24655e-07
1.23235e-07
1.18869e-07
1.12491e-07
1.05523e-07
9.8898e-08
9.29435e-08
8.77572e-08
8.32525e-08
7.93727e-08
7.59938e-08
7.30682e-08
7.04911e-08
6.82434e-08
6.62379e-08
6.44753e-08
6.28831e-08
6.1476e-08
6.01902e-08
5.90495e-08
5.79947e-08
5.70571e-08
5.61807e-08
5.54e-08
5.46625e-08
5.40056e-08
5.33795e-08
5.28222e-08
5.22842e-08
5.18084e-08
5.13442e-08
5.09343e-08
5.05294e-08
5.01747e-08
4.98205e-08
4.95127e-08
4.9201e-08
4.89324e-08
4.86569e-08
4.84215e-08
4.81764e-08
4.79693e-08
4.77495e-08
4.75674e-08
4.73717e-08
4.72102e-08
4.70335e-08
4.6891e-08
4.67329e-08
4.66057e-08
4.64621e-08
4.63524e-08
4.62225e-08
4.61247e-08
4.60042e-08
4.59196e-08
4.58148e-08
4.57353e-08
4.56414e-08
4.55706e-08
4.54787e-08
4.54201e-08
4.53336e-08
4.52805e-08
4.52007e-08
4.51518e-08
4.50763e-08
4.50278e-08
4.49665e-08
4.49193e-08
4.48625e-08
4.48158e-08
4.47646e-08
4.47203e-08
4.46716e-08
4.46289e-08
4.45831e-08
4.45428e-08
4.4501e-08
4.4463e-08
4.44242e-08
4.43877e-08
4.43536e-08
4.43196e-08
4.42918e-08
4.4261e-08
4.42383e-08
4.42106e-08
4.41897e-08
4.41605e-08
4.41386e-08
4.41022e-08
4.40815e-08
4.46047e-08
3.54197e-06
4.87862e-08
1.24645e-07
1.2325e-07
1.18945e-07
1.12626e-07
1.05698e-07
9.90913e-08
9.3141e-08
8.79503e-08
8.34363e-08
7.9545e-08
7.61536e-08
7.32154e-08
7.0626e-08
6.83668e-08
6.63504e-08
6.45777e-08
6.29761e-08
6.15603e-08
6.02665e-08
5.91183e-08
5.80567e-08
5.71128e-08
5.62305e-08
5.54444e-08
5.47019e-08
5.40403e-08
5.34098e-08
5.28486e-08
5.23066e-08
5.18274e-08
5.13598e-08
5.09469e-08
5.05391e-08
5.01816e-08
4.98248e-08
4.95147e-08
4.92006e-08
4.89299e-08
4.86523e-08
4.8415e-08
4.8168e-08
4.79593e-08
4.77378e-08
4.75542e-08
4.73568e-08
4.71941e-08
4.70159e-08
4.68722e-08
4.67128e-08
4.65845e-08
4.64397e-08