/*--------------------------------*- C++ -*----------------------------------*\
| =========                 |                                                 |
| \\      /  F ield         | OpenFOAM: The Open Source CFD Toolbox           |
|  \\    /   O peration     | Version:  v2012                                 |
|   \\  /    A nd           | Website:  www.openfoam.com                      |
|    \\/     M anipulation  |                                                 |
\*---------------------------------------------------------------------------*/
FoamFile
{
    version     2.0;
    format      ascii;
    class       volVectorField;
    location    "39";
    object      wallShearStress;
}
// * * * * * * * * * * * * * * * * * * * * * * * * * * * * * * * * * * * * * //

dimensions      [0 2 -2 0 0 0 0];


internalField   uniform (0 0 0);

boundaryField
{
    inlet
    {
        type            calculated;
        value           uniform (0 0 0);
    }
    outlet
    {
        type            calculated;
        value           uniform (0 0 0);
    }
    topWall
    {
        type            calculated;
        value           nonuniform List<vector> 
545
(
(6.62748e-08 -4.66461e-08 0)
(6.62645e-08 -1.30523e-07 0)
(6.62124e-08 -2.17722e-07 0)
(6.61451e-08 -3.0238e-07 0)
(6.60668e-08 -3.83416e-07 0)
(6.5975e-08 -4.61873e-07 0)
(6.58707e-08 -5.38417e-07 0)
(6.57545e-08 -6.13013e-07 0)
(6.56274e-08 -6.85495e-07 0)
(6.54905e-08 -7.55862e-07 0)
(6.53447e-08 -8.24207e-07 0)
(6.51908e-08 -8.90608e-07 0)
(6.50297e-08 -9.5511e-07 0)
(6.48621e-08 -1.01775e-06 0)
(6.46887e-08 -1.07858e-06 0)
(6.45103e-08 -1.13764e-06 0)
(6.43273e-08 -1.19498e-06 0)
(6.41406e-08 -1.25065e-06 0)
(6.39505e-08 -1.3047e-06 0)
(6.37577e-08 -1.35716e-06 0)
(6.35625e-08 -1.40808e-06 0)
(6.33655e-08 -1.45751e-06 0)
(6.3167e-08 -1.50548e-06 0)
(6.29675e-08 -1.55204e-06 0)
(6.27673e-08 -1.59723e-06 0)
(6.25667e-08 -1.64108e-06 0)
(6.23661e-08 -1.68365e-06 0)
(6.21657e-08 -1.72496e-06 0)
(6.19658e-08 -1.76505e-06 0)
(6.17667e-08 -1.80395e-06 0)
(6.15685e-08 -1.84171e-06 0)
(6.13715e-08 -1.87836e-06 0)
(6.11759e-08 -1.91392e-06 0)
(6.09818e-08 -1.94844e-06 0)
(6.07893e-08 -1.98194e-06 0)
(6.05987e-08 -2.01446e-06 0)
(6.041e-08 -2.04602e-06 0)
(6.02235e-08 -2.07665e-06 0)
(6.0039e-08 -2.10638e-06 0)
(5.98568e-08 -2.13524e-06 0)
(5.9677e-08 -2.16325e-06 0)
(5.94995e-08 -2.19044e-06 0)
(5.93245e-08 -2.21684e-06 0)
(5.91521e-08 -2.24247e-06 0)
(5.89822e-08 -2.26735e-06 0)
(5.88149e-08 -2.2915e-06 0)
(5.86502e-08 -2.31495e-06 0)
(5.84882e-08 -2.33772e-06 0)
(5.83288e-08 -2.35983e-06 0)
(5.81721e-08 -2.3813e-06 0)
(5.80181e-08 -2.40214e-06 0)
(5.78669e-08 -2.42238e-06 0)
(5.77183e-08 -2.44204e-06 0)
(5.75723e-08 -2.46113e-06 0)
(5.74291e-08 -2.47967e-06 0)
(5.72885e-08 -2.49767e-06 0)
(5.71506e-08 -2.51516e-06 0)
(5.70152e-08 -2.53215e-06 0)
(5.68825e-08 -2.54865e-06 0)
(5.67524e-08 -2.56468e-06 0)
(5.66248e-08 -2.58025e-06 0)
(5.64997e-08 -2.59537e-06 0)
(5.63772e-08 -2.61007e-06 0)
(5.62571e-08 -2.62435e-06 0)
(5.61394e-08 -2.63822e-06 0)
(5.60241e-08 -2.65169e-06 0)
(5.59112e-08 -2.66479e-06 0)
(5.58006e-08 -2.67751e-06 0)
(5.56924e-08 -2.68988e-06 0)
(5.55863e-08 -2.70189e-06 0)
(5.54827e-08 -2.71357e-06 0)
(5.538e-08 -2.7249e-06 0)
(5.52808e-08 -2.7358e-06 0)
(5.51863e-08 -2.74638e-06 0)
(5.50925e-08 -2.75684e-06 0)
(5.4999e-08 -2.76724e-06 0)
(5.49056e-08 -2.7776e-06 0)
(5.48123e-08 -2.78789e-06 0)
(5.47191e-08 -2.79812e-06 0)
(5.4626e-08 -2.80828e-06 0)
(5.4533e-08 -2.81837e-06 0)
(5.44401e-08 -2.82841e-06 0)
(5.43473e-08 -2.83838e-06 0)
(5.42547e-08 -2.84828e-06 0)
(5.41621e-08 -2.85813e-06 0)
(5.40696e-08 -2.86791e-06 0)
(5.39773e-08 -2.87763e-06 0)
(5.38851e-08 -2.8873e-06 0)
(5.3793e-08 -2.8969e-06 0)
(5.37011e-08 -2.90644e-06 0)
(5.36092e-08 -2.91592e-06 0)
(5.35175e-08 -2.92534e-06 0)
(5.34261e-08 -2.9347e-06 0)
(5.33342e-08 -2.94399e-06 0)
(5.32452e-08 -2.95328e-06 0)
(5.3145e-08 -2.96237e-06 0)
(5.30465e-08 -2.97066e-06 0)
(5.29681e-08 -2.97826e-06 0)
(5.28932e-08 -2.98562e-06 0)
(5.28188e-08 -2.99297e-06 0)
(5.27443e-08 -3.00041e-06 0)
(5.26694e-08 -3.00788e-06 0)
(5.25943e-08 -3.01534e-06 0)
(5.25187e-08 -3.0228e-06 0)
(5.24429e-08 -3.03027e-06 0)
(5.23666e-08 -3.03774e-06 0)
(5.22901e-08 -3.04522e-06 0)
(5.22131e-08 -3.05271e-06 0)
(5.21358e-08 -3.0602e-06 0)
(5.20582e-08 -3.0677e-06 0)
(5.19802e-08 -3.07521e-06 0)
(5.19019e-08 -3.08273e-06 0)
(5.18232e-08 -3.09025e-06 0)
(5.17441e-08 -3.09777e-06 0)
(5.16647e-08 -3.1053e-06 0)
(5.15849e-08 -3.11284e-06 0)
(5.15048e-08 -3.12039e-06 0)
(5.14243e-08 -3.12794e-06 0)
(5.13434e-08 -3.13549e-06 0)
(5.12622e-08 -3.14306e-06 0)
(5.11806e-08 -3.15063e-06 0)
(5.10987e-08 -3.1582e-06 0)
(5.10163e-08 -3.16578e-06 0)
(5.09336e-08 -3.17337e-06 0)
(5.08506e-08 -3.18096e-06 0)
(5.07672e-08 -3.18855e-06 0)
(5.06834e-08 -3.19615e-06 0)
(5.05992e-08 -3.20376e-06 0)
(5.05147e-08 -3.21137e-06 0)
(5.04298e-08 -3.21899e-06 0)
(5.03445e-08 -3.22661e-06 0)
(5.02588e-08 -3.23424e-06 0)
(5.01728e-08 -3.24187e-06 0)
(5.00864e-08 -3.24951e-06 0)
(4.99996e-08 -3.25715e-06 0)
(4.99125e-08 -3.2648e-06 0)
(4.98249e-08 -3.27245e-06 0)
(4.9737e-08 -3.28011e-06 0)
(4.96487e-08 -3.28777e-06 0)
(4.95601e-08 -3.29543e-06 0)
(4.9471e-08 -3.3031e-06 0)
(4.93816e-08 -3.31078e-06 0)
(4.92917e-08 -3.31845e-06 0)
(4.92015e-08 -3.32614e-06 0)
(4.9111e-08 -3.33382e-06 0)
(4.902e-08 -3.34151e-06 0)
(4.89286e-08 -3.3492e-06 0)
(4.88369e-08 -3.3569e-06 0)
(4.87447e-08 -3.3646e-06 0)
(4.86522e-08 -3.37231e-06 0)
(4.85593e-08 -3.38001e-06 0)
(4.8466e-08 -3.38772e-06 0)
(4.83723e-08 -3.39544e-06 0)
(4.82783e-08 -3.40316e-06 0)
(4.81838e-08 -3.41088e-06 0)
(4.80889e-08 -3.4186e-06 0)
(4.79937e-08 -3.42633e-06 0)
(4.78981e-08 -3.43406e-06 0)
(4.7802e-08 -3.44179e-06 0)
(4.77056e-08 -3.44952e-06 0)
(4.76088e-08 -3.45726e-06 0)
(4.75115e-08 -3.465e-06 0)
(4.74139e-08 -3.47274e-06 0)
(4.73159e-08 -3.48049e-06 0)
(4.72175e-08 -3.48824e-06 0)
(4.71187e-08 -3.49598e-06 0)
(4.70195e-08 -3.50373e-06 0)
(4.69199e-08 -3.51149e-06 0)
(4.68199e-08 -3.51924e-06 0)
(4.67195e-08 -3.527e-06 0)
(4.66187e-08 -3.53476e-06 0)
(4.65175e-08 -3.54251e-06 0)
(4.64159e-08 -3.55027e-06 0)
(4.63139e-08 -3.55804e-06 0)
(4.62115e-08 -3.5658e-06 0)
(4.61087e-08 -3.57356e-06 0)
(4.60055e-08 -3.58133e-06 0)
(4.59019e-08 -3.58909e-06 0)
(4.57979e-08 -3.59686e-06 0)
(4.56935e-08 -3.60463e-06 0)
(4.55887e-08 -3.61239e-06 0)
(4.54835e-08 -3.62016e-06 0)
(4.53779e-08 -3.62793e-06 0)
(4.52719e-08 -3.6357e-06 0)
(4.51654e-08 -3.64347e-06 0)
(4.50586e-08 -3.65124e-06 0)
(4.49514e-08 -3.659e-06 0)
(4.48438e-08 -3.66677e-06 0)
(4.47357e-08 -3.67454e-06 0)
(4.46273e-08 -3.68231e-06 0)
(4.45184e-08 -3.69007e-06 0)
(4.44092e-08 -3.69784e-06 0)
(4.42996e-08 -3.7056e-06 0)
(4.41895e-08 -3.71337e-06 0)
(4.4079e-08 -3.72113e-06 0)
(4.39682e-08 -3.72889e-06 0)
(4.38569e-08 -3.73665e-06 0)
(4.37452e-08 -3.74441e-06 0)
(4.36332e-08 -3.75217e-06 0)
(4.35207e-08 -3.75992e-06 0)
(4.34078e-08 -3.76768e-06 0)
(4.32945e-08 -3.77543e-06 0)
(4.31808e-08 -3.78318e-06 0)
(4.30667e-08 -3.79093e-06 0)
(4.29522e-08 -3.79867e-06 0)
(4.28373e-08 -3.80642e-06 0)
(4.2722e-08 -3.81416e-06 0)
(4.26063e-08 -3.82189e-06 0)
(4.24902e-08 -3.82963e-06 0)
(4.23737e-08 -3.83736e-06 0)
(4.22568e-08 -3.84509e-06 0)
(4.21395e-08 -3.85281e-06 0)
(4.20218e-08 -3.86053e-06 0)
(4.19037e-08 -3.86825e-06 0)
(4.17852e-08 -3.87597e-06 0)
(4.16663e-08 -3.88368e-06 0)
(4.15469e-08 -3.89139e-06 0)
(4.14272e-08 -3.89909e-06 0)
(4.13071e-08 -3.90679e-06 0)
(4.11866e-08 -3.91448e-06 0)
(4.10657e-08 -3.92217e-06 0)
(4.09444e-08 -3.92986e-06 0)
(4.08228e-08 -3.93754e-06 0)
(4.07007e-08 -3.94522e-06 0)
(4.05782e-08 -3.95289e-06 0)
(4.04553e-08 -3.96055e-06 0)
(4.03321e-08 -3.96822e-06 0)
(4.02084e-08 -3.97587e-06 0)
(4.00844e-08 -3.98352e-06 0)
(3.99599e-08 -3.99116e-06 0)
(3.98351e-08 -3.9988e-06 0)
(3.97099e-08 -4.00644e-06 0)
(3.95843e-08 -4.01406e-06 0)
(3.94583e-08 -4.02168e-06 0)
(3.93319e-08 -4.02929e-06 0)
(3.92051e-08 -4.0369e-06 0)
(3.9078e-08 -4.0445e-06 0)
(3.89505e-08 -4.0521e-06 0)
(3.88226e-08 -4.05968e-06 0)
(3.86943e-08 -4.06726e-06 0)
(3.85656e-08 -4.07483e-06 0)
(3.84366e-08 -4.0824e-06 0)
(3.83071e-08 -4.08995e-06 0)
(3.81773e-08 -4.0975e-06 0)
(3.80471e-08 -4.10504e-06 0)
(3.79166e-08 -4.11258e-06 0)
(3.77857e-08 -4.1201e-06 0)
(3.76544e-08 -4.12762e-06 0)
(3.75227e-08 -4.13512e-06 0)
(3.73907e-08 -4.14262e-06 0)
(3.72583e-08 -4.15011e-06 0)
(3.71255e-08 -4.15759e-06 0)
(3.69924e-08 -4.16506e-06 0)
(3.68589e-08 -4.17253e-06 0)
(3.67251e-08 -4.17998e-06 0)
(3.65909e-08 -4.18742e-06 0)
(3.64563e-08 -4.19486e-06 0)
(3.63214e-08 -4.20228e-06 0)
(3.61861e-08 -4.20969e-06 0)
(3.60505e-08 -4.2171e-06 0)
(3.59145e-08 -4.22449e-06 0)
(3.57782e-08 -4.23187e-06 0)
(3.56415e-08 -4.23924e-06 0)
(3.55045e-08 -4.2466e-06 0)
(3.53671e-08 -4.25395e-06 0)
(3.52295e-08 -4.26129e-06 0)
(3.50912e-08 -4.2686e-06 0)
(3.49546e-08 -4.27596e-06 0)
(3.4812e-08 -4.28319e-06 0)
(3.46684e-08 -4.29005e-06 0)
(3.45385e-08 -4.29668e-06 0)
(3.4414e-08 -4.30319e-06 0)
(3.42883e-08 -4.30972e-06 0)
(3.41616e-08 -4.31636e-06 0)
(3.40334e-08 -4.32305e-06 0)
(3.39038e-08 -4.32979e-06 0)
(3.37728e-08 -4.33656e-06 0)
(3.36403e-08 -4.34338e-06 0)
(3.35063e-08 -4.35025e-06 0)
(3.33709e-08 -4.35717e-06 0)
(3.3234e-08 -4.36413e-06 0)
(3.30956e-08 -4.37114e-06 0)
(3.29557e-08 -4.37819e-06 0)
(3.28143e-08 -4.3853e-06 0)
(3.26713e-08 -4.39245e-06 0)
(3.25268e-08 -4.39964e-06 0)
(3.23807e-08 -4.40688e-06 0)
(3.22331e-08 -4.41417e-06 0)
(3.20839e-08 -4.4215e-06 0)
(3.19331e-08 -4.42887e-06 0)
(3.17806e-08 -4.43629e-06 0)
(3.16266e-08 -4.44376e-06 0)
(3.1471e-08 -4.45127e-06 0)
(3.13137e-08 -4.45882e-06 0)
(3.11547e-08 -4.46642e-06 0)
(3.09941e-08 -4.47406e-06 0)
(3.08318e-08 -4.48174e-06 0)
(3.06678e-08 -4.48947e-06 0)
(3.05021e-08 -4.49723e-06 0)
(3.03347e-08 -4.50504e-06 0)
(3.01656e-08 -4.51289e-06 0)
(2.99948e-08 -4.52079e-06 0)
(2.98222e-08 -4.52872e-06 0)
(2.96479e-08 -4.53669e-06 0)
(2.94718e-08 -4.5447e-06 0)
(2.9294e-08 -4.55275e-06 0)
(2.91143e-08 -4.56083e-06 0)
(2.89329e-08 -4.56896e-06 0)
(2.87497e-08 -4.57712e-06 0)
(2.85646e-08 -4.58531e-06 0)
(2.83778e-08 -4.59354e-06 0)
(2.81891e-08 -4.60181e-06 0)
(2.79986e-08 -4.61011e-06 0)
(2.78063e-08 -4.61844e-06 0)
(2.76121e-08 -4.62681e-06 0)
(2.74161e-08 -4.6352e-06 0)
(2.72182e-08 -4.64363e-06 0)
(2.70184e-08 -4.65209e-06 0)
(2.68168e-08 -4.66057e-06 0)
(2.66133e-08 -4.66908e-06 0)
(2.64079e-08 -4.67762e-06 0)
(2.62006e-08 -4.68619e-06 0)
(2.59915e-08 -4.69477e-06 0)
(2.57804e-08 -4.70339e-06 0)
(2.55675e-08 -4.71202e-06 0)
(2.53526e-08 -4.72068e-06 0)
(2.51359e-08 -4.72935e-06 0)
(2.49173e-08 -4.73805e-06 0)
(2.46968e-08 -4.74676e-06 0)
(2.44744e-08 -4.75548e-06 0)
(2.425e-08 -4.76422e-06 0)
(2.40239e-08 -4.77298e-06 0)
(2.37958e-08 -4.78174e-06 0)
(2.35658e-08 -4.79052e-06 0)
(2.33339e-08 -4.79931e-06 0)
(2.31002e-08 -4.8081e-06 0)
(2.28646e-08 -4.8169e-06 0)
(2.26271e-08 -4.8257e-06 0)
(2.23878e-08 -4.8345e-06 0)
(2.21466e-08 -4.84331e-06 0)
(2.19036e-08 -4.85211e-06 0)
(2.16588e-08 -4.86092e-06 0)
(2.14121e-08 -4.86971e-06 0)
(2.11637e-08 -4.8785e-06 0)
(2.09134e-08 -4.88728e-06 0)
(2.06614e-08 -4.89605e-06 0)
(2.04077e-08 -4.9048e-06 0)
(2.01521e-08 -4.91355e-06 0)
(1.98949e-08 -4.92227e-06 0)
(1.9636e-08 -4.93098e-06 0)
(1.93753e-08 -4.93966e-06 0)
(1.9113e-08 -4.94833e-06 0)
(1.88491e-08 -4.95696e-06 0)
(1.85835e-08 -4.96557e-06 0)
(1.83164e-08 -4.97414e-06 0)
(1.80477e-08 -4.98269e-06 0)
(1.77774e-08 -4.99119e-06 0)
(1.75057e-08 -4.99967e-06 0)
(1.72325e-08 -5.0081e-06 0)
(1.69578e-08 -5.01649e-06 0)
(1.66817e-08 -5.02482e-06 0)
(1.64043e-08 -5.03312e-06 0)
(1.61255e-08 -5.04136e-06 0)
(1.58454e-08 -5.04955e-06 0)
(1.55641e-08 -5.05768e-06 0)
(1.52815e-08 -5.06575e-06 0)
(1.49978e-08 -5.07376e-06 0)
(1.47129e-08 -5.08171e-06 0)
(1.4427e-08 -5.08958e-06 0)
(1.414e-08 -5.09739e-06 0)
(1.3852e-08 -5.10511e-06 0)
(1.35631e-08 -5.11277e-06 0)
(1.32733e-08 -5.12034e-06 0)
(1.29827e-08 -5.12783e-06 0)
(1.26913e-08 -5.13523e-06 0)
(1.23992e-08 -5.14254e-06 0)
(1.21064e-08 -5.14976e-06 0)
(1.18131e-08 -5.15688e-06 0)
(1.15192e-08 -5.1639e-06 0)
(1.12248e-08 -5.17083e-06 0)
(1.09301e-08 -5.17763e-06 0)
(1.0635e-08 -5.18434e-06 0)
(1.03396e-08 -5.19093e-06 0)
(1.00441e-08 -5.1974e-06 0)
(9.74843e-09 -5.20375e-06 0)
(9.45273e-09 -5.20998e-06 0)
(9.15704e-09 -5.21608e-06 0)
(8.86147e-09 -5.22206e-06 0)
(8.56606e-09 -5.22789e-06 0)
(8.27094e-09 -5.2336e-06 0)
(7.97615e-09 -5.23915e-06 0)
(7.68181e-09 -5.24457e-06 0)
(7.38796e-09 -5.24984e-06 0)
(7.09473e-09 -5.25496e-06 0)
(6.80216e-09 -5.25992e-06 0)
(6.51039e-09 -5.26473e-06 0)
(6.21946e-09 -5.26937e-06 0)
(5.92951e-09 -5.27385e-06 0)
(5.64058e-09 -5.27815e-06 0)
(5.35281e-09 -5.2823e-06 0)
(5.06625e-09 -5.28626e-06 0)
(4.78103e-09 -5.29005e-06 0)
(4.49722e-09 -5.29365e-06 0)
(4.21495e-09 -5.29708e-06 0)
(3.93427e-09 -5.3003e-06 0)
(3.65532e-09 -5.30335e-06 0)
(3.37817e-09 -5.30619e-06 0)
(3.10294e-09 -5.30885e-06 0)
(2.82971e-09 -5.31129e-06 0)
(2.5586e-09 -5.31354e-06 0)
(2.28969e-09 -5.31558e-06 0)
(2.0231e-09 -5.31742e-06 0)
(1.75892e-09 -5.31903e-06 0)
(1.49726e-09 -5.32045e-06 0)
(1.2382e-09 -5.32163e-06 0)
(9.81866e-10 -5.32261e-06 0)
(7.28342e-10 -5.32335e-06 0)
(4.77736e-10 -5.32389e-06 0)
(2.30142e-10 -5.32418e-06 0)
(-1.43368e-11 -5.32426e-06 0)
(-2.55605e-10 -5.3241e-06 0)
(-4.93568e-10 -5.32372e-06 0)
(-7.28127e-10 -5.32308e-06 0)
(-9.59193e-10 -5.32224e-06 0)
(-1.18667e-09 -5.32113e-06 0)
(-1.41047e-09 -5.31981e-06 0)
(-1.63051e-09 -5.31823e-06 0)
(-1.8467e-09 -5.31643e-06 0)
(-2.05895e-09 -5.31436e-06 0)
(-2.2672e-09 -5.31208e-06 0)
(-2.47135e-09 -5.30953e-06 0)
(-2.67134e-09 -5.30675e-06 0)
(-2.86709e-09 -5.30372e-06 0)
(-3.05853e-09 -5.30046e-06 0)
(-3.24558e-09 -5.29693e-06 0)
(-3.42821e-09 -5.29318e-06 0)
(-3.60631e-09 -5.28916e-06 0)
(-3.77987e-09 -5.28493e-06 0)
(-3.94879e-09 -5.28042e-06 0)
(-4.11304e-09 -5.2757e-06 0)
(-4.27254e-09 -5.27071e-06 0)
(-4.42728e-09 -5.2655e-06 0)
(-4.57716e-09 -5.26003e-06 0)
(-4.72217e-09 -5.25434e-06 0)
(-4.86222e-09 -5.24839e-06 0)
(-4.9973e-09 -5.24224e-06 0)
(-5.1273e-09 -5.23581e-06 0)
(-5.2523e-09 -5.22921e-06 0)
(-5.37224e-09 -5.22227e-06 0)
(-5.48844e-09 -5.21519e-06 0)
(-5.60545e-09 -5.20714e-06 0)
(-5.72535e-09 -5.19793e-06 0)
(-5.84167e-09 -5.18848e-06 0)
(-5.94964e-09 -5.17894e-06 0)
(-6.04943e-09 -5.16919e-06 0)
(-6.14122e-09 -5.15931e-06 0)
(-6.22514e-09 -5.14926e-06 0)
(-6.30149e-09 -5.13911e-06 0)
(-6.37043e-09 -5.12881e-06 0)
(-6.43231e-09 -5.11844e-06 0)
(-6.48729e-09 -5.10794e-06 0)
(-6.53569e-09 -5.0974e-06 0)
(-6.57766e-09 -5.08674e-06 0)
(-6.61353e-09 -5.07606e-06 0)
(-6.64342e-09 -5.06529e-06 0)
(-6.66764e-09 -5.05452e-06 0)
(-6.6863e-09 -5.04367e-06 0)
(-6.69971e-09 -5.03283e-06 0)
(-6.70796e-09 -5.02194e-06 0)
(-6.71133e-09 -5.01108e-06 0)
(-6.70989e-09 -5.00017e-06 0)
(-6.70394e-09 -4.98932e-06 0)
(-6.69351e-09 -4.97844e-06 0)
(-6.67889e-09 -4.96762e-06 0)
(-6.66011e-09 -4.95678e-06 0)
(-6.63742e-09 -4.94602e-06 0)
(-6.61086e-09 -4.93526e-06 0)
(-6.58066e-09 -4.92459e-06 0)
(-6.54685e-09 -4.91392e-06 0)
(-6.50965e-09 -4.90336e-06 0)
(-6.46907e-09 -4.89282e-06 0)
(-6.42534e-09 -4.88239e-06 0)
(-6.37845e-09 -4.87199e-06 0)
(-6.32861e-09 -4.86171e-06 0)
(-6.27582e-09 -4.85147e-06 0)
(-6.22027e-09 -4.84136e-06 0)
(-6.16194e-09 -4.83131e-06 0)
(-6.10104e-09 -4.82139e-06 0)
(-6.03754e-09 -4.81153e-06 0)
(-5.97162e-09 -4.80181e-06 0)
(-5.90325e-09 -4.79217e-06 0)
(-5.83262e-09 -4.78268e-06 0)
(-5.75969e-09 -4.77326e-06 0)
(-5.68462e-09 -4.764e-06 0)
(-5.60739e-09 -4.75483e-06 0)
(-5.52814e-09 -4.74583e-06 0)
(-5.44686e-09 -4.73691e-06 0)
(-5.36367e-09 -4.72817e-06 0)
(-5.27856e-09 -4.71952e-06 0)
(-5.19165e-09 -4.71106e-06 0)
(-5.10292e-09 -4.70269e-06 0)
(-5.01249e-09 -4.69451e-06 0)
(-4.92033e-09 -4.68644e-06 0)
(-4.82657e-09 -4.67856e-06 0)
(-4.73116e-09 -4.67079e-06 0)
(-4.63423e-09 -4.66322e-06 0)
(-4.53574e-09 -4.65577e-06 0)
(-4.43581e-09 -4.64851e-06 0)
(-4.3344e-09 -4.64139e-06 0)
(-4.23161e-09 -4.63446e-06 0)
(-4.12743e-09 -4.62766e-06 0)
(-4.02195e-09 -4.62107e-06 0)
(-3.91514e-09 -4.61462e-06 0)
(-3.8071e-09 -4.60838e-06 0)
(-3.69781e-09 -4.60228e-06 0)
(-3.58736e-09 -4.59638e-06 0)
(-3.47573e-09 -4.59064e-06 0)
(-3.36301e-09 -4.58511e-06 0)
(-3.24918e-09 -4.57973e-06 0)
(-3.13432e-09 -4.57457e-06 0)
(-3.01843e-09 -4.56956e-06 0)
(-2.90157e-09 -4.56477e-06 0)
(-2.78376e-09 -4.56015e-06 0)
(-2.66504e-09 -4.55574e-06 0)
(-2.54544e-09 -4.5515e-06 0)
(-2.425e-09 -4.54747e-06 0)
(-2.30374e-09 -4.54362e-06 0)
(-2.18171e-09 -4.53999e-06 0)
(-2.05893e-09 -4.53654e-06 0)
(-1.93544e-09 -4.5333e-06 0)
(-1.81126e-09 -4.53025e-06 0)
(-1.68644e-09 -4.52741e-06 0)
(-1.56101e-09 -4.52476e-06 0)
(-1.43501e-09 -4.52233e-06 0)
(-1.30849e-09 -4.52009e-06 0)
(-1.18153e-09 -4.51809e-06 0)
(-1.0542e-09 -4.51617e-06 0)
(-9.2664e-10 -4.51488e-06 0)
(-7.98907e-10 -4.51242e-06 0)
(-6.71434e-10 -4.51464e-06 0)
(-5.43428e-10 -4.50192e-06 0)
(-4.17716e-10 -4.53776e-06 0)
(-2.84647e-10 -4.40136e-06 0)
(-1.74472e-10 -4.76248e-06 0)
(-6.80494e-11 -4.15938e-06 0)
)
;
    }
    bottomWall
    {
        type            calculated;
        value           nonuniform List<vector> 
449
(
(-52.7355 -0.955957 0)
(-34.7608 -0.00279966 0)
(-34.3704 -0.000255151 0)
(-33.005 -0.000364214 0)
(-31.8769 -0.000315844 0)
(-30.8388 -0.000284674 0)
(-29.9204 -0.000249608 0)
(-29.1197 -0.000217634 0)
(-28.4182 -0.000191027 0)
(-27.7981 -0.000169232 0)
(-27.2449 -0.00015119 0)
(-26.7475 -0.000136059 0)
(-26.2973 -0.000123381 0)
(-25.8863 -0.00011268 0)
(-25.5089 -0.000103453 0)
(-25.1608 -9.54424e-05 0)
(-24.8381 -8.84419e-05 0)
(-24.5378 -8.22904e-05 0)
(-24.257 -7.68684e-05 0)
(-23.9938 -7.2033e-05 0)
(-23.7461 -6.76979e-05 0)
(-23.5124 -6.38034e-05 0)
(-23.2914 -6.02941e-05 0)
(-23.0818 -5.7111e-05 0)
(-22.8825 -5.42175e-05 0)
(-22.6927 -5.15636e-05 0)
(-22.5116 -4.913e-05 0)
(-22.3385 -4.68951e-05 0)
(-22.1727 -4.48324e-05 0)
(-22.0138 -4.29157e-05 0)
(-21.8612 -4.11386e-05 0)
(-21.7144 -3.94855e-05 0)
(-21.5731 -3.79451e-05 0)
(-21.437 -3.65039e-05 0)
(-21.3056 -3.51545e-05 0)
(-21.1788 -3.38917e-05 0)
(-21.0561 -3.27063e-05 0)
(-20.9374 -3.15922e-05 0)
(-20.8224 -3.05479e-05 0)
(-20.7109 -2.95594e-05 0)
(-20.6028 -2.86251e-05 0)
(-20.4977 -2.77429e-05 0)
(-20.3956 -2.69082e-05 0)
(-20.2964 -2.61114e-05 0)
(-20.1998 -2.53485e-05 0)
(-20.1058 -2.46234e-05 0)
(-20.0142 -2.39339e-05 0)
(-19.925 -2.32716e-05 0)
(-19.838 -2.26413e-05 0)
(-19.7531 -2.204e-05 0)
(-19.6703 -2.14628e-05 0)
(-19.5894 -2.09124e-05 0)
(-19.5105 -2.03857e-05 0)
(-19.4333 -1.9881e-05 0)
(-19.3578 -1.93976e-05 0)
(-19.284 -1.89358e-05 0)
(-19.2117 -1.84928e-05 0)
(-19.1409 -1.8069e-05 0)
(-19.0716 -1.76616e-05 0)
(-19.0037 -1.72706e-05 0)
(-18.9371 -1.68951e-05 0)
(-18.8718 -1.65341e-05 0)
(-18.8077 -1.61866e-05 0)
(-18.7449 -1.58522e-05 0)
(-18.6831 -1.55298e-05 0)
(-18.6225 -1.52191e-05 0)
(-18.5629 -1.4919e-05 0)
(-18.5044 -1.46291e-05 0)
(-18.4468 -1.43489e-05 0)
(-18.3902 -1.40775e-05 0)
(-18.3346 -1.38151e-05 0)
(-18.2798 -1.35603e-05 0)
(-18.226 -1.33139e-05 0)
(-18.1729 -1.30746e-05 0)
(-18.1207 -1.28427e-05 0)
(-18.0693 -1.26175e-05 0)
(-18.0187 -1.23989e-05 0)
(-17.9688 -1.21864e-05 0)
(-17.9197 -1.19798e-05 0)
(-17.8713 -1.17792e-05 0)
(-17.8235 -1.15837e-05 0)
(-17.7765 -1.13941e-05 0)
(-17.7301 -1.12089e-05 0)
(-17.6843 -1.10291e-05 0)
(-17.6392 -1.08537e-05 0)
(-17.5947 -1.06824e-05 0)
(-17.5508 -1.05163e-05 0)
(-17.5074 -1.03536e-05 0)
(-17.4646 -1.01956e-05 0)
(-17.4224 -1.00415e-05 0)
(-17.3807 -9.89052e-06 0)
(-17.3396 -9.74387e-06 0)
(-17.2989 -9.60035e-06 0)
(-17.2588 -9.46014e-06 0)
(-17.2191 -9.32399e-06 0)
(-17.1799 -9.19021e-06 0)
(-17.1412 -9.05996e-06 0)
(-17.103 -8.93284e-06 0)
(-17.0651 -8.80818e-06 0)
(-17.0278 -8.68626e-06 0)
(-16.9908 -8.56761e-06 0)
(-16.9543 -8.4507e-06 0)
(-16.9182 -8.33716e-06 0)
(-16.8825 -8.22567e-06 0)
(-16.8471 -8.11674e-06 0)
(-16.8122 -8.00981e-06 0)
(-16.7776 -7.90578e-06 0)
(-16.7434 -7.80322e-06 0)
(-16.7096 -7.70312e-06 0)
(-16.6761 -7.60503e-06 0)
(-16.643 -7.50885e-06 0)
(-16.6102 -7.41434e-06 0)
(-16.5777 -7.32214e-06 0)
(-16.5456 -7.23161e-06 0)
(-16.5138 -7.14286e-06 0)
(-16.4823 -7.05591e-06 0)
(-16.4511 -6.97083e-06 0)
(-16.4202 -6.88714e-06 0)
(-16.3896 -6.80494e-06 0)
(-16.3593 -6.7243e-06 0)
(-16.3293 -6.64519e-06 0)
(-16.2996 -6.56741e-06 0)
(-16.2702 -6.49115e-06 0)
(-16.241 -6.41633e-06 0)
(-16.2121 -6.34269e-06 0)
(-16.1834 -6.27046e-06 0)
(-16.155 -6.19964e-06 0)
(-16.1269 -6.13016e-06 0)
(-16.099 -6.06161e-06 0)
(-16.0714 -5.99469e-06 0)
(-16.044 -5.92847e-06 0)
(-16.0168 -5.86373e-06 0)
(-15.9899 -5.79946e-06 0)
(-15.9632 -5.73679e-06 0)
(-15.9367 -5.6748e-06 0)
(-15.9105 -5.61424e-06 0)
(-15.8844 -5.55431e-06 0)
(-15.8586 -5.49582e-06 0)
(-15.833 -5.43798e-06 0)
(-15.8076 -5.38141e-06 0)
(-15.7824 -5.32527e-06 0)
(-15.7575 -5.27058e-06 0)
(-15.7327 -5.21619e-06 0)
(-15.7081 -5.16311e-06 0)
(-15.6837 -5.11029e-06 0)
(-15.6595 -5.05883e-06 0)
(-15.6354 -5.00764e-06 0)
(-15.6116 -4.95752e-06 0)
(-15.588 -4.90787e-06 0)
(-15.5645 -4.8593e-06 0)
(-15.5412 -4.81143e-06 0)
(-15.5181 -4.76412e-06 0)
(-15.4951 -4.71782e-06 0)
(-15.4724 -4.67196e-06 0)
(-15.4497 -4.62707e-06 0)
(-15.4273 -4.58237e-06 0)
(-15.405 -4.53896e-06 0)
(-15.3829 -4.49559e-06 0)
(-15.3609 -4.45324e-06 0)
(-15.3391 -4.41107e-06 0)
(-15.3175 -4.37002e-06 0)
(-15.296 -4.32893e-06 0)
(-15.2746 -4.28902e-06 0)
(-15.2534 -4.24896e-06 0)
(-15.2324 -4.21007e-06 0)
(-15.2115 -4.17122e-06 0)
(-15.1907 -4.13368e-06 0)
(-15.17 -4.09586e-06 0)
(-15.1496 -4.05932e-06 0)
(-15.1292 -4.02245e-06 0)
(-15.109 -3.98691e-06 0)
(-15.0889 -3.95083e-06 0)
(-15.0689 -3.91562e-06 0)
(-15.0502 -3.88718e-06 0)
(-15.0326 -3.86008e-06 0)
(-15.0149 -3.82738e-06 0)
(-14.9972 -3.79578e-06 0)
(-14.9794 -3.76442e-06 0)
(-14.9617 -3.73341e-06 0)
(-14.9438 -3.70266e-06 0)
(-14.9259 -3.67233e-06 0)
(-14.908 -3.64181e-06 0)
(-14.89 -3.61168e-06 0)
(-14.8719 -3.58154e-06 0)
(-14.8539 -3.55174e-06 0)
(-14.8358 -3.52189e-06 0)
(-14.8176 -3.4923e-06 0)
(-14.7994 -3.46283e-06 0)
(-14.7812 -3.43356e-06 0)
(-14.7629 -3.40452e-06 0)
(-14.7446 -3.37512e-06 0)
(-14.7262 -3.34626e-06 0)
(-14.7078 -3.3173e-06 0)
(-14.6893 -3.2888e-06 0)
(-14.6709 -3.26013e-06 0)
(-14.6523 -3.23193e-06 0)
(-14.6338 -3.20365e-06 0)
(-14.6152 -3.17565e-06 0)
(-14.5965 -3.14762e-06 0)
(-14.5779 -3.11979e-06 0)
(-14.5592 -3.09192e-06 0)
(-14.5404 -3.06434e-06 0)
(-14.5216 -3.03685e-06 0)
(-14.5028 -3.00968e-06 0)
(-14.484 -2.9824e-06 0)
(-14.4651 -2.95554e-06 0)
(-14.4462 -2.92836e-06 0)
(-14.4273 -2.90186e-06 0)
(-14.4083 -2.87511e-06 0)
(-14.3893 -2.84904e-06 0)
(-14.3703 -2.8225e-06 0)
(-14.3512 -2.79659e-06 0)
(-14.3321 -2.77041e-06 0)
(-14.313 -2.74484e-06 0)
(-14.2939 -2.71878e-06 0)
(-14.2747 -2.69323e-06 0)
(-14.2555 -2.66757e-06 0)
(-14.2363 -2.64236e-06 0)
(-14.2171 -2.61722e-06 0)
(-14.1978 -2.59207e-06 0)
(-14.1785 -2.56727e-06 0)
(-14.1592 -2.54247e-06 0)
(-14.1399 -2.51796e-06 0)
(-14.1205 -2.49357e-06 0)
(-14.1011 -2.46926e-06 0)
(-14.0818 -2.4453e-06 0)
(-14.0623 -2.42148e-06 0)
(-14.0429 -2.39738e-06 0)
(-14.0235 -2.37399e-06 0)
(-14.004 -2.3502e-06 0)
(-13.9845 -2.32708e-06 0)
(-13.965 -2.30365e-06 0)
(-13.9455 -2.2807e-06 0)
(-13.926 -2.25765e-06 0)
(-13.9065 -2.23511e-06 0)
(-13.8869 -2.2124e-06 0)
(-13.8674 -2.19013e-06 0)
(-13.8478 -2.16775e-06 0)
(-13.8282 -2.14604e-06 0)
(-13.8086 -2.12393e-06 0)
(-13.789 -2.10228e-06 0)
(-13.7694 -2.08041e-06 0)
(-13.7498 -2.05912e-06 0)
(-13.7301 -2.03747e-06 0)
(-13.7105 -2.01654e-06 0)
(-13.6908 -1.99537e-06 0)
(-13.6712 -1.97466e-06 0)
(-13.6515 -1.95386e-06 0)
(-13.6319 -1.93356e-06 0)
(-13.6122 -1.91301e-06 0)
(-13.5925 -1.89297e-06 0)
(-13.5728 -1.87268e-06 0)
(-13.5532 -1.85286e-06 0)
(-13.5334 -1.83301e-06 0)
(-13.5138 -1.81346e-06 0)
(-13.4941 -1.79399e-06 0)
(-13.4744 -1.77456e-06 0)
(-13.4547 -1.75552e-06 0)
(-13.4351 -1.73637e-06 0)
(-13.4154 -1.7177e-06 0)
(-13.3957 -1.69889e-06 0)
(-13.376 -1.68046e-06 0)
(-13.3564 -1.66187e-06 0)
(-13.3367 -1.64387e-06 0)
(-13.3171 -1.62574e-06 0)
(-13.2974 -1.60799e-06 0)
(-13.2777 -1.59015e-06 0)
(-13.2581 -1.57279e-06 0)
(-13.2385 -1.55516e-06 0)
(-13.2188 -1.53791e-06 0)
(-13.1992 -1.52061e-06 0)
(-13.1796 -1.5039e-06 0)
(-13.16 -1.48694e-06 0)
(-13.1403 -1.47033e-06 0)
(-13.1208 -1.45337e-06 0)
(-13.1012 -1.43733e-06 0)
(-13.0816 -1.4208e-06 0)
(-13.0621 -1.40493e-06 0)
(-13.0425 -1.38883e-06 0)
(-13.023 -1.37326e-06 0)
(-13.0035 -1.35738e-06 0)
(-12.984 -1.34189e-06 0)
(-12.9645 -1.32644e-06 0)
(-12.945 -1.31136e-06 0)
(-12.9255 -1.29612e-06 0)
(-12.9061 -1.28127e-06 0)
(-12.8867 -1.26633e-06 0)
(-12.8673 -1.25193e-06 0)
(-12.8478 -1.23727e-06 0)
(-12.8285 -1.22305e-06 0)
(-12.8091 -1.20862e-06 0)
(-12.7898 -1.19446e-06 0)
(-12.7704 -1.1804e-06 0)
(-12.7511 -1.16669e-06 0)
(-12.7318 -1.15278e-06 0)
(-12.7126 -1.13935e-06 0)
(-12.6933 -1.12577e-06 0)
(-12.6741 -1.11244e-06 0)
(-12.6549 -1.09926e-06 0)
(-12.6357 -1.08603e-06 0)
(-12.6165 -1.07308e-06 0)
(-12.5974 -1.06023e-06 0)
(-12.5783 -1.04736e-06 0)
(-12.5592 -1.03471e-06 0)
(-12.5401 -1.02227e-06 0)
(-12.5211 -1.01014e-06 0)
(-12.5021 -9.9801e-07 0)
(-12.4831 -9.85758e-07 0)
(-12.4641 -9.73849e-07 0)
(-12.4453 -9.61917e-07 0)
(-12.4263 -9.50302e-07 0)
(-12.4075 -9.38657e-07 0)
(-12.3886 -9.27175e-07 0)
(-12.3698 -9.15703e-07 0)
(-12.351 -9.04695e-07 0)
(-12.3323 -8.9355e-07 0)
(-12.3135 -8.8268e-07 0)
(-12.2948 -8.71777e-07 0)
(-12.2761 -8.61154e-07 0)
(-12.2575 -8.50496e-07 0)
(-12.2388 -8.40053e-07 0)
(-12.2203 -8.29507e-07 0)
(-12.2017 -8.19277e-07 0)
(-12.1832 -8.09032e-07 0)
(-12.1647 -7.99059e-07 0)
(-12.1462 -7.88938e-07 0)
(-12.1278 -7.79102e-07 0)
(-12.1094 -7.69228e-07 0)
(-12.0911 -7.59748e-07 0)
(-12.0727 -7.5006e-07 0)
(-12.0544 -7.4064e-07 0)
(-12.0362 -7.31277e-07 0)
(-12.018 -7.22246e-07 0)
(-11.9998 -7.12905e-07 0)
(-11.9816 -7.04031e-07 0)
(-11.9635 -6.95082e-07 0)
(-11.9454 -6.86549e-07 0)
(-11.9273 -6.77666e-07 0)
(-11.9093 -6.69195e-07 0)
(-11.8913 -6.60611e-07 0)
(-11.8734 -6.52202e-07 0)
(-11.8555 -6.43739e-07 0)
(-11.8376 -6.35621e-07 0)
(-11.8198 -6.27444e-07 0)
(-11.802 -6.19377e-07 0)
(-11.7842 -6.11443e-07 0)
(-11.7665 -6.03565e-07 0)
(-11.7488 -5.95782e-07 0)
(-11.7312 -5.88041e-07 0)
(-11.7136 -5.80357e-07 0)
(-11.696 -5.72916e-07 0)
(-11.6785 -5.65332e-07 0)
(-11.661 -5.58031e-07 0)
(-11.6435 -5.50394e-07 0)
(-11.6243 -5.41165e-07 0)
(-11.6032 -5.32314e-07 0)
(-11.5826 -5.24447e-07 0)
(-11.5622 -5.16736e-07 0)
(-11.5422 -5.09069e-07 0)
(-11.5223 -5.0166e-07 0)
(-11.5029 -4.94214e-07 0)
(-11.4837 -4.87139e-07 0)
(-11.4648 -4.80147e-07 0)
(-11.4461 -4.73192e-07 0)
(-11.4277 -4.66542e-07 0)
(-11.4096 -4.60035e-07 0)
(-11.3917 -4.53638e-07 0)
(-11.3741 -4.47396e-07 0)
(-11.3567 -4.41438e-07 0)
(-11.3395 -4.3538e-07 0)
(-11.3227 -4.29635e-07 0)
(-11.3059 -4.23929e-07 0)
(-11.2895 -4.18417e-07 0)
(-11.2732 -4.12977e-07 0)
(-11.2572 -4.07659e-07 0)
(-11.2413 -4.02451e-07 0)
(-11.2257 -3.97346e-07 0)
(-11.2102 -3.92456e-07 0)
(-11.195 -3.87569e-07 0)
(-11.1799 -3.82945e-07 0)
(-11.165 -3.78107e-07 0)
(-11.1503 -3.73627e-07 0)
(-11.1358 -3.69169e-07 0)
(-11.1214 -3.64758e-07 0)
(-11.1072 -3.60423e-07 0)
(-11.0932 -3.56354e-07 0)
(-11.0793 -3.52261e-07 0)
(-11.0656 -3.48266e-07 0)
(-11.0521 -3.44252e-07 0)
(-11.0387 -3.40356e-07 0)
(-11.0255 -3.36573e-07 0)
(-11.0123 -3.32826e-07 0)
(-10.9994 -3.29167e-07 0)
(-10.9866 -3.25566e-07 0)
(-10.9739 -3.22064e-07 0)
(-10.9614 -3.18661e-07 0)
(-10.949 -3.15244e-07 0)
(-10.9367 -3.11898e-07 0)
(-10.9246 -3.08712e-07 0)
(-10.9126 -3.05484e-07 0)
(-10.9007 -3.02418e-07 0)
(-10.8889 -2.99304e-07 0)
(-10.8773 -2.96335e-07 0)
(-10.8657 -2.93363e-07 0)
(-10.8543 -2.90545e-07 0)
(-10.843 -2.87591e-07 0)
(-10.8318 -2.848e-07 0)
(-10.8207 -2.82066e-07 0)
(-10.8097 -2.79364e-07 0)
(-10.7988 -2.76666e-07 0)
(-10.7881 -2.74107e-07 0)
(-10.7774 -2.71451e-07 0)
(-10.7669 -2.69002e-07 0)
(-10.7563 -2.66466e-07 0)
(-10.746 -2.64063e-07 0)
(-10.7357 -2.61549e-07 0)
(-10.7255 -2.59256e-07 0)
(-10.7154 -2.56856e-07 0)
(-10.7054 -2.54662e-07 0)
(-10.6955 -2.52274e-07 0)
(-10.6857 -2.50217e-07 0)
(-10.6759 -2.47998e-07 0)
(-10.6663 -2.45953e-07 0)
(-10.6566 -2.4375e-07 0)
(-10.6472 -2.41908e-07 0)
(-10.6377 -2.39718e-07 0)
(-10.6285 -2.37931e-07 0)
(-10.6191 -2.35818e-07 0)
(-10.61 -2.34097e-07 0)
(-10.6008 -2.32098e-07 0)
(-10.5919 -2.30363e-07 0)
(-10.5827 -2.28379e-07 0)
(-10.574 -2.26758e-07 0)
(-10.565 -2.24906e-07 0)
(-10.5564 -2.23367e-07 0)
(-10.5475 -2.21677e-07 0)
(-10.539 -2.2005e-07 0)
(-10.5303 -2.18792e-07 0)
(-10.5219 -2.16754e-07 0)
(-10.5134 -2.16723e-07 0)
(-10.505 -2.1288e-07 0)
(-10.4967 -2.16679e-07 0)
(-10.488 -2.06347e-07 0)
(-10.4806 -2.22506e-07 0)
(-10.4705 -1.91047e-07 0)
(-10.4657 -2.39961e-07 0)
(-10.4516 -1.60972e-07 0)
(-10.4533 -2.14186e-07 0)
(-10.4345 -2.46997e-07 0)
)
;
    }
    symmetry
    {
        type            symmetryPlane;
    }
    frontAndBack
    {
        type            empty;
    }
}


// ************************************************************************* //
