/*--------------------------------*- C++ -*----------------------------------*\
| =========                 |                                                 |
| \\      /  F ield         | OpenFOAM: The Open Source CFD Toolbox           |
|  \\    /   O peration     | Version:  v2012                                 |
|   \\  /    A nd           | Website:  www.openfoam.com                      |
|    \\/     M anipulation  |                                                 |
\*---------------------------------------------------------------------------*/
FoamFile
{
    version     2.0;
    format      ascii;
    class       volScalarField;
    location    "39";
    object      yPlus;
}
// * * * * * * * * * * * * * * * * * * * * * * * * * * * * * * * * * * * * * //

dimensions      [0 0 0 0 0 0 0];


internalField   uniform 0;

boundaryField
{
    inlet
    {
        type            calculated;
        value           uniform 0;
    }
    outlet
    {
        type            calculated;
        value           uniform 0;
    }
    topWall
    {
        type            calculated;
        value           nonuniform List<scalar> 
545
(
0.149506
0.257834
0.330775
0.388809
0.437934
0.480912
0.519295
0.55406
0.585872
0.615209
0.642428
0.667807
0.691566
0.713883
0.734906
0.754759
0.773547
0.791361
0.808278
0.824367
0.83969
0.8543
0.868246
0.88157
0.894311
0.906506
0.918187
0.929382
0.94012
0.950425
0.96032
0.969827
0.978965
0.987754
0.996209
1.00435
1.01218
1.01973
1.02701
1.03402
1.04078
1.0473
1.05359
1.05966
1.06553
1.07119
1.07665
1.08193
1.08704
1.09197
1.09674
1.10135
1.10581
1.11012
1.1143
1.11834
1.12225
1.12603
1.12969
1.13324
1.13667
1.14
1.14322
1.14634
1.14937
1.1523
1.15514
1.1579
1.16057
1.16316
1.16567
1.1681
1.17043
1.17269
1.17492
1.17714
1.17934
1.18153
1.18369
1.18584
1.18797
1.19008
1.19217
1.19425
1.19632
1.19836
1.20039
1.2024
1.2044
1.20638
1.20835
1.2103
1.21224
1.21416
1.21606
1.21795
1.21965
1.22117
1.2227
1.22422
1.22574
1.22726
1.22878
1.2303
1.23182
1.23333
1.23485
1.23637
1.23789
1.2394
1.24092
1.24243
1.24395
1.24546
1.24697
1.24849
1.25
1.25151
1.25302
1.25453
1.25604
1.25755
1.25906
1.26057
1.26207
1.26358
1.26508
1.26659
1.26809
1.2696
1.2711
1.2726
1.2741
1.2756
1.2771
1.2786
1.2801
1.28159
1.28309
1.28458
1.28608
1.28757
1.28906
1.29055
1.29204
1.29353
1.29502
1.29651
1.29799
1.29948
1.30096
1.30245
1.30393
1.30541
1.30689
1.30837
1.30985
1.31132
1.3128
1.31427
1.31575
1.31722
1.31869
1.32016
1.32163
1.3231
1.32456
1.32603
1.32749
1.32895
1.33041
1.33187
1.33333
1.33479
1.33624
1.3377
1.33915
1.3406
1.34205
1.3435
1.34494
1.34639
1.34783
1.34928
1.35072
1.35216
1.35359
1.35503
1.35646
1.3579
1.35933
1.36076
1.36219
1.36361
1.36504
1.36646
1.36788
1.3693
1.37072
1.37214
1.37355
1.37496
1.37637
1.37778
1.37919
1.38059
1.382
1.3834
1.3848
1.38619
1.38759
1.38898
1.39037
1.39176
1.39315
1.39454
1.39592
1.3973
1.39868
1.40006
1.40143
1.4028
1.40417
1.40554
1.40691
1.40827
1.40963
1.41099
1.41235
1.4137
1.41506
1.41641
1.41775
1.4191
1.42044
1.42178
1.42312
1.42446
1.42579
1.42712
1.42845
1.42977
1.4311
1.43242
1.43373
1.43505
1.43636
1.43767
1.43898
1.44028
1.44158
1.44288
1.44418
1.44547
1.44676
1.44805
1.44934
1.45062
1.4519
1.45317
1.45445
1.45572
1.45699
1.45825
1.45951
1.46077
1.46202
1.46328
1.46453
1.4657
1.46681
1.46793
1.46905
1.47018
1.47132
1.47246
1.47362
1.47478
1.47594
1.47712
1.4783
1.47948
1.48068
1.48188
1.48308
1.4843
1.48552
1.48675
1.48798
1.48922
1.49047
1.49172
1.49298
1.49425
1.49552
1.4968
1.49809
1.49938
1.50068
1.50198
1.50329
1.5046
1.50592
1.50725
1.50858
1.50991
1.51125
1.5126
1.51395
1.5153
1.51666
1.51803
1.5194
1.52077
1.52215
1.52353
1.52491
1.5263
1.52769
1.52909
1.53049
1.53189
1.53329
1.5347
1.5361
1.53752
1.53893
1.54034
1.54176
1.54318
1.54459
1.54601
1.54743
1.54885
1.55027
1.55169
1.55311
1.55453
1.55595
1.55737
1.55878
1.5602
1.56161
1.56302
1.56442
1.56583
1.56723
1.56862
1.57002
1.57141
1.57279
1.57417
1.57554
1.57691
1.57827
1.57963
1.58098
1.58232
1.58365
1.58498
1.5863
1.58761
1.58891
1.5902
1.59148
1.59275
1.59401
1.59526
1.59649
1.59772
1.59893
1.60013
1.60131
1.60249
1.60364
1.60479
1.60591
1.60702
1.60812
1.6092
1.61026
1.6113
1.61232
1.61333
1.61432
1.61529
1.61623
1.61716
1.61806
1.61895
1.61981
1.62065
1.62146
1.62225
1.62302
1.62376
1.62448
1.62517
1.62583
1.62647
1.62708
1.62767
1.62822
1.62875
1.62925
1.62972
1.63016
1.63057
1.63094
1.63129
1.6316
1.63189
1.63214
1.63235
1.63254
1.63269
1.6328
1.63289
1.63293
1.63295
1.63292
1.63287
1.63277
1.63264
1.63247
1.63227
1.63203
1.63175
1.63144
1.63109
1.6307
1.63027
1.62981
1.62931
1.62877
1.62819
1.62758
1.62693
1.62623
1.62551
1.62474
1.62394
1.62309
1.62222
1.6213
1.62035
1.61936
1.61834
1.61727
1.61618
1.61491
1.61349
1.61203
1.61055
1.60903
1.60749
1.60593
1.60435
1.60274
1.60112
1.59948
1.59782
1.59615
1.59448
1.59279
1.59109
1.58938
1.58768
1.58596
1.58424
1.58252
1.5808
1.57908
1.57736
1.57564
1.57393
1.57222
1.57052
1.56882
1.56713
1.56545
1.56378
1.56211
1.56046
1.55882
1.55719
1.55558
1.55398
1.55239
1.55082
1.54926
1.54773
1.54621
1.54471
1.54322
1.54176
1.54031
1.53889
1.53748
1.5361
1.53474
1.5334
1.53208
1.53079
1.52952
1.52828
1.52706
1.52587
1.5247
1.52356
1.52245
1.52136
1.5203
1.51927
1.51826
1.51729
1.51634
1.51543
1.51454
1.51369
1.51286
1.51207
1.5113
1.51057
1.50987
1.5092
1.50856
1.50796
1.50738
1.50685
1.50634
1.50587
1.50543
1.50502
1.50465
1.50431
1.50401
1.50374
1.50351
1.50331
1.50314
1.50301
1.50291
1.50286
1.5028
)
;
    }
    bottomWall
    {
        type            calculated;
        value           nonuniform List<scalar> 
449
(
0.0027381
0.00480316
0.00537731
0.00532974
0.0052584
0.00516219
0.00506466
0.00497338
0.00488962
0.00481308
0.00474304
0.00467883
0.00461974
0.00456505
0.00451422
0.00446685
0.00442253
0.00438097
0.00434182
0.00430487
0.00426989
0.00423672
0.00420518
0.00417512
0.00414642
0.00411897
0.00409267
0.00406744
0.0040432
0.00401988
0.00399742
0.00397576
0.00395485
0.00393464
0.0039151
0.00389618
0.00387784
0.00386006
0.00384279
0.00382602
0.00380971
0.00379384
0.00377839
0.00376334
0.00374868
0.00373438
0.00372043
0.00370682
0.00369353
0.00368055
0.00366786
0.00365545
0.00364332
0.00363144
0.00361981
0.00360842
0.00359726
0.00358632
0.00357558
0.00356505
0.00355472
0.00354457
0.0035346
0.00352481
0.00351518
0.00350571
0.0034964
0.00348725
0.00347823
0.00346936
0.00346063
0.00345203
0.00344356
0.00343522
0.00342699
0.00341889
0.0034109
0.00340303
0.00339526
0.0033876
0.00338004
0.00337259
0.00336523
0.00335797
0.0033508
0.00334373
0.00333674
0.00332984
0.00332302
0.00331629
0.00330963
0.00330306
0.00329656
0.00329015
0.0032838
0.00327753
0.00327132
0.00326519
0.00325912
0.00325312
0.00324718
0.00324131
0.0032355
0.00322975
0.00322406
0.00321843
0.00321285
0.00320733
0.00320187
0.00319646
0.0031911
0.0031858
0.00318055
0.00317534
0.00317019
0.00316508
0.00316002
0.00315501
0.00315004
0.00314512
0.00314024
0.00313541
0.00313062
0.00312587
0.00312116
0.00311649
0.00311186
0.00310727
0.00310272
0.00309821
0.00309373
0.00308929
0.00308489
0.00308052
0.00307619
0.00307189
0.00306763
0.0030634
0.0030592
0.00305503
0.0030509
0.0030468
0.00304272
0.00303868
0.00303467
0.00303069
0.00302674
0.00302282
0.00301892
0.00301506
0.00301121
0.00300741
0.00300362
0.00299986
0.00299613
0.00299242
0.00298874
0.00298509
0.00298145
0.00297785
0.00297426
0.00297071
0.00296717
0.00296366
0.00296017
0.0029567
0.00295326
0.00294984
0.00294644
0.00294306
0.0029397
0.00293636
0.00293305
0.00292993
0.002927
0.00292407
0.00292112
0.00291816
0.0029152
0.00291223
0.00290925
0.00290626
0.00290327
0.00290026
0.00289725
0.00289423
0.0028912
0.00288816
0.00288512
0.00288206
0.002879
0.00287593
0.00287285
0.00286976
0.00286668
0.00286357
0.00286047
0.00285735
0.00285423
0.0028511
0.00284797
0.00284482
0.00284167
0.00283852
0.00283536
0.00283218
0.00282901
0.00282583
0.00282264
0.00281944
0.00281624
0.00281304
0.00280982
0.00280661
0.00280338
0.00280015
0.00279692
0.00279368
0.00279043
0.00278718
0.00278392
0.00278067
0.0027774
0.00277413
0.00277086
0.00276758
0.00276429
0.00276101
0.00275772
0.00275442
0.00275112
0.00274782
0.00274451
0.0027412
0.00273789
0.00273457
0.00273125
0.00272793
0.0027246
0.00272127
0.00271794
0.0027146
0.00271127
0.00270792
0.00270459
0.00270124
0.00269789
0.00269454
0.00269119
0.00268783
0.00268448
0.00268112
0.00267777
0.0026744
0.00267105
0.00266767
0.00266432
0.00266095
0.00265759
0.00265421
0.00265085
0.00264748
0.00264412
0.00264074
0.00263738
0.002634
0.00263064
0.00262726
0.0026239
0.00262052
0.00261716
0.00261378
0.00261041
0.00260704
0.00260368
0.00260031
0.00259694
0.00259357
0.00259021
0.00258684
0.00258348
0.00258012
0.00257675
0.0025734
0.00257004
0.00256668
0.00256332
0.00255997
0.00255662
0.00255327
0.00254991
0.00254657
0.00254322
0.00253989
0.00253654
0.00253321
0.00252987
0.00252654
0.0025232
0.00251989
0.00251655
0.00251324
0.00250992
0.00250661
0.00250329
0.0025
0.00249668
0.00249339
0.00249008
0.0024868
0.0024835
0.00248022
0.00247693
0.00247366
0.00247038
0.00246712
0.00246384
0.00246058
0.00245732
0.00245407
0.00245081
0.00244757
0.00244432
0.00244109
0.00243785
0.00243463
0.0024314
0.00242819
0.00242497
0.00242176
0.00241856
0.00241536
0.00241216
0.00240898
0.00240579
0.00240261
0.00239944
0.00239627
0.00239311
0.00238994
0.00238679
0.00238364
0.0023805
0.00237736
0.00237423
0.0023711
0.00236799
0.00236486
0.00236176
0.00235865
0.00235556
0.00235247
0.00234939
0.0023463
0.0023429
0.00233919
0.00233554
0.00233193
0.00232839
0.00232488
0.00232145
0.00231804
0.0023147
0.00231139
0.00230814
0.00230492
0.00230176
0.00229863
0.00229555
0.0022925
0.00228951
0.00228653
0.00228362
0.00228072
0.00227787
0.00227505
0.00227228
0.00226952
0.00226682
0.00226412
0.00226148
0.00225886
0.00225628
0.00225372
0.00225119
0.00224869
0.00224622
0.00224378
0.00224136
0.00223897
0.00223661
0.00223427
0.00223197
0.00222968
0.00222742
0.00222518
0.00222297
0.00222077
0.00221861
0.00221646
0.00221434
0.00221223
0.00221015
0.00220808
0.00220604
0.00220401
0.00220202
0.00220002
0.00219807
0.00219611
0.00219419
0.00219227
0.00219038
0.0021885
0.00218665
0.00218479
0.00218298
0.00218115
0.00217937
0.00217758
0.00217583
0.00217407
0.00217235
0.00217061
0.00216892
0.00216721
0.00216556
0.00216387
0.00216224
0.00216058
0.00215898
0.00215734
0.00215577
0.00215415
0.0021526
0.00215101
0.00214948
0.00214791
0.00214641
0.00214486
0.00214337
0.00214185
0.00214034
0.00213892
0.00213726
0.00213615
0.002134
0.00213373
0.00213083
)
;
    }
    symmetry
    {
        type            symmetryPlane;
    }
    frontAndBack
    {
        type            empty;
    }
}


// ************************************************************************* //
