/*--------------------------------*- C++ -*----------------------------------*\
| =========                 |                                                 |
| \\      /  F ield         | OpenFOAM: The Open Source CFD Toolbox           |
|  \\    /   O peration     | Version:  v2012                                 |
|   \\  /    A nd           | Website:  www.openfoam.com                      |
|    \\/     M anipulation  |                                                 |
\*---------------------------------------------------------------------------*/
FoamFile
{
    version     2.0;
    format      ascii;
    class       volScalarField;
    location    "6";
    object      k;
}
// * * * * * * * * * * * * * * * * * * * * * * * * * * * * * * * * * * * * * //

dimensions      [0 2 -2 0 0 0 0];


internalField   nonuniform List<scalar> 
209825
(
0.00103992
0.0010214
0.00101553
0.00101301
0.00101167
0.00101092
0.00101043
0.00101013
0.00100992
0.00100978
0.00100968
0.00100961
0.00100955
0.00100952
0.00100949
0.00100947
0.00100944
0.00100943
0.00100943
0.00100942
0.0010094
0.00100941
0.00100941
0.00100941
0.00100939
0.00100941
0.00100941
0.00100942
0.00100942
0.00100944
0.00100944
0.00100946
0.00100946
0.00100951
0.00100951
0.00100952
0.00100952
0.00100955
0.00100955
0.00100956
0.00100956
0.0010096
0.0010096
0.00100961
0.00100961
0.00100965
0.00100965
0.00100969
0.00100969
0.0010097
0.0010097
0.00100978
0.00100978
0.00100978
0.00100977
0.00100979
0.00100979
0.00100988
0.00100991
0.00100991
0.00100991
0.00100999
0.00100999
0.00100999
0.00100999
0.00101008
0.00101017
0.00101018
0.00101018
0.00101018
0.00101034
0.0010104
0.0010104
0.00101051
0.00101065
0.00101066
0.00101065
0.0010108
0.00101098
0.00101111
0.00101124
0.00101142
0.00101158
0.00101176
0.0010121
0.0010124
0.00101277
0.00101324
0.00101396
0.00101465
0.00101614
0.00101738
0.00102026
0.00103216
0.00109185
0.0021611
0.00103992
0.00102138
0.0010155
0.00101298
0.00101164
0.00101089
0.0010104
0.0010101
0.00100989
0.00100975
0.00100964
0.00100958
0.00100952
0.00100948
0.00100945
0.00100943
0.0010094
0.0010094
0.00100939
0.00100939
0.00100937
0.00100937
0.00100937
0.00100937
0.00100936
0.00100938
0.00100938
0.00100939
0.00100939
0.0010094
0.0010094
0.00100942
0.00100942
0.00100948
0.00100948
0.00100948
0.00100948
0.00100951
0.00100951
0.00100953
0.00100953
0.00100957
0.00100957
0.00100958
0.00100958
0.00100961
0.00100961
0.00100965
0.00100965
0.00100967
0.00100967
0.00100975
0.00100975
0.00100975
0.00100973
0.00100975
0.00100975
0.00100985
0.00100987
0.00100987
0.00100987
0.00100996
0.00100996
0.00100996
0.00100995
0.00101005
0.00101013
0.00101015
0.00101015
0.00101014
0.00101031
0.00101036
0.00101036
0.00101048
0.00101062
0.00101062
0.00101062
0.00101077
0.00101095
0.00101107
0.00101121
0.00101138
0.00101154
0.00101173
0.00101207
0.00101237
0.00101274
0.00101321
0.00101393
0.00101462
0.00101611
0.00101735
0.00102023
0.00103216
0.0010919
0.00216244
0.00103989
0.0010213
0.0010154
0.00101286
0.00101151
0.00101075
0.00101026
0.00100996
0.00100975
0.00100961
0.0010095
0.00100943
0.00100937
0.00100934
0.00100931
0.00100929
0.00100926
0.00100925
0.00100925
0.00100924
0.00100922
0.00100923
0.00100923
0.00100923
0.00100921
0.00100923
0.00100923
0.00100924
0.00100924
0.00100926
0.00100926
0.00100928
0.00100928
0.00100934
0.00100934
0.00100934
0.00100934
0.00100937
0.00100937
0.00100938
0.00100938
0.00100943
0.00100943
0.00100943
0.00100943
0.00100947
0.00100947
0.00100951
0.00100951
0.00100952
0.00100952
0.00100961
0.00100961
0.00100961
0.00100959
0.00100961
0.00100961
0.0010097
0.00100973
0.00100973
0.00100973
0.00100982
0.00100982
0.00100982
0.00100981
0.00100991
0.00100999
0.00101
0.00101
0.00101
0.00101017
0.00101022
0.00101022
0.00101033
0.00101048
0.00101048
0.00101048
0.00101062
0.00101081
0.00101093
0.00101107
0.00101124
0.00101141
0.00101159
0.00101193
0.00101223
0.0010126
0.00101308
0.0010138
0.00101449
0.00101597
0.00101722
0.0010201
0.0010321
0.00109196
0.00216581
0.00103983
0.00102117
0.00101522
0.00101266
0.0010113
0.00101053
0.00101004
0.00100973
0.00100951
0.00100937
0.00100926
0.00100919
0.00100913
0.0010091
0.00100907
0.00100905
0.00100902
0.00100901
0.00100901
0.001009
0.00100898
0.00100898
0.00100898
0.00100898
0.00100897
0.00100899
0.00100899
0.001009
0.001009
0.00100901
0.00100901
0.00100903
0.00100903
0.00100909
0.00100909
0.0010091
0.00100909
0.00100913
0.00100913
0.00100914
0.00100914
0.00100918
0.00100918
0.00100919
0.00100919
0.00100923
0.00100923
0.00100926
0.00100926
0.00100928
0.00100928
0.00100936
0.00100936
0.00100936
0.00100935
0.00100937
0.00100936
0.00100946
0.00100949
0.00100949
0.00100949
0.00100957
0.00100957
0.00100957
0.00100957
0.00100966
0.00100975
0.00100976
0.00100976
0.00100976
0.00100993
0.00100998
0.00100998
0.00101009
0.00101024
0.00101024
0.00101024
0.00101039
0.00101057
0.0010107
0.00101083
0.00101101
0.00101117
0.00101136
0.0010117
0.001012
0.00101238
0.00101285
0.00101357
0.00101427
0.00101575
0.00101701
0.00101987
0.00103198
0.00109205
0.00217041
0.00103975
0.00102097
0.00101497
0.00101238
0.001011
0.00101022
0.00100971
0.00100941
0.00100918
0.00100904
0.00100893
0.00100886
0.00100879
0.00100876
0.00100872
0.0010087
0.00100867
0.00100867
0.00100866
0.00100865
0.00100864
0.00100864
0.00100864
0.00100864
0.00100863
0.00100864
0.00100864
0.00100865
0.00100865
0.00100867
0.00100867
0.00100869
0.00100869
0.00100875
0.00100875
0.00100875
0.00100875
0.00100878
0.00100878
0.00100879
0.00100879
0.00100884
0.00100884
0.00100885
0.00100884
0.00100888
0.00100888
0.00100892
0.00100892
0.00100894
0.00100894
0.00100902
0.00100902
0.00100902
0.001009
0.00100902
0.00100902
0.00100912
0.00100915
0.00100915
0.00100914
0.00100923
0.00100923
0.00100923
0.00100923
0.00100932
0.00100941
0.00100942
0.00100942
0.00100942
0.00100959
0.00100964
0.00100964
0.00100976
0.0010099
0.00100991
0.00100991
0.00101005
0.00101024
0.00101037
0.0010105
0.00101068
0.00101084
0.00101103
0.00101137
0.00101167
0.00101205
0.00101253
0.00101326
0.00101395
0.00101544
0.00101671
0.00101955
0.0010318
0.00109218
0.00217619
0.00103964
0.00102072
0.00101464
0.00101201
0.00101061
0.00100981
0.0010093
0.00100898
0.00100875
0.0010086
0.00100849
0.00100842
0.00100835
0.00100832
0.00100828
0.00100826
0.00100823
0.00100822
0.00100822
0.00100821
0.00100819
0.00100819
0.00100819
0.00100819
0.00100818
0.0010082
0.0010082
0.0010082
0.0010082
0.00100822
0.00100822
0.00100824
0.00100824
0.0010083
0.0010083
0.0010083
0.0010083
0.00100833
0.00100833
0.00100835
0.00100835
0.00100839
0.00100839
0.0010084
0.0010084
0.00100844
0.00100844
0.00100848
0.00100848
0.00100849
0.00100849
0.00100857
0.00100857
0.00100857
0.00100856
0.00100858
0.00100858
0.00100868
0.0010087
0.0010087
0.0010087
0.00100879
0.00100879
0.00100879
0.00100879
0.00100888
0.00100897
0.00100898
0.00100898
0.00100898
0.00100915
0.0010092
0.0010092
0.00100932
0.00100947
0.00100947
0.00100947
0.00100962
0.0010098
0.00100993
0.00101007
0.00101025
0.00101041
0.0010106
0.00101094
0.00101125
0.00101163
0.00101211
0.00101284
0.00101354
0.00101503
0.00101631
0.00101913
0.00103158
0.00109234
0.00218309
0.00103952
0.00102041
0.00101424
0.00101156
0.00101012
0.00100931
0.00100878
0.00100846
0.00100822
0.00100807
0.00100795
0.00100788
0.00100781
0.00100777
0.00100773
0.00100771
0.00100768
0.00100767
0.00100767
0.00100766
0.00100764
0.00100764
0.00100764
0.00100764
0.00100763
0.00100764
0.00100764
0.00100765
0.00100765
0.00100767
0.00100767
0.00100769
0.00100769
0.00100775
0.00100775
0.00100775
0.00100775
0.00100778
0.00100778
0.0010078
0.0010078
0.00100784
0.00100784
0.00100785
0.00100785
0.00100789
0.00100789
0.00100793
0.00100793
0.00100794
0.00100794
0.00100803
0.00100803
0.00100803
0.00100801
0.00100803
0.00100803
0.00100813
0.00100816
0.00100816
0.00100815
0.00100824
0.00100824
0.00100824
0.00100824
0.00100834
0.00100842
0.00100844
0.00100844
0.00100844
0.00100861
0.00100866
0.00100866
0.00100878
0.00100893
0.00100893
0.00100893
0.00100908
0.00100927
0.0010094
0.00100954
0.00100972
0.00100989
0.00101008
0.00101042
0.00101073
0.00101111
0.0010116
0.00101233
0.00101303
0.00101452
0.00101583
0.00101861
0.0010313
0.00109254
0.00219092
0.00103937
0.00102004
0.00101377
0.00101103
0.00100955
0.00100872
0.00100817
0.00100783
0.00100759
0.00100743
0.00100731
0.00100723
0.00100716
0.00100712
0.00100708
0.00100706
0.00100703
0.00100702
0.00100701
0.001007
0.00100698
0.00100699
0.00100699
0.00100698
0.00100697
0.00100699
0.00100699
0.00100699
0.00100699
0.00100701
0.00100701
0.00100703
0.00100703
0.00100709
0.00100709
0.00100709
0.00100709
0.00100713
0.00100713
0.00100714
0.00100714
0.00100718
0.00100718
0.00100719
0.00100719
0.00100723
0.00100723
0.00100727
0.00100727
0.00100729
0.00100729
0.00100737
0.00100737
0.00100737
0.00100736
0.00100738
0.00100738
0.00100748
0.0010075
0.0010075
0.0010075
0.00100759
0.00100759
0.00100759
0.00100759
0.00100769
0.00100778
0.00100779
0.00100779
0.00100779
0.00100796
0.00100802
0.00100802
0.00100813
0.00100829
0.00100829
0.00100829
0.00100844
0.00100863
0.00100876
0.0010089
0.00100909
0.00100926
0.00100945
0.00100979
0.00101011
0.00101049
0.00101098
0.00101172
0.00101243
0.00101391
0.00101524
0.00101799
0.00103097
0.00109276
0.00219943
0.00103919
0.00101962
0.00101321
0.0010104
0.00100888
0.00100802
0.00100746
0.00100711
0.00100685
0.00100669
0.00100656
0.00100648
0.00100641
0.00100636
0.00100633
0.0010063
0.00100627
0.00100626
0.00100625
0.00100624
0.00100622
0.00100622
0.00100622
0.00100622
0.0010062
0.00100622
0.00100622
0.00100623
0.00100623
0.00100624
0.00100624
0.00100627
0.00100627
0.00100632
0.00100632
0.00100633
0.00100633
0.00100636
0.00100636
0.00100637
0.00100637
0.00100642
0.00100642
0.00100643
0.00100643
0.00100647
0.00100647
0.00100651
0.00100651
0.00100652
0.00100652
0.00100661
0.00100661
0.00100661
0.00100659
0.00100661
0.00100661
0.00100671
0.00100675
0.00100675
0.00100674
0.00100684
0.00100684
0.00100684
0.00100683
0.00100693
0.00100702
0.00100704
0.00100704
0.00100704
0.00100721
0.00100727
0.00100727
0.00100738
0.00100754
0.00100755
0.00100755
0.00100769
0.00100789
0.00100802
0.00100816
0.00100835
0.00100852
0.00100871
0.00100906
0.00100938
0.00100977
0.00101026
0.001011
0.00101172
0.00101321
0.00101456
0.00101727
0.00103059
0.00109299
0.00220821
0.001039
0.00101914
0.00101258
0.00100969
0.00100812
0.00100723
0.00100664
0.00100628
0.00100601
0.00100584
0.00100571
0.00100562
0.00100555
0.0010055
0.00100546
0.00100543
0.0010054
0.00100539
0.00100538
0.00100537
0.00100535
0.00100535
0.00100535
0.00100534
0.00100533
0.00100534
0.00100534
0.00100535
0.00100535
0.00100537
0.00100537
0.00100539
0.00100539
0.00100545
0.00100545
0.00100545
0.00100545
0.00100549
0.00100549
0.0010055
0.0010055
0.00100555
0.00100555
0.00100555
0.00100555
0.00100559
0.00100559
0.00100564
0.00100564
0.00100565
0.00100565
0.00100574
0.00100574
0.00100574
0.00100572
0.00100574
0.00100574
0.00100584
0.00100588
0.00100588
0.00100587
0.00100597
0.00100597
0.00100597
0.00100597
0.00100606
0.00100615
0.00100618
0.00100618
0.00100618
0.00100635
0.00100641
0.00100641
0.00100652
0.00100668
0.00100669
0.00100669
0.00100684
0.00100703
0.00100717
0.00100732
0.00100751
0.00100768
0.00100788
0.00100823
0.00100855
0.00100894
0.00100944
0.00101019
0.00101091
0.0010124
0.00101379
0.00101644
0.00103015
0.0010932
0.00221668
0.00103878
0.00101859
0.00101187
0.00100889
0.00100727
0.00100633
0.00100572
0.00100534
0.00100506
0.00100489
0.00100474
0.00100465
0.00100457
0.00100452
0.00100448
0.00100445
0.00100441
0.0010044
0.00100439
0.00100438
0.00100436
0.00100436
0.00100436
0.00100436
0.00100434
0.00100436
0.00100436
0.00100436
0.00100436
0.00100438
0.00100438
0.0010044
0.0010044
0.00100446
0.00100446
0.00100446
0.00100446
0.0010045
0.0010045
0.00100451
0.00100451
0.00100456
0.00100456
0.00100457
0.00100457
0.00100461
0.00100461
0.00100465
0.00100465
0.00100467
0.00100467
0.00100476
0.00100476
0.00100475
0.00100474
0.00100476
0.00100476
0.00100486
0.0010049
0.0010049
0.00100489
0.00100499
0.00100499
0.00100499
0.00100499
0.00100509
0.00100518
0.00100521
0.00100521
0.0010052
0.00100537
0.00100544
0.00100544
0.00100555
0.00100572
0.00100573
0.00100573
0.00100588
0.00100607
0.00100622
0.00100637
0.00100656
0.00100673
0.00100693
0.00100728
0.00100761
0.00100801
0.00100851
0.00100926
0.00101
0.00101148
0.00101291
0.0010155
0.00102966
0.00109334
0.00222403
0.00103854
0.00101799
0.00101109
0.001008
0.00100631
0.00100534
0.0010047
0.0010043
0.00100401
0.00100382
0.00100367
0.00100357
0.00100349
0.00100344
0.00100339
0.00100336
0.00100332
0.00100331
0.0010033
0.00100329
0.00100326
0.00100326
0.00100326
0.00100326
0.00100324
0.00100325
0.00100325
0.00100326
0.00100326
0.00100328
0.00100328
0.0010033
0.0010033
0.00100336
0.00100336
0.00100336
0.00100336
0.0010034
0.0010034
0.00100341
0.00100341
0.00100346
0.00100346
0.00100347
0.00100346
0.00100351
0.00100351
0.00100355
0.00100355
0.00100357
0.00100357
0.00100366
0.00100366
0.00100366
0.00100364
0.00100366
0.00100366
0.00100377
0.0010038
0.0010038
0.0010038
0.0010039
0.0010039
0.0010039
0.0010039
0.001004
0.00100409
0.00100412
0.00100412
0.00100412
0.00100429
0.00100436
0.00100436
0.00100447
0.00100464
0.00100465
0.00100465
0.0010048
0.001005
0.00100515
0.0010053
0.0010055
0.00100568
0.00100588
0.00100623
0.00100657
0.00100697
0.00100748
0.00100823
0.00100898
0.00101046
0.00101192
0.00101445
0.0010291
0.00109339
0.00222926
0.00103828
0.00101733
0.00101022
0.00100702
0.00100526
0.00100424
0.00100357
0.00100315
0.00100284
0.00100264
0.00100248
0.00100238
0.00100229
0.00100223
0.00100218
0.00100215
0.00100211
0.00100209
0.00100208
0.00100207
0.00100205
0.00100205
0.00100204
0.00100204
0.00100202
0.00100203
0.00100203
0.00100204
0.00100204
0.00100206
0.00100206
0.00100208
0.00100207
0.00100214
0.00100214
0.00100214
0.00100214
0.00100218
0.00100218
0.00100219
0.00100219
0.00100224
0.00100224
0.00100225
0.00100225
0.0010023
0.0010023
0.00100234
0.00100234
0.00100235
0.00100235
0.00100244
0.00100244
0.00100244
0.00100243
0.00100245
0.00100245
0.00100256
0.00100259
0.00100259
0.00100259
0.00100269
0.0010027
0.0010027
0.00100269
0.00100279
0.00100289
0.00100292
0.00100292
0.00100292
0.00100309
0.00100316
0.00100316
0.00100328
0.00100345
0.00100346
0.00100347
0.00100361
0.00100382
0.00100397
0.00100412
0.00100432
0.00100451
0.00100471
0.00100506
0.00100541
0.00100582
0.00100633
0.00100709
0.00100785
0.00100933
0.00101084
0.00101328
0.00102849
0.00109335
0.00223235
0.00103799
0.00101661
0.00100927
0.00100594
0.0010041
0.00100304
0.00100233
0.00100189
0.00100156
0.00100135
0.00100118
0.00100107
0.00100097
0.00100091
0.00100086
0.00100082
0.00100078
0.00100076
0.00100075
0.00100074
0.00100071
0.00100071
0.00100071
0.0010007
0.00100068
0.0010007
0.0010007
0.0010007
0.0010007
0.00100072
0.00100072
0.00100074
0.00100074
0.0010008
0.0010008
0.0010008
0.0010008
0.00100084
0.00100084
0.00100085
0.00100085
0.00100091
0.00100091
0.00100091
0.00100091
0.00100096
0.00100096
0.001001
0.001001
0.00100102
0.00100102
0.00100111
0.00100111
0.00100111
0.0010011
0.00100112
0.00100112
0.00100123
0.00100127
0.00100127
0.00100126
0.00100136
0.00100137
0.00100137
0.00100137
0.00100147
0.00100156
0.0010016
0.0010016
0.0010016
0.00100177
0.00100185
0.00100185
0.00100196
0.00100214
0.00100216
0.00100216
0.00100231
0.00100252
0.00100267
0.00100283
0.00100304
0.00100322
0.00100343
0.00100378
0.00100414
0.00100455
0.00100507
0.00100584
0.00100661
0.00100808
0.00100964
0.001012
0.00102781
0.00109322
0.00223329
0.00103769
0.00101583
0.00100824
0.00100477
0.00100285
0.00100173
0.00100098
0.00100051
0.00100017
0.000999938
0.000999758
0.000999639
0.000999538
0.000999473
0.000999415
0.000999377
0.000999332
0.000999314
0.000999299
0.000999285
0.000999259
0.000999256
0.000999253
0.000999246
0.000999222
0.000999237
0.000999237
0.000999243
0.000999241
0.000999257
0.000999257
0.000999277
0.000999275
0.000999342
0.000999342
0.000999345
0.000999343
0.000999382
0.000999382
0.000999394
0.000999394
0.000999448
0.000999448
0.000999454
0.000999454
0.000999507
0.000999507
0.000999551
0.00099955
0.000999564
0.000999564
0.00099966
0.00099966
0.00099966
0.000999645
0.000999671
0.00099967
0.000999778
0.00099982
0.00099982
0.000999817
0.000999917
0.000999927
0.000999927
0.000999923
0.00100002
0.00100012
0.00100016
0.00100016
0.00100016
0.00100034
0.00100041
0.00100041
0.00100053
0.00100071
0.00100074
0.00100074
0.00100088
0.0010011
0.00100125
0.00100142
0.00100163
0.00100182
0.00100203
0.00100239
0.00100275
0.00100317
0.0010037
0.00100447
0.00100525
0.00100672
0.00100833
0.0010106
0.00102707
0.00109299
0.0022321
0.00103737
0.001015
0.00100714
0.00100351
0.00100149
0.00100031
0.000999525
0.000999023
0.000998655
0.000998412
0.00099822
0.000998092
0.000997984
0.000997913
0.000997851
0.00099781
0.000997762
0.000997741
0.000997724
0.00099771
0.000997682
0.000997678
0.000997674
0.000997666
0.00099764
0.000997655
0.000997655
0.000997661
0.000997658
0.000997674
0.000997674
0.000997693
0.000997691
0.000997759
0.000997759
0.000997762
0.00099776
0.0009978
0.0009978
0.000997812
0.000997812
0.000997868
0.000997868
0.000997874
0.000997874
0.000997929
0.00099793
0.000997974
0.000997973
0.000997987
0.000997987
0.000998085
0.000998085
0.000998085
0.00099807
0.000998097
0.000998097
0.000998206
0.00099825
0.00099825
0.000998248
0.000998349
0.000998361
0.000998361
0.000998357
0.000998459
0.000998558
0.000998605
0.000998605
0.000998603
0.00099878
0.000998859
0.000998859
0.000998977
0.000999164
0.000999191
0.000999191
0.00099934
0.000999557
0.000999719
0.00099989
0.0010001
0.0010003
0.00100051
0.00100087
0.00100124
0.00100167
0.00100221
0.00100298
0.00100378
0.00100524
0.00100691
0.00100909
0.00102626
0.00109265
0.00222879
0.00103702
0.0010141
0.00100595
0.00100215
0.00100004
0.000998783
0.000997952
0.000997418
0.000997026
0.000996766
0.00099656
0.000996423
0.000996307
0.00099623
0.000996163
0.000996118
0.000996067
0.000996044
0.000996025
0.000996009
0.00099598
0.000995975
0.00099597
0.000995962
0.000995933
0.000995947
0.000995947
0.000995953
0.000995949
0.000995965
0.000995965
0.000995984
0.000995981
0.000996051
0.000996051
0.000996054
0.000996051
0.000996093
0.000996093
0.000996104
0.000996104
0.000996163
0.000996163
0.000996169
0.000996168
0.000996227
0.000996227
0.000996272
0.000996271
0.000996285
0.000996285
0.000996385
0.000996385
0.000996385
0.00099637
0.000996398
0.000996398
0.000996509
0.000996556
0.000996556
0.000996553
0.000996656
0.00099667
0.00099667
0.000996666
0.000996769
0.00099687
0.000996922
0.000996922
0.00099692
0.000997099
0.000997181
0.000997181
0.0009973
0.000997492
0.000997524
0.000997523
0.000997673
0.000997894
0.000998061
0.000998238
0.000998457
0.000998654
0.00099887
0.000999236
0.000999611
0.00100004
0.00100059
0.00100137
0.00100219
0.00100364
0.00100537
0.00100744
0.00102538
0.00109221
0.00222336
0.00103666
0.00101315
0.00100468
0.0010007
0.000998471
0.000997146
0.000996265
0.000995695
0.000995278
0.000994999
0.000994779
0.00099463
0.000994505
0.000994422
0.00099435
0.000994301
0.000994246
0.000994221
0.0009942
0.000994182
0.000994151
0.000994145
0.000994139
0.000994129
0.000994099
0.000994112
0.000994112
0.000994117
0.000994113
0.000994129
0.000994129
0.000994147
0.000994144
0.000994215
0.000994215
0.000994218
0.000994215
0.000994258
0.000994258
0.000994269
0.000994269
0.00099433
0.00099433
0.000994335
0.000994334
0.000994396
0.000994398
0.000994442
0.000994442
0.000994455
0.000994455
0.000994558
0.000994558
0.000994557
0.000994543
0.000994572
0.000994572
0.000994685
0.000994735
0.000994735
0.000994732
0.000994836
0.000994853
0.000994853
0.000994849
0.000994953
0.000995056
0.000995113
0.000995113
0.000995112
0.000995292
0.000995378
0.000995378
0.000995498
0.000995694
0.000995731
0.00099573
0.000995881
0.000996106
0.000996278
0.00099646
0.000996685
0.000996887
0.000997107
0.000997475
0.000997859
0.000998299
0.000998857
0.000999641
0.00100047
0.00100191
0.00100371
0.00100567
0.00102442
0.00109165
0.00221586
0.00103629
0.00101214
0.00100332
0.000999155
0.000996802
0.000995398
0.000994462
0.000993854
0.000993408
0.000993108
0.000992872
0.000992712
0.000992578
0.000992487
0.000992409
0.000992356
0.000992297
0.000992268
0.000992245
0.000992226
0.000992193
0.000992185
0.000992178
0.000992168
0.000992134
0.000992147
0.000992147
0.000992152
0.000992147
0.000992162
0.000992162
0.00099218
0.000992176
0.000992249
0.000992249
0.000992252
0.000992248
0.000992293
0.000992293
0.000992304
0.000992304
0.000992367
0.000992367
0.000992372
0.000992371
0.000992436
0.000992438
0.000992483
0.000992482
0.000992495
0.000992495
0.000992601
0.000992601
0.0009926
0.000992586
0.000992617
0.000992617
0.000992731
0.000992784
0.000992784
0.000992781
0.000992887
0.000992907
0.000992907
0.000992903
0.000993008
0.000993112
0.000993175
0.000993175
0.000993174
0.000993356
0.000993447
0.000993447
0.000993567
0.000993769
0.00099381
0.000993809
0.000993961
0.000994191
0.000994368
0.000994556
0.000994786
0.000994994
0.000995218
0.000995589
0.000995982
0.000996429
0.000996996
0.000997785
0.000998632
0.00100006
0.00100193
0.00100377
0.00102338
0.00109097
0.00220632
0.00103589
0.00101107
0.00100189
0.000997511
0.000995028
0.000993537
0.000992541
0.000991892
0.000991415
0.000991093
0.000990839
0.000990666
0.000990521
0.000990423
0.000990338
0.00099028
0.000990218
0.000990185
0.000990159
0.000990138
0.000990104
0.000990094
0.000990086
0.000990074
0.000990038
0.00099005
0.00099005
0.000990054
0.000990048
0.000990063
0.000990063
0.000990081
0.000990075
0.000990151
0.000990151
0.000990153
0.000990149
0.000990195
0.000990195
0.000990206
0.000990206
0.000990271
0.000990271
0.000990276
0.000990275
0.000990343
0.000990347
0.000990391
0.000990391
0.000990403
0.000990403
0.000990511
0.000990512
0.000990511
0.000990497
0.000990529
0.000990529
0.000990646
0.000990702
0.000990702
0.000990699
0.000990806
0.000990829
0.000990829
0.000990825
0.000990931
0.000991038
0.000991107
0.000991107
0.000991106
0.000991289
0.000991385
0.000991385
0.000991505
0.000991712
0.000991759
0.000991759
0.000991911
0.000992146
0.000992328
0.000992523
0.000992759
0.000992972
0.0009932
0.000993573
0.000993976
0.00099443
0.000995007
0.000995801
0.000996666
0.000998083
0.00100003
0.00100174
0.00102225
0.00109016
0.0021948
0.00103548
0.00100995
0.00100038
0.000995771
0.000993146
0.000991562
0.000990502
0.000989807
0.000989297
0.00098895
0.000988678
0.00098849
0.000988335
0.000988227
0.000988136
0.000988072
0.000988005
0.000987969
0.00098794
0.000987917
0.00098788
0.000987869
0.00098786
0.000987846
0.000987808
0.000987819
0.000987819
0.000987822
0.000987815
0.00098783
0.00098783
0.000987847
0.00098784
0.000987918
0.000987918
0.00098792
0.000987915
0.000987963
0.000987963
0.000987974
0.000987973
0.000988041
0.000988041
0.000988046
0.000988044
0.000988116
0.000988122
0.000988166
0.000988165
0.000988177
0.000988176
0.000988288
0.000988288
0.000988287
0.000988273
0.000988308
0.000988308
0.000988426
0.000988486
0.000988486
0.000988483
0.000988592
0.000988618
0.000988618
0.000988614
0.000988721
0.000988829
0.000988905
0.000988905
0.000988905
0.00098909
0.000989191
0.00098919
0.000989311
0.000989523
0.000989576
0.000989576
0.000989729
0.000989969
0.000990157
0.000990357
0.0009906
0.000990818
0.000991051
0.000991427
0.000991839
0.0009923
0.000992887
0.000993686
0.000994569
0.000995971
0.000997994
0.000999581
0.00102103
0.00108921
0.00218135
0.00103505
0.00100877
0.00099878
0.000993934
0.000991156
0.000989473
0.000988344
0.000987599
0.000987053
0.000986679
0.000986387
0.000986184
0.000986015
0.000985899
0.000985799
0.00098573
0.000985658
0.000985618
0.000985585
0.00098556
0.000985521
0.000985508
0.000985497
0.000985482
0.000985441
0.000985451
0.000985451
0.000985453
0.000985445
0.00098546
0.00098546
0.000985476
0.000985468
0.000985548
0.000985548
0.000985549
0.000985544
0.000985594
0.000985594
0.000985604
0.000985603
0.000985674
0.000985674
0.000985678
0.000985676
0.000985752
0.00098576
0.000985803
0.000985803
0.000985815
0.000985813
0.000985928
0.000985928
0.000985927
0.000985913
0.00098595
0.00098595
0.00098607
0.000986133
0.000986134
0.00098613
0.000986241
0.000986272
0.000986271
0.000986267
0.000986374
0.000986485
0.000986568
0.000986569
0.000986568
0.000986754
0.000986861
0.000986861
0.000986981
0.000987199
0.000987258
0.000987258
0.000987412
0.000987657
0.00098785
0.000988058
0.000988307
0.000988531
0.000988769
0.000989147
0.000989569
0.000990037
0.000990635
0.000991437
0.00099234
0.000993725
0.000995828
0.000997282
0.0010197
0.00108813
0.00216604
0.00103462
0.00100754
0.000997105
0.000991999
0.000989059
0.000987268
0.000986064
0.000985267
0.000984681
0.000984278
0.000983964
0.000983743
0.000983562
0.000983435
0.000983327
0.000983251
0.000983174
0.000983129
0.000983093
0.000983065
0.000983024
0.000983008
0.000982996
0.00098298
0.000982936
0.000982945
0.000982944
0.000982946
0.000982936
0.00098295
0.00098295
0.000982965
0.000982957
0.000983039
0.000983038
0.000983039
0.000983034
0.000983085
0.000983085
0.000983095
0.000983094
0.000983168
0.000983168
0.000983172
0.000983169
0.000983249
0.00098326
0.000983302
0.000983302
0.000983313
0.000983311
0.000983429
0.000983429
0.000983428
0.000983415
0.000983453
0.000983453
0.000983575
0.000983642
0.000983643
0.000983639
0.000983751
0.000983786
0.000983786
0.000983782
0.00098389
0.000984002
0.000984092
0.000984094
0.000984094
0.000984281
0.000984394
0.000984393
0.000984514
0.000984737
0.000984803
0.000984804
0.000984958
0.000985208
0.000985408
0.000985621
0.000985877
0.000986108
0.000986351
0.000986731
0.000987163
0.000987638
0.000988247
0.000989053
0.000989975
0.000991342
0.000993526
0.000994844
0.00101827
0.0010869
0.00214894
0.00103416
0.00100626
0.00099535
0.000989968
0.000986853
0.000984946
0.000983661
0.000982807
0.000982179
0.000981746
0.000981407
0.000981168
0.000980972
0.000980834
0.000980717
0.000980634
0.00098055
0.000980501
0.000980461
0.00098043
0.000980386
0.000980368
0.000980354
0.000980336
0.000980289
0.000980297
0.000980297
0.000980297
0.000980286
0.0009803
0.0009803
0.000980314
0.000980304
0.000980387
0.000980387
0.000980388
0.000980382
0.000980435
0.000980435
0.000980445
0.000980443
0.00098052
0.00098052
0.000980523
0.000980521
0.000980604
0.000980618
0.000980659
0.000980659
0.000980669
0.000980667
0.000980788
0.000980789
0.000980788
0.000980774
0.000980815
0.000980815
0.000980939
0.00098101
0.000981011
0.000981007
0.000981121
0.00098116
0.00098116
0.000981156
0.000981265
0.000981379
0.000981476
0.000981479
0.000981479
0.000981668
0.000981787
0.000981787
0.000981907
0.000982135
0.000982209
0.00098221
0.000982364
0.00098262
0.000982825
0.000983046
0.000983309
0.000983546
0.000983795
0.000984177
0.000984618
0.0009851
0.00098572
0.000986529
0.000987472
0.000988819
0.000991087
0.000992265
0.00101671
0.0010855
0.00213013
0.0010337
0.00100493
0.000993516
0.00098784
0.000984538
0.000982508
0.000981136
0.00098022
0.000979547
0.00097908
0.000978714
0.000978456
0.000978244
0.000978094
0.000977966
0.000977876
0.000977786
0.000977731
0.000977687
0.000977653
0.000977606
0.000977586
0.000977569
0.00097755
0.0009775
0.000977506
0.000977506
0.000977505
0.000977493
0.000977505
0.000977505
0.000977518
0.000977507
0.000977592
0.000977593
0.000977592
0.000977585
0.000977641
0.000977641
0.00097765
0.000977649
0.000977728
0.000977728
0.000977731
0.000977728
0.000977815
0.000977833
0.000977873
0.000977873
0.000977883
0.00097788
0.000978004
0.000978005
0.000978004
0.000977991
0.000978034
0.000978034
0.000978159
0.000978235
0.000978235
0.000978232
0.000978347
0.000978391
0.00097839
0.000978387
0.000978497
0.000978613
0.000978717
0.000978722
0.000978721
0.000978912
0.000979038
0.000979038
0.000979158
0.000979391
0.000979473
0.000979474
0.000979629
0.00097989
0.000980102
0.000980329
0.000980599
0.000980843
0.000981098
0.000981481
0.000981933
0.000982421
0.000983053
0.000983864
0.000984828
0.000986154
0.000988505
0.000989542
0.00101502
0.00108394
0.0021097
0.00103323
0.00100354
0.000991604
0.000985615
0.000982114
0.000979951
0.000978487
0.000977505
0.000976782
0.000976279
0.000975885
0.000975605
0.000975376
0.000975213
0.000975074
0.000974976
0.000974879
0.000974818
0.000974769
0.000974732
0.000974681
0.000974658
0.000974639
0.000974619
0.000974566
0.00097457
0.00097457
0.000974567
0.000974553
0.000974565
0.000974565
0.000974577
0.000974563
0.000974651
0.000974651
0.000974651
0.000974643
0.000974701
0.000974701
0.000974709
0.000974707
0.000974791
0.00097479
0.000974793
0.000974789
0.00097488
0.000974902
0.000974941
0.000974941
0.00097495
0.000974947
0.000975075
0.000975075
0.000975074
0.000975061
0.000975107
0.000975107
0.000975234
0.000975314
0.000975315
0.000975311
0.000975427
0.000975477
0.000975476
0.000975472
0.000975583
0.000975701
0.000975813
0.00097582
0.000975819
0.000976011
0.000976145
0.000976145
0.000976265
0.000976502
0.000976593
0.000976593
0.00097675
0.000977016
0.000977234
0.000977468
0.000977746
0.000977997
0.000978257
0.000978642
0.000979104
0.000979598
0.000980242
0.000981055
0.00098204
0.000983344
0.000985777
0.000986673
0.0010132
0.00108219
0.00208772
0.00103275
0.00100211
0.000989615
0.000983293
0.000979581
0.000977276
0.000975712
0.00097466
0.000973884
0.000973341
0.000972917
0.000972615
0.000972367
0.000972189
0.000972039
0.000971931
0.000971826
0.000971759
0.000971705
0.000971665
0.00097161
0.000971584
0.000971563
0.00097154
0.000971484
0.000971487
0.000971486
0.000971482
0.000971466
0.000971477
0.000971477
0.000971488
0.000971472
0.000971562
0.000971562
0.000971561
0.000971552
0.000971612
0.000971612
0.00097162
0.000971618
0.000971705
0.000971704
0.000971706
0.000971702
0.000971796
0.000971823
0.000971861
0.00097186
0.000971869
0.000971865
0.000971997
0.000971997
0.000971997
0.000971983
0.000972032
0.000972032
0.000972161
0.000972246
0.000972246
0.000972243
0.00097236
0.000972415
0.000972414
0.000972411
0.000972522
0.000972642
0.000972761
0.000972771
0.00097277
0.000972962
0.000973105
0.000973105
0.000973224
0.000973466
0.000973566
0.000973567
0.000973724
0.000973995
0.000974219
0.00097446