/*--------------------------------*- C++ -*----------------------------------*\
| =========                 |                                                 |
| \\      /  F ield         | OpenFOAM: The Open Source CFD Toolbox           |
|  \\    /   O peration     | Version:  v2012                                 |
|   \\  /    A nd           | Website:  www.openfoam.com                      |
|    \\/     M anipulation  |                                                 |
\*---------------------------------------------------------------------------*/
FoamFile
{
    version     2.0;
    format      ascii;
    class       volScalarField;
    location    "6";
    object      nut;
}
// * * * * * * * * * * * * * * * * * * * * * * * * * * * * * * * * * * * * * //

dimensions      [0 2 -1 0 0 0 0];


internalField   nonuniform List<scalar> 
209825
(
1.24966e-07
1.25984e-07
1.26545e-07
1.26875e-07
1.27093e-07
1.27245e-07
1.27356e-07
1.27439e-07
1.27503e-07
1.27553e-07
1.27593e-07
1.27625e-07
1.27651e-07
1.27672e-07
1.27691e-07
1.27705e-07
1.27716e-07
1.27727e-07
1.27737e-07
1.27743e-07
1.27749e-07
1.27754e-07
1.27758e-07
1.27761e-07
1.27767e-07
1.27769e-07
1.2777e-07
1.27772e-07
1.27775e-07
1.27776e-07
1.27776e-07
1.27777e-07
1.27777e-07
1.27782e-07
1.27782e-07
1.27779e-07
1.27779e-07
1.27777e-07
1.27777e-07
1.27772e-07
1.27772e-07
1.2777e-07
1.2777e-07
1.27753e-07
1.27748e-07
1.27753e-07
1.27753e-07
1.27746e-07
1.27746e-07
1.27733e-07
1.27733e-07
1.27724e-07
1.27715e-07
1.27705e-07
1.27703e-07
1.27693e-07
1.27683e-07
1.27688e-07
1.27689e-07
1.27688e-07
1.27688e-07
1.27686e-07
1.27686e-07
1.27667e-07
1.2766e-07
1.27672e-07
1.27683e-07
1.27665e-07
1.27665e-07
1.27642e-07
1.27651e-07
1.27645e-07
1.27632e-07
1.27647e-07
1.27665e-07
1.27642e-07
1.27636e-07
1.27632e-07
1.27652e-07
1.27668e-07
1.27661e-07
1.27683e-07
1.27679e-07
1.27673e-07
1.27709e-07
1.2772e-07
1.27732e-07
1.27761e-07
1.278e-07
1.27842e-07
1.27936e-07
1.28014e-07
1.28216e-07
1.29004e-07
1.33027e-07
1.84073e-08
1.24966e-07
1.25984e-07
1.26545e-07
1.26875e-07
1.27094e-07
1.27246e-07
1.27357e-07
1.2744e-07
1.27504e-07
1.27554e-07
1.27594e-07
1.27626e-07
1.27652e-07
1.27673e-07
1.27692e-07
1.27706e-07
1.27717e-07
1.27727e-07
1.27738e-07
1.27744e-07
1.2775e-07
1.27755e-07
1.27759e-07
1.27762e-07
1.27768e-07
1.2777e-07
1.27771e-07
1.27773e-07
1.27777e-07
1.27777e-07
1.27777e-07
1.27778e-07
1.27778e-07
1.27783e-07
1.27783e-07
1.2778e-07
1.2778e-07
1.27778e-07
1.27778e-07
1.27773e-07
1.27773e-07
1.27771e-07
1.27771e-07
1.27754e-07
1.27749e-07
1.27754e-07
1.27754e-07
1.27747e-07
1.27747e-07
1.27734e-07
1.27734e-07
1.27726e-07
1.27716e-07
1.27706e-07
1.27704e-07
1.27694e-07
1.27684e-07
1.27689e-07
1.2769e-07
1.2769e-07
1.27689e-07
1.27687e-07
1.27687e-07
1.27668e-07
1.27661e-07
1.27673e-07
1.27684e-07
1.27667e-07
1.27667e-07
1.27643e-07
1.27652e-07
1.27646e-07
1.27633e-07
1.27648e-07
1.27666e-07
1.27643e-07
1.27637e-07
1.27633e-07
1.27653e-07
1.27669e-07
1.27662e-07
1.27684e-07
1.2768e-07
1.27674e-07
1.2771e-07
1.27721e-07
1.27733e-07
1.27762e-07
1.27801e-07
1.27843e-07
1.27937e-07
1.28015e-07
1.28217e-07
1.29007e-07
1.33034e-07
1.89502e-08
1.24964e-07
1.25981e-07
1.26542e-07
1.26873e-07
1.27092e-07
1.27244e-07
1.27355e-07
1.27438e-07
1.27503e-07
1.27553e-07
1.27593e-07
1.27625e-07
1.27652e-07
1.27673e-07
1.27691e-07
1.27705e-07
1.27717e-07
1.27727e-07
1.27737e-07
1.27744e-07
1.2775e-07
1.27755e-07
1.27759e-07
1.27762e-07
1.27767e-07
1.2777e-07
1.27771e-07
1.27773e-07
1.27776e-07
1.27777e-07
1.27777e-07
1.27778e-07
1.27778e-07
1.27783e-07
1.27783e-07
1.2778e-07
1.2778e-07
1.27779e-07
1.27779e-07
1.27773e-07
1.27773e-07
1.27771e-07
1.27771e-07
1.27754e-07
1.27749e-07
1.27754e-07
1.27754e-07
1.27748e-07
1.27748e-07
1.27735e-07
1.27735e-07
1.27726e-07
1.27716e-07
1.27706e-07
1.27704e-07
1.27694e-07
1.27684e-07
1.27689e-07
1.2769e-07
1.2769e-07
1.2769e-07
1.27687e-07
1.27687e-07
1.27668e-07
1.27661e-07
1.27673e-07
1.27684e-07
1.27667e-07
1.27667e-07
1.27643e-07
1.27652e-07
1.27646e-07
1.27633e-07
1.27648e-07
1.27666e-07
1.27644e-07
1.27637e-07
1.27634e-07
1.27653e-07
1.27669e-07
1.27663e-07
1.27685e-07
1.27681e-07
1.27674e-07
1.2771e-07
1.27721e-07
1.27733e-07
1.27763e-07
1.27802e-07
1.27844e-07
1.27938e-07
1.28016e-07
1.28218e-07
1.29013e-07
1.3305e-07
1.96298e-08
1.24962e-07
1.25977e-07
1.26539e-07
1.2687e-07
1.27089e-07
1.27242e-07
1.27353e-07
1.27437e-07
1.27501e-07
1.27552e-07
1.27592e-07
1.27624e-07
1.27651e-07
1.27672e-07
1.27691e-07
1.27705e-07
1.27717e-07
1.27727e-07
1.27738e-07
1.27744e-07
1.2775e-07
1.27755e-07
1.27759e-07
1.27762e-07
1.27768e-07
1.2777e-07
1.27771e-07
1.27774e-07
1.27777e-07
1.27777e-07
1.27778e-07
1.27778e-07
1.27779e-07
1.27783e-07
1.27784e-07
1.2778e-07
1.2778e-07
1.27779e-07
1.27779e-07
1.27774e-07
1.27774e-07
1.27772e-07
1.27772e-07
1.27754e-07
1.2775e-07
1.27755e-07
1.27755e-07
1.27748e-07
1.27748e-07
1.27735e-07
1.27735e-07
1.27726e-07
1.27717e-07
1.27707e-07
1.27705e-07
1.27695e-07
1.27685e-07
1.2769e-07
1.27691e-07
1.2769e-07
1.2769e-07
1.27688e-07
1.27688e-07
1.27669e-07
1.27662e-07
1.27674e-07
1.27685e-07
1.27668e-07
1.27668e-07
1.27644e-07
1.27653e-07
1.27647e-07
1.27634e-07
1.27649e-07
1.27667e-07
1.27645e-07
1.27638e-07
1.27635e-07
1.27654e-07
1.2767e-07
1.27664e-07
1.27686e-07
1.27682e-07
1.27676e-07
1.27712e-07
1.27723e-07
1.27735e-07
1.27765e-07
1.27804e-07
1.27846e-07
1.2794e-07
1.28019e-07
1.2822e-07
1.29023e-07
1.33076e-07
2.03889e-08
1.24958e-07
1.25972e-07
1.26534e-07
1.26865e-07
1.27086e-07
1.27239e-07
1.27351e-07
1.27435e-07
1.275e-07
1.27551e-07
1.27592e-07
1.27624e-07
1.27651e-07
1.27672e-07
1.27691e-07
1.27705e-07
1.27717e-07
1.27728e-07
1.27738e-07
1.27745e-07
1.27751e-07
1.27756e-07
1.2776e-07
1.27763e-07
1.27769e-07
1.27771e-07
1.27772e-07
1.27775e-07
1.27778e-07
1.27779e-07
1.27779e-07
1.2778e-07
1.2778e-07
1.27785e-07
1.27785e-07
1.27782e-07
1.27782e-07
1.27781e-07
1.27781e-07
1.27776e-07
1.27776e-07
1.27773e-07
1.27773e-07
1.27756e-07
1.27751e-07
1.27756e-07
1.27756e-07
1.2775e-07
1.2775e-07
1.27737e-07
1.27737e-07
1.27728e-07
1.27718e-07
1.27708e-07
1.27706e-07
1.27697e-07
1.27686e-07
1.27691e-07
1.27692e-07
1.27692e-07
1.27692e-07
1.27689e-07
1.27689e-07
1.2767e-07
1.27663e-07
1.27675e-07
1.27686e-07
1.27669e-07
1.27669e-07
1.27646e-07
1.27655e-07
1.27649e-07
1.27636e-07
1.2765e-07
1.27669e-07
1.27646e-07
1.2764e-07
1.27636e-07
1.27656e-07
1.27672e-07
1.27666e-07
1.27688e-07
1.27684e-07
1.27678e-07
1.27714e-07
1.27725e-07
1.27738e-07
1.27767e-07
1.27807e-07
1.27849e-07
1.27944e-07
1.28023e-07
1.28223e-07
1.29037e-07
1.33113e-07
2.12172e-08
1.24953e-07
1.25965e-07
1.26528e-07
1.2686e-07
1.27081e-07
1.27235e-07
1.27348e-07
1.27433e-07
1.27499e-07
1.2755e-07
1.27591e-07
1.27624e-07
1.27651e-07
1.27672e-07
1.27692e-07
1.27706e-07
1.27718e-07
1.27729e-07
1.27739e-07
1.27746e-07
1.27752e-07
1.27757e-07
1.27761e-07
1.27765e-07
1.2777e-07
1.27773e-07
1.27774e-07
1.27777e-07
1.2778e-07
1.2778e-07
1.27781e-07
1.27782e-07
1.27782e-07
1.27787e-07
1.27788e-07
1.27784e-07
1.27784e-07
1.27783e-07
1.27783e-07
1.27778e-07
1.27778e-07
1.27776e-07
1.27776e-07
1.27758e-07
1.27754e-07
1.27759e-07
1.27759e-07
1.27752e-07
1.27752e-07
1.27739e-07
1.27739e-07
1.27731e-07
1.27721e-07
1.27711e-07
1.27709e-07
1.27699e-07
1.27688e-07
1.27694e-07
1.27694e-07
1.27694e-07
1.27694e-07
1.27692e-07
1.27692e-07
1.27673e-07
1.27666e-07
1.27678e-07
1.27689e-07
1.27672e-07
1.27672e-07
1.27648e-07
1.27657e-07
1.27651e-07
1.27638e-07
1.27653e-07
1.27672e-07
1.27649e-07
1.27642e-07
1.27639e-07
1.27659e-07
1.27675e-07
1.27669e-07
1.27691e-07
1.27687e-07
1.27681e-07
1.27717e-07
1.27729e-07
1.27741e-07
1.27771e-07
1.27811e-07
1.27853e-07
1.27948e-07
1.28029e-07
1.28227e-07
1.29055e-07
1.33162e-07
2.21129e-08
1.24948e-07
1.25957e-07
1.2652e-07
1.26854e-07
1.27076e-07
1.27231e-07
1.27345e-07
1.27431e-07
1.27497e-07
1.27549e-07
1.2759e-07
1.27623e-07
1.27651e-07
1.27673e-07
1.27692e-07
1.27707e-07
1.2772e-07
1.2773e-07
1.27741e-07
1.27748e-07
1.27755e-07
1.27759e-07
1.27764e-07
1.27767e-07
1.27773e-07
1.27776e-07
1.27777e-07
1.27779e-07
1.27783e-07
1.27783e-07
1.27784e-07
1.27784e-07
1.27785e-07
1.2779e-07
1.2779e-07
1.27787e-07
1.27787e-07
1.27786e-07
1.27786e-07
1.27781e-07
1.27781e-07
1.27779e-07
1.27779e-07
1.27762e-07
1.27757e-07
1.27762e-07
1.27762e-07
1.27756e-07
1.27756e-07
1.27742e-07
1.27742e-07
1.27734e-07
1.27724e-07
1.27714e-07
1.27712e-07
1.27703e-07
1.27692e-07
1.27697e-07
1.27698e-07
1.27698e-07
1.27698e-07
1.27695e-07
1.27695e-07
1.27676e-07
1.27669e-07
1.27681e-07
1.27692e-07
1.27675e-07
1.27675e-07
1.27651e-07
1.27661e-07
1.27655e-07
1.27642e-07
1.27656e-07
1.27675e-07
1.27653e-07
1.27646e-07
1.27642e-07
1.27662e-07
1.27679e-07
1.27673e-07
1.27695e-07
1.27692e-07
1.27685e-07
1.27721e-07
1.27733e-07
1.27746e-07
1.27776e-07
1.27816e-07
1.27859e-07
1.27954e-07
1.28036e-07
1.28232e-07
1.29078e-07
1.33222e-07
2.30769e-08
1.24941e-07
1.25948e-07
1.26512e-07
1.26847e-07
1.27071e-07
1.27227e-07
1.27342e-07
1.27428e-07
1.27495e-07
1.27548e-07
1.2759e-07
1.27624e-07
1.27652e-07
1.27674e-07
1.27694e-07
1.27709e-07
1.27721e-07
1.27732e-07
1.27744e-07
1.27751e-07
1.27757e-07
1.27762e-07
1.27767e-07
1.2777e-07
1.27776e-07
1.27779e-07
1.2778e-07
1.27782e-07
1.27786e-07
1.27787e-07
1.27787e-07
1.27788e-07
1.27788e-07
1.27794e-07
1.27794e-07
1.27791e-07
1.27791e-07
1.2779e-07
1.2779e-07
1.27785e-07
1.27785e-07
1.27783e-07
1.27783e-07
1.27766e-07
1.27761e-07
1.27766e-07
1.27766e-07
1.2776e-07
1.2776e-07
1.27747e-07
1.27747e-07
1.27738e-07
1.27728e-07
1.27718e-07
1.27716e-07
1.27707e-07
1.27696e-07
1.27701e-07
1.27702e-07
1.27702e-07
1.27702e-07
1.27699e-07
1.27699e-07
1.2768e-07
1.27673e-07
1.27685e-07
1.27696e-07
1.2768e-07
1.2768e-07
1.27656e-07
1.27665e-07
1.27659e-07
1.27646e-07
1.2766e-07
1.2768e-07
1.27658e-07
1.2765e-07
1.27647e-07
1.27667e-07
1.27684e-07
1.27678e-07
1.277e-07
1.27697e-07
1.27691e-07
1.27726e-07
1.27739e-07
1.27752e-07
1.27782e-07
1.27823e-07
1.27866e-07
1.27961e-07
1.28044e-07
1.28238e-07
1.29105e-07
1.33293e-07
2.41105e-08
1.24933e-07
1.25937e-07
1.26502e-07
1.26839e-07
1.27064e-07
1.27222e-07
1.27338e-07
1.27426e-07
1.27494e-07
1.27547e-07
1.2759e-07
1.27624e-07
1.27653e-07
1.27676e-07
1.27696e-07
1.27711e-07
1.27724e-07
1.27735e-07
1.27746e-07
1.27754e-07
1.2776e-07
1.27766e-07
1.2777e-07
1.27774e-07
1.2778e-07
1.27783e-07
1.27784e-07
1.27786e-07
1.2779e-07
1.27791e-07
1.27791e-07
1.27792e-07
1.27793e-07
1.27798e-07
1.27799e-07
1.27795e-07
1.27795e-07
1.27795e-07
1.27795e-07
1.2779e-07
1.2779e-07
1.27788e-07
1.27788e-07
1.2777e-07
1.27766e-07
1.27771e-07
1.27771e-07
1.27765e-07
1.27765e-07
1.27752e-07
1.27752e-07
1.27743e-07
1.27733e-07
1.27723e-07
1.27721e-07
1.27712e-07
1.27701e-07
1.27706e-07
1.27707e-07
1.27707e-07
1.27707e-07
1.27704e-07
1.27704e-07
1.27686e-07
1.27678e-07
1.2769e-07
1.27702e-07
1.27685e-07
1.27685e-07
1.27661e-07
1.2767e-07
1.27665e-07
1.27651e-07
1.27665e-07
1.27685e-07
1.27663e-07
1.27656e-07
1.27652e-07
1.27672e-07
1.27689e-07
1.27684e-07
1.27706e-07
1.27703e-07
1.27697e-07
1.27733e-07
1.27746e-07
1.27759e-07
1.2779e-07
1.2783e-07
1.27874e-07
1.27969e-07
1.28054e-07
1.28246e-07
1.29137e-07
1.33374e-07
2.5215e-08
1.24925e-07
1.25925e-07
1.26491e-07
1.26829e-07
1.27057e-07
1.27216e-07
1.27334e-07
1.27423e-07
1.27492e-07
1.27546e-07
1.2759e-07
1.27625e-07
1.27654e-07
1.27677e-07
1.27698e-07
1.27714e-07
1.27727e-07
1.27738e-07
1.2775e-07
1.27757e-07
1.27764e-07
1.2777e-07
1.27775e-07
1.27779e-07
1.27784e-07
1.27787e-07
1.27789e-07
1.27791e-07
1.27795e-07
1.27796e-07
1.27797e-07
1.27798e-07
1.27798e-07
1.27804e-07
1.27804e-07
1.27801e-07
1.27801e-07
1.27801e-07
1.27801e-07
1.27795e-07
1.27795e-07
1.27794e-07
1.27794e-07
1.27776e-07
1.27772e-07
1.27777e-07
1.27777e-07
1.27771e-07
1.27771e-07
1.27758e-07
1.27758e-07
1.27749e-07
1.27739e-07
1.27729e-07
1.27727e-07
1.27718e-07
1.27707e-07
1.27712e-07
1.27713e-07
1.27713e-07
1.27713e-07
1.2771e-07
1.27711e-07
1.27692e-07
1.27684e-07
1.27696e-07
1.27708e-07
1.27691e-07
1.27691e-07
1.27667e-07
1.27676e-07
1.27671e-07
1.27657e-07
1.27672e-07
1.27692e-07
1.2767e-07
1.27662e-07
1.27659e-07
1.27679e-07
1.27696e-07
1.27691e-07
1.27713e-07
1.27711e-07
1.27704e-07
1.2774e-07
1.27754e-07
1.27767e-07
1.27798e-07
1.27839e-07
1.27884e-07
1.27979e-07
1.28066e-07
1.28254e-07
1.29174e-07
1.33463e-07
2.63907e-08
1.24915e-07
1.25911e-07
1.26478e-07
1.26819e-07
1.27048e-07
1.2721e-07
1.27329e-07
1.27419e-07
1.2749e-07
1.27545e-07
1.2759e-07
1.27625e-07
1.27655e-07
1.27679e-07
1.277e-07
1.27717e-07
1.2773e-07
1.27742e-07
1.27754e-07
1.27762e-07
1.27769e-07
1.27775e-07
1.2778e-07
1.27784e-07
1.27789e-07
1.27793e-07
1.27794e-07
1.27797e-07
1.27801e-07
1.27802e-07
1.27802e-07
1.27804e-07
1.27804e-07
1.2781e-07
1.27811e-07
1.27807e-07
1.27807e-07
1.27807e-07
1.27807e-07
1.27802e-07
1.27802e-07
1.27801e-07
1.27801e-07
1.27783e-07
1.27779e-07
1.27784e-07
1.27784e-07
1.27778e-07
1.27778e-07
1.27764e-07
1.27764e-07
1.27757e-07
1.27746e-07
1.27736e-07
1.27734e-07
1.27725e-07
1.27714e-07
1.27719e-07
1.2772e-07
1.2772e-07
1.2772e-07
1.27717e-07
1.27718e-07
1.27699e-07
1.27691e-07
1.27703e-07
1.27715e-07
1.27698e-07
1.27698e-07
1.27674e-07
1.27684e-07
1.27678e-07
1.27664e-07
1.27679e-07
1.27699e-07
1.27678e-07
1.2767e-07
1.27666e-07
1.27686e-07
1.27704e-07
1.27699e-07
1.27721e-07
1.2772e-07
1.27713e-07
1.27749e-07
1.27763e-07
1.27777e-07
1.27808e-07
1.2785e-07
1.27895e-07
1.2799e-07
1.28079e-07
1.28264e-07
1.29216e-07
1.33556e-07
2.76363e-08
1.24904e-07
1.25896e-07
1.26464e-07
1.26807e-07
1.27039e-07
1.27203e-07
1.27324e-07
1.27416e-07
1.27488e-07
1.27544e-07
1.2759e-07
1.27626e-07
1.27657e-07
1.27682e-07
1.27703e-07
1.2772e-07
1.27734e-07
1.27747e-07
1.27759e-07
1.27767e-07
1.27774e-07
1.2778e-07
1.27786e-07
1.2779e-07
1.27795e-07
1.27799e-07
1.278e-07
1.27803e-07
1.27807e-07
1.27808e-07
1.27809e-07
1.2781e-07
1.27811e-07
1.27817e-07
1.27818e-07
1.27815e-07
1.27814e-07
1.27815e-07
1.27815e-07
1.2781e-07
1.2781e-07
1.27809e-07
1.27809e-07
1.27791e-07
1.27786e-07
1.27792e-07
1.27792e-07
1.27786e-07
1.27786e-07
1.27772e-07
1.27772e-07
1.27765e-07
1.27754e-07
1.27743e-07
1.27741e-07
1.27733e-07
1.27721e-07
1.27727e-07
1.27728e-07
1.27728e-07
1.27728e-07
1.27725e-07
1.27725e-07
1.27707e-07
1.27698e-07
1.27711e-07
1.27723e-07
1.27707e-07
1.27707e-07
1.27682e-07
1.27692e-07
1.27687e-07
1.27672e-07
1.27687e-07
1.27708e-07
1.27686e-07
1.27678e-07
1.27675e-07
1.27695e-07
1.27713e-07
1.27708e-07
1.27731e-07
1.27729e-07
1.27723e-07
1.27758e-07
1.27773e-07
1.27788e-07
1.27819e-07
1.27861e-07
1.27907e-07
1.28002e-07
1.28094e-07
1.28275e-07
1.29263e-07
1.33654e-07
2.89489e-08
1.24893e-07
1.25879e-07
1.26449e-07
1.26795e-07
1.27029e-07
1.27195e-07
1.27318e-07
1.27412e-07
1.27485e-07
1.27543e-07
1.2759e-07
1.27628e-07
1.27659e-07
1.27684e-07
1.27707e-07
1.27724e-07
1.27739e-07
1.27751e-07
1.27764e-07
1.27773e-07
1.2778e-07
1.27787e-07
1.27792e-07
1.27796e-07
1.27802e-07
1.27805e-07
1.27807e-07
1.2781e-07
1.27815e-07
1.27816e-07
1.27817e-07
1.27818e-07
1.27818e-07
1.27825e-07
1.27826e-07
1.27823e-07
1.27823e-07
1.27823e-07
1.27823e-07
1.27818e-07
1.27818e-07
1.27817e-07
1.27817e-07
1.27799e-07
1.27795e-07
1.27801e-07
1.27801e-07
1.27795e-07
1.27795e-07
1.27781e-07
1.27781e-07
1.27774e-07
1.27763e-07
1.27752e-07
1.2775e-07
1.27742e-07
1.2773e-07
1.27735e-07
1.27737e-07
1.27737e-07
1.27736e-07
1.27734e-07
1.27734e-07
1.27716e-07
1.27707e-07
1.2772e-07
1.27732e-07
1.27716e-07
1.27716e-07
1.27691e-07
1.27701e-07
1.27696e-07
1.27681e-07
1.27695e-07
1.27717e-07
1.27696e-07
1.27688e-07
1.27684e-07
1.27704e-07
1.27723e-07
1.27718e-07
1.27741e-07
1.2774e-07
1.27734e-07
1.27769e-07
1.27784e-07
1.27799e-07
1.27831e-07
1.27874e-07
1.2792e-07
1.28016e-07
1.28111e-07
1.28286e-07
1.29315e-07
1.33756e-07
3.03323e-08
1.2488e-07
1.25861e-07
1.26432e-07
1.26781e-07
1.27018e-07
1.27187e-07
1.27312e-07
1.27408e-07
1.27483e-07
1.27542e-07
1.2759e-07
1.27629e-07
1.27661e-07
1.27687e-07
1.2771e-07
1.27728e-07
1.27744e-07
1.27757e-07
1.2777e-07
1.27779e-07
1.27787e-07
1.27793e-07
1.27799e-07
1.27804e-07
1.27809e-07
1.27813e-07
1.27815e-07
1.27818e-07
1.27823e-07
1.27824e-07
1.27825e-07
1.27827e-07
1.27827e-07
1.27834e-07
1.27835e-07
1.27832e-07
1.27832e-07
1.27832e-07
1.27833e-07
1.27828e-07
1.27828e-07
1.27827e-07
1.27827e-07
1.27809e-07
1.27805e-07
1.27811e-07
1.27811e-07
1.27805e-07
1.27805e-07
1.27791e-07
1.27791e-07
1.27784e-07
1.27773e-07
1.27762e-07
1.2776e-07
1.27752e-07
1.2774e-07
1.27745e-07
1.27746e-07
1.27747e-07
1.27746e-07
1.27743e-07
1.27744e-07
1.27726e-07
1.27717e-07
1.27729e-07
1.27742e-07
1.27726e-07
1.27726e-07
1.27701e-07
1.27711e-07
1.27707e-07
1.27691e-07
1.27705e-07
1.27728e-07
1.27707e-07
1.27698e-07
1.27695e-07
1.27714e-07
1.27734e-07
1.2773e-07
1.27752e-07
1.27752e-07
1.27746e-07
1.27781e-07
1.27797e-07
1.27813e-07
1.27845e-07
1.27888e-07
1.27935e-07
1.28031e-07
1.28129e-07
1.28299e-07
1.29372e-07
1.33861e-07
3.17905e-08
1.24867e-07
1.25841e-07
1.26414e-07
1.26766e-07
1.27006e-07
1.27177e-07
1.27305e-07
1.27403e-07
1.2748e-07
1.27541e-07
1.2759e-07
1.2763e-07
1.27664e-07
1.27691e-07
1.27714e-07
1.27733e-07
1.27749e-07
1.27763e-07
1.27776e-07
1.27786e-07
1.27794e-07
1.27801e-07
1.27807e-07
1.27812e-07
1.27817e-07
1.27821e-07
1.27824e-07
1.27827e-07
1.27832e-07
1.27833e-07
1.27834e-07
1.27836e-07
1.27836e-07
1.27843e-07
1.27845e-07
1.27842e-07
1.27842e-07
1.27843e-07
1.27843e-07
1.27838e-07
1.27838e-07
1.27838e-07
1.27838e-07
1.2782e-07
1.27815e-07
1.27822e-07
1.27822e-07
1.27816e-07
1.27816e-07
1.27802e-07
1.27802e-07
1.27795e-07
1.27784e-07
1.27773e-07
1.27771e-07
1.27763e-07
1.27751e-07
1.27756e-07
1.27757e-07
1.27757e-07
1.27757e-07
1.27754e-07
1.27755e-07
1.27737e-07
1.27727e-07
1.2774e-07
1.27753e-07
1.27737e-07
1.27737e-07
1.27712e-07
1.27722e-07
1.27718e-07
1.27702e-07
1.27716e-07
1.2774e-07
1.27719e-07
1.2771e-07
1.27706e-07
1.27726e-07
1.27746e-07
1.27742e-07
1.27765e-07
1.27765e-07
1.27759e-07
1.27794e-07
1.27811e-07
1.27827e-07
1.2786e-07
1.27903e-07
1.27951e-07
1.28047e-07
1.28149e-07
1.28313e-07
1.29434e-07
1.3397e-07
3.3328e-08
1.24852e-07
1.2582e-07
1.26394e-07
1.26749e-07
1.26993e-07
1.27167e-07
1.27298e-07
1.27398e-07
1.27477e-07
1.27539e-07
1.2759e-07
1.27632e-07
1.27666e-07
1.27694e-07
1.27719e-07
1.27738e-07
1.27755e-07
1.27769e-07
1.27783e-07
1.27793e-07
1.27802e-07
1.27809e-07
1.27816e-07
1.2782e-07
1.27826e-07
1.27831e-07
1.27833e-07
1.27837e-07
1.27841e-07
1.27843e-07
1.27844e-07
1.27846e-07
1.27846e-07
1.27854e-07
1.27856e-07
1.27853e-07
1.27852e-07
1.27854e-07
1.27854e-07
1.27849e-07
1.27849e-07
1.27849e-07
1.27849e-07
1.27831e-07
1.27827e-07
1.27834e-07
1.27834e-07
1.27828e-07
1.27828e-07
1.27813e-07
1.27813e-07
1.27807e-07
1.27796e-07
1.27784e-07
1.27782e-07
1.27775e-07
1.27762e-07
1.27768e-07
1.27769e-07
1.27769e-07
1.27769e-07
1.27766e-07
1.27767e-07
1.27749e-07
1.27739e-07
1.27752e-07
1.27765e-07
1.2775e-07
1.2775e-07
1.27724e-07
1.27735e-07
1.27731e-07
1.27714e-07
1.27728e-07
1.27752e-07
1.27732e-07
1.27722e-07
1.27719e-07
1.27738e-07
1.27759e-07
1.27756e-07
1.27778e-07
1.2778e-07
1.27773e-07
1.27808e-07
1.27826e-07
1.27842e-07
1.27876e-07
1.2792e-07
1.27969e-07
1.28064e-07
1.2817e-07
1.28328e-07
1.29501e-07
1.34083e-07
3.49493e-08
1.24837e-07
1.25797e-07
1.26373e-07
1.26731e-07
1.26978e-07
1.27156e-07
1.2729e-07
1.27392e-07
1.27473e-07
1.27538e-07
1.2759e-07
1.27633e-07
1.27669e-07
1.27698e-07
1.27724e-07
1.27744e-07
1.27761e-07
1.27776e-07
1.27791e-07
1.27801e-07
1.2781e-07
1.27818e-07
1.27825e-07
1.2783e-07
1.27836e-07
1.2784e-07
1.27843e-07
1.27847e-07
1.27852e-07
1.27854e-07
1.27855e-07
1.27857e-07
1.27857e-07
1.27865e-07
1.27867e-07
1.27864e-07
1.27864e-07
1.27866e-07
1.27866e-07
1.27861e-07
1.27861e-07
1.27862e-07
1.27862e-07
1.27843e-07
1.27839e-07
1.27847e-07
1.27847e-07
1.27841e-07
1.27841e-07
1.27826e-07
1.27826e-07
1.2782e-07
1.27809e-07
1.27797e-07
1.27795e-07
1.27788e-07
1.27775e-07
1.27781e-07
1.27782e-07
1.27782e-07
1.27782e-07
1.27778e-07
1.2778e-07
1.27762e-07
1.27752e-07
1.27765e-07
1.27778e-07
1.27763e-07
1.27763e-07
1.27737e-07
1.27748e-07
1.27744e-07
1.27727e-07
1.27741e-07
1.27766e-07
1.27746e-07
1.27736e-07
1.27733e-07
1.27752e-07
1.27773e-07
1.2777e-07
1.27793e-07
1.27795e-07
1.27789e-07
1.27823e-07
1.27842e-07
1.27859e-07
1.27893e-07
1.27938e-07
1.27987e-07
1.28083e-07
1.28193e-07
1.28345e-07
1.29573e-07
1.34199e-07
3.66589e-08
1.24821e-07
1.25773e-07
1.2635e-07
1.26712e-07
1.26963e-07
1.27144e-07
1.27281e-07
1.27386e-07
1.2747e-07
1.27536e-07
1.2759e-07
1.27634e-07
1.27672e-07
1.27702e-07
1.27728e-07
1.2775e-07
1.27768e-07
1.27783e-07
1.27799e-07
1.2781e-07
1.27819e-07
1.27828e-07
1.27835e-07
1.2784e-07
1.27846e-07
1.27851e-07
1.27854e-07
1.27858e-07
1.27863e-07
1.27865e-07
1.27867e-07
1.27869e-07
1.27869e-07
1.27878e-07
1.2788e-07
1.27877e-07
1.27877e-07
1.27879e-07
1.27879e-07
1.27874e-07
1.27874e-07
1.27875e-07
1.27875e-07
1.27857e-07
1.27852e-07
1.2786e-07
1.27861e-07
1.27855e-07
1.27855e-07
1.2784e-07
1.2784e-07
1.27834e-07
1.27823e-07
1.2781e-07
1.27808e-07
1.27802e-07
1.27789e-07
1.27794e-07
1.27796e-07
1.27796e-07
1.27796e-07
1.27792e-07
1.27794e-07
1.27776e-07
1.27765e-07
1.27778e-07
1.27792e-07
1.27777e-07
1.27777e-07
1.27751e-07
1.27762e-07
1.27759e-07
1.27741e-07
1.27755e-07
1.27781e-07
1.27761e-07
1.27751e-07
1.27747e-07
1.27767e-07
1.27789e-07
1.27786e-07
1.27809e-07
1.27812e-07
1.27806e-07
1.2784e-07
1.27859e-07
1.27877e-07
1.27911e-07
1.27957e-07
1.28007e-07
1.28102e-07
1.28218e-07
1.28362e-07
1.2965e-07
1.34318e-07
3.84618e-08
1.24804e-07
1.25747e-07
1.26326e-07
1.26692e-07
1.26946e-07
1.27131e-07
1.27271e-07
1.2738e-07
1.27465e-07
1.27534e-07
1.2759e-07
1.27636e-07
1.27674e-07
1.27706e-07
1.27734e-07
1.27756e-07
1.27775e-07
1.27791e-07
1.27807e-07
1.27819e-07
1.27829e-07
1.27838e-07
1.27845e-07
1.27851e-07
1.27857e-07
1.27862e-07
1.27866e-07
1.2787e-07
1.27875e-07
1.27877e-07
1.27879e-07
1.27881e-07
1.27882e-07
1.27891e-07
1.27893e-07
1.2789e-07
1.2789e-07
1.27892e-07
1.27893e-07
1.27888e-07
1.27888e-07
1.2789e-07
1.2789e-07
1.27871e-07
1.27867e-07
1.27875e-07
1.27876e-07
1.2787e-07
1.2787e-07
1.27854e-07
1.27854e-07
1.27849e-07
1.27838e-07
1.27825e-07
1.27823e-07
1.27817e-07
1.27803e-07
1.27809e-07
1.27811e-07
1.27811e-07
1.2781e-07
1.27806e-07
1.27809e-07
1.27791e-07
1.2778e-07
1.27793e-07
1.27807e-07
1.27793e-07
1.27793e-07
1.27766e-07
1.27778e-07
1.27775e-07
1.27756e-07
1.2777e-07
1.27796e-07
1.27777e-07
1.27767e-07
1.27763e-07
1.27782e-07
1.27805e-07
1.27803e-07
1.27826e-07
1.27829e-07
1.27824e-07
1.27857e-07
1.27878e-07
1.27896e-07
1.27931e-07
1.27977e-07
1.28029e-07
1.28123e-07
1.28244e-07
1.2838e-07
1.29731e-07
1.3444e-07
4.03628e-08
1.24786e-07
1.2572e-07
1.263e-07
1.26669e-07
1.26928e-07
1.27117e-07
1.27261e-07
1.27372e-07
1.2746e-07
1.27531e-07
1.2759e-07
1.27637e-07
1.27677e-07
1.2771e-07
1.27739e-07
1.27762e-07
1.27782e-07
1.27799e-07
1.27816e-07
1.27828e-07
1.27839e-07
1.27848e-07
1.27856e-07
1.27862e-07
1.27868e-07
1.27874e-07
1.27878e-07
1.27882e-07
1.27888e-07
1.2789e-07
1.27893e-07
1.27895e-07
1.27895e-07
1.27905e-07
1.27907e-07
1.27904e-07
1.27904e-07
1.27907e-07
1.27908e-07
1.27903e-07
1.27903e-07
1.27905e-07
1.27905e-07
1.27886e-07
1.27882e-07
1.27891e-07
1.27892e-07
1.27886e-07
1.27886e-07
1.2787e-07
1.2787e-07
1.27865e-07
1.27854e-07
1.2784e-07
1.27839e-07
1.27833e-07
1.27819e-07
1.27825e-07
1.27826e-07
1.27826e-07
1.27826e-07
1.27822e-07
1.27825e-07
1.27807e-07
1.27795e-07
1.27809e-07
1.27823e-07
1.27809e-07
1.27809e-07
1.27782e-07
1.27794e-07
1.27792e-07
1.27772e-07
1.27786e-07
1.27813e-07
1.27795e-07
1.27783e-07
1.2778e-07
1.27799e-07
1.27822e-07
1.27821e-07
1.27844e-07
1.27848e-07
1.27843e-07
1.27876e-07
1.27897e-07
1.27917e-07
1.27952e-07
1.27998e-07
1.28051e-07
1.28145e-07
1.28271e-07
1.28399e-07
1.29816e-07
1.34565e-07
4.2367e-08
1.24767e-07
1.25691e-07
1.26272e-07
1.26646e-07
1.26909e-07
1.27102e-07
1.27249e-07
1.27364e-07
1.27455e-07
1.27529e-07
1.27589e-07
1.27638e-07
1.2768e-07
1.27714e-07
1.27744e-07
1.27769e-07
1.2779e-07
1.27808e-07
1.27825e-07
1.27838e-07
1.2785e-07
1.27859e-07
1.27868e-07
1.27874e-07
1.2788e-07
1.27887e-07
1.27891e-07
1.27895e-07
1.27901e-07
1.27904e-07
1.27907e-07
1.27909e-07
1.27909e-07
1.27919e-07
1.27922e-07
1.2792e-07
1.27919e-07
1.27922e-07
1.27924e-07
1.27919e-07
1.27919e-07
1.27921e-07
1.27922e-07
1.27903e-07
1.27898e-07
1.27908e-07
1.27908e-07
1.27903e-07
1.27903e-07
1.27886e-07
1.27886e-07
1.27882e-07
1.27871e-07
1.27857e-07
1.27855e-07
1.2785e-07
1.27835e-07
1.27842e-07
1.27843e-07
1.27843e-07
1.27843e-07
1.27838e-07
1.27842e-07
1.27825e-07
1.27812e-07
1.27826e-07
1.2784e-07
1.27827e-07
1.27827e-07
1.27799e-07
1.27811e-07
1.2781e-07
1.27789e-07
1.27803e-07
1.27831e-07
1.27813e-07
1.27801e-07
1.27798e-07
1.27817e-07
1.27841e-07
1.2784e-07
1.27863e-07
1.27868e-07
1.27863e-07
1.27896e-07
1.27918e-07
1.27938e-07
1.27974e-07
1.28021e-07
1.28075e-07
1.28169e-07
1.283e-07
1.28419e-07
1.29906e-07
1.34692e-07
4.4479e-08
1.24748e-07
1.2566e-07
1.26242e-07
1.2662e-07
1.26888e-07
1.27086e-07
1.27237e-07
1.27355e-07
1.27449e-07
1.27525e-07
1.27588e-07
1.27639e-07
1.27683e-07
1.27719e-07
1.2775e-07
1.27776e-07
1.27798e-07
1.27816e-07
1.27835e-07
1.27849e-07
1.27861e-07
1.27871e-07
1.2788e-07
1.27887e-07
1.27893e-07
1.279e-07
1.27905e-07
1.27909e-07
1.27915e-07
1.27918e-07
1.27921e-07
1.27924e-07
1.27924e-07
1.27935e-07
1.27938e-07
1.27935e-07
1.27935e-07
1.27939e-07
1.2794e-07
1.27936e-07
1.27936e-07
1.27939e-07
1.27939e-07
1.2792e-07
1.27915e-07
1.27925e-07
1.27926e-07
1.27921e-07
1.27921e-07
1.27904e-07
1.27904e-07
1.279e-07
1.27889e-07
1.27874e-07
1.27872e-07
1.27868e-07
1.27853e-07
1.27859e-07
1.27861e-07
1.27861e-07
1.27861e-07
1.27856e-07
1.27859e-07
1.27843e-07
1.27829e-07
1.27843e-07
1.27858e-07
1.27845e-07
1.27845e-07
1.27817e-07
1.2783e-07
1.27829e-07
1.27807e-07
1.27821e-07
1.2785e-07
1.27832e-07
1.2782e-07
1.27817e-07
1.27835e-07
1.2786e-07
1.2786e-07
1.27883e-07
1.27889e-07
1.27884e-07
1.27917e-07
1.2794e-07
1.27961e-07
1.27997e-07
1.28045e-07
1.281e-07
1.28193e-07
1.2833e-07
1.28441e-07
1.29999e-07
1.34821e-07
4.67036e-08
1.24728e-07
1.25628e-07
1.26211e-07
1.26593e-07
1.26866e-07
1.27068e-07
1.27223e-07
1.27345e-07
1.27442e-07
1.27521e-07
1.27586e-07
1.2764e-07
1.27685e-07
1.27723e-07
1.27756e-07
1.27783e-07
1.27806e-07
1.27825e-07
1.27845e-07
1.27859e-07
1.27872e-07
1.27883e-07
1.27893e-07
1.279e-07
1.27907e-07
1.27914e-07
1.27919e-07
1.27924e-07
1.2793e-07
1.27934e-07
1.27937e-07
1.27939e-07
1.27939e-07
1.27951e-07
1.27954e-07
1.27952e-07
1.27951e-07
1.27956e-07
1.27957e-07
1.27953e-07
1.27953e-07
1.27957e-07
1.27957e-07
1.27937e-07
1.27933e-07
1.27943e-07
1.27945e-07
1.27939e-07
1.27939e-07
1.27922e-07
1.27922e-07
1.27919e-07
1.27908e-07
1.27893e-07
1.27891e-07
1.27887e-07
1.27871e-07
1.27878e-07
1.2788e-07
1.2788e-07
1.27879e-07
1.27874e-07
1.27878e-07
1.27862e-07
1.27848e-07
1.27862e-07
1.27877e-07
1.27864e-07
1.27865e-07
1.27836e-07
1.27849e-07
1.27849e-07
1.27827e-07
1.2784e-07
1.27869e-07
1.27853e-07
1.2784e-07
1.27837e-07
1.27855e-07
1.27881e-07
1.27881e-07
1.27904e-07
1.27912e-07
1.27907e-07
1.27939e-07
1.27963e-07
1.27985e-07
1.28022e-07
1.2807e-07
1.28127e-07
1.28218e-07
1.28362e-07
1.28463e-07
1.30095e-07
1.34952e-07
4.9045e-08
1.24707e-07
1.25594e-07
1.26178e-07
1.26565e-07
1.26842e-07
1.27049e-07
1.27208e-07
1.27334e-07
1.27435e-07
1.27517e-07
1.27584e-07
1.2764e-07
1.27687e-07
1.27727e-07
1.27761e-07
1.2779e-07
1.27814e-07
1.27835e-07
1.27855e-07
1.2787e-07
1.27884e-07
1.27895e-07
1.27906e-07
1.27914e-07
1.2792e-07
1.27928e-07
1.27934e-07
1.27939e-07
1.27945e-07
1.27949e-07
1.27953e-07
1.27955e-07
1.27956e-07
1.27968e-07
1.27971e-07
1.27969e-07
1.27969e-07
1.27974e-07
1.27976e-07
1.27971e-07
1.27971e-07
1.27975e-07
1.27976e-07
1.27956e-07
1.27952e-07
1.27963e-07
1.27965e-07
1.27959e-07
1.27959e-07
1.27942e-07
1.27941e-07
1.27938e-07
1.27927e-07
1.27912e-07
1.2791e-07
1.27907e-07
1.27891e-07
1.27898e-07
1.27899e-07
1.27899e-07
1.27899e-07
1.27893e-07
1.27898e-07
1.27882e-07
1.27867e-07
1.27881e-07
1.27896e-07
1.27885e-07
1.27885e-07
1.27856e-07
1.2787e-07
1.2787e-07
1.27847e-07
1.2786e-07
1.2789e-07
1.27874e-07
1.27861e-07
1.27858e-07
1.27876e-07
1.27902e-07
1.27903e-07
1.27926e-07
1.27935e-07
1.27931e-07
1.27962e-07
1.27987e-07
1.28009e-07
1.28047e-07
1.28096e-07
1.28154e-07
1.28245e-07
1.28394e-07
1.28486e-07
1.30195e-07
1.35084e-07
5.15067e-08
1.24685e-07
1.25559e-07
1.26143e-07
1.26534e-07
1.26817e-07
1.27029e-07
1.27193e-07
1.27322e-07
1.27427e-07
1.27512e-07
1.27582e-07
1.2764e-07
1.27689e-07
1.27731e-07
1.27767e-07
1.27796e-07
1.27822e-07
1.27844e-07
1.27865e-07
1.27882e-07
1.27896e-07
1.27908e-07
1.2792e-07
1.27928e-07
1.27935e-07
1.27943e-07
1.2795e-07
1.27955e-07
1.27961e-07
1.27966e-07
1.27969e-07
1.27972e-07
1.27973e-07
1.27985e-07
1.27989e-07
1.27987e-07
1.27987e-07
1.27992e-07
1.27994e-07
1.2799e-07
1.2799e-07
1.27995e-07
1.27995e-07
1.27976e-07
1.27972e-07
1.27983e-07
1.27986e-07
1.2798e-07
1.2798e-07
1.27962e-07
1.27962e-07
1.27959e-07
1.27948e-07
1.27932e-07
1.2793e-07
1.27928e-07
1.27911e-07
1.27918e-07
1.2792e-07
1.2792e-07
1.27919e-07
1.27914e-07
1.27918e-07
1.27903e-07
1.27888e-07
1.27902e-07
1.27917e-07
1.27906e-07
1.27906e-07
1.27877e-07
1.27891e-07
1.27892e-07
1.27868e-07
1.27881e-07
1.27912e-07
1.27897e-07
1.27883e-07
1.2788e-07
1.27897e-07
1.27925e-07
1.27927e-07
1.2795e-07
1.27959e-07
1.27955e-07
1.27987e-07
1.28012e-07
1.28035e-07
1.28074e-07
1.28123e-07
1.28183e-07
1.28272e-07
1.28428e-07
1.2851e-07
1.30296e-07
1.35217e-07
5.40914e-08
1.24663e-07
1.25522e-07
1.26107e-07
1.26502e-07
1.2679e-07
1.27007e-07
1.27175e-07
1.27309e-07
1.27417e-07
1.27505e-07
1.27579e-07
1.27639e-07
1.27691e-07
1.27734e-07
1.27772e-07
1.27803e-07
1.2783e-07
1.27853e-07
1.27876e-07
1.27893e-07
1.27908e-07
1.27921e-07
1.27933e-07
1.27942e-07
1.2795e-07
1.27958e-07
1.27966e-07
1.27971e-07
1.27978e-07
1.27983e-07
1.27987e-07
1.2799e-07
1.2799e-07
1.28003e-07
1.28008e-07
1.28006e-07
1.28005e-07
1.28012e-07
1.28014e-07
1.2801e-07
1.2801e-07
1.28015e-07
1.28016e-07
1.27996e-07
1.27992e-07
1.28004e-07
1.28007e-07
1.28001e-07
1.28001e-07
1.27983e-07