/*--------------------------------*- C++ -*----------------------------------*\
| =========                 |                                                 |
| \\      /  F ield         | OpenFOAM: The Open Source CFD Toolbox           |
|  \\    /   O peration     | Version:  v2012                                 |
|   \\  /    A nd           | Website:  www.openfoam.com                      |
|    \\/     M anipulation  |                                                 |
\*---------------------------------------------------------------------------*/
FoamFile
{
    version     2.0;
    format      ascii;
    class       volScalarField;
    location    "6";
    object      yPlus;
}
// * * * * * * * * * * * * * * * * * * * * * * * * * * * * * * * * * * * * * //

dimensions      [0 0 0 0 0 0 0];


internalField   uniform 0;

boundaryField
{
    inlet
    {
        type            calculated;
        value           uniform 0;
    }
    outlet
    {
        type            calculated;
        value           uniform 0;
    }
    topWall
    {
        type            calculated;
        value           nonuniform List<scalar> 
545
(
0.061976
0.107583
0.137824
0.161813
0.182094
0.199818
0.215626
0.229923
0.242982
0.255002
0.266131
0.276485
0.286155
0.295215
0.303728
0.311746
0.319312
0.326464
0.333237
0.339659
0.345756
0.351551
0.357065
0.362315
0.36732
0.372093
0.37665
0.381003
0.385163
0.389142
0.392949
0.396594
0.400085
0.40343
0.406637
0.409712
0.412663
0.415495
0.418214
0.420825
0.423334
0.425745
0.428062
0.43029
0.432433
0.434495
0.436479
0.438389
0.440227
0.441997
0.443701
0.445343
0.446925
0.44845
0.449919
0.451335
0.452701
0.454017
0.455287
0.456511
0.457692
0.458832
0.459932
0.460993
0.462016
0.463005
0.463959
0.464879
0.465768
0.466626
0.467455
0.468255
0.469016
0.46975
0.470476
0.471194
0.471904
0.472607
0.473302
0.47399
0.474671
0.475344
0.47601
0.476668
0.47732
0.477965
0.478602
0.479233
0.479857
0.480475
0.481086
0.48169
0.482288
0.482879
0.483463
0.484045
0.484553
0.485005
0.485456
0.485906
0.486355
0.486803
0.487249
0.487695
0.48814
0.488584
0.489027
0.489469
0.48991
0.490349
0.490788
0.491226
0.491662
0.492098
0.492532
0.492966
0.493398
0.493829
0.494259
0.494688
0.495116
0.495542
0.495968
0.496392
0.496815
0.497237
0.497658
0.498077
0.498496
0.498913
0.499329
0.499743
0.500157
0.500569
0.50098
0.501389
0.501798
0.502205
0.502611
0.503015
0.503418
0.50382
0.50422
0.50462
0.505017
0.505414
0.505809
0.506202
0.506595
0.506986
0.507375
0.507763
0.50815
0.508535
0.508919
0.509301
0.509682
0.510061
0.510439
0.510815
0.51119
0.511563
0.511935
0.512305
0.512674
0.513041
0.513406
0.51377
0.514132
0.514493
0.514852
0.51521
0.515566
0.51592
0.516272
0.516623
0.516973
0.51732
0.517666
0.51801
0.518352
0.518693
0.519032
0.519369
0.519705
0.520039
0.52037
0.520701
0.521029
0.521355
0.52168
0.522003
0.522324
0.522643
0.52296
0.523276
0.523589
0.523901
0.524211
0.524518
0.524824
0.525128
0.52543
0.52573
0.526028
0.526324
0.526618
0.52691
0.5272
0.527488
0.527774
0.528058
0.52834
0.528619
0.528897
0.529173
0.529446
0.529717
0.529986
0.530253
0.530518
0.530781
0.531041
0.5313
0.531556
0.53181
0.532061
0.532311
0.532558
0.532803
0.533046
0.533286
0.533524
0.53376
0.533993
0.534224
0.534453
0.53468
0.534904
0.535125
0.535345
0.535562
0.535776
0.535988
0.536198
0.536405
0.53661
0.536812
0.537012
0.537209
0.537404
0.537596
0.537786
0.537973
0.538158
0.53834
0.538519
0.538696
0.538871
0.539042
0.539212
0.539378
0.539542
0.539703
0.539862
0.540017
0.540171
0.540321
0.54047
0.5406
0.540719
0.540837
0.540955
0.541072
0.541188
0.541304
0.541418
0.541532
0.541646
0.541758
0.541869
0.541979
0.542088
0.542196
0.542302
0.542407
0.542511
0.542613
0.542713
0.542812
0.542909
0.543005
0.543098
0.543189
0.543278
0.543365
0.54345
0.543533
0.543613
0.54369
0.543765
0.543836
0.543906
0.543972
0.544035
0.544094
0.544151
0.544204
0.544253
0.544299
0.544341
0.544379
0.544414
0.544444
0.544469
0.54449
0.544507
0.544519
0.544526
0.544528
0.544526
0.544517
0.544504
0.544485
0.54446
0.544429
0.544392
0.544349
0.5443
0.544244
0.544181
0.544112
0.544035
0.543952
0.54386
0.543762
0.543655
0.543541
0.543419
0.543288
0.543149
0.543001
0.542844
0.542678
0.542503
0.542318
0.542124
0.54192
0.541705
0.541481
0.541246
0.541
0.540743
0.540475
0.540196
0.539905
0.539603
0.539288
0.538961
0.538622
0.53827
0.537905
0.537527
0.537135
0.536731
0.536312
0.535879
0.535432
0.53497
0.534494
0.534003
0.533497
0.532975
0.532438
0.531885
0.531316
0.530731
0.530129
0.529511
0.528875
0.528223
0.527553
0.526866
0.526161
0.525438
0.524697
0.523938
0.52316
0.522364
0.521548
0.520714
0.51986
0.518988
0.518095
0.517183
0.516251
0.515299
0.514327
0.513335
0.512322
0.511289
0.510235
0.509161
0.508066
0.50695
0.505812
0.504654
0.503475
0.502275
0.501053
0.49981
0.498546
0.497261
0.495954
0.494626
0.493277
0.491906
0.490514
0.489102
0.487668
0.486213
0.484737
0.483241
0.481723
0.480186
0.478628
0.477049
0.475451
0.473832
0.472194
0.470537
0.46886
0.467164
0.46545
0.463717
0.461966
0.460196
0.458409
0.456605
0.454784
0.452946
0.451092
0.449222
0.447336
0.445435
0.44352
0.44159
0.439646
0.437689
0.435717
0.433518
0.431111
0.42872
0.426344
0.423985
0.421641
0.419315
0.417006
0.414715
0.412443
0.410189
0.407955
0.405741
0.403546
0.401372
0.399219
0.397087
0.394976
0.392887
0.390819
0.388774
0.386751
0.38475
0.382772
0.380817
0.378884
0.376975
0.375089
0.373226
0.371386
0.36957
0.367778
0.36601
0.364265
0.362545
0.360848
0.359176
0.357527
0.355903
0.354304
0.352728
0.351177
0.349651
0.348149
0.346672
0.34522
0.343793
0.342391
0.341013
0.339661
0.338333
0.337032
0.335755
0.334504
0.333278
0.332079
0.330904
0.329756
0.328633
0.327537
0.326466
0.325423
0.324405
0.323414
0.322449
0.321512
0.320601
0.319717
0.31886
0.318031
0.317229
0.316455
0.315708
0.314989
0.314299
0.313636
0.313001
0.312395
0.311818
0.311269
0.310749
0.310257
0.309795
0.309361
0.308957
0.308581
0.308235
0.307918
0.30763
0.307372
0.307145
0.306949
0.306778
0.306656
0.306489
)
;
    }
    bottomWall
    {
        type            calculated;
        value           nonuniform List<scalar> 
449
(
0.139831
0.0891941
0.0760387
0.0697078
0.0656153
0.0626417
0.0603806
0.0586666
0.0574543
0.0569114
0.0571518
0.0584183
0.0599525
0.0610717
0.0616392
0.0618342
0.0618125
0.0616711
0.0614615
0.061216
0.060949
0.0606723
0.0603925
0.0601155
0.0598425
0.0595754
0.0593173
0.0590638
0.0588229
0.0585856
0.0583608
0.0581396
0.0579323
0.0577239
0.0575306
0.05734
0.057154
0.0569764
0.0568037
0.0566364
0.0564778
0.0563208
0.0561676
0.0560256
0.0558797
0.0557421
0.0556072
0.055476
0.0553475
0.0552257
0.0551066
0.0549926
0.0548871
0.0547728
0.054668
0.0545605
0.0544629
0.0543598
0.0542666
0.0541713
0.0540772
0.0539848
0.0539001
0.0538143
0.0537316
0.0536533
0.0535769
0.0535018
0.0534266
0.0533478
0.0532777
0.0532032
0.0531366
0.0530689
0.053003
0.0529371
0.0528732
0.052813
0.0527505
0.0526874
0.0526337
0.0525788
0.0525186
0.05246
0.0524056
0.0523501
0.0522942
0.0522493
0.0521979
0.0521493
0.0520959
0.0520456
0.0519958
0.05195
0.0519092
0.0518584
0.051812
0.0517678
0.0517238
0.0516789
0.0516426
0.0516026
0.0515623
0.0515218
0.0514804
0.0514441
0.0514083
0.0513721
0.0513402
0.0513136
0.0512788
0.0512474
0.0512143
0.0511833
0.0511523
0.0511192
0.0510896
0.0510621
0.0510304
0.0510002
0.0509689
0.0509408
0.0509125
0.0508842
0.0508584
0.0508387
0.0508159
0.0507926
0.0507653
0.0507368
0.0507139
0.0506893
0.0506636
0.0506433
0.0506209
0.050597
0.0505777
0.0505558
0.050533
0.0505129
0.0504933
0.05047
0.0504509
0.0504315
0.050414
0.0503906
0.050366
0.0503472
0.0503276
0.0503071
0.0502912
0.0502746
0.0502564
0.0502404
0.0502195
0.0502013
0.0501825
0.0501653
0.0501507
0.0501347
0.0501203
0.0501035
0.0500881
0.0500763
0.0500605
0.0500443
0.050032
0.0500162
0.0499993
0.0499865
0.0499714
0.0499538
0.0499387
0.0499269
0.0499127
0.0498956
0.0498787
0.0498618
0.0498449
0.0498286
0.0498078
0.0497902
0.0497752
0.0497588
0.049746
0.0497339
0.0497206
0.0497104
0.0496994
0.0496876
0.0496785
0.0496677
0.0496571
0.0496486
0.0496382
0.0496288
0.0496196
0.0496094
0.0496006
0.0495915
0.0495809
0.0495719
0.0495626
0.0495525
0.0495441
0.0495351
0.0495252
0.049517
0.049508
0.0494983
0.0494903
0.0494808
0.0494711
0.0494633
0.0494534
0.0494441
0.0494362
0.0494263
0.0494175
0.049409
0.0493995
0.0493915
0.049383
0.0493738
0.0493661
0.0493577
0.0493487
0.0493413
0.0493328
0.049324
0.0493165
0.0493074
0.0492985
0.0492909
0.0492817
0.0492733
0.0492651
0.0492556
0.0492474
0.0492385
0.049229
0.0492211
0.0492119
0.0492018
0.0491937
0.0491845
0.0491745
0.0491663
0.0491573
0.0491471
0.0491389
0.0491292
0.0491209
0.0491107
0.0491017
0.0490914
0.0490825
0.0490729
0.0490624
0.0490537
0.0490444
0.0490339
0.0490252
0.0490158
0.0490053
0.0489966
0.0489871
0.0489767
0.0489681
0.0489587
0.0489481
0.0489396
0.0489296
0.0489209
0.048911
0.0489026
0.0488934
0.0488834
0.0488754
0.048867
0.0488578
0.04885
0.0488417
0.0488325
0.0488249
0.0488164
0.0488069
0.0487992
0.0487906
0.048781
0.0487732
0.0487648
0.0487558
0.0487481
0.0487399
0.0487309
0.0487236
0.0487154
0.048706
0.0486985
0.0486902
0.0486809
0.0486735
0.0486655
0.0486566
0.0486494
0.0486415
0.0486329
0.0486259
0.0486184
0.04861
0.0486032
0.0485953
0.0485869
0.0485802
0.0485727
0.0485644
0.0485576
0.0485498
0.0485423
0.0485355
0.0485276
0.0485199
0.0485131
0.0485061
0.0484992
0.0484924
0.0484853
0.0484789
0.048472
0.0484645
0.0484581
0.0484517
0.0484446
0.0484387
0.0484322
0.0484257
0.0484194
0.0484128
0.0484061
0.0484005
0.0483947
0.0483883
0.0483827
0.0483766
0.0483703
0.0483649
0.0483594
0.0483528
0.0483469
0.0483408
0.0483353
0.04833
0.0483228
0.0483153
0.0483091
0.0483038
0.0482977
0.0482921
0.0482865
0.0482813
0.048276
0.0482708
0.0482659
0.0482607
0.048256
0.0482496
0.0482443
0.0482395
0.0482345
0.0482301
0.0482246
0.0482191
0.0482147
0.0482096
0.0482049
0.0481999
0.0481959
0.0481917
0.0481869
0.0481824
0.0481778
0.0481739
0.0481702
0.0481667
0.0481631
0.0481595
0.0481561
0.0481507
0.048147
0.0481437
0.0481397
0.0481366
0.0481339
0.0481293
0.0481262
0.0481234
0.0481183
0.0481158
0.0481138
0.0481091
0.0481071
0.0481058
0.0481043
0.0481028
0.0481013
0.0480995
0.0480952
0.0480934
0.0480922
0.0480909
0.0480896
0.0480883
0.0480866
0.0480815
0.0480803
0.0480801
0.0480784
0.0480771
0.0480733
0.0480726
0.0480722
0.0480716
0.0480706
0.0480671
0.0480667
0.0480663
0.0480623
0.0480618
0.0480617
0.0480579
0.0480567
0.0480564
0.0480549
0.048054
0.0480544
0.0480545
0.0480541
0.0480535
0.0480514
0.0480507
0.0480504
0.0480499
0.0480492
0.0480458
0.0480461
0.0480466
0.0480466
0.0480421
)
;
    }
    symmetry
    {
        type            symmetryPlane;
    }
    frontAndBack
    {
        type            empty;
    }
}


// ************************************************************************* //
