/*--------------------------------*- C++ -*----------------------------------*\
| =========                 |                                                 |
| \\      /  F ield         | OpenFOAM: The Open Source CFD Toolbox           |
|  \\    /   O peration     | Version:  v2012                                 |
|   \\  /    A nd           | Website:  www.openfoam.com                      |
|    \\/     M anipulation  |                                                 |
\*---------------------------------------------------------------------------*/
FoamFile
{
    version     2.0;
    format      ascii;
    class       volVectorField;
    location    "28";
    object      wallShearStress;
}
// * * * * * * * * * * * * * * * * * * * * * * * * * * * * * * * * * * * * * //

dimensions      [0 2 -2 0 0 0 0];


internalField   uniform (0 0 0);

boundaryField
{
    inlet
    {
        type            calculated;
        value           uniform (0 0 0);
    }
    outlet
    {
        type            calculated;
        value           uniform (0 0 0);
    }
    topWall
    {
        type            calculated;
        value           nonuniform List<vector> 
545
(
(1.48314e-08 -1.04398e-08 0)
(1.48247e-08 -2.92076e-08 0)
(1.48106e-08 -4.8721e-08 0)
(1.47901e-08 -6.76619e-08 0)
(1.47638e-08 -8.57838e-08 0)
(1.47325e-08 -1.03317e-07 0)
(1.46965e-08 -1.2041e-07 0)
(1.46562e-08 -1.37054e-07 0)
(1.4612e-08 -1.53209e-07 0)
(1.45642e-08 -1.68875e-07 0)
(1.45133e-08 -1.84072e-07 0)
(1.44595e-08 -1.98817e-07 0)
(1.44032e-08 -2.13122e-07 0)
(1.43446e-08 -2.26993e-07 0)
(1.42841e-08 -2.40443e-07 0)
(1.42219e-08 -2.53481e-07 0)
(1.41582e-08 -2.6612e-07 0)
(1.40933e-08 -2.78369e-07 0)
(1.40273e-08 -2.9024e-07 0)
(1.39604e-08 -3.01744e-07 0)
(1.38929e-08 -3.1289e-07 0)
(1.38249e-08 -3.2369e-07 0)
(1.37564e-08 -3.34153e-07 0)
(1.36878e-08 -3.4429e-07 0)
(1.3619e-08 -3.5411e-07 0)
(1.35503e-08 -3.63622e-07 0)
(1.34817e-08 -3.72838e-07 0)
(1.34133e-08 -3.81764e-07 0)
(1.33452e-08 -3.90411e-07 0)
(1.32775e-08 -3.98788e-07 0)
(1.32103e-08 -4.06902e-07 0)
(1.31436e-08 -4.14762e-07 0)
(1.30775e-08 -4.22377e-07 0)
(1.30121e-08 -4.29753e-07 0)
(1.29474e-08 -4.369e-07 0)
(1.28834e-08 -4.43823e-07 0)
(1.28202e-08 -4.5053e-07 0)
(1.27578e-08 -4.57029e-07 0)
(1.26963e-08 -4.63326e-07 0)
(1.26356e-08 -4.69427e-07 0)
(1.25758e-08 -4.75339e-07 0)
(1.2517e-08 -4.81068e-07 0)
(1.24591e-08 -4.8662e-07 0)
(1.24021e-08 -4.92001e-07 0)
(1.23461e-08 -4.97217e-07 0)
(1.2291e-08 -5.02271e-07 0)
(1.2237e-08 -5.07171e-07 0)
(1.21839e-08 -5.11921e-07 0)
(1.21317e-08 -5.16526e-07 0)
(1.20806e-08 -5.2099e-07 0)
(1.20304e-08 -5.25318e-07 0)
(1.19812e-08 -5.29515e-07 0)
(1.1933e-08 -5.33584e-07 0)
(1.18857e-08 -5.3753e-07 0)
(1.18393e-08 -5.41358e-07 0)
(1.1794e-08 -5.45069e-07 0)
(1.17495e-08 -5.4867e-07 0)
(1.1706e-08 -5.52162e-07 0)
(1.16634e-08 -5.5555e-07 0)
(1.16217e-08 -5.58836e-07 0)
(1.1581e-08 -5.62025e-07 0)
(1.15411e-08 -5.65118e-07 0)
(1.1502e-08 -5.6812e-07 0)
(1.14639e-08 -5.71033e-07 0)
(1.14266e-08 -5.73859e-07 0)
(1.13901e-08 -5.76603e-07 0)
(1.13544e-08 -5.79265e-07 0)
(1.13196e-08 -5.81849e-07 0)
(1.12855e-08 -5.84358e-07 0)
(1.12522e-08 -5.86793e-07 0)
(1.12197e-08 -5.89158e-07 0)
(1.11881e-08 -5.91449e-07 0)
(1.11574e-08 -5.93652e-07 0)
(1.11273e-08 -5.95787e-07 0)
(1.10975e-08 -5.97896e-07 0)
(1.10678e-08 -5.99992e-07 0)
(1.10382e-08 -6.02077e-07 0)
(1.10087e-08 -6.04146e-07 0)
(1.09792e-08 -6.062e-07 0)
(1.09498e-08 -6.08239e-07 0)
(1.09204e-08 -6.10263e-07 0)
(1.08911e-08 -6.12272e-07 0)
(1.08618e-08 -6.14267e-07 0)
(1.08326e-08 -6.16247e-07 0)
(1.08035e-08 -6.18213e-07 0)
(1.07744e-08 -6.20165e-07 0)
(1.07454e-08 -6.22103e-07 0)
(1.07165e-08 -6.24027e-07 0)
(1.06876e-08 -6.25936e-07 0)
(1.06588e-08 -6.27832e-07 0)
(1.06301e-08 -6.29714e-07 0)
(1.06014e-08 -6.31582e-07 0)
(1.05728e-08 -6.33438e-07 0)
(1.05443e-08 -6.35277e-07 0)
(1.05156e-08 -6.3711e-07 0)
(1.04881e-08 -6.38907e-07 0)
(1.04625e-08 -6.40552e-07 0)
(1.04382e-08 -6.42043e-07 0)
(1.04147e-08 -6.4349e-07 0)
(1.03914e-08 -6.44943e-07 0)
(1.0368e-08 -6.46409e-07 0)
(1.03446e-08 -6.47876e-07 0)
(1.0321e-08 -6.49342e-07 0)
(1.02974e-08 -6.50805e-07 0)
(1.02737e-08 -6.52269e-07 0)
(1.02499e-08 -6.53734e-07 0)
(1.0226e-08 -6.55199e-07 0)
(1.0202e-08 -6.56663e-07 0)
(1.01779e-08 -6.58128e-07 0)
(1.01537e-08 -6.59592e-07 0)
(1.01294e-08 -6.61057e-07 0)
(1.0105e-08 -6.62522e-07 0)
(1.00805e-08 -6.63986e-07 0)
(1.0056e-08 -6.6545e-07 0)
(1.00313e-08 -6.66914e-07 0)
(1.00065e-08 -6.68378e-07 0)
(9.98169e-09 -6.69842e-07 0)
(9.95675e-09 -6.71306e-07 0)
(9.93171e-09 -6.72769e-07 0)
(9.90658e-09 -6.74232e-07 0)
(9.88135e-09 -6.75695e-07 0)
(9.85603e-09 -6.77158e-07 0)
(9.83061e-09 -6.7862e-07 0)
(9.8051e-09 -6.80082e-07 0)
(9.7795e-09 -6.81543e-07 0)
(9.7538e-09 -6.83004e-07 0)
(9.728e-09 -6.84465e-07 0)
(9.70212e-09 -6.85925e-07 0)
(9.67613e-09 -6.87385e-07 0)
(9.65005e-09 -6.88845e-07 0)
(9.62388e-09 -6.90303e-07 0)
(9.59761e-09 -6.91762e-07 0)
(9.57125e-09 -6.93219e-07 0)
(9.54479e-09 -6.94677e-07 0)
(9.51824e-09 -6.96133e-07 0)
(9.49159e-09 -6.97589e-07 0)
(9.46484e-09 -6.99044e-07 0)
(9.43801e-09 -7.00499e-07 0)
(9.41107e-09 -7.01953e-07 0)
(9.38405e-09 -7.03406e-07 0)
(9.35692e-09 -7.04858e-07 0)
(9.32971e-09 -7.06309e-07 0)
(9.30239e-09 -7.0776e-07 0)
(9.27499e-09 -7.0921e-07 0)
(9.24748e-09 -7.10659e-07 0)
(9.21989e-09 -7.12107e-07 0)
(9.1922e-09 -7.13554e-07 0)
(9.16441e-09 -7.15e-07 0)
(9.13653e-09 -7.16445e-07 0)
(9.10855e-09 -7.1789e-07 0)
(9.08048e-09 -7.19333e-07 0)
(9.05232e-09 -7.20775e-07 0)
(9.02406e-09 -7.22216e-07 0)
(8.99571e-09 -7.23656e-07 0)
(8.96726e-09 -7.25094e-07 0)
(8.93872e-09 -7.26532e-07 0)
(8.91008e-09 -7.27968e-07 0)
(8.88136e-09 -7.29403e-07 0)
(8.85253e-09 -7.30837e-07 0)
(8.82362e-09 -7.32269e-07 0)
(8.79461e-09 -7.337e-07 0)
(8.7655e-09 -7.3513e-07 0)
(8.7363e-09 -7.36559e-07 0)
(8.70701e-09 -7.37986e-07 0)
(8.67763e-09 -7.39411e-07 0)
(8.64815e-09 -7.40835e-07 0)
(8.61858e-09 -7.42258e-07 0)
(8.58892e-09 -7.43679e-07 0)
(8.55917e-09 -7.45098e-07 0)
(8.52932e-09 -7.46516e-07 0)
(8.49938e-09 -7.47932e-07 0)
(8.46935e-09 -7.49347e-07 0)
(8.43923e-09 -7.5076e-07 0)
(8.40901e-09 -7.52171e-07 0)
(8.37871e-09 -7.5358e-07 0)
(8.34831e-09 -7.54988e-07 0)
(8.31782e-09 -7.56394e-07 0)
(8.28724e-09 -7.57798e-07 0)
(8.25657e-09 -7.592e-07 0)
(8.22581e-09 -7.606e-07 0)
(8.19496e-09 -7.61998e-07 0)
(8.16402e-09 -7.63394e-07 0)
(8.13299e-09 -7.64788e-07 0)
(8.10187e-09 -7.66181e-07 0)
(8.07067e-09 -7.67571e-07 0)
(8.03937e-09 -7.68959e-07 0)
(8.00798e-09 -7.70345e-07 0)
(7.97651e-09 -7.71728e-07 0)
(7.94494e-09 -7.7311e-07 0)
(7.91329e-09 -7.74489e-07 0)
(7.88155e-09 -7.75866e-07 0)
(7.84973e-09 -7.77241e-07 0)
(7.81782e-09 -7.78613e-07 0)
(7.78582e-09 -7.79983e-07 0)
(7.75373e-09 -7.8135e-07 0)
(7.72156e-09 -7.82715e-07 0)
(7.6893e-09 -7.84078e-07 0)
(7.65696e-09 -7.85438e-07 0)
(7.62453e-09 -7.86796e-07 0)
(7.59202e-09 -7.8815e-07 0)
(7.55943e-09 -7.89503e-07 0)
(7.52675e-09 -7.90852e-07 0)
(7.49398e-09 -7.92199e-07 0)
(7.46113e-09 -7.93544e-07 0)
(7.42821e-09 -7.94885e-07 0)
(7.39519e-09 -7.96224e-07 0)
(7.3621e-09 -7.9756e-07 0)
(7.32892e-09 -7.98893e-07 0)
(7.29567e-09 -8.00223e-07 0)
(7.26233e-09 -8.0155e-07 0)
(7.22891e-09 -8.02874e-07 0)
(7.19542e-09 -8.04196e-07 0)
(7.16184e-09 -8.05514e-07 0)
(7.12818e-09 -8.06829e-07 0)
(7.09445e-09 -8.08141e-07 0)
(7.06064e-09 -8.0945e-07 0)
(7.02675e-09 -8.10755e-07 0)
(6.99278e-09 -8.12058e-07 0)
(6.95874e-09 -8.13357e-07 0)
(6.92462e-09 -8.14652e-07 0)
(6.89043e-09 -8.15945e-07 0)
(6.85616e-09 -8.17234e-07 0)
(6.82181e-09 -8.1852e-07 0)
(6.7874e-09 -8.19802e-07 0)
(6.75291e-09 -8.21081e-07 0)
(6.71834e-09 -8.22356e-07 0)
(6.68371e-09 -8.23628e-07 0)
(6.649e-09 -8.24896e-07 0)
(6.61422e-09 -8.2616e-07 0)
(6.57937e-09 -8.27421e-07 0)
(6.54445e-09 -8.28678e-07 0)
(6.50946e-09 -8.29931e-07 0)
(6.47441e-09 -8.31181e-07 0)
(6.43928e-09 -8.32427e-07 0)
(6.40409e-09 -8.33668e-07 0)
(6.36883e-09 -8.34906e-07 0)
(6.3335e-09 -8.3614e-07 0)
(6.29811e-09 -8.3737e-07 0)
(6.26266e-09 -8.38596e-07 0)
(6.22714e-09 -8.39818e-07 0)
(6.19155e-09 -8.41036e-07 0)
(6.1559e-09 -8.4225e-07 0)
(6.1202e-09 -8.43459e-07 0)
(6.08443e-09 -8.44665e-07 0)
(6.04859e-09 -8.45866e-07 0)
(6.0127e-09 -8.47062e-07 0)
(5.97675e-09 -8.48255e-07 0)
(5.94074e-09 -8.49443e-07 0)
(5.90468e-09 -8.50627e-07 0)
(5.86855e-09 -8.51806e-07 0)
(5.83237e-09 -8.52981e-07 0)
(5.79613e-09 -8.54151e-07 0)
(5.75984e-09 -8.55316e-07 0)
(5.7235e-09 -8.56478e-07 0)
(5.6871e-09 -8.57634e-07 0)
(5.65065e-09 -8.58786e-07 0)
(5.61415e-09 -8.59933e-07 0)
(5.57759e-09 -8.61075e-07 0)
(5.54099e-09 -8.62213e-07 0)
(5.50434e-09 -8.63345e-07 0)
(5.46764e-09 -8.64473e-07 0)
(5.43089e-09 -8.65596e-07 0)
(5.3941e-09 -8.66714e-07 0)
(5.35725e-09 -8.67827e-07 0)
(5.32037e-09 -8.68935e-07 0)
(5.28343e-09 -8.70038e-07 0)
(5.2465e-09 -8.71135e-07 0)
(5.20933e-09 -8.72229e-07 0)
(5.17294e-09 -8.73309e-07 0)
(5.138e-09 -8.74334e-07 0)
(5.1039e-09 -8.75307e-07 0)
(5.07025e-09 -8.76267e-07 0)
(5.03646e-09 -8.77232e-07 0)
(5.00238e-09 -8.78206e-07 0)
(4.96798e-09 -8.79185e-07 0)
(4.93326e-09 -8.80167e-07 0)
(4.8982e-09 -8.81151e-07 0)
(4.86282e-09 -8.82139e-07 0)
(4.8271e-09 -8.83131e-07 0)
(4.79104e-09 -8.84127e-07 0)
(4.75465e-09 -8.85125e-07 0)
(4.71791e-09 -8.86127e-07 0)
(4.68083e-09 -8.87131e-07 0)
(4.64341e-09 -8.88139e-07 0)
(4.60565e-09 -8.89149e-07 0)
(4.56754e-09 -8.90162e-07 0)
(4.52908e-09 -8.91177e-07 0)
(4.49027e-09 -8.92195e-07 0)
(4.45111e-09 -8.93215e-07 0)
(4.4116e-09 -8.94236e-07 0)
(4.37173e-09 -8.9526e-07 0)
(4.33151e-09 -8.96285e-07 0)
(4.29094e-09 -8.97312e-07 0)
(4.25001e-09 -8.9834e-07 0)
(4.20872e-09 -8.99369e-07 0)
(4.16707e-09 -9.004e-07 0)
(4.12507e-09 -9.01431e-07 0)
(4.0827e-09 -9.02462e-07 0)
(4.03997e-09 -9.03494e-07 0)
(3.99688e-09 -9.04526e-07 0)
(3.95343e-09 -9.05559e-07 0)
(3.90962e-09 -9.0659e-07 0)
(3.86545e-09 -9.07622e-07 0)
(3.82091e-09 -9.08653e-07 0)
(3.77601e-09 -9.09682e-07 0)
(3.73075e-09 -9.10711e-07 0)
(3.68513e-09 -9.11738e-07 0)
(3.63914e-09 -9.12764e-07 0)
(3.5928e-09 -9.13788e-07 0)
(3.54609e-09 -9.14809e-07 0)
(3.49902e-09 -9.15828e-07 0)
(3.4516e-09 -9.16844e-07 0)
(3.40381e-09 -9.17857e-07 0)
(3.35567e-09 -9.18867e-07 0)
(3.30717e-09 -9.19873e-07 0)
(3.25832e-09 -9.20875e-07 0)
(3.20911e-09 -9.21873e-07 0)
(3.15956e-09 -9.22867e-07 0)
(3.10965e-09 -9.23855e-07 0)
(3.0594e-09 -9.24838e-07 0)
(3.0088e-09 -9.25816e-07 0)
(2.95786e-09 -9.26788e-07 0)
(2.90659e-09 -9.27753e-07 0)
(2.85497e-09 -9.28712e-07 0)
(2.80302e-09 -9.29664e-07 0)
(2.75074e-09 -9.30608e-07 0)
(2.69813e-09 -9.31545e-07 0)
(2.6452e-09 -9.32473e-07 0)
(2.59195e-09 -9.33393e-07 0)
(2.53838e-09 -9.34304e-07 0)
(2.48451e-09 -9.35205e-07 0)
(2.43032e-09 -9.36097e-07 0)
(2.37584e-09 -9.36978e-07 0)
(2.32106e-09 -9.37849e-07 0)
(2.26598e-09 -9.38708e-07 0)
(2.21063e-09 -9.39556e-07 0)
(2.15499e-09 -9.40392e-07 0)
(2.09907e-09 -9.41215e-07 0)
(2.04289e-09 -9.42025e-07 0)
(1.98645e-09 -9.42822e-07 0)
(1.92976e-09 -9.43605e-07 0)
(1.87282e-09 -9.44373e-07 0)
(1.81563e-09 -9.45126e-07 0)
(1.75822e-09 -9.45864e-07 0)
(1.70058e-09 -9.46585e-07 0)
(1.64273e-09 -9.4729e-07 0)
(1.58468e-09 -9.47978e-07 0)
(1.52642e-09 -9.48649e-07 0)
(1.46798e-09 -9.49301e-07 0)
(1.40935e-09 -9.49934e-07 0)
(1.35056e-09 -9.50548e-07 0)
(1.29162e-09 -9.51143e-07 0)
(1.23252e-09 -9.51716e-07 0)
(1.17329e-09 -9.52269e-07 0)
(1.11393e-09 -9.528e-07 0)
(1.05445e-09 -9.53309e-07 0)
(9.94878e-10 -9.53795e-07 0)
(9.35213e-10 -9.54258e-07 0)
(8.75471e-10 -9.54697e-07 0)
(8.15665e-10 -9.55111e-07 0)
(7.55808e-10 -9.555e-07 0)
(6.95913e-10 -9.55863e-07 0)
(6.35995e-10 -9.56199e-07 0)
(5.76068e-10 -9.56509e-07 0)
(5.16146e-10 -9.5679e-07 0)
(4.56245e-10 -9.57044e-07 0)
(3.96379e-10 -9.57268e-07 0)
(3.36565e-10 -9.57463e-07 0)
(2.76819e-10 -9.57627e-07 0)
(2.17156e-10 -9.57761e-07 0)
(1.57593e-10 -9.57862e-07 0)
(9.81477e-11 -9.57932e-07 0)
(3.88367e-11 -9.57969e-07 0)
(-2.03222e-11 -9.57972e-07 0)
(-7.93113e-11 -9.57942e-07 0)
(-1.38112e-10 -9.57876e-07 0)
(-1.96707e-10 -9.57775e-07 0)
(-2.55076e-10 -9.57638e-07 0)
(-3.13202e-10 -9.57465e-07 0)
(-3.71064e-10 -9.57254e-07 0)
(-4.28643e-10 -9.57005e-07 0)
(-4.8592e-10 -9.56718e-07 0)
(-5.42874e-10 -9.56392e-07 0)
(-5.99486e-10 -9.56026e-07 0)
(-6.55734e-10 -9.55619e-07 0)
(-7.116e-10 -9.55172e-07 0)
(-7.67061e-10 -9.54683e-07 0)
(-8.22097e-10 -9.54152e-07 0)
(-8.76686e-10 -9.53579e-07 0)
(-9.30809e-10 -9.52962e-07 0)
(-9.84443e-10 -9.52302e-07 0)
(-1.03757e-09 -9.51597e-07 0)
(-1.09016e-09 -9.50848e-07 0)
(-1.1422e-09 -9.50053e-07 0)
(-1.19367e-09 -9.49212e-07 0)
(-1.24454e-09 -9.48326e-07 0)
(-1.2948e-09 -9.47392e-07 0)
(-1.34441e-09 -9.46412e-07 0)
(-1.39337e-09 -9.45383e-07 0)
(-1.44164e-09 -9.44307e-07 0)
(-1.48922e-09 -9.43183e-07 0)
(-1.53607e-09 -9.42009e-07 0)
(-1.58218e-09 -9.40787e-07 0)
(-1.62752e-09 -9.39515e-07 0)
(-1.67208e-09 -9.38193e-07 0)
(-1.71583e-09 -9.36822e-07 0)
(-1.75875e-09 -9.354e-07 0)
(-1.80083e-09 -9.33927e-07 0)
(-1.84205e-09 -9.32404e-07 0)
(-1.88238e-09 -9.3083e-07 0)
(-1.92181e-09 -9.29205e-07 0)
(-1.96033e-09 -9.27528e-07 0)
(-1.9979e-09 -9.258e-07 0)
(-2.03451e-09 -9.24021e-07 0)
(-2.07016e-09 -9.2219e-07 0)
(-2.10481e-09 -9.20308e-07 0)
(-2.13846e-09 -9.18374e-07 0)
(-2.17109e-09 -9.16389e-07 0)
(-2.20268e-09 -9.14352e-07 0)
(-2.23323e-09 -9.12264e-07 0)
(-2.26271e-09 -9.10125e-07 0)
(-2.29111e-09 -9.07934e-07 0)
(-2.31843e-09 -9.05693e-07 0)
(-2.34465e-09 -9.03401e-07 0)
(-2.36976e-09 -9.01059e-07 0)
(-2.39374e-09 -8.98667e-07 0)
(-2.4166e-09 -8.96225e-07 0)
(-2.43832e-09 -8.93734e-07 0)
(-2.45889e-09 -8.91194e-07 0)
(-2.47831e-09 -8.88605e-07 0)
(-2.49657e-09 -8.85968e-07 0)
(-2.51367e-09 -8.83284e-07 0)
(-2.5296e-09 -8.80553e-07 0)
(-2.54435e-09 -8.77775e-07 0)
(-2.55793e-09 -8.74952e-07 0)
(-2.57034e-09 -8.72083e-07 0)
(-2.58156e-09 -8.6917e-07 0)
(-2.59161e-09 -8.66213e-07 0)
(-2.60048e-09 -8.63213e-07 0)
(-2.60817e-09 -8.60171e-07 0)
(-2.61469e-09 -8.57087e-07 0)
(-2.62004e-09 -8.53963e-07 0)
(-2.62422e-09 -8.508e-07 0)
(-2.62725e-09 -8.47597e-07 0)
(-2.62912e-09 -8.44357e-07 0)
(-2.62984e-09 -8.4108e-07 0)
(-2.62942e-09 -8.37767e-07 0)
(-2.62785e-09 -8.34418e-07 0)
(-2.62526e-09 -8.31039e-07 0)
(-2.62113e-09 -8.27591e-07 0)
(-2.61535e-09 -8.23784e-07 0)
(-2.60811e-09 -8.19608e-07 0)
(-2.5992e-09 -8.15365e-07 0)
(-2.58883e-09 -8.11147e-07 0)
(-2.57715e-09 -8.0697e-07 0)
(-2.56424e-09 -8.02817e-07 0)
(-2.55018e-09 -7.98681e-07 0)
(-2.53502e-09 -7.94565e-07 0)
(-2.51882e-09 -7.90475e-07 0)
(-2.50166e-09 -7.86414e-07 0)
(-2.48358e-09 -7.82381e-07 0)
(-2.46465e-09 -7.78378e-07 0)
(-2.4449e-09 -7.74406e-07 0)
(-2.42441e-09 -7.70467e-07 0)
(-2.4032e-09 -7.66562e-07 0)
(-2.38133e-09 -7.62691e-07 0)
(-2.35884e-09 -7.58857e-07 0)
(-2.33576e-09 -7.55059e-07 0)
(-2.31215e-09 -7.51299e-07 0)
(-2.28802e-09 -7.47578e-07 0)
(-2.26342e-09 -7.43897e-07 0)
(-2.23839e-09 -7.40255e-07 0)
(-2.21294e-09 -7.36654e-07 0)
(-2.1871e-09 -7.33095e-07 0)
(-2.16092e-09 -7.29578e-07 0)
(-2.1344e-09 -7.26104e-07 0)
(-2.10757e-09 -7.22673e-07 0)
(-2.08045e-09 -7.19285e-07 0)
(-2.05307e-09 -7.15942e-07 0)
(-2.02544e-09 -7.12643e-07 0)
(-1.99759e-09 -7.09389e-07 0)
(-1.96952e-09 -7.0618e-07 0)
(-1.94125e-09 -7.03017e-07 0)
(-1.91279e-09 -6.999e-07 0)
(-1.88416e-09 -6.96829e-07 0)
(-1.85538e-09 -6.93804e-07 0)
(-1.82644e-09 -6.90826e-07 0)
(-1.79736e-09 -6.87895e-07 0)
(-1.76816e-09 -6.85011e-07 0)
(-1.73883e-09 -6.82175e-07 0)
(-1.70938e-09 -6.79386e-07 0)
(-1.67983e-09 -6.76645e-07 0)
(-1.65017e-09 -6.73951e-07 0)
(-1.62042e-09 -6.71306e-07 0)
(-1.59057e-09 -6.68709e-07 0)
(-1.56064e-09 -6.6616e-07 0)
(-1.53062e-09 -6.6366e-07 0)
(-1.50051e-09 -6.61208e-07 0)
(-1.47033e-09 -6.58805e-07 0)
(-1.44007e-09 -6.56452e-07 0)
(-1.40973e-09 -6.54147e-07 0)
(-1.37932e-09 -6.51891e-07 0)
(-1.34884e-09 -6.49684e-07 0)
(-1.31829e-09 -6.47527e-07 0)
(-1.28767e-09 -6.45419e-07 0)
(-1.25697e-09 -6.43361e-07 0)
(-1.22621e-09 -6.41353e-07 0)
(-1.19538e-09 -6.39394e-07 0)
(-1.16448e-09 -6.37486e-07 0)
(-1.13352e-09 -6.35627e-07 0)
(-1.10248e-09 -6.33818e-07 0)
(-1.07138e-09 -6.3206e-07 0)
(-1.04021e-09 -6.30352e-07 0)
(-1.00897e-09 -6.28695e-07 0)
(-9.77665e-10 -6.27088e-07 0)
(-9.46292e-10 -6.25532e-07 0)
(-9.14852e-10 -6.24027e-07 0)
(-8.83346e-10 -6.22572e-07 0)
(-8.51773e-10 -6.21169e-07 0)
(-8.20135e-10 -6.19817e-07 0)
(-7.88432e-10 -6.18515e-07 0)
(-7.56665e-10 -6.17266e-07 0)
(-7.24834e-10 -6.16067e-07 0)
(-6.92942e-10 -6.14921e-07 0)
(-6.6099e-10 -6.13826e-07 0)
(-6.28978e-10 -6.12782e-07 0)
(-5.96908e-10 -6.11791e-07 0)
(-5.64783e-10 -6.10851e-07 0)
(-5.32603e-10 -6.09964e-07 0)
(-5.00372e-10 -6.09128e-07 0)
(-4.68091e-10 -6.08345e-07 0)
(-4.35763e-10 -6.07614e-07 0)
(-4.0339e-10 -6.06935e-07 0)
(-3.70975e-10 -6.06309e-07 0)
(-3.38521e-10 -6.05734e-07 0)
(-3.06031e-10 -6.05216e-07 0)
(-2.73506e-10 -6.04735e-07 0)
(-2.40956e-10 -6.04361e-07 0)
(-2.0836e-10 -6.03857e-07 0)
(-1.75805e-10 -6.04004e-07 0)
(-1.43014e-10 -6.02178e-07 0)
(-1.10934e-10 -6.06871e-07 0)
(-7.65104e-11 -5.8856e-07 0)
(-5.03605e-11 -6.36789e-07 0)
(-2.1554e-11 -5.56135e-07 0)
)
;
    }
    bottomWall
    {
        type            calculated;
        value           nonuniform List<vector> 
449
(
(-48.5487 -0.964332 0)
(-19.7574 -0.00515717 0)
(-14.3479 -0.00113524 0)
(-12.0373 -0.000545723 0)
(-10.6306 -0.000351659 0)
(-9.63635 -0.000256115 0)
(-8.87792 -0.000198581 0)
(-8.27412 -0.000159893 0)
(-7.77845 -0.000132389 0)
(-7.36162 -0.000112033 0)
(-7.00444 -9.64246e-05 0)
(-6.69387 -8.41117e-05 0)
(-6.42058 -7.41889e-05 0)
(-6.17766 -6.60574e-05 0)
(-5.95987 -5.92971e-05 0)
(-5.76313 -5.36048e-05 0)
(-5.58424 -4.87581e-05 0)
(-5.42065 -4.45912e-05 0)
(-5.2703 -4.09779e-05 0)
(-5.13147 -3.78208e-05 0)
(-5.00276 -3.50431e-05 0)
(-4.88299 -3.25841e-05 0)
(-4.77117 -3.0395e-05 0)
(-4.66646 -2.84361e-05 0)
(-4.56812 -2.6675e-05 0)
(-4.47552 -2.50849e-05 0)
(-4.38814 -2.36434e-05 0)
(-4.30549 -2.2332e-05 0)
(-4.22716 -2.11347e-05 0)
(-4.15278 -2.00382e-05 0)
(-4.08203 -1.90311e-05 0)
(-4.01462 -1.81035e-05 0)
(-3.95029 -1.72469e-05 0)
(-3.88882 -1.6454e-05 0)
(-3.82999 -1.57183e-05 0)
(-3.77363 -1.50343e-05 0)
(-3.71955 -1.4397e-05 0)
(-3.66762 -1.38021e-05 0)
(-3.61769 -1.32458e-05 0)
(-3.56963 -1.27247e-05 0)
(-3.52333 -1.22358e-05 0)
(-3.47868 -1.17763e-05 0)
(-3.43559 -1.13439e-05 0)
(-3.39396 -1.09363e-05 0)
(-3.35372 -1.05517e-05 0)
(-3.31479 -1.01883e-05 0)
(-3.27709 -9.84447e-06 0)
(-3.24057 -9.51878e-06 0)
(-3.20516 -9.20994e-06 0)
(-3.17081 -8.91676e-06 0)
(-3.13746 -8.63816e-06 0)
(-3.10507 -8.37314e-06 0)
(-3.07359 -8.12082e-06 0)
(-3.04298 -7.88035e-06 0)
(-3.01319 -7.65098e-06 0)
(-2.9842 -7.43201e-06 0)
(-2.95596 -7.22279e-06 0)
(-2.92845 -7.02273e-06 0)
(-2.90163 -6.8313e-06 0)
(-2.87547 -6.64797e-06 0)
(-2.84995 -6.47227e-06 0)
(-2.82504 -6.30379e-06 0)
(-2.80072 -6.14211e-06 0)
(-2.77696 -5.98685e-06 0)
(-2.75374 -5.83767e-06 0)
(-2.73104 -5.69424e-06 0)
(-2.70884 -5.55627e-06 0)
(-2.68713 -5.42346e-06 0)
(-2.66588 -5.29555e-06 0)
(-2.64508 -5.1723e-06 0)
(-2.62472 -5.05348e-06 0)
(-2.60477 -4.93886e-06 0)
(-2.58522 -4.82825e-06 0)
(-2.56607 -4.72144e-06 0)
(-2.54729 -4.61828e-06 0)
(-2.52888 -4.51857e-06 0)
(-2.51081 -4.42217e-06 0)
(-2.49309 -4.32893e-06 0)
(-2.47571 -4.2387e-06 0)
(-2.45864 -4.15136e-06 0)
(-2.44188 -4.06677e-06 0)
(-2.42542 -3.98482e-06 0)
(-2.40925 -3.90539e-06 0)
(-2.39337 -3.82838e-06 0)
(-2.37776 -3.75369e-06 0)
(-2.36242 -3.68122e-06 0)
(-2.34734 -3.61089e-06 0)
(-2.33251 -3.5426e-06 0)
(-2.31792 -3.47628e-06 0)
(-2.30357 -3.41184e-06 0)
(-2.28946 -3.34922e-06 0)
(-2.27556 -3.28835e-06 0)
(-2.26189 -3.22915e-06 0)
(-2.24843 -3.17157e-06 0)
(-2.23518 -3.11555e-06 0)
(-2.22213 -3.06103e-06 0)
(-2.20928 -3.00794e-06 0)
(-2.19662 -2.95625e-06 0)
(-2.18414 -2.9059e-06 0)
(-2.17185 -2.85685e-06 0)
(-2.15974 -2.80904e-06 0)
(-2.1478 -2.76244e-06 0)
(-2.13603 -2.71701e-06 0)
(-2.12443 -2.6727e-06 0)
(-2.11299 -2.62947e-06 0)
(-2.1017 -2.5873e-06 0)
(-2.09057 -2.54614e-06 0)
(-2.07959 -2.50596e-06 0)
(-2.06876 -2.46674e-06 0)
(-2.05807 -2.42843e-06 0)
(-2.04752 -2.39101e-06 0)
(-2.03711 -2.35446e-06 0)
(-2.02683 -2.31874e-06 0)
(-2.01669 -2.28383e-06 0)
(-2.00667 -2.2497e-06 0)
(-1.99678 -2.21633e-06 0)
(-1.98701 -2.1837e-06 0)
(-1.97736 -2.15179e-06 0)
(-1.96783 -2.12057e-06 0)
(-1.95842 -2.09002e-06 0)
(-1.94912 -2.06013e-06 0)
(-1.93993 -2.03087e-06 0)
(-1.93085 -2.00223e-06 0)
(-1.92187 -1.97418e-06 0)
(-1.913 -1.94672e-06 0)
(-1.90424 -1.91982e-06 0)
(-1.89557 -1.89348e-06 0)
(-1.887 -1.86766e-06 0)
(-1.87853 -1.84237e-06 0)
(-1.87015 -1.81758e-06 0)
(-1.86186 -1.79328e-06 0)
(-1.85367 -1.76946e-06 0)
(-1.84556 -1.74611e-06 0)
(-1.83755 -1.72321e-06 0)
(-1.82962 -1.70075e-06 0)
(-1.82177 -1.67872e-06 0)
(-1.81401 -1.6571e-06 0)
(-1.80633 -1.6359e-06 0)
(-1.79873 -1.6151e-06 0)
(-1.7912 -1.59468e-06 0)
(-1.78376 -1.57464e-06 0)
(-1.77639 -1.55496e-06 0)
(-1.76909 -1.53565e-06 0)
(-1.76187 -1.51668e-06 0)
(-1.75472 -1.49806e-06 0)
(-1.74764 -1.47977e-06 0)
(-1.74063 -1.46181e-06 0)
(-1.73369 -1.44416e-06 0)
(-1.72682 -1.42682e-06 0)
(-1.72001 -1.40979e-06 0)
(-1.71327 -1.39305e-06 0)
(-1.7066 -1.3766e-06 0)
(-1.69998 -1.36043e-06 0)
(-1.69343 -1.34453e-06 0)
(-1.68694 -1.32891e-06 0)
(-1.68051 -1.31355e-06 0)
(-1.67414 -1.29844e-06 0)
(-1.66782 -1.28358e-06 0)
(-1.66157 -1.26897e-06 0)
(-1.65537 -1.2546e-06 0)
(-1.64922 -1.24047e-06 0)
(-1.64313 -1.22656e-06 0)
(-1.6371 -1.21288e-06 0)
(-1.63111 -1.19942e-06 0)
(-1.62518 -1.18617e-06 0)
(-1.6193 -1.17314e-06 0)
(-1.61348 -1.1603e-06 0)
(-1.6077 -1.14768e-06 0)
(-1.60197 -1.13528e-06 0)
(-1.59629 -1.12293e-06 0)
(-1.59066 -1.11122e-06 0)
(-1.58507 -1.0991e-06 0)
(-1.57953 -1.08597e-06 0)
(-1.57435 -1.0758e-06 0)
(-1.56949 -1.06754e-06 0)
(-1.56461 -1.05715e-06 0)
(-1.55973 -1.04644e-06 0)
(-1.55484 -1.03641e-06 0)
(-1.54995 -1.02636e-06 0)
(-1.54505 -1.01643e-06 0)
(-1.54015 -1.00656e-06 0)
(-1.53524 -9.96766e-07 0)
(-1.53033 -9.87027e-07 0)
(-1.52541 -9.77348e-07 0)
(-1.52049 -9.67726e-07 0)
(-1.51557 -9.5816e-07 0)
(-1.51064 -9.4865e-07 0)
(-1.5057 -9.39196e-07 0)
(-1.50076 -9.29798e-07 0)
(-1.49582 -9.20455e-07 0)
(-1.49088 -9.11168e-07 0)
(-1.48593 -9.01938e-07 0)
(-1.48098 -8.92764e-07 0)
(-1.47603 -8.83646e-07 0)
(-1.47107 -8.74585e-07 0)
(-1.46611 -8.65581e-07 0)
(-1.46115 -8.56634e-07 0)
(-1.45619 -8.47744e-07 0)
(-1.45122 -8.38913e-07 0)
(-1.44626 -8.30139e-07 0)
(-1.44129 -8.21423e-07 0)
(-1.43632 -8.12765e-07 0)
(-1.43135 -8.04166e-07 0)
(-1.42638 -7.95625e-07 0)
(-1.42141 -7.87143e-07 0)
(-1.41644 -7.7872e-07 0)
(-1.41146 -7.70356e-07 0)
(-1.40649 -7.62051e-07 0)
(-1.40152 -7.53806e-07 0)
(-1.39655 -7.4562e-07 0)
(-1.39158 -7.37493e-07 0)
(-1.38661 -7.29426e-07 0)
(-1.38164 -7.21419e-07 0)
(-1.37667 -7.13471e-07 0)
(-1.37171 -7.05583e-07 0)
(-1.36674 -6.97755e-07 0)
(-1.36178 -6.89987e-07 0)
(-1.35682 -6.82279e-07 0)
(-1.35186 -6.74631e-07 0)
(-1.34691 -6.67043e-07 0)
(-1.34196 -6.59515e-07 0)
(-1.33701 -6.52047e-07 0)
(-1.33206 -6.44638e-07 0)
(-1.32711 -6.3729e-07 0)
(-1.32217 -6.30002e-07 0)
(-1.31724 -6.22773e-07 0)
(-1.3123 -6.15604e-07 0)
(-1.30737 -6.08495e-07 0)
(-1.30245 -6.01446e-07 0)
(-1.29752 -5.94456e-07 0)
(-1.29261 -5.87526e-07 0)
(-1.2877 -5.80655e-07 0)
(-1.28279 -5.73844e-07 0)
(-1.27788 -5.67091e-07 0)
(-1.27299 -5.60398e-07 0)
(-1.2681 -5.53764e-07 0)
(-1.26321 -5.47188e-07 0)
(-1.25833 -5.40671e-07 0)
(-1.25345 -5.34213e-07 0)
(-1.24858 -5.27813e-07 0)
(-1.24372 -5.21472e-07 0)
(-1.23886 -5.15188e-07 0)
(-1.23401 -5.08963e-07 0)
(-1.22917 -5.02795e-07 0)
(-1.22433 -4.96684e-07 0)
(-1.2195 -4.90631e-07 0)
(-1.21468 -4.84635e-07 0)
(-1.20986 -4.78696e-07 0)
(-1.20505 -4.72813e-07 0)
(-1.20025 -4.66987e-07 0)
(-1.19546 -4.61218e-07 0)
(-1.19067 -4.55504e-07 0)
(-1.1859 -4.49846e-07 0)
(-1.18113 -4.44244e-07 0)
(-1.17637 -4.38696e-07 0)
(-1.17161 -4.33204e-07 0)
(-1.16687 -4.27767e-07 0)
(-1.16213 -4.22384e-07 0)
(-1.15741 -4.17056e-07 0)
(-1.15269 -4.11781e-07 0)
(-1.14798 -4.0656e-07 0)
(-1.14328 -4.01393e-07 0)
(-1.13859 -3.96279e-07 0)
(-1.13391 -3.91217e-07 0)
(-1.12924 -3.86208e-07 0)
(-1.12458 -3.81252e-07 0)
(-1.11993 -3.76347e-07 0)
(-1.11529 -3.71494e-07 0)
(-1.11066 -3.66693e-07 0)
(-1.10604 -3.61942e-07 0)
(-1.10143 -3.57242e-07 0)
(-1.09683 -3.52593e-07 0)
(-1.09224 -3.47994e-07 0)
(-1.08766 -3.43444e-07 0)
(-1.0831 -3.38944e-07 0)
(-1.07854 -3.34494e-07 0)
(-1.07399 -3.30092e-07 0)
(-1.06946 -3.25738e-07 0)
(-1.06494 -3.21433e-07 0)
(-1.06042 -3.17175e-07 0)
(-1.05592 -3.12965e-07 0)
(-1.05144 -3.08802e-07 0)
(-1.04696 -3.04686e-07 0)
(-1.04249 -3.00616e-07 0)
(-1.03804 -2.96592e-07 0)
(-1.0336 -2.92614e-07 0)
(-1.02917 -2.88682e-07 0)
(-1.02475 -2.84795e-07 0)
(-1.02035 -2.80952e-07 0)
(-1.01595 -2.77154e-07 0)
(-1.01157 -2.734e-07 0)
(-1.0072 -2.69689e-07 0)
(-1.00285 -2.66022e-07 0)
(-0.998504 -2.62398e-07 0)
(-0.994174 -2.58816e-07 0)
(-0.989856 -2.55277e-07 0)
(-0.985551 -2.51779e-07 0)
(-0.981259 -2.48323e-07 0)
(-0.97698 -2.44909e-07 0)
(-0.972714 -2.41535e-07 0)
(-0.968461 -2.38202e-07 0)
(-0.964221 -2.34909e-07 0)
(-0.959995 -2.31655e-07 0)
(-0.955781 -2.28441e-07 0)
(-0.951581 -2.25267e-07 0)
(-0.947395 -2.2213e-07 0)
(-0.943222 -2.19033e-07 0)
(-0.939062 -2.15973e-07 0)
(-0.934916 -2.12951e-07 0)
(-0.930784 -2.09967e-07 0)
(-0.926666 -2.07019e-07 0)
(-0.922561 -2.04108e-07 0)
(-0.91847 -2.01233e-07 0)
(-0.914392 -1.98394e-07 0)
(-0.910329 -1.95591e-07 0)
(-0.90628 -1.92823e-07 0)
(-0.902244 -1.9009e-07 0)
(-0.898223 -1.87392e-07 0)
(-0.894215 -1.84727e-07 0)
(-0.890222 -1.82097e-07 0)
(-0.886243 -1.795e-07 0)
(-0.882278 -1.76936e-07 0)
(-0.878327 -1.74406e-07 0)
(-0.87439 -1.71907e-07 0)
(-0.870468 -1.69441e-07 0)
(-0.86656 -1.67007e-07 0)
(-0.862666 -1.64604e-07 0)
(-0.858787 -1.62233e-07 0)
(-0.854922 -1.59892e-07 0)
(-0.851072 -1.57582e-07 0)
(-0.847235 -1.55302e-07 0)
(-0.843414 -1.53052e-07 0)
(-0.839607 -1.50832e-07 0)
(-0.835814 -1.48641e-07 0)
(-0.832036 -1.46479e-07 0)
(-0.828272 -1.44345e-07 0)
(-0.824523 -1.4224e-07 0)
(-0.820788 -1.40163e-07 0)
(-0.817069 -1.38113e-07 0)
(-0.813363 -1.36091e-07 0)
(-0.809672 -1.34096e-07 0)
(-0.805996 -1.32128e-07 0)
(-0.802335 -1.30186e-07 0)
(-0.798688 -1.28271e-07 0)
(-0.795056 -1.26381e-07 0)
(-0.791438 -1.24517e-07 0)
(-0.787835 -1.22678e-07 0)
(-0.784247 -1.20864e-07 0)
(-0.780674 -1.19073e-07 0)
(-0.777115 -1.17309e-07 0)
(-0.773571 -1.15565e-07 0)
(-0.770041 -1.13814e-07 0)
(-0.766529 -1.122e-07 0)
(-0.763024 -1.10597e-07 0)
(-0.759144 -1.08655e-07 0)
(-0.754937 -1.06599e-07 0)
(-0.750808 -1.04746e-07 0)
(-0.746746 -1.02984e-07 0)
(-0.742754 -1.01206e-07 0)
(-0.738831 -9.94611e-08 0)
(-0.734976 -9.776e-08 0)
(-0.731186 -9.61044e-08 0)
(-0.72746 -9.44931e-08 0)
(-0.723796 -9.29247e-08 0)
(-0.720193 -9.13981e-08 0)
(-0.716649 -8.99121e-08 0)
(-0.713162 -8.84652e-08 0)
(-0.709731 -8.70561e-08 0)
(-0.706354 -8.56834e-08 0)
(-0.70303 -8.43459e-08 0)
(-0.699758 -8.30423e-08 0)
(-0.696536 -8.17714e-08 0)
(-0.693363 -8.05322e-08 0)
(-0.690238 -7.93235e-08 0)
(-0.68716 -7.81443e-08 0)
(-0.684128 -7.69936e-08 0)
(-0.681139 -7.58705e-08 0)
(-0.678194 -7.4774e-08 0)
(-0.675292 -7.37033e-08 0)
(-0.672431 -7.26576e-08 0)
(-0.66961 -7.1636e-08 0)
(-0.666829 -7.06378e-08 0)
(-0.664087 -6.96623e-08 0)
(-0.661382 -6.87087e-08 0)
(-0.658714 -6.77763e-08 0)
(-0.656082 -6.68646e-08 0)
(-0.653485 -6.59728e-08 0)
(-0.650923 -6.51005e-08 0)
(-0.648394 -6.42469e-08 0)
(-0.645899 -6.34116e-08 0)
(-0.643436 -6.2594e-08 0)
(-0.641004 -6.17937e-08 0)
(-0.638604 -6.101e-08 0)
(-0.636234 -6.02425e-08 0)
(-0.633893 -5.94909e-08 0)
(-0.631582 -5.87545e-08 0)
(-0.629299 -5.80331e-08 0)
(-0.627044 -5.73261e-08 0)
(-0.624816 -5.66333e-08 0)
(-0.622616 -5.59541e-08 0)
(-0.620441 -5.52883e-08 0)
(-0.618292 -5.46355e-08 0)
(-0.616169 -5.39954e-08 0)
(-0.61407 -5.33676e-08 0)
(-0.611996 -5.27517e-08 0)
(-0.609945 -5.21476e-08 0)
(-0.607918 -5.15549e-08 0)
(-0.605914 -5.09733e-08 0)
(-0.603933 -5.04025e-08 0)
(-0.601973 -4.98423e-08 0)
(-0.600035 -4.92925e-08 0)
(-0.598119 -4.87527e-08 0)
(-0.596223 -4.82228e-08 0)
(-0.594348 -4.77024e-08 0)
(-0.592493 -4.71915e-08 0)
(-0.590658 -4.66898e-08 0)
(-0.588843 -4.61971e-08 0)
(-0.587046 -4.57131e-08 0)
(-0.585268 -4.52378e-08 0)
(-0.583509 -4.4771e-08 0)
(-0.581768 -4.43124e-08 0)
(-0.580044 -4.3862e-08 0)
(-0.578338 -4.34197e-08 0)
(-0.576649 -4.29852e-08 0)
(-0.574977 -4.25585e-08 0)
(-0.573322 -4.21395e-08 0)
(-0.571682 -4.17282e-08 0)
(-0.570059 -4.13245e-08 0)
(-0.568451 -4.09284e-08 0)
(-0.566859 -4.054e-08 0)
(-0.565282 -4.01593e-08 0)
(-0.563719 -3.97865e-08 0)
(-0.562171 -3.94219e-08 0)
(-0.560637 -3.90659e-08 0)
(-0.559116 -3.8719e-08 0)
(-0.557609 -3.83821e-08 0)
(-0.556115 -3.80566e-08 0)
(-0.554634 -3.77437e-08 0)
(-0.553164 -3.74464e-08 0)
(-0.551706 -3.71757e-08 0)
(-0.550258 -3.69087e-08 0)
(-0.54882 -3.66923e-08 0)
(-0.547389 -3.67228e-08 0)
(-0.545949 -3.61516e-08 0)
(-0.544563 -3.52918e-08 0)
(-0.54319 -4.66728e-08 0)
(-0.540913 -1.27527e-08 0)
(-0.542204 -3.42857e-08 0)
(-0.53819 -5.22414e-08 0)
)
;
    }
    symmetry
    {
        type            symmetryPlane;
    }
    frontAndBack
    {
        type            empty;
    }
}


// ************************************************************************* //
