/*--------------------------------*- C++ -*----------------------------------*\
| =========                 |                                                 |
| \\      /  F ield         | OpenFOAM: The Open Source CFD Toolbox           |
|  \\    /   O peration     | Version:  v2012                                 |
|   \\  /    A nd           | Website:  www.openfoam.com                      |
|    \\/     M anipulation  |                                                 |
\*---------------------------------------------------------------------------*/
FoamFile
{
    version     2.0;
    format      ascii;
    class       volScalarField;
    location    "6";
    object      epsilon;
}
// * * * * * * * * * * * * * * * * * * * * * * * * * * * * * * * * * * * * * //

dimensions      [0 2 -3 0 0 0 0];


internalField   nonuniform List<scalar> 
209825
(
0.80036
0.787829
0.784949
0.78393
0.783432
0.783165
0.782996
0.782888
0.782806
0.782753
0.782704
0.782673
0.782634
0.782619
0.782606
0.782597
0.782584
0.782577
0.782566
0.782563
0.782552
0.782557
0.782555
0.78256
0.782558
0.782569
0.782569
0.782582
0.782582
0.782599
0.782599
0.782614
0.782614
0.78263
0.78263
0.782648
0.782648
0.782674
0.782674
0.78269
0.78269
0.782711
0.782711
0.782737
0.782737
0.782762
0.782762
0.782785
0.782785
0.782813
0.782813
0.782848
0.782848
0.782848
0.782855
0.782854
0.782891
0.782891
0.782936
0.782936
0.782936
0.782929
0.782992
0.782993
0.783008
0.783008
0.783104
0.783104
0.783104
0.783179
0.783179
0.783178
0.783258
0.783258
0.783386
0.783438
0.78349
0.783571
0.783648
0.783648
0.783808
0.783863
0.78403
0.784245
0.784419
0.784697
0.785022
0.785464
0.786123
0.786769
0.788255
0.789303
0.793848
0.803207
1.02991
190.517
0.800348
0.787803
0.784917
0.783895
0.783395
0.783128
0.782958
0.78285
0.782767
0.782714
0.782665
0.782634
0.782595
0.78258
0.782567
0.782558
0.782544
0.782538
0.782527
0.782523
0.782513
0.782517
0.782516
0.782521
0.782519
0.782529
0.782529
0.782542
0.782542
0.78256
0.78256
0.782575
0.782575
0.782591
0.782591
0.782609
0.782609
0.782634
0.782634
0.782651
0.782651
0.782672
0.782672
0.782697
0.782697
0.782723
0.782723
0.782745
0.782745
0.782774
0.782774
0.782809
0.782809
0.782809
0.782815
0.782815
0.782852
0.782852
0.782897
0.782897
0.782897
0.78289
0.782954
0.782954
0.782969
0.782969
0.783065
0.783066
0.783066
0.78314
0.78314
0.78314
0.78322
0.78322
0.783348
0.7834
0.783451
0.783533
0.783611
0.783611
0.783771
0.783825
0.783993
0.784208
0.784382
0.784661
0.784986
0.785429
0.786089
0.786736
0.788223
0.789274
0.79382
0.803207
1.03055
187.429
0.800282
0.787677
0.784768
0.783736
0.783231
0.782961
0.782788
0.782679
0.782595
0.782541
0.782491
0.78246
0.782421
0.782405
0.782392
0.782383
0.782369
0.782363
0.782352
0.782348
0.782337
0.782342
0.78234
0.782345
0.782343
0.782354
0.782353
0.782366
0.782366
0.782384
0.782384
0.782399
0.782399
0.782415
0.782415
0.782433
0.782433
0.782459
0.782459
0.782475
0.782475
0.782496
0.782496
0.782522
0.782522
0.782547
0.782547
0.78257
0.78257
0.782599
0.782599
0.782634
0.782634
0.782634
0.782641
0.78264
0.782677
0.782677
0.782723
0.782723
0.782722
0.782716
0.78278
0.78278
0.782796
0.782796
0.782892
0.782892
0.782892
0.782967
0.782967
0.782967
0.783048
0.783048
0.783176
0.783229
0.78328
0.783362
0.783441
0.783441
0.783601
0.783657
0.783825
0.784041
0.784216
0.784496
0.784823
0.785267
0.785929
0.786579
0.78807
0.789127
0.793664
0.803151
1.03216
184.112
0.800167
0.787461
0.784515
0.783466
0.782952
0.782676
0.7825
0.782389
0.782303
0.782248
0.782197
0.782165
0.782125
0.782109
0.782096
0.782086
0.782072
0.782065
0.782054
0.78205
0.782039
0.782043
0.782042
0.782047
0.782044
0.782055
0.782055
0.782068
0.782068
0.782085
0.782085
0.7821
0.7821
0.782117
0.782117
0.782135
0.782135
0.782161
0.782161
0.782177
0.782177
0.782198
0.782198
0.782224
0.782224
0.78225
0.78225
0.782273
0.782273
0.782301
0.782301
0.782337
0.782337
0.782337
0.782344
0.782344
0.782381
0.782381
0.782427
0.782427
0.782426
0.78242
0.782485
0.782485
0.7825
0.7825
0.782597
0.782598
0.782598
0.782674
0.782674
0.782674
0.782755
0.782755
0.782884
0.782938
0.782989
0.783072
0.783152
0.783152
0.783314
0.78337
0.783539
0.783757
0.783934
0.784215
0.784544
0.784992
0.785658
0.786312
0.787808
0.788876
0.793394
0.803047
1.03478
181.263
0.800004
0.787156
0.784156
0.783083
0.782556
0.782273
0.782092
0.781978
0.78189
0.781832
0.78178
0.781748
0.781706
0.78169
0.781676
0.781665
0.781651
0.781644
0.781633
0.781628
0.781617
0.781621
0.781619
0.781624
0.781622
0.781632
0.781632
0.781645
0.781645
0.781663
0.781663
0.781678
0.781678
0.781694
0.781694
0.781712
0.781712
0.781739
0.781739
0.781755
0.781755
0.781776
0.781776
0.781803
0.781803
0.781828
0.781828
0.781852
0.781852
0.781881
0.781881
0.781916
0.781917
0.781917
0.781924
0.781923
0.781962
0.781962
0.782008
0.782008
0.782007
0.782001
0.782067
0.782068
0.782083
0.782082
0.78218
0.782181
0.782181
0.782258
0.782258
0.782258
0.782341
0.782341
0.78247
0.782526
0.782577
0.782661
0.782743
0.782743
0.782906
0.782964
0.783133
0.783354
0.783534
0.783817
0.784149
0.784601
0.785272
0.785932
0.787434
0.788518
0.793009
0.802893
1.03847
179.16
0.799793
0.78676
0.783691
0.782587
0.782043
0.78175
0.781563
0.781444
0.781353
0.781293
0.781239
0.781205
0.781163
0.781145
0.78113
0.781119
0.781105
0.781098
0.781086
0.781081
0.781069
0.781073
0.781071
0.781076
0.781073
0.781084
0.781084
0.781096
0.781096
0.781114
0.781114
0.781129
0.781129
0.781146
0.781146
0.781164
0.781164
0.781191
0.781191
0.781208
0.781207
0.781229
0.781229
0.781256
0.781256
0.781281
0.781281
0.781305
0.781305
0.781334
0.781334
0.78137
0.781371
0.781371
0.781378
0.781378
0.781417
0.781417
0.781464
0.781464
0.781463
0.781457
0.781524
0.781526
0.78154
0.78154
0.781639
0.78164
0.78164
0.781719
0.781719
0.781719
0.781803
0.781803
0.781933
0.781991
0.782041
0.782127
0.782212
0.782212
0.782377
0.782436
0.782606
0.782831
0.783013
0.7833
0.783636
0.784092
0.78477
0.785438
0.786947
0.788052
0.792506
0.802689
1.04334
177.899
0.799534
0.786274
0.783118
0.781975
0.781411
0.781106
0.78091
0.780786
0.780691
0.780628
0.780572
0.780536
0.780492
0.780473
0.780458
0.780446
0.780431
0.780423
0.780411
0.780406
0.780393
0.780397
0.780395
0.780399
0.780396
0.780407
0.780407
0.780419
0.780419
0.780437
0.780437
0.780452
0.780452
0.780469
0.780469
0.780487
0.780487
0.780515
0.780515
0.780532
0.780532
0.780553
0.780553
0.78058
0.78058
0.780607
0.780607
0.78063
0.78063
0.78066
0.78066
0.780696
0.780698
0.780698
0.780705
0.780705
0.780746
0.780746
0.780792
0.780792
0.780792
0.780786
0.780854
0.780857
0.78087
0.78087
0.780971
0.780973
0.780973
0.781053
0.781053
0.781053
0.781138
0.781139
0.78127
0.78133
0.781381
0.781468
0.781555
0.781556
0.781723
0.781784
0.781956
0.782185
0.782371
0.782661
0.783002
0.783464
0.784149
0.784827
0.786345
0.787474
0.791883
0.802433
1.04946
177.479
0.799227
0.785695
0.782436
0.781246
0.780657
0.780337
0.780132
0.780001
0.779901
0.779835
0.779776
0.779738
0.779692
0.779672
0.779656
0.779643
0.779627
0.779619
0.779606
0.7796
0.779587
0.779591
0.779588
0.779592
0.779589
0.779599
0.779599
0.779612
0.779611
0.779629
0.779629
0.779645
0.779645
0.779662
0.779662
0.77968
0.77968
0.779708
0.779708
0.779725
0.779725
0.779747
0.779747
0.779775
0.779775
0.779802
0.779802
0.779826
0.779826
0.779856
0.779856
0.779892
0.779895
0.779895
0.779902
0.779902
0.779944
0.779944
0.779991
0.779991
0.779991
0.779985
0.780055
0.780059
0.780071
0.780071
0.780174
0.780176
0.780176
0.780259
0.780259
0.780259
0.780346
0.780346
0.78048
0.780543
0.780592
0.780682
0.780773
0.780774
0.780943
0.781007
0.78118
0.781413
0.781604
0.781898
0.782244
0.782713
0.783407
0.784096
0.785624
0.786783
0.791136
0.802122
1.05694
177.835
0.798874
0.785024
0.781644
0.780399
0.77978
0.779442
0.779226
0.779087
0.778982
0.778912
0.778849
0.778809
0.778761
0.778739
0.778721
0.778708
0.778691
0.778682
0.778668
0.778662
0.778649
0.778652
0.778649
0.778653
0.778649
0.778659
0.778659
0.778671
0.778671
0.778689
0.778689
0.778705
0.778705
0.778722
0.778722
0.77874
0.77874
0.778769
0.778769
0.778786
0.778786
0.778808
0.778808
0.778837
0.778837
0.778864
0.778864
0.778888
0.778888
0.778919
0.778919
0.778956
0.778959
0.778959
0.778966
0.778966
0.779011
0.779011
0.779058
0.779058
0.779058
0.779052
0.779124
0.77913
0.779141
0.779141
0.779245
0.779248
0.779248
0.779333
0.779334
0.779334
0.779423
0.779424
0.779559
0.779625
0.779674
0.779766
0.779861
0.779862
0.780034
0.780101
0.780275
0.780514
0.78071
0.781009
0.781361
0.781838
0.782542
0.783243
0.784782
0.785975
0.790264
0.801753
1.06589
178.86
0.798473
0.784259
0.78074
0.779431
0.778778
0.77842
0.77819
0.778043
0.777931
0.777856
0.77779
0.777747
0.777696
0.777672
0.777653
0.777638
0.77762
0.777611
0.777596
0.77759
0.777575
0.777577
0.777574
0.777578
0.777573
0.777583
0.777583
0.777595
0.777595
0.777613
0.777613
0.777629
0.777629
0.777646
0.777646
0.777665
0.777665
0.777695
0.777695
0.777712
0.777712
0.777734
0.777734
0.777764
0.777764
0.777792
0.777792
0.777816
0.777816
0.777848
0.777848
0.777885
0.777889
0.777889
0.777896
0.777896
0.777943
0.777943
0.777991
0.777991
0.777991
0.777985
0.77806
0.778067
0.778077
0.778077
0.778183
0.778187
0.778187
0.778275
0.778276
0.778276
0.778368
0.778368
0.778505
0.778575
0.778623
0.778718
0.778817
0.778819
0.778994
0.779064
0.77924
0.779486
0.779686
0.779991
0.78035
0.780835
0.781551
0.782265
0.783816
0.785048
0.789263
0.801325
1.07641
180.422
0.798026
0.783402
0.779723
0.778342
0.777649
0.777268
0.777023
0.776865
0.776745
0.776666
0.776595
0.776549
0.776495
0.776469
0.776448
0.776432
0.776413
0.776402
0.776386
0.776379
0.776364
0.776366
0.776362
0.776365
0.77636
0.77637
0.776369
0.776382
0.776381
0.7764
0.776399
0.776416
0.776415
0.776433
0.776433
0.776452
0.776452
0.776483
0.776483
0.7765
0.7765
0.776523
0.776523
0.776554
0.776554
0.776582
0.776582
0.776607
0.776607
0.776639
0.776639
0.776677
0.776682
0.776682
0.776689
0.776689
0.776739
0.776739
0.776787
0.776787
0.776787
0.776781
0.776858
0.776867
0.776876
0.776876
0.776985
0.77699
0.77699
0.77708
0.777082
0.777082
0.777177
0.777177
0.777315
0.77739
0.777437
0.777535
0.777639
0.777643
0.777821
0.777894
0.778072
0.778324
0.778531
0.778841
0.779208
0.779702
0.78043
0.78116
0.782723
0.783999
0.78813
0.800833
1.0886
182.374
0.797533
0.78245
0.778593
0.777129
0.776392
0.775984
0.775722
0.775552
0.775424
0.775338
0.775262
0.775212
0.775156
0.775127
0.775104
0.775086
0.775065
0.775054
0.775037
0.775029
0.775012
0.775014
0.77501
0.775012
0.775006
0.775016
0.775015
0.775027
0.775027
0.775045
0.775045
0.775062
0.775062
0.77508
0.77508
0.775099
0.775099
0.775131
0.775131
0.775148
0.775148
0.775171
0.775171
0.775203
0.775203
0.775232
0.775232
0.775258
0.775258
0.77529
0.77529
0.775329
0.775335
0.775335
0.775342
0.775342
0.775395
0.775395
0.775444
0.775444
0.775444
0.775438
0.775518
0.775528
0.775536
0.775536
0.775647
0.775654
0.775654
0.775748
0.775749
0.775749
0.775847
0.775847
0.775988
0.776068
0.776114
0.776215
0.776325
0.776329
0.776511
0.776588
0.776768
0.777027
0.777241
0.777558
0.777932
0.778437
0.779178
0.779924
0.7815
0.782825
0.786863
0.800274
1.10257
184.56
0.796995
0.781404
0.777347
0.775791
0.775004
0.774567
0.774285
0.774102
0.773964
0.773871
0.773789
0.773735
0.773675
0.773643
0.773618
0.773599
0.773576
0.773563
0.773545
0.773537
0.773519
0.773519
0.773515
0.773516
0.77351
0.773519
0.773518
0.77353
0.773529
0.773548
0.773548
0.773565
0.773565
0.773583
0.773583
0.773603
0.773603
0.773636
0.773636
0.773653
0.773653
0.773677
0.773677
0.77371
0.77371
0.773739
0.773739
0.773766
0.773765
0.773799
0.773799
0.773838
0.773845
0.773845
0.773853
0.773853
0.773909
0.77391
0.773958
0.773959
0.773958
0.773953
0.774036
0.774047
0.774054
0.774054
0.774169
0.774176
0.774176
0.774274
0.774276
0.774276
0.774377
0.774377
0.774521
0.774606
0.77465
0.774755
0.774871
0.774876
0.775062
0.775143
0.775325
0.775592
0.775813
0.776137
0.77652
0.777036
0.777791
0.778555
0.780143
0.781522
0.785458
0.799642
1.11843
186.828
0.796413
0.780263
0.775985
0.774326
0.773483
0.773013
0.772709
0.772511
0.772362
0.772261
0.772173
0.772115
0.77205
0.772016
0.771987
0.771966
0.771942
0.771928
0.771908
0.771899
0.77188
0.77188
0.771874
0.771875
0.771868
0.771877
0.771876
0.771888
0.771886
0.771906
0.771905
0.771922
0.771922
0.771941
0.77194
0.77196
0.77196
0.771995
0.771995
0.772013
0.772013
0.772037
0.772037
0.772071
0.772071
0.772101
0.772101
0.772128
0.772128
0.772162
0.772162
0.772202
0.772211
0.77221
0.772219
0.772219
0.772277
0.772279
0.772328
0.772328
0.772328
0.772323
0.772409
0.772422
0.772428
0.772428
0.772546
0.772555
0.772555
0.772656
0.772659
0.772659
0.772764
0.772764
0.77291
0.773
0.773044
0.773152
0.773274
0.773281
0.773471
0.773556
0.773741
0.774016
0.774245
0.774576
0.774968
0.775496
0.776266
0.777049
0.778648
0.780088
0.783911
0.798933
1.13627
189.034
0.795787
0.779028
0.774506
0.772733
0.771829
0.771321
0.770993
0.770779
0.770617
0.770508
0.770413
0.770349
0.77028
0.770242
0.77021
0.770187
0.770161
0.770145
0.770124
0.770113
0.770093
0.770092
0.770086
0.770086
0.770077
0.770086
0.770085
0.770096
0.770094
0.770114
0.770114
0.770131
0.770131
0.77015
0.770149
0.77017
0.77017
0.770206
0.770206
0.770224
0.770224
0.770248
0.770248
0.770283
0.770283
0.770315
0.770315
0.770342
0.770342
0.770377
0.770377
0.770417
0.770428
0.770428
0.770436
0.770436
0.770498
0.770502
0.77055
0.770551
0.77055
0.770545
0.770634
0.77065
0.770655
0.770655
0.770775
0.770786
0.770786
0.770891
0.770895
0.770895
0.771004
0.771004
0.771153
0.77125
0.771291
0.771404
0.771533
0.771542
0.771736
0.771826
0.772012
0.772296
0.772534
0.772873
0.773274
0.773814
0.774599
0.775403
0.777014
0.778518
0.78222
0.79814
1.15617
191.043
0.79512
0.777699
0.772909
0.771011
0.770038
0.769489
0.769134
0.768902
0.768726
0.768607
0.768504
0.768435
0.76836
0.768318
0.768283
0.768258
0.768229
0.768212
0.768189
0.768177
0.768155
0.768153
0.768146
0.768145
0.768136
0.768144
0.768142
0.768154
0.768151
0.768171
0.768171
0.768188
0.768188
0.768207
0.768207
0.768228
0.768228
0.768265
0.768265
0.768283
0.768283
0.768308
0.768308
0.768345
0.768345
0.768377
0.768377
0.768406
0.768405
0.768441
0.768441
0.768482
0.768494
0.768494
0.768503
0.768503
0.768568
0.768573
0.768622
0.768622
0.768622
0.768617
0.76871
0.768727
0.768731
0.768731
0.768855
0.768868
0.768868
0.768977
0.768982
0.768982
0.769095
0.769095
0.769247
0.76935
0.76939
0.769507
0.769643
0.769654
0.769853
0.769948
0.770136
0.77043
0.770677
0.771023
0.771435
0.771987
0.772788
0.773614
0.775234
0.77681
0.78038
0.797258
1.1782
192.735
0.794411
0.776275
0.771194
0.769158
0.768109
0.767515
0.76713
0.766877
0.766687
0.766557
0.766445
0.766369
0.766289
0.766243
0.766204
0.766176
0.766144
0.766125
0.7661
0.766087
0.766064
0.766061
0.766053
0.766051
0.76604
0.766048
0.766046
0.766057
0.766054
0.766074
0.766074
0.766091
0.766091
0.76611
0.76611
0.766131
0.766131
0.76617
0.76617
0.766189
0.766189
0.766214
0.766214
0.766253
0.766253
0.766286
0.766286
0.766315
0.766315
0.766352
0.766351
0.766393
0.766407
0.766407
0.766416
0.766416
0.766485
0.766492
0.766541
0.766541
0.76654
0.766535
0.766632
0.766652
0.766655
0.766655
0.766782
0.766797
0.766797
0.766911
0.766916
0.766916
0.767034
0.767034
0.767189
0.767299
0.767338
0.767458
0.767603
0.767616
0.76782
0.767919
0.76811
0.768413
0.768669
0.769025
0.769446
0.770012
0.770829
0.771678
0.773307
0.77496
0.778388
0.796279
1.20241
194.008
0.793664
0.774758
0.769359
0.767173
0.766041
0.765397
0.764979
0.764704
0.764497
0.764355
0.764233
0.76415
0.764064
0.764012
0.76397
0.763939
0.763904
0.763883
0.763856
0.763841
0.763816
0.763812
0.763803
0.7638
0.763787
0.763795
0.763793
0.763803
0.763799
0.76382
0.76382
0.763837
0.763836
0.763856
0.763856
0.763878
0.763878
0.763918
0.763918
0.763937
0.763937
0.763963
0.763963
0.764003
0.764003
0.764037
0.764037
0.764067
0.764067
0.764105
0.764105
0.764146
0.764163
0.764163
0.764172
0.764172
0.764245
0.764255
0.764303
0.764303
0.764302
0.764297
0.764398
0.76442
0.764422
0.764422
0.764553
0.764571
0.764571
0.764689
0.764695
0.764695
0.764818
0.764818
0.764976
0.765094
0.76513
0.765256
0.765408
0.765424
0.765633
0.765738
0.765931
0.766243
0.76651
0.766874
0.767306
0.767886
0.768718
0.769591
0.771227
0.772965
0.77624
0.795195
1.22881
194.777
0.792878
0.773148
0.767404
0.765054
0.763832
0.763133
0.762678
0.762379
0.762153
0.761998
0.761866
0.761775
0.761682
0.761625
0.761578
0.761543
0.761506
0.761482
0.761452
0.761436
0.761409
0.761403
0.761393
0.761389
0.761375
0.761382
0.761379
0.761389
0.761385
0.761405
0.761405
0.761422
0.761422
0.761442
0.761442
0.761464
0.761464
0.761506
0.761506
0.761525
0.761525
0.761551
0.761551
0.761594
0.761594
0.761629
0.761629
0.76166
0.76166
0.761698
0.761698
0.76174
0.761759
0.76176
0.761769
0.761769
0.761846
0.761858
0.761905
0.761905
0.761905
0.7619
0.762005
0.762029
0.76203
0.76203
0.762165
0.762186
0.762185
0.762309
0.762316
0.762316
0.762444
0.762444
0.762605
0.76273
0.762765
0.762895
0.763056
0.763075
0.763289
0.763399
0.763594
0.763917
0.764194
0.764568
0.76501
0.765604
0.766453
0.767351
0.768992
0.77082
0.773933
0.793997
1.2574
194.974
0.792056
0.771445
0.76533
0.762801
0.761479
0.76072
0.760226
0.759899
0.759654
0.759485
0.75934
0.759241
0.75914
0.759077
0.759025
0.758987
0.758946
0.758919
0.758887
0.758869
0.75884
0.758832
0.758821
0.758816
0.7588
0.758807
0.758803
0.758812
0.758807
0.758828
0.758828
0.758845
0.758844
0.758865
0.758865
0.758887
0.758887
0.758931
0.758931
0.75895
0.75895
0.758977
0.758977
0.759021
0.759021
0.759058
0.759058
0.759089
0.759089
0.759129
0.759129
0.759171
0.759193
0.759193
0.759203
0.759202
0.759283
0.759299
0.759345
0.759345
0.759345
0.75934
0.759449
0.759476
0.759477
0.759477
0.759615
0.759639
0.759639
0.759767
0.759775
0.759775
0.759908
0.759909
0.760072
0.760207
0.76024
0.760374
0.760544
0.760566
0.760786
0.760902
0.761099
0.761431
0.761719
0.762103
0.762556
0.763164
0.764029
0.764953
0.766597
0.768521
0.771462
0.792676
1.28813
194.556
0.791199
0.76965
0.763135
0.760412
0.758982
0.758158
0.75762
0.757264
0.756997
0.756811
0.756654
0.756545
0.756435
0.756366
0.756309
0.756266
0.756221
0.756192
0.756157
0.756137
0.756105
0.756096
0.756084
0.756077
0.75606
0.756065
0.756061
0.756069
0.756063
0.756084
0.756084
0.756101
0.7561
0.756121
0.756121
0.756143
0.756143
0.75619
0.75619
0.756209
0.756209
0.756236
0.756236
0.756283
0.756282
0.756321
0.756321
0.756353
0.756353
0.756394
0.756393
0.756436
0.756461
0.756461
0.756471
0.75647
0.756556
0.756575
0.75662
0.75662
0.75662
0.756615
0.756728
0.756757
0.756758
0.756758
0.7569
0.756927
0.756927
0.75706
0.75707
0.75707
0.757208
0.75721
0.757376
0.757519
0.75755
0.757689
0.757868
0.757894
0.758119
0.758241
0.75844
0.758783
0.759082
0.759476
0.759939
0.760562
0.761442
0.762394
0.764039
0.766065
0.768825
0.791221
1.32089
193.488
0.790309
0.767765
0.760819
0.757886
0.756339
0.755444
0.754859
0.75447
0.754179
0.753976
0.753804
0.753685
0.753566
0.75349
0.753426
0.75338
0.75333
0.753298
0.753259
0.753237
0.753202
0.753192
0.753178
0.75317
0.75315
0.753155
0.75315
0.753157
0.75315
0.753171
0.753171
0.753188
0.753187
0.753208
0.753208
0.75323
0.75323
0.753279
0.753279
0.753299
0.753298
0.753326
0.753326
0.753375
0.753375
0.753414
0.753414
0.753447
0.753447
0.753489
0.753489
0.753531
0.75356
0.75356
0.75357
0.75357
0.753659
0.753682
0.753726
0.753726
0.753726
0.753721
0.753839
0.75387
0.753871
0.75387
0.754017
0.754047
0.754047
0.754186
0.754197
0.754197
0.754341
0.754344
0.754513
0.754664
0.754694
0.754837
0.755026
0.755055
0.755287
0.755414
0.755615
0.755968
0.756279
0.756683
0.757157
0.757795
0.75869
0.75967
0.761313
0.763446
0.766018
0.789621
1.35554
191.751
0.789389
0.76579
0.758382
0.755223
0.753549
0.752576
0.751939
0.751515
0.751198
0.750976
0.750789
0.750658
0.750529
0.750445
0.750375
0.750323
0.750269
0.750233
0.750191
0.750167
0.750129
0.750117
0.7501
0.750092
0.75007
0.750073
0.750067
0.750074
0.750065
0.750086
0.750086
0.750103
0.750102
0.750123
0.750123
0.750145
0.750145
0.750196
0.750196
0.750216
0.750216
0.750244
0.750244
0.750295
0.750295
0.750336
0.750336
0.75037
0.75037
0.750413
0.750412
0.750455
0.750487
0.750487
0.750497
0.750497
0.750591
0.750618
0.750661
0.750661
0.750661
0.750656
0.750778
0.750812
0.750812
0.750812
0.750962
0.750997
0.750997
0.751141
0.751154
0.751154
0.751303
0.751307
0.751479
0.75164
0.751668
0.751815
0.752014
0.752047
0.752285
0.752418
0.75262
0.752983
0.753307
0.753721
0.754206
0.754858
0.755768
0.756777
0.758415
0.76066
0.763037
0.787865
1.39185
189.35
0.78844
0.763727
0.755826
0.752422
0.750611
0.749553
0.74886
0.748398
0.748052
0.747809
0.747605
0.747462
0.747322
0.747229
0.747151
0.747095
0.747035
0.746996
0.74695
0.746923
0.746882
0.746867
0.746849
0.746839
0.746815
0.746817
0.74681
0.746815
0.746805
0.746826
0.746826
0.746842
0.746841
0.746863
0.746863
0.746885
0.746885
0.746938
0.746938
0.746958
0.746958
0.746986
0.746986
0.74704
0.74704
0.747083
0.747083
0.747117
0.747117
0.747161
0.747161
0.747203
0.747239
0.747239
0.747249
0.747249
0.747347
0.747379
0.74742
0.74742
0.74742
0.747416
0.747543
0.747579
0.747579
0.747579
0.747733
0.747772
0.747772
0.747922
0.747936
0.747936
0.748091
0.748097
0.748271
0.748441
0.748468
0.74862
0.748829
0.748867
0.749111
0.74925
0.749453
0.749826
0.750162
0.750587
0.751082
0.751749
0.752673
0.753711
0.755342
0.757703
0.759879
0.785939
1.42956
186.298
0.787464
0.761578
0.753149
0.749483
0.747523
0.746374
0.74562
0.745115
0.744738
0.744473
0.74425
0.744093
0.743942
0.743839
0.743754
0.743691
0.743626
0.743583
0.743532
0.743502
0.743458
0.743441
0.74342
0.743408
0.743382
0.743383
0.743375
0.743379
0.743367
0.743388
0.743388
0.743404
0.743403
0.743424
0.743424
0.743446
0.743446
0.743501
0.743501
0.743521
0.743521
0.74355
0.74355
0.743606
0.743606
0.743651
0.743651
0.743686
0.743686
0.743731
0.743731
0.743773
0.743813
0.743813
0.743823
0.743823
0.743925
0.743962
0.744002
0.744002
0.744002
0.743998
0.744129
0.744169
0.744169
0.744168
0.744326
0.74437
0.74437
0.744526
0.744542
0.744542
0.744702
0.74471
0.744887
0.745067
0.745092
0.745248
0.745467
0.74551
0.745761
0.745906
0.74611
0.746492
0.746841
0.747277
0.747783
0.748464
0.7494
0.750469
0.752089
0.754569
0.75654
0.783829
1.46828
182.622
0.786465
0.759345
0.750353
0.746405
0.744284
0.743037
0.742216
0.741666
0.741255
0.740965
0.740722
0.740551
0.740386
0.740273
0.740179
0.74011
0.740039
0.739991
0.739936
0.739902
0.739854
0.739835
0.739811
0.739798
0.73977
0.739769
0.73976
0.739762
0.739749
0.739769
0.739769
0.739784
0.739783
0.739804
0.739804
0.739826
0.739826
0.739883
0.739883
0.739903
0.739903
0.739932
0.739932
0.739991
0.739991
0.740038
0.740038
0.740074
0.740074
0.74012
0.74012
0.740161
0.740206
0.740206
0.740215
0.740215
0.740323
0.740364
0.740404
0.740404
0.740403
0.740399
0.740535
0.740578
0.740578
0.740577
0.740739
0.740788
0.740789
0.74095
0.740967
0.740967
0.741133
0.741144
0.741323
0.741513
0.741537
0.741696
0.741926
0.741974
0.742232
0.742382
0.742587
0.742979
0.74334
0.743788
0.744303
0.744999
0.745947
0.747046
0.748653
0.751254
0.753017
0.781522
1.5076
178.357
0.785443
0.757029
0.747439
0.743188
0.740894
0.73954
0.738648
0.738049
0.7376
0.737284
0.737019
0.736831
0.736653
0.736529
0.736425
0.736349
0.736271
0.736218
0.736158
0.736121
0.736069
0.736046
0.73602
0.736005
0.735974
0.735972
0.735961
0.735961
0.735946
0.735966
0.735966
0.735981
0.735979
0.736
0.736
0.736022
0.736021
0.736081
0.736081
0.736101
0.736101
0.736131
0.736131
0.736192
0.736192
0.736242
0.736241
0.736277
0.736277
0.736324
0.736325
0.736365
0.736415
0.736414
0.736424
0.736424
0.736536
0.736583
0.736621
0.736621
0.736621
0.736616
0.736757
0.736803
0.736803
0.736802
0.736968
0.737023
0.737023
0.73719
0.73721
0.73721
0.737381
0.737395
0.737576
0.737776
0.737799
0.737962
0.738202
0.738256
0.738521
0.738677
0.738883
0.739283
0.739657
0.740116
0.740641
0.741351
0.742309
0.743439
0.745031
0.747753
0.749307
0.779003
1.54697
173.548
0.784403
0.754634
0.744408
0.739832
0.737353
0.735883
0.734914
0.734261
0.733773
0.733427
0.733139
0.732933
0.732739
0.732603
0.732489
0.732405
0.73232
0.732261
0.732196
0.732155
0.732098
0.732072
0.732043
0.732026
0.731993
0.731989
0.731977
0.731975
0.731957
0.731977
0.731977
0.731991
0.731988
0.732009
0.732009
0.732031
0.732029
0.732092
0.732092
0.732112
0.732112
0.732142
0.732142
0.732206
0.732206
0.732258
0.732257
0.732294
0.732294
0.732342
0.732342
0.732381
0.732436
0.732436
0.732446
0.732446
0.732562
0.732615
0.732651
0.732651
0.732651
0.732647
0.732792
0.732842
0.732842
0.73284
0.73301
0.733072
0.733072
0.733245
0.733266
0.733266
0.733443
0.733461
0.733644
0.733853
0.733876
0.734042
0.734292
0.734352
0.734624
0.734786
0.734992
0.7354
0.735788
0.736258
0.736792
0.737516
0.738484
0.739643
0.741217
0.744061
0.745407
0.776255
1.5858
168.244
0.783346
0.752161
0.741261
0.736338
0.733659
0.732065
0.731012
0.730301
0.72977
0.729392
0.729079
0.728854
0.728643
0.728494
0.728369
0.728276
0.728183
0.728119
0.728047
0.728001
0.72794
0.727911
0.727879
0.727859
0.727823
0.727817
0.727803
0.7278
0.727779
0.727798
0.727798
0.727811
0.727807
0.727829
0.727829
0.72785
0.727848
0.727913
0.727913
0.727933
0.727933
0.727963
0.727963
0.72803
0.72803
0.728084
0.728084
0.728121
0.728121
0.72817
0.72817
0.728208
0.728268
0.728268
0.728277
0.728277
0.728399
0.728457
0.728492
0.728492
0.728492
0.728488
0.728638
0.728691
0.728691
0.728689
0.728863
0.728931
0.728931
0.72911
0.729133
0.729133
0.729316
0.729338
0.729522
0.729741
0.729764
0.729934
0.730193
0.73026
0.73054
0.730707
0.730913
0.731328
0.73173
0.732212
0.732753
0.733491
0.734466
0.735657
0.73721
0.740173
0.741312
0.773264
1.6234
162.5
0.782276
0.749613
0.738
0.732707
0.729813
0.728085
0.726942
0.726168
0.72559
0.725178
0.724837
0.724591
0.724363
0.7242
0.724062
0.72396
0.723859
0.723787
0.723709
0.723659
0.723593
0.72356
0.723523
0.723502
0.723463
0.723455
0.723439
0.723433
0.723409
0.723428
0.723428
0.72344
0.723435
0.723456
0.723456
0.723476
0.723474
0.723541
0.723541
0.723561
0.723561
0.723591
0.723591
0.723661
0.723661
0.723718
0.723718
0.723756
0.723756
0.723805
0.723805
0.723841
0.723908
0.723907
0.723916
0.723916
0.724042
0.724106
0.72414
0.72414
0.72414
0.724136
0.724291
0.724348
0.724348
0.724346
0.724523
0.724599
0.724599
0.724784
0.724809
0.724809
0.724997
0.725024
0.725209
0.725438
0.725461
0.725634
0.725903
0.725977
0.726264
0.726437
0.726642
0.727064
0.727479
0.727972
0.728522
0.729273
0.730254
0.731474
0.733006
0.736083
0.737021
0.770013
1.659
156.375
0.781194
0.746994
0.734626
0.728938
0.725815
0.723943
0.722702
0.721861
0.721233
0.720784
0.720412
0.720144
0.719896
0.719718
0.719567
0.719455
0.719344
0.719266
0.71918
0.719125
0.719053
0.719016
0.718976
0.718951
0.718909
0.718899
0.71888
0.718872
0.718845
0.718863
0.718863
0.718874
0.718868
0.718888
0.718888
0.718908
0.718905
0.718974
0.718974
0.718995
0.718994
0.719024
0.719024
0.719097
0.719097
0.719156
0.719156
0.719195
0.719195
0.719244
0.719245
0.719279
0.719352
0.719352
0.71936
0.71936
0.719491
0.719561
0.719594
0.719593
0.719593
0.719589
0.719749
0.71981
0.719809
0.719808
0.719988
0.720071
0.720072
0.720263
0.72029
0.72029
0.720482
0.720516
0.720702
0.72094
0.720965
0.721139
0.721418
0.721499
0.721794
0.721972
0.722177
0.722605
0.723032
0.723537
0.724094
0.724858
0.725843
0.727093
0.728601
0.731787
0.732529
0.766486
1.69179
149.928
0.780105
0.744307
0.731143
0.725034
0.721664
0.719638
0.718293
0.717379
0.716696
0.716207
0.715803
0.71551
0.715242
0.715046
0.714881
0.714758
0.714637
0.714551
0.714458
0.714397
0.714319
0.714277
0.714233
0.714205
0.714159
0.714147
0.714126
0.714116
0.714085
0.714101
0.714101
0.714111
0.714103
0.714124
0.714124
0.714143
0.714138
0.714209
0.714209
0.71423
0.71423
0.714259
0.714259
0.714335
0.714335
0.714398
0.714398
0.714437
0.714437
0.714486
0.714486
0.714519
0.714598
0.714598
0.714606
0.714606
0.714741
0.714817
0.714849
0.714849
0.714849
0.714845
0.715009
0.715074
0.715074
0.715072
0.715255
0.715347
0.715348
0.715545
0.715573
0.715573
0.715771
0.715812
0.715997
0.716245
0.716272
0.716448
0.716735
0.716824
0.717127
0.71731
0.717514
0.717947
0.718387
0.718904
0.719467
0.720243
0.72123
0.72251
0.723993
0.727281
0.727834
0.762667
1.7209
143.221
0.779011
0.741555
0.727552
0.720996
0.717363
0.715171
0.713713
0.71272
0.711979
0.711446
0.711008
0.710689
0.710398
0.710184
0.710004
0.709869
0.709736
0.709642
0.70954
0.709473
0.709389
0.709342
0.709292
0.709262
0.709212
0.709197
0.709173
0.709161
0.709126
0.709141
0.709141
0.709149
0.70914
0.70916
0.70916
0.709178
0.709172
0.709245
0.709245
0.709266
0.709266
0.709295
0.709294
0.709373
0.709373
0.709439
0.709439
0.709479
0.709479
0.709528
0.709528
0.709558
0.709645
0.709645
0.709651
0.709652
0.709791
0.709874
0.709904
0.709904
0.709905
0.7099
0.710069
0.710139
0.710138
0.710136
0.710322
0.710423
0.710424
0.710627
0.710657
0.710657
0.71086
0.710908
0.711093
0.71135
0.71138
0.711557
0.711852
0.711949
0.71226
0.712448
0.712651
0.713088
0.713541
0.714069
0.714638
0.715426
0.716412
0.717721
0.719178
0.722559
0.722933
0.75854
1.74545
136.313
0.777914
0.738743
0.723856
0.716825
0.712912
0.710541
0.708963
0.707886
0.707081
0.706502
0.706026
0.705678
0.705363
0.705129
0.704932
0.704784
0.70464
0.704536
0.704426
0.704352
0.70426
0.704208
0.704153
0.704119
0.704065
0.704047
0.70402
0.704006
0.703967
0.703981
0.70398
0.703987
0.703975
0.703994
0.703994
0.704011
0.704003
0.704079
0.704079
0.7041
0.704099
0.704128
0.704127
0.704209
0.704209
0.704278
0.704278
0.704319
0.704319
0.704368
0.704368
0.704395
0.704489
0.704489
0.704495
0.704495
0.704639
0.704728
0.704758
0.704758
0.704758
0.704753
0.704927
0.705001
0.705
0.704998
0.705187
0.705297
0.705298
0.705507
0.705539
0.705539
0.705746
0.705803
0.705987
0.706252
0.706286
0.706464
0.706767
0.706872
0.707191
0.707383
0.707585
0.708026
0.70849
0.709031
0.709605
0.710403
0.711388
0.712724
0.714153
0.717618
0.717823
0.754091
1.76456
129.262
0.776819
0.735874
0.720059
0.712524
0.708311
0.705751
0.704042
0.702874
0.702002
0.701372
0.700856
0.700477
0.700135
0.699881
0.699666
0.699504
0.699346
0.699233
0.699112
0.699031
0.698932
0.698874