/*--------------------------------*- C++ -*----------------------------------*\
| =========                 |                                                 |
| \\      /  F ield         | OpenFOAM: The Open Source CFD Toolbox           |
|  \\    /   O peration     | Version:  v2012                                 |
|   \\  /    A nd           | Website:  www.openfoam.com                      |
|    \\/     M anipulation  |                                                 |
\*---------------------------------------------------------------------------*/
FoamFile
{
    version     2.0;
    format      ascii;
    class       volScalarField;
    location    "6";
    object      k;
}
// * * * * * * * * * * * * * * * * * * * * * * * * * * * * * * * * * * * * * //

dimensions      [0 2 -2 0 0 0 0];


internalField   nonuniform List<scalar> 
209825
(
0.00103456
0.00100863
0.000998749
0.000993748
0.000990683
0.000988676
0.000987223
0.00098618
0.000985348
0.000984735
0.000984193
0.000983806
0.000983419
0.000983154
0.000982926
0.000982754
0.000982574
0.000982453
0.000982308
0.000982225
0.000982104
0.00098206
0.000982001
0.000981975
0.000981912
0.000981928
0.000981907
0.000981931
0.00098191
0.000982017
0.000982017
0.00098202
0.000982016
0.000982034
0.000982027
0.000982069
0.000982069
0.000982069
0.000982068
0.000982061
0.000982025
0.000982051
0.000982051
0.000982049
0.000982015
0.000982038
0.000982038
0.00098203
0.000982074
0.000982073
0.000982065
0.000982148
0.000982148
0.000982147
0.000982124
0.00098222
0.00098222
0.000982219
0.000982205
0.000982267
0.000982266
0.000982263
0.000982426
0.000982507
0.000982507
0.000982505
0.000982673
0.000982701
0.0009827
0.000982698
0.000982878
0.000982936
0.000983111
0.000983205
0.000983205
0.000983205
0.000983388
0.000983553
0.000983787
0.000983921
0.000984149
0.000984159
0.000984348
0.000984755
0.000985166
0.00098553
0.000986102
0.00098674
0.000987662
0.000988596
0.000990594
0.000992361
0.000996301
0.00100953
0.00154661
0.000812887
0.00103456
0.00100862
0.000998726
0.00099372
0.000990652
0.000988642
0.000987187
0.000986143
0.00098531
0.000984696
0.000984153
0.000983765
0.000983378
0.000983113
0.000982884
0.000982712
0.000982532
0.000982411
0.000982265
0.000982182
0.000982061
0.000982016
0.000981958
0.000981932
0.000981868
0.000981884
0.000981863
0.000981887
0.000981866
0.000981974
0.000981974
0.000981976
0.000981972
0.00098199
0.000981983
0.000982025
0.000982025
0.000982025
0.000982024
0.000982017
0.000981981
0.000982007
0.000982007
0.000982005
0.000981971
0.000981994
0.000981994
0.000981986
0.000982029
0.000982029
0.00098202
0.000982104
0.000982104
0.000982102
0.00098208
0.000982175
0.000982176
0.000982175
0.000982161
0.000982222
0.000982222
0.000982219
0.000982382
0.000982463
0.000982463
0.000982461
0.000982629
0.000982657
0.000982656
0.000982654
0.000982834
0.000982892
0.000983067
0.000983161
0.000983161
0.000983161
0.000983345
0.00098351
0.000983744
0.000983878
0.000984106
0.000984117
0.000984306
0.000984713
0.000985124
0.000985488
0.000986061
0.000986699
0.000987622
0.000988557
0.000990556
0.000992325
0.000996266
0.00100952
0.00154767
0.000816537
0.00103453
0.00100854
0.000998622
0.000993598
0.000990517
0.000988499
0.000987038
0.000985988
0.000985151
0.000984534
0.000983988
0.000983598
0.000983209
0.000982942
0.000982713
0.000982539
0.000982358
0.000982236
0.00098209
0.000982006
0.000981884
0.000981839
0.000981779
0.000981753
0.000981689
0.000981705
0.000981684
0.000981707
0.000981686
0.000981793
0.000981793
0.000981795
0.000981792
0.000981809
0.000981802
0.000981844
0.000981844
0.000981844
0.000981843
0.000981836
0.0009818
0.000981826
0.000981826
0.000981824
0.000981789
0.000981812
0.000981812
0.000981804
0.000981848
0.000981847
0.000981839
0.000981922
0.000981922
0.000981921
0.000981898
0.000981994
0.000981994
0.000981993
0.000981979
0.000982041
0.00098204
0.000982038
0.0009822
0.000982282
0.000982282
0.00098228
0.000982448
0.000982476
0.000982476
0.000982473
0.000982653
0.000982713
0.000982887
0.000982982
0.000982982
0.000982982
0.000983166
0.000983331
0.000983566
0.000983701
0.000983929
0.000983941
0.00098413
0.000984537
0.000984949
0.000985315
0.000985889
0.000986529
0.000987453
0.000988391
0.000990391
0.000992168
0.000996102
0.00100943
0.00155064
0.000824504
0.00103448
0.00100841
0.000998444
0.000993391
0.00099029
0.000988257
0.000986785
0.000985727
0.000984884
0.000984261
0.000983711
0.000983317
0.000982925
0.000982655
0.000982423
0.000982248
0.000982065
0.000981941
0.000981794
0.000981709
0.000981586
0.00098154
0.00098148
0.000981453
0.000981388
0.000981403
0.000981381
0.000981404
0.000981382
0.000981489
0.000981489
0.000981491
0.000981488
0.000981505
0.000981497
0.000981539
0.000981539
0.000981539
0.000981538
0.000981531
0.000981495
0.00098152
0.00098152
0.000981519
0.000981484
0.000981506
0.000981506
0.000981499
0.000981542
0.000981542
0.000981533
0.000981616
0.000981616
0.000981615
0.000981592
0.000981688
0.000981688
0.000981687
0.000981673
0.000981735
0.000981735
0.000981732
0.000981895
0.000981977
0.000981977
0.000981975
0.000982143
0.000982172
0.000982172
0.000982169
0.00098235
0.00098241
0.000982585
0.00098268
0.000982681
0.000982681
0.000982865
0.000983031
0.000983266
0.000983402
0.000983632
0.000983645
0.000983834
0.000984242
0.000984656
0.000985024
0.000985599
0.000986242
0.000987169
0.00098811
0.000990112
0.000991901
0.000995821
0.00100926
0.00155546
0.000836732
0.00103442
0.00100823
0.000998194
0.000993099
0.000989969
0.000987916
0.000986429
0.000985359
0.000984506
0.000983875
0.000983319
0.00098292
0.000982523
0.00098225
0.000982015
0.000981837
0.000981651
0.000981526
0.000981376
0.00098129
0.000981165
0.000981118
0.000981057
0.000981029
0.000980963
0.000980977
0.000980955
0.000980977
0.000980954
0.000981061
0.000981061
0.000981063
0.000981059
0.000981076
0.000981067
0.00098111
0.000981109
0.000981109
0.000981108
0.000981101
0.000981064
0.00098109
0.00098109
0.000981088
0.000981053
0.000981075
0.000981075
0.000981067
0.00098111
0.00098111
0.000981101
0.000981184
0.000981184
0.000981183
0.00098116
0.000981256
0.000981256
0.000981256
0.000981241
0.000981303
0.000981303
0.0009813
0.000981463
0.000981546
0.000981546
0.000981544
0.000981713
0.000981743
0.000981742
0.00098174
0.000981921
0.000981983
0.000982158
0.000982254
0.000982256
0.000982255
0.00098244
0.000982608
0.000982843
0.00098298
0.000983211
0.000983226
0.000983416
0.000983825
0.000984241
0.000984612
0.000985189
0.000985835
0.000986766
0.000987713
0.000989716
0.000991522
0.000995422
0.00100903
0.00156226
0.0008532
0.00103434
0.00100799
0.00099787
0.00099272
0.000989554
0.000987474
0.000985967
0.000984882
0.000984016
0.000983376
0.000982811
0.000982406
0.000982003
0.000981725
0.000981485
0.000981304
0.000981115
0.000980987
0.000980835
0.000980747
0.00098062
0.000980571
0.000980508
0.00098048
0.000980412
0.000980425
0.000980402
0.000980423
0.000980399
0.000980505
0.000980505
0.000980507
0.000980502
0.000980519
0.00098051
0.000980552
0.000980552
0.000980552
0.00098055
0.000980543
0.000980506
0.000980531
0.000980531
0.000980529
0.000980494
0.000980516
0.000980516
0.000980508
0.00098055
0.00098055
0.000980541
0.000980624
0.000980624
0.000980623
0.0009806
0.000980696
0.000980696
0.000980696
0.000980681
0.000980744
0.000980744
0.000980741
0.000980904
0.000980988
0.000980988
0.000980986
0.000981155
0.000981186
0.000981186
0.000981183
0.000981365
0.000981429
0.000981604
0.000981701
0.000981704
0.000981704
0.000981888
0.000982058
0.000982295
0.000982432
0.000982666
0.000982683
0.000982874
0.000983283
0.000983702
0.000984077
0.000984657
0.000985308
0.000986243
0.000987196
0.000989202
0.000991029
0.000994902
0.00100872
0.00157113
0.000873841
0.00103423
0.0010077
0.000997471
0.000992254
0.000989042
0.00098693
0.000985397
0.000984294
0.000983413
0.00098276
0.000982186
0.000981772
0.000981362
0.000981078
0.000980833
0.000980647
0.000980454
0.000980323
0.000980168
0.000980077
0.000979948
0.000979897
0.000979832
0.000979802
0.000979733
0.000979744
0.00097972
0.00097974
0.000979715
0.00097982
0.00097982
0.000979821
0.000979816
0.000979832
0.000979823
0.000979864
0.000979864
0.000979864
0.000979863
0.000979855
0.000979818
0.000979842
0.000979842
0.00097984
0.000979804
0.000979826
0.000979826
0.000979818
0.00097986
0.00097986
0.000979851
0.000979934
0.000979934
0.000979933
0.000979909
0.000980006
0.000980006
0.000980006
0.000979991
0.000980054
0.000980054
0.000980051
0.000980215
0.000980299
0.000980299
0.000980297
0.000980467
0.0009805
0.000980499
0.000980497
0.000980679
0.000980746
0.00098092
0.000981019
0.000981023
0.000981023
0.000981208
0.00098138
0.000981618
0.000981757
0.000981994
0.000982013
0.000982204
0.000982615
0.000983038
0.000983417
0.000984001
0.000984657
0.000985597
0.000986558
0.000988566
0.00099042
0.000994258
0.00100834
0.00158221
0.000898537
0.00103411
0.00100736
0.000996997
0.0009917
0.000988433
0.000986282
0.000984719
0.000983593
0.000982694
0.000982027
0.00098144
0.000981016
0.000980598
0.000980306
0.000980055
0.000979863
0.000979666
0.000979531
0.000979372
0.000979278
0.000979146
0.000979093
0.000979025
0.000978994
0.000978923
0.000978933
0.000978907
0.000978926
0.000978899
0.000979002
0.000979002
0.000979003
0.000978998
0.000979014
0.000979003
0.000979045
0.000979044
0.000979044
0.000979043
0.000979035
0.000978997
0.000979021
0.000979021
0.000979019
0.000978982
0.000979004
0.000979004
0.000978995
0.000979037
0.000979037
0.000979027
0.000979111
0.000979111
0.000979109
0.000979085
0.000979183
0.000979183
0.000979182
0.000979168
0.000979231
0.000979231
0.000979228
0.000979392
0.000979478
0.000979478
0.000979476
0.000979647
0.000979681
0.000979681
0.000979678
0.00097986
0.000979931
0.000980105
0.000980205
0.000980211
0.000980211
0.000980397
0.000980571
0.000980811
0.000980951
0.000981192
0.000981214
0.000981406
0.000981818
0.000982244
0.000982629
0.000983217
0.000983879
0.000984825
0.000985795
0.000987805
0.000989691
0.000993486
0.00100788
0.0015956
0.000927124
0.00103397
0.00100696
0.000996447
0.000991056
0.000987725
0.000985528
0.000983931
0.000982778
0.000981857
0.000981173
0.000980572
0.000980137
0.000979708
0.000979408
0.000979149
0.000978951
0.000978749
0.000978609
0.000978446
0.000978349
0.000978213
0.000978156
0.000978086
0.000978053
0.000977979
0.000977987
0.00097796
0.000977977
0.000977949
0.00097805
0.00097805
0.000978051
0.000978046
0.00097806
0.000978049
0.00097809
0.000978089
0.000978089
0.000978087
0.000978079
0.00097804
0.000978064
0.000978064
0.000978062
0.000978025
0.000978046
0.000978046
0.000978036
0.000978078
0.000978078
0.000978068
0.000978151
0.000978151
0.00097815
0.000978126
0.000978224
0.000978224
0.000978223
0.000978209
0.000978272
0.000978272
0.000978269
0.000978434
0.000978521
0.000978521
0.000978519
0.000978691
0.000978727
0.000978727
0.000978724
0.000978907
0.000978982
0.000979155
0.000979258
0.000979265
0.000979265
0.000979451
0.000979629
0.00097987
0.000980012
0.000980256
0.000980282
0.000980475
0.000980889
0.00098132
0.00098171
0.000982303
0.000982972
0.000983924
0.000984905
0.000986917
0.000988841
0.000992584
0.00100734
0.00161145
0.000959392
0.00103382
0.00100651
0.00099582
0.000990321
0.000986917
0.000984667
0.00098303
0.000981846
0.000980901
0.000980198
0.00097958
0.000979131
0.000978691
0.000978381
0.000978113
0.000977909
0.000977699
0.000977554
0.000977386
0.000977285
0.000977145
0.000977086
0.000977012
0.000976976
0.0009769
0.000976906
0.000976876
0.000976892
0.000976861
0.000976961
0.000976961
0.000976962
0.000976956
0.000976969
0.000976957
0.000976997
0.000976997
0.000976997
0.000976995
0.000976986
0.000976947
0.00097697
0.00097697
0.000976967
0.000976929
0.000976949
0.000976949
0.00097694
0.000976981
0.000976981
0.00097697
0.000977054
0.000977054
0.000977052
0.000977028
0.000977127
0.000977127
0.000977126
0.000977111
0.000977175
0.000977175
0.000977172
0.000977338
0.000977426
0.000977426
0.000977424
0.000977597
0.000977635
0.000977635
0.000977632
0.000977816
0.000977895
0.000978068
0.000978173
0.000978182
0.000978182
0.000978369
0.00097855
0.000978794
0.000978937
0.000979186
0.000979216
0.00097941
0.000979825
0.000980261
0.000980658
0.000981255
0.000981932
0.000982892
0.000983885
0.000985898
0.000987865
0.000991547
0.00100672
0.00162988
0.000995094
0.00103364
0.001006
0.000995116
0.000989495
0.000986008
0.000983698
0.000982016
0.000980797
0.000979823
0.000979098
0.000978461
0.000977997
0.000977544
0.000977223
0.000976945
0.000976733
0.000976516
0.000976365
0.000976191
0.000976085
0.000975941
0.000975877
0.0009758
0.000975762
0.000975683
0.000975686
0.000975654
0.000975667
0.000975635
0.000975733
0.000975733
0.000975733
0.000975726
0.000975738
0.000975725
0.000975764
0.000975764
0.000975764
0.000975762
0.000975753
0.000975712
0.000975734
0.000975734
0.000975731
0.000975693
0.000975712
0.000975712
0.000975702
0.000975743
0.000975743
0.000975732
0.000975815
0.000975815
0.000975814
0.000975789
0.000975889
0.000975888
0.000975888
0.000975872
0.000975937
0.000975937
0.000975934
0.0009761
0.00097619
0.00097619
0.000976188
0.000976362
0.000976403
0.000976403
0.0009764
0.000976584
0.000976668
0.000976841
0.000976948
0.00097696
0.00097696
0.000977148
0.000977332
0.000977578
0.000977724
0.000977977
0.000978012
0.000978207
0.000978624
0.000979065
0.00097947
0.000980073
0.000980758
0.000981726
0.000982732
0.000984745
0.000986761
0.000990374
0.00100601
0.001651
0.00103396
0.00103345
0.00100544
0.000994335
0.000988577
0.000984996
0.000982619
0.000980886
0.000979628
0.000978623
0.000977872
0.000977214
0.000976733
0.000976265
0.000975931
0.000975642
0.000975421
0.000975196
0.000975038
0.000974858
0.000974747
0.000974597
0.00097453
0.000974448
0.000974407
0.000974325
0.000974325
0.000974291
0.000974301
0.000974266
0.000974362
0.000974362
0.000974361
0.000974353
0.000974364
0.00097435
0.000974388
0.000974388
0.000974388
0.000974385
0.000974376
0.000974335
0.000974356
0.000974356
0.000974353
0.000974314
0.000974332
0.000974332
0.000974321
0.000974361
0.000974361
0.00097435
0.000974433
0.000974433
0.000974431
0.000974406
0.000974506
0.000974506
0.000974505
0.00097449
0.000974555
0.000974555
0.000974552
0.000974719
0.00097481
0.00097481
0.000974808
0.000974984
0.000975028
0.000975028
0.000975025
0.00097521
0.000975299
0.000975471
0.000975581
0.000975596
0.000975596
0.000975785
0.000975973
0.000976221
0.000976369
0.000976627
0.000976667
0.000976863
0.000977282
0.000977729
0.000978143
0.000978751
0.000979446
0.000980422
0.000981442
0.000983455
0.000985526
0.00098906
0.00100522
0.00167496
0.00107568
0.00103324
0.00100482
0.000993475
0.000987565
0.000983881
0.000981429
0.000979639
0.000978338
0.000977297
0.000976519
0.000975837
0.000975337
0.000974852
0.000974504
0.000974203
0.000973971
0.000973737
0.000973572
0.000973384
0.000973267
0.000973112
0.000973039
0.000972954
0.000972909
0.000972824
0.00097282
0.000972783
0.000972791
0.000972752
0.000972846
0.000972846
0.000972845
0.000972836
0.000972845
0.000972829
0.000972867
0.000972867
0.000972866
0.000972864
0.000972854
0.000972811
0.000972832
0.000972831
0.000972828
0.000972788
0.000972806
0.000972805
0.000972794
0.000972833
0.000972833
0.000972821
0.000972904
0.000972904
0.000972903
0.000972877
0.000972978
0.000972978
0.000972977
0.000972961
0.000973027
0.000973027
0.000973023
0.000973191
0.000973284
0.000973285
0.000973283
0.00097346
0.000973506
0.000973506
0.000973504
0.000973689
0.000973784
0.000973956
0.000974068
0.000974087
0.000974087
0.000974276
0.000974469
0.00097472
0.00097487
0.000975134
0.00097518
0.000975377
0.000975797
0.000976251
0.000976673
0.000977287
0.000977992
0.000978977
0.000980013
0.000982025
0.000984156
0.000987602
0.00100433
0.00170185
0.00111996
0.00103301
0.00100415
0.000992537
0.00098646
0.000982661
0.000980126
0.000978274
0.000976924
0.000975845
0.000975035
0.000974327
0.000973806
0.000973303
0.000972939
0.000972624
0.000972382
0.000972137
0.000971963
0.000971768
0.000971644
0.000971483
0.000971405
0.000971314
0.000971266
0.000971176
0.000971169
0.000971129
0.000971134
0.000971091
0.000971182
0.000971182
0.000971181
0.000971171
0.000971178
0.000971161
0.000971197
0.000971197
0.000971196
0.000971193
0.000971183
0.000971139
0.000971158
0.000971158
0.000971155
0.000971113
0.00097113
0.00097113
0.000971118
0.000971156
0.000971156
0.000971143
0.000971226
0.000971226
0.000971225
0.000971198
0.0009713
0.0009713
0.000971299
0.000971283
0.000971349
0.000971349
0.000971346
0.000971515
0.000971609
0.00097161
0.000971608
0.000971786
0.000971836
0.000971836
0.000971834
0.00097202
0.000972121
0.000972292
0.000972407
0.00097243
0.00097243
0.00097262
0.000972817
0.000973072
0.000973223
0.000973493
0.000973546
0.000973744
0.000974166
0.000974626
0.000975058
0.000975679
0.000976395
0.000977389
0.000978442
0.00098045
0.000982647
0.000985996
0.00100335
0.00173177
0.00116649
0.00103277
0.00100342
0.000991521
0.00098526
0.000981336
0.00097871
0.000976789
0.000975386
0.000974264
0.00097342
0.000972683
0.000972139
0.000971615
0.000971235
0.000970904
0.000970649
0.000970393
0.000970211
0.000970006
0.000969876
0.000969707
0.000969623
0.000969526
0.000969474
0.00096938
0.000969369
0.000969325
0.000969327
0.000969281
0.000969368
0.000969368
0.000969366
0.000969355
0.000969361
0.000969341
0.000969376
0.000969376
0.000969375
0.000969372
0.000969361
0.000969316
0.000969334
0.000969334
0.00096933
0.000969287
0.000969303
0.000969303
0.000969289
0.000969327
0.000969327
0.000969313
0.000969396
0.000969396
0.000969394
0.000969367
0.00096947
0.00096947
0.000969469
0.000969453
0.000969519
0.000969519
0.000969516
0.000969686
0.000969782
0.000969783
0.000969781
0.000969961
0.000970014
0.000970014
0.000970012
0.000970198
0.000970307
0.000970477
0.000970595
0.000970622
0.000970622
0.000970813
0.000971015
0.000971273
0.000971427
0.000971703
0.000971763
0.000971963
0.000972387
0.000972853
0.000973295
0.000973923
0.00097465
0.000975653
0.000976725
0.000978728
0.000980997
0.00098424
0.00100226
0.00176482
0.00121497
0.00103252
0.00100264
0.000990425
0.000983965
0.000979903
0.000977179
0.000975182
0.000973722
0.000972552
0.000971672
0.000970903
0.000970333
0.000969787
0.000969388
0.000969041
0.000968772
0.000968504
0.000968311
0.000968097
0.000967958
0.000967782
0.000967691
0.000967589
0.000967532
0.000967433
0.000967417
0.00096737
0.000967368
0.000967318
0.000967402
0.000967401
0.000967399
0.000967386
0.00096739
0.000967368
0.000967402
0.000967401
0.000967401
0.000967397
0.000967385
0.000967339
0.000967355
0.000967355
0.00096735
0.000967307
0.000967322
0.000967321
0.000967307
0.000967344
0.000967343
0.000967328
0.000967411
0.000967411
0.000967409
0.000967381
0.000967485
0.000967485
0.000967484
0.000967468
0.000967535
0.000967535
0.000967531
0.000967702
0.0009678
0.000967801
0.000967799
0.000967981
0.000968038
0.000968038
0.000968036
0.000968223
0.000968338
0.000968508
0.000968629
0.000968661
0.000968661
0.000968853
0.00096906
0.000969321
0.000969478
0.00096976
0.000969828
0.000970029
0.000970455
0.000970928
0.000971381
0.000972016
0.000972755
0.000973768
0.000974858
0.000976856
0.000979202
0.000982329
0.00100107
0.00180104
0.00126509
0.00103224
0.00100181
0.000989251
0.000982575
0.000978364
0.000975532
0.000973453
0.00097193
0.000970709
0.000969788
0.000968985
0.000968387
0.000967817
0.000967397
0.000967031
0.000966748
0.000966466
0.000966262
0.000966037
0.00096589
0.000965706
0.000965608
0.000965498
0.000965436
0.000965332
0.000965312
0.00096526
0.000965254
0.000965199
0.000965279
0.000965279
0.000965275
0.000965261
0.000965263
0.000965239
0.000965271
0.00096527
0.000965269
0.000965265
0.000965252
0.000965205
0.00096522
0.00096522
0.000965214
0.00096517
0.000965183
0.000965182
0.000965167
0.000965203
0.000965202
0.000965186
0.000965269
0.000965269
0.000965267
0.000965238
0.000965342
0.000965342
0.000965341
0.000965325
0.000965392
0.000965392
0.000965389
0.00096556
0.000965661
0.000965661
0.00096566
0.000965843
0.000965904
0.000965904
0.000965902
0.00096609
0.000966213
0.000966382
0.000966506
0.000966543
0.000966543
0.000966736
0.000966949
0.000967213
0.000967372
0.000967661
0.000967737
0.00096794
0.000968368
0.000968848
0.000969312
0.000969954
0.000970706
0.000971728
0.000972839
0.000974829
0.000977258
0.000980261
0.000999763
0.00184046
0.00131659
0.00103196
0.00100093
0.000987999
0.000981089
0.000976717
0.000973768
0.000971601
0.000970008
0.000968732
0.000967767
0.000966927
0.000966298
0.000965702
0.000965259
0.000964874
0.000964575
0.000964278
0.000964061
0.000963825
0.000963669
0.000963475
0.000963369
0.000963252
0.000963185
0.000963075
0.00096305
0.000962993
0.000962983
0.000962923
0.000962999
0.000962999
0.000962994
0.000962978
0.000962977
0.00096295
0.00096298
0.00096298
0.000962979
0.000962974
0.00096296
0.000962912
0.000962925
0.000962925
0.000962918
0.000962873
0.000962884
0.000962884
0.000962867
0.000962901
0.000962901
0.000962884
0.000962966
0.000962966
0.000962964
0.000962934
0.000963039
0.000963039
0.000963038
0.000963021
0.000963089
0.000963089
0.000963085
0.000963258
0.000963361
0.000963362
0.00096336
0.000963545
0.00096361
0.000963611
0.000963608
0.000963796
0.000963927
0.000964096
0.000964223
0.000964266
0.000964266
0.00096446
0.000964678
0.000964947
0.000965108
0.000965403
0.000965489
0.000965694
0.000966123
0.00096661
0.000967086
0.000967736
0.0009685
0.000969532
0.000970664
0.000972643
0.00097516
0.000978031
0.000998336
0.00188308
0.00136921
0.00103166
0.00099999
0.000986669
0.000979506
0.000974961
0.000971887
0.000969623
0.000967957
0.000966621
0.000965607
0.000964727
0.000964065
0.000963441
0.000962974
0.000962567
0.00096225
0.000961937
0.000961707
0.000961458
0.000961292
0.000961088
0.000960974
0.000960849
0.000960775
0.000960659
0.000960628
0.000960567
0.000960553
0.000960486
0.000960558
0.000960557
0.000960551
0.000960534
0.00096053
0.000960501
0.000960528
0.000960528
0.000960527
0.000960521
0.000960506
0.000960456
0.000960468
0.000960467
0.00096046
0.000960413
0.000960423
0.000960422
0.000960404
0.000960437
0.000960437
0.000960418
0.0009605
0.0009605
0.000960498
0.000960467
0.000960573
0.000960572
0.000960571
0.000960554
0.000960623
0.000960623
0.000960619
0.000960792
0.000960898
0.000960898
0.000960897
0.000961083
0.000961153
0.000961153
0.000961151
0.00096134
0.000961479
0.000961647
0.000961777
0.000961827
0.000961827
0.000962022
0.000962246
0.000962519
0.000962682
0.000962983
0.000963079
0.000963286
0.000963717
0.000964211
0.000964698
0.000965356
0.000966134
0.000967175
0.00096833
0.000970297
0.000972906
0.000975636
0.000996782
0.00192882
0.00142272
0.00103135
0.000999003
0.00098526
0.000977828
0.000973097
0.000969887
0.00096752
0.000965774
0.000964373
0.000963308
0.000962383
0.000961686
0.000961031
0.000960538
0.000960107
0.000959771
0.000959441
0.000959197
0.000958935
0.000958757
0.000958543
0.000958419
0.000958285
0.000958205
0.000958081
0.000958045
0.000957978
0.000957959
0.000957887
0.000957954
0.000957952
0.000957944
0.000957925
0.000957919
0.000957886
0.000957912
0.000957912
0.00095791
0.000957903
0.000957887
0.000957836
0.000957846
0.000957845
0.000957837
0.000957789
0.000957797
0.000957795
0.000957775
0.000957807
0.000957807
0.000957787
0.000957868
0.000957868
0.000957866
0.000957833
0.00095794
0.00095794
0.000957939
0.000957921
0.00095799
0.00095799
0.000957986
0.00095816
0.000958268
0.000958269
0.000958267
0.000958456
0.00095853
0.00095853
0.000958528
0.000958717
0.000958865
0.000959032
0.000959165
0.000959223
0.000959223
0.000959418
0.000959648
0.000959925
0.000960091
0.000960399
0.000960505
0.000960715
0.000961147
0.000961648
0.000962148
0.000962813
0.000963605
0.000964654
0.000965833
0.000967785
0.000970491
0.000973074
0.000995092
0.00197758
0.00147691
0.00103103
0.000997965
0.000983774
0.000976054
0.000971123
0.000967768
0.00096529
0.000963457
0.000961987
0.000960866
0.000959895
0.000959159
0.000958471
0.000957949
0.000957494
0.000957137
0.000956788
0.000956529
0.000956251
0.000956062
0.000955836
0.000955702
0.000955559
0.000955471
0.00095534
0.000955298
0.000955224
0.000955201
0.000955122
0.000955184
0.000955181
0.000955172
0.00095515
0.000955142
0.000955105
0.000955128
0.000955128
0.000955125
0.000955117
0.0009551
0.000955048
0.000955056
0.000955054
0.000955045
0.000954996
0.000955003
0.000955
0.000954978
0.000955009
0.000955008
0.000954987
0.000955067
0.000955067
0.000955065
0.000955031
0.000955139
0.000955138
0.000955137
0.000955119
0.000955188
0.000955189
0.000955184
0.000955359
0.000955469
0.00095547
0.000955469
0.000955659
0.000955738
0.000955739
0.000955736
0.000955926
0.000956082
0.000956249
0.000956385
0.000956451
0.00095645
0.000956647
0.000956882
0.000957164
0.000957332
0.000957646
0.000957764
0.000957976
0.000958409
0.000958917
0.00095943
0.000960103
0.000960909
0.000961966
0.000963169
0.000965104
0.00096791
0.000970339
0.000993258
0.00202918
0.00153162
0.0010307
0.000996879
0.000982212
0.000974184
0.000969039
0.000965529
0.000962932
0.000961007
0.000959462
0.000958282
0.00095726
0.000956483
0.000955759
0.000955207
0.000954725
0.000954346
0.000953976
0.0009537
0.000953407
0.000953204
0.000952966
0.000952821
0.000952668
0.000952572
0.000952433
0.000952384
0.000952304
0.000952275
0.000952189
0.000952245
0.000952242
0.00095223
0.000952206
0.000952195
0.000952155
0.000952175
0.000952174
0.000952171
0.000952162
0.000952143
0.00095209
0.000952096
0.000952094
0.000952083
0.000952033
0.000952038
0.000952034
0.00095201
0.000952039
0.000952039
0.000952015
0.000952094
0.000952095
0.000952092
0.000952057
0.000952165
0.000952165
0.000952164
0.000952145
0.000952215
0.000952215
0.00095221
0.000952387
0.000952499
0.0009525
0.000952498
0.00095269
0.000952774
0.000952775
0.000952772
0.000952962
0.000953128
0.000953294
0.000953433
0.000953507
0.000953507
0.000953704
0.000953946
0.000954233
0.000954403
0.000954723
0.000954852
0.000955067
0.000955502
0.000956016
0.000956541
0.000957222
0.000958042
0.000959108
0.000960335
0.000962251
0.00096516
0.00096743
0.000991271
0.00208337
0.00158667
0.00103036
0.000995746
0.000980573
0.000972219
0.000966846
0.000963169
0.000960446
0.000958423
0.000956797
0.000955553
0.000954477
0.000953655
0.000952893
0.000952309
0.000951797
0.000951394
0.000951003
0.000950709
0.000950399
0.000950182
0.000949931
0.000949774
0.000949609
0.000949506
0.000949358
0.000949301
0.000949214
0.00094918
0.000949086
0.000949136
0.000949131
0.000949117
0.00094909
0.000949076
0.000949033
0.00094905
0.000949049
0.000949044
0.000949033
0.000949014
0.000948959
0.000948963
0.00094896
0.000948948
0.000948897
0.000948899
0.000948895
0.000948869
0.000948896
0.000948895
0.00094887
0.000948948
0.000948948
0.000948946
0.000948909
0.000949018
0.000949017
0.000949016
0.000948997
0.000949067
0.000949067
0.000949062
0.000949239
0.000949354
0.000949355
0.000949353
0.000949546
0.000949636
0.000949637
0.000949634
0.000949824
0.00095
0.000950164
0.000950306
0.00095039
0.00095039
0.000950587
0.000950835
0.000951127
0.000951299
0.000951625
0.000951767
0.000951985
0.000952421
0.000952941
0.000953479
0.000954167
0.000955003
0.000956075
0.000957328
0.000959223
0.000962237
0.000964342
0.00098912
0.00213979
0.00164194
0.00103001
0.000994566
0.00097886
0.000970158
0.000964544
0.00096069
0.000957831
0.000955702
0.000953992
0.000952679
0.000951545
0.000950676
0.000949872
0.000949253
0.00094871
0.000948282
0.000947867
0.000947554
0.000947225
0.000946994
0.000946728
0.000946558
0.000946382
0.000946269
0.000946111
0.000946046
0.000945952
0.000945912
0.00094581
0.000945854
0.000945847
0.000945829
0.0009458
0.000945784
0.000945736
0.000945749
0.000945748
0.000945742
0.000945729
0.000945708
0.000945652
0.000945654
0.00094565
0.000945636
0.000945584
0.000945585
0.000945579
0.000945551
0.000945576
0.000945575
0.000945548
0.000945625
0.000945625
0.000945622
0.000945584
0.000945693
0.000945692
0.000945691
0.000945672
0.000945742
0.000945742
0.000945736
0.000945914
0.000946031
0.000946032
0.00094603
0.000946226
0.00094632
0.000946322
0.000946319
0.000946509
0.000946694
0.000946858
0.000947002
0.000947096
0.000947096
0.000947294
0.000947548
0.000947845
0.000948019
0.000948351
0.000948505
0.000948726
0.000949164
0.000949689
0.000950241
0.000950936
0.000951786
0.000952864
0.000954144
0.000956015
0.000959136
0.000961072
0.000986795
0.00219801
0.00169731
0.00102965
0.000993341
0.000977073
0.000968004
0.000962132
0.00095809
0.000955086
0.000952846
0.000951044
0.000949658
0.000948462
0.000947542
0.000946695
0.000946038
0.000945462
0.000945006
0.000944566
0.000944232
0.000943884
0.000943636
0.000943355
0.000943172
0.000942982
0.00094286
0.000942692
0.000942618
0.000942515
0.000942469
0.000942359
0.000942396
0.000942387
0.000942366
0.000942334
0.000942314
0.000942262
0.000942272
0.000942269
0.000942262
0.000942248
0.000942225
0.000942169
0.000942167
0.000942162
0.000942147
0.000942094
0.000942092
0.000942085
0.000942054
0.000942077
0.000942076
0.000942047
0.000942122
0.000942122
0.000942119
0.000942079
0.000942188
0.000942187
0.000942187
0.000942166
0.000942237
0.000942237
0.00094223
0.00094241
0.000942529
0.000942529
0.000942528
0.000942724
0.000942825
0.000942826
0.000942823
0.000943013
0.000943208
0.000943371
0.000943517
0.000943622
0.000943623
0.000943822
0.000944081
0.000944384
0.000944559
0.000944896
0.000945064
0.000945288
0.000945727
0.000946258
0.000946823
0.000947525
0.00094839
0.000949473
0.000950779
0.000952624
0.000955852
0.000957617
0.000984284
0.00225751
0.00175268
0.00102928
0.000992073
0.000975213
0.000965755
0.000959611
0.00095537
0.000952212
0.000949852
0.000947953
0.00094649
0.000945228
0.000944253
0.000943359
0.000942662
0.000942051
0.000941566
0.000941099
0.000940742
0.000940374
0.000940108
0.000939811
0.000939613
0.00093941
0.000939276
0.000939098
0.000939015
0.000938903
0.00093885
0.000938731
0.00093876
0.000938749
0.000938723
0.000938688
0.000938665
0.000938609
0.000938615
0.000938611
0.000938602
0.000938585
0.000938561
0.000938504
0.0009385
0.000938493
0.000938476
0.000938422
0.000938418
0.000938409
0.000938376
0.000938397
0.000938396
0.000938363
0.000938437
0.000938437
0.000938434
0.000938392
0.000938501
0.000938501
0.0009385