/*--------------------------------*- C++ -*----------------------------------*\
| =========                 |                                                 |
| \\      /  F ield         | OpenFOAM: The Open Source CFD Toolbox           |
|  \\    /   O peration     | Version:  v2012                                 |
|   \\  /    A nd           | Website:  www.openfoam.com                      |
|    \\/     M anipulation  |                                                 |
\*---------------------------------------------------------------------------*/
FoamFile
{
    version     2.0;
    format      ascii;
    class       volScalarField;
    location    "6";
    object      nut;
}
// * * * * * * * * * * * * * * * * * * * * * * * * * * * * * * * * * * * * * //

dimensions      [0 2 -1 0 0 0 0];


internalField   nonuniform List<scalar> 
209825
(
1.20356e-07
1.16219e-07
1.1437e-07
1.13375e-07
1.12749e-07
1.1233e-07
1.12025e-07
1.11803e-07
1.11627e-07
1.11495e-07
1.1138e-07
1.11296e-07
1.11214e-07
1.11157e-07
1.11107e-07
1.11069e-07
1.11031e-07
1.11004e-07
1.10973e-07
1.10955e-07
1.10929e-07
1.10918e-07
1.10905e-07
1.10899e-07
1.10884e-07
1.10887e-07
1.10882e-07
1.10885e-07
1.10881e-07
1.10903e-07
1.10903e-07
1.10901e-07
1.109e-07
1.10902e-07
1.109e-07
1.10907e-07
1.10907e-07
1.10904e-07
1.10903e-07
1.10899e-07
1.10891e-07
1.10894e-07
1.10894e-07
1.1089e-07
1.10882e-07
1.10884e-07
1.10884e-07
1.10879e-07
1.10889e-07
1.10885e-07
1.10883e-07
1.10897e-07
1.10897e-07
1.10896e-07
1.1089e-07
1.10912e-07
1.10907e-07
1.10907e-07
1.10897e-07
1.10911e-07
1.10911e-07
1.10911e-07
1.10939e-07
1.10957e-07
1.10955e-07
1.10955e-07
1.10979e-07
1.10985e-07
1.10985e-07
1.10974e-07
1.11015e-07
1.11028e-07
1.11056e-07
1.11077e-07
1.11059e-07
1.11052e-07
1.11086e-07
1.11112e-07
1.11153e-07
1.11184e-07
1.11213e-07
1.11207e-07
1.11226e-07
1.11288e-07
1.11356e-07
1.11399e-07
1.11482e-07
1.11563e-07
1.11678e-07
1.11798e-07
1.12038e-07
1.12289e-07
1.12535e-07
1.14196e-07
2.09028e-07
3.12154e-10
1.20357e-07
1.16219e-07
1.1437e-07
1.13374e-07
1.12747e-07
1.12328e-07
1.12022e-07
1.11801e-07
1.11624e-07
1.11492e-07
1.11376e-07
1.11293e-07
1.11211e-07
1.11153e-07
1.11103e-07
1.11065e-07
1.11027e-07
1.11e-07
1.10969e-07
1.10951e-07
1.10925e-07
1.10914e-07
1.10901e-07
1.10894e-07
1.1088e-07
1.10882e-07
1.10878e-07
1.10881e-07
1.10876e-07
1.10898e-07
1.10898e-07
1.10897e-07
1.10896e-07
1.10898e-07
1.10896e-07
1.10903e-07
1.10903e-07
1.10899e-07
1.10899e-07
1.10895e-07
1.10887e-07
1.1089e-07
1.1089e-07
1.10886e-07
1.10878e-07
1.1088e-07
1.1088e-07
1.10875e-07
1.10885e-07
1.1088e-07
1.10878e-07
1.10892e-07
1.10892e-07
1.10892e-07
1.10886e-07
1.10908e-07
1.10902e-07
1.10902e-07
1.10893e-07
1.10907e-07
1.10907e-07
1.10907e-07
1.10935e-07
1.10953e-07
1.10951e-07
1.1095e-07
1.10975e-07
1.10981e-07
1.10981e-07
1.1097e-07
1.1101e-07
1.11024e-07
1.11052e-07
1.11073e-07
1.11055e-07
1.11047e-07
1.11082e-07
1.11107e-07
1.11149e-07
1.1118e-07
1.11208e-07
1.11203e-07
1.11222e-07
1.11283e-07
1.11352e-07
1.11394e-07
1.11478e-07
1.11559e-07
1.11674e-07
1.11794e-07
1.12034e-07
1.12285e-07
1.12531e-07
1.14194e-07
2.09187e-07
3.20153e-10
1.20361e-07
1.16221e-07
1.14368e-07
1.13369e-07
1.1274e-07
1.12319e-07
1.12012e-07
1.1179e-07
1.11612e-07
1.1148e-07
1.11363e-07
1.1128e-07
1.11197e-07
1.11139e-07
1.11089e-07
1.11051e-07
1.11012e-07
1.10985e-07
1.10954e-07
1.10936e-07
1.10909e-07
1.10899e-07
1.10886e-07
1.10879e-07
1.10865e-07
1.10867e-07
1.10862e-07
1.10865e-07
1.10861e-07
1.10882e-07
1.10882e-07
1.10881e-07
1.1088e-07
1.10882e-07
1.1088e-07
1.10887e-07
1.10887e-07
1.10883e-07
1.10883e-07
1.10879e-07
1.10871e-07
1.10874e-07
1.10874e-07
1.1087e-07
1.10862e-07
1.10864e-07
1.10864e-07
1.10859e-07
1.10868e-07
1.10864e-07
1.10862e-07
1.10876e-07
1.10876e-07
1.10876e-07
1.1087e-07
1.10891e-07
1.10886e-07
1.10886e-07
1.10876e-07
1.1089e-07
1.1089e-07
1.10891e-07
1.10918e-07
1.10937e-07
1.10934e-07
1.10934e-07
1.10958e-07
1.10965e-07
1.10965e-07
1.10953e-07
1.10994e-07
1.11007e-07
1.11036e-07
1.11057e-07
1.11039e-07
1.11031e-07
1.11065e-07
1.11091e-07
1.11133e-07
1.11163e-07
1.11192e-07
1.11187e-07
1.11206e-07
1.11267e-07
1.11336e-07
1.11379e-07
1.11462e-07
1.11544e-07
1.11659e-07
1.11778e-07
1.12019e-07
1.1227e-07
1.12516e-07
1.14181e-07
2.0966e-07
3.32311e-10
1.20368e-07
1.16223e-07
1.14364e-07
1.13361e-07
1.12728e-07
1.12305e-07
1.11996e-07
1.11772e-07
1.11593e-07
1.1146e-07
1.11343e-07
1.11258e-07
1.11175e-07
1.11116e-07
1.11066e-07
1.11027e-07
1.10988e-07
1.10961e-07
1.10929e-07
1.10911e-07
1.10884e-07
1.10873e-07
1.1086e-07
1.10853e-07
1.10839e-07
1.10841e-07
1.10836e-07
1.10839e-07
1.10834e-07
1.10856e-07
1.10856e-07
1.10854e-07
1.10854e-07
1.10855e-07
1.10853e-07
1.1086e-07
1.1086e-07
1.10857e-07
1.10856e-07
1.10852e-07
1.10844e-07
1.10847e-07
1.10847e-07
1.10843e-07
1.10835e-07
1.10837e-07
1.10837e-07
1.10832e-07
1.10841e-07
1.10837e-07
1.10835e-07
1.10849e-07
1.10849e-07
1.10849e-07
1.10843e-07
1.10864e-07
1.10859e-07
1.10859e-07
1.10849e-07
1.10863e-07
1.10863e-07
1.10863e-07
1.10891e-07
1.1091e-07
1.10907e-07
1.10907e-07
1.10931e-07
1.10938e-07
1.10938e-07
1.10926e-07
1.10967e-07
1.10981e-07
1.11009e-07
1.1103e-07
1.11012e-07
1.11004e-07
1.11039e-07
1.11065e-07
1.11106e-07
1.11137e-07
1.11166e-07
1.11161e-07
1.1118e-07
1.11241e-07
1.11309e-07
1.11353e-07
1.11436e-07
1.11518e-07
1.11633e-07
1.11753e-07
1.11993e-07
1.12246e-07
1.12491e-07
1.14159e-07
2.10434e-07
3.4762e-10
1.20377e-07
1.16226e-07
1.14359e-07
1.13349e-07
1.12712e-07
1.12286e-07
1.11974e-07
1.11747e-07
1.11566e-07
1.11432e-07
1.11313e-07
1.11228e-07
1.11144e-07
1.11084e-07
1.11033e-07
1.10994e-07
1.10954e-07
1.10927e-07
1.10895e-07
1.10876e-07
1.10849e-07
1.10838e-07
1.10824e-07
1.10817e-07
1.10803e-07
1.10805e-07
1.108e-07
1.10803e-07
1.10798e-07
1.10819e-07
1.10819e-07
1.10817e-07
1.10817e-07
1.10818e-07
1.10816e-07
1.10823e-07
1.10823e-07
1.10819e-07
1.10819e-07
1.10815e-07
1.10807e-07
1.1081e-07
1.1081e-07
1.10805e-07
1.10797e-07
1.10799e-07
1.10799e-07
1.10794e-07
1.10804e-07
1.10799e-07
1.10797e-07
1.10811e-07
1.10811e-07
1.10811e-07
1.10805e-07
1.10826e-07
1.10821e-07
1.10821e-07
1.10811e-07
1.10825e-07
1.10825e-07
1.10825e-07
1.10853e-07
1.10871e-07
1.10869e-07
1.10869e-07
1.10893e-07
1.109e-07
1.109e-07
1.10888e-07
1.10929e-07
1.10943e-07
1.10971e-07
1.10993e-07
1.10975e-07
1.10967e-07
1.11001e-07
1.11027e-07
1.11069e-07
1.111e-07
1.11129e-07
1.11124e-07
1.11143e-07
1.11204e-07
1.11272e-07
1.11316e-07
1.11399e-07
1.11481e-07
1.11597e-07
1.11717e-07
1.11957e-07
1.12211e-07
1.12455e-07
1.14128e-07
2.11521e-07
3.65682e-10
1.20389e-07
1.1623e-07
1.14352e-07
1.13335e-07
1.12691e-07
1.1226e-07
1.11945e-07
1.11715e-07
1.11532e-07
1.11395e-07
1.11275e-07
1.11188e-07
1.11103e-07
1.11043e-07
1.10991e-07
1.10951e-07
1.10911e-07
1.10883e-07
1.1085e-07
1.10831e-07
1.10804e-07
1.10792e-07
1.10778e-07
1.10771e-07
1.10756e-07
1.10758e-07
1.10752e-07
1.10755e-07
1.1075e-07
1.10771e-07
1.10771e-07
1.1077e-07
1.10769e-07
1.1077e-07
1.10768e-07
1.10775e-07
1.10775e-07
1.10771e-07
1.10771e-07
1.10767e-07
1.10758e-07
1.10761e-07
1.10761e-07
1.10757e-07
1.10749e-07
1.1075e-07
1.1075e-07
1.10745e-07
1.10755e-07
1.1075e-07
1.10748e-07
1.10762e-07
1.10762e-07
1.10762e-07
1.10755e-07
1.10777e-07
1.10772e-07
1.10772e-07
1.10762e-07
1.10776e-07
1.10776e-07
1.10776e-07
1.10804e-07
1.10822e-07
1.1082e-07
1.1082e-07
1.10844e-07
1.10851e-07
1.10851e-07
1.10839e-07
1.1088e-07
1.10894e-07
1.10922e-07
1.10944e-07
1.10926e-07
1.10918e-07
1.10952e-07
1.10979e-07
1.1102e-07
1.11051e-07
1.11081e-07
1.11076e-07
1.11095e-07
1.11156e-07
1.11225e-07
1.11269e-07
1.11352e-07
1.11434e-07
1.1155e-07
1.1167e-07
1.11909e-07
1.12166e-07
1.12409e-07
1.14088e-07
2.12934e-07
3.86308e-10
1.20405e-07
1.16235e-07
1.14345e-07
1.13317e-07
1.12666e-07
1.12229e-07
1.11909e-07
1.11676e-07
1.1149e-07
1.11351e-07
1.11229e-07
1.1114e-07
1.11054e-07
1.10992e-07
1.10939e-07
1.10898e-07
1.10857e-07
1.10828e-07
1.10795e-07
1.10775e-07
1.10748e-07
1.10736e-07
1.10721e-07
1.10714e-07
1.10699e-07
1.107e-07
1.10694e-07
1.10697e-07
1.10692e-07
1.10713e-07
1.10713e-07
1.10711e-07
1.1071e-07
1.10711e-07
1.10709e-07
1.10716e-07
1.10716e-07
1.10712e-07
1.10711e-07
1.10707e-07
1.10699e-07
1.10701e-07
1.10701e-07
1.10697e-07
1.10689e-07
1.1069e-07
1.1069e-07
1.10685e-07
1.10694e-07
1.1069e-07
1.10688e-07
1.10702e-07
1.10701e-07
1.10701e-07
1.10695e-07
1.10717e-07
1.10711e-07
1.10711e-07
1.10701e-07
1.10715e-07
1.10715e-07
1.10715e-07
1.10743e-07
1.10761e-07
1.10759e-07
1.10759e-07
1.10783e-07
1.1079e-07
1.1079e-07
1.10778e-07
1.10819e-07
1.10835e-07
1.10862e-07
1.10884e-07
1.10866e-07
1.10858e-07
1.10892e-07
1.10919e-07
1.1096e-07
1.10992e-07
1.11022e-07
1.11017e-07
1.11036e-07
1.11096e-07
1.11166e-07
1.1121e-07
1.11294e-07
1.11376e-07
1.11492e-07
1.11613e-07
1.11851e-07
1.1211e-07
1.12352e-07
1.14037e-07
2.14686e-07
4.09419e-10
1.20423e-07
1.16241e-07
1.14336e-07
1.13296e-07
1.12636e-07
1.12192e-07
1.11866e-07
1.11629e-07
1.1144e-07
1.11298e-07
1.11173e-07
1.11083e-07
1.10994e-07
1.10931e-07
1.10877e-07
1.10835e-07
1.10793e-07
1.10763e-07
1.10729e-07
1.10709e-07
1.10681e-07
1.10668e-07
1.10654e-07
1.10646e-07
1.1063e-07
1.10631e-07
1.10625e-07
1.10628e-07
1.10622e-07
1.10642e-07
1.10642e-07
1.1064e-07
1.10639e-07
1.1064e-07
1.10638e-07
1.10645e-07
1.10645e-07
1.10641e-07
1.1064e-07
1.10636e-07
1.10628e-07
1.1063e-07
1.1063e-07
1.10625e-07
1.10617e-07
1.10618e-07
1.10618e-07
1.10613e-07
1.10622e-07
1.10618e-07
1.10616e-07
1.1063e-07
1.10629e-07
1.10629e-07
1.10623e-07
1.10645e-07
1.10639e-07
1.10638e-07
1.10628e-07
1.10643e-07
1.10643e-07
1.10643e-07
1.1067e-07
1.10689e-07
1.10687e-07
1.10687e-07
1.10711e-07
1.10718e-07
1.10718e-07
1.10706e-07
1.10747e-07
1.10763e-07
1.1079e-07
1.10813e-07
1.10795e-07
1.10786e-07
1.10821e-07
1.10848e-07
1.10889e-07
1.10921e-07
1.10951e-07
1.10947e-07
1.10966e-07
1.11026e-07
1.11095e-07
1.1114e-07
1.11224e-07
1.11307e-07
1.11422e-07
1.11544e-07
1.11782e-07
1.12044e-07
1.12283e-07
1.13978e-07
2.16791e-07
4.35013e-10
1.20443e-07
1.16248e-07
1.14325e-07
1.13272e-07
1.12601e-07
1.12149e-07
1.11817e-07
1.11575e-07
1.11381e-07
1.11236e-07
1.11109e-07
1.11016e-07
1.10926e-07
1.10861e-07
1.10805e-07
1.10762e-07
1.10718e-07
1.10688e-07
1.10653e-07
1.10632e-07
1.10603e-07
1.1059e-07
1.10575e-07
1.10566e-07
1.1055e-07
1.10551e-07
1.10545e-07
1.10547e-07
1.1054e-07
1.10561e-07
1.10561e-07
1.10559e-07
1.10557e-07
1.10558e-07
1.10556e-07
1.10562e-07
1.10562e-07
1.10558e-07
1.10558e-07
1.10553e-07
1.10545e-07
1.10547e-07
1.10547e-07
1.10542e-07
1.10534e-07
1.10535e-07
1.10535e-07
1.10529e-07
1.10539e-07
1.10534e-07
1.10532e-07
1.10546e-07
1.10545e-07
1.10545e-07
1.10538e-07
1.10561e-07
1.10554e-07
1.10554e-07
1.10544e-07
1.10558e-07
1.10558e-07
1.10559e-07
1.10586e-07
1.10604e-07
1.10603e-07
1.10602e-07
1.10627e-07
1.10634e-07
1.10634e-07
1.10622e-07
1.10663e-07
1.1068e-07
1.10706e-07
1.10729e-07
1.10712e-07
1.10702e-07
1.10738e-07
1.10765e-07
1.10806e-07
1.10838e-07
1.10869e-07
1.10865e-07
1.10884e-07
1.10943e-07
1.11013e-07
1.11059e-07
1.11143e-07
1.11226e-07
1.11342e-07
1.11464e-07
1.117e-07
1.11966e-07
1.12203e-07
1.13908e-07
2.19263e-07
4.6315e-10
1.20467e-07
1.16257e-07
1.14314e-07
1.13244e-07
1.12562e-07
1.121e-07
1.11761e-07
1.11513e-07
1.11315e-07
1.11166e-07
1.11035e-07
1.10939e-07
1.10847e-07
1.1078e-07
1.10722e-07
1.10678e-07
1.10633e-07
1.10602e-07
1.10566e-07
1.10544e-07
1.10514e-07
1.105e-07
1.10484e-07
1.10476e-07
1.10459e-07
1.10459e-07
1.10452e-07
1.10454e-07
1.10447e-07
1.10467e-07
1.10467e-07
1.10465e-07
1.10464e-07
1.10464e-07
1.10462e-07
1.10468e-07
1.10468e-07
1.10464e-07
1.10463e-07
1.10459e-07
1.1045e-07
1.10452e-07
1.10452e-07
1.10447e-07
1.10439e-07
1.10439e-07
1.10439e-07
1.10434e-07
1.10443e-07
1.10438e-07
1.10436e-07
1.1045e-07
1.10449e-07
1.10449e-07
1.10442e-07
1.10464e-07
1.10458e-07
1.10458e-07
1.10447e-07
1.10462e-07
1.10462e-07
1.10462e-07
1.10489e-07
1.10508e-07
1.10506e-07
1.10506e-07
1.1053e-07
1.10538e-07
1.10538e-07
1.10525e-07
1.10566e-07
1.10584e-07
1.1061e-07
1.10634e-07
1.10617e-07
1.10607e-07
1.10642e-07
1.1067e-07
1.10711e-07
1.10743e-07
1.10774e-07
1.10771e-07
1.1079e-07
1.10849e-07
1.10919e-07
1.10966e-07
1.1105e-07
1.11134e-07
1.11249e-07
1.11372e-07
1.11607e-07
1.11877e-07
1.12111e-07
1.13828e-07
2.22114e-07
4.93947e-10
1.20494e-07
1.16266e-07
1.14301e-07
1.13214e-07
1.12517e-07
1.12046e-07
1.11698e-07
1.11444e-07
1.1124e-07
1.11086e-07
1.10952e-07
1.10853e-07
1.10758e-07
1.10689e-07
1.10629e-07
1.10584e-07
1.10537e-07
1.10505e-07
1.10467e-07
1.10444e-07
1.10414e-07
1.10399e-07
1.10382e-07
1.10373e-07
1.10356e-07
1.10355e-07
1.10348e-07
1.1035e-07
1.10342e-07
1.10362e-07
1.10362e-07
1.1036e-07
1.10358e-07
1.10358e-07
1.10355e-07
1.10361e-07
1.10361e-07
1.10357e-07
1.10356e-07
1.10352e-07
1.10343e-07
1.10345e-07
1.10345e-07
1.1034e-07
1.10331e-07
1.10331e-07
1.10331e-07
1.10325e-07
1.10335e-07
1.1033e-07
1.10328e-07
1.10341e-07
1.1034e-07
1.1034e-07
1.10333e-07
1.10356e-07
1.10349e-07
1.10349e-07
1.10338e-07
1.10353e-07
1.10353e-07
1.10353e-07
1.1038e-07
1.10399e-07
1.10398e-07
1.10397e-07
1.10421e-07
1.1043e-07
1.1043e-07
1.10416e-07
1.10458e-07
1.10477e-07
1.10502e-07
1.10526e-07
1.10509e-07
1.10499e-07
1.10535e-07
1.10562e-07
1.10603e-07
1.10636e-07
1.10668e-07
1.10665e-07
1.10684e-07
1.10742e-07
1.10813e-07
1.1086e-07
1.10944e-07
1.11029e-07
1.11145e-07
1.11269e-07
1.11502e-07
1.11777e-07
1.12006e-07
1.13739e-07
2.25357e-07
5.27575e-10
1.20523e-07
1.16278e-07
1.14287e-07
1.1318e-07
1.12468e-07
1.11985e-07
1.11628e-07
1.11366e-07
1.11156e-07
1.10998e-07
1.1086e-07
1.10758e-07
1.1066e-07
1.10588e-07
1.10526e-07
1.10478e-07
1.1043e-07
1.10396e-07
1.10358e-07
1.10334e-07
1.10302e-07
1.10287e-07
1.10269e-07
1.10259e-07
1.10241e-07
1.1024e-07
1.10232e-07
1.10233e-07
1.10225e-07
1.10244e-07
1.10244e-07
1.10242e-07
1.1024e-07
1.1024e-07
1.10237e-07
1.10243e-07
1.10243e-07
1.10238e-07
1.10237e-07
1.10233e-07
1.10223e-07
1.10225e-07
1.10225e-07
1.1022e-07
1.10211e-07
1.10211e-07
1.10211e-07
1.10205e-07
1.10214e-07
1.10209e-07
1.10207e-07
1.1022e-07
1.10219e-07
1.10219e-07
1.10212e-07
1.10235e-07
1.10227e-07
1.10227e-07
1.10217e-07
1.10231e-07
1.10231e-07
1.10231e-07
1.10258e-07
1.10277e-07
1.10276e-07
1.10276e-07
1.10299e-07
1.10308e-07
1.10308e-07
1.10294e-07
1.10336e-07
1.10356e-07
1.10381e-07
1.10406e-07
1.10389e-07
1.10378e-07
1.10414e-07
1.10442e-07
1.10483e-07
1.10516e-07
1.10548e-07
1.10547e-07
1.10565e-07
1.10623e-07
1.10694e-07
1.10742e-07
1.10827e-07
1.10912e-07
1.11028e-07
1.11153e-07
1.11384e-07
1.11664e-07
1.11889e-07
1.13638e-07
2.29003e-07
5.64251e-10
1.20556e-07
1.1629e-07
1.14273e-07
1.13143e-07
1.12415e-07
1.11918e-07
1.11551e-07
1.11281e-07
1.11064e-07
1.10901e-07
1.10758e-07
1.10652e-07
1.10551e-07
1.10476e-07
1.10412e-07
1.10362e-07
1.10312e-07
1.10276e-07
1.10237e-07
1.10211e-07
1.10179e-07
1.10162e-07
1.10143e-07
1.10133e-07
1.10115e-07
1.10112e-07
1.10104e-07
1.10104e-07
1.10096e-07
1.10114e-07
1.10114e-07
1.10112e-07
1.1011e-07
1.10109e-07
1.10105e-07
1.10111e-07
1.10111e-07
1.10106e-07
1.10106e-07
1.10101e-07
1.10091e-07
1.10093e-07
1.10093e-07
1.10087e-07
1.10078e-07
1.10078e-07
1.10078e-07
1.10071e-07
1.1008e-07
1.10076e-07
1.10073e-07
1.10086e-07
1.10085e-07
1.10085e-07
1.10078e-07
1.10101e-07
1.10093e-07
1.10092e-07
1.10082e-07
1.10097e-07
1.10097e-07
1.10097e-07
1.10123e-07
1.10142e-07
1.10141e-07
1.10141e-07
1.10165e-07
1.10174e-07
1.10174e-07
1.1016e-07
1.10201e-07
1.10223e-07
1.10247e-07
1.10273e-07
1.10257e-07
1.10245e-07
1.10281e-07
1.1031e-07
1.1035e-07
1.10383e-07
1.10417e-07
1.10416e-07
1.10434e-07
1.10491e-07
1.10562e-07
1.10612e-07
1.10697e-07
1.10783e-07
1.10898e-07
1.11024e-07
1.11253e-07
1.1154e-07
1.11759e-07
1.13528e-07
2.33063e-07
6.04237e-10
1.20591e-07
1.16305e-07
1.14257e-07
1.13104e-07
1.12357e-07
1.11846e-07
1.11467e-07
1.11188e-07
1.10964e-07
1.10795e-07
1.10646e-07
1.10536e-07
1.10431e-07
1.10354e-07
1.10287e-07
1.10234e-07
1.10183e-07
1.10145e-07
1.10104e-07
1.10077e-07
1.10043e-07
1.10026e-07
1.10006e-07
1.09995e-07
1.09975e-07
1.09972e-07
1.09963e-07
1.09963e-07
1.09954e-07
1.09971e-07
1.09971e-07
1.09969e-07
1.09966e-07
1.09966e-07
1.09962e-07
1.09967e-07
1.09967e-07
1.09962e-07
1.09961e-07
1.09956e-07
1.09946e-07
1.09947e-07
1.09947e-07
1.09942e-07
1.09932e-07
1.09932e-07
1.09932e-07
1.09925e-07
1.09934e-07
1.09929e-07
1.09926e-07
1.09939e-07
1.09938e-07
1.09938e-07
1.0993e-07
1.09953e-07
1.09945e-07
1.09945e-07
1.09934e-07
1.09949e-07
1.09949e-07
1.09949e-07
1.09975e-07
1.09995e-07
1.09994e-07
1.09993e-07
1.10017e-07
1.10027e-07
1.10027e-07
1.10012e-07
1.10054e-07
1.10077e-07
1.10101e-07
1.10127e-07
1.10111e-07
1.10098e-07
1.10135e-07
1.10164e-07
1.10204e-07
1.10238e-07
1.10272e-07
1.10272e-07
1.1029e-07
1.10347e-07
1.10418e-07
1.10469e-07
1.10554e-07
1.1064e-07
1.10756e-07
1.10883e-07
1.1111e-07
1.11402e-07
1.11616e-07
1.13406e-07
2.37543e-07
6.47838e-10
1.2063e-07
1.16321e-07
1.14241e-07
1.13061e-07
1.12294e-07
1.11767e-07
1.11376e-07
1.11088e-07
1.10855e-07
1.10679e-07
1.10525e-07
1.10411e-07
1.10302e-07
1.10221e-07
1.1015e-07
1.10096e-07
1.10042e-07
1.10002e-07
1.09959e-07
1.09931e-07
1.09896e-07
1.09877e-07
1.09856e-07
1.09844e-07
1.09824e-07
1.0982e-07
1.0981e-07
1.09809e-07
1.09799e-07
1.09816e-07
1.09816e-07
1.09813e-07
1.0981e-07
1.09809e-07
1.09805e-07
1.0981e-07
1.0981e-07
1.09804e-07
1.09804e-07
1.09799e-07
1.09788e-07
1.09789e-07
1.09789e-07
1.09783e-07
1.09773e-07
1.09772e-07
1.09772e-07
1.09765e-07
1.09774e-07
1.09769e-07
1.09766e-07
1.09779e-07
1.09777e-07
1.09777e-07
1.0977e-07
1.09793e-07
1.09784e-07
1.09783e-07
1.09773e-07
1.09788e-07
1.09788e-07
1.09788e-07
1.09814e-07
1.09833e-07
1.09833e-07
1.09832e-07
1.09856e-07
1.09866e-07
1.09866e-07
1.09851e-07
1.09893e-07
1.09917e-07
1.0994e-07
1.09967e-07
1.09952e-07
1.09938e-07
1.09975e-07
1.10005e-07
1.10045e-07
1.10079e-07
1.10114e-07
1.10114e-07
1.10133e-07
1.10189e-07
1.1026e-07
1.10312e-07
1.10397e-07
1.10485e-07
1.106e-07
1.10729e-07
1.10953e-07
1.11252e-07
1.11459e-07
1.13273e-07
2.42448e-07
6.95408e-10
1.20671e-07
1.16339e-07
1.14224e-07
1.13016e-07
1.12227e-07
1.11683e-07
1.11279e-07
1.10979e-07
1.10738e-07
1.10555e-07
1.10395e-07
1.10275e-07
1.10162e-07
1.10077e-07
1.10003e-07
1.09946e-07
1.09889e-07
1.09848e-07
1.09802e-07
1.09773e-07
1.09736e-07
1.09716e-07
1.09693e-07
1.09681e-07
1.09659e-07
1.09655e-07
1.09644e-07
1.09642e-07
1.09631e-07
1.09647e-07
1.09647e-07
1.09644e-07
1.09641e-07
1.0964e-07
1.09635e-07
1.09639e-07
1.09639e-07
1.09634e-07
1.09633e-07
1.09628e-07
1.09617e-07
1.09617e-07
1.09617e-07
1.09611e-07
1.09601e-07
1.096e-07
1.096e-07
1.09592e-07
1.09601e-07
1.09596e-07
1.09592e-07
1.09605e-07
1.09603e-07
1.09603e-07
1.09595e-07
1.09619e-07
1.09609e-07
1.09609e-07
1.09598e-07
1.09613e-07
1.09613e-07
1.09613e-07
1.09639e-07
1.09658e-07
1.09658e-07
1.09658e-07
1.09681e-07
1.09692e-07
1.09692e-07
1.09676e-07
1.09718e-07
1.09744e-07
1.09766e-07
1.09794e-07
1.09779e-07
1.09765e-07
1.09802e-07
1.09833e-07
1.09872e-07
1.09906e-07
1.09942e-07
1.09944e-07
1.09962e-07
1.10017e-07
1.10089e-07
1.10142e-07
1.10228e-07
1.10316e-07
1.10431e-07
1.10561e-07
1.10782e-07
1.11089e-07
1.11289e-07
1.13128e-07
2.47781e-07
7.47349e-10
1.20715e-07
1.16359e-07
1.14207e-07
1.12969e-07
1.12156e-07
1.11593e-07
1.11174e-07
1.10863e-07
1.10612e-07
1.10421e-07
1.10254e-07
1.10129e-07
1.10011e-07
1.09922e-07
1.09845e-07
1.09784e-07
1.09725e-07
1.09681e-07
1.09634e-07
1.09602e-07
1.09564e-07
1.09542e-07
1.09518e-07
1.09504e-07
1.09482e-07
1.09477e-07
1.09465e-07
1.09462e-07
1.0945e-07
1.09466e-07
1.09466e-07
1.09462e-07
1.09459e-07
1.09457e-07
1.09451e-07
1.09455e-07
1.09455e-07
1.0945e-07
1.09449e-07
1.09443e-07
1.09432e-07
1.09432e-07
1.09432e-07
1.09425e-07
1.09415e-07
1.09414e-07
1.09413e-07
1.09406e-07
1.09414e-07
1.09409e-07
1.09405e-07
1.09418e-07
1.09416e-07
1.09415e-07
1.09407e-07
1.09431e-07
1.09421e-07
1.0942e-07
1.09409e-07
1.09425e-07
1.09425e-07
1.09425e-07
1.0945e-07
1.0947e-07
1.09469e-07
1.09469e-07
1.09492e-07
1.09504e-07
1.09504e-07
1.09487e-07
1.09529e-07
1.09557e-07
1.09579e-07
1.09607e-07
1.09593e-07
1.09577e-07
1.09615e-07
1.09646e-07
1.09686e-07
1.0972e-07
1.09756e-07
1.09759e-07
1.09778e-07
1.09832e-07
1.09904e-07
1.09959e-07
1.10044e-07
1.10134e-07
1.10249e-07
1.1038e-07
1.10598e-07
1.10913e-07
1.11104e-07
1.12972e-07
2.53539e-07
8.04122e-10
1.20762e-07
1.16381e-07
1.1419e-07
1.12919e-07
1.1208e-07
1.11498e-07
1.11063e-07
1.10739e-07
1.10478e-07
1.10278e-07
1.10104e-07
1.09973e-07
1.0985e-07
1.09757e-07
1.09675e-07
1.09611e-07
1.09549e-07
1.09503e-07
1.09453e-07
1.0942e-07
1.09379e-07
1.09356e-07
1.0933e-07
1.09316e-07
1.09292e-07
1.09286e-07
1.09273e-07
1.09269e-07
1.09256e-07
1.09271e-07
1.0927e-07
1.09267e-07
1.09263e-07
1.0926e-07
1.09254e-07
1.09258e-07
1.09258e-07
1.09252e-07
1.09251e-07
1.09245e-07
1.09234e-07
1.09233e-07
1.09233e-07
1.09226e-07
1.09216e-07
1.09213e-07
1.09213e-07
1.09205e-07
1.09213e-07
1.09208e-07
1.09204e-07
1.09216e-07
1.09214e-07
1.09214e-07
1.09205e-07
1.09229e-07
1.09219e-07
1.09217e-07
1.09207e-07
1.09222e-07
1.09222e-07
1.09222e-07
1.09247e-07
1.09267e-07
1.09267e-07
1.09266e-07
1.0929e-07
1.09302e-07
1.09302e-07
1.09284e-07
1.09326e-07
1.09356e-07
1.09377e-07
1.09405e-07
1.09393e-07
1.09376e-07
1.09415e-07
1.09446e-07
1.09485e-07
1.0952e-07
1.09557e-07
1.09561e-07
1.0958e-07
1.09633e-07
1.09705e-07
1.09761e-07
1.09847e-07
1.09937e-07
1.10052e-07
1.10185e-07
1.104e-07
1.10722e-07
1.10905e-07
1.12803e-07
2.59712e-07
8.66251e-10
1.20812e-07
1.16405e-07
1.14172e-07
1.12866e-07
1.12e-07
1.11397e-07
1.10945e-07
1.10607e-07
1.10335e-07
1.10126e-07
1.09944e-07
1.09807e-07
1.09678e-07
1.0958e-07
1.09494e-07
1.09427e-07
1.09361e-07
1.09312e-07
1.0926e-07
1.09224e-07
1.09182e-07
1.09157e-07
1.0913e-07
1.09114e-07
1.09089e-07
1.09081e-07
1.09068e-07
1.09063e-07
1.09049e-07
1.09062e-07
1.09062e-07
1.09058e-07
1.09054e-07
1.09051e-07
1.09044e-07
1.09047e-07
1.09047e-07
1.0904e-07
1.09039e-07
1.09033e-07
1.09022e-07
1.09021e-07
1.09021e-07
1.09013e-07
1.09002e-07
1.08999e-07
1.08999e-07
1.08991e-07
1.08998e-07
1.08993e-07
1.08988e-07
1.09001e-07
1.08998e-07
1.08998e-07
1.08989e-07
1.09013e-07
1.09002e-07
1.09e-07
1.0899e-07
1.09005e-07
1.09005e-07
1.09005e-07
1.09029e-07
1.0905e-07
1.0905e-07
1.09049e-07
1.09073e-07
1.09085e-07
1.09086e-07
1.09067e-07
1.09109e-07
1.09141e-07
1.09161e-07
1.0919e-07
1.09179e-07
1.0916e-07
1.092e-07
1.09232e-07
1.09271e-07
1.09305e-07
1.09343e-07
1.09349e-07
1.09368e-07
1.0942e-07
1.09492e-07
1.09549e-07
1.09635e-07
1.09727e-07
1.09842e-07
1.09975e-07
1.10187e-07
1.10518e-07
1.10692e-07
1.12622e-07
2.66288e-07
9.34337e-10
1.20865e-07
1.16432e-07
1.14155e-07
1.12812e-07
1.11917e-07
1.11291e-07
1.1082e-07
1.10468e-07
1.10183e-07
1.09965e-07
1.09775e-07
1.0963e-07
1.09495e-07
1.09392e-07
1.09302e-07
1.0923e-07
1.09161e-07
1.09109e-07
1.09054e-07
1.09017e-07
1.08972e-07
1.08945e-07
1.08916e-07
1.08899e-07
1.08873e-07
1.08864e-07
1.08849e-07
1.08844e-07
1.08828e-07
1.0884e-07
1.0884e-07
1.08835e-07
1.08831e-07
1.08827e-07
1.08819e-07
1.08822e-07
1.08822e-07
1.08815e-07
1.08814e-07
1.08807e-07
1.08796e-07
1.08794e-07
1.08794e-07
1.08786e-07
1.08775e-07
1.08771e-07
1.08771e-07
1.08762e-07
1.08769e-07
1.08763e-07
1.08759e-07
1.08771e-07
1.08768e-07
1.08768e-07
1.08759e-07
1.08783e-07
1.08771e-07
1.08769e-07
1.08758e-07
1.08774e-07
1.08774e-07
1.08774e-07
1.08798e-07
1.08818e-07
1.08819e-07
1.08818e-07
1.08841e-07
1.08855e-07
1.08855e-07
1.08836e-07
1.08878e-07
1.08911e-07
1.0893e-07
1.0896e-07
1.0895e-07
1.08931e-07
1.0897e-07
1.09003e-07
1.09042e-07
1.09076e-07
1.09115e-07
1.09122e-07
1.09142e-07
1.09192e-07
1.09265e-07
1.09323e-07
1.09409e-07
1.09502e-07
1.09617e-07
1.09752e-07
1.0996e-07
1.10298e-07
1.10464e-07
1.12428e-07
2.73246e-07
1.00904e-09
1.2092e-07
1.16461e-07
1.14139e-07
1.12757e-07
1.1183e-07
1.1118e-07
1.10689e-07
1.10322e-07
1.10024e-07
1.09795e-07
1.09596e-07
1.09443e-07
1.09302e-07
1.09193e-07
1.09098e-07
1.09023e-07
1.08949e-07
1.08895e-07
1.08837e-07
1.08796e-07
1.0875e-07
1.0872e-07
1.08689e-07
1.08671e-07
1.08643e-07
1.08633e-07
1.08617e-07
1.0861e-07
1.08593e-07
1.08604e-07
1.08604e-07
1.08599e-07
1.08594e-07
1.08589e-07
1.08581e-07
1.08583e-07
1.08583e-07
1.08576e-07
1.08574e-07
1.08567e-07
1.08555e-07
1.08553e-07
1.08553e-07
1.08544e-07
1.08533e-07
1.08529e-07
1.08528e-07
1.08519e-07
1.08526e-07
1.0852e-07
1.08515e-07
1.08527e-07
1.08523e-07
1.08523e-07
1.08514e-07
1.08538e-07
1.08526e-07
1.08523e-07
1.08512e-07
1.08528e-07
1.08528e-07
1.08528e-07
1.08552e-07
1.08572e-07
1.08573e-07
1.08572e-07
1.08595e-07
1.08609e-07
1.08609e-07
1.0859e-07
1.08631e-07
1.08667e-07
1.08685e-07
1.08715e-07
1.08707e-07
1.08686e-07
1.08726e-07
1.0876e-07
1.08798e-07
1.08833e-07
1.08872e-07
1.08881e-07
1.08901e-07
1.0895e-07
1.09022e-07
1.09082e-07
1.09169e-07
1.09263e-07
1.09377e-07
1.09514e-07
1.09717e-07
1.10064e-07
1.1022e-07
1.1222e-07
2.80555e-07
1.09116e-09
1.20978e-07
1.16493e-07
1.14123e-07
1.12699e-07
1.1174e-07
1.11063e-07
1.10552e-07
1.10168e-07
1.09856e-07
1.09615e-07
1.09407e-07
1.09246e-07
1.09098e-07
1.08983e-07
1.08882e-07
1.08803e-07
1.08726e-07
1.08667e-07
1.08606e-07
1.08563e-07
1.08514e-07
1.08482e-07
1.0845e-07
1.08429e-07
1.084e-07
1.08388e-07
1.08371e-07
1.08363e-07
1.08345e-07
1.08354e-07
1.08354e-07
1.08348e-07
1.08343e-07
1.08338e-07
1.08329e-07
1.0833e-07
1.0833e-07
1.08322e-07
1.0832e-07
1.08313e-07
1.08301e-07
1.08298e-07
1.08298e-07
1.08288e-07
1.08277e-07
1.08272e-07
1.08271e-07
1.08261e-07
1.08268e-07
1.08262e-07
1.08256e-07
1.08268e-07
1.08264e-07
1.08264e-07
1.08254e-07
1.08279e-07
1.08266e-07
1.08262e-07
1.08252e-07
1.08268e-07
1.08268e-07
1.08267e-07
1.08291e-07
1.08312e-07
1.08312e-07
1.08311e-07
1.08334e-07
1.08349e-07
1.08349e-07
1.08328e-07
1.0837e-07
1.08408e-07
1.08425e-07
1.08456e-07
1.08449e-07
1.08427e-07
1.08467e-07
1.08502e-07
1.0854e-07
1.08574e-07
1.08614e-07
1.08625e-07
1.08645e-07
1.08693e-07
1.08765e-07
1.08827e-07
1.08913e-07
1.09009e-07
1.09122e-07
1.0926e-07
1.0946e-07
1.09815e-07
1.09962e-07
1.11998e-07
2.88179e-07
1.18162e-09
1.21039e-07
1.16528e-07
1.14108e-07
1.12641e-07
1.11647e-07
1.10942e-07
1.10409e-07
1.10007e-07
1.0968e-07
1.09427e-07
1.09208e-07
1.09039e-07
1.08884e-07
1.08763e-07
1.08656e-07
1.08571e-07
1.0849e-07
1.08428e-07
1.08363e-07
1.08317e-07
1.08266e-07
1.08232e-07
1.08196e-07
1.08174e-07
1.08144e-07
1.0813e-07
1.08111e-07
1.08102e-07
1.08082e-07
1.08091e-07
1.0809e-07
1.08084e-07
1.08078e-07
1.08072e-07
1.08062e-07
1.08062e-07
1.08062e-07
1.08054e-07
1.08051e-07
1.08044e-07
1.08032e-07
1.08028e-07
1.08028e-07
1.08018e-07
1.08006e-07
1.08001e-07
1.08e-07
1.07989e-07
1.07995e-07
1.07989e-07
1.07983e-07
1.07995e-07
1.0799e-07
1.0799e-07
1.0798e-07
1.08005e-07
1.07991e-07
1.07987e-07
1.07976e-07
1.07992e-07
1.07992e-07
1.07992e-07
1.08015e-07
1.08036e-07
1.08036e-07
1.08036e-07
1.08058e-07
1.08073e-07
1.08074e-07
1.08052e-07
1.08094e-07
1.08134e-07
1.0815e-07
1.08181e-07
1.08176e-07
1.08152e-07
1.08193e-07
1.08229e-07
1.08266e-07
1.08301e-07
1.08341e-07
1.08354e-07
1.08374e-07
1.08421e-07
1.08493e-07
1.08556e-07
1.08643e-07
1.08739e-07
1.08852e-07
1.08992e-07
1.09188e-07
1.09551e-07
1.09688e-07
1.11761e-07
2.96067e-07
1.28142e-09
1.21102e-07
1.16566e-07
1.14094e-07
1.12581e-07
1.11551e-07
1.10817e-07
1.1026e-07
1.09839e-07
1.09496e-07
1.09231e-07
1.09001e-07
1.08822e-07
1.08659e-07
1.08531e-07
1.08418e-07
1.08328e-07
1.08242e-07
1.08176e-07
1.08108e-07
1.08059e-07
1.08004e-07
1.07968e-07
1.0793e-07
1.07906e-07
1.07873e-07
1.07858e-07
1.07838e-07
1.07828e-07
1.07806e-07
1.07813e-07
1.07811e-07
1.07805e-07
1.07799e-07
1.07792e-07
1.07781e-07
1.07781e-07
1.0778e-07
1.07771e-07
1.07769e-07
1.07761e-07
1.07748e-07
1.07744e-07
1.07743e-07
1.07733e-07
1.07721e-07
1.07715e-07
1.07713e-07
1.07702e-07
1.07708e-07
1.07701e-07
1.07695e-07
1.07706e-07
1.07701e-07
1.07701e-07
1.07691e-07
1.07715e-07
1.07701e-07
1.07696e-07
1.07686e-07
1.07702e-07
1.07702e-07
1.07701e-07
1.07723e-07
1.07745e-07
1.07745e-07
1.07745e-07
1.07767e-07
1.07783e-07
1.07783e-07
1.07761e-07
1.07802e-07
1.07844e-07
1.07859e-07
1.07891e-07
1.07888e-07
1.07863e-07
1.07904e-07
1.0794e-07
1.07978e-07
1.08012e-07
1.08052e-07
1.08068e-07
1.08089e-07
1.08135e-07
1.08206e-07
1.0827e-07
1.08357e-07
1.08455e-07
1.08567e-07
1.08709e-07
1.089e-07
1.09271e-07
1.09398e-07
1.11508e-07
3.0416e-07
1.39174e-09
1.21168e-07
1.16607e-07
1.14082e-07
1.12521e-07
1.11452e-07
1.10688e-07
1.10106e-07
1.09664e-07
1.09305e-07
1.09026e-07
1.08784e-07
1.08596e-07
1.08424e-07
1.08288e-07
1.08169e-07
1.08074e-07
1.07982e-07
1.07912e-07
1.0784e-07
1.07788e-07
1.0773e-07
1.07691e-07
1.0765e-07
1.07624e-07
1.0759e-07
1.07573e-07
1.0755e-07
1.07539e-07
1.07516e-07
1.07521e-07
1.07519e-07
1.07512e-07
1.07505e-07
1.07497e-07
1.07485e-07
1.07484e-07
1.07484e-07
1.07474e-07
1.07471e-07
1.07463e-07
1.0745e-07
1.07446e-07
1.07444e-07
1.07433e-07
1.07421e-07
1.07414e-07
1.07412e-07
1.074e-07
1.07405e-07
1.07399e-07
1.07392e-07
1.07403e-07
1.07397e-07
1.07397e-07
1.07386e-07
1.07411e-07
1.07396e-07
1.0739e-07
1.0738e-07
1.07396e-07
1.07396e-07
1.07395e-07
1.07417e-07
1.07439e-07
1.07439e-07
1.07438e-07
1.0746e-07
1.07477e-07
1.07477e-07
1.07454e-07
1.07495e-07
1.0754e-07
1.07554e-07
1.07586e-07
1.07584e-07
1.07558e-07
1.076e-07
1.07637e-07
1.07674e-07
1.07708e-07
1.07748e-07
1.07766e-07
1.07788e-07
1.07832e-07
1.07903e-07
1.07969e-07
1.08056e-07
1.08155e-07
1.08266e-07
1.0841e-07
1.08597e-07
1.08975e-07
1.09092e-07
1.1124e-07
3.12386e-07
1.5139e-09
1.21237e-07
1.16652e-07
1.14071e-07
1.12461e-07
1.11351e-07
1.10554e-07
1.09946e-07
1.09483e-07
1.09106e-07
1.08812e-07
1.08557e-07
1.08359e-07
1.08178e-07
1.08035e-07
1.07908e-07
1.07807e-07
1.07711e-07
1.07636e-07
1.0756e-07
1.07504e-07
1.07443e-07
1.074e-07
1.07357e-07
1.07329e-07
1.07292e-07
1.07273e-07
1.07249e-07
1.07237e-07
1.07211e-07
1.07215e-07
1.07212e-07
1.07204e-07
1.07197e-07
1.07188e-07
1.07175e-07
1.07174e-07
1.07173e-07
1.07162e-07
1.07159e-07
1.0715e-07
1.07137e-07
1.07132e-07
1.0713e-07
1.07118e-07
1.07106e-07
1.07098e-07
1.07096e-07
1.07083e-07
1.07088e-07
1.07081e-07
1.07074e-07