/*--------------------------------*- C++ -*----------------------------------*\
| =========                 |                                                 |
| \\      /  F ield         | OpenFOAM: The Open Source CFD Toolbox           |
|  \\    /   O peration     | Version:  v2012                                 |
|   \\  /    A nd           | Website:  www.openfoam.com                      |
|    \\/     M anipulation  |                                                 |
\*---------------------------------------------------------------------------*/
FoamFile
{
    version     2.0;
    format      ascii;
    class       volVectorField;
    location    "6";
    object      wallShearStress;
}
// * * * * * * * * * * * * * * * * * * * * * * * * * * * * * * * * * * * * * //

dimensions      [0 2 -2 0 0 0 0];


internalField   uniform (0 0 0);

boundaryField
{
    inlet
    {
        type            calculated;
        value           uniform (0 0 0);
    }
    outlet
    {
        type            calculated;
        value           uniform (0 0 0);
    }
    topWall
    {
        type            calculated;
        value           nonuniform List<vector> 
545
(
(1.16603e-08 -8.1676e-09 0)
(1.16944e-08 -2.30724e-08 0)
(1.15736e-08 -3.8349e-08 0)
(1.15199e-08 -5.31294e-08 0)
(1.14785e-08 -6.72333e-08 0)
(1.14364e-08 -8.08497e-08 0)
(1.13905e-08 -9.41016e-08 0)
(1.13404e-08 -1.06985e-07 0)
(1.12861e-08 -1.19471e-07 0)
(1.12281e-08 -1.31557e-07 0)
(1.11668e-08 -1.43258e-07 0)
(1.11024e-08 -1.54588e-07 0)
(1.10354e-08 -1.65556e-07 0)
(1.09659e-08 -1.76169e-07 0)
(1.08944e-08 -1.86435e-07 0)
(1.0821e-08 -1.96363e-07 0)
(1.0746e-08 -2.05964e-07 0)
(1.06698e-08 -2.15246e-07 0)
(1.05924e-08 -2.24218e-07 0)
(1.05141e-08 -2.3289e-07 0)
(1.0435e-08 -2.4127e-07 0)
(1.03554e-08 -2.49367e-07 0)
(1.02754e-08 -2.5719e-07 0)
(1.01952e-08 -2.64748e-07 0)
(1.01148e-08 -2.72048e-07 0)
(1.00345e-08 -2.791e-07 0)
(9.95424e-09 -2.85911e-07 0)
(9.8742e-09 -2.92489e-07 0)
(9.79445e-09 -2.98842e-07 0)
(9.71509e-09 -3.04978e-07 0)
(9.63617e-09 -3.10903e-07 0)
(9.55777e-09 -3.16625e-07 0)
(9.47993e-09 -3.2215e-07 0)
(9.40273e-09 -3.27487e-07 0)
(9.32618e-09 -3.3264e-07 0)
(9.25035e-09 -3.37616e-07 0)
(9.17524e-09 -3.42422e-07 0)
(9.10091e-09 -3.47063e-07 0)
(9.02735e-09 -3.51545e-07 0)
(8.95461e-09 -3.55874e-07 0)
(8.88268e-09 -3.60055e-07 0)
(8.81159e-09 -3.64092e-07 0)
(8.74133e-09 -3.67992e-07 0)
(8.67191e-09 -3.71759e-07 0)
(8.60334e-09 -3.75397e-07 0)
(8.53561e-09 -3.78912e-07 0)
(8.46872e-09 -3.82306e-07 0)
(8.40266e-09 -3.85586e-07 0)
(8.33742e-09 -3.88754e-07 0)
(8.273e-09 -3.91815e-07 0)
(8.20938e-09 -3.94772e-07 0)
(8.14654e-09 -3.97629e-07 0)
(8.08448e-09 -4.00389e-07 0)
(8.02317e-09 -4.03056e-07 0)
(7.9626e-09 -4.05633e-07 0)
(7.90275e-09 -4.08124e-07 0)
(7.84359e-09 -4.1053e-07 0)
(7.78512e-09 -4.12855e-07 0)
(7.72729e-09 -4.15103e-07 0)
(7.6701e-09 -4.17274e-07 0)
(7.61352e-09 -4.19373e-07 0)
(7.55752e-09 -4.21402e-07 0)
(7.50208e-09 -4.23362e-07 0)
(7.44718e-09 -4.25257e-07 0)
(7.39278e-09 -4.27088e-07 0)
(7.33886e-09 -4.28858e-07 0)
(7.2854e-09 -4.30569e-07 0)
(7.23234e-09 -4.32222e-07 0)
(7.17981e-09 -4.33822e-07 0)
(7.12705e-09 -4.3536e-07 0)
(7.07726e-09 -4.36882e-07 0)
(7.01652e-09 -4.38269e-07 0)
(6.96036e-09 -4.39638e-07 0)
(6.92361e-09 -4.41048e-07 0)
(6.88724e-09 -4.42331e-07 0)
(6.85102e-09 -4.43604e-07 0)
(6.81487e-09 -4.44892e-07 0)
(6.77878e-09 -4.46174e-07 0)
(6.74274e-09 -4.47439e-07 0)
(6.70676e-09 -4.48687e-07 0)
(6.67083e-09 -4.49923e-07 0)
(6.63496e-09 -4.51148e-07 0)
(6.59915e-09 -4.52361e-07 0)
(6.56339e-09 -4.53562e-07 0)
(6.5277e-09 -4.5475e-07 0)
(6.49206e-09 -4.55927e-07 0)
(6.45648e-09 -4.57092e-07 0)
(6.42097e-09 -4.58246e-07 0)
(6.38551e-09 -4.59387e-07 0)
(6.35011e-09 -4.60517e-07 0)
(6.31483e-09 -4.61637e-07 0)
(6.27934e-09 -4.62739e-07 0)
(6.24509e-09 -4.63856e-07 0)
(6.2059e-09 -4.64886e-07 0)
(6.18801e-09 -4.66221e-07 0)
(6.08009e-09 -4.66918e-07 0)
(5.94568e-09 -4.67652e-07 0)
(5.90988e-09 -4.69034e-07 0)
(5.88308e-09 -4.69791e-07 0)
(5.85844e-09 -4.70461e-07 0)
(5.83424e-09 -4.71256e-07 0)
(5.81007e-09 -4.72114e-07 0)
(5.78585e-09 -4.72955e-07 0)
(5.76156e-09 -4.73772e-07 0)
(5.7372e-09 -4.74583e-07 0)
(5.71275e-09 -4.75398e-07 0)
(5.68823e-09 -4.76214e-07 0)
(5.66363e-09 -4.77028e-07 0)
(5.63895e-09 -4.77839e-07 0)
(5.61419e-09 -4.78649e-07 0)
(5.58936e-09 -4.79457e-07 0)
(5.56445e-09 -4.80264e-07 0)
(5.53946e-09 -4.81068e-07 0)
(5.51439e-09 -4.81871e-07 0)
(5.48925e-09 -4.82673e-07 0)
(5.46403e-09 -4.83472e-07 0)
(5.43874e-09 -4.8427e-07 0)
(5.41336e-09 -4.85066e-07 0)
(5.38792e-09 -4.8586e-07 0)
(5.36239e-09 -4.86652e-07 0)
(5.33679e-09 -4.87442e-07 0)
(5.31112e-09 -4.8823e-07 0)
(5.28537e-09 -4.89016e-07 0)
(5.25955e-09 -4.89801e-07 0)
(5.23365e-09 -4.90583e-07 0)
(5.20768e-09 -4.91363e-07 0)
(5.18163e-09 -4.92142e-07 0)
(5.15551e-09 -4.92918e-07 0)
(5.12931e-09 -4.93692e-07 0)
(5.10305e-09 -4.94463e-07 0)
(5.0767e-09 -4.95233e-07 0)
(5.05029e-09 -4.96001e-07 0)
(5.0238e-09 -4.96766e-07 0)
(4.99724e-09 -4.97529e-07 0)
(4.97061e-09 -4.9829e-07 0)
(4.9439e-09 -4.99048e-07 0)
(4.91712e-09 -4.99804e-07 0)
(4.89028e-09 -5.00558e-07 0)
(4.86335e-09 -5.0131e-07 0)
(4.83636e-09 -5.02059e-07 0)
(4.8093e-09 -5.02805e-07 0)
(4.78216e-09 -5.0355e-07 0)
(4.75496e-09 -5.04291e-07 0)
(4.72768e-09 -5.05031e-07 0)
(4.70034e-09 -5.05767e-07 0)
(4.67292e-09 -5.06501e-07 0)
(4.64544e-09 -5.07233e-07 0)
(4.61788e-09 -5.07962e-07 0)
(4.59026e-09 -5.08688e-07 0)
(4.56256e-09 -5.09412e-07 0)
(4.5348e-09 -5.10133e-07 0)
(4.50697e-09 -5.10851e-07 0)
(4.47907e-09 -5.11566e-07 0)
(4.45111e-09 -5.12279e-07 0)
(4.42307e-09 -5.12989e-07 0)
(4.39497e-09 -5.13696e-07 0)
(4.3668e-09 -5.144e-07 0)
(4.33857e-09 -5.15101e-07 0)
(4.31027e-09 -5.158e-07 0)
(4.2819e-09 -5.16495e-07 0)
(4.25347e-09 -5.17188e-07 0)
(4.22497e-09 -5.17877e-07 0)
(4.19641e-09 -5.18563e-07 0)
(4.16778e-09 -5.19247e-07 0)
(4.13909e-09 -5.19927e-07 0)
(4.11034e-09 -5.20604e-07 0)
(4.08152e-09 -5.21278e-07 0)
(4.05264e-09 -5.21949e-07 0)
(4.02369e-09 -5.22617e-07 0)
(3.99469e-09 -5.23281e-07 0)
(3.96562e-09 -5.23942e-07 0)
(3.93649e-09 -5.246e-07 0)
(3.9073e-09 -5.25254e-07 0)
(3.87805e-09 -5.25905e-07 0)
(3.84874e-09 -5.26553e-07 0)
(3.81937e-09 -5.27198e-07 0)
(3.78994e-09 -5.27838e-07 0)
(3.76045e-09 -5.28476e-07 0)
(3.73091e-09 -5.2911e-07 0)
(3.70131e-09 -5.2974e-07 0)
(3.67164e-09 -5.30367e-07 0)
(3.64193e-09 -5.3099e-07 0)
(3.61215e-09 -5.3161e-07 0)
(3.58233e-09 -5.32226e-07 0)
(3.55244e-09 -5.32838e-07 0)
(3.5225e-09 -5.33447e-07 0)
(3.49251e-09 -5.34052e-07 0)
(3.46246e-09 -5.34653e-07 0)
(3.43236e-09 -5.3525e-07 0)
(3.40221e-09 -5.35843e-07 0)
(3.37201e-09 -5.36433e-07 0)
(3.34175e-09 -5.37019e-07 0)
(3.31145e-09 -5.376e-07 0)
(3.28109e-09 -5.38178e-07 0)
(3.25069e-09 -5.38752e-07 0)
(3.22023e-09 -5.39322e-07 0)
(3.18973e-09 -5.39887e-07 0)
(3.15918e-09 -5.40449e-07 0)
(3.12859e-09 -5.41007e-07 0)
(3.09794e-09 -5.4156e-07 0)
(3.06725e-09 -5.42109e-07 0)
(3.03652e-09 -5.42654e-07 0)
(3.00574e-09 -5.43195e-07 0)
(2.97492e-09 -5.43732e-07 0)
(2.94405e-09 -5.44264e-07 0)
(2.91315e-09 -5.44792e-07 0)
(2.8822e-09 -5.45315e-07 0)
(2.8512e-09 -5.45834e-07 0)
(2.82017e-09 -5.46349e-07 0)
(2.7891e-09 -5.46859e-07 0)
(2.75799e-09 -5.47365e-07 0)
(2.72684e-09 -5.47867e-07 0)
(2.69566e-09 -5.48363e-07 0)
(2.66443e-09 -5.48856e-07 0)
(2.63318e-09 -5.49343e-07 0)
(2.60188e-09 -5.49826e-07 0)
(2.57055e-09 -5.50304e-07 0)
(2.53919e-09 -5.50778e-07 0)
(2.50779e-09 -5.51247e-07 0)
(2.47636e-09 -5.51711e-07 0)
(2.4449e-09 -5.5217e-07 0)
(2.41341e-09 -5.52625e-07 0)
(2.38189e-09 -5.53074e-07 0)
(2.35034e-09 -5.53519e-07 0)
(2.31876e-09 -5.53959e-07 0)
(2.28716e-09 -5.54394e-07 0)
(2.25552e-09 -5.54824e-07 0)
(2.22386e-09 -5.55248e-07 0)
(2.19218e-09 -5.55668e-07 0)
(2.16047e-09 -5.56083e-07 0)
(2.12874e-09 -5.56493e-07 0)
(2.09698e-09 -5.56897e-07 0)
(2.0652e-09 -5.57297e-07 0)
(2.03341e-09 -5.57691e-07 0)
(2.00159e-09 -5.5808e-07 0)
(1.96975e-09 -5.58464e-07 0)
(1.93789e-09 -5.58842e-07 0)
(1.90602e-09 -5.59215e-07 0)
(1.87413e-09 -5.59583e-07 0)
(1.84223e-09 -5.59945e-07 0)
(1.81031e-09 -5.60302e-07 0)
(1.77837e-09 -5.60654e-07 0)
(1.74643e-09 -5.61e-07 0)
(1.71447e-09 -5.6134e-07 0)
(1.6825e-09 -5.61675e-07 0)
(1.65052e-09 -5.62005e-07 0)
(1.61853e-09 -5.62329e-07 0)
(1.58653e-09 -5.62647e-07 0)
(1.55453e-09 -5.6296e-07 0)
(1.52252e-09 -5.63267e-07 0)
(1.49051e-09 -5.63568e-07 0)
(1.45849e-09 -5.63863e-07 0)
(1.42646e-09 -5.64153e-07 0)
(1.39444e-09 -5.64437e-07 0)
(1.36241e-09 -5.64715e-07 0)
(1.33039e-09 -5.64987e-07 0)
(1.29836e-09 -5.65254e-07 0)
(1.26634e-09 -5.65514e-07 0)
(1.23432e-09 -5.65769e-07 0)
(1.20231e-09 -5.66017e-07 0)
(1.1703e-09 -5.6626e-07 0)
(1.13829e-09 -5.66496e-07 0)
(1.10629e-09 -5.66726e-07 0)
(1.07433e-09 -5.66953e-07 0)
(1.04223e-09 -5.67165e-07 0)
(1.01078e-09 -5.67397e-07 0)
(9.76641e-10 -5.67551e-07 0)
(9.53911e-10 -5.68002e-07 0)
(8.82961e-10 -5.67857e-07 0)
(7.95363e-10 -5.67804e-07 0)
(7.62077e-10 -5.68465e-07 0)
(7.3837e-10 -5.68568e-07 0)
(7.16711e-10 -5.68562e-07 0)
(6.95286e-10 -5.68662e-07 0)
(6.73661e-10 -5.68824e-07 0)
(6.51737e-10 -5.68974e-07 0)
(6.29496e-10 -5.691e-07 0)
(6.06936e-10 -5.69218e-07 0)
(5.84055e-10 -5.69336e-07 0)
(5.60853e-10 -5.69455e-07 0)
(5.37332e-10 -5.69569e-07 0)
(5.13493e-10 -5.69679e-07 0)
(4.89336e-10 -5.69784e-07 0)
(4.64864e-10 -5.69886e-07 0)
(4.40077e-10 -5.69983e-07 0)
(4.14977e-10 -5.70076e-07 0)
(3.89566e-10 -5.70164e-07 0)
(3.63845e-10 -5.70248e-07 0)
(3.37815e-10 -5.70326e-07 0)
(3.11478e-10 -5.704e-07 0)
(2.84837e-10 -5.70468e-07 0)
(2.57893e-10 -5.7053e-07 0)
(2.30647e-10 -5.70587e-07 0)
(2.03103e-10 -5.70637e-07 0)
(1.75262e-10 -5.70681e-07 0)
(1.47127e-10 -5.70719e-07 0)
(1.18699e-10 -5.70751e-07 0)
(8.99822e-11 -5.70775e-07 0)
(6.0978e-11 -5.70793e-07 0)
(3.16894e-11 -5.70803e-07 0)
(2.11919e-12 -5.70805e-07 0)
(-2.77297e-11 -5.708e-07 0)
(-5.78541e-11 -5.70787e-07 0)
(-8.82511e-11 -5.70766e-07 0)
(-1.18917e-10 -5.70736e-07 0)
(-1.49849e-10 -5.70697e-07 0)
(-1.81043e-10 -5.70649e-07 0)
(-2.12496e-10 -5.70592e-07 0)
(-2.44203e-10 -5.70525e-07 0)
(-2.76161e-10 -5.70449e-07 0)
(-3.08366e-10 -5.70362e-07 0)
(-3.40813e-10 -5.70265e-07 0)
(-3.73497e-10 -5.70158e-07 0)
(-4.06415e-10 -5.70039e-07 0)
(-4.39562e-10 -5.69909e-07 0)
(-4.72932e-10 -5.69767e-07 0)
(-5.06521e-10 -5.69614e-07 0)
(-5.40323e-10 -5.69448e-07 0)
(-5.74333e-10 -5.6927e-07 0)
(-6.08545e-10 -5.69079e-07 0)
(-6.42954e-10 -5.68875e-07 0)
(-6.77553e-10 -5.68658e-07 0)
(-7.12336e-10 -5.68426e-07 0)
(-7.47297e-10 -5.68181e-07 0)
(-7.82429e-10 -5.67921e-07 0)
(-8.17726e-10 -5.67646e-07 0)
(-8.5318e-10 -5.67356e-07 0)
(-8.88785e-10 -5.67051e-07 0)
(-9.24533e-10 -5.6673e-07 0)
(-9.60416e-10 -5.66392e-07 0)
(-9.96426e-10 -5.66038e-07 0)
(-1.03256e-09 -5.65667e-07 0)
(-1.0688e-09 -5.65279e-07 0)
(-1.10514e-09 -5.64873e-07 0)
(-1.14158e-09 -5.64449e-07 0)
(-1.1781e-09 -5.64006e-07 0)
(-1.2147e-09 -5.63545e-07 0)
(-1.25136e-09 -5.63064e-07 0)
(-1.28809e-09 -5.62564e-07 0)
(-1.32485e-09 -5.62044e-07 0)
(-1.36166e-09 -5.61504e-07 0)
(-1.39849e-09 -5.60942e-07 0)
(-1.43534e-09 -5.6036e-07 0)
(-1.47219e-09 -5.59756e-07 0)
(-1.50903e-09 -5.5913e-07 0)
(-1.54586e-09 -5.58482e-07 0)
(-1.58266e-09 -5.57811e-07 0)
(-1.61942e-09 -5.57116e-07 0)
(-1.65612e-09 -5.56399e-07 0)
(-1.69276e-09 -5.55657e-07 0)
(-1.72932e-09 -5.54891e-07 0)
(-1.76579e-09 -5.541e-07 0)
(-1.80216e-09 -5.53283e-07 0)
(-1.83841e-09 -5.52442e-07 0)
(-1.87453e-09 -5.51574e-07 0)
(-1.9105e-09 -5.5068e-07 0)
(-1.94632e-09 -5.49759e-07 0)
(-1.98196e-09 -5.48811e-07 0)
(-2.01742e-09 -5.47835e-07 0)
(-2.05267e-09 -5.46832e-07 0)
(-2.08771e-09 -5.458e-07 0)
(-2.12252e-09 -5.44739e-07 0)
(-2.15708e-09 -5.43649e-07 0)
(-2.19138e-09 -5.4253e-07 0)
(-2.2254e-09 -5.4138e-07 0)
(-2.25913e-09 -5.40201e-07 0)
(-2.29255e-09 -5.38991e-07 0)
(-2.32564e-09 -5.3775e-07 0)
(-2.35839e-09 -5.36477e-07 0)
(-2.39079e-09 -5.35173e-07 0)
(-2.42281e-09 -5.33837e-07 0)
(-2.45444e-09 -5.32469e-07 0)
(-2.48566e-09 -5.31068e-07 0)
(-2.51646e-09 -5.29634e-07 0)
(-2.54681e-09 -5.28167e-07 0)
(-2.57671e-09 -5.26666e-07 0)
(-2.60613e-09 -5.25132e-07 0)
(-2.63506e-09 -5.23564e-07 0)
(-2.66348e-09 -5.2196e-07 0)
(-2.69138e-09 -5.20323e-07 0)
(-2.71873e-09 -5.18651e-07 0)
(-2.74553e-09 -5.16944e-07 0)
(-2.77174e-09 -5.15201e-07 0)
(-2.79737e-09 -5.13424e-07 0)
(-2.82238e-09 -5.1161e-07 0)
(-2.84677e-09 -5.09761e-07 0)
(-2.87051e-09 -5.07876e-07 0)
(-2.89359e-09 -5.05955e-07 0)
(-2.916e-09 -5.03998e-07 0)
(-2.93772e-09 -5.02005e-07 0)
(-2.95873e-09 -4.99975e-07 0)
(-2.97902e-09 -4.9791e-07 0)
(-2.99858e-09 -4.95807e-07 0)
(-3.01738e-09 -4.93669e-07 0)
(-3.03542e-09 -4.91494e-07 0)
(-3.05268e-09 -4.89283e-07 0)
(-3.06914e-09 -4.87035e-07 0)
(-3.0848e-09 -4.84751e-07 0)
(-3.09964e-09 -4.82431e-07 0)
(-3.11366e-09 -4.80075e-07 0)
(-3.12682e-09 -4.77683e-07 0)
(-3.13914e-09 -4.75256e-07 0)
(-3.15058e-09 -4.72792e-07 0)
(-3.16116e-09 -4.70294e-07 0)
(-3.17084e-09 -4.6776e-07 0)
(-3.17964e-09 -4.65191e-07 0)
(-3.18753e-09 -4.62588e-07 0)
(-3.19451e-09 -4.59951e-07 0)
(-3.20056e-09 -4.57279e-07 0)
(-3.2057e-09 -4.54574e-07 0)
(-3.2099e-09 -4.51836e-07 0)
(-3.21315e-09 -4.49064e-07 0)
(-3.21547e-09 -4.46261e-07 0)
(-3.21683e-09 -4.43425e-07 0)
(-3.21725e-09 -4.40558e-07 0)
(-3.2167e-09 -4.37659e-07 0)
(-3.21519e-09 -4.34731e-07 0)
(-3.21272e-09 -4.31773e-07 0)
(-3.20928e-09 -4.28785e-07 0)
(-3.20488e-09 -4.25769e-07 0)
(-3.19951e-09 -4.22725e-07 0)
(-3.19318e-09 -4.19653e-07 0)
(-3.18589e-09 -4.16555e-07 0)
(-3.17763e-09 -4.13431e-07 0)
(-3.16843e-09 -4.10283e-07 0)
(-3.15826e-09 -4.07109e-07 0)
(-3.14717e-09 -4.03913e-07 0)
(-3.13513e-09 -4.00693e-07 0)
(-3.12218e-09 -3.97453e-07 0)
(-3.1083e-09 -3.9419e-07 0)
(-3.09354e-09 -3.90909e-07 0)
(-3.07787e-09 -3.87608e-07 0)
(-3.06134e-09 -3.8429e-07 0)
(-3.04394e-09 -3.80953e-07 0)
(-3.0257e-09 -3.77601e-07 0)
(-3.00662e-09 -3.74233e-07 0)
(-2.98674e-09 -3.70852e-07 0)
(-2.96605e-09 -3.67457e-07 0)
(-2.9446e-09 -3.64051e-07 0)
(-2.92237e-09 -3.60631e-07 0)
(-2.89941e-09 -3.57204e-07 0)
(-2.87571e-09 -3.53766e-07 0)
(-2.85133e-09 -3.50321e-07 0)
(-2.82625e-09 -3.46868e-07 0)
(-2.80053e-09 -3.43409e-07 0)
(-2.77413e-09 -3.3995e-07 0)
(-2.74718e-09 -3.36466e-07 0)
(-2.71934e-09 -3.33042e-07 0)
(-2.69203e-09 -3.29342e-07 0)
(-2.6594e-09 -3.26158e-07 0)
(-2.61737e-09 -3.22494e-07 0)
(-2.57583e-09 -3.17871e-07 0)
(-2.53846e-09 -3.138e-07 0)
(-2.50199e-09 -3.09849e-07 0)
(-2.4657e-09 -3.05864e-07 0)
(-2.42938e-09 -3.01889e-07 0)
(-2.39302e-09 -2.97985e-07 0)
(-2.35666e-09 -2.94156e-07 0)
(-2.32034e-09 -2.90389e-07 0)
(-2.28408e-09 -2.86677e-07 0)
(-2.24792e-09 -2.83021e-07 0)
(-2.21189e-09 -2.79424e-07 0)
(-2.176e-09 -2.75885e-07 0)
(-2.1403e-09 -2.72405e-07 0)
(-2.10479e-09 -2.6898e-07 0)
(-2.0695e-09 -2.65613e-07 0)
(-2.03444e-09 -2.62302e-07 0)
(-1.99964e-09 -2.59047e-07 0)
(-1.96509e-09 -2.55848e-07 0)
(-1.93082e-09 -2.52703e-07 0)
(-1.89684e-09 -2.49613e-07 0)
(-1.86314e-09 -2.46577e-07 0)
(-1.82975e-09 -2.43594e-07 0)
(-1.79666e-09 -2.40665e-07 0)
(-1.76388e-09 -2.37788e-07 0)
(-1.73142e-09 -2.34962e-07 0)
(-1.69927e-09 -2.32188e-07 0)
(-1.66744e-09 -2.29465e-07 0)
(-1.63592e-09 -2.26792e-07 0)
(-1.60473e-09 -2.24169e-07 0)
(-1.57385e-09 -2.21595e-07 0)
(-1.54329e-09 -2.1907e-07 0)
(-1.51304e-09 -2.16593e-07 0)
(-1.4831e-09 -2.14164e-07 0)
(-1.45348e-09 -2.11782e-07 0)
(-1.42416e-09 -2.09446e-07 0)
(-1.39514e-09 -2.07157e-07 0)
(-1.36643e-09 -2.04914e-07 0)
(-1.33802e-09 -2.02717e-07 0)
(-1.3099e-09 -2.00564e-07 0)
(-1.28207e-09 -1.98455e-07 0)
(-1.25452e-09 -1.96391e-07 0)
(-1.22726e-09 -1.9437e-07 0)
(-1.20028e-09 -1.92392e-07 0)
(-1.17357e-09 -1.90458e-07 0)
(-1.14712e-09 -1.88565e-07 0)
(-1.12095e-09 -1.86715e-07 0)
(-1.09502e-09 -1.84906e-07 0)
(-1.06936e-09 -1.83139e-07 0)
(-1.04394e-09 -1.81412e-07 0)
(-1.01877e-09 -1.79727e-07 0)
(-9.93823e-10 -1.7808e-07 0)
(-9.69122e-10 -1.76476e-07 0)
(-9.44631e-10 -1.74908e-07 0)
(-9.20376e-10 -1.73382e-07 0)
(-8.96316e-10 -1.71893e-07 0)
(-8.7248e-10 -1.70445e-07 0)
(-8.48826e-10 -1.69032e-07 0)
(-8.25387e-10 -1.67661e-07 0)
(-8.02113e-10 -1.66324e-07 0)
(-7.79043e-10 -1.65029e-07 0)
(-7.56125e-10 -1.63766e-07 0)
(-7.334e-10 -1.62545e-07 0)
(-7.10812e-10 -1.61356e-07 0)
(-6.88406e-10 -1.60209e-07 0)
(-6.66124e-10 -1.59093e-07 0)
(-6.44012e-10 -1.58019e-07 0)
(-6.22011e-10 -1.56974e-07 0)
(-6.00169e-10 -1.55972e-07 0)
(-5.78424e-10 -1.54998e-07 0)
(-5.56827e-10 -1.54067e-07 0)
(-5.35315e-10 -1.53164e-07 0)
(-5.13939e-10 -1.52304e-07 0)
(-4.92636e-10 -1.5147e-07 0)
(-4.71457e-10 -1.50679e-07 0)
(-4.50338e-10 -1.49914e-07 0)
(-4.29332e-10 -1.49193e-07 0)
(-4.08374e-10 -1.48497e-07 0)
(-3.87518e-10 -1.47845e-07 0)
(-3.667e-10 -1.47216e-07 0)
(-3.45973e-10 -1.46632e-07 0)
(-3.25278e-10 -1.46071e-07 0)
(-3.04668e-10 -1.45555e-07 0)
(-2.84088e-10 -1.45061e-07 0)
(-2.63593e-10 -1.44613e-07 0)
(-2.43139e-10 -1.44186e-07 0)
(-2.22779e-10 -1.43803e-07 0)
(-2.0249e-10 -1.43452e-07 0)
(-1.82293e-10 -1.43105e-07 0)
(-1.62292e-10 -1.42917e-07 0)
(-1.42029e-10 -1.42301e-07 0)
(-1.23313e-10 -1.43221e-07 0)
(-9.85423e-11 -1.38766e-07 0)
(-9.83704e-11 -1.49978e-07 0)
(-5.73228e-11 -1.30855e-07 0)
)
;
    }
    bottomWall
    {
        type            calculated;
        value           nonuniform List<vector> 
449
(
(-53.4071 -0.96381 0)
(-35.4813 -0.00276305 0)
(-35.3201 -0.000272177 0)
(-33.5645 -0.000487312 0)
(-31.9684 -0.000442017 0)
(-30.5338 -0.000385337 0)
(-29.3281 -0.000320834 0)
(-28.3334 -0.000264444 0)
(-27.5116 -0.000220859 0)
(-26.8133 -0.000187371 0)
(-26.2196 -0.0001607 0)
(-25.7031 -0.000139073 0)
(-25.2574 -0.000119978 0)
(-24.872 -0.000104525 0)
(-24.5315 -9.4554e-05 0)
(-24.2134 -8.45606e-05 0)
(-23.9418 -7.57846e-05 0)
(-23.6836 -6.96595e-05 0)
(-23.4539 -6.22875e-05 0)
(-23.247 -5.63858e-05 0)
(-23.0577 -5.17346e-05 0)
(-22.8829 -4.73368e-05 0)
(-22.7238 -4.44343e-05 0)
(-22.5689 -4.0026e-05 0)
(-22.4411 -3.56023e-05 0)
(-22.3166 -3.37055e-05 0)
(-22.2012 -3.16714e-05 0)
(-22.0908 -3.01943e-05 0)
(-21.9852 -2.89486e-05 0)
(-21.8836 -2.58655e-05 0)
(-21.8005 -2.31889e-05 0)
(-21.7173 -2.27878e-05 0)
(-21.636 -2.21951e-05 0)
(-21.5567 -2.15971e-05 0)
(-21.4793 -2.03296e-05 0)
(-21.4093 -1.83938e-05 0)
(-21.3459 -1.75875e-05 0)
(-21.2812 -1.65013e-05 0)
(-21.2257 -1.48464e-05 0)
(-21.1728 -1.40687e-05 0)
(-21.1224 -1.40028e-05 0)
(-21.0694 -1.42839e-05 0)
(-21.0165 -1.37152e-05 0)
(-20.9678 -1.31418e-05 0)
(-20.9189 -1.31481e-05 0)
(-20.8699 -1.27992e-05 0)
(-20.8237 -1.21675e-05 0)
(-20.7792 -1.16651e-05 0)
(-20.7366 -1.05439e-05 0)
(-20.7007 -9.74984e-06 0)
(-20.6637 -1.00914e-05 0)
(-20.6247 -9.84228e-06 0)
(-20.5898 -8.33454e-06 0)
(-20.5622 -7.92441e-06 0)
(-20.5297 -8.64605e-06 0)
(-20.4963 -8.17132e-06 0)
(-20.4676 -7.72422e-06 0)
(-20.4376 -7.19092e-06 0)
(-20.4128 -7.34857e-06 0)
(-20.3813 -7.47186e-06 0)
(-20.3554 -7.21071e-06 0)
(-20.3259 -6.89505e-06 0)
(-20.3025 -5.43938e-06 0)
(-20.2843 -5.0136e-06 0)
(-20.2637 -5.59697e-06 0)
(-20.2407 -5.60569e-06 0)
(-20.2203 -4.92156e-06 0)
(-20.2026 -5.01645e-06 0)
(-20.1809 -5.79165e-06 0)
(-20.1569 -5.36395e-06 0)
(-20.139 -4.25272e-06 0)
(-20.1239 -4.23111e-06 0)
(-20.1056 -5.18014e-06 0)
(-20.0825 -5.60493e-06 0)
(-20.0609 -5.35497e-06 0)
(-20.0398 -5.64022e-06 0)
(-20.0161 -5.11272e-06 0)
(-19.9995 -3.83133e-06 0)
(-19.9861 -3.2056e-06 0)
(-19.9744 -3.36513e-06 0)
(-19.9593 -3.91058e-06 0)
(-19.9429 -4.1914e-06 0)
(-19.9254 -4.08736e-06 0)
(-19.9099 -3.41702e-06 0)
(-19.8982 -2.52075e-06 0)
(-19.8902 -2.02675e-06 0)
(-19.882 -3.21609e-06 0)
(-19.8633 -4.23733e-06 0)
(-19.847 -3.55473e-06 0)
(-19.8345 -3.12106e-06 0)
(-19.8219 -2.77567e-06 0)
(-19.8123 -2.47497e-06 0)
(-19.8019 -2.41218e-06 0)
(-19.793 -1.83516e-06 0)
(-19.7874 -1.6886e-06 0)
(-19.7791 -2.42296e-06 0)
(-19.767 -2.92566e-06 0)
(-19.7546 -2.9275e-06 0)
(-19.7428 -2.48354e-06 0)
(-19.7342 -2.27301e-06 0)
(-19.7239 -2.50764e-06 0)
(-19.7134 -2.19368e-06 0)
(-19.7059 -1.51265e-06 0)
(-19.7009 -1.34838e-06 0)
(-19.6947 -1.2144e-06 0)
(-19.6909 -9.31011e-07 0)
(-19.6869 -1.61765e-06 0)
(-19.6767 -2.37373e-06 0)
(-19.6663 -2.35247e-06 0)
(-19.6566 -2.30002e-06 0)
(-19.6467 -2.03159e-06 0)
(-19.6395 -1.62014e-06 0)
(-19.6331 -1.69793e-06 0)
(-19.6252 -1.30726e-06 0)
(-19.6222 -7.78253e-07 0)
(-19.6186 -1.44395e-06 0)
(-19.6095 -1.79887e-06 0)
(-19.603 -1.08346e-06 0)
(-19.6004 -8.15181e-07 0)
(-19.5958 -1.67818e-06 0)
(-19.5851 -2.02752e-06 0)
(-19.5778 -1.62901e-06 0)
(-19.571 -1.7972e-06 0)
(-19.5622 -1.8696e-06 0)
(-19.5549 -1.22326e-06 0)
(-19.5519 -7.43322e-07 0)
(-19.5487 -7.21739e-07 0)
(-19.5459 -4.99487e-07 0)
(-19.5446 -7.1076e-07 0)
(-19.5394 -1.22095e-06 0)
(-19.5333 -1.42572e-06 0)
(-19.5264 -1.17883e-06 0)
(-19.5227 -9.45282e-07 0)
(-19.5178 -1.38085e-06 0)
(-19.5102 -1.21994e-06 0)
(-19.507 -6.94928e-07 0)
(-19.5042 -6.93538e-07 0)
(-19.501 -6.88425e-07 0)
(-19.4981 -7.05789e-07 0)
(-19.4947 -5.19722e-07 0)
(-19.4937 -2.75247e-07 0)
(-19.4925 -3.34192e-07 0)
(-19.4907 -7.26564e-07 0)
(-19.4857 -8.99036e-07 0)
(-19.4823 -7.19139e-07 0)
(-19.479 -8.66848e-07 0)
(-19.4742 -8.24088e-07 0)
(-19.4715 -5.24854e-07 0)
(-19.4696 -4.69734e-07 0)
(-19.4674 -8.22419e-07 0)
(-19.4619 -1.08774e-06 0)
(-19.457 -9.34895e-07 0)
(-19.4532 -6.29617e-07 0)
(-19.4513 -4.30022e-07 0)
(-19.4493 -6.25011e-07 0)
(-19.4453 -6.22364e-07 0)
(-19.4434 -3.66796e-07 0)
(-19.442 -2.97053e-07 0)
(-19.4406 -3.10018e-07 0)
(-19.4391 -4.11963e-07 0)
(-19.4367 -5.43693e-07 0)
(-19.4337 -7.46931e-07 0)
(-19.4293 -8.25859e-07 0)
(-19.4258 -5.73184e-07 0)
(-19.4239 -5.27461e-07 0)
(-19.4206 -7.02841e-07 0)
(-19.4171 -4.98785e-07 0)
(-19.416 -2.18468e-07 0)
(-19.4151 -1.95051e-07 0)
(-19.4142 -8.44987e-08 0)
(-19.4145 7.65477e-08 0)
(-19.4151 -1.92568e-07 0)
(-19.4124 -6.97702e-07 0)
(-19.4081 -6.85516e-07 0)
(-19.4061 -3.04288e-07 0)
(-19.4058 -1.60706e-07 0)
(-19.4049 -2.06114e-07 0)
(-19.4039 -1.2913e-07 0)
(-19.4038 -1.08448e-07 0)
(-19.403 -1.66783e-07 0)
(-19.4023 -1.28782e-07 0)
(-19.4017 -3.13135e-07 0)
(-19.3991 -4.57245e-07 0)
(-19.3973 -1.23951e-07 0)
(-19.3982 1.35528e-07 0)
(-19.3989 -9.75912e-08 0)
(-19.3971 -3.67785e-07 0)
(-19.3948 -6.06706e-07 0)
(-19.3906 -6.61086e-07 0)
(-19.388 -2.96693e-07 0)
(-19.3877 -1.05605e-07 0)
(-19.387 -2.1511e-07 0)
(-19.3854 -3.71093e-07 0)
(-19.383 -3.03358e-07 0)
(-19.3822 -8.44733e-08 0)
(-19.3821 -1.56877e-07 0)
(-19.3802 -3.49e-07 0)
(-19.3779 -4.4484e-07 0)
(-19.375 -5.6091e-07 0)
(-19.3712 -5.40388e-07 0)
(-19.3687 -3.02613e-07 0)
(-19.3678 -2.64677e-07 0)
(-19.3656 -2.91375e-07 0)
(-19.3644 -1.17581e-07 0)
(-19.3642 -9.29585e-08 0)
(-19.3631 -5.49369e-07 0)
(-19.3569 -7.59742e-07 0)
(-19.3532 -5.1477e-07 0)
(-19.3504 -4.63085e-07 0)
(-19.3475 -3.4754e-07 0)
(-19.3462 -1.56367e-07 0)
(-19.3456 -1.9645e-07 0)
(-19.3436 -3.46011e-07 0)
(-19.3409 -3.79719e-07 0)
(-19.3385 -3.22716e-07 0)
(-19.3367 -1.47827e-07 0)
(-19.3367 -1.75474e-08 0)
(-19.3366 -1.82458e-07 0)
(-19.334 -2.4973e-07 0)
(-19.333 -1.34569e-07 0)
(-19.3322 -1.6891e-07 0)
(-19.3305 -2.026e-07 0)
(-19.3292 -1.59926e-07 0)
(-19.3282 -1.59141e-07 0)
(-19.3267 -2.16351e-07 0)
(-19.3248 -2.08683e-07 0)
(-19.3235 -1.81536e-07 0)
(-19.3219 -2.01556e-07 0)
(-19.3202 -2.0118e-07 0)
(-19.3185 -2.58906e-07 0)
(-19.3159 -2.56869e-07 0)
(-19.3142 -3.06941e-07 0)
(-19.3104 -5.00686e-07 0)
(-19.3054 -4.75977e-07 0)
(-19.3024 -3.11266e-07 0)
(-19.3003 -2.61209e-07 0)
(-19.298 -1.71751e-07 0)
(-19.2975 -9.78153e-08 0)
(-19.2963 -1.92574e-07 0)
(-19.2939 -3.23586e-07 0)
(-19.2903 -3.95765e-07 0)
(-19.2866 -2.82083e-07 0)
(-19.2853 -1.3418e-07 0)
(-19.2844 -6.71613e-08 0)
(-19.2843 -7.49786e-08 0)
(-19.2831 -2.16027e-07 0)
(-19.28 -2.35272e-07 0)
(-19.2785 -1.3087e-07 0)
(-19.2775 -2.14476e-07 0)
(-19.2739 -3.89005e-07 0)
(-19.2693 -3.99793e-07 0)
(-19.2658 -3.23309e-07 0)
(-19.2628 -2.01003e-07 0)
(-19.2618 -7.28691e-08 0)
(-19.2615 2.40194e-08 0)
(-19.2625 -6.92384e-09 0)
(-19.2613 -2.93879e-07 0)
(-19.2557 -5.18488e-07 0)
(-19.2496 -4.47811e-07 0)
(-19.2459 -1.71686e-07 0)
(-19.2461 5.47224e-09 0)
(-19.2462 -7.29686e-08 0)
(-19.2443 -2.08305e-07 0)
(-19.2412 -2.2782e-07 0)
(-19.2389 -2.21664e-07 0)
(-19.236 -1.47836e-07 0)
(-19.2356 -1.58189e-08 0)
(-19.2358 -6.8958e-08 0)
(-19.2339 -2.44416e-07 0)
(-19.2297 -3.06554e-07 0)
(-19.2262 -2.09493e-07 0)
(-19.2245 -5.12004e-08 0)
(-19.2252 9.36164e-09 0)
(-19.225 -1.21296e-07 0)
(-19.2221 -2.06255e-07 0)
(-19.2196 -1.3866e-07 0)
(-19.2185 -1.08257e-07 0)
(-19.2167 -1.08728e-07 0)
(-19.2156 -5.29417e-08 0)
(-19.2154 -8.37844e-08 0)
(-19.2132 -1.66418e-07 0)
(-19.2105 -1.50212e-07 0)
(-19.2089 -7.84905e-08 0)
(-19.2084 -1.90031e-08 0)
(-19.2086 -3.07962e-08 0)
(-19.2077 -4.76919e-08 0)
(-19.2073 -2.00139e-08 0)
(-19.2071 -9.16957e-08 0)
(-19.2043 -1.86151e-07 0)
(-19.2013 -1.85998e-07 0)
(-19.1986 -1.95056e-07 0)
(-19.1952 -1.77428e-07 0)
(-19.1931 -9.42419e-08 0)
(-19.1924 -4.69892e-08 0)
(-19.1917 -3.88493e-08 0)
(-19.1913 3.95174e-08 0)
(-19.1935 9.79694e-08 0)
(-19.1949 2.60287e-08 0)
(-19.1944 -2.12774e-08 0)
(-19.1941 -3.74539e-08 0)
(-19.193 -1.03981e-07 0)
(-19.1904 -9.45542e-08 0)
(-19.1896 -1.06863e-07 0)
(-19.1865 -1.81866e-07 0)
(-19.1831 -1.3915e-07 0)
(-19.1817 -7.7614e-08 0)
(-19.1804 -6.11181e-08 0)
(-19.1795 -4.87691e-08 0)
(-19.1785 -6.48342e-08 0)
(-19.1768 -1.01699e-07 0)
(-19.1744 -1.00405e-07 0)
(-19.1729 -7.6087e-08 0)
(-19.1714 -9.8778e-08 0)
(-19.169 -4.51705e-08 0)
(-19.17 3.77814e-08 0)
(-19.1708 5.84578e-09 0)
(-19.1703 -8.80927e-09 0)
(-19.1705 -2.69453e-08 0)
(-19.169 -1.27669e-07 0)
(-19.1648 -1.31542e-07 0)
(-19.1632 -9.02161e-08 0)
(-19.1608 -1.08639e-07 0)
(-19.1586 -3.5045e-08 0)
(-19.1597 5.56791e-08 0)
(-19.1615 1.88236e-08 0)
(-19.1607 -5.08476e-08 0)
(-19.1591 -6.98276e-08 0)
(-19.1573 -8.98684e-08 0)
(-19.1548 -1.03421e-07 0)
(-19.1524 -8.99306e-08 0)
(-19.1506 -3.41501e-08 0)
(-19.1511 6.90294e-08 0)
(-19.1545 1.21909e-07 0)
(-19.1574 3.79118e-08 0)
(-19.1562 -8.0662e-08 0)
(-19.1529 -1.15053e-07 0)
(-19.1501 -5.41387e-08 0)
(-19.1502 1.43805e-09 0)
(-19.1502 -3.86474e-08 0)
(-19.148 -4.07931e-08 0)
(-19.1479 -3.70195e-08 0)
(-19.1459 -7.13541e-08 0)
(-19.144 -5.57213e-08 0)
(-19.1431 -5.23026e-10 0)
(-19.1444 5.13251e-08 0)
(-19.1462 2.06601e-08 0)
(-19.1456 -6.25339e-09 0)
(-19.146 1.06434e-08 0)
(-19.1463 -1.00523e-08 0)
(-19.1454 -3.53202e-08 0)
(-19.1441 -2.01174e-08 0)
(-19.1441 -8.86896e-09 0)
(-19.1435 -3.33072e-08 0)
(-19.142 -3.99843e-08 0)
(-19.1408 -5.53986e-08 0)
(-19.1377 -6.0726e-08 0)
(-19.1363 -4.91581e-09 0)
(-19.1377 -1.7323e-09 0)
(-19.1363 -4.62879e-08 0)
(-19.1341 -2.59197e-08 0)
(-19.1344 2.18966e-09 0)
(-19.1344 9.50173e-09 0)
(-19.1352 1.85264e-08 0)
(-19.1358 -4.63711e-10 0)
(-19.1351 -2.11428e-08 0)
(-19.1341 -1.75303e-08 0)
(-19.1337 -6.48383e-09 0)
(-19.1336 -1.93709e-08 0)
(-19.1322 -2.85119e-08 0)
(-19.1314 -9.27783e-09 0)
(-19.1316 -5.641e-09 0)
(-19.131 -9.5371e-09 0)
(-19.1308 2.26218e-09 0)
(-19.1312 2.85083e-09 0)
(-19.131 -1.83231e-08 0)
(-19.1297 -4.10462e-08 0)
(-19.1279 -3.61135e-08 0)
(-19.127 -2.14017e-08 0)
(-19.1263 -4.26509e-10 0)
(-19.1271 1.73587e-08 0)
(-19.1277 9.96338e-09 0)
(-19.1279 -1.36707e-08 0)
(-19.1266 -3.72403e-08 0)
(-19.1249 -1.67473e-08 0)
(-19.1254 1.98468e-08 0)
(-19.1268 1.31413e-08 0)
(-19.1266 -8.04734e-09 0)
(-19.1261 1.16768e-08 0)
(-19.1275 1.4193e-08 0)
(-19.1271 -2.56353e-08 0)
(-19.1254 -2.75572e-08 0)
(-19.1249 -3.4746e-08 0)
(-19.1225 -3.12555e-08 0)
(-19.1225 8.05687e-10 0)
(-19.1227 -2.4273e-09 0)
(-19.1224 -1.27334e-08 0)
(-19.1218 -8.22637e-09 0)
(-19.1218 1.7551e-08 0)
(-19.1233 3.64791e-08 0)
(-19.1246 1.07964e-08 0)
(-19.1239 -2.70161e-08 0)
(-19.1223 -2.07953e-08 0)
(-19.1223 1.4549e-08 0)
(-19.1235 2.93982e-09 0)
(-19.1224 -3.56565e-08 0)
(-19.1206 -3.00738e-08 0)
(-19.1201 -2.15768e-08 0)
(-19.1191 -1.79404e-08 0)
(-19.1187 -1.57073e-08 0)
(-19.1178 -1.30544e-08 0)
(-19.1179 5.28248e-09 0)
(-19.1184 6.25137e-09 0)
(-19.1183 1.59751e-08 0)
(-19.1197 5.11683e-08 0)
(-19.1225 4.08679e-08 0)
(-19.1229 1.70681e-09 0)
(-19.1224 -2.41906e-08 0)
(-19.1209 -5.3133e-08 0)
(-19.1183 -3.20285e-08 0)
(-19.1185 7.79601e-09 0)
(-19.1191 5.38163e-09 0)
(-19.119 9.16416e-09 0)
(-19.1198 1.19407e-08 0)
(-19.1199 1.19223e-08 0)
(-19.1207 2.81931e-08 0)
(-19.122 1.75788e-09 0)
(-19.1207 -4.19431e-08 0)
(-19.1186 -6.10618e-08 0)
(-19.1158 -5.99185e-08 0)
(-19.114 -2.25981e-08 0)
(-19.1143 6.45786e-09 0)
(-19.1147 4.3976e-09 0)
(-19.1147 2.63133e-08 0)
(-19.1168 3.50412e-08 0)
(-19.1175 1.46781e-08 0)
(-19.118 -4.14428e-09 0)
(-19.1171 -2.61509e-08 0)
(-19.1159 -2.11652e-08 0)
(-19.1155 5.84842e-09 0)
(-19.1164 2.53e-08 0)
(-19.1175 6.17473e-09 0)
(-19.1167 -2.69343e-08 0)
(-19.1152 -3.14408e-08 0)
(-19.1142 -2.41445e-08 0)
(-19.1134 -1.83693e-08 0)
(-19.1129 -5.58414e-09 0)
(-19.113 1.14816e-08 0)
(-19.1138 4.52243e-08 0)
(-19.1166 3.49923e-08 0)
)
;
    }
    symmetry
    {
        type            symmetryPlane;
    }
    frontAndBack
    {
        type            empty;
    }
}


// ************************************************************************* //
