/*--------------------------------*- C++ -*----------------------------------*\
| =========                 |                                                 |
| \\      /  F ield         | OpenFOAM: The Open Source CFD Toolbox           |
|  \\    /   O peration     | Version:  v2012                                 |
|   \\  /    A nd           | Website:  www.openfoam.com                      |
|    \\/     M anipulation  |                                                 |
\*---------------------------------------------------------------------------*/
FoamFile
{
    version     2.0;
    format      ascii;
    class       volScalarField;
    location    "58";
    object      k;
}
// * * * * * * * * * * * * * * * * * * * * * * * * * * * * * * * * * * * * * //

dimensions      [0 2 -2 0 0 0 0];


internalField   nonuniform List<scalar> 
209825
(
0.00102382
0.000932799
0.000857598
0.000793214
0.000736999
0.000687726
0.000644621
0.000607047
0.000574299
0.00054576
0.000520777
0.000498877
0.000479534
0.000462441
0.000447192
0.000433612
0.000421374
0.000410404
0.000400423
0.000391429
0.000383172
0.000375702
0.000368785
0.000362513
0.000356653
0.000351336
0.00034632
0.000341774
0.000337445
0.00033353
0.000329763
0.000326369
0.000323071
0.000320113
0.000317204
0.000314614
0.000312035
0.000309758
0.00030746
0.000305451
0.000303395
0.000301616
0.000299769
0.000298189
0.000296522
0.000295116
0.000293607
0.000292353
0.000290983
0.000289863
0.000288615
0.000287612
0.000286473
0.000285574
0.000284532
0.000283726
0.00028277
0.000282046
0.000281171
0.000280518
0.000279717
0.000279126
0.000278392
0.000277858
0.000277184
0.000276701
0.000276081
0.000275645
0.000275073
0.00027468
0.000274152
0.000273797
0.000273318
0.000273002
0.000272549
0.000272249
0.000271809
0.000271524
0.000271096
0.000270824
0.000270407
0.000270149
0.000269741
0.000269499
0.000269099
0.000268876
0.000268484
0.00026828
0.000267899
0.000267714
0.00026734
0.000267178
0.000266787
0.000269492
0.0091409
0.0106131
0.00102382
0.000932799
0.000857598
0.000793215
0.000737
0.000687727
0.000644622
0.000607048
0.000574299
0.000545761
0.000520777
0.000498877
0.000479533
0.00046244
0.00044719
0.00043361
0.000421372
0.000410401
0.00040042
0.000391425
0.000383168
0.000375698
0.000368781
0.000362509
0.000356648
0.000351331
0.000346315
0.000341769
0.00033744
0.000333524
0.000329757
0.000326363
0.000323064
0.000320106
0.000317198
0.000314607
0.000312029
0.000309751
0.000307453
0.000305444
0.000303388
0.000301609
0.000299761
0.000298182
0.000296515
0.000295109
0.0002936
0.000292346
0.000290975
0.000289855
0.000288607
0.000287604
0.000286465
0.000285566
0.000284524
0.000283718
0.000282762
0.000282038
0.000281163
0.000280509
0.000279708
0.000279118
0.000278383
0.000277849
0.000277176
0.000276692
0.000276072
0.000275636
0.000275065
0.000274671
0.000274144
0.000273788
0.000273309
0.000272993
0.00027254
0.00027224
0.0002718
0.000271515
0.000271087
0.000270815
0.000270398
0.00027014
0.000269732
0.00026949
0.00026909
0.000268867
0.000268475
0.000268271
0.00026789
0.000267705
0.00026733
0.000267168
0.000266777
0.000269487
0.00915049
0.0106231
0.00102382
0.000932798
0.000857598
0.000793216
0.000737002
0.00068773
0.000644625
0.00060705
0.0005743
0.00054576
0.000520775
0.000498873
0.000479527
0.000462432
0.000447181
0.000433599
0.000421359
0.000410387
0.000400404
0.000391408
0.00038315
0.000375679
0.00036876
0.000362488
0.000356626
0.000351308
0.000346291
0.000341744
0.000337415
0.000333498
0.000329731
0.000326336
0.000323037
0.000320078
0.000317169
0.000314578
0.000311999
0.000309721
0.000307423
0.000305413
0.000303357
0.000301577
0.00029973
0.00029815
0.000296482
0.000295076
0.000293567
0.000292313
0.000290942
0.000289821
0.000288573
0.00028757
0.00028643
0.000285531
0.000284489
0.000283683
0.000282727
0.000282003
0.000281127
0.000280474
0.000279672
0.000279082
0.000278347
0.000277813
0.000277139
0.000276656
0.000276036
0.000275599
0.000275028
0.000274634
0.000274106
0.000273751
0.000273272
0.000272956
0.000272503
0.000272203
0.000271763
0.000271477
0.000271049
0.000270777
0.00027036
0.000270101
0.000269694
0.000269451
0.000269051
0.000268828
0.000268436
0.000268232
0.000267851
0.000267666
0.000267291
0.000267129
0.000266738
0.000269455
0.00917128
0.0106398
0.00102382
0.000932798
0.000857598
0.000793218
0.000737007
0.000687735
0.00064463
0.000607054
0.000574302
0.000545759
0.000520771
0.000498865
0.000479517
0.000462418
0.000447164
0.000433579
0.000421337
0.000410362
0.000400377
0.00039138
0.000383119
0.000375647
0.000368726
0.000362452
0.000356589
0.000351269
0.000346251
0.000341703
0.000337372
0.000333454
0.000329686
0.000326291
0.00032299
0.000320031
0.000317121
0.000314529
0.000311949
0.000309671
0.000307372
0.000305361
0.000303305
0.000301524
0.000299676
0.000298096
0.000296428
0.000295021
0.000293511
0.000292257
0.000290886
0.000289765
0.000288516
0.000287513
0.000286373
0.000285473
0.000284431
0.000283624
0.000282668
0.000281944
0.000281068
0.000280414
0.000279612
0.000279022
0.000278287
0.000277752
0.000277078
0.000276594
0.000275974
0.000275538
0.000274966
0.000274572
0.000274044
0.000273688
0.000273209
0.000272893
0.00027244
0.000272139
0.000271699
0.000271413
0.000270985
0.000270713
0.000270296
0.000270037
0.000269629
0.000269387
0.000268987
0.000268763
0.000268371
0.000268167
0.000267786
0.000267601
0.000267226
0.000267064
0.000266673
0.000269401
0.00920395
0.0106649
0.00102382
0.000932797
0.000857598
0.000793221
0.000737013
0.000687743
0.000644637
0.000607059
0.000574304
0.000545757
0.000520764
0.000498854
0.000479502
0.000462399
0.000447141
0.000433552
0.000421306
0.000410328
0.00040034
0.000391339
0.000383076
0.000375601
0.000368678
0.000362401
0.000356536
0.000351214
0.000346195
0.000341645
0.000337312
0.000333393
0.000329623
0.000326226
0.000322925
0.000319964
0.000317053
0.00031446
0.000311879
0.000309599
0.0003073
0.000305288
0.000303231
0.00030145
0.000299601
0.00029802
0.000296351
0.000294944
0.000293433
0.000292178
0.000290806
0.000289685
0.000288436
0.000287432
0.000286291
0.000285391
0.000284348
0.000283541
0.000282585
0.00028186
0.000280983
0.000280329
0.000279527
0.000278936
0.000278201
0.000277666
0.000276992
0.000276508
0.000275887
0.000275451
0.000274878
0.000274484
0.000273956
0.0002736
0.00027312
0.000272804
0.000272351
0.00027205
0.000271609
0.000271324
0.000270895
0.000270623
0.000270205
0.000269947
0.000269538
0.000269296
0.000268895
0.000268672
0.000268279
0.000268075
0.000267694
0.000267509
0.000267133
0.000266971
0.00026658
0.000269323
0.00924937
0.0106991
0.00102382
0.000932795
0.000857598
0.000793225
0.000737021
0.000687753
0.000644647
0.000607066
0.000574306
0.000545754
0.000520756
0.00049884
0.000479482
0.000462374
0.00044711
0.000433516
0.000421266
0.000410283
0.000400291
0.000391287
0.00038302
0.000375541
0.000368615
0.000362335
0.000356468
0.000351143
0.000346122
0.000341569
0.000337235
0.000333313
0.000329542
0.000326143
0.00032284
0.000319877
0.000316965
0.000314371
0.000311788
0.000309507
0.000307207
0.000305194
0.000303135
0.000301353
0.000299503
0.000297921
0.000296252
0.000294843
0.000293332
0.000292076
0.000290703
0.000289581
0.000288331
0.000287327
0.000286186
0.000285285
0.000284241
0.000283434
0.000282477
0.000281752
0.000280874
0.00028022
0.000279417
0.000278826
0.00027809
0.000277555
0.00027688
0.000276396
0.000275774
0.000275338
0.000274765
0.00027437
0.000273842
0.000273486
0.000273005
0.000272689
0.000272235
0.000271934
0.000271493
0.000271207
0.000270778
0.000270506
0.000270088
0.000269829
0.000269421
0.000269178
0.000268777
0.000268553
0.00026816
0.000267956
0.000267574
0.000267389
0.000267013
0.000266851
0.00026646
0.000269224
0.00930842
0.0107432
0.00102382
0.000932794
0.000857598
0.00079323
0.00073703
0.000687765
0.000644658
0.000607074
0.00057431
0.000545751
0.000520746
0.000498823
0.000479458
0.000462343
0.000447073
0.000433473
0.000421217
0.000410229
0.000400232
0.000391222
0.000382951
0.000375468
0.000368538
0.000362255
0.000356384
0.000351056
0.000346031
0.000341476
0.000337139
0.000333215
0.000329442
0.00032604
0.000322735
0.000319771
0.000316857
0.00031426
0.000311677
0.000309394
0.000307092
0.000305077
0.000303017
0.000301234
0.000299383
0.000297799
0.000296129
0.00029472
0.000293207
0.00029195
0.000290577
0.000289454
0.000288203
0.000287198
0.000286056
0.000285154
0.00028411
0.000283302
0.000282344
0.000281618
0.00028074
0.000280085
0.000279282
0.00027869
0.000277954
0.000277418
0.000276742
0.000276258
0.000275636
0.000275198
0.000274625
0.00027423
0.000273701
0.000273345
0.000272864
0.000272548
0.000272093
0.000271792
0.00027135
0.000271064
0.000270635
0.000270362
0.000269943
0.000269685
0.000269275
0.000269032
0.000268631
0.000268407
0.000268014
0.000267809
0.000267427
0.000267241
0.000266865
0.000266703
0.000266312
0.000269101
0.00938201
0.0107982
0.00102382
0.000932792
0.000857598
0.000793236
0.000737042
0.000687779
0.000644672
0.000607084
0.000574314
0.000545747
0.000520735
0.000498803
0.00047943
0.000462307
0.000447029
0.000433421
0.000421159
0.000410164
0.000400161
0.000391145
0.000382869
0.000375381
0.000368447
0.000362159
0.000356284
0.000350952
0.000345924
0.000341365
0.000337025
0.000333098
0.000329322
0.000325918
0.000322611
0.000319644
0.000316728
0.000314129
0.000311543
0.000309259
0.000306955
0.000304939
0.000302877
0.000301092
0.00029924
0.000297655
0.000295983
0.000294572
0.000293059
0.000291801
0.000290426
0.000289302
0.00028805
0.000287044
0.000285901
0.000284999
0.000283953
0.000283144
0.000282185
0.000281459
0.00028058
0.000279925
0.000279121
0.000278528
0.000277791
0.000277255
0.000276578
0.000276093
0.000275471
0.000275033
0.000274459
0.000274064
0.000273534
0.000273177
0.000272696
0.000272379
0.000271924
0.000271622
0.00027118
0.000270894
0.000270464
0.000270191
0.000269771
0.000269512
0.000269103
0.000268859
0.000268457
0.000268233
0.000267839
0.000267634
0.000267252
0.000267066
0.000266689
0.000266526
0.000266135
0.000268955
0.009471
0.0108648
0.00102382
0.000932789
0.000857599
0.000793242
0.000737055
0.000687796
0.000644688
0.000607096
0.000574319
0.000545744
0.000520722
0.00049878
0.000479397
0.000462265
0.000446978
0.000433362
0.000421091
0.000410089
0.000400079
0.000391056
0.000382774
0.00037528
0.000368341
0.000362048
0.000356168
0.000350832
0.0003458
0.000341237
0.000336894
0.000332963
0.000329184
0.000325777
0.000322466
0.000319497
0.000316578
0.000313977
0.000311389
0.000309102
0.000306796
0.000304778
0.000302714
0.000300928
0.000299074
0.000297487
0.000295814
0.000294401
0.000292886
0.000291627
0.000290251
0.000289126
0.000287872
0.000286865
0.000285721
0.000284818
0.000283771
0.000282961
0.000282001
0.000281274
0.000280395
0.000279738
0.000278933
0.00027834
0.000277602
0.000277065
0.000276388
0.000275902
0.000275279
0.00027484
0.000274266
0.00027387
0.000273339
0.000272982
0.0002725
0.000272183
0.000271727
0.000271425
0.000270982
0.000270695
0.000270265
0.000269991
0.000269571
0.000269312
0.000268902
0.000268658
0.000268255
0.000268031
0.000267636
0.000267431
0.000267048
0.000266861
0.000266484
0.000266321
0.00026593
0.000268786
0.00957625
0.0109438
0.00102382
0.000932787
0.000857599
0.00079325
0.000737071
0.000687815
0.000644707
0.000607109
0.000574325
0.00054574
0.000520707
0.000498755
0.000479361
0.000462217
0.00044692
0.000433294
0.000421014
0.000410003
0.000399985
0.000390955
0.000382666
0.000375166
0.00036822
0.000361921
0.000356036
0.000350695
0.000345658
0.000341091
0.000336743
0.000332809
0.000329025
0.000325615
0.000322301
0.000319329
0.000316407
0.000313803
0.000311212
0.000308923
0.000306615
0.000304594
0.000302529
0.00030074
0.000298884
0.000297295
0.00029562
0.000294206
0.00029269
0.000291429
0.000290051
0.000288924
0.00028767
0.000286661
0.000285515
0.000284611
0.000283563
0.000282752
0.000281791
0.000281063
0.000280182
0.000279525
0.000278719
0.000278125
0.000277386
0.000276848
0.00027617
0.000275683
0.000275059
0.00027462
0.000274045
0.000273648
0.000273117
0.000272759
0.000272276
0.000271959
0.000271502
0.0002712
0.000270756
0.000270469
0.000270037
0.000269764
0.000269343
0.000269083
0.000268672
0.000268428
0.000268025
0.0002678
0.000267404
0.000267199
0.000266815
0.000266628
0.00026625
0.000266087
0.000265696
0.000268594
0.00969852
0.011036
0.00102382
0.000932784
0.000857599
0.000793259
0.000737088
0.000687837
0.000644728
0.000607125
0.000574332
0.000545736
0.000520691
0.000498726
0.00047932
0.000462164
0.000446856
0.000433219
0.000420929
0.000409908
0.000399881
0.000390842
0.000382545
0.000375037
0.000368085
0.000361779
0.000355888
0.000350541
0.000345499
0.000340926
0.000336574
0.000332635
0.000328848
0.000325433
0.000322116
0.00031914
0.000316215
0.000313608
0.000311014
0.000308722
0.000306411
0.000304388
0.00030232
0.000300529
0.00029867
0.00029708
0.000295402
0.000293987
0.000292468
0.000291205
0.000289826
0.000288698
0.000287442
0.000286431
0.000285284
0.000284379
0.000283329
0.000282517
0.000281555
0.000280825
0.000279944
0.000279285
0.000278478
0.000277883
0.000277143
0.000276604
0.000275925
0.000275438
0.000274812
0.000274373
0.000273796
0.000273399
0.000272867
0.000272508
0.000272025
0.000271707
0.000271249
0.000270946
0.000270502
0.000270214
0.000269781
0.000269507
0.000269086
0.000268826
0.000268414
0.000268169
0.000267765
0.00026754
0.000267143
0.000266938
0.000266553
0.000266366
0.000265986
0.000265824
0.000265433
0.000268379
0.00983851
0.0111421
0.00102382
0.00093278
0.0008576
0.000793268
0.000737107
0.000687861
0.000644752
0.000607143
0.00057434
0.000545732
0.000520674
0.000498695
0.000479275
0.000462105
0.000446785
0.000433135
0.000420834
0.000409802
0.000399765
0.000390716
0.000382411
0.000374894
0.000367934
0.000361621
0.000355723
0.00035037
0.000345322
0.000340744
0.000336386
0.000332442
0.00032865
0.000325231
0.00032191
0.00031893
0.000316001
0.00031339
0.000310794
0.000308498
0.000306184
0.000304158
0.000302087
0.000300293
0.000298433
0.00029684
0.00029516
0.000293742
0.000292222
0.000290957
0.000289576
0.000288446
0.000287188
0.000286176
0.000285027
0.00028412
0.000283069
0.000282256
0.000281292
0.000280561
0.000279678
0.000279018
0.00027821
0.000277613
0.000276872
0.000276333
0.000275652
0.000275164
0.000274538
0.000274097
0.00027352
0.000273122
0.000272589
0.000272229
0.000271745
0.000271426
0.000270967
0.000270664
0.000270218
0.00026993
0.000269497
0.000269222
0.000268799
0.000268539
0.000268126
0.000267881
0.000267476
0.00026725
0.000266853
0.000266647
0.000266261
0.000266073
0.000265692
0.00026553
0.000265139
0.00026814
0.00999678
0.0112629
0.00102382
0.000932777
0.0008576
0.000793278
0.000737129
0.000687888
0.000644779
0.000607163
0.00057435
0.000545728
0.000520656
0.000498661
0.000479226
0.000462042
0.000446707
0.000433044
0.00042073
0.000409685
0.000399637
0.000390579
0.000382263
0.000374737
0.000367769
0.000361448
0.000355543
0.000350182
0.000345127
0.000340543
0.00033618
0.00033223
0.000328433
0.000325009
0.000321683
0.000318698
0.000315766
0.000313151
0.000310551
0.000308251
0.000305934
0.000303905
0.000301831
0.000300034
0.000298171
0.000296575
0.000294893
0.000293473
0.00029195
0.000290683
0.0002893
0.000288168
0.000286908
0.000285894
0.000284744
0.000283835
0.000282782
0.000281967
0.000281002
0.000280269
0.000279385
0.000278724
0.000277914
0.000277316
0.000276574
0.000276033
0.000275351
0.000274862
0.000274235
0.000273793
0.000273214
0.000272816
0.000272281
0.000271921
0.000271436
0.000271116
0.000270656
0.000270353
0.000269906
0.000269617
0.000269182
0.000268907
0.000268484
0.000268223
0.000267808
0.000267563
0.000267157
0.000266931
0.000266532
0.000266326
0.000265939
0.000265751
0.000265369
0.000265206
0.000264816
0.000267878
0.0101737
0.011399
0.00102382
0.000932772
0.0008576
0.00079329
0.000737152
0.000687917
0.000644808
0.000607185
0.000574361
0.000545725
0.000520637
0.000498625
0.000479174
0.000461973
0.000446623
0.000432944
0.000420617
0.000409559
0.000399499
0.000390428
0.000382103
0.000374566
0.000367589
0.000361258
0.000355345
0.000349977
0.000344915
0.000340323
0.000335954
0.000331998
0.000328196
0.000324766
0.000321435
0.000318446
0.000315508
0.00031289
0.000310285
0.000307982
0.000305661
0.000303628
0.000301551
0.000299751
0.000297885
0.000296286
0.000294601
0.000293178
0.000291653
0.000290384
0.000288998
0.000287864
0.000286602
0.000285586
0.000284433
0.000283523
0.000282468
0.000281651
0.000280684
0.00027995
0.000279064
0.000278402
0.00027759
0.000276992
0.000276247
0.000275705
0.000275022
0.000274532
0.000273903
0.000273461
0.00027288
0.000272481
0.000271945
0.000271584
0.000271097
0.000270777
0.000270316
0.000270012
0.000269564
0.000269274
0.000268839
0.000268563
0.000268138
0.000267877
0.000267461
0.000267216
0.000266808
0.000266581
0.000266182
0.000265974
0.000265586
0.000265398
0.000265014
0.000264852
0.000264462
0.000267592
0.0103696
0.0115514
0.00102382
0.000932768
0.0008576
0.000793302
0.000737177
0.00068795
0.000644841
0.00060721
0.000574374
0.000545722
0.000520617
0.000498587
0.000479118
0.000461899
0.000446532
0.000432837
0.000420495
0.000409423
0.00039935
0.000390266
0.000381929
0.000374381
0.000367394
0.000361053
0.000355131
0.000349754
0.000344685
0.000340086
0.000335709
0.000331747
0.000327938
0.000324503
0.000321166
0.000318171
0.000315229
0.000312606
0.000309997
0.000307689
0.000305364
0.000303328
0.000301247
0.000299444
0.000297574
0.000295972
0.000294284
0.000292859
0.00029133
0.000290058
0.00028867
0.000287533
0.000286269
0.000285251
0.000284096
0.000283184
0.000282127
0.000281308
0.000280339
0.000279604
0.000278716
0.000278052
0.000277238
0.000276638
0.000275892
0.000275349
0.000274665
0.000274173
0.000273542
0.000273099
0.000272517
0.000272117
0.00027158
0.000271218
0.00027073
0.000270409
0.000269946
0.000269641
0.000269192
0.000268902
0.000268465
0.000268188
0.000267762
0.0002675
0.000267083
0.000266837
0.000266428
0.000266201
0.0002658
0.000265592
0.000265203
0.000265014
0.000264629
0.000264466
0.000264077
0.000267282
0.0105843
0.0117205
0.00102382
0.000932763
0.0008576
0.000793315
0.000737204
0.000687985
0.000644876
0.000607238
0.000574389
0.000545719
0.000520596
0.000498547
0.000479059
0.00046182
0.000446436
0.000432723
0.000420364
0.000409276
0.000399189
0.000390092
0.000381742
0.000374182
0.000367183
0.000360833
0.000354901
0.000349514
0.000344437
0.000339829
0.000335446
0.000331476
0.000327661
0.000324219
0.000320876
0.000317875
0.000314928
0.000312299
0.000309686
0.000307373
0.000305044
0.000303004
0.000300919
0.000299112
0.000297238
0.000295633
0.000293942
0.000292513
0.000290982
0.000289707
0.000288316
0.000287177
0.000285909
0.000284889
0.000283732
0.000282817
0.000281758
0.000280938
0.000279967
0.000279229
0.000278339
0.000277673
0.000276858
0.000276257
0.000275509
0.000274964
0.000274278
0.000273785
0.000273153
0.000272708
0.000272125
0.000271724
0.000271185
0.000270822
0.000270332
0.000270011
0.000269547
0.000269241
0.00026879
0.000268499
0.000268061
0.000267784
0.000267356
0.000267093
0.000266675
0.000266428
0.000266018
0.00026579
0.000265388
0.000265179
0.000264788
0.000264598
0.000264212
0.000264049
0.00026366
0.000266948
0.0108175
0.011907
0.00102382
0.000932758
0.0008576
0.000793329
0.000737234
0.000688023
0.000644914
0.000607268
0.000574405
0.000545718
0.000520575
0.000498504
0.000478996
0.000461737
0.000446333
0.000432601
0.000420225
0.00040912
0.000399017
0.000389905
0.000381542
0.000373969
0.000366959
0.000360596
0.000354654
0.000349258
0.000344171
0.000339554
0.000335163
0.000331185
0.000327362
0.000323913
0.000320565
0.000317558
0.000314605
0.00031197
0.000309351
0.000307034
0.0003047
0.000302655
0.000300566
0.000298755
0.000296878
0.000295269
0.000293574
0.000292142
0.000290607
0.000289329
0.000287935
0.000286793
0.000285523
0.0002845
0.000283341
0.000282423
0.000281362
0.000280539
0.000279566
0.000278826
0.000277934
0.000277267
0.00027645
0.000275846
0.000275096
0.00027455
0.000273862
0.000273368
0.000272734
0.000272288
0.000271703
0.0002713
0.00027076
0.000270396
0.000269905
0.000269582
0.000269117
0.00026881
0.000268358
0.000268066
0.000267626
0.000267348
0.000266919
0.000266655
0.000266236
0.000265988
0.000265576
0.000265348
0.000264944
0.000264735
0.000264342
0.000264152
0.000263764
0.000263601
0.000263213
0.00026659
0.0110685
0.0121115
0.00102382
0.000932753
0.0008576
0.000793344
0.000737265
0.000688064
0.000644956
0.000607301
0.000574424
0.000545718
0.000520554
0.000498461
0.00047893
0.000461649
0.000446224
0.000432472
0.000420077
0.000408954
0.000398835
0.000389707
0.000381329
0.000373742
0.000366719
0.000360344
0.000354391
0.000348983
0.000343887
0.000339261
0.000334861
0.000330874
0.000327044
0.000323588
0.000320232
0.000317218
0.000314259
0.000311619
0.000308994
0.000306672
0.000304333
0.000302283
0.000300189
0.000298373
0.000296492
0.000294879
0.000293181
0.000291744
0.000290206
0.000288925
0.000287528
0.000286383
0.00028511
0.000284084
0.000282922
0.000282002
0.000280938
0.000280113
0.000279137
0.000278395
0.000277501
0.000276831
0.000276012
0.000275407
0.000274655
0.000274107
0.000273417
0.000272921
0.000272285
0.000271838
0.000271251
0.000270847
0.000270305
0.00026994
0.000269447
0.000269123
0.000268656
0.000268348
0.000267895
0.000267602
0.00026716
0.000266882
0.000266451
0.000266187
0.000265765
0.000265517
0.000265103
0.000264875
0.000264469
0.000264259
0.000263865
0.000263674
0.000263284
0.000263121
0.000262733
0.000266207
0.0113364
0.0123345
0.00102382
0.000932747
0.0008576
0.000793359
0.000737299
0.000688107
0.000645001
0.000607337
0.000574445
0.000545718
0.000520533
0.000498415
0.000478861
0.000461556
0.00044611
0.000432336
0.000419921
0.000408779
0.000398642
0.000389496
0.000381103
0.000373501
0.000366464
0.000360076
0.000354112
0.000348692
0.000343585
0.000338949
0.000334539
0.000330544
0.000326706
0.000323241
0.000319878
0.000316857
0.000313891
0.000311244
0.000308614
0.000306285
0.000303941
0.000301886
0.000299788
0.000297967
0.000296081
0.000294464
0.000292761
0.000291321
0.000289779
0.000288495
0.000287094
0.000285945
0.000284669
0.00028364
0.000282475
0.000281553
0.000280486
0.000279658
0.00027868
0.000277936
0.000277039
0.000276367
0.000275545
0.000274938
0.000274184
0.000273635
0.000272942
0.000272445
0.000271807
0.000271358
0.000270769
0.000270364
0.00026982
0.000269454
0.000268959
0.000268634
0.000268165
0.000267856
0.000267401
0.000267107
0.000266664
0.000266384
0.000265951
0.000265687
0.000265263
0.000265015
0.000264599
0.000264369
0.000263962
0.000263751
0.000263355
0.000263163
0.000262772
0.000262609
0.000262222
0.000265798
0.0116196
0.0125763
0.00102382
0.00093274
0.0008576
0.000793376
0.000737335
0.000688154
0.000645049
0.000607377
0.000574469
0.000545721
0.000520512
0.000498369
0.00047879
0.00046146
0.00044599
0.000432193
0.000419757
0.000408594
0.000398438
0.000389274
0.000380864
0.000373246
0.000366195
0.000359793
0.000353816
0.000348384
0.000343266
0.000338618
0.000334199
0.000330193
0.000326347
0.000322873
0.000319502
0.000316473
0.000313501
0.000310847
0.00030821
0.000305876
0.000303526
0.000301464
0.000299361
0.000297535
0.000295645
0.000294023
0.000292316
0.000290872
0.000289326
0.000288037
0.000286633
0.000285481
0.000284201
0.000283169
0.000282001
0.000281075
0.000280005
0.000279175
0.000278194
0.000277447
0.000276548
0.000275874
0.000275049
0.00027444
0.000273684
0.000273132
0.000272438
0.000271939
0.000271298
0.000270848
0.000270257
0.00026985
0.000269304
0.000268937
0.00026844
0.000268114
0.000267643
0.000267333
0.000266876
0.000266581
0.000266136
0.000265855
0.000265421
0.000265155
0.00026473
0.00026448
0.000264063
0.000263832
0.000263423
0.000263211
0.000262814
0.000262621
0.000262227
0.000262064
0.000261678
0.000265364
0.0119162
0.0128371
0.00102382
0.000932734
0.000857599
0.000793393
0.000737372
0.000688204
0.000645101
0.000607419
0.000574495
0.000545725
0.000520491
0.000498321
0.000478717
0.00046136
0.000445865
0.000432043
0.000419585
0.000408399
0.000398224
0.000389041
0.000380613
0.000372978
0.000365912
0.000359495
0.000353504
0.000348058
0.000342928
0.000338269
0.000333839
0.000329823
0.000325967
0.000322485
0.000319106
0.000316068
0.000313088
0.000310427
0.000307784
0.000305442
0.000303086
0.000301019
0.00029891
0.000297079
0.000295183
0.000293556
0.000291845
0.000290396
0.000288846
0.000287553
0.000286145
0.000284989
0.000283706
0.00028267
0.000281498
0.00028057
0.000279497
0.000278664
0.000277679
0.00027693
0.000276028
0.000275351
0.000274524
0.000273913
0.000273154
0.0002726
0.000271903
0.000271402
0.00027076
0.000270308
0.000269715
0.000269306
0.000268758
0.000268389
0.00026789
0.000267563
0.00026709
0.000266779
0.00026632
0.000266024
0.000265576
0.000265295
0.000264858
0.000264592
0.000264164
0.000263914
0.000263494
0.000263263
0.000262852
0.000262639
0.00026224
0.000262046
0.00026165
0.000261487
0.000261102
0.000264904
0.0122237
0.0131169
0.00102382
0.000932727
0.000857598
0.000793411
0.000737412
0.000688257
0.000645157
0.000607465
0.000574525
0.00054573
0.000520471
0.000498273
0.000478641
0.000461256
0.000445735
0.000431887
0.000419405
0.000408196
0.000398
0.000388796
0.00038035
0.000372697
0.000365614
0.000359181
0.000353176
0.000347716
0.000342574
0.000337902
0.000333461
0.000329434
0.000325568
0.000322075
0.000318687
0.000315641
0.000312654
0.000309984
0.000307334
0.000304985
0.000302623
0.000300549
0.000298434
0.000296597
0.000294696
0.000293064
0.000291347
0.000289894
0.000288339
0.000287042
0.000285629
0.00028447
0.000283183
0.000282144
0.000280968
0.000280036
0.00027896
0.000278124
0.000277136
0.000276384
0.000275479
0.000274799
0.00027397
0.000273356
0.000272594
0.000272039
0.000271339
0.000270836
0.000270191
0.000269737
0.000269141
0.000268732
0.000268181
0.000267811
0.00026731
0.000266981
0.000266506
0.000266194
0.000265732
0.000265435
0.000264985
0.000264703
0.000264264
0.000263996
0.000263567
0.000263316
0.000262894
0.000262662
0.000262248
0.000262035
0.000261633
0.000261438
0.00026104
0.000260877
0.000260493
0.000264417
0.0125391
0.0134154
0.00102382
0.000932719
0.000857598
0.00079343
0.000737454
0.000688313
0.000645216
0.000607515
0.000574557
0.000545738
0.000520452
0.000498225
0.000478563
0.000461149
0.0004456
0.000431725
0.000419218
0.000407985
0.000397766
0.00038854
0.000380075
0.000372402
0.000365302
0.000358852
0.000352832
0.000347357
0.000342201
0.000337517
0.000333064
0.000329025
0.000325149
0.000321645
0.000318248
0.000315193
0.000312197
0.000309519
0.000306861
0.000304505
0.000302135
0.000300055
0.000297934
0.000296091
0.000294184
0.000292546
0.000290824
0.000289366
0.000287806
0.000286505
0.000285087
0.000283923
0.000282632
0.000281589
0.00028041
0.000279474
0.000278394
0.000277555
0.000276564
0.000275809
0.0002749
0.000274218
0.000273386
0.000272769
0.000272005
0.000271447
0.000270744
0.00027024
0.000269591
0.000269136
0.000268538
0.000268126
0.000267573
0.000267201
0.000266698
0.000266368
0.000265891
0.000265577
0.000265113
0.000264814
0.000264362
0.000264079
0.000263638
0.000263369
0.000262937
0.000262685
0.000262261
0.000262028
0.000261612
0.000261398
0.000260994
0.000260798
0.000260398
0.000260234
0.000259852
0.000263902
0.0128587
0.0137319
0.00102382
0.000932712
0.000857596
0.000793449
0.000737498
0.000688372
0.000645279
0.000607569
0.000574593
0.000545749
0.000520435
0.000498176
0.000478484
0.000461039
0.000445461
0.000431557
0.000419024
0.000407765
0.000397522
0.000388274
0.000379788
0.000372095
0.000364977
0.000358509
0.000352472
0.000346982
0.000341812
0.000337113
0.000332648
0.000328597
0.000324709
0.000321195
0.000317788
0.000314723
0.000311717
0.000309031
0.000306365
0.000304001
0.000301624
0.000299536
0.000297409
0.000295559
0.000293646
0.000292002
0.000290275
0.000288811
0.000287247
0.00028594
0.000284518
0.00028335
0.000282054
0.000281007
0.000279823
0.000278884
0.0002778
0.000276958
0.000275963
0.000275205
0.000274293
0.000273608
0.000272772
0.000272153
0.000271386
0.000270825
0.000270119
0.000269613
0.000268962
0.000268504
0.000267903
0.00026749
0.000266934
0.000266561
0.000266055
0.000265723
0.000265244
0.000264928
0.000264462
0.000264162
0.000263708
0.000263423
0.00026298
0.00026271
0.000262276
0.000262023
0.000261596
0.000261362
0.000260944
0.000260728
0.000260322
0.000260125
0.000259722
0.000259558
0.000259178
0.000263359
0.0131784
0.0140654
0.00102382
0.000932704
0.000857595
0.000793469
0.000737544
0.000688435
0.000645346
0.000607626
0.000574632
0.000545761
0.000520418
0.000498127
0.000478404
0.000460926
0.000445318
0.000431384
0.000418823
0.000407536
0.00039727
0.000387997
0.000379489
0.000371775
0.000364638
0.000358151
0.000352097
0.000346591
0.000341406
0.000336692
0.000332214
0.000328149
0.00032425
0.000320724
0.000317307
0.000314231
0.000311216
0.00030852
0.000305846
0.000303473
0.000301089
0.000298994
0.000296859
0.000295003
0.000293083
0.000291433
0.0002897
0.000288231
0.000286661
0.000285349
0.000283922
0.000282749
0.000281448
0.000280397
0.000279209
0.000278266
0.000277178
0.000276332
0.000275333
0.000274572
0.000273656
0.000272968
0.000272129
0.000271507
0.000270736
0.000270173
0.000269465
0.000268956
0.000268302
0.000267842
0.000267238
0.000266823
0.000266264
0.000265889
0.000265381
0.000265047
0.000264565
0.000264249
0.000263779
0.000263479
0.000263021
0.000262736
0.000262289
0.000262019
0.000261582
0.000261328
0.000260898
0.000260663
0.000260242
0.000260026
0.000259617
0.000259419
0.000259013
0.000258849
0.00025847
0.000262786
0.0134934
0.0144144
0.00102382
0.000932695
0.000857594
0.00079349
0.000737592
0.000688501
0.000645417
0.000607688
0.000574675
0.000545777
0.000520404
0.000498079
0.000478323
0.000460811
0.000445172
0.000431206
0.000418616
0.000407301
0.000397008
0.00038771
0.000379179
0.000371442
0.000364285
0.000357778
0.000351707
0.000346183
0.000340983
0.000336253
0.000331761
0.000327683
0.000323772
0.000320233
0.000316805
0.000313718
0.000310694
0.000307988
0.000305304
0.000302923
0.000300531
0.000298427
0.000296285
0.000294421
0.000292495
0.000290839
0.0002891
0.000287624
0.000286048
0.000284731
0.000283299
0.000282121
0.000280815
0.00027976
0.000278567
0.00027762
0.000276528
0.000275677
0.000274675
0.00027391
0.000272991