/*--------------------------------*- C++ -*----------------------------------*\
| =========                 |                                                 |
| \\      /  F ield         | OpenFOAM: The Open Source CFD Toolbox           |
|  \\    /   O peration     | Version:  v2012                                 |
|   \\  /    A nd           | Website:  www.openfoam.com                      |
|    \\/     M anipulation  |                                                 |
\*---------------------------------------------------------------------------*/
FoamFile
{
    version     2.0;
    format      ascii;
    class       volScalarField;
    location    "58";
    object      nut;
}
// * * * * * * * * * * * * * * * * * * * * * * * * * * * * * * * * * * * * * //

dimensions      [0 2 -1 0 0 0 0];


internalField   nonuniform List<scalar> 
209825
(
1.24122e-07
1.23481e-07
1.22322e-07
1.19657e-07
1.15396e-07
1.10025e-07
1.04147e-07
9.82276e-08
9.25563e-08
8.72821e-08
8.24568e-08
7.80911e-08
7.41524e-08
7.06167e-08
6.74323e-08
6.4575e-08
6.19921e-08
5.96694e-08
5.75572e-08
5.56526e-08
5.39086e-08
5.23319e-08
5.08775e-08
4.95604e-08
4.83354e-08
4.72255e-08
4.61836e-08
4.52407e-08
4.43474e-08
4.35401e-08
4.27677e-08
4.20723e-08
4.13999e-08
4.07971e-08
4.02074e-08
3.96823e-08
3.9162e-08
3.87023e-08
3.82407e-08
3.78369e-08
3.74254e-08
3.70694e-08
3.67009e-08
3.63856e-08
3.60536e-08
3.57741e-08
3.54742e-08
3.52255e-08
3.49528e-08
3.4732e-08
3.44835e-08
3.42859e-08
3.40591e-08
3.38822e-08
3.3676e-08
3.35163e-08
3.3326e-08
3.31844e-08
3.30086e-08
3.28814e-08
3.27206e-08
3.26049e-08
3.24566e-08
3.23512e-08
3.22153e-08
3.21181e-08
3.19939e-08
3.19052e-08
3.17893e-08
3.17079e-08
3.16003e-08
3.15266e-08
3.14282e-08
3.13625e-08
3.1269e-08
3.1206e-08
3.11143e-08
3.10537e-08
3.09634e-08
3.09047e-08
3.08157e-08
3.07591e-08
3.06712e-08
3.06164e-08
3.05273e-08
3.0474e-08
3.03854e-08
3.03328e-08
3.02466e-08
3.01953e-08
3.01094e-08
3.00577e-08
2.99628e-08
3.02166e-08
2.71699e-06
1.83926e-08
1.24122e-07
1.2348e-07
1.22322e-07
1.19658e-07
1.15397e-07
1.10027e-07
1.04149e-07
9.82298e-08
9.25586e-08
8.72845e-08
8.24593e-08
7.80936e-08
7.41549e-08
7.0619e-08
6.74345e-08
6.45772e-08
6.19941e-08
5.96714e-08
5.7559e-08
5.56543e-08
5.39102e-08
5.23335e-08
5.08789e-08
4.95618e-08
4.83367e-08
4.72268e-08
4.61848e-08
4.52418e-08
4.43485e-08
4.35411e-08
4.27686e-08
4.20732e-08
4.14008e-08
4.0798e-08
4.02082e-08
3.96831e-08
3.91627e-08
3.8703e-08
3.82413e-08
3.78375e-08
3.7426e-08
3.707e-08
3.67015e-08
3.63862e-08
3.60542e-08
3.57746e-08
3.54747e-08
3.52259e-08
3.49532e-08
3.47324e-08
3.44839e-08
3.42863e-08
3.40595e-08
3.38826e-08
3.36763e-08
3.35166e-08
3.33263e-08
3.31847e-08
3.30089e-08
3.28816e-08
3.27208e-08
3.26052e-08
3.24568e-08
3.23515e-08
3.22155e-08
3.21183e-08
3.19941e-08
3.19054e-08
3.17895e-08
3.17081e-08
3.16004e-08
3.15268e-08
3.14283e-08
3.13626e-08
3.12691e-08
3.12061e-08
3.11145e-08
3.10538e-08
3.09635e-08
3.09048e-08
3.08158e-08
3.07592e-08
3.06713e-08
3.06165e-08
3.05274e-08
3.04741e-08
3.03854e-08
3.03329e-08
3.02466e-08
3.01954e-08
3.01094e-08
3.00577e-08
2.99628e-08
3.02169e-08
2.71817e-06
1.85385e-08
1.24122e-07
1.2348e-07
1.22322e-07
1.1966e-07
1.15402e-07
1.10033e-07
1.04157e-07
9.82389e-08
9.25684e-08
8.72945e-08
8.24693e-08
7.81034e-08
7.41644e-08
7.06281e-08
6.74432e-08
6.45855e-08
6.2002e-08
5.96788e-08
5.75661e-08
5.5661e-08
5.39166e-08
5.23395e-08
5.08846e-08
4.95672e-08
4.83418e-08
4.72315e-08
4.61893e-08
4.52461e-08
4.43525e-08
4.3545e-08
4.27723e-08
4.20767e-08
4.14041e-08
4.08011e-08
4.02112e-08
3.9686e-08
3.91654e-08
3.87055e-08
3.82438e-08
3.78398e-08
3.74282e-08
3.70721e-08
3.67035e-08
3.63881e-08
3.6056e-08
3.57763e-08
3.54764e-08
3.52275e-08
3.49548e-08
3.47339e-08
3.44853e-08
3.42876e-08
3.40607e-08
3.38838e-08
3.36775e-08
3.35177e-08
3.33274e-08
3.31857e-08
3.30098e-08
3.28825e-08
3.27217e-08
3.2606e-08
3.24576e-08
3.23522e-08
3.22162e-08
3.2119e-08
3.19947e-08
3.1906e-08
3.17901e-08
3.17086e-08
3.1601e-08
3.15273e-08
3.14288e-08
3.13631e-08
3.12695e-08
3.12065e-08
3.11148e-08
3.10541e-08
3.09638e-08
3.09051e-08
3.08161e-08
3.07595e-08
3.06715e-08
3.06167e-08
3.05276e-08
3.04743e-08
3.03856e-08
3.03331e-08
3.02468e-08
3.01955e-08
3.01095e-08
3.00579e-08
2.99629e-08
3.02175e-08
2.72181e-06
1.87368e-08
1.24121e-07
1.2348e-07
1.22323e-07
1.19663e-07
1.15409e-07
1.10044e-07
1.04171e-07
9.82543e-08
9.25849e-08
8.73114e-08
8.24861e-08
7.81199e-08
7.41803e-08
7.06435e-08
6.74579e-08
6.45994e-08
6.20153e-08
5.96914e-08
5.75779e-08
5.56722e-08
5.39272e-08
5.23495e-08
5.08941e-08
4.95761e-08
4.83503e-08
4.72396e-08
4.61969e-08
4.52533e-08
4.43594e-08
4.35515e-08
4.27785e-08
4.20826e-08
4.14096e-08
4.08064e-08
4.02162e-08
3.96907e-08
3.917e-08
3.87099e-08
3.82479e-08
3.78438e-08
3.7432e-08
3.70757e-08
3.67069e-08
3.63914e-08
3.60591e-08
3.57793e-08
3.54792e-08
3.52302e-08
3.49573e-08
3.47364e-08
3.44876e-08
3.42899e-08
3.40629e-08
3.38858e-08
3.36794e-08
3.35196e-08
3.33292e-08
3.31875e-08
3.30115e-08
3.28841e-08
3.27232e-08
3.26074e-08
3.2459e-08
3.23535e-08
3.22174e-08
3.21201e-08
3.19959e-08
3.19071e-08
3.17911e-08
3.17096e-08
3.16019e-08
3.15281e-08
3.14296e-08
3.13638e-08
3.12702e-08
3.12072e-08
3.11155e-08
3.10548e-08
3.09644e-08
3.09057e-08
3.08166e-08
3.07599e-08
3.0672e-08
3.06171e-08
3.05279e-08
3.04747e-08
3.03859e-08
3.03334e-08
3.0247e-08
3.01958e-08
3.01097e-08
3.00581e-08
2.99631e-08
3.02185e-08
2.72779e-06
1.89668e-08
1.24121e-07
1.23479e-07
1.22324e-07
1.19668e-07
1.1542e-07
1.1006e-07
1.0419e-07
9.82762e-08
9.26081e-08
8.73352e-08
8.25099e-08
7.81431e-08
7.42029e-08
7.06651e-08
6.74786e-08
6.46191e-08
6.2034e-08
5.97091e-08
5.75947e-08
5.56881e-08
5.39422e-08
5.23637e-08
5.09075e-08
4.95888e-08
4.83623e-08
4.72509e-08
4.62077e-08
4.52635e-08
4.43691e-08
4.35606e-08
4.27872e-08
4.20908e-08
4.14175e-08
4.08139e-08
4.02233e-08
3.96975e-08
3.91764e-08
3.8716e-08
3.82538e-08
3.78494e-08
3.74373e-08
3.70808e-08
3.67118e-08
3.6396e-08
3.60635e-08
3.57835e-08
3.54832e-08
3.52341e-08
3.4961e-08
3.47399e-08
3.4491e-08
3.42931e-08
3.4066e-08
3.38888e-08
3.36822e-08
3.35223e-08
3.33317e-08
3.31899e-08
3.30138e-08
3.28863e-08
3.27253e-08
3.26095e-08
3.24609e-08
3.23554e-08
3.22192e-08
3.21218e-08
3.19974e-08
3.19086e-08
3.17925e-08
3.1711e-08
3.16032e-08
3.15294e-08
3.14308e-08
3.1365e-08
3.12713e-08
3.12082e-08
3.11164e-08
3.10557e-08
3.09652e-08
3.09065e-08
3.08173e-08
3.07606e-08
3.06726e-08
3.06177e-08
3.05285e-08
3.04753e-08
3.03864e-08
3.03339e-08
3.02474e-08
3.01962e-08
3.01101e-08
3.00584e-08
2.99634e-08
3.02199e-08
2.7362e-06
1.92201e-08
1.24121e-07
1.23478e-07
1.22325e-07
1.19675e-07
1.15433e-07
1.1008e-07
1.04215e-07
9.83045e-08
9.26383e-08
8.73661e-08
8.25407e-08
7.81734e-08
7.42322e-08
7.06933e-08
6.75055e-08
6.46447e-08
6.20583e-08
5.97321e-08
5.76165e-08
5.57087e-08
5.39617e-08
5.23821e-08
5.09249e-08
4.96053e-08
4.83779e-08
4.72657e-08
4.62217e-08
4.52768e-08
4.43817e-08
4.35726e-08
4.27985e-08
4.21016e-08
4.14277e-08
4.08236e-08
4.02326e-08
3.97064e-08
3.91848e-08
3.87241e-08
3.82615e-08
3.78567e-08
3.74443e-08
3.70874e-08
3.67181e-08
3.64021e-08
3.60693e-08
3.57891e-08
3.54885e-08
3.52391e-08
3.49658e-08
3.47445e-08
3.44954e-08
3.42973e-08
3.407e-08
3.38926e-08
3.36859e-08
3.35258e-08
3.33351e-08
3.31931e-08
3.30168e-08
3.28893e-08
3.27281e-08
3.26121e-08
3.24635e-08
3.23578e-08
3.22215e-08
3.21241e-08
3.19995e-08
3.19107e-08
3.17945e-08
3.17128e-08
3.16049e-08
3.15311e-08
3.14324e-08
3.13665e-08
3.12727e-08
3.12096e-08
3.11177e-08
3.10569e-08
3.09663e-08
3.09075e-08
3.08183e-08
3.07616e-08
3.06734e-08
3.06186e-08
3.05293e-08
3.0476e-08
3.03871e-08
3.03345e-08
3.0248e-08
3.01967e-08
3.01105e-08
3.00588e-08
2.99637e-08
3.02218e-08
2.74711e-06
1.9494e-08
1.24121e-07
1.23477e-07
1.22327e-07
1.19683e-07
1.1545e-07
1.10104e-07
1.04246e-07
9.83394e-08
9.26755e-08
8.74042e-08
8.25788e-08
7.82107e-08
7.42684e-08
7.07281e-08
6.75388e-08
6.46763e-08
6.20883e-08
5.97606e-08
5.76435e-08
5.57342e-08
5.39858e-08
5.24049e-08
5.09465e-08
4.96257e-08
4.83972e-08
4.7284e-08
4.62391e-08
4.52932e-08
4.43973e-08
4.35874e-08
4.28126e-08
4.2115e-08
4.14405e-08
4.08357e-08
4.02441e-08
3.97173e-08
3.91953e-08
3.8734e-08
3.82709e-08
3.78657e-08
3.74529e-08
3.70956e-08
3.6726e-08
3.64096e-08
3.60765e-08
3.57959e-08
3.54951e-08
3.52454e-08
3.49718e-08
3.47502e-08
3.45009e-08
3.43026e-08
3.4075e-08
3.38974e-08
3.36905e-08
3.35302e-08
3.33393e-08
3.31971e-08
3.30207e-08
3.28929e-08
3.27316e-08
3.26155e-08
3.24667e-08
3.23608e-08
3.22244e-08
3.21268e-08
3.20022e-08
3.19132e-08
3.17969e-08
3.17151e-08
3.16071e-08
3.15332e-08
3.14343e-08
3.13684e-08
3.12745e-08
3.12113e-08
3.11193e-08
3.10584e-08
3.09678e-08
3.09089e-08
3.08195e-08
3.07628e-08
3.06745e-08
3.06196e-08
3.05303e-08
3.0477e-08
3.03879e-08
3.03354e-08
3.02487e-08
3.01974e-08
3.01111e-08
3.00594e-08
2.99642e-08
3.02241e-08
2.76062e-06
1.97891e-08
1.2412e-07
1.23475e-07
1.22328e-07
1.19693e-07
1.1547e-07
1.10134e-07
1.04283e-07
9.8381e-08
9.272e-08
8.74497e-08
8.26243e-08
7.82553e-08
7.43117e-08
7.07696e-08
6.75785e-08
6.47141e-08
6.21243e-08
5.97946e-08
5.76757e-08
5.57646e-08
5.40147e-08
5.24322e-08
5.09723e-08
4.96501e-08
4.84203e-08
4.73059e-08
4.62598e-08
4.53129e-08
4.44159e-08
4.36051e-08
4.28295e-08
4.2131e-08
4.14557e-08
4.08502e-08
4.02579e-08
3.97304e-08
3.92078e-08
3.87459e-08
3.82823e-08
3.78766e-08
3.74633e-08
3.71055e-08
3.67354e-08
3.64186e-08
3.60851e-08
3.58042e-08
3.55029e-08
3.5253e-08
3.4979e-08
3.47571e-08
3.45074e-08
3.43089e-08
3.4081e-08
3.39032e-08
3.3696e-08
3.35355e-08
3.33443e-08
3.3202e-08
3.30253e-08
3.28973e-08
3.27358e-08
3.26195e-08
3.24705e-08
3.23645e-08
3.22279e-08
3.21302e-08
3.20054e-08
3.19163e-08
3.17998e-08
3.17179e-08
3.16097e-08
3.15357e-08
3.14367e-08
3.13707e-08
3.12766e-08
3.12134e-08
3.11212e-08
3.10603e-08
3.09695e-08
3.09106e-08
3.08211e-08
3.07643e-08
3.06758e-08
3.06209e-08
3.05315e-08
3.04782e-08
3.0389e-08
3.03364e-08
3.02496e-08
3.01983e-08
3.01118e-08
3.00601e-08
2.99649e-08
3.0227e-08
2.77681e-06
2.01086e-08
1.2412e-07
1.23473e-07
1.2233e-07
1.19705e-07
1.15493e-07
1.10168e-07
1.04325e-07
9.84295e-08
9.27717e-08
8.75027e-08
8.26773e-08
7.83073e-08
7.43621e-08
7.08181e-08
6.76249e-08
6.47583e-08
6.21662e-08
5.98343e-08
5.77134e-08
5.58002e-08
5.40484e-08
5.2464e-08
5.10025e-08
4.96787e-08
4.84474e-08
4.73315e-08
4.62841e-08
4.53359e-08
4.44378e-08
4.36259e-08
4.28492e-08
4.21497e-08
4.14735e-08
4.08672e-08
4.0274e-08
3.97458e-08
3.92225e-08
3.87599e-08
3.82956e-08
3.78893e-08
3.74754e-08
3.71171e-08
3.67465e-08
3.64292e-08
3.60952e-08
3.58138e-08
3.55122e-08
3.52618e-08
3.49875e-08
3.47652e-08
3.45152e-08
3.43163e-08
3.40881e-08
3.391e-08
3.37025e-08
3.35417e-08
3.33502e-08
3.32076e-08
3.30307e-08
3.29025e-08
3.27407e-08
3.26243e-08
3.2475e-08
3.23689e-08
3.22321e-08
3.21342e-08
3.20091e-08
3.19199e-08
3.18032e-08
3.17212e-08
3.16129e-08
3.15387e-08
3.14396e-08
3.13734e-08
3.12792e-08
3.12158e-08
3.11235e-08
3.10625e-08
3.09716e-08
3.09126e-08
3.08229e-08
3.0766e-08
3.06774e-08
3.06225e-08
3.05329e-08
3.04796e-08
3.03903e-08
3.03377e-08
3.02507e-08
3.01994e-08
3.01127e-08
3.0061e-08
2.99657e-08
3.02305e-08
2.79577e-06
2.04578e-08
1.24119e-07
1.23471e-07
1.22333e-07
1.19717e-07
1.15519e-07
1.10207e-07
1.04374e-07
9.84848e-08
9.28308e-08
8.75634e-08
8.2738e-08
7.83668e-08
7.44199e-08
7.08737e-08
6.76781e-08
6.48089e-08
6.22144e-08
5.98799e-08
5.77566e-08
5.58411e-08
5.40871e-08
5.25006e-08
5.10372e-08
4.97115e-08
4.84785e-08
4.73609e-08
4.6312e-08
4.53624e-08
4.44629e-08
4.36497e-08
4.28718e-08
4.21713e-08
4.1494e-08
4.08867e-08
4.02926e-08
3.97635e-08
3.92393e-08
3.8776e-08
3.8311e-08
3.79039e-08
3.74894e-08
3.71305e-08
3.67593e-08
3.64414e-08
3.61069e-08
3.5825e-08
3.55228e-08
3.5272e-08
3.49972e-08
3.47745e-08
3.45241e-08
3.43248e-08
3.40963e-08
3.39178e-08
3.37099e-08
3.35489e-08
3.33571e-08
3.32142e-08
3.3037e-08
3.29085e-08
3.27465e-08
3.26298e-08
3.24803e-08
3.23739e-08
3.22368e-08
3.21388e-08
3.20135e-08
3.19241e-08
3.18072e-08
3.17251e-08
3.16165e-08
3.15422e-08
3.14429e-08
3.13766e-08
3.12822e-08
3.12187e-08
3.11262e-08
3.10651e-08
3.0974e-08
3.09149e-08
3.0825e-08
3.07681e-08
3.06792e-08
3.06243e-08
3.05346e-08
3.04813e-08
3.03918e-08
3.03392e-08
3.0252e-08
3.02006e-08
3.01138e-08
3.00621e-08
2.99666e-08
3.02345e-08
2.81754e-06
2.08433e-08
1.24119e-07
1.23469e-07
1.22335e-07
1.19732e-07
1.15549e-07
1.10251e-07
1.04429e-07
9.85472e-08
9.28975e-08
8.76318e-08
8.28065e-08
7.84341e-08
7.44853e-08
7.09365e-08
6.77383e-08
6.48662e-08
6.22688e-08
5.99315e-08
5.78055e-08
5.58874e-08
5.41309e-08
5.25421e-08
5.10764e-08
4.97486e-08
4.85137e-08
4.73943e-08
4.63437e-08
4.53924e-08
4.44914e-08
4.36768e-08
4.28976e-08
4.21957e-08
4.15173e-08
4.09088e-08
4.03137e-08
3.97836e-08
3.92585e-08
3.87943e-08
3.83284e-08
3.79206e-08
3.75053e-08
3.71456e-08
3.67737e-08
3.64552e-08
3.61201e-08
3.58377e-08
3.55349e-08
3.52836e-08
3.50083e-08
3.47852e-08
3.45342e-08
3.43346e-08
3.41056e-08
3.39267e-08
3.37184e-08
3.35571e-08
3.33649e-08
3.32217e-08
3.30441e-08
3.29154e-08
3.2753e-08
3.2636e-08
3.24863e-08
3.23797e-08
3.22423e-08
3.2144e-08
3.20185e-08
3.19289e-08
3.18117e-08
3.17295e-08
3.16207e-08
3.15462e-08
3.14466e-08
3.13802e-08
3.12856e-08
3.1222e-08
3.11293e-08
3.10681e-08
3.09768e-08
3.09176e-08
3.08275e-08
3.07705e-08
3.06814e-08
3.06264e-08
3.05366e-08
3.04833e-08
3.03935e-08
3.0341e-08
3.02535e-08
3.02021e-08
3.0115e-08
3.00634e-08
2.99678e-08
3.02391e-08
2.84217e-06
2.12734e-08
1.24118e-07
1.23467e-07
1.22338e-07
1.19748e-07
1.15582e-07
1.10299e-07
1.0449e-07
9.86167e-08
9.29719e-08
8.77082e-08
8.2883e-08
7.85093e-08
7.45583e-08
7.10068e-08
6.78055e-08
6.49302e-08
6.23298e-08
5.99893e-08
5.78603e-08
5.59392e-08
5.418e-08
5.25885e-08
5.11205e-08
4.97903e-08
4.85532e-08
4.74317e-08
4.63792e-08
4.5426e-08
4.45234e-08
4.37071e-08
4.29264e-08
4.22231e-08
4.15434e-08
4.09336e-08
4.03374e-08
3.98062e-08
3.928e-08
3.88148e-08
3.8348e-08
3.79393e-08
3.75231e-08
3.71627e-08
3.679e-08
3.64708e-08
3.6135e-08
3.58519e-08
3.55485e-08
3.52967e-08
3.50208e-08
3.47971e-08
3.45457e-08
3.43455e-08
3.4116e-08
3.39368e-08
3.3728e-08
3.35663e-08
3.33737e-08
3.32302e-08
3.30522e-08
3.29231e-08
3.27604e-08
3.26431e-08
3.2493e-08
3.23862e-08
3.22485e-08
3.215e-08
3.20242e-08
3.19344e-08
3.18169e-08
3.17345e-08
3.16254e-08
3.15508e-08
3.14509e-08
3.13844e-08
3.12895e-08
3.12258e-08
3.11328e-08
3.10715e-08
3.09799e-08
3.09207e-08
3.08304e-08
3.07732e-08
3.06839e-08
3.06289e-08
3.05389e-08
3.04855e-08
3.03955e-08
3.0343e-08
3.02552e-08
3.02039e-08
3.01165e-08
3.00648e-08
2.99691e-08
3.02445e-08
2.86967e-06
2.17572e-08
1.24118e-07
1.23464e-07
1.22341e-07
1.19765e-07
1.15618e-07
1.10353e-07
1.04558e-07
9.86934e-08
9.30541e-08
8.77927e-08
8.29677e-08
7.85925e-08
7.46392e-08
7.10846e-08
6.78801e-08
6.50013e-08
6.23974e-08
6.00534e-08
5.79211e-08
5.59968e-08
5.42346e-08
5.26401e-08
5.11693e-08
4.98365e-08
4.8597e-08
4.74732e-08
4.64186e-08
4.54634e-08
4.45589e-08
4.37408e-08
4.29585e-08
4.22536e-08
4.15724e-08
4.09613e-08
4.03637e-08
3.98313e-08
3.93039e-08
3.88376e-08
3.83698e-08
3.79601e-08
3.7543e-08
3.71817e-08
3.68082e-08
3.64882e-08
3.61516e-08
3.58678e-08
3.55637e-08
3.53112e-08
3.50347e-08
3.48105e-08
3.45584e-08
3.43578e-08
3.41278e-08
3.3948e-08
3.37388e-08
3.35766e-08
3.33835e-08
3.32396e-08
3.30612e-08
3.29318e-08
3.27687e-08
3.26511e-08
3.25006e-08
3.23935e-08
3.22555e-08
3.21567e-08
3.20305e-08
3.19405e-08
3.18228e-08
3.17401e-08
3.16307e-08
3.15559e-08
3.14558e-08
3.13891e-08
3.12939e-08
3.12301e-08
3.11368e-08
3.10754e-08
3.09835e-08
3.09242e-08
3.08336e-08
3.07764e-08
3.06867e-08
3.06316e-08
3.05415e-08
3.04881e-08
3.03978e-08
3.03454e-08
3.02572e-08
3.02058e-08
3.01182e-08
3.00665e-08
2.99707e-08
3.02505e-08
2.90004e-06
2.23048e-08
1.24117e-07
1.23461e-07
1.22344e-07
1.19784e-07
1.15657e-07
1.10411e-07
1.04631e-07
9.87774e-08
9.31442e-08
8.78854e-08
8.30607e-08
7.86839e-08
7.47282e-08
7.11703e-08
6.79622e-08
6.50795e-08
6.24718e-08
6.0124e-08
5.79881e-08
5.60602e-08
5.42947e-08
5.2697e-08
5.12232e-08
4.98876e-08
4.86454e-08
4.75191e-08
4.64621e-08
4.55047e-08
4.45981e-08
4.37781e-08
4.29939e-08
4.22873e-08
4.16045e-08
4.09918e-08
4.03928e-08
3.9859e-08
3.93304e-08
3.88629e-08
3.83939e-08
3.79831e-08
3.7565e-08
3.72027e-08
3.68283e-08
3.65074e-08
3.617e-08
3.58854e-08
3.55806e-08
3.53274e-08
3.50501e-08
3.48253e-08
3.45726e-08
3.43713e-08
3.41407e-08
3.39605e-08
3.37507e-08
3.35881e-08
3.33944e-08
3.32501e-08
3.30713e-08
3.29415e-08
3.27779e-08
3.266e-08
3.25091e-08
3.24016e-08
3.22633e-08
3.21642e-08
3.20376e-08
3.19474e-08
3.18293e-08
3.17464e-08
3.16367e-08
3.15617e-08
3.14612e-08
3.13943e-08
3.12989e-08
3.12349e-08
3.11413e-08
3.10797e-08
3.09876e-08
3.09281e-08
3.08372e-08
3.07799e-08
3.069e-08
3.06348e-08
3.05444e-08
3.0491e-08
3.04004e-08
3.0348e-08
3.02595e-08
3.02081e-08
3.01201e-08
3.00685e-08
2.99725e-08
3.02573e-08
2.9332e-06
2.29271e-08
1.24116e-07
1.23458e-07
1.22347e-07
1.19804e-07
1.157e-07
1.10475e-07
1.04712e-07
9.88689e-08
9.32425e-08
8.79865e-08
8.31622e-08
7.87838e-08
7.48253e-08
7.12639e-08
6.8052e-08
6.51651e-08
6.25533e-08
6.02013e-08
5.80615e-08
5.61297e-08
5.43605e-08
5.27593e-08
5.12823e-08
4.99435e-08
4.86985e-08
4.75693e-08
4.65099e-08
4.555e-08
4.46412e-08
4.3819e-08
4.30328e-08
4.23243e-08
4.16397e-08
4.10254e-08
4.04248e-08
3.98895e-08
3.93595e-08
3.88906e-08
3.84204e-08
3.80084e-08
3.75892e-08
3.72259e-08
3.68504e-08
3.65286e-08
3.61902e-08
3.59048e-08
3.55991e-08
3.53451e-08
3.50671e-08
3.48416e-08
3.45882e-08
3.43863e-08
3.41551e-08
3.39742e-08
3.37638e-08
3.36007e-08
3.34065e-08
3.32618e-08
3.30824e-08
3.29521e-08
3.27881e-08
3.26698e-08
3.25185e-08
3.24106e-08
3.22718e-08
3.21724e-08
3.20455e-08
3.1955e-08
3.18365e-08
3.17534e-08
3.16433e-08
3.15681e-08
3.14673e-08
3.14002e-08
3.13044e-08
3.12402e-08
3.11463e-08
3.10846e-08
3.09921e-08
3.09325e-08
3.08413e-08
3.07838e-08
3.06936e-08
3.06383e-08
3.05477e-08
3.04943e-08
3.04034e-08
3.0351e-08
3.02621e-08
3.02107e-08
3.01224e-08
3.00707e-08
2.99745e-08
3.02649e-08
2.96905e-06
2.36358e-08
1.24115e-07
1.23454e-07
1.22351e-07
1.19826e-07
1.15745e-07
1.10543e-07
1.04798e-07
9.89679e-08
9.33489e-08
8.80962e-08
8.32723e-08
7.88922e-08
7.4931e-08
7.13656e-08
6.81496e-08
6.52582e-08
6.2642e-08
6.02855e-08
5.81414e-08
5.62053e-08
5.44323e-08
5.28272e-08
5.13467e-08
5.00045e-08
4.87563e-08
4.76242e-08
4.6562e-08
4.55994e-08
4.46882e-08
4.38636e-08
4.30753e-08
4.23647e-08
4.16782e-08
4.1062e-08
4.04598e-08
3.99228e-08
3.93913e-08
3.8921e-08
3.84494e-08
3.80361e-08
3.76157e-08
3.72512e-08
3.68746e-08
3.65518e-08
3.62124e-08
3.5926e-08
3.56194e-08
3.53646e-08
3.50858e-08
3.48595e-08
3.46053e-08
3.44028e-08
3.41708e-08
3.39893e-08
3.37783e-08
3.36147e-08
3.34198e-08
3.32745e-08
3.30946e-08
3.29639e-08
3.27993e-08
3.26806e-08
3.25288e-08
3.24205e-08
3.22813e-08
3.21816e-08
3.20542e-08
3.19634e-08
3.18445e-08
3.17611e-08
3.16506e-08
3.15752e-08
3.1474e-08
3.14067e-08
3.13105e-08
3.12461e-08
3.11519e-08
3.109e-08
3.09972e-08
3.09374e-08
3.08459e-08
3.07883e-08
3.06976e-08
3.06423e-08
3.05514e-08
3.04979e-08
3.04067e-08
3.03544e-08
3.0265e-08
3.02136e-08
3.01249e-08
3.00732e-08
2.99769e-08
3.02733e-08
3.00742e-06
2.44431e-08
1.24114e-07
1.2345e-07
1.22355e-07
1.19849e-07
1.15794e-07
1.10617e-07
1.04891e-07
9.90745e-08
9.34636e-08
8.82146e-08
8.33913e-08
7.90095e-08
7.50452e-08
7.14758e-08
6.82553e-08
6.53591e-08
6.2738e-08
6.03767e-08
5.8228e-08
5.62874e-08
5.45101e-08
5.2901e-08
5.14166e-08
5.00707e-08
4.88192e-08
4.76838e-08
4.66186e-08
4.56531e-08
4.47392e-08
4.39121e-08
4.31215e-08
4.24087e-08
4.17201e-08
4.11019e-08
4.04978e-08
3.99591e-08
3.9426e-08
3.89541e-08
3.8481e-08
3.80663e-08
3.76445e-08
3.72788e-08
3.6901e-08
3.65771e-08
3.62366e-08
3.59492e-08
3.56416e-08
3.53859e-08
3.51061e-08
3.4879e-08
3.4624e-08
3.44207e-08
3.4188e-08
3.40059e-08
3.37941e-08
3.36299e-08
3.34344e-08
3.32885e-08
3.3108e-08
3.29767e-08
3.28116e-08
3.26924e-08
3.25401e-08
3.24314e-08
3.22918e-08
3.21916e-08
3.20637e-08
3.19726e-08
3.18533e-08
3.17697e-08
3.16587e-08
3.1583e-08
3.14814e-08
3.14139e-08
3.13173e-08
3.12527e-08
3.11581e-08
3.1096e-08
3.10028e-08
3.09429e-08
3.0851e-08
3.07932e-08
3.07022e-08
3.06467e-08
3.05555e-08
3.0502e-08
3.04105e-08
3.03582e-08
3.02683e-08
3.02169e-08
3.01278e-08
3.00761e-08
2.99796e-08
3.02825e-08
3.0481e-06
2.53622e-08
1.24114e-07
1.23446e-07
1.22358e-07
1.19874e-07
1.15846e-07
1.10695e-07
1.04991e-07
9.91888e-08
9.35868e-08
8.83417e-08
8.35193e-08
7.91357e-08
7.51682e-08
7.15945e-08
6.83693e-08
6.54678e-08
6.28417e-08
6.04752e-08
5.83216e-08
5.63761e-08
5.45942e-08
5.29806e-08
5.14922e-08
5.01423e-08
4.88872e-08
4.77482e-08
4.66798e-08
4.57113e-08
4.47945e-08
4.39647e-08
4.31716e-08
4.24563e-08
4.17655e-08
4.11452e-08
4.05391e-08
3.99984e-08
3.94635e-08
3.89899e-08
3.85153e-08
3.80991e-08
3.76758e-08
3.73087e-08
3.69297e-08
3.66045e-08
3.62628e-08
3.59744e-08
3.56657e-08
3.54091e-08
3.51283e-08
3.49003e-08
3.46444e-08
3.44403e-08
3.42068e-08
3.40239e-08
3.38113e-08
3.36465e-08
3.34503e-08
3.33038e-08
3.31226e-08
3.29908e-08
3.28251e-08
3.27054e-08
3.25525e-08
3.24434e-08
3.23032e-08
3.22027e-08
3.20742e-08
3.19828e-08
3.1863e-08
3.1779e-08
3.16676e-08
3.15916e-08
3.14896e-08
3.14218e-08
3.13248e-08
3.126e-08
3.1165e-08
3.11026e-08
3.10091e-08
3.09489e-08
3.08566e-08
3.07987e-08
3.07073e-08
3.06517e-08
3.05601e-08
3.05066e-08
3.04147e-08
3.03624e-08
3.0272e-08
3.02207e-08
3.0131e-08
3.00794e-08
2.99826e-08
3.02926e-08
3.09076e-06
2.64069e-08
1.24113e-07
1.23442e-07
1.22362e-07
1.199e-07
1.15902e-07
1.10779e-07
1.05097e-07
9.93109e-08
9.37185e-08
8.84779e-08
8.36564e-08
7.9271e-08
7.53003e-08
7.17219e-08
6.84917e-08
6.55848e-08
6.29533e-08
6.05811e-08
5.84223e-08
5.64715e-08
5.46848e-08
5.30664e-08
5.15737e-08
5.02195e-08
4.89605e-08
4.78177e-08
4.67459e-08
4.5774e-08
4.48542e-08
4.40214e-08
4.32256e-08
4.25077e-08
4.18145e-08
4.11919e-08
4.05836e-08
4.0041e-08
3.95041e-08
3.90287e-08
3.85524e-08
3.81345e-08
3.77097e-08
3.73412e-08
3.69607e-08
3.66343e-08
3.62913e-08
3.60017e-08
3.56918e-08
3.54342e-08
3.51523e-08
3.49234e-08
3.46665e-08
3.44616e-08
3.42271e-08
3.40434e-08
3.38301e-08
3.36645e-08
3.34675e-08
3.33204e-08
3.31386e-08
3.30061e-08
3.28398e-08
3.27195e-08
3.25661e-08
3.24564e-08
3.23157e-08
3.22147e-08
3.20857e-08
3.19939e-08
3.18736e-08
3.17893e-08
3.16774e-08
3.16011e-08
3.14986e-08
3.14305e-08
3.13331e-08
3.1268e-08
3.11725e-08
3.111e-08
3.1016e-08
3.09556e-08
3.08629e-08
3.08048e-08
3.07129e-08
3.06572e-08
3.05653e-08
3.05117e-08
3.04193e-08
3.03671e-08
3.02762e-08
3.02248e-08
3.01347e-08
3.0083e-08
2.99861e-08
3.03036e-08
3.13504e-06
2.75918e-08
1.24112e-07
1.23437e-07
1.22366e-07
1.19927e-07
1.1596e-07
1.10867e-07
1.0521e-07
9.94409e-08
9.3859e-08
8.86233e-08
8.38029e-08
7.94157e-08
7.54415e-08
7.18584e-08
6.86229e-08
6.57101e-08
6.30728e-08
6.06948e-08
5.85303e-08
5.65739e-08
5.47821e-08
5.31586e-08
5.16612e-08
5.03024e-08
4.90392e-08
4.78925e-08
4.68169e-08
4.58415e-08
4.49184e-08
4.40825e-08
4.32837e-08
4.25631e-08
4.18673e-08
4.12422e-08
4.06317e-08
4.00868e-08
3.95479e-08
3.90706e-08
3.85924e-08
3.81728e-08
3.77463e-08
3.73762e-08
3.69942e-08
3.66664e-08
3.63221e-08
3.60312e-08
3.57201e-08
3.54613e-08
3.51783e-08
3.49483e-08
3.46905e-08
3.44846e-08
3.42492e-08
3.40647e-08
3.38504e-08
3.36841e-08
3.34863e-08
3.33385e-08
3.31559e-08
3.30228e-08
3.28557e-08
3.27349e-08
3.25808e-08
3.24706e-08
3.23293e-08
3.22278e-08
3.20982e-08
3.2006e-08
3.18851e-08
3.18005e-08
3.16881e-08
3.16114e-08
3.15084e-08
3.144e-08
3.13421e-08
3.12768e-08
3.11808e-08
3.1118e-08
3.10236e-08
3.0963e-08
3.08698e-08
3.08115e-08
3.07192e-08
3.06633e-08
3.05709e-08
3.05173e-08
3.04245e-08
3.03723e-08
3.02809e-08
3.02295e-08
3.01388e-08
3.00872e-08
2.99901e-08
3.03155e-08
3.18045e-06
2.89324e-08
1.24111e-07
1.23433e-07
1.2237e-07
1.19956e-07
1.16022e-07
1.10961e-07
1.0533e-07
9.95787e-08
9.40082e-08
8.87779e-08
8.39589e-08
7.957e-08
7.55923e-08
7.20041e-08
6.8763e-08
6.58441e-08
6.32006e-08
6.08163e-08
5.86459e-08
5.66836e-08
5.48862e-08
5.32574e-08
5.17549e-08
5.03913e-08
4.91237e-08
4.79726e-08
4.68931e-08
4.59138e-08
4.49873e-08
4.4148e-08
4.33462e-08
4.26225e-08
4.1924e-08
4.12963e-08
4.06833e-08
4.01361e-08
3.9595e-08
3.91156e-08
3.86354e-08
3.82139e-08
3.77857e-08
3.74139e-08
3.70304e-08
3.6701e-08
3.63553e-08
3.60631e-08
3.57506e-08
3.54906e-08
3.52064e-08
3.49753e-08
3.47163e-08
3.45095e-08
3.42731e-08
3.40876e-08
3.38724e-08
3.37054e-08
3.35066e-08
3.33581e-08
3.31747e-08
3.30409e-08
3.2873e-08
3.27516e-08
3.25968e-08
3.24861e-08
3.23441e-08
3.22421e-08
3.21119e-08
3.20192e-08
3.18978e-08
3.18128e-08
3.16997e-08
3.16227e-08
3.15192e-08
3.14505e-08
3.13521e-08
3.12864e-08
3.119e-08
3.11269e-08
3.1032e-08
3.09712e-08
3.08775e-08
3.0819e-08
3.07261e-08
3.06701e-08
3.05772e-08
3.05235e-08
3.04303e-08
3.0378e-08
3.02861e-08
3.02348e-08
3.01434e-08
3.00918e-08
2.99945e-08
3.03284e-08
3.22645e-06
3.04448e-08
1.2411e-07
1.23427e-07
1.22375e-07
1.19986e-07
1.16086e-07
1.11059e-07
1.05456e-07
9.97246e-08
9.41663e-08
8.89419e-08
8.41247e-08
7.97339e-08
7.57526e-08
7.21592e-08
6.89123e-08
6.59868e-08
6.3337e-08
6.0946e-08
5.87693e-08
5.68007e-08
5.49975e-08
5.33629e-08
5.18551e-08
5.04864e-08
4.9214e-08
4.80584e-08
4.69747e-08
4.59914e-08
4.50611e-08
4.42182e-08
4.34131e-08
4.26862e-08
4.19848e-08
4.13542e-08
4.07387e-08
4.01889e-08
3.96456e-08
3.91639e-08
3.86816e-08
3.82582e-08
3.78281e-08
3.74545e-08
3.70692e-08
3.67383e-08
3.6391e-08
3.60973e-08
3.57834e-08
3.55222e-08
3.52366e-08
3.50044e-08
3.47442e-08
3.45363e-08
3.42988e-08
3.41124e-08
3.38962e-08
3.37283e-08
3.35286e-08
3.33793e-08
3.3195e-08
3.30605e-08
3.28918e-08
3.27697e-08
3.26142e-08
3.25028e-08
3.23602e-08
3.22577e-08
3.21267e-08
3.20336e-08
3.19115e-08
3.18261e-08
3.17125e-08
3.16351e-08
3.1531e-08
3.14619e-08
3.13629e-08
3.1297e-08
3.12e-08
3.11367e-08
3.10412e-08
3.09801e-08
3.08859e-08
3.08272e-08
3.07338e-08
3.06775e-08
3.05842e-08
3.05304e-08
3.04368e-08
3.03845e-08
3.02919e-08
3.02407e-08
3.01486e-08
3.0097e-08
2.99995e-08
3.03422e-08
3.27236e-06
3.21458e-08
1.24109e-07
1.23422e-07
1.22379e-07
1.20017e-07
1.16154e-07
1.11163e-07
1.0559e-07
9.98785e-08
9.43334e-08
8.91156e-08
8.43003e-08
7.99079e-08
7.59228e-08
7.23239e-08
6.9071e-08
6.61387e-08
6.34821e-08
6.10841e-08
5.89007e-08
5.69255e-08
5.51161e-08
5.34754e-08
5.1962e-08
5.05878e-08
4.93105e-08
4.81499e-08
4.70618e-08
4.60741e-08
4.514e-08
4.42932e-08
4.34846e-08
4.27544e-08
4.20499e-08
4.14163e-08
4.0798e-08
4.02456e-08
3.96997e-08
3.92156e-08
3.87311e-08
3.83056e-08
3.78735e-08
3.7498e-08
3.71109e-08
3.67783e-08
3.64293e-08
3.61341e-08
3.58187e-08
3.55561e-08
3.52692e-08
3.50357e-08
3.47743e-08
3.45652e-08
3.43266e-08
3.41391e-08
3.39218e-08
3.3753e-08
3.35523e-08
3.34021e-08
3.32169e-08
3.30816e-08
3.29121e-08
3.27893e-08
3.2633e-08
3.2521e-08
3.23776e-08
3.22745e-08
3.21429e-08
3.20492e-08
3.19265e-08
3.18406e-08
3.17263e-08
3.16486e-08
3.15438e-08
3.14744e-08
3.13748e-08
3.13085e-08
3.1211e-08
3.11474e-08
3.10513e-08
3.099e-08
3.08952e-08
3.08362e-08
3.07422e-08
3.06858e-08
3.05919e-08
3.0538e-08
3.04439e-08
3.03916e-08
3.02984e-08
3.02472e-08
3.01545e-08
3.01028e-08
3.00051e-08
3.03569e-08
3.31743e-06
3.40523e-08
1.24108e-07
1.23416e-07
1.22383e-07
1.20049e-07
1.16225e-07
1.11271e-07
1.05729e-07
1.00041e-07
9.45097e-08
8.92989e-08
8.4486e-08
8.00919e-08
7.61032e-08
7.24986e-08
6.92393e-08
6.62998e-08
6.36361e-08
6.12308e-08
5.90404e-08
5.70582e-08
5.52423e-08
5.35951e-08
5.20759e-08
5.06959e-08
4.94132e-08
4.82475e-08
4.71547e-08
4.61624e-08
4.52241e-08
4.43733e-08
4.3561e-08
4.28272e-08
4.21193e-08
4.14826e-08
4.08613e-08
4.03061e-08
3.97576e-08
3.9271e-08
3.87841e-08
3.83563e-08
3.79221e-08
3.75446e-08
3.71555e-08
3.68211e-08
3.64704e-08
3.61736e-08
3.58566e-08
3.55925e-08
3.53041e-08
3.50693e-08
3.48065e-08
3.45963e-08
3.43564e-08
3.41678e-08
3.39494e-08
3.37796e-08
3.35778e-08
3.34268e-08
3.32406e-08
3.31045e-08
3.29341e-08
3.28105e-08
3.26534e-08
3.25407e-08
3.23965e-08
3.22928e-08
3.21604e-08
3.20662e-08
3.19427e-08
3.18564e-08
3.17414e-08
3.16632e-08
3.15578e-08
3.1488e-08
3.13878e-08
3.13212e-08
3.1223e-08
3.1159e-08
3.10624e-08
3.10008e-08
3.09054e-08
3.08462e-08
3.07516e-08
3.06949e-08
3.06004e-08
3.05464e-08
3.04519e-08
3.03994e-08
3.03057e-08
3.02544e-08
3.0161e-08
3.01093e-08
3.00113e-08
3.03726e-08
3.36081e-06
3.61816e-08
1.24107e-07
1.2341e-07
1.22387e-07
1.20082e-07
1.16298e-07
1.11385e-07
1.05876e-07
1.00211e-07
9.46951e-08
8.94921e-08
8.46819e-08
8.02864e-08
7.62938e-08
7.26834e-08
6.94175e-08
6.64706e-08
6.37995e-08
6.13864e-08
5.91887e-08
5.7199e-08
5.53763e-08
5.37223e-08
5.21969e-08
5.08107e-08
4.95225e-08
4.83514e-08
4.72536e-08
4.62565e-08
4.53137e-08
4.44586e-08
4.36424e-08
4.29048e-08
4.21934e-08
4.15533e-08
4.09289e-08
4.03707e-08
3.98194e-08
3.93301e-08
3.88408e-08
3.84105e-08
3.7974e-08
3.75944e-08
3.72033e-08
3.6867e-08
3.65144e-08
3.62158e-08
3.58972e-08
3.56315e-08
3.53416e-08
3.51053e-08
3.48412e-08
3.46296e-08
3.43885e-08
3.41987e-08
3.3979e-08
3.38083e-08
3.36053e-08
3.34533e-08
3.32661e-08
3.31291e-08
3.29577e-08
3.28334e-08
3.26754e-08
3.25619e-08
3.24169e-08
3.23126e-08
3.21793e-08
3.20846e-08
3.19604e-08
3.18736e-08
3.17578e-08
3.16792e-08
3.15731e-08
3.15029e-08
3.1402e-08
3.1335e-08
3.12361e-08
3.11718e-08
3.10745e-08
3.10127e-08
3.09166e-08
3.08572e-08
3.07619e-08
3.0705e-08
3.06098e-08
3.05557e-08
3.04606e-08
3.04081e-08
3.03137e-08
3.02625e-08
3.01682e-08
3.01166e-08
3.00183e-08
3.03892e-08
3.40156e-06
3.85504e-08
1.24106e-07
1.23404e-07
1.22391e-07
1.20116e-07
1.16374e-07
1.11503e-07
1.06029e-07
1.00389e-07
9.48899e-08
8.96954e-08
8.48882e-08
8.04914e-08
7.6495e-08
7.28786e-08
6.96059e-08
6.66512e-08
6.39724e-08
6.15512e-08
5.93458e-08
5.73484e-08
5.55184e-08
5.38573e-08
5.23252e-08
5.09327e-08
4.96385e-08
4.84617e-08
4.73586e-08
4.63564e-08
4.5409e-08
4.45494e-08
4.3729e-08
4.29873e-08
4.22723e-08
4.16286e-08
4.10009e-08
4.04395e-08
3.98853e-08
3.93932e-08
3.89012e-08
3.84684e-08
3.80295e-08
3.76476e-08
3.72543e-08
3.6916e-08
3.65614e-08
3.62611e-08
3.59406e-08
3.56733e-08
3.53817e-08