/*--------------------------------*- C++ -*----------------------------------*\
| =========                 |                                                 |
| \\      /  F ield         | OpenFOAM: The Open Source CFD Toolbox           |
|  \\    /   O peration     | Version:  v2012                                 |
|   \\  /    A nd           | Website:  www.openfoam.com                      |
|    \\/     M anipulation  |                                                 |
\*---------------------------------------------------------------------------*/
FoamFile
{
    version     2.0;
    format      ascii;
    class       volVectorField;
    location    "58";
    object      wallShearStress;
}
// * * * * * * * * * * * * * * * * * * * * * * * * * * * * * * * * * * * * * //

dimensions      [0 2 -2 0 0 0 0];


internalField   uniform (0 0 0);

boundaryField
{
    inlet
    {
        type            calculated;
        value           uniform (0 0 0);
    }
    outlet
    {
        type            calculated;
        value           uniform (0 0 0);
    }
    topWall
    {
        type            calculated;
        value           nonuniform List<vector> 
545
(
(7.00063e-08 -4.92774e-08 0)
(6.99811e-08 -1.37855e-07 0)
(6.99325e-08 -2.29945e-07 0)
(6.98732e-08 -3.19365e-07 0)
(6.97986e-08 -4.04971e-07 0)
(6.97107e-08 -4.87864e-07 0)
(6.96104e-08 -5.68746e-07 0)
(6.94986e-08 -6.47582e-07 0)
(6.93763e-08 -7.24196e-07 0)
(6.92444e-08 -7.98588e-07 0)
(6.91038e-08 -8.70856e-07 0)
(6.89554e-08 -9.41083e-07 0)
(6.87999e-08 -1.00932e-06 0)
(6.86381e-08 -1.0756e-06 0)
(6.84707e-08 -1.13997e-06 0)
(6.82984e-08 -1.20249e-06 0)
(6.81217e-08 -1.26321e-06 0)
(6.79412e-08 -1.32217e-06 0)
(6.77575e-08 -1.37942e-06 0)
(6.7571e-08 -1.43501e-06 0)
(6.73822e-08 -1.48898e-06 0)
(6.71917e-08 -1.54139e-06 0)
(6.69996e-08 -1.59226e-06 0)
(6.68066e-08 -1.64165e-06 0)
(6.66128e-08 -1.6896e-06 0)
(6.64186e-08 -1.73615e-06 0)
(6.62244e-08 -1.78134e-06 0)
(6.60303e-08 -1.82521e-06 0)
(6.58367e-08 -1.8678e-06 0)
(6.56438e-08 -1.90914e-06 0)
(6.54518e-08 -1.94928e-06 0)
(6.52609e-08 -1.98824e-06 0)
(6.50714e-08 -2.02606e-06 0)
(6.48832e-08 -2.06278e-06 0)
(6.46967e-08 -2.09843e-06 0)
(6.4512e-08 -2.13304e-06 0)
(6.43291e-08 -2.16664e-06 0)
(6.41483e-08 -2.19926e-06 0)
(6.39695e-08 -2.23094e-06 0)
(6.37929e-08 -2.26169e-06 0)
(6.36185e-08 -2.29155e-06 0)
(6.34466e-08 -2.32054e-06 0)
(6.3277e-08 -2.34869e-06 0)
(6.31098e-08 -2.37603e-06 0)
(6.29452e-08 -2.40258e-06 0)
(6.27831e-08 -2.42836e-06 0)
(6.26235e-08 -2.45339e-06 0)
(6.24666e-08 -2.47771e-06 0)
(6.23122e-08 -2.50132e-06 0)
(6.21605e-08 -2.52426e-06 0)
(6.20115e-08 -2.54653e-06 0)
(6.18651e-08 -2.56817e-06 0)
(6.17213e-08 -2.58919e-06 0)
(6.15801e-08 -2.6096e-06 0)
(6.14416e-08 -2.62944e-06 0)
(6.13057e-08 -2.6487e-06 0)
(6.11724e-08 -2.66742e-06 0)
(6.10417e-08 -2.68561e-06 0)
(6.09136e-08 -2.70327e-06 0)
(6.0788e-08 -2.72044e-06 0)
(6.0665e-08 -2.73712e-06 0)
(6.05444e-08 -2.75332e-06 0)
(6.04264e-08 -2.76907e-06 0)
(6.03107e-08 -2.78438e-06 0)
(6.01975e-08 -2.79925e-06 0)
(6.00867e-08 -2.8137e-06 0)
(5.99783e-08 -2.82775e-06 0)
(5.98721e-08 -2.8414e-06 0)
(5.97683e-08 -2.85467e-06 0)
(5.96667e-08 -2.86756e-06 0)
(5.95672e-08 -2.8801e-06 0)
(5.94703e-08 -2.89226e-06 0)
(5.93763e-08 -2.90397e-06 0)
(5.92843e-08 -2.91534e-06 0)
(5.9193e-08 -2.92657e-06 0)
(5.91021e-08 -2.93775e-06 0)
(5.90113e-08 -2.94888e-06 0)
(5.89206e-08 -2.95995e-06 0)
(5.88299e-08 -2.97094e-06 0)
(5.87394e-08 -2.98186e-06 0)
(5.86489e-08 -2.99272e-06 0)
(5.85586e-08 -3.00351e-06 0)
(5.84683e-08 -3.01423e-06 0)
(5.83782e-08 -3.02489e-06 0)
(5.82881e-08 -3.03549e-06 0)
(5.81982e-08 -3.04602e-06 0)
(5.81084e-08 -3.05648e-06 0)
(5.80187e-08 -3.06688e-06 0)
(5.79291e-08 -3.07722e-06 0)
(5.78396e-08 -3.0875e-06 0)
(5.77503e-08 -3.09771e-06 0)
(5.76611e-08 -3.10786e-06 0)
(5.7572e-08 -3.11795e-06 0)
(5.74831e-08 -3.12797e-06 0)
(5.7394e-08 -3.13796e-06 0)
(5.73059e-08 -3.14775e-06 0)
(5.72242e-08 -3.15674e-06 0)
(5.71488e-08 -3.16491e-06 0)
(5.70753e-08 -3.17283e-06 0)
(5.70023e-08 -3.18079e-06 0)
(5.69291e-08 -3.18882e-06 0)
(5.68556e-08 -3.19688e-06 0)
(5.67818e-08 -3.20493e-06 0)
(5.67076e-08 -3.21299e-06 0)
(5.66331e-08 -3.22105e-06 0)
(5.65582e-08 -3.22912e-06 0)
(5.6483e-08 -3.2372e-06 0)
(5.64074e-08 -3.24529e-06 0)
(5.63315e-08 -3.25338e-06 0)
(5.62552e-08 -3.26149e-06 0)
(5.61786e-08 -3.2696e-06 0)
(5.61016e-08 -3.27772e-06 0)
(5.60242e-08 -3.28585e-06 0)
(5.59465e-08 -3.29399e-06 0)
(5.58685e-08 -3.30213e-06 0)
(5.57901e-08 -3.31029e-06 0)
(5.57113e-08 -3.31845e-06 0)
(5.56321e-08 -3.32662e-06 0)
(5.55526e-08 -3.33479e-06 0)
(5.54728e-08 -3.34297e-06 0)
(5.53925e-08 -3.35117e-06 0)
(5.5312e-08 -3.35936e-06 0)
(5.5231e-08 -3.36757e-06 0)
(5.51497e-08 -3.37578e-06 0)
(5.5068e-08 -3.384e-06 0)
(5.49859e-08 -3.39223e-06 0)
(5.49034e-08 -3.40046e-06 0)
(5.48206e-08 -3.4087e-06 0)
(5.47375e-08 -3.41695e-06 0)
(5.46539e-08 -3.42521e-06 0)
(5.457e-08 -3.43347e-06 0)
(5.44857e-08 -3.44174e-06 0)
(5.4401e-08 -3.45001e-06 0)
(5.43159e-08 -3.45829e-06 0)
(5.42305e-08 -3.46658e-06 0)
(5.41447e-08 -3.47488e-06 0)
(5.40585e-08 -3.48318e-06 0)
(5.39719e-08 -3.49148e-06 0)
(5.38849e-08 -3.4998e-06 0)
(5.37976e-08 -3.50812e-06 0)
(5.37099e-08 -3.51644e-06 0)
(5.36218e-08 -3.52477e-06 0)
(5.35333e-08 -3.53311e-06 0)
(5.34444e-08 -3.54146e-06 0)
(5.33551e-08 -3.5498e-06 0)
(5.32655e-08 -3.55816e-06 0)
(5.31754e-08 -3.56652e-06 0)
(5.3085e-08 -3.57489e-06 0)
(5.29942e-08 -3.58326e-06 0)
(5.29029e-08 -3.59163e-06 0)
(5.28113e-08 -3.60002e-06 0)
(5.27194e-08 -3.6084e-06 0)
(5.2627e-08 -3.6168e-06 0)
(5.25342e-08 -3.62519e-06 0)
(5.2441e-08 -3.6336e-06 0)
(5.23474e-08 -3.642e-06 0)
(5.22535e-08 -3.65041e-06 0)
(5.21591e-08 -3.65883e-06 0)
(5.20643e-08 -3.66725e-06 0)
(5.19692e-08 -3.67568e-06 0)
(5.18736e-08 -3.68411e-06 0)
(5.17777e-08 -3.69254e-06 0)
(5.16813e-08 -3.70098e-06 0)
(5.15846e-08 -3.70942e-06 0)
(5.14874e-08 -3.71787e-06 0)
(5.13898e-08 -3.72632e-06 0)
(5.12919e-08 -3.73477e-06 0)
(5.11935e-08 -3.74323e-06 0)
(5.10947e-08 -3.75169e-06 0)
(5.09956e-08 -3.76016e-06 0)
(5.0896e-08 -3.76863e-06 0)
(5.0796e-08 -3.7771e-06 0)
(5.06956e-08 -3.78557e-06 0)
(5.05948e-08 -3.79405e-06 0)
(5.04936e-08 -3.80253e-06 0)
(5.0392e-08 -3.81102e-06 0)
(5.029e-08 -3.8195e-06 0)
(5.01876e-08 -3.82799e-06 0)
(5.00848e-08 -3.83649e-06 0)
(4.99815e-08 -3.84498e-06 0)
(4.98779e-08 -3.85348e-06 0)
(4.97738e-08 -3.86198e-06 0)
(4.96694e-08 -3.87048e-06 0)
(4.95645e-08 -3.87899e-06 0)
(4.94592e-08 -3.88749e-06 0)
(4.93535e-08 -3.896e-06 0)
(4.92474e-08 -3.90451e-06 0)
(4.91409e-08 -3.91302e-06 0)
(4.9034e-08 -3.92153e-06 0)
(4.89266e-08 -3.93005e-06 0)
(4.88189e-08 -3.93856e-06 0)
(4.87107e-08 -3.94708e-06 0)
(4.86021e-08 -3.9556e-06 0)
(4.84932e-08 -3.96412e-06 0)
(4.83838e-08 -3.97264e-06 0)
(4.8274e-08 -3.98116e-06 0)
(4.81637e-08 -3.98968e-06 0)
(4.80531e-08 -3.9982e-06 0)
(4.7942e-08 -4.00672e-06 0)
(4.78306e-08 -4.01525e-06 0)
(4.77187e-08 -4.02377e-06 0)
(4.76064e-08 -4.03229e-06 0)
(4.74937e-08 -4.04082e-06 0)
(4.73806e-08 -4.04934e-06 0)
(4.72671e-08 -4.05786e-06 0)
(4.71532e-08 -4.06638e-06 0)
(4.70388e-08 -4.0749e-06 0)
(4.6924e-08 -4.08343e-06 0)
(4.68089e-08 -4.09194e-06 0)
(4.66933e-08 -4.10046e-06 0)
(4.65773e-08 -4.10898e-06 0)
(4.64609e-08 -4.1175e-06 0)
(4.63441e-08 -4.12601e-06 0)
(4.62268e-08 -4.13453e-06 0)
(4.61092e-08 -4.14304e-06 0)
(4.59911e-08 -4.15155e-06 0)
(4.58727e-08 -4.16006e-06 0)
(4.57538e-08 -4.16857e-06 0)
(4.56345e-08 -4.17707e-06 0)
(4.55148e-08 -4.18557e-06 0)
(4.53947e-08 -4.19407e-06 0)
(4.52742e-08 -4.20257e-06 0)
(4.51533e-08 -4.21106e-06 0)
(4.5032e-08 -4.21956e-06 0)
(4.49103e-08 -4.22805e-06 0)
(4.47881e-08 -4.23653e-06 0)
(4.46656e-08 -4.24501e-06 0)
(4.45427e-08 -4.25349e-06 0)
(4.44193e-08 -4.26197e-06 0)
(4.42956e-08 -4.27044e-06 0)
(4.41714e-08 -4.27891e-06 0)
(4.40468e-08 -4.28738e-06 0)
(4.39219e-08 -4.29584e-06 0)
(4.37965e-08 -4.30429e-06 0)
(4.36708e-08 -4.31274e-06 0)
(4.35446e-08 -4.32119e-06 0)
(4.3418e-08 -4.32964e-06 0)
(4.32911e-08 -4.33807e-06 0)
(4.31637e-08 -4.34651e-06 0)
(4.3036e-08 -4.35494e-06 0)
(4.29079e-08 -4.36336e-06 0)
(4.27793e-08 -4.37178e-06 0)
(4.26504e-08 -4.38019e-06 0)
(4.25211e-08 -4.3886e-06 0)
(4.23914e-08 -4.397e-06 0)
(4.22613e-08 -4.40539e-06 0)
(4.21308e-08 -4.41378e-06 0)
(4.19999e-08 -4.42216e-06 0)
(4.18686e-08 -4.43054e-06 0)
(4.1737e-08 -4.43891e-06 0)
(4.1605e-08 -4.44727e-06 0)
(4.14726e-08 -4.45563e-06 0)
(4.13398e-08 -4.46397e-06 0)
(4.12066e-08 -4.47232e-06 0)
(4.1073e-08 -4.48065e-06 0)
(4.09391e-08 -4.48898e-06 0)
(4.08048e-08 -4.49729e-06 0)
(4.06701e-08 -4.50561e-06 0)
(4.05351e-08 -4.51391e-06 0)
(4.03997e-08 -4.5222e-06 0)
(4.02639e-08 -4.53049e-06 0)
(4.01277e-08 -4.53877e-06 0)
(3.99912e-08 -4.54704e-06 0)
(3.98543e-08 -4.5553e-06 0)
(3.9717e-08 -4.56355e-06 0)
(3.95794e-08 -4.57179e-06 0)
(3.94416e-08 -4.58002e-06 0)
(3.93027e-08 -4.58827e-06 0)
(3.91637e-08 -4.59641e-06 0)
(3.90321e-08 -4.60418e-06 0)
(3.89063e-08 -4.6116e-06 0)
(3.87797e-08 -4.61891e-06 0)
(3.86526e-08 -4.6263e-06 0)
(3.85244e-08 -4.63379e-06 0)
(3.83947e-08 -4.64134e-06 0)
(3.82636e-08 -4.64893e-06 0)
(3.81311e-08 -4.65658e-06 0)
(3.79972e-08 -4.66428e-06 0)
(3.78618e-08 -4.67204e-06 0)
(3.77249e-08 -4.67986e-06 0)
(3.75865e-08 -4.68774e-06 0)
(3.74466e-08 -4.69567e-06 0)
(3.73052e-08 -4.70365e-06 0)
(3.71623e-08 -4.71169e-06 0)
(3.70178e-08 -4.71979e-06 0)
(3.68717e-08 -4.72795e-06 0)
(3.67241e-08 -4.73615e-06 0)
(3.65749e-08 -4.74442e-06 0)
(3.64241e-08 -4.75274e-06 0)
(3.62718e-08 -4.76112e-06 0)
(3.61177e-08 -4.76955e-06 0)
(3.59621e-08 -4.77804e-06 0)
(3.58047e-08 -4.78658e-06 0)
(3.56458e-08 -4.79518e-06 0)
(3.54851e-08 -4.80383e-06 0)
(3.53228e-08 -4.81253e-06 0)
(3.51587e-08 -4.82129e-06 0)
(3.4993e-08 -4.83011e-06 0)
(3.48255e-08 -4.83897e-06 0)
(3.46563e-08 -4.84789e-06 0)
(3.44853e-08 -4.85686e-06 0)
(3.43125e-08 -4.86589e-06 0)
(3.4138e-08 -4.87496e-06 0)
(3.39617e-08 -4.88409e-06 0)
(3.37836e-08 -4.89327e-06 0)
(3.36037e-08 -4.9025e-06 0)
(3.3422e-08 -4.91178e-06 0)
(3.32384e-08 -4.92111e-06 0)
(3.3053e-08 -4.93049e-06 0)
(3.28658e-08 -4.93992e-06 0)
(3.26767e-08 -4.94939e-06 0)
(3.24857e-08 -4.95892e-06 0)
(3.22928e-08 -4.96849e-06 0)
(3.20981e-08 -4.97811e-06 0)
(3.19014e-08 -4.98776e-06 0)
(3.17028e-08 -4.99747e-06 0)
(3.15024e-08 -5.00722e-06 0)
(3.13e-08 -5.01701e-06 0)
(3.10956e-08 -5.02685e-06 0)
(3.08894e-08 -5.03673e-06 0)
(3.06811e-08 -5.04664e-06 0)
(3.0471e-08 -5.0566e-06 0)
(3.02589e-08 -5.06659e-06 0)
(3.00448e-08 -5.07663e-06 0)
(2.98287e-08 -5.08669e-06 0)
(2.96107e-08 -5.0968e-06 0)
(2.93908e-08 -5.10694e-06 0)
(2.91688e-08 -5.11711e-06 0)
(2.89449e-08 -5.12732e-06 0)
(2.8719e-08 -5.13755e-06 0)
(2.84911e-08 -5.14782e-06 0)
(2.82612e-08 -5.15811e-06 0)
(2.80293e-08 -5.16843e-06 0)
(2.77955e-08 -5.17878e-06 0)
(2.75597e-08 -5.18915e-06 0)
(2.73219e-08 -5.19955e-06 0)
(2.70822e-08 -5.20996e-06 0)
(2.68405e-08 -5.2204e-06 0)
(2.65968e-08 -5.23085e-06 0)
(2.63512e-08 -5.24132e-06 0)
(2.61036e-08 -5.2518e-06 0)
(2.58541e-08 -5.2623e-06 0)
(2.56026e-08 -5.27281e-06 0)
(2.53492e-08 -5.28333e-06 0)
(2.50939e-08 -5.29386e-06 0)
(2.48368e-08 -5.3044e-06 0)
(2.45777e-08 -5.31493e-06 0)
(2.43167e-08 -5.32548e-06 0)
(2.40539e-08 -5.33601e-06 0)
(2.37893e-08 -5.34656e-06 0)
(2.35228e-08 -5.35709e-06 0)
(2.32545e-08 -5.36762e-06 0)
(2.29844e-08 -5.37814e-06 0)
(2.27126e-08 -5.38865e-06 0)
(2.2439e-08 -5.39915e-06 0)
(2.21637e-08 -5.40963e-06 0)
(2.18867e-08 -5.42009e-06 0)
(2.1608e-08 -5.43054e-06 0)
(2.13277e-08 -5.44096e-06 0)
(2.10458e-08 -5.45136e-06 0)
(2.07623e-08 -5.46173e-06 0)
(2.04772e-08 -5.47207e-06 0)
(2.01906e-08 -5.48238e-06 0)
(1.99026e-08 -5.49265e-06 0)
(1.96131e-08 -5.50288e-06 0)
(1.93222e-08 -5.51308e-06 0)
(1.90298e-08 -5.52322e-06 0)
(1.87362e-08 -5.53333e-06 0)
(1.84413e-08 -5.54338e-06 0)
(1.81452e-08 -5.55338e-06 0)
(1.78478e-08 -5.56332e-06 0)
(1.75493e-08 -5.57321e-06 0)
(1.72497e-08 -5.58303e-06 0)
(1.69491e-08 -5.59279e-06 0)
(1.66474e-08 -5.60248e-06 0)
(1.63448e-08 -5.61211e-06 0)
(1.60413e-08 -5.62165e-06 0)
(1.57371e-08 -5.63112e-06 0)
(1.5432e-08 -5.6405e-06 0)
(1.51262e-08 -5.64981e-06 0)
(1.48197e-08 -5.65902e-06 0)
(1.45127e-08 -5.66814e-06 0)
(1.42052e-08 -5.67717e-06 0)
(1.38972e-08 -5.6861e-06 0)
(1.35888e-08 -5.69493e-06 0)
(1.32801e-08 -5.70366e-06 0)
(1.29712e-08 -5.71227e-06 0)
(1.26621e-08 -5.72078e-06 0)
(1.23529e-08 -5.72916e-06 0)
(1.20437e-08 -5.73744e-06 0)
(1.17346e-08 -5.74558e-06 0)
(1.14256e-08 -5.75361e-06 0)
(1.11168e-08 -5.76149e-06 0)
(1.08084e-08 -5.76925e-06 0)
(1.05003e-08 -5.77687e-06 0)
(1.01928e-08 -5.78436e-06 0)
(9.88577e-09 -5.79169e-06 0)
(9.57943e-09 -5.79888e-06 0)
(9.27382e-09 -5.80591e-06 0)
(8.96906e-09 -5.81281e-06 0)
(8.66521e-09 -5.81952e-06 0)
(8.3624e-09 -5.82609e-06 0)
(8.06069e-09 -5.83249e-06 0)
(7.7602e-09 -5.83872e-06 0)
(7.461e-09 -5.84477e-06 0)
(7.16322e-09 -5.85066e-06 0)
(6.86691e-09 -5.85636e-06 0)
(6.57222e-09 -5.86189e-06 0)
(6.27921e-09 -5.86722e-06 0)
(5.98801e-09 -5.87238e-06 0)
(5.69868e-09 -5.87733e-06 0)
(5.41137e-09 -5.8821e-06 0)
(5.12613e-09 -5.88665e-06 0)
(4.8431e-09 -5.89103e-06 0)
(4.56235e-09 -5.89518e-06 0)
(4.28401e-09 -5.89914e-06 0)
(4.00815e-09 -5.90287e-06 0)
(3.73489e-09 -5.90642e-06 0)
(3.46432e-09 -5.90973e-06 0)
(3.19655e-09 -5.91284e-06 0)
(2.93166e-09 -5.91571e-06 0)
(2.66977e-09 -5.91838e-06 0)
(2.41096e-09 -5.92081e-06 0)
(2.15533e-09 -5.92303e-06 0)
(1.90297e-09 -5.925e-06 0)
(1.65397e-09 -5.92676e-06 0)
(1.40843e-09 -5.92827e-06 0)
(1.16644e-09 -5.92958e-06 0)
(9.28079e-10 -5.93062e-06 0)
(6.93436e-10 -5.93145e-06 0)
(4.62591e-10 -5.93201e-06 0)
(2.3563e-10 -5.93237e-06 0)
(1.26297e-11 -5.93246e-06 0)
(-2.06332e-10 -5.93233e-06 0)
(-4.21179e-10 -5.93194e-06 0)
(-6.31841e-10 -5.93133e-06 0)
(-8.38244e-10 -5.93046e-06 0)
(-1.04033e-09 -5.92936e-06 0)
(-1.23801e-09 -5.928e-06 0)
(-1.43125e-09 -5.92643e-06 0)
(-1.61996e-09 -5.92458e-06 0)
(-1.80411e-09 -5.92252e-06 0)
(-1.98363e-09 -5.92019e-06 0)
(-2.15847e-09 -5.91765e-06 0)
(-2.32856e-09 -5.91483e-06 0)
(-2.49391e-09 -5.91181e-06 0)
(-2.65434e-09 -5.90852e-06 0)
(-2.81027e-09 -5.90503e-06 0)
(-2.95964e-09 -5.90124e-06 0)
(-3.10923e-09 -5.8973e-06 0)
(-3.26701e-09 -5.89261e-06 0)
(-3.42591e-09 -5.88718e-06 0)
(-3.57863e-09 -5.88145e-06 0)
(-3.72332e-09 -5.87551e-06 0)
(-3.85948e-09 -5.86932e-06 0)
(-3.98726e-09 -5.86296e-06 0)
(-4.1068e-09 -5.85635e-06 0)
(-4.21839e-09 -5.8496e-06 0)
(-4.32221e-09 -5.84263e-06 0)
(-4.4186e-09 -5.83555e-06 0)
(-4.50772e-09 -5.82827e-06 0)
(-4.5899e-09 -5.8209e-06 0)
(-4.66529e-09 -5.81336e-06 0)
(-4.7342e-09 -5.80575e-06 0)
(-4.79676e-09 -5.79798e-06 0)
(-4.85326e-09 -5.79017e-06 0)
(-4.90384e-09 -5.78222e-06 0)
(-4.94877e-09 -5.77424e-06 0)
(-4.98816e-09 -5.76615e-06 0)
(-5.02228e-09 -5.75805e-06 0)
(-5.05124e-09 -5.74984e-06 0)
(-5.07527e-09 -5.74165e-06 0)
(-5.09448e-09 -5.73337e-06 0)
(-5.1091e-09 -5.72511e-06 0)
(-5.1192e-09 -5.71678e-06 0)
(-5.12502e-09 -5.70849e-06 0)
(-5.12661e-09 -5.70015e-06 0)
(-5.12421e-09 -5.69185e-06 0)
(-5.11785e-09 -5.68352e-06 0)
(-5.10775e-09 -5.67525e-06 0)
(-5.09394e-09 -5.66694e-06 0)
(-5.07664e-09 -5.65871e-06 0)
(-5.05586e-09 -5.65047e-06 0)
(-5.0318e-09 -5.64231e-06 0)
(-5.00448e-09 -5.63414e-06 0)
(-4.9741e-09 -5.62607e-06 0)
(-4.94065e-09 -5.618e-06 0)
(-4.90431e-09 -5.61004e-06 0)
(-4.8651e-09 -5.60209e-06 0)
(-4.82317e-09 -5.59425e-06 0)
(-4.77854e-09 -5.58644e-06 0)
(-4.73136e-09 -5.57875e-06 0)
(-4.68162e-09 -5.57109e-06 0)
(-4.62949e-09 -5.56356e-06 0)
(-4.57495e-09 -5.55607e-06 0)
(-4.51814e-09 -5.54871e-06 0)
(-4.45906e-09 -5.54141e-06 0)
(-4.39785e-09 -5.53424e-06 0)
(-4.33449e-09 -5.52714e-06 0)
(-4.26912e-09 -5.52018e-06 0)
(-4.20171e-09 -5.51328e-06 0)
(-4.1324e-09 -5.50654e-06 0)
(-4.06117e-09 -5.49987e-06 0)
(-3.98814e-09 -5.49336e-06 0)
(-3.91329e-09 -5.48693e-06 0)
(-3.83674e-09 -5.48066e-06 0)
(-3.75847e-09 -5.47448e-06 0)
(-3.67859e-09 -5.46847e-06 0)
(-3.59708e-09 -5.46254e-06 0)
(-3.51406e-09 -5.45679e-06 0)
(-3.4295e-09 -5.45114e-06 0)
(-3.34351e-09 -5.44566e-06 0)
(-3.25607e-09 -5.44028e-06 0)
(-3.16728e-09 -5.43509e-06 0)
(-3.07713e-09 -5.43e-06 0)
(-2.9857e-09 -5.42509e-06 0)
(-2.89301e-09 -5.42031e-06 0)
(-2.79912e-09 -5.4157e-06 0)
(-2.70404e-09 -5.41121e-06 0)
(-2.60785e-09 -5.40692e-06 0)
(-2.51056e-09 -5.40274e-06 0)
(-2.41222e-09 -5.39876e-06 0)
(-2.31287e-09 -5.39491e-06 0)
(-2.21255e-09 -5.39124e-06 0)
(-2.1113e-09 -5.38771e-06 0)
(-2.00917e-09 -5.38438e-06 0)
(-1.90617e-09 -5.38118e-06 0)
(-1.80238e-09 -5.37818e-06 0)
(-1.6978e-09 -5.37532e-06 0)
(-1.5925e-09 -5.37265e-06 0)
(-1.48651e-09 -5.37013e-06 0)
(-1.37987e-09 -5.36781e-06 0)
(-1.27262e-09 -5.36564e-06 0)
(-1.16481e-09 -5.36366e-06 0)
(-1.05647e-09 -5.36183e-06 0)
(-9.47666e-10 -5.36023e-06 0)
(-8.3843e-10 -5.35866e-06 0)
(-7.28835e-10 -5.35775e-06 0)
(-6.18895e-10 -5.35539e-06 0)
(-5.08791e-10 -5.35854e-06 0)
(-3.98272e-10 -5.34386e-06 0)
(-2.88083e-10 -5.38679e-06 0)
(-1.77812e-10 -5.22514e-06 0)
(-6.35049e-11 -5.65411e-06 0)
(-2.3799e-12 -4.93829e-06 0)
)
;
    }
    bottomWall
    {
        type            calculated;
        value           nonuniform List<vector> 
449
(
(-52.6706 -0.955214 0)
(-34.7197 -0.00279462 0)
(-34.3391 -0.000253131 0)
(-32.9775 -0.000363278 0)
(-31.8519 -0.000315106 0)
(-30.8164 -0.000283945 0)
(-29.9006 -0.000248906 0)
(-29.1021 -0.000217024 0)
(-28.4026 -0.000190532 0)
(-27.784 -0.000168813 0)
(-27.2321 -0.000150829 0)
(-26.736 -0.000135755 0)
(-26.2867 -0.000123123 0)
(-25.8765 -0.000112461 0)
(-25.4998 -0.000103262 0)
(-25.1524 -9.52686e-05 0)
(-24.8302 -8.8287e-05 0)
(-24.5304 -8.21593e-05 0)
(-24.2501 -7.67603e-05 0)
(-23.9872 -7.1946e-05 0)
(-23.7398 -6.76271e-05 0)
(-23.5064 -6.37425e-05 0)
(-23.2855 -6.02376e-05 0)
(-23.0761 -5.70573e-05 0)
(-22.877 -5.41619e-05 0)
(-22.6874 -5.15051e-05 0)
(-22.5066 -4.90711e-05 0)
(-22.3337 -4.68324e-05 0)
(-22.1681 -4.47675e-05 0)
(-22.0094 -4.28523e-05 0)
(-21.857 -4.10767e-05 0)
(-21.7105 -3.94241e-05 0)
(-21.5695 -3.78868e-05 0)
(-21.4335 -3.64465e-05 0)
(-21.3024 -3.51014e-05 0)
(-21.1757 -3.38373e-05 0)
(-21.0533 -3.2655e-05 0)
(-20.9347 -3.15451e-05 0)
(-20.8199 -3.04986e-05 0)
(-20.7086 -2.95125e-05 0)
(-20.6006 -2.85818e-05 0)
(-20.4957 -2.77032e-05 0)
(-20.3938 -2.68682e-05 0)
(-20.2946 -2.60726e-05 0)
(-20.1982 -2.53168e-05 0)
(-20.1043 -2.45905e-05 0)
(-20.0129 -2.3899e-05 0)
(-19.9238 -2.32409e-05 0)
(-19.8369 -2.26033e-05 0)
(-19.7522 -2.20032e-05 0)
(-19.6695 -2.14225e-05 0)
(-19.5888 -2.08714e-05 0)
(-19.51 -2.03452e-05 0)
(-19.433 -1.9839e-05 0)
(-19.3576 -1.93575e-05 0)
(-19.284 -1.88945e-05 0)
(-19.2119 -1.84528e-05 0)
(-19.1413 -1.80283e-05 0)
(-19.0721 -1.76214e-05 0)
(-19.0044 -1.72301e-05 0)
(-18.9379 -1.68538e-05 0)
(-18.8728 -1.64921e-05 0)
(-18.8089 -1.61433e-05 0)
(-18.7462 -1.58078e-05 0)
(-18.6846 -1.54843e-05 0)
(-18.6242 -1.51716e-05 0)
(-18.5648 -1.4871e-05 0)
(-18.5065 -1.4578e-05 0)
(-18.4491 -1.42979e-05 0)
(-18.3927 -1.40234e-05 0)
(-18.3373 -1.37604e-05 0)
(-18.2828 -1.3504e-05 0)
(-18.2291 -1.32559e-05 0)
(-18.1763 -1.30158e-05 0)
(-18.1244 -1.27811e-05 0)
(-18.0732 -1.25557e-05 0)
(-18.0228 -1.2335e-05 0)
(-17.9732 -1.21212e-05 0)
(-17.9244 -1.19143e-05 0)
(-17.8762 -1.17113e-05 0)
(-17.8288 -1.15157e-05 0)
(-17.782 -1.13247e-05 0)
(-17.7359 -1.1138e-05 0)
(-17.6904 -1.0958e-05 0)
(-17.6456 -1.0781e-05 0)
(-17.6014 -1.06093e-05 0)
(-17.5578 -1.04429e-05 0)
(-17.5148 -1.02791e-05 0)
(-17.4723 -1.01203e-05 0)
(-17.4304 -9.96598e-06 0)
(-17.389 -9.81418e-06 0)
(-17.3482 -9.66702e-06 0)
(-17.3079 -9.52384e-06 0)
(-17.268 -9.38289e-06 0)
(-17.2287 -9.24609e-06 0)
(-17.1898 -9.11294e-06 0)
(-17.1515 -8.98177e-06 0)
(-17.1135 -8.85424e-06 0)
(-17.0761 -8.73026e-06 0)
(-17.039 -8.60793e-06 0)
(-17.0024 -8.48879e-06 0)
(-16.9662 -8.37312e-06 0)
(-16.9305 -8.25892e-06 0)
(-16.8951 -8.14739e-06 0)
(-16.8601 -8.03912e-06 0)
(-16.8255 -7.9325e-06 0)
(-16.7913 -7.82788e-06 0)
(-16.7574 -7.72615e-06 0)
(-16.7239 -7.6266e-06 0)
(-16.6908 -7.52836e-06 0)
(-16.658 -7.43255e-06 0)
(-16.6255 -7.33927e-06 0)
(-16.5934 -7.24701e-06 0)
(-16.5616 -7.15677e-06 0)
(-16.5301 -7.0688e-06 0)
(-16.4989 -6.98247e-06 0)
(-16.4681 -6.89725e-06 0)
(-16.4375 -6.8141e-06 0)
(-16.4073 -6.7329e-06 0)
(-16.3773 -6.65277e-06 0)
(-16.3476 -6.57404e-06 0)
(-16.3182 -6.4972e-06 0)
(-16.2891 -6.42189e-06 0)
(-16.2602 -6.34744e-06 0)
(-16.2316 -6.27452e-06 0)
(-16.2033 -6.20324e-06 0)
(-16.1752 -6.13316e-06 0)
(-16.1474 -6.064e-06 0)
(-16.1198 -5.99627e-06 0)
(-16.0924 -5.92997e-06 0)
(-16.0653 -5.86466e-06 0)
(-16.0385 -5.8003e-06 0)
(-16.0118 -5.73719e-06 0)
(-15.9854 -5.67536e-06 0)
(-15.9592 -5.6144e-06 0)
(-15.9333 -5.55436e-06 0)
(-15.9075 -5.49541e-06 0)
(-15.882 -5.43764e-06 0)
(-15.8566 -5.38065e-06 0)
(-15.8315 -5.32453e-06 0)
(-15.8066 -5.26936e-06 0)
(-15.7819 -5.21528e-06 0)
(-15.7573 -5.16193e-06 0)
(-15.733 -5.10936e-06 0)
(-15.7089 -5.05766e-06 0)
(-15.6849 -5.0069e-06 0)
(-15.6611 -4.95691e-06 0)
(-15.6375 -4.90756e-06 0)
(-15.6141 -4.85904e-06 0)
(-15.5909 -4.81129e-06 0)
(-15.5678 -4.76437e-06 0)
(-15.5449 -4.71798e-06 0)
(-15.5222 -4.67234e-06 0)
(-15.4996 -4.6274e-06 0)
(-15.4772 -4.58322e-06 0)
(-15.455 -4.53963e-06 0)
(-15.4329 -4.49661e-06 0)
(-15.411 -4.45429e-06 0)
(-15.3893 -4.41259e-06 0)
(-15.3676 -4.37154e-06 0)
(-15.3462 -4.33099e-06 0)
(-15.3249 -4.29102e-06 0)
(-15.3037 -4.25168e-06 0)
(-15.2827 -4.21288e-06 0)
(-15.2618 -4.17468e-06 0)
(-15.2411 -4.13687e-06 0)
(-15.2205 -4.09973e-06 0)
(-15.2 -4.06298e-06 0)
(-15.1797 -4.02698e-06 0)
(-15.1595 -3.99113e-06 0)
(-15.1394 -3.95607e-06 0)
(-15.1195 -3.92124e-06 0)
(-15.0997 -3.88464e-06 0)
(-15.0811 -3.85447e-06 0)
(-15.0636 -3.82775e-06 0)
(-15.0461 -3.7968e-06 0)
(-15.0285 -3.76652e-06 0)
(-15.0109 -3.73686e-06 0)
(-14.9932 -3.70708e-06 0)
(-14.9755 -3.67768e-06 0)
(-14.9577 -3.64828e-06 0)
(-14.9399 -3.6191e-06 0)
(-14.922 -3.59002e-06 0)
(-14.9041 -3.56107e-06 0)
(-14.8861 -3.53223e-06 0)
(-14.8681 -3.50351e-06 0)
(-14.85 -3.47488e-06 0)
(-14.8319 -3.44642e-06 0)
(-14.8138 -3.41804e-06 0)
(-14.7956 -3.38981e-06 0)
(-14.7773 -3.36166e-06 0)
(-14.759 -3.33365e-06 0)
(-14.7407 -3.30578e-06 0)
(-14.7223 -3.27802e-06 0)
(-14.7039 -3.25038e-06 0)
(-14.6854 -3.22286e-06 0)
(-14.6669 -3.19546e-06 0)
(-14.6483 -3.16822e-06 0)
(-14.6297 -3.14108e-06 0)
(-14.6111 -3.11409e-06 0)
(-14.5924 -3.08721e-06 0)
(-14.5737 -3.06047e-06 0)
(-14.5549 -3.03386e-06 0)
(-14.5362 -3.00738e-06 0)
(-14.5173 -2.98103e-06 0)
(-14.4985 -2.95482e-06 0)
(-14.4795 -2.92874e-06 0)
(-14.4606 -2.90281e-06 0)
(-14.4416 -2.877e-06 0)
(-14.4226 -2.85134e-06 0)
(-14.4036 -2.82579e-06 0)
(-14.3845 -2.80042e-06 0)
(-14.3654 -2.77516e-06 0)
(-14.3462 -2.75005e-06 0)
(-14.327 -2.72508e-06 0)
(-14.3078 -2.70024e-06 0)
(-14.2886 -2.67555e-06 0)
(-14.2693 -2.65099e-06 0)
(-14.25 -2.6266e-06 0)
(-14.2306 -2.60231e-06 0)
(-14.2113 -2.5782e-06 0)
(-14.1919 -2.5542e-06 0)
(-14.1724 -2.53038e-06 0)
(-14.153 -2.50667e-06 0)
(-14.1335 -2.48314e-06 0)
(-14.114 -2.45972e-06 0)
(-14.0945 -2.43649e-06 0)
(-14.0749 -2.41336e-06 0)
(-14.0553 -2.39041e-06 0)
(-14.0357 -2.36757e-06 0)
(-14.0161 -2.34491e-06 0)
(-13.9965 -2.32237e-06 0)
(-13.9768 -2.30001e-06 0)
(-13.9571 -2.27775e-06 0)
(-13.9374 -2.25568e-06 0)
(-13.9176 -2.23372e-06 0)
(-13.8979 -2.21196e-06 0)
(-13.8781 -2.19029e-06 0)
(-13.8583 -2.16881e-06 0)
(-13.8385 -2.14744e-06 0)
(-13.8186 -2.12628e-06 0)
(-13.7988 -2.10519e-06 0)
(-13.7789 -2.08432e-06 0)
(-13.759 -2.06353e-06 0)
(-13.7391 -2.04295e-06 0)
(-13.7192 -2.02246e-06 0)
(-13.6993 -2.00217e-06 0)
(-13.6794 -1.98197e-06 0)
(-13.6594 -1.96199e-06 0)
(-13.6394 -1.94209e-06 0)
(-13.6195 -1.92239e-06 0)
(-13.5995 -1.90278e-06 0)
(-13.5795 -1.88339e-06 0)
(-13.5594 -1.86408e-06 0)
(-13.5394 -1.84496e-06 0)
(-13.5194 -1.82595e-06 0)
(-13.4994 -1.80713e-06 0)
(-13.4793 -1.78841e-06 0)
(-13.4592 -1.76986e-06 0)
(-13.4392 -1.75144e-06 0)
(-13.4191 -1.7332e-06 0)
(-13.399 -1.71507e-06 0)
(-13.3789 -1.69709e-06 0)
(-13.3588 -1.67925e-06 0)
(-13.3388 -1.66158e-06 0)
(-13.3187 -1.64403e-06 0)
(-13.2986 -1.62662e-06 0)
(-13.2784 -1.60936e-06 0)
(-13.2583 -1.59225e-06 0)
(-13.2382 -1.57527e-06 0)
(-13.2181 -1.55842e-06 0)
(-13.198 -1.54174e-06 0)
(-13.1779 -1.52518e-06 0)
(-13.1578 -1.50877e-06 0)
(-13.1377 -1.49247e-06 0)
(-13.1176 -1.47636e-06 0)
(-13.0975 -1.46034e-06 0)
(-13.0773 -1.44449e-06 0)
(-13.0572 -1.42874e-06 0)
(-13.0371 -1.41318e-06 0)
(-13.017 -1.3977e-06 0)
(-12.9969 -1.3824e-06 0)
(-12.9769 -1.36719e-06 0)
(-12.9568 -1.35217e-06 0)
(-12.9367 -1.33722e-06 0)
(-12.9166 -1.32246e-06 0)
(-12.8965 -1.30778e-06 0)
(-12.8765 -1.2933e-06 0)
(-12.8564 -1.27887e-06 0)
(-12.8364 -1.26464e-06 0)
(-12.8164 -1.25049e-06 0)
(-12.7963 -1.23651e-06 0)
(-12.7763 -1.2226e-06 0)
(-12.7563 -1.20889e-06 0)
(-12.7363 -1.19525e-06 0)
(-12.7163 -1.18178e-06 0)
(-12.6963 -1.16838e-06 0)
(-12.6764 -1.15517e-06 0)
(-12.6564 -1.14203e-06 0)
(-12.6365 -1.12906e-06 0)
(-12.6165 -1.11616e-06 0)
(-12.5966 -1.10344e-06 0)
(-12.5767 -1.09079e-06 0)
(-12.5568 -1.0783e-06 0)
(-12.537 -1.06589e-06 0)
(-12.5171 -1.05365e-06 0)
(-12.4973 -1.04148e-06 0)
(-12.4775 -1.02946e-06 0)
(-12.4576 -1.01754e-06 0)
(-12.4379 -1.00575e-06 0)
(-12.4181 -9.94052e-07 0)
(-12.3983 -9.825e-07 0)
(-12.3786 -9.71039e-07 0)
(-12.3589 -9.59697e-07 0)
(-12.3392 -9.48466e-07 0)
(-12.3195 -9.37359e-07 0)
(-12.2998 -9.26347e-07 0)
(-12.2802 -9.15454e-07 0)
(-12.2605 -9.04669e-07 0)
(-12.2409 -8.93994e-07 0)
(-12.2214 -8.83423e-07 0)
(-12.2018 -8.72961e-07 0)
(-12.1823 -8.62609e-07 0)
(-12.1627 -8.52356e-07 0)
(-12.1432 -8.42217e-07 0)
(-12.1238 -8.32172e-07 0)
(-12.1043 -8.22239e-07 0)
(-12.0849 -8.12394e-07 0)
(-12.0655 -8.02674e-07 0)
(-12.0461 -7.93034e-07 0)
(-12.0268 -7.83509e-07 0)
(-12.0075 -7.74068e-07 0)
(-11.9882 -7.64752e-07 0)
(-11.9689 -7.555e-07 0)
(-11.9496 -7.46376e-07 0)
(-11.9304 -7.37322e-07 0)
(-11.9112 -7.28394e-07 0)
(-11.892 -7.19528e-07 0)
(-11.8729 -7.10791e-07 0)
(-11.8538 -7.02114e-07 0)
(-11.8347 -6.93557e-07 0)
(-11.8156 -6.85064e-07 0)
(-11.7966 -6.76693e-07 0)
(-11.7776 -6.6838e-07 0)
(-11.7586 -6.60186e-07 0)
(-11.7397 -6.52059e-07 0)
(-11.7208 -6.44038e-07 0)
(-11.7019 -6.36077e-07 0)
(-11.6831 -6.28243e-07 0)
(-11.6642 -6.20417e-07 0)
(-11.6454 -6.12783e-07 0)
(-11.6267 -6.05037e-07 0)
(-11.608 -5.97619e-07 0)
(-11.5893 -5.9039e-07 0)
(-11.5685 -5.81694e-07 0)
(-11.5459 -5.72455e-07 0)
(-11.5237 -5.6417e-07 0)
(-11.5018 -5.56055e-07 0)
(-11.4802 -5.48003e-07 0)
(-11.4588 -5.40164e-07 0)
(-11.4379 -5.32494e-07 0)
(-11.4172 -5.25e-07 0)
(-11.3968 -5.17698e-07 0)
(-11.3766 -5.10544e-07 0)
(-11.3568 -5.03581e-07 0)
(-11.3372 -4.96764e-07 0)
(-11.3179 -4.90122e-07 0)
(-11.2988 -4.83614e-07 0)
(-11.28 -4.77275e-07 0)
(-11.2615 -4.7106e-07 0)
(-11.2432 -4.65005e-07 0)
(-11.2251 -4.59061e-07 0)
(-11.2072 -4.53272e-07 0)
(-11.1896 -4.47591e-07 0)
(-11.1722 -4.42045e-07 0)
(-11.155 -4.36603e-07 0)
(-11.138 -4.31296e-07 0)
(-11.1212 -4.26085e-07 0)
(-11.1047 -4.20989e-07 0)
(-11.0883 -4.15998e-07 0)
(-11.0721 -4.11112e-07 0)
(-11.0561 -4.06319e-07 0)
(-11.0403 -4.01633e-07 0)
(-11.0246 -3.97032e-07 0)
(-11.0092 -3.92529e-07 0)
(-10.9939 -3.88108e-07 0)
(-10.9788 -3.83784e-07 0)
(-10.9639 -3.79538e-07 0)
(-10.9491 -3.75378e-07 0)
(-10.9345 -3.71288e-07 0)
(-10.92 -3.67292e-07 0)
(-10.9057 -3.63361e-07 0)
(-10.8916 -3.5951e-07 0)
(-10.8776 -3.55723e-07 0)
(-10.8638 -3.52018e-07 0)
(-10.85 -3.48374e-07 0)
(-10.8365 -3.448e-07 0)
(-10.823 -3.41284e-07 0)
(-10.8098 -3.37846e-07 0)
(-10.7966 -3.34456e-07 0)
(-10.7836 -3.31137e-07 0)
(-10.7707 -3.27868e-07 0)
(-10.7579 -3.24664e-07 0)
(-10.7453 -3.2151e-07 0)
(-10.7328 -3.18422e-07 0)
(-10.7203 -3.15378e-07 0)
(-10.7081 -3.12385e-07 0)
(-10.6959 -3.0945e-07 0)
(-10.6838 -3.06567e-07 0)
(-10.6719 -3.0373e-07 0)
(-10.6601 -3.00937e-07 0)
(-10.6483 -2.98194e-07 0)
(-10.6367 -2.95508e-07 0)
(-10.6252 -2.92851e-07 0)
(-10.6138 -2.90252e-07 0)
(-10.6025 -2.8768e-07 0)
(-10.5913 -2.85184e-07 0)
(-10.5801 -2.82682e-07 0)
(-10.5692 -2.80292e-07 0)
(-10.5582 -2.77839e-07 0)
(-10.5474 -2.75561e-07 0)
(-10.5366 -2.73159e-07 0)
(-10.526 -2.71017e-07 0)
(-10.5154 -2.68619e-07 0)
(-10.505 -2.6664e-07 0)
(-10.4946 -2.64236e-07 0)
(-10.4843 -2.62438e-07 0)
(-10.474 -2.59992e-07 0)
(-10.464 -2.58412e-07 0)
(-10.4538 -2.55886e-07 0)
(-10.4439 -2.54567e-07 0)
(-10.4339 -2.51948e-07 0)
(-10.4242 -2.50904e-07 0)
(-10.4142 -2.48195e-07 0)
(-10.4048 -2.47406e-07 0)
(-10.3949 -2.44707e-07 0)
(-10.3856 -2.44015e-07 0)
(-10.3758 -2.41688e-07 0)
(-10.3667 -2.40508e-07 0)
(-10.3569 -2.39659e-07 0)
(-10.3479 -2.36147e-07 0)
(-10.3385 -2.40174e-07 0)
(-10.3291 -2.28358e-07 0)
(-10.3206 -2.48004e-07 0)
(-10.3097 -2.10503e-07 0)
(-10.3042 -2.67375e-07 0)
(-10.2886 -1.74497e-07 0)
(-10.2909 -2.42772e-07 0)
(-10.2691 -2.85616e-07 0)
)
;
    }
    symmetry
    {
        type            symmetryPlane;
    }
    frontAndBack
    {
        type            empty;
    }
}


// ************************************************************************* //
