/*--------------------------------*- C++ -*----------------------------------*\
| =========                 |                                                 |
| \\      /  F ield         | OpenFOAM: The Open Source CFD Toolbox           |
|  \\    /   O peration     | Version:  v2012                                 |
|   \\  /    A nd           | Website:  www.openfoam.com                      |
|    \\/     M anipulation  |                                                 |
\*---------------------------------------------------------------------------*/
FoamFile
{
    version     2.0;
    format      ascii;
    class       volVectorField;
    location    "3.5";
    object      wallShearStress;
}
// * * * * * * * * * * * * * * * * * * * * * * * * * * * * * * * * * * * * * //

dimensions      [0 2 -2 0 0 0 0];


internalField   uniform (0 0 0);

boundaryField
{
    inlet
    {
        type            calculated;
        value           uniform (0 0 0);
    }
    outlet
    {
        type            calculated;
        value           uniform (0 0 0);
    }
    topWall
    {
        type            calculated;
        value           nonuniform List<vector> 
545
(
(5.29088e-09 -3.69823e-09 0)
(5.31857e-09 -1.05126e-08 0)
(5.22893e-09 -1.74251e-08 0)
(5.19274e-09 -2.40959e-08 0)
(5.16752e-09 -3.04494e-08 0)
(5.14326e-09 -3.65751e-08 0)
(5.11739e-09 -4.25302e-08 0)
(5.08946e-09 -4.83146e-08 0)
(5.05945e-09 -5.39145e-08 0)
(5.02762e-09 -5.93294e-08 0)
(4.99406e-09 -6.4565e-08 0)
(4.95901e-09 -6.96289e-08 0)
(4.92255e-09 -7.45238e-08 0)
(4.88492e-09 -7.92546e-08 0)
(4.8462e-09 -8.38238e-08 0)
(4.80659e-09 -8.82375e-08 0)
(4.76616e-09 -9.24982e-08 0)
(4.7251e-09 -9.66121e-08 0)
(4.68344e-09 -1.00582e-07 0)
(4.64137e-09 -1.04413e-07 0)
(4.5989e-09 -1.08109e-07 0)
(4.5562e-09 -1.11675e-07 0)
(4.51327e-09 -1.15113e-07 0)
(4.47026e-09 -1.1843e-07 0)
(4.42717e-09 -1.21628e-07 0)
(4.38412e-09 -1.24712e-07 0)
(4.3411e-09 -1.27684e-07 0)
(4.29822e-09 -1.3055e-07 0)
(4.25548e-09 -1.33313e-07 0)
(4.21296e-09 -1.35976e-07 0)
(4.17064e-09 -1.38543e-07 0)
(4.12861e-09 -1.41017e-07 0)
(4.08685e-09 -1.43401e-07 0)
(4.04542e-09 -1.45699e-07 0)
(4.00431e-09 -1.47914e-07 0)
(3.96357e-09 -1.50048e-07 0)
(3.92317e-09 -1.52105e-07 0)
(3.88318e-09 -1.54087e-07 0)
(3.84355e-09 -1.55997e-07 0)
(3.80433e-09 -1.57839e-07 0)
(3.76549e-09 -1.59612e-07 0)
(3.72707e-09 -1.61322e-07 0)
(3.68904e-09 -1.62969e-07 0)
(3.65142e-09 -1.64557e-07 0)
(3.6142e-09 -1.66087e-07 0)
(3.57738e-09 -1.67562e-07 0)
(3.54095e-09 -1.68983e-07 0)
(3.50491e-09 -1.70352e-07 0)
(3.46924e-09 -1.71672e-07 0)
(3.43395e-09 -1.72944e-07 0)
(3.39902e-09 -1.7417e-07 0)
(3.36445e-09 -1.75351e-07 0)
(3.33022e-09 -1.76489e-07 0)
(3.29632e-09 -1.77586e-07 0)
(3.26275e-09 -1.78644e-07 0)
(3.22948e-09 -1.79662e-07 0)
(3.1965e-09 -1.80644e-07 0)
(3.16381e-09 -1.8159e-07 0)
(3.13139e-09 -1.82502e-07 0)
(3.09921e-09 -1.83381e-07 0)
(3.06728e-09 -1.84228e-07 0)
(3.03557e-09 -1.85043e-07 0)
(3.00407e-09 -1.8583e-07 0)
(2.97276e-09 -1.86587e-07 0)
(2.94163e-09 -1.87317e-07 0)
(2.91065e-09 -1.8802e-07 0)
(2.87983e-09 -1.88697e-07 0)
(2.8491e-09 -1.89349e-07 0)
(2.81859e-09 -1.89979e-07 0)
(2.78773e-09 -1.90579e-07 0)
(2.75884e-09 -1.91184e-07 0)
(2.72187e-09 -1.91703e-07 0)
(2.68789e-09 -1.9223e-07 0)
(2.6678e-09 -1.92804e-07 0)
(2.6481e-09 -1.93287e-07 0)
(2.62853e-09 -1.93767e-07 0)
(2.60901e-09 -1.94261e-07 0)
(2.58953e-09 -1.94754e-07 0)
(2.57008e-09 -1.95237e-07 0)
(2.55067e-09 -1.95712e-07 0)
(2.53128e-09 -1.96181e-07 0)
(2.51193e-09 -1.96645e-07 0)
(2.4926e-09 -1.97104e-07 0)
(2.47331e-09 -1.97557e-07 0)
(2.45406e-09 -1.98004e-07 0)
(2.43483e-09 -1.98446e-07 0)
(2.41564e-09 -1.98882e-07 0)
(2.39649e-09 -1.99313e-07 0)
(2.37737e-09 -1.99739e-07 0)
(2.35828e-09 -2.00158e-07 0)
(2.33926e-09 -2.00575e-07 0)
(2.32009e-09 -2.0098e-07 0)
(2.30179e-09 -2.014e-07 0)
(2.27995e-09 -2.01758e-07 0)
(2.27333e-09 -2.02348e-07 0)
(2.2022e-09 -2.02465e-07 0)
(2.11076e-09 -2.02646e-07 0)
(2.08922e-09 -2.03348e-07 0)
(2.0749e-09 -2.03591e-07 0)
(2.06234e-09 -2.03769e-07 0)
(2.05018e-09 -2.04037e-07 0)
(2.03809e-09 -2.0435e-07 0)
(2.02598e-09 -2.04653e-07 0)
(2.01384e-09 -2.04938e-07 0)
(2.00167e-09 -2.05218e-07 0)
(1.98947e-09 -2.05502e-07 0)
(1.97724e-09 -2.05786e-07 0)
(1.96497e-09 -2.06069e-07 0)
(1.95268e-09 -2.0635e-07 0)
(1.94035e-09 -2.0663e-07 0)
(1.92799e-09 -2.06909e-07 0)
(1.91559e-09 -2.07187e-07 0)
(1.90317e-09 -2.07463e-07 0)
(1.89071e-09 -2.07739e-07 0)
(1.87822e-09 -2.08013e-07 0)
(1.86571e-09 -2.08286e-07 0)
(1.85315e-09 -2.08558e-07 0)
(1.84057e-09 -2.08829e-07 0)
(1.82796e-09 -2.09099e-07 0)
(1.81531e-09 -2.09367e-07 0)
(1.80263e-09 -2.09634e-07 0)
(1.78993e-09 -2.099e-07 0)
(1.77719e-09 -2.10164e-07 0)
(1.76442e-09 -2.10428e-07 0)
(1.75162e-09 -2.1069e-07 0)
(1.73879e-09 -2.10951e-07 0)
(1.72593e-09 -2.1121e-07 0)
(1.71304e-09 -2.11468e-07 0)
(1.70012e-09 -2.11725e-07 0)
(1.68717e-09 -2.1198e-07 0)
(1.67419e-09 -2.12234e-07 0)
(1.66118e-09 -2.12487e-07 0)
(1.64814e-09 -2.12738e-07 0)
(1.63508e-09 -2.12988e-07 0)
(1.62198e-09 -2.13236e-07 0)
(1.60885e-09 -2.13483e-07 0)
(1.5957e-09 -2.13729e-07 0)
(1.58252e-09 -2.13973e-07 0)
(1.56931e-09 -2.14216e-07 0)
(1.55607e-09 -2.14457e-07 0)
(1.5428e-09 -2.14697e-07 0)
(1.5295e-09 -2.14935e-07 0)
(1.51618e-09 -2.15172e-07 0)
(1.50283e-09 -2.15407e-07 0)
(1.48945e-09 -2.1564e-07 0)
(1.47605e-09 -2.15872e-07 0)
(1.46262e-09 -2.16103e-07 0)
(1.44916e-09 -2.16332e-07 0)
(1.43567e-09 -2.16559e-07 0)
(1.42216e-09 -2.16785e-07 0)
(1.40863e-09 -2.17009e-07 0)
(1.39506e-09 -2.17232e-07 0)
(1.38148e-09 -2.17453e-07 0)
(1.36786e-09 -2.17672e-07 0)
(1.35422e-09 -2.1789e-07 0)
(1.34056e-09 -2.18105e-07 0)
(1.32687e-09 -2.1832e-07 0)
(1.31316e-09 -2.18532e-07 0)
(1.29942e-09 -2.18743e-07 0)
(1.28566e-09 -2.18952e-07 0)
(1.27188e-09 -2.19159e-07 0)
(1.25807e-09 -2.19365e-07 0)
(1.24424e-09 -2.19569e-07 0)
(1.23038e-09 -2.1977e-07 0)
(1.21651e-09 -2.19971e-07 0)
(1.20261e-09 -2.20169e-07 0)
(1.18869e-09 -2.20366e-07 0)
(1.17474e-09 -2.2056e-07 0)
(1.16078e-09 -2.20753e-07 0)
(1.14679e-09 -2.20944e-07 0)
(1.13279e-09 -2.21134e-07 0)
(1.11876e-09 -2.21321e-07 0)
(1.10471e-09 -2.21506e-07 0)
(1.09065e-09 -2.21689e-07 0)
(1.07656e-09 -2.21871e-07 0)
(1.06245e-09 -2.2205e-07 0)
(1.04832e-09 -2.22228e-07 0)
(1.03418e-09 -2.22403e-07 0)
(1.02002e-09 -2.22577e-07 0)
(1.00583e-09 -2.22749e-07 0)
(9.91632e-10 -2.22918e-07 0)
(9.77413e-10 -2.23086e-07 0)
(9.63178e-10 -2.23252e-07 0)
(9.48925e-10 -2.23415e-07 0)
(9.34656e-10 -2.23576e-07 0)
(9.2037e-10 -2.23736e-07 0)
(9.06068e-10 -2.23893e-07 0)
(8.91751e-10 -2.24048e-07 0)
(8.77418e-10 -2.24201e-07 0)
(8.6307e-10 -2.24352e-07 0)
(8.48707e-10 -2.24501e-07 0)
(8.3433e-10 -2.24647e-07 0)
(8.19939e-10 -2.24792e-07 0)
(8.05535e-10 -2.24934e-07 0)
(7.91117e-10 -2.25074e-07 0)
(7.76686e-10 -2.25212e-07 0)
(7.62243e-10 -2.25347e-07 0)
(7.47787e-10 -2.25481e-07 0)
(7.3332e-10 -2.25612e-07 0)
(7.18841e-10 -2.2574e-07 0)
(7.04351e-10 -2.25867e-07 0)
(6.89851e-10 -2.25991e-07 0)
(6.7534e-10 -2.26113e-07 0)
(6.6082e-10 -2.26233e-07 0)
(6.46289e-10 -2.2635e-07 0)
(6.31751e-10 -2.26465e-07 0)
(6.17202e-10 -2.26577e-07 0)
(6.02647e-10 -2.26687e-07 0)
(5.88082e-10 -2.26795e-07 0)
(5.73511e-10 -2.26901e-07 0)
(5.58932e-10 -2.27003e-07 0)
(5.44348e-10 -2.27104e-07 0)
(5.29756e-10 -2.27202e-07 0)
(5.1516e-10 -2.27298e-07 0)
(5.00557e-10 -2.27391e-07 0)
(4.8595e-10 -2.27482e-07 0)
(4.71338e-10 -2.2757e-07 0)
(4.56722e-10 -2.27657e-07 0)
(4.42102e-10 -2.2774e-07 0)
(4.2748e-10 -2.27821e-07 0)
(4.12855e-10 -2.27899e-07 0)
(3.98228e-10 -2.27975e-07 0)
(3.83598e-10 -2.28049e-07 0)
(3.68968e-10 -2.2812e-07 0)
(3.54336e-10 -2.28188e-07 0)
(3.39705e-10 -2.28255e-07 0)
(3.25072e-10 -2.28318e-07 0)
(3.10441e-10 -2.28379e-07 0)
(2.95811e-10 -2.28438e-07 0)
(2.81182e-10 -2.28494e-07 0)
(2.66554e-10 -2.28547e-07 0)
(2.51929e-10 -2.28598e-07 0)
(2.37307e-10 -2.28646e-07 0)
(2.22688e-10 -2.28693e-07 0)
(2.08073e-10 -2.28736e-07 0)
(1.93462e-10 -2.28777e-07 0)
(1.78855e-10 -2.28815e-07 0)
(1.64253e-10 -2.28851e-07 0)
(1.49657e-10 -2.28884e-07 0)
(1.35067e-10 -2.28914e-07 0)
(1.20483e-10 -2.28942e-07 0)
(1.05907e-10 -2.28967e-07 0)
(9.13375e-11 -2.2899e-07 0)
(7.6776e-11 -2.2901e-07 0)
(6.22229e-11 -2.29027e-07 0)
(4.76787e-11 -2.29042e-07 0)
(3.31438e-11 -2.29054e-07 0)
(1.86187e-11 -2.29063e-07 0)
(4.10401e-12 -2.29069e-07 0)
(-1.03999e-11 -2.29073e-07 0)
(-2.48924e-11 -2.29073e-07 0)
(-3.93729e-11 -2.29071e-07 0)
(-5.3841e-11 -2.29066e-07 0)
(-6.82961e-11 -2.29058e-07 0)
(-8.27375e-11 -2.29046e-07 0)
(-9.71647e-11 -2.29032e-07 0)
(-1.11577e-10 -2.29014e-07 0)
(-1.25974e-10 -2.28993e-07 0)
(-1.40355e-10 -2.28968e-07 0)
(-1.54719e-10 -2.2894e-07 0)
(-1.69065e-10 -2.28909e-07 0)
(-1.83393e-10 -2.28874e-07 0)
(-1.97706e-10 -2.28835e-07 0)
(-2.11978e-10 -2.28794e-07 0)
(-2.26325e-10 -2.28744e-07 0)
(-2.40243e-10 -2.28708e-07 0)
(-2.55873e-10 -2.28616e-07 0)
(-2.64109e-10 -2.28738e-07 0)
(-3.03621e-10 -2.28435e-07 0)
(-3.5533e-10 -2.28206e-07 0)
(-3.72308e-10 -2.28497e-07 0)
(-3.81915e-10 -2.28395e-07 0)
(-3.89874e-10 -2.28211e-07 0)
(-3.97554e-10 -2.28099e-07 0)
(-4.05285e-10 -2.28028e-07 0)
(-4.13148e-10 -2.27949e-07 0)
(-4.21154e-10 -2.27852e-07 0)
(-4.29304e-10 -2.27748e-07 0)
(-4.37597e-10 -2.27642e-07 0)
(-4.46036e-10 -2.27536e-07 0)
(-4.54615e-10 -2.27424e-07 0)
(-4.63336e-10 -2.27309e-07 0)
(-4.72196e-10 -2.27189e-07 0)
(-4.81196e-10 -2.27066e-07 0)
(-4.9033e-10 -2.26939e-07 0)
(-4.99602e-10 -2.26808e-07 0)
(-5.09006e-10 -2.26673e-07 0)
(-5.18543e-10 -2.26534e-07 0)
(-5.28211e-10 -2.26391e-07 0)
(-5.38009e-10 -2.26244e-07 0)
(-5.47933e-10 -2.26092e-07 0)
(-5.57985e-10 -2.25937e-07 0)
(-5.6816e-10 -2.25778e-07 0)
(-5.7846e-10 -2.25614e-07 0)
(-5.88879e-10 -2.25446e-07 0)
(-5.99419e-10 -2.25275e-07 0)
(-6.10075e-10 -2.25098e-07 0)
(-6.20849e-10 -2.24918e-07 0)
(-6.31735e-10 -2.24732e-07 0)
(-6.42735e-10 -2.24543e-07 0)
(-6.53843e-10 -2.24349e-07 0)
(-6.65061e-10 -2.24151e-07 0)
(-6.76383e-10 -2.23948e-07 0)
(-6.8781e-10 -2.2374e-07 0)
(-6.99337e-10 -2.23527e-07 0)
(-7.10965e-10 -2.2331e-07 0)
(-7.22688e-10 -2.23088e-07 0)
(-7.34507e-10 -2.2286e-07 0)
(-7.46416e-10 -2.22628e-07 0)
(-7.58416e-10 -2.2239e-07 0)
(-7.70502e-10 -2.22147e-07 0)
(-7.82671e-10 -2.21899e-07 0)
(-7.94922e-10 -2.21645e-07 0)
(-8.07251e-10 -2.21385e-07 0)
(-8.19656e-10 -2.2112e-07 0)
(-8.32132e-10 -2.20848e-07 0)
(-8.44679e-10 -2.20571e-07 0)
(-8.5729e-10 -2.20287e-07 0)
(-8.69964e-10 -2.19997e-07 0)
(-8.82698e-10 -2.197e-07 0)
(-8.95487e-10 -2.19397e-07 0)
(-9.08328e-10 -2.19087e-07 0)
(-9.21218e-10 -2.18771e-07 0)
(-9.34153e-10 -2.18447e-07 0)
(-9.47128e-10 -2.18116e-07 0)
(-9.60141e-10 -2.17777e-07 0)
(-9.73186e-10 -2.17431e-07 0)
(-9.86261e-10 -2.17078e-07 0)
(-9.99359e-10 -2.16716e-07 0)
(-1.01248e-09 -2.16347e-07 0)
(-1.02561e-09 -2.15969e-07 0)
(-1.03876e-09 -2.15583e-07 0)
(-1.05191e-09 -2.15188e-07 0)
(-1.06507e-09 -2.14785e-07 0)
(-1.07822e-09 -2.14373e-07 0)
(-1.09136e-09 -2.13952e-07 0)
(-1.10449e-09 -2.13522e-07 0)
(-1.1176e-09 -2.13082e-07 0)
(-1.13069e-09 -2.12633e-07 0)
(-1.14375e-09 -2.12174e-07 0)
(-1.15678e-09 -2.11705e-07 0)
(-1.16977e-09 -2.11227e-07 0)
(-1.18271e-09 -2.10738e-07 0)
(-1.1956e-09 -2.10238e-07 0)
(-1.20843e-09 -2.09729e-07 0)
(-1.22121e-09 -2.09208e-07 0)
(-1.23391e-09 -2.08677e-07 0)
(-1.24654e-09 -2.08135e-07 0)
(-1.25909e-09 -2.07581e-07 0)
(-1.27155e-09 -2.07016e-07 0)
(-1.28392e-09 -2.0644e-07 0)
(-1.29619e-09 -2.05853e-07 0)
(-1.30836e-09 -2.05253e-07 0)
(-1.32041e-09 -2.04642e-07 0)
(-1.33234e-09 -2.04019e-07 0)
(-1.34415e-09 -2.03383e-07 0)
(-1.35583e-09 -2.02735e-07 0)
(-1.36736e-09 -2.02075e-07 0)
(-1.37875e-09 -2.01403e-07 0)
(-1.38999e-09 -2.00717e-07 0)
(-1.40107e-09 -2.00019e-07 0)
(-1.41198e-09 -1.99308e-07 0)
(-1.42272e-09 -1.98584e-07 0)
(-1.43328e-09 -1.97846e-07 0)
(-1.44365e-09 -1.97096e-07 0)
(-1.45382e-09 -1.96332e-07 0)
(-1.46379e-09 -1.95554e-07 0)
(-1.47355e-09 -1.94763e-07 0)
(-1.48309e-09 -1.93959e-07 0)
(-1.49241e-09 -1.9314e-07 0)
(-1.5015e-09 -1.92308e-07 0)
(-1.51035e-09 -1.91461e-07 0)
(-1.51895e-09 -1.90601e-07 0)
(-1.5273e-09 -1.89727e-07 0)
(-1.53539e-09 -1.88838e-07 0)
(-1.54321e-09 -1.87935e-07 0)
(-1.55076e-09 -1.87018e-07 0)
(-1.55802e-09 -1.86087e-07 0)
(-1.565e-09 -1.85141e-07 0)
(-1.57168e-09 -1.84181e-07 0)
(-1.57805e-09 -1.83207e-07 0)
(-1.58412e-09 -1.82219e-07 0)
(-1.58987e-09 -1.81215e-07 0)
(-1.5953e-09 -1.80198e-07 0)
(-1.6004e-09 -1.79166e-07 0)
(-1.60516e-09 -1.7812e-07 0)
(-1.60958e-09 -1.7706e-07 0)
(-1.61365e-09 -1.75985e-07 0)
(-1.61738e-09 -1.74897e-07 0)
(-1.62074e-09 -1.73794e-07 0)
(-1.62374e-09 -1.72677e-07 0)
(-1.62636e-09 -1.71545e-07 0)
(-1.62862e-09 -1.70401e-07 0)
(-1.63049e-09 -1.69241e-07 0)
(-1.63198e-09 -1.68069e-07 0)
(-1.63308e-09 -1.66883e-07 0)
(-1.63379e-09 -1.65683e-07 0)
(-1.63411e-09 -1.6447e-07 0)
(-1.63402e-09 -1.63244e-07 0)
(-1.63353e-09 -1.62004e-07 0)
(-1.63264e-09 -1.60752e-07 0)
(-1.63134e-09 -1.59487e-07 0)
(-1.62963e-09 -1.5821e-07 0)
(-1.6275e-09 -1.5692e-07 0)
(-1.62496e-09 -1.55619e-07 0)
(-1.62201e-09 -1.54305e-07 0)
(-1.61863e-09 -1.5298e-07 0)
(-1.61484e-09 -1.51644e-07 0)
(-1.61063e-09 -1.50296e-07 0)
(-1.60599e-09 -1.48938e-07 0)
(-1.60094e-09 -1.47569e-07 0)
(-1.59546e-09 -1.4619e-07 0)
(-1.58957e-09 -1.448e-07 0)
(-1.58325e-09 -1.43402e-07 0)
(-1.57651e-09 -1.41993e-07 0)
(-1.56936e-09 -1.40576e-07 0)
(-1.56178e-09 -1.3915e-07 0)
(-1.55379e-09 -1.37715e-07 0)
(-1.54539e-09 -1.36272e-07 0)
(-1.53657e-09 -1.34822e-07 0)
(-1.52734e-09 -1.33365e-07 0)
(-1.51772e-09 -1.31901e-07 0)
(-1.50769e-09 -1.3043e-07 0)
(-1.49726e-09 -1.28954e-07 0)
(-1.48644e-09 -1.27473e-07 0)
(-1.47524e-09 -1.25986e-07 0)
(-1.46365e-09 -1.24495e-07 0)
(-1.45169e-09 -1.22999e-07 0)
(-1.43933e-09 -1.21497e-07 0)
(-1.42659e-09 -1.19989e-07 0)
(-1.41353e-09 -1.18481e-07 0)
(-1.40015e-09 -1.16973e-07 0)
(-1.38645e-09 -1.15464e-07 0)
(-1.37243e-09 -1.13953e-07 0)
(-1.35811e-09 -1.12443e-07 0)
(-1.3435e-09 -1.10932e-07 0)
(-1.3286e-09 -1.09422e-07 0)
(-1.31343e-09 -1.07912e-07 0)
(-1.298e-09 -1.06404e-07 0)
(-1.28231e-09 -1.04897e-07 0)
(-1.26638e-09 -1.03393e-07 0)
(-1.25022e-09 -1.01892e-07 0)
(-1.23384e-09 -1.00394e-07 0)
(-1.21726e-09 -9.88995e-08 0)
(-1.20048e-09 -9.74085e-08 0)
(-1.18351e-09 -9.59259e-08 0)
(-1.16638e-09 -9.4436e-08 0)
(-1.14907e-09 -9.29876e-08 0)
(-1.13158e-09 -9.13918e-08 0)
(-1.11402e-09 -9.00895e-08 0)
(-1.09075e-09 -8.85832e-08 0)
(-1.06452e-09 -8.65952e-08 0)
(-1.04194e-09 -8.49106e-08 0)
(-1.02039e-09 -8.33059e-08 0)
(-9.99256e-10 -8.1687e-08 0)
(-9.78376e-10 -8.00742e-08 0)
(-9.57711e-10 -7.8499e-08 0)
(-9.37268e-10 -7.69666e-08 0)
(-9.1706e-10 -7.54693e-08 0)
(-8.97098e-10 -7.40027e-08 0)
(-8.77391e-10 -7.2567e-08 0)
(-8.57946e-10 -7.11631e-08 0)
(-8.38771e-10 -6.97908e-08 0)
(-8.19873e-10 -6.84494e-08 0)
(-8.01256e-10 -6.71383e-08 0)
(-7.82926e-10 -6.5857e-08 0)
(-7.64886e-10 -6.46052e-08 0)
(-7.47138e-10 -6.33823e-08 0)
(-7.29684e-10 -6.21878e-08 0)
(-7.12525e-10 -6.10213e-08 0)
(-6.95662e-10 -5.98823e-08 0)
(-6.79095e-10 -5.87703e-08 0)
(-6.62822e-10 -5.76849e-08 0)
(-6.46828e-10 -5.66243e-08 0)
(-6.3112e-10 -5.55888e-08 0)
(-6.15711e-10 -5.45794e-08 0)
(-6.00595e-10 -5.35952e-08 0)
(-5.85764e-10 -5.26354e-08 0)
(-5.71216e-10 -5.16996e-08 0)
(-5.56942e-10 -5.07872e-08 0)
(-5.42942e-10 -4.98976e-08 0)
(-5.29209e-10 -4.90305e-08 0)
(-5.1574e-10 -4.81854e-08 0)
(-5.02531e-10 -4.73619e-08 0)
(-4.89576e-10 -4.65595e-08 0)
(-4.76873e-10 -4.57779e-08 0)
(-4.64417e-10 -4.50167e-08 0)
(-4.52204e-10 -4.42755e-08 0)
(-4.40229e-10 -4.35538e-08 0)
(-4.28488e-10 -4.28514e-08 0)
(-4.16977e-10 -4.21678e-08 0)
(-4.05691e-10 -4.15027e-08 0)
(-3.94627e-10 -4.08557e-08 0)
(-3.83779e-10 -4.02264e-08 0)
(-3.73143e-10 -3.96145e-08 0)
(-3.62716e-10 -3.90197e-08 0)
(-3.52491e-10 -3.84414e-08 0)
(-3.42466e-10 -3.78797e-08 0)
(-3.32636e-10 -3.73339e-08 0)
(-3.22995e-10 -3.68038e-08 0)
(-3.1354e-10 -3.62892e-08 0)
(-3.04266e-10 -3.57896e-08 0)
(-2.95168e-10 -3.53049e-08 0)
(-2.86243e-10 -3.48348e-08 0)
(-2.77485e-10 -3.43789e-08 0)
(-2.6889e-10 -3.3937e-08 0)
(-2.60452e-10 -3.35089e-08 0)
(-2.52169e-10 -3.30943e-08 0)
(-2.44034e-10 -3.26929e-08 0)
(-2.36045e-10 -3.23046e-08 0)
(-2.28196e-10 -3.19291e-08 0)
(-2.20483e-10 -3.15663e-08 0)
(-2.12902e-10 -3.12158e-08 0)
(-2.05445e-10 -3.08771e-08 0)
(-1.98109e-10 -3.05501e-08 0)
(-1.90895e-10 -3.02353e-08 0)
(-1.83795e-10 -2.99321e-08 0)
(-1.76807e-10 -2.96405e-08 0)
(-1.69924e-10 -2.93601e-08 0)
(-1.63144e-10 -2.90908e-08 0)
(-1.56461e-10 -2.88324e-08 0)
(-1.49872e-10 -2.85848e-08 0)
(-1.43372e-10 -2.83476e-08 0)
(-1.36957e-10 -2.8121e-08 0)
(-1.30622e-10 -2.79046e-08 0)
(-1.24364e-10 -2.76984e-08 0)
(-1.18177e-10 -2.75022e-08 0)
(-1.12058e-10 -2.7316e-08 0)
(-1.06e-10 -2.71395e-08 0)
(-1.00001e-10 -2.69728e-08 0)
(-9.40538e-11 -2.68156e-08 0)
(-8.81556e-11 -2.66681e-08 0)
(-8.23017e-11 -2.653e-08 0)
(-7.64896e-11 -2.64013e-08 0)
(-7.07175e-11 -2.6282e-08 0)
(-6.49868e-11 -2.61721e-08 0)
(-5.93012e-11 -2.60708e-08 0)
(-5.36718e-11 -2.59808e-08 0)
(-4.81019e-11 -2.58922e-08 0)
(-4.26425e-11 -2.58375e-08 0)
(-3.71638e-11 -2.57062e-08 0)
(-3.2162e-11 -2.58571e-08 0)
(-2.55382e-11 -2.50395e-08 0)
(-2.52622e-11 -2.7052e-08 0)
(-1.47003e-11 -2.35931e-08 0)
)
;
    }
    bottomWall
    {
        type            calculated;
        value           nonuniform List<vector> 
449
(
(-55.3898 -0.9624 0)
(-36.6311 -0.00301906 0)
(-35.4708 -0.000400074 0)
(-33.9277 -0.00043677 0)
(-32.4958 -0.000384772 0)
(-31.3051 -0.000310984 0)
(-30.3794 -0.000242526 0)
(-29.6521 -0.000195374 0)
(-29.0438 -0.000159469 0)
(-28.5611 -0.000129164 0)
(-28.1608 -0.000106229 0)
(-27.8349 -8.70889e-05 0)
(-27.5641 -7.75569e-05 0)
(-27.3002 -6.97214e-05 0)
(-27.0846 -5.54083e-05 0)
(-26.922 -4.68066e-05 0)
(-26.764 -4.18859e-05 0)
(-26.6353 -3.20352e-05 0)
(-26.5459 -2.99183e-05 0)
(-26.4292 -2.84183e-05 0)
(-26.3495 -2.37832e-05 0)
(-26.265 -2.08738e-05 0)
(-26.2059 -1.60834e-05 0)
(-26.1544 -1.77495e-05 0)
(-26.0808 -2.23081e-05 0)
(-25.9969 -1.9188e-05 0)
(-25.9471 -1.40729e-05 0)
(-25.8998 -1.10202e-05 0)
(-25.8713 -7.81753e-06 0)
(-25.8455 -1.03012e-05 0)
(-25.798 -1.32558e-05 0)
(-25.752 -1.02402e-05 0)
(-25.7275 -6.2838e-06 0)
(-25.7102 -4.30871e-06 0)
(-25.699 -4.70522e-06 0)
(-25.6772 -6.68288e-06 0)
(-25.6517 -5.55445e-06 0)
(-25.6386 -4.61997e-06 0)
(-25.6184 -7.90999e-06 0)
(-25.5806 -8.15857e-06 0)
(-25.5594 -5.35807e-06 0)
(-25.5426 -4.52455e-06 0)
(-25.5273 -4.39535e-06 0)
(-25.5112 -4.29554e-06 0)
(-25.4972 -2.51582e-06 0)
(-25.4944 -9.73902e-07 0)
(-25.492 -9.77724e-07 0)
(-25.4891 -1.11771e-06 0)
(-25.4843 -2.80446e-06 0)
(-25.4678 -3.49367e-06 0)
(-25.4587 -1.26629e-06 0)
(-25.46 -6.71548e-07 0)
(-25.4544 -3.1325e-06 0)
(-25.4361 -3.94199e-06 0)
(-25.4252 -2.76268e-06 0)
(-25.4165 -1.98972e-06 0)
(-25.4108 -1.72728e-06 0)
(-25.403 -2.41127e-06 0)
(-25.3916 -2.8345e-06 0)
(-25.3814 -1.74633e-06 0)
(-25.3791 -6.82178e-07 0)
(-25.3776 -8.27437e-07 0)
(-25.3741 -5.91679e-07 0)
(-25.3739 3.12228e-07 0)
(-25.3774 5.66069e-07 0)
(-25.3785 -8.34139e-07 0)
(-25.3701 -2.65978e-06 0)
(-25.3572 -2.46936e-06 0)
(-25.3513 -9.75942e-07 0)
(-25.3503 -1.09977e-06 0)
(-25.3424 -3.25696e-06 0)
(-25.3239 -3.41283e-06 0)
(-25.3158 -1.26077e-06 0)
(-25.3149 -3.68835e-07 0)
(-25.3137 -6.71386e-08 0)
(-25.315 5.56426e-07 0)
(-25.3189 1.12197e-06 0)
(-25.3249 1.41323e-06 0)
(-25.3305 1.17787e-08 0)
(-25.3243 -2.3922e-06 0)
(-25.3106 -1.86445e-06 0)
(-25.3096 1.24686e-06 0)
(-25.3221 1.55781e-06 0)
(-25.323 -3.66698e-07 0)
(-25.3183 -1.95371e-06 0)
(-25.3061 -2.57559e-06 0)
(-25.2975 -7.3519e-07 0)
(-25.3018 2.13734e-06 0)
(-25.3169 2.1977e-06 0)
(-25.3205 3.34905e-07 0)
(-25.3192 5.28557e-09 0)
(-25.3202 6.54563e-07 0)
(-25.3246 6.71845e-07 0)
(-25.3255 -7.30508e-07 0)
(-25.3177 -1.95862e-06 0)
(-25.3086 -1.10427e-06 0)
(-25.3091 1.15601e-06 0)
(-25.3194 1.11201e-06 0)
(-25.3185 -1.93845e-07 0)
(-25.3177 6.76638e-07 0)
(-25.3254 1.12334e-06 0)
(-25.3279 3.85165e-07 0)
(-25.3284 8.78441e-09 0)
(-25.3275 -4.81428e-07 0)
(-25.3237 -1.6232e-06 0)
(-25.3127 -2.63157e-06 0)
(-25.3002 -2.45945e-06 0)
(-25.2917 -1.07702e-06 0)
(-25.2916 4.23914e-08 0)
(-25.2925 3.81565e-07 0)
(-25.2954 1.47476e-06 0)
(-25.3063 2.01123e-06 0)
(-25.3137 8.48964e-07 0)
(-25.3136 -1.21298e-06 0)
(-25.302 -1.83292e-06 0)
(-25.2969 -5.30152e-07 0)
(-25.298 -5.4666e-08 0)
(-25.2965 -1.24367e-06 0)
(-25.286 -1.60074e-06 0)
(-25.2821 -1.32631e-07 0)
(-25.2856 3.5519e-07 0)
(-25.2851 -5.2445e-07 0)
(-25.2802 -2.55916e-07 0)
(-25.2827 7.62573e-07 0)
(-25.2874 2.67493e-07 0)
(-25.2854 -3.40599e-07 0)
(-25.2844 -7.87763e-07 0)
(-25.2781 -1.42339e-06 0)
(-25.2715 -7.12177e-07 0)
(-25.2731 8.33649e-07 0)
(-25.2811 1.05282e-06 0)
(-25.2833 1.28354e-07 0)
(-25.2819 7.35445e-09 0)
(-25.2835 1.32087e-06 0)
(-25.2949 1.22596e-06 0)
(-25.2949 -9.65975e-08 0)
(-25.2934 -4.09799e-07 0)
(-25.2907 -3.70965e-07 0)
(-25.2898 1.32448e-07 0)
(-25.2917 -2.86952e-07 0)
(-25.2861 -1.01119e-06 0)
(-25.2814 -9.74154e-07 0)
(-25.277 -7.54514e-07 0)
(-25.2748 -1.24107e-07 0)
(-25.2765 1.1862e-07 0)
(-25.2763 1.63157e-07 0)
(-25.2784 2.59589e-07 0)
(-25.2787 -6.21081e-07 0)
(-25.2719 -8.45472e-07 0)
(-25.2707 1.82164e-07 0)
(-25.2749 1.06342e-06 0)
(-25.2825 1.68742e-06 0)
(-25.2917 9.73767e-07 0)
(-25.2915 1.16554e-07 0)
(-25.2927 9.98302e-07 0)
(-25.3017 8.6766e-07 0)
(-25.301 -1.97345e-08 0)
(-25.3009 -2.46972e-07 0)
(-25.2981 -9.2883e-07 0)
(-25.2911 -1.11286e-06 0)
(-25.2869 -4.71002e-07 0)
(-25.2868 6.80335e-07 0)
(-25.294 5.39359e-07 0)
(-25.2918 -6.6885e-07 0)
(-25.2871 -1.74716e-07 0)
(-25.2904 2.08177e-07 0)
(-25.2891 -5.21187e-07 0)
(-25.2849 -8.65355e-07 0)
(-25.2803 -5.80625e-07 0)
(-25.279 -5.50951e-07 0)
(-25.2743 -1.05286e-06 0)
(-25.2679 -4.80823e-07 0)
(-25.2702 1.08645e-06 0)
(-25.2796 1.23065e-06 0)
(-25.2819 -6.40654e-07 0)
(-25.2728 -1.44118e-06 0)
(-25.2683 -5.51249e-07 0)
(-25.268 3.15116e-07 0)
(-25.2718 7.97947e-07 0)
(-25.2761 3.07827e-07 0)
(-25.2747 -6.8943e-07 0)
(-25.2692 -1.18867e-07 0)
(-25.274 1.6129e-06 0)
(-25.2855 8.2297e-07 0)
(-25.2815 -7.48096e-07 0)
(-25.2777 -5.75148e-07 0)
(-25.2763 -3.24694e-07 0)
(-25.2747 4.32622e-07 0)
(-25.2813 1.14835e-06 0)
(-25.2872 2.9773e-07 0)
(-25.2838 -5.62495e-07 0)
(-25.2804 1.2434e-07 0)
(-25.2853 5.31228e-07 0)
(-25.2864 -2.12231e-07 0)
(-25.2824 -1.26702e-06 0)
(-25.2713 -1.40621e-06 0)
(-25.2664 -1.52039e-07 0)
(-25.2704 5.28769e-07 0)
(-25.2732 5.5091e-07 0)
(-25.2778 5.15634e-07 0)
(-25.28 2.90929e-07 0)
(-25.2813 3.62692e-07 0)
(-25.2844 2.35429e-07 0)
(-25.2838 -8.1337e-07 0)
(-25.2734 -1.0548e-06 0)
(-25.2706 3.47397e-07 0)
(-25.2795 1.34173e-06 0)
(-25.2891 1.1453e-06 0)
(-25.2943 1.36415e-06 0)
(-25.3069 1.10064e-06 0)
(-25.3082 -1.99512e-07 0)
(-25.3032 -3.9207e-07 0)
(-25.3027 -3.77797e-08 0)
(-25.3026 1.67665e-07 0)
(-25.3052 6.5878e-07 0)
(-25.3123 2.37011e-07 0)
(-25.3082 -3.84459e-07 0)
(-25.3067 1.34694e-07 0)
(-25.3109 -7.78828e-08 0)
(-25.3055 -6.2197e-07 0)
(-25.3014 -1.51933e-07 0)
(-25.3038 -1.11155e-07 0)
(-25.2998 -5.06147e-07 0)
(-25.2957 -4.90682e-07 0)
(-25.2921 -1.23932e-07 0)
(-25.294 -7.51833e-08 0)
(-25.2907 -5.33204e-07 0)
(-25.2848 -5.46217e-07 0)
(-25.2814 -3.37071e-07 0)
(-25.2792 -2.77976e-07 0)
(-25.2771 -4.22948e-07 0)
(-25.2723 -5.2695e-07 0)
(-25.2687 1.02085e-07 0)
(-25.2751 1.0629e-06 0)
(-25.2876 8.92445e-07 0)
(-25.2905 1.46554e-07 0)
(-25.2899 -4.28037e-07 0)
(-25.2821 -6.7822e-07 0)
(-25.2772 -4.39552e-07 0)
(-25.2742 -8.97758e-08 0)
(-25.2758 7.12567e-07 0)
(-25.2884 6.87212e-07 0)
(-25.2887 -1.14153e-07 0)
(-25.2853 -3.85118e-07 0)
(-25.2806 -1.98539e-07 0)
(-25.2811 1.54871e-07 0)
(-25.2842 -5.54564e-09 0)
(-25.2811 -6.21849e-07 0)
(-25.2711 -3.45758e-07 0)
(-25.2748 2.39581e-07 0)
(-25.277 9.46063e-08 0)
(-25.2768 2.94667e-07 0)
(-25.2833 5.43979e-07 0)
(-25.2883 7.54817e-08 0)
(-25.2846 -5.68358e-07 0)
(-25.2754 -8.29429e-07 0)
(-25.2659 -2.42158e-07 0)
(-25.271 9.68119e-07 0)
(-25.2892 1.01083e-06 0)
(-25.2942 1.64947e-08 0)
(-25.2886 -6.80422e-07 0)
(-25.2776 -4.15984e-07 0)
(-25.2792 -6.20936e-09 0)
(-25.2778 -9.28422e-08 0)
(-25.2768 1.67082e-07 0)
(-25.2819 1.20138e-07 0)
(-25.2798 -1.77511e-07 0)
(-25.2774 -3.46577e-08 0)
(-25.279 9.85475e-08 0)
(-25.2799 1.24864e-07 0)
(-25.2821 1.73581e-07 0)
(-25.2842 -5.29299e-08 0)
(-25.2802 -3.70658e-07 0)
(-25.2742 -2.35427e-08 0)
(-25.2802 4.85513e-07 0)
(-25.288 1.72343e-07 0)
(-25.285 2.29216e-08 0)
(-25.2886 3.46216e-09 0)
(-25.2845 -3.71491e-07 0)
(-25.2775 -1.99375e-07 0)
(-25.2793 1.96076e-07 0)
(-25.2839 2.31217e-07 0)
(-25.2861 -1.63717e-08 0)
(-25.2828 -2.89643e-07 0)
(-25.2767 -2.14443e-07 0)
(-25.2762 -8.84742e-08 0)
(-25.2743 -2.76748e-07 0)
(-25.2678 4.00834e-09 0)
(-25.2751 3.97853e-07 0)
(-25.2806 5.2917e-08 0)
(-25.2762 -9.21933e-08 0)
(-25.2777 2.60148e-07 0)
(-25.2851 1.71432e-07 0)
(-25.2834 1.23075e-08 0)
(-25.2856 2.82422e-07 0)
(-25.2928 2.41761e-07 0)
(-25.2935 -1.00495e-08 0)
(-25.2924 -7.39887e-08 0)
(-25.291 -1.73704e-07 0)
(-25.2863 -7.01139e-08 0)
(-25.2887 1.56077e-07 0)
(-25.2922 -2.17992e-08 0)
(-25.2877 -6.56534e-08 0)
(-25.2896 6.02778e-08 0)
(-25.2898 -1.22631e-07 0)
(-25.2846 -1.11362e-07 0)
(-25.2856 6.63953e-09 0)
(-25.2851 -1.0178e-07 0)
(-25.282 -1.25864e-07 0)
(-25.2805 4.76913e-08 0)
(-25.284 8.38529e-08 0)
(-25.2838 -4.73651e-08 0)
(-25.2819 7.99992e-08 0)
(-25.2869 8.91977e-08 0)
(-25.2849 -1.98886e-07 0)
(-25.278 -1.29969e-07 0)
(-25.2799 -7.32541e-08 0)
(-25.2751 -1.93327e-07 0)
(-25.2716 6.26697e-08 0)
(-25.2786 1.6168e-07 0)
(-25.2791 5.7918e-08 0)
(-25.2811 2.49239e-07 0)
(-25.2901 2.98146e-07 0)
(-25.2942 -9.81885e-08 0)
(-25.2849 -2.79543e-07 0)
(-25.281 -1.45158e-07 0)
(-25.2785 -5.55105e-08 0)
(-25.2789 7.43361e-08 0)
(-25.2824 1.23656e-07 0)
(-25.2848 1.40837e-07 0)
(-25.2892 1.19548e-07 0)
(-25.2905 -3.47835e-08 0)
(-25.2868 -3.11898e-07 0)
(-25.2742 -2.74751e-07 0)
(-25.2733 1.33236e-08 0)
(-25.2756 1.40597e-07 0)
(-25.2808 5.68317e-09 0)
(-25.2755 -1.88898e-07 0)
(-25.2706 -2.68433e-08 0)
(-25.2747 2.16204e-08 0)
(-25.2722 1.56675e-08 0)
(-25.2757 1.4632e-07 0)
(-25.2801 1.51697e-07 0)
(-25.2838 1.14985e-07 0)
(-25.2865 -4.57352e-08 0)
(-25.281 -1.72015e-08 0)
(-25.2857 1.88052e-07 0)
(-25.2923 6.32029e-08 0)
(-25.2891 -1.37927e-07 0)
(-25.2837 -1.27415e-07 0)
(-25.2814 -1.37623e-07 0)
(-25.2752 -1.00714e-07 0)
(-25.2754 1.2616e-07 0)
(-25.2838 8.11475e-08 0)
(-25.2803 -3.07139e-08 0)
(-25.2815 8.99849e-08 0)
(-25.2872 4.51243e-08 0)
(-25.2847 -8.4094e-08 0)
(-25.2805 6.21084e-09 0)
(-25.2856 1.06363e-07 0)
(-25.289 3.32743e-08 0)
(-25.2881 -1.80112e-08 0)
(-25.2875 -2.55831e-08 0)
(-25.286 -4.64605e-08 0)
(-25.2838 -1.02301e-07 0)
(-25.2779 -7.9709e-08 0)
(-25.2775 -7.68514e-08 0)
(-25.2718 -6.23412e-08 0)
(-25.2728 6.0267e-08 0)
(-25.2767 6.28965e-08 0)
(-25.2776 -4.56657e-09 0)
(-25.2763 -3.20726e-08 0)
(-25.2751 4.42795e-08 0)
(-25.2799 3.09653e-08 0)
(-25.2775 -3.65745e-08 0)
(-25.2768 2.86894e-08 0)
(-25.2798 1.66026e-08 0)
(-25.2782 -1.02174e-08 0)
(-25.279 8.64061e-09 0)
(-25.2788 -8.74879e-09 0)
(-25.2783 -4.84174e-09 0)
(-25.2785 -2.81572e-10 0)
(-25.2784 2.552e-08 0)
(-25.2807 9.11132e-08 0)
(-25.2854 5.72183e-08 0)
(-25.2848 -6.32043e-08 0)
(-25.2803 -5.23613e-08 0)
(-25.2807 -6.42551e-08 0)
(-25.2751 -1.03083e-07 0)
(-25.2727 3.92485e-08 0)
(-25.2787 4.04406e-08 0)
(-25.2762 -2.86708e-08 0)
(-25.2765 1.98732e-08 0)
(-25.2776 3.06362e-08 0)
(-25.2787 4.78875e-08 0)
(-25.2812 3.4639e-08 0)
(-25.2812 -2.5155e-08 0)
(-25.2793 -2.14804e-08 0)
(-25.2796 -5.12555e-08 0)
(-25.2754 -7.55531e-08 0)
(-25.274 -2.84215e-08 0)
(-25.2733 3.25433e-08 0)
(-25.2765 -2.89641e-08 0)
(-25.2708 -1.05035e-07 0)
(-25.2683 -1.63515e-09 0)
(-25.271 8.62325e-08 0)
(-25.275 1.01423e-07 0)
(-25.2788 4.59125e-09 0)
(-25.2754 -2.59736e-08 0)
(-25.2768 8.05949e-08 0)
(-25.2816 2.81521e-08 0)
(-25.2788 -3.30398e-08 0)
(-25.279 3.70288e-08 0)
(-25.2818 2.1937e-08 0)
(-25.2807 -1.88684e-08 0)
(-25.2804 -3.44219e-08 0)
(-25.2781 1.09462e-08 0)
(-25.2813 8.65495e-08 0)
(-25.2849 1.4648e-08 0)
(-25.2821 -7.17721e-08 0)
(-25.279 -4.53881e-08 0)
(-25.2786 -5.14394e-08 0)
(-25.2749 -5.46227e-08 0)
(-25.2743 -4.61663e-08 0)
(-25.2715 -3.141e-08 0)
(-25.272 7.52185e-08 0)
(-25.2776 2.10991e-08 0)
(-25.2739 -5.84375e-08 0)
(-25.2732 9.1304e-08 0)
(-25.2811 1.15081e-07 0)
(-25.2819 -1.75518e-08 0)
(-25.2794 -1.5906e-08 0)
(-25.2806 1.97634e-09 0)
(-25.2794 1.14432e-08 0)
(-25.2813 -4.31976e-08 0)
(-25.2759 -1.10135e-07 0)
(-25.2728 2.98828e-08 0)
(-25.2786 8.18233e-08 0)
(-25.2793 1.93584e-08 0)
(-25.2801 -5.72046e-08 0)
(-25.2749 -8.0819e-08 0)
(-25.2739 -2.8403e-08 0)
(-25.2728 3.17257e-08 0)
(-25.2764 8.68982e-08 0)
(-25.2795 1.38514e-08 0)
(-25.2774 -4.7381e-08 0)
(-25.2757 -2.01792e-08 0)
(-25.2758 5.21125e-08 0)
(-25.2798 5.19154e-08 0)
)
;
    }
    symmetry
    {
        type            symmetryPlane;
    }
    frontAndBack
    {
        type            empty;
    }
}


// ************************************************************************* //
