/*--------------------------------*- C++ -*----------------------------------*\
| =========                 |                                                 |
| \\      /  F ield         | OpenFOAM: The Open Source CFD Toolbox           |
|  \\    /   O peration     | Version:  v2012                                 |
|   \\  /    A nd           | Website:  www.openfoam.com                      |
|    \\/     M anipulation  |                                                 |
\*---------------------------------------------------------------------------*/
FoamFile
{
    version     2.0;
    format      ascii;
    class       volScalarField;
    location    "3.5";
    object      yPlus;
}
// * * * * * * * * * * * * * * * * * * * * * * * * * * * * * * * * * * * * * //

dimensions      [0 0 0 0 0 0 0];


internalField   uniform 0;

boundaryField
{
    inlet
    {
        type            calculated;
        value           uniform 0;
    }
    outlet
    {
        type            calculated;
        value           uniform 0;
    }
    topWall
    {
        type            calculated;
        value           nonuniform List<scalar> 
545
(
0.0418667
0.073061
0.0934968
0.109666
0.123323
0.135249
0.145877
0.15548
0.164241
0.172297
0.179745
0.186665
0.193118
0.199156
0.204819
0.210144
0.21516
0.219895
0.224368
0.228603
0.232615
0.236421
0.240034
0.243469
0.246735
0.249844
0.252805
0.255628
0.258318
0.260887
0.263338
0.26568
0.267917
0.270056
0.2721
0.274057
0.27593
0.277722
0.279439
0.281083
0.282659
0.284169
0.285617
0.287005
0.288336
0.289614
0.29084
0.292016
0.293145
0.29423
0.295271
0.296271
0.297231
0.298154
0.29904
0.299892
0.300711
0.301497
0.302254
0.30298
0.303679
0.304351
0.304997
0.305618
0.306216
0.30679
0.307342
0.307873
0.308384
0.308875
0.309347
0.309801
0.31023
0.310642
0.311049
0.311451
0.311847
0.312238
0.312624
0.313004
0.31338
0.313751
0.314116
0.314477
0.314833
0.315184
0.315531
0.315872
0.316209
0.316542
0.31687
0.317193
0.317512
0.317827
0.318137
0.318446
0.318707
0.318937
0.319166
0.319394
0.319621
0.319847
0.320072
0.320297
0.32052
0.320742
0.320963
0.321183
0.321402
0.32162
0.321838
0.322054
0.322269
0.322483
0.322696
0.322908
0.323118
0.323328
0.323537
0.323745
0.323951
0.324157
0.324361
0.324564
0.324766
0.324967
0.325167
0.325366
0.325563
0.32576
0.325955
0.326149
0.326342
0.326534
0.326724
0.326913
0.327101
0.327288
0.327474
0.327658
0.327842
0.328024
0.328204
0.328384
0.328562
0.328739
0.328915
0.329089
0.329262
0.329433
0.329604
0.329773
0.329941
0.330107
0.330272
0.330436
0.330598
0.330759
0.330919
0.331077
0.331234
0.331389
0.331544
0.331696
0.331847
0.331997
0.332145
0.332292
0.332438
0.332581
0.332724
0.332865
0.333005
0.333142
0.333279
0.333414
0.333547
0.333679
0.33381
0.333938
0.334066
0.334191
0.334315
0.334438
0.334559
0.334678
0.334796
0.334912
0.335027
0.33514
0.335251
0.33536
0.335468
0.335575
0.335679
0.335782
0.335883
0.335983
0.33608
0.336177
0.336271
0.336364
0.336454
0.336544
0.336631
0.336717
0.3368
0.336882
0.336963
0.337041
0.337118
0.337193
0.337266
0.337337
0.337406
0.337474
0.337539
0.337604
0.337665
0.337726
0.337784
0.337841
0.337895
0.337948
0.337999
0.338048
0.338095
0.338141
0.338184
0.338226
0.338266
0.338304
0.33834
0.338374
0.338406
0.338437
0.338465
0.338492
0.338516
0.338539
0.33856
0.338579
0.338596
0.338611
0.338624
0.338635
0.338644
0.338651
0.338656
0.338658
0.338659
0.338658
0.338654
0.338648
0.33864
0.338629
0.338616
0.338601
0.338583
0.338563
0.33854
0.338514
0.338486
0.338454
0.33842
0.338384
0.338344
0.338301
0.338257
0.338203
0.338147
0.338089
0.338027
0.337964
0.337898
0.337829
0.337758
0.337684
0.337607
0.337527
0.337444
0.337359
0.337271
0.33718
0.337085
0.336988
0.336888
0.336785
0.336679
0.33657
0.336458
0.336342
0.336224
0.336103
0.335978
0.33585
0.335718
0.335584
0.335446
0.335306
0.335161
0.335013
0.334861
0.334707
0.334548
0.334386
0.334219
0.334049
0.333876
0.333698
0.333516
0.333329
0.333139
0.332944
0.332745
0.332541
0.332332
0.332119
0.3319
0.331677
0.331449
0.331215
0.330976
0.330731
0.330481
0.330225
0.329963
0.329695
0.329421
0.32914
0.328853
0.32856
0.328259
0.327952
0.327638
0.327316
0.326987
0.326651
0.326307
0.325955
0.325596
0.325228
0.324852
0.324467
0.324074
0.323672
0.323261
0.322842
0.322413
0.321974
0.321526
0.321069
0.320602
0.320124
0.319637
0.319139
0.318631
0.318113
0.317583
0.317043
0.316492
0.315929
0.315356
0.31477
0.314173
0.313564
0.312943
0.31231
0.311665
0.311007
0.310337
0.309654
0.308958
0.308249
0.307527
0.306792
0.306043
0.305281
0.304505
0.303715
0.302911
0.302093
0.301261
0.300415
0.299555
0.298679
0.29779
0.296885
0.295966
0.295032
0.294083
0.293119
0.29214
0.291145
0.290135
0.28911
0.28807
0.287014
0.285942
0.284855
0.283753
0.282635
0.281501
0.280352
0.279188
0.278008
0.276812
0.275601
0.274374
0.273132
0.271874
0.270602
0.269313
0.26801
0.266691
0.265358
0.264009
0.262645
0.261266
0.259874
0.258466
0.257044
0.255608
0.254159
0.252695
0.251218
0.249728
0.248224
0.246704
0.24517
0.243625
0.24207
0.240504
0.238926
0.237338
0.235739
0.234129
0.232509
0.230878
0.229239
0.227589
0.225931
0.224264
0.222589
0.220906
0.219216
0.217519
0.215814
0.214105
0.212387
0.21047
0.208383
0.206324
0.204287
0.202274
0.200283
0.198314
0.196369
0.194446
0.192547
0.190671
0.188818
0.186989
0.185183
0.183401
0.181643
0.179908
0.178198
0.176511
0.174848
0.173208
0.171593
0.170001
0.168431
0.166884
0.165363
0.163865
0.162392
0.160942
0.159516
0.158113
0.156733
0.155377
0.154044
0.152734
0.151446
0.150182
0.148941
0.147722
0.146526
0.145353
0.144202
0.143074
0.141968
0.140884
0.139822
0.138782
0.137764
0.136768
0.135793
0.13484
0.133909
0.132999
0.13211
0.131243
0.130396
0.129571
0.128766
0.127983
0.12722
0.126479
0.125758
0.125057
0.124377
0.123716
0.123077
0.122458
0.12186
0.121282
0.120725
0.120187
0.11967
0.119172
0.118695
0.118238
0.1178
0.117382
0.116984
0.116606
0.116247
0.115908
0.115589
0.11529
0.11501
0.11475
0.114509
0.114289
0.114087
0.113906
0.113743
0.1136
0.113476
0.113369
0.113292
0.113187
)
;
    }
    bottomWall
    {
        type            calculated;
        value           nonuniform List<scalar> 
449
(
0.00346971
0.00512776
0.00538033
0.00517322
0.00493382
0.00473677
0.00458517
0.00446541
0.00436317
0.00428155
0.0042131
0.00415763
0.00411144
0.00406531
0.00402808
0.00399982
0.0039717
0.00394961
0.00393452
0.00391374
0.00390024
0.00388525
0.00387542
0.00386664
0.00385324
0.00383839
0.00383006
0.00382179
0.0038173
0.00381308
0.00380427
0.00379614
0.00379188
0.00378893
0.0037872
0.00378312
0.00377847
0.00377641
0.00377287
0.00376586
0.00376231
0.00375962
0.0037571
0.0037541
0.00375135
0.0037509
0.00375043
0.00375019
0.00374967
0.00374646
0.00374492
0.00374552
0.00374456
0.0037411
0.00373898
0.00373738
0.00373675
0.00373578
0.00373356
0.00373167
0.00373135
0.00373113
0.00373052
0.00373056
0.00373144
0.00373179
0.00373012
0.0037275
0.00372643
0.00372634
0.00372491
0.00372131
0.00372001
0.00372001
0.00371989
0.00372027
0.00372106
0.00372254
0.00372373
0.0037224
0.0037195
0.00371926
0.00372169
0.00372197
0.00372134
0.00371897
0.00371709
0.00371806
0.00372137
0.00372198
0.00372177
0.00372194
0.00372299
0.00372328
0.00372161
0.0037196
0.00371955
0.00372149
0.00372129
0.00372105
0.00372243
0.00372283
0.00372301
0.00372312
0.00372265
0.00372061
0.00371788
0.00371599
0.00371597
0.00371608
0.00371679
0.00371908
0.00372066
0.00372087
0.00371861
0.00371753
0.0037179
0.00371787
0.00371578
0.00371498
0.00371571
0.00371544
0.00371419
0.00371458
0.0037153
0.00371499
0.00371503
0.00371388
0.00371253
0.00371271
0.00371425
0.00371468
0.00371453
0.00371489
0.00371722
0.00371714
0.00371693
0.00371649
0.00371639
0.00371691
0.0037159
0.0037148
0.00371384
0.00371344
0.00371394
0.00371386
0.0037144
0.00371455
0.00371321
0.00371293
0.00371345
0.00371483
0.00371673
0.00371667
0.00371681
0.00371853
0.00371837
0.00371847
0.00371808
0.00371667
0.00371593
0.00371592
0.00371741
0.00371686
0.00371574
0.00371644
0.0037162
0.00371532
0.00371454
0.00371452
0.00371374
0.0037124
0.00371272
0.00371455
0.00371478
0.00371279
0.00371187
0.00371187
0.00371273
0.00371378
0.0037136
0.00371238
0.00371351
0.0037159
0.00371509
0.00371431
0.0037138
0.00371344
0.00371481
0.00371623
0.00371569
0.00371503
0.00371594
0.00371617
0.00371538
0.00371323
0.00371226
0.00371306
0.00371347
0.00371423
0.00371471
0.00371499
0.00371576
0.00371578
0.0037135
0.00371284
0.00371453
0.00371646
0.00371759
0.00372016
0.00372034
0.00371924
0.00371906
0.00371904
0.00371948
0.00372072
0.00371983
0.00371952
0.00372034
0.00371945
0.00371875
0.00371909
0.00371834
0.00371768
0.00371722
0.00371778
0.00371722
0.00371604
0.00371547
0.00371491
0.00371455
0.00371363
0.00371273
0.003714
0.00371638
0.00371691
0.00371698
0.00371568
0.00371467
0.0037141
0.00371435
0.00371672
0.00371683
0.00371623
0.00371559
0.00371569
0.00371613
0.00371568
0.00371379
0.00371428
0.00371469
0.00371466
0.00371611
0.00371702
0.0037162
0.00371465
0.00371288
0.00371369
0.00371698
0.00371788
0.003717
0.00371486
0.00371514
0.00371488
0.00371474
0.00371565
0.00371522
0.00371481
0.00371516
0.00371533
0.00371576
0.00371635
0.00371557
0.00371438
0.00371551
0.00371688
0.00371636
0.00371707
0.00371632
0.00371494
0.00371529
0.00371616
0.00371672
0.00371618
0.00371491
0.00371478
0.00371439
0.00371326
0.00371466
0.00371578
0.00371487
0.00371496
0.00371624
0.00371591
0.00371639
0.00371771
0.00371782
0.00371767
0.00371743
0.00371659
0.00371718
0.00371782
0.00371701
0.00371738
0.00371737
0.00371642
0.00371662
0.00371654
0.00371603
0.0037158
0.00371647
0.00371641
0.00371605
0.00371695
0.00371677
0.00371544
0.00371557
0.00371473
0.00371408
0.00371532
0.00371541
0.00371582
0.00371757
0.00371831
0.00371658
0.0037158
0.00371538
0.00371546
0.00371615
0.00371657
0.00371732
0.00371758
0.00371702
0.00371465
0.00371446
0.003715
0.00371602
0.00371505
0.00371403
0.00371478
0.0037143
0.00371496
0.00371577
0.00371648
0.00371696
0.00371595
0.00371684
0.003718
0.00371749
0.00371649
0.00371603
0.00371493
0.00371495
0.00371659
0.003716
0.00371619
0.00371722
0.00371675
0.00371593
0.00371681
0.00371742
0.00371726
0.00371719
0.00371703
0.00371662
0.00371548
0.00371548
0.0037144
0.00371455
0.00371532
0.00371547
0.00371527
0.00371504
0.00371593
0.0037155
0.00371533
0.00371586
0.0037156
0.00371577
0.00371567
0.00371559
0.00371568
0.00371561
0.00371599
0.00371688
0.00371673
0.00371588
0.00371598
0.00371499
0.00371454
0.00371565
0.0037152
0.00371523
0.00371544
0.00371564
0.00371615
0.00371609
0.0037157
0.00371578
0.00371502
0.0037148
0.00371467
0.00371527
0.00371423
0.00371377
0.0037143
0.00371502
0.00371573
0.00371507
0.00371528
0.00371617
0.00371565
0.00371568
0.00371618
0.00371601
0.00371592
0.0037155
0.00371616
0.0037168
0.00371632
0.00371569
0.00371559
0.00371495
0.00371483
0.00371432
0.00371443
0.00371549
0.0037148
0.00371468
0.00371616
0.00371626
0.00371576
0.00371599
0.00371576
0.00371615
0.00371514
0.00371452
0.00371562
0.00371573
0.00371587
0.00371492
0.00371481
0.0037146
0.00371522
0.00371582
0.00371539
0.00371507
0.0037151
0.0037159
)
;
    }
    symmetry
    {
        type            symmetryPlane;
    }
    frontAndBack
    {
        type            empty;
    }
}


// ************************************************************************* //
