/*--------------------------------*- C++ -*----------------------------------*\
| =========                 |                                                 |
| \\      /  F ield         | OpenFOAM: The Open Source CFD Toolbox           |
|  \\    /   O peration     | Version:  v2012                                 |
|   \\  /    A nd           | Website:  www.openfoam.com                      |
|    \\/     M anipulation  |                                                 |
\*---------------------------------------------------------------------------*/
FoamFile
{
    version     2.0;
    format      ascii;
    class       volScalarField;
    location    "43.5";
    object      epsilon;
}
// * * * * * * * * * * * * * * * * * * * * * * * * * * * * * * * * * * * * * //

dimensions      [0 2 -3 0 0 0 0];


internalField   nonuniform List<scalar> 
209825
(
0.758349
0.634175
0.549515
0.492558
0.453387
0.425552
0.405039
0.389495
0.377362
0.367727
0.359884
0.353444
0.348033
0.343481
0.339557
0.3362
0.333245
0.330686
0.328393
0.32639
0.324567
0.322965
0.321485
0.320182
0.318964
0.317889
0.316871
0.315974
0.315117
0.314364
0.313631
0.312993
0.312367
0.311826
0.311285
0.310823
0.310359
0.309962
0.309556
0.309215
0.30886
0.308568
0.308264
0.308015
0.307744
0.307529
0.307299
0.307114
0.306906
0.306752
0.306584
0.306434
0.306289
0.306161
0.30606
0.305948
0.305828
0.305762
0.305659
0.305594
0.305552
0.305487
0.305458
0.305408
0.3054
0.305381
0.305416
0.305416
0.305413
0.305462
0.305462
0.305537
0.305546
0.305631
0.30566
0.305757
0.3058
0.305912
0.305964
0.306089
0.306154
0.306302
0.306382
0.306559
0.306656
0.306867
0.306984
0.307236
0.307373
0.307687
0.307836
0.308302
0.308459
0.312215
3.13168
577.366
0.75835
0.634175
0.549513
0.492553
0.453379
0.425542
0.405027
0.389482
0.377348
0.367712
0.359868
0.353427
0.348016
0.343463
0.339539
0.336181
0.333226
0.330667
0.328374
0.32637
0.324547
0.322945
0.321465
0.320162
0.318943
0.317869
0.316851
0.315954
0.315096
0.314343
0.313611
0.312972
0.312346
0.311805
0.311264
0.310802
0.310337
0.309941
0.309534
0.309194
0.308839
0.308547
0.308242
0.307993
0.307722
0.307507
0.307278
0.307093
0.306885
0.30673
0.306562
0.306412
0.306267
0.306139
0.306038
0.305926
0.305806
0.30574
0.305637
0.305572
0.30553
0.305465
0.305436
0.305386
0.305378
0.305359
0.305394
0.305394
0.305391
0.30544
0.30544
0.305515
0.305523
0.305609
0.305638
0.305735
0.305778
0.30589
0.305941
0.306066
0.306131
0.306279
0.306359
0.306536
0.306634
0.306845
0.306961
0.307213
0.30735
0.307664
0.307813
0.308279
0.308436
0.312198
3.13678
574.049
0.758352
0.634174
0.549502
0.492529
0.453345
0.425499
0.404977
0.389426
0.377287
0.367647
0.3598
0.353357
0.347943
0.343389
0.339463
0.336103
0.333147
0.330587
0.328293
0.326289
0.324465
0.322862
0.321382
0.320077
0.318858
0.317783
0.316765
0.315867
0.31501
0.314256
0.313523
0.312885
0.312258
0.311717
0.311176
0.310713
0.310248
0.309852
0.309445
0.309104
0.308749
0.308457
0.308152
0.307903
0.307632
0.307416
0.307187
0.307002
0.306794
0.306639
0.306471
0.30632
0.306176
0.306048
0.305946
0.305835
0.305715
0.305648
0.305545
0.30548
0.305438
0.305373
0.305344
0.305293
0.305286
0.305266
0.305301
0.305301
0.305298
0.305347
0.305347
0.305421
0.30543
0.305515
0.305545
0.305641
0.305684
0.305796
0.305847
0.305972
0.306037
0.306185
0.306265
0.306442
0.306539
0.30675
0.306866
0.307118
0.307255
0.307569
0.307718
0.308183
0.30834
0.312113
3.14704
570.121
0.758355
0.634172
0.549482
0.492489
0.453286
0.425425
0.404891
0.38933
0.377184
0.367538
0.359685
0.353238
0.34782
0.343263
0.339334
0.335972
0.333014
0.330452
0.328156
0.326151
0.324325
0.322722
0.32124
0.319935
0.318715
0.317639
0.31662
0.315722
0.314863
0.314109
0.313376
0.312737
0.31211
0.311568
0.311026
0.310563
0.310098
0.309701
0.309294
0.308953
0.308598
0.308305
0.308
0.307751
0.307479
0.307264
0.307034
0.306849
0.30664
0.306485
0.306317
0.306167
0.306021
0.305893
0.305791
0.30568
0.30556
0.305494
0.30539
0.305324
0.305283
0.305217
0.305188
0.305138
0.30513
0.30511
0.305144
0.305144
0.305142
0.30519
0.30519
0.305264
0.305272
0.305358
0.305387
0.305483
0.305526
0.305638
0.305689
0.305814
0.305878
0.306026
0.306106
0.306282
0.306379
0.30659
0.306706
0.306958
0.307094
0.307407
0.307556
0.308021
0.308177
0.311968
3.16298
566.362
0.75836
0.634169
0.549454
0.492432
0.453203
0.425321
0.40477
0.389195
0.377038
0.367383
0.359523
0.353069
0.347647
0.343085
0.339152
0.335787
0.332826
0.330261
0.327963
0.325955
0.324129
0.322523
0.32104
0.319733
0.318512
0.317435
0.316415
0.315516
0.314657
0.313901
0.313167
0.312528
0.3119
0.311358
0.310815
0.310352
0.309886
0.309489
0.309081
0.30874
0.308384
0.308091
0.307785
0.307536
0.307264
0.307048
0.306818
0.306632
0.306424
0.306268
0.3061
0.305949
0.305804
0.305675
0.305573
0.305462
0.305341
0.305275
0.305171
0.305105
0.305063
0.304997
0.304968
0.304917
0.30491
0.304889
0.304923
0.304923
0.30492
0.304968
0.304967
0.305042
0.30505
0.305135
0.305164
0.30526
0.305302
0.305414
0.305465
0.305589
0.305654
0.305801
0.30588
0.306057
0.306153
0.306364
0.306479
0.306731
0.306867
0.30718
0.307328
0.307793
0.307948
0.311763
3.18504
563.119
0.758367
0.634165
0.549417
0.492358
0.453096
0.425186
0.404613
0.389021
0.376849
0.367182
0.359313
0.352851
0.347422
0.342854
0.338916
0.335547
0.332582
0.330014
0.327713
0.325702
0.323873
0.322265
0.32078
0.319472
0.318249
0.317171
0.316149
0.315249
0.314388
0.313632
0.312897
0.312256
0.311628
0.311085
0.310542
0.310078
0.309611
0.309213
0.308805
0.308463
0.308106
0.307813
0.307507
0.307257
0.306984
0.306768
0.306538
0.306352
0.306142
0.305987
0.305818
0.305667
0.305521
0.305393
0.30529
0.305178
0.305057
0.304991
0.304887
0.304821
0.304778
0.304712
0.304682
0.304632
0.304624
0.304602
0.304636
0.304636
0.304633
0.30468
0.30468
0.304753
0.304761
0.304846
0.304874
0.30497
0.305013
0.305124
0.305174
0.305298
0.305362
0.30551
0.305589
0.305764
0.305861
0.30607
0.306186
0.306436
0.306572
0.306884
0.307032
0.307496
0.30765
0.311497
3.21369
560.557
0.758375
0.63416
0.549373
0.492267
0.452964
0.42502
0.404419
0.388805
0.376616
0.366935
0.359054
0.352582
0.347144
0.342569
0.338625
0.335251
0.332281
0.329709
0.327405
0.325391
0.323559
0.321948
0.320461
0.31915
0.317925
0.316845
0.315822
0.31492
0.314058
0.313301
0.312564
0.311922
0.311293
0.310749
0.310205
0.309739
0.309272
0.308873
0.308464
0.308122
0.307764
0.30747
0.307164
0.306913
0.30664
0.306423
0.306192
0.306006
0.305796
0.30564
0.305471
0.305319
0.305173
0.305044
0.304941
0.304829
0.304708
0.304641
0.304537
0.30447
0.304427
0.304361
0.304331
0.30428
0.304272
0.304249
0.304282
0.304282
0.304279
0.304325
0.304325
0.304398
0.304405
0.30449
0.304518
0.304614
0.304655
0.304766
0.304816
0.30494
0.305004
0.30515
0.305229
0.305404
0.3055
0.305709
0.305824
0.306074
0.306209
0.30652
0.306667
0.30713
0.307284
0.311169
3.24936
558.735
0.758384
0.634154
0.54932
0.49216
0.452807
0.424822
0.404189
0.388549
0.376339
0.36664
0.358745
0.352261
0.346814
0.34223
0.338279
0.334898
0.331923
0.329346
0.327037
0.325019
0.323184
0.32157
0.32008
0.318767
0.31754
0.316457
0.315432
0.314528
0.313665
0.312905
0.312168
0.311524
0.310894
0.310348
0.309803
0.309337
0.308868
0.308468
0.308059
0.307715
0.307357
0.307062
0.306755
0.306503
0.30623
0.306012
0.305781
0.305593
0.305383
0.305226
0.305057
0.304905
0.304758
0.304629
0.304525
0.304413
0.304291
0.304224
0.30412
0.304052
0.304009
0.303943
0.303912
0.303861
0.303852
0.303829
0.303861
0.303861
0.303857
0.303902
0.303902
0.303974
0.303982
0.304066
0.304093
0.304188
0.30423
0.30434
0.30439
0.304513
0.304576
0.304722
0.3048
0.304974
0.30507
0.305278
0.305393
0.305641
0.305776
0.306086
0.306233
0.306695
0.306847
0.310779
3.29251
557.641
0.758395
0.634147
0.549258
0.492035
0.452624
0.424592
0.403922
0.388251
0.376016
0.366298
0.358386
0.351889
0.34643
0.341836
0.337877
0.334488
0.331507
0.328924
0.32661
0.324588
0.322748
0.321131
0.319637
0.318321
0.317091
0.316006
0.314978
0.314072
0.313207
0.312446
0.311706
0.311061
0.310429
0.309882
0.309336
0.308868
0.308399
0.307998
0.307587
0.307242
0.306883
0.306587
0.306279
0.306027
0.305753
0.305534
0.305302
0.305114
0.304903
0.304746
0.304576
0.304423
0.304276
0.304146
0.304042
0.303929
0.303807
0.303739
0.303635
0.303566
0.303523
0.303456
0.303424
0.303373
0.303364
0.30334
0.303371
0.303371
0.303366
0.30341
0.30341
0.303482
0.303489
0.303572
0.303599
0.303694
0.303735
0.303844
0.303894
0.304016
0.304079
0.304224
0.304302
0.304475
0.30457
0.304777
0.304891
0.305139
0.305273
0.305582
0.305727
0.306188
0.306339
0.310327
3.34354
557.215
0.758408
0.63414
0.549189
0.491893
0.452417
0.424331
0.403617
0.387912
0.375649
0.365908
0.357977
0.351463
0.345991
0.341386
0.337417
0.33402
0.331031
0.328441
0.326122
0.324094
0.32225
0.320629
0.319131
0.317812
0.316579
0.315491
0.31446
0.313552
0.312684
0.311921
0.31118
0.310533
0.309899
0.30935
0.308802
0.308333
0.307862
0.30746
0.307048
0.306702
0.306342
0.306045
0.305736
0.305483
0.305207
0.304988
0.304755
0.304567
0.304355
0.304197
0.304026
0.303873
0.303725
0.303594
0.303489
0.303377
0.303254
0.303185
0.30308
0.303011
0.302967
0.3029
0.302868
0.302817
0.302806
0.302781
0.302811
0.302811
0.302805
0.302848
0.302848
0.302919
0.302926
0.303008
0.303035
0.303129
0.303169
0.303278
0.303327
0.303449
0.303511
0.303655
0.303732
0.303905
0.303999
0.304205
0.304318
0.304565
0.304698
0.305005
0.30515
0.30561
0.305759
0.309811
3.40284
557.355
0.758422
0.634132
0.549111
0.491734
0.452184
0.424037
0.403274
0.38753
0.375235
0.365468
0.357516
0.350985
0.345498
0.34088
0.3369
0.333493
0.330496
0.327899
0.325573
0.323539
0.321689
0.320063
0.318562
0.317238
0.316002
0.31491
0.313877
0.312966
0.312095
0.31133
0.310586
0.309937
0.309301
0.308751
0.308201
0.307731
0.307258
0.306855
0.306441
0.306094
0.305733
0.305435
0.305124
0.30487
0.304594
0.304374
0.304139
0.30395
0.303738
0.303579
0.303407
0.303253
0.303105
0.302973
0.302867
0.302754
0.302631
0.302561
0.302456
0.302386
0.302341
0.302274
0.302241
0.302189
0.302178
0.302152
0.30218
0.30218
0.302174
0.302216
0.302216
0.302286
0.302292
0.302374
0.302399
0.302493
0.302532
0.30264
0.302689
0.30281
0.302871
0.303015
0.303091
0.303262
0.303356
0.303561
0.303673
0.303918
0.304051
0.304357
0.3045
0.304958
0.305106
0.309232
3.47076
557.938
0.758438
0.634123
0.549025
0.491558
0.451926
0.423711
0.402894
0.387106
0.374776
0.36498
0.357004
0.350453
0.344948
0.340316
0.336324
0.332907
0.3299
0.327295
0.324961
0.322921
0.321066
0.319434
0.317928
0.3166
0.315359
0.314264
0.313228
0.312314
0.31144
0.310672
0.309926
0.309275
0.308636
0.308084
0.307532
0.30706
0.306586
0.30618
0.305765
0.305417
0.305054
0.304755
0.304443
0.304188
0.30391
0.303689
0.303454
0.303264
0.30305
0.30289
0.302718
0.302563
0.302414
0.302282
0.302175
0.302062
0.301937
0.301867
0.301761
0.301691
0.301645
0.301577
0.301543
0.301491
0.301479
0.301451
0.301479
0.301478
0.301472
0.301512
0.301512
0.30158
0.301586
0.301667
0.301692
0.301785
0.301823
0.301931
0.301978
0.302098
0.302159
0.302301
0.302377
0.302547
0.30264
0.302843
0.302955
0.303198
0.30333
0.303634
0.303776
0.304233
0.304379
0.308588
3.5476
558.826
0.758455
0.634114
0.548932
0.491364
0.451642
0.423353
0.402475
0.386638
0.374269
0.364442
0.356439
0.349866
0.344343
0.339695
0.335689
0.33226
0.329243
0.326628
0.324287
0.32224
0.320378
0.31874
0.317229
0.315896
0.314651
0.313552
0.312511
0.311594
0.310717
0.309946
0.309197
0.308544
0.307903
0.307349
0.306795
0.30632
0.305844
0.305437
0.30502
0.30467
0.304306
0.304005
0.303692
0.303436
0.303157
0.302934
0.302698
0.302507
0.302292
0.302131
0.301957
0.301802
0.301652
0.301519
0.301411
0.301297
0.301172
0.301101
0.300995
0.300923
0.300876
0.300808
0.300773
0.300721
0.300708
0.300679
0.300704
0.300704
0.300697
0.300735
0.300735
0.300802
0.300807
0.300888
0.300912
0.301003
0.301041
0.301148
0.301195
0.301314
0.301374
0.301515
0.30159
0.301758
0.301851
0.302052
0.302163
0.302405
0.302535
0.302837
0.302978
0.303433
0.303578
0.307879
3.63359
559.87
0.758473
0.634104
0.54883
0.491154
0.451333
0.422962
0.402017
0.386128
0.373716
0.363853
0.355822
0.349225
0.343681
0.339016
0.334995
0.331552
0.328524
0.3259
0.323549
0.321494
0.319625
0.317981
0.316464
0.315126
0.313876
0.312772
0.311728
0.310807
0.309926
0.309152
0.3084
0.307744
0.3071
0.306543
0.305987
0.30551
0.305032
0.304623
0.304205
0.303853
0.303487
0.303185
0.30287
0.302612
0.302332
0.302108
0.30187
0.301678
0.301462
0.3013
0.301125
0.30097
0.300818
0.300684
0.300574
0.300461
0.300334
0.300262
0.300156
0.300083
0.300035
0.299966
0.299931
0.299878
0.299864
0.299833
0.299857
0.299857
0.299848
0.299885
0.299885
0.299951
0.299955
0.300034
0.300057
0.300148
0.300186
0.300291
0.300337
0.300455
0.300514
0.300654
0.300728
0.300895
0.300986
0.301186
0.301296
0.301536
0.301665
0.301965
0.302105
0.302558
0.3027
0.307105
3.72885
560.924
0.758494
0.634094
0.548721
0.490927
0.450999
0.422538
0.401522
0.385574
0.373115
0.363214
0.355152
0.348528
0.342962
0.338278
0.33424
0.330784
0.327743
0.325107
0.322747
0.320683
0.318806
0.317156
0.315632
0.314288
0.313033
0.311925
0.310876
0.309951
0.309066
0.308289
0.307533
0.306874
0.306228
0.305668
0.305109
0.30463
0.30415
0.303739
0.303318
0.302965
0.302596
0.302293
0.301976
0.301717
0.301435
0.30121
0.30097
0.300777
0.30056
0.300396
0.300221
0.300064
0.299911
0.299776
0.299665
0.299551
0.299424
0.299351
0.299243
0.29917
0.299121
0.299051
0.299015
0.298961
0.298946
0.298914
0.298936
0.298936
0.298926
0.298961
0.29896
0.299025
0.299028
0.299107
0.299129
0.299219
0.299255
0.299359
0.299404
0.299521
0.29958
0.299718
0.299791
0.299956
0.300047
0.300245
0.300354
0.300591
0.300719
0.301017
0.301155
0.301606
0.301747
0.306264
3.83344
561.842
0.758515
0.634083
0.548604
0.490683
0.450639
0.422081
0.400987
0.384977
0.372467
0.362525
0.354428
0.347775
0.342185
0.33748
0.333425
0.329953
0.326899
0.324251
0.321881
0.319808
0.317922
0.316264
0.314733
0.313383
0.312122
0.311009
0.309955
0.309025
0.308137
0.307356
0.306597
0.305934
0.305284
0.304722
0.30416
0.303679
0.303196
0.302782
0.302359
0.302004
0.301634
0.301328
0.30101
0.300749
0.300465
0.300239
0.299998
0.299803
0.299585
0.29942
0.299243
0.299085
0.298931
0.298795
0.298683
0.298568
0.298439
0.298365
0.298257
0.298182
0.298132
0.298062
0.298024
0.29797
0.297954
0.29792
0.297941
0.29794
0.297929
0.297962
0.297961
0.298024
0.298027
0.298104
0.298125
0.298214
0.298249
0.298352
0.298396
0.298512
0.298569
0.298706
0.298778
0.298942
0.299031
0.299227
0.299335
0.29957
0.299697
0.299992
0.300128
0.300577
0.300716
0.305357
3.94725
562.49
0.758538
0.634073
0.548479
0.490423
0.450253
0.421592
0.400414
0.384336
0.371771
0.361784
0.35365
0.346966
0.34135
0.336623
0.332549
0.32906
0.325991
0.323331
0.320949
0.318866
0.316971
0.315305
0.313767
0.31241
0.311143
0.310024
0.308965
0.30803
0.307137
0.306352
0.305589
0.304923
0.30427
0.303704
0.30314
0.302655
0.302169
0.301754
0.301328
0.300971
0.300599
0.300291
0.29997
0.299708
0.299423
0.299195
0.298952
0.298756
0.298536
0.298369
0.298191
0.298032
0.297877
0.29774
0.297626
0.29751
0.297381
0.297305
0.297197
0.29712
0.297069
0.296998
0.296959
0.296904
0.296887
0.296852
0.29687
0.296869
0.296857
0.296888
0.296886
0.296947
0.296949
0.297025
0.297045
0.297133
0.297167
0.297269
0.297312
0.297426
0.297482
0.297617
0.297689
0.29785
0.297939
0.298132
0.298239
0.298472
0.298597
0.29889
0.299024
0.299471
0.299608
0.304383
4.07004
562.742
0.758563
0.634062
0.548348
0.490146
0.449843
0.42107
0.399801
0.383651
0.371028
0.360992
0.352818
0.346101
0.340457
0.335706
0.331611
0.328105
0.32502
0.322346
0.319952
0.317858
0.315953
0.314278
0.312732
0.311368
0.310094
0.308969
0.307904
0.306965
0.306067
0.305277
0.30451
0.30384
0.303184
0.302615
0.302047
0.30156
0.301071
0.300653
0.300225
0.299865
0.29949
0.29918
0.298858
0.298593
0.298306
0.298076
0.297831
0.297634
0.297413
0.297244
0.297064
0.296905
0.296748
0.29661
0.296494
0.296378
0.296247
0.29617
0.296061
0.295983
0.29593
0.295859
0.295818
0.295763
0.295745
0.295707
0.295723
0.295722
0.295708
0.295737
0.295735
0.295794
0.295796
0.29587
0.295889
0.295975
0.296008
0.296108
0.296151
0.296263
0.296319
0.296452
0.296522
0.296681
0.296769
0.29696
0.297065
0.297296
0.29742
0.29771
0.297842
0.298287
0.298421
0.30334
4.20141
562.49
0.758589
0.634051
0.548209
0.489853
0.449408
0.420515
0.399151
0.382922
0.370236
0.360149
0.351932
0.34518
0.339506
0.334729
0.330612
0.327086
0.323985
0.321296
0.318889
0.316783
0.314868
0.313183
0.311629
0.310257
0.308976
0.307844
0.306774
0.305829
0.304926
0.304131
0.30336
0.302686
0.302025
0.301453
0.300881
0.300391
0.299899
0.299478
0.299047
0.298685
0.298308
0.297996
0.297671
0.297404
0.297115
0.296883
0.296637
0.296437
0.296214
0.296044
0.295863
0.295702
0.295543
0.295404
0.295286
0.29517
0.295037
0.294959
0.294849
0.29477
0.294716
0.294643
0.294601
0.294545
0.294526
0.294487
0.2945
0.294499
0.294483
0.29451
0.294508
0.294564
0.294565
0.294638
0.294656
0.294741
0.294772
0.294871
0.294912
0.295023
0.295077
0.295208
0.295278
0.295435
0.295521
0.29571
0.295814
0.296041
0.296164
0.296451
0.296581
0.297023
0.297156
0.302229
4.34073
561.636
0.758616
0.634041
0.548064
0.489544
0.448948
0.419929
0.398461
0.38215
0.369396
0.359254
0.350992
0.344201
0.338495
0.333691
0.32955
0.326004
0.322885
0.32018
0.317759
0.315641
0.313715
0.31202
0.310456
0.309076
0.307788
0.306649
0.305572
0.304621
0.303713
0.302913
0.302137
0.301459
0.300794
0.300218
0.299642
0.299149
0.298653
0.29823
0.297796
0.297431
0.297051
0.296737
0.296409
0.29614
0.295849
0.295615
0.295367
0.295166
0.294941
0.294769
0.294586
0.294423
0.294263
0.294123
0.294003
0.293886
0.293752
0.293672
0.293561
0.293481
0.293425
0.293351
0.293308
0.293251
0.29323
0.293189
0.293201
0.293199
0.293182
0.293206
0.293203
0.293257
0.293257
0.293329
0.293345
0.293428
0.293458
0.293556
0.293596
0.293705
0.293758
0.293887
0.293955
0.29411
0.294194
0.294381
0.294483
0.294708
0.294829
0.295113
0.295241
0.29568
0.295811
0.301047
4.48716
560.093
0.758644
0.63403
0.547912
0.48922
0.448463
0.41931
0.397733
0.381333
0.368509
0.358308
0.349997
0.343166
0.337426
0.332592
0.328426
0.324859
0.32172
0.318999
0.316563
0.314431
0.312493
0.310788
0.309214
0.307826
0.306529
0.305383
0.304299
0.303342
0.302428
0.301623
0.300842
0.300159
0.299489
0.298909
0.29833
0.297833
0.297334
0.296907
0.29647
0.296102
0.29572
0.295403
0.295072
0.294801
0.294508
0.294272
0.294021
0.293818
0.293592
0.293418
0.293233
0.293069
0.292907
0.292765
0.292643
0.292525
0.29239
0.292309
0.292196
0.292114
0.292057
0.291983
0.291938
0.29188
0.291857
0.291815
0.291824
0.291821
0.291802
0.291825
0.29182
0.291872
0.291872
0.291941
0.291956
0.292038
0.292066
0.292162
0.292201
0.292308
0.29236
0.292487
0.292553
0.292706
0.292789
0.292973
0.293074
0.293295
0.293415
0.293695
0.293821
0.294258
0.294386
0.299794
4.6396
557.797
0.758674
0.63402
0.547754
0.48888
0.447955
0.418659
0.396967
0.380474
0.367573
0.35731
0.348948
0.342074
0.336297
0.331433
0.32724
0.323649
0.320491
0.317752
0.3153
0.313154
0.311203
0.309487
0.307903
0.306505
0.3052
0.304046
0.302955
0.301991
0.301071
0.30026
0.299474
0.298786
0.298112
0.297527
0.296944
0.296443
0.29594
0.29551
0.29507
0.294699
0.294313
0.293994
0.29366
0.293387
0.293091
0.292853
0.2926
0.292395
0.292166
0.29199
0.291804
0.291638
0.291475
0.291331
0.291207
0.291088
0.290951
0.290868
0.290755
0.290671
0.290612
0.290537
0.29049
0.290431
0.290407
0.290363
0.290369
0.290366
0.290345
0.290365
0.29036
0.290408
0.290408
0.290476
0.290488
0.290569
0.290596
0.29069
0.290727
0.290832
0.290883
0.291008
0.291073
0.291223
0.291305
0.291485
0.291585
0.291803
0.291921
0.292198
0.292321
0.292755
0.292882
0.29847
4.79669
554.693
0.758706
0.63401
0.54759
0.488526
0.447423
0.417977
0.396163
0.379571
0.36659
0.356261
0.347845
0.340925
0.33511
0.330212
0.325992
0.322376
0.319196
0.316438
0.313969
0.311809
0.309845
0.308116
0.306522
0.305114
0.303799
0.302638
0.301539
0.300568
0.299641
0.298825
0.298032
0.297339
0.29666
0.296071
0.295484
0.294978
0.294472
0.294038
0.293594
0.29322
0.292832
0.292509
0.292173
0.291897
0.291598
0.291358
0.291102
0.290895
0.290664
0.290487
0.290298
0.290131
0.289965
0.28982
0.289693
0.289573
0.289435
0.289351
0.289236
0.28915
0.289089
0.289013
0.288964
0.288905
0.288879
0.288834
0.288837
0.288832
0.28881
0.288828
0.288821
0.288866
0.288866
0.288931
0.288942
0.289021
0.289046
0.289139
0.289174
0.289278
0.289327
0.289449
0.289513
0.28966
0.28974
0.289918
0.290016
0.290231
0.290347
0.29062
0.290741
0.291172
0.291297
0.297072
4.95675
550.737
0.758738
0.634001
0.54742
0.488157
0.446868
0.417264
0.395321
0.378625
0.365559
0.35516
0.346687
0.339719
0.333863
0.328931
0.324681
0.321039
0.317837
0.315059
0.312572
0.310396
0.308418
0.306677
0.30507
0.303652
0.302328
0.301158
0.300051
0.299073
0.298139
0.297316
0.296518
0.295819
0.295135
0.294541
0.293949
0.29344
0.292929
0.292491
0.292044
0.291667
0.291274
0.290949
0.290609
0.290331
0.29003
0.289787
0.289528
0.289319
0.289086
0.288906
0.288715
0.288546
0.288379
0.288231
0.288103
0.287982
0.287841
0.287755
0.287639
0.287552
0.287489
0.287412
0.287361
0.287301
0.287272
0.287226
0.287227
0.287221
0.287197
0.287212
0.287204
0.287245
0.287245
0.287308
0.287318
0.287395
0.287418
0.287508
0.287542
0.287644
0.287691
0.287811
0.287873
0.288018
0.288096
0.288271
0.288367
0.288579
0.288692
0.288962
0.289081
0.289508
0.289631
0.295599
5.11781
545.895
0.758772
0.633992
0.547245
0.487774
0.44629
0.416521
0.394442
0.377636
0.364481
0.354009
0.345475
0.338456
0.332558
0.327589
0.323307
0.319639
0.316412
0.313613
0.311108
0.308915
0.306922
0.305168
0.303549
0.30212
0.300786
0.299606
0.298491
0.297505
0.296564
0.295735
0.29493
0.294226
0.293536
0.292937
0.29234
0.291826
0.291311
0.290869
0.290418
0.290037
0.289642
0.289313
0.28897
0.288689
0.288385
0.288139
0.287878
0.287666
0.287431
0.287248
0.287055
0.286885
0.286715
0.286566
0.286435
0.286313
0.28617
0.286082
0.285965
0.285876
0.285811
0.285732
0.28568
0.285618
0.285588
0.285541
0.285538
0.285531
0.285505
0.285517
0.285508
0.285546
0.285546
0.285606
0.285614
0.285689
0.28571
0.285799
0.285831
0.28593
0.285976
0.286094
0.286154
0.286296
0.286373
0.286544
0.286638
0.286846
0.286958
0.287224
0.287339
0.287764
0.287885
0.29405
5.27757
540.139
0.758806
0.633984
0.547065
0.487378
0.445689
0.415747
0.393526
0.376605
0.363356
0.352807
0.344209
0.337137
0.331193
0.326187
0.321871
0.318174
0.314922
0.312102
0.309577
0.307367
0.305358
0.303589
0.301958
0.300517
0.299173
0.297983
0.296859
0.295865
0.294916
0.29408
0.293269
0.292558
0.291863
0.291258
0.290656
0.290138
0.289618
0.289172
0.288717
0.288333
0.287933
0.287601
0.287255
0.286971
0.286663
0.286415
0.286151
0.285937
0.285699
0.285514
0.285318
0.285146
0.284974
0.284823
0.284689
0.284566
0.284422
0.284332
0.284213
0.284122
0.284055
0.283975
0.28392
0.283857
0.283825
0.283777
0.283771
0.283763
0.283735
0.283745
0.283734
0.283768
0.283767
0.283825
0.283831
0.283904
0.283924
0.28401
0.28404
0.284137
0.284181
0.284296
0.284355
0.284494
0.284569
0.284737
0.284829
0.285033
0.285143
0.285404
0.285517
0.285938
0.286058
0.292424
5.4334
533.449
0.758842
0.633978
0.546881
0.486969
0.445068
0.414944
0.392574
0.375532
0.362185
0.351555
0.34289
0.335762
0.329771
0.324723
0.320374
0.316646
0.313368
0.310524
0.307979
0.30575
0.303725
0.301942
0.300297
0.298844
0.297488
0.296289
0.295155
0.294153
0.293196
0.292352
0.291534
0.290817
0.290115
0.289506
0.288898
0.288375
0.28785
0.2874
0.28694
0.286552
0.286149
0.285814
0.285464
0.285176
0.284866
0.284615
0.284347
0.284131
0.283891
0.283703
0.283505
0.283331
0.283156
0.283003
0.282867
0.282742
0.282596
0.282504
0.282384
0.282291
0.282221
0.28214
0.282083
0.282019
0.281984
0.281935
0.281926
0.281916
0.281886
0.281893
0.281881
0.281912
0.28191
0.281964
0.281969
0.28204
0.282057
0.282141
0.28217
0.282265
0.282307
0.282419
0.282476
0.282612
0.282685
0.282849
0.28294
0.28314
0.283247
0.283505
0.283615
0.284032
0.284151
0.290718
5.58237
525.805
0.758879
0.633972
0.546692
0.486548
0.444425
0.414112
0.391587
0.374418
0.360968
0.350253
0.341518
0.334331
0.32829
0.3232
0.318814
0.315055
0.311749
0.308881
0.306314
0.304066
0.302024
0.300225
0.298566
0.297101
0.295733
0.294523
0.29338
0.292369
0.291403
0.290552
0.289726
0.289003
0.288295
0.287679
0.287066
0.286538
0.286008
0.285553
0.285089
0.284697
0.28429
0.28395
0.283597
0.283306
0.282992
0.282738
0.282467
0.282249
0.282005
0.281815
0.281614
0.281438
0.281261
0.281106
0.280967
0.280841
0.280692
0.280598
0.280477
0.280381
0.280309
0.280227
0.280168
0.280102
0.280065
0.280015
0.280003
0.279991
0.279959
0.279964
0.279949
0.279977
0.279974
0.280025
0.280029
0.280096
0.280112
0.280194
0.28022
0.280313
0.280353
0.280463
0.280518
0.28065
0.280721
0.280882
0.28097
0.281167
0.281271
0.281525
0.281632
0.282045
0.282163
0.288931
5.72127
517.19
0.758917
0.633967
0.5465
0.486115
0.443762
0.413251
0.390564
0.373263
0.359705
0.348902
0.340093
0.332845
0.326752
0.321618
0.317193
0.313401
0.310066
0.307172
0.304583
0.302315
0.300255
0.29844
0.296766
0.295288
0.293908
0.292687
0.291533
0.290512
0.289538
0.288679
0.287846
0.287116
0.2864
0.285779
0.28516
0.284626
0.284091
0.283632
0.283163
0.282766
0.282355
0.282012
0.281654
0.28136
0.281043
0.280785
0.280512
0.28029
0.280044
0.279851
0.279647
0.279469
0.279289
0.279132
0.278989
0.278862
0.278712
0.278615
0.278492
0.278395
0.27832
0.278236
0.278174
0.278108
0.278068
0.278017
0.278001
0.277988
0.277955
0.277956
0.277939
0.277963
0.277959
0.278007
0.278009
0.278074
0.278088
0.278167
0.278192
0.278282
0.27832
0.278427
0.27848
0.278609
0.278678
0.278835
0.278921
0.279113
0.279216
0.279464
0.279568
0.279978
0.280094
0.28706
5.84664
507.586
0.758956
0.633963
0.546304
0.48567
0.443079
0.412364
0.389508
0.372069
0.358398
0.347502
0.338617
0.331304
0.325156
0.319976
0.315511
0.311685
0.30832
0.305399
0.302786
0.300497
0.298418
0.296586
0.294897
0.293405
0.292012
0.29078
0.289615
0.288585
0.287601
0.286734
0.285893
0.285155
0.284433
0.283805
0.28318
0.282641
0.2821
0.281636
0.281162
0.280761
0.280345
0.279998
0.279637
0.279339
0.279018
0.278757
0.27848
0.278255
0.278006
0.27781
0.277604
0.277423
0.277241
0.277082
0.276936
0.276807
0.276654
0.276555
0.27643
0.276331
0.276253
0.276168
0.276104
0.276035
0.275994
0.275941
0.275922
0.275907
0.275872
0.275871
0.275851
0.275872
0.275867
0.275911
0.275912
0.275974
0.275985
0.276062
0.276084
0.276172
0.276208
0.276312
0.276363
0.276488
0.276555
0.276708
0.276792
0.27698
0.27708
0.277324
0.277425
0.277831
0.277946
0.285104
5.95482
496.975
0.758995
0.633961
0.546105
0.485216
0.442378
0.41145
0.388418
0.370836
0.357047
0.346055
0.337089
0.329709
0.323505
0.318276
0.313769
0.309906
0.30651
0.303561
0.300924
0.298613
0.296514
0.294664
0.29296
0.291453
0.290047
0.288802
0.287627
0.286586
0.285593
0.284717
0.283867
0.283122
0.282393
0.281759
0.281127
0.280582
0.280035
0.279566
0.279087
0.278682
0.278261
0.27791
0.277544
0.277242
0.276918
0.276654
0.276373
0.276145
0.275893
0.275694
0.275484
0.275301
0.275116
0.274955
0.274805
0.274675
0.27452
0.274419
0.274292
0.27419
0.27411
0.274023
0.273956
0.273886
0.273842
0.273788
0.273765
0.273749
0.273712
0.273708
0.273686
0.273703
0.273696
0.273736
0.273736
0.273795
0.273805
0.273878
0.273899
0.273983
0.274017
0.274118
0.274167
0.274289
0.274354
0.274503
0.274584
0.274768
0.274865
0.275105
0.275202
0.275604
0.275718
0.28306
6.04206
485.338
0.759035
0.63396
0.545904
0.484752
0.441659
0.41051
0.387296
0.369564
0.355654
0.34456
0.335511
0.328061
0.321797
0.316518
0.311968
0.308067
0.304638
0.30166
0.298997
0.296663
0.294544
0.292676
0.290954
0.289432
0.288013
0.286755
0.285568
0.284517
0.283514
0.282628
0.28177
0.281018
0.280281
0.279639
0.279001
0.27845
0.277897
0.277423
0.276938
0.276528
0.276103
0.275748
0.275377
0.275072
0.274743
0.274475
0.274191
0.27396
0.273704
0.273502
0.273289
0.273104
0.272916
0.272752
0.2726
0.272467
0.27231
0.272206
0.272077
0.271973
0.27189
0.271801
0.271732
0.271661
0.271613
0.271558
0.271531
0.271514
0.271475
0.271468
0.271443
0.271457
0.271449
0.271484
0.271484
0.271539
0.271546
0.271617
0.271635
0.271717
0.271748
0.271846
0.271893
0.272011
0.272074
0.272219
0.272298
0.272477
0.272572
0.272806
0.272901
0.273298
0.27341
0.280926
6.1046
472.66
0.759076
0.633961
0.545701
0.484279
0.440923
0.409546
0.386143
0.368255
0.354218
0.34302
0.333883
0.32636
0.320035
0.314703
0.310107
0.306167
0.302703
0.299696
0.297006
0.294648
0.292508
0.29062
0.288882
0.287344
0.28591
0.28464
0.28344
0.282378
0.281364
0.280469
0.279603
0.278842
0.278097
0.277448
0.276803
0.276246
0.275687
0.275207
0.274717
0.274302
0.273872
0.273512
0.273136
0.272827
0.272494
0.272223
0.271934
0.2717
0.271441
0.271236
0.27102
0.270832
0.270641
0.270475
0.270318
0.270184
0.270025
0.269918
0.269787
0.269681
0.269594
0.269504
0.269432
0.269359
0.269309
0.269252
0.269221
0.269202
0.269162
0.269152
0.269124
0.269135
0.269125
0.269155
0.269154
0.269205
0.269211
0.269279
0.269294
0.269373
0.269402
0.269497
0.269541
0.269656
0.269716
0.269857
0.269933
0.270108
0.2702
0.270429
0.270521
0.270913
0.271025
0.278701
6.1387
458.925
0.759118
0.633964
0.545497
0.483798
0.440171
0.408559
0.384959
0.36691
0.352741
0.341434
0.332207
0.324608
0.318218
0.312831
0.308189
0.304208
0.300708
0.297669
0.294951
0.292569
0.290406
0.288499
0.286743
0.285188
0.283739
0.282455
0.281243
0.28017
0.279145
0.278241
0.277365
0.276595
0.275842
0.275186
0.274534
0.27397
0.273405
0.272919
0.272423
0.272003
0.271567
0.271203
0.270823
0.270509
0.270172
0.269897
0.269604
0.269367
0.269105
0.268896
0.268676
0.268486
0.268291
0.268123
0.267963
0.267827
0.267664
0.267555
0.267422
0.267313
0.267223
0.267132
0.267057
0.266982
0.266928
0.26687
0.266836
0.266815
0.266772
0.266761
0.26673
0.266737
0.266725
0.266751
0.266748
0.266796
0.266799
0.266864
0.266877
0.266953
0.266979
0.267071
0.267112
0.267223
0.267281
0.267417
0.267492
0.267661
0.267751
0.267975
0.268063
0.268451
0.268561
0.27638
6.1411
444.125
0.75916
0.633968
0.545291
0.483309
0.439405
0.407549
0.383746
0.365531
0.351224
0.339804
0.330483
0.322805
0.316349
0.310905
0.306214
0.30219
0.298653
0.295582
0.292835
0.290427
0.288241
0.286313
0.284538