/*--------------------------------*- C++ -*----------------------------------*\
| =========                 |                                                 |
| \\      /  F ield         | OpenFOAM: The Open Source CFD Toolbox           |
|  \\    /   O peration     | Version:  v2012                                 |
|   \\  /    A nd           | Website:  www.openfoam.com                      |
|    \\/     M anipulation  |                                                 |
\*---------------------------------------------------------------------------*/
FoamFile
{
    version     2.0;
    format      ascii;
    class       volScalarField;
    location    "43.5";
    object      nut;
}
// * * * * * * * * * * * * * * * * * * * * * * * * * * * * * * * * * * * * * //

dimensions      [0 2 -1 0 0 0 0];


internalField   nonuniform List<scalar> 
209825
(
1.24545e-07
1.23511e-07
1.19763e-07
1.13729e-07
1.06731e-07
9.98244e-08
9.34775e-08
8.7873e-08
8.29689e-08
7.87246e-08
7.50214e-08
7.18099e-08
6.89819e-08
6.65138e-08
6.43151e-08
6.2382e-08
6.06393e-08
5.90983e-08
5.76934e-08
5.6446e-08
5.52957e-08
5.42718e-08
5.33177e-08
5.24666e-08
5.1665e-08
5.09496e-08
5.02695e-08
4.96637e-08
4.908e-08
4.85624e-08
4.80591e-08
4.7614e-08
4.71753e-08
4.67899e-08
4.64059e-08
4.60712e-08
4.5733e-08
4.54411e-08
4.51421e-08
4.48863e-08
4.46202e-08
4.43952e-08
4.41565e-08
4.39578e-08
4.3745e-08
4.35693e-08
4.33769e-08
4.32211e-08
4.30487e-08
4.291e-08
4.27525e-08
4.26317e-08
4.24893e-08
4.23821e-08
4.22503e-08
4.2155e-08
4.20399e-08
4.19522e-08
4.18475e-08
4.17714e-08
4.16694e-08
4.16045e-08
4.15107e-08
4.14523e-08
4.13661e-08
4.13113e-08
4.12284e-08
4.11769e-08
4.11078e-08
4.10553e-08
4.09939e-08
4.09428e-08
4.08876e-08
4.08402e-08
4.07858e-08
4.07389e-08
4.06858e-08
4.06402e-08
4.05902e-08
4.0547e-08
4.04998e-08
4.04577e-08
4.04131e-08
4.03714e-08
4.03297e-08
4.02885e-08
4.02502e-08
4.02091e-08
4.01776e-08
4.01331e-08
4.01036e-08
4.00568e-08
4.00353e-08
4.03747e-08
3.56611e-06
2.63835e-08
1.24545e-07
1.23511e-07
1.19764e-07
1.1373e-07
1.06732e-07
9.98266e-08
9.34799e-08
8.78754e-08
8.29713e-08
7.87268e-08
7.50235e-08
7.18118e-08
6.89837e-08
6.65154e-08
6.43167e-08
6.23834e-08
6.06406e-08
5.90995e-08
5.76945e-08
5.6447e-08
5.52966e-08
5.42726e-08
5.33185e-08
5.24673e-08
5.16656e-08
5.09502e-08
5.02701e-08
4.96642e-08
4.90804e-08
4.85628e-08
4.80594e-08
4.76143e-08
4.71755e-08
4.67901e-08
4.6406e-08
4.60713e-08
4.57331e-08
4.54412e-08
4.51422e-08
4.48863e-08
4.46202e-08
4.43951e-08
4.41565e-08
4.39578e-08
4.3745e-08
4.35692e-08
4.33768e-08
4.3221e-08
4.30486e-08
4.29099e-08
4.27524e-08
4.26316e-08
4.24891e-08
4.23819e-08
4.22501e-08
4.21548e-08
4.20396e-08
4.1952e-08
4.18473e-08
4.17712e-08
4.16691e-08
4.16042e-08
4.15104e-08
4.1452e-08
4.13658e-08
4.1311e-08
4.12281e-08
4.11765e-08
4.11074e-08
4.10549e-08
4.09935e-08
4.09425e-08
4.08873e-08
4.08399e-08
4.07854e-08
4.07385e-08
4.06854e-08
4.06399e-08
4.05898e-08
4.05466e-08
4.04994e-08
4.04573e-08
4.04127e-08
4.0371e-08
4.03293e-08
4.02881e-08
4.02498e-08
4.02087e-08
4.01772e-08
4.01327e-08
4.01032e-08
4.00563e-08
4.00348e-08
4.03746e-08
3.56605e-06
2.6585e-08
1.24545e-07
1.23512e-07
1.19767e-07
1.13736e-07
1.06741e-07
9.98361e-08
9.34898e-08
8.78851e-08
8.29806e-08
7.87357e-08
7.50318e-08
7.18195e-08
6.89907e-08
6.65219e-08
6.43226e-08
6.23888e-08
6.06456e-08
5.91041e-08
5.76986e-08
5.64508e-08
5.53001e-08
5.42757e-08
5.33213e-08
5.24698e-08
5.16679e-08
5.09523e-08
5.02719e-08
4.96658e-08
4.90819e-08
4.85641e-08
4.80606e-08
4.76153e-08
4.71764e-08
4.67909e-08
4.64066e-08
4.60718e-08
4.57335e-08
4.54414e-08
4.51424e-08
4.48864e-08
4.46202e-08
4.43951e-08
4.41563e-08
4.39575e-08
4.37446e-08
4.35688e-08
4.33764e-08
4.32205e-08
4.3048e-08
4.29093e-08
4.27517e-08
4.26308e-08
4.24883e-08
4.23811e-08
4.22492e-08
4.21539e-08
4.20387e-08
4.1951e-08
4.18462e-08
4.17701e-08
4.1668e-08
4.16031e-08
4.15092e-08
4.14507e-08
4.13645e-08
4.13097e-08
4.12269e-08
4.11752e-08
4.11061e-08
4.10536e-08
4.09922e-08
4.09411e-08
4.08859e-08
4.08384e-08
4.0784e-08
4.07371e-08
4.06839e-08
4.06384e-08
4.05883e-08
4.05451e-08
4.04978e-08
4.04557e-08
4.04111e-08
4.03694e-08
4.03277e-08
4.02864e-08
4.02481e-08
4.0207e-08
4.01755e-08
4.0131e-08
4.01014e-08
4.00545e-08
4.0033e-08
4.03734e-08
3.56508e-06
2.68638e-08
1.24544e-07
1.23512e-07
1.19772e-07
1.13746e-07
1.06755e-07
9.98521e-08
9.35064e-08
8.79016e-08
8.29964e-08
7.87505e-08
7.50456e-08
7.18323e-08
6.90026e-08
6.65328e-08
6.43325e-08
6.2398e-08
6.06539e-08
5.91117e-08
5.77055e-08
5.64571e-08
5.53058e-08
5.4281e-08
5.33261e-08
5.24742e-08
5.16718e-08
5.09558e-08
5.02751e-08
4.96687e-08
4.90844e-08
4.85664e-08
4.80625e-08
4.7617e-08
4.71779e-08
4.67921e-08
4.64077e-08
4.60727e-08
4.57342e-08
4.54419e-08
4.51427e-08
4.48865e-08
4.46202e-08
4.43949e-08
4.41561e-08
4.39571e-08
4.37441e-08
4.35682e-08
4.33757e-08
4.32197e-08
4.30471e-08
4.29082e-08
4.27506e-08
4.26296e-08
4.24871e-08
4.23797e-08
4.22478e-08
4.21524e-08
4.20371e-08
4.19493e-08
4.18445e-08
4.17683e-08
4.16662e-08
4.16012e-08
4.15073e-08
4.14488e-08
4.13625e-08
4.13077e-08
4.12248e-08
4.11731e-08
4.11039e-08
4.10514e-08
4.09899e-08
4.09388e-08
4.08836e-08
4.08361e-08
4.07816e-08
4.07347e-08
4.06815e-08
4.06359e-08
4.05858e-08
4.05426e-08
4.04953e-08
4.04532e-08
4.04085e-08
4.03667e-08
4.0325e-08
4.02837e-08
4.02454e-08
4.02042e-08
4.01727e-08
4.01281e-08
4.00984e-08
4.00516e-08
4.003e-08
4.03715e-08
3.56337e-06
2.71905e-08
1.24543e-07
1.23513e-07
1.1978e-07
1.13761e-07
1.06775e-07
9.98748e-08
9.35299e-08
8.79248e-08
8.30187e-08
7.87716e-08
7.50652e-08
7.18505e-08
6.90193e-08
6.65481e-08
6.43466e-08
6.24109e-08
6.06657e-08
5.91225e-08
5.77154e-08
5.64661e-08
5.5314e-08
5.42884e-08
5.33328e-08
5.24803e-08
5.16774e-08
5.09608e-08
5.02796e-08
4.96727e-08
4.9088e-08
4.85696e-08
4.80654e-08
4.76195e-08
4.718e-08
4.67939e-08
4.64092e-08
4.60739e-08
4.57352e-08
4.54427e-08
4.51432e-08
4.48868e-08
4.46203e-08
4.43948e-08
4.41558e-08
4.39567e-08
4.37435e-08
4.35674e-08
4.33747e-08
4.32186e-08
4.30458e-08
4.29069e-08
4.27491e-08
4.2628e-08
4.24853e-08
4.23779e-08
4.22458e-08
4.21503e-08
4.20349e-08
4.19471e-08
4.18421e-08
4.17659e-08
4.16636e-08
4.15986e-08
4.15046e-08
4.1446e-08
4.13597e-08
4.13048e-08
4.12219e-08
4.11701e-08
4.11009e-08
4.10484e-08
4.09868e-08
4.09357e-08
4.08803e-08
4.08329e-08
4.07783e-08
4.07314e-08
4.06781e-08
4.06325e-08
4.05823e-08
4.05391e-08
4.04917e-08
4.04496e-08
4.04048e-08
4.03631e-08
4.03213e-08
4.02799e-08
4.02415e-08
4.02003e-08
4.01688e-08
4.01242e-08
4.00943e-08
4.00474e-08
4.00258e-08
4.03687e-08
3.56096e-06
2.7553e-08
1.24541e-07
1.23515e-07
1.1979e-07
1.1378e-07
1.06801e-07
9.99041e-08
9.35605e-08
8.7955e-08
8.30477e-08
7.87989e-08
7.50907e-08
7.18741e-08
6.90411e-08
6.65681e-08
6.4365e-08
6.24277e-08
6.06811e-08
5.91365e-08
5.77282e-08
5.64778e-08
5.53247e-08
5.42982e-08
5.33417e-08
5.24883e-08
5.16846e-08
5.09674e-08
5.02855e-08
4.9678e-08
4.90927e-08
4.85738e-08
4.80691e-08
4.76227e-08
4.71828e-08
4.67964e-08
4.64112e-08
4.60756e-08
4.57365e-08
4.54437e-08
4.51439e-08
4.48873e-08
4.46204e-08
4.43947e-08
4.41554e-08
4.39561e-08
4.37427e-08
4.35664e-08
4.33735e-08
4.32172e-08
4.30443e-08
4.29051e-08
4.27471e-08
4.26259e-08
4.24831e-08
4.23755e-08
4.22433e-08
4.21477e-08
4.20321e-08
4.19442e-08
4.18391e-08
4.17628e-08
4.16604e-08
4.15953e-08
4.15011e-08
4.14425e-08
4.1356e-08
4.13012e-08
4.12182e-08
4.11663e-08
4.1097e-08
4.10445e-08
4.09828e-08
4.09316e-08
4.08762e-08
4.08287e-08
4.07741e-08
4.07271e-08
4.06738e-08
4.06282e-08
4.05779e-08
4.05346e-08
4.04871e-08
4.0445e-08
4.04001e-08
4.03583e-08
4.03165e-08
4.02751e-08
4.02366e-08
4.01954e-08
4.01637e-08
4.01191e-08
4.0089e-08
4.00421e-08
4.00204e-08
4.03652e-08
3.5579e-06
2.79471e-08
1.2454e-07
1.23516e-07
1.19802e-07
1.13804e-07
1.06832e-07
9.99404e-08
9.35982e-08
8.79923e-08
8.30835e-08
7.88327e-08
7.51222e-08
7.19032e-08
6.9068e-08
6.65929e-08
6.43877e-08
6.24485e-08
6.07002e-08
5.91539e-08
5.77441e-08
5.64924e-08
5.53379e-08
5.43102e-08
5.33526e-08
5.24983e-08
5.16937e-08
5.09755e-08
5.02928e-08
4.96846e-08
4.90986e-08
4.8579e-08
4.80737e-08
4.76268e-08
4.71863e-08
4.67994e-08
4.64138e-08
4.60777e-08
4.57382e-08
4.5445e-08
4.51448e-08
4.48878e-08
4.46207e-08
4.43946e-08
4.4155e-08
4.39554e-08
4.37417e-08
4.35652e-08
4.3372e-08
4.32155e-08
4.30424e-08
4.2903e-08
4.27448e-08
4.26234e-08
4.24804e-08
4.23727e-08
4.22402e-08
4.21445e-08
4.20288e-08
4.19407e-08
4.18354e-08
4.1759e-08
4.16565e-08
4.15912e-08
4.1497e-08
4.14382e-08
4.13516e-08
4.12967e-08
4.12137e-08
4.11617e-08
4.10923e-08
4.10397e-08
4.09779e-08
4.09267e-08
4.08712e-08
4.08236e-08
4.0769e-08
4.07219e-08
4.06685e-08
4.06228e-08
4.05724e-08
4.05291e-08
4.04815e-08
4.04393e-08
4.03944e-08
4.03525e-08
4.03106e-08
4.02692e-08
4.02306e-08
4.01893e-08
4.01576e-08
4.01129e-08
4.00825e-08
4.00356e-08
4.00138e-08
4.03609e-08
3.55422e-06
2.83729e-08
1.24538e-07
1.23518e-07
1.19816e-07
1.13832e-07
1.0687e-07
9.99835e-08
9.36431e-08
8.80368e-08
8.31263e-08
7.8873e-08
7.51599e-08
7.19381e-08
6.91002e-08
6.66225e-08
6.44149e-08
6.24734e-08
6.0723e-08
5.91748e-08
5.77632e-08
5.65098e-08
5.53538e-08
5.43247e-08
5.33658e-08
5.25102e-08
5.17045e-08
5.09853e-08
5.03016e-08
4.96925e-08
4.91057e-08
4.85853e-08
4.80793e-08
4.76317e-08
4.71906e-08
4.68031e-08
4.64169e-08
4.60803e-08
4.57402e-08
4.54466e-08
4.51459e-08
4.48886e-08
4.4621e-08
4.43946e-08
4.41546e-08
4.39547e-08
4.37406e-08
4.35638e-08
4.33704e-08
4.32136e-08
4.30401e-08
4.29006e-08
4.27421e-08
4.26205e-08
4.24772e-08
4.23693e-08
4.22367e-08
4.21407e-08
4.20248e-08
4.19365e-08
4.18311e-08
4.17545e-08
4.16518e-08
4.15864e-08
4.1492e-08
4.14331e-08
4.13464e-08
4.12915e-08
4.12083e-08
4.11562e-08
4.10867e-08
4.10341e-08
4.09721e-08
4.09208e-08
4.08652e-08
4.08176e-08
4.07628e-08
4.07157e-08
4.06622e-08
4.06165e-08
4.0566e-08
4.05226e-08
4.04749e-08
4.04326e-08
4.03876e-08
4.03457e-08
4.03036e-08
4.02621e-08
4.02234e-08
4.01821e-08
4.01502e-08
4.01055e-08
4.00748e-08
4.00278e-08
4.0006e-08
4.03559e-08
3.54998e-06
2.88341e-08
1.24535e-07
1.2352e-07
1.19833e-07
1.13864e-07
1.06914e-07
1.00034e-07
9.36955e-08
8.80886e-08
8.31761e-08
7.89201e-08
7.52038e-08
7.19789e-08
6.91378e-08
6.66571e-08
6.44466e-08
6.25025e-08
6.07496e-08
5.91992e-08
5.77855e-08
5.65301e-08
5.53724e-08
5.43416e-08
5.33812e-08
5.25242e-08
5.17172e-08
5.09968e-08
5.0312e-08
4.97019e-08
4.9114e-08
4.85928e-08
4.80858e-08
4.76375e-08
4.71956e-08
4.68074e-08
4.64205e-08
4.60833e-08
4.57427e-08
4.54485e-08
4.51473e-08
4.48895e-08
4.46214e-08
4.43946e-08
4.41542e-08
4.39539e-08
4.37394e-08
4.35623e-08
4.33685e-08
4.32114e-08
4.30376e-08
4.28978e-08
4.2739e-08
4.26171e-08
4.24735e-08
4.23654e-08
4.22325e-08
4.21363e-08
4.20202e-08
4.19318e-08
4.1826e-08
4.17494e-08
4.16464e-08
4.15809e-08
4.14863e-08
4.14272e-08
4.13403e-08
4.12853e-08
4.12021e-08
4.11498e-08
4.10801e-08
4.10275e-08
4.09653e-08
4.0914e-08
4.08583e-08
4.08106e-08
4.07558e-08
4.07086e-08
4.06549e-08
4.06091e-08
4.05585e-08
4.0515e-08
4.04672e-08
4.04248e-08
4.03797e-08
4.03377e-08
4.02955e-08
4.02539e-08
4.02151e-08
4.01737e-08
4.01417e-08
4.00969e-08
4.00658e-08
4.00188e-08
3.99969e-08
4.03501e-08
3.54521e-06
2.93367e-08
1.24532e-07
1.23522e-07
1.19851e-07
1.13901e-07
1.06965e-07
1.00091e-07
9.37554e-08
8.8148e-08
8.32332e-08
7.8974e-08
7.52542e-08
7.20256e-08
6.91809e-08
6.66968e-08
6.44831e-08
6.2536e-08
6.07803e-08
5.92273e-08
5.78112e-08
5.65536e-08
5.53938e-08
5.43611e-08
5.33989e-08
5.25404e-08
5.17318e-08
5.10101e-08
5.0324e-08
4.97126e-08
4.91237e-08
4.86014e-08
4.80934e-08
4.76442e-08
4.72015e-08
4.68125e-08
4.64248e-08
4.60869e-08
4.57456e-08
4.54508e-08
4.5149e-08
4.48906e-08
4.4622e-08
4.43947e-08
4.41538e-08
4.3953e-08
4.37381e-08
4.35606e-08
4.33663e-08
4.32089e-08
4.30347e-08
4.28946e-08
4.27354e-08
4.26133e-08
4.24694e-08
4.2361e-08
4.22278e-08
4.21314e-08
4.20149e-08
4.19263e-08
4.18203e-08
4.17435e-08
4.16403e-08
4.15746e-08
4.14798e-08
4.14205e-08
4.13334e-08
4.12784e-08
4.11951e-08
4.11426e-08
4.10727e-08
4.10201e-08
4.09577e-08
4.09063e-08
4.08504e-08
4.08027e-08
4.07477e-08
4.07004e-08
4.06466e-08
4.06007e-08
4.05499e-08
4.05064e-08
4.04584e-08
4.0416e-08
4.03706e-08
4.03286e-08
4.02862e-08
4.02446e-08
4.02056e-08
4.01641e-08
4.0132e-08
4.00871e-08
4.00556e-08
4.00086e-08
3.99865e-08
4.03436e-08
3.53997e-06
2.98887e-08
1.24529e-07
1.23524e-07
1.19872e-07
1.13943e-07
1.07021e-07
1.00156e-07
9.3823e-08
8.8215e-08
8.32977e-08
7.9035e-08
7.53112e-08
7.20785e-08
6.92298e-08
6.67418e-08
6.45244e-08
6.25739e-08
6.0815e-08
5.92591e-08
5.78403e-08
5.65802e-08
5.54181e-08
5.43833e-08
5.34191e-08
5.25587e-08
5.17485e-08
5.10251e-08
5.03376e-08
4.97249e-08
4.91347e-08
4.86112e-08
4.81021e-08
4.76519e-08
4.72081e-08
4.68183e-08
4.64297e-08
4.60911e-08
4.57489e-08
4.54534e-08
4.51509e-08
4.48919e-08
4.46227e-08
4.43949e-08
4.41534e-08
4.39521e-08
4.37367e-08
4.35587e-08
4.3364e-08
4.32062e-08
4.30315e-08
4.28911e-08
4.27315e-08
4.26091e-08
4.24647e-08
4.23561e-08
4.22226e-08
4.21258e-08
4.20091e-08
4.19203e-08
4.18139e-08
4.17369e-08
4.16335e-08
4.15675e-08
4.14725e-08
4.1413e-08
4.13257e-08
4.12706e-08
4.11871e-08
4.11344e-08
4.10644e-08
4.10117e-08
4.0949e-08
4.08976e-08
4.08416e-08
4.07937e-08
4.07386e-08
4.06912e-08
4.06373e-08
4.05913e-08
4.05403e-08
4.04967e-08
4.04485e-08
4.0406e-08
4.03605e-08
4.03184e-08
4.02758e-08
4.02341e-08
4.0195e-08
4.01533e-08
4.01211e-08
4.00761e-08
4.00441e-08
3.9997e-08
3.99749e-08
4.03363e-08
3.53427e-06
3.04998e-08
1.24526e-07
1.23527e-07
1.19896e-07
1.13989e-07
1.07084e-07
1.00228e-07
9.38983e-08
8.82898e-08
8.33698e-08
7.91032e-08
7.5375e-08
7.21377e-08
6.92845e-08
6.67921e-08
6.45707e-08
6.26164e-08
6.0854e-08
5.92947e-08
5.78729e-08
5.661e-08
5.54453e-08
5.44081e-08
5.34418e-08
5.25793e-08
5.17672e-08
5.10421e-08
5.03529e-08
4.97387e-08
4.9147e-08
4.86223e-08
4.81119e-08
4.76606e-08
4.72157e-08
4.68248e-08
4.64353e-08
4.60958e-08
4.57528e-08
4.54565e-08
4.51532e-08
4.48935e-08
4.46236e-08
4.43951e-08
4.4153e-08
4.39512e-08
4.37352e-08
4.35567e-08
4.33615e-08
4.32032e-08
4.30281e-08
4.28873e-08
4.27272e-08
4.26044e-08
4.24597e-08
4.23507e-08
4.22168e-08
4.21197e-08
4.20026e-08
4.19136e-08
4.18068e-08
4.17297e-08
4.16259e-08
4.15597e-08
4.14644e-08
4.14047e-08
4.13171e-08
4.12619e-08
4.11783e-08
4.11254e-08
4.10551e-08
4.10024e-08
4.09395e-08
4.0888e-08
4.08318e-08
4.07838e-08
4.07285e-08
4.0681e-08
4.06269e-08
4.05808e-08
4.05296e-08
4.04859e-08
4.04375e-08
4.03949e-08
4.03492e-08
4.0307e-08
4.02642e-08
4.02225e-08
4.01831e-08
4.01414e-08
4.01089e-08
4.00638e-08
4.00313e-08
3.99842e-08
3.99619e-08
4.03282e-08
3.52815e-06
3.11805e-08
1.24522e-07
1.2353e-07
1.19921e-07
1.1404e-07
1.07153e-07
1.00308e-07
9.39817e-08
8.83726e-08
8.34497e-08
7.91788e-08
7.54457e-08
7.22034e-08
6.93452e-08
6.68481e-08
6.46222e-08
6.26636e-08
6.08973e-08
5.93344e-08
5.79092e-08
5.66432e-08
5.54757e-08
5.44358e-08
5.3467e-08
5.26023e-08
5.1788e-08
5.1061e-08
5.037e-08
4.97542e-08
4.91609e-08
4.86346e-08
4.81229e-08
4.76703e-08
4.72242e-08
4.68322e-08
4.64416e-08
4.61011e-08
4.57571e-08
4.546e-08
4.51558e-08
4.48954e-08
4.46246e-08
4.43955e-08
4.41527e-08
4.39503e-08
4.37336e-08
4.35546e-08
4.33588e-08
4.32e-08
4.30243e-08
4.28831e-08
4.27225e-08
4.25993e-08
4.24541e-08
4.23448e-08
4.22105e-08
4.21131e-08
4.19956e-08
4.19062e-08
4.17991e-08
4.17217e-08
4.16176e-08
4.15511e-08
4.14555e-08
4.13955e-08
4.13077e-08
4.12524e-08
4.11686e-08
4.11154e-08
4.1045e-08
4.09922e-08
4.09289e-08
4.08773e-08
4.08209e-08
4.07729e-08
4.07174e-08
4.06698e-08
4.06155e-08
4.05693e-08
4.05179e-08
4.0474e-08
4.04254e-08
4.03827e-08
4.03368e-08
4.02945e-08
4.02515e-08
4.02096e-08
4.017e-08
4.01282e-08
4.00955e-08
4.00503e-08
4.00172e-08
3.997e-08
3.99476e-08
4.03194e-08
3.52158e-06
3.19423e-08
1.24518e-07
1.23533e-07
1.19949e-07
1.14095e-07
1.07229e-07
1.00395e-07
9.40731e-08
8.84636e-08
8.35374e-08
7.92619e-08
7.55235e-08
7.22757e-08
6.94121e-08
6.69097e-08
6.46789e-08
6.27157e-08
6.09451e-08
5.93782e-08
5.79493e-08
5.66799e-08
5.55092e-08
5.44665e-08
5.34949e-08
5.26278e-08
5.18112e-08
5.1082e-08
5.03889e-08
4.97713e-08
4.91763e-08
4.86484e-08
4.81352e-08
4.76812e-08
4.72337e-08
4.68405e-08
4.64487e-08
4.61071e-08
4.57621e-08
4.5464e-08
4.51588e-08
4.48976e-08
4.46259e-08
4.43961e-08
4.41525e-08
4.39494e-08
4.3732e-08
4.35524e-08
4.33559e-08
4.31966e-08
4.30203e-08
4.28786e-08
4.27175e-08
4.25938e-08
4.24481e-08
4.23384e-08
4.22037e-08
4.21058e-08
4.19879e-08
4.18982e-08
4.17906e-08
4.1713e-08
4.16085e-08
4.15418e-08
4.14458e-08
4.13856e-08
4.12974e-08
4.1242e-08
4.11581e-08
4.11045e-08
4.10339e-08
4.09811e-08
4.09174e-08
4.08658e-08
4.08091e-08
4.07609e-08
4.07053e-08
4.06576e-08
4.06031e-08
4.05567e-08
4.05051e-08
4.04611e-08
4.04122e-08
4.03694e-08
4.03232e-08
4.02808e-08
4.02375e-08
4.01956e-08
4.01557e-08
4.01137e-08
4.00809e-08
4.00355e-08
4.00018e-08
3.99546e-08
3.9932e-08
4.03098e-08
3.51452e-06
3.27972e-08
1.24514e-07
1.23536e-07
1.19979e-07
1.14155e-07
1.07312e-07
1.0049e-07
9.41727e-08
8.85628e-08
8.36333e-08
7.93527e-08
7.56086e-08
7.23548e-08
6.94853e-08
6.69773e-08
6.4741e-08
6.27728e-08
6.09975e-08
5.94263e-08
5.79933e-08
5.67202e-08
5.5546e-08
5.45001e-08
5.35256e-08
5.26557e-08
5.18366e-08
5.11051e-08
5.04098e-08
4.97902e-08
4.91933e-08
4.86637e-08
4.81487e-08
4.76932e-08
4.72443e-08
4.68497e-08
4.64566e-08
4.61138e-08
4.57676e-08
4.54685e-08
4.51623e-08
4.49001e-08
4.46275e-08
4.43968e-08
4.41524e-08
4.39486e-08
4.37304e-08
4.35502e-08
4.33529e-08
4.31931e-08
4.30161e-08
4.28739e-08
4.27121e-08
4.2588e-08
4.24417e-08
4.23316e-08
4.21963e-08
4.2098e-08
4.19796e-08
4.18896e-08
4.17815e-08
4.17036e-08
4.15987e-08
4.15317e-08
4.14354e-08
4.13748e-08
4.12863e-08
4.12308e-08
4.11466e-08
4.10928e-08
4.10218e-08
4.0969e-08
4.0905e-08
4.08532e-08
4.07963e-08
4.0748e-08
4.06921e-08
4.06443e-08
4.05895e-08
4.0543e-08
4.04911e-08
4.0447e-08
4.03979e-08
4.03549e-08
4.03084e-08
4.0266e-08
4.02224e-08
4.01803e-08
4.01402e-08
4.00981e-08
4.00649e-08
4.00195e-08
3.99851e-08
3.99378e-08
3.9915e-08
4.02995e-08
3.5069e-06
3.37577e-08
1.24509e-07
1.23539e-07
1.20011e-07
1.1422e-07
1.07401e-07
1.00592e-07
9.42807e-08
8.86705e-08
8.37374e-08
7.94515e-08
7.57012e-08
7.2441e-08
6.9565e-08
6.70508e-08
6.48088e-08
6.28351e-08
6.10547e-08
5.94787e-08
5.80414e-08
5.67643e-08
5.55863e-08
5.45369e-08
5.35592e-08
5.26864e-08
5.18645e-08
5.11305e-08
5.04328e-08
4.98109e-08
4.92119e-08
4.86804e-08
4.81636e-08
4.77065e-08
4.72559e-08
4.68599e-08
4.64654e-08
4.61213e-08
4.57738e-08
4.54735e-08
4.51662e-08
4.4903e-08
4.46294e-08
4.43978e-08
4.41524e-08
4.39478e-08
4.37288e-08
4.35478e-08
4.33499e-08
4.31893e-08
4.30116e-08
4.28689e-08
4.27065e-08
4.25818e-08
4.24348e-08
4.23243e-08
4.21885e-08
4.20897e-08
4.19708e-08
4.18804e-08
4.17718e-08
4.16936e-08
4.15882e-08
4.15208e-08
4.14242e-08
4.13632e-08
4.12744e-08
4.12187e-08
4.11343e-08
4.10801e-08
4.10089e-08
4.09559e-08
4.08915e-08
4.08397e-08
4.07825e-08
4.0734e-08
4.06779e-08
4.06299e-08
4.0575e-08
4.05283e-08
4.04761e-08
4.04318e-08
4.03824e-08
4.03393e-08
4.02925e-08
4.02499e-08
4.0206e-08
4.01639e-08
4.01234e-08
4.00812e-08
4.00477e-08
4.00022e-08
3.9967e-08
3.99196e-08
3.98967e-08
4.02884e-08
3.49858e-06
3.48363e-08
1.24504e-07
1.23543e-07
1.20045e-07
1.14289e-07
1.07496e-07
1.00703e-07
9.43972e-08
8.87868e-08
8.385e-08
7.95583e-08
7.58015e-08
7.25343e-08
6.96515e-08
6.71307e-08
6.48823e-08
6.29027e-08
6.11168e-08
5.95357e-08
5.80937e-08
5.68122e-08
5.56302e-08
5.4577e-08
5.35958e-08
5.27198e-08
5.18949e-08
5.11581e-08
5.04578e-08
4.98336e-08
4.92323e-08
4.86988e-08
4.818e-08
4.7721e-08
4.72688e-08
4.68712e-08
4.64751e-08
4.61296e-08
4.57807e-08
4.54792e-08
4.51706e-08
4.49063e-08
4.46316e-08
4.43991e-08
4.41527e-08
4.39472e-08
4.37272e-08
4.35455e-08
4.33467e-08
4.31855e-08
4.3007e-08
4.28636e-08
4.27005e-08
4.25752e-08
4.24276e-08
4.23165e-08
4.21802e-08
4.20809e-08
4.19614e-08
4.18706e-08
4.17614e-08
4.16829e-08
4.1577e-08
4.15093e-08
4.14122e-08
4.13509e-08
4.12616e-08
4.12057e-08
4.11211e-08
4.10665e-08
4.0995e-08
4.09419e-08
4.08771e-08
4.08252e-08
4.07677e-08
4.07191e-08
4.06627e-08
4.06146e-08
4.05593e-08
4.05125e-08
4.046e-08
4.04155e-08
4.03658e-08
4.03226e-08
4.02754e-08
4.02327e-08
4.01885e-08
4.01462e-08
4.01054e-08
4.0063e-08
4.00293e-08
3.99835e-08
3.99477e-08
3.99002e-08
3.98771e-08
4.02765e-08
3.48937e-06
3.60458e-08
1.24498e-07
1.23546e-07
1.20081e-07
1.14362e-07
1.07598e-07
1.00822e-07
9.45223e-08
8.89118e-08
8.39712e-08
7.96735e-08
7.59096e-08
7.26351e-08
6.97449e-08
6.72169e-08
6.49618e-08
6.29758e-08
6.1184e-08
5.95975e-08
5.81503e-08
5.68641e-08
5.56777e-08
5.46205e-08
5.36356e-08
5.27561e-08
5.19279e-08
5.11882e-08
5.04851e-08
4.98583e-08
4.92546e-08
4.87188e-08
4.81979e-08
4.7737e-08
4.72828e-08
4.68836e-08
4.64858e-08
4.61388e-08
4.57884e-08
4.54856e-08
4.51756e-08
4.49102e-08
4.46342e-08
4.44007e-08
4.41532e-08
4.39467e-08
4.37257e-08
4.35432e-08
4.33435e-08
4.31815e-08
4.30022e-08
4.28582e-08
4.26942e-08
4.25683e-08
4.242e-08
4.23084e-08
4.21714e-08
4.20716e-08
4.19514e-08
4.18602e-08
4.17504e-08
4.16715e-08
4.15652e-08
4.1497e-08
4.13994e-08
4.13378e-08
4.12481e-08
4.11919e-08
4.1107e-08
4.10521e-08
4.09802e-08
4.0927e-08
4.08618e-08
4.08098e-08
4.07518e-08
4.07031e-08
4.06465e-08
4.05982e-08
4.05426e-08
4.04956e-08
4.04428e-08
4.03981e-08
4.0348e-08
4.03047e-08
4.02572e-08
4.02143e-08
4.01697e-08
4.01273e-08
4.00862e-08
4.00436e-08
4.00095e-08
3.99637e-08
3.99269e-08
3.98793e-08
3.9856e-08
4.02637e-08
3.47902e-06
3.73987e-08
1.24493e-07
1.23549e-07
1.20119e-07
1.14441e-07
1.07707e-07
1.00948e-07
9.46561e-08
8.90459e-08
8.41012e-08
7.97972e-08
7.60258e-08
7.27434e-08
6.98454e-08
6.73098e-08
6.50474e-08
6.30547e-08
6.12565e-08
5.96641e-08
5.82114e-08
5.69201e-08
5.57291e-08
5.46676e-08
5.36786e-08
5.27954e-08
5.19638e-08
5.12209e-08
5.05147e-08
4.98852e-08
4.92789e-08
4.87406e-08
4.82174e-08
4.77544e-08
4.72982e-08
4.68971e-08
4.64975e-08
4.6149e-08
4.57969e-08
4.54927e-08
4.51813e-08
4.49145e-08
4.46373e-08
4.44026e-08
4.41539e-08
4.39465e-08
4.37244e-08
4.3541e-08
4.33403e-08
4.31775e-08
4.29973e-08
4.28525e-08
4.26877e-08
4.25612e-08
4.24121e-08
4.22999e-08
4.21622e-08
4.20618e-08
4.1941e-08
4.18493e-08
4.17388e-08
4.16595e-08
4.15526e-08
4.1484e-08
4.1386e-08
4.13239e-08
4.12337e-08
4.11773e-08
4.10921e-08
4.10368e-08
4.09646e-08
4.09112e-08
4.08455e-08
4.07934e-08
4.07351e-08
4.06862e-08
4.06293e-08
4.05807e-08
4.05249e-08
4.04777e-08
4.04245e-08
4.03797e-08
4.03292e-08
4.02856e-08
4.02378e-08
4.01948e-08
4.01498e-08
4.01072e-08
4.00657e-08
4.00229e-08
3.99885e-08
3.99425e-08
3.99049e-08
3.98572e-08
3.98337e-08
4.02502e-08
3.46723e-06
3.89074e-08
1.24487e-07
1.23553e-07
1.20159e-07
1.14523e-07
1.07823e-07
1.01083e-07
9.47988e-08
8.9189e-08
8.42402e-08
7.99296e-08
7.61503e-08
7.28596e-08
6.99532e-08
6.74095e-08
6.51394e-08
6.31394e-08
6.13345e-08
5.97357e-08
5.82773e-08
5.69805e-08
5.57844e-08
5.47183e-08
5.3725e-08
5.28378e-08
5.20025e-08
5.12561e-08
5.05468e-08
4.99143e-08
4.93051e-08
4.87644e-08
4.82387e-08
4.77734e-08
4.73151e-08
4.6912e-08
4.65105e-08
4.61601e-08
4.58064e-08
4.55006e-08
4.51876e-08
4.49195e-08
4.46409e-08
4.4405e-08
4.41551e-08
4.39465e-08
4.37233e-08
4.35389e-08
4.33372e-08
4.31735e-08
4.29923e-08
4.28468e-08
4.26811e-08
4.25538e-08
4.24039e-08
4.2291e-08
4.21526e-08
4.20515e-08
4.193e-08
4.18379e-08
4.17266e-08
4.1647e-08
4.15394e-08
4.14703e-08
4.13718e-08
4.13092e-08
4.12186e-08
4.11619e-08
4.10764e-08
4.10206e-08
4.0948e-08
4.08945e-08
4.08283e-08
4.07762e-08
4.07173e-08
4.06683e-08
4.0611e-08
4.05623e-08
4.05061e-08
4.04587e-08
4.04051e-08
4.03601e-08
4.03092e-08
4.02655e-08
4.02172e-08
4.0174e-08
4.01287e-08
4.00859e-08
4.0044e-08
4.0001e-08
3.99662e-08
3.992e-08
3.98815e-08
3.98337e-08
3.98099e-08
4.02357e-08
3.4536e-06
4.05844e-08
1.2448e-07
1.23556e-07
1.20201e-07
1.14611e-07
1.07945e-07
1.01226e-07
9.49506e-08
8.93414e-08
8.43884e-08
8.00708e-08
7.62834e-08
7.29838e-08
7.00686e-08
6.75163e-08
6.5238e-08
6.32303e-08
6.14181e-08
5.98127e-08
5.83479e-08
5.70454e-08
5.5844e-08
5.47729e-08
5.3775e-08
5.28835e-08
5.20442e-08
5.12942e-08
5.05814e-08
4.99457e-08
4.93336e-08
4.87901e-08
4.82617e-08
4.77941e-08
4.73334e-08
4.69282e-08
4.65246e-08
4.61724e-08
4.58168e-08
4.55094e-08
4.51948e-08
4.49252e-08
4.46451e-08
4.44079e-08
4.41566e-08
4.39469e-08
4.37224e-08
4.3537e-08
4.33341e-08
4.31695e-08
4.29873e-08
4.2841e-08
4.26743e-08
4.25462e-08
4.23954e-08
4.22819e-08
4.21427e-08
4.20409e-08
4.19186e-08
4.18259e-08
4.17139e-08
4.16338e-08
4.15257e-08
4.14561e-08
4.13569e-08
4.12939e-08
4.12027e-08
4.11457e-08
4.10598e-08
4.10036e-08
4.09306e-08
4.08769e-08
4.08102e-08
4.0758e-08
4.06986e-08
4.06494e-08
4.05918e-08
4.05429e-08
4.04863e-08
4.04387e-08
4.03847e-08
4.03395e-08
4.02882e-08
4.02442e-08
4.01955e-08
4.01522e-08
4.01063e-08
4.00634e-08
4.00211e-08
3.99779e-08
3.99426e-08
3.98963e-08
3.98569e-08
3.98089e-08
3.97849e-08
4.02204e-08
3.43768e-06
4.24408e-08
1.24474e-07
1.2356e-07
1.20245e-07
1.14702e-07
1.08074e-07
1.01377e-07
9.51114e-08
8.95032e-08
8.45461e-08
8.02213e-08
7.64251e-08
7.31162e-08
7.01917e-08
6.76303e-08
6.53434e-08
6.33274e-08
6.15076e-08
5.9895e-08
5.84237e-08
5.7115e-08
5.59078e-08
5.48315e-08
5.38286e-08
5.29327e-08
5.20891e-08
5.13352e-08
5.06187e-08
4.99797e-08
4.93643e-08
4.88179e-08
4.82867e-08
4.78165e-08
4.73533e-08
4.69459e-08
4.65401e-08
4.61859e-08
4.58284e-08
4.55191e-08
4.52027e-08
4.49316e-08
4.46499e-08
4.44113e-08
4.41586e-08
4.39477e-08
4.37219e-08
4.35354e-08
4.33313e-08
4.31657e-08
4.29823e-08
4.28351e-08
4.26674e-08
4.25385e-08
4.23867e-08
4.22725e-08
4.21325e-08
4.203e-08
4.19068e-08
4.18136e-08
4.17007e-08
4.16202e-08
4.15113e-08
4.14412e-08
4.13414e-08
4.12779e-08
4.11861e-08
4.11287e-08
4.10424e-08
4.09858e-08
4.09123e-08
4.08584e-08
4.07912e-08
4.0739e-08
4.0679e-08
4.06296e-08
4.05717e-08
4.05225e-08
4.04656e-08
4.04177e-08
4.03633e-08
4.03178e-08
4.0266e-08
4.02219e-08
4.01727e-08
4.01292e-08
4.00829e-08
4.00398e-08
3.9997e-08
3.99536e-08
3.99178e-08
3.98713e-08
3.98309e-08
3.97828e-08
3.97585e-08
4.02041e-08
3.41895e-06
4.44869e-08
1.24467e-07
1.23563e-07
1.2029e-07
1.14798e-07
1.0821e-07
1.01537e-07
9.52816e-08
8.96747e-08
8.47133e-08
8.0381e-08
7.65758e-08
7.32572e-08
7.03229e-08
6.77518e-08
6.54557e-08
6.34311e-08
6.16032e-08
5.99831e-08
5.85046e-08
5.71895e-08
5.59762e-08
5.48942e-08
5.38862e-08
5.29854e-08
5.21374e-08
5.13793e-08
5.06589e-08
5.00163e-08
4.93975e-08
4.88479e-08
4.83137e-08
4.78408e-08
4.7375e-08
4.69652e-08
4.6557e-08
4.62007e-08
4.5841e-08
4.553e-08
4.52117e-08
4.49389e-08
4.46554e-08
4.44154e-08
4.41612e-08
4.39489e-08
4.37217e-08
4.3534e-08
4.33286e-08
4.31619e-08
4.29774e-08
4.28293e-08
4.26605e-08
4.25307e-08
4.23779e-08
4.22629e-08
4.2122e-08
4.20187e-08
4.18947e-08
4.18008e-08
4.16871e-08
4.1606e-08
4.14964e-08
4.14257e-08
4.13253e-08
4.12613e-08
4.11689e-08
4.1111e-08
4.10243e-08
4.09672e-08
4.08933e-08
4.08392e-08
4.07714e-08
4.07191e-08
4.06585e-08
4.06089e-08
4.05506e-08
4.05012e-08
4.04438e-08
4.03957e-08
4.03409e-08
4.02951e-08
4.02428e-08
4.01985e-08
4.01488e-08
4.01051e-08
4.00583e-08
4.0015e-08
3.99717e-08
3.99281e-08
3.98918e-08
3.98451e-08
3.98036e-08
3.97554e-08
3.97308e-08
4.01869e-08
3.39683e-06
4.67317e-08
1.24459e-07
1.23566e-07
1.20337e-07
1.14899e-07
1.08353e-07
1.01705e-07
9.54611e-08
8.98559e-08
8.48903e-08
8.05504e-08
7.67358e-08
7.34069e-08
7.04623e-08
6.78811e-08
6.55754e-08
6.35416e-08
6.17051e-08
6.00769e-08
5.85911e-08
5.7269e-08
5.60493e-08
5.49614e-08
5.39478e-08
5.30419e-08
5.21891e-08
5.14266e-08
5.0702e-08
5.00556e-08
4.94332e-08
4.88803e-08
4.83429e-08
4.78671e-08
4.73985e-08
4.69861e-08
4.65755e-08
4.62169e-08
4.5855e-08
4.55419e-08
4.52216e-08
4.49471e-08
4.46618e-08
4.44202e-08
4.41644e-08
4.39507e-08
4.37219e-08
4.3533e-08
4.33263e-08
4.31585e-08
4.29726e-08
4.28236e-08
4.26536e-08
4.25229e-08
4.2369e-08
4.22531e-08
4.21113e-08
4.20072e-08
4.18822e-08
4.17877e-08
4.16731e-08
4.15914e-08
4.14811e-08
4.14098e-08
4.13087e-08
4.12441e-08
4.1151e-08
4.10927e-08
4.10055e-08
4.09479e-08
4.08735e-08
4.08191e-08
4.07508e-08
4.06984e-08
4.06371e-08
4.05874e-08
4.05286e-08
4.0479e-08
4.04212e-08
4.03728e-08
4.03174e-08
4.02714e-08
4.02186e-08
4.0174e-08
4.01239e-08
4.00799e-08
4.00326e-08
3.9989e-08
3.99452e-08
3.99014e-08
3.98645e-08
3.98177e-08
3.97752e-08
3.97268e-08
3.97019e-08
4.01685e-08
3.37068e-06
4.91819e-08
1.24452e-07
1.23569e-07
1.20386e-07
1.15003e-07
1.08502e-07
1.01881e-07
9.56501e-08
9.00471e-08
8.50774e-08
8.07296e-08
7.69052e-08
7.35657e-08
7.06102e-08
6.80184e-08
6.57025e-08
6.36591e-08
6.18136e-08
6.01769e-08
5.86832e-08
5.73538e-08
5.61274e-08
5.50331e-08
5.40137e-08
5.31024e-08
5.22445e-08
5.14774e-08
5.07483e-08
5.00979e-08
4.94717e-08
4.89152e-08
4.83745e-08
4.78956e-08
4.7424e-08
4.70089e-08
4.65956e-08
4.62347e-08
4.58704e-08
4.55552e-08
4.52327e-08
4.49563e-08
4.46691e-08
4.44259e-08
4.41683e-08
4.39531e-08
4.37228e-08
4.35325e-08
4.33243e-08
4.31553e-08
4.29681e-08
4.2818e-08
4.26467e-08
4.25151e-08
4.236e-08
4.22433e-08
4.21005e-08
4.19955e-08
4.18695e-08
4.17743e-08
4.16587e-08
4.15765e-08
4.14653e-08
4.13933e-08
4.12915e-08
4.12263e-08
4.11326e-08
4.10736e-08
4.0986e-08
4.09279e-08
4.08529e-08
4.07983e-08
4.07294e-08
4.06769e-08
4.06149e-08
4.0565e-08
4.05058e-08
4.04559e-08
4.03976e-08
4.0349e-08
4.02931e-08
4.02468e-08
4.01935e-08
4.01486e-08
4.00979e-08
4.00537e-08
4.00058e-08
3.9962e-08
3.99176e-08
3.98735e-08
3.98361e-08
3.97891e-08
3.97454e-08
3.96969e-08
3.96717e-08
4.0149e-08
3.3398e-06
5.18416e-08
1.24444e-07
1.23572e-07
1.20437e-07
1.15112e-07
1.08658e-07
1.02066e-07
9.58486e-08
9.02484e-08
8.52747e-08
8.09188e-08
7.70842e-08
7.37337e-08
7.07669e-08
6.8164e-08
6.58374e-08
6.37839e-08
6.19288e-08
6.02833e-08
5.87812e-08
5.74441e-08
5.62105e-08
5.51096e-08
5.4084e-08
5.3167e-08
5.23037e-08
5.15317e-08
5.0798e-08
5.01432e-08
4.9513e-08
4.89528e-08
4.84084e-08
4.79263e-08
4.74515e-08
4.70336e-08
4.66175e-08
4.6254e-08
4.58872e-08
4.55698e-08
4.52451e-08
4.49667e-08
4.46775e-08
4.44324e-08
4.4173e-08
4.39562e-08
4.37242e-08
4.35326e-08
4.33228e-08
4.31526e-08
4.29639e-08