/*--------------------------------*- C++ -*----------------------------------*\
| =========                 |                                                 |
| \\      /  F ield         | OpenFOAM: The Open Source CFD Toolbox           |
|  \\    /   O peration     | Version:  v2012                                 |
|   \\  /    A nd           | Website:  www.openfoam.com                      |
|    \\/     M anipulation  |                                                 |
\*---------------------------------------------------------------------------*/
FoamFile
{
    version     2.0;
    format      ascii;
    class       volVectorField;
    location    "43.5";
    object      wallShearStress;
}
// * * * * * * * * * * * * * * * * * * * * * * * * * * * * * * * * * * * * * //

dimensions      [0 2 -2 0 0 0 0];


internalField   uniform (0 0 0);

boundaryField
{
    inlet
    {
        type            calculated;
        value           uniform (0 0 0);
    }
    outlet
    {
        type            calculated;
        value           uniform (0 0 0);
    }
    topWall
    {
        type            calculated;
        value           nonuniform List<vector> 
545
(
(6.78068e-08 -4.77266e-08 0)
(6.77793e-08 -1.33536e-07 0)
(6.77145e-08 -2.2271e-07 0)
(6.76532e-08 -3.09294e-07 0)
(6.75764e-08 -3.92179e-07 0)
(6.74862e-08 -4.7243e-07 0)
(6.73835e-08 -5.50729e-07 0)
(6.72689e-08 -6.2704e-07 0)
(6.71435e-08 -7.01193e-07 0)
(6.70084e-08 -7.73188e-07 0)
(6.68644e-08 -8.43119e-07 0)
(6.67124e-08 -9.11066e-07 0)
(6.65532e-08 -9.77076e-07 0)
(6.63875e-08 -1.04119e-06 0)
(6.62162e-08 -1.10345e-06 0)
(6.60397e-08 -1.16391e-06 0)
(6.58588e-08 -1.22261e-06 0)
(6.56741e-08 -1.27961e-06 0)
(6.54861e-08 -1.33495e-06 0)
(6.52953e-08 -1.38867e-06 0)
(6.51022e-08 -1.44082e-06 0)
(6.49072e-08 -1.49145e-06 0)
(6.47107e-08 -1.54059e-06 0)
(6.45132e-08 -1.58829e-06 0)
(6.4315e-08 -1.63459e-06 0)
(6.41164e-08 -1.67953e-06 0)
(6.39177e-08 -1.72315e-06 0)
(6.37193e-08 -1.76549e-06 0)
(6.35213e-08 -1.80658e-06 0)
(6.33241e-08 -1.84647e-06 0)
(6.31278e-08 -1.88518e-06 0)
(6.29326e-08 -1.92276e-06 0)
(6.27388e-08 -1.95923e-06 0)
(6.25464e-08 -1.99463e-06 0)
(6.23557e-08 -2.02899e-06 0)
(6.21669e-08 -2.06235e-06 0)
(6.19799e-08 -2.09472e-06 0)
(6.1795e-08 -2.12615e-06 0)
(6.16122e-08 -2.15666e-06 0)
(6.14317e-08 -2.18628e-06 0)
(6.12534e-08 -2.21503e-06 0)
(6.10776e-08 -2.24294e-06 0)
(6.09042e-08 -2.27004e-06 0)
(6.07332e-08 -2.29635e-06 0)
(6.05649e-08 -2.3219e-06 0)
(6.03991e-08 -2.3467e-06 0)
(6.02359e-08 -2.37078e-06 0)
(6.00753e-08 -2.39417e-06 0)
(5.99174e-08 -2.41688e-06 0)
(5.97622e-08 -2.43893e-06 0)
(5.96097e-08 -2.46034e-06 0)
(5.94598e-08 -2.48114e-06 0)
(5.93126e-08 -2.50134e-06 0)
(5.91681e-08 -2.52096e-06 0)
(5.90262e-08 -2.54001e-06 0)
(5.8887e-08 -2.55852e-06 0)
(5.87504e-08 -2.5765e-06 0)
(5.86165e-08 -2.59396e-06 0)
(5.84851e-08 -2.61093e-06 0)
(5.83564e-08 -2.62741e-06 0)
(5.82301e-08 -2.64342e-06 0)
(5.81064e-08 -2.65897e-06 0)
(5.79852e-08 -2.67409e-06 0)
(5.78665e-08 -2.68877e-06 0)
(5.77502e-08 -2.70304e-06 0)
(5.76363e-08 -2.7169e-06 0)
(5.75247e-08 -2.73038e-06 0)
(5.74155e-08 -2.74347e-06 0)
(5.73086e-08 -2.75619e-06 0)
(5.72039e-08 -2.76855e-06 0)
(5.71016e-08 -2.78058e-06 0)
(5.70007e-08 -2.79223e-06 0)
(5.69035e-08 -2.80345e-06 0)
(5.68098e-08 -2.81436e-06 0)
(5.67166e-08 -2.82511e-06 0)
(5.66237e-08 -2.83582e-06 0)
(5.65309e-08 -2.84648e-06 0)
(5.64383e-08 -2.85708e-06 0)
(5.63457e-08 -2.86761e-06 0)
(5.62533e-08 -2.87807e-06 0)
(5.61609e-08 -2.88847e-06 0)
(5.60687e-08 -2.8988e-06 0)
(5.59765e-08 -2.90907e-06 0)
(5.58845e-08 -2.91928e-06 0)
(5.57926e-08 -2.92942e-06 0)
(5.57008e-08 -2.9395e-06 0)
(5.56091e-08 -2.94951e-06 0)
(5.55175e-08 -2.95947e-06 0)
(5.54261e-08 -2.96936e-06 0)
(5.53348e-08 -2.97919e-06 0)
(5.52436e-08 -2.98896e-06 0)
(5.51526e-08 -2.99867e-06 0)
(5.50617e-08 -3.00832e-06 0)
(5.49707e-08 -3.0179e-06 0)
(5.48809e-08 -3.0275e-06 0)
(5.47832e-08 -3.03677e-06 0)
(5.46922e-08 -3.04535e-06 0)
(5.4617e-08 -3.05327e-06 0)
(5.45419e-08 -3.06079e-06 0)
(5.44677e-08 -3.06839e-06 0)
(5.43934e-08 -3.07606e-06 0)
(5.43187e-08 -3.08377e-06 0)
(5.42438e-08 -3.09146e-06 0)
(5.41685e-08 -3.09915e-06 0)
(5.40928e-08 -3.10685e-06 0)
(5.40168e-08 -3.11456e-06 0)
(5.39405e-08 -3.12228e-06 0)
(5.38638e-08 -3.13e-06 0)
(5.37867e-08 -3.13773e-06 0)
(5.37093e-08 -3.14547e-06 0)
(5.36315e-08 -3.15322e-06 0)
(5.35534e-08 -3.16097e-06 0)
(5.3475e-08 -3.16873e-06 0)
(5.33962e-08 -3.1765e-06 0)
(5.3317e-08 -3.18427e-06 0)
(5.32374e-08 -3.19205e-06 0)
(5.31575e-08 -3.19983e-06 0)
(5.30773e-08 -3.20763e-06 0)
(5.29966e-08 -3.21543e-06 0)
(5.29156e-08 -3.22323e-06 0)
(5.28343e-08 -3.23105e-06 0)
(5.27526e-08 -3.23887e-06 0)
(5.26705e-08 -3.24669e-06 0)
(5.2588e-08 -3.25452e-06 0)
(5.25052e-08 -3.26236e-06 0)
(5.2422e-08 -3.2702e-06 0)
(5.23384e-08 -3.27805e-06 0)
(5.22545e-08 -3.28591e-06 0)
(5.21702e-08 -3.29377e-06 0)
(5.20855e-08 -3.30164e-06 0)
(5.20004e-08 -3.30951e-06 0)
(5.1915e-08 -3.31739e-06 0)
(5.18292e-08 -3.32527e-06 0)
(5.1743e-08 -3.33316e-06 0)
(5.16564e-08 -3.34106e-06 0)
(5.15695e-08 -3.34896e-06 0)
(5.14822e-08 -3.35687e-06 0)
(5.13945e-08 -3.36478e-06 0)
(5.13064e-08 -3.37269e-06 0)
(5.12179e-08 -3.38061e-06 0)
(5.1129e-08 -3.38854e-06 0)
(5.10398e-08 -3.39647e-06 0)
(5.09502e-08 -3.40441e-06 0)
(5.08602e-08 -3.41235e-06 0)
(5.07698e-08 -3.42029e-06 0)
(5.0679e-08 -3.42824e-06 0)
(5.05878e-08 -3.4362e-06 0)
(5.04963e-08 -3.44415e-06 0)
(5.04043e-08 -3.45212e-06 0)
(5.0312e-08 -3.46008e-06 0)
(5.02192e-08 -3.46805e-06 0)
(5.01261e-08 -3.47603e-06 0)
(5.00326e-08 -3.48401e-06 0)
(4.99387e-08 -3.49199e-06 0)
(4.98444e-08 -3.49998e-06 0)
(4.97497e-08 -3.50797e-06 0)
(4.96546e-08 -3.51596e-06 0)
(4.95591e-08 -3.52396e-06 0)
(4.94632e-08 -3.53196e-06 0)
(4.93669e-08 -3.53996e-06 0)
(4.92702e-08 -3.54797e-06 0)
(4.91732e-08 -3.55598e-06 0)
(4.90757e-08 -3.564e-06 0)
(4.89778e-08 -3.57201e-06 0)
(4.88795e-08 -3.58003e-06 0)
(4.87808e-08 -3.58805e-06 0)
(4.86818e-08 -3.59608e-06 0)
(4.85823e-08 -3.6041e-06 0)
(4.84824e-08 -3.61213e-06 0)
(4.83821e-08 -3.62017e-06 0)
(4.82814e-08 -3.6282e-06 0)
(4.81803e-08 -3.63624e-06 0)
(4.80788e-08 -3.64427e-06 0)
(4.79769e-08 -3.65231e-06 0)
(4.78746e-08 -3.66036e-06 0)
(4.77719e-08 -3.6684e-06 0)
(4.76688e-08 -3.67644e-06 0)
(4.75653e-08 -3.68449e-06 0)
(4.74614e-08 -3.69254e-06 0)
(4.7357e-08 -3.70059e-06 0)
(4.72523e-08 -3.70864e-06 0)
(4.71471e-08 -3.71669e-06 0)
(4.70416e-08 -3.72474e-06 0)
(4.69356e-08 -3.7328e-06 0)
(4.68293e-08 -3.74085e-06 0)
(4.67225e-08 -3.74891e-06 0)
(4.66153e-08 -3.75696e-06 0)
(4.65077e-08 -3.76502e-06 0)
(4.63997e-08 -3.77308e-06 0)
(4.62913e-08 -3.78113e-06 0)
(4.61825e-08 -3.78919e-06 0)
(4.60732e-08 -3.79724e-06 0)
(4.59636e-08 -3.8053e-06 0)
(4.58536e-08 -3.81336e-06 0)
(4.57431e-08 -3.82141e-06 0)
(4.56322e-08 -3.82947e-06 0)
(4.5521e-08 -3.83752e-06 0)
(4.54093e-08 -3.84558e-06 0)
(4.52972e-08 -3.85363e-06 0)
(4.51847e-08 -3.86168e-06 0)
(4.50718e-08 -3.86973e-06 0)
(4.49584e-08 -3.87778e-06 0)
(4.48447e-08 -3.88583e-06 0)
(4.47306e-08 -3.89387e-06 0)
(4.4616e-08 -3.90192e-06 0)
(4.45011e-08 -3.90996e-06 0)
(4.43857e-08 -3.918e-06 0)
(4.42699e-08 -3.92604e-06 0)
(4.41538e-08 -3.93408e-06 0)
(4.40372e-08 -3.94212e-06 0)
(4.39202e-08 -3.95015e-06 0)
(4.38028e-08 -3.95818e-06 0)
(4.3685e-08 -3.9662e-06 0)
(4.35667e-08 -3.97423e-06 0)
(4.34481e-08 -3.98225e-06 0)
(4.33291e-08 -3.99027e-06 0)
(4.32097e-08 -3.99828e-06 0)
(4.30898e-08 -4.0063e-06 0)
(4.29696e-08 -4.01431e-06 0)
(4.28489e-08 -4.02231e-06 0)
(4.27279e-08 -4.03031e-06 0)
(4.26064e-08 -4.03831e-06 0)
(4.24846e-08 -4.0463e-06 0)
(4.23623e-08 -4.05429e-06 0)
(4.22397e-08 -4.06228e-06 0)
(4.21166e-08 -4.07026e-06 0)
(4.19931e-08 -4.07823e-06 0)
(4.18693e-08 -4.0862e-06 0)
(4.1745e-08 -4.09417e-06 0)
(4.16204e-08 -4.10213e-06 0)
(4.14953e-08 -4.11009e-06 0)
(4.13699e-08 -4.11804e-06 0)
(4.1244e-08 -4.12598e-06 0)
(4.11178e-08 -4.13393e-06 0)
(4.09912e-08 -4.14186e-06 0)
(4.08642e-08 -4.14979e-06 0)
(4.07367e-08 -4.15771e-06 0)
(4.06089e-08 -4.16563e-06 0)
(4.04808e-08 -4.17354e-06 0)
(4.03522e-08 -4.18144e-06 0)
(4.02232e-08 -4.18934e-06 0)
(4.00938e-08 -4.19723e-06 0)
(3.99641e-08 -4.20511e-06 0)
(3.9834e-08 -4.21299e-06 0)
(3.97035e-08 -4.22085e-06 0)
(3.95726e-08 -4.22872e-06 0)
(3.94413e-08 -4.23657e-06 0)
(3.93097e-08 -4.24442e-06 0)
(3.91776e-08 -4.25225e-06 0)
(3.90452e-08 -4.26008e-06 0)
(3.89124e-08 -4.26791e-06 0)
(3.87793e-08 -4.27572e-06 0)
(3.86458e-08 -4.28352e-06 0)
(3.85119e-08 -4.29132e-06 0)
(3.83776e-08 -4.29911e-06 0)
(3.8243e-08 -4.30689e-06 0)
(3.81079e-08 -4.31466e-06 0)
(3.79726e-08 -4.32242e-06 0)
(3.78368e-08 -4.33017e-06 0)
(3.77008e-08 -4.33791e-06 0)
(3.75643e-08 -4.34564e-06 0)
(3.74275e-08 -4.35337e-06 0)
(3.72903e-08 -4.36108e-06 0)
(3.71528e-08 -4.36878e-06 0)
(3.70149e-08 -4.37647e-06 0)
(3.68767e-08 -4.38415e-06 0)
(3.6738e-08 -4.39181e-06 0)
(3.65994e-08 -4.39954e-06 0)
(3.64515e-08 -4.40704e-06 0)
(3.63143e-08 -4.41426e-06 0)
(3.61925e-08 -4.42125e-06 0)
(3.60658e-08 -4.42802e-06 0)
(3.59388e-08 -4.43488e-06 0)
(3.58108e-08 -4.44184e-06 0)
(3.56814e-08 -4.44885e-06 0)
(3.55506e-08 -4.45591e-06 0)
(3.54183e-08 -4.46302e-06 0)
(3.52847e-08 -4.47017e-06 0)
(3.51495e-08 -4.47738e-06 0)
(3.50129e-08 -4.48463e-06 0)
(3.48748e-08 -4.49194e-06 0)
(3.47352e-08 -4.4993e-06 0)
(3.4594e-08 -4.5067e-06 0)
(3.44514e-08 -4.51416e-06 0)
(3.43072e-08 -4.52166e-06 0)
(3.41614e-08 -4.52922e-06 0)
(3.40141e-08 -4.53682e-06 0)
(3.38652e-08 -4.54448e-06 0)
(3.37147e-08 -4.55218e-06 0)
(3.35627e-08 -4.55993e-06 0)
(3.34089e-08 -4.56773e-06 0)
(3.32536e-08 -4.57558e-06 0)
(3.30966e-08 -4.58348e-06 0)
(3.2938e-08 -4.59143e-06 0)
(3.27777e-08 -4.59942e-06 0)
(3.26157e-08 -4.60746e-06 0)
(3.2452e-08 -4.61554e-06 0)
(3.22867e-08 -4.62368e-06 0)
(3.21195e-08 -4.63185e-06 0)
(3.19507e-08 -4.64008e-06 0)
(3.17802e-08 -4.64835e-06 0)
(3.16079e-08 -4.65666e-06 0)
(3.14338e-08 -4.66502e-06 0)
(3.12579e-08 -4.67343e-06 0)
(3.10803e-08 -4.68187e-06 0)
(3.09009e-08 -4.69036e-06 0)
(3.07196e-08 -4.69889e-06 0)
(3.05366e-08 -4.70747e-06 0)
(3.03517e-08 -4.71608e-06 0)
(3.0165e-08 -4.72474e-06 0)
(2.99765e-08 -4.73343e-06 0)
(2.97861e-08 -4.74216e-06 0)
(2.95938e-08 -4.75093e-06 0)
(2.93997e-08 -4.75974e-06 0)
(2.92037e-08 -4.76859e-06 0)
(2.90059e-08 -4.77747e-06 0)
(2.88061e-08 -4.78639e-06 0)
(2.86044e-08 -4.79534e-06 0)
(2.84009e-08 -4.80432e-06 0)
(2.81954e-08 -4.81334e-06 0)
(2.7988e-08 -4.82239e-06 0)
(2.77787e-08 -4.83147e-06 0)
(2.75675e-08 -4.84058e-06 0)
(2.73543e-08 -4.84971e-06 0)
(2.71392e-08 -4.85888e-06 0)
(2.69222e-08 -4.86807e-06 0)
(2.67033e-08 -4.87728e-06 0)
(2.64824e-08 -4.88652e-06 0)
(2.62595e-08 -4.89578e-06 0)
(2.60348e-08 -4.90506e-06 0)
(2.58081e-08 -4.91436e-06 0)
(2.55794e-08 -4.92369e-06 0)
(2.53489e-08 -4.93302e-06 0)
(2.51164e-08 -4.94237e-06 0)
(2.48819e-08 -4.95174e-06 0)
(2.46456e-08 -4.96112e-06 0)
(2.44073e-08 -4.97051e-06 0)
(2.41671e-08 -4.97991e-06 0)
(2.3925e-08 -4.98931e-06 0)
(2.3681e-08 -4.99873e-06 0)
(2.34351e-08 -5.00814e-06 0)
(2.31874e-08 -5.01757e-06 0)
(2.29377e-08 -5.02698e-06 0)
(2.26862e-08 -5.03641e-06 0)
(2.24329e-08 -5.04582e-06 0)
(2.21777e-08 -5.05523e-06 0)
(2.19207e-08 -5.06463e-06 0)
(2.16619e-08 -5.07403e-06 0)
(2.14013e-08 -5.08341e-06 0)
(2.1139e-08 -5.09278e-06 0)
(2.08749e-08 -5.10213e-06 0)
(2.0609e-08 -5.11147e-06 0)
(2.03415e-08 -5.12079e-06 0)
(2.00723e-08 -5.13008e-06 0)
(1.98014e-08 -5.13935e-06 0)
(1.95289e-08 -5.14859e-06 0)
(1.92547e-08 -5.1578e-06 0)
(1.8979e-08 -5.16699e-06 0)
(1.87018e-08 -5.17613e-06 0)
(1.8423e-08 -5.18524e-06 0)
(1.81428e-08 -5.1943e-06 0)
(1.78611e-08 -5.20333e-06 0)
(1.75779e-08 -5.21231e-06 0)
(1.72934e-08 -5.22125e-06 0)
(1.70076e-08 -5.23012e-06 0)
(1.67205e-08 -5.23895e-06 0)
(1.6432e-08 -5.24772e-06 0)
(1.61424e-08 -5.25644e-06 0)
(1.58517e-08 -5.26508e-06 0)
(1.55598e-08 -5.27367e-06 0)
(1.52668e-08 -5.28218e-06 0)
(1.49728e-08 -5.29063e-06 0)
(1.46778e-08 -5.29899e-06 0)
(1.43819e-08 -5.30728e-06 0)
(1.40851e-08 -5.31549e-06 0)
(1.37876e-08 -5.32362e-06 0)
(1.34892e-08 -5.33165e-06 0)
(1.31902e-08 -5.3396e-06 0)
(1.28906e-08 -5.34745e-06 0)
(1.25904e-08 -5.3552e-06 0)
(1.22896e-08 -5.36285e-06 0)
(1.19885e-08 -5.37041e-06 0)
(1.1687e-08 -5.37784e-06 0)
(1.13852e-08 -5.38517e-06 0)
(1.10832e-08 -5.39238e-06 0)
(1.0781e-08 -5.39948e-06 0)
(1.04787e-08 -5.40645e-06 0)
(1.01765e-08 -5.41331e-06 0)
(9.87428e-09 -5.42002e-06 0)
(9.57227e-09 -5.42661e-06 0)
(9.27047e-09 -5.43306e-06 0)
(8.96902e-09 -5.43938e-06 0)
(8.66795e-09 -5.44554e-06 0)
(8.36738e-09 -5.45157e-06 0)
(8.06737e-09 -5.45744e-06 0)
(7.76804e-09 -5.46316e-06 0)
(7.46944e-09 -5.46872e-06 0)
(7.17171e-09 -5.47413e-06 0)
(6.87488e-09 -5.47936e-06 0)
(6.5791e-09 -5.48444e-06 0)
(6.28442e-09 -5.48933e-06 0)
(5.99096e-09 -5.49406e-06 0)
(5.6988e-09 -5.49861e-06 0)
(5.40806e-09 -5.50298e-06 0)
(5.11881e-09 -5.50715e-06 0)
(4.83117e-09 -5.51116e-06 0)
(4.54521e-09 -5.51495e-06 0)
(4.26107e-09 -5.51857e-06 0)
(3.97881e-09 -5.52198e-06 0)
(3.69856e-09 -5.5252e-06 0)
(3.42041e-09 -5.5282e-06 0)
(3.14447e-09 -5.53101e-06 0)
(2.87082e-09 -5.5336e-06 0)
(2.5996e-09 -5.53599e-06 0)
(2.33087e-09 -5.53815e-06 0)
(2.06477e-09 -5.54011e-06 0)
(1.80138e-09 -5.54183e-06 0)
(1.54082e-09 -5.54335e-06 0)
(1.28317e-09 -5.54462e-06 0)
(1.02854e-09 -5.54569e-06 0)
(7.77033e-10 -5.54651e-06 0)
(5.28748e-10 -5.54711e-06 0)
(2.83778e-10 -5.54747e-06 0)
(4.22215e-11 -5.54761e-06 0)
(-1.95829e-10 -5.54749e-06 0)
(-4.30283e-10 -5.54716e-06 0)
(-6.61047e-10 -5.54656e-06 0)
(-8.8804e-10 -5.54575e-06 0)
(-1.11117e-09 -5.54467e-06 0)
(-1.33036e-09 -5.54337e-06 0)
(-1.54552e-09 -5.54181e-06 0)
(-1.75659e-09 -5.54002e-06 0)
(-1.96348e-09 -5.53796e-06 0)
(-2.16612e-09 -5.53568e-06 0)
(-2.36444e-09 -5.53313e-06 0)
(-2.55838e-09 -5.53036e-06 0)
(-2.74785e-09 -5.52732e-06 0)
(-2.93282e-09 -5.52406e-06 0)
(-3.1132e-09 -5.52052e-06 0)
(-3.28896e-09 -5.51677e-06 0)
(-3.46e-09 -5.51274e-06 0)
(-3.62632e-09 -5.5085e-06 0)
(-3.78782e-09 -5.50398e-06 0)
(-3.9445e-09 -5.49925e-06 0)
(-4.09626e-09 -5.49425e-06 0)
(-4.24311e-09 -5.48904e-06 0)
(-4.38493e-09 -5.48356e-06 0)
(-4.52192e-09 -5.47788e-06 0)
(-4.65288e-09 -5.47184e-06 0)
(-4.77856e-09 -5.46581e-06 0)
(-4.91233e-09 -5.45874e-06 0)
(-5.05075e-09 -5.45054e-06 0)
(-5.18027e-09 -5.44224e-06 0)
(-5.30192e-09 -5.43375e-06 0)
(-5.41516e-09 -5.42502e-06 0)
(-5.52018e-09 -5.41617e-06 0)
(-5.61711e-09 -5.4071e-06 0)
(-5.70625e-09 -5.39793e-06 0)
(-5.78779e-09 -5.38858e-06 0)
(-5.86206e-09 -5.37914e-06 0)
(-5.92925e-09 -5.36955e-06 0)
(-5.98967e-09 -5.3599e-06 0)
(-6.04347e-09 -5.35011e-06 0)
(-6.09098e-09 -5.34029e-06 0)
(-6.13232e-09 -5.33035e-06 0)
(-6.1678e-09 -5.32039e-06 0)
(-6.19752e-09 -5.31034e-06 0)
(-6.22181e-09 -5.30029e-06 0)
(-6.24073e-09 -5.29016e-06 0)
(-6.25458e-09 -5.28004e-06 0)
(-6.26345e-09 -5.26987e-06 0)
(-6.2676e-09 -5.25973e-06 0)
(-6.26709e-09 -5.24954e-06 0)
(-6.2622e-09 -5.2394e-06 0)
(-6.25296e-09 -5.22923e-06 0)
(-6.23964e-09 -5.21912e-06 0)
(-6.22226e-09 -5.20899e-06 0)
(-6.20107e-09 -5.19894e-06 0)
(-6.1761e-09 -5.18888e-06 0)
(-6.14756e-09 -5.17891e-06 0)
(-6.11549e-09 -5.16895e-06 0)
(-6.08009e-09 -5.15908e-06 0)
(-6.04137e-09 -5.14923e-06 0)
(-5.99954e-09 -5.13949e-06 0)
(-5.9546e-09 -5.12978e-06 0)
(-5.90675e-09 -5.12018e-06 0)
(-5.85599e-09 -5.11062e-06 0)
(-5.80249e-09 -5.10119e-06 0)
(-5.74625e-09 -5.09181e-06 0)
(-5.68745e-09 -5.08256e-06 0)
(-5.62607e-09 -5.07337e-06 0)
(-5.56229e-09 -5.06432e-06 0)
(-5.49608e-09 -5.05533e-06 0)
(-5.4276e-09 -5.0465e-06 0)
(-5.35683e-09 -5.03773e-06 0)
(-5.28393e-09 -5.02913e-06 0)
(-5.20887e-09 -5.0206e-06 0)
(-5.13179e-09 -5.01224e-06 0)
(-5.05268e-09 -5.00396e-06 0)
(-4.97166e-09 -4.99585e-06 0)
(-4.8887e-09 -4.98784e-06 0)
(-4.80395e-09 -4.98e-06 0)
(-4.71737e-09 -4.97226e-06 0)
(-4.62909e-09 -4.9647e-06 0)
(-4.53907e-09 -4.95725e-06 0)
(-4.44743e-09 -4.94998e-06 0)
(-4.35415e-09 -4.94283e-06 0)
(-4.25934e-09 -4.93586e-06 0)
(-4.16297e-09 -4.92901e-06 0)
(-4.06515e-09 -4.92236e-06 0)
(-3.96585e-09 -4.91583e-06 0)
(-3.86518e-09 -4.90949e-06 0)
(-3.76311e-09 -4.90329e-06 0)
(-3.65974e-09 -4.89729e-06 0)
(-3.55505e-09 -4.89142e-06 0)
(-3.44913e-09 -4.88575e-06 0)
(-3.34198e-09 -4.88023e-06 0)
(-3.23366e-09 -4.87491e-06 0)
(-3.12418e-09 -4.86973e-06 0)
(-3.01361e-09 -4.86477e-06 0)
(-2.90196e-09 -4.85995e-06 0)
(-2.78928e-09 -4.85535e-06 0)
(-2.6756e-09 -4.8509e-06 0)
(-2.56097e-09 -4.84666e-06 0)
(-2.44541e-09 -4.84258e-06 0)
(-2.32896e-09 -4.83872e-06 0)
(-2.21166e-09 -4.83502e-06 0)
(-2.09356e-09 -4.83153e-06 0)
(-1.97467e-09 -4.82822e-06 0)
(-1.85505e-09 -4.82511e-06 0)
(-1.73472e-09 -4.82219e-06 0)
(-1.61374e-09 -4.81947e-06 0)
(-1.49214e-09 -4.81694e-06 0)
(-1.36997e-09 -4.81462e-06 0)
(-1.24726e-09 -4.81247e-06 0)
(-1.12408e-09 -4.81057e-06 0)
(-1.00045e-09 -4.80874e-06 0)
(-8.76449e-10 -4.80754e-06 0)
(-7.52048e-10 -4.80509e-06 0)
(-6.27524e-10 -4.80761e-06 0)
(-5.02218e-10 -4.79419e-06 0)
(-3.78466e-10 -4.83248e-06 0)
(-2.49686e-10 -4.68731e-06 0)
(-1.36355e-10 -5.07198e-06 0)
(-4.5575e-11 -4.42976e-06 0)
)
;
    }
    bottomWall
    {
        type            calculated;
        value           nonuniform List<vector> 
449
(
(-52.7188 -0.955729 0)
(-34.7496 -0.00279901 0)
(-34.3577 -0.000255167 0)
(-32.9939 -0.000363746 0)
(-31.8675 -0.000315366 0)
(-30.831 -0.000284301 0)
(-29.9136 -0.00024935 0)
(-29.1136 -0.000217442 0)
(-28.4127 -0.000190876 0)
(-27.7931 -0.000169098 0)
(-27.2403 -0.000151072 0)
(-26.7433 -0.000135963 0)
(-26.2933 -0.000123303 0)
(-25.8826 -0.000112611 0)
(-25.5055 -0.000103387 0)
(-25.1576 -9.53759e-05 0)
(-24.8351 -8.83805e-05 0)
(-24.535 -8.22433e-05 0)
(-24.2544 -7.68367e-05 0)
(-23.9912 -7.20156e-05 0)
(-23.7436 -6.76892e-05 0)
(-23.51 -6.37968e-05 0)
(-23.2889 -6.02853e-05 0)
(-23.0794 -5.70961e-05 0)
(-22.8802 -5.41898e-05 0)
(-22.6905 -5.15356e-05 0)
(-22.5095 -4.90953e-05 0)
(-22.3365 -4.68534e-05 0)
(-22.1709 -4.47869e-05 0)
(-22.0121 -4.28715e-05 0)
(-21.8597 -4.10959e-05 0)
(-21.7131 -3.94438e-05 0)
(-21.572 -3.79068e-05 0)
(-21.436 -3.64689e-05 0)
(-21.3047 -3.51243e-05 0)
(-21.178 -3.38642e-05 0)
(-21.0554 -3.26815e-05 0)
(-20.9368 -3.15713e-05 0)
(-20.8219 -3.0528e-05 0)
(-20.7105 -2.9542e-05 0)
(-20.6023 -2.86108e-05 0)
(-20.4973 -2.77297e-05 0)
(-20.3953 -2.68975e-05 0)
(-20.2961 -2.61013e-05 0)
(-20.1995 -2.53398e-05 0)
(-20.1055 -2.46156e-05 0)
(-20.014 -2.39218e-05 0)
(-19.9248 -2.32596e-05 0)
(-19.8379 -2.26243e-05 0)
(-19.7531 -2.20198e-05 0)
(-19.6703 -2.14417e-05 0)
(-19.5896 -2.08871e-05 0)
(-19.5107 -2.03613e-05 0)
(-19.4336 -1.98546e-05 0)
(-19.3582 -1.93729e-05 0)
(-19.2845 -1.8911e-05 0)
(-19.2123 -1.84687e-05 0)
(-19.1417 -1.80452e-05 0)
(-19.0725 -1.7638e-05 0)
(-19.0046 -1.72468e-05 0)
(-18.9381 -1.68712e-05 0)
(-18.8729 -1.6509e-05 0)
(-18.809 -1.61616e-05 0)
(-18.7462 -1.58255e-05 0)
(-18.6846 -1.55034e-05 0)
(-18.624 -1.51909e-05 0)
(-18.5646 -1.48904e-05 0)
(-18.5061 -1.45994e-05 0)
(-18.4487 -1.43178e-05 0)
(-18.3922 -1.40465e-05 0)
(-18.3367 -1.37816e-05 0)
(-18.2821 -1.35279e-05 0)
(-18.2284 -1.32786e-05 0)
(-18.1755 -1.30399e-05 0)
(-18.1234 -1.28062e-05 0)
(-18.0722 -1.25802e-05 0)
(-18.0217 -1.23614e-05 0)
(-17.972 -1.21469e-05 0)
(-17.923 -1.1941e-05 0)
(-17.8747 -1.17386e-05 0)
(-17.8272 -1.15428e-05 0)
(-17.7803 -1.13527e-05 0)
(-17.7341 -1.11664e-05 0)
(-17.6885 -1.09867e-05 0)
(-17.6435 -1.08105e-05 0)
(-17.5992 -1.06391e-05 0)
(-17.5555 -1.0473e-05 0)
(-17.5123 -1.03098e-05 0)
(-17.4697 -1.01516e-05 0)
(-17.4277 -9.99725e-06 0)
(-17.3862 -9.8462e-06 0)
(-17.3452 -9.6997e-06 0)
(-17.3047 -9.55627e-06 0)
(-17.2648 -9.41605e-06 0)
(-17.2253 -9.27981e-06 0)
(-17.1863 -9.14627e-06 0)
(-17.1478 -9.01595e-06 0)
(-17.1097 -8.88889e-06 0)
(-17.0721 -8.76454e-06 0)
(-17.0349 -8.64303e-06 0)
(-16.9981 -8.52446e-06 0)
(-16.9618 -8.40825e-06 0)
(-16.9259 -8.29472e-06 0)
(-16.8903 -8.18373e-06 0)
(-16.8552 -8.07501e-06 0)
(-16.8204 -7.96874e-06 0)
(-16.786 -7.86466e-06 0)
(-16.752 -7.76284e-06 0)
(-16.7184 -7.6631e-06 0)
(-16.6851 -7.56549e-06 0)
(-16.6521 -7.46981e-06 0)
(-16.6195 -7.37616e-06 0)
(-16.5872 -7.28427e-06 0)
(-16.5552 -7.19424e-06 0)
(-16.5236 -7.106e-06 0)
(-16.4922 -7.0195e-06 0)
(-16.4612 -6.93461e-06 0)
(-16.4305 -6.8515e-06 0)
(-16.4001 -6.76998e-06 0)
(-16.3699 -6.68996e-06 0)
(-16.3401 -6.61141e-06 0)
(-16.3105 -6.53443e-06 0)
(-16.2812 -6.45874e-06 0)
(-16.2522 -6.38448e-06 0)
(-16.2234 -6.31157e-06 0)
(-16.1949 -6.24001e-06 0)
(-16.1666 -6.16955e-06 0)
(-16.1386 -6.10052e-06 0)
(-16.1109 -6.03266e-06 0)
(-16.0834 -5.96601e-06 0)
(-16.0561 -5.90048e-06 0)
(-16.0291 -5.83619e-06 0)
(-16.0023 -5.77301e-06 0)
(-15.9757 -5.71077e-06 0)
(-15.9493 -5.64964e-06 0)
(-15.9232 -5.58948e-06 0)
(-15.8973 -5.53036e-06 0)
(-15.8716 -5.4721e-06 0)
(-15.8461 -5.41493e-06 0)
(-15.8208 -5.35861e-06 0)
(-15.7957 -5.30332e-06 0)
(-15.7709 -5.24872e-06 0)
(-15.7462 -5.1953e-06 0)
(-15.7217 -5.14245e-06 0)
(-15.6974 -5.09071e-06 0)
(-15.6733 -5.0394e-06 0)
(-15.6493 -4.98937e-06 0)
(-15.6256 -4.93964e-06 0)
(-15.602 -4.89107e-06 0)
(-15.5786 -4.84269e-06 0)
(-15.5554 -4.79561e-06 0)
(-15.5324 -4.74876e-06 0)
(-15.5095 -4.70299e-06 0)
(-15.4868 -4.65749e-06 0)
(-15.4642 -4.61313e-06 0)
(-15.4419 -4.56908e-06 0)
(-15.4196 -4.52588e-06 0)
(-15.3976 -4.4831e-06 0)
(-15.3757 -4.4412e-06 0)
(-15.3539 -4.39974e-06 0)
(-15.3323 -4.35893e-06 0)
(-15.3109 -4.31861e-06 0)
(-15.2896 -4.27892e-06 0)
(-15.2684 -4.23988e-06 0)
(-15.2474 -4.20124e-06 0)
(-15.2265 -4.16311e-06 0)
(-15.2058 -4.12549e-06 0)
(-15.1852 -4.08852e-06 0)
(-15.1648 -4.05209e-06 0)
(-15.1444 -4.01595e-06 0)
(-15.1242 -3.98054e-06 0)
(-15.1042 -3.94532e-06 0)
(-15.0843 -3.90952e-06 0)
(-15.0656 -3.88044e-06 0)
(-15.048 -3.85333e-06 0)
(-15.0303 -3.82175e-06 0)
(-15.0126 -3.79063e-06 0)
(-14.9949 -3.76034e-06 0)
(-14.9771 -3.72981e-06 0)
(-14.9593 -3.69972e-06 0)
(-14.9414 -3.66963e-06 0)
(-14.9235 -3.63995e-06 0)
(-14.9055 -3.61028e-06 0)
(-14.8875 -3.58086e-06 0)
(-14.8694 -3.55134e-06 0)
(-14.8513 -3.52217e-06 0)
(-14.8331 -3.49297e-06 0)
(-14.8149 -3.46411e-06 0)
(-14.7967 -3.43513e-06 0)
(-14.7784 -3.40647e-06 0)
(-14.76 -3.37787e-06 0)
(-14.7417 -3.3494e-06 0)
(-14.7232 -3.32106e-06 0)
(-14.7048 -3.29279e-06 0)
(-14.6862 -3.26466e-06 0)
(-14.6677 -3.23662e-06 0)
(-14.6491 -3.20884e-06 0)
(-14.6305 -3.18113e-06 0)
(-14.6118 -3.15359e-06 0)
(-14.5931 -3.12611e-06 0)
(-14.5743 -3.09884e-06 0)
(-14.5556 -3.07164e-06 0)
(-14.5367 -3.0446e-06 0)
(-14.5179 -3.01763e-06 0)
(-14.499 -2.99082e-06 0)
(-14.4801 -2.96417e-06 0)
(-14.4611 -2.9377e-06 0)
(-14.4421 -2.91125e-06 0)
(-14.4231 -2.88496e-06 0)
(-14.404 -2.85878e-06 0)
(-14.3849 -2.83293e-06 0)
(-14.3658 -2.80705e-06 0)
(-14.3466 -2.78142e-06 0)
(-14.3274 -2.75577e-06 0)
(-14.3082 -2.73057e-06 0)
(-14.2889 -2.70521e-06 0)
(-14.2697 -2.6802e-06 0)
(-14.2503 -2.65501e-06 0)
(-14.231 -2.6303e-06 0)
(-14.2116 -2.60552e-06 0)
(-14.1923 -2.58103e-06 0)
(-14.1728 -2.5565e-06 0)
(-14.1534 -2.53226e-06 0)
(-14.1339 -2.50807e-06 0)
(-14.1145 -2.48419e-06 0)
(-14.0949 -2.46016e-06 0)
(-14.0754 -2.43664e-06 0)
(-14.0558 -2.413e-06 0)
(-14.0363 -2.38969e-06 0)
(-14.0167 -2.36641e-06 0)
(-13.9971 -2.3433e-06 0)
(-13.9774 -2.32035e-06 0)
(-13.9578 -2.29757e-06 0)
(-13.9381 -2.27488e-06 0)
(-13.9184 -2.25234e-06 0)
(-13.8987 -2.22997e-06 0)
(-13.879 -2.20776e-06 0)
(-13.8592 -2.18567e-06 0)
(-13.8395 -2.16372e-06 0)
(-13.8197 -2.14208e-06 0)
(-13.8 -2.12046e-06 0)
(-13.7802 -2.09908e-06 0)
(-13.7604 -2.07775e-06 0)
(-13.7405 -2.05673e-06 0)
(-13.7207 -2.03557e-06 0)
(-13.7009 -2.01486e-06 0)
(-13.681 -1.99399e-06 0)
(-13.6612 -1.97356e-06 0)
(-13.6413 -1.95301e-06 0)
(-13.6214 -1.93297e-06 0)
(-13.6016 -1.91271e-06 0)
(-13.5817 -1.89297e-06 0)
(-13.5618 -1.87296e-06 0)
(-13.5419 -1.85356e-06 0)
(-13.522 -1.83384e-06 0)
(-13.5021 -1.81475e-06 0)
(-13.4821 -1.79532e-06 0)
(-13.4622 -1.77648e-06 0)
(-13.4423 -1.75738e-06 0)
(-13.4224 -1.7388e-06 0)
(-13.4025 -1.72005e-06 0)
(-13.3825 -1.70179e-06 0)
(-13.3626 -1.68333e-06 0)
(-13.3427 -1.66527e-06 0)
(-13.3228 -1.64715e-06 0)
(-13.3029 -1.62944e-06 0)
(-13.2829 -1.6116e-06 0)
(-13.263 -1.59417e-06 0)
(-13.2431 -1.57671e-06 0)
(-13.2232 -1.55956e-06 0)
(-13.2033 -1.54228e-06 0)
(-13.1834 -1.52539e-06 0)
(-13.1635 -1.5085e-06 0)
(-13.1436 -1.49199e-06 0)
(-13.1237 -1.47532e-06 0)
(-13.1039 -1.45894e-06 0)
(-13.084 -1.44268e-06 0)
(-13.0641 -1.42655e-06 0)
(-13.0443 -1.41057e-06 0)
(-13.0245 -1.39474e-06 0)
(-13.0046 -1.37913e-06 0)
(-12.9848 -1.36357e-06 0)
(-12.965 -1.34813e-06 0)
(-12.9452 -1.33287e-06 0)
(-12.9254 -1.31778e-06 0)
(-12.9056 -1.30276e-06 0)
(-12.8858 -1.28788e-06 0)
(-12.8661 -1.27312e-06 0)
(-12.8463 -1.25862e-06 0)
(-12.8267 -1.24411e-06 0)
(-12.8069 -1.22993e-06 0)
(-12.7873 -1.21569e-06 0)
(-12.7676 -1.20166e-06 0)
(-12.7479 -1.18769e-06 0)
(-12.7283 -1.174e-06 0)
(-12.7087 -1.16025e-06 0)
(-12.689 -1.14687e-06 0)
(-12.6695 -1.13332e-06 0)
(-12.6499 -1.12022e-06 0)
(-12.6304 -1.10702e-06 0)
(-12.6108 -1.09409e-06 0)
(-12.5913 -1.08114e-06 0)
(-12.5718 -1.06852e-06 0)
(-12.5523 -1.05571e-06 0)
(-12.5329 -1.04327e-06 0)
(-12.5135 -1.03074e-06 0)
(-12.494 -1.01875e-06 0)
(-12.4747 -1.00646e-06 0)
(-12.4553 -9.94587e-07 0)
(-12.436 -9.8253e-07 0)
(-12.4166 -9.70865e-07 0)
(-12.3974 -9.59073e-07 0)
(-12.3781 -9.47694e-07 0)
(-12.3589 -9.3609e-07 0)
(-12.3397 -9.24881e-07 0)
(-12.3205 -9.13599e-07 0)
(-12.3013 -9.02648e-07 0)
(-12.2822 -8.91605e-07 0)
(-12.2631 -8.80874e-07 0)
(-12.244 -8.70074e-07 0)
(-12.2249 -8.59595e-07 0)
(-12.2059 -8.49013e-07 0)
(-12.1869 -8.38679e-07 0)
(-12.1679 -8.2831e-07 0)
(-12.149 -8.1823e-07 0)
(-12.1301 -8.08111e-07 0)
(-12.1112 -7.98185e-07 0)
(-12.0924 -7.88257e-07 0)
(-12.0736 -7.78544e-07 0)
(-12.0548 -7.6889e-07 0)
(-12.036 -7.59355e-07 0)
(-12.0173 -7.49858e-07 0)
(-11.9986 -7.4057e-07 0)
(-11.9799 -7.31362e-07 0)
(-11.9613 -7.22205e-07 0)
(-11.9427 -7.1319e-07 0)
(-11.9242 -7.04264e-07 0)
(-11.9056 -6.95517e-07 0)
(-11.8872 -6.86727e-07 0)
(-11.8687 -6.78186e-07 0)
(-11.8503 -6.69591e-07 0)
(-11.8319 -6.61191e-07 0)
(-11.8135 -6.5276e-07 0)
(-11.7952 -6.44595e-07 0)
(-11.7769 -6.36343e-07 0)
(-11.7586 -6.28345e-07 0)
(-11.7404 -6.20308e-07 0)
(-11.7222 -6.12444e-07 0)
(-11.7041 -6.04622e-07 0)
(-11.686 -5.96866e-07 0)
(-11.668 -5.8925e-07 0)
(-11.6499 -5.81603e-07 0)
(-11.6319 -5.74232e-07 0)
(-11.6139 -5.6656e-07 0)
(-11.5941 -5.57521e-07 0)
(-11.5724 -5.48405e-07 0)
(-11.5512 -5.40314e-07 0)
(-11.5301 -5.32426e-07 0)
(-11.5095 -5.24544e-07 0)
(-11.4891 -5.16914e-07 0)
(-11.469 -5.09421e-07 0)
(-11.4492 -5.02078e-07 0)
(-11.4297 -4.94984e-07 0)
(-11.4105 -4.87986e-07 0)
(-11.3915 -4.81156e-07 0)
(-11.3728 -4.74488e-07 0)
(-11.3544 -4.68e-07 0)
(-11.3362 -4.61612e-07 0)
(-11.3183 -4.55437e-07 0)
(-11.3005 -4.49383e-07 0)
(-11.2831 -4.43426e-07 0)
(-11.2658 -4.37658e-07 0)
(-11.2488 -4.31946e-07 0)
(-11.232 -4.26443e-07 0)
(-11.2155 -4.20987e-07 0)
(-11.1991 -4.15732e-07 0)
(-11.1829 -4.10456e-07 0)
(-11.1669 -4.05432e-07 0)
(-11.1512 -4.00411e-07 0)
(-11.1356 -3.95614e-07 0)
(-11.1202 -3.90841e-07 0)
(-11.105 -3.86158e-07 0)
(-11.09 -3.81601e-07 0)
(-11.0751 -3.7713e-07 0)
(-11.0605 -3.72707e-07 0)
(-11.046 -3.68422e-07 0)
(-11.0317 -3.64244e-07 0)
(-11.0175 -3.60145e-07 0)
(-11.0035 -3.56128e-07 0)
(-10.9896 -3.52153e-07 0)
(-10.9759 -3.48268e-07 0)
(-10.9623 -3.44449e-07 0)
(-10.949 -3.40701e-07 0)
(-10.9357 -3.37031e-07 0)
(-10.9226 -3.3341e-07 0)
(-10.9096 -3.2987e-07 0)
(-10.8968 -3.26418e-07 0)
(-10.884 -3.22986e-07 0)
(-10.8715 -3.19656e-07 0)
(-10.859 -3.16375e-07 0)
(-10.8467 -3.13159e-07 0)
(-10.8345 -3.10008e-07 0)
(-10.8225 -3.06904e-07 0)
(-10.8105 -3.03868e-07 0)
(-10.7987 -3.00893e-07 0)
(-10.7869 -2.97993e-07 0)
(-10.7754 -2.95078e-07 0)
(-10.7639 -2.92264e-07 0)
(-10.7525 -2.89495e-07 0)
(-10.7412 -2.86735e-07 0)
(-10.7301 -2.84062e-07 0)
(-10.719 -2.81395e-07 0)
(-10.708 -2.78797e-07 0)
(-10.6972 -2.7623e-07 0)
(-10.6864 -2.73766e-07 0)
(-10.6757 -2.71246e-07 0)
(-10.6652 -2.68856e-07 0)
(-10.6547 -2.6639e-07 0)
(-10.6443 -2.64121e-07 0)
(-10.634 -2.61706e-07 0)
(-10.6239 -2.5953e-07 0)
(-10.6137 -2.57173e-07 0)
(-10.6037 -2.55137e-07 0)
(-10.5937 -2.52751e-07 0)
(-10.584 -2.50884e-07 0)
(-10.5741 -2.48581e-07 0)
(-10.5645 -2.46851e-07 0)
(-10.5548 -2.44555e-07 0)
(-10.5454 -2.42959e-07 0)
(-10.5358 -2.40681e-07 0)
(-10.5265 -2.39279e-07 0)
(-10.5171 -2.36993e-07 0)
(-10.508 -2.35692e-07 0)
(-10.4986 -2.33435e-07 0)
(-10.4897 -2.32215e-07 0)
(-10.4804 -2.30179e-07 0)
(-10.4717 -2.28903e-07 0)
(-10.4625 -2.27323e-07 0)
(-10.4539 -2.25528e-07 0)
(-10.4449 -2.25304e-07 0)
(-10.4363 -2.21478e-07 0)
(-10.4276 -2.25509e-07 0)
(-10.4186 -2.14498e-07 0)
(-10.4108 -2.31721e-07 0)
(-10.4004 -1.98212e-07 0)
(-10.3954 -2.50291e-07 0)
(-10.3807 -1.66182e-07 0)
(-10.3826 -2.244e-07 0)
(-10.3628 -2.60583e-07 0)
)
;
    }
    symmetry
    {
        type            symmetryPlane;
    }
    frontAndBack
    {
        type            empty;
    }
}


// ************************************************************************* //
