/*--------------------------------*- C++ -*----------------------------------*\
| =========                 |                                                 |
| \\      /  F ield         | OpenFOAM: The Open Source CFD Toolbox           |
|  \\    /   O peration     | Version:  v2012                                 |
|   \\  /    A nd           | Website:  www.openfoam.com                      |
|    \\/     M anipulation  |                                                 |
\*---------------------------------------------------------------------------*/
FoamFile
{
    version     2.0;
    format      ascii;
    class       volScalarField;
    location    "60";
    object      k;
}
// * * * * * * * * * * * * * * * * * * * * * * * * * * * * * * * * * * * * * //

dimensions      [0 2 -2 0 0 0 0];


internalField   nonuniform List<scalar> 
209825
(
0.00102387
0.000932289
0.000856804
0.000793373
0.000739813
0.000694494
0.000656308
0.00062405
0.000596835
0.000573707
0.00055403
0.000537125
0.000522579
0.000509933
0.000498925
0.000489252
0.000480738
0.000473188
0.000466475
0.000460477
0.000455091
0.000450253
0.000445867
0.000441912
0.000438293
0.000435022
0.000432
0.000429267
0.000426718
0.000424414
0.000422242
0.000420285
0.00041842
0.000416746
0.000415132
0.000413691
0.000412285
0.000411039
0.000409807
0.000408723
0.000407637
0.000406692
0.00040573
0.000404902
0.000404046
0.00040332
0.000402554
0.000401916
0.000401229
0.000400666
0.000400048
0.000399552
0.000398994
0.000398553
0.00039805
0.000397657
0.000397203
0.000396853
0.000396443
0.000396132
0.00039576
0.000395484
0.000395145
0.0003949
0.000394592
0.000394373
0.000394093
0.000393897
0.000393643
0.000393469
0.000393238
0.000393082
0.000392875
0.000392738
0.000392544
0.000392414
0.000392229
0.000392106
0.000391929
0.000391814
0.000391644
0.000391534
0.000391372
0.000391269
0.000391115
0.000391019
0.000390873
0.000390786
0.000390654
0.000390557
0.000390484
0.000390316
0.000390396
0.000396593
0.000416509
0.000999983
0.00102387
0.000932289
0.000856804
0.000793373
0.000739813
0.000694494
0.000656307
0.000624049
0.000596834
0.000573705
0.000554028
0.000537122
0.000522575
0.000509929
0.000498921
0.000489247
0.000480733
0.000473182
0.000466469
0.00046047
0.000455085
0.000450246
0.000445861
0.000441905
0.000438286
0.000435014
0.000431993
0.000429259
0.00042671
0.000424406
0.000422234
0.000420277
0.000418412
0.000416738
0.000415123
0.000413682
0.000412277
0.00041103
0.000409798
0.000408714
0.000407628
0.000406683
0.00040572
0.000404893
0.000404036
0.00040331
0.000402545
0.000401906
0.000401219
0.000400657
0.000400038
0.000399542
0.000398984
0.000398543
0.00039804
0.000397647
0.000397194
0.000396844
0.000396433
0.000396122
0.00039575
0.000395474
0.000395135
0.00039489
0.000394582
0.000394363
0.000394083
0.000393887
0.000393633
0.000393459
0.000393228
0.000393072
0.000392865
0.000392728
0.000392534
0.000392404
0.000392218
0.000392096
0.000391919
0.000391803
0.000391633
0.000391524
0.000391362
0.000391258
0.000391105
0.000391009
0.000390862
0.000390776
0.000390643
0.000390546
0.000390474
0.000390306
0.000390386
0.000396594
0.000416505
0.00100054
0.00102387
0.000932289
0.000856805
0.000793373
0.000739813
0.000694493
0.000656305
0.000624045
0.000596827
0.000573696
0.000554017
0.000537109
0.00052256
0.000509913
0.000498902
0.000489227
0.000480712
0.00047316
0.000466445
0.000460445
0.000455059
0.000450219
0.000445833
0.000441876
0.000438257
0.000434984
0.000431962
0.000429228
0.000426678
0.000424373
0.000422201
0.000420243
0.000418378
0.000416703
0.000415089
0.000413647
0.000412241
0.000410994
0.000409762
0.000408678
0.000407591
0.000406646
0.000405683
0.000404856
0.000403999
0.000403273
0.000402507
0.000401868
0.000401181
0.000400619
0.0004
0.000399503
0.000398945
0.000398504
0.000398001
0.000397608
0.000397154
0.000396804
0.000396394
0.000396083
0.00039571
0.000395434
0.000395095
0.00039485
0.000394542
0.000394323
0.000394042
0.000393847
0.000393593
0.000393418
0.000393188
0.000393031
0.000392824
0.000392687
0.000392493
0.000392363
0.000392178
0.000392055
0.000391878
0.000391762
0.000391592
0.000391483
0.000391321
0.000391217
0.000391064
0.000390967
0.000390821
0.000390734
0.000390602
0.000390505
0.000390432
0.000390264
0.000390345
0.000396576
0.000416474
0.00100167
0.00102387
0.000932289
0.000856805
0.000793374
0.000739813
0.000694491
0.000656301
0.000624037
0.000596816
0.000573682
0.000553998
0.000537087
0.000522535
0.000509884
0.000498871
0.000489193
0.000480675
0.000473121
0.000466404
0.000460403
0.000455015
0.000450173
0.000445785
0.000441828
0.000438207
0.000434933
0.00043191
0.000429175
0.000426624
0.000424319
0.000422146
0.000420187
0.000418321
0.000416646
0.00041503
0.000413589
0.000412182
0.000410935
0.000409702
0.000408617
0.00040753
0.000406585
0.000405621
0.000404793
0.000403936
0.00040321
0.000402444
0.000401804
0.000401117
0.000400554
0.000399935
0.000399439
0.00039888
0.000398439
0.000397936
0.000397542
0.000397088
0.000396738
0.000396328
0.000396016
0.000395643
0.000395368
0.000395028
0.000394782
0.000394474
0.000394255
0.000393975
0.000393779
0.000393525
0.000393351
0.000393119
0.000392963
0.000392756
0.000392619
0.000392425
0.000392295
0.000392109
0.000391986
0.000391809
0.000391693
0.000391523
0.000391414
0.000391251
0.000391148
0.000390994
0.000390898
0.000390751
0.000390665
0.000390532
0.000390435
0.000390362
0.000390194
0.000390276
0.000396542
0.000416422
0.00100317
0.00102387
0.000932288
0.000856806
0.000793375
0.000739814
0.00069449
0.000656295
0.000624027
0.0005968
0.000573661
0.000553972
0.000537056
0.000522499
0.000509844
0.000498826
0.000489145
0.000480624
0.000473066
0.000466347
0.000460343
0.000454952
0.000450109
0.000445719
0.000441759
0.000438136
0.000434861
0.000431836
0.0004291
0.000426548
0.000424241
0.000422067
0.000420108
0.00041824
0.000416564
0.000414948
0.000413506
0.000412098
0.00041085
0.000409616
0.000408532
0.000407444
0.000406498
0.000405534
0.000404705
0.000403848
0.000403121
0.000402354
0.000401715
0.000401027
0.000400464
0.000399844
0.000399347
0.000398789
0.000398347
0.000397843
0.00039745
0.000396995
0.000396645
0.000396234
0.000395923
0.000395549
0.000395273
0.000394933
0.000394688
0.00039438
0.00039416
0.00039388
0.000393684
0.000393429
0.000393255
0.000393024
0.000392867
0.00039266
0.000392522
0.000392328
0.000392198
0.000392012
0.000391889
0.000391712
0.000391596
0.000391426
0.000391316
0.000391154
0.00039105
0.000390896
0.0003908
0.000390653
0.000390566
0.000390433
0.000390336
0.000390263
0.000390096
0.000390178
0.000396494
0.000416347
0.00100487
0.00102387
0.000932288
0.000856806
0.000793376
0.000739814
0.000694487
0.000656288
0.000624013
0.00059678
0.000573633
0.000553938
0.000537015
0.000522452
0.000509791
0.000498769
0.000489083
0.000480557
0.000472996
0.000466272
0.000460265
0.000454871
0.000450025
0.000445632
0.00044167
0.000438045
0.000434768
0.000431741
0.000429003
0.000426449
0.000424141
0.000421965
0.000420005
0.000418136
0.000416459
0.000414842
0.000413398
0.000411989
0.000410741
0.000409506
0.00040842
0.000407332
0.000406385
0.00040542
0.000404591
0.000403733
0.000403005
0.000402238
0.000401598
0.00040091
0.000400346
0.000399726
0.000399229
0.00039867
0.000398227
0.000397724
0.00039733
0.000396875
0.000396524
0.000396113
0.000395801
0.000395427
0.000395151
0.000394811
0.000394565
0.000394257
0.000394037
0.000393756
0.00039356
0.000393305
0.000393131
0.000392899
0.000392742
0.000392535
0.000392397
0.000392203
0.000392073
0.000391886
0.000391764
0.000391586
0.00039147
0.000391299
0.00039119
0.000391027
0.000390923
0.000390769
0.000390672
0.000390525
0.000390439
0.000390306
0.000390208
0.000390135
0.000389968
0.000390052
0.000396432
0.00041625
0.0010067
0.00102387
0.000932288
0.000856807
0.000793378
0.000739815
0.000694484
0.000656279
0.000623997
0.000596755
0.0005736
0.000553896
0.000536966
0.000522395
0.000509727
0.000498698
0.000489006
0.000480475
0.000472909
0.000466181
0.000460169
0.000454772
0.000449922
0.000445526
0.000441561
0.000437933
0.000434653
0.000431624
0.000428883
0.000426328
0.000424018
0.00042184
0.000419878
0.000418008
0.000416329
0.00041471
0.000413265
0.000411855
0.000410606
0.00040937
0.000408283
0.000407194
0.000406246
0.00040528
0.00040445
0.000403591
0.000402863
0.000402095
0.000401454
0.000400765
0.000400201
0.000399581
0.000399083
0.000398523
0.00039808
0.000397576
0.000397182
0.000396726
0.000396375
0.000395964
0.000395651
0.000395277
0.000395001
0.00039466
0.000394414
0.000394105
0.000393885
0.000393604
0.000393407
0.000393152
0.000392977
0.000392746
0.000392589
0.000392381
0.000392243
0.000392049
0.000391918
0.000391732
0.000391609
0.00039143
0.000391314
0.000391143
0.000391034
0.000390871
0.000390767
0.000390612
0.000390516
0.000390368
0.000390281
0.000390148
0.00039005
0.000389978
0.00038981
0.000389896
0.000396357
0.000416131
0.0010086
0.00102387
0.000932287
0.000856808
0.00079338
0.000739816
0.00069448
0.000656269
0.000623977
0.000596726
0.00057356
0.000553847
0.000536906
0.000522327
0.000509651
0.000498614
0.000488915
0.000480377
0.000472805
0.000466071
0.000460055
0.000454653
0.000449799
0.000445399
0.00044143
0.000437799
0.000434516
0.000431484
0.000428741
0.000426183
0.000423871
0.000421691
0.000419726
0.000417854
0.000416174
0.000414554
0.000413107
0.000411696
0.000410445
0.000409208
0.00040812
0.000407029
0.00040608
0.000405114
0.000404283
0.000403423
0.000402693
0.000401925
0.000401283
0.000400593
0.000400028
0.000399407
0.000398909
0.000398348
0.000397905
0.0003974
0.000397005
0.000396549
0.000396197
0.000395785
0.000395473
0.000395098
0.000394821
0.00039448
0.000394233
0.000393924
0.000393704
0.000393422
0.000393225
0.00039297
0.000392795
0.000392563
0.000392405
0.000392198
0.000392059
0.000391865
0.000391734
0.000391547
0.000391424
0.000391245
0.000391129
0.000390958
0.000390848
0.000390684
0.00039058
0.000390426
0.000390329
0.000390181
0.000390094
0.000389961
0.000389862
0.000389789
0.000389622
0.000389711
0.000396268
0.00041599
0.00101044
0.00102387
0.000932287
0.000856809
0.000793383
0.000739817
0.000694476
0.000656256
0.000623955
0.000596692
0.000573514
0.000553789
0.000536838
0.000522248
0.000509562
0.000498516
0.000488809
0.000480264
0.000472684
0.000465945
0.000459922
0.000454515
0.000449656
0.000445251
0.000441278
0.000437644
0.000434357
0.000431322
0.000428575
0.000426014
0.000423699
0.000421517
0.00041955
0.000417676
0.000415994
0.000414371
0.000412923
0.00041151
0.000410257
0.000409019
0.000407929
0.000406837
0.000405887
0.000404919
0.000404087
0.000403226
0.000402496
0.000401726
0.000401084
0.000400393
0.000399827
0.000399205
0.000398706
0.000398145
0.000397701
0.000397195
0.000396799
0.000396343
0.000395991
0.000395578
0.000395265
0.000394889
0.000394612
0.00039427
0.000394023
0.000393713
0.000393493
0.000393211
0.000393014
0.000392758
0.000392582
0.00039235
0.000392192
0.000391984
0.000391845
0.00039165
0.000391519
0.000391332
0.000391208
0.000391029
0.000390913
0.000390741
0.000390631
0.000390467
0.000390363
0.000390208
0.000390111
0.000389963
0.000389875
0.000389742
0.000389643
0.00038957
0.000389403
0.000389495
0.000396166
0.000415826
0.00101204
0.00102386
0.000932287
0.000856811
0.000793385
0.000739818
0.000694472
0.000656242
0.000623929
0.000596653
0.000573462
0.000553723
0.000536759
0.000522157
0.00050946
0.000498405
0.000488688
0.000480134
0.000472547
0.0004658
0.000459771
0.000454357
0.000449492
0.000445083
0.000441105
0.000437466
0.000434175
0.000431136
0.000428386
0.000425822
0.000423504
0.000421319
0.000419349
0.000417472
0.000415787
0.000414163
0.000412713
0.000411297
0.000410043
0.000408803
0.000407712
0.000406618
0.000405667
0.000404697
0.000403864
0.000403001
0.00040227
0.000401499
0.000400856
0.000400164
0.000399597
0.000398974
0.000398474
0.000397912
0.000397467
0.00039696
0.000396564
0.000396107
0.000395754
0.00039534
0.000395027
0.000394651
0.000394373
0.000394031
0.000393783
0.000393473
0.000393252
0.000392969
0.000392771
0.000392515
0.000392339
0.000392106
0.000391948
0.000391739
0.000391601
0.000391405
0.000391273
0.000391086
0.000390962
0.000390783
0.000390666
0.000390494
0.000390383
0.000390219
0.000390115
0.000389959
0.000389862
0.000389714
0.000389626
0.000389492
0.000389392
0.000389319
0.000389152
0.000389247
0.000396052
0.00041564
0.00101313
0.00102386
0.000932286
0.000856812
0.000793388
0.000739819
0.000694467
0.000656227
0.0006239
0.000596609
0.000573403
0.00055365
0.000536671
0.000522056
0.000509346
0.000498279
0.000488551
0.000479988
0.000472392
0.000465636
0.0004596
0.000454179
0.000449308
0.000444893
0.00044091
0.000437265
0.00043397
0.000430926
0.000428173
0.000425604
0.000423283
0.000421095
0.000419122
0.000417242
0.000415555
0.000413928
0.000412475
0.000411058
0.000409801
0.000408559
0.000407466
0.000406371
0.000405418
0.000404447
0.000403612
0.000402748
0.000402015
0.000401243
0.000400598
0.000399905
0.000399337
0.000398713
0.000398212
0.000397649
0.000397203
0.000396696
0.000396299
0.000395841
0.000395487
0.000395073
0.000394758
0.000394381
0.000394103
0.00039376
0.000393512
0.000393201
0.000392979
0.000392696
0.000392498
0.000392241
0.000392065
0.000391831
0.000391673
0.000391463
0.000391324
0.000391128
0.000390996
0.000390808
0.000390684
0.000390504
0.000390387
0.000390215
0.000390104
0.000389939
0.000389834
0.000389678
0.000389581
0.000389432
0.000389344
0.00038921
0.00038911
0.000389036
0.000388869
0.000388968
0.000395925
0.000415431
0.00101334
0.00102386
0.000932285
0.000856814
0.000793392
0.000739821
0.000694461
0.00065621
0.000623868
0.000596561
0.000573338
0.000553568
0.000536573
0.000521943
0.000509219
0.000498139
0.0004884
0.000479825
0.000472219
0.000465455
0.00045941
0.000453981
0.000449103
0.000444681
0.000440692
0.000437042
0.000433741
0.000430693
0.000427935
0.000425362
0.000423037
0.000420845
0.000418869
0.000416986
0.000415296
0.000413666
0.000412211
0.000410791
0.000409532
0.000408287
0.000407192
0.000406095
0.00040514
0.000404167
0.000403331
0.000402465
0.000401731
0.000400957
0.000400311
0.000399617
0.000399048
0.000398422
0.00039792
0.000397356
0.000396909
0.000396401
0.000396003
0.000395544
0.000395189
0.000394774
0.000394459
0.000394081
0.000393802
0.000393458
0.000393209
0.000392897
0.000392675
0.000392391
0.000392193
0.000391935
0.000391758
0.000391524
0.000391365
0.000391155
0.000391016
0.000390819
0.000390687
0.000390498
0.000390374
0.000390193
0.000390076
0.000389903
0.000389792
0.000389627
0.000389522
0.000389365
0.000389267
0.000389118
0.000389029
0.000388895
0.000388794
0.00038872
0.000388553
0.000388657
0.000395786
0.000415198
0.00101237
0.00102386
0.000932285
0.000856815
0.000793396
0.000739823
0.000694455
0.000656191
0.000623833
0.000596508
0.000573266
0.000553478
0.000536466
0.000521819
0.00050908
0.000497985
0.000488233
0.000479646
0.000472029
0.000465254
0.0004592
0.000453763
0.000448877
0.000444447
0.000440451
0.000436795
0.000433489
0.000430435
0.000427672
0.000425095
0.000422765
0.000420569
0.00041859
0.000416703
0.000415009
0.000413376
0.000411918
0.000410495
0.000409234
0.000407987
0.00040689
0.00040579
0.000404833
0.000403858
0.00040302
0.000402153
0.000401417
0.000400641
0.000399994
0.000399298
0.000398728
0.000398101
0.000397597
0.000397032
0.000396584
0.000396074
0.000395676
0.000395215
0.00039486
0.000394444
0.000394128
0.000393749
0.000393469
0.000393124
0.000392875
0.000392562
0.00039234
0.000392055
0.000391856
0.000391597
0.00039142
0.000391185
0.000391026
0.000390815
0.000390675
0.000390478
0.000390345
0.000390156
0.000390031
0.00038985
0.000389732
0.000389558
0.000389447
0.000389281
0.000389176
0.000389019
0.00038892
0.000388771
0.000388681
0.000388547
0.000388445
0.000388371
0.000388204
0.000388313
0.000395636
0.000414941
0.00101022
0.00102386
0.000932284
0.000856817
0.0007934
0.000739824
0.000694449
0.000656171
0.000623795
0.00059645
0.000573188
0.000553379
0.000536348
0.000521683
0.000508927
0.000497817
0.00048805
0.00047945
0.000471821
0.000465035
0.00045897
0.000453524
0.000448629
0.000444191
0.000440188
0.000436525
0.000433212
0.000430153
0.000427384
0.000424802
0.000422467
0.000420267
0.000418283
0.000416393
0.000414695
0.000413059
0.000411598
0.000410172
0.000408907
0.000407657
0.000406558
0.000405456
0.000404497
0.00040352
0.000402679
0.00040181
0.000401073
0.000400295
0.000399646
0.000398948
0.000398377
0.000397748
0.000397244
0.000396677
0.000396228
0.000395716
0.000395317
0.000394855
0.000394499
0.000394081
0.000393765
0.000393385
0.000393104
0.000392758
0.000392508
0.000392194
0.000391971
0.000391685
0.000391486
0.000391226
0.000391048
0.000390813
0.000390653
0.000390442
0.000390301
0.000390103
0.00038997
0.00038978
0.000389655
0.000389473
0.000389355
0.00038918
0.000389069
0.000388902
0.000388796
0.000388638
0.00038854
0.000388389
0.000388299
0.000388165
0.000388062
0.000387988
0.000387821
0.000387936
0.000395473
0.00041466
0.00100691
0.00102386
0.000932283
0.000856819
0.000793404
0.000739827
0.000694442
0.000656149
0.000623754
0.000596388
0.000573103
0.000553273
0.00053622
0.000521535
0.000508761
0.000497634
0.000487851
0.000479237
0.000471594
0.000464796
0.00045872
0.000453263
0.000448359
0.000443913
0.000439901
0.000436231
0.000432911
0.000429845
0.00042707
0.000424482
0.000422143
0.000419937
0.000417949
0.000416055
0.000414353
0.000412713
0.000411248
0.000409819
0.000408552
0.000407299
0.000406197
0.000405091
0.00040413
0.00040315
0.000402308
0.000401436
0.000400697
0.000399918
0.000399267
0.000398567
0.000397994
0.000397364
0.000396858
0.000396289
0.000395839
0.000395326
0.000394925
0.000394463
0.000394105
0.000393686
0.000393369
0.000392988
0.000392706
0.000392359
0.000392108
0.000391793
0.000391569
0.000391283
0.000391082
0.000390822
0.000390644
0.000390407
0.000390247
0.000390035
0.000389894
0.000389695
0.000389561
0.00038937
0.000389245
0.000389062
0.000388944
0.000388768
0.000388656
0.000388489
0.000388383
0.000388224
0.000388125
0.000387974
0.000387883
0.000387748
0.000387645
0.00038757
0.000387404
0.000387525
0.000395298
0.000414354
0.00100245
0.00102386
0.000932282
0.000856822
0.000793409
0.000739829
0.000694435
0.000656126
0.00062371
0.000596321
0.000573012
0.000553158
0.000536083
0.000521376
0.000508582
0.000497436
0.000487636
0.000479007
0.000471349
0.000464538
0.00045845
0.000452982
0.000448067
0.000443611
0.000439591
0.000435912
0.000432585
0.000429512
0.000426731
0.000424137
0.000421792
0.000419581
0.000417588
0.000415688
0.000413983
0.000412338
0.00041087
0.000409437
0.000408166
0.00040691
0.000405805
0.000404697
0.000403733
0.000402751
0.000401906
0.000401032
0.00040029
0.000399509
0.000398856
0.000398154
0.00039758
0.000396947
0.00039644
0.00039587
0.000395418
0.000394904
0.000394501
0.000394037
0.000393679
0.000393258
0.00039294
0.000392557
0.000392275
0.000391927
0.000391675
0.000391359
0.000391134
0.000390846
0.000390645
0.000390384
0.000390205
0.000389967
0.000389806
0.000389593
0.000389452
0.000389252
0.000389118
0.000388926
0.0003888
0.000388617
0.000388498
0.000388322
0.000388209
0.000388041
0.000387934
0.000387775
0.000387675
0.000387523
0.000387432
0.000387297
0.000387193
0.000387117
0.000386951
0.00038708
0.00039511
0.000414022
0.000996875
0.00102386
0.000932281
0.000856824
0.000793414
0.000739832
0.000694427
0.000656101
0.000623663
0.000596249
0.000572915
0.000553035
0.000535935
0.000521206
0.00050839
0.000497224
0.000487406
0.000478759
0.000471086
0.00046426
0.000458159
0.000452679
0.000447753
0.000443287
0.000439257
0.000435569
0.000432234
0.000429153
0.000426365
0.000423765
0.000421413
0.000419197
0.000417198
0.000415294
0.000413584
0.000411935
0.000410462
0.000409025
0.000407751
0.000406491
0.000405383
0.000404272
0.000403305
0.000402319
0.000401472
0.000400595
0.000399852
0.000399068
0.000398413
0.000397709
0.000397133
0.000396498
0.000395989
0.000395417
0.000394964
0.000394448
0.000394044
0.000393578
0.000393219
0.000392797
0.000392477
0.000392093
0.00039181
0.00039146
0.000391207
0.00039089
0.000390665
0.000390375
0.000390174
0.000389911
0.000389731
0.000389493
0.000389331
0.000389117
0.000388975
0.000388775
0.00038864
0.000388447
0.000388321
0.000388136
0.000388017
0.00038784
0.000387727
0.000387558
0.00038745
0.00038729
0.00038719
0.000387038
0.000386946
0.00038681
0.000386705
0.000386629
0.000386463
0.000386599
0.00039491
0.000413661
0.000990213
0.00102386
0.00093228
0.000856826
0.000793419
0.000739835
0.000694419
0.000656075
0.000623613
0.000596173
0.000572811
0.000552904
0.000535778
0.000521023
0.000508184
0.000496997
0.000487159
0.000478494
0.000470804
0.000463963
0.000457847
0.000452354
0.000447416
0.000442939
0.000438899
0.000435202
0.000431858
0.000428769
0.000425973
0.000423365
0.000421007
0.000418785
0.000416781
0.00041487
0.000413155
0.000411501
0.000410025
0.000408583
0.000407305
0.000406041
0.00040493
0.000403815
0.000402845
0.000401857
0.000401007
0.000400127
0.000399381
0.000398594
0.000397938
0.000397231
0.000396653
0.000396016
0.000395505
0.000394931
0.000394476
0.000393958
0.000393553
0.000393085
0.000392724
0.000392301
0.00039198
0.000391595
0.00039131
0.000390959
0.000390705
0.000390387
0.00039016
0.00038987
0.000389667
0.000389404
0.000389223
0.000388983
0.000388821
0.000388606
0.000388464
0.000388262
0.000388127
0.000387933
0.000387806
0.00038762
0.0003875
0.000387322
0.000387208
0.000387039
0.000386931
0.00038677
0.000386669
0.000386516
0.000386423
0.000386287
0.00038618
0.000386104
0.000385939
0.000386083
0.000394695
0.000413271
0.000982499
0.00102386
0.000932279
0.000856829
0.000793425
0.000739838
0.000694411
0.000656047
0.000623561
0.000596092
0.000572701
0.000552764
0.00053561
0.000520829
0.000507965
0.000496755
0.000486895
0.000478211
0.000470503
0.000463645
0.000457515
0.000452008
0.000447057
0.000442567
0.000438516
0.000434809
0.000431456
0.000428358
0.000425554
0.000422938
0.000420574
0.000418344
0.000416334
0.000414418
0.000412697
0.000411038
0.000409557
0.000408111
0.000406829
0.000405561
0.000404445
0.000403327
0.000402354
0.000401362
0.000400509
0.000399626
0.000398877
0.000398088
0.000397429
0.00039672
0.000396139
0.0003955
0.000394987
0.000394411
0.000393954
0.000393435
0.000393028
0.000392558
0.000392196
0.00039177
0.000391448
0.000391061
0.000390775
0.000390423
0.000390168
0.000389848
0.000389621
0.000389329
0.000389125
0.00038886
0.000388679
0.000388438
0.000388275
0.000388059
0.000387916
0.000387713
0.000387577
0.000387382
0.000387254
0.000387068
0.000386947
0.000386768
0.000386654
0.000386483
0.000386375
0.000386212
0.000386111
0.000385957
0.000385863
0.000385727
0.000385619
0.000385542
0.000385378
0.000385531
0.000394465
0.00041285
0.000973771
0.00102386
0.000932277
0.000856831
0.000793431
0.000739842
0.000694403
0.000656019
0.000623505
0.000596007
0.000572584
0.000552617
0.000535432
0.000520623
0.000507733
0.000496498
0.000486616
0.00047791
0.000470183
0.000463308
0.000457161
0.000451639
0.000446674
0.000442172
0.000438109
0.000434391
0.000431027
0.00042792
0.000425107
0.000422484
0.000420112
0.000417875
0.000415858
0.000413936
0.00041221
0.000410545
0.000409058
0.000407607
0.000406321
0.000405048
0.000403929
0.000402806
0.00040183
0.000400834
0.000399978
0.000399092
0.000398341
0.000397548
0.000396886
0.000396174
0.000395592
0.00039495
0.000394435
0.000393856
0.000393398
0.000392876
0.000392468
0.000391996
0.000391632
0.000391205
0.000390881
0.000390492
0.000390205
0.000389851
0.000389595
0.000389274
0.000389045
0.000388752
0.000388547
0.000388281
0.000388099
0.000387856
0.000387693
0.000387476
0.000387332
0.000387128
0.000386991
0.000386795
0.000386667
0.000386479
0.000386357
0.000386177
0.000386062
0.000385891
0.000385782
0.000385618
0.000385516
0.000385361
0.000385267
0.00038513
0.000385021
0.000384943
0.000384779
0.000384943
0.000394219
0.000412395
0.000964073
0.00102386
0.000932276
0.000856834
0.000793438
0.000739845
0.000694394
0.000655989
0.000623447
0.000595917
0.000572461
0.000552461
0.000535245
0.000520406
0.000507487
0.000496226
0.00048632
0.000477592
0.000469845
0.00046295
0.000456786
0.000451248
0.000446269
0.000441753
0.000437677
0.000433947
0.000430573
0.000427456
0.000424634
0.000422001
0.000419621
0.000417377
0.000415353
0.000413424
0.000411691
0.000410021
0.000408529
0.000407072
0.000405781
0.000404504
0.00040338
0.000402253
0.000401273
0.000400274
0.000399414
0.000398524
0.00039777
0.000396974
0.00039631
0.000395595
0.00039501
0.000394366
0.000393848
0.000393267
0.000392807
0.000392283
0.000391872
0.000391399
0.000391033
0.000390604
0.000390279
0.000389888
0.0003896
0.000389244
0.000388986
0.000388663
0.000388433
0.000388139
0.000387933
0.000387665
0.000387482
0.000387238
0.000387074
0.000386855
0.000386711
0.000386505
0.000386368
0.000386171
0.000386042
0.000385853
0.000385731
0.000385549
0.000385434
0.000385261
0.000385151
0.000384987
0.000384884
0.000384728
0.000384632
0.000384495
0.000384385
0.000384306
0.000384143
0.000384317
0.000393954
0.000411904
0.000953454
0.00102386
0.000932275
0.000856837
0.000793445
0.00073985
0.000694385
0.000655957
0.000623386
0.000595823
0.000572332
0.000552297
0.000535047
0.000520176
0.000507228
0.000495939
0.000486007
0.000477256
0.000469487
0.000462572
0.00045639
0.000450835
0.000445839
0.000441309
0.000437221
0.000433478
0.000430092
0.000426964
0.000424132
0.00042149
0.000419102
0.000416849
0.000414818
0.000412882
0.000411143
0.000409466
0.000407968
0.000406506
0.000405209
0.000403927
0.000402799
0.000401667
0.000400683
0.00039968
0.000398817
0.000397923
0.000397166
0.000396366
0.000395699
0.000394981
0.000394393
0.000393746
0.000393227
0.000392643
0.00039218
0.000391654
0.000391241
0.000390765
0.000390398
0.000389966
0.00038964
0.000389247
0.000388957
0.0003886
0.000388341
0.000388016
0.000387785
0.000387489
0.000387282
0.000387013
0.000386828
0.000386583
0.000386418
0.000386198
0.000386052
0.000385846
0.000385707
0.000385509
0.000385379
0.000385189
0.000385066
0.000384883
0.000384767
0.000384593
0.000384482
0.000384317
0.000384213
0.000384056
0.00038396
0.000383822
0.000383711
0.000383631
0.000383468
0.000383653
0.000393666
0.000411375
0.000941963
0.00102386
0.000932273
0.00085684
0.000793452
0.000739854
0.000694376
0.000655925
0.000623323
0.000595725
0.000572197
0.000552125
0.00053484
0.000519935
0.000506955
0.000495637
0.000485678
0.000476902
0.00046911
0.000462174
0.000455972
0.000450399
0.000445387
0.000440841
0.000436738
0.000432983
0.000429585
0.000426445
0.000423603
0.000420951
0.000418553
0.000416292
0.000414253
0.000412309
0.000410563
0.000408879
0.000407375
0.000405907
0.000404605
0.000403318
0.000402185
0.000401048
0.00040006
0.000399052
0.000398185
0.000397288
0.000396527
0.000395724
0.000395054
0.000394332
0.000393741
0.000393091
0.000392569
0.000391983
0.000391518
0.000390988
0.000390574
0.000390096
0.000389727
0.000389293
0.000388964
0.000388569
0.000388278
0.000387918
0.000387658
0.000387331
0.000387099
0.000386801
0.000386593
0.000386322
0.000386137
0.00038589
0.000385724
0.000385502
0.000385356
0.000385148
0.000385009
0.000384809
0.000384678
0.000384486
0.000384363
0.000384179
0.000384062
0.000383886
0.000383775
0.000383608
0.000383504
0.000383346
0.000383248
0.00038311
0.000382997
0.000382917
0.000382754
0.000382951
0.000393351
0.000410807
0.000929655
0.00102386
0.000932271
0.000856842
0.000793459
0.000739859
0.000694367
0.000655892
0.000623257
0.000595622
0.000572055
0.000551946
0.000534623
0.000519683
0.000506669
0.000495321
0.000485333
0.00047653
0.000468713
0.000461755
0.000455532
0.00044994
0.000444911
0.000440349
0.000436231
0.000432461
0.00042905
0.000425899
0.000423045
0.000420383
0.000417975
0.000415705
0.000413657
0.000411705
0.000409952
0.000408261
0.000406751
0.000405276
0.000403969
0.000402675
0.000401537
0.000400396
0.000399403
0.00039839
0.00039752
0.000396618
0.000395853
0.000395046
0.000394373
0.000393648
0.000393054
0.000392401
0.000391876
0.000391286
0.000390819
0.000390287
0.000389871
0.000389389
0.000389018
0.000388582
0.000388252
0.000387855
0.000387562
0.0003872
0.000386938
0.000386609
0.000386376
0.000386076
0.000385866
0.000385594
0.000385407
0.000385159
0.000384991
0.000384768
0.000384621
0.000384412
0.000384272
0.000384071
0.000383939
0.000383746
0.000383621
0.000383436
0.000383318
0.000383141
0.000383029
0.000382861
0.000382756
0.000382596
0.000382498
0.000382358
0.000382244
0.000382163
0.000382001
0.00038221
0.000393002
0.000410199
0.000916586
0.00102386
0.00093227
0.000856845
0.000793467
0.000739864
0.000694358
0.000655857
0.000623189
0.000595516
0.000571908
0.000551758
0.000534396
0.000519419
0.00050637
0.000494989
0.000484971
0.00047614
0.000468298
0.000461316
0.000455071
0.000449459
0.000444411
0.000439832
0.000435698
0.000431913
0.000428489
0.000425325
0.000422459
0.000419786
0.000417368
0.000415088
0.000413031
0.000411071
0.00040931
0.000407611
0.000406094
0.000404613
0.000403299
0.000401999
0.000400856
0.000399709
0.000398711
0.000397694
0.000396819
0.000395912
0.000395144
0.000394333
0.000393656
0.000392927
0.000392331
0.000391674
0.000391146
0.000390553
0.000390084
0.000389549
0.00038913
0.000388646
0.000388273
0.000387834
0.000387502
0.000387102
0.000386807
0.000386443
0.00038618
0.000385849
0.000385614
0.000385312
0.000385102
0.000384827
0.000384639
0.000384389
0.00038422
0.000383996
0.000383848
0.000383637
0.000383496
0.000383293
0.00038316
0.000382966
0.00038284
0.000382653
0.000382535
0.000382356
0.000382243
0.000382074
0.000381968
0.000381807
0.000381707
0.000381567
0.000381452
0.000381369
0.000381208
0.00038143
0.000392613
0.000409547
0.000902815
0.00102386
0.000932268
0.000856848
0.000793475
0.00073987
0.000694349
0.000655822
0.000623119
0.000595405
0.000571756
0.000551563
0.000534159
0.000519143
0.000506057
0.000494642
0.000484592
0.000475732
0.000467863
0.000460856
0.000454589
0.000448955
0.000443887
0.00043929
0.000435139
0.000431339
0.0004279
0.000424722
0.000421845
0.00041916
0.000416731
0.00041444
0.000412375
0.000410405
0.000408636
0.000406929
0.000405405
0.000403916
0.000402596
0.00040129
0.000400141
0.000398988
0.000397985
0.000396963
0.000396083
0.000395172
0.0003944
0.000393584
0.000392904
0.000392171
0.000391571
0.00039091
0.00039038