/*--------------------------------*- C++ -*----------------------------------*\
| =========                 |                                                 |
| \\      /  F ield         | OpenFOAM: The Open Source CFD Toolbox           |
|  \\    /   O peration     | Version:  v2012                                 |
|   \\  /    A nd           | Website:  www.openfoam.com                      |
|    \\/     M anipulation  |                                                 |
\*---------------------------------------------------------------------------*/
FoamFile
{
    version     2.0;
    format      ascii;
    class       volScalarField;
    location    "60";
    object      nut;
}
// * * * * * * * * * * * * * * * * * * * * * * * * * * * * * * * * * * * * * //

dimensions      [0 2 -1 0 0 0 0];


internalField   nonuniform List<scalar> 
209825
(
1.23928e-07
1.23149e-07
1.22408e-07
1.21338e-07
1.19873e-07
1.18087e-07
1.16172e-07
1.14228e-07
1.12378e-07
1.10634e-07
1.09048e-07
1.0759e-07
1.06286e-07
1.05094e-07
1.04034e-07
1.03063e-07
1.02199e-07
1.01405e-07
1.00697e-07
1.00042e-07
9.94575e-08
9.89144e-08
9.84265e-08
9.79722e-08
9.75621e-08
9.71787e-08
9.68307e-08
9.6505e-08
9.62077e-08
9.5929e-08
9.56726e-08
9.54328e-08
9.52103e-08
9.50028e-08
9.48084e-08
9.46277e-08
9.44564e-08
9.42985e-08
9.4147e-08
9.40088e-08
9.38731e-08
9.37515e-08
9.36306e-08
9.35227e-08
9.34135e-08
9.33183e-08
9.32194e-08
9.31358e-08
9.30453e-08
9.29711e-08
9.2888e-08
9.28216e-08
9.27438e-08
9.26853e-08
9.26146e-08
9.25615e-08
9.24968e-08
9.24489e-08
9.23902e-08
9.23469e-08
9.22913e-08
9.2251e-08
9.22005e-08
9.21631e-08
9.21157e-08
9.20814e-08
9.20384e-08
9.2007e-08
9.19669e-08
9.19371e-08
9.18994e-08
9.18717e-08
9.18371e-08
9.18124e-08
9.17802e-08
9.17579e-08
9.17272e-08
9.17059e-08
9.16757e-08
9.16547e-08
9.16249e-08
9.16041e-08
9.1575e-08
9.15543e-08
9.15255e-08
9.15042e-08
9.14731e-08
9.14496e-08
9.14185e-08
9.139e-08
9.13731e-08
9.13207e-08
9.13234e-08
9.2171e-08
9.44336e-08
8.84485e-09
1.23928e-07
1.23149e-07
1.22408e-07
1.21338e-07
1.19874e-07
1.18088e-07
1.16172e-07
1.14229e-07
1.12379e-07
1.10635e-07
1.09049e-07
1.07591e-07
1.06287e-07
1.05095e-07
1.04035e-07
1.03064e-07
1.022e-07
1.01406e-07
1.00698e-07
1.00043e-07
9.94584e-08
9.89152e-08
9.84274e-08
9.7973e-08
9.75629e-08
9.71795e-08
9.68315e-08
9.65058e-08
9.62085e-08
9.59298e-08
9.56734e-08
9.54336e-08
9.52111e-08
9.50035e-08
9.48091e-08
9.46284e-08
9.44571e-08
9.42992e-08
9.41477e-08
9.40094e-08
9.38738e-08
9.37521e-08
9.36312e-08
9.35233e-08
9.34141e-08
9.33189e-08
9.32201e-08
9.31365e-08
9.30459e-08
9.29718e-08
9.28886e-08
9.28222e-08
9.27444e-08
9.26859e-08
9.26152e-08
9.25621e-08
9.24973e-08
9.24495e-08
9.23907e-08
9.23475e-08
9.22918e-08
9.22516e-08
9.2201e-08
9.21636e-08
9.21163e-08
9.2082e-08
9.2039e-08
9.20075e-08
9.19675e-08
9.19377e-08
9.18999e-08
9.18722e-08
9.18376e-08
9.1813e-08
9.17808e-08
9.17584e-08
9.17278e-08
9.17064e-08
9.16762e-08
9.16552e-08
9.16254e-08
9.16046e-08
9.15755e-08
9.15548e-08
9.15261e-08
9.15047e-08
9.14736e-08
9.14501e-08
9.1419e-08
9.13905e-08
9.13736e-08
9.13213e-08
9.1324e-08
9.21731e-08
9.44347e-08
9.11576e-09
1.23928e-07
1.23149e-07
1.22408e-07
1.21338e-07
1.19875e-07
1.18089e-07
1.16174e-07
1.14231e-07
1.12381e-07
1.10637e-07
1.09052e-07
1.07594e-07
1.0629e-07
1.05098e-07
1.04037e-07
1.03066e-07
1.02202e-07
1.01408e-07
1.007e-07
1.00045e-07
9.94603e-08
9.8917e-08
9.84291e-08
9.79746e-08
9.75645e-08
9.71809e-08
9.68329e-08
9.65071e-08
9.62097e-08
9.5931e-08
9.56745e-08
9.54347e-08
9.52121e-08
9.50044e-08
9.481e-08
9.46293e-08
9.4458e-08
9.43e-08
9.41485e-08
9.40101e-08
9.38745e-08
9.37528e-08
9.36318e-08
9.35239e-08
9.34147e-08
9.33195e-08
9.32205e-08
9.31369e-08
9.30464e-08
9.29722e-08
9.2889e-08
9.28226e-08
9.27447e-08
9.26862e-08
9.26155e-08
9.25624e-08
9.24976e-08
9.24497e-08
9.2391e-08
9.23477e-08
9.22921e-08
9.22518e-08
9.22012e-08
9.21638e-08
9.21165e-08
9.20821e-08
9.20391e-08
9.20076e-08
9.19676e-08
9.19378e-08
9.19001e-08
9.18723e-08
9.18377e-08
9.1813e-08
9.17808e-08
9.17585e-08
9.17278e-08
9.17064e-08
9.16763e-08
9.16553e-08
9.16254e-08
9.16046e-08
9.15755e-08
9.15548e-08
9.15261e-08
9.15047e-08
9.14736e-08
9.14501e-08
9.1419e-08
9.13905e-08
9.13736e-08
9.13213e-08
9.1324e-08
9.21766e-08
9.44357e-08
9.45219e-09
1.23928e-07
1.23149e-07
1.22408e-07
1.21339e-07
1.19876e-07
1.18092e-07
1.16178e-07
1.14235e-07
1.12386e-07
1.10642e-07
1.09056e-07
1.07598e-07
1.06294e-07
1.05102e-07
1.04041e-07
1.0307e-07
1.02206e-07
1.01412e-07
1.00703e-07
1.00049e-07
9.94637e-08
9.89203e-08
9.84322e-08
9.79776e-08
9.75673e-08
9.71836e-08
9.68354e-08
9.65095e-08
9.62121e-08
9.59332e-08
9.56767e-08
9.54367e-08
9.5214e-08
9.50063e-08
9.48118e-08
9.4631e-08
9.44596e-08
9.43016e-08
9.415e-08
9.40116e-08
9.38759e-08
9.37541e-08
9.36332e-08
9.35252e-08
9.34159e-08
9.33206e-08
9.32217e-08
9.3138e-08
9.30474e-08
9.29732e-08
9.289e-08
9.28236e-08
9.27457e-08
9.26871e-08
9.26164e-08
9.25632e-08
9.24984e-08
9.24505e-08
9.23917e-08
9.23485e-08
9.22927e-08
9.22525e-08
9.22019e-08
9.21644e-08
9.21171e-08
9.20827e-08
9.20397e-08
9.20082e-08
9.19681e-08
9.19383e-08
9.19006e-08
9.18728e-08
9.18382e-08
9.18135e-08
9.17813e-08
9.17589e-08
9.17282e-08
9.17068e-08
9.16767e-08
9.16556e-08
9.16258e-08
9.1605e-08
9.15758e-08
9.15551e-08
9.15264e-08
9.1505e-08
9.14739e-08
9.14504e-08
9.14194e-08
9.13909e-08
9.13739e-08
9.13216e-08
9.13245e-08
9.21823e-08
9.44376e-08
9.82756e-09
1.23928e-07
1.23149e-07
1.22408e-07
1.2134e-07
1.19878e-07
1.18096e-07
1.16182e-07
1.14241e-07
1.12392e-07
1.10648e-07
1.09063e-07
1.07605e-07
1.06301e-07
1.05109e-07
1.04048e-07
1.03076e-07
1.02212e-07
1.01417e-07
1.00709e-07
1.00054e-07
9.94687e-08
9.8925e-08
9.84368e-08
9.7982e-08
9.75715e-08
9.71877e-08
9.68393e-08
9.65132e-08
9.62156e-08
9.59366e-08
9.56799e-08
9.54399e-08
9.52171e-08
9.50092e-08
9.48146e-08
9.46337e-08
9.44622e-08
9.43041e-08
9.41524e-08
9.40139e-08
9.38781e-08
9.37563e-08
9.36352e-08
9.35272e-08
9.34178e-08
9.33225e-08
9.32235e-08
9.31398e-08
9.30491e-08
9.29748e-08
9.28916e-08
9.28251e-08
9.27472e-08
9.26886e-08
9.26178e-08
9.25646e-08
9.24998e-08
9.24518e-08
9.2393e-08
9.23497e-08
9.2294e-08
9.22536e-08
9.2203e-08
9.21656e-08
9.21182e-08
9.20838e-08
9.20407e-08
9.20092e-08
9.19691e-08
9.19393e-08
9.19015e-08
9.18738e-08
9.18391e-08
9.18144e-08
9.17821e-08
9.17598e-08
9.1729e-08
9.17076e-08
9.16774e-08
9.16564e-08
9.16265e-08
9.16057e-08
9.15765e-08
9.15558e-08
9.1527e-08
9.15057e-08
9.14746e-08
9.14511e-08
9.14201e-08
9.13916e-08
9.13746e-08
9.13224e-08
9.13254e-08
9.21904e-08
9.44404e-08
1.02349e-08
1.23928e-07
1.23148e-07
1.22408e-07
1.21341e-07
1.19881e-07
1.181e-07
1.16189e-07
1.14248e-07
1.124e-07
1.10657e-07
1.09072e-07
1.07614e-07
1.0631e-07
1.05117e-07
1.04056e-07
1.03084e-07
1.0222e-07
1.01425e-07
1.00716e-07
1.00061e-07
9.94753e-08
9.89314e-08
9.84429e-08
9.79878e-08
9.75771e-08
9.7193e-08
9.68445e-08
9.65182e-08
9.62204e-08
9.59412e-08
9.56843e-08
9.54441e-08
9.52211e-08
9.50132e-08
9.48184e-08
9.46373e-08
9.44657e-08
9.43075e-08
9.41557e-08
9.40171e-08
9.38812e-08
9.37593e-08
9.36381e-08
9.353e-08
9.34206e-08
9.33251e-08
9.3226e-08
9.31423e-08
9.30515e-08
9.29772e-08
9.28938e-08
9.28274e-08
9.27493e-08
9.26907e-08
9.26198e-08
9.25666e-08
9.25017e-08
9.24537e-08
9.23948e-08
9.23515e-08
9.22957e-08
9.22554e-08
9.22047e-08
9.21672e-08
9.21198e-08
9.20854e-08
9.20423e-08
9.20107e-08
9.19706e-08
9.19407e-08
9.19029e-08
9.18752e-08
9.18404e-08
9.18157e-08
9.17834e-08
9.1761e-08
9.17303e-08
9.17089e-08
9.16786e-08
9.16576e-08
9.16277e-08
9.16069e-08
9.15776e-08
9.15569e-08
9.15281e-08
9.15068e-08
9.14757e-08
9.14523e-08
9.14211e-08
9.13927e-08
9.13757e-08
9.13235e-08
9.13267e-08
9.22012e-08
9.44442e-08
1.06732e-08
1.23928e-07
1.23148e-07
1.22408e-07
1.21342e-07
1.19885e-07
1.18106e-07
1.16196e-07
1.14257e-07
1.1241e-07
1.10668e-07
1.09083e-07
1.07625e-07
1.06321e-07
1.05128e-07
1.04067e-07
1.03094e-07
1.0223e-07
1.01434e-07
1.00725e-07
1.0007e-07
9.94836e-08
9.89394e-08
9.84506e-08
9.79952e-08
9.75842e-08
9.71998e-08
9.6851e-08
9.65244e-08
9.62264e-08
9.5947e-08
9.56899e-08
9.54495e-08
9.52263e-08
9.50182e-08
9.48232e-08
9.4642e-08
9.44702e-08
9.43118e-08
9.41599e-08
9.40212e-08
9.38852e-08
9.37631e-08
9.36418e-08
9.35336e-08
9.34241e-08
9.33285e-08
9.32293e-08
9.31455e-08
9.30546e-08
9.29802e-08
9.28968e-08
9.28302e-08
9.27521e-08
9.26934e-08
9.26225e-08
9.25692e-08
9.25042e-08
9.24562e-08
9.23972e-08
9.23539e-08
9.2298e-08
9.22576e-08
9.22069e-08
9.21694e-08
9.21219e-08
9.20875e-08
9.20443e-08
9.20128e-08
9.19726e-08
9.19427e-08
9.19048e-08
9.18771e-08
9.18423e-08
9.18176e-08
9.17852e-08
9.17628e-08
9.1732e-08
9.17105e-08
9.16803e-08
9.16592e-08
9.16293e-08
9.16084e-08
9.15792e-08
9.15584e-08
9.15295e-08
9.15082e-08
9.14772e-08
9.14538e-08
9.14227e-08
9.13942e-08
9.13772e-08
9.13251e-08
9.13286e-08
9.22149e-08
9.44489e-08
1.11428e-08
1.23928e-07
1.23147e-07
1.22408e-07
1.21344e-07
1.19889e-07
1.18113e-07
1.16206e-07
1.14268e-07
1.12422e-07
1.10681e-07
1.09096e-07
1.07638e-07
1.06334e-07
1.05141e-07
1.04079e-07
1.03107e-07
1.02241e-07
1.01445e-07
1.00736e-07
1.0008e-07
9.94937e-08
9.8949e-08
9.84598e-08
9.80041e-08
9.75927e-08
9.7208e-08
9.68589e-08
9.6532e-08
9.62337e-08
9.59541e-08
9.56967e-08
9.5456e-08
9.52326e-08
9.50243e-08
9.48291e-08
9.46477e-08
9.44758e-08
9.43172e-08
9.41651e-08
9.40262e-08
9.389e-08
9.37678e-08
9.36464e-08
9.3538e-08
9.34284e-08
9.33328e-08
9.32334e-08
9.31495e-08
9.30585e-08
9.2984e-08
9.29005e-08
9.28338e-08
9.27556e-08
9.26968e-08
9.26259e-08
9.25725e-08
9.25074e-08
9.24593e-08
9.24003e-08
9.23569e-08
9.2301e-08
9.22605e-08
9.22097e-08
9.21722e-08
9.21246e-08
9.20901e-08
9.20469e-08
9.20153e-08
9.19751e-08
9.19452e-08
9.19073e-08
9.18795e-08
9.18446e-08
9.18199e-08
9.17875e-08
9.1765e-08
9.17342e-08
9.17127e-08
9.16824e-08
9.16613e-08
9.16313e-08
9.16104e-08
9.15811e-08
9.15603e-08
9.15314e-08
9.15101e-08
9.14792e-08
9.14558e-08
9.14246e-08
9.13962e-08
9.13791e-08
9.13271e-08
9.13309e-08
9.22315e-08
9.44545e-08
1.16442e-08
1.23928e-07
1.23147e-07
1.22408e-07
1.21346e-07
1.19894e-07
1.18121e-07
1.16217e-07
1.14281e-07
1.12437e-07
1.10696e-07
1.09111e-07
1.07653e-07
1.06349e-07
1.05156e-07
1.04094e-07
1.03121e-07
1.02255e-07
1.01459e-07
1.00749e-07
1.00092e-07
9.95055e-08
9.89604e-08
9.84708e-08
9.80146e-08
9.76028e-08
9.72177e-08
9.68682e-08
9.6541e-08
9.62424e-08
9.59624e-08
9.57048e-08
9.54638e-08
9.52401e-08
9.50315e-08
9.48361e-08
9.46545e-08
9.44823e-08
9.43235e-08
9.41712e-08
9.40322e-08
9.38958e-08
9.37734e-08
9.36519e-08
9.35433e-08
9.34335e-08
9.33378e-08
9.32383e-08
9.31542e-08
9.30631e-08
9.29885e-08
9.29049e-08
9.28382e-08
9.27598e-08
9.27009e-08
9.26299e-08
9.25764e-08
9.25113e-08
9.24631e-08
9.24039e-08
9.23605e-08
9.23045e-08
9.2264e-08
9.22131e-08
9.21755e-08
9.21279e-08
9.20934e-08
9.20501e-08
9.20184e-08
9.19781e-08
9.19482e-08
9.19102e-08
9.18824e-08
9.18475e-08
9.18227e-08
9.17902e-08
9.17677e-08
9.17368e-08
9.17153e-08
9.16849e-08
9.16638e-08
9.16338e-08
9.16129e-08
9.15835e-08
9.15627e-08
9.15338e-08
9.15125e-08
9.14816e-08
9.14582e-08
9.1427e-08
9.13986e-08
9.13815e-08
9.13296e-08
9.13337e-08
9.22512e-08
9.4461e-08
1.21779e-08
1.23928e-07
1.23146e-07
1.22408e-07
1.21348e-07
1.199e-07
1.18131e-07
1.16229e-07
1.14296e-07
1.12453e-07
1.10713e-07
1.09129e-07
1.07671e-07
1.06367e-07
1.05173e-07
1.0411e-07
1.03137e-07
1.02271e-07
1.01474e-07
1.00763e-07
1.00107e-07
9.95192e-08
9.89735e-08
9.84834e-08
9.80267e-08
9.76145e-08
9.7229e-08
9.68791e-08
9.65514e-08
9.62524e-08
9.59721e-08
9.57141e-08
9.54728e-08
9.52488e-08
9.50399e-08
9.48442e-08
9.46623e-08
9.44899e-08
9.43309e-08
9.41784e-08
9.40391e-08
9.39026e-08
9.378e-08
9.36582e-08
9.35495e-08
9.34395e-08
9.33437e-08
9.3244e-08
9.31598e-08
9.30686e-08
9.29938e-08
9.291e-08
9.28432e-08
9.27648e-08
9.27058e-08
9.26346e-08
9.2581e-08
9.25158e-08
9.24675e-08
9.24083e-08
9.23647e-08
9.23087e-08
9.22681e-08
9.22171e-08
9.21794e-08
9.21318e-08
9.20972e-08
9.20538e-08
9.20221e-08
9.19817e-08
9.19518e-08
9.19137e-08
9.18858e-08
9.18509e-08
9.18261e-08
9.17935e-08
9.1771e-08
9.174e-08
9.17184e-08
9.1688e-08
9.16669e-08
9.16368e-08
9.16158e-08
9.15864e-08
9.15656e-08
9.15366e-08
9.15153e-08
9.14845e-08
9.1461e-08
9.14298e-08
9.14014e-08
9.13843e-08
9.13325e-08
9.13371e-08
9.22743e-08
9.44684e-08
1.27439e-08
1.23928e-07
1.23145e-07
1.22407e-07
1.21351e-07
1.19907e-07
1.18141e-07
1.16243e-07
1.14313e-07
1.12471e-07
1.10732e-07
1.09149e-07
1.07691e-07
1.06386e-07
1.05192e-07
1.0413e-07
1.03156e-07
1.02289e-07
1.01491e-07
1.0078e-07
1.00123e-07
9.95347e-08
9.89884e-08
9.84977e-08
9.80405e-08
9.76278e-08
9.72418e-08
9.68914e-08
9.65633e-08
9.62639e-08
9.59831e-08
9.57248e-08
9.54831e-08
9.52588e-08
9.50495e-08
9.48535e-08
9.46714e-08
9.44987e-08
9.43394e-08
9.41866e-08
9.40471e-08
9.39103e-08
9.37875e-08
9.36655e-08
9.35567e-08
9.34465e-08
9.33504e-08
9.32506e-08
9.31662e-08
9.30748e-08
9.29999e-08
9.2916e-08
9.2849e-08
9.27705e-08
9.27113e-08
9.264e-08
9.25864e-08
9.2521e-08
9.24726e-08
9.24133e-08
9.23696e-08
9.23135e-08
9.22728e-08
9.22218e-08
9.2184e-08
9.21362e-08
9.21016e-08
9.20581e-08
9.20264e-08
9.19859e-08
9.19559e-08
9.19178e-08
9.18899e-08
9.18548e-08
9.183e-08
9.17973e-08
9.17747e-08
9.17436e-08
9.17221e-08
9.16916e-08
9.16704e-08
9.16402e-08
9.16193e-08
9.15898e-08
9.1569e-08
9.15398e-08
9.15186e-08
9.14878e-08
9.14644e-08
9.14332e-08
9.14048e-08
9.13877e-08
9.13359e-08
9.13411e-08
9.23009e-08
9.44764e-08
1.33417e-08
1.23928e-07
1.23144e-07
1.22407e-07
1.21353e-07
1.19914e-07
1.18153e-07
1.16259e-07
1.14331e-07
1.12492e-07
1.10754e-07
1.09171e-07
1.07713e-07
1.06409e-07
1.05214e-07
1.04151e-07
1.03176e-07
1.02309e-07
1.01511e-07
1.00799e-07
1.00141e-07
9.95521e-08
9.90051e-08
9.85139e-08
9.8056e-08
9.76428e-08
9.72561e-08
9.69053e-08
9.65767e-08
9.62768e-08
9.59955e-08
9.57368e-08
9.54947e-08
9.527e-08
9.50604e-08
9.48641e-08
9.46815e-08
9.45085e-08
9.4349e-08
9.41959e-08
9.40561e-08
9.3919e-08
9.3796e-08
9.36738e-08
9.35647e-08
9.34543e-08
9.33581e-08
9.3258e-08
9.31735e-08
9.30819e-08
9.30069e-08
9.29227e-08
9.28557e-08
9.27769e-08
9.27177e-08
9.26462e-08
9.25924e-08
9.25269e-08
9.24784e-08
9.2419e-08
9.23752e-08
9.2319e-08
9.22782e-08
9.22271e-08
9.21892e-08
9.21414e-08
9.21066e-08
9.20631e-08
9.20312e-08
9.19907e-08
9.19606e-08
9.19224e-08
9.18945e-08
9.18593e-08
9.18344e-08
9.18017e-08
9.1779e-08
9.17479e-08
9.17263e-08
9.16957e-08
9.16745e-08
9.16442e-08
9.16232e-08
9.15937e-08
9.15728e-08
9.15436e-08
9.15223e-08
9.14916e-08
9.14682e-08
9.1437e-08
9.14086e-08
9.13915e-08
9.13399e-08
9.13456e-08
9.23311e-08
9.44851e-08
1.39707e-08
1.23928e-07
1.23143e-07
1.22407e-07
1.21356e-07
1.19922e-07
1.18166e-07
1.16276e-07
1.14352e-07
1.12514e-07
1.10778e-07
1.09196e-07
1.07738e-07
1.06433e-07
1.05239e-07
1.04175e-07
1.03199e-07
1.02331e-07
1.01532e-07
1.0082e-07
1.00161e-07
9.95715e-08
9.90238e-08
9.85318e-08
9.80733e-08
9.76594e-08
9.72722e-08
9.69207e-08
9.65916e-08
9.62912e-08
9.60094e-08
9.57502e-08
9.55076e-08
9.52826e-08
9.50725e-08
9.48758e-08
9.46929e-08
9.45196e-08
9.43597e-08
9.42062e-08
9.40662e-08
9.39288e-08
9.38056e-08
9.36831e-08
9.35738e-08
9.34631e-08
9.33666e-08
9.32664e-08
9.31816e-08
9.30898e-08
9.30146e-08
9.29303e-08
9.28631e-08
9.27842e-08
9.27248e-08
9.26532e-08
9.25993e-08
9.25336e-08
9.2485e-08
9.24254e-08
9.23815e-08
9.23252e-08
9.22843e-08
9.2233e-08
9.21951e-08
9.21471e-08
9.21123e-08
9.20686e-08
9.20368e-08
9.19961e-08
9.1966e-08
9.19277e-08
9.18997e-08
9.18644e-08
9.18395e-08
9.18066e-08
9.17839e-08
9.17526e-08
9.1731e-08
9.17003e-08
9.16791e-08
9.16487e-08
9.16277e-08
9.15981e-08
9.15772e-08
9.15478e-08
9.15266e-08
9.1496e-08
9.14726e-08
9.14413e-08
9.14129e-08
9.13958e-08
9.13444e-08
9.13508e-08
9.23652e-08
9.44941e-08
1.4633e-08
1.23928e-07
1.23142e-07
1.22406e-07
1.2136e-07
1.1993e-07
1.1818e-07
1.16295e-07
1.14374e-07
1.12539e-07
1.10804e-07
1.09223e-07
1.07766e-07
1.06461e-07
1.05265e-07
1.04201e-07
1.03225e-07
1.02356e-07
1.01556e-07
1.00843e-07
1.00183e-07
9.95929e-08
9.90444e-08
9.85517e-08
9.80924e-08
9.76778e-08
9.72899e-08
9.69378e-08
9.66081e-08
9.63071e-08
9.60248e-08
9.57651e-08
9.5522e-08
9.52964e-08
9.5086e-08
9.48888e-08
9.47055e-08
9.45318e-08
9.43715e-08
9.42178e-08
9.40774e-08
9.39397e-08
9.38162e-08
9.36934e-08
9.35838e-08
9.34729e-08
9.33762e-08
9.32756e-08
9.31907e-08
9.30987e-08
9.30233e-08
9.29388e-08
9.28714e-08
9.27923e-08
9.27327e-08
9.26609e-08
9.26069e-08
9.25411e-08
9.24923e-08
9.24325e-08
9.23886e-08
9.23321e-08
9.22911e-08
9.22397e-08
9.22017e-08
9.21536e-08
9.21187e-08
9.20749e-08
9.20429e-08
9.20022e-08
9.1972e-08
9.19336e-08
9.19055e-08
9.18702e-08
9.18451e-08
9.18122e-08
9.17894e-08
9.1758e-08
9.17363e-08
9.17055e-08
9.16842e-08
9.16538e-08
9.16328e-08
9.1603e-08
9.15821e-08
9.15526e-08
9.15314e-08
9.15008e-08
9.14774e-08
9.14461e-08
9.14178e-08
9.14007e-08
9.13494e-08
9.13565e-08
9.24032e-08
9.45034e-08
1.53305e-08
1.23928e-07
1.23141e-07
1.22406e-07
1.21363e-07
1.19939e-07
1.18195e-07
1.16315e-07
1.14398e-07
1.12566e-07
1.10833e-07
1.09253e-07
1.07795e-07
1.0649e-07
1.05295e-07
1.04229e-07
1.03253e-07
1.02383e-07
1.01582e-07
1.00868e-07
1.00207e-07
9.96163e-08
9.9067e-08
9.85735e-08
9.81133e-08
9.76981e-08
9.73094e-08
9.69566e-08
9.66262e-08
9.63246e-08
9.60417e-08
9.57814e-08
9.55378e-08
9.53117e-08
9.51007e-08
9.49031e-08
9.47194e-08
9.45453e-08
9.43846e-08
9.42305e-08
9.40898e-08
9.39517e-08
9.38278e-08
9.37047e-08
9.35949e-08
9.34837e-08
9.33867e-08
9.32859e-08
9.32007e-08
9.31084e-08
9.30329e-08
9.29481e-08
9.28806e-08
9.28013e-08
9.27415e-08
9.26695e-08
9.26153e-08
9.25493e-08
9.25004e-08
9.24404e-08
9.23963e-08
9.23397e-08
9.22986e-08
9.22471e-08
9.2209e-08
9.21608e-08
9.21257e-08
9.20818e-08
9.20497e-08
9.20089e-08
9.19786e-08
9.19401e-08
9.1912e-08
9.18765e-08
9.18514e-08
9.18183e-08
9.17955e-08
9.1764e-08
9.17422e-08
9.17113e-08
9.169e-08
9.16594e-08
9.16384e-08
9.16085e-08
9.15875e-08
9.1558e-08
9.15367e-08
9.15062e-08
9.14828e-08
9.14515e-08
9.14231e-08
9.14061e-08
9.13549e-08
9.13629e-08
9.24453e-08
9.45125e-08
1.60657e-08
1.23928e-07
1.23139e-07
1.22406e-07
1.21367e-07
1.19949e-07
1.18212e-07
1.16337e-07
1.14425e-07
1.12596e-07
1.10864e-07
1.09285e-07
1.07828e-07
1.06523e-07
1.05326e-07
1.04261e-07
1.03283e-07
1.02412e-07
1.01611e-07
1.00896e-07
1.00234e-07
9.96419e-08
9.90916e-08
9.85972e-08
9.81362e-08
9.77201e-08
9.73306e-08
9.69772e-08
9.6646e-08
9.63437e-08
9.60601e-08
9.57992e-08
9.5555e-08
9.53284e-08
9.51169e-08
9.49188e-08
9.47346e-08
9.456e-08
9.43989e-08
9.42444e-08
9.41033e-08
9.39649e-08
9.38406e-08
9.37172e-08
9.36071e-08
9.34955e-08
9.33983e-08
9.32971e-08
9.32117e-08
9.31192e-08
9.30434e-08
9.29584e-08
9.28906e-08
9.28111e-08
9.27511e-08
9.2679e-08
9.26246e-08
9.25584e-08
9.25093e-08
9.24491e-08
9.24049e-08
9.23481e-08
9.23069e-08
9.22552e-08
9.2217e-08
9.21686e-08
9.21335e-08
9.20894e-08
9.20573e-08
9.20163e-08
9.1986e-08
9.19473e-08
9.19191e-08
9.18835e-08
9.18584e-08
9.18251e-08
9.18022e-08
9.17705e-08
9.17487e-08
9.17177e-08
9.16963e-08
9.16657e-08
9.16445e-08
9.16146e-08
9.15936e-08
9.15639e-08
9.15426e-08
9.15121e-08
9.14888e-08
9.14575e-08
9.14291e-08
9.1412e-08
9.13611e-08
9.137e-08
9.24917e-08
9.41073e-08
1.68408e-08
1.23928e-07
1.23138e-07
1.22405e-07
1.21371e-07
1.1996e-07
1.18229e-07
1.16361e-07
1.14453e-07
1.12627e-07
1.10897e-07
1.09319e-07
1.07863e-07
1.06557e-07
1.05361e-07
1.04294e-07
1.03316e-07
1.02444e-07
1.01641e-07
1.00925e-07
1.00263e-07
9.96697e-08
9.91183e-08
9.8623e-08
9.8161e-08
9.77441e-08
9.73537e-08
9.69995e-08
9.66675e-08
9.63645e-08
9.60802e-08
9.58187e-08
9.55738e-08
9.53466e-08
9.51345e-08
9.49359e-08
9.47512e-08
9.45761e-08
9.44145e-08
9.42595e-08
9.4118e-08
9.39792e-08
9.38546e-08
9.37308e-08
9.36203e-08
9.35084e-08
9.34109e-08
9.33094e-08
9.32237e-08
9.31309e-08
9.30548e-08
9.29696e-08
9.29016e-08
9.28219e-08
9.27617e-08
9.26893e-08
9.26347e-08
9.25683e-08
9.2519e-08
9.24587e-08
9.24143e-08
9.23574e-08
9.2316e-08
9.22641e-08
9.22258e-08
9.21773e-08
9.2142e-08
9.20978e-08
9.20655e-08
9.20244e-08
9.1994e-08
9.19552e-08
9.19269e-08
9.18912e-08
9.1866e-08
9.18326e-08
9.18095e-08
9.17778e-08
9.17559e-08
9.17247e-08
9.17033e-08
9.16725e-08
9.16513e-08
9.16213e-08
9.16002e-08
9.15704e-08
9.15491e-08
9.15187e-08
9.14953e-08
9.1464e-08
9.14356e-08
9.14186e-08
9.13678e-08
9.13778e-08
9.25424e-08
8.85343e-08
1.76586e-08
1.23928e-07
1.23137e-07
1.22405e-07
1.21375e-07
1.19971e-07
1.18248e-07
1.16387e-07
1.14483e-07
1.12661e-07
1.10933e-07
1.09357e-07
1.079e-07
1.06595e-07
1.05398e-07
1.04331e-07
1.03351e-07
1.02479e-07
1.01675e-07
1.00957e-07
1.00294e-07
9.96996e-08
9.91472e-08
9.86509e-08
9.81879e-08
9.777e-08
9.73787e-08
9.70236e-08
9.66908e-08
9.6387e-08
9.61019e-08
9.58397e-08
9.55942e-08
9.53663e-08
9.51536e-08
9.49544e-08
9.47691e-08
9.45935e-08
9.44315e-08
9.4276e-08
9.4134e-08
9.39948e-08
9.38698e-08
9.37455e-08
9.36347e-08
9.35224e-08
9.34246e-08
9.33228e-08
9.32368e-08
9.31436e-08
9.30673e-08
9.29818e-08
9.29136e-08
9.28336e-08
9.27731e-08
9.27005e-08
9.26457e-08
9.25791e-08
9.25296e-08
9.2469e-08
9.24245e-08
9.23674e-08
9.23259e-08
9.22738e-08
9.22354e-08
9.21867e-08
9.21513e-08
9.21069e-08
9.20745e-08
9.20332e-08
9.20027e-08
9.19638e-08
9.19355e-08
9.18996e-08
9.18743e-08
9.18407e-08
9.18176e-08
9.17857e-08
9.17637e-08
9.17324e-08
9.17109e-08
9.168e-08
9.16588e-08
9.16286e-08
9.16075e-08
9.15775e-08
9.15562e-08
9.15257e-08
9.15024e-08
9.14711e-08
9.14427e-08
9.14257e-08
9.13752e-08
9.13863e-08
9.25975e-08
8.35684e-08
1.85215e-08
1.23928e-07
1.23135e-07
1.22404e-07
1.21379e-07
1.19983e-07
1.18268e-07
1.16414e-07
1.14516e-07
1.12697e-07
1.10972e-07
1.09396e-07
1.07941e-07
1.06635e-07
1.05437e-07
1.0437e-07
1.03389e-07
1.02515e-07
1.0171e-07
1.00992e-07
1.00327e-07
9.97319e-08
9.91783e-08
9.86809e-08
9.82168e-08
9.77979e-08
9.74057e-08
9.70496e-08
9.67159e-08
9.64113e-08
9.61254e-08
9.58624e-08
9.56161e-08
9.53876e-08
9.51742e-08
9.49744e-08
9.47885e-08
9.46123e-08
9.44498e-08
9.42937e-08
9.41513e-08
9.40116e-08
9.38861e-08
9.37615e-08
9.36503e-08
9.35376e-08
9.34394e-08
9.33372e-08
9.32509e-08
9.31574e-08
9.30808e-08
9.2995e-08
9.29265e-08
9.28463e-08
9.27856e-08
9.27127e-08
9.26576e-08
9.25908e-08
9.25411e-08
9.24803e-08
9.24356e-08
9.23783e-08
9.23366e-08
9.22844e-08
9.22458e-08
9.21969e-08
9.21614e-08
9.21168e-08
9.20843e-08
9.20428e-08
9.20123e-08
9.19732e-08
9.19448e-08
9.19087e-08
9.18833e-08
9.18496e-08
9.18263e-08
9.17942e-08
9.17722e-08
9.17407e-08
9.17192e-08
9.16882e-08
9.16669e-08
9.16365e-08
9.16154e-08
9.15853e-08
9.15639e-08
9.15334e-08
9.15102e-08
9.14789e-08
9.14504e-08
9.14335e-08
9.13832e-08
9.13955e-08
9.26571e-08
7.91425e-08
1.94325e-08
1.23928e-07
1.23133e-07
1.22403e-07
1.21384e-07
1.19996e-07
1.18289e-07
1.16442e-07
1.1455e-07
1.12736e-07
1.11013e-07
1.09439e-07
1.07984e-07
1.06678e-07
1.0548e-07
1.04411e-07
1.0343e-07
1.02555e-07
1.01749e-07
1.01029e-07
1.00363e-07
9.97665e-08
9.92117e-08
9.87131e-08
9.82479e-08
9.78279e-08
9.74346e-08
9.70776e-08
9.67428e-08
9.64374e-08
9.61506e-08
9.58868e-08
9.56397e-08
9.54105e-08
9.51964e-08
9.49959e-08
9.48094e-08
9.46326e-08
9.44694e-08
9.43129e-08
9.41699e-08
9.40297e-08
9.39038e-08
9.37787e-08
9.36671e-08
9.35539e-08
9.34554e-08
9.33528e-08
9.32662e-08
9.31723e-08
9.30954e-08
9.30092e-08
9.29405e-08
9.28599e-08
9.2799e-08
9.27258e-08
9.26705e-08
9.26034e-08
9.25535e-08
9.24925e-08
9.24476e-08
9.23901e-08
9.23482e-08
9.22957e-08
9.2257e-08
9.22079e-08
9.21723e-08
9.21275e-08
9.20949e-08
9.20532e-08
9.20226e-08
9.19833e-08
9.19548e-08
9.19186e-08
9.18931e-08
9.18592e-08
9.18358e-08
9.18035e-08
9.17814e-08
9.17498e-08
9.17281e-08
9.1697e-08
9.16756e-08
9.16451e-08
9.16239e-08
9.15937e-08
9.15723e-08
9.15418e-08
9.15185e-08
9.14873e-08
9.14588e-08
9.14419e-08
9.13918e-08
9.14055e-08
9.27213e-08
7.51919e-08
2.03943e-08
1.23928e-07
1.23132e-07
1.22402e-07
1.21389e-07
1.20009e-07
1.18312e-07
1.16473e-07
1.14587e-07
1.12777e-07
1.11057e-07
1.09484e-07
1.0803e-07
1.06724e-07
1.05525e-07
1.04456e-07
1.03473e-07
1.02597e-07
1.0179e-07
1.01069e-07
1.00401e-07
9.98035e-08
9.92473e-08
9.87476e-08
9.82811e-08
9.786e-08
9.74655e-08
9.71075e-08
9.67717e-08
9.64653e-08
9.61776e-08
9.5913e-08
9.5665e-08
9.5435e-08
9.52202e-08
9.5019e-08
9.48318e-08
9.46544e-08
9.44906e-08
9.43334e-08
9.419e-08
9.40492e-08
9.39228e-08
9.37971e-08
9.36851e-08
9.35715e-08
9.34726e-08
9.33695e-08
9.32826e-08
9.31883e-08
9.31111e-08
9.30245e-08
9.29556e-08
9.28747e-08
9.28134e-08
9.274e-08
9.26844e-08
9.2617e-08
9.25669e-08
9.25056e-08
9.24605e-08
9.24028e-08
9.23607e-08
9.2308e-08
9.22691e-08
9.22198e-08
9.2184e-08
9.2139e-08
9.21063e-08
9.20644e-08
9.20337e-08
9.19942e-08
9.19656e-08
9.19292e-08
9.19036e-08
9.18695e-08
9.18461e-08
9.18136e-08
9.17913e-08
9.17596e-08
9.17378e-08
9.17065e-08
9.16851e-08
9.16544e-08
9.16332e-08
9.16027e-08
9.15813e-08
9.15507e-08
9.15275e-08
9.14963e-08
9.14678e-08
9.1451e-08
9.14011e-08
9.14163e-08
9.27898e-08
7.16613e-08
2.14099e-08
1.23928e-07
1.2313e-07
1.22402e-07
1.21393e-07
1.20023e-07
1.18335e-07
1.16505e-07
1.14626e-07
1.1282e-07
1.11103e-07
1.09532e-07
1.08078e-07
1.06773e-07
1.05573e-07
1.04503e-07
1.03519e-07
1.02642e-07
1.01833e-07
1.01111e-07
1.00442e-07
9.9843e-08
9.92854e-08
9.87844e-08
9.83166e-08
9.78943e-08
9.74986e-08
9.71395e-08
9.68026e-08
9.64952e-08
9.62065e-08
9.5941e-08
9.56921e-08
9.54613e-08
9.52456e-08
9.50437e-08
9.48558e-08
9.46776e-08
9.45132e-08
9.43554e-08
9.42114e-08
9.40701e-08
9.39431e-08
9.38169e-08
9.37044e-08
9.35903e-08
9.3491e-08
9.33875e-08
9.33002e-08
9.32055e-08
9.31279e-08
9.3041e-08
9.29717e-08
9.28905e-08
9.28289e-08
9.27551e-08
9.26994e-08
9.26317e-08
9.25813e-08
9.25196e-08
9.24743e-08
9.24164e-08
9.23741e-08
9.23212e-08
9.22821e-08
9.22326e-08
9.21967e-08
9.21514e-08
9.21185e-08
9.20765e-08
9.20456e-08
9.2006e-08
9.19773e-08
9.19407e-08
9.1915e-08
9.18806e-08
9.18571e-08
9.18244e-08
9.1802e-08
9.17701e-08
9.17483e-08
9.17168e-08
9.16953e-08
9.16645e-08
9.16432e-08
9.16125e-08
9.1591e-08
9.15604e-08
9.15372e-08
9.1506e-08
9.14775e-08
9.14607e-08
9.14111e-08
9.14278e-08
9.28624e-08
6.85042e-08
2.24819e-08
1.23928e-07
1.23128e-07
1.22401e-07
1.21399e-07
1.20038e-07
1.1836e-07
1.16539e-07
1.14666e-07
1.12866e-07
1.11152e-07
1.09583e-07
1.0813e-07
1.06824e-07
1.05624e-07
1.04553e-07
1.03568e-07
1.0269e-07
1.0188e-07
1.01156e-07
1.00485e-07
9.98849e-08
9.93259e-08
9.88236e-08
9.83544e-08
9.79309e-08
9.75339e-08
9.71736e-08
9.68355e-08
9.65271e-08
9.62373e-08
9.59708e-08
9.5721e-08
9.54893e-08
9.52728e-08
9.507e-08
9.48814e-08
9.47025e-08
9.45374e-08
9.43789e-08
9.42343e-08
9.40924e-08
9.39648e-08
9.38381e-08
9.37251e-08
9.36105e-08
9.35107e-08
9.34067e-08
9.3319e-08
9.32238e-08
9.31459e-08
9.30586e-08
9.2989e-08
9.29074e-08
9.28455e-08
9.27714e-08
9.27153e-08
9.26473e-08
9.25967e-08
9.25347e-08
9.24892e-08
9.2431e-08
9.23885e-08
9.23353e-08
9.22961e-08
9.22464e-08
9.22102e-08
9.21647e-08
9.21317e-08
9.20894e-08
9.20584e-08
9.20186e-08
9.19898e-08
9.1953e-08
9.19272e-08
9.18926e-08
9.18689e-08
9.1836e-08
9.18135e-08
9.17814e-08
9.17595e-08
9.17278e-08
9.17063e-08
9.16753e-08
9.16539e-08
9.16231e-08
9.16015e-08
9.15707e-08
9.15476e-08
9.15164e-08
9.14879e-08
9.14712e-08
9.14219e-08
9.14402e-08
9.29382e-08
6.56807e-08
2.36131e-08
1.23928e-07
1.23126e-07
1.224e-07
1.21404e-07
1.20053e-07
1.18386e-07
1.16574e-07
1.14709e-07
1.12914e-07
1.11204e-07
1.09637e-07
1.08184e-07
1.06879e-07
1.05678e-07
1.04606e-07
1.0362e-07
1.02741e-07
1.01929e-07
1.01204e-07
1.00531e-07
9.99295e-08
9.9369e-08
9.88652e-08
9.83945e-08
9.79697e-08
9.75714e-08
9.72099e-08
9.68706e-08
9.6561e-08
9.62701e-08
9.60026e-08
9.57518e-08
9.55192e-08
9.53017e-08
9.50981e-08
9.49086e-08
9.4729e-08
9.45632e-08
9.4404e-08
9.42587e-08
9.41161e-08
9.3988e-08
9.38607e-08
9.37472e-08
9.3632e-08
9.35317e-08
9.34272e-08
9.33391e-08
9.32434e-08
9.31651e-08
9.30774e-08
9.30075e-08
9.29255e-08
9.28633e-08
9.27888e-08
9.27324e-08
9.26641e-08
9.26131e-08
9.25508e-08
9.25051e-08
9.24466e-08
9.24039e-08
9.23504e-08
9.2311e-08
9.2261e-08
9.22247e-08
9.2179e-08
9.21458e-08
9.21033e-08
9.20722e-08
9.20321e-08
9.20032e-08
9.19662e-08
9.19402e-08
9.19054e-08
9.18816e-08
9.18485e-08
9.18259e-08
9.17935e-08
9.17715e-08
9.17397e-08
9.1718e-08
9.16868e-08
9.16654e-08
9.16344e-08
9.16127e-08
9.15817e-08
9.15587e-08
9.15276e-08
9.14991e-08
9.14824e-08
9.14334e-08
9.14535e-08
9.30168e-08
6.31567e-08
2.48058e-08
1.23928e-07
1.23124e-07
1.22399e-07
1.21409e-07
1.20069e-07
1.18413e-07
1.16611e-07
1.14754e-07
1.12965e-07
1.11258e-07
1.09693e-07
1.08242e-07
1.06937e-07
1.05735e-07
1.04663e-07
1.03675e-07
1.02794e-07
1.01981e-07
1.01254e-07
1.0058e-07
9.99768e-08
9.94146e-08
9.89093e-08
9.84371e-08
9.80109e-08
9.76111e-08
9.72483e-08
9.69078e-08
9.6597e-08
9.6305e-08
9.60364e-08
9.57845e-08
9.55509e-08
9.53325e-08
9.5128e-08
9.49376e-08
9.47572e-08
9.45906e-08
9.44307e-08
9.42847e-08
9.41414e-08
9.40127e-08
9.38847e-08
9.37707e-08
9.36549e-08
9.35541e-08
9.34491e-08
9.33605e-08
9.32643e-08
9.31856e-08
9.30974e-08
9.30271e-08
9.29448e-08
9.28822e-08
9.28073e-08
9.27506e-08
9.26819e-08
9.26307e-08
9.25681e-08
9.2522e-08
9.24633e-08
9.24203e-08
9.23666e-08
9.2327e-08
9.22767e-08
9.22402e-08
9.21942e-08
9.21608e-08
9.21181e-08
9.20868e-08
9.20465e-08
9.20175e-08
9.19802e-08
9.19541e-08
9.19191e-08
9.18951e-08
9.18618e-08
9.18391e-08
9.18065e-08
9.17844e-08
9.17523e-08
9.17306e-08
9.16992e-08
9.16777e-08
9.16465e-08
9.16248e-08
9.15936e-08
9.15705e-08
9.15395e-08
9.15109e-08
9.14944e-08
9.14457e-08
9.14676e-08
9.30971e-08
6.09032e-08
2.60616e-08
1.23928e-07
1.23122e-07
1.22397e-07
1.21415e-07
1.20085e-07
1.18441e-07
1.1665e-07
1.14801e-07
1.13018e-07
1.11315e-07
1.09753e-07
1.08302e-07
1.06997e-07
1.05796e-07
1.04722e-07
1.03733e-07
1.02851e-07
1.02036e-07
1.01307e-07
1.00632e-07
1.00027e-07
9.94628e-08
9.8956e-08
9.84822e-08
9.80545e-08
9.76533e-08
9.72891e-08
9.69472e-08
9.66352e-08
9.63419e-08
9.60722e-08
9.58192e-08
9.55845e-08
9.53651e-08
9.51597e-08
9.49684e-08
9.47872e-08
9.46197e-08
9.4459e-08
9.43123e-08
9.41683e-08
9.40389e-08
9.39103e-08
9.37956e-08
9.36792e-08
9.3578e-08
9.34723e-08
9.33832e-08
9.32866e-08