/*--------------------------------*- C++ -*----------------------------------*\
| =========                 |                                                 |
| \\      /  F ield         | OpenFOAM: The Open Source CFD Toolbox           |
|  \\    /   O peration     | Version:  v2012                                 |
|   \\  /    A nd           | Website:  www.openfoam.com                      |
|    \\/     M anipulation  |                                                 |
\*---------------------------------------------------------------------------*/
FoamFile
{
    version     2.0;
    format      ascii;
    class       volScalarField;
    location    "60";
    object      omega;
}
// * * * * * * * * * * * * * * * * * * * * * * * * * * * * * * * * * * * * * //

dimensions      [0 0 -1 0 0 0 0];


internalField   nonuniform List<scalar> 
209825
(
8261.8
7570.4
6999.56
6538.54
6171.62
5881.18
5649.47
5463.18
5310.95
5185.64
5080.6
4992.33
4916.71
4852.16
4795.8
4747.13
4703.95
4666.34
4632.47
4602.81
4575.74
4551.95
4529.95
4510.59
4492.46
4476.51
4461.4
4448.13
4435.38
4424.25
4413.41
4403.99
4394.69
4386.67
4378.64
4371.78
4364.82
4358.91
4352.84
4347.72
4342.42
4337.98
4333.3
4329.45
4325.35
4321.98
4318.35
4315.37
4312.19
4309.58
4306.78
4304.51
4302.11
4300.06
4297.92
4296.14
4294.24
4292.68
4290.97
4289.61
4288.16
4287.04
4285.71
4284.79
4283.65
4282.87
4281.83
4281.17
4280.27
4279.76
4279.01
4278.6
4277.96
4277.61
4277
4276.63
4276.03
4275.7
4275.17
4274.89
4274.42
4274.2
4273.79
4273.63
4273.29
4273.24
4273.09
4273.24
4273.24
4273.52
4273.52
4274.13
4274.88
4302.79
4410.6
113058
8261.8
7570.4
6999.56
6538.54
6171.61
5881.16
5649.44
5463.14
5310.9
5185.58
5080.53
4992.26
4916.64
4852.07
4795.72
4747.04
4703.86
4666.24
4632.37
4602.71
4575.63
4551.84
4529.84
4510.48
4492.34
4476.4
4461.29
4448.02
4435.26
4424.13
4413.29
4403.87
4394.57
4386.55
4378.52
4371.65
4364.69
4358.79
4352.71
4347.59
4342.3
4337.86
4333.17
4329.33
4325.22
4321.85
4318.22
4315.24
4312.06
4309.45
4306.64
4304.38
4301.98
4299.93
4297.79
4296.01
4294.11
4292.55
4290.84
4289.48
4288.02
4286.91
4285.58
4284.66
4283.52
4282.74
4281.69
4281.03
4280.14
4279.63
4278.87
4278.46
4277.83
4277.48
4276.87
4276.49
4275.9
4275.56
4275.03
4274.75
4274.29
4274.06
4273.65
4273.49
4273.15
4273.1
4272.95
4273.11
4273.11
4273.38
4273.38
4273.99
4274.74
4302.7
4410.51
109759
8261.8
7570.41
6999.56
6538.52
6171.56
5881.08
5649.32
5463
5310.73
5185.38
5080.31
4992.02
4916.37
4851.79
4795.43
4746.74
4703.54
4665.91
4632.04
4602.37
4575.28
4551.48
4529.48
4510.11
4491.97
4476.02
4460.9
4447.63
4434.87
4423.74
4412.89
4403.47
4394.17
4386.15
4378.11
4371.24
4364.28
4358.37
4352.3
4347.17
4341.88
4337.43
4332.75
4328.9
4324.79
4321.42
4317.79
4314.81
4311.63
4309.02
4306.21
4303.94
4301.54
4299.5
4297.35
4295.57
4293.67
4292.11
4290.4
4289.04
4287.58
4286.47
4285.14
4284.21
4283.08
4282.29
4281.25
4280.59
4279.69
4279.18
4278.43
4278.01
4277.38
4277.03
4276.42
4276.04
4275.45
4275.11
4274.58
4274.3
4273.84
4273.61
4273.2
4273.04
4272.7
4272.64
4272.5
4272.65
4272.65
4272.92
4272.92
4273.53
4274.28
4302.35
4410.14
105972
8261.79
7570.42
6999.57
6538.49
6171.48
5880.94
5649.12
5462.74
5310.42
5185.03
5079.92
4991.6
4915.92
4851.32
4794.92
4746.21
4703
4665.35
4631.46
4601.78
4574.68
4550.87
4528.86
4509.48
4491.33
4475.37
4460.25
4446.97
4434.2
4423.06
4412.21
4402.78
4393.48
4385.45
4377.41
4370.54
4363.58
4357.66
4351.58
4346.46
4341.16
4336.71
4332.03
4328.17
4324.06
4320.69
4317.06
4314.08
4310.89
4308.28
4305.47
4303.2
4300.8
4298.75
4296.6
4294.82
4292.92
4291.36
4289.65
4288.28
4286.83
4285.71
4284.38
4283.46
4282.32
4281.53
4280.49
4279.83
4278.93
4278.42
4277.66
4277.25
4276.61
4276.26
4275.65
4275.27
4274.68
4274.34
4273.81
4273.53
4273.07
4272.84
4272.43
4272.27
4271.93
4271.87
4271.72
4271.87
4271.87
4272.14
4272.14
4272.75
4273.51
4301.72
4409.49
102078
8261.79
7570.44
6999.58
6538.46
6171.37
5880.74
5648.84
5462.38
5309.99
5184.53
5079.37
4990.99
4915.27
4850.63
4794.2
4745.46
4702.22
4664.55
4630.64
4600.94
4573.82
4550
4527.97
4508.57
4490.41
4474.45
4459.31
4446.02
4433.25
4422.1
4411.24
4401.8
4392.49
4384.46
4376.42
4369.54
4362.57
4356.65
4350.57
4345.44
4340.13
4335.68
4331
4327.14
4323.02
4319.65
4316.02
4313.03
4309.84
4307.23
4304.42
4302.15
4299.74
4297.69
4295.54
4293.75
4291.85
4290.29
4288.57
4287.21
4285.75
4284.64
4283.3
4282.38
4281.24
4280.45
4279.41
4278.74
4277.84
4277.33
4276.57
4276.16
4275.52
4275.17
4274.56
4274.18
4273.59
4273.25
4272.71
4272.43
4271.97
4271.74
4271.33
4271.16
4270.83
4270.77
4270.61
4270.76
4270.76
4271.03
4271.03
4271.63
4272.4
4300.82
4408.57
98180.2
8261.79
7570.46
6999.59
6538.4
6171.22
5880.49
5648.47
5461.91
5309.42
5183.88
5078.65
4990.21
4914.43
4849.74
4793.27
4744.49
4701.21
4663.51
4629.57
4599.84
4572.7
4548.86
4526.81
4507.4
4489.22
4473.24
4458.09
4444.79
4432.01
4420.84
4409.97
4400.53
4391.21
4383.17
4375.12
4368.23
4361.26
4355.33
4349.24
4344.11
4338.8
4334.34
4329.65
4325.79
4321.67
4318.29
4314.65
4311.66
4308.47
4305.85
4303.04
4300.77
4298.36
4296.3
4294.15
4292.37
4290.46
4288.89
4287.18
4285.81
4284.35
4283.23
4281.9
4280.97
4279.83
4279.04
4277.99
4277.33
4276.42
4275.91
4275.15
4274.74
4274.1
4273.75
4273.13
4272.76
4272.16
4271.82
4271.29
4271
4270.53
4270.31
4269.9
4269.73
4269.39
4269.33
4269.17
4269.32
4269.32
4269.58
4269.57
4270.18
4270.95
4299.64
4407.37
94319.9
8261.79
7570.48
6999.6
6538.34
6171.04
5880.17
5648.01
5461.32
5308.72
5183.08
5077.75
4989.24
4913.39
4848.64
4792.11
4743.28
4699.96
4662.22
4628.25
4598.49
4571.32
4547.45
4525.38
4505.94
4487.75
4471.75
4456.58
4443.26
4430.47
4419.29
4408.41
4398.95
4389.62
4381.57
4373.51
4366.62
4359.63
4353.7
4347.6
4342.46
4337.14
4332.68
4327.98
4324.12
4319.99
4316.61
4312.97
4309.97
4306.77
4304.15
4301.34
4299.06
4296.65
4294.59
4292.43
4290.64
4288.74
4287.17
4285.45
4284.08
4282.62
4281.5
4280.16
4279.23
4278.08
4277.29
4276.24
4275.57
4274.67
4274.16
4273.39
4272.98
4272.34
4271.98
4271.37
4270.99
4270.39
4270.05
4269.52
4269.23
4268.76
4268.54
4268.12
4267.95
4267.61
4267.55
4267.38
4267.53
4267.52
4267.78
4267.78
4268.38
4269.16
4298.19
4405.89
90515.7
8261.79
7570.51
6999.62
6538.27
6170.82
5879.79
5647.47
5460.62
5307.89
5182.12
5076.69
4988.08
4912.15
4847.32
4790.73
4741.84
4698.47
4660.68
4626.67
4596.87
4569.67
4545.76
4523.66
4504.2
4485.98
4469.96
4454.77
4441.44
4428.62
4417.43
4406.53
4397.07
4387.72
4379.66
4371.59
4364.68
4357.69
4351.75
4345.64
4340.49
4335.17
4330.7
4325.99
4322.12
4317.99
4314.6
4310.95
4307.95
4304.75
4302.12
4299.3
4297.02
4294.6
4292.54
4290.38
4288.59
4286.67
4285.1
4283.38
4282.01
4280.54
4279.42
4278.07
4277.14
4275.99
4275.2
4274.15
4273.48
4272.57
4272.06
4271.29
4270.87
4270.23
4269.88
4269.26
4268.88
4268.28
4267.93
4267.4
4267.11
4266.64
4266.41
4265.99
4265.82
4265.48
4265.41
4265.25
4265.38
4265.38
4265.63
4265.63
4266.22
4267.02
4296.45
4404.13
86776.3
8261.79
7570.55
6999.63
6538.18
6170.57
5879.34
5646.83
5459.81
5306.91
5181.01
5075.44
4986.72
4910.7
4845.78
4789.11
4740.16
4696.73
4658.89
4624.82
4594.98
4567.73
4543.8
4521.66
4502.17
4483.92
4467.88
4452.66
4439.31
4426.47
4415.26
4404.35
4394.86
4385.51
4377.43
4369.34
4362.43
4355.42
4349.47
4343.35
4338.19
4332.86
4328.38
4323.66
4319.79
4315.65
4312.25
4308.59
4305.59
4302.38
4299.75
4296.92
4294.63
4292.21
4290.15
4287.98
4286.18
4284.27
4282.69
4280.96
4279.59
4278.12
4276.99
4275.64
4274.71
4273.55
4272.76
4271.71
4271.03
4270.12
4269.6
4268.84
4268.41
4267.77
4267.41
4266.8
4266.41
4265.81
4265.46
4264.92
4264.64
4264.16
4263.93
4263.51
4263.34
4263
4262.93
4262.75
4262.88
4262.88
4263.12
4263.12
4263.71
4264.52
4294.43
4402.09
83104.5
8261.79
7570.59
6999.66
6538.09
6170.28
5878.84
5646.11
5458.88
5305.8
5179.73
5074.02
4985.18
4909.04
4844.02
4787.27
4738.24
4694.73
4656.83
4622.71
4592.81
4565.52
4541.54
4519.37
4499.85
4481.56
4465.49
4450.25
4436.87
4424.01
4412.78
4401.84
4392.34
4382.96
4374.87
4366.77
4359.84
4352.82
4346.86
4340.73
4335.55
4330.21
4325.73
4321
4317.11
4312.96
4309.56
4305.9
4302.88
4299.66
4297.03
4294.19
4291.9
4289.47
4287.4
4285.23
4283.43
4281.51
4279.93
4278.19
4276.82
4275.34
4274.21
4272.86
4271.92
4270.76
4269.96
4268.9
4268.23
4267.31
4266.79
4266.02
4265.6
4264.95
4264.59
4263.97
4263.59
4262.98
4262.63
4262.09
4261.8
4261.32
4261.09
4260.67
4260.49
4260.15
4260.07
4259.89
4260.02
4260.01
4260.24
4260.24
4260.82
4261.65
4292.11
4399.78
79498.6
8261.79
7570.64
6999.68
6537.98
6169.96
5878.27
5645.3
5457.84
5304.55
5178.29
5072.42
4983.43
4907.16
4842.04
4785.18
4736.06
4692.48
4654.51
4620.32
4590.37
4563.03
4539
4516.78
4497.22
4478.9
4462.79
4447.52
4434.11
4421.23
4409.97
4399.01
4389.49
4380.09
4371.98
4363.86
4356.92
4349.88
4343.9
4337.76
4332.58
4327.22
4322.72
4317.99
4314.09
4309.93
4306.52
4302.85
4299.82
4296.6
4293.95
4291.11
4288.81
4286.37
4284.3
4282.12
4280.32
4278.39
4276.8
4275.06
4273.68
4272.2
4271.06
4269.71
4268.76
4267.6
4266.8
4265.74
4265.06
4264.14
4263.62
4262.84
4262.41
4261.76
4261.4
4260.78
4260.39
4259.78
4259.43
4258.89
4258.6
4258.11
4257.88
4257.45
4257.28
4256.93
4256.85
4256.66
4256.78
4256.77
4256.99
4256.99
4257.57
4258.42
4289.5
4397.19
75952.9
8261.78
7570.69
6999.71
6537.86
6169.61
5877.64
5644.39
5456.68
5303.15
5176.69
5070.64
4981.49
4905.08
4839.83
4782.86
4733.64
4689.97
4651.92
4617.66
4587.64
4560.24
4536.16
4513.89
4494.29
4475.93
4459.78
4444.48
4431.04
4418.12
4406.84
4395.85
4386.31
4376.89
4368.76
4360.62
4353.65
4346.6
4340.61
4334.45
4329.25
4323.88
4319.37
4314.62
4310.71
4306.54
4303.12
4299.44
4296.41
4293.17
4290.52
4287.67
4285.36
4282.92
4280.84
4278.65
4276.84
4274.9
4273.31
4271.57
4270.18
4268.69
4267.55
4266.19
4265.24
4264.07
4263.27
4262.2
4261.52
4260.6
4260.07
4259.29
4258.86
4258.2
4257.84
4257.21
4256.82
4256.21
4255.86
4255.31
4255.01
4254.53
4254.29
4253.86
4253.68
4253.33
4253.25
4253.04
4253.16
4253.15
4253.36
4253.35
4253.93
4254.8
4286.6
4394.32
72463.6
8261.78
7570.75
6999.74
6537.73
6169.22
5876.95
5643.4
5455.4
5301.61
5174.92
5068.67
4979.34
4902.77
4837.38
4780.29
4730.96
4687.19
4649.05
4614.71
4584.62
4557.16
4533.02
4510.7
4491.04
4472.64
4456.45
4441.11
4427.63
4414.68
4403.37
4392.36
4382.79
4373.34
4365.19
4357.03
4350.04
4342.97
4336.96
4330.78
4325.57
4320.18
4315.66
4310.9
4306.98
4302.8
4299.36
4295.67
4292.63
4289.38
4286.72
4283.86
4281.54
4279.09
4277
4274.81
4272.99
4271.05
4269.45
4267.7
4266.31
4264.81
4263.66
4262.3
4261.34
4260.17
4259.36
4258.29
4257.6
4256.67
4256.14
4255.35
4254.92
4254.26
4253.89
4253.26
4252.87
4252.26
4251.9
4251.35
4251.05
4250.56
4250.32
4249.88
4249.7
4249.35
4249.26
4249.05
4249.16
4249.14
4249.35
4249.33
4249.9
4250.8
4283.38
4391.19
69037.1
8261.78
7570.81
6999.78
6537.59
6168.79
5876.2
5642.31
5454
5299.93
5172.99
5066.51
4976.99
4900.24
4834.7
4777.47
4728.03
4684.14
4645.91
4611.48
4581.32
4553.78
4529.57
4507.19
4487.48
4469.03
4452.8
4437.41
4423.89
4410.91
4399.57
4388.52
4378.92
4369.45
4361.27
4353.08
4346.08
4338.98
4332.95
4326.76
4321.53
4316.12
4311.59
4306.81
4302.87
4298.68
4295.23
4291.53
4288.48
4285.22
4282.55
4279.68
4277.35
4274.89
4272.79
4270.59
4268.76
4266.81
4265.21
4263.45
4262.05
4260.54
4259.39
4258.02
4257.06
4255.88
4255.07
4253.99
4253.29
4252.36
4251.82
4251.03
4250.59
4249.93
4249.56
4248.93
4248.53
4247.91
4247.56
4247
4246.7
4246.2
4245.96
4245.52
4245.33
4244.97
4244.88
4244.65
4244.76
4244.74
4244.93
4244.91
4245.47
4246.4
4279.86
4387.78
65679.7
8261.77
7570.87
6999.81
6537.44
6168.34
5875.38
5641.13
5452.48
5298.1
5170.89
5064.16
4974.43
4897.49
4831.79
4774.41
4724.83
4680.83
4642.49
4607.96
4577.71
4550.09
4525.82
4503.37
4483.6
4465.09
4448.81
4433.37
4419.82
4406.79
4395.41
4384.33
4374.7
4365.2
4356.99
4348.78
4341.75
4334.63
4328.58
4322.37
4317.12
4311.7
4307.15
4302.35
4298.4
4294.19
4290.73
4287.01
4283.95
4280.68
4278
4275.11
4272.78
4270.3
4268.2
4265.98
4264.15
4262.19
4260.58
4258.81
4257.41
4255.89
4254.74
4253.35
4252.39
4251.2
4250.38
4249.29
4248.6
4247.66
4247.11
4246.32
4245.87
4245.2
4244.83
4244.19
4243.8
4243.17
4242.81
4242.25
4241.94
4241.44
4241.2
4240.75
4240.56
4240.2
4240.1
4239.86
4239.96
4239.93
4240.12
4240.09
4240.65
4241.6
4276.02
4384.12
62396.9
8261.77
7570.95
6999.86
6537.28
6167.84
5874.5
5639.86
5450.84
5296.13
5168.61
5061.63
4971.66
4894.52
4828.63
4771.09
4721.37
4677.23
4638.78
4604.15
4573.8
4546.1
4521.75
4499.23
4479.4
4460.82
4444.49
4429
4415.4
4402.33
4390.91
4379.79
4370.13
4360.59
4352.36
4344.12
4337.06
4329.92
4323.85
4317.61
4312.34
4306.89
4302.33
4297.51
4293.55
4289.32
4285.84
4282.11
4279.03
4275.75
4273.06
4270.16
4267.81
4265.32
4263.21
4260.99
4259.15
4257.17
4255.56
4253.78
4252.37
4250.84
4249.68
4248.29
4247.32
4246.12
4245.3
4244.2
4243.5
4242.55
4242
4241.2
4240.75
4240.08
4239.7
4239.06
4238.66
4238.03
4237.67
4237.1
4236.79
4236.28
4236.03
4235.58
4235.39
4235.02
4234.91
4234.67
4234.75
4234.72
4234.9
4234.86
4235.41
4236.4
4271.85
4380.2
59193.9
8261.76
7571.02
6999.9
6537.11
6167.32
5873.56
5638.49
5449.08
5294.01
5166.17
5058.9
4968.68
4891.32
4825.23
4767.51
4717.63
4673.36
4634.78
4600.04
4569.59
4541.79
4517.36
4494.76
4474.86
4456.22
4439.83
4424.29
4410.64
4397.52
4386.06
4374.9
4365.2
4355.62
4347.36
4339.08
4332
4324.83
4318.73
4312.47
4307.18
4301.71
4297.12
4292.29
4288.31
4284.06
4280.57
4276.82
4273.73
4270.43
4267.73
4264.82
4262.46
4259.95
4257.83
4255.59
4253.74
4251.76
4250.14
4248.35
4246.93
4245.39
4244.22
4242.82
4241.84
4240.64
4239.81
4238.71
4238
4237.04
4236.49
4235.68
4235.22
4234.54
4234.16
4233.52
4233.11
4232.48
4232.11
4231.53
4231.22
4230.71
4230.45
4230
4229.8
4229.43
4229.32
4229.06
4229.13
4229.1
4229.26
4229.22
4229.75
4230.78
4267.34
4376.02
56075.5
8261.76
7571.1
6999.96
6536.93
6166.76
5872.56
5637.04
5447.19
5291.73
5163.56
5055.97
4965.48
4887.88
4821.59
4763.68
4713.63
4669.21
4630.49
4595.63
4565.07
4537.17
4512.65
4489.96
4469.99
4451.28
4434.83
4419.22
4405.52
4392.35
4380.84
4369.64
4359.9
4350.28
4341.98
4333.67
4326.56
4319.36
4313.24
4306.95
4301.63
4296.14
4291.53
4286.68
4282.67
4278.41
4274.9
4271.13
4268.03
4264.71
4262
4259.07
4256.7
4254.18
4252.05
4249.8
4247.94
4245.94
4244.31
4242.51
4241.08
4239.53
4238.36
4236.94
4235.96
4234.74
4233.91
4232.8
4232.08
4231.12
4230.56
4229.74
4229.28
4228.59
4228.21
4227.56
4227.15
4226.51
4226.13
4225.55
4225.23
4224.72
4224.46
4223.99
4223.79
4223.41
4223.3
4223.03
4223.09
4223.05
4223.19
4223.15
4223.67
4224.74
4262.48
4371.57
53046.3
8261.75
7571.19
7000.01
6536.75
6166.17
5871.49
5635.49
5445.19
5289.32
5160.77
5052.86
4962.07
4884.22
4817.69
4759.58
4709.35
4664.77
4625.91
4590.91
4560.24
4532.23
4507.61
4484.83
4464.78
4445.99
4429.47
4413.8
4400.04
4386.81
4375.26
4364
4354.22
4344.57
4336.23
4327.89
4320.74
4313.5
4307.35
4301.03
4295.69
4290.18
4285.55
4280.67
4276.65
4272.36
4268.83
4265.05
4261.93
4258.59
4255.86
4252.92
4250.53
4248
4245.86
4243.59
4241.72
4239.71
4238.07
4236.26
4234.82
4233.26
4232.08
4230.65
4229.66
4228.43
4227.59
4226.47
4225.75
4224.78
4224.21
4223.38
4222.92
4222.22
4221.83
4221.17
4220.76
4220.12
4219.74
4219.15
4218.82
4218.3
4218.03
4217.57
4217.36
4216.97
4216.85
4216.57
4216.62
4216.57
4216.7
4216.64
4217.16
4218.28
4257.26
4366.83
50110.5
8261.75
7571.28
7000.07
6536.55
6165.55
5870.37
5633.85
5443.07
5286.75
5157.81
5049.54
4958.45
4880.32
4813.55
4755.22
4704.8
4660.04
4621.03
4585.88
4555.08
4526.96
4502.24
4479.36
4459.23
4440.36
4423.76
4408.02
4394.2
4380.91
4369.31
4358
4348.17
4338.47
4330.1
4321.71
4314.53
4307.26
4301.08
4294.73
4289.36
4283.82
4279.16
4274.26
4270.21
4265.9
4262.36
4258.55
4255.42
4252.06
4249.31
4246.35
4243.95
4241.4
4239.25
4236.97
4235.09
4233.06
4231.41
4229.59
4228.14
4226.56
4225.37
4223.94
4222.93
4221.69
4220.85
4219.72
4218.99
4218.01
4217.43
4216.6
4216.12
4215.42
4215.03
4214.36
4213.94
4213.29
4212.91
4212.31
4211.98
4211.45
4211.18
4210.7
4210.49
4210.1
4209.97
4209.68
4209.71
4209.66
4209.78
4209.7
4210.21
4211.37
4251.66
4361.78
47271.7
8261.74
7571.38
7000.14
6536.35
6164.9
5869.18
5632.12
5440.82
5284.03
5154.67
5046.03
4954.61
4876.18
4809.15
4750.59
4699.97
4655.02
4615.84
4580.55
4549.61
4521.36
4496.53
4473.55
4453.32
4434.37
4417.69
4401.88
4387.99
4374.64
4362.98
4351.62
4341.74
4331.99
4323.57
4315.15
4307.93
4300.62
4294.41
4288.02
4282.63
4277.05
4272.37
4267.44
4263.37
4259.04
4255.47
4251.64
4248.49
4245.12
4242.35
4239.37
4236.95
4234.39
4232.22
4229.92
4228.03
4225.99
4224.33
4222.49
4221.03
4219.44
4218.24
4216.79
4215.78
4214.53
4213.67
4212.53
4211.8
4210.8
4210.22
4209.38
4208.9
4208.19
4207.78
4207.11
4206.69
4206.03
4205.64
4205.04
4204.7
4204.17
4203.89
4203.4
4203.18
4202.78
4202.65
4202.35
4202.37
4202.3
4202.41
4202.32
4202.82
4204.03
4245.66
4356.39
44533.4
8261.73
7571.48
7000.21
6536.14
6164.22
5867.94
5630.3
5438.46
5281.17
5151.36
5042.32
4950.55
4871.81
4804.51
4745.69
4694.85
4649.7
4610.35
4574.9
4543.82
4515.44
4490.48
4467.4
4447.07
4428.02
4411.26
4395.37
4381.41
4367.99
4356.27
4344.85
4334.92
4325.12
4316.66
4308.18
4300.93
4293.58
4287.33
4280.91
4275.48
4269.88
4265.17
4260.21
4256.11
4251.75
4248.17
4244.32
4241.14
4237.75
4234.96
4231.96
4229.53
4226.94
4224.76
4222.45
4220.54
4218.48
4216.81
4214.96
4213.49
4211.88
4210.67
4209.21
4208.19
4206.93
4206.06
4204.91
4204.17
4203.16
4202.57
4201.71
4201.23
4200.51
4200.1
4199.42
4199
4198.33
4197.93
4197.32
4196.98
4196.43
4196.15
4195.66
4195.43
4195.02
4194.88
4194.57
4194.58
4194.5
4194.59
4194.49
4194.98
4196.24
4239.25
4350.62
41898.7
8261.72
7571.58
7000.28
6535.93
6163.51
5866.64
5628.4
5435.98
5278.16
5147.87
5038.42
4946.27
4867.2
4799.6
4740.53
4689.45
4644.09
4604.55
4568.93
4537.7
4509.17
4484.1
4460.89
4440.46
4421.31
4404.47
4388.49
4374.46
4360.96
4349.18
4337.69
4327.71
4317.85
4309.34
4300.82
4293.52
4286.13
4279.84
4273.39
4267.93
4262.28
4257.55
4252.56
4248.44
4244.05
4240.44
4236.56
4233.37
4229.95
4227.15
4224.13
4221.67
4219.07
4216.87
4214.54
4212.62
4210.54
4208.86
4206.99
4205.51
4203.89
4202.67
4201.19
4200.16
4198.88
4198.01
4196.84
4196.09
4195.08
4194.47
4193.61
4193.11
4192.38
4191.97
4191.28
4190.85
4190.18
4189.77
4189.15
4188.81
4188.25
4187.96
4187.46
4187.22
4186.81
4186.66
4186.34
4186.33
4186.24
4186.31
4186.2
4186.68
4187.99
4232.39
4344.46
39370.2
8261.71
7571.69
7000.36
6535.71
6162.77
5865.29
5626.4
5433.38
5275
5144.22
5034.31
4941.77
4862.35
4794.44
4735.09
4683.77
4638.19
4598.45
4562.64
4531.25
4502.57
4477.36
4454.03
4433.49
4414.24
4397.3
4381.23
4367.12
4353.55
4341.69
4330.14
4320.1
4310.19
4301.62
4293.05
4285.71
4278.27
4271.94
4265.45
4259.95
4254.27
4249.51
4244.48
4240.34
4235.92
4232.28
4228.38
4225.16
4221.72
4218.9
4215.85
4213.38
4210.75
4208.54
4206.19
4204.25
4202.16
4200.46
4198.58
4197.09
4195.45
4194.21
4192.72
4191.68
4190.39
4189.5
4188.33
4187.57
4186.54
4185.92
4185.05
4184.54
4183.81
4183.38
4182.69
4182.25
4181.57
4181.16
4180.53
4180.17
4179.61
4179.31
4178.8
4178.56
4178.13
4177.98
4177.65
4177.62
4177.52
4177.58
4177.44
4177.92
4179.29
4225.07
4337.87
36950.5
8261.7
7571.8
7000.45
6535.48
6162.01
5863.87
5624.32
5430.66
5271.69
5140.38
5030.01
4937.06
4857.26
4789.03
4729.38
4677.79
4631.98
4592.03
4556.03
4524.47
4495.63
4470.28
4446.82
4426.16
4406.79
4389.76
4373.59
4359.4
4345.75
4333.82
4322.19
4312.09
4302.11
4293.5
4284.87
4277.48
4269.99
4263.63
4257.08
4251.55
4245.84
4241.04
4235.98
4231.8
4227.35
4223.69
4219.76
4216.52
4213.05
4210.21
4207.14
4204.65
4202
4199.77
4197.39
4195.44
4193.33
4191.62
4189.72
4188.21
4186.55
4185.31
4183.8
4182.74
4181.44
4180.54
4179.35
4178.58
4177.54
4176.92
4176.03
4175.52
4174.77
4174.34
4173.63
4173.19
4172.5
4172.08
4171.44
4171.08
4170.5
4170.2
4169.68
4169.43
4169
4168.83
4168.49
4168.45
4168.33
4168.37
4168.22
4168.68
4170.11
4217.25
4330.81
34641.5
8261.69
7571.92
7000.54
6535.25
6161.22
5862.41
5622.15
5427.82
5268.24
5136.38
5025.51
4932.12
4851.93
4783.35
4723.39
4671.53
4625.47
4585.29
4549.09
4517.35
4488.35
4462.85
4439.25
4418.46
4398.98
4381.83
4365.57
4351.28
4337.55
4325.54
4313.85
4303.67
4293.63
4284.96
4276.28
4268.83
4261.3
4254.88
4248.3
4242.73
4236.97
4232.14
4227.04
4222.83
4218.35
4214.66
4210.7
4207.43
4203.94
4201.07
4197.98
4195.46
4192.79
4190.54
4188.14
4186.18
4184.05
4182.32
4180.4
4178.88
4177.2
4175.94
4174.42
4173.35
4172.03
4171.12
4169.92
4169.14
4168.08
4167.45
4166.55
4166.02
4165.26
4164.82
4164.11
4163.66
4162.96
4162.54
4161.89
4161.52
4160.93
4160.61
4160.08
4159.82
4159.38
4159.21
4158.86
4158.81
4158.67
4158.7
4158.52
4158.97
4160.46
4208.89
4323.25
32445.1
8261.67
7572.04
7000.64
6535.02
6160.41
5860.89
5619.9
5424.87
5264.64
5132.2
5020.81
4926.96
4846.36
4777.42
4717.13
4664.98
4618.65
4578.25
4541.83
4509.9
4480.72
4455.06
4431.31
4410.39
4390.78
4373.53
4357.16
4342.78
4328.95
4316.87
4305.09
4294.85
4284.74
4276.01
4267.26
4259.77
4252.17
4245.72
4239.08
4233.47
4227.67
4222.8
4217.66
4213.42
4208.91
4205.19
4201.19
4197.9
4194.38
4191.48
4188.37
4185.83
4183.13
4180.86
4178.44
4176.46
4174.3
4172.56
4170.62
4169.09
4167.39
4166.12
4164.58
4163.49
4162.15
4161.23
4160.02
4159.22
4158.15
4157.51
4156.59
4156.06
4155.29
4154.84
4154.12
4153.66
4152.95
4152.52
4151.86
4151.48
4150.88
4150.56
4150.02
4149.75
4149.29
4149.11
4148.75
4148.69
4148.54
4148.54
4148.34
4148.79
4150.33
4199.97
4315.15
30362.8
8261.66
7572.17
7000.74
6534.78
6159.57
5859.32
5617.57
5421.81
5260.9
5127.85
5015.92
4921.58
4840.55
4771.22
4710.59
4658.14
4611.53
4570.88
4534.24
4502.1
4472.74
4446.91
4423.01
4401.95
4382.21
4364.84
4348.36
4333.88
4319.96
4307.79
4295.93
4285.61
4275.43
4266.63
4257.82
4250.27
4242.62
4236.11
4229.43
4223.77
4217.93
4213.02
4207.84
4203.57
4199.01
4195.26
4191.24
4187.92
4184.36
4181.44
4178.3
4175.73
4173.01
4170.72
4168.27
4166.27
4164.1
4162.34
4160.38
4158.83
4157.11
4155.82
4154.26
4153.16
4151.8
4150.87
4149.64
4148.84
4147.75
4147.09
4146.16
4145.62
4144.83
4144.38
4143.64
4143.18
4142.46
4142.02
4141.35
4140.96
4140.35
4140.02
4139.46
4139.19
4138.72
4138.53
4138.16
4138.08
4137.92
4137.9
4137.67
4138.11
4139.72
4190.44
4306.48
28395.9
8261.64
7572.29
7000.85
6534.55
6158.71
5857.71
5615.16
5418.63
5257.02
5123.34
5010.83
4915.99
4834.5
4764.77
4703.78
4651.01
4604.11
4563.2
4526.32
4493.97
4464.41
4438.41
4414.34
4393.14
4373.26
4355.77
4339.17
4324.59
4310.56
4298.3
4286.35
4275.96
4265.7
4256.83
4247.96
4240.35
4232.64
4226.08
4219.34
4213.64
4207.74
4202.79
4197.58
4193.26
4188.67
4184.89
4180.83
4177.47
4173.88
4170.94
4167.76
4165.18
4162.42
4160.12
4157.64
4155.62
4153.42
4151.65
4149.66
4148.1
4146.35
4145.05
4143.47
4142.36
4140.98
4140.04
4138.79
4137.97
4136.87
4136.2
4135.25
4134.7
4133.9
4133.43
4132.69
4132.21
4131.48
4131.03
4130.35
4129.95
4129.33
4128.99
4128.42
4128.14
4127.66
4127.46
4127.08
4126.98
4126.81
4126.77
4126.51
4126.94
4128.61
4180.3
4297.19
26545.7
8261.62
7572.43
7000.97
6534.31
6157.84
5856.04
5612.67
5415.35
5253
5118.65
5005.55
4910.17
4828.21
4758.06
4696.69
4643.58
4596.38
4555.2
4518.07
4485.5
4455.73
4429.55
4405.31
4383.95
4363.93
4346.31
4329.58
4314.89
4300.76
4288.4
4276.36
4265.89
4255.55
4246.61
4237.66
4229.99
4222.22
4215.6
4208.81
4203.06
4197.11
4192.12
4186.86
4182.5
4177.87
4174.05
4169.95
4166.57
4162.95
4159.98
4156.77
4154.15
4151.37
4149.04
4146.54
4144.5
4142.27
4140.48
4138.47
4136.89
4135.12
4133.8
4132.2
4131.08
4129.67
4128.72
4127.45
4126.62
4125.5
4124.82
4123.86
4123.29
4122.48
4122
4121.24
4120.76
4120.01
4119.56
4118.86
4118.46
4117.82
4117.47
4116.89
4116.59
4116.11
4115.89
4115.5
4115.39
4115.2
4115.14
4114.86
4115.28
4117.01
4169.55
4287.25
24813.3
8261.61
7572.56
7001.09
6534.07
6156.94
5854.33
5610.11
5411.96
5248.85
5113.8
5000.07
4904.14
4821.68
4751.1
4689.33
4635.87
4588.34
4546.88
4509.48
4476.68
4446.7
4420.33
4395.9
4374.39
4354.21
4336.45
4319.6
4304.79
4290.55
4278.09
4265.95
4255.39
4244.97
4235.96
4226.93
4219.2
4211.36
4204.68
4197.83
4192.03
4186.03
4180.99
4175.68
4171.29
4166.61
4162.76
4158.62
4155.2
4151.54
4148.54
4145.3
4142.66
4139.84
4137.49
4134.96
4132.9
4130.64
4128.83
4126.8
4125.2
4123.41
4122.07
4120.45
4119.31
4117.88
4116.91
4115.63
4114.79
4113.65
4112.95
4111.97
4111.39
4110.56
4110.08
4109.3
4108.82
4108.06
4107.59
4106.88
4106.46
4105.82
4105.45
4104.86
4104.56
4104.05
4103.83
4103.42
4103.3
4103.1
4103.02
4102.7
4103.11
4104.9
4158.18
4276.62
23199.6
8261.59
7572.7
7001.22
6533.83
6156.03
5852.58
5607.47
5408.47
5244.55
5108.79
4994.41
4897.9
4814.92
4743.88
4681.69
4627.86
4580
4538.24
4500.57
4467.53
4437.32
4410.74
4386.13
4364.44
4344.11
4326.21
4309.21
4294.29
4279.92
4267.36
4255.12
4244.47
4233.96
4224.87
4215.77
4207.96
4200.05
4193.32
4186.4
4180.55
4174.49
4169.41
4164.05
4159.61
4154.89
4150.99
4146.82
4143.37
4139.67
4136.64
4133.36
4130.69
4127.84
4125.47
4122.9
4120.82
4118.53
4116.7
4114.64
4113.03
4111.21
4109.86
4108.21
4107.05
4105.6
4104.62
4103.31
4102.46
4101.3
4100.59
4099.59
4099
4098.15
4097.66
4096.87
4096.37
4095.6
4095.12
4094.4
4093.97
4093.31
4092.94
4092.33
4092.01
4091.5
4091.26
4090.84
4090.7
4090.49
4090.39
4090.03
4090.44
4092.28
4146.2
4265.26
21700.3
8261.56
7572.84
7001.36
6533.59
6155.1
5850.79
5604.76
5404.87
5240.13
5103.61
4988.55
4891.45
4807.92
4736.4
4673.78
4619.57
4571.35
4529.28
4491.32
4458.03
4427.58
4400.79
4375.98
4354.12
4333.61
4315.57
4298.43
4283.37
4268.89
4256.22
4243.87
4233.13
4222.52
4213.35
4204.16
4196.28
4188.3
4181.5
4174.52
4168.61
4162.5
4157.36
4151.95
4147.47
4142.7
4138.76
4134.54
4131.06
4127.32
4124.26
4120.94
4118.24
4115.35
4112.96
4110.36
4108.26
4105.94
4104.09
4102
4100.37
4098.52
4097.15
4095.48
4094.3
4092.83
4091.83
4090.5
4089.63
4088.46
4087.73
4086.71
4086.1
4085.24
4084.73
4083.93
4083.42
4082.64
4082.15
4081.41
4080.98
4080.3
4079.91
4079.3
4078.96
4078.43
4078.19
4077.75
4077.59
4077.36
4077.25
4076.85
4077.25
4079.15
4133.6
4253.14
20310.6
8261.54
7572.98
7001.5
6533.36
6154.16
5848.96
5601.99
5401.18
5235.58
5098.28
4982.52
4884.78
4800.69
4728.67
4665.6
4610.98
4562.4
4520
4481.75
4448.18
4417.49
4390.48
4365.46
4343.41
4322.73
4304.53
4287.24
4272.05
4257.44
4244.66
4232.19
4221.35
4210.64
4201.39
4192.12
4184.16
4176.1
4169.24
4162.19
4156.22
4150.04
4144.86
4139.39
4134.86
4130.04
4126.06
4121.8
4118.28
4114.5
4111.4
4108.05
4105.31
4102.39
4099.96
4097.33
4095.2
4092.86
4090.98
4088.87
4087.21
4085.33
4083.94
4082.25
4081.05
4079.56
4078.54
4077.19
4076.3
4075.11
4074.37
4073.33
4072.71
4071.83
4071.31
4070.49
4069.97
4069.17
4068.67
4067.92
4067.47
4066.78
4066.38
4065.75
4065.4
4064.86
4064.6
4064.15
4063.97
4063.73
4063.6
4063.16
4063.55
4065.5
4120.37
4240.23
19025.6
8261.52
7573.12
7001.65
6533.13
6153.2
5847.1
5599.15
5397.39
5230.9
5092.79
4976.3
4877.91
4793.23
4720.69
4657.14
4602.11
4553.15
4510.41
4471.84
4438
4407.05
4379.8
4354.57
4332.33
4311.46
4293.1
4275.65
4260.32
4245.57
4232.67
4220.09
4209.15
4198.34
4188.99
4179.63
4171.59
4163.45
4156.52
4149.4
4143.37
4137.13
4131.89
4126.36
4121.78
4116.91
4112.89
4108.57
4105.02
4101.19
4098.06
4094.66
4091.9
4088.93
4086.48
4083.82
4081.66
4079.28
4077.39
4075.24
4073.56
4071.65
4070.24
4068.52
4067.3
4065.79
4064.75
4063.38
4062.47
4061.26
4060.5
4059.44
4058.8
4057.91
4057.37
4056.54
4056.01
4055.19
4054.68
4053.91
4053.45
4052.74
4052.34
4051.69
4051.33
4050.77
4050.49
4050.03
4049.84
4049.57
4049.42
4048.95
4049.34
4051.32
4106.53
4226.49
17840.1
8261.49
7573.27
7001.81
6532.9
6152.24
5845.2
5596.25
5393.51
5226.1
5087.16
4969.9
4870.83
4785.55
4712.46
4648.43
4592.96
4543.6
4500.5
4461.61
4427.47
4396.25
4368.77
4343.3
4320.86
4299.81
4281.27
4263.66
4248.19
4233.29
4220.27
4207.56
4196.51
4185.59
4176.15
4166.69
4158.58
4150.35
4143.35
4136.15
4130.06
4123.75
4118.45
4112.86
4108.23
4103.3
4099.24
4094.87
4091.27
4087.4
4084.23
4080.8
4078
4074.99
4072.51
4069.81
4067.63
4065.21
4063.29
4061.11
4059.42
4057.47
4056.04
4054.29
4053.05
4051.51
4050.45
4049.06
4048.14
4046.9
4046.12
4045.04
4044.39
4043.47
4042.93
4042.07
4041.53
4040.7
4040.18
4039.39
4038.92
4038.19
4037.77
4037.11
4036.74
4036.15
4035.87
4035.39
4035.18
4034.89
4034.73
4034.22
4034.6
4036.62
4092.06
4211.89
16748.5
8261.46
7573.42
7001.97
6532.68
6151.27
5843.28
5593.3
5389.55
5221.18
5081.37
4963.33
4863.56
4777.64
4703.99
4639.44
4583.52
4533.74
4490.28
4451.05
4416.61
4385.1
4357.37
4331.67
4309.02
4287.76
4269.04
4251.26
4235.64
4220.6
4207.44
4194.61
4183.44
4172.41
4162.87
4153.32
4145.11
4136.8
4129.72
4122.44
4116.28
4109.9
4104.54
4098.89
4094.21
4089.22
4085.11
4080.69
4077.05
4073.13
4069.92
4066.44
4063.6
4060.56
4058.05
4055.31
4053.09
4050.64
4048.7
4046.49
4044.77
4042.79
4041.34
4039.56
4038.3
4036.73
4035.65
4034.23
4033.29
4032.03
4031.23
4030.13
4029.46
4028.53
4027.96
4027.1
4026.54
4025.69
4025.16
4024.35
4023.87
4023.12
4022.69
4022
4021.62
4021.02
4020.72
4020.22
4020
4019.69
4019.52
4018.97
4019.33
4021.39
4076.96
4196.41
15745.3
8261.43
7573.56
7002.14
6532.47
6150.3
5841.33
5590.29
5385.5
5216.15
5075.45
4956.59
4856.09
4769.51
4695.27
4630.2
4573.8
4523.59
4479.75
4440.16
4405.41
4373.61
4345.61
4319.66
4296.79
4275.33
4256.42
4238.46
4222.68
4207.49
4194.19
4181.23
4169.94
4158.79
4149.15
4139.49
4131.2
4122.79
4115.63
4108.28
4102.04
4095.59
4090.17
4084.45
4079.71
4074.67
4070.5
4066.03
4062.34
4058.37
4055.12
4051.6
4048.72
4045.63
4043.09
4040.31
4038.07
4035.58
4033.6
4031.36
4029.62
4027.61
4026.13
4024.32
4023.04
4021.43
4020.34
4018.9
4017.94
4016.65
4015.83
4014.71
4014.02
4013.06
4012.49
4011.6
4011.03
4010.16
4009.62
4008.79
4008.3
4007.53
4007.09
4006.38
4005.99
4005.37
4005.05
4004.53
4004.29
4003.97
4003.77
4003.18
4003.54
4005.62
4061.24
4180.02
14824.3
8261.4
7573.71
7002.31
6532.26
6149.32
5839.36
5587.23
5381.38
5211.02
5069.39
4949.68
4848.43
4761.17
4686.32
4620.69
4563.81
4513.15
4468.91
4428.95
4393.87
4361.76
4333.49
4307.29
4284.19
4262.51
4243.41
4225.26
4209.32
4193.96
4180.52
4167.42
4156.01
4144.74
4134.99
4125.22
4116.84
4108.33
4101.09
4093.65
4087.34
4080.81
4075.32
4069.54
4064.74
4059.63
4055.41
4050.89
4047.15
4043.13