/*--------------------------------*- C++ -*----------------------------------*\
| =========                 |                                                 |
| \\      /  F ield         | OpenFOAM: The Open Source CFD Toolbox           |
|  \\    /   O peration     | Version:  v2012                                 |
|   \\  /    A nd           | Website:  www.openfoam.com                      |
|    \\/     M anipulation  |                                                 |
\*---------------------------------------------------------------------------*/
FoamFile
{
    version     2.0;
    format      ascii;
    class       volVectorField;
    location    "60";
    object      wallShearStress;
}
// * * * * * * * * * * * * * * * * * * * * * * * * * * * * * * * * * * * * * //

dimensions      [0 2 -2 0 0 0 0];


internalField   uniform (0 0 0);

boundaryField
{
    inlet
    {
        type            calculated;
        value           uniform (0 0 0);
    }
    outlet
    {
        type            calculated;
        value           uniform (0 0 0);
    }
    topWall
    {
        type            calculated;
        value           nonuniform List<vector> 
545
(
(3.67398e-08 -2.58616e-08 0)
(3.67284e-08 -7.2345e-08 0)
(3.67084e-08 -1.20682e-07 0)
(3.668e-08 -1.67621e-07 0)
(3.66443e-08 -2.12563e-07 0)
(3.66021e-08 -2.56084e-07 0)
(3.65538e-08 -2.98554e-07 0)
(3.65e-08 -3.39955e-07 0)
(3.64411e-08 -3.80195e-07 0)
(3.63775e-08 -4.19274e-07 0)
(3.63098e-08 -4.57243e-07 0)
(3.62382e-08 -4.94146e-07 0)
(3.61633e-08 -5.30008e-07 0)
(3.60852e-08 -5.6485e-07 0)
(3.60045e-08 -5.98696e-07 0)
(3.59213e-08 -6.31575e-07 0)
(3.5836e-08 -6.63512e-07 0)
(3.57489e-08 -6.94532e-07 0)
(3.56601e-08 -7.24659e-07 0)
(3.557e-08 -7.53919e-07 0)
(3.54788e-08 -7.82334e-07 0)
(3.53867e-08 -8.09928e-07 0)
(3.52939e-08 -8.36725e-07 0)
(3.52005e-08 -8.62746e-07 0)
(3.51068e-08 -8.88014e-07 0)
(3.50129e-08 -9.1255e-07 0)
(3.49189e-08 -9.36374e-07 0)
(3.4825e-08 -9.59508e-07 0)
(3.47312e-08 -9.81972e-07 0)
(3.46378e-08 -1.00378e-06 0)
(3.45448e-08 -1.02496e-06 0)
(3.44524e-08 -1.04553e-06 0)
(3.43605e-08 -1.0655e-06 0)
(3.42693e-08 -1.08489e-06 0)
(3.41789e-08 -1.10372e-06 0)
(3.40893e-08 -1.12201e-06 0)
(3.40007e-08 -1.13977e-06 0)
(3.39129e-08 -1.15701e-06 0)
(3.38262e-08 -1.17376e-06 0)
(3.37405e-08 -1.19002e-06 0)
(3.36559e-08 -1.20581e-06 0)
(3.35724e-08 -1.22115e-06 0)
(3.34901e-08 -1.23605e-06 0)
(3.3409e-08 -1.25052e-06 0)
(3.3329e-08 -1.26458e-06 0)
(3.32503e-08 -1.27823e-06 0)
(3.31728e-08 -1.29149e-06 0)
(3.30966e-08 -1.30437e-06 0)
(3.30216e-08 -1.31688e-06 0)
(3.29479e-08 -1.32904e-06 0)
(3.28755e-08 -1.34085e-06 0)
(3.28043e-08 -1.35232e-06 0)
(3.27345e-08 -1.36346e-06 0)
(3.26659e-08 -1.37429e-06 0)
(3.25985e-08 -1.38481e-06 0)
(3.25325e-08 -1.39504e-06 0)
(3.24677e-08 -1.40497e-06 0)
(3.24042e-08 -1.41462e-06 0)
(3.23419e-08 -1.424e-06 0)
(3.22809e-08 -1.43312e-06 0)
(3.22211e-08 -1.44197e-06 0)
(3.21625e-08 -1.45058e-06 0)
(3.21051e-08 -1.45895e-06 0)
(3.20489e-08 -1.46708e-06 0)
(3.19939e-08 -1.47498e-06 0)
(3.19401e-08 -1.48267e-06 0)
(3.18874e-08 -1.49013e-06 0)
(3.18358e-08 -1.49739e-06 0)
(3.17854e-08 -1.50445e-06 0)
(3.17361e-08 -1.5113e-06 0)
(3.16877e-08 -1.51797e-06 0)
(3.16408e-08 -1.52445e-06 0)
(3.15953e-08 -1.53068e-06 0)
(3.15503e-08 -1.53672e-06 0)
(3.15059e-08 -1.5427e-06 0)
(3.14615e-08 -1.54865e-06 0)
(3.14172e-08 -1.55458e-06 0)
(3.1373e-08 -1.56047e-06 0)
(3.13288e-08 -1.56632e-06 0)
(3.12846e-08 -1.57214e-06 0)
(3.12405e-08 -1.57792e-06 0)
(3.11964e-08 -1.58367e-06 0)
(3.11524e-08 -1.58938e-06 0)
(3.11084e-08 -1.59506e-06 0)
(3.10645e-08 -1.60071e-06 0)
(3.10206e-08 -1.60632e-06 0)
(3.09767e-08 -1.6119e-06 0)
(3.09329e-08 -1.61745e-06 0)
(3.08892e-08 -1.62296e-06 0)
(3.08455e-08 -1.62844e-06 0)
(3.08019e-08 -1.63388e-06 0)
(3.07584e-08 -1.6393e-06 0)
(3.07148e-08 -1.64468e-06 0)
(3.06715e-08 -1.65002e-06 0)
(3.06277e-08 -1.65535e-06 0)
(3.05862e-08 -1.66059e-06 0)
(3.05478e-08 -1.66539e-06 0)
(3.05106e-08 -1.66973e-06 0)
(3.04747e-08 -1.67397e-06 0)
(3.0439e-08 -1.67822e-06 0)
(3.04032e-08 -1.68251e-06 0)
(3.03672e-08 -1.68682e-06 0)
(3.0331e-08 -1.69112e-06 0)
(3.02947e-08 -1.69542e-06 0)
(3.02582e-08 -1.69972e-06 0)
(3.02216e-08 -1.70404e-06 0)
(3.01847e-08 -1.70835e-06 0)
(3.01477e-08 -1.71268e-06 0)
(3.01105e-08 -1.71701e-06 0)
(3.00731e-08 -1.72134e-06 0)
(3.00356e-08 -1.72568e-06 0)
(2.99978e-08 -1.73002e-06 0)
(2.99599e-08 -1.73436e-06 0)
(2.99219e-08 -1.73872e-06 0)
(2.98836e-08 -1.74307e-06 0)
(2.98451e-08 -1.74743e-06 0)
(2.98065e-08 -1.7518e-06 0)
(2.97677e-08 -1.75617e-06 0)
(2.97287e-08 -1.76054e-06 0)
(2.96896e-08 -1.76492e-06 0)
(2.96502e-08 -1.76931e-06 0)
(2.96107e-08 -1.7737e-06 0)
(2.9571e-08 -1.77809e-06 0)
(2.95311e-08 -1.78249e-06 0)
(2.9491e-08 -1.78689e-06 0)
(2.94507e-08 -1.79129e-06 0)
(2.94103e-08 -1.7957e-06 0)
(2.93696e-08 -1.80012e-06 0)
(2.93288e-08 -1.80454e-06 0)
(2.92878e-08 -1.80896e-06 0)
(2.92466e-08 -1.81339e-06 0)
(2.92052e-08 -1.81782e-06 0)
(2.91636e-08 -1.82226e-06 0)
(2.91219e-08 -1.8267e-06 0)
(2.90799e-08 -1.83114e-06 0)
(2.90378e-08 -1.83559e-06 0)
(2.89954e-08 -1.84004e-06 0)
(2.89529e-08 -1.8445e-06 0)
(2.89102e-08 -1.84896e-06 0)
(2.88673e-08 -1.85342e-06 0)
(2.88242e-08 -1.85789e-06 0)
(2.87809e-08 -1.86236e-06 0)
(2.87374e-08 -1.86684e-06 0)
(2.86937e-08 -1.87131e-06 0)
(2.86499e-08 -1.8758e-06 0)
(2.86058e-08 -1.88028e-06 0)
(2.85615e-08 -1.88477e-06 0)
(2.85171e-08 -1.88927e-06 0)
(2.84724e-08 -1.89377e-06 0)
(2.84276e-08 -1.89827e-06 0)
(2.83825e-08 -1.90277e-06 0)
(2.83373e-08 -1.90728e-06 0)
(2.82918e-08 -1.91179e-06 0)
(2.82462e-08 -1.91631e-06 0)
(2.82003e-08 -1.92082e-06 0)
(2.81543e-08 -1.92534e-06 0)
(2.81081e-08 -1.92987e-06 0)
(2.80616e-08 -1.9344e-06 0)
(2.8015e-08 -1.93893e-06 0)
(2.79682e-08 -1.94346e-06 0)
(2.79211e-08 -1.948e-06 0)
(2.78739e-08 -1.95254e-06 0)
(2.78265e-08 -1.95708e-06 0)
(2.77788e-08 -1.96163e-06 0)
(2.7731e-08 -1.96618e-06 0)
(2.76829e-08 -1.97073e-06 0)
(2.76347e-08 -1.97528e-06 0)
(2.75862e-08 -1.97984e-06 0)
(2.75376e-08 -1.9844e-06 0)
(2.74887e-08 -1.98896e-06 0)
(2.74397e-08 -1.99353e-06 0)
(2.73904e-08 -1.9981e-06 0)
(2.73409e-08 -2.00267e-06 0)
(2.72913e-08 -2.00724e-06 0)
(2.72414e-08 -2.01181e-06 0)
(2.71913e-08 -2.01639e-06 0)
(2.7141e-08 -2.02097e-06 0)
(2.70905e-08 -2.02555e-06 0)
(2.70398e-08 -2.03014e-06 0)
(2.69889e-08 -2.03473e-06 0)
(2.69378e-08 -2.03932e-06 0)
(2.68865e-08 -2.04391e-06 0)
(2.68349e-08 -2.0485e-06 0)
(2.67832e-08 -2.05309e-06 0)
(2.67312e-08 -2.05769e-06 0)
(2.66791e-08 -2.06229e-06 0)
(2.66267e-08 -2.06689e-06 0)
(2.65742e-08 -2.07149e-06 0)
(2.65214e-08 -2.0761e-06 0)
(2.64684e-08 -2.0807e-06 0)
(2.64152e-08 -2.08531e-06 0)
(2.63618e-08 -2.08992e-06 0)
(2.63082e-08 -2.09453e-06 0)
(2.62544e-08 -2.09914e-06 0)
(2.62003e-08 -2.10375e-06 0)
(2.61461e-08 -2.10837e-06 0)
(2.60916e-08 -2.11299e-06 0)
(2.6037e-08 -2.1176e-06 0)
(2.59821e-08 -2.12222e-06 0)
(2.5927e-08 -2.12684e-06 0)
(2.58718e-08 -2.13146e-06 0)
(2.58163e-08 -2.13608e-06 0)
(2.57605e-08 -2.1407e-06 0)
(2.57046e-08 -2.14533e-06 0)
(2.56485e-08 -2.14995e-06 0)
(2.55922e-08 -2.15458e-06 0)
(2.55356e-08 -2.1592e-06 0)
(2.54788e-08 -2.16383e-06 0)
(2.54219e-08 -2.16845e-06 0)
(2.53647e-08 -2.17308e-06 0)
(2.53073e-08 -2.17771e-06 0)
(2.52497e-08 -2.18234e-06 0)
(2.51919e-08 -2.18697e-06 0)
(2.51339e-08 -2.19159e-06 0)
(2.50757e-08 -2.19622e-06 0)
(2.50172e-08 -2.20085e-06 0)
(2.49586e-08 -2.20548e-06 0)
(2.48997e-08 -2.21011e-06 0)
(2.48406e-08 -2.21474e-06 0)
(2.47814e-08 -2.21937e-06 0)
(2.47219e-08 -2.224e-06 0)
(2.46622e-08 -2.22862e-06 0)
(2.46023e-08 -2.23325e-06 0)
(2.45422e-08 -2.23788e-06 0)
(2.44819e-08 -2.24251e-06 0)
(2.44213e-08 -2.24713e-06 0)
(2.43606e-08 -2.25176e-06 0)
(2.42996e-08 -2.25638e-06 0)
(2.42385e-08 -2.26101e-06 0)
(2.41771e-08 -2.26563e-06 0)
(2.41156e-08 -2.27026e-06 0)
(2.40538e-08 -2.27488e-06 0)
(2.39918e-08 -2.2795e-06 0)
(2.39296e-08 -2.28412e-06 0)
(2.38672e-08 -2.28874e-06 0)
(2.38046e-08 -2.29336e-06 0)
(2.37418e-08 -2.29797e-06 0)
(2.36788e-08 -2.30259e-06 0)
(2.36156e-08 -2.3072e-06 0)
(2.35522e-08 -2.31181e-06 0)
(2.34886e-08 -2.31642e-06 0)
(2.34247e-08 -2.32103e-06 0)
(2.33607e-08 -2.32564e-06 0)
(2.32965e-08 -2.33024e-06 0)
(2.32321e-08 -2.33485e-06 0)
(2.31674e-08 -2.33945e-06 0)
(2.31026e-08 -2.34405e-06 0)
(2.30376e-08 -2.34865e-06 0)
(2.29723e-08 -2.35324e-06 0)
(2.29069e-08 -2.35783e-06 0)
(2.28413e-08 -2.36242e-06 0)
(2.27754e-08 -2.36701e-06 0)
(2.27094e-08 -2.3716e-06 0)
(2.26432e-08 -2.37618e-06 0)
(2.25767e-08 -2.38076e-06 0)
(2.25101e-08 -2.38534e-06 0)
(2.24433e-08 -2.38991e-06 0)
(2.23763e-08 -2.39449e-06 0)
(2.23091e-08 -2.39906e-06 0)
(2.22417e-08 -2.40362e-06 0)
(2.21741e-08 -2.40818e-06 0)
(2.21063e-08 -2.41274e-06 0)
(2.20383e-08 -2.4173e-06 0)
(2.19702e-08 -2.42185e-06 0)
(2.19018e-08 -2.4264e-06 0)
(2.18332e-08 -2.43095e-06 0)
(2.17646e-08 -2.43549e-06 0)
(2.16953e-08 -2.44003e-06 0)
(2.16279e-08 -2.44454e-06 0)
(2.15632e-08 -2.44884e-06 0)
(2.14994e-08 -2.45292e-06 0)
(2.14363e-08 -2.45697e-06 0)
(2.13728e-08 -2.46106e-06 0)
(2.13087e-08 -2.4652e-06 0)
(2.12439e-08 -2.46937e-06 0)
(2.11784e-08 -2.47358e-06 0)
(2.11121e-08 -2.47781e-06 0)
(2.10452e-08 -2.48208e-06 0)
(2.09775e-08 -2.48637e-06 0)
(2.0909e-08 -2.49071e-06 0)
(2.08398e-08 -2.49507e-06 0)
(2.07698e-08 -2.49947e-06 0)
(2.06991e-08 -2.5039e-06 0)
(2.06276e-08 -2.50836e-06 0)
(2.05553e-08 -2.51286e-06 0)
(2.04822e-08 -2.51739e-06 0)
(2.04084e-08 -2.52195e-06 0)
(2.03337e-08 -2.52654e-06 0)
(2.02582e-08 -2.53117e-06 0)
(2.01819e-08 -2.53583e-06 0)
(2.01048e-08 -2.54052e-06 0)
(2.00268e-08 -2.54525e-06 0)
(1.9948e-08 -2.55001e-06 0)
(1.98684e-08 -2.5548e-06 0)
(1.97879e-08 -2.55962e-06 0)
(1.97066e-08 -2.56448e-06 0)
(1.96244e-08 -2.56937e-06 0)
(1.95413e-08 -2.57429e-06 0)
(1.94574e-08 -2.57924e-06 0)
(1.93726e-08 -2.58423e-06 0)
(1.92868e-08 -2.58924e-06 0)
(1.92002e-08 -2.59429e-06 0)
(1.91127e-08 -2.59937e-06 0)
(1.90243e-08 -2.60448e-06 0)
(1.89349e-08 -2.60963e-06 0)
(1.88446e-08 -2.6148e-06 0)
(1.87534e-08 -2.62001e-06 0)
(1.86613e-08 -2.62525e-06 0)
(1.85682e-08 -2.63051e-06 0)
(1.84742e-08 -2.63581e-06 0)
(1.83792e-08 -2.64114e-06 0)
(1.82833e-08 -2.6465e-06 0)
(1.81864e-08 -2.65189e-06 0)
(1.80885e-08 -2.6573e-06 0)
(1.79897e-08 -2.66275e-06 0)
(1.78899e-08 -2.66823e-06 0)
(1.77891e-08 -2.67373e-06 0)
(1.76873e-08 -2.67926e-06 0)
(1.75846e-08 -2.68482e-06 0)
(1.74808e-08 -2.69041e-06 0)
(1.7376e-08 -2.69603e-06 0)
(1.72702e-08 -2.70167e-06 0)
(1.71635e-08 -2.70733e-06 0)
(1.70557e-08 -2.71303e-06 0)
(1.69469e-08 -2.71875e-06 0)
(1.6837e-08 -2.72449e-06 0)
(1.67262e-08 -2.73026e-06 0)
(1.66143e-08 -2.73605e-06 0)
(1.65014e-08 -2.74187e-06 0)
(1.63875e-08 -2.74771e-06 0)
(1.62726e-08 -2.75357e-06 0)
(1.61566e-08 -2.75945e-06 0)
(1.60396e-08 -2.76535e-06 0)
(1.59216e-08 -2.77128e-06 0)
(1.58025e-08 -2.77722e-06 0)
(1.56825e-08 -2.78319e-06 0)
(1.55613e-08 -2.78917e-06 0)
(1.54392e-08 -2.79517e-06 0)
(1.5316e-08 -2.80118e-06 0)
(1.51918e-08 -2.80722e-06 0)
(1.50666e-08 -2.81327e-06 0)
(1.49404e-08 -2.81933e-06 0)
(1.48131e-08 -2.82541e-06 0)
(1.46849e-08 -2.8315e-06 0)
(1.45556e-08 -2.8376e-06 0)
(1.44253e-08 -2.84372e-06 0)
(1.4294e-08 -2.84985e-06 0)
(1.41618e-08 -2.85598e-06 0)
(1.40285e-08 -2.86213e-06 0)
(1.38943e-08 -2.86828e-06 0)
(1.3759e-08 -2.87444e-06 0)
(1.36229e-08 -2.8806e-06 0)
(1.34857e-08 -2.88677e-06 0)
(1.33476e-08 -2.89294e-06 0)
(1.32086e-08 -2.89912e-06 0)
(1.30687e-08 -2.90529e-06 0)
(1.29278e-08 -2.91147e-06 0)
(1.2786e-08 -2.91765e-06 0)
(1.26433e-08 -2.92382e-06 0)
(1.24998e-08 -2.92999e-06 0)
(1.23554e-08 -2.93616e-06 0)
(1.22101e-08 -2.94232e-06 0)
(1.2064e-08 -2.94847e-06 0)
(1.19171e-08 -2.95462e-06 0)
(1.17693e-08 -2.96075e-06 0)
(1.16208e-08 -2.96688e-06 0)
(1.14715e-08 -2.97299e-06 0)
(1.13215e-08 -2.97909e-06 0)
(1.11707e-08 -2.98517e-06 0)
(1.10192e-08 -2.99124e-06 0)
(1.0867e-08 -2.99729e-06 0)
(1.07142e-08 -3.00332e-06 0)
(1.05607e-08 -3.00932e-06 0)
(1.04066e-08 -3.01531e-06 0)
(1.02519e-08 -3.02127e-06 0)
(1.00966e-08 -3.02721e-06 0)
(9.94079e-09 -3.03311e-06 0)
(9.78445e-09 -3.03899e-06 0)
(9.62763e-09 -3.04484e-06 0)
(9.47034e-09 -3.05066e-06 0)
(9.31262e-09 -3.05644e-06 0)
(9.15451e-09 -3.06218e-06 0)
(8.99602e-09 -3.06789e-06 0)
(8.8372e-09 -3.07356e-06 0)
(8.67807e-09 -3.07919e-06 0)
(8.51867e-09 -3.08478e-06 0)
(8.35904e-09 -3.09032e-06 0)
(8.19921e-09 -3.09582e-06 0)
(8.03922e-09 -3.10127e-06 0)
(7.8791e-09 -3.10666e-06 0)
(7.71889e-09 -3.11201e-06 0)
(7.55864e-09 -3.11731e-06 0)
(7.39837e-09 -3.12255e-06 0)
(7.23813e-09 -3.12773e-06 0)
(7.07797e-09 -3.13285e-06 0)
(6.91792e-09 -3.13791e-06 0)
(6.75803e-09 -3.14292e-06 0)
(6.59833e-09 -3.14785e-06 0)
(6.43888e-09 -3.15272e-06 0)
(6.27971e-09 -3.15753e-06 0)
(6.12088e-09 -3.16226e-06 0)
(5.96242e-09 -3.16692e-06 0)
(5.80439e-09 -3.17151e-06 0)
(5.64683e-09 -3.17603e-06 0)
(5.48978e-09 -3.18047e-06 0)
(5.3333e-09 -3.18483e-06 0)
(5.17743e-09 -3.18911e-06 0)
(5.02222e-09 -3.1933e-06 0)
(4.86772e-09 -3.19742e-06 0)
(4.71398e-09 -3.20145e-06 0)
(4.56105e-09 -3.20539e-06 0)
(4.40897e-09 -3.20924e-06 0)
(4.25779e-09 -3.213e-06 0)
(4.10757e-09 -3.21667e-06 0)
(3.95836e-09 -3.22025e-06 0)
(3.81019e-09 -3.22373e-06 0)
(3.66314e-09 -3.22712e-06 0)
(3.51723e-09 -3.23041e-06 0)
(3.37252e-09 -3.2336e-06 0)
(3.22907e-09 -3.23668e-06 0)
(3.08692e-09 -3.23967e-06 0)
(2.94611e-09 -3.24255e-06 0)
(2.8067e-09 -3.24533e-06 0)
(2.66873e-09 -3.248e-06 0)
(2.53226e-09 -3.25057e-06 0)
(2.39732e-09 -3.25302e-06 0)
(2.26397e-09 -3.25537e-06 0)
(2.13224e-09 -3.25761e-06 0)
(2.00219e-09 -3.25973e-06 0)
(1.87385e-09 -3.26175e-06 0)
(1.74728e-09 -3.26365e-06 0)
(1.62251e-09 -3.26544e-06 0)
(1.49959e-09 -3.26711e-06 0)
(1.37855e-09 -3.26867e-06 0)
(1.25943e-09 -3.27011e-06 0)
(1.14228e-09 -3.27143e-06 0)
(1.02712e-09 -3.27264e-06 0)
(9.14009e-10 -3.27373e-06 0)
(8.02965e-10 -3.27471e-06 0)
(6.94026e-10 -3.27556e-06 0)
(5.87225e-10 -3.2763e-06 0)
(4.82593e-10 -3.27692e-06 0)
(3.80161e-10 -3.27742e-06 0)
(2.79955e-10 -3.27781e-06 0)
(1.82008e-10 -3.27808e-06 0)
(8.63269e-11 -3.27823e-06 0)
(-6.9857e-12 -3.27826e-06 0)
(-9.82395e-11 -3.27817e-06 0)
(-1.86014e-10 -3.27797e-06 0)
(-2.7617e-10 -3.27765e-06 0)
(-3.70973e-10 -3.27716e-06 0)
(-4.6546e-10 -3.27647e-06 0)
(-5.58159e-10 -3.27562e-06 0)
(-6.46813e-10 -3.27462e-06 0)
(-7.31133e-10 -3.27349e-06 0)
(-8.11173e-10 -3.27222e-06 0)
(-8.87018e-10 -3.27082e-06 0)
(-9.58772e-10 -3.26931e-06 0)
(-1.02656e-09 -3.26768e-06 0)
(-1.09051e-09 -3.26595e-06 0)
(-1.15075e-09 -3.26412e-06 0)
(-1.2074e-09 -3.26219e-06 0)
(-1.26057e-09 -3.26018e-06 0)
(-1.31038e-09 -3.25808e-06 0)
(-1.35693e-09 -3.2559e-06 0)
(-1.40033e-09 -3.25365e-06 0)
(-1.44068e-09 -3.25134e-06 0)
(-1.47809e-09 -3.24896e-06 0)
(-1.51265e-09 -3.24652e-06 0)
(-1.54445e-09 -3.24403e-06 0)
(-1.57358e-09 -3.24149e-06 0)
(-1.60014e-09 -3.23891e-06 0)
(-1.62421e-09 -3.23629e-06 0)
(-1.64586e-09 -3.23362e-06 0)
(-1.66518e-09 -3.23093e-06 0)
(-1.68225e-09 -3.22821e-06 0)
(-1.69714e-09 -3.22546e-06 0)
(-1.70991e-09 -3.22269e-06 0)
(-1.72064e-09 -3.2199e-06 0)
(-1.7294e-09 -3.21709e-06 0)
(-1.73624e-09 -3.21427e-06 0)
(-1.74123e-09 -3.21144e-06 0)
(-1.74443e-09 -3.20861e-06 0)
(-1.74589e-09 -3.20577e-06 0)
(-1.74568e-09 -3.20293e-06 0)
(-1.74383e-09 -3.2001e-06 0)
(-1.74041e-09 -3.19727e-06 0)
(-1.73546e-09 -3.19444e-06 0)
(-1.72903e-09 -3.19162e-06 0)
(-1.72117e-09 -3.18882e-06 0)
(-1.71191e-09 -3.18603e-06 0)
(-1.70131e-09 -3.18326e-06 0)
(-1.68939e-09 -3.1805e-06 0)
(-1.67621e-09 -3.17777e-06 0)
(-1.6618e-09 -3.17505e-06 0)
(-1.64619e-09 -3.17236e-06 0)
(-1.62942e-09 -3.1697e-06 0)
(-1.61153e-09 -3.16707e-06 0)
(-1.59254e-09 -3.16446e-06 0)
(-1.5725e-09 -3.16189e-06 0)
(-1.55143e-09 -3.15935e-06 0)
(-1.52936e-09 -3.15685e-06 0)
(-1.50632e-09 -3.15438e-06 0)
(-1.48234e-09 -3.15195e-06 0)
(-1.45744e-09 -3.14956e-06 0)
(-1.43166e-09 -3.14722e-06 0)
(-1.40502e-09 -3.14491e-06 0)
(-1.37755e-09 -3.14265e-06 0)
(-1.34927e-09 -3.14043e-06 0)
(-1.32021e-09 -3.13826e-06 0)
(-1.29039e-09 -3.13614e-06 0)
(-1.25983e-09 -3.13406e-06 0)
(-1.22856e-09 -3.13204e-06 0)
(-1.1966e-09 -3.13007e-06 0)
(-1.16398e-09 -3.12815e-06 0)
(-1.13072e-09 -3.12628e-06 0)
(-1.09683e-09 -3.12447e-06 0)
(-1.06235e-09 -3.12271e-06 0)
(-1.02729e-09 -3.12101e-06 0)
(-9.91674e-10 -3.11937e-06 0)
(-9.55526e-10 -3.11778e-06 0)
(-9.18867e-10 -3.11626e-06 0)
(-8.81718e-10 -3.11479e-06 0)
(-8.441e-10 -3.11339e-06 0)
(-8.06033e-10 -3.11204e-06 0)
(-7.6754e-10 -3.11076e-06 0)
(-7.2864e-10 -3.10954e-06 0)
(-6.89356e-10 -3.10838e-06 0)
(-6.49707e-10 -3.10729e-06 0)
(-6.09715e-10 -3.10626e-06 0)
(-5.69399e-10 -3.1053e-06 0)
(-5.28781e-10 -3.1044e-06 0)
(-4.87881e-10 -3.10357e-06 0)
(-4.46721e-10 -3.10281e-06 0)
(-4.0532e-10 -3.1021e-06 0)
(-3.63702e-10 -3.10149e-06 0)
(-3.21885e-10 -3.10086e-06 0)
(-2.79898e-10 -3.10058e-06 0)
(-2.37744e-10 -3.09943e-06 0)
(-1.95499e-10 -3.10143e-06 0)
(-1.53055e-10 -3.09307e-06 0)
(-1.10723e-10 -3.11803e-06 0)
(-6.83209e-11 -3.02453e-06 0)
(-2.42056e-11 -3.27289e-06 0)
(-7.39538e-13 -2.85855e-06 0)
)
;
    }
    bottomWall
    {
        type            calculated;
        value           nonuniform List<vector> 
449
(
(-48.4803 -0.963371 0)
(-19.7346 -0.00514864 0)
(-14.3359 -0.00113231 0)
(-12.0343 -0.000542776 0)
(-10.6387 -0.000347394 0)
(-9.66237 -0.000248571 0)
(-8.93744 -0.000183747 0)
(-8.40173 -0.000127711 0)
(-8.0595 -5.80213e-05 0)
(-8.00309 5.19603e-05 0)
(-8.42197 0.000233541 0)
(-9.62474 0.00033847 0)
(-10.7702 0.000271978 0)
(-11.5132 0.000166455 0)
(-11.9294 9.24009e-05 0)
(-12.1586 4.95164e-05 0)
(-12.2762 2.32727e-05 0)
(-12.3219 5.52253e-06 0)
(-12.3149 -6.23904e-06 0)
(-12.2778 -1.33309e-05 0)
(-12.2206 -1.7977e-05 0)
(-12.1503 -2.07371e-05 0)
(-12.0732 -2.20705e-05 0)
(-11.9931 -2.2565e-05 0)
(-11.9121 -2.25571e-05 0)
(-11.8317 -2.22674e-05 0)
(-11.7524 -2.18008e-05 0)
(-11.6749 -2.12003e-05 0)
(-11.5996 -2.0537e-05 0)
(-11.5265 -1.98501e-05 0)
(-11.4558 -1.91599e-05 0)
(-11.3874 -1.84792e-05 0)
(-11.3213 -1.78178e-05 0)
(-11.2575 -1.71792e-05 0)
(-11.1957 -1.65734e-05 0)
(-11.136 -1.60057e-05 0)
(-11.0782 -1.54603e-05 0)
(-11.0222 -1.49302e-05 0)
(-10.968 -1.44242e-05 0)
(-10.9155 -1.39438e-05 0)
(-10.8646 -1.34879e-05 0)
(-10.8152 -1.30552e-05 0)
(-10.7673 -1.26463e-05 0)
(-10.7208 -1.22576e-05 0)
(-10.6756 -1.1887e-05 0)
(-10.6316 -1.15346e-05 0)
(-10.5888 -1.12023e-05 0)
(-10.5471 -1.08837e-05 0)
(-10.5066 -1.05855e-05 0)
(-10.467 -1.03232e-05 0)
(-10.4282 -1.00894e-05 0)
(-10.3902 -9.86882e-06 0)
(-10.3529 -9.65561e-06 0)
(-10.3164 -9.44636e-06 0)
(-10.2805 -9.24025e-06 0)
(-10.2454 -9.03654e-06 0)
(-10.2109 -8.83748e-06 0)
(-10.1772 -8.64429e-06 0)
(-10.1441 -8.45615e-06 0)
(-10.1116 -8.27304e-06 0)
(-10.0797 -8.09619e-06 0)
(-10.0485 -7.92664e-06 0)
(-10.0178 -7.7617e-06 0)
(-9.98774 -7.60105e-06 0)
(-9.9582 -7.44481e-06 0)
(-9.92918 -7.29526e-06 0)
(-9.90068 -7.15114e-06 0)
(-9.87267 -7.01174e-06 0)
(-9.84514 -6.87498e-06 0)
(-9.81808 -6.74565e-06 0)
(-9.79145 -6.62297e-06 0)
(-9.76525 -6.50069e-06 0)
(-9.73947 -6.38038e-06 0)
(-9.7141 -6.2645e-06 0)
(-9.68914 -6.15256e-06 0)
(-9.66456 -6.04222e-06 0)
(-9.64036 -5.93511e-06 0)
(-9.61654 -5.83041e-06 0)
(-9.59308 -5.72865e-06 0)
(-9.56996 -5.62997e-06 0)
(-9.5472 -5.53406e-06 0)
(-9.52476 -5.44074e-06 0)
(-9.50266 -5.35004e-06 0)
(-9.48086 -5.26166e-06 0)
(-9.45937 -5.17546e-06 0)
(-9.43818 -5.092e-06 0)
(-9.41729 -5.01038e-06 0)
(-9.39668 -4.93224e-06 0)
(-9.37633 -4.8557e-06 0)
(-9.35626 -4.78047e-06 0)
(-9.33645 -4.70768e-06 0)
(-9.31689 -4.63587e-06 0)
(-9.29759 -4.56606e-06 0)
(-9.27853 -4.49801e-06 0)
(-9.25971 -4.43076e-06 0)
(-9.24112 -4.36636e-06 0)
(-9.22276 -4.30286e-06 0)
(-9.20463 -4.24049e-06 0)
(-9.18671 -4.18063e-06 0)
(-9.169 -4.12112e-06 0)
(-9.1515 -4.0654e-06 0)
(-9.13419 -4.01259e-06 0)
(-9.11707 -3.95855e-06 0)
(-9.10013 -3.90526e-06 0)
(-9.08339 -3.85247e-06 0)
(-9.06684 -3.80033e-06 0)
(-9.05046 -3.75037e-06 0)
(-9.03427 -3.70096e-06 0)
(-9.01825 -3.65196e-06 0)
(-9.0024 -3.60508e-06 0)
(-8.98672 -3.55872e-06 0)
(-8.97121 -3.51258e-06 0)
(-8.95585 -3.46857e-06 0)
(-8.94065 -3.42511e-06 0)
(-8.92561 -3.38169e-06 0)
(-8.91073 -3.34017e-06 0)
(-8.89599 -3.29945e-06 0)
(-8.88139 -3.25857e-06 0)
(-8.86694 -3.21913e-06 0)
(-8.85263 -3.18099e-06 0)
(-8.83846 -3.14256e-06 0)
(-8.82443 -3.10503e-06 0)
(-8.81052 -3.06922e-06 0)
(-8.79675 -3.03323e-06 0)
(-8.78311 -2.99743e-06 0)
(-8.76959 -2.9633e-06 0)
(-8.75619 -2.92969e-06 0)
(-8.74292 -2.89597e-06 0)
(-8.72977 -2.86321e-06 0)
(-8.71673 -2.83168e-06 0)
(-8.70381 -2.80003e-06 0)
(-8.691 -2.76848e-06 0)
(-8.6783 -2.73838e-06 0)
(-8.66571 -2.70885e-06 0)
(-8.65323 -2.67907e-06 0)
(-8.64086 -2.64997e-06 0)
(-8.62859 -2.62216e-06 0)
(-8.61642 -2.59426e-06 0)
(-8.60435 -2.56623e-06 0)
(-8.59239 -2.53941e-06 0)
(-8.58052 -2.51345e-06 0)
(-8.56874 -2.48712e-06 0)
(-8.55706 -2.46095e-06 0)
(-8.54548 -2.43605e-06 0)
(-8.53398 -2.41161e-06 0)
(-8.52257 -2.38682e-06 0)
(-8.51125 -2.36285e-06 0)
(-8.50002 -2.34111e-06 0)
(-8.48886 -2.31954e-06 0)
(-8.47778 -2.29662e-06 0)
(-8.46679 -2.27383e-06 0)
(-8.45588 -2.2519e-06 0)
(-8.44504 -2.23024e-06 0)
(-8.43429 -2.20839e-06 0)
(-8.42362 -2.18686e-06 0)
(-8.41302 -2.16615e-06 0)
(-8.4025 -2.14583e-06 0)
(-8.39206 -2.1253e-06 0)
(-8.38169 -2.10491e-06 0)
(-8.37139 -2.08534e-06 0)
(-8.36117 -2.06631e-06 0)
(-8.35101 -2.04703e-06 0)
(-8.34093 -2.02766e-06 0)
(-8.33092 -2.00911e-06 0)
(-8.32097 -1.99119e-06 0)
(-8.31109 -1.9731e-06 0)
(-8.30128 -1.95487e-06 0)
(-8.29154 -1.93714e-06 0)
(-8.28186 -1.92025e-06 0)
(-8.27224 -1.90324e-06 0)
(-8.26268 -1.88638e-06 0)
(-8.25319 -1.8693e-06 0)
(-8.24376 -1.85081e-06 0)
(-8.23493 -1.83744e-06 0)
(-8.2266 -1.82589e-06 0)
(-8.21825 -1.80977e-06 0)
(-8.20989 -1.79472e-06 0)
(-8.2015 -1.78091e-06 0)
(-8.19309 -1.76701e-06 0)
(-8.18465 -1.75295e-06 0)
(-8.17619 -1.73855e-06 0)
(-8.16771 -1.72461e-06 0)
(-8.1592 -1.71097e-06 0)
(-8.15067 -1.69746e-06 0)
(-8.14211 -1.68354e-06 0)
(-8.13353 -1.66945e-06 0)
(-8.12494 -1.65585e-06 0)
(-8.11631 -1.64251e-06 0)
(-8.10767 -1.62914e-06 0)
(-8.099 -1.61548e-06 0)
(-8.09032 -1.6018e-06 0)
(-8.08161 -1.58856e-06 0)
(-8.07288 -1.5755e-06 0)
(-8.06413 -1.56226e-06 0)
(-8.05536 -1.54887e-06 0)
(-8.04657 -1.53564e-06 0)
(-8.03775 -1.52272e-06 0)
(-8.02892 -1.50996e-06 0)
(-8.02007 -1.49693e-06 0)
(-8.0112 -1.48379e-06 0)
(-8.00231 -1.47103e-06 0)
(-7.9934 -1.45849e-06 0)
(-7.98447 -1.44588e-06 0)
(-7.97553 -1.43311e-06 0)
(-7.96656 -1.42044e-06 0)
(-7.95758 -1.40806e-06 0)
(-7.94858 -1.39588e-06 0)
(-7.93956 -1.38345e-06 0)
(-7.93053 -1.3709e-06 0)
(-7.92148 -1.35873e-06 0)
(-7.91241 -1.3468e-06 0)
(-7.90333 -1.33471e-06 0)
(-7.89422 -1.32305e-06 0)
(-7.8851 -1.31204e-06 0)
(-7.87596 -1.3008e-06 0)
(-7.86679 -1.28919e-06 0)
(-7.85761 -1.27733e-06 0)
(-7.84842 -1.26547e-06 0)
(-7.83921 -1.25396e-06 0)
(-7.82999 -1.24261e-06 0)
(-7.82075 -1.23106e-06 0)
(-7.8115 -1.21943e-06 0)
(-7.80224 -1.20815e-06 0)
(-7.79296 -1.19712e-06 0)
(-7.78367 -1.18588e-06 0)
(-7.77436 -1.17452e-06 0)
(-7.76505 -1.1635e-06 0)
(-7.75572 -1.15274e-06 0)
(-7.74638 -1.14181e-06 0)
(-7.73702 -1.13076e-06 0)
(-7.72766 -1.12e-06 0)
(-7.71828 -1.1095e-06 0)
(-7.70889 -1.09888e-06 0)
(-7.69949 -1.08814e-06 0)
(-7.69008 -1.07766e-06 0)
(-7.68066 -1.06743e-06 0)
(-7.67123 -1.05709e-06 0)
(-7.66179 -1.04665e-06 0)
(-7.65234 -1.03647e-06 0)
(-7.64288 -1.02652e-06 0)
(-7.63341 -1.01646e-06 0)
(-7.62393 -1.00631e-06 0)
(-7.61444 -9.96431e-07 0)
(-7.60495 -9.86764e-07 0)
(-7.59544 -9.76971e-07 0)
(-7.58593 -9.67116e-07 0)
(-7.57641 -9.57553e-07 0)
(-7.56688 -9.48179e-07 0)
(-7.55734 -9.38643e-07 0)
(-7.5478 -9.2908e-07 0)
(-7.53825 -9.1983e-07 0)
(-7.52869 -9.10707e-07 0)
(-7.51913 -9.01434e-07 0)
(-7.50956 -8.92203e-07 0)
(-7.49998 -8.83242e-07 0)
(-7.4904 -8.74353e-07 0)
(-7.48081 -8.65356e-07 0)
(-7.47122 -8.56463e-07 0)
(-7.46162 -8.47799e-07 0)
(-7.45202 -8.39142e-07 0)
(-7.44241 -8.30412e-07 0)
(-7.4328 -8.21842e-07 0)
(-7.42318 -8.13475e-07 0)
(-7.41356 -8.05043e-07 0)
(-7.40394 -7.96581e-07 0)
(-7.39431 -7.8833e-07 0)
(-7.38468 -7.80223e-07 0)
(-7.37505 -7.7203e-07 0)
(-7.36541 -7.63871e-07 0)
(-7.35577 -7.55932e-07 0)
(-7.34613 -7.4804e-07 0)
(-7.33648 -7.4012e-07 0)
(-7.32683 -7.32347e-07 0)
(-7.31718 -7.25114e-07 0)
(-7.30752 -7.18006e-07 0)
(-7.29785 -7.10497e-07 0)
(-7.28818 -7.02985e-07 0)
(-7.27851 -6.95567e-07 0)
(-7.26884 -6.88098e-07 0)
(-7.25916 -6.80683e-07 0)
(-7.24949 -6.73452e-07 0)
(-7.23982 -6.66246e-07 0)
(-7.23014 -6.59007e-07 0)
(-7.22047 -6.51906e-07 0)
(-7.2108 -6.4494e-07 0)
(-7.20112 -6.3793e-07 0)
(-7.19145 -6.30937e-07 0)
(-7.18178 -6.24136e-07 0)
(-7.17211 -6.17376e-07 0)
(-7.16244 -6.10585e-07 0)
(-7.15278 -6.03908e-07 0)
(-7.14311 -5.97379e-07 0)
(-7.13345 -5.90806e-07 0)
(-7.12379 -5.84247e-07 0)
(-7.11413 -5.77866e-07 0)
(-7.10447 -5.71531e-07 0)
(-7.09482 -5.65162e-07 0)
(-7.08517 -5.58905e-07 0)
(-7.07552 -5.52786e-07 0)
(-7.06588 -5.46629e-07 0)
(-7.05624 -5.40494e-07 0)
(-7.0466 -5.34521e-07 0)
(-7.03697 -5.28587e-07 0)
(-7.02734 -5.22622e-07 0)
(-7.01771 -5.16774e-07 0)
(-7.00809 -5.11038e-07 0)
(-6.99848 -5.05275e-07 0)
(-6.98887 -4.9955e-07 0)
(-6.97926 -4.93977e-07 0)
(-6.96966 -4.88415e-07 0)
(-6.96006 -4.82843e-07 0)
(-6.95047 -4.77392e-07 0)
(-6.94089 -4.72016e-07 0)
(-6.93131 -4.66622e-07 0)
(-6.92173 -4.61293e-07 0)
(-6.91217 -4.56092e-07 0)
(-6.9026 -4.5088e-07 0)
(-6.89305 -4.45681e-07 0)
(-6.8835 -4.40619e-07 0)
(-6.87396 -4.35584e-07 0)
(-6.86443 -4.30548e-07 0)
(-6.8549 -4.25601e-07 0)
(-6.84538 -4.20733e-07 0)
(-6.83586 -4.15857e-07 0)
(-6.82636 -4.11036e-07 0)
(-6.81686 -4.06323e-07 0)
(-6.80737 -4.01608e-07 0)
(-6.79789 -3.96913e-07 0)
(-6.78842 -3.92327e-07 0)
(-6.77895 -3.87944e-07 0)
(-6.76949 -3.83681e-07 0)
(-6.76003 -3.79321e-07 0)
(-6.75058 -3.7491e-07 0)
(-6.74113 -3.70494e-07 0)
(-6.7317 -3.66142e-07 0)
(-6.72227 -3.61871e-07 0)
(-6.71286 -3.57605e-07 0)
(-6.70345 -3.53371e-07 0)
(-6.69406 -3.49256e-07 0)
(-6.68467 -3.4518e-07 0)
(-6.67529 -3.41108e-07 0)
(-6.66592 -3.37089e-07 0)
(-6.65656 -3.33101e-07 0)
(-6.64722 -3.29117e-07 0)
(-6.63788 -3.25213e-07 0)
(-6.62855 -3.21354e-07 0)
(-6.61924 -3.17508e-07 0)
(-6.60993 -3.13704e-07 0)
(-6.60064 -3.09983e-07 0)
(-6.59136 -3.06238e-07 0)
(-6.58209 -3.02567e-07 0)
(-6.57283 -2.98878e-07 0)
(-6.5636 -2.95337e-07 0)
(-6.55435 -2.9192e-07 0)
(-6.54409 -2.8785e-07 0)
(-6.53292 -2.83483e-07 0)
(-6.52192 -2.79499e-07 0)
(-6.51105 -2.756e-07 0)
(-6.50036 -2.71699e-07 0)
(-6.4898 -2.67922e-07 0)
(-6.47939 -2.64229e-07 0)
(-6.46913 -2.60604e-07 0)
(-6.45901 -2.57088e-07 0)
(-6.44901 -2.53641e-07 0)
(-6.43916 -2.50261e-07 0)
(-6.42944 -2.46982e-07 0)
(-6.41984 -2.43773e-07 0)
(-6.41036 -2.40613e-07 0)
(-6.40102 -2.3756e-07 0)
(-6.39178 -2.34565e-07 0)
(-6.38267 -2.31618e-07 0)
(-6.37366 -2.28758e-07 0)
(-6.36477 -2.25962e-07 0)
(-6.35598 -2.232e-07 0)
(-6.34731 -2.20517e-07 0)
(-6.33873 -2.17897e-07 0)
(-6.33026 -2.15313e-07 0)
(-6.32188 -2.12783e-07 0)
(-6.31361 -2.10332e-07 0)
(-6.30543 -2.07907e-07 0)
(-6.29735 -2.05518e-07 0)
(-6.28935 -2.03205e-07 0)
(-6.28145 -2.00946e-07 0)
(-6.27363 -1.98823e-07 0)
(-6.2659 -1.96761e-07 0)
(-6.25824 -1.94636e-07 0)
(-6.25067 -1.92527e-07 0)
(-6.24318 -1.90439e-07 0)
(-6.23577 -1.88418e-07 0)
(-6.22844 -1.86437e-07 0)
(-6.22119 -1.84477e-07 0)
(-6.214 -1.82549e-07 0)
(-6.20691 -1.80681e-07 0)
(-6.19987 -1.78839e-07 0)
(-6.19292 -1.77032e-07 0)
(-6.18602 -1.75268e-07 0)
(-6.1792 -1.73543e-07 0)
(-6.17244 -1.71821e-07 0)
(-6.16576 -1.7012e-07 0)
(-6.15913 -1.68455e-07 0)
(-6.15258 -1.66842e-07 0)
(-6.14608 -1.65238e-07 0)
(-6.13966 -1.63655e-07 0)
(-6.13328 -1.62099e-07 0)
(-6.12698 -1.60594e-07 0)
(-6.12071 -1.59097e-07 0)
(-6.11453 -1.57622e-07 0)
(-6.10838 -1.56161e-07 0)
(-6.10231 -1.54754e-07 0)
(-6.09628 -1.53355e-07 0)
(-6.09032 -1.51984e-07 0)
(-6.08439 -1.50604e-07 0)
(-6.07853 -1.4929e-07 0)
(-6.07271 -1.47981e-07 0)
(-6.06696 -1.4671e-07 0)
(-6.06123 -1.45403e-07 0)
(-6.05558 -1.44178e-07 0)
(-6.04995 -1.42933e-07 0)
(-6.0444 -1.41766e-07 0)
(-6.03886 -1.40535e-07 0)
(-6.03341 -1.39395e-07 0)
(-6.02796 -1.38202e-07 0)
(-6.02259 -1.37136e-07 0)
(-6.01723 -1.35968e-07 0)
(-6.01196 -1.3493e-07 0)
(-6.00667 -1.33771e-07 0)
(-6.00149 -1.32803e-07 0)
(-5.99628 -1.31682e-07 0)
(-5.99119 -1.30769e-07 0)
(-5.98605 -1.29637e-07 0)
(-5.98105 -1.2878e-07 0)
(-5.97598 -1.27676e-07 0)
(-5.97106 -1.2691e-07 0)
(-5.96605 -1.25812e-07 0)
(-5.96122 -1.25101e-07 0)
(-5.95626 -1.24016e-07 0)
(-5.95152 -1.23394e-07 0)
(-5.94661 -1.22402e-07 0)
(-5.94194 -1.21756e-07 0)
(-5.93709 -1.21123e-07 0)
(-5.93247 -1.19877e-07 0)
(-5.92771 -1.20949e-07 0)
(-5.923 -1.16624e-07 0)
(-5.9186 -1.2484e-07 0)
(-5.91321 -1.07053e-07 0)
(-5.91027 -1.38223e-07 0)
(-5.90231 -8.42265e-08 0)
(-5.90384 -1.16774e-07 0)
(-5.89289 -1.45148e-07 0)
)
;
    }
    symmetry
    {
        type            symmetryPlane;
    }
    frontAndBack
    {
        type            empty;
    }
}


// ************************************************************************* //
