/*--------------------------------*- C++ -*----------------------------------*\
| =========                 |                                                 |
| \\      /  F ield         | OpenFOAM: The Open Source CFD Toolbox           |
|  \\    /   O peration     | Version:  v2012                                 |
|   \\  /    A nd           | Website:  www.openfoam.com                      |
|    \\/     M anipulation  |                                                 |
\*---------------------------------------------------------------------------*/
FoamFile
{
    version     2.0;
    format      ascii;
    class       volScalarField;
    location    "34.5";
    object      nut;
}
// * * * * * * * * * * * * * * * * * * * * * * * * * * * * * * * * * * * * * //

dimensions      [0 2 -1 0 0 0 0];


internalField   nonuniform List<scalar> 
209825
(
1.2393e-07
1.22946e-07
1.22314e-07
1.22026e-07
1.21984e-07
1.22069e-07
1.22229e-07
1.22408e-07
1.22604e-07
1.22789e-07
1.22977e-07
1.23145e-07
1.23313e-07
1.2346e-07
1.23608e-07
1.23735e-07
1.23864e-07
1.23973e-07
1.24085e-07
1.24179e-07
1.24277e-07
1.24358e-07
1.24443e-07
1.24514e-07
1.24589e-07
1.24651e-07
1.24717e-07
1.24771e-07
1.24829e-07
1.24877e-07
1.2493e-07
1.24971e-07
1.25018e-07
1.25056e-07
1.25099e-07
1.25131e-07
1.25168e-07
1.25198e-07
1.25233e-07
1.2526e-07
1.2529e-07
1.25317e-07
1.25346e-07
1.25366e-07
1.25394e-07
1.25414e-07
1.25439e-07
1.25456e-07
1.25477e-07
1.25494e-07
1.25514e-07
1.2553e-07
1.25547e-07
1.25564e-07
1.25581e-07
1.25594e-07
1.25608e-07
1.25624e-07
1.25632e-07
1.25645e-07
1.2565e-07
1.25664e-07
1.25666e-07
1.25672e-07
1.25668e-07
1.25684e-07
1.25706e-07
1.25716e-07
1.25729e-07
1.25744e-07
1.25758e-07
1.25781e-07
1.25795e-07
1.2582e-07
1.25841e-07
1.25869e-07
1.25886e-07
1.25911e-07
1.25926e-07
1.2595e-07
1.25963e-07
1.25984e-07
1.25999e-07
1.26018e-07
1.26035e-07
1.26053e-07
1.26072e-07
1.2609e-07
1.26109e-07
1.26132e-07
1.26152e-07
1.26175e-07
1.26211e-07
1.2741e-07
1.31002e-07
1.35711e-08
1.2393e-07
1.22946e-07
1.22314e-07
1.22026e-07
1.21984e-07
1.22069e-07
1.22229e-07
1.22407e-07
1.22604e-07
1.22789e-07
1.22977e-07
1.23145e-07
1.23313e-07
1.2346e-07
1.23608e-07
1.23735e-07
1.23864e-07
1.23973e-07
1.24085e-07
1.24179e-07
1.24276e-07
1.24358e-07
1.24443e-07
1.24514e-07
1.24589e-07
1.24651e-07
1.24717e-07
1.24771e-07
1.2483e-07
1.24877e-07
1.2493e-07
1.24971e-07
1.25018e-07
1.25056e-07
1.25099e-07
1.25131e-07
1.25168e-07
1.25198e-07
1.25233e-07
1.2526e-07
1.25291e-07
1.25317e-07
1.25346e-07
1.25366e-07
1.25394e-07
1.25415e-07
1.25439e-07
1.25457e-07
1.25477e-07
1.25494e-07
1.25514e-07
1.2553e-07
1.25547e-07
1.25564e-07
1.25581e-07
1.25594e-07
1.25608e-07
1.25625e-07
1.25632e-07
1.25645e-07
1.25651e-07
1.25664e-07
1.25667e-07
1.25673e-07
1.25668e-07
1.25685e-07
1.25706e-07
1.25716e-07
1.25729e-07
1.25744e-07
1.25758e-07
1.25781e-07
1.25795e-07
1.2582e-07
1.25841e-07
1.25869e-07
1.25886e-07
1.25911e-07
1.25926e-07
1.2595e-07
1.25963e-07
1.25984e-07
1.25999e-07
1.26018e-07
1.26035e-07
1.26053e-07
1.26072e-07
1.2609e-07
1.26109e-07
1.26132e-07
1.26152e-07
1.26176e-07
1.26211e-07
1.27412e-07
1.31003e-07
1.39856e-08
1.2393e-07
1.22946e-07
1.22314e-07
1.22025e-07
1.21983e-07
1.22068e-07
1.22227e-07
1.22406e-07
1.22602e-07
1.22787e-07
1.22975e-07
1.23143e-07
1.23311e-07
1.23458e-07
1.23606e-07
1.23732e-07
1.23861e-07
1.23971e-07
1.24083e-07
1.24176e-07
1.24274e-07
1.24355e-07
1.24441e-07
1.24512e-07
1.24587e-07
1.24649e-07
1.24715e-07
1.24769e-07
1.24827e-07
1.24875e-07
1.24927e-07
1.24969e-07
1.25016e-07
1.25054e-07
1.25096e-07
1.25129e-07
1.25166e-07
1.25196e-07
1.25231e-07
1.25258e-07
1.25288e-07
1.25315e-07
1.25343e-07
1.25364e-07
1.25392e-07
1.25412e-07
1.25436e-07
1.25454e-07
1.25475e-07
1.25492e-07
1.25512e-07
1.25528e-07
1.25545e-07
1.25561e-07
1.25579e-07
1.25592e-07
1.25606e-07
1.25622e-07
1.2563e-07
1.25643e-07
1.25648e-07
1.25662e-07
1.25664e-07
1.2567e-07
1.25666e-07
1.25682e-07
1.25704e-07
1.25714e-07
1.25727e-07
1.25742e-07
1.25756e-07
1.25779e-07
1.25793e-07
1.25818e-07
1.25839e-07
1.25867e-07
1.25884e-07
1.25909e-07
1.25924e-07
1.25947e-07
1.25961e-07
1.25982e-07
1.25997e-07
1.26015e-07
1.26033e-07
1.2605e-07
1.2607e-07
1.26088e-07
1.26107e-07
1.2613e-07
1.2615e-07
1.26173e-07
1.26209e-07
1.27415e-07
1.31003e-07
1.45003e-08
1.2393e-07
1.22946e-07
1.22314e-07
1.22024e-07
1.21982e-07
1.22066e-07
1.22225e-07
1.22403e-07
1.22599e-07
1.22784e-07
1.22972e-07
1.23139e-07
1.23308e-07
1.23455e-07
1.23602e-07
1.23729e-07
1.23858e-07
1.23967e-07
1.24079e-07
1.24173e-07
1.24271e-07
1.24352e-07
1.24438e-07
1.24508e-07
1.24584e-07
1.24645e-07
1.24711e-07
1.24765e-07
1.24824e-07
1.24871e-07
1.24924e-07
1.24965e-07
1.25013e-07
1.25051e-07
1.25093e-07
1.25125e-07
1.25163e-07
1.25193e-07
1.25228e-07
1.25254e-07
1.25285e-07
1.25312e-07
1.2534e-07
1.25361e-07
1.25389e-07
1.25409e-07
1.25433e-07
1.25451e-07
1.25471e-07
1.25489e-07
1.25509e-07
1.25524e-07
1.25542e-07
1.25558e-07
1.25575e-07
1.25588e-07
1.25603e-07
1.25619e-07
1.25627e-07
1.2564e-07
1.25645e-07
1.25659e-07
1.25661e-07
1.25667e-07
1.25663e-07
1.25679e-07
1.25701e-07
1.25711e-07
1.25723e-07
1.25739e-07
1.25753e-07
1.25776e-07
1.2579e-07
1.25815e-07
1.25836e-07
1.25864e-07
1.25881e-07
1.25906e-07
1.25921e-07
1.25944e-07
1.25957e-07
1.25979e-07
1.25993e-07
1.26012e-07
1.26029e-07
1.26047e-07
1.26066e-07
1.26085e-07
1.26104e-07
1.26127e-07
1.26146e-07
1.2617e-07
1.26206e-07
1.27419e-07
1.31003e-07
1.50713e-08
1.2393e-07
1.22946e-07
1.22313e-07
1.22023e-07
1.2198e-07
1.22063e-07
1.22222e-07
1.22399e-07
1.22596e-07
1.22779e-07
1.22967e-07
1.23135e-07
1.23303e-07
1.2345e-07
1.23598e-07
1.23724e-07
1.23853e-07
1.23962e-07
1.24074e-07
1.24168e-07
1.24266e-07
1.24347e-07
1.24433e-07
1.24504e-07
1.24579e-07
1.24641e-07
1.24707e-07
1.24761e-07
1.24819e-07
1.24867e-07
1.2492e-07
1.24961e-07
1.25008e-07
1.25046e-07
1.25089e-07
1.25121e-07
1.25158e-07
1.25189e-07
1.25224e-07
1.2525e-07
1.25281e-07
1.25307e-07
1.25336e-07
1.25356e-07
1.25384e-07
1.25405e-07
1.25429e-07
1.25447e-07
1.25467e-07
1.25484e-07
1.25505e-07
1.2552e-07
1.25538e-07
1.25554e-07
1.25571e-07
1.25584e-07
1.25599e-07
1.25615e-07
1.25623e-07
1.25635e-07
1.25641e-07
1.25654e-07
1.25657e-07
1.25663e-07
1.25659e-07
1.25675e-07
1.25697e-07
1.25707e-07
1.25719e-07
1.25735e-07
1.25748e-07
1.25771e-07
1.25785e-07
1.25811e-07
1.25831e-07
1.25859e-07
1.25877e-07
1.25901e-07
1.25917e-07
1.2594e-07
1.25953e-07
1.25975e-07
1.25989e-07
1.26008e-07
1.26025e-07
1.26043e-07
1.26062e-07
1.26081e-07
1.26099e-07
1.26123e-07
1.26142e-07
1.26166e-07
1.26202e-07
1.27425e-07
1.31004e-07
1.56907e-08
1.2393e-07
1.22946e-07
1.22313e-07
1.22021e-07
1.21977e-07
1.22059e-07
1.22218e-07
1.22395e-07
1.22591e-07
1.22774e-07
1.22962e-07
1.23129e-07
1.23298e-07
1.23444e-07
1.23592e-07
1.23719e-07
1.23848e-07
1.23957e-07
1.24069e-07
1.24162e-07
1.2426e-07
1.24342e-07
1.24427e-07
1.24498e-07
1.24573e-07
1.24635e-07
1.24701e-07
1.24755e-07
1.24814e-07
1.24861e-07
1.24914e-07
1.24955e-07
1.25003e-07
1.25041e-07
1.25083e-07
1.25115e-07
1.25153e-07
1.25183e-07
1.25218e-07
1.25245e-07
1.25275e-07
1.25302e-07
1.25331e-07
1.25351e-07
1.25379e-07
1.254e-07
1.25424e-07
1.25442e-07
1.25462e-07
1.25479e-07
1.25499e-07
1.25515e-07
1.25532e-07
1.25549e-07
1.25566e-07
1.25579e-07
1.25594e-07
1.2561e-07
1.25618e-07
1.2563e-07
1.25636e-07
1.25649e-07
1.25652e-07
1.25658e-07
1.25654e-07
1.2567e-07
1.25692e-07
1.25702e-07
1.25714e-07
1.2573e-07
1.25743e-07
1.25766e-07
1.2578e-07
1.25805e-07
1.25826e-07
1.25854e-07
1.25871e-07
1.25896e-07
1.25911e-07
1.25935e-07
1.25948e-07
1.2597e-07
1.25984e-07
1.26003e-07
1.2602e-07
1.26038e-07
1.26057e-07
1.26076e-07
1.26094e-07
1.26118e-07
1.26137e-07
1.26161e-07
1.26197e-07
1.27433e-07
1.31004e-07
1.63568e-08
1.2393e-07
1.22946e-07
1.22312e-07
1.22019e-07
1.21974e-07
1.22055e-07
1.22213e-07
1.22389e-07
1.22585e-07
1.22768e-07
1.22955e-07
1.23123e-07
1.23291e-07
1.23437e-07
1.23585e-07
1.23712e-07
1.23841e-07
1.2395e-07
1.24062e-07
1.24156e-07
1.24253e-07
1.24335e-07
1.24421e-07
1.24491e-07
1.24567e-07
1.24628e-07
1.24694e-07
1.24749e-07
1.24807e-07
1.24855e-07
1.24907e-07
1.24949e-07
1.24996e-07
1.25034e-07
1.25077e-07
1.25109e-07
1.25146e-07
1.25177e-07
1.25212e-07
1.25238e-07
1.25269e-07
1.25296e-07
1.25324e-07
1.25345e-07
1.25373e-07
1.25393e-07
1.25417e-07
1.25435e-07
1.25456e-07
1.25473e-07
1.25493e-07
1.25509e-07
1.25526e-07
1.25543e-07
1.2556e-07
1.25573e-07
1.25588e-07
1.25604e-07
1.25612e-07
1.25624e-07
1.2563e-07
1.25644e-07
1.25646e-07
1.25652e-07
1.25648e-07
1.25664e-07
1.25685e-07
1.25696e-07
1.25708e-07
1.25723e-07
1.25737e-07
1.2576e-07
1.25774e-07
1.25799e-07
1.2582e-07
1.25848e-07
1.25865e-07
1.2589e-07
1.25905e-07
1.25929e-07
1.25942e-07
1.25964e-07
1.25978e-07
1.25997e-07
1.26014e-07
1.26032e-07
1.26051e-07
1.2607e-07
1.26088e-07
1.26112e-07
1.26131e-07
1.26155e-07
1.26191e-07
1.27444e-07
1.31006e-07
1.70699e-08
1.2393e-07
1.22946e-07
1.22311e-07
1.22017e-07
1.2197e-07
1.2205e-07
1.22207e-07
1.22382e-07
1.22578e-07
1.2276e-07
1.22948e-07
1.23115e-07
1.23283e-07
1.23429e-07
1.23577e-07
1.23704e-07
1.23832e-07
1.23942e-07
1.24054e-07
1.24147e-07
1.24245e-07
1.24327e-07
1.24413e-07
1.24483e-07
1.24559e-07
1.2462e-07
1.24687e-07
1.24741e-07
1.24799e-07
1.24847e-07
1.249e-07
1.24941e-07
1.24989e-07
1.25027e-07
1.25069e-07
1.25101e-07
1.25139e-07
1.25169e-07
1.25204e-07
1.25231e-07
1.25262e-07
1.25288e-07
1.25317e-07
1.25337e-07
1.25366e-07
1.25386e-07
1.2541e-07
1.25428e-07
1.25449e-07
1.25466e-07
1.25486e-07
1.25502e-07
1.25519e-07
1.25536e-07
1.25553e-07
1.25566e-07
1.25581e-07
1.25597e-07
1.25605e-07
1.25617e-07
1.25623e-07
1.25637e-07
1.2564e-07
1.25646e-07
1.25642e-07
1.25657e-07
1.25678e-07
1.25689e-07
1.25701e-07
1.25716e-07
1.2573e-07
1.25753e-07
1.25767e-07
1.25792e-07
1.25813e-07
1.2584e-07
1.25858e-07
1.25883e-07
1.25898e-07
1.25921e-07
1.25935e-07
1.25957e-07
1.25971e-07
1.2599e-07
1.26007e-07
1.26025e-07
1.26044e-07
1.26063e-07
1.26081e-07
1.26105e-07
1.26124e-07
1.26147e-07
1.26184e-07
1.27457e-07
1.31007e-07
1.78309e-08
1.23931e-07
1.22946e-07
1.2231e-07
1.22014e-07
1.21965e-07
1.22044e-07
1.222e-07
1.22375e-07
1.22569e-07
1.22752e-07
1.22939e-07
1.23106e-07
1.23274e-07
1.2342e-07
1.23568e-07
1.23694e-07
1.23823e-07
1.23932e-07
1.24044e-07
1.24138e-07
1.24236e-07
1.24317e-07
1.24403e-07
1.24474e-07
1.2455e-07
1.24611e-07
1.24677e-07
1.24732e-07
1.2479e-07
1.24838e-07
1.24891e-07
1.24932e-07
1.2498e-07
1.25018e-07
1.2506e-07
1.25093e-07
1.2513e-07
1.25161e-07
1.25196e-07
1.25222e-07
1.25253e-07
1.2528e-07
1.25309e-07
1.25329e-07
1.25357e-07
1.25378e-07
1.25402e-07
1.2542e-07
1.2544e-07
1.25458e-07
1.25478e-07
1.25494e-07
1.25511e-07
1.25528e-07
1.25545e-07
1.25558e-07
1.25573e-07
1.25589e-07
1.25597e-07
1.25609e-07
1.25615e-07
1.25629e-07
1.25632e-07
1.25638e-07
1.25634e-07
1.25649e-07
1.2567e-07
1.25681e-07
1.25693e-07
1.25708e-07
1.25722e-07
1.25745e-07
1.25759e-07
1.25784e-07
1.25804e-07
1.25832e-07
1.25849e-07
1.25874e-07
1.2589e-07
1.25913e-07
1.25927e-07
1.25948e-07
1.25963e-07
1.25982e-07
1.25999e-07
1.26017e-07
1.26036e-07
1.26055e-07
1.26073e-07
1.26096e-07
1.26116e-07
1.26139e-07
1.26176e-07
1.27472e-07
1.31009e-07
1.86402e-08
1.23931e-07
1.22946e-07
1.22308e-07
1.2201e-07
1.2196e-07
1.22037e-07
1.22192e-07
1.22366e-07
1.2256e-07
1.22742e-07
1.22929e-07
1.23095e-07
1.23263e-07
1.2341e-07
1.23557e-07
1.23683e-07
1.23812e-07
1.23921e-07
1.24034e-07
1.24127e-07
1.24226e-07
1.24307e-07
1.24393e-07
1.24463e-07
1.24539e-07
1.24601e-07
1.24667e-07
1.24721e-07
1.2478e-07
1.24828e-07
1.24881e-07
1.24922e-07
1.2497e-07
1.25008e-07
1.25051e-07
1.25083e-07
1.25121e-07
1.25151e-07
1.25186e-07
1.25213e-07
1.25244e-07
1.2527e-07
1.25299e-07
1.25319e-07
1.25348e-07
1.25368e-07
1.25392e-07
1.25411e-07
1.25431e-07
1.25448e-07
1.25469e-07
1.25484e-07
1.25502e-07
1.25518e-07
1.25536e-07
1.25549e-07
1.25563e-07
1.2558e-07
1.25588e-07
1.256e-07
1.25606e-07
1.2562e-07
1.25623e-07
1.25629e-07
1.25625e-07
1.2564e-07
1.25661e-07
1.25672e-07
1.25684e-07
1.25699e-07
1.25713e-07
1.25735e-07
1.25749e-07
1.25774e-07
1.25795e-07
1.25823e-07
1.2584e-07
1.25865e-07
1.2588e-07
1.25904e-07
1.25917e-07
1.25939e-07
1.25953e-07
1.25973e-07
1.2599e-07
1.26008e-07
1.26027e-07
1.26045e-07
1.26064e-07
1.26087e-07
1.26106e-07
1.2613e-07
1.26167e-07
1.27491e-07
1.31011e-07
1.9498e-08
1.23931e-07
1.22946e-07
1.22307e-07
1.22007e-07
1.21954e-07
1.2203e-07
1.22183e-07
1.22356e-07
1.2255e-07
1.22731e-07
1.22918e-07
1.23084e-07
1.23252e-07
1.23398e-07
1.23545e-07
1.23672e-07
1.238e-07
1.2391e-07
1.24022e-07
1.24116e-07
1.24214e-07
1.24295e-07
1.24381e-07
1.24452e-07
1.24528e-07
1.24589e-07
1.24656e-07
1.2471e-07
1.24769e-07
1.24817e-07
1.2487e-07
1.24911e-07
1.24959e-07
1.24997e-07
1.2504e-07
1.25072e-07
1.2511e-07
1.2514e-07
1.25175e-07
1.25202e-07
1.25233e-07
1.2526e-07
1.25288e-07
1.25309e-07
1.25337e-07
1.25358e-07
1.25382e-07
1.254e-07
1.25421e-07
1.25438e-07
1.25458e-07
1.25474e-07
1.25492e-07
1.25508e-07
1.25525e-07
1.25539e-07
1.25553e-07
1.2557e-07
1.25578e-07
1.2559e-07
1.25596e-07
1.2561e-07
1.25613e-07
1.25619e-07
1.25616e-07
1.2563e-07
1.25651e-07
1.25662e-07
1.25674e-07
1.25689e-07
1.25703e-07
1.25725e-07
1.25739e-07
1.25764e-07
1.25784e-07
1.25812e-07
1.25829e-07
1.25854e-07
1.2587e-07
1.25893e-07
1.25907e-07
1.25929e-07
1.25943e-07
1.25963e-07
1.25979e-07
1.25998e-07
1.26017e-07
1.26035e-07
1.26054e-07
1.26077e-07
1.26096e-07
1.2612e-07
1.26158e-07
1.27513e-07
1.31014e-07
2.0403e-08
1.23932e-07
1.22946e-07
1.22305e-07
1.22003e-07
1.21948e-07
1.22022e-07
1.22173e-07
1.22346e-07
1.22538e-07
1.22719e-07
1.22905e-07
1.23071e-07
1.23239e-07
1.23385e-07
1.23532e-07
1.23658e-07
1.23787e-07
1.23896e-07
1.24009e-07
1.24102e-07
1.24201e-07
1.24282e-07
1.24368e-07
1.24439e-07
1.24515e-07
1.24577e-07
1.24643e-07
1.24697e-07
1.24756e-07
1.24804e-07
1.24857e-07
1.24898e-07
1.24946e-07
1.24984e-07
1.25027e-07
1.2506e-07
1.25098e-07
1.25128e-07
1.25163e-07
1.2519e-07
1.25221e-07
1.25248e-07
1.25277e-07
1.25297e-07
1.25325e-07
1.25346e-07
1.2537e-07
1.25389e-07
1.25409e-07
1.25426e-07
1.25447e-07
1.25463e-07
1.2548e-07
1.25497e-07
1.25514e-07
1.25527e-07
1.25542e-07
1.25558e-07
1.25567e-07
1.25579e-07
1.25585e-07
1.25599e-07
1.25602e-07
1.25608e-07
1.25605e-07
1.25619e-07
1.2564e-07
1.25651e-07
1.25663e-07
1.25677e-07
1.25691e-07
1.25714e-07
1.25728e-07
1.25752e-07
1.25773e-07
1.25801e-07
1.25818e-07
1.25843e-07
1.25858e-07
1.25882e-07
1.25896e-07
1.25918e-07
1.25932e-07
1.25951e-07
1.25968e-07
1.25987e-07
1.26005e-07
1.26024e-07
1.26043e-07
1.26066e-07
1.26085e-07
1.26108e-07
1.26147e-07
1.27537e-07
1.31016e-07
2.13544e-08
1.23932e-07
1.22946e-07
1.22304e-07
1.21998e-07
1.21941e-07
1.22012e-07
1.22163e-07
1.22334e-07
1.22525e-07
1.22706e-07
1.22891e-07
1.23057e-07
1.23224e-07
1.2337e-07
1.23518e-07
1.23644e-07
1.23773e-07
1.23882e-07
1.23994e-07
1.24088e-07
1.24186e-07
1.24268e-07
1.24354e-07
1.24425e-07
1.24501e-07
1.24562e-07
1.24629e-07
1.24683e-07
1.24742e-07
1.2479e-07
1.24843e-07
1.24885e-07
1.24933e-07
1.24971e-07
1.25014e-07
1.25046e-07
1.25084e-07
1.25115e-07
1.2515e-07
1.25177e-07
1.25208e-07
1.25235e-07
1.25264e-07
1.25284e-07
1.25313e-07
1.25333e-07
1.25358e-07
1.25376e-07
1.25396e-07
1.25414e-07
1.25434e-07
1.2545e-07
1.25468e-07
1.25484e-07
1.25502e-07
1.25515e-07
1.2553e-07
1.25546e-07
1.25554e-07
1.25567e-07
1.25573e-07
1.25587e-07
1.2559e-07
1.25596e-07
1.25593e-07
1.25606e-07
1.25628e-07
1.25639e-07
1.25651e-07
1.25665e-07
1.25679e-07
1.25701e-07
1.25715e-07
1.2574e-07
1.2576e-07
1.25788e-07
1.25805e-07
1.2583e-07
1.25845e-07
1.25869e-07
1.25883e-07
1.25905e-07
1.25919e-07
1.25939e-07
1.25956e-07
1.25974e-07
1.25993e-07
1.26012e-07
1.2603e-07
1.26054e-07
1.26073e-07
1.26096e-07
1.26135e-07
1.27566e-07
1.31019e-07
2.23547e-08
1.23932e-07
1.22947e-07
1.22302e-07
1.21993e-07
1.21933e-07
1.22003e-07
1.22151e-07
1.22321e-07
1.22511e-07
1.22691e-07
1.22876e-07
1.23041e-07
1.23209e-07
1.23354e-07
1.23502e-07
1.23628e-07
1.23757e-07
1.23866e-07
1.23978e-07
1.24072e-07
1.2417e-07
1.24252e-07
1.24338e-07
1.24409e-07
1.24485e-07
1.24547e-07
1.24614e-07
1.24668e-07
1.24727e-07
1.24775e-07
1.24828e-07
1.2487e-07
1.24918e-07
1.24956e-07
1.24999e-07
1.25032e-07
1.2507e-07
1.251e-07
1.25136e-07
1.25163e-07
1.25194e-07
1.2522e-07
1.2525e-07
1.2527e-07
1.25298e-07
1.25319e-07
1.25344e-07
1.25362e-07
1.25383e-07
1.254e-07
1.2542e-07
1.25436e-07
1.25454e-07
1.25471e-07
1.25488e-07
1.25501e-07
1.25516e-07
1.25533e-07
1.25541e-07
1.25554e-07
1.2556e-07
1.25573e-07
1.25577e-07
1.25583e-07
1.2558e-07
1.25593e-07
1.25615e-07
1.25625e-07
1.25638e-07
1.25651e-07
1.25666e-07
1.25687e-07
1.25701e-07
1.25726e-07
1.25746e-07
1.25774e-07
1.25791e-07
1.25816e-07
1.25832e-07
1.25856e-07
1.25869e-07
1.25892e-07
1.25906e-07
1.25926e-07
1.25942e-07
1.25961e-07
1.25979e-07
1.25998e-07
1.26017e-07
1.2604e-07
1.26059e-07
1.26082e-07
1.26122e-07
1.27597e-07
1.31021e-07
2.34071e-08
1.23933e-07
1.22947e-07
1.223e-07
1.21988e-07
1.21925e-07
1.21992e-07
1.22138e-07
1.22307e-07
1.22496e-07
1.22675e-07
1.2286e-07
1.23025e-07
1.23192e-07
1.23337e-07
1.23484e-07
1.2361e-07
1.23739e-07
1.23848e-07
1.23961e-07
1.24055e-07
1.24153e-07
1.24235e-07
1.24321e-07
1.24392e-07
1.24468e-07
1.2453e-07
1.24597e-07
1.24652e-07
1.24711e-07
1.24759e-07
1.24812e-07
1.24854e-07
1.24902e-07
1.2494e-07
1.24983e-07
1.25016e-07
1.25054e-07
1.25085e-07
1.2512e-07
1.25147e-07
1.25178e-07
1.25205e-07
1.25234e-07
1.25255e-07
1.25283e-07
1.25304e-07
1.25328e-07
1.25347e-07
1.25368e-07
1.25385e-07
1.25405e-07
1.25421e-07
1.25439e-07
1.25456e-07
1.25473e-07
1.25487e-07
1.25501e-07
1.25518e-07
1.25527e-07
1.25539e-07
1.25545e-07
1.25559e-07
1.25563e-07
1.25569e-07
1.25567e-07
1.25579e-07
1.256e-07
1.25611e-07
1.25623e-07
1.25637e-07
1.25651e-07
1.25673e-07
1.25686e-07
1.25711e-07
1.25731e-07
1.25759e-07
1.25776e-07
1.25801e-07
1.25816e-07
1.25841e-07
1.25854e-07
1.25877e-07
1.25891e-07
1.25911e-07
1.25927e-07
1.25946e-07
1.25965e-07
1.25984e-07
1.26002e-07
1.26026e-07
1.26044e-07
1.26067e-07
1.26108e-07
1.27633e-07
1.31024e-07
2.45148e-08
1.23933e-07
1.22947e-07
1.22298e-07
1.21983e-07
1.21916e-07
1.2198e-07
1.22125e-07
1.22291e-07
1.2248e-07
1.22658e-07
1.22842e-07
1.23006e-07
1.23173e-07
1.23318e-07
1.23466e-07
1.23591e-07
1.2372e-07
1.23829e-07
1.23942e-07
1.24036e-07
1.24135e-07
1.24216e-07
1.24303e-07
1.24374e-07
1.2445e-07
1.24512e-07
1.24579e-07
1.24634e-07
1.24693e-07
1.24741e-07
1.24795e-07
1.24836e-07
1.24885e-07
1.24923e-07
1.24966e-07
1.24999e-07
1.25037e-07
1.25067e-07
1.25103e-07
1.2513e-07
1.25161e-07
1.25188e-07
1.25217e-07
1.25238e-07
1.25267e-07
1.25288e-07
1.25312e-07
1.25331e-07
1.25351e-07
1.25369e-07
1.25389e-07
1.25405e-07
1.25423e-07
1.2544e-07
1.25457e-07
1.25471e-07
1.25486e-07
1.25502e-07
1.25511e-07
1.25524e-07
1.2553e-07
1.25543e-07
1.25547e-07
1.25554e-07
1.25551e-07
1.25563e-07
1.25585e-07
1.25596e-07
1.25608e-07
1.25621e-07
1.25635e-07
1.25656e-07
1.2567e-07
1.25695e-07
1.25715e-07
1.25742e-07
1.25759e-07
1.25784e-07
1.258e-07
1.25824e-07
1.25838e-07
1.25861e-07
1.25875e-07
1.25895e-07
1.25911e-07
1.25931e-07
1.25949e-07
1.25968e-07
1.25986e-07
1.2601e-07
1.26028e-07
1.26051e-07
1.26093e-07
1.27672e-07
1.31025e-07
2.56811e-08
1.23934e-07
1.22947e-07
1.22295e-07
1.21977e-07
1.21907e-07
1.21968e-07
1.2211e-07
1.22275e-07
1.22462e-07
1.22639e-07
1.22823e-07
1.22987e-07
1.23153e-07
1.23298e-07
1.23445e-07
1.23571e-07
1.237e-07
1.23809e-07
1.23922e-07
1.24016e-07
1.24115e-07
1.24196e-07
1.24283e-07
1.24354e-07
1.2443e-07
1.24493e-07
1.2456e-07
1.24614e-07
1.24674e-07
1.24722e-07
1.24776e-07
1.24817e-07
1.24866e-07
1.24904e-07
1.24947e-07
1.2498e-07
1.25019e-07
1.25049e-07
1.25085e-07
1.25112e-07
1.25143e-07
1.2517e-07
1.252e-07
1.2522e-07
1.25249e-07
1.2527e-07
1.25294e-07
1.25313e-07
1.25334e-07
1.25351e-07
1.25372e-07
1.25388e-07
1.25406e-07
1.25422e-07
1.2544e-07
1.25454e-07
1.25468e-07
1.25485e-07
1.25494e-07
1.25507e-07
1.25513e-07
1.25527e-07
1.25531e-07
1.25537e-07
1.25535e-07
1.25547e-07
1.25568e-07
1.25579e-07
1.25591e-07
1.25604e-07
1.25618e-07
1.25639e-07
1.25653e-07
1.25678e-07
1.25697e-07
1.25725e-07
1.25742e-07
1.25766e-07
1.25782e-07
1.25807e-07
1.25821e-07
1.25844e-07
1.25858e-07
1.25878e-07
1.25894e-07
1.25914e-07
1.25932e-07
1.25951e-07
1.25969e-07
1.25993e-07
1.26011e-07
1.26034e-07
1.26076e-07
1.27715e-07
1.31025e-07
2.69096e-08
1.23934e-07
1.22948e-07
1.22293e-07
1.2197e-07
1.21896e-07
1.21954e-07
1.22094e-07
1.22257e-07
1.22443e-07
1.2262e-07
1.22802e-07
1.22966e-07
1.23132e-07
1.23277e-07
1.23424e-07
1.23549e-07
1.23678e-07
1.23787e-07
1.239e-07
1.23994e-07
1.24093e-07
1.24175e-07
1.24262e-07
1.24333e-07
1.24409e-07
1.24472e-07
1.24539e-07
1.24594e-07
1.24653e-07
1.24701e-07
1.24755e-07
1.24797e-07
1.24846e-07
1.24884e-07
1.24927e-07
1.2496e-07
1.24999e-07
1.25029e-07
1.25065e-07
1.25092e-07
1.25124e-07
1.25151e-07
1.2518e-07
1.25201e-07
1.2523e-07
1.25251e-07
1.25275e-07
1.25294e-07
1.25315e-07
1.25333e-07
1.25353e-07
1.25369e-07
1.25387e-07
1.25404e-07
1.25422e-07
1.25435e-07
1.2545e-07
1.25467e-07
1.25476e-07
1.25489e-07
1.25495e-07
1.25509e-07
1.25513e-07
1.2552e-07
1.25518e-07
1.25529e-07
1.2555e-07
1.25561e-07
1.25573e-07
1.25586e-07
1.256e-07
1.2562e-07
1.25635e-07
1.25659e-07
1.25678e-07
1.25706e-07
1.25723e-07
1.25748e-07
1.25763e-07
1.25788e-07
1.25802e-07
1.25825e-07
1.25839e-07
1.2586e-07
1.25876e-07
1.25895e-07
1.25913e-07
1.25932e-07
1.25951e-07
1.25975e-07
1.25993e-07
1.26016e-07
1.26059e-07
1.27762e-07
1.31024e-07
2.82041e-08
1.23935e-07
1.22948e-07
1.2229e-07
1.21964e-07
1.21886e-07
1.2194e-07
1.22077e-07
1.22239e-07
1.22423e-07
1.22598e-07
1.2278e-07
1.22943e-07
1.23109e-07
1.23254e-07
1.23401e-07
1.23526e-07
1.23655e-07
1.23764e-07
1.23877e-07
1.23971e-07
1.2407e-07
1.24152e-07
1.24239e-07
1.2431e-07
1.24387e-07
1.24449e-07
1.24516e-07
1.24571e-07
1.24631e-07
1.24679e-07
1.24733e-07
1.24775e-07
1.24824e-07
1.24862e-07
1.24906e-07
1.24939e-07
1.24978e-07
1.25008e-07
1.25044e-07
1.25072e-07
1.25103e-07
1.2513e-07
1.2516e-07
1.25181e-07
1.25209e-07
1.2523e-07
1.25255e-07
1.25274e-07
1.25295e-07
1.25312e-07
1.25333e-07
1.25349e-07
1.25367e-07
1.25384e-07
1.25402e-07
1.25416e-07
1.2543e-07
1.25447e-07
1.25456e-07
1.25469e-07
1.25476e-07
1.25489e-07
1.25494e-07
1.25501e-07
1.25499e-07
1.2551e-07
1.25531e-07
1.25542e-07
1.25554e-07
1.25566e-07
1.25581e-07
1.25601e-07
1.25615e-07
1.25639e-07
1.25658e-07
1.25686e-07
1.25702e-07
1.25727e-07
1.25743e-07
1.25768e-07
1.25782e-07
1.25806e-07
1.25819e-07
1.2584e-07
1.25856e-07
1.25876e-07
1.25894e-07
1.25913e-07
1.25931e-07
1.25955e-07
1.25973e-07
1.25996e-07
1.26041e-07
1.27813e-07
1.3102e-07
2.95684e-08
1.23935e-07
1.22948e-07
1.22288e-07
1.21956e-07
1.21874e-07
1.21925e-07
1.22059e-07
1.22219e-07
1.22402e-07
1.22576e-07
1.22757e-07
1.22919e-07
1.23085e-07
1.23229e-07
1.23376e-07
1.23501e-07
1.2363e-07
1.23739e-07
1.23852e-07
1.23946e-07
1.24045e-07
1.24127e-07
1.24214e-07
1.24286e-07
1.24363e-07
1.24425e-07
1.24493e-07
1.24548e-07
1.24608e-07
1.24656e-07
1.2471e-07
1.24752e-07
1.24801e-07
1.24839e-07
1.24883e-07
1.24916e-07
1.24955e-07
1.24986e-07
1.25022e-07
1.25049e-07
1.25081e-07
1.25108e-07
1.25138e-07
1.25159e-07
1.25187e-07
1.25209e-07
1.25234e-07
1.25252e-07
1.25273e-07
1.25291e-07
1.25312e-07
1.25328e-07
1.25346e-07
1.25363e-07
1.25381e-07
1.25395e-07
1.25409e-07
1.25426e-07
1.25435e-07
1.25449e-07
1.25455e-07
1.25469e-07
1.25473e-07
1.25481e-07
1.25479e-07
1.2549e-07
1.25511e-07
1.25521e-07
1.25533e-07
1.25546e-07
1.2556e-07
1.25579e-07
1.25594e-07
1.25618e-07
1.25637e-07
1.25664e-07
1.25681e-07
1.25706e-07
1.25721e-07
1.25746e-07
1.25761e-07
1.25784e-07
1.25798e-07
1.25819e-07
1.25835e-07
1.25855e-07
1.25873e-07
1.25892e-07
1.2591e-07
1.25934e-07
1.25952e-07
1.25975e-07
1.26021e-07
1.27868e-07
1.29127e-07
3.10064e-08
1.23936e-07
1.22949e-07
1.22285e-07
1.21949e-07
1.21862e-07
1.21909e-07
1.22041e-07
1.22197e-07
1.22379e-07
1.22552e-07
1.22732e-07
1.22894e-07
1.23059e-07
1.23203e-07
1.23349e-07
1.23475e-07
1.23604e-07
1.23713e-07
1.23826e-07
1.2392e-07
1.24019e-07
1.24101e-07
1.24188e-07
1.2426e-07
1.24337e-07
1.24399e-07
1.24467e-07
1.24522e-07
1.24582e-07
1.24631e-07
1.24685e-07
1.24727e-07
1.24776e-07
1.24815e-07
1.24859e-07
1.24892e-07
1.24931e-07
1.24962e-07
1.24998e-07
1.25026e-07
1.25057e-07
1.25084e-07
1.25114e-07
1.25135e-07
1.25164e-07
1.25185e-07
1.2521e-07
1.25229e-07
1.25251e-07
1.25268e-07
1.25289e-07
1.25306e-07
1.25324e-07
1.2534e-07
1.25358e-07
1.25372e-07
1.25387e-07
1.25404e-07
1.25413e-07
1.25427e-07
1.25433e-07
1.25447e-07
1.25452e-07
1.25459e-07
1.25458e-07
1.25468e-07
1.25489e-07
1.255e-07
1.25512e-07
1.25524e-07
1.25538e-07
1.25557e-07
1.25571e-07
1.25595e-07
1.25614e-07
1.25641e-07
1.25658e-07
1.25683e-07
1.25698e-07
1.25723e-07
1.25738e-07
1.25762e-07
1.25776e-07
1.25797e-07
1.25813e-07
1.25833e-07
1.2585e-07
1.2587e-07
1.25888e-07
1.25912e-07
1.2593e-07
1.25952e-07
1.26e-07
1.27927e-07
1.22934e-07
3.2522e-08
1.23937e-07
1.22949e-07
1.22282e-07
1.21941e-07
1.21849e-07
1.21892e-07
1.22021e-07
1.22175e-07
1.22355e-07
1.22526e-07
1.22706e-07
1.22867e-07
1.23032e-07
1.23175e-07
1.23322e-07
1.23447e-07
1.23576e-07
1.23685e-07
1.23798e-07
1.23892e-07
1.23991e-07
1.24073e-07
1.24161e-07
1.24232e-07
1.2431e-07
1.24372e-07
1.2444e-07
1.24495e-07
1.24556e-07
1.24604e-07
1.24659e-07
1.24701e-07
1.2475e-07
1.24789e-07
1.24833e-07
1.24867e-07
1.24906e-07
1.24936e-07
1.24973e-07
1.25e-07
1.25032e-07
1.25059e-07
1.25089e-07
1.25111e-07
1.2514e-07
1.25161e-07
1.25186e-07
1.25205e-07
1.25226e-07
1.25244e-07
1.25265e-07
1.25282e-07
1.253e-07
1.25317e-07
1.25334e-07
1.25349e-07
1.25363e-07
1.25381e-07
1.2539e-07
1.25403e-07
1.2541e-07
1.25424e-07
1.25429e-07
1.25436e-07
1.25435e-07
1.25445e-07
1.25466e-07
1.25477e-07
1.25488e-07
1.255e-07
1.25514e-07
1.25533e-07
1.25548e-07
1.25571e-07
1.2559e-07
1.25617e-07
1.25634e-07
1.25658e-07
1.25674e-07
1.25699e-07
1.25714e-07
1.25738e-07
1.25752e-07
1.25773e-07
1.25789e-07
1.25809e-07
1.25827e-07
1.25846e-07
1.25865e-07
1.25889e-07
1.25906e-07
1.25928e-07
1.25977e-07
1.27989e-07
1.17385e-07
3.41188e-08
1.23937e-07
1.22949e-07
1.22279e-07
1.21933e-07
1.21836e-07
1.21875e-07
1.22e-07
1.22152e-07
1.2233e-07
1.225e-07
1.22678e-07
1.22838e-07
1.23003e-07
1.23146e-07
1.23292e-07
1.23417e-07
1.23546e-07
1.23655e-07
1.23768e-07
1.23862e-07
1.23962e-07
1.24044e-07
1.24132e-07
1.24203e-07
1.24281e-07
1.24344e-07
1.24412e-07
1.24467e-07
1.24528e-07
1.24576e-07
1.24631e-07
1.24673e-07
1.24723e-07
1.24762e-07
1.24806e-07
1.24839e-07
1.24878e-07
1.2491e-07
1.24946e-07
1.24974e-07
1.25006e-07
1.25033e-07
1.25063e-07
1.25084e-07
1.25113e-07
1.25135e-07
1.2516e-07
1.25179e-07
1.25201e-07
1.25218e-07
1.25239e-07
1.25256e-07
1.25274e-07
1.25291e-07
1.25309e-07
1.25324e-07
1.25338e-07
1.25355e-07
1.25365e-07
1.25379e-07
1.25385e-07
1.25399e-07
1.25404e-07
1.25412e-07
1.25411e-07
1.25421e-07
1.25441e-07
1.25452e-07
1.25464e-07
1.25476e-07
1.2549e-07
1.25508e-07
1.25522e-07
1.25546e-07
1.25564e-07
1.25591e-07
1.25608e-07
1.25633e-07
1.25648e-07
1.25673e-07
1.25689e-07
1.25712e-07
1.25726e-07
1.25748e-07
1.25763e-07
1.25785e-07
1.25802e-07
1.25821e-07
1.25839e-07
1.25864e-07
1.25881e-07
1.25903e-07
1.25954e-07
1.28055e-07
1.12419e-07
3.58004e-08
1.23938e-07
1.2295e-07
1.22276e-07
1.21924e-07
1.21822e-07
1.21856e-07
1.21978e-07
1.22127e-07
1.22303e-07
1.22471e-07
1.22649e-07
1.22808e-07
1.22972e-07
1.23115e-07
1.23261e-07
1.23386e-07
1.23515e-07
1.23624e-07
1.23737e-07
1.23831e-07
1.23931e-07
1.24013e-07
1.24101e-07
1.24173e-07
1.2425e-07
1.24313e-07
1.24382e-07
1.24437e-07
1.24498e-07
1.24547e-07
1.24601e-07
1.24644e-07
1.24693e-07
1.24732e-07
1.24777e-07
1.24811e-07
1.2485e-07
1.24881e-07
1.24918e-07
1.24945e-07
1.24978e-07
1.25005e-07
1.25035e-07
1.25057e-07
1.25086e-07
1.25107e-07
1.25133e-07
1.25152e-07
1.25173e-07
1.25191e-07
1.25212e-07
1.25229e-07
1.25247e-07
1.25264e-07
1.25282e-07
1.25297e-07
1.25312e-07
1.25329e-07
1.25339e-07
1.25352e-07
1.25359e-07
1.25373e-07
1.25379e-07
1.25386e-07
1.25386e-07
1.25395e-07
1.25416e-07
1.25427e-07
1.25438e-07
1.2545e-07
1.25464e-07
1.25481e-07
1.25496e-07
1.25519e-07
1.25537e-07
1.25564e-07
1.2558e-07
1.25605e-07
1.25621e-07
1.25646e-07
1.25662e-07
1.25685e-07
1.25699e-07
1.25722e-07
1.25737e-07
1.25758e-07
1.25775e-07
1.25795e-07
1.25813e-07
1.25838e-07
1.25854e-07
1.25876e-07
1.25929e-07
1.28122e-07
1.07976e-07
3.75695e-08
1.23939e-07
1.2295e-07
1.22273e-07
1.21916e-07
1.21808e-07
1.21837e-07
1.21954e-07
1.22101e-07
1.22275e-07
1.22442e-07
1.22618e-07
1.22777e-07
1.2294e-07
1.23082e-07
1.23228e-07
1.23353e-07
1.23482e-07
1.2359e-07
1.23704e-07
1.23798e-07
1.23898e-07
1.2398e-07
1.24068e-07
1.2414e-07
1.24218e-07
1.24281e-07
1.2435e-07
1.24405e-07
1.24466e-07
1.24515e-07
1.2457e-07
1.24613e-07
1.24663e-07
1.24702e-07
1.24746e-07
1.2478e-07
1.2482e-07
1.24851e-07
1.24888e-07
1.24916e-07
1.24948e-07
1.24975e-07
1.25006e-07
1.25027e-07
1.25056e-07
1.25078e-07
1.25104e-07
1.25123e-07
1.25145e-07
1.25163e-07
1.25184e-07
1.25201e-07
1.25219e-07
1.25236e-07
1.25254e-07
1.25269e-07
1.25284e-07
1.25301e-07
1.25311e-07
1.25325e-07
1.25332e-07
1.25346e-07
1.25351e-07
1.25359e-07
1.25359e-07
1.25368e-07
1.25388e-07
1.25399e-07
1.25411e-07
1.25422e-07
1.25436e-07
1.25453e-07
1.25468e-07
1.25491e-07
1.25509e-07
1.25535e-07
1.25552e-07
1.25577e-07
1.25592e-07
1.25617e-07
1.25633e-07
1.25657e-07
1.25671e-07
1.25694e-07
1.25709e-07
1.2573e-07
1.25747e-07
1.25767e-07
1.25785e-07
1.2581e-07
1.25826e-07
1.25848e-07
1.25903e-07
1.28189e-07
1.04004e-07
3.94283e-08
1.23939e-07
1.22951e-07
1.2227e-07
1.21906e-07
1.21793e-07
1.21816e-07
1.2193e-07
1.22073e-07
1.22245e-07
1.2241e-07
1.22586e-07
1.22743e-07
1.22906e-07
1.23048e-07
1.23193e-07
1.23318e-07
1.23447e-07
1.23556e-07
1.23669e-07
1.23763e-07
1.23863e-07
1.23946e-07
1.24034e-07
1.24106e-07
1.24184e-07
1.24247e-07
1.24316e-07
1.24372e-07
1.24433e-07
1.24482e-07
1.24537e-07
1.2458e-07
1.2463e-07
1.24669e-07
1.24714e-07
1.24748e-07
1.24788e-07
1.24819e-07
1.24856e-07
1.24884e-07
1.24917e-07
1.24944e-07
1.24975e-07
1.24996e-07
1.25026e-07
1.25047e-07
1.25073e-07
1.25092e-07
1.25114e-07
1.25132e-07