/*--------------------------------*- C++ -*----------------------------------*\
| =========                 |                                                 |
| \\      /  F ield         | OpenFOAM: The Open Source CFD Toolbox           |
|  \\    /   O peration     | Version:  v2012                                 |
|   \\  /    A nd           | Website:  www.openfoam.com                      |
|    \\/     M anipulation  |                                                 |
\*---------------------------------------------------------------------------*/
FoamFile
{
    version     2.0;
    format      ascii;
    class       volScalarField;
    location    "34.5";
    object      omega;
}
// * * * * * * * * * * * * * * * * * * * * * * * * * * * * * * * * * * * * * //

dimensions      [0 0 -1 0 0 0 0];


internalField   nonuniform List<scalar> 
209825
(
8260.8
7564.53
7001.37
6560.89
6220.88
5958.14
5752.12
5588.49
5455.92
5347.47
5257
5181.27
5116.58
5061.51
5013.54
4972.19
4935.57
4903.72
4875.1
4850.05
4827.23
4807.2
4788.7
4772.43
4757.22
4743.88
4731.22
4720.13
4709.49
4700.21
4691.18
4683.36
4675.63
4668.99
4662.33
4656.68
4650.94
4646.09
4641.07
4636.91
4632.58
4628.94
4625.14
4622.05
4618.7
4615.99
4613.03
4610.68
4608.14
4606.09
4603.91
4602.2
4600.27
4598.65
4597.04
4595.64
4594.2
4592.96
4591.74
4590.79
4589.81
4588.93
4588.08
4587.46
4586.66
4586.08
4585.41
4585.04
4584.52
4584.25
4583.75
4583.51
4583.03
4582.81
4582.35
4582.18
4581.85
4581.78
4581.63
4581.73
4581.71
4581.97
4581.97
4582.45
4582.45
4583.16
4583.16
4584.03
4584.1
4585.12
4585.18
4586.51
4587.12
4618.2
4734.82
113407
8260.8
7564.53
7001.37
6560.88
6220.86
5958.1
5752.07
5588.43
5455.85
5347.39
5256.92
5181.18
5116.49
5061.41
5013.43
4972.08
4935.45
4903.61
4874.98
4849.93
4827.1
4807.08
4788.57
4772.3
4757.09
4743.74
4731.09
4719.99
4709.35
4700.07
4691.04
4683.22
4675.49
4668.85
4662.19
4656.54
4650.79
4645.94
4640.93
4636.76
4632.43
4628.79
4624.99
4621.9
4618.55
4615.84
4612.88
4610.53
4607.99
4605.94
4603.76
4602.05
4600.12
4598.5
4596.89
4595.49
4594.05
4592.81
4591.59
4590.63
4589.66
4588.78
4587.93
4587.31
4586.5
4585.93
4585.25
4584.89
4584.36
4584.1
4583.6
4583.35
4582.88
4582.65
4582.19
4582.03
4581.69
4581.63
4581.47
4581.57
4581.56
4581.81
4581.81
4582.3
4582.3
4583
4583
4583.87
4583.95
4584.96
4585.02
4586.35
4586.96
4618.1
4734.7
110109
8260.8
7564.54
7001.37
6560.84
6220.78
5957.98
5751.9
5588.23
5455.61
5347.13
5256.63
5180.87
5116.16
5061.06
5013.07
4971.71
4935.07
4903.22
4874.58
4849.52
4826.69
4806.65
4788.14
4771.87
4756.65
4743.3
4730.64
4719.54
4708.89
4699.62
4690.58
4682.75
4675.02
4668.38
4661.72
4656.07
4650.32
4645.46
4640.45
4636.28
4631.95
4628.31
4624.5
4621.41
4618.06
4615.35
4612.39
4610.03
4607.49
4605.45
4603.27
4601.55
4599.62
4598
4596.39
4594.99
4593.55
4592.31
4591.08
4590.13
4589.15
4588.28
4587.42
4586.8
4586
4585.42
4584.74
4584.38
4583.85
4583.59
4583.09
4582.84
4582.37
4582.14
4581.69
4581.52
4581.18
4581.12
4580.96
4581.06
4581.04
4581.3
4581.3
4581.78
4581.78
4582.48
4582.48
4583.35
4583.43
4584.44
4584.5
4585.83
4586.44
4617.69
4734.25
106323
8260.81
7564.56
7001.36
6560.78
6220.63
5957.76
5751.61
5587.87
5455.21
5346.67
5256.13
5180.34
5115.6
5060.47
5012.46
4971.07
4934.42
4902.54
4873.89
4848.82
4825.97
4805.93
4787.41
4771.13
4755.9
4742.54
4729.87
4718.77
4708.11
4698.83
4689.79
4681.96
4674.22
4667.57
4660.91
4655.26
4649.5
4644.65
4639.63
4635.46
4631.12
4627.48
4623.67
4620.58
4617.22
4614.51
4611.55
4609.19
4606.65
4604.6
4602.42
4600.71
4598.77
4597.15
4595.54
4594.13
4592.7
4591.45
4590.23
4589.27
4588.29
4587.41
4586.56
4585.94
4585.13
4584.56
4583.88
4583.51
4582.98
4582.72
4582.22
4581.97
4581.5
4581.27
4580.81
4580.64
4580.31
4580.24
4580.09
4580.18
4580.16
4580.42
4580.42
4580.9
4580.9
4581.6
4581.6
4582.46
4582.54
4583.55
4583.61
4584.94
4585.55
4616.98
4733.46
102431
8260.81
7564.58
7001.35
6560.68
6220.43
5957.45
5751.2
5587.37
5454.62
5346.02
5255.42
5179.58
5114.79
5059.63
5011.58
4970.17
4933.48
4901.59
4872.91
4847.82
4824.96
4804.9
4786.36
4770.07
4754.83
4741.46
4728.78
4717.67
4707
4697.71
4688.66
4680.82
4673.08
4666.43
4659.76
4654.1
4648.34
4643.48
4638.46
4634.28
4629.94
4626.3
4622.48
4619.39
4616.03
4613.32
4610.35
4607.99
4605.45
4603.39
4601.21
4599.49
4597.56
4595.93
4594.32
4592.91
4591.48
4590.23
4589
4588.05
4587.06
4586.19
4585.33
4584.71
4583.9
4583.33
4582.64
4582.27
4581.75
4581.48
4580.98
4580.73
4580.26
4580.03
4579.57
4579.4
4579.07
4579
4578.84
4578.93
4578.91
4579.16
4579.16
4579.64
4579.64
4580.34
4580.34
4581.2
4581.28
4582.29
4582.35
4583.67
4584.29
4615.95
4732.33
98535.1
8260.82
7564.61
7001.33
6560.56
6220.17
5957.04
5750.66
5586.71
5453.86
5345.18
5254.5
5178.59
5113.74
5058.53
5010.44
4968.98
4932.26
4900.34
4871.63
4846.52
4823.63
4803.55
4785
4768.68
4753.43
4740.04
4727.36
4716.23
4705.55
4696.25
4687.19
4679.34
4671.6
4664.93
4658.26
4652.59
4646.82
4641.96
4636.93
4632.75
4628.4
4624.75
4620.94
4617.84
4614.47
4611.76
4608.79
4606.42
4603.88
4601.82
4599.64
4597.92
4595.98
4594.35
4592.73
4591.32
4589.88
4588.63
4587.41
4586.45
4585.46
4584.58
4583.73
4583.1
4582.29
4581.72
4581.03
4580.66
4580.13
4579.86
4579.36
4579.12
4578.64
4578.41
4577.95
4577.78
4577.44
4577.38
4577.21
4577.3
4577.28
4577.53
4577.53
4578
4578
4578.69
4578.69
4579.55
4579.63
4580.64
4580.69
4582.02
4582.64
4614.62
4730.86
94676.9
8260.83
7564.64
7001.31
6560.4
6219.84
5956.53
5749.99
5585.9
5452.92
5344.13
5253.35
5177.36
5112.45
5057.17
5009.02
4967.52
4930.76
4898.79
4870.05
4844.91
4821.99
4801.88
4783.31
4766.97
4751.7
4738.3
4725.59
4714.45
4703.76
4694.45
4685.37
4677.51
4669.76
4663.08
4656.4
4650.72
4644.95
4640.07
4635.04
4630.85
4626.5
4622.84
4619.02
4615.92
4612.55
4609.83
4606.85
4604.49
4601.93
4599.87
4597.68
4595.96
4594.02
4592.39
4590.77
4589.36
4587.91
4586.66
4585.43
4584.47
4583.48
4582.6
4581.74
4581.11
4580.3
4579.72
4579.04
4578.66
4578.13
4577.86
4577.36
4577.11
4576.64
4576.4
4575.95
4575.77
4575.43
4575.36
4575.19
4575.28
4575.26
4575.5
4575.5
4575.97
4575.97
4576.66
4576.66
4577.52
4577.59
4578.59
4578.65
4579.97
4580.59
4612.96
4729.04
90874.8
8260.84
7564.69
7001.29
6560.22
6219.45
5955.93
5749.19
5584.93
5451.8
5342.87
5251.99
5175.9
5110.89
5055.54
5007.33
4965.77
4928.95
4896.94
4868.16
4842.98
4820.03
4799.89
4781.28
4764.93
4749.63
4736.21
4723.48
4712.32
4701.61
4692.28
4683.2
4675.33
4667.55
4660.87
4654.17
4648.49
4642.7
4637.82
4632.78
4628.58
4624.22
4620.56
4616.73
4613.62
4610.25
4607.52
4604.54
4602.17
4599.61
4597.54
4595.35
4593.62
4591.68
4590.04
4588.42
4587
4585.56
4584.3
4583.07
4582.1
4581.11
4580.23
4579.36
4578.74
4577.92
4577.34
4576.65
4576.28
4575.74
4575.47
4574.97
4574.72
4574.24
4574.01
4573.55
4573.37
4573.03
4572.96
4572.78
4572.87
4572.84
4573.08
4573.08
4573.54
4573.54
4574.22
4574.22
4575.08
4575.14
4576.15
4576.2
4577.52
4578.15
4610.99
4726.88
87137.8
8260.85
7564.74
7001.26
6560.01
6219
5955.23
5748.27
5583.8
5450.49
5341.41
5250.4
5174.19
5109.09
5053.65
5005.36
4963.73
4926.85
4894.78
4865.95
4840.73
4817.74
4797.57
4778.93
4762.54
4747.21
4733.77
4721.02
4709.84
4699.11
4689.76
4680.66
4672.77
4664.98
4658.29
4651.58
4645.88
4640.08
4635.19
4630.14
4625.94
4621.56
4617.89
4614.06
4610.94
4607.56
4604.83
4601.84
4599.46
4596.89
4594.82
4592.62
4590.89
4588.94
4587.3
4585.67
4584.26
4582.81
4581.55
4580.31
4579.34
4578.34
4577.46
4576.59
4575.96
4575.14
4574.56
4573.86
4573.49
4572.95
4572.68
4572.17
4571.92
4571.44
4571.21
4570.74
4570.57
4570.23
4570.15
4569.97
4570.05
4570.02
4570.25
4570.25
4570.7
4570.7
4571.38
4571.38
4572.23
4572.29
4573.29
4573.34
4574.66
4575.3
4608.69
4724.37
83468.5
8260.86
7564.79
7001.23
6559.76
6218.48
5954.44
5747.21
5582.51
5449
5339.74
5248.57
5172.24
5107.02
5051.48
5003.1
4961.39
4924.44
4892.31
4863.43
4838.16
4815.12
4794.9
4776.22
4759.8
4744.45
4730.97
4718.19
4706.99
4696.24
4686.87
4677.75
4669.84
4662.04
4655.33
4648.6
4642.89
4637.08
4632.18
4627.11
4622.9
4618.52
4614.84
4610.99
4607.86
4604.48
4601.74
4598.74
4596.36
4593.78
4591.71
4589.5
4587.76
4585.81
4584.16
4582.53
4581.11
4579.65
4578.39
4577.14
4576.17
4575.17
4574.28
4573.41
4572.78
4571.95
4571.37
4570.67
4570.29
4569.75
4569.47
4568.97
4568.71
4568.23
4568
4567.53
4567.35
4567.01
4566.93
4566.74
4566.82
4566.78
4567.01
4567.01
4567.45
4567.45
4568.12
4568.12
4568.96
4569.03
4570.02
4570.07
4571.39
4572.03
4606.06
4721.51
79865.1
8260.87
7564.86
7001.2
6559.49
6217.9
5953.54
5746.02
5581.05
5447.32
5337.86
5246.52
5170.03
5104.68
5049.03
5000.55
4958.75
4921.73
4889.52
4860.57
4835.25
4812.16
4791.9
4773.17
4756.71
4741.32
4727.81
4715.01
4703.77
4693
4683.61
4674.46
4666.54
4658.71
4651.98
4645.24
4639.52
4633.69
4628.78
4623.7
4619.47
4615.08
4611.39
4607.53
4604.39
4600.99
4598.25
4595.24
4592.85
4590.27
4588.19
4585.97
4584.23
4582.27
4580.62
4578.98
4577.55
4576.09
4574.82
4573.57
4572.59
4571.59
4570.7
4569.81
4569.18
4568.35
4567.77
4567.06
4566.68
4566.13
4565.86
4565.34
4565.09
4564.61
4564.37
4563.9
4563.72
4563.38
4563.29
4563.1
4563.17
4563.13
4563.34
4563.34
4563.78
4563.78
4564.44
4564.44
4565.27
4565.33
4566.32
4566.37
4567.68
4568.33
4603.1
4718.3
76322
8260.89
7564.93
7001.17
6559.19
6217.26
5952.54
5744.69
5579.44
5445.44
5335.77
5244.23
5167.58
5102.08
5046.3
4997.7
4955.81
4918.69
4886.41
4857.39
4832
4808.85
4788.54
4769.77
4753.27
4737.83
4724.29
4711.45
4700.19
4689.38
4679.96
4670.79
4662.84
4655
4648.25
4641.49
4635.75
4629.9
4624.97
4619.88
4615.64
4611.23
4607.53
4603.66
4600.51
4597.1
4594.35
4591.34
4588.93
4586.34
4584.25
4582.03
4580.28
4578.31
4576.66
4575.01
4573.57
4572.11
4570.83
4569.58
4568.59
4567.58
4566.69
4565.8
4565.16
4564.33
4563.74
4563.03
4562.64
4562.09
4561.81
4561.3
4561.04
4560.55
4560.32
4559.85
4559.66
4559.32
4559.23
4559.03
4559.09
4559.04
4559.25
4559.25
4559.67
4559.67
4560.32
4560.32
4561.15
4561.21
4562.19
4562.23
4563.55
4564.21
4599.8
4714.73
72834.7
8260.9
7565.01
7001.13
6558.87
6216.55
5951.45
5743.23
5577.65
5443.37
5333.45
5241.7
5164.86
5099.2
5043.28
4994.56
4952.55
4915.34
4882.97
4853.87
4828.41
4805.19
4784.83
4766
4749.45
4733.97
4720.39
4707.51
4696.21
4685.38
4675.93
4666.73
4658.76
4650.89
4644.12
4637.33
4631.57
4625.71
4620.77
4615.65
4611.4
4606.98
4603.27
4599.38
4596.22
4592.8
4590.03
4587.01
4584.6
4582
4579.9
4577.67
4575.91
4573.93
4572.27
4570.61
4569.18
4567.7
4566.42
4565.16
4564.17
4563.15
4562.25
4561.36
4560.71
4559.88
4559.28
4558.57
4558.18
4557.62
4557.34
4556.82
4556.56
4556.07
4555.83
4555.36
4555.17
4554.82
4554.73
4554.52
4554.57
4554.52
4554.72
4554.72
4555.13
4555.13
4555.77
4555.77
4556.59
4556.64
4557.61
4557.65
4558.97
4559.64
4596.15
4710.8
69410
8260.92
7565.1
7001.1
6558.51
6215.78
5950.25
5741.63
5575.7
5441.11
5330.92
5238.93
5161.89
5096.05
5039.97
4991.12
4948.99
4911.66
4879.2
4850.01
4824.47
4801.18
4780.75
4761.87
4745.27
4729.74
4716.11
4703.19
4691.85
4680.98
4671.5
4662.27
4654.27
4646.38
4639.58
4632.77
4626.99
4621.11
4616.15
4611.02
4606.75
4602.31
4598.58
4594.68
4591.51
4588.07
4585.3
4582.26
4579.84
4577.23
4575.12
4572.88
4571.11
4569.12
4567.45
4565.79
4564.34
4562.86
4561.58
4560.3
4559.31
4558.28
4557.38
4556.48
4555.83
4554.99
4554.39
4553.67
4553.27
4552.71
4552.42
4551.9
4551.64
4551.15
4550.91
4550.43
4550.24
4549.88
4549.79
4549.57
4549.62
4549.56
4549.75
4549.74
4550.14
4550.14
4550.77
4550.77
4551.58
4551.63
4552.59
4552.63
4553.94
4554.63
4592.16
4706.51
66053.7
8260.94
7565.19
7001.06
6558.13
6214.95
5948.96
5739.9
5573.58
5438.65
5328.16
5235.92
5158.65
5092.62
5036.37
4987.36
4945.1
4907.66
4875.09
4845.8
4820.18
4796.81
4776.31
4757.36
4740.7
4725.12
4711.44
4698.47
4687.1
4676.19
4666.68
4657.41
4649.38
4641.45
4634.63
4627.8
4622
4616.09
4611.11
4605.96
4601.67
4597.21
4593.47
4589.55
4586.37
4582.92
4580.13
4577.08
4574.65
4572.02
4569.91
4567.65
4565.87
4563.88
4562.2
4560.52
4559.07
4557.58
4556.29
4555.01
4554.01
4552.97
4552.06
4551.15
4550.5
4549.65
4549.05
4548.32
4547.92
4547.35
4547.06
4546.53
4546.27
4545.77
4545.53
4545.05
4544.85
4544.5
4544.4
4544.17
4544.21
4544.14
4544.32
4544.31
4544.7
4544.7
4545.31
4545.31
4546.11
4546.16
4547.11
4547.14
4548.45
4549.15
4587.8
4701.87
62771.6
8260.96
7565.29
7001.02
6557.72
6214.06
5947.56
5738.03
5571.29
5435.99
5325.18
5232.66
5155.15
5088.91
5032.47
4983.3
4940.89
4903.32
4870.63
4841.24
4815.53
4792.08
4771.5
4752.48
4735.76
4720.11
4706.38
4693.36
4681.95
4670.99
4661.44
4652.14
4644.08
4636.12
4629.27
4622.41
4616.58
4610.65
4605.64
4600.47
4596.16
4591.69
4587.93
4583.99
4580.79
4577.33
4574.52
4571.46
4569.01
4566.38
4564.25
4561.98
4560.19
4558.19
4556.5
4554.81
4553.35
4551.85
4550.56
4549.26
4548.25
4547.21
4546.3
4545.37
4544.72
4543.86
4543.26
4542.52
4542.11
4541.54
4541.24
4540.71
4540.44
4539.94
4539.7
4539.22
4539.01
4538.65
4538.55
4538.32
4538.34
4538.27
4538.43
4538.42
4538.8
4538.79
4539.39
4539.39
4540.18
4540.22
4541.16
4541.19
4542.5
4543.22
4583.08
4696.86
59568.8
8260.98
7565.4
7000.98
6557.29
6213.1
5946.06
5736.03
5568.83
5433.13
5321.98
5229.15
5151.38
5084.91
5028.27
4978.92
4936.36
4898.64
4865.83
4836.33
4810.51
4786.97
4766.31
4747.21
4730.42
4714.71
4700.93
4687.85
4676.39
4665.38
4655.79
4646.45
4638.35
4630.36
4623.48
4616.59
4610.73
4604.78
4599.74
4594.55
4590.22
4585.72
4581.95
4577.99
4574.77
4571.29
4568.47
4565.4
4562.93
4560.28
4558.14
4555.86
4554.06
4552.05
4550.35
4548.65
4547.18
4545.67
4544.37
4543.06
4542.04
4540.99
4540.07
4539.14
4538.47
4537.61
4537
4536.26
4535.84
4535.26
4534.96
4534.42
4534.15
4533.65
4533.4
4532.91
4532.71
4532.34
4532.23
4532
4532.01
4531.92
4532.08
4532.06
4532.42
4532.42
4532.99
4533
4533.78
4533.81
4534.74
4534.77
4536.08
4536.81
4577.98
4691.5
56450.2
8261
7565.52
7000.93
6556.82
6212.09
5944.47
5733.89
5566.2
5430.07
5318.55
5225.4
5147.34
5080.62
5023.77
4974.22
4931.49
4893.62
4860.68
4831.05
4805.12
4781.48
4760.73
4741.55
4724.69
4708.91
4695.06
4681.93
4670.42
4659.36
4649.73
4640.34
4632.2
4624.17
4617.26
4610.33
4604.45
4598.46
4593.41
4588.18
4583.83
4579.31
4575.52
4571.54
4568.3
4564.8
4561.97
4558.88
4556.4
4553.73
4551.58
4549.28
4547.47
4545.44
4543.74
4542.02
4540.55
4539.02
4537.71
4536.4
4535.37
4534.3
4533.38
4532.44
4531.76
4530.9
4530.28
4529.53
4529.11
4528.51
4528.21
4527.66
4527.39
4526.88
4526.63
4526.14
4525.93
4525.56
4525.45
4525.2
4525.2
4525.1
4525.25
4525.23
4525.57
4525.56
4526.12
4526.13
4526.89
4526.92
4527.84
4527.86
4529.17
4529.93
4572.49
4685.77
53420.4
8261.02
7565.64
7000.89
6556.34
6211.01
5942.77
5731.61
5563.4
5426.81
5314.88
5221.39
5143.03
5076.04
5018.96
4969.2
4926.29
4888.26
4855.17
4825.41
4799.37
4775.62
4754.77
4735.5
4718.56
4702.71
4688.79
4675.6
4664.03
4652.92
4643.23
4633.8
4625.62
4617.55
4610.6
4603.64
4597.72
4591.71
4586.62
4581.37
4577
4572.45
4568.63
4564.64
4561.38
4557.86
4555.01
4551.9
4549.4
4546.72
4544.55
4542.24
4540.41
4538.37
4536.65
4534.93
4533.44
4531.91
4530.59
4529.26
4528.22
4527.15
4526.21
4525.26
4524.58
4523.7
4523.08
4522.32
4521.89
4521.29
4520.98
4520.43
4520.15
4519.64
4519.38
4518.89
4518.67
4518.3
4518.18
4517.93
4517.91
4517.8
4517.93
4517.91
4518.23
4518.23
4518.77
4518.77
4519.52
4519.55
4520.45
4520.47
4521.77
4522.55
4566.6
4679.69
50483.3
8261.04
7565.78
7000.85
6555.83
6209.87
5940.98
5729.19
5560.43
5423.35
5310.99
5217.12
5138.44
5071.17
5013.83
4963.86
4920.75
4882.54
4849.3
4819.4
4793.23
4769.36
4748.42
4729.05
4712.03
4696.09
4682.11
4668.84
4657.21
4646.04
4636.31
4626.82
4618.6
4610.49
4603.5
4596.5
4590.55
4584.5
4579.39
4574.11
4569.71
4565.13
4561.29
4557.27
4553.99
4550.45
4547.58
4544.45
4541.94
4539.24
4537.05
4534.72
4532.88
4530.83
4529.1
4527.36
4525.86
4524.32
4522.99
4521.64
4520.6
4519.51
4518.57
4517.6
4516.91
4516.03
4515.4
4514.63
4514.19
4513.58
4513.26
4512.71
4512.42
4511.91
4511.65
4511.15
4510.92
4510.54
4510.42
4510.16
4510.13
4510.01
4510.13
4510.09
4510.4
4510.4
4510.92
4510.92
4511.66
4511.67
4512.56
4512.58
4513.88
4514.69
4560.3
4673.24
47642.9
8261.07
7565.92
7000.81
6555.29
6208.68
5939.09
5726.64
5557.28
5419.68
5306.87
5212.6
5133.58
5066
5008.4
4958.19
4914.87
4876.47
4843.07
4813.01
4786.71
4762.72
4741.67
4722.2
4705.08
4689.06
4675
4661.67
4649.97
4638.74
4628.95
4619.41
4611.14
4602.98
4595.95
4588.91
4582.92
4576.84
4571.69
4566.38
4561.95
4557.35
4553.48
4549.43
4546.13
4542.57
4539.68
4536.53
4534
4531.28
4529.08
4526.73
4524.87
4522.81
4521.06
4519.31
4517.8
4516.24
4514.9
4513.54
4512.48
4511.38
4510.44
4509.45
4508.76
4507.86
4507.23
4506.44
4506
4505.38
4505.05
4504.49
4504.2
4503.68
4503.42
4502.91
4502.68
4502.29
4502.16
4501.9
4501.86
4501.72
4501.82
4501.78
4502.07
4502.06
4502.56
4502.56
4503.29
4503.3
4504.17
4504.18
4505.48
4506.32
4553.56
4666.42
44902.6
8261.09
7566.06
7000.77
6554.74
6207.42
5937.1
5723.96
5553.97
5415.81
5302.52
5207.83
5128.44
5060.53
5002.65
4952.18
4908.64
4870.05
4836.47
4806.25
4779.81
4755.69
4734.51
4714.94
4697.72
4681.61
4667.47
4654.06
4642.29
4630.99
4621.14
4611.55
4603.23
4595.02
4587.95
4580.86
4574.84
4568.71
4563.53
4558.19
4553.73
4549.09
4545.2
4541.12
4537.8
4534.21
4531.3
4528.13
4525.58
4522.84
4520.62
4518.25
4516.38
4514.3
4512.54
4510.76
4509.25
4507.67
4506.32
4504.95
4503.88
4502.76
4501.81
4500.81
4500.11
4499.2
4498.56
4497.76
4497.31
4496.68
4496.35
4495.77
4495.48
4494.95
4494.69
4494.17
4493.94
4493.54
4493.4
4493.13
4493.08
4492.92
4493.02
4492.97
4493.23
4493.23
4493.7
4493.7
4494.41
4494.42
4495.27
4495.28
4496.57
4497.44
4546.37
4659.21
42265.3
8261.11
7566.22
7000.74
6554.16
6206.12
5935.02
5721.14
5550.48
5411.74
5297.94
5202.8
5123.01
5054.77
4996.58
4945.85
4902.07
4863.27
4829.49
4799.11
4772.51
4748.25
4726.95
4707.26
4689.95
4673.74
4659.51
4646.01
4634.17
4622.81
4612.89
4603.24
4594.87
4586.6
4579.48
4572.35
4566.28
4560.12
4554.9
4549.52
4545.03
4540.36
4536.44
4532.33
4528.99
4525.37
4522.44
4519.24
4516.67
4513.91
4511.67
4509.28
4507.39
4505.29
4503.52
4501.73
4500.2
4498.6
4497.24
4495.85
4494.77
4493.64
4492.68
4491.66
4490.95
4490.03
4489.38
4488.58
4488.11
4487.47
4487.13
4486.55
4486.25
4485.72
4485.44
4484.93
4484.68
4484.28
4484.13
4483.85
4483.79
4483.62
4483.7
4483.64
4483.88
4483.87
4484.32
4484.33
4485.01
4485.02
4485.85
4485.85
4487.14
4488.04
4538.71
4651.57
39733.9
8261.14
7566.38
7000.7
6553.56
6204.75
5932.84
5718.18
5546.83
5407.47
5293.12
5197.51
5117.31
5048.7
4990.2
4939.18
4895.15
4856.12
4822.15
4791.58
4764.83
4740.42
4718.99
4699.17
4681.74
4665.43
4651.11
4637.53
4625.61
4614.17
4604.19
4594.47
4586.04
4577.72
4570.55
4563.37
4557.26
4551.05
4545.79
4540.37
4535.84
4531.14
4527.2
4523.06
4519.68
4516.04
4513.08
4509.86
4507.27
4504.48
4502.23
4499.81
4497.9
4495.78
4494
4492.19
4490.64
4489.03
4487.66
4486.25
4485.16
4484.01
4483.04
4482.01
4481.28
4480.35
4479.7
4478.88
4478.4
4477.75
4477.4
4476.81
4476.5
4475.97
4475.69
4475.17
4474.91
4474.5
4474.35
4474.06
4473.99
4473.79
4473.86
4473.79
4474.01
4474
4474.42
4474.43
4475.09
4475.09
4475.9
4475.9
4477.19
4478.13
4530.55
4643.46
37310.7
8261.16
7566.55
7000.67
6552.95
6203.34
5930.57
5715.1
5543.01
5402.99
5288.07
5191.96
5111.33
5042.33
4983.49
4932.17
4887.88
4848.61
4814.43
4783.67
4756.74
4732.18
4710.6
4690.66
4673.12
4656.7
4642.27
4628.6
4616.6
4605.08
4595.03
4585.24
4576.75
4568.36
4561.14
4553.91
4547.75
4541.5
4536.2
4530.74
4526.18
4521.44
4517.46
4513.29
4509.88
4506.21
4503.23
4499.98
4497.37
4494.56
4492.28
4489.84
4487.91
4485.77
4483.97
4482.14
4480.58
4478.95
4477.57
4476.14
4475.03
4473.86
4472.88
4471.84
4471.1
4470.16
4469.49
4468.66
4468.18
4467.51
4467.15
4466.55
4466.24
4465.69
4465.41
4464.88
4464.62
4464.2
4464.04
4463.74
4463.65
4463.45
4463.49
4463.41
4463.61
4463.59
4463.99
4464
4464.63
4464.63
4465.42
4465.42
4466.7
4467.68
4521.87
4634.85
34997.7
8261.18
7566.73
7000.65
6552.31
6201.87
5928.21
5711.88
5539.02
5398.31
5282.8
5186.15
5105.06
5035.65
4976.46
4924.82
4880.26
4840.73
4806.33
4775.37
4748.26
4723.52
4701.81
4681.72
4664.06
4647.52
4633
4619.22
4607.13
4595.53
4585.4
4575.54
4566.99
4558.54
4551.26
4543.97
4537.77
4531.46
4526.12
4520.62
4516.02
4511.24
4507.23
4503.02
4499.58
4495.88
4492.87
4489.6
4486.96
4484.12
4481.82
4479.36
4477.4
4475.25
4473.43
4471.57
4470
4468.35
4466.96
4465.51
4464.38
4463.2
4462.21
4461.14
4460.4
4459.44
4458.76
4457.92
4457.42
4456.74
4456.37
4455.76
4455.44
4454.89
4454.6
4454.06
4453.8
4453.37
4453.2
4452.88
4452.79
4452.57
4452.6
4452.5
4452.68
4452.66
4453.03
4453.03
4453.64
4453.64
4454.4
4454.4
4455.68
4456.69
4512.63
4625.7
32796.8
8261.2
7566.91
7000.62
6551.66
6200.35
5925.76
5708.54
5534.87
5393.44
5277.29
5180.09
5098.51
5028.68
4969.11
4917.14
4872.28
4832.49
4797.85
4766.67
4739.37
4714.46
4692.59
4672.36
4654.56
4637.9
4623.27
4609.39
4597.21
4585.51
4575.31
4565.37
4556.75
4548.23
4540.9
4533.55
4527.29
4520.93
4515.55
4510
4505.36
4500.54
4496.49
4492.25
4488.78
4485.04
4482.01
4478.7
4476.04
4473.17
4470.85
4468.36
4466.38
4464.2
4462.36
4460.49
4458.9
4457.23
4455.82
4454.35
4453.21
4452.01
4451
4449.92
4449.16
4448.19
4447.51
4446.64
4446.14
4445.44
4445.06
4444.44
4444.11
4443.55
4443.26
4442.71
4442.44
4442
4441.82
4441.49
4441.39
4441.16
4441.16
4441.05
4441.21
4441.18
4441.52
4441.52
4442.1
4442.11
4442.83
4442.84
4444.1
4445.16
4502.81
4615.97
30709.4
8261.23
7567.1
7000.6
6551
6198.78
5923.23
5705.07
5530.55
5388.36
5271.55
5173.77
5091.68
5021.4
4961.43
4909.11
4863.94
4823.87
4788.98
4757.58
4730.08
4704.98
4682.94
4662.56
4644.63
4627.84
4613.09
4599.1
4586.83
4575.04
4564.75
4554.73
4546.03
4537.45
4530.05
4522.64
4516.33
4509.91
4504.48
4498.88
4494.2
4489.34
4485.25
4480.97
4477.47
4473.69
4470.63
4467.29
4464.6
4461.7
4459.35
4456.83
4454.83
4452.63
4450.78
4448.88
4447.27
4445.58
4444.15
4442.67
4441.51
4440.28
4439.27
4438.17
4437.39
4436.41
4435.71
4434.83
4434.31
4433.6
4433.21
4432.58
4432.24
4431.67
4431.37
4430.82
4430.53
4430.08
4429.89
4429.56
4429.45
4429.2
4429.19
4429.05
4429.19
4429.15
4429.46
4429.46
4430.01
4430.02
4430.71
4430.72
4431.98
4433.08
4492.36
4605.61
28736.9
8261.25
7567.3
7000.59
6550.32
6197.17
5920.61
5701.48
5526.07
5383.09
5265.58
5167.19
5084.57
5013.81
4953.44
4900.74
4855.24
4814.88
4779.73
4748.09
4720.38
4695.09
4672.88
4652.33
4634.26
4617.33
4602.46
4588.36
4575.98
4564.09
4553.71
4543.6
4534.84
4526.17
4518.71
4511.24
4504.86
4498.39
4492.91
4487.26
4482.53
4477.62
4473.5
4469.17
4465.63
4461.83
4458.73
4455.36
4452.64
4449.71
4447.33
4444.79
4442.76
4440.54
4438.66
4436.73
4435.11
4433.4
4431.95
4430.45
4429.27
4428.02
4426.99
4425.87
4425.08
4424.08
4423.37
4422.48
4421.95
4421.22
4420.82
4420.17
4419.83
4419.25
4418.94
4418.38
4418.08
4417.62
4417.42
4417.07
4416.95
4416.69
4416.66
4416.5
4416.62
4416.57
4416.86
4416.85
4417.37
4417.38
4418.04
4418.04
4419.3
4420.44
4481.23
4594.59
26880.4
8261.27
7567.5
7000.58
6549.63
6195.52
5917.91
5697.77
5521.43
5377.62
5259.39
5160.36
5077.18
5005.93
4945.11
4892.03
4846.19
4805.52
4770.1
4738.21
4710.27
4684.78
4662.38
4641.67
4623.44
4606.37
4591.37
4577.15
4564.66
4552.66
4542.2
4532
4523.15
4514.41
4506.88
4499.33
4492.9
4486.37
4480.84
4475.13
4470.35
4465.39
4461.23
4456.86
4453.28
4449.44
4446.3
4442.9
4440.15
4437.19
4434.78
4432.21
4430.15
4427.9
4426
4424.05
4422.41
4420.67
4419.21
4417.68
4416.48
4415.22
4414.18
4413.03
4412.23
4411.21
4410.49
4409.58
4409.03
4408.28
4407.87
4407.21
4406.86
4406.27
4405.95
4405.38
4405.08
4404.61
4404.39
4404.03
4403.9
4403.62
4403.57
4403.4
4403.49
4403.43
4403.69
4403.68
4404.17
4404.17
4404.8
4404.81
4406.05
4407.24
4469.41
4582.87
25141.1
8261.29
7567.72
7000.58
6548.93
6193.83
5915.13
5693.94
5516.63
5371.97
5252.98
5153.27
5069.51
4997.74
4936.47
4882.98
4836.78
4795.78
4760.08
4727.92
4699.76
4674.04
4651.46
4630.56
4612.18
4594.96
4579.82
4565.47
4552.87
4540.77
4530.2
4519.91
4510.98
4502.15
4494.55
4486.93
4480.43
4473.84
4468.25
4462.49
4457.66
4452.65
4448.44
4444.02
4440.41
4436.52
4433.35
4429.91
4427.13
4424.13
4421.7
4419.09
4417.01
4414.73
4412.81
4410.83
4409.16
4407.4
4405.93
4404.37
4403.16
4401.86
4400.81
4399.64
4398.82
4397.78
4397.05
4396.12
4395.56
4394.8
4394.37
4393.7
4393.33
4392.73
4392.41
4391.83
4391.51
4391.03
4390.81
4390.43
4390.28
4390
4389.93
4389.73
4389.81
4389.73
4389.96
4389.94
4390.4
4390.4
4390.99
4391
4392.24
4393.46
4456.89
4570.42
23519.6
8261.31
7567.93
7000.59
6548.22
6192.09
5912.28
5689.99
5511.69
5366.12
5246.34
5145.93
5061.56
4989.25
4927.5
4873.59
4827.01
4785.68
4749.67
4717.24
4688.83
4662.89
4640.1
4619.02
4600.47
4583.09
4567.82
4553.33
4540.61
4528.39
4517.72
4507.33
4498.31
4489.4
4481.72
4474.02
4467.46
4460.79
4455.15
4449.33
4444.44
4439.38
4435.13
4430.66
4427.01
4423.07
4419.87
4416.39
4413.57
4410.54
4408.08
4405.43
4403.32
4401.02
4399.07
4397.06
4395.37
4393.59
4392.09
4390.51
4389.27
4387.96
4386.89
4385.69
4384.86
4383.8
4383.06
4382.11
4381.53
4380.75
4380.31
4379.62
4379.25
4378.64
4378.3
4377.71
4377.39
4376.89
4376.65
4376.26
4376.1
4375.8
4375.72
4375.5
4375.55
4375.46
4375.66
4375.63
4376.06
4376.05
4376.62
4376.62
4377.85
4379.12
4443.67
4557.19
22012.5
8261.32
7568.16
7000.6
6547.5
6190.33
5909.36
5685.93
5506.59
5360.09
5239.48
5138.35
5053.34
4980.46
4918.22
4863.86
4816.89
4775.19
4738.87
4706.15
4677.49
4651.31
4628.32
4607.04
4588.31
4570.76
4555.34
4540.71
4527.87
4515.53
4504.76
4494.26
4485.14
4476.14
4468.38
4460.61
4453.97
4447.24
4441.53
4435.64
4430.71
4425.59
4421.29
4416.77
4413.07
4409.09
4405.85
4402.33
4399.48
4396.41
4393.91
4391.23
4389.09
4386.75
4384.78
4382.74
4381.03
4379.22
4377.71
4376.09
4374.84
4373.49
4372.41
4371.19
4370.34
4369.26
4368.5
4367.53
4366.94
4366.14
4365.69
4364.98
4364.59
4363.97
4363.63
4363.02
4362.69
4362.18
4361.93
4361.52
4361.35
4361.03
4360.94
4360.7
4360.73
4360.61
4360.78
4360.75
4361.14
4361.13
4361.66
4361.66
4362.88
4364.19
4429.74
4543.15
20615
8261.34
7568.39
7000.62
6546.78
6188.53
5906.36
5681.77
5501.35
5353.88
5232.41
5130.52
5044.84
4971.37
4908.61
4853.79
4806.41
4764.34
4727.69
4694.67
4665.74
4639.32
4616.1
4594.61
4575.7
4557.98
4542.41
4527.63
4514.66
4502.19
4491.3
4480.69
4471.48
4462.39
4454.54
4446.68
4439.98
4433.16
4427.39
4421.44
4416.45
4411.27
4406.92
4402.35
4398.6
4394.57
4391.29
4387.73
4384.84
4381.73
4379.2
4376.48
4374.31
4371.94
4369.94
4367.87
4366.14
4364.29
4362.76
4361.12
4359.84
4358.47
4357.36
4356.12
4355.25
4354.15
4353.38
4352.39
4351.78
4350.96
4350.49
4349.77
4349.37
4348.73
4348.38
4347.77
4347.42
4346.89
4346.63
4346.21
4346.02
4345.69
4345.58
4345.32
4345.32
4345.19
4345.33
4345.28
4345.64
4345.63
4346.12
4346.12
4347.33
4348.67
4415.1
4528.27
19322.4
8261.35
7568.62
7000.65
6546.06
6186.7
5903.31
5677.5
5495.97
5347.49
5225.13
5122.45
5036.08
4961.99
4898.69
4843.38
4795.57
4753.12
4716.12
4682.79
4653.58
4626.89
4603.45
4581.74
4562.64
4544.74
4529
4514.07
4500.96
4488.36
4477.36
4466.63
4457.32
4448.13
4440.19
4432.25
4425.46
4418.57
4412.73
4406.71
4401.66
4396.42
4392.01
4387.39
4383.59
4379.52
4376.19
4372.58
4369.65
4366.5
4363.94
4361.18
4358.97
4356.57
4354.55
4352.44
4350.68
4348.81
4347.25
4345.58
4344.28
4342.88
4341.76
4340.48
4339.6
4338.47
4337.69
4336.67
4336.05
4335.2
4334.72
4333.98
4333.57
4332.92
4332.56
4331.93
4331.57
4331.03
4330.75
4330.32
4330.12
4329.76
4329.64
4329.37
4329.34
4329.18
4329.3
4329.24
4329.55
4329.55
4329.99
4329.99
4331.19
4332.56
4399.74
4512.51
18129.4
8261.37
7568.86
7000.69
6545.33
6184.84
5900.19
5673.14
5490.45
5340.92
5217.65
5114.14
5027.05
4952.32
4888.46
4832.64
4784.39
4741.53
4704.17
4670.51
4641.01
4614.05
4590.36
4568.44
4549.13
4531.04
4515.14
4500.04
4486.79
4474.05
4462.92
4452.08
4442.66
4433.36
4425.34
4417.3
4410.43
4403.46
4397.55
4391.45
4386.34
4381.03
4376.57
4371.89
4368.04
4363.91
4360.54
4356.89
4353.92
4350.72
4348.12
4345.32
4343.08
4340.64
4338.59
4336.44
4334.66
4332.76
4331.18
4329.48
4328.15
4326.72
4325.58
4324.28
4323.37
4322.22
4321.42
4320.38
4319.74
4318.87
4318.38
4317.62
4317.19
4316.53
4316.15
4315.51
4315.14
4314.58
4314.3
4313.84
4313.63
4313.25
4313.12
4312.83
4312.78
4312.59
4312.68
4312.6
4312.88
4312.88
4313.28
4313.27
4314.46
4315.86
4383.65
4495.84
17030.5
8261.38
7569.1
7000.73
6544.61
6182.96
5897.02
5668.68
5484.8
5334.19
5209.96
5105.6
5017.76
4942.36
4877.91
4821.57
4772.85
4729.57
4691.84
4657.83
4628.03
4600.79
4576.85
4554.69
4535.17
4516.88
4500.8
4485.54
4472.14
4459.25
4448
4437.03
4427.5
4418.09
4409.97
4401.83
4394.88
4387.82
4381.84
4375.67
4370.49
4365.11
4360.6
4355.85
4351.95
4347.77
4344.35
4340.65
4337.63
4334.39
4331.75
4328.91
4326.63
4324.15
4322.07
4319.89
4318.08
4316.14
4314.54
4312.81
4311.46
4309.99
4308.83
4307.5
4306.57
4305.4
4304.58
4303.52
4302.86
4301.97
4301.45
4300.67
4300.23
4299.55
4299.17
4298.51
4298.13
4297.55
4297.25
4296.78
4296.55
4296.16
4296
4295.7
4295.63
4295.42
4295.48
4295.38
4295.62
4295.61
4295.97
4295.95
4297.13
4298.56
4366.84
4478.22
16020
8261.39
7569.35
7000.79
6543.88
6181.06
5893.79
5664.14
5479.02
5327.3
5202.07
5096.83
5008.21
4932.12
4867.06
4810.17
4760.97
4717.25
4679.13
4644.76
4614.64
4587.11
4562.91
4540.5
4520.77
4502.27
4486.01
4470.56
4457.01
4443.97
4432.58
4421.48
4411.84
4402.31
4394.09
4385.85
4378.81
4371.67
4365.6
4359.36
4354.1
4348.65
4344.08
4339.27
4335.31
4331.07
4327.61
4323.85
4320.8
4317.51
4314.83
4311.94
4309.62
4307.1
4304.99
4302.77
4300.93
4298.96
4297.33
4295.57
4294.19
4292.69
4291.51
4290.15
4289.2
4288
4287.16
4286.08
4285.4
4284.48
4283.95
4283.14
4282.69
4281.99
4281.6
4280.93
4280.53
4279.94
4279.62
4279.12
4278.88
4278.47
4278.3
4277.97
4277.88
4277.65
4277.68
4277.56
4277.76
4277.75
4278.08
4278.04
4279.21
4280.65
4349.3
4459.63
15092.2
8261.39
7569.6
7000.86
6543.17
6179.15
5890.52
5659.51
5473.12
5320.25
5193.99
5087.84
4998.41
4921.61
4855.91
4798.45
4748.74
4704.57
4666.04
4631.3
4600.85
4573.01
4548.54
4525.87
4505.91
4487.2
4470.74
4455.12
4441.4
4428.2
4416.67
4405.44
4395.67
4386.02
4377.7
4369.36
4362.22
4354.98
4348.84
4342.51
4337.18
4331.66
4327.03
4322.15
4318.13
4313.83
4310.32
4306.51
4303.4
4300.06
4297.34
4294.41
4292.05
4289.49
4287.35