/*--------------------------------*- C++ -*----------------------------------*\
| =========                 |                                                 |
| \\      /  F ield         | OpenFOAM: The Open Source CFD Toolbox           |
|  \\    /   O peration     | Version:  v2012                                 |
|   \\  /    A nd           | Website:  www.openfoam.com                      |
|    \\/     M anipulation  |                                                 |
\*---------------------------------------------------------------------------*/
FoamFile
{
    version     2.0;
    format      ascii;
    class       volVectorField;
    location    "31";
    object      wallShearStress;
}
// * * * * * * * * * * * * * * * * * * * * * * * * * * * * * * * * * * * * * //

dimensions      [0 2 -2 0 0 0 0];


internalField   uniform (0 0 0);

boundaryField
{
    inlet
    {
        type            calculated;
        value           uniform (0 0 0);
    }
    outlet
    {
        type            calculated;
        value           uniform (0 0 0);
    }
    topWall
    {
        type            calculated;
        value           nonuniform List<vector> 
545
(
(1.48523e-08 -1.04546e-08 0)
(1.48456e-08 -2.92486e-08 0)
(1.48316e-08 -4.87896e-08 0)
(1.48111e-08 -6.77575e-08 0)
(1.47849e-08 -8.59052e-08 0)
(1.47537e-08 -1.03464e-07 0)
(1.47177e-08 -1.20582e-07 0)
(1.46774e-08 -1.37249e-07 0)
(1.46332e-08 -1.53427e-07 0)
(1.45855e-08 -1.69116e-07 0)
(1.45345e-08 -1.84335e-07 0)
(1.44808e-08 -1.99103e-07 0)
(1.44245e-08 -2.13428e-07 0)
(1.4366e-08 -2.2732e-07 0)
(1.43055e-08 -2.4079e-07 0)
(1.42434e-08 -2.53848e-07 0)
(1.41797e-08 -2.66505e-07 0)
(1.41148e-08 -2.78773e-07 0)
(1.40488e-08 -2.90663e-07 0)
(1.3982e-08 -3.02184e-07 0)
(1.39145e-08 -3.13348e-07 0)
(1.38465e-08 -3.24164e-07 0)
(1.37782e-08 -3.34644e-07 0)
(1.37095e-08 -3.44796e-07 0)
(1.36408e-08 -3.54632e-07 0)
(1.35721e-08 -3.6416e-07 0)
(1.35036e-08 -3.7339e-07 0)
(1.34352e-08 -3.82331e-07 0)
(1.33672e-08 -3.90993e-07 0)
(1.32995e-08 -3.99383e-07 0)
(1.32323e-08 -4.07511e-07 0)
(1.31657e-08 -4.15384e-07 0)
(1.30997e-08 -4.23011e-07 0)
(1.30343e-08 -4.304e-07 0)
(1.29696e-08 -4.37559e-07 0)
(1.29056e-08 -4.44494e-07 0)
(1.28425e-08 -4.51213e-07 0)
(1.27801e-08 -4.57723e-07 0)
(1.27186e-08 -4.64031e-07 0)
(1.2658e-08 -4.70143e-07 0)
(1.25983e-08 -4.76066e-07 0)
(1.25394e-08 -4.81805e-07 0)
(1.24816e-08 -4.87367e-07 0)
(1.24246e-08 -4.92758e-07 0)
(1.23687e-08 -4.97982e-07 0)
(1.23137e-08 -5.03046e-07 0)
(1.22596e-08 -5.07955e-07 0)
(1.22066e-08 -5.12714e-07 0)
(1.21545e-08 -5.17327e-07 0)
(1.21033e-08 -5.218e-07 0)
(1.20532e-08 -5.26136e-07 0)
(1.2004e-08 -5.30341e-07 0)
(1.19558e-08 -5.34418e-07 0)
(1.19086e-08 -5.38372e-07 0)
(1.18623e-08 -5.42206e-07 0)
(1.1817e-08 -5.45926e-07 0)
(1.17726e-08 -5.49533e-07 0)
(1.17291e-08 -5.53032e-07 0)
(1.16866e-08 -5.56426e-07 0)
(1.16449e-08 -5.59719e-07 0)
(1.16042e-08 -5.62914e-07 0)
(1.15643e-08 -5.66014e-07 0)
(1.15253e-08 -5.69022e-07 0)
(1.14872e-08 -5.71941e-07 0)
(1.14499e-08 -5.74773e-07 0)
(1.14135e-08 -5.77522e-07 0)
(1.13779e-08 -5.8019e-07 0)
(1.13431e-08 -5.82779e-07 0)
(1.1309e-08 -5.85293e-07 0)
(1.12758e-08 -5.87733e-07 0)
(1.12433e-08 -5.90103e-07 0)
(1.12118e-08 -5.92399e-07 0)
(1.11812e-08 -5.94607e-07 0)
(1.11511e-08 -5.96746e-07 0)
(1.11213e-08 -5.9886e-07 0)
(1.10917e-08 -6.0096e-07 0)
(1.10621e-08 -6.03049e-07 0)
(1.10325e-08 -6.05124e-07 0)
(1.10031e-08 -6.07182e-07 0)
(1.09737e-08 -6.09225e-07 0)
(1.09443e-08 -6.11253e-07 0)
(1.0915e-08 -6.13267e-07 0)
(1.08858e-08 -6.15267e-07 0)
(1.08566e-08 -6.17251e-07 0)
(1.08275e-08 -6.19222e-07 0)
(1.07985e-08 -6.21178e-07 0)
(1.07695e-08 -6.2312e-07 0)
(1.07406e-08 -6.25048e-07 0)
(1.07117e-08 -6.26962e-07 0)
(1.06829e-08 -6.28862e-07 0)
(1.06542e-08 -6.30748e-07 0)
(1.06256e-08 -6.32621e-07 0)
(1.0597e-08 -6.3448e-07 0)
(1.05685e-08 -6.36324e-07 0)
(1.05399e-08 -6.3816e-07 0)
(1.05125e-08 -6.39962e-07 0)
(1.04871e-08 -6.41611e-07 0)
(1.04628e-08 -6.43105e-07 0)
(1.04394e-08 -6.44556e-07 0)
(1.04161e-08 -6.46013e-07 0)
(1.03927e-08 -6.47482e-07 0)
(1.03693e-08 -6.48953e-07 0)
(1.03457e-08 -6.50422e-07 0)
(1.03221e-08 -6.51889e-07 0)
(1.02984e-08 -6.53356e-07 0)
(1.02746e-08 -6.54824e-07 0)
(1.02507e-08 -6.56293e-07 0)
(1.02267e-08 -6.57761e-07 0)
(1.02026e-08 -6.59229e-07 0)
(1.01784e-08 -6.60697e-07 0)
(1.01541e-08 -6.62165e-07 0)
(1.01298e-08 -6.63633e-07 0)
(1.01053e-08 -6.65101e-07 0)
(1.00807e-08 -6.66569e-07 0)
(1.00561e-08 -6.68037e-07 0)
(1.00313e-08 -6.69505e-07 0)
(1.00065e-08 -6.70972e-07 0)
(9.98155e-09 -6.72439e-07 0)
(9.95652e-09 -6.73906e-07 0)
(9.9314e-09 -6.75373e-07 0)
(9.90618e-09 -6.7684e-07 0)
(9.88086e-09 -6.78306e-07 0)
(9.85545e-09 -6.79772e-07 0)
(9.82995e-09 -6.81237e-07 0)
(9.80435e-09 -6.82703e-07 0)
(9.77866e-09 -6.84167e-07 0)
(9.75288e-09 -6.85632e-07 0)
(9.72699e-09 -6.87096e-07 0)
(9.70102e-09 -6.88559e-07 0)
(9.67495e-09 -6.90023e-07 0)
(9.64878e-09 -6.91485e-07 0)
(9.62252e-09 -6.92947e-07 0)
(9.59616e-09 -6.94409e-07 0)
(9.56971e-09 -6.9587e-07 0)
(9.54317e-09 -6.9733e-07 0)
(9.51653e-09 -6.9879e-07 0)
(9.48979e-09 -7.00249e-07 0)
(9.46296e-09 -7.01707e-07 0)
(9.43604e-09 -7.03165e-07 0)
(9.40902e-09 -7.04622e-07 0)
(9.3819e-09 -7.06078e-07 0)
(9.35469e-09 -7.07533e-07 0)
(9.32739e-09 -7.08988e-07 0)
(9.29999e-09 -7.10442e-07 0)
(9.27249e-09 -7.11894e-07 0)
(9.2449e-09 -7.13346e-07 0)
(9.21722e-09 -7.14797e-07 0)
(9.18944e-09 -7.16248e-07 0)
(9.16156e-09 -7.17697e-07 0)
(9.1336e-09 -7.19145e-07 0)
(9.10553e-09 -7.20592e-07 0)
(9.07738e-09 -7.22038e-07 0)
(9.04913e-09 -7.23483e-07 0)
(9.02078e-09 -7.24927e-07 0)
(8.99234e-09 -7.26369e-07 0)
(8.96381e-09 -7.27811e-07 0)
(8.93518e-09 -7.29251e-07 0)
(8.90646e-09 -7.3069e-07 0)
(8.87764e-09 -7.32128e-07 0)
(8.84873e-09 -7.33565e-07 0)
(8.81973e-09 -7.35e-07 0)
(8.79063e-09 -7.36434e-07 0)
(8.76144e-09 -7.37866e-07 0)
(8.73216e-09 -7.39297e-07 0)
(8.70278e-09 -7.40727e-07 0)
(8.67331e-09 -7.42155e-07 0)
(8.64375e-09 -7.43582e-07 0)
(8.61409e-09 -7.45007e-07 0)
(8.58435e-09 -7.46431e-07 0)
(8.5545e-09 -7.47853e-07 0)
(8.52457e-09 -7.49273e-07 0)
(8.49455e-09 -7.50692e-07 0)
(8.46443e-09 -7.52109e-07 0)
(8.43422e-09 -7.53524e-07 0)
(8.40392e-09 -7.54938e-07 0)
(8.37353e-09 -7.5635e-07 0)
(8.34305e-09 -7.5776e-07 0)
(8.31248e-09 -7.59168e-07 0)
(8.28182e-09 -7.60574e-07 0)
(8.25106e-09 -7.61979e-07 0)
(8.22022e-09 -7.63381e-07 0)
(8.18928e-09 -7.64782e-07 0)
(8.15826e-09 -7.6618e-07 0)
(8.12715e-09 -7.67577e-07 0)
(8.09594e-09 -7.68971e-07 0)
(8.06465e-09 -7.70364e-07 0)
(8.03327e-09 -7.71754e-07 0)
(8.0018e-09 -7.73142e-07 0)
(7.97025e-09 -7.74528e-07 0)
(7.9386e-09 -7.75912e-07 0)
(7.90687e-09 -7.77293e-07 0)
(7.87505e-09 -7.78672e-07 0)
(7.84314e-09 -7.80049e-07 0)
(7.81115e-09 -7.81423e-07 0)
(7.77907e-09 -7.82795e-07 0)
(7.7469e-09 -7.84165e-07 0)
(7.71465e-09 -7.85532e-07 0)
(7.68232e-09 -7.86896e-07 0)
(7.64989e-09 -7.88258e-07 0)
(7.61739e-09 -7.89618e-07 0)
(7.5848e-09 -7.90975e-07 0)
(7.55212e-09 -7.92329e-07 0)
(7.51936e-09 -7.9368e-07 0)
(7.48652e-09 -7.95029e-07 0)
(7.4536e-09 -7.96375e-07 0)
(7.42059e-09 -7.97719e-07 0)
(7.3875e-09 -7.99059e-07 0)
(7.35433e-09 -8.00397e-07 0)
(7.32108e-09 -8.01731e-07 0)
(7.28775e-09 -8.03063e-07 0)
(7.25434e-09 -8.04392e-07 0)
(7.22084e-09 -8.05718e-07 0)
(7.18727e-09 -8.07041e-07 0)
(7.15362e-09 -8.08361e-07 0)
(7.11989e-09 -8.09677e-07 0)
(7.08608e-09 -8.10991e-07 0)
(7.0522e-09 -8.12301e-07 0)
(7.01824e-09 -8.13608e-07 0)
(6.9842e-09 -8.14912e-07 0)
(6.95008e-09 -8.16213e-07 0)
(6.91589e-09 -8.1751e-07 0)
(6.88163e-09 -8.18804e-07 0)
(6.84729e-09 -8.20094e-07 0)
(6.81288e-09 -8.21381e-07 0)
(6.77839e-09 -8.22665e-07 0)
(6.74383e-09 -8.23945e-07 0)
(6.7092e-09 -8.25221e-07 0)
(6.67449e-09 -8.26494e-07 0)
(6.63972e-09 -8.27764e-07 0)
(6.60487e-09 -8.29029e-07 0)
(6.56996e-09 -8.30291e-07 0)
(6.53497e-09 -8.31549e-07 0)
(6.49992e-09 -8.32804e-07 0)
(6.46479e-09 -8.34054e-07 0)
(6.4296e-09 -8.35301e-07 0)
(6.39435e-09 -8.36544e-07 0)
(6.35903e-09 -8.37783e-07 0)
(6.32364e-09 -8.39018e-07 0)
(6.28818e-09 -8.40249e-07 0)
(6.25267e-09 -8.41476e-07 0)
(6.21708e-09 -8.42699e-07 0)
(6.18144e-09 -8.43917e-07 0)
(6.14573e-09 -8.45132e-07 0)
(6.10997e-09 -8.46342e-07 0)
(6.07414e-09 -8.47548e-07 0)
(6.03825e-09 -8.4875e-07 0)
(6.0023e-09 -8.49948e-07 0)
(5.96629e-09 -8.51141e-07 0)
(5.93023e-09 -8.5233e-07 0)
(5.8941e-09 -8.53514e-07 0)
(5.85792e-09 -8.54694e-07 0)
(5.82169e-09 -8.55869e-07 0)
(5.7854e-09 -8.5704e-07 0)
(5.74906e-09 -8.58206e-07 0)
(5.71266e-09 -8.59368e-07 0)
(5.67621e-09 -8.60525e-07 0)
(5.63971e-09 -8.61677e-07 0)
(5.60316e-09 -8.62825e-07 0)
(5.56655e-09 -8.63968e-07 0)
(5.5299e-09 -8.65105e-07 0)
(5.4932e-09 -8.66238e-07 0)
(5.45645e-09 -8.67367e-07 0)
(5.41966e-09 -8.6849e-07 0)
(5.38282e-09 -8.69608e-07 0)
(5.34594e-09 -8.70721e-07 0)
(5.309e-09 -8.71829e-07 0)
(5.27207e-09 -8.72932e-07 0)
(5.23487e-09 -8.74032e-07 0)
(5.1986e-09 -8.75118e-07 0)
(5.16381e-09 -8.76148e-07 0)
(5.12971e-09 -8.77125e-07 0)
(5.09604e-09 -8.78089e-07 0)
(5.06223e-09 -8.7906e-07 0)
(5.02813e-09 -8.80039e-07 0)
(4.99371e-09 -8.81023e-07 0)
(4.95896e-09 -8.82009e-07 0)
(4.92389e-09 -8.82999e-07 0)
(4.88848e-09 -8.83993e-07 0)
(4.85274e-09 -8.8499e-07 0)
(4.81666e-09 -8.85991e-07 0)
(4.78025e-09 -8.86995e-07 0)
(4.74349e-09 -8.88002e-07 0)
(4.70639e-09 -8.89012e-07 0)
(4.66895e-09 -8.90025e-07 0)
(4.63117e-09 -8.9104e-07 0)
(4.59303e-09 -8.92059e-07 0)
(4.55455e-09 -8.9308e-07 0)
(4.51573e-09 -8.94103e-07 0)
(4.47655e-09 -8.95129e-07 0)
(4.43701e-09 -8.96156e-07 0)
(4.39713e-09 -8.97186e-07 0)
(4.35689e-09 -8.98217e-07 0)
(4.31629e-09 -8.9925e-07 0)
(4.27534e-09 -9.00284e-07 0)
(4.23403e-09 -9.01319e-07 0)
(4.19236e-09 -9.02356e-07 0)
(4.15034e-09 -9.03393e-07 0)
(4.10795e-09 -9.04431e-07 0)
(4.0652e-09 -9.0547e-07 0)
(4.02209e-09 -9.06508e-07 0)
(3.97862e-09 -9.07547e-07 0)
(3.93479e-09 -9.08586e-07 0)
(3.89059e-09 -9.09624e-07 0)
(3.84603e-09 -9.10661e-07 0)
(3.80111e-09 -9.11698e-07 0)
(3.75583e-09 -9.12733e-07 0)
(3.71019e-09 -9.13768e-07 0)
(3.66418e-09 -9.148e-07 0)
(3.61781e-09 -9.15831e-07 0)
(3.57108e-09 -9.16859e-07 0)
(3.52399e-09 -9.17886e-07 0)
(3.47654e-09 -9.18909e-07 0)
(3.42873e-09 -9.1993e-07 0)
(3.38057e-09 -9.20947e-07 0)
(3.33205e-09 -9.2196e-07 0)
(3.28317e-09 -9.2297e-07 0)
(3.23394e-09 -9.23976e-07 0)
(3.18436e-09 -9.24977e-07 0)
(3.13443e-09 -9.25973e-07 0)
(3.08416e-09 -9.26965e-07 0)
(3.03354e-09 -9.2795e-07 0)
(2.98257e-09 -9.2893e-07 0)
(2.93127e-09 -9.29904e-07 0)
(2.87963e-09 -9.30871e-07 0)
(2.82765e-09 -9.31831e-07 0)
(2.77534e-09 -9.32783e-07 0)
(2.72271e-09 -9.33728e-07 0)
(2.66975e-09 -9.34665e-07 0)
(2.61647e-09 -9.35594e-07 0)
(2.56288e-09 -9.36513e-07 0)
(2.50897e-09 -9.37424e-07 0)
(2.45476e-09 -9.38324e-07 0)
(2.40025e-09 -9.39214e-07 0)
(2.34544e-09 -9.40094e-07 0)
(2.29033e-09 -9.40962e-07 0)
(2.23494e-09 -9.4182e-07 0)
(2.17927e-09 -9.42665e-07 0)
(2.12333e-09 -9.43497e-07 0)
(2.06712e-09 -9.44317e-07 0)
(2.01064e-09 -9.45123e-07 0)
(1.95391e-09 -9.45916e-07 0)
(1.89694e-09 -9.46694e-07 0)
(1.83972e-09 -9.47457e-07 0)
(1.78228e-09 -9.48204e-07 0)
(1.7246e-09 -9.48936e-07 0)
(1.66672e-09 -9.49651e-07 0)
(1.60862e-09 -9.50349e-07 0)
(1.55033e-09 -9.5103e-07 0)
(1.49185e-09 -9.51693e-07 0)
(1.43319e-09 -9.52337e-07 0)
(1.37436e-09 -9.52961e-07 0)
(1.31537e-09 -9.53566e-07 0)
(1.25623e-09 -9.54151e-07 0)
(1.19695e-09 -9.54715e-07 0)
(1.13755e-09 -9.55257e-07 0)
(1.07804e-09 -9.55777e-07 0)
(1.01842e-09 -9.56274e-07 0)
(9.58706e-10 -9.56748e-07 0)
(8.98918e-10 -9.57198e-07 0)
(8.39065e-10 -9.57624e-07 0)
(7.79159e-10 -9.58025e-07 0)
(7.19216e-10 -9.58399e-07 0)
(6.59248e-10 -9.58748e-07 0)
(5.9927e-10 -9.59069e-07 0)
(5.39297e-10 -9.59363e-07 0)
(4.79343e-10 -9.59628e-07 0)
(4.19424e-10 -9.59865e-07 0)
(3.59555e-10 -9.60072e-07 0)
(2.99753e-10 -9.60248e-07 0)
(2.40033e-10 -9.60394e-07 0)
(1.80413e-10 -9.60509e-07 0)
(1.20908e-10 -9.60591e-07 0)
(6.15371e-11 -9.60641e-07 0)
(2.31685e-12 -9.60658e-07 0)
(-5.67347e-11 -9.6064e-07 0)
(-1.156e-10 -9.60588e-07 0)
(-1.74259e-10 -9.605e-07 0)
(-2.32695e-10 -9.60376e-07 0)
(-2.90888e-10 -9.60216e-07 0)
(-3.48818e-10 -9.60019e-07 0)
(-4.06468e-10 -9.59784e-07 0)
(-4.63816e-10 -9.59511e-07 0)
(-5.20842e-10 -9.59198e-07 0)
(-5.77528e-10 -9.58846e-07 0)
(-6.33852e-10 -9.58454e-07 0)
(-6.89794e-10 -9.58021e-07 0)
(-7.45333e-10 -9.57546e-07 0)
(-8.00449e-10 -9.5703e-07 0)
(-8.55119e-10 -9.56471e-07 0)
(-9.09325e-10 -9.55869e-07 0)
(-9.63043e-10 -9.55223e-07 0)
(-1.01625e-09 -9.54533e-07 0)
(-1.06893e-09 -9.53799e-07 0)
(-1.12106e-09 -9.53019e-07 0)
(-1.17262e-09 -9.52194e-07 0)
(-1.22358e-09 -9.51322e-07 0)
(-1.27393e-09 -9.50404e-07 0)
(-1.32364e-09 -9.49439e-07 0)
(-1.37269e-09 -9.48426e-07 0)
(-1.42107e-09 -9.47366e-07 0)
(-1.46874e-09 -9.46257e-07 0)
(-1.51569e-09 -9.451e-07 0)
(-1.5619e-09 -9.43893e-07 0)
(-1.60735e-09 -9.42637e-07 0)
(-1.65201e-09 -9.41332e-07 0)
(-1.69587e-09 -9.39976e-07 0)
(-1.7389e-09 -9.38571e-07 0)
(-1.7811e-09 -9.37115e-07 0)
(-1.82242e-09 -9.35608e-07 0)
(-1.86287e-09 -9.3405e-07 0)
(-1.90242e-09 -9.32441e-07 0)
(-1.94105e-09 -9.30782e-07 0)
(-1.97874e-09 -9.2907e-07 0)
(-2.01547e-09 -9.27308e-07 0)
(-2.05124e-09 -9.25494e-07 0)
(-2.08602e-09 -9.23629e-07 0)
(-2.11979e-09 -9.21712e-07 0)
(-2.15255e-09 -9.19744e-07 0)
(-2.18427e-09 -9.17724e-07 0)
(-2.21494e-09 -9.15653e-07 0)
(-2.24456e-09 -9.13531e-07 0)
(-2.27309e-09 -9.11358e-07 0)
(-2.30055e-09 -9.09135e-07 0)
(-2.3269e-09 -9.0686e-07 0)
(-2.35215e-09 -9.04536e-07 0)
(-2.37627e-09 -9.02161e-07 0)
(-2.39927e-09 -8.99737e-07 0)
(-2.42113e-09 -8.97264e-07 0)
(-2.44185e-09 -8.94741e-07 0)
(-2.46141e-09 -8.9217e-07 0)
(-2.47982e-09 -8.89551e-07 0)
(-2.49706e-09 -8.86885e-07 0)
(-2.51314e-09 -8.84172e-07 0)
(-2.52804e-09 -8.81412e-07 0)
(-2.54178e-09 -8.78606e-07 0)
(-2.55433e-09 -8.75756e-07 0)
(-2.56571e-09 -8.7286e-07 0)
(-2.57591e-09 -8.69922e-07 0)
(-2.58494e-09 -8.6694e-07 0)
(-2.59279e-09 -8.63916e-07 0)
(-2.59946e-09 -8.6085e-07 0)
(-2.60497e-09 -8.57744e-07 0)
(-2.60932e-09 -8.54598e-07 0)
(-2.6125e-09 -8.51414e-07 0)
(-2.61453e-09 -8.48192e-07 0)
(-2.61542e-09 -8.44933e-07 0)
(-2.61516e-09 -8.41638e-07 0)
(-2.61376e-09 -8.38307e-07 0)
(-2.61132e-09 -8.34947e-07 0)
(-2.60743e-09 -8.31516e-07 0)
(-2.6019e-09 -8.27727e-07 0)
(-2.59485e-09 -8.23576e-07 0)
(-2.58613e-09 -8.19354e-07 0)
(-2.57595e-09 -8.15156e-07 0)
(-2.56446e-09 -8.10999e-07 0)
(-2.55174e-09 -8.06867e-07 0)
(-2.53786e-09 -8.02751e-07 0)
(-2.52288e-09 -7.98655e-07 0)
(-2.50687e-09 -7.94585e-07 0)
(-2.48988e-09 -7.90542e-07 0)
(-2.47198e-09 -7.86528e-07 0)
(-2.45322e-09 -7.82544e-07 0)
(-2.43365e-09 -7.78591e-07 0)
(-2.41333e-09 -7.74669e-07 0)
(-2.39229e-09 -7.70782e-07 0)
(-2.37059e-09 -7.66929e-07 0)
(-2.34826e-09 -7.63112e-07 0)
(-2.32535e-09 -7.59331e-07 0)
(-2.30189e-09 -7.55588e-07 0)
(-2.27793e-09 -7.51883e-07 0)
(-2.25349e-09 -7.48218e-07 0)
(-2.22861e-09 -7.44592e-07 0)
(-2.20331e-09 -7.41007e-07 0)
(-2.17763e-09 -7.37464e-07 0)
(-2.15159e-09 -7.33962e-07 0)
(-2.12522e-09 -7.30502e-07 0)
(-2.09854e-09 -7.27086e-07 0)
(-2.07157e-09 -7.23713e-07 0)
(-2.04433e-09 -7.20384e-07 0)
(-2.01685e-09 -7.17099e-07 0)
(-1.98913e-09 -7.13859e-07 0)
(-1.9612e-09 -7.10663e-07 0)
(-1.93307e-09 -7.07514e-07 0)
(-1.90475e-09 -7.04409e-07 0)
(-1.87626e-09 -7.01351e-07 0)
(-1.8476e-09 -6.98339e-07 0)
(-1.8188e-09 -6.95374e-07 0)
(-1.78986e-09 -6.92455e-07 0)
(-1.76078e-09 -6.89583e-07 0)
(-1.73158e-09 -6.86759e-07 0)
(-1.70226e-09 -6.83981e-07 0)
(-1.67284e-09 -6.81251e-07 0)
(-1.64331e-09 -6.78569e-07 0)
(-1.61368e-09 -6.75935e-07 0)
(-1.58395e-09 -6.73349e-07 0)
(-1.55414e-09 -6.70811e-07 0)
(-1.52424e-09 -6.68321e-07 0)
(-1.49426e-09 -6.65879e-07 0)
(-1.4642e-09 -6.63487e-07 0)
(-1.43406e-09 -6.61142e-07 0)
(-1.40384e-09 -6.58847e-07 0)
(-1.37356e-09 -6.56601e-07 0)
(-1.34319e-09 -6.54403e-07 0)
(-1.31276e-09 -6.52255e-07 0)
(-1.28225e-09 -6.50156e-07 0)
(-1.25168e-09 -6.48107e-07 0)
(-1.22104e-09 -6.46107e-07 0)
(-1.19032e-09 -6.44157e-07 0)
(-1.15954e-09 -6.42256e-07 0)
(-1.12869e-09 -6.40405e-07 0)
(-1.09777e-09 -6.38605e-07 0)
(-1.06679e-09 -6.36854e-07 0)
(-1.03573e-09 -6.35153e-07 0)
(-1.00461e-09 -6.33503e-07 0)
(-9.7342e-10 -6.31903e-07 0)
(-9.42163e-10 -6.30354e-07 0)
(-9.10839e-10 -6.28855e-07 0)
(-8.79449e-10 -6.27407e-07 0)
(-8.47992e-10 -6.2601e-07 0)
(-8.1647e-10 -6.24664e-07 0)
(-7.84884e-10 -6.23369e-07 0)
(-7.53233e-10 -6.22124e-07 0)
(-7.2152e-10 -6.20932e-07 0)
(-6.89744e-10 -6.1979e-07 0)
(-6.57909e-10 -6.187e-07 0)
(-6.26014e-10 -6.17662e-07 0)
(-5.94062e-10 -6.16675e-07 0)
(-5.62054e-10 -6.1574e-07 0)
(-5.29992e-10 -6.14856e-07 0)
(-4.97879e-10 -6.14025e-07 0)
(-4.65716e-10 -6.13246e-07 0)
(-4.33506e-10 -6.12518e-07 0)
(-4.01251e-10 -6.11843e-07 0)
(-3.68954e-10 -6.1122e-07 0)
(-3.36619e-10 -6.10649e-07 0)
(-3.04247e-10 -6.10134e-07 0)
(-2.71841e-10 -6.09655e-07 0)
(-2.39411e-10 -6.09284e-07 0)
(-2.06934e-10 -6.08781e-07 0)
(-1.74498e-10 -6.08935e-07 0)
(-1.41831e-10 -6.07098e-07 0)
(-1.09858e-10 -6.11833e-07 0)
(-7.56073e-11 -5.93375e-07 0)
(-4.93597e-11 -6.42e-07 0)
(-2.09399e-11 -5.60689e-07 0)
)
;
    }
    bottomWall
    {
        type            calculated;
        value           nonuniform List<vector> 
449
(
(-48.5424 -0.964245 0)
(-19.7551 -0.00515647 0)
(-14.3463 -0.0011351 0)
(-12.036 -0.000545653 0)
(-10.6295 -0.000351614 0)
(-9.63531 -0.000256082 0)
(-8.87698 -0.000198555 0)
(-8.27326 -0.000159872 0)
(-7.77765 -0.000132372 0)
(-7.36087 -0.000112018 0)
(-7.00374 -9.6412e-05 0)
(-6.69321 -8.41008e-05 0)
(-6.41995 -7.41794e-05 0)
(-6.17707 -6.60489e-05 0)
(-5.95931 -5.92895e-05 0)
(-5.76259 -5.3598e-05 0)
(-5.58372 -4.8752e-05 0)
(-5.42016 -4.45857e-05 0)
(-5.26982 -4.09729e-05 0)
(-5.13101 -3.78161e-05 0)
(-5.00231 -3.50388e-05 0)
(-4.88256 -3.25802e-05 0)
(-4.77076 -3.03914e-05 0)
(-4.66605 -2.84327e-05 0)
(-4.56772 -2.66719e-05 0)
(-4.47514 -2.5082e-05 0)
(-4.38777 -2.36408e-05 0)
(-4.30513 -2.23295e-05 0)
(-4.2268 -2.11324e-05 0)
(-4.15243 -2.00361e-05 0)
(-4.08169 -1.90292e-05 0)
(-4.01429 -1.81017e-05 0)
(-3.94997 -1.72452e-05 0)
(-3.8885 -1.64524e-05 0)
(-3.82968 -1.57169e-05 0)
(-3.77332 -1.5033e-05 0)
(-3.71925 -1.43959e-05 0)
(-3.66732 -1.38011e-05 0)
(-3.61739 -1.32449e-05 0)
(-3.56933 -1.27239e-05 0)
(-3.52303 -1.22351e-05 0)
(-3.47839 -1.17757e-05 0)
(-3.4353 -1.13434e-05 0)
(-3.39367 -1.0936e-05 0)
(-3.35343 -1.05514e-05 0)
(-3.3145 -1.01881e-05 0)
(-3.27681 -9.84435e-06 0)
(-3.24029 -9.51876e-06 0)
(-3.20488 -9.21001e-06 0)
(-3.17052 -8.91691e-06 0)
(-3.13718 -8.6384e-06 0)
(-3.10478 -8.37347e-06 0)
(-3.0733 -8.12123e-06 0)
(-3.04269 -7.88084e-06 0)
(-3.0129 -7.65155e-06 0)
(-2.9839 -7.43266e-06 0)
(-2.95566 -7.22352e-06 0)
(-2.92815 -7.02354e-06 0)
(-2.90132 -6.83218e-06 0)
(-2.87516 -6.64892e-06 0)
(-2.84964 -6.47331e-06 0)
(-2.82472 -6.30489e-06 0)
(-2.8004 -6.14328e-06 0)
(-2.77663 -5.98809e-06 0)
(-2.75341 -5.83898e-06 0)
(-2.7307 -5.69563e-06 0)
(-2.7085 -5.55772e-06 0)
(-2.68678 -5.42497e-06 0)
(-2.66553 -5.29713e-06 0)
(-2.64472 -5.17395e-06 0)
(-2.62435 -5.05518e-06 0)
(-2.60439 -4.94063e-06 0)
(-2.58484 -4.83007e-06 0)
(-2.56568 -4.72333e-06 0)
(-2.54689 -4.62022e-06 0)
(-2.52847 -4.52057e-06 0)
(-2.5104 -4.42423e-06 0)
(-2.49267 -4.33104e-06 0)
(-2.47527 -4.24087e-06 0)
(-2.4582 -4.15358e-06 0)
(-2.44143 -4.06904e-06 0)
(-2.42496 -3.98714e-06 0)
(-2.40878 -3.90776e-06 0)
(-2.39289 -3.8308e-06 0)
(-2.37727 -3.75616e-06 0)
(-2.36192 -3.68374e-06 0)
(-2.34683 -3.61345e-06 0)
(-2.33198 -3.54521e-06 0)
(-2.31739 -3.47893e-06 0)
(-2.30303 -3.41454e-06 0)
(-2.2889 -3.35196e-06 0)
(-2.27499 -3.29113e-06 0)
(-2.26131 -3.23198e-06 0)
(-2.24784 -3.17444e-06 0)
(-2.23457 -3.11845e-06 0)
(-2.22151 -3.06397e-06 0)
(-2.20865 -3.01092e-06 0)
(-2.19597 -2.95927e-06 0)
(-2.18349 -2.90895e-06 0)
(-2.17118 -2.85994e-06 0)
(-2.15906 -2.81216e-06 0)
(-2.14711 -2.7656e-06 0)
(-2.13532 -2.72019e-06 0)
(-2.1237 -2.67591e-06 0)
(-2.11225 -2.63272e-06 0)
(-2.10095 -2.59058e-06 0)
(-2.0898 -2.54945e-06 0)
(-2.07881 -2.5093e-06 0)
(-2.06796 -2.4701e-06 0)
(-2.05726 -2.43182e-06 0)
(-2.04669 -2.39443e-06 0)
(-2.03627 -2.3579e-06 0)
(-2.02597 -2.32221e-06 0)
(-2.01581 -2.28732e-06 0)
(-2.00578 -2.25322e-06 0)
(-1.99587 -2.21988e-06 0)
(-1.98609 -2.18727e-06 0)
(-1.97642 -2.15538e-06 0)
(-1.96688 -2.12418e-06 0)
(-1.95745 -2.09366e-06 0)
(-1.94813 -2.06379e-06 0)
(-1.93892 -2.03455e-06 0)
(-1.92983 -2.00592e-06 0)
(-1.92083 -1.9779e-06 0)
(-1.91195 -1.95046e-06 0)
(-1.90316 -1.92358e-06 0)
(-1.89448 -1.89725e-06 0)
(-1.88589 -1.87145e-06 0)
(-1.8774 -1.84617e-06 0)
(-1.86901 -1.8214e-06 0)
(-1.8607 -1.79712e-06 0)
(-1.85249 -1.77331e-06 0)
(-1.84437 -1.74997e-06 0)
(-1.83633 -1.72709e-06 0)
(-1.82838 -1.70464e-06 0)
(-1.82052 -1.68262e-06 0)
(-1.81274 -1.66103e-06 0)
(-1.80504 -1.63983e-06 0)
(-1.79742 -1.61904e-06 0)
(-1.78988 -1.59863e-06 0)
(-1.78241 -1.5786e-06 0)
(-1.77502 -1.55894e-06 0)
(-1.76771 -1.53964e-06 0)
(-1.76047 -1.52069e-06 0)
(-1.7533 -1.50207e-06 0)
(-1.7462 -1.48379e-06 0)
(-1.73917 -1.46584e-06 0)
(-1.73221 -1.4482e-06 0)
(-1.72532 -1.43087e-06 0)
(-1.71849 -1.41384e-06 0)
(-1.71173 -1.39711e-06 0)
(-1.70504 -1.38067e-06 0)
(-1.6984 -1.36451e-06 0)
(-1.69183 -1.34862e-06 0)
(-1.68532 -1.333e-06 0)
(-1.67887 -1.31764e-06 0)
(-1.67247 -1.30254e-06 0)
(-1.66614 -1.28769e-06 0)
(-1.65986 -1.27309e-06 0)
(-1.65364 -1.25872e-06 0)
(-1.64748 -1.24459e-06 0)
(-1.64137 -1.23069e-06 0)
(-1.63531 -1.21701e-06 0)
(-1.62931 -1.20355e-06 0)
(-1.62336 -1.19031e-06 0)
(-1.61746 -1.17728e-06 0)
(-1.61161 -1.16445e-06 0)
(-1.60581 -1.15183e-06 0)
(-1.60006 -1.13943e-06 0)
(-1.59436 -1.12709e-06 0)
(-1.5887 -1.11538e-06 0)
(-1.58309 -1.10327e-06 0)
(-1.57754 -1.09012e-06 0)
(-1.57234 -1.07994e-06 0)
(-1.56745 -1.07169e-06 0)
(-1.56255 -1.06132e-06 0)
(-1.55765 -1.05062e-06 0)
(-1.55275 -1.04059e-06 0)
(-1.54783 -1.03054e-06 0)
(-1.54292 -1.02061e-06 0)
(-1.538 -1.01075e-06 0)
(-1.53307 -1.00095e-06 0)
(-1.52813 -9.91208e-07 0)
(-1.5232 -9.81527e-07 0)
(-1.51825 -9.71902e-07 0)
(-1.51331 -9.62333e-07 0)
(-1.50835 -9.5282e-07 0)
(-1.5034 -9.43362e-07 0)
(-1.49844 -9.3396e-07 0)
(-1.49347 -9.24613e-07 0)
(-1.48851 -9.15322e-07 0)
(-1.48354 -9.06086e-07 0)
(-1.47856 -8.96907e-07 0)
(-1.47358 -8.87784e-07 0)
(-1.4686 -8.78717e-07 0)
(-1.46362 -8.69707e-07 0)
(-1.45864 -8.60753e-07 0)
(-1.45365 -8.51857e-07 0)
(-1.44866 -8.43019e-07 0)
(-1.44367 -8.34238e-07 0)
(-1.43868 -8.25514e-07 0)
(-1.43368 -8.16849e-07 0)
(-1.42869 -8.08242e-07 0)
(-1.42369 -7.99693e-07 0)
(-1.41869 -7.91203e-07 0)
(-1.4137 -7.82772e-07 0)
(-1.4087 -7.74399e-07 0)
(-1.4037 -7.66085e-07 0)
(-1.3987 -7.57831e-07 0)
(-1.3937 -7.49635e-07 0)
(-1.38871 -7.41499e-07 0)
(-1.38371 -7.33423e-07 0)
(-1.37871 -7.25405e-07 0)
(-1.37372 -7.17448e-07 0)
(-1.36872 -7.0955e-07 0)
(-1.36373 -7.01712e-07 0)
(-1.35874 -6.93933e-07 0)
(-1.35375 -6.86214e-07 0)
(-1.34876 -6.78556e-07 0)
(-1.34378 -6.70956e-07 0)
(-1.3388 -6.63417e-07 0)
(-1.33382 -6.55938e-07 0)
(-1.32884 -6.48518e-07 0)
(-1.32386 -6.41158e-07 0)
(-1.31889 -6.33858e-07 0)
(-1.31393 -6.26618e-07 0)
(-1.30896 -6.19437e-07 0)
(-1.304 -6.12316e-07 0)
(-1.29904 -6.05254e-07 0)
(-1.29409 -5.98252e-07 0)
(-1.28914 -5.91309e-07 0)
(-1.2842 -5.84426e-07 0)
(-1.27926 -5.77602e-07 0)
(-1.27432 -5.70837e-07 0)
(-1.26939 -5.6413e-07 0)
(-1.26446 -5.57483e-07 0)
(-1.25954 -5.50894e-07 0)
(-1.25463 -5.44364e-07 0)
(-1.24972 -5.37893e-07 0)
(-1.24482 -5.31479e-07 0)
(-1.23992 -5.25124e-07 0)
(-1.23503 -5.18827e-07 0)
(-1.23014 -5.12588e-07 0)
(-1.22526 -5.06406e-07 0)
(-1.22039 -5.00281e-07 0)
(-1.21552 -4.94214e-07 0)
(-1.21067 -4.88204e-07 0)
(-1.20581 -4.8225e-07 0)
(-1.20097 -4.76353e-07 0)
(-1.19613 -4.70513e-07 0)
(-1.1913 -4.64729e-07 0)
(-1.18648 -4.59e-07 0)
(-1.18166 -4.53328e-07 0)
(-1.17686 -4.47711e-07 0)
(-1.17206 -4.42149e-07 0)
(-1.16727 -4.36642e-07 0)
(-1.16249 -4.31189e-07 0)
(-1.15771 -4.25791e-07 0)
(-1.15295 -4.20448e-07 0)
(-1.14819 -4.15158e-07 0)
(-1.14344 -4.09922e-07 0)
(-1.13871 -4.04739e-07 0)
(-1.13398 -3.99609e-07 0)
(-1.12926 -3.94532e-07 0)
(-1.12455 -3.89508e-07 0)
(-1.11984 -3.84536e-07 0)
(-1.11515 -3.79615e-07 0)
(-1.11047 -3.74747e-07 0)
(-1.1058 -3.69929e-07 0)
(-1.10114 -3.65163e-07 0)
(-1.09649 -3.60447e-07 0)
(-1.09184 -3.55782e-07 0)
(-1.08721 -3.51167e-07 0)
(-1.08259 -3.46601e-07 0)
(-1.07798 -3.42085e-07 0)
(-1.07338 -3.37618e-07 0)
(-1.0688 -3.332e-07 0)
(-1.06422 -3.2883e-07 0)
(-1.05965 -3.24508e-07 0)
(-1.0551 -3.20234e-07 0)
(-1.05055 -3.16008e-07 0)
(-1.04602 -3.11828e-07 0)
(-1.0415 -3.07696e-07 0)
(-1.03699 -3.0361e-07 0)
(-1.03249 -2.99569e-07 0)
(-1.028 -2.95575e-07 0)
(-1.02353 -2.91626e-07 0)
(-1.01906 -2.87722e-07 0)
(-1.01461 -2.83863e-07 0)
(-1.01017 -2.80048e-07 0)
(-1.00574 -2.76277e-07 0)
(-1.00133 -2.7255e-07 0)
(-0.996926 -2.68866e-07 0)
(-0.992536 -2.65225e-07 0)
(-0.988158 -2.61627e-07 0)
(-0.983793 -2.58071e-07 0)
(-0.97944 -2.54557e-07 0)
(-0.9751 -2.51084e-07 0)
(-0.970773 -2.47653e-07 0)
(-0.966458 -2.44262e-07 0)
(-0.962156 -2.40912e-07 0)
(-0.957868 -2.37603e-07 0)
(-0.953592 -2.34333e-07 0)
(-0.949329 -2.31102e-07 0)
(-0.94508 -2.2791e-07 0)
(-0.940843 -2.24757e-07 0)
(-0.93662 -2.21643e-07 0)
(-0.93241 -2.18567e-07 0)
(-0.928214 -2.15528e-07 0)
(-0.924031 -2.12527e-07 0)
(-0.919861 -2.09562e-07 0)
(-0.915705 -2.06635e-07 0)
(-0.911563 -2.03743e-07 0)
(-0.907434 -2.00888e-07 0)
(-0.903319 -1.98068e-07 0)
(-0.899217 -1.95283e-07 0)
(-0.89513 -1.92534e-07 0)
(-0.891056 -1.89818e-07 0)
(-0.886996 -1.87138e-07 0)
(-0.88295 -1.84491e-07 0)
(-0.878918 -1.81877e-07 0)
(-0.874899 -1.79297e-07 0)
(-0.870895 -1.7675e-07 0)
(-0.866905 -1.74235e-07 0)
(-0.862929 -1.71753e-07 0)
(-0.858967 -1.69302e-07 0)
(-0.855019 -1.66883e-07 0)
(-0.851085 -1.64495e-07 0)
(-0.847165 -1.62138e-07 0)
(-0.84326 -1.59812e-07 0)
(-0.839369 -1.57516e-07 0)
(-0.835492 -1.5525e-07 0)
(-0.831629 -1.53013e-07 0)
(-0.827781 -1.50806e-07 0)
(-0.823947 -1.48628e-07 0)
(-0.820127 -1.46478e-07 0)
(-0.816322 -1.44357e-07 0)
(-0.812531 -1.42264e-07 0)
(-0.808755 -1.40198e-07 0)
(-0.804993 -1.3816e-07 0)
(-0.801245 -1.3615e-07 0)
(-0.797512 -1.34166e-07 0)
(-0.793793 -1.32208e-07 0)
(-0.790089 -1.30277e-07 0)
(-0.786399 -1.28371e-07 0)
(-0.782724 -1.26491e-07 0)
(-0.779063 -1.24636e-07 0)
(-0.775417 -1.22806e-07 0)
(-0.771785 -1.21e-07 0)
(-0.768168 -1.1922e-07 0)
(-0.764565 -1.1746e-07 0)
(-0.760978 -1.1569e-07 0)
(-0.757406 -1.14063e-07 0)
(-0.753842 -1.12447e-07 0)
(-0.749897 -1.10482e-07 0)
(-0.745619 -1.08398e-07 0)
(-0.741418 -1.06521e-07 0)
(-0.737287 -1.0474e-07 0)
(-0.733226 -1.02946e-07 0)
(-0.729235 -1.01186e-07 0)
(-0.725311 -9.94706e-08 0)
(-0.721454 -9.78011e-08 0)
(-0.717662 -9.61762e-08 0)
(-0.713932 -9.45947e-08 0)
(-0.710263 -9.30552e-08 0)
(-0.706654 -9.15564e-08 0)
(-0.703102 -9.00969e-08 0)
(-0.699607 -8.86754e-08 0)
(-0.696166 -8.72905e-08 0)
(-0.692779 -8.59409e-08 0)
(-0.689444 -8.46254e-08 0)
(-0.68616 -8.33427e-08 0)
(-0.682926 -8.20919e-08 0)
(-0.67974 -8.08717e-08 0)
(-0.6766 -7.96811e-08 0)
(-0.673507 -7.85192e-08 0)
(-0.670459 -7.7385e-08 0)
(-0.667455 -7.62776e-08 0)
(-0.664493 -7.51961e-08 0)
(-0.661573 -7.41397e-08 0)
(-0.658695 -7.31076e-08 0)
(-0.655856 -7.2099e-08 0)
(-0.653055 -7.11132e-08 0)
(-0.650294 -7.01494e-08 0)
(-0.647569 -6.9207e-08 0)
(-0.644881 -6.82854e-08 0)
(-0.642228 -6.73838e-08 0)
(-0.639611 -6.65018e-08 0)
(-0.637027 -6.56387e-08 0)
(-0.634477 -6.4794e-08 0)
(-0.631959 -6.39671e-08 0)
(-0.629474 -6.31575e-08 0)
(-0.62702 -6.23647e-08 0)
(-0.624596 -6.15882e-08 0)
(-0.622203 -6.08277e-08 0)
(-0.619839 -6.00826e-08 0)
(-0.617504 -5.93524e-08 0)
(-0.615197 -5.86369e-08 0)
(-0.612918 -5.79356e-08 0)
(-0.610666 -5.72481e-08 0)
(-0.60844 -5.6574e-08 0)
(-0.606241 -5.5913e-08 0)
(-0.604067 -5.52648e-08 0)
(-0.601919 -5.4629e-08 0)
(-0.599795 -5.40053e-08 0)
(-0.597695 -5.33934e-08 0)
(-0.595619 -5.2793e-08 0)
(-0.593566 -5.22038e-08 0)
(-0.591536 -5.16255e-08 0)
(-0.589529 -5.10579e-08 0)
(-0.587543 -5.05007e-08 0)
(-0.585579 -4.99536e-08 0)
(-0.583636 -4.94165e-08 0)
(-0.581714 -4.88891e-08 0)
(-0.579813 -4.83712e-08 0)
(-0.577931 -4.78626e-08 0)
(-0.57607 -4.7363e-08 0)
(-0.574227 -4.68723e-08 0)
(-0.572404 -4.63904e-08 0)
(-0.570599 -4.5917e-08 0)
(-0.568813 -4.54519e-08 0)
(-0.567044 -4.49951e-08 0)
(-0.565294 -4.45464e-08 0)
(-0.563561 -4.41057e-08 0)
(-0.561845 -4.36729e-08 0)
(-0.560145 -4.32479e-08 0)
(-0.558462 -4.28306e-08 0)
(-0.556796 -4.2421e-08 0)
(-0.555145 -4.20192e-08 0)
(-0.553509 -4.16251e-08 0)
(-0.551889 -4.12388e-08 0)
(-0.550284 -4.08606e-08 0)
(-0.548694 -4.04907e-08 0)
(-0.547118 -4.01296e-08 0)
(-0.545555 -3.97777e-08 0)
(-0.544007 -3.9436e-08 0)
(-0.542471 -3.91059e-08 0)
(-0.540949 -3.87887e-08 0)
(-0.539438 -3.84874e-08 0)
(-0.537939 -3.82135e-08 0)
(-0.53645 -3.79413e-08 0)
(-0.534972 -3.77226e-08 0)
(-0.533499 -3.77656e-08 0)
(-0.532018 -3.71479e-08 0)
(-0.530595 -3.62816e-08 0)
(-0.52918 -4.80015e-08 0)
(-0.52684 -1.31935e-08 0)
(-0.52816 -3.52886e-08 0)
(-0.524038 -5.36277e-08 0)
)
;
    }
    symmetry
    {
        type            symmetryPlane;
    }
    frontAndBack
    {
        type            empty;
    }
}


// ************************************************************************* //
