/*--------------------------------*- C++ -*----------------------------------*\
| =========                 |                                                 |
| \\      /  F ield         | OpenFOAM: The Open Source CFD Toolbox           |
|  \\    /   O peration     | Version:  v2012                                 |
|   \\  /    A nd           | Website:  www.openfoam.com                      |
|    \\/     M anipulation  |                                                 |
\*---------------------------------------------------------------------------*/
FoamFile
{
    version     2.0;
    format      ascii;
    class       volScalarField;
    location    "14.5";
    object      yPlus;
}
// * * * * * * * * * * * * * * * * * * * * * * * * * * * * * * * * * * * * * //

dimensions      [0 0 0 0 0 0 0];


internalField   uniform 0;

boundaryField
{
    inlet
    {
        type            calculated;
        value           uniform 0;
    }
    outlet
    {
        type            calculated;
        value           uniform 0;
    }
    topWall
    {
        type            calculated;
        value           nonuniform List<scalar> 
545
(
0.110222
0.190476
0.244367
0.287154
0.323353
0.355
0.383244
0.408804
0.432171
0.4537
0.473653
0.492237
0.509613
0.525916
0.541253
0.555717
0.569387
0.582329
0.594603
0.606259
0.617343
0.627896
0.637952
0.647546
0.656706
0.665459
0.673829
0.681839
0.689509
0.696858
0.703903
0.71066
0.717145
0.723371
0.729352
0.735099
0.740623
0.745936
0.751047
0.755966
0.760701
0.765261
0.769654
0.773886
0.777966
0.781898
0.785691
0.789349
0.792878
0.796284
0.799571
0.802745
0.805809
0.808769
0.811628
0.81439
0.81706
0.81964
0.822134
0.824545
0.826877
0.829132
0.831313
0.833424
0.835465
0.837441
0.839353
0.841204
0.842995
0.844729
0.846409
0.848035
0.849588
0.851089
0.852576
0.85405
0.855511
0.856958
0.858391
0.859812
0.86122
0.862615
0.863997
0.865367
0.866725
0.86807
0.869403
0.870724
0.872033
0.873331
0.874617
0.875891
0.877154
0.878406
0.879646
0.880877
0.881976
0.882959
0.88394
0.88492
0.885899
0.886877
0.887854
0.88883
0.889805
0.890779
0.891751
0.892723
0.893693
0.894663
0.895631
0.896598
0.897564
0.898529
0.899492
0.900454
0.901416
0.902375
0.903334
0.904292
0.905248
0.906203
0.907156
0.908109
0.90906
0.91001
0.910958
0.911905
0.912851
0.913795
0.914738
0.91568
0.91662
0.917559
0.918496
0.919432
0.920366
0.921299
0.922231
0.923161
0.92409
0.925017
0.925942
0.926866
0.927788
0.928709
0.929628
0.930546
0.931462
0.932377
0.933289
0.9342
0.93511
0.936018
0.936924
0.937828
0.938731
0.939632
0.940531
0.941428
0.942324
0.943218
0.94411
0.945
0.945888
0.946775
0.94766
0.948542
0.949423
0.950302
0.951179
0.952054
0.952928
0.953799
0.954668
0.955535
0.9564
0.957264
0.958125
0.958984
0.959841
0.960696
0.961548
0.962399
0.963248
0.964094
0.964938
0.96578
0.96662
0.967458
0.968293
0.969126
0.969957
0.970786
0.971612
0.972436
0.973258
0.974077
0.974894
0.975709
0.976521
0.977331
0.978138
0.978943
0.979745
0.980545
0.981343
0.982138
0.98293
0.98372
0.984508
0.985292
0.986075
0.986854
0.987631
0.988406
0.989177
0.989946
0.990712
0.991476
0.992237
0.992995
0.99375
0.994503
0.995253
0.996
0.996744
0.997485
0.998223
0.998959
0.999692
1.00042
1.00115
1.00187
1.00259
1.00331
1.00403
1.00474
1.00545
1.00615
1.00685
1.00755
1.00825
1.00894
1.00963
1.01032
1.011
1.01169
1.01236
1.01304
1.01371
1.01438
1.01504
1.0157
1.01636
1.01701
1.01766
1.01831
1.01896
1.0196
1.02023
1.02087
1.0215
1.02213
1.02275
1.02337
1.02399
1.0246
1.02521
1.02578
1.02631
1.02684
1.02738
1.02792
1.02846
1.029
1.02955
1.03009
1.03064
1.03119
1.03174
1.0323
1.03285
1.03341
1.03396
1.03452
1.03508
1.03564
1.0362
1.03676
1.03732
1.03789
1.03845
1.03901
1.03958
1.04014
1.0407
1.04127
1.04183
1.04239
1.04296
1.04352
1.04408
1.04464
1.0452
1.04576
1.04632
1.04687
1.04743
1.04798
1.04853
1.04908
1.04963
1.05017
1.05071
1.05125
1.05179
1.05232
1.05285
1.05338
1.0539
1.05442
1.05493
1.05544
1.05594
1.05644
1.05694
1.05743
1.05791
1.05839
1.05887
1.05933
1.05979
1.06025
1.06069
1.06113
1.06156
1.06199
1.06241
1.06281
1.06321
1.0636
1.06398
1.06436
1.06472
1.06507
1.06541
1.06574
1.06606
1.06637
1.06667
1.06695
1.06723
1.06749
1.06773
1.06797
1.06819
1.06839
1.06858
1.06876
1.06892
1.06907
1.0692
1.06931
1.06941
1.06949
1.06956
1.0696
1.06963
1.06964
1.06963
1.0696
1.06955
1.06948
1.06939
1.06928
1.06915
1.069
1.06882
1.06863
1.06841
1.06817
1.0679
1.06761
1.0673
1.06696
1.06659
1.0662
1.06579
1.06535
1.06488
1.06438
1.06386
1.06331
1.06274
1.06213
1.0615
1.06083
1.06014
1.05942
1.05867
1.05788
1.05707
1.05623
1.05535
1.05445
1.05351
1.05254
1.05154
1.05051
1.04944
1.04834
1.04721
1.04605
1.04485
1.04362
1.04235
1.04106
1.03972
1.03836
1.03696
1.03553
1.03406
1.03256
1.03102
1.02946
1.02785
1.02622
1.02455
1.02285
1.02111
1.01934
1.01754
1.01571
1.01384
1.01194
1.01001
1.00805
1.00605
1.00403
1.00197
0.999883
0.997765
0.995619
0.993441
0.991237
0.989002
0.986742
0.984453
0.982136
0.979533
0.976667
0.9738
0.970938
0.968077
0.965224
0.962374
0.959535
0.956702
0.953882
0.95107
0.948273
0.945486
0.942717
0.93996
0.937222
0.934498
0.931795
0.929107
0.926442
0.923794
0.92117
0.918564
0.915983
0.913422
0.910887
0.908373
0.905887
0.903422
0.900986
0.898573
0.89619
0.893829
0.891501
0.889196
0.886923
0.884675
0.88246
0.880271
0.878116
0.875987
0.873892
0.871825
0.869793
0.867789
0.86582
0.863881
0.861977
0.860103
0.858266
0.856459
0.854689
0.85295
0.851249
0.849579
0.847948
0.846348
0.844788
0.84326
0.841771
0.840316
0.8389
0.837519
0.836177
0.83487
0.833603
0.832372
0.831181
0.830026
0.828912
0.827835
0.826799
0.8258
0.824843
0.823924
0.823046
0.822207
0.82141
0.820652
0.819936
0.81926
0.818626
0.818032
0.817481
0.81697
0.816502
0.816076
0.815692
0.81535
0.815052
0.814796
0.814585
0.814412
0.814304
0.814156
)
;
    }
    bottomWall
    {
        type            calculated;
        value           nonuniform List<scalar> 
449
(
0.00275401
0.00482695
0.00540211
0.00535326
0.00527538
0.00517127
0.00507156
0.00498291
0.00490213
0.00482582
0.00475257
0.00468229
0.0046152
0.00455164
0.00449138
0.00443445
0.00438078
0.00433007
0.00428226
0.00423716
0.00419443
0.00415407
0.00411575
0.00407934
0.00404488
0.00401203
0.00398072
0.00395079
0.00392222
0.00389479
0.00386878
0.00384371
0.00381974
0.00379656
0.00377438
0.00375293
0.00373247
0.00371253
0.00369351
0.00367495
0.00365719
0.0036398
0.00362308
0.00360678
0.00359109
0.00357575
0.00356098
0.00354658
0.00353264
0.00351909
0.00350592
0.00349306
0.00348048
0.00346838
0.00345644
0.00344489
0.00343348
0.00342248
0.00341165
0.00340112
0.00339079
0.00338072
0.00337084
0.00336127
0.00335184
0.0033426
0.0033335
0.00332465
0.0033159
0.00330731
0.00329891
0.00329072
0.00328269
0.00327472
0.00326694
0.00325927
0.00325174
0.00324437
0.00323715
0.00323013
0.00322315
0.00321629
0.00320947
0.00320281
0.00319628
0.00318988
0.00318362
0.00317734
0.00317111
0.00316505
0.00315907
0.00315325
0.00314752
0.00314186
0.00313634
0.00313088
0.00312544
0.00312006
0.00311479
0.00310957
0.00310448
0.00309938
0.0030944
0.00308948
0.00308465
0.00307981
0.00307509
0.00307035
0.00306565
0.00306108
0.00305651
0.00305214
0.00304778
0.00304355
0.00303938
0.00303527
0.00303114
0.00302704
0.00302301
0.00301906
0.00301503
0.00301107
0.00300717
0.00300334
0.00299958
0.00299594
0.00299231
0.00298876
0.0029852
0.00298165
0.00297808
0.00297452
0.002971
0.00296755
0.00296409
0.00296071
0.00295742
0.00295418
0.00295101
0.00294791
0.00294483
0.00294191
0.00293886
0.00293592
0.00293285
0.00292991
0.00292681
0.00292388
0.00292092
0.00291805
0.00291515
0.00291235
0.00290959
0.00290682
0.0029042
0.00290156
0.00289896
0.00289635
0.00289381
0.00289121
0.00288859
0.00288603
0.00288342
0.0028809
0.00287851
0.00287613
0.0028737
0.00287133
0.00286897
0.00286659
0.00286422
0.00286183
0.00285941
0.00285714
0.0028549
0.00285276
0.00285062
0.0028485
0.00284642
0.00284434
0.0028421
0.00283997
0.00283776
0.00283559
0.00283345
0.00283141
0.00282933
0.00282723
0.00282501
0.00282286
0.00282067
0.0028186
0.00281631
0.00281425
0.00281213
0.00281004
0.00280787
0.00280573
0.00280357
0.00280134
0.00279914
0.00279688
0.00279462
0.00279233
0.00279013
0.00278789
0.00278577
0.00278375
0.00278182
0.00277984
0.00277793
0.00277593
0.00277396
0.0027718
0.00276968
0.00276753
0.00276543
0.00276324
0.00276107
0.00275876
0.00275661
0.00275435
0.00275216
0.00274994
0.0027477
0.00274559
0.00274335
0.0027411
0.00273902
0.00273664
0.00273447
0.00273218
0.00272981
0.00272762
0.00272552
0.00272339
0.0027213
0.00271924
0.00271733
0.00271524
0.00271329
0.00271117
0.00270899
0.00270669
0.00270447
0.0027022
0.00269996
0.0026979
0.00269583
0.00269368
0.00269154
0.0026893
0.00268721
0.00268507
0.00268296
0.00268075
0.00267864
0.00267659
0.00267449
0.00267239
0.00267035
0.00266818
0.00266614
0.00266403
0.00266208
0.00265998
0.00265799
0.00265596
0.00265384
0.00265176
0.00264976
0.00264786
0.00264594
0.00264391
0.00264181
0.00263991
0.00263793
0.00263597
0.00263405
0.00263205
0.00263004
0.00262795
0.00262587
0.00262392
0.00262182
0.00261991
0.00261787
0.00261626
0.00261447
0.00261277
0.00261083
0.00260889
0.00260699
0.00260516
0.00260318
0.00260142
0.00259959
0.00259762
0.00259584
0.0025938
0.0025919
0.00258993
0.00258771
0.00258568
0.0025838
0.0025823
0.00258073
0.00257894
0.00257724
0.00257534
0.00257348
0.00257176
0.00256995
0.00256816
0.00256657
0.00256495
0.00256323
0.00256143
0.00255976
0.00255809
0.0025564
0.00255446
0.00255271
0.002551
0.00254933
0.0025475
0.00254569
0.00254386
0.00254217
0.00254051
0.00253859
0.00253695
0.00253539
0.00253361
0.00253177
0.00253011
0.00252884
0.00252734
0.00252576
0.00252418
0.00252246
0.00252063
0.00251906
0.00251753
0.00251599
0.00251452
0.00251291
0.0025112
0.00250962
0.00250794
0.00250624
0.00250473
0.00250313
0.00250162
0.00250002
0.00249824
0.00249654
0.00249477
0.00249305
0.00249142
0.00248973
0.00248828
0.00248678
0.0024851
0.00248346
0.00248208
0.00248074
0.00247932
0.00247794
0.00247629
0.00247475
0.00247351
0.00247212
0.00247089
0.00246952
0.00246797
0.0024665
0.00246532
0.0024642
0.00246315
0.00246178
0.00246038
0.00245919
0.0024578
0.00245669
0.00245584
0.00245516
0.00245417
0.00245317
0.00245199
0.00245092
0.00244971
0.00244862
0.00244761
0.00244657
0.00244552
0.00244444
0.00244326
0.0024422
0.00244108
0.00243999
0.00243899
0.00243795
0.002437
0.00243624
0.00243542
0.00243443
0.00243366
0.00243286
0.00243191
0.00243113
0.00243018
0.00242935
0.00242857
0.00242785
0.00242701
0.0024262
0.00242536
0.00242448
0.00242351
0.00242272
0.00242212
0.00242118
0.00242029
0.00241959
0.00241884
0.00241817
0.0024176
0.00241695
0.00241626
0.00241558
0.0024148
0.00241401
0.00241338
0.0024128
0.00241212
0.00241148
0.0024108
0.00241001
0.00240934
0.00240876
0.00240804
0.00240732
0.00240672
0.00240595
0.00240526
0.00240445
0.00240413
0.00240288
)
;
    }
    symmetry
    {
        type            symmetryPlane;
    }
    frontAndBack
    {
        type            empty;
    }
}


// ************************************************************************* //
