/*--------------------------------*- C++ -*----------------------------------*\
| =========                 |                                                 |
| \\      /  F ield         | OpenFOAM: The Open Source CFD Toolbox           |
|  \\    /   O peration     | Version:  v2012                                 |
|   \\  /    A nd           | Website:  www.openfoam.com                      |
|    \\/     M anipulation  |                                                 |
\*---------------------------------------------------------------------------*/
FoamFile
{
    version     2.0;
    format      ascii;
    class       volScalarField;
    location    "12";
    object      yPlus;
}
// * * * * * * * * * * * * * * * * * * * * * * * * * * * * * * * * * * * * * //

dimensions      [0 0 0 0 0 0 0];


internalField   uniform 0;

boundaryField
{
    inlet
    {
        type            calculated;
        value           uniform 0;
    }
    outlet
    {
        type            calculated;
        value           uniform 0;
    }
    topWall
    {
        type            calculated;
        value           nonuniform List<scalar> 
545
(
0.0667324
0.115159
0.147707
0.17359
0.195486
0.214629
0.231711
0.247168
0.261296
0.274308
0.286366
0.297592
0.308085
0.317926
0.327181
0.335906
0.344148
0.351948
0.359342
0.366361
0.373032
0.37938
0.385428
0.391194
0.396697
0.401953
0.406976
0.411781
0.41638
0.420785
0.425005
0.429051
0.432932
0.436657
0.440233
0.443668
0.446969
0.450141
0.453193
0.456128
0.458952
0.461671
0.464289
0.46681
0.46924
0.471581
0.473839
0.476015
0.478114
0.480139
0.482093
0.48398
0.4858
0.487558
0.489256
0.490896
0.492481
0.494012
0.495492
0.496923
0.498306
0.499644
0.500938
0.502189
0.5034
0.504571
0.505705
0.506802
0.507864
0.508893
0.509888
0.510853
0.511774
0.512664
0.513546
0.51442
0.515286
0.516143
0.516993
0.517834
0.518668
0.519494
0.520313
0.521123
0.521927
0.522723
0.523512
0.524293
0.525067
0.525835
0.526595
0.527348
0.528094
0.528834
0.529567
0.530293
0.530945
0.531527
0.532109
0.532689
0.533269
0.533848
0.534427
0.535004
0.535581
0.536157
0.536732
0.537307
0.53788
0.538453
0.539025
0.539596
0.540166
0.540736
0.541304
0.541872
0.542439
0.543005
0.54357
0.544134
0.544697
0.54526
0.545821
0.546382
0.546941
0.5475
0.548058
0.548614
0.54917
0.549725
0.550279
0.550832
0.551384
0.551935
0.552484
0.553033
0.553581
0.554128
0.554674
0.555218
0.555762
0.556304
0.556846
0.557386
0.557926
0.558464
0.559001
0.559537
0.560072
0.560605
0.561138
0.561669
0.562199
0.562728
0.563256
0.563783
0.564308
0.564832
0.565355
0.565877
0.566398
0.566917
0.567435
0.567952
0.568467
0.568982
0.569495
0.570006
0.570517
0.571026
0.571533
0.57204
0.572545
0.573048
0.57355
0.574051
0.574551
0.575049
0.575546
0.576041
0.576535
0.577027
0.577518
0.578008
0.578496
0.578982
0.579467
0.579951
0.580433
0.580913
0.581393
0.58187
0.582346
0.58282
0.583293
0.583764
0.584234
0.584702
0.585169
0.585634
0.586097
0.586558
0.587018
0.587477
0.587933
0.588388
0.588842
0.589293
0.589743
0.590191
0.590638
0.591082
0.591525
0.591966
0.592406
0.592843
0.593279
0.593713
0.594145
0.594576
0.595004
0.595431
0.595856
0.596279
0.5967
0.597119
0.597536
0.597952
0.598365
0.598777
0.599186
0.599594
0.6
0.600403
0.600805
0.601205
0.601603
0.601998
0.602392
0.602784
0.603173
0.603561
0.603946
0.60433
0.604711
0.60509
0.605467
0.605842
0.606215
0.606586
0.606954
0.60732
0.607685
0.608047
0.608406
0.608764
0.609119
0.609472
0.609823
0.610172
0.610518
0.610862
0.611204
0.611543
0.611881
0.612215
0.612548
0.612878
0.613206
0.613512
0.6138
0.614088
0.614376
0.614665
0.614955
0.615246
0.615536
0.615828
0.616119
0.616411
0.616703
0.616996
0.617288
0.617581
0.617873
0.618166
0.618459
0.618751
0.619044
0.619336
0.619628
0.619919
0.62021
0.6205
0.62079
0.621079
0.621367
0.621655
0.621941
0.622227
0.622511
0.622794
0.623076
0.623357
0.623636
0.623913
0.624189
0.624463
0.624736
0.625006
0.625274
0.62554
0.625804
0.626065
0.626324
0.62658
0.626834
0.627084
0.627332
0.627577
0.627818
0.628056
0.62829
0.62852
0.628747
0.62897
0.629189
0.629403
0.629614
0.629819
0.63002
0.630216
0.630407
0.630593
0.630774
0.630949
0.631118
0.631282
0.631439
0.63159
0.631735
0.631874
0.632005
0.63213
0.632248
0.632358
0.632461
0.632556
0.632643
0.632722
0.632793
0.632855
0.632909
0.632953
0.632989
0.633015
0.633032
0.633039
0.633036
0.633022
0.632999
0.632964
0.632919
0.632863
0.632795
0.632716
0.632625
0.632522
0.632407
0.632279
0.632139
0.631986
0.631819
0.63164
0.631446
0.631239
0.631018
0.630782
0.630532
0.630267
0.629987
0.629692
0.629382
0.629056
0.628714
0.628356
0.627981
0.62759
0.627183
0.626758
0.626317
0.625858
0.625381
0.624887
0.624375
0.623844
0.623296
0.622729
0.622143
0.621539
0.620915
0.620273
0.619611
0.61893
0.618229
0.617508
0.616768
0.616008
0.615228
0.614428
0.613608
0.612767
0.611906
0.611025
0.610123
0.6092
0.608257
0.607294
0.60631
0.605305
0.60428
0.603234
0.602168
0.601081
0.599973
0.598846
0.597698
0.596529
0.595341
0.594132
0.592904
0.591656
0.590388
0.589101
0.587795
0.586469
0.585125
0.583762
0.58238
0.580981
0.579563
0.578128
0.576675
0.575205
0.573719
0.572215
0.570696
0.569161
0.567611
0.566045
0.56429
0.562355
0.560424
0.5585
0.556582
0.554673
0.552771
0.550879
0.548997
0.547124
0.545264
0.543414
0.541577
0.539752
0.537941
0.536144
0.53436
0.532591
0.530837
0.529099
0.527376
0.525669
0.523979
0.522305
0.520648
0.519009
0.517388
0.515784
0.514198
0.512631
0.511083
0.509553
0.508042
0.506551
0.505079
0.503627
0.502194
0.500782
0.49939
0.498018
0.496667
0.495336
0.494027
0.492738
0.491471
0.490225
0.489001
0.487798
0.486617
0.485458
0.484321
0.483207
0.482114
0.481045
0.479998
0.478974
0.477972
0.476994
0.47604
0.475108
0.4742
0.473316
0.472455
0.471619
0.470806
0.470018
0.469254
0.468515
0.4678
0.467109
0.466444
0.465804
0.465188
0.464598
0.464033
0.463494
0.46298
0.462491
0.462029
0.461592
0.461181
0.460796
0.460437
0.460105
0.459798
0.459518
0.459264
0.459037
0.458836
0.458662
0.458514
0.458393
0.458296
0.458234
0.458169
)
;
    }
    bottomWall
    {
        type            calculated;
        value           nonuniform List<scalar> 
449
(
0.139613
0.0890541
0.0758896
0.0695106
0.0653231
0.0621939
0.0596972
0.0576328
0.055882
0.054367
0.0530354
0.0518511
0.0507875
0.0498245
0.0489466
0.0481413
0.0473988
0.0467111
0.0460715
0.0454744
0.0449152
0.04439
0.0438953
0.0434283
0.0429863
0.0425672
0.042169
0.0417899
0.0414286
0.0410835
0.0407536
0.0404377
0.0401348
0.039844
0.0395646
0.0392958
0.039037
0.0387875
0.0385467
0.0383143
0.0380897
0.0378725
0.0376622
0.0374586
0.0372612
0.0370698
0.0368841
0.0367037
0.0365285
0.0363582
0.0361925
0.0360313
0.0358743
0.0357214
0.0355724
0.0354272
0.0352855
0.0351473
0.0350124
0.0348807
0.034752
0.0346262
0.0345033
0.0343831
0.0342656
0.0341505
0.0340379
0.0339277
0.0338197
0.033714
0.0336103
0.0335088
0.0334092
0.0333115
0.0332157
0.0331218
0.0330295
0.032939
0.0328501
0.0327629
0.0326771
0.0325929
0.0325102
0.0324288
0.0323489
0.0322703
0.032193
0.032117
0.0320422
0.0319687
0.0318963
0.0318251
0.0317549
0.0316859
0.0316179
0.031551
0.031485
0.0314201
0.0313561
0.031293
0.0312309
0.0311696
0.0311093
0.0310498
0.0309911
0.0309332
0.0308761
0.0308198
0.0307643
0.0307095
0.0306554
0.0306021
0.0305494
0.0304975
0.0304462
0.0303955
0.0303455
0.0302962
0.0302474
0.0301993
0.0301517
0.0301047
0.0300583
0.0300125
0.0299672
0.0299224
0.0298782
0.0298344
0.0297912
0.0297485
0.0297063
0.0296645
0.0296232
0.0295824
0.029542
0.0295021
0.0294626
0.0294236
0.0293849
0.0293467
0.0293089
0.0292715
0.0292345
0.0291979
0.0291617
0.0291258
0.0290903
0.0290552
0.0290204
0.028986
0.0289519
0.0289181
0.0288847
0.0288517
0.0288189
0.0287865
0.0287544
0.0287226
0.028691
0.0286598
0.0286289
0.0285983
0.028568
0.028538
0.0285082
0.0284787
0.0284495
0.0284206
0.0283919
0.0283635
0.0283353
0.0283075
0.0282798
0.0282538
0.0282294
0.0282051
0.0281809
0.0281567
0.0281324
0.0281082
0.0280839
0.0280596
0.0280353
0.028011
0.0279866
0.0279622
0.0279378
0.0279134
0.0278889
0.0278644
0.0278399
0.0278153
0.0277908
0.0277662
0.0277416
0.027717
0.0276923
0.0276677
0.027643
0.0276184
0.0275937
0.027569
0.0275443
0.0275196
0.0274949
0.0274702
0.0274455
0.0274208
0.0273961
0.0273714
0.0273467
0.027322
0.0272973
0.0272726
0.0272479
0.0272233
0.0271987
0.027174
0.0271494
0.0271248
0.0271002
0.0270757
0.0270512
0.0270266
0.0270022
0.0269777
0.0269533
0.0269288
0.0269045
0.0268801
0.0268558
0.0268315
0.0268073
0.026783
0.0267589
0.0267347
0.0267106
0.0266865
0.0266625
0.0266385
0.0266146
0.0265907
0.0265668
0.026543
0.0265193
0.0264956
0.0264719
0.0264483
0.0264248
0.0264013
0.0263778
0.0263544
0.0263311
0.0263078
0.0262846
0.0262614
0.0262383
0.0262153
0.0261923
0.0261694
0.0261466
0.0261238
0.0261011
0.0260784
0.0260558
0.0260333
0.0260108
0.0259885
0.0259662
0.0259439
0.0259218
0.0258997
0.0258776
0.0258557
0.0258338
0.025812
0.0257903
0.0257687
0.0257471
0.0257256
0.0257042
0.0256829
0.0256617
0.0256405
0.0256194
0.0255984
0.0255775
0.0255567
0.0255359
0.0255153
0.0254947
0.0254742
0.0254538
0.0254334
0.0254132
0.0253931
0.025373
0.025353
0.0253331
0.0253134
0.0252936
0.025274
0.0252545
0.0252351
0.0252157
0.0251965
0.0251773
0.0251582
0.0251393
0.0251204
0.0251016
0.0250829
0.0250643
0.0250458
0.0250274
0.025009
0.0249908
0.0249727
0.0249546
0.0249367
0.0249188
0.0249011
0.0248834
0.0248658
0.0248484
0.024831
0.0248137
0.0247965
0.0247794
0.0247624
0.0247455
0.0247287
0.024712
0.0246954
0.0246789
0.0246625
0.0246462
0.0246299
0.0246138
0.0245978
0.0245818
0.024566
0.0245502
0.0245346
0.024519
0.0245036
0.0244882
0.0244729
0.0244578
0.0244427
0.0244277
0.0244127
0.0243979
0.0243832
0.0243667
0.0243487
0.024331
0.0243137
0.0242968
0.0242803
0.0242641
0.0242484
0.024233
0.0242179
0.0242031
0.0241887
0.0241746
0.0241608
0.0241472
0.0241339
0.0241209
0.0241081
0.0240956
0.0240834
0.0240713
0.0240595
0.0240479
0.0240365
0.0240254
0.0240144
0.0240036
0.023993
0.0239827
0.0239724
0.0239624
0.0239525
0.0239428
0.0239333
0.0239239
0.0239147
0.0239056
0.0238967
0.0238879
0.0238793
0.0238708
0.0238624
0.0238542
0.023846
0.0238381
0.0238302
0.0238224
0.0238148
0.0238073
0.0237999
0.0237926
0.0237854
0.0237783
0.0237713
0.0237644
0.0237577
0.023751
0.0237444
0.0237379
0.0237314
0.0237251
0.0237189
0.0237127
0.0237066
0.0237007
0.0236947
0.0236889
0.0236831
0.0236775
0.0236718
0.0236663
0.0236608
0.0236554
0.0236501
0.0236448
0.0236396
0.0236345
0.0236294
0.0236244
0.0236194
0.0236145
0.0236097
0.0236049
0.0236002
0.0235955
0.0235909
0.0235863
0.0235817
0.0235772
0.0235727
0.0235682
0.023564
0.0235566
0.0235615
0.0235484
)
;
    }
    symmetry
    {
        type            symmetryPlane;
    }
    frontAndBack
    {
        type            empty;
    }
}


// ************************************************************************* //
