/*--------------------------------*- C++ -*----------------------------------*\
| =========                 |                                                 |
| \\      /  F ield         | OpenFOAM: The Open Source CFD Toolbox           |
|  \\    /   O peration     | Version:  v2012                                 |
|   \\  /    A nd           | Website:  www.openfoam.com                      |
|    \\/     M anipulation  |                                                 |
\*---------------------------------------------------------------------------*/
FoamFile
{
    version     2.0;
    format      ascii;
    class       volScalarField;
    location    "3.5";
    object      p;
}
// * * * * * * * * * * * * * * * * * * * * * * * * * * * * * * * * * * * * * //

dimensions      [0 2 -2 0 0 0 0];


internalField   nonuniform List<scalar> 
209825
(
6.80229
6.80506
6.8119
6.82222
6.83545
6.85139
6.86995
6.89103
6.91451
6.9403
6.9683
6.99844
7.03066
7.0649
7.10112
7.13928
7.17933
7.22127
7.26505
7.31067
7.35811
7.40736
7.45842
7.51128
7.56596
7.62244
7.68076
7.74091
7.80292
7.8668
7.93257
8.00026
8.06991
8.14153
8.21518
8.29087
8.36867
8.4486
8.53073
8.6151
8.70177
8.7908
8.88226
8.97621
9.07274
9.17192
9.27383
9.37857
9.48624
9.59694
9.71078
9.82787
9.94836
10.0724
10.2001
10.3316
10.4671
10.6068
10.7508
10.8995
11.0529
11.2114
11.3753
11.5447
11.7201
11.9018
12.09
12.2853
12.4881
12.6989
12.9182
13.1466
13.3816
13.6261
13.8869
14.1663
14.4667
14.7908
15.142
15.5243
15.9424
16.4024
16.9119
17.4804
18.1201
18.8476
19.6847
20.663
21.8241
23.2441
25
27.3731
30.3854
35.9504
42.2404
74.998
6.80229
6.80506
6.8119
6.82222
6.83545
6.85139
6.86995
6.89103
6.91451
6.9403
6.9683
6.99844
7.03066
7.0649
7.10112
7.13928
7.17933
7.22127
7.26505
7.31067
7.35811
7.40736
7.45842
7.51128
7.56595
7.62244
7.68076
7.74091
7.80292
7.86679
7.93257
8.00026
8.06991
8.14153
8.21518
8.29087
8.36867
8.4486
8.53073
8.6151
8.70177
8.7908
8.88226
8.97621
9.07274
9.17192
9.27383
9.37857
9.48624
9.59694
9.71077
9.82787
9.94836
10.0724
10.2001
10.3316
10.4671
10.6068
10.7508
10.8995
11.0529
11.2114
11.3753
11.5447
11.7201
11.9018
12.09
12.2853
12.4881
12.6989
12.9182
13.1466
13.3816
13.6261
13.8869
14.1663
14.4667
14.7908
15.142
15.5243
15.9424
16.4024
16.9119
17.4804
18.1201
18.8476
19.6847
20.663
21.824
23.244
24.9999
27.3728
30.385
35.9479
42.2196
74.361
6.80229
6.80506
6.8119
6.82222
6.83545
6.85139
6.86995
6.89103
6.91451
6.9403
6.9683
6.99844
7.03066
7.0649
7.10112
7.13928
7.17933
7.22127
7.26505
7.31067
7.35811
7.40736
7.45842
7.51128
7.56595
7.62244
7.68076
7.74091
7.80292
7.86679
7.93257
8.00026
8.06991
8.14153
8.21517
8.29087
8.36866
8.4486
8.53073
8.6151
8.70177
8.7908
8.88226
8.97621
9.07274
9.17192
9.27383
9.37857
9.48624
9.59694
9.71077
9.82787
9.94836
10.0724
10.2001
10.3316
10.4671
10.6068
10.7508
10.8995
11.0529
11.2114
11.3753
11.5447
11.7201
11.9018
12.09
12.2853
12.4881
12.6989
12.9182
13.1466
13.3816
13.6261
13.8869
14.1663
14.4666
14.7908
15.142
15.5242
15.9424
16.4024
16.9119
17.4803
18.1201
18.8476
19.6846
20.6629
21.8239
23.2438
24.9996
27.3723
30.3842
35.9439
42.1973
73.5912
6.80229
6.80506
6.8119
6.82222
6.83545
6.85139
6.86995
6.89103
6.91451
6.9403
6.9683
6.99844
7.03066
7.0649
7.10112
7.13928
7.17933
7.22127
7.26505
7.31067
7.35811
7.40736
7.45842
7.51128
7.56595
7.62244
7.68076
7.74091
7.80292
7.86679
7.93257
8.00026
8.06991
8.14153
8.21517
8.29087
8.36866
8.4486
8.53073
8.6151
8.70177
8.7908
8.88226
8.97621
9.07274
9.17192
9.27383
9.37857
9.48624
9.59693
9.71077
9.82787
9.94836
10.0724
10.2001
10.3316
10.4671
10.6068
10.7508
10.8995
11.0529
11.2114
11.3753
11.5447
11.7201
11.9017
12.09
12.2853
12.4881
12.6989
12.9182
13.1466
13.3816
13.626
13.8869
14.1662
14.4666
14.7908
15.142
15.5242
15.9423
16.4024
16.9118
17.4803
18.12
18.8475
19.6845
20.6627
21.8237
23.2435
24.9992
27.3715
30.383
35.9381
42.1773
72.8292
6.80229
6.80506
6.8119
6.82222
6.83545
6.85139
6.86995
6.89103
6.91451
6.9403
6.9683
6.99844
7.03066
7.0649
7.10112
7.13928
7.17933
7.22127
7.26505
7.31067
7.35811
7.40736
7.45842
7.51128
7.56595
7.62244
7.68076
7.74091
7.80292
7.86679
7.93257
8.00026
8.06991
8.14153
8.21517
8.29087
8.36866
8.4486
8.53073
8.6151
8.70177
8.7908
8.88226
8.97621
9.07274
9.17191
9.27383
9.37857
9.48624
9.59693
9.71077
9.82787
9.94836
10.0724
10.2
10.3316
10.4671
10.6068
10.7508
10.8995
11.0529
11.2114
11.3753
11.5447
11.7201
11.9017
12.09
12.2853
12.4881
12.6989
12.9182
13.1465
13.3816
13.626
13.8869
14.1662
14.4666
14.7908
15.142
15.5242
15.9423
16.4023
16.9118
17.4802
18.1199
18.8474
19.6844
20.6625
21.8235
23.2432
24.9986
27.3705
30.3814
35.9305
42.1575
72.0801
6.80229
6.80506
6.81189
6.82222
6.83545
6.85139
6.86995
6.89103
6.91451
6.9403
6.9683
6.99844
7.03066
7.0649
7.10112
7.13928
7.17933
7.22127
7.26505
7.31067
7.35811
7.40736
7.45842
7.51128
7.56595
7.62244
7.68076
7.74091
7.80292
7.86679
7.93257
8.00026
8.06991
8.14153
8.21517
8.29087
8.36866
8.4486
8.53072
8.61509
8.70176
8.7908
8.88225
8.97621
9.07274
9.17191
9.27383
9.37857
9.48624
9.59693
9.71077
9.82787
9.94835
10.0724
10.2
10.3316
10.4671
10.6068
10.7508
10.8995
11.0529
11.2114
11.3753
11.5447
11.7201
11.9017
12.09
12.2853
12.4881
12.6989
12.9182
13.1465
13.3816
13.626
13.8868
14.1662
14.4666
14.7907
15.1419
15.5241
15.9423
16.4023
16.9117
17.4801
18.1198
18.8472
19.6842
20.6623
21.8231
23.2427
24.9979
27.3691
30.3794
35.9211
42.1354
71.3345
6.80229
6.80506
6.81189
6.82222
6.83545
6.85139
6.86995
6.89103
6.91451
6.9403
6.9683
6.99844
7.03066
7.0649
7.10112
7.13928
7.17933
7.22127
7.26505
7.31067
7.35811
7.40736
7.45841
7.51128
7.56595
7.62244
7.68076
7.74091
7.80291
7.86679
7.93257
8.00026
8.06991
8.14153
8.21517
8.29087
8.36866
8.4486
8.53072
8.61509
8.70176
8.7908
8.88225
8.97621
9.07273
9.17191
9.27383
9.37857
9.48623
9.59693
9.71077
9.82786
9.94835
10.0724
10.2
10.3316
10.4671
10.6067
10.7508
10.8995
11.0529
11.2114
11.3753
11.5447
11.7201
11.9017
12.09
12.2853
12.4881
12.6989
12.9181
13.1465
13.3816
13.626
13.8868
14.1662
14.4665
14.7907
15.1419
15.5241
15.9422
16.4022
16.9116
17.48
18.1197
18.8471
19.6839
20.662
21.8227
23.242
24.997
27.3674
30.3768
35.9097
42.1098
70.5899
6.80229
6.80506
6.81189
6.82222
6.83545
6.85139
6.86995
6.89103
6.91451
6.9403
6.9683
6.99844
7.03066
7.0649
7.10112
7.13928
7.17933
7.22127
7.26505
7.31067
7.35811
7.40736
7.45841
7.51128
7.56595
7.62244
7.68076
7.74091
7.80291
7.86679
7.93257
8.00026
8.06991
8.14153
8.21517
8.29087
8.36866
8.4486
8.53072
8.61509
8.70176
8.79079
8.88225
8.97621
9.07273
9.17191
9.27382
9.37856
9.48623
9.59693
9.71076
9.82786
9.94835
10.0724
10.2
10.3315
10.4671
10.6067
10.7508
10.8994
11.0529
11.2114
11.3753
11.5447
11.7201
11.9017
12.09
12.2853
12.4881
12.6988
12.9181
13.1465
13.3815
13.626
13.8868
14.1661
14.4665
14.7906
15.1418
15.524
15.9421
16.4021
16.9115
17.4799
18.1195
18.8468
19.6837
20.6616
21.8222
23.2413
24.9959
27.3654
30.3738
35.8962
42.0805
69.8455
6.80229
6.80506
6.81189
6.82222
6.83545
6.85139
6.86995
6.89103
6.91451
6.9403
6.9683
6.99844
7.03066
7.0649
7.10112
7.13928
7.17933
7.22126
7.26505
7.31067
7.35811
7.40736
7.45841
7.51128
7.56595
7.62244
7.68076
7.74091
7.80291
7.86679
7.93257
8.00026
8.0699
8.14153
8.21517
8.29087
8.36866
8.4486
8.53072
8.61509
8.70176
8.79079
8.88225
8.9762
9.07273
9.17191
9.27382
9.37856
9.48623
9.59692
9.71076
9.82786
9.94834
10.0724
10.2
10.3315
10.467
10.6067
10.7508
10.8994
11.0529
11.2114
11.3752
11.5447
11.7201
11.9017
12.09
12.2853
12.4881
12.6988
12.9181
13.1465
13.3815
13.6259
13.8867
14.1661
14.4664
14.7906
15.1417
15.5239
15.942
16.402
16.9114
17.4797
18.1193
18.8466
19.6834
20.6612
21.8216
23.2404
24.9947
27.363
30.3702
35.8805
42.0476
69.1012
6.80229
6.80506
6.81189
6.82222
6.83545
6.85139
6.86995
6.89103
6.91451
6.9403
6.9683
6.99844
7.03066
7.0649
7.10112
7.13928
7.17933
7.22126
7.26505
7.31067
7.3581
7.40736
7.45841
7.51128
7.56595
7.62244
7.68076
7.74091
7.80291
7.86679
7.93257
8.00026
8.0699
8.14153
8.21517
8.29087
8.36866
8.44859
8.53072
8.61509
8.70176
8.79079
8.88225
8.9762
9.07273
9.1719
9.27382
9.37856
9.48622
9.59692
9.71076
9.82785
9.94834
10.0723
10.2
10.3315
10.467
10.6067
10.7508
10.8994
11.0529
11.2114
11.3752
11.5447
11.72
11.9017
12.0899
12.2853
12.488
12.6988
12.9181
13.1464
13.3815
13.6259
13.8867
14.166
14.4664
14.7905
15.1417
15.5238
15.9419
16.4019
16.9112
17.4795
18.1191
18.8463
19.683
20.6607
21.8209
23.2394
24.9932
27.3602
30.3661
35.8627
42.0109
68.3572
6.80229
6.80506
6.81189
6.82222
6.83545
6.85139
6.86995
6.89103
6.91451
6.9403
6.9683
6.99844
7.03066
7.0649
7.10112
7.13927
7.17933
7.22126
7.26505
7.31067
7.3581
7.40736
7.45841
7.51128
7.56595
7.62244
7.68076
7.74091
7.80291
7.86679
7.93256
8.00026
8.0699
8.14153
8.21517
8.29086
8.36866
8.44859
8.53072
8.61509
8.70176
8.79079
8.88225
8.9762
9.07273
9.1719
9.27381
9.37855
9.48622
9.59692
9.71075
9.82785
9.94833
10.0723
10.2
10.3315
10.467
10.6067
10.7508
10.8994
11.0529
11.2114
11.3752
11.5447
11.72
11.9017
12.0899
12.2852
12.488
12.6988
12.918
13.1464
13.3814
13.6258
13.8866
14.166
14.4663
14.7904
15.1416
15.5237
15.9418
16.4017
16.911
17.4793
18.1188
18.846
19.6826
20.6601
21.8202
23.2383
24.9915
27.3571
30.3614
35.8427
41.9705
67.6137
6.80229
6.80506
6.81189
6.82221
6.83545
6.85139
6.86995
6.89103
6.91451
6.9403
6.9683
6.99844
7.03066
7.0649
7.10112
7.13927
7.17933
7.22126
7.26505
7.31067
7.3581
7.40735
7.45841
7.51128
7.56595
7.62244
7.68075
7.74091
7.80291
7.86679
7.93256
8.00026
8.0699
8.14153
8.21517
8.29086
8.36866
8.44859
8.53072
8.61509
8.70175
8.79079
8.88224
8.9762
9.07272
9.1719
9.27381
9.37855
9.48622
9.59691
9.71075
9.82784
9.94833
10.0723
10.2
10.3315
10.467
10.6067
10.7508
10.8994
11.0529
11.2114
11.3752
11.5446
11.72
11.9016
12.0899
12.2852
12.488
12.6987
12.918
13.1463
13.3814
13.6258
13.8866
14.1659
14.4662
14.7903
15.1415
15.5236
15.9417
16.4016
16.9108
17.4791
18.1185
18.8456
19.6821
20.6595
21.8193
23.237
24.9896
27.3536
30.3561
35.8204
41.9261
66.8711
6.80229
6.80505
6.81189
6.82221
6.83545
6.85139
6.86994
6.89103
6.91451
6.9403
6.9683
6.99844
7.03066
7.0649
7.10112
7.13927
7.17933
7.22126
7.26505
7.31066
7.3581
7.40735
7.45841
7.51128
7.56595
7.62244
7.68075
7.74091
7.80291
7.86679
7.93256
8.00026
8.0699
8.14152
8.21517
8.29086
8.36865
8.44859
8.53071
8.61508
8.70175
8.79078
8.88224
8.97619
9.07272
9.17189
9.27381
9.37855
9.48621
9.5969
9.71074
9.82784
9.94832
10.0723
10.2
10.3315
10.467
10.6067
10.7508
10.8994
11.0528
11.2114
11.3752
11.5446
11.72
11.9016
12.0899
12.2852
12.488
12.6987
12.918
13.1463
13.3813
13.6257
13.8865
14.1658
14.4662
14.7902
15.1414
15.5235
15.9415
16.4014
16.9106
17.4788
18.1182
18.8452
19.6815
20.6588
21.8183
23.2356
24.9875
27.3497
30.3501
35.7958
41.8777
66.1296
6.80229
6.80505
6.81189
6.82221
6.83545
6.85139
6.86994
6.89103
6.91451
6.9403
6.9683
6.99844
7.03066
7.0649
7.10112
7.13927
7.17933
7.22126
7.26505
7.31066
7.3581
7.40735
7.45841
7.51128
7.56595
7.62244
7.68075
7.7409
7.80291
7.86679
7.93256
8.00025
8.0699
8.14152
8.21516
8.29086
8.36865
8.44859
8.53071
8.61508
8.70175
8.79078
8.88224
8.97619
9.07271
9.17189
9.2738
9.37854
9.48621
9.5969
9.71073
9.82783
9.94831
10.0723
10.2
10.3315
10.467
10.6067
10.7507
10.8994
11.0528
11.2113
11.3752
11.5446
11.72
11.9016
12.0898
12.2851
12.4879
12.6987
12.9179
13.1462
13.3813
13.6257
13.8864
14.1658
14.4661
14.7901
15.1412
15.5234
15.9413
16.4012
16.9104
17.4785
18.1178
18.8447
19.6809
20.658
21.8172
23.234
24.9851
27.3453
30.3434
35.7688
41.8252
65.3894
6.80229
6.80505
6.81189
6.82221
6.83545
6.85139
6.86994
6.89102
6.91451
6.9403
6.9683
6.99844
7.03066
7.0649
7.10112
7.13927
7.17933
7.22126
7.26505
7.31066
7.3581
7.40735
7.45841
7.51127
7.56595
7.62244
7.68075
7.7409
7.80291
7.86679
7.93256
8.00025
8.0699
8.14152
8.21516
8.29086
8.36865
8.44858
8.53071
8.61508
8.70175
8.79078
8.88223
8.97619
9.07271
9.17188
9.2738
9.37854
9.4862
9.59689
9.71073
9.82782
9.9483
10.0723
10.2
10.3315
10.467
10.6067
10.7507
10.8994
11.0528
11.2113
11.3751
11.5446
11.7199
11.9016
12.0898
12.2851
12.4879
12.6986
12.9179
13.1462
13.3812
13.6256
13.8864
14.1657
14.466
14.79
15.1411
15.5232
15.9411
16.401
16.9101
17.4782
18.1174
18.8442
19.6803
20.6571
21.816
23.2322
24.9825
27.3404
30.336
35.7395
41.7685
64.651
6.80229
6.80505
6.81189
6.82221
6.83545
6.85139
6.86994
6.89102
6.91451
6.9403
6.9683
6.99844
7.03066
7.0649
7.10112
7.13927
7.17933
7.22126
7.26504
7.31066
7.3581
7.40735
7.45841
7.51127
7.56595
7.62244
7.68075
7.7409
7.80291
7.86678
7.93256
8.00025
8.06989
8.14152
8.21516
8.29086
8.36865
8.44858
8.53071
8.61507
8.70174
8.79077
8.88223
8.97618
9.07271
9.17188
9.27379
9.37853
9.48619
9.59688
9.71072
9.82781
9.94829
10.0723
10.2
10.3315
10.467
10.6067
10.7507
10.8993
11.0528
11.2113
11.3751
11.5445
11.7199
11.9015
12.0898
12.2851
12.4878
12.6986
12.9178
13.1461
13.3812
13.6255
13.8863
14.1656
14.4658
14.7899
15.141
15.523
15.9409
16.4007
16.9098
17.4778
18.117
18.8436
19.6796
20.6561
21.8147
23.2303
24.9797
27.3351
30.3279
35.7077
41.7074
63.9145
6.80229
6.80505
6.81189
6.82221
6.83545
6.85139
6.86994
6.89102
6.91451
6.9403
6.96829
6.99844
7.03065
7.0649
7.10112
7.13927
7.17933
7.22126
7.26504
7.31066
7.3581
7.40735
7.45841
7.51127
7.56595
7.62244
7.68075
7.7409
7.80291
7.86678
7.93256
8.00025
8.06989
8.14152
8.21516
8.29085
8.36864
8.44858
8.5307
8.61507
8.70174
8.79077
8.88222
8.97618
9.0727
9.17187
9.27378
9.37852
9.48618
9.59688
9.71071
9.8278
9.94828
10.0723
10.2
10.3315
10.467
10.6066
10.7507
10.8993
11.0528
11.2113
11.3751
11.5445
11.7199
11.9015
12.0897
12.285
12.4878
12.6985
12.9177
13.1461
13.3811
13.6254
13.8862
14.1655
14.4657
14.7897
15.1408
15.5228
15.9407
16.4004
16.9095
17.4774
18.1165
18.843
19.6788
20.6551
21.8132
23.2281
24.9765
27.3293
30.3189
35.6734
41.6419
63.1802
6.80229
6.80505
6.81189
6.82221
6.83545
6.85139
6.86994
6.89102
6.91451
6.9403
6.96829
6.99843
7.03065
7.0649
7.10112
7.13927
7.17933
7.22126
7.26504
7.31066
7.3581
7.40735
7.45841
7.51127
7.56595
7.62243
7.68075
7.7409
7.8029
7.86678
7.93255
8.00025
8.06989
8.14151
8.21515
8.29085
8.36864
8.44857
8.5307
8.61507
8.70173
8.79076
8.88222
8.97617
9.07269
9.17187
9.27378
9.37851
9.48618
9.59687
9.7107
9.82779
9.94827
10.0723
10.1999
10.3314
10.4669
10.6066
10.7507
10.8993
11.0527
11.2112
11.3751
11.5445
11.7198
11.9014
12.0897
12.285
12.4877
12.6985
12.9177
13.146
13.381
13.6253
13.8861
14.1653
14.4656
14.7896
15.1406
15.5226
15.9405
16.4001
16.9091
17.477
18.116
18.8424
19.6779
20.6539
21.8116
23.2258
24.9731
27.323
30.3091
35.6366
41.5719
62.4484
6.80229
6.80505
6.81189
6.82221
6.83545
6.85139
6.86994
6.89102
6.91451
6.94029
6.96829
6.99843
7.03065
7.0649
7.10112
7.13927
7.17933
7.22126
7.26504
7.31066
7.3581
7.40735
7.45841
7.51127
7.56594
7.62243
7.68075
7.7409
7.8029
7.86678
7.93255
8.00025
8.06989
8.14151
8.21515
8.29085
8.36864
8.44857
8.53069
8.61506
8.70173
8.79076
8.88221
8.97617
9.07269
9.17186
9.27377
9.37851
9.48617
9.59686
9.71069
9.82778
9.94826
10.0723
10.1999
10.3314
10.4669
10.6066
10.7506
10.8993
11.0527
11.2112
11.375
11.5445
11.7198
11.9014
12.0896
12.2849
12.4877
12.6984
12.9176
13.1459
13.3809
13.6252
13.886
14.1652
14.4654
14.7894
15.1404
15.5224
15.9402
16.3998
16.9088
17.4765
18.1154
18.8416
19.6769
20.6526
21.8099
23.2233
24.9694
27.3162
30.2985
35.5973
41.4973
61.7193
6.80229
6.80505
6.81189
6.82221
6.83545
6.85138
6.86994
6.89102
6.91451
6.94029
6.96829
6.99843
7.03065
7.0649
7.10111
7.13927
7.17933
7.22126
7.26504
7.31066
7.3581
7.40735
7.4584
7.51127
7.56594
7.62243
7.68074
7.7409
7.8029
7.86678
7.93255
8.00024
8.06989
8.14151
8.21515
8.29084
8.36863
8.44857
8.53069
8.61506
8.70173
8.79075
8.88221
8.97616
9.07268
9.17185
9.27376
9.3785
9.48616
9.59685
9.71068
9.82777
9.94824
10.0722
10.1999
10.3314
10.4669
10.6066
10.7506
10.8993
11.0527
11.2112
11.375
11.5444
11.7198
11.9014
12.0896
12.2849
12.4876
12.6983
12.9175
13.1458
13.3808
13.6251
13.8858
14.1651
14.4653
14.7892
15.1402
15.5221
15.9399
16.3995
16.9083
17.476
18.1147
18.8408
19.6759
20.6513
21.808
23.2205
24.9653
27.3087
30.2869
35.5553
41.418
60.9932
6.80229
6.80505
6.81189
6.82221
6.83545
6.85138
6.86994
6.89102
6.91451
6.94029
6.96829
6.99843
7.03065
7.0649
7.10111
7.13927
7.17933
7.22126
7.26504
7.31066
7.3581
7.40735
7.4584
7.51127
7.56594
7.62243
7.68074
7.74089
7.8029
7.86677
7.93255
8.00024
8.06988
8.14151
8.21515
8.29084
8.36863
8.44856
8.53069
8.61505
8.70172
8.79075
8.8822
8.97615
9.07267
9.17185
9.27375
9.37849
9.48615
9.59684
9.71067
9.82775
9.94823
10.0722
10.1999
10.3314
10.4669
10.6066
10.7506
10.8992
11.0527
11.2111
11.375
11.5444
11.7197
11.9013
12.0895
12.2848
12.4875
12.6982
12.9174
13.1457
13.3807
13.625
13.8857
14.1649
14.4651
14.789
15.14
15.5219
15.9396
16.3991
16.9079
17.4755
18.1141
18.84
19.6748
20.6498
21.806
23.2176
24.961
27.3007
30.2744
35.5107
41.334
60.2703
6.80229
6.80505
6.81189
6.82221
6.83545
6.85138
6.86994
6.89102
6.91451
6.94029
6.96829
6.99843
7.03065
7.06489
7.10111
7.13927
7.17932
7.22126
7.26504
7.31066
7.35809
7.40734
7.4584
7.51127
7.56594
7.62243
7.68074
7.74089
7.8029
7.86677
7.93254
8.00024
8.06988
8.1415
8.21514
8.29084
8.36863
8.44856
8.53068
8.61505
8.70171
8.79074
8.8822
8.97614
9.07267
9.17184
9.27374
9.37848
9.48614
9.59682
9.71065
9.82774
9.94821
10.0722
10.1999
10.3314
10.4669
10.6065
10.7506
10.8992
11.0526
11.2111
11.3749
11.5443
11.7197
11.9013
12.0895
12.2847
12.4875
12.6982
12.9174
13.1456
13.3806
13.6249
13.8856
14.1647
14.4649
14.7888
15.1397
15.5216
15.9392
16.3987
16.9074
17.4749
18.1133
18.839
19.6736
20.6482
21.8038
23.2144
24.9562
27.2921
30.2609
35.4635
41.2451
59.5509
6.80229
6.80505
6.81189
6.82221
6.83545
6.85138
6.86994
6.89102
6.91451
6.94029
6.96829
6.99843
7.03065
7.06489
7.10111
7.13927
7.17932
7.22125
7.26504
7.31066
7.35809
7.40734
7.4584
7.51126
7.56594
7.62243
7.68074
7.74089
7.80289
7.86677
7.93254
8.00023
8.06988
8.1415
8.21514
8.29083
8.36862
8.44855
8.53068
8.61504
8.70171
8.79073
8.88219
8.97614
9.07266
9.17183
9.27373
9.37847
9.48612
9.59681
9.71064
9.82772
9.9482
10.0722
10.1999
10.3314
10.4668
10.6065
10.7505
10.8992
11.0526
11.2111
11.3749
11.5443
11.7196
11.9012
12.0894
12.2847
12.4874
12.6981
12.9173
13.1455
13.3805
13.6247
13.8854
14.1646
14.4647
14.7886
15.1395
15.5213
15.9389
16.3983
16.9069
17.4742
18.1125
18.838
19.6723
20.6465
21.8015
23.2109
24.9512
27.2829
30.2464
35.4135
41.1514
58.8352
6.80229
6.80505
6.81189
6.82221
6.83545
6.85138
6.86994
6.89102
6.91451
6.94029
6.96829
6.99843
7.03065
7.06489
7.10111
7.13927
7.17932
7.22125
7.26504
7.31065
7.35809
7.40734
7.4584
7.51126
7.56594
7.62242
7.68074
7.74089
7.80289
7.86677
7.93254
8.00023
8.06987
8.14149
8.21513
8.29083
8.36862
8.44855
8.53067
8.61504
8.7017
8.79073
8.88218
8.97613
9.07265
9.17182
9.27372
9.37845
9.48611
9.5968
9.71062
9.82771
9.94818
10.0722
10.1998
10.3313
10.4668
10.6065
10.7505
10.8991
11.0526
11.211
11.3748
11.5442
11.7196
11.9011
12.0893
12.2846
12.4873
12.698
12.9171
13.1454
13.3803
13.6246
13.8852
14.1644
14.4645
14.7883
15.1392
15.5209
15.9385
16.3978
16.9063
17.4735
18.1117
18.837
19.6709
20.6446
21.799
23.2072
24.9457
27.273
30.2307
35.3607
41.0527
58.1235
6.80229
6.80505
6.81189
6.82221
6.83544
6.85138
6.86994
6.89102
6.91451
6.94029
6.96829
6.99843
7.03065
7.06489
7.10111
7.13926
7.17932
7.22125
7.26504
7.31065
7.35809
7.40734
7.4584
7.51126
7.56593
7.62242
7.68073
7.74088
7.80289
7.86676
7.93253
8.00023
8.06987
8.14149
8.21513
8.29082
8.36861
8.44854
8.53066
8.61503
8.70169
8.79072
8.88217
8.97612
9.07264
9.17181
9.27371
9.37844
9.4861
9.59678
9.71061
9.82769
9.94816
10.0722
10.1998
10.3313
10.4668
10.6064
10.7505
10.8991
11.0525
11.211
11.3748
11.5442
11.7195
11.9011
12.0893
12.2845
12.4872
12.6979
12.917
13.1453
13.3802
13.6244
13.885
14.1642
14.4643
14.7881
15.1389
15.5206
15.9381
16.3973
16.9057
17.4728
18.1108
18.8358
19.6694
20.6426
21.7963
23.2033
24.9399
27.2624
30.2139
35.3052
40.949
57.416
6.80228
6.80505
6.81189
6.82221
6.83544
6.85138
6.86994
6.89102
6.9145
6.94029
6.96829
6.99843
7.03065
7.06489
7.10111
7.13926
7.17932
7.22125
7.26503
7.31065
7.35809
7.40734
7.45839
7.51126
7.56593
7.62242
7.68073
7.74088
7.80288
7.86676
7.93253
8.00022
8.06986
8.14149
8.21512
8.29082
8.36861
8.44854
8.53066
8.61502
8.70169
8.79071
8.88216
8.97611
9.07263
9.17179
9.2737
9.37843
9.48608
9.59677
9.71059
9.82767
9.94814
10.0721
10.1998
10.3313
10.4668
10.6064
10.7504
10.899
11.0525
11.2109
11.3747
11.5441
11.7194
11.901
12.0892
12.2844
12.4871
12.6978
12.9169
13.1451
13.38
13.6243
13.8849
14.164
14.464
14.7878
15.1385
15.5202
15.9376
16.3967
16.9051
17.472
18.1098
18.8346
19.6678
20.6405
21.7934
23.1991
24.9337
27.2512
30.196
35.2468
40.8402
56.7129
6.80228
6.80505
6.81189
6.82221
6.83544
6.85138
6.86994
6.89102
6.9145
6.94029
6.96829
6.99843
7.03065
7.06489
7.10111
7.13926
7.17932
7.22125
7.26503
7.31065
7.35809
7.40734
7.45839
7.51126
7.56593
7.62242
7.68073
7.74088
7.80288
7.86676
7.93253
8.00022
8.06986
8.14148
8.21512
8.29081
8.3686
8.44853
8.53065
8.61501
8.70168
8.7907
8.88215
8.9761
9.07262
9.17178
9.27368
9.37841
9.48607
9.59675
9.71057
9.82765
9.94811
10.0721
10.1998
10.3312
10.4667
10.6064
10.7504
10.899
11.0524
11.2109
11.3747
11.5441
11.7194
11.9009
12.0891
12.2843
12.487
12.6976
12.9168
13.145
13.3799
13.6241
13.8846
14.1637
14.4637
14.7875
15.1382
15.5198
15.9371
16.3962
16.9044
17.4712
18.1088
18.8333
19.6661
20.6383
21.7903
23.1945
24.927
27.2392
30.1768
35.1856
40.7264
56.0145
6.80228
6.80505
6.81189
6.82221
6.83544
6.85138
6.86994
6.89102
6.9145
6.94029
6.96829
6.99843
7.03065
7.06489
7.10111
7.13926
7.17932
7.22125
7.26503
7.31065
7.35808
7.40733
7.45839
7.51125
7.56593
7.62241
7.68073
7.74087
7.80288
7.86675
7.93252
8.00021
8.06986
8.14148
8.21511
8.29081
8.36859
8.44852
8.53064
8.61501
8.70167
8.79069
8.88214
8.97609
9.0726
9.17177
9.27367
9.3784
9.48605
9.59673
9.71055
9.82763
9.94809
10.0721
10.1997
10.3312
10.4667
10.6063
10.7504
10.899
11.0524
11.2108
11.3746
11.544
11.7193
11.9008
12.089
12.2842
12.4869
12.6975
12.9166
13.1448
13.3797
13.6239
13.8844
14.1635
14.4635
14.7872
15.1378
15.5193
15.9366
16.3956
16.9036
17.4703
18.1076
18.8319
19.6643
20.6359
21.787
23.1897
24.9199
27.2264
30.1563
35.1214
40.6074
55.3209
6.80228
6.80505
6.81188
6.82221
6.83544
6.85138
6.86994
6.89102
6.9145
6.94029
6.96828
6.99843
7.03064
7.06489
7.1011
7.13926
7.17932
7.22125
7.26503
7.31064
7.35808
7.40733
7.45839
7.51125
7.56592
7.62241
7.68072
7.74087
7.80287
7.86675
7.93252
8.00021
8.06985
8.14147
8.21511
8.2908
8.36859
8.44852
8.53064
8.615
8.70166
8.79068
8.88213
8.97608
9.07259
9.17176
9.27366
9.37838
9.48603
9.59671
9.71053
9.8276
9.94807
10.072
10.1997
10.3312
10.4667
10.6063
10.7503
10.8989
11.0523
11.2108
11.3745
11.5439
11.7192
11.9007
12.0889
12.2841
12.4868
12.6974
12.9165
13.1447
13.3795
13.6237
13.8842
14.1632
14.4632
14.7868
15.1374
15.5189
15.9361
16.3949
16.9028
17.4693
18.1065
18.8304
19.6624
20.6333
21.7835
23.1846
24.9123
27.2129
30.1345
35.0544
40.4832
54.6323
6.80228
6.80505
6.81188
6.8222
6.83544
6.85138
6.86993
6.89101
6.9145
6.94029
6.96828
6.99842
7.03064
7.06488
7.1011
7.13926
7.17931
7.22124
7.26503
7.31064
7.35808
7.40733
7.45839
7.51125
7.56592
7.62241
7.68072
7.74087
7.80287
7.86674
7.93251
8.00021
8.06984
8.14147
8.2151
8.29079
8.36858
8.44851
8.53063
8.61499
8.70165
8.79067
8.88212
8.97606
9.07258
9.17174
9.27364
9.37836
9.48601
9.59669
9.7105
9.82758
9.94804
10.072
10.1997
10.3311
10.4666
10.6063
10.7503
10.8989
11.0523
11.2107
11.3745
11.5438
11.7191
11.9007
12.0888
12.284
12.4866
12.6972
12.9163
13.1445
13.3793
13.6234
13.8839
14.1629
14.4628
14.7864
15.137
15.5184
15.9355
16.3942
16.902
17.4683
18.1052
18.8288
19.6604
20.6306
21.7797
23.1792
24.9043
27.1985
30.1114
34.9844
40.3539
53.9491
6.80228
6.80505
6.81188
6.8222
6.83544
6.85138
6.86993
6.89101
6.9145
6.94028
6.96828
6.99842
7.03064
7.06488
7.1011
7.13926
7.17931
7.22124
7.26502
7.31064
7.35808
7.40733
7.45838
7.51125
7.56592
7.6224
7.68071
7.74086
7.80287
7.86674
7.93251
8.0002
8.06984
8.14146
8.2151
8.29079
8.36857
8.4485
8.53062
8.61498
8.70164
8.79066
8.88211
8.97605
9.07256
9.17172
9.27362
9.37834
9.48599
9.59667
9.71048
9.82755
9.94801
10.072
10.1996
10.3311
10.4666
10.6062
10.7502
10.8988
11.0522
11.2106
11.3744
11.5438
11.719
11.9006
12.0887
12.2839
12.4865
12.6971
12.9162
13.1443
13.3791
13.6232
13.8837
14.1626
14.4625
14.786
15.1365
15.5178
15.9348
16.3935
16.9011
17.4672
18.1039
18.8271
19.6582
20.6276
21.7758
23.1734
24.8958
27.1833
30.0868
34.9115
40.2193
53.2713
6.80228
6.80504
6.81188
6.8222
6.83544
6.85137
6.86993
6.89101
6.9145
6.94028
6.96828
6.99842
7.03064
7.06488
7.1011
7.13925
7.17931
7.22124
7.26502
7.31064
7.35807
7.40732
7.45838
7.51124
7.56591
7.6224
7.68071
7.74086
7.80286
7.86674
7.9325
8.00019
8.06983
8.14145
8.21509
8.29078
8.36856
8.44849
8.53061
8.61497
8.70163
8.79065
8.88209
8.97604
9.07255
9.17171
9.2736
9.37832
9.48597
9.59664
9.71045
9.82752
9.94798
10.072
10.1996
10.3311
10.4665
10.6062
10.7502
10.8987
11.0521
11.2106
11.3743
11.5437
11.7189
11.9005
12.0886
12.2837
12.4864
12.6969
12.916
13.1441
13.3789
13.623
13.8834
14.1623
14.4621
14.7856
15.136
15.5173
15.9342
16.3927
16.9002
17.4661
18.1024
18.8253
19.6559
20.6246
21.7715
23.1673
24.8867
27.1672
30.0607
34.8356
40.0795
52.5991
6.80228
6.80504
6.81188
6.8222
6.83544
6.85137
6.86993
6.89101
6.9145
6.94028
6.96828
6.99842
7.03064
7.06488
7.1011
7.13925
7.17931
7.22124
7.26502
7.31064
7.35807
7.40732
7.45838
7.51124
7.56591
7.6224
7.68071
7.74085
7.80286
7.86673
7.9325
8.00019
8.06983
8.14145
8.21508
8.29077
8.36855
8.44848
8.5306
8.61496
8.70162
8.79064
8.88208
8.97602
9.07253
9.17169
9.27358
9.3783
9.48595
9.59662
9.71043
9.82749
9.94795
10.0719
10.1996
10.331
10.4665
10.6061
10.7501
10.8987
11.0521
11.2105
11.3742
11.5436
11.7188
11.9003
12.0885
12.2836
12.4862
12.6968
12.9158
13.1439
13.3786
13.6227
13.8831
14.162
14.4617
14.7852
15.1355
15.5167
15.9335
16.3919
16.8992
17.4648
18.1009
18.8234
19.6534
20.6213
21.7671
23.1608
24.8771
27.1502
30.0331
34.7566
39.9345
51.9328
6.80228
6.80504
6.81188
6.8222
6.83544
6.85137
6.86993
6.89101
6.91449
6.94028
6.96828
6.99842
7.03064
7.06488
7.1011
7.13925
7.17931
7.22124
7.26502
7.31063
7.35807
7.40732
7.45837
7.51124
7.56591
7.62239
7.6807
7.74085
7.80285
7.86672
7.93249
8.00018
8.06982
8.14144
8.21507
8.29076
8.36855
8.44847
8.53059
8.61495
8.7016
8.79062
8.88207
8.976
9.07251
9.17167
9.27356
9.37828
9.48592
9.59659
9.7104
9.82746
9.94791
10.0719
10.1995
10.331
10.4664
10.6061
10.75
10.8986
11.052
11.2104
11.3742
11.5435
11.7187
11.9002
12.0883
12.2835
12.486
12.6966
12.9156
13.1436
13.3784
13.6224
13.8828
14.1616
14.4613
14.7847
15.135
15.516
15.9327
16.391
16.8981
17.4635
18.0993
18.8214
19.6508
20.6178
21.7624
23.1539
24.867
27.1323
30.0039
34.6746
39.7842
51.2725
6.80228
6.80504
6.81188
6.8222
6.83543
6.85137
6.86993
6.89101
6.91449
6.94028
6.96828
6.99842
7.03063
7.06488
7.10109
7.13925
7.1793
7.22123
7.26501
7.31063
7.35807
7.40731
7.45837
7.51123
7.5659
7.62239
7.6807
7.74085
7.80285
7.86672
7.93249
8.00018
8.06981
8.14143
8.21506
8.29075
8.36854
8.44846
8.53058
8.61493
8.70159
8.79061
8.88205
8.97599
9.07249
9.17165
9.27354
9.37826
9.4859
9.59656
9.71037
9.82743
9.94787
10.0718
10.1995
10.3309
10.4664
10.606
10.75
10.8986
11.0519
11.2103
11.3741
11.5434
11.7186
11.9001
12.0882
12.2833
12.4859
12.6964
12.9154
13.1434
13.3781
13.6221
13.8824
14.1612
14.4609
14.7842
15.1344
15.5154
15.9319
16.39
16.897
17.4622
18.0976
18.8192
19.648
20.6142
21.7574
23.1466
24.8562
27.1135
29.9731
34.5896
39.6287
50.6183
6.80227
6.80504
6.81188
6.8222
6.83543
6.85137
6.86993
6.89101
6.91449
6.94028
6.96827
6.99841
7.03063
7.06487
7.10109
7.13925
7.1793
7.22123
7.26501
7.31063
7.35806
7.40731
7.45837
7.51123
7.5659
7.62238
7.68069
7.74084
7.80284
7.86671
7.93248
8.00017
8.06981
8.14142
8.21506
8.29074
8.36853
8.44845
8.53056
8.61492
8.70158
8.79059
8.88203
8.97597
9.07247
9.17163
9.27352
9.37823
9.48587
9.59653
9.71033
9.82739
9.94784
10.0718
10.1994
10.3309
10.4663
10.6059
10.7499
10.8985
11.0518
11.2102
11.374
11.5433
11.7185
11.9
12.088
12.2831
12.4857
12.6962
12.9152
13.1432
13.3778
13.6218
13.8821
14.1608
14.4604
14.7837
15.1338
15.5147
15.9311
16.389
16.8958
17.4607
18.0958
18.817
19.6451
20.6103
21.7521
23.139
24.8449
27.0936
29.9406
34.5014
39.4681
49.9704
6.80227
6.80504
6.81187
6.8222
6.83543
6.85137
6.86992
6.891
6.91449
6.94027
6.96827
6.99841
7.03063
7.06487
7.10109
7.13924
7.1793
7.22123
7.26501
7.31062
7.35806
7.40731
7.45836
7.51122
7.56589
7.62238
7.68069
7.74083
7.80283
7.86671
7.93247
8.00016
8.0698
8.14141
8.21505
8.29073
8.36851
8.44844
8.53055
8.61491
8.70156
8.79058
8.88202
8.97595
9.07245
9.17161
9.27349
9.37821
9.48584
9.5965
9.7103
9.82736
9.94779
10.0718
10.1994
10.3308
10.4663
10.6059
10.7498
10.8984
11.0518
11.2101
11.3739
11.5432
11.7184
11.8998
12.0879
12.283
12.4855
12.696
12.9149
13.1429
13.3775
13.6215
13.8817
14.1604
14.4599
14.7831
15.1331
15.5139
15.9302
16.388
16.8945
17.4592
18.0939
18.8146
19.642
20.6062
21.7465
23.1309
24.8329
27.0727
29.9064
34.4102
39.3022
49.3289
6.80227
6.80504
6.81187
6.82219
6.83543
6.85137
6.86992
6.891
6.91449
6.94027
6.96827
6.99841
7.03063
7.06487
7.10109
7.13924
7.1793
7.22122
7.26501
7.31062
7.35806
7.4073
7.45836
7.51122
7.56589
7.62237
7.68068
7.74083
7.80283
7.8667
7.93247
8.00015
8.06979
8.1414
8.21504
8.29072
8.3685
8.44843
8.53054
8.61489
8.70155
8.79056
8.882
8.97593
9.07243
9.17158
9.27347
9.37818
9.48581
9.59647
9.71026
9.82732
9.94775
10.0717
10.1993
10.3308
10.4662
10.6058
10.7498
10.8983
11.0517
11.2101
11.3737
11.543
11.7182
11.8997
12.0877
12.2828
12.4853
12.6957
12.9147
13.1426
13.3772
13.6211
13.8813
14.1599
14.4594
14.7825
15.1325
15.5131
15.9293
16.3869
16.8932
17.4576
18.0919
18.812
19.6388
20.6019
21.7406
23.1223
24.8203
27.0508
29.8704
34.3159
39.1312
48.6941
6.80227
6.80504
6.81187
6.82219
6.83543
6.85136
6.86992
6.891
6.91449
6.94027
6.96827
6.99841
7.03063
7.06487
7.10108
7.13924
7.17929
7.22122
7.265
7.31062
7.35805
7.4073
7.45835
7.51121
7.56588
7.62237
7.68068
7.74082
7.80282
7.86669
7.93246
8.00014
8.06978
8.1414
8.21503
8.29071
8.36849
8.44841
8.53052
8.61488
8.70153
8.79054
8.88198
8.97591
9.07241
9.17156
9.27344
9.37815
9.48578
9.59643
9.71023