/*--------------------------------*- C++ -*----------------------------------*\
| =========                 |                                                 |
| \\      /  F ield         | OpenFOAM: The Open Source CFD Toolbox           |
|  \\    /   O peration     | Version:  v2012                                 |
|   \\  /    A nd           | Website:  www.openfoam.com                      |
|    \\/     M anipulation  |                                                 |
\*---------------------------------------------------------------------------*/
FoamFile
{
    version     2.0;
    format      ascii;
    class       volVectorField;
    location    "3.5";
    object      wallShearStress;
}
// * * * * * * * * * * * * * * * * * * * * * * * * * * * * * * * * * * * * * //

dimensions      [0 2 -2 0 0 0 0];


internalField   uniform (0 0 0);

boundaryField
{
    inlet
    {
        type            calculated;
        value           uniform (0 0 0);
    }
    outlet
    {
        type            calculated;
        value           uniform (0 0 0);
    }
    topWall
    {
        type            calculated;
        value           nonuniform List<vector> 
545
(
(9.44946e-09 -1.04311e-08 0)
(9.44592e-09 -2.91857e-08 0)
(9.43536e-09 -4.86783e-08 0)
(9.42183e-09 -6.7598e-08 0)
(9.40493e-09 -8.56994e-08 0)
(9.38487e-09 -1.03213e-07 0)
(9.36182e-09 -1.20286e-07 0)
(9.33602e-09 -1.36909e-07 0)
(9.30769e-09 -1.53045e-07 0)
(9.2771e-09 -1.68692e-07 0)
(9.24449e-09 -1.83871e-07 0)
(9.21005e-09 -1.98598e-07 0)
(9.17399e-09 -2.12885e-07 0)
(9.1365e-09 -2.26738e-07 0)
(9.09775e-09 -2.4017e-07 0)
(9.0579e-09 -2.53191e-07 0)
(9.01711e-09 -2.65812e-07 0)
(8.97551e-09 -2.78045e-07 0)
(8.93324e-09 -2.89899e-07 0)
(8.89042e-09 -3.01386e-07 0)
(8.84715e-09 -3.12517e-07 0)
(8.80355e-09 -3.233e-07 0)
(8.75972e-09 -3.33747e-07 0)
(8.71572e-09 -3.43868e-07 0)
(8.67166e-09 -3.53672e-07 0)
(8.62761e-09 -3.6317e-07 0)
(8.58363e-09 -3.7237e-07 0)
(8.53979e-09 -3.81281e-07 0)
(8.49614e-09 -3.89914e-07 0)
(8.45274e-09 -3.98275e-07 0)
(8.40963e-09 -4.06375e-07 0)
(8.36686e-09 -4.14221e-07 0)
(8.32447e-09 -4.21821e-07 0)
(8.28249e-09 -4.29184e-07 0)
(8.24095e-09 -4.36316e-07 0)
(8.19989e-09 -4.43226e-07 0)
(8.15932e-09 -4.4992e-07 0)
(8.11927e-09 -4.56405e-07 0)
(8.07976e-09 -4.62688e-07 0)
(8.0408e-09 -4.68777e-07 0)
(8.00241e-09 -4.74676e-07 0)
(7.9646e-09 -4.80392e-07 0)
(7.92738e-09 -4.85932e-07 0)
(7.89076e-09 -4.913e-07 0)
(7.85475e-09 -4.96503e-07 0)
(7.81935e-09 -5.01545e-07 0)
(7.78456e-09 -5.06433e-07 0)
(7.75039e-09 -5.11171e-07 0)
(7.71683e-09 -5.15764e-07 0)
(7.6839e-09 -5.20216e-07 0)
(7.65158e-09 -5.24533e-07 0)
(7.61987e-09 -5.28718e-07 0)
(7.58877e-09 -5.32776e-07 0)
(7.55828e-09 -5.36712e-07 0)
(7.5284e-09 -5.40528e-07 0)
(7.49911e-09 -5.44229e-07 0)
(7.47042e-09 -5.47818e-07 0)
(7.44231e-09 -5.513e-07 0)
(7.41478e-09 -5.54677e-07 0)
(7.38782e-09 -5.57953e-07 0)
(7.36142e-09 -5.61131e-07 0)
(7.33559e-09 -5.64215e-07 0)
(7.3103e-09 -5.67206e-07 0)
(7.28555e-09 -5.70109e-07 0)
(7.26134e-09 -5.72926e-07 0)
(7.23765e-09 -5.75659e-07 0)
(7.21447e-09 -5.78312e-07 0)
(7.1918e-09 -5.80887e-07 0)
(7.16963e-09 -5.83386e-07 0)
(7.14794e-09 -5.85811e-07 0)
(7.12676e-09 -5.88168e-07 0)
(7.10591e-09 -5.90449e-07 0)
(7.08576e-09 -5.92642e-07 0)
(7.06638e-09 -5.9477e-07 0)
(7.04718e-09 -5.9687e-07 0)
(7.02805e-09 -5.98956e-07 0)
(7.00896e-09 -6.01032e-07 0)
(6.98991e-09 -6.03093e-07 0)
(6.97089e-09 -6.05138e-07 0)
(6.95191e-09 -6.07167e-07 0)
(6.93297e-09 -6.09182e-07 0)
(6.91406e-09 -6.11183e-07 0)
(6.89518e-09 -6.13169e-07 0)
(6.87635e-09 -6.1514e-07 0)
(6.85755e-09 -6.17097e-07 0)
(6.83879e-09 -6.1904e-07 0)
(6.82008e-09 -6.20968e-07 0)
(6.8014e-09 -6.22883e-07 0)
(6.78276e-09 -6.24783e-07 0)
(6.76416e-09 -6.2667e-07 0)
(6.74561e-09 -6.28543e-07 0)
(6.72709e-09 -6.30401e-07 0)
(6.70863e-09 -6.32248e-07 0)
(6.69013e-09 -6.34077e-07 0)
(6.67206e-09 -6.35907e-07 0)
(6.65243e-09 -6.37685e-07 0)
(6.63349e-09 -6.39315e-07 0)
(6.61782e-09 -6.40813e-07 0)
(6.60274e-09 -6.4225e-07 0)
(6.58776e-09 -6.4369e-07 0)
(6.57276e-09 -6.45146e-07 0)
(6.5577e-09 -6.46606e-07 0)
(6.54259e-09 -6.48064e-07 0)
(6.52742e-09 -6.49518e-07 0)
(6.51219e-09 -6.50973e-07 0)
(6.49689e-09 -6.52429e-07 0)
(6.48154e-09 -6.53885e-07 0)
(6.46613e-09 -6.55341e-07 0)
(6.45066e-09 -6.56796e-07 0)
(6.43513e-09 -6.58252e-07 0)
(6.41953e-09 -6.59707e-07 0)
(6.40388e-09 -6.61163e-07 0)
(6.38817e-09 -6.62618e-07 0)
(6.37239e-09 -6.64073e-07 0)
(6.35656e-09 -6.65528e-07 0)
(6.34067e-09 -6.66983e-07 0)
(6.32471e-09 -6.68437e-07 0)
(6.30869e-09 -6.69892e-07 0)
(6.29262e-09 -6.71346e-07 0)
(6.27648e-09 -6.72799e-07 0)
(6.26028e-09 -6.74253e-07 0)
(6.24402e-09 -6.75706e-07 0)
(6.2277e-09 -6.77158e-07 0)
(6.21132e-09 -6.78611e-07 0)
(6.19488e-09 -6.80062e-07 0)
(6.17838e-09 -6.81514e-07 0)
(6.16182e-09 -6.82965e-07 0)
(6.14519e-09 -6.84415e-07 0)
(6.1285e-09 -6.85865e-07 0)
(6.11176e-09 -6.87315e-07 0)
(6.09495e-09 -6.88763e-07 0)
(6.07808e-09 -6.90212e-07 0)
(6.06115e-09 -6.91659e-07 0)
(6.04416e-09 -6.93106e-07 0)
(6.02711e-09 -6.94553e-07 0)
(6.00999e-09 -6.95998e-07 0)
(5.99282e-09 -6.97443e-07 0)
(5.97558e-09 -6.98887e-07 0)
(5.95829e-09 -7.00331e-07 0)
(5.94093e-09 -7.01773e-07 0)
(5.92351e-09 -7.03215e-07 0)
(5.90603e-09 -7.04656e-07 0)
(5.88848e-09 -7.06096e-07 0)
(5.87088e-09 -7.07536e-07 0)
(5.85322e-09 -7.08974e-07 0)
(5.83549e-09 -7.10411e-07 0)
(5.81771e-09 -7.11847e-07 0)
(5.79986e-09 -7.13283e-07 0)
(5.78195e-09 -7.14717e-07 0)
(5.76398e-09 -7.1615e-07 0)
(5.74595e-09 -7.17582e-07 0)
(5.72786e-09 -7.19013e-07 0)
(5.70971e-09 -7.20443e-07 0)
(5.69149e-09 -7.21871e-07 0)
(5.67322e-09 -7.23299e-07 0)
(5.65488e-09 -7.24725e-07 0)
(5.63649e-09 -7.2615e-07 0)
(5.61803e-09 -7.27574e-07 0)
(5.59951e-09 -7.28996e-07 0)
(5.58094e-09 -7.30417e-07 0)
(5.5623e-09 -7.31836e-07 0)
(5.5436e-09 -7.33254e-07 0)
(5.52484e-09 -7.34671e-07 0)
(5.50602e-09 -7.36086e-07 0)
(5.48715e-09 -7.375e-07 0)
(5.46821e-09 -7.38912e-07 0)
(5.44921e-09 -7.40322e-07 0)
(5.43015e-09 -7.41731e-07 0)
(5.41103e-09 -7.43139e-07 0)
(5.39185e-09 -7.44544e-07 0)
(5.37261e-09 -7.45948e-07 0)
(5.35332e-09 -7.47351e-07 0)
(5.33396e-09 -7.48751e-07 0)
(5.31454e-09 -7.5015e-07 0)
(5.29507e-09 -7.51547e-07 0)
(5.27553e-09 -7.52942e-07 0)
(5.25594e-09 -7.54335e-07 0)
(5.23629e-09 -7.55726e-07 0)
(5.21657e-09 -7.57115e-07 0)
(5.1968e-09 -7.58503e-07 0)
(5.17698e-09 -7.59888e-07 0)
(5.15709e-09 -7.61271e-07 0)
(5.13715e-09 -7.62652e-07 0)
(5.11714e-09 -7.64031e-07 0)
(5.09708e-09 -7.65408e-07 0)
(5.07696e-09 -7.66783e-07 0)
(5.05679e-09 -7.68155e-07 0)
(5.03656e-09 -7.69525e-07 0)
(5.01627e-09 -7.70893e-07 0)
(4.99592e-09 -7.72259e-07 0)
(4.97552e-09 -7.73622e-07 0)
(4.95505e-09 -7.74983e-07 0)
(4.93454e-09 -7.76342e-07 0)
(4.91396e-09 -7.77698e-07 0)
(4.89334e-09 -7.79051e-07 0)
(4.87265e-09 -7.80402e-07 0)
(4.85191e-09 -7.81751e-07 0)
(4.83111e-09 -7.83097e-07 0)
(4.81026e-09 -7.8444e-07 0)
(4.78935e-09 -7.8578e-07 0)
(4.76839e-09 -7.87118e-07 0)
(4.74738e-09 -7.88453e-07 0)
(4.72631e-09 -7.89786e-07 0)
(4.70518e-09 -7.91115e-07 0)
(4.684e-09 -7.92442e-07 0)
(4.66277e-09 -7.93766e-07 0)
(4.64149e-09 -7.95087e-07 0)
(4.62015e-09 -7.96405e-07 0)
(4.59876e-09 -7.9772e-07 0)
(4.57731e-09 -7.99032e-07 0)
(4.55582e-09 -8.00341e-07 0)
(4.53427e-09 -8.01647e-07 0)
(4.51267e-09 -8.02949e-07 0)
(4.49102e-09 -8.04249e-07 0)
(4.46931e-09 -8.05545e-07 0)
(4.44756e-09 -8.06838e-07 0)
(4.42576e-09 -8.08128e-07 0)
(4.4039e-09 -8.09415e-07 0)
(4.382e-09 -8.10698e-07 0)
(4.36004e-09 -8.11977e-07 0)
(4.33804e-09 -8.13254e-07 0)
(4.31599e-09 -8.14526e-07 0)
(4.29388e-09 -8.15796e-07 0)
(4.27173e-09 -8.17062e-07 0)
(4.24954e-09 -8.18324e-07 0)
(4.22729e-09 -8.19582e-07 0)
(4.205e-09 -8.20837e-07 0)
(4.18266e-09 -8.22088e-07 0)
(4.16027e-09 -8.23336e-07 0)
(4.13784e-09 -8.2458e-07 0)
(4.11536e-09 -8.25819e-07 0)
(4.09283e-09 -8.27055e-07 0)
(4.07026e-09 -8.28288e-07 0)
(4.04765e-09 -8.29516e-07 0)
(4.02499e-09 -8.3074e-07 0)
(4.00229e-09 -8.3196e-07 0)
(3.97954e-09 -8.33176e-07 0)
(3.95675e-09 -8.34388e-07 0)
(3.93392e-09 -8.35596e-07 0)
(3.91104e-09 -8.368e-07 0)
(3.88812e-09 -8.38e-07 0)
(3.86516e-09 -8.39195e-07 0)
(3.84216e-09 -8.40386e-07 0)
(3.81912e-09 -8.41573e-07 0)
(3.79604e-09 -8.42755e-07 0)
(3.77292e-09 -8.43933e-07 0)
(3.74976e-09 -8.45107e-07 0)
(3.72656e-09 -8.46276e-07 0)
(3.70333e-09 -8.4744e-07 0)
(3.68005e-09 -8.486e-07 0)
(3.65674e-09 -8.49756e-07 0)
(3.63339e-09 -8.50907e-07 0)
(3.61e-09 -8.52053e-07 0)
(3.58658e-09 -8.53194e-07 0)
(3.56312e-09 -8.5433e-07 0)
(3.53963e-09 -8.55462e-07 0)
(3.5161e-09 -8.56589e-07 0)
(3.49254e-09 -8.57711e-07 0)
(3.46894e-09 -8.58828e-07 0)
(3.44532e-09 -8.5994e-07 0)
(3.42166e-09 -8.61048e-07 0)
(3.39796e-09 -8.6215e-07 0)
(3.37424e-09 -8.63247e-07 0)
(3.35049e-09 -8.64339e-07 0)
(3.3267e-09 -8.65425e-07 0)
(3.3029e-09 -8.66508e-07 0)
(3.27897e-09 -8.67581e-07 0)
(3.25544e-09 -8.68665e-07 0)
(3.23012e-09 -8.69709e-07 0)
(3.20518e-09 -8.70704e-07 0)
(3.18334e-09 -8.71678e-07 0)
(3.16191e-09 -8.72614e-07 0)
(3.14041e-09 -8.73551e-07 0)
(3.11873e-09 -8.74503e-07 0)
(3.09685e-09 -8.75462e-07 0)
(3.07475e-09 -8.76423e-07 0)
(3.05244e-09 -8.77385e-07 0)
(3.0299e-09 -8.78351e-07 0)
(3.00715e-09 -8.7932e-07 0)
(2.98418e-09 -8.80293e-07 0)
(2.96099e-09 -8.81268e-07 0)
(2.93757e-09 -8.82247e-07 0)
(2.91393e-09 -8.83228e-07 0)
(2.89007e-09 -8.84212e-07 0)
(2.86598e-09 -8.85198e-07 0)
(2.84166e-09 -8.86186e-07 0)
(2.81711e-09 -8.87177e-07 0)
(2.79234e-09 -8.8817e-07 0)
(2.76733e-09 -8.89165e-07 0)
(2.74209e-09 -8.90161e-07 0)
(2.71662e-09 -8.91159e-07 0)
(2.69092e-09 -8.92158e-07 0)
(2.66499e-09 -8.93159e-07 0)
(2.63882e-09 -8.94161e-07 0)
(2.61242e-09 -8.95163e-07 0)
(2.58578e-09 -8.96166e-07 0)
(2.5589e-09 -8.9717e-07 0)
(2.53179e-09 -8.98173e-07 0)
(2.50444e-09 -8.99177e-07 0)
(2.47685e-09 -9.00181e-07 0)
(2.44903e-09 -9.01184e-07 0)
(2.42097e-09 -9.02187e-07 0)
(2.39267e-09 -9.03189e-07 0)
(2.36413e-09 -9.0419e-07 0)
(2.33535e-09 -9.05189e-07 0)
(2.30633e-09 -9.06187e-07 0)
(2.27708e-09 -9.07183e-07 0)
(2.24758e-09 -9.08177e-07 0)
(2.21785e-09 -9.09169e-07 0)
(2.18788e-09 -9.10158e-07 0)
(2.15767e-09 -9.11144e-07 0)
(2.12723e-09 -9.12127e-07 0)
(2.09655e-09 -9.13106e-07 0)
(2.06563e-09 -9.14082e-07 0)
(2.03448e-09 -9.15053e-07 0)
(2.00309e-09 -9.1602e-07 0)
(1.97147e-09 -9.16983e-07 0)
(1.93961e-09 -9.1794e-07 0)
(1.90753e-09 -9.18892e-07 0)
(1.87521e-09 -9.19838e-07 0)
(1.84266e-09 -9.20778e-07 0)
(1.80989e-09 -9.21711e-07 0)
(1.77689e-09 -9.22638e-07 0)
(1.74367e-09 -9.23557e-07 0)
(1.71022e-09 -9.24469e-07 0)
(1.67656e-09 -9.25372e-07 0)
(1.64267e-09 -9.26268e-07 0)
(1.60857e-09 -9.27154e-07 0)
(1.57426e-09 -9.28031e-07 0)
(1.53973e-09 -9.28899e-07 0)
(1.505e-09 -9.29757e-07 0)
(1.47006e-09 -9.30604e-07 0)
(1.43492e-09 -9.3144e-07 0)
(1.39957e-09 -9.32264e-07 0)
(1.36403e-09 -9.33077e-07 0)
(1.3283e-09 -9.33877e-07 0)
(1.29238e-09 -9.34665e-07 0)
(1.25627e-09 -9.35439e-07 0)
(1.21998e-09 -9.36199e-07 0)
(1.18351e-09 -9.36945e-07 0)
(1.14687e-09 -9.37676e-07 0)
(1.11005e-09 -9.38392e-07 0)
(1.07308e-09 -9.39092e-07 0)
(1.03594e-09 -9.39775e-07 0)
(9.98651e-10 -9.40442e-07 0)
(9.61211e-10 -9.41091e-07 0)
(9.23626e-10 -9.41722e-07 0)
(8.85902e-10 -9.42334e-07 0)
(8.48045e-10 -9.42927e-07 0)
(8.10062e-10 -9.435e-07 0)
(7.71957e-10 -9.44053e-07 0)
(7.33738e-10 -9.44585e-07 0)
(6.95411e-10 -9.45095e-07 0)
(6.56983e-10 -9.45583e-07 0)
(6.1846e-10 -9.46048e-07 0)
(5.79851e-10 -9.4649e-07 0)
(5.41163e-10 -9.46908e-07 0)
(5.02402e-10 -9.47301e-07 0)
(4.63577e-10 -9.47669e-07 0)
(4.24697e-10 -9.48011e-07 0)
(3.85768e-10 -9.48326e-07 0)
(3.46801e-10 -9.48614e-07 0)
(3.07803e-10 -9.48874e-07 0)
(2.68784e-10 -9.49105e-07 0)
(2.29752e-10 -9.49307e-07 0)
(1.90718e-10 -9.4948e-07 0)
(1.5169e-10 -9.49621e-07 0)
(1.12679e-10 -9.49732e-07 0)
(7.3694e-11 -9.4981e-07 0)
(3.47462e-11 -9.49856e-07 0)
(-4.1542e-12 -9.49869e-07 0)
(-4.29965e-11 -9.49847e-07 0)
(-8.17699e-11 -9.49791e-07 0)
(-1.20463e-10 -9.497e-07 0)
(-1.59065e-10 -9.49572e-07 0)
(-1.97564e-10 -9.49408e-07 0)
(-2.35948e-10 -9.49206e-07 0)
(-2.74205e-10 -9.48967e-07 0)
(-3.12324e-10 -9.48688e-07 0)
(-3.50292e-10 -9.4837e-07 0)
(-3.88096e-10 -9.48012e-07 0)
(-4.25725e-10 -9.47613e-07 0)
(-4.63165e-10 -9.47173e-07 0)
(-5.00404e-10 -9.46691e-07 0)
(-5.37428e-10 -9.46165e-07 0)
(-5.74225e-10 -9.45597e-07 0)
(-6.10782e-10 -9.44984e-07 0)
(-6.47084e-10 -9.44327e-07 0)
(-6.8312e-10 -9.43625e-07 0)
(-7.18875e-10 -9.42876e-07 0)
(-7.54335e-10 -9.42081e-07 0)
(-7.89489e-10 -9.41239e-07 0)
(-8.24321e-10 -9.40349e-07 0)
(-8.58818e-10 -9.39411e-07 0)
(-8.92967e-10 -9.38424e-07 0)
(-9.26753e-10 -9.37388e-07 0)
(-9.60165e-10 -9.36302e-07 0)
(-9.93186e-10 -9.35165e-07 0)
(-1.02581e-09 -9.33978e-07 0)
(-1.05801e-09 -9.32739e-07 0)
(-1.08978e-09 -9.31448e-07 0)
(-1.12111e-09 -9.30105e-07 0)
(-1.15198e-09 -9.28709e-07 0)
(-1.18238e-09 -9.2726e-07 0)
(-1.2123e-09 -9.25757e-07 0)
(-1.24172e-09 -9.242e-07 0)
(-1.27063e-09 -9.22589e-07 0)
(-1.29902e-09 -9.20924e-07 0)
(-1.32688e-09 -9.19204e-07 0)
(-1.35419e-09 -9.17428e-07 0)
(-1.38093e-09 -9.15597e-07 0)
(-1.40711e-09 -9.1371e-07 0)
(-1.4327e-09 -9.11767e-07 0)
(-1.4577e-09 -9.09769e-07 0)
(-1.4821e-09 -9.07714e-07 0)
(-1.50587e-09 -9.05602e-07 0)
(-1.52902e-09 -9.03434e-07 0)
(-1.55153e-09 -9.0121e-07 0)
(-1.57339e-09 -8.98929e-07 0)
(-1.5946e-09 -8.96592e-07 0)
(-1.61514e-09 -8.94198e-07 0)
(-1.635e-09 -8.91748e-07 0)
(-1.65418e-09 -8.89241e-07 0)
(-1.67267e-09 -8.86678e-07 0)
(-1.69046e-09 -8.84059e-07 0)
(-1.70755e-09 -8.81384e-07 0)
(-1.72392e-09 -8.78654e-07 0)
(-1.73957e-09 -8.75868e-07 0)
(-1.75449e-09 -8.73027e-07 0)
(-1.76869e-09 -8.70131e-07 0)
(-1.78215e-09 -8.67181e-07 0)
(-1.79487e-09 -8.64176e-07 0)
(-1.80684e-09 -8.61118e-07 0)
(-1.81807e-09 -8.58007e-07 0)
(-1.82855e-09 -8.54844e-07 0)
(-1.83828e-09 -8.51628e-07 0)
(-1.84725e-09 -8.48361e-07 0)
(-1.85547e-09 -8.45042e-07 0)
(-1.86293e-09 -8.41674e-07 0)
(-1.86964e-09 -8.38256e-07 0)
(-1.87559e-09 -8.34789e-07 0)
(-1.88078e-09 -8.31274e-07 0)
(-1.88522e-09 -8.27712e-07 0)
(-1.88891e-09 -8.24103e-07 0)
(-1.89185e-09 -8.20449e-07 0)
(-1.89403e-09 -8.16751e-07 0)
(-1.89551e-09 -8.13005e-07 0)
(-1.89603e-09 -8.09227e-07 0)
(-1.89676e-09 -8.05358e-07 0)
(-1.8928e-09 -8.01521e-07 0)
(-1.88801e-09 -7.97232e-07 0)
(-1.88668e-09 -7.92395e-07 0)
(-1.88341e-09 -7.87613e-07 0)
(-1.87893e-09 -7.82849e-07 0)
(-1.87348e-09 -7.78088e-07 0)
(-1.86717e-09 -7.73338e-07 0)
(-1.86004e-09 -7.68608e-07 0)
(-1.85213e-09 -7.639e-07 0)
(-1.84349e-09 -7.59212e-07 0)
(-1.83414e-09 -7.54546e-07 0)
(-1.82413e-09 -7.49905e-07 0)
(-1.81349e-09 -7.4529e-07 0)
(-1.80225e-09 -7.40703e-07 0)
(-1.79044e-09 -7.36145e-07 0)
(-1.7781e-09 -7.31618e-07 0)
(-1.76524e-09 -7.27123e-07 0)
(-1.7519e-09 -7.22661e-07 0)
(-1.7381e-09 -7.18234e-07 0)
(-1.72386e-09 -7.13842e-07 0)
(-1.7092e-09 -7.09487e-07 0)
(-1.69416e-09 -7.0517e-07 0)
(-1.67874e-09 -7.00891e-07 0)
(-1.66296e-09 -6.96652e-07 0)
(-1.64684e-09 -6.92453e-07 0)
(-1.63041e-09 -6.88296e-07 0)
(-1.61366e-09 -6.84181e-07 0)
(-1.59663e-09 -6.80108e-07 0)
(-1.57931e-09 -6.76079e-07 0)
(-1.56172e-09 -6.72095e-07 0)
(-1.54388e-09 -6.68155e-07 0)
(-1.5258e-09 -6.64261e-07 0)
(-1.50748e-09 -6.60413e-07 0)
(-1.48893e-09 -6.56612e-07 0)
(-1.47017e-09 -6.52859e-07 0)
(-1.45119e-09 -6.49153e-07 0)
(-1.43201e-09 -6.45496e-07 0)
(-1.41264e-09 -6.41887e-07 0)
(-1.39307e-09 -6.38328e-07 0)
(-1.37332e-09 -6.34819e-07 0)
(-1.35339e-09 -6.3136e-07 0)
(-1.33328e-09 -6.27952e-07 0)
(-1.313e-09 -6.24595e-07 0)
(-1.29255e-09 -6.2129e-07 0)
(-1.27194e-09 -6.18037e-07 0)
(-1.25116e-09 -6.14836e-07 0)
(-1.23023e-09 -6.11688e-07 0)
(-1.20913e-09 -6.08594e-07 0)
(-1.18788e-09 -6.05553e-07 0)
(-1.16648e-09 -6.02567e-07 0)
(-1.14493e-09 -5.99635e-07 0)
(-1.12322e-09 -5.96758e-07 0)
(-1.10137e-09 -5.93936e-07 0)
(-1.07937e-09 -5.91169e-07 0)
(-1.05722e-09 -5.88459e-07 0)
(-1.03493e-09 -5.85805e-07 0)
(-1.01249e-09 -5.83208e-07 0)
(-9.89904e-10 -5.80668e-07 0)
(-9.67179e-10 -5.78185e-07 0)
(-9.44311e-10 -5.75761e-07 0)
(-9.21302e-10 -5.73394e-07 0)
(-8.98153e-10 -5.71086e-07 0)
(-8.74865e-10 -5.68837e-07 0)
(-8.51439e-10 -5.66647e-07 0)
(-8.27876e-10 -5.64517e-07 0)
(-8.04178e-10 -5.62446e-07 0)
(-7.80346e-10 -5.60436e-07 0)
(-7.56382e-10 -5.58487e-07 0)
(-7.32287e-10 -5.56598e-07 0)
(-7.08064e-10 -5.54771e-07 0)
(-6.83713e-10 -5.53006e-07 0)
(-6.59239e-10 -5.51302e-07 0)
(-6.34643e-10 -5.49661e-07 0)
(-6.09927e-10 -5.48082e-07 0)
(-5.85096e-10 -5.46566e-07 0)
(-5.60151e-10 -5.45113e-07 0)
(-5.35096e-10 -5.43724e-07 0)
(-5.09936e-10 -5.42398e-07 0)
(-4.84672e-10 -5.41136e-07 0)
(-4.59311e-10 -5.39939e-07 0)
(-4.33855e-10 -5.38806e-07 0)
(-4.0831e-10 -5.37738e-07 0)
(-3.82682e-10 -5.36734e-07 0)
(-3.56975e-10 -5.35796e-07 0)
(-3.31198e-10 -5.34924e-07 0)
(-3.05356e-10 -5.34115e-07 0)
(-2.79459e-10 -5.33377e-07 0)
(-2.53509e-10 -5.32689e-07 0)
(-2.2752e-10 -5.32116e-07 0)
(-2.01454e-10 -5.31448e-07 0)
(-1.75413e-10 -5.31372e-07 0)
(-1.48929e-10 -5.29583e-07 0)
(-1.2365e-10 -5.3354e-07 0)
(-9.35003e-11 -5.17306e-07 0)
(-8.24407e-11 -5.59565e-07 0)
(-4.48773e-11 -4.88565e-07 0)
)
;
    }
    bottomWall
    {
        type            calculated;
        value           nonuniform List<vector> 
449
(
(-46.5204 -0.879899 0)
(-20.1271 -0.221957 0)
(-14.2545 -0.0269333 0)
(-11.9383 -0.0146398 0)
(-10.5736 -0.0106566 0)
(-9.62756 -0.00804003 0)
(-8.88494 -0.00643988 0)
(-8.28398 -0.00521281 0)
(-7.79076 -0.00431859 0)
(-7.37628 -0.0036734 0)
(-7.02032 -0.00317917 0)
(-6.71009 -0.00278282 0)
(-6.43676 -0.00245981 0)
(-6.19365 -0.0021941 0)
(-5.97555 -0.00197273 0)
(-5.77841 -0.00178579 0)
(-5.59909 -0.00162613 0)
(-5.43504 -0.00148854 0)
(-5.28422 -0.00136901 0)
(-5.14492 -0.0012644 0)
(-5.01576 -0.00117223 0)
(-4.89555 -0.00109054 0)
(-4.7833 -0.00101772 0)
(-4.67817 -0.000952506 0)
(-4.57943 -0.000893823 0)
(-4.48646 -0.000840796 0)
(-4.39871 -0.000792694 0)
(-4.31571 -0.000748903 0)
(-4.23705 -0.000708903 0)
(-4.16235 -0.000672251 0)
(-4.09129 -0.000638571 0)
(-4.02359 -0.000607537 0)
(-3.95899 -0.000578868 0)
(-3.89725 -0.000552322 0)
(-3.83817 -0.000527684 0)
(-3.78157 -0.000504771 0)
(-3.72726 -0.000483418 0)
(-3.6751 -0.000463481 0)
(-3.62496 -0.000444834 0)
(-3.57669 -0.000427362 0)
(-3.5302 -0.000410966 0)
(-3.48536 -0.000395556 0)
(-3.44209 -0.000381051 0)
(-3.40029 -0.000367378 0)
(-3.35988 -0.000354474 0)
(-3.32079 -0.000342279 0)
(-3.28294 -0.00033074 0)
(-3.24627 -0.000319809 0)
(-3.21072 -0.000309443 0)
(-3.17622 -0.000299602 0)
(-3.14274 -0.00029025 0)
(-3.11022 -0.000281353 0)
(-3.07861 -0.000272882 0)
(-3.04788 -0.000264808 0)
(-3.01797 -0.000257107 0)
(-2.98887 -0.000249755 0)
(-2.96052 -0.00024273 0)
(-2.9329 -0.000236012 0)
(-2.90597 -0.000229584 0)
(-2.87971 -0.000223427 0)
(-2.85409 -0.000217528 0)
(-2.82908 -0.00021187 0)
(-2.80466 -0.00020644 0)
(-2.78081 -0.000201226 0)
(-2.7575 -0.000196216 0)
(-2.73471 -0.0001914 0)
(-2.71243 -0.000186766 0)
(-2.69063 -0.000182306 0)
(-2.6693 -0.000178011 0)
(-2.64842 -0.000173872 0)
(-2.62798 -0.000169882 0)
(-2.60795 -0.000166033 0)
(-2.58833 -0.000162318 0)
(-2.5691 -0.000158732 0)
(-2.55025 -0.000155267 0)
(-2.53176 -0.000151919 0)
(-2.51363 -0.000148682 0)
(-2.49584 -0.000145551 0)
(-2.47838 -0.000142521 0)
(-2.46125 -0.000139588 0)
(-2.44442 -0.000136748 0)
(-2.4279 -0.000133996 0)
(-2.41167 -0.000131329 0)
(-2.39572 -0.000128744 0)
(-2.38005 -0.000126236 0)
(-2.36464 -0.000123803 0)
(-2.3495 -0.000121442 0)
(-2.33461 -0.000119149 0)
(-2.31996 -0.000116922 0)
(-2.30555 -0.000114759 0)
(-2.29138 -0.000112657 0)
(-2.27743 -0.000110613 0)
(-2.2637 -0.000108626 0)
(-2.25018 -0.000106693 0)
(-2.23687 -0.000104812 0)
(-2.22377 -0.000102982 0)
(-2.21086 -0.0001012 0)
(-2.19814 -9.94651e-05 0)
(-2.18562 -9.77751e-05 0)
(-2.17327 -9.61286e-05 0)
(-2.1611 -9.4524e-05 0)
(-2.14911 -9.29599e-05 0)
(-2.13729 -9.14348e-05 0)
(-2.12563 -8.99476e-05 0)
(-2.11414 -8.84969e-05 0)
(-2.1028 -8.70814e-05 0)
(-2.09162 -8.57e-05 0)
(-2.08059 -8.43517e-05 0)
(-2.0697 -8.30352e-05 0)
(-2.05896 -8.17496e-05 0)
(-2.04836 -8.0494e-05 0)
(-2.0379 -7.92672e-05 0)
(-2.02757 -7.80685e-05 0)
(-2.01738 -7.6897e-05 0)
(-2.00731 -7.57519e-05 0)
(-1.99737 -7.46322e-05 0)
(-1.98755 -7.35373e-05 0)
(-1.97785 -7.24664e-05 0)
(-1.96827 -7.14188e-05 0)
(-1.95881 -7.03938e-05 0)
(-1.94946 -6.93908e-05 0)
(-1.94022 -6.8409e-05 0)
(-1.93109 -6.74479e-05 0)
(-1.92207 -6.6507e-05 0)
(-1.91315 -6.55855e-05 0)
(-1.90433 -6.4683e-05 0)
(-1.89562 -6.3799e-05 0)
(-1.887 -6.29329e-05 0)
(-1.87848 -6.20842e-05 0)
(-1.87005 -6.12525e-05 0)
(-1.86172 -6.04373e-05 0)
(-1.85348 -5.96381e-05 0)
(-1.84533 -5.88546e-05 0)
(-1.83726 -5.80863e-05 0)
(-1.82928 -5.73328e-05 0)
(-1.82139 -5.65937e-05 0)
(-1.81358 -5.58687e-05 0)
(-1.80585 -5.51573e-05 0)
(-1.7982 -5.44593e-05 0)
(-1.79063 -5.37743e-05 0)
(-1.78314 -5.31019e-05 0)
(-1.77572 -5.24419e-05 0)
(-1.76838 -5.1794e-05 0)
(-1.76111 -5.11578e-05 0)
(-1.75391 -5.0533e-05 0)
(-1.74678 -4.99195e-05 0)
(-1.73973 -4.93168e-05 0)
(-1.73274 -4.87248e-05 0)
(-1.72582 -4.81432e-05 0)
(-1.71897 -4.75717e-05 0)
(-1.71218 -4.70101e-05 0)
(-1.70545 -4.64582e-05 0)
(-1.69879 -4.59157e-05 0)
(-1.69219 -4.53825e-05 0)
(-1.68565 -4.48582e-05 0)
(-1.67917 -4.43428e-05 0)
(-1.67275 -4.3836e-05 0)
(-1.66639 -4.33377e-05 0)
(-1.66009 -4.28475e-05 0)
(-1.65384 -4.23654e-05 0)
(-1.64765 -4.18912e-05 0)
(-1.64151 -4.14247e-05 0)
(-1.63543 -4.09657e-05 0)
(-1.6294 -4.0514e-05 0)
(-1.62342 -4.00696e-05 0)
(-1.61749 -3.96323e-05 0)
(-1.61162 -3.92019e-05 0)
(-1.60579 -3.87783e-05 0)
(-1.60001 -3.83622e-05 0)
(-1.59429 -3.79493e-05 0)
(-1.58861 -3.75515e-05 0)
(-1.58297 -3.71579e-05 0)
(-1.57739 -3.66919e-05 0)
(-1.57216 -3.63521e-05 0)
(-1.56725 -3.61096e-05 0)
(-1.56233 -3.57416e-05 0)
(-1.55741 -3.53814e-05 0)
(-1.55248 -3.50436e-05 0)
(-1.54754 -3.47082e-05 0)
(-1.5426 -3.43746e-05 0)
(-1.53765 -3.40435e-05 0)
(-1.5327 -3.37148e-05 0)
(-1.52774 -3.3388e-05 0)
(-1.52278 -3.30631e-05 0)
(-1.51781 -3.27402e-05 0)
(-1.51284 -3.24192e-05 0)
(-1.50786 -3.21e-05 0)
(-1.50288 -3.17826e-05 0)
(-1.49789 -3.14671e-05 0)
(-1.4929 -3.11534e-05 0)
(-1.48791 -3.08417e-05 0)
(-1.48291 -3.05317e-05 0)
(-1.47791 -3.02237e-05 0)
(-1.4729 -2.99175e-05 0)
(-1.46789 -2.96132e-05 0)
(-1.46288 -2.93108e-05 0)
(-1.45787 -2.90103e-05 0)
(-1.45286 -2.87118e-05 0)
(-1.44784 -2.84151e-05 0)
(-1.44282 -2.81204e-05 0)
(-1.4378 -2.78276e-05 0)
(-1.43277 -2.75368e-05 0)
(-1.42775 -2.72479e-05 0)
(-1.42272 -2.69609e-05 0)
(-1.4177 -2.66759e-05 0)
(-1.41267 -2.63929e-05 0)
(-1.40764 -2.61119e-05 0)
(-1.40261 -2.58328e-05 0)
(-1.39758 -2.55557e-05 0)
(-1.39255 -2.52806e-05 0)
(-1.38753 -2.50074e-05 0)
(-1.3825 -2.47363e-05 0)
(-1.37747 -2.44672e-05 0)
(-1.37244 -2.42e-05 0)
(-1.36742 -2.39348e-05 0)
(-1.36239 -2.36717e-05 0)
(-1.35737 -2.34105e-05 0)
(-1.35235 -2.31514e-05 0)
(-1.34733 -2.28942e-05 0)
(-1.34231 -2.26391e-05 0)
(-1.33729 -2.23859e-05 0)
(-1.33228 -2.21348e-05 0)
(-1.32727 -2.18856e-05 0)
(-1.32226 -2.16385e-05 0)
(-1.31725 -2.13933e-05 0)
(-1.31225 -2.11502e-05 0)
(-1.30725 -2.0909e-05 0)
(-1.30226 -2.06699e-05 0)
(-1.29726 -2.04327e-05 0)
(-1.29227 -2.01975e-05 0)
(-1.28729 -1.99644e-05 0)
(-1.28231 -1.97332e-05 0)
(-1.27733 -1.9504e-05 0)
(-1.27236 -1.92767e-05 0)
(-1.26739 -1.90515e-05 0)
(-1.26243 -1.88282e-05 0)
(-1.25747 -1.86068e-05 0)
(-1.25252 -1.83875e-05 0)
(-1.24757 -1.81701e-05 0)
(-1.24263 -1.79546e-05 0)
(-1.23769 -1.77411e-05 0)
(-1.23276 -1.75295e-05 0)
(-1.22784 -1.73198e-05 0)
(-1.22292 -1.71121e-05 0)
(-1.21801 -1.69063e-05 0)
(-1.2131 -1.67024e-05 0)
(-1.2082 -1.65004e-05 0)
(-1.20331 -1.63003e-05 0)
(-1.19843 -1.61021e-05 0)
(-1.19355 -1.59058e-05 0)
(-1.18868 -1.57114e-05 0)
(-1.18381 -1.55188e-05 0)
(-1.17896 -1.53281e-05 0)
(-1.17411 -1.51392e-05 0)
(-1.16927 -1.49522e-05 0)
(-1.16443 -1.4767e-05 0)
(-1.15961 -1.45837e-05 0)
(-1.15479 -1.44021e-05 0)
(-1.14998 -1.42224e-05 0)
(-1.14518 -1.40444e-05 0)
(-1.14039 -1.38683e-05 0)
(-1.13561 -1.36939e-05 0)
(-1.13084 -1.35212e-05 0)
(-1.12607 -1.33504e-05 0)
(-1.12132 -1.31813e-05 0)
(-1.11657 -1.30139e-05 0)
(-1.11183 -1.28482e-05 0)
(-1.10711 -1.26843e-05 0)
(-1.10239 -1.2522e-05 0)
(-1.09768 -1.23615e-05 0)
(-1.09299 -1.22026e-05 0)
(-1.0883 -1.20454e-05 0)
(-1.08362 -1.18898e-05 0)
(-1.07896 -1.17359e-05 0)
(-1.0743 -1.15836e-05 0)
(-1.06965 -1.14329e-05 0)
(-1.06502 -1.12838e-05 0)
(-1.06039 -1.11363e-05 0)
(-1.05578 -1.09904e-05 0)
(-1.05118 -1.08461e-05 0)
(-1.04659 -1.07033e-05 0)
(-1.04201 -1.0562e-05 0)
(-1.03744 -1.04223e-05 0)
(-1.03289 -1.02841e-05 0)
(-1.02834 -1.01474e-05 0)
(-1.02381 -1.00121e-05 0)
(-1.01929 -9.87836e-06 0)
(-1.01478 -9.74605e-06 0)
(-1.01028 -9.61517e-06 0)
(-1.0058 -9.48574e-06 0)
(-1.00133 -9.35771e-06 0)
(-0.996871 -9.23108e-06 0)
(-0.992425 -9.10584e-06 0)
(-0.987993 -8.98197e-06 0)
(-0.983573 -8.85946e-06 0)
(-0.979166 -8.73829e-06 0)
(-0.974773 -8.61845e-06 0)
(-0.970393 -8.49993e-06 0)
(-0.966026 -8.38271e-06 0)
(-0.961674 -8.26679e-06 0)
(-0.957335 -8.15213e-06 0)
(-0.95301 -8.03874e-06 0)
(-0.948699 -7.9266e-06 0)
(-0.944403 -7.81569e-06 0)
(-0.940121 -7.70601e-06 0)
(-0.935854 -7.59754e-06 0)
(-0.931601 -7.49027e-06 0)
(-0.927363 -7.38418e-06 0)
(-0.92314 -7.27926e-06 0)
(-0.918933 -7.17551e-06 0)
(-0.91474 -7.07291e-06 0)
(-0.910563 -6.97145e-06 0)
(-0.906402 -6.87112e-06 0)
(-0.902256 -6.7719e-06 0)
(-0.898127 -6.6738e-06 0)
(-0.894013 -6.57678e-06 0)
(-0.889915 -6.48087e-06 0)
(-0.885834 -6.38602e-06 0)
(-0.88177 -6.29225e-06 0)
(-0.877721 -6.19954e-06 0)
(-0.87369 -6.10788e-06 0)
(-0.869676 -6.01726e-06 0)
(-0.865678 -5.92767e-06 0)
(-0.861698 -5.83911e-06 0)
(-0.857735 -5.75156e-06 0)
(-0.85379 -5.66502e-06 0)
(-0.849862 -5.57948e-06 0)
(-0.845952 -5.49494e-06 0)
(-0.84206 -5.41139e-06 0)
(-0.838186 -5.32881e-06 0)
(-0.83433 -5.24722e-06 0)
(-0.830493 -5.16658e-06 0)
(-0.826673 -5.08691e-06 0)
(-0.822873 -5.00819e-06 0)
(-0.81909 -4.93041e-06 0)
(-0.815327 -4.85357e-06 0)
(-0.811583 -4.77767e-06 0)
(-0.807857 -4.7027e-06 0)
(-0.804151 -4.62864e-06 0)
(-0.800464 -4.55551e-06 0)
(-0.796796 -4.48328e-06 0)
(-0.793147 -4.41195e-06 0)
(-0.789518 -4.34152e-06 0)
(-0.785909 -4.27199e-06 0)
(-0.782319 -4.20334e-06 0)
(-0.778749 -4.13557e-06 0)
(-0.775199 -4.06868e-06 0)
(-0.771669 -4.00267e-06 0)
(-0.768159 -3.9375e-06 0)
(-0.764669 -3.87329e-06 0)
(-0.761199 -3.80979e-06 0)
(-0.757749 -3.74658e-06 0)
(-0.75432 -3.68713e-06 0)
(-0.750907 -3.62756e-06 0)
(-0.747137 -3.55597e-06 0)
(-0.743056 -3.48285e-06 0)
(-0.739056 -3.41742e-06 0)
(-0.73513 -3.35293e-06 0)
(-0.73128 -3.28787e-06 0)
(-0.727505 -3.22401e-06 0)
(-0.723804 -3.16175e-06 0)
(-0.720175 -3.10109e-06 0)
(-0.716615 -3.04202e-06 0)
(-0.713124 -2.98449e-06 0)
(-0.709698 -2.92846e-06 0)
(-0.706338 -2.87389e-06 0)
(-0.703039 -2.82072e-06 0)
(-0.699803 -2.76892e-06 0)
(-0.696625 -2.71844e-06 0)
(-0.693506 -2.66922e-06 0)
(-0.690444 -2.62123e-06 0)
(-0.687436 -2.57442e-06 0)
(-0.684483 -2.52876e-06 0)
(-0.681582 -2.48421e-06 0)
(-0.678732 -2.44073e-06 0)
(-0.675933 -2.39829e-06 0)
(-0.673182 -2.35685e-06 0)
(-0.670479 -2.31639e-06 0)
(-0.667822 -2.27686e-06 0)
(-0.665211 -2.23825e-06 0)
(-0.662645 -2.20053e-06 0)
(-0.660122 -2.16366e-06 0)
(-0.657641 -2.12762e-06 0)
(-0.655202 -2.09239e-06 0)
(-0.652803 -2.05795e-06 0)
(-0.650444 -2.02426e-06 0)
(-0.648124 -1.99131e-06 0)
(-0.645842 -1.95908e-06 0)
(-0.643596 -1.92754e-06 0)
(-0.641388 -1.89668e-06 0)
(-0.639214 -1.86648e-06 0)
(-0.637076 -1.83691e-06 0)
(-0.634971 -1.80797e-06 0)
(-0.6329 -1.77963e-06 0)
(-0.630861 -1.75187e-06 0)
(-0.628855 -1.72469e-06 0)
(-0.626879 -1.69806e-06 0)
(-0.624934 -1.67198e-06 0)
(-0.62302 -1.64642e-06 0)
(-0.621135 -1.62138e-06 0)
(-0.619278 -1.59683e-06 0)
(-0.61745 -1.57278e-06 0)
(-0.615649 -1.5492e-06 0)
(-0.613876 -1.52608e-06 0)
(-0.612129 -1.50341e-06 0)
(-0.610409 -1.48118e-06 0)
(-0.608714 -1.45938e-06 0)
(-0.607044 -1.438e-06 0)
(-0.605398 -1.41703e-06 0)
(-0.603777 -1.39646e-06 0)
(-0.60218 -1.37628e-06 0)
(-0.600605 -1.35647e-06 0)
(-0.599054 -1.33705e-06 0)
(-0.597525 -1.31798e-06 0)
(-0.596017 -1.29928e-06 0)
(-0.594532 -1.28092e-06 0)
(-0.593067 -1.2629e-06 0)
(-0.591623 -1.24522e-06 0)
(-0.5902 -1.22787e-06 0)
(-0.588796 -1.21084e-06 0)
(-0.587412 -1.19413e-06 0)
(-0.586048 -1.17773e-06 0)
(-0.584702 -1.16163e-06 0)
(-0.583375 -1.14584e-06 0)
(-0.582065 -1.13035e-06 0)
(-0.580774 -1.11516e-06 0)
(-0.5795 -1.10026e-06 0)
(-0.578243 -1.08565e-06 0)
(-0.577004 -1.07134e-06 0)
(-0.57578 -1.05732e-06 0)
(-0.574573 -1.04359e-06 0)
(-0.573381 -1.03017e-06 0)
(-0.572205 -1.01706e-06 0)
(-0.571044 -1.00428e-06 0)
(-0.569897 -9.91845e-07 0)
(-0.568765 -9.7978e-07 0)
(-0.567647 -9.68134e-07 0)
(-0.566541 -9.56957e-07 0)
(-0.565449 -9.46335e-07 0)
(-0.564369 -9.36569e-07 0)
(-0.563299 -9.27294e-07 0)
(-0.562241 -9.19262e-07 0)
(-0.561189 -9.17834e-07 0)
(-0.560136 -9.06785e-07 0)
(-0.559113 -8.69025e-07 0)
(-0.558137 -1.17862e-06 0)
(-0.556377 -4.22674e-07 0)
(-0.557501 -3.2011e-07 0)
(-0.554512 -2.11025e-06 0)
)
;
    }
    symmetry
    {
        type            symmetryPlane;
    }
    frontAndBack
    {
        type            empty;
    }
}


// ************************************************************************* //
