/*--------------------------------*- C++ -*----------------------------------*\
| =========                 |                                                 |
| \\      /  F ield         | OpenFOAM: The Open Source CFD Toolbox           |
|  \\    /   O peration     | Version:  v2012                                 |
|   \\  /    A nd           | Website:  www.openfoam.com                      |
|    \\/     M anipulation  |                                                 |
\*---------------------------------------------------------------------------*/
FoamFile
{
    version     2.0;
    format      ascii;
    class       volScalarField;
    location    "19";
    object      epsilon;
}
// * * * * * * * * * * * * * * * * * * * * * * * * * * * * * * * * * * * * * //

dimensions      [0 2 -3 0 0 0 0];


internalField   nonuniform List<scalar> 
209825
(
0.757466
0.678538
0.641272
0.621041
0.608593
0.6003
0.594414
0.590092
0.586776
0.584206
0.582127
0.580459
0.579056
0.577898
0.576904
0.576076
0.575342
0.574724
0.574162
0.57369
0.573249
0.572877
0.572529
0.572241
0.571958
0.571725
0.5715
0.57132
0.571129
0.570977
0.570836
0.570726
0.570602
0.570509
0.570419
0.570352
0.570257
0.5702
0.570142
0.570105
0.57007
0.57004
0.569979
0.569964
0.569954
0.569938
0.569895
0.569917
0.569916
0.569934
0.569932
0.570045
0.570046
0.570045
0.570113
0.570113
0.57022
0.570363
0.570494
0.570624
0.570625
0.570625
0.570718
0.570896
0.571106
0.571172
0.57125
0.571448
0.571663
0.571803
0.572045
0.572245
0.572432
0.572657
0.572885
0.573141
0.573443
0.573759
0.57406
0.574476
0.574794
0.57528
0.575664
0.576262
0.576724
0.577499
0.578051
0.579113
0.579771
0.581242
0.582103
0.584854
0.585449
0.595661
2.77342
522.818
0.757465
0.678528
0.641254
0.621018
0.608566
0.600269
0.594381
0.590058
0.58674
0.584169
0.582089
0.580421
0.579017
0.577859
0.576865
0.576036
0.575301
0.574684
0.574122
0.57365
0.573208
0.572836
0.572488
0.5722
0.571917
0.571683
0.571458
0.571278
0.571087
0.570935
0.570794
0.570683
0.57056
0.570467
0.570376
0.57031
0.570215
0.570158
0.570099
0.570063
0.570027
0.569997
0.569936
0.569921
0.569912
0.569896
0.569852
0.569874
0.569874
0.569891
0.569889
0.570003
0.570003
0.570003
0.57007
0.57007
0.570177
0.57032
0.570452
0.570581
0.570582
0.570582
0.570675
0.570853
0.571064
0.571129
0.571208
0.571406
0.57162
0.571761
0.572002
0.572202
0.57239
0.572615
0.572843
0.573099
0.573401
0.573717
0.574018
0.574434
0.574752
0.575238
0.575622
0.57622
0.576682
0.577457
0.578009
0.579071
0.579729
0.5812
0.582062
0.584813
0.585407
0.595636
2.77761
519.47
0.757458
0.678478
0.641169
0.62091
0.608443
0.600135
0.594239
0.58991
0.586588
0.584013
0.581931
0.58026
0.578854
0.577694
0.576699
0.575869
0.575133
0.574515
0.573952
0.573479
0.573036
0.572664
0.572315
0.572026
0.571743
0.571509
0.571284
0.571103
0.570912
0.57076
0.570618
0.570508
0.570384
0.570291
0.5702
0.570133
0.570038
0.569981
0.569923
0.569886
0.56985
0.56982
0.569759
0.569744
0.569734
0.569718
0.569675
0.569696
0.569696
0.569713
0.569712
0.569825
0.569825
0.569825
0.569892
0.569892
0.57
0.570142
0.570274
0.570403
0.570405
0.570404
0.570498
0.570675
0.570886
0.570952
0.571031
0.571228
0.571443
0.571584
0.571825
0.572025
0.572213
0.572438
0.572666
0.572922
0.573224
0.57354
0.573841
0.574257
0.574576
0.575062
0.575446
0.576044
0.576506
0.577281
0.577833
0.578895
0.579552
0.581023
0.581884
0.584636
0.585226
0.595488
2.78645
515.536
0.757446
0.678391
0.641025
0.620728
0.608235
0.59991
0.594
0.589662
0.586332
0.583751
0.581663
0.579988
0.578579
0.577416
0.576418
0.575587
0.574849
0.574229
0.573664
0.57319
0.572747
0.572373
0.572024
0.571734
0.57145
0.571216
0.570989
0.570809
0.570617
0.570464
0.570322
0.570211
0.570088
0.569994
0.569903
0.569836
0.569741
0.569683
0.569624
0.569587
0.569552
0.569522
0.56946
0.569445
0.569435
0.569419
0.569375
0.569397
0.569397
0.569414
0.569412
0.569525
0.569525
0.569525
0.569593
0.569593
0.5697
0.569842
0.569974
0.570103
0.570105
0.570105
0.570198
0.570376
0.570586
0.570653
0.570732
0.570929
0.571144
0.571285
0.571526
0.571726
0.571914
0.572139
0.572367
0.572623
0.572925
0.573242
0.573543
0.573959
0.574277
0.574764
0.575148
0.575746
0.576208
0.576983
0.577534
0.578596
0.579254
0.580724
0.581584
0.584335
0.584921
0.595231
2.80029
511.79
0.757429
0.678267
0.640821
0.62047
0.607941
0.59959
0.593663
0.58931
0.585969
0.583379
0.581285
0.579604
0.57819
0.577023
0.576022
0.575187
0.574447
0.573825
0.573258
0.572782
0.572338
0.571962
0.571612
0.571321
0.571036
0.570801
0.570574
0.570392
0.5702
0.570046
0.569904
0.569792
0.569668
0.569574
0.569482
0.569415
0.56932
0.569262
0.569203
0.569165
0.56913
0.569099
0.569038
0.569022
0.569013
0.568996
0.568952
0.568974
0.568974
0.56899
0.568988
0.569102
0.569102
0.569102
0.569169
0.569169
0.569276
0.569419
0.56955
0.56968
0.569682
0.569681
0.569774
0.569952
0.570163
0.57023
0.570309
0.570506
0.570721
0.570862
0.571103
0.571304
0.571492
0.571717
0.571945
0.572201
0.572503
0.57282
0.573121
0.573537
0.573856
0.574343
0.574726
0.575325
0.575786
0.576561
0.577113
0.578175
0.578831
0.580301
0.58116
0.58391
0.584489
0.594866
2.81953
508.572
0.757407
0.678108
0.640556
0.620136
0.60756
0.599176
0.593225
0.588854
0.585499
0.582898
0.580794
0.579106
0.577686
0.576514
0.575508
0.57467
0.573926
0.573301
0.572732
0.572254
0.571807
0.57143
0.571078
0.570786
0.570499
0.570263
0.570035
0.569852
0.569659
0.569505
0.569361
0.569249
0.569124
0.56903
0.568937
0.56887
0.568774
0.568716
0.568656
0.568618
0.568582
0.568552
0.56849
0.568475
0.568465
0.568448
0.568404
0.568425
0.568425
0.568441
0.568439
0.568552
0.568552
0.568552
0.568619
0.568619
0.568726
0.568869
0.569
0.56913
0.569132
0.569132
0.569225
0.569403
0.569614
0.569681
0.56976
0.569957
0.570172
0.570314
0.570554
0.570756
0.570944
0.571169
0.571398
0.571654
0.571956
0.572273
0.572574
0.57299
0.573309
0.573796
0.574179
0.574778
0.575239
0.576015
0.576565
0.577627
0.578284
0.579751
0.58061
0.583358
0.583928
0.594392
2.84456
506.043
0.75738
0.677912
0.64023
0.619724
0.607091
0.598667
0.592685
0.588292
0.58492
0.582305
0.58019
0.578493
0.577065
0.575887
0.574875
0.574032
0.573284
0.572656
0.572083
0.571602
0.571153
0.570774
0.57042
0.570126
0.569838
0.5696
0.56937
0.569187
0.568993
0.568837
0.568693
0.56858
0.568454
0.568359
0.568266
0.568197
0.568101
0.568043
0.567982
0.567944
0.567908
0.567877
0.567815
0.567799
0.567789
0.567772
0.567727
0.567748
0.567748
0.567765
0.567762
0.567875
0.567875
0.567875
0.567942
0.567942
0.568049
0.568192
0.568322
0.568453
0.568455
0.568455
0.568548
0.568725
0.568936
0.569005
0.569085
0.569281
0.569496
0.569638
0.569878
0.57008
0.570268
0.570494
0.570723
0.570979
0.57128
0.571598
0.571899
0.572316
0.572635
0.573122
0.573505
0.574105
0.574565
0.575341
0.575891
0.576952
0.577608
0.579074
0.579931
0.582678
0.583238
0.593807
2.87577
504.254
0.757349
0.677679
0.639843
0.619235
0.606533
0.59806
0.592043
0.587623
0.58423
0.581598
0.57947
0.577762
0.576325
0.575139
0.574121
0.573272
0.572519
0.571887
0.571311
0.570826
0.570374
0.569992
0.569636
0.56934
0.56905
0.56881
0.568579
0.568394
0.568198
0.568041
0.567896
0.567782
0.567655
0.567559
0.567465
0.567396
0.5673
0.56724
0.56718
0.567141
0.567104
0.567073
0.567011
0.566994
0.566984
0.566967
0.566922
0.566942
0.566942
0.566958
0.566955
0.567067
0.567068
0.567068
0.567135
0.567135
0.567241
0.567384
0.567514
0.567646
0.567649
0.567649
0.567742
0.567918
0.568129
0.5682
0.568279
0.568475
0.56869
0.568832
0.569072
0.569275
0.569463
0.56969
0.569918
0.570175
0.570476
0.570794
0.571095
0.571512
0.571831
0.572319
0.572702
0.573302
0.573761
0.574538
0.575086
0.576147
0.576803
0.578267
0.579121
0.581867
0.582414
0.593111
2.91355
503.189
0.757313
0.67741
0.639394
0.618667
0.605885
0.597355
0.591297
0.586845
0.583428
0.580777
0.578633
0.576912
0.575464
0.574269
0.573244
0.572388
0.57163
0.570992
0.570412
0.569924
0.569468
0.569083
0.568724
0.568425
0.568133
0.567891
0.567658
0.567471
0.567274
0.567116
0.566969
0.566854
0.566726
0.566629
0.566534
0.566465
0.566367
0.566307
0.566246
0.566207
0.566169
0.566138
0.566075
0.566058
0.566047
0.56603
0.565984
0.566005
0.566005
0.56602
0.566017
0.566129
0.566129
0.566129
0.566196
0.566196
0.566302
0.566445
0.566575
0.566707
0.56671
0.56671
0.566803
0.566979
0.567191
0.567262
0.567342
0.567537
0.567752
0.567895
0.568135
0.568338
0.568527
0.568753
0.568982
0.569239
0.56954
0.569859
0.570159
0.570577
0.570896
0.571384
0.571767
0.572367
0.572826
0.573603
0.57415
0.575211
0.575865
0.577327
0.57818
0.580923
0.581456
0.592301
2.95828
502.778
0.757272
0.677105
0.638884
0.61802
0.605145
0.596551
0.590445
0.585957
0.582512
0.579839
0.577677
0.575942
0.574482
0.573277
0.572242
0.571379
0.570614
0.569971
0.569385
0.568893
0.568433
0.568045
0.567682
0.567381
0.567086
0.566842
0.566606
0.566418
0.566219
0.566059
0.565911
0.565794
0.565665
0.565567
0.565471
0.5654
0.565302
0.565241
0.565179
0.565139
0.565101
0.565069
0.565006
0.564989
0.564977
0.56496
0.564914
0.564933
0.564933
0.564948
0.564945
0.565056
0.565056
0.565056
0.565123
0.565123
0.565229
0.565372
0.565501
0.565634
0.565638
0.565638
0.565731
0.565907
0.566118
0.566192
0.566271
0.566465
0.566681
0.566825
0.567064
0.567268
0.567457
0.567684
0.567913
0.56817
0.56847
0.56879
0.56909
0.569508
0.569827
0.570316
0.570699
0.571299
0.571758
0.572535
0.573081
0.574141
0.574795
0.576254
0.577104
0.579844
0.580361
0.591378
3.01031
502.917
0.757228
0.676763
0.638311
0.617293
0.604314
0.595647
0.589487
0.584959
0.581482
0.578784
0.576601
0.574849
0.573376
0.572159
0.571114
0.570243
0.56947
0.56882
0.568229
0.567732
0.567267
0.566875
0.566509
0.566204
0.565907
0.56566
0.565422
0.565231
0.56503
0.564869
0.564719
0.564601
0.56447
0.564371
0.564273
0.564202
0.564102
0.564041
0.563978
0.563937
0.563898
0.563866
0.563803
0.563785
0.563773
0.563755
0.563708
0.563727
0.563727
0.563741
0.563737
0.563848
0.563848
0.563848
0.563915
0.563915
0.564021
0.564163
0.564292
0.564426
0.564431
0.564431
0.564524
0.564698
0.56491
0.564985
0.565065
0.565258
0.565475
0.565619
0.565858
0.566062
0.566252
0.566479
0.566708
0.566966
0.567265
0.567586
0.567886
0.568305
0.568624
0.569113
0.569495
0.570096
0.570554
0.571331
0.571876
0.572936
0.573588
0.575044
0.575891
0.578629
0.579127
0.59034
3.06997
503.477
0.75718
0.676386
0.637676
0.616486
0.603391
0.594641
0.588421
0.583848
0.580335
0.577609
0.575404
0.573633
0.572144
0.570914
0.569859
0.568978
0.568197
0.56754
0.566942
0.566439
0.56597
0.565573
0.565203
0.564895
0.564593
0.564344
0.564103
0.56391
0.563707
0.563543
0.563391
0.563271
0.563139
0.563038
0.56294
0.562867
0.562767
0.562704
0.56264
0.562598
0.562558
0.562526
0.562462
0.562443
0.562431
0.562413
0.562365
0.562383
0.562383
0.562397
0.562392
0.562502
0.562502
0.562502
0.562569
0.562569
0.562675
0.562818
0.562946
0.56308
0.563086
0.563086
0.563179
0.563353
0.563564
0.563642
0.563722
0.563914
0.564131
0.564276
0.564514
0.56472
0.56491
0.565137
0.565366
0.565624
0.565923
0.566245
0.566544
0.566964
0.567283
0.567772
0.568154
0.568756
0.569213
0.56999
0.570534
0.571593
0.572244
0.573696
0.57454
0.577275
0.577753
0.589185
3.13753
504.317
0.757128
0.675972
0.636978
0.615598
0.602375
0.593534
0.587247
0.582623
0.579071
0.576314
0.574084
0.572293
0.570786
0.569542
0.568474
0.567582
0.566792
0.566127
0.565522
0.565013
0.564538
0.564137
0.563762
0.56345
0.563145
0.562892
0.562648
0.562452
0.562247
0.562081
0.561926
0.561805
0.561671
0.561569
0.561468
0.561394
0.561293
0.561229
0.561164
0.561121
0.56108
0.561047
0.560983
0.560964
0.56095
0.560932
0.560883
0.560901
0.560901
0.560914
0.560909
0.561018
0.561018
0.561018
0.561084
0.561084
0.56119
0.561332
0.56146
0.561595
0.561602
0.561602
0.561695
0.561868
0.56208
0.562159
0.56224
0.562431
0.562648
0.562793
0.563031
0.563238
0.563428
0.563656
0.563885
0.564143
0.564442
0.564765
0.565064
0.565484
0.565803
0.566293
0.566675
0.567277
0.567733
0.568511
0.569052
0.57011
0.57076
0.572209
0.573049
0.575781
0.576237
0.587912
3.21325
505.286
0.757073
0.675523
0.636218
0.61463
0.601265
0.592324
0.585964
0.581284
0.577689
0.574898
0.57264
0.570826
0.569301
0.56804
0.566959
0.566055
0.565255
0.564581
0.563969
0.563453
0.562972
0.562565
0.562185
0.561868
0.561559
0.561303
0.561056
0.560857
0.560649
0.56048
0.560323
0.5602
0.560064
0.55996
0.559858
0.559782
0.559679
0.559614
0.559548
0.559504
0.559462
0.559429
0.559364
0.559344
0.559329
0.559311
0.559261
0.559278
0.559278
0.55929
0.559284
0.559393
0.559393
0.559393
0.559459
0.559459
0.559564
0.559707
0.559833
0.55997
0.559977
0.559977
0.56007
0.560242
0.560454
0.560536
0.560617
0.560807
0.561024
0.56117
0.561407
0.561615
0.561806
0.562034
0.562264
0.562522
0.56282
0.563144
0.563442
0.563863
0.564182
0.564673
0.565054
0.565657
0.566112
0.56689
0.56743
0.568486
0.569135
0.57058
0.571416
0.574144
0.574576
0.586519
3.29726
506.236
0.757015
0.675039
0.635397
0.61358
0.600061
0.591011
0.584571
0.57983
0.576188
0.573359
0.571071
0.569232
0.567686
0.566408
0.565312
0.564396
0.563584
0.562901
0.56228
0.561756
0.561268
0.560855
0.56047
0.560149
0.559836
0.559575
0.559324
0.559122
0.558911
0.55874
0.55858
0.558454
0.558316
0.55821
0.558106
0.558029
0.557925
0.557858
0.557791
0.557746
0.557703
0.557669
0.557603
0.557582
0.557567
0.557548
0.557497
0.557514
0.557513
0.557525
0.557518
0.557625
0.557625
0.557625
0.557691
0.557691
0.557796
0.557938
0.558064
0.558201
0.55821
0.55821
0.558303
0.558474
0.558686
0.55877
0.558852
0.559041
0.559258
0.559405
0.559641
0.55985
0.560042
0.56027
0.5605
0.560759
0.561056
0.561381
0.561679
0.5621
0.562419
0.562911
0.563291
0.563895
0.564348
0.565127
0.565664
0.56672
0.567366
0.568807
0.569639
0.572363
0.572769
0.585005
3.38964
507.024
0.756954
0.674521
0.634513
0.61245
0.598762
0.589594
0.583066
0.578259
0.574566
0.571697
0.569375
0.567509
0.565941
0.564644
0.563531
0.562601
0.561778
0.561084
0.560454
0.559922
0.559427
0.559008
0.558616
0.55829
0.557972
0.557707
0.557452
0.557246
0.557032
0.556858
0.556695
0.556567
0.556427
0.556318
0.556212
0.556134
0.556028
0.55596
0.555891
0.555845
0.5558
0.555765
0.555699
0.555677
0.555661
0.555642
0.55559
0.555605
0.555605
0.555616
0.555608
0.555714
0.555714
0.555714
0.555779
0.555779
0.555884
0.556026
0.556151
0.556289
0.556299
0.556299
0.556392
0.556562
0.556774
0.556861
0.556943
0.557131
0.557348
0.557496
0.557731
0.557941
0.558133
0.558362
0.558592
0.558852
0.559148
0.559474
0.559771
0.560193
0.560512
0.561005
0.561384
0.561989
0.56244
0.563219
0.563755
0.564809
0.565454
0.56689
0.567717
0.570437
0.570815
0.583368
3.49037
507.516
0.756891
0.673969
0.633568
0.611239
0.59737
0.588073
0.581451
0.576572
0.572823
0.56991
0.567553
0.565658
0.564065
0.562748
0.561617
0.560672
0.559835
0.55913
0.55849
0.557949
0.557446
0.55702
0.556622
0.55629
0.555967
0.555698
0.555438
0.555229
0.555011
0.554833
0.554668
0.554536
0.554394
0.554283
0.554175
0.554094
0.553987
0.553918
0.553847
0.553799
0.553753
0.553718
0.55365
0.553627
0.55361
0.55359
0.553538
0.553552
0.553552
0.553561
0.553552
0.553658
0.553658
0.553658
0.553723
0.553723
0.553826
0.553969
0.554092
0.554232
0.554242
0.554242
0.554335
0.554504
0.554716
0.554806
0.554889
0.555075
0.555292
0.555442
0.555676
0.555887
0.55608
0.556309
0.556539
0.556799
0.557094
0.557422
0.557718
0.558141
0.55846
0.558953
0.559332
0.559937
0.560387
0.561166
0.561699
0.562752
0.563394
0.564825
0.565647
0.568363
0.568712
0.581605
3.59927
507.592
0.756826
0.673384
0.632562
0.609947
0.595882
0.586447
0.579723
0.574768
0.570959
0.567998
0.565602
0.563675
0.562056
0.560717
0.559568
0.558606
0.557756
0.557038
0.556387
0.555837
0.555325
0.554892
0.554487
0.554149
0.55382
0.553546
0.553282
0.553068
0.552846
0.552665
0.552496
0.552362
0.552217
0.552104
0.551993
0.55191
0.551801
0.55173
0.551657
0.551608
0.551561
0.551524
0.551456
0.551432
0.551414
0.551393
0.55134
0.551353
0.551353
0.551361
0.551351
0.551455
0.551455
0.551455
0.551519
0.551519
0.551622
0.551765
0.551887
0.552028
0.552039
0.552039
0.552132
0.5523
0.552512
0.552605
0.552688
0.552873
0.55309
0.553241
0.553474
0.553686
0.553879
0.554109
0.554339
0.5546
0.554894
0.555223
0.555518
0.555942
0.55626
0.556754
0.557132
0.557738
0.558186
0.558966
0.559496
0.560547
0.561187
0.562613
0.56343
0.56614
0.566458
0.579714
3.71606
507.149
0.75676
0.672766
0.631495
0.608574
0.594301
0.584717
0.577884
0.572845
0.568972
0.56596
0.563523
0.561562
0.559915
0.558552
0.557382
0.556403
0.555537
0.554807
0.554144
0.553584
0.553063
0.552621
0.552209
0.551864
0.551529
0.55125
0.550981
0.550762
0.550537
0.550352
0.550179
0.550042
0.549894
0.549778
0.549664
0.54958
0.549469
0.549396
0.549321
0.549271
0.549221
0.549184
0.549115
0.549089
0.54907
0.549049
0.548995
0.549007
0.549007
0.549013
0.549002
0.549104
0.549104
0.549104
0.549168
0.549168
0.549271
0.549413
0.549534
0.549675
0.549688
0.549688
0.549782
0.549948
0.55016
0.550255
0.550339
0.550523
0.55074
0.550891
0.551124
0.551337
0.551531
0.551761
0.551991
0.552253
0.552545
0.552876
0.55317
0.553595
0.553913
0.554407
0.554784
0.555391
0.555837
0.556616
0.557144
0.558193
0.558831
0.560251
0.561062
0.563767
0.564053
0.577693
3.84023
506.094
0.756692
0.672117
0.630369
0.607122
0.592624
0.582882
0.575932
0.570805
0.566862
0.563795
0.561314
0.559317
0.557639
0.556251
0.55506
0.554062
0.55318
0.552435
0.55176
0.551189
0.550658
0.550208
0.549788
0.549436
0.549095
0.548809
0.548535
0.548312
0.548082
0.547893
0.547716
0.547576
0.547424
0.547306
0.547189
0.547103
0.54699
0.546914
0.546837
0.546785
0.546734
0.546696
0.546626
0.546599
0.546578
0.546557
0.546502
0.546512
0.546512
0.546517
0.546504
0.546605
0.546605
0.546605
0.546668
0.546668
0.54677
0.546912
0.547031
0.547174
0.547189
0.547189
0.547282
0.547447
0.547658
0.547757
0.547842
0.548023
0.54824
0.548393
0.548624
0.548839
0.549033
0.549264
0.549494
0.549756
0.550047
0.550379
0.550673
0.551098
0.551416
0.551911
0.552287
0.552894
0.553338
0.554117
0.554642
0.555688
0.556324
0.557738
0.558543
0.561242
0.561494
0.575539
3.97112
504.351
0.756624
0.671437
0.629185
0.60559
0.590854
0.580942
0.573867
0.568646
0.56463
0.561504
0.558976
0.55694
0.55523
0.553815
0.5526
0.551582
0.550683
0.549923
0.549234
0.548651
0.548111
0.547651
0.547222
0.546863
0.546515
0.546223
0.545943
0.545715
0.54548
0.545287
0.545106
0.544962
0.544807
0.544686
0.544566
0.544477
0.544362
0.544284
0.544205
0.544151
0.544098
0.544059
0.543988
0.543959
0.543937
0.543915
0.543859
0.543868
0.543868
0.543872
0.543857
0.543956
0.543956
0.543956
0.544019
0.544019
0.54412
0.544261
0.544379
0.544523
0.544539
0.544539
0.544632
0.544796
0.545006
0.545108
0.545194
0.545374
0.545591
0.545745
0.545974
0.546191
0.546385
0.546617
0.546847
0.547109
0.547399
0.547732
0.548024
0.54845
0.548768
0.549264
0.549638
0.550246
0.550688
0.551467
0.551989
0.553032
0.553666
0.555073
0.555871
0.558563
0.558781
0.573249
4.10784
501.865
0.756555
0.670727
0.627942
0.60398
0.588991
0.578899
0.571691
0.566369
0.562274
0.559086
0.556507
0.55443
0.552686
0.551241
0.550002
0.548963
0.548045
0.547269
0.546566
0.545971
0.545419
0.544949
0.544512
0.544144
0.543789
0.543491
0.543205
0.542971
0.542731
0.542534
0.542348
0.5422
0.542042
0.541917
0.541794
0.541703
0.541585
0.541505
0.541424
0.541368
0.541313
0.541272
0.5412
0.54117
0.541146
0.541124
0.541067
0.541074
0.541074
0.541076
0.541059
0.541157
0.541157
0.541157
0.541218
0.541218
0.541318
0.54146
0.541576
0.54172
0.541738
0.541738
0.541831
0.541993
0.542203
0.542309
0.542395
0.542574
0.54279
0.542945
0.543174
0.543391
0.543586
0.543818
0.544048
0.544311
0.544599
0.544934
0.545225
0.545651
0.545968
0.546465
0.546838
0.547446
0.547886
0.548665
0.549183
0.550224
0.550854
0.552255
0.553045
0.55573
0.555913
0.57082
4.24924
498.593
0.756487
0.669989
0.626643
0.602291
0.587034
0.576751
0.569402
0.563973
0.559795
0.556541
0.553909
0.551787
0.550006
0.548531
0.547265
0.546204
0.545267
0.544474
0.543756
0.543147
0.542583
0.542103
0.541656
0.54128
0.540917
0.540612
0.540319
0.54008
0.539835
0.539632
0.539442
0.53929
0.539128
0.538999
0.538873
0.538779
0.538658
0.538576
0.538492
0.538434
0.538377
0.538335
0.538261
0.53823
0.538205
0.538181
0.538123
0.538129
0.538129
0.538129
0.53811
0.538206
0.538206
0.538206
0.538266
0.538266
0.538366
0.538507
0.538621
0.538766
0.538786
0.538786
0.538879
0.539039
0.539249
0.539357
0.539445
0.539621
0.539837
0.539994
0.540221
0.540439
0.540635
0.540867
0.541097
0.54136
0.541647
0.541983
0.542273
0.5427
0.543016
0.543513
0.543885
0.544493
0.544931
0.545709
0.546225
0.547261
0.547889
0.549282
0.550065
0.552742
0.552889
0.568248
4.39393
494.502
0.756419
0.669224
0.625288
0.600526
0.584985
0.5745
0.567001
0.561459
0.557192
0.553869
0.551179
0.549012
0.547192
0.545684
0.54439
0.543305
0.542347
0.541536
0.540802
0.540179
0.539603
0.539112
0.538654
0.538269
0.537898
0.537586
0.537286
0.53704
0.536789
0.536582
0.536386
0.53623
0.536064
0.535932
0.535802
0.535705
0.535582
0.535497
0.53541
0.53535
0.53529
0.535247
0.535172
0.535139
0.535112
0.535088
0.535029
0.535033
0.535032
0.535031
0.53501
0.535103
0.535103
0.535103
0.535162
0.535162
0.535261
0.535401
0.535514
0.53566
0.535681
0.535681
0.535774
0.535933
0.536141
0.536253
0.536342
0.536517
0.536732
0.53689
0.537115
0.537335
0.537531
0.537764
0.537993
0.538257
0.538542
0.538879
0.539168
0.539595
0.539911
0.540408
0.540778
0.541387
0.541822
0.542599
0.543111
0.544144
0.544769
0.546154
0.546929
0.549597
0.549708
0.565529
4.54024
489.575
0.756353
0.668433
0.623879
0.598685
0.582845
0.572146
0.564489
0.558827
0.554467
0.551069
0.54832
0.546103
0.544242
0.5427
0.541376
0.540266
0.539286
0.538456
0.537705
0.537067
0.536478
0.535975
0.535506
0.535112
0.534732
0.534412
0.534104
0.533852
0.533596
0.533383
0.533182
0.533021
0.53285
0.532715
0.532581
0.53248
0.532355
0.532267
0.532177
0.532115
0.532052
0.532008
0.531931
0.531896
0.531867
0.531842
0.531783
0.531785
0.531784
0.531781
0.531757
0.531848
0.531848
0.531848
0.531906
0.531906
0.532004
0.532144
0.532254
0.532401
0.532423
0.532423
0.532516
0.532674
0.532881
0.532996
0.533086
0.533259
0.533473
0.533632
0.533856
0.534077
0.534273
0.534507
0.534736
0.535
0.535283
0.535622
0.535909
0.536336
0.536651
0.537149
0.537517
0.538126
0.538558
0.539335
0.539843
0.540872
0.541493
0.54287
0.543637
0.546294
0.546369
0.562658
4.68622
483.8
0.756288
0.667617
0.622417
0.59677
0.580615
0.56969
0.561867
0.556078
0.55162
0.548143
0.545331
0.543061
0.541157
0.539579
0.538224
0.537087
0.536083
0.535233
0.534464
0.533811
0.533207
0.532692
0.532212
0.531808
0.531418
0.53109
0.530775
0.530516
0.530253
0.530034
0.529828
0.529662
0.529487
0.529347
0.529209
0.529105
0.528976
0.528886
0.528793
0.528728
0.528663
0.528617
0.528539
0.528502
0.528471
0.528445
0.528385
0.528385
0.528383
0.528378
0.528352
0.52844
0.52844
0.52844
0.528497
0.528497
0.528594
0.528733
0.528841
0.528988
0.529012
0.529013
0.529105
0.529261
0.529467
0.529585
0.529676
0.529848
0.530061
0.530221
0.530443
0.530665
0.530862
0.531096
0.531324
0.53159
0.53187
0.53221
0.532495
0.532923
0.533237
0.533735
0.534102
0.534711
0.53514
0.535915
0.53642
0.537443
0.538061
0.53943
0.540188
0.542833
0.542872
0.559633
4.8296
477.173
0.756225
0.666778
0.620905
0.594782
0.578295
0.567133
0.559135
0.553212
0.54865
0.545091
0.542211
0.539887
0.537938
0.536321
0.534932
0.533768
0.532739
0.531868
0.53108
0.530411
0.529792
0.529264
0.528772
0.528357
0.527958
0.527621
0.527297
0.527031
0.526762
0.526537
0.526324
0.526153
0.525973
0.525829
0.525687
0.525579
0.525447
0.525353
0.525258
0.52519
0.525122
0.525074
0.524994
0.524955
0.524922
0.524896
0.524835
0.524833
0.52483
0.524823
0.524795
0.52488
0.52488
0.52488
0.524935
0.524935
0.52503
0.525169
0.525274
0.525422
0.525448
0.525448
0.525541
0.525695
0.5259
0.526021
0.526113
0.526283
0.526495
0.526657
0.526877
0.5271
0.527297
0.527531
0.527759
0.528025
0.528303
0.528644
0.528927
0.529356
0.529668
0.530167
0.530531
0.53114
0.531566
0.53234
0.532841
0.533859
0.534473
0.535832
0.536582
0.539214
0.539217
0.556447
4.96788
469.692
0.756165
0.665917
0.619343
0.592722
0.575888
0.564477
0.556294
0.550231
0.545559
0.541913
0.538963
0.536582
0.534583
0.532926
0.531503
0.530309
0.529254
0.528361
0.527553
0.526866
0.526232
0.52569
0.525186
0.524759
0.52435
0.524004
0.523672
0.523398
0.523121
0.52289
0.522671
0.522495
0.52231
0.522161
0.522015
0.521903
0.521768
0.52167
0.521572
0.521501
0.52143
0.52138
0.521298
0.521257
0.521222
0.521194
0.521133
0.521129
0.521124
0.521116
0.521084
0.521167
0.521167
0.521167
0.52122
0.52122
0.521314
0.521452
0.521555
0.521703
0.521731
0.521731
0.521823
0.521975
0.522178
0.522303
0.522397
0.522564
0.522776
0.522938
0.523156
0.52338
0.523577
0.523812
0.524039
0.524305
0.524581
0.524923
0.525205
0.525633
0.525944
0.526443
0.526805
0.527413
0.527836
0.528608
0.529105
0.530118
0.530728
0.532078
0.532818
0.535434
0.535404
0.553095
5.09826
461.36
0.756108
0.665037
0.617733
0.590593
0.573395
0.561723
0.553346
0.547136
0.542349
0.538611
0.535587
0.533145
0.531096
0.529396
0.527937
0.526711
0.525629
0.524712
0.523884
0.523178
0.522528
0.521971
0.521454
0.521015
0.520595
0.52024
0.519898
0.519616
0.519333
0.519095
0.518869
0.518687
0.518497
0.518344
0.518192
0.518076
0.517937
0.517837
0.517734
0.51766
0.517586
0.517534
0.517451
0.517407
0.517369
0.517341
0.517279
0.517273
0.517267
0.517257
0.517222
0.517301
0.517301
0.517301
0.517352
0.517352
0.517445
0.517582
0.517682
0.51783
0.51786
0.51786
0.517952
0.518102
0.518304
0.518432
0.518526
0.518692
0.518902
0.519066
0.519282
0.519506
0.519703
0.519938
0.520165
0.520432
0.520705
0.521048
0.521327
0.521755
0.522065
0.522564
0.522923
0.523531
0.52395
0.52472
0.525213
0.52622
0.526825
0.528165
0.528896
0.531496
0.531431
0.549573
5.21773
452.176
0.756054
0.664138
0.616079
0.588397
0.570818
0.558872
0.550291
0.543927
0.539019
0.535185
0.532084
0.529577
0.527475
0.525731
0.524233
0.522975
0.521865
0.520923
0.520072
0.519348
0.51868
0.518108
0.517577
0.517126
0.516695
0.516329
0.515978
0.515688
0.515396
0.515151
0.514919
0.51473
0.514535
0.514376
0.51422
0.5141
0.513957
0.513852
0.513747
0.51367
0.513592
0.513537
0.513452
0.513406
0.513366
0.513336
0.513273
0.513265
0.513257
0.513246
0.513208
0.513284
0.513283
0.513283
0.513332
0.513332
0.513424
0.513559
0.513656
0.513805
0.513836
0.513837
0.513929
0.514076
0.514276
0.514407
0.514503
0.514666
0.514875
0.51504
0.515254
0.515479
0.515676
0.515911
0.516137
0.516404
0.516674
0.517018
0.517295
0.517723
0.518032
0.51853
0.518887
0.519494
0.519909
0.520677
0.521166
0.522165
0.522766
0.524096
0.524816
0.527399
0.527301
0.545875
5.32311
442.142
0.756005
0.663223
0.614381
0.586135
0.568158
0.555926
0.547133
0.540606
0.535571
0.531637
0.528454
0.525881
0.523723
0.521932
0.520394
0.519101
0.517961
0.516993
0.51612
0.515375
0.514689
0.514102
0.513555
0.513092
0.512648
0.512272
0.511911
0.511612
0.511312
0.51106
0.51082
0.510626
0.510424
0.51026
0.510098
0.509974
0.509827
0.509719
0.509609
0.509529
0.509448
0.50939
0.509303
0.509254
0.509211
0.509181
0.509117
0.509106
0.509096
0.509083
0.509042
0.509114
0.509114
0.509114
0.50916
0.50916
0.50925
0.509385
0.509478
0.509627
0.50966
0.50966
0.509752
0.509898
0.510095
0.510229
0.510326
0.510488
0.510695
0.510861
0.511072
0.511298
0.511495
0.51173
0.511955
0.512222
0.51249
0.512834
0.513109
0.513536
0.513843
0.514341
0.514695
0.515301
0.515712
0.516477
0.516962
0.517954
0.51855
0.519869
0.520579
0.523144
0.523012
0.541995
5.41108
431.256
0.75596
0.662293
0.612643
0.58381
0.565419
0.552887
0.543871
0.537175
0.532008
0.527968
0.5247
0.522056
0.51984
0.518
0.51642
0.515091
0.51392
0.512924
0.512027
0.511261
0.510557
0.509952
0.509391
0.508913
0.508458
0.50807
0.507699
0.50739
0.507082
0.506822
0.506575
0.506373
0.506166
0.505996
0.505829
0.5057
0.505549
0.505436
0.505322
0.505238
0.505154
0.505094
0.505004
0.504953
0.504907
0.504875
0.50481
0.504796
0.504785
0.504771
0.504726
0.504794
0.504794
0.504793
0.504837
0.504837
0.504926
0.505059
0.505149
0.505297
0.505333
0.505333
0.505424
0.505568
0.505763
0.505899
0.505997
0.506157
0.506362
0.506529
0.506738
0.506964
0.507161
0.507396
0.50762
0.507887
0.508152
0.508496
0.508769
0.509196
0.509501
0.509998
0.510349
0.510954
0.511361
0.512123
0.512602
0.513587
0.514178
0.515485
0.516184
0.51873
0.518566
0.537927
5.4783
419.518
0.75592
0.66135
0.610866
0.581424
0.562601
0.549757
0.540509
0.533635
0.52833
0.52418
0.520822
0.518105
0.515828
0.513936
0.512312
0.510946
0.509742
0.508718
0.507796
0.507008
0.506283
0.505661
0.505084
0.504592
0.504124
0.503725
0.503342
0.503024
0.502707
0.502439
0.502183
0.501975
0.501761
0.501586
0.501412
0.501278
0.501123
0.501006
0.500888
0.5008
0.500711
0.500649
0.500557
0.500503
0.500454
0.50042
0.500353
0.500338
0.500324
0.500308
0.50026
0.500324
0.500324
0.500323
0.500364
0.500364
0.500451
0.500582
0.500669
0.500816
0.500854
0.500854
0.500945
0.501086
0.501279
0.501417
0.501517
0.501675
0.501878
0.502046
0.502252
0.502479
0.502675
0.50291
0.503132
0.5034
0.503661
0.504006
0.504277
0.504702
0.505005
0.505501
0.505849
0.506452
0.506855
0.507613
0.508088
0.509064
0.50965
0.510945
0.511633
0.514158
0.513963
0.533665
5.52149
406.926
0.755885
0.660396
0.609053
0.578981
0.559709
0.546539
0.537048
0.529989
0.524539
0.520274
0.516823
0.51403
0.511689
0.509743
0.508073
0.506667
0.505429
0.504376
0.503427
0.502616
0.501871
0.501231
0.500636
0.50013
0.499647
0.499236
0.498843
0.498514
0.498187
0.497911
0.497647
0.497432
0.49721
0.497029
0.49685
0.49671
0.49655
0.496429
0.496306
0.496215
0.496122
0.496056
0.495962
0.495905
0.495852
0.495817
0.495749
0.495731
0.495715
0.495698
0.495646
0.495706
0.495706
0.495704
0.495742
0.495742
0.495827
0.495956
0.496039
0.496186
0.496226
0.496225
0.496316
0.496455
0.496645
0.496786
0.496887
0.497042
0.497243
0.497412
0.497616
0.497842
0.498038
0.498273
0.498493
0.498762
0.499019
0.499364
0.499632
0.500056
0.500356
0.500851
0.501196
0.501797
0.502195
0.50295
0.50342
0.504387
0.504967
0.506249
0.506927
0.509429
0.509205
0.529204
5.53757
393.48
0.755856
0.659434
0.607208
0.576482
0.556744
0.543235
0.533492
0.526239
0.520638
0.516253
0.512705
0.509831
0.507423
0.505422
0.503704
0.502257
0.500983
0.499898
0.498922
0.498087
0.49732
0.496661
0.496049