/*--------------------------------*- C++ -*----------------------------------*\
| =========                 |                                                 |
| \\      /  F ield         | OpenFOAM: The Open Source CFD Toolbox           |
|  \\    /   O peration     | Version:  v2012                                 |
|   \\  /    A nd           | Website:  www.openfoam.com                      |
|    \\/     M anipulation  |                                                 |
\*---------------------------------------------------------------------------*/
FoamFile
{
    version     2.0;
    format      ascii;
    class       volScalarField;
    location    "19";
    object      nut;
}
// * * * * * * * * * * * * * * * * * * * * * * * * * * * * * * * * * * * * * //

dimensions      [0 2 -1 0 0 0 0];


internalField   nonuniform List<scalar> 
209825
(
1.23662e-07
1.15447e-07
1.07713e-07
1.01908e-07
9.76102e-08
9.43573e-08
9.17955e-08
8.97489e-08
8.80552e-08
8.66569e-08
8.54591e-08
8.44486e-08
8.3563e-08
8.28022e-08
8.21219e-08
8.1536e-08
8.10017e-08
8.05397e-08
8.01104e-08
7.97382e-08
7.93878e-08
7.9083e-08
7.87913e-08
7.85415e-08
7.82988e-08
7.80904e-08
7.78844e-08
7.77114e-08
7.75397e-08
7.7389e-08
7.72433e-08
7.71213e-08
7.69987e-08
7.68957e-08
7.6788e-08
7.66944e-08
7.66031e-08
7.65267e-08
7.64455e-08
7.63804e-08
7.63093e-08
7.625e-08
7.61908e-08
7.61398e-08
7.60857e-08
7.6042e-08
7.60007e-08
7.59623e-08
7.59184e-08
7.58884e-08
7.58539e-08
7.58101e-08
7.57809e-08
7.5766e-08
7.57313e-08
7.57128e-08
7.56858e-08
7.56556e-08
7.56124e-08
7.55889e-08
7.55866e-08
7.5582e-08
7.55544e-08
7.55585e-08
7.55547e-08
7.5546e-08
7.55615e-08
7.55652e-08
7.55852e-08
7.56178e-08
7.56247e-08
7.56338e-08
7.56511e-08
7.56753e-08
7.56942e-08
7.57348e-08
7.5758e-08
7.58074e-08
7.58274e-08
7.58747e-08
7.58995e-08
7.5961e-08
7.59886e-08
7.60727e-08
7.61056e-08
7.61972e-08
7.62381e-08
7.63349e-08
7.63911e-08
7.6509e-08
7.65696e-08
7.67376e-08
7.67823e-08
7.74306e-08
3.11255e-06
1.75336e-08
1.23662e-07
1.15449e-07
1.07715e-07
1.0191e-07
9.76118e-08
9.43585e-08
9.17965e-08
8.97497e-08
8.80557e-08
8.66572e-08
8.54593e-08
8.44486e-08
8.35629e-08
8.2802e-08
8.21215e-08
8.15356e-08
8.10012e-08
8.05391e-08
8.01097e-08
7.97375e-08
7.93869e-08
7.90821e-08
7.87904e-08
7.85405e-08
7.82978e-08
7.80894e-08
7.78833e-08
7.77103e-08
7.75386e-08
7.73878e-08
7.72421e-08
7.712e-08
7.69974e-08
7.68943e-08
7.67867e-08
7.6693e-08
7.66017e-08
7.65253e-08
7.64441e-08
7.6379e-08
7.63078e-08
7.62485e-08
7.61893e-08
7.61383e-08
7.60842e-08
7.60405e-08
7.59991e-08
7.59608e-08
7.59169e-08
7.58868e-08
7.58524e-08
7.58085e-08
7.57794e-08
7.57644e-08
7.57297e-08
7.57112e-08
7.56842e-08
7.5654e-08
7.56108e-08
7.55873e-08
7.5585e-08
7.55803e-08
7.55528e-08
7.55568e-08
7.5553e-08
7.55443e-08
7.55599e-08
7.55635e-08
7.55835e-08
7.56161e-08
7.5623e-08
7.56321e-08
7.56494e-08
7.56736e-08
7.56925e-08
7.57331e-08
7.57563e-08
7.58057e-08
7.58257e-08
7.5873e-08
7.58978e-08
7.59593e-08
7.59869e-08
7.6071e-08
7.61038e-08
7.61955e-08
7.62363e-08
7.63331e-08
7.63893e-08
7.65072e-08
7.65678e-08
7.67359e-08
7.67805e-08
7.74297e-08
3.11288e-06
1.76833e-08
1.23664e-07
1.15455e-07
1.07723e-07
1.01917e-07
9.76177e-08
9.43633e-08
9.18001e-08
8.97524e-08
8.80576e-08
8.66583e-08
8.54598e-08
8.44485e-08
8.35622e-08
8.28009e-08
8.212e-08
8.15337e-08
8.0999e-08
8.05366e-08
8.01069e-08
7.97345e-08
7.93837e-08
7.90787e-08
7.87867e-08
7.85367e-08
7.82938e-08
7.80852e-08
7.7879e-08
7.77059e-08
7.7534e-08
7.73832e-08
7.72373e-08
7.71151e-08
7.69924e-08
7.68893e-08
7.67816e-08
7.66878e-08
7.65964e-08
7.65199e-08
7.64387e-08
7.63735e-08
7.63023e-08
7.62429e-08
7.61837e-08
7.61326e-08
7.60785e-08
7.60347e-08
7.59933e-08
7.5955e-08
7.5911e-08
7.58809e-08
7.58464e-08
7.58026e-08
7.57734e-08
7.57584e-08
7.57236e-08
7.57052e-08
7.56781e-08
7.56479e-08
7.56047e-08
7.55812e-08
7.55788e-08
7.55742e-08
7.55465e-08
7.55506e-08
7.55467e-08
7.5538e-08
7.55535e-08
7.55572e-08
7.55771e-08
7.56097e-08
7.56166e-08
7.56257e-08
7.5643e-08
7.56671e-08
7.56861e-08
7.57266e-08
7.57498e-08
7.57992e-08
7.58192e-08
7.58664e-08
7.58912e-08
7.59527e-08
7.59803e-08
7.60643e-08
7.60971e-08
7.61888e-08
7.62296e-08
7.63264e-08
7.63826e-08
7.65004e-08
7.6561e-08
7.6729e-08
7.67734e-08
7.74245e-08
3.11322e-06
1.78944e-08
1.23668e-07
1.15467e-07
1.07736e-07
1.01929e-07
9.76278e-08
9.43713e-08
9.18064e-08
8.9757e-08
8.80608e-08
8.66603e-08
8.54607e-08
8.44484e-08
8.35613e-08
8.27992e-08
8.21176e-08
8.15307e-08
8.09954e-08
8.05325e-08
8.01023e-08
7.97295e-08
7.93783e-08
7.9073e-08
7.87807e-08
7.85304e-08
7.82872e-08
7.80784e-08
7.7872e-08
7.76986e-08
7.75265e-08
7.73755e-08
7.72294e-08
7.71071e-08
7.69842e-08
7.68809e-08
7.67731e-08
7.66792e-08
7.65877e-08
7.65111e-08
7.64297e-08
7.63644e-08
7.62931e-08
7.62337e-08
7.61744e-08
7.61232e-08
7.6069e-08
7.60252e-08
7.59837e-08
7.59453e-08
7.59013e-08
7.58711e-08
7.58366e-08
7.57927e-08
7.57635e-08
7.57484e-08
7.57137e-08
7.56952e-08
7.56681e-08
7.56378e-08
7.55947e-08
7.5571e-08
7.55686e-08
7.5564e-08
7.55362e-08
7.55403e-08
7.55363e-08
7.55275e-08
7.5543e-08
7.55467e-08
7.55665e-08
7.55991e-08
7.5606e-08
7.56151e-08
7.56323e-08
7.56565e-08
7.56754e-08
7.57158e-08
7.5739e-08
7.57884e-08
7.58083e-08
7.58555e-08
7.58803e-08
7.59417e-08
7.59693e-08
7.60533e-08
7.60861e-08
7.61776e-08
7.62185e-08
7.63151e-08
7.63713e-08
7.64891e-08
7.65496e-08
7.67176e-08
7.67617e-08
7.74158e-08
3.11367e-06
1.81445e-08
1.23672e-07
1.15483e-07
1.07755e-07
1.01946e-07
9.7642e-08
9.43827e-08
9.18152e-08
8.97636e-08
8.80654e-08
8.66631e-08
8.5462e-08
8.44483e-08
8.356e-08
8.27968e-08
8.21143e-08
8.15265e-08
8.09905e-08
8.05269e-08
8.0096e-08
7.97226e-08
7.93709e-08
7.90651e-08
7.87723e-08
7.85216e-08
7.8278e-08
7.80688e-08
7.78621e-08
7.76884e-08
7.7516e-08
7.73648e-08
7.72184e-08
7.70958e-08
7.69727e-08
7.68693e-08
7.67612e-08
7.66671e-08
7.65754e-08
7.64987e-08
7.64172e-08
7.63517e-08
7.62803e-08
7.62208e-08
7.61613e-08
7.611e-08
7.60557e-08
7.60118e-08
7.59702e-08
7.59318e-08
7.58876e-08
7.58574e-08
7.58229e-08
7.5779e-08
7.57496e-08
7.57345e-08
7.56997e-08
7.56811e-08
7.5654e-08
7.56237e-08
7.55806e-08
7.55568e-08
7.55544e-08
7.55496e-08
7.55218e-08
7.55258e-08
7.55217e-08
7.55129e-08
7.55283e-08
7.5532e-08
7.55517e-08
7.55842e-08
7.55912e-08
7.56003e-08
7.56174e-08
7.56415e-08
7.56603e-08
7.57008e-08
7.57238e-08
7.57732e-08
7.57931e-08
7.58403e-08
7.5865e-08
7.59264e-08
7.59539e-08
7.60377e-08
7.60705e-08
7.6162e-08
7.62028e-08
7.62994e-08
7.63555e-08
7.64732e-08
7.65336e-08
7.67016e-08
7.67453e-08
7.74034e-08
3.11429e-06
1.84247e-08
1.23678e-07
1.15504e-07
1.07779e-07
1.01968e-07
9.76605e-08
9.43976e-08
9.18268e-08
8.97722e-08
8.80714e-08
8.66669e-08
8.54637e-08
8.44484e-08
8.35585e-08
8.27939e-08
8.21101e-08
8.15212e-08
8.09841e-08
8.05196e-08
8.00879e-08
7.97137e-08
7.93613e-08
7.90549e-08
7.87615e-08
7.85102e-08
7.82662e-08
7.80565e-08
7.78493e-08
7.76752e-08
7.75025e-08
7.73509e-08
7.72042e-08
7.70813e-08
7.69579e-08
7.68542e-08
7.67459e-08
7.66516e-08
7.65596e-08
7.64827e-08
7.6401e-08
7.63354e-08
7.62637e-08
7.62041e-08
7.61444e-08
7.6093e-08
7.60385e-08
7.59945e-08
7.59529e-08
7.59143e-08
7.587e-08
7.58398e-08
7.58051e-08
7.57612e-08
7.57317e-08
7.57165e-08
7.56816e-08
7.5663e-08
7.56358e-08
7.56054e-08
7.55624e-08
7.55385e-08
7.55359e-08
7.55311e-08
7.55031e-08
7.55071e-08
7.55029e-08
7.54939e-08
7.55093e-08
7.5513e-08
7.55325e-08
7.5565e-08
7.5572e-08
7.55811e-08
7.55981e-08
7.56222e-08
7.56409e-08
7.56812e-08
7.57042e-08
7.57535e-08
7.57734e-08
7.58206e-08
7.58452e-08
7.59065e-08
7.5934e-08
7.60176e-08
7.60505e-08
7.61418e-08
7.61826e-08
7.6279e-08
7.63351e-08
7.64526e-08
7.65129e-08
7.66808e-08
7.6724e-08
7.73874e-08
3.11515e-06
1.87318e-08
1.23686e-07
1.15529e-07
1.07809e-07
1.01996e-07
9.76835e-08
9.44161e-08
9.18412e-08
8.9783e-08
8.8079e-08
8.66717e-08
8.5466e-08
8.44485e-08
8.35566e-08
8.27903e-08
8.2105e-08
8.15147e-08
8.09764e-08
8.05107e-08
8.0078e-08
7.97029e-08
7.93496e-08
7.90424e-08
7.87483e-08
7.84963e-08
7.82517e-08
7.80414e-08
7.78337e-08
7.76591e-08
7.74859e-08
7.73339e-08
7.71867e-08
7.70635e-08
7.69397e-08
7.68357e-08
7.6727e-08
7.66325e-08
7.65402e-08
7.64631e-08
7.63811e-08
7.63152e-08
7.62434e-08
7.61835e-08
7.61237e-08
7.60721e-08
7.60174e-08
7.59733e-08
7.59315e-08
7.58928e-08
7.58484e-08
7.5818e-08
7.57833e-08
7.57393e-08
7.57096e-08
7.56943e-08
7.56594e-08
7.56407e-08
7.56134e-08
7.5583e-08
7.554e-08
7.55159e-08
7.55132e-08
7.55084e-08
7.54802e-08
7.54841e-08
7.54797e-08
7.54706e-08
7.54859e-08
7.54896e-08
7.55089e-08
7.55413e-08
7.55484e-08
7.55575e-08
7.55744e-08
7.55984e-08
7.5617e-08
7.56572e-08
7.56801e-08
7.57293e-08
7.57492e-08
7.57963e-08
7.58208e-08
7.58821e-08
7.59095e-08
7.59929e-08
7.60258e-08
7.61169e-08
7.61577e-08
7.62539e-08
7.63099e-08
7.64273e-08
7.64875e-08
7.66553e-08
7.66978e-08
7.73677e-08
3.11629e-06
1.9066e-08
1.23695e-07
1.1556e-07
1.07845e-07
1.02028e-07
9.77109e-08
9.44382e-08
9.18584e-08
8.97959e-08
8.80881e-08
8.66775e-08
8.54689e-08
8.44487e-08
8.35545e-08
8.27862e-08
8.2099e-08
8.1507e-08
8.09672e-08
8.05002e-08
8.00662e-08
7.969e-08
7.93357e-08
7.90275e-08
7.87326e-08
7.84798e-08
7.82344e-08
7.80235e-08
7.78151e-08
7.76399e-08
7.74662e-08
7.73136e-08
7.7166e-08
7.70423e-08
7.6918e-08
7.68136e-08
7.67046e-08
7.66097e-08
7.65171e-08
7.64397e-08
7.63574e-08
7.62913e-08
7.62192e-08
7.6159e-08
7.60989e-08
7.60472e-08
7.59923e-08
7.5948e-08
7.5906e-08
7.58672e-08
7.58226e-08
7.57921e-08
7.57573e-08
7.57132e-08
7.56833e-08
7.5668e-08
7.56329e-08
7.56142e-08
7.55867e-08
7.55563e-08
7.55133e-08
7.5489e-08
7.54862e-08
7.54813e-08
7.54528e-08
7.54566e-08
7.54521e-08
7.54427e-08
7.5458e-08
7.54618e-08
7.54808e-08
7.55131e-08
7.55203e-08
7.55294e-08
7.55461e-08
7.557e-08
7.55885e-08
7.56286e-08
7.56513e-08
7.57005e-08
7.57204e-08
7.57674e-08
7.57918e-08
7.5853e-08
7.58802e-08
7.59635e-08
7.59963e-08
7.60872e-08
7.61281e-08
7.6224e-08
7.62799e-08
7.63971e-08
7.64571e-08
7.66249e-08
7.66666e-08
7.73442e-08
3.11778e-06
1.943e-08
1.23705e-07
1.15595e-07
1.07887e-07
1.02066e-07
9.7743e-08
9.44641e-08
9.18786e-08
8.98111e-08
8.80988e-08
8.66843e-08
8.54723e-08
8.44491e-08
8.35522e-08
8.27815e-08
8.20921e-08
8.14982e-08
8.09566e-08
8.0488e-08
8.00526e-08
7.96751e-08
7.93195e-08
7.90103e-08
7.87143e-08
7.84606e-08
7.82143e-08
7.80026e-08
7.77935e-08
7.76176e-08
7.74432e-08
7.72901e-08
7.71418e-08
7.70176e-08
7.68928e-08
7.6788e-08
7.66785e-08
7.65833e-08
7.64902e-08
7.64124e-08
7.63298e-08
7.62634e-08
7.6191e-08
7.61306e-08
7.60702e-08
7.60182e-08
7.59631e-08
7.59185e-08
7.58763e-08
7.58374e-08
7.57926e-08
7.57619e-08
7.5727e-08
7.56828e-08
7.56527e-08
7.56372e-08
7.56021e-08
7.55833e-08
7.55556e-08
7.55252e-08
7.54822e-08
7.54576e-08
7.54547e-08
7.54497e-08
7.5421e-08
7.54247e-08
7.542e-08
7.54104e-08
7.54255e-08
7.54293e-08
7.54481e-08
7.54802e-08
7.54875e-08
7.54966e-08
7.55131e-08
7.5537e-08
7.55553e-08
7.55953e-08
7.56179e-08
7.56669e-08
7.56868e-08
7.57337e-08
7.5758e-08
7.58191e-08
7.58462e-08
7.59291e-08
7.5962e-08
7.60526e-08
7.60935e-08
7.61892e-08
7.62449e-08
7.63619e-08
7.64218e-08
7.65894e-08
7.66302e-08
7.73169e-08
3.11968e-06
1.98283e-08
1.23716e-07
1.15635e-07
1.07934e-07
1.0211e-07
9.77798e-08
9.44939e-08
9.19019e-08
8.98286e-08
8.81113e-08
8.66923e-08
8.54763e-08
8.44496e-08
8.35497e-08
8.27762e-08
8.20843e-08
8.14882e-08
8.09446e-08
8.04742e-08
8.00371e-08
7.96581e-08
7.93011e-08
7.89907e-08
7.86935e-08
7.84387e-08
7.81914e-08
7.79788e-08
7.77688e-08
7.75921e-08
7.7417e-08
7.72632e-08
7.71143e-08
7.69894e-08
7.6864e-08
7.67587e-08
7.66487e-08
7.6553e-08
7.64595e-08
7.63813e-08
7.62983e-08
7.62315e-08
7.61587e-08
7.6098e-08
7.60373e-08
7.5985e-08
7.59296e-08
7.58848e-08
7.58424e-08
7.58033e-08
7.57582e-08
7.57274e-08
7.56923e-08
7.5648e-08
7.56177e-08
7.56021e-08
7.55669e-08
7.55479e-08
7.55201e-08
7.54896e-08
7.54466e-08
7.54218e-08
7.54187e-08
7.54136e-08
7.53846e-08
7.53881e-08
7.53832e-08
7.53733e-08
7.53884e-08
7.53922e-08
7.54106e-08
7.54426e-08
7.545e-08
7.54591e-08
7.54754e-08
7.54992e-08
7.55173e-08
7.55571e-08
7.55796e-08
7.56285e-08
7.56483e-08
7.56952e-08
7.57193e-08
7.57802e-08
7.58072e-08
7.58898e-08
7.59227e-08
7.6013e-08
7.6054e-08
7.61493e-08
7.62049e-08
7.63217e-08
7.63813e-08
7.65489e-08
7.65886e-08
7.72858e-08
3.12202e-06
2.02672e-08
1.23729e-07
1.15681e-07
1.07988e-07
1.02159e-07
9.78214e-08
9.45276e-08
9.19283e-08
8.98485e-08
8.81255e-08
8.67014e-08
8.5481e-08
8.44504e-08
8.35469e-08
8.27703e-08
8.20757e-08
8.1477e-08
8.09311e-08
8.04586e-08
8.00197e-08
7.9639e-08
7.92805e-08
7.89685e-08
7.867e-08
7.84141e-08
7.81656e-08
7.7952e-08
7.7741e-08
7.75634e-08
7.73874e-08
7.72329e-08
7.70832e-08
7.69576e-08
7.68316e-08
7.67256e-08
7.66151e-08
7.65189e-08
7.64248e-08
7.63462e-08
7.62627e-08
7.61955e-08
7.61224e-08
7.60613e-08
7.60002e-08
7.59476e-08
7.58919e-08
7.58468e-08
7.58041e-08
7.57648e-08
7.57194e-08
7.56884e-08
7.56532e-08
7.56088e-08
7.55783e-08
7.55624e-08
7.55271e-08
7.5508e-08
7.54799e-08
7.54494e-08
7.54065e-08
7.53813e-08
7.5378e-08
7.53728e-08
7.53434e-08
7.53469e-08
7.53416e-08
7.53315e-08
7.53464e-08
7.53503e-08
7.53683e-08
7.54002e-08
7.54076e-08
7.54167e-08
7.54328e-08
7.54565e-08
7.54744e-08
7.5514e-08
7.55363e-08
7.55851e-08
7.56049e-08
7.56516e-08
7.56757e-08
7.57364e-08
7.57633e-08
7.58455e-08
7.58783e-08
7.59683e-08
7.60093e-08
7.61043e-08
7.61597e-08
7.62762e-08
7.63356e-08
7.6503e-08
7.65416e-08
7.72506e-08
3.12484e-06
2.07539e-08
1.23743e-07
1.15731e-07
1.08047e-07
1.02214e-07
9.7868e-08
9.45654e-08
9.1958e-08
8.9871e-08
8.81415e-08
8.67118e-08
8.54864e-08
8.44514e-08
8.3544e-08
8.2764e-08
8.20661e-08
8.14647e-08
8.09162e-08
8.04414e-08
8.00004e-08
7.96177e-08
7.92575e-08
7.8944e-08
7.8644e-08
7.83866e-08
7.81369e-08
7.79221e-08
7.771e-08
7.75314e-08
7.73545e-08
7.71991e-08
7.70485e-08
7.69222e-08
7.67954e-08
7.66887e-08
7.65776e-08
7.64809e-08
7.63862e-08
7.6307e-08
7.6223e-08
7.61553e-08
7.60818e-08
7.60203e-08
7.59588e-08
7.59059e-08
7.58498e-08
7.58044e-08
7.57614e-08
7.57219e-08
7.56761e-08
7.5645e-08
7.56095e-08
7.5565e-08
7.55342e-08
7.55181e-08
7.54826e-08
7.54634e-08
7.54351e-08
7.54045e-08
7.53617e-08
7.53361e-08
7.53327e-08
7.53272e-08
7.52975e-08
7.53009e-08
7.52952e-08
7.52848e-08
7.52996e-08
7.53035e-08
7.53211e-08
7.53528e-08
7.53604e-08
7.53694e-08
7.53853e-08
7.54089e-08
7.54264e-08
7.54659e-08
7.5488e-08
7.55366e-08
7.55564e-08
7.5603e-08
7.56269e-08
7.56874e-08
7.57141e-08
7.57959e-08
7.58287e-08
7.59183e-08
7.59594e-08
7.6054e-08
7.61092e-08
7.62254e-08
7.62846e-08
7.64518e-08
7.64891e-08
7.72114e-08
3.12815e-06
2.12967e-08
1.23758e-07
1.15786e-07
1.08113e-07
1.02275e-07
9.79198e-08
9.46075e-08
9.1991e-08
8.9896e-08
8.81595e-08
8.67236e-08
8.54926e-08
8.44527e-08
8.35409e-08
8.27571e-08
8.20557e-08
8.14512e-08
8.08998e-08
8.04225e-08
7.99791e-08
7.95943e-08
7.92321e-08
7.89169e-08
7.86152e-08
7.83564e-08
7.81052e-08
7.78892e-08
7.76758e-08
7.74961e-08
7.73181e-08
7.71618e-08
7.70102e-08
7.6883e-08
7.67554e-08
7.6648e-08
7.65362e-08
7.64388e-08
7.63434e-08
7.62637e-08
7.61791e-08
7.6111e-08
7.60369e-08
7.5975e-08
7.5913e-08
7.58597e-08
7.58032e-08
7.57575e-08
7.57141e-08
7.56744e-08
7.56283e-08
7.55968e-08
7.55612e-08
7.55166e-08
7.54854e-08
7.54691e-08
7.54335e-08
7.54141e-08
7.53855e-08
7.53548e-08
7.53121e-08
7.52861e-08
7.52824e-08
7.52768e-08
7.52467e-08
7.52499e-08
7.52439e-08
7.52332e-08
7.52477e-08
7.52517e-08
7.52688e-08
7.53004e-08
7.5308e-08
7.5317e-08
7.53327e-08
7.53561e-08
7.53734e-08
7.54127e-08
7.54345e-08
7.5483e-08
7.55027e-08
7.55492e-08
7.55729e-08
7.56332e-08
7.56597e-08
7.57411e-08
7.57739e-08
7.58631e-08
7.59041e-08
7.59983e-08
7.60534e-08
7.61692e-08
7.62281e-08
7.63952e-08
7.6431e-08
7.7168e-08
3.13194e-06
2.19048e-08
1.23774e-07
1.15847e-07
1.08185e-07
1.02342e-07
9.79767e-08
9.46538e-08
9.20276e-08
8.99238e-08
8.81794e-08
8.67367e-08
8.54997e-08
8.44544e-08
8.35378e-08
8.27497e-08
8.20445e-08
8.14365e-08
8.0882e-08
8.04019e-08
7.99559e-08
7.95688e-08
7.92044e-08
7.88872e-08
7.85837e-08
7.83232e-08
7.80705e-08
7.78531e-08
7.76384e-08
7.74574e-08
7.72782e-08
7.71209e-08
7.69682e-08
7.68401e-08
7.67115e-08
7.66034e-08
7.64908e-08
7.63927e-08
7.62966e-08
7.62162e-08
7.6131e-08
7.60623e-08
7.59877e-08
7.59252e-08
7.58627e-08
7.5809e-08
7.57521e-08
7.5706e-08
7.56623e-08
7.56222e-08
7.55757e-08
7.5544e-08
7.55082e-08
7.54634e-08
7.54319e-08
7.54153e-08
7.53795e-08
7.53599e-08
7.53311e-08
7.53003e-08
7.52576e-08
7.52312e-08
7.52272e-08
7.52215e-08
7.51909e-08
7.5194e-08
7.51876e-08
7.51765e-08
7.51908e-08
7.51948e-08
7.52114e-08
7.52428e-08
7.52505e-08
7.52595e-08
7.52749e-08
7.52982e-08
7.53152e-08
7.53542e-08
7.53758e-08
7.5424e-08
7.54437e-08
7.54901e-08
7.55135e-08
7.55737e-08
7.56e-08
7.56808e-08
7.57136e-08
7.58023e-08
7.58434e-08
7.59371e-08
7.5992e-08
7.61074e-08
7.6166e-08
7.63329e-08
7.63672e-08
7.71203e-08
3.13614e-06
2.25878e-08
1.23792e-07
1.15912e-07
1.08264e-07
1.02416e-07
9.8039e-08
9.47047e-08
9.20677e-08
8.99544e-08
8.82015e-08
8.67513e-08
8.55076e-08
8.44565e-08
8.35347e-08
8.27419e-08
8.20325e-08
8.14207e-08
8.08628e-08
8.03796e-08
7.99308e-08
7.95411e-08
7.91744e-08
7.88551e-08
7.85496e-08
7.82872e-08
7.80328e-08
7.78138e-08
7.75976e-08
7.74152e-08
7.72348e-08
7.70763e-08
7.69225e-08
7.67934e-08
7.66638e-08
7.65547e-08
7.64413e-08
7.63424e-08
7.62455e-08
7.61645e-08
7.60785e-08
7.60092e-08
7.5934e-08
7.5871e-08
7.58079e-08
7.57538e-08
7.56963e-08
7.56499e-08
7.56057e-08
7.55654e-08
7.55184e-08
7.54864e-08
7.54503e-08
7.54054e-08
7.53735e-08
7.53567e-08
7.53206e-08
7.53009e-08
7.52717e-08
7.52408e-08
7.51982e-08
7.51713e-08
7.5167e-08
7.51612e-08
7.51301e-08
7.51329e-08
7.51261e-08
7.51147e-08
7.51287e-08
7.51327e-08
7.51488e-08
7.51799e-08
7.51878e-08
7.51968e-08
7.52118e-08
7.5235e-08
7.52516e-08
7.52904e-08
7.53117e-08
7.53597e-08
7.53794e-08
7.54256e-08
7.54488e-08
7.55087e-08
7.55348e-08
7.56151e-08
7.56479e-08
7.57361e-08
7.57771e-08
7.58704e-08
7.5925e-08
7.604e-08
7.60983e-08
7.62649e-08
7.62976e-08
7.70683e-08
3.14067e-06
2.33561e-08
1.2381e-07
1.15982e-07
1.08349e-07
1.02495e-07
9.81068e-08
9.47601e-08
9.21116e-08
8.99879e-08
8.82258e-08
8.67675e-08
8.55166e-08
8.44591e-08
8.35315e-08
8.27337e-08
8.20197e-08
8.14038e-08
8.08422e-08
8.03556e-08
7.99037e-08
7.95113e-08
7.91419e-08
7.88203e-08
7.85126e-08
7.82483e-08
7.7992e-08
7.77713e-08
7.75535e-08
7.73697e-08
7.71879e-08
7.70281e-08
7.6873e-08
7.67428e-08
7.66121e-08
7.6502e-08
7.63876e-08
7.6288e-08
7.61902e-08
7.61084e-08
7.60217e-08
7.59517e-08
7.58758e-08
7.58123e-08
7.57486e-08
7.56939e-08
7.56359e-08
7.5589e-08
7.55443e-08
7.55037e-08
7.54562e-08
7.5424e-08
7.53876e-08
7.53425e-08
7.53101e-08
7.5293e-08
7.52568e-08
7.52368e-08
7.52073e-08
7.51763e-08
7.51337e-08
7.51064e-08
7.51017e-08
7.50957e-08
7.50641e-08
7.50667e-08
7.50594e-08
7.50476e-08
7.50613e-08
7.50654e-08
7.50809e-08
7.51117e-08
7.51197e-08
7.51287e-08
7.51433e-08
7.51664e-08
7.51827e-08
7.52211e-08
7.52422e-08
7.529e-08
7.53095e-08
7.53555e-08
7.53785e-08
7.54381e-08
7.54641e-08
7.55437e-08
7.55765e-08
7.56641e-08
7.57052e-08
7.57979e-08
7.58523e-08
7.59668e-08
7.60248e-08
7.61912e-08
7.62221e-08
7.70117e-08
3.14537e-06
2.42203e-08
1.2383e-07
1.16057e-07
1.0844e-07
1.02581e-07
9.81803e-08
9.48204e-08
9.21594e-08
9.00245e-08
8.82525e-08
8.67853e-08
8.55266e-08
8.44622e-08
8.35285e-08
8.27252e-08
8.20062e-08
8.13859e-08
8.08202e-08
8.033e-08
7.98747e-08
7.94793e-08
7.91072e-08
7.8783e-08
7.8473e-08
7.82065e-08
7.79481e-08
7.77256e-08
7.75061e-08
7.73206e-08
7.71373e-08
7.69762e-08
7.68197e-08
7.66882e-08
7.65563e-08
7.64452e-08
7.63298e-08
7.62293e-08
7.61305e-08
7.60479e-08
7.59604e-08
7.58897e-08
7.58131e-08
7.57489e-08
7.56845e-08
7.56293e-08
7.55707e-08
7.55233e-08
7.54781e-08
7.54371e-08
7.53891e-08
7.53565e-08
7.53199e-08
7.52746e-08
7.52417e-08
7.52243e-08
7.51878e-08
7.51676e-08
7.51377e-08
7.51066e-08
7.50641e-08
7.50362e-08
7.50312e-08
7.5025e-08
7.49928e-08
7.49953e-08
7.49874e-08
7.49752e-08
7.49886e-08
7.49926e-08
7.50076e-08
7.50381e-08
7.50462e-08
7.50551e-08
7.50694e-08
7.50923e-08
7.51082e-08
7.51463e-08
7.51671e-08
7.52146e-08
7.52341e-08
7.52799e-08
7.53026e-08
7.53619e-08
7.53877e-08
7.54666e-08
7.54994e-08
7.55864e-08
7.56275e-08
7.57196e-08
7.57737e-08
7.58878e-08
7.59453e-08
7.61114e-08
7.61405e-08
7.69505e-08
3.15005e-06
2.51914e-08
1.2385e-07
1.16137e-07
1.08539e-07
1.02673e-07
9.82596e-08
9.48855e-08
9.22112e-08
9.00643e-08
8.82816e-08
8.6805e-08
8.55379e-08
8.4466e-08
8.35256e-08
8.27164e-08
8.19921e-08
8.1367e-08
8.07969e-08
8.03028e-08
7.98439e-08
7.94452e-08
7.907e-08
7.87432e-08
7.84305e-08
7.81617e-08
7.79012e-08
7.76767e-08
7.74553e-08
7.7268e-08
7.70831e-08
7.69205e-08
7.67626e-08
7.66298e-08
7.64965e-08
7.63843e-08
7.62678e-08
7.61663e-08
7.60664e-08
7.5983e-08
7.58946e-08
7.58231e-08
7.57457e-08
7.56809e-08
7.56157e-08
7.556e-08
7.55007e-08
7.54527e-08
7.5407e-08
7.53656e-08
7.5317e-08
7.52841e-08
7.52471e-08
7.52016e-08
7.51683e-08
7.51505e-08
7.51137e-08
7.50932e-08
7.5063e-08
7.50317e-08
7.49892e-08
7.49608e-08
7.49554e-08
7.4949e-08
7.49163e-08
7.49184e-08
7.491e-08
7.48974e-08
7.49104e-08
7.49145e-08
7.49287e-08
7.49589e-08
7.49671e-08
7.4976e-08
7.49899e-08
7.50126e-08
7.50281e-08
7.50659e-08
7.50864e-08
7.51335e-08
7.51529e-08
7.51985e-08
7.5221e-08
7.528e-08
7.53055e-08
7.53837e-08
7.54164e-08
7.55029e-08
7.55439e-08
7.56355e-08
7.56892e-08
7.58027e-08
7.58598e-08
7.60257e-08
7.60527e-08
7.68845e-08
3.15443e-06
2.62808e-08
1.23872e-07
1.16222e-07
1.08643e-07
1.02772e-07
9.83448e-08
9.49558e-08
9.22672e-08
9.01075e-08
8.83133e-08
8.68265e-08
8.55504e-08
8.44706e-08
8.3523e-08
8.27075e-08
8.19773e-08
8.13471e-08
8.07722e-08
8.02739e-08
7.98111e-08
7.94089e-08
7.90305e-08
7.87007e-08
7.83853e-08
7.8114e-08
7.78511e-08
7.76245e-08
7.7401e-08
7.72119e-08
7.70252e-08
7.68611e-08
7.67015e-08
7.65673e-08
7.64326e-08
7.63192e-08
7.62015e-08
7.60989e-08
7.5998e-08
7.59136e-08
7.58242e-08
7.57519e-08
7.56737e-08
7.56081e-08
7.55421e-08
7.54857e-08
7.54258e-08
7.53772e-08
7.53308e-08
7.52891e-08
7.52399e-08
7.52065e-08
7.51692e-08
7.51235e-08
7.50896e-08
7.50714e-08
7.50344e-08
7.50136e-08
7.49829e-08
7.49515e-08
7.49091e-08
7.48801e-08
7.48742e-08
7.48676e-08
7.48343e-08
7.48362e-08
7.48272e-08
7.48141e-08
7.48266e-08
7.48307e-08
7.48443e-08
7.48741e-08
7.48824e-08
7.48913e-08
7.49048e-08
7.49272e-08
7.49424e-08
7.49798e-08
7.49999e-08
7.50467e-08
7.5066e-08
7.51114e-08
7.51336e-08
7.51922e-08
7.52174e-08
7.52949e-08
7.53276e-08
7.54133e-08
7.54544e-08
7.55453e-08
7.55987e-08
7.57116e-08
7.57683e-08
7.59338e-08
7.59588e-08
7.68135e-08
3.1582e-06
2.75005e-08
1.23894e-07
1.16312e-07
1.08755e-07
1.02878e-07
9.84362e-08
9.50313e-08
9.23276e-08
9.01542e-08
8.83478e-08
8.68502e-08
8.55644e-08
8.4476e-08
8.35207e-08
8.26984e-08
8.19621e-08
8.13263e-08
8.07464e-08
8.02435e-08
7.97765e-08
7.93706e-08
7.89887e-08
7.86558e-08
7.83374e-08
7.80634e-08
7.77979e-08
7.7569e-08
7.73434e-08
7.71522e-08
7.69636e-08
7.67978e-08
7.66365e-08
7.65008e-08
7.63646e-08
7.62498e-08
7.61309e-08
7.60272e-08
7.5925e-08
7.58396e-08
7.57492e-08
7.56759e-08
7.55969e-08
7.55305e-08
7.54637e-08
7.54066e-08
7.53459e-08
7.52967e-08
7.52496e-08
7.52075e-08
7.51575e-08
7.51238e-08
7.50861e-08
7.50402e-08
7.50057e-08
7.49871e-08
7.49498e-08
7.49287e-08
7.48975e-08
7.48659e-08
7.48236e-08
7.4794e-08
7.47876e-08
7.47807e-08
7.47468e-08
7.47484e-08
7.47388e-08
7.47252e-08
7.47373e-08
7.47414e-08
7.47542e-08
7.47836e-08
7.4792e-08
7.48008e-08
7.48139e-08
7.48361e-08
7.48508e-08
7.48878e-08
7.49075e-08
7.4954e-08
7.49732e-08
7.50183e-08
7.50402e-08
7.50984e-08
7.51234e-08
7.52001e-08
7.52327e-08
7.53177e-08
7.53587e-08
7.5449e-08
7.5502e-08
7.56143e-08
7.56705e-08
7.58356e-08
7.58584e-08
7.67373e-08
3.16093e-06
2.88623e-08
1.23917e-07
1.16407e-07
1.08873e-07
1.02991e-07
9.85339e-08
9.51122e-08
9.23925e-08
9.02046e-08
8.83851e-08
8.6876e-08
8.55799e-08
8.44823e-08
8.35189e-08
8.26893e-08
8.19464e-08
8.13047e-08
8.07193e-08
8.02116e-08
7.97402e-08
7.93302e-08
7.89445e-08
7.86083e-08
7.82867e-08
7.80098e-08
7.77416e-08
7.75103e-08
7.72823e-08
7.7089e-08
7.68984e-08
7.67308e-08
7.65676e-08
7.64302e-08
7.62924e-08
7.61762e-08
7.60559e-08
7.5951e-08
7.58476e-08
7.57611e-08
7.56696e-08
7.55953e-08
7.55153e-08
7.5448e-08
7.53803e-08
7.53225e-08
7.5261e-08
7.52112e-08
7.51633e-08
7.51207e-08
7.507e-08
7.50358e-08
7.49978e-08
7.49516e-08
7.49164e-08
7.48973e-08
7.48597e-08
7.48384e-08
7.48067e-08
7.47749e-08
7.47326e-08
7.47024e-08
7.46954e-08
7.46883e-08
7.46537e-08
7.4655e-08
7.46447e-08
7.46307e-08
7.46422e-08
7.46463e-08
7.46583e-08
7.46873e-08
7.46958e-08
7.47046e-08
7.47172e-08
7.47391e-08
7.47534e-08
7.47899e-08
7.48093e-08
7.48553e-08
7.48744e-08
7.49192e-08
7.49408e-08
7.49986e-08
7.50233e-08
7.50992e-08
7.51317e-08
7.5216e-08
7.52569e-08
7.53464e-08
7.53991e-08
7.55107e-08
7.55664e-08
7.5731e-08
7.57517e-08
7.66558e-08
3.16216e-06
3.0378e-08
1.23941e-07
1.16507e-07
1.08998e-07
1.03111e-07
9.8638e-08
9.51988e-08
9.24622e-08
9.02589e-08
8.84255e-08
8.69041e-08
8.55971e-08
8.44898e-08
8.35176e-08
8.26803e-08
8.19303e-08
8.12823e-08
8.06912e-08
8.01783e-08
7.97021e-08
7.92878e-08
7.88981e-08
7.85583e-08
7.82333e-08
7.79534e-08
7.76823e-08
7.74483e-08
7.72178e-08
7.70222e-08
7.68294e-08
7.66599e-08
7.64948e-08
7.63556e-08
7.62161e-08
7.60983e-08
7.59766e-08
7.58704e-08
7.57655e-08
7.56779e-08
7.55852e-08
7.55099e-08
7.54289e-08
7.53607e-08
7.5292e-08
7.52334e-08
7.51711e-08
7.51205e-08
7.50718e-08
7.50286e-08
7.49772e-08
7.49426e-08
7.49041e-08
7.48577e-08
7.48218e-08
7.48022e-08
7.47643e-08
7.47425e-08
7.47103e-08
7.46783e-08
7.4636e-08
7.46052e-08
7.45977e-08
7.45903e-08
7.4555e-08
7.4556e-08
7.45448e-08
7.45304e-08
7.45413e-08
7.45454e-08
7.45566e-08
7.45851e-08
7.45936e-08
7.46024e-08
7.46146e-08
7.46362e-08
7.465e-08
7.46861e-08
7.4705e-08
7.47506e-08
7.47695e-08
7.48141e-08
7.48353e-08
7.48927e-08
7.49171e-08
7.4992e-08
7.50245e-08
7.51079e-08
7.51487e-08
7.52376e-08
7.52898e-08
7.54007e-08
7.54558e-08
7.562e-08
7.56384e-08
7.65686e-08
3.16133e-06
3.20593e-08
1.23965e-07
1.16611e-07
1.0913e-07
1.03238e-07
9.87488e-08
9.52911e-08
9.25367e-08
9.03172e-08
8.84692e-08
8.69348e-08
8.56161e-08
8.44985e-08
8.3517e-08
8.26715e-08
8.19139e-08
8.12592e-08
8.0662e-08
8.01436e-08
7.96623e-08
7.92435e-08
7.88495e-08
7.85059e-08
7.81773e-08
7.7894e-08
7.76198e-08
7.73831e-08
7.71499e-08
7.69519e-08
7.67567e-08
7.65851e-08
7.64179e-08
7.62768e-08
7.61355e-08
7.60162e-08
7.58929e-08
7.57853e-08
7.5679e-08
7.55901e-08
7.54961e-08
7.54197e-08
7.53376e-08
7.52684e-08
7.51986e-08
7.51393e-08
7.5076e-08
7.50246e-08
7.4975e-08
7.49313e-08
7.48791e-08
7.4844e-08
7.48051e-08
7.47584e-08
7.47218e-08
7.47016e-08
7.46633e-08
7.46412e-08
7.46084e-08
7.45762e-08
7.45339e-08
7.45025e-08
7.44942e-08
7.44867e-08
7.44506e-08
7.44512e-08
7.44393e-08
7.44243e-08
7.44346e-08
7.44387e-08
7.4449e-08
7.4477e-08
7.44855e-08
7.44943e-08
7.45059e-08
7.45273e-08
7.45405e-08
7.45761e-08
7.45946e-08
7.46398e-08
7.46585e-08
7.47028e-08
7.47237e-08
7.47805e-08
7.48047e-08
7.48786e-08
7.4911e-08
7.49935e-08
7.50343e-08
7.51223e-08
7.51741e-08
7.52842e-08
7.53388e-08
7.55024e-08
7.55185e-08
7.64756e-08
3.15783e-06
3.39174e-08
1.2399e-07
1.1672e-07
1.09269e-07
1.03372e-07
9.88664e-08
9.53895e-08
9.26164e-08
9.03797e-08
8.85163e-08
8.69681e-08
8.56371e-08
8.45085e-08
8.35173e-08
8.26629e-08
8.18975e-08
8.12356e-08
8.06318e-08
8.01076e-08
7.96209e-08
7.91972e-08
7.87987e-08
7.8451e-08
7.81186e-08
7.78319e-08
7.75543e-08
7.73147e-08
7.70786e-08
7.68779e-08
7.66804e-08
7.65066e-08
7.63371e-08
7.6194e-08
7.60507e-08
7.59297e-08
7.58047e-08
7.56957e-08
7.55878e-08
7.54976e-08
7.54023e-08
7.53247e-08
7.52414e-08
7.51712e-08
7.51003e-08
7.504e-08
7.49758e-08
7.49236e-08
7.4873e-08
7.48287e-08
7.47756e-08
7.47399e-08
7.47006e-08
7.46536e-08
7.46162e-08
7.45955e-08
7.45568e-08
7.45342e-08
7.45008e-08
7.44684e-08
7.44261e-08
7.4394e-08
7.43851e-08
7.43772e-08
7.43404e-08
7.43406e-08
7.43279e-08
7.43124e-08
7.4322e-08
7.4326e-08
7.43355e-08
7.43628e-08
7.43714e-08
7.43801e-08
7.43912e-08
7.44122e-08
7.4425e-08
7.44601e-08
7.44781e-08
7.45227e-08
7.45413e-08
7.45852e-08
7.46057e-08
7.4662e-08
7.46859e-08
7.47588e-08
7.47911e-08
7.48727e-08
7.49133e-08
7.50006e-08
7.50519e-08
7.51612e-08
7.52151e-08
7.53781e-08
7.53918e-08
7.63765e-08
3.15097e-06
3.59625e-08
1.24016e-07
1.16833e-07
1.09414e-07
1.03514e-07
9.8991e-08
9.54941e-08
9.27014e-08
9.04467e-08
8.8567e-08
8.70043e-08
8.56603e-08
8.45202e-08
8.35185e-08
8.26549e-08
8.1881e-08
8.12116e-08
8.06009e-08
8.00704e-08
7.9578e-08
7.91491e-08
7.87458e-08
7.83938e-08
7.80573e-08
7.77669e-08
7.74858e-08
7.7243e-08
7.7004e-08
7.68005e-08
7.66003e-08
7.64242e-08
7.62523e-08
7.61072e-08
7.59618e-08
7.58389e-08
7.57121e-08
7.56016e-08
7.5492e-08
7.54004e-08
7.53036e-08
7.52248e-08
7.51402e-08
7.50689e-08
7.49968e-08
7.49356e-08
7.48703e-08
7.48173e-08
7.47656e-08
7.47207e-08
7.46667e-08
7.46304e-08
7.45906e-08
7.45433e-08
7.45051e-08
7.44837e-08
7.44446e-08
7.44216e-08
7.43875e-08
7.43549e-08
7.43126e-08
7.42798e-08
7.42701e-08
7.4262e-08
7.42244e-08
7.42242e-08
7.42106e-08
7.41946e-08
7.42034e-08
7.42073e-08
7.42158e-08
7.42426e-08
7.42512e-08
7.42599e-08
7.42704e-08
7.42911e-08
7.43032e-08
7.43378e-08
7.43553e-08
7.43994e-08
7.44177e-08
7.44613e-08
7.44815e-08
7.45372e-08
7.45607e-08
7.46326e-08
7.46647e-08
7.47454e-08
7.47858e-08
7.48723e-08
7.4923e-08
7.50315e-08
7.50848e-08
7.52471e-08
7.52584e-08
7.62709e-08
3.14001e-06
3.82032e-08
1.24042e-07
1.16951e-07
1.09567e-07
1.03663e-07
9.91228e-08
9.56052e-08
9.2792e-08
9.05184e-08
8.86216e-08
8.70436e-08
8.56859e-08
8.45335e-08
8.35208e-08
8.26474e-08
8.18646e-08
8.11872e-08
8.05691e-08
8.00321e-08
7.95336e-08
7.90993e-08
7.86909e-08
7.83343e-08
7.79935e-08
7.76991e-08
7.74144e-08
7.71682e-08
7.6926e-08
7.67196e-08
7.65166e-08
7.6338e-08
7.61636e-08
7.60162e-08
7.58686e-08
7.57437e-08
7.56151e-08
7.5503e-08
7.53916e-08
7.52985e-08
7.52002e-08
7.512e-08
7.50341e-08
7.49617e-08
7.48883e-08
7.48261e-08
7.47597e-08
7.47057e-08
7.46529e-08
7.46073e-08
7.45523e-08
7.45154e-08
7.44751e-08
7.44275e-08