/*--------------------------------*- C++ -*----------------------------------*\
| =========                 |                                                 |
| \\      /  F ield         | OpenFOAM: The Open Source CFD Toolbox           |
|  \\    /   O peration     | Version:  v2012                                 |
|   \\  /    A nd           | Website:  www.openfoam.com                      |
|    \\/     M anipulation  |                                                 |
\*---------------------------------------------------------------------------*/
FoamFile
{
    version     2.0;
    format      ascii;
    class       volVectorField;
    location    "19";
    object      wallShearStress;
}
// * * * * * * * * * * * * * * * * * * * * * * * * * * * * * * * * * * * * * //

dimensions      [0 2 -2 0 0 0 0];


internalField   uniform (0 0 0);

boundaryField
{
    inlet
    {
        type            calculated;
        value           uniform (0 0 0);
    }
    outlet
    {
        type            calculated;
        value           uniform (0 0 0);
    }
    topWall
    {
        type            calculated;
        value           nonuniform List<vector> 
545
(
(4.60809e-08 -3.23955e-08 0)
(4.61618e-08 -9.08585e-08 0)
(4.60747e-08 -1.51587e-07 0)
(4.59717e-08 -2.10454e-07 0)
(4.58927e-08 -2.66766e-07 0)
(4.58002e-08 -3.21251e-07 0)
(4.56966e-08 -3.74372e-07 0)
(4.55828e-08 -4.26106e-07 0)
(4.5459e-08 -4.76337e-07 0)
(4.53263e-08 -5.25063e-07 0)
(4.51856e-08 -5.72348e-07 0)
(4.50375e-08 -6.18245e-07 0)
(4.48828e-08 -6.62789e-07 0)
(4.47223e-08 -7.06006e-07 0)
(4.45566e-08 -7.47927e-07 0)
(4.43864e-08 -7.88588e-07 0)
(4.42122e-08 -8.28024e-07 0)
(4.40346e-08 -8.66267e-07 0)
(4.3854e-08 -9.03351e-07 0)
(4.36712e-08 -9.39307e-07 0)
(4.34863e-08 -9.74167e-07 0)
(4.32999e-08 -1.00796e-06 0)
(4.31123e-08 -1.04073e-06 0)
(4.29239e-08 -1.07249e-06 0)
(4.27351e-08 -1.10328e-06 0)
(4.25461e-08 -1.13312e-06 0)
(4.23572e-08 -1.16205e-06 0)
(4.21687e-08 -1.19008e-06 0)
(4.19808e-08 -1.21726e-06 0)
(4.17937e-08 -1.24361e-06 0)
(4.16076e-08 -1.26914e-06 0)
(4.14227e-08 -1.29389e-06 0)
(4.12392e-08 -1.31788e-06 0)
(4.10572e-08 -1.34114e-06 0)
(4.08768e-08 -1.36368e-06 0)
(4.06982e-08 -1.38553e-06 0)
(4.05214e-08 -1.40671e-06 0)
(4.03466e-08 -1.42725e-06 0)
(4.01738e-08 -1.44715e-06 0)
(4.00032e-08 -1.46645e-06 0)
(3.98347e-08 -1.48516e-06 0)
(3.96684e-08 -1.50331e-06 0)
(3.95044e-08 -1.5209e-06 0)
(3.93427e-08 -1.53795e-06 0)
(3.91833e-08 -1.55449e-06 0)
(3.90263e-08 -1.57052e-06 0)
(3.88716e-08 -1.58608e-06 0)
(3.87193e-08 -1.60116e-06 0)
(3.85694e-08 -1.61579e-06 0)
(3.84219e-08 -1.62997e-06 0)
(3.82768e-08 -1.64373e-06 0)
(3.81341e-08 -1.65708e-06 0)
(3.79936e-08 -1.67002e-06 0)
(3.78556e-08 -1.68258e-06 0)
(3.77199e-08 -1.69477e-06 0)
(3.75864e-08 -1.70659e-06 0)
(3.74552e-08 -1.71806e-06 0)
(3.73263e-08 -1.72918e-06 0)
(3.71996e-08 -1.73998e-06 0)
(3.70751e-08 -1.75046e-06 0)
(3.69527e-08 -1.76062e-06 0)
(3.68324e-08 -1.77049e-06 0)
(3.67142e-08 -1.78006e-06 0)
(3.65981e-08 -1.78935e-06 0)
(3.64839e-08 -1.79837e-06 0)
(3.63717e-08 -1.80713e-06 0)
(3.62614e-08 -1.81562e-06 0)
(3.6153e-08 -1.82387e-06 0)
(3.60465e-08 -1.83188e-06 0)
(3.59413e-08 -1.83964e-06 0)
(3.58397e-08 -1.84721e-06 0)
(3.57314e-08 -1.85453e-06 0)
(3.56295e-08 -1.86152e-06 0)
(3.55432e-08 -1.86836e-06 0)
(3.54565e-08 -1.87511e-06 0)
(3.53702e-08 -1.88177e-06 0)
(3.52839e-08 -1.88844e-06 0)
(3.51978e-08 -1.89505e-06 0)
(3.51118e-08 -1.90162e-06 0)
(3.50259e-08 -1.90813e-06 0)
(3.49401e-08 -1.9146e-06 0)
(3.48545e-08 -1.92103e-06 0)
(3.47689e-08 -1.92741e-06 0)
(3.46835e-08 -1.93375e-06 0)
(3.45982e-08 -1.94004e-06 0)
(3.4513e-08 -1.94629e-06 0)
(3.4428e-08 -1.95249e-06 0)
(3.43431e-08 -1.95865e-06 0)
(3.42583e-08 -1.96476e-06 0)
(3.41736e-08 -1.97084e-06 0)
(3.40892e-08 -1.97687e-06 0)
(3.40047e-08 -1.98286e-06 0)
(3.39212e-08 -1.98882e-06 0)
(3.38341e-08 -1.99464e-06 0)
(3.37623e-08 -2.00064e-06 0)
(3.36228e-08 -2.00643e-06 0)
(3.34727e-08 -2.01141e-06 0)
(3.34015e-08 -2.01638e-06 0)
(3.33336e-08 -2.02114e-06 0)
(3.32677e-08 -2.02562e-06 0)
(3.32019e-08 -2.03031e-06 0)
(3.31359e-08 -2.03503e-06 0)
(3.30697e-08 -2.03974e-06 0)
(3.30033e-08 -2.04442e-06 0)
(3.29365e-08 -2.04911e-06 0)
(3.28695e-08 -2.0538e-06 0)
(3.28022e-08 -2.05849e-06 0)
(3.27347e-08 -2.06319e-06 0)
(3.26668e-08 -2.06789e-06 0)
(3.25987e-08 -2.07258e-06 0)
(3.25303e-08 -2.07728e-06 0)
(3.24617e-08 -2.08198e-06 0)
(3.23927e-08 -2.08669e-06 0)
(3.23235e-08 -2.09139e-06 0)
(3.2254e-08 -2.09609e-06 0)
(3.21842e-08 -2.1008e-06 0)
(3.21141e-08 -2.1055e-06 0)
(3.20438e-08 -2.11021e-06 0)
(3.19731e-08 -2.11492e-06 0)
(3.19022e-08 -2.11962e-06 0)
(3.1831e-08 -2.12433e-06 0)
(3.17595e-08 -2.12904e-06 0)
(3.16877e-08 -2.13375e-06 0)
(3.16156e-08 -2.13846e-06 0)
(3.15432e-08 -2.14317e-06 0)
(3.14706e-08 -2.14788e-06 0)
(3.13976e-08 -2.15259e-06 0)
(3.13244e-08 -2.1573e-06 0)
(3.12509e-08 -2.16201e-06 0)
(3.11771e-08 -2.16672e-06 0)
(3.1103e-08 -2.17143e-06 0)
(3.10286e-08 -2.17615e-06 0)
(3.09539e-08 -2.18086e-06 0)
(3.08789e-08 -2.18557e-06 0)
(3.08037e-08 -2.19028e-06 0)
(3.07281e-08 -2.19498e-06 0)
(3.06523e-08 -2.19969e-06 0)
(3.05761e-08 -2.2044e-06 0)
(3.04997e-08 -2.20911e-06 0)
(3.0423e-08 -2.21382e-06 0)
(3.0346e-08 -2.21852e-06 0)
(3.02687e-08 -2.22323e-06 0)
(3.01911e-08 -2.22793e-06 0)
(3.01132e-08 -2.23263e-06 0)
(3.0035e-08 -2.23733e-06 0)
(2.99565e-08 -2.24204e-06 0)
(2.98777e-08 -2.24673e-06 0)
(2.97987e-08 -2.25143e-06 0)
(2.97193e-08 -2.25613e-06 0)
(2.96396e-08 -2.26082e-06 0)
(2.95597e-08 -2.26552e-06 0)
(2.94794e-08 -2.27021e-06 0)
(2.93989e-08 -2.2749e-06 0)
(2.93181e-08 -2.27959e-06 0)
(2.92369e-08 -2.28427e-06 0)
(2.91555e-08 -2.28896e-06 0)
(2.90738e-08 -2.29364e-06 0)
(2.89917e-08 -2.29832e-06 0)
(2.89094e-08 -2.303e-06 0)
(2.88268e-08 -2.30768e-06 0)
(2.87439e-08 -2.31235e-06 0)
(2.86607e-08 -2.31702e-06 0)
(2.85772e-08 -2.32169e-06 0)
(2.84934e-08 -2.32635e-06 0)
(2.84094e-08 -2.33102e-06 0)
(2.8325e-08 -2.33568e-06 0)
(2.82403e-08 -2.34033e-06 0)
(2.81553e-08 -2.34499e-06 0)
(2.80701e-08 -2.34964e-06 0)
(2.79845e-08 -2.35428e-06 0)
(2.78987e-08 -2.35893e-06 0)
(2.78125e-08 -2.36357e-06 0)
(2.77261e-08 -2.36821e-06 0)
(2.76394e-08 -2.37284e-06 0)
(2.75523e-08 -2.37747e-06 0)
(2.7465e-08 -2.3821e-06 0)
(2.73774e-08 -2.38672e-06 0)
(2.72895e-08 -2.39134e-06 0)
(2.72013e-08 -2.39595e-06 0)
(2.71128e-08 -2.40056e-06 0)
(2.7024e-08 -2.40517e-06 0)
(2.6935e-08 -2.40977e-06 0)
(2.68456e-08 -2.41437e-06 0)
(2.67559e-08 -2.41896e-06 0)
(2.6666e-08 -2.42355e-06 0)
(2.65758e-08 -2.42813e-06 0)
(2.64852e-08 -2.43271e-06 0)
(2.63944e-08 -2.43729e-06 0)
(2.63033e-08 -2.44186e-06 0)
(2.62119e-08 -2.44642e-06 0)
(2.61202e-08 -2.45098e-06 0)
(2.60283e-08 -2.45553e-06 0)
(2.5936e-08 -2.46008e-06 0)
(2.58435e-08 -2.46462e-06 0)
(2.57507e-08 -2.46916e-06 0)
(2.56576e-08 -2.47369e-06 0)
(2.55642e-08 -2.47822e-06 0)
(2.54705e-08 -2.48274e-06 0)
(2.53765e-08 -2.48725e-06 0)
(2.52823e-08 -2.49176e-06 0)
(2.51877e-08 -2.49626e-06 0)
(2.50929e-08 -2.50075e-06 0)
(2.49979e-08 -2.50524e-06 0)
(2.49025e-08 -2.50972e-06 0)
(2.48068e-08 -2.5142e-06 0)
(2.47109e-08 -2.51867e-06 0)
(2.46147e-08 -2.52313e-06 0)
(2.45182e-08 -2.52758e-06 0)
(2.44215e-08 -2.53203e-06 0)
(2.43245e-08 -2.53647e-06 0)
(2.42272e-08 -2.5409e-06 0)
(2.41296e-08 -2.54533e-06 0)
(2.40317e-08 -2.54975e-06 0)
(2.39336e-08 -2.55416e-06 0)
(2.38352e-08 -2.55856e-06 0)
(2.37366e-08 -2.56296e-06 0)
(2.36376e-08 -2.56734e-06 0)
(2.35384e-08 -2.57172e-06 0)
(2.3439e-08 -2.57609e-06 0)
(2.33393e-08 -2.58046e-06 0)
(2.32393e-08 -2.58481e-06 0)
(2.3139e-08 -2.58916e-06 0)
(2.30385e-08 -2.59349e-06 0)
(2.29377e-08 -2.59782e-06 0)
(2.28367e-08 -2.60214e-06 0)
(2.27354e-08 -2.60645e-06 0)
(2.26339e-08 -2.61075e-06 0)
(2.25321e-08 -2.61504e-06 0)
(2.243e-08 -2.61933e-06 0)
(2.23277e-08 -2.6236e-06 0)
(2.22251e-08 -2.62786e-06 0)
(2.21223e-08 -2.63212e-06 0)
(2.20192e-08 -2.63636e-06 0)
(2.19159e-08 -2.6406e-06 0)
(2.18124e-08 -2.64482e-06 0)
(2.17086e-08 -2.64904e-06 0)
(2.16045e-08 -2.65324e-06 0)
(2.15003e-08 -2.65743e-06 0)
(2.13957e-08 -2.66162e-06 0)
(2.1291e-08 -2.66579e-06 0)
(2.1186e-08 -2.66995e-06 0)
(2.10807e-08 -2.6741e-06 0)
(2.09753e-08 -2.67824e-06 0)
(2.08696e-08 -2.68237e-06 0)
(2.07636e-08 -2.68649e-06 0)
(2.06575e-08 -2.6906e-06 0)
(2.05511e-08 -2.69469e-06 0)
(2.04445e-08 -2.69878e-06 0)
(2.03376e-08 -2.70285e-06 0)
(2.02306e-08 -2.70691e-06 0)
(2.01233e-08 -2.71095e-06 0)
(2.00158e-08 -2.71499e-06 0)
(1.99081e-08 -2.71901e-06 0)
(1.98002e-08 -2.72302e-06 0)
(1.9692e-08 -2.72702e-06 0)
(1.95837e-08 -2.73101e-06 0)
(1.94751e-08 -2.73498e-06 0)
(1.93664e-08 -2.73894e-06 0)
(1.92574e-08 -2.74289e-06 0)
(1.91483e-08 -2.74683e-06 0)
(1.90389e-08 -2.75075e-06 0)
(1.89293e-08 -2.75466e-06 0)
(1.88196e-08 -2.75855e-06 0)
(1.87096e-08 -2.76243e-06 0)
(1.85994e-08 -2.7663e-06 0)
(1.84895e-08 -2.77017e-06 0)
(1.83769e-08 -2.77394e-06 0)
(1.82738e-08 -2.77792e-06 0)
(1.8132e-08 -2.78163e-06 0)
(1.79796e-08 -2.78497e-06 0)
(1.78742e-08 -2.78865e-06 0)
(1.77776e-08 -2.79208e-06 0)
(1.76828e-08 -2.79532e-06 0)
(1.75869e-08 -2.79873e-06 0)
(1.74902e-08 -2.80219e-06 0)
(1.73923e-08 -2.80566e-06 0)
(1.72934e-08 -2.80913e-06 0)
(1.71933e-08 -2.81261e-06 0)
(1.70922e-08 -2.81612e-06 0)
(1.69899e-08 -2.81964e-06 0)
(1.68864e-08 -2.82318e-06 0)
(1.67819e-08 -2.82674e-06 0)
(1.66761e-08 -2.83031e-06 0)
(1.65693e-08 -2.8339e-06 0)
(1.64612e-08 -2.8375e-06 0)
(1.6352e-08 -2.84112e-06 0)
(1.62416e-08 -2.84475e-06 0)
(1.613e-08 -2.8484e-06 0)
(1.60173e-08 -2.85206e-06 0)
(1.59033e-08 -2.85574e-06 0)
(1.57882e-08 -2.85943e-06 0)
(1.56718e-08 -2.86313e-06 0)
(1.55542e-08 -2.86685e-06 0)
(1.54354e-08 -2.87057e-06 0)
(1.53154e-08 -2.87431e-06 0)
(1.51942e-08 -2.87806e-06 0)
(1.50717e-08 -2.88182e-06 0)
(1.4948e-08 -2.88559e-06 0)
(1.48231e-08 -2.88937e-06 0)
(1.46969e-08 -2.89315e-06 0)
(1.45695e-08 -2.89695e-06 0)
(1.44408e-08 -2.90075e-06 0)
(1.43109e-08 -2.90456e-06 0)
(1.41798e-08 -2.90838e-06 0)
(1.40473e-08 -2.9122e-06 0)
(1.39136e-08 -2.91603e-06 0)
(1.37787e-08 -2.91986e-06 0)
(1.36425e-08 -2.92369e-06 0)
(1.3505e-08 -2.92753e-06 0)
(1.33663e-08 -2.93137e-06 0)
(1.32263e-08 -2.93521e-06 0)
(1.3085e-08 -2.93905e-06 0)
(1.29424e-08 -2.9429e-06 0)
(1.27986e-08 -2.94674e-06 0)
(1.26536e-08 -2.95058e-06 0)
(1.25072e-08 -2.95441e-06 0)
(1.23596e-08 -2.95824e-06 0)
(1.22108e-08 -2.96207e-06 0)
(1.20607e-08 -2.96589e-06 0)
(1.19093e-08 -2.96971e-06 0)
(1.17567e-08 -2.97352e-06 0)
(1.16028e-08 -2.97732e-06 0)
(1.14477e-08 -2.98111e-06 0)
(1.12914e-08 -2.98489e-06 0)
(1.11338e-08 -2.98865e-06 0)
(1.0975e-08 -2.99241e-06 0)
(1.08149e-08 -2.99615e-06 0)
(1.06537e-08 -2.99988e-06 0)
(1.04913e-08 -3.00358e-06 0)
(1.03276e-08 -3.00728e-06 0)
(1.01628e-08 -3.01095e-06 0)
(9.99678e-09 -3.0146e-06 0)
(9.82961e-09 -3.01823e-06 0)
(9.66129e-09 -3.02184e-06 0)
(9.49182e-09 -3.02542e-06 0)
(9.32122e-09 -3.02898e-06 0)
(9.1495e-09 -3.03251e-06 0)
(8.97669e-09 -3.03601e-06 0)
(8.80278e-09 -3.03949e-06 0)
(8.62781e-09 -3.04293e-06 0)
(8.45177e-09 -3.04634e-06 0)
(8.27471e-09 -3.04971e-06 0)
(8.09662e-09 -3.05305e-06 0)
(7.91753e-09 -3.05635e-06 0)
(7.73746e-09 -3.05961e-06 0)
(7.55644e-09 -3.06283e-06 0)
(7.37448e-09 -3.06601e-06 0)
(7.19161e-09 -3.06915e-06 0)
(7.00784e-09 -3.07223e-06 0)
(6.82322e-09 -3.07527e-06 0)
(6.63775e-09 -3.07826e-06 0)
(6.45148e-09 -3.0812e-06 0)
(6.26442e-09 -3.08409e-06 0)
(6.07661e-09 -3.08692e-06 0)
(5.88806e-09 -3.08969e-06 0)
(5.69884e-09 -3.09241e-06 0)
(5.50894e-09 -3.09506e-06 0)
(5.31843e-09 -3.09766e-06 0)
(5.12731e-09 -3.10018e-06 0)
(4.93564e-09 -3.10265e-06 0)
(4.74345e-09 -3.10504e-06 0)
(4.55078e-09 -3.10736e-06 0)
(4.35766e-09 -3.10961e-06 0)
(4.16415e-09 -3.11179e-06 0)
(3.97026e-09 -3.11388e-06 0)
(3.77606e-09 -3.1159e-06 0)
(3.58158e-09 -3.11784e-06 0)
(3.38687e-09 -3.11969e-06 0)
(3.19197e-09 -3.12146e-06 0)
(2.99693e-09 -3.12314e-06 0)
(2.8018e-09 -3.12473e-06 0)
(2.60664e-09 -3.12624e-06 0)
(2.41147e-09 -3.12764e-06 0)
(2.21637e-09 -3.12895e-06 0)
(2.02139e-09 -3.13016e-06 0)
(1.82656e-09 -3.13127e-06 0)
(1.63196e-09 -3.13228e-06 0)
(1.43764e-09 -3.13318e-06 0)
(1.24365e-09 -3.13397e-06 0)
(1.05005e-09 -3.13466e-06 0)
(8.56902e-10 -3.13523e-06 0)
(6.64264e-10 -3.13569e-06 0)
(4.72196e-10 -3.13603e-06 0)
(2.80761e-10 -3.13626e-06 0)
(9.00192e-11 -3.13636e-06 0)
(-9.99645e-11 -3.13635e-06 0)
(-2.89127e-10 -3.1362e-06 0)
(-4.77403e-10 -3.13593e-06 0)
(-6.64728e-10 -3.13553e-06 0)
(-8.51037e-10 -3.135e-06 0)
(-1.03626e-09 -3.13433e-06 0)
(-1.22033e-09 -3.13354e-06 0)
(-1.40319e-09 -3.1326e-06 0)
(-1.58476e-09 -3.13152e-06 0)
(-1.76497e-09 -3.1303e-06 0)
(-1.94377e-09 -3.12894e-06 0)
(-2.12107e-09 -3.12743e-06 0)
(-2.29681e-09 -3.12578e-06 0)
(-2.47091e-09 -3.12398e-06 0)
(-2.64332e-09 -3.12203e-06 0)
(-2.81396e-09 -3.11992e-06 0)
(-2.98275e-09 -3.11766e-06 0)
(-3.14963e-09 -3.11524e-06 0)
(-3.31454e-09 -3.11267e-06 0)
(-3.47738e-09 -3.10993e-06 0)
(-3.63811e-09 -3.10704e-06 0)
(-3.79664e-09 -3.10399e-06 0)
(-3.95291e-09 -3.10077e-06 0)
(-4.10683e-09 -3.09739e-06 0)
(-4.25836e-09 -3.09384e-06 0)
(-4.4074e-09 -3.09012e-06 0)
(-4.55391e-09 -3.08625e-06 0)
(-4.69779e-09 -3.08219e-06 0)
(-4.83899e-09 -3.07797e-06 0)
(-4.97743e-09 -3.07358e-06 0)
(-5.11306e-09 -3.06902e-06 0)
(-5.24579e-09 -3.06428e-06 0)
(-5.37558e-09 -3.05938e-06 0)
(-5.50233e-09 -3.0543e-06 0)
(-5.62602e-09 -3.04905e-06 0)
(-5.74655e-09 -3.04362e-06 0)
(-5.8639e-09 -3.03803e-06 0)
(-5.97796e-09 -3.03226e-06 0)
(-6.08874e-09 -3.02632e-06 0)
(-6.19614e-09 -3.0202e-06 0)
(-6.30014e-09 -3.01391e-06 0)
(-6.40067e-09 -3.00745e-06 0)
(-6.49773e-09 -3.00082e-06 0)
(-6.59123e-09 -2.99401e-06 0)
(-6.68118e-09 -2.98705e-06 0)
(-6.76751e-09 -2.9799e-06 0)
(-6.85025e-09 -2.9726e-06 0)
(-6.9293e-09 -2.96512e-06 0)
(-7.00471e-09 -2.95748e-06 0)
(-7.07641e-09 -2.94967e-06 0)
(-7.14443e-09 -2.94171e-06 0)
(-7.20869e-09 -2.93357e-06 0)
(-7.26927e-09 -2.92529e-06 0)
(-7.32607e-09 -2.91684e-06 0)
(-7.37916e-09 -2.90825e-06 0)
(-7.42846e-09 -2.89948e-06 0)
(-7.47402e-09 -2.89058e-06 0)
(-7.51577e-09 -2.88152e-06 0)
(-7.55375e-09 -2.87233e-06 0)
(-7.58787e-09 -2.86297e-06 0)
(-7.61812e-09 -2.85349e-06 0)
(-7.64462e-09 -2.84383e-06 0)
(-7.66696e-09 -2.83415e-06 0)
(-7.68968e-09 -2.82403e-06 0)
(-7.6983e-09 -2.81414e-06 0)
(-7.68906e-09 -2.80315e-06 0)
(-7.69021e-09 -2.7904e-06 0)
(-7.6965e-09 -2.77788e-06 0)
(-7.69512e-09 -2.76555e-06 0)
(-7.68961e-09 -2.75309e-06 0)
(-7.67968e-09 -2.74063e-06 0)
(-7.66524e-09 -2.72818e-06 0)
(-7.6466e-09 -2.71579e-06 0)
(-7.62381e-09 -2.70342e-06 0)
(-7.59717e-09 -2.6911e-06 0)
(-7.56674e-09 -2.67881e-06 0)
(-7.53281e-09 -2.66659e-06 0)
(-7.49543e-09 -2.65441e-06 0)
(-7.45489e-09 -2.64231e-06 0)
(-7.41125e-09 -2.63026e-06 0)
(-7.36477e-09 -2.61831e-06 0)
(-7.31548e-09 -2.60641e-06 0)
(-7.26366e-09 -2.59461e-06 0)
(-7.20932e-09 -2.58288e-06 0)
(-7.1527e-09 -2.57126e-06 0)
(-7.09381e-09 -2.55971e-06 0)
(-7.03288e-09 -2.54829e-06 0)
(-6.96989e-09 -2.53694e-06 0)
(-6.90507e-09 -2.52571e-06 0)
(-6.83839e-09 -2.51457e-06 0)
(-6.77006e-09 -2.50356e-06 0)
(-6.70004e-09 -2.49264e-06 0)
(-6.62852e-09 -2.48186e-06 0)
(-6.55547e-09 -2.47118e-06 0)
(-6.48106e-09 -2.46063e-06 0)
(-6.40525e-09 -2.45018e-06 0)
(-6.32821e-09 -2.43988e-06 0)
(-6.24988e-09 -2.42969e-06 0)
(-6.17044e-09 -2.41964e-06 0)
(-6.08982e-09 -2.40971e-06 0)
(-6.00817e-09 -2.39992e-06 0)
(-5.92545e-09 -2.39025e-06 0)
(-5.8418e-09 -2.38073e-06 0)
(-5.75716e-09 -2.37133e-06 0)
(-5.67166e-09 -2.36208e-06 0)
(-5.58526e-09 -2.35296e-06 0)
(-5.49807e-09 -2.344e-06 0)
(-5.41004e-09 -2.33515e-06 0)
(-5.32129e-09 -2.32648e-06 0)
(-5.23177e-09 -2.31792e-06 0)
(-5.14158e-09 -2.30953e-06 0)
(-5.05067e-09 -2.30127e-06 0)
(-4.95914e-09 -2.29318e-06 0)
(-4.86693e-09 -2.28521e-06 0)
(-4.77414e-09 -2.27741e-06 0)
(-4.68071e-09 -2.26975e-06 0)
(-4.58674e-09 -2.26226e-06 0)
(-4.49216e-09 -2.2549e-06 0)
(-4.39707e-09 -2.24771e-06 0)
(-4.3014e-09 -2.24066e-06 0)
(-4.20523e-09 -2.23378e-06 0)
(-4.10851e-09 -2.22704e-06 0)
(-4.01131e-09 -2.22047e-06 0)
(-3.91358e-09 -2.21405e-06 0)
(-3.8154e-09 -2.2078e-06 0)
(-3.7167e-09 -2.20169e-06 0)
(-3.61756e-09 -2.19576e-06 0)
(-3.51792e-09 -2.18997e-06 0)
(-3.41786e-09 -2.18437e-06 0)
(-3.31733e-09 -2.1789e-06 0)
(-3.21638e-09 -2.17362e-06 0)
(-3.11498e-09 -2.16849e-06 0)
(-3.01319e-09 -2.16353e-06 0)
(-2.91096e-09 -2.15872e-06 0)
(-2.80835e-09 -2.1541e-06 0)
(-2.70533e-09 -2.14963e-06 0)
(-2.60194e-09 -2.14533e-06 0)
(-2.49816e-09 -2.1412e-06 0)
(-2.39401e-09 -2.13724e-06 0)
(-2.2895e-09 -2.13344e-06 0)
(-2.18463e-09 -2.12982e-06 0)
(-2.07939e-09 -2.12636e-06 0)
(-1.97381e-09 -2.12307e-06 0)
(-1.86787e-09 -2.11996e-06 0)
(-1.76157e-09 -2.11702e-06 0)
(-1.65492e-09 -2.11424e-06 0)
(-1.54793e-09 -2.11165e-06 0)
(-1.44059e-09 -2.10922e-06 0)
(-1.33294e-09 -2.10697e-06 0)
(-1.22503e-09 -2.10489e-06 0)
(-1.11693e-09 -2.103e-06 0)
(-1.00878e-09 -2.10123e-06 0)
(-9.00815e-10 -2.09983e-06 0)
(-7.93205e-10 -2.09797e-06 0)
(-6.86695e-10 -2.09836e-06 0)
(-5.7991e-10 -2.09189e-06 0)
(-4.78018e-10 -2.10803e-06 0)
(-3.58556e-10 -2.04428e-06 0)
(-2.98446e-10 -2.21163e-06 0)
(-1.54943e-10 -1.93127e-06 0)
)
;
    }
    bottomWall
    {
        type            calculated;
        value           nonuniform List<vector> 
449
(
(-52.9394 -0.958383 0)
(-34.9025 -0.00281179 0)
(-34.4937 -0.000260408 0)
(-33.1105 -0.000368538 0)
(-31.9708 -0.00031787 0)
(-30.9307 -0.000285436 0)
(-30.0089 -0.000251853 0)
(-29.1954 -0.000221482 0)
(-28.4796 -0.000194487 0)
(-27.8501 -0.000170954 0)
(-27.2949 -0.000151127 0)
(-26.8005 -0.000135013 0)
(-26.3549 -0.000122162 0)
(-25.9478 -0.00011185 0)
(-25.5722 -0.000103312 0)
(-25.223 -9.60622e-05 0)
(-24.8966 -8.97741e-05 0)
(-24.5901 -8.42631e-05 0)
(-24.3011 -7.93564e-05 0)
(-24.028 -7.49164e-05 0)
(-23.7692 -7.08904e-05 0)
(-23.5235 -6.72003e-05 0)
(-23.2899 -6.37974e-05 0)
(-23.0675 -6.06836e-05 0)
(-22.8552 -5.78023e-05 0)
(-22.6524 -5.51011e-05 0)
(-22.4586 -5.2601e-05 0)
(-22.273 -5.02689e-05 0)
(-22.0952 -4.80968e-05 0)
(-21.9245 -4.60979e-05 0)
(-21.7604 -4.42139e-05 0)
(-21.6026 -4.2417e-05 0)
(-21.4509 -4.07327e-05 0)
(-21.3048 -3.91489e-05 0)
(-21.164 -3.76759e-05 0)
(-21.028 -3.63124e-05 0)
(-20.8966 -3.49915e-05 0)
(-20.7698 -3.37641e-05 0)
(-20.6469 -3.25825e-05 0)
(-20.5283 -3.14844e-05 0)
(-20.413 -3.04202e-05 0)
(-20.3018 -2.94201e-05 0)
(-20.1934 -2.84667e-05 0)
(-20.0888 -2.75768e-05 0)
(-19.9866 -2.67137e-05 0)
(-19.888 -2.59056e-05 0)
(-19.7914 -2.51283e-05 0)
(-19.6982 -2.43895e-05 0)
(-19.6068 -2.3688e-05 0)
(-19.5185 -2.301e-05 0)
(-19.4318 -2.23548e-05 0)
(-19.3482 -2.17204e-05 0)
(-19.2659 -2.11497e-05 0)
(-19.1862 -2.05778e-05 0)
(-19.108 -2.00335e-05 0)
(-19.0321 -1.95019e-05 0)
(-18.9576 -1.90103e-05 0)
(-18.8852 -1.85379e-05 0)
(-18.8141 -1.80767e-05 0)
(-18.7449 -1.76359e-05 0)
(-18.6768 -1.72114e-05 0)
(-18.6106 -1.68026e-05 0)
(-18.5454 -1.64204e-05 0)
(-18.482 -1.60405e-05 0)
(-18.4195 -1.56599e-05 0)
(-18.3587 -1.52949e-05 0)
(-18.2988 -1.49574e-05 0)
(-18.2404 -1.46265e-05 0)
(-18.1828 -1.43032e-05 0)
(-18.1267 -1.39992e-05 0)
(-18.0713 -1.37199e-05 0)
(-18.0172 -1.34378e-05 0)
(-17.9638 -1.31472e-05 0)
(-17.9117 -1.28755e-05 0)
(-17.8602 -1.26198e-05 0)
(-17.81 -1.23673e-05 0)
(-17.7603 -1.2132e-05 0)
(-17.7118 -1.19016e-05 0)
(-17.6637 -1.16838e-05 0)
(-17.6167 -1.14526e-05 0)
(-17.5704 -1.12225e-05 0)
(-17.525 -1.10033e-05 0)
(-17.4802 -1.08004e-05 0)
(-17.4363 -1.06144e-05 0)
(-17.3929 -1.04312e-05 0)
(-17.3503 -1.02496e-05 0)
(-17.3081 -1.00506e-05 0)
(-17.267 -9.85224e-06 0)
(-17.2263 -9.68691e-06 0)
(-17.1863 -9.52898e-06 0)
(-17.1467 -9.3775e-06 0)
(-17.1079 -9.22381e-06 0)
(-17.0694 -9.06593e-06 0)
(-17.0317 -8.91749e-06 0)
(-16.9942 -8.77047e-06 0)
(-16.9576 -8.61516e-06 0)
(-16.9213 -8.46789e-06 0)
(-16.8857 -8.33547e-06 0)
(-16.8504 -8.21005e-06 0)
(-16.8157 -8.08815e-06 0)
(-16.7813 -7.95861e-06 0)
(-16.7476 -7.83365e-06 0)
(-16.7141 -7.7203e-06 0)
(-16.6811 -7.60442e-06 0)
(-16.6485 -7.47848e-06 0)
(-16.6165 -7.36299e-06 0)
(-16.5847 -7.24882e-06 0)
(-16.5535 -7.12951e-06 0)
(-16.5226 -7.0377e-06 0)
(-16.4921 -6.9356e-06 0)
(-16.4619 -6.85764e-06 0)
(-16.432 -6.76571e-06 0)
(-16.4024 -6.67443e-06 0)
(-16.3732 -6.58097e-06 0)
(-16.3443 -6.48551e-06 0)
(-16.3158 -6.37828e-06 0)
(-16.2878 -6.27596e-06 0)
(-16.26 -6.19525e-06 0)
(-16.2325 -6.11695e-06 0)
(-16.2053 -6.02414e-06 0)
(-16.1786 -5.93591e-06 0)
(-16.152 -5.87125e-06 0)
(-16.1258 -5.80071e-06 0)
(-16.0997 -5.73495e-06 0)
(-16.0739 -5.67051e-06 0)
(-16.0483 -5.60188e-06 0)
(-16.023 -5.52288e-06 0)
(-15.9981 -5.4455e-06 0)
(-15.9734 -5.36394e-06 0)
(-15.949 -5.2858e-06 0)
(-15.9249 -5.21777e-06 0)
(-15.9011 -5.15711e-06 0)
(-15.8774 -5.10908e-06 0)
(-15.8539 -5.05079e-06 0)
(-15.8307 -4.9934e-06 0)
(-15.8076 -4.945e-06 0)
(-15.7847 -4.89068e-06 0)
(-15.762 -4.83309e-06 0)
(-15.7395 -4.77249e-06 0)
(-15.7173 -4.70919e-06 0)
(-15.6953 -4.6572e-06 0)
(-15.6735 -4.58668e-06 0)
(-15.6521 -4.522e-06 0)
(-15.6308 -4.45542e-06 0)
(-15.6099 -4.40048e-06 0)
(-15.589 -4.34229e-06 0)
(-15.5686 -4.29556e-06 0)
(-15.548 -4.25689e-06 0)
(-15.5279 -4.21038e-06 0)
(-15.5076 -4.16571e-06 0)
(-15.4878 -4.12301e-06 0)
(-15.4679 -4.0914e-06 0)
(-15.4483 -4.03729e-06 0)
(-15.4289 -4.00376e-06 0)
(-15.4095 -3.95689e-06 0)
(-15.3904 -3.90668e-06 0)
(-15.3714 -3.85741e-06 0)
(-15.3527 -3.81605e-06 0)
(-15.3341 -3.76929e-06 0)
(-15.3158 -3.71743e-06 0)
(-15.2975 -3.68488e-06 0)
(-15.2794 -3.64596e-06 0)
(-15.2615 -3.6123e-06 0)
(-15.2437 -3.59246e-06 0)
(-15.2258 -3.55908e-06 0)
(-15.2082 -3.50529e-06 0)
(-15.1909 -3.46273e-06 0)
(-15.1736 -3.42607e-06 0)
(-15.1565 -3.38038e-06 0)
(-15.1397 -3.34061e-06 0)
(-15.1229 -3.30168e-06 0)
(-15.1064 -3.26189e-06 0)
(-15.0899 -3.24598e-06 0)
(-15.0744 -3.23445e-06 0)
(-15.0597 -3.21354e-06 0)
(-15.045 -3.18785e-06 0)
(-15.0303 -3.15307e-06 0)
(-15.0156 -3.12973e-06 0)
(-15.0008 -3.10138e-06 0)
(-14.9861 -3.05205e-06 0)
(-14.9714 -3.02149e-06 0)
(-14.9566 -2.99282e-06 0)
(-14.9419 -2.95558e-06 0)
(-14.9272 -2.93067e-06 0)
(-14.9125 -2.90759e-06 0)
(-14.8976 -2.87412e-06 0)
(-14.8829 -2.83e-06 0)
(-14.8682 -2.78746e-06 0)
(-14.8536 -2.75887e-06 0)
(-14.839 -2.74171e-06 0)
(-14.8242 -2.72663e-06 0)
(-14.8094 -2.68699e-06 0)
(-14.7947 -2.66577e-06 0)
(-14.7798 -2.65088e-06 0)
(-14.765 -2.61459e-06 0)
(-14.7502 -2.57686e-06 0)
(-14.7355 -2.54094e-06 0)
(-14.7208 -2.51462e-06 0)
(-14.7061 -2.48257e-06 0)
(-14.6914 -2.45719e-06 0)
(-14.6767 -2.43084e-06 0)
(-14.662 -2.40369e-06 0)
(-14.6474 -2.37954e-06 0)
(-14.6327 -2.36177e-06 0)
(-14.6179 -2.3382e-06 0)
(-14.6031 -2.3187e-06 0)
(-14.5883 -2.31333e-06 0)
(-14.5733 -2.29908e-06 0)
(-14.5583 -2.27875e-06 0)
(-14.5433 -2.25602e-06 0)
(-14.5283 -2.23299e-06 0)
(-14.5132 -2.20392e-06 0)
(-14.4983 -2.16201e-06 0)
(-14.4835 -2.12589e-06 0)
(-14.4687 -2.10337e-06 0)
(-14.4539 -2.07625e-06 0)
(-14.4392 -2.04493e-06 0)
(-14.4245 -2.01172e-06 0)
(-14.41 -1.97891e-06 0)
(-14.3955 -1.96211e-06 0)
(-14.3809 -1.94224e-06 0)
(-14.3664 -1.92554e-06 0)
(-14.3517 -1.91183e-06 0)
(-14.3371 -1.8888e-06 0)
(-14.3224 -1.87567e-06 0)
(-14.3077 -1.84768e-06 0)
(-14.2932 -1.82327e-06 0)
(-14.2785 -1.81423e-06 0)
(-14.2638 -1.77874e-06 0)
(-14.2494 -1.75595e-06 0)
(-14.2348 -1.7385e-06 0)
(-14.2203 -1.71022e-06 0)
(-14.2059 -1.7002e-06 0)
(-14.1913 -1.68268e-06 0)
(-14.1768 -1.67029e-06 0)
(-14.1621 -1.66389e-06 0)
(-14.1475 -1.65734e-06 0)
(-14.1326 -1.64262e-06 0)
(-14.1178 -1.61134e-06 0)
(-14.1032 -1.58522e-06 0)
(-14.0886 -1.56066e-06 0)
(-14.0741 -1.53055e-06 0)
(-14.0598 -1.50776e-06 0)
(-14.0455 -1.49397e-06 0)
(-14.0311 -1.47216e-06 0)
(-14.0168 -1.45364e-06 0)
(-14.0025 -1.44783e-06 0)
(-13.9881 -1.43243e-06 0)
(-13.9738 -1.41172e-06 0)
(-13.9594 -1.39369e-06 0)
(-13.9452 -1.37335e-06 0)
(-13.9309 -1.36342e-06 0)
(-13.9166 -1.34904e-06 0)
(-13.9023 -1.32751e-06 0)
(-13.8881 -1.30883e-06 0)
(-13.8739 -1.29802e-06 0)
(-13.8597 -1.28938e-06 0)
(-13.8454 -1.26968e-06 0)
(-13.8313 -1.25491e-06 0)
(-13.817 -1.24366e-06 0)
(-13.8028 -1.22221e-06 0)
(-13.7888 -1.2093e-06 0)
(-13.7746 -1.19971e-06 0)
(-13.7604 -1.19238e-06 0)
(-13.7461 -1.17669e-06 0)
(-13.732 -1.16089e-06 0)
(-13.7177 -1.14372e-06 0)
(-13.7038 -1.11973e-06 0)
(-13.6898 -1.10992e-06 0)
(-13.6758 -1.1068e-06 0)
(-13.6616 -1.10171e-06 0)
(-13.6474 -1.08636e-06 0)
(-13.6333 -1.06373e-06 0)
(-13.6194 -1.04486e-06 0)
(-13.6055 -1.03942e-06 0)
(-13.5915 -1.02638e-06 0)
(-13.5776 -1.01264e-06 0)
(-13.5637 -1.00396e-06 0)
(-13.5498 -9.86063e-07 0)
(-13.536 -9.66369e-07 0)
(-13.5223 -9.46992e-07 0)
(-13.5088 -9.37244e-07 0)
(-13.4952 -9.32908e-07 0)
(-13.4815 -9.18393e-07 0)
(-13.468 -9.06725e-07 0)
(-13.4543 -8.986e-07 0)
(-13.4407 -9.01893e-07 0)
(-13.4267 -8.93847e-07 0)
(-13.4131 -8.76109e-07 0)
(-13.3993 -8.57559e-07 0)
(-13.386 -8.41317e-07 0)
(-13.3724 -8.36597e-07 0)
(-13.3589 -8.25922e-07 0)
(-13.3454 -8.12758e-07 0)
(-13.3321 -8.08013e-07 0)
(-13.3184 -7.97471e-07 0)
(-13.3052 -7.78527e-07 0)
(-13.2919 -7.71082e-07 0)
(-13.2786 -7.5278e-07 0)
(-13.2657 -7.39815e-07 0)
(-13.2526 -7.29105e-07 0)
(-13.2397 -7.07515e-07 0)
(-13.2271 -7.04881e-07 0)
(-13.2141 -7.11479e-07 0)
(-13.2009 -7.17565e-07 0)
(-13.1874 -7.08292e-07 0)
(-13.1743 -6.86335e-07 0)
(-13.1613 -6.74885e-07 0)
(-13.1484 -6.64572e-07 0)
(-13.1355 -6.56222e-07 0)
(-13.1226 -6.49367e-07 0)
(-13.1097 -6.36611e-07 0)
(-13.0971 -6.32507e-07 0)
(-13.084 -6.34366e-07 0)
(-13.0711 -6.28311e-07 0)
(-13.058 -6.14654e-07 0)
(-13.0453 -6.03983e-07 0)
(-13.0324 -5.96552e-07 0)
(-13.0198 -5.86406e-07 0)
(-13.0071 -5.75851e-07 0)
(-12.9946 -5.63467e-07 0)
(-12.9822 -5.59971e-07 0)
(-12.9696 -5.56029e-07 0)
(-12.9571 -5.46953e-07 0)
(-12.9446 -5.34589e-07 0)
(-12.9324 -5.24443e-07 0)
(-12.9202 -5.19159e-07 0)
(-12.9079 -5.14364e-07 0)
(-12.8956 -5.09214e-07 0)
(-12.8834 -4.99747e-07 0)
(-12.8713 -4.98303e-07 0)
(-12.8588 -4.96359e-07 0)
(-12.8466 -4.82366e-07 0)
(-12.8345 -4.74115e-07 0)
(-12.8224 -4.74518e-07 0)
(-12.8101 -4.7705e-07 0)
(-12.7976 -4.67311e-07 0)
(-12.7856 -4.56144e-07 0)
(-12.7734 -4.4925e-07 0)
(-12.7614 -4.38082e-07 0)
(-12.7496 -4.29443e-07 0)
(-12.7379 -4.26041e-07 0)
(-12.726 -4.20975e-07 0)
(-12.7143 -4.15507e-07 0)
(-12.7025 -4.09731e-07 0)
(-12.6908 -3.99787e-07 0)
(-12.6793 -3.9318e-07 0)
(-12.6678 -3.8939e-07 0)
(-12.6563 -3.81766e-07 0)
(-12.645 -3.76563e-07 0)
(-12.6335 -3.73436e-07 0)
(-12.6221 -3.67635e-07 0)
(-12.6108 -3.66081e-07 0)
(-12.5993 -3.60675e-07 0)
(-12.5867 -3.51065e-07 0)
(-12.5732 -3.45262e-07 0)
(-12.5598 -3.39324e-07 0)
(-12.5467 -3.33416e-07 0)
(-12.5337 -3.28942e-07 0)
(-12.521 -3.23096e-07 0)
(-12.5085 -3.19427e-07 0)
(-12.496 -3.15998e-07 0)
(-12.4838 -3.08457e-07 0)
(-12.4719 -3.06066e-07 0)
(-12.4599 -3.05691e-07 0)
(-12.4481 -3.02514e-07 0)
(-12.4363 -2.97111e-07 0)
(-12.4249 -2.92181e-07 0)
(-12.4135 -2.84238e-07 0)
(-12.4027 -2.77233e-07 0)
(-12.3918 -2.75313e-07 0)
(-12.3812 -2.71079e-07 0)
(-12.3707 -2.70034e-07 0)
(-12.3601 -2.64673e-07 0)
(-12.35 -2.55797e-07 0)
(-12.3402 -2.53663e-07 0)
(-12.3302 -2.57132e-07 0)
(-12.3201 -2.53926e-07 0)
(-12.3104 -2.4941e-07 0)
(-12.3006 -2.40533e-07 0)
(-12.2916 -2.32193e-07 0)
(-12.2825 -2.34131e-07 0)
(-12.2733 -2.28631e-07 0)
(-12.2646 -2.25096e-07 0)
(-12.2558 -2.29105e-07 0)
(-12.2468 -2.28835e-07 0)
(-12.2379 -2.2003e-07 0)
(-12.2296 -2.13252e-07 0)
(-12.2213 -2.07323e-07 0)
(-12.2135 -2.05065e-07 0)
(-12.2053 -2.05496e-07 0)
(-12.1974 -2.05247e-07 0)
(-12.1893 -2.06275e-07 0)
(-12.1813 -2.03363e-07 0)
(-12.1734 -2.02393e-07 0)
(-12.1655 -1.99058e-07 0)
(-12.1578 -1.94629e-07 0)
(-12.1503 -1.93762e-07 0)
(-12.1427 -1.89287e-07 0)
(-12.1355 -1.88157e-07 0)
(-12.128 -1.89307e-07 0)
(-12.1207 -1.86852e-07 0)
(-12.1134 -1.85359e-07 0)
(-12.1062 -1.82484e-07 0)
(-12.0992 -1.78664e-07 0)
(-12.0923 -1.71569e-07 0)
(-12.0858 -1.72117e-07 0)
(-12.0789 -1.6952e-07 0)
(-12.0726 -1.66674e-07 0)
(-12.0659 -1.68127e-07 0)
(-12.0595 -1.67865e-07 0)
(-12.0528 -1.68641e-07 0)
(-12.0463 -1.68338e-07 0)
(-12.0396 -1.66018e-07 0)
(-12.0333 -1.61183e-07 0)
(-12.027 -1.59129e-07 0)
(-12.0209 -1.57622e-07 0)
(-12.0147 -1.5497e-07 0)
(-12.0088 -1.52332e-07 0)
(-12.0028 -1.51751e-07 0)
(-11.997 -1.53345e-07 0)
(-11.9909 -1.45812e-07 0)
(-11.9856 -1.38744e-07 0)
(-11.98 -1.4252e-07 0)
(-11.9744 -1.40794e-07 0)
(-11.9691 -1.39078e-07 0)
(-11.9636 -1.39423e-07 0)
(-11.9582 -1.37236e-07 0)
(-11.9529 -1.38893e-07 0)
(-11.9473 -1.36489e-07 0)
(-11.9422 -1.34942e-07 0)
(-11.9368 -1.35144e-07 0)
(-11.9317 -1.33147e-07 0)
(-11.9264 -1.35056e-07 0)
(-11.9211 -1.31033e-07 0)
(-11.9162 -1.26576e-07 0)
(-11.9113 -1.24763e-07 0)
(-11.9064 -1.22997e-07 0)
(-11.9017 -1.27339e-07 0)
(-11.8965 -1.29796e-07 0)
(-11.8915 -1.32133e-07 0)
(-11.8862 -1.33028e-07 0)
(-11.8811 -1.34775e-07 0)
(-11.8756 -1.41448e-07 0)
(-11.87 -1.24793e-07 0)
(-11.8659 -1.50345e-07 0)
(-11.8583 -1.05483e-07 0)
(-11.8578 -1.35714e-07 0)
(-11.8475 -1.34337e-07 0)
)
;
    }
    symmetry
    {
        type            symmetryPlane;
    }
    frontAndBack
    {
        type            empty;
    }
}


// ************************************************************************* //
