/*--------------------------------*- C++ -*----------------------------------*\
| =========                 |                                                 |
| \\      /  F ield         | OpenFOAM: The Open Source CFD Toolbox           |
|  \\    /   O peration     | Version:  v2012                                 |
|   \\  /    A nd           | Website:  www.openfoam.com                      |
|    \\/     M anipulation  |                                                 |
\*---------------------------------------------------------------------------*/
FoamFile
{
    version     2.0;
    format      ascii;
    class       volScalarField;
    location    "19";
    object      yPlus;
}
// * * * * * * * * * * * * * * * * * * * * * * * * * * * * * * * * * * * * * //

dimensions      [0 0 0 0 0 0 0];


internalField   uniform 0;

boundaryField
{
    inlet
    {
        type            calculated;
        value           uniform 0;
    }
    outlet
    {
        type            calculated;
        value           uniform 0;
    }
    topWall
    {
        type            calculated;
        value           nonuniform List<scalar> 
545
(
0.124538
0.215066
0.275968
0.324329
0.365253
0.40104
0.432984
0.461902
0.488347
0.512718
0.535314
0.556368
0.576062
0.594546
0.611943
0.628359
0.643879
0.658581
0.67253
0.685784
0.698394
0.710406
0.72186
0.732792
0.743236
0.753221
0.762776
0.771924
0.780688
0.789091
0.797151
0.804887
0.812315
0.81945
0.826309
0.832903
0.839246
0.845349
0.851224
0.856882
0.862331
0.867582
0.872643
0.877522
0.882228
0.886767
0.891147
0.895374
0.899455
0.903395
0.9072
0.910876
0.914427
0.91786
0.921177
0.924384
0.927485
0.930484
0.933384
0.93619
0.938905
0.941532
0.944074
0.946535
0.948918
0.951225
0.953459
0.955622
0.957717
0.959747
0.961714
0.963619
0.965441
0.967202
0.968947
0.970678
0.972393
0.974093
0.975778
0.977449
0.979105
0.980747
0.982374
0.983988
0.985587
0.987173
0.988745
0.990303
0.991848
0.99338
0.994899
0.996405
0.997898
0.999378
1.00085
1.0023
1.00361
1.00477
1.00594
1.0071
1.00827
1.00943
1.01059
1.01175
1.01292
1.01407
1.01523
1.01639
1.01755
1.0187
1.01986
1.02101
1.02216
1.02331
1.02446
1.02561
1.02676
1.02791
1.02905
1.0302
1.03134
1.03248
1.03363
1.03477
1.0359
1.03704
1.03818
1.03931
1.04045
1.04158
1.04271
1.04384
1.04497
1.0461
1.04723
1.04835
1.04948
1.0506
1.05172
1.05284
1.05396
1.05508
1.05619
1.05731
1.05842
1.05953
1.06064
1.06175
1.06286
1.06396
1.06507
1.06617
1.06727
1.06837
1.06947
1.07056
1.07166
1.07275
1.07384
1.07493
1.07602
1.0771
1.07819
1.07927
1.08035
1.08143
1.08251
1.08359
1.08466
1.08573
1.0868
1.08787
1.08894
1.09
1.09107
1.09213
1.09319
1.09424
1.0953
1.09635
1.0974
1.09845
1.0995
1.10055
1.10159
1.10263
1.10367
1.10471
1.10574
1.10678
1.10781
1.10884
1.10986
1.11089
1.11191
1.11293
1.11395
1.11496
1.11598
1.11699
1.118
1.119
1.12001
1.12101
1.12201
1.123
1.124
1.12499
1.12598
1.12697
1.12795
1.12893
1.12991
1.13089
1.13186
1.13284
1.13381
1.13477
1.13574
1.1367
1.13766
1.13861
1.13957
1.14052
1.14146
1.14241
1.14335
1.14429
1.14523
1.14616
1.14709
1.14802
1.14895
1.14987
1.15079
1.15171
1.15262
1.15353
1.15444
1.15534
1.15625
1.15715
1.15804
1.15893
1.15982
1.16071
1.16159
1.16247
1.16335
1.16422
1.16509
1.16596
1.16682
1.16769
1.16854
1.1694
1.17025
1.17109
1.17194
1.17278
1.17362
1.17445
1.17528
1.17611
1.17693
1.17775
1.17857
1.17938
1.18019
1.18095
1.18166
1.18238
1.1831
1.18382
1.18455
1.18528
1.18601
1.18675
1.18749
1.18823
1.18897
1.18972
1.19047
1.19123
1.19199
1.19275
1.19351
1.19428
1.19504
1.19581
1.19659
1.19736
1.19814
1.19892
1.1997
1.20048
1.20126
1.20205
1.20284
1.20363
1.20442
1.20521
1.206
1.20679
1.20758
1.20838
1.20917
1.20997
1.21076
1.21155
1.21235
1.21314
1.21394
1.21473
1.21552
1.21631
1.2171
1.21789
1.21867
1.21946
1.22024
1.22102
1.2218
1.22257
1.22334
1.22411
1.22488
1.22564
1.2264
1.22715
1.2279
1.22865
1.22939
1.23012
1.23085
1.23158
1.2323
1.23301
1.23371
1.23441
1.2351
1.23579
1.23647
1.23714
1.2378
1.23845
1.23909
1.23973
1.24035
1.24096
1.24157
1.24216
1.24274
1.24332
1.24387
1.24442
1.24496
1.24548
1.24599
1.24648
1.24697
1.24743
1.24788
1.24832
1.24874
1.24915
1.24954
1.24991
1.25027
1.2506
1.25092
1.25123
1.25151
1.25177
1.25201
1.25224
1.25244
1.25262
1.25278
1.25292
1.25303
1.25313
1.2532
1.25324
1.25326
1.25326
1.25323
1.25318
1.2531
1.253
1.25287
1.25271
1.25252
1.25231
1.25206
1.25179
1.25149
1.25116
1.2508
1.25041
1.24999
1.24954
1.24906
1.24854
1.248
1.24742
1.2468
1.24616
1.24548
1.24477
1.24402
1.24324
1.24243
1.24158
1.24069
1.23977
1.23882
1.23783
1.2368
1.23574
1.23464
1.23351
1.23233
1.23113
1.22988
1.2286
1.22729
1.22594
1.22455
1.22312
1.22166
1.22016
1.21863
1.21706
1.21545
1.21381
1.21213
1.21042
1.20867
1.20689
1.20507
1.20322
1.20134
1.19942
1.19747
1.19548
1.19346
1.19142
1.18933
1.18722
1.18484
1.18221
1.17956
1.17692
1.17426
1.17161
1.16895
1.16629
1.16363
1.16098
1.15832
1.15568
1.15304
1.15041
1.14778
1.14517
1.14257
1.13998
1.1374
1.13484
1.13229
1.12976
1.12724
1.12474
1.12226
1.1198
1.11736
1.11494
1.11254
1.11016
1.1078
1.10547
1.10316
1.10088
1.09862
1.09638
1.09417
1.09199
1.08983
1.08771
1.08561
1.08354
1.08149
1.07948
1.07749
1.07554
1.07362
1.07173
1.06986
1.06804
1.06624
1.06448
1.06274
1.06105
1.05938
1.05776
1.05616
1.0546
1.05307
1.05159
1.05013
1.04872
1.04733
1.04599
1.04468
1.04342
1.04218
1.04099
1.03983
1.03872
1.03764
1.0366
1.0356
1.03465
1.03373
1.03285
1.03201
1.03121
1.03046
1.02974
1.02907
1.02844
1.02785
1.0273
1.02679
1.02633
1.02591
1.02553
1.02519
1.0249
1.02465
1.02444
1.02427
1.02416
1.02402
)
;
    }
    bottomWall
    {
        type            calculated;
        value           nonuniform List<scalar> 
449
(
0.00274968
0.00482129
0.00539302
0.00534293
0.00526981
0.00517356
0.00507537
0.00498148
0.00489475
0.00481611
0.00474532
0.00468121
0.0046225
0.00456798
0.00451687
0.00446864
0.00442292
0.00437945
0.00433797
0.00429836
0.00426046
0.00422418
0.00418941
0.00415607
0.00412404
0.00409328
0.00406372
0.00403526
0.00400789
0.00398148
0.003956
0.00393142
0.00390769
0.00388477
0.00386262
0.00384117
0.00382038
0.00380026
0.00378071
0.00376181
0.00374339
0.0037256
0.00370821
0.00369142
0.00367495
0.00365907
0.00364345
0.0036284
0.00361356
0.00359926
0.00358515
0.00357156
0.00355813
0.00354515
0.00353235
0.00351996
0.00350775
0.00349589
0.0034842
0.00347285
0.00346164
0.00345076
0.00344
0.00342954
0.00341921
0.00340918
0.00339926
0.0033896
0.00338006
0.00337077
0.00336156
0.00335257
0.00334368
0.00333504
0.00332646
0.0033181
0.00330981
0.00330171
0.00329368
0.00328583
0.00327807
0.00327049
0.00326299
0.00325563
0.00324834
0.00324119
0.0032341
0.00322721
0.00322036
0.00321364
0.00320697
0.00320043
0.00319394
0.00318758
0.00318126
0.00317508
0.00316895
0.00316295
0.00315697
0.00315111
0.00314527
0.00313956
0.00313387
0.0031283
0.00312275
0.00311733
0.00311191
0.00310664
0.00310137
0.00309619
0.00309105
0.00308595
0.00308092
0.00307593
0.00307101
0.00306614
0.00306137
0.00305663
0.00305195
0.00304731
0.00304275
0.00303821
0.00303372
0.00302926
0.00302484
0.00302045
0.00301612
0.00301184
0.0030076
0.00300343
0.00299929
0.00299521
0.00299114
0.0029871
0.0029831
0.00297912
0.00297517
0.00297126
0.00296738
0.00296355
0.00295976
0.00295599
0.00295231
0.00294863
0.00294504
0.00294143
0.00293792
0.00293436
0.00293089
0.00292739
0.00292397
0.00292052
0.00291713
0.00291376
0.0029104
0.00290709
0.00290381
0.00290057
0.00289733
0.00289416
0.002891
0.00288787
0.00288475
0.00288165
0.00287855
0.0028755
0.00287248
0.00286948
0.00286652
0.0028636
0.00286069
0.00285783
0.00285498
0.00285228
0.00284974
0.00284719
0.00284463
0.00284208
0.00283949
0.00283693
0.00283438
0.00283181
0.00282925
0.00282668
0.0028241
0.00282152
0.00281895
0.0028164
0.00281386
0.00281131
0.00280873
0.00280614
0.00280359
0.00280097
0.00279839
0.0027958
0.00279325
0.00279068
0.00278813
0.00278557
0.00278302
0.00278046
0.0027779
0.00277534
0.00277276
0.00277019
0.00276759
0.00276495
0.00276232
0.00275967
0.00275702
0.00275437
0.00275175
0.00274915
0.00274657
0.00274397
0.00274141
0.00273885
0.00273632
0.00273379
0.00273125
0.00272871
0.00272615
0.00272358
0.00272102
0.00271843
0.0027159
0.00271332
0.00271075
0.00270824
0.00270567
0.00270315
0.00270062
0.00269806
0.00269552
0.00269293
0.00269034
0.00268769
0.00268508
0.00268249
0.00267993
0.00267738
0.00267487
0.00267234
0.00266981
0.00266731
0.00266479
0.00266223
0.00265971
0.00265717
0.00265466
0.00265215
0.00264961
0.00264709
0.00264459
0.00264209
0.00263956
0.00263703
0.00263453
0.002632
0.00262949
0.002627
0.00262448
0.00262196
0.00261941
0.00261691
0.00261437
0.0026119
0.00260942
0.00260693
0.00260439
0.00260185
0.00259934
0.00259687
0.00259439
0.00259188
0.00258941
0.0025869
0.00258441
0.00258196
0.00257953
0.00257713
0.00257469
0.00257225
0.00256984
0.0025674
0.00256496
0.00256242
0.00255997
0.00255748
0.00255511
0.00255267
0.00255025
0.00254782
0.00254544
0.00254297
0.0025406
0.00253821
0.00253582
0.00253352
0.00253117
0.00252889
0.00252666
0.00252432
0.00252194
0.00251947
0.00251711
0.00251477
0.00251245
0.00251014
0.00250782
0.0025055
0.00250324
0.00250088
0.00249851
0.00249614
0.00249384
0.0024915
0.00248921
0.00248692
0.00248468
0.00248244
0.00248016
0.00247789
0.00247564
0.00247345
0.00247125
0.00246904
0.00246683
0.00246461
0.00246243
0.00246016
0.00245794
0.00245577
0.00245357
0.00245132
0.00244903
0.00244683
0.00244462
0.00244244
0.0024403
0.00243817
0.002436
0.00243387
0.0024317
0.00242958
0.00242749
0.0024254
0.0024233
0.00242126
0.00241917
0.0024171
0.00241504
0.00241293
0.00241062
0.00240814
0.00240568
0.00240329
0.00240094
0.00239862
0.00239636
0.00239409
0.00239187
0.00238971
0.00238751
0.00238533
0.00238316
0.00238106
0.00237897
0.002377
0.00237502
0.00237307
0.00237114
0.00236919
0.00236734
0.00236554
0.00236371
0.00236183
0.00236005
0.00235824
0.00235662
0.00235496
0.00235327
0.00235169
0.00235005
0.00234836
0.0023467
0.00234517
0.00234363
0.0023422
0.0023407
0.00233925
0.00233775
0.00233628
0.00233483
0.00233337
0.00233198
0.0023306
0.00232922
0.00232791
0.00232653
0.00232518
0.00232383
0.0023225
0.0023212
0.00231993
0.00231874
0.00231746
0.00231631
0.00231508
0.00231389
0.00231265
0.00231145
0.0023102
0.00230904
0.00230787
0.00230673
0.00230559
0.0023045
0.0023034
0.00230231
0.00230118
0.00230022
0.00229921
0.00229818
0.00229718
0.00229616
0.00229516
0.00229418
0.00229315
0.00229222
0.00229121
0.00229027
0.00228929
0.00228831
0.0022874
0.00228648
0.0022856
0.00228472
0.00228376
0.00228284
0.00228184
0.00228092
0.00227987
0.00227888
0.00227804
0.00227674
0.00227644
0.00227472
)
;
    }
    symmetry
    {
        type            symmetryPlane;
    }
    frontAndBack
    {
        type            empty;
    }
}


// ************************************************************************* //
