/*--------------------------------*- C++ -*----------------------------------*\
| =========                 |                                                 |
| \\      /  F ield         | OpenFOAM: The Open Source CFD Toolbox           |
|  \\    /   O peration     | Version:  v2012                                 |
|   \\  /    A nd           | Website:  www.openfoam.com                      |
|    \\/     M anipulation  |                                                 |
\*---------------------------------------------------------------------------*/
FoamFile
{
    version     2.0;
    format      ascii;
    class       volScalarField;
    location    "4";
    object      epsilon;
}
// * * * * * * * * * * * * * * * * * * * * * * * * * * * * * * * * * * * * * //

dimensions      [0 2 -3 0 0 0 0];


internalField   nonuniform List<scalar> 
209825
(
0.815721
0.811429
0.810868
0.810743
0.810688
0.810667
0.810654
0.810647
0.810639
0.810636
0.810631
0.810629
0.810624
0.810627
0.810627
0.810629
0.810628
0.810631
0.810631
0.810634
0.810634
0.810639
0.810639
0.810644
0.810644
0.81065
0.81065
0.810656
0.810656
0.810663
0.810663
0.81067
0.81067
0.810678
0.810678
0.810685
0.810685
0.810693
0.810693
0.810703
0.810703
0.810713
0.810713
0.810723
0.810723
0.810735
0.810735
0.810746
0.810746
0.810759
0.810759
0.810766
0.810766
0.810766
0.810768
0.810768
0.810777
0.810777
0.81079
0.81079
0.81079
0.810785
0.810801
0.810801
0.81081
0.81081
0.810845
0.810845
0.810845
0.810846
0.810858
0.810858
0.810884
0.810884
0.810932
0.810932
0.810968
0.81097
0.811002
0.811002
0.811063
0.811077
0.811158
0.811189
0.811268
0.811405
0.811522
0.811723
0.81202
0.812333
0.813194
0.813556
0.819353
0.818215
1.05123
251.01
0.815708
0.811408
0.810844
0.810718
0.810663
0.810642
0.810628
0.810621
0.810614
0.810611
0.810606
0.810604
0.810599
0.810602
0.810602
0.810603
0.810603
0.810605
0.810605
0.810609
0.810609
0.810614
0.810614
0.810619
0.810619
0.810625
0.810625
0.810631
0.810631
0.810638
0.810638
0.810645
0.810645
0.810652
0.810652
0.81066
0.81066
0.810668
0.810668
0.810677
0.810677
0.810687
0.810687
0.810698
0.810698
0.81071
0.81071
0.810721
0.81072
0.810734
0.810734
0.810741
0.810741
0.810741
0.810743
0.810743
0.810752
0.810751
0.810765
0.810765
0.810765
0.81076
0.810776
0.810775
0.810785
0.810785
0.81082
0.81082
0.81082
0.810821
0.810833
0.810833
0.81086
0.810859
0.810907
0.810907
0.810943
0.810946
0.810978
0.810978
0.811039
0.811053
0.811134
0.811166
0.811244
0.811382
0.811499
0.811701
0.811998
0.812312
0.813175
0.813538
0.819343
0.818204
1.0513
247.487
0.815632
0.811294
0.810722
0.810593
0.810536
0.810515
0.810501
0.810494
0.810486
0.810483
0.810478
0.810476
0.810471
0.810473
0.810473
0.810475
0.810475
0.810477
0.810477
0.810481
0.810481
0.810485
0.810485
0.810491
0.810491
0.810497
0.810497
0.810503
0.810503
0.81051
0.81051
0.810517
0.810517
0.810525
0.810525
0.810532
0.810532
0.81054
0.81054
0.81055
0.81055
0.81056
0.81056
0.81057
0.81057
0.810583
0.810583
0.810593
0.810593
0.810607
0.810607
0.810614
0.810614
0.810614
0.810616
0.810616
0.810625
0.810625
0.810638
0.810638
0.810638
0.810633
0.810649
0.810649
0.810658
0.810658
0.810694
0.810694
0.810694
0.810695
0.810707
0.810707
0.810734
0.810734
0.810782
0.810782
0.810818
0.810821
0.810853
0.810853
0.810915
0.810929
0.811011
0.811043
0.811122
0.811261
0.811379
0.811582
0.811882
0.812198
0.813067
0.813433
0.819251
0.818134
1.05077
243.393
0.815501
0.8111
0.810512
0.810379
0.81032
0.810298
0.810283
0.810275
0.810267
0.810264
0.810259
0.810257
0.810252
0.810254
0.810254
0.810256
0.810255
0.810258
0.810258
0.810261
0.810261
0.810266
0.810266
0.810271
0.810271
0.810278
0.810278
0.810284
0.810284
0.810291
0.810291
0.810299
0.810298
0.810306
0.810306
0.810314
0.810314
0.810322
0.810322
0.810332
0.810332
0.810342
0.810342
0.810352
0.810352
0.810365
0.810365
0.810376
0.810376
0.810389
0.810389
0.810397
0.810397
0.810396
0.810399
0.810398
0.810408
0.810407
0.810422
0.810422
0.810421
0.810416
0.810432
0.810432
0.810442
0.810442
0.810478
0.810478
0.810478
0.81048
0.810492
0.810492
0.810519
0.810519
0.810568
0.810568
0.810604
0.810608
0.81064
0.81064
0.810702
0.810717
0.8108
0.810834
0.810913
0.811053
0.811174
0.811379
0.811682
0.812002
0.812878
0.81325
0.819086
0.818013
1.04976
239.73
0.815314
0.810823
0.810215
0.810074
0.810013
0.809989
0.809974
0.809966
0.809957
0.809954
0.809948
0.809946
0.80994
0.809943
0.809943
0.809945
0.809944
0.809947
0.809946
0.80995
0.80995
0.809955
0.809955
0.80996
0.80996
0.809967
0.809967
0.809973
0.809973
0.809981
0.809981
0.809988
0.809988
0.809996
0.809996
0.810004
0.810004
0.810012
0.810012
0.810022
0.810022
0.810032
0.810032
0.810043
0.810043
0.810056
0.810056
0.810067
0.810067
0.810081
0.810081
0.810088
0.810088
0.810088
0.81009
0.81009
0.810099
0.810099
0.810114
0.810114
0.810113
0.810108
0.810125
0.810125
0.810135
0.810135
0.810171
0.810171
0.810171
0.810174
0.810185
0.810185
0.810213
0.810213
0.810263
0.810263
0.810301
0.810305
0.810337
0.810337
0.810401
0.810415
0.8105
0.810536
0.810616
0.810758
0.810881
0.81109
0.811398
0.811722
0.81261
0.812988
0.818845
0.817842
1.04833
236.866
0.815072
0.810465
0.809829
0.809679
0.809614
0.809588
0.809572
0.809563
0.809554
0.80955
0.809544
0.809542
0.809536
0.809539
0.809539
0.80954
0.809539
0.809542
0.809542
0.809545
0.809545
0.80955
0.80955
0.809556
0.809556
0.809563
0.809562
0.809569
0.809569
0.809577
0.809577
0.809585
0.809584
0.809592
0.809592
0.809601
0.809601
0.809609
0.809609
0.809619
0.809619
0.80963
0.80963
0.809641
0.809641
0.809654
0.809654
0.809665
0.809665
0.809679
0.809679
0.809687
0.809687
0.809687
0.80969
0.809689
0.809699
0.809698
0.809714
0.809714
0.809713
0.809708
0.809725
0.809725
0.809735
0.809735
0.809773
0.809773
0.809772
0.809777
0.809787
0.809787
0.809816
0.809816
0.809867
0.809867
0.809906
0.809912
0.809943
0.809943
0.810008
0.810023
0.81011
0.810148
0.810229
0.810373
0.8105
0.810714
0.811027
0.811358
0.812258
0.812646
0.818524
0.817622
1.04656
234.933
0.814775
0.810023
0.809352
0.809192
0.809121
0.809093
0.809075
0.809066
0.809056
0.809052
0.809046
0.809043
0.809037
0.809039
0.809039
0.809041
0.80904
0.809042
0.809042
0.809046
0.809046
0.809051
0.809051
0.809057
0.809057
0.809064
0.809064
0.809071
0.809071
0.809079
0.809079
0.809086
0.809086
0.809095
0.809095
0.809103
0.809103
0.809112
0.809112
0.809122
0.809122
0.809133
0.809133
0.809144
0.809144
0.809158
0.809158
0.809169
0.809169
0.809184
0.809184
0.809192
0.809192
0.809192
0.809195
0.809194
0.809204
0.809204
0.80922
0.80922
0.80922
0.809214
0.809232
0.809232
0.809242
0.809242
0.809281
0.809281
0.80928
0.809287
0.809296
0.809296
0.809325
0.809325
0.809379
0.809379
0.809418
0.809426
0.809457
0.809457
0.809524
0.809538
0.809628
0.80967
0.809751
0.809899
0.81003
0.810249
0.810569
0.810907
0.811823
0.812223
0.818121
0.817353
1.04453
233.931
0.814423
0.809497
0.808784
0.80861
0.808534
0.808503
0.808484
0.808473
0.808462
0.808458
0.808451
0.808448
0.808441
0.808444
0.808444
0.808445
0.808444
0.808447
0.808446
0.80845
0.80845
0.808456
0.808456
0.808461
0.808461
0.808468
0.808468
0.808476
0.808476
0.808484
0.808484
0.808492
0.808492
0.808501
0.808501
0.808509
0.808509
0.808519
0.808519
0.808529
0.808529
0.808541
0.808541
0.808552
0.808552
0.808566
0.808566
0.808578
0.808578
0.808593
0.808593
0.808602
0.808602
0.808602
0.808604
0.808604
0.808614
0.808614
0.808631
0.808631
0.808631
0.808625
0.808643
0.808643
0.808654
0.808654
0.808694
0.808694
0.808693
0.808701
0.80871
0.80871
0.80874
0.80874
0.808796
0.808796
0.808836
0.808846
0.808876
0.808877
0.808946
0.80896
0.809054
0.809098
0.80918
0.809332
0.809468
0.809693
0.810021
0.810367
0.811302
0.811715
0.817632
0.817035
1.04233
233.78
0.814016
0.808886
0.808124
0.807934
0.80785
0.807816
0.807794
0.807782
0.807771
0.807766
0.807758
0.807755
0.807747
0.80775
0.80775
0.807751
0.80775
0.807752
0.807752
0.807756
0.807756
0.807762
0.807762
0.807768
0.807768
0.807775
0.807775
0.807783
0.807783
0.807791
0.807791
0.8078
0.8078
0.807809
0.807809
0.807818
0.807818
0.807828
0.807828
0.807839
0.807839
0.80785
0.80785
0.807862
0.807862
0.807877
0.807877
0.807889
0.807889
0.807905
0.807905
0.807914
0.807914
0.807914
0.807917
0.807916
0.807926
0.807926
0.807945
0.807945
0.807944
0.807938
0.807957
0.807957
0.807968
0.807968
0.80801
0.80801
0.80801
0.808019
0.808027
0.808027
0.808059
0.808059
0.808117
0.808117
0.808158
0.80817
0.8082
0.8082
0.808273
0.808287
0.808384
0.808433
0.808516
0.808672
0.808813
0.809045
0.809382
0.809738
0.810692
0.811122
0.817052
0.81667
1.04009
234.344
0.813554
0.80819
0.807369
0.80716
0.807068
0.80703
0.807005
0.806992
0.80698
0.806974
0.806966
0.806962
0.806953
0.806956
0.806956
0.806957
0.806956
0.806958
0.806957
0.806962
0.806961
0.806967
0.806967
0.806974
0.806974
0.806982
0.806982
0.80699
0.80699
0.806999
0.806999
0.807008
0.807008
0.807017
0.807017
0.807026
0.807026
0.807037
0.807037
0.807048
0.807048
0.80706
0.80706
0.807073
0.807073
0.807088
0.807088
0.807101
0.807101
0.807117
0.807117
0.807127
0.807127
0.807127
0.80713
0.807129
0.80714
0.80714
0.80716
0.80716
0.807159
0.807153
0.807173
0.807172
0.807184
0.807184
0.807228
0.807227
0.807227
0.807239
0.807246
0.807246
0.807279
0.807279
0.80734
0.80734
0.807382
0.807397
0.807427
0.807427
0.807502
0.807516
0.807617
0.807671
0.807754
0.807915
0.808063
0.808302
0.80865
0.809016
0.809992
0.81044
0.816378
0.816258
1.03792
235.46
0.813038
0.807406
0.806518
0.806288
0.806186
0.806143
0.806115
0.8061
0.806086
0.80608
0.806071
0.806067
0.806057
0.80606
0.80606
0.80606
0.806059
0.806061
0.806061
0.806065
0.806065
0.806071
0.806071
0.806078
0.806078
0.806086
0.806086
0.806094
0.806094
0.806104
0.806104
0.806113
0.806113
0.806123
0.806123
0.806133
0.806133
0.806144
0.806144
0.806156
0.806156
0.806169
0.806169
0.806182
0.806182
0.806197
0.806197
0.806211
0.806211
0.806228
0.806228
0.806238
0.806239
0.806239
0.806242
0.806241
0.806252
0.806252
0.806273
0.806273
0.806273
0.806266
0.806287
0.806287
0.806299
0.806299
0.806345
0.806344
0.806344
0.806358
0.806364
0.806364
0.806399
0.806399
0.806463
0.806463
0.806507
0.806524
0.806553
0.806553
0.806632
0.806646
0.806751
0.80681
0.806895
0.807061
0.807215
0.807463
0.807822
0.808199
0.809198
0.809667
0.815605
0.815798
1.03595
236.943
0.812467
0.806535
0.805571
0.805315
0.805202
0.805153
0.805122
0.805105
0.805089
0.805082
0.805072
0.805067
0.805057
0.805059
0.805059
0.80506
0.805058
0.80506
0.805059
0.805064
0.805063
0.80507
0.80507
0.805077
0.805077
0.805086
0.805086
0.805095
0.805095
0.805105
0.805105
0.805115
0.805115
0.805125
0.805125
0.805135
0.805135
0.805147
0.805147
0.80516
0.80516
0.805173
0.805173
0.805187
0.805187
0.805203
0.805203
0.805217
0.805217
0.805235
0.805235
0.805246
0.805247
0.805247
0.80525
0.805249
0.805261
0.805261
0.805284
0.805284
0.805283
0.805276
0.805298
0.805298
0.805311
0.805311
0.805359
0.805358
0.805358
0.805374
0.805379
0.805379
0.805416
0.805416
0.805484
0.805484
0.805529
0.805549
0.805578
0.805578
0.80566
0.805674
0.805784
0.805849
0.805935
0.806107
0.806268
0.806525
0.806896
0.807285
0.808309
0.808802
0.814728
0.815292
1.03432
238.605
0.811843
0.805575
0.804524
0.804239
0.804113
0.804058
0.804023
0.804004
0.803986
0.803978
0.803967
0.803961
0.80395
0.803952
0.803952
0.803952
0.80395
0.803952
0.803951
0.803956
0.803955
0.803962
0.803962
0.80397
0.80397
0.803979
0.803979
0.803989
0.803989
0.803999
0.803999
0.80401
0.80401
0.80402
0.80402
0.804032
0.804031
0.804044
0.804044
0.804057
0.804057
0.804071
0.804071
0.804086
0.804086
0.804103
0.804103
0.804118
0.804118
0.804136
0.804136
0.804147
0.80415
0.804149
0.804152
0.804152
0.804164
0.804164
0.804189
0.804188
0.804188
0.80418
0.804204
0.804204
0.804217
0.804217
0.804267
0.804267
0.804267
0.804286
0.80429
0.80429
0.804328
0.804328
0.804401
0.804401
0.804446
0.804471
0.804499
0.804499
0.804585
0.804599
0.804714
0.804785
0.804872
0.80505
0.805219
0.805486
0.80587
0.806271
0.807322
0.80784
0.813742
0.81474
1.03319
240.26
0.811165
0.804525
0.803377
0.803059
0.802918
0.802855
0.802816
0.802794
0.802774
0.802765
0.802752
0.802746
0.802733
0.802735
0.802735
0.802735
0.802733
0.802735
0.802734
0.802738
0.802738
0.802745
0.802745
0.802753
0.802753
0.802763
0.802763
0.802773
0.802773
0.802785
0.802784
0.802795
0.802795
0.802807
0.802807
0.802819
0.802819
0.802832
0.802832
0.802846
0.802846
0.802861
0.802861
0.802876
0.802876
0.802894
0.802894
0.802909
0.802909
0.802929
0.802929
0.802941
0.802944
0.802944
0.802946
0.802946
0.802959
0.802959
0.802985
0.802985
0.802985
0.802977
0.803001
0.803001
0.803016
0.803016
0.803069
0.803068
0.803068
0.803089
0.803093
0.803093
0.803133
0.803133
0.80321
0.803211
0.803257
0.803285
0.803313
0.803313
0.803403
0.803417
0.803537
0.803615
0.803703
0.803887
0.804066
0.804343
0.80474
0.805155
0.806232
0.806779
0.812643
0.814141
1.03269
241.736
0.810435
0.803385
0.802127
0.801772
0.801614
0.801543
0.801498
0.801473
0.801451
0.80144
0.801426
0.80142
0.801405
0.801407
0.801407
0.801406
0.801403
0.801406
0.801404
0.801408
0.801408
0.801416
0.801415
0.801424
0.801424
0.801434
0.801434
0.801445
0.801445
0.801458
0.801458
0.801469
0.801469
0.801481
0.801481
0.801494
0.801494
0.801508
0.801508
0.801523
0.801523
0.801539
0.801539
0.801555
0.801555
0.801574
0.801574
0.80159
0.80159
0.801611
0.801611
0.801623
0.801627
0.801627
0.80163
0.801629
0.801643
0.801642
0.801672
0.801671
0.801671
0.801662
0.801689
0.801689
0.801704
0.801704
0.801759
0.801759
0.801759
0.801783
0.801785
0.801785
0.801828
0.801828
0.80191
0.801911
0.801958
0.80199
0.802017
0.802017
0.802112
0.802126
0.802252
0.802338
0.802426
0.802617
0.802805
0.803094
0.803505
0.803934
0.805038
0.805616
0.811425
0.813495
1.033
242.878
0.809654
0.802153
0.800774
0.800377
0.800199
0.800118
0.800068
0.800039
0.800015
0.800002
0.799986
0.799979
0.799962
0.799964
0.799963
0.799963
0.799959
0.799961
0.799959
0.799964
0.799963
0.799971
0.799971
0.79998
0.79998
0.799991
0.799991
0.800003
0.800003
0.800016
0.800016
0.800029
0.800029
0.800042
0.800042
0.800055
0.800055
0.80007
0.80007
0.800086
0.800086
0.800103
0.800103
0.80012
0.80012
0.80014
0.80014
0.800157
0.800157
0.800179
0.800179
0.800191
0.800197
0.800196
0.800199
0.800198
0.800213
0.800213
0.800244
0.800244
0.800243
0.800234
0.800263
0.800263
0.800278
0.800278
0.800337
0.800337
0.800337
0.800363
0.800365
0.800365
0.800411
0.800411
0.800498
0.8005
0.800547
0.800584
0.80061
0.80061
0.80071
0.800724
0.800856
0.800949
0.801039
0.801237
0.801434
0.801735
0.802161
0.802604
0.803736
0.804347
0.810086
0.812801
1.03424
243.548
0.808821
0.800829
0.799314
0.79887
0.798671
0.798579
0.798521
0.798489
0.798461
0.798446
0.798429
0.79842
0.798402
0.798403
0.798403
0.798402
0.798398
0.798399
0.798397
0.798402
0.798401
0.798409
0.798409
0.798419
0.798419
0.798431
0.798431
0.798443
0.798443
0.798458
0.798457
0.798471
0.79847
0.798484
0.798484
0.798499
0.798498
0.798515
0.798515
0.798532
0.798532
0.798549
0.798549
0.798568
0.798568
0.798589
0.798589
0.798607
0.798607
0.79863
0.79863
0.798642
0.79865
0.798649
0.798652
0.798651
0.798667
0.798667
0.7987
0.7987
0.798699
0.79869
0.798721
0.798721
0.798737
0.798737
0.798799
0.798799
0.798799
0.798828
0.798829
0.798829
0.798878
0.798877
0.79897
0.798973
0.79902
0.799062
0.799088
0.799089
0.799193
0.799207
0.799345
0.799447
0.799537
0.799742
0.799951
0.800264
0.800705
0.801162
0.802322
0.80297
0.808619
0.812056
1.03657
243.634
0.807938
0.799412
0.797747
0.79725
0.797026
0.796921
0.796856
0.796819
0.796788
0.796771
0.796751
0.796742
0.796721
0.796722
0.796721
0.79672
0.796715
0.796717
0.796714
0.796718
0.796717
0.796726
0.796726
0.796736
0.796736
0.796749
0.796749
0.796763
0.796763
0.796778
0.796778
0.796792
0.796792
0.796806
0.796806
0.796822
0.796822
0.79684
0.796839
0.796857
0.796857
0.796876
0.796876
0.796895
0.796895
0.796918
0.796918
0.796937
0.796937
0.796961
0.796961
0.796973
0.796983
0.796983
0.796986
0.796984
0.797001
0.797001
0.797037
0.797037
0.797036
0.797026
0.797059
0.797059
0.797077
0.797076
0.797142
0.797142
0.797142
0.797174
0.797175
0.797175
0.797226
0.797226
0.797324
0.797329
0.797375
0.797423
0.797448
0.797449
0.797558
0.797572
0.797717
0.797828
0.797919
0.798131
0.798351
0.798677
0.799134
0.799606
0.800792
0.80148
0.807021
0.811259
1.04012
243.05
0.807007
0.797901
0.79607
0.795513
0.795262
0.795143
0.795069
0.795027
0.794992
0.794972
0.794951
0.794939
0.794917
0.794917
0.794916
0.794914
0.794909
0.79491
0.794906
0.794911
0.79491
0.794919
0.794919
0.79493
0.79493
0.794943
0.794943
0.794958
0.794958
0.794974
0.794974
0.794989
0.794989
0.795005
0.795005
0.795021
0.795021
0.79504
0.79504
0.795059
0.795059
0.795079
0.795079
0.7951
0.7951
0.795124
0.795124
0.795143
0.795143
0.795169
0.795169
0.795181
0.795193
0.795193
0.795196
0.795195
0.795213
0.795212
0.795252
0.795251
0.795251
0.79524
0.795276
0.795276
0.795294
0.795293
0.795364
0.795363
0.795363
0.795398
0.795399
0.795399
0.795452
0.795452
0.795557
0.795563
0.795609
0.795663
0.795688
0.795688
0.795803
0.795816
0.795968
0.796089
0.796181
0.7964
0.796631
0.796971
0.797444
0.797931
0.799144
0.799873
0.805288
0.810406
1.04501
241.719
0.806028
0.796295
0.794282
0.793659
0.793376
0.793242
0.793158
0.79311
0.79307
0.793048
0.793023
0.793011
0.792986
0.792985
0.792984
0.792981
0.792975
0.792976
0.792971
0.792976
0.792975
0.792984
0.792984
0.792995
0.792995
0.79301
0.79301
0.793026
0.793026
0.793043
0.793043
0.793059
0.793059
0.793076
0.793076
0.793093
0.793093
0.793114
0.793114
0.793134
0.793134
0.793155
0.793155
0.793178
0.793178
0.793203
0.793203
0.793224
0.793224
0.793251
0.793251
0.793262
0.793278
0.793278
0.79328
0.793279
0.793298
0.793298
0.79334
0.79334
0.793339
0.793328
0.793366
0.793366
0.793385
0.793385
0.793459
0.793459
0.793459
0.793497
0.793497
0.793497
0.793554
0.793554
0.793665
0.793674
0.793718
0.793778
0.793803
0.793803
0.793924
0.793937
0.794095
0.794226
0.794319
0.794546
0.794788
0.795142
0.795632
0.796134
0.797372
0.798147
0.803417
0.809493
1.05134
239.606
0.805004
0.794595
0.79238
0.791684
0.791367
0.791214
0.791119
0.791064
0.791019
0.790994
0.790966
0.790952
0.790925
0.790923
0.790921
0.790918
0.790911
0.790911
0.790906
0.790911
0.790908
0.790919
0.790919
0.79093
0.79093
0.790946
0.790946
0.790963
0.790963
0.790982
0.790982
0.790999
0.790999
0.791017
0.791017
0.791035
0.791035
0.791058
0.791058
0.791079
0.791079
0.791102
0.791101
0.791125
0.791125
0.791152
0.791152
0.791174
0.791174
0.791203
0.791203
0.791214
0.791233
0.791232
0.791235
0.791233
0.791254
0.791254
0.791299
0.791299
0.791298
0.791287
0.791328
0.791328
0.791347
0.791347
0.791426
0.791426
0.791425
0.791467
0.791467
0.791467
0.791527
0.791527
0.791644
0.791657
0.791698
0.791766
0.79179
0.791791
0.791917
0.79193
0.792096
0.792237
0.79233
0.792565
0.792819
0.793187
0.793694
0.794212
0.795473
0.796296
0.801403
0.808512
1.05918
236.691
0.803934
0.792799
0.790364
0.789585
0.789229
0.789057
0.788949
0.788886
0.788836
0.788806
0.788775
0.788759
0.788729
0.788726
0.788723
0.78872
0.788712
0.788712
0.788705
0.78871
0.788708
0.788718
0.788718
0.788731
0.788731
0.788747
0.788747
0.788765
0.788765
0.788786
0.788786
0.788804
0.788804
0.788823
0.788823
0.788843
0.788843
0.788868
0.788868
0.78889
0.788889
0.788914
0.788914
0.788939
0.788939
0.788968
0.788967
0.788991
0.788991
0.789022
0.789022
0.789032
0.789054
0.789054
0.789056
0.789054
0.789077
0.789077
0.789125
0.789125
0.789124
0.789112
0.789157
0.789157
0.789177
0.789177
0.78926
0.78926
0.78926
0.789305
0.789305
0.789305
0.789368
0.789368
0.789493
0.789508
0.789546
0.789622
0.789647
0.789647
0.789779
0.789792
0.789965
0.790117
0.790211
0.790453
0.79072
0.791103
0.791626
0.792159
0.793443
0.794316
0.799246
0.807458
1.0686
232.974
0.802822
0.790908
0.788231
0.787361
0.786962
0.786766
0.786644
0.786573
0.786516
0.786483
0.786448
0.786429
0.786397
0.786392
0.786388
0.786384
0.786376
0.786374
0.786367
0.786372
0.786368
0.786379
0.786379
0.786392
0.786392
0.78641
0.78641
0.78643
0.786429
0.786451
0.786451
0.786471
0.786471
0.786491
0.786491
0.786513
0.786513
0.78654
0.786539
0.786563
0.786562
0.786588
0.786588
0.786616
0.786616
0.786646
0.786646
0.78667
0.78667
0.786703
0.786703
0.786712
0.786739
0.786739
0.786741
0.786738
0.786763
0.786763
0.786815
0.786815
0.786814
0.786801
0.78685
0.78685
0.78687
0.78687
0.786958
0.786959
0.786958
0.787007
0.787007
0.787006
0.787074
0.787073
0.787205
0.787224
0.787259
0.787343
0.787368
0.787368
0.787507
0.787519
0.787699
0.787864
0.787957
0.788206
0.788487
0.788885
0.789425
0.789973
0.791276
0.792204
0.796943
0.806319
1.0796
228.473
0.801668
0.78892
0.785979
0.785009
0.784561
0.78434
0.784202
0.784121
0.784057
0.784019
0.78398
0.783958
0.783922
0.783917
0.783912
0.783907
0.783897
0.783895
0.783886
0.783891
0.783887
0.783898
0.783898
0.783912
0.783912
0.783931
0.783931
0.783952
0.783952
0.783975
0.783975
0.783996
0.783996
0.784018
0.784018
0.78404
0.78404
0.78407
0.78407
0.784094
0.784094
0.784121
0.784121
0.784151
0.784151
0.784183
0.784183
0.784209
0.784209
0.784244
0.784244
0.784251
0.784283
0.784283
0.784285
0.784281
0.784309
0.784309
0.784364
0.784364
0.784363
0.78435
0.784403
0.784403
0.784424
0.784423
0.784517
0.784517
0.784517
0.784569
0.78457
0.784569
0.78464
0.784639
0.784779
0.784802
0.784833
0.784926
0.78495
0.784951
0.785095
0.785107
0.785295
0.785472
0.785565
0.785821
0.786115
0.786529
0.787086
0.787649
0.78897
0.789955
0.794493
0.805087
1.09217
223.222
0.800476
0.786837
0.783608
0.782526
0.782024
0.781775
0.781619
0.781527
0.781454
0.781411
0.781367
0.781343
0.781303
0.781296
0.78129
0.781284
0.781273
0.78127
0.78126
0.781264
0.781259
0.781271
0.781271
0.781285
0.781285
0.781305
0.781305
0.781328
0.781327
0.781353
0.781353
0.781375
0.781375
0.781398
0.781398
0.781423
0.781423
0.781455
0.781455
0.78148
0.78148
0.781509
0.781509
0.781541
0.78154
0.781575
0.781574
0.781602
0.781602
0.781639
0.781639
0.781645
0.781682
0.781682
0.781684
0.78168
0.78171
0.78171
0.781769
0.781769
0.781768
0.781754
0.781812
0.781812
0.781833
0.781833
0.781932
0.781932
0.781932
0.781988
0.781989
0.781987
0.782062
0.782062
0.78221
0.782236
0.782263
0.782365
0.782391
0.782391
0.782541
0.782553
0.782748
0.782938
0.783031
0.783294
0.783601
0.784031
0.784604
0.785182
0.786518
0.787564
0.791892
0.80375
1.10625
217.268
0.799247
0.784658
0.781115
0.77991
0.779348
0.779067
0.778891
0.778787
0.778705
0.778656
0.778606
0.778579
0.778535
0.778526
0.778518
0.778512
0.778499
0.778495
0.778484
0.778487
0.778481
0.778494
0.778493
0.778508
0.778508
0.778529
0.77853
0.778553
0.778553
0.77858
0.77858
0.778604
0.778604
0.778629
0.778629
0.778655
0.778655
0.77869
0.77869
0.778717
0.778716
0.778747
0.778747
0.778781
0.778781
0.778817
0.778817
0.778846
0.778846
0.778885
0.778885
0.77889
0.778933
0.778933
0.778934
0.77893
0.778963
0.778963
0.779025
0.779025
0.779024
0.779009
0.779074
0.779074
0.779094
0.779094
0.779199
0.779198
0.779198
0.779259
0.77926
0.779258
0.779337
0.779337
0.779493
0.779523
0.779546
0.779658
0.779684
0.779684
0.779841
0.779852
0.780055
0.780258
0.780351
0.78062
0.780941
0.781387
0.781977
0.782569
0.783917
0.785026
0.789136
0.802298
1.12172
210.671
0.797983
0.782384
0.778499
0.777158
0.77653
0.776213
0.776015
0.775897
0.775805
0.775749
0.775693
0.775662
0.775614
0.775602
0.775593
0.775585
0.775571
0.775566
0.775553
0.775556
0.775549
0.775561
0.775561
0.775577
0.775576
0.775599
0.775599
0.775624
0.775624
0.775654
0.775654
0.775679
0.775679
0.775705
0.775705
0.775733
0.775733
0.775771
0.775771
0.775799
0.775799
0.775832
0.775832
0.775868
0.775868
0.775906
0.775906
0.775937
0.775937
0.775979
0.775979
0.775982
0.776031
0.776031
0.776031
0.776026
0.776064
0.776063
0.776129
0.776129
0.776128
0.776112
0.776183
0.776183
0.776202
0.776202
0.776314
0.776313
0.776313
0.776378
0.776379
0.776378
0.776461
0.776461
0.776625
0.776659
0.776678
0.7768
0.776826
0.776827
0.77699
0.777
0.77721
0.777427
0.77752
0.777796
0.77813
0.778592
0.779198
0.779805
0.781161
0.782338
0.786222
0.800719
1.13844
203.498
0.796687
0.780014
0.775759
0.774269
0.773567
0.773211
0.772988
0.772854
0.77275
0.772686
0.772624
0.772589
0.772536
0.772521
0.77251
0.772501
0.772486
0.77248
0.772465
0.772466
0.772458
0.772471
0.77247
0.772486
0.772486
0.77251
0.77251
0.772537
0.772537
0.772568
0.772568
0.772595
0.772595
0.772623
0.772623
0.772653
0.772653
0.772695
0.772695
0.772724
0.772724
0.772758
0.772758
0.772797
0.772797
0.772838
0.772837
0.77287
0.77287
0.772914
0.772914
0.772916
0.772971
0.772971
0.772971
0.772965
0.773007
0.773006
0.773076
0.773075
0.773075
0.773058
0.773136
0.773136
0.773155
0.773155
0.773272
0.773272
0.773272
0.773342
0.773343
0.773341
0.773429
0.773429
0.773602
0.773639
0.773654
0.773787
0.773815
0.773814
0.773984
0.773994
0.774211
0.774442
0.774534
0.774816
0.775164
0.775643
0.776264
0.776885
0.778246
0.779494
0.783145
0.798999
1.15617
195.826
0.795361
0.777551
0.772894
0.77124
0.770457
0.770056
0.769805
0.769653
0.769537
0.769465
0.769395
0.769355
0.769296
0.769279
0.769266
0.769255
0.769238
0.769231
0.769214
0.769214
0.769204
0.769217
0.769216
0.769233
0.769233
0.769258
0.769258
0.769287
0.769286
0.76932
0.76932
0.769349
0.769348
0.769378
0.769378
0.76941
0.76941
0.769456
0.769456
0.769486
0.769486
0.769523
0.769523
0.769564
0.769564
0.769607
0.769607
0.769641
0.769641
0.769688
0.769688
0.769689
0.76975
0.76975
0.76975
0.769743
0.769789
0.769789
0.769862
0.769861
0.76986
0.769843
0.769928
0.769929
0.769946
0.769946
0.770071
0.77007
0.77007
0.770146
0.770147
0.770145
0.770237
0.770237
0.770419
0.77046
0.77047
0.770615
0.770643
0.770643
0.770819
0.770828
0.771053
0.771298
0.771389
0.771677
0.772038
0.772534
0.773171
0.773805
0.775167
0.776489
0.779901
0.797123
1.17465
187.731
0.794009
0.774995
0.769903
0.768069
0.767196
0.766746
0.766464
0.766293
0.766161
0.76608
0.766001
0.765957
0.765892
0.765871
0.765855
0.765843
0.765823
0.765815
0.765796
0.765795
0.765783
0.765796
0.765795
0.765812
0.765812
0.765838
0.765838
0.765869
0.765869
0.765905
0.765904
0.765935
0.765935
0.765966
0.765966
0.766
0.766
0.76605
0.76605
0.766081
0.766081
0.76612
0.76612
0.766165
0.766165
0.76621
0.76621
0.766246
0.766246
0.766296
0.766296
0.766295
0.766363
0.766363
0.766363
0.766355
0.766406
0.766406
0.766482
0.766482
0.766481
0.766463
0.766557
0.766557
0.766573
0.766572
0.766704
0.766704
0.766704
0.766785
0.766786
0.766784
0.766881
0.76688
0.767072
0.767116
0.767123
0.767278
0.767308
0.767308
0.76749
0.767498
0.767731
0.767991
0.76808
0.768373
0.768748
0.769261
0.769912
0.77056
0.771919
0.77332
0.776486
0.795076
1.19354
179.293
0.792632
0.772347
0.766785
0.764754
0.763782
0.763277
0.76296
0.762767
0.76262
0.762528
0.76244
0.762389
0.762318
0.762293
0.762275
0.762261
0.762238
0.762228
0.762208
0.762205
0.76219
0.762204
0.762202
0.762219
0.762219
0.762247
0.762247
0.762279
0.762279
0.762317
0.762317
0.762349
0.762349
0.762383
0.762383
0.762419
0.762419
0.762474
0.762474
0.762506
0.762506
0.762547
0.762547
0.762595
0.762595
0.762642
0.762642
0.76268
0.76268
0.762732
0.762732
0.762731
0.762806
0.762806
0.762805
0.762796
0.762853
0.762853
0.762932
0.762933
0.762931
0.762913
0.763015
0.763016
0.76303
0.763029
0.763168
0.763168
0.763168
0.763255
0.763256
0.763254
0.763356
0.763355
0.763556
0.763603
0.763607
0.763774
0.763805
0.763804
0.763993
0.764
0.76424
0.764515
0.764603
0.764901
0.765289
0.765819
0.766484
0.767146
0.768497
0.769981
0.772896
0.792838
1.21246
170.593
0.791236
0.76961
0.763541
0.761294
0.760212
0.759647
0.759292
0.759074
0.758909
0.758805
0.758706
0.758649
0.758571
0.758542
0.758519
0.758503
0.758478
0.758467
0.758444
0.758439
0.758421
0.758435
0.758433
0.758451
0.75845
0.758479
0.758479
0.758513
0.758513
0.758553
0.758553
0.758588
0.758588
0.758623
0.758623
0.758662
0.758662
0.758722
0.758722
0.758754
0.758754
0.758798
0.758798
0.75885
0.758849
0.758899
0.758899
0.758939
0.758939
0.758994
0.758994
0.758992
0.759074
0.759073
0.759073
0.759063
0.759126
0.759126
0.759209
0.759209
0.759208
0.759188
0.7593
0.759302
0.759313
0.759312
0.759459
0.759459
0.759459
0.759552
0.759552
0.759551
0.759658
0.759657
0.759867
0.759917
0.759919
0.760097
0.760129
0.760129
0.760324
0.76033
0.760577
0.760868
0.760953
0.761256
0.761657
0.762203
0.762882
0.763557
0.764896
0.766468
0.769126
0.790393
1.23097
161.709
0.789821
0.766785
0.76017
0.757687
0.756484
0.755852
0.755454
0.75521
0.755024
0.754907
0.754797
0.754732
0.754646
0.754612
0.754586
0.754567
0.754539
0.754526
0.7545
0.754494
0.754473
0.754486
0.754484
0.754501
0.7545
0.75453
0.75453
0.754566
0.754566
0.754609
0.754609
0.754646
0.754645
0.754683
0.754683
0.754724
0.754724
0.75479
0.75479
0.754823
0.754823
0.754868
0.754869
0.754924
0.754924
0.754976
0.754977
0.755019
0.755018
0.755076
0.755076
0.755073
0.755163
0.755162
0.755161
0.75515
0.75522
0.75522
0.755306
0.755306
0.755305
0.755284
0.755406
0.75541
0.755418
0.755417
0.755571
0.755572
0.755571
0.755671
0.755671
0.75567
0.755782
0.755781
0.756001
0.756053
0.756054
0.756242
0.756277
0.756277
0.756477
0.756483
0.756736
0.757043
0.757125
0.757433
0.757846
0.75841
0.759102
0.75979
0.761112
0.762775
0.765172
0.787719
1.24855
152.716
0.788393
0.763873
0.756671
0.753931
0.752597
0.75189
0.751445
0.751171
0.750963
0.75083
0.750707
0.750635
0.750539
0.750499
0.750469
0.750448
0.750416
0.750401
0.750372
0.750364
0.750339
0.750353
0.75035
0.750367
0.750365
0.750396
0.750396
0.750434
0.750434
0.75048
0.75048
0.750518
0.750518
0.750558
0.750558
0.750602
0.750602
0.750674
0.750673
0.750707
0.750707
0.750755
0.750755
0.750815
0.750814
0.75087
0.75087
0.750914
0.750913
0.750973
0.750974
0.75097
0.751067
0.751067
0.751066
0.751054
0.751132
0.751132
0.751221
0.75122
0.751219
0.751198
0.751329
0.751335
0.751339
0.751339
0.751501
0.751503
0.751501
0.751608
0.751608
0.751606
0.751724
0.751723
0.751954
0.752007
0.752007
0.752206
0.752243
0.752243
0.752449
0.752454
0.752714
0.753036
0.753116
0.753428
0.753852
0.754434
0.755137
0.755838
0.757139
0.758897
0.761032
0.784798
1.2647
143.685
0.786955
0.760879
0.753047
0.750027
0.748547
0.747758
0.747261
0.746953
0.746721
0.746572
0.746434
0.746352
0.746247
0.746201
0.746166
0.746141
0.746105
0.746088
0.746056
0.746046
0.746017