/*--------------------------------*- C++ -*----------------------------------*\
| =========                 |                                                 |
| \\      /  F ield         | OpenFOAM: The Open Source CFD Toolbox           |
|  \\    /   O peration     | Version:  v2012                                 |
|   \\  /    A nd           | Website:  www.openfoam.com                      |
|    \\/     M anipulation  |                                                 |
\*---------------------------------------------------------------------------*/
FoamFile
{
    version     2.0;
    format      ascii;
    class       volVectorField;
    location    "4";
    object      wallShearStress;
}
// * * * * * * * * * * * * * * * * * * * * * * * * * * * * * * * * * * * * * //

dimensions      [0 2 -2 0 0 0 0];


internalField   uniform (0 0 0);

boundaryField
{
    inlet
    {
        type            calculated;
        value           uniform (0 0 0);
    }
    outlet
    {
        type            calculated;
        value           uniform (0 0 0);
    }
    topWall
    {
        type            calculated;
        value           nonuniform List<vector> 
545
(
(6.42499e-09 -4.49347e-09 0)
(6.45454e-09 -1.27519e-08 0)
(6.35676e-09 -2.11522e-08 0)
(6.31651e-09 -2.9264e-08 0)
(6.28783e-09 -3.69937e-08 0)
(6.25985e-09 -4.44487e-08 0)
(6.22988e-09 -5.16983e-08 0)
(6.19739e-09 -5.87412e-08 0)
(6.16244e-09 -6.55614e-08 0)
(6.12528e-09 -7.21575e-08 0)
(6.08609e-09 -7.85376e-08 0)
(6.04509e-09 -8.47094e-08 0)
(6.00246e-09 -9.06778e-08 0)
(5.95839e-09 -9.6447e-08 0)
(5.91306e-09 -1.02022e-07 0)
(5.86663e-09 -1.07408e-07 0)
(5.81926e-09 -1.12609e-07 0)
(5.77109e-09 -1.17633e-07 0)
(5.72227e-09 -1.22483e-07 0)
(5.67289e-09 -1.27164e-07 0)
(5.6231e-09 -1.31683e-07 0)
(5.57297e-09 -1.36043e-07 0)
(5.52262e-09 -1.4025e-07 0)
(5.47213e-09 -1.44309e-07 0)
(5.42158e-09 -1.48225e-07 0)
(5.37103e-09 -1.52002e-07 0)
(5.32056e-09 -1.55645e-07 0)
(5.27023e-09 -1.59158e-07 0)
(5.22008e-09 -1.62547e-07 0)
(5.17017e-09 -1.65814e-07 0)
(5.12053e-09 -1.68965e-07 0)
(5.07121e-09 -1.72003e-07 0)
(5.02223e-09 -1.74932e-07 0)
(4.97363e-09 -1.77757e-07 0)
(4.92543e-09 -1.80481e-07 0)
(4.87765e-09 -1.83107e-07 0)
(4.83031e-09 -1.85639e-07 0)
(4.78343e-09 -1.8808e-07 0)
(4.73701e-09 -1.90433e-07 0)
(4.69106e-09 -1.92703e-07 0)
(4.64559e-09 -1.94891e-07 0)
(4.60062e-09 -1.97001e-07 0)
(4.55612e-09 -1.99035e-07 0)
(4.51212e-09 -2.00997e-07 0)
(4.4686e-09 -2.02888e-07 0)
(4.42557e-09 -2.04712e-07 0)
(4.38302e-09 -2.0647e-07 0)
(4.34094e-09 -2.08166e-07 0)
(4.29932e-09 -2.09801e-07 0)
(4.25817e-09 -2.11377e-07 0)
(4.21745e-09 -2.12898e-07 0)
(4.17718e-09 -2.14364e-07 0)
(4.13733e-09 -2.15778e-07 0)
(4.0979e-09 -2.17141e-07 0)
(4.05886e-09 -2.18456e-07 0)
(4.02021e-09 -2.19724e-07 0)
(3.98193e-09 -2.20947e-07 0)
(3.94401e-09 -2.22126e-07 0)
(3.90643e-09 -2.23263e-07 0)
(3.86917e-09 -2.2436e-07 0)
(3.83222e-09 -2.25417e-07 0)
(3.79556e-09 -2.26437e-07 0)
(3.75918e-09 -2.2742e-07 0)
(3.72304e-09 -2.28368e-07 0)
(3.68715e-09 -2.29283e-07 0)
(3.65147e-09 -2.30164e-07 0)
(3.616e-09 -2.31015e-07 0)
(3.58068e-09 -2.31833e-07 0)
(3.54564e-09 -2.32626e-07 0)
(3.51025e-09 -2.33382e-07 0)
(3.47707e-09 -2.3414e-07 0)
(3.43506e-09 -2.34802e-07 0)
(3.39642e-09 -2.35468e-07 0)
(3.37302e-09 -2.36183e-07 0)
(3.35002e-09 -2.36798e-07 0)
(3.32715e-09 -2.37409e-07 0)
(3.30433e-09 -2.38033e-07 0)
(3.28156e-09 -2.38657e-07 0)
(3.25883e-09 -2.3927e-07 0)
(3.23613e-09 -2.39872e-07 0)
(3.21346e-09 -2.40467e-07 0)
(3.19084e-09 -2.41057e-07 0)
(3.16825e-09 -2.4164e-07 0)
(3.1457e-09 -2.42216e-07 0)
(3.12319e-09 -2.42785e-07 0)
(3.10072e-09 -2.43347e-07 0)
(3.07829e-09 -2.43903e-07 0)
(3.0559e-09 -2.44452e-07 0)
(3.03354e-09 -2.44995e-07 0)
(3.01122e-09 -2.45531e-07 0)
(2.98899e-09 -2.46062e-07 0)
(2.96658e-09 -2.46582e-07 0)
(2.94514e-09 -2.47115e-07 0)
(2.91982e-09 -2.47582e-07 0)
(2.9112e-09 -2.483e-07 0)
(2.83177e-09 -2.48502e-07 0)
(2.73043e-09 -2.48767e-07 0)
(2.70599e-09 -2.49594e-07 0)
(2.68924e-09 -2.49917e-07 0)
(2.67434e-09 -2.50171e-07 0)
(2.65986e-09 -2.50523e-07 0)
(2.64544e-09 -2.50925e-07 0)
(2.631e-09 -2.51315e-07 0)
(2.61652e-09 -2.51685e-07 0)
(2.602e-09 -2.52051e-07 0)
(2.58744e-09 -2.52419e-07 0)
(2.57284e-09 -2.52789e-07 0)
(2.5582e-09 -2.53157e-07 0)
(2.54352e-09 -2.53523e-07 0)
(2.52879e-09 -2.53888e-07 0)
(2.51402e-09 -2.54252e-07 0)
(2.49921e-09 -2.54614e-07 0)
(2.48436e-09 -2.54975e-07 0)
(2.46947e-09 -2.55335e-07 0)
(2.45454e-09 -2.55694e-07 0)
(2.43957e-09 -2.56051e-07 0)
(2.42456e-09 -2.56406e-07 0)
(2.40951e-09 -2.56761e-07 0)
(2.39442e-09 -2.57114e-07 0)
(2.37929e-09 -2.57465e-07 0)
(2.36412e-09 -2.57816e-07 0)
(2.34891e-09 -2.58164e-07 0)
(2.33366e-09 -2.58512e-07 0)
(2.31837e-09 -2.58857e-07 0)
(2.30305e-09 -2.59202e-07 0)
(2.28769e-09 -2.59545e-07 0)
(2.27229e-09 -2.59886e-07 0)
(2.25685e-09 -2.60226e-07 0)
(2.24137e-09 -2.60565e-07 0)
(2.22586e-09 -2.60901e-07 0)
(2.21031e-09 -2.61237e-07 0)
(2.19472e-09 -2.6157e-07 0)
(2.1791e-09 -2.61903e-07 0)
(2.16343e-09 -2.62233e-07 0)
(2.14774e-09 -2.62562e-07 0)
(2.13201e-09 -2.62889e-07 0)
(2.11624e-09 -2.63215e-07 0)
(2.10043e-09 -2.63539e-07 0)
(2.0846e-09 -2.63861e-07 0)
(2.06872e-09 -2.64182e-07 0)
(2.05281e-09 -2.64501e-07 0)
(2.03687e-09 -2.64818e-07 0)
(2.02089e-09 -2.65134e-07 0)
(2.00488e-09 -2.65447e-07 0)
(1.98883e-09 -2.65759e-07 0)
(1.97275e-09 -2.66069e-07 0)
(1.95664e-09 -2.66378e-07 0)
(1.9405e-09 -2.66684e-07 0)
(1.92432e-09 -2.66989e-07 0)
(1.90811e-09 -2.67291e-07 0)
(1.89186e-09 -2.67593e-07 0)
(1.87559e-09 -2.67892e-07 0)
(1.85928e-09 -2.68189e-07 0)
(1.84294e-09 -2.68484e-07 0)
(1.82657e-09 -2.68777e-07 0)
(1.81017e-09 -2.69069e-07 0)
(1.79374e-09 -2.69358e-07 0)
(1.77727e-09 -2.69646e-07 0)
(1.76078e-09 -2.69931e-07 0)
(1.74426e-09 -2.70215e-07 0)
(1.7277e-09 -2.70496e-07 0)
(1.71112e-09 -2.70776e-07 0)
(1.69451e-09 -2.71053e-07 0)
(1.67787e-09 -2.71329e-07 0)
(1.6612e-09 -2.71602e-07 0)
(1.6445e-09 -2.71873e-07 0)
(1.62777e-09 -2.72142e-07 0)
(1.61102e-09 -2.72409e-07 0)
(1.59424e-09 -2.72674e-07 0)
(1.57743e-09 -2.72936e-07 0)
(1.56059e-09 -2.73197e-07 0)
(1.54373e-09 -2.73455e-07 0)
(1.52684e-09 -2.73711e-07 0)
(1.50993e-09 -2.73965e-07 0)
(1.49298e-09 -2.74216e-07 0)
(1.47602e-09 -2.74466e-07 0)
(1.45902e-09 -2.74713e-07 0)
(1.44201e-09 -2.74957e-07 0)
(1.42496e-09 -2.752e-07 0)
(1.4079e-09 -2.7544e-07 0)
(1.39081e-09 -2.75677e-07 0)
(1.3737e-09 -2.75913e-07 0)
(1.35656e-09 -2.76146e-07 0)
(1.3394e-09 -2.76377e-07 0)
(1.32221e-09 -2.76605e-07 0)
(1.30501e-09 -2.76831e-07 0)
(1.28778e-09 -2.77054e-07 0)
(1.27054e-09 -2.77275e-07 0)
(1.25327e-09 -2.77493e-07 0)
(1.23598e-09 -2.77709e-07 0)
(1.21866e-09 -2.77922e-07 0)
(1.20133e-09 -2.78133e-07 0)
(1.18398e-09 -2.78341e-07 0)
(1.16661e-09 -2.78547e-07 0)
(1.14922e-09 -2.7875e-07 0)
(1.13182e-09 -2.78951e-07 0)
(1.11439e-09 -2.79149e-07 0)
(1.09695e-09 -2.79345e-07 0)
(1.07949e-09 -2.79537e-07 0)
(1.06201e-09 -2.79727e-07 0)
(1.04452e-09 -2.79915e-07 0)
(1.02701e-09 -2.80099e-07 0)
(1.00948e-09 -2.80281e-07 0)
(9.9194e-10 -2.80461e-07 0)
(9.74384e-10 -2.80637e-07 0)
(9.56815e-10 -2.80811e-07 0)
(9.39231e-10 -2.80982e-07 0)
(9.21634e-10 -2.8115e-07 0)
(9.04024e-10 -2.81316e-07 0)
(8.86402e-10 -2.81478e-07 0)
(8.68767e-10 -2.81638e-07 0)
(8.51122e-10 -2.81795e-07 0)
(8.33464e-10 -2.81949e-07 0)
(8.15797e-10 -2.821e-07 0)
(7.98119e-10 -2.82248e-07 0)
(7.80432e-10 -2.82394e-07 0)
(7.62736e-10 -2.82536e-07 0)
(7.45031e-10 -2.82675e-07 0)
(7.27318e-10 -2.82812e-07 0)
(7.09598e-10 -2.82945e-07 0)
(6.9187e-10 -2.83076e-07 0)
(6.74136e-10 -2.83203e-07 0)
(6.56396e-10 -2.83328e-07 0)
(6.38651e-10 -2.83449e-07 0)
(6.209e-10 -2.83567e-07 0)
(6.03146e-10 -2.83683e-07 0)
(5.85387e-10 -2.83795e-07 0)
(5.67626e-10 -2.83904e-07 0)
(5.49861e-10 -2.84009e-07 0)
(5.32094e-10 -2.84112e-07 0)
(5.14326e-10 -2.84212e-07 0)
(4.96557e-10 -2.84308e-07 0)
(4.78787e-10 -2.84401e-07 0)
(4.61018e-10 -2.84491e-07 0)
(4.43248e-10 -2.84578e-07 0)
(4.25481e-10 -2.84662e-07 0)
(4.07715e-10 -2.84742e-07 0)
(3.89952e-10 -2.84819e-07 0)
(3.72192e-10 -2.84892e-07 0)
(3.54435e-10 -2.84963e-07 0)
(3.36683e-10 -2.8503e-07 0)
(3.18936e-10 -2.85094e-07 0)
(3.01194e-10 -2.85154e-07 0)
(2.83458e-10 -2.85211e-07 0)
(2.65729e-10 -2.85265e-07 0)
(2.48008e-10 -2.85315e-07 0)
(2.30294e-10 -2.85362e-07 0)
(2.12589e-10 -2.85406e-07 0)
(1.94893e-10 -2.85446e-07 0)
(1.77208e-10 -2.85483e-07 0)
(1.59532e-10 -2.85516e-07 0)
(1.41868e-10 -2.85546e-07 0)
(1.24216e-10 -2.85572e-07 0)
(1.06576e-10 -2.85595e-07 0)
(8.89494e-11 -2.85614e-07 0)
(7.13364e-11 -2.85631e-07 0)
(5.37378e-11 -2.85643e-07 0)
(3.61542e-11 -2.85653e-07 0)
(1.85863e-11 -2.85658e-07 0)
(1.03484e-12 -2.85661e-07 0)
(-1.65e-11 -2.85659e-07 0)
(-3.40158e-11 -2.85655e-07 0)
(-5.15192e-11 -2.85646e-07 0)
(-6.89782e-11 -2.85635e-07 0)
(-8.65263e-11 -2.85616e-07 0)
(-1.03593e-10 -2.85613e-07 0)
(-1.22593e-10 -2.85549e-07 0)
(-1.33282e-10 -2.85721e-07 0)
(-1.79101e-10 -2.85427e-07 0)
(-2.38243e-10 -2.85214e-07 0)
(-2.58246e-10 -2.85572e-07 0)
(-2.70309e-10 -2.85497e-07 0)
(-2.80617e-10 -2.85336e-07 0)
(-2.90644e-10 -2.85254e-07 0)
(-3.00752e-10 -2.8522e-07 0)
(-3.11024e-10 -2.85178e-07 0)
(-3.21472e-10 -2.85117e-07 0)
(-3.32098e-10 -2.8505e-07 0)
(-3.42903e-10 -2.84983e-07 0)
(-3.53886e-10 -2.84916e-07 0)
(-3.65045e-10 -2.84845e-07 0)
(-3.76381e-10 -2.84771e-07 0)
(-3.8789e-10 -2.84694e-07 0)
(-3.99572e-10 -2.84613e-07 0)
(-4.11426e-10 -2.8453e-07 0)
(-4.23449e-10 -2.84443e-07 0)
(-4.35641e-10 -2.84352e-07 0)
(-4.47999e-10 -2.84257e-07 0)
(-4.60523e-10 -2.84159e-07 0)
(-4.73209e-10 -2.84057e-07 0)
(-4.86058e-10 -2.83951e-07 0)
(-4.99066e-10 -2.8384e-07 0)
(-5.12232e-10 -2.83725e-07 0)
(-5.25554e-10 -2.83605e-07 0)
(-5.39029e-10 -2.83481e-07 0)
(-5.52657e-10 -2.83351e-07 0)
(-5.66433e-10 -2.83217e-07 0)
(-5.80357e-10 -2.83077e-07 0)
(-5.94426e-10 -2.82932e-07 0)
(-6.08637e-10 -2.8278e-07 0)
(-6.22987e-10 -2.82623e-07 0)
(-6.37475e-10 -2.8246e-07 0)
(-6.52096e-10 -2.8229e-07 0)
(-6.6685e-10 -2.82114e-07 0)
(-6.81732e-10 -2.81931e-07 0)
(-6.96739e-10 -2.81741e-07 0)
(-7.11869e-10 -2.81544e-07 0)
(-7.27118e-10 -2.81339e-07 0)
(-7.42483e-10 -2.81127e-07 0)
(-7.57961e-10 -2.80907e-07 0)
(-7.73547e-10 -2.80679e-07 0)
(-7.8924e-10 -2.80442e-07 0)
(-8.05034e-10 -2.80198e-07 0)
(-8.20927e-10 -2.79944e-07 0)
(-8.36914e-10 -2.79682e-07 0)
(-8.52992e-10 -2.79411e-07 0)
(-8.69157e-10 -2.79131e-07 0)
(-8.85405e-10 -2.78841e-07 0)
(-9.01731e-10 -2.78543e-07 0)
(-9.18132e-10 -2.78234e-07 0)
(-9.34603e-10 -2.77916e-07 0)
(-9.5114e-10 -2.77588e-07 0)
(-9.67739e-10 -2.7725e-07 0)
(-9.84395e-10 -2.76902e-07 0)
(-1.0011e-09 -2.76544e-07 0)
(-1.01786e-09 -2.76176e-07 0)
(-1.03466e-09 -2.75797e-07 0)
(-1.0515e-09 -2.75407e-07 0)
(-1.06837e-09 -2.75007e-07 0)
(-1.08527e-09 -2.74596e-07 0)
(-1.1022e-09 -2.74174e-07 0)
(-1.11914e-09 -2.73742e-07 0)
(-1.1361e-09 -2.73298e-07 0)
(-1.15307e-09 -2.72843e-07 0)
(-1.17003e-09 -2.72376e-07 0)
(-1.187e-09 -2.71899e-07 0)
(-1.20396e-09 -2.71409e-07 0)
(-1.2209e-09 -2.70908e-07 0)
(-1.23782e-09 -2.70395e-07 0)
(-1.25472e-09 -2.69871e-07 0)
(-1.27159e-09 -2.69334e-07 0)
(-1.28842e-09 -2.68785e-07 0)
(-1.3052e-09 -2.68224e-07 0)
(-1.32193e-09 -2.67651e-07 0)
(-1.33861e-09 -2.67065e-07 0)
(-1.35522e-09 -2.66466e-07 0)
(-1.37176e-09 -2.65854e-07 0)
(-1.38822e-09 -2.6523e-07 0)
(-1.4046e-09 -2.64592e-07 0)
(-1.42089e-09 -2.63941e-07 0)
(-1.43707e-09 -2.63276e-07 0)
(-1.45315e-09 -2.62598e-07 0)
(-1.46912e-09 -2.61906e-07 0)
(-1.48497e-09 -2.612e-07 0)
(-1.50069e-09 -2.6048e-07 0)
(-1.51627e-09 -2.59745e-07 0)
(-1.53171e-09 -2.58997e-07 0)
(-1.54699e-09 -2.58233e-07 0)
(-1.56212e-09 -2.57455e-07 0)
(-1.57707e-09 -2.56662e-07 0)
(-1.59185e-09 -2.55854e-07 0)
(-1.60644e-09 -2.5503e-07 0)
(-1.62084e-09 -2.54191e-07 0)
(-1.63504e-09 -2.53336e-07 0)
(-1.64902e-09 -2.52466e-07 0)
(-1.66279e-09 -2.5158e-07 0)
(-1.67632e-09 -2.50678e-07 0)
(-1.68963e-09 -2.49759e-07 0)
(-1.70268e-09 -2.48824e-07 0)
(-1.71548e-09 -2.47873e-07 0)
(-1.72802e-09 -2.46905e-07 0)
(-1.74028e-09 -2.4592e-07 0)
(-1.75226e-09 -2.44918e-07 0)
(-1.76396e-09 -2.439e-07 0)
(-1.77535e-09 -2.42864e-07 0)
(-1.78644e-09 -2.41811e-07 0)
(-1.7972e-09 -2.4074e-07 0)
(-1.80765e-09 -2.39652e-07 0)
(-1.81776e-09 -2.38547e-07 0)
(-1.82752e-09 -2.37424e-07 0)
(-1.83694e-09 -2.36283e-07 0)
(-1.84599e-09 -2.35125e-07 0)
(-1.85468e-09 -2.33949e-07 0)
(-1.86299e-09 -2.32755e-07 0)
(-1.87092e-09 -2.31544e-07 0)
(-1.87845e-09 -2.30314e-07 0)
(-1.88558e-09 -2.29067e-07 0)
(-1.89231e-09 -2.27802e-07 0)
(-1.89862e-09 -2.26519e-07 0)
(-1.90451e-09 -2.25218e-07 0)
(-1.90998e-09 -2.239e-07 0)
(-1.915e-09 -2.22564e-07 0)
(-1.91959e-09 -2.21211e-07 0)
(-1.92373e-09 -2.1984e-07 0)
(-1.92741e-09 -2.18451e-07 0)
(-1.93064e-09 -2.17045e-07 0)
(-1.9334e-09 -2.15622e-07 0)
(-1.93569e-09 -2.14182e-07 0)
(-1.93751e-09 -2.12725e-07 0)
(-1.93884e-09 -2.11252e-07 0)
(-1.9397e-09 -2.09762e-07 0)
(-1.94007e-09 -2.08255e-07 0)
(-1.93995e-09 -2.06732e-07 0)
(-1.93934e-09 -2.05193e-07 0)
(-1.93823e-09 -2.03638e-07 0)
(-1.93662e-09 -2.02068e-07 0)
(-1.93451e-09 -2.00482e-07 0)
(-1.9319e-09 -1.98881e-07 0)
(-1.92878e-09 -1.97265e-07 0)
(-1.92516e-09 -1.95635e-07 0)
(-1.92103e-09 -1.9399e-07 0)
(-1.91639e-09 -1.92332e-07 0)
(-1.91124e-09 -1.9066e-07 0)
(-1.90558e-09 -1.88974e-07 0)
(-1.89941e-09 -1.87276e-07 0)
(-1.89273e-09 -1.85565e-07 0)
(-1.88555e-09 -1.83842e-07 0)
(-1.87786e-09 -1.82107e-07 0)
(-1.86966e-09 -1.80361e-07 0)
(-1.86096e-09 -1.78604e-07 0)
(-1.85175e-09 -1.76836e-07 0)
(-1.84205e-09 -1.75059e-07 0)
(-1.83185e-09 -1.73271e-07 0)
(-1.82117e-09 -1.71475e-07 0)
(-1.80999e-09 -1.6967e-07 0)
(-1.79834e-09 -1.67857e-07 0)
(-1.78622e-09 -1.66037e-07 0)
(-1.77363e-09 -1.6421e-07 0)
(-1.76058e-09 -1.62376e-07 0)
(-1.74708e-09 -1.60536e-07 0)
(-1.73315e-09 -1.58691e-07 0)
(-1.7188e-09 -1.56841e-07 0)
(-1.70402e-09 -1.54987e-07 0)
(-1.68884e-09 -1.5313e-07 0)
(-1.67327e-09 -1.51269e-07 0)
(-1.65732e-09 -1.49406e-07 0)
(-1.641e-09 -1.47541e-07 0)
(-1.62432e-09 -1.45675e-07 0)
(-1.6073e-09 -1.43808e-07 0)
(-1.58995e-09 -1.41941e-07 0)
(-1.57228e-09 -1.40074e-07 0)
(-1.55431e-09 -1.38208e-07 0)
(-1.53605e-09 -1.36344e-07 0)
(-1.5175e-09 -1.34483e-07 0)
(-1.49869e-09 -1.32623e-07 0)
(-1.47963e-09 -1.30771e-07 0)
(-1.46033e-09 -1.28908e-07 0)
(-1.44074e-09 -1.27092e-07 0)
(-1.42118e-09 -1.25099e-07 0)
(-1.40023e-09 -1.23455e-07 0)
(-1.37286e-09 -1.21551e-07 0)
(-1.34359e-09 -1.19068e-07 0)
(-1.318e-09 -1.16945e-07 0)
(-1.29343e-09 -1.1491e-07 0)
(-1.26925e-09 -1.12854e-07 0)
(-1.24527e-09 -1.10805e-07 0)
(-1.22148e-09 -1.088e-07 0)
(-1.19787e-09 -1.06844e-07 0)
(-1.17448e-09 -1.04929e-07 0)
(-1.1513e-09 -1.03049e-07 0)
(-1.12836e-09 -1.01205e-07 0)
(-1.10566e-09 -9.93987e-08 0)
(-1.08322e-09 -9.76288e-08 0)
(-1.06103e-09 -9.58952e-08 0)
(-1.03912e-09 -9.41971e-08 0)
(-1.01748e-09 -9.25343e-08 0)
(-9.96117e-10 -9.09061e-08 0)
(-9.75044e-10 -8.93124e-08 0)
(-9.54257e-10 -8.77524e-08 0)
(-9.33763e-10 -8.62259e-08 0)
(-9.13558e-10 -8.4732e-08 0)
(-8.93648e-10 -8.32707e-08 0)
(-8.74029e-10 -8.18411e-08 0)
(-8.54704e-10 -8.04431e-08 0)
(-8.35667e-10 -7.90758e-08 0)
(-8.16922e-10 -7.77392e-08 0)
(-7.98462e-10 -7.64324e-08 0)
(-7.8029e-10 -7.51553e-08 0)
(-7.62378e-10 -7.39052e-08 0)
(-7.44741e-10 -7.26832e-08 0)
(-7.27394e-10 -7.14906e-08 0)
(-7.10331e-10 -7.03267e-08 0)
(-6.93539e-10 -6.91903e-08 0)
(-6.7702e-10 -6.80812e-08 0)
(-6.60763e-10 -6.69984e-08 0)
(-6.44771e-10 -6.5942e-08 0)
(-6.29034e-10 -6.49109e-08 0)
(-6.13554e-10 -6.39054e-08 0)
(-5.98324e-10 -6.29245e-08 0)
(-5.83344e-10 -6.19684e-08 0)
(-5.68608e-10 -6.1036e-08 0)
(-5.54116e-10 -6.01276e-08 0)
(-5.39862e-10 -5.92424e-08 0)
(-5.25844e-10 -5.83801e-08 0)
(-5.12058e-10 -5.75404e-08 0)
(-4.98501e-10 -5.67228e-08 0)
(-4.85169e-10 -5.59272e-08 0)
(-4.72058e-10 -5.51528e-08 0)
(-4.59166e-10 -5.43997e-08 0)
(-4.46485e-10 -5.36671e-08 0)
(-4.34016e-10 -5.29551e-08 0)
(-4.2175e-10 -5.22629e-08 0)
(-4.09688e-10 -5.15907e-08 0)
(-3.97819e-10 -5.09375e-08 0)
(-3.86146e-10 -5.03037e-08 0)
(-3.74656e-10 -4.96883e-08 0)
(-3.63353e-10 -4.90917e-08 0)
(-3.52224e-10 -4.85127e-08 0)
(-3.41272e-10 -4.79521e-08 0)
(-3.30486e-10 -4.74086e-08 0)
(-3.19866e-10 -4.68828e-08 0)
(-3.09402e-10 -4.63736e-08 0)
(-2.99096e-10 -4.58815e-08 0)
(-2.88936e-10 -4.54057e-08 0)
(-2.78922e-10 -4.49465e-08 0)
(-2.69047e-10 -4.4503e-08 0)
(-2.59308e-10 -4.40757e-08 0)
(-2.49697e-10 -4.36638e-08 0)
(-2.40213e-10 -4.32676e-08 0)
(-2.30848e-10 -4.28864e-08 0)
(-2.21599e-10 -4.25204e-08 0)
(-2.1246e-10 -4.21692e-08 0)
(-2.03426e-10 -4.18328e-08 0)
(-1.94492e-10 -4.15108e-08 0)
(-1.85652e-10 -4.12033e-08 0)
(-1.76898e-10 -4.09093e-08 0)
(-1.68226e-10 -4.06293e-08 0)
(-1.59632e-10 -4.03633e-08 0)
(-1.51111e-10 -4.01118e-08 0)
(-1.42654e-10 -3.98738e-08 0)
(-1.34256e-10 -3.96498e-08 0)
(-1.2591e-10 -3.9439e-08 0)
(-1.17612e-10 -3.92421e-08 0)
(-1.09356e-10 -3.90582e-08 0)
(-1.01144e-10 -3.8888e-08 0)
(-9.29768e-11 -3.87308e-08 0)
(-8.48645e-11 -3.85864e-08 0)
(-7.6825e-11 -3.84579e-08 0)
(-6.88707e-11 -3.83315e-08 0)
(-6.10767e-11 -3.82546e-08 0)
(-5.32735e-11 -3.8064e-08 0)
(-4.61311e-11 -3.82902e-08 0)
(-3.67506e-11 -3.7082e-08 0)
(-3.62202e-11 -4.00639e-08 0)
(-2.09487e-11 -3.49427e-08 0)
)
;
    }
    bottomWall
    {
        type            calculated;
        value           nonuniform List<vector> 
449
(
(-54.3198 -0.963752 0)
(-36.5243 -0.00289781 0)
(-35.1856 -0.000437555 0)
(-33.5501 -0.000454349 0)
(-32.0944 -0.000397905 0)
(-30.8335 -0.00033196 0)
(-29.8292 -0.000263291 0)
(-29.0367 -0.00021186 0)
(-28.3805 -0.000174021 0)
(-27.8448 -0.00014335 0)
(-27.3978 -0.000119704 0)
(-27.0233 -9.90436e-05 0)
(-26.7174 -8.54875e-05 0)
(-26.433 -7.79297e-05 0)
(-26.1781 -6.66649e-05 0)
(-25.9736 -5.63326e-05 0)
(-25.7892 -5.12425e-05 0)
(-25.6193 -4.20249e-05 0)
(-25.5 -3.70276e-05 0)
(-25.3627 -3.46947e-05 0)
(-25.2587 -2.97943e-05 0)
(-25.1555 -2.70931e-05 0)
(-25.0703 -2.22084e-05 0)
(-25.0019 -2.05794e-05 0)
(-24.9255 -2.42724e-05 0)
(-24.8288 -2.3337e-05 0)
(-24.7603 -1.91568e-05 0)
(-24.6944 -1.62264e-05 0)
(-24.6472 -1.17047e-05 0)
(-24.6131 -1.19411e-05 0)
(-24.5618 -1.58183e-05 0)
(-24.4994 -1.4968e-05 0)
(-24.4559 -1.15285e-05 0)
(-24.4191 -8.82748e-06 0)
(-24.395 -7.1798e-06 0)
(-24.3686 -8.91218e-06 0)
(-24.331 -8.96524e-06 0)
(-24.3052 -6.6288e-06 0)
(-24.284 -8.53377e-06 0)
(-24.2424 -9.69592e-06 0)
(-24.213 -7.93657e-06 0)
(-24.1854 -6.74878e-06 0)
(-24.1645 -6.08229e-06 0)
(-24.1412 -6.87026e-06 0)
(-24.1149 -5.47348e-06 0)
(-24.1025 -3.67284e-06 0)
(-24.0894 -3.62769e-06 0)
(-24.0773 -2.83057e-06 0)
(-24.0696 -3.20144e-06 0)
(-24.0535 -4.66177e-06 0)
(-24.0351 -3.60436e-06 0)
(-24.0279 -2.02558e-06 0)
(-24.0209 -3.54755e-06 0)
(-24.0012 -4.92041e-06 0)
(-23.9838 -4.3309e-06 0)
(-23.969 -3.46815e-06 0)
(-23.9583 -2.53825e-06 0)
(-23.9503 -2.35165e-06 0)
(-23.9404 -3.15068e-06 0)
(-23.9262 -2.78393e-06 0)
(-23.9195 -2.24466e-06 0)
(-23.9098 -2.22713e-06 0)
(-23.9031 -1.81097e-06 0)
(-23.8966 -1.30225e-06 0)
(-23.8943 -4.31449e-07 0)
(-23.8943 -7.36866e-07 0)
(-23.8887 -2.60693e-06 0)
(-23.8738 -3.22272e-06 0)
(-23.8637 -1.84902e-06 0)
(-23.8598 -1.21825e-06 0)
(-23.8543 -2.98166e-06 0)
(-23.8357 -4.06264e-06 0)
(-23.8222 -2.50157e-06 0)
(-23.8167 -1.45363e-06 0)
(-23.8115 -9.71133e-07 0)
(-23.8098 -3.10755e-07 0)
(-23.8097 2.06948e-07 0)
(-23.8123 9.47093e-07 0)
(-23.818 3.59857e-07 0)
(-23.8151 -1.96658e-06 0)
(-23.8016 -2.36578e-06 0)
(-23.7962 -2.46509e-07 0)
(-23.8009 6.95768e-07 0)
(-23.8027 1.35774e-07 0)
(-23.8018 -1.13142e-06 0)
(-23.7927 -2.85456e-06 0)
(-23.7782 -2.31948e-06 0)
(-23.7747 2.24678e-07 0)
(-23.7818 1.14041e-06 0)
(-23.7852 4.96611e-07 0)
(-23.786 2.02069e-07 0)
(-23.7869 5.28093e-07 0)
(-23.7906 7.00137e-07 0)
(-23.793 -2.06862e-07 0)
(-23.7886 -1.64207e-06 0)
(-23.7788 -1.60628e-06 0)
(-23.7754 1.66215e-07 0)
(-23.7811 8.17523e-07 0)
(-23.7827 -5.31441e-08 0)
(-23.7805 -1.55581e-07 0)
(-23.782 3.75335e-07 0)
(-23.7845 4.0999e-07 0)
(-23.7857 1.90767e-07 0)
(-23.7861 -1.15724e-07 0)
(-23.7844 -8.98506e-07 0)
(-23.7777 -1.87947e-06 0)
(-23.7674 -2.49481e-06 0)
(-23.7559 -1.67052e-06 0)
(-23.7533 -3.85395e-07 0)
(-23.7529 2.47928e-08 0)
(-23.7538 6.81868e-07 0)
(-23.7596 1.22799e-06 0)
(-23.7654 7.45081e-07 0)
(-23.7664 -4.40717e-07 0)
(-23.7609 -1.29732e-06 0)
(-23.7544 -1.04081e-06 0)
(-23.752 -3.44108e-07 0)
(-23.7516 -6.367e-07 0)
(-23.7459 -1.36542e-06 0)
(-23.7392 -7.52053e-07 0)
(-23.7397 2.04159e-07 0)
(-23.7413 -9.88005e-08 0)
(-23.7386 -1.18541e-07 0)
(-23.7401 5.1516e-07 0)
(-23.7435 2.33915e-07 0)
(-23.7423 -1.39857e-07 0)
(-23.7419 -4.75222e-07 0)
(-23.7375 -1.25287e-06 0)
(-23.7301 -1.62246e-06 0)
(-23.7232 -7.22791e-07 0)
(-23.7247 2.13778e-07 0)
(-23.726 7.88047e-08 0)
(-23.7257 -7.91185e-08 0)
(-23.7254 5.81327e-07 0)
(-23.7318 8.46854e-07 0)
(-23.7337 2.64945e-07 0)
(-23.734 -1.65261e-07 0)
(-23.732 -3.46818e-07 0)
(-23.7308 1.6576e-07 0)
(-23.7337 3.31722e-07 0)
(-23.7335 -2.60111e-07 0)
(-23.7305 -7.45879e-07 0)
(-23.7261 -9.54685e-07 0)
(-23.7215 -5.75203e-07 0)
(-23.721 -2.15576e-07 0)
(-23.7198 -1.3192e-07 0)
(-23.72 1.88626e-07 0)
(-23.7217 -2.26286e-07 0)
(-23.7175 -7.61699e-07 0)
(-23.7142 -5.63571e-07 0)
(-23.7126 -6.91555e-08 0)
(-23.7145 8.62115e-07 0)
(-23.7218 9.02546e-07 0)
(-23.7235 1.87867e-07 0)
(-23.7236 4.48507e-07 0)
(-23.7285 6.91479e-07 0)
(-23.7307 3.40666e-07 0)
(-23.7316 6.13184e-08 0)
(-23.7311 -3.99734e-07 0)
(-23.7272 -8.24146e-07 0)
(-23.7227 -6.85048e-07 0)
(-23.7206 2.57622e-07 0)
(-23.7257 5.35361e-07 0)
(-23.726 -3.77259e-07 0)
(-23.7217 -2.86293e-07 0)
(-23.7232 1.46459e-07 0)
(-23.7232 -2.13287e-07 0)
(-23.7208 -5.67395e-07 0)
(-23.7172 -3.90244e-07 0)
(-23.7166 -1.92302e-07 0)
(-23.7149 -7.16679e-07 0)
(-23.709 -8.81539e-07 0)
(-23.7062 8.07963e-08 0)
(-23.7105 8.83238e-07 0)
(-23.7149 1.13218e-07 0)
(-23.711 -8.66518e-07 0)
(-23.7063 -5.85605e-07 0)
(-23.7054 -6.10795e-08 0)
(-23.706 3.02923e-07 0)
(-23.7088 2.46773e-07 0)
(-23.7085 -4.82634e-07 0)
(-23.7038 -4.02489e-07 0)
(-23.7048 1.17021e-06 0)
(-23.7162 1.17546e-06 0)
(-23.7164 -3.57493e-07 0)
(-23.712 -8.40229e-07 0)
(-23.7078 -5.32162e-07 0)
(-23.7066 8.01541e-08 0)
(-23.709 6.51892e-07 0)
(-23.7141 4.79901e-07 0)
(-23.7141 -1.71216e-07 0)
(-23.7119 -5.41737e-08 0)
(-23.7138 2.60211e-07 0)
(-23.7152 1.16934e-08 0)
(-23.7138 -6.94727e-07 0)
(-23.7067 -1.20845e-06 0)
(-23.6995 -5.42981e-07 0)
(-23.7008 1.81044e-07 0)
(-23.702 1.12064e-07 0)
(-23.7025 1.28084e-07 0)
(-23.704 1.6112e-07 0)
(-23.7046 1.71951e-07 0)
(-23.7064 2.40663e-07 0)
(-23.7078 -3.46567e-07 0)
(-23.7015 -9.12874e-07 0)
(-23.6959 -4.4256e-07 0)
(-23.6967 4.97244e-07 0)
(-23.7035 8.89393e-07 0)
(-23.7089 1.23684e-06 0)
(-23.7203 1.18341e-06 0)
(-23.7248 2.145e-07 0)
(-23.7228 -2.40732e-07 0)
(-23.7213 -1.61919e-08 0)
(-23.7225 1.47458e-07 0)
(-23.7234 4.66147e-07 0)
(-23.7294 4.14754e-07 0)
(-23.7291 -1.63574e-07 0)
(-23.7266 -1.33064e-07 0)
(-23.7274 -7.25005e-08 0)
(-23.7255 -3.99711e-07 0)
(-23.7211 -3.57291e-07 0)
(-23.7203 -2.03216e-07 0)
(-23.7181 -3.61295e-07 0)
(-23.7146 -4.6669e-07 0)
(-23.7108 -2.5261e-07 0)
(-23.7108 -8.49317e-08 0)
(-23.7095 -3.26499e-07 0)
(-23.7053 -3.61024e-07 0)
(-23.7034 -2.42364e-07 0)
(-23.7012 -3.18348e-07 0)
(-23.6981 -4.60702e-07 0)
(-23.6935 -6.83672e-07 0)
(-23.6867 -3.04584e-07 0)
(-23.6889 6.71597e-07 0)
(-23.6992 7.53064e-07 0)
(-23.7025 2.42312e-07 0)
(-23.7034 -1.06431e-07 0)
(-23.7 -4.34816e-07 0)
(-23.695 -4.1169e-07 0)
(-23.6924 -1.52757e-07 0)
(-23.6923 3.11814e-07 0)
(-23.699 5.70984e-07 0)
(-23.7034 1.95941e-07 0)
(-23.7023 -1.37493e-07 0)
(-23.7003 -8.8676e-08 0)
(-23.7004 -1.65971e-08 0)
(-23.7003 -4.75782e-08 0)
(-23.6995 -3.90587e-07 0)
(-23.6919 -5.01426e-07 0)
(-23.6895 -1.12115e-07 0)
(-23.6903 3.86843e-08 0)
(-23.6905 1.83124e-07 0)
(-23.6945 4.43419e-07 0)
(-23.7002 1.82322e-07 0)
(-23.6982 -3.08241e-07 0)
(-23.6929 -6.10884e-07 0)
(-23.6842 -4.74182e-07 0)
(-23.6828 3.70999e-07 0)
(-23.6939 7.27748e-07 0)
(-23.7001 2.70558e-07 0)
(-23.6997 -3.29898e-07 0)
(-23.6916 -4.06128e-07 0)
(-23.69 -1.38096e-07 0)
(-23.6886 -6.64445e-08 0)
(-23.6884 1.31234e-07 0)
(-23.6919 1.16053e-07 0)
(-23.6912 -1.08765e-07 0)
(-23.689 -1.03686e-07 0)
(-23.6888 1.13009e-08 0)
(-23.6896 1.12759e-07 0)
(-23.6919 2.07432e-07 0)
(-23.695 1.08735e-07 0)
(-23.6943 -2.02855e-07 0)
(-23.689 -1.34491e-07 0)
(-23.6909 2.33797e-07 0)
(-23.696 9.58079e-08 0)
(-23.6937 4.54672e-09 0)
(-23.6963 8.53023e-08 0)
(-23.696 -1.75203e-07 0)
(-23.6908 -2.40841e-07 0)
(-23.6892 -1.50574e-08 0)
(-23.691 1.43671e-07 0)
(-23.6937 9.38565e-08 0)
(-23.6935 -5.26921e-08 0)
(-23.6914 -8.51553e-08 0)
(-23.6905 -1.01172e-07 0)
(-23.6883 -2.77807e-07 0)
(-23.6818 -1.62127e-07 0)
(-23.6837 2.1882e-07 0)
(-23.6894 1.10358e-07 0)
(-23.6872 -7.28735e-08 0)
(-23.687 1.64343e-07 0)
(-23.6928 1.47518e-07 0)
(-23.6919 1.28065e-08 0)
(-23.6932 2.63099e-07 0)
(-23.7008 2.87618e-07 0)
(-23.7028 3.51053e-08 0)
(-23.7018 -7.95258e-08 0)
(-23.7 -1.60738e-07 0)
(-23.6961 -1.07789e-07 0)
(-23.6964 4.59208e-08 0)
(-23.6982 -1.8284e-08 0)
(-23.6957 -3.57141e-08 0)
(-23.6969 7.51244e-08 0)
(-23.6985 -2.70812e-08 0)
(-23.6955 -7.84624e-08 0)
(-23.6954 -4.09116e-08 0)
(-23.694 -1.48257e-07 0)
(-23.6898 -1.77606e-07 0)
(-23.6873 -1.12367e-08 0)
(-23.6897 6.45642e-08 0)
(-23.69 -2.2027e-08 0)
(-23.6887 8.83121e-08 0)
(-23.6937 1.93602e-07 0)
(-23.6963 -4.94322e-08 0)
(-23.6909 -1.50054e-07 0)
(-23.69 -8.88151e-08 0)
(-23.6871 -1.89293e-07 0)
(-23.6818 -7.97046e-08 0)
(-23.6843 6.40678e-08 0)
(-23.6851 4.85592e-08 0)
(-23.6866 2.34235e-07 0)
(-23.6958 3.4408e-07 0)
(-23.7021 4.1401e-08 0)
(-23.697 -1.93872e-07 0)
(-23.6926 -1.89144e-07 0)
(-23.6882 -1.38627e-07 0)
(-23.6864 2.07983e-09 0)
(-23.6887 9.76284e-08 0)
(-23.6913 1.38782e-07 0)
(-23.6956 1.53519e-07 0)
(-23.6988 7.42911e-08 0)
(-23.6988 -1.79962e-07 0)
(-23.6888 -2.88758e-07 0)
(-23.6839 -1.16054e-07 0)
(-23.6835 5.93935e-08 0)
(-23.6876 3.85987e-08 0)
(-23.6854 -1.28987e-07 0)
(-23.6803 -9.22539e-08 0)
(-23.6808 -4.54857e-08 0)
(-23.6782 -1.28045e-08 0)
(-23.6803 1.39674e-07 0)
(-23.6862 1.85144e-07 0)
(-23.6906 1.33927e-07 0)
(-23.6936 -8.55946e-09 0)
(-23.6898 -2.903e-08 0)
(-23.692 1.36633e-07 0)
(-23.6982 8.55251e-08 0)
(-23.697 -8.7995e-08 0)
(-23.6926 -1.03912e-07 0)
(-23.6905 -1.1222e-07 0)
(-23.6855 -1.19003e-07 0)
(-23.6832 2.76385e-08 0)
(-23.6879 3.83108e-08 0)
(-23.6857 -1.81721e-08 0)
(-23.6866 8.96991e-08 0)
(-23.6928 8.30212e-08 0)
(-23.6929 -5.65068e-08 0)
(-23.6881 -3.32824e-08 0)
(-23.6905 7.57914e-08 0)
(-23.6943 4.20315e-08 0)
(-23.6938 -7.20515e-09 0)
(-23.6937 -1.91538e-08 0)
(-23.6922 -4.21361e-08 0)
(-23.6903 -8.13334e-08 0)
(-23.6857 -5.35144e-08 0)
(-23.6859 -5.65135e-08 0)
(-23.681 -7.5187e-08 0)
(-23.68 3.37363e-08 0)
(-23.6839 6.52038e-08 0)
(-23.6852 -6.55482e-09 0)
(-23.6834 -3.68401e-08 0)
(-23.6823 2.89542e-08 0)
(-23.6858 3.46741e-08 0)
(-23.6851 -1.53325e-08 0)
(-23.6845 2.15347e-08 0)
(-23.6868 8.41367e-09 0)
(-23.6852 -8.67898e-09 0)
(-23.6861 1.89964e-08 0)
(-23.6866 -9.61157e-09 0)
(-23.6853 -1.39541e-08 0)
(-23.6856 -1.78149e-08 0)
(-23.6841 -1.25157e-09 0)
(-23.6857 9.66339e-08 0)
(-23.6917 9.15427e-08 0)
(-23.6927 -3.17203e-08 0)
(-23.6889 -4.34598e-08 0)
(-23.6891 -4.25292e-08 0)
(-23.6854 -8.87151e-08 0)
(-23.682 -1.3242e-08 0)
(-23.6847 -3.39151e-09 0)
(-23.6821 -4.26688e-08 0)
(-23.6815 2.2318e-08 0)
(-23.6839 5.26716e-08 0)
(-23.6855 5.64232e-08 0)
(-23.6883 3.97873e-08 0)
(-23.6886 -1.97284e-08 0)
(-23.6867 -1.50761e-08 0)
(-23.6873 -4.88126e-08 0)
(-23.6827 -9.80735e-08 0)
(-23.6797 -5.22997e-08 0)
(-23.6788 3.16697e-08 0)
(-23.6823 2.75517e-09 0)
(-23.6788 -9.77916e-08 0)
(-23.6745 -4.27923e-08 0)
(-23.6758 7.12838e-08 0)
(-23.6803 9.96678e-08 0)
(-23.6837 2.78846e-09 0)
(-23.6805 -2.93069e-08 0)
(-23.6814 8.52358e-08 0)
(-23.6873 4.96593e-08 0)
(-23.6851 -2.69474e-08 0)
(-23.685 3.77969e-08 0)
(-23.6881 2.93843e-08 0)
(-23.6872 -2.47644e-08 0)
(-23.6861 -4.24978e-08 0)
(-23.684 -9.76554e-09 0)
(-23.6856 6.07631e-08 0)
(-23.689 4.63161e-08 0)
(-23.689 -2.10299e-08 0)
(-23.687 -3.69646e-08 0)
(-23.686 -4.03548e-08 0)
(-23.6837 -4.30731e-08 0)
(-23.6825 -5.53302e-08 0)
(-23.6794 -3.99332e-08 0)
(-23.6794 4.19191e-08 0)
(-23.6829 -1.45225e-08 0)
(-23.6785 -8.05987e-08 0)
(-23.6768 6.26714e-08 0)
(-23.6838 1.31782e-07 0)
(-23.6871 2.51544e-08 0)
(-23.6854 -9.28769e-09 0)
(-23.6863 1.92492e-08 0)
(-23.6868 3.17116e-08 0)
(-23.6886 -2.47332e-08 0)
(-23.6847 -9.67563e-08 0)
(-23.6808 -2.85944e-09 0)
(-23.6847 5.40308e-08 0)
(-23.6853 1.24739e-08 0)
(-23.6857 -4.87382e-08 0)
(-23.6814 -7.96182e-08 0)
(-23.6794 -5.02252e-08 0)
(-23.6776 1.23463e-08 0)
(-23.6806 8.11204e-08 0)
(-23.6841 2.66821e-08 0)
(-23.6826 -3.09e-08 0)
(-23.6815 -1.29636e-08 0)
(-23.6815 5.02583e-08 0)
(-23.6855 5.04729e-08 0)
)
;
    }
    symmetry
    {
        type            symmetryPlane;
    }
    frontAndBack
    {
        type            empty;
    }
}


// ************************************************************************* //
