/*--------------------------------*- C++ -*----------------------------------*\
| =========                 |                                                 |
| \\      /  F ield         | OpenFOAM: The Open Source CFD Toolbox           |
|  \\    /   O peration     | Version:  v2012                                 |
|   \\  /    A nd           | Website:  www.openfoam.com                      |
|    \\/     M anipulation  |                                                 |
\*---------------------------------------------------------------------------*/
FoamFile
{
    version     2.0;
    format      ascii;
    class       volVectorField;
    location    "37";
    object      wallShearStress;
}
// * * * * * * * * * * * * * * * * * * * * * * * * * * * * * * * * * * * * * //

dimensions      [0 2 -2 0 0 0 0];


internalField   uniform (0 0 0);

boundaryField
{
    inlet
    {
        type            calculated;
        value           uniform (0 0 0);
    }
    outlet
    {
        type            calculated;
        value           uniform (0 0 0);
    }
    topWall
    {
        type            calculated;
        value           nonuniform List<vector> 
545
(
(1.48678e-08 -1.04656e-08 0)
(1.4861e-08 -2.9279e-08 0)
(1.48472e-08 -4.88405e-08 0)
(1.48267e-08 -6.78282e-08 0)
(1.48006e-08 -8.59951e-08 0)
(1.47693e-08 -1.03572e-07 0)
(1.47334e-08 -1.20708e-07 0)
(1.46931e-08 -1.37393e-07 0)
(1.46489e-08 -1.53589e-07 0)
(1.46012e-08 -1.69295e-07 0)
(1.45503e-08 -1.8453e-07 0)
(1.44966e-08 -1.99314e-07 0)
(1.44404e-08 -2.13655e-07 0)
(1.43819e-08 -2.27562e-07 0)
(1.43214e-08 -2.41047e-07 0)
(1.42593e-08 -2.54119e-07 0)
(1.41957e-08 -2.66791e-07 0)
(1.41308e-08 -2.79073e-07 0)
(1.40649e-08 -2.90976e-07 0)
(1.39981e-08 -3.0251e-07 0)
(1.39306e-08 -3.13687e-07 0)
(1.38627e-08 -3.24516e-07 0)
(1.37943e-08 -3.35008e-07 0)
(1.37258e-08 -3.45172e-07 0)
(1.36571e-08 -3.5502e-07 0)
(1.35884e-08 -3.64559e-07 0)
(1.35199e-08 -3.738e-07 0)
(1.34516e-08 -3.82752e-07 0)
(1.33836e-08 -3.91424e-07 0)
(1.3316e-08 -3.99825e-07 0)
(1.32488e-08 -4.07963e-07 0)
(1.31822e-08 -4.15846e-07 0)
(1.31162e-08 -4.23483e-07 0)
(1.30508e-08 -4.30881e-07 0)
(1.29862e-08 -4.38049e-07 0)
(1.29223e-08 -4.44993e-07 0)
(1.28591e-08 -4.51721e-07 0)
(1.27968e-08 -4.58239e-07 0)
(1.27354e-08 -4.64555e-07 0)
(1.26748e-08 -4.70675e-07 0)
(1.26151e-08 -4.76606e-07 0)
(1.25563e-08 -4.82353e-07 0)
(1.24985e-08 -4.87923e-07 0)
(1.24416e-08 -4.9332e-07 0)
(1.23856e-08 -4.98552e-07 0)
(1.23307e-08 -5.03623e-07 0)
(1.22767e-08 -5.08539e-07 0)
(1.22236e-08 -5.13304e-07 0)
(1.21716e-08 -5.17924e-07 0)
(1.21205e-08 -5.22403e-07 0)
(1.20704e-08 -5.26745e-07 0)
(1.20213e-08 -5.30956e-07 0)
(1.19731e-08 -5.35039e-07 0)
(1.19259e-08 -5.38999e-07 0)
(1.18796e-08 -5.42839e-07 0)
(1.18343e-08 -5.46563e-07 0)
(1.179e-08 -5.50176e-07 0)
(1.17465e-08 -5.5368e-07 0)
(1.1704e-08 -5.5708e-07 0)
(1.16624e-08 -5.60378e-07 0)
(1.16217e-08 -5.63577e-07 0)
(1.15819e-08 -5.66682e-07 0)
(1.15429e-08 -5.69694e-07 0)
(1.15049e-08 -5.72618e-07 0)
(1.14676e-08 -5.75454e-07 0)
(1.14312e-08 -5.78208e-07 0)
(1.13956e-08 -5.8088e-07 0)
(1.13609e-08 -5.83473e-07 0)
(1.13269e-08 -5.85991e-07 0)
(1.12937e-08 -5.88435e-07 0)
(1.12612e-08 -5.90808e-07 0)
(1.12297e-08 -5.93109e-07 0)
(1.11992e-08 -5.9532e-07 0)
(1.11691e-08 -5.97462e-07 0)
(1.11394e-08 -5.99579e-07 0)
(1.11097e-08 -6.01683e-07 0)
(1.10802e-08 -6.03776e-07 0)
(1.10507e-08 -6.05853e-07 0)
(1.10212e-08 -6.07915e-07 0)
(1.09918e-08 -6.09961e-07 0)
(1.09625e-08 -6.11993e-07 0)
(1.09332e-08 -6.1401e-07 0)
(1.0904e-08 -6.16013e-07 0)
(1.08749e-08 -6.18001e-07 0)
(1.08458e-08 -6.19975e-07 0)
(1.08167e-08 -6.21934e-07 0)
(1.07878e-08 -6.2388e-07 0)
(1.07589e-08 -6.25811e-07 0)
(1.07301e-08 -6.27728e-07 0)
(1.07013e-08 -6.29631e-07 0)
(1.06726e-08 -6.31521e-07 0)
(1.0644e-08 -6.33397e-07 0)
(1.06154e-08 -6.35259e-07 0)
(1.0587e-08 -6.37107e-07 0)
(1.05583e-08 -6.38946e-07 0)
(1.0531e-08 -6.40751e-07 0)
(1.05059e-08 -6.42404e-07 0)
(1.04816e-08 -6.43899e-07 0)
(1.04582e-08 -6.45353e-07 0)
(1.04348e-08 -6.46812e-07 0)
(1.04115e-08 -6.48284e-07 0)
(1.03881e-08 -6.49758e-07 0)
(1.03645e-08 -6.51229e-07 0)
(1.03409e-08 -6.52699e-07 0)
(1.03172e-08 -6.54169e-07 0)
(1.02934e-08 -6.5564e-07 0)
(1.02695e-08 -6.57111e-07 0)
(1.02455e-08 -6.58582e-07 0)
(1.02214e-08 -6.60053e-07 0)
(1.01973e-08 -6.61524e-07 0)
(1.0173e-08 -6.62994e-07 0)
(1.01486e-08 -6.64465e-07 0)
(1.01242e-08 -6.65936e-07 0)
(1.00996e-08 -6.67407e-07 0)
(1.0075e-08 -6.68877e-07 0)
(1.00502e-08 -6.70347e-07 0)
(1.00254e-08 -6.71818e-07 0)
(1.00005e-08 -6.73288e-07 0)
(9.97546e-09 -6.74757e-07 0)
(9.95035e-09 -6.76227e-07 0)
(9.92514e-09 -6.77696e-07 0)
(9.89983e-09 -6.79165e-07 0)
(9.87443e-09 -6.80634e-07 0)
(9.84894e-09 -6.82103e-07 0)
(9.82335e-09 -6.83571e-07 0)
(9.79767e-09 -6.85038e-07 0)
(9.77189e-09 -6.86506e-07 0)
(9.74602e-09 -6.87973e-07 0)
(9.72005e-09 -6.89439e-07 0)
(9.69399e-09 -6.90905e-07 0)
(9.66783e-09 -6.9237e-07 0)
(9.64158e-09 -6.93835e-07 0)
(9.61524e-09 -6.953e-07 0)
(9.58879e-09 -6.96764e-07 0)
(9.56226e-09 -6.98227e-07 0)
(9.53563e-09 -6.9969e-07 0)
(9.5089e-09 -7.01152e-07 0)
(9.48208e-09 -7.02613e-07 0)
(9.45516e-09 -7.04073e-07 0)
(9.42815e-09 -7.05533e-07 0)
(9.40105e-09 -7.06992e-07 0)
(9.37385e-09 -7.08451e-07 0)
(9.34655e-09 -7.09908e-07 0)
(9.31916e-09 -7.11365e-07 0)
(9.29167e-09 -7.12821e-07 0)
(9.2641e-09 -7.14276e-07 0)
(9.23642e-09 -7.1573e-07 0)
(9.20865e-09 -7.17183e-07 0)
(9.18079e-09 -7.18635e-07 0)
(9.15283e-09 -7.20086e-07 0)
(9.12478e-09 -7.21537e-07 0)
(9.09663e-09 -7.22986e-07 0)
(9.06839e-09 -7.24434e-07 0)
(9.04005e-09 -7.25881e-07 0)
(9.01162e-09 -7.27326e-07 0)
(8.98309e-09 -7.28771e-07 0)
(8.95448e-09 -7.30214e-07 0)
(8.92576e-09 -7.31657e-07 0)
(8.89696e-09 -7.33098e-07 0)
(8.86806e-09 -7.34537e-07 0)
(8.83906e-09 -7.35976e-07 0)
(8.80998e-09 -7.37413e-07 0)
(8.7808e-09 -7.38848e-07 0)
(8.75152e-09 -7.40283e-07 0)
(8.72215e-09 -7.41715e-07 0)
(8.69269e-09 -7.43147e-07 0)
(8.66314e-09 -7.44577e-07 0)
(8.6335e-09 -7.46005e-07 0)
(8.60376e-09 -7.47432e-07 0)
(8.57393e-09 -7.48857e-07 0)
(8.544e-09 -7.50281e-07 0)
(8.51399e-09 -7.51703e-07 0)
(8.48388e-09 -7.53123e-07 0)
(8.45368e-09 -7.54542e-07 0)
(8.42339e-09 -7.55959e-07 0)
(8.39301e-09 -7.57374e-07 0)
(8.36254e-09 -7.58787e-07 0)
(8.33198e-09 -7.60199e-07 0)
(8.30132e-09 -7.61608e-07 0)
(8.27058e-09 -7.63016e-07 0)
(8.23975e-09 -7.64422e-07 0)
(8.20882e-09 -7.65826e-07 0)
(8.17781e-09 -7.67228e-07 0)
(8.1467e-09 -7.68627e-07 0)
(8.11551e-09 -7.70025e-07 0)
(8.08423e-09 -7.71421e-07 0)
(8.05286e-09 -7.72815e-07 0)
(8.0214e-09 -7.74206e-07 0)
(7.98985e-09 -7.75595e-07 0)
(7.95822e-09 -7.76982e-07 0)
(7.92649e-09 -7.78367e-07 0)
(7.89468e-09 -7.7975e-07 0)
(7.86278e-09 -7.8113e-07 0)
(7.8308e-09 -7.82508e-07 0)
(7.79873e-09 -7.83883e-07 0)
(7.76657e-09 -7.85256e-07 0)
(7.73433e-09 -7.86627e-07 0)
(7.702e-09 -7.87995e-07 0)
(7.66959e-09 -7.8936e-07 0)
(7.63709e-09 -7.90723e-07 0)
(7.60451e-09 -7.92084e-07 0)
(7.57185e-09 -7.93441e-07 0)
(7.5391e-09 -7.94796e-07 0)
(7.50627e-09 -7.96149e-07 0)
(7.47335e-09 -7.97498e-07 0)
(7.44035e-09 -7.98845e-07 0)
(7.40727e-09 -8.00189e-07 0)
(7.37411e-09 -8.01531e-07 0)
(7.34087e-09 -8.02869e-07 0)
(7.30755e-09 -8.04204e-07 0)
(7.27414e-09 -8.05537e-07 0)
(7.24066e-09 -8.06866e-07 0)
(7.2071e-09 -8.08193e-07 0)
(7.17346e-09 -8.09516e-07 0)
(7.13974e-09 -8.10836e-07 0)
(7.10594e-09 -8.12154e-07 0)
(7.07206e-09 -8.13468e-07 0)
(7.03811e-09 -8.14778e-07 0)
(7.00408e-09 -8.16086e-07 0)
(6.96997e-09 -8.1739e-07 0)
(6.93579e-09 -8.18691e-07 0)
(6.90154e-09 -8.19989e-07 0)
(6.86721e-09 -8.21283e-07 0)
(6.8328e-09 -8.22574e-07 0)
(6.79832e-09 -8.23861e-07 0)
(6.76377e-09 -8.25145e-07 0)
(6.72915e-09 -8.26425e-07 0)
(6.69445e-09 -8.27702e-07 0)
(6.65969e-09 -8.28975e-07 0)
(6.62485e-09 -8.30245e-07 0)
(6.58994e-09 -8.3151e-07 0)
(6.55497e-09 -8.32772e-07 0)
(6.51992e-09 -8.34031e-07 0)
(6.48481e-09 -8.35285e-07 0)
(6.44963e-09 -8.36536e-07 0)
(6.41438e-09 -8.37783e-07 0)
(6.37906e-09 -8.39025e-07 0)
(6.34368e-09 -8.40264e-07 0)
(6.30824e-09 -8.41499e-07 0)
(6.27273e-09 -8.4273e-07 0)
(6.23716e-09 -8.43957e-07 0)
(6.20152e-09 -8.45179e-07 0)
(6.16582e-09 -8.46398e-07 0)
(6.13006e-09 -8.47612e-07 0)
(6.09424e-09 -8.48822e-07 0)
(6.05836e-09 -8.50028e-07 0)
(6.02242e-09 -8.5123e-07 0)
(5.98642e-09 -8.52427e-07 0)
(5.95036e-09 -8.5362e-07 0)
(5.91425e-09 -8.54808e-07 0)
(5.87808e-09 -8.55992e-07 0)
(5.84185e-09 -8.57172e-07 0)
(5.80557e-09 -8.58346e-07 0)
(5.76923e-09 -8.59517e-07 0)
(5.73285e-09 -8.60683e-07 0)
(5.6964e-09 -8.61844e-07 0)
(5.65991e-09 -8.63e-07 0)
(5.62337e-09 -8.64152e-07 0)
(5.58677e-09 -8.65298e-07 0)
(5.55013e-09 -8.6644e-07 0)
(5.51343e-09 -8.67578e-07 0)
(5.47669e-09 -8.6871e-07 0)
(5.43991e-09 -8.69837e-07 0)
(5.40307e-09 -8.7096e-07 0)
(5.3662e-09 -8.72077e-07 0)
(5.32926e-09 -8.7319e-07 0)
(5.29235e-09 -8.74296e-07 0)
(5.25513e-09 -8.754e-07 0)
(5.21896e-09 -8.76491e-07 0)
(5.1843e-09 -8.77525e-07 0)
(5.1502e-09 -8.78505e-07 0)
(5.11652e-09 -8.79474e-07 0)
(5.0827e-09 -8.80449e-07 0)
(5.04859e-09 -8.81432e-07 0)
(5.01416e-09 -8.82419e-07 0)
(4.97941e-09 -8.8341e-07 0)
(4.94433e-09 -8.84404e-07 0)
(4.90891e-09 -8.85402e-07 0)
(4.87316e-09 -8.86403e-07 0)
(4.83707e-09 -8.87408e-07 0)
(4.80065e-09 -8.88416e-07 0)
(4.76388e-09 -8.89427e-07 0)
(4.72678e-09 -8.90442e-07 0)
(4.68933e-09 -8.91459e-07 0)
(4.65154e-09 -8.9248e-07 0)
(4.6134e-09 -8.93502e-07 0)
(4.57491e-09 -8.94528e-07 0)
(4.53607e-09 -8.95556e-07 0)
(4.49688e-09 -8.96586e-07 0)
(4.45734e-09 -8.97618e-07 0)
(4.41745e-09 -8.98653e-07 0)
(4.3772e-09 -8.99689e-07 0)
(4.3366e-09 -9.00726e-07 0)
(4.29564e-09 -9.01765e-07 0)
(4.25433e-09 -9.02806e-07 0)
(4.21265e-09 -9.03847e-07 0)
(4.17062e-09 -9.0489e-07 0)
(4.12822e-09 -9.05933e-07 0)
(4.08547e-09 -9.06976e-07 0)
(4.04235e-09 -9.0802e-07 0)
(3.99887e-09 -9.09064e-07 0)
(3.95503e-09 -9.10108e-07 0)
(3.91083e-09 -9.11151e-07 0)
(3.86627e-09 -9.12194e-07 0)
(3.82134e-09 -9.13237e-07 0)
(3.77605e-09 -9.14278e-07 0)
(3.7304e-09 -9.15317e-07 0)
(3.68439e-09 -9.16356e-07 0)
(3.63801e-09 -9.17392e-07 0)
(3.59128e-09 -9.18426e-07 0)
(3.54418e-09 -9.19458e-07 0)
(3.49672e-09 -9.20488e-07 0)
(3.44891e-09 -9.21514e-07 0)
(3.40074e-09 -9.22538e-07 0)
(3.35221e-09 -9.23557e-07 0)
(3.30333e-09 -9.24573e-07 0)
(3.25409e-09 -9.25585e-07 0)
(3.20451e-09 -9.26593e-07 0)
(3.15457e-09 -9.27595e-07 0)
(3.10429e-09 -9.28593e-07 0)
(3.05366e-09 -9.29585e-07 0)
(3.00269e-09 -9.30571e-07 0)
(2.95138e-09 -9.31552e-07 0)
(2.89973e-09 -9.32525e-07 0)
(2.84774e-09 -9.33492e-07 0)
(2.79543e-09 -9.34452e-07 0)
(2.74279e-09 -9.35404e-07 0)
(2.68982e-09 -9.36348e-07 0)
(2.63654e-09 -9.37283e-07 0)
(2.58294e-09 -9.3821e-07 0)
(2.52902e-09 -9.39127e-07 0)
(2.4748e-09 -9.40035e-07 0)
(2.42028e-09 -9.40932e-07 0)
(2.36546e-09 -9.4182e-07 0)
(2.31035e-09 -9.42696e-07 0)
(2.25495e-09 -9.4356e-07 0)
(2.19927e-09 -9.44413e-07 0)
(2.14332e-09 -9.45253e-07 0)
(2.08709e-09 -9.46081e-07 0)
(2.03061e-09 -9.46895e-07 0)
(1.97387e-09 -9.47695e-07 0)
(1.91688e-09 -9.48482e-07 0)
(1.85966e-09 -9.49253e-07 0)
(1.8022e-09 -9.50009e-07 0)
(1.74452e-09 -9.50749e-07 0)
(1.68662e-09 -9.51472e-07 0)
(1.62851e-09 -9.52179e-07 0)
(1.5702e-09 -9.52868e-07 0)
(1.51171e-09 -9.5354e-07 0)
(1.45304e-09 -9.54192e-07 0)
(1.39419e-09 -9.54826e-07 0)
(1.33519e-09 -9.5544e-07 0)
(1.27604e-09 -9.56033e-07 0)
(1.21675e-09 -9.56606e-07 0)
(1.15733e-09 -9.57158e-07 0)
(1.0978e-09 -9.57687e-07 0)
(1.03816e-09 -9.58194e-07 0)
(9.78435e-10 -9.58677e-07 0)
(9.1863e-10 -9.59137e-07 0)
(8.58759e-10 -9.59572e-07 0)
(7.98836e-10 -9.59983e-07 0)
(7.38873e-10 -9.60367e-07 0)
(6.78886e-10 -9.60726e-07 0)
(6.18888e-10 -9.61057e-07 0)
(5.58894e-10 -9.61361e-07 0)
(4.98919e-10 -9.61637e-07 0)
(4.38978e-10 -9.61883e-07 0)
(3.79087e-10 -9.62101e-07 0)
(3.19261e-10 -9.62288e-07 0)
(2.59518e-10 -9.62445e-07 0)
(1.99873e-10 -9.6257e-07 0)
(1.40343e-10 -9.62664e-07 0)
(8.09455e-11 -9.62724e-07 0)
(2.16983e-11 -9.62752e-07 0)
(-3.73809e-11 -9.62745e-07 0)
(-9.62742e-11 -9.62704e-07 0)
(-1.54963e-10 -9.62628e-07 0)
(-2.13429e-10 -9.62516e-07 0)
(-2.71653e-10 -9.62368e-07 0)
(-3.29615e-10 -9.62182e-07 0)
(-3.87297e-10 -9.61959e-07 0)
(-4.44679e-10 -9.61698e-07 0)
(-5.01741e-10 -9.61397e-07 0)
(-5.58462e-10 -9.61057e-07 0)
(-6.14822e-10 -9.60677e-07 0)
(-6.70802e-10 -9.60257e-07 0)
(-7.2638e-10 -9.59795e-07 0)
(-7.81535e-10 -9.59291e-07 0)
(-8.36246e-10 -9.58745e-07 0)
(-8.90493e-10 -9.58155e-07 0)
(-9.44254e-10 -9.57523e-07 0)
(-9.97508e-10 -9.56846e-07 0)
(-1.05023e-09 -9.56124e-07 0)
(-1.10241e-09 -9.55358e-07 0)
(-1.15401e-09 -9.54546e-07 0)
(-1.20502e-09 -9.53688e-07 0)
(-1.25542e-09 -9.52783e-07 0)
(-1.30518e-09 -9.51832e-07 0)
(-1.35429e-09 -9.50833e-07 0)
(-1.40272e-09 -9.49787e-07 0)
(-1.45044e-09 -9.48692e-07 0)
(-1.49745e-09 -9.47548e-07 0)
(-1.54372e-09 -9.46356e-07 0)
(-1.58922e-09 -9.45115e-07 0)
(-1.63395e-09 -9.43824e-07 0)
(-1.67787e-09 -9.42483e-07 0)
(-1.72096e-09 -9.41092e-07 0)
(-1.76322e-09 -9.39651e-07 0)
(-1.80461e-09 -9.38159e-07 0)
(-1.84513e-09 -9.36616e-07 0)
(-1.88474e-09 -9.35022e-07 0)
(-1.92344e-09 -9.33378e-07 0)
(-1.9612e-09 -9.31682e-07 0)
(-1.99801e-09 -9.29935e-07 0)
(-2.03385e-09 -9.28137e-07 0)
(-2.0687e-09 -9.26287e-07 0)
(-2.10256e-09 -9.24386e-07 0)
(-2.13539e-09 -9.22433e-07 0)
(-2.16719e-09 -9.2043e-07 0)
(-2.19795e-09 -9.18375e-07 0)
(-2.22764e-09 -9.16269e-07 0)
(-2.25627e-09 -9.14112e-07 0)
(-2.28381e-09 -9.11905e-07 0)
(-2.31025e-09 -9.09647e-07 0)
(-2.33558e-09 -9.07339e-07 0)
(-2.3598e-09 -9.04981e-07 0)
(-2.38289e-09 -9.02574e-07 0)
(-2.40484e-09 -9.00117e-07 0)
(-2.42565e-09 -8.97611e-07 0)
(-2.44532e-09 -8.95057e-07 0)
(-2.46382e-09 -8.92455e-07 0)
(-2.48116e-09 -8.89806e-07 0)
(-2.49734e-09 -8.8711e-07 0)
(-2.51235e-09 -8.84367e-07 0)
(-2.52618e-09 -8.81579e-07 0)
(-2.53884e-09 -8.78746e-07 0)
(-2.55033e-09 -8.75868e-07 0)
(-2.56064e-09 -8.72947e-07 0)
(-2.56977e-09 -8.69982e-07 0)
(-2.57774e-09 -8.66976e-07 0)
(-2.58453e-09 -8.63928e-07 0)
(-2.59015e-09 -8.6084e-07 0)
(-2.59461e-09 -8.57712e-07 0)
(-2.59791e-09 -8.54545e-07 0)
(-2.60006e-09 -8.51341e-07 0)
(-2.60106e-09 -8.481e-07 0)
(-2.60093e-09 -8.44824e-07 0)
(-2.59965e-09 -8.4151e-07 0)
(-2.59731e-09 -8.38169e-07 0)
(-2.59361e-09 -8.34755e-07 0)
(-2.58829e-09 -8.30986e-07 0)
(-2.58137e-09 -8.26858e-07 0)
(-2.5728e-09 -8.22657e-07 0)
(-2.56277e-09 -8.1848e-07 0)
(-2.55142e-09 -8.14345e-07 0)
(-2.53884e-09 -8.10233e-07 0)
(-2.52511e-09 -8.06138e-07 0)
(-2.51028e-09 -8.02063e-07 0)
(-2.49441e-09 -7.98013e-07 0)
(-2.47757e-09 -7.9399e-07 0)
(-2.45981e-09 -7.89996e-07 0)
(-2.44119e-09 -7.86032e-07 0)
(-2.42177e-09 -7.82097e-07 0)
(-2.40158e-09 -7.78195e-07 0)
(-2.38069e-09 -7.74327e-07 0)
(-2.35912e-09 -7.70493e-07 0)
(-2.33694e-09 -7.66694e-07 0)
(-2.31416e-09 -7.62931e-07 0)
(-2.29085e-09 -7.59206e-07 0)
(-2.26702e-09 -7.55519e-07 0)
(-2.24272e-09 -7.51871e-07 0)
(-2.21797e-09 -7.48263e-07 0)
(-2.19281e-09 -7.44695e-07 0)
(-2.16727e-09 -7.41168e-07 0)
(-2.14136e-09 -7.37683e-07 0)
(-2.11513e-09 -7.3424e-07 0)
(-2.08858e-09 -7.3084e-07 0)
(-2.06174e-09 -7.27483e-07 0)
(-2.03464e-09 -7.2417e-07 0)
(-2.00729e-09 -7.209e-07 0)
(-1.9797e-09 -7.17675e-07 0)
(-1.9519e-09 -7.14495e-07 0)
(-1.9239e-09 -7.11361e-07 0)
(-1.89571e-09 -7.08271e-07 0)
(-1.86735e-09 -7.05227e-07 0)
(-1.83883e-09 -7.0223e-07 0)
(-1.81015e-09 -6.99278e-07 0)
(-1.78134e-09 -6.96374e-07 0)
(-1.75239e-09 -6.93515e-07 0)
(-1.72332e-09 -6.90704e-07 0)
(-1.69413e-09 -6.8794e-07 0)
(-1.66484e-09 -6.85223e-07 0)
(-1.63543e-09 -6.82554e-07 0)
(-1.60593e-09 -6.79932e-07 0)
(-1.57634e-09 -6.77358e-07 0)
(-1.54666e-09 -6.74833e-07 0)
(-1.51689e-09 -6.72355e-07 0)
(-1.48703e-09 -6.69925e-07 0)
(-1.4571e-09 -6.67544e-07 0)
(-1.42709e-09 -6.65211e-07 0)
(-1.39701e-09 -6.62927e-07 0)
(-1.36685e-09 -6.60692e-07 0)
(-1.33662e-09 -6.58505e-07 0)
(-1.30631e-09 -6.56367e-07 0)
(-1.27594e-09 -6.54279e-07 0)
(-1.24549e-09 -6.5224e-07 0)
(-1.21498e-09 -6.5025e-07 0)
(-1.1844e-09 -6.48309e-07 0)
(-1.15375e-09 -6.46418e-07 0)
(-1.12303e-09 -6.44576e-07 0)
(-1.09225e-09 -6.42785e-07 0)
(-1.0614e-09 -6.41043e-07 0)
(-1.03048e-09 -6.39351e-07 0)
(-9.9949e-10 -6.37709e-07 0)
(-9.68436e-10 -6.36117e-07 0)
(-9.37316e-10 -6.34576e-07 0)
(-9.06129e-10 -6.33085e-07 0)
(-8.74876e-10 -6.31644e-07 0)
(-8.43557e-10 -6.30254e-07 0)
(-8.12174e-10 -6.28915e-07 0)
(-7.80727e-10 -6.27627e-07 0)
(-7.49216e-10 -6.26389e-07 0)
(-7.17643e-10 -6.25203e-07 0)
(-6.86009e-10 -6.24068e-07 0)
(-6.54315e-10 -6.22983e-07 0)
(-6.22563e-10 -6.21951e-07 0)
(-5.90754e-10 -6.20969e-07 0)
(-5.5889e-10 -6.20039e-07 0)
(-5.26972e-10 -6.19161e-07 0)
(-4.95003e-10 -6.18335e-07 0)
(-4.62985e-10 -6.1756e-07 0)
(-4.30921e-10 -6.16837e-07 0)
(-3.98812e-10 -6.16165e-07 0)
(-3.66662e-10 -6.15547e-07 0)
(-3.34473e-10 -6.14978e-07 0)
(-3.02249e-10 -6.14467e-07 0)
(-2.6999e-10 -6.13992e-07 0)
(-2.37708e-10 -6.13623e-07 0)
(-2.0538e-10 -6.13122e-07 0)
(-1.73093e-10 -6.13281e-07 0)
(-1.4058e-10 -6.11435e-07 0)
(-1.08746e-10 -6.16208e-07 0)
(-7.46958e-11 -5.9762e-07 0)
(-4.83937e-11 -6.46596e-07 0)
(-2.0359e-11 -5.64704e-07 0)
)
;
    }
    bottomWall
    {
        type            calculated;
        value           nonuniform List<vector> 
449
(
(-48.5335 -0.964121 0)
(-19.7518 -0.00515548 0)
(-14.3439 -0.0011349 0)
(-12.034 -0.000545555 0)
(-10.6278 -0.00035155 0)
(-9.63382 -0.000256035 0)
(-8.87563 -0.000198518 0)
(-8.27202 -0.000159842 0)
(-7.77651 -0.000132347 0)
(-7.35981 -0.000111997 0)
(-7.00274 -9.63941e-05 0)
(-6.69227 -8.40851e-05 0)
(-6.41907 -7.41656e-05 0)
(-6.17623 -6.60367e-05 0)
(-5.9585 -5.92786e-05 0)
(-5.76182 -5.35882e-05 0)
(-5.58299 -4.87431e-05 0)
(-5.41946 -4.45776e-05 0)
(-5.26914 -4.09655e-05 0)
(-5.13036 -3.78093e-05 0)
(-5.00169 -3.50326e-05 0)
(-4.88196 -3.25744e-05 0)
(-4.77017 -3.0386e-05 0)
(-4.66549 -2.84278e-05 0)
(-4.56717 -2.66672e-05 0)
(-4.47461 -2.50777e-05 0)
(-4.38725 -2.36367e-05 0)
(-4.30462 -2.23257e-05 0)
(-4.22631 -2.11289e-05 0)
(-4.15195 -2.00328e-05 0)
(-4.08122 -1.9026e-05 0)
(-4.01383 -1.80987e-05 0)
(-3.94952 -1.72424e-05 0)
(-3.88806 -1.64498e-05 0)
(-3.82925 -1.57144e-05 0)
(-3.7729 -1.50306e-05 0)
(-3.71884 -1.43936e-05 0)
(-3.66692 -1.3799e-05 0)
(-3.61699 -1.32429e-05 0)
(-3.56895 -1.2722e-05 0)
(-3.52265 -1.22333e-05 0)
(-3.47802 -1.1774e-05 0)
(-3.43493 -1.13418e-05 0)
(-3.39331 -1.09344e-05 0)
(-3.35308 -1.055e-05 0)
(-3.31415 -1.01868e-05 0)
(-3.27646 -9.8431e-06 0)
(-3.23995 -9.51758e-06 0)
(-3.20454 -9.2089e-06 0)
(-3.17019 -8.91589e-06 0)
(-3.13685 -8.63744e-06 0)
(-3.10446 -8.37258e-06 0)
(-3.07298 -8.12041e-06 0)
(-3.04237 -7.88008e-06 0)
(-3.01259 -7.65086e-06 0)
(-2.98359 -7.43203e-06 0)
(-2.95535 -7.22295e-06 0)
(-2.92784 -7.02303e-06 0)
(-2.90102 -6.83173e-06 0)
(-2.87486 -6.64853e-06 0)
(-2.84934 -6.47297e-06 0)
(-2.82442 -6.30461e-06 0)
(-2.8001 -6.14305e-06 0)
(-2.77633 -5.98792e-06 0)
(-2.75311 -5.83886e-06 0)
(-2.7304 -5.69555e-06 0)
(-2.7082 -5.55769e-06 0)
(-2.68648 -5.425e-06 0)
(-2.66523 -5.29721e-06 0)
(-2.64442 -5.17407e-06 0)
(-2.62405 -5.05535e-06 0)
(-2.60409 -4.94084e-06 0)
(-2.58454 -4.83033e-06 0)
(-2.56537 -4.72364e-06 0)
(-2.54659 -4.62057e-06 0)
(-2.52816 -4.52097e-06 0)
(-2.51009 -4.42467e-06 0)
(-2.49236 -4.33152e-06 0)
(-2.47496 -4.24139e-06 0)
(-2.45788 -4.15414e-06 0)
(-2.44111 -4.06964e-06 0)
(-2.42464 -3.98778e-06 0)
(-2.40846 -3.90844e-06 0)
(-2.39256 -3.83152e-06 0)
(-2.37694 -3.75692e-06 0)
(-2.36159 -3.68454e-06 0)
(-2.34649 -3.61429e-06 0)
(-2.33164 -3.54608e-06 0)
(-2.31704 -3.47984e-06 0)
(-2.30268 -3.41548e-06 0)
(-2.28855 -3.35294e-06 0)
(-2.27464 -3.29215e-06 0)
(-2.26095 -3.23303e-06 0)
(-2.24747 -3.17552e-06 0)
(-2.23421 -3.11957e-06 0)
(-2.22114 -3.06512e-06 0)
(-2.20827 -3.01211e-06 0)
(-2.19559 -2.96048e-06 0)
(-2.1831 -2.9102e-06 0)
(-2.17079 -2.86121e-06 0)
(-2.15866 -2.81347e-06 0)
(-2.1467 -2.76694e-06 0)
(-2.13491 -2.72156e-06 0)
(-2.12329 -2.67731e-06 0)
(-2.11182 -2.63415e-06 0)
(-2.10052 -2.59203e-06 0)
(-2.08937 -2.55093e-06 0)
(-2.07836 -2.51081e-06 0)
(-2.06751 -2.47164e-06 0)
(-2.0568 -2.43339e-06 0)
(-2.04623 -2.39603e-06 0)
(-2.03579 -2.35953e-06 0)
(-2.02549 -2.32386e-06 0)
(-2.01532 -2.289e-06 0)
(-2.00528 -2.25492e-06 0)
(-1.99537 -2.2216e-06 0)
(-1.98558 -2.18902e-06 0)
(-1.97591 -2.15715e-06 0)
(-1.96635 -2.12598e-06 0)
(-1.95691 -2.09548e-06 0)
(-1.94759 -2.06563e-06 0)
(-1.93837 -2.03641e-06 0)
(-1.92927 -2.00781e-06 0)
(-1.92027 -1.97981e-06 0)
(-1.91137 -1.95238e-06 0)
(-1.90258 -1.92553e-06 0)
(-1.89388 -1.89922e-06 0)
(-1.88529 -1.87344e-06 0)
(-1.87679 -1.84818e-06 0)
(-1.86838 -1.82343e-06 0)
(-1.86007 -1.79917e-06 0)
(-1.85185 -1.77538e-06 0)
(-1.84371 -1.75206e-06 0)
(-1.83567 -1.72919e-06 0)
(-1.82771 -1.70677e-06 0)
(-1.81984 -1.68477e-06 0)
(-1.81204 -1.66319e-06 0)
(-1.80433 -1.64201e-06 0)
(-1.7967 -1.62124e-06 0)
(-1.78915 -1.60085e-06 0)
(-1.78168 -1.58083e-06 0)
(-1.77428 -1.56119e-06 0)
(-1.76695 -1.5419e-06 0)
(-1.7597 -1.52296e-06 0)
(-1.75252 -1.50436e-06 0)
(-1.74541 -1.4861e-06 0)
(-1.73837 -1.46816e-06 0)
(-1.7314 -1.45054e-06 0)
(-1.7245 -1.43322e-06 0)
(-1.71766 -1.41621e-06 0)
(-1.71089 -1.39949e-06 0)
(-1.70418 -1.38306e-06 0)
(-1.69753 -1.36691e-06 0)
(-1.69095 -1.35104e-06 0)
(-1.68442 -1.33543e-06 0)
(-1.67796 -1.32008e-06 0)
(-1.67156 -1.305e-06 0)
(-1.66521 -1.29016e-06 0)
(-1.65892 -1.27557e-06 0)
(-1.65269 -1.26121e-06 0)
(-1.64651 -1.24709e-06 0)
(-1.64039 -1.2332e-06 0)
(-1.63432 -1.21954e-06 0)
(-1.6283 -1.20609e-06 0)
(-1.62234 -1.19286e-06 0)
(-1.61643 -1.17984e-06 0)
(-1.61056 -1.16702e-06 0)
(-1.60475 -1.15441e-06 0)
(-1.59899 -1.14202e-06 0)
(-1.59327 -1.12968e-06 0)
(-1.58761 -1.11799e-06 0)
(-1.58198 -1.10588e-06 0)
(-1.57641 -1.09274e-06 0)
(-1.5712 -1.08256e-06 0)
(-1.5663 -1.07433e-06 0)
(-1.56139 -1.06397e-06 0)
(-1.55648 -1.05327e-06 0)
(-1.55156 -1.04326e-06 0)
(-1.54664 -1.03322e-06 0)
(-1.54171 -1.0233e-06 0)
(-1.53677 -1.01344e-06 0)
(-1.53183 -1.00364e-06 0)
(-1.52688 -9.9391e-07 0)
(-1.52193 -9.84235e-07 0)
(-1.51697 -9.74616e-07 0)
(-1.51201 -9.65052e-07 0)
(-1.50705 -9.55544e-07 0)
(-1.50208 -9.46091e-07 0)
(-1.4971 -9.36693e-07 0)
(-1.49212 -9.27351e-07 0)
(-1.48714 -9.18063e-07 0)
(-1.48215 -9.08832e-07 0)
(-1.47716 -8.99656e-07 0)
(-1.47217 -8.90536e-07 0)
(-1.46717 -8.81473e-07 0)
(-1.46218 -8.72466e-07 0)
(-1.45717 -8.63516e-07 0)
(-1.45217 -8.54623e-07 0)
(-1.44716 -8.45787e-07 0)
(-1.44216 -8.37008e-07 0)
(-1.43715 -8.28287e-07 0)
(-1.43214 -8.19624e-07 0)
(-1.42712 -8.11019e-07 0)
(-1.42211 -8.02472e-07 0)
(-1.4171 -7.93983e-07 0)
(-1.41208 -7.85553e-07 0)
(-1.40706 -7.77181e-07 0)
(-1.40205 -7.68869e-07 0)
(-1.39703 -7.60615e-07 0)
(-1.39201 -7.5242e-07 0)
(-1.387 -7.44285e-07 0)
(-1.38198 -7.36209e-07 0)
(-1.37697 -7.28192e-07 0)
(-1.37195 -7.20234e-07 0)
(-1.36694 -7.12336e-07 0)
(-1.36193 -7.04498e-07 0)
(-1.35691 -6.96719e-07 0)
(-1.3519 -6.89e-07 0)
(-1.3469 -6.8134e-07 0)
(-1.34189 -6.7374e-07 0)
(-1.33689 -6.662e-07 0)
(-1.33189 -6.58719e-07 0)
(-1.32689 -6.51298e-07 0)
(-1.32189 -6.43937e-07 0)
(-1.3169 -6.36635e-07 0)
(-1.31191 -6.29393e-07 0)
(-1.30692 -6.2221e-07 0)
(-1.30194 -6.15087e-07 0)
(-1.29696 -6.08023e-07 0)
(-1.29198 -6.01019e-07 0)
(-1.28701 -5.94074e-07 0)
(-1.28204 -5.87188e-07 0)
(-1.27708 -5.80361e-07 0)
(-1.27212 -5.73592e-07 0)
(-1.26716 -5.66883e-07 0)
(-1.26221 -5.60233e-07 0)
(-1.25727 -5.53641e-07 0)
(-1.25233 -5.47107e-07 0)
(-1.24739 -5.40632e-07 0)
(-1.24246 -5.34215e-07 0)
(-1.23754 -5.27856e-07 0)
(-1.23262 -5.21555e-07 0)
(-1.22771 -5.15311e-07 0)
(-1.22281 -5.09125e-07 0)
(-1.21791 -5.02996e-07 0)
(-1.21301 -4.96924e-07 0)
(-1.20813 -4.90909e-07 0)
(-1.20325 -4.84951e-07 0)
(-1.19838 -4.7905e-07 0)
(-1.19351 -4.73204e-07 0)
(-1.18865 -4.67415e-07 0)
(-1.1838 -4.61681e-07 0)
(-1.17896 -4.56003e-07 0)
(-1.17412 -4.5038e-07 0)
(-1.1693 -4.44813e-07 0)
(-1.16448 -4.393e-07 0)
(-1.15966 -4.33842e-07 0)
(-1.15486 -4.28438e-07 0)
(-1.15007 -4.23088e-07 0)
(-1.14528 -4.17792e-07 0)
(-1.1405 -4.1255e-07 0)
(-1.13573 -4.07361e-07 0)
(-1.13097 -4.02224e-07 0)
(-1.12622 -3.97141e-07 0)
(-1.12148 -3.9211e-07 0)
(-1.11674 -3.87131e-07 0)
(-1.11202 -3.82203e-07 0)
(-1.10731 -3.77328e-07 0)
(-1.1026 -3.72503e-07 0)
(-1.09791 -3.6773e-07 0)
(-1.09322 -3.63006e-07 0)
(-1.08855 -3.58334e-07 0)
(-1.08388 -3.53711e-07 0)
(-1.07923 -3.49138e-07 0)
(-1.07458 -3.44614e-07 0)
(-1.06995 -3.40139e-07 0)
(-1.06533 -3.35713e-07 0)
(-1.06071 -3.31335e-07 0)
(-1.05611 -3.27005e-07 0)
(-1.05152 -3.22723e-07 0)
(-1.04694 -3.18488e-07 0)
(-1.04237 -3.143e-07 0)
(-1.03781 -3.10159e-07 0)
(-1.03326 -3.06065e-07 0)
(-1.02873 -3.02016e-07 0)
(-1.0242 -2.98013e-07 0)
(-1.01969 -2.94055e-07 0)
(-1.01519 -2.90142e-07 0)
(-1.0107 -2.86274e-07 0)
(-1.00622 -2.8245e-07 0)
(-1.00176 -2.7867e-07 0)
(-0.997305 -2.74934e-07 0)
(-0.992863 -2.71241e-07 0)
(-0.988433 -2.6759e-07 0)
(-0.984016 -2.63983e-07 0)
(-0.97961 -2.60417e-07 0)
(-0.975217 -2.56893e-07 0)
(-0.970837 -2.53411e-07 0)
(-0.966469 -2.4997e-07 0)
(-0.962113 -2.4657e-07 0)
(-0.95777 -2.4321e-07 0)
(-0.95344 -2.3989e-07 0)
(-0.949122 -2.3661e-07 0)
(-0.944817 -2.3337e-07 0)
(-0.940525 -2.30168e-07 0)
(-0.936246 -2.27005e-07 0)
(-0.93198 -2.2388e-07 0)
(-0.927727 -2.20794e-07 0)
(-0.923488 -2.17745e-07 0)
(-0.919261 -2.14733e-07 0)
(-0.915047 -2.11758e-07 0)
(-0.910847 -2.0882e-07 0)
(-0.90666 -2.05918e-07 0)
(-0.902487 -2.03052e-07 0)
(-0.898326 -2.00222e-07 0)
(-0.89418 -1.97427e-07 0)
(-0.890046 -1.94666e-07 0)
(-0.885927 -1.91941e-07 0)
(-0.881821 -1.89249e-07 0)
(-0.877728 -1.86591e-07 0)
(-0.873649 -1.83967e-07 0)
(-0.869584 -1.81376e-07 0)
(-0.865533 -1.78818e-07 0)
(-0.861495 -1.76292e-07 0)
(-0.857471 -1.73799e-07 0)
(-0.853461 -1.71337e-07 0)
(-0.849465 -1.68907e-07 0)
(-0.845483 -1.66508e-07 0)
(-0.841515 -1.6414e-07 0)
(-0.83756 -1.61803e-07 0)
(-0.83362 -1.59496e-07 0)
(-0.829693 -1.57219e-07 0)
(-0.825781 -1.54971e-07 0)
(-0.821883 -1.52752e-07 0)
(-0.817999 -1.50563e-07 0)
(-0.814129 -1.48402e-07 0)
(-0.810273 -1.4627e-07 0)
(-0.806431 -1.44166e-07 0)
(-0.802603 -1.42089e-07 0)
(-0.79879 -1.4004e-07 0)
(-0.79499 -1.38017e-07 0)
(-0.791205 -1.36022e-07 0)
(-0.787434 -1.34053e-07 0)
(-0.783677 -1.3211e-07 0)
(-0.779935 -1.30193e-07 0)
(-0.776207 -1.28302e-07 0)
(-0.772493 -1.26436e-07 0)
(-0.768793 -1.24594e-07 0)
(-0.765108 -1.22776e-07 0)
(-0.761437 -1.20985e-07 0)
(-0.75778 -1.19212e-07 0)
(-0.754138 -1.17427e-07 0)
(-0.750512 -1.15791e-07 0)
(-0.746894 -1.14166e-07 0)
(-0.742887 -1.12183e-07 0)
(-0.738542 -1.10078e-07 0)
(-0.734276 -1.08183e-07 0)
(-0.730079 -1.06388e-07 0)
(-0.725953 -1.04581e-07 0)
(-0.721898 -1.02809e-07 0)
(-0.717911 -1.01082e-07 0)
(-0.71399 -9.94016e-08 0)
(-0.710135 -9.77662e-08 0)
(-0.706342 -9.61743e-08 0)
(-0.702611 -9.46247e-08 0)
(-0.69894 -9.3116e-08 0)
(-0.695327 -9.16468e-08 0)
(-0.69177 -9.02156e-08 0)
(-0.688269 -8.88212e-08 0)
(-0.684822 -8.74622e-08 0)
(-0.681427 -8.61374e-08 0)
(-0.678084 -8.48455e-08 0)
(-0.67479 -8.35856e-08 0)
(-0.671545 -8.23564e-08 0)
(-0.668347 -8.11569e-08 0)
(-0.665196 -7.99862e-08 0)
(-0.66209 -7.88433e-08 0)
(-0.659029 -7.77273e-08 0)
(-0.65601 -7.66372e-08 0)
(-0.653033 -7.55724e-08 0)
(-0.650098 -7.45319e-08 0)
(-0.647203 -7.3515e-08 0)
(-0.644347 -7.25209e-08 0)
(-0.64153 -7.15491e-08 0)
(-0.63875 -7.05986e-08 0)
(-0.636007 -6.9669e-08 0)
(-0.6333 -6.87596e-08 0)
(-0.630628 -6.78698e-08 0)
(-0.627991 -6.6999e-08 0)
(-0.625387 -6.61466e-08 0)
(-0.622816 -6.53121e-08 0)
(-0.620278 -6.4495e-08 0)
(-0.617771 -6.36948e-08 0)
(-0.615295 -6.2911e-08 0)
(-0.61285 -6.21432e-08 0)
(-0.610434 -6.13909e-08 0)
(-0.608048 -6.06536e-08 0)
(-0.60569 -5.99311e-08 0)
(-0.603359 -5.92228e-08 0)
(-0.601057 -5.85283e-08 0)
(-0.598781 -5.78474e-08 0)
(-0.596532 -5.71797e-08 0)
(-0.594308 -5.65248e-08 0)
(-0.59211 -5.58823e-08 0)
(-0.589937 -5.5252e-08 0)
(-0.587788 -5.46336e-08 0)
(-0.585663 -5.40268e-08 0)
(-0.583562 -5.34312e-08 0)
(-0.581483 -5.28466e-08 0)
(-0.579428 -5.22727e-08 0)
(-0.577394 -5.17094e-08 0)
(-0.575383 -5.11562e-08 0)
(-0.573392 -5.06131e-08 0)
(-0.571423 -5.00797e-08 0)
(-0.569475 -4.95558e-08 0)
(-0.567547 -4.90413e-08 0)
(-0.565639 -4.8536e-08 0)
(-0.56375 -4.80395e-08 0)
(-0.561881 -4.75519e-08 0)
(-0.56003 -4.70729e-08 0)
(-0.558199 -4.66023e-08 0)
(-0.556385 -4.614e-08 0)
(-0.554589 -4.56859e-08 0)
(-0.552811 -4.52399e-08 0)
(-0.55105 -4.48018e-08 0)
(-0.549307 -4.43715e-08 0)
(-0.54758 -4.39491e-08 0)
(-0.545869 -4.35345e-08 0)
(-0.544174 -4.31277e-08 0)
(-0.542495 -4.27287e-08 0)
(-0.540832 -4.23377e-08 0)
(-0.539183 -4.19548e-08 0)
(-0.53755 -4.15804e-08 0)
(-0.535931 -4.12147e-08 0)
(-0.534326 -4.08586e-08 0)
(-0.532735 -4.05128e-08 0)
(-0.531157 -4.01787e-08 0)
(-0.529592 -3.98577e-08 0)
(-0.528039 -3.9553e-08 0)
(-0.526498 -3.92765e-08 0)
(-0.524967 -3.89995e-08 0)
(-0.523447 -3.87789e-08 0)
(-0.521933 -3.88343e-08 0)
(-0.520409 -3.8172e-08 0)
(-0.518948 -3.73021e-08 0)
(-0.517491 -4.93347e-08 0)
(-0.515088 -1.36979e-08 0)
(-0.516431 -3.63437e-08 0)
(-0.512202 -5.49901e-08 0)
)
;
    }
    symmetry
    {
        type            symmetryPlane;
    }
    frontAndBack
    {
        type            empty;
    }
}


// ************************************************************************* //
