/*--------------------------------*- C++ -*----------------------------------*\
| =========                 |                                                 |
| \\      /  F ield         | OpenFOAM: The Open Source CFD Toolbox           |
|  \\    /   O peration     | Version:  v2012                                 |
|   \\  /    A nd           | Website:  www.openfoam.com                      |
|    \\/     M anipulation  |                                                 |
\*---------------------------------------------------------------------------*/
FoamFile
{
    version     2.0;
    format      ascii;
    class       volScalarField;
    location    "37";
    object      yPlus;
}
// * * * * * * * * * * * * * * * * * * * * * * * * * * * * * * * * * * * * * //

dimensions      [0 0 0 0 0 0 0];


internalField   uniform 0;

boundaryField
{
    inlet
    {
        type            calculated;
        value           uniform 0;
    }
    outlet
    {
        type            calculated;
        value           uniform 0;
    }
    topWall
    {
        type            calculated;
        value           nonuniform List<scalar> 
545
(
0.0708229
0.122119
0.156661
0.18414
0.207391
0.227722
0.245867
0.262289
0.277304
0.291137
0.303958
0.3159
0.327067
0.337543
0.3474
0.356695
0.365481
0.373798
0.381687
0.389178
0.396302
0.403085
0.409549
0.415715
0.421603
0.42723
0.432611
0.437761
0.442692
0.447417
0.451948
0.456293
0.460464
0.464469
0.468316
0.472014
0.475569
0.478988
0.482277
0.485444
0.488493
0.491429
0.494258
0.496985
0.499613
0.502148
0.504592
0.506951
0.509227
0.511424
0.513546
0.515594
0.517573
0.519485
0.521332
0.523118
0.524844
0.526513
0.528127
0.529688
0.531198
0.532659
0.534073
0.535441
0.536766
0.538049
0.539291
0.540493
0.541658
0.542787
0.54388
0.544939
0.545952
0.546932
0.547902
0.548864
0.549817
0.550762
0.551699
0.552627
0.553546
0.554458
0.555361
0.556257
0.557145
0.558024
0.558896
0.559761
0.560618
0.561467
0.562309
0.563144
0.563971
0.564791
0.565604
0.56641
0.567135
0.567784
0.568432
0.569079
0.569725
0.570371
0.571016
0.57166
0.572304
0.572947
0.57359
0.574231
0.574872
0.575512
0.576152
0.576791
0.577429
0.578066
0.578703
0.579338
0.579974
0.580608
0.581241
0.581874
0.582506
0.583137
0.583767
0.584397
0.585025
0.585653
0.58628
0.586906
0.587531
0.588156
0.588779
0.589402
0.590024
0.590645
0.591265
0.591884
0.592502
0.593119
0.593735
0.59435
0.594965
0.595578
0.596191
0.596802
0.597413
0.598022
0.598631
0.599238
0.599845
0.60045
0.601054
0.601658
0.60226
0.602861
0.603461
0.604061
0.604659
0.605256
0.605851
0.606446
0.60704
0.607632
0.608223
0.608814
0.609403
0.60999
0.610577
0.611163
0.611747
0.61233
0.612912
0.613493
0.614072
0.61465
0.615227
0.615803
0.616377
0.61695
0.617522
0.618093
0.618662
0.61923
0.619797
0.620362
0.620926
0.621489
0.62205
0.62261
0.623168
0.623725
0.624281
0.624835
0.625388
0.62594
0.62649
0.627038
0.627585
0.628131
0.628675
0.629218
0.629759
0.630299
0.630837
0.631373
0.631908
0.632442
0.632974
0.633504
0.634033
0.63456
0.635086
0.63561
0.636132
0.636653
0.637172
0.63769
0.638206
0.63872
0.639232
0.639743
0.640252
0.64076
0.641265
0.641769
0.642271
0.642772
0.64327
0.643767
0.644262
0.644756
0.645247
0.645737
0.646225
0.646711
0.647195
0.647677
0.648157
0.648636
0.649113
0.649587
0.65006
0.650531
0.651
0.651467
0.651932
0.652395
0.652856
0.653315
0.653773
0.654228
0.654681
0.655132
0.655581
0.656028
0.656473
0.656916
0.657356
0.657795
0.658232
0.658666
0.659098
0.659529
0.659957
0.660382
0.660806
0.661228
0.661647
0.662064
0.662479
0.662869
0.663235
0.663603
0.663973
0.664343
0.664715
0.665088
0.665463
0.665838
0.666215
0.666593
0.666971
0.667351
0.667732
0.668113
0.668496
0.668879
0.669263
0.669648
0.670033
0.670419
0.670805
0.671192
0.671579
0.671967
0.672355
0.672743
0.673131
0.673519
0.673907
0.674295
0.674683
0.67507
0.675458
0.675844
0.676231
0.676616
0.677001
0.677385
0.677769
0.678151
0.678532
0.678912
0.679291
0.679669
0.680044
0.680419
0.680791
0.681162
0.681531
0.681898
0.682262
0.682625
0.682984
0.683342
0.683696
0.684048
0.684397
0.684742
0.685085
0.685424
0.685759
0.686091
0.686419
0.686743
0.687063
0.687378
0.687689
0.687996
0.688297
0.688594
0.688885
0.689171
0.689452
0.689727
0.689996
0.690259
0.690516
0.690766
0.69101
0.691247
0.691477
0.6917
0.691916
0.692123
0.692323
0.692515
0.692699
0.692875
0.693041
0.693199
0.693348
0.693487
0.693617
0.693738
0.693848
0.693948
0.694038
0.694117
0.694185
0.694242
0.694288
0.694322
0.694345
0.694356
0.694354
0.69434
0.694313
0.694273
0.694221
0.694154
0.694075
0.693981
0.693873
0.693751
0.693615
0.693464
0.693298
0.693116
0.69292
0.692707
0.692479
0.692235
0.691975
0.691699
0.691405
0.691095
0.690768
0.690424
0.690062
0.689683
0.689286
0.688872
0.688439
0.687988
0.687519
0.687031
0.686524
0.685999
0.685455
0.684892
0.68431
0.683709
0.683088
0.682448
0.681788
0.681109
0.680411
0.679693
0.678955
0.678197
0.67742
0.676623
0.675806
0.67497
0.674113
0.673238
0.672342
0.671427
0.670493
0.669539
0.668566
0.667573
0.666562
0.665531
0.664482
0.663414
0.662327
0.661222
0.660099
0.658958
0.657799
0.656623
0.65543
0.654219
0.652992
0.651748
0.650488
0.649213
0.647922
0.646615
0.645146
0.64352
0.641896
0.640273
0.638653
0.637037
0.635424
0.633817
0.632216
0.630621
0.629033
0.627453
0.625881
0.624318
0.622764
0.621221
0.619688
0.618166
0.616655
0.615156
0.613669
0.612195
0.610734
0.609287
0.607852
0.606433
0.605027
0.603636
0.60226
0.600899
0.599553
0.598224
0.59691
0.595613
0.594332
0.593067
0.59182
0.590589
0.589376
0.58818
0.587002
0.585842
0.5847
0.583576
0.582471
0.581384
0.580316
0.579266
0.578236
0.577225
0.576233
0.575261
0.574308
0.573375
0.572462
0.571569
0.570697
0.569845
0.569013
0.568202
0.567412
0.566643
0.565894
0.565167
0.564462
0.563777
0.563115
0.562474
0.561855
0.561257
0.560682
0.560129
0.559599
0.55909
0.558605
0.558141
0.557701
0.557283
0.556888
0.556517
0.556168
0.555842
0.55554
0.555261
0.555005
0.554772
0.554563
0.554378
0.554216
0.554078
0.553963
0.553872
0.553804
0.553763
0.553733
)
;
    }
    bottomWall
    {
        type            calculated;
        value           nonuniform List<scalar> 
449
(
0.139455
0.0889624
0.0758116
0.0694397
0.0652564
0.06213
0.0596351
0.0575715
0.0558206
0.0543044
0.0529708
0.0517832
0.0507152
0.0497466
0.0488619
0.0480487
0.0472972
0.0465994
0.0459486
0.0453394
0.0447672
0.0442282
0.0437189
0.0432365
0.0427785
0.0423428
0.0419274
0.0415307
0.0411512
0.0407876
0.0404387
0.0401034
0.0397809
0.0394701
0.0391705
0.0388812
0.0386016
0.0383312
0.0380694
0.0378157
0.0375696
0.0373308
0.0370989
0.0368735
0.0366542
0.0364408
0.036233
0.0360306
0.0358332
0.0356406
0.0354527
0.0352692
0.0350899
0.0349147
0.0347434
0.0345758
0.0344118
0.0342512
0.0340939
0.0339399
0.0337889
0.0336408
0.0334957
0.0333532
0.0332134
0.0330762
0.0329414
0.0328091
0.032679
0.0325512
0.0324256
0.0323021
0.0321805
0.032061
0.0319434
0.0318276
0.0317137
0.0316015
0.031491
0.0313821
0.0312749
0.0311692
0.031065
0.0309623
0.0308611
0.0307612
0.0306628
0.0305656
0.0304698
0.0303752
0.0302818
0.0301897
0.0300987
0.0300089
0.0299201
0.0298325
0.029746
0.0296604
0.0295759
0.0294924
0.0294099
0.0293283
0.0292477
0.029168
0.0290891
0.0290112
0.028934
0.0288578
0.0287823
0.0287077
0.0286338
0.0285607
0.0284884
0.0284168
0.0283459
0.0282757
0.0282063
0.0281375
0.0280694
0.0280019
0.0279351
0.0278689
0.0278034
0.0277385
0.0276742
0.0276104
0.0275473
0.0274847
0.0274226
0.0273612
0.0273002
0.0272398
0.02718
0.0271206
0.0270617
0.0270034
0.0269455
0.0268881
0.0268312
0.0267748
0.0267188
0.0266632
0.0266081
0.0265535
0.0264993
0.0264455
0.0263921
0.0263391
0.0262865
0.0262344
0.0261826
0.0261312
0.0260802
0.0260296
0.0259793
0.0259294
0.0258799
0.0258307
0.0257819
0.0257334
0.0256853
0.0256375
0.02559
0.0255429
0.025496
0.0254495
0.0254033
0.0253575
0.0253119
0.0252666
0.0252216
0.0251769
0.0251326
0.025091
0.0250518
0.0250125
0.0249732
0.0249337
0.0248941
0.0248544
0.0248145
0.0247746
0.0247346
0.0246945
0.0246542
0.0246139
0.0245734
0.0245328
0.0244922
0.0244514
0.0244106
0.0243696
0.0243286
0.0242874
0.0242462
0.0242048
0.0241634
0.0241219
0.0240803
0.0240386
0.0239968
0.0239549
0.0239129
0.0238709
0.0238288
0.0237866
0.0237443
0.0237019
0.0236595
0.023617
0.0235744
0.0235317
0.023489
0.0234461
0.0234033
0.0233603
0.0233173
0.0232742
0.0232311
0.0231879
0.0231446
0.0231013
0.0230579
0.0230144
0.0229709
0.0229273
0.0228837
0.02284
0.0227963
0.0227525
0.0227087
0.0226648
0.0226209
0.022577
0.0225329
0.0224889
0.0224448
0.0224007
0.0223565
0.0223123
0.022268
0.0222237
0.0221794
0.0221351
0.0220907
0.0220463
0.0220018
0.0219573
0.0219128
0.0218683
0.0218238
0.0217792
0.0217346
0.02169
0.0216453
0.0216007
0.021556
0.0215113
0.0214666
0.0214219
0.0213772
0.0213324
0.0212877
0.0212429
0.0211981
0.0211533
0.0211086
0.0210638
0.021019
0.0209742
0.0209294
0.0208846
0.0208398
0.020795
0.0207502
0.0207054
0.0206606
0.0206158
0.0205711
0.0205263
0.0204815
0.0204368
0.0203921
0.0203473
0.0203026
0.0202579
0.0202133
0.0201686
0.020124
0.0200793
0.0200347
0.0199901
0.0199456
0.019901
0.0198565
0.019812
0.0197675
0.0197231
0.0196787
0.0196343
0.0195899
0.0195456
0.0195013
0.019457
0.0194128
0.0193686
0.0193244
0.0192802
0.0192361
0.0191921
0.019148
0.019104
0.0190601
0.0190161
0.0189723
0.0189284
0.0188846
0.0188409
0.0187972
0.0187535
0.0187099
0.0186663
0.0186227
0.0185793
0.0185358
0.0184924
0.0184491
0.0184058
0.0183625
0.0183193
0.0182762
0.0182331
0.0181901
0.0181471
0.0181042
0.0180613
0.0180185
0.0179757
0.017933
0.0178903
0.0178477
0.0178052
0.0177627
0.0177203
0.0176779
0.0176356
0.0175934
0.0175512
0.0175091
0.017467
0.017425
0.0173831
0.0173413
0.0172994
0.017253
0.0172024
0.0171527
0.0171036
0.0170552
0.0170075
0.0169604
0.0169141
0.0168683
0.0168232
0.0167787
0.0167349
0.0166915
0.0166488
0.0166066
0.016565
0.0165239
0.0164833
0.0164432
0.0164036
0.0163645
0.0163259
0.0162877
0.01625
0.0162128
0.0161759
0.0161396
0.0161036
0.016068
0.0160328
0.0159981
0.0159637
0.0159297
0.015896
0.0158628
0.0158298
0.0157973
0.015765
0.0157332
0.0157016
0.0156704
0.0156394
0.0156088
0.0155786
0.0155486
0.0155189
0.0154895
0.0154603
0.0154315
0.0154029
0.0153746
0.0153466
0.0153188
0.0152913
0.0152641
0.0152371
0.0152103
0.0151838
0.0151575
0.0151315
0.0151056
0.0150801
0.0150547
0.0150295
0.0150046
0.0149799
0.0149553
0.014931
0.0149069
0.014883
0.0148593
0.0148357
0.0148124
0.0147892
0.0147663
0.0147435
0.0147209
0.0146984
0.0146761
0.014654
0.014632
0.0146102
0.0145886
0.0145671
0.0145457
0.0145245
0.0145033
0.0144823
0.0144614
0.0144402
0.01442
0.0143997
0.0143662
0.0143849
0.0143259
)
;
    }
    symmetry
    {
        type            symmetryPlane;
    }
    frontAndBack
    {
        type            empty;
    }
}


// ************************************************************************* //
