/*--------------------------------*- C++ -*----------------------------------*\
| =========                 |                                                 |
| \\      /  F ield         | OpenFOAM: The Open Source CFD Toolbox           |
|  \\    /   O peration     | Version:  v2012                                 |
|   \\  /    A nd           | Website:  www.openfoam.com                      |
|    \\/     M anipulation  |                                                 |
\*---------------------------------------------------------------------------*/
FoamFile
{
    version     2.0;
    format      ascii;
    class       volScalarField;
    location    "1";
    object      epsilon;
}
// * * * * * * * * * * * * * * * * * * * * * * * * * * * * * * * * * * * * * //

dimensions      [0 2 -3 0 0 0 0];


internalField   nonuniform List<scalar> 
209825
(
0.838427
0.838352
0.83835
0.838351
0.838351
0.838351
0.838351
0.838351
0.838351
0.838351
0.838351
0.838351
0.838351
0.838351
0.838351
0.838351
0.838351
0.838351
0.838351
0.838351
0.838351
0.838352
0.838352
0.838352
0.838352
0.838352
0.838352
0.838352
0.838352
0.838352
0.838352
0.838353
0.838353
0.838353
0.838353
0.838353
0.838353
0.838354
0.838354
0.838354
0.838354
0.838355
0.838355
0.838356
0.838356
0.838356
0.838356
0.838356
0.838356
0.838356
0.838357
0.838357
0.838357
0.838357
0.838357
0.838356
0.838357
0.838357
0.838357
0.838356
0.838357
0.838357
0.838357
0.838357
0.838358
0.838358
0.838357
0.838358
0.838358
0.838358
0.838358
0.838361
0.838361
0.838361
0.83836
0.838358
0.83836
0.83836
0.838359
0.83836
0.83836
0.83836
0.83836
0.838359
0.83836
0.83836
0.838364
0.838364
0.838372
0.838372
0.838391
0.838413
0.838531
0.838425
0.895533
79.2869
0.838429
0.838354
0.838352
0.838353
0.838353
0.838353
0.838353
0.838353
0.838353
0.838353
0.838353
0.838353
0.838353
0.838353
0.838353
0.838353
0.838353
0.838354
0.838354
0.838354
0.838354
0.838354
0.838354
0.838354
0.838354
0.838354
0.838354
0.838355
0.838355
0.838355
0.838355
0.838355
0.838355
0.838355
0.838355
0.838356
0.838356
0.838356
0.838356
0.838357
0.838357
0.838357
0.838357
0.838358
0.838358
0.838358
0.838358
0.838359
0.838359
0.838358
0.838359
0.838359
0.838359
0.838359
0.838359
0.838359
0.83836
0.83836
0.83836
0.838359
0.838359
0.838359
0.83836
0.83836
0.83836
0.83836
0.83836
0.83836
0.83836
0.83836
0.83836
0.838363
0.838363
0.838363
0.838363
0.838361
0.838362
0.838362
0.838361
0.838362
0.838362
0.838363
0.838363
0.838361
0.838363
0.838363
0.838367
0.838367
0.838375
0.838375
0.838394
0.838416
0.838535
0.838428
0.896095
78.5489
0.838399
0.838323
0.838321
0.838321
0.838321
0.838321
0.838321
0.838321
0.838321
0.838321
0.838321
0.838322
0.838321
0.838322
0.838322
0.838322
0.838322
0.838322
0.838322
0.838322
0.838322
0.838322
0.838322
0.838322
0.838322
0.838323
0.838323
0.838323
0.838323
0.838323
0.838323
0.838323
0.838323
0.838324
0.838324
0.838324
0.838324
0.838325
0.838325
0.838325
0.838325
0.838326
0.838326
0.838326
0.838326
0.838327
0.838327
0.838327
0.838327
0.838327
0.838327
0.838327
0.838328
0.838328
0.838328
0.838327
0.838328
0.838328
0.838328
0.838327
0.838327
0.838327
0.838328
0.838328
0.838328
0.838328
0.838328
0.838329
0.838329
0.838329
0.838329
0.838332
0.838332
0.838332
0.838331
0.838329
0.83833
0.83833
0.83833
0.838331
0.838331
0.838331
0.838331
0.83833
0.838331
0.838331
0.838335
0.838335
0.838343
0.838344
0.838363
0.838386
0.838508
0.838398
0.897199
77.6776
0.838342
0.838264
0.838262
0.838262
0.838262
0.838262
0.838262
0.838262
0.838262
0.838262
0.838262
0.838263
0.838263
0.838263
0.838263
0.838263
0.838263
0.838263
0.838263
0.838263
0.838263
0.838263
0.838263
0.838263
0.838263
0.838264
0.838264
0.838264
0.838264
0.838264
0.838264
0.838265
0.838265
0.838265
0.838265
0.838265
0.838265
0.838266
0.838266
0.838266
0.838266
0.838267
0.838267
0.838267
0.838267
0.838268
0.838268
0.838268
0.838268
0.838268
0.838269
0.838269
0.838269
0.838269
0.838269
0.838268
0.838269
0.838269
0.838269
0.838268
0.838269
0.838269
0.838269
0.838269
0.83827
0.83827
0.838269
0.83827
0.83827
0.83827
0.83827
0.838273
0.838273
0.838273
0.838272
0.83827
0.838272
0.838272
0.838271
0.838272
0.838272
0.838272
0.838272
0.838271
0.838273
0.838273
0.838277
0.838277
0.838285
0.838286
0.838306
0.838329
0.838457
0.838341
0.898556
76.8287
0.83826
0.838178
0.838176
0.838177
0.838177
0.838177
0.838177
0.838177
0.838177
0.838177
0.838177
0.838177
0.838177
0.838177
0.838177
0.838177
0.838177
0.838177
0.838177
0.838178
0.838178
0.838178
0.838178
0.838178
0.838178
0.838178
0.838178
0.838179
0.838179
0.838179
0.838179
0.838179
0.838179
0.838179
0.838179
0.83818
0.83818
0.83818
0.83818
0.838181
0.838181
0.838181
0.838181
0.838182
0.838182
0.838183
0.838183
0.838183
0.838183
0.838183
0.838184
0.838184
0.838184
0.838184
0.838184
0.838183
0.838184
0.838184
0.838184
0.838183
0.838183
0.838183
0.838184
0.838184
0.838184
0.838184
0.838184
0.838185
0.838185
0.838185
0.838185
0.838188
0.838188
0.838188
0.838187
0.838185
0.838187
0.838187
0.838186
0.838187
0.838187
0.838187
0.838187
0.838186
0.838188
0.838188
0.838192
0.838192
0.838201
0.838201
0.838223
0.838246
0.838382
0.838259
0.900069
76.0707
0.838153
0.838067
0.838065
0.838065
0.838065
0.838065
0.838065
0.838065
0.838065
0.838065
0.838065
0.838066
0.838066
0.838066
0.838066
0.838066
0.838066
0.838066
0.838066
0.838066
0.838066
0.838066
0.838066
0.838067
0.838067
0.838067
0.838067
0.838067
0.838067
0.838067
0.838067
0.838068
0.838068
0.838068
0.838068
0.838069
0.838069
0.838069
0.838069
0.83807
0.83807
0.83807
0.83807
0.838071
0.838071
0.838072
0.838072
0.838072
0.838072
0.838072
0.838073
0.838072
0.838073
0.838073
0.838072
0.838072
0.838073
0.838073
0.838073
0.838072
0.838072
0.838072
0.838073
0.838073
0.838073
0.838073
0.838073
0.838074
0.838074
0.838074
0.838074
0.838077
0.838077
0.838077
0.838076
0.838075
0.838076
0.838076
0.838075
0.838076
0.838076
0.838076
0.838076
0.838075
0.838077
0.838077
0.838082
0.838082
0.838091
0.838091
0.838114
0.838138
0.838282
0.838151
0.901646
75.432
0.838022
0.83793
0.837927
0.837928
0.837928
0.837928
0.837928
0.837928
0.837928
0.837928
0.837928
0.837928
0.837928
0.837929
0.837929
0.837929
0.837929
0.837929
0.837929
0.837929
0.837929
0.837929
0.837929
0.83793
0.83793
0.83793
0.83793
0.83793
0.83793
0.83793
0.83793
0.837931
0.837931
0.837931
0.837931
0.837932
0.837932
0.837932
0.837932
0.837933
0.837933
0.837933
0.837933
0.837934
0.837934
0.837935
0.837935
0.837935
0.837935
0.837935
0.837936
0.837936
0.837936
0.837936
0.837936
0.837935
0.837936
0.837936
0.837936
0.837935
0.837936
0.837936
0.837937
0.837937
0.837937
0.837937
0.837937
0.837937
0.837937
0.837937
0.837937
0.837941
0.837941
0.83794
0.83794
0.837938
0.837939
0.837939
0.837938
0.83794
0.83794
0.83794
0.83794
0.837939
0.837941
0.837941
0.837946
0.837946
0.837955
0.837956
0.83798
0.838005
0.838159
0.838019
0.903199
74.9181
0.837866
0.837768
0.837765
0.837766
0.837766
0.837766
0.837766
0.837766
0.837766
0.837766
0.837766
0.837766
0.837766
0.837766
0.837766
0.837766
0.837766
0.837766
0.837766
0.837767
0.837767
0.837767
0.837767
0.837767
0.837767
0.837767
0.837767
0.837768
0.837768
0.837768
0.837768
0.837768
0.837768
0.837769
0.837769
0.837769
0.837769
0.83777
0.83777
0.837771
0.837771
0.837771
0.837771
0.837772
0.837772
0.837773
0.837773
0.837773
0.837773
0.837773
0.837774
0.837774
0.837774
0.837774
0.837774
0.837773
0.837775
0.837775
0.837774
0.837773
0.837774
0.837774
0.837775
0.837775
0.837775
0.837775
0.837775
0.837775
0.837775
0.837775
0.837775
0.837779
0.837779
0.837779
0.837778
0.837777
0.837778
0.837778
0.837777
0.837778
0.837778
0.837779
0.837778
0.837777
0.83778
0.83778
0.837784
0.837784
0.837794
0.837795
0.837821
0.837847
0.838012
0.837862
0.904648
74.5183
0.837686
0.83758
0.837577
0.837578
0.837578
0.837578
0.837578
0.837578
0.837578
0.837578
0.837578
0.837578
0.837578
0.837578
0.837578
0.837579
0.837579
0.837579
0.837579
0.837579
0.837579
0.837579
0.837579
0.837579
0.837579
0.83758
0.83758
0.83758
0.83758
0.83758
0.83758
0.837581
0.837581
0.837581
0.837581
0.837582
0.837582
0.837582
0.837582
0.837583
0.837583
0.837584
0.837584
0.837585
0.837585
0.837586
0.837586
0.837586
0.837586
0.837586
0.837587
0.837587
0.837587
0.837587
0.837587
0.837586
0.837587
0.837587
0.837587
0.837586
0.837587
0.837587
0.837588
0.837588
0.837587
0.837588
0.837588
0.837589
0.837589
0.837589
0.837588
0.837592
0.837592
0.837592
0.837592
0.83759
0.837591
0.837591
0.83759
0.837591
0.837591
0.837592
0.837592
0.837591
0.837593
0.837593
0.837598
0.837598
0.837609
0.83761
0.837638
0.837665
0.837841
0.837681
0.905916
74.2103
0.837483
0.837368
0.837364
0.837365
0.837365
0.837365
0.837365
0.837365
0.837365
0.837365
0.837365
0.837365
0.837365
0.837365
0.837365
0.837366
0.837366
0.837366
0.837366
0.837366
0.837366
0.837366
0.837366
0.837367
0.837367
0.837367
0.837367
0.837367
0.837367
0.837368
0.837368
0.837368
0.837368
0.837369
0.837369
0.837369
0.837369
0.83737
0.83737
0.837371
0.837371
0.837371
0.837371
0.837372
0.837372
0.837373
0.837373
0.837374
0.837374
0.837374
0.837375
0.837375
0.837375
0.837374
0.837374
0.837374
0.837375
0.837375
0.837375
0.837374
0.837374
0.837374
0.837376
0.837376
0.837375
0.837376
0.837376
0.837377
0.837377
0.837377
0.837376
0.837381
0.83738
0.83738
0.83738
0.837379
0.837379
0.837379
0.837378
0.837379
0.837379
0.83738
0.83738
0.837379
0.837382
0.837382
0.837387
0.837387
0.837398
0.837399
0.837429
0.837457
0.837647
0.837476
0.906933
73.9635
0.837256
0.83713
0.837126
0.837127
0.837127
0.837127
0.837127
0.837127
0.837127
0.837127
0.837127
0.837127
0.837127
0.837127
0.837127
0.837128
0.837128
0.837128
0.837128
0.837128
0.837128
0.837128
0.837128
0.837129
0.837129
0.837129
0.837129
0.837129
0.837129
0.83713
0.83713
0.83713
0.83713
0.837131
0.837131
0.837132
0.837131
0.837132
0.837132
0.837133
0.837133
0.837134
0.837134
0.837135
0.837135
0.837136
0.837136
0.837137
0.837137
0.837137
0.837138
0.837138
0.837138
0.837137
0.837137
0.837137
0.837138
0.837138
0.837138
0.837137
0.837137
0.837137
0.837138
0.837138
0.837138
0.837139
0.837139
0.83714
0.83714
0.83714
0.837139
0.837144
0.837144
0.837143
0.837143
0.837142
0.837143
0.837143
0.837141
0.837142
0.837142
0.837144
0.837143
0.837142
0.837145
0.837146
0.837151
0.837151
0.837162
0.837164
0.837197
0.837225
0.83743
0.837246
0.907635
73.7416
0.837005
0.836866
0.836862
0.836863
0.836863
0.836863
0.836863
0.836863
0.836863
0.836864
0.836864
0.836864
0.836864
0.836864
0.836864
0.836864
0.836864
0.836864
0.836864
0.836865
0.836865
0.836865
0.836865
0.836865
0.836865
0.836866
0.836866
0.836866
0.836866
0.836867
0.836867
0.836867
0.836867
0.836868
0.836868
0.836868
0.836868
0.836869
0.836869
0.83687
0.83687
0.836871
0.836871
0.836872
0.836872
0.836873
0.836873
0.836874
0.836874
0.836874
0.836875
0.836875
0.836875
0.836874
0.836875
0.836874
0.836876
0.836876
0.836876
0.836874
0.836875
0.836875
0.836876
0.836876
0.836876
0.836876
0.836876
0.836878
0.836878
0.836877
0.836877
0.836882
0.836882
0.836881
0.836881
0.83688
0.836881
0.836881
0.836879
0.83688
0.83688
0.836882
0.836882
0.836881
0.836884
0.836885
0.83689
0.83689
0.836902
0.836903
0.836939
0.836968
0.837188
0.836992
0.907967
73.5052
0.836731
0.836578
0.836573
0.836574
0.836574
0.836574
0.836574
0.836574
0.836574
0.836574
0.836574
0.836575
0.836575
0.836575
0.836575
0.836575
0.836575
0.836575
0.836575
0.836576
0.836576
0.836576
0.836576
0.836576
0.836576
0.836577
0.836577
0.836577
0.836577
0.836578
0.836578
0.836578
0.836578
0.836579
0.836579
0.83658
0.83658
0.836581
0.836581
0.836582
0.836582
0.836583
0.836583
0.836584
0.836584
0.836585
0.836585
0.836587
0.836587
0.836586
0.836588
0.836588
0.836587
0.836586
0.836587
0.836587
0.836588
0.836588
0.836588
0.836586
0.836587
0.836587
0.836588
0.836588
0.836588
0.836589
0.836589
0.83659
0.83659
0.83659
0.836589
0.836594
0.836594
0.836594
0.836593
0.836594
0.836594
0.836593
0.836591
0.836593
0.836593
0.836595
0.836595
0.836594
0.836596
0.836598
0.836604
0.836604
0.836616
0.836617
0.836656
0.836686
0.836923
0.836713
0.907882
73.2139
0.836432
0.836263
0.836258
0.836259
0.836259
0.836259
0.836259
0.836259
0.836259
0.836259
0.836259
0.836259
0.836259
0.83626
0.83626
0.83626
0.83626
0.83626
0.83626
0.836261
0.836261
0.836261
0.836261
0.836261
0.836261
0.836262
0.836262
0.836262
0.836262
0.836263
0.836263
0.836264
0.836264
0.836264
0.836264
0.836265
0.836265
0.836266
0.836266
0.836267
0.836267
0.836268
0.836268
0.83627
0.83627
0.836271
0.836271
0.836273
0.836273
0.836273
0.836274
0.836274
0.836274
0.836272
0.836273
0.836273
0.836274
0.836274
0.836274
0.836272
0.836273
0.836273
0.836275
0.836275
0.836274
0.836275
0.836275
0.836277
0.836276
0.836276
0.836276
0.836281
0.836281
0.836281
0.836279
0.836281
0.836281
0.83628
0.836278
0.83628
0.83628
0.836282
0.836282
0.836281
0.836283
0.836286
0.836292
0.836292
0.836304
0.836306
0.836348
0.836379
0.836632
0.836409
0.907342
72.8285
0.836109
0.835922
0.835916
0.835917
0.835917
0.835917
0.835917
0.835917
0.835917
0.835918
0.835918
0.835918
0.835918
0.835918
0.835918
0.835918
0.835918
0.835919
0.835919
0.835919
0.835919
0.835919
0.835919
0.83592
0.83592
0.83592
0.83592
0.835921
0.835921
0.835922
0.835922
0.835922
0.835922
0.835923
0.835923
0.835924
0.835924
0.835925
0.835925
0.835926
0.835926
0.835928
0.835928
0.835929
0.835929
0.835931
0.835931
0.835933
0.835933
0.835933
0.835934
0.835934
0.835934
0.835932
0.835933
0.835933
0.835934
0.835934
0.835934
0.835932
0.835933
0.835933
0.835935
0.835935
0.835934
0.835935
0.835935
0.835937
0.835937
0.835937
0.835936
0.835942
0.835942
0.835941
0.83594
0.835942
0.835942
0.835941
0.835938
0.835941
0.83594
0.835943
0.835943
0.835942
0.835944
0.835948
0.835953
0.835954
0.835967
0.835968
0.836013
0.836045
0.836317
0.83608
0.906321
72.313
0.835761
0.835554
0.835547
0.835548
0.835548
0.835548
0.835548
0.835549
0.835549
0.835549
0.835549
0.835549
0.835549
0.835549
0.835549
0.83555
0.83555
0.83555
0.83555
0.835551
0.835551
0.835551
0.835551
0.835552
0.835552
0.835552
0.835552
0.835553
0.835553
0.835553
0.835553
0.835554
0.835554
0.835555
0.835555
0.835556
0.835556
0.835557
0.835557
0.835559
0.835559
0.83556
0.83556
0.835562
0.835562
0.835564
0.835564
0.835566
0.835566
0.835566
0.835567
0.835567
0.835567
0.835565
0.835566
0.835566
0.835568
0.835568
0.835567
0.835565
0.835566
0.835566
0.835568
0.835568
0.835567
0.835569
0.835569
0.83557
0.83557
0.83557
0.83557
0.835576
0.835575
0.835575
0.835574
0.835576
0.835576
0.835575
0.835572
0.835575
0.835574
0.835577
0.835577
0.835576
0.835577
0.835583
0.835588
0.835589
0.835603
0.835604
0.835653
0.835686
0.835976
0.835724
0.904803
71.6357
0.835389
0.835158
0.83515
0.835152
0.835152
0.835152
0.835152
0.835152
0.835152
0.835153
0.835153
0.835153
0.835153
0.835153
0.835153
0.835153
0.835153
0.835154
0.835154
0.835154
0.835154
0.835155
0.835155
0.835155
0.835155
0.835156
0.835156
0.835157
0.835157
0.835158
0.835158
0.835159
0.835158
0.83516
0.83516
0.835161
0.835161
0.835162
0.835162
0.835163
0.835163
0.835165
0.835165
0.835167
0.835167
0.835169
0.835169
0.835172
0.835172
0.835172
0.835173
0.835173
0.835173
0.835171
0.835172
0.835172
0.835173
0.835173
0.835173
0.835171
0.835172
0.835172
0.835174
0.835174
0.835173
0.835175
0.835174
0.835176
0.835176
0.835176
0.835176
0.835182
0.835182
0.835182
0.83518
0.835183
0.835183
0.835182
0.835178
0.835181
0.835181
0.835184
0.835184
0.835183
0.835183
0.835191
0.835196
0.835197
0.835211
0.835213
0.835265
0.835298
0.835609
0.835341
0.902782
70.771
0.83499
0.834734
0.834725
0.834727
0.834727
0.834727
0.834727
0.834727
0.834727
0.834728
0.834728
0.834728
0.834728
0.834728
0.834728
0.834729
0.834729
0.834729
0.834729
0.83473
0.83473
0.83473
0.83473
0.834731
0.834731
0.834731
0.834731
0.834732
0.834732
0.834733
0.834733
0.834734
0.834734
0.834735
0.834735
0.834737
0.834737
0.834738
0.834738
0.83474
0.83474
0.834742
0.834742
0.834744
0.834744
0.834746
0.834746
0.834749
0.834749
0.83475
0.83475
0.83475
0.83475
0.834748
0.834749
0.834749
0.834751
0.834751
0.83475
0.834748
0.834749
0.834749
0.834752
0.834752
0.834751
0.834752
0.834752
0.834753
0.834754
0.834754
0.834754
0.83476
0.83476
0.834759
0.834759
0.834761
0.834761
0.83476
0.834756
0.83476
0.83476
0.834763
0.834763
0.834763
0.834761
0.834771
0.834775
0.834777
0.834791
0.834793
0.834849
0.834883
0.835214
0.83493
0.900268
69.6994
0.834566
0.834281
0.83427
0.834272
0.834272
0.834273
0.834273
0.834273
0.834273
0.834273
0.834273
0.834273
0.834273
0.834274
0.834274
0.834274
0.834274
0.834275
0.834275
0.834275
0.834275
0.834276
0.834276
0.834277
0.834277
0.834277
0.834277
0.834278
0.834278
0.834279
0.834279
0.834281
0.834281
0.834282
0.834282
0.834283
0.834283
0.834285
0.834285
0.834287
0.834287
0.834289
0.834289
0.834291
0.834291
0.834294
0.834294
0.834297
0.834297
0.834298
0.834299
0.834299
0.834298
0.834296
0.834298
0.834297
0.834299
0.834299
0.834299
0.834296
0.834298
0.834297
0.8343
0.8343
0.834299
0.834301
0.834301
0.834302
0.834302
0.834302
0.834304
0.834309
0.834309
0.834308
0.834309
0.834311
0.834311
0.83431
0.834305
0.834309
0.834309
0.834313
0.834313
0.834312
0.83431
0.834321
0.834325
0.834329
0.834342
0.834344
0.834405
0.834439
0.834791
0.834491
0.89728
68.4089
0.834115
0.833797
0.833785
0.833787
0.833787
0.833788
0.833787
0.833788
0.833788
0.833788
0.833788
0.833789
0.833789
0.833789
0.833789
0.833789
0.833789
0.83379
0.83379
0.833791
0.833791
0.833791
0.833791
0.833792
0.833792
0.833793
0.833793
0.833794
0.833794
0.833795
0.833795
0.833796
0.833796
0.833798
0.833798
0.833799
0.833799
0.833801
0.833801
0.833803
0.833803
0.833806
0.833806
0.833808
0.833808
0.833811
0.833811
0.833815
0.833815
0.833816
0.833817
0.833817
0.833816
0.833814
0.833816
0.833816
0.833817
0.833817
0.833817
0.833814
0.833816
0.833816
0.833819
0.833819
0.833818
0.833819
0.833819
0.833819
0.833821
0.83382
0.833823
0.833828
0.833827
0.833827
0.833829
0.83383
0.83383
0.833829
0.833824
0.833829
0.833829
0.833833
0.833833
0.833832
0.833829
0.833842
0.833845
0.833851
0.833864
0.833865
0.833931
0.833966
0.834339
0.834022
0.893851
66.8945
0.833636
0.833282
0.833268
0.83327
0.83327
0.833271
0.833271
0.833271
0.833271
0.833272
0.833272
0.833272
0.833272
0.833273
0.833272
0.833273
0.833273
0.833274
0.833274
0.833274
0.833274
0.833275
0.833275
0.833276
0.833276
0.833277
0.833277
0.833278
0.833278
0.833279
0.833279
0.833281
0.833281
0.833282
0.833282
0.833284
0.833284
0.833286
0.833286
0.833288
0.833288
0.833291
0.833291
0.833294
0.833294
0.833297
0.833297
0.833301
0.833301
0.833303
0.833303
0.833303
0.833303
0.833301
0.833302
0.833302
0.833304
0.833304
0.833304
0.833301
0.833302
0.833302
0.833306
0.833306
0.833305
0.833306
0.833306
0.833306
0.833308
0.833307
0.833311
0.833315
0.833315
0.833314
0.833318
0.833318
0.833318
0.833317
0.833312
0.833318
0.833317
0.833322
0.833321
0.833321
0.833316
0.833331
0.833333
0.833341
0.833354
0.833356
0.833426
0.833461
0.833856
0.833522
0.890026
65.1584
0.833128
0.832734
0.832718
0.832721
0.832721
0.832721
0.832721
0.832722
0.832722
0.832722
0.832722
0.832723
0.832722
0.832723
0.832723
0.832724
0.832724
0.832724
0.832724
0.832725
0.832725
0.832726
0.832726
0.832727
0.832727
0.832728
0.832728
0.832729
0.832729
0.832731
0.832731
0.832732
0.832732
0.832734
0.832734
0.832736
0.832736
0.832738
0.832738
0.832741
0.832741
0.832744
0.832744
0.832747
0.832747
0.832751
0.832751
0.832755
0.832755
0.832758
0.832758
0.832758
0.832757
0.832755
0.832757
0.832757
0.832759
0.832759
0.832758
0.832755
0.832757
0.832757
0.832761
0.832761
0.83276
0.83276
0.83276
0.83276
0.832762
0.832762
0.832767
0.83277
0.83277
0.832769
0.832774
0.832774
0.832774
0.832773
0.832768
0.832774
0.832774
0.832778
0.832777
0.832777
0.832771
0.832788
0.832789
0.8328
0.832812
0.832813
0.832889
0.832924
0.833341
0.83299
0.885858
63.2094
0.832591
0.832152
0.832134
0.832137
0.832137
0.832137
0.832137
0.832138
0.832138
0.832138
0.832138
0.832139
0.832139
0.832139
0.832139
0.83214
0.83214
0.832141
0.832141
0.832142
0.832142
0.832143
0.832143
0.832144
0.832144
0.832145
0.832145
0.832146
0.832146
0.832148
0.832148
0.83215
0.83215
0.832152
0.832152
0.832154
0.832154
0.832156
0.832156
0.832159
0.832159
0.832162
0.832162
0.832166
0.832166
0.83217
0.83217
0.832175
0.832175
0.832178
0.832178
0.832178
0.832178
0.832175
0.832177
0.832177
0.832179
0.832179
0.832178
0.832175
0.832177
0.832177
0.832182
0.832182
0.832181
0.83218
0.832181
0.83218
0.832183
0.832183
0.832189
0.832191
0.832191
0.832189
0.832196
0.832197
0.832196
0.832194
0.83219
0.832196
0.832196
0.8322
0.8322
0.832199
0.832193
0.832211
0.832211
0.832225
0.832236
0.832238
0.832319
0.832353
0.832792
0.832425
0.881414
61.0622
0.832024
0.831534
0.831514
0.831517
0.831517
0.831517
0.831517
0.831518
0.831518
0.831518
0.831518
0.831519
0.831519
0.83152
0.83152
0.83152
0.83152
0.831521
0.831521
0.831522
0.831522
0.831523
0.831523
0.831525
0.831525
0.831526
0.831526
0.831528
0.831528
0.831529
0.831529
0.831531
0.831531
0.831534
0.831533
0.831536
0.831536
0.831539
0.831539
0.831542
0.831542
0.831546
0.831546
0.83155
0.83155
0.831554
0.831554
0.83156
0.83156
0.831563
0.831563
0.831563
0.831563
0.83156
0.831562
0.831562
0.831564
0.831564
0.831563
0.83156
0.831562
0.831562
0.831568
0.831567
0.831567
0.831565
0.831566
0.831565
0.831568
0.831568
0.831576
0.831577
0.831577
0.831575
0.831583
0.831584
0.831583
0.831581
0.831577
0.831583
0.831584
0.831587
0.831587
0.831586
0.831579
0.831598
0.831598
0.831615
0.831625
0.831627
0.831714
0.831748
0.832209
0.831826
0.876766
58.737
0.831426
0.83088
0.830856
0.830859
0.830859
0.83086
0.83086
0.830861
0.830861
0.830861
0.830861
0.830862
0.830862
0.830863
0.830863
0.830864
0.830864
0.830864
0.830864
0.830866
0.830866
0.830867
0.830867
0.830868
0.830868
0.83087
0.83087
0.830871
0.830871
0.830874
0.830873
0.830876
0.830876
0.830878
0.830878
0.830881
0.830881
0.830884
0.830884
0.830888
0.830888
0.830892
0.830892
0.830896
0.830896
0.830901
0.830901
0.830908
0.830908
0.830911
0.830911
0.830911
0.830911
0.830908
0.830911
0.830911
0.830912
0.830912
0.830911
0.830908
0.830911
0.83091
0.830916
0.830916
0.830916
0.830913
0.830914
0.830914
0.830917
0.830916
0.830925
0.830926
0.830926
0.830924
0.830934
0.830934
0.830933
0.830929
0.830927
0.830934
0.830936
0.830938
0.830937
0.830937
0.830928
0.830948
0.830948
0.830968
0.830978
0.830979
0.831072
0.831105
0.831588
0.831192
0.871993
56.2577
0.830795
0.830186
0.830159
0.830163
0.830163
0.830164
0.830164
0.830164
0.830164
0.830165
0.830165
0.830166
0.830166
0.830166
0.830166
0.830167
0.830167
0.830168
0.830168
0.83017
0.83017
0.830171
0.830171
0.830173
0.830173
0.830174
0.830174
0.830176
0.830176
0.830178
0.830178
0.830181
0.830181
0.830184
0.830184
0.830187
0.830187
0.83019
0.83019
0.830194
0.830194
0.830199
0.830199
0.830204
0.830204
0.83021
0.83021
0.830217
0.830217
0.830221
0.830221
0.83022
0.83022
0.830218
0.83022
0.83022
0.830222
0.830222
0.830221
0.830217
0.83022
0.83022
0.830227
0.830226
0.830226
0.830222
0.830224
0.830223
0.830226
0.830226
0.830236
0.830236
0.830236
0.830235
0.830246
0.830246
0.830245
0.830239
0.830239
0.830245
0.830248
0.830249
0.830249
0.830249
0.830239
0.83026
0.83026
0.830283
0.830292
0.830293
0.830392
0.830425
0.830929
0.83052
0.867179
53.6519
0.830131
0.829452
0.829421
0.829425
0.829425
0.829426
0.829426
0.829427
0.829427
0.829427
0.829427
0.829428
0.829428
0.829429
0.829429
0.82943
0.82943
0.829431
0.829431
0.829433
0.829433
0.829434
0.829434
0.829436
0.829436
0.829438
0.829438
0.82944
0.82944
0.829443
0.829442
0.829445
0.829445
0.829448
0.829448
0.829452
0.829452
0.829456
0.829456
0.82946
0.82946
0.829465
0.829465
0.829471
0.829471
0.829477
0.829477
0.829485
0.829485
0.82949
0.829489
0.829489
0.829489
0.829486
0.82949
0.82949
0.829491
0.829491
0.82949
0.829486
0.829489
0.829489
0.829496
0.829496
0.829495
0.829492
0.829493
0.829493
0.829496
0.829496
0.829506
0.829506
0.829507
0.829505
0.829518
0.829518
0.829516
0.829508
0.829512
0.829515
0.82952
0.829521
0.829521
0.82952
0.82951
0.829531
0.829531
0.829557
0.829566
0.829567
0.829673
0.829704
0.830229
0.829812
0.862406
50.9488
0.829432
0.828675
0.82864
0.828644
0.828644
0.828645
0.828645
0.828646
0.828646
0.828647
0.828647
0.828647
0.828647
0.828648
0.828648
0.82865
0.82865
0.828651
0.828651
0.828653
0.828653
0.828654
0.828654
0.828656
0.828656
0.828658
0.828658
0.828661
0.828661
0.828664
0.828664
0.828667
0.828667
0.82867
0.82867
0.828674
0.828674
0.828678
0.828678
0.828683
0.828683
0.828689
0.828689
0.828695
0.828695
0.828703
0.828703
0.828711
0.828711
0.828716
0.828716
0.828716
0.828715
0.828713
0.828717
0.828716
0.828717
0.828717
0.828717
0.828712
0.828716
0.828716
0.828724
0.828723
0.828723
0.828718
0.82872
0.82872
0.828723
0.828723
0.828733
0.828733
0.828735
0.828733
0.828748
0.828748
0.828746
0.828735
0.828741
0.828742
0.82875
0.82875
0.82875
0.82875
0.828738
0.82876
0.82876
0.82879
0.828798
0.828799
0.828911
0.828942
0.829486
0.829064
0.85776
48.1792
0.828697
0.827854
0.827813
0.827818
0.827818
0.827819
0.827819
0.82782
0.82782
0.827821
0.82782
0.827822
0.827821
0.827823
0.827823
0.827824
0.827824
0.827825
0.827825
0.827827
0.827827
0.827829
0.827829
0.827831
0.827831
0.827834
0.827834
0.827836
0.827836
0.82784
0.827839
0.827843
0.827843
0.827847
0.827847
0.827851
0.827851
0.827856
0.827856
0.827861
0.827861
0.827868
0.827868
0.827875
0.827875
0.827883
0.827883
0.827893
0.827893
0.827898
0.827898
0.827897
0.827897
0.827895
0.827899
0.827899
0.827899
0.827899
0.827899
0.827894
0.827899
0.827899
0.827907
0.827906
0.827905
0.827901
0.827903
0.827903
0.827906
0.827905
0.827916
0.827916
0.827919
0.827917
0.827934
0.827934
0.827931
0.827918
0.827926
0.827926
0.827935
0.827935
0.827935
0.827935
0.827922
0.827945
0.827945
0.827978
0.827986
0.827987
0.828106
0.828135
0.828698
0.828276
0.853317
45.3737
0.827925
0.826986
0.826939
0.826944
0.826944
0.826945
0.826945
0.826946
0.826946
0.826947
0.826947
0.826948
0.826948
0.826949
0.826949
0.826951
0.826951
0.826952
0.826952
0.826954
0.826954
0.826956
0.826956
0.826959
0.826959
0.826962
0.826962
0.826965
0.826965
0.826968
0.826968
0.826972
0.826972
0.826976
0.826976
0.826981
0.826981
0.826986
0.826986
0.826993
0.826993
0.827
0.827
0.827008
0.827008
0.827017
0.827017
0.827028
0.827028
0.827033
0.827033
0.827032
0.827032
0.827031
0.827035
0.827035
0.827034
0.827035
0.827034
0.82703
0.827035
0.827035
0.827043
0.827042
0.827041
0.827037
0.827039
0.827039
0.827042
0.827041
0.827052
0.827052
0.827056
0.827055
0.827073
0.827073
0.82707
0.827054
0.827063
0.827062
0.827073
0.827073
0.827074
0.827074
0.82706
0.827084
0.827084
0.827121
0.827128
0.827128
0.827254
0.827282
0.827862
0.827446
0.849152
42.5621
0.827115
0.826069
0.826015
0.82602
0.82602
0.826021
0.826021
0.826022
0.826022
0.826023
0.826023
0.826024
0.826024
0.826026
0.826026
0.826027
0.826027
0.826029
0.826029
0.826031
0.826031
0.826034
0.826034
0.826037
0.826037
0.82604
0.82604
0.826043
0.826043
0.826047
0.826047
0.826051
0.826051
0.826056
0.826056
0.826061
0.826061
0.826067
0.826067
0.826074
0.826074
0.826082
0.826082
0.826091
0.826091
0.826102
0.826101
0.826114
0.826114
0.82612
0.826119
0.826117
0.826119
0.826117
0.826122
0.826121
0.82612
0.826121
0.826121
0.826116
0.826122
0.826122
0.82613
0.826129
0.826128
0.826124
0.826127
0.826126
0.826129
0.826128
0.826139
0.826139
0.826145
0.826144
0.826164
0.826164
0.826161
0.826141
0.826152
0.826151
0.826163
0.826163
0.826164
0.826164
0.826149
0.826174
0.826174
0.826214
0.826221
0.826221
0.826354
0.82638
0.826976
0.826574
0.845327
39.7727
0.826265
0.8251
0.825037
0.825043
0.825043
0.825044
0.825044
0.825045
0.825045
0.825047
0.825047
0.825048
0.825048
0.82505
0.82505
0.825052
0.825052
0.825054
0.825054
0.825056
0.825056
0.825059
0.825059
0.825062
0.825062
0.825065
0.825065
0.825069
0.825069
0.825073
0.825073
0.825078
0.825078
0.825083
0.825083
0.82509
0.825089
0.825096
0.825096
0.825104
0.825104
0.825113
0.825113
0.825123
0.825123
0.825135
0.825134
0.825148
0.825148
0.825155
0.825154
0.825152
0.825153
0.825152
0.825156
0.825156
0.825154
0.825156
0.825156
0.825151
0.825158
0.825158
0.825165
0.825164
0.825164
0.825161
0.825163
0.825163
0.825165
0.825164
0.825175
0.825175
0.825183
0.825182
0.825203
0.825203
0.8252
0.825177
0.825189
0.825188
0.825202
0.825202
0.825203
0.825203
0.825186
0.825213
0.825212
0.825256
0.825263
0.825263
0.825403
0.825427
0.826037
0.825658
0.841893
37.0313
0.825375
0.824077
0.824005
0.824011
0.824011
0.824012
0.824012
0.824013
0.824013
0.824015
0.824015
0.824017
0.824016
0.824018
0.824018
0.82402
0.82402
0.824023
0.824023
0.824025
0.824025
0.824028
0.824028
0.824032
0.824032
0.824036
0.824036
0.82404
0.82404
0.824045
0.824045
0.82405
0.82405
0.824056
0.824056
0.824063
0.824063
0.82407
0.82407
0.824079
0.824079
0.824089
0.824089
0.8241
0.8241
0.824113
0.824113
0.824128
0.824128
0.824135
0.824134
0.824132
0.824134
0.824133
0.824137
0.824137
0.824134
0.824137
0.824137
0.824131
0.824139
0.824139
0.824145
0.824145
0.824145
0.824143
0.824145
0.824145
0.824147
0.824145
0.824157
0.824157
0.824167
0.824166
0.824189
0.824189
0.824186
0.824159
0.824172
0.824171
0.824186
0.824186
0.824189
0.824189
0.82417
0.824198
0.824197
0.824245
0.824251
0.824251
0.824398
0.824421
0.825043
0.824697
0.838889
34.361
0.824442
0.822997
0.822914
0.82292
0.82292
0.822922
0.822922
0.822923
0.822923
0.822925
0.822925
0.822927
0.822927
0.822929
0.822929
0.822931
0.822931
0.822934
0.822934
0.822937
0.822937
0.82294
0.82294
0.822944
0.822944
0.822948
0.822948
0.822953
0.822953
0.822958
0.822958
0.822964
0.822964
0.822971
0.822971
0.822978
0.822978
0.822987
0.822987
0.822997
0.822996
0.823008
0.823007
0.82302
0.82302
0.823035
0.823035
0.823052
0.823051
0.823059
0.823058
0.823055
0.823058
0.823057
0.82306
0.82306
0.823058
0.823061
0.823061
0.823055
0.823064
0.823064
0.82307
0.823069
0.823069
0.82307
0.823071
0.823072
0.823072
0.82307
0.823082
0.823082
0.823095
0.823094
0.823119
0.823119
0.823115
0.823085
0.823098
0.823098
0.823115
0.823115
0.823118
0.823118
0.823097
0.823127
0.823126
0.823177
0.823183
0.823183
0.823338
0.823358
0.82399
0.823688
0.836338
31.7815
0.823465
0.821858
0.821762
0.821768
0.821768
0.82177
0.82177
0.821772
0.821772
0.821774
0.821773