/*--------------------------------*- C++ -*----------------------------------*\
| =========                 |                                                 |
| \\      /  F ield         | OpenFOAM: The Open Source CFD Toolbox           |
|  \\    /   O peration     | Version:  v2012                                 |
|   \\  /    A nd           | Website:  www.openfoam.com                      |
|    \\/     M anipulation  |                                                 |
\*---------------------------------------------------------------------------*/
FoamFile
{
    version     2.0;
    format      ascii;
    class       volScalarField;
    location    "1";
    object      nut;
}
// * * * * * * * * * * * * * * * * * * * * * * * * * * * * * * * * * * * * * //

dimensions      [0 2 -1 0 0 0 0];


internalField   nonuniform List<scalar> 
209825
(
1.23764e-07
1.23725e-07
1.23723e-07
1.23723e-07
1.23723e-07
1.23723e-07
1.23723e-07
1.23723e-07
1.23723e-07
1.23723e-07
1.23723e-07
1.23723e-07
1.23723e-07
1.23723e-07
1.23723e-07
1.23724e-07
1.23724e-07
1.23724e-07
1.23724e-07
1.23724e-07
1.23724e-07
1.23724e-07
1.23724e-07
1.23724e-07
1.23724e-07
1.23724e-07
1.23724e-07
1.23725e-07
1.23725e-07
1.23725e-07
1.23725e-07
1.23725e-07
1.23725e-07
1.23725e-07
1.23725e-07
1.23725e-07
1.23725e-07
1.23725e-07
1.23725e-07
1.23725e-07
1.23725e-07
1.23725e-07
1.23725e-07
1.23725e-07
1.23725e-07
1.23726e-07
1.23726e-07
1.23726e-07
1.23725e-07
1.23726e-07
1.23726e-07
1.23726e-07
1.23725e-07
1.23726e-07
1.23726e-07
1.23726e-07
1.23725e-07
1.23725e-07
1.23725e-07
1.23726e-07
1.23726e-07
1.23726e-07
1.23726e-07
1.23727e-07
1.23726e-07
1.23727e-07
1.23727e-07
1.23727e-07
1.23728e-07
1.23728e-07
1.23728e-07
1.23727e-07
1.23726e-07
1.23727e-07
1.23727e-07
1.23727e-07
1.23727e-07
1.23727e-07
1.23727e-07
1.23729e-07
1.23729e-07
1.23729e-07
1.23728e-07
1.23727e-07
1.23727e-07
1.23727e-07
1.23728e-07
1.23728e-07
1.23731e-07
1.23734e-07
1.23736e-07
1.2374e-07
1.23771e-07
1.23745e-07
1.35275e-07
1.08396e-09
1.23763e-07
1.23724e-07
1.23722e-07
1.23722e-07
1.23722e-07
1.23722e-07
1.23722e-07
1.23722e-07
1.23722e-07
1.23722e-07
1.23722e-07
1.23722e-07
1.23722e-07
1.23722e-07
1.23722e-07
1.23723e-07
1.23723e-07
1.23723e-07
1.23723e-07
1.23723e-07
1.23723e-07
1.23723e-07
1.23723e-07
1.23723e-07
1.23723e-07
1.23723e-07
1.23723e-07
1.23724e-07
1.23724e-07
1.23724e-07
1.23724e-07
1.23724e-07
1.23724e-07
1.23724e-07
1.23724e-07
1.23724e-07
1.23724e-07
1.23724e-07
1.23724e-07
1.23724e-07
1.23724e-07
1.23724e-07
1.23724e-07
1.23724e-07
1.23724e-07
1.23725e-07
1.23725e-07
1.23725e-07
1.23724e-07
1.23725e-07
1.23725e-07
1.23725e-07
1.23724e-07
1.23725e-07
1.23725e-07
1.23725e-07
1.23724e-07
1.23724e-07
1.23724e-07
1.23725e-07
1.23725e-07
1.23725e-07
1.23725e-07
1.23726e-07
1.23726e-07
1.23726e-07
1.23726e-07
1.23726e-07
1.23727e-07
1.23727e-07
1.23727e-07
1.23726e-07
1.23725e-07
1.23726e-07
1.23726e-07
1.23726e-07
1.23726e-07
1.23726e-07
1.23726e-07
1.23728e-07
1.23728e-07
1.23728e-07
1.23727e-07
1.23726e-07
1.23726e-07
1.23726e-07
1.23727e-07
1.23727e-07
1.2373e-07
1.23733e-07
1.23735e-07
1.23739e-07
1.2377e-07
1.23744e-07
1.35312e-07
1.09646e-09
1.23759e-07
1.2372e-07
1.23718e-07
1.23718e-07
1.23718e-07
1.23718e-07
1.23718e-07
1.23718e-07
1.23718e-07
1.23718e-07
1.23718e-07
1.23718e-07
1.23718e-07
1.23719e-07
1.23719e-07
1.23719e-07
1.23719e-07
1.23719e-07
1.23719e-07
1.23719e-07
1.23719e-07
1.23719e-07
1.23719e-07
1.23719e-07
1.23719e-07
1.2372e-07
1.2372e-07
1.2372e-07
1.2372e-07
1.2372e-07
1.2372e-07
1.2372e-07
1.2372e-07
1.2372e-07
1.2372e-07
1.2372e-07
1.2372e-07
1.2372e-07
1.2372e-07
1.2372e-07
1.2372e-07
1.2372e-07
1.2372e-07
1.2372e-07
1.2372e-07
1.23721e-07
1.23721e-07
1.23721e-07
1.23721e-07
1.23721e-07
1.23721e-07
1.23721e-07
1.23721e-07
1.23721e-07
1.23721e-07
1.23721e-07
1.2372e-07
1.23721e-07
1.2372e-07
1.23721e-07
1.23721e-07
1.23721e-07
1.23721e-07
1.23722e-07
1.23722e-07
1.23722e-07
1.23722e-07
1.23722e-07
1.23723e-07
1.23723e-07
1.23723e-07
1.23722e-07
1.23721e-07
1.23722e-07
1.23722e-07
1.23722e-07
1.23722e-07
1.23722e-07
1.23722e-07
1.23724e-07
1.23724e-07
1.23724e-07
1.23723e-07
1.23722e-07
1.23723e-07
1.23723e-07
1.23723e-07
1.23723e-07
1.23727e-07
1.23729e-07
1.23731e-07
1.23735e-07
1.23767e-07
1.2374e-07
1.35398e-07
1.11195e-09
1.23754e-07
1.23714e-07
1.23712e-07
1.23712e-07
1.23712e-07
1.23712e-07
1.23712e-07
1.23712e-07
1.23712e-07
1.23712e-07
1.23712e-07
1.23712e-07
1.23712e-07
1.23712e-07
1.23712e-07
1.23712e-07
1.23712e-07
1.23712e-07
1.23712e-07
1.23712e-07
1.23712e-07
1.23713e-07
1.23713e-07
1.23713e-07
1.23713e-07
1.23713e-07
1.23713e-07
1.23713e-07
1.23713e-07
1.23714e-07
1.23714e-07
1.23714e-07
1.23714e-07
1.23714e-07
1.23714e-07
1.23714e-07
1.23714e-07
1.23714e-07
1.23714e-07
1.23714e-07
1.23714e-07
1.23714e-07
1.23714e-07
1.23714e-07
1.23714e-07
1.23715e-07
1.23715e-07
1.23715e-07
1.23714e-07
1.23715e-07
1.23715e-07
1.23715e-07
1.23714e-07
1.23715e-07
1.23715e-07
1.23715e-07
1.23714e-07
1.23714e-07
1.23714e-07
1.23714e-07
1.23714e-07
1.23715e-07
1.23715e-07
1.23715e-07
1.23715e-07
1.23715e-07
1.23715e-07
1.23715e-07
1.23717e-07
1.23716e-07
1.23716e-07
1.23716e-07
1.23715e-07
1.23715e-07
1.23715e-07
1.23716e-07
1.23716e-07
1.23716e-07
1.23716e-07
1.23717e-07
1.23717e-07
1.23717e-07
1.23717e-07
1.23715e-07
1.23716e-07
1.23716e-07
1.23717e-07
1.23717e-07
1.2372e-07
1.23723e-07
1.23725e-07
1.23729e-07
1.23761e-07
1.23734e-07
1.3551e-07
1.12859e-09
1.23746e-07
1.23705e-07
1.23702e-07
1.23703e-07
1.23703e-07
1.23703e-07
1.23703e-07
1.23703e-07
1.23703e-07
1.23703e-07
1.23703e-07
1.23703e-07
1.23703e-07
1.23703e-07
1.23703e-07
1.23703e-07
1.23703e-07
1.23703e-07
1.23703e-07
1.23703e-07
1.23703e-07
1.23703e-07
1.23703e-07
1.23704e-07
1.23704e-07
1.23704e-07
1.23704e-07
1.23704e-07
1.23704e-07
1.23705e-07
1.23705e-07
1.23705e-07
1.23705e-07
1.23705e-07
1.23705e-07
1.23705e-07
1.23705e-07
1.23705e-07
1.23705e-07
1.23705e-07
1.23705e-07
1.23705e-07
1.23705e-07
1.23705e-07
1.23705e-07
1.23706e-07
1.23706e-07
1.23706e-07
1.23705e-07
1.23706e-07
1.23706e-07
1.23706e-07
1.23705e-07
1.23706e-07
1.23706e-07
1.23706e-07
1.23705e-07
1.23705e-07
1.23705e-07
1.23705e-07
1.23705e-07
1.23706e-07
1.23706e-07
1.23706e-07
1.23706e-07
1.23706e-07
1.23706e-07
1.23706e-07
1.23708e-07
1.23707e-07
1.23708e-07
1.23707e-07
1.23706e-07
1.23706e-07
1.23706e-07
1.23707e-07
1.23707e-07
1.23707e-07
1.23707e-07
1.23708e-07
1.23708e-07
1.23708e-07
1.23708e-07
1.23706e-07
1.23707e-07
1.23707e-07
1.23708e-07
1.23708e-07
1.23711e-07
1.23714e-07
1.23716e-07
1.2372e-07
1.23754e-07
1.23726e-07
1.35638e-07
1.14546e-09
1.23737e-07
1.23693e-07
1.23691e-07
1.23691e-07
1.23691e-07
1.23691e-07
1.23691e-07
1.23691e-07
1.23691e-07
1.23691e-07
1.23691e-07
1.23691e-07
1.23691e-07
1.23691e-07
1.23691e-07
1.23691e-07
1.23691e-07
1.23691e-07
1.23691e-07
1.23691e-07
1.23691e-07
1.23692e-07
1.23692e-07
1.23692e-07
1.23692e-07
1.23692e-07
1.23692e-07
1.23692e-07
1.23692e-07
1.23693e-07
1.23693e-07
1.23693e-07
1.23693e-07
1.23693e-07
1.23693e-07
1.23693e-07
1.23693e-07
1.23693e-07
1.23693e-07
1.23693e-07
1.23693e-07
1.23693e-07
1.23693e-07
1.23693e-07
1.23693e-07
1.23694e-07
1.23694e-07
1.23694e-07
1.23694e-07
1.23694e-07
1.23694e-07
1.23694e-07
1.23693e-07
1.23694e-07
1.23694e-07
1.23694e-07
1.23693e-07
1.23693e-07
1.23693e-07
1.23694e-07
1.23694e-07
1.23694e-07
1.23694e-07
1.23695e-07
1.23695e-07
1.23695e-07
1.23695e-07
1.23695e-07
1.23696e-07
1.23696e-07
1.23696e-07
1.23695e-07
1.23694e-07
1.23695e-07
1.23695e-07
1.23695e-07
1.23695e-07
1.23695e-07
1.23695e-07
1.23697e-07
1.23697e-07
1.23697e-07
1.23696e-07
1.23695e-07
1.23696e-07
1.23696e-07
1.23696e-07
1.23696e-07
1.237e-07
1.23703e-07
1.23705e-07
1.23709e-07
1.23744e-07
1.23715e-07
1.35773e-07
1.16211e-09
1.23725e-07
1.23678e-07
1.23676e-07
1.23676e-07
1.23676e-07
1.23676e-07
1.23676e-07
1.23676e-07
1.23676e-07
1.23676e-07
1.23676e-07
1.23676e-07
1.23676e-07
1.23676e-07
1.23676e-07
1.23677e-07
1.23677e-07
1.23677e-07
1.23677e-07
1.23677e-07
1.23677e-07
1.23677e-07
1.23677e-07
1.23677e-07
1.23677e-07
1.23678e-07
1.23678e-07
1.23678e-07
1.23678e-07
1.23678e-07
1.23678e-07
1.23679e-07
1.23679e-07
1.23679e-07
1.23679e-07
1.23679e-07
1.23679e-07
1.23679e-07
1.23679e-07
1.23679e-07
1.23679e-07
1.23679e-07
1.23679e-07
1.23679e-07
1.23678e-07
1.2368e-07
1.23679e-07
1.23679e-07
1.23679e-07
1.2368e-07
1.2368e-07
1.23679e-07
1.23679e-07
1.2368e-07
1.2368e-07
1.2368e-07
1.23679e-07
1.23679e-07
1.23679e-07
1.23679e-07
1.23679e-07
1.2368e-07
1.2368e-07
1.2368e-07
1.2368e-07
1.2368e-07
1.2368e-07
1.2368e-07
1.23682e-07
1.23682e-07
1.23682e-07
1.23681e-07
1.2368e-07
1.2368e-07
1.2368e-07
1.23681e-07
1.23681e-07
1.23681e-07
1.23681e-07
1.23683e-07
1.23683e-07
1.23682e-07
1.23682e-07
1.2368e-07
1.23681e-07
1.23681e-07
1.23682e-07
1.23682e-07
1.23686e-07
1.23689e-07
1.23691e-07
1.23695e-07
1.23732e-07
1.23702e-07
1.35905e-07
1.1784e-09
1.2371e-07
1.23661e-07
1.23659e-07
1.23659e-07
1.23659e-07
1.23659e-07
1.23659e-07
1.23659e-07
1.23659e-07
1.23659e-07
1.23659e-07
1.23659e-07
1.23659e-07
1.23659e-07
1.23659e-07
1.23659e-07
1.23659e-07
1.23659e-07
1.23659e-07
1.23659e-07
1.23659e-07
1.2366e-07
1.2366e-07
1.2366e-07
1.2366e-07
1.2366e-07
1.2366e-07
1.23661e-07
1.23661e-07
1.23661e-07
1.23661e-07
1.23661e-07
1.23661e-07
1.23662e-07
1.23662e-07
1.23662e-07
1.23661e-07
1.23661e-07
1.23661e-07
1.23662e-07
1.23662e-07
1.23661e-07
1.23661e-07
1.23661e-07
1.23661e-07
1.23662e-07
1.23662e-07
1.23662e-07
1.23662e-07
1.23662e-07
1.23662e-07
1.23662e-07
1.23662e-07
1.23662e-07
1.23662e-07
1.23662e-07
1.23661e-07
1.23662e-07
1.23662e-07
1.23662e-07
1.23662e-07
1.23663e-07
1.23662e-07
1.23663e-07
1.23663e-07
1.23663e-07
1.23663e-07
1.23663e-07
1.23664e-07
1.23664e-07
1.23664e-07
1.23664e-07
1.23662e-07
1.23663e-07
1.23663e-07
1.23664e-07
1.23664e-07
1.23664e-07
1.23664e-07
1.23665e-07
1.23665e-07
1.23665e-07
1.23665e-07
1.23663e-07
1.23664e-07
1.23664e-07
1.23665e-07
1.23665e-07
1.23669e-07
1.23672e-07
1.23674e-07
1.23679e-07
1.23717e-07
1.23686e-07
1.36023e-07
1.19445e-09
1.23693e-07
1.23641e-07
1.23638e-07
1.23638e-07
1.23638e-07
1.23638e-07
1.23638e-07
1.23638e-07
1.23638e-07
1.23638e-07
1.23638e-07
1.23639e-07
1.23639e-07
1.23639e-07
1.23639e-07
1.23639e-07
1.23639e-07
1.23639e-07
1.23639e-07
1.23639e-07
1.23639e-07
1.23639e-07
1.23639e-07
1.2364e-07
1.2364e-07
1.2364e-07
1.2364e-07
1.2364e-07
1.2364e-07
1.23641e-07
1.23641e-07
1.23641e-07
1.23641e-07
1.23642e-07
1.23642e-07
1.23641e-07
1.23641e-07
1.23641e-07
1.23641e-07
1.23641e-07
1.23641e-07
1.23641e-07
1.23641e-07
1.23641e-07
1.23641e-07
1.23642e-07
1.23642e-07
1.23642e-07
1.23642e-07
1.23642e-07
1.23642e-07
1.23642e-07
1.23642e-07
1.23642e-07
1.23642e-07
1.23642e-07
1.23641e-07
1.23642e-07
1.23642e-07
1.23642e-07
1.23642e-07
1.23643e-07
1.23642e-07
1.23643e-07
1.23643e-07
1.23643e-07
1.23643e-07
1.23643e-07
1.23644e-07
1.23644e-07
1.23644e-07
1.23644e-07
1.23642e-07
1.23643e-07
1.23643e-07
1.23644e-07
1.23644e-07
1.23644e-07
1.23644e-07
1.23645e-07
1.23646e-07
1.23645e-07
1.23645e-07
1.23643e-07
1.23644e-07
1.23644e-07
1.23645e-07
1.23645e-07
1.23649e-07
1.23653e-07
1.23654e-07
1.2366e-07
1.23699e-07
1.23667e-07
1.36118e-07
1.21054e-09
1.23674e-07
1.23618e-07
1.23615e-07
1.23615e-07
1.23615e-07
1.23615e-07
1.23615e-07
1.23615e-07
1.23615e-07
1.23615e-07
1.23615e-07
1.23615e-07
1.23615e-07
1.23615e-07
1.23615e-07
1.23615e-07
1.23615e-07
1.23616e-07
1.23616e-07
1.23616e-07
1.23616e-07
1.23616e-07
1.23616e-07
1.23616e-07
1.23616e-07
1.23617e-07
1.23617e-07
1.23617e-07
1.23617e-07
1.23618e-07
1.23618e-07
1.23618e-07
1.23618e-07
1.23618e-07
1.23618e-07
1.23618e-07
1.23618e-07
1.23618e-07
1.23618e-07
1.23618e-07
1.23618e-07
1.23618e-07
1.23618e-07
1.23618e-07
1.23618e-07
1.23619e-07
1.23619e-07
1.23619e-07
1.23619e-07
1.23619e-07
1.23619e-07
1.23619e-07
1.23619e-07
1.23619e-07
1.23619e-07
1.23619e-07
1.23618e-07
1.23618e-07
1.23618e-07
1.23619e-07
1.23619e-07
1.2362e-07
1.23619e-07
1.2362e-07
1.2362e-07
1.2362e-07
1.2362e-07
1.2362e-07
1.23621e-07
1.23621e-07
1.23621e-07
1.23621e-07
1.23619e-07
1.2362e-07
1.2362e-07
1.23621e-07
1.23621e-07
1.23621e-07
1.23621e-07
1.23623e-07
1.23623e-07
1.23623e-07
1.23622e-07
1.2362e-07
1.23621e-07
1.23621e-07
1.23622e-07
1.23622e-07
1.23627e-07
1.23631e-07
1.23632e-07
1.23638e-07
1.23679e-07
1.23645e-07
1.36181e-07
1.22712e-09
1.23653e-07
1.23592e-07
1.23588e-07
1.23588e-07
1.23588e-07
1.23588e-07
1.23588e-07
1.23588e-07
1.23588e-07
1.23589e-07
1.23589e-07
1.23589e-07
1.23589e-07
1.23589e-07
1.23589e-07
1.23589e-07
1.23589e-07
1.23589e-07
1.23589e-07
1.23589e-07
1.23589e-07
1.2359e-07
1.2359e-07
1.2359e-07
1.2359e-07
1.2359e-07
1.2359e-07
1.23591e-07
1.23591e-07
1.23591e-07
1.23591e-07
1.23592e-07
1.23592e-07
1.23592e-07
1.23592e-07
1.23592e-07
1.23592e-07
1.23592e-07
1.23592e-07
1.23592e-07
1.23592e-07
1.23592e-07
1.23592e-07
1.23592e-07
1.23592e-07
1.23593e-07
1.23593e-07
1.23593e-07
1.23593e-07
1.23593e-07
1.23593e-07
1.23593e-07
1.23593e-07
1.23593e-07
1.23593e-07
1.23593e-07
1.23592e-07
1.23592e-07
1.23592e-07
1.23593e-07
1.23593e-07
1.23594e-07
1.23593e-07
1.23594e-07
1.23595e-07
1.23594e-07
1.23594e-07
1.23593e-07
1.23595e-07
1.23595e-07
1.23596e-07
1.23595e-07
1.23593e-07
1.23594e-07
1.23594e-07
1.23595e-07
1.23595e-07
1.23595e-07
1.23595e-07
1.23597e-07
1.23597e-07
1.23597e-07
1.23596e-07
1.23594e-07
1.23595e-07
1.23595e-07
1.23596e-07
1.23596e-07
1.23601e-07
1.23605e-07
1.23606e-07
1.23612e-07
1.23656e-07
1.23621e-07
1.36204e-07
1.24476e-09
1.23629e-07
1.23563e-07
1.23559e-07
1.23559e-07
1.23559e-07
1.23559e-07
1.23559e-07
1.23559e-07
1.23559e-07
1.23559e-07
1.23559e-07
1.23559e-07
1.23559e-07
1.23559e-07
1.23559e-07
1.23559e-07
1.23559e-07
1.2356e-07
1.2356e-07
1.2356e-07
1.2356e-07
1.2356e-07
1.2356e-07
1.2356e-07
1.2356e-07
1.23561e-07
1.23561e-07
1.23561e-07
1.23561e-07
1.23562e-07
1.23562e-07
1.23562e-07
1.23562e-07
1.23563e-07
1.23563e-07
1.23563e-07
1.23563e-07
1.23563e-07
1.23562e-07
1.23563e-07
1.23563e-07
1.23563e-07
1.23563e-07
1.23563e-07
1.23563e-07
1.23564e-07
1.23564e-07
1.23563e-07
1.23564e-07
1.23564e-07
1.23564e-07
1.23564e-07
1.23563e-07
1.23564e-07
1.23564e-07
1.23564e-07
1.23563e-07
1.23563e-07
1.23563e-07
1.23564e-07
1.23563e-07
1.23564e-07
1.23564e-07
1.23565e-07
1.23566e-07
1.23565e-07
1.23565e-07
1.23564e-07
1.23566e-07
1.23566e-07
1.23566e-07
1.23566e-07
1.23564e-07
1.23565e-07
1.23565e-07
1.23566e-07
1.23566e-07
1.23566e-07
1.23566e-07
1.23568e-07
1.23568e-07
1.23568e-07
1.23567e-07
1.23565e-07
1.23566e-07
1.23566e-07
1.23567e-07
1.23567e-07
1.23572e-07
1.23577e-07
1.23578e-07
1.23584e-07
1.23631e-07
1.23594e-07
1.36178e-07
1.26411e-09
1.23603e-07
1.2353e-07
1.23526e-07
1.23526e-07
1.23526e-07
1.23526e-07
1.23526e-07
1.23526e-07
1.23526e-07
1.23526e-07
1.23526e-07
1.23526e-07
1.23526e-07
1.23526e-07
1.23526e-07
1.23526e-07
1.23526e-07
1.23527e-07
1.23527e-07
1.23527e-07
1.23527e-07
1.23527e-07
1.23527e-07
1.23528e-07
1.23528e-07
1.23528e-07
1.23528e-07
1.23529e-07
1.23529e-07
1.23529e-07
1.23529e-07
1.2353e-07
1.2353e-07
1.23531e-07
1.23531e-07
1.2353e-07
1.2353e-07
1.2353e-07
1.2353e-07
1.23531e-07
1.2353e-07
1.2353e-07
1.2353e-07
1.2353e-07
1.2353e-07
1.23531e-07
1.23531e-07
1.23531e-07
1.23531e-07
1.23531e-07
1.23531e-07
1.23531e-07
1.23531e-07
1.23532e-07
1.23532e-07
1.23531e-07
1.2353e-07
1.23531e-07
1.23531e-07
1.23531e-07
1.23531e-07
1.23532e-07
1.23532e-07
1.23533e-07
1.23533e-07
1.23533e-07
1.23533e-07
1.23532e-07
1.23534e-07
1.23534e-07
1.23534e-07
1.23533e-07
1.23532e-07
1.23533e-07
1.23533e-07
1.23533e-07
1.23533e-07
1.23534e-07
1.23534e-07
1.23535e-07
1.23536e-07
1.23535e-07
1.23535e-07
1.23533e-07
1.23534e-07
1.23534e-07
1.23535e-07
1.23535e-07
1.23541e-07
1.23546e-07
1.23546e-07
1.23553e-07
1.23602e-07
1.23563e-07
1.36096e-07
1.28592e-09
1.23574e-07
1.23494e-07
1.23489e-07
1.23489e-07
1.23489e-07
1.23489e-07
1.23489e-07
1.23489e-07
1.23489e-07
1.2349e-07
1.2349e-07
1.2349e-07
1.2349e-07
1.2349e-07
1.2349e-07
1.2349e-07
1.2349e-07
1.2349e-07
1.2349e-07
1.23491e-07
1.23491e-07
1.23491e-07
1.23491e-07
1.23491e-07
1.23491e-07
1.23492e-07
1.23492e-07
1.23493e-07
1.23493e-07
1.23493e-07
1.23493e-07
1.23494e-07
1.23494e-07
1.23495e-07
1.23495e-07
1.23495e-07
1.23494e-07
1.23494e-07
1.23494e-07
1.23495e-07
1.23495e-07
1.23494e-07
1.23494e-07
1.23494e-07
1.23494e-07
1.23496e-07
1.23496e-07
1.23495e-07
1.23496e-07
1.23496e-07
1.23495e-07
1.23495e-07
1.23495e-07
1.23496e-07
1.23496e-07
1.23496e-07
1.23494e-07
1.23495e-07
1.23495e-07
1.23495e-07
1.23495e-07
1.23496e-07
1.23496e-07
1.23497e-07
1.23498e-07
1.23498e-07
1.23497e-07
1.23496e-07
1.23498e-07
1.23498e-07
1.23499e-07
1.23497e-07
1.23496e-07
1.23497e-07
1.23497e-07
1.23498e-07
1.23498e-07
1.23498e-07
1.23499e-07
1.235e-07
1.235e-07
1.235e-07
1.235e-07
1.23497e-07
1.23499e-07
1.23498e-07
1.23499e-07
1.23499e-07
1.23505e-07
1.23511e-07
1.23511e-07
1.23518e-07
1.2357e-07
1.2353e-07
1.35953e-07
1.31094e-09
1.23542e-07
1.23455e-07
1.2345e-07
1.2345e-07
1.23449e-07
1.23449e-07
1.23449e-07
1.2345e-07
1.2345e-07
1.2345e-07
1.2345e-07
1.2345e-07
1.2345e-07
1.2345e-07
1.2345e-07
1.2345e-07
1.2345e-07
1.23451e-07
1.23451e-07
1.23451e-07
1.23451e-07
1.23451e-07
1.23451e-07
1.23452e-07
1.23452e-07
1.23452e-07
1.23452e-07
1.23453e-07
1.23453e-07
1.23454e-07
1.23454e-07
1.23455e-07
1.23455e-07
1.23455e-07
1.23455e-07
1.23455e-07
1.23455e-07
1.23455e-07
1.23455e-07
1.23455e-07
1.23455e-07
1.23455e-07
1.23455e-07
1.23455e-07
1.23455e-07
1.23456e-07
1.23456e-07
1.23456e-07
1.23457e-07
1.23457e-07
1.23456e-07
1.23456e-07
1.23456e-07
1.23457e-07
1.23456e-07
1.23456e-07
1.23455e-07
1.23456e-07
1.23456e-07
1.23456e-07
1.23456e-07
1.23457e-07
1.23457e-07
1.23458e-07
1.23459e-07
1.23459e-07
1.23458e-07
1.23456e-07
1.23459e-07
1.23459e-07
1.2346e-07
1.23458e-07
1.23457e-07
1.23458e-07
1.23458e-07
1.23459e-07
1.23459e-07
1.23459e-07
1.2346e-07
1.23461e-07
1.23461e-07
1.23461e-07
1.23461e-07
1.23458e-07
1.2346e-07
1.23459e-07
1.2346e-07
1.2346e-07
1.23467e-07
1.23473e-07
1.23473e-07
1.2348e-07
1.23535e-07
1.23493e-07
1.35744e-07
1.34e-09
1.23508e-07
1.23413e-07
1.23406e-07
1.23406e-07
1.23406e-07
1.23406e-07
1.23406e-07
1.23406e-07
1.23406e-07
1.23406e-07
1.23406e-07
1.23406e-07
1.23406e-07
1.23407e-07
1.23407e-07
1.23407e-07
1.23407e-07
1.23407e-07
1.23407e-07
1.23408e-07
1.23408e-07
1.23408e-07
1.23408e-07
1.23408e-07
1.23408e-07
1.23409e-07
1.23409e-07
1.2341e-07
1.2341e-07
1.23411e-07
1.23411e-07
1.23412e-07
1.23412e-07
1.23413e-07
1.23413e-07
1.23412e-07
1.23412e-07
1.23412e-07
1.23412e-07
1.23413e-07
1.23413e-07
1.23412e-07
1.23412e-07
1.23412e-07
1.23412e-07
1.23414e-07
1.23413e-07
1.23413e-07
1.23414e-07
1.23414e-07
1.23414e-07
1.23413e-07
1.23413e-07
1.23414e-07
1.23414e-07
1.23414e-07
1.23412e-07
1.23413e-07
1.23413e-07
1.23413e-07
1.23413e-07
1.23414e-07
1.23414e-07
1.23415e-07
1.23416e-07
1.23416e-07
1.23416e-07
1.23414e-07
1.23417e-07
1.23417e-07
1.23417e-07
1.23416e-07
1.23414e-07
1.23415e-07
1.23415e-07
1.23416e-07
1.23416e-07
1.23417e-07
1.23417e-07
1.23418e-07
1.23419e-07
1.23419e-07
1.23418e-07
1.23416e-07
1.23418e-07
1.23417e-07
1.23418e-07
1.23418e-07
1.23425e-07
1.23431e-07
1.23431e-07
1.23439e-07
1.23497e-07
1.23453e-07
1.35465e-07
1.37397e-09
1.23471e-07
1.23366e-07
1.23359e-07
1.23359e-07
1.23359e-07
1.23359e-07
1.23359e-07
1.23359e-07
1.23359e-07
1.23359e-07
1.23359e-07
1.23359e-07
1.23359e-07
1.23359e-07
1.23359e-07
1.2336e-07
1.2336e-07
1.2336e-07
1.2336e-07
1.2336e-07
1.2336e-07
1.23361e-07
1.23361e-07
1.23361e-07
1.23361e-07
1.23362e-07
1.23362e-07
1.23363e-07
1.23363e-07
1.23364e-07
1.23364e-07
1.23365e-07
1.23365e-07
1.23366e-07
1.23366e-07
1.23366e-07
1.23366e-07
1.23365e-07
1.23365e-07
1.23366e-07
1.23366e-07
1.23366e-07
1.23366e-07
1.23365e-07
1.23365e-07
1.23367e-07
1.23367e-07
1.23366e-07
1.23367e-07
1.23367e-07
1.23367e-07
1.23366e-07
1.23367e-07
1.23367e-07
1.23367e-07
1.23367e-07
1.23366e-07
1.23366e-07
1.23366e-07
1.23367e-07
1.23367e-07
1.23368e-07
1.23368e-07
1.23369e-07
1.2337e-07
1.2337e-07
1.2337e-07
1.23367e-07
1.23371e-07
1.23371e-07
1.23371e-07
1.2337e-07
1.23368e-07
1.23369e-07
1.23369e-07
1.2337e-07
1.2337e-07
1.23371e-07
1.23371e-07
1.23372e-07
1.23373e-07
1.23373e-07
1.23372e-07
1.2337e-07
1.23372e-07
1.23371e-07
1.23372e-07
1.23372e-07
1.2338e-07
1.23386e-07
1.23386e-07
1.23394e-07
1.23455e-07
1.23409e-07
1.35116e-07
1.41377e-09
1.23432e-07
1.23316e-07
1.23308e-07
1.23308e-07
1.23307e-07
1.23307e-07
1.23307e-07
1.23308e-07
1.23308e-07
1.23308e-07
1.23308e-07
1.23308e-07
1.23308e-07
1.23308e-07
1.23308e-07
1.23309e-07
1.23309e-07
1.23309e-07
1.23309e-07
1.23309e-07
1.23309e-07
1.2331e-07
1.2331e-07
1.23311e-07
1.23311e-07
1.23311e-07
1.23311e-07
1.23312e-07
1.23312e-07
1.23313e-07
1.23313e-07
1.23315e-07
1.23314e-07
1.23316e-07
1.23316e-07
1.23315e-07
1.23315e-07
1.23315e-07
1.23315e-07
1.23316e-07
1.23316e-07
1.23315e-07
1.23315e-07
1.23315e-07
1.23315e-07
1.23317e-07
1.23317e-07
1.23316e-07
1.23317e-07
1.23317e-07
1.23317e-07
1.23316e-07
1.23317e-07
1.23317e-07
1.23317e-07
1.23317e-07
1.23316e-07
1.23316e-07
1.23316e-07
1.23317e-07
1.23317e-07
1.23318e-07
1.23318e-07
1.23319e-07
1.2332e-07
1.2332e-07
1.2332e-07
1.23317e-07
1.23321e-07
1.23321e-07
1.23321e-07
1.2332e-07
1.23317e-07
1.23319e-07
1.23319e-07
1.2332e-07
1.2332e-07
1.23321e-07
1.23321e-07
1.23321e-07
1.23323e-07
1.23323e-07
1.23323e-07
1.2332e-07
1.23322e-07
1.23321e-07
1.23322e-07
1.23322e-07
1.2333e-07
1.23337e-07
1.23337e-07
1.23345e-07
1.23409e-07
1.23362e-07
1.34696e-07
1.46042e-09
1.2339e-07
1.23262e-07
1.23253e-07
1.23253e-07
1.23252e-07
1.23252e-07
1.23252e-07
1.23252e-07
1.23252e-07
1.23252e-07
1.23252e-07
1.23253e-07
1.23253e-07
1.23253e-07
1.23253e-07
1.23253e-07
1.23253e-07
1.23254e-07
1.23254e-07
1.23254e-07
1.23254e-07
1.23255e-07
1.23255e-07
1.23256e-07
1.23256e-07
1.23257e-07
1.23257e-07
1.23258e-07
1.23258e-07
1.23259e-07
1.23259e-07
1.2326e-07
1.2326e-07
1.23261e-07
1.23261e-07
1.23261e-07
1.23261e-07
1.23261e-07
1.2326e-07
1.23262e-07
1.23262e-07
1.23261e-07
1.23261e-07
1.23261e-07
1.23261e-07
1.23263e-07
1.23263e-07
1.23262e-07
1.23263e-07
1.23263e-07
1.23263e-07
1.23262e-07
1.23262e-07
1.23262e-07
1.23262e-07
1.23262e-07
1.23261e-07
1.23262e-07
1.23262e-07
1.23263e-07
1.23262e-07
1.23264e-07
1.23264e-07
1.23265e-07
1.23266e-07
1.23266e-07
1.23266e-07
1.23263e-07
1.23267e-07
1.23267e-07
1.23267e-07
1.23266e-07
1.23263e-07
1.23265e-07
1.23265e-07
1.23266e-07
1.23266e-07
1.23267e-07
1.23268e-07
1.23267e-07
1.2327e-07
1.23269e-07
1.23269e-07
1.23266e-07
1.23269e-07
1.23267e-07
1.23268e-07
1.23268e-07
1.23277e-07
1.23285e-07
1.23284e-07
1.23292e-07
1.2336e-07
1.2331e-07
1.34207e-07
1.51502e-09
1.23346e-07
1.23205e-07
1.23194e-07
1.23193e-07
1.23193e-07
1.23193e-07
1.23193e-07
1.23193e-07
1.23193e-07
1.23193e-07
1.23193e-07
1.23193e-07
1.23193e-07
1.23194e-07
1.23194e-07
1.23194e-07
1.23194e-07
1.23195e-07
1.23195e-07
1.23195e-07
1.23195e-07
1.23196e-07
1.23196e-07
1.23197e-07
1.23197e-07
1.23198e-07
1.23198e-07
1.23199e-07
1.23199e-07
1.232e-07
1.232e-07
1.23202e-07
1.23202e-07
1.23203e-07
1.23203e-07
1.23203e-07
1.23203e-07
1.23202e-07
1.23202e-07
1.23203e-07
1.23203e-07
1.23203e-07
1.23203e-07
1.23202e-07
1.23202e-07
1.23204e-07
1.23204e-07
1.23203e-07
1.23205e-07
1.23205e-07
1.23205e-07
1.23204e-07
1.23204e-07
1.23204e-07
1.23204e-07
1.23204e-07
1.23203e-07
1.23204e-07
1.23204e-07
1.23204e-07
1.23204e-07
1.23206e-07
1.23205e-07
1.23206e-07
1.23208e-07
1.23208e-07
1.23208e-07
1.23205e-07
1.23209e-07
1.23209e-07
1.23209e-07
1.23208e-07
1.23205e-07
1.23207e-07
1.23207e-07
1.23209e-07
1.23209e-07
1.23209e-07
1.2321e-07
1.23209e-07
1.23212e-07
1.23212e-07
1.23211e-07
1.23208e-07
1.23211e-07
1.23209e-07
1.2321e-07
1.2321e-07
1.2322e-07
1.23228e-07
1.23227e-07
1.23236e-07
1.23306e-07
1.23255e-07
1.33651e-07
1.57881e-09
1.23299e-07
1.23143e-07
1.2313e-07
1.2313e-07
1.23129e-07
1.23129e-07
1.23129e-07
1.23129e-07
1.23129e-07
1.23129e-07
1.23129e-07
1.2313e-07
1.2313e-07
1.2313e-07
1.2313e-07
1.2313e-07
1.2313e-07
1.23131e-07
1.23131e-07
1.23132e-07
1.23132e-07
1.23132e-07
1.23132e-07
1.23133e-07
1.23133e-07
1.23134e-07
1.23134e-07
1.23136e-07
1.23136e-07
1.23137e-07
1.23137e-07
1.23139e-07
1.23139e-07
1.2314e-07
1.2314e-07
1.2314e-07
1.2314e-07
1.2314e-07
1.23139e-07
1.23141e-07
1.23141e-07
1.2314e-07
1.2314e-07
1.2314e-07
1.2314e-07
1.23142e-07
1.23142e-07
1.23141e-07
1.23143e-07
1.23142e-07
1.23142e-07
1.23141e-07
1.23141e-07
1.23141e-07
1.23142e-07
1.23142e-07
1.23141e-07
1.23141e-07
1.23141e-07
1.23142e-07
1.23142e-07
1.23144e-07
1.23143e-07
1.23143e-07
1.23146e-07
1.23146e-07
1.23146e-07
1.23142e-07
1.23147e-07
1.23147e-07
1.23146e-07
1.23146e-07
1.23143e-07
1.23145e-07
1.23144e-07
1.23147e-07
1.23147e-07
1.23147e-07
1.23148e-07
1.23147e-07
1.2315e-07
1.2315e-07
1.23149e-07
1.23146e-07
1.23149e-07
1.23147e-07
1.23149e-07
1.23147e-07
1.23159e-07
1.23168e-07
1.23166e-07
1.23175e-07
1.23249e-07
1.23196e-07
1.33034e-07
1.65322e-09
1.23249e-07
1.23076e-07
1.23062e-07
1.23061e-07
1.2306e-07
1.23061e-07
1.2306e-07
1.23061e-07
1.23061e-07
1.23061e-07
1.23061e-07
1.23061e-07
1.23061e-07
1.23062e-07
1.23062e-07
1.23062e-07
1.23062e-07
1.23063e-07
1.23063e-07
1.23063e-07
1.23063e-07
1.23064e-07
1.23064e-07
1.23065e-07
1.23065e-07
1.23067e-07
1.23067e-07
1.23068e-07
1.23068e-07
1.2307e-07
1.2307e-07
1.23072e-07
1.23072e-07
1.23073e-07
1.23074e-07
1.23073e-07
1.23073e-07
1.23073e-07
1.23072e-07
1.23074e-07
1.23074e-07
1.23073e-07
1.23073e-07
1.23073e-07
1.23073e-07
1.23075e-07
1.23075e-07
1.23074e-07
1.23076e-07
1.23075e-07
1.23075e-07
1.23074e-07
1.23075e-07
1.23074e-07
1.23075e-07
1.23075e-07
1.23074e-07
1.23075e-07
1.23075e-07
1.23075e-07
1.23075e-07
1.23077e-07
1.23076e-07
1.23076e-07
1.2308e-07
1.23079e-07
1.23079e-07
1.23075e-07
1.2308e-07
1.2308e-07
1.2308e-07
1.23079e-07
1.23077e-07
1.23079e-07
1.23078e-07
1.2308e-07
1.2308e-07
1.23081e-07
1.23081e-07
1.2308e-07
1.23084e-07
1.23084e-07
1.23083e-07
1.2308e-07
1.23083e-07
1.23081e-07
1.23082e-07
1.23081e-07
1.23094e-07
1.23103e-07
1.23101e-07
1.2311e-07
1.23187e-07
1.23133e-07
1.32361e-07
1.73988e-09
1.23196e-07
1.23006e-07
1.22989e-07
1.22988e-07
1.22987e-07
1.22987e-07
1.22987e-07
1.22988e-07
1.22988e-07
1.22988e-07
1.22988e-07
1.22988e-07
1.22988e-07
1.22989e-07
1.22989e-07
1.22989e-07
1.22989e-07
1.2299e-07
1.2299e-07
1.22991e-07
1.22991e-07
1.22992e-07
1.22992e-07
1.22993e-07
1.22993e-07
1.22994e-07
1.22994e-07
1.22996e-07
1.22996e-07
1.22998e-07
1.22998e-07
1.23e-07
1.23e-07
1.23002e-07
1.23002e-07
1.23002e-07
1.23002e-07
1.23001e-07
1.23001e-07
1.23003e-07
1.23003e-07
1.23002e-07
1.23002e-07
1.23001e-07
1.23001e-07
1.23004e-07
1.23004e-07
1.23002e-07
1.23005e-07
1.23004e-07
1.23004e-07
1.23003e-07
1.23003e-07
1.23003e-07
1.23003e-07
1.23003e-07
1.23003e-07
1.23003e-07
1.23003e-07
1.23004e-07
1.23004e-07
1.23006e-07
1.23005e-07
1.23005e-07
1.23009e-07
1.23009e-07
1.23008e-07
1.23004e-07
1.23009e-07
1.23009e-07
1.23009e-07
1.23008e-07
1.23006e-07
1.23008e-07
1.23007e-07
1.23009e-07
1.23009e-07
1.2301e-07
1.2301e-07
1.23009e-07
1.23013e-07
1.23013e-07
1.23012e-07
1.23009e-07
1.23013e-07
1.2301e-07
1.23012e-07
1.2301e-07
1.23024e-07
1.23034e-07
1.23031e-07
1.2304e-07
1.2312e-07
1.23066e-07
1.31641e-07
1.84071e-09
1.23141e-07
1.2293e-07
1.22912e-07
1.22911e-07
1.22909e-07
1.22909e-07
1.22909e-07
1.2291e-07
1.2291e-07
1.2291e-07
1.2291e-07
1.2291e-07
1.2291e-07
1.22911e-07
1.22911e-07
1.22912e-07
1.22911e-07
1.22912e-07
1.22912e-07
1.22913e-07
1.22913e-07
1.22914e-07
1.22914e-07
1.22915e-07
1.22915e-07
1.22917e-07
1.22917e-07
1.22919e-07
1.22919e-07
1.22921e-07
1.22921e-07
1.22923e-07
1.22923e-07
1.22926e-07
1.22926e-07
1.22925e-07
1.22925e-07
1.22925e-07
1.22924e-07
1.22927e-07
1.22927e-07
1.22926e-07
1.22926e-07
1.22925e-07
1.22925e-07
1.22928e-07
1.22928e-07
1.22926e-07
1.22928e-07
1.22928e-07
1.22928e-07
1.22927e-07
1.22927e-07
1.22926e-07
1.22927e-07
1.22927e-07
1.22927e-07
1.22927e-07
1.22928e-07
1.22928e-07
1.22927e-07
1.2293e-07
1.22929e-07
1.22928e-07
1.22933e-07
1.22933e-07
1.22932e-07
1.22928e-07
1.22934e-07
1.22934e-07
1.22933e-07
1.22932e-07
1.2293e-07
1.22932e-07
1.22931e-07
1.22934e-07
1.22934e-07
1.22934e-07
1.22935e-07
1.22933e-07
1.22938e-07
1.22938e-07
1.22937e-07
1.22934e-07
1.22938e-07
1.22935e-07
1.22936e-07
1.22934e-07
1.2295e-07
1.2296e-07
1.22957e-07
1.22966e-07
1.23049e-07
1.22994e-07
1.30881e-07
1.95795e-09
1.23084e-07
1.22851e-07
1.22829e-07
1.22828e-07
1.22826e-07
1.22826e-07
1.22826e-07
1.22826e-07
1.22826e-07
1.22827e-07
1.22827e-07
1.22827e-07
1.22827e-07
1.22828e-07
1.22828e-07
1.22829e-07
1.22829e-07
1.22829e-07
1.22829e-07
1.2283e-07
1.2283e-07
1.22832e-07
1.22832e-07
1.22833e-07
1.22833e-07
1.22835e-07
1.22835e-07
1.22837e-07
1.22837e-07
1.22839e-07
1.22839e-07
1.22842e-07
1.22842e-07
1.22845e-07
1.22845e-07
1.22844e-07
1.22844e-07
1.22844e-07
1.22843e-07
1.22846e-07
1.22846e-07
1.22844e-07
1.22845e-07
1.22844e-07
1.22843e-07
1.22847e-07
1.22847e-07
1.22845e-07
1.22847e-07
1.22847e-07
1.22847e-07
1.22846e-07
1.22846e-07
1.22845e-07
1.22845e-07
1.22845e-07
1.22846e-07
1.22846e-07
1.22847e-07
1.22847e-07
1.22847e-07
1.22849e-07
1.22848e-07
1.22847e-07
1.22852e-07
1.22852e-07
1.22852e-07
1.22847e-07
1.22853e-07
1.22853e-07
1.22852e-07
1.22852e-07
1.22849e-07
1.22851e-07
1.2285e-07
1.22853e-07
1.22853e-07
1.22854e-07
1.22854e-07
1.22852e-07
1.22858e-07
1.22857e-07
1.22857e-07
1.22853e-07
1.22858e-07
1.22855e-07
1.22856e-07
1.22853e-07
1.2287e-07
1.22881e-07
1.22878e-07
1.22886e-07
1.22973e-07
1.22917e-07
1.30093e-07
2.09431e-09
1.23024e-07
1.22766e-07
1.22742e-07
1.2274e-07
1.22737e-07
1.22738e-07
1.22738e-07
1.22738e-07
1.22738e-07
1.22738e-07
1.22738e-07
1.22739e-07
1.22739e-07
1.2274e-07
1.2274e-07
1.2274e-07
1.2274e-07
1.22741e-07
1.22741e-07
1.22742e-07
1.22742e-07
1.22744e-07
1.22744e-07
1.22745e-07
1.22745e-07
1.22747e-07
1.22747e-07
1.2275e-07
1.2275e-07
1.22752e-07
1.22752e-07
1.22755e-07
1.22755e-07
1.22758e-07
1.22758e-07
1.22758e-07
1.22758e-07
1.22757e-07
1.22756e-07
1.22759e-07
1.22759e-07
1.22758e-07
1.22758e-07
1.22758e-07
1.22757e-07
1.22761e-07
1.22761e-07
1.22759e-07
1.22761e-07