/*--------------------------------*- C++ -*----------------------------------*\
| =========                 |                                                 |
| \\      /  F ield         | OpenFOAM: The Open Source CFD Toolbox           |
|  \\    /   O peration     | Version:  v2012                                 |
|   \\  /    A nd           | Website:  www.openfoam.com                      |
|    \\/     M anipulation  |                                                 |
\*---------------------------------------------------------------------------*/
FoamFile
{
    version     2.0;
    format      ascii;
    class       volVectorField;
    location    "1";
    object      wallShearStress;
}
// * * * * * * * * * * * * * * * * * * * * * * * * * * * * * * * * * * * * * //

dimensions      [0 2 -2 0 0 0 0];


internalField   uniform (0 0 0);

boundaryField
{
    inlet
    {
        type            calculated;
        value           uniform (0 0 0);
    }
    outlet
    {
        type            calculated;
        value           uniform (0 0 0);
    }
    topWall
    {
        type            calculated;
        value           nonuniform List<vector> 
545
(
(1.20113e-09 -8.33145e-10 0)
(1.21498e-09 -2.40847e-09 0)
(1.17523e-09 -3.96695e-09 0)
(1.1613e-09 -5.46266e-09 0)
(1.15325e-09 -6.88199e-09 0)
(1.14635e-09 -8.24743e-09 0)
(1.13934e-09 -9.57299e-09 0)
(1.13196e-09 -1.08596e-08 0)
(1.12414e-09 -1.21039e-08 0)
(1.11596e-09 -1.33063e-08 0)
(1.10738e-09 -1.44673e-08 0)
(1.09852e-09 -1.55894e-08 0)
(1.08932e-09 -1.66726e-08 0)
(1.07989e-09 -1.77189e-08 0)
(1.07018e-09 -1.87278e-08 0)
(1.06032e-09 -1.97021e-08 0)
(1.05023e-09 -2.06408e-08 0)
(1.04004e-09 -2.15471e-08 0)
(1.02966e-09 -2.24196e-08 0)
(1.01924e-09 -2.32617e-08 0)
(1.00867e-09 -2.40721e-08 0)
(9.98087e-10 -2.4854e-08 0)
(9.87403e-10 -2.56061e-08 0)
(9.76725e-10 -2.63316e-08 0)
(9.65986e-10 -2.70293e-08 0)
(9.55265e-10 -2.77018e-08 0)
(9.44524e-10 -2.83488e-08 0)
(9.33802e-10 -2.89718e-08 0)
(9.231e-10 -2.95715e-08 0)
(9.12412e-10 -3.01483e-08 0)
(9.01777e-10 -3.07041e-08 0)
(8.91153e-10 -3.12379e-08 0)
(8.80605e-10 -3.17527e-08 0)
(8.70071e-10 -3.22466e-08 0)
(8.59623e-10 -3.27231e-08 0)
(8.49196e-10 -3.31801e-08 0)
(8.38857e-10 -3.36209e-08 0)
(8.28546e-10 -3.40436e-08 0)
(8.18323e-10 -3.44512e-08 0)
(8.08132e-10 -3.48421e-08 0)
(7.98028e-10 -3.5219e-08 0)
(7.87959e-10 -3.55803e-08 0)
(7.77972e-10 -3.59286e-08 0)
(7.68021e-10 -3.62624e-08 0)
(7.58146e-10 -3.65842e-08 0)
(7.48312e-10 -3.68927e-08 0)
(7.3854e-10 -3.71896e-08 0)
(7.28815e-10 -3.74747e-08 0)
(7.19136e-10 -3.77486e-08 0)
(7.09509e-10 -3.80119e-08 0)
(6.99916e-10 -3.82645e-08 0)
(6.9037e-10 -3.85074e-08 0)
(6.80857e-10 -3.87405e-08 0)
(6.71373e-10 -3.89642e-08 0)
(6.61928e-10 -3.91795e-08 0)
(6.52491e-10 -3.93852e-08 0)
(6.431e-10 -3.95841e-08 0)
(6.33699e-10 -3.97734e-08 0)
(6.24342e-10 -3.9957e-08 0)
(6.14965e-10 -4.01314e-08 0)
(6.0562e-10 -4.03006e-08 0)
(5.96252e-10 -4.04614e-08 0)
(5.86899e-10 -4.06172e-08 0)
(5.77513e-10 -4.0765e-08 0)
(5.68132e-10 -4.09082e-08 0)
(5.587e-10 -4.10435e-08 0)
(5.49267e-10 -4.11748e-08 0)
(5.39756e-10 -4.12978e-08 0)
(5.30273e-10 -4.14181e-08 0)
(5.20531e-10 -4.15281e-08 0)
(5.11549e-10 -4.16456e-08 0)
(4.99051e-10 -4.17292e-08 0)
(4.87638e-10 -4.18211e-08 0)
(4.82076e-10 -4.19402e-08 0)
(4.76748e-10 -4.20184e-08 0)
(4.71516e-10 -4.20978e-08 0)
(4.66281e-10 -4.21821e-08 0)
(4.61068e-10 -4.22689e-08 0)
(4.55848e-10 -4.23515e-08 0)
(4.50636e-10 -4.24316e-08 0)
(4.45424e-10 -4.25098e-08 0)
(4.40237e-10 -4.2589e-08 0)
(4.35024e-10 -4.26641e-08 0)
(4.29792e-10 -4.27354e-08 0)
(4.24583e-10 -4.28072e-08 0)
(4.19351e-10 -4.28748e-08 0)
(4.14161e-10 -4.29447e-08 0)
(4.08949e-10 -4.30108e-08 0)
(4.03751e-10 -4.30763e-08 0)
(3.98551e-10 -4.31403e-08 0)
(3.93379e-10 -4.32042e-08 0)
(3.88144e-10 -4.32662e-08 0)
(3.83253e-10 -4.33342e-08 0)
(3.76886e-10 -4.33769e-08 0)
(3.76817e-10 -4.35229e-08 0)
(3.49947e-10 -4.34604e-08 0)
(3.13772e-10 -4.34357e-08 0)
(3.06206e-10 -4.36499e-08 0)
(3.02263e-10 -4.36642e-08 0)
(2.99199e-10 -4.36494e-08 0)
(2.96316e-10 -4.36702e-08 0)
(2.93522e-10 -4.37191e-08 0)
(2.90696e-10 -4.37596e-08 0)
(2.87879e-10 -4.37946e-08 0)
(2.85055e-10 -4.38275e-08 0)
(2.82236e-10 -4.38636e-08 0)
(2.79388e-10 -4.38974e-08 0)
(2.76547e-10 -4.39338e-08 0)
(2.73697e-10 -4.39699e-08 0)
(2.70818e-10 -4.40025e-08 0)
(2.67957e-10 -4.40387e-08 0)
(2.65082e-10 -4.40735e-08 0)
(2.62188e-10 -4.41063e-08 0)
(2.59275e-10 -4.4137e-08 0)
(2.56386e-10 -4.41729e-08 0)
(2.53473e-10 -4.4206e-08 0)
(2.50573e-10 -4.42422e-08 0)
(2.47651e-10 -4.42755e-08 0)
(2.44728e-10 -4.43097e-08 0)
(2.41787e-10 -4.43414e-08 0)
(2.38852e-10 -4.43753e-08 0)
(2.35906e-10 -4.44081e-08 0)
(2.32947e-10 -4.44394e-08 0)
(2.29983e-10 -4.44705e-08 0)
(2.27028e-10 -4.45042e-08 0)
(2.24061e-10 -4.45366e-08 0)
(2.21091e-10 -4.45692e-08 0)
(2.18112e-10 -4.46008e-08 0)
(2.15126e-10 -4.46316e-08 0)
(2.12137e-10 -4.46626e-08 0)
(2.09137e-10 -4.46923e-08 0)
(2.06138e-10 -4.47227e-08 0)
(2.03127e-10 -4.47512e-08 0)
(2.00121e-10 -4.47817e-08 0)
(1.97108e-10 -4.48111e-08 0)
(1.94091e-10 -4.48405e-08 0)
(1.91064e-10 -4.4868e-08 0)
(1.88046e-10 -4.48983e-08 0)
(1.85013e-10 -4.49257e-08 0)
(1.81984e-10 -4.49545e-08 0)
(1.78945e-10 -4.49817e-08 0)
(1.75905e-10 -4.50089e-08 0)
(1.72861e-10 -4.5036e-08 0)
(1.69827e-10 -4.50659e-08 0)
(1.6677e-10 -4.50905e-08 0)
(1.63716e-10 -4.51163e-08 0)
(1.60667e-10 -4.5144e-08 0)
(1.57614e-10 -4.5171e-08 0)
(1.54553e-10 -4.51964e-08 0)
(1.51492e-10 -4.52223e-08 0)
(1.48418e-10 -4.52447e-08 0)
(1.45343e-10 -4.52671e-08 0)
(1.42273e-10 -4.52916e-08 0)
(1.392e-10 -4.53154e-08 0)
(1.36129e-10 -4.53405e-08 0)
(1.33049e-10 -4.53628e-08 0)
(1.29965e-10 -4.53843e-08 0)
(1.26888e-10 -4.54084e-08 0)
(1.23798e-10 -4.54284e-08 0)
(1.20713e-10 -4.54507e-08 0)
(1.17618e-10 -4.54696e-08 0)
(1.14519e-10 -4.54869e-08 0)
(1.11432e-10 -4.55095e-08 0)
(1.08324e-10 -4.55238e-08 0)
(1.0522e-10 -4.55397e-08 0)
(1.02116e-10 -4.55562e-08 0)
(9.90162e-11 -4.55742e-08 0)
(9.59165e-11 -4.55929e-08 0)
(9.28212e-11 -4.5614e-08 0)
(8.97087e-11 -4.56271e-08 0)
(8.65988e-11 -4.56414e-08 0)
(8.34845e-11 -4.56536e-08 0)
(8.03727e-11 -4.56672e-08 0)
(7.72568e-11 -4.56785e-08 0)
(7.41447e-11 -4.56921e-08 0)
(7.10336e-11 -4.57066e-08 0)
(6.79266e-11 -4.57242e-08 0)
(6.48056e-11 -4.57326e-08 0)
(6.16902e-11 -4.57448e-08 0)
(5.85717e-11 -4.57549e-08 0)
(5.54548e-11 -4.57663e-08 0)
(5.23409e-11 -4.57806e-08 0)
(4.92204e-11 -4.57893e-08 0)
(4.61007e-11 -4.57989e-08 0)
(4.29812e-11 -4.58087e-08 0)
(3.98615e-11 -4.58187e-08 0)
(3.67383e-11 -4.58247e-08 0)
(3.3616e-11 -4.58315e-08 0)
(3.0493e-11 -4.58371e-08 0)
(2.73718e-11 -4.58454e-08 0)
(2.42482e-11 -4.58496e-08 0)
(2.11264e-11 -4.5857e-08 0)
(1.80018e-11 -4.58577e-08 0)
(1.48779e-11 -4.58587e-08 0)
(1.17554e-11 -4.58623e-08 0)
(8.63268e-12 -4.58646e-08 0)
(5.51059e-12 -4.58689e-08 0)
(2.3882e-12 -4.58667e-08 0)
(-7.33392e-13 -4.587e-08 0)
(-3.85461e-12 -4.58695e-08 0)
(-6.97479e-12 -4.58656e-08 0)
(-1.00946e-11 -4.58643e-08 0)
(-1.32137e-11 -4.5863e-08 0)
(-1.6331e-11 -4.58576e-08 0)
(-1.94482e-11 -4.58546e-08 0)
(-2.25645e-11 -4.58512e-08 0)
(-2.56787e-11 -4.58454e-08 0)
(-2.87954e-11 -4.58451e-08 0)
(-3.19098e-11 -4.58417e-08 0)
(-3.5019e-11 -4.58324e-08 0)
(-3.81295e-11 -4.58263e-08 0)
(-4.12361e-11 -4.58169e-08 0)
(-4.43439e-11 -4.581e-08 0)
(-4.74494e-11 -4.58017e-08 0)
(-5.05543e-11 -4.57939e-08 0)
(-5.36604e-11 -4.5788e-08 0)
(-5.67554e-11 -4.57737e-08 0)
(-5.98551e-11 -4.57645e-08 0)
(-6.29503e-11 -4.57526e-08 0)
(-6.60443e-11 -4.57411e-08 0)
(-6.914e-11 -4.57314e-08 0)
(-7.22251e-11 -4.57158e-08 0)
(-7.53164e-11 -4.57051e-08 0)
(-7.83983e-11 -4.56895e-08 0)
(-8.14809e-11 -4.56754e-08 0)
(-8.4557e-11 -4.56585e-08 0)
(-8.764e-11 -4.56463e-08 0)
(-9.07098e-11 -4.5628e-08 0)
(-9.37796e-11 -4.56108e-08 0)
(-9.68449e-11 -4.55923e-08 0)
(-9.99032e-11 -4.55716e-08 0)
(-1.02957e-10 -4.55498e-08 0)
(-1.06017e-10 -4.55318e-08 0)
(-1.0907e-10 -4.55116e-08 0)
(-1.12126e-10 -4.54938e-08 0)
(-1.1518e-10 -4.54758e-08 0)
(-1.18214e-10 -4.54505e-08 0)
(-1.21253e-10 -4.54285e-08 0)
(-1.24288e-10 -4.54058e-08 0)
(-1.27309e-10 -4.53788e-08 0)
(-1.30329e-10 -4.53529e-08 0)
(-1.33345e-10 -4.53262e-08 0)
(-1.36363e-10 -4.53011e-08 0)
(-1.39362e-10 -4.5271e-08 0)
(-1.42354e-10 -4.52396e-08 0)
(-1.45358e-10 -4.52129e-08 0)
(-1.48333e-10 -4.51786e-08 0)
(-1.51315e-10 -4.5147e-08 0)
(-1.54293e-10 -4.51157e-08 0)
(-1.57272e-10 -4.50854e-08 0)
(-1.60245e-10 -4.50544e-08 0)
(-1.6321e-10 -4.50222e-08 0)
(-1.66174e-10 -4.49905e-08 0)
(-1.69129e-10 -4.49573e-08 0)
(-1.72096e-10 -4.49285e-08 0)
(-1.75032e-10 -4.48923e-08 0)
(-1.7797e-10 -4.48576e-08 0)
(-1.80911e-10 -4.48245e-08 0)
(-1.83814e-10 -4.47829e-08 0)
(-1.86721e-10 -4.47435e-08 0)
(-1.89644e-10 -4.4709e-08 0)
(-1.92562e-10 -4.46743e-08 0)
(-1.95443e-10 -4.46313e-08 0)
(-1.98326e-10 -4.45925e-08 0)
(-2.01239e-10 -4.45509e-08 0)
(-2.03969e-10 -4.45121e-08 0)
(-2.0736e-10 -4.44527e-08 0)
(-2.07959e-10 -4.44842e-08 0)
(-2.20308e-10 -4.43384e-08 0)
(-2.38435e-10 -4.42245e-08 0)
(-2.43848e-10 -4.43365e-08 0)
(-2.45403e-10 -4.42837e-08 0)
(-2.46088e-10 -4.41998e-08 0)
(-2.46549e-10 -4.41381e-08 0)
(-2.47006e-10 -4.40976e-08 0)
(-2.47477e-10 -4.40533e-08 0)
(-2.48026e-10 -4.40106e-08 0)
(-2.4857e-10 -4.39576e-08 0)
(-2.49147e-10 -4.3904e-08 0)
(-2.49781e-10 -4.38539e-08 0)
(-2.50471e-10 -4.3807e-08 0)
(-2.51157e-10 -4.37527e-08 0)
(-2.51919e-10 -4.37052e-08 0)
(-2.52672e-10 -4.36496e-08 0)
(-2.53473e-10 -4.35957e-08 0)
(-2.54277e-10 -4.35357e-08 0)
(-2.55119e-10 -4.34759e-08 0)
(-2.56016e-10 -4.34193e-08 0)
(-2.56916e-10 -4.33573e-08 0)
(-2.5786e-10 -4.32968e-08 0)
(-2.58822e-10 -4.32334e-08 0)
(-2.5981e-10 -4.31688e-08 0)
(-2.60829e-10 -4.31035e-08 0)
(-2.61887e-10 -4.30393e-08 0)
(-2.62975e-10 -4.29745e-08 0)
(-2.64087e-10 -4.29082e-08 0)
(-2.65217e-10 -4.28395e-08 0)
(-2.66384e-10 -4.2772e-08 0)
(-2.67586e-10 -4.27049e-08 0)
(-2.68803e-10 -4.26353e-08 0)
(-2.70041e-10 -4.25643e-08 0)
(-2.71296e-10 -4.24911e-08 0)
(-2.72561e-10 -4.24151e-08 0)
(-2.73847e-10 -4.23379e-08 0)
(-2.75168e-10 -4.22618e-08 0)
(-2.76513e-10 -4.2185e-08 0)
(-2.7788e-10 -4.21075e-08 0)
(-2.7926e-10 -4.2028e-08 0)
(-2.80667e-10 -4.19486e-08 0)
(-2.8207e-10 -4.18648e-08 0)
(-2.83506e-10 -4.17822e-08 0)
(-2.84965e-10 -4.16994e-08 0)
(-2.86429e-10 -4.16138e-08 0)
(-2.87919e-10 -4.15286e-08 0)
(-2.89415e-10 -4.14411e-08 0)
(-2.90926e-10 -4.13525e-08 0)
(-2.9245e-10 -4.12627e-08 0)
(-2.93966e-10 -4.11688e-08 0)
(-2.95519e-10 -4.10773e-08 0)
(-2.97061e-10 -4.09816e-08 0)
(-2.98614e-10 -4.08848e-08 0)
(-3.0018e-10 -4.07873e-08 0)
(-3.01743e-10 -4.06869e-08 0)
(-3.03315e-10 -4.05856e-08 0)
(-3.04889e-10 -4.04823e-08 0)
(-3.06454e-10 -4.0376e-08 0)
(-3.08029e-10 -4.02688e-08 0)
(-3.09608e-10 -4.01605e-08 0)
(-3.11225e-10 -4.00554e-08 0)
(-3.12802e-10 -3.99434e-08 0)
(-3.14385e-10 -3.98307e-08 0)
(-3.16009e-10 -3.97218e-08 0)
(-3.17567e-10 -3.96032e-08 0)
(-3.19138e-10 -3.94852e-08 0)
(-3.20692e-10 -3.93639e-08 0)
(-3.22238e-10 -3.92408e-08 0)
(-3.23763e-10 -3.91143e-08 0)
(-3.25308e-10 -3.89895e-08 0)
(-3.2681e-10 -3.88589e-08 0)
(-3.28332e-10 -3.87301e-08 0)
(-3.29812e-10 -3.85959e-08 0)
(-3.31304e-10 -3.84629e-08 0)
(-3.3278e-10 -3.83279e-08 0)
(-3.34239e-10 -3.81908e-08 0)
(-3.35705e-10 -3.80543e-08 0)
(-3.37134e-10 -3.79139e-08 0)
(-3.38486e-10 -3.77649e-08 0)
(-3.39852e-10 -3.76179e-08 0)
(-3.41188e-10 -3.7468e-08 0)
(-3.42524e-10 -3.73186e-08 0)
(-3.43796e-10 -3.71629e-08 0)
(-3.45102e-10 -3.70115e-08 0)
(-3.46288e-10 -3.68482e-08 0)
(-3.47479e-10 -3.66863e-08 0)
(-3.48655e-10 -3.6524e-08 0)
(-3.49775e-10 -3.63568e-08 0)
(-3.50865e-10 -3.61878e-08 0)
(-3.51921e-10 -3.60167e-08 0)
(-3.52947e-10 -3.58439e-08 0)
(-3.53976e-10 -3.5673e-08 0)
(-3.54934e-10 -3.54964e-08 0)
(-3.55878e-10 -3.53202e-08 0)
(-3.56769e-10 -3.51405e-08 0)
(-3.57584e-10 -3.49551e-08 0)
(-3.58355e-10 -3.47675e-08 0)
(-3.59117e-10 -3.45811e-08 0)
(-3.59791e-10 -3.43883e-08 0)
(-3.60456e-10 -3.41969e-08 0)
(-3.61087e-10 -3.40046e-08 0)
(-3.6161e-10 -3.38046e-08 0)
(-3.62116e-10 -3.36055e-08 0)
(-3.62578e-10 -3.34048e-08 0)
(-3.63017e-10 -3.32047e-08 0)
(-3.63453e-10 -3.30069e-08 0)
(-3.63714e-10 -3.27959e-08 0)
(-3.63971e-10 -3.25875e-08 0)
(-3.64149e-10 -3.2375e-08 0)
(-3.6425e-10 -3.21586e-08 0)
(-3.64287e-10 -3.19398e-08 0)
(-3.64212e-10 -3.17143e-08 0)
(-3.64148e-10 -3.14931e-08 0)
(-3.63983e-10 -3.12664e-08 0)
(-3.63787e-10 -3.10405e-08 0)
(-3.63485e-10 -3.0809e-08 0)
(-3.63066e-10 -3.05711e-08 0)
(-3.62599e-10 -3.03329e-08 0)
(-3.62065e-10 -3.00927e-08 0)
(-3.61475e-10 -2.98516e-08 0)
(-3.60807e-10 -2.96079e-08 0)
(-3.60073e-10 -2.93625e-08 0)
(-3.59264e-10 -2.9115e-08 0)
(-3.58378e-10 -2.88651e-08 0)
(-3.57425e-10 -2.86138e-08 0)
(-3.56392e-10 -2.836e-08 0)
(-3.55278e-10 -2.8104e-08 0)
(-3.54096e-10 -2.78466e-08 0)
(-3.52833e-10 -2.75869e-08 0)
(-3.51487e-10 -2.7325e-08 0)
(-3.50079e-10 -2.70624e-08 0)
(-3.48591e-10 -2.67978e-08 0)
(-3.47034e-10 -2.65321e-08 0)
(-3.45403e-10 -2.6265e-08 0)
(-3.43656e-10 -2.59934e-08 0)
(-3.41828e-10 -2.572e-08 0)
(-3.39916e-10 -2.54446e-08 0)
(-3.37971e-10 -2.5171e-08 0)
(-3.35909e-10 -2.4893e-08 0)
(-3.33824e-10 -2.46177e-08 0)
(-3.31666e-10 -2.43413e-08 0)
(-3.2941e-10 -2.4062e-08 0)
(-3.27086e-10 -2.37821e-08 0)
(-3.24695e-10 -2.35017e-08 0)
(-3.22236e-10 -2.32207e-08 0)
(-3.19699e-10 -2.29384e-08 0)
(-3.17087e-10 -2.26549e-08 0)
(-3.14398e-10 -2.23703e-08 0)
(-3.11651e-10 -2.20859e-08 0)
(-3.08837e-10 -2.18009e-08 0)
(-3.05956e-10 -2.15155e-08 0)
(-3.02981e-10 -2.12277e-08 0)
(-2.99919e-10 -2.09381e-08 0)
(-2.96809e-10 -2.06493e-08 0)
(-2.93657e-10 -2.03619e-08 0)
(-2.9045e-10 -2.00748e-08 0)
(-2.87184e-10 -1.97877e-08 0)
(-2.83859e-10 -1.95007e-08 0)
(-2.805e-10 -1.92155e-08 0)
(-2.77073e-10 -1.89295e-08 0)
(-2.73573e-10 -1.86424e-08 0)
(-2.70046e-10 -1.83574e-08 0)
(-2.66479e-10 -1.80736e-08 0)
(-2.62865e-10 -1.77902e-08 0)
(-2.59207e-10 -1.75075e-08 0)
(-2.55504e-10 -1.72254e-08 0)
(-2.51769e-10 -1.69446e-08 0)
(-2.47997e-10 -1.66647e-08 0)
(-2.44196e-10 -1.63863e-08 0)
(-2.40365e-10 -1.61091e-08 0)
(-2.3651e-10 -1.58335e-08 0)
(-2.32628e-10 -1.55592e-08 0)
(-2.28729e-10 -1.52869e-08 0)
(-2.24806e-10 -1.50159e-08 0)
(-2.20873e-10 -1.47471e-08 0)
(-2.1692e-10 -1.44799e-08 0)
(-2.12959e-10 -1.42146e-08 0)
(-2.08988e-10 -1.39523e-08 0)
(-2.05e-10 -1.36881e-08 0)
(-2.01054e-10 -1.34378e-08 0)
(-1.96895e-10 -1.31393e-08 0)
(-1.93586e-10 -1.29361e-08 0)
(-1.88657e-10 -1.26943e-08 0)
(-1.82084e-10 -1.23182e-08 0)
(-1.76885e-10 -1.20287e-08 0)
(-1.72076e-10 -1.17648e-08 0)
(-1.67435e-10 -1.1497e-08 0)
(-1.62892e-10 -1.1228e-08 0)
(-1.58429e-10 -1.09659e-08 0)
(-1.54049e-10 -1.07125e-08 0)
(-1.49756e-10 -1.04665e-08 0)
(-1.45548e-10 -1.0227e-08 0)
(-1.41419e-10 -9.99404e-09 0)
(-1.37381e-10 -9.76865e-09 0)
(-1.33429e-10 -9.54999e-09 0)
(-1.29567e-10 -9.33794e-09 0)
(-1.25787e-10 -9.13156e-09 0)
(-1.22101e-10 -8.93168e-09 0)
(-1.18496e-10 -8.73741e-09 0)
(-1.14962e-10 -8.54798e-09 0)
(-1.11508e-10 -8.36402e-09 0)
(-1.08139e-10 -8.18586e-09 0)
(-1.04856e-10 -8.01344e-09 0)
(-1.01654e-10 -7.84632e-09 0)
(-9.8533e-11 -7.68452e-09 0)
(-9.54865e-11 -7.52739e-09 0)
(-9.25209e-11 -7.37544e-09 0)
(-8.96275e-11 -7.22796e-09 0)
(-8.681e-11 -7.08523e-09 0)
(-8.40636e-11 -6.94688e-09 0)
(-8.13887e-11 -6.81294e-09 0)
(-7.87822e-11 -6.68317e-09 0)
(-7.62464e-11 -6.55778e-09 0)
(-7.37772e-11 -6.43645e-09 0)
(-7.13718e-11 -6.31893e-09 0)
(-6.90304e-11 -6.20529e-09 0)
(-6.67507e-11 -6.09532e-09 0)
(-6.45292e-11 -5.98872e-09 0)
(-6.23693e-11 -5.88585e-09 0)
(-6.02677e-11 -5.78642e-09 0)
(-5.82256e-11 -5.69058e-09 0)
(-5.62382e-11 -5.59793e-09 0)
(-5.43054e-11 -5.50846e-09 0)
(-5.24264e-11 -5.42218e-09 0)
(-5.0598e-11 -5.33878e-09 0)
(-4.88216e-11 -5.25846e-09 0)
(-4.70927e-11 -5.18077e-09 0)
(-4.54132e-11 -5.10601e-09 0)
(-4.37814e-11 -5.03403e-09 0)
(-4.21953e-11 -4.96468e-09 0)
(-4.06548e-11 -4.89803e-09 0)
(-3.91535e-11 -4.83335e-09 0)
(-3.76968e-11 -4.77141e-09 0)
(-3.62784e-11 -4.71148e-09 0)
(-3.49003e-11 -4.65391e-09 0)
(-3.35638e-11 -4.59896e-09 0)
(-3.22602e-11 -4.54558e-09 0)
(-3.09964e-11 -4.4948e-09 0)
(-2.97635e-11 -4.44548e-09 0)
(-2.85669e-11 -4.3985e-09 0)
(-2.74011e-11 -4.35317e-09 0)
(-2.6269e-11 -4.31005e-09 0)
(-2.5165e-11 -4.26838e-09 0)
(-2.40925e-11 -4.22884e-09 0)
(-2.30466e-11 -4.19075e-09 0)
(-2.2029e-11 -4.15454e-09 0)
(-2.10385e-11 -4.12017e-09 0)
(-2.00738e-11 -4.08755e-09 0)
(-1.91294e-11 -4.05571e-09 0)
(-1.82082e-11 -4.02539e-09 0)
(-1.73101e-11 -3.99674e-09 0)
(-1.64345e-11 -3.96984e-09 0)
(-1.55767e-11 -3.94376e-09 0)
(-1.47408e-11 -3.9197e-09 0)
(-1.39211e-11 -3.89642e-09 0)
(-1.31197e-11 -3.87472e-09 0)
(-1.23342e-11 -3.85417e-09 0)
(-1.15641e-11 -3.83488e-09 0)
(-1.08095e-11 -3.8172e-09 0)
(-1.00666e-11 -3.80022e-09 0)
(-9.33681e-12 -3.78476e-09 0)
(-8.61771e-12 -3.77033e-09 0)
(-7.90828e-12 -3.75691e-09 0)
(-7.20785e-12 -3.74464e-09 0)
(-6.51537e-12 -3.73344e-09 0)
(-5.83041e-12 -3.72339e-09 0)
(-5.15258e-12 -3.71441e-09 0)
(-4.48256e-12 -3.70659e-09 0)
(-3.82166e-12 -3.69972e-09 0)
(-3.17296e-12 -3.69429e-09 0)
(-2.54036e-12 -3.68877e-09 0)
(-1.92803e-12 -3.68792e-09 0)
(-1.34214e-12 -3.67571e-09 0)
(-7.51469e-13 -3.70374e-09 0)
(-2.43053e-13 -3.59257e-09 0)
(6.61698e-13 -3.88685e-09 0)
(6.81704e-13 -3.39599e-09 0)
)
;
    }
    bottomWall
    {
        type            calculated;
        value           nonuniform List<vector> 
449
(
(-50.5796 -0.918673 0)
(-36.9639 -0.0021604 0)
(-36.5735 -9.59941e-05 0)
(-36.5212 -2.02328e-05 0)
(-36.5964 1.01558e-05 0)
(-36.6383 8.18192e-06 0)
(-36.6576 6.88038e-06 0)
(-36.6839 8.26964e-06 0)
(-36.7085 3.90775e-06 0)
(-36.7059 -5.68633e-07 0)
(-36.7045 3.73282e-07 0)
(-36.7084 -3.67892e-07 0)
(-36.7047 1.49191e-06 0)
(-36.7222 4.76854e-06 0)
(-36.7336 2.7981e-06 0)
(-36.7366 4.03286e-07 0)
(-36.7352 -6.56353e-07 0)
(-36.7304 -3.79792e-06 0)
(-36.7096 -2.55968e-06 0)
(-36.718 4.05195e-06 0)
(-36.7382 2.47842e-06 0)
(-36.7332 -1.26677e-06 0)
(-36.7291 -8.80171e-07 0)
(-36.7279 3.25977e-07 0)
(-36.7326 5.81267e-07 0)
(-36.7309 -6.31987e-07 0)
(-36.726 -1.6801e-06 0)
(-36.7184 -3.28604e-06 0)
(-36.7018 -2.74193e-06 0)
(-36.6999 2.13263e-06 0)
(-36.7197 2.6064e-06 0)
(-36.7176 -7.97217e-07 0)
(-36.711 -2.01694e-06 0)
(-36.7035 9.51101e-07 0)
(-36.7223 3.805e-06 0)
(-36.7305 7.42543e-07 0)
(-36.726 -4.01252e-07 0)
(-36.7295 1.97322e-06 0)
(-36.7411 1.63747e-06 0)
(-36.7386 -3.63898e-06 0)
(-36.71 -5.48914e-06 0)
(-36.7 2.7868e-07 0)
(-36.7177 3.85404e-06 0)
(-36.7258 2.69857e-06 0)
(-36.7331 1.0903e-06 0)
(-36.7352 -3.37725e-06 0)
(-36.7065 -5.19319e-06 0)
(-36.6974 1.9258e-06 0)
(-36.7268 5.12821e-06 0)
(-36.7338 -2.24847e-06 0)
(-36.7034 -5.76155e-06 0)
(-36.6925 8.46568e-07 0)
(-36.7162 4.08916e-06 0)
(-36.7232 1.01139e-06 0)
(-36.7208 -1.70552e-06 0)
(-36.7069 -3.51599e-06 0)
(-36.6954 3.95552e-07 0)
(-36.7165 5.05472e-06 0)
(-36.733 5.51773e-07 0)
(-36.7184 -2.04737e-06 0)
(-36.7192 -2.08308e-06 0)
(-36.7021 -1.20869e-06 0)
(-36.7105 3.05734e-06 0)
(-36.7266 1.11592e-06 0)
(-36.7191 4.0702e-07 0)
(-36.7285 2.00242e-06 0)
(-36.7313 1.16765e-06 0)
(-36.736 -5.09702e-07 0)
(-36.7285 -7.21964e-07 0)
(-36.7318 1.0974e-06 0)
(-36.7364 9.04842e-07 0)
(-36.7373 4.79792e-08 0)
(-36.7362 -5.3756e-07 0)
(-36.7328 -1.23567e-06 0)
(-36.7257 -2.46046e-06 0)
(-36.7128 -4.23978e-06 0)
(-36.6887 -5.66157e-06 0)
(-36.6686 -7.94416e-07 0)
(-36.6904 4.84805e-06 0)
(-36.7061 3.72095e-06 0)
(-36.7149 -1.31966e-06 0)
(-36.6943 -3.2473e-06 0)
(-36.6902 1.2027e-06 0)
(-36.7061 1.95551e-06 0)
(-36.7059 1.36169e-06 0)
(-36.7192 2.18411e-06 0)
(-36.7251 -4.72237e-06 0)
(-36.6787 -6.51762e-06 0)
(-36.6721 1.03406e-06 0)
(-36.6875 1.46458e-06 0)
(-36.6823 -1.34137e-06 0)
(-36.6732 -2.81254e-06 0)
(-36.6606 9.24154e-07 0)
(-36.6885 4.89998e-06 0)
(-36.6991 2.88323e-06 0)
(-36.707 -5.49434e-07 0)
(-36.6938 -1.76653e-06 0)
(-36.6946 1.26547e-06 0)
(-36.7074 6.03753e-07 0)
(-36.6979 -5.94844e-07 0)
(-36.702 1.39337e-06 0)
(-36.7115 5.97084e-07 0)
(-36.7075 -3.45743e-06 0)
(-36.6813 -2.52634e-06 0)
(-36.6868 4.38279e-06 0)
(-36.7189 5.95095e-06 0)
(-36.7347 2.25331e-06 0)
(-36.7379 -5.54694e-07 0)
(-36.7305 -9.34771e-07 0)
(-36.7285 -1.23944e-06 0)
(-36.7197 -2.54879e-06 0)
(-36.7047 -5.17951e-06 0)
(-36.6741 -3.40949e-06 0)
(-36.6804 4.49047e-06 0)
(-36.7165 4.49803e-06 0)
(-36.719 -2.12485e-06 0)
(-36.6966 -1.54687e-06 0)
(-36.7045 3.16341e-06 0)
(-36.7232 -7.40224e-07 0)
(-36.6974 -2.50982e-06 0)
(-36.7033 4.38544e-06 0)
(-36.7353 4.05575e-06 0)
(-36.735 -6.76284e-08 0)
(-36.7329 -1.03645e-06 0)
(-36.7256 -3.98944e-06 0)
(-36.6983 -3.65761e-06 0)
(-36.6969 2.4382e-06 0)
(-36.7233 2.83345e-06 0)
(-36.7213 1.61119e-08 0)
(-36.7221 -2.78175e-07 0)
(-36.7184 -1.06945e-07 0)
(-36.7207 3.63295e-07 0)
(-36.7215 -2.89203e-06 0)
(-36.6936 -2.90022e-06 0)
(-36.6961 2.80246e-06 0)
(-36.7203 1.88006e-06 0)
(-36.7119 -1.09655e-06 0)
(-36.7096 -1.80975e-06 0)
(-36.6957 -7.44717e-07 0)
(-36.7049 1.78956e-06 0)
(-36.713 6.91668e-07 0)
(-36.7083 -2.95042e-07 0)
(-36.709 -1.10174e-06 0)
(-36.6968 -1.08394e-06 0)
(-36.6974 6.10048e-07 0)
(-36.7024 -4.72516e-07 0)
(-36.6965 1.32073e-06 0)
(-36.7202 3.11015e-06 0)
(-36.7252 5.8481e-07 0)
(-36.724 -1.62094e-07 0)
(-36.7227 -3.02074e-06 0)
(-36.6931 -2.99477e-06 0)
(-36.6953 1.8923e-06 0)
(-36.7123 6.80857e-07 0)
(-36.6997 -1.21935e-06 0)
(-36.7012 1.58405e-06 0)
(-36.7168 3.65927e-08 0)
(-36.7019 -1.53334e-06 0)
(-36.7021 2.88436e-07 0)
(-36.7028 -1.17385e-07 0)
(-36.7004 -1.48044e-06 0)
(-36.688 -9.53452e-07 0)
(-36.6922 2.65604e-06 0)
(-36.7156 2.97351e-06 0)
(-36.7183 4.4948e-07 0)
(-36.718 -1.70188e-07 0)
(-36.7165 -3.49821e-07 0)
(-36.7145 -1.54939e-06 0)
(-36.7013 -1.8627e-06 0)
(-36.6985 1.10292e-06 0)
(-36.7144 2.15338e-06 0)
(-36.7186 -1.48128e-06 0)
(-36.6988 -1.81892e-06 0)
(-36.7026 3.87315e-06 0)
(-36.7343 4.22169e-06 0)
(-36.7388 2.91111e-07 0)
(-36.7366 -5.7476e-07 0)
(-36.7325 -2.40295e-06 0)
(-36.7115 -3.38307e-06 0)
(-36.7016 -6.73491e-08 0)
(-36.7136 2.37659e-06 0)
(-36.7227 -2.35747e-06 0)
(-36.6913 -2.85814e-06 0)
(-36.6987 2.27274e-06 0)
(-36.7133 1.19382e-06 0)
(-36.7091 -1.77569e-07 0)
(-36.7101 -6.11037e-08 0)
(-36.7076 -2.29319e-06 0)
(-36.6869 -1.42679e-06 0)
(-36.6943 2.1089e-06 0)
(-36.7097 1.37074e-06 0)
(-36.7073 -1.71425e-06 0)
(-36.6915 -1.54555e-06 0)
(-36.6919 1.68697e-06 0)
(-36.7087 1.59745e-06 0)
(-36.7071 -2.06393e-07 0)
(-36.706 -4.61187e-07 0)
(-36.7019 -9.70113e-07 0)
(-36.6944 -5.81519e-07 0)
(-36.6957 3.12018e-07 0)
(-36.6995 4.36068e-07 0)
(-36.7004 -9.79348e-07 0)
(-36.6889 -3.33192e-07 0)
(-36.6988 2.39441e-06 0)
(-36.7156 1.16372e-06 0)
(-36.7102 -9.73567e-07 0)
(-36.7025 -8.99238e-07 0)
(-36.6985 -4.39547e-07 0)
(-36.6975 -1.48513e-06 0)
(-36.6815 -5.66202e-07 0)
(-36.6937 1.14811e-06 0)
(-36.6972 2.84169e-07 0)
(-36.6967 -1.11124e-08 0)
(-36.6964 -7.65545e-07 0)
(-36.6849 -4.18554e-07 0)
(-36.6902 7.25409e-07 0)
(-36.6953 3.49184e-07 0)
(-36.6947 -6.29613e-08 0)
(-36.6945 4.16619e-08 0)
(-36.696 -1.9692e-07 0)
(-36.6912 2.00251e-07 0)
(-36.6984 5.31413e-07 0)
(-36.6991 -1.5517e-07 0)
(-36.6959 -5.46846e-07 0)
(-36.6898 -7.05475e-07 0)
(-36.6859 4.26014e-07 0)
(-36.6988 9.78655e-07 0)
(-36.7005 2.60853e-08 0)
(-36.6986 -5.27051e-09 0)
(-36.6999 -2.52418e-07 0)
(-36.6944 -7.10475e-08 0)
(-36.6993 6.47974e-07 0)
(-36.7033 1.17381e-07 0)
(-36.7008 -2.00983e-07 0)
(-36.7006 -4.04454e-07 0)
(-36.6933 -8.06584e-07 0)
(-36.6872 -2.63531e-07 0)
(-36.6911 6.65106e-08 0)
(-36.6886 9.8436e-08 0)
(-36.6915 5.82418e-07 0)
(-36.698 -4.22609e-07 0)
(-36.6834 -9.47504e-07 0)
(-36.6815 -3.04714e-07 0)
(-36.6772 -7.9559e-08 0)
(-36.6803 5.1019e-07 0)
(-36.688 -1.17357e-07 0)
(-36.6771 -2.64901e-07 0)
(-36.6832 9.6093e-07 0)
(-36.6971 9.27925e-08 0)
(-36.6842 -4.36698e-07 0)
(-36.6876 5.48941e-07 0)
(-36.6949 -5.07197e-07 0)
(-36.6777 -8.65041e-07 0)
(-36.6786 -1.46401e-07 0)
(-36.6737 -2.97906e-09 0)
(-36.6779 6.91552e-07 0)
(-36.6893 1.64444e-07 0)
(-36.6809 -2.55609e-07 0)
(-36.6837 -1.81084e-07 0)
(-36.6769 -3.83751e-08 0)
(-36.6828 7.10558e-07 0)
(-36.6928 2.4587e-07 0)
(-36.6884 -1.42209e-07 0)
(-36.6897 6.81772e-08 0)
(-36.6895 -8.26984e-08 0)
(-36.6879 1.02787e-07 0)
(-36.6924 3.1118e-07 0)
(-36.6954 -1.97186e-08 0)
(-36.6914 -1.87702e-07 0)
(-36.6901 -2.32891e-07 0)
(-36.6853 -7.67961e-07 0)
(-36.6711 -2.15186e-07 0)
(-36.6807 5.33177e-07 0)
(-36.685 -6.25376e-08 0)
(-36.6787 -4.38304e-08 0)
(-36.6841 2.42192e-07 0)
(-36.6853 -1.26879e-07 0)
(-36.6806 2.4998e-09 0)
(-36.6852 2.14068e-07 0)
(-36.686 -2.15974e-07 0)
(-36.6794 -2.18889e-07 0)
(-36.6806 -1.28993e-07 0)
(-36.6757 1.52078e-08 0)
(-36.6808 4.51912e-07 0)
(-36.6885 2.46626e-07 0)
(-36.6877 -3.10576e-08 0)
(-36.6873 -6.12869e-08 0)
(-36.6859 -3.87389e-07 0)
(-36.6757 -2.45769e-07 0)
(-36.6787 4.20545e-07 0)
(-36.689 3.32333e-07 0)
(-36.6888 -2.1235e-08 0)
(-36.6882 -5.32336e-08 0)
(-36.6868 -1.05584e-07 0)
(-36.684 -1.08265e-07 0)
(-36.6828 -8.47033e-08 0)
(-36.6815 -1.42481e-07 0)
(-36.6784 2.68207e-08 0)
(-36.6832 1.51168e-07 0)
(-36.6841 -3.1684e-07 0)
(-36.6719 -2.00658e-07 0)
(-36.6771 1.81726e-07 0)
(-36.6784 -8.17119e-08 0)
(-36.6741 1.80545e-08 0)
(-36.6792 1.56431e-07 0)
(-36.6798 -8.8871e-08 0)
(-36.6759 -5.05578e-08 0)
(-36.6782 -9.54403e-08 0)
(-36.6722 -1.25657e-07 0)
(-36.6734 3.2429e-09 0)
(-36.6722 8.02442e-08 0)
(-36.6765 1.7617e-07 0)
(-36.6793 6.77311e-08 0)
(-36.6792 -1.84344e-07 0)
(-36.6723 -1.3907e-07 0)
(-36.6738 7.41467e-08 0)
(-36.6746 1.46616e-07 0)
(-36.6796 2.03037e-07 0)
(-36.6834 6.9095e-09 0)
(-36.6796 -8.68778e-08 0)
(-36.6795 -5.08985e-08 0)
(-36.6775 -2.12534e-07 0)
(-36.6706 -1.65011e-07 0)
(-36.6706 1.89621e-07 0)
(-36.6787 2.47433e-07 0)
(-36.6815 5.28347e-08 0)
(-36.6813 -2.35089e-08 0)
(-36.6803 -2.15122e-08 0)
(-36.6802 -1.87932e-08 0)
(-36.6794 -4.16127e-08 0)
(-36.6781 -1.42293e-07 0)
(-36.6724 -1.20228e-07 0)
(-36.6726 1.22163e-07 0)
(-36.6788 1.30154e-07 0)
(-36.679 -4.78167e-08 0)
(-36.6765 -2.18249e-07 0)
(-36.668 -7.93931e-08 0)
(-36.6723 2.36694e-07 0)
(-36.6798 1.04383e-07 0)
(-36.6778 -3.13248e-08 0)
(-36.6783 6.13522e-09 0)
(-36.6778 -3.05674e-08 0)
(-36.6766 -1.16094e-07 0)
(-36.6713 -4.37849e-08 0)
(-36.6745 9.40012e-08 0)
(-36.677 -5.5221e-08 0)
(-36.6711 -5.98482e-08 0)
(-36.6736 -1.75821e-08 0)
(-36.6701 -3.72549e-08 0)
(-36.6713 2.28802e-08 0)
(-36.6713 6.13529e-08 0)
(-36.6752 1.11341e-07 0)
(-36.6784 -1.07089e-07 0)
(-36.6681 -1.36267e-07 0)
(-36.67 5.96975e-08 0)
(-36.6728 -1.72482e-09 0)
(-36.6698 -1.73277e-08 0)
(-36.6715 5.90918e-08 0)
(-36.6745 1.28854e-08 0)
(-36.6724 -2.60043e-08 0)
(-36.6724 -7.30773e-10 0)
(-36.6724 -5.15197e-09 0)
(-36.672 -5.71589e-08 0)
(-36.6681 -6.08522e-09 0)
(-36.6715 7.94336e-08 0)
(-36.6739 -1.29721e-08 0)
(-36.6708 1.25208e-11 0)
(-36.6742 5.69322e-08 0)
(-36.675 -9.89585e-09 0)
(-36.6734 -3.92194e-08 0)
(-36.6717 -1.20722e-08 0)
(-36.6725 2.96401e-08 0)
(-36.6743 -6.23494e-08 0)
(-36.6675 -6.33533e-08 0)
(-36.6693 6.99151e-08 0)
(-36.673 2.95735e-08 0)
(-36.6715 -4.1843e-08 0)
(-36.6696 -1.42622e-08 0)
(-36.6706 5.98281e-08 0)
(-36.6746 3.92125e-08 0)
(-36.6736 -4.41078e-08 0)
(-36.671 7.37746e-09 0)
(-36.6741 5.58051e-08 0)
(-36.6753 -4.72468e-08 0)
(-36.6704 -2.29839e-08 0)
(-36.6736 5.80196e-08 0)
(-36.6749 -2.11693e-08 0)
(-36.6718 -3.48371e-08 0)
(-36.6722 2.27737e-08 0)
(-36.6737 6.85233e-09 0)
(-36.6728 7.0423e-09 0)
(-36.6743 4.08845e-08 0)
(-36.6759 5.73476e-09 0)
(-36.6746 -2.80112e-08 0)
(-36.6735 -3.80885e-08 0)
(-36.6718 9.71817e-09 0)
(-36.6746 3.9406e-08 0)
(-36.6748 -1.46759e-08 0)
(-36.6734 -4.49977e-08 0)
(-36.6711 6.40657e-09 0)
(-36.6739 4.41675e-08 0)
(-36.6747 -4.70773e-08 0)
(-36.6701 -2.27133e-08 0)
(-36.673 7.05677e-08 0)
(-36.6757 1.58225e-08 0)
(-36.6742 -2.26408e-08 0)
(-36.6739 -4.37614e-08 0)
(-36.6709 5.3531e-09 0)
(-36.6743 6.65918e-08 0)
(-36.6758 -2.54883e-09 0)
(-36.6743 -2.23277e-08 0)
(-36.6744 -1.21742e-09 0)
(-36.6742 -7.56088e-09 0)
(-36.6737 -3.82264e-08 0)
(-36.671 7.2435e-09 0)
(-36.6742 4.82089e-08 0)
(-36.6748 -6.34219e-08 0)
(-36.6692 -4.53563e-08 0)
(-36.6715 1.36124e-08 0)
(-36.6705 -2.3239e-09 0)
(-36.6712 1.03549e-08 0)
(-36.6711 3.00178e-08 0)
(-36.6735 5.0649e-08 0)
(-36.6751 1.5499e-08 0)
(-36.6747 -1.17782e-08 0)
(-36.6741 -5.1377e-08 0)
(-36.6706 -4.31669e-09 0)
(-36.6738 5.09844e-08 0)
(-36.6746 -4.61705e-08 0)
(-36.6701 -2.84139e-08 0)
(-36.6725 6.02225e-08 0)
(-36.675 2.2407e-08 0)
(-36.6742 -1.01954e-08 0)
(-36.6741 -5.46104e-08 0)
(-36.6701 -2.62639e-08 0)
(-36.6721 6.85945e-08 0)
(-36.6751 4.0183e-08 0)
(-36.6752 6.48914e-09 0)
(-36.6759 -2.36673e-09 0)
(-36.675 -1.20377e-08 0)
(-36.6748 -6.86099e-08 0)
(-36.6697 -1.08154e-08 0)
(-36.674 6.75338e-08 0)
(-36.6749 -2.79483e-08 0)
(-36.6718 -3.00125e-09 0)
(-36.6746 4.24204e-08 0)
(-36.675 -1.33148e-08 0)
(-36.6736 -7.99985e-08 0)
(-36.6686 -6.11249e-08 0)
)
;
    }
    symmetry
    {
        type            symmetryPlane;
    }
    frontAndBack
    {
        type            empty;
    }
}


// ************************************************************************* //
