/*--------------------------------*- C++ -*----------------------------------*\
| =========                 |                                                 |
| \\      /  F ield         | OpenFOAM: The Open Source CFD Toolbox           |
|  \\    /   O peration     | Version:  v2012                                 |
|   \\  /    A nd           | Website:  www.openfoam.com                      |
|    \\/     M anipulation  |                                                 |
\*---------------------------------------------------------------------------*/
FoamFile
{
    version     2.0;
    format      ascii;
    class       volVectorField;
    location    "4.5";
    object      wallShearStress;
}
// * * * * * * * * * * * * * * * * * * * * * * * * * * * * * * * * * * * * * //

dimensions      [0 2 -2 0 0 0 0];


internalField   uniform (0 0 0);

boundaryField
{
    inlet
    {
        type            calculated;
        value           uniform (0 0 0);
    }
    outlet
    {
        type            calculated;
        value           uniform (0 0 0);
    }
    topWall
    {
        type            calculated;
        value           nonuniform List<vector> 
545
(
(6.84125e-09 -4.78566e-09 0)
(6.86313e-09 -1.35205e-08 0)
(6.79961e-09 -2.24932e-08 0)
(6.77006e-09 -3.1181e-08 0)
(6.74729e-09 -3.94747e-08 0)
(6.72348e-09 -4.74826e-08 0)
(6.69721e-09 -5.52769e-08 0)
(6.66825e-09 -6.28556e-08 0)
(6.63674e-09 -7.0201e-08 0)
(6.60292e-09 -7.73115e-08 0)
(6.56702e-09 -8.41959e-08 0)
(6.52926e-09 -9.08622e-08 0)
(6.48985e-09 -9.73153e-08 0)
(6.44897e-09 -1.0356e-07 0)
(6.40681e-09 -1.096e-07 0)
(6.36354e-09 -1.15442e-07 0)
(6.31931e-09 -1.21091e-07 0)
(6.27426e-09 -1.26552e-07 0)
(6.22853e-09 -1.31831e-07 0)
(6.18225e-09 -1.36932e-07 0)
(6.13553e-09 -1.41862e-07 0)
(6.08847e-09 -1.46626e-07 0)
(6.04117e-09 -1.51228e-07 0)
(5.99371e-09 -1.55673e-07 0)
(5.94618e-09 -1.59968e-07 0)
(5.89866e-09 -1.64115e-07 0)
(5.85119e-09 -1.68121e-07 0)
(5.80386e-09 -1.7199e-07 0)
(5.75671e-09 -1.75726e-07 0)
(5.70979e-09 -1.79335e-07 0)
(5.66314e-09 -1.82819e-07 0)
(5.61681e-09 -1.86184e-07 0)
(5.57082e-09 -1.89433e-07 0)
(5.52521e-09 -1.9257e-07 0)
(5.48e-09 -1.956e-07 0)
(5.43522e-09 -1.98526e-07 0)
(5.39089e-09 -2.01351e-07 0)
(5.34702e-09 -2.0408e-07 0)
(5.30363e-09 -2.06715e-07 0)
(5.26073e-09 -2.0926e-07 0)
(5.21832e-09 -2.11717e-07 0)
(5.17642e-09 -2.14091e-07 0)
(5.13503e-09 -2.16383e-07 0)
(5.09414e-09 -2.18597e-07 0)
(5.05377e-09 -2.20736e-07 0)
(5.01391e-09 -2.22802e-07 0)
(4.97456e-09 -2.24797e-07 0)
(4.93571e-09 -2.26725e-07 0)
(4.89736e-09 -2.28587e-07 0)
(4.8595e-09 -2.30386e-07 0)
(4.82213e-09 -2.32124e-07 0)
(4.78523e-09 -2.33803e-07 0)
(4.74881e-09 -2.35426e-07 0)
(4.71284e-09 -2.36994e-07 0)
(4.67733e-09 -2.38509e-07 0)
(4.64225e-09 -2.39972e-07 0)
(4.60759e-09 -2.41387e-07 0)
(4.57335e-09 -2.42754e-07 0)
(4.53951e-09 -2.44075e-07 0)
(4.50605e-09 -2.45352e-07 0)
(4.47296e-09 -2.46586e-07 0)
(4.44024e-09 -2.47778e-07 0)
(4.40786e-09 -2.48931e-07 0)
(4.3758e-09 -2.50045e-07 0)
(4.34406e-09 -2.51122e-07 0)
(4.31262e-09 -2.52163e-07 0)
(4.28146e-09 -2.53169e-07 0)
(4.25055e-09 -2.54141e-07 0)
(4.21997e-09 -2.55082e-07 0)
(4.18928e-09 -2.55987e-07 0)
(4.16027e-09 -2.56881e-07 0)
(4.12526e-09 -2.57702e-07 0)
(4.09271e-09 -2.58506e-07 0)
(4.07094e-09 -2.5933e-07 0)
(4.04949e-09 -2.60088e-07 0)
(4.0281e-09 -2.60838e-07 0)
(4.00676e-09 -2.61596e-07 0)
(3.98546e-09 -2.6235e-07 0)
(3.96418e-09 -2.63094e-07 0)
(3.94294e-09 -2.63829e-07 0)
(3.92174e-09 -2.64556e-07 0)
(3.90057e-09 -2.65276e-07 0)
(3.87943e-09 -2.6599e-07 0)
(3.85833e-09 -2.66697e-07 0)
(3.83727e-09 -2.67396e-07 0)
(3.81624e-09 -2.68088e-07 0)
(3.79525e-09 -2.68773e-07 0)
(3.7743e-09 -2.69452e-07 0)
(3.75338e-09 -2.70124e-07 0)
(3.7325e-09 -2.70788e-07 0)
(3.71169e-09 -2.71447e-07 0)
(3.69077e-09 -2.72096e-07 0)
(3.67055e-09 -2.72752e-07 0)
(3.64758e-09 -2.73358e-07 0)
(3.63655e-09 -2.74126e-07 0)
(3.57557e-09 -2.74573e-07 0)
(3.49937e-09 -2.75006e-07 0)
(3.47808e-09 -2.75782e-07 0)
(3.46228e-09 -2.76243e-07 0)
(3.44757e-09 -2.76639e-07 0)
(3.43313e-09 -2.7711e-07 0)
(3.41871e-09 -2.77614e-07 0)
(3.40426e-09 -2.78109e-07 0)
(3.38976e-09 -2.7859e-07 0)
(3.37522e-09 -2.79068e-07 0)
(3.36064e-09 -2.79548e-07 0)
(3.34601e-09 -2.80028e-07 0)
(3.33133e-09 -2.80507e-07 0)
(3.31661e-09 -2.80985e-07 0)
(3.30184e-09 -2.81462e-07 0)
(3.28703e-09 -2.81937e-07 0)
(3.27217e-09 -2.82412e-07 0)
(3.25727e-09 -2.82886e-07 0)
(3.24232e-09 -2.83358e-07 0)
(3.22733e-09 -2.8383e-07 0)
(3.21229e-09 -2.843e-07 0)
(3.19721e-09 -2.8477e-07 0)
(3.18209e-09 -2.85238e-07 0)
(3.16692e-09 -2.85705e-07 0)
(3.15171e-09 -2.86171e-07 0)
(3.13645e-09 -2.86636e-07 0)
(3.12115e-09 -2.871e-07 0)
(3.1058e-09 -2.87562e-07 0)
(3.09042e-09 -2.88024e-07 0)
(3.07498e-09 -2.88484e-07 0)
(3.05951e-09 -2.88943e-07 0)
(3.04399e-09 -2.894e-07 0)
(3.02843e-09 -2.89856e-07 0)
(3.01282e-09 -2.90312e-07 0)
(2.99717e-09 -2.90765e-07 0)
(2.98148e-09 -2.91218e-07 0)
(2.96575e-09 -2.91669e-07 0)
(2.94997e-09 -2.92119e-07 0)
(2.93415e-09 -2.92567e-07 0)
(2.91829e-09 -2.93014e-07 0)
(2.90239e-09 -2.9346e-07 0)
(2.88644e-09 -2.93905e-07 0)
(2.87045e-09 -2.94348e-07 0)
(2.85442e-09 -2.94789e-07 0)
(2.83835e-09 -2.95229e-07 0)
(2.82223e-09 -2.95668e-07 0)
(2.80608e-09 -2.96105e-07 0)
(2.78988e-09 -2.96541e-07 0)
(2.77364e-09 -2.96975e-07 0)
(2.75737e-09 -2.97407e-07 0)
(2.74105e-09 -2.97838e-07 0)
(2.72469e-09 -2.98268e-07 0)
(2.70828e-09 -2.98696e-07 0)
(2.69184e-09 -2.99122e-07 0)
(2.67536e-09 -2.99547e-07 0)
(2.65884e-09 -2.9997e-07 0)
(2.64228e-09 -3.00392e-07 0)
(2.62568e-09 -3.00812e-07 0)
(2.60904e-09 -3.0123e-07 0)
(2.59236e-09 -3.01646e-07 0)
(2.57564e-09 -3.02061e-07 0)
(2.55888e-09 -3.02474e-07 0)
(2.54209e-09 -3.02886e-07 0)
(2.52525e-09 -3.03295e-07 0)
(2.50838e-09 -3.03703e-07 0)
(2.49147e-09 -3.04109e-07 0)
(2.47452e-09 -3.04514e-07 0)
(2.45754e-09 -3.04916e-07 0)
(2.44051e-09 -3.05317e-07 0)
(2.42345e-09 -3.05715e-07 0)
(2.40635e-09 -3.06112e-07 0)
(2.38922e-09 -3.06507e-07 0)
(2.37205e-09 -3.069e-07 0)
(2.35484e-09 -3.07292e-07 0)
(2.3376e-09 -3.07681e-07 0)
(2.32032e-09 -3.08068e-07 0)
(2.30301e-09 -3.08454e-07 0)
(2.28566e-09 -3.08837e-07 0)
(2.26827e-09 -3.09218e-07 0)
(2.25086e-09 -3.09597e-07 0)
(2.2334e-09 -3.09975e-07 0)
(2.21592e-09 -3.1035e-07 0)
(2.1984e-09 -3.10723e-07 0)
(2.18084e-09 -3.11094e-07 0)
(2.16325e-09 -3.11463e-07 0)
(2.14563e-09 -3.1183e-07 0)
(2.12798e-09 -3.12195e-07 0)
(2.11029e-09 -3.12557e-07 0)
(2.09258e-09 -3.12917e-07 0)
(2.07483e-09 -3.13275e-07 0)
(2.05704e-09 -3.13631e-07 0)
(2.03923e-09 -3.13985e-07 0)
(2.02139e-09 -3.14336e-07 0)
(2.00351e-09 -3.14685e-07 0)
(1.98561e-09 -3.15032e-07 0)
(1.96768e-09 -3.15377e-07 0)
(1.94971e-09 -3.15719e-07 0)
(1.93172e-09 -3.16059e-07 0)
(1.9137e-09 -3.16396e-07 0)
(1.89565e-09 -3.16731e-07 0)
(1.87757e-09 -3.17064e-07 0)
(1.85946e-09 -3.17394e-07 0)
(1.84133e-09 -3.17722e-07 0)
(1.82317e-09 -3.18048e-07 0)
(1.80498e-09 -3.18371e-07 0)
(1.78677e-09 -3.18691e-07 0)
(1.76853e-09 -3.19009e-07 0)
(1.75026e-09 -3.19324e-07 0)
(1.73197e-09 -3.19637e-07 0)
(1.71366e-09 -3.19948e-07 0)
(1.69532e-09 -3.20255e-07 0)
(1.67695e-09 -3.2056e-07 0)
(1.65856e-09 -3.20863e-07 0)
(1.64015e-09 -3.21163e-07 0)
(1.62172e-09 -3.2146e-07 0)
(1.60326e-09 -3.21755e-07 0)
(1.58478e-09 -3.22046e-07 0)
(1.56628e-09 -3.22336e-07 0)
(1.54776e-09 -3.22622e-07 0)
(1.52922e-09 -3.22906e-07 0)
(1.51066e-09 -3.23187e-07 0)
(1.49208e-09 -3.23465e-07 0)
(1.47348e-09 -3.2374e-07 0)
(1.45486e-09 -3.24013e-07 0)
(1.43622e-09 -3.24282e-07 0)
(1.41756e-09 -3.24549e-07 0)
(1.39889e-09 -3.24813e-07 0)
(1.3802e-09 -3.25074e-07 0)
(1.36149e-09 -3.25332e-07 0)
(1.34276e-09 -3.25587e-07 0)
(1.32402e-09 -3.2584e-07 0)
(1.30527e-09 -3.26089e-07 0)
(1.2865e-09 -3.26335e-07 0)
(1.26772e-09 -3.26579e-07 0)
(1.24892e-09 -3.26819e-07 0)
(1.23011e-09 -3.27056e-07 0)
(1.21128e-09 -3.2729e-07 0)
(1.19245e-09 -3.27521e-07 0)
(1.1736e-09 -3.27749e-07 0)
(1.15474e-09 -3.27974e-07 0)
(1.13588e-09 -3.28196e-07 0)
(1.117e-09 -3.28415e-07 0)
(1.09811e-09 -3.2863e-07 0)
(1.07921e-09 -3.28842e-07 0)
(1.06031e-09 -3.29052e-07 0)
(1.04139e-09 -3.29257e-07 0)
(1.02247e-09 -3.2946e-07 0)
(1.00355e-09 -3.29659e-07 0)
(9.84612e-10 -3.29856e-07 0)
(9.65673e-10 -3.30048e-07 0)
(9.46728e-10 -3.30238e-07 0)
(9.27779e-10 -3.30424e-07 0)
(9.08827e-10 -3.30607e-07 0)
(8.89871e-10 -3.30786e-07 0)
(8.70912e-10 -3.30963e-07 0)
(8.51951e-10 -3.31135e-07 0)
(8.32989e-10 -3.31305e-07 0)
(8.14026e-10 -3.3147e-07 0)
(7.95062e-10 -3.31633e-07 0)
(7.76099e-10 -3.31792e-07 0)
(7.57136e-10 -3.31947e-07 0)
(7.38175e-10 -3.32099e-07 0)
(7.19216e-10 -3.32248e-07 0)
(7.0026e-10 -3.32393e-07 0)
(6.81307e-10 -3.32534e-07 0)
(6.62358e-10 -3.32672e-07 0)
(6.43415e-10 -3.32806e-07 0)
(6.24472e-10 -3.32937e-07 0)
(6.05556e-10 -3.33065e-07 0)
(5.86558e-10 -3.33185e-07 0)
(5.6794e-10 -3.33316e-07 0)
(5.47758e-10 -3.33401e-07 0)
(5.34244e-10 -3.33652e-07 0)
(4.92608e-10 -3.33581e-07 0)
(4.4131e-10 -3.33548e-07 0)
(4.21734e-10 -3.33911e-07 0)
(4.07675e-10 -3.33973e-07 0)
(3.94769e-10 -3.33966e-07 0)
(3.82001e-10 -3.34022e-07 0)
(3.69117e-10 -3.34112e-07 0)
(3.56059e-10 -3.34195e-07 0)
(3.42819e-10 -3.34264e-07 0)
(3.29393e-10 -3.34328e-07 0)
(3.15782e-10 -3.34393e-07 0)
(3.01986e-10 -3.34457e-07 0)
(2.88005e-10 -3.34519e-07 0)
(2.7384e-10 -3.34578e-07 0)
(2.59491e-10 -3.34635e-07 0)
(2.4496e-10 -3.34689e-07 0)
(2.30247e-10 -3.3474e-07 0)
(2.15353e-10 -3.34789e-07 0)
(2.00279e-10 -3.34835e-07 0)
(1.85026e-10 -3.34878e-07 0)
(1.69594e-10 -3.34918e-07 0)
(1.53985e-10 -3.34955e-07 0)
(1.382e-10 -3.34989e-07 0)
(1.22239e-10 -3.35019e-07 0)
(1.06104e-10 -3.35046e-07 0)
(8.97968e-11 -3.35069e-07 0)
(7.33176e-11 -3.35088e-07 0)
(5.6668e-11 -3.35104e-07 0)
(3.98494e-11 -3.35116e-07 0)
(2.28634e-11 -3.35123e-07 0)
(5.71119e-12 -3.35126e-07 0)
(-1.16055e-11 -3.35125e-07 0)
(-2.9085e-11 -3.35119e-07 0)
(-4.67258e-11 -3.35109e-07 0)
(-6.4526e-11 -3.35093e-07 0)
(-8.24838e-11 -3.35073e-07 0)
(-1.00597e-10 -3.35048e-07 0)
(-1.18864e-10 -3.35017e-07 0)
(-1.37283e-10 -3.34981e-07 0)
(-1.55851e-10 -3.34939e-07 0)
(-1.74567e-10 -3.34892e-07 0)
(-1.93427e-10 -3.34839e-07 0)
(-2.1243e-10 -3.34779e-07 0)
(-2.31573e-10 -3.34714e-07 0)
(-2.50854e-10 -3.34642e-07 0)
(-2.70269e-10 -3.34563e-07 0)
(-2.89816e-10 -3.34478e-07 0)
(-3.09493e-10 -3.34386e-07 0)
(-3.29295e-10 -3.34287e-07 0)
(-3.49221e-10 -3.3418e-07 0)
(-3.69266e-10 -3.34066e-07 0)
(-3.89428e-10 -3.33945e-07 0)
(-4.09703e-10 -3.33815e-07 0)
(-4.30088e-10 -3.33677e-07 0)
(-4.50579e-10 -3.33532e-07 0)
(-4.71173e-10 -3.33377e-07 0)
(-4.91864e-10 -3.33215e-07 0)
(-5.12651e-10 -3.33043e-07 0)
(-5.33528e-10 -3.32862e-07 0)
(-5.54491e-10 -3.32672e-07 0)
(-5.75535e-10 -3.32473e-07 0)
(-5.96658e-10 -3.32264e-07 0)
(-6.17853e-10 -3.32045e-07 0)
(-6.39116e-10 -3.31816e-07 0)
(-6.60442e-10 -3.31576e-07 0)
(-6.81827e-10 -3.31326e-07 0)
(-7.03265e-10 -3.31066e-07 0)
(-7.24751e-10 -3.30794e-07 0)
(-7.46279e-10 -3.30511e-07 0)
(-7.67845e-10 -3.30217e-07 0)
(-7.89441e-10 -3.29911e-07 0)
(-8.11064e-10 -3.29593e-07 0)
(-8.32706e-10 -3.29263e-07 0)
(-8.54361e-10 -3.28921e-07 0)
(-8.76024e-10 -3.28566e-07 0)
(-8.97687e-10 -3.28199e-07 0)
(-9.19345e-10 -3.27818e-07 0)
(-9.40991e-10 -3.27424e-07 0)
(-9.62618e-10 -3.27017e-07 0)
(-9.84219e-10 -3.26595e-07 0)
(-1.00579e-09 -3.2616e-07 0)
(-1.02731e-09 -3.25711e-07 0)
(-1.04879e-09 -3.25247e-07 0)
(-1.07022e-09 -3.24768e-07 0)
(-1.09158e-09 -3.24274e-07 0)
(-1.11287e-09 -3.23765e-07 0)
(-1.13409e-09 -3.23241e-07 0)
(-1.15521e-09 -3.22701e-07 0)
(-1.17625e-09 -3.22145e-07 0)
(-1.19718e-09 -3.21573e-07 0)
(-1.21799e-09 -3.20985e-07 0)
(-1.23869e-09 -3.2038e-07 0)
(-1.25926e-09 -3.19758e-07 0)
(-1.27969e-09 -3.1912e-07 0)
(-1.29998e-09 -3.18463e-07 0)
(-1.32011e-09 -3.1779e-07 0)
(-1.34008e-09 -3.17099e-07 0)
(-1.35987e-09 -3.16389e-07 0)
(-1.37948e-09 -3.15662e-07 0)
(-1.3989e-09 -3.14916e-07 0)
(-1.41811e-09 -3.14152e-07 0)
(-1.43712e-09 -3.13369e-07 0)
(-1.4559e-09 -3.12567e-07 0)
(-1.47446e-09 -3.11745e-07 0)
(-1.49277e-09 -3.10905e-07 0)
(-1.51083e-09 -3.10045e-07 0)
(-1.52864e-09 -3.09165e-07 0)
(-1.54617e-09 -3.08265e-07 0)
(-1.56342e-09 -3.07346e-07 0)
(-1.58038e-09 -3.06406e-07 0)
(-1.59705e-09 -3.05445e-07 0)
(-1.6134e-09 -3.04464e-07 0)
(-1.62944e-09 -3.03463e-07 0)
(-1.64514e-09 -3.02441e-07 0)
(-1.66051e-09 -3.01398e-07 0)
(-1.67553e-09 -3.00334e-07 0)
(-1.69019e-09 -2.99248e-07 0)
(-1.70448e-09 -2.98142e-07 0)
(-1.71839e-09 -2.97014e-07 0)
(-1.73191e-09 -2.95865e-07 0)
(-1.74504e-09 -2.94694e-07 0)
(-1.75776e-09 -2.93502e-07 0)
(-1.77006e-09 -2.92289e-07 0)
(-1.78194e-09 -2.91054e-07 0)
(-1.79339e-09 -2.89797e-07 0)
(-1.8044e-09 -2.88518e-07 0)
(-1.81495e-09 -2.87218e-07 0)
(-1.82504e-09 -2.85897e-07 0)
(-1.83467e-09 -2.84554e-07 0)
(-1.84382e-09 -2.83189e-07 0)
(-1.85249e-09 -2.81803e-07 0)
(-1.86067e-09 -2.80395e-07 0)
(-1.86835e-09 -2.78966e-07 0)
(-1.87552e-09 -2.77516e-07 0)
(-1.88219e-09 -2.76044e-07 0)
(-1.88833e-09 -2.74552e-07 0)
(-1.89396e-09 -2.73038e-07 0)
(-1.89905e-09 -2.71504e-07 0)
(-1.90361e-09 -2.6995e-07 0)
(-1.90762e-09 -2.68374e-07 0)
(-1.9111e-09 -2.66779e-07 0)
(-1.91402e-09 -2.65164e-07 0)
(-1.9164e-09 -2.63529e-07 0)
(-1.91821e-09 -2.61874e-07 0)
(-1.91947e-09 -2.602e-07 0)
(-1.92016e-09 -2.58507e-07 0)
(-1.92029e-09 -2.56795e-07 0)
(-1.91985e-09 -2.55065e-07 0)
(-1.91885e-09 -2.53316e-07 0)
(-1.91727e-09 -2.5155e-07 0)
(-1.91513e-09 -2.49766e-07 0)
(-1.91242e-09 -2.47966e-07 0)
(-1.90913e-09 -2.46148e-07 0)
(-1.90528e-09 -2.44314e-07 0)
(-1.90087e-09 -2.42465e-07 0)
(-1.89589e-09 -2.406e-07 0)
(-1.89034e-09 -2.3872e-07 0)
(-1.88424e-09 -2.36825e-07 0)
(-1.87758e-09 -2.34916e-07 0)
(-1.87037e-09 -2.32994e-07 0)
(-1.86262e-09 -2.31058e-07 0)
(-1.85432e-09 -2.2911e-07 0)
(-1.84549e-09 -2.2715e-07 0)
(-1.83612e-09 -2.25179e-07 0)
(-1.82623e-09 -2.23196e-07 0)
(-1.81583e-09 -2.21203e-07 0)
(-1.80492e-09 -2.192e-07 0)
(-1.7935e-09 -2.17188e-07 0)
(-1.7816e-09 -2.15167e-07 0)
(-1.76921e-09 -2.13138e-07 0)
(-1.75634e-09 -2.11102e-07 0)
(-1.74301e-09 -2.09059e-07 0)
(-1.72923e-09 -2.07009e-07 0)
(-1.715e-09 -2.04955e-07 0)
(-1.70034e-09 -2.02895e-07 0)
(-1.68525e-09 -2.00831e-07 0)
(-1.66976e-09 -1.98763e-07 0)
(-1.65386e-09 -1.96695e-07 0)
(-1.63761e-09 -1.94612e-07 0)
(-1.62081e-09 -1.92566e-07 0)
(-1.60437e-09 -1.90354e-07 0)
(-1.58457e-09 -1.88451e-07 0)
(-1.55894e-09 -1.86262e-07 0)
(-1.53375e-09 -1.835e-07 0)
(-1.51117e-09 -1.8107e-07 0)
(-1.48916e-09 -1.78716e-07 0)
(-1.46724e-09 -1.76336e-07 0)
(-1.44529e-09 -1.73964e-07 0)
(-1.42331e-09 -1.71634e-07 0)
(-1.40131e-09 -1.69351e-07 0)
(-1.37932e-09 -1.67106e-07 0)
(-1.35736e-09 -1.64893e-07 0)
(-1.33546e-09 -1.62715e-07 0)
(-1.31362e-09 -1.60572e-07 0)
(-1.29187e-09 -1.58465e-07 0)
(-1.27022e-09 -1.56393e-07 0)
(-1.24869e-09 -1.54356e-07 0)
(-1.22728e-09 -1.52353e-07 0)
(-1.20601e-09 -1.50386e-07 0)
(-1.18489e-09 -1.48452e-07 0)
(-1.16394e-09 -1.46553e-07 0)
(-1.14315e-09 -1.44687e-07 0)
(-1.12253e-09 -1.42855e-07 0)
(-1.1021e-09 -1.41056e-07 0)
(-1.08186e-09 -1.3929e-07 0)
(-1.06181e-09 -1.37556e-07 0)
(-1.04195e-09 -1.35855e-07 0)
(-1.0223e-09 -1.34186e-07 0)
(-1.00284e-09 -1.32548e-07 0)
(-9.83596e-10 -1.30942e-07 0)
(-9.64555e-10 -1.29366e-07 0)
(-9.45722e-10 -1.27822e-07 0)
(-9.27096e-10 -1.26307e-07 0)
(-9.08679e-10 -1.24823e-07 0)
(-8.90469e-10 -1.23368e-07 0)
(-8.72466e-10 -1.21942e-07 0)
(-8.54668e-10 -1.20546e-07 0)
(-8.37075e-10 -1.19178e-07 0)
(-8.19684e-10 -1.17838e-07 0)
(-8.02494e-10 -1.16527e-07 0)
(-7.85502e-10 -1.15243e-07 0)
(-7.68705e-10 -1.13986e-07 0)
(-7.52101e-10 -1.12756e-07 0)
(-7.35686e-10 -1.11553e-07 0)
(-7.19458e-10 -1.10376e-07 0)
(-7.03414e-10 -1.09226e-07 0)
(-6.87549e-10 -1.08101e-07 0)
(-6.7186e-10 -1.07002e-07 0)
(-6.56344e-10 -1.05928e-07 0)
(-6.40996e-10 -1.04879e-07 0)
(-6.25813e-10 -1.03855e-07 0)
(-6.10791e-10 -1.02855e-07 0)
(-5.95926e-10 -1.01879e-07 0)
(-5.81213e-10 -1.00927e-07 0)
(-5.66649e-10 -9.99992e-08 0)
(-5.52229e-10 -9.90945e-08 0)
(-5.37949e-10 -9.8213e-08 0)
(-5.23805e-10 -9.73544e-08 0)
(-5.09793e-10 -9.65187e-08 0)
(-4.95908e-10 -9.57055e-08 0)
(-4.82146e-10 -9.49146e-08 0)
(-4.68503e-10 -9.41459e-08 0)
(-4.54975e-10 -9.33992e-08 0)
(-4.41557e-10 -9.26742e-08 0)
(-4.28245e-10 -9.19708e-08 0)
(-4.15036e-10 -9.12889e-08 0)
(-4.01924e-10 -9.06283e-08 0)
(-3.88907e-10 -8.99888e-08 0)
(-3.75979e-10 -8.93703e-08 0)
(-3.63137e-10 -8.87726e-08 0)
(-3.50378e-10 -8.81956e-08 0)
(-3.37697e-10 -8.76392e-08 0)
(-3.2509e-10 -8.71032e-08 0)
(-3.12555e-10 -8.65876e-08 0)
(-3.00087e-10 -8.60921e-08 0)
(-2.87684e-10 -8.56168e-08 0)
(-2.75341e-10 -8.51616e-08 0)
(-2.63056e-10 -8.47262e-08 0)
(-2.50826e-10 -8.43107e-08 0)
(-2.38648e-10 -8.39149e-08 0)
(-2.2652e-10 -8.35388e-08 0)
(-2.14439e-10 -8.31823e-08 0)
(-2.02402e-10 -8.28453e-08 0)
(-1.90408e-10 -8.25277e-08 0)
(-1.78454e-10 -8.22295e-08 0)
(-1.66537e-10 -8.19506e-08 0)
(-1.5465e-10 -8.16907e-08 0)
(-1.42786e-10 -8.14507e-08 0)
(-1.3093e-10 -8.12276e-08 0)
(-1.1907e-10 -8.10308e-08 0)
(-1.07159e-10 -8.0829e-08 0)
(-9.52525e-11 -8.07257e-08 0)
(-8.30466e-11 -8.03731e-08 0)
(-7.17809e-11 -8.0898e-08 0)
(-5.69398e-11 -7.83796e-08 0)
(-5.74183e-11 -8.47208e-08 0)
(-3.38751e-11 -7.3915e-08 0)
)
;
    }
    bottomWall
    {
        type            calculated;
        value           nonuniform List<vector> 
449
(
(-48.7972 -0.967772 0)
(-19.8703 -0.00517515 0)
(-14.4866 -0.001121 0)
(-12.2573 -0.000517809 0)
(-10.9731 -0.000314277 0)
(-10.1263 -0.000213703 0)
(-9.52462 -0.000154896 0)
(-9.07587 -0.00011735 0)
(-8.72784 -9.21482e-05 0)
(-8.44921 -7.44418e-05 0)
(-8.22073 -6.14294e-05 0)
(-8.03003 -5.15076e-05 0)
(-7.86866 -4.37428e-05 0)
(-7.73054 -3.75512e-05 0)
(-7.61113 -3.25388e-05 0)
(-7.50701 -2.84266e-05 0)
(-7.41553 -2.50131e-05 0)
(-7.3346 -2.21505e-05 0)
(-7.26259 -1.97279e-05 0)
(-7.19816 -1.76608e-05 0)
(-7.14023 -1.58839e-05 0)
(-7.08791 -1.43461e-05 0)
(-7.04048 -1.30072e-05 0)
(-6.99732 -1.1835e-05 0)
(-6.9579 -1.08034e-05 0)
(-6.9218 -9.89134e-06 0)
(-6.88864 -9.08146e-06 0)
(-6.8581 -8.35943e-06 0)
(-6.82989 -7.71334e-06 0)
(-6.80379 -7.13319e-06 0)
(-6.77958 -6.61057e-06 0)
(-6.75708 -6.13836e-06 0)
(-6.73613 -5.71048e-06 0)
(-6.71658 -5.32174e-06 0)
(-6.69831 -4.96767e-06 0)
(-6.68122 -4.64443e-06 0)
(-6.66519 -4.34867e-06 0)
(-6.65014 -4.07748e-06 0)
(-6.636 -3.82833e-06 0)
(-6.62269 -3.59899e-06 0)
(-6.61014 -3.3875e-06 0)
(-6.5983 -3.19215e-06 0)
(-6.58711 -3.01139e-06 0)
(-6.57653 -2.84389e-06 0)
(-6.56652 -2.68844e-06 0)
(-6.55703 -2.54397e-06 0)
(-6.54803 -2.40951e-06 0)
(-6.53948 -2.28422e-06 0)
(-6.53136 -2.16732e-06 0)
(-6.52363 -2.05811e-06 0)
(-6.51628 -1.95598e-06 0)
(-6.50928 -1.86036e-06 0)
(-6.5026 -1.77074e-06 0)
(-6.49623 -1.68665e-06 0)
(-6.49015 -1.60768e-06 0)
(-6.48434 -1.53345e-06 0)
(-6.47878 -1.4636e-06 0)
(-6.47347 -1.39782e-06 0)
(-6.46838 -1.33581e-06 0)
(-6.46351 -1.27732e-06 0)
(-6.45883 -1.2221e-06 0)
(-6.45436 -1.16993e-06 0)
(-6.45006 -1.12059e-06 0)
(-6.44593 -1.07391e-06 0)
(-6.44197 -1.02971e-06 0)
(-6.43816 -9.87823e-07 0)
(-6.4345 -9.48108e-07 0)
(-6.43098 -9.10426e-07 0)
(-6.42758 -8.7465e-07 0)
(-6.42432 -8.40664e-07 0)
(-6.42118 -8.08357e-07 0)
(-6.41814 -7.7763e-07 0)
(-6.41522 -7.48388e-07 0)
(-6.4124 -7.20545e-07 0)
(-6.40968 -6.94019e-07 0)
(-6.40706 -6.68736e-07 0)
(-6.40452 -6.44624e-07 0)
(-6.40207 -6.2162e-07 0)
(-6.3997 -5.9966e-07 0)
(-6.39741 -5.78689e-07 0)
(-6.3952 -5.58652e-07 0)
(-6.39305 -5.39498e-07 0)
(-6.39098 -5.21181e-07 0)
(-6.38897 -5.03658e-07 0)
(-6.38702 -4.86885e-07 0)
(-6.38514 -4.70825e-07 0)
(-6.38331 -4.55441e-07 0)
(-6.38154 -4.40699e-07 0)
(-6.37982 -4.26566e-07 0)
(-6.37816 -4.13014e-07 0)
(-6.37654 -4.00011e-07 0)
(-6.37497 -3.87533e-07 0)
(-6.37344 -3.75553e-07 0)
(-6.37196 -3.64048e-07 0)
(-6.37052 -3.52995e-07 0)
(-6.36913 -3.42374e-07 0)
(-6.36777 -3.32164e-07 0)
(-6.36645 -3.22346e-07 0)
(-6.36516 -3.12902e-07 0)
(-6.36391 -3.03814e-07 0)
(-6.36269 -2.95067e-07 0)
(-6.36151 -2.86644e-07 0)
(-6.36035 -2.78533e-07 0)
(-6.35923 -2.70718e-07 0)
(-6.35813 -2.63187e-07 0)
(-6.35706 -2.55928e-07 0)
(-6.35602 -2.4893e-07 0)
(-6.35501 -2.4218e-07 0)
(-6.35402 -2.35669e-07 0)
(-6.35306 -2.29386e-07 0)
(-6.35212 -2.23322e-07 0)
(-6.3512 -2.17468e-07 0)
(-6.3503 -2.11815e-07 0)
(-6.34942 -2.06355e-07 0)
(-6.34857 -2.0108e-07 0)
(-6.34774 -1.95983e-07 0)
(-6.34692 -1.91056e-07 0)
(-6.34612 -1.86293e-07 0)
(-6.34534 -1.81686e-07 0)
(-6.34458 -1.7723e-07 0)
(-6.34384 -1.72919e-07 0)
(-6.34311 -1.68748e-07 0)
(-6.3424 -1.6471e-07 0)
(-6.3417 -1.60801e-07 0)
(-6.34102 -1.57017e-07 0)
(-6.34035 -1.53352e-07 0)
(-6.3397 -1.49802e-07 0)
(-6.33906 -1.46363e-07 0)
(-6.33843 -1.4303e-07 0)
(-6.33781 -1.398e-07 0)
(-6.33721 -1.36668e-07 0)
(-6.33662 -1.33632e-07 0)
(-6.33604 -1.30687e-07 0)
(-6.33548 -1.27831e-07 0)
(-6.33492 -1.25059e-07 0)
(-6.33438 -1.2237e-07 0)
(-6.33384 -1.1976e-07 0)
(-6.33332 -1.17227e-07 0)
(-6.3328 -1.14767e-07 0)
(-6.3323 -1.12378e-07 0)
(-6.3318 -1.10058e-07 0)
(-6.33132 -1.07804e-07 0)
(-6.33084 -1.05615e-07 0)
(-6.33037 -1.03487e-07 0)
(-6.32991 -1.01419e-07 0)
(-6.32945 -9.94082e-08 0)
(-6.32901 -9.74534e-08 0)
(-6.32857 -9.55519e-08 0)
(-6.32814 -9.3702e-08 0)
(-6.32772 -9.19016e-08 0)
(-6.3273 -9.01493e-08 0)
(-6.32689 -8.84431e-08 0)
(-6.32649 -8.67814e-08 0)
(-6.3261 -8.51625e-08 0)
(-6.32571 -8.35843e-08 0)
(-6.32532 -8.2045e-08 0)
(-6.32495 -8.05426e-08 0)
(-6.32458 -7.90747e-08 0)
(-6.32421 -7.76388e-08 0)
(-6.32385 -7.62316e-08 0)
(-6.3235 -7.48494e-08 0)
(-6.32315 -7.3487e-08 0)
(-6.32281 -7.21371e-08 0)
(-6.32247 -7.07896e-08 0)
(-6.32214 -6.94274e-08 0)
(-6.32181 -6.8027e-08 0)
(-6.32149 -6.65344e-08 0)
(-6.32118 -6.49029e-08 0)
(-6.32088 -6.27809e-08 0)
(-6.32058 -6.08683e-08 0)
(-6.32029 -5.33814e-08 0)
(-6.32007 -5.51902e-08 0)
(-6.31976 -5.98419e-08 0)
(-6.31952 -4.40745e-08 0)
(-6.31939 -1.54274e-08 0)
(-6.31942 -5.24822e-10 0)
(-6.31942 -7.06088e-09 0)
(-6.31938 -1.70044e-08 0)
(-6.31929 -2.68005e-08 0)
(-6.31915 -3.55149e-08 0)
(-6.31897 -4.29914e-08 0)
(-6.31875 -4.92998e-08 0)
(-6.31851 -5.45954e-08 0)
(-6.31823 -5.90485e-08 0)
(-6.31793 -6.28076e-08 0)
(-6.31761 -6.59878e-08 0)
(-6.31727 -6.86778e-08 0)
(-6.31691 -7.09472e-08 0)
(-6.31654 -7.28527e-08 0)
(-6.31616 -7.4441e-08 0)
(-6.31576 -7.5751e-08 0)
(-6.31535 -7.68156e-08 0)
(-6.31493 -7.76627e-08 0)
(-6.31451 -7.83164e-08 0)
(-6.31407 -7.87974e-08 0)
(-6.31363 -7.91242e-08 0)
(-6.31318 -7.93125e-08 0)
(-6.31273 -7.93766e-08 0)
(-6.31227 -7.93289e-08 0)
(-6.31181 -7.91805e-08 0)
(-6.31134 -7.89414e-08 0)
(-6.31087 -7.86203e-08 0)
(-6.3104 -7.82254e-08 0)
(-6.30992 -7.77637e-08 0)
(-6.30944 -7.72419e-08 0)
(-6.30897 -7.6666e-08 0)
(-6.30848 -7.60413e-08 0)
(-6.308 -7.53729e-08 0)
(-6.30752 -7.46654e-08 0)
(-6.30704 -7.39228e-08 0)
(-6.30655 -7.31491e-08 0)
(-6.30607 -7.23474e-08 0)
(-6.30558 -7.15212e-08 0)
(-6.3051 -7.06732e-08 0)
(-6.30462 -6.98061e-08 0)
(-6.30414 -6.89225e-08 0)
(-6.30366 -6.80247e-08 0)
(-6.30318 -6.71147e-08 0)
(-6.3027 -6.61947e-08 0)
(-6.30223 -6.52662e-08 0)
(-6.30175 -6.43312e-08 0)
(-6.30128 -6.3391e-08 0)
(-6.30081 -6.24471e-08 0)
(-6.30034 -6.15009e-08 0)
(-6.29987 -6.05534e-08 0)
(-6.29941 -5.96059e-08 0)
(-6.29895 -5.86594e-08 0)
(-6.29849 -5.77149e-08 0)
(-6.29803 -5.67732e-08 0)
(-6.29758 -5.58351e-08 0)
(-6.29713 -5.49015e-08 0)
(-6.29668 -5.3973e-08 0)
(-6.29623 -5.30502e-08 0)
(-6.29579 -5.21337e-08 0)
(-6.29535 -5.1224e-08 0)
(-6.29492 -5.03217e-08 0)
(-6.29448 -4.94272e-08 0)
(-6.29405 -4.85409e-08 0)
(-6.29362 -4.76631e-08 0)
(-6.2932 -4.67943e-08 0)
(-6.29278 -4.59347e-08 0)
(-6.29236 -4.50846e-08 0)
(-6.29195 -4.42443e-08 0)
(-6.29154 -4.34139e-08 0)
(-6.29113 -4.25936e-08 0)
(-6.29073 -4.17836e-08 0)
(-6.29033 -4.09841e-08 0)
(-6.28993 -4.01952e-08 0)
(-6.28954 -3.94169e-08 0)
(-6.28915 -3.86494e-08 0)
(-6.28876 -3.78927e-08 0)
(-6.28838 -3.7147e-08 0)
(-6.288 -3.64122e-08 0)
(-6.28762 -3.56884e-08 0)
(-6.28725 -3.49755e-08 0)
(-6.28688 -3.42737e-08 0)
(-6.28652 -3.35829e-08 0)
(-6.28616 -3.2903e-08 0)
(-6.2858 -3.22341e-08 0)
(-6.28544 -3.1576e-08 0)
(-6.28509 -3.09289e-08 0)
(-6.28474 -3.02925e-08 0)
(-6.2844 -2.96669e-08 0)
(-6.28406 -2.9052e-08 0)
(-6.28372 -2.84477e-08 0)
(-6.28339 -2.7854e-08 0)
(-6.28306 -2.72707e-08 0)
(-6.28273 -2.66977e-08 0)
(-6.28241 -2.6135e-08 0)
(-6.28209 -2.55825e-08 0)
(-6.28177 -2.504e-08 0)
(-6.28146 -2.45075e-08 0)
(-6.28115 -2.39848e-08 0)
(-6.28084 -2.34719e-08 0)
(-6.28054 -2.29686e-08 0)
(-6.28024 -2.24748e-08 0)
(-6.27994 -2.19904e-08 0)
(-6.27965 -2.15153e-08 0)
(-6.27936 -2.10494e-08 0)
(-6.27907 -2.05924e-08 0)
(-6.27879 -2.01444e-08 0)
(-6.27851 -1.97052e-08 0)
(-6.27823 -1.92746e-08 0)
(-6.27796 -1.88526e-08 0)
(-6.27768 -1.8439e-08 0)
(-6.27742 -1.80337e-08 0)
(-6.27715 -1.76365e-08 0)
(-6.27689 -1.72474e-08 0)
(-6.27663 -1.68661e-08 0)
(-6.27637 -1.64927e-08 0)
(-6.27612 -1.61269e-08 0)
(-6.27587 -1.57686e-08 0)
(-6.27562 -1.54177e-08 0)
(-6.27538 -1.50741e-08 0)
(-6.27514 -1.47376e-08 0)
(-6.2749 -1.44082e-08 0)
(-6.27466 -1.40857e-08 0)
(-6.27443 -1.377e-08 0)
(-6.2742 -1.34609e-08 0)
(-6.27397 -1.31584e-08 0)
(-6.27375 -1.28624e-08 0)
(-6.27352 -1.25726e-08 0)
(-6.2733 -1.22891e-08 0)
(-6.27309 -1.20116e-08 0)
(-6.27287 -1.17401e-08 0)
(-6.27266 -1.14745e-08 0)
(-6.27245 -1.12146e-08 0)
(-6.27225 -1.09603e-08 0)
(-6.27204 -1.07117e-08 0)
(-6.27184 -1.04684e-08 0)
(-6.27164 -1.02305e-08 0)
(-6.27144 -9.99772e-09 0)
(-6.27125 -9.7701e-09 0)
(-6.27106 -9.54748e-09 0)
(-6.27087 -9.32978e-09 0)
(-6.27068 -9.11687e-09 0)
(-6.27049 -8.9087e-09 0)
(-6.27031 -8.70515e-09 0)
(-6.27013 -8.50614e-09 0)
(-6.26995 -8.31159e-09 0)
(-6.26978 -8.12137e-09 0)
(-6.2696 -7.93543e-09 0)
(-6.26943 -7.75364e-09 0)
(-6.26926 -7.57594e-09 0)
(-6.26909 -7.40223e-09 0)
(-6.26893 -7.23244e-09 0)
(-6.26876 -7.06649e-09 0)
(-6.2686 -6.90429e-09 0)
(-6.26844 -6.74577e-09 0)
(-6.26828 -6.59087e-09 0)
(-6.26813 -6.43948e-09 0)
(-6.26797 -6.29155e-09 0)
(-6.26782 -6.14699e-09 0)
(-6.26767 -6.00575e-09 0)
(-6.26752 -5.86775e-09 0)
(-6.26738 -5.73293e-09 0)
(-6.26723 -5.60123e-09 0)
(-6.26709 -5.47261e-09 0)
(-6.26695 -5.347e-09 0)
(-6.26681 -5.22436e-09 0)
(-6.26667 -5.10464e-09 0)
(-6.26653 -4.98783e-09 0)
(-6.2664 -4.87392e-09 0)
(-6.26627 -4.76294e-09 0)
(-6.26614 -4.65495e-09 0)
(-6.26601 -4.55016e-09 0)
(-6.26588 -4.44885e-09 0)
(-6.26575 -4.35197e-09 0)
(-6.26563 -4.26027e-09 0)
(-6.2655 -4.18119e-09 0)
(-6.26538 -4.10544e-09 0)
(-6.26526 -4.21068e-09 0)
(-6.26512 -3.63323e-09 0)
(-6.26504 -8.02091e-09 0)
(-6.26457 -1.21168e-08 0)
(-6.26414 -9.5584e-09 0)
(-6.26383 -6.78239e-09 0)
(-6.26362 -4.78774e-09 0)
(-6.26346 -3.58661e-09 0)
(-6.26335 -2.85244e-09 0)
(-6.26325 -2.35979e-09 0)
(-6.26317 -1.99784e-09 0)
(-6.2631 -1.71829e-09 0)
(-6.26304 -1.49712e-09 0)
(-6.26299 -1.31878e-09 0)
(-6.26295 -1.1722e-09 0)
(-6.2629 -1.04968e-09 0)
(-6.26287 -9.45945e-10 0)
(-6.26284 -8.57175e-10 0)
(-6.26281 -7.80511e-10 0)
(-6.26278 -7.13749e-10 0)
(-6.26275 -6.55181e-10 0)
(-6.26273 -6.03461e-10 0)
(-6.26271 -5.57524e-10 0)
(-6.26269 -5.16514e-10 0)
(-6.26267 -4.79733e-10 0)
(-6.26266 -4.46596e-10 0)
(-6.26264 -4.16628e-10 0)
(-6.26263 -3.8943e-10 0)
(-6.26261 -3.64669e-10 0)
(-6.2626 -3.42052e-10 0)
(-6.26259 -3.21338e-10 0)
(-6.26258 -3.02319e-10 0)
(-6.26257 -2.84818e-10 0)
(-6.26256 -2.68672e-10 0)
(-6.26255 -2.53745e-10 0)
(-6.26254 -2.39922e-10 0)
(-6.26253 -2.27099e-10 0)
(-6.26252 -2.15179e-10 0)
(-6.26252 -2.04081e-10 0)
(-6.26251 -1.93734e-10 0)
(-6.2625 -1.84075e-10 0)
(-6.2625 -1.75046e-10 0)
(-6.26249 -1.66593e-10 0)
(-6.26248 -1.58667e-10 0)
(-6.26248 -1.51232e-10 0)
(-6.26247 -1.44249e-10 0)
(-6.26247 -1.37683e-10 0)
(-6.26246 -1.31499e-10 0)
(-6.26246 -1.25675e-10 0)
(-6.26246 -1.20185e-10 0)
(-6.26245 -1.15003e-10 0)
(-6.26245 -1.10105e-10 0)
(-6.26244 -1.05478e-10 0)
(-6.26244 -1.01103e-10 0)
(-6.26244 -9.69605e-11 0)
(-6.26243 -9.30336e-11 0)
(-6.26243 -8.9314e-11 0)
(-6.26243 -8.57886e-11 0)
(-6.26242 -8.24423e-11 0)
(-6.26242 -7.92625e-11 0)
(-6.26242 -7.62447e-11 0)
(-6.26242 -7.3379e-11 0)
(-6.26241 -7.06538e-11 0)
(-6.26241 -6.80593e-11 0)
(-6.26241 -6.55936e-11 0)
(-6.26241 -6.32496e-11 0)
(-6.2624 -6.10175e-11 0)
(-6.2624 -5.88902e-11 0)
(-6.2624 -5.68677e-11 0)
(-6.2624 -5.49424e-11 0)
(-6.2624 -5.31126e-11 0)
(-6.2624 -5.13697e-11 0)
(-6.26239 -4.97097e-11 0)
(-6.26239 -4.81337e-11 0)
(-6.26239 -4.66389e-11 0)
(-6.26239 -4.52198e-11 0)
(-6.26239 -4.38719e-11 0)
(-6.26239 -4.26007e-11 0)
(-6.26238 -4.14034e-11 0)
(-6.26238 -4.02789e-11 0)
(-6.26238 -3.92257e-11 0)
(-6.26238 -3.82515e-11 0)
(-6.26238 -3.73634e-11 0)
(-6.26238 -3.65583e-11 0)
(-6.26238 -3.58585e-11 0)
(-6.26237 -3.52656e-11 0)
(-6.26237 -3.48427e-11 0)
(-6.26237 -3.45716e-11 0)
(-6.26237 -3.46618e-11 0)
(-6.26237 -3.49221e-11 0)
(-6.26237 -3.67106e-11 0)
(-6.26237 -3.69743e-11 0)
(-6.26237 -5.09341e-11 0)
(-6.26236 -3.04447e-11 0)
(-6.26236 -2.11631e-10 0)
(-6.26235 3.10034e-10 0)
(-6.26239 1.40699e-10 0)
(-6.26235 -5.3707e-10 0)
)
;
    }
    symmetry
    {
        type            symmetryPlane;
    }
    frontAndBack
    {
        type            empty;
    }
}


// ************************************************************************* //
