/*--------------------------------*- C++ -*----------------------------------*\
| =========                 |                                                 |
| \\      /  F ield         | OpenFOAM: The Open Source CFD Toolbox           |
|  \\    /   O peration     | Version:  v2012                                 |
|   \\  /    A nd           | Website:  www.openfoam.com                      |
|    \\/     M anipulation  |                                                 |
\*---------------------------------------------------------------------------*/
FoamFile
{
    version     2.0;
    format      ascii;
    class       volScalarField;
    location    "4.5";
    object      yPlus;
}
// * * * * * * * * * * * * * * * * * * * * * * * * * * * * * * * * * * * * * //

dimensions      [0 0 0 0 0 0 0];


internalField   uniform 0;

boundaryField
{
    inlet
    {
        type            calculated;
        value           uniform 0;
    }
    outlet
    {
        type            calculated;
        value           uniform 0;
    }
    topWall
    {
        type            calculated;
        value           nonuniform List<scalar> 
545
(
0.0478022
0.0829726
0.106319
0.124834
0.140487
0.154164
0.16636
0.177387
0.187457
0.196721
0.205296
0.21327
0.220713
0.227684
0.23423
0.240392
0.246203
0.251694
0.25689
0.261814
0.266486
0.270923
0.275142
0.279157
0.282981
0.286626
0.290104
0.293423
0.296593
0.299623
0.302519
0.305291
0.307943
0.310483
0.312916
0.315248
0.317484
0.319628
0.321685
0.323659
0.325554
0.327374
0.329122
0.330802
0.332416
0.333968
0.33546
0.336896
0.338277
0.339605
0.340884
0.342115
0.3433
0.344442
0.345541
0.3466
0.34762
0.348603
0.34955
0.350463
0.351344
0.352192
0.353011
0.3538
0.354561
0.355295
0.356003
0.356687
0.357346
0.357982
0.358595
0.359188
0.359751
0.360293
0.360829
0.36136
0.361884
0.362403
0.362915
0.363422
0.363923
0.364418
0.364908
0.365393
0.365871
0.366345
0.366813
0.367276
0.367733
0.368185
0.368633
0.369075
0.369512
0.369944
0.370371
0.370796
0.371166
0.371495
0.371823
0.372151
0.372477
0.372802
0.373127
0.37345
0.373773
0.374095
0.374416
0.374736
0.375055
0.375373
0.37569
0.376007
0.376322
0.376636
0.37695
0.377262
0.377573
0.377884
0.378193
0.378501
0.378809
0.379115
0.379421
0.379725
0.380028
0.38033
0.380631
0.380931
0.38123
0.381528
0.381825
0.382121
0.382416
0.382709
0.383002
0.383293
0.383583
0.383872
0.38416
0.384447
0.384732
0.385017
0.3853
0.385582
0.385863
0.386143
0.386421
0.386698
0.386974
0.387249
0.387523
0.387795
0.388066
0.388336
0.388604
0.388872
0.389137
0.389402
0.389665
0.389928
0.390188
0.390448
0.390706
0.390962
0.391218
0.391472
0.391724
0.391976
0.392225
0.392474
0.392721
0.392967
0.393211
0.393454
0.393695
0.393935
0.394174
0.394411
0.394646
0.39488
0.395113
0.395344
0.395573
0.395802
0.396028
0.396253
0.396477
0.396699
0.396919
0.397138
0.397355
0.397571
0.397785
0.397997
0.398208
0.398417
0.398625
0.398831
0.399035
0.399238
0.399439
0.399638
0.399836
0.400032
0.400226
0.400419
0.40061
0.400799
0.400986
0.401172
0.401356
0.401538
0.401718
0.401897
0.402074
0.402249
0.402422
0.402594
0.402763
0.402931
0.403097
0.403261
0.403423
0.403583
0.403742
0.403898
0.404053
0.404206
0.404357
0.404506
0.404653
0.404798
0.404941
0.405082
0.405221
0.405358
0.405493
0.405627
0.405758
0.405887
0.406014
0.406139
0.406262
0.406383
0.406502
0.406619
0.406734
0.406847
0.406957
0.407066
0.407172
0.407277
0.407379
0.407479
0.407577
0.407672
0.407766
0.407857
0.407946
0.408033
0.408118
0.408201
0.408281
0.408359
0.408435
0.408509
0.40858
0.408649
0.408717
0.408772
0.408822
0.40887
0.408917
0.408963
0.409008
0.409052
0.409095
0.409137
0.409177
0.409216
0.409254
0.409291
0.409325
0.409359
0.409391
0.409421
0.409449
0.409476
0.4095
0.409523
0.409544
0.409563
0.40958
0.409594
0.409606
0.409616
0.409623
0.409628
0.40963
0.40963
0.409627
0.409621
0.409612
0.409599
0.409584
0.409566
0.409544
0.409519
0.40949
0.409458
0.409422
0.409383
0.409339
0.409291
0.40924
0.409184
0.409123
0.409058
0.408989
0.408915
0.408836
0.408752
0.408663
0.408569
0.40847
0.408365
0.408254
0.408138
0.408016
0.407889
0.407755
0.407614
0.407468
0.407315
0.407155
0.406988
0.406815
0.406634
0.406446
0.406251
0.406048
0.405837
0.405619
0.405392
0.405158
0.404915
0.404663
0.404403
0.404134
0.403856
0.403569
0.403272
0.402966
0.40265
0.402325
0.401989
0.401643
0.401287
0.400921
0.400543
0.400155
0.399756
0.399345
0.398923
0.39849
0.398044
0.397587
0.397118
0.396636
0.396142
0.395635
0.395116
0.394584
0.394038
0.393479
0.392907
0.392321
0.391721
0.391108
0.39048
0.389838
0.389181
0.38851
0.387824
0.387124
0.386408
0.385677
0.384931
0.384169
0.383392
0.3826
0.381791
0.380966
0.380126
0.379269
0.378396
0.377507
0.376601
0.375679
0.37474
0.373785
0.372813
0.371824
0.370818
0.369795
0.368755
0.367699
0.366625
0.365534
0.364427
0.363302
0.36216
0.361001
0.359825
0.358633
0.357423
0.356197
0.354953
0.353693
0.352416
0.351123
0.349813
0.348487
0.347145
0.345787
0.344412
0.343022
0.341616
0.340195
0.338758
0.337307
0.33584
0.334359
0.332863
0.331353
0.329829
0.328292
0.326741
0.325177
0.3236
0.32201
0.320408
0.318795
0.31717
0.315533
0.313886
0.312228
0.31056
0.308883
0.307195
0.305314
0.303257
0.301216
0.299192
0.297184
0.295192
0.293218
0.29126
0.28932
0.287398
0.285494
0.283608
0.281741
0.279893
0.278065
0.276256
0.274466
0.272696
0.270946
0.269216
0.267506
0.265816
0.264147
0.262498
0.26087
0.259262
0.257675
0.256109
0.254564
0.25304
0.251536
0.250054
0.248592
0.247152
0.245733
0.244334
0.242957
0.241601
0.240266
0.238953
0.23766
0.236389
0.235139
0.23391
0.232703
0.231517
0.230352
0.229208
0.228086
0.226986
0.225906
0.224849
0.223812
0.222798
0.221804
0.220833
0.219883
0.218954
0.218048
0.217163
0.2163
0.215459
0.21464
0.213843
0.213068
0.212315
0.211584
0.210875
0.210189
0.209525
0.208883
0.208264
0.207667
0.207093
0.206542
0.206013
0.205507
0.205024
0.204564
0.204127
0.203713
0.203323
0.202955
0.20261
0.202289
0.201991
0.201716
0.201465
0.201237
0.201034
0.200854
0.200699
0.200564
0.200469
0.200332
)
;
    }
    bottomWall
    {
        type            calculated;
        value           nonuniform List<scalar> 
449
(
0.139833
0.0892289
0.0761879
0.0700808
0.0663081
0.0636983
0.0617769
0.060304
0.0591365
0.0581849
0.0573928
0.0567232
0.0561504
0.0556554
0.0552239
0.0548448
0.0545096
0.0542114
0.0539446
0.0537047
0.0534882
0.0532919
0.0531133
0.0529502
0.0528009
0.0526637
0.0525374
0.0524208
0.0523129
0.0522129
0.0521199
0.0520333
0.0519526
0.0518772
0.0518066
0.0517404
0.0516783
0.0516199
0.051565
0.0515133
0.0514644
0.0514183
0.0513747
0.0513335
0.0512944
0.0512573
0.0512221
0.0511886
0.0511569
0.0511266
0.0510978
0.0510703
0.0510441
0.0510191
0.0509952
0.0509724
0.0509505
0.0509296
0.0509096
0.0508904
0.050872
0.0508544
0.0508375
0.0508212
0.0508056
0.0507906
0.0507761
0.0507622
0.0507488
0.0507359
0.0507235
0.0507115
0.0507
0.0506888
0.0506781
0.0506677
0.0506577
0.050648
0.0506386
0.0506296
0.0506208
0.0506123
0.0506041
0.0505961
0.0505884
0.050581
0.0505737
0.0505667
0.0505599
0.0505533
0.0505469
0.0505407
0.0505346
0.0505288
0.0505231
0.0505175
0.0505121
0.0505069
0.0505018
0.0504968
0.050492
0.0504873
0.0504827
0.0504782
0.0504739
0.0504697
0.0504655
0.0504615
0.0504576
0.0504537
0.05045
0.0504464
0.0504428
0.0504393
0.0504359
0.0504326
0.0504294
0.0504262
0.0504231
0.0504201
0.0504171
0.0504142
0.0504114
0.0504086
0.0504059
0.0504033
0.0504007
0.0503981
0.0503956
0.0503932
0.0503908
0.0503884
0.0503861
0.0503839
0.0503817
0.0503795
0.0503774
0.0503753
0.0503733
0.0503712
0.0503693
0.0503673
0.0503654
0.0503636
0.0503617
0.0503599
0.0503582
0.0503564
0.0503547
0.050353
0.0503514
0.0503497
0.0503481
0.0503466
0.050345
0.0503435
0.050342
0.0503405
0.0503391
0.0503376
0.0503362
0.0503349
0.0503335
0.0503321
0.0503308
0.0503295
0.0503283
0.050327
0.0503258
0.0503246
0.0503235
0.0503226
0.0503214
0.0503204
0.0503199
0.05032
0.05032
0.0503198
0.0503195
0.0503189
0.0503182
0.0503173
0.0503164
0.0503153
0.0503141
0.0503128
0.0503114
0.05031
0.0503085
0.050307
0.0503054
0.0503038
0.0503021
0.0503004
0.0502987
0.0502969
0.0502952
0.0502934
0.0502915
0.0502897
0.0502878
0.050286
0.0502841
0.0502822
0.0502803
0.0502784
0.0502764
0.0502745
0.0502726
0.0502707
0.0502687
0.0502668
0.0502649
0.050263
0.050261
0.0502591
0.0502572
0.0502553
0.0502534
0.0502515
0.0502496
0.0502477
0.0502458
0.050244
0.0502421
0.0502403
0.0502384
0.0502366
0.0502348
0.050233
0.0502312
0.0502294
0.0502276
0.0502258
0.0502241
0.0502223
0.0502206
0.0502189
0.0502172
0.0502155
0.0502138
0.0502122
0.0502105
0.0502089
0.0502073
0.0502056
0.050204
0.0502025
0.0502009
0.0501993
0.0501978
0.0501963
0.0501948
0.0501933
0.0501918
0.0501903
0.0501888
0.0501874
0.050186
0.0501845
0.0501831
0.0501818
0.0501804
0.050179
0.0501777
0.0501763
0.050175
0.0501737
0.0501724
0.0501711
0.0501699
0.0501686
0.0501674
0.0501662
0.050165
0.0501638
0.0501626
0.0501614
0.0501602
0.0501591
0.050158
0.0501568
0.0501557
0.0501546
0.0501536
0.0501525
0.0501514
0.0501504
0.0501493
0.0501483
0.0501473
0.0501463
0.0501453
0.0501443
0.0501434
0.0501424
0.0501415
0.0501406
0.0501396
0.0501387
0.0501378
0.0501369
0.0501361
0.0501352
0.0501343
0.0501335
0.0501327
0.0501318
0.050131
0.0501302
0.0501294
0.0501286
0.0501278
0.0501271
0.0501263
0.0501256
0.0501248
0.0501241
0.0501234
0.0501227
0.050122
0.0501213
0.0501206
0.0501199
0.0501192
0.0501186
0.0501179
0.0501173
0.0501166
0.050116
0.0501154
0.0501148
0.0501141
0.0501135
0.050113
0.0501124
0.0501118
0.0501112
0.0501107
0.0501101
0.0501095
0.050109
0.0501085
0.0501079
0.0501074
0.0501069
0.0501064
0.0501059
0.0501054
0.0501049
0.0501044
0.0501039
0.0501034
0.050103
0.0501011
0.0500994
0.0500982
0.0500973
0.0500967
0.0500963
0.0500959
0.0500955
0.0500953
0.050095
0.0500948
0.0500946
0.0500945
0.0500943
0.0500942
0.0500941
0.050094
0.0500939
0.0500938
0.0500937
0.0500936
0.0500936
0.0500935
0.0500934
0.0500934
0.0500933
0.0500933
0.0500932
0.0500932
0.0500931
0.0500931
0.0500931
0.050093
0.050093
0.050093
0.0500929
0.0500929
0.0500929
0.0500929
0.0500928
0.0500928
0.0500928
0.0500928
0.0500927
0.0500927
0.0500927
0.0500927
0.0500927
0.0500927
0.0500926
0.0500926
0.0500926
0.0500926
0.0500926
0.0500926
0.0500926
0.0500926
0.0500925
0.0500925
0.0500925
0.0500925
0.0500925
0.0500925
0.0500925
0.0500925
0.0500925
0.0500925
0.0500925
0.0500924
0.0500924
0.0500924
0.0500924
0.0500924
0.0500924
0.0500924
0.0500924
0.0500924
0.0500924
0.0500924
0.0500924
0.0500924
0.0500924
0.0500924
0.0500924
0.0500924
0.0500924
0.0500923
0.0500923
0.0500923
0.0500923
0.0500923
0.0500923
0.0500923
0.0500924
0.0500923
)
;
    }
    symmetry
    {
        type            symmetryPlane;
    }
    frontAndBack
    {
        type            empty;
    }
}


// ************************************************************************* //
