/*--------------------------------*- C++ -*----------------------------------*\
| =========                 |                                                 |
| \\      /  F ield         | OpenFOAM: The Open Source CFD Toolbox           |
|  \\    /   O peration     | Version:  v2012                                 |
|   \\  /    A nd           | Website:  www.openfoam.com                      |
|    \\/     M anipulation  |                                                 |
\*---------------------------------------------------------------------------*/
FoamFile
{
    version     2.0;
    format      ascii;
    class       volScalarField;
    location    "48";
    object      k;
}
// * * * * * * * * * * * * * * * * * * * * * * * * * * * * * * * * * * * * * //

dimensions      [0 2 -2 0 0 0 0];


internalField   nonuniform List<scalar> 
209825
(
0.00102408
0.000932004
0.000855824
0.000792983
0.000741782
0.000700289
0.000666735
0.000639398
0.000617007
0.000598434
0.000582935
0.00056983
0.0005587
0.00054913
0.000540878
0.000533685
0.0005274
0.000521862
0.000516966
0.000512615
0.000508727
0.000505249
0.00050211
0.000499291
0.00049672
0.000494406
0.000492275
0.000490355
0.000488568
0.000486959
0.000485447
0.00048409
0.000482799
0.000481645
0.000480536
0.000479551
0.00047859
0.000477743
0.000476906
0.000476175
0.000475445
0.00047481
0.000474169
0.00047362
0.000473055
0.000472575
0.000472077
0.000471659
0.000471217
0.000470852
0.000470458
0.000470137
0.000469785
0.000469511
0.000469193
0.000468957
0.000468674
0.000468467
0.000468217
0.000468034
0.000467814
0.00046765
0.000467457
0.000467312
0.000467137
0.000467018
0.000466859
0.000466749
0.000466602
0.000466509
0.000466384
0.000466309
0.000466207
0.000466146
0.000466052
0.000465993
0.000465903
0.000465849
0.000465767
0.000465721
0.000465649
0.000465612
0.000465551
0.000465522
0.000465473
0.000465452
0.000465404
0.000465401
0.000465393
0.000465404
0.000465397
0.000465443
0.000465615
0.000473175
0.000497421
0.00120804
0.00102408
0.000932004
0.000855824
0.000792983
0.000741782
0.000700287
0.000666732
0.000639395
0.000617003
0.00059843
0.000582929
0.000569824
0.000558693
0.000549123
0.00054087
0.000533677
0.000527392
0.000521853
0.000516957
0.000512605
0.000508717
0.000505239
0.0005021
0.000499281
0.000496709
0.000494395
0.000492264
0.000490343
0.000488557
0.000486947
0.000485436
0.000484078
0.000482787
0.000481633
0.000480524
0.000479538
0.000478578
0.00047773
0.000476894
0.000476162
0.000475433
0.000474797
0.000474157
0.000473607
0.000473042
0.000472562
0.000472064
0.000471646
0.000471204
0.000470839
0.000470445
0.000470124
0.000469771
0.000469498
0.00046918
0.000468943
0.000468661
0.000468453
0.000468203
0.000468021
0.000467801
0.000467636
0.000467444
0.000467298
0.000467124
0.000467004
0.000466846
0.000466735
0.000466589
0.000466496
0.000466371
0.000466296
0.000466193
0.000466132
0.000466038
0.000465979
0.000465889
0.000465835
0.000465754
0.000465707
0.000465636
0.000465598
0.000465537
0.000465509
0.000465459
0.000465438
0.00046539
0.000465387
0.00046538
0.00046539
0.000465383
0.00046543
0.000465602
0.000473175
0.000497414
0.00120872
0.00102408
0.000932004
0.000855825
0.000792983
0.000741779
0.000700281
0.000666723
0.000639382
0.000616986
0.000598409
0.000582906
0.000569798
0.000558665
0.000549093
0.000540838
0.000533643
0.000527356
0.000521816
0.000516919
0.000512566
0.000508677
0.000505198
0.000502058
0.000499238
0.000496666
0.000494351
0.000492219
0.000490298
0.000488511
0.000486901
0.000485389
0.000484031
0.00048274
0.000481585
0.000480476
0.00047949
0.00047853
0.000477681
0.000476845
0.000476113
0.000475383
0.000474747
0.000474107
0.000473557
0.000472992
0.000472512
0.000472013
0.000471595
0.000471153
0.000470787
0.000470393
0.000470072
0.00046972
0.000469446
0.000469128
0.000468891
0.000468609
0.000468401
0.000468151
0.000467968
0.000467748
0.000467584
0.000467391
0.000467245
0.000467071
0.000466952
0.000466793
0.000466682
0.000466536
0.000466442
0.000466317
0.000466243
0.00046614
0.000466079
0.000465985
0.000465926
0.000465835
0.000465782
0.0004657
0.000465654
0.000465582
0.000465544
0.000465483
0.000465455
0.000465405
0.000465384
0.000465336
0.000465333
0.000465325
0.000465336
0.000465328
0.000465375
0.000465548
0.000473149
0.000497373
0.00121009
0.00102408
0.000932005
0.000855826
0.000792982
0.000741775
0.000700271
0.000666706
0.000639359
0.000616957
0.000598375
0.000582867
0.000569754
0.000558617
0.000549041
0.000540784
0.000533586
0.000527296
0.000521754
0.000516855
0.0005125
0.000508609
0.000505129
0.000501988
0.000499166
0.000496593
0.000494277
0.000492144
0.000490222
0.000488434
0.000486824
0.000485311
0.000483952
0.00048266
0.000481505
0.000480395
0.000479409
0.000478448
0.000477599
0.000476762
0.00047603
0.0004753
0.000474663
0.000474023
0.000473473
0.000472907
0.000472427
0.000471928
0.000471509
0.000471067
0.000470701
0.000470307
0.000469986
0.000469633
0.000469359
0.000469041
0.000468804
0.000468521
0.000468313
0.000468063
0.00046788
0.00046766
0.000467495
0.000467303
0.000467157
0.000466982
0.000466863
0.000466704
0.000466593
0.000466446
0.000466353
0.000466228
0.000466153
0.00046605
0.000465989
0.000465895
0.000465836
0.000465746
0.000465692
0.00046561
0.000465563
0.000465491
0.000465454
0.000465393
0.000465364
0.000465314
0.000465293
0.000465245
0.000465242
0.000465234
0.000465244
0.000465236
0.000465283
0.000465457
0.000473101
0.000497301
0.00121179
0.00102408
0.000932006
0.000855828
0.000792982
0.000741768
0.000700257
0.000666683
0.000639327
0.000616917
0.000598327
0.000582812
0.000569693
0.00055855
0.000548969
0.000540707
0.000533505
0.000527212
0.000521667
0.000516765
0.000512407
0.000508514
0.000505031
0.000501888
0.000499065
0.00049649
0.000494172
0.000492038
0.000490115
0.000488326
0.000486714
0.0004852
0.000483841
0.000482548
0.000481392
0.000480281
0.000479294
0.000478332
0.000477483
0.000476646
0.000475913
0.000475182
0.000474545
0.000473904
0.000473353
0.000472787
0.000472307
0.000471807
0.000471389
0.000470946
0.00047058
0.000470185
0.000469864
0.000469511
0.000469236
0.000468918
0.000468681
0.000468398
0.00046819
0.000467939
0.000467756
0.000467536
0.000467371
0.000467178
0.000467032
0.000466857
0.000466737
0.000466578
0.000466468
0.000466321
0.000466227
0.000466102
0.000466027
0.000465924
0.000465863
0.000465768
0.000465709
0.000465619
0.000465565
0.000465483
0.000465436
0.000465364
0.000465326
0.000465265
0.000465236
0.000465186
0.000465165
0.000465117
0.000465114
0.000465105
0.000465115
0.000465107
0.000465154
0.000465329
0.000473033
0.000497199
0.00121371
0.00102408
0.000932007
0.000855831
0.000792981
0.00074176
0.000700238
0.000666653
0.000639285
0.000616864
0.000598264
0.00058274
0.000569613
0.000558463
0.000548875
0.000540608
0.000533401
0.000527103
0.000521553
0.000516647
0.000512287
0.00050839
0.000504905
0.000501759
0.000498934
0.000496357
0.000494037
0.000491901
0.000489976
0.000488186
0.000486572
0.000485057
0.000483697
0.000482402
0.000481245
0.000480133
0.000479145
0.000478183
0.000477333
0.000476494
0.000475761
0.000475029
0.000474392
0.00047375
0.000473199
0.000472632
0.000472151
0.000471651
0.000471232
0.000470789
0.000470422
0.000470027
0.000469705
0.000469352
0.000469077
0.000468758
0.000468521
0.000468238
0.000468029
0.000467779
0.000467595
0.000467375
0.000467209
0.000467016
0.00046687
0.000466695
0.000466575
0.000466416
0.000466305
0.000466158
0.000466064
0.000465939
0.000465863
0.00046576
0.000465699
0.000465604
0.000465545
0.000465454
0.0004654
0.000465318
0.000465271
0.000465199
0.000465161
0.000465099
0.00046507
0.000465021
0.000464999
0.000464951
0.000464947
0.000464938
0.000464948
0.000464939
0.000464986
0.000465162
0.000472944
0.000497067
0.00121579
0.00102408
0.000932009
0.000855834
0.00079298
0.00074175
0.000700216
0.000666616
0.000639234
0.000616799
0.000598187
0.000582651
0.000569514
0.000558355
0.00054876
0.000540485
0.000533272
0.000526968
0.000521414
0.000516503
0.000512138
0.000508238
0.000504749
0.0005016
0.000498772
0.000496192
0.00049387
0.000491732
0.000489805
0.000488013
0.000486397
0.000484881
0.000483519
0.000482223
0.000481065
0.000479951
0.000478962
0.000477999
0.000477147
0.000476308
0.000475574
0.000474841
0.000474203
0.00047356
0.000473009
0.000472441
0.000471959
0.000471459
0.000471039
0.000470595
0.000470228
0.000469832
0.00046951
0.000469156
0.000468881
0.000468562
0.000468324
0.000468041
0.000467832
0.00046758
0.000467397
0.000467176
0.00046701
0.000466817
0.00046667
0.000466494
0.000466375
0.000466215
0.000466104
0.000465957
0.000465863
0.000465737
0.000465662
0.000465558
0.000465497
0.000465402
0.000465342
0.000465251
0.000465197
0.000465115
0.000465068
0.000464995
0.000464957
0.000464895
0.000464866
0.000464816
0.000464794
0.000464746
0.000464742
0.000464732
0.000464742
0.000464732
0.000464779
0.000464957
0.000472836
0.000496905
0.00121795
0.00102408
0.000932011
0.000855837
0.000792979
0.000741738
0.000700189
0.000666572
0.000639173
0.000616722
0.000598095
0.000582546
0.000569397
0.000558227
0.000548623
0.000540339
0.000533118
0.000526808
0.000521247
0.000516331
0.000511961
0.000508056
0.000504563
0.000501411
0.000498579
0.000495996
0.000493671
0.00049153
0.000489601
0.000487806
0.000486189
0.00048467
0.000483306
0.000482009
0.000480849
0.000479734
0.000478744
0.000477779
0.000476926
0.000476086
0.00047535
0.000474617
0.000473978
0.000473334
0.000472781
0.000472213
0.000471731
0.000471229
0.000470809
0.000470365
0.000469997
0.0004696
0.000469278
0.000468923
0.000468647
0.000468327
0.000468089
0.000467805
0.000467596
0.000467344
0.00046716
0.000466939
0.000466773
0.000466579
0.000466432
0.000466256
0.000466136
0.000465976
0.000465865
0.000465717
0.000465623
0.000465497
0.000465421
0.000465317
0.000465255
0.00046516
0.000465101
0.000465009
0.000464955
0.000464872
0.000464825
0.000464752
0.000464714
0.000464652
0.000464622
0.000464572
0.00046455
0.000464502
0.000464497
0.000464487
0.000464496
0.000464485
0.000464532
0.000464713
0.000472709
0.000496713
0.00122003
0.00102408
0.000932013
0.000855841
0.000792978
0.000741725
0.000700157
0.000666521
0.000639102
0.000616633
0.000597988
0.000582424
0.000569261
0.000558079
0.000548463
0.00054017
0.00053294
0.000526622
0.000521054
0.000516131
0.000511755
0.000507845
0.000504347
0.00050119
0.000498354
0.000495768
0.00049344
0.000491295
0.000489363
0.000487566
0.000485946
0.000484425
0.000483059
0.00048176
0.000480598
0.000479481
0.000478489
0.000477523
0.000476669
0.000475827
0.00047509
0.000474356
0.000473715
0.00047307
0.000472517
0.000471948
0.000471464
0.000470962
0.000470541
0.000470096
0.000469727
0.00046933
0.000469007
0.000468651
0.000468375
0.000468054
0.000467816
0.000467531
0.000467321
0.000467069
0.000466885
0.000466663
0.000466496
0.000466302
0.000466155
0.000465978
0.000465858
0.000465697
0.000465586
0.000465438
0.000465343
0.000465217
0.000465141
0.000465036
0.000464975
0.000464879
0.000464819
0.000464728
0.000464673
0.00046459
0.000464542
0.000464469
0.00046443
0.000464368
0.000464338
0.000464287
0.000464265
0.000464217
0.000464212
0.000464201
0.000464209
0.000464198
0.000464245
0.000464429
0.000472562
0.000496489
0.00122182
0.00102407
0.000932015
0.000855846
0.000792977
0.000741709
0.000700122
0.000666463
0.000639022
0.000616531
0.000597867
0.000582285
0.000569106
0.000557909
0.000548281
0.000539976
0.000532736
0.000526409
0.000520832
0.000515902
0.00051152
0.000507604
0.0005041
0.000500938
0.000498098
0.000495507
0.000493175
0.000491027
0.000489092
0.000487291
0.000485669
0.000484145
0.000482776
0.000481475
0.000480311
0.000479192
0.000478198
0.00047723
0.000476375
0.000475531
0.000474793
0.000474057
0.000473415
0.000472769
0.000472214
0.000471644
0.00047116
0.000470656
0.000470234
0.000469788
0.000469419
0.000469021
0.000468696
0.00046834
0.000468063
0.000467742
0.000467503
0.000467217
0.000467007
0.000466754
0.000466569
0.000466347
0.00046618
0.000465985
0.000465837
0.00046566
0.000465539
0.000465379
0.000465267
0.000465118
0.000465023
0.000464897
0.00046482
0.000464715
0.000464653
0.000464557
0.000464497
0.000464405
0.00046435
0.000464267
0.000464219
0.000464145
0.000464106
0.000464043
0.000464013
0.000463962
0.00046394
0.000463891
0.000463886
0.000463874
0.000463881
0.000463869
0.000463916
0.000464103
0.000472397
0.000496235
0.00122298
0.00102407
0.000932018
0.000855851
0.000792976
0.000741692
0.000700082
0.000666398
0.000638931
0.000616416
0.00059773
0.000582128
0.000568931
0.000557718
0.000548075
0.000539758
0.000532506
0.000526169
0.000520583
0.000515645
0.000511255
0.000507332
0.000503822
0.000500654
0.000497808
0.000495213
0.000492876
0.000490724
0.000488785
0.000486981
0.000485356
0.000483829
0.000482458
0.000481153
0.000479987
0.000478866
0.00047787
0.0004769
0.000476042
0.000475197
0.000474457
0.00047372
0.000473077
0.000472429
0.000471873
0.000471301
0.000470816
0.000470311
0.000469888
0.000469441
0.000469071
0.000468671
0.000468347
0.000467989
0.000467712
0.00046739
0.00046715
0.000466864
0.000466652
0.000466399
0.000466213
0.00046599
0.000465823
0.000465627
0.000465479
0.000465301
0.00046518
0.000465019
0.000464907
0.000464758
0.000464662
0.000464535
0.000464458
0.000464353
0.00046429
0.000464194
0.000464134
0.000464041
0.000463986
0.000463902
0.000463854
0.00046378
0.00046374
0.000463677
0.000463647
0.000463595
0.000463572
0.000463523
0.000463518
0.000463505
0.000463511
0.000463498
0.000463545
0.000463736
0.000472214
0.000495949
0.00122308
0.00102407
0.000932021
0.000855857
0.000792974
0.000741673
0.000700038
0.000666326
0.000638831
0.000616289
0.000597578
0.000581953
0.000568736
0.000557506
0.000547847
0.000539515
0.00053225
0.000525901
0.000520305
0.000515358
0.000510959
0.000507028
0.000503511
0.000500337
0.000497486
0.000494885
0.000492543
0.000490387
0.000488443
0.000486636
0.000485006
0.000483476
0.000482102
0.000480795
0.000479626
0.000478502
0.000477504
0.000476531
0.000475672
0.000474825
0.000474083
0.000473343
0.000472699
0.00047205
0.000471492
0.000470919
0.000470432
0.000469926
0.000469502
0.000469053
0.000468682
0.000468282
0.000467956
0.000467598
0.00046732
0.000466996
0.000466756
0.000466469
0.000466257
0.000466002
0.000465816
0.000465592
0.000465424
0.000465228
0.00046508
0.000464901
0.000464779
0.000464617
0.000464505
0.000464355
0.00046426
0.000464132
0.000464054
0.000463948
0.000463886
0.000463789
0.000463728
0.000463635
0.000463579
0.000463495
0.000463447
0.000463372
0.000463332
0.000463268
0.000463237
0.000463185
0.000463162
0.000463113
0.000463107
0.000463093
0.000463098
0.000463084
0.000463131
0.000463327
0.000472012
0.000495631
0.00122175
0.00102407
0.000932024
0.000855863
0.000792973
0.000741652
0.00069999
0.000666247
0.00063872
0.000616149
0.00059741
0.000581761
0.000568522
0.000557271
0.000547594
0.000539247
0.000531968
0.000525606
0.000519999
0.00051504
0.000510633
0.000506693
0.000503169
0.000499987
0.000497129
0.000494522
0.000492175
0.000490014
0.000488066
0.000486254
0.000484621
0.000483087
0.000481709
0.000480398
0.000479226
0.0004781
0.000477099
0.000476124
0.000475262
0.000474413
0.000473669
0.000472928
0.000472281
0.00047163
0.000471071
0.000470496
0.000470008
0.000469501
0.000469075
0.000468625
0.000468253
0.000467851
0.000467525
0.000467165
0.000466886
0.000466562
0.00046632
0.000466032
0.000465819
0.000465564
0.000465377
0.000465152
0.000464984
0.000464786
0.000464638
0.000464458
0.000464336
0.000464173
0.000464061
0.00046391
0.000463814
0.000463686
0.000463608
0.000463501
0.000463438
0.000463341
0.00046328
0.000463186
0.00046313
0.000463045
0.000462996
0.000462921
0.000462881
0.000462816
0.000462785
0.000462732
0.000462709
0.000462659
0.000462652
0.000462637
0.000462642
0.000462626
0.000462673
0.000462874
0.000471792
0.00049528
0.00121899
0.00102407
0.000932028
0.00085587
0.000792971
0.00074163
0.000699937
0.000666161
0.0006386
0.000615996
0.000597227
0.000581551
0.000568287
0.000557015
0.000547318
0.000538953
0.000531659
0.000525283
0.000519663
0.000514693
0.000510275
0.000506326
0.000502793
0.000499604
0.000496739
0.000494125
0.000491772
0.000489605
0.000487652
0.000485835
0.000484197
0.000482659
0.000481278
0.000479964
0.000478789
0.000477659
0.000476655
0.000475677
0.000474813
0.000473961
0.000473215
0.000472471
0.000471823
0.00047117
0.000470609
0.000470032
0.000469543
0.000469034
0.000468607
0.000468155
0.000467782
0.000467379
0.000467051
0.00046669
0.00046641
0.000466084
0.000465842
0.000465553
0.000465339
0.000465083
0.000464895
0.000464669
0.0004645
0.000464302
0.000464153
0.000463972
0.000463849
0.000463686
0.000463573
0.000463422
0.000463325
0.000463196
0.000463118
0.00046301
0.000462947
0.000462849
0.000462787
0.000462693
0.000462637
0.000462551
0.000462502
0.000462426
0.000462385
0.00046232
0.000462288
0.000462235
0.000462211
0.000462161
0.000462153
0.000462138
0.000462141
0.000462123
0.000462171
0.000462377
0.000471554
0.000494896
0.00121481
0.00102407
0.000932032
0.000855878
0.00079297
0.000741605
0.00069988
0.000666067
0.000638469
0.00061583
0.000597028
0.000581322
0.000568032
0.000556736
0.000547018
0.000538634
0.000531322
0.000524931
0.000519297
0.000514315
0.000509885
0.000505926
0.000502384
0.000499186
0.000496313
0.000493692
0.000491333
0.000489159
0.000487201
0.000485379
0.000483736
0.000482194
0.000480808
0.00047949
0.000478311
0.000477178
0.000476171
0.00047519
0.000474323
0.000473469
0.00047272
0.000471974
0.000471324
0.000470668
0.000470106
0.000469527
0.000469036
0.000468525
0.000468096
0.000467643
0.000467268
0.000466864
0.000466535
0.000466172
0.000465891
0.000465564
0.00046532
0.00046503
0.000464816
0.000464558
0.00046437
0.000464143
0.000463973
0.000463774
0.000463624
0.000463442
0.000463319
0.000463155
0.000463041
0.00046289
0.000462792
0.000462662
0.000462583
0.000462475
0.000462411
0.000462313
0.000462251
0.000462156
0.000462099
0.000462013
0.000461963
0.000461886
0.000461845
0.000461779
0.000461747
0.000461693
0.000461668
0.000461618
0.000461609
0.000461593
0.000461594
0.000461575
0.000461623
0.000461836
0.000471297
0.000494477
0.00120925
0.00102407
0.000932036
0.000855886
0.000792969
0.00074158
0.00069982
0.000665967
0.000638329
0.000615651
0.000596814
0.000581076
0.000567756
0.000556434
0.000546693
0.000538288
0.000530958
0.00052455
0.000518901
0.000513905
0.000509463
0.000505493
0.000501941
0.000498734
0.000495852
0.000493224
0.000490857
0.000488677
0.000486712
0.000484884
0.000483237
0.000481689
0.000480299
0.000478977
0.000477794
0.000476657
0.000475647
0.000474663
0.000473793
0.000472935
0.000472184
0.000471435
0.000470782
0.000470125
0.00046956
0.000468979
0.000468486
0.000467973
0.000467543
0.000467088
0.000466711
0.000466305
0.000465975
0.000465611
0.000465328
0.000465
0.000464755
0.000464464
0.000464248
0.00046399
0.0004638
0.000463572
0.000463401
0.000463201
0.00046305
0.000462868
0.000462744
0.000462579
0.000462465
0.000462312
0.000462214
0.000462083
0.000462004
0.000461895
0.00046183
0.000461731
0.000461669
0.000461573
0.000461516
0.000461429
0.000461378
0.000461301
0.000461259
0.000461193
0.00046116
0.000461105
0.00046108
0.000461029
0.00046102
0.000461002
0.000461002
0.000460981
0.000461029
0.000461249
0.000471021
0.000494022
0.00120234
0.00102406
0.00093204
0.000855895
0.000792968
0.000741552
0.000699755
0.000665859
0.000638178
0.000615459
0.000596584
0.000580811
0.00056746
0.00055611
0.000546344
0.000537917
0.000530566
0.00052414
0.000518475
0.000513464
0.000509009
0.000505027
0.000501463
0.000498246
0.000495355
0.000492718
0.000490344
0.000488157
0.000486185
0.000484351
0.000482698
0.000481145
0.00047975
0.000478423
0.000477236
0.000476095
0.000475081
0.000474093
0.00047322
0.00047236
0.000471606
0.000470854
0.000470199
0.000469538
0.000468971
0.000468388
0.000467893
0.000467378
0.000466946
0.000466489
0.000466111
0.000465703
0.000465371
0.000465006
0.000464722
0.000464392
0.000464146
0.000463853
0.000463636
0.000463376
0.000463185
0.000462957
0.000462785
0.000462583
0.000462432
0.000462248
0.000462123
0.000461958
0.000461843
0.00046169
0.000461591
0.000461459
0.000461379
0.000461269
0.000461204
0.000461104
0.000461041
0.000460945
0.000460886
0.000460799
0.000460748
0.00046067
0.000460627
0.00046056
0.000460526
0.00046047
0.000460445
0.000460394
0.000460383
0.000460365
0.000460364
0.00046034
0.000460388
0.000460616
0.000470726
0.00049353
0.0011941
0.00102406
0.000932045
0.000855905
0.000792966
0.000741523
0.000699686
0.000665745
0.000638017
0.000615254
0.000596337
0.000580528
0.000567143
0.000555763
0.00054597
0.000537519
0.000530147
0.000523701
0.000518018
0.000512992
0.000508522
0.000504527
0.000500951
0.000497723
0.000494822
0.000492176
0.000489793
0.000487598
0.00048562
0.000483779
0.00048212
0.000480561
0.000479161
0.000477829
0.000476638
0.000475492
0.000474474
0.000473482
0.000472606
0.000471741
0.000470984
0.00047023
0.000469572
0.000468908
0.000468339
0.000467753
0.000467256
0.000466738
0.000466304
0.000465845
0.000465466
0.000465056
0.000464723
0.000464355
0.00046407
0.000463738
0.000463491
0.000463196
0.000462978
0.000462717
0.000462525
0.000462295
0.000462122
0.000461919
0.000461767
0.000461583
0.000461456
0.00046129
0.000461174
0.00046102
0.000460921
0.000460788
0.000460707
0.000460597
0.00046053
0.00046043
0.000460366
0.000460269
0.00046021
0.000460122
0.00046007
0.000459991
0.000459948
0.00045988
0.000459845
0.000459789
0.000459763
0.000459711
0.000459699
0.00045968
0.000459677
0.000459651
0.0004597
0.000459936
0.000470409
0.000492997
0.00118459
0.00102406
0.00093205
0.000855915
0.000792965
0.000741493
0.000699613
0.000665624
0.000637846
0.000615036
0.000596075
0.000580226
0.000566805
0.000555393
0.000545571
0.000537094
0.000529698
0.000523232
0.00051753
0.000512487
0.000508001
0.000503992
0.000500404
0.000497164
0.000494253
0.000491597
0.000489205
0.000487001
0.000485015
0.000483167
0.000481502
0.000479937
0.000478531
0.000477193
0.000475997
0.000474847
0.000473825
0.000472829
0.000471948
0.00047108
0.00047032
0.000469562
0.000468901
0.000468234
0.000467662
0.000467074
0.000466574
0.000466054
0.000465618
0.000465157
0.000464775
0.000464363
0.000464028
0.000463659
0.000463372
0.000463039
0.00046279
0.000462494
0.000462275
0.000462012
0.000461819
0.000461587
0.000461413
0.000461209
0.000461056
0.00046087
0.000460743
0.000460575
0.000460459
0.000460304
0.000460204
0.00046007
0.000459988
0.000459877
0.00045981
0.000459708
0.000459644
0.000459546
0.000459487
0.000459397
0.000459345
0.000459265
0.000459221
0.000459152
0.000459117
0.000459059
0.000459032
0.00045898
0.000458967
0.000458947
0.000458943
0.000458914
0.000458963
0.000459208
0.00047007
0.000492422
0.00117385
0.00102406
0.000932055
0.000855926
0.000792964
0.000741461
0.000699536
0.000665495
0.000637665
0.000614805
0.000595797
0.000579905
0.000566446
0.000555
0.000545147
0.000536642
0.000529221
0.000522733
0.00051701
0.000511949
0.000507447
0.000503423
0.000499821
0.000496569
0.000493646
0.000490979
0.000488578
0.000486365
0.000484371
0.000482515
0.000480843
0.000479271
0.000477859
0.000476516
0.000475314
0.000474159
0.000473132
0.000472132
0.000471247
0.000470375
0.000469611
0.000468849
0.000468185
0.000467516
0.000466941
0.000466349
0.000465847
0.000465324
0.000464886
0.000464423
0.000464039
0.000463625
0.000463288
0.000462917
0.000462628
0.000462293
0.000462042
0.000461745
0.000461524
0.00046126
0.000461065
0.000460832
0.000460657
0.000460451
0.000460297
0.00046011
0.000459982
0.000459813
0.000459696
0.00045954
0.000459439
0.000459304
0.000459221
0.000459109
0.000459041
0.000458938
0.000458873
0.000458775
0.000458715
0.000458624
0.000458571
0.00045849
0.000458445
0.000458375
0.000458339
0.00045828
0.000458253
0.0004582
0.000458186
0.000458166
0.000458159
0.000458127
0.000458177
0.000458432
0.000469707
0.000491801
0.00116194
0.00102406
0.00093206
0.000855937
0.000792964
0.000741428
0.000699455
0.000665361
0.000637475
0.000614561
0.000595504
0.000579566
0.000566066
0.000554583
0.000544697
0.000536163
0.000528716
0.000522203
0.000516459
0.000511378
0.000506859
0.000502818
0.000499202
0.000495936
0.000493001
0.000490324
0.000487912
0.00048569
0.000483687
0.000481823
0.000480142
0.000478564
0.000477145
0.000475796
0.000474589
0.000473428
0.000472396
0.000471391
0.000470502
0.000469626
0.000468858
0.000468092
0.000467425
0.000466752
0.000466174
0.000465579
0.000465074
0.000464549
0.000464108
0.000463642
0.000463256
0.00046284
0.000462501
0.000462127
0.000461837
0.0004615
0.000461247
0.000460948
0.000460725
0.00046046
0.000460263
0.000460029
0.000459853
0.000459645
0.00045949
0.000459301
0.000459172
0.000459002
0.000458885
0.000458727
0.000458625
0.000458489
0.000458405
0.000458292
0.000458223
0.00045812
0.000458054
0.000457955
0.000457894
0.000457802
0.000457748
0.000457666
0.000457621
0.000457549
0.000457513
0.000457453
0.000457425
0.000457371
0.000457356
0.000457334
0.000457326
0.000457291
0.000457341
0.000457606
0.000469317
0.000491133
0.00114891
0.00102405
0.000932065
0.000855949
0.000792963
0.000741393
0.000699371
0.000665219
0.000637274
0.000614304
0.000595194
0.000579209
0.000565665
0.000554143
0.000544222
0.000535656
0.000528181
0.000521643
0.000515876
0.000510775
0.000506237
0.000502179
0.000498547
0.000495267
0.000492319
0.000489629
0.000487206
0.000484974
0.000482961
0.000481089
0.000479401
0.000477814
0.000476389
0.000475033
0.00047382
0.000472653
0.000471616
0.000470606
0.000469712
0.000468831
0.00046806
0.00046729
0.000466619
0.000465942
0.000465361
0.000464763
0.000464255
0.000463726
0.000463283
0.000462814
0.000462426
0.000462007
0.000461666
0.00046129
0.000460998
0.000460659
0.000460404
0.000460103
0.000459879
0.000459611
0.000459414
0.000459177
0.000459
0.000458791
0.000458635
0.000458444
0.000458314
0.000458143
0.000458024
0.000457866
0.000457763
0.000457625
0.00045754
0.000457426
0.000457356
0.000457251
0.000457185
0.000457085
0.000457023
0.00045693
0.000456875
0.000456793
0.000456746
0.000456674
0.000456636
0.000456575
0.000456546
0.000456491
0.000456475
0.000456452
0.000456442
0.000456404
0.000456454
0.000456731
0.000468896
0.000490414
0.00113482
0.00102405
0.000932071
0.000855961
0.000792963
0.000741357
0.000699283
0.000665071
0.000637064
0.000614034
0.000594868
0.000578832
0.000565243
0.00055368
0.000543721
0.000535122
0.000527617
0.000521052
0.000515261
0.000510138
0.000505579
0.000501504
0.000497855
0.00049456
0.000491598
0.000488895
0.000486461
0.000484218
0.000482195
0.000480314
0.000478617
0.000477022
0.00047559
0.000474226
0.000473007
0.000471834
0.000470791
0.000469776
0.000468877
0.000467992
0.000467215
0.000466441
0.000465766
0.000465086
0.000464501
0.0004639
0.000463389
0.000462857
0.000462411
0.000461939
0.000461548
0.000461126
0.000460784
0.000460405
0.00046011
0.000459769
0.000459513
0.000459209
0.000458984
0.000458714
0.000458515
0.000458277
0.000458098
0.000457887
0.00045773
0.000457537
0.000457406
0.000457233
0.000457114
0.000456954
0.00045685
0.000456711
0.000456625
0.000456509
0.000456439
0.000456333
0.000456266
0.000456164
0.000456101
0.000456008
0.000455952
0.000455868
0.00045582
0.000455747
0.000455708
0.000455646
0.000455616
0.00045556
0.000455543
0.000455518
0.000455508
0.000455465
0.000455516
0.000455805
0.000468438
0.000489644
0.00111974
0.00102405
0.000932077
0.000855975
0.000792963
0.000741321
0.000699191
0.000664916
0.000636844
0.000613751
0.000594527
0.000578438
0.0005648
0.000553193
0.000543195
0.000534561
0.000527024
0.000520431
0.000514614
0.000509467
0.000504887
0.000500792
0.000497126
0.000493815
0.000490838
0.000488122
0.000485675
0.000483421
0.000481388
0.000479496
0.00047779
0.000476187
0.000474747
0.000473376
0.00047215
0.00047097
0.000469922
0.0004689
0.000467997
0.000467106
0.000466325
0.000465546
0.000464867
0.000464182
0.000463594
0.000462989
0.000462475
0.000461939
0.00046149
0.000461015
0.000460622
0.000460197
0.000459852
0.000459471
0.000459174
0.00045883
0.000458572
0.000458266
0.000458039
0.000457767
0.000457566
0.000457326
0.000457146
0.000456933
0.000456774
0.00045658
0.000456448
0.000456273
0.000456153
0.000455992
0.000455887
0.000455746
0.000455659
0.000455542
0.00045547
0.000455363
0.000455295
0.000455193
0.000455129
0.000455034
0.000454978
0.000454892
0.000454844
0.000454769
0.000454729
0.000454665
0.000454635
0.000454578
0.000454559
0.000454533
0.000454521
0.000454475
0.000454526
0.000454828
0.000467935
0.000488819
0.00110374
0.00102405
0.000932083
0.000855989
0.000792964
0.000741283
0.000699096
0.000664755
0.000636615
0.000613456
0.00059417
0.000578024
0.000564335
0.000552682
0.000542643
0.000533972
0.000526402
0.000519778
0.000513934
0.000508762
0.00050416
0.000500045
0.00049636
0.000493032
0.00049004
0.000487309
0.000484849
0.000482583
0.000480538
0.000478636
0.000476921
0.000475309
0.00047386
0.000472481
0.000471248
0.000470061
0.000469006
0.000467979
0.00046707
0.000466173
0.000465388
0.000464604
0.000463921
0.000463231
0.000462639
0.00046203
0.000461512
0.000460973
0.000460521
0.000460042
0.000459647
0.000459219
0.000458871
0.000458487
0.000458188
0.000457842
0.000457581
0.000457273
0.000457044
0.00045677
0.000456567
0.000456325
0.000456143
0.000455928
0.000455768
0.000455573
0.000455438
0.000455263
0.000455141
0.000454978
0.000454872
0.00045473
0.000454642
0.000454523
0.000454451
0.000454342
0.000454273
0.000454169
0.000454105
0.000454009
0.000453951
0.000453864
0.000453815
0.000453738
0.000453698
0.000453632
0.000453601
0.000453543
0.000453522
0.000453496
0.000453482
0.000453432
0.000453484
0.000453799
0.00046738
0.000487938
0.00108688
0.00102404
0.000932089
0.000856003
0.000792964
0.000741244
0.000698998
0.000664588
0.000636376
0.000613148
0.000593798
0.000577593
0.000563849
0.000552148
0.000542066
0.000533355
0.000525749
0.000519094
0.000513221
0.000508023
0.000503398
0.000499261
0.000495556
0.000492211
0.000489202
0.000486456
0.000483982
0.000481703
0.000479647
0.000477733
0.000476008
0.000474386
0.000472928
0.000471542
0.0004703
0.000469107
0.000468045
0.000467011
0.000466096
0.000465194
0.000464403
0.000463614
0.000462926
0.000462232
0.000461636
0.000461022
0.000460501
0.000459958
0.000459503
0.000459021
0.000458622
0.000458191
0.000457841
0.000457453
0.000457152