/*--------------------------------*- C++ -*----------------------------------*\
| =========                 |                                                 |
| \\      /  F ield         | OpenFOAM: The Open Source CFD Toolbox           |
|  \\    /   O peration     | Version:  v2012                                 |
|   \\  /    A nd           | Website:  www.openfoam.com                      |
|    \\/     M anipulation  |                                                 |
\*---------------------------------------------------------------------------*/
FoamFile
{
    version     2.0;
    format      ascii;
    class       volScalarField;
    location    "48";
    object      nut;
}
// * * * * * * * * * * * * * * * * * * * * * * * * * * * * * * * * * * * * * //

dimensions      [0 2 -1 0 0 0 0];


internalField   nonuniform List<scalar> 
209825
(
1.23955e-07
1.2313e-07
1.22271e-07
1.21216e-07
1.2003e-07
1.18794e-07
1.17622e-07
1.16534e-07
1.15573e-07
1.14711e-07
1.13967e-07
1.13301e-07
1.12731e-07
1.12216e-07
1.11775e-07
1.11373e-07
1.11029e-07
1.10711e-07
1.10439e-07
1.10184e-07
1.09967e-07
1.0976e-07
1.09584e-07
1.09415e-07
1.0927e-07
1.0913e-07
1.09011e-07
1.08894e-07
1.08794e-07
1.08696e-07
1.08612e-07
1.08528e-07
1.08456e-07
1.08385e-07
1.08324e-07
1.08263e-07
1.0821e-07
1.08157e-07
1.0811e-07
1.08065e-07
1.08024e-07
1.07984e-07
1.07949e-07
1.07914e-07
1.07882e-07
1.07852e-07
1.07824e-07
1.07799e-07
1.07773e-07
1.0775e-07
1.07726e-07
1.07705e-07
1.07681e-07
1.07667e-07
1.07644e-07
1.07632e-07
1.07611e-07
1.076e-07
1.07583e-07
1.07572e-07
1.07555e-07
1.07543e-07
1.07529e-07
1.07517e-07
1.07503e-07
1.07494e-07
1.07481e-07
1.07471e-07
1.07457e-07
1.07447e-07
1.07435e-07
1.07427e-07
1.07418e-07
1.07411e-07
1.07404e-07
1.07399e-07
1.07391e-07
1.07386e-07
1.07379e-07
1.07374e-07
1.07368e-07
1.07363e-07
1.07358e-07
1.07353e-07
1.07347e-07
1.07339e-07
1.07329e-07
1.07321e-07
1.07319e-07
1.0731e-07
1.07308e-07
1.073e-07
1.07322e-07
1.08352e-07
1.1112e-07
1.06785e-08
1.23955e-07
1.2313e-07
1.22271e-07
1.21216e-07
1.2003e-07
1.18795e-07
1.17623e-07
1.16534e-07
1.15574e-07
1.14711e-07
1.13968e-07
1.13302e-07
1.12731e-07
1.12216e-07
1.11776e-07
1.11373e-07
1.1103e-07
1.10711e-07
1.1044e-07
1.10185e-07
1.09967e-07
1.0976e-07
1.09584e-07
1.09415e-07
1.09271e-07
1.09131e-07
1.09011e-07
1.08895e-07
1.08795e-07
1.08696e-07
1.08612e-07
1.08529e-07
1.08457e-07
1.08386e-07
1.08324e-07
1.08263e-07
1.0821e-07
1.08157e-07
1.08111e-07
1.08065e-07
1.08024e-07
1.07985e-07
1.07949e-07
1.07915e-07
1.07883e-07
1.07853e-07
1.07824e-07
1.07799e-07
1.07773e-07
1.07751e-07
1.07726e-07
1.07706e-07
1.07682e-07
1.07667e-07
1.07644e-07
1.07632e-07
1.07611e-07
1.07601e-07
1.07583e-07
1.07573e-07
1.07555e-07
1.07543e-07
1.0753e-07
1.07517e-07
1.07503e-07
1.07494e-07
1.07481e-07
1.07471e-07
1.07457e-07
1.07447e-07
1.07435e-07
1.07427e-07
1.07418e-07
1.07412e-07
1.07404e-07
1.07399e-07
1.07392e-07
1.07387e-07
1.07379e-07
1.07374e-07
1.07368e-07
1.07363e-07
1.07358e-07
1.07354e-07
1.07347e-07
1.0734e-07
1.07329e-07
1.07321e-07
1.07319e-07
1.0731e-07
1.07309e-07
1.07301e-07
1.07323e-07
1.08354e-07
1.11121e-07
1.10054e-08
1.23954e-07
1.2313e-07
1.22271e-07
1.21217e-07
1.20031e-07
1.18795e-07
1.17624e-07
1.16535e-07
1.15575e-07
1.14712e-07
1.13968e-07
1.13302e-07
1.12732e-07
1.12217e-07
1.11776e-07
1.11374e-07
1.1103e-07
1.10711e-07
1.1044e-07
1.10185e-07
1.09967e-07
1.0976e-07
1.09584e-07
1.09415e-07
1.09271e-07
1.09131e-07
1.09011e-07
1.08894e-07
1.08794e-07
1.08696e-07
1.08612e-07
1.08528e-07
1.08456e-07
1.08385e-07
1.08324e-07
1.08263e-07
1.08209e-07
1.08157e-07
1.0811e-07
1.08065e-07
1.08024e-07
1.07984e-07
1.07949e-07
1.07914e-07
1.07882e-07
1.07852e-07
1.07824e-07
1.07798e-07
1.07772e-07
1.0775e-07
1.07726e-07
1.07705e-07
1.07681e-07
1.07666e-07
1.07643e-07
1.07631e-07
1.0761e-07
1.076e-07
1.07582e-07
1.07572e-07
1.07554e-07
1.07543e-07
1.07529e-07
1.07516e-07
1.07502e-07
1.07493e-07
1.07481e-07
1.0747e-07
1.07456e-07
1.07446e-07
1.07434e-07
1.07426e-07
1.07417e-07
1.07411e-07
1.07403e-07
1.07398e-07
1.07391e-07
1.07386e-07
1.07378e-07
1.07373e-07
1.07367e-07
1.07363e-07
1.07357e-07
1.07353e-07
1.07346e-07
1.07339e-07
1.07328e-07
1.0732e-07
1.07318e-07
1.07309e-07
1.07308e-07
1.073e-07
1.07322e-07
1.08357e-07
1.11121e-07
1.14114e-08
1.23954e-07
1.2313e-07
1.22271e-07
1.21217e-07
1.20032e-07
1.18797e-07
1.17625e-07
1.16537e-07
1.15576e-07
1.14714e-07
1.1397e-07
1.13304e-07
1.12733e-07
1.12218e-07
1.11777e-07
1.11374e-07
1.1103e-07
1.10712e-07
1.1044e-07
1.10185e-07
1.09967e-07
1.0976e-07
1.09584e-07
1.09415e-07
1.0927e-07
1.0913e-07
1.09011e-07
1.08894e-07
1.08794e-07
1.08695e-07
1.08611e-07
1.08528e-07
1.08456e-07
1.08384e-07
1.08323e-07
1.08262e-07
1.08209e-07
1.08156e-07
1.08109e-07
1.08064e-07
1.08023e-07
1.07983e-07
1.07948e-07
1.07913e-07
1.07881e-07
1.07851e-07
1.07823e-07
1.07797e-07
1.07771e-07
1.07749e-07
1.07725e-07
1.07704e-07
1.0768e-07
1.07665e-07
1.07642e-07
1.0763e-07
1.07609e-07
1.07599e-07
1.07581e-07
1.07571e-07
1.07553e-07
1.07542e-07
1.07528e-07
1.07515e-07
1.07501e-07
1.07492e-07
1.07479e-07
1.07469e-07
1.07455e-07
1.07445e-07
1.07433e-07
1.07425e-07
1.07416e-07
1.0741e-07
1.07402e-07
1.07397e-07
1.0739e-07
1.07384e-07
1.07377e-07
1.07372e-07
1.07366e-07
1.07361e-07
1.07356e-07
1.07351e-07
1.07345e-07
1.07337e-07
1.07327e-07
1.07319e-07
1.07317e-07
1.07308e-07
1.07306e-07
1.07298e-07
1.07321e-07
1.08362e-07
1.11122e-07
1.1863e-08
1.23954e-07
1.2313e-07
1.22272e-07
1.21218e-07
1.20033e-07
1.18799e-07
1.17628e-07
1.16539e-07
1.15579e-07
1.14716e-07
1.13972e-07
1.13306e-07
1.12735e-07
1.12219e-07
1.11779e-07
1.11376e-07
1.11031e-07
1.10713e-07
1.10441e-07
1.10186e-07
1.09968e-07
1.09761e-07
1.09584e-07
1.09415e-07
1.0927e-07
1.0913e-07
1.0901e-07
1.08894e-07
1.08794e-07
1.08695e-07
1.08611e-07
1.08527e-07
1.08455e-07
1.08384e-07
1.08323e-07
1.08261e-07
1.08208e-07
1.08155e-07
1.08109e-07
1.08063e-07
1.08022e-07
1.07982e-07
1.07947e-07
1.07912e-07
1.0788e-07
1.0785e-07
1.07822e-07
1.07796e-07
1.0777e-07
1.07748e-07
1.07724e-07
1.07703e-07
1.07679e-07
1.07664e-07
1.07641e-07
1.07629e-07
1.07608e-07
1.07597e-07
1.0758e-07
1.07569e-07
1.07552e-07
1.0754e-07
1.07526e-07
1.07514e-07
1.075e-07
1.07491e-07
1.07478e-07
1.07468e-07
1.07454e-07
1.07444e-07
1.07432e-07
1.07424e-07
1.07414e-07
1.07408e-07
1.07401e-07
1.07396e-07
1.07388e-07
1.07383e-07
1.07376e-07
1.07371e-07
1.07364e-07
1.0736e-07
1.07354e-07
1.0735e-07
1.07343e-07
1.07336e-07
1.07325e-07
1.07318e-07
1.07316e-07
1.07307e-07
1.07305e-07
1.07297e-07
1.07319e-07
1.0837e-07
1.11123e-07
1.23531e-08
1.23954e-07
1.23129e-07
1.22272e-07
1.21219e-07
1.20035e-07
1.18801e-07
1.17631e-07
1.16542e-07
1.15582e-07
1.14719e-07
1.13975e-07
1.13308e-07
1.12737e-07
1.12221e-07
1.11781e-07
1.11377e-07
1.11033e-07
1.10714e-07
1.10442e-07
1.10187e-07
1.09969e-07
1.09761e-07
1.09585e-07
1.09416e-07
1.09271e-07
1.09131e-07
1.09011e-07
1.08894e-07
1.08794e-07
1.08695e-07
1.0861e-07
1.08527e-07
1.08455e-07
1.08383e-07
1.08322e-07
1.08261e-07
1.08207e-07
1.08154e-07
1.08108e-07
1.08062e-07
1.08021e-07
1.07981e-07
1.07946e-07
1.07911e-07
1.07879e-07
1.07849e-07
1.07821e-07
1.07795e-07
1.07769e-07
1.07747e-07
1.07722e-07
1.07702e-07
1.07677e-07
1.07663e-07
1.0764e-07
1.07627e-07
1.07607e-07
1.07596e-07
1.07578e-07
1.07568e-07
1.07551e-07
1.07539e-07
1.07525e-07
1.07513e-07
1.07498e-07
1.07489e-07
1.07477e-07
1.07466e-07
1.07453e-07
1.07442e-07
1.0743e-07
1.07422e-07
1.07413e-07
1.07407e-07
1.07399e-07
1.07394e-07
1.07387e-07
1.07381e-07
1.07374e-07
1.07369e-07
1.07363e-07
1.07358e-07
1.07353e-07
1.07348e-07
1.07342e-07
1.07334e-07
1.07324e-07
1.07316e-07
1.07314e-07
1.07305e-07
1.07303e-07
1.07295e-07
1.07318e-07
1.0838e-07
1.11125e-07
1.28803e-08
1.23954e-07
1.23129e-07
1.22272e-07
1.2122e-07
1.20037e-07
1.18805e-07
1.17634e-07
1.16546e-07
1.15586e-07
1.14723e-07
1.13979e-07
1.13312e-07
1.1274e-07
1.12224e-07
1.11783e-07
1.1138e-07
1.11035e-07
1.10716e-07
1.10444e-07
1.10188e-07
1.0997e-07
1.09763e-07
1.09586e-07
1.09416e-07
1.09271e-07
1.09131e-07
1.09011e-07
1.08894e-07
1.08794e-07
1.08695e-07
1.0861e-07
1.08526e-07
1.08454e-07
1.08383e-07
1.08321e-07
1.0826e-07
1.08207e-07
1.08154e-07
1.08107e-07
1.08061e-07
1.0802e-07
1.0798e-07
1.07945e-07
1.0791e-07
1.07878e-07
1.07848e-07
1.07819e-07
1.07794e-07
1.07768e-07
1.07745e-07
1.07721e-07
1.077e-07
1.07676e-07
1.07661e-07
1.07638e-07
1.07626e-07
1.07605e-07
1.07594e-07
1.07577e-07
1.07566e-07
1.07549e-07
1.07537e-07
1.07523e-07
1.07511e-07
1.07497e-07
1.07487e-07
1.07475e-07
1.07464e-07
1.07451e-07
1.0744e-07
1.07429e-07
1.0742e-07
1.07411e-07
1.07405e-07
1.07397e-07
1.07392e-07
1.07385e-07
1.0738e-07
1.07372e-07
1.07367e-07
1.07361e-07
1.07356e-07
1.07351e-07
1.07346e-07
1.0734e-07
1.07333e-07
1.07322e-07
1.07314e-07
1.07312e-07
1.07303e-07
1.07301e-07
1.07293e-07
1.07316e-07
1.08392e-07
1.11127e-07
1.34449e-08
1.23954e-07
1.23129e-07
1.22272e-07
1.21222e-07
1.2004e-07
1.18809e-07
1.17639e-07
1.16551e-07
1.15591e-07
1.14728e-07
1.13983e-07
1.13316e-07
1.12744e-07
1.12228e-07
1.11786e-07
1.11383e-07
1.11038e-07
1.10718e-07
1.10446e-07
1.1019e-07
1.09971e-07
1.09764e-07
1.09587e-07
1.09417e-07
1.09272e-07
1.09131e-07
1.09011e-07
1.08894e-07
1.08794e-07
1.08695e-07
1.0861e-07
1.08526e-07
1.08454e-07
1.08382e-07
1.08321e-07
1.0826e-07
1.08206e-07
1.08153e-07
1.08106e-07
1.08061e-07
1.08019e-07
1.07979e-07
1.07944e-07
1.07909e-07
1.07877e-07
1.07846e-07
1.07818e-07
1.07793e-07
1.07767e-07
1.07744e-07
1.0772e-07
1.07699e-07
1.07674e-07
1.0766e-07
1.07637e-07
1.07624e-07
1.07604e-07
1.07593e-07
1.07575e-07
1.07565e-07
1.07547e-07
1.07535e-07
1.07522e-07
1.07509e-07
1.07495e-07
1.07486e-07
1.07473e-07
1.07463e-07
1.07449e-07
1.07439e-07
1.07427e-07
1.07418e-07
1.07409e-07
1.07403e-07
1.07395e-07
1.0739e-07
1.07383e-07
1.07378e-07
1.0737e-07
1.07365e-07
1.07359e-07
1.07354e-07
1.07349e-07
1.07344e-07
1.07338e-07
1.07331e-07
1.0732e-07
1.07312e-07
1.0731e-07
1.07301e-07
1.07299e-07
1.07291e-07
1.07314e-07
1.08407e-07
1.1113e-07
1.40477e-08
1.23954e-07
1.23128e-07
1.22273e-07
1.21224e-07
1.20044e-07
1.18813e-07
1.17644e-07
1.16557e-07
1.15596e-07
1.14733e-07
1.13988e-07
1.13321e-07
1.12749e-07
1.12232e-07
1.1179e-07
1.11386e-07
1.11041e-07
1.10721e-07
1.10448e-07
1.10192e-07
1.09973e-07
1.09766e-07
1.09588e-07
1.09418e-07
1.09273e-07
1.09132e-07
1.09012e-07
1.08894e-07
1.08794e-07
1.08695e-07
1.0861e-07
1.08526e-07
1.08454e-07
1.08382e-07
1.0832e-07
1.08259e-07
1.08205e-07
1.08152e-07
1.08105e-07
1.0806e-07
1.08018e-07
1.07978e-07
1.07943e-07
1.07908e-07
1.07876e-07
1.07845e-07
1.07817e-07
1.07791e-07
1.07765e-07
1.07743e-07
1.07718e-07
1.07697e-07
1.07673e-07
1.07658e-07
1.07635e-07
1.07623e-07
1.07602e-07
1.07591e-07
1.07573e-07
1.07563e-07
1.07545e-07
1.07534e-07
1.0752e-07
1.07507e-07
1.07493e-07
1.07484e-07
1.07471e-07
1.07461e-07
1.07447e-07
1.07437e-07
1.07425e-07
1.07416e-07
1.07407e-07
1.07401e-07
1.07393e-07
1.07388e-07
1.07381e-07
1.07375e-07
1.07368e-07
1.07363e-07
1.07356e-07
1.07352e-07
1.07346e-07
1.07342e-07
1.07335e-07
1.07328e-07
1.07318e-07
1.0731e-07
1.07308e-07
1.07299e-07
1.07296e-07
1.07289e-07
1.07312e-07
1.08425e-07
1.11133e-07
1.46891e-08
1.23954e-07
1.23128e-07
1.22273e-07
1.21226e-07
1.20048e-07
1.18818e-07
1.1765e-07
1.16563e-07
1.15603e-07
1.1474e-07
1.13995e-07
1.13327e-07
1.12754e-07
1.12237e-07
1.11795e-07
1.1139e-07
1.11045e-07
1.10725e-07
1.10451e-07
1.10195e-07
1.09976e-07
1.09768e-07
1.0959e-07
1.0942e-07
1.09274e-07
1.09133e-07
1.09013e-07
1.08895e-07
1.08795e-07
1.08695e-07
1.0861e-07
1.08526e-07
1.08454e-07
1.08382e-07
1.0832e-07
1.08259e-07
1.08205e-07
1.08151e-07
1.08105e-07
1.08059e-07
1.08017e-07
1.07977e-07
1.07942e-07
1.07907e-07
1.07874e-07
1.07844e-07
1.07815e-07
1.0779e-07
1.07764e-07
1.07741e-07
1.07716e-07
1.07696e-07
1.07671e-07
1.07656e-07
1.07633e-07
1.07621e-07
1.076e-07
1.07589e-07
1.07571e-07
1.07561e-07
1.07543e-07
1.07532e-07
1.07518e-07
1.07505e-07
1.07491e-07
1.07482e-07
1.07469e-07
1.07458e-07
1.07445e-07
1.07434e-07
1.07423e-07
1.07414e-07
1.07405e-07
1.07399e-07
1.07391e-07
1.07386e-07
1.07378e-07
1.07373e-07
1.07366e-07
1.07361e-07
1.07354e-07
1.07349e-07
1.07344e-07
1.07339e-07
1.07333e-07
1.07326e-07
1.07316e-07
1.07308e-07
1.07305e-07
1.07296e-07
1.07294e-07
1.07286e-07
1.0731e-07
1.08447e-07
1.11137e-07
1.53693e-08
1.23954e-07
1.23128e-07
1.22274e-07
1.21228e-07
1.20052e-07
1.18824e-07
1.17657e-07
1.16571e-07
1.15611e-07
1.14747e-07
1.14002e-07
1.13333e-07
1.12761e-07
1.12243e-07
1.118e-07
1.11395e-07
1.11049e-07
1.10728e-07
1.10455e-07
1.10198e-07
1.09978e-07
1.0977e-07
1.09592e-07
1.09422e-07
1.09276e-07
1.09135e-07
1.09014e-07
1.08896e-07
1.08795e-07
1.08696e-07
1.08611e-07
1.08526e-07
1.08454e-07
1.08382e-07
1.0832e-07
1.08258e-07
1.08204e-07
1.08151e-07
1.08104e-07
1.08058e-07
1.08016e-07
1.07976e-07
1.0794e-07
1.07905e-07
1.07873e-07
1.07842e-07
1.07814e-07
1.07788e-07
1.07762e-07
1.07739e-07
1.07715e-07
1.07694e-07
1.07669e-07
1.07655e-07
1.07632e-07
1.07619e-07
1.07598e-07
1.07587e-07
1.07569e-07
1.07559e-07
1.07541e-07
1.07529e-07
1.07515e-07
1.07503e-07
1.07489e-07
1.07479e-07
1.07467e-07
1.07456e-07
1.07443e-07
1.07432e-07
1.0742e-07
1.07412e-07
1.07402e-07
1.07396e-07
1.07388e-07
1.07383e-07
1.07376e-07
1.0737e-07
1.07363e-07
1.07358e-07
1.07351e-07
1.07347e-07
1.07341e-07
1.07337e-07
1.0733e-07
1.07323e-07
1.07313e-07
1.07305e-07
1.07302e-07
1.07294e-07
1.07291e-07
1.07283e-07
1.07308e-07
1.08471e-07
1.11141e-07
1.60873e-08
1.23954e-07
1.23127e-07
1.22274e-07
1.21231e-07
1.20057e-07
1.18831e-07
1.17665e-07
1.16579e-07
1.15619e-07
1.14755e-07
1.1401e-07
1.13341e-07
1.12768e-07
1.12249e-07
1.11806e-07
1.11401e-07
1.11054e-07
1.10733e-07
1.10459e-07
1.10201e-07
1.09982e-07
1.09773e-07
1.09595e-07
1.09424e-07
1.09278e-07
1.09136e-07
1.09015e-07
1.08897e-07
1.08796e-07
1.08696e-07
1.08611e-07
1.08526e-07
1.08454e-07
1.08382e-07
1.08319e-07
1.08258e-07
1.08204e-07
1.0815e-07
1.08103e-07
1.08057e-07
1.08015e-07
1.07975e-07
1.07939e-07
1.07904e-07
1.07872e-07
1.07841e-07
1.07812e-07
1.07787e-07
1.0776e-07
1.07738e-07
1.07713e-07
1.07692e-07
1.07667e-07
1.07653e-07
1.07629e-07
1.07617e-07
1.07596e-07
1.07585e-07
1.07567e-07
1.07556e-07
1.07539e-07
1.07527e-07
1.07513e-07
1.07501e-07
1.07486e-07
1.07477e-07
1.07464e-07
1.07454e-07
1.0744e-07
1.0743e-07
1.07418e-07
1.07409e-07
1.074e-07
1.07393e-07
1.07386e-07
1.07381e-07
1.07373e-07
1.07368e-07
1.0736e-07
1.07355e-07
1.07348e-07
1.07344e-07
1.07338e-07
1.07334e-07
1.07327e-07
1.0732e-07
1.0731e-07
1.07303e-07
1.07299e-07
1.07291e-07
1.07288e-07
1.0728e-07
1.07305e-07
1.08499e-07
1.11145e-07
1.68427e-08
1.23954e-07
1.23127e-07
1.22275e-07
1.21233e-07
1.20062e-07
1.18838e-07
1.17674e-07
1.16588e-07
1.15628e-07
1.14764e-07
1.14018e-07
1.13349e-07
1.12775e-07
1.12256e-07
1.11813e-07
1.11407e-07
1.11059e-07
1.10738e-07
1.10463e-07
1.10205e-07
1.09985e-07
1.09776e-07
1.09597e-07
1.09426e-07
1.0928e-07
1.09138e-07
1.09017e-07
1.08898e-07
1.08797e-07
1.08697e-07
1.08612e-07
1.08527e-07
1.08454e-07
1.08381e-07
1.08319e-07
1.08257e-07
1.08203e-07
1.08149e-07
1.08102e-07
1.08056e-07
1.08014e-07
1.07974e-07
1.07938e-07
1.07903e-07
1.0787e-07
1.07839e-07
1.07811e-07
1.07785e-07
1.07758e-07
1.07736e-07
1.07711e-07
1.0769e-07
1.07665e-07
1.0765e-07
1.07627e-07
1.07615e-07
1.07594e-07
1.07583e-07
1.07565e-07
1.07554e-07
1.07537e-07
1.07525e-07
1.07511e-07
1.07498e-07
1.07484e-07
1.07474e-07
1.07462e-07
1.07451e-07
1.07437e-07
1.07427e-07
1.07415e-07
1.07406e-07
1.07397e-07
1.07391e-07
1.07383e-07
1.07378e-07
1.0737e-07
1.07365e-07
1.07357e-07
1.07352e-07
1.07345e-07
1.07341e-07
1.07335e-07
1.0733e-07
1.07324e-07
1.07317e-07
1.07307e-07
1.073e-07
1.07296e-07
1.07288e-07
1.07284e-07
1.07277e-07
1.07303e-07
1.08531e-07
1.11148e-07
1.76376e-08
1.23953e-07
1.23126e-07
1.22275e-07
1.21237e-07
1.20068e-07
1.18846e-07
1.17683e-07
1.16598e-07
1.15639e-07
1.14775e-07
1.14028e-07
1.13358e-07
1.12784e-07
1.12264e-07
1.1182e-07
1.11413e-07
1.11066e-07
1.10743e-07
1.10468e-07
1.1021e-07
1.09989e-07
1.09779e-07
1.09601e-07
1.09429e-07
1.09282e-07
1.0914e-07
1.09018e-07
1.089e-07
1.08798e-07
1.08698e-07
1.08612e-07
1.08527e-07
1.08454e-07
1.08382e-07
1.08319e-07
1.08257e-07
1.08203e-07
1.08149e-07
1.08102e-07
1.08055e-07
1.08013e-07
1.07973e-07
1.07937e-07
1.07901e-07
1.07869e-07
1.07838e-07
1.07809e-07
1.07783e-07
1.07757e-07
1.07734e-07
1.07709e-07
1.07688e-07
1.07663e-07
1.07648e-07
1.07625e-07
1.07612e-07
1.07591e-07
1.0758e-07
1.07562e-07
1.07551e-07
1.07534e-07
1.07522e-07
1.07508e-07
1.07495e-07
1.07481e-07
1.07471e-07
1.07459e-07
1.07448e-07
1.07435e-07
1.07424e-07
1.07412e-07
1.07404e-07
1.07394e-07
1.07388e-07
1.0738e-07
1.07374e-07
1.07367e-07
1.07361e-07
1.07354e-07
1.07349e-07
1.07342e-07
1.07337e-07
1.07332e-07
1.07327e-07
1.07321e-07
1.07314e-07
1.07304e-07
1.07297e-07
1.07293e-07
1.07285e-07
1.07281e-07
1.07274e-07
1.073e-07
1.08567e-07
1.11152e-07
1.84746e-08
1.23953e-07
1.23125e-07
1.22276e-07
1.2124e-07
1.20074e-07
1.18855e-07
1.17693e-07
1.16609e-07
1.1565e-07
1.14786e-07
1.14039e-07
1.13368e-07
1.12793e-07
1.12273e-07
1.11828e-07
1.11421e-07
1.11072e-07
1.10749e-07
1.10474e-07
1.10215e-07
1.09994e-07
1.09783e-07
1.09604e-07
1.09432e-07
1.09285e-07
1.09142e-07
1.0902e-07
1.08901e-07
1.088e-07
1.08699e-07
1.08613e-07
1.08528e-07
1.08455e-07
1.08382e-07
1.08319e-07
1.08257e-07
1.08202e-07
1.08148e-07
1.08101e-07
1.08054e-07
1.08012e-07
1.07972e-07
1.07935e-07
1.079e-07
1.07867e-07
1.07836e-07
1.07807e-07
1.07781e-07
1.07755e-07
1.07732e-07
1.07707e-07
1.07686e-07
1.07661e-07
1.07646e-07
1.07623e-07
1.0761e-07
1.07589e-07
1.07577e-07
1.07559e-07
1.07549e-07
1.07531e-07
1.07519e-07
1.07505e-07
1.07493e-07
1.07478e-07
1.07468e-07
1.07456e-07
1.07445e-07
1.07432e-07
1.07421e-07
1.07409e-07
1.074e-07
1.07391e-07
1.07384e-07
1.07376e-07
1.07371e-07
1.07363e-07
1.07358e-07
1.07351e-07
1.07345e-07
1.07339e-07
1.07334e-07
1.07328e-07
1.07323e-07
1.07317e-07
1.07311e-07
1.07301e-07
1.07293e-07
1.0729e-07
1.07281e-07
1.07277e-07
1.0727e-07
1.07297e-07
1.08607e-07
1.11154e-07
1.93563e-08
1.23953e-07
1.23124e-07
1.22276e-07
1.21243e-07
1.20081e-07
1.18864e-07
1.17704e-07
1.16621e-07
1.15662e-07
1.14798e-07
1.1405e-07
1.13379e-07
1.12804e-07
1.12283e-07
1.11837e-07
1.11429e-07
1.1108e-07
1.10756e-07
1.1048e-07
1.1022e-07
1.09999e-07
1.09788e-07
1.09608e-07
1.09436e-07
1.09288e-07
1.09145e-07
1.09023e-07
1.08903e-07
1.08801e-07
1.087e-07
1.08614e-07
1.08529e-07
1.08455e-07
1.08382e-07
1.08319e-07
1.08257e-07
1.08202e-07
1.08148e-07
1.081e-07
1.08053e-07
1.08011e-07
1.0797e-07
1.07934e-07
1.07898e-07
1.07865e-07
1.07835e-07
1.07805e-07
1.07779e-07
1.07753e-07
1.0773e-07
1.07705e-07
1.07684e-07
1.07659e-07
1.07643e-07
1.0762e-07
1.07607e-07
1.07586e-07
1.07575e-07
1.07557e-07
1.07546e-07
1.07528e-07
1.07516e-07
1.07502e-07
1.0749e-07
1.07475e-07
1.07465e-07
1.07453e-07
1.07442e-07
1.07428e-07
1.07418e-07
1.07406e-07
1.07397e-07
1.07387e-07
1.07381e-07
1.07373e-07
1.07368e-07
1.0736e-07
1.07354e-07
1.07347e-07
1.07342e-07
1.07335e-07
1.0733e-07
1.07324e-07
1.0732e-07
1.07313e-07
1.07307e-07
1.07297e-07
1.0729e-07
1.07286e-07
1.07278e-07
1.07273e-07
1.07266e-07
1.07294e-07
1.0865e-07
1.11156e-07
2.02857e-08
1.23953e-07
1.23124e-07
1.22277e-07
1.21247e-07
1.20088e-07
1.18874e-07
1.17716e-07
1.16634e-07
1.15675e-07
1.14811e-07
1.14063e-07
1.13391e-07
1.12815e-07
1.12293e-07
1.11847e-07
1.11438e-07
1.11088e-07
1.10764e-07
1.10487e-07
1.10226e-07
1.10004e-07
1.09793e-07
1.09612e-07
1.09439e-07
1.09291e-07
1.09148e-07
1.09025e-07
1.08905e-07
1.08803e-07
1.08702e-07
1.08615e-07
1.08529e-07
1.08456e-07
1.08382e-07
1.08319e-07
1.08256e-07
1.08202e-07
1.08147e-07
1.08099e-07
1.08052e-07
1.0801e-07
1.07969e-07
1.07933e-07
1.07897e-07
1.07864e-07
1.07833e-07
1.07804e-07
1.07777e-07
1.0775e-07
1.07727e-07
1.07702e-07
1.07681e-07
1.07656e-07
1.07641e-07
1.07618e-07
1.07604e-07
1.07583e-07
1.07572e-07
1.07554e-07
1.07543e-07
1.07525e-07
1.07513e-07
1.07499e-07
1.07486e-07
1.07472e-07
1.07462e-07
1.07449e-07
1.07439e-07
1.07425e-07
1.07414e-07
1.07402e-07
1.07394e-07
1.07384e-07
1.07377e-07
1.07369e-07
1.07364e-07
1.07356e-07
1.07351e-07
1.07343e-07
1.07338e-07
1.07331e-07
1.07326e-07
1.0732e-07
1.07315e-07
1.07309e-07
1.07303e-07
1.07294e-07
1.07286e-07
1.07282e-07
1.07274e-07
1.07268e-07
1.07262e-07
1.07291e-07
1.08698e-07
1.09015e-07
2.12656e-08
1.23953e-07
1.23123e-07
1.22278e-07
1.21251e-07
1.20096e-07
1.18885e-07
1.17729e-07
1.16648e-07
1.15689e-07
1.14825e-07
1.14076e-07
1.13404e-07
1.12827e-07
1.12304e-07
1.11857e-07
1.11447e-07
1.11097e-07
1.10772e-07
1.10494e-07
1.10233e-07
1.1001e-07
1.09798e-07
1.09617e-07
1.09444e-07
1.09295e-07
1.09151e-07
1.09028e-07
1.08908e-07
1.08805e-07
1.08703e-07
1.08617e-07
1.0853e-07
1.08456e-07
1.08383e-07
1.08319e-07
1.08256e-07
1.08201e-07
1.08147e-07
1.08099e-07
1.08052e-07
1.08009e-07
1.07968e-07
1.07931e-07
1.07895e-07
1.07862e-07
1.07831e-07
1.07802e-07
1.07775e-07
1.07748e-07
1.07725e-07
1.077e-07
1.07679e-07
1.07654e-07
1.07638e-07
1.07615e-07
1.07602e-07
1.0758e-07
1.07569e-07
1.07551e-07
1.0754e-07
1.07522e-07
1.0751e-07
1.07496e-07
1.07483e-07
1.07468e-07
1.07459e-07
1.07446e-07
1.07435e-07
1.07421e-07
1.07411e-07
1.07399e-07
1.0739e-07
1.0738e-07
1.07373e-07
1.07365e-07
1.0736e-07
1.07352e-07
1.07347e-07
1.07339e-07
1.07334e-07
1.07327e-07
1.07322e-07
1.07316e-07
1.07311e-07
1.07305e-07
1.07299e-07
1.07289e-07
1.07282e-07
1.07278e-07
1.0727e-07
1.07264e-07
1.07258e-07
1.07288e-07
1.08751e-07
1.02873e-07
2.22992e-08
1.23952e-07
1.23122e-07
1.22278e-07
1.21255e-07
1.20104e-07
1.18896e-07
1.17743e-07
1.16663e-07
1.15705e-07
1.1484e-07
1.14091e-07
1.13418e-07
1.1284e-07
1.12316e-07
1.11868e-07
1.11457e-07
1.11106e-07
1.1078e-07
1.10502e-07
1.1024e-07
1.10017e-07
1.09804e-07
1.09622e-07
1.09448e-07
1.09299e-07
1.09155e-07
1.09031e-07
1.0891e-07
1.08807e-07
1.08705e-07
1.08618e-07
1.08532e-07
1.08457e-07
1.08383e-07
1.0832e-07
1.08256e-07
1.08201e-07
1.08146e-07
1.08098e-07
1.08051e-07
1.08008e-07
1.07967e-07
1.0793e-07
1.07894e-07
1.07861e-07
1.07829e-07
1.078e-07
1.07773e-07
1.07746e-07
1.07723e-07
1.07697e-07
1.07676e-07
1.07651e-07
1.07636e-07
1.07612e-07
1.07599e-07
1.07577e-07
1.07566e-07
1.07547e-07
1.07536e-07
1.07519e-07
1.07506e-07
1.07492e-07
1.0748e-07
1.07465e-07
1.07455e-07
1.07442e-07
1.07432e-07
1.07418e-07
1.07407e-07
1.07395e-07
1.07386e-07
1.07376e-07
1.07369e-07
1.07361e-07
1.07356e-07
1.07348e-07
1.07342e-07
1.07335e-07
1.07329e-07
1.07322e-07
1.07317e-07
1.07311e-07
1.07307e-07
1.073e-07
1.07294e-07
1.07285e-07
1.07278e-07
1.07274e-07
1.07265e-07
1.07259e-07
1.07253e-07
1.07285e-07
1.08807e-07
9.73898e-08
2.33897e-08
1.23952e-07
1.23121e-07
1.22279e-07
1.2126e-07
1.20113e-07
1.18909e-07
1.17757e-07
1.16679e-07
1.15721e-07
1.14856e-07
1.14107e-07
1.13433e-07
1.12854e-07
1.12329e-07
1.1188e-07
1.11468e-07
1.11116e-07
1.10789e-07
1.1051e-07
1.10248e-07
1.10024e-07
1.0981e-07
1.09628e-07
1.09453e-07
1.09304e-07
1.09159e-07
1.09035e-07
1.08913e-07
1.0881e-07
1.08707e-07
1.0862e-07
1.08533e-07
1.08458e-07
1.08384e-07
1.0832e-07
1.08257e-07
1.08201e-07
1.08146e-07
1.08097e-07
1.0805e-07
1.08007e-07
1.07966e-07
1.07928e-07
1.07892e-07
1.07859e-07
1.07827e-07
1.07798e-07
1.07771e-07
1.07744e-07
1.0772e-07
1.07695e-07
1.07674e-07
1.07648e-07
1.07633e-07
1.07609e-07
1.07596e-07
1.07574e-07
1.07562e-07
1.07544e-07
1.07533e-07
1.07515e-07
1.07503e-07
1.07488e-07
1.07476e-07
1.07461e-07
1.07451e-07
1.07438e-07
1.07428e-07
1.07414e-07
1.07403e-07
1.07391e-07
1.07382e-07
1.07372e-07
1.07365e-07
1.07357e-07
1.07351e-07
1.07344e-07
1.07338e-07
1.0733e-07
1.07325e-07
1.07318e-07
1.07313e-07
1.07307e-07
1.07302e-07
1.07295e-07
1.0729e-07
1.07281e-07
1.07274e-07
1.07269e-07
1.07261e-07
1.07254e-07
1.07248e-07
1.07281e-07
1.08868e-07
9.24954e-08
2.45406e-08
1.23952e-07
1.2312e-07
1.2228e-07
1.21264e-07
1.20122e-07
1.18922e-07
1.17773e-07
1.16695e-07
1.15738e-07
1.14873e-07
1.14123e-07
1.13448e-07
1.12869e-07
1.12343e-07
1.11893e-07
1.1148e-07
1.11127e-07
1.10799e-07
1.10519e-07
1.10256e-07
1.10031e-07
1.09817e-07
1.09634e-07
1.09459e-07
1.09309e-07
1.09163e-07
1.09038e-07
1.08917e-07
1.08813e-07
1.0871e-07
1.08622e-07
1.08535e-07
1.0846e-07
1.08385e-07
1.08321e-07
1.08257e-07
1.08201e-07
1.08146e-07
1.08097e-07
1.08049e-07
1.08006e-07
1.07964e-07
1.07927e-07
1.07891e-07
1.07857e-07
1.07825e-07
1.07795e-07
1.07769e-07
1.07741e-07
1.07718e-07
1.07692e-07
1.07671e-07
1.07645e-07
1.0763e-07
1.07606e-07
1.07592e-07
1.07571e-07
1.07559e-07
1.07541e-07
1.07529e-07
1.07512e-07
1.07499e-07
1.07485e-07
1.07472e-07
1.07457e-07
1.07447e-07
1.07434e-07
1.07424e-07
1.0741e-07
1.07399e-07
1.07387e-07
1.07378e-07
1.07368e-07
1.07361e-07
1.07353e-07
1.07347e-07
1.07339e-07
1.07333e-07
1.07326e-07
1.0732e-07
1.07313e-07
1.07308e-07
1.07302e-07
1.07297e-07
1.0729e-07
1.07285e-07
1.07276e-07
1.07269e-07
1.07264e-07
1.07256e-07
1.07248e-07
1.07243e-07
1.07278e-07
1.08934e-07
8.81208e-08
2.5755e-08
1.23952e-07
1.23119e-07
1.2228e-07
1.21269e-07
1.20132e-07
1.18935e-07
1.17789e-07
1.16713e-07
1.15756e-07
1.14891e-07
1.14141e-07
1.13465e-07
1.12885e-07
1.12358e-07
1.11907e-07
1.11493e-07
1.11139e-07
1.1081e-07
1.10529e-07
1.10265e-07
1.10039e-07
1.09824e-07
1.09641e-07
1.09464e-07
1.09314e-07
1.09168e-07
1.09043e-07
1.0892e-07
1.08816e-07
1.08712e-07
1.08624e-07
1.08536e-07
1.08461e-07
1.08386e-07
1.08322e-07
1.08257e-07
1.08201e-07
1.08145e-07
1.08097e-07
1.08049e-07
1.08005e-07
1.07963e-07
1.07926e-07
1.07889e-07
1.07855e-07
1.07823e-07
1.07793e-07
1.07767e-07
1.07739e-07
1.07715e-07
1.07689e-07
1.07668e-07
1.07642e-07
1.07627e-07
1.07603e-07
1.07589e-07
1.07568e-07
1.07555e-07
1.07537e-07
1.07526e-07
1.07508e-07
1.07495e-07
1.07481e-07
1.07468e-07
1.07453e-07
1.07443e-07
1.0743e-07
1.07419e-07
1.07406e-07
1.07395e-07
1.07382e-07
1.07373e-07
1.07363e-07
1.07356e-07
1.07348e-07
1.07342e-07
1.07334e-07
1.07328e-07
1.07321e-07
1.07315e-07
1.07308e-07
1.07303e-07
1.07297e-07
1.07292e-07
1.07285e-07
1.07279e-07
1.07271e-07
1.07264e-07
1.07259e-07
1.07251e-07
1.07243e-07
1.07238e-07
1.07274e-07
1.09002e-07
8.42081e-08
2.70363e-08
1.23951e-07
1.23118e-07
1.22281e-07
1.21274e-07
1.20142e-07
1.18949e-07
1.17806e-07
1.16732e-07
1.15776e-07
1.1491e-07
1.1416e-07
1.13483e-07
1.12902e-07
1.12374e-07
1.11922e-07
1.11507e-07
1.11152e-07
1.10822e-07
1.1054e-07
1.10274e-07
1.10048e-07
1.09832e-07
1.09648e-07
1.09471e-07
1.0932e-07
1.09173e-07
1.09047e-07
1.08924e-07
1.08819e-07
1.08715e-07
1.08626e-07
1.08538e-07
1.08463e-07
1.08387e-07
1.08322e-07
1.08258e-07
1.08201e-07
1.08145e-07
1.08096e-07
1.08048e-07
1.08004e-07
1.07962e-07
1.07924e-07
1.07888e-07
1.07853e-07
1.07821e-07
1.07791e-07
1.07764e-07
1.07736e-07
1.07713e-07
1.07687e-07
1.07665e-07
1.07639e-07
1.07623e-07
1.07599e-07
1.07586e-07
1.07564e-07
1.07552e-07
1.07533e-07
1.07522e-07
1.07504e-07
1.07491e-07
1.07477e-07
1.07464e-07
1.07449e-07
1.07439e-07
1.07426e-07
1.07415e-07
1.07401e-07
1.0739e-07
1.07378e-07
1.07369e-07
1.07359e-07
1.07352e-07
1.07343e-07
1.07337e-07
1.07329e-07
1.07323e-07
1.07315e-07
1.0731e-07
1.07303e-07
1.07297e-07
1.07291e-07
1.07286e-07
1.07279e-07
1.07274e-07
1.07266e-07
1.07259e-07
1.07254e-07
1.07246e-07
1.07237e-07
1.07233e-07
1.0727e-07
1.09074e-07
8.07077e-08
2.83874e-08
1.23951e-07
1.23116e-07
1.22282e-07
1.2128e-07
1.20152e-07
1.18964e-07
1.17824e-07
1.16752e-07
1.15796e-07
1.14931e-07
1.1418e-07
1.13502e-07
1.1292e-07
1.12391e-07
1.11937e-07
1.11521e-07
1.11165e-07
1.10834e-07
1.10551e-07
1.10285e-07
1.10057e-07
1.0984e-07
1.09656e-07
1.09478e-07
1.09326e-07
1.09178e-07
1.09052e-07
1.08928e-07
1.08823e-07
1.08718e-07
1.08629e-07
1.0854e-07
1.08464e-07
1.08388e-07
1.08323e-07
1.08258e-07
1.08202e-07
1.08145e-07
1.08096e-07
1.08047e-07
1.08004e-07
1.07961e-07
1.07923e-07
1.07886e-07
1.07852e-07
1.07819e-07
1.07789e-07
1.07762e-07
1.07734e-07
1.0771e-07
1.07684e-07
1.07662e-07
1.07636e-07
1.0762e-07
1.07596e-07
1.07582e-07
1.0756e-07
1.07548e-07
1.07529e-07
1.07518e-07
1.075e-07
1.07487e-07
1.07472e-07
1.0746e-07
1.07444e-07
1.07434e-07
1.07421e-07
1.0741e-07
1.07397e-07
1.07386e-07
1.07373e-07
1.07364e-07
1.07354e-07
1.07347e-07
1.07338e-07
1.07332e-07
1.07324e-07
1.07318e-07
1.0731e-07
1.07304e-07
1.07297e-07
1.07292e-07
1.07285e-07
1.0728e-07
1.07273e-07
1.07268e-07
1.0726e-07
1.07253e-07
1.07248e-07
1.0724e-07
1.07231e-07
1.07227e-07
1.07266e-07
1.09148e-07
7.75775e-08
2.98109e-08
1.23951e-07
1.23115e-07
1.22283e-07
1.21285e-07
1.20163e-07
1.1898e-07
1.17843e-07
1.16772e-07
1.15818e-07
1.14952e-07
1.142e-07
1.13522e-07
1.12939e-07
1.12409e-07
1.11954e-07
1.11537e-07
1.11179e-07
1.10847e-07
1.10563e-07
1.10296e-07
1.10067e-07
1.09849e-07
1.09664e-07
1.09485e-07
1.09332e-07
1.09184e-07
1.09057e-07
1.08933e-07
1.08827e-07
1.08722e-07
1.08632e-07
1.08543e-07
1.08466e-07
1.0839e-07
1.08324e-07
1.08259e-07
1.08202e-07
1.08145e-07
1.08096e-07
1.08047e-07
1.08003e-07
1.0796e-07
1.07922e-07
1.07884e-07
1.0785e-07
1.07817e-07
1.07787e-07
1.07759e-07
1.07731e-07
1.07707e-07
1.07681e-07
1.07659e-07
1.07633e-07
1.07617e-07
1.07592e-07
1.07578e-07
1.07556e-07
1.07544e-07
1.07525e-07
1.07513e-07
1.07496e-07
1.07483e-07
1.07468e-07
1.07455e-07
1.0744e-07
1.0743e-07
1.07416e-07
1.07406e-07
1.07392e-07
1.07381e-07
1.07368e-07
1.07359e-07
1.07349e-07
1.07341e-07
1.07333e-07
1.07327e-07
1.07318e-07
1.07312e-07
1.07304e-07
1.07299e-07
1.07291e-07
1.07286e-07
1.07279e-07
1.07274e-07
1.07267e-07
1.07262e-07
1.07254e-07
1.07247e-07
1.07242e-07
1.07234e-07
1.07224e-07
1.07221e-07
1.07262e-07
1.09223e-07
7.47814e-08
3.13088e-08
1.23951e-07
1.23114e-07
1.22283e-07
1.21291e-07
1.20175e-07
1.18996e-07
1.17863e-07
1.16794e-07
1.15841e-07
1.14975e-07
1.14223e-07
1.13543e-07
1.12959e-07
1.12427e-07
1.11972e-07
1.11553e-07
1.11194e-07
1.10861e-07
1.10576e-07
1.10307e-07
1.10078e-07
1.09859e-07
1.09672e-07
1.09493e-07
1.09339e-07
1.0919e-07
1.09063e-07
1.08938e-07
1.08831e-07
1.08725e-07
1.08635e-07
1.08545e-07
1.08469e-07
1.08392e-07
1.08326e-07
1.0826e-07
1.08203e-07
1.08145e-07
1.08095e-07
1.08046e-07
1.08002e-07
1.07959e-07
1.0792e-07
1.07883e-07
1.07848e-07
1.07815e-07
1.07784e-07
1.07757e-07
1.07728e-07
1.07704e-07