/*--------------------------------*- C++ -*----------------------------------*\
| =========                 |                                                 |
| \\      /  F ield         | OpenFOAM: The Open Source CFD Toolbox           |
|  \\    /   O peration     | Version:  v2012                                 |
|   \\  /    A nd           | Website:  www.openfoam.com                      |
|    \\/     M anipulation  |                                                 |
\*---------------------------------------------------------------------------*/
FoamFile
{
    version     2.0;
    format      ascii;
    class       volScalarField;
    location    "48";
    object      yPlus;
}
// * * * * * * * * * * * * * * * * * * * * * * * * * * * * * * * * * * * * * //

dimensions      [0 0 0 0 0 0 0];


internalField   uniform 0;

boundaryField
{
    inlet
    {
        type            calculated;
        value           uniform 0;
    }
    outlet
    {
        type            calculated;
        value           uniform 0;
    }
    topWall
    {
        type            calculated;
        value           nonuniform List<scalar> 
545
(
0.111338
0.19198
0.246293
0.289517
0.326111
0.358132
0.386735
0.412648
0.436365
0.458243
0.478548
0.497486
0.51522
0.531884
0.547588
0.562422
0.576466
0.589787
0.602443
0.614484
0.625956
0.6369
0.647349
0.657337
0.666893
0.676043
0.68481
0.693218
0.701285
0.70903
0.716471
0.723622
0.7305
0.737117
0.743486
0.749619
0.755526
0.76122
0.766708
0.772001
0.777107
0.782033
0.786789
0.79138
0.795814
0.800098
0.804237
0.808237
0.812103
0.815842
0.819458
0.822956
0.826339
0.829614
0.832783
0.835851
0.838821
0.841697
0.844482
0.84718
0.849794
0.852326
0.85478
0.857158
0.859464
0.861698
0.863865
0.865966
0.868003
0.869979
0.871896
0.873755
0.875535
0.877258
0.878967
0.880663
0.882345
0.884014
0.88567
0.887312
0.888942
0.89056
0.892165
0.893757
0.895337
0.896905
0.89846
0.900004
0.901536
0.903056
0.904565
0.906062
0.907547
0.909022
0.910485
0.911937
0.913245
0.914416
0.915586
0.916756
0.917927
0.919097
0.920266
0.921436
0.922606
0.923775
0.924945
0.926114
0.927283
0.928452
0.92962
0.930789
0.931957
0.933125
0.934293
0.935461
0.936628
0.937796
0.938963
0.940129
0.941296
0.942462
0.943628
0.944794
0.945959
0.947125
0.948289
0.949454
0.950618
0.951782
0.952946
0.954109
0.955272
0.956435
0.957597
0.958759
0.959921
0.961082
0.962243
0.963404
0.964564
0.965723
0.966883
0.968041
0.9692
0.970358
0.971515
0.972672
0.973829
0.974985
0.976141
0.977296
0.978451
0.979605
0.980759
0.981912
0.983064
0.984216
0.985368
0.986519
0.987669
0.988819
0.989968
0.991117
0.992265
0.993412
0.994559
0.995705
0.996851
0.997996
0.99914
1.00028
1.00143
1.00257
1.00371
1.00485
1.00599
1.00713
1.00827
1.00941
1.01054
1.01168
1.01282
1.01395
1.01508
1.01622
1.01735
1.01848
1.01961
1.02074
1.02187
1.023
1.02413
1.02525
1.02638
1.0275
1.02863
1.02975
1.03087
1.03199
1.03311
1.03423
1.03535
1.03646
1.03758
1.03869
1.03981
1.04092
1.04203
1.04314
1.04425
1.04536
1.04647
1.04757
1.04868
1.04978
1.05088
1.05199
1.05309
1.05419
1.05528
1.05638
1.05748
1.05857
1.05966
1.06076
1.06185
1.06293
1.06402
1.06511
1.06619
1.06728
1.06836
1.06944
1.07052
1.0716
1.07268
1.07375
1.07483
1.0759
1.07697
1.07804
1.07911
1.08018
1.08124
1.08231
1.08337
1.08443
1.08549
1.08655
1.0876
1.08866
1.08971
1.09076
1.09181
1.09286
1.09391
1.09495
1.096
1.09704
1.09808
1.09912
1.10015
1.10119
1.10222
1.10325
1.10428
1.10531
1.10633
1.1073
1.10821
1.10913
1.11006
1.11099
1.11193
1.11287
1.11382
1.11478
1.11574
1.11671
1.11769
1.11867
1.11966
1.12066
1.12166
1.12267
1.12369
1.12471
1.12574
1.12677
1.12781
1.12886
1.12991
1.13097
1.13204
1.13311
1.13419
1.13527
1.13636
1.13746
1.13856
1.13967
1.14078
1.1419
1.14303
1.14416
1.14529
1.14644
1.14758
1.14874
1.1499
1.15106
1.15223
1.1534
1.15458
1.15577
1.15696
1.15815
1.15935
1.16055
1.16176
1.16297
1.16419
1.16541
1.16663
1.16786
1.1691
1.17033
1.17157
1.17282
1.17407
1.17532
1.17657
1.17783
1.17909
1.18035
1.18161
1.18288
1.18415
1.18542
1.18669
1.18797
1.18924
1.19052
1.1918
1.19308
1.19436
1.19564
1.19692
1.1982
1.19948
1.20076
1.20204
1.20332
1.2046
1.20588
1.20716
1.20843
1.2097
1.21097
1.21224
1.21351
1.21477
1.21603
1.21729
1.21854
1.21979
1.22103
1.22227
1.2235
1.22473
1.22596
1.22718
1.22839
1.22959
1.23079
1.23199
1.23317
1.23435
1.23552
1.23668
1.23783
1.23898
1.24011
1.24124
1.24235
1.24346
1.24455
1.24564
1.24671
1.24777
1.24882
1.24986
1.25088
1.25189
1.25289
1.25388
1.25485
1.2558
1.25675
1.25767
1.25858
1.25948
1.26036
1.26123
1.26207
1.2629
1.26372
1.26451
1.26529
1.26605
1.26679
1.26752
1.26822
1.26891
1.26957
1.27022
1.27084
1.27144
1.27203
1.27259
1.27313
1.27365
1.27415
1.27463
1.27508
1.27552
1.27593
1.27631
1.27668
1.27702
1.27734
1.27763
1.27791
1.27816
1.27838
1.27858
1.27876
1.27891
1.27904
1.27915
1.27923
1.27929
1.27933
1.27934
1.27932
1.27929
1.27923
1.27914
1.27904
1.27889
1.27869
1.27847
1.27821
1.27793
1.27762
1.27729
1.27693
1.27655
1.27615
1.27573
1.27529
1.27483
1.27436
1.27387
1.27336
1.27284
1.27231
1.27177
1.27121
1.27065
1.27007
1.26949
1.2689
1.26831
1.2677
1.2671
1.26649
1.26587
1.26525
1.26463
1.26401
1.26338
1.26275
1.26213
1.2615
1.26088
1.26026
1.25963
1.25902
1.2584
1.25779
1.25718
1.25657
1.25597
1.25538
1.25479
1.25421
1.25363
1.25306
1.2525
1.25194
1.2514
1.25086
1.25033
1.24981
1.24929
1.24879
1.2483
1.24782
1.24734
1.24688
1.24643
1.24599
1.24556
1.24514
1.24474
1.24435
1.24397
1.2436
1.24324
1.2429
1.24257
1.24226
1.24196
1.24167
1.24139
1.24113
1.24089
1.24066
1.24044
1.24024
1.24005
1.23988
1.23972
1.23957
1.23945
1.23933
1.23923
1.23915
1.23909
1.23903
1.239
1.23898
1.23897
)
;
    }
    bottomWall
    {
        type            calculated;
        value           nonuniform List<scalar> 
449
(
0.13939
0.0889306
0.0757972
0.0694477
0.0652989
0.0622359
0.0598671
0.058077
0.0569567
0.0568677
0.0588008
0.0628836
0.0662292
0.0682444
0.0693373
0.0699262
0.0702153
0.0703134
0.0702693
0.0701488
0.0699741
0.0697651
0.0695384
0.0693038
0.0690672
0.068832
0.0686001
0.0683731
0.0681519
0.0679369
0.0677284
0.0675262
0.0673303
0.0671405
0.0669565
0.0667781
0.0666049
0.0664368
0.0662737
0.0661153
0.0659614
0.0658118
0.0656663
0.0655246
0.0653867
0.0652522
0.0651212
0.0649933
0.0648685
0.0647464
0.0646266
0.064509
0.0643935
0.0642799
0.0641685
0.0640589
0.0639514
0.0638458
0.0637421
0.0636402
0.0635402
0.0634418
0.0633452
0.0632501
0.0631567
0.0630648
0.0629744
0.0628854
0.0627979
0.0627117
0.0626267
0.062543
0.0624605
0.0623793
0.0622992
0.0622203
0.0621425
0.0620658
0.0619902
0.0619156
0.061842
0.0617694
0.0616978
0.0616271
0.0615574
0.0614885
0.0614205
0.0613533
0.061287
0.0612215
0.0611567
0.0610927
0.0610295
0.060967
0.0609052
0.0608441
0.0607838
0.0607241
0.060665
0.0606066
0.0605488
0.0604916
0.060435
0.0603789
0.0603234
0.0602685
0.0602141
0.0601603
0.060107
0.0600543
0.060002
0.0599503
0.059899
0.0598482
0.059798
0.0597481
0.0596988
0.0596498
0.0596014
0.0595533
0.0595057
0.0594585
0.0594117
0.0593653
0.0593194
0.0592738
0.0592285
0.0591837
0.0591392
0.0590951
0.0590514
0.059008
0.0589649
0.0589222
0.0588798
0.0588378
0.058796
0.0587546
0.0587135
0.0586728
0.0586323
0.0585921
0.0585522
0.0585126
0.0584733
0.0584342
0.0583955
0.058357
0.0583187
0.0582807
0.058243
0.0582055
0.0581682
0.0581312
0.0580945
0.058058
0.0580218
0.0579857
0.0579499
0.0579144
0.0578791
0.057844
0.0578091
0.0577744
0.05774
0.0577057
0.0576717
0.0576379
0.0576043
0.0575708
0.0575376
0.0575046
0.0574718
0.057441
0.057412
0.0573829
0.0573537
0.0573244
0.0572951
0.0572656
0.057236
0.0572063
0.0571766
0.0571467
0.0571167
0.0570866
0.0570565
0.0570262
0.0569959
0.0569654
0.0569349
0.0569043
0.0568736
0.0568427
0.0568118
0.0567808
0.0567498
0.0567186
0.0566873
0.056656
0.0566246
0.056593
0.0565614
0.0565298
0.056498
0.0564661
0.0564342
0.0564022
0.0563701
0.0563379
0.0563057
0.0562733
0.0562409
0.0562084
0.0561758
0.0561431
0.0561103
0.0560774
0.0560445
0.0560115
0.0559785
0.0559453
0.0559121
0.0558788
0.0558455
0.0558121
0.0557786
0.055745
0.0557114
0.0556777
0.055644
0.0556102
0.0555763
0.0555423
0.0555083
0.0554743
0.0554402
0.055406
0.0553717
0.0553374
0.0553031
0.0552687
0.0552342
0.0551997
0.0551651
0.0551304
0.0550958
0.055061
0.0550262
0.0549914
0.0549565
0.0549216
0.0548866
0.0548515
0.0548164
0.0547813
0.0547461
0.0547109
0.0546756
0.0546403
0.054605
0.0545696
0.0545341
0.0544987
0.0544632
0.0544276
0.054392
0.0543564
0.0543207
0.054285
0.0542493
0.0542135
0.0541777
0.0541419
0.0541059
0.05407
0.054034
0.053998
0.0539619
0.0539259
0.0538898
0.0538536
0.0538175
0.0537813
0.0537451
0.0537089
0.0536726
0.0536363
0.0536001
0.0535637
0.0535274
0.0534911
0.0534547
0.0534183
0.053382
0.0533456
0.0533091
0.0532727
0.0532363
0.0531998
0.0531633
0.0531269
0.0530904
0.0530539
0.0530174
0.0529809
0.0529444
0.0529079
0.0528714
0.0528349
0.0527984
0.0527619
0.0527253
0.0526888
0.0526523
0.0526158
0.0525793
0.0525428
0.0525063
0.0524698
0.0524334
0.0523969
0.0523604
0.052324
0.0522875
0.0522511
0.0522147
0.0521783
0.0521419
0.0521055
0.0520691
0.0520327
0.0519963
0.0519599
0.0519236
0.0518873
0.051851
0.0518147
0.0517784
0.0517422
0.0517059
0.0516697
0.0516336
0.0515974
0.0515613
0.0515252
0.0514891
0.0514531
0.0514171
0.0513811
0.0513452
0.0513092
0.0512734
0.0512375
0.0511976
0.0511542
0.0511115
0.0510692
0.0510276
0.0509865
0.050946
0.050906
0.0508666
0.0508277
0.0507893
0.0507513
0.0507139
0.0506769
0.0506404
0.0506043
0.0505687
0.0505335
0.0504988
0.0504644
0.0504305
0.0503969
0.0503638
0.050331
0.0502986
0.0502666
0.0502349
0.0502036
0.0501726
0.0501419
0.0501116
0.0500816
0.0500519
0.0500225
0.0499935
0.0499646
0.0499362
0.0499079
0.0498801
0.0498524
0.0498251
0.049798
0.0497712
0.0497446
0.0497183
0.0496922
0.0496664
0.0496408
0.0496156
0.0495904
0.0495656
0.049541
0.0495166
0.0494924
0.0494684
0.0494446
0.0494211
0.0493978
0.0493747
0.0493517
0.049329
0.0493064
0.0492841
0.0492618
0.0492399
0.049218
0.0491965
0.0491749
0.0491538
0.0491325
0.0491117
0.0490908
0.0490703
0.0490497
0.0490296
0.0490092
0.0489894
0.0489693
0.0489498
0.04893
0.0489108
0.0488912
0.0488724
0.0488529
0.0488344
0.0488151
0.0487967
0.0487779
0.0487591
0.0487418
0.0487202
0.0487087
0.0486768
0.0486831
0.0486394
)
;
    }
    symmetry
    {
        type            symmetryPlane;
    }
    frontAndBack
    {
        type            empty;
    }
}


// ************************************************************************* //
