/*--------------------------------*- C++ -*----------------------------------*\
| =========                 |                                                 |
| \\      /  F ield         | OpenFOAM: The Open Source CFD Toolbox           |
|  \\    /   O peration     | Version:  v2012                                 |
|   \\  /    A nd           | Website:  www.openfoam.com                      |
|    \\/     M anipulation  |                                                 |
\*---------------------------------------------------------------------------*/
FoamFile
{
    version     2.0;
    format      ascii;
    class       volVectorField;
    location    "26";
    object      wallShearStress;
}
// * * * * * * * * * * * * * * * * * * * * * * * * * * * * * * * * * * * * * //

dimensions      [0 2 -2 0 0 0 0];


internalField   uniform (0 0 0);

boundaryField
{
    inlet
    {
        type            calculated;
        value           uniform (0 0 0);
    }
    outlet
    {
        type            calculated;
        value           uniform (0 0 0);
    }
    topWall
    {
        type            calculated;
        value           nonuniform List<vector> 
545
(
(5.67763e-08 -3.99479e-08 0)
(5.67917e-08 -1.11863e-07 0)
(5.67156e-08 -1.86574e-07 0)
(5.66364e-08 -2.59078e-07 0)
(5.6555e-08 -3.2846e-07 0)
(5.64605e-08 -3.95613e-07 0)
(5.6354e-08 -4.6111e-07 0)
(5.62357e-08 -5.24919e-07 0)
(5.61066e-08 -5.869e-07 0)
(5.59677e-08 -6.4705e-07 0)
(5.58199e-08 -7.05447e-07 0)
(5.56642e-08 -7.62159e-07 0)
(5.55013e-08 -8.17224e-07 0)
(5.5332e-08 -8.70677e-07 0)
(5.5157e-08 -9.22556e-07 0)
(5.49769e-08 -9.72903e-07 0)
(5.47926e-08 -1.02176e-06 0)
(5.46044e-08 -1.06917e-06 0)
(5.4413e-08 -1.11517e-06 0)
(5.42189e-08 -1.15979e-06 0)
(5.40226e-08 -1.20308e-06 0)
(5.38246e-08 -1.24508e-06 0)
(5.36251e-08 -1.28582e-06 0)
(5.34248e-08 -1.32534e-06 0)
(5.32237e-08 -1.36367e-06 0)
(5.30225e-08 -1.40085e-06 0)
(5.28212e-08 -1.43691e-06 0)
(5.26203e-08 -1.47188e-06 0)
(5.24199e-08 -1.50581e-06 0)
(5.22203e-08 -1.53871e-06 0)
(5.20218e-08 -1.57063e-06 0)
(5.18244e-08 -1.60158e-06 0)
(5.16285e-08 -1.63161e-06 0)
(5.14341e-08 -1.66073e-06 0)
(5.12415e-08 -1.68898e-06 0)
(5.10507e-08 -1.71638e-06 0)
(5.08618e-08 -1.74296e-06 0)
(5.0675e-08 -1.76874e-06 0)
(5.04904e-08 -1.79375e-06 0)
(5.03081e-08 -1.81802e-06 0)
(5.01281e-08 -1.84155e-06 0)
(4.99504e-08 -1.86439e-06 0)
(4.97753e-08 -1.88654e-06 0)
(4.96026e-08 -1.90804e-06 0)
(4.94324e-08 -1.9289e-06 0)
(4.92648e-08 -1.94914e-06 0)
(4.90998e-08 -1.96877e-06 0)
(4.89374e-08 -1.98783e-06 0)
(4.87776e-08 -2.00632e-06 0)
(4.86204e-08 -2.02427e-06 0)
(4.84659e-08 -2.04169e-06 0)
(4.8314e-08 -2.05859e-06 0)
(4.81647e-08 -2.075e-06 0)
(4.80179e-08 -2.09092e-06 0)
(4.78738e-08 -2.10638e-06 0)
(4.77323e-08 -2.12139e-06 0)
(4.75932e-08 -2.13596e-06 0)
(4.74568e-08 -2.1501e-06 0)
(4.73228e-08 -2.16383e-06 0)
(4.71912e-08 -2.17716e-06 0)
(4.70621e-08 -2.19011e-06 0)
(4.69355e-08 -2.20267e-06 0)
(4.68111e-08 -2.21488e-06 0)
(4.66891e-08 -2.22673e-06 0)
(4.65694e-08 -2.23824e-06 0)
(4.6452e-08 -2.24942e-06 0)
(4.63368e-08 -2.26027e-06 0)
(4.62237e-08 -2.27081e-06 0)
(4.61128e-08 -2.28105e-06 0)
(4.60038e-08 -2.291e-06 0)
(4.58979e-08 -2.30067e-06 0)
(4.5789e-08 -2.31003e-06 0)
(4.56853e-08 -2.31903e-06 0)
(4.5592e-08 -2.3278e-06 0)
(4.54988e-08 -2.33643e-06 0)
(4.5406e-08 -2.34501e-06 0)
(4.53132e-08 -2.35356e-06 0)
(4.52206e-08 -2.36206e-06 0)
(4.5128e-08 -2.37049e-06 0)
(4.50356e-08 -2.37887e-06 0)
(4.49433e-08 -2.38719e-06 0)
(4.48511e-08 -2.39546e-06 0)
(4.4759e-08 -2.40367e-06 0)
(4.46671e-08 -2.41183e-06 0)
(4.45752e-08 -2.41993e-06 0)
(4.44835e-08 -2.42798e-06 0)
(4.43919e-08 -2.43598e-06 0)
(4.43005e-08 -2.44392e-06 0)
(4.42092e-08 -2.45181e-06 0)
(4.4118e-08 -2.45965e-06 0)
(4.4027e-08 -2.46744e-06 0)
(4.3936e-08 -2.47518e-06 0)
(4.38457e-08 -2.48287e-06 0)
(4.37533e-08 -2.49046e-06 0)
(4.36707e-08 -2.49815e-06 0)
(4.35466e-08 -2.50555e-06 0)
(4.34176e-08 -2.51224e-06 0)
(4.33409e-08 -2.5186e-06 0)
(4.32679e-08 -2.52463e-06 0)
(4.31955e-08 -2.53059e-06 0)
(4.31231e-08 -2.53667e-06 0)
(4.30504e-08 -2.54279e-06 0)
(4.29774e-08 -2.54889e-06 0)
(4.29041e-08 -2.55498e-06 0)
(4.28305e-08 -2.56108e-06 0)
(4.27566e-08 -2.56718e-06 0)
(4.26823e-08 -2.57329e-06 0)
(4.26077e-08 -2.5794e-06 0)
(4.25328e-08 -2.58551e-06 0)
(4.24575e-08 -2.59163e-06 0)
(4.23819e-08 -2.59775e-06 0)
(4.2306e-08 -2.60388e-06 0)
(4.22297e-08 -2.61001e-06 0)
(4.21532e-08 -2.61614e-06 0)
(4.20762e-08 -2.62228e-06 0)
(4.1999e-08 -2.62841e-06 0)
(4.19214e-08 -2.63456e-06 0)
(4.18435e-08 -2.6407e-06 0)
(4.17653e-08 -2.64685e-06 0)
(4.16867e-08 -2.653e-06 0)
(4.16078e-08 -2.65915e-06 0)
(4.15285e-08 -2.66531e-06 0)
(4.1449e-08 -2.67147e-06 0)
(4.1369e-08 -2.67763e-06 0)
(4.12888e-08 -2.68379e-06 0)
(4.12082e-08 -2.68996e-06 0)
(4.11272e-08 -2.69613e-06 0)
(4.1046e-08 -2.7023e-06 0)
(4.09644e-08 -2.70848e-06 0)
(4.08824e-08 -2.71465e-06 0)
(4.08001e-08 -2.72083e-06 0)
(4.07175e-08 -2.72701e-06 0)
(4.06345e-08 -2.73319e-06 0)
(4.05512e-08 -2.73938e-06 0)
(4.04675e-08 -2.74556e-06 0)
(4.03835e-08 -2.75175e-06 0)
(4.02992e-08 -2.75794e-06 0)
(4.02145e-08 -2.76413e-06 0)
(4.01294e-08 -2.77033e-06 0)
(4.0044e-08 -2.77652e-06 0)
(3.99583e-08 -2.78272e-06 0)
(3.98722e-08 -2.78891e-06 0)
(3.97858e-08 -2.79511e-06 0)
(3.9699e-08 -2.80131e-06 0)
(3.96119e-08 -2.80751e-06 0)
(3.95244e-08 -2.81371e-06 0)
(3.94366e-08 -2.81991e-06 0)
(3.93484e-08 -2.82611e-06 0)
(3.92599e-08 -2.83232e-06 0)
(3.9171e-08 -2.83852e-06 0)
(3.90818e-08 -2.84473e-06 0)
(3.89922e-08 -2.85093e-06 0)
(3.89022e-08 -2.85714e-06 0)
(3.8812e-08 -2.86334e-06 0)
(3.87213e-08 -2.86955e-06 0)
(3.86303e-08 -2.87575e-06 0)
(3.8539e-08 -2.88196e-06 0)
(3.84473e-08 -2.88816e-06 0)
(3.83552e-08 -2.89437e-06 0)
(3.82628e-08 -2.90057e-06 0)
(3.81701e-08 -2.90678e-06 0)
(3.80769e-08 -2.91298e-06 0)
(3.79835e-08 -2.91919e-06 0)
(3.78896e-08 -2.92539e-06 0)
(3.77954e-08 -2.93159e-06 0)
(3.77009e-08 -2.93779e-06 0)
(3.7606e-08 -2.94399e-06 0)
(3.75108e-08 -2.95019e-06 0)
(3.74152e-08 -2.95639e-06 0)
(3.73192e-08 -2.96258e-06 0)
(3.72229e-08 -2.96878e-06 0)
(3.71262e-08 -2.97497e-06 0)
(3.70292e-08 -2.98117e-06 0)
(3.69318e-08 -2.98736e-06 0)
(3.6834e-08 -2.99354e-06 0)
(3.67359e-08 -2.99973e-06 0)
(3.66374e-08 -3.00592e-06 0)
(3.65386e-08 -3.0121e-06 0)
(3.64394e-08 -3.01828e-06 0)
(3.63399e-08 -3.02446e-06 0)
(3.624e-08 -3.03063e-06 0)
(3.61398e-08 -3.03681e-06 0)
(3.60392e-08 -3.04298e-06 0)
(3.59382e-08 -3.04915e-06 0)
(3.58369e-08 -3.05531e-06 0)
(3.57352e-08 -3.06147e-06 0)
(3.56332e-08 -3.06763e-06 0)
(3.55308e-08 -3.07379e-06 0)
(3.54281e-08 -3.07994e-06 0)
(3.5325e-08 -3.08609e-06 0)
(3.52215e-08 -3.09224e-06 0)
(3.51177e-08 -3.09838e-06 0)
(3.50136e-08 -3.10452e-06 0)
(3.4909e-08 -3.11065e-06 0)
(3.48042e-08 -3.11678e-06 0)
(3.46989e-08 -3.12291e-06 0)
(3.45934e-08 -3.12903e-06 0)
(3.44874e-08 -3.13515e-06 0)
(3.43812e-08 -3.14126e-06 0)
(3.42745e-08 -3.14737e-06 0)
(3.41675e-08 -3.15348e-06 0)
(3.40602e-08 -3.15958e-06 0)
(3.39525e-08 -3.16567e-06 0)
(3.38445e-08 -3.17176e-06 0)
(3.37361e-08 -3.17784e-06 0)
(3.36273e-08 -3.18392e-06 0)
(3.35182e-08 -3.19e-06 0)
(3.34088e-08 -3.19607e-06 0)
(3.3299e-08 -3.20213e-06 0)
(3.31889e-08 -3.20819e-06 0)
(3.30784e-08 -3.21424e-06 0)
(3.29676e-08 -3.22028e-06 0)
(3.28564e-08 -3.22632e-06 0)
(3.27449e-08 -3.23236e-06 0)
(3.2633e-08 -3.23838e-06 0)
(3.25208e-08 -3.2444e-06 0)
(3.24083e-08 -3.25041e-06 0)
(3.22954e-08 -3.25642e-06 0)
(3.21822e-08 -3.26242e-06 0)
(3.20686e-08 -3.26841e-06 0)
(3.19547e-08 -3.2744e-06 0)
(3.18405e-08 -3.28038e-06 0)
(3.17259e-08 -3.28635e-06 0)
(3.1611e-08 -3.29231e-06 0)
(3.14957e-08 -3.29827e-06 0)
(3.13802e-08 -3.30422e-06 0)
(3.12643e-08 -3.31015e-06 0)
(3.1148e-08 -3.31609e-06 0)
(3.10314e-08 -3.32201e-06 0)
(3.09145e-08 -3.32793e-06 0)
(3.07973e-08 -3.33383e-06 0)
(3.06797e-08 -3.33973e-06 0)
(3.05619e-08 -3.34562e-06 0)
(3.04436e-08 -3.3515e-06 0)
(3.03251e-08 -3.35737e-06 0)
(3.02063e-08 -3.36323e-06 0)
(3.00871e-08 -3.36909e-06 0)
(2.99676e-08 -3.37493e-06 0)
(2.98478e-08 -3.38076e-06 0)
(2.97276e-08 -3.38659e-06 0)
(2.96072e-08 -3.3924e-06 0)
(2.94864e-08 -3.39821e-06 0)
(2.93654e-08 -3.404e-06 0)
(2.9244e-08 -3.40979e-06 0)
(2.91223e-08 -3.41556e-06 0)
(2.90003e-08 -3.42132e-06 0)
(2.8878e-08 -3.42707e-06 0)
(2.87554e-08 -3.43282e-06 0)
(2.86325e-08 -3.43855e-06 0)
(2.85093e-08 -3.44427e-06 0)
(2.83857e-08 -3.44997e-06 0)
(2.82619e-08 -3.45567e-06 0)
(2.81378e-08 -3.46136e-06 0)
(2.80134e-08 -3.46703e-06 0)
(2.78887e-08 -3.47269e-06 0)
(2.77638e-08 -3.47834e-06 0)
(2.76385e-08 -3.48398e-06 0)
(2.75129e-08 -3.4896e-06 0)
(2.73871e-08 -3.49521e-06 0)
(2.7261e-08 -3.50081e-06 0)
(2.71346e-08 -3.5064e-06 0)
(2.70079e-08 -3.51197e-06 0)
(2.68809e-08 -3.51754e-06 0)
(2.67537e-08 -3.52308e-06 0)
(2.66262e-08 -3.52862e-06 0)
(2.64987e-08 -3.53415e-06 0)
(2.63697e-08 -3.53962e-06 0)
(2.62479e-08 -3.54523e-06 0)
(2.61016e-08 -3.55058e-06 0)
(2.59439e-08 -3.55561e-06 0)
(2.58218e-08 -3.56073e-06 0)
(2.57107e-08 -3.5656e-06 0)
(2.55971e-08 -3.57042e-06 0)
(2.54828e-08 -3.57536e-06 0)
(2.53673e-08 -3.58036e-06 0)
(2.52504e-08 -3.58539e-06 0)
(2.51321e-08 -3.59043e-06 0)
(2.50126e-08 -3.5955e-06 0)
(2.48916e-08 -3.6006e-06 0)
(2.47694e-08 -3.60574e-06 0)
(2.46457e-08 -3.6109e-06 0)
(2.45207e-08 -3.6161e-06 0)
(2.43943e-08 -3.62132e-06 0)
(2.42665e-08 -3.62658e-06 0)
(2.41373e-08 -3.63186e-06 0)
(2.40068e-08 -3.63717e-06 0)
(2.38748e-08 -3.64251e-06 0)
(2.37414e-08 -3.64788e-06 0)
(2.36065e-08 -3.65327e-06 0)
(2.34703e-08 -3.6587e-06 0)
(2.33326e-08 -3.66414e-06 0)
(2.31934e-08 -3.66962e-06 0)
(2.30528e-08 -3.67512e-06 0)
(2.29107e-08 -3.68065e-06 0)
(2.27672e-08 -3.68621e-06 0)
(2.26222e-08 -3.69179e-06 0)
(2.24756e-08 -3.69739e-06 0)
(2.23276e-08 -3.70302e-06 0)
(2.21781e-08 -3.70867e-06 0)
(2.20271e-08 -3.71434e-06 0)
(2.18745e-08 -3.72003e-06 0)
(2.17205e-08 -3.72575e-06 0)
(2.15649e-08 -3.73149e-06 0)
(2.14077e-08 -3.73725e-06 0)
(2.12491e-08 -3.74302e-06 0)
(2.10888e-08 -3.74882e-06 0)
(2.0927e-08 -3.75464e-06 0)
(2.07637e-08 -3.76047e-06 0)
(2.05988e-08 -3.76632e-06 0)
(2.04323e-08 -3.77219e-06 0)
(2.02642e-08 -3.77807e-06 0)
(2.00946e-08 -3.78396e-06 0)
(1.99234e-08 -3.78987e-06 0)
(1.97506e-08 -3.7958e-06 0)
(1.95762e-08 -3.80173e-06 0)
(1.94002e-08 -3.80768e-06 0)
(1.92226e-08 -3.81363e-06 0)
(1.90435e-08 -3.8196e-06 0)
(1.88627e-08 -3.82557e-06 0)
(1.86803e-08 -3.83155e-06 0)
(1.84964e-08 -3.83753e-06 0)
(1.83108e-08 -3.84352e-06 0)
(1.81236e-08 -3.84952e-06 0)
(1.79349e-08 -3.85551e-06 0)
(1.77446e-08 -3.86151e-06 0)
(1.75526e-08 -3.86751e-06 0)
(1.73591e-08 -3.8735e-06 0)
(1.7164e-08 -3.8795e-06 0)
(1.69674e-08 -3.88549e-06 0)
(1.67691e-08 -3.89147e-06 0)
(1.65693e-08 -3.89745e-06 0)
(1.63679e-08 -3.90342e-06 0)
(1.6165e-08 -3.90938e-06 0)
(1.59605e-08 -3.91534e-06 0)
(1.57545e-08 -3.92127e-06 0)
(1.5547e-08 -3.9272e-06 0)
(1.5338e-08 -3.93311e-06 0)
(1.51274e-08 -3.939e-06 0)
(1.49154e-08 -3.94487e-06 0)
(1.47019e-08 -3.95073e-06 0)
(1.44869e-08 -3.95655e-06 0)
(1.42705e-08 -3.96236e-06 0)
(1.40527e-08 -3.96814e-06 0)
(1.38334e-08 -3.9739e-06 0)
(1.36128e-08 -3.97962e-06 0)
(1.33907e-08 -3.98531e-06 0)
(1.31673e-08 -3.99097e-06 0)
(1.29426e-08 -3.9966e-06 0)
(1.27166e-08 -4.00218e-06 0)
(1.24893e-08 -4.00773e-06 0)
(1.22607e-08 -4.01324e-06 0)
(1.20309e-08 -4.0187e-06 0)
(1.17998e-08 -4.02412e-06 0)
(1.15676e-08 -4.02949e-06 0)
(1.13342e-08 -4.0348e-06 0)
(1.10998e-08 -4.04007e-06 0)
(1.08642e-08 -4.04528e-06 0)
(1.06275e-08 -4.05044e-06 0)
(1.03899e-08 -4.05553e-06 0)
(1.01512e-08 -4.06057e-06 0)
(9.91165e-09 -4.06554e-06 0)
(9.67116e-09 -4.07044e-06 0)
(9.42978e-09 -4.07528e-06 0)
(9.18759e-09 -4.08004e-06 0)
(8.9446e-09 -4.08473e-06 0)
(8.70088e-09 -4.08934e-06 0)
(8.45646e-09 -4.09387e-06 0)
(8.21139e-09 -4.09833e-06 0)
(7.96572e-09 -4.10269e-06 0)
(7.71951e-09 -4.10697e-06 0)
(7.47279e-09 -4.11116e-06 0)
(7.22564e-09 -4.11526e-06 0)
(6.97809e-09 -4.11926e-06 0)
(6.73021e-09 -4.12316e-06 0)
(6.48204e-09 -4.12696e-06 0)
(6.23367e-09 -4.13066e-06 0)
(5.98512e-09 -4.13425e-06 0)
(5.73649e-09 -4.13774e-06 0)
(5.48782e-09 -4.1411e-06 0)
(5.23918e-09 -4.14436e-06 0)
(4.99063e-09 -4.14749e-06 0)
(4.74225e-09 -4.15051e-06 0)
(4.49409e-09 -4.1534e-06 0)
(4.24624e-09 -4.15617e-06 0)
(3.99875e-09 -4.15881e-06 0)
(3.75171e-09 -4.16131e-06 0)
(3.50517e-09 -4.16368e-06 0)
(3.25924e-09 -4.16591e-06 0)
(3.01396e-09 -4.168e-06 0)
(2.76943e-09 -4.16995e-06 0)
(2.52571e-09 -4.17175e-06 0)
(2.28289e-09 -4.1734e-06 0)
(2.04104e-09 -4.1749e-06 0)
(1.80026e-09 -4.17624e-06 0)
(1.5606e-09 -4.17743e-06 0)
(1.32217e-09 -4.17845e-06 0)
(1.08503e-09 -4.17931e-06 0)
(8.49286e-10 -4.18001e-06 0)
(6.15004e-10 -4.18054e-06 0)
(3.82275e-10 -4.1809e-06 0)
(1.51183e-10 -4.18108e-06 0)
(-7.81846e-11 -4.18109e-06 0)
(-3.05743e-10 -4.18091e-06 0)
(-5.31406e-10 -4.18057e-06 0)
(-7.55085e-10 -4.18002e-06 0)
(-9.76695e-10 -4.17931e-06 0)
(-1.19614e-09 -4.17839e-06 0)
(-1.41335e-09 -4.1773e-06 0)
(-1.62822e-09 -4.176e-06 0)
(-1.84066e-09 -4.17452e-06 0)
(-2.05059e-09 -4.17283e-06 0)
(-2.25792e-09 -4.17096e-06 0)
(-2.46256e-09 -4.16887e-06 0)
(-2.66443e-09 -4.1666e-06 0)
(-2.86342e-09 -4.1641e-06 0)
(-3.05946e-09 -4.16142e-06 0)
(-3.25245e-09 -4.15852e-06 0)
(-3.44233e-09 -4.15542e-06 0)
(-3.62898e-09 -4.1521e-06 0)
(-3.81234e-09 -4.14858e-06 0)
(-3.99231e-09 -4.14484e-06 0)
(-4.16883e-09 -4.1409e-06 0)
(-4.34179e-09 -4.13674e-06 0)
(-4.51116e-09 -4.13238e-06 0)
(-4.67682e-09 -4.12778e-06 0)
(-4.83874e-09 -4.12299e-06 0)
(-4.99681e-09 -4.11797e-06 0)
(-5.151e-09 -4.11275e-06 0)
(-5.30123e-09 -4.1073e-06 0)
(-5.44746e-09 -4.10166e-06 0)
(-5.58961e-09 -4.09578e-06 0)
(-5.72766e-09 -4.0897e-06 0)
(-5.86152e-09 -4.0834e-06 0)
(-5.9912e-09 -4.0769e-06 0)
(-6.1166e-09 -4.07017e-06 0)
(-6.23773e-09 -4.06325e-06 0)
(-6.35452e-09 -4.0561e-06 0)
(-6.46697e-09 -4.04876e-06 0)
(-6.575e-09 -4.0412e-06 0)
(-6.67864e-09 -4.03345e-06 0)
(-6.7778e-09 -4.02547e-06 0)
(-6.87251e-09 -4.01732e-06 0)
(-6.96267e-09 -4.00894e-06 0)
(-7.04832e-09 -4.00039e-06 0)
(-7.12936e-09 -3.99161e-06 0)
(-7.2058e-09 -3.98268e-06 0)
(-7.27763e-09 -3.97351e-06 0)
(-7.34441e-09 -3.96424e-06 0)
(-7.40831e-09 -3.95455e-06 0)
(-7.46083e-09 -3.94495e-06 0)
(-7.508e-09 -3.93419e-06 0)
(-7.56202e-09 -3.92179e-06 0)
(-7.613e-09 -3.90944e-06 0)
(-7.65729e-09 -3.89715e-06 0)
(-7.69509e-09 -3.8847e-06 0)
(-7.72655e-09 -3.87221e-06 0)
(-7.75177e-09 -3.85964e-06 0)
(-7.77103e-09 -3.84708e-06 0)
(-7.78445e-09 -3.83446e-06 0)
(-7.79236e-09 -3.82185e-06 0)
(-7.79487e-09 -3.80921e-06 0)
(-7.79232e-09 -3.79659e-06 0)
(-7.78479e-09 -3.78395e-06 0)
(-7.77262e-09 -3.77136e-06 0)
(-7.75588e-09 -3.75877e-06 0)
(-7.73488e-09 -3.74623e-06 0)
(-7.7097e-09 -3.7337e-06 0)
(-7.68063e-09 -3.72125e-06 0)
(-7.64771e-09 -3.70882e-06 0)
(-7.61124e-09 -3.69647e-06 0)
(-7.57124e-09 -3.68416e-06 0)
(-7.52799e-09 -3.67194e-06 0)
(-7.48149e-09 -3.65976e-06 0)
(-7.432e-09 -3.6477e-06 0)
(-7.37953e-09 -3.63568e-06 0)
(-7.32431e-09 -3.62379e-06 0)
(-7.26634e-09 -3.61195e-06 0)
(-7.20584e-09 -3.60025e-06 0)
(-7.14279e-09 -3.58861e-06 0)
(-7.07742e-09 -3.5771e-06 0)
(-7.00968e-09 -3.56568e-06 0)
(-6.93979e-09 -3.55439e-06 0)
(-6.86772e-09 -3.54319e-06 0)
(-6.79366e-09 -3.53214e-06 0)
(-6.71756e-09 -3.52118e-06 0)
(-6.63962e-09 -3.51038e-06 0)
(-6.55979e-09 -3.49967e-06 0)
(-6.47825e-09 -3.48913e-06 0)
(-6.39495e-09 -3.47868e-06 0)
(-6.31006e-09 -3.46841e-06 0)
(-6.22354e-09 -3.45824e-06 0)
(-6.13552e-09 -3.44824e-06 0)
(-6.04598e-09 -3.43836e-06 0)
(-5.95506e-09 -3.42866e-06 0)
(-5.8627e-09 -3.41907e-06 0)
(-5.76904e-09 -3.40966e-06 0)
(-5.67404e-09 -3.40038e-06 0)
(-5.57782e-09 -3.39128e-06 0)
(-5.48033e-09 -3.38231e-06 0)
(-5.3817e-09 -3.37353e-06 0)
(-5.28187e-09 -3.36488e-06 0)
(-5.18096e-09 -3.35641e-06 0)
(-5.07891e-09 -3.34809e-06 0)
(-4.97583e-09 -3.33996e-06 0)
(-4.87167e-09 -3.33197e-06 0)
(-4.76654e-09 -3.32418e-06 0)
(-4.66038e-09 -3.31653e-06 0)
(-4.55328e-09 -3.30908e-06 0)
(-4.44521e-09 -3.30177e-06 0)
(-4.33625e-09 -3.29467e-06 0)
(-4.22636e-09 -3.28773e-06 0)
(-4.11562e-09 -3.28098e-06 0)
(-4.00399e-09 -3.27439e-06 0)
(-3.89155e-09 -3.268e-06 0)
(-3.77827e-09 -3.26178e-06 0)
(-3.66421e-09 -3.25576e-06 0)
(-3.54936e-09 -3.2499e-06 0)
(-3.43377e-09 -3.24426e-06 0)
(-3.31743e-09 -3.23878e-06 0)
(-3.2004e-09 -3.2335e-06 0)
(-3.08265e-09 -3.2284e-06 0)
(-2.96424e-09 -3.22351e-06 0)
(-2.84517e-09 -3.21879e-06 0)
(-2.72547e-09 -3.21428e-06 0)
(-2.60514e-09 -3.20996e-06 0)
(-2.48422e-09 -3.20584e-06 0)
(-2.36271e-09 -3.2019e-06 0)
(-2.24064e-09 -3.19817e-06 0)
(-2.118e-09 -3.19463e-06 0)
(-1.99484e-09 -3.1913e-06 0)
(-1.87114e-09 -3.18816e-06 0)
(-1.74694e-09 -3.18522e-06 0)
(-1.62225e-09 -3.18248e-06 0)
(-1.49712e-09 -3.17996e-06 0)
(-1.3716e-09 -3.17762e-06 0)
(-1.24576e-09 -3.17551e-06 0)
(-1.11973e-09 -3.17352e-06 0)
(-9.93722e-10 -3.17203e-06 0)
(-8.67858e-10 -3.16978e-06 0)
(-7.42807e-10 -3.17087e-06 0)
(-6.17304e-10 -3.16153e-06 0)
(-4.95982e-10 -3.18634e-06 0)
(-3.60133e-10 -3.09028e-06 0)
(-2.75114e-10 -3.34356e-06 0)
(-1.33984e-10 -2.91995e-06 0)
)
;
    }
    bottomWall
    {
        type            calculated;
        value           nonuniform List<vector> 
449
(
(-52.8357 -0.957157 0)
(-34.8288 -0.00280576 0)
(-34.4302 -0.000257529 0)
(-33.0568 -0.000366276 0)
(-31.9225 -0.000317314 0)
(-30.8805 -0.000285792 0)
(-29.9583 -0.000250777 0)
(-29.1532 -0.000218703 0)
(-28.4487 -0.000191675 0)
(-27.8272 -0.00016955 0)
(-27.2732 -0.000151458 0)
(-26.7747 -0.000136525 0)
(-26.3222 -0.000124068 0)
(-25.9086 -0.000113447 0)
(-25.5284 -0.000104191 0)
(-25.1779 -9.60386e-05 0)
(-24.8534 -8.88688e-05 0)
(-24.5519 -8.25414e-05 0)
(-24.2707 -7.69569e-05 0)
(-24.0074 -7.20355e-05 0)
(-23.7598 -6.76606e-05 0)
(-23.5263 -6.37494e-05 0)
(-23.3055 -6.02511e-05 0)
(-23.096 -5.71009e-05 0)
(-22.8967 -5.42428e-05 0)
(-22.7067 -5.16448e-05 0)
(-22.5251 -4.9272e-05 0)
(-22.3514 -4.70982e-05 0)
(-22.1847 -4.50989e-05 0)
(-22.0247 -4.32448e-05 0)
(-21.8707 -4.15218e-05 0)
(-21.7225 -3.99244e-05 0)
(-21.5794 -3.8438e-05 0)
(-21.4414 -3.7051e-05 0)
(-21.3078 -3.5754e-05 0)
(-21.1787 -3.45313e-05 0)
(-21.0535 -3.3386e-05 0)
(-20.9322 -3.23057e-05 0)
(-20.8145 -3.1291e-05 0)
(-20.7002 -3.03282e-05 0)
(-20.589 -2.94163e-05 0)
(-20.481 -2.85501e-05 0)
(-20.3758 -2.77243e-05 0)
(-20.2734 -2.69299e-05 0)
(-20.1737 -2.61704e-05 0)
(-20.0766 -2.54406e-05 0)
(-19.982 -2.47407e-05 0)
(-19.8897 -2.40674e-05 0)
(-19.7997 -2.34203e-05 0)
(-19.7119 -2.28017e-05 0)
(-19.6262 -2.22063e-05 0)
(-19.5425 -2.1642e-05 0)
(-19.4607 -2.10957e-05 0)
(-19.3809 -2.05742e-05 0)
(-19.3027 -2.00739e-05 0)
(-19.2263 -1.95975e-05 0)
(-19.1515 -1.91386e-05 0)
(-19.0783 -1.86977e-05 0)
(-19.0065 -1.82737e-05 0)
(-18.9363 -1.7868e-05 0)
(-18.8674 -1.74754e-05 0)
(-18.7999 -1.71005e-05 0)
(-18.7335 -1.67354e-05 0)
(-18.6686 -1.63843e-05 0)
(-18.6047 -1.6046e-05 0)
(-18.5422 -1.57223e-05 0)
(-18.4805 -1.54067e-05 0)
(-18.4202 -1.51e-05 0)
(-18.3607 -1.4805e-05 0)
(-18.3024 -1.45173e-05 0)
(-18.245 -1.42387e-05 0)
(-18.1886 -1.39637e-05 0)
(-18.1331 -1.37036e-05 0)
(-18.0786 -1.34485e-05 0)
(-18.0249 -1.32024e-05 0)
(-17.9721 -1.29608e-05 0)
(-17.9201 -1.27279e-05 0)
(-17.8689 -1.24981e-05 0)
(-17.8185 -1.22769e-05 0)
(-17.769 -1.20585e-05 0)
(-17.7201 -1.18531e-05 0)
(-17.672 -1.1649e-05 0)
(-17.6246 -1.14547e-05 0)
(-17.5778 -1.12578e-05 0)
(-17.5319 -1.10707e-05 0)
(-17.4864 -1.08822e-05 0)
(-17.4418 -1.07047e-05 0)
(-17.3976 -1.05333e-05 0)
(-17.3542 -1.03646e-05 0)
(-17.3112 -1.01979e-05 0)
(-17.269 -1.00344e-05 0)
(-17.2272 -9.87357e-06 0)
(-17.1861 -9.72037e-06 0)
(-17.1454 -9.56928e-06 0)
(-17.1054 -9.42252e-06 0)
(-17.0657 -9.28004e-06 0)
(-17.0268 -9.14232e-06 0)
(-16.9881 -9.00538e-06 0)
(-16.9501 -8.87194e-06 0)
(-16.9124 -8.73901e-06 0)
(-16.8754 -8.61087e-06 0)
(-16.8386 -8.48624e-06 0)
(-16.8024 -8.36421e-06 0)
(-16.7665 -8.24318e-06 0)
(-16.7313 -8.12769e-06 0)
(-16.6962 -8.01415e-06 0)
(-16.6617 -7.90207e-06 0)
(-16.6275 -7.79583e-06 0)
(-16.5938 -7.68697e-06 0)
(-16.5603 -7.58338e-06 0)
(-16.5274 -7.47746e-06 0)
(-16.4947 -7.3755e-06 0)
(-16.4625 -7.27512e-06 0)
(-16.4305 -7.17916e-06 0)
(-16.3991 -7.0839e-06 0)
(-16.3678 -6.9935e-06 0)
(-16.337 -6.90562e-06 0)
(-16.3063 -6.81835e-06 0)
(-16.2761 -6.72878e-06 0)
(-16.2461 -6.64304e-06 0)
(-16.2166 -6.56064e-06 0)
(-16.1872 -6.47697e-06 0)
(-16.1582 -6.3944e-06 0)
(-16.1295 -6.31302e-06 0)
(-16.1011 -6.23371e-06 0)
(-16.0729 -6.15553e-06 0)
(-16.0452 -6.08133e-06 0)
(-16.0175 -6.00844e-06 0)
(-15.9903 -5.93814e-06 0)
(-15.9631 -5.86956e-06 0)
(-15.9364 -5.80024e-06 0)
(-15.9098 -5.73248e-06 0)
(-15.8836 -5.66247e-06 0)
(-15.8575 -5.59449e-06 0)
(-15.8317 -5.52867e-06 0)
(-15.8061 -5.4634e-06 0)
(-15.7809 -5.39983e-06 0)
(-15.7557 -5.33797e-06 0)
(-15.731 -5.27766e-06 0)
(-15.7063 -5.22109e-06 0)
(-15.6819 -5.16247e-06 0)
(-15.6577 -5.10784e-06 0)
(-15.6337 -5.05264e-06 0)
(-15.6099 -5.00065e-06 0)
(-15.5863 -4.94636e-06 0)
(-15.5628 -4.8942e-06 0)
(-15.5396 -4.84084e-06 0)
(-15.5166 -4.78698e-06 0)
(-15.4938 -4.73426e-06 0)
(-15.4712 -4.68305e-06 0)
(-15.4488 -4.63409e-06 0)
(-15.4265 -4.58238e-06 0)
(-15.4045 -4.53579e-06 0)
(-15.3825 -4.48724e-06 0)
(-15.3609 -4.44081e-06 0)
(-15.3393 -4.39548e-06 0)
(-15.318 -4.35233e-06 0)
(-15.2968 -4.30822e-06 0)
(-15.2758 -4.26468e-06 0)
(-15.2549 -4.22373e-06 0)
(-15.2342 -4.1808e-06 0)
(-15.2136 -4.13882e-06 0)
(-15.1933 -4.09752e-06 0)
(-15.173 -4.05508e-06 0)
(-15.153 -4.01204e-06 0)
(-15.133 -3.97454e-06 0)
(-15.1133 -3.9375e-06 0)
(-15.0936 -3.9e-06 0)
(-15.0741 -3.86374e-06 0)
(-15.0547 -3.82734e-06 0)
(-15.0355 -3.79109e-06 0)
(-15.0164 -3.75504e-06 0)
(-14.9975 -3.7252e-06 0)
(-14.9796 -3.70524e-06 0)
(-14.9629 -3.67661e-06 0)
(-14.946 -3.63978e-06 0)
(-14.9292 -3.60506e-06 0)
(-14.9123 -3.57091e-06 0)
(-14.8955 -3.53483e-06 0)
(-14.8786 -3.50406e-06 0)
(-14.8617 -3.47242e-06 0)
(-14.8447 -3.43983e-06 0)
(-14.8278 -3.409e-06 0)
(-14.8108 -3.37846e-06 0)
(-14.7938 -3.3467e-06 0)
(-14.7767 -3.31645e-06 0)
(-14.7596 -3.28714e-06 0)
(-14.7425 -3.26025e-06 0)
(-14.7253 -3.23091e-06 0)
(-14.7081 -3.20131e-06 0)
(-14.6909 -3.16714e-06 0)
(-14.6737 -3.13973e-06 0)
(-14.6565 -3.11037e-06 0)
(-14.6392 -3.07848e-06 0)
(-14.6219 -3.049e-06 0)
(-14.6046 -3.0215e-06 0)
(-14.5873 -2.99582e-06 0)
(-14.5699 -2.96731e-06 0)
(-14.5525 -2.93982e-06 0)
(-14.5351 -2.91052e-06 0)
(-14.5176 -2.88183e-06 0)
(-14.5002 -2.8537e-06 0)
(-14.4827 -2.82553e-06 0)
(-14.4652 -2.79766e-06 0)
(-14.4477 -2.76821e-06 0)
(-14.4302 -2.74148e-06 0)
(-14.4127 -2.71036e-06 0)
(-14.3952 -2.68272e-06 0)
(-14.3777 -2.65525e-06 0)
(-14.3602 -2.63005e-06 0)
(-14.3426 -2.60354e-06 0)
(-14.3251 -2.57763e-06 0)
(-14.3075 -2.55418e-06 0)
(-14.2899 -2.53078e-06 0)
(-14.2722 -2.50565e-06 0)
(-14.2546 -2.47848e-06 0)
(-14.2369 -2.45351e-06 0)
(-14.2193 -2.42777e-06 0)
(-14.2016 -2.40557e-06 0)
(-14.1839 -2.37885e-06 0)
(-14.1663 -2.35391e-06 0)
(-14.1486 -2.32757e-06 0)
(-14.1309 -2.3015e-06 0)
(-14.1132 -2.27796e-06 0)
(-14.0956 -2.25161e-06 0)
(-14.0779 -2.22837e-06 0)
(-14.0602 -2.20589e-06 0)
(-14.0426 -2.17923e-06 0)
(-14.0249 -2.15858e-06 0)
(-14.0072 -2.13411e-06 0)
(-13.9896 -2.1104e-06 0)
(-13.9719 -2.08846e-06 0)
(-13.9542 -2.06473e-06 0)
(-13.9366 -2.0423e-06 0)
(-13.9189 -2.01982e-06 0)
(-13.9013 -1.99678e-06 0)
(-13.8837 -1.9734e-06 0)
(-13.866 -1.9513e-06 0)
(-13.8484 -1.93261e-06 0)
(-13.8308 -1.91279e-06 0)
(-13.8132 -1.89273e-06 0)
(-13.7955 -1.87337e-06 0)
(-13.7778 -1.85288e-06 0)
(-13.7602 -1.82986e-06 0)
(-13.7426 -1.80923e-06 0)
(-13.7249 -1.78985e-06 0)
(-13.7074 -1.76743e-06 0)
(-13.6898 -1.74717e-06 0)
(-13.6722 -1.72825e-06 0)
(-13.6546 -1.70894e-06 0)
(-13.6371 -1.69016e-06 0)
(-13.6195 -1.67036e-06 0)
(-13.602 -1.65011e-06 0)
(-13.5845 -1.63219e-06 0)
(-13.567 -1.61364e-06 0)
(-13.5495 -1.5954e-06 0)
(-13.532 -1.57469e-06 0)
(-13.5146 -1.55756e-06 0)
(-13.4971 -1.53908e-06 0)
(-13.4797 -1.5208e-06 0)
(-13.4623 -1.50348e-06 0)
(-13.4449 -1.4854e-06 0)
(-13.4276 -1.4672e-06 0)
(-13.4102 -1.44867e-06 0)
(-13.3929 -1.43247e-06 0)
(-13.3756 -1.41504e-06 0)
(-13.3584 -1.39905e-06 0)
(-13.3411 -1.38416e-06 0)
(-13.3238 -1.36791e-06 0)
(-13.3066 -1.34979e-06 0)
(-13.2894 -1.33211e-06 0)
(-13.2722 -1.31703e-06 0)
(-13.2551 -1.30312e-06 0)
(-13.2379 -1.28932e-06 0)
(-13.2207 -1.27167e-06 0)
(-13.2036 -1.25673e-06 0)
(-13.1865 -1.24199e-06 0)
(-13.1695 -1.22591e-06 0)
(-13.1524 -1.21246e-06 0)
(-13.1354 -1.19798e-06 0)
(-13.1184 -1.1854e-06 0)
(-13.1013 -1.16984e-06 0)
(-13.0844 -1.15489e-06 0)
(-13.0674 -1.14074e-06 0)
(-13.0506 -1.12692e-06 0)
(-13.0336 -1.11267e-06 0)
(-13.0168 -1.09656e-06 0)
(-13 -1.0833e-06 0)
(-12.9833 -1.07142e-06 0)
(-12.9665 -1.05942e-06 0)
(-12.9497 -1.04745e-06 0)
(-12.9329 -1.03261e-06 0)
(-12.9163 -1.0195e-06 0)
(-12.8996 -1.00736e-06 0)
(-12.883 -9.93513e-07 0)
(-12.8664 -9.81152e-07 0)
(-12.8499 -9.70293e-07 0)
(-12.8332 -9.57203e-07 0)
(-12.8168 -9.46691e-07 0)
(-12.8002 -9.35101e-07 0)
(-12.7838 -9.22909e-07 0)
(-12.7673 -9.13433e-07 0)
(-12.7509 -9.00418e-07 0)
(-12.7345 -8.87006e-07 0)
(-12.7182 -8.7333e-07 0)
(-12.702 -8.63569e-07 0)
(-12.6857 -8.54869e-07 0)
(-12.6695 -8.44303e-07 0)
(-12.6533 -8.32904e-07 0)
(-12.6371 -8.21806e-07 0)
(-12.621 -8.10388e-07 0)
(-12.6049 -8.0119e-07 0)
(-12.5888 -7.9039e-07 0)
(-12.5728 -7.78394e-07 0)
(-12.5569 -7.68653e-07 0)
(-12.5409 -7.59864e-07 0)
(-12.525 -7.50073e-07 0)
(-12.5091 -7.40153e-07 0)
(-12.4933 -7.30308e-07 0)
(-12.4775 -7.21669e-07 0)
(-12.4617 -7.12559e-07 0)
(-12.446 -7.02842e-07 0)
(-12.4302 -6.92558e-07 0)
(-12.4146 -6.84151e-07 0)
(-12.399 -6.7559e-07 0)
(-12.3834 -6.67157e-07 0)
(-12.3678 -6.57983e-07 0)
(-12.3523 -6.48955e-07 0)
(-12.3368 -6.40463e-07 0)
(-12.3214 -6.32789e-07 0)
(-12.3059 -6.23252e-07 0)
(-12.2907 -6.14287e-07 0)
(-12.2753 -6.07677e-07 0)
(-12.2601 -5.99739e-07 0)
(-12.2448 -5.90469e-07 0)
(-12.2297 -5.81185e-07 0)
(-12.2145 -5.74663e-07 0)
(-12.1995 -5.67655e-07 0)
(-12.1843 -5.59882e-07 0)
(-12.1694 -5.52879e-07 0)
(-12.1543 -5.45494e-07 0)
(-12.1394 -5.37148e-07 0)
(-12.1245 -5.30196e-07 0)
(-12.1096 -5.23178e-07 0)
(-12.0948 -5.16191e-07 0)
(-12.08 -5.09871e-07 0)
(-12.0652 -5.02934e-07 0)
(-12.0505 -4.95479e-07 0)
(-12.0359 -4.89339e-07 0)
(-12.0212 -4.8241e-07 0)
(-12.0066 -4.75528e-07 0)
(-11.9921 -4.69335e-07 0)
(-11.9776 -4.63118e-07 0)
(-11.9632 -4.54272e-07 0)
(-11.9473 -4.45319e-07 0)
(-11.93 -4.37375e-07 0)
(-11.9131 -4.31419e-07 0)
(-11.8963 -4.25059e-07 0)
(-11.8799 -4.18657e-07 0)
(-11.8636 -4.12575e-07 0)
(-11.8476 -4.06415e-07 0)
(-11.8318 -4.00375e-07 0)
(-11.8163 -3.95191e-07 0)
(-11.8009 -3.88926e-07 0)
(-11.7859 -3.82594e-07 0)
(-11.771 -3.77268e-07 0)
(-11.7564 -3.71983e-07 0)
(-11.7419 -3.6674e-07 0)
(-11.7277 -3.6202e-07 0)
(-11.7136 -3.57201e-07 0)
(-11.6998 -3.51827e-07 0)
(-11.6861 -3.47606e-07 0)
(-11.6726 -3.42295e-07 0)
(-11.6593 -3.38171e-07 0)
(-11.6461 -3.34266e-07 0)
(-11.6331 -3.29452e-07 0)
(-11.6204 -3.23839e-07 0)
(-11.6078 -3.20083e-07 0)
(-11.5953 -3.163e-07 0)
(-11.5831 -3.13248e-07 0)
(-11.5709 -3.09688e-07 0)
(-11.5589 -3.04996e-07 0)
(-11.547 -3.02228e-07 0)
(-11.5352 -2.98295e-07 0)
(-11.5237 -2.94255e-07 0)
(-11.5122 -2.91155e-07 0)
(-11.5009 -2.89215e-07 0)
(-11.4896 -2.86175e-07 0)
(-11.4785 -2.83089e-07 0)
(-11.4675 -2.79474e-07 0)
(-11.4567 -2.76004e-07 0)
(-11.4459 -2.7236e-07 0)
(-11.4354 -2.6873e-07 0)
(-11.4249 -2.65879e-07 0)
(-11.4146 -2.62566e-07 0)
(-11.4044 -2.59763e-07 0)
(-11.3943 -2.56957e-07 0)
(-11.3843 -2.53685e-07 0)
(-11.3744 -2.51525e-07 0)
(-11.3646 -2.48952e-07 0)
(-11.355 -2.45756e-07 0)
(-11.3454 -2.43493e-07 0)
(-11.3359 -2.40765e-07 0)
(-11.3266 -2.38642e-07 0)
(-11.3173 -2.36575e-07 0)
(-11.3081 -2.35222e-07 0)
(-11.2989 -2.3195e-07 0)
(-11.2899 -2.30024e-07 0)
(-11.2809 -2.27805e-07 0)
(-11.2721 -2.25088e-07 0)
(-11.2633 -2.22757e-07 0)
(-11.2547 -2.20052e-07 0)
(-11.2461 -2.17489e-07 0)
(-11.2377 -2.15615e-07 0)
(-11.2293 -2.14119e-07 0)
(-11.221 -2.12134e-07 0)
(-11.2127 -2.09939e-07 0)
(-11.2045 -2.07895e-07 0)
(-11.1964 -2.06029e-07 0)
(-11.1884 -2.03718e-07 0)
(-11.1805 -2.0176e-07 0)
(-11.1727 -2.00835e-07 0)
(-11.1648 -1.99823e-07 0)
(-11.157 -1.96886e-07 0)
(-11.1494 -1.96357e-07 0)
(-11.1417 -1.94905e-07 0)
(-11.1342 -1.9384e-07 0)
(-11.1265 -1.92162e-07 0)
(-11.1191 -1.90675e-07 0)
(-11.1116 -1.88578e-07 0)
(-11.1044 -1.87973e-07 0)
(-11.0969 -1.8507e-07 0)
(-11.0899 -1.84596e-07 0)
(-11.0825 -1.81959e-07 0)
(-11.0757 -1.82191e-07 0)
(-11.0683 -1.80557e-07 0)
(-11.0616 -1.8004e-07 0)
(-11.0542 -1.78463e-07 0)
(-11.0476 -1.76212e-07 0)
(-11.0404 -1.74934e-07 0)
(-11.034 -1.71411e-07 0)
(-11.027 -1.73898e-07 0)
(-11.0204 -1.64513e-07 0)
(-11.0142 -1.77088e-07 0)
(-11.0065 -1.52492e-07 0)
(-11.0023 -1.89895e-07 0)
(-10.9916 -1.29863e-07 0)
(-10.9923 -1.65708e-07 0)
(-10.9784 -1.82625e-07 0)
)
;
    }
    symmetry
    {
        type            symmetryPlane;
    }
    frontAndBack
    {
        type            empty;
    }
}


// ************************************************************************* //
