/*--------------------------------*- C++ -*----------------------------------*\
| =========                 |                                                 |
| \\      /  F ield         | OpenFOAM: The Open Source CFD Toolbox           |
|  \\    /   O peration     | Version:  v2012                                 |
|   \\  /    A nd           | Website:  www.openfoam.com                      |
|    \\/     M anipulation  |                                                 |
\*---------------------------------------------------------------------------*/
FoamFile
{
    version     2.0;
    format      ascii;
    class       volScalarField;
    location    "9";
    object      k;
}
// * * * * * * * * * * * * * * * * * * * * * * * * * * * * * * * * * * * * * //

dimensions      [0 2 -2 0 0 0 0];


internalField   nonuniform List<scalar> 
209825
(
0.00102711
0.000988889
0.000972911
0.000964648
0.000959659
0.000956433
0.00095418
0.00095259
0.000951395
0.000950511
0.000949814
0.000949283
0.000948849
0.000948513
0.000948232
0.000948012
0.000947813
0.000947663
0.000947537
0.000947436
0.000947332
0.000947259
0.000947196
0.000947146
0.000947068
0.000947035
0.000947008
0.000946985
0.000946942
0.000946932
0.000946924
0.000946907
0.000946857
0.000946904
0.000946904
0.000946902
0.000946881
0.000946916
0.000946916
0.000946921
0.000946912
0.000946979
0.000946979
0.000946982
0.000946976
0.000947094
0.000947132
0.000947132
0.00094713
0.000947144
0.000947144
0.000947282
0.000947282
0.000947282
0.000947277
0.000947364
0.000947364
0.000947495
0.000947581
0.000947581
0.000947579
0.000947725
0.000947819
0.000947819
0.000947817
0.000947946
0.000948133
0.000948279
0.000948336
0.000948336
0.000948461
0.000948682
0.000948769
0.000948889
0.000949096
0.000949305
0.000949339
0.000949479
0.000949725
0.000950012
0.000950261
0.000950574
0.000950903
0.000951245
0.000951632
0.000952153
0.00095268
0.000953346
0.000954124
0.000955183
0.000956137
0.000958775
0.000959374
0.000974545
0.00104229
0.00242964
0.00102711
0.000988877
0.000972892
0.000964624
0.000959633
0.000956403
0.000954149
0.000952558
0.000951362
0.000950477
0.000949779
0.000949248
0.000948814
0.000948477
0.000948195
0.000947975
0.000947776
0.000947626
0.000947499
0.000947399
0.000947294
0.000947221
0.000947158
0.000947108
0.00094703
0.000946997
0.00094697
0.000946947
0.000946904
0.000946894
0.000946885
0.000946869
0.000946819
0.000946865
0.000946865
0.000946864
0.000946843
0.000946877
0.000946877
0.000946882
0.000946874
0.000946941
0.000946941
0.000946943
0.000946937
0.000947055
0.000947094
0.000947094
0.000947092
0.000947106
0.000947105
0.000947243
0.000947243
0.000947243
0.000947238
0.000947325
0.000947325
0.000947457
0.000947542
0.000947542
0.000947541
0.000947687
0.000947781
0.000947781
0.000947779
0.000947908
0.000948095
0.000948241
0.000948299
0.000948299
0.000948423
0.000948644
0.000948732
0.000948852
0.000949059
0.000949268
0.000949302
0.000949442
0.000949688
0.000949975
0.000950224
0.000950537
0.000950866
0.000951208
0.000951595
0.000952117
0.000952644
0.00095331
0.000954088
0.000955147
0.000956101
0.000958741
0.000959338
0.000974539
0.00104233
0.00243117
0.00102709
0.00098882
0.000972807
0.000964521
0.000959518
0.00095628
0.00095402
0.000952424
0.000951224
0.000950336
0.000949636
0.000949103
0.000948667
0.000948329
0.000948046
0.000947825
0.000947625
0.000947474
0.000947347
0.000947246
0.000947141
0.000947068
0.000947004
0.000946954
0.000946876
0.000946842
0.000946816
0.000946792
0.000946748
0.000946739
0.00094673
0.000946714
0.000946663
0.00094671
0.00094671
0.000946708
0.000946687
0.000946721
0.000946721
0.000946726
0.000946717
0.000946785
0.000946785
0.000946787
0.000946781
0.000946899
0.000946937
0.000946937
0.000946936
0.000946949
0.000946949
0.000947087
0.000947087
0.000947087
0.000947082
0.00094717
0.00094717
0.000947301
0.000947387
0.000947387
0.000947385
0.000947531
0.000947626
0.000947626
0.000947624
0.000947753
0.00094794
0.000948087
0.000948144
0.000948145
0.000948268
0.00094849
0.000948578
0.000948698
0.000948905
0.000949114
0.000949149
0.000949289
0.000949535
0.000949822
0.000950072
0.000950385
0.000950714
0.000951057
0.000951444
0.000951966
0.000952494
0.00095316
0.000953938
0.000954999
0.000955953
0.000958595
0.000959187
0.000974449
0.00104233
0.00243448
0.00102706
0.000988721
0.000972663
0.000964347
0.000959324
0.000956073
0.000953802
0.000952198
0.000950991
0.000950099
0.000949395
0.000948858
0.00094842
0.00094808
0.000947795
0.000947573
0.000947372
0.000947219
0.000947091
0.00094699
0.000946884
0.00094681
0.000946746
0.000946695
0.000946617
0.000946583
0.000946556
0.000946531
0.000946488
0.000946478
0.000946469
0.000946453
0.000946402
0.000946448
0.000946448
0.000946447
0.000946425
0.000946459
0.000946459
0.000946464
0.000946455
0.000946522
0.000946522
0.000946525
0.000946519
0.000946636
0.000946675
0.000946675
0.000946673
0.000946687
0.000946687
0.000946825
0.000946825
0.000946825
0.00094682
0.000946908
0.000946908
0.000947039
0.000947125
0.000947125
0.000947123
0.00094727
0.000947365
0.000947365
0.000947363
0.000947492
0.00094768
0.000947826
0.000947885
0.000947886
0.000948009
0.00094823
0.000948319
0.00094844
0.000948646
0.000948856
0.000948892
0.000949032
0.000949278
0.000949566
0.000949816
0.00095013
0.000950459
0.000950803
0.00095119
0.000951713
0.000952241
0.000952909
0.000953687
0.000954749
0.000955702
0.000958347
0.000958932
0.000974289
0.00104231
0.00243868
0.00102703
0.000988583
0.000972459
0.000964102
0.000959051
0.000955779
0.000953494
0.000951879
0.000950664
0.000949764
0.000949054
0.000948514
0.000948072
0.000947728
0.000947441
0.000947216
0.000947014
0.00094686
0.00094673
0.000946628
0.000946521
0.000946446
0.000946381
0.000946329
0.000946251
0.000946216
0.000946189
0.000946164
0.00094612
0.00094611
0.000946101
0.000946084
0.000946033
0.000946079
0.000946079
0.000946077
0.000946055
0.000946089
0.000946089
0.000946094
0.000946085
0.000946152
0.000946152
0.000946154
0.000946148
0.000946266
0.000946305
0.000946305
0.000946303
0.000946317
0.000946317
0.000946455
0.000946455
0.000946455
0.00094645
0.000946539
0.000946539
0.000946669
0.000946756
0.000946756
0.000946754
0.0009469
0.000946997
0.000946997
0.000946995
0.000947124
0.000947312
0.000947459
0.000947519
0.00094752
0.000947643
0.000947864
0.000947954
0.000948075
0.000948282
0.000948493
0.000948529
0.00094867
0.000948916
0.000949204
0.000949454
0.000949769
0.000950099
0.000950444
0.000950832
0.000951356
0.000951884
0.000952554
0.000953331
0.000954396
0.000955348
0.000957998
0.000958571
0.000974058
0.00104227
0.00244375
0.00102698
0.000988403
0.000972194
0.000963784
0.000958697
0.0009554
0.000953095
0.000951465
0.000950239
0.000949331
0.000948614
0.000948067
0.00094762
0.000947273
0.000946982
0.000946755
0.00094655
0.000946394
0.000946263
0.000946158
0.00094605
0.000945974
0.000945908
0.000945856
0.000945777
0.000945741
0.000945713
0.000945688
0.000945644
0.000945633
0.000945624
0.000945607
0.000945555
0.0009456
0.0009456
0.000945599
0.000945576
0.00094561
0.00094561
0.000945615
0.000945605
0.000945672
0.000945672
0.000945675
0.000945668
0.000945786
0.000945825
0.000945825
0.000945823
0.000945837
0.000945837
0.000945975
0.000945975
0.000945975
0.000945971
0.00094606
0.00094606
0.00094619
0.000946277
0.000946278
0.000946276
0.000946422
0.00094652
0.000946519
0.000946518
0.000946647
0.000946835
0.000946983
0.000947045
0.000947046
0.000947169
0.00094739
0.00094748
0.000947602
0.000947809
0.000948021
0.000948059
0.0009482
0.000948446
0.000948734
0.000948986
0.000949301
0.000949632
0.000949978
0.000950367
0.000950892
0.000951421
0.000952093
0.00095287
0.000953938
0.000954889
0.000957544
0.000958104
0.000973756
0.0010422
0.0024496
0.00102692
0.000988182
0.00097187
0.000963393
0.000958261
0.000954932
0.000952604
0.000950956
0.000949716
0.000948796
0.000948071
0.000947517
0.000947064
0.000946712
0.000946417
0.000946186
0.000945978
0.000945819
0.000945686
0.00094558
0.00094547
0.000945393
0.000945326
0.000945272
0.000945192
0.000945156
0.000945127
0.000945101
0.000945057
0.000945045
0.000945035
0.000945018
0.000944966
0.00094501
0.00094501
0.000945008
0.000944985
0.000945019
0.000945019
0.000945024
0.000945014
0.000945081
0.000945081
0.000945083
0.000945076
0.000945195
0.000945233
0.000945233
0.000945231
0.000945245
0.000945245
0.000945384
0.000945384
0.000945384
0.000945379
0.00094547
0.00094547
0.0009456
0.000945688
0.000945688
0.000945686
0.000945832
0.000945931
0.000945931
0.00094593
0.000946059
0.000946247
0.000946396
0.00094646
0.000946462
0.000946584
0.000946805
0.000946896
0.000947019
0.000947226
0.000947439
0.000947479
0.000947621
0.000947866
0.000948155
0.000948408
0.000948724
0.000949056
0.000949404
0.000949793
0.00095032
0.00095085
0.000951524
0.000952301
0.000953373
0.000954322
0.000956984
0.000957526
0.000973384
0.00104207
0.00245605
0.00102685
0.00098792
0.000971483
0.000962928
0.000957743
0.000954375
0.000952019
0.000950349
0.000949092
0.00094816
0.000947423
0.000946861
0.000946401
0.000946043
0.000945743
0.000945508
0.000945296
0.000945134
0.000944999
0.00094489
0.000944779
0.000944699
0.000944631
0.000944576
0.000944495
0.000944458
0.000944428
0.000944402
0.000944356
0.000944345
0.000944334
0.000944316
0.000944263
0.000944306
0.000944306
0.000944305
0.000944281
0.000944314
0.000944314
0.000944319
0.000944309
0.000944375
0.000944375
0.000944377
0.00094437
0.000944489
0.000944528
0.000944528
0.000944526
0.000944539
0.000944539
0.000944679
0.000944679
0.000944679
0.000944674
0.000944766
0.000944766
0.000944895
0.000944984
0.000944984
0.000944983
0.000945128
0.00094523
0.00094523
0.000945228
0.000945357
0.000945547
0.000945697
0.000945762
0.000945766
0.000945886
0.000946107
0.0009462
0.000946323
0.00094653
0.000946745
0.000946787
0.00094693
0.000947175
0.000947465
0.000947718
0.000948036
0.000948369
0.000948719
0.000949109
0.000949638
0.000950169
0.000950845
0.000951621
0.000952699
0.000953645
0.000956315
0.000956837
0.00097294
0.00104187
0.00246281
0.00102677
0.000987617
0.000971035
0.000962388
0.00095714
0.000953728
0.000951338
0.000949644
0.000948367
0.000947419
0.00094667
0.000946097
0.000945629
0.000945264
0.000944958
0.000944718
0.000944503
0.000944337
0.000944198
0.000944088
0.000943974
0.000943893
0.000943822
0.000943766
0.000943684
0.000943645
0.000943614
0.000943587
0.000943541
0.000943529
0.000943517
0.000943499
0.000943445
0.000943487
0.000943487
0.000943486
0.000943461
0.000943494
0.000943494
0.000943498
0.000943487
0.000943554
0.000943554
0.000943556
0.000943549
0.000943668
0.000943707
0.000943706
0.000943704
0.000943718
0.000943718
0.000943858
0.000943858
0.000943858
0.000943854
0.000943947
0.000943947
0.000944075
0.000944165
0.000944165
0.000944164
0.000944309
0.000944413
0.000944413
0.000944411
0.000944541
0.00094473
0.000944882
0.000944949
0.000944955
0.000945074
0.000945294
0.000945389
0.000945513
0.00094572
0.000945937
0.000945982
0.000946125
0.000946369
0.000946661
0.000946915
0.000947234
0.000947568
0.000947921
0.000948312
0.000948843
0.000949375
0.000950055
0.00095083
0.000951913
0.000952857
0.000955536
0.000956035
0.000972423
0.00104156
0.00246944
0.00102668
0.000987272
0.000970524
0.000961771
0.000956452
0.000952988
0.000950561
0.000948837
0.000947538
0.000946572
0.000945809
0.000945225
0.000944747
0.000944374
0.000944062
0.000943816
0.000943596
0.000943426
0.000943284
0.00094317
0.000943053
0.00094297
0.000942897
0.00094284
0.000942756
0.000942716
0.000942683
0.000942655
0.000942609
0.000942595
0.000942583
0.000942564
0.000942509
0.000942551
0.000942551
0.000942549
0.000942524
0.000942556
0.000942556
0.00094256
0.000942548
0.000942615
0.000942615
0.000942617
0.000942609
0.000942728
0.000942767
0.000942767
0.000942765
0.000942779
0.000942779
0.000942919
0.00094292
0.000942919
0.000942915
0.00094301
0.000943009
0.000943137
0.000943228
0.000943228
0.000943227
0.000943372
0.000943478
0.000943478
0.000943477
0.000943606
0.000943797
0.000943949
0.000944019
0.000944027
0.000944145
0.000944365
0.000944462
0.000944587
0.000944794
0.000945012
0.000945061
0.000945204
0.000945448
0.000945741
0.000945997
0.000946317
0.000946653
0.000947008
0.0009474
0.000947933
0.000948467
0.00094915
0.000949924
0.000951014
0.000951954
0.000954644
0.000955116
0.000971833
0.00104115
0.0024753
0.00102658
0.000986886
0.000969951
0.000961078
0.000955677
0.000952156
0.000949685
0.000947929
0.000946605
0.000945618
0.000944839
0.000944241
0.000943752
0.00094337
0.00094305
0.000942799
0.000942573
0.000942398
0.000942252
0.000942135
0.000942015
0.000941929
0.000941855
0.000941795
0.00094171
0.000941668
0.000941634
0.000941605
0.000941557
0.000941543
0.00094153
0.00094151
0.000941454
0.000941494
0.000941494
0.000941492
0.000941466
0.000941498
0.000941498
0.000941501
0.000941489
0.000941556
0.000941556
0.000941557
0.000941549
0.000941668
0.000941707
0.000941707
0.000941705
0.000941719
0.000941719
0.00094186
0.000941861
0.00094186
0.000941856
0.000941952
0.000941952
0.000942079
0.000942172
0.000942172
0.00094217
0.000942315
0.000942424
0.000942424
0.000942423
0.000942552
0.000942744
0.000942898
0.00094297
0.000942981
0.000943097
0.000943316
0.000943416
0.000943542
0.000943749
0.000943969
0.000944021
0.000944166
0.000944409
0.000944703
0.00094496
0.000945283
0.000945619
0.000945978
0.00094637
0.000946907
0.000947442
0.000948129
0.000948902
0.000949998
0.000950935
0.000953636
0.000954078
0.000971168
0.00104062
0.00247954
0.00102647
0.000986458
0.000969314
0.000960308
0.000954816
0.000951229
0.000948711
0.000946918
0.000945564
0.000944555
0.000943757
0.000943145
0.000942644
0.000942252
0.000941923
0.000941664
0.000941432
0.000941253
0.000941102
0.00094098
0.000940858
0.000940769
0.000940691
0.00094063
0.000940543
0.000940499
0.000940464
0.000940433
0.000940384
0.000940369
0.000940355
0.000940335
0.000940277
0.000940316
0.000940316
0.000940313
0.000940287
0.000940318
0.000940318
0.000940321
0.000940308
0.000940374
0.000940374
0.000940375
0.000940367
0.000940486
0.000940526
0.000940525
0.000940523
0.000940537
0.000940537
0.000940679
0.000940679
0.000940679
0.000940675
0.000940773
0.000940773
0.000940899
0.000940993
0.000940993
0.000940992
0.000941136
0.000941249
0.000941249
0.000941248
0.000941377
0.000941569
0.000941725
0.0009418
0.000941813
0.000941927
0.000942146
0.000942248
0.000942376
0.000942583
0.000942805
0.000942861
0.000943007
0.00094325
0.000943545
0.000943804
0.000944128
0.000944466
0.000944828
0.000945222
0.000945761
0.000946298
0.000946989
0.000947761
0.000948865
0.000949798
0.000952511
0.00095292
0.000970427
0.00103999
0.00248101
0.00102635
0.000985989
0.000968614
0.000959459
0.000953866
0.000950208
0.000947635
0.000945801
0.000944416
0.000943381
0.000942563
0.000941934
0.000941419
0.000941016
0.000940678
0.000940411
0.000940172
0.000939987
0.000939831
0.000939705
0.000939579
0.000939487
0.000939406
0.000939342
0.000939253
0.000939207
0.00093917
0.000939138
0.000939088
0.000939072
0.000939057
0.000939036
0.000938976
0.000939014
0.000939014
0.000939011
0.000938983
0.000939013
0.000939013
0.000939016
0.000939002
0.000939068
0.000939068
0.000939069
0.00093906
0.00093918
0.000939219
0.000939219
0.000939217
0.000939231
0.000939231
0.000939373
0.000939374
0.000939373
0.000939369
0.00093947
0.00093947
0.000939595
0.00093969
0.00093969
0.000939689
0.000939833
0.000939949
0.000939949
0.000939948
0.000940077
0.000940271
0.000940428
0.000940506
0.000940523
0.000940635
0.000940853
0.000940958
0.000941087
0.000941294
0.000941519
0.000941579
0.000941726
0.000941968
0.000942265
0.000942525
0.000942852
0.000943191
0.000943557
0.000943952
0.000944495
0.000945032
0.000945729
0.000946499
0.000947611
0.000948539
0.000951266
0.000951639
0.000969608
0.00103924
0.00247972
0.00102622
0.000985478
0.00096785
0.000958532
0.000952828
0.000949089
0.000946458
0.000944578
0.000943158
0.000942095
0.000941255
0.000940607
0.000940078
0.000939662
0.000939313
0.000939037
0.000938791
0.000938599
0.000938437
0.000938307
0.000938177
0.000938081
0.000937997
0.00093793
0.000937839
0.000937791
0.000937752
0.000937718
0.000937667
0.000937649
0.000937633
0.000937611
0.00093755
0.000937585
0.000937585
0.000937582
0.000937553
0.000937583
0.000937583
0.000937585
0.00093757
0.000937636
0.000937636
0.000937637
0.000937627
0.000937747
0.000937787
0.000937786
0.000937784
0.000937798
0.000937798
0.000937941
0.000937942
0.000937941
0.000937937
0.00093804
0.000938041
0.000938164
0.000938261
0.000938261
0.00093826
0.000938404
0.000938523
0.000938524
0.000938523
0.000938652
0.000938846
0.000939005
0.000939087
0.000939107
0.000939217
0.000939434
0.000939542
0.000939673
0.00093988
0.000940107
0.000940172
0.00094032
0.000940562
0.000940861
0.000941122
0.000941451
0.000941792
0.000942162
0.000942558
0.000943104
0.000943643
0.000944345
0.000945114
0.000946234
0.000947158
0.000949898
0.000950233
0.000968708
0.00103837
0.00247569
0.00102609
0.000984927
0.000967022
0.000957525
0.000951699
0.000947873
0.000945177
0.000943248
0.000941789
0.000940696
0.00093983
0.000939163
0.000938616
0.000938187
0.000937826
0.000937541
0.000937286
0.000937087
0.000936919
0.000936784
0.000936649
0.000936549
0.000936462
0.000936392
0.000936298
0.000936248
0.000936206
0.000936171
0.000936118
0.000936099
0.000936081
0.000936058
0.000935995
0.000936029
0.000936029
0.000936026
0.000935995
0.000936024
0.000936024
0.000936026
0.00093601
0.000936075
0.000936075
0.000936076
0.000936065
0.000936186
0.000936225
0.000936225
0.000936223
0.000936236
0.000936236
0.00093638
0.000936381
0.00093638
0.000936376
0.000936481
0.000936483
0.000936605
0.000936703
0.000936703
0.000936702
0.000936846
0.00093697
0.00093697
0.00093697
0.000937098
0.000937294
0.000937455
0.000937539
0.000937565
0.000937671
0.000937888
0.000937999
0.000938132
0.000938338
0.000938569
0.000938638
0.000938787
0.000939029
0.000939329
0.000939592
0.000939924
0.000940267
0.000940641
0.000941038
0.000941588
0.000942129
0.000942836
0.000943602
0.000944732
0.000945651
0.000948405
0.000948699
0.000967726
0.00103739
0.00246892
0.00102594
0.000984335
0.00096613
0.000956439
0.000950481
0.000946559
0.000943792
0.000941809
0.000940308
0.000939181
0.000938289
0.000937599
0.000937034
0.000936589
0.000936216
0.00093592
0.000935656
0.00093545
0.000935275
0.000935134
0.000934994
0.000934889
0.000934798
0.000934726
0.000934629
0.000934576
0.000934531
0.000934495
0.00093444
0.000934419
0.0009344
0.000934376
0.000934311
0.000934343
0.000934343
0.000934339
0.000934307
0.000934335
0.000934335
0.000934337
0.000934319
0.000934384
0.000934384
0.000934384
0.000934373
0.000934494
0.000934533
0.000934533
0.000934531
0.000934544
0.000934544
0.000934689
0.00093469
0.000934689
0.000934685
0.000934792
0.000934795
0.000934915
0.000935015
0.000935015
0.000935014
0.000935157
0.000935286
0.000935286
0.000935286
0.000935415
0.000935611
0.000935774
0.000935862
0.000935892
0.000935996
0.000936212
0.000936326
0.000936461
0.000936668
0.000936901
0.000936975
0.000937126
0.000937367
0.000937669
0.000937934
0.000938268
0.000938613
0.000938992
0.00093939
0.000939944
0.000940486
0.0009412
0.000941964
0.000943103
0.000944016
0.000946785
0.000947036
0.000966658
0.00103628
0.00245947
0.00102579
0.000983703
0.000965174
0.000955273
0.000949171
0.000945146
0.000942302
0.00094026
0.000938713
0.000937549
0.000936628
0.000935914
0.00093533
0.000934868
0.000934481
0.000934173
0.0009339
0.000933684
0.000933502
0.000933355
0.000933209
0.0009331
0.000933005
0.000932929
0.000932829
0.000932773
0.000932726
0.000932687
0.000932631
0.000932608
0.000932587
0.000932562
0.000932495
0.000932525
0.000932525
0.00093252
0.000932487
0.000932514
0.000932514
0.000932515
0.000932496
0.00093256
0.00093256
0.00093256
0.000932548
0.000932669
0.000932708
0.000932708
0.000932706
0.000932719
0.000932719
0.000932865
0.000932865
0.000932865
0.000932861
0.00093297
0.000932975
0.000933092
0.000933194
0.000933195
0.000933194
0.000933336
0.000933469
0.00093347
0.00093347
0.000933599
0.000933796
0.000933962
0.000934053
0.000934088
0.000934189
0.000934403
0.000934521
0.000934658
0.000934865
0.000935101
0.000935181
0.000935334
0.000935574
0.000935878
0.000936145
0.000936482
0.000936829
0.000937212
0.000937612
0.00093817
0.000938714
0.000939433
0.000940194
0.000941344
0.000942251
0.000945035
0.00094524
0.000965501
0.00103505
0.00244739
0.00102563
0.000983031
0.000964155
0.000954027
0.000947769
0.000943633
0.000940705
0.0009386
0.000937003
0.0009358
0.000934846
0.000934107
0.000933501
0.000933021
0.00093262
0.000932299
0.000932015
0.00093179
0.0009316
0.000931445
0.000931294
0.00093118
0.00093108
0.000931
0.000930897
0.000930837
0.000930787
0.000930747
0.000930688
0.000930663
0.000930641
0.000930615
0.000930545
0.000930573
0.000930573
0.000930567
0.000930533
0.000930558
0.000930558
0.000930558
0.000930538
0.000930602
0.000930602
0.000930601
0.000930588
0.000930709
0.000930749
0.000930749
0.000930746
0.000930759
0.000930759
0.000930906
0.000930907
0.000930906
0.000930902
0.000931014
0.00093102
0.000931135
0.00093124
0.000931239
0.000931239
0.000931381
0.000931518
0.00093152
0.00093152
0.000931648
0.000931847
0.000932015
0.00093211
0.000932151
0.000932248
0.000932461
0.000932583
0.000932722
0.000932929
0.000933168
0.000933253
0.000933409
0.000933648
0.000933955
0.000934223
0.000934563
0.000934911
0.0009353
0.000935701
0.000936264
0.000936808
0.000937535
0.000938293
0.000939453
0.000940354
0.000943153
0.00094331
0.000964251
0.00103369
0.00243272
0.00102546
0.000982321
0.000963072
0.000952701
0.000946276
0.000942019
0.000939002
0.000936827
0.000935177
0.000933931
0.000932943
0.000932175
0.000931546
0.000931048
0.00093063
0.000930295
0.000929999
0.000929764
0.000929565
0.000929404
0.000929246
0.000929126
0.000929021
0.000928937
0.00092883
0.000928767
0.000928714
0.000928671
0.00092861
0.000928583
0.000928559
0.000928531
0.00092846
0.000928485
0.000928485
0.000928479
0.000928442
0.000928466
0.000928466
0.000928466
0.000928444
0.000928506
0.000928507
0.000928506
0.000928491
0.000928613
0.000928652
0.000928652
0.00092865
0.000928663
0.000928663
0.000928811
0.000928811
0.000928811
0.000928807
0.00092892
0.000928928
0.00092904
0.000929148
0.000929148
0.000929147
0.000929289
0.00092943
0.000929433
0.000929433
0.000929562
0.000929761
0.000929932
0.00093003
0.000930078
0.000930171
0.000930383
0.000930509
0.000930651
0.000930857
0.0009311
0.00093119
0.000931348
0.000931587
0.000931896
0.000932166
0.000932509
0.000932859
0.000933253
0.000933655
0.000934223
0.000934769
0.000935502
0.000936257
0.000937428
0.000938322
0.000941136
0.000941243
0.000962903
0.00103219
0.00241555
0.00102529
0.000981571
0.000961926
0.000951294
0.00094469
0.000940304
0.00093719
0.000934942
0.000933234
0.000931942
0.000930917
0.000930119
0.000929465
0.000928945
0.00092851
0.00092816
0.000927852
0.000927606
0.000927398
0.000927228
0.000927064
0.000926937
0.000926827
0.000926738
0.000926628
0.000926561
0.000926504
0.000926458
0.000926395
0.000926366
0.000926339
0.000926311
0.000926237
0.00092626
0.000926259
0.000926252
0.000926213
0.000926236
0.000926236
0.000926235
0.000926211
0.000926273
0.000926273
0.000926272
0.000926256
0.000926378
0.000926418
0.000926418
0.000926415
0.000926428
0.000926427
0.000926576
0.000926576
0.000926576
0.000926572
0.000926688
0.000926699
0.000926808
0.000926918
0.000926917
0.000926917
0.000927058
0.000927204
0.000927209
0.000927209
0.000927337
0.000927537
0.00092771
0.000927812
0.000927866
0.000927956
0.000928167
0.000928297
0.000928441
0.000928648
0.000928893
0.00092899
0.00092915
0.000929388
0.000929699
0.000929972
0.000930318
0.00093067
0.000931069
0.000931473
0.000932045
0.000932592
0.000933332
0.000934084
0.000935266
0.000936153
0.000938981
0.000939037
0.000961454
0.00103056
0.00239595
0.00102511
0.000980785
0.000960717
0.000949807
0.000943012
0.000938487
0.00093527
0.000932943
0.000931172
0.000929831
0.000928766
0.000927936
0.000927255
0.000926713
0.000926258
0.000925893
0.000925571
0.000925314
0.000925095
0.000924917
0.000924745
0.000924612
0.000924495
0.000924402
0.000924287
0.000924216
0.000924156
0.000924107
0.000924042
0.000924009
0.000923981
0.000923951
0.000923875
0.000923895
0.000923893
0.000923885
0.000923845
0.000923866
0.000923866
0.000923864
0.000923838
0.000923899
0.000923899
0.000923898
0.000923881
0.000924003
0.000924042
0.000924042
0.00092404
0.000924052
0.000924052
0.000924201
0.000924202
0.000924202
0.000924198
0.000924316
0.000924328
0.000924434
0.000924547
0.000924546
0.000924546
0.000924686
0.000924837
0.000924843
0.000924844
0.000924971
0.000925173
0.000925348
0.000925454
0.000925515
0.000925601
0.000925811
0.000925944
0.000926092
0.000926299
0.000926547
0.00092665
0.000926813
0.000927051
0.000927364
0.000927638
0.000927988
0.000928341
0.000928747
0.000929151
0.000929728
0.000930277
0.000931024
0.000931771
0.000932965
0.000933844
0.000936686
0.00093669
0.000959897
0.00102878
0.00237401
0.00102493
0.000979961
0.000959446
0.00094824
0.00094124
0.000936568
0.000933241
0.000930828
0.000928992
0.000927598
0.00092649
0.000925625
0.000924915
0.000924349
0.000923874
0.000923492
0.000923155
0.000922885
0.000922656
0.000922468
0.000922288
0.000922148
0.000922025
0.000921927
0.000921807
0.000921732
0.000921668
0.000921616
0.000921547
0.000921512
0.000921481
0.00092145
0.000921371
0.000921388
0.000921386
0.000921377
0.000921335
0.000921354
0.000921354
0.000921351
0.000921323
0.000921383
0.000921383
0.000921382
0.000921363
0.000921485
0.000921524
0.000921524
0.000921522
0.000921534
0.000921533
0.000921684
0.000921684
0.000921684
0.00092168
0.0009218
0.000921816
0.000921918
0.000922033
0.000922033
0.000922032
0.000922172
0.000922328
0.000922336
0.000922336
0.000922464
0.000922666
0.000922844
0.000922954
0.000923022
0.000923104
0.000923312
0.00092345
0.000923601
0.000923808
0.00092406
0.000924169
0.000924335
0.000924572
0.000924887
0.000925163
0.000925516
0.000925872
0.000926283
0.000926689
0.00092727
0.00092782
0.000928575
0.000929318
0.000930523
0.000931394
0.000934249
0.0009342
0.000958226
0.00102686
0.00234985
0.00102474
0.000979101
0.000958113
0.000946593
0.000939376
0.000934547
0.000931102
0.000928599
0.000926691
0.000925241
0.000924088
0.000923185
0.000922444
0.000921852
0.000921356
0.000920955
0.000920603
0.00092032
0.000920078
0.000919881
0.000919692
0.000919545
0.000919414
0.00091931
0.000919186
0.000919106
0.000919037
0.000918982
0.000918911
0.000918873
0.000918839
0.000918806
0.000918725
0.000918739
0.000918736
0.000918725
0.000918681
0.000918698
0.000918698
0.000918695
0.000918664
0.000918723
0.000918723
0.000918721
0.000918701
0.000918823
0.000918862
0.000918862
0.000918859
0.000918871
0.00091887
0.000919022
0.000919023
0.000919022
0.000919018
0.000919141
0.000919159
0.000919257
0.000919376
0.000919375
0.000919375
0.000919514
0.000919674
0.000919685
0.000919685
0.000919812
0.000920015
0.000920196
0.00092031
0.000920386
0.000920463
0.00092067
0.000920812
0.000920966
0.000921173
0.000921428
0.000921544
0.000921713
0.000921949
0.000922267
0.000922545
0.000922901
0.000923259
0.000923676
0.000924083
0.00092467
0.00092522
0.000925983
0.000926721
0.000927938
0.0009288
0.000931667
0.000931565
0.000956434
0.00102478
0.00232355
0.00102455
0.000978207
0.000956719
0.000944867
0.00093742
0.000932423
0.000928852
0.000926253
0.00092427
0.00092276
0.000921558
0.000920615
0.000919841
0.000919222
0.000918702
0.000918282
0.000917913
0.000917615
0.000917361
0.000917153
0.000916955
0.000916799
0.000916662
0.000916552
0.000916422
0.000916336
0.000916263
0.000916204
0.00091613
0.000916089
0.000916052
0.000916017
0.000915933
0.000915944
0.000915941
0.000915928
0.000915882
0.000915898
0.000915897
0.000915893
0.000915859
0.000915917
0.000915917
0.000915915
0.000915893
0.000916015
0.000916054
0.000916054
0.000916051
0.000916062
0.000916062
0.000916214
0.000916215
0.000916214
0.00091621
0.000916335
0.000916357
0.00091645
0.000916572
0.000916572
0.000916571
0.000916709
0.000916874
0.000916888
0.000916888
0.000917014
0.000917218
0.000917402
0.000917519
0.000917603
0.000917677
0.000917882
0.000918029
0.000918186
0.000918393
0.000918651
0.000918773
0.000918946
0.000919182
0.000919502
0.000919782
0.000920142
0.000920501
0.000920924
0.000921332
0.000921924
0.000922474
0.000923245
0.000923978
0.000925207
0.000926061
0.000928939
0.000928783
0.000954515
0.00102254
0.00229525
0.00102435
0.00097728
0.000955266
0.000943063
0.00093537
0.000930196
0.000926493
0.000923791
0.000921728
0.000920153
0.000918899
0.000917914
0.000917105
0.000916456
0.000915911
0.00091547
0.000915084
0.00091477
0.000914503
0.000914283
0.000914075
0.000913911
0.000913766
0.000913649
0.000913514
0.000913423
0.000913344
0.000913281
0.000913203
0.000913159
0.000913119
0.000913082
0.000912996
0.000913004
0.000912999
0.000912985
0.000912937
0.00091295
0.000912949
0.000912944
0.000912908
0.000912963
0.000912963
0.000912962
0.000912937
0.000913059
0.000913099
0.000913098
0.000913095
0.000913106
0.000913105
0.000913258
0.000913259
0.000913259
0.000913254
0.000913381
0.000913406
0.000913495
0.00091362
0.00091362
0.000913619
0.000913756
0.000913926
0.000913943
0.000913943
0.000914069
0.000914273
0.00091446
0.000914581
0.000914674
0.000914743
0.000914946
0.000915097
0.000915258
0.000915465
0.000915727
0.000915855
0.000916032
0.000916267
0.000916589
0.000916871
0.000917235
0.000917595
0.000918025
0.000918434
0.000919031
0.000919581
0.00092036
0.000921088
0.000922328
0.000923172
0.000926062
0.000925851
0.000952458
0.00102012
0.00226506
0.00102415
0.000976319
0.000953754
0.00094118
0.000933229
0.000927867
0.000924022
0.000921212
0.000919063
0.00091742
0.000916111
0.000915081
0.000914234
0.000913554
0.000912983
0.00091252
0.000912114
0.000911784
0.000911502
0.000911271
0.000911052
0.000910878
0.000910724
0.000910601
0.000910459
0.000910362
0.000910279
0.000910212
0.00091013
0.000910082
0.000910038
0.00091
0.000909911
0.000909915
0.000909909
0.000909893
0.000909843
0.000909854
0.000909853
0.000909846
0.000909807
0.000909861
0.000909861
0.000909859
0.000909832
0.000909954
0.000909993
0.000909993
0.00090999
0.00091
0.000909999
0.000910152
0.000910153
0.000910153
0.000910149
0.000910277