/*--------------------------------*- C++ -*----------------------------------*\
| =========                 |                                                 |
| \\      /  F ield         | OpenFOAM: The Open Source CFD Toolbox           |
|  \\    /   O peration     | Version:  v2012                                 |
|   \\  /    A nd           | Website:  www.openfoam.com                      |
|    \\/     M anipulation  |                                                 |
\*---------------------------------------------------------------------------*/
FoamFile
{
    version     2.0;
    format      ascii;
    class       volScalarField;
    location    "9";
    object      nut;
}
// * * * * * * * * * * * * * * * * * * * * * * * * * * * * * * * * * * * * * //

dimensions      [0 2 -1 0 0 0 0];


internalField   nonuniform List<scalar> 
209825
(
1.24473e-07
1.25425e-07
1.26141e-07
1.26624e-07
1.26971e-07
1.27232e-07
1.27436e-07
1.27599e-07
1.27731e-07
1.27841e-07
1.27932e-07
1.28009e-07
1.28075e-07
1.28131e-07
1.28181e-07
1.28223e-07
1.28259e-07
1.28291e-07
1.28321e-07
1.28345e-07
1.28367e-07
1.28387e-07
1.28404e-07
1.28418e-07
1.28431e-07
1.28444e-07
1.28455e-07
1.28464e-07
1.28473e-07
1.28481e-07
1.28489e-07
1.28493e-07
1.28493e-07
1.28504e-07
1.28513e-07
1.28515e-07
1.28514e-07
1.28522e-07
1.28529e-07
1.28527e-07
1.28526e-07
1.28534e-07
1.28538e-07
1.28519e-07
1.28518e-07
1.28535e-07
1.2854e-07
1.28533e-07
1.28533e-07
1.28521e-07
1.28521e-07
1.28519e-07
1.28504e-07
1.28498e-07
1.28498e-07
1.2849e-07
1.28476e-07
1.28487e-07
1.28492e-07
1.28492e-07
1.28489e-07
1.28487e-07
1.285e-07
1.28483e-07
1.28464e-07
1.28481e-07
1.28507e-07
1.28504e-07
1.28512e-07
1.28486e-07
1.28477e-07
1.28492e-07
1.28475e-07
1.28485e-07
1.28513e-07
1.28516e-07
1.28502e-07
1.28498e-07
1.28502e-07
1.2854e-07
1.28546e-07
1.28563e-07
1.28591e-07
1.28598e-07
1.28619e-07
1.28655e-07
1.28685e-07
1.28725e-07
1.28778e-07
1.28842e-07
1.28912e-07
1.29093e-07
1.29145e-07
1.30267e-07
1.35235e-07
2.07974e-08
1.24473e-07
1.25425e-07
1.26141e-07
1.26624e-07
1.26971e-07
1.27232e-07
1.27436e-07
1.27599e-07
1.27732e-07
1.27841e-07
1.27933e-07
1.2801e-07
1.28076e-07
1.28132e-07
1.28181e-07
1.28223e-07
1.28259e-07
1.28291e-07
1.28321e-07
1.28346e-07
1.28368e-07
1.28387e-07
1.28405e-07
1.28419e-07
1.28432e-07
1.28444e-07
1.28456e-07
1.28464e-07
1.28474e-07
1.28482e-07
1.2849e-07
1.28494e-07
1.28493e-07
1.28505e-07
1.28514e-07
1.28516e-07
1.28515e-07
1.28522e-07
1.28529e-07
1.28528e-07
1.28526e-07
1.28535e-07
1.28538e-07
1.2852e-07
1.28519e-07
1.28535e-07
1.2854e-07
1.28534e-07
1.28534e-07
1.28522e-07
1.28522e-07
1.28519e-07
1.28504e-07
1.28499e-07
1.28498e-07
1.28491e-07
1.28477e-07
1.28488e-07
1.28493e-07
1.28493e-07
1.2849e-07
1.28487e-07
1.285e-07
1.28484e-07
1.28464e-07
1.28482e-07
1.28507e-07
1.28504e-07
1.28512e-07
1.28486e-07
1.28478e-07
1.28492e-07
1.28476e-07
1.28485e-07
1.28513e-07
1.28517e-07
1.28503e-07
1.28498e-07
1.28502e-07
1.2854e-07
1.28547e-07
1.28563e-07
1.28592e-07
1.28598e-07
1.2862e-07
1.28656e-07
1.28686e-07
1.28726e-07
1.28778e-07
1.28843e-07
1.28913e-07
1.29094e-07
1.29146e-07
1.3027e-07
1.35242e-07
2.14143e-08
1.24472e-07
1.25422e-07
1.26138e-07
1.26621e-07
1.26968e-07
1.27229e-07
1.27433e-07
1.27596e-07
1.27729e-07
1.27838e-07
1.2793e-07
1.28007e-07
1.28073e-07
1.28129e-07
1.28179e-07
1.28221e-07
1.28257e-07
1.28289e-07
1.28319e-07
1.28344e-07
1.28366e-07
1.28385e-07
1.28402e-07
1.28417e-07
1.2843e-07
1.28442e-07
1.28454e-07
1.28462e-07
1.28472e-07
1.2848e-07
1.28488e-07
1.28492e-07
1.28491e-07
1.28503e-07
1.28512e-07
1.28514e-07
1.28513e-07
1.2852e-07
1.28527e-07
1.28526e-07
1.28525e-07
1.28533e-07
1.28537e-07
1.28518e-07
1.28517e-07
1.28533e-07
1.28539e-07
1.28532e-07
1.28532e-07
1.2852e-07
1.2852e-07
1.28518e-07
1.28503e-07
1.28497e-07
1.28497e-07
1.28489e-07
1.28475e-07
1.28486e-07
1.28491e-07
1.28491e-07
1.28488e-07
1.28486e-07
1.28499e-07
1.28482e-07
1.28463e-07
1.2848e-07
1.28506e-07
1.28503e-07
1.28511e-07
1.28485e-07
1.28476e-07
1.28491e-07
1.28475e-07
1.28484e-07
1.28512e-07
1.28515e-07
1.28502e-07
1.28497e-07
1.28501e-07
1.28539e-07
1.28545e-07
1.28562e-07
1.28591e-07
1.28597e-07
1.28619e-07
1.28655e-07
1.28685e-07
1.28725e-07
1.28777e-07
1.28842e-07
1.28912e-07
1.29093e-07
1.29145e-07
1.30274e-07
1.35253e-07
2.21818e-08
1.2447e-07
1.25419e-07
1.26134e-07
1.26617e-07
1.26963e-07
1.27225e-07
1.27429e-07
1.27592e-07
1.27725e-07
1.27834e-07
1.27926e-07
1.28003e-07
1.2807e-07
1.28126e-07
1.28175e-07
1.28217e-07
1.28254e-07
1.28286e-07
1.28316e-07
1.28341e-07
1.28363e-07
1.28382e-07
1.284e-07
1.28414e-07
1.28427e-07
1.28439e-07
1.28451e-07
1.2846e-07
1.28469e-07
1.28477e-07
1.28485e-07
1.28489e-07
1.28489e-07
1.285e-07
1.28509e-07
1.28511e-07
1.2851e-07
1.28518e-07
1.28525e-07
1.28523e-07
1.28522e-07
1.28531e-07
1.28534e-07
1.28516e-07
1.28515e-07
1.28531e-07
1.28536e-07
1.2853e-07
1.2853e-07
1.28518e-07
1.28518e-07
1.28516e-07
1.28501e-07
1.28495e-07
1.28495e-07
1.28487e-07
1.28473e-07
1.28484e-07
1.28489e-07
1.28489e-07
1.28486e-07
1.28484e-07
1.28497e-07
1.2848e-07
1.28461e-07
1.28478e-07
1.28504e-07
1.28501e-07
1.28509e-07
1.28483e-07
1.28474e-07
1.28489e-07
1.28473e-07
1.28482e-07
1.2851e-07
1.28514e-07
1.285e-07
1.28495e-07
1.285e-07
1.28537e-07
1.28544e-07
1.28561e-07
1.28589e-07
1.28596e-07
1.28617e-07
1.28654e-07
1.28684e-07
1.28724e-07
1.28776e-07
1.28841e-07
1.28911e-07
1.29092e-07
1.29144e-07
1.3028e-07
1.35272e-07
2.30353e-08
1.24468e-07
1.25414e-07
1.26128e-07
1.26611e-07
1.26958e-07
1.27219e-07
1.27423e-07
1.27587e-07
1.2772e-07
1.27829e-07
1.27921e-07
1.27999e-07
1.28065e-07
1.28121e-07
1.28171e-07
1.28213e-07
1.2825e-07
1.28282e-07
1.28312e-07
1.28337e-07
1.28359e-07
1.28378e-07
1.28396e-07
1.2841e-07
1.28424e-07
1.28436e-07
1.28448e-07
1.28456e-07
1.28466e-07
1.28474e-07
1.28482e-07
1.28486e-07
1.28486e-07
1.28497e-07
1.28506e-07
1.28508e-07
1.28507e-07
1.28515e-07
1.28522e-07
1.2852e-07
1.28519e-07
1.28528e-07
1.28531e-07
1.28513e-07
1.28512e-07
1.28528e-07
1.28534e-07
1.28527e-07
1.28527e-07
1.28515e-07
1.28515e-07
1.28513e-07
1.28498e-07
1.28493e-07
1.28492e-07
1.28485e-07
1.2847e-07
1.28481e-07
1.28487e-07
1.28487e-07
1.28483e-07
1.28481e-07
1.28494e-07
1.28478e-07
1.28458e-07
1.28476e-07
1.28501e-07
1.28499e-07
1.28507e-07
1.28481e-07
1.28472e-07
1.28487e-07
1.28471e-07
1.2848e-07
1.28508e-07
1.28512e-07
1.28498e-07
1.28494e-07
1.28498e-07
1.28536e-07
1.28542e-07
1.28559e-07
1.28587e-07
1.28594e-07
1.28616e-07
1.28652e-07
1.28683e-07
1.28723e-07
1.28775e-07
1.2884e-07
1.2891e-07
1.29092e-07
1.29142e-07
1.30288e-07
1.35297e-07
2.39626e-08
1.24465e-07
1.25407e-07
1.26121e-07
1.26603e-07
1.2695e-07
1.27212e-07
1.27416e-07
1.2758e-07
1.27713e-07
1.27823e-07
1.27916e-07
1.27993e-07
1.2806e-07
1.28116e-07
1.28166e-07
1.28208e-07
1.28245e-07
1.28277e-07
1.28307e-07
1.28332e-07
1.28355e-07
1.28374e-07
1.28392e-07
1.28406e-07
1.2842e-07
1.28432e-07
1.28444e-07
1.28453e-07
1.28462e-07
1.2847e-07
1.28478e-07
1.28483e-07
1.28482e-07
1.28493e-07
1.28503e-07
1.28505e-07
1.28504e-07
1.28511e-07
1.28519e-07
1.28517e-07
1.28516e-07
1.28525e-07
1.28528e-07
1.2851e-07
1.28509e-07
1.28525e-07
1.2853e-07
1.28524e-07
1.28524e-07
1.28512e-07
1.28512e-07
1.2851e-07
1.28495e-07
1.2849e-07
1.28489e-07
1.28482e-07
1.28467e-07
1.28479e-07
1.28484e-07
1.28484e-07
1.28481e-07
1.28478e-07
1.28492e-07
1.28475e-07
1.28456e-07
1.28473e-07
1.28499e-07
1.28496e-07
1.28505e-07
1.28479e-07
1.2847e-07
1.28484e-07
1.28469e-07
1.28478e-07
1.28506e-07
1.2851e-07
1.28496e-07
1.28492e-07
1.28496e-07
1.28534e-07
1.2854e-07
1.28557e-07
1.28586e-07
1.28593e-07
1.28614e-07
1.28651e-07
1.28681e-07
1.28722e-07
1.28774e-07
1.28839e-07
1.28909e-07
1.29092e-07
1.29141e-07
1.303e-07
1.35328e-07
2.49612e-08
1.24461e-07
1.254e-07
1.26112e-07
1.26594e-07
1.26942e-07
1.27204e-07
1.27408e-07
1.27572e-07
1.27706e-07
1.27816e-07
1.27908e-07
1.27986e-07
1.28053e-07
1.2811e-07
1.2816e-07
1.28202e-07
1.28239e-07
1.28271e-07
1.28302e-07
1.28327e-07
1.28349e-07
1.28369e-07
1.28387e-07
1.28402e-07
1.28415e-07
1.28427e-07
1.28439e-07
1.28448e-07
1.28458e-07
1.28466e-07
1.28474e-07
1.28478e-07
1.28478e-07
1.28489e-07
1.28499e-07
1.28501e-07
1.285e-07
1.28507e-07
1.28515e-07
1.28513e-07
1.28512e-07
1.28521e-07
1.28524e-07
1.28506e-07
1.28505e-07
1.28521e-07
1.28527e-07
1.28521e-07
1.2852e-07
1.28509e-07
1.28509e-07
1.28507e-07
1.28492e-07
1.28486e-07
1.28486e-07
1.28479e-07
1.28464e-07
1.28475e-07
1.28481e-07
1.28481e-07
1.28477e-07
1.28475e-07
1.28489e-07
1.28472e-07
1.28453e-07
1.2847e-07
1.28496e-07
1.28494e-07
1.28502e-07
1.28477e-07
1.28467e-07
1.28482e-07
1.28466e-07
1.28475e-07
1.28503e-07
1.28507e-07
1.28494e-07
1.2849e-07
1.28494e-07
1.28531e-07
1.28538e-07
1.28555e-07
1.28584e-07
1.28591e-07
1.28613e-07
1.28649e-07
1.2868e-07
1.28721e-07
1.28773e-07
1.28838e-07
1.28908e-07
1.29092e-07
1.2914e-07
1.30314e-07
1.35365e-07
2.60316e-08
1.24457e-07
1.25391e-07
1.26102e-07
1.26584e-07
1.26931e-07
1.27194e-07
1.27399e-07
1.27563e-07
1.27697e-07
1.27807e-07
1.279e-07
1.27978e-07
1.28045e-07
1.28102e-07
1.28153e-07
1.28195e-07
1.28232e-07
1.28265e-07
1.28295e-07
1.28321e-07
1.28344e-07
1.28363e-07
1.28381e-07
1.28396e-07
1.28409e-07
1.28422e-07
1.28434e-07
1.28443e-07
1.28453e-07
1.28461e-07
1.28469e-07
1.28474e-07
1.28473e-07
1.28484e-07
1.28494e-07
1.28496e-07
1.28495e-07
1.28503e-07
1.2851e-07
1.28509e-07
1.28508e-07
1.28516e-07
1.2852e-07
1.28502e-07
1.28501e-07
1.28517e-07
1.28523e-07
1.28517e-07
1.28516e-07
1.28505e-07
1.28505e-07
1.28503e-07
1.28488e-07
1.28483e-07
1.28482e-07
1.28475e-07
1.28461e-07
1.28472e-07
1.28478e-07
1.28478e-07
1.28474e-07
1.28471e-07
1.28485e-07
1.28469e-07
1.28449e-07
1.28467e-07
1.28493e-07
1.2849e-07
1.28499e-07
1.28474e-07
1.28465e-07
1.28479e-07
1.28464e-07
1.28473e-07
1.28501e-07
1.28505e-07
1.28492e-07
1.28488e-07
1.28491e-07
1.28529e-07
1.28536e-07
1.28553e-07
1.28582e-07
1.2859e-07
1.28611e-07
1.28648e-07
1.28679e-07
1.2872e-07
1.28772e-07
1.28838e-07
1.28908e-07
1.29092e-07
1.29138e-07
1.30331e-07
1.35406e-07
2.71748e-08
1.24452e-07
1.2538e-07
1.2609e-07
1.26572e-07
1.2692e-07
1.27182e-07
1.27388e-07
1.27552e-07
1.27687e-07
1.27798e-07
1.27891e-07
1.27969e-07
1.28037e-07
1.28094e-07
1.28145e-07
1.28188e-07
1.28225e-07
1.28257e-07
1.28288e-07
1.28314e-07
1.28337e-07
1.28357e-07
1.28375e-07
1.2839e-07
1.28403e-07
1.28416e-07
1.28428e-07
1.28437e-07
1.28447e-07
1.28455e-07
1.28464e-07
1.28468e-07
1.28468e-07
1.28479e-07
1.28489e-07
1.28491e-07
1.2849e-07
1.28498e-07
1.28505e-07
1.28504e-07
1.28503e-07
1.28512e-07
1.28516e-07
1.28498e-07
1.28497e-07
1.28513e-07
1.28518e-07
1.28512e-07
1.28512e-07
1.28501e-07
1.28501e-07
1.28499e-07
1.28484e-07
1.28479e-07
1.28478e-07
1.28471e-07
1.28457e-07
1.28468e-07
1.28474e-07
1.28474e-07
1.2847e-07
1.28468e-07
1.28482e-07
1.28466e-07
1.28446e-07
1.28463e-07
1.28489e-07
1.28487e-07
1.28496e-07
1.28471e-07
1.28462e-07
1.28476e-07
1.28461e-07
1.2847e-07
1.28498e-07
1.28502e-07
1.2849e-07
1.28485e-07
1.28489e-07
1.28527e-07
1.28534e-07
1.28551e-07
1.2858e-07
1.28588e-07
1.28609e-07
1.28646e-07
1.28677e-07
1.28718e-07
1.28771e-07
1.28837e-07
1.28907e-07
1.29092e-07
1.29137e-07
1.30352e-07
1.35448e-07
2.83919e-08
1.24447e-07
1.25369e-07
1.26077e-07
1.26558e-07
1.26906e-07
1.27169e-07
1.27375e-07
1.2754e-07
1.27675e-07
1.27787e-07
1.2788e-07
1.27959e-07
1.28027e-07
1.28085e-07
1.28136e-07
1.28179e-07
1.28217e-07
1.28249e-07
1.28281e-07
1.28306e-07
1.28329e-07
1.28349e-07
1.28368e-07
1.28383e-07
1.28397e-07
1.2841e-07
1.28422e-07
1.28431e-07
1.28441e-07
1.28449e-07
1.28458e-07
1.28463e-07
1.28462e-07
1.28473e-07
1.28483e-07
1.28486e-07
1.28485e-07
1.28492e-07
1.285e-07
1.28499e-07
1.28497e-07
1.28506e-07
1.28511e-07
1.28493e-07
1.28492e-07
1.28508e-07
1.28513e-07
1.28507e-07
1.28507e-07
1.28496e-07
1.28496e-07
1.28494e-07
1.28479e-07
1.28474e-07
1.28474e-07
1.28467e-07
1.28453e-07
1.28464e-07
1.2847e-07
1.2847e-07
1.28466e-07
1.28463e-07
1.28478e-07
1.28462e-07
1.28442e-07
1.28459e-07
1.28485e-07
1.28484e-07
1.28493e-07
1.28468e-07
1.28458e-07
1.28472e-07
1.28458e-07
1.28467e-07
1.28495e-07
1.28499e-07
1.28487e-07
1.28483e-07
1.28486e-07
1.28524e-07
1.28531e-07
1.28548e-07
1.28578e-07
1.28586e-07
1.28607e-07
1.28645e-07
1.28676e-07
1.28717e-07
1.2877e-07
1.28837e-07
1.28906e-07
1.29092e-07
1.29135e-07
1.30375e-07
1.35491e-07
2.96824e-08
1.24441e-07
1.25356e-07
1.26062e-07
1.26543e-07
1.26891e-07
1.27155e-07
1.27361e-07
1.27527e-07
1.27662e-07
1.27774e-07
1.27869e-07
1.27948e-07
1.28016e-07
1.28074e-07
1.28126e-07
1.28169e-07
1.28207e-07
1.2824e-07
1.28272e-07
1.28298e-07
1.28321e-07
1.28341e-07
1.2836e-07
1.28375e-07
1.28389e-07
1.28402e-07
1.28415e-07
1.28424e-07
1.28434e-07
1.28443e-07
1.28451e-07
1.28456e-07
1.28456e-07
1.28467e-07
1.28477e-07
1.2848e-07
1.28479e-07
1.28486e-07
1.28494e-07
1.28493e-07
1.28491e-07
1.28501e-07
1.28505e-07
1.28487e-07
1.28486e-07
1.28502e-07
1.28508e-07
1.28502e-07
1.28502e-07
1.28491e-07
1.28491e-07
1.28489e-07
1.28474e-07
1.28469e-07
1.28469e-07
1.28462e-07
1.28448e-07
1.28459e-07
1.28465e-07
1.28465e-07
1.28461e-07
1.28459e-07
1.28473e-07
1.28458e-07
1.28438e-07
1.28455e-07
1.28481e-07
1.2848e-07
1.28489e-07
1.28465e-07
1.28455e-07
1.28469e-07
1.28454e-07
1.28463e-07
1.28491e-07
1.28496e-07
1.28485e-07
1.2848e-07
1.28484e-07
1.28521e-07
1.28529e-07
1.28546e-07
1.28575e-07
1.28584e-07
1.28606e-07
1.28643e-07
1.28674e-07
1.28716e-07
1.28769e-07
1.28836e-07
1.28906e-07
1.29093e-07
1.29133e-07
1.30402e-07
1.35536e-07
3.10446e-08
1.24434e-07
1.25341e-07
1.26045e-07
1.26526e-07
1.26875e-07
1.27139e-07
1.27346e-07
1.27512e-07
1.27648e-07
1.27761e-07
1.27856e-07
1.27935e-07
1.28004e-07
1.28063e-07
1.28114e-07
1.28159e-07
1.28197e-07
1.2823e-07
1.28262e-07
1.28288e-07
1.28312e-07
1.28333e-07
1.28351e-07
1.28367e-07
1.28381e-07
1.28394e-07
1.28407e-07
1.28417e-07
1.28427e-07
1.28435e-07
1.28444e-07
1.28449e-07
1.28449e-07
1.2846e-07
1.2847e-07
1.28473e-07
1.28472e-07
1.2848e-07
1.28488e-07
1.28487e-07
1.28485e-07
1.28494e-07
1.28499e-07
1.28481e-07
1.2848e-07
1.28497e-07
1.28502e-07
1.28496e-07
1.28496e-07
1.28485e-07
1.28485e-07
1.28484e-07
1.28469e-07
1.28464e-07
1.28464e-07
1.28457e-07
1.28443e-07
1.28454e-07
1.28461e-07
1.28461e-07
1.28456e-07
1.28453e-07
1.28469e-07
1.28454e-07
1.28433e-07
1.28451e-07
1.28477e-07
1.28475e-07
1.28486e-07
1.28462e-07
1.28451e-07
1.28465e-07
1.28451e-07
1.2846e-07
1.28488e-07
1.28493e-07
1.28482e-07
1.28478e-07
1.28481e-07
1.28518e-07
1.28526e-07
1.28543e-07
1.28573e-07
1.28582e-07
1.28604e-07
1.28641e-07
1.28673e-07
1.28715e-07
1.28768e-07
1.28836e-07
1.28905e-07
1.29094e-07
1.29132e-07
1.30432e-07
1.35583e-07
3.24742e-08
1.24427e-07
1.25325e-07
1.26027e-07
1.26508e-07
1.26856e-07
1.27121e-07
1.27329e-07
1.27496e-07
1.27633e-07
1.27746e-07
1.27841e-07
1.27922e-07
1.27991e-07
1.2805e-07
1.28102e-07
1.28147e-07
1.28186e-07
1.28219e-07
1.28252e-07
1.28278e-07
1.28302e-07
1.28323e-07
1.28342e-07
1.28358e-07
1.28372e-07
1.28386e-07
1.28398e-07
1.28408e-07
1.28419e-07
1.28427e-07
1.28436e-07
1.28441e-07
1.28441e-07
1.28452e-07
1.28463e-07
1.28466e-07
1.28465e-07
1.28472e-07
1.28481e-07
1.2848e-07
1.28478e-07
1.28488e-07
1.28492e-07
1.28475e-07
1.28474e-07
1.2849e-07
1.28496e-07
1.2849e-07
1.2849e-07
1.28479e-07
1.28479e-07
1.28478e-07
1.28463e-07
1.28458e-07
1.28458e-07
1.28452e-07
1.28438e-07
1.28449e-07
1.28455e-07
1.28455e-07
1.28451e-07
1.28448e-07
1.28464e-07
1.28449e-07
1.28428e-07
1.28446e-07
1.28472e-07
1.28471e-07
1.28481e-07
1.28458e-07
1.28447e-07
1.28461e-07
1.28447e-07
1.28456e-07
1.28484e-07
1.2849e-07
1.28479e-07
1.28475e-07
1.28477e-07
1.28515e-07
1.28523e-07
1.2854e-07
1.2857e-07
1.2858e-07
1.28602e-07
1.28639e-07
1.28671e-07
1.28714e-07
1.28766e-07
1.28835e-07
1.28904e-07
1.29095e-07
1.2913e-07
1.30466e-07
1.35632e-07
3.3975e-08
1.24419e-07
1.25308e-07
1.26007e-07
1.26487e-07
1.26836e-07
1.27102e-07
1.2731e-07
1.27478e-07
1.27616e-07
1.2773e-07
1.27826e-07
1.27907e-07
1.27977e-07
1.28036e-07
1.28089e-07
1.28134e-07
1.28173e-07
1.28208e-07
1.2824e-07
1.28267e-07
1.28291e-07
1.28312e-07
1.28332e-07
1.28348e-07
1.28363e-07
1.28376e-07
1.28389e-07
1.28399e-07
1.2841e-07
1.28419e-07
1.28428e-07
1.28433e-07
1.28433e-07
1.28444e-07
1.28455e-07
1.28458e-07
1.28457e-07
1.28465e-07
1.28473e-07
1.28472e-07
1.2847e-07
1.2848e-07
1.28485e-07
1.28468e-07
1.28467e-07
1.28483e-07
1.28489e-07
1.28484e-07
1.28483e-07
1.28473e-07
1.28473e-07
1.28472e-07
1.28457e-07
1.28452e-07
1.28452e-07
1.28446e-07
1.28432e-07
1.28443e-07
1.2845e-07
1.2845e-07
1.28445e-07
1.28442e-07
1.28458e-07
1.28444e-07
1.28423e-07
1.2844e-07
1.28467e-07
1.28466e-07
1.28477e-07
1.28454e-07
1.28443e-07
1.28456e-07
1.28443e-07
1.28451e-07
1.2848e-07
1.28486e-07
1.28475e-07
1.28472e-07
1.28474e-07
1.28511e-07
1.2852e-07
1.28537e-07
1.28567e-07
1.28578e-07
1.28599e-07
1.28637e-07
1.2867e-07
1.28713e-07
1.28765e-07
1.28835e-07
1.28904e-07
1.29096e-07
1.29128e-07
1.30503e-07
1.35682e-07
3.55506e-08
1.24411e-07
1.25289e-07
1.25985e-07
1.26465e-07
1.26815e-07
1.27081e-07
1.2729e-07
1.27459e-07
1.27597e-07
1.27712e-07
1.27809e-07
1.27891e-07
1.27961e-07
1.28021e-07
1.28075e-07
1.2812e-07
1.2816e-07
1.28195e-07
1.28228e-07
1.28255e-07
1.2828e-07
1.28301e-07
1.28321e-07
1.28337e-07
1.28352e-07
1.28366e-07
1.28379e-07
1.28389e-07
1.284e-07
1.28409e-07
1.28419e-07
1.28424e-07
1.28424e-07
1.28435e-07
1.28446e-07
1.28449e-07
1.28449e-07
1.28456e-07
1.28465e-07
1.28464e-07
1.28462e-07
1.28472e-07
1.28478e-07
1.28461e-07
1.28459e-07
1.28476e-07
1.28482e-07
1.28476e-07
1.28476e-07
1.28466e-07
1.28466e-07
1.28465e-07
1.2845e-07
1.28446e-07
1.28445e-07
1.2844e-07
1.28426e-07
1.28437e-07
1.28444e-07
1.28444e-07
1.28439e-07
1.28436e-07
1.28452e-07
1.28438e-07
1.28417e-07
1.28435e-07
1.28462e-07
1.28461e-07
1.28472e-07
1.2845e-07
1.28438e-07
1.28451e-07
1.28438e-07
1.28447e-07
1.28475e-07
1.28482e-07
1.28472e-07
1.28468e-07
1.28471e-07
1.28507e-07
1.28517e-07
1.28534e-07
1.28564e-07
1.28575e-07
1.28597e-07
1.28635e-07
1.28668e-07
1.28712e-07
1.28764e-07
1.28835e-07
1.28903e-07
1.29097e-07
1.29125e-07
1.30543e-07
1.35734e-07
3.72048e-08
1.24402e-07
1.25269e-07
1.25962e-07
1.26442e-07
1.26791e-07
1.27058e-07
1.27268e-07
1.27438e-07
1.27577e-07
1.27693e-07
1.27791e-07
1.27873e-07
1.27945e-07
1.28005e-07
1.28059e-07
1.28105e-07
1.28146e-07
1.28181e-07
1.28214e-07
1.28242e-07
1.28267e-07
1.28289e-07
1.28309e-07
1.28326e-07
1.28341e-07
1.28355e-07
1.28368e-07
1.28379e-07
1.2839e-07
1.28399e-07
1.28409e-07
1.28415e-07
1.28414e-07
1.28426e-07
1.28437e-07
1.2844e-07
1.2844e-07
1.28447e-07
1.28456e-07
1.28455e-07
1.28453e-07
1.28464e-07
1.2847e-07
1.28453e-07
1.28451e-07
1.28468e-07
1.28474e-07
1.28469e-07
1.28469e-07
1.28458e-07
1.28458e-07
1.28458e-07
1.28443e-07
1.28439e-07
1.28438e-07
1.28433e-07
1.28419e-07
1.28431e-07
1.28437e-07
1.28437e-07
1.28432e-07
1.28429e-07
1.28446e-07
1.28433e-07
1.28411e-07
1.28429e-07
1.28456e-07
1.28455e-07
1.28467e-07
1.28446e-07
1.28433e-07
1.28446e-07
1.28434e-07
1.28442e-07
1.28471e-07
1.28478e-07
1.28468e-07
1.28465e-07
1.28467e-07
1.28503e-07
1.28513e-07
1.28531e-07
1.28561e-07
1.28573e-07
1.28595e-07
1.28633e-07
1.28666e-07
1.2871e-07
1.28763e-07
1.28834e-07
1.28902e-07
1.29098e-07
1.29123e-07
1.30586e-07
1.35788e-07
3.8942e-08
1.24392e-07
1.25248e-07
1.25937e-07
1.26416e-07
1.26766e-07
1.27034e-07
1.27245e-07
1.27415e-07
1.27555e-07
1.27672e-07
1.27771e-07
1.27854e-07
1.27926e-07
1.27988e-07
1.28042e-07
1.28089e-07
1.2813e-07
1.28166e-07
1.282e-07
1.28228e-07
1.28253e-07
1.28276e-07
1.28296e-07
1.28313e-07
1.28329e-07
1.28343e-07
1.28357e-07
1.28368e-07
1.28379e-07
1.28388e-07
1.28398e-07
1.28404e-07
1.28404e-07
1.28415e-07
1.28427e-07
1.2843e-07
1.2843e-07
1.28437e-07
1.28446e-07
1.28446e-07
1.28444e-07
1.28454e-07
1.28461e-07
1.28444e-07
1.28442e-07
1.28459e-07
1.28465e-07
1.2846e-07
1.2846e-07
1.2845e-07
1.2845e-07
1.2845e-07
1.28435e-07
1.28431e-07
1.28431e-07
1.28426e-07
1.28412e-07
1.28423e-07
1.2843e-07
1.2843e-07
1.28425e-07
1.28422e-07
1.28439e-07
1.28426e-07
1.28405e-07
1.28422e-07
1.28449e-07
1.28449e-07
1.28462e-07
1.28441e-07
1.28428e-07
1.28441e-07
1.28428e-07
1.28437e-07
1.28466e-07
1.28473e-07
1.28464e-07
1.28461e-07
1.28463e-07
1.28499e-07
1.2851e-07
1.28527e-07
1.28557e-07
1.2857e-07
1.28592e-07
1.28631e-07
1.28664e-07
1.28709e-07
1.28761e-07
1.28834e-07
1.28901e-07
1.29099e-07
1.2912e-07
1.30633e-07
1.35843e-07
4.07664e-08
1.24382e-07
1.25225e-07
1.2591e-07
1.26389e-07
1.26739e-07
1.27007e-07
1.27219e-07
1.27391e-07
1.27532e-07
1.2765e-07
1.2775e-07
1.27834e-07
1.27907e-07
1.27969e-07
1.28024e-07
1.28072e-07
1.28113e-07
1.2815e-07
1.28184e-07
1.28213e-07
1.28239e-07
1.28261e-07
1.28282e-07
1.283e-07
1.28316e-07
1.2833e-07
1.28344e-07
1.28355e-07
1.28367e-07
1.28377e-07
1.28387e-07
1.28393e-07
1.28393e-07
1.28404e-07
1.28416e-07
1.2842e-07
1.28419e-07
1.28427e-07
1.28436e-07
1.28436e-07
1.28434e-07
1.28444e-07
1.28451e-07
1.28435e-07
1.28433e-07
1.2845e-07
1.28456e-07
1.28451e-07
1.28452e-07
1.28442e-07
1.28442e-07
1.28442e-07
1.28427e-07
1.28423e-07
1.28423e-07
1.28418e-07
1.28405e-07
1.28416e-07
1.28423e-07
1.28423e-07
1.28417e-07
1.28414e-07
1.28432e-07
1.2842e-07
1.28398e-07
1.28415e-07
1.28443e-07
1.28443e-07
1.28456e-07
1.28436e-07
1.28422e-07
1.28435e-07
1.28423e-07
1.28432e-07
1.2846e-07
1.28468e-07
1.2846e-07
1.28457e-07
1.28459e-07
1.28495e-07
1.28506e-07
1.28523e-07
1.28554e-07
1.28567e-07
1.28589e-07
1.28628e-07
1.28662e-07
1.28707e-07
1.2876e-07
1.28833e-07
1.289e-07
1.291e-07
1.29117e-07
1.30683e-07
1.35899e-07
4.26823e-08
1.24372e-07
1.252e-07
1.25882e-07
1.26359e-07
1.2671e-07
1.26979e-07
1.27192e-07
1.27365e-07
1.27507e-07
1.27626e-07
1.27727e-07
1.27812e-07
1.27886e-07
1.27949e-07
1.28005e-07
1.28053e-07
1.28096e-07
1.28132e-07
1.28167e-07
1.28197e-07
1.28223e-07
1.28246e-07
1.28267e-07
1.28285e-07
1.28302e-07
1.28317e-07
1.28331e-07
1.28342e-07
1.28354e-07
1.28364e-07
1.28375e-07
1.28381e-07
1.28381e-07
1.28393e-07
1.28404e-07
1.28409e-07
1.28408e-07
1.28416e-07
1.28425e-07
1.28425e-07
1.28423e-07
1.28434e-07
1.28441e-07
1.28425e-07
1.28423e-07
1.2844e-07
1.28446e-07
1.28442e-07
1.28442e-07
1.28433e-07
1.28432e-07
1.28433e-07
1.28418e-07
1.28415e-07
1.28414e-07
1.2841e-07
1.28397e-07
1.28408e-07
1.28415e-07
1.28415e-07
1.28409e-07
1.28406e-07
1.28424e-07
1.28413e-07
1.2839e-07
1.28408e-07
1.28435e-07
1.28436e-07
1.28449e-07
1.2843e-07
1.28416e-07
1.28428e-07
1.28417e-07
1.28426e-07
1.28454e-07
1.28463e-07
1.28455e-07
1.28453e-07
1.28454e-07
1.2849e-07
1.28501e-07
1.28519e-07
1.2855e-07
1.28564e-07
1.28586e-07
1.28625e-07
1.28659e-07
1.28705e-07
1.28758e-07
1.28832e-07
1.28899e-07
1.29101e-07
1.29114e-07
1.30735e-07
1.35957e-07
4.4694e-08
1.2436e-07
1.25175e-07
1.25852e-07
1.26328e-07
1.26679e-07
1.26949e-07
1.27164e-07
1.27337e-07
1.27481e-07
1.27601e-07
1.27703e-07
1.27789e-07
1.27864e-07
1.27928e-07
1.27985e-07
1.28033e-07
1.28076e-07
1.28114e-07
1.28149e-07
1.28179e-07
1.28206e-07
1.2823e-07
1.28252e-07
1.2827e-07
1.28287e-07
1.28302e-07
1.28317e-07
1.28328e-07
1.28341e-07
1.28351e-07
1.28362e-07
1.28368e-07
1.28369e-07
1.2838e-07
1.28392e-07
1.28397e-07
1.28396e-07
1.28404e-07
1.28414e-07
1.28414e-07
1.28412e-07
1.28423e-07
1.2843e-07
1.28415e-07
1.28412e-07
1.28429e-07
1.28436e-07
1.28432e-07
1.28432e-07
1.28423e-07
1.28423e-07
1.28423e-07
1.28409e-07
1.28405e-07
1.28405e-07
1.28401e-07
1.28388e-07
1.28399e-07
1.28407e-07
1.28407e-07
1.284e-07
1.28397e-07
1.28416e-07
1.28405e-07
1.28382e-07
1.284e-07
1.28428e-07
1.28428e-07
1.28443e-07
1.28425e-07
1.2841e-07
1.28421e-07
1.28411e-07
1.2842e-07
1.28448e-07
1.28457e-07
1.2845e-07
1.28448e-07
1.28449e-07
1.28485e-07
1.28497e-07
1.28514e-07
1.28545e-07
1.2856e-07
1.28582e-07
1.28622e-07
1.28657e-07
1.28703e-07
1.28756e-07
1.28831e-07
1.28898e-07
1.29102e-07
1.29111e-07
1.30791e-07
1.36016e-07
4.68059e-08
1.24349e-07
1.25148e-07
1.2582e-07
1.26295e-07
1.26647e-07
1.26918e-07
1.27133e-07
1.27308e-07
1.27453e-07
1.27574e-07
1.27677e-07
1.27764e-07
1.2784e-07
1.27905e-07
1.27963e-07
1.28012e-07
1.28056e-07
1.28094e-07
1.2813e-07
1.28161e-07
1.28188e-07
1.28213e-07
1.28235e-07
1.28254e-07
1.28271e-07
1.28286e-07
1.28302e-07
1.28314e-07
1.28326e-07
1.28337e-07
1.28348e-07
1.28355e-07
1.28355e-07
1.28367e-07
1.28379e-07
1.28384e-07
1.28384e-07
1.28392e-07
1.28401e-07
1.28402e-07
1.284e-07
1.28411e-07
1.28419e-07
1.28404e-07
1.28401e-07
1.28418e-07
1.28425e-07
1.28421e-07
1.28421e-07
1.28412e-07
1.28412e-07
1.28413e-07
1.28399e-07
1.28396e-07
1.28395e-07
1.28391e-07
1.28379e-07
1.2839e-07
1.28398e-07
1.28398e-07
1.28391e-07
1.28388e-07
1.28407e-07
1.28397e-07
1.28374e-07
1.28392e-07
1.28419e-07
1.28421e-07
1.28435e-07
1.28418e-07
1.28403e-07
1.28414e-07
1.28405e-07
1.28413e-07
1.28442e-07
1.28451e-07
1.28445e-07
1.28443e-07
1.28444e-07
1.28479e-07
1.28492e-07
1.28509e-07
1.28541e-07
1.28557e-07
1.28579e-07
1.28619e-07
1.28654e-07
1.28701e-07
1.28753e-07
1.2883e-07
1.28896e-07
1.29102e-07
1.29107e-07
1.30848e-07
1.36076e-07
4.90219e-08
1.24337e-07
1.25119e-07
1.25786e-07
1.2626e-07
1.26612e-07
1.26884e-07
1.271e-07
1.27277e-07
1.27423e-07
1.27545e-07
1.27649e-07
1.27738e-07
1.27815e-07
1.2788e-07
1.27939e-07
1.2799e-07
1.28034e-07
1.28073e-07
1.2811e-07
1.28141e-07
1.28169e-07
1.28194e-07
1.28217e-07
1.28236e-07
1.28254e-07
1.2827e-07
1.28285e-07
1.28298e-07
1.28311e-07
1.28322e-07
1.28333e-07
1.2834e-07
1.28341e-07
1.28353e-07
1.28365e-07
1.2837e-07
1.2837e-07
1.28378e-07
1.28388e-07
1.28389e-07
1.28387e-07
1.28398e-07
1.28407e-07
1.28392e-07
1.28389e-07
1.28406e-07
1.28413e-07
1.28409e-07
1.2841e-07
1.28401e-07
1.28401e-07
1.28403e-07
1.28388e-07
1.28385e-07
1.28385e-07
1.28381e-07
1.2837e-07
1.28381e-07
1.28388e-07
1.28388e-07
1.28381e-07
1.28378e-07
1.28398e-07
1.28389e-07
1.28365e-07
1.28383e-07
1.28411e-07
1.28412e-07
1.28428e-07
1.28412e-07
1.28396e-07
1.28406e-07
1.28398e-07
1.28406e-07
1.28435e-07
1.28445e-07
1.28439e-07
1.28438e-07
1.28438e-07
1.28473e-07
1.28486e-07
1.28504e-07
1.28536e-07
1.28552e-07
1.28575e-07
1.28615e-07
1.2865e-07
1.28698e-07
1.28751e-07
1.28828e-07
1.28894e-07
1.29102e-07
1.29103e-07
1.30908e-07
1.36136e-07
5.13458e-08
1.24325e-07
1.25089e-07
1.2575e-07
1.26224e-07
1.26576e-07
1.26848e-07
1.27066e-07
1.27243e-07
1.27391e-07
1.27514e-07
1.2762e-07
1.27709e-07
1.27788e-07
1.27855e-07
1.27914e-07
1.27966e-07
1.28011e-07
1.28051e-07
1.28088e-07
1.2812e-07
1.28149e-07
1.28174e-07
1.28198e-07
1.28218e-07
1.28236e-07
1.28252e-07
1.28268e-07
1.28281e-07
1.28294e-07
1.28306e-07
1.28317e-07
1.28325e-07
1.28326e-07
1.28337e-07
1.28351e-07
1.28356e-07
1.28356e-07
1.28364e-07
1.28374e-07
1.28375e-07
1.28373e-07
1.28384e-07
1.28394e-07
1.28379e-07
1.28376e-07
1.28393e-07
1.284e-07
1.28397e-07
1.28398e-07
1.28389e-07
1.28389e-07
1.28391e-07
1.28377e-07
1.28374e-07
1.28374e-07
1.2837e-07
1.28359e-07
1.2837e-07
1.28378e-07
1.28378e-07
1.2837e-07
1.28367e-07
1.28387e-07
1.2838e-07
1.28356e-07
1.28373e-07
1.28401e-07
1.28403e-07
1.28419e-07
1.28404e-07
1.28388e-07
1.28398e-07
1.2839e-07
1.28398e-07
1.28427e-07
1.28438e-07
1.28433e-07
1.28432e-07
1.28433e-07
1.28467e-07
1.2848e-07
1.28499e-07
1.2853e-07
1.28548e-07
1.2857e-07
1.28611e-07
1.28647e-07
1.28695e-07
1.28748e-07
1.28826e-07
1.28892e-07
1.29102e-07
1.29098e-07
1.30969e-07
1.36197e-07
5.37808e-08
1.24312e-07
1.25058e-07
1.25713e-07
1.26185e-07
1.26537e-07
1.2681e-07
1.27029e-07
1.27208e-07
1.27357e-07
1.27482e-07
1.27589e-07
1.2768e-07
1.27759e-07
1.27827e-07
1.27888e-07
1.2794e-07
1.27987e-07
1.28027e-07
1.28065e-07
1.28098e-07
1.28128e-07
1.28153e-07
1.28177e-07
1.28198e-07
1.28216e-07
1.28233e-07
1.2825e-07
1.28263e-07
1.28277e-07
1.28288e-07
1.283e-07
1.28309e-07
1.2831e-07
1.28321e-07
1.28335e-07
1.28341e-07
1.28341e-07
1.28349e-07
1.28359e-07
1.28361e-07
1.28359e-07
1.2837e-07
1.2838e-07
1.28366e-07
1.28363e-07
1.2838e-07
1.28387e-07
1.28384e-07
1.28385e-07
1.28377e-07
1.28377e-07
1.28379e-07
1.28365e-07
1.28362e-07
1.28362e-07
1.28359e-07
1.28348e-07
1.28359e-07
1.28367e-07
1.28367e-07
1.28359e-07
1.28356e-07
1.28377e-07
1.28371e-07
1.28346e-07
1.28363e-07
1.28392e-07
1.28394e-07
1.2841e-07
1.28397e-07
1.2838e-07
1.28389e-07
1.28382e-07
1.2839e-07
1.28419e-07
1.2843e-07
1.28426e-07
1.28426e-07
1.28426e-07
1.2846e-07
1.28474e-07
1.28493e-07
1.28524e-07
1.28543e-07
1.28565e-07
1.28607e-07
1.28643e-07
1.28692e-07
1.28744e-07
1.28824e-07
1.28889e-07
1.29101e-07
1.29093e-07
1.31032e-07
1.36257e-07
5.63292e-08
1.24299e-07
1.25026e-07
1.25674e-07
1.26144e-07
1.26496e-07
1.26771e-07
1.26991e-07
1.27171e-07
1.27321e-07
1.27448e-07
1.27556e-07
1.27648e-07
1.27729e-07
1.27798e-07
1.2786e-07
1.27913e-07
1.27961e-07
1.28002e-07
1.28041e-07
1.28075e-07
1.28105e-07
1.28131e-07
1.28156e-07
1.28177e-07
1.28196e-07
1.28214e-07
1.2823e-07
1.28244e-07
1.28258e-07
1.2827e-07
1.28283e-07
1.28291e-07
1.28293e-07
1.28305e-07
1.28318e-07
1.28324e-07
1.28325e-07
1.28333e-07
1.28344e-07
1.28345e-07
1.28343e-07
1.28355e-07
1.28365e-07
1.28352e-07
1.28348e-07
1.28365e-07
1.28372e-07
1.2837e-07
1.28371e-07
1.28364e-07
1.28363e-07
1.28366e-07
1.28352e-07
1.2835e-07
1.28349e-07
1.28347e-07
1.28337e-07
1.28347e-07
1.28356e-07
1.28356e-07
1.28347e-07
1.28344e-07
1.28365e-07
1.2836e-07
1.28335e-07
1.28352e-07
1.28381e-07
1.28384e-07
1.28401e-07
1.28388e-07
1.28371e-07
1.2838e-07
1.28373e-07
1.28382e-07
1.28411e-07
1.28422e-07
1.28419e-07
1.28419e-07
1.28419e-07
1.28452e-07
1.28467e-07
1.28486e-07
1.28518e-07
1.28538e-07
1.2856e-07
1.28602e-07
1.28638e-07
1.28688e-07
1.2874e-07
1.28822e-07
1.28886e-07
1.291e-07
1.29087e-07
1.31095e-07
1.36317e-07
5.89923e-08
1.24285e-07
1.24992e-07
1.25633e-07
1.26101e-07
1.26454e-07
1.26729e-07
1.2695e-07
1.27132e-07
1.27284e-07
1.27412e-07
1.27521e-07
1.27615e-07
1.27697e-07
1.27767e-07
1.2783e-07
1.27885e-07
1.27933e-07
1.27975e-07
1.28015e-07
1.2805e-07
1.28081e-07
1.28108e-07
1.28133e-07
1.28155e-07
1.28174e-07
1.28192e-07
1.2821e-07
1.28224e-07
1.28238e-07
1.28251e-07
1.28264e-07
1.28273e-07
1.28275e-07
1.28287e-07
1.28301e-07
1.28307e-07
1.28308e-07
1.28316e-07
1.28327e-07
1.28329e-07
1.28327e-07
1.28338e-07
1.28349e-07
1.28337e-07
1.28333e-07
1.2835e-07
1.28357e-07
1.28355e-07
1.28357e-07
1.28349e-07