/*--------------------------------*- C++ -*----------------------------------*\
| =========                 |                                                 |
| \\      /  F ield         | OpenFOAM: The Open Source CFD Toolbox           |
|  \\    /   O peration     | Version:  v2012                                 |
|   \\  /    A nd           | Website:  www.openfoam.com                      |
|    \\/     M anipulation  |                                                 |
\*---------------------------------------------------------------------------*/
FoamFile
{
    version     2.0;
    format      ascii;
    class       volVectorField;
    location    "9";
    object      wallShearStress;
}
// * * * * * * * * * * * * * * * * * * * * * * * * * * * * * * * * * * * * * //

dimensions      [0 2 -2 0 0 0 0];


internalField   uniform (0 0 0);

boundaryField
{
    inlet
    {
        type            calculated;
        value           uniform (0 0 0);
    }
    outlet
    {
        type            calculated;
        value           uniform (0 0 0);
    }
    topWall
    {
        type            calculated;
        value           nonuniform List<vector> 
545
(
(1.93495e-08 -1.35908e-08 0)
(1.93752e-08 -3.8207e-08 0)
(1.92644e-08 -6.36092e-08 0)
(1.92089e-08 -8.82251e-08 0)
(1.91618e-08 -1.1175e-07 0)
(1.91122e-08 -1.34492e-07 0)
(1.90576e-08 -1.56652e-07 0)
(1.89976e-08 -1.7822e-07 0)
(1.89324e-08 -1.99149e-07 0)
(1.88627e-08 -2.19435e-07 0)
(1.87888e-08 -2.39106e-07 0)
(1.87111e-08 -2.58183e-07 0)
(1.863e-08 -2.76682e-07 0)
(1.85459e-08 -2.94612e-07 0)
(1.84591e-08 -3.11989e-07 0)
(1.837e-08 -3.28827e-07 0)
(1.82789e-08 -3.4514e-07 0)
(1.81859e-08 -3.60943e-07 0)
(1.80916e-08 -3.76251e-07 0)
(1.79959e-08 -3.91076e-07 0)
(1.78993e-08 -4.05434e-07 0)
(1.78019e-08 -4.19338e-07 0)
(1.77038e-08 -4.328e-07 0)
(1.76054e-08 -4.45835e-07 0)
(1.75067e-08 -4.58456e-07 0)
(1.74079e-08 -4.70674e-07 0)
(1.73091e-08 -4.82503e-07 0)
(1.72105e-08 -4.93954e-07 0)
(1.71122e-08 -5.0504e-07 0)
(1.70142e-08 -5.15772e-07 0)
(1.69168e-08 -5.26161e-07 0)
(1.68199e-08 -5.36218e-07 0)
(1.67237e-08 -5.45954e-07 0)
(1.66282e-08 -5.55378e-07 0)
(1.65334e-08 -5.64502e-07 0)
(1.64395e-08 -5.73335e-07 0)
(1.63465e-08 -5.81886e-07 0)
(1.62544e-08 -5.90165e-07 0)
(1.61632e-08 -5.9818e-07 0)
(1.60731e-08 -6.05939e-07 0)
(1.5984e-08 -6.13453e-07 0)
(1.58958e-08 -6.20727e-07 0)
(1.58088e-08 -6.27771e-07 0)
(1.57228e-08 -6.34592e-07 0)
(1.56379e-08 -6.41196e-07 0)
(1.55541e-08 -6.47592e-07 0)
(1.54713e-08 -6.53787e-07 0)
(1.53896e-08 -6.59785e-07 0)
(1.5309e-08 -6.65595e-07 0)
(1.52295e-08 -6.71222e-07 0)
(1.5151e-08 -6.76673e-07 0)
(1.50736e-08 -6.81952e-07 0)
(1.49972e-08 -6.87066e-07 0)
(1.49218e-08 -6.9202e-07 0)
(1.48475e-08 -6.96819e-07 0)
(1.47741e-08 -7.01469e-07 0)
(1.47017e-08 -7.05973e-07 0)
(1.46302e-08 -7.10338e-07 0)
(1.45597e-08 -7.14566e-07 0)
(1.44901e-08 -7.18664e-07 0)
(1.44213e-08 -7.22634e-07 0)
(1.43534e-08 -7.26481e-07 0)
(1.42864e-08 -7.3021e-07 0)
(1.42201e-08 -7.33823e-07 0)
(1.41546e-08 -7.37324e-07 0)
(1.40898e-08 -7.40718e-07 0)
(1.40258e-08 -7.44007e-07 0)
(1.39624e-08 -7.47194e-07 0)
(1.38999e-08 -7.50286e-07 0)
(1.38373e-08 -7.53275e-07 0)
(1.37779e-08 -7.56204e-07 0)
(1.37085e-08 -7.58965e-07 0)
(1.36439e-08 -7.61653e-07 0)
(1.35976e-08 -7.64334e-07 0)
(1.35515e-08 -7.66884e-07 0)
(1.35056e-08 -7.69418e-07 0)
(1.34596e-08 -7.71959e-07 0)
(1.34138e-08 -7.74487e-07 0)
(1.3368e-08 -7.7699e-07 0)
(1.33222e-08 -7.79468e-07 0)
(1.32765e-08 -7.81927e-07 0)
(1.32309e-08 -7.84367e-07 0)
(1.31853e-08 -7.86789e-07 0)
(1.31398e-08 -7.8919e-07 0)
(1.30943e-08 -7.91572e-07 0)
(1.30489e-08 -7.93935e-07 0)
(1.30036e-08 -7.9628e-07 0)
(1.29583e-08 -7.98605e-07 0)
(1.29131e-08 -8.00912e-07 0)
(1.28679e-08 -8.03199e-07 0)
(1.28229e-08 -8.0547e-07 0)
(1.27777e-08 -8.07717e-07 0)
(1.27337e-08 -8.09968e-07 0)
(1.2685e-08 -8.12133e-07 0)
(1.26565e-08 -8.14568e-07 0)
(1.25426e-08 -8.16404e-07 0)
(1.24057e-08 -8.18176e-07 0)
(1.23638e-08 -8.20427e-07 0)
(1.23291e-08 -8.22081e-07 0)
(1.22963e-08 -8.23664e-07 0)
(1.22637e-08 -8.2537e-07 0)
(1.22311e-08 -8.27136e-07 0)
(1.21985e-08 -8.28885e-07 0)
(1.21657e-08 -8.30611e-07 0)
(1.21328e-08 -8.32333e-07 0)
(1.20997e-08 -8.34059e-07 0)
(1.20666e-08 -8.35788e-07 0)
(1.20333e-08 -8.37516e-07 0)
(1.19999e-08 -8.39241e-07 0)
(1.19664e-08 -8.40966e-07 0)
(1.19327e-08 -8.4269e-07 0)
(1.1899e-08 -8.44414e-07 0)
(1.18651e-08 -8.46137e-07 0)
(1.18311e-08 -8.47859e-07 0)
(1.17969e-08 -8.4958e-07 0)
(1.17626e-08 -8.513e-07 0)
(1.17282e-08 -8.53019e-07 0)
(1.16937e-08 -8.54737e-07 0)
(1.16591e-08 -8.56454e-07 0)
(1.16243e-08 -8.58169e-07 0)
(1.15894e-08 -8.59884e-07 0)
(1.15544e-08 -8.61598e-07 0)
(1.15192e-08 -8.6331e-07 0)
(1.1484e-08 -8.65022e-07 0)
(1.14486e-08 -8.66732e-07 0)
(1.1413e-08 -8.68441e-07 0)
(1.13774e-08 -8.70148e-07 0)
(1.13416e-08 -8.71854e-07 0)
(1.13057e-08 -8.73559e-07 0)
(1.12696e-08 -8.75262e-07 0)
(1.12335e-08 -8.76964e-07 0)
(1.11972e-08 -8.78664e-07 0)
(1.11608e-08 -8.80363e-07 0)
(1.11242e-08 -8.82061e-07 0)
(1.10875e-08 -8.83756e-07 0)
(1.10507e-08 -8.85451e-07 0)
(1.10138e-08 -8.87143e-07 0)
(1.09767e-08 -8.88834e-07 0)
(1.09395e-08 -8.90523e-07 0)
(1.09022e-08 -8.9221e-07 0)
(1.08648e-08 -8.93895e-07 0)
(1.08272e-08 -8.95579e-07 0)
(1.07895e-08 -8.97261e-07 0)
(1.07517e-08 -8.9894e-07 0)
(1.07137e-08 -9.00618e-07 0)
(1.06757e-08 -9.02294e-07 0)
(1.06374e-08 -9.03968e-07 0)
(1.05991e-08 -9.05639e-07 0)
(1.05606e-08 -9.07309e-07 0)
(1.0522e-08 -9.08976e-07 0)
(1.04833e-08 -9.10641e-07 0)
(1.04445e-08 -9.12304e-07 0)
(1.04055e-08 -9.13965e-07 0)
(1.03664e-08 -9.15623e-07 0)
(1.03272e-08 -9.17279e-07 0)
(1.02878e-08 -9.18933e-07 0)
(1.02483e-08 -9.20584e-07 0)
(1.02087e-08 -9.22232e-07 0)
(1.0169e-08 -9.23879e-07 0)
(1.01291e-08 -9.25522e-07 0)
(1.00891e-08 -9.27163e-07 0)
(1.0049e-08 -9.28801e-07 0)
(1.00088e-08 -9.30437e-07 0)
(9.96843e-09 -9.3207e-07 0)
(9.92794e-09 -9.337e-07 0)
(9.88733e-09 -9.35327e-07 0)
(9.84659e-09 -9.36951e-07 0)
(9.80572e-09 -9.38573e-07 0)
(9.76474e-09 -9.40191e-07 0)
(9.72362e-09 -9.41807e-07 0)
(9.68239e-09 -9.43419e-07 0)
(9.64103e-09 -9.45029e-07 0)
(9.59955e-09 -9.46635e-07 0)
(9.55794e-09 -9.48238e-07 0)
(9.51621e-09 -9.49838e-07 0)
(9.47436e-09 -9.51434e-07 0)
(9.43239e-09 -9.53028e-07 0)
(9.39029e-09 -9.54618e-07 0)
(9.34808e-09 -9.56204e-07 0)
(9.30574e-09 -9.57787e-07 0)
(9.26328e-09 -9.59367e-07 0)
(9.2207e-09 -9.60943e-07 0)
(9.178e-09 -9.62516e-07 0)
(9.13519e-09 -9.64084e-07 0)
(9.09225e-09 -9.6565e-07 0)
(9.04919e-09 -9.67211e-07 0)
(9.00601e-09 -9.68769e-07 0)
(8.96272e-09 -9.70323e-07 0)
(8.91931e-09 -9.71873e-07 0)
(8.87578e-09 -9.73419e-07 0)
(8.83213e-09 -9.74961e-07 0)
(8.78837e-09 -9.76499e-07 0)
(8.74449e-09 -9.78034e-07 0)
(8.70049e-09 -9.79564e-07 0)
(8.65638e-09 -9.8109e-07 0)
(8.61215e-09 -9.82611e-07 0)
(8.56781e-09 -9.84129e-07 0)
(8.52335e-09 -9.85642e-07 0)
(8.47879e-09 -9.87151e-07 0)
(8.4341e-09 -9.88655e-07 0)
(8.38931e-09 -9.90155e-07 0)
(8.3444e-09 -9.91651e-07 0)
(8.29939e-09 -9.93142e-07 0)
(8.25426e-09 -9.94628e-07 0)
(8.20902e-09 -9.9611e-07 0)
(8.16367e-09 -9.97587e-07 0)
(8.11821e-09 -9.99059e-07 0)
(8.07265e-09 -1.00053e-06 0)
(8.02697e-09 -1.00199e-06 0)
(7.98119e-09 -1.00345e-06 0)
(7.9353e-09 -1.0049e-06 0)
(7.8893e-09 -1.00635e-06 0)
(7.8432e-09 -1.00779e-06 0)
(7.797e-09 -1.00923e-06 0)
(7.75069e-09 -1.01066e-06 0)
(7.70427e-09 -1.01209e-06 0)
(7.65776e-09 -1.01351e-06 0)
(7.61114e-09 -1.01493e-06 0)
(7.56442e-09 -1.01634e-06 0)
(7.51759e-09 -1.01775e-06 0)
(7.47067e-09 -1.01915e-06 0)
(7.42365e-09 -1.02054e-06 0)
(7.37653e-09 -1.02193e-06 0)
(7.32931e-09 -1.02331e-06 0)
(7.282e-09 -1.02469e-06 0)
(7.23459e-09 -1.02607e-06 0)
(7.18708e-09 -1.02743e-06 0)
(7.13948e-09 -1.02879e-06 0)
(7.09179e-09 -1.03015e-06 0)
(7.044e-09 -1.0315e-06 0)
(6.99612e-09 -1.03284e-06 0)
(6.94815e-09 -1.03418e-06 0)
(6.90009e-09 -1.03551e-06 0)
(6.85194e-09 -1.03683e-06 0)
(6.8037e-09 -1.03815e-06 0)
(6.75537e-09 -1.03946e-06 0)
(6.70695e-09 -1.04077e-06 0)
(6.65846e-09 -1.04207e-06 0)
(6.60987e-09 -1.04336e-06 0)
(6.5612e-09 -1.04465e-06 0)
(6.51245e-09 -1.04593e-06 0)
(6.46362e-09 -1.0472e-06 0)
(6.41471e-09 -1.04847e-06 0)
(6.36571e-09 -1.04973e-06 0)
(6.31664e-09 -1.05099e-06 0)
(6.26749e-09 -1.05223e-06 0)
(6.21826e-09 -1.05347e-06 0)
(6.16896e-09 -1.05471e-06 0)
(6.11959e-09 -1.05593e-06 0)
(6.07014e-09 -1.05715e-06 0)
(6.02062e-09 -1.05836e-06 0)
(5.97102e-09 -1.05957e-06 0)
(5.92136e-09 -1.06077e-06 0)
(5.87163e-09 -1.06196e-06 0)
(5.82183e-09 -1.06314e-06 0)
(5.77197e-09 -1.06432e-06 0)
(5.72204e-09 -1.06549e-06 0)
(5.67204e-09 -1.06665e-06 0)
(5.62198e-09 -1.0678e-06 0)
(5.57187e-09 -1.06895e-06 0)
(5.52169e-09 -1.07009e-06 0)
(5.47145e-09 -1.07122e-06 0)
(5.42115e-09 -1.07234e-06 0)
(5.37083e-09 -1.07346e-06 0)
(5.32029e-09 -1.07456e-06 0)
(5.27038e-09 -1.07568e-06 0)
(5.21753e-09 -1.07672e-06 0)
(5.17684e-09 -1.07804e-06 0)
(5.08436e-09 -1.07879e-06 0)
(4.97693e-09 -1.07958e-06 0)
(4.92885e-09 -1.08102e-06 0)
(4.88876e-09 -1.0819e-06 0)
(4.85025e-09 -1.08269e-06 0)
(4.81169e-09 -1.08359e-06 0)
(4.77271e-09 -1.08456e-06 0)
(4.73324e-09 -1.08552e-06 0)
(4.69324e-09 -1.08646e-06 0)
(4.65271e-09 -1.0874e-06 0)
(4.61165e-09 -1.08834e-06 0)
(4.57006e-09 -1.08929e-06 0)
(4.52793e-09 -1.09024e-06 0)
(4.48527e-09 -1.09119e-06 0)
(4.44207e-09 -1.09215e-06 0)
(4.39833e-09 -1.0931e-06 0)
(4.35406e-09 -1.09405e-06 0)
(4.30925e-09 -1.09501e-06 0)
(4.26389e-09 -1.09596e-06 0)
(4.218e-09 -1.09692e-06 0)
(4.17157e-09 -1.09787e-06 0)
(4.12459e-09 -1.09883e-06 0)
(4.07707e-09 -1.09978e-06 0)
(4.02901e-09 -1.10073e-06 0)
(3.9804e-09 -1.10169e-06 0)
(3.93125e-09 -1.10264e-06 0)
(3.88156e-09 -1.10358e-06 0)
(3.83133e-09 -1.10453e-06 0)
(3.78055e-09 -1.10548e-06 0)
(3.72923e-09 -1.10642e-06 0)
(3.67736e-09 -1.10736e-06 0)
(3.62496e-09 -1.10829e-06 0)
(3.57201e-09 -1.10922e-06 0)
(3.51852e-09 -1.11015e-06 0)
(3.46449e-09 -1.11108e-06 0)
(3.40993e-09 -1.112e-06 0)
(3.35482e-09 -1.11291e-06 0)
(3.29918e-09 -1.11382e-06 0)
(3.24301e-09 -1.11472e-06 0)
(3.1863e-09 -1.11562e-06 0)
(3.12906e-09 -1.11651e-06 0)
(3.07129e-09 -1.1174e-06 0)
(3.013e-09 -1.11827e-06 0)
(2.95418e-09 -1.11914e-06 0)
(2.89484e-09 -1.12001e-06 0)
(2.83498e-09 -1.12086e-06 0)
(2.7746e-09 -1.1217e-06 0)
(2.71372e-09 -1.12254e-06 0)
(2.65232e-09 -1.12336e-06 0)
(2.59042e-09 -1.12418e-06 0)
(2.52802e-09 -1.12498e-06 0)
(2.46512e-09 -1.12578e-06 0)
(2.40172e-09 -1.12656e-06 0)
(2.33784e-09 -1.12733e-06 0)
(2.27348e-09 -1.12808e-06 0)
(2.20864e-09 -1.12883e-06 0)
(2.14332e-09 -1.12956e-06 0)
(2.07755e-09 -1.13027e-06 0)
(2.01131e-09 -1.13097e-06 0)
(1.94462e-09 -1.13165e-06 0)
(1.87748e-09 -1.13232e-06 0)
(1.8099e-09 -1.13297e-06 0)
(1.74189e-09 -1.13361e-06 0)
(1.67345e-09 -1.13422e-06 0)
(1.6046e-09 -1.13482e-06 0)
(1.53534e-09 -1.1354e-06 0)
(1.46569e-09 -1.13596e-06 0)
(1.39564e-09 -1.1365e-06 0)
(1.32521e-09 -1.13702e-06 0)
(1.25442e-09 -1.13751e-06 0)
(1.18326e-09 -1.13799e-06 0)
(1.11175e-09 -1.13844e-06 0)
(1.03991e-09 -1.13886e-06 0)
(9.67739e-10 -1.13926e-06 0)
(8.95254e-10 -1.13964e-06 0)
(8.22467e-10 -1.13999e-06 0)
(7.4939e-10 -1.14032e-06 0)
(6.76037e-10 -1.14061e-06 0)
(6.02422e-10 -1.14088e-06 0)
(5.28559e-10 -1.14112e-06 0)
(4.54461e-10 -1.14133e-06 0)
(3.80145e-10 -1.14151e-06 0)
(3.05625e-10 -1.14166e-06 0)
(2.30918e-10 -1.14177e-06 0)
(1.5604e-10 -1.14186e-06 0)
(8.10073e-11 -1.14191e-06 0)
(5.83799e-12 -1.14192e-06 0)
(-6.94504e-11 -1.1419e-06 0)
(-1.4484e-10 -1.14185e-06 0)
(-2.20311e-10 -1.14175e-06 0)
(-2.95845e-10 -1.14162e-06 0)
(-3.71422e-10 -1.14145e-06 0)
(-4.47022e-10 -1.14124e-06 0)
(-5.22625e-10 -1.141e-06 0)
(-5.98208e-10 -1.14071e-06 0)
(-6.73751e-10 -1.14037e-06 0)
(-7.49231e-10 -1.14e-06 0)
(-8.24626e-10 -1.13958e-06 0)
(-8.99912e-10 -1.13912e-06 0)
(-9.75067e-10 -1.13861e-06 0)
(-1.05007e-09 -1.13806e-06 0)
(-1.12488e-09 -1.13745e-06 0)
(-1.1995e-09 -1.1368e-06 0)
(-1.27388e-09 -1.13611e-06 0)
(-1.34801e-09 -1.13536e-06 0)
(-1.42185e-09 -1.13456e-06 0)
(-1.49539e-09 -1.13371e-06 0)
(-1.56859e-09 -1.13281e-06 0)
(-1.64143e-09 -1.13186e-06 0)
(-1.71388e-09 -1.13085e-06 0)
(-1.78591e-09 -1.12979e-06 0)
(-1.85749e-09 -1.12867e-06 0)
(-1.9286e-09 -1.12749e-06 0)
(-1.9992e-09 -1.12626e-06 0)
(-2.06928e-09 -1.12498e-06 0)
(-2.13879e-09 -1.12363e-06 0)
(-2.2077e-09 -1.12222e-06 0)
(-2.276e-09 -1.12076e-06 0)
(-2.34364e-09 -1.11923e-06 0)
(-2.41061e-09 -1.11764e-06 0)
(-2.47686e-09 -1.11599e-06 0)
(-2.54237e-09 -1.11428e-06 0)
(-2.60712e-09 -1.1125e-06 0)
(-2.67106e-09 -1.11066e-06 0)
(-2.73417e-09 -1.10876e-06 0)
(-2.79642e-09 -1.10679e-06 0)
(-2.85778e-09 -1.10475e-06 0)
(-2.91821e-09 -1.10265e-06 0)
(-2.9777e-09 -1.10048e-06 0)
(-3.03621e-09 -1.09825e-06 0)
(-3.09371e-09 -1.09594e-06 0)
(-3.15018e-09 -1.09357e-06 0)
(-3.20557e-09 -1.09113e-06 0)
(-3.25988e-09 -1.08862e-06 0)
(-3.31306e-09 -1.08605e-06 0)
(-3.36508e-09 -1.0834e-06 0)
(-3.41593e-09 -1.08068e-06 0)
(-3.46557e-09 -1.07789e-06 0)
(-3.51398e-09 -1.07503e-06 0)
(-3.56113e-09 -1.07211e-06 0)
(-3.60698e-09 -1.06911e-06 0)
(-3.65152e-09 -1.06604e-06 0)
(-3.69472e-09 -1.0629e-06 0)
(-3.73656e-09 -1.05969e-06 0)
(-3.77699e-09 -1.0564e-06 0)
(-3.81601e-09 -1.05305e-06 0)
(-3.85358e-09 -1.04963e-06 0)
(-3.88969e-09 -1.04613e-06 0)
(-3.9243e-09 -1.04257e-06 0)
(-3.95739e-09 -1.03893e-06 0)
(-3.98894e-09 -1.03523e-06 0)
(-4.01893e-09 -1.03146e-06 0)
(-4.04734e-09 -1.02762e-06 0)
(-4.07415e-09 -1.02371e-06 0)
(-4.09934e-09 -1.01973e-06 0)
(-4.12289e-09 -1.01569e-06 0)
(-4.1448e-09 -1.01157e-06 0)
(-4.16504e-09 -1.0074e-06 0)
(-4.18362e-09 -1.00316e-06 0)
(-4.20052e-09 -9.9885e-07 0)
(-4.21574e-09 -9.9448e-07 0)
(-4.22928e-09 -9.90049e-07 0)
(-4.24113e-09 -9.85556e-07 0)
(-4.2513e-09 -9.81002e-07 0)
(-4.25979e-09 -9.76389e-07 0)
(-4.2666e-09 -9.71718e-07 0)
(-4.27174e-09 -9.6699e-07 0)
(-4.27522e-09 -9.62205e-07 0)
(-4.27704e-09 -9.57366e-07 0)
(-4.27722e-09 -9.52473e-07 0)
(-4.27576e-09 -9.47528e-07 0)
(-4.27267e-09 -9.42532e-07 0)
(-4.26797e-09 -9.37486e-07 0)
(-4.26167e-09 -9.32393e-07 0)
(-4.25378e-09 -9.27252e-07 0)
(-4.24431e-09 -9.22067e-07 0)
(-4.23328e-09 -9.16837e-07 0)
(-4.22068e-09 -9.11572e-07 0)
(-4.20668e-09 -9.06238e-07 0)
(-4.19057e-09 -9.00947e-07 0)
(-4.17536e-09 -8.95271e-07 0)
(-4.1484e-09 -8.90216e-07 0)
(-4.11097e-09 -8.84395e-07 0)
(-4.07999e-09 -8.77216e-07 0)
(-4.05175e-09 -8.70721e-07 0)
(-4.02299e-09 -8.64331e-07 0)
(-3.99304e-09 -8.57861e-07 0)
(-3.96178e-09 -8.51385e-07 0)
(-3.92925e-09 -8.44979e-07 0)
(-3.89552e-09 -8.3865e-07 0)
(-3.86068e-09 -8.32379e-07 0)
(-3.82482e-09 -8.26159e-07 0)
(-3.788e-09 -8.19996e-07 0)
(-3.7503e-09 -8.13894e-07 0)
(-3.71179e-09 -8.07855e-07 0)
(-3.67254e-09 -8.01878e-07 0)
(-3.6326e-09 -7.95966e-07 0)
(-3.59204e-09 -7.90118e-07 0)
(-3.55092e-09 -7.84337e-07 0)
(-3.50929e-09 -7.78623e-07 0)
(-3.46719e-09 -7.72977e-07 0)
(-3.42467e-09 -7.67399e-07 0)
(-3.38178e-09 -7.6189e-07 0)
(-3.33855e-09 -7.56451e-07 0)
(-3.29503e-09 -7.51082e-07 0)
(-3.25124e-09 -7.45784e-07 0)
(-3.20722e-09 -7.40557e-07 0)
(-3.163e-09 -7.35401e-07 0)
(-3.11861e-09 -7.30317e-07 0)
(-3.07406e-09 -7.25305e-07 0)
(-3.02938e-09 -7.20366e-07 0)
(-2.98459e-09 -7.15498e-07 0)
(-2.93972e-09 -7.10704e-07 0)
(-2.89477e-09 -7.05982e-07 0)
(-2.84977e-09 -7.01332e-07 0)
(-2.80473e-09 -6.96756e-07 0)
(-2.75966e-09 -6.92253e-07 0)
(-2.71458e-09 -6.87823e-07 0)
(-2.66949e-09 -6.83465e-07 0)
(-2.62441e-09 -6.79181e-07 0)
(-2.57935e-09 -6.7497e-07 0)
(-2.53432e-09 -6.70831e-07 0)
(-2.48932e-09 -6.66766e-07 0)
(-2.44437e-09 -6.62773e-07 0)
(-2.39946e-09 -6.58853e-07 0)
(-2.35461e-09 -6.55006e-07 0)
(-2.30981e-09 -6.51232e-07 0)
(-2.26508e-09 -6.4753e-07 0)
(-2.22042e-09 -6.439e-07 0)
(-2.17582e-09 -6.40343e-07 0)
(-2.1313e-09 -6.36857e-07 0)
(-2.08685e-09 -6.33444e-07 0)
(-2.04247e-09 -6.30103e-07 0)
(-1.99816e-09 -6.26833e-07 0)
(-1.95392e-09 -6.23635e-07 0)
(-1.90975e-09 -6.20509e-07 0)
(-1.86565e-09 -6.17454e-07 0)
(-1.82161e-09 -6.1447e-07 0)
(-1.77762e-09 -6.11557e-07 0)
(-1.7337e-09 -6.08716e-07 0)
(-1.68983e-09 -6.05945e-07 0)
(-1.646e-09 -6.03246e-07 0)
(-1.60222e-09 -6.00617e-07 0)
(-1.55848e-09 -5.9806e-07 0)
(-1.51477e-09 -5.95572e-07 0)
(-1.47109e-09 -5.93156e-07 0)
(-1.42743e-09 -5.9081e-07 0)
(-1.38379e-09 -5.88535e-07 0)
(-1.34017e-09 -5.8633e-07 0)
(-1.29655e-09 -5.84196e-07 0)
(-1.25294e-09 -5.82132e-07 0)
(-1.20934e-09 -5.80139e-07 0)
(-1.16572e-09 -5.78216e-07 0)
(-1.1221e-09 -5.76364e-07 0)
(-1.07847e-09 -5.74582e-07 0)
(-1.03483e-09 -5.72872e-07 0)
(-9.91177e-10 -5.71231e-07 0)
(-9.47505e-10 -5.69662e-07 0)
(-9.03818e-10 -5.68163e-07 0)
(-8.60118e-10 -5.66735e-07 0)
(-8.16408e-10 -5.65377e-07 0)
(-7.72695e-10 -5.64091e-07 0)
(-7.28987e-10 -5.62874e-07 0)
(-6.85296e-10 -5.6173e-07 0)
(-6.41629e-10 -5.60655e-07 0)
(-5.97995e-10 -5.59651e-07 0)
(-5.54389e-10 -5.58717e-07 0)
(-5.10795e-10 -5.57857e-07 0)
(-4.67159e-10 -5.57053e-07 0)
(-4.23414e-10 -5.56369e-07 0)
(-3.79366e-10 -5.55588e-07 0)
(-3.35129e-10 -5.55427e-07 0)
(-2.89674e-10 -5.5348e-07 0)
(-2.46911e-10 -5.57538e-07 0)
(-1.92924e-10 -5.40511e-07 0)
(-1.85859e-10 -5.8459e-07 0)
(-1.06686e-10 -5.10326e-07 0)
)
;
    }
    bottomWall
    {
        type            calculated;
        value           nonuniform List<vector> 
449
(
(-48.6979 -0.966403 0)
(-19.8166 -0.00517238 0)
(-14.3962 -0.00113678 0)
(-12.0858 -0.000544548 0)
(-10.6867 -0.000347576 0)
(-9.71245 -0.000246674 0)
(-8.99832 -0.000177205 0)
(-8.49638 -0.000111063 0)
(-8.23353 -2.66574e-05 0)
(-8.31137 0.000129015 0)
(-9.1194 0.000277483 0)
(-10.2213 0.000277614 0)
(-11.0375 0.000184697 0)
(-11.5033 0.000101088 0)
(-11.7412 4.93771e-05 0)
(-11.8468 1.89234e-05 0)
(-11.8718 -8.60836e-07 0)
(-11.8389 -1.40591e-05 0)
(-11.7715 -2.20828e-05 0)
(-11.6821 -2.72341e-05 0)
(-11.5781 -3.0336e-05 0)
(-11.4666 -3.1731e-05 0)
(-11.3524 -3.2122e-05 0)
(-11.2378 -3.18395e-05 0)
(-11.1252 -3.12065e-05 0)
(-11.0146 -3.0313e-05 0)
(-10.9079 -2.9284e-05 0)
(-10.8042 -2.81809e-05 0)
(-10.705 -2.70584e-05 0)
(-10.609 -2.59419e-05 0)
(-10.5174 -2.48414e-05 0)
(-10.429 -2.38006e-05 0)
(-10.3446 -2.27559e-05 0)
(-10.2633 -2.18147e-05 0)
(-10.1854 -2.0897e-05 0)
(-10.1105 -2.00188e-05 0)
(-10.0387 -1.9196e-05 0)
(-9.96945 -1.84349e-05 0)
(-9.9029 -1.76808e-05 0)
(-9.83894 -1.70121e-05 0)
(-9.77702 -1.63381e-05 0)
(-9.71778 -1.57057e-05 0)
(-9.66027 -1.51532e-05 0)
(-9.60487 -1.45631e-05 0)
(-9.55151 -1.40575e-05 0)
(-9.49963 -1.3557e-05 0)
(-9.44978 -1.31001e-05 0)
(-9.40109 -1.26357e-05 0)
(-9.35452 -1.22396e-05 0)
(-9.3086 -1.18142e-05 0)
(-9.26505 -1.14299e-05 0)
(-9.22182 -1.10642e-05 0)
(-9.18086 -1.0685e-05 0)
(-9.14034 -1.0352e-05 0)
(-9.10173 -1.00436e-05 0)
(-9.06338 -9.76307e-06 0)
(-9.02674 -9.45567e-06 0)
(-8.99058 -9.20573e-06 0)
(-8.9557 -8.92674e-06 0)
(-8.92154 -8.66067e-06 0)
(-8.88855 -8.42045e-06 0)
(-8.85609 -8.21069e-06 0)
(-8.82458 -8.00459e-06 0)
(-8.79359 -7.7677e-06 0)
(-8.76379 -7.57265e-06 0)
(-8.73418 -7.35337e-06 0)
(-8.70598 -7.1382e-06 0)
(-8.67794 -6.92651e-06 0)
(-8.65129 -6.74992e-06 0)
(-8.6245 -6.6104e-06 0)
(-8.59882 -6.45575e-06 0)
(-8.57313 -6.33784e-06 0)
(-8.54827 -6.14594e-06 0)
(-8.52402 -5.99327e-06 0)
(-8.50026 -5.83253e-06 0)
(-8.47719 -5.69032e-06 0)
(-8.45446 -5.59187e-06 0)
(-8.43207 -5.46768e-06 0)
(-8.41025 -5.31968e-06 0)
(-8.38895 -5.22677e-06 0)
(-8.36778 -5.07614e-06 0)
(-8.34763 -4.93691e-06 0)
(-8.3275 -4.84559e-06 0)
(-8.30799 -4.78048e-06 0)
(-8.28829 -4.65484e-06 0)
(-8.26974 -4.53743e-06 0)
(-8.2509 -4.48773e-06 0)
(-8.23266 -4.36689e-06 0)
(-8.21476 -4.25625e-06 0)
(-8.19736 -4.14356e-06 0)
(-8.18029 -4.1367e-06 0)
(-8.16284 -4.0683e-06 0)
(-8.14628 -4.02516e-06 0)
(-8.1291 -3.94041e-06 0)
(-8.11319 -3.81432e-06 0)
(-8.09701 -3.77966e-06 0)
(-8.0813 -3.73227e-06 0)
(-8.06543 -3.67462e-06 0)
(-8.05013 -3.60551e-06 0)
(-8.03477 -3.56679e-06 0)
(-8.01975 -3.41023e-06 0)
(-8.0057 -3.26346e-06 0)
(-7.99187 -3.19236e-06 0)
(-7.97834 -3.17604e-06 0)
(-7.96456 -3.15433e-06 0)
(-7.95116 -3.0926e-06 0)
(-7.93786 -3.00825e-06 0)
(-7.92513 -2.9984e-06 0)
(-7.91183 -2.96966e-06 0)
(-7.89931 -2.83555e-06 0)
(-7.88715 -2.78838e-06 0)
(-7.87495 -2.76893e-06 0)
(-7.8629 -2.70365e-06 0)
(-7.85124 -2.64131e-06 0)
(-7.83968 -2.60083e-06 0)
(-7.82832 -2.55325e-06 0)
(-7.81713 -2.4533e-06 0)
(-7.80661 -2.40503e-06 0)
(-7.79579 -2.35891e-06 0)
(-7.78563 -2.29833e-06 0)
(-7.77529 -2.31835e-06 0)
(-7.76487 -2.30882e-06 0)
(-7.75458 -2.24319e-06 0)
(-7.74473 -2.2144e-06 0)
(-7.73464 -2.20389e-06 0)
(-7.72484 -2.12218e-06 0)
(-7.71548 -2.05916e-06 0)
(-7.70621 -2.00888e-06 0)
(-7.69725 -1.98464e-06 0)
(-7.68812 -2.01989e-06 0)
(-7.67876 -2.00046e-06 0)
(-7.66978 -1.95061e-06 0)
(-7.66085 -1.90456e-06 0)
(-7.65228 -1.81889e-06 0)
(-7.64411 -1.80673e-06 0)
(-7.63559 -1.79193e-06 0)
(-7.62751 -1.77565e-06 0)
(-7.61909 -1.77871e-06 0)
(-7.61096 -1.73935e-06 0)
(-7.60289 -1.69261e-06 0)
(-7.59516 -1.66402e-06 0)
(-7.58732 -1.63284e-06 0)
(-7.57985 -1.61599e-06 0)
(-7.57212 -1.60058e-06 0)
(-7.56477 -1.52944e-06 0)
(-7.55769 -1.58949e-06 0)
(-7.54966 -1.69457e-06 0)
(-7.54154 -1.63835e-06 0)
(-7.53408 -1.54262e-06 0)
(-7.52684 -1.51262e-06 0)
(-7.51961 -1.42315e-06 0)
(-7.51321 -1.36476e-06 0)
(-7.50652 -1.30851e-06 0)
(-7.50063 -1.28356e-06 0)
(-7.49413 -1.31914e-06 0)
(-7.48786 -1.29598e-06 0)
(-7.48156 -1.3086e-06 0)
(-7.47513 -1.27078e-06 0)
(-7.46917 -1.25151e-06 0)
(-7.4629 -1.24074e-06 0)
(-7.45705 -1.17969e-06 0)
(-7.45135 -1.22341e-06 0)
(-7.44499 -1.25312e-06 0)
(-7.439 -1.13996e-06 0)
(-7.43377 -1.11295e-06 0)
(-7.42798 -1.13245e-06 0)
(-7.42253 -1.06003e-06 0)
(-7.41746 -1.0575e-06 0)
(-7.41198 -1.11066e-06 0)
(-7.40634 -1.07033e-06 0)
(-7.40129 -9.96853e-07 0)
(-7.39636 -1.02964e-06 0)
(-7.39088 -1.10108e-06 0)
(-7.38553 -1.0681e-06 0)
(-7.38099 -1.00853e-06 0)
(-7.3764 -9.91011e-07 0)
(-7.37187 -1.01433e-06 0)
(-7.36695 -1.08639e-06 0)
(-7.36164 -1.10273e-06 0)
(-7.35646 -1.09882e-06 0)
(-7.35108 -1.07356e-06 0)
(-7.34604 -1.00321e-06 0)
(-7.34122 -9.80504e-07 0)
(-7.33629 -9.20896e-07 0)
(-7.33201 -8.3892e-07 0)
(-7.32781 -8.39999e-07 0)
(-7.32341 -7.93125e-07 0)
(-7.31963 -7.26698e-07 0)
(-7.31582 -7.63022e-07 0)
(-7.31155 -7.447e-07 0)
(-7.30789 -6.88921e-07 0)
(-7.30413 -7.28601e-07 0)
(-7.29993 -7.06438e-07 0)
(-7.29637 -6.56005e-07 0)
(-7.29263 -6.9239e-07 0)
(-7.28855 -6.6414e-07 0)
(-7.28509 -6.24997e-07 0)
(-7.28136 -6.63894e-07 0)
(-7.27735 -6.30315e-07 0)
(-7.27398 -5.95226e-07 0)
(-7.27028 -6.35725e-07 0)
(-7.26632 -6.03362e-07 0)
(-7.26297 -5.7337e-07 0)
(-7.25928 -6.09616e-07 0)
(-7.25539 -5.70537e-07 0)
(-7.25214 -5.45239e-07 0)
(-7.24848 -5.71918e-07 0)
(-7.24481 -5.32826e-07 0)
(-7.24158 -5.34128e-07 0)
(-7.23781 -5.47072e-07 0)
(-7.23435 -5.30354e-07 0)
(-7.23071 -5.42912e-07 0)
(-7.22699 -4.97611e-07 0)
(-7.22392 -4.68859e-07 0)
(-7.22052 -5.02077e-07 0)
(-7.21689 -4.80324e-07 0)
(-7.21373 -4.82734e-07 0)
(-7.20999 -5.07734e-07 0)
(-7.2064 -4.54016e-07 0)
(-7.20337 -4.48468e-07 0)
(-7.19975 -4.72104e-07 0)
(-7.19631 -4.42714e-07 0)
(-7.1931 -4.33237e-07 0)
(-7.18971 -4.28605e-07 0)
(-7.18647 -4.1842e-07 0)
(-7.18318 -4.01278e-07 0)
(-7.18015 -3.9432e-07 0)
(-7.17689 -3.95126e-07 0)
(-7.17379 -3.7497e-07 0)
(-7.17078 -3.7166e-07 0)
(-7.16765 -4.025e-07 0)
(-7.16406 -4.15376e-07 0)
(-7.16065 -3.91673e-07 0)
(-7.15741 -3.78101e-07 0)
(-7.15416 -3.67421e-07 0)
(-7.15101 -3.53145e-07 0)
(-7.14794 -3.71625e-07 0)
(-7.1444 -3.75858e-07 0)
(-7.14118 -3.46179e-07 0)
(-7.13811 -3.43474e-07 0)
(-7.13486 -3.35875e-07 0)
(-7.13185 -3.28614e-07 0)
(-7.12869 -3.37859e-07 0)
(-7.12543 -3.27084e-07 0)
(-7.12239 -3.12759e-07 0)
(-7.11935 -3.39414e-07 0)
(-7.11572 -3.42261e-07 0)
(-7.11256 -3.11078e-07 0)
(-7.10949 -3.02864e-07 0)
(-7.10642 -2.86942e-07 0)
(-7.1036 -2.92403e-07 0)
(-7.10034 -2.94736e-07 0)
(-7.09741 -2.98697e-07 0)
(-7.094 -2.98931e-07 0)
(-7.091 -2.90041e-07 0)
(-7.08771 -2.95809e-07 0)
(-7.08453 -2.75096e-07 0)
(-7.08163 -2.84196e-07 0)
(-7.07815 -3.00131e-07 0)
(-7.07483 -2.81365e-07 0)
(-7.07172 -2.87882e-07 0)
(-7.06816 -2.99671e-07 0)
(-7.06471 -2.755e-07 0)
(-7.06166 -2.70115e-07 0)
(-7.05825 -2.85598e-07 0)
(-7.05476 -2.68816e-07 0)
(-7.05169 -2.59742e-07 0)
(-7.04834 -2.66683e-07 0)
(-7.04503 -2.68596e-07 0)
(-7.04157 -2.67551e-07 0)
(-7.03821 -2.56929e-07 0)
(-7.03495 -2.49378e-07 0)
(-7.03172 -2.30938e-07 0)
(-7.02887 -2.40006e-07 0)
(-7.02532 -2.55156e-07 0)
(-7.022 -2.34751e-07 0)
(-7.01894 -2.44826e-07 0)
(-7.01526 -2.5369e-07 0)
(-7.01189 -2.25917e-07 0)
(-7.00892 -2.28086e-07 0)
(-7.00541 -2.36455e-07 0)
(-7.00214 -2.1415e-07 0)
(-6.9992 -2.1933e-07 0)
(-6.9957 -2.2759e-07 0)
(-6.99246 -2.06452e-07 0)
(-6.98951 -2.14507e-07 0)
(-6.98595 -2.23864e-07 0)
(-6.98267 -2.01207e-07 0)
(-6.97973 -2.08382e-07 0)
(-6.97614 -2.18345e-07 0)
(-6.97283 -1.99276e-07 0)
(-6.96978 -2.02316e-07 0)
(-6.96629 -2.05842e-07 0)
(-6.96306 -1.94222e-07 0)
(-6.95989 -1.96833e-07 0)
(-6.95649 -1.93562e-07 0)
(-6.95336 -1.79611e-07 0)
(-6.95037 -1.91311e-07 0)
(-6.94676 -1.97756e-07 0)
(-6.94349 -1.77887e-07 0)
(-6.94051 -1.81905e-07 0)
(-6.93701 -1.86223e-07 0)
(-6.93382 -1.67319e-07 0)
(-6.93094 -1.70487e-07 0)
(-6.92755 -1.73491e-07 0)
(-6.92449 -1.58768e-07 0)
(-6.92159 -1.62721e-07 0)
(-6.91831 -1.63068e-07 0)
(-6.91533 -1.58117e-07 0)
(-6.91218 -1.6015e-07 0)
(-6.90905 -1.49751e-07 0)
(-6.90625 -1.49525e-07 0)
(-6.90306 -1.5632e-07 0)
(-6.89992 -1.45185e-07 0)
(-6.89713 -1.42523e-07 0)
(-6.89403 -1.47456e-07 0)
(-6.89096 -1.36818e-07 0)
(-6.88825 -1.36104e-07 0)
(-6.88514 -1.40156e-07 0)
(-6.88219 -1.28488e-07 0)
(-6.87953 -1.30019e-07 0)
(-6.87645 -1.35263e-07 0)
(-6.8735 -1.24855e-07 0)
(-6.87082 -1.25221e-07 0)
(-6.86779 -1.28048e-07 0)
(-6.86492 -1.18406e-07 0)
(-6.86227 -1.20776e-07 0)
(-6.85923 -1.23317e-07 0)
(-6.85641 -1.13527e-07 0)
(-6.85377 -1.17028e-07 0)
(-6.85071 -1.19701e-07 0)
(-6.84789 -1.09129e-07 0)
(-6.84529 -1.1155e-07 0)
(-6.84228 -1.13248e-07 0)
(-6.83954 -1.04571e-07 0)
(-6.83692 -1.06876e-07 0)
(-6.834 -1.07296e-07 0)
(-6.8313 -9.94418e-08 0)
(-6.82873 -1.02272e-07 0)
(-6.82581 -1.02729e-07 0)
(-6.82317 -9.29726e-08 0)
(-6.82073 -9.60352e-08 0)
(-6.81785 -9.70695e-08 0)
(-6.8153 -9.29774e-08 0)
(-6.8126 -9.29125e-08 0)
(-6.81 -8.55774e-08 0)
(-6.80766 -8.47029e-08 0)
(-6.80505 -8.76645e-08 0)
(-6.80249 -8.28143e-08 0)
(-6.80011 -8.39613e-08 0)
(-6.79742 -8.45115e-08 0)
(-6.79496 -7.89166e-08 0)
(-6.79256 -8.06982e-08 0)
(-6.78993 -8.10481e-08 0)
(-6.78717 -7.40694e-08 0)
(-6.78445 -6.59031e-08 0)
(-6.78204 -6.58285e-08 0)
(-6.77933 -6.66735e-08 0)
(-6.77685 -6.62784e-08 0)
(-6.77417 -6.55162e-08 0)
(-6.77176 -6.43384e-08 0)
(-6.76916 -6.44481e-08 0)
(-6.76674 -6.20257e-08 0)
(-6.76433 -6.21411e-08 0)
(-6.7619 -6.21115e-08 0)
(-6.7595 -6.30822e-08 0)
(-6.75699 -6.09952e-08 0)
(-6.75475 -5.70931e-08 0)
(-6.75255 -6.0113e-08 0)
(-6.75007 -5.94101e-08 0)
(-6.74793 -5.54683e-08 0)
(-6.74576 -5.57795e-08 0)
(-6.74358 -5.36625e-08 0)
(-6.74157 -5.28209e-08 0)
(-6.73946 -5.15483e-08 0)
(-6.73755 -5.21486e-08 0)
(-6.73539 -5.15047e-08 0)
(-6.73354 -4.91893e-08 0)
(-6.73157 -4.88795e-08 0)
(-6.72974 -4.81332e-08 0)
(-6.72782 -4.76756e-08 0)
(-6.72602 -4.60167e-08 0)
(-6.72424 -4.65616e-08 0)
(-6.7224 -4.56219e-08 0)
(-6.72068 -4.55845e-08 0)
(-6.71885 -4.61374e-08 0)
(-6.71709 -4.39414e-08 0)
(-6.71543 -4.44156e-08 0)
(-6.71363 -4.48346e-08 0)
(-6.71193 -4.25699e-08 0)
(-6.71031 -4.14372e-08 0)
(-6.7087 -4.29227e-08 0)
(-6.70697 -4.12043e-08 0)
(-6.7055 -4.11209e-08 0)
(-6.70377 -4.16253e-08 0)
(-6.70225 -3.68932e-08 0)
(-6.7009 -3.96242e-08 0)
(-6.69916 -4.03583e-08 0)
(-6.69775 -3.51454e-08 0)
(-6.69644 -3.72832e-08 0)
(-6.69485 -3.71714e-08 0)
(-6.69354 -3.22154e-08 0)
(-6.69235 -2.95993e-08 0)
(-6.69125 -2.98142e-08 0)
(-6.69004 -3.07695e-08 0)
(-6.68886 -2.94974e-08 0)
(-6.68775 -3.30403e-08 0)
(-6.68629 -3.27725e-08 0)
(-6.6852 -2.79203e-08 0)
(-6.68413 -2.6481e-08 0)
(-6.68315 -2.64788e-08 0)
(-6.68207 -2.61698e-08 0)
(-6.68112 -2.55451e-08 0)
(-6.68009 -3.14787e-08 0)
(-6.67866 -3.15102e-08 0)
(-6.67763 -2.51967e-08 0)
(-6.67671 -2.49321e-08 0)
(-6.6757 -2.49632e-08 0)
(-6.67477 -2.92812e-08 0)
(-6.67342 -2.92582e-08 0)
(-6.6725 -2.29815e-08 0)
(-6.67165 -2.27877e-08 0)
(-6.67074 -2.22964e-08 0)
(-6.66992 -2.59304e-08 0)
(-6.66872 -2.67649e-08 0)
(-6.66784 -2.05294e-08 0)
(-6.66713 -2.38326e-08 0)
(-6.66598 -2.60111e-08 0)
(-6.66511 -2.01955e-08 0)
(-6.66442 -2.34053e-08 0)
(-6.66329 -2.48968e-08 0)
(-6.66248 -1.99379e-08 0)
(-6.66174 -1.86866e-08 0)
(-6.66103 -1.9789e-08 0)
(-6.6602 -2.0194e-08 0)
(-6.65947 -1.69595e-08 0)
(-6.6589 -1.59293e-08 0)
(-6.65824 -1.86031e-08 0)
(-6.65746 -2.05854e-08 0)
(-6.65664 -2.02254e-08 0)
(-6.65589 -1.8686e-08 0)
(-6.6552 -1.70424e-08 0)
(-6.65457 -1.69548e-08 0)
(-6.65388 -2.42253e-08 0)
(-6.65268 -2.24197e-08 0)
(-6.65214 -1.76234e-08 0)
(-6.65132 -8.72499e-09 0)
(-6.65149 -2.92726e-08 0)
(-6.649 -3.28724e-08 0)
)
;
    }
    symmetry
    {
        type            symmetryPlane;
    }
    frontAndBack
    {
        type            empty;
    }
}


// ************************************************************************* //
