/*--------------------------------*- C++ -*----------------------------------*\
| =========                 |                                                 |
| \\      /  F ield         | OpenFOAM: The Open Source CFD Toolbox           |
|  \\    /   O peration     | Version:  v2012                                 |
|   \\  /    A nd           | Website:  www.openfoam.com                      |
|    \\/     M anipulation  |                                                 |
\*---------------------------------------------------------------------------*/
FoamFile
{
    version     2.0;
    format      ascii;
    class       volVectorField;
    location    "22";
    object      wallShearStress;
}
// * * * * * * * * * * * * * * * * * * * * * * * * * * * * * * * * * * * * * //

dimensions      [0 2 -2 0 0 0 0];


internalField   uniform (0 0 0);

boundaryField
{
    inlet
    {
        type            calculated;
        value           uniform (0 0 0);
    }
    outlet
    {
        type            calculated;
        value           uniform (0 0 0);
    }
    topWall
    {
        type            calculated;
        value           nonuniform List<vector> 
545
(
(1.47044e-08 -1.03498e-08 0)
(1.46982e-08 -2.89583e-08 0)
(1.4683e-08 -4.8304e-08 0)
(1.46621e-08 -6.70815e-08 0)
(1.46357e-08 -8.50466e-08 0)
(1.46043e-08 -1.02428e-07 0)
(1.45682e-08 -1.19372e-07 0)
(1.45278e-08 -1.3587e-07 0)
(1.44835e-08 -1.51883e-07 0)
(1.44356e-08 -1.67411e-07 0)
(1.43845e-08 -1.82474e-07 0)
(1.43306e-08 -1.97088e-07 0)
(1.42742e-08 -2.11265e-07 0)
(1.42155e-08 -2.25012e-07 0)
(1.41549e-08 -2.3834e-07 0)
(1.40925e-08 -2.5126e-07 0)
(1.40287e-08 -2.63783e-07 0)
(1.39636e-08 -2.75921e-07 0)
(1.38975e-08 -2.87682e-07 0)
(1.38305e-08 -2.99079e-07 0)
(1.37628e-08 -3.10122e-07 0)
(1.36946e-08 -3.2082e-07 0)
(1.36261e-08 -3.31184e-07 0)
(1.35573e-08 -3.41224e-07 0)
(1.34884e-08 -3.5095e-07 0)
(1.34195e-08 -3.60372e-07 0)
(1.33507e-08 -3.69498e-07 0)
(1.32822e-08 -3.78337e-07 0)
(1.3214e-08 -3.869e-07 0)
(1.31462e-08 -3.95194e-07 0)
(1.30788e-08 -4.03227e-07 0)
(1.3012e-08 -4.11009e-07 0)
(1.29457e-08 -4.18547e-07 0)
(1.28802e-08 -4.25849e-07 0)
(1.28153e-08 -4.32923e-07 0)
(1.27512e-08 -4.39775e-07 0)
(1.26878e-08 -4.46414e-07 0)
(1.26253e-08 -4.52845e-07 0)
(1.25636e-08 -4.59076e-07 0)
(1.25028e-08 -4.65114e-07 0)
(1.24429e-08 -4.70963e-07 0)
(1.23839e-08 -4.76632e-07 0)
(1.23258e-08 -4.82125e-07 0)
(1.22687e-08 -4.87448e-07 0)
(1.22125e-08 -4.92607e-07 0)
(1.21573e-08 -4.97607e-07 0)
(1.21031e-08 -5.02453e-07 0)
(1.20498e-08 -5.07151e-07 0)
(1.19976e-08 -5.11705e-07 0)
(1.19463e-08 -5.16119e-07 0)
(1.18959e-08 -5.20399e-07 0)
(1.18465e-08 -5.24549e-07 0)
(1.17981e-08 -5.28573e-07 0)
(1.17507e-08 -5.32474e-07 0)
(1.17042e-08 -5.36258e-07 0)
(1.16587e-08 -5.39927e-07 0)
(1.1614e-08 -5.43486e-07 0)
(1.15704e-08 -5.46938e-07 0)
(1.15276e-08 -5.50286e-07 0)
(1.14857e-08 -5.53534e-07 0)
(1.14448e-08 -5.56686e-07 0)
(1.14047e-08 -5.59743e-07 0)
(1.13654e-08 -5.62709e-07 0)
(1.13271e-08 -5.65587e-07 0)
(1.12896e-08 -5.6838e-07 0)
(1.12529e-08 -5.7109e-07 0)
(1.1217e-08 -5.73721e-07 0)
(1.11819e-08 -5.76274e-07 0)
(1.11476e-08 -5.78752e-07 0)
(1.11141e-08 -5.81156e-07 0)
(1.10814e-08 -5.83492e-07 0)
(1.10494e-08 -5.85755e-07 0)
(1.10185e-08 -5.87931e-07 0)
(1.09883e-08 -5.9004e-07 0)
(1.09584e-08 -5.92122e-07 0)
(1.09287e-08 -5.94192e-07 0)
(1.0899e-08 -5.9625e-07 0)
(1.08694e-08 -5.98294e-07 0)
(1.08398e-08 -6.00321e-07 0)
(1.08103e-08 -6.02334e-07 0)
(1.07808e-08 -6.04332e-07 0)
(1.07514e-08 -6.06316e-07 0)
(1.07221e-08 -6.08285e-07 0)
(1.06928e-08 -6.1024e-07 0)
(1.06636e-08 -6.12181e-07 0)
(1.06345e-08 -6.14107e-07 0)
(1.06054e-08 -6.1602e-07 0)
(1.05764e-08 -6.17918e-07 0)
(1.05474e-08 -6.19803e-07 0)
(1.05185e-08 -6.21674e-07 0)
(1.04897e-08 -6.23531e-07 0)
(1.0461e-08 -6.25374e-07 0)
(1.04323e-08 -6.27205e-07 0)
(1.04037e-08 -6.2902e-07 0)
(1.03751e-08 -6.30831e-07 0)
(1.03466e-08 -6.326e-07 0)
(1.03197e-08 -6.3422e-07 0)
(1.02953e-08 -6.35697e-07 0)
(1.02718e-08 -6.37124e-07 0)
(1.02484e-08 -6.38555e-07 0)
(1.0225e-08 -6.4e-07 0)
(1.02016e-08 -6.41448e-07 0)
(1.0178e-08 -6.42893e-07 0)
(1.01544e-08 -6.44336e-07 0)
(1.01307e-08 -6.4578e-07 0)
(1.01068e-08 -6.47224e-07 0)
(1.00829e-08 -6.48668e-07 0)
(1.00589e-08 -6.50113e-07 0)
(1.00348e-08 -6.51557e-07 0)
(1.00106e-08 -6.53001e-07 0)
(9.9863e-09 -6.54444e-07 0)
(9.96191e-09 -6.55888e-07 0)
(9.93743e-09 -6.57332e-07 0)
(9.91286e-09 -6.58775e-07 0)
(9.88819e-09 -6.60219e-07 0)
(9.86343e-09 -6.61662e-07 0)
(9.83857e-09 -6.63105e-07 0)
(9.81362e-09 -6.64547e-07 0)
(9.78858e-09 -6.65989e-07 0)
(9.76344e-09 -6.67431e-07 0)
(9.73821e-09 -6.68873e-07 0)
(9.71288e-09 -6.70315e-07 0)
(9.68746e-09 -6.71755e-07 0)
(9.66195e-09 -6.73196e-07 0)
(9.63634e-09 -6.74636e-07 0)
(9.61064e-09 -6.76076e-07 0)
(9.58484e-09 -6.77515e-07 0)
(9.55895e-09 -6.78954e-07 0)
(9.53296e-09 -6.80392e-07 0)
(9.50688e-09 -6.8183e-07 0)
(9.4807e-09 -6.83267e-07 0)
(9.45443e-09 -6.84704e-07 0)
(9.42807e-09 -6.8614e-07 0)
(9.40161e-09 -6.87575e-07 0)
(9.37505e-09 -6.8901e-07 0)
(9.3484e-09 -6.90444e-07 0)
(9.32166e-09 -6.91877e-07 0)
(9.29482e-09 -6.93309e-07 0)
(9.26789e-09 -6.94741e-07 0)
(9.24086e-09 -6.96172e-07 0)
(9.21374e-09 -6.97602e-07 0)
(9.18652e-09 -6.99031e-07 0)
(9.15921e-09 -7.0046e-07 0)
(9.13181e-09 -7.01887e-07 0)
(9.10431e-09 -7.03314e-07 0)
(9.07671e-09 -7.04739e-07 0)
(9.04902e-09 -7.06164e-07 0)
(9.02124e-09 -7.07588e-07 0)
(8.99336e-09 -7.0901e-07 0)
(8.96539e-09 -7.10432e-07 0)
(8.93733e-09 -7.11852e-07 0)
(8.90917e-09 -7.13271e-07 0)
(8.88091e-09 -7.14689e-07 0)
(8.85257e-09 -7.16106e-07 0)
(8.82412e-09 -7.17522e-07 0)
(8.79559e-09 -7.18937e-07 0)
(8.76696e-09 -7.2035e-07 0)
(8.73824e-09 -7.21762e-07 0)
(8.70942e-09 -7.23172e-07 0)
(8.68051e-09 -7.24582e-07 0)
(8.65151e-09 -7.2599e-07 0)
(8.62242e-09 -7.27396e-07 0)
(8.59323e-09 -7.28801e-07 0)
(8.56395e-09 -7.30205e-07 0)
(8.53457e-09 -7.31607e-07 0)
(8.50511e-09 -7.33007e-07 0)
(8.47555e-09 -7.34406e-07 0)
(8.4459e-09 -7.35804e-07 0)
(8.41615e-09 -7.372e-07 0)
(8.38632e-09 -7.38594e-07 0)
(8.35639e-09 -7.39986e-07 0)
(8.32637e-09 -7.41377e-07 0)
(8.29626e-09 -7.42766e-07 0)
(8.26606e-09 -7.44153e-07 0)
(8.23577e-09 -7.45538e-07 0)
(8.20539e-09 -7.46922e-07 0)
(8.17491e-09 -7.48304e-07 0)
(8.14435e-09 -7.49683e-07 0)
(8.1137e-09 -7.51061e-07 0)
(8.08295e-09 -7.52437e-07 0)
(8.05212e-09 -7.53811e-07 0)
(8.0212e-09 -7.55183e-07 0)
(7.99018e-09 -7.56553e-07 0)
(7.95908e-09 -7.5792e-07 0)
(7.92789e-09 -7.59286e-07 0)
(7.89661e-09 -7.60649e-07 0)
(7.86525e-09 -7.6201e-07 0)
(7.83379e-09 -7.63369e-07 0)
(7.80225e-09 -7.64726e-07 0)
(7.77062e-09 -7.6608e-07 0)
(7.73891e-09 -7.67433e-07 0)
(7.7071e-09 -7.68782e-07 0)
(7.67521e-09 -7.7013e-07 0)
(7.64324e-09 -7.71474e-07 0)
(7.61118e-09 -7.72817e-07 0)
(7.57903e-09 -7.74157e-07 0)
(7.5468e-09 -7.75494e-07 0)
(7.51448e-09 -7.76829e-07 0)
(7.48208e-09 -7.78161e-07 0)
(7.44959e-09 -7.79491e-07 0)
(7.41702e-09 -7.80818e-07 0)
(7.38437e-09 -7.82142e-07 0)
(7.35164e-09 -7.83463e-07 0)
(7.31882e-09 -7.84782e-07 0)
(7.28592e-09 -7.86098e-07 0)
(7.25294e-09 -7.87411e-07 0)
(7.21987e-09 -7.88721e-07 0)
(7.18673e-09 -7.90028e-07 0)
(7.1535e-09 -7.91332e-07 0)
(7.1202e-09 -7.92634e-07 0)
(7.08682e-09 -7.93932e-07 0)
(7.05335e-09 -7.95227e-07 0)
(7.01981e-09 -7.96519e-07 0)
(6.98619e-09 -7.97808e-07 0)
(6.95249e-09 -7.99094e-07 0)
(6.91872e-09 -8.00376e-07 0)
(6.88486e-09 -8.01656e-07 0)
(6.85093e-09 -8.02932e-07 0)
(6.81693e-09 -8.04205e-07 0)
(6.78285e-09 -8.05474e-07 0)
(6.7487e-09 -8.0674e-07 0)
(6.71447e-09 -8.08002e-07 0)
(6.68016e-09 -8.09261e-07 0)
(6.64579e-09 -8.10517e-07 0)
(6.61134e-09 -8.11769e-07 0)
(6.57682e-09 -8.13017e-07 0)
(6.54223e-09 -8.14262e-07 0)
(6.50756e-09 -8.15503e-07 0)
(6.47283e-09 -8.16741e-07 0)
(6.43803e-09 -8.17975e-07 0)
(6.40315e-09 -8.19205e-07 0)
(6.36821e-09 -8.20431e-07 0)
(6.3332e-09 -8.21653e-07 0)
(6.29813e-09 -8.22871e-07 0)
(6.26298e-09 -8.24086e-07 0)
(6.22777e-09 -8.25297e-07 0)
(6.1925e-09 -8.26503e-07 0)
(6.15716e-09 -8.27706e-07 0)
(6.12176e-09 -8.28904e-07 0)
(6.08629e-09 -8.30099e-07 0)
(6.05076e-09 -8.31289e-07 0)
(6.01517e-09 -8.32475e-07 0)
(5.97951e-09 -8.33657e-07 0)
(5.9438e-09 -8.34834e-07 0)
(5.90802e-09 -8.36007e-07 0)
(5.87219e-09 -8.37176e-07 0)
(5.8363e-09 -8.38341e-07 0)
(5.80035e-09 -8.39501e-07 0)
(5.76434e-09 -8.40656e-07 0)
(5.72828e-09 -8.41807e-07 0)
(5.69216e-09 -8.42954e-07 0)
(5.65599e-09 -8.44096e-07 0)
(5.61976e-09 -8.45233e-07 0)
(5.58348e-09 -8.46366e-07 0)
(5.54715e-09 -8.47494e-07 0)
(5.51076e-09 -8.48618e-07 0)
(5.47433e-09 -8.49736e-07 0)
(5.43784e-09 -8.5085e-07 0)
(5.40131e-09 -8.51959e-07 0)
(5.36472e-09 -8.53063e-07 0)
(5.32809e-09 -8.54162e-07 0)
(5.29142e-09 -8.55256e-07 0)
(5.25469e-09 -8.56345e-07 0)
(5.21793e-09 -8.57429e-07 0)
(5.18111e-09 -8.58508e-07 0)
(5.14426e-09 -8.59582e-07 0)
(5.10736e-09 -8.6065e-07 0)
(5.07042e-09 -8.61719e-07 0)
(5.03346e-09 -8.62765e-07 0)
(4.99771e-09 -8.63759e-07 0)
(4.9637e-09 -8.64712e-07 0)
(4.93021e-09 -8.65645e-07 0)
(4.89661e-09 -8.66582e-07 0)
(4.86272e-09 -8.67528e-07 0)
(4.82851e-09 -8.6848e-07 0)
(4.79398e-09 -8.69434e-07 0)
(4.75912e-09 -8.70391e-07 0)
(4.72393e-09 -8.71351e-07 0)
(4.68841e-09 -8.72314e-07 0)
(4.65254e-09 -8.73281e-07 0)
(4.61634e-09 -8.74251e-07 0)
(4.5798e-09 -8.75223e-07 0)
(4.54292e-09 -8.76198e-07 0)
(4.5057e-09 -8.77176e-07 0)
(4.46813e-09 -8.78156e-07 0)
(4.43022e-09 -8.79138e-07 0)
(4.39196e-09 -8.80123e-07 0)
(4.35335e-09 -8.8111e-07 0)
(4.31439e-09 -8.82098e-07 0)
(4.27509e-09 -8.83088e-07 0)
(4.23542e-09 -8.8408e-07 0)
(4.19541e-09 -8.85073e-07 0)
(4.15504e-09 -8.86068e-07 0)
(4.11432e-09 -8.87063e-07 0)
(4.07323e-09 -8.88059e-07 0)
(4.0318e-09 -8.89056e-07 0)
(3.99e-09 -8.90054e-07 0)
(3.94785e-09 -8.91051e-07 0)
(3.90533e-09 -8.92049e-07 0)
(3.86246e-09 -8.93047e-07 0)
(3.81922e-09 -8.94044e-07 0)
(3.77563e-09 -8.95041e-07 0)
(3.73168e-09 -8.96037e-07 0)
(3.68736e-09 -8.97031e-07 0)
(3.64268e-09 -8.98025e-07 0)
(3.59765e-09 -8.99017e-07 0)
(3.55225e-09 -9.00008e-07 0)
(3.5065e-09 -9.00996e-07 0)
(3.46038e-09 -9.01982e-07 0)
(3.4139e-09 -9.02965e-07 0)
(3.36707e-09 -9.03946e-07 0)
(3.31988e-09 -9.04924e-07 0)
(3.27234e-09 -9.05898e-07 0)
(3.22444e-09 -9.06868e-07 0)
(3.17618e-09 -9.07835e-07 0)
(3.12758e-09 -9.08797e-07 0)
(3.07862e-09 -9.09755e-07 0)
(3.02932e-09 -9.10708e-07 0)
(2.97967e-09 -9.11655e-07 0)
(2.92967e-09 -9.12597e-07 0)
(2.87933e-09 -9.13533e-07 0)
(2.82866e-09 -9.14462e-07 0)
(2.77764e-09 -9.15385e-07 0)
(2.72629e-09 -9.16301e-07 0)
(2.67462e-09 -9.17209e-07 0)
(2.62261e-09 -9.1811e-07 0)
(2.57028e-09 -9.19003e-07 0)
(2.51763e-09 -9.19887e-07 0)
(2.46467e-09 -9.20762e-07 0)
(2.41139e-09 -9.21627e-07 0)
(2.3578e-09 -9.22483e-07 0)
(2.30391e-09 -9.23329e-07 0)
(2.24973e-09 -9.24164e-07 0)
(2.19525e-09 -9.24987e-07 0)
(2.14048e-09 -9.258e-07 0)
(2.08543e-09 -9.266e-07 0)
(2.03011e-09 -9.27388e-07 0)
(1.97452e-09 -9.28163e-07 0)
(1.91866e-09 -9.28924e-07 0)
(1.86254e-09 -9.29672e-07 0)
(1.80618e-09 -9.30405e-07 0)
(1.74957e-09 -9.31123e-07 0)
(1.69273e-09 -9.31826e-07 0)
(1.63566e-09 -9.32513e-07 0)
(1.57838e-09 -9.33183e-07 0)
(1.52088e-09 -9.33837e-07 0)
(1.46318e-09 -9.34473e-07 0)
(1.40529e-09 -9.35091e-07 0)
(1.34722e-09 -9.3569e-07 0)
(1.28897e-09 -9.3627e-07 0)
(1.23056e-09 -9.36831e-07 0)
(1.17199e-09 -9.37371e-07 0)
(1.11329e-09 -9.37891e-07 0)
(1.05445e-09 -9.38388e-07 0)
(9.95492e-10 -9.38864e-07 0)
(9.36426e-10 -9.39318e-07 0)
(8.77264e-10 -9.39748e-07 0)
(8.18017e-10 -9.40154e-07 0)
(7.58699e-10 -9.40536e-07 0)
(6.99323e-10 -9.40892e-07 0)
(6.39902e-10 -9.41224e-07 0)
(5.8045e-10 -9.41529e-07 0)
(5.20981e-10 -9.41806e-07 0)
(4.61508e-10 -9.42057e-07 0)
(4.02048e-10 -9.42279e-07 0)
(3.42614e-10 -9.42473e-07 0)
(2.83223e-10 -9.42637e-07 0)
(2.2389e-10 -9.42771e-07 0)
(1.64631e-10 -9.42875e-07 0)
(1.05462e-10 -9.42947e-07 0)
(4.6401e-11 -9.42987e-07 0)
(-1.25363e-11 -9.42995e-07 0)
(-7.13322e-11 -9.42969e-07 0)
(-1.29969e-10 -9.42909e-07 0)
(-1.88429e-10 -9.42816e-07 0)
(-2.46694e-10 -9.42686e-07 0)
(-3.04745e-10 -9.42522e-07 0)
(-3.62563e-10 -9.4232e-07 0)
(-4.2013e-10 -9.42082e-07 0)
(-4.77427e-10 -9.41806e-07 0)
(-5.34433e-10 -9.41492e-07 0)
(-5.91129e-10 -9.41139e-07 0)
(-6.47495e-10 -9.40746e-07 0)
(-7.03511e-10 -9.40314e-07 0)
(-7.59157e-10 -9.39841e-07 0)
(-8.14411e-10 -9.39326e-07 0)
(-8.69253e-10 -9.3877e-07 0)
(-9.23663e-10 -9.38171e-07 0)
(-9.77619e-10 -9.3753e-07 0)
(-1.0311e-09 -9.36844e-07 0)
(-1.08408e-09 -9.36115e-07 0)
(-1.13655e-09 -9.35342e-07 0)
(-1.18848e-09 -9.34523e-07 0)
(-1.23985e-09 -9.33659e-07 0)
(-1.29064e-09 -9.32748e-07 0)
(-1.34082e-09 -9.31791e-07 0)
(-1.39038e-09 -9.30788e-07 0)
(-1.43929e-09 -9.29736e-07 0)
(-1.48754e-09 -9.28637e-07 0)
(-1.53509e-09 -9.2749e-07 0)
(-1.58194e-09 -9.26294e-07 0)
(-1.62806e-09 -9.2505e-07 0)
(-1.67342e-09 -9.23755e-07 0)
(-1.71802e-09 -9.22412e-07 0)
(-1.76182e-09 -9.21018e-07 0)
(-1.80481e-09 -9.19574e-07 0)
(-1.84696e-09 -9.1808e-07 0)
(-1.88827e-09 -9.16535e-07 0)
(-1.9287e-09 -9.14939e-07 0)
(-1.96824e-09 -9.13292e-07 0)
(-2.00687e-09 -9.11594e-07 0)
(-2.04458e-09 -9.09844e-07 0)
(-2.08134e-09 -9.08043e-07 0)
(-2.11714e-09 -9.06191e-07 0)
(-2.15196e-09 -9.04287e-07 0)
(-2.18578e-09 -9.02331e-07 0)
(-2.21859e-09 -9.00324e-07 0)
(-2.25038e-09 -8.98265e-07 0)
(-2.28113e-09 -8.96155e-07 0)
(-2.31082e-09 -8.93994e-07 0)
(-2.33944e-09 -8.91781e-07 0)
(-2.36698e-09 -8.89517e-07 0)
(-2.39343e-09 -8.87203e-07 0)
(-2.41877e-09 -8.84838e-07 0)
(-2.443e-09 -8.82423e-07 0)
(-2.46611e-09 -8.79958e-07 0)
(-2.48808e-09 -8.77443e-07 0)
(-2.50891e-09 -8.74879e-07 0)
(-2.52859e-09 -8.72266e-07 0)
(-2.54711e-09 -8.69605e-07 0)
(-2.56447e-09 -8.66895e-07 0)
(-2.58066e-09 -8.64139e-07 0)
(-2.59569e-09 -8.61336e-07 0)
(-2.60953e-09 -8.58486e-07 0)
(-2.6222e-09 -8.55591e-07 0)
(-2.6337e-09 -8.52651e-07 0)
(-2.64401e-09 -8.49667e-07 0)
(-2.65314e-09 -8.46639e-07 0)
(-2.6611e-09 -8.43569e-07 0)
(-2.66787e-09 -8.40456e-07 0)
(-2.67348e-09 -8.37303e-07 0)
(-2.67791e-09 -8.34109e-07 0)
(-2.68118e-09 -8.30876e-07 0)
(-2.6833e-09 -8.27605e-07 0)
(-2.68425e-09 -8.24296e-07 0)
(-2.68406e-09 -8.20951e-07 0)
(-2.68274e-09 -8.1757e-07 0)
(-2.68025e-09 -8.14155e-07 0)
(-2.67682e-09 -8.10704e-07 0)
(-2.67149e-09 -8.07197e-07 0)
(-2.66433e-09 -8.03321e-07 0)
(-2.65605e-09 -7.99056e-07 0)
(-2.64611e-09 -7.94739e-07 0)
(-2.63473e-09 -7.90449e-07 0)
(-2.62205e-09 -7.86198e-07 0)
(-2.60817e-09 -7.81972e-07 0)
(-2.59315e-09 -7.77765e-07 0)
(-2.57706e-09 -7.73581e-07 0)
(-2.55995e-09 -7.69424e-07 0)
(-2.54188e-09 -7.65297e-07 0)
(-2.52293e-09 -7.612e-07 0)
(-2.50313e-09 -7.57134e-07 0)
(-2.48254e-09 -7.53101e-07 0)
(-2.46122e-09 -7.49101e-07 0)
(-2.4392e-09 -7.45137e-07 0)
(-2.41654e-09 -7.41209e-07 0)
(-2.39327e-09 -7.37318e-07 0)
(-2.36944e-09 -7.33466e-07 0)
(-2.34508e-09 -7.29652e-07 0)
(-2.32023e-09 -7.25878e-07 0)
(-2.29492e-09 -7.22145e-07 0)
(-2.26918e-09 -7.18453e-07 0)
(-2.24305e-09 -7.14803e-07 0)
(-2.21656e-09 -7.11196e-07 0)
(-2.18972e-09 -7.07632e-07 0)
(-2.16256e-09 -7.04111e-07 0)
(-2.13511e-09 -7.00635e-07 0)
(-2.10739e-09 -6.97204e-07 0)
(-2.07941e-09 -6.93817e-07 0)
(-2.0512e-09 -6.90476e-07 0)
(-2.02277e-09 -6.87181e-07 0)
(-1.99414e-09 -6.83932e-07 0)
(-1.96533e-09 -6.80729e-07 0)
(-1.93634e-09 -6.77574e-07 0)
(-1.90719e-09 -6.74465e-07 0)
(-1.8779e-09 -6.71403e-07 0)
(-1.84846e-09 -6.68389e-07 0)
(-1.81889e-09 -6.65423e-07 0)
(-1.78921e-09 -6.62505e-07 0)
(-1.75941e-09 -6.59635e-07 0)
(-1.72951e-09 -6.56813e-07 0)
(-1.6995e-09 -6.54039e-07 0)
(-1.66941e-09 -6.51315e-07 0)
(-1.63922e-09 -6.48639e-07 0)
(-1.60895e-09 -6.46012e-07 0)
(-1.5786e-09 -6.43433e-07 0)
(-1.54817e-09 -6.40904e-07 0)
(-1.51767e-09 -6.38425e-07 0)
(-1.48709e-09 -6.35995e-07 0)
(-1.45645e-09 -6.33614e-07 0)
(-1.42574e-09 -6.31283e-07 0)
(-1.39496e-09 -6.29001e-07 0)
(-1.36411e-09 -6.2677e-07 0)
(-1.3332e-09 -6.24588e-07 0)
(-1.30223e-09 -6.22457e-07 0)
(-1.27119e-09 -6.20375e-07 0)
(-1.24009e-09 -6.18344e-07 0)
(-1.20892e-09 -6.16363e-07 0)
(-1.17769e-09 -6.14433e-07 0)
(-1.1464e-09 -6.12553e-07 0)
(-1.11504e-09 -6.10724e-07 0)
(-1.08362e-09 -6.08946e-07 0)
(-1.05214e-09 -6.07219e-07 0)
(-1.02059e-09 -6.05542e-07 0)
(-9.8898e-10 -6.03917e-07 0)
(-9.57305e-10 -6.02343e-07 0)
(-9.25567e-10 -6.0082e-07 0)
(-8.93766e-10 -5.99348e-07 0)
(-8.61901e-10 -5.97928e-07 0)
(-8.29973e-10 -5.9656e-07 0)
(-7.97983e-10 -5.95243e-07 0)
(-7.65932e-10 -5.93978e-07 0)
(-7.3382e-10 -5.92765e-07 0)
(-7.01648e-10 -5.91604e-07 0)
(-6.69417e-10 -5.90495e-07 0)
(-6.37129e-10 -5.89438e-07 0)
(-6.04785e-10 -5.88434e-07 0)
(-5.72387e-10 -5.87482e-07 0)
(-5.39937e-10 -5.86582e-07 0)
(-5.07436e-10 -5.85735e-07 0)
(-4.74887e-10 -5.8494e-07 0)
(-4.42292e-10 -5.84199e-07 0)
(-4.09653e-10 -5.83509e-07 0)
(-3.76974e-10 -5.82873e-07 0)
(-3.44256e-10 -5.82289e-07 0)
(-3.11504e-10 -5.81762e-07 0)
(-2.78717e-10 -5.81273e-07 0)
(-2.45905e-10 -5.80889e-07 0)
(-2.13046e-10 -5.80382e-07 0)
(-1.8023e-10 -5.80504e-07 0)
(-1.47161e-10 -5.78732e-07 0)
(-1.14869e-10 -5.83228e-07 0)
(-7.99579e-11 -5.6562e-07 0)
(-5.44822e-11 -6.11957e-07 0)
(-2.41651e-11 -5.34441e-07 0)
)
;
    }
    bottomWall
    {
        type            calculated;
        value           nonuniform List<vector> 
449
(
(-48.5673 -0.964593 0)
(-19.7643 -0.00515923 0)
(-14.3528 -0.00113565 0)
(-12.0413 -0.000545928 0)
(-10.6341 -0.000351791 0)
(-9.63946 -0.000256213 0)
(-8.88074 -0.000198656 0)
(-8.27671 -0.000159954 0)
(-7.78085 -0.00013244 0)
(-7.36386 -0.000112075 0)
(-7.00654 -9.64606e-05 0)
(-6.69585 -8.41427e-05 0)
(-6.42246 -7.42159e-05 0)
(-6.17946 -6.6081e-05 0)
(-5.96159 -5.93178e-05 0)
(-5.76478 -5.36232e-05 0)
(-5.58583 -4.87744e-05 0)
(-5.42219 -4.46055e-05 0)
(-5.27179 -4.09906e-05 0)
(-5.13292 -3.78319e-05 0)
(-5.00417 -3.50528e-05 0)
(-4.88437 -3.25925e-05 0)
(-4.77253 -3.04021e-05 0)
(-4.66779 -2.8442e-05 0)
(-4.56943 -2.66798e-05 0)
(-4.47682 -2.50886e-05 0)
(-4.38943 -2.36461e-05 0)
(-4.30677 -2.23337e-05 0)
(-4.22843 -2.11354e-05 0)
(-4.15405 -2.0038e-05 0)
(-4.08331 -1.90299e-05 0)
(-4.0159 -1.81013e-05 0)
(-3.95159 -1.72438e-05 0)
(-3.89013 -1.645e-05 0)
(-3.83132 -1.57134e-05 0)
(-3.77497 -1.50285e-05 0)
(-3.72092 -1.43904e-05 0)
(-3.66901 -1.37947e-05 0)
(-3.61911 -1.32376e-05 0)
(-3.57109 -1.27157e-05 0)
(-3.52482 -1.2226e-05 0)
(-3.48021 -1.17657e-05 0)
(-3.43716 -1.13326e-05 0)
(-3.39558 -1.09243e-05 0)
(-3.35539 -1.0539e-05 0)
(-3.31651 -1.01749e-05 0)
(-3.27887 -9.83034e-06 0)
(-3.2424 -9.504e-06 0)
(-3.20705 -9.19452e-06 0)
(-3.17276 -8.90072e-06 0)
(-3.13948 -8.62152e-06 0)
(-3.10715 -8.35592e-06 0)
(-3.07574 -8.10303e-06 0)
(-3.0452 -7.86201e-06 0)
(-3.01549 -7.6321e-06 0)
(-2.98657 -7.41261e-06 0)
(-2.95841 -7.20289e-06 0)
(-2.93097 -7.00236e-06 0)
(-2.90424 -6.81045e-06 0)
(-2.87816 -6.62666e-06 0)
(-2.85273 -6.45054e-06 0)
(-2.8279 -6.28163e-06 0)
(-2.80367 -6.11953e-06 0)
(-2.78 -5.96388e-06 0)
(-2.75687 -5.81432e-06 0)
(-2.73427 -5.67053e-06 0)
(-2.71217 -5.5322e-06 0)
(-2.69056 -5.39905e-06 0)
(-2.66941 -5.27082e-06 0)
(-2.64871 -5.14725e-06 0)
(-2.62844 -5.02813e-06 0)
(-2.6086 -4.91322e-06 0)
(-2.58916 -4.80232e-06 0)
(-2.57011 -4.69525e-06 0)
(-2.55144 -4.59182e-06 0)
(-2.53314 -4.49187e-06 0)
(-2.51519 -4.39524e-06 0)
(-2.49758 -4.30177e-06 0)
(-2.4803 -4.21132e-06 0)
(-2.46335 -4.12377e-06 0)
(-2.4467 -4.03898e-06 0)
(-2.43036 -3.95684e-06 0)
(-2.41431 -3.87723e-06 0)
(-2.39855 -3.80005e-06 0)
(-2.38306 -3.72519e-06 0)
(-2.36784 -3.65257e-06 0)
(-2.35287 -3.58208e-06 0)
(-2.33817 -3.51365e-06 0)
(-2.3237 -3.4472e-06 0)
(-2.30948 -3.38264e-06 0)
(-2.29549 -3.3199e-06 0)
(-2.28172 -3.25891e-06 0)
(-2.26817 -3.19961e-06 0)
(-2.25484 -3.14193e-06 0)
(-2.24172 -3.08581e-06 0)
(-2.22879 -3.03119e-06 0)
(-2.21607 -2.97803e-06 0)
(-2.20354 -2.92626e-06 0)
(-2.1912 -2.87584e-06 0)
(-2.17904 -2.82672e-06 0)
(-2.16705 -2.77885e-06 0)
(-2.15525 -2.73219e-06 0)
(-2.14361 -2.68671e-06 0)
(-2.13214 -2.64235e-06 0)
(-2.12083 -2.59908e-06 0)
(-2.10968 -2.55687e-06 0)
(-2.09868 -2.51567e-06 0)
(-2.08784 -2.47546e-06 0)
(-2.07714 -2.43621e-06 0)
(-2.06659 -2.39788e-06 0)
(-2.05617 -2.36044e-06 0)
(-2.0459 -2.32387e-06 0)
(-2.03576 -2.28814e-06 0)
(-2.02575 -2.25322e-06 0)
(-2.01587 -2.21909e-06 0)
(-2.00612 -2.18572e-06 0)
(-1.99649 -2.1531e-06 0)
(-1.98698 -2.12119e-06 0)
(-1.97759 -2.08997e-06 0)
(-1.96831 -2.05944e-06 0)
(-1.95915 -2.02955e-06 0)
(-1.9501 -2.00031e-06 0)
(-1.94116 -1.97168e-06 0)
(-1.93232 -1.94366e-06 0)
(-1.92359 -1.91622e-06 0)
(-1.91497 -1.88935e-06 0)
(-1.90644 -1.86303e-06 0)
(-1.89801 -1.83724e-06 0)
(-1.88968 -1.81198e-06 0)
(-1.88144 -1.78722e-06 0)
(-1.8733 -1.76296e-06 0)
(-1.86525 -1.73918e-06 0)
(-1.85728 -1.71586e-06 0)
(-1.84941 -1.693e-06 0)
(-1.84162 -1.67058e-06 0)
(-1.83392 -1.6486e-06 0)
(-1.82629 -1.62703e-06 0)
(-1.81876 -1.60588e-06 0)
(-1.8113 -1.58512e-06 0)
(-1.80392 -1.56475e-06 0)
(-1.79661 -1.54476e-06 0)
(-1.78939 -1.52514e-06 0)
(-1.78223 -1.50588e-06 0)
(-1.77516 -1.48697e-06 0)
(-1.76815 -1.46841e-06 0)
(-1.76121 -1.45017e-06 0)
(-1.75435 -1.43227e-06 0)
(-1.74755 -1.41468e-06 0)
(-1.74082 -1.39741e-06 0)
(-1.73416 -1.38043e-06 0)
(-1.72756 -1.36376e-06 0)
(-1.72102 -1.34737e-06 0)
(-1.71455 -1.33126e-06 0)
(-1.70814 -1.31544e-06 0)
(-1.70179 -1.29988e-06 0)
(-1.69551 -1.28458e-06 0)
(-1.68928 -1.26954e-06 0)
(-1.68311 -1.25475e-06 0)
(-1.67699 -1.24021e-06 0)
(-1.67094 -1.22591e-06 0)
(-1.66494 -1.21185e-06 0)
(-1.65899 -1.19801e-06 0)
(-1.6531 -1.1844e-06 0)
(-1.64726 -1.17101e-06 0)
(-1.64147 -1.15783e-06 0)
(-1.63573 -1.14487e-06 0)
(-1.63005 -1.13211e-06 0)
(-1.62441 -1.11956e-06 0)
(-1.61883 -1.10721e-06 0)
(-1.61329 -1.09495e-06 0)
(-1.6078 -1.08327e-06 0)
(-1.60235 -1.07122e-06 0)
(-1.59696 -1.05832e-06 0)
(-1.59192 -1.04832e-06 0)
(-1.58718 -1.04001e-06 0)
(-1.58242 -1.02958e-06 0)
(-1.57767 -1.0189e-06 0)
(-1.57292 -1.00892e-06 0)
(-1.56816 -9.98931e-07 0)
(-1.5634 -9.89072e-07 0)
(-1.55863 -9.79283e-07 0)
(-1.55386 -9.69568e-07 0)
(-1.54908 -9.59918e-07 0)
(-1.5443 -9.50331e-07 0)
(-1.53952 -9.40804e-07 0)
(-1.53473 -9.31337e-07 0)
(-1.52994 -9.21929e-07 0)
(-1.52515 -9.12578e-07 0)
(-1.52035 -9.03286e-07 0)
(-1.51555 -8.94051e-07 0)
(-1.51075 -8.84874e-07 0)
(-1.50595 -8.75754e-07 0)
(-1.50115 -8.66693e-07 0)
(-1.49634 -8.57689e-07 0)
(-1.49153 -8.48743e-07 0)
(-1.48672 -8.39856e-07 0)
(-1.48191 -8.31026e-07 0)
(-1.4771 -8.22255e-07 0)
(-1.47228 -8.13543e-07 0)
(-1.46747 -8.04889e-07 0)
(-1.46265 -7.96294e-07 0)
(-1.45784 -7.87758e-07 0)
(-1.45303 -7.79281e-07 0)
(-1.44821 -7.70863e-07 0)
(-1.4434 -7.62504e-07 0)
(-1.43858 -7.54205e-07 0)
(-1.43377 -7.45965e-07 0)
(-1.42896 -7.37785e-07 0)
(-1.42415 -7.29665e-07 0)
(-1.41934 -7.21604e-07 0)
(-1.41453 -7.13603e-07 0)
(-1.40972 -7.05661e-07 0)
(-1.40492 -6.9778e-07 0)
(-1.40012 -6.89959e-07 0)
(-1.39532 -6.82197e-07 0)
(-1.39052 -6.74496e-07 0)
(-1.38573 -6.66855e-07 0)
(-1.38094 -6.59273e-07 0)
(-1.37615 -6.51752e-07 0)
(-1.37136 -6.44291e-07 0)
(-1.36658 -6.3689e-07 0)
(-1.3618 -6.29549e-07 0)
(-1.35703 -6.22268e-07 0)
(-1.35226 -6.15047e-07 0)
(-1.34749 -6.07886e-07 0)
(-1.34273 -6.00785e-07 0)
(-1.33797 -5.93743e-07 0)
(-1.33322 -5.86761e-07 0)
(-1.32847 -5.79839e-07 0)
(-1.32373 -5.72976e-07 0)
(-1.319 -5.66173e-07 0)
(-1.31426 -5.5943e-07 0)
(-1.30954 -5.52745e-07 0)
(-1.30482 -5.4612e-07 0)
(-1.30011 -5.39553e-07 0)
(-1.2954 -5.33046e-07 0)
(-1.2907 -5.26597e-07 0)
(-1.286 -5.20207e-07 0)
(-1.28131 -5.13875e-07 0)
(-1.27663 -5.07601e-07 0)
(-1.27196 -5.01386e-07 0)
(-1.26729 -4.95228e-07 0)
(-1.26263 -4.89129e-07 0)
(-1.25798 -4.83086e-07 0)
(-1.25333 -4.77101e-07 0)
(-1.2487 -4.71174e-07 0)
(-1.24407 -4.65303e-07 0)
(-1.23945 -4.59489e-07 0)
(-1.23483 -4.53731e-07 0)
(-1.23023 -4.4803e-07 0)
(-1.22563 -4.42384e-07 0)
(-1.22104 -4.36795e-07 0)
(-1.21647 -4.31261e-07 0)
(-1.2119 -4.25782e-07 0)
(-1.20734 -4.20359e-07 0)
(-1.20279 -4.1499e-07 0)
(-1.19824 -4.09676e-07 0)
(-1.19371 -4.04416e-07 0)
(-1.18919 -3.9921e-07 0)
(-1.18468 -3.94058e-07 0)
(-1.18017 -3.88959e-07 0)
(-1.17568 -3.83913e-07 0)
(-1.1712 -3.78921e-07 0)
(-1.16673 -3.73981e-07 0)
(-1.16226 -3.69093e-07 0)
(-1.15781 -3.64257e-07 0)
(-1.15337 -3.59472e-07 0)
(-1.14894 -3.5474e-07 0)
(-1.14452 -3.50058e-07 0)
(-1.14012 -3.45427e-07 0)
(-1.13572 -3.40846e-07 0)
(-1.13133 -3.36315e-07 0)
(-1.12696 -3.31835e-07 0)
(-1.1226 -3.27403e-07 0)
(-1.11825 -3.23021e-07 0)
(-1.11391 -3.18687e-07 0)
(-1.10958 -3.14402e-07 0)
(-1.10526 -3.10166e-07 0)
(-1.10096 -3.05977e-07 0)
(-1.09667 -3.01835e-07 0)
(-1.09239 -2.9774e-07 0)
(-1.08812 -2.93693e-07 0)
(-1.08386 -2.89691e-07 0)
(-1.07962 -2.85736e-07 0)
(-1.07539 -2.81826e-07 0)
(-1.07117 -2.77962e-07 0)
(-1.06697 -2.74143e-07 0)
(-1.06278 -2.70369e-07 0)
(-1.0586 -2.66638e-07 0)
(-1.05443 -2.62952e-07 0)
(-1.05028 -2.5931e-07 0)
(-1.04614 -2.5571e-07 0)
(-1.04201 -2.52154e-07 0)
(-1.0379 -2.4864e-07 0)
(-1.0338 -2.45168e-07 0)
(-1.02971 -2.41738e-07 0)
(-1.02563 -2.3835e-07 0)
(-1.02157 -2.35002e-07 0)
(-1.01753 -2.31696e-07 0)
(-1.01349 -2.2843e-07 0)
(-1.00948 -2.25204e-07 0)
(-1.00547 -2.22017e-07 0)
(-1.00148 -2.1887e-07 0)
(-0.9975 -2.15762e-07 0)
(-0.993537 -2.12692e-07 0)
(-0.989587 -2.09661e-07 0)
(-0.985651 -2.06668e-07 0)
(-0.981729 -2.03712e-07 0)
(-0.977822 -2.00793e-07 0)
(-0.973928 -1.97912e-07 0)
(-0.970049 -1.95066e-07 0)
(-0.966184 -1.92257e-07 0)
(-0.962334 -1.89484e-07 0)
(-0.958497 -1.86746e-07 0)
(-0.954676 -1.84043e-07 0)
(-0.950868 -1.81375e-07 0)
(-0.947075 -1.78741e-07 0)
(-0.943297 -1.76142e-07 0)
(-0.939533 -1.73576e-07 0)
(-0.935784 -1.71043e-07 0)
(-0.932049 -1.68543e-07 0)
(-0.928329 -1.66077e-07 0)
(-0.924624 -1.63642e-07 0)
(-0.920933 -1.61239e-07 0)
(-0.917257 -1.58869e-07 0)
(-0.913596 -1.56529e-07 0)
(-0.90995 -1.5422e-07 0)
(-0.906318 -1.51942e-07 0)
(-0.902701 -1.49695e-07 0)
(-0.899099 -1.47477e-07 0)
(-0.895512 -1.4529e-07 0)
(-0.89194 -1.43131e-07 0)
(-0.888383 -1.41002e-07 0)
(-0.88484 -1.38901e-07 0)
(-0.881312 -1.36829e-07 0)
(-0.8778 -1.34784e-07 0)
(-0.874302 -1.32768e-07 0)
(-0.870819 -1.30779e-07 0)
(-0.867351 -1.28817e-07 0)
(-0.863898 -1.26882e-07 0)
(-0.86046 -1.24974e-07 0)
(-0.857037 -1.23092e-07 0)
(-0.853629 -1.21236e-07 0)
(-0.850236 -1.19406e-07 0)
(-0.846858 -1.17601e-07 0)
(-0.843494 -1.15821e-07 0)
(-0.840146 -1.14067e-07 0)
(-0.836813 -1.12337e-07 0)
(-0.833494 -1.10631e-07 0)
(-0.830191 -1.08951e-07 0)
(-0.826902 -1.07293e-07 0)
(-0.823628 -1.05642e-07 0)
(-0.82037 -1.04095e-07 0)
(-0.817122 -1.02557e-07 0)
(-0.813527 -1.00745e-07 0)
(-0.80963 -9.8841e-08 0)
(-0.805803 -9.71125e-08 0)
(-0.80204 -9.54382e-08 0)
(-0.798344 -9.37391e-08 0)
(-0.794715 -9.20676e-08 0)
(-0.79115 -9.0437e-08 0)
(-0.787647 -8.88498e-08 0)
(-0.784206 -8.73054e-08 0)
(-0.780825 -8.5803e-08 0)
(-0.777501 -8.43415e-08 0)
(-0.774234 -8.29196e-08 0)
(-0.771021 -8.15361e-08 0)
(-0.767862 -8.01896e-08 0)
(-0.764755 -7.88787e-08 0)
(-0.761699 -7.76021e-08 0)
(-0.758691 -7.63586e-08 0)
(-0.755732 -7.51471e-08 0)
(-0.752819 -7.39664e-08 0)
(-0.749952 -7.28154e-08 0)
(-0.74713 -7.16931e-08 0)
(-0.74435 -7.05985e-08 0)
(-0.741613 -6.95307e-08 0)
(-0.738917 -6.84888e-08 0)
(-0.736262 -6.74719e-08 0)
(-0.733645 -6.64793e-08 0)
(-0.731067 -6.551e-08 0)
(-0.728527 -6.45633e-08 0)
(-0.726023 -6.36386e-08 0)
(-0.723554 -6.27351e-08 0)
(-0.721121 -6.18522e-08 0)
(-0.718722 -6.09891e-08 0)
(-0.716356 -6.01454e-08 0)
(-0.714022 -5.93204e-08 0)
(-0.711721 -5.85136e-08 0)
(-0.709451 -5.77243e-08 0)
(-0.707211 -5.69521e-08 0)
(-0.705001 -5.61965e-08 0)
(-0.70282 -5.5457e-08 0)
(-0.700668 -5.47331e-08 0)
(-0.698544 -5.40243e-08 0)
(-0.696447 -5.33303e-08 0)
(-0.694378 -5.26507e-08 0)
(-0.692334 -5.19849e-08 0)
(-0.690316 -5.13327e-08 0)
(-0.688324 -5.06936e-08 0)
(-0.686356 -5.00674e-08 0)
(-0.684412 -4.94536e-08 0)
(-0.682492 -4.88519e-08 0)
(-0.680596 -4.8262e-08 0)
(-0.678722 -4.76836e-08 0)
(-0.67687 -4.71165e-08 0)
(-0.675041 -4.65602e-08 0)
(-0.673233 -4.60145e-08 0)
(-0.671446 -4.54792e-08 0)
(-0.66968 -4.49541e-08 0)
(-0.667934 -4.44387e-08 0)
(-0.666208 -4.3933e-08 0)
(-0.664502 -4.34367e-08 0)
(-0.662815 -4.29496e-08 0)
(-0.661147 -4.24714e-08 0)
(-0.659497 -4.20019e-08 0)
(-0.657866 -4.1541e-08 0)
(-0.656252 -4.10885e-08 0)
(-0.654656 -4.06442e-08 0)
(-0.653077 -4.02079e-08 0)
(-0.651515 -3.97795e-08 0)
(-0.64997 -3.93588e-08 0)
(-0.648441 -3.89457e-08 0)
(-0.646928 -3.85401e-08 0)
(-0.64543 -3.81419e-08 0)
(-0.643948 -3.77509e-08 0)
(-0.642481 -3.73671e-08 0)
(-0.641029 -3.69905e-08 0)
(-0.639592 -3.6621e-08 0)
(-0.638169 -3.62586e-08 0)
(-0.63676 -3.59035e-08 0)
(-0.635364 -3.55558e-08 0)
(-0.633982 -3.52156e-08 0)
(-0.632614 -3.48833e-08 0)
(-0.631258 -3.45594e-08 0)
(-0.629914 -3.42447e-08 0)
(-0.628583 -3.39403e-08 0)
(-0.627263 -3.36477e-08 0)
(-0.625955 -3.33691e-08 0)
(-0.624657 -3.31135e-08 0)
(-0.623368 -3.28682e-08 0)
(-0.62209 -3.26641e-08 0)
(-0.620817 -3.26494e-08 0)
(-0.61954 -3.22551e-08 0)
(-0.618298 -3.14338e-08 0)
(-0.617084 -4.13906e-08 0)
(-0.615065 -1.1242e-08 0)
(-0.616217 -3.0445e-08 0)
(-0.612647 -4.65761e-08 0)
)
;
    }
    symmetry
    {
        type            symmetryPlane;
    }
    frontAndBack
    {
        type            empty;
    }
}


// ************************************************************************* //
