/*--------------------------------*- C++ -*----------------------------------*\
| =========                 |                                                 |
| \\      /  F ield         | OpenFOAM: The Open Source CFD Toolbox           |
|  \\    /   O peration     | Version:  v2012                                 |
|   \\  /    A nd           | Website:  www.openfoam.com                      |
|    \\/     M anipulation  |                                                 |
\*---------------------------------------------------------------------------*/
FoamFile
{
    version     2.0;
    format      ascii;
    class       volScalarField;
    location    "11";
    object      epsilon;
}
// * * * * * * * * * * * * * * * * * * * * * * * * * * * * * * * * * * * * * //

dimensions      [0 2 -3 0 0 0 0];


internalField   nonuniform List<scalar> 
209825
(
0.774139
0.734203
0.719636
0.712671
0.708673
0.706155
0.704432
0.703215
0.702295
0.701608
0.701049
0.70062
0.700246
0.699954
0.699706
0.699508
0.699326
0.699182
0.699043
0.698937
0.698826
0.698746
0.698669
0.698612
0.698543
0.698503
0.69846
0.69843
0.698379
0.698366
0.698354
0.69834
0.69831
0.698309
0.698307
0.6983
0.698275
0.698295
0.698294
0.698309
0.698309
0.698323
0.698322
0.698356
0.698356
0.698395
0.698395
0.698445
0.698445
0.69849
0.69849
0.69859
0.698589
0.698589
0.698629
0.698629
0.698755
0.698843
0.698916
0.69892
0.69892
0.698919
0.699052
0.699204
0.699211
0.69921
0.699354
0.699525
0.699529
0.699686
0.699861
0.699865
0.700044
0.700186
0.700365
0.700598
0.70081
0.700978
0.701281
0.701473
0.701745
0.702096
0.702418
0.702884
0.703356
0.703981
0.704651
0.705512
0.706531
0.70793
0.709239
0.712738
0.713576
0.730182
1.34832
263.829
0.774134
0.734183
0.719606
0.712636
0.708634
0.706115
0.704389
0.703171
0.70225
0.701562
0.701003
0.700573
0.700199
0.699907
0.699659
0.69946
0.699278
0.699134
0.698995
0.698889
0.698777
0.698697
0.69862
0.698563
0.698494
0.698454
0.698411
0.698381
0.69833
0.698317
0.698304
0.698291
0.698261
0.69826
0.698258
0.698251
0.698225
0.698246
0.698245
0.69826
0.69826
0.698274
0.698273
0.698306
0.698306
0.698346
0.698346
0.698396
0.698396
0.69844
0.69844
0.69854
0.69854
0.69854
0.698579
0.698579
0.698705
0.698794
0.698866
0.698871
0.69887
0.69887
0.699002
0.699155
0.699162
0.699161
0.699305
0.699476
0.69948
0.699637
0.699812
0.699817
0.699995
0.700137
0.700316
0.70055
0.700761
0.700929
0.701233
0.701425
0.701697
0.702048
0.702371
0.702837
0.70331
0.703935
0.704605
0.705466
0.706486
0.707885
0.709195
0.712696
0.713531
0.730169
1.34998
260.638
0.7741
0.734085
0.719473
0.712482
0.708467
0.705939
0.704207
0.702984
0.70206
0.701369
0.700808
0.700376
0.700001
0.699707
0.699458
0.699259
0.699075
0.698931
0.698791
0.698685
0.698573
0.698493
0.698415
0.698358
0.698289
0.698248
0.698204
0.698174
0.698123
0.69811
0.698098
0.698084
0.698054
0.698053
0.69805
0.698043
0.698018
0.698038
0.698037
0.698052
0.698052
0.698066
0.698065
0.698098
0.698098
0.698138
0.698138
0.698188
0.698188
0.698232
0.698232
0.698332
0.698332
0.698332
0.698372
0.698372
0.698498
0.698586
0.698659
0.698663
0.698663
0.698663
0.698795
0.698948
0.698955
0.698955
0.699098
0.699269
0.699274
0.699431
0.699607
0.699612
0.69979
0.699933
0.700112
0.700346
0.700558
0.700726
0.70103
0.701223
0.701496
0.701847
0.70217
0.702637
0.70311
0.703736
0.704407
0.705269
0.706289
0.707691
0.709001
0.712506
0.713335
0.730031
1.35397
257.105
0.774042
0.733919
0.719246
0.712221
0.708184
0.705641
0.703899
0.702669
0.701738
0.701043
0.700478
0.700044
0.699665
0.69937
0.699119
0.698919
0.698734
0.698589
0.698448
0.69834
0.698227
0.698147
0.698069
0.698011
0.697941
0.6979
0.697856
0.697826
0.697774
0.697761
0.697748
0.697734
0.697704
0.697703
0.6977
0.697693
0.697667
0.697687
0.697687
0.697702
0.697701
0.697715
0.697714
0.697747
0.697747
0.697787
0.697787
0.697836
0.697836
0.697881
0.697881
0.697981
0.697981
0.697981
0.698021
0.698021
0.698147
0.698236
0.698309
0.698314
0.698314
0.698313
0.698445
0.698599
0.698606
0.698606
0.698749
0.698921
0.698927
0.699083
0.69926
0.699265
0.699444
0.699587
0.699767
0.700001
0.700213
0.700383
0.700687
0.700881
0.701154
0.701506
0.70183
0.702298
0.702772
0.7034
0.704072
0.704936
0.705957
0.707362
0.708671
0.712183
0.713001
0.729787
1.36035
253.96
0.77396
0.733683
0.718925
0.711851
0.707784
0.70522
0.703463
0.702222
0.701283
0.700582
0.700012
0.699573
0.699192
0.698894
0.69864
0.698438
0.698251
0.698104
0.697962
0.697854
0.69774
0.697658
0.697579
0.697521
0.69745
0.697408
0.697364
0.697333
0.697282
0.697268
0.697255
0.69724
0.69721
0.697209
0.697206
0.697198
0.697172
0.697192
0.697191
0.697206
0.697206
0.697219
0.697218
0.697251
0.697251
0.69729
0.69729
0.69734
0.69734
0.697385
0.697385
0.697485
0.697485
0.697485
0.697525
0.697525
0.697652
0.697741
0.697814
0.697819
0.697819
0.697819
0.697951
0.698105
0.698113
0.698113
0.698256
0.698429
0.698436
0.698592
0.698769
0.698775
0.698954
0.699098
0.699278
0.699513
0.699727
0.699897
0.700201
0.700397
0.700671
0.701025
0.70135
0.701819
0.702295
0.702924
0.703597
0.704465
0.705486
0.706895
0.708204
0.711724
0.712529
0.729436
1.36928
251.511
0.773854
0.733377
0.718509
0.711372
0.707265
0.704674
0.702898
0.701643
0.700694
0.699984
0.699407
0.698964
0.698578
0.698276
0.698019
0.697814
0.697625
0.697476
0.697332
0.697222
0.697107
0.697024
0.696944
0.696885
0.696814
0.696771
0.696726
0.696694
0.696642
0.696628
0.696614
0.6966
0.696569
0.696567
0.696564
0.696557
0.69653
0.696549
0.696548
0.696563
0.696563
0.696576
0.696575
0.696608
0.696607
0.696647
0.696647
0.696696
0.696696
0.696741
0.696741
0.696842
0.696842
0.696842
0.696882
0.696882
0.697009
0.697098
0.697172
0.697178
0.697178
0.697177
0.697309
0.697465
0.697473
0.697473
0.697616
0.69779
0.697798
0.697954
0.698133
0.69814
0.698319
0.698464
0.698645
0.69888
0.699095
0.699266
0.699572
0.699769
0.700045
0.7004
0.700727
0.701198
0.701675
0.702307
0.702981
0.703852
0.704874
0.706289
0.707597
0.711129
0.711916
0.728977
1.38095
249.88
0.773724
0.733001
0.717998
0.710782
0.706626
0.704002
0.702202
0.70093
0.699967
0.699247
0.698662
0.698212
0.69782
0.697514
0.697253
0.697045
0.696853
0.696702
0.696556
0.696444
0.696327
0.696243
0.696161
0.696101
0.696029
0.695985
0.695939
0.695907
0.695854
0.695839
0.695825
0.69581
0.695779
0.695777
0.695773
0.695765
0.695738
0.695757
0.695756
0.69577
0.69577
0.695783
0.695781
0.695814
0.695814
0.695853
0.695853
0.695903
0.695903
0.695948
0.695948
0.696049
0.696049
0.696049
0.696089
0.696089
0.696216
0.696307
0.696381
0.696387
0.696387
0.696386
0.696519
0.696675
0.696685
0.696685
0.696828
0.697003
0.697012
0.697168
0.697348
0.697356
0.697536
0.697682
0.697863
0.698099
0.698316
0.698489
0.698795
0.698995
0.699272
0.699629
0.699957
0.700431
0.70091
0.701545
0.702222
0.703097
0.704119
0.705541
0.706848
0.710393
0.711158
0.728409
1.39552
249.087
0.77357
0.732555
0.717389
0.71008
0.705865
0.703201
0.701373
0.70008
0.699102
0.698369
0.697774
0.697316
0.696918
0.696606
0.696341
0.696129
0.695933
0.695779
0.695631
0.695517
0.695398
0.695312
0.695229
0.695167
0.695093
0.695048
0.695001
0.694968
0.694915
0.694899
0.694884
0.694869
0.694838
0.694835
0.694831
0.694822
0.694794
0.694813
0.694811
0.694825
0.694825
0.694838
0.694836
0.694868
0.694868
0.694907
0.694907
0.694957
0.694957
0.695002
0.695002
0.695103
0.695103
0.695103
0.695144
0.695144
0.695271
0.695363
0.695438
0.695444
0.695444
0.695444
0.695576
0.695734
0.695745
0.695745
0.695887
0.696064
0.696075
0.696231
0.696412
0.696422
0.696602
0.696749
0.696932
0.697169
0.697387
0.697561
0.697869
0.698072
0.69835
0.69871
0.69904
0.699516
0.699998
0.700636
0.701315
0.702195
0.703218
0.704648
0.705954
0.709515
0.710254
0.727729
1.41319
249.082
0.773392
0.732038
0.716684
0.709265
0.70498
0.70227
0.700409
0.699092
0.698095
0.697348
0.696742
0.696274
0.695869
0.695551
0.69528
0.695063
0.694863
0.694706
0.694554
0.694438
0.694316
0.694228
0.694143
0.69408
0.694005
0.693958
0.69391
0.693876
0.693822
0.693805
0.693789
0.693773
0.693742
0.693738
0.693734
0.693725
0.693696
0.693714
0.693712
0.693726
0.693726
0.693738
0.693736
0.693768
0.693768
0.693806
0.693806
0.693856
0.693856
0.693901
0.693901
0.694003
0.694003
0.694003
0.694045
0.694045
0.694172
0.694264
0.69434
0.694348
0.694347
0.694347
0.694479
0.694639
0.694651
0.694651
0.694793
0.694972
0.694985
0.69514
0.695323
0.695335
0.695515
0.695664
0.695848
0.696085
0.696306
0.696482
0.696792
0.696998
0.697277
0.69764
0.697973
0.698452
0.698936
0.699578
0.70026
0.701145
0.702168
0.703608
0.704912
0.708491
0.7092
0.726938
1.43414
249.77
0.773192
0.73145
0.715879
0.708335
0.703972
0.701208
0.699309
0.697964
0.696946
0.696182
0.695563
0.695085
0.69467
0.694345
0.694067
0.693845
0.693641
0.69348
0.693325
0.693205
0.693081
0.69299
0.692903
0.692838
0.692761
0.692713
0.692664
0.692629
0.692573
0.692555
0.692538
0.692522
0.69249
0.692486
0.69248
0.692471
0.692441
0.692458
0.692456
0.69247
0.69247
0.692482
0.692479
0.692511
0.692511
0.692548
0.692548
0.692598
0.692598
0.692644
0.692644
0.692746
0.692746
0.692746
0.692788
0.692788
0.692915
0.693009
0.693086
0.693094
0.693094
0.693093
0.693225
0.693387
0.693401
0.693401
0.693543
0.693724
0.693739
0.693893
0.694079
0.694092
0.694273
0.694424
0.694608
0.694847
0.695071
0.695249
0.69556
0.695769
0.69605
0.696416
0.696752
0.697235
0.697721
0.698368
0.699053
0.699944
0.700968
0.702418
0.70372
0.707319
0.707995
0.726031
1.45858
251.029
0.772969
0.730792
0.714976
0.70729
0.702837
0.700013
0.698071
0.696694
0.695651
0.69487
0.694235
0.693744
0.69332
0.692986
0.692702
0.692473
0.692264
0.692099
0.691939
0.691816
0.691689
0.691596
0.691506
0.691439
0.69136
0.691311
0.691259
0.691223
0.691166
0.691147
0.691129
0.691112
0.691079
0.691074
0.691068
0.691058
0.691027
0.691044
0.691041
0.691055
0.691055
0.691066
0.691063
0.691094
0.691094
0.691131
0.691131
0.691181
0.691181
0.691226
0.691226
0.69133
0.69133
0.69133
0.691372
0.691372
0.6915
0.691595
0.691673
0.691682
0.691681
0.691681
0.691813
0.691976
0.691992
0.691992
0.692134
0.692317
0.692335
0.692489
0.692676
0.692692
0.692873
0.693026
0.693212
0.693452
0.693678
0.693859
0.694171
0.694385
0.694668
0.695037
0.695376
0.695862
0.696352
0.697003
0.697691
0.698589
0.699614
0.701076
0.702375
0.705997
0.706634
0.725008
1.48669
252.714
0.772724
0.730062
0.713974
0.706129
0.701575
0.698683
0.696693
0.69528
0.694211
0.693408
0.692756
0.692252
0.691816
0.691473
0.691181
0.690946
0.690731
0.69056
0.690396
0.690269
0.690139
0.690043
0.68995
0.68988
0.689799
0.689748
0.689695
0.689657
0.689599
0.689578
0.689559
0.689541
0.689508
0.689502
0.689495
0.689484
0.689452
0.689468
0.689465
0.689478
0.689478
0.689489
0.689485
0.689516
0.689516
0.689552
0.689552
0.689602
0.689602
0.689648
0.689648
0.689752
0.689752
0.689752
0.689795
0.689795
0.689922
0.690019
0.690098
0.690108
0.690108
0.690107
0.690239
0.690405
0.690422
0.690422
0.690564
0.690749
0.69077
0.690924
0.691113
0.691132
0.691313
0.691468
0.691656
0.691897
0.692126
0.692309
0.692623
0.692842
0.693127
0.6935
0.693842
0.694332
0.694825
0.695482
0.696173
0.697079
0.698104
0.699578
0.700875
0.70452
0.705115
0.723866
1.51865
254.67
0.772457
0.729262
0.712872
0.704851
0.700185
0.697217
0.695174
0.693722
0.692622
0.691795
0.691125
0.690606
0.690158
0.689804
0.689503
0.68926
0.689039
0.688862
0.688694
0.688563
0.688428
0.688328
0.688233
0.68816
0.688077
0.688023
0.687968
0.687929
0.687869
0.687847
0.687827
0.687808
0.687773
0.687766
0.687759
0.687747
0.687714
0.687729
0.687726
0.687738
0.687738
0.687748
0.687744
0.687774
0.687774
0.68781
0.68781
0.687859
0.687859
0.687905
0.687905
0.68801
0.68801
0.68801
0.688053
0.688053
0.688181
0.68828
0.688359
0.68837
0.68837
0.68837
0.688501
0.68867
0.688689
0.688689
0.688831
0.689019
0.689043
0.689196
0.689388
0.689409
0.689591
0.689748
0.689937
0.69018
0.690412
0.690598
0.690914
0.691137
0.691425
0.691802
0.692147
0.692642
0.693139
0.693801
0.694496
0.69541
0.696435
0.697923
0.699217
0.702887
0.703437
0.722601
1.55464
256.743
0.77217
0.728393
0.71167
0.703455
0.698666
0.695615
0.693512
0.692016
0.690883
0.690031
0.68934
0.688804
0.688342
0.687977
0.687665
0.687415
0.687186
0.687003
0.686829
0.686693
0.686554
0.686451
0.686352
0.686277
0.686191
0.686135
0.686077
0.686036
0.685975
0.685951
0.685929
0.685909
0.685873
0.685866
0.685857
0.685844
0.68581
0.685824
0.68582
0.685832
0.685832
0.685841
0.685836
0.685866
0.685866
0.685901
0.685901
0.68595
0.68595
0.685996
0.685996
0.686102
0.686102
0.686102
0.686146
0.686146
0.686274
0.686374
0.686455
0.686467
0.686467
0.686467
0.686598
0.686769
0.686791
0.686791
0.686932
0.687122
0.687151
0.687302
0.687497
0.687521
0.687704
0.687864
0.688054
0.688299
0.688534
0.688723
0.689041
0.68927
0.68956
0.689941
0.69029
0.69079
0.69129
0.691959
0.692657
0.69358
0.694605
0.696107
0.697398
0.701095
0.701595
0.721212
1.5948
258.783
0.771862
0.727453
0.710368
0.701941
0.697017
0.693874
0.691706
0.690163
0.688993
0.688112
0.687398
0.686844
0.686367
0.685989
0.685667
0.685407
0.68517
0.684981
0.684801
0.68466
0.684516
0.684409
0.684306
0.684228
0.684139
0.68408
0.68402
0.683977
0.683914
0.683888
0.683864
0.683843
0.683806
0.683797
0.683787
0.683774
0.683739
0.683751
0.683747
0.683758
0.683758
0.683766
0.683761
0.68379
0.68379
0.683824
0.683824
0.683873
0.683873
0.683919
0.683919
0.684026
0.684026
0.684026
0.68407
0.68407
0.684199
0.684301
0.684383
0.684396
0.684396
0.684396
0.684526
0.6847
0.684725
0.684725
0.684865
0.685059
0.685091
0.685242
0.685439
0.685467
0.685651
0.685813
0.686005
0.686251
0.68649
0.686682
0.687003
0.687236
0.687529
0.687915
0.688268
0.688773
0.689277
0.689952
0.690655
0.691586
0.692612
0.694129
0.695416
0.69914
0.699587
0.719693
1.63928
260.648
0.771535
0.726444
0.708967
0.700308
0.695237
0.691995
0.689756
0.68816
0.68695
0.686039
0.685299
0.684726
0.684232
0.68384
0.683506
0.683236
0.682991
0.682794
0.682607
0.682461
0.682312
0.6822
0.682093
0.682011
0.681919
0.681857
0.681795
0.681749
0.681684
0.681656
0.68163
0.681608
0.68157
0.68156
0.681549
0.681535
0.681498
0.681509
0.681504
0.681514
0.681514
0.681521
0.681515
0.681544
0.681544
0.681577
0.681577
0.681626
0.681625
0.681672
0.681672
0.681779
0.681779
0.681779
0.681824
0.681825
0.681953
0.682057
0.68214
0.682155
0.682156
0.682155
0.682285
0.682462
0.682489
0.682489
0.682629
0.682826
0.682862
0.683013
0.683212
0.683244
0.683428
0.683593
0.683787
0.684035
0.684277
0.684473
0.684796
0.685035
0.685331
0.685721
0.686079
0.686589
0.687097
0.687779
0.688485
0.689427
0.690452
0.691985
0.693267
0.697021
0.697412
0.718042
1.68815
262.212
0.771189
0.725367
0.707465
0.698556
0.693325
0.689975
0.687659
0.686006
0.684753
0.683808
0.683042
0.682446
0.681934
0.681527
0.68118
0.6809
0.680645
0.68044
0.680246
0.680093
0.679939
0.679822
0.679711
0.679625
0.679529
0.679465
0.679399
0.679351
0.679284
0.679253
0.679226
0.679202
0.679163
0.679151
0.679139
0.679124
0.679085
0.679095
0.679089
0.679098
0.679098
0.679105
0.679098
0.679126
0.679126
0.679157
0.679157
0.679206
0.679206
0.679252
0.679252
0.67936
0.67936
0.67936
0.679406
0.679406
0.679535
0.679641
0.679726
0.679742
0.679743
0.679742
0.679871
0.680051
0.680081
0.680082
0.680222
0.680421
0.680462
0.680612
0.680814
0.68085
0.681035
0.681202
0.681398
0.681647
0.681894
0.682094
0.682418
0.682664
0.682962
0.683358
0.68372
0.684235
0.684748
0.685437
0.686147
0.687099
0.688123
0.689673
0.69095
0.694733
0.695065
0.716253
1.74146
263.361
0.770825
0.724223
0.705864
0.696685
0.691282
0.687815
0.685415
0.683701
0.682401
0.681419
0.680624
0.680004
0.679473
0.67905
0.678689
0.678397
0.678131
0.677918
0.677716
0.677557
0.677396
0.677274
0.677158
0.677068
0.676968
0.6769
0.676831
0.676781
0.676711
0.676678
0.676649
0.676623
0.676583
0.676569
0.676555
0.676539
0.676499
0.676508
0.676501
0.676509
0.676509
0.676515
0.676507
0.676534
0.676533
0.676564
0.676564
0.676612
0.676612
0.676658
0.676658
0.676767
0.676768
0.676768
0.676814
0.676814
0.676943
0.677051
0.677137
0.677155
0.677156
0.677155
0.677284
0.677467
0.677501
0.6775
0.67764
0.677842
0.677889
0.678037
0.678242
0.678282
0.678468
0.678638
0.678836
0.679087
0.679338
0.679542
0.679869
0.680121
0.680422
0.680823
0.681189
0.681711
0.682227
0.682924
0.683638
0.6846
0.685623
0.68719
0.688463
0.692275
0.692545
0.714323
1.7992
264.001
0.770445
0.723012
0.704165
0.694695
0.689107
0.685514
0.683024
0.681243
0.679892
0.678871
0.678044
0.677399
0.676847
0.676406
0.67603
0.675725
0.675448
0.675226
0.675015
0.674849
0.674682
0.674554
0.674433
0.674338
0.674234
0.674163
0.67409
0.674037
0.673964
0.673929
0.673897
0.67387
0.673828
0.673812
0.673797
0.67378
0.673738
0.673745
0.673738
0.673745
0.673745
0.673749
0.67374
0.673766
0.673766
0.673795
0.673795
0.673842
0.673842
0.673889
0.673889
0.673999
0.673999
0.673999
0.674046
0.674046
0.674175
0.674285
0.674373
0.674393
0.674393
0.674393
0.674521
0.674707
0.674744
0.674744
0.674883
0.675088
0.675141
0.675288
0.675495
0.67554
0.675727
0.6759
0.6761
0.676353
0.676607
0.676815
0.677144
0.677404
0.677708
0.678115
0.678485
0.679013
0.679533
0.680238
0.680956
0.681928
0.68295
0.684534
0.685801
0.689643
0.68985
0.712245
1.86129
264.054
0.77005
0.721736
0.702367
0.692586
0.686799
0.68307
0.680484
0.678632
0.677227
0.676163
0.675302
0.674629
0.674054
0.673594
0.673202
0.672883
0.672595
0.672362
0.672143
0.671969
0.671795
0.671661
0.671533
0.671434
0.671326
0.67125
0.671174
0.671118
0.671042
0.671004
0.670969
0.67094
0.670896
0.670879
0.670862
0.670844
0.670801
0.670806
0.670797
0.670804
0.670803
0.670806
0.670796
0.670821
0.670821
0.670849
0.670848
0.670895
0.670895
0.670941
0.670941
0.671052
0.671052
0.671052
0.6711
0.671101
0.67123
0.671342
0.671431
0.671453
0.671453
0.671453
0.67158
0.671769
0.67181
0.67181
0.671949
0.672156
0.672215
0.672361
0.672571
0.672621
0.672809
0.672984
0.673186
0.673442
0.6737
0.673913
0.674244
0.67451
0.674818
0.67523
0.675605
0.676139
0.676663
0.677376
0.678098
0.679082
0.680101
0.681703
0.682964
0.686835
0.686976
0.710015
1.92756
263.469
0.76964
0.720396
0.700472
0.690359
0.684359
0.680485
0.677795
0.675867
0.674403
0.673293
0.672396
0.671694
0.671094
0.670614
0.670204
0.669871
0.66957
0.669326
0.669097
0.668914
0.668733
0.668593
0.668459
0.668355
0.668241
0.668161
0.668081
0.668022
0.667943
0.667902
0.667864
0.667833
0.667787
0.667768
0.667749
0.66773
0.667685
0.667689
0.667679
0.667684
0.667684
0.667685
0.667673
0.667697
0.667697
0.667724
0.667722
0.667769
0.667769
0.667815
0.667815
0.667927
0.667927
0.667927
0.667976
0.667976
0.668105
0.668219
0.66831
0.668334
0.668334
0.668334
0.66846
0.668652
0.668698
0.668697
0.668835
0.669046
0.669111
0.669256
0.669469
0.669524
0.669712
0.669891
0.670095
0.670352
0.670615
0.670832
0.671166
0.671439
0.67175
0.672168
0.672547
0.673087
0.673616
0.674337
0.675062
0.676057
0.677075
0.678695
0.679949
0.683848
0.683921
0.707626
1.99773
262.194
0.769216
0.718994
0.69848
0.688014
0.681786
0.677758
0.674957
0.672947
0.67142
0.670262
0.669325
0.668592
0.667966
0.667464
0.667035
0.666687
0.666372
0.666116
0.665877
0.665685
0.665496
0.665348
0.665208
0.665098
0.66498
0.664895
0.66481
0.664747
0.664665
0.664621
0.66458
0.664547
0.664499
0.664478
0.664457
0.664436
0.66439
0.664391
0.66438
0.664384
0.664384
0.664383
0.66437
0.664393
0.664393
0.664418
0.664416
0.664462
0.664462
0.664508
0.664508
0.664621
0.664621
0.664621
0.66467
0.66467
0.664799
0.664916
0.665008
0.665034
0.665034
0.665034
0.66516
0.665355
0.665404
0.665404
0.665542
0.665755
0.665827
0.665971
0.666186
0.666246
0.666435
0.666617
0.666824
0.667083
0.66735
0.667572
0.667907
0.668188
0.668502
0.668926
0.66931
0.669857
0.67039
0.671119
0.671847
0.672854
0.673868
0.675506
0.676754
0.680679
0.680684
0.705071
2.07142
260.206
0.768781
0.717531
0.696394
0.685552
0.679082
0.674888
0.671969
0.669871
0.668278
0.667068
0.666089
0.665322
0.664668
0.664143
0.663695
0.663329
0.663
0.662732
0.662481
0.66228
0.662082
0.661926
0.661779
0.661663
0.661539
0.66145
0.66136
0.661294
0.661208
0.66116
0.661116
0.661081
0.66103
0.661007
0.660984
0.660962
0.660914
0.660913
0.660901
0.660903
0.660903
0.660901
0.660886
0.660907
0.660907
0.660931
0.660928
0.660973
0.660973
0.661019
0.661019
0.661132
0.661133
0.661132
0.661182
0.661183
0.661312
0.661431
0.661524
0.661552
0.661553
0.661553
0.661677
0.661876
0.661929
0.661929
0.662066
0.662282
0.662361
0.662504
0.662721
0.662787
0.662977
0.663162
0.663371
0.663632
0.663903
0.66413
0.664468
0.664756
0.665073
0.665503
0.665892
0.666445
0.666982
0.66772
0.66845
0.669469
0.67048
0.672136
0.673375
0.677325
0.677262
0.702343
2.14812
257.5
0.768334
0.716009
0.694213
0.682973
0.676246
0.671877
0.668832
0.666641
0.664976
0.663711
0.662688
0.661885
0.661201
0.660651
0.660181
0.659798
0.659452
0.659171
0.658909
0.658697
0.65849
0.658327
0.658172
0.65805
0.65792
0.657825
0.657731
0.65766
0.65757
0.657519
0.657471
0.657433
0.65738
0.657355
0.657329
0.657306
0.657257
0.657253
0.657239
0.65724
0.657239
0.657236
0.657219
0.657239
0.657239
0.657261
0.657257
0.657302
0.657302
0.657347
0.657346
0.657461
0.657461
0.657461
0.657512
0.657512
0.657641
0.657762
0.657857
0.657888
0.657888
0.657888
0.658012
0.658213
0.658271
0.658271
0.658407
0.658625
0.658711
0.658854
0.659073
0.659145
0.659336
0.659524
0.659735
0.659998
0.660273
0.660505
0.660845
0.661141
0.661461
0.661898
0.662291
0.662851
0.663391
0.664137
0.66487
0.665901
0.666908
0.668581
0.669813
0.673786
0.673653
0.699435
2.22715
254.08
0.767878
0.71443
0.691941
0.680279
0.67328
0.668724
0.665545
0.663256
0.661515
0.66019
0.65912
0.658279
0.657563
0.656987
0.656494
0.656092
0.65573
0.655434
0.655159
0.654937
0.65472
0.654548
0.654385
0.654256
0.65412
0.654019
0.65392
0.653845
0.653751
0.653695
0.653644
0.653603
0.653548
0.653519
0.653491
0.653466
0.653416
0.65341
0.653394
0.653394
0.653392
0.653387
0.653368
0.653387
0.653387
0.653407
0.653403
0.653446
0.653446
0.65349
0.65349
0.653605
0.653605
0.653605
0.653656
0.653657
0.653785
0.653909
0.654006
0.654038
0.654038
0.654039
0.654161
0.654365
0.654428
0.654429
0.654564
0.654784
0.654878
0.65502
0.655241
0.655319
0.655511
0.655702
0.655915
0.65618
0.656459
0.656696
0.657038
0.657342
0.657666
0.658108
0.658506
0.659072
0.659616
0.660371
0.661106
0.662149
0.66315
0.664841
0.666064
0.670058
0.669856
0.696339
2.3077
249.964
0.767415
0.712796
0.689579
0.677472
0.670184
0.66543
0.66211
0.659715
0.657894
0.656507
0.655386
0.654504
0.653755
0.65315
0.652633
0.652211
0.651831
0.651521
0.651232
0.650998
0.65077
0.650589
0.650418
0.650282
0.650139
0.650032
0.649927
0.649847
0.649749
0.649689
0.649634
0.649591
0.649532
0.649501
0.64947
0.649444
0.649391
0.649383
0.649366
0.649364
0.64936
0.649354
0.649333
0.649351
0.64935
0.649369
0.649363
0.649405
0.649405
0.649449
0.649449
0.649564
0.649565
0.649565
0.649616
0.649616
0.649745
0.649871
0.649969
0.650004
0.650004
0.650004
0.650126
0.650332
0.650401
0.650401
0.650536
0.650758
0.650859
0.651
0.651223
0.651307
0.651501
0.651694
0.65191
0.652176
0.65246
0.652702
0.653046
0.653358
0.653685
0.654133
0.654535
0.655108
0.655655
0.656418
0.657155
0.658209
0.659206
0.660913
0.662127
0.666141
0.665869
0.693044
2.38877
245.183
0.766945
0.71111
0.687128
0.674552
0.666959
0.661997
0.658526
0.65602
0.654114
0.65266
0.651486
0.65056
0.649776
0.649141
0.648599
0.648155
0.647756
0.64743
0.647126
0.64688
0.646642
0.646451
0.64627
0.646126
0.645976
0.645864
0.645752
0.645667
0.645565
0.6455
0.645441
0.645394
0.645333
0.645298
0.645264
0.645236
0.645182
0.645172
0.645152
0.645149
0.645144
0.645137
0.645113
0.645129
0.645129
0.645145
0.645138
0.645179
0.645179
0.645222
0.645222
0.645338
0.645338
0.645338
0.64539
0.64539
0.645518
0.645647
0.645746
0.645784
0.645783
0.645784
0.645904
0.646113
0.646187
0.646187
0.646321
0.646545
0.646654
0.646795
0.647019
0.64711
0.647304
0.647501
0.647719
0.647987
0.648274
0.648522
0.648867
0.649187
0.649517
0.649971
0.650378
0.650957
0.651507
0.652278
0.653017
0.654082
0.655073
0.656796
0.657999
0.662031
0.66169
0.689543
2.46921
239.772
0.766469
0.709374
0.684592
0.671522
0.663608
0.658424
0.654794
0.652171
0.650174
0.64865
0.647419
0.646448
0.645625
0.64496
0.64439
0.643923
0.643504
0.643161
0.642843
0.642583
0.642333
0.642132
0.641942
0.641789
0.641632
0.641512
0.641395
0.641305
0.641197
0.641128
0.641064
0.641014
0.640949
0.640911
0.640874
0.640844
0.640788
0.640775
0.640754
0.640749
0.640742
0.640733
0.640708
0.640722
0.640722
0.640736
0.640727
0.640767
0.640767
0.640808
0.640808
0.640925
0.640925
0.640925
0.640977
0.640977
0.641105
0.641236
0.641336
0.641376
0.641376
0.641376
0.641496
0.641707
0.641787
0.641787
0.64192
0.642145
0.642262
0.642403
0.642628
0.642725
0.642921
0.64312
0.643341
0.64361
0.643901
0.644155
0.644502
0.644829
0.645162
0.645622
0.646033
0.646619
0.647171
0.647951
0.648689
0.649766
0.65075
0.652488
0.653681
0.657727
0.657318
0.685826
2.5477
233.775
0.76599
0.707591
0.681972
0.668384
0.66013
0.654714
0.650917
0.648169
0.646076
0.644477
0.643187
0.642168
0.641305
0.640606
0.640007
0.639516
0.639076
0.638715
0.638381
0.638107
0.637844
0.637632
0.637432
0.637271
0.637106
0.636979
0.636854
0.636759
0.636646
0.636572
0.636503
0.636449
0.636381
0.63634
0.636299
0.636267
0.636208
0.636193
0.63617
0.636163
0.636154
0.636145
0.636117
0.636129
0.636128
0.63614
0.63613
0.636168
0.636168
0.636208
0.636208
0.636325
0.636325
0.636325
0.636377
0.636378
0.636505
0.636638
0.636739
0.636782
0.636782
0.636782
0.6369
0.637114
0.637199
0.637199
0.637332
0.637558
0.637683
0.637823
0.63805
0.638153
0.63835
0.638552
0.638775
0.639046
0.639341
0.6396
0.639948
0.640283
0.640619
0.641085
0.641499
0.642091
0.642646
0.643433
0.644172
0.64526
0.646236
0.647988
0.64917
0.653227
0.652753
0.681883
2.62275
227.241
0.76551
0.705763
0.679271
0.665139
0.65653
0.650868
0.646893
0.644014
0.641821
0.640143
0.63879
0.637719
0.636814
0.636079
0.635451
0.634934
0.634472
0.634092
0.63374
0.633452
0.633176
0.632953
0.632742
0.632572
0.632397
0.632263
0.632131
0.63203
0.631912
0.631832
0.631758
0.6317
0.631628
0.631584
0.63154
0.631505
0.631444
0.631426
0.6314
0.631391
0.631381
0.63137
0.63134
0.63135
0.631349
0.631359
0.631347
0.631383
0.631383
0.631422
0.631422
0.631538
0.631538
0.631538
0.631591
0.631591
0.631718
0.631853
0.631955
0.632
0.632
0.632001
0.632117
0.632333
0.632424
0.632424
0.632556
0.632783
0.632916
0.633056
0.633284
0.633393
0.633592
0.633797
0.634021
0.634294
0.634592
0.634856
0.635205
0.635549
0.635887
0.636359
0.636776
0.637375
0.637932
0.638726
0.639464
0.640563
0.64153
0.643295
0.644466
0.648531
0.647993
0.677705
2.69275
220.221
0.765028
0.703894
0.676492
0.661791
0.652807
0.646887
0.642726
0.639709
0.637409
0.635649
0.634228
0.633104
0.632154
0.631382
0.630721
0.630178
0.629692
0.629291
0.628922
0.628619
0.628329
0.628093
0.627871
0.627691
0.627508
0.627365
0.627226
0.627118
0.626994
0.626909
0.626829
0.626767
0.626691
0.626643
0.626595
0.626558
0.626494
0.626473
0.626445
0.626434
0.626422
0.626409
0.626377
0.626386
0.626384
0.626391
0.626377
0.626412
0.626411
0.626448
0.626448
0.626565
0.626565
0.626565
0.626617
0.626618
0.626744
0.626881
0.626984
0.627031
0.627031
0.627032
0.627147
0.627364
0.627461
0.627461
0.627593
0.62782
0.627961
0.628102
0.628329
0.628446
0.628645
0.628853
0.629079
0.629354
0.629655
0.629924
0.630274
0.630625
0.630966
0.631443
0.631864
0.632468
0.633027
0.633828
0.634565
0.635674
0.636633
0.638409
0.639567
0.643636
0.643038
0.67328
2.75597
212.768
0.764548
0.701986
0.673638
0.658342
0.648965
0.642774
0.638418
0.635254
0.632843
0.630995
0.629504
0.628323
0.627325
0.626514
0.62582
0.625248
0.624737
0.624315
0.623927
0.623607
0.623303
0.623054
0.622819
0.622629
0.622437
0.622286
0.622138
0.622024
0.621894
0.621802
0.621717
0.62165
0.62157
0.621518
0.621466
0.621427
0.62136
0.621336
0.621305
0.621291
0.621277
0.621263
0.621229
0.621236
0.621233
0.621238
0.621222
0.621254
0.621254
0.621289
0.621288
0.621405
0.621405
0.621405
0.621457
0.621457
0.621583
0.621721
0.621825
0.621875
0.621875
0.621876
0.621989
0.622207
0.622311
0.622311
0.622442
0.622669
0.622818
0.62296
0.623187
0.62331
0.62351
0.623721
0.623949
0.624225
0.624529
0.624804
0.625154
0.625513
0.625856
0.626338
0.626762
0.627372
0.627931
0.62874
0.629474
0.630592
0.631542
0.633327
0.634473
0.638543
0.637888
0.6686
2.81061
204.936
0.764071
0.700043
0.670713
0.654794
0.645007
0.638531
0.633969
0.630652
0.628123
0.626183
0.624618
0.623377
0.62233
0.621477
0.620747
0.620145
0.619608
0.619164
0.618756
0.618419
0.618099
0.617836
0.617589
0.617388
0.617185
0.617026
0.61687
0.616748
0.616611
0.616513
0.616422
0.616351
0.616266
0.61621
0.616154
0.616111
0.616042
0.616014
0.61598
0.615964
0.615948
0.615932
0.615896
0.615901
0.615898
0.615899
0.615881
0.615911
0.61591
0.615943
0.615943
0.616058
0.616059
0.616059
0.61611
0.616111
0.616235
0.616376
0.61648
0.616533
0.616533
0.616533
0.616645
0.616864
0.616974
0.616974
0.617104
0.617331
0.617488
0.61763
0.617858
0.617986
0.618188
0.618401
0.618632
0.618908
0.619214
0.619495
0.619846
0.620211
0.620557
0.621044
0.62147
0.622086
0.622645
0.62346
0.624192
0.625318
0.626258
0.628051
0.629183
0.63325
0.632542
0.663656
2.85489
196.779
0.763599
0.698069
0.66772
0.651153
0.640935
0.634161
0.629382
0.625905
0.623251
0.621214
0.619572
0.618267
0.617168
0.616272
0.615504
0.614871
0.614306
0.613839
0.613409
0.613054
0.612718
0.612441
0.61218
0.611968
0.611755
0.611586
0.611421
0.611291
0.611148
0.611043
0.610946
0.610869
0.610779
0.610719
0.610658
0.610613
0.61054
0.610509
0.610472
0.610453
0.610434
0.610418
0.610379
0.610382
0.610378
0.610376
0.610355
0.610383
0.610382
0.610413
0.610412
0.610527
0.610527
0.610527
0.610578
0.610578
0.610702
0.610844
0.610949
0.611004
0.611004
0.611004
0.611114
0.611334
0.61145
0.611451
0.61158
0.611807
0.611971
0.612114
0.612341
0.612475
0.612678
0.612894
0.613126
0.613404
0.613712
0.613998
0.614349
0.614721
0.615069
0.615561
0.615988
0.616609
0.617168
0.617989
0.618718
0.619852
0.620781
0.62258
0.623698
0.627758
0.627001
0.658437
2.88702
188.345
0.763132
0.696066
0.664663
0.64742
0.636753
0.629666
0.62466
0.621014
0.618231
0.616092
0.614367
0.612997
0.611843
0.6109
0.610093
0.609427
0.608833
0.608341
0.607889
0.607515
0.607161
0.606869
0.606595