/*--------------------------------*- C++ -*----------------------------------*\
| =========                 |                                                 |
| \\      /  F ield         | OpenFOAM: The Open Source CFD Toolbox           |
|  \\    /   O peration     | Version:  v2012                                 |
|   \\  /    A nd           | Website:  www.openfoam.com                      |
|    \\/     M anipulation  |                                                 |
\*---------------------------------------------------------------------------*/
FoamFile
{
    version     2.0;
    format      ascii;
    class       volScalarField;
    location    "11";
    object      k;
}
// * * * * * * * * * * * * * * * * * * * * * * * * * * * * * * * * * * * * * //

dimensions      [0 2 -2 0 0 0 0];


internalField   nonuniform List<scalar> 
209825
(
0.00102078
0.000962917
0.000933689
0.000916608
0.000905252
0.000897176
0.000891048
0.000886324
0.000882486
0.000879414
0.000876791
0.000874655
0.000872763
0.000871188
0.000869795
0.000868633
0.000867558
0.000866666
0.000865811
0.000865113
0.000864422
0.000863861
0.000863318
0.000862888
0.000862433
0.000862087
0.000861732
0.000861471
0.000861149
0.000860945
0.000860763
0.000860602
0.000860421
0.000860281
0.000860102
0.00085998
0.00085987
0.000859779
0.000859678
0.0008596
0.000859478
0.000859396
0.000859322
0.000859268
0.000859193
0.000859136
0.000859089
0.000859012
0.00085897
0.000858925
0.000858806
0.000858811
0.000858811
0.000858804
0.000858741
0.000858814
0.000858814
0.000858813
0.000858795
0.000858873
0.000858873
0.000858871
0.000859025
0.000859254
0.000859254
0.000859254
0.000859379
0.000859698
0.00085977
0.00085977
0.00085992
0.000860184
0.000860477
0.000860745
0.000861089
0.000861247
0.000861448
0.000861711
0.000862094
0.000862486
0.000862918
0.000863452
0.000863892
0.00086444
0.000865044
0.000865892
0.000866703
0.000867901
0.000868954
0.000870904
0.000872195
0.000876218
0.000877215
0.000891648
0.00293658
0.00173324
0.00102078
0.00096291
0.000933675
0.000916588
0.000905229
0.00089715
0.00089102
0.000886294
0.000882454
0.000879381
0.000876758
0.000874621
0.000872728
0.000871152
0.000869758
0.000868596
0.00086752
0.000866627
0.000865772
0.000865073
0.000864382
0.000863821
0.000863278
0.000862848
0.000862392
0.000862046
0.000861691
0.00086143
0.000861108
0.000860903
0.000860722
0.00086056
0.000860379
0.000860239
0.00086006
0.000859938
0.000859827
0.000859737
0.000859636
0.000859557
0.000859436
0.000859353
0.000859279
0.000859225
0.00085915
0.000859093
0.000859046
0.000858969
0.000858927
0.000858882
0.000858763
0.000858768
0.000858768
0.000858761
0.000858698
0.000858771
0.000858771
0.00085877
0.000858752
0.00085883
0.00085883
0.000858828
0.000858981
0.000859211
0.000859211
0.00085921
0.000859336
0.000859655
0.000859727
0.000859727
0.000859877
0.000860141
0.000860434
0.000860702
0.000861046
0.000861204
0.000861405
0.000861668
0.000862052
0.000862444
0.000862876
0.00086341
0.00086385
0.000864399
0.000865002
0.00086585
0.000866662
0.00086786
0.000868914
0.000870864
0.000872155
0.000876179
0.000877174
0.000891634
0.00293991
0.00173827
0.00102077
0.000962871
0.000933607
0.000916501
0.000905128
0.000897037
0.000890899
0.000886166
0.000882321
0.000879243
0.000876616
0.000874475
0.000872579
0.000871001
0.000869605
0.000868441
0.000867363
0.000866469
0.000865612
0.000864912
0.000864219
0.000863657
0.000863113
0.000862682
0.000862226
0.000861879
0.000861523
0.000861261
0.000860939
0.000860734
0.000860551
0.000860389
0.000860208
0.000860067
0.000859888
0.000859766
0.000859654
0.000859564
0.000859463
0.000859384
0.000859262
0.000859179
0.000859105
0.000859051
0.000858976
0.000858919
0.000858871
0.000858795
0.000858752
0.000858707
0.000858588
0.000858593
0.000858593
0.000858586
0.000858522
0.000858595
0.000858595
0.000858594
0.000858576
0.000858654
0.000858654
0.000858652
0.000858806
0.000859035
0.000859035
0.000859035
0.00085916
0.000859479
0.000859552
0.000859552
0.000859702
0.000859966
0.000860259
0.000860528
0.000860871
0.00086103
0.000861231
0.000861495
0.000861878
0.000862271
0.000862702
0.000863237
0.000863678
0.000864227
0.000864831
0.00086568
0.000866491
0.00086769
0.000868744
0.000870695
0.000871987
0.000876013
0.000877003
0.000891513
0.0029485
0.00174971
0.00102076
0.000962803
0.000933492
0.000916353
0.000904956
0.000896847
0.000890695
0.000885951
0.000882096
0.000879011
0.000876376
0.00087423
0.00087233
0.000870747
0.000869347
0.000868179
0.000867099
0.000866202
0.000865343
0.000864641
0.000863946
0.000863382
0.000862836
0.000862404
0.000861946
0.000861598
0.000861241
0.000860978
0.000860655
0.000860449
0.000860265
0.000860102
0.00085992
0.000859779
0.000859599
0.000859476
0.000859364
0.000859273
0.000859171
0.000859092
0.00085897
0.000858887
0.000858812
0.000858758
0.000858683
0.000858626
0.000858578
0.000858501
0.000858458
0.000858413
0.000858294
0.000858299
0.000858298
0.000858291
0.000858227
0.0008583
0.0008583
0.000858299
0.000858281
0.000858359
0.000858359
0.000858357
0.00085851
0.00085874
0.00085874
0.00085874
0.000858865
0.000859184
0.000859258
0.000859258
0.000859408
0.000859672
0.000859965
0.000860234
0.000860577
0.000860737
0.000860939
0.000861203
0.000861586
0.000861979
0.000862411
0.000862947
0.000863388
0.000863938
0.000864542
0.000865392
0.000866204
0.000867404
0.000868458
0.000870411
0.000871703
0.000875732
0.000876714
0.000891302
0.00296235
0.00176752
0.00102075
0.000962708
0.00093333
0.000916144
0.000904713
0.000896579
0.000890407
0.000885647
0.000881779
0.000878683
0.000876039
0.000873885
0.000871977
0.000870389
0.000868984
0.000867811
0.000866726
0.000865826
0.000864963
0.000864258
0.000863561
0.000862994
0.000862446
0.000862011
0.000861551
0.000861201
0.000860843
0.000860579
0.000860254
0.000860046
0.000859862
0.000859698
0.000859514
0.000859372
0.000859191
0.000859068
0.000858955
0.000858863
0.000858761
0.000858681
0.000858559
0.000858475
0.0008584
0.000858345
0.000858269
0.000858212
0.000858164
0.000858087
0.000858043
0.000857998
0.00085788
0.000857884
0.000857883
0.000857876
0.000857811
0.000857884
0.000857884
0.000857883
0.000857865
0.000857943
0.000857943
0.000857941
0.000858093
0.000858324
0.000858324
0.000858324
0.000858449
0.000858767
0.000858842
0.000858842
0.000858992
0.000859257
0.00085955
0.000859819
0.000860163
0.000860324
0.000860526
0.000860791
0.000861174
0.000861568
0.000862
0.000862536
0.000862979
0.00086353
0.000864135
0.000864986
0.000865798
0.000867001
0.000868054
0.000870009
0.000871301
0.000875334
0.000876305
0.000890998
0.00298174
0.00179178
0.00102074
0.000962585
0.00093312
0.000915873
0.000904399
0.000896232
0.000890034
0.000885253
0.000881368
0.000878258
0.000875602
0.000873438
0.000871521
0.000869925
0.000868512
0.000867334
0.000866243
0.000865338
0.000864471
0.000863762
0.000863061
0.000862491
0.00086194
0.000861503
0.00086104
0.000860688
0.000860327
0.000860061
0.000859734
0.000859525
0.000859338
0.000859173
0.000858988
0.000858845
0.000858663
0.000858539
0.000858425
0.000858332
0.000858229
0.000858149
0.000858025
0.000857941
0.000857865
0.00085781
0.000857734
0.000857676
0.000857627
0.00085755
0.000857506
0.000857461
0.000857342
0.000857346
0.000857345
0.000857337
0.000857272
0.000857345
0.000857344
0.000857343
0.000857325
0.000857403
0.000857403
0.000857401
0.000857553
0.000857784
0.000857784
0.000857784
0.000857909
0.000858227
0.000858304
0.000858304
0.000858454
0.000858718
0.000859012
0.000859281
0.000859626
0.000859789
0.000859992
0.000860256
0.00086064
0.000861034
0.000861467
0.000862005
0.000862449
0.000863002
0.000863606
0.000864459
0.000865272
0.000866477
0.00086753
0.000869488
0.00087078
0.000874817
0.000875775
0.000890602
0.00300699
0.00182255
0.00102072
0.000962433
0.000932862
0.00091554
0.000904012
0.000895804
0.000889575
0.000884769
0.000880862
0.000877734
0.000875064
0.000872886
0.000870959
0.000869353
0.000867932
0.000866746
0.000865648
0.000864737
0.000863865
0.000863151
0.000862445
0.000861872
0.000861316
0.000860876
0.00086041
0.000860055
0.000859691
0.000859423
0.000859094
0.000858882
0.000858694
0.000858527
0.00085834
0.000858196
0.000858012
0.000857886
0.000857771
0.000857677
0.000857573
0.000857492
0.000857368
0.000857283
0.000857206
0.00085715
0.000857073
0.000857015
0.000856966
0.000856888
0.000856844
0.000856798
0.00085668
0.000856683
0.000856682
0.000856673
0.000856607
0.00085668
0.000856679
0.000856678
0.00085666
0.000856738
0.000856738
0.000856735
0.000856887
0.000857119
0.000857119
0.000857119
0.000857244
0.000857561
0.00085764
0.00085764
0.00085779
0.000858055
0.000858348
0.000858618
0.000858963
0.000859128
0.000859332
0.000859597
0.000859981
0.000860377
0.00086081
0.000861349
0.000861795
0.000862349
0.000862955
0.00086381
0.000864622
0.00086583
0.000866883
0.000868845
0.000870137
0.000874179
0.00087512
0.000890112
0.00303842
0.00185983
0.0010207
0.000962254
0.000932556
0.000915144
0.000903551
0.000895296
0.000889028
0.000884191
0.00088026
0.000877111
0.000874422
0.00087223
0.000870289
0.000868671
0.00086724
0.000866045
0.000864939
0.000864021
0.000863142
0.000862422
0.000861711
0.000861133
0.000860573
0.000860129
0.000859659
0.000859301
0.000858934
0.000858662
0.000858331
0.000858116
0.000857925
0.000857756
0.000857568
0.000857421
0.000857236
0.000857109
0.000856992
0.000856897
0.000856791
0.000856709
0.000856584
0.000856498
0.00085642
0.000856363
0.000856286
0.000856227
0.000856177
0.000856099
0.000856054
0.000856009
0.000855891
0.000855892
0.000855891
0.000855882
0.000855815
0.000855887
0.000855887
0.000855886
0.000855867
0.000855945
0.000855944
0.000855942
0.000856094
0.000856326
0.000856326
0.000856326
0.00085645
0.000856768
0.000856849
0.000856849
0.000856999
0.000857264
0.000857558
0.000857828
0.000858174
0.000858341
0.000858546
0.000858812
0.000859195
0.000859592
0.000860026
0.000860566
0.000861014
0.000861571
0.000862177
0.000863034
0.000863848
0.000865059
0.000866111
0.000868077
0.000869369
0.000873417
0.000874338
0.000889527
0.00307634
0.00190359
0.00102067
0.000962046
0.0009322
0.000914685
0.000903017
0.000894705
0.000888392
0.00088352
0.000879559
0.000876386
0.000873676
0.000871466
0.00086951
0.000867879
0.000866435
0.00086523
0.000864115
0.000863188
0.000862302
0.000861575
0.000860858
0.000860274
0.000859708
0.000859259
0.000858785
0.000858423
0.000858052
0.000857777
0.000857443
0.000857225
0.000857031
0.00085686
0.000856669
0.00085652
0.000856333
0.000856204
0.000856085
0.000855989
0.000855881
0.000855798
0.000855672
0.000855585
0.000855506
0.000855448
0.00085537
0.00085531
0.000855259
0.000855181
0.000855135
0.000855089
0.000854972
0.000854972
0.000854971
0.000854961
0.000854893
0.000854964
0.000854964
0.000854963
0.000854944
0.000855021
0.000855021
0.000855018
0.00085517
0.000855403
0.000855403
0.000855403
0.000855527
0.000855844
0.000855927
0.000855927
0.000856077
0.000856342
0.000856637
0.000856907
0.000857254
0.000857424
0.00085763
0.000857897
0.00085828
0.000858679
0.000859113
0.000859655
0.000860105
0.000860665
0.000861272
0.000862131
0.000862945
0.00086416
0.000865211
0.000867182
0.000868474
0.000872529
0.000873426
0.000888844
0.0031211
0.00195376
0.00102064
0.000961811
0.000931796
0.000914162
0.000902407
0.00089403
0.000887667
0.000882754
0.000878759
0.000875558
0.000872824
0.000870594
0.00086862
0.000866973
0.000865516
0.000864298
0.000863172
0.000862236
0.000861341
0.000860606
0.000859882
0.000859291
0.00085872
0.000858265
0.000857787
0.000857419
0.000857044
0.000856766
0.000856427
0.000856206
0.000856009
0.000855834
0.000855641
0.00085549
0.000855301
0.000855169
0.000855049
0.00085495
0.000854841
0.000854757
0.000854629
0.000854541
0.00085446
0.000854401
0.000854322
0.000854261
0.00085421
0.000854131
0.000854084
0.000854038
0.000853921
0.000853921
0.000853918
0.000853907
0.000853839
0.000853908
0.000853908
0.000853907
0.000853888
0.000853965
0.000853965
0.000853962
0.000854113
0.000854348
0.000854348
0.000854348
0.000854471
0.000854787
0.000854874
0.000854874
0.000855024
0.000855289
0.000855584
0.000855854
0.000856202
0.000856375
0.000856583
0.00085685
0.000857234
0.000857634
0.000858069
0.000858613
0.000859065
0.000859628
0.000860235
0.000861098
0.000861912
0.000863132
0.000864181
0.000866157
0.000867449
0.000871513
0.000872383
0.000888062
0.00317301
0.00201023
0.00102061
0.000961548
0.000931343
0.000913574
0.000901722
0.000893272
0.000886851
0.000881892
0.000877859
0.000874625
0.000871865
0.000869611
0.000867617
0.000865953
0.00086448
0.000863248
0.00086211
0.000861163
0.000860258
0.000859514
0.000858782
0.000858184
0.000857606
0.000857145
0.000856661
0.000856288
0.000855908
0.000855625
0.000855283
0.000855058
0.000854856
0.000854679
0.000854482
0.000854329
0.000854137
0.000854003
0.00085388
0.000853779
0.000853668
0.000853582
0.000853453
0.000853363
0.000853281
0.000853221
0.000853141
0.000853079
0.000853026
0.000852947
0.000852899
0.000852853
0.000852737
0.000852735
0.000852731
0.000852719
0.00085265
0.000852718
0.000852719
0.000852717
0.000852698
0.000852775
0.000852774
0.000852772
0.000852921
0.000853157
0.000853157
0.000853157
0.000853279
0.000853596
0.000853685
0.000853685
0.000853835
0.0008541
0.000854396
0.000854667
0.000855016
0.000855192
0.000855402
0.00085567
0.000856053
0.000856456
0.000856891
0.000857437
0.000857892
0.000858459
0.000859066
0.000859932
0.000860747
0.000861971
0.000863019
0.000865001
0.000866292
0.000870364
0.000871204
0.000887179
0.00323238
0.00207289
0.00102058
0.000961257
0.00093084
0.000912921
0.000900961
0.000892428
0.000885943
0.000880932
0.000876856
0.000873587
0.000870796
0.000868516
0.0008665
0.000864816
0.000863326
0.000862079
0.000860927
0.000859967
0.000859051
0.000858298
0.000857556
0.00085695
0.000856364
0.000855897
0.000855406
0.000855028
0.000854642
0.000854354
0.000854007
0.000853777
0.000853571
0.00085339
0.00085319
0.000853034
0.000852839
0.000852703
0.000852577
0.000852474
0.000852361
0.000852273
0.000852142
0.000852051
0.000851966
0.000851905
0.000851824
0.00085176
0.000851707
0.000851627
0.000851578
0.000851531
0.000851416
0.000851412
0.000851408
0.000851395
0.000851324
0.000851392
0.000851392
0.000851391
0.000851371
0.000851447
0.000851446
0.000851444
0.000851592
0.00085183
0.00085183
0.00085183
0.000851951
0.000852267
0.00085236
0.00085236
0.00085251
0.000852775
0.000853071
0.000853343
0.000853693
0.000853873
0.000854084
0.000854353
0.000854737
0.000855141
0.000855576
0.000856126
0.000856583
0.000857153
0.000857762
0.000858631
0.000859446
0.000860676
0.000861722
0.00086371
0.000865
0.000869082
0.000869889
0.000886192
0.0032995
0.00214159
0.00102055
0.000960939
0.000930288
0.000912203
0.000900122
0.000891499
0.000884942
0.000879873
0.00087575
0.000872442
0.000869617
0.000867309
0.000865267
0.000863562
0.000862052
0.000860788
0.00085962
0.000858647
0.000857719
0.000856954
0.000856203
0.000855588
0.000854993
0.000854518
0.00085402
0.000853635
0.000853243
0.00085295
0.000852598
0.000852363
0.000852152
0.000851968
0.000851763
0.000851604
0.000851406
0.000851266
0.000851137
0.000851032
0.000850916
0.000850826
0.000850694
0.0008506
0.000850514
0.000850452
0.000850368
0.000850304
0.00085025
0.000850169
0.000850118
0.000850071
0.000849956
0.000849951
0.000849946
0.000849932
0.000849859
0.000849926
0.000849926
0.000849925
0.000849904
0.00084998
0.000849979
0.000849977
0.000850124
0.000850363
0.000850363
0.000850363
0.000850484
0.000850798
0.000850896
0.000850895
0.000851045
0.000851311
0.000851607
0.000851879
0.00085223
0.000852415
0.000852628
0.000852898
0.000853281
0.000853688
0.000854124
0.000854676
0.000855136
0.00085571
0.000856319
0.000857193
0.000858008
0.000859243
0.000860288
0.000862281
0.000863571
0.000867663
0.000868433
0.0008851
0.00337462
0.00221618
0.00102051
0.000960594
0.000929687
0.000911419
0.000899206
0.000890483
0.000883847
0.000878715
0.00087454
0.000871188
0.000868327
0.000865986
0.000863917
0.000862188
0.000860656
0.000859374
0.000858189
0.000857201
0.000856259
0.000855482
0.00085472
0.000854095
0.000853491
0.000853007
0.000852501
0.000852109
0.00085171
0.000851411
0.000851053
0.000850813
0.000850597
0.000850408
0.000850199
0.000850036
0.000849835
0.000849692
0.000849559
0.000849451
0.000849333
0.000849241
0.000849106
0.000849011
0.000848922
0.000848858
0.000848773
0.000848707
0.000848651
0.00084857
0.000848518
0.000848471
0.000848356
0.000848349
0.000848343
0.000848328
0.000848253
0.000848319
0.000848319
0.000848318
0.000848296
0.000848371
0.000848371
0.000848368
0.000848514
0.000848754
0.000848755
0.000848755
0.000848874
0.000849188
0.00084929
0.000849289
0.000849439
0.000849705
0.000850002
0.000850274
0.000850627
0.000850815
0.00085103
0.000851302
0.000851685
0.000852094
0.00085253
0.000853085
0.000853548
0.000854127
0.000854736
0.000855614
0.00085643
0.00085767
0.000858713
0.000860713
0.000862002
0.000866105
0.000866835
0.000883898
0.00345794
0.00229653
0.00102047
0.000960222
0.000929037
0.00091057
0.000898212
0.000889379
0.000882658
0.000877457
0.000873225
0.000869825
0.000866923
0.000864548
0.000862448
0.000860693
0.000859138
0.000857835
0.000856632
0.000855627
0.00085467
0.00085388
0.000853105
0.000852469
0.000851855
0.000851362
0.000850847
0.000850448
0.000850041
0.000849735
0.000849372
0.000849125
0.000848903
0.000848709
0.000848496
0.000848329
0.000848124
0.000847977
0.000847841
0.00084773
0.000847608
0.000847514
0.000847377
0.000847279
0.000847188
0.000847122
0.000847036
0.000846968
0.000846911
0.000846829
0.000846775
0.000846727
0.000846612
0.000846604
0.000846597
0.00084658
0.000846504
0.000846568
0.000846568
0.000846567
0.000846545
0.000846619
0.000846619
0.000846616
0.000846761
0.000847002
0.000847002
0.000847002
0.000847121
0.000847434
0.00084754
0.000847539
0.000847689
0.000847955
0.000848253
0.000848526
0.000848879
0.000849072
0.000849289
0.000849562
0.000849945
0.000850357
0.000850793
0.000851351
0.000851818
0.000852401
0.000853011
0.000853893
0.000854709
0.000855955
0.000856997
0.000859003
0.00086029
0.000864405
0.000865091
0.000882583
0.00354961
0.00238249
0.00102043
0.000959824
0.000928337
0.000909655
0.00089714
0.000888188
0.000881373
0.000876097
0.000871803
0.000868351
0.000865405
0.000862992
0.00086086
0.000859075
0.000857495
0.000856169
0.000854946
0.000853924
0.000852951
0.000852146
0.000851358
0.00085071
0.000850084
0.000849581
0.000849057
0.000848649
0.000848234
0.000847921
0.000847551
0.000847297
0.000847069
0.00084687
0.000846652
0.000846481
0.000846271
0.00084612
0.00084598
0.000845866
0.00084574
0.000845644
0.000845504
0.000845404
0.000845311
0.000845243
0.000845154
0.000845085
0.000845026
0.000844943
0.000844887
0.000844839
0.000844724
0.000844714
0.000844706
0.000844688
0.00084461
0.000844672
0.000844672
0.000844671
0.000844648
0.000844721
0.000844721
0.000844718
0.000844861
0.000845103
0.000845104
0.000845104
0.000845222
0.000845533
0.000845644
0.000845644
0.000845794
0.00084606
0.000846358
0.000846631
0.000846985
0.000847183
0.000847403
0.000847678
0.00084806
0.000848474
0.000848911
0.000849472
0.000849942
0.000850531
0.000851141
0.000852027
0.000852843
0.000854096
0.000855135
0.000857147
0.000858433
0.000862559
0.000863199
0.000881153
0.00364971
0.00247393
0.00102039
0.0009594
0.00092759
0.000908675
0.00089599
0.000886909
0.000879993
0.000874635
0.000870273
0.000866766
0.000863771
0.000861317
0.00085915
0.000857334
0.000855726
0.000854376
0.000853131
0.000852089
0.000851098
0.000850278
0.000849476
0.000848815
0.000848176
0.000847663
0.000847129
0.000846711
0.000846288
0.000845967
0.000845589
0.000845328
0.000845093
0.000844889
0.000844665
0.000844489
0.000844275
0.000844119
0.000843975
0.000843857
0.000843728
0.000843628
0.000843486
0.000843383
0.000843287
0.000843217
0.000843126
0.000843055
0.000842994
0.00084291
0.000842852
0.000842803
0.000842689
0.000842677
0.000842667
0.000842648
0.000842568
0.000842628
0.000842628
0.000842627
0.000842603
0.000842675
0.000842675
0.000842672
0.000842813
0.000843057
0.000843058
0.000843058
0.000843175
0.000843484
0.0008436
0.0008436
0.00084375
0.000844016
0.000844314
0.000844588
0.000844944
0.000845147
0.000845369
0.000845645
0.000846027
0.000846444
0.000846881
0.000847445
0.000847919
0.000848513
0.000849123
0.000850014
0.00085083
0.000852089
0.000853125
0.000855145
0.000856428
0.000860566
0.000861157
0.000879603
0.00375821
0.00257075
0.00102035
0.00095895
0.000926794
0.000907629
0.000894761
0.000885541
0.000878516
0.00087307
0.000868636
0.000865067
0.000862021
0.000859523
0.000857317
0.000855468
0.00085383
0.000852454
0.000851185
0.000850123
0.000849113
0.000848276
0.000847457
0.000846782
0.000846131
0.000845605
0.00084506
0.000844633
0.000844199
0.00084387
0.000843485
0.000843216
0.000842974
0.000842763
0.000842533
0.000842352
0.000842133
0.000841973
0.000841823
0.000841702
0.000841568
0.000841466
0.00084132
0.000841215
0.000841116
0.000841043
0.00084095
0.000840877
0.000840814
0.000840729
0.000840669
0.000840619
0.000840504
0.00084049
0.00084048
0.000840458
0.000840376
0.000840435
0.000840435
0.000840433
0.000840408
0.000840479
0.000840479
0.000840476
0.000840616
0.00084086
0.000840862
0.000840862
0.000840978
0.000841285
0.000841407
0.000841406
0.000841556
0.000841822
0.000842121
0.000842396
0.000842752
0.00084296
0.000843185
0.000843463
0.000843845
0.000844264
0.000844702
0.000845269
0.000845746
0.000846345
0.000846956
0.000847852
0.000848667
0.000849933
0.000850966
0.000852992
0.000854273
0.000858423
0.000858963
0.000877928
0.00387496
0.00267285
0.0010203
0.000958477
0.00092595
0.000906517
0.000893453
0.000884085
0.000876942
0.000871402
0.000866889
0.000863256
0.000860154
0.000857608
0.000855361
0.000853476
0.000851805
0.000850401
0.000849107
0.000848022
0.000846991
0.000846136
0.000845301
0.000844611
0.000843945
0.000843407
0.00084285
0.000842412
0.000841968
0.00084163
0.000841236
0.000840959
0.000840708
0.000840491
0.000840254
0.000840068
0.000839843
0.000839678
0.000839523
0.000839398
0.00083926
0.000839154
0.000839006
0.000838897
0.000838794
0.000838719
0.000838624
0.000838548
0.000838483
0.000838397
0.000838334
0.000838284
0.000838169
0.000838153
0.000838141
0.000838118
0.000838034
0.00083809
0.00083809
0.000838088
0.000838062
0.000838132
0.000838132
0.000838128
0.000838266
0.000838512
0.000838513
0.000838513
0.000838628
0.000838933
0.000839061
0.00083906
0.00083921
0.000839476
0.000839775
0.00084005
0.000840407
0.000840621
0.000840849
0.000841128
0.00084151
0.000841932
0.00084237
0.00084294
0.000843421
0.000844026
0.000844637
0.000845538
0.000846352
0.000847625
0.000848655
0.000850687
0.000851965
0.000856127
0.000856613
0.000876125
0.00399967
0.00278013
0.00102026
0.000957979
0.000925059
0.00090534
0.000892066
0.000882539
0.00087527
0.000869629
0.000865033
0.000861329
0.000858168
0.000855572
0.00085328
0.000851356
0.000849651
0.000848217
0.000846895
0.000845786
0.000844733
0.000843859
0.000843005
0.000842299
0.000841618
0.000841066
0.000840497
0.000840047
0.000839592
0.000839244
0.000838841
0.000838555
0.000838295
0.000838071
0.000837828
0.000837635
0.000837405
0.000837234
0.000837074
0.000836944
0.000836802
0.000836692
0.00083654
0.000836428
0.000836322
0.000836243
0.000836145
0.000836068
0.000836
0.000835913
0.000835847
0.000835796
0.000835681
0.000835662
0.000835649
0.000835624
0.000835538
0.000835592
0.000835592
0.00083559
0.000835562
0.00083563
0.00083563
0.000835626
0.000835762
0.000836009
0.000836011
0.000836011
0.000836124
0.000836428
0.00083656
0.00083656
0.00083671
0.000836975
0.000837275
0.000837551
0.000837909
0.000838128
0.000838358
0.00083864
0.000839021
0.000839445
0.000839884
0.000840458
0.000840941
0.000841552
0.000842164
0.000843069
0.000843883
0.000845163
0.00084619
0.000848227
0.000849502
0.000853676
0.000854105
0.000874187
0.0041319
0.00289253
0.00102022
0.000957458
0.000924121
0.000904099
0.000890601
0.000880904
0.000873501
0.000867752
0.000863066
0.000859288
0.000856064
0.000853412
0.000851073
0.000849108
0.000847366
0.000845899
0.000844548
0.000843414
0.000842338
0.000841442
0.000840569
0.000839845
0.000839148
0.000838582
0.000837998
0.000837536
0.000837069
0.000836711
0.000836298
0.000836003
0.000835734
0.000835502
0.000835251
0.000835052
0.000834816
0.000834639
0.000834473
0.000834338
0.000834191
0.000834077
0.000833921
0.000833806
0.000833696
0.000833614
0.000833513
0.000833433
0.000833363
0.000833274
0.000833206
0.000833154
0.000833038
0.000833017
0.000833002
0.000832976
0.000832887
0.000832938
0.000832938
0.000832936
0.000832907
0.000832973
0.000832974
0.000832969
0.000833102
0.00083335
0.000833353
0.000833353
0.000833464
0.000833765
0.000833904
0.000833904
0.000834053
0.000834319
0.000834619
0.000834895
0.000835253
0.000835479
0.000835712
0.000835995
0.000836375
0.000836803
0.000837241
0.000837819
0.000838306
0.000838923
0.000839534
0.000840445
0.000841257
0.000842544
0.000843567
0.000845609
0.000846881
0.000851066
0.000851436
0.00087211
0.004271
0.00300996
0.00102018
0.000956914
0.000923138
0.000902793
0.000889058
0.00087918
0.000871634
0.00086577
0.000860989
0.000857132
0.000853839
0.00085113
0.00084874
0.000846731
0.000844949
0.000843448
0.000842066
0.000840904
0.000839803
0.000838884
0.000837991
0.000837249
0.000836534
0.000835952
0.000835354
0.000834879
0.000834399
0.00083403
0.000833607
0.000833301
0.000833022
0.000832782
0.000832523
0.000832317
0.000832074
0.000831892
0.000831719
0.000831579
0.000831426
0.000831308
0.000831148
0.000831029
0.000830915
0.00083083
0.000830726
0.000830643
0.00083057
0.00083048
0.000830409
0.000830356
0.000830239
0.000830215
0.000830198
0.000830171
0.00083008
0.000830128
0.000830127
0.000830125
0.000830095
0.000830159
0.000830159
0.000830154
0.000830285
0.000830533
0.000830537
0.000830537
0.000830647
0.000830945
0.00083109
0.00083109
0.000831239
0.000831504
0.000831804
0.000832081
0.00083244
0.000832671
0.000832907
0.000833193
0.000833572
0.000834002
0.000834441
0.000835021
0.000835512
0.000836135
0.000836746
0.000837662
0.000838472
0.000839767
0.000840785
0.000842832
0.0008441
0.000848295
0.000848606
0.000869887
0.00441611
0.00313233
0.00102014
0.000956349
0.000922109
0.000901423
0.000887436
0.000877367
0.000869669
0.000863683
0.000858801
0.000854859
0.000851494
0.000848723
0.00084628
0.000844224
0.0008424
0.000840862
0.000839447
0.000838255
0.000837127
0.000836185
0.00083527
0.000834508
0.000833775
0.000833176
0.000832563
0.000832073
0.00083158
0.000831199
0.000830765
0.000830448
0.000830159
0.00082991
0.000829642
0.000829429
0.000829179
0.00082899
0.00082881
0.000828665
0.000828506
0.000828384
0.00082822
0.000828096
0.000827977
0.00082789
0.000827782
0.000827696
0.00082762
0.000827528
0.000827454
0.000827399
0.000827282
0.000827255
0.000827236
0.000827207
0.000827114
0.000827159
0.000827158
0.000827156
0.000827124
0.000827186
0.000827186
0.000827181
0.000827308
0.000827557
0.000827561
0.000827561
0.00082767
0.000827965
0.000828116
0.000828116
0.000828265
0.000828529
0.00082883
0.000829107
0.000829466
0.000829703
0.000829942
0.000830231
0.000830609
0.000831042
0.00083148
0.000832064
0.000832557
0.000833187
0.000833798
0.000834718
0.000835527
0.000836828
0.000837842
0.000839893
0.000841156
0.00084536
0.00084561
0.000867511
0.00456615
0.00325953
0.0010201
0.000955764
0.000921037
0.000899991
0.000885738
0.000875465
0.000867607
0.000861491
0.000856501
0.00085247
0.000849029
0.000846192
0.000843691
0.000841586
0.000839717
0.00083814
0.00083669
0.000835467
0.000834311
0.000833344
0.000832405
0.000831622
0.000830869
0.000830253
0.000829623
0.000829119
0.000828611
0.000828217
0.000827771
0.000827442
0.000827142
0.000826884
0.000826607
0.000826386
0.000826129
0.000825932
0.000825745
0.000825594
0.000825429
0.000825303
0.000825134
0.000825006
0.000824882
0.000824791
0.000824679
0.00082459
0.000824511
0.000824417
0.000824339
0.000824284
0.000824165
0.000824136
0.000824114
0.000824084
0.000823988
0.00082403
0.000824029
0.000824026
0.000823992
0.000824052
0.000824053
0.000824047
0.00082417
0.000824419
0.000824425
0.000824424
0.000824531
0.000824823
0.000824981
0.000824981
0.000825129
0.000825393
0.000825694
0.000825971
0.000826331
0.000826574
0.000826816
0.000827106
0.000827483
0.000827919
0.000828357
0.000828944
0.00082944
0.000830077
0.000830687
0.000831612
0.000832419
0.000833726
0.000834736
0.000836789
0.000838048
0.000842259
0.000842448
0.000864977
0.00471974
0.0033914
0.00102006
0.000955159
0.000919922
0.000898497
0.000883962
0.000873475
0.000865447
0.000859194
0.000854091
0.000849964
0.000846442
0.000843536
0.000840975
0.000838816
0.000836901
0.000835283
0.000833795
0.000832539
0.000831353
0.000830358
0.000829396
0.00082859
0.000827816
0.000827181
0.000826534
0.000826013
0.000825491
0.000825083
0.000824625
0.000824284
0.000823971
0.000823703
0.000823417
0.000823188
0.000822922
0.000822718
0.000822523
0.000822366
0.000822195
0.000822063
0.000821889
0.000821757
0.000821628
0.000821532
0.000821417
0.000821325
0.000821241
0.000821145
0.000821065
0.000821008
0.000820888
0.000820855
0.000820831
0.000820799
0.000820701
0.000820739
0.000820738
0.000820735
0.000820699
0.000820757
0.000820757
0.00082075
0.00082087
0.000821119
0.000821125
0.000821125
0.00082123
0.000821519
0.000821682
0.000821683
0.00082183
0.000822094
0.000822395
0.000822672
0.000823031
0.000823281
0.000823526
0.000823819
0.000824194
0.000824633
0.000825071
0.00082566
0.000826159
0.000826802
0.000827411
0.000828342
0.000829145
0.000830459
0.000831464
0.000833519
0.000834772
0.000838989
0.000839116
0.000862275
0.00487525
0.00352775
0.00102002
0.000954536
0.000918765
0.000896942
0.000882111
0.000871397
0.00086319
0.000856793
0.000851569
0.000847342
0.000843734
0.000840754
0.000838129
0.000835915
0.000833949
0.000832288
0.00083076
0.00082947
0.000828251
0.000827229
0.00082624
0.000825411
0.000824614
0.00082396
0.000823294
0.000822757
0.000822218
0.000821796
0.000821324
0.00082097
0.000820645
0.000820367
0.00082007
0.000819832
0.000819558
0.000819346
0.000819143
0.000818979
0.000818801
0.000818663
0.000818484
0.000818347
0.000818213
0.000818113
0.000817994
0.000817898
0.000817811
0.000817712
0.000817628
0.000817569
0.000817448
0.000817412
0.000817385
0.000817352
0.000817251
0.000817285
0.000817285