/*--------------------------------*- C++ -*----------------------------------*\
| =========                 |                                                 |
| \\      /  F ield         | OpenFOAM: The Open Source CFD Toolbox           |
|  \\    /   O peration     | Version:  v2012                                 |
|   \\  /    A nd           | Website:  www.openfoam.com                      |
|    \\/     M anipulation  |                                                 |
\*---------------------------------------------------------------------------*/
FoamFile
{
    version     2.0;
    format      ascii;
    class       volScalarField;
    location    "11";
    object      nut;
}
// * * * * * * * * * * * * * * * * * * * * * * * * * * * * * * * * * * * * * //

dimensions      [0 2 -1 0 0 0 0];


internalField   nonuniform List<scalar> 
209825
(
1.21139e-07
1.13659e-07
1.09027e-07
1.06101e-07
1.04073e-07
1.02588e-07
1.01439e-07
1.0054e-07
9.98018e-08
9.92053e-08
9.86931e-08
9.8273e-08
9.79005e-08
9.75881e-08
9.73108e-08
9.70784e-08
9.68635e-08
9.66842e-08
9.65128e-08
9.63717e-08
9.62332e-08
9.61193e-08
9.60091e-08
9.59214e-08
9.58296e-08
9.57583e-08
9.56854e-08
9.56316e-08
9.55671e-08
9.55235e-08
9.54849e-08
9.54509e-08
9.54148e-08
9.53839e-08
9.53445e-08
9.53185e-08
9.52975e-08
9.52746e-08
9.52524e-08
9.5233e-08
9.5206e-08
9.51859e-08
9.51696e-08
9.51531e-08
9.51366e-08
9.51186e-08
9.51081e-08
9.50844e-08
9.50749e-08
9.5059e-08
9.50326e-08
9.50201e-08
9.50201e-08
9.50187e-08
9.49992e-08
9.50155e-08
9.49983e-08
9.49861e-08
9.49723e-08
9.4989e-08
9.4989e-08
9.49886e-08
9.50046e-08
9.50345e-08
9.50337e-08
9.50336e-08
9.50419e-08
9.50892e-08
9.51047e-08
9.50834e-08
9.50926e-08
9.51505e-08
9.51909e-08
9.52311e-08
9.52826e-08
9.52859e-08
9.53016e-08
9.5337e-08
9.53806e-08
9.54412e-08
9.54997e-08
9.55702e-08
9.56238e-08
9.56817e-08
9.5751e-08
9.58537e-08
9.59421e-08
9.609e-08
9.61845e-08
9.64257e-08
9.65332e-08
9.69475e-08
9.70542e-08
9.79937e-08
5.75616e-07
1.02479e-09
1.2114e-07
1.1366e-07
1.09028e-07
1.06102e-07
1.04073e-07
1.02588e-07
1.01439e-07
1.0054e-07
9.9801e-08
9.92044e-08
9.8692e-08
9.82716e-08
9.78991e-08
9.75865e-08
9.73091e-08
9.70767e-08
9.68616e-08
9.66822e-08
9.65108e-08
9.63697e-08
9.62311e-08
9.61172e-08
9.60069e-08
9.59191e-08
9.58273e-08
9.57559e-08
9.5683e-08
9.56291e-08
9.55646e-08
9.5521e-08
9.54823e-08
9.54483e-08
9.54122e-08
9.53813e-08
9.53419e-08
9.53159e-08
9.52948e-08
9.5272e-08
9.52497e-08
9.52303e-08
9.52033e-08
9.51832e-08
9.51668e-08
9.51504e-08
9.51338e-08
9.51158e-08
9.51053e-08
9.50816e-08
9.50721e-08
9.50562e-08
9.50298e-08
9.50173e-08
9.50173e-08
9.50158e-08
9.49964e-08
9.50127e-08
9.49955e-08
9.49833e-08
9.49695e-08
9.49861e-08
9.49861e-08
9.49857e-08
9.50017e-08
9.50317e-08
9.50308e-08
9.50307e-08
9.5039e-08
9.50863e-08
9.51018e-08
9.50805e-08
9.50897e-08
9.51476e-08
9.5188e-08
9.52282e-08
9.52797e-08
9.5283e-08
9.52987e-08
9.53341e-08
9.53777e-08
9.54383e-08
9.54968e-08
9.55673e-08
9.5621e-08
9.56789e-08
9.57482e-08
9.58508e-08
9.59392e-08
9.60872e-08
9.61817e-08
9.64228e-08
9.65304e-08
9.69447e-08
9.70513e-08
9.79924e-08
5.76212e-07
1.04337e-09
1.21144e-07
1.13666e-07
1.09033e-07
1.06105e-07
1.04074e-07
1.02588e-07
1.01438e-07
1.00537e-07
9.97979e-08
9.92005e-08
9.86875e-08
9.82666e-08
9.78935e-08
9.75806e-08
9.73027e-08
9.70699e-08
9.68546e-08
9.66749e-08
9.65032e-08
9.63618e-08
9.6223e-08
9.61089e-08
9.59985e-08
9.59105e-08
9.58185e-08
9.5747e-08
9.5674e-08
9.562e-08
9.55553e-08
9.55116e-08
9.54729e-08
9.54388e-08
9.54026e-08
9.53716e-08
9.53321e-08
9.5306e-08
9.52849e-08
9.5262e-08
9.52397e-08
9.52202e-08
9.51931e-08
9.5173e-08
9.51566e-08
9.51401e-08
9.51235e-08
9.51055e-08
9.5095e-08
9.50712e-08
9.50617e-08
9.50457e-08
9.50194e-08
9.50069e-08
9.50068e-08
9.50053e-08
9.49858e-08
9.50021e-08
9.49849e-08
9.49726e-08
9.49588e-08
9.49754e-08
9.49754e-08
9.4975e-08
9.4991e-08
9.50209e-08
9.502e-08
9.502e-08
9.50283e-08
9.50755e-08
9.5091e-08
9.50697e-08
9.50789e-08
9.51367e-08
9.51772e-08
9.52173e-08
9.52689e-08
9.52723e-08
9.5288e-08
9.53233e-08
9.53669e-08
9.54275e-08
9.5486e-08
9.55565e-08
9.56102e-08
9.56681e-08
9.57374e-08
9.58401e-08
9.59284e-08
9.60764e-08
9.61709e-08
9.6412e-08
9.65196e-08
9.69338e-08
9.70401e-08
9.79844e-08
5.77878e-07
1.07168e-09
1.21151e-07
1.13676e-07
1.0904e-07
1.06109e-07
1.04076e-07
1.02588e-07
1.01436e-07
1.00534e-07
9.97928e-08
9.91942e-08
9.86801e-08
9.82583e-08
9.78844e-08
9.75707e-08
9.72922e-08
9.70588e-08
9.68429e-08
9.66628e-08
9.64907e-08
9.63489e-08
9.62097e-08
9.60953e-08
9.59845e-08
9.58963e-08
9.5804e-08
9.57323e-08
9.5659e-08
9.56048e-08
9.554e-08
9.54961e-08
9.54571e-08
9.54229e-08
9.53866e-08
9.53554e-08
9.53158e-08
9.52896e-08
9.52684e-08
9.52454e-08
9.5223e-08
9.52034e-08
9.51763e-08
9.51561e-08
9.51397e-08
9.51231e-08
9.51064e-08
9.50884e-08
9.50778e-08
9.5054e-08
9.50444e-08
9.50285e-08
9.50022e-08
9.49895e-08
9.49894e-08
9.49879e-08
9.49683e-08
9.49845e-08
9.49673e-08
9.4955e-08
9.49411e-08
9.49577e-08
9.49577e-08
9.49573e-08
9.49732e-08
9.50032e-08
9.50022e-08
9.50021e-08
9.50104e-08
9.50575e-08
9.50731e-08
9.50518e-08
9.5061e-08
9.51187e-08
9.51592e-08
9.51993e-08
9.52509e-08
9.52544e-08
9.52701e-08
9.53055e-08
9.53489e-08
9.54096e-08
9.5468e-08
9.55385e-08
9.55923e-08
9.56503e-08
9.57195e-08
9.58222e-08
9.59105e-08
9.60585e-08
9.61529e-08
9.63939e-08
9.65016e-08
9.69155e-08
9.70214e-08
9.79706e-08
5.80583e-07
1.10715e-09
1.21162e-07
1.1369e-07
1.09051e-07
1.06116e-07
1.04079e-07
1.02588e-07
1.01433e-07
1.00529e-07
9.97857e-08
9.91854e-08
9.86698e-08
9.82467e-08
9.78716e-08
9.75569e-08
9.72774e-08
9.70432e-08
9.68266e-08
9.66458e-08
9.64731e-08
9.63307e-08
9.61911e-08
9.60762e-08
9.5965e-08
9.58763e-08
9.57837e-08
9.57117e-08
9.5638e-08
9.55836e-08
9.55185e-08
9.54743e-08
9.54351e-08
9.54006e-08
9.53641e-08
9.53328e-08
9.52931e-08
9.52667e-08
9.52453e-08
9.52222e-08
9.51996e-08
9.518e-08
9.51528e-08
9.51324e-08
9.51159e-08
9.50992e-08
9.50825e-08
9.50644e-08
9.50537e-08
9.50299e-08
9.50202e-08
9.50042e-08
9.49779e-08
9.49651e-08
9.4965e-08
9.49634e-08
9.49437e-08
9.49598e-08
9.49426e-08
9.49302e-08
9.49162e-08
9.49328e-08
9.49328e-08
9.49324e-08
9.49482e-08
9.49782e-08
9.49772e-08
9.49771e-08
9.49853e-08
9.50323e-08
9.5048e-08
9.50268e-08
9.50358e-08
9.50935e-08
9.5134e-08
9.5174e-08
9.52256e-08
9.52294e-08
9.52451e-08
9.52804e-08
9.53238e-08
9.53844e-08
9.54427e-08
9.55133e-08
9.55671e-08
9.56252e-08
9.56943e-08
9.57971e-08
9.58852e-08
9.60333e-08
9.61275e-08
9.63686e-08
9.64763e-08
9.68898e-08
9.69952e-08
9.79511e-08
5.84372e-07
1.14883e-09
1.21175e-07
1.13709e-07
1.09065e-07
1.06125e-07
1.04083e-07
1.02588e-07
1.01429e-07
1.00522e-07
9.97766e-08
9.91741e-08
9.86566e-08
9.82317e-08
9.78551e-08
9.75391e-08
9.72584e-08
9.70232e-08
9.68056e-08
9.66239e-08
9.64504e-08
9.63073e-08
9.6167e-08
9.60515e-08
9.59397e-08
9.58506e-08
9.57575e-08
9.5685e-08
9.5611e-08
9.55562e-08
9.54907e-08
9.54462e-08
9.54067e-08
9.53719e-08
9.53351e-08
9.53035e-08
9.52636e-08
9.5237e-08
9.52155e-08
9.51922e-08
9.51695e-08
9.51497e-08
9.51223e-08
9.51018e-08
9.50852e-08
9.50684e-08
9.50515e-08
9.50334e-08
9.50226e-08
9.49987e-08
9.4989e-08
9.49729e-08
9.49466e-08
9.49337e-08
9.49335e-08
9.49318e-08
9.49119e-08
9.49279e-08
9.49106e-08
9.48982e-08
9.48841e-08
9.49006e-08
9.49006e-08
9.49002e-08
9.49159e-08
9.49459e-08
9.49448e-08
9.49447e-08
9.49529e-08
9.49996e-08
9.50156e-08
9.49944e-08
9.50032e-08
9.50608e-08
9.51014e-08
9.51413e-08
9.5193e-08
9.5197e-08
9.52127e-08
9.52479e-08
9.52912e-08
9.53518e-08
9.54101e-08
9.54807e-08
9.55346e-08
9.55928e-08
9.56618e-08
9.57646e-08
9.58526e-08
9.60008e-08
9.60948e-08
9.63357e-08
9.64436e-08
9.68565e-08
9.69613e-08
9.79256e-08
5.89291e-07
1.19638e-09
1.2119e-07
1.13731e-07
1.09082e-07
1.06136e-07
1.04088e-07
1.02588e-07
1.01425e-07
1.00514e-07
9.97656e-08
9.91603e-08
9.86403e-08
9.82134e-08
9.7835e-08
9.75173e-08
9.72351e-08
9.69985e-08
9.67797e-08
9.6597e-08
9.64225e-08
9.62785e-08
9.61374e-08
9.60212e-08
9.59087e-08
9.58189e-08
9.57252e-08
9.56522e-08
9.55777e-08
9.55224e-08
9.54565e-08
9.54116e-08
9.53716e-08
9.53366e-08
9.52994e-08
9.52676e-08
9.52274e-08
9.52005e-08
9.51787e-08
9.51553e-08
9.51323e-08
9.51124e-08
9.50848e-08
9.50642e-08
9.50473e-08
9.50305e-08
9.50135e-08
9.49952e-08
9.49843e-08
9.49604e-08
9.49505e-08
9.49343e-08
9.49081e-08
9.48949e-08
9.48947e-08
9.48928e-08
9.48727e-08
9.48887e-08
9.48714e-08
9.48588e-08
9.48446e-08
9.4861e-08
9.4861e-08
9.48605e-08
9.48762e-08
9.49062e-08
9.49049e-08
9.49049e-08
9.4913e-08
9.49595e-08
9.49757e-08
9.49545e-08
9.49632e-08
9.50206e-08
9.50612e-08
9.5101e-08
9.51528e-08
9.51572e-08
9.51728e-08
9.5208e-08
9.52511e-08
9.53116e-08
9.53698e-08
9.54405e-08
9.54945e-08
9.55529e-08
9.56217e-08
9.57245e-08
9.58123e-08
9.59606e-08
9.60544e-08
9.62952e-08
9.64032e-08
9.68154e-08
9.69195e-08
9.78942e-08
5.9539e-07
1.24979e-09
1.21209e-07
1.13758e-07
1.09103e-07
1.06149e-07
1.04094e-07
1.02588e-07
1.0142e-07
1.00505e-07
9.97525e-08
9.91439e-08
9.86211e-08
9.81917e-08
9.7811e-08
9.74913e-08
9.72074e-08
9.69692e-08
9.67489e-08
9.65649e-08
9.63893e-08
9.62443e-08
9.61021e-08
9.5985e-08
9.58717e-08
9.57812e-08
9.56868e-08
9.56132e-08
9.5538e-08
9.54822e-08
9.54158e-08
9.53704e-08
9.53299e-08
9.52944e-08
9.52568e-08
9.52247e-08
9.51842e-08
9.5157e-08
9.5135e-08
9.51113e-08
9.5088e-08
9.50679e-08
9.50401e-08
9.50193e-08
9.50023e-08
9.49853e-08
9.49681e-08
9.49497e-08
9.49387e-08
9.49146e-08
9.49046e-08
9.48884e-08
9.48622e-08
9.48487e-08
9.48484e-08
9.48464e-08
9.4826e-08
9.48419e-08
9.48245e-08
9.48118e-08
9.47975e-08
9.48138e-08
9.48137e-08
9.48133e-08
9.48289e-08
9.48588e-08
9.48574e-08
9.48574e-08
9.48654e-08
9.49116e-08
9.49281e-08
9.49069e-08
9.49154e-08
9.49727e-08
9.50133e-08
9.5053e-08
9.51048e-08
9.51096e-08
9.51252e-08
9.51603e-08
9.52033e-08
9.52637e-08
9.53219e-08
9.53926e-08
9.54467e-08
9.55052e-08
9.55738e-08
9.56767e-08
9.57643e-08
9.59127e-08
9.60062e-08
9.62468e-08
9.6355e-08
9.67664e-08
9.68695e-08
9.78567e-08
6.02716e-07
1.30932e-09
1.21231e-07
1.13789e-07
1.09127e-07
1.06164e-07
1.04102e-07
1.02588e-07
1.01414e-07
1.00494e-07
9.97374e-08
9.9125e-08
9.85988e-08
9.81664e-08
9.77832e-08
9.74612e-08
9.71752e-08
9.69351e-08
9.67132e-08
9.65277e-08
9.63506e-08
9.62044e-08
9.60612e-08
9.5943e-08
9.58287e-08
9.57374e-08
9.56422e-08
9.55678e-08
9.54919e-08
9.54354e-08
9.53684e-08
9.53224e-08
9.52814e-08
9.52454e-08
9.52073e-08
9.51748e-08
9.51339e-08
9.51064e-08
9.5084e-08
9.50601e-08
9.50365e-08
9.50161e-08
9.49881e-08
9.49671e-08
9.49498e-08
9.49326e-08
9.49152e-08
9.48967e-08
9.48855e-08
9.48614e-08
9.48511e-08
9.48348e-08
9.48088e-08
9.47949e-08
9.47945e-08
9.47923e-08
9.47717e-08
9.47874e-08
9.477e-08
9.47571e-08
9.47426e-08
9.47587e-08
9.47587e-08
9.47582e-08
9.47737e-08
9.48037e-08
9.48021e-08
9.4802e-08
9.481e-08
9.48559e-08
9.48726e-08
9.48515e-08
9.48597e-08
9.49168e-08
9.49575e-08
9.49971e-08
9.5049e-08
9.50542e-08
9.50698e-08
9.51048e-08
9.51476e-08
9.52079e-08
9.52659e-08
9.53367e-08
9.5391e-08
9.54497e-08
9.55181e-08
9.5621e-08
9.57083e-08
9.58569e-08
9.59501e-08
9.61904e-08
9.62988e-08
9.67093e-08
9.68113e-08
9.78129e-08
6.11316e-07
1.37545e-09
1.21256e-07
1.13825e-07
1.09155e-07
1.06182e-07
1.0411e-07
1.02589e-07
1.01408e-07
1.00482e-07
9.97203e-08
9.91035e-08
9.85735e-08
9.81377e-08
9.77514e-08
9.74268e-08
9.71384e-08
9.68963e-08
9.66724e-08
9.64852e-08
9.63066e-08
9.61589e-08
9.60144e-08
9.5895e-08
9.57796e-08
9.56873e-08
9.55911e-08
9.55159e-08
9.54391e-08
9.53819e-08
9.53143e-08
9.52675e-08
9.52259e-08
9.51894e-08
9.51507e-08
9.51178e-08
9.50764e-08
9.50485e-08
9.50258e-08
9.50015e-08
9.49775e-08
9.49569e-08
9.49285e-08
9.49073e-08
9.48897e-08
9.48724e-08
9.48547e-08
9.48361e-08
9.48247e-08
9.48004e-08
9.479e-08
9.47736e-08
9.47476e-08
9.47334e-08
9.47329e-08
9.47305e-08
9.47095e-08
9.4725e-08
9.47076e-08
9.46946e-08
9.46798e-08
9.46958e-08
9.46957e-08
9.46953e-08
9.47106e-08
9.47406e-08
9.47388e-08
9.47387e-08
9.47465e-08
9.4792e-08
9.48091e-08
9.4788e-08
9.4796e-08
9.48529e-08
9.48936e-08
9.49331e-08
9.4985e-08
9.49908e-08
9.50063e-08
9.50412e-08
9.50839e-08
9.5144e-08
9.52019e-08
9.52728e-08
9.53272e-08
9.53861e-08
9.54542e-08
9.55573e-08
9.56443e-08
9.57929e-08
9.58858e-08
9.61259e-08
9.62344e-08
9.66439e-08
9.67446e-08
9.77628e-08
6.21235e-07
1.44881e-09
1.21284e-07
1.13865e-07
1.09187e-07
1.06202e-07
1.0412e-07
1.0259e-07
1.01401e-07
1.00469e-07
9.97011e-08
9.90794e-08
9.8545e-08
9.81054e-08
9.77158e-08
9.73882e-08
9.7097e-08
9.68525e-08
9.66265e-08
9.64373e-08
9.62569e-08
9.61076e-08
9.59616e-08
9.58409e-08
9.57243e-08
9.56307e-08
9.55335e-08
9.54573e-08
9.53796e-08
9.53216e-08
9.52532e-08
9.52057e-08
9.51633e-08
9.51261e-08
9.50869e-08
9.50534e-08
9.50116e-08
9.49832e-08
9.496e-08
9.49354e-08
9.4911e-08
9.48901e-08
9.48614e-08
9.48399e-08
9.4822e-08
9.48044e-08
9.47865e-08
9.47677e-08
9.47561e-08
9.47317e-08
9.4721e-08
9.47045e-08
9.46786e-08
9.46641e-08
9.46633e-08
9.46607e-08
9.46394e-08
9.46547e-08
9.46372e-08
9.4624e-08
9.4609e-08
9.46247e-08
9.46247e-08
9.46242e-08
9.46394e-08
9.46693e-08
9.46673e-08
9.46672e-08
9.46749e-08
9.472e-08
9.47375e-08
9.47164e-08
9.47241e-08
9.47808e-08
9.48215e-08
9.48608e-08
9.49128e-08
9.49191e-08
9.49347e-08
9.49695e-08
9.50119e-08
9.50719e-08
9.51297e-08
9.52006e-08
9.52551e-08
9.53143e-08
9.53821e-08
9.54852e-08
9.55719e-08
9.57207e-08
9.58131e-08
9.60529e-08
9.61616e-08
9.657e-08
9.66692e-08
9.77062e-08
6.32511e-07
1.53026e-09
1.21315e-07
1.1391e-07
1.09222e-07
1.06225e-07
1.04131e-07
1.02591e-07
1.01394e-07
1.00454e-07
9.96799e-08
9.90527e-08
9.85134e-08
9.80696e-08
9.76762e-08
9.73452e-08
9.7051e-08
9.68038e-08
9.65753e-08
9.6384e-08
9.62016e-08
9.60505e-08
9.59028e-08
9.57807e-08
9.56625e-08
9.55678e-08
9.54694e-08
9.53921e-08
9.53133e-08
9.52544e-08
9.5185e-08
9.51367e-08
9.50935e-08
9.50556e-08
9.50157e-08
9.49817e-08
9.49393e-08
9.49103e-08
9.48867e-08
9.48616e-08
9.48368e-08
9.48155e-08
9.47864e-08
9.47646e-08
9.47464e-08
9.47285e-08
9.47104e-08
9.46913e-08
9.46795e-08
9.46549e-08
9.46439e-08
9.46273e-08
9.46016e-08
9.45866e-08
9.45856e-08
9.45827e-08
9.45611e-08
9.45761e-08
9.45587e-08
9.45451e-08
9.45299e-08
9.45454e-08
9.45454e-08
9.45448e-08
9.45599e-08
9.45898e-08
9.45875e-08
9.45875e-08
9.4595e-08
9.46396e-08
9.46575e-08
9.46365e-08
9.46438e-08
9.47002e-08
9.4741e-08
9.47802e-08
9.48322e-08
9.48391e-08
9.48546e-08
9.48893e-08
9.49315e-08
9.49913e-08
9.5049e-08
9.51199e-08
9.51746e-08
9.52341e-08
9.53016e-08
9.54047e-08
9.5491e-08
9.564e-08
9.5732e-08
9.59714e-08
9.60802e-08
9.64874e-08
9.6585e-08
9.76428e-08
6.4518e-07
1.62083e-09
1.21348e-07
1.13959e-07
1.09261e-07
1.0625e-07
1.04144e-07
1.02592e-07
1.01386e-07
1.00438e-07
9.96568e-08
9.90234e-08
9.84787e-08
9.80301e-08
9.76325e-08
9.72979e-08
9.70003e-08
9.67501e-08
9.65189e-08
9.63251e-08
9.61405e-08
9.59875e-08
9.58379e-08
9.57141e-08
9.55944e-08
9.54982e-08
9.53985e-08
9.532e-08
9.524e-08
9.51801e-08
9.51098e-08
9.50604e-08
9.50163e-08
9.49777e-08
9.49369e-08
9.49023e-08
9.48593e-08
9.48298e-08
9.48056e-08
9.47801e-08
9.47547e-08
9.47331e-08
9.47035e-08
9.46814e-08
9.46628e-08
9.46446e-08
9.46261e-08
9.46069e-08
9.45948e-08
9.45701e-08
9.45588e-08
9.4542e-08
9.45164e-08
9.45009e-08
9.44997e-08
9.44966e-08
9.44744e-08
9.44893e-08
9.44717e-08
9.4458e-08
9.44425e-08
9.44577e-08
9.44576e-08
9.44571e-08
9.44719e-08
9.45018e-08
9.44992e-08
9.44992e-08
9.45066e-08
9.45507e-08
9.4569e-08
9.4548e-08
9.4555e-08
9.46111e-08
9.46519e-08
9.46909e-08
9.4743e-08
9.47506e-08
9.47661e-08
9.48006e-08
9.48425e-08
9.49022e-08
9.49596e-08
9.50306e-08
9.50855e-08
9.51453e-08
9.52124e-08
9.53156e-08
9.54015e-08
9.55506e-08
9.56421e-08
9.58811e-08
9.59901e-08
9.6396e-08
9.64917e-08
9.75726e-08
6.59268e-07
1.72169e-09
1.21385e-07
1.14014e-07
1.09304e-07
1.06278e-07
1.04158e-07
1.02595e-07
1.01378e-07
1.00421e-07
9.96317e-08
9.89915e-08
9.84409e-08
9.79871e-08
9.75849e-08
9.72461e-08
9.69448e-08
9.66914e-08
9.64572e-08
9.62607e-08
9.60736e-08
9.59184e-08
9.57668e-08
9.56411e-08
9.55197e-08
9.54219e-08
9.53208e-08
9.52409e-08
9.51597e-08
9.50986e-08
9.50272e-08
9.49768e-08
9.49317e-08
9.48922e-08
9.48506e-08
9.48153e-08
9.47716e-08
9.47414e-08
9.47166e-08
9.46906e-08
9.46647e-08
9.46426e-08
9.46125e-08
9.459e-08
9.4571e-08
9.45526e-08
9.45337e-08
9.45142e-08
9.45018e-08
9.44769e-08
9.44653e-08
9.44484e-08
9.44228e-08
9.44068e-08
9.44054e-08
9.4402e-08
9.43794e-08
9.43939e-08
9.43763e-08
9.43623e-08
9.43465e-08
9.43614e-08
9.43613e-08
9.43608e-08
9.43754e-08
9.44052e-08
9.44023e-08
9.44023e-08
9.44095e-08
9.4453e-08
9.44718e-08
9.44508e-08
9.44575e-08
9.45132e-08
9.45541e-08
9.45929e-08
9.4645e-08
9.46533e-08
9.46688e-08
9.47032e-08
9.47448e-08
9.48043e-08
9.48615e-08
9.49326e-08
9.49876e-08
9.50477e-08
9.51145e-08
9.52178e-08
9.53031e-08
9.54524e-08
9.55434e-08
9.57818e-08
9.5891e-08
9.62956e-08
9.63892e-08
9.74953e-08
6.74791e-07
1.83422e-09
1.21424e-07
1.14073e-07
1.09351e-07
1.06309e-07
1.04173e-07
1.02597e-07
1.01369e-07
1.00402e-07
9.96046e-08
9.89571e-08
9.84e-08
9.79405e-08
9.75332e-08
9.719e-08
9.68846e-08
9.66275e-08
9.639e-08
9.61907e-08
9.60009e-08
9.58433e-08
9.56894e-08
9.55618e-08
9.54384e-08
9.53389e-08
9.52361e-08
9.51548e-08
9.50722e-08
9.50098e-08
9.49373e-08
9.48857e-08
9.48395e-08
9.47991e-08
9.47565e-08
9.47205e-08
9.4676e-08
9.46451e-08
9.46196e-08
9.45931e-08
9.45665e-08
9.4544e-08
9.45134e-08
9.44905e-08
9.4471e-08
9.44522e-08
9.44329e-08
9.44132e-08
9.44004e-08
9.43753e-08
9.43633e-08
9.43463e-08
9.43207e-08
9.43042e-08
9.43026e-08
9.42989e-08
9.42757e-08
9.429e-08
9.42723e-08
9.4258e-08
9.42418e-08
9.42563e-08
9.42563e-08
9.42557e-08
9.42701e-08
9.42998e-08
9.42966e-08
9.42966e-08
9.43036e-08
9.43465e-08
9.43658e-08
9.43449e-08
9.43511e-08
9.44064e-08
9.44474e-08
9.44859e-08
9.45381e-08
9.45472e-08
9.45627e-08
9.4597e-08
9.46381e-08
9.46975e-08
9.47545e-08
9.48255e-08
9.48808e-08
9.49412e-08
9.50076e-08
9.51109e-08
9.51958e-08
9.53451e-08
9.54357e-08
9.56735e-08
9.57828e-08
9.61861e-08
9.62773e-08
9.74107e-08
6.91756e-07
1.95997e-09
1.21466e-07
1.14136e-07
1.09403e-07
1.06343e-07
1.04191e-07
1.02601e-07
1.0136e-07
1.00382e-07
9.95757e-08
9.89202e-08
9.8356e-08
9.78902e-08
9.74774e-08
9.71293e-08
9.68196e-08
9.65586e-08
9.63175e-08
9.6115e-08
9.59223e-08
9.5762e-08
9.56057e-08
9.54759e-08
9.53504e-08
9.52491e-08
9.51445e-08
9.50616e-08
9.49775e-08
9.49137e-08
9.48399e-08
9.47871e-08
9.47396e-08
9.46982e-08
9.46546e-08
9.46177e-08
9.45725e-08
9.45407e-08
9.45145e-08
9.44874e-08
9.44601e-08
9.44371e-08
9.44059e-08
9.43825e-08
9.43625e-08
9.43434e-08
9.43237e-08
9.43037e-08
9.42905e-08
9.42652e-08
9.42528e-08
9.42356e-08
9.421e-08
9.41929e-08
9.41911e-08
9.4187e-08
9.41634e-08
9.41773e-08
9.41595e-08
9.41449e-08
9.41283e-08
9.41424e-08
9.41424e-08
9.41418e-08
9.41559e-08
9.41855e-08
9.41819e-08
9.41819e-08
9.41888e-08
9.4231e-08
9.42507e-08
9.42299e-08
9.42358e-08
9.42906e-08
9.43316e-08
9.43699e-08
9.44221e-08
9.4432e-08
9.44475e-08
9.44816e-08
9.45225e-08
9.45816e-08
9.46383e-08
9.47094e-08
9.47648e-08
9.48256e-08
9.48916e-08
9.49949e-08
9.50792e-08
9.52287e-08
9.53187e-08
9.55558e-08
9.56653e-08
9.60671e-08
9.61558e-08
9.73185e-08
7.1015e-07
2.10071e-09
1.2151e-07
1.14205e-07
1.09458e-07
1.0638e-07
1.0421e-07
1.02605e-07
1.01351e-07
1.00362e-07
9.9545e-08
9.88808e-08
9.83089e-08
9.78364e-08
9.74177e-08
9.70643e-08
9.67497e-08
9.64845e-08
9.62395e-08
9.60335e-08
9.58376e-08
9.56745e-08
9.55156e-08
9.53834e-08
9.52556e-08
9.51523e-08
9.50459e-08
9.49612e-08
9.48754e-08
9.48101e-08
9.47349e-08
9.46808e-08
9.46319e-08
9.45894e-08
9.45448e-08
9.4507e-08
9.44608e-08
9.44282e-08
9.44011e-08
9.43734e-08
9.43453e-08
9.43218e-08
9.42899e-08
9.42661e-08
9.42456e-08
9.4226e-08
9.42058e-08
9.41855e-08
9.41719e-08
9.41464e-08
9.41335e-08
9.41161e-08
9.40906e-08
9.40729e-08
9.40708e-08
9.40664e-08
9.40421e-08
9.40557e-08
9.40378e-08
9.40229e-08
9.40058e-08
9.40195e-08
9.40195e-08
9.40188e-08
9.40326e-08
9.40621e-08
9.40582e-08
9.40582e-08
9.40649e-08
9.41064e-08
9.41265e-08
9.41058e-08
9.41113e-08
9.41656e-08
9.42067e-08
9.42447e-08
9.42969e-08
9.43077e-08
9.43231e-08
9.43571e-08
9.43975e-08
9.44564e-08
9.45128e-08
9.4584e-08
9.46396e-08
9.47008e-08
9.47662e-08
9.48696e-08
9.49534e-08
9.51029e-08
9.51924e-08
9.54286e-08
9.55383e-08
9.59386e-08
9.60245e-08
9.72185e-08
7.29948e-07
2.25846e-09
1.21558e-07
1.14278e-07
1.09518e-07
1.0642e-07
1.04232e-07
1.0261e-07
1.01342e-07
1.0034e-07
9.95126e-08
9.88389e-08
9.82588e-08
9.77791e-08
9.73539e-08
9.69948e-08
9.6675e-08
9.64052e-08
9.61561e-08
9.59464e-08
9.5747e-08
9.55808e-08
9.54191e-08
9.52843e-08
9.51541e-08
9.50485e-08
9.494e-08
9.48535e-08
9.47659e-08
9.4699e-08
9.46223e-08
9.45667e-08
9.45164e-08
9.44727e-08
9.44268e-08
9.43881e-08
9.4341e-08
9.43073e-08
9.42794e-08
9.4251e-08
9.42221e-08
9.4198e-08
9.41654e-08
9.41411e-08
9.41199e-08
9.40999e-08
9.40792e-08
9.40586e-08
9.40445e-08
9.40188e-08
9.40054e-08
9.39878e-08
9.39622e-08
9.39439e-08
9.39415e-08
9.39367e-08
9.39119e-08
9.3925e-08
9.39071e-08
9.38918e-08
9.38743e-08
9.38875e-08
9.38875e-08
9.38868e-08
9.39002e-08
9.39295e-08
9.39252e-08
9.39252e-08
9.39317e-08
9.39724e-08
9.3993e-08
9.39724e-08
9.39775e-08
9.40313e-08
9.40723e-08
9.41101e-08
9.41623e-08
9.4174e-08
9.41894e-08
9.42233e-08
9.42633e-08
9.43219e-08
9.4378e-08
9.44491e-08
9.45049e-08
9.45665e-08
9.46314e-08
9.47349e-08
9.4818e-08
9.49676e-08
9.50565e-08
9.52918e-08
9.54016e-08
9.58003e-08
9.58833e-08
9.71105e-08
7.51099e-07
2.43549e-09
1.21608e-07
1.14356e-07
1.09583e-07
1.06463e-07
1.04256e-07
1.02616e-07
1.01332e-07
1.00318e-07
9.94785e-08
9.87948e-08
9.82058e-08
9.77183e-08
9.72861e-08
9.69209e-08
9.65955e-08
9.63208e-08
9.60671e-08
9.58534e-08
9.56504e-08
9.54809e-08
9.53161e-08
9.51785e-08
9.50456e-08
9.49377e-08
9.4827e-08
9.47385e-08
9.46489e-08
9.45803e-08
9.4502e-08
9.44447e-08
9.43929e-08
9.43479e-08
9.43008e-08
9.4261e-08
9.42128e-08
9.41782e-08
9.41492e-08
9.41201e-08
9.40903e-08
9.40655e-08
9.40322e-08
9.40073e-08
9.39856e-08
9.39651e-08
9.39437e-08
9.39228e-08
9.39082e-08
9.38823e-08
9.38683e-08
9.38505e-08
9.38248e-08
9.38058e-08
9.38031e-08
9.3798e-08
9.37726e-08
9.37852e-08
9.37672e-08
9.37515e-08
9.37335e-08
9.37463e-08
9.37462e-08
9.37454e-08
9.37585e-08
9.37876e-08
9.37829e-08
9.37829e-08
9.37892e-08
9.3829e-08
9.38501e-08
9.38296e-08
9.38342e-08
9.38875e-08
9.39285e-08
9.3966e-08
9.40181e-08
9.40308e-08
9.40462e-08
9.40799e-08
9.41195e-08
9.41778e-08
9.42335e-08
9.43047e-08
9.43606e-08
9.44226e-08
9.4487e-08
9.45905e-08
9.46729e-08
9.48225e-08
9.49109e-08
9.51451e-08
9.5255e-08
9.56522e-08
9.57319e-08
9.6994e-08
7.7353e-07
2.63439e-09
1.2166e-07
1.1444e-07
1.09652e-07
1.0651e-07
1.04281e-07
1.02623e-07
1.01323e-07
1.00294e-07
9.94429e-08
9.87484e-08
9.81499e-08
9.7654e-08
9.72144e-08
9.68426e-08
9.65113e-08
9.62312e-08
9.59727e-08
9.57547e-08
9.55477e-08
9.53746e-08
9.52065e-08
9.50659e-08
9.49303e-08
9.48199e-08
9.47068e-08
9.46161e-08
9.45244e-08
9.44539e-08
9.43739e-08
9.43149e-08
9.42614e-08
9.4215e-08
9.41665e-08
9.41256e-08
9.40763e-08
9.40405e-08
9.40105e-08
9.39806e-08
9.39499e-08
9.39244e-08
9.38902e-08
9.38647e-08
9.38423e-08
9.38213e-08
9.37993e-08
9.37779e-08
9.37629e-08
9.37367e-08
9.37221e-08
9.37041e-08
9.36783e-08
9.36586e-08
9.36555e-08
9.36501e-08
9.3624e-08
9.36361e-08
9.3618e-08
9.3602e-08
9.35834e-08
9.35956e-08
9.35956e-08
9.35947e-08
9.36073e-08
9.36362e-08
9.36311e-08
9.36311e-08
9.36371e-08
9.36761e-08
9.36977e-08
9.36772e-08
9.36815e-08
9.3734e-08
9.3775e-08
9.38123e-08
9.38643e-08
9.38779e-08
9.38934e-08
9.39269e-08
9.3966e-08
9.4024e-08
9.40794e-08
9.41505e-08
9.42065e-08
9.4269e-08
9.43328e-08
9.44363e-08
9.4518e-08
9.46676e-08
9.47555e-08
9.49885e-08
9.50984e-08
9.5494e-08
9.55703e-08
9.68688e-08
7.9714e-07
2.85804e-09
1.21714e-07
1.14528e-07
1.09726e-07
1.06561e-07
1.0431e-07
1.02632e-07
1.01314e-07
1.0027e-07
9.94057e-08
9.86998e-08
9.80911e-08
9.75863e-08
9.71388e-08
9.676e-08
9.64222e-08
9.61365e-08
9.58729e-08
9.56502e-08
9.5439e-08
9.52621e-08
9.50904e-08
9.49467e-08
9.4808e-08
9.46948e-08
9.45792e-08
9.44862e-08
9.43922e-08
9.43198e-08
9.42379e-08
9.41771e-08
9.41218e-08
9.4074e-08
9.40239e-08
9.39818e-08
9.39313e-08
9.38943e-08
9.38631e-08
9.38323e-08
9.38006e-08
9.37744e-08
9.37393e-08
9.37132e-08
9.36901e-08
9.36685e-08
9.36458e-08
9.3624e-08
9.36084e-08
9.35819e-08
9.35667e-08
9.35485e-08
9.35225e-08
9.35021e-08
9.34986e-08
9.34928e-08
9.34661e-08
9.34776e-08
9.34595e-08
9.3443e-08
9.34239e-08
9.34354e-08
9.34354e-08
9.34344e-08
9.34466e-08
9.34753e-08
9.34696e-08
9.34696e-08
9.34754e-08
9.35135e-08
9.35355e-08
9.35152e-08
9.3519e-08
9.35708e-08
9.36118e-08
9.36488e-08
9.37006e-08
9.37153e-08
9.37308e-08
9.37641e-08
9.38027e-08
9.38604e-08
9.39153e-08
9.39864e-08
9.40425e-08
9.41055e-08
9.41687e-08
9.42722e-08
9.43531e-08
9.45027e-08
9.459e-08
9.48216e-08
9.49316e-08
9.53256e-08
9.53983e-08
9.67345e-08
8.21797e-07
3.10986e-09
1.21771e-07
1.14621e-07
1.09805e-07
1.06616e-07
1.04341e-07
1.02642e-07
1.01306e-07
1.00246e-07
9.93673e-08
9.86491e-08
9.80296e-08
9.75154e-08
9.70594e-08
9.66731e-08
9.63285e-08
9.60367e-08
9.57675e-08
9.554e-08
9.53242e-08
9.51432e-08
9.49678e-08
9.48206e-08
9.46787e-08
9.45627e-08
9.44443e-08
9.43488e-08
9.42524e-08
9.41778e-08
9.4094e-08
9.40312e-08
9.39741e-08
9.39246e-08
9.3873e-08
9.38295e-08
9.37778e-08
9.37395e-08
9.3707e-08
9.36753e-08
9.36425e-08
9.36155e-08
9.35795e-08
9.35527e-08
9.35288e-08
9.35066e-08
9.34832e-08
9.34609e-08
9.34447e-08
9.34179e-08
9.3402e-08
9.33836e-08
9.33574e-08
9.33362e-08
9.33323e-08
9.33262e-08
9.32987e-08
9.33096e-08
9.32914e-08
9.32745e-08
9.32548e-08
9.32656e-08
9.32656e-08
9.32645e-08
9.32762e-08
9.33045e-08
9.32985e-08
9.32984e-08
9.3304e-08
9.33411e-08
9.33636e-08
9.33433e-08
9.33467e-08
9.33978e-08
9.34387e-08
9.34753e-08
9.35271e-08
9.35427e-08
9.35583e-08
9.35914e-08
9.36295e-08
9.36868e-08
9.37413e-08
9.38123e-08
9.38685e-08
9.39319e-08
9.39945e-08
9.4098e-08
9.4178e-08
9.43276e-08
9.44143e-08
9.46444e-08
9.47545e-08
9.51468e-08
9.52157e-08
9.65906e-08
8.47333e-07
3.39359e-09
1.2183e-07
1.14719e-07
1.09889e-07
1.06674e-07
1.04375e-07
1.02653e-07
1.01298e-07
1.00221e-07
9.93277e-08
9.85965e-08
9.79656e-08
9.74412e-08
9.69762e-08
9.65819e-08
9.62301e-08
9.59319e-08
9.56568e-08
9.5424e-08
9.52034e-08
9.5018e-08
9.48386e-08
9.46878e-08
9.45424e-08
9.44233e-08
9.4302e-08
9.42039e-08
9.4105e-08
9.40281e-08
9.39421e-08
9.38773e-08
9.38181e-08
9.37669e-08
9.37137e-08
9.36688e-08
9.36157e-08
9.3576e-08
9.35421e-08
9.35094e-08
9.34755e-08
9.34475e-08
9.34106e-08
9.33831e-08
9.33583e-08
9.33355e-08
9.33113e-08
9.32885e-08
9.32717e-08
9.32446e-08
9.32279e-08
9.32093e-08
9.31829e-08
9.31608e-08
9.31564e-08
9.31499e-08
9.31219e-08
9.3132e-08
9.31137e-08
9.30964e-08
9.3076e-08
9.30861e-08
9.30861e-08
9.30849e-08
9.3096e-08
9.3124e-08
9.31175e-08
9.31174e-08
9.31227e-08
9.31587e-08
9.31817e-08
9.31615e-08
9.31644e-08
9.32147e-08
9.32556e-08
9.32919e-08
9.33434e-08
9.33601e-08
9.33757e-08
9.34086e-08
9.34462e-08
9.35031e-08
9.35571e-08
9.3628e-08
9.36843e-08
9.37482e-08
9.38101e-08
9.39136e-08
9.39927e-08
9.41422e-08
9.42283e-08
9.44568e-08
9.45668e-08
9.49574e-08
9.50224e-08
9.64369e-08
8.73542e-07
3.71342e-09
1.21892e-07
1.14822e-07
1.09977e-07
1.06737e-07
1.04411e-07
1.02667e-07
1.01291e-07
1.00196e-07
9.92871e-08
9.85421e-08
9.7899e-08
9.73639e-08
9.68894e-08
9.64866e-08
9.6127e-08
9.5822e-08
9.55407e-08
9.53023e-08
9.50765e-08
9.48866e-08
9.47029e-08
9.45482e-08
9.43991e-08
9.42768e-08
9.41524e-08
9.40514e-08
9.39498e-08
9.38705e-08
9.37823e-08
9.37152e-08
9.36539e-08
9.36009e-08
9.35458e-08
9.34995e-08
9.34449e-08
9.34037e-08
9.33684e-08
9.33346e-08
9.32995e-08
9.32706e-08
9.32326e-08
9.32042e-08
9.31787e-08
9.31551e-08
9.313e-08
9.31068e-08
9.30893e-08
9.30618e-08
9.30444e-08
9.30254e-08
9.29987e-08
9.29758e-08
9.29709e-08
9.29641e-08
9.29353e-08
9.29447e-08
9.29264e-08
9.29085e-08
9.28874e-08
9.28967e-08
9.28967e-08
9.28954e-08
9.29059e-08
9.29335e-08
9.29265e-08
9.29264e-08
9.29314e-08
9.29664e-08
9.29897e-08
9.29696e-08
9.29721e-08
9.30216e-08
9.30623e-08
9.30983e-08
9.31495e-08
9.31673e-08
9.3183e-08
9.32157e-08
9.32527e-08
9.33092e-08
9.33627e-08
9.34334e-08
9.34898e-08
9.35541e-08
9.36154e-08
9.37187e-08
9.3797e-08
9.39462e-08
9.40319e-08
9.42584e-08
9.43684e-08
9.47571e-08
9.48182e-08
9.62728e-08
9.00178e-07
4.0741e-09
1.21955e-07
1.1493e-07
1.10072e-07
1.06804e-07
1.04451e-07
1.02682e-07
1.01285e-07
1.00172e-07
9.92455e-08
9.8486e-08
9.78301e-08
9.72836e-08
9.6799e-08
9.63873e-08
9.60195e-08
9.57072e-08
9.54192e-08
9.5175e-08
9.49437e-08
9.47489e-08
9.45607e-08
9.44019e-08
9.42489e-08
9.4123e-08
9.39954e-08
9.38914e-08
9.37869e-08
9.3705e-08
9.36144e-08
9.3545e-08
9.34814e-08
9.34265e-08
9.33695e-08
9.33215e-08
9.32654e-08
9.32227e-08
9.31858e-08
9.31508e-08
9.31144e-08
9.30845e-08
9.30454e-08
9.30161e-08
9.29897e-08
9.29654e-08
9.29393e-08
9.29155e-08
9.28973e-08
9.28695e-08
9.28512e-08
9.2832e-08
9.2805e-08
9.27812e-08
9.27757e-08
9.27685e-08
9.27391e-08
9.27477e-08
9.27292e-08
9.27109e-08
9.2689e-08
9.26975e-08
9.26975e-08
9.2696e-08
9.27058e-08
9.2733e-08
9.27255e-08
9.27254e-08
9.273e-08
9.27639e-08
9.27876e-08
9.27676e-08
9.27697e-08
9.28182e-08
9.28588e-08
9.28944e-08
9.29454e-08
9.29641e-08
9.298e-08
9.30125e-08
9.30489e-08
9.31049e-08
9.31578e-08
9.32284e-08
9.32848e-08
9.33496e-08
9.34102e-08
9.35134e-08
9.35907e-08
9.37397e-08
9.38248e-08
9.40494e-08
9.41592e-08
9.45459e-08
9.4603e-08
9.60979e-08
9.26952e-07
4.48085e-09
1.2202e-07
1.15043e-07
1.10171e-07
1.06876e-07
1.04495e-07
1.027e-07
1.0128e-07
1.00147e-07
9.92033e-08
9.84285e-08
9.77589e-08
9.72005e-08
9.67051e-08
9.62839e-08
9.59075e-08
9.55876e-08
9.52926e-08
9.5042e-08
9.4805e-08
9.4605e-08
9.44119e-08
9.42488e-08
9.40917e-08
9.39621e-08
9.3831e-08
9.37239e-08
9.36163e-08
9.35317e-08
9.34385e-08
9.33666e-08
9.33006e-08
9.32436e-08
9.31846e-08
9.3135e-08
9.30772e-08
9.30328e-08
9.29942e-08
9.2958e-08
9.29201e-08
9.28892e-08
9.2849e-08
9.28188e-08
9.27913e-08
9.27662e-08
9.27392e-08
9.27148e-08
9.26959e-08
9.26676e-08
9.26484e-08
9.2629e-08
9.26015e-08
9.25769e-08
9.25707e-08