/*--------------------------------*- C++ -*----------------------------------*\
| =========                 |                                                 |
| \\      /  F ield         | OpenFOAM: The Open Source CFD Toolbox           |
|  \\    /   O peration     | Version:  v2012                                 |
|   \\  /    A nd           | Website:  www.openfoam.com                      |
|    \\/     M anipulation  |                                                 |
\*---------------------------------------------------------------------------*/
FoamFile
{
    version     2.0;
    format      ascii;
    class       volVectorField;
    location    "11";
    object      wallShearStress;
}
// * * * * * * * * * * * * * * * * * * * * * * * * * * * * * * * * * * * * * //

dimensions      [0 2 -2 0 0 0 0];


internalField   uniform (0 0 0);

boundaryField
{
    inlet
    {
        type            calculated;
        value           uniform (0 0 0);
    }
    outlet
    {
        type            calculated;
        value           uniform (0 0 0);
    }
    topWall
    {
        type            calculated;
        value           nonuniform List<vector> 
545
(
(2.65792e-08 -1.86756e-08 0)
(2.66567e-08 -5.2489e-08 0)
(2.65612e-08 -8.75152e-08 0)
(2.64765e-08 -1.2144e-07 0)
(2.64107e-08 -1.53864e-07 0)
(2.63378e-08 -1.85207e-07 0)
(2.62586e-08 -2.15743e-07 0)
(2.61714e-08 -2.45459e-07 0)
(2.60771e-08 -2.74289e-07 0)
(2.59763e-08 -3.02229e-07 0)
(2.58696e-08 -3.29315e-07 0)
(2.57575e-08 -3.5558e-07 0)
(2.56406e-08 -3.81043e-07 0)
(2.55195e-08 -4.05718e-07 0)
(2.53946e-08 -4.29627e-07 0)
(2.52664e-08 -4.52788e-07 0)
(2.51354e-08 -4.75224e-07 0)
(2.50019e-08 -4.96953e-07 0)
(2.48664e-08 -5.17995e-07 0)
(2.47292e-08 -5.38371e-07 0)
(2.45907e-08 -5.58098e-07 0)
(2.44511e-08 -5.77197e-07 0)
(2.43107e-08 -5.95686e-07 0)
(2.41699e-08 -6.13584e-07 0)
(2.40287e-08 -6.30908e-07 0)
(2.38875e-08 -6.47676e-07 0)
(2.37465e-08 -6.63907e-07 0)
(2.36058e-08 -6.79615e-07 0)
(2.34656e-08 -6.94819e-07 0)
(2.33261e-08 -7.09533e-07 0)
(2.31874e-08 -7.23775e-07 0)
(2.30496e-08 -7.37558e-07 0)
(2.29128e-08 -7.50898e-07 0)
(2.27771e-08 -7.63809e-07 0)
(2.26427e-08 -7.76306e-07 0)
(2.25095e-08 -7.88401e-07 0)
(2.23778e-08 -8.00108e-07 0)
(2.22474e-08 -8.1144e-07 0)
(2.21185e-08 -8.22409e-07 0)
(2.19912e-08 -8.33027e-07 0)
(2.18654e-08 -8.43305e-07 0)
(2.17412e-08 -8.53255e-07 0)
(2.16186e-08 -8.62889e-07 0)
(2.14976e-08 -8.72215e-07 0)
(2.13783e-08 -8.81245e-07 0)
(2.12606e-08 -8.89988e-07 0)
(2.11445e-08 -8.98454e-07 0)
(2.10301e-08 -9.06651e-07 0)
(2.09174e-08 -9.1459e-07 0)
(2.08063e-08 -9.22278e-07 0)
(2.06968e-08 -9.29723e-07 0)
(2.05889e-08 -9.36935e-07 0)
(2.04826e-08 -9.43919e-07 0)
(2.03778e-08 -9.50685e-07 0)
(2.02747e-08 -9.57238e-07 0)
(2.0173e-08 -9.63587e-07 0)
(2.00728e-08 -9.69737e-07 0)
(1.99741e-08 -9.75696e-07 0)
(1.98769e-08 -9.81468e-07 0)
(1.9781e-08 -9.87062e-07 0)
(1.96865e-08 -9.92482e-07 0)
(1.95934e-08 -9.97733e-07 0)
(1.95015e-08 -1.00282e-06 0)
(1.9411e-08 -1.00775e-06 0)
(1.93216e-08 -1.01253e-06 0)
(1.92334e-08 -1.01717e-06 0)
(1.91464e-08 -1.02166e-06 0)
(1.90605e-08 -1.02601e-06 0)
(1.89758e-08 -1.03023e-06 0)
(1.88914e-08 -1.03431e-06 0)
(1.88108e-08 -1.03829e-06 0)
(1.87192e-08 -1.04211e-06 0)
(1.8634e-08 -1.04576e-06 0)
(1.85697e-08 -1.04938e-06 0)
(1.85053e-08 -1.05289e-06 0)
(1.84415e-08 -1.05635e-06 0)
(1.83778e-08 -1.05982e-06 0)
(1.83141e-08 -1.06327e-06 0)
(1.82506e-08 -1.06669e-06 0)
(1.81872e-08 -1.07007e-06 0)
(1.81238e-08 -1.07343e-06 0)
(1.80606e-08 -1.07676e-06 0)
(1.79975e-08 -1.08006e-06 0)
(1.79344e-08 -1.08334e-06 0)
(1.78715e-08 -1.08659e-06 0)
(1.78087e-08 -1.08982e-06 0)
(1.7746e-08 -1.09302e-06 0)
(1.76833e-08 -1.09619e-06 0)
(1.76208e-08 -1.09934e-06 0)
(1.75584e-08 -1.10246e-06 0)
(1.74961e-08 -1.10556e-06 0)
(1.74337e-08 -1.10862e-06 0)
(1.73727e-08 -1.11169e-06 0)
(1.73061e-08 -1.11464e-06 0)
(1.7262e-08 -1.11784e-06 0)
(1.71219e-08 -1.12063e-06 0)
(1.69575e-08 -1.12303e-06 0)
(1.68995e-08 -1.12582e-06 0)
(1.68496e-08 -1.12822e-06 0)
(1.68034e-08 -1.13039e-06 0)
(1.67574e-08 -1.13274e-06 0)
(1.67113e-08 -1.13514e-06 0)
(1.66651e-08 -1.13753e-06 0)
(1.66188e-08 -1.13988e-06 0)
(1.65723e-08 -1.14224e-06 0)
(1.65256e-08 -1.14459e-06 0)
(1.64788e-08 -1.14696e-06 0)
(1.64319e-08 -1.14931e-06 0)
(1.63847e-08 -1.15167e-06 0)
(1.63374e-08 -1.15403e-06 0)
(1.62899e-08 -1.15638e-06 0)
(1.62423e-08 -1.15873e-06 0)
(1.61945e-08 -1.16108e-06 0)
(1.61465e-08 -1.16343e-06 0)
(1.60983e-08 -1.16578e-06 0)
(1.605e-08 -1.16813e-06 0)
(1.60015e-08 -1.17047e-06 0)
(1.59528e-08 -1.17282e-06 0)
(1.59039e-08 -1.17516e-06 0)
(1.58549e-08 -1.1775e-06 0)
(1.58057e-08 -1.17984e-06 0)
(1.57563e-08 -1.18218e-06 0)
(1.57068e-08 -1.18451e-06 0)
(1.5657e-08 -1.18684e-06 0)
(1.56071e-08 -1.18918e-06 0)
(1.5557e-08 -1.19151e-06 0)
(1.55068e-08 -1.19383e-06 0)
(1.54563e-08 -1.19616e-06 0)
(1.54057e-08 -1.19848e-06 0)
(1.53549e-08 -1.2008e-06 0)
(1.5304e-08 -1.20312e-06 0)
(1.52528e-08 -1.20544e-06 0)
(1.52015e-08 -1.20775e-06 0)
(1.51501e-08 -1.21006e-06 0)
(1.50984e-08 -1.21237e-06 0)
(1.50466e-08 -1.21468e-06 0)
(1.49946e-08 -1.21698e-06 0)
(1.49424e-08 -1.21928e-06 0)
(1.489e-08 -1.22158e-06 0)
(1.48375e-08 -1.22388e-06 0)
(1.47848e-08 -1.22617e-06 0)
(1.47319e-08 -1.22846e-06 0)
(1.46789e-08 -1.23075e-06 0)
(1.46257e-08 -1.23304e-06 0)
(1.45723e-08 -1.23532e-06 0)
(1.45187e-08 -1.2376e-06 0)
(1.4465e-08 -1.23987e-06 0)
(1.44111e-08 -1.24215e-06 0)
(1.4357e-08 -1.24442e-06 0)
(1.43027e-08 -1.24668e-06 0)
(1.42483e-08 -1.24895e-06 0)
(1.41937e-08 -1.25121e-06 0)
(1.41389e-08 -1.25346e-06 0)
(1.4084e-08 -1.25572e-06 0)
(1.40289e-08 -1.25797e-06 0)
(1.39736e-08 -1.26021e-06 0)
(1.39181e-08 -1.26245e-06 0)
(1.38625e-08 -1.26469e-06 0)
(1.38067e-08 -1.26693e-06 0)
(1.37508e-08 -1.26916e-06 0)
(1.36946e-08 -1.27139e-06 0)
(1.36383e-08 -1.27361e-06 0)
(1.35819e-08 -1.27583e-06 0)
(1.35252e-08 -1.27805e-06 0)
(1.34684e-08 -1.28026e-06 0)
(1.34115e-08 -1.28246e-06 0)
(1.33543e-08 -1.28467e-06 0)
(1.3297e-08 -1.28687e-06 0)
(1.32395e-08 -1.28906e-06 0)
(1.31819e-08 -1.29125e-06 0)
(1.31241e-08 -1.29344e-06 0)
(1.30661e-08 -1.29562e-06 0)
(1.3008e-08 -1.29779e-06 0)
(1.29497e-08 -1.29997e-06 0)
(1.28913e-08 -1.30213e-06 0)
(1.28326e-08 -1.3043e-06 0)
(1.27739e-08 -1.30645e-06 0)
(1.27149e-08 -1.30861e-06 0)
(1.26558e-08 -1.31076e-06 0)
(1.25965e-08 -1.3129e-06 0)
(1.25371e-08 -1.31504e-06 0)
(1.24775e-08 -1.31717e-06 0)
(1.24178e-08 -1.3193e-06 0)
(1.23579e-08 -1.32142e-06 0)
(1.22978e-08 -1.32354e-06 0)
(1.22376e-08 -1.32565e-06 0)
(1.21772e-08 -1.32776e-06 0)
(1.21166e-08 -1.32986e-06 0)
(1.2056e-08 -1.33195e-06 0)
(1.19951e-08 -1.33404e-06 0)
(1.19341e-08 -1.33613e-06 0)
(1.18729e-08 -1.3382e-06 0)
(1.18116e-08 -1.34028e-06 0)
(1.17502e-08 -1.34234e-06 0)
(1.16886e-08 -1.3444e-06 0)
(1.16268e-08 -1.34646e-06 0)
(1.15649e-08 -1.34851e-06 0)
(1.15028e-08 -1.35055e-06 0)
(1.14406e-08 -1.35258e-06 0)
(1.13783e-08 -1.35461e-06 0)
(1.13158e-08 -1.35664e-06 0)
(1.12531e-08 -1.35865e-06 0)
(1.11903e-08 -1.36066e-06 0)
(1.11274e-08 -1.36267e-06 0)
(1.10643e-08 -1.36467e-06 0)
(1.10011e-08 -1.36666e-06 0)
(1.09377e-08 -1.36864e-06 0)
(1.08742e-08 -1.37062e-06 0)
(1.08105e-08 -1.37259e-06 0)
(1.07467e-08 -1.37455e-06 0)
(1.06828e-08 -1.37651e-06 0)
(1.06188e-08 -1.37846e-06 0)
(1.05546e-08 -1.3804e-06 0)
(1.04902e-08 -1.38233e-06 0)
(1.04258e-08 -1.38426e-06 0)
(1.03612e-08 -1.38618e-06 0)
(1.02964e-08 -1.38809e-06 0)
(1.02316e-08 -1.39e-06 0)
(1.01666e-08 -1.39189e-06 0)
(1.01015e-08 -1.39378e-06 0)
(1.00362e-08 -1.39566e-06 0)
(9.97084e-09 -1.39754e-06 0)
(9.90534e-09 -1.3994e-06 0)
(9.83972e-09 -1.40126e-06 0)
(9.77398e-09 -1.40311e-06 0)
(9.70811e-09 -1.40495e-06 0)
(9.64212e-09 -1.40679e-06 0)
(9.57602e-09 -1.40861e-06 0)
(9.50979e-09 -1.41043e-06 0)
(9.44345e-09 -1.41224e-06 0)
(9.377e-09 -1.41404e-06 0)
(9.31043e-09 -1.41583e-06 0)
(9.24375e-09 -1.41761e-06 0)
(9.17695e-09 -1.41939e-06 0)
(9.11005e-09 -1.42116e-06 0)
(9.04303e-09 -1.42291e-06 0)
(8.97592e-09 -1.42466e-06 0)
(8.90869e-09 -1.4264e-06 0)
(8.84136e-09 -1.42813e-06 0)
(8.77393e-09 -1.42985e-06 0)
(8.70639e-09 -1.43156e-06 0)
(8.63876e-09 -1.43327e-06 0)
(8.57102e-09 -1.43496e-06 0)
(8.50319e-09 -1.43664e-06 0)
(8.43526e-09 -1.43832e-06 0)
(8.36724e-09 -1.43998e-06 0)
(8.29913e-09 -1.44164e-06 0)
(8.23092e-09 -1.44328e-06 0)
(8.16263e-09 -1.44492e-06 0)
(8.09425e-09 -1.44654e-06 0)
(8.02578e-09 -1.44816e-06 0)
(7.95722e-09 -1.44977e-06 0)
(7.88859e-09 -1.45136e-06 0)
(7.81987e-09 -1.45295e-06 0)
(7.75107e-09 -1.45452e-06 0)
(7.6822e-09 -1.45609e-06 0)
(7.61325e-09 -1.45764e-06 0)
(7.54422e-09 -1.45919e-06 0)
(7.47513e-09 -1.46072e-06 0)
(7.40596e-09 -1.46224e-06 0)
(7.33672e-09 -1.46376e-06 0)
(7.26742e-09 -1.46526e-06 0)
(7.19804e-09 -1.46675e-06 0)
(7.12864e-09 -1.46823e-06 0)
(7.05902e-09 -1.4697e-06 0)
(6.99009e-09 -1.47118e-06 0)
(6.91778e-09 -1.47255e-06 0)
(6.85959e-09 -1.47422e-06 0)
(6.74886e-09 -1.47541e-06 0)
(6.61383e-09 -1.47646e-06 0)
(6.54093e-09 -1.47816e-06 0)
(6.48476e-09 -1.47942e-06 0)
(6.43006e-09 -1.48047e-06 0)
(6.37523e-09 -1.48168e-06 0)
(6.31974e-09 -1.48296e-06 0)
(6.26361e-09 -1.48423e-06 0)
(6.20679e-09 -1.48547e-06 0)
(6.14927e-09 -1.48671e-06 0)
(6.09104e-09 -1.48796e-06 0)
(6.03211e-09 -1.48921e-06 0)
(5.97247e-09 -1.49047e-06 0)
(5.91212e-09 -1.49172e-06 0)
(5.85107e-09 -1.49298e-06 0)
(5.7893e-09 -1.49423e-06 0)
(5.72683e-09 -1.49548e-06 0)
(5.66364e-09 -1.49674e-06 0)
(5.59975e-09 -1.49799e-06 0)
(5.53514e-09 -1.49925e-06 0)
(5.46982e-09 -1.5005e-06 0)
(5.40379e-09 -1.50175e-06 0)
(5.33704e-09 -1.503e-06 0)
(5.26959e-09 -1.50425e-06 0)
(5.20142e-09 -1.50549e-06 0)
(5.13253e-09 -1.50673e-06 0)
(5.06294e-09 -1.50797e-06 0)
(4.99263e-09 -1.5092e-06 0)
(4.92162e-09 -1.51043e-06 0)
(4.84989e-09 -1.51166e-06 0)
(4.77745e-09 -1.51287e-06 0)
(4.70431e-09 -1.51409e-06 0)
(4.63046e-09 -1.5153e-06 0)
(4.5559e-09 -1.5165e-06 0)
(4.48064e-09 -1.5177e-06 0)
(4.40468e-09 -1.51888e-06 0)
(4.32801e-09 -1.52006e-06 0)
(4.25065e-09 -1.52124e-06 0)
(4.17259e-09 -1.5224e-06 0)
(4.09385e-09 -1.52355e-06 0)
(4.01441e-09 -1.5247e-06 0)
(3.93428e-09 -1.52583e-06 0)
(3.85347e-09 -1.52695e-06 0)
(3.77199e-09 -1.52806e-06 0)
(3.68982e-09 -1.52916e-06 0)
(3.60699e-09 -1.53025e-06 0)
(3.52349e-09 -1.53132e-06 0)
(3.43933e-09 -1.53238e-06 0)
(3.35451e-09 -1.53343e-06 0)
(3.26904e-09 -1.53446e-06 0)
(3.18293e-09 -1.53547e-06 0)
(3.09618e-09 -1.53647e-06 0)
(3.0088e-09 -1.53744e-06 0)
(2.92079e-09 -1.53841e-06 0)
(2.83217e-09 -1.53935e-06 0)
(2.74294e-09 -1.54027e-06 0)
(2.6531e-09 -1.54118e-06 0)
(2.56268e-09 -1.54206e-06 0)
(2.47166e-09 -1.54292e-06 0)
(2.38008e-09 -1.54376e-06 0)
(2.28793e-09 -1.54457e-06 0)
(2.19523e-09 -1.54537e-06 0)
(2.10198e-09 -1.54613e-06 0)
(2.0082e-09 -1.54687e-06 0)
(1.9139e-09 -1.54759e-06 0)
(1.81909e-09 -1.54827e-06 0)
(1.72379e-09 -1.54893e-06 0)
(1.628e-09 -1.54956e-06 0)
(1.53174e-09 -1.55016e-06 0)
(1.43503e-09 -1.55073e-06 0)
(1.33788e-09 -1.55127e-06 0)
(1.2403e-09 -1.55177e-06 0)
(1.14232e-09 -1.55224e-06 0)
(1.04394e-09 -1.55268e-06 0)
(9.45183e-10 -1.55308e-06 0)
(8.46069e-10 -1.55345e-06 0)
(7.46614e-10 -1.55377e-06 0)
(6.46837e-10 -1.55406e-06 0)
(5.46757e-10 -1.55431e-06 0)
(4.46394e-10 -1.55452e-06 0)
(3.45767e-10 -1.55468e-06 0)
(2.44899e-10 -1.55481e-06 0)
(1.4381e-10 -1.55489e-06 0)
(4.25223e-11 -1.55492e-06 0)
(-5.89409e-11 -1.55491e-06 0)
(-1.60556e-10 -1.55485e-06 0)
(-2.623e-10 -1.55475e-06 0)
(-3.64148e-10 -1.55459e-06 0)
(-4.66073e-10 -1.55439e-06 0)
(-5.68052e-10 -1.55413e-06 0)
(-6.70056e-10 -1.55382e-06 0)
(-7.7206e-10 -1.55346e-06 0)
(-8.74034e-10 -1.55305e-06 0)
(-9.75951e-10 -1.55258e-06 0)
(-1.07778e-09 -1.55205e-06 0)
(-1.1795e-09 -1.55146e-06 0)
(-1.28107e-09 -1.55081e-06 0)
(-1.38246e-09 -1.55011e-06 0)
(-1.48364e-09 -1.54934e-06 0)
(-1.58459e-09 -1.54851e-06 0)
(-1.68526e-09 -1.54761e-06 0)
(-1.78563e-09 -1.54666e-06 0)
(-1.88565e-09 -1.54563e-06 0)
(-1.98531e-09 -1.54454e-06 0)
(-2.08455e-09 -1.54338e-06 0)
(-2.18335e-09 -1.54215e-06 0)
(-2.28167e-09 -1.54085e-06 0)
(-2.37948e-09 -1.53948e-06 0)
(-2.47673e-09 -1.53804e-06 0)
(-2.57339e-09 -1.53653e-06 0)
(-2.66943e-09 -1.53493e-06 0)
(-2.7648e-09 -1.53327e-06 0)
(-2.85947e-09 -1.53152e-06 0)
(-2.9534e-09 -1.5297e-06 0)
(-3.04655e-09 -1.5278e-06 0)
(-3.13888e-09 -1.52582e-06 0)
(-3.23035e-09 -1.52376e-06 0)
(-3.32093e-09 -1.52162e-06 0)
(-3.41056e-09 -1.5194e-06 0)
(-3.49923e-09 -1.51709e-06 0)
(-3.58688e-09 -1.5147e-06 0)
(-3.67347e-09 -1.51222e-06 0)
(-3.75896e-09 -1.50966e-06 0)
(-3.84333e-09 -1.50701e-06 0)
(-3.92652e-09 -1.50427e-06 0)
(-4.0085e-09 -1.50145e-06 0)
(-4.08922e-09 -1.49853e-06 0)
(-4.16866e-09 -1.49553e-06 0)
(-4.24677e-09 -1.49243e-06 0)
(-4.32351e-09 -1.48925e-06 0)
(-4.39884e-09 -1.48597e-06 0)
(-4.47273e-09 -1.4826e-06 0)
(-4.54513e-09 -1.47914e-06 0)
(-4.61602e-09 -1.47559e-06 0)
(-4.68535e-09 -1.47194e-06 0)
(-4.75309e-09 -1.4682e-06 0)
(-4.81919e-09 -1.46436e-06 0)
(-4.88364e-09 -1.46043e-06 0)
(-4.94636e-09 -1.45641e-06 0)
(-5.00737e-09 -1.45229e-06 0)
(-5.06658e-09 -1.44807e-06 0)
(-5.12399e-09 -1.44376e-06 0)
(-5.17955e-09 -1.43936e-06 0)
(-5.23324e-09 -1.43486e-06 0)
(-5.28501e-09 -1.43026e-06 0)
(-5.33484e-09 -1.42558e-06 0)
(-5.38268e-09 -1.42079e-06 0)
(-5.42853e-09 -1.41592e-06 0)
(-5.47232e-09 -1.41094e-06 0)
(-5.51405e-09 -1.40588e-06 0)
(-5.55367e-09 -1.40072e-06 0)
(-5.59118e-09 -1.39547e-06 0)
(-5.62653e-09 -1.39013e-06 0)
(-5.65971e-09 -1.3847e-06 0)
(-5.69069e-09 -1.37917e-06 0)
(-5.71947e-09 -1.37356e-06 0)
(-5.746e-09 -1.36786e-06 0)
(-5.77031e-09 -1.36208e-06 0)
(-5.79236e-09 -1.3562e-06 0)
(-5.81216e-09 -1.35024e-06 0)
(-5.82968e-09 -1.3442e-06 0)
(-5.84497e-09 -1.33807e-06 0)
(-5.85797e-09 -1.33186e-06 0)
(-5.86874e-09 -1.32558e-06 0)
(-5.87724e-09 -1.31921e-06 0)
(-5.88352e-09 -1.31277e-06 0)
(-5.88755e-09 -1.30625e-06 0)
(-5.8894e-09 -1.29966e-06 0)
(-5.88902e-09 -1.29299e-06 0)
(-5.88648e-09 -1.28626e-06 0)
(-5.88176e-09 -1.27946e-06 0)
(-5.8749e-09 -1.27259e-06 0)
(-5.86589e-09 -1.26565e-06 0)
(-5.85477e-09 -1.25865e-06 0)
(-5.84151e-09 -1.25159e-06 0)
(-5.82616e-09 -1.24447e-06 0)
(-5.80866e-09 -1.23729e-06 0)
(-5.78901e-09 -1.23006e-06 0)
(-5.76735e-09 -1.22275e-06 0)
(-5.74307e-09 -1.2155e-06 0)
(-5.71899e-09 -1.20784e-06 0)
(-5.68004e-09 -1.20067e-06 0)
(-5.63005e-09 -1.19269e-06 0)
(-5.58802e-09 -1.18314e-06 0)
(-5.54684e-09 -1.17414e-06 0)
(-5.50439e-09 -1.16536e-06 0)
(-5.46091e-09 -1.1565e-06 0)
(-5.41587e-09 -1.14767e-06 0)
(-5.36924e-09 -1.13892e-06 0)
(-5.32117e-09 -1.13027e-06 0)
(-5.27167e-09 -1.1217e-06 0)
(-5.2209e-09 -1.11322e-06 0)
(-5.16886e-09 -1.1048e-06 0)
(-5.11572e-09 -1.09648e-06 0)
(-5.0615e-09 -1.08824e-06 0)
(-5.00636e-09 -1.0801e-06 0)
(-4.95032e-09 -1.07203e-06 0)
(-4.89352e-09 -1.06407e-06 0)
(-4.83598e-09 -1.05619e-06 0)
(-4.77785e-09 -1.04841e-06 0)
(-4.7191e-09 -1.04072e-06 0)
(-4.65989e-09 -1.03314e-06 0)
(-4.60018e-09 -1.02564e-06 0)
(-4.54012e-09 -1.01824e-06 0)
(-4.47967e-09 -1.01094e-06 0)
(-4.41894e-09 -1.00374e-06 0)
(-4.3579e-09 -9.96632e-07 0)
(-4.29666e-09 -9.89631e-07 0)
(-4.23518e-09 -9.82721e-07 0)
(-4.17356e-09 -9.75919e-07 0)
(-4.11175e-09 -9.69208e-07 0)
(-4.04984e-09 -9.62606e-07 0)
(-3.98779e-09 -9.56096e-07 0)
(-3.92569e-09 -9.49694e-07 0)
(-3.86349e-09 -9.43385e-07 0)
(-3.80128e-09 -9.37185e-07 0)
(-3.739e-09 -9.31077e-07 0)
(-3.67674e-09 -9.25079e-07 0)
(-3.61444e-09 -9.19173e-07 0)
(-3.5522e-09 -9.13376e-07 0)
(-3.48995e-09 -9.07672e-07 0)
(-3.42777e-09 -9.02077e-07 0)
(-3.36562e-09 -8.96575e-07 0)
(-3.30356e-09 -8.9118e-07 0)
(-3.24156e-09 -8.85879e-07 0)
(-3.17966e-09 -8.80686e-07 0)
(-3.11784e-09 -8.75586e-07 0)
(-3.05614e-09 -8.70593e-07 0)
(-2.99453e-09 -8.65693e-07 0)
(-2.93305e-09 -8.60899e-07 0)
(-2.87167e-09 -8.56198e-07 0)
(-2.81044e-09 -8.51603e-07 0)
(-2.7493e-09 -8.47101e-07 0)
(-2.68831e-09 -8.42704e-07 0)
(-2.62742e-09 -8.384e-07 0)
(-2.56667e-09 -8.342e-07 0)
(-2.50603e-09 -8.30092e-07 0)
(-2.44552e-09 -8.26089e-07 0)
(-2.38512e-09 -8.22177e-07 0)
(-2.32484e-09 -8.18369e-07 0)
(-2.26465e-09 -8.14653e-07 0)
(-2.20459e-09 -8.11039e-07 0)
(-2.14462e-09 -8.07518e-07 0)
(-2.08476e-09 -8.04099e-07 0)
(-2.02499e-09 -8.00771e-07 0)
(-1.96532e-09 -7.97545e-07 0)
(-1.90573e-09 -7.9441e-07 0)
(-1.84624e-09 -7.91377e-07 0)
(-1.78682e-09 -7.88435e-07 0)
(-1.72749e-09 -7.85594e-07 0)
(-1.66822e-09 -7.82844e-07 0)
(-1.60904e-09 -7.80194e-07 0)
(-1.54992e-09 -7.77635e-07 0)
(-1.49086e-09 -7.75176e-07 0)
(-1.43185e-09 -7.72808e-07 0)
(-1.3729e-09 -7.70539e-07 0)
(-1.31397e-09 -7.68362e-07 0)
(-1.25507e-09 -7.66283e-07 0)
(-1.19617e-09 -7.64296e-07 0)
(-1.13727e-09 -7.62406e-07 0)
(-1.07834e-09 -7.60609e-07 0)
(-1.01937e-09 -7.58909e-07 0)
(-9.60327e-10 -7.57303e-07 0)
(-9.01213e-10 -7.55794e-07 0)
(-8.42027e-10 -7.54379e-07 0)
(-7.82809e-10 -7.53062e-07 0)
(-7.23637e-10 -7.51839e-07 0)
(-6.64684e-10 -7.50719e-07 0)
(-6.06216e-10 -7.49675e-07 0)
(-5.48692e-10 -7.48796e-07 0)
(-4.92581e-10 -7.47784e-07 0)
(-4.3878e-10 -7.47601e-07 0)
(-3.86278e-10 -7.45e-07 0)
(-3.38646e-10 -7.50466e-07 0)
(-2.77086e-10 -7.27523e-07 0)
(-2.56941e-10 -7.86813e-07 0)
(-1.38533e-10 -6.8687e-07 0)
)
;
    }
    bottomWall
    {
        type            calculated;
        value           nonuniform List<vector> 
449
(
(-53.1539 -0.960698 0)
(-35.0771 -0.00282563 0)
(-34.6136 -0.000272538 0)
(-33.2034 -0.000367927 0)
(-32.0997 -0.000302603 0)
(-31.1314 -0.000271298 0)
(-30.2323 -0.000253294 0)
(-29.3799 -0.000237602 0)
(-28.5855 -0.000219064 0)
(-27.8597 -0.000199036 0)
(-27.2026 -0.000179537 0)
(-26.6105 -0.000161593 0)
(-26.0765 -0.000145857 0)
(-25.5922 -0.000132319 0)
(-25.151 -0.000120074 0)
(-24.7508 -0.000109414 0)
(-24.3827 -0.0001003 0)
(-24.0451 -9.19663e-05 0)
(-23.7342 -8.49164e-05 0)
(-23.445 -7.87119e-05 0)
(-23.1768 -7.31079e-05 0)
(-22.9261 -6.82051e-05 0)
(-22.6917 -6.35674e-05 0)
(-22.473 -5.94737e-05 0)
(-22.2667 -5.61182e-05 0)
(-22.071 -5.28622e-05 0)
(-21.8873 -4.97717e-05 0)
(-21.713 -4.69802e-05 0)
(-21.5486 -4.42226e-05 0)
(-21.3936 -4.1898e-05 0)
(-21.2452 -4.0056e-05 0)
(-21.1027 -3.81424e-05 0)
(-20.9677 -3.62415e-05 0)
(-20.8385 -3.44321e-05 0)
(-20.716 -3.27309e-05 0)
(-20.5987 -3.14149e-05 0)
(-20.4854 -3.01357e-05 0)
(-20.377 -2.88437e-05 0)
(-20.2726 -2.77737e-05 0)
(-20.1716 -2.67543e-05 0)
(-20.0743 -2.5751e-05 0)
(-19.9803 -2.46712e-05 0)
(-19.8907 -2.36749e-05 0)
(-19.8037 -2.28437e-05 0)
(-19.7198 -2.1962e-05 0)
(-19.6391 -2.11121e-05 0)
(-19.5613 -2.03745e-05 0)
(-19.4857 -1.96562e-05 0)
(-19.4129 -1.905e-05 0)
(-19.3416 -1.85755e-05 0)
(-19.272 -1.79812e-05 0)
(-19.2049 -1.72883e-05 0)
(-19.1403 -1.67822e-05 0)
(-19.0767 -1.64658e-05 0)
(-19.0143 -1.59216e-05 0)
(-18.9546 -1.5407e-05 0)
(-18.8958 -1.49179e-05 0)
(-18.8397 -1.45568e-05 0)
(-18.7834 -1.41701e-05 0)
(-18.73 -1.36927e-05 0)
(-18.6771 -1.33225e-05 0)
(-18.6263 -1.28879e-05 0)
(-18.5767 -1.26303e-05 0)
(-18.5276 -1.24856e-05 0)
(-18.4788 -1.21954e-05 0)
(-18.4319 -1.18292e-05 0)
(-18.3858 -1.15502e-05 0)
(-18.3408 -1.13296e-05 0)
(-18.2962 -1.09426e-05 0)
(-18.2541 -1.05516e-05 0)
(-18.2125 -1.03806e-05 0)
(-18.1715 -1.02422e-05 0)
(-18.1307 -9.97136e-06 0)
(-18.0918 -9.58275e-06 0)
(-18.054 -9.34057e-06 0)
(-18.0168 -9.04779e-06 0)
(-17.9812 -8.74299e-06 0)
(-17.9463 -8.5785e-06 0)
(-17.9118 -8.51532e-06 0)
(-17.8773 -8.43769e-06 0)
(-17.8433 -8.2258e-06 0)
(-17.8103 -7.94341e-06 0)
(-17.7785 -7.67902e-06 0)
(-17.7475 -7.53811e-06 0)
(-17.7166 -7.48445e-06 0)
(-17.6859 -7.52668e-06 0)
(-17.6545 -7.45506e-06 0)
(-17.6243 -7.10261e-06 0)
(-17.5958 -6.84238e-06 0)
(-17.5676 -6.72969e-06 0)
(-17.5398 -6.59135e-06 0)
(-17.5126 -6.51674e-06 0)
(-17.4853 -6.4042e-06 0)
(-17.4589 -6.2811e-06 0)
(-17.4326 -6.29366e-06 0)
(-17.4059 -6.20375e-06 0)
(-17.3802 -5.96725e-06 0)
(-17.3555 -5.79492e-06 0)
(-17.3311 -5.67908e-06 0)
(-17.3072 -5.5755e-06 0)
(-17.2836 -5.45455e-06 0)
(-17.2607 -5.27621e-06 0)
(-17.2386 -5.2323e-06 0)
(-17.2159 -5.27096e-06 0)
(-17.1932 -5.25155e-06 0)
(-17.1706 -5.2206e-06 0)
(-17.1481 -5.21689e-06 0)
(-17.1254 -4.99235e-06 0)
(-17.1048 -4.79764e-06 0)
(-17.0837 -4.66397e-06 0)
(-17.0642 -4.53513e-06 0)
(-17.044 -4.56454e-06 0)
(-17.0241 -4.49796e-06 0)
(-17.0045 -4.52167e-06 0)
(-16.9842 -4.61101e-06 0)
(-16.9637 -4.5787e-06 0)
(-16.9436 -4.42815e-06 0)
(-16.9244 -4.31031e-06 0)
(-16.9053 -4.32015e-06 0)
(-16.8859 -4.22157e-06 0)
(-16.8676 -3.96279e-06 0)
(-16.8505 -3.84445e-06 0)
(-16.8332 -3.76506e-06 0)
(-16.8166 -3.68585e-06 0)
(-16.7999 -3.71564e-06 0)
(-16.783 -3.79627e-06 0)
(-16.7655 -3.80682e-06 0)
(-16.7483 -3.84203e-06 0)
(-16.7304 -3.85424e-06 0)
(-16.7131 -3.6869e-06 0)
(-16.6968 -3.4282e-06 0)
(-16.6818 -3.19562e-06 0)
(-16.6675 -3.14306e-06 0)
(-16.6529 -3.12184e-06 0)
(-16.6387 -3.00538e-06 0)
(-16.6251 -3.02621e-06 0)
(-16.6106 -3.12061e-06 0)
(-16.596 -3.15499e-06 0)
(-16.5811 -3.22674e-06 0)
(-16.5657 -3.26783e-06 0)
(-16.5503 -3.38901e-06 0)
(-16.5338 -3.39439e-06 0)
(-16.5183 -3.33412e-06 0)
(-16.5023 -3.28585e-06 0)
(-16.4873 -3.11042e-06 0)
(-16.4729 -2.92814e-06 0)
(-16.4596 -2.77064e-06 0)
(-16.4467 -2.76356e-06 0)
(-16.4333 -2.72678e-06 0)
(-16.4206 -2.63041e-06 0)
(-16.4081 -2.54656e-06 0)
(-16.3961 -2.57021e-06 0)
(-16.3833 -2.58554e-06 0)
(-16.3711 -2.61899e-06 0)
(-16.3578 -2.81416e-06 0)
(-16.3437 -2.79322e-06 0)
(-16.3306 -2.71036e-06 0)
(-16.3173 -2.70675e-06 0)
(-16.3042 -2.68592e-06 0)
(-16.291 -2.53265e-06 0)
(-16.2794 -2.39986e-06 0)
(-16.2674 -2.361e-06 0)
(-16.2561 -2.24318e-06 0)
(-16.2452 -2.3493e-06 0)
(-16.2327 -2.55178e-06 0)
(-16.2198 -2.53673e-06 0)
(-16.2074 -2.42611e-06 0)
(-16.1956 -2.48648e-06 0)
(-16.1825 -2.4991e-06 0)
(-16.1705 -2.40919e-06 0)
(-16.1583 -2.35099e-06 0)
(-16.1469 -2.23477e-06 0)
(-16.1358 -2.21697e-06 0)
(-16.1251 -2.22756e-06 0)
(-16.1151 -2.17735e-06 0)
(-16.1053 -2.21411e-06 0)
(-16.0948 -2.08821e-06 0)
(-16.0859 -2.04688e-06 0)
(-16.0755 -2.17437e-06 0)
(-16.0653 -1.96871e-06 0)
(-16.0567 -1.82656e-06 0)
(-16.0477 -1.93719e-06 0)
(-16.0378 -1.95832e-06 0)
(-16.0283 -1.9446e-06 0)
(-16.0183 -2.04832e-06 0)
(-16.0074 -2.14306e-06 0)
(-15.9962 -2.0468e-06 0)
(-15.9863 -1.86627e-06 0)
(-15.9767 -1.73268e-06 0)
(-15.968 -1.6409e-06 0)
(-15.9592 -1.71888e-06 0)
(-15.9494 -1.70834e-06 0)
(-15.9406 -1.63192e-06 0)
(-15.9314 -1.8189e-06 0)
(-15.9202 -1.90877e-06 0)
(-15.9098 -1.83614e-06 0)
(-15.8993 -1.84301e-06 0)
(-15.8885 -1.8543e-06 0)
(-15.8777 -1.72487e-06 0)
(-15.8683 -1.59395e-06 0)
(-15.8588 -1.57873e-06 0)
(-15.8494 -1.4981e-06 0)
(-15.8407 -1.4269e-06 0)
(-15.8319 -1.4733e-06 0)
(-15.8223 -1.54568e-06 0)
(-15.8124 -1.47451e-06 0)
(-15.8035 -1.45122e-06 0)
(-15.7937 -1.4844e-06 0)
(-15.7842 -1.44449e-06 0)
(-15.7747 -1.42816e-06 0)
(-15.7652 -1.42093e-06 0)
(-15.7556 -1.45789e-06 0)
(-15.7454 -1.50082e-06 0)
(-15.735 -1.41139e-06 0)
(-15.7259 -1.3903e-06 0)
(-15.7155 -1.46133e-06 0)
(-15.7051 -1.48129e-06 0)
(-15.6942 -1.52003e-06 0)
(-15.6831 -1.39969e-06 0)
(-15.6739 -1.30861e-06 0)
(-15.6638 -1.33689e-06 0)
(-15.6538 -1.27214e-06 0)
(-15.6445 -1.28398e-06 0)
(-15.6342 -1.23399e-06 0)
(-15.6255 -1.22938e-06 0)
(-15.615 -1.22261e-06 0)
(-15.6062 -1.11158e-06 0)
(-15.5973 -1.18583e-06 0)
(-15.5871 -1.18302e-06 0)
(-15.578 -1.09452e-06 0)
(-15.5691 -1.13623e-06 0)
(-15.5591 -1.09713e-06 0)
(-15.5506 -1.1375e-06 0)
(-15.5397 -1.18257e-06 0)
(-15.5303 -9.9459e-07 0)
(-15.5225 -8.56878e-07 0)
(-15.5154 -8.91314e-07 0)
(-15.5067 -1.05067e-06 0)
(-15.4964 -1.10059e-06 0)
(-15.4867 -1.0755e-06 0)
(-15.4767 -1.05401e-06 0)
(-15.4673 -9.63498e-07 0)
(-15.4589 -8.43116e-07 0)
(-15.4515 -8.27644e-07 0)
(-15.443 -9.13331e-07 0)
(-15.4337 -8.80714e-07 0)
(-15.4258 -9.02207e-07 0)
(-15.4158 -9.71615e-07 0)
(-15.4063 -8.85056e-07 0)
(-15.398 -8.26534e-07 0)
(-15.3896 -7.75691e-07 0)
(-15.3822 -7.23249e-07 0)
(-15.3746 -7.59124e-07 0)
(-15.3662 -7.88415e-07 0)
(-15.3578 -7.53619e-07 0)
(-15.35 -7.18229e-07 0)
(-15.3421 -7.74105e-07 0)
(-15.3329 -7.68579e-07 0)
(-15.3251 -6.67555e-07 0)
(-15.3179 -6.88714e-07 0)
(-15.3093 -7.46952e-07 0)
(-15.3006 -7.16207e-07 0)
(-15.2928 -6.46493e-07 0)
(-15.2856 -6.29062e-07 0)
(-15.2779 -6.37063e-07 0)
(-15.2703 -6.37487e-07 0)
(-15.2624 -7.3101e-07 0)
(-15.2523 -7.34657e-07 0)
(-15.2442 -6.00048e-07 0)
(-15.2374 -5.31247e-07 0)
(-15.2308 -5.62186e-07 0)
(-15.223 -6.40464e-07 0)
(-15.2142 -6.38267e-07 0)
(-15.2064 -5.49618e-07 0)
(-15.1998 -5.18497e-07 0)
(-15.1926 -5.61289e-07 0)
(-15.1847 -5.09128e-07 0)
(-15.1788 -4.86234e-07 0)
(-15.1713 -5.34729e-07 0)
(-15.1639 -5.52412e-07 0)
(-15.1558 -5.23348e-07 0)
(-15.149 -4.53455e-07 0)
(-15.1428 -4.58908e-07 0)
(-15.1356 -5.08992e-07 0)
(-15.1277 -4.82319e-07 0)
(-15.1213 -3.86922e-07 0)
(-15.1162 -3.69031e-07 0)
(-15.11 -4.60445e-07 0)
(-15.1019 -4.79468e-07 0)
(-15.0951 -4.42733e-07 0)
(-15.088 -4.00141e-07 0)
(-15.0824 -3.87669e-07 0)
(-15.0756 -4.11226e-07 0)
(-15.0692 -3.6363e-07 0)
(-15.0637 -3.58703e-07 0)
(-15.0572 -4.28826e-07 0)
(-15.0492 -4.23538e-07 0)
(-15.0429 -4.18627e-07 0)
(-15.0349 -4.50746e-07 0)
(-15.0273 -4.24307e-07 0)
(-15.0201 -4.3632e-07 0)
(-15.0119 -3.92689e-07 0)
(-15.0061 -2.95073e-07 0)
(-15.0013 -2.41412e-07 0)
(-14.9974 -2.65714e-07 0)
(-14.9914 -3.5556e-07 0)
(-14.984 -3.63898e-07 0)
(-14.9777 -3.43306e-07 0)
(-14.9709 -3.38596e-07 0)
(-14.9646 -3.27484e-07 0)
(-14.9581 -3.76029e-07 0)
(-14.9497 -3.66132e-07 0)
(-14.9435 -2.84081e-07 0)
(-14.9383 -2.46957e-07 0)
(-14.9335 -2.62324e-07 0)
(-14.9275 -2.72045e-07 0)
(-14.9222 -2.57662e-07 0)
(-14.9167 -2.84806e-07 0)
(-14.91 -3.18814e-07 0)
(-14.9029 -3.17677e-07 0)
(-14.8962 -2.61496e-07 0)
(-14.8915 -2.16933e-07 0)
(-14.8866 -2.51332e-07 0)
(-14.8801 -3.10735e-07 0)
(-14.8724 -3.171e-07 0)
(-14.8656 -2.6826e-07 0)
(-14.8601 -2.31232e-07 0)
(-14.8548 -2.49801e-07 0)
(-14.8482 -2.63804e-07 0)
(-14.8422 -2.13266e-07 0)
(-14.838 -1.83986e-07 0)
(-14.8332 -2.37708e-07 0)
(-14.8262 -2.58644e-07 0)
(-14.8203 -1.92509e-07 0)
(-14.8165 -1.54037e-07 0)
(-14.8124 -2.08327e-07 0)
(-14.8056 -2.43816e-07 0)
(-14.7996 -2.09993e-07 0)
(-14.7946 -2.06977e-07 0)
(-14.7886 -2.04706e-07 0)
(-14.7836 -1.59358e-07 0)
(-14.78 -1.56623e-07 0)
(-14.7749 -1.75868e-07 0)
(-14.7702 -1.57968e-07 0)
(-14.7661 -1.81619e-07 0)
(-14.7598 -2.01091e-07 0)
(-14.7545 -1.63303e-07 0)
(-14.7503 -1.7331e-07 0)
(-14.7442 -1.87975e-07 0)
(-14.7392 -1.55593e-07 0)
(-14.735 -1.64636e-07 0)
(-14.7292 -1.72899e-07 0)
(-14.7244 -1.43672e-07 0)
(-14.7203 -1.39627e-07 0)
(-14.7151 -1.33988e-07 0)
(-14.7105 -1.3544e-07 0)
(-14.7046 -1.54961e-07 0)
(-14.6984 -1.65882e-07 0)
(-14.6917 -1.70784e-07 0)
(-14.6851 -1.74469e-07 0)
(-14.6781 -1.89192e-07 0)
(-14.6703 -2.04036e-07 0)
(-14.6621 -1.82799e-07 0)
(-14.6561 -1.36504e-07 0)
(-14.6515 -1.38958e-07 0)
(-14.6453 -1.49863e-07 0)
(-14.6399 -1.36478e-07 0)
(-14.6347 -1.31805e-07 0)
(-14.6297 -1.15894e-07 0)
(-14.6258 -1.07837e-07 0)
(-14.6213 -1.30331e-07 0)
(-14.6156 -1.28093e-07 0)
(-14.6114 -1.04552e-07 0)
(-14.6075 -1.17868e-07 0)
(-14.6023 -1.13059e-07 0)
(-14.5988 -7.77392e-08 0)
(-14.5963 -7.31239e-08 0)
(-14.5932 -1.05553e-07 0)
(-14.5881 -1.29115e-07 0)
(-14.5832 -1.31409e-07 0)
(-14.578 -1.10943e-07 0)
(-14.5746 -8.15269e-08 0)
(-14.5717 -8.96615e-08 0)
(-14.5677 -9.05046e-08 0)
(-14.5647 -7.02329e-08 0)
(-14.5622 -8.42045e-08 0)
(-14.5581 -9.49484e-08 0)
(-14.5548 -8.44965e-08 0)
(-14.5515 -9.60511e-08 0)
(-14.5474 -8.89842e-08 0)
(-14.5447 -7.15993e-08 0)
(-14.5419 -6.45267e-08 0)
(-14.5397 -7.55362e-08 0)
(-14.536 -8.94723e-08 0)
(-14.5328 -8.76003e-08 0)
(-14.5292 -1.02536e-07 0)
(-14.5248 -1.0019e-07 0)
(-14.5215 -9.27936e-08 0)
(-14.5177 -1.00621e-07 0)
(-14.5138 -7.94297e-08 0)
(-14.5116 -6.10147e-08 0)
(-14.5091 -5.95669e-08 0)
(-14.507 -5.7409e-08 0)
(-14.5047 -8.13856e-08 0)
(-14.5007 -9.03919e-08 0)
(-14.4976 -7.19857e-08 0)
(-14.4951 -7.48538e-08 0)
(-14.4918 -9.34512e-08 0)
(-14.4879 -8.2358e-08 0)
(-14.4855 -6.48983e-08 0)
(-14.4829 -5.79847e-08 0)
(-14.481 -5.48107e-08 0)
(-14.4786 -6.00516e-08 0)
(-14.4764 -7.42524e-08 0)
(-14.4729 -7.24821e-08 0)
(-14.4708 -5.79722e-08 0)
(-14.4685 -5.84596e-08 0)
(-14.4663 -4.50585e-08 0)
(-14.4651 -2.94565e-08 0)
(-14.4641 -3.50555e-08 0)
(-14.4624 -5.46699e-08 0)
(-14.4599 -6.56734e-08 0)
(-14.4573 -5.3933e-08 0)
(-14.4557 -4.71609e-08 0)
(-14.4537 -5.06719e-08 0)
(-14.4518 -4.64106e-08 0)
(-14.4501 -6.34333e-08 0)
(-14.4469 -6.82535e-08 0)
(-14.4448 -5.53225e-08 0)
(-14.4426 -6.11934e-08 0)
(-14.4401 -5.42527e-08 0)
(-14.4385 -3.92268e-08 0)
(-14.4371 -5.13871e-08 0)
(-14.4345 -7.44626e-08 0)
(-14.4313 -6.53112e-08 0)
(-14.4294 -4.94212e-08 0)
(-14.4275 -4.85412e-08 0)
(-14.4257 -3.86159e-08 0)
(-14.4246 -3.97344e-08 0)
(-14.4227 -5.70829e-08 0)
(-14.4201 -5.22461e-08 0)
(-14.4186 -4.15007e-08 0)
(-14.4169 -4.72557e-08 0)
(-14.415 -5.52024e-08 0)
(-14.4127 -4.18494e-08 0)
(-14.4118 -4.2766e-08 0)
(-14.4094 -3.74775e-08 0)
(-14.4089 -4.4466e-08 0)
(-14.4059 -3.99842e-08 0)
)
;
    }
    symmetry
    {
        type            symmetryPlane;
    }
    frontAndBack
    {
        type            empty;
    }
}


// ************************************************************************* //
