/*--------------------------------*- C++ -*----------------------------------*\
| =========                 |                                                 |
| \\      /  F ield         | OpenFOAM: The Open Source CFD Toolbox           |
|  \\    /   O peration     | Version:  v2012                                 |
|   \\  /    A nd           | Website:  www.openfoam.com                      |
|    \\/     M anipulation  |                                                 |
\*---------------------------------------------------------------------------*/
FoamFile
{
    version     2.0;
    format      ascii;
    class       volScalarField;
    location    "52.5";
    object      yPlus;
}
// * * * * * * * * * * * * * * * * * * * * * * * * * * * * * * * * * * * * * //

dimensions      [0 0 0 0 0 0 0];


internalField   uniform 0;

boundaryField
{
    inlet
    {
        type            calculated;
        value           uniform 0;
    }
    outlet
    {
        type            calculated;
        value           uniform 0;
    }
    topWall
    {
        type            calculated;
        value           nonuniform List<scalar> 
545
(
0.0708349
0.12214
0.156688
0.184171
0.207426
0.22776
0.245909
0.262334
0.277351
0.291186
0.30401
0.315954
0.327123
0.337601
0.34746
0.356757
0.365544
0.373863
0.381753
0.389246
0.396372
0.403155
0.409621
0.415789
0.421678
0.427306
0.432688
0.437839
0.442771
0.447497
0.452029
0.456375
0.460547
0.464553
0.468401
0.472099
0.475655
0.479075
0.482366
0.485533
0.488582
0.49152
0.494349
0.497077
0.499706
0.502241
0.504686
0.507046
0.509322
0.51152
0.513642
0.515691
0.517671
0.519583
0.521431
0.523217
0.524943
0.526613
0.528227
0.529789
0.531299
0.532761
0.534175
0.535544
0.536869
0.538152
0.539394
0.540598
0.541763
0.542892
0.543985
0.545045
0.546058
0.547038
0.548009
0.548971
0.549925
0.55087
0.551807
0.552735
0.553655
0.554567
0.555471
0.556366
0.557254
0.558134
0.559007
0.559872
0.560729
0.561578
0.562421
0.563256
0.564083
0.564904
0.565717
0.566523
0.567249
0.567898
0.568546
0.569193
0.56984
0.570486
0.571131
0.571776
0.57242
0.573063
0.573706
0.574348
0.574989
0.575629
0.576269
0.576908
0.577546
0.578184
0.578821
0.579457
0.580092
0.580727
0.58136
0.581993
0.582625
0.583257
0.583887
0.584517
0.585146
0.585774
0.586401
0.587028
0.587653
0.588278
0.588902
0.589525
0.590147
0.590768
0.591388
0.592007
0.592626
0.593243
0.59386
0.594475
0.59509
0.595704
0.596316
0.596928
0.597539
0.598149
0.598758
0.599365
0.599972
0.600578
0.601182
0.601786
0.602389
0.60299
0.603591
0.60419
0.604788
0.605386
0.605982
0.606577
0.607171
0.607763
0.608355
0.608946
0.609535
0.610123
0.61071
0.611296
0.61188
0.612464
0.613046
0.613627
0.614207
0.614785
0.615362
0.615939
0.616513
0.617087
0.617659
0.61823
0.618799
0.619368
0.619935
0.6205
0.621065
0.621627
0.622189
0.622749
0.623308
0.623866
0.624422
0.624976
0.625529
0.626081
0.626632
0.62718
0.627728
0.628274
0.628818
0.629361
0.629903
0.630443
0.630981
0.631518
0.632054
0.632588
0.63312
0.633651
0.63418
0.634708
0.635234
0.635758
0.636281
0.636802
0.637321
0.637839
0.638355
0.63887
0.639383
0.639894
0.640403
0.640911
0.641417
0.641921
0.642424
0.642925
0.643424
0.643921
0.644416
0.64491
0.645402
0.645892
0.64638
0.646867
0.647351
0.647834
0.648315
0.648794
0.649271
0.649746
0.650219
0.65069
0.65116
0.651627
0.652093
0.652556
0.653018
0.653477
0.653935
0.65439
0.654844
0.655295
0.655745
0.656192
0.656637
0.657081
0.657522
0.657961
0.658398
0.658833
0.659266
0.659696
0.660125
0.660551
0.660975
0.661397
0.661817
0.662235
0.66265
0.66304
0.663407
0.663775
0.664145
0.664516
0.664888
0.665262
0.665637
0.666013
0.66639
0.666768
0.667147
0.667527
0.667909
0.668291
0.668674
0.669057
0.669442
0.669827
0.670213
0.670599
0.670986
0.671373
0.671761
0.672149
0.672538
0.672926
0.673315
0.673703
0.674092
0.674481
0.674869
0.675257
0.675645
0.676032
0.676419
0.676806
0.677191
0.677576
0.67796
0.678343
0.678725
0.679106
0.679485
0.679863
0.68024
0.680615
0.680988
0.68136
0.681729
0.682097
0.682462
0.682825
0.683186
0.683544
0.683899
0.684251
0.684601
0.684947
0.685291
0.685631
0.685967
0.6863
0.686628
0.686953
0.687274
0.68759
0.687902
0.68821
0.688512
0.68881
0.689102
0.689389
0.689671
0.689947
0.690217
0.690481
0.690739
0.69099
0.691235
0.691473
0.691705
0.691929
0.692145
0.692354
0.692555
0.692748
0.692933
0.69311
0.693278
0.693437
0.693587
0.693728
0.693859
0.693981
0.694093
0.694194
0.694285
0.694366
0.694435
0.694494
0.694541
0.694577
0.694601
0.694613
0.694613
0.694601
0.694576
0.694538
0.694486
0.694422
0.694344
0.694252
0.694146
0.694026
0.693891
0.693742
0.693578
0.693398
0.693204
0.692993
0.692767
0.692525
0.692267
0.691993
0.691701
0.691393
0.691069
0.690726
0.690367
0.68999
0.689596
0.689183
0.688753
0.688304
0.687837
0.687352
0.686848
0.686325
0.685784
0.685224
0.684644
0.684045
0.683427
0.68279
0.682134
0.681457
0.680762
0.680046
0.679311
0.678557
0.677783
0.676989
0.676175
0.675342
0.674489
0.673616
0.672724
0.671812
0.670881
0.669931
0.668961
0.667972
0.666964
0.665937
0.664892
0.663827
0.662744
0.661643
0.660524
0.659387
0.658232
0.65706
0.655871
0.654664
0.653441
0.652202
0.650946
0.649675
0.648388
0.647086
0.645622
0.644002
0.642383
0.640765
0.639151
0.63754
0.635933
0.634331
0.632735
0.631146
0.629563
0.627989
0.626422
0.624865
0.623317
0.621778
0.620251
0.618734
0.617229
0.615735
0.614254
0.612785
0.611329
0.609887
0.608458
0.607043
0.605642
0.604257
0.602886
0.60153
0.60019
0.598865
0.597556
0.596264
0.594988
0.593728
0.592485
0.59126
0.590051
0.58886
0.587687
0.586532
0.585394
0.584275
0.583174
0.582091
0.581027
0.579982
0.578956
0.577949
0.576961
0.575993
0.575045
0.574116
0.573207
0.572318
0.571449
0.570601
0.569772
0.568965
0.568178
0.567412
0.566668
0.565944
0.565241
0.56456
0.5639
0.563262
0.562646
0.562052
0.561479
0.560929
0.560401
0.559895
0.559411
0.55895
0.558512
0.558096
0.557704
0.557334
0.556987
0.556663
0.556362
0.556084
0.555829
0.555598
0.55539
0.555206
0.555045
0.554907
0.554793
0.554703
0.554635
0.554595
0.554565
)
;
    }
    bottomWall
    {
        type            calculated;
        value           nonuniform List<scalar> 
449
(
0.139439
0.088953
0.0758037
0.0694326
0.0652498
0.0621238
0.0596293
0.057566
0.0558153
0.0542994
0.0529659
0.0517785
0.0507107
0.0497423
0.0488577
0.0480447
0.0472932
0.0465955
0.0459448
0.0453357
0.0447637
0.0442247
0.0437155
0.0432331
0.0427752
0.0423396
0.0419243
0.0415276
0.0411482
0.0407846
0.0404358
0.0401006
0.039778
0.0394674
0.0391678
0.0388785
0.038599
0.0383286
0.0380668
0.0378132
0.0375671
0.0373284
0.0370965
0.0368711
0.0366519
0.0364385
0.0362307
0.0360283
0.0358309
0.0356384
0.0354505
0.035267
0.0350877
0.0349126
0.0347413
0.0345737
0.0344097
0.0342492
0.0340919
0.0339379
0.0337869
0.0336389
0.0334937
0.0333513
0.0332115
0.0330743
0.0329396
0.0328072
0.0326772
0.0325494
0.0324238
0.0323003
0.0321788
0.0320593
0.0319417
0.0318259
0.031712
0.0315998
0.0314893
0.0313804
0.0312732
0.0311675
0.0310634
0.0309607
0.0308595
0.0307596
0.0306612
0.030564
0.0304682
0.0303736
0.0302802
0.0301881
0.0300971
0.0300073
0.0299186
0.029831
0.0297444
0.0296589
0.0295744
0.0294909
0.0294084
0.0293268
0.0292462
0.0291664
0.0290876
0.0290096
0.0289325
0.0288562
0.0287808
0.0287061
0.0286323
0.0285592
0.0284868
0.0284152
0.0283443
0.0282742
0.0282047
0.0281359
0.0280678
0.0280004
0.0279336
0.0278674
0.0278019
0.0277369
0.0276726
0.0276088
0.0275457
0.0274831
0.0274211
0.0273596
0.0272986
0.0272382
0.0271783
0.027119
0.0270601
0.0270017
0.0269439
0.0268865
0.0268295
0.0267731
0.0267171
0.0266615
0.0266064
0.0265517
0.0264975
0.0264437
0.0263903
0.0263373
0.0262847
0.0262326
0.0261808
0.0261294
0.0260783
0.0260277
0.0259774
0.0259275
0.025878
0.0258288
0.0257799
0.0257314
0.0256833
0.0256355
0.025588
0.0255408
0.025494
0.0254474
0.0254012
0.0253553
0.0253097
0.0252644
0.0252195
0.0251747
0.0251303
0.0250888
0.0250496
0.0250102
0.0249708
0.0249313
0.0248917
0.024852
0.0248121
0.0247722
0.0247321
0.024692
0.0246517
0.0246113
0.0245708
0.0245303
0.0244896
0.0244488
0.0244079
0.0243669
0.0243258
0.0242846
0.0242434
0.024202
0.0241605
0.024119
0.0240773
0.0240356
0.0239938
0.0239519
0.0239099
0.0238678
0.0238256
0.0237834
0.0237411
0.0236987
0.0236562
0.0236136
0.023571
0.0235283
0.0234855
0.0234426
0.0233997
0.0233567
0.0233136
0.0232705
0.0232273
0.023184
0.0231407
0.0230973
0.0230539
0.0230104
0.0229668
0.0229232
0.0228795
0.0228358
0.022792
0.0227482
0.0227043
0.0226604
0.0226164
0.0225723
0.0225283
0.0224841
0.02244
0.0223958
0.0223515
0.0223072
0.0222629
0.0222186
0.0221742
0.0221297
0.0220853
0.0220408
0.0219962
0.0219517
0.0219071
0.0218625
0.0218178
0.0217732
0.0217285
0.0216838
0.0216391
0.0215943
0.0215495
0.0215048
0.0214599
0.0214151
0.0213703
0.0213254
0.0212806
0.0212357
0.0211908
0.0211459
0.021101
0.0210561
0.0210112
0.0209663
0.0209214
0.0208765
0.0208316
0.0207867
0.0207417
0.0206968
0.0206519
0.020607
0.0205621
0.0205172
0.0204723
0.0204274
0.0203825
0.0203377
0.0202928
0.020248
0.0202032
0.0201584
0.0201136
0.0200688
0.020024
0.0199793
0.0199345
0.0198898
0.0198451
0.0198005
0.0197558
0.0197112
0.0196666
0.019622
0.0195775
0.019533
0.0194885
0.019444
0.0193996
0.0193552
0.0193108
0.0192665
0.0192222
0.0191779
0.0191337
0.0190894
0.0190453
0.0190011
0.018957
0.018913
0.018869
0.018825
0.018781
0.0187371
0.0186933
0.0186495
0.0186057
0.018562
0.0185183
0.0184746
0.018431
0.0183875
0.018344
0.0183005
0.0182571
0.0182138
0.0181705
0.0181272
0.018084
0.0180408
0.0179977
0.0179547
0.0179117
0.0178687
0.0178259
0.017783
0.0177402
0.0176975
0.0176548
0.0176122
0.0175697
0.0175272
0.0174847
0.0174423
0.0174
0.0173578
0.0173156
0.0172734
0.0172265
0.0171756
0.0171254
0.0170759
0.0170271
0.016979
0.0169315
0.0168847
0.0168386
0.016793
0.0167481
0.0167038
0.0166601
0.0166169
0.0165743
0.0165323
0.0164907
0.0164497
0.0164092
0.0163692
0.0163297
0.0162906
0.0162521
0.0162139
0.0161763
0.016139
0.0161022
0.0160658
0.0160298
0.0159942
0.015959
0.0159242
0.0158898
0.0158558
0.0158221
0.0157887
0.0157557
0.0157231
0.0156908
0.0156588
0.0156272
0.0155958
0.0155648
0.0155341
0.0155037
0.0154736
0.0154438
0.0154142
0.015385
0.015356
0.0153273
0.0152989
0.0152707
0.0152428
0.0152151
0.0151877
0.0151605
0.0151336
0.0151069
0.0150804
0.0150542
0.0150282
0.0150024
0.0149768
0.0149515
0.0149264
0.0149014
0.0148767
0.0148522
0.0148279
0.0148037
0.0147798
0.0147561
0.0147325
0.0147091
0.0146859
0.0146629
0.01464
0.0146174
0.0145948
0.0145725
0.0145503
0.0145282
0.0145063
0.0144845
0.0144629
0.0144413
0.0144199
0.0143986
0.014377
0.0143564
0.0143357
0.0143016
0.0143205
0.0142605
)
;
    }
    symmetry
    {
        type            symmetryPlane;
    }
    frontAndBack
    {
        type            empty;
    }
}


// ************************************************************************* //
