/*--------------------------------*- C++ -*----------------------------------*\
| =========                 |                                                 |
| \\      /  F ield         | OpenFOAM: The Open Source CFD Toolbox           |
|  \\    /   O peration     | Version:  v2012                                 |
|   \\  /    A nd           | Website:  www.openfoam.com                      |
|    \\/     M anipulation  |                                                 |
\*---------------------------------------------------------------------------*/
FoamFile
{
    version     2.0;
    format      ascii;
    class       volScalarField;
    location    "37.5";
    object      k;
}
// * * * * * * * * * * * * * * * * * * * * * * * * * * * * * * * * * * * * * //

dimensions      [0 2 -2 0 0 0 0];


internalField   nonuniform List<scalar> 
209825
(
0.00102402
0.000930562
0.000855522
0.000797179
0.000752528
0.000718242
0.000691626
0.000670597
0.000653746
0.000640004
0.000628679
0.000619205
0.000611222
0.000604411
0.000598571
0.00059351
0.000589108
0.000585249
0.000581848
0.000578839
0.000576158
0.000573772
0.000571622
0.0005697
0.00056795
0.000566385
0.000564942
0.000563651
0.000562447
0.000561374
0.000560365
0.000559462
0.000558606
0.00055785
0.000557121
0.000556477
0.000555847
0.000555302
0.000554762
0.000554296
0.000553827
0.000553432
0.000553031
0.000552684
0.000552336
0.000552046
0.00055174
0.000551486
0.000551218
0.000550999
0.000550772
0.000550593
0.000550399
0.000550237
0.000550075
0.000549942
0.000549788
0.000549688
0.000549546
0.00054946
0.000549337
0.00054927
0.000549161
0.000549101
0.000548993
0.00054891
0.000548864
0.000548842
0.000548803
0.000548784
0.000548736
0.000548742
0.000548737
0.000548787
0.000548787
0.000548865
0.000548874
0.000548957
0.000548976
0.000549065
0.000549102
0.000549202
0.000549244
0.000549352
0.000549405
0.000549532
0.000549595
0.000549743
0.000549811
0.000549989
0.00055006
0.000550248
0.000550478
0.000559486
0.000589209
0.00145288
0.00102402
0.000930562
0.000855522
0.000797178
0.000752526
0.000718238
0.000691621
0.000670591
0.000653738
0.000639996
0.00062867
0.000619195
0.000611211
0.0006044
0.000598559
0.000593498
0.000589095
0.000585235
0.000581834
0.000578825
0.000576144
0.000573758
0.000571608
0.000569685
0.000567935
0.00056637
0.000564927
0.000563635
0.000562432
0.000561358
0.000560349
0.000559447
0.000558591
0.000557834
0.000557105
0.000556461
0.000555831
0.000555285
0.000554745
0.000554279
0.00055381
0.000553415
0.000553014
0.000552668
0.00055232
0.000552029
0.000551723
0.00055147
0.000551201
0.000550982
0.000550755
0.000550576
0.000550382
0.00055022
0.000550058
0.000549925
0.000549771
0.000549671
0.000549529
0.000549443
0.000549319
0.000549253
0.000549143
0.000549084
0.000548976
0.000548893
0.000548846
0.000548825
0.000548786
0.000548767
0.000548719
0.000548725
0.00054872
0.00054877
0.00054877
0.000548847
0.000548857
0.000548939
0.000548959
0.000549048
0.000549084
0.000549185
0.000549227
0.000549335
0.000549388
0.000549514
0.000549577
0.000549726
0.000549793
0.000549971
0.000550043
0.000550231
0.00055046
0.000559485
0.0005892
0.00145371
0.00102402
0.000930563
0.000855521
0.000797173
0.000752514
0.00071822
0.000691598
0.000670562
0.000653705
0.000639959
0.00062863
0.000619152
0.000611166
0.000604352
0.00059851
0.000593447
0.000589043
0.000585182
0.000581779
0.000578769
0.000576087
0.0005737
0.000571549
0.000569626
0.000567875
0.000566309
0.000564866
0.000563574
0.00056237
0.000561296
0.000560286
0.000559384
0.000558527
0.000557771
0.000557041
0.000556397
0.000555767
0.000555221
0.000554681
0.000554214
0.000553745
0.00055335
0.000552949
0.000552602
0.000552254
0.000551963
0.000551657
0.000551403
0.000551135
0.000550915
0.000550688
0.000550509
0.000550315
0.000550153
0.000549991
0.000549857
0.000549704
0.000549604
0.000549462
0.000549376
0.000549252
0.000549185
0.000549076
0.000549016
0.000548908
0.000548825
0.000548778
0.000548757
0.000548717
0.000548698
0.000548651
0.000548656
0.000548651
0.000548701
0.000548701
0.000548778
0.000548788
0.00054887
0.00054889
0.000548979
0.000549015
0.000549115
0.000549157
0.000549265
0.000549318
0.000549445
0.000549507
0.000549656
0.000549723
0.000549902
0.000549973
0.00055016
0.000550391
0.000559448
0.000589146
0.00145537
0.00102402
0.000930565
0.00085552
0.000797164
0.000752495
0.00071819
0.000691558
0.000670514
0.00065365
0.000639897
0.000628562
0.00061908
0.00061109
0.000604273
0.000598427
0.000593361
0.000588955
0.000585092
0.000581687
0.000578675
0.000575991
0.000573603
0.000571451
0.000569527
0.000567775
0.000566208
0.000564764
0.000563471
0.000562266
0.000561192
0.000560181
0.000559278
0.000558421
0.000557664
0.000556934
0.000556289
0.000555659
0.000555112
0.000554572
0.000554105
0.000553636
0.00055324
0.000552838
0.000552491
0.000552143
0.000551852
0.000551546
0.000551292
0.000551023
0.000550803
0.000550576
0.000550397
0.000550202
0.00055004
0.000549878
0.000549745
0.000549591
0.000549491
0.000549349
0.000549262
0.000549138
0.000549072
0.000548962
0.000548903
0.000548795
0.000548711
0.000548664
0.000548643
0.000548603
0.000548584
0.000548536
0.000548542
0.000548536
0.000548586
0.000548586
0.000548663
0.000548672
0.000548754
0.000548774
0.000548863
0.000548899
0.000548999
0.000549041
0.000549149
0.000549201
0.000549328
0.000549391
0.000549539
0.000549606
0.000549784
0.000549855
0.000550043
0.000550274
0.000559384
0.000589051
0.00145731
0.00102402
0.000930569
0.000855519
0.000797151
0.000752467
0.000718148
0.000691502
0.000670446
0.000653571
0.00063981
0.000628467
0.000618978
0.000610982
0.00060416
0.00059831
0.000593241
0.00058883
0.000584964
0.000581557
0.000578543
0.000575857
0.000573467
0.000571313
0.000569387
0.000567634
0.000566065
0.00056462
0.000563326
0.00056212
0.000561045
0.000560033
0.000559129
0.000558272
0.000557514
0.000556783
0.000556138
0.000555506
0.000554959
0.000554418
0.000553951
0.000553481
0.000553085
0.000552683
0.000552336
0.000551987
0.000551696
0.000551389
0.000551135
0.000550866
0.000550646
0.000550418
0.000550239
0.000550044
0.000549882
0.000549719
0.000549586
0.000549432
0.000549331
0.000549189
0.000549103
0.000548979
0.000548912
0.000548802
0.000548742
0.000548634
0.00054855
0.000548503
0.000548482
0.000548442
0.000548423
0.000548375
0.00054838
0.000548374
0.000548423
0.000548423
0.0005485
0.000548509
0.000548591
0.00054861
0.000548699
0.000548735
0.000548835
0.000548877
0.000548984
0.000549037
0.000549163
0.000549226
0.000549374
0.000549441
0.000549619
0.000549689
0.000549877
0.000550109
0.000559291
0.000588918
0.0014595
0.00102402
0.000930573
0.000855517
0.000797134
0.000752432
0.000718093
0.000691429
0.000670358
0.00065347
0.000639696
0.000628344
0.000618846
0.000610843
0.000604014
0.000598159
0.000593084
0.00058867
0.0005848
0.000581389
0.000578372
0.000575683
0.00057329
0.000571134
0.000569205
0.00056745
0.00056588
0.000564433
0.000563138
0.000561931
0.000560854
0.000559842
0.000558936
0.000558078
0.000557319
0.000556587
0.000555941
0.000555309
0.000554761
0.00055422
0.000553752
0.000553281
0.000552885
0.000552482
0.000552134
0.000551785
0.000551493
0.000551186
0.000550932
0.000550662
0.000550442
0.000550214
0.000550034
0.000549839
0.000549676
0.000549513
0.00054938
0.000549225
0.000549125
0.000548982
0.000548896
0.000548771
0.000548704
0.000548594
0.000548534
0.000548427
0.000548342
0.000548295
0.000548273
0.000548233
0.000548214
0.000548166
0.00054817
0.000548164
0.000548213
0.000548213
0.000548289
0.000548298
0.000548379
0.000548399
0.000548487
0.000548523
0.000548622
0.000548664
0.000548771
0.000548824
0.00054895
0.000549012
0.00054916
0.000549226
0.000549404
0.000549475
0.000549662
0.000549895
0.000559171
0.000588744
0.00146188
0.00102402
0.000930577
0.000855514
0.000797113
0.000752388
0.000718026
0.00069134
0.000670249
0.000653345
0.000639557
0.000628192
0.000618684
0.000610672
0.000603835
0.000597972
0.000592891
0.000588471
0.000584597
0.000581182
0.00057816
0.000575468
0.000573072
0.000570913
0.000568982
0.000567225
0.000565652
0.000564203
0.000562906
0.000561697
0.000560619
0.000559605
0.000558698
0.000557838
0.000557078
0.000556345
0.000555699
0.000555066
0.000554517
0.000553975
0.000553506
0.000553035
0.000552637
0.000552234
0.000551886
0.000551536
0.000551244
0.000550936
0.000550681
0.000550411
0.00055019
0.000549961
0.000549781
0.000549586
0.000549423
0.000549259
0.000549126
0.000548971
0.00054887
0.000548727
0.00054864
0.000548516
0.000548448
0.000548338
0.000548278
0.00054817
0.000548086
0.000548038
0.000548016
0.000547976
0.000547956
0.000547908
0.000547912
0.000547905
0.000547953
0.000547953
0.000548028
0.000548037
0.000548118
0.000548137
0.000548225
0.000548261
0.00054836
0.000548401
0.000548509
0.000548561
0.000548687
0.000548748
0.000548896
0.000548962
0.00054914
0.00054921
0.000549397
0.000549632
0.000559024
0.000588531
0.00146435
0.00102402
0.000930583
0.000855511
0.000797089
0.000752336
0.000717945
0.000691234
0.00067012
0.000653196
0.000639391
0.000628012
0.00061849
0.000610467
0.000603621
0.00059775
0.000592662
0.000588235
0.000584354
0.000580934
0.000577908
0.000575212
0.000572812
0.00057065
0.000568715
0.000566955
0.00056538
0.000563929
0.000562629
0.000561418
0.000560338
0.000559323
0.000558415
0.000557553
0.000556792
0.000556057
0.000555409
0.000554775
0.000554226
0.000553682
0.000553213
0.00055274
0.000552342
0.000551938
0.000551589
0.000551238
0.000550946
0.000550638
0.000550382
0.000550111
0.00054989
0.000549661
0.00054948
0.000549284
0.000549121
0.000548957
0.000548822
0.000548667
0.000548566
0.000548423
0.000548336
0.000548211
0.000548143
0.000548033
0.000547972
0.000547865
0.00054778
0.000547731
0.000547709
0.000547668
0.000547649
0.0005476
0.000547604
0.000547596
0.000547643
0.000547643
0.000547718
0.000547726
0.000547807
0.000547826
0.000547914
0.000547948
0.000548048
0.000548088
0.000548195
0.000548247
0.000548372
0.000548434
0.000548581
0.000548647
0.000548824
0.000548894
0.000549081
0.000549318
0.00055885
0.000588278
0.00146673
0.00102402
0.00093059
0.000855508
0.00079706
0.000752275
0.000717852
0.000691111
0.00066997
0.000653023
0.000639198
0.000627801
0.000618266
0.00061023
0.000603372
0.000597491
0.000592394
0.00058796
0.000584073
0.000580646
0.000577615
0.000574913
0.000572509
0.000570343
0.000568405
0.000566642
0.000565064
0.000563609
0.000562307
0.000561094
0.000560012
0.000558994
0.000558084
0.000557221
0.000556458
0.000555722
0.000555073
0.000554437
0.000553886
0.000553342
0.000552871
0.000552398
0.000551999
0.000551594
0.000551244
0.000550892
0.000550599
0.00055029
0.000550033
0.000549762
0.00054954
0.00054931
0.000549129
0.000548933
0.000548768
0.000548604
0.000548469
0.000548314
0.000548212
0.000548068
0.000547981
0.000547856
0.000547788
0.000547677
0.000547616
0.000547508
0.000547423
0.000547374
0.000547351
0.00054731
0.00054729
0.000547242
0.000547245
0.000547236
0.000547282
0.000547282
0.000547356
0.000547364
0.000547445
0.000547463
0.00054755
0.000547585
0.000547684
0.000547724
0.00054783
0.000547882
0.000548007
0.000548068
0.000548214
0.00054828
0.000548457
0.000548526
0.000548712
0.000548952
0.00055865
0.000587984
0.00146875
0.00102402
0.000930598
0.000855505
0.000797028
0.000752207
0.000717746
0.00069097
0.000669799
0.000652825
0.000638978
0.000627562
0.000618009
0.000609958
0.000603087
0.000597195
0.000592089
0.000587646
0.00058375
0.000580317
0.00057728
0.000574572
0.000572163
0.000569992
0.00056805
0.000566283
0.000564701
0.000563244
0.000561939
0.000560723
0.000559638
0.000558618
0.000557706
0.000556841
0.000556076
0.000555338
0.000554688
0.00055405
0.000553498
0.000552952
0.000552481
0.000552006
0.000551605
0.0005512
0.000550849
0.000550496
0.000550202
0.000549892
0.000549635
0.000549363
0.00054914
0.000548909
0.000548727
0.00054853
0.000548366
0.0005482
0.000548065
0.000547909
0.000547807
0.000547663
0.000547575
0.000547449
0.000547381
0.00054727
0.000547209
0.000547101
0.000547016
0.000546965
0.000546942
0.000546901
0.000546881
0.000546832
0.000546834
0.000546824
0.000546869
0.000546869
0.000546942
0.000546949
0.00054703
0.000547047
0.000547134
0.000547168
0.000547267
0.000547307
0.000547413
0.000547464
0.000547588
0.000547649
0.000547795
0.00054786
0.000548036
0.000548104
0.000548291
0.000548533
0.000558424
0.000587649
0.00147002
0.00102403
0.000930607
0.000855501
0.000796992
0.00075213
0.000717627
0.000690812
0.000669607
0.000652603
0.00063873
0.000627291
0.000617719
0.000609652
0.000602767
0.000596862
0.000591744
0.000587291
0.000583387
0.000579946
0.000576901
0.000574188
0.000571773
0.000569597
0.00056765
0.000565878
0.000564293
0.000562832
0.000561524
0.000560304
0.000559217
0.000558194
0.00055728
0.000556412
0.000555645
0.000554906
0.000554253
0.000553614
0.00055306
0.000552513
0.00055204
0.000551564
0.000551162
0.000550755
0.000550403
0.000550049
0.000549754
0.000549443
0.000549185
0.000548912
0.000548688
0.000548457
0.000548274
0.000548076
0.000547911
0.000547745
0.00054761
0.000547452
0.00054735
0.000547205
0.000547117
0.000546991
0.000546922
0.00054681
0.000546749
0.000546641
0.000546555
0.000546504
0.000546481
0.000546439
0.000546418
0.00054637
0.00054637
0.00054636
0.000546402
0.000546403
0.000546475
0.000546482
0.000546562
0.000546578
0.000546665
0.000546698
0.000546796
0.000546836
0.000546941
0.000546992
0.000547115
0.000547176
0.000547321
0.000547386
0.000547561
0.000547629
0.000547815
0.000548061
0.000558172
0.000587273
0.00147001
0.00102403
0.000930616
0.000855496
0.000796953
0.000752045
0.000717495
0.000690637
0.000669393
0.000652356
0.000638453
0.000626991
0.000617397
0.000609311
0.00060241
0.000596491
0.00059136
0.000586896
0.000582982
0.000579532
0.00057648
0.000573759
0.000571337
0.000569156
0.000567204
0.000565427
0.000563837
0.000562372
0.00056106
0.000559838
0.000558747
0.000557721
0.000556804
0.000555934
0.000555165
0.000554423
0.000553768
0.000553127
0.000552572
0.000552022
0.000551548
0.00055107
0.000550667
0.000550258
0.000549905
0.00054955
0.000549254
0.000548942
0.000548683
0.000548409
0.000548184
0.000547952
0.000547768
0.00054757
0.000547404
0.000547237
0.000547101
0.000546943
0.00054684
0.000546695
0.000546606
0.000546479
0.000546409
0.000546297
0.000546236
0.000546128
0.000546041
0.000545989
0.000545965
0.000545923
0.000545902
0.000545853
0.000545853
0.000545841
0.000545882
0.000545882
0.000545954
0.00054596
0.000546039
0.000546055
0.000546141
0.000546174
0.000546271
0.00054631
0.000546415
0.000546465
0.000546588
0.000546648
0.000546792
0.000546857
0.000547032
0.000547098
0.000547284
0.000547535
0.000557895
0.000586855
0.00146827
0.00102403
0.000930627
0.000855492
0.00079691
0.000751951
0.00071735
0.000690444
0.000669157
0.000652083
0.000638149
0.000626659
0.000617041
0.000608935
0.000602015
0.000596081
0.000590936
0.00058646
0.000582535
0.000579075
0.000576014
0.000573285
0.000570856
0.000568668
0.00056671
0.000564928
0.000563333
0.000561864
0.000560548
0.000559321
0.000558227
0.000557198
0.000556278
0.000555405
0.000554633
0.000553889
0.000553232
0.000552589
0.000552031
0.00055148
0.000551004
0.000550524
0.00055012
0.00054971
0.000549355
0.000548998
0.000548701
0.000548388
0.000548128
0.000547853
0.000547627
0.000547393
0.000547209
0.000547009
0.000546843
0.000546675
0.000546538
0.000546379
0.000546276
0.00054613
0.00054604
0.000545913
0.000545843
0.00054573
0.000545668
0.00054556
0.000545473
0.00054542
0.000545395
0.000545352
0.000545331
0.000545283
0.000545281
0.000545267
0.000545307
0.000545307
0.000545377
0.000545383
0.000545461
0.000545477
0.000545562
0.000545594
0.000545691
0.000545729
0.000545833
0.000545883
0.000546005
0.000546064
0.000546208
0.000546272
0.000546446
0.000546512
0.000546697
0.000546952
0.000557591
0.000586394
0.00146479
0.00102403
0.000930639
0.000855487
0.000796863
0.00075185
0.000717192
0.000690233
0.000668899
0.000651785
0.000637816
0.000626295
0.000616652
0.000608523
0.000601584
0.000595631
0.000590471
0.000585982
0.000582045
0.000578574
0.000575503
0.000572766
0.000570329
0.000568134
0.000566169
0.000564381
0.000562781
0.000561306
0.000559986
0.000558755
0.000557657
0.000556625
0.000555701
0.000554825
0.00055405
0.000553303
0.000552644
0.000551998
0.000551438
0.000550885
0.000550407
0.000549926
0.000549519
0.000549107
0.000548751
0.000548393
0.000548094
0.00054778
0.000547518
0.000547242
0.000547016
0.000546781
0.000546595
0.000546395
0.000546227
0.000546058
0.000545921
0.000545761
0.000545657
0.00054551
0.00054542
0.000545291
0.000545221
0.000545108
0.000545045
0.000544937
0.00054485
0.000544795
0.00054477
0.000544726
0.000544705
0.000544656
0.000544653
0.000544638
0.000544676
0.000544676
0.000544745
0.000544749
0.000544827
0.000544842
0.000544926
0.000544958
0.000545054
0.000545091
0.000545195
0.000545244
0.000545365
0.000545424
0.000545566
0.00054563
0.000545803
0.000545868
0.000546052
0.000546313
0.000557262
0.000585889
0.00145961
0.00102403
0.000930651
0.000855483
0.000796812
0.00075174
0.00071702
0.000690004
0.00066862
0.000651461
0.000637454
0.0006259
0.000616228
0.000608074
0.000601113
0.000595142
0.000589966
0.000585461
0.000581511
0.000578028
0.000574947
0.0005722
0.000569754
0.000567551
0.00056558
0.000563785
0.000562179
0.000560699
0.000559374
0.000558138
0.000557036
0.000555999
0.000555072
0.000554193
0.000553415
0.000552664
0.000552002
0.000551354
0.000550792
0.000550236
0.000549756
0.000549273
0.000548864
0.000548451
0.000548093
0.000547733
0.000547433
0.000547117
0.000546854
0.000546577
0.000546349
0.000546113
0.000545926
0.000545724
0.000545556
0.000545385
0.000545248
0.000545087
0.000544982
0.000544834
0.000544743
0.000544614
0.000544543
0.000544429
0.000544366
0.000544257
0.00054417
0.000544114
0.000544088
0.000544043
0.000544021
0.000543973
0.000543969
0.000543952
0.000543987
0.000543987
0.000544055
0.000544059
0.000544135
0.000544149
0.000544233
0.000544264
0.000544359
0.000544396
0.000544499
0.000544547
0.000544667
0.000544725
0.000544867
0.00054493
0.000545102
0.000545165
0.00054535
0.000545616
0.000556907
0.000585338
0.00145275
0.00102404
0.000930665
0.000855478
0.000796758
0.000751622
0.000716835
0.000689757
0.000668318
0.000651112
0.000637063
0.000625473
0.00061577
0.000607589
0.000600605
0.000594613
0.000589418
0.000584897
0.000580932
0.000577437
0.000574344
0.000571587
0.000569132
0.00056692
0.000564941
0.00056314
0.000561527
0.000560041
0.00055871
0.00055747
0.000556363
0.000555322
0.000554391
0.000553507
0.000552726
0.000551972
0.000551307
0.000550657
0.000550092
0.000549533
0.000549051
0.000548565
0.000548155
0.000547739
0.00054738
0.000547018
0.000546716
0.000546398
0.000546134
0.000545855
0.000545626
0.000545388
0.000545201
0.000544997
0.000544828
0.000544656
0.000544518
0.000544356
0.00054425
0.000544101
0.00054401
0.00054388
0.000543807
0.000543693
0.000543629
0.000543521
0.000543433
0.000543375
0.000543348
0.000543303
0.000543281
0.000543232
0.000543226
0.000543208
0.000543241
0.000543241
0.000543306
0.00054331
0.000543385
0.000543398
0.000543482
0.000543511
0.000543606
0.000543642
0.000543744
0.000543791
0.00054391
0.000543968
0.000544108
0.00054417
0.000544341
0.000544404
0.000544588
0.000544861
0.000556525
0.00058474
0.00144425
0.00102404
0.00093068
0.000855473
0.000796701
0.000751495
0.000716638
0.000689493
0.000667994
0.000650736
0.000636642
0.000625014
0.000615277
0.000607067
0.000600057
0.000594043
0.000588828
0.00058429
0.000580309
0.0005768
0.000573694
0.000570926
0.000568461
0.00056624
0.000564252
0.000562443
0.000560824
0.000559331
0.000557994
0.000556748
0.000555636
0.000554591
0.000553656
0.000552768
0.000551983
0.000551226
0.000550558
0.000549904
0.000549336
0.000548775
0.00054829
0.000547802
0.000547389
0.000546971
0.00054661
0.000546246
0.000545942
0.000545623
0.000545357
0.000545077
0.000544846
0.000544607
0.000544418
0.000544213
0.000544043
0.00054387
0.00054373
0.000543567
0.00054346
0.00054331
0.000543218
0.000543087
0.000543014
0.000542899
0.000542834
0.000542726
0.000542637
0.000542578
0.00054255
0.000542504
0.000542481
0.000542432
0.000542425
0.000542405
0.000542436
0.000542435
0.000542499
0.000542502
0.000542576
0.000542588
0.000542671
0.000542699
0.000542793
0.000542828
0.000542929
0.000542975
0.000543094
0.00054315
0.00054329
0.000543351
0.000543521
0.000543582
0.000543765
0.000544047
0.000556115
0.000584094
0.00143416
0.00102404
0.000930695
0.000855468
0.00079664
0.000751361
0.000716427
0.00068921
0.000667648
0.000650334
0.000636192
0.000624522
0.000614749
0.000606508
0.00059947
0.000593431
0.000588195
0.000583638
0.000579641
0.000576117
0.000572998
0.000570217
0.000567741
0.00056551
0.000563513
0.000561696
0.000560069
0.000558569
0.000557226
0.000555974
0.000554857
0.000553806
0.000552866
0.000551974
0.000551185
0.000550424
0.000549752
0.000549095
0.000548524
0.00054796
0.000547472
0.000546982
0.000546566
0.000546146
0.000545783
0.000545417
0.000545111
0.00054479
0.000544523
0.000544241
0.000544009
0.000543767
0.000543577
0.000543371
0.000543199
0.000543024
0.000542884
0.000542719
0.000542611
0.000542461
0.000542367
0.000542235
0.000542161
0.000542046
0.00054198
0.000541871
0.000541782
0.000541721
0.000541693
0.000541645
0.000541622
0.000541573
0.000541565
0.000541542
0.000541571
0.00054157
0.000541632
0.000541634
0.000541707
0.000541718
0.000541799
0.000541827
0.000541919
0.000541953
0.000542053
0.000542099
0.000542216
0.000542272
0.00054241
0.000542471
0.000542639
0.000542699
0.000542882
0.000543171
0.000555675
0.000583396
0.00142252
0.00102405
0.000930712
0.000855463
0.000796576
0.000751219
0.000716203
0.00068891
0.000667279
0.000649905
0.000635711
0.000623997
0.000614185
0.00060591
0.000598843
0.000592778
0.000587519
0.000582942
0.000578926
0.000575386
0.000572252
0.000569459
0.000566971
0.000564729
0.000562723
0.000560896
0.000559261
0.000557754
0.000556404
0.000555146
0.000554022
0.000552966
0.000552021
0.000551125
0.000550331
0.000549566
0.000548891
0.00054823
0.000547656
0.000547088
0.000546598
0.000546104
0.000545686
0.000545263
0.000544898
0.000544529
0.000544222
0.000543898
0.000543629
0.000543345
0.000543112
0.000542869
0.000542676
0.000542469
0.000542296
0.000542119
0.000541978
0.000541812
0.000541703
0.000541551
0.000541457
0.000541324
0.000541249
0.000541132
0.000541066
0.000540957
0.000540867
0.000540805
0.000540775
0.000540727
0.000540703
0.000540653
0.000540644
0.000540619
0.000540646
0.000540643
0.000540703
0.000540704
0.000540776
0.000540786
0.000540866
0.000540892
0.000540984
0.000541017
0.000541116
0.000541161
0.000541277
0.000541332
0.000541468
0.000541528
0.000541696
0.000541754
0.000541936
0.000542235
0.000555205
0.000582644
0.00140939
0.00102405
0.00093073
0.000855458
0.000796508
0.000751069
0.000715966
0.000688592
0.000666888
0.00064945
0.000635201
0.000623439
0.000613586
0.000605274
0.000598175
0.000592083
0.0005868
0.000582201
0.000578166
0.000574608
0.000571459
0.000568651
0.00056615
0.000563897
0.00056188
0.000560044
0.0005584
0.000556885
0.000555528
0.000554263
0.000553133
0.000552071
0.000551121
0.000550219
0.000549421
0.000548651
0.000547972
0.000547307
0.000546729
0.000546159
0.000545665
0.000545168
0.000544747
0.000544322
0.000543954
0.000543583
0.000543273
0.000542947
0.000542677
0.000542391
0.000542155
0.00054191
0.000541716
0.000541507
0.000541333
0.000541154
0.000541012
0.000540844
0.000540734
0.000540581
0.000540486
0.000540352
0.000540275
0.000540158
0.000540091
0.000539981
0.000539891
0.000539826
0.000539796
0.000539746
0.000539722
0.000539671
0.000539661
0.000539634
0.000539658
0.000539655
0.000539712
0.000539713
0.000539783
0.000539792
0.000539871
0.000539896
0.000539987
0.000540019
0.000540117
0.00054016
0.000540275
0.000540329
0.000540464
0.000540523
0.000540689
0.000540746
0.000540927
0.000541236
0.000554703
0.000581834
0.00139484
0.00102405
0.000930749
0.000855453
0.000796438
0.000750911
0.000715716
0.000688256
0.000666474
0.000648969
0.000634661
0.000622848
0.00061295
0.0006046
0.000597467
0.000591346
0.000586036
0.000581413
0.000577358
0.000573782
0.000570616
0.000567793
0.000565279
0.000563013
0.000560985
0.000559139
0.000557485
0.000555962
0.000554596
0.000553324
0.000552188
0.000551119
0.000550163
0.000549256
0.000548453
0.000547679
0.000546995
0.000546326
0.000545745
0.00054517
0.000544673
0.000544173
0.000543749
0.000543321
0.00054295
0.000542576
0.000542264
0.000541936
0.000541663
0.000541375
0.000541138
0.000540891
0.000540695
0.000540484
0.000540308
0.000540128
0.000539984
0.000539815
0.000539703
0.000539549
0.000539453
0.000539317
0.00053924
0.000539122
0.000539053
0.000538944
0.000538852
0.000538786
0.000538754
0.000538703
0.000538679
0.000538627
0.000538616
0.000538586
0.000538609
0.000538604
0.000538658
0.000538659
0.000538727
0.000538735
0.000538813
0.000538836
0.000538926
0.000538956
0.000539053
0.000539096
0.000539209
0.000539262
0.000539396
0.000539454
0.000539618
0.000539673
0.000539854
0.000540173
0.000554165
0.000580962
0.00137894
0.00102405
0.000930768
0.000855449
0.000796365
0.000750746
0.000715454
0.000687902
0.000666038
0.000648461
0.00063409
0.000622223
0.000612278
0.000603887
0.000596718
0.000590565
0.000585227
0.00058058
0.000576502
0.000572907
0.000569723
0.000566884
0.000564355
0.000562077
0.000560037
0.000558179
0.000556516
0.000554983
0.000553609
0.000552329
0.000551186
0.000550111
0.000549149
0.000548235
0.000547427
0.000546648
0.000545959
0.000545286
0.0005447
0.000544122
0.000543621
0.000543118
0.000542691
0.000542259
0.000541886
0.000541509
0.000541194
0.000540864
0.000540589
0.000540298
0.000540059
0.00053981
0.000539612
0.000539399
0.000539222
0.000539039
0.000538894
0.000538723
0.00053861
0.000538455
0.000538357
0.00053822
0.000538142
0.000538022
0.000537953
0.000537843
0.000537751
0.000537683
0.000537649
0.000537597
0.000537572
0.00053752
0.000537507
0.000537475
0.000537495
0.00053749
0.000537541
0.000537541
0.000537607
0.000537614
0.00053769
0.000537712
0.0005378
0.00053783
0.000537925
0.000537967
0.000538078
0.00053813
0.000538262
0.000538319
0.000538483
0.000538536
0.000538716
0.000539046
0.000553587
0.000580025
0.00136176
0.00102406
0.000930789
0.000855445
0.000796289
0.000750573
0.000715179
0.00068753
0.000665579
0.000647927
0.000633489
0.000621565
0.00061157
0.000603136
0.000595928
0.000589742
0.000584374
0.000579701
0.000575599
0.000571983
0.00056878
0.000565924
0.00056338
0.000561087
0.000559034
0.000557165
0.000555491
0.000553949
0.000552566
0.000551278
0.000550126
0.000549044
0.000548076
0.000547156
0.000546342
0.000545557
0.000544864
0.000544186
0.000543596
0.000543014
0.000542509
0.000542002
0.000541571
0.000541136
0.00054076
0.00054038
0.000540063
0.00053973
0.000539452
0.000539159
0.000538918
0.000538666
0.000538466
0.000538251
0.000538072
0.000537888
0.000537742
0.000537568
0.000537454
0.000537297
0.000537198
0.00053706
0.00053698
0.000536859
0.000536789
0.000536678
0.000536586
0.000536515
0.000536481
0.000536427
0.000536401
0.000536348
0.000536334
0.0005363
0.000536317
0.000536311
0.000536358
0.000536358
0.000536422
0.000536427
0.000536503
0.000536523
0.00053661
0.000536638
0.000536732
0.000536772
0.000536882
0.000536933
0.000537063
0.000537119
0.000537281
0.000537332
0.000537512
0.000537854
0.000552963
0.000579021
0.00134338
0.00102406
0.000930811
0.000855441
0.00079621
0.000750393
0.000714892
0.000687141
0.000665099
0.000647366
0.000632858
0.000620873
0.000610825
0.000602345
0.000595097
0.000588874
0.000583475
0.000578774
0.000574648
0.000571009
0.000567786
0.000564912
0.000562351
0.000560044
0.000557978
0.000556096
0.000554411
0.000552858
0.000551466
0.000550169
0.000549009
0.00054792
0.000546944
0.000546018
0.000545198
0.000544407
0.000543709
0.000543026
0.000542431
0.000541844
0.000541336
0.000540824
0.00054039
0.000539952
0.000539572
0.000539189
0.000538869
0.000538533
0.000538253
0.000537957
0.000537714
0.000537459
0.000537257
0.00053704
0.000536859
0.000536672
0.000536525
0.000536349
0.000536234
0.000536075
0.000535975
0.000535835
0.000535754
0.000535632
0.00053556
0.000535449
0.000535356
0.000535283
0.000535247
0.000535192
0.000535165
0.000535111
0.000535096
0.00053506
0.000535074
0.000535066
0.00053511
0.00053511
0.000535171
0.000535175
0.000535249
0.000535268
0.000535353
0.00053538
0.000535472
0.000535511
0.00053562
0.000535669
0.000535798
0.000535853
0.000536012
0.000536062
0.00053624
0.000536596
0.000552284
0.000577947
0.00132388
0.00102406
0.000930834
0.000855438
0.000796129
0.000750207
0.000714592
0.000686735
0.000664596
0.000646778
0.000632197
0.000620148
0.000610043
0.000601514
0.000594224
0.000587964
0.000582531
0.0005778
0.000573647
0.000569985
0.000566741
0.000563848
0.00056127
0.000558947
0.000556866
0.000554972
0.000553274
0.00055171
0.000550308
0.000549001
0.000547833
0.000546736
0.000545753
0.00054482
0.000543993
0.000543196
0.000542493
0.000541804
0.000541205
0.000540613
0.0005401
0.000539585
0.000539146
0.000538704
0.000538322
0.000537935
0.000537611
0.000537272
0.00053699
0.000536691
0.000536446
0.000536188
0.000535984
0.000535764
0.000535582
0.000535392
0.000535243
0.000535066
0.000534948
0.000534788
0.000534686
0.000534545
0.000534462
0.000534339
0.000534266
0.000534154
0.00053406
0.000533985
0.000533947
0.000533891
0.000533863
0.000533809
0.000533792
0.000533754
0.000533765
0.000533756
0.000533796
0.000533795
0.000533854
0.000533857
0.000533928
0.000533946
0.000534029
0.000534054
0.000534146
0.000534183
0.00053429
0.000534338
0.000534465
0.000534518
0.000534676
0.000534724
0.000534902
0.00053527
0.000551542
0.0005768
0.00130334
0.00102407
0.000930857
0.000855435
0.000796046
0.000750013
0.000714281
0.000686312
0.000664071
0.000646164
0.000631505
0.000619388
0.000609225
0.000600645
0.000593309
0.000587009
0.000581541
0.000576779
0.000572598
0.000568911
0.000565644
0.000562731
0.000560134
0.000557795
0.000555699
0.000553791
0.00055208
0.000550505
0.000549092
0.000547775
0.000546598
0.000545492
0.000544501
0.000543561
0.000542727
0.000541924
0.000541215
0.000540521
0.000539916
0.000539319
0.000538801
0.000538282
0.000537839
0.000537393
0.000537007
0.000536616
0.00053629
0.000535947
0.000535662
0.000535361
0.000535113
0.000534852
0.000534646
0.000534423
0.000534239
0.000534047