/*--------------------------------*- C++ -*----------------------------------*\
| =========                 |                                                 |
| \\      /  F ield         | OpenFOAM: The Open Source CFD Toolbox           |
|  \\    /   O peration     | Version:  v2012                                 |
|   \\  /    A nd           | Website:  www.openfoam.com                      |
|    \\/     M anipulation  |                                                 |
\*---------------------------------------------------------------------------*/
FoamFile
{
    version     2.0;
    format      ascii;
    class       volScalarField;
    location    "37.5";
    object      nut;
}
// * * * * * * * * * * * * * * * * * * * * * * * * * * * * * * * * * * * * * //

dimensions      [0 2 -1 0 0 0 0];


internalField   nonuniform List<scalar> 
209825
(
1.23954e-07
1.22988e-07
1.22216e-07
1.21655e-07
1.2129e-07
1.21053e-07
1.20919e-07
1.20838e-07
1.2081e-07
1.20798e-07
1.20817e-07
1.20836e-07
1.20876e-07
1.20909e-07
1.20958e-07
1.20996e-07
1.21047e-07
1.21086e-07
1.21137e-07
1.21174e-07
1.21222e-07
1.21257e-07
1.21302e-07
1.21335e-07
1.21376e-07
1.21406e-07
1.21444e-07
1.21472e-07
1.21506e-07
1.21531e-07
1.21564e-07
1.21586e-07
1.21615e-07
1.21637e-07
1.21664e-07
1.21682e-07
1.21706e-07
1.21724e-07
1.21747e-07
1.21763e-07
1.21783e-07
1.21799e-07
1.2182e-07
1.21832e-07
1.21851e-07
1.21864e-07
1.21881e-07
1.21893e-07
1.21907e-07
1.21918e-07
1.21931e-07
1.21942e-07
1.21954e-07
1.21965e-07
1.21977e-07
1.21988e-07
1.21996e-07
1.2201e-07
1.22015e-07
1.22025e-07
1.22028e-07
1.22038e-07
1.22041e-07
1.22046e-07
1.22046e-07
1.22045e-07
1.22056e-07
1.22064e-07
1.22072e-07
1.22076e-07
1.22081e-07
1.22089e-07
1.22102e-07
1.2212e-07
1.22134e-07
1.22158e-07
1.22171e-07
1.22194e-07
1.22207e-07
1.22229e-07
1.22243e-07
1.22263e-07
1.22272e-07
1.2229e-07
1.22301e-07
1.22317e-07
1.22331e-07
1.22345e-07
1.2236e-07
1.22376e-07
1.22392e-07
1.22403e-07
1.22436e-07
1.23611e-07
1.26984e-07
1.28228e-08
1.23954e-07
1.22988e-07
1.22216e-07
1.21655e-07
1.2129e-07
1.21053e-07
1.20919e-07
1.20838e-07
1.2081e-07
1.20798e-07
1.20817e-07
1.20836e-07
1.20876e-07
1.20909e-07
1.20958e-07
1.20996e-07
1.21047e-07
1.21086e-07
1.21137e-07
1.21174e-07
1.21222e-07
1.21257e-07
1.21302e-07
1.21335e-07
1.21376e-07
1.21406e-07
1.21444e-07
1.21472e-07
1.21506e-07
1.21531e-07
1.21564e-07
1.21586e-07
1.21615e-07
1.21637e-07
1.21664e-07
1.21683e-07
1.21707e-07
1.21724e-07
1.21747e-07
1.21763e-07
1.21783e-07
1.218e-07
1.2182e-07
1.21832e-07
1.21851e-07
1.21864e-07
1.21881e-07
1.21893e-07
1.21907e-07
1.21918e-07
1.21931e-07
1.21942e-07
1.21954e-07
1.21965e-07
1.21977e-07
1.21988e-07
1.21996e-07
1.2201e-07
1.22016e-07
1.22026e-07
1.22028e-07
1.22038e-07
1.22041e-07
1.22047e-07
1.22047e-07
1.22045e-07
1.22056e-07
1.22064e-07
1.22072e-07
1.22076e-07
1.22081e-07
1.2209e-07
1.22102e-07
1.2212e-07
1.22134e-07
1.22158e-07
1.22171e-07
1.22194e-07
1.22207e-07
1.22229e-07
1.22243e-07
1.22263e-07
1.22273e-07
1.2229e-07
1.22302e-07
1.22317e-07
1.22331e-07
1.22345e-07
1.2236e-07
1.22376e-07
1.22392e-07
1.22403e-07
1.22436e-07
1.23613e-07
1.26985e-07
1.32148e-08
1.23954e-07
1.22988e-07
1.22216e-07
1.21655e-07
1.2129e-07
1.21052e-07
1.20919e-07
1.20837e-07
1.20808e-07
1.20796e-07
1.20815e-07
1.20835e-07
1.20875e-07
1.20908e-07
1.20957e-07
1.20995e-07
1.21046e-07
1.21085e-07
1.21135e-07
1.21172e-07
1.2122e-07
1.21255e-07
1.213e-07
1.21333e-07
1.21374e-07
1.21404e-07
1.21442e-07
1.2147e-07
1.21504e-07
1.21529e-07
1.21562e-07
1.21584e-07
1.21613e-07
1.21635e-07
1.21662e-07
1.21681e-07
1.21705e-07
1.21722e-07
1.21745e-07
1.21761e-07
1.21781e-07
1.21798e-07
1.21818e-07
1.2183e-07
1.21849e-07
1.21862e-07
1.21879e-07
1.21891e-07
1.21905e-07
1.21916e-07
1.21929e-07
1.2194e-07
1.21952e-07
1.21964e-07
1.21975e-07
1.21986e-07
1.21994e-07
1.22008e-07
1.22014e-07
1.22024e-07
1.22026e-07
1.22036e-07
1.22039e-07
1.22045e-07
1.22045e-07
1.22043e-07
1.22054e-07
1.22062e-07
1.2207e-07
1.22074e-07
1.22079e-07
1.22088e-07
1.221e-07
1.22118e-07
1.22132e-07
1.22156e-07
1.22169e-07
1.22192e-07
1.22205e-07
1.22227e-07
1.22241e-07
1.22261e-07
1.22271e-07
1.22288e-07
1.223e-07
1.22315e-07
1.22329e-07
1.22343e-07
1.22358e-07
1.22374e-07
1.2239e-07
1.22401e-07
1.22434e-07
1.23616e-07
1.26985e-07
1.37015e-08
1.23954e-07
1.22988e-07
1.22216e-07
1.21655e-07
1.21289e-07
1.21051e-07
1.20917e-07
1.20835e-07
1.20806e-07
1.20794e-07
1.20813e-07
1.20832e-07
1.20872e-07
1.20905e-07
1.20954e-07
1.20992e-07
1.21043e-07
1.21082e-07
1.21132e-07
1.2117e-07
1.21217e-07
1.21253e-07
1.21297e-07
1.2133e-07
1.21371e-07
1.21402e-07
1.21439e-07
1.21467e-07
1.21502e-07
1.21527e-07
1.21559e-07
1.21581e-07
1.21611e-07
1.21632e-07
1.21659e-07
1.21678e-07
1.21702e-07
1.21719e-07
1.21743e-07
1.21759e-07
1.21779e-07
1.21795e-07
1.21815e-07
1.21827e-07
1.21846e-07
1.2186e-07
1.21877e-07
1.21889e-07
1.21903e-07
1.21913e-07
1.21927e-07
1.21937e-07
1.2195e-07
1.21961e-07
1.21972e-07
1.21983e-07
1.21992e-07
1.22006e-07
1.22011e-07
1.22021e-07
1.22023e-07
1.22034e-07
1.22036e-07
1.22042e-07
1.22042e-07
1.22041e-07
1.22052e-07
1.22059e-07
1.22067e-07
1.22072e-07
1.22076e-07
1.22085e-07
1.22098e-07
1.22116e-07
1.22129e-07
1.22153e-07
1.22166e-07
1.22189e-07
1.22202e-07
1.22224e-07
1.22238e-07
1.22258e-07
1.22268e-07
1.22285e-07
1.22297e-07
1.22312e-07
1.22326e-07
1.2234e-07
1.22355e-07
1.22371e-07
1.22387e-07
1.22398e-07
1.22432e-07
1.2362e-07
1.26985e-07
1.42417e-08
1.23954e-07
1.22988e-07
1.22216e-07
1.21654e-07
1.21288e-07
1.2105e-07
1.20915e-07
1.20833e-07
1.20804e-07
1.20792e-07
1.2081e-07
1.20829e-07
1.20869e-07
1.20902e-07
1.20951e-07
1.20989e-07
1.2104e-07
1.21079e-07
1.21129e-07
1.21166e-07
1.21214e-07
1.21249e-07
1.21294e-07
1.21326e-07
1.21368e-07
1.21398e-07
1.21436e-07
1.21464e-07
1.21498e-07
1.21523e-07
1.21555e-07
1.21578e-07
1.21607e-07
1.21628e-07
1.21656e-07
1.21674e-07
1.21698e-07
1.21716e-07
1.21739e-07
1.21755e-07
1.21775e-07
1.21791e-07
1.21812e-07
1.21824e-07
1.21843e-07
1.21856e-07
1.21873e-07
1.21885e-07
1.21899e-07
1.2191e-07
1.21923e-07
1.21934e-07
1.21946e-07
1.21957e-07
1.21969e-07
1.2198e-07
1.21988e-07
1.22002e-07
1.22008e-07
1.22017e-07
1.2202e-07
1.2203e-07
1.22033e-07
1.22039e-07
1.22039e-07
1.22037e-07
1.22048e-07
1.22056e-07
1.22064e-07
1.22068e-07
1.22073e-07
1.22082e-07
1.22094e-07
1.22112e-07
1.22126e-07
1.22149e-07
1.22163e-07
1.22185e-07
1.22199e-07
1.22221e-07
1.22234e-07
1.22254e-07
1.22264e-07
1.22282e-07
1.22293e-07
1.22309e-07
1.22323e-07
1.22337e-07
1.22351e-07
1.22368e-07
1.22383e-07
1.22394e-07
1.22428e-07
1.23627e-07
1.26986e-07
1.48276e-08
1.23954e-07
1.22988e-07
1.22215e-07
1.21653e-07
1.21287e-07
1.21048e-07
1.20913e-07
1.2083e-07
1.20801e-07
1.20788e-07
1.20807e-07
1.20825e-07
1.20865e-07
1.20898e-07
1.20947e-07
1.20984e-07
1.21035e-07
1.21074e-07
1.21124e-07
1.21162e-07
1.21209e-07
1.21245e-07
1.21289e-07
1.21322e-07
1.21363e-07
1.21394e-07
1.21431e-07
1.21459e-07
1.21494e-07
1.21519e-07
1.21551e-07
1.21573e-07
1.21603e-07
1.21624e-07
1.21651e-07
1.2167e-07
1.21694e-07
1.21711e-07
1.21735e-07
1.21751e-07
1.21771e-07
1.21787e-07
1.21807e-07
1.21819e-07
1.21838e-07
1.21852e-07
1.21869e-07
1.21881e-07
1.21895e-07
1.21906e-07
1.21919e-07
1.21929e-07
1.21942e-07
1.21953e-07
1.21965e-07
1.21976e-07
1.21984e-07
1.21998e-07
1.22003e-07
1.22013e-07
1.22015e-07
1.22026e-07
1.22029e-07
1.22034e-07
1.22034e-07
1.22033e-07
1.22044e-07
1.22052e-07
1.2206e-07
1.22064e-07
1.22069e-07
1.22077e-07
1.2209e-07
1.22107e-07
1.22121e-07
1.22145e-07
1.22158e-07
1.22181e-07
1.22194e-07
1.22216e-07
1.2223e-07
1.2225e-07
1.2226e-07
1.22277e-07
1.22289e-07
1.22304e-07
1.22318e-07
1.22332e-07
1.22347e-07
1.22363e-07
1.22379e-07
1.2239e-07
1.22424e-07
1.23635e-07
1.26986e-07
1.54579e-08
1.23954e-07
1.22988e-07
1.22215e-07
1.21652e-07
1.21285e-07
1.21046e-07
1.2091e-07
1.20827e-07
1.20797e-07
1.20784e-07
1.20802e-07
1.20821e-07
1.2086e-07
1.20893e-07
1.20942e-07
1.20979e-07
1.2103e-07
1.21069e-07
1.21119e-07
1.21156e-07
1.21204e-07
1.21239e-07
1.21284e-07
1.21317e-07
1.21358e-07
1.21388e-07
1.21426e-07
1.21454e-07
1.21488e-07
1.21513e-07
1.21546e-07
1.21568e-07
1.21597e-07
1.21619e-07
1.21646e-07
1.21665e-07
1.21689e-07
1.21706e-07
1.21729e-07
1.21745e-07
1.21765e-07
1.21782e-07
1.21802e-07
1.21814e-07
1.21833e-07
1.21846e-07
1.21864e-07
1.21876e-07
1.2189e-07
1.219e-07
1.21914e-07
1.21924e-07
1.21937e-07
1.21948e-07
1.21959e-07
1.21971e-07
1.21979e-07
1.21993e-07
1.21998e-07
1.22008e-07
1.2201e-07
1.22021e-07
1.22024e-07
1.22029e-07
1.2203e-07
1.22028e-07
1.22039e-07
1.22047e-07
1.22055e-07
1.22059e-07
1.22064e-07
1.22072e-07
1.22085e-07
1.22102e-07
1.22116e-07
1.2214e-07
1.22153e-07
1.22176e-07
1.22189e-07
1.22211e-07
1.22224e-07
1.22245e-07
1.22255e-07
1.22272e-07
1.22284e-07
1.22299e-07
1.22313e-07
1.22327e-07
1.22342e-07
1.22358e-07
1.22374e-07
1.22385e-07
1.22419e-07
1.23647e-07
1.26987e-07
1.61327e-08
1.23954e-07
1.22988e-07
1.22215e-07
1.21651e-07
1.21283e-07
1.21043e-07
1.20907e-07
1.20823e-07
1.20793e-07
1.20779e-07
1.20797e-07
1.20816e-07
1.20855e-07
1.20887e-07
1.20936e-07
1.20973e-07
1.21024e-07
1.21063e-07
1.21113e-07
1.2115e-07
1.21198e-07
1.21233e-07
1.21278e-07
1.2131e-07
1.21352e-07
1.21382e-07
1.2142e-07
1.21447e-07
1.21482e-07
1.21507e-07
1.21539e-07
1.21562e-07
1.21591e-07
1.21612e-07
1.2164e-07
1.21658e-07
1.21682e-07
1.217e-07
1.21723e-07
1.21739e-07
1.21759e-07
1.21776e-07
1.21796e-07
1.21808e-07
1.21827e-07
1.2184e-07
1.21857e-07
1.2187e-07
1.21884e-07
1.21894e-07
1.21908e-07
1.21918e-07
1.21931e-07
1.21942e-07
1.21953e-07
1.21965e-07
1.21973e-07
1.21987e-07
1.21992e-07
1.22002e-07
1.22005e-07
1.22015e-07
1.22018e-07
1.22024e-07
1.22024e-07
1.22022e-07
1.22033e-07
1.22041e-07
1.22049e-07
1.22053e-07
1.22058e-07
1.22066e-07
1.22079e-07
1.22096e-07
1.2211e-07
1.22133e-07
1.22147e-07
1.22169e-07
1.22183e-07
1.22205e-07
1.22218e-07
1.22238e-07
1.22248e-07
1.22266e-07
1.22278e-07
1.22293e-07
1.22307e-07
1.22321e-07
1.22336e-07
1.22352e-07
1.22368e-07
1.22379e-07
1.22413e-07
1.2366e-07
1.26989e-07
1.68528e-08
1.23954e-07
1.22988e-07
1.22215e-07
1.2165e-07
1.21281e-07
1.2104e-07
1.20903e-07
1.20818e-07
1.20788e-07
1.20774e-07
1.20791e-07
1.20809e-07
1.20849e-07
1.20881e-07
1.20929e-07
1.20967e-07
1.21017e-07
1.21056e-07
1.21106e-07
1.21143e-07
1.21191e-07
1.21226e-07
1.21271e-07
1.21303e-07
1.21345e-07
1.21375e-07
1.21413e-07
1.2144e-07
1.21475e-07
1.215e-07
1.21532e-07
1.21554e-07
1.21584e-07
1.21605e-07
1.21633e-07
1.21651e-07
1.21675e-07
1.21693e-07
1.21716e-07
1.21732e-07
1.21752e-07
1.21769e-07
1.21789e-07
1.21801e-07
1.2182e-07
1.21833e-07
1.21851e-07
1.21863e-07
1.21877e-07
1.21888e-07
1.21901e-07
1.21912e-07
1.21924e-07
1.21935e-07
1.21947e-07
1.21958e-07
1.21966e-07
1.2198e-07
1.21986e-07
1.21996e-07
1.21998e-07
1.22008e-07
1.22011e-07
1.22017e-07
1.22017e-07
1.22016e-07
1.22027e-07
1.22034e-07
1.22042e-07
1.22047e-07
1.22051e-07
1.2206e-07
1.22072e-07
1.22089e-07
1.22103e-07
1.22126e-07
1.22139e-07
1.22162e-07
1.22176e-07
1.22198e-07
1.22211e-07
1.22231e-07
1.22241e-07
1.22259e-07
1.22271e-07
1.22286e-07
1.223e-07
1.22314e-07
1.22329e-07
1.22345e-07
1.22361e-07
1.22372e-07
1.22407e-07
1.23677e-07
1.26991e-07
1.76189e-08
1.23954e-07
1.22989e-07
1.22214e-07
1.21649e-07
1.21279e-07
1.21036e-07
1.20898e-07
1.20813e-07
1.20782e-07
1.20768e-07
1.20785e-07
1.20803e-07
1.20841e-07
1.20874e-07
1.20922e-07
1.20959e-07
1.2101e-07
1.21048e-07
1.21098e-07
1.21135e-07
1.21183e-07
1.21218e-07
1.21263e-07
1.21295e-07
1.21337e-07
1.21367e-07
1.21405e-07
1.21432e-07
1.21467e-07
1.21492e-07
1.21524e-07
1.21546e-07
1.21576e-07
1.21597e-07
1.21625e-07
1.21643e-07
1.21668e-07
1.21685e-07
1.21708e-07
1.21725e-07
1.21744e-07
1.21761e-07
1.21781e-07
1.21793e-07
1.21812e-07
1.21826e-07
1.21843e-07
1.21855e-07
1.21869e-07
1.2188e-07
1.21893e-07
1.21904e-07
1.21916e-07
1.21927e-07
1.21939e-07
1.2195e-07
1.21958e-07
1.21972e-07
1.21978e-07
1.21988e-07
1.2199e-07
1.22001e-07
1.22004e-07
1.2201e-07
1.2201e-07
1.22008e-07
1.22019e-07
1.22027e-07
1.22035e-07
1.2204e-07
1.22044e-07
1.22052e-07
1.22064e-07
1.22081e-07
1.22095e-07
1.22119e-07
1.22132e-07
1.22154e-07
1.22168e-07
1.2219e-07
1.22203e-07
1.22224e-07
1.22234e-07
1.22251e-07
1.22263e-07
1.22279e-07
1.22292e-07
1.22306e-07
1.22321e-07
1.22338e-07
1.22353e-07
1.22364e-07
1.22399e-07
1.23696e-07
1.26993e-07
1.8431e-08
1.23954e-07
1.22989e-07
1.22214e-07
1.21647e-07
1.21276e-07
1.21032e-07
1.20894e-07
1.20808e-07
1.20776e-07
1.20761e-07
1.20777e-07
1.20795e-07
1.20833e-07
1.20865e-07
1.20913e-07
1.2095e-07
1.21001e-07
1.21039e-07
1.21089e-07
1.21126e-07
1.21174e-07
1.21209e-07
1.21254e-07
1.21286e-07
1.21328e-07
1.21358e-07
1.21396e-07
1.21423e-07
1.21458e-07
1.21483e-07
1.21515e-07
1.21538e-07
1.21567e-07
1.21588e-07
1.21616e-07
1.21635e-07
1.21659e-07
1.21676e-07
1.217e-07
1.21716e-07
1.21736e-07
1.21752e-07
1.21773e-07
1.21785e-07
1.21804e-07
1.21817e-07
1.21834e-07
1.21846e-07
1.2186e-07
1.21871e-07
1.21885e-07
1.21895e-07
1.21908e-07
1.21919e-07
1.21931e-07
1.21942e-07
1.2195e-07
1.21964e-07
1.2197e-07
1.2198e-07
1.21982e-07
1.21993e-07
1.21996e-07
1.22001e-07
1.22002e-07
1.22e-07
1.22011e-07
1.22019e-07
1.22027e-07
1.22031e-07
1.22036e-07
1.22044e-07
1.22056e-07
1.22072e-07
1.22086e-07
1.2211e-07
1.22123e-07
1.22145e-07
1.22159e-07
1.22181e-07
1.22194e-07
1.22215e-07
1.22225e-07
1.22243e-07
1.22254e-07
1.2227e-07
1.22284e-07
1.22298e-07
1.22312e-07
1.22329e-07
1.22344e-07
1.22355e-07
1.22391e-07
1.23719e-07
1.26995e-07
1.92879e-08
1.23954e-07
1.22989e-07
1.22213e-07
1.21646e-07
1.21273e-07
1.21028e-07
1.20888e-07
1.20801e-07
1.20768e-07
1.20753e-07
1.20769e-07
1.20786e-07
1.20825e-07
1.20856e-07
1.20904e-07
1.20941e-07
1.20991e-07
1.2103e-07
1.21079e-07
1.21116e-07
1.21164e-07
1.21199e-07
1.21244e-07
1.21276e-07
1.21318e-07
1.21348e-07
1.21386e-07
1.21413e-07
1.21448e-07
1.21473e-07
1.21505e-07
1.21528e-07
1.21557e-07
1.21579e-07
1.21606e-07
1.21625e-07
1.21649e-07
1.21667e-07
1.2169e-07
1.21706e-07
1.21726e-07
1.21742e-07
1.21763e-07
1.21775e-07
1.21794e-07
1.21808e-07
1.21825e-07
1.21837e-07
1.21851e-07
1.21862e-07
1.21875e-07
1.21886e-07
1.21898e-07
1.2191e-07
1.21921e-07
1.21933e-07
1.21941e-07
1.21955e-07
1.2196e-07
1.2197e-07
1.21973e-07
1.21983e-07
1.21987e-07
1.21992e-07
1.21993e-07
1.21991e-07
1.22002e-07
1.22009e-07
1.22018e-07
1.22022e-07
1.22027e-07
1.22035e-07
1.22046e-07
1.22063e-07
1.22077e-07
1.221e-07
1.22113e-07
1.22136e-07
1.22149e-07
1.22171e-07
1.22185e-07
1.22205e-07
1.22215e-07
1.22233e-07
1.22244e-07
1.22261e-07
1.22274e-07
1.22288e-07
1.22303e-07
1.2232e-07
1.22335e-07
1.22346e-07
1.22382e-07
1.23745e-07
1.26997e-07
2.0189e-08
1.23954e-07
1.22989e-07
1.22213e-07
1.21644e-07
1.2127e-07
1.21023e-07
1.20882e-07
1.20794e-07
1.20761e-07
1.20744e-07
1.2076e-07
1.20777e-07
1.20815e-07
1.20846e-07
1.20894e-07
1.2093e-07
1.20981e-07
1.21019e-07
1.21069e-07
1.21106e-07
1.21153e-07
1.21188e-07
1.21233e-07
1.21265e-07
1.21307e-07
1.21337e-07
1.21375e-07
1.21402e-07
1.21437e-07
1.21462e-07
1.21495e-07
1.21517e-07
1.21547e-07
1.21568e-07
1.21596e-07
1.21614e-07
1.21638e-07
1.21656e-07
1.21679e-07
1.21695e-07
1.21715e-07
1.21732e-07
1.21752e-07
1.21765e-07
1.21783e-07
1.21797e-07
1.21814e-07
1.21827e-07
1.21841e-07
1.21852e-07
1.21865e-07
1.21876e-07
1.21888e-07
1.21899e-07
1.21911e-07
1.21922e-07
1.2193e-07
1.21944e-07
1.2195e-07
1.2196e-07
1.21963e-07
1.21973e-07
1.21976e-07
1.21982e-07
1.21983e-07
1.21981e-07
1.21992e-07
1.21999e-07
1.22008e-07
1.22012e-07
1.22017e-07
1.22025e-07
1.22036e-07
1.22052e-07
1.22066e-07
1.22089e-07
1.22102e-07
1.22125e-07
1.22138e-07
1.2216e-07
1.22174e-07
1.22194e-07
1.22205e-07
1.22223e-07
1.22234e-07
1.2225e-07
1.22263e-07
1.22278e-07
1.22292e-07
1.22309e-07
1.22324e-07
1.22335e-07
1.22373e-07
1.23774e-07
1.26999e-07
2.11367e-08
1.23955e-07
1.22989e-07
1.22212e-07
1.21642e-07
1.21266e-07
1.21018e-07
1.20876e-07
1.20787e-07
1.20752e-07
1.20735e-07
1.2075e-07
1.20766e-07
1.20804e-07
1.20835e-07
1.20882e-07
1.20919e-07
1.20969e-07
1.21007e-07
1.21057e-07
1.21094e-07
1.21141e-07
1.21176e-07
1.21221e-07
1.21253e-07
1.21295e-07
1.21325e-07
1.21363e-07
1.2139e-07
1.21425e-07
1.2145e-07
1.21483e-07
1.21505e-07
1.21535e-07
1.21556e-07
1.21584e-07
1.21602e-07
1.21627e-07
1.21644e-07
1.21668e-07
1.21684e-07
1.21704e-07
1.2172e-07
1.21741e-07
1.21753e-07
1.21772e-07
1.21786e-07
1.21803e-07
1.21815e-07
1.21829e-07
1.2184e-07
1.21854e-07
1.21864e-07
1.21877e-07
1.21888e-07
1.219e-07
1.21911e-07
1.21919e-07
1.21933e-07
1.21939e-07
1.21949e-07
1.21952e-07
1.21962e-07
1.21966e-07
1.21971e-07
1.21972e-07
1.21971e-07
1.21981e-07
1.21989e-07
1.21997e-07
1.22001e-07
1.22007e-07
1.22014e-07
1.22025e-07
1.22041e-07
1.22055e-07
1.22078e-07
1.22091e-07
1.22113e-07
1.22126e-07
1.22148e-07
1.22162e-07
1.22183e-07
1.22193e-07
1.22211e-07
1.22222e-07
1.22239e-07
1.22252e-07
1.22267e-07
1.22281e-07
1.22298e-07
1.22313e-07
1.22324e-07
1.22362e-07
1.23807e-07
1.27e-07
2.21339e-08
1.23955e-07
1.2299e-07
1.22212e-07
1.2164e-07
1.21262e-07
1.21013e-07
1.20869e-07
1.20778e-07
1.20743e-07
1.20725e-07
1.2074e-07
1.20755e-07
1.20793e-07
1.20823e-07
1.2087e-07
1.20906e-07
1.20957e-07
1.20994e-07
1.21044e-07
1.21081e-07
1.21128e-07
1.21163e-07
1.21208e-07
1.2124e-07
1.21282e-07
1.21312e-07
1.2135e-07
1.21378e-07
1.21412e-07
1.21437e-07
1.2147e-07
1.21492e-07
1.21522e-07
1.21543e-07
1.21571e-07
1.2159e-07
1.21614e-07
1.21632e-07
1.21655e-07
1.21671e-07
1.21691e-07
1.21708e-07
1.21728e-07
1.21741e-07
1.2176e-07
1.21773e-07
1.2179e-07
1.21803e-07
1.21817e-07
1.21828e-07
1.21841e-07
1.21852e-07
1.21864e-07
1.21876e-07
1.21887e-07
1.21899e-07
1.21907e-07
1.21921e-07
1.21927e-07
1.21937e-07
1.2194e-07
1.2195e-07
1.21954e-07
1.21959e-07
1.21961e-07
1.21959e-07
1.21969e-07
1.21977e-07
1.21985e-07
1.2199e-07
1.21995e-07
1.22002e-07
1.22013e-07
1.22028e-07
1.22043e-07
1.22065e-07
1.22078e-07
1.22101e-07
1.22113e-07
1.22135e-07
1.22149e-07
1.2217e-07
1.22181e-07
1.22199e-07
1.2221e-07
1.22227e-07
1.2224e-07
1.22254e-07
1.22269e-07
1.22286e-07
1.223e-07
1.22311e-07
1.2235e-07
1.23844e-07
1.27001e-07
2.31839e-08
1.23955e-07
1.2299e-07
1.22211e-07
1.21638e-07
1.21258e-07
1.21007e-07
1.20861e-07
1.2077e-07
1.20733e-07
1.20714e-07
1.20728e-07
1.20743e-07
1.2078e-07
1.2081e-07
1.20857e-07
1.20893e-07
1.20943e-07
1.20981e-07
1.2103e-07
1.21067e-07
1.21114e-07
1.21149e-07
1.21194e-07
1.21226e-07
1.21268e-07
1.21298e-07
1.21336e-07
1.21364e-07
1.21398e-07
1.21423e-07
1.21456e-07
1.21478e-07
1.21508e-07
1.21529e-07
1.21557e-07
1.21576e-07
1.216e-07
1.21618e-07
1.21641e-07
1.21658e-07
1.21678e-07
1.21694e-07
1.21715e-07
1.21727e-07
1.21746e-07
1.2176e-07
1.21777e-07
1.21789e-07
1.21804e-07
1.21815e-07
1.21828e-07
1.21839e-07
1.21851e-07
1.21863e-07
1.21874e-07
1.21886e-07
1.21894e-07
1.21908e-07
1.21914e-07
1.21924e-07
1.21927e-07
1.21937e-07
1.21941e-07
1.21947e-07
1.21948e-07
1.21946e-07
1.21956e-07
1.21964e-07
1.21972e-07
1.21977e-07
1.21982e-07
1.21989e-07
1.22e-07
1.22015e-07
1.22029e-07
1.22052e-07
1.22064e-07
1.22087e-07
1.221e-07
1.22122e-07
1.22135e-07
1.22156e-07
1.22167e-07
1.22185e-07
1.22196e-07
1.22213e-07
1.22226e-07
1.22241e-07
1.22255e-07
1.22273e-07
1.22287e-07
1.22298e-07
1.22338e-07
1.23885e-07
1.27001e-07
2.42897e-08
1.23955e-07
1.2299e-07
1.22211e-07
1.21635e-07
1.21254e-07
1.21e-07
1.20853e-07
1.2076e-07
1.20722e-07
1.20703e-07
1.20716e-07
1.2073e-07
1.20767e-07
1.20796e-07
1.20843e-07
1.20879e-07
1.20928e-07
1.20966e-07
1.21015e-07
1.21052e-07
1.21099e-07
1.21134e-07
1.21179e-07
1.21211e-07
1.21253e-07
1.21283e-07
1.21321e-07
1.21348e-07
1.21383e-07
1.21408e-07
1.21441e-07
1.21463e-07
1.21493e-07
1.21515e-07
1.21542e-07
1.21561e-07
1.21586e-07
1.21603e-07
1.21627e-07
1.21643e-07
1.21663e-07
1.2168e-07
1.217e-07
1.21713e-07
1.21732e-07
1.21745e-07
1.21763e-07
1.21775e-07
1.21789e-07
1.218e-07
1.21814e-07
1.21825e-07
1.21837e-07
1.21849e-07
1.2186e-07
1.21872e-07
1.2188e-07
1.21894e-07
1.219e-07
1.2191e-07
1.21913e-07
1.21924e-07
1.21927e-07
1.21933e-07
1.21934e-07
1.21933e-07
1.21943e-07
1.2195e-07
1.21959e-07
1.21963e-07
1.21969e-07
1.21976e-07
1.21986e-07
1.22001e-07
1.22015e-07
1.22037e-07
1.2205e-07
1.22072e-07
1.22085e-07
1.22107e-07
1.2212e-07
1.22142e-07
1.22152e-07
1.22171e-07
1.22182e-07
1.22199e-07
1.22212e-07
1.22227e-07
1.22241e-07
1.22259e-07
1.22272e-07
1.22284e-07
1.22325e-07
1.2393e-07
1.27e-07
2.5455e-08
1.23955e-07
1.2299e-07
1.2221e-07
1.21633e-07
1.21249e-07
1.20994e-07
1.20845e-07
1.2075e-07
1.20711e-07
1.2069e-07
1.20703e-07
1.20716e-07
1.20752e-07
1.20781e-07
1.20828e-07
1.20863e-07
1.20913e-07
1.2095e-07
1.20999e-07
1.21036e-07
1.21083e-07
1.21118e-07
1.21163e-07
1.21195e-07
1.21237e-07
1.21267e-07
1.21305e-07
1.21332e-07
1.21367e-07
1.21392e-07
1.21425e-07
1.21447e-07
1.21477e-07
1.21499e-07
1.21527e-07
1.21545e-07
1.2157e-07
1.21587e-07
1.21611e-07
1.21627e-07
1.21648e-07
1.21664e-07
1.21685e-07
1.21697e-07
1.21716e-07
1.2173e-07
1.21747e-07
1.2176e-07
1.21774e-07
1.21785e-07
1.21799e-07
1.21809e-07
1.21822e-07
1.21833e-07
1.21845e-07
1.21857e-07
1.21865e-07
1.21879e-07
1.21885e-07
1.21895e-07
1.21898e-07
1.21909e-07
1.21912e-07
1.21918e-07
1.2192e-07
1.21918e-07
1.21928e-07
1.21936e-07
1.21944e-07
1.21949e-07
1.21954e-07
1.21961e-07
1.21971e-07
1.21985e-07
1.22e-07
1.22021e-07
1.22034e-07
1.22056e-07
1.22069e-07
1.22091e-07
1.22104e-07
1.22126e-07
1.22137e-07
1.22155e-07
1.22166e-07
1.22184e-07
1.22196e-07
1.22212e-07
1.22225e-07
1.22243e-07
1.22257e-07
1.22268e-07
1.2231e-07
1.23979e-07
1.26996e-07
2.66832e-08
1.23955e-07
1.22991e-07
1.22209e-07
1.2163e-07
1.21244e-07
1.20986e-07
1.20835e-07
1.20739e-07
1.20699e-07
1.20677e-07
1.20688e-07
1.20701e-07
1.20737e-07
1.20766e-07
1.20811e-07
1.20847e-07
1.20896e-07
1.20933e-07
1.20982e-07
1.21019e-07
1.21066e-07
1.21101e-07
1.21145e-07
1.21178e-07
1.21219e-07
1.21249e-07
1.21287e-07
1.21315e-07
1.2135e-07
1.21375e-07
1.21408e-07
1.2143e-07
1.2146e-07
1.21482e-07
1.2151e-07
1.21528e-07
1.21553e-07
1.2157e-07
1.21594e-07
1.21611e-07
1.21631e-07
1.21647e-07
1.21668e-07
1.21681e-07
1.217e-07
1.21713e-07
1.21731e-07
1.21743e-07
1.21758e-07
1.21769e-07
1.21782e-07
1.21793e-07
1.21806e-07
1.21817e-07
1.21829e-07
1.2184e-07
1.21848e-07
1.21863e-07
1.21869e-07
1.21879e-07
1.21882e-07
1.21893e-07
1.21896e-07
1.21902e-07
1.21904e-07
1.21903e-07
1.21912e-07
1.2192e-07
1.21928e-07
1.21933e-07
1.21939e-07
1.21945e-07
1.21955e-07
1.21969e-07
1.21983e-07
1.22004e-07
1.22018e-07
1.2204e-07
1.22052e-07
1.22074e-07
1.22087e-07
1.22109e-07
1.2212e-07
1.22139e-07
1.2215e-07
1.22167e-07
1.2218e-07
1.22195e-07
1.22209e-07
1.22227e-07
1.2224e-07
1.22252e-07
1.22295e-07
1.24032e-07
1.24073e-07
2.79782e-08
1.23956e-07
1.22991e-07
1.22209e-07
1.21627e-07
1.21239e-07
1.20979e-07
1.20826e-07
1.20728e-07
1.20686e-07
1.20663e-07
1.20673e-07
1.20686e-07
1.2072e-07
1.20749e-07
1.20794e-07
1.20829e-07
1.20878e-07
1.20915e-07
1.20964e-07
1.21e-07
1.21048e-07
1.21082e-07
1.21127e-07
1.21159e-07
1.21201e-07
1.21231e-07
1.21269e-07
1.21297e-07
1.21332e-07
1.21357e-07
1.2139e-07
1.21412e-07
1.21442e-07
1.21463e-07
1.21491e-07
1.2151e-07
1.21535e-07
1.21552e-07
1.21576e-07
1.21593e-07
1.21613e-07
1.21629e-07
1.2165e-07
1.21663e-07
1.21682e-07
1.21696e-07
1.21713e-07
1.21726e-07
1.2174e-07
1.21751e-07
1.21765e-07
1.21776e-07
1.21788e-07
1.218e-07
1.21811e-07
1.21823e-07
1.21831e-07
1.21845e-07
1.21852e-07
1.21862e-07
1.21865e-07
1.21876e-07
1.2188e-07
1.21885e-07
1.21888e-07
1.21886e-07
1.21896e-07
1.21903e-07
1.21911e-07
1.21916e-07
1.21922e-07
1.21929e-07
1.21938e-07
1.21951e-07
1.21966e-07
1.21987e-07
1.22e-07
1.22022e-07
1.22034e-07
1.22056e-07
1.22069e-07
1.22091e-07
1.22102e-07
1.22121e-07
1.22132e-07
1.2215e-07
1.22162e-07
1.22178e-07
1.22191e-07
1.2221e-07
1.22223e-07
1.22234e-07
1.22279e-07
1.24089e-07
1.17783e-07
2.93436e-08
1.23956e-07
1.22992e-07
1.22208e-07
1.21625e-07
1.21234e-07
1.20971e-07
1.20816e-07
1.20715e-07
1.20672e-07
1.20648e-07
1.20658e-07
1.20669e-07
1.20703e-07
1.20731e-07
1.20776e-07
1.2081e-07
1.20859e-07
1.20896e-07
1.20945e-07
1.20981e-07
1.21028e-07
1.21063e-07
1.21107e-07
1.2114e-07
1.21181e-07
1.21211e-07
1.21249e-07
1.21277e-07
1.21312e-07
1.21337e-07
1.2137e-07
1.21392e-07
1.21423e-07
1.21444e-07
1.21472e-07
1.21491e-07
1.21516e-07
1.21533e-07
1.21557e-07
1.21574e-07
1.21594e-07
1.2161e-07
1.21631e-07
1.21644e-07
1.21663e-07
1.21677e-07
1.21694e-07
1.21707e-07
1.21721e-07
1.21733e-07
1.21746e-07
1.21757e-07
1.2177e-07
1.21781e-07
1.21793e-07
1.21805e-07
1.21813e-07
1.21827e-07
1.21833e-07
1.21844e-07
1.21847e-07
1.21858e-07
1.21862e-07
1.21868e-07
1.2187e-07
1.21868e-07
1.21878e-07
1.21885e-07
1.21894e-07
1.21899e-07
1.21905e-07
1.21911e-07
1.2192e-07
1.21933e-07
1.21947e-07
1.21968e-07
1.21981e-07
1.22002e-07
1.22015e-07
1.22037e-07
1.2205e-07
1.22072e-07
1.22083e-07
1.22102e-07
1.22113e-07
1.22131e-07
1.22143e-07
1.22159e-07
1.22172e-07
1.22191e-07
1.22204e-07
1.22215e-07
1.22262e-07
1.2415e-07
1.12153e-07
3.07833e-08
1.23956e-07
1.22992e-07
1.22207e-07
1.21621e-07
1.21228e-07
1.20962e-07
1.20805e-07
1.20702e-07
1.20658e-07
1.20632e-07
1.20641e-07
1.20651e-07
1.20685e-07
1.20712e-07
1.20756e-07
1.2079e-07
1.20839e-07
1.20876e-07
1.20925e-07
1.2096e-07
1.21008e-07
1.21042e-07
1.21087e-07
1.21119e-07
1.2116e-07
1.2119e-07
1.21229e-07
1.21256e-07
1.21291e-07
1.21316e-07
1.21349e-07
1.21372e-07
1.21402e-07
1.21423e-07
1.21452e-07
1.2147e-07
1.21495e-07
1.21513e-07
1.21537e-07
1.21553e-07
1.21574e-07
1.2159e-07
1.21611e-07
1.21624e-07
1.21643e-07
1.21657e-07
1.21674e-07
1.21687e-07
1.21702e-07
1.21713e-07
1.21727e-07
1.21738e-07
1.2175e-07
1.21762e-07
1.21773e-07
1.21785e-07
1.21793e-07
1.21808e-07
1.21814e-07
1.21825e-07
1.21828e-07
1.21838e-07
1.21843e-07
1.21849e-07
1.21851e-07
1.21849e-07
1.21859e-07
1.21866e-07
1.21875e-07
1.2188e-07
1.21886e-07
1.21892e-07
1.21901e-07
1.21913e-07
1.21927e-07
1.21947e-07
1.21961e-07
1.21982e-07
1.21995e-07
1.22016e-07
1.22029e-07
1.22051e-07
1.22063e-07
1.22082e-07
1.22093e-07
1.22111e-07
1.22123e-07
1.2214e-07
1.22153e-07
1.22172e-07
1.22184e-07
1.22195e-07
1.22244e-07
1.24215e-07
1.07117e-07
3.23008e-08
1.23956e-07
1.22992e-07
1.22207e-07
1.21618e-07
1.21222e-07
1.20953e-07
1.20793e-07
1.20689e-07
1.20643e-07
1.20615e-07
1.20623e-07
1.20632e-07
1.20665e-07
1.20692e-07
1.20736e-07
1.20769e-07
1.20818e-07
1.20854e-07
1.20903e-07
1.20939e-07
1.20986e-07
1.2102e-07
1.21065e-07
1.21097e-07
1.21138e-07
1.21168e-07
1.21207e-07
1.21234e-07
1.21269e-07
1.21294e-07
1.21328e-07
1.2135e-07
1.2138e-07
1.21402e-07
1.2143e-07
1.21449e-07
1.21474e-07
1.21491e-07
1.21515e-07
1.21532e-07
1.21553e-07
1.21569e-07
1.2159e-07
1.21603e-07
1.21622e-07
1.21636e-07
1.21653e-07
1.21666e-07
1.21681e-07
1.21692e-07
1.21706e-07
1.21717e-07
1.21729e-07
1.21741e-07
1.21753e-07
1.21765e-07
1.21773e-07
1.21787e-07
1.21794e-07
1.21804e-07
1.21808e-07
1.21818e-07
1.21822e-07
1.21828e-07
1.21831e-07
1.2183e-07
1.21839e-07
1.21846e-07
1.21855e-07
1.2186e-07
1.21866e-07
1.21872e-07
1.2188e-07
1.21893e-07
1.21907e-07
1.21926e-07
1.2194e-07
1.21961e-07
1.21973e-07
1.21995e-07
1.22008e-07
1.2203e-07
1.22041e-07
1.22061e-07
1.22072e-07
1.2209e-07
1.22102e-07
1.22119e-07
1.22131e-07
1.22151e-07
1.22163e-07
1.22174e-07
1.22224e-07
1.24283e-07
1.02611e-07
3.38995e-08
1.23956e-07
1.22993e-07
1.22206e-07
1.21615e-07
1.21215e-07
1.20944e-07
1.20781e-07
1.20675e-07
1.20627e-07
1.20598e-07
1.20604e-07
1.20612e-07
1.20645e-07
1.2067e-07
1.20714e-07
1.20747e-07
1.20796e-07
1.20831e-07
1.2088e-07
1.20915e-07
1.20963e-07
1.20997e-07
1.21041e-07
1.21073e-07
1.21115e-07
1.21145e-07
1.21183e-07
1.21211e-07
1.21246e-07
1.21271e-07
1.21304e-07
1.21327e-07
1.21357e-07
1.21379e-07
1.21407e-07
1.21426e-07
1.21451e-07
1.21469e-07
1.21493e-07
1.21509e-07
1.2153e-07
1.21546e-07
1.21568e-07
1.2158e-07
1.21599e-07
1.21613e-07
1.21631e-07
1.21644e-07
1.21659e-07
1.2167e-07
1.21684e-07
1.21695e-07
1.21707e-07
1.21719e-07
1.21731e-07
1.21743e-07
1.21751e-07
1.21765e-07
1.21772e-07
1.21783e-07
1.21786e-07
1.21797e-07
1.21801e-07
1.21807e-07
1.2181e-07
1.21809e-07
1.21818e-07
1.21825e-07
1.21834e-07
1.21839e-07
1.21845e-07
1.21851e-07
1.21859e-07
1.21871e-07
1.21885e-07
1.21904e-07
1.21917e-07
1.21938e-07
1.21951e-07
1.21972e-07
1.21985e-07
1.22007e-07
1.22019e-07
1.22038e-07
1.22049e-07
1.22068e-07
1.2208e-07
1.22097e-07
1.22109e-07
1.22129e-07
1.2214e-07
1.22152e-07
1.22204e-07
1.24352e-07
9.85802e-08
3.55823e-08
1.23957e-07
1.22993e-07
1.22205e-07
1.21612e-07
1.21209e-07
1.20934e-07
1.20769e-07
1.2066e-07
1.2061e-07
1.20579e-07
1.20584e-07
1.20592e-07
1.20623e-07
1.20648e-07
1.20691e-07
1.20724e-07
1.20772e-07
1.20807e-07
1.20856e-07
1.20891e-07
1.20938e-07
1.20972e-07
1.21017e-07
1.21049e-07
1.21091e-07
1.2112e-07
1.21159e-07
1.21186e-07
1.21222e-07
1.21247e-07
1.2128e-07
1.21302e-07
1.21333e-07
1.21354e-07
1.21383e-07
1.21402e-07
1.21427e-07
1.21445e-07
1.21469e-07
1.21485e-07
1.21506e-07
1.21522e-07
1.21544e-07
1.21557e-07
1.21576e-07
1.2159e-07
1.21607e-07
1.2162e-07
1.21635e-07
1.21647e-07
1.2166e-07
1.21672e-07
1.21684e-07
1.21696e-07
1.21708e-07
1.2172e-07
1.21728e-07
1.21742e-07
1.21749e-07
1.2176e-07
1.21764e-07
1.21774e-07
1.21779e-07
1.21785e-07
1.21788e-07
1.21786e-07
1.21795e-07
1.21803e-07
1.21811e-07
1.21817e-07
1.21823e-07
1.21829e-07
1.21836e-07
1.21848e-07
1.21862e-07
1.2188e-07
1.21894e-07
1.21914e-07
1.21927e-07
1.21948e-07
1.21961e-07
1.21983e-07
1.21995e-07
1.22014e-07
1.22025e-07
1.22044e-07
1.22056e-07
1.22073e-07
1.22086e-07
1.22106e-07
1.22117e-07
1.22128e-07
1.22182e-07
1.24422e-07
9.49776e-08
3.73512e-08
1.23957e-07
1.22994e-07
1.22204e-07
1.21608e-07
1.21202e-07
1.20924e-07
1.20756e-07
1.20644e-07
1.20592e-07
1.2056e-07
1.20564e-07
1.2057e-07
1.206e-07
1.20624e-07
1.20667e-07
1.20699e-07
1.20747e-07
1.20782e-07
1.20831e-07
1.20866e-07
1.20913e-07
1.20946e-07
1.20991e-07
1.21023e-07
1.21065e-07
1.21094e-07
1.21133e-07
1.2116e-07
1.21196e-07
1.21221e-07
1.21254e-07
1.21277e-07
1.21307e-07
1.21329e-07
1.21357e-07
1.21376e-07
1.21401e-07
1.21419e-07
1.21443e-07
1.2146e-07
1.21481e-07
1.21497e-07
1.21519e-07
1.21532e-07
1.21551e-07
1.21565e-07
1.21583e-07
1.21596e-07
1.21611e-07
1.21622e-07
1.21636e-07