/*--------------------------------*- C++ -*----------------------------------*\
| =========                 |                                                 |
| \\      /  F ield         | OpenFOAM: The Open Source CFD Toolbox           |
|  \\    /   O peration     | Version:  v2012                                 |
|   \\  /    A nd           | Website:  www.openfoam.com                      |
|    \\/     M anipulation  |                                                 |
\*---------------------------------------------------------------------------*/
FoamFile
{
    version     2.0;
    format      ascii;
    class       volScalarField;
    location    "37.5";
    object      omega;
}
// * * * * * * * * * * * * * * * * * * * * * * * * * * * * * * * * * * * * * //

dimensions      [0 0 -1 0 0 0 0];


internalField   nonuniform List<scalar> 
209825
(
8261.28
7566.29
7000.09
6552.77
6204.36
5933.29
5719.73
5549.56
5411.38
5298.15
5203.58
5124.34
5056.6
4998.88
4948.58
4905.2
4866.76
4833.31
4803.24
4776.92
4752.92
4731.86
4712.39
4695.28
4679.26
4665.2
4651.87
4640.18
4628.96
4619.17
4609.64
4601.38
4593.23
4586.21
4579.17
4573.19
4567.11
4561.98
4556.67
4552.24
4547.65
4543.79
4539.75
4536.45
4532.9
4530.01
4526.87
4524.34
4521.63
4519.42
4517.07
4515.21
4513.17
4511.42
4509.67
4508.16
4506.61
4505.27
4503.91
4502.84
4501.74
4500.8
4499.81
4499.12
4498.24
4497.61
4496.82
4496.36
4495.74
4495.42
4494.87
4494.59
4494.09
4493.83
4493.33
4493.08
4492.68
4492.51
4492.18
4492.1
4491.9
4491.99
4491.97
4492.22
4492.22
4492.7
4492.7
4493.4
4493.4
4494.27
4494.27
4495.4
4496.04
4526.19
4640.04
113304
8261.28
7566.29
7000.09
6552.76
6204.34
5933.26
5719.68
5549.51
5411.32
5298.08
5203.5
5124.25
5056.5
4998.78
4948.48
4905.09
4866.65
4833.2
4803.13
4776.81
4752.8
4731.74
4712.27
4695.15
4679.13
4665.07
4651.74
4640.05
4628.83
4619.04
4609.51
4601.25
4593.09
4586.07
4579.04
4573.05
4566.98
4561.84
4556.53
4552.1
4547.51
4543.65
4539.61
4536.31
4532.75
4529.87
4526.73
4524.2
4521.48
4519.28
4516.93
4515.07
4513.02
4511.28
4509.52
4508.02
4506.46
4505.13
4503.76
4502.69
4501.6
4500.66
4499.66
4498.97
4498.09
4497.46
4496.67
4496.21
4495.59
4495.27
4494.72
4494.44
4493.94
4493.68
4493.18
4492.93
4492.53
4492.36
4492.03
4491.95
4491.75
4491.84
4491.82
4492.07
4492.07
4492.54
4492.54
4493.25
4493.25
4494.12
4494.11
4495.25
4495.89
4526.09
4639.93
110006
8261.28
7566.3
7000.09
6552.73
6204.27
5933.14
5719.53
5549.32
5411.1
5297.84
5203.23
5123.96
5056.2
4998.46
4948.14
4904.74
4866.29
4832.83
4802.74
4776.42
4752.41
4731.34
4711.86
4694.74
4678.71
4664.65
4651.31
4639.62
4628.39
4618.6
4609.07
4600.8
4592.64
4585.62
4578.58
4572.6
4566.52
4561.38
4556.07
4551.64
4547.05
4543.19
4539.14
4535.84
4532.28
4529.4
4526.25
4523.72
4521.01
4518.8
4516.45
4514.59
4512.54
4510.8
4509.04
4507.54
4505.98
4504.64
4503.28
4502.21
4501.11
4500.17
4499.18
4498.49
4497.6
4496.97
4496.18
4495.73
4495.1
4494.78
4494.23
4493.95
4493.45
4493.19
4492.69
4492.44
4492.04
4491.87
4491.54
4491.46
4491.26
4491.34
4491.32
4491.57
4491.57
4492.05
4492.05
4492.75
4492.75
4493.61
4493.61
4494.74
4495.39
4525.7
4639.49
106220
8261.28
7566.31
7000.08
6552.68
6204.15
5932.95
5719.27
5549
5410.72
5297.41
5202.77
5123.46
5055.67
4997.9
4947.56
4904.14
4865.66
4832.19
4802.09
4775.75
4751.73
4730.64
4711.16
4694.03
4678
4663.92
4650.58
4638.88
4627.64
4617.85
4608.31
4600.04
4591.88
4584.85
4577.81
4571.82
4565.74
4560.59
4555.28
4550.85
4546.25
4542.39
4538.34
4535.04
4531.48
4528.59
4525.45
4522.91
4520.19
4517.99
4515.63
4513.77
4511.72
4509.98
4508.22
4506.71
4505.16
4503.82
4502.45
4501.38
4500.28
4499.34
4498.34
4497.65
4496.77
4496.14
4495.34
4494.89
4494.26
4493.94
4493.39
4493.11
4492.61
4492.35
4491.85
4491.6
4491.19
4491.03
4490.69
4490.61
4490.41
4490.5
4490.47
4490.72
4490.72
4491.19
4491.19
4491.89
4491.9
4492.76
4492.76
4493.89
4494.54
4525.02
4638.75
102327
8261.29
7566.33
7000.08
6552.6
6203.97
5932.67
5718.9
5548.54
5410.18
5296.81
5202.11
5122.75
5054.91
4997.1
4946.73
4903.28
4864.78
4831.28
4801.16
4774.8
4750.76
4729.66
4710.16
4693.01
4676.97
4662.89
4649.53
4637.82
4626.58
4616.78
4607.23
4598.95
4590.78
4583.75
4576.7
4570.71
4564.62
4559.47
4554.16
4549.72
4545.12
4541.25
4537.2
4533.89
4530.33
4527.44
4524.29
4521.76
4519.04
4516.83
4514.47
4512.61
4510.56
4508.81
4507.05
4505.54
4503.98
4502.64
4501.27
4500.2
4499.1
4498.16
4497.16
4496.47
4495.58
4494.95
4494.15
4493.7
4493.07
4492.75
4492.19
4491.92
4491.41
4491.15
4490.65
4490.4
4489.99
4489.82
4489.49
4489.41
4489.21
4489.29
4489.26
4489.51
4489.51
4489.98
4489.98
4490.68
4490.68
4491.54
4491.54
4492.66
4493.32
4524.03
4637.68
98430.8
8261.29
7566.36
7000.07
6552.5
6203.74
5932.31
5718.41
5547.93
5409.48
5296.02
5201.24
5121.82
5053.92
4996.07
4945.64
4902.16
4863.62
4830.09
4799.94
4773.56
4749.49
4728.37
4708.86
4691.69
4675.63
4661.53
4648.17
4636.44
4625.19
4615.38
4605.82
4597.54
4589.36
4582.31
4575.26
4569.26
4563.16
4558.01
4552.69
4548.25
4543.64
4539.77
4535.71
4532.4
4528.84
4525.94
4522.79
4520.25
4517.53
4515.31
4512.95
4511.09
4509.03
4507.28
4505.52
4504.01
4502.45
4501.11
4499.73
4498.66
4497.56
4496.61
4495.61
4494.92
4494.03
4493.4
4492.6
4492.14
4491.51
4491.19
4490.63
4490.36
4489.85
4489.59
4489.09
4488.84
4488.43
4488.26
4487.93
4487.84
4487.63
4487.71
4487.69
4487.93
4487.93
4488.39
4488.39
4489.09
4489.09
4489.94
4489.94
4491.07
4491.73
4522.74
4636.28
94572
8261.3
7566.4
7000.07
6552.38
6203.46
5931.87
5717.81
5547.19
5408.61
5295.04
5200.17
5120.67
5052.7
4994.78
4944.3
4900.77
4862.19
4828.62
4798.44
4772.02
4747.93
4726.78
4707.24
4690.06
4673.98
4659.86
4646.48
4634.74
4623.47
4613.64
4604.08
4595.78
4587.59
4580.54
4573.48
4567.47
4561.36
4556.2
4550.87
4546.42
4541.81
4537.93
4533.87
4530.56
4526.98
4524.08
4520.93
4518.38
4515.65
4513.44
4511.07
4509.2
4507.15
4505.39
4503.63
4502.12
4500.55
4499.21
4497.83
4496.75
4495.65
4494.7
4493.7
4493
4492.11
4491.48
4490.68
4490.22
4489.59
4489.26
4488.7
4488.42
4487.91
4487.66
4487.15
4486.9
4486.49
4486.32
4485.98
4485.9
4485.69
4485.76
4485.73
4485.97
4485.97
4486.43
4486.43
4487.12
4487.12
4487.97
4487.97
4489.09
4489.76
4521.14
4634.56
90769.5
8261.3
7566.44
7000.06
6552.23
6203.13
5931.33
5717.09
5546.3
5407.58
5293.88
5198.9
5119.29
5051.24
4993.25
4942.7
4899.11
4860.48
4826.86
4796.64
4770.18
4746.06
4724.88
4705.31
4688.1
4672
4657.86
4644.46
4632.7
4621.41
4611.57
4601.99
4593.68
4585.48
4578.41
4571.34
4565.32
4559.21
4554.04
4548.7
4544.24
4539.62
4535.74
4531.66
4528.35
4524.77
4521.86
4518.7
4516.15
4513.42
4511.2
4508.83
4506.95
4504.89
4503.13
4501.36
4499.85
4498.28
4496.93
4495.55
4494.47
4493.36
4492.42
4491.41
4490.71
4489.82
4489.18
4488.38
4487.92
4487.28
4486.96
4486.39
4486.11
4485.6
4485.34
4484.84
4484.59
4484.17
4484
4483.66
4483.57
4483.36
4483.43
4483.4
4483.63
4483.63
4484.08
4484.08
4484.77
4484.77
4485.61
4485.61
4486.73
4487.4
4519.24
4632.52
87031.9
8261.31
7566.48
7000.05
6552.07
6202.74
5930.71
5716.25
5545.27
5406.37
5292.52
5197.41
5117.69
5049.54
4991.46
4940.84
4897.17
4858.48
4824.81
4794.54
4768.04
4743.87
4722.66
4703.06
4685.82
4669.69
4655.52
4642.1
4630.32
4619.01
4609.16
4599.55
4591.23
4583.01
4575.94
4568.85
4562.82
4556.69
4551.51
4546.16
4541.7
4537.07
4533.18
4529.09
4525.77
4522.18
4519.27
4516.1
4513.55
4510.81
4508.58
4506.2
4504.32
4502.26
4500.5
4498.72
4497.2
4495.63
4494.28
4492.9
4491.81
4490.7
4489.75
4488.74
4488.04
4487.14
4486.5
4485.69
4485.23
4484.59
4484.26
4483.7
4483.42
4482.9
4482.64
4482.13
4481.88
4481.47
4481.29
4480.95
4480.86
4480.64
4480.71
4480.67
4480.9
4480.9
4481.34
4481.34
4482.02
4482.02
4482.86
4482.86
4483.98
4484.65
4517.02
4630.14
83361.9
8261.31
7566.54
7000.04
6551.87
6202.3
5930.01
5715.29
5544.09
5404.99
5290.97
5195.71
5115.86
5047.59
4989.41
4938.7
4894.96
4856.19
4822.47
4792.13
4765.58
4741.37
4720.12
4700.48
4683.2
4667.04
4652.85
4639.4
4627.59
4616.26
4606.39
4596.76
4588.42
4580.19
4573.09
4565.99
4559.95
4553.81
4548.61
4543.26
4538.78
4534.14
4530.24
4526.15
4522.81
4519.22
4516.3
4513.12
4510.56
4507.81
4505.58
4503.2
4501.31
4499.24
4497.47
4495.69
4494.17
4492.59
4491.24
4489.85
4488.76
4487.64
4486.69
4485.67
4484.97
4484.07
4483.42
4482.62
4482.15
4481.51
4481.18
4480.61
4480.32
4479.81
4479.55
4479.04
4478.78
4478.36
4478.19
4477.84
4477.75
4477.53
4477.59
4477.55
4477.77
4477.76
4478.2
4478.2
4478.87
4478.87
4479.7
4479.7
4480.82
4481.5
4514.48
4627.43
79757.9
8261.32
7566.6
7000.03
6551.66
6201.8
5929.22
5714.22
5542.76
5403.44
5289.22
5193.79
5113.79
5045.39
4987.1
4936.29
4892.46
4853.61
4819.82
4789.42
4762.81
4738.55
4717.25
4697.56
4680.25
4664.05
4649.83
4636.34
4624.51
4613.16
4603.26
4593.61
4585.25
4576.99
4569.89
4562.76
4556.7
4550.55
4545.34
4539.97
4535.48
4530.83
4526.92
4522.82
4519.47
4515.87
4512.94
4509.76
4507.19
4504.43
4502.19
4499.8
4497.91
4495.83
4494.06
4492.27
4490.74
4489.16
4487.8
4486.41
4485.31
4484.19
4483.23
4482.21
4481.5
4480.6
4479.95
4479.14
4478.67
4478.02
4477.69
4477.12
4476.83
4476.31
4476.05
4475.54
4475.28
4474.86
4474.68
4474.33
4474.24
4474.01
4474.06
4474.01
4474.23
4474.22
4474.65
4474.65
4475.31
4475.31
4476.13
4476.13
4477.24
4477.94
4511.62
4624.39
76214
8261.33
7566.66
7000.02
6551.42
6201.25
5928.33
5713.02
5541.28
5401.71
5287.27
5191.65
5111.49
5042.94
4984.52
4933.6
4889.67
4850.73
4816.86
4786.39
4759.72
4735.39
4714.04
4694.31
4676.95
4660.71
4646.45
4632.94
4621.08
4609.69
4599.76
4590.09
4581.71
4573.43
4566.3
4559.16
4553.08
4546.91
4541.69
4536.3
4531.8
4527.13
4523.21
4519.1
4515.74
4512.13
4509.19
4506
4503.42
4500.65
4498.41
4496.01
4494.11
4492.02
4490.24
4488.45
4486.92
4485.32
4483.96
4482.56
4481.46
4480.33
4479.37
4478.34
4477.63
4476.72
4476.07
4475.25
4474.78
4474.13
4473.79
4473.22
4472.93
4472.41
4472.14
4471.63
4471.37
4470.94
4470.76
4470.41
4470.31
4470.07
4470.12
4470.07
4470.27
4470.27
4470.68
4470.68
4471.33
4471.33
4472.14
4472.14
4473.25
4473.97
4508.43
4621.02
72726.2
8261.34
7566.74
7000.01
6551.16
6200.65
5927.37
5711.7
5539.65
5399.8
5285.12
5189.29
5108.94
5040.24
4981.67
4930.63
4886.58
4847.55
4813.59
4783.04
4756.3
4731.91
4710.5
4690.71
4673.31
4657.02
4642.72
4629.17
4617.27
4605.85
4595.9
4586.2
4577.79
4569.48
4562.33
4555.17
4549.08
4542.89
4537.65
4532.24
4527.73
4523.04
4519.11
4514.98
4511.61
4507.99
4505.04
4501.84
4499.25
4496.47
4494.22
4491.81
4489.9
4487.81
4486.02
4484.22
4482.68
4481.08
4479.71
4478.3
4477.2
4476.06
4475.1
4474.06
4473.34
4472.43
4471.78
4470.95
4470.47
4469.82
4469.48
4468.9
4468.6
4468.08
4467.81
4467.3
4467.03
4466.6
4466.42
4466.07
4465.96
4465.72
4465.76
4465.7
4465.89
4465.89
4466.29
4466.29
4466.93
4466.93
4467.73
4467.73
4468.84
4469.56
4504.91
4617.32
69301
8261.35
7566.82
7000
6550.88
6199.99
5926.31
5710.26
5537.86
5397.71
5282.77
5186.7
5106.15
5037.27
4978.55
4927.37
4883.2
4844.06
4810
4779.36
4752.54
4728.08
4706.61
4686.76
4669.31
4652.97
4638.63
4625.03
4613.1
4601.64
4591.65
4581.92
4573.48
4565.15
4557.98
4550.8
4544.68
4538.47
4533.21
4527.79
4523.25
4518.55
4514.61
4510.46
4507.08
4503.44
4500.48
4497.27
4494.67
4491.88
4489.62
4487.19
4485.28
4483.18
4481.38
4479.57
4478.03
4476.42
4475.05
4473.63
4472.52
4471.37
4470.4
4469.36
4468.64
4467.71
4467.06
4466.23
4465.75
4465.08
4464.74
4464.15
4463.86
4463.33
4463.06
4462.54
4462.28
4461.84
4461.65
4461.3
4461.19
4460.94
4460.97
4460.9
4461.09
4461.08
4461.47
4461.47
4462.1
4462.1
4462.88
4462.88
4463.99
4464.73
4501.04
4613.28
65944.4
8261.36
7566.91
7000
6550.57
6199.28
5925.16
5708.7
5535.92
5395.44
5280.21
5183.89
5103.12
5034.04
4975.15
4923.82
4879.52
4840.26
4806.09
4775.36
4748.45
4723.91
4702.37
4682.46
4664.94
4648.55
4634.16
4620.51
4608.54
4597.05
4587.02
4577.26
4568.79
4560.43
4553.23
4546.02
4539.88
4533.64
4528.37
4522.92
4518.37
4513.65
4509.69
4505.53
4502.14
4498.48
4495.51
4492.28
4489.67
4486.87
4484.6
4482.16
4480.24
4478.12
4476.32
4474.5
4472.95
4471.33
4469.96
4468.53
4467.41
4466.25
4465.28
4464.23
4463.5
4462.57
4461.91
4461.08
4460.59
4459.92
4459.57
4458.98
4458.68
4458.15
4457.88
4457.35
4457.08
4456.65
4456.45
4456.09
4455.98
4455.73
4455.75
4455.67
4455.84
4455.83
4456.21
4456.21
4456.83
4456.82
4457.6
4457.6
4458.7
4459.46
4496.83
4608.91
62662.1
8261.37
7567
6999.99
6550.25
6198.52
5923.93
5707.01
5533.83
5392.98
5277.44
5180.84
5099.84
5030.55
4971.47
4919.97
4875.53
4836.14
4801.86
4771.02
4744.02
4719.4
4697.78
4677.79
4660.22
4643.77
4629.32
4615.62
4603.61
4592.07
4582
4572.2
4563.7
4555.31
4548.08
4540.84
4534.68
4528.41
4523.12
4517.65
4513.08
4508.34
4504.36
4500.18
4496.77
4493.1
4490.12
4486.87
4484.25
4481.44
4479.15
4476.7
4474.77
4472.65
4470.84
4469
4467.44
4465.82
4464.43
4462.99
4461.87
4460.7
4459.72
4458.66
4457.93
4456.99
4456.33
4455.48
4454.99
4454.31
4453.96
4453.36
4453.06
4452.53
4452.25
4451.72
4451.45
4451.01
4450.81
4450.45
4450.33
4450.07
4450.08
4449.99
4450.15
4450.14
4450.5
4450.5
4451.1
4451.1
4451.86
4451.86
4452.95
4453.74
4492.27
4604.21
59459.3
8261.38
7567.11
6999.98
6549.91
6197.7
5922.6
5705.21
5531.58
5390.35
5274.46
5177.57
5096.3
5026.78
4967.51
4915.83
4871.23
4831.7
4797.29
4766.34
4739.24
4714.53
4692.82
4672.76
4655.12
4638.6
4624.1
4610.35
4598.28
4586.69
4576.59
4566.75
4558.21
4549.78
4542.52
4535.25
4529.06
4522.77
4517.45
4511.96
4507.37
4502.61
4498.61
4494.41
4490.98
4487.3
4484.3
4481.04
4478.4
4475.57
4473.27
4470.81
4468.86
4466.73
4464.91
4463.06
4461.5
4459.86
4458.47
4457.02
4455.88
4454.71
4453.73
4452.65
4451.91
4450.97
4450.3
4449.45
4448.95
4448.26
4447.9
4447.3
4446.99
4446.46
4446.18
4445.65
4445.37
4444.92
4444.72
4444.35
4444.23
4443.97
4443.96
4443.86
4444.01
4443.99
4444.34
4444.34
4444.93
4444.92
4445.67
4445.67
4446.76
4447.56
4487.33
4599.18
56340.9
8261.39
7567.21
6999.98
6549.54
6196.83
5921.19
5703.28
5529.18
5387.52
5271.28
5174.06
5092.51
5022.75
4963.26
4911.39
4866.62
4826.94
4792.4
4761.32
4734.11
4709.29
4687.5
4667.36
4649.64
4633.05
4618.49
4604.68
4592.56
4580.92
4570.77
4560.89
4552.31
4543.85
4536.55
4529.25
4523.03
4516.71
4511.36
4505.85
4501.23
4496.45
4492.43
4488.21
4484.76
4481.06
4478.04
4474.76
4472.11
4469.27
4466.95
4464.48
4462.52
4460.37
4458.54
4456.68
4455.1
4453.46
4452.06
4450.6
4449.45
4448.27
4447.28
4446.19
4445.45
4444.49
4443.82
4442.96
4442.45
4441.76
4441.39
4440.78
4440.47
4439.93
4439.65
4439.11
4438.83
4438.38
4438.17
4437.79
4437.67
4437.4
4437.38
4437.27
4437.41
4437.39
4437.72
4437.72
4438.28
4438.28
4439.01
4439.01
4440.09
4440.93
4482.02
4593.82
53311.3
8261.4
7567.33
6999.98
6549.16
6195.91
5919.7
5701.22
5526.62
5384.52
5267.88
5170.31
5088.47
5018.44
4958.72
4906.64
4861.69
4821.85
4787.16
4755.95
4728.63
4703.7
4681.81
4661.58
4643.78
4627.12
4612.49
4598.61
4586.44
4574.75
4564.55
4554.62
4546
4537.49
4530.16
4522.82
4516.57
4510.22
4504.84
4499.3
4494.66
4489.85
4485.81
4481.57
4478.1
4474.37
4471.34
4468.05
4465.38
4462.52
4460.19
4457.7
4455.72
4453.56
4451.72
4449.85
4448.26
4446.6
4445.19
4443.72
4442.57
4441.37
4440.37
4439.28
4438.52
4437.56
4436.88
4436.01
4435.5
4434.79
4434.42
4433.81
4433.49
4432.94
4432.66
4432.12
4431.83
4431.37
4431.15
4430.78
4430.64
4430.37
4430.34
4430.21
4430.34
4430.31
4430.62
4430.62
4431.17
4431.17
4431.88
4431.88
4432.96
4433.82
4476.31
4588.13
50374.6
8261.42
7567.45
6999.98
6548.75
6194.94
5918.11
5699.05
5523.91
5381.32
5264.26
5166.33
5084.17
5013.85
4953.89
4901.59
4856.45
4816.42
4781.58
4750.23
4722.78
4697.74
4675.75
4655.42
4637.53
4620.79
4606.09
4592.15
4579.91
4568.16
4557.91
4547.93
4539.27
4530.72
4523.35
4515.97
4509.68
4503.3
4497.89
4492.32
4487.65
4482.81
4478.75
4474.48
4471
4467.25
4464.2
4460.88
4458.2
4455.32
4452.97
4450.47
4448.47
4446.3
4444.45
4442.56
4440.96
4439.29
4437.87
4436.39
4435.22
4434.01
4433.01
4431.9
4431.13
4430.16
4429.47
4428.6
4428.07
4427.36
4426.98
4426.36
4426.04
4425.48
4425.19
4424.65
4424.36
4423.89
4423.67
4423.28
4423.15
4422.87
4422.83
4422.68
4422.8
4422.76
4423.05
4423.05
4423.58
4423.58
4424.27
4424.27
4425.34
4426.24
4470.2
4582.11
47534.8
8261.43
7567.58
6999.98
6548.33
6193.92
5916.44
5696.75
5521.04
5377.94
5260.44
5162.12
5079.61
5008.99
4948.76
4896.22
4850.88
4810.66
4775.66
4744.15
4716.57
4691.41
4669.31
4648.87
4630.9
4614.07
4599.29
4585.27
4572.97
4561.16
4550.86
4540.82
4532.11
4523.51
4516.1
4508.68
4502.35
4495.93
4490.5
4484.89
4480.19
4475.33
4471.24
4466.95
4463.44
4459.67
4456.59
4453.26
4450.55
4447.66
4445.3
4442.77
4440.76
4438.57
4436.71
4434.8
4433.19
4431.51
4430.08
4428.58
4427.4
4426.18
4425.17
4424.05
4423.27
4422.29
4421.6
4420.71
4420.18
4419.45
4419.07
4418.44
4418.11
4417.55
4417.26
4416.71
4416.41
4415.93
4415.71
4415.31
4415.17
4414.88
4414.83
4414.67
4414.77
4414.73
4415
4415
4415.51
4415.51
4416.17
4416.17
4417.24
4418.17
4463.66
4575.73
44795.1
8261.44
7567.72
6999.98
6547.9
6192.86
5914.69
5694.33
5518.01
5374.38
5256.4
5157.66
5074.79
5003.85
4943.34
4890.55
4844.98
4804.57
4769.38
4737.72
4710
4684.7
4662.48
4641.94
4623.86
4606.94
4592.08
4577.99
4565.62
4553.74
4543.37
4533.28
4524.52
4515.87
4508.42
4500.95
4494.59
4488.13
4482.65
4477.01
4472.29
4467.39
4463.28
4458.96
4455.42
4451.63
4448.53
4445.17
4442.45
4439.53
4437.15
4434.61
4432.58
4430.38
4428.5
4426.58
4424.95
4423.25
4421.81
4420.3
4419.11
4417.87
4416.85
4415.72
4414.93
4413.94
4413.24
4412.34
4411.8
4411.07
4410.67
4410.03
4409.7
4409.13
4408.83
4408.28
4407.97
4407.49
4407.26
4406.86
4406.7
4406.41
4406.35
4406.17
4406.26
4406.21
4406.46
4406.46
4406.94
4406.94
4407.58
4407.58
4408.65
4409.61
4456.68
4568.96
42158.6
8261.45
7567.86
6999.99
6547.44
6191.74
5912.85
5691.79
5514.83
5370.63
5252.14
5152.96
5069.71
4998.43
4937.62
4884.56
4838.76
4798.13
4762.76
4730.92
4703.05
4677.61
4655.27
4634.61
4616.43
4599.41
4584.46
4570.29
4557.84
4545.89
4535.46
4525.31
4516.49
4507.79
4500.29
4492.78
4486.37
4479.87
4474.36
4468.68
4463.92
4458.99
4454.85
4450.5
4446.94
4443.12
4440
4436.62
4433.88
4430.94
4428.54
4425.97
4423.93
4421.7
4419.81
4417.87
4416.24
4414.52
4413.07
4411.54
4410.34
4409.08
4408.05
4406.9
4406.11
4405.1
4404.39
4403.48
4402.93
4402.19
4401.78
4401.14
4400.79
4400.22
4399.92
4399.35
4399.05
4398.55
4398.31
4397.91
4397.75
4397.45
4397.37
4397.18
4397.25
4397.19
4397.42
4397.41
4397.88
4397.88
4398.49
4398.5
4399.55
4400.55
4449.23
4561.78
39628.2
8261.46
7568.01
7000
6546.98
6190.58
5910.93
5689.13
5511.5
5366.69
5247.67
5148.03
5064.36
4992.72
4931.59
4878.25
4832.2
4791.35
4755.78
4723.76
4695.73
4670.14
4647.66
4626.88
4608.59
4591.47
4576.43
4562.16
4549.64
4537.61
4527.12
4516.9
4508.02
4499.26
4491.71
4484.15
4477.7
4471.16
4465.61
4459.89
4455.1
4450.13
4445.96
4441.58
4437.99
4434.14
4431
4427.59
4424.83
4421.86
4419.45
4416.86
4414.79
4412.55
4410.64
4408.68
4407.03
4405.3
4403.84
4402.29
4401.07
4399.8
4398.76
4397.6
4396.79
4395.77
4395.06
4394.13
4393.57
4392.82
4392.4
4391.74
4391.4
4390.81
4390.5
4389.94
4389.62
4389.12
4388.87
4388.46
4388.29
4387.98
4387.9
4387.68
4387.74
4387.67
4387.88
4387.87
4388.31
4388.31
4388.9
4388.9
4389.95
4390.99
4441.29
4554.13
37206
8261.47
7568.17
7000.02
6546.49
6189.38
5908.93
5686.36
5508.01
5362.56
5242.99
5142.85
5058.75
4986.73
4925.27
4871.63
4825.31
4784.22
4748.44
4716.23
4688.02
4662.28
4639.66
4618.75
4600.35
4583.11
4567.97
4553.61
4541.01
4528.9
4518.34
4508.04
4499.11
4490.29
4482.69
4475.07
4468.57
4461.98
4456.39
4450.64
4445.8
4440.8
4436.6
4432.18
4428.57
4424.68
4421.52
4418.09
4415.29
4412.3
4409.87
4407.25
4405.17
4402.91
4400.98
4399
4397.34
4395.58
4394.11
4392.54
4391.32
4390.02
4388.98
4387.79
4386.98
4385.94
4385.22
4384.28
4383.71
4382.94
4382.52
4381.85
4381.49
4380.9
4380.59
4380.01
4379.69
4379.18
4378.93
4378.5
4378.32
4378.01
4377.91
4377.68
4377.73
4377.64
4377.83
4377.81
4378.23
4378.23
4378.79
4378.79
4379.83
4380.92
4432.83
4546
34894.3
8261.48
7568.33
7000.04
6546
6188.13
5906.85
5683.46
5504.37
5358.26
5238.09
5137.43
5052.88
4980.46
4918.64
4864.69
4818.09
4776.75
4740.75
4708.33
4679.94
4654.03
4631.27
4610.22
4591.69
4574.34
4559.09
4544.63
4531.94
4519.75
4509.11
4498.74
4489.74
4480.86
4473.2
4465.53
4458.98
4452.34
4446.71
4440.91
4436.04
4430.99
4426.76
4422.31
4418.66
4414.75
4411.55
4408.09
4405.28
4402.26
4399.8
4397.16
4395.05
4392.77
4390.83
4388.82
4387.15
4385.37
4383.88
4382.3
4381.06
4379.75
4378.69
4377.49
4376.66
4375.61
4374.88
4373.92
4373.34
4372.56
4372.13
4371.44
4371.08
4370.48
4370.16
4369.58
4369.25
4368.73
4368.47
4368.03
4367.84
4367.52
4367.41
4367.17
4367.19
4367.09
4367.26
4367.23
4367.63
4367.63
4368.16
4368.16
4369.19
4370.33
4423.81
4537.34
32694.8
8261.49
7568.5
7000.07
6545.49
6186.84
5904.7
5680.46
5500.58
5353.77
5232.98
5131.78
5046.75
4973.9
4911.71
4857.42
4810.53
4768.93
4732.69
4700.06
4671.48
4645.39
4622.47
4601.27
4582.61
4565.14
4549.79
4535.22
4522.44
4510.16
4499.44
4488.99
4479.92
4470.97
4463.25
4455.52
4448.92
4442.23
4436.55
4430.7
4425.79
4420.71
4416.44
4411.94
4408.27
4404.32
4401.1
4397.6
4394.76
4391.72
4389.23
4386.57
4384.44
4382.13
4380.17
4378.15
4376.45
4374.66
4373.15
4371.55
4370.29
4368.96
4367.89
4366.67
4365.83
4364.77
4364.02
4363.05
4362.46
4361.66
4361.22
4360.53
4360.15
4359.55
4359.22
4358.63
4358.29
4357.76
4357.49
4357.04
4356.85
4356.51
4356.39
4356.14
4356.14
4356.02
4356.17
4356.14
4356.5
4356.5
4357
4357
4358.02
4359.21
4414.21
4528.12
30609
8261.5
7568.67
7000.1
6544.97
6185.51
5902.47
5677.34
5496.65
5349.09
5227.66
5125.88
5040.35
4967.05
4904.47
4849.83
4802.64
4760.75
4724.27
4691.41
4662.63
4636.36
4613.27
4591.92
4573.12
4555.52
4540.05
4525.37
4512.49
4500.11
4489.31
4478.78
4469.64
4460.62
4452.84
4445.04
4438.39
4431.64
4425.91
4420.02
4415.06
4409.93
4405.63
4401.09
4397.38
4393.4
4390.14
4386.62
4383.75
4380.68
4378.17
4375.48
4373.32
4370.99
4369.01
4366.96
4365.25
4363.43
4361.91
4360.29
4359.02
4357.66
4356.58
4355.34
4354.48
4353.4
4352.65
4351.67
4351.06
4350.25
4349.79
4349.09
4348.7
4348.09
4347.75
4347.15
4346.8
4346.26
4345.98
4345.53
4345.32
4344.97
4344.85
4344.58
4344.56
4344.43
4344.55
4344.51
4344.84
4344.84
4345.32
4345.32
4346.33
4347.56
4403.97
4518.29
28638.2
8261.5
7568.85
7000.14
6544.45
6184.14
5900.16
5674.11
5492.57
5344.24
5222.13
5119.75
5033.69
4959.92
4896.93
4841.93
4794.4
4752.22
4715.48
4682.39
4653.39
4626.92
4603.66
4582.15
4563.21
4545.47
4529.88
4515.08
4502.1
4489.62
4478.73
4468.12
4458.9
4449.8
4441.95
4434.09
4427.38
4420.57
4414.8
4408.85
4403.85
4398.67
4394.32
4389.75
4386
4381.98
4378.69
4375.14
4372.24
4369.13
4366.6
4363.87
4361.7
4359.34
4357.34
4355.26
4353.53
4351.69
4350.16
4348.51
4347.22
4345.84
4344.75
4343.49
4342.62
4341.52
4340.75
4339.76
4339.14
4338.31
4337.84
4337.12
4336.73
4336.1
4335.75
4335.15
4334.79
4334.24
4333.95
4333.48
4333.27
4332.9
4332.77
4332.49
4332.45
4332.3
4332.4
4332.34
4332.65
4332.65
4333.09
4333.09
4334.09
4335.37
4393.08
4507.81
26783.6
8261.51
7569.04
7000.18
6543.91
6182.74
5897.79
5670.78
5488.34
5339.21
5216.39
5113.38
5026.77
4952.51
4889.09
4833.7
4785.83
4743.35
4706.33
4672.98
4643.77
4617.09
4593.65
4571.96
4552.87
4534.99
4519.27
4504.35
4491.26
4478.68
4467.69
4456.99
4447.69
4438.51
4430.59
4422.66
4415.89
4409.02
4403.19
4397.19
4392.14
4386.91
4382.52
4377.91
4374.12
4370.06
4366.74
4363.15
4360.22
4357.08
4354.52
4351.76
4349.55
4347.17
4345.15
4343.05
4341.3
4339.43
4337.88
4336.21
4334.9
4333.5
4332.39
4331.11
4330.22
4329.11
4328.33
4327.31
4326.69
4325.83
4325.36
4324.62
4324.22
4323.58
4323.23
4322.61
4322.24
4321.68
4321.38
4320.9
4320.67
4320.3
4320.15
4319.86
4319.8
4319.63
4319.71
4319.64
4319.92
4319.92
4320.32
4320.32
4321.31
4322.64
4381.52
4496.63
25046.4
8261.51
7569.23
7000.23
6543.37
6181.31
5895.35
5667.34
5483.97
5334.01
5210.45
5106.77
5019.58
4944.81
4880.94
4825.14
4776.92
4734.11
4696.81
4663.2
4633.75
4606.86
4583.23
4561.36
4542.11
4524.07
4508.22
4493.18
4479.97
4467.27
4456.19
4445.39
4436.01
4426.75
4418.76
4410.75
4403.92
4396.98
4391.09
4385.03
4379.93
4374.66
4370.22
4365.56
4361.73
4357.63
4354.27
4350.65
4347.68
4344.51
4341.92
4339.13
4336.9
4334.48
4332.44
4330.31
4328.54
4326.64
4325.08
4323.38
4322.06
4320.63
4319.51
4318.2
4317.3
4316.16
4315.37
4314.34
4313.7
4312.83
4312.34
4311.58
4311.17
4310.52
4310.16
4309.53
4309.16
4308.58
4308.27
4307.77
4307.54
4307.15
4306.99
4306.68
4306.61
4306.41
4306.48
4306.39
4306.64
4306.63
4307.01
4307
4307.98
4309.36
4369.31
4484.73
23427.2
8261.52
7569.43
7000.29
6542.83
6179.84
5892.84
5663.79
5479.47
5328.63
5204.3
5099.94
5012.14
4936.84
4872.49
4816.27
4767.68
4724.53
4686.92
4653.04
4623.35
4596.23
4572.39
4550.34
4530.92
4512.72
4496.73
4481.55
4468.22
4455.41
4444.23
4433.33
4423.86
4414.51
4406.44
4398.36
4391.45
4384.45
4378.5
4372.38
4367.23
4361.9
4357.42
4352.71
4348.83
4344.69
4341.3
4337.63
4334.63
4331.42
4328.8
4325.98
4323.71
4321.27
4319.21
4317.04
4315.25
4313.33
4311.75
4310.03
4308.68
4307.23
4306.09
4304.76
4303.84
4302.68
4301.88
4300.83
4300.17
4299.28
4298.77
4298.01
4297.58
4296.92
4296.55
4295.91
4295.53
4294.94
4294.61
4294.1
4293.86
4293.45
4293.28
4292.96
4292.87
4292.66
4292.69
4292.59
4292.81
4292.8
4293.14
4293.12
4294.09
4295.52
4356.42
4472.06
21922.4
8261.52
7569.63
7000.36
6542.28
6178.35
5890.28
5660.16
5474.83
5323.09
5197.95
5092.87
5004.45
4928.58
4863.74
4807.08
4758.09
4714.59
4676.67
4642.5
4612.55
4585.19
4561.15
4538.89
4519.3
4500.94
4484.79
4469.47
4456.02
4443.09
4431.8
4420.79
4411.23
4401.79
4393.64
4385.48
4378.5
4371.42
4365.42
4359.23
4354.03
4348.63
4344.11
4339.34
4335.43
4331.24
4327.8
4324.09
4321.06
4317.81
4315.16
4312.3
4310.01
4307.53
4305.44
4303.25
4301.43
4299.48
4297.88
4296.13
4294.76
4293.28
4292.13
4290.78
4289.84
4288.66
4287.84
4286.77
4286.1
4285.19
4284.67
4283.88
4283.44
4282.77
4282.39
4281.73
4281.34
4280.74
4280.41
4279.88
4279.62
4279.2
4279.02
4278.68
4278.58
4278.35
4278.36
4278.23
4278.42
4278.41
4278.72
4278.69
4279.65
4281.12
4342.86
4458.59
20527.3
8261.52
7569.83
7000.43
6541.72
6176.83
5887.65
5656.42
5470.06
5317.37
5191.4
5085.57
4996.5
4920.05
4854.69
4797.57
4748.17
4704.3
4666.05
4631.58
4601.36
4573.76
4549.49
4527.03
4507.25
4488.72
4472.42
4456.95
4443.37
4430.31
4418.9
4407.78
4398.12
4388.58
4380.35
4372.1
4365.05
4357.9
4351.83
4345.58
4340.31
4334.86
4330.29
4325.47
4321.5
4317.26
4313.79
4310.04
4306.97
4303.68
4300.99
4298.1
4295.77
4293.26
4291.14
4288.92
4287.08
4285.1
4283.47
4281.7
4280.31
4278.8
4277.63
4276.25
4275.29
4274.09
4273.26
4272.17
4271.48
4270.55
4270.01
4269.21
4268.76
4268.06
4267.67
4267.01
4266.61
4265.99
4265.64
4265.11
4264.83
4264.39
4264.2
4263.84
4263.73
4263.48
4263.46
4263.31
4263.48
4263.46
4263.74
4263.69
4264.64
4266.15
4328.62
4444.29
19236.9
8261.52
7570.04
7000.51
6541.17
6175.28
5884.97
5652.6
5465.17
5311.5
5184.65
5078.06
4988.3
4911.24
4845.35
4787.74
4737.92
4693.65
4655.06
4620.28
4589.78
4561.92
4537.42
4514.74
4494.77
4476.06
4459.59
4443.97
4430.25
4417.06
4405.53
4394.3
4384.54
4374.9
4366.58
4358.24
4351.11
4343.88
4337.74
4331.42
4326.09
4320.58
4315.95
4311.07
4307.06
4302.77
4299.26
4295.46
4292.35
4289.02
4286.3
4283.36
4281
4278.45
4276.31
4274.05
4272.18
4270.17
4268.53
4266.72
4265.31
4263.77
4262.58
4261.18
4260.2
4258.98
4258.12
4257.01
4256.31
4255.35
4254.8
4253.98
4253.51
4252.81
4252.4
4251.73
4251.32
4250.68
4250.32
4249.77
4249.48
4249.03
4248.82
4248.45
4248.32
4248.05
4248.01
4247.83
4247.97
4247.94
4248.19
4248.13
4249.06
4250.62
4313.71
4429.12
18046
8261.52
7570.26
7000.6
6540.62
6173.72
5882.24
5648.69
5460.15
5305.47
5177.72
5070.32
4979.85
4902.16
4835.71
4777.6
4727.33
4682.66
4643.71
4608.6
4577.81
4549.68
4524.94
4502.04
4481.87
4462.96
4446.33
4430.54
4416.68
4403.34
4391.69
4380.34
4370.47
4360.73
4352.31
4343.88
4336.67
4329.36
4323.15
4316.75
4311.37
4305.78
4301.1
4296.16
4292.1
4287.76
4284.2
4280.35
4277.21
4273.83
4271.07
4268.09
4265.69
4263.11
4260.94
4258.64
4256.75
4254.71
4253.04
4251.2
4249.77
4248.2
4246.99
4245.55
4244.56
4243.31
4242.44
4241.3
4240.58
4239.61
4239.04
4238.19
4237.71
4236.99
4236.58
4235.88
4235.46
4234.81
4234.44
4233.87
4233.57
4233.1
4232.88
4232.48
4232.34
4232.05
4231.99
4231.79
4231.9
4231.86
4232.07
4231.99
4232.92
4234.5
4298.1
4413.05
16949.2
8261.51
7570.48
7000.7
6540.07
6172.14
5879.46
5644.7
5455.01
5299.29
5170.61
5062.37
4971.16
4892.81
4825.78
4767.14
4716.41
4671.33
4632
4596.55
4565.46
4537.04
4512.05
4488.91
4468.53
4449.42
4432.61
4416.66
4402.64
4389.16
4377.39
4365.9
4355.93
4346.07
4337.56
4329.03
4321.74
4314.34
4308.05
4301.58
4296.12
4290.48
4285.73
4280.73
4276.62
4272.22
4268.61
4264.72
4261.53
4258.1
4255.3
4252.28
4249.85
4247.23
4245.03
4242.69
4240.77
4238.69
4237
4235.13
4233.67
4232.07
4230.84
4229.38
4228.36
4227.08
4226.2
4225.04
4224.3
4223.3
4222.71
4221.85
4221.35
4220.61
4220.18
4219.48
4219.04
4218.38
4217.99
4217.4
4217.09
4216.6
4216.36
4215.95
4215.79
4215.48
4215.4
4215.17
4215.26
4215.2
4215.38
4215.28
4216.2
4217.81
4281.81
4396.05
15940.8
8261.51
7570.7
7000.81
6539.53
6170.54
5876.64
5640.63
5449.76
5292.96
5163.31
5054.2
4962.23
4883.2
4815.56
4756.38
4705.17
4659.65
4619.94
4584.12
4552.72
4524
4498.75
4475.37
4454.77
4435.45
4418.46
4402.32
4388.15
4374.52
4362.61
4350.99
4340.9
4330.93
4322.32
4313.69
4306.3
4298.81
4292.45
4285.9
4280.37
4274.65
4269.85
4264.78
4260.61
4256.16
4252.5
4248.55
4245.32
4241.84
4239
4235.94
4233.47
4230.8
4228.57
4226.19
4224.25
4222.13
4220.42
4218.51
4217.03
4215.39
4214.14
4212.65
4211.61
4210.3
4209.4
4208.21
4207.45
4206.43
4205.82
4204.94
4204.43
4203.67
4203.23
4202.51
4202.06
4201.38
4200.98
4200.37
4200.04
4199.53
4199.28
4198.85
4198.67
4198.34
4198.25
4197.99
4198.05
4197.97
4198.12
4198
4198.9
4200.53
4264.83
4378.09
15014.9
8261.5
7570.92
7000.92
6538.99
6168.94
5873.78
5636.48
5444.41
5286.49
5155.84
5045.84
4953.07
4873.32
4805.06
4745.32
4693.61
4647.63
4607.51
4571.33
4539.59
4510.57
4485.04
4461.4
4440.58
4421.04
4403.86
4387.54
4373.2
4359.41
4347.36
4335.61
4325.39
4315.3
4306.58
4297.85
4290.37
4282.78
4276.34
4269.7
4264.11
4258.31
4253.44
4248.31
4244.08
4239.56
4235.85
4231.85
4228.57
4225.05
4222.17
4219.05