/*--------------------------------*- C++ -*----------------------------------*\
| =========                 |                                                 |
| \\      /  F ield         | OpenFOAM: The Open Source CFD Toolbox           |
|  \\    /   O peration     | Version:  v2012                                 |
|   \\  /    A nd           | Website:  www.openfoam.com                      |
|    \\/     M anipulation  |                                                 |
\*---------------------------------------------------------------------------*/
FoamFile
{
    version     2.0;
    format      ascii;
    class       volVectorField;
    location    "24.5";
    object      wallShearStress;
}
// * * * * * * * * * * * * * * * * * * * * * * * * * * * * * * * * * * * * * //

dimensions      [0 2 -2 0 0 0 0];


internalField   uniform (0 0 0);

boundaryField
{
    inlet
    {
        type            calculated;
        value           uniform (0 0 0);
    }
    outlet
    {
        type            calculated;
        value           uniform (0 0 0);
    }
    topWall
    {
        type            calculated;
        value           nonuniform List<vector> 
545
(
(1.47789e-08 -1.04026e-08 0)
(1.47724e-08 -2.91044e-08 0)
(1.47578e-08 -4.85484e-08 0)
(1.47371e-08 -6.74217e-08 0)
(1.47108e-08 -8.54787e-08 0)
(1.46795e-08 -1.02949e-07 0)
(1.46434e-08 -1.19981e-07 0)
(1.46031e-08 -1.36564e-07 0)
(1.45588e-08 -1.5266e-07 0)
(1.45109e-08 -1.68269e-07 0)
(1.44599e-08 -1.8341e-07 0)
(1.44061e-08 -1.98102e-07 0)
(1.43497e-08 -2.12353e-07 0)
(1.42911e-08 -2.26173e-07 0)
(1.42305e-08 -2.39572e-07 0)
(1.41682e-08 -2.52561e-07 0)
(1.41045e-08 -2.65152e-07 0)
(1.40395e-08 -2.77355e-07 0)
(1.39734e-08 -2.89181e-07 0)
(1.39065e-08 -3.0064e-07 0)
(1.38389e-08 -3.11743e-07 0)
(1.37708e-08 -3.22501e-07 0)
(1.37023e-08 -3.32923e-07 0)
(1.36335e-08 -3.43019e-07 0)
(1.35647e-08 -3.528e-07 0)
(1.34959e-08 -3.62275e-07 0)
(1.34272e-08 -3.71453e-07 0)
(1.33588e-08 -3.80344e-07 0)
(1.32906e-08 -3.88955e-07 0)
(1.32228e-08 -3.97297e-07 0)
(1.31555e-08 -4.05378e-07 0)
(1.30888e-08 -4.13206e-07 0)
(1.30226e-08 -4.20788e-07 0)
(1.29571e-08 -4.28134e-07 0)
(1.28923e-08 -4.3525e-07 0)
(1.28283e-08 -4.42144e-07 0)
(1.2765e-08 -4.48822e-07 0)
(1.27025e-08 -4.55293e-07 0)
(1.26409e-08 -4.61562e-07 0)
(1.25802e-08 -4.67637e-07 0)
(1.25203e-08 -4.73523e-07 0)
(1.24614e-08 -4.79227e-07 0)
(1.24034e-08 -4.84754e-07 0)
(1.23464e-08 -4.90111e-07 0)
(1.22903e-08 -4.95303e-07 0)
(1.22352e-08 -5.00335e-07 0)
(1.2181e-08 -5.05212e-07 0)
(1.21278e-08 -5.0994e-07 0)
(1.20756e-08 -5.14523e-07 0)
(1.20244e-08 -5.18967e-07 0)
(1.19741e-08 -5.23275e-07 0)
(1.19248e-08 -5.27452e-07 0)
(1.18765e-08 -5.31502e-07 0)
(1.18292e-08 -5.3543e-07 0)
(1.17828e-08 -5.39239e-07 0)
(1.17373e-08 -5.42933e-07 0)
(1.16928e-08 -5.46516e-07 0)
(1.16492e-08 -5.49991e-07 0)
(1.16065e-08 -5.53362e-07 0)
(1.15647e-08 -5.56633e-07 0)
(1.15239e-08 -5.59806e-07 0)
(1.14839e-08 -5.62884e-07 0)
(1.14448e-08 -5.65871e-07 0)
(1.14065e-08 -5.68769e-07 0)
(1.13691e-08 -5.71582e-07 0)
(1.13325e-08 -5.74311e-07 0)
(1.12968e-08 -5.7696e-07 0)
(1.12618e-08 -5.79531e-07 0)
(1.12277e-08 -5.82027e-07 0)
(1.11943e-08 -5.84449e-07 0)
(1.11616e-08 -5.86802e-07 0)
(1.11299e-08 -5.89081e-07 0)
(1.10991e-08 -5.91273e-07 0)
(1.10689e-08 -5.93397e-07 0)
(1.10391e-08 -5.95494e-07 0)
(1.10094e-08 -5.97579e-07 0)
(1.09797e-08 -5.99653e-07 0)
(1.09502e-08 -6.01712e-07 0)
(1.09206e-08 -6.03755e-07 0)
(1.08912e-08 -6.05782e-07 0)
(1.08617e-08 -6.07795e-07 0)
(1.08324e-08 -6.09794e-07 0)
(1.08031e-08 -6.11778e-07 0)
(1.07739e-08 -6.13748e-07 0)
(1.07447e-08 -6.15703e-07 0)
(1.07156e-08 -6.17644e-07 0)
(1.06866e-08 -6.19571e-07 0)
(1.06576e-08 -6.21485e-07 0)
(1.06287e-08 -6.23384e-07 0)
(1.05998e-08 -6.25269e-07 0)
(1.0571e-08 -6.27141e-07 0)
(1.05423e-08 -6.28998e-07 0)
(1.05137e-08 -6.30843e-07 0)
(1.04851e-08 -6.32673e-07 0)
(1.04565e-08 -6.34496e-07 0)
(1.04285e-08 -6.36281e-07 0)
(1.04024e-08 -6.37916e-07 0)
(1.0378e-08 -6.39401e-07 0)
(1.03546e-08 -6.4084e-07 0)
(1.03312e-08 -6.42284e-07 0)
(1.03078e-08 -6.4374e-07 0)
(1.02844e-08 -6.452e-07 0)
(1.02608e-08 -6.46656e-07 0)
(1.02372e-08 -6.48112e-07 0)
(1.02134e-08 -6.49567e-07 0)
(1.01896e-08 -6.51023e-07 0)
(1.01657e-08 -6.52479e-07 0)
(1.01417e-08 -6.53935e-07 0)
(1.01176e-08 -6.55391e-07 0)
(1.00934e-08 -6.56847e-07 0)
(1.00691e-08 -6.58303e-07 0)
(1.00447e-08 -6.59759e-07 0)
(1.00202e-08 -6.61214e-07 0)
(9.99563e-09 -6.6267e-07 0)
(9.97096e-09 -6.64125e-07 0)
(9.9462e-09 -6.6558e-07 0)
(9.92134e-09 -6.67035e-07 0)
(9.89639e-09 -6.6849e-07 0)
(9.87134e-09 -6.69944e-07 0)
(9.8462e-09 -6.71399e-07 0)
(9.82097e-09 -6.72853e-07 0)
(9.79564e-09 -6.74306e-07 0)
(9.77022e-09 -6.75759e-07 0)
(9.7447e-09 -6.77212e-07 0)
(9.71908e-09 -6.78665e-07 0)
(9.69338e-09 -6.80117e-07 0)
(9.66757e-09 -6.81569e-07 0)
(9.64168e-09 -6.8302e-07 0)
(9.61569e-09 -6.84471e-07 0)
(9.5896e-09 -6.85921e-07 0)
(9.56342e-09 -6.8737e-07 0)
(9.53714e-09 -6.8882e-07 0)
(9.51077e-09 -6.90268e-07 0)
(9.48431e-09 -6.91716e-07 0)
(9.45775e-09 -6.93163e-07 0)
(9.43109e-09 -6.9461e-07 0)
(9.40434e-09 -6.96056e-07 0)
(9.3775e-09 -6.97501e-07 0)
(9.35056e-09 -6.98946e-07 0)
(9.32352e-09 -7.00389e-07 0)
(9.29639e-09 -7.01832e-07 0)
(9.26917e-09 -7.03274e-07 0)
(9.24185e-09 -7.04715e-07 0)
(9.21444e-09 -7.06156e-07 0)
(9.18693e-09 -7.07595e-07 0)
(9.15933e-09 -7.09034e-07 0)
(9.13163e-09 -7.10472e-07 0)
(9.10384e-09 -7.11908e-07 0)
(9.07595e-09 -7.13344e-07 0)
(9.04797e-09 -7.14778e-07 0)
(9.0199e-09 -7.16212e-07 0)
(8.99173e-09 -7.17644e-07 0)
(8.96346e-09 -7.19076e-07 0)
(8.93511e-09 -7.20506e-07 0)
(8.90665e-09 -7.21935e-07 0)
(8.87811e-09 -7.23362e-07 0)
(8.84947e-09 -7.24789e-07 0)
(8.82074e-09 -7.26214e-07 0)
(8.79191e-09 -7.27638e-07 0)
(8.76299e-09 -7.29061e-07 0)
(8.73397e-09 -7.30482e-07 0)
(8.70487e-09 -7.31902e-07 0)
(8.67566e-09 -7.33321e-07 0)
(8.64637e-09 -7.34738e-07 0)
(8.61698e-09 -7.36153e-07 0)
(8.5875e-09 -7.37567e-07 0)
(8.55793e-09 -7.3898e-07 0)
(8.52827e-09 -7.40391e-07 0)
(8.49851e-09 -7.418e-07 0)
(8.46866e-09 -7.43208e-07 0)
(8.43872e-09 -7.44614e-07 0)
(8.40868e-09 -7.46019e-07 0)
(8.37856e-09 -7.47421e-07 0)
(8.34834e-09 -7.48822e-07 0)
(8.31804e-09 -7.50222e-07 0)
(8.28764e-09 -7.51619e-07 0)
(8.25715e-09 -7.53014e-07 0)
(8.22657e-09 -7.54408e-07 0)
(8.19589e-09 -7.558e-07 0)
(8.16513e-09 -7.5719e-07 0)
(8.13428e-09 -7.58578e-07 0)
(8.10334e-09 -7.59964e-07 0)
(8.07231e-09 -7.61347e-07 0)
(8.04119e-09 -7.62729e-07 0)
(8.00998e-09 -7.64109e-07 0)
(7.97868e-09 -7.65486e-07 0)
(7.9473e-09 -7.66862e-07 0)
(7.91582e-09 -7.68235e-07 0)
(7.88426e-09 -7.69606e-07 0)
(7.85261e-09 -7.70974e-07 0)
(7.82087e-09 -7.72341e-07 0)
(7.78905e-09 -7.73705e-07 0)
(7.75714e-09 -7.75067e-07 0)
(7.72514e-09 -7.76426e-07 0)
(7.69306e-09 -7.77783e-07 0)
(7.66089e-09 -7.79137e-07 0)
(7.62863e-09 -7.80489e-07 0)
(7.59629e-09 -7.81838e-07 0)
(7.56386e-09 -7.83185e-07 0)
(7.53136e-09 -7.84529e-07 0)
(7.49876e-09 -7.85871e-07 0)
(7.46608e-09 -7.87209e-07 0)
(7.43332e-09 -7.88545e-07 0)
(7.40048e-09 -7.89879e-07 0)
(7.36755e-09 -7.91209e-07 0)
(7.33455e-09 -7.92537e-07 0)
(7.30146e-09 -7.93862e-07 0)
(7.26829e-09 -7.95184e-07 0)
(7.23503e-09 -7.96503e-07 0)
(7.2017e-09 -7.97819e-07 0)
(7.16829e-09 -7.99132e-07 0)
(7.1348e-09 -8.00443e-07 0)
(7.10122e-09 -8.0175e-07 0)
(7.06757e-09 -8.03053e-07 0)
(7.03385e-09 -8.04354e-07 0)
(7.00004e-09 -8.05652e-07 0)
(6.96616e-09 -8.06946e-07 0)
(6.9322e-09 -8.08237e-07 0)
(6.89816e-09 -8.09525e-07 0)
(6.86405e-09 -8.1081e-07 0)
(6.82986e-09 -8.12091e-07 0)
(6.7956e-09 -8.13369e-07 0)
(6.76127e-09 -8.14643e-07 0)
(6.72686e-09 -8.15914e-07 0)
(6.69237e-09 -8.17181e-07 0)
(6.65782e-09 -8.18445e-07 0)
(6.62319e-09 -8.19705e-07 0)
(6.58849e-09 -8.20962e-07 0)
(6.55372e-09 -8.22215e-07 0)
(6.51888e-09 -8.23464e-07 0)
(6.48397e-09 -8.24709e-07 0)
(6.449e-09 -8.25951e-07 0)
(6.41395e-09 -8.27189e-07 0)
(6.37883e-09 -8.28423e-07 0)
(6.34365e-09 -8.29653e-07 0)
(6.3084e-09 -8.30879e-07 0)
(6.27309e-09 -8.32101e-07 0)
(6.23771e-09 -8.3332e-07 0)
(6.20227e-09 -8.34534e-07 0)
(6.16676e-09 -8.35744e-07 0)
(6.13119e-09 -8.3695e-07 0)
(6.09555e-09 -8.38152e-07 0)
(6.05986e-09 -8.39349e-07 0)
(6.0241e-09 -8.40543e-07 0)
(5.98828e-09 -8.41732e-07 0)
(5.9524e-09 -8.42917e-07 0)
(5.91647e-09 -8.44097e-07 0)
(5.88047e-09 -8.45273e-07 0)
(5.84442e-09 -8.46445e-07 0)
(5.80831e-09 -8.47612e-07 0)
(5.77215e-09 -8.48775e-07 0)
(5.73593e-09 -8.49933e-07 0)
(5.69965e-09 -8.51086e-07 0)
(5.66332e-09 -8.52235e-07 0)
(5.62694e-09 -8.53379e-07 0)
(5.59051e-09 -8.54519e-07 0)
(5.55402e-09 -8.55654e-07 0)
(5.51749e-09 -8.56784e-07 0)
(5.4809e-09 -8.57909e-07 0)
(5.44427e-09 -8.59029e-07 0)
(5.40759e-09 -8.60145e-07 0)
(5.37086e-09 -8.61255e-07 0)
(5.33408e-09 -8.62361e-07 0)
(5.29726e-09 -8.63461e-07 0)
(5.2604e-09 -8.64556e-07 0)
(5.22348e-09 -8.65647e-07 0)
(5.18655e-09 -8.66731e-07 0)
(5.14947e-09 -8.67815e-07 0)
(5.11283e-09 -8.68881e-07 0)
(5.07753e-09 -8.69892e-07 0)
(5.04346e-09 -8.70857e-07 0)
(5.00987e-09 -8.71805e-07 0)
(4.97615e-09 -8.72758e-07 0)
(4.94214e-09 -8.7372e-07 0)
(4.90781e-09 -8.74687e-07 0)
(4.87316e-09 -8.75657e-07 0)
(4.83818e-09 -8.76629e-07 0)
(4.80286e-09 -8.77605e-07 0)
(4.76721e-09 -8.78585e-07 0)
(4.73123e-09 -8.79568e-07 0)
(4.6949e-09 -8.80554e-07 0)
(4.65824e-09 -8.81543e-07 0)
(4.62124e-09 -8.82535e-07 0)
(4.58389e-09 -8.83529e-07 0)
(4.54619e-09 -8.84527e-07 0)
(4.50816e-09 -8.85526e-07 0)
(4.46977e-09 -8.86528e-07 0)
(4.43103e-09 -8.87533e-07 0)
(4.39195e-09 -8.88539e-07 0)
(4.35251e-09 -8.89547e-07 0)
(4.31272e-09 -8.90557e-07 0)
(4.27257e-09 -8.91568e-07 0)
(4.23207e-09 -8.92581e-07 0)
(4.19121e-09 -8.93595e-07 0)
(4.15e-09 -8.9461e-07 0)
(4.10843e-09 -8.95625e-07 0)
(4.0665e-09 -8.96642e-07 0)
(4.02421e-09 -8.97659e-07 0)
(3.98156e-09 -8.98676e-07 0)
(3.93854e-09 -8.99693e-07 0)
(3.89517e-09 -9.0071e-07 0)
(3.85144e-09 -9.01727e-07 0)
(3.80734e-09 -9.02743e-07 0)
(3.76289e-09 -9.03758e-07 0)
(3.71807e-09 -9.04772e-07 0)
(3.67289e-09 -9.05785e-07 0)
(3.62734e-09 -9.06796e-07 0)
(3.58144e-09 -9.07805e-07 0)
(3.53518e-09 -9.08813e-07 0)
(3.48855e-09 -9.09818e-07 0)
(3.44157e-09 -9.1082e-07 0)
(3.39423e-09 -9.11819e-07 0)
(3.34653e-09 -9.12815e-07 0)
(3.29847e-09 -9.13808e-07 0)
(3.25006e-09 -9.14797e-07 0)
(3.2013e-09 -9.15782e-07 0)
(3.15218e-09 -9.16762e-07 0)
(3.10271e-09 -9.17738e-07 0)
(3.0529e-09 -9.18708e-07 0)
(3.00274e-09 -9.19673e-07 0)
(2.95224e-09 -9.20633e-07 0)
(2.90139e-09 -9.21586e-07 0)
(2.85021e-09 -9.22533e-07 0)
(2.79869e-09 -9.23473e-07 0)
(2.74683e-09 -9.24406e-07 0)
(2.69465e-09 -9.25331e-07 0)
(2.64214e-09 -9.26248e-07 0)
(2.58931e-09 -9.27157e-07 0)
(2.53617e-09 -9.28058e-07 0)
(2.4827e-09 -9.28949e-07 0)
(2.42893e-09 -9.2983e-07 0)
(2.37485e-09 -9.30701e-07 0)
(2.32048e-09 -9.31562e-07 0)
(2.2658e-09 -9.32412e-07 0)
(2.21084e-09 -9.33251e-07 0)
(2.15559e-09 -9.34078e-07 0)
(2.10007e-09 -9.34893e-07 0)
(2.04427e-09 -9.35695e-07 0)
(1.98821e-09 -9.36483e-07 0)
(1.93188e-09 -9.37258e-07 0)
(1.87531e-09 -9.38019e-07 0)
(1.81849e-09 -9.38766e-07 0)
(1.76143e-09 -9.39497e-07 0)
(1.70414e-09 -9.40212e-07 0)
(1.64663e-09 -9.40911e-07 0)
(1.58891e-09 -9.41593e-07 0)
(1.53098e-09 -9.42258e-07 0)
(1.47286e-09 -9.42905e-07 0)
(1.41455e-09 -9.43534e-07 0)
(1.35607e-09 -9.44144e-07 0)
(1.29742e-09 -9.44735e-07 0)
(1.23861e-09 -9.45305e-07 0)
(1.17966e-09 -9.45854e-07 0)
(1.12057e-09 -9.46383e-07 0)
(1.06136e-09 -9.4689e-07 0)
(1.00203e-09 -9.47374e-07 0)
(9.4261e-10 -9.47835e-07 0)
(8.831e-10 -9.48273e-07 0)
(8.23515e-10 -9.48686e-07 0)
(7.63868e-10 -9.49075e-07 0)
(7.04173e-10 -9.49438e-07 0)
(6.44442e-10 -9.49775e-07 0)
(5.84691e-10 -9.50085e-07 0)
(5.24934e-10 -9.50368e-07 0)
(4.65184e-10 -9.50624e-07 0)
(4.05458e-10 -9.5085e-07 0)
(3.4577e-10 -9.51048e-07 0)
(2.86136e-10 -9.51215e-07 0)
(2.26572e-10 -9.51352e-07 0)
(1.67095e-10 -9.51458e-07 0)
(1.07721e-10 -9.51532e-07 0)
(4.84673e-11 -9.51574e-07 0)
(-1.06492e-11 -9.51583e-07 0)
(-6.96106e-11 -9.51558e-07 0)
(-1.28399e-10 -9.51499e-07 0)
(-1.86997e-10 -9.51405e-07 0)
(-2.45385e-10 -9.51275e-07 0)
(-3.03545e-10 -9.51109e-07 0)
(-3.61457e-10 -9.50907e-07 0)
(-4.19103e-10 -9.50666e-07 0)
(-4.76464e-10 -9.50388e-07 0)
(-5.33518e-10 -9.50071e-07 0)
(-5.90247e-10 -9.49715e-07 0)
(-6.46629e-10 -9.49319e-07 0)
(-7.02646e-10 -9.48882e-07 0)
(-7.58276e-10 -9.48404e-07 0)
(-8.13498e-10 -9.47885e-07 0)
(-8.68292e-10 -9.47323e-07 0)
(-9.22636e-10 -9.46719e-07 0)
(-9.7651e-10 -9.46071e-07 0)
(-1.02989e-09 -9.45379e-07 0)
(-1.08276e-09 -9.44643e-07 0)
(-1.13509e-09 -9.43862e-07 0)
(-1.18687e-09 -9.43035e-07 0)
(-1.23807e-09 -9.42163e-07 0)
(-1.28868e-09 -9.41244e-07 0)
(-1.33866e-09 -9.40278e-07 0)
(-1.388e-09 -9.39265e-07 0)
(-1.43667e-09 -9.38204e-07 0)
(-1.48467e-09 -9.37095e-07 0)
(-1.53195e-09 -9.35938e-07 0)
(-1.57851e-09 -9.34732e-07 0)
(-1.62433e-09 -9.33476e-07 0)
(-1.66937e-09 -9.32171e-07 0)
(-1.71363e-09 -9.30816e-07 0)
(-1.75707e-09 -9.29411e-07 0)
(-1.79969e-09 -9.27956e-07 0)
(-1.84146e-09 -9.2645e-07 0)
(-1.88237e-09 -9.24893e-07 0)
(-1.92238e-09 -9.23284e-07 0)
(-1.96149e-09 -9.21625e-07 0)
(-1.99968e-09 -9.19915e-07 0)
(-2.03692e-09 -9.18153e-07 0)
(-2.07321e-09 -9.16339e-07 0)
(-2.10852e-09 -9.14474e-07 0)
(-2.14283e-09 -9.12557e-07 0)
(-2.17614e-09 -9.10589e-07 0)
(-2.20843e-09 -9.08569e-07 0)
(-2.23968e-09 -9.06498e-07 0)
(-2.26987e-09 -9.04375e-07 0)
(-2.299e-09 -9.02201e-07 0)
(-2.32705e-09 -8.99976e-07 0)
(-2.35402e-09 -8.977e-07 0)
(-2.37987e-09 -8.95373e-07 0)
(-2.40462e-09 -8.92997e-07 0)
(-2.42824e-09 -8.9057e-07 0)
(-2.45073e-09 -8.88093e-07 0)
(-2.47208e-09 -8.85567e-07 0)
(-2.49228e-09 -8.82992e-07 0)
(-2.51133e-09 -8.80369e-07 0)
(-2.52921e-09 -8.77697e-07 0)
(-2.54593e-09 -8.74978e-07 0)
(-2.56148e-09 -8.72212e-07 0)
(-2.57586e-09 -8.694e-07 0)
(-2.58905e-09 -8.66542e-07 0)
(-2.60107e-09 -8.63638e-07 0)
(-2.61191e-09 -8.60691e-07 0)
(-2.62157e-09 -8.57699e-07 0)
(-2.63005e-09 -8.54665e-07 0)
(-2.63736e-09 -8.51588e-07 0)
(-2.64349e-09 -8.48471e-07 0)
(-2.64845e-09 -8.45312e-07 0)
(-2.65224e-09 -8.42115e-07 0)
(-2.65487e-09 -8.38878e-07 0)
(-2.65635e-09 -8.35604e-07 0)
(-2.65668e-09 -8.32293e-07 0)
(-2.65588e-09 -8.28947e-07 0)
(-2.65391e-09 -8.25565e-07 0)
(-2.65095e-09 -8.22151e-07 0)
(-2.6463e-09 -8.18673e-07 0)
(-2.63991e-09 -8.14831e-07 0)
(-2.63222e-09 -8.10611e-07 0)
(-2.62286e-09 -8.06331e-07 0)
(-2.61205e-09 -8.02076e-07 0)
(-2.59993e-09 -7.97861e-07 0)
(-2.58659e-09 -7.93671e-07 0)
(-2.57211e-09 -7.89499e-07 0)
(-2.55653e-09 -7.85349e-07 0)
(-2.53993e-09 -7.81225e-07 0)
(-2.52236e-09 -7.77129e-07 0)
(-2.50389e-09 -7.73063e-07 0)
(-2.48457e-09 -7.69028e-07 0)
(-2.46444e-09 -7.65024e-07 0)
(-2.44357e-09 -7.61054e-07 0)
(-2.422e-09 -7.57117e-07 0)
(-2.39976e-09 -7.53217e-07 0)
(-2.37692e-09 -7.49353e-07 0)
(-2.3535e-09 -7.45526e-07 0)
(-2.32954e-09 -7.41738e-07 0)
(-2.30508e-09 -7.37989e-07 0)
(-2.28015e-09 -7.3428e-07 0)
(-2.25479e-09 -7.30612e-07 0)
(-2.22902e-09 -7.26985e-07 0)
(-2.20288e-09 -7.234e-07 0)
(-2.17638e-09 -7.19858e-07 0)
(-2.14956e-09 -7.16359e-07 0)
(-2.12244e-09 -7.12903e-07 0)
(-2.09503e-09 -7.09492e-07 0)
(-2.06737e-09 -7.06125e-07 0)
(-2.03946e-09 -7.02803e-07 0)
(-2.01132e-09 -6.99527e-07 0)
(-1.98298e-09 -6.96296e-07 0)
(-1.95445e-09 -6.93112e-07 0)
(-1.92573e-09 -6.89973e-07 0)
(-1.89685e-09 -6.86881e-07 0)
(-1.86781e-09 -6.83836e-07 0)
(-1.83863e-09 -6.80839e-07 0)
(-1.80931e-09 -6.77888e-07 0)
(-1.77986e-09 -6.74985e-07 0)
(-1.75029e-09 -6.7213e-07 0)
(-1.72062e-09 -6.69322e-07 0)
(-1.69083e-09 -6.66563e-07 0)
(-1.66095e-09 -6.63852e-07 0)
(-1.63098e-09 -6.6119e-07 0)
(-1.60091e-09 -6.58576e-07 0)
(-1.57076e-09 -6.56011e-07 0)
(-1.54053e-09 -6.53494e-07 0)
(-1.51021e-09 -6.51027e-07 0)
(-1.47982e-09 -6.48608e-07 0)
(-1.44936e-09 -6.46239e-07 0)
(-1.41882e-09 -6.43919e-07 0)
(-1.38821e-09 -6.41649e-07 0)
(-1.35754e-09 -6.39428e-07 0)
(-1.32679e-09 -6.37257e-07 0)
(-1.29597e-09 -6.35136e-07 0)
(-1.26509e-09 -6.33064e-07 0)
(-1.23414e-09 -6.31043e-07 0)
(-1.20312e-09 -6.29072e-07 0)
(-1.17204e-09 -6.27151e-07 0)
(-1.14089e-09 -6.2528e-07 0)
(-1.10967e-09 -6.2346e-07 0)
(-1.07839e-09 -6.2169e-07 0)
(-1.04704e-09 -6.19971e-07 0)
(-1.01562e-09 -6.18303e-07 0)
(-9.84142e-10 -6.16685e-07 0)
(-9.52594e-10 -6.15119e-07 0)
(-9.2098e-10 -6.13603e-07 0)
(-8.893e-10 -6.12139e-07 0)
(-8.57555e-10 -6.10726e-07 0)
(-8.25745e-10 -6.09365e-07 0)
(-7.93871e-10 -6.08055e-07 0)
(-7.61934e-10 -6.06796e-07 0)
(-7.29934e-10 -6.0559e-07 0)
(-6.97873e-10 -6.04435e-07 0)
(-6.65752e-10 -6.03332e-07 0)
(-6.33572e-10 -6.02281e-07 0)
(-6.01335e-10 -6.01282e-07 0)
(-5.69042e-10 -6.00336e-07 0)
(-5.36696e-10 -5.99441e-07 0)
(-5.04298e-10 -5.98599e-07 0)
(-4.71851e-10 -5.9781e-07 0)
(-4.39357e-10 -5.97073e-07 0)
(-4.06818e-10 -5.96388e-07 0)
(-3.74238e-10 -5.95757e-07 0)
(-3.41619e-10 -5.95177e-07 0)
(-3.08964e-10 -5.94654e-07 0)
(-2.76274e-10 -5.94168e-07 0)
(-2.4356e-10 -5.93789e-07 0)
(-2.10798e-10 -5.93284e-07 0)
(-1.78079e-10 -5.93419e-07 0)
(-1.45115e-10 -5.91617e-07 0)
(-1.12893e-10 -5.96221e-07 0)
(-7.81977e-11 -5.78226e-07 0)
(-5.23204e-11 -6.25603e-07 0)
(-2.27811e-11 -5.46362e-07 0)
)
;
    }
    bottomWall
    {
        type            calculated;
        value           nonuniform List<vector> 
449
(
(-48.5583 -0.964467 0)
(-19.761 -0.00515823 0)
(-14.3504 -0.00113545 0)
(-12.0394 -0.000545829 0)
(-10.6324 -0.000351728 0)
(-9.63796 -0.000256166 0)
(-8.87937 -0.00019862 0)
(-8.27545 -0.000159925 0)
(-7.77969 -0.000132416 0)
(-7.36277 -0.000112055 0)
(-7.00552 -9.64435e-05 0)
(-6.69488 -8.4128e-05 0)
(-6.42154 -7.42032e-05 0)
(-6.17858 -6.607e-05 0)
(-5.96075 -5.93083e-05 0)
(-5.76397 -5.36148e-05 0)
(-5.58505 -4.87671e-05 0)
(-5.42143 -4.45992e-05 0)
(-5.27105 -4.09852e-05 0)
(-5.13219 -3.78273e-05 0)
(-5.00346 -3.5049e-05 0)
(-4.88368 -3.25894e-05 0)
(-4.77184 -3.03997e-05 0)
(-4.66711 -2.84404e-05 0)
(-4.56875 -2.66788e-05 0)
(-4.47615 -2.50882e-05 0)
(-4.38875 -2.36464e-05 0)
(-4.30609 -2.23346e-05 0)
(-4.22775 -2.11369e-05 0)
(-4.15336 -2.00401e-05 0)
(-4.08261 -1.90326e-05 0)
(-4.01519 -1.81046e-05 0)
(-3.95086 -1.72477e-05 0)
(-3.88939 -1.64544e-05 0)
(-3.83056 -1.57184e-05 0)
(-3.77419 -1.50341e-05 0)
(-3.72012 -1.43965e-05 0)
(-3.66819 -1.38013e-05 0)
(-3.61826 -1.32448e-05 0)
(-3.57021 -1.27234e-05 0)
(-3.52391 -1.22341e-05 0)
(-3.47927 -1.17744e-05 0)
(-3.43619 -1.13417e-05 0)
(-3.39457 -1.09338e-05 0)
(-3.35434 -1.0549e-05 0)
(-3.31542 -1.01853e-05 0)
(-3.27774 -9.84117e-06 0)
(-3.24123 -9.51523e-06 0)
(-3.20583 -9.20613e-06 0)
(-3.1715 -8.91271e-06 0)
(-3.13817 -8.63387e-06 0)
(-3.10579 -8.36862e-06 0)
(-3.07433 -8.11606e-06 0)
(-3.04374 -7.87536e-06 0)
(-3.01397 -7.64577e-06 0)
(-2.985 -7.42658e-06 0)
(-2.95678 -7.21715e-06 0)
(-2.92929 -7.01689e-06 0)
(-2.9025 -6.82525e-06 0)
(-2.87636 -6.64172e-06 0)
(-2.85087 -6.46584e-06 0)
(-2.82598 -6.29717e-06 0)
(-2.80169 -6.1353e-06 0)
(-2.77796 -5.97987e-06 0)
(-2.75476 -5.83051e-06 0)
(-2.7321 -5.68692e-06 0)
(-2.70993 -5.54878e-06 0)
(-2.68825 -5.41581e-06 0)
(-2.66703 -5.28775e-06 0)
(-2.64626 -5.16435e-06 0)
(-2.62593 -5.04537e-06 0)
(-2.60601 -4.93061e-06 0)
(-2.5865 -4.81986e-06 0)
(-2.56738 -4.71292e-06 0)
(-2.54864 -4.60962e-06 0)
(-2.53026 -4.50979e-06 0)
(-2.51224 -4.41327e-06 0)
(-2.49455 -4.31991e-06 0)
(-2.4772 -4.22957e-06 0)
(-2.46017 -4.14211e-06 0)
(-2.44345 -4.05741e-06 0)
(-2.42703 -3.97535e-06 0)
(-2.41091 -3.89582e-06 0)
(-2.39506 -3.81871e-06 0)
(-2.37949 -3.74393e-06 0)
(-2.36419 -3.67137e-06 0)
(-2.34915 -3.60094e-06 0)
(-2.33437 -3.53257e-06 0)
(-2.31982 -3.46616e-06 0)
(-2.30552 -3.40165e-06 0)
(-2.29144 -3.33895e-06 0)
(-2.2776 -3.278e-06 0)
(-2.26397 -3.21874e-06 0)
(-2.25055 -3.16109e-06 0)
(-2.23735 -3.105e-06 0)
(-2.22434 -3.05041e-06 0)
(-2.21154 -2.99726e-06 0)
(-2.19892 -2.94551e-06 0)
(-2.1865 -2.89511e-06 0)
(-2.17425 -2.846e-06 0)
(-2.16219 -2.79814e-06 0)
(-2.1503 -2.75149e-06 0)
(-2.13857 -2.70601e-06 0)
(-2.12702 -2.66165e-06 0)
(-2.11562 -2.61838e-06 0)
(-2.10439 -2.57616e-06 0)
(-2.09331 -2.53496e-06 0)
(-2.08238 -2.49475e-06 0)
(-2.07159 -2.45548e-06 0)
(-2.06095 -2.41714e-06 0)
(-2.05046 -2.37969e-06 0)
(-2.04009 -2.34311e-06 0)
(-2.02987 -2.30736e-06 0)
(-2.01977 -2.27242e-06 0)
(-2.00981 -2.23826e-06 0)
(-1.99997 -2.20487e-06 0)
(-1.99025 -2.17222e-06 0)
(-1.98066 -2.14028e-06 0)
(-1.97118 -2.10904e-06 0)
(-1.96182 -2.07848e-06 0)
(-1.95257 -2.04856e-06 0)
(-1.94343 -2.01929e-06 0)
(-1.93441 -1.99063e-06 0)
(-1.92548 -1.96257e-06 0)
(-1.91667 -1.9351e-06 0)
(-1.90795 -1.90819e-06 0)
(-1.89934 -1.88183e-06 0)
(-1.89082 -1.856e-06 0)
(-1.88241 -1.8307e-06 0)
(-1.87408 -1.80591e-06 0)
(-1.86585 -1.7816e-06 0)
(-1.85771 -1.75778e-06 0)
(-1.84966 -1.73442e-06 0)
(-1.8417 -1.71151e-06 0)
(-1.83382 -1.68905e-06 0)
(-1.82603 -1.66702e-06 0)
(-1.81833 -1.64541e-06 0)
(-1.8107 -1.62421e-06 0)
(-1.80315 -1.6034e-06 0)
(-1.79569 -1.58298e-06 0)
(-1.7883 -1.56295e-06 0)
(-1.78098 -1.54328e-06 0)
(-1.77375 -1.52397e-06 0)
(-1.76658 -1.50501e-06 0)
(-1.75949 -1.48639e-06 0)
(-1.75246 -1.46811e-06 0)
(-1.74551 -1.45015e-06 0)
(-1.73863 -1.43251e-06 0)
(-1.73181 -1.41518e-06 0)
(-1.72506 -1.39816e-06 0)
(-1.71838 -1.38143e-06 0)
(-1.71176 -1.36499e-06 0)
(-1.7052 -1.34883e-06 0)
(-1.6987 -1.33294e-06 0)
(-1.69227 -1.31733e-06 0)
(-1.6859 -1.30198e-06 0)
(-1.67958 -1.28689e-06 0)
(-1.67332 -1.27204e-06 0)
(-1.66713 -1.25745e-06 0)
(-1.66098 -1.24309e-06 0)
(-1.6549 -1.22897e-06 0)
(-1.64886 -1.21508e-06 0)
(-1.64289 -1.20141e-06 0)
(-1.63696 -1.18797e-06 0)
(-1.63109 -1.17474e-06 0)
(-1.62527 -1.16172e-06 0)
(-1.6195 -1.1489e-06 0)
(-1.61378 -1.1363e-06 0)
(-1.6081 -1.1239e-06 0)
(-1.60248 -1.11158e-06 0)
(-1.59691 -1.09987e-06 0)
(-1.59138 -1.08777e-06 0)
(-1.5859 -1.07471e-06 0)
(-1.58078 -1.0646e-06 0)
(-1.57596 -1.05631e-06 0)
(-1.57113 -1.0459e-06 0)
(-1.56631 -1.03519e-06 0)
(-1.56147 -1.02518e-06 0)
(-1.55664 -1.01514e-06 0)
(-1.55179 -1.00523e-06 0)
(-1.54695 -9.95385e-07 0)
(-1.54209 -9.8561e-07 0)
(-1.53724 -9.75898e-07 0)
(-1.53238 -9.66245e-07 0)
(-1.52751 -9.56652e-07 0)
(-1.52265 -9.47115e-07 0)
(-1.51777 -9.37636e-07 0)
(-1.5129 -9.28214e-07 0)
(-1.50802 -9.18848e-07 0)
(-1.50314 -9.09539e-07 0)
(-1.49825 -9.00287e-07 0)
(-1.49336 -8.91092e-07 0)
(-1.48847 -8.81953e-07 0)
(-1.48358 -8.72872e-07 0)
(-1.47868 -8.63848e-07 0)
(-1.47379 -8.54882e-07 0)
(-1.46889 -8.45973e-07 0)
(-1.46399 -8.37122e-07 0)
(-1.45909 -8.2833e-07 0)
(-1.45418 -8.19596e-07 0)
(-1.44928 -8.1092e-07 0)
(-1.44438 -8.02303e-07 0)
(-1.43947 -7.93745e-07 0)
(-1.43457 -7.85245e-07 0)
(-1.42966 -7.76805e-07 0)
(-1.42476 -7.68424e-07 0)
(-1.41985 -7.60103e-07 0)
(-1.41495 -7.51841e-07 0)
(-1.41004 -7.43638e-07 0)
(-1.40514 -7.35495e-07 0)
(-1.40024 -7.27412e-07 0)
(-1.39534 -7.19389e-07 0)
(-1.39044 -7.11426e-07 0)
(-1.38554 -7.03522e-07 0)
(-1.38065 -6.95679e-07 0)
(-1.37575 -6.87896e-07 0)
(-1.37086 -6.80173e-07 0)
(-1.36597 -6.7251e-07 0)
(-1.36109 -6.64907e-07 0)
(-1.3562 -6.57364e-07 0)
(-1.35132 -6.49882e-07 0)
(-1.34645 -6.42459e-07 0)
(-1.34157 -6.35097e-07 0)
(-1.3367 -6.27795e-07 0)
(-1.33184 -6.20552e-07 0)
(-1.32698 -6.1337e-07 0)
(-1.32212 -6.06248e-07 0)
(-1.31726 -5.99185e-07 0)
(-1.31242 -5.92183e-07 0)
(-1.30757 -5.8524e-07 0)
(-1.30273 -5.78356e-07 0)
(-1.2979 -5.71532e-07 0)
(-1.29307 -5.64768e-07 0)
(-1.28824 -5.58063e-07 0)
(-1.28342 -5.51417e-07 0)
(-1.27861 -5.4483e-07 0)
(-1.2738 -5.38302e-07 0)
(-1.269 -5.31832e-07 0)
(-1.26421 -5.25422e-07 0)
(-1.25942 -5.19069e-07 0)
(-1.25464 -5.12775e-07 0)
(-1.24987 -5.0654e-07 0)
(-1.2451 -5.00362e-07 0)
(-1.24034 -4.94241e-07 0)
(-1.23558 -4.88179e-07 0)
(-1.23084 -4.82173e-07 0)
(-1.2261 -4.76225e-07 0)
(-1.22137 -4.70334e-07 0)
(-1.21664 -4.64499e-07 0)
(-1.21193 -4.58721e-07 0)
(-1.20722 -4.53e-07 0)
(-1.20252 -4.47334e-07 0)
(-1.19783 -4.41724e-07 0)
(-1.19315 -4.36169e-07 0)
(-1.18848 -4.3067e-07 0)
(-1.18381 -4.25226e-07 0)
(-1.17916 -4.19837e-07 0)
(-1.17451 -4.14502e-07 0)
(-1.16987 -4.09221e-07 0)
(-1.16525 -4.03995e-07 0)
(-1.16063 -3.98822e-07 0)
(-1.15602 -3.93702e-07 0)
(-1.15142 -3.88636e-07 0)
(-1.14683 -3.83622e-07 0)
(-1.14226 -3.78661e-07 0)
(-1.13769 -3.73753e-07 0)
(-1.13313 -3.68896e-07 0)
(-1.12858 -3.6409e-07 0)
(-1.12404 -3.59337e-07 0)
(-1.11952 -3.54634e-07 0)
(-1.115 -3.49981e-07 0)
(-1.1105 -3.4538e-07 0)
(-1.106 -3.40828e-07 0)
(-1.10152 -3.36326e-07 0)
(-1.09705 -3.31873e-07 0)
(-1.09259 -3.27469e-07 0)
(-1.08814 -3.23114e-07 0)
(-1.0837 -3.18808e-07 0)
(-1.07928 -3.1455e-07 0)
(-1.07487 -3.10339e-07 0)
(-1.07046 -3.06176e-07 0)
(-1.06607 -3.02059e-07 0)
(-1.0617 -2.9799e-07 0)
(-1.05733 -2.93967e-07 0)
(-1.05298 -2.8999e-07 0)
(-1.04863 -2.86058e-07 0)
(-1.04431 -2.82172e-07 0)
(-1.03999 -2.78331e-07 0)
(-1.03568 -2.74535e-07 0)
(-1.03139 -2.70782e-07 0)
(-1.02711 -2.67074e-07 0)
(-1.02285 -2.63409e-07 0)
(-1.0186 -2.59788e-07 0)
(-1.01436 -2.56209e-07 0)
(-1.01013 -2.52673e-07 0)
(-1.00591 -2.49179e-07 0)
(-1.00171 -2.45727e-07 0)
(-0.997527 -2.42316e-07 0)
(-0.993352 -2.38946e-07 0)
(-0.989192 -2.35617e-07 0)
(-0.985044 -2.32329e-07 0)
(-0.98091 -2.2908e-07 0)
(-0.97679 -2.25871e-07 0)
(-0.972683 -2.22702e-07 0)
(-0.96859 -2.19571e-07 0)
(-0.964511 -2.16479e-07 0)
(-0.960446 -2.13425e-07 0)
(-0.956394 -2.10409e-07 0)
(-0.952356 -2.0743e-07 0)
(-0.948333 -2.04489e-07 0)
(-0.944323 -2.01585e-07 0)
(-0.940327 -1.98717e-07 0)
(-0.936346 -1.95885e-07 0)
(-0.932378 -1.93089e-07 0)
(-0.928425 -1.90328e-07 0)
(-0.924486 -1.87603e-07 0)
(-0.920561 -1.84912e-07 0)
(-0.916651 -1.82255e-07 0)
(-0.912755 -1.79633e-07 0)
(-0.908873 -1.77044e-07 0)
(-0.905005 -1.74489e-07 0)
(-0.901153 -1.71967e-07 0)
(-0.897314 -1.69477e-07 0)
(-0.89349 -1.6702e-07 0)
(-0.889681 -1.64595e-07 0)
(-0.885886 -1.62201e-07 0)
(-0.882106 -1.59839e-07 0)
(-0.87834 -1.57507e-07 0)
(-0.874589 -1.55207e-07 0)
(-0.870853 -1.52937e-07 0)
(-0.867131 -1.50697e-07 0)
(-0.863425 -1.48486e-07 0)
(-0.859732 -1.46305e-07 0)
(-0.856055 -1.44153e-07 0)
(-0.852392 -1.4203e-07 0)
(-0.848744 -1.39935e-07 0)
(-0.845111 -1.37869e-07 0)
(-0.841493 -1.3583e-07 0)
(-0.837889 -1.33819e-07 0)
(-0.834301 -1.31835e-07 0)
(-0.830727 -1.29877e-07 0)
(-0.827168 -1.27947e-07 0)
(-0.823624 -1.26043e-07 0)
(-0.820094 -1.24164e-07 0)
(-0.81658 -1.22312e-07 0)
(-0.81308 -1.20485e-07 0)
(-0.809595 -1.18683e-07 0)
(-0.806126 -1.16905e-07 0)
(-0.80267 -1.15152e-07 0)
(-0.79923 -1.13426e-07 0)
(-0.795805 -1.11719e-07 0)
(-0.792394 -1.10012e-07 0)
(-0.789 -1.08428e-07 0)
(-0.785615 -1.06853e-07 0)
(-0.781868 -1.04967e-07 0)
(-0.777806 -1.02977e-07 0)
(-0.773817 -1.0118e-07 0)
(-0.769895 -9.94575e-08 0)
(-0.766042 -9.77156e-08 0)
(-0.762256 -9.60041e-08 0)
(-0.758536 -9.4335e-08 0)
(-0.754881 -9.27103e-08 0)
(-0.751289 -9.1129e-08 0)
(-0.747757 -8.95902e-08 0)
(-0.744285 -8.80928e-08 0)
(-0.74087 -8.66355e-08 0)
(-0.737512 -8.52169e-08 0)
(-0.734209 -8.38357e-08 0)
(-0.730958 -8.24906e-08 0)
(-0.72776 -8.11803e-08 0)
(-0.724612 -7.99036e-08 0)
(-0.721514 -7.86592e-08 0)
(-0.718463 -7.74461e-08 0)
(-0.715459 -7.62632e-08 0)
(-0.712501 -7.51095e-08 0)
(-0.709588 -7.39839e-08 0)
(-0.706718 -7.28855e-08 0)
(-0.70389 -7.18135e-08 0)
(-0.701104 -7.07669e-08 0)
(-0.698359 -6.97449e-08 0)
(-0.695652 -6.87468e-08 0)
(-0.692985 -6.77718e-08 0)
(-0.690355 -6.6819e-08 0)
(-0.687762 -6.58879e-08 0)
(-0.685204 -6.49778e-08 0)
(-0.682682 -6.4088e-08 0)
(-0.680195 -6.32178e-08 0)
(-0.677741 -6.23668e-08 0)
(-0.67532 -6.15343e-08 0)
(-0.672931 -6.07197e-08 0)
(-0.670574 -5.99226e-08 0)
(-0.668247 -5.91424e-08 0)
(-0.665951 -5.83787e-08 0)
(-0.663684 -5.76309e-08 0)
(-0.661446 -5.68987e-08 0)
(-0.659237 -5.61815e-08 0)
(-0.657055 -5.54789e-08 0)
(-0.6549 -5.47906e-08 0)
(-0.652772 -5.41162e-08 0)
(-0.65067 -5.34552e-08 0)
(-0.648594 -5.28073e-08 0)
(-0.646543 -5.21722e-08 0)
(-0.644516 -5.15495e-08 0)
(-0.642514 -5.09389e-08 0)
(-0.640535 -5.03401e-08 0)
(-0.638579 -4.97528e-08 0)
(-0.636646 -4.91766e-08 0)
(-0.634735 -4.86114e-08 0)
(-0.632846 -4.80567e-08 0)
(-0.630979 -4.75125e-08 0)
(-0.629133 -4.69784e-08 0)
(-0.627307 -4.64541e-08 0)
(-0.625502 -4.59395e-08 0)
(-0.623717 -4.54343e-08 0)
(-0.621951 -4.49383e-08 0)
(-0.620205 -4.44513e-08 0)
(-0.618477 -4.39731e-08 0)
(-0.616768 -4.35036e-08 0)
(-0.615077 -4.30424e-08 0)
(-0.613404 -4.25895e-08 0)
(-0.611748 -4.21448e-08 0)
(-0.61011 -4.17079e-08 0)
(-0.608488 -4.1279e-08 0)
(-0.606884 -4.08577e-08 0)
(-0.605295 -4.0444e-08 0)
(-0.603723 -4.00379e-08 0)
(-0.602166 -3.96392e-08 0)
(-0.600625 -3.92478e-08 0)
(-0.599099 -3.88639e-08 0)
(-0.597588 -3.84875e-08 0)
(-0.596091 -3.81185e-08 0)
(-0.594608 -3.77571e-08 0)
(-0.59314 -3.74037e-08 0)
(-0.591685 -3.70585e-08 0)
(-0.590244 -3.67222e-08 0)
(-0.588815 -3.63954e-08 0)
(-0.5874 -3.60795e-08 0)
(-0.585996 -3.5776e-08 0)
(-0.584604 -3.54872e-08 0)
(-0.583223 -3.52232e-08 0)
(-0.581851 -3.49666e-08 0)
(-0.58049 -3.47556e-08 0)
(-0.579135 -3.47632e-08 0)
(-0.577773 -3.42796e-08 0)
(-0.576456 -3.34363e-08 0)
(-0.57516 -4.41403e-08 0)
(-0.573006 -1.19993e-08 0)
(-0.574233 -3.24315e-08 0)
(-0.570431 -4.95488e-08 0)
)
;
    }
    symmetry
    {
        type            symmetryPlane;
    }
    frontAndBack
    {
        type            empty;
    }
}


// ************************************************************************* //
