/*--------------------------------*- C++ -*----------------------------------*\
| =========                 |                                                 |
| \\      /  F ield         | OpenFOAM: The Open Source CFD Toolbox           |
|  \\    /   O peration     | Version:  v2012                                 |
|   \\  /    A nd           | Website:  www.openfoam.com                      |
|    \\/     M anipulation  |                                                 |
\*---------------------------------------------------------------------------*/
FoamFile
{
    version     2.0;
    format      ascii;
    class       volScalarField;
    location    "24.5";
    object      yPlus;
}
// * * * * * * * * * * * * * * * * * * * * * * * * * * * * * * * * * * * * * //

dimensions      [0 0 0 0 0 0 0];


internalField   uniform 0;

boundaryField
{
    inlet
    {
        type            calculated;
        value           uniform 0;
    }
    outlet
    {
        type            calculated;
        value           uniform 0;
    }
    topWall
    {
        type            calculated;
        value           nonuniform List<scalar> 
545
(
0.0706086
0.121755
0.156192
0.183587
0.206767
0.227035
0.245125
0.261496
0.276463
0.290253
0.303034
0.314938
0.326068
0.336511
0.346335
0.3556
0.364356
0.372645
0.380507
0.387973
0.395072
0.40183
0.408272
0.414416
0.420283
0.425889
0.43125
0.43638
0.441293
0.446
0.450513
0.454842
0.458996
0.462985
0.466817
0.470499
0.47404
0.477445
0.480721
0.483874
0.486909
0.489833
0.49265
0.495365
0.497982
0.500505
0.502938
0.505286
0.507552
0.509739
0.511851
0.513889
0.515859
0.517761
0.5196
0.521377
0.523094
0.524755
0.526361
0.527914
0.529416
0.53087
0.532277
0.533638
0.534956
0.536232
0.537467
0.538664
0.539822
0.540945
0.542032
0.543085
0.544093
0.545067
0.546032
0.546988
0.547936
0.548876
0.549807
0.550729
0.551644
0.55255
0.553448
0.554339
0.555221
0.556096
0.556963
0.557822
0.558674
0.559518
0.560355
0.561184
0.562006
0.562822
0.56363
0.564431
0.565151
0.565796
0.566439
0.567082
0.567724
0.568366
0.569007
0.569647
0.570287
0.570926
0.571564
0.572201
0.572838
0.573474
0.574109
0.574744
0.575377
0.57601
0.576643
0.577274
0.577905
0.578535
0.579164
0.579792
0.58042
0.581046
0.581672
0.582297
0.582921
0.583545
0.584167
0.584789
0.58541
0.58603
0.586649
0.587267
0.587884
0.5885
0.589116
0.58973
0.590344
0.590957
0.591568
0.592179
0.592789
0.593398
0.594005
0.594612
0.595218
0.595823
0.596427
0.597029
0.597631
0.598232
0.598832
0.59943
0.600028
0.600624
0.60122
0.601814
0.602407
0.602999
0.60359
0.60418
0.604769
0.605357
0.605943
0.606528
0.607112
0.607695
0.608277
0.608858
0.609437
0.610015
0.610592
0.611168
0.611742
0.612315
0.612887
0.613458
0.614027
0.614595
0.615162
0.615728
0.616292
0.616855
0.617416
0.617976
0.618535
0.619093
0.619649
0.620203
0.620757
0.621308
0.621859
0.622408
0.622955
0.623502
0.624046
0.62459
0.625131
0.625672
0.62621
0.626748
0.627283
0.627818
0.62835
0.628882
0.629411
0.629939
0.630466
0.630991
0.631514
0.632036
0.632556
0.633074
0.633591
0.634106
0.63462
0.635131
0.635642
0.63615
0.636657
0.637162
0.637665
0.638167
0.638667
0.639165
0.639661
0.640156
0.640649
0.64114
0.641629
0.642116
0.642602
0.643086
0.643568
0.644048
0.644526
0.645002
0.645477
0.645949
0.64642
0.646888
0.647355
0.64782
0.648283
0.648744
0.649203
0.64966
0.650114
0.650567
0.651018
0.651467
0.651914
0.652359
0.652802
0.653242
0.653681
0.654117
0.654552
0.654984
0.655414
0.655842
0.656268
0.656692
0.657113
0.657533
0.65795
0.658365
0.658778
0.659188
0.659597
0.65998
0.660341
0.660702
0.661066
0.66143
0.661796
0.662162
0.66253
0.662899
0.66327
0.663641
0.664013
0.664386
0.66476
0.665134
0.66551
0.665886
0.666263
0.666641
0.667019
0.667397
0.667776
0.668155
0.668535
0.668915
0.669295
0.669675
0.670055
0.670435
0.670816
0.671195
0.671575
0.671954
0.672333
0.672711
0.673089
0.673466
0.673842
0.674217
0.674591
0.674965
0.675337
0.675707
0.676077
0.676445
0.676811
0.677175
0.677538
0.677899
0.678258
0.678614
0.678969
0.67932
0.67967
0.680016
0.68036
0.680701
0.681039
0.681373
0.681704
0.682032
0.682356
0.682676
0.682992
0.683304
0.683612
0.683915
0.684214
0.684508
0.684796
0.68508
0.685359
0.685632
0.685899
0.686161
0.686416
0.686666
0.686909
0.687145
0.687375
0.687597
0.687813
0.688021
0.688222
0.688414
0.688599
0.688776
0.688944
0.689104
0.689255
0.689396
0.689529
0.689652
0.689765
0.689869
0.689962
0.690045
0.690117
0.690178
0.690229
0.690268
0.690296
0.690311
0.690315
0.690307
0.690286
0.690253
0.690206
0.690147
0.690074
0.689988
0.689887
0.689773
0.689644
0.689501
0.689343
0.68917
0.688982
0.688779
0.68856
0.688325
0.688074
0.687807
0.687523
0.687223
0.686906
0.686571
0.68622
0.685851
0.685464
0.68506
0.684637
0.684197
0.683738
0.68326
0.682764
0.68225
0.681716
0.681163
0.680591
0.68
0.67939
0.67876
0.67811
0.677441
0.676752
0.676043
0.675314
0.674565
0.673797
0.673008
0.672199
0.671371
0.670522
0.669653
0.668764
0.667856
0.666927
0.665979
0.66501
0.664022
0.663015
0.661988
0.660941
0.659875
0.65879
0.657686
0.656564
0.655422
0.654262
0.653084
0.651888
0.650675
0.649443
0.648194
0.646929
0.645646
0.644348
0.643033
0.641702
0.640356
0.638842
0.637168
0.635495
0.633825
0.632157
0.630493
0.628833
0.627179
0.625531
0.623889
0.622255
0.620629
0.619012
0.617404
0.615806
0.614218
0.61264
0.611074
0.60952
0.607978
0.606448
0.604932
0.603429
0.601939
0.600464
0.599003
0.597557
0.596125
0.594709
0.593309
0.591925
0.590556
0.589204
0.587869
0.58655
0.585249
0.583965
0.582698
0.581449
0.580218
0.579006
0.577811
0.576635
0.575477
0.574339
0.573219
0.572119
0.571038
0.569976
0.568934
0.567912
0.56691
0.565929
0.564967
0.564026
0.563106
0.562206
0.561327
0.560469
0.559633
0.558818
0.558024
0.557252
0.556502
0.555774
0.555067
0.554383
0.553722
0.553082
0.552466
0.551871
0.5513
0.550752
0.550226
0.549724
0.549245
0.54879
0.548358
0.547949
0.547564
0.547203
0.546865
0.546552
0.546262
0.545997
0.545756
0.545538
0.545345
0.545177
0.545032
0.544912
0.544816
0.544744
0.5447
0.544666
)
;
    }
    bottomWall
    {
        type            calculated;
        value           nonuniform List<scalar> 
449
(
0.139491
0.0889829
0.0758289
0.0694552
0.0652707
0.0621433
0.0596476
0.0575835
0.055832
0.0543153
0.0529812
0.0517933
0.050725
0.0497561
0.0488711
0.0480577
0.0473059
0.0466078
0.0459569
0.0453475
0.0447752
0.044236
0.0437265
0.043244
0.0427859
0.0423501
0.0419346
0.0415378
0.0411582
0.0407945
0.0404456
0.0401102
0.0397876
0.0394769
0.0391772
0.0388879
0.0386083
0.0383379
0.0380761
0.0378224
0.0375763
0.0373376
0.0371057
0.0368803
0.0366611
0.0364478
0.0362401
0.0360377
0.0358404
0.0356479
0.0354601
0.0352767
0.0350976
0.0349225
0.0347513
0.0345839
0.0344201
0.0342597
0.0341026
0.0339488
0.033798
0.0336501
0.0335052
0.033363
0.0332234
0.0330864
0.0329519
0.0328198
0.0326901
0.0325626
0.0324372
0.032314
0.0321928
0.0320736
0.0319563
0.0318409
0.0317272
0.0316154
0.0315052
0.0313967
0.0312899
0.0311846
0.0310808
0.0309785
0.0308777
0.0307782
0.0306802
0.0305834
0.030488
0.0303939
0.030301
0.0302093
0.0301188
0.0300294
0.0299412
0.029854
0.029768
0.0296829
0.0295989
0.029516
0.029434
0.0293529
0.0292728
0.0291936
0.0291153
0.0290379
0.0289613
0.0288856
0.0288107
0.0287367
0.0286634
0.0285909
0.0285191
0.0284481
0.0283778
0.0283083
0.0282394
0.0281713
0.0281038
0.028037
0.0279708
0.0279053
0.0278404
0.0277761
0.0277125
0.0276494
0.0275869
0.027525
0.0274637
0.0274029
0.0273426
0.0272829
0.0272238
0.0271651
0.027107
0.0270493
0.0269922
0.0269355
0.0268793
0.0268236
0.0267684
0.0267136
0.0266592
0.0266053
0.0265519
0.0264988
0.0264462
0.026394
0.0263422
0.0262908
0.0262398
0.0261892
0.026139
0.0260892
0.0260397
0.0259907
0.0259419
0.0258936
0.0258456
0.0257979
0.0257506
0.0257036
0.025657
0.0256107
0.0255647
0.025519
0.0254737
0.0254287
0.0253839
0.0253395
0.0252954
0.0252516
0.0252081
0.0251674
0.025129
0.0250905
0.0250519
0.0250132
0.0249744
0.0249356
0.0248966
0.0248575
0.0248183
0.0247791
0.0247397
0.0247003
0.0246607
0.0246211
0.0245813
0.0245415
0.0245016
0.0244616
0.0244215
0.0243813
0.0243411
0.0243007
0.0242603
0.0242198
0.0241792
0.0241386
0.0240979
0.024057
0.0240162
0.0239752
0.0239342
0.0238931
0.0238519
0.0238107
0.0237694
0.023728
0.0236866
0.0236451
0.0236036
0.023562
0.0235203
0.0234786
0.0234368
0.023395
0.0233531
0.0233112
0.0232692
0.0232272
0.0231851
0.023143
0.0231008
0.0230586
0.0230164
0.0229741
0.0229318
0.0228894
0.022847
0.0228046
0.0227621
0.0227196
0.0226771
0.0226345
0.0225919
0.0225493
0.0225067
0.022464
0.0224213
0.0223786
0.0223359
0.0222932
0.0222504
0.0222076
0.0221648
0.022122
0.0220792
0.0220364
0.0219936
0.0219507
0.0219079
0.021865
0.0218221
0.0217793
0.0217364
0.0216936
0.0216507
0.0216078
0.021565
0.0215221
0.0214793
0.0214364
0.0213936
0.0213508
0.021308
0.0212652
0.0212224
0.0211796
0.0211368
0.0210941
0.0210514
0.0210087
0.020966
0.0209233
0.0208807
0.0208381
0.0207955
0.0207529
0.0207104
0.0206679
0.0206254
0.0205829
0.0205405
0.0204981
0.0204558
0.0204134
0.0203712
0.0203289
0.0202867
0.0202445
0.0202024
0.0201603
0.0201183
0.0200763
0.0200343
0.0199924
0.0199505
0.0199087
0.0198669
0.0198252
0.0197835
0.0197418
0.0197003
0.0196587
0.0196173
0.0195758
0.0195345
0.0194932
0.0194519
0.0194107
0.0193696
0.0193285
0.0192875
0.0192465
0.0192056
0.0191648
0.019124
0.0190833
0.0190427
0.0190021
0.0189616
0.0189211
0.0188807
0.0188404
0.0188002
0.01876
0.0187199
0.0186799
0.0186399
0.0186001
0.0185602
0.0185205
0.0184808
0.0184413
0.0184017
0.0183623
0.0183229
0.0182837
0.0182445
0.0182053
0.0181663
0.0181273
0.0180885
0.0180496
0.0180109
0.0179723
0.0179337
0.0178953
0.0178569
0.0178186
0.0177804
0.0177422
0.0176998
0.0176538
0.0176085
0.0175638
0.0175198
0.0174764
0.0174337
0.0173917
0.0173502
0.0173094
0.0172692
0.0172295
0.0171904
0.0171519
0.0171139
0.0170764
0.0170394
0.017003
0.016967
0.0169315
0.0168964
0.0168618
0.0168277
0.016794
0.0167607
0.0167279
0.0166955
0.0166634
0.0166318
0.0166005
0.0165696
0.0165391
0.0165089
0.0164791
0.0164497
0.0164205
0.0163917
0.0163633
0.0163351
0.0163073
0.0162798
0.0162526
0.0162257
0.0161991
0.0161727
0.0161467
0.0161209
0.0160954
0.0160701
0.0160451
0.0160204
0.0159959
0.0159717
0.0159477
0.015924
0.0159005
0.0158772
0.0158541
0.0158313
0.0158087
0.0157863
0.0157641
0.0157421
0.0157204
0.0156988
0.0156774
0.0156563
0.0156353
0.0156145
0.0155939
0.0155735
0.0155532
0.0155332
0.0155133
0.0154936
0.015474
0.0154546
0.0154354
0.0154163
0.0153974
0.0153786
0.01536
0.0153415
0.0153232
0.015305
0.0152869
0.0152689
0.015251
0.0152332
0.0152153
0.015198
0.0151809
0.0151524
0.0151686
0.0151183
)
;
    }
    symmetry
    {
        type            symmetryPlane;
    }
    frontAndBack
    {
        type            empty;
    }
}


// ************************************************************************* //
