/*--------------------------------*- C++ -*----------------------------------*\
| =========                 |                                                 |
| \\      /  F ield         | OpenFOAM: The Open Source CFD Toolbox           |
|  \\    /   O peration     | Version:  v2012                                 |
|   \\  /    A nd           | Website:  www.openfoam.com                      |
|    \\/     M anipulation  |                                                 |
\*---------------------------------------------------------------------------*/
FoamFile
{
    version     2.0;
    format      ascii;
    class       volScalarField;
    location    "9";
    object      epsilon;
}
// * * * * * * * * * * * * * * * * * * * * * * * * * * * * * * * * * * * * * //

dimensions      [0 2 -3 0 0 0 0];


internalField   nonuniform List<scalar> 
209825
(
0.782636
0.753913
0.744609
0.740464
0.738181
0.736796
0.735867
0.735228
0.734746
0.734397
0.734109
0.733895
0.733701
0.733559
0.733439
0.733346
0.733257
0.733191
0.733122
0.733075
0.733017
0.732986
0.732952
0.73293
0.732895
0.732884
0.732869
0.732859
0.732834
0.732843
0.732842
0.732846
0.732838
0.73285
0.73285
0.73286
0.732854
0.732889
0.732889
0.732909
0.732909
0.732932
0.732932
0.732973
0.732973
0.733015
0.733015
0.733058
0.733058
0.733097
0.733097
0.733177
0.733176
0.733176
0.733201
0.733201
0.733311
0.733353
0.733398
0.733398
0.733405
0.733405
0.733535
0.733607
0.733608
0.733607
0.733756
0.733837
0.733837
0.733995
0.734065
0.734065
0.734229
0.734292
0.734453
0.734648
0.734776
0.734908
0.735153
0.735239
0.735481
0.735737
0.735987
0.736371
0.736761
0.737271
0.737847
0.738569
0.739557
0.740674
0.742232
0.744949
0.746575
0.763949
1.20686
230.695
0.782628
0.75389
0.744577
0.740427
0.738141
0.736754
0.735824
0.735184
0.734701
0.734351
0.734063
0.733849
0.733654
0.733512
0.733392
0.733299
0.733209
0.733143
0.733075
0.733027
0.73297
0.732938
0.732904
0.732882
0.732847
0.732836
0.73282
0.732811
0.732785
0.732794
0.732794
0.732797
0.73279
0.732802
0.732802
0.732812
0.732806
0.732841
0.732841
0.732861
0.732861
0.732884
0.732884
0.732924
0.732924
0.732967
0.732967
0.73301
0.73301
0.733048
0.733048
0.733128
0.733128
0.733128
0.733152
0.733152
0.733262
0.733305
0.73335
0.73335
0.733357
0.733357
0.733487
0.733559
0.73356
0.733559
0.733708
0.733789
0.733789
0.733947
0.734017
0.734017
0.734182
0.734244
0.734406
0.734601
0.734729
0.734861
0.735106
0.735192
0.735434
0.735691
0.735941
0.736326
0.736716
0.737226
0.737802
0.738525
0.739514
0.740632
0.74219
0.744909
0.746533
0.763942
1.20805
227.606
0.782583
0.753778
0.744432
0.740263
0.737967
0.736572
0.735637
0.734993
0.734508
0.734156
0.733866
0.733651
0.733455
0.733311
0.733191
0.733097
0.733007
0.732941
0.732872
0.732824
0.732766
0.732734
0.7327
0.732677
0.732642
0.732631
0.732616
0.732606
0.73258
0.732589
0.732588
0.732592
0.732584
0.732596
0.732596
0.732606
0.7326
0.732635
0.732635
0.732655
0.732655
0.732678
0.732678
0.732718
0.732718
0.732761
0.732761
0.732804
0.732804
0.732842
0.732842
0.732922
0.732922
0.732922
0.732947
0.732947
0.733057
0.7331
0.733145
0.733145
0.733152
0.733152
0.733282
0.733355
0.733355
0.733355
0.733504
0.733585
0.733585
0.733744
0.733814
0.733814
0.733979
0.734042
0.734204
0.734399
0.734528
0.734661
0.734906
0.734993
0.735235
0.735492
0.735743
0.736129
0.73652
0.737031
0.737608
0.738333
0.739322
0.740443
0.742001
0.744729
0.746343
0.763826
1.21093
224.199
0.782505
0.753587
0.744185
0.739986
0.737671
0.736265
0.735321
0.734671
0.734182
0.733826
0.733533
0.733316
0.733118
0.732973
0.732851
0.732757
0.732665
0.732598
0.732529
0.73248
0.732422
0.732389
0.732355
0.732332
0.732296
0.732285
0.732269
0.732259
0.732233
0.732242
0.732242
0.732245
0.732237
0.732249
0.732249
0.732258
0.732252
0.732287
0.732287
0.732307
0.732307
0.73233
0.73233
0.73237
0.73237
0.732413
0.732413
0.732456
0.732456
0.732495
0.732495
0.732575
0.732575
0.732575
0.7326
0.732599
0.73271
0.732753
0.732799
0.732799
0.732805
0.732805
0.732936
0.73301
0.73301
0.733009
0.733159
0.733241
0.733241
0.7334
0.733471
0.733471
0.733636
0.733701
0.733862
0.734059
0.734188
0.734321
0.734567
0.734655
0.734898
0.735157
0.735409
0.735795
0.736188
0.736701
0.73728
0.738007
0.738998
0.740123
0.74168
0.744422
0.746021
0.763617
1.21555
221.192
0.782394
0.753317
0.743836
0.739594
0.737253
0.73583
0.734874
0.734216
0.73372
0.733359
0.733062
0.732842
0.732642
0.732495
0.732371
0.732275
0.732182
0.732114
0.732044
0.731995
0.731935
0.731902
0.731867
0.731844
0.731808
0.731796
0.73178
0.731769
0.731743
0.731752
0.731751
0.731754
0.731746
0.731757
0.731757
0.731767
0.731761
0.731795
0.731795
0.731815
0.731815
0.731838
0.731838
0.731878
0.731878
0.731921
0.731921
0.731964
0.731964
0.732003
0.732003
0.732084
0.732084
0.732083
0.732108
0.732108
0.732219
0.732263
0.732309
0.732309
0.732316
0.732316
0.732446
0.732521
0.732522
0.732521
0.732671
0.732754
0.732754
0.732913
0.732986
0.732986
0.733152
0.733217
0.73338
0.733576
0.733707
0.733841
0.734088
0.734178
0.734422
0.734682
0.734935
0.735324
0.735718
0.736233
0.736814
0.737545
0.738538
0.739669
0.741225
0.743987
0.745563
0.763314
1.22202
218.878
0.782251
0.752967
0.743384
0.739086
0.736711
0.735265
0.734295
0.733625
0.733121
0.732754
0.732452
0.732228
0.732024
0.731874
0.731748
0.73165
0.731556
0.731486
0.731414
0.731364
0.731304
0.73127
0.731234
0.73121
0.731173
0.731161
0.731145
0.731134
0.731107
0.731115
0.731115
0.731117
0.731109
0.73112
0.73112
0.731129
0.731123
0.731157
0.731157
0.731177
0.731177
0.731199
0.731199
0.73124
0.73124
0.731283
0.731283
0.731326
0.731326
0.731365
0.731365
0.731446
0.731446
0.731446
0.731471
0.731471
0.731582
0.731627
0.731674
0.731674
0.73168
0.73168
0.731811
0.731888
0.731888
0.731888
0.732037
0.732122
0.732122
0.732281
0.732357
0.732357
0.732522
0.73259
0.732753
0.73295
0.733083
0.733217
0.733466
0.733558
0.733803
0.734065
0.734321
0.734711
0.735107
0.735626
0.73621
0.736945
0.73794
0.739079
0.740633
0.74342
0.744967
0.762916
1.23047
217.37
0.782076
0.752537
0.742827
0.73846
0.736043
0.73457
0.73358
0.732897
0.732383
0.732008
0.731699
0.73147
0.731262
0.731109
0.73098
0.73088
0.730783
0.730712
0.730639
0.730587
0.730526
0.73049
0.730454
0.730429
0.730392
0.730379
0.730362
0.73035
0.730323
0.730331
0.73033
0.730332
0.730323
0.730334
0.730334
0.730343
0.730336
0.73037
0.73037
0.73039
0.73039
0.730412
0.730412
0.730453
0.730453
0.730496
0.730496
0.73054
0.73054
0.730579
0.730578
0.73066
0.73066
0.73066
0.730686
0.730685
0.730797
0.730843
0.730891
0.730891
0.730897
0.730897
0.731028
0.731106
0.731106
0.731106
0.731256
0.731343
0.731343
0.731503
0.73158
0.73158
0.731747
0.731816
0.73198
0.732179
0.732313
0.732448
0.732699
0.732793
0.73304
0.733305
0.733562
0.733955
0.734354
0.734877
0.735464
0.736204
0.737203
0.738351
0.739902
0.742719
0.744231
0.762421
1.24103
216.68
0.781869
0.752026
0.742165
0.737715
0.735248
0.733742
0.732729
0.73203
0.731503
0.731119
0.730803
0.730568
0.730355
0.730197
0.730065
0.729962
0.729863
0.729789
0.729714
0.729661
0.729598
0.729561
0.729524
0.729498
0.72946
0.729446
0.729428
0.729417
0.729388
0.729395
0.729395
0.729396
0.729386
0.729397
0.729397
0.729406
0.729398
0.729432
0.729432
0.729452
0.729452
0.729474
0.729474
0.729514
0.729514
0.729557
0.729557
0.729602
0.729602
0.729641
0.729641
0.729723
0.729723
0.729723
0.729749
0.729749
0.729861
0.729908
0.729957
0.729957
0.729963
0.729962
0.730094
0.730175
0.730175
0.730175
0.730325
0.730414
0.730414
0.730574
0.730654
0.730655
0.730821
0.730894
0.731058
0.731258
0.731395
0.731531
0.731784
0.731881
0.732129
0.732397
0.732657
0.733053
0.733456
0.733983
0.734574
0.73532
0.736322
0.737481
0.73903
0.741881
0.743352
0.761828
1.25382
216.755
0.78163
0.751435
0.741396
0.73685
0.734324
0.732779
0.73174
0.731021
0.73048
0.730084
0.729759
0.729517
0.729298
0.729137
0.729
0.728893
0.728791
0.728716
0.728638
0.728583
0.728518
0.72848
0.728441
0.728415
0.728375
0.728361
0.728342
0.72833
0.728301
0.728307
0.728306
0.728307
0.728297
0.728307
0.728307
0.728315
0.728307
0.72834
0.72834
0.72836
0.72836
0.728382
0.728382
0.728422
0.728422
0.728465
0.728465
0.72851
0.72851
0.728549
0.728549
0.728632
0.728632
0.728632
0.728659
0.728658
0.728771
0.72882
0.72887
0.728871
0.728875
0.728875
0.729007
0.72909
0.72909
0.72909
0.72924
0.729333
0.729333
0.729493
0.729577
0.729577
0.729745
0.72982
0.729985
0.730186
0.730326
0.730464
0.730718
0.730819
0.731069
0.731341
0.731604
0.732003
0.732409
0.732941
0.733537
0.734289
0.735295
0.736467
0.738012
0.740904
0.742326
0.761134
1.269
217.497
0.781359
0.750761
0.74052
0.735862
0.733269
0.73168
0.73061
0.729869
0.729311
0.728903
0.728567
0.728317
0.728092
0.727924
0.727783
0.727672
0.727567
0.727489
0.727408
0.727351
0.727284
0.727245
0.727204
0.727176
0.727136
0.72712
0.7271
0.727087
0.727057
0.727063
0.727062
0.727062
0.727051
0.727061
0.727061
0.727068
0.727059
0.727093
0.727093
0.727112
0.727112
0.727134
0.727134
0.727174
0.727174
0.727217
0.727217
0.727263
0.727263
0.727302
0.727302
0.727385
0.727385
0.727385
0.727412
0.727412
0.727526
0.727576
0.727627
0.727629
0.727632
0.727632
0.727765
0.727851
0.727851
0.727851
0.728001
0.728096
0.728096
0.728258
0.728345
0.728345
0.728513
0.728592
0.728758
0.728961
0.729104
0.729243
0.7295
0.729605
0.729857
0.730133
0.730399
0.730802
0.731212
0.73175
0.732351
0.733111
0.734121
0.735306
0.736847
0.739784
0.741152
0.760337
1.28668
218.781
0.781058
0.750007
0.739535
0.734752
0.732082
0.730443
0.729338
0.728571
0.727994
0.727572
0.727225
0.726966
0.726732
0.726559
0.726411
0.726297
0.726188
0.726106
0.726022
0.725963
0.725894
0.725852
0.72581
0.725781
0.725739
0.725722
0.725701
0.725687
0.725656
0.725661
0.72566
0.725659
0.725647
0.725657
0.725657
0.725663
0.725653
0.725686
0.725686
0.725706
0.725706
0.725727
0.725727
0.725767
0.725767
0.72581
0.72581
0.725856
0.725856
0.725896
0.725896
0.72598
0.72598
0.72598
0.726008
0.726007
0.726122
0.726174
0.726226
0.726228
0.726231
0.726231
0.726364
0.726453
0.726454
0.726454
0.726604
0.726703
0.726703
0.726865
0.726956
0.726956
0.727125
0.727207
0.727375
0.72758
0.727726
0.727867
0.728127
0.728236
0.72849
0.72877
0.729041
0.729448
0.729862
0.730406
0.731012
0.731781
0.732795
0.733996
0.735532
0.738518
0.739826
0.759434
1.30701
220.464
0.780726
0.749171
0.738442
0.733518
0.730761
0.729066
0.727921
0.727127
0.726528
0.726089
0.725729
0.72546
0.725218
0.725037
0.724884
0.724764
0.724651
0.724565
0.724478
0.724416
0.724345
0.724301
0.724257
0.724226
0.724182
0.724164
0.724142
0.724127
0.724095
0.724099
0.724097
0.724095
0.724083
0.724092
0.724092
0.724097
0.724087
0.724119
0.724119
0.724138
0.724138
0.724159
0.724159
0.724199
0.724199
0.724242
0.724242
0.724289
0.724289
0.724328
0.724328
0.724414
0.724414
0.724414
0.724442
0.724442
0.724557
0.724612
0.724664
0.724667
0.72467
0.724669
0.724803
0.724896
0.724896
0.724896
0.725046
0.72515
0.72515
0.725312
0.725408
0.725408
0.725578
0.725664
0.725833
0.72604
0.726189
0.726332
0.726595
0.72671
0.726966
0.727251
0.727525
0.727937
0.728356
0.728906
0.729519
0.730296
0.731315
0.732533
0.734064
0.737103
0.738345
0.758421
1.33011
222.393
0.780365
0.748253
0.73724
0.732159
0.729306
0.727548
0.726359
0.725533
0.72491
0.724453
0.724079
0.723798
0.723546
0.723357
0.723197
0.723072
0.722954
0.722864
0.722774
0.722709
0.722634
0.722588
0.722541
0.722509
0.722463
0.722444
0.72242
0.722405
0.722371
0.722374
0.722372
0.722369
0.722355
0.722364
0.722363
0.722368
0.722357
0.722388
0.722388
0.722408
0.722408
0.722428
0.722428
0.722467
0.722467
0.722511
0.722511
0.722558
0.722558
0.722598
0.722598
0.722684
0.722684
0.722684
0.722713
0.722713
0.722829
0.722886
0.72294
0.722943
0.722945
0.722945
0.723079
0.723176
0.723176
0.723176
0.723326
0.723434
0.723434
0.723597
0.723698
0.723698
0.723869
0.723959
0.72413
0.724339
0.724492
0.724637
0.724904
0.725023
0.725282
0.725572
0.725851
0.726268
0.726691
0.727249
0.727868
0.728655
0.729679
0.730915
0.73244
0.735535
0.736706
0.757296
1.3561
224.417
0.779975
0.747255
0.735928
0.730673
0.727715
0.725887
0.72465
0.723789
0.723139
0.722662
0.722271
0.721977
0.721715
0.721518
0.72135
0.721219
0.721095
0.721001
0.720906
0.720838
0.72076
0.720711
0.720662
0.720627
0.72058
0.720559
0.720534
0.720517
0.720482
0.720484
0.720481
0.720477
0.720462
0.72047
0.72047
0.720474
0.720461
0.720492
0.720492
0.720511
0.720511
0.720531
0.720531
0.720569
0.720569
0.720613
0.720613
0.720661
0.720661
0.720701
0.720701
0.720789
0.720789
0.720789
0.720818
0.720818
0.720935
0.720995
0.721049
0.721054
0.721055
0.721055
0.721189
0.721291
0.721291
0.721291
0.721441
0.721554
0.721554
0.721717
0.721824
0.721824
0.721996
0.72209
0.722263
0.722474
0.722632
0.722779
0.723049
0.723174
0.723435
0.723731
0.724015
0.724437
0.724866
0.725431
0.726057
0.726855
0.727883
0.729139
0.730658
0.733813
0.734906
0.756054
1.38508
226.388
0.779557
0.746176
0.734507
0.729061
0.725986
0.724082
0.722791
0.721892
0.721213
0.720714
0.720305
0.719997
0.719723
0.719516
0.71934
0.719202
0.719072
0.718973
0.718874
0.718802
0.718721
0.718669
0.718617
0.71858
0.71853
0.718507
0.71848
0.718462
0.718426
0.718426
0.718423
0.718418
0.718402
0.718409
0.718408
0.718411
0.718397
0.718427
0.718427
0.718446
0.718446
0.718466
0.718465
0.718504
0.718504
0.718548
0.718548
0.718596
0.718596
0.718636
0.718636
0.718725
0.718725
0.718725
0.718755
0.718755
0.718873
0.718935
0.718991
0.718997
0.718997
0.718997
0.719132
0.719238
0.719238
0.719238
0.719389
0.719506
0.719506
0.71967
0.719783
0.719783
0.719956
0.720055
0.72023
0.720443
0.720605
0.720755
0.721028
0.72116
0.721424
0.721726
0.722014
0.722442
0.722877
0.72345
0.724083
0.724892
0.725925
0.727201
0.728714
0.731931
0.732943
0.75469
1.41714
228.171
0.779112
0.745016
0.732975
0.727322
0.72412
0.722132
0.720783
0.71984
0.71913
0.718606
0.718178
0.717854
0.717568
0.71735
0.717165
0.717019
0.716883
0.716778
0.716674
0.716598
0.716513
0.716458
0.716403
0.716363
0.716311
0.716286
0.716257
0.716238
0.716201
0.716199
0.716195
0.716189
0.716171
0.716178
0.716177
0.716178
0.716163
0.716192
0.716192
0.716211
0.716211
0.71623
0.716229
0.716267
0.716267
0.716311
0.716311
0.716361
0.716361
0.716401
0.716401
0.716491
0.716491
0.716491
0.716522
0.716522
0.716641
0.716706
0.716763
0.716769
0.716769
0.716769
0.716905
0.717015
0.717016
0.717016
0.717166
0.717289
0.717289
0.717454
0.717573
0.717573
0.717747
0.717851
0.718028
0.718244
0.718411
0.718563
0.71884
0.718978
0.719245
0.719553
0.719847
0.720281
0.720721
0.721304
0.721943
0.722764
0.723801
0.7251
0.726605
0.729887
0.730813
0.753199
1.45233
229.643
0.778641
0.743778
0.731333
0.725455
0.722114
0.720035
0.718622
0.717634
0.716889
0.716338
0.715888
0.715548
0.715247
0.715018
0.714823
0.714669
0.714525
0.714415
0.714305
0.714224
0.714135
0.714076
0.714018
0.713976
0.713922
0.713894
0.713863
0.713843
0.713804
0.7138
0.713795
0.713788
0.713769
0.713774
0.713774
0.713773
0.713756
0.713785
0.713785
0.713803
0.713803
0.713821
0.713821
0.713858
0.713858
0.713902
0.713902
0.713952
0.713952
0.713993
0.713993
0.714084
0.714084
0.714084
0.714116
0.714116
0.714236
0.714304
0.714362
0.714369
0.714369
0.714369
0.714505
0.71462
0.714621
0.714621
0.714771
0.7149
0.7149
0.715066
0.715192
0.715192
0.715366
0.715476
0.715655
0.715873
0.716045
0.716201
0.716482
0.716627
0.716897
0.717211
0.717511
0.71795
0.718397
0.718988
0.719635
0.720468
0.72151
0.722831
0.724329
0.727677
0.728513
0.751577
1.49067
230.695
0.778145
0.742461
0.729582
0.72346
0.719969
0.717791
0.716308
0.71527
0.714487
0.713907
0.713435
0.713076
0.71276
0.712518
0.712312
0.712149
0.711997
0.71188
0.711765
0.711679
0.711586
0.711523
0.711461
0.711416
0.711359
0.711329
0.711295
0.711273
0.711232
0.711228
0.71122
0.711212
0.711192
0.711196
0.711196
0.711194
0.711175
0.711203
0.711202
0.71122
0.71122
0.711238
0.711237
0.711274
0.711274
0.711318
0.711318
0.711369
0.711369
0.71141
0.711409
0.711502
0.711502
0.711502
0.711534
0.711534
0.711655
0.711727
0.711787
0.711793
0.711793
0.711793
0.71193
0.71205
0.712052
0.712052
0.712202
0.712337
0.712337
0.712503
0.712637
0.712637
0.712812
0.712927
0.713109
0.713329
0.713507
0.713665
0.71395
0.714102
0.714376
0.714697
0.715002
0.715448
0.715901
0.716502
0.717156
0.718002
0.719048
0.720393
0.721882
0.725299
0.726041
0.749816
1.53215
231.239
0.777626
0.741066
0.72772
0.721336
0.717683
0.715398
0.71384
0.712748
0.711924
0.711313
0.710815
0.710436
0.710104
0.709848
0.70963
0.709458
0.709298
0.709174
0.709052
0.708961
0.708862
0.708795
0.708729
0.708681
0.708621
0.708588
0.708552
0.708528
0.708485
0.708479
0.70847
0.708461
0.708439
0.708442
0.708441
0.708438
0.708417
0.708444
0.708443
0.708461
0.708461
0.708478
0.708477
0.708512
0.708512
0.708556
0.708556
0.708608
0.708608
0.708649
0.708649
0.708743
0.708743
0.708743
0.708776
0.708776
0.708898
0.708973
0.709034
0.709041
0.709041
0.709041
0.709178
0.709304
0.709306
0.709306
0.709456
0.709597
0.709598
0.709764
0.709905
0.709905
0.710082
0.710202
0.710387
0.71061
0.710793
0.710954
0.711243
0.711403
0.71168
0.712008
0.71232
0.712772
0.713232
0.713842
0.714504
0.715363
0.716412
0.717782
0.719262
0.722748
0.723393
0.74791
1.5767
231.204
0.777084
0.739595
0.72575
0.719084
0.715256
0.712856
0.711217
0.710066
0.709198
0.708553
0.708028
0.707627
0.707277
0.707006
0.706776
0.706593
0.706424
0.706292
0.706163
0.706066
0.705963
0.705891
0.70582
0.705769
0.705705
0.70567
0.705631
0.705605
0.70556
0.705552
0.705541
0.705531
0.705507
0.705509
0.705508
0.705503
0.70548
0.705506
0.705505
0.705522
0.705522
0.705538
0.705537
0.705572
0.705572
0.705615
0.705615
0.705668
0.705668
0.705709
0.705709
0.705804
0.705804
0.705804
0.705838
0.705838
0.705962
0.70604
0.706102
0.70611
0.70611
0.70611
0.706247
0.706379
0.706382
0.706382
0.706531
0.706679
0.70668
0.706846
0.706996
0.706996
0.707173
0.707299
0.707486
0.707713
0.707902
0.708066
0.708359
0.708527
0.708807
0.709143
0.70946
0.70992
0.710385
0.711006
0.711675
0.712548
0.7136
0.714996
0.716466
0.720021
0.720566
0.745853
1.62418
230.54
0.776521
0.738049
0.723672
0.716703
0.712688
0.710163
0.708438
0.707224
0.706308
0.705626
0.705072
0.704648
0.704279
0.703992
0.703748
0.703554
0.703374
0.703234
0.703098
0.702995
0.702885
0.702809
0.702734
0.702678
0.702611
0.702573
0.702531
0.702503
0.702456
0.702445
0.702432
0.702421
0.702396
0.702396
0.702394
0.702388
0.702363
0.702387
0.702386
0.702402
0.702402
0.702418
0.702416
0.70245
0.70245
0.702493
0.702493
0.702547
0.702547
0.702588
0.702588
0.702684
0.702685
0.702684
0.702719
0.702719
0.702844
0.702925
0.702989
0.702998
0.702998
0.702998
0.703135
0.703272
0.703276
0.703276
0.703425
0.703581
0.703581
0.703748
0.703906
0.703906
0.704084
0.704216
0.704406
0.704636
0.704831
0.704998
0.705296
0.705472
0.705755
0.706098
0.706422
0.706889
0.707361
0.707991
0.708668
0.709554
0.710609
0.712031
0.713491
0.717114
0.717558
0.743635
1.6744
229.202
0.775938
0.73643
0.721486
0.714194
0.709979
0.707321
0.705502
0.704221
0.703253
0.702532
0.701946
0.701497
0.701107
0.700803
0.700544
0.700338
0.700148
0.699999
0.699854
0.699745
0.699629
0.699547
0.699467
0.699407
0.699336
0.699294
0.699249
0.699219
0.699169
0.699156
0.699142
0.699129
0.699102
0.699101
0.699097
0.69909
0.699062
0.699085
0.699084
0.6991
0.6991
0.699114
0.699112
0.699145
0.699145
0.699188
0.699188
0.699242
0.699242
0.699284
0.699283
0.699381
0.699381
0.699381
0.699417
0.699417
0.699542
0.699628
0.699693
0.699702
0.699703
0.699702
0.69984
0.699983
0.699988
0.699988
0.700136
0.700299
0.7003
0.700466
0.700633
0.700634
0.700813
0.700951
0.701144
0.701376
0.701577
0.701749
0.70205
0.702234
0.702521
0.702872
0.703202
0.703676
0.704155
0.704795
0.705479
0.70638
0.707437
0.708885
0.710334
0.714025
0.714366
0.74125
1.72706
227.173
0.775337
0.734739
0.719194
0.711558
0.707128
0.704328
0.702409
0.701055
0.700032
0.699268
0.698649
0.698173
0.69776
0.697438
0.697163
0.696944
0.696742
0.696584
0.696431
0.696314
0.696191
0.696103
0.696018
0.695954
0.695879
0.695834
0.695785
0.695752
0.6957
0.695684
0.695667
0.695653
0.695625
0.695622
0.695617
0.695608
0.695578
0.6956
0.695598
0.695613
0.695613
0.695627
0.695624
0.695655
0.695655
0.695697
0.695697
0.695753
0.695753
0.695794
0.695794
0.695893
0.695893
0.695893
0.695929
0.695929
0.696056
0.696146
0.696212
0.696222
0.696222
0.696222
0.696359
0.696509
0.696515
0.696515
0.696662
0.696833
0.696834
0.697001
0.697176
0.697178
0.697357
0.697501
0.697698
0.697933
0.69814
0.698315
0.69862
0.698814
0.699104
0.699462
0.699799
0.700281
0.700765
0.701416
0.702107
0.703022
0.70408
0.705555
0.706992
0.710749
0.710988
0.738688
1.78179
224.45
0.77472
0.732978
0.716796
0.708795
0.704136
0.701184
0.699158
0.697726
0.696644
0.695835
0.69518
0.694675
0.694238
0.693896
0.693604
0.693371
0.693157
0.692988
0.692826
0.692701
0.692571
0.692477
0.692386
0.692318
0.692238
0.692188
0.692136
0.6921
0.692045
0.692026
0.692008
0.691992
0.691961
0.691957
0.691951
0.691941
0.691908
0.691928
0.691926
0.69194
0.69194
0.691952
0.691949
0.691979
0.691979
0.69202
0.69202
0.692076
0.692076
0.692118
0.692118
0.692218
0.692218
0.692218
0.692255
0.692255
0.692383
0.692476
0.692544
0.692555
0.692555
0.692555
0.692692
0.692848
0.692856
0.692855
0.693002
0.69318
0.693182
0.693348
0.693533
0.693535
0.693715
0.693865
0.694065
0.694304
0.694517
0.694696
0.695005
0.695207
0.695501
0.695867
0.69621
0.696699
0.69719
0.697851
0.698549
0.699479
0.700537
0.702038
0.703463
0.707284
0.70742
0.73594
1.8381
221.043
0.774089
0.73115
0.714296
0.705905
0.701004
0.697889
0.695749
0.694234
0.693089
0.692232
0.691537
0.691002
0.69054
0.690176
0.689866
0.689618
0.689391
0.689211
0.689038
0.688905
0.688768
0.688667
0.688569
0.688496
0.688412
0.688358
0.688302
0.688263
0.688204
0.688183
0.688161
0.688144
0.688111
0.688105
0.688097
0.688086
0.68805
0.688069
0.688066
0.688079
0.688079
0.68809
0.688086
0.688115
0.688115
0.688155
0.688155
0.688212
0.688212
0.688254
0.688254
0.688355
0.688355
0.688355
0.688393
0.688393
0.688521
0.688619
0.688688
0.6887
0.6887
0.688699
0.688837
0.688999
0.689008
0.689008
0.689153
0.689339
0.689342
0.689508
0.689701
0.689705
0.689886
0.690042
0.690245
0.690486
0.690706
0.690889
0.691202
0.691413
0.69171
0.692084
0.692434
0.692931
0.693427
0.694099
0.694802
0.695747
0.696805
0.698333
0.699745
0.703626
0.70366
0.732996
1.89539
216.974
0.773444
0.729256
0.711693
0.702891
0.697731
0.694443
0.692182
0.690578
0.689366
0.688457
0.687721
0.687153
0.686663
0.686277
0.685948
0.685683
0.685442
0.685251
0.685067
0.684925
0.684779
0.684671
0.684567
0.684488
0.684399
0.684341
0.68428
0.684238
0.684176
0.684151
0.684127
0.684108
0.684073
0.684065
0.684055
0.684042
0.684004
0.684021
0.684017
0.684029
0.684029
0.684039
0.684034
0.684062
0.684061
0.6841
0.6841
0.684158
0.684158
0.6842
0.684199
0.684302
0.684302
0.684302
0.684341
0.68434
0.68447
0.684571
0.684641
0.684655
0.684655
0.684654
0.684791
0.684961
0.68497
0.68497
0.685114
0.685309
0.685313
0.685477
0.68568
0.685685
0.685866
0.686028
0.686235
0.68648
0.686706
0.686893
0.687209
0.68743
0.68773
0.688112
0.688468
0.688973
0.689475
0.690157
0.690866
0.691826
0.692882
0.694436
0.695834
0.699772
0.699706
0.729845
1.95297
212.276
0.772789
0.727299
0.70899
0.699753
0.694318
0.690848
0.688457
0.686759
0.685475
0.684511
0.683731
0.683127
0.682609
0.682198
0.681848
0.681567
0.68131
0.681106
0.680911
0.68076
0.680605
0.68049
0.680378
0.680294
0.680199
0.680135
0.68007
0.680025
0.679959
0.679931
0.679904
0.679882
0.679845
0.679835
0.679824
0.679809
0.679768
0.679782
0.679778
0.679789
0.679789
0.679798
0.679791
0.679818
0.679817
0.679855
0.679855
0.679913
0.679913
0.679955
0.679954
0.680058
0.680058
0.680058
0.680097
0.680097
0.680228
0.680333
0.680404
0.680419
0.680419
0.680418
0.680555
0.680731
0.680742
0.680742
0.680884
0.681087
0.681092
0.681256
0.681468
0.681475
0.681656
0.681824
0.682034
0.682282
0.682515
0.682706
0.683026
0.683256
0.683559
0.683949
0.684311
0.684824
0.685331
0.686023
0.686738
0.687712
0.688765
0.690345
0.691729
0.69572
0.695555
0.726478
2.00999
206.99
0.772124
0.725282
0.70619
0.696493
0.690768
0.687103
0.684574
0.682776
0.681416
0.680393
0.679566
0.678925
0.678375
0.677939
0.677567
0.677267
0.676995
0.676777
0.67657
0.676408
0.676244
0.676121
0.676002
0.675911
0.67581
0.675742
0.675671
0.675622
0.675553
0.675521
0.67549
0.675466
0.675427
0.675415
0.675401
0.675385
0.675341
0.675353
0.675348
0.675358
0.675358
0.675365
0.675357
0.675382
0.675381
0.675417
0.675417
0.675475
0.675475
0.675518
0.675517
0.675621
0.675621
0.675621
0.675662
0.675661
0.675793
0.675902
0.675974
0.67599
0.67599
0.67599
0.676126
0.676308
0.676321
0.676321
0.676462
0.676672
0.67668
0.676842
0.677063
0.677072
0.677254
0.677427
0.677641
0.677892
0.678131
0.678327
0.67865
0.678889
0.679196
0.679593
0.679962
0.680482
0.680994
0.681696
0.682415
0.683404
0.684454
0.686059
0.687428
0.691467
0.691205
0.722882
2.0655
201.162
0.771452
0.723207
0.703294
0.693112
0.68708
0.683209
0.680534
0.67863
0.677189
0.676104
0.675227
0.674546
0.673963
0.6735
0.673104
0.672785
0.672495
0.672263
0.672043
0.67187
0.671696
0.671564
0.671437
0.671339
0.671232
0.671158
0.671083
0.671029
0.670956
0.67092
0.670886
0.67086
0.670818
0.670803
0.670787
0.670769
0.670723
0.670732
0.670725
0.670735
0.670734
0.67074
0.670731
0.670754
0.670752
0.670787
0.670787
0.670845
0.670845
0.670887
0.670887
0.670992
0.670992
0.670992
0.671033
0.671032
0.671164
0.671278
0.671351
0.671368
0.671368
0.671368
0.671503
0.671692
0.671707
0.671707
0.671846
0.672064
0.672075
0.672235
0.672464
0.672476
0.672658
0.672837
0.673054
0.673308
0.673554
0.673754
0.67408
0.674329
0.674639
0.675043
0.675418
0.675945
0.676463
0.677175
0.677898
0.6789
0.679945
0.681575
0.682928
0.687011
0.686656
0.719045
2.11844
194.845
0.770775
0.721079
0.700306
0.689613
0.683257
0.679168
0.676339
0.674321
0.672794
0.671643
0.670713
0.66999
0.669372
0.668879
0.668458
0.668118
0.66781
0.667563
0.667329
0.667145
0.66696
0.666819
0.666683
0.666578
0.666464
0.666385
0.666304
0.666246
0.666168
0.666127
0.66609
0.666061
0.666016
0.665999
0.665981
0.665961
0.665912
0.665919
0.665911
0.665918
0.665918
0.665922
0.665912
0.665933
0.66593
0.665963
0.665963
0.666021
0.666021
0.666063
0.666063
0.666168
0.666168
0.666168
0.66621
0.666209
0.666342
0.666459
0.666533
0.666552
0.666552
0.666552
0.666686
0.666882
0.666899
0.666898
0.667036
0.667261
0.667275
0.667433
0.667671
0.667686
0.667869
0.668052
0.668273
0.66853
0.668782
0.668987
0.669315
0.669573
0.669886
0.670298
0.670679
0.671214
0.671735
0.672457
0.673183
0.674198
0.675238
0.676891
0.678227
0.68235
0.681905
0.714957
2.16766
188.095
0.770094
0.718899
0.697228
0.685999
0.679301
0.674981
0.671988
0.669851
0.668233
0.667012
0.666025
0.665257
0.664602
0.664078
0.663631
0.663269
0.662941
0.662678
0.662429
0.662232
0.662036
0.661885
0.66174
0.661628
0.661507
0.661421
0.661334
0.661271
0.661188
0.661144
0.661102
0.66107
0.661023
0.661002
0.660981
0.66096
0.660908
0.660913
0.660903
0.660909
0.660909
0.660911
0.660898
0.660918
0.660914
0.660946
0.660944
0.661003
0.661003
0.661045
0.661045
0.66115
0.66115
0.66115
0.661192
0.661191
0.661325
0.661446
0.66152
0.661541
0.661541
0.661541
0.661675
0.661877
0.661895
0.661895
0.662031
0.662263
0.662281
0.662436
0.662682
0.662701
0.662884
0.663072
0.663296
0.663556
0.663815
0.664024
0.664355
0.664622
0.664938
0.665357
0.665743
0.666285
0.666811
0.667541
0.668269
0.669298
0.670331
0.672007
0.673325
0.677481
0.67695
0.710604
2.21192
180.97
0.769413
0.716671
0.694063
0.682271
0.675213
0.670649
0.667484
0.66522
0.663505
0.66221
0.661164
0.660348
0.659653
0.659097
0.658621
0.658236
0.657888
0.657607
0.657343
0.657132
0.656925
0.656763
0.656608
0.656488
0.656359
0.656266
0.656173
0.656105
0.656018
0.655968
0.655922
0.655887
0.655836
0.655813
0.655789
0.655766
0.655712
0.655713
0.655701
0.655706
0.655705
0.655705
0.655692
0.655709
0.655704
0.655734
0.655732
0.65579
0.65579
0.655832
0.655832
0.655937
0.655937
0.655937
0.655979
0.655979
0.656112
0.656237
0.656312
0.656335
0.656335
0.656334
0.656467
0.656676
0.656697
0.656696
0.65683
0.657069
0.657092
0.657244
0.657498
0.657521
0.657703
0.657895
0.658123
0.658386
0.658651
0.658865
0.659197
0.659474
0.659793
0.660219
0.66061
0.661159
0.661688
0.662427
0.663157
0.664198
0.665223
0.666919
0.66822
0.672404
0.671792
0.705976
2.24994
173.528
0.768732
0.714399
0.690815
0.678432
0.670995
0.666175
0.662827
0.66043
0.658613
0.657239
0.65613
0.655263
0.654526
0.653935
0.65343
0.65302
0.65265
0.65235
0.65207
0.651846
0.651625
0.651452
0.651287
0.651158
0.651021
0.650922
0.650821
0.650748
0.650655
0.650601
0.65055
0.650512
0.650458
0.650431
0.650404
0.650379
0.650323
0.65032
0.650307
0.65031
0.650309
0.650307
0.650291
0.650306
0.6503
0.650327
0.650324
0.650383
0.650383
0.650424
0.650424
0.650529
0.650529
0.650529
0.650571
0.650571
0.650705
0.650834
0.650909
0.650933
0.650933
0.650933
0.651064
0.651279
0.651302
0.651302
0.651433
0.651679
0.651707
0.651855
0.652116
0.652145
0.652326
0.652523
0.652754
0.65302
0.65329
0.653509
0.653843
0.654129
0.65445
0.654883
0.655279
0.655835
0.656366
0.657114
0.657844
0.658897
0.659913
0.661628
0.66291
0.667116
0.666429
0.70106
2.28044
165.827
0.768054
0.712088
0.687488
0.674487
0.666652
0.661561
0.658021
0.655482
0.653558
0.6521
0.650924
0.650004
0.649223
0.648595
0.648058
0.647621
0.647228
0.64691
0.646612
0.646373
0.646139
0.645954
0.645778
0.64564
0.645494
0.645387
0.645279
0.6452
0.645102
0.645042
0.644987
0.644944
0.644886
0.644856
0.644826
0.644799
0.64474
0.644735
0.644719
0.64472
0.644718
0.644714
0.644696
0.644709
0.644702
0.644727
0.644722
0.64478
0.64478
0.644822
0.644821
0.644926
0.644926
0.644926
0.644968
0.644968
0.645102
0.645234
0.645309
0.645336
0.645336
0.645335
0.645466
0.645687
0.645712
0.645711
0.645841
0.646092
0.646126
0.64627
0.646538
0.646573
0.646754
0.646954
0.647188
0.647456
0.647733
0.647956
0.648292
0.648587
0.64891
0.649349
0.649749
0.650311
0.650845
0.651601
0.652331
0.653395
0.6544
0.656132
0.657394
0.661616
0.66086
0.695846
2.30215
157.925
0.767382
0.709739
0.684085
0.670437
0.662184
0.65681
0.653066
0.650378
0.64834
0.646794
0.645548
0.644571
0.643743
0.643077
0.642506
0.642042
0.641624
0.641285
0.640969
0.640714