/*--------------------------------*- C++ -*----------------------------------*\
| =========                 |                                                 |
| \\      /  F ield         | OpenFOAM: The Open Source CFD Toolbox           |
|  \\    /   O peration     | Version:  v2012                                 |
|   \\  /    A nd           | Website:  www.openfoam.com                      |
|    \\/     M anipulation  |                                                 |
\*---------------------------------------------------------------------------*/
FoamFile
{
    version     2.0;
    format      ascii;
    class       volScalarField;
    location    "9";
    object      nut;
}
// * * * * * * * * * * * * * * * * * * * * * * * * * * * * * * * * * * * * * //

dimensions      [0 2 -1 0 0 0 0];


internalField   nonuniform List<scalar> 
209825
(
1.20611e-07
1.14178e-07
1.10603e-07
1.08439e-07
1.06969e-07
1.05914e-07
1.05108e-07
1.04488e-07
1.03982e-07
1.03581e-07
1.03236e-07
1.0296e-07
1.02712e-07
1.0251e-07
1.02331e-07
1.02184e-07
1.02046e-07
1.01935e-07
1.01826e-07
1.01741e-07
1.01653e-07
1.01585e-07
1.01519e-07
1.01469e-07
1.01413e-07
1.01376e-07
1.01334e-07
1.01308e-07
1.01268e-07
1.01253e-07
1.01239e-07
1.01223e-07
1.01205e-07
1.01189e-07
1.01166e-07
1.01156e-07
1.01148e-07
1.01136e-07
1.01127e-07
1.01115e-07
1.01097e-07
1.01086e-07
1.0108e-07
1.01069e-07
1.01059e-07
1.01047e-07
1.01041e-07
1.0102e-07
1.01019e-07
1.0101e-07
1.00997e-07
1.00998e-07
1.00998e-07
1.00998e-07
1.00986e-07
1.01008e-07
1.00993e-07
1.00987e-07
1.00978e-07
1.00996e-07
1.00995e-07
1.00994e-07
1.01016e-07
1.01042e-07
1.01041e-07
1.01041e-07
1.01061e-07
1.01099e-07
1.011e-07
1.01078e-07
1.01106e-07
1.0116e-07
1.01194e-07
1.01238e-07
1.01263e-07
1.01238e-07
1.01263e-07
1.01305e-07
1.01356e-07
1.01412e-07
1.01469e-07
1.01518e-07
1.01552e-07
1.01602e-07
1.01683e-07
1.01772e-07
1.01869e-07
1.01997e-07
1.02125e-07
1.02327e-07
1.02448e-07
1.02954e-07
1.03018e-07
1.04209e-07
3.75056e-07
6.10054e-10
1.20612e-07
1.14179e-07
1.10604e-07
1.08439e-07
1.06969e-07
1.05913e-07
1.05107e-07
1.04486e-07
1.03981e-07
1.03579e-07
1.03234e-07
1.02958e-07
1.0271e-07
1.02507e-07
1.02328e-07
1.02182e-07
1.02044e-07
1.01933e-07
1.01824e-07
1.01738e-07
1.0165e-07
1.01582e-07
1.01516e-07
1.01466e-07
1.0141e-07
1.01372e-07
1.01331e-07
1.01304e-07
1.01265e-07
1.01249e-07
1.01236e-07
1.0122e-07
1.01201e-07
1.01185e-07
1.01163e-07
1.01152e-07
1.01145e-07
1.01133e-07
1.01123e-07
1.01111e-07
1.01094e-07
1.01083e-07
1.01077e-07
1.01066e-07
1.01056e-07
1.01044e-07
1.01037e-07
1.01017e-07
1.01015e-07
1.01006e-07
1.00994e-07
1.00995e-07
1.00995e-07
1.00995e-07
1.00983e-07
1.01005e-07
1.0099e-07
1.00984e-07
1.00974e-07
1.00992e-07
1.00991e-07
1.00991e-07
1.01012e-07
1.01038e-07
1.01038e-07
1.01038e-07
1.01057e-07
1.01096e-07
1.01096e-07
1.01074e-07
1.01102e-07
1.01157e-07
1.01191e-07
1.01235e-07
1.01259e-07
1.01234e-07
1.0126e-07
1.01302e-07
1.01352e-07
1.01408e-07
1.01466e-07
1.01514e-07
1.01548e-07
1.01599e-07
1.0168e-07
1.01769e-07
1.01866e-07
1.01994e-07
1.02122e-07
1.02324e-07
1.02445e-07
1.02951e-07
1.03014e-07
1.04207e-07
3.7539e-07
6.22563e-10
1.20617e-07
1.14184e-07
1.10607e-07
1.08439e-07
1.06968e-07
1.05911e-07
1.05103e-07
1.04482e-07
1.03975e-07
1.03573e-07
1.03227e-07
1.0295e-07
1.02702e-07
1.02499e-07
1.02319e-07
1.02172e-07
1.02034e-07
1.01923e-07
1.01813e-07
1.01727e-07
1.01639e-07
1.01572e-07
1.01505e-07
1.01455e-07
1.01399e-07
1.01361e-07
1.0132e-07
1.01293e-07
1.01253e-07
1.01238e-07
1.01224e-07
1.01208e-07
1.01189e-07
1.01173e-07
1.01151e-07
1.0114e-07
1.01133e-07
1.0112e-07
1.01111e-07
1.01099e-07
1.01081e-07
1.0107e-07
1.01064e-07
1.01053e-07
1.01043e-07
1.01031e-07
1.01025e-07
1.01004e-07
1.01003e-07
1.00994e-07
1.00981e-07
1.00982e-07
1.00982e-07
1.00982e-07
1.0097e-07
1.00992e-07
1.00977e-07
1.00971e-07
1.00961e-07
1.00979e-07
1.00978e-07
1.00978e-07
1.00999e-07
1.01025e-07
1.01025e-07
1.01025e-07
1.01044e-07
1.01083e-07
1.01083e-07
1.01061e-07
1.01089e-07
1.01144e-07
1.01178e-07
1.01222e-07
1.01246e-07
1.01221e-07
1.01247e-07
1.01289e-07
1.01339e-07
1.01395e-07
1.01453e-07
1.01501e-07
1.01535e-07
1.01586e-07
1.01667e-07
1.01756e-07
1.01853e-07
1.01981e-07
1.02109e-07
1.02311e-07
1.02432e-07
1.02938e-07
1.03002e-07
1.04198e-07
3.76306e-07
6.41516e-10
1.20624e-07
1.14192e-07
1.10611e-07
1.08441e-07
1.06966e-07
1.05907e-07
1.05097e-07
1.04474e-07
1.03966e-07
1.03562e-07
1.03216e-07
1.02938e-07
1.02689e-07
1.02485e-07
1.02305e-07
1.02157e-07
1.02018e-07
1.01906e-07
1.01797e-07
1.0171e-07
1.01622e-07
1.01554e-07
1.01487e-07
1.01437e-07
1.01381e-07
1.01342e-07
1.01301e-07
1.01274e-07
1.01234e-07
1.01218e-07
1.01204e-07
1.01188e-07
1.01169e-07
1.01153e-07
1.0113e-07
1.0112e-07
1.01112e-07
1.011e-07
1.01091e-07
1.01078e-07
1.01061e-07
1.0105e-07
1.01044e-07
1.01032e-07
1.01022e-07
1.01011e-07
1.01004e-07
1.00983e-07
1.00982e-07
1.00973e-07
1.0096e-07
1.00961e-07
1.00961e-07
1.00961e-07
1.00949e-07
1.00971e-07
1.00956e-07
1.00949e-07
1.0094e-07
1.00958e-07
1.00957e-07
1.00956e-07
1.00978e-07
1.01003e-07
1.01003e-07
1.01003e-07
1.01023e-07
1.01062e-07
1.01062e-07
1.0104e-07
1.01067e-07
1.01122e-07
1.01156e-07
1.012e-07
1.01225e-07
1.012e-07
1.01225e-07
1.01267e-07
1.01318e-07
1.01374e-07
1.01431e-07
1.0148e-07
1.01514e-07
1.01565e-07
1.01646e-07
1.01735e-07
1.01832e-07
1.0196e-07
1.02087e-07
1.0229e-07
1.02411e-07
1.02916e-07
1.0298e-07
1.04181e-07
3.7779e-07
6.65219e-10
1.20635e-07
1.14203e-07
1.10618e-07
1.08443e-07
1.06964e-07
1.05901e-07
1.05089e-07
1.04463e-07
1.03953e-07
1.03548e-07
1.03199e-07
1.0292e-07
1.0267e-07
1.02465e-07
1.02284e-07
1.02135e-07
1.01996e-07
1.01884e-07
1.01773e-07
1.01686e-07
1.01598e-07
1.01529e-07
1.01462e-07
1.01411e-07
1.01355e-07
1.01316e-07
1.01274e-07
1.01247e-07
1.01207e-07
1.01191e-07
1.01176e-07
1.0116e-07
1.01141e-07
1.01125e-07
1.01102e-07
1.01091e-07
1.01084e-07
1.01071e-07
1.01062e-07
1.0105e-07
1.01032e-07
1.01021e-07
1.01015e-07
1.01003e-07
1.00993e-07
1.00981e-07
1.00975e-07
1.00954e-07
1.00952e-07
1.00943e-07
1.0093e-07
1.00931e-07
1.00931e-07
1.00931e-07
1.00919e-07
1.00941e-07
1.00926e-07
1.00919e-07
1.0091e-07
1.00927e-07
1.00927e-07
1.00926e-07
1.00948e-07
1.00973e-07
1.00973e-07
1.00973e-07
1.00992e-07
1.01031e-07
1.01031e-07
1.01009e-07
1.01037e-07
1.01092e-07
1.01126e-07
1.0117e-07
1.01195e-07
1.0117e-07
1.01195e-07
1.01237e-07
1.01287e-07
1.01343e-07
1.01401e-07
1.0145e-07
1.01484e-07
1.01535e-07
1.01616e-07
1.01705e-07
1.01802e-07
1.0193e-07
1.02058e-07
1.0226e-07
1.02381e-07
1.02886e-07
1.0295e-07
1.04157e-07
3.79867e-07
6.93023e-10
1.20649e-07
1.14218e-07
1.10627e-07
1.08445e-07
1.06961e-07
1.05894e-07
1.05078e-07
1.04449e-07
1.03936e-07
1.03529e-07
1.03178e-07
1.02897e-07
1.02646e-07
1.02439e-07
1.02257e-07
1.02108e-07
1.01967e-07
1.01854e-07
1.01743e-07
1.01655e-07
1.01566e-07
1.01497e-07
1.01429e-07
1.01378e-07
1.01321e-07
1.01282e-07
1.0124e-07
1.01212e-07
1.01172e-07
1.01155e-07
1.01141e-07
1.01124e-07
1.01105e-07
1.01089e-07
1.01066e-07
1.01055e-07
1.01047e-07
1.01034e-07
1.01025e-07
1.01012e-07
1.00994e-07
1.00983e-07
1.00977e-07
1.00966e-07
1.00955e-07
1.00943e-07
1.00937e-07
1.00916e-07
1.00914e-07
1.00905e-07
1.00892e-07
1.00893e-07
1.00893e-07
1.00892e-07
1.0088e-07
1.00902e-07
1.00887e-07
1.00881e-07
1.00871e-07
1.00888e-07
1.00888e-07
1.00887e-07
1.00909e-07
1.00934e-07
1.00934e-07
1.00934e-07
1.00953e-07
1.00992e-07
1.00992e-07
1.0097e-07
1.00998e-07
1.01052e-07
1.01087e-07
1.0113e-07
1.01156e-07
1.01131e-07
1.01156e-07
1.01198e-07
1.01248e-07
1.01304e-07
1.01362e-07
1.01411e-07
1.01445e-07
1.01496e-07
1.01577e-07
1.01666e-07
1.01763e-07
1.01892e-07
1.02019e-07
1.02222e-07
1.02343e-07
1.02847e-07
1.0291e-07
1.04125e-07
3.82565e-07
7.24651e-10
1.20666e-07
1.14237e-07
1.10638e-07
1.08448e-07
1.06958e-07
1.05885e-07
1.05064e-07
1.04432e-07
1.03916e-07
1.03505e-07
1.03153e-07
1.02869e-07
1.02616e-07
1.02408e-07
1.02224e-07
1.02073e-07
1.01932e-07
1.01818e-07
1.01706e-07
1.01617e-07
1.01527e-07
1.01457e-07
1.01389e-07
1.01337e-07
1.0128e-07
1.0124e-07
1.01197e-07
1.01169e-07
1.01128e-07
1.01112e-07
1.01097e-07
1.0108e-07
1.01061e-07
1.01044e-07
1.01021e-07
1.0101e-07
1.01002e-07
1.00989e-07
1.00979e-07
1.00967e-07
1.00948e-07
1.00937e-07
1.00931e-07
1.00919e-07
1.00909e-07
1.00897e-07
1.0089e-07
1.00869e-07
1.00867e-07
1.00858e-07
1.00845e-07
1.00845e-07
1.00845e-07
1.00845e-07
1.00833e-07
1.00855e-07
1.00839e-07
1.00833e-07
1.00823e-07
1.0084e-07
1.0084e-07
1.00839e-07
1.00861e-07
1.00886e-07
1.00886e-07
1.00886e-07
1.00905e-07
1.00944e-07
1.00944e-07
1.00922e-07
1.00949e-07
1.01004e-07
1.01039e-07
1.01082e-07
1.01108e-07
1.01083e-07
1.01108e-07
1.0115e-07
1.012e-07
1.01256e-07
1.01314e-07
1.01363e-07
1.01398e-07
1.01448e-07
1.01529e-07
1.01619e-07
1.01715e-07
1.01844e-07
1.01971e-07
1.02174e-07
1.02296e-07
1.02798e-07
1.02862e-07
1.04086e-07
3.85912e-07
7.60033e-10
1.20686e-07
1.14259e-07
1.10651e-07
1.08452e-07
1.06954e-07
1.05875e-07
1.05049e-07
1.04411e-07
1.03891e-07
1.03478e-07
1.03122e-07
1.02836e-07
1.0258e-07
1.02371e-07
1.02185e-07
1.02033e-07
1.0189e-07
1.01774e-07
1.01661e-07
1.01572e-07
1.01481e-07
1.0141e-07
1.01341e-07
1.01289e-07
1.0123e-07
1.0119e-07
1.01147e-07
1.01118e-07
1.01077e-07
1.0106e-07
1.01044e-07
1.01027e-07
1.01008e-07
1.00991e-07
1.00967e-07
1.00956e-07
1.00948e-07
1.00935e-07
1.00924e-07
1.00912e-07
1.00893e-07
1.00882e-07
1.00875e-07
1.00864e-07
1.00853e-07
1.00841e-07
1.00834e-07
1.00814e-07
1.00811e-07
1.00802e-07
1.00788e-07
1.00789e-07
1.00789e-07
1.00788e-07
1.00776e-07
1.00798e-07
1.00782e-07
1.00776e-07
1.00766e-07
1.00783e-07
1.00782e-07
1.00782e-07
1.00804e-07
1.00829e-07
1.00829e-07
1.00828e-07
1.00847e-07
1.00887e-07
1.00887e-07
1.00865e-07
1.00891e-07
1.00946e-07
1.00981e-07
1.01024e-07
1.0105e-07
1.01027e-07
1.01051e-07
1.01093e-07
1.01143e-07
1.01199e-07
1.01256e-07
1.01306e-07
1.01341e-07
1.01391e-07
1.01472e-07
1.01562e-07
1.01659e-07
1.01787e-07
1.01914e-07
1.02118e-07
1.02239e-07
1.0274e-07
1.02804e-07
1.0404e-07
3.89935e-07
7.9925e-10
1.20709e-07
1.14285e-07
1.10666e-07
1.08457e-07
1.0695e-07
1.05863e-07
1.0503e-07
1.04388e-07
1.03863e-07
1.03446e-07
1.03086e-07
1.02798e-07
1.02539e-07
1.02327e-07
1.0214e-07
1.01986e-07
1.01841e-07
1.01724e-07
1.0161e-07
1.01519e-07
1.01427e-07
1.01355e-07
1.01285e-07
1.01232e-07
1.01173e-07
1.01132e-07
1.01088e-07
1.01059e-07
1.01017e-07
1.01e-07
1.00983e-07
1.00966e-07
1.00946e-07
1.00929e-07
1.00905e-07
1.00893e-07
1.00885e-07
1.00871e-07
1.00861e-07
1.00848e-07
1.0083e-07
1.00818e-07
1.00811e-07
1.008e-07
1.00789e-07
1.00776e-07
1.0077e-07
1.00749e-07
1.00746e-07
1.00737e-07
1.00723e-07
1.00723e-07
1.00723e-07
1.00723e-07
1.0071e-07
1.00732e-07
1.00716e-07
1.00709e-07
1.00699e-07
1.00717e-07
1.00716e-07
1.00715e-07
1.00737e-07
1.00762e-07
1.00762e-07
1.00762e-07
1.0078e-07
1.0082e-07
1.0082e-07
1.00798e-07
1.00824e-07
1.00879e-07
1.00914e-07
1.00957e-07
1.00984e-07
1.0096e-07
1.00985e-07
1.01026e-07
1.01076e-07
1.01132e-07
1.0119e-07
1.0124e-07
1.01274e-07
1.01325e-07
1.01406e-07
1.01496e-07
1.01592e-07
1.01721e-07
1.01847e-07
1.02052e-07
1.02173e-07
1.02673e-07
1.02737e-07
1.03986e-07
3.94661e-07
8.42513e-10
1.20735e-07
1.14314e-07
1.10684e-07
1.08463e-07
1.06945e-07
1.0585e-07
1.0501e-07
1.04361e-07
1.03831e-07
1.03409e-07
1.03046e-07
1.02754e-07
1.02492e-07
1.02278e-07
1.02088e-07
1.01932e-07
1.01785e-07
1.01667e-07
1.01551e-07
1.01459e-07
1.01365e-07
1.01293e-07
1.01221e-07
1.01167e-07
1.01107e-07
1.01066e-07
1.01021e-07
1.00991e-07
1.00949e-07
1.00931e-07
1.00914e-07
1.00896e-07
1.00876e-07
1.00858e-07
1.00833e-07
1.00821e-07
1.00813e-07
1.00799e-07
1.00788e-07
1.00775e-07
1.00757e-07
1.00745e-07
1.00738e-07
1.00726e-07
1.00715e-07
1.00702e-07
1.00695e-07
1.00674e-07
1.00672e-07
1.00662e-07
1.00648e-07
1.00648e-07
1.00648e-07
1.00647e-07
1.00634e-07
1.00656e-07
1.0064e-07
1.00633e-07
1.00623e-07
1.0064e-07
1.0064e-07
1.00639e-07
1.00661e-07
1.00685e-07
1.00685e-07
1.00685e-07
1.00704e-07
1.00744e-07
1.00744e-07
1.00722e-07
1.00747e-07
1.00802e-07
1.00838e-07
1.0088e-07
1.00907e-07
1.00884e-07
1.00908e-07
1.0095e-07
1.00999e-07
1.01055e-07
1.01113e-07
1.01163e-07
1.01198e-07
1.01249e-07
1.0133e-07
1.0142e-07
1.01516e-07
1.01645e-07
1.01771e-07
1.01976e-07
1.02098e-07
1.02595e-07
1.02659e-07
1.03925e-07
4.00117e-07
8.90125e-10
1.20765e-07
1.14347e-07
1.10704e-07
1.0847e-07
1.0694e-07
1.05835e-07
1.04987e-07
1.04331e-07
1.03795e-07
1.03368e-07
1.03e-07
1.02705e-07
1.0244e-07
1.02222e-07
1.02029e-07
1.01871e-07
1.01723e-07
1.01602e-07
1.01484e-07
1.01391e-07
1.01296e-07
1.01222e-07
1.01149e-07
1.01094e-07
1.01033e-07
1.00991e-07
1.00945e-07
1.00915e-07
1.00872e-07
1.00853e-07
1.00835e-07
1.00817e-07
1.00796e-07
1.00778e-07
1.00753e-07
1.00741e-07
1.00731e-07
1.00718e-07
1.00706e-07
1.00693e-07
1.00674e-07
1.00662e-07
1.00655e-07
1.00643e-07
1.00632e-07
1.00619e-07
1.00612e-07
1.00591e-07
1.00588e-07
1.00578e-07
1.00563e-07
1.00563e-07
1.00563e-07
1.00562e-07
1.00549e-07
1.00571e-07
1.00555e-07
1.00548e-07
1.00537e-07
1.00554e-07
1.00554e-07
1.00553e-07
1.00575e-07
1.00599e-07
1.00599e-07
1.00599e-07
1.00617e-07
1.00657e-07
1.00658e-07
1.00635e-07
1.0066e-07
1.00716e-07
1.00751e-07
1.00794e-07
1.00821e-07
1.00799e-07
1.00822e-07
1.00864e-07
1.00913e-07
1.00969e-07
1.01027e-07
1.01077e-07
1.01113e-07
1.01164e-07
1.01244e-07
1.01334e-07
1.0143e-07
1.0156e-07
1.01685e-07
1.0189e-07
1.02012e-07
1.02508e-07
1.02572e-07
1.03855e-07
4.06326e-07
9.42512e-10
1.20798e-07
1.14384e-07
1.10727e-07
1.08477e-07
1.06935e-07
1.05819e-07
1.04961e-07
1.04298e-07
1.03755e-07
1.03322e-07
1.0295e-07
1.0265e-07
1.02381e-07
1.0216e-07
1.01964e-07
1.01803e-07
1.01653e-07
1.0153e-07
1.0141e-07
1.01315e-07
1.01218e-07
1.01143e-07
1.01069e-07
1.01013e-07
1.00951e-07
1.00907e-07
1.00861e-07
1.00829e-07
1.00786e-07
1.00766e-07
1.00747e-07
1.00729e-07
1.00707e-07
1.00689e-07
1.00663e-07
1.0065e-07
1.00641e-07
1.00627e-07
1.00615e-07
1.00602e-07
1.00582e-07
1.0057e-07
1.00562e-07
1.0055e-07
1.00539e-07
1.00526e-07
1.00518e-07
1.00497e-07
1.00494e-07
1.00484e-07
1.00469e-07
1.00468e-07
1.00468e-07
1.00468e-07
1.00454e-07
1.00476e-07
1.0046e-07
1.00452e-07
1.00441e-07
1.00458e-07
1.00458e-07
1.00457e-07
1.00478e-07
1.00503e-07
1.00502e-07
1.00502e-07
1.00521e-07
1.00561e-07
1.00562e-07
1.00539e-07
1.00563e-07
1.00619e-07
1.00654e-07
1.00697e-07
1.00725e-07
1.00703e-07
1.00726e-07
1.00768e-07
1.00817e-07
1.00872e-07
1.0093e-07
1.00981e-07
1.01017e-07
1.01068e-07
1.01148e-07
1.01238e-07
1.01334e-07
1.01464e-07
1.01589e-07
1.01795e-07
1.01917e-07
1.0241e-07
1.02474e-07
1.03777e-07
4.13308e-07
1.00018e-09
1.20834e-07
1.14425e-07
1.10752e-07
1.08486e-07
1.0693e-07
1.05802e-07
1.04934e-07
1.04261e-07
1.03711e-07
1.03272e-07
1.02894e-07
1.02589e-07
1.02316e-07
1.02092e-07
1.01893e-07
1.01729e-07
1.01575e-07
1.0145e-07
1.01328e-07
1.01231e-07
1.01133e-07
1.01056e-07
1.00981e-07
1.00923e-07
1.0086e-07
1.00815e-07
1.00768e-07
1.00735e-07
1.00691e-07
1.0067e-07
1.00651e-07
1.00631e-07
1.00609e-07
1.0059e-07
1.00564e-07
1.00551e-07
1.00541e-07
1.00526e-07
1.00514e-07
1.005e-07
1.00481e-07
1.00468e-07
1.0046e-07
1.00448e-07
1.00436e-07
1.00423e-07
1.00415e-07
1.00394e-07
1.0039e-07
1.0038e-07
1.00365e-07
1.00363e-07
1.00363e-07
1.00363e-07
1.00349e-07
1.0037e-07
1.00354e-07
1.00346e-07
1.00335e-07
1.00352e-07
1.00352e-07
1.00351e-07
1.00372e-07
1.00396e-07
1.00396e-07
1.00396e-07
1.00414e-07
1.00454e-07
1.00455e-07
1.00432e-07
1.00456e-07
1.00512e-07
1.00547e-07
1.0059e-07
1.00618e-07
1.00597e-07
1.0062e-07
1.00661e-07
1.0071e-07
1.00766e-07
1.00823e-07
1.00875e-07
1.00911e-07
1.00962e-07
1.01041e-07
1.01132e-07
1.01228e-07
1.01358e-07
1.01482e-07
1.01689e-07
1.01811e-07
1.02302e-07
1.02365e-07
1.03691e-07
4.21082e-07
1.06375e-09
1.20873e-07
1.1447e-07
1.1078e-07
1.08496e-07
1.06924e-07
1.05783e-07
1.04904e-07
1.04222e-07
1.03664e-07
1.03217e-07
1.02833e-07
1.02523e-07
1.02246e-07
1.02017e-07
1.01814e-07
1.01647e-07
1.01491e-07
1.01363e-07
1.01239e-07
1.0114e-07
1.0104e-07
1.00961e-07
1.00884e-07
1.00825e-07
1.0076e-07
1.00714e-07
1.00665e-07
1.00632e-07
1.00586e-07
1.00564e-07
1.00544e-07
1.00524e-07
1.00502e-07
1.00482e-07
1.00455e-07
1.00441e-07
1.00431e-07
1.00416e-07
1.00403e-07
1.00389e-07
1.00369e-07
1.00356e-07
1.00348e-07
1.00335e-07
1.00323e-07
1.0031e-07
1.00302e-07
1.0028e-07
1.00277e-07
1.00266e-07
1.0025e-07
1.00248e-07
1.00248e-07
1.00248e-07
1.00233e-07
1.00255e-07
1.00239e-07
1.0023e-07
1.00219e-07
1.00236e-07
1.00235e-07
1.00235e-07
1.00256e-07
1.00279e-07
1.00279e-07
1.00279e-07
1.00297e-07
1.00337e-07
1.00338e-07
1.00315e-07
1.00338e-07
1.00394e-07
1.0043e-07
1.00472e-07
1.00501e-07
1.00481e-07
1.00503e-07
1.00544e-07
1.00593e-07
1.00648e-07
1.00706e-07
1.00758e-07
1.00794e-07
1.00846e-07
1.00925e-07
1.01016e-07
1.01111e-07
1.01242e-07
1.01365e-07
1.01572e-07
1.01695e-07
1.02184e-07
1.02246e-07
1.03596e-07
4.29657e-07
1.13389e-09
1.20915e-07
1.14519e-07
1.10811e-07
1.08508e-07
1.06919e-07
1.05763e-07
1.04871e-07
1.04179e-07
1.03612e-07
1.03158e-07
1.02768e-07
1.02451e-07
1.02169e-07
1.01936e-07
1.01729e-07
1.01558e-07
1.01399e-07
1.01268e-07
1.01141e-07
1.0104e-07
1.00938e-07
1.00857e-07
1.00778e-07
1.00718e-07
1.00652e-07
1.00604e-07
1.00554e-07
1.00519e-07
1.00473e-07
1.0045e-07
1.00429e-07
1.00408e-07
1.00384e-07
1.00364e-07
1.00336e-07
1.00322e-07
1.00311e-07
1.00296e-07
1.00282e-07
1.00268e-07
1.00247e-07
1.00234e-07
1.00225e-07
1.00213e-07
1.002e-07
1.00186e-07
1.00179e-07
1.00157e-07
1.00153e-07
1.00142e-07
1.00126e-07
1.00123e-07
1.00123e-07
1.00122e-07
1.00108e-07
1.00129e-07
1.00112e-07
1.00103e-07
1.00092e-07
1.00109e-07
1.00108e-07
1.00108e-07
1.00128e-07
1.00151e-07
1.00151e-07
1.00151e-07
1.00169e-07
1.00209e-07
1.00211e-07
1.00188e-07
1.0021e-07
1.00266e-07
1.00302e-07
1.00344e-07
1.00374e-07
1.00354e-07
1.00376e-07
1.00417e-07
1.00465e-07
1.00521e-07
1.00578e-07
1.00631e-07
1.00667e-07
1.00719e-07
1.00798e-07
1.00889e-07
1.00984e-07
1.01115e-07
1.01237e-07
1.01445e-07
1.01568e-07
1.02054e-07
1.02116e-07
1.03492e-07
4.3904e-07
1.2114e-09
1.2096e-07
1.14572e-07
1.10845e-07
1.08521e-07
1.06913e-07
1.05742e-07
1.04837e-07
1.04133e-07
1.03557e-07
1.03094e-07
1.02696e-07
1.02374e-07
1.02086e-07
1.01848e-07
1.01637e-07
1.01462e-07
1.01299e-07
1.01166e-07
1.01036e-07
1.00932e-07
1.00828e-07
1.00745e-07
1.00664e-07
1.00602e-07
1.00534e-07
1.00485e-07
1.00433e-07
1.00397e-07
1.0035e-07
1.00326e-07
1.00303e-07
1.00281e-07
1.00257e-07
1.00236e-07
1.00208e-07
1.00193e-07
1.00181e-07
1.00165e-07
1.00152e-07
1.00137e-07
1.00116e-07
1.00102e-07
1.00093e-07
1.0008e-07
1.00067e-07
1.00053e-07
1.00045e-07
1.00022e-07
1.00018e-07
1.00007e-07
9.99904e-08
9.99873e-08
9.99871e-08
9.99865e-08
9.99713e-08
9.99921e-08
9.99756e-08
9.99662e-08
9.99544e-08
9.99709e-08
9.99708e-08
9.99702e-08
9.99906e-08
1.00013e-07
1.00013e-07
1.00013e-07
1.0003e-07
1.00071e-07
1.00073e-07
1.0005e-07
1.00071e-07
1.00127e-07
1.00163e-07
1.00205e-07
1.00235e-07
1.00217e-07
1.00238e-07
1.00278e-07
1.00326e-07
1.00382e-07
1.00439e-07
1.00492e-07
1.00529e-07
1.00581e-07
1.00659e-07
1.00751e-07
1.00845e-07
1.00977e-07
1.01098e-07
1.01307e-07
1.01429e-07
1.01913e-07
1.01974e-07
1.0338e-07
4.49228e-07
1.29717e-09
1.21007e-07
1.1463e-07
1.10882e-07
1.08535e-07
1.06908e-07
1.05719e-07
1.048e-07
1.04085e-07
1.03497e-07
1.03026e-07
1.0262e-07
1.02291e-07
1.01997e-07
1.01754e-07
1.01538e-07
1.01359e-07
1.01192e-07
1.01055e-07
1.00923e-07
1.00816e-07
1.00709e-07
1.00624e-07
1.00541e-07
1.00477e-07
1.00407e-07
1.00357e-07
1.00304e-07
1.00266e-07
1.00217e-07
1.00192e-07
1.00168e-07
1.00145e-07
1.0012e-07
1.00099e-07
1.00069e-07
1.00054e-07
1.00041e-07
1.00025e-07
1.0001e-07
9.99953e-08
9.99736e-08
9.99596e-08
9.99496e-08
9.99363e-08
9.99233e-08
9.99087e-08
9.99005e-08
9.98778e-08
9.98733e-08
9.98618e-08
9.98446e-08
9.98408e-08
9.98406e-08
9.98399e-08
9.98242e-08
9.98448e-08
9.98281e-08
9.98183e-08
9.98062e-08
9.98224e-08
9.98224e-08
9.98217e-08
9.98419e-08
9.98639e-08
9.98638e-08
9.98638e-08
9.98806e-08
9.99216e-08
9.99235e-08
9.99004e-08
9.99203e-08
9.9977e-08
1.00014e-07
1.00054e-07
1.00086e-07
1.00068e-07
1.00089e-07
1.00129e-07
1.00176e-07
1.00232e-07
1.0029e-07
1.00343e-07
1.00381e-07
1.00433e-07
1.0051e-07
1.00602e-07
1.00696e-07
1.00828e-07
1.00949e-07
1.01158e-07
1.0128e-07
1.01762e-07
1.01821e-07
1.03257e-07
4.60208e-07
1.39221e-09
1.21058e-07
1.14691e-07
1.10922e-07
1.08551e-07
1.06903e-07
1.05696e-07
1.04762e-07
1.04033e-07
1.03434e-07
1.02953e-07
1.02539e-07
1.02203e-07
1.01902e-07
1.01653e-07
1.01432e-07
1.01249e-07
1.01078e-07
1.00937e-07
1.00801e-07
1.00692e-07
1.00582e-07
1.00494e-07
1.00409e-07
1.00343e-07
1.00271e-07
1.00219e-07
1.00164e-07
1.00125e-07
1.00075e-07
1.00048e-07
1.00023e-07
9.99994e-08
9.99735e-08
9.99509e-08
9.99206e-08
9.99041e-08
9.98913e-08
9.98742e-08
9.9859e-08
9.98433e-08
9.98211e-08
9.98066e-08
9.9796e-08
9.97824e-08
9.9769e-08
9.9754e-08
9.97455e-08
9.97225e-08
9.97175e-08
9.97058e-08
9.96881e-08
9.96835e-08
9.96834e-08
9.96825e-08
9.96663e-08
9.96865e-08
9.96697e-08
9.96594e-08
9.96469e-08
9.9663e-08
9.9663e-08
9.96622e-08
9.96823e-08
9.97036e-08
9.97035e-08
9.97035e-08
9.972e-08
9.9761e-08
9.97634e-08
9.97401e-08
9.97589e-08
9.98158e-08
9.98526e-08
9.98931e-08
9.9925e-08
9.99087e-08
9.99289e-08
9.99688e-08
1.00016e-07
1.00071e-07
1.00129e-07
1.00183e-07
1.00221e-07
1.00273e-07
1.0035e-07
1.00442e-07
1.00536e-07
1.00668e-07
1.00787e-07
1.00997e-07
1.0112e-07
1.01598e-07
1.01656e-07
1.03126e-07
4.71956e-07
1.49768e-09
1.21112e-07
1.14757e-07
1.10965e-07
1.0857e-07
1.06898e-07
1.05672e-07
1.04721e-07
1.03978e-07
1.03368e-07
1.02876e-07
1.02453e-07
1.02109e-07
1.01801e-07
1.01546e-07
1.01319e-07
1.01131e-07
1.00956e-07
1.00811e-07
1.00672e-07
1.00559e-07
1.00446e-07
1.00356e-07
1.00268e-07
1.002e-07
1.00126e-07
1.00072e-07
1.00015e-07
9.99749e-08
9.99231e-08
9.98947e-08
9.98685e-08
9.98434e-08
9.98164e-08
9.97929e-08
9.97616e-08
9.97443e-08
9.97308e-08
9.9713e-08
9.9697e-08
9.96808e-08
9.9658e-08
9.96429e-08
9.96318e-08
9.96178e-08
9.9604e-08
9.95886e-08
9.95797e-08
9.95564e-08
9.9551e-08
9.95389e-08
9.95207e-08
9.95153e-08
9.95151e-08
9.95142e-08
9.94974e-08
9.95172e-08
9.95002e-08
9.94894e-08
9.94766e-08
9.94924e-08
9.94924e-08
9.94915e-08
9.95114e-08
9.95322e-08
9.95319e-08
9.9532e-08
9.95482e-08
9.95891e-08
9.95919e-08
9.95686e-08
9.95862e-08
9.96433e-08
9.96803e-08
9.97204e-08
9.97531e-08
9.97379e-08
9.97576e-08
9.97971e-08
9.98435e-08
9.98989e-08
9.99563e-08
1.00011e-07
1.00049e-07
1.00102e-07
1.00178e-07
1.00271e-07
1.00364e-07
1.00496e-07
1.00615e-07
1.00825e-07
1.00948e-07
1.01423e-07
1.0148e-07
1.02984e-07
4.84436e-07
1.61487e-09
1.21168e-07
1.14827e-07
1.11012e-07
1.0859e-07
1.06894e-07
1.05648e-07
1.04679e-07
1.03921e-07
1.03297e-07
1.02795e-07
1.02362e-07
1.02009e-07
1.01694e-07
1.01432e-07
1.012e-07
1.01006e-07
1.00826e-07
1.00678e-07
1.00534e-07
1.00418e-07
1.00302e-07
1.00209e-07
1.00119e-07
1.00048e-07
9.99718e-08
9.99156e-08
9.9857e-08
9.98148e-08
9.97614e-08
9.97313e-08
9.97036e-08
9.96773e-08
9.96491e-08
9.96246e-08
9.95923e-08
9.9574e-08
9.95598e-08
9.95413e-08
9.95244e-08
9.95077e-08
9.94842e-08
9.94686e-08
9.94568e-08
9.94424e-08
9.94281e-08
9.94122e-08
9.9403e-08
9.93794e-08
9.93734e-08
9.9361e-08
9.93422e-08
9.9336e-08
9.93358e-08
9.93348e-08
9.93173e-08
9.93367e-08
9.93195e-08
9.93082e-08
9.92951e-08
9.93105e-08
9.93106e-08
9.93096e-08
9.93293e-08
9.93495e-08
9.93491e-08
9.93492e-08
9.93649e-08
9.94059e-08
9.94091e-08
9.93857e-08
9.9402e-08
9.94593e-08
9.94966e-08
9.95363e-08
9.95696e-08
9.95557e-08
9.95748e-08
9.9614e-08
9.96599e-08
9.97152e-08
9.97723e-08
9.98272e-08
9.98662e-08
9.99189e-08
9.99947e-08
1.00088e-07
1.0018e-07
1.00313e-07
1.0043e-07
1.00641e-07
1.00764e-07
1.01236e-07
1.01291e-07
1.02831e-07
4.97596e-07
1.74519e-09
1.21227e-07
1.14902e-07
1.11062e-07
1.08612e-07
1.06891e-07
1.05623e-07
1.04635e-07
1.03861e-07
1.03224e-07
1.02709e-07
1.02266e-07
1.01904e-07
1.01581e-07
1.01312e-07
1.01073e-07
1.00874e-07
1.00689e-07
1.00536e-07
1.00388e-07
1.00268e-07
1.00149e-07
1.00053e-07
9.99597e-08
9.98864e-08
9.98081e-08
9.97496e-08
9.96889e-08
9.96449e-08
9.95898e-08
9.9558e-08
9.95286e-08
9.9501e-08
9.94715e-08
9.94459e-08
9.94125e-08
9.93932e-08
9.93781e-08
9.93589e-08
9.93411e-08
9.93238e-08
9.92995e-08
9.92833e-08
9.92708e-08
9.92561e-08
9.92412e-08
9.92249e-08
9.92153e-08
9.91912e-08
9.91848e-08
9.9172e-08
9.91527e-08
9.91455e-08
9.91454e-08
9.91441e-08
9.9126e-08
9.9145e-08
9.91275e-08
9.91157e-08
9.91022e-08
9.91173e-08
9.91173e-08
9.91163e-08
9.91357e-08
9.91553e-08
9.91547e-08
9.91548e-08
9.91702e-08
9.9211e-08
9.92148e-08
9.91912e-08
9.92063e-08
9.92637e-08
9.93013e-08
9.93405e-08
9.93745e-08
9.9362e-08
9.93804e-08
9.94192e-08
9.94646e-08
9.95197e-08
9.95767e-08
9.96321e-08
9.96716e-08
9.97245e-08
9.97997e-08
9.98929e-08
9.99845e-08
1.00118e-07
1.00234e-07
1.00446e-07
1.00568e-07
1.01037e-07
1.0109e-07
1.02668e-07
5.11365e-07
1.89041e-09
1.21289e-07
1.14981e-07
1.11117e-07
1.08637e-07
1.06889e-07
1.05598e-07
1.0459e-07
1.03799e-07
1.03147e-07
1.02619e-07
1.02165e-07
1.01793e-07
1.01462e-07
1.01185e-07
1.0094e-07
1.00735e-07
1.00544e-07
1.00386e-07
1.00235e-07
1.00111e-07
9.99877e-08
9.98884e-08
9.97919e-08
9.97158e-08
9.96349e-08
9.95741e-08
9.95112e-08
9.94652e-08
9.94083e-08
9.93745e-08
9.93434e-08
9.93144e-08
9.92835e-08
9.92568e-08
9.92222e-08
9.92018e-08
9.91858e-08
9.91658e-08
9.9147e-08
9.9129e-08
9.9104e-08
9.90871e-08
9.90739e-08
9.90587e-08
9.90433e-08
9.90264e-08
9.90164e-08
9.89919e-08
9.89849e-08
9.89718e-08
9.89519e-08
9.89437e-08
9.89436e-08
9.89421e-08
9.89233e-08
9.89418e-08
9.8924e-08
9.89117e-08
9.88978e-08
9.89125e-08
9.89125e-08
9.89114e-08
9.89306e-08
9.89495e-08
9.89487e-08
9.89488e-08
9.89638e-08
9.90044e-08
9.90087e-08
9.89851e-08
9.89988e-08
9.90564e-08
9.90942e-08
9.9133e-08
9.91676e-08
9.91564e-08
9.91743e-08
9.92127e-08
9.92575e-08
9.93124e-08
9.93693e-08
9.94252e-08
9.94651e-08
9.95182e-08
9.95927e-08
9.96862e-08
9.97772e-08
9.99109e-08
1.00026e-07
1.00238e-07
1.0036e-07
1.00826e-07
1.00876e-07
1.02493e-07
5.25655e-07
2.05236e-09
1.21353e-07
1.15065e-07
1.11175e-07
1.08664e-07
1.06888e-07
1.05572e-07
1.04544e-07
1.03734e-07
1.03066e-07
1.02526e-07
1.02059e-07
1.01677e-07
1.01337e-07
1.01053e-07
1.008e-07
1.00588e-07
1.00392e-07
1.00229e-07
1.00072e-07
9.99444e-08
9.98176e-08
9.97148e-08
9.9615e-08
9.9536e-08
9.94523e-08
9.9389e-08
9.93237e-08
9.92755e-08
9.92167e-08
9.9181e-08
9.9148e-08
9.91174e-08
9.9085e-08
9.90571e-08
9.90212e-08
9.89997e-08
9.89827e-08
9.89618e-08
9.8942e-08
9.89233e-08
9.88974e-08
9.88798e-08
9.88658e-08
9.88502e-08
9.88341e-08
9.88168e-08
9.88063e-08
9.87814e-08
9.87737e-08
9.87603e-08
9.87398e-08
9.87307e-08
9.87305e-08
9.87287e-08
9.87091e-08
9.87271e-08
9.87091e-08
9.86962e-08
9.86819e-08
9.86962e-08
9.86961e-08
9.86949e-08
9.87138e-08
9.87319e-08
9.8731e-08
9.87311e-08
9.87456e-08
9.8786e-08
9.87909e-08
9.87673e-08
9.87795e-08
9.88371e-08
9.88752e-08
9.89135e-08
9.89488e-08
9.8939e-08
9.89563e-08
9.89942e-08
9.90385e-08
9.90932e-08
9.91498e-08
9.92062e-08
9.92466e-08
9.93e-08
9.93738e-08
9.94675e-08
9.95577e-08
9.96918e-08
9.98057e-08
1.00018e-07
1.00139e-07
1.00602e-07
1.0065e-07
1.02307e-07
5.40355e-07
2.23317e-09
1.21419e-07
1.15153e-07
1.11237e-07
1.08694e-07
1.06889e-07
1.05547e-07
1.04496e-07
1.03668e-07
1.02983e-07
1.02428e-07
1.01949e-07
1.01556e-07
1.01206e-07
1.00913e-07
1.00653e-07
1.00435e-07
1.00232e-07
1.00064e-07
9.99022e-08
9.97697e-08
9.96389e-08
9.95324e-08
9.9429e-08
9.93468e-08
9.92603e-08
9.91943e-08
9.91264e-08
9.9076e-08
9.90151e-08
9.89772e-08
9.89423e-08
9.891e-08
9.8876e-08
9.88468e-08
9.88096e-08
9.87868e-08
9.87688e-08
9.87469e-08
9.8726e-08
9.87065e-08
9.86797e-08
9.86614e-08
9.86466e-08
9.86305e-08
9.86137e-08
9.85958e-08
9.85848e-08
9.85594e-08
9.85511e-08
9.85373e-08
9.85163e-08
9.85061e-08
9.85059e-08
9.85037e-08
9.84833e-08
9.85007e-08
9.84825e-08
9.8469e-08
9.84542e-08
9.84681e-08
9.8468e-08
9.84666e-08
9.84852e-08
9.85024e-08
9.85014e-08
9.85015e-08
9.85155e-08
9.85556e-08
9.85611e-08
9.85375e-08
9.85483e-08
9.86059e-08
9.86442e-08
9.8682e-08
9.87179e-08
9.87096e-08
9.87262e-08
9.87638e-08
9.88075e-08
9.88619e-08
9.89182e-08
9.89751e-08
9.9016e-08
9.90696e-08
9.91426e-08
9.92366e-08
9.9326e-08
9.94604e-08
9.95729e-08
9.97853e-08
9.99063e-08
1.00366e-07
1.00412e-07
1.02109e-07
5.55333e-07
2.43523e-09
1.21488e-07
1.15245e-07
1.11303e-07
1.08727e-07
1.06891e-07
1.05522e-07
1.04447e-07
1.03599e-07
1.02897e-07
1.02327e-07
1.01835e-07
1.0143e-07
1.0107e-07
1.00768e-07
1.00499e-07
1.00274e-07
1.00065e-07
9.98909e-08
9.9724e-08
9.95867e-08
9.94515e-08
9.9341e-08
9.92339e-08
9.91484e-08
9.90588e-08
9.899e-08
9.89193e-08
9.88665e-08
9.88034e-08
9.87633e-08
9.87262e-08
9.86922e-08
9.86565e-08
9.86258e-08
9.85873e-08
9.85631e-08
9.85439e-08
9.85211e-08
9.84989e-08
9.84786e-08
9.84509e-08
9.84318e-08
9.8416e-08
9.83994e-08
9.8382e-08
9.83635e-08
9.83519e-08
9.8326e-08
9.8317e-08
9.83028e-08
9.82813e-08
9.82701e-08
9.82697e-08
9.82671e-08
9.82459e-08
9.82626e-08
9.82442e-08
9.82301e-08
9.82148e-08
9.82282e-08
9.8228e-08
9.82264e-08
9.82448e-08
9.8261e-08
9.82598e-08
9.82599e-08
9.82734e-08
9.83132e-08
9.83192e-08
9.82956e-08
9.8305e-08
9.83625e-08
9.84011e-08
9.84384e-08
9.84748e-08
9.8468e-08
9.84841e-08
9.85211e-08
9.85642e-08
9.86184e-08
9.86744e-08
9.87317e-08
9.8773e-08
9.8827e-08
9.88991e-08
9.89933e-08
9.90819e-08
9.92165e-08
9.93276e-08
9.95401e-08
9.96608e-08
1.00117e-07
1.0016e-07
1.01897e-07
5.70431e-07
2.6612e-09
1.21559e-07
1.15343e-07
1.11374e-07
1.08764e-07
1.06895e-07
1.05497e-07
1.04398e-07
1.03529e-07
1.02808e-07
1.02222e-07
1.01716e-07
1.01299e-07
1.00928e-07
1.00617e-07
1.00339e-07
1.00106e-07
9.98906e-08
9.97102e-08
9.95377e-08
9.93953e-08
9.92555e-08
9.91409e-08
9.90298e-08
9.89408e-08
9.88478e-08
9.8776e-08
9.87024e-08
9.86471e-08
9.85816e-08
9.85391e-08
9.84998e-08
9.84639e-08
9.84264e-08
9.83942e-08
9.83542e-08
9.83286e-08
9.83081e-08
9.82842e-08
9.82608e-08
9.82396e-08
9.82108e-08
9.81908e-08
9.81742e-08
9.8157e-08
9.81388e-08
9.81197e-08
9.81075e-08
9.80811e-08
9.80713e-08
9.80567e-08