/*--------------------------------*- C++ -*----------------------------------*\
| =========                 |                                                 |
| \\      /  F ield         | OpenFOAM: The Open Source CFD Toolbox           |
|  \\    /   O peration     | Version:  v2012                                 |
|   \\  /    A nd           | Website:  www.openfoam.com                      |
|    \\/     M anipulation  |                                                 |
\*---------------------------------------------------------------------------*/
FoamFile
{
    version     2.0;
    format      ascii;
    class       volVectorField;
    location    "9";
    object      wallShearStress;
}
// * * * * * * * * * * * * * * * * * * * * * * * * * * * * * * * * * * * * * //

dimensions      [0 2 -2 0 0 0 0];


internalField   uniform (0 0 0);

boundaryField
{
    inlet
    {
        type            calculated;
        value           uniform (0 0 0);
    }
    outlet
    {
        type            calculated;
        value           uniform (0 0 0);
    }
    topWall
    {
        type            calculated;
        value           nonuniform List<vector> 
545
(
(2.0582e-08 -1.44476e-08 0)
(2.06801e-08 -4.06936e-08 0)
(2.05883e-08 -6.78587e-08 0)
(2.05029e-08 -9.41391e-08 0)
(2.04446e-08 -1.19244e-07 0)
(2.03808e-08 -1.43502e-07 0)
(2.03117e-08 -1.67126e-07 0)
(2.02363e-08 -1.90108e-07 0)
(2.01549e-08 -2.12396e-07 0)
(2.00682e-08 -2.33986e-07 0)
(1.99765e-08 -2.54908e-07 0)
(1.98804e-08 -2.75185e-07 0)
(1.97803e-08 -2.94833e-07 0)
(1.96767e-08 -3.13865e-07 0)
(1.957e-08 -3.32295e-07 0)
(1.94605e-08 -3.5014e-07 0)
(1.93487e-08 -3.67415e-07 0)
(1.92349e-08 -3.84137e-07 0)
(1.91194e-08 -4.00321e-07 0)
(1.90025e-08 -4.15983e-07 0)
(1.88845e-08 -4.31138e-07 0)
(1.87656e-08 -4.458e-07 0)
(1.86461e-08 -4.59986e-07 0)
(1.85263e-08 -4.73709e-07 0)
(1.84062e-08 -4.86984e-07 0)
(1.82861e-08 -4.99825e-07 0)
(1.81662e-08 -5.12245e-07 0)
(1.80466e-08 -5.24258e-07 0)
(1.79274e-08 -5.35877e-07 0)
(1.78088e-08 -5.47115e-07 0)
(1.76909e-08 -5.57985e-07 0)
(1.75737e-08 -5.68497e-07 0)
(1.74574e-08 -5.78664e-07 0)
(1.73421e-08 -5.88498e-07 0)
(1.72278e-08 -5.9801e-07 0)
(1.71146e-08 -6.07209e-07 0)
(1.70026e-08 -6.16107e-07 0)
(1.68917e-08 -6.24714e-07 0)
(1.67821e-08 -6.33039e-07 0)
(1.66737e-08 -6.41093e-07 0)
(1.65666e-08 -6.48883e-07 0)
(1.64609e-08 -6.56419e-07 0)
(1.63565e-08 -6.6371e-07 0)
(1.62534e-08 -6.70764e-07 0)
(1.61516e-08 -6.77589e-07 0)
(1.60513e-08 -6.84192e-07 0)
(1.59522e-08 -6.90581e-07 0)
(1.58546e-08 -6.96763e-07 0)
(1.57583e-08 -7.02746e-07 0)
(1.56633e-08 -7.08535e-07 0)
(1.55696e-08 -7.14138e-07 0)
(1.54772e-08 -7.19561e-07 0)
(1.53861e-08 -7.24809e-07 0)
(1.52963e-08 -7.29889e-07 0)
(1.52078e-08 -7.34807e-07 0)
(1.51204e-08 -7.39567e-07 0)
(1.50343e-08 -7.44175e-07 0)
(1.49493e-08 -7.48636e-07 0)
(1.48655e-08 -7.52955e-07 0)
(1.47827e-08 -7.57136e-07 0)
(1.47011e-08 -7.61185e-07 0)
(1.46205e-08 -7.65105e-07 0)
(1.45409e-08 -7.68901e-07 0)
(1.44624e-08 -7.72576e-07 0)
(1.43847e-08 -7.76136e-07 0)
(1.4308e-08 -7.79583e-07 0)
(1.42322e-08 -7.82921e-07 0)
(1.41571e-08 -7.86154e-07 0)
(1.40831e-08 -7.89288e-07 0)
(1.40091e-08 -7.92308e-07 0)
(1.39387e-08 -7.95271e-07 0)
(1.38563e-08 -7.98101e-07 0)
(1.37802e-08 -8.00784e-07 0)
(1.37262e-08 -8.0347e-07 0)
(1.36718e-08 -8.06072e-07 0)
(1.36177e-08 -8.08616e-07 0)
(1.35636e-08 -8.11181e-07 0)
(1.35096e-08 -8.13728e-07 0)
(1.34557e-08 -8.16248e-07 0)
(1.34019e-08 -8.18741e-07 0)
(1.33481e-08 -8.21214e-07 0)
(1.32944e-08 -8.23667e-07 0)
(1.32409e-08 -8.26099e-07 0)
(1.31874e-08 -8.28509e-07 0)
(1.31339e-08 -8.30899e-07 0)
(1.30806e-08 -8.33269e-07 0)
(1.30274e-08 -8.35618e-07 0)
(1.29742e-08 -8.37946e-07 0)
(1.29212e-08 -8.40255e-07 0)
(1.28682e-08 -8.42543e-07 0)
(1.28154e-08 -8.44814e-07 0)
(1.27624e-08 -8.47059e-07 0)
(1.27108e-08 -8.49313e-07 0)
(1.26538e-08 -8.51423e-07 0)
(1.26206e-08 -8.5381e-07 0)
(1.24856e-08 -8.559e-07 0)
(1.23238e-08 -8.57501e-07 0)
(1.2275e-08 -8.59599e-07 0)
(1.22347e-08 -8.61418e-07 0)
(1.21961e-08 -8.62915e-07 0)
(1.2158e-08 -8.64618e-07 0)
(1.212e-08 -8.6637e-07 0)
(1.20818e-08 -8.68108e-07 0)
(1.20436e-08 -8.69816e-07 0)
(1.20051e-08 -8.71518e-07 0)
(1.19666e-08 -8.73226e-07 0)
(1.19279e-08 -8.74935e-07 0)
(1.18891e-08 -8.76643e-07 0)
(1.18501e-08 -8.78347e-07 0)
(1.1811e-08 -8.8005e-07 0)
(1.17718e-08 -8.81751e-07 0)
(1.17324e-08 -8.83451e-07 0)
(1.16929e-08 -8.85149e-07 0)
(1.16533e-08 -8.86845e-07 0)
(1.16135e-08 -8.8854e-07 0)
(1.15736e-08 -8.90232e-07 0)
(1.15335e-08 -8.91923e-07 0)
(1.14933e-08 -8.93612e-07 0)
(1.1453e-08 -8.95299e-07 0)
(1.14125e-08 -8.96984e-07 0)
(1.13719e-08 -8.98667e-07 0)
(1.13312e-08 -9.00347e-07 0)
(1.12904e-08 -9.02026e-07 0)
(1.12494e-08 -9.03703e-07 0)
(1.12082e-08 -9.05377e-07 0)
(1.11669e-08 -9.0705e-07 0)
(1.11255e-08 -9.0872e-07 0)
(1.1084e-08 -9.10387e-07 0)
(1.10423e-08 -9.12053e-07 0)
(1.10005e-08 -9.13716e-07 0)
(1.09585e-08 -9.15376e-07 0)
(1.09165e-08 -9.17034e-07 0)
(1.08742e-08 -9.1869e-07 0)
(1.08319e-08 -9.20343e-07 0)
(1.07894e-08 -9.21993e-07 0)
(1.07468e-08 -9.23641e-07 0)
(1.0704e-08 -9.25287e-07 0)
(1.06611e-08 -9.26929e-07 0)
(1.06181e-08 -9.28569e-07 0)
(1.05749e-08 -9.30206e-07 0)
(1.05316e-08 -9.3184e-07 0)
(1.04882e-08 -9.33471e-07 0)
(1.04446e-08 -9.35099e-07 0)
(1.04009e-08 -9.36725e-07 0)
(1.03571e-08 -9.38347e-07 0)
(1.03131e-08 -9.39966e-07 0)
(1.0269e-08 -9.41582e-07 0)
(1.02248e-08 -9.43195e-07 0)
(1.01804e-08 -9.44805e-07 0)
(1.01359e-08 -9.46412e-07 0)
(1.00913e-08 -9.48015e-07 0)
(1.00465e-08 -9.49615e-07 0)
(1.00016e-08 -9.51212e-07 0)
(9.95661e-09 -9.52805e-07 0)
(9.91146e-09 -9.54394e-07 0)
(9.86617e-09 -9.55981e-07 0)
(9.82076e-09 -9.57563e-07 0)
(9.77521e-09 -9.59142e-07 0)
(9.72954e-09 -9.60718e-07 0)
(9.68374e-09 -9.62289e-07 0)
(9.63781e-09 -9.63857e-07 0)
(9.59175e-09 -9.65422e-07 0)
(9.54556e-09 -9.66982e-07 0)
(9.49924e-09 -9.68538e-07 0)
(9.4528e-09 -9.70091e-07 0)
(9.40623e-09 -9.71639e-07 0)
(9.35954e-09 -9.73184e-07 0)
(9.31272e-09 -9.74724e-07 0)
(9.26577e-09 -9.7626e-07 0)
(9.2187e-09 -9.77792e-07 0)
(9.1715e-09 -9.7932e-07 0)
(9.12418e-09 -9.80844e-07 0)
(9.07674e-09 -9.82363e-07 0)
(9.02917e-09 -9.83878e-07 0)
(8.98148e-09 -9.85388e-07 0)
(8.93367e-09 -9.86894e-07 0)
(8.88574e-09 -9.88396e-07 0)
(8.83769e-09 -9.89893e-07 0)
(8.78951e-09 -9.91385e-07 0)
(8.74122e-09 -9.92873e-07 0)
(8.69281e-09 -9.94355e-07 0)
(8.64427e-09 -9.95833e-07 0)
(8.59562e-09 -9.97307e-07 0)
(8.54686e-09 -9.98775e-07 0)
(8.49797e-09 -1.00024e-06 0)
(8.44897e-09 -1.0017e-06 0)
(8.39985e-09 -1.00315e-06 0)
(8.35062e-09 -1.0046e-06 0)
(8.30128e-09 -1.00604e-06 0)
(8.25182e-09 -1.00748e-06 0)
(8.20224e-09 -1.00891e-06 0)
(8.15256e-09 -1.01034e-06 0)
(8.10276e-09 -1.01176e-06 0)
(8.05285e-09 -1.01318e-06 0)
(8.00284e-09 -1.01459e-06 0)
(7.95271e-09 -1.016e-06 0)
(7.90247e-09 -1.0174e-06 0)
(7.85213e-09 -1.01879e-06 0)
(7.80167e-09 -1.02018e-06 0)
(7.75112e-09 -1.02156e-06 0)
(7.70045e-09 -1.02294e-06 0)
(7.64968e-09 -1.02431e-06 0)
(7.59881e-09 -1.02568e-06 0)
(7.54783e-09 -1.02704e-06 0)
(7.49675e-09 -1.02839e-06 0)
(7.44557e-09 -1.02974e-06 0)
(7.39429e-09 -1.03108e-06 0)
(7.34291e-09 -1.03242e-06 0)
(7.29143e-09 -1.03374e-06 0)
(7.23985e-09 -1.03507e-06 0)
(7.18817e-09 -1.03638e-06 0)
(7.1364e-09 -1.03769e-06 0)
(7.08453e-09 -1.039e-06 0)
(7.03257e-09 -1.0403e-06 0)
(6.98052e-09 -1.04159e-06 0)
(6.92837e-09 -1.04287e-06 0)
(6.87613e-09 -1.04415e-06 0)
(6.8238e-09 -1.04542e-06 0)
(6.77138e-09 -1.04668e-06 0)
(6.71887e-09 -1.04794e-06 0)
(6.66627e-09 -1.04919e-06 0)
(6.61359e-09 -1.05043e-06 0)
(6.56082e-09 -1.05167e-06 0)
(6.50797e-09 -1.0529e-06 0)
(6.45503e-09 -1.05412e-06 0)
(6.40201e-09 -1.05534e-06 0)
(6.34891e-09 -1.05655e-06 0)
(6.29573e-09 -1.05775e-06 0)
(6.24247e-09 -1.05894e-06 0)
(6.18914e-09 -1.06013e-06 0)
(6.13572e-09 -1.06131e-06 0)
(6.08224e-09 -1.06248e-06 0)
(6.02867e-09 -1.06364e-06 0)
(5.97504e-09 -1.0648e-06 0)
(5.92133e-09 -1.06594e-06 0)
(5.86755e-09 -1.06709e-06 0)
(5.8137e-09 -1.06822e-06 0)
(5.75978e-09 -1.06934e-06 0)
(5.7058e-09 -1.07046e-06 0)
(5.65175e-09 -1.07157e-06 0)
(5.59764e-09 -1.07267e-06 0)
(5.54346e-09 -1.07376e-06 0)
(5.48922e-09 -1.07485e-06 0)
(5.43492e-09 -1.07593e-06 0)
(5.38057e-09 -1.07699e-06 0)
(5.32615e-09 -1.07805e-06 0)
(5.27168e-09 -1.07911e-06 0)
(5.21715e-09 -1.08015e-06 0)
(5.16257e-09 -1.08119e-06 0)
(5.10794e-09 -1.08221e-06 0)
(5.05325e-09 -1.08323e-06 0)
(4.99852e-09 -1.08424e-06 0)
(4.94374e-09 -1.08524e-06 0)
(4.88891e-09 -1.08623e-06 0)
(4.83404e-09 -1.08722e-06 0)
(4.77912e-09 -1.08819e-06 0)
(4.72416e-09 -1.08916e-06 0)
(4.66916e-09 -1.09011e-06 0)
(4.61413e-09 -1.09106e-06 0)
(4.55905e-09 -1.092e-06 0)
(4.50394e-09 -1.09293e-06 0)
(4.4488e-09 -1.09385e-06 0)
(4.39362e-09 -1.09476e-06 0)
(4.33845e-09 -1.09566e-06 0)
(4.28307e-09 -1.09655e-06 0)
(4.22847e-09 -1.09746e-06 0)
(4.17088e-09 -1.09825e-06 0)
(4.12817e-09 -1.09934e-06 0)
(4.03324e-09 -1.10001e-06 0)
(3.90761e-09 -1.10048e-06 0)
(3.84542e-09 -1.10165e-06 0)
(3.80446e-09 -1.10244e-06 0)
(3.76265e-09 -1.10297e-06 0)
(3.7214e-09 -1.10366e-06 0)
(3.67959e-09 -1.10442e-06 0)
(3.63722e-09 -1.10516e-06 0)
(3.59426e-09 -1.10589e-06 0)
(3.55072e-09 -1.1066e-06 0)
(3.50661e-09 -1.10732e-06 0)
(3.46191e-09 -1.10804e-06 0)
(3.41665e-09 -1.10876e-06 0)
(3.37082e-09 -1.10947e-06 0)
(3.32442e-09 -1.11018e-06 0)
(3.27746e-09 -1.11089e-06 0)
(3.22994e-09 -1.1116e-06 0)
(3.18186e-09 -1.11231e-06 0)
(3.13322e-09 -1.11301e-06 0)
(3.08402e-09 -1.11371e-06 0)
(3.03427e-09 -1.11441e-06 0)
(2.98396e-09 -1.1151e-06 0)
(2.9331e-09 -1.11578e-06 0)
(2.88169e-09 -1.11646e-06 0)
(2.82973e-09 -1.11714e-06 0)
(2.77722e-09 -1.11781e-06 0)
(2.72416e-09 -1.11848e-06 0)
(2.67055e-09 -1.11914e-06 0)
(2.6164e-09 -1.1198e-06 0)
(2.5617e-09 -1.12044e-06 0)
(2.50647e-09 -1.12109e-06 0)
(2.45069e-09 -1.12172e-06 0)
(2.39438e-09 -1.12235e-06 0)
(2.33753e-09 -1.12296e-06 0)
(2.28015e-09 -1.12357e-06 0)
(2.22224e-09 -1.12417e-06 0)
(2.1638e-09 -1.12477e-06 0)
(2.10484e-09 -1.12535e-06 0)
(2.04535e-09 -1.12592e-06 0)
(1.98535e-09 -1.12648e-06 0)
(1.92484e-09 -1.12703e-06 0)
(1.86381e-09 -1.12757e-06 0)
(1.80228e-09 -1.1281e-06 0)
(1.74025e-09 -1.12861e-06 0)
(1.67772e-09 -1.12911e-06 0)
(1.6147e-09 -1.1296e-06 0)
(1.55119e-09 -1.13008e-06 0)
(1.48719e-09 -1.13054e-06 0)
(1.42273e-09 -1.13098e-06 0)
(1.35779e-09 -1.13141e-06 0)
(1.29238e-09 -1.13183e-06 0)
(1.22652e-09 -1.13223e-06 0)
(1.16021e-09 -1.13261e-06 0)
(1.09345e-09 -1.13297e-06 0)
(1.02626e-09 -1.13332e-06 0)
(9.58636e-10 -1.13364e-06 0)
(8.90593e-10 -1.13395e-06 0)
(8.22136e-10 -1.13424e-06 0)
(7.53276e-10 -1.1345e-06 0)
(6.8402e-10 -1.13475e-06 0)
(6.14379e-10 -1.13497e-06 0)
(5.44361e-10 -1.13517e-06 0)
(4.73979e-10 -1.13535e-06 0)
(4.0324e-10 -1.13551e-06 0)
(3.32157e-10 -1.13564e-06 0)
(2.60741e-10 -1.13574e-06 0)
(1.89004e-10 -1.13583e-06 0)
(1.16957e-10 -1.13588e-06 0)
(4.46128e-11 -1.1359e-06 0)
(-2.80154e-11 -1.1359e-06 0)
(-1.00915e-10 -1.13587e-06 0)
(-1.74071e-10 -1.13581e-06 0)
(-2.4747e-10 -1.13573e-06 0)
(-3.21098e-10 -1.1356e-06 0)
(-3.9494e-10 -1.13545e-06 0)
(-4.68979e-10 -1.13527e-06 0)
(-5.43201e-10 -1.13505e-06 0)
(-6.17588e-10 -1.1348e-06 0)
(-6.92124e-10 -1.13452e-06 0)
(-7.66792e-10 -1.1342e-06 0)
(-8.41574e-10 -1.13384e-06 0)
(-9.16452e-10 -1.13345e-06 0)
(-9.91407e-10 -1.13302e-06 0)
(-1.06642e-09 -1.13255e-06 0)
(-1.14147e-09 -1.13204e-06 0)
(-1.21654e-09 -1.13149e-06 0)
(-1.29161e-09 -1.1309e-06 0)
(-1.36665e-09 -1.13027e-06 0)
(-1.44165e-09 -1.1296e-06 0)
(-1.51658e-09 -1.12888e-06 0)
(-1.59143e-09 -1.12812e-06 0)
(-1.66616e-09 -1.12731e-06 0)
(-1.74076e-09 -1.12646e-06 0)
(-1.8152e-09 -1.12556e-06 0)
(-1.88945e-09 -1.12461e-06 0)
(-1.9635e-09 -1.12362e-06 0)
(-2.03731e-09 -1.12258e-06 0)
(-2.11086e-09 -1.12148e-06 0)
(-2.18413e-09 -1.12034e-06 0)
(-2.25709e-09 -1.11914e-06 0)
(-2.32972e-09 -1.11789e-06 0)
(-2.40197e-09 -1.11659e-06 0)
(-2.47384e-09 -1.11523e-06 0)
(-2.54528e-09 -1.11382e-06 0)
(-2.61627e-09 -1.11236e-06 0)
(-2.68679e-09 -1.11083e-06 0)
(-2.7568e-09 -1.10925e-06 0)
(-2.82628e-09 -1.10762e-06 0)
(-2.89519e-09 -1.10592e-06 0)
(-2.9635e-09 -1.10416e-06 0)
(-3.03119e-09 -1.10235e-06 0)
(-3.09823e-09 -1.10047e-06 0)
(-3.16458e-09 -1.09853e-06 0)
(-3.23021e-09 -1.09653e-06 0)
(-3.2951e-09 -1.09447e-06 0)
(-3.35921e-09 -1.09234e-06 0)
(-3.42252e-09 -1.09015e-06 0)
(-3.48498e-09 -1.0879e-06 0)
(-3.54658e-09 -1.08558e-06 0)
(-3.60728e-09 -1.08319e-06 0)
(-3.66704e-09 -1.08074e-06 0)
(-3.72585e-09 -1.07822e-06 0)
(-3.78366e-09 -1.07563e-06 0)
(-3.84045e-09 -1.07297e-06 0)
(-3.89619e-09 -1.07025e-06 0)
(-3.95085e-09 -1.06746e-06 0)
(-4.0044e-09 -1.0646e-06 0)
(-4.0568e-09 -1.06167e-06 0)
(-4.10804e-09 -1.05867e-06 0)
(-4.15808e-09 -1.05559e-06 0)
(-4.2069e-09 -1.05245e-06 0)
(-4.25446e-09 -1.04924e-06 0)
(-4.30074e-09 -1.04596e-06 0)
(-4.34571e-09 -1.04261e-06 0)
(-4.38934e-09 -1.03918e-06 0)
(-4.43161e-09 -1.03569e-06 0)
(-4.4725e-09 -1.03212e-06 0)
(-4.51197e-09 -1.02848e-06 0)
(-4.55001e-09 -1.02478e-06 0)
(-4.58658e-09 -1.02099e-06 0)
(-4.62166e-09 -1.01714e-06 0)
(-4.65523e-09 -1.01322e-06 0)
(-4.68728e-09 -1.00923e-06 0)
(-4.71775e-09 -1.00517e-06 0)
(-4.74666e-09 -1.00104e-06 0)
(-4.77396e-09 -9.96833e-07 0)
(-4.79965e-09 -9.92562e-07 0)
(-4.82369e-09 -9.88222e-07 0)
(-4.84607e-09 -9.83814e-07 0)
(-4.86678e-09 -9.79338e-07 0)
(-4.88578e-09 -9.74794e-07 0)
(-4.90309e-09 -9.70185e-07 0)
(-4.91866e-09 -9.65509e-07 0)
(-4.9325e-09 -9.60769e-07 0)
(-4.94459e-09 -9.55965e-07 0)
(-4.95493e-09 -9.51098e-07 0)
(-4.9635e-09 -9.46168e-07 0)
(-4.9703e-09 -9.41178e-07 0)
(-4.97533e-09 -9.36126e-07 0)
(-4.97861e-09 -9.31017e-07 0)
(-4.9801e-09 -9.25848e-07 0)
(-4.97985e-09 -9.20625e-07 0)
(-4.97783e-09 -9.15344e-07 0)
(-4.97408e-09 -9.10011e-07 0)
(-4.96858e-09 -9.04623e-07 0)
(-4.96138e-09 -8.99186e-07 0)
(-4.95247e-09 -8.93696e-07 0)
(-4.94189e-09 -8.88161e-07 0)
(-4.92962e-09 -8.82575e-07 0)
(-4.91573e-09 -8.76947e-07 0)
(-4.90019e-09 -8.71272e-07 0)
(-4.88306e-09 -8.65557e-07 0)
(-4.86432e-09 -8.59798e-07 0)
(-4.84402e-09 -8.54003e-07 0)
(-4.82214e-09 -8.48167e-07 0)
(-4.79872e-09 -8.42299e-07 0)
(-4.77371e-09 -8.36391e-07 0)
(-4.74713e-09 -8.30462e-07 0)
(-4.71908e-09 -8.24471e-07 0)
(-4.68894e-09 -8.18556e-07 0)
(-4.65894e-09 -8.12275e-07 0)
(-4.61664e-09 -8.06465e-07 0)
(-4.56516e-09 -8.00039e-07 0)
(-4.51881e-09 -7.92243e-07 0)
(-4.47333e-09 -7.8496e-07 0)
(-4.42839e-09 -7.77927e-07 0)
(-4.38294e-09 -7.70811e-07 0)
(-4.33671e-09 -7.63725e-07 0)
(-4.28963e-09 -7.56723e-07 0)
(-4.24181e-09 -7.49826e-07 0)
(-4.19325e-09 -7.43005e-07 0)
(-4.14405e-09 -7.36262e-07 0)
(-4.09423e-09 -7.29591e-07 0)
(-4.0439e-09 -7.23008e-07 0)
(-3.99306e-09 -7.16501e-07 0)
(-3.94185e-09 -7.10083e-07 0)
(-3.89025e-09 -7.03742e-07 0)
(-3.8384e-09 -6.97491e-07 0)
(-3.78628e-09 -6.91318e-07 0)
(-3.73401e-09 -6.85235e-07 0)
(-3.68157e-09 -6.79231e-07 0)
(-3.62906e-09 -6.73318e-07 0)
(-3.57647e-09 -6.67484e-07 0)
(-3.52388e-09 -6.6174e-07 0)
(-3.47127e-09 -6.56077e-07 0)
(-3.41872e-09 -6.50503e-07 0)
(-3.3662e-09 -6.4501e-07 0)
(-3.31379e-09 -6.39606e-07 0)
(-3.26144e-09 -6.34282e-07 0)
(-3.20923e-09 -6.29048e-07 0)
(-3.15712e-09 -6.23893e-07 0)
(-3.10518e-09 -6.18827e-07 0)
(-3.05336e-09 -6.13841e-07 0)
(-3.00172e-09 -6.08943e-07 0)
(-2.95023e-09 -6.04123e-07 0)
(-2.89895e-09 -5.99392e-07 0)
(-2.84782e-09 -5.94738e-07 0)
(-2.79691e-09 -5.90172e-07 0)
(-2.74618e-09 -5.85684e-07 0)
(-2.69568e-09 -5.81282e-07 0)
(-2.64536e-09 -5.76957e-07 0)
(-2.59529e-09 -5.72719e-07 0)
(-2.54541e-09 -5.68556e-07 0)
(-2.49578e-09 -5.64479e-07 0)
(-2.44637e-09 -5.60477e-07 0)
(-2.3972e-09 -5.5656e-07 0)
(-2.34825e-09 -5.52718e-07 0)
(-2.29955e-09 -5.48959e-07 0)
(-2.25107e-09 -5.45275e-07 0)
(-2.20285e-09 -5.41673e-07 0)
(-2.15484e-09 -5.38145e-07 0)
(-2.10708e-09 -5.34699e-07 0)
(-2.05954e-09 -5.31325e-07 0)
(-2.01223e-09 -5.28033e-07 0)
(-1.96514e-09 -5.24813e-07 0)
(-1.91828e-09 -5.21673e-07 0)
(-1.87162e-09 -5.18605e-07 0)
(-1.82518e-09 -5.15616e-07 0)
(-1.77894e-09 -5.12698e-07 0)
(-1.7329e-09 -5.09859e-07 0)
(-1.68704e-09 -5.07091e-07 0)
(-1.64139e-09 -5.044e-07 0)
(-1.5959e-09 -5.01779e-07 0)
(-1.55059e-09 -4.99236e-07 0)
(-1.50545e-09 -4.96762e-07 0)
(-1.46048e-09 -4.94364e-07 0)
(-1.41565e-09 -4.92036e-07 0)
(-1.37099e-09 -4.89783e-07 0)
(-1.32647e-09 -4.87599e-07 0)
(-1.28209e-09 -4.85491e-07 0)
(-1.23785e-09 -4.83451e-07 0)
(-1.19374e-09 -4.81485e-07 0)
(-1.14975e-09 -4.79587e-07 0)
(-1.10588e-09 -4.77763e-07 0)
(-1.06211e-09 -4.76007e-07 0)
(-1.01844e-09 -4.74324e-07 0)
(-9.74866e-10 -4.7271e-07 0)
(-9.31368e-10 -4.71167e-07 0)
(-8.8793e-10 -4.69693e-07 0)
(-8.44544e-10 -4.6829e-07 0)
(-8.01186e-10 -4.66956e-07 0)
(-7.57845e-10 -4.65693e-07 0)
(-7.14501e-10 -4.64499e-07 0)
(-6.71147e-10 -4.63376e-07 0)
(-6.27782e-10 -4.62322e-07 0)
(-5.8443e-10 -4.6134e-07 0)
(-5.41148e-10 -4.60426e-07 0)
(-4.98061e-10 -4.59588e-07 0)
(-4.55364e-10 -4.58808e-07 0)
(-4.13392e-10 -4.58139e-07 0)
(-3.72486e-10 -4.57401e-07 0)
(-3.33322e-10 -4.57179e-07 0)
(-2.95091e-10 -4.55491e-07 0)
(-2.60751e-10 -4.58739e-07 0)
(-2.15197e-10 -4.44639e-07 0)
(-2.03875e-10 -4.80795e-07 0)
(-1.11486e-10 -4.19659e-07 0)
)
;
    }
    bottomWall
    {
        type            calculated;
        value           nonuniform List<vector> 
449
(
(-53.1779 -0.961757 0)
(-35.0586 -0.00282307 0)
(-34.6653 -0.000244877 0)
(-33.384 -0.000341151 0)
(-32.3302 -0.000311874 0)
(-31.234 -0.000316225 0)
(-30.1431 -0.000302563 0)
(-29.1412 -0.0002728 0)
(-28.2562 -0.000239644 0)
(-27.4824 -0.000209389 0)
(-26.8049 -0.000183524 0)
(-26.2084 -0.000162012 0)
(-25.6781 -0.000144386 0)
(-25.2022 -0.000128911 0)
(-24.7782 -0.000115357 0)
(-24.3953 -0.000104541 0)
(-24.0453 -9.49392e-05 0)
(-23.7284 -8.66225e-05 0)
(-23.4353 -7.99787e-05 0)
(-23.1639 -7.36094e-05 0)
(-22.9148 -6.81566e-05 0)
(-22.6808 -6.32429e-05 0)
(-22.4656 -5.86825e-05 0)
(-22.263 -5.5286e-05 0)
(-22.0709 -5.18423e-05 0)
(-21.8923 -4.82187e-05 0)
(-21.7255 -4.52162e-05 0)
(-21.5676 -4.24388e-05 0)
(-21.4201 -4.00468e-05 0)
(-21.2786 -3.84253e-05 0)
(-21.1421 -3.64896e-05 0)
(-21.0142 -3.42112e-05 0)
(-20.8937 -3.2335e-05 0)
(-20.7789 -3.0685e-05 0)
(-20.6698 -2.94492e-05 0)
(-20.5634 -2.83612e-05 0)
(-20.4619 -2.69289e-05 0)
(-20.3656 -2.58609e-05 0)
(-20.2714 -2.48992e-05 0)
(-20.1819 -2.37281e-05 0)
(-20.096 -2.25783e-05 0)
(-20.0146 -2.14695e-05 0)
(-19.9366 -2.06837e-05 0)
(-19.8607 -1.98718e-05 0)
(-19.7884 -1.89495e-05 0)
(-19.719 -1.8322e-05 0)
(-19.651 -1.77463e-05 0)
(-19.5856 -1.71728e-05 0)
(-19.5216 -1.68111e-05 0)
(-19.4586 -1.6233e-05 0)
(-19.3988 -1.54451e-05 0)
(-19.3416 -1.4961e-05 0)
(-19.285 -1.48009e-05 0)
(-19.2287 -1.42437e-05 0)
(-19.1763 -1.35141e-05 0)
(-19.1253 -1.31043e-05 0)
(-19.0758 -1.27583e-05 0)
(-19.0273 -1.25089e-05 0)
(-18.9794 -1.19768e-05 0)
(-18.9348 -1.15993e-05 0)
(-18.8896 -1.12899e-05 0)
(-18.8472 -1.09742e-05 0)
(-18.8042 -1.09309e-05 0)
(-18.7619 -1.05795e-05 0)
(-18.7217 -1.00699e-05 0)
(-18.6832 -9.79852e-06 0)
(-18.6448 -9.63533e-06 0)
(-18.6075 -9.24137e-06 0)
(-18.5721 -8.78303e-06 0)
(-18.5382 -8.76483e-06 0)
(-18.5026 -8.75544e-06 0)
(-18.4687 -8.43733e-06 0)
(-18.4356 -7.92967e-06 0)
(-18.4055 -7.65882e-06 0)
(-18.3744 -7.49876e-06 0)
(-18.3455 -7.22469e-06 0)
(-18.3163 -7.20985e-06 0)
(-18.2873 -7.30389e-06 0)
(-18.2572 -7.33852e-06 0)
(-18.2278 -7.07163e-06 0)
(-18.1998 -6.7157e-06 0)
(-18.1732 -6.49331e-06 0)
(-18.1469 -6.45363e-06 0)
(-18.1203 -6.51952e-06 0)
(-18.0934 -6.54734e-06 0)
(-18.0666 -6.38922e-06 0)
(-18.0409 -5.77965e-06 0)
(-18.0191 -5.3668e-06 0)
(-17.9967 -5.54703e-06 0)
(-17.9731 -5.64184e-06 0)
(-17.9497 -5.70545e-06 0)
(-17.9255 -5.71083e-06 0)
(-17.9019 -5.5764e-06 0)
(-17.8787 -5.60823e-06 0)
(-17.8547 -5.49967e-06 0)
(-17.8324 -5.0749e-06 0)
(-17.8121 -4.8557e-06 0)
(-17.7915 -4.84725e-06 0)
(-17.771 -4.77004e-06 0)
(-17.7509 -4.69641e-06 0)
(-17.731 -4.57281e-06 0)
(-17.7118 -4.52327e-06 0)
(-17.6922 -4.60574e-06 0)
(-17.6723 -4.50493e-06 0)
(-17.6535 -4.33665e-06 0)
(-17.6351 -4.29407e-06 0)
(-17.6167 -4.02737e-06 0)
(-17.6006 -3.74547e-06 0)
(-17.5844 -3.85454e-06 0)
(-17.5671 -3.88896e-06 0)
(-17.5505 -4.08871e-06 0)
(-17.5313 -4.20186e-06 0)
(-17.5136 -4.26867e-06 0)
(-17.4937 -4.35231e-06 0)
(-17.4753 -4.10108e-06 0)
(-17.4577 -3.80116e-06 0)
(-17.4419 -3.52154e-06 0)
(-17.4267 -3.52827e-06 0)
(-17.4107 -3.46374e-06 0)
(-17.396 -3.13357e-06 0)
(-17.3829 -3.07785e-06 0)
(-17.3685 -3.26387e-06 0)
(-17.3536 -3.38615e-06 0)
(-17.338 -3.48095e-06 0)
(-17.3222 -3.46779e-06 0)
(-17.3067 -3.36193e-06 0)
(-17.2918 -3.28197e-06 0)
(-17.2771 -3.15169e-06 0)
(-17.2634 -2.84789e-06 0)
(-17.2513 -2.6329e-06 0)
(-17.2395 -2.5685e-06 0)
(-17.2279 -2.66565e-06 0)
(-17.215 -2.80498e-06 0)
(-17.202 -2.63654e-06 0)
(-17.1907 -2.66185e-06 0)
(-17.1774 -2.96369e-06 0)
(-17.1632 -3.01133e-06 0)
(-17.1494 -3.00121e-06 0)
(-17.1353 -3.05489e-06 0)
(-17.121 -3.04388e-06 0)
(-17.107 -2.90712e-06 0)
(-17.0939 -2.6806e-06 0)
(-17.082 -2.31612e-06 0)
(-17.0724 -2.03984e-06 0)
(-17.0629 -2.09272e-06 0)
(-17.0527 -2.0215e-06 0)
(-17.0438 -2.10445e-06 0)
(-17.0327 -2.43406e-06 0)
(-17.0206 -2.44162e-06 0)
(-17.0095 -2.33541e-06 0)
(-16.9983 -2.29443e-06 0)
(-16.9875 -2.24889e-06 0)
(-16.9767 -2.30418e-06 0)
(-16.9652 -2.50728e-06 0)
(-16.9525 -2.39451e-06 0)
(-16.9422 -2.03014e-06 0)
(-16.9329 -2.11597e-06 0)
(-16.9216 -2.23869e-06 0)
(-16.9112 -2.0043e-06 0)
(-16.9023 -1.88335e-06 0)
(-16.8929 -1.97665e-06 0)
(-16.8829 -1.86745e-06 0)
(-16.8746 -1.96556e-06 0)
(-16.8635 -2.25326e-06 0)
(-16.8524 -2.01472e-06 0)
(-16.8438 -1.74196e-06 0)
(-16.8352 -1.91358e-06 0)
(-16.8248 -2.02629e-06 0)
(-16.8152 -1.78627e-06 0)
(-16.8071 -1.77971e-06 0)
(-16.7974 -1.67135e-06 0)
(-16.7904 -1.54995e-06 0)
(-16.782 -1.52812e-06 0)
(-16.7756 -1.41459e-06 0)
(-16.769 -1.568e-06 0)
(-16.7614 -1.71601e-06 0)
(-16.7532 -1.80063e-06 0)
(-16.7446 -1.73766e-06 0)
(-16.737 -1.37528e-06 0)
(-16.7318 -1.0594e-06 0)
(-16.7269 -1.1584e-06 0)
(-16.7206 -1.22718e-06 0)
(-16.7151 -1.19629e-06 0)
(-16.7089 -1.52501e-06 0)
(-16.6999 -1.69819e-06 0)
(-16.6919 -1.57139e-06 0)
(-16.6839 -1.4576e-06 0)
(-16.6769 -1.19686e-06 0)
(-16.6717 -1.1005e-06 0)
(-16.6653 -1.35408e-06 0)
(-16.6571 -1.38257e-06 0)
(-16.6505 -1.11351e-06 0)
(-16.6451 -1.29565e-06 0)
(-16.6363 -1.43701e-06 0)
(-16.6292 -1.22802e-06 0)
(-16.6226 -1.17619e-06 0)
(-16.616 -1.06811e-06 0)
(-16.6105 -1.01623e-06 0)
(-16.6043 -1.11998e-06 0)
(-16.5974 -1.13822e-06 0)
(-16.5909 -1.03115e-06 0)
(-16.5851 -1.06319e-06 0)
(-16.5779 -1.21114e-06 0)
(-16.5702 -1.19313e-06 0)
(-16.5632 -1.0474e-06 0)
(-16.5573 -9.72746e-07 0)
(-16.551 -1.09956e-06 0)
(-16.5432 -1.09734e-06 0)
(-16.537 -1.00936e-06 0)
(-16.5302 -1.08777e-06 0)
(-16.5226 -1.1796e-06 0)
(-16.5143 -1.13149e-06 0)
(-16.5074 -8.91818e-07 0)
(-16.5023 -9.2604e-07 0)
(-16.4946 -1.13488e-06 0)
(-16.4864 -1.1954e-06 0)
(-16.4777 -1.17563e-06 0)
(-16.4698 -9.76287e-07 0)
(-16.4639 -9.15772e-07 0)
(-16.4565 -1.06744e-06 0)
(-16.4482 -9.39931e-07 0)
(-16.4427 -7.24736e-07 0)
(-16.4375 -7.09715e-07 0)
(-16.4321 -8.13379e-07 0)
(-16.425 -9.0821e-07 0)
(-16.418 -8.22463e-07 0)
(-16.4122 -8.5143e-07 0)
(-16.4046 -8.75416e-07 0)
(-16.3983 -7.29431e-07 0)
(-16.3929 -7.24429e-07 0)
(-16.3866 -6.82182e-07 0)
(-16.3818 -5.1303e-07 0)
(-16.3782 -5.51264e-07 0)
(-16.3726 -6.58195e-07 0)
(-16.367 -5.64486e-07 0)
(-16.3629 -5.00651e-07 0)
(-16.3583 -6.64237e-07 0)
(-16.3511 -7.31433e-07 0)
(-16.3453 -6.52963e-07 0)
(-16.3394 -6.79183e-07 0)
(-16.3329 -6.19802e-07 0)
(-16.328 -5.02124e-07 0)
(-16.3236 -5.18292e-07 0)
(-16.3182 -6.36512e-07 0)
(-16.3114 -6.31527e-07 0)
(-16.3061 -5.13846e-07 0)
(-16.3015 -5.98066e-07 0)
(-16.2945 -5.7968e-07 0)
(-16.2901 -3.96255e-07 0)
(-16.2867 -3.30136e-07 0)
(-16.2835 -3.91539e-07 0)
(-16.2785 -5.73617e-07 0)
(-16.2714 -6.70588e-07 0)
(-16.2643 -5.62253e-07 0)
(-16.2595 -4.89487e-07 0)
(-16.2538 -5.57846e-07 0)
(-16.2474 -4.95847e-07 0)
(-16.2431 -3.94465e-07 0)
(-16.2388 -4.95569e-07 0)
(-16.232 -5.57193e-07 0)
(-16.2262 -4.04487e-07 0)
(-16.2229 -2.88408e-07 0)
(-16.2196 -3.67124e-07 0)
(-16.2143 -4.10372e-07 0)
(-16.21 -3.64824e-07 0)
(-16.2056 -4.40578e-07 0)
(-16.1993 -4.57228e-07 0)
(-16.1945 -3.35331e-07 0)
(-16.1911 -3.28712e-07 0)
(-16.1863 -3.47003e-07 0)
(-16.1824 -3.6205e-07 0)
(-16.1771 -3.71124e-07 0)
(-16.1729 -3.02429e-07 0)
(-16.1693 -3.23833e-07 0)
(-16.1643 -3.71841e-07 0)
(-16.1594 -3.06217e-07 0)
(-16.1561 -2.50593e-07 0)
(-16.1525 -3.62054e-07 0)
(-16.146 -3.96413e-07 0)
(-16.1414 -3.39e-07 0)
(-16.1365 -2.97036e-07 0)
(-16.133 -2.9585e-07 0)
(-16.128 -3.43326e-07 0)
(-16.1231 -2.9953e-07 0)
(-16.1193 -2.75335e-07 0)
(-16.1149 -3.07161e-07 0)
(-16.1099 -3.57769e-07 0)
(-16.104 -3.38656e-07 0)
(-16.0996 -2.92129e-07 0)
(-16.0949 -3.22681e-07 0)
(-16.0895 -2.7734e-07 0)
(-16.0862 -2.22359e-07 0)
(-16.0823 -2.86295e-07 0)
(-16.0768 -3.0887e-07 0)
(-16.0721 -3.27251e-07 0)
(-16.0659 -3.28031e-07 0)
(-16.0612 -2.50099e-07 0)
(-16.0574 -2.74238e-07 0)
(-16.0518 -2.80177e-07 0)
(-16.0478 -2.37787e-07 0)
(-16.0436 -2.5516e-07 0)
(-16.0389 -2.16164e-07 0)
(-16.0359 -1.39662e-07 0)
(-16.0339 -1.35233e-07 0)
(-16.0309 -2.57142e-07 0)
(-16.0243 -3.27874e-07 0)
(-16.0186 -3.04221e-07 0)
(-16.0127 -3.06953e-07 0)
(-16.0068 -2.55173e-07 0)
(-16.0029 -2.14905e-07 0)
(-15.9986 -2.37468e-07 0)
(-15.9936 -2.0503e-07 0)
(-15.9905 -1.43036e-07 0)
(-15.9879 -1.79726e-07 0)
(-15.983 -2.43982e-07 0)
(-15.9778 -2.22843e-07 0)
(-15.9738 -1.97194e-07 0)
(-15.9695 -2.20833e-07 0)
(-15.9645 -2.15435e-07 0)
(-15.9604 -1.64211e-07 0)
(-15.9574 -1.46895e-07 0)
(-15.954 -1.99233e-07 0)
(-15.9486 -2.34182e-07 0)
(-15.9435 -1.8512e-07 0)
(-15.9403 -1.33722e-07 0)
(-15.9374 -1.51732e-07 0)
(-15.9332 -1.68024e-07 0)
(-15.9295 -1.73107e-07 0)
(-15.925 -1.58853e-07 0)
(-15.9219 -1.33066e-07 0)
(-15.9186 -1.83758e-07 0)
(-15.9128 -2.19553e-07 0)
(-15.9077 -1.69132e-07 0)
(-15.9045 -1.23184e-07 0)
(-15.9015 -1.40498e-07 0)
(-15.8973 -1.76111e-07 0)
(-15.8924 -1.55993e-07 0)
(-15.8892 -1.18157e-07 0)
(-15.8863 -1.22908e-07 0)
(-15.8827 -1.13009e-07 0)
(-15.8803 -8.79762e-08 0)
(-15.878 -1.19751e-07 0)
(-15.8737 -1.39259e-07 0)
(-15.8702 -1.34509e-07 0)
(-15.866 -1.52766e-07 0)
(-15.8615 -1.29683e-07 0)
(-15.8586 -1.11351e-07 0)
(-15.8551 -1.32037e-07 0)
(-15.8509 -1.07644e-07 0)
(-15.8488 -7.58911e-08 0)
(-15.8464 -8.70887e-08 0)
(-15.8436 -8.43248e-08 0)
(-15.8414 -8.37029e-08 0)
(-15.8384 -8.1322e-08 0)
(-15.8361 -7.74984e-08 0)
(-15.8327 -1.08232e-07 0)
(-15.8277 -1.18055e-07 0)
(-15.8236 -1.14566e-07 0)
(-15.8188 -1.27313e-07 0)
(-15.8137 -1.57119e-07 0)
(-15.8066 -1.7289e-07 0)
(-15.8003 -1.34755e-07 0)
(-15.7963 -8.95404e-08 0)
(-15.7936 -7.97936e-08 0)
(-15.7903 -8.31459e-08 0)
(-15.7872 -7.2438e-08 0)
(-15.7848 -6.50417e-08 0)
(-15.7823 -5.52515e-08 0)
(-15.7806 -5.37893e-08 0)
(-15.7782 -8.48341e-08 0)
(-15.774 -9.76967e-08 0)
(-15.7706 -6.95347e-08 0)
(-15.7687 -5.74944e-08 0)
(-15.7662 -5.91625e-08 0)
(-15.7642 -4.00729e-08 0)
(-15.7632 -2.74825e-08 0)
(-15.7621 -5.14026e-08 0)
(-15.7592 -8.13653e-08 0)
(-15.7558 -7.67601e-08 0)
(-15.7533 -6.54955e-08 0)
(-15.7507 -5.5012e-08 0)
(-15.7491 -4.40185e-08 0)
(-15.7474 -4.88582e-08 0)
(-15.7454 -5.04234e-08 0)
(-15.7435 -5.45922e-08 0)
(-15.7411 -6.13621e-08 0)
(-15.7388 -5.50082e-08 0)
(-15.7369 -4.83955e-08 0)
(-15.7351 -3.85148e-08 0)
(-15.734 -2.34445e-08 0)
(-15.7334 -1.86978e-08 0)
(-15.7326 -3.07796e-08 0)
(-15.731 -4.99717e-08 0)
(-15.7288 -6.1512e-08 0)
(-15.7262 -5.57495e-08 0)
(-15.7245 -4.74463e-08 0)
(-15.7226 -3.71313e-08 0)
(-15.7217 -3.36633e-08 0)
(-15.7201 -3.97869e-08 0)
(-15.7186 -2.48674e-08 0)
(-15.7182 -1.29486e-08 0)
(-15.7177 -1.90652e-08 0)
(-15.7168 -3.24364e-08 0)
(-15.7153 -4.09949e-08 0)
(-15.7137 -4.16526e-08 0)
(-15.7121 -3.94178e-08 0)
(-15.7107 -4.24875e-08 0)
(-15.7088 -4.74842e-08 0)
(-15.707 -4.04102e-08 0)
(-15.7057 -4.66685e-08 0)
(-15.7034 -4.06763e-08 0)
(-15.7026 -2.46538e-08 0)
(-15.7015 -2.6428e-08 0)
(-15.7006 -2.81437e-08 0)
(-15.6994 -1.79953e-08 0)
(-15.6993 -1.00099e-09 0)
(-15.6995 3.92804e-09 0)
(-15.6997 5.2378e-09 0)
(-15.6999 -7.0406e-09 0)
(-15.6991 -3.71708e-08 0)
(-15.6969 -5.45085e-08 0)
(-15.6948 -4.67148e-08 0)
(-15.6933 -2.98951e-08 0)
(-15.6925 -2.23785e-08 0)
(-15.6916 -2.02239e-08 0)
(-15.691 -2.08506e-08 0)
(-15.6901 -2.35586e-08 0)
(-15.6893 -2.03801e-08 0)
(-15.6886 -2.29045e-08 0)
(-15.6875 -3.70664e-08 0)
(-15.6856 -3.48149e-08 0)
(-15.6848 -3.01243e-08 0)
(-15.6833 -3.88831e-08 0)
(-15.6818 -4.11258e-08 0)
(-15.6801 -2.5843e-08 0)
(-15.6798 -7.03527e-09 0)
(-15.6797 -9.89767e-09 0)
(-15.6791 -1.66122e-08 0)
(-15.6784 -2.24629e-08 0)
(-15.6774 -3.17036e-08 0)
(-15.676 -2.85852e-08 0)
(-15.6752 -1.50134e-08 0)
(-15.6749 -8.04462e-09 0)
(-15.6746 -1.58727e-08 0)
(-15.6737 -1.79433e-08 0)
(-15.6732 -1.90271e-08 0)
(-15.6722 -1.49154e-08 0)
(-15.6721 -1.85019e-08 0)
(-15.6708 -1.82817e-08 0)
)
;
    }
    symmetry
    {
        type            symmetryPlane;
    }
    frontAndBack
    {
        type            empty;
    }
}


// ************************************************************************* //
