/*--------------------------------*- C++ -*----------------------------------*\
| =========                 |                                                 |
| \\      /  F ield         | OpenFOAM: The Open Source CFD Toolbox           |
|  \\    /   O peration     | Version:  v2012                                 |
|   \\  /    A nd           | Website:  www.openfoam.com                      |
|    \\/     M anipulation  |                                                 |
\*---------------------------------------------------------------------------*/
FoamFile
{
    version     2.0;
    format      ascii;
    class       volScalarField;
    location    "9";
    object      yPlus;
}
// * * * * * * * * * * * * * * * * * * * * * * * * * * * * * * * * * * * * * //

dimensions      [0 0 0 0 0 0 0];


internalField   uniform 0;

boundaryField
{
    inlet
    {
        type            calculated;
        value           uniform 0;
    }
    outlet
    {
        type            calculated;
        value           uniform 0;
    }
    topWall
    {
        type            calculated;
        value           nonuniform List<scalar> 
545
(
0.0830551
0.143831
0.184577
0.216848
0.244136
0.267978
0.289243
0.308475
0.326046
0.342221
0.357202
0.371142
0.384165
0.396372
0.407846
0.418656
0.428861
0.438514
0.447657
0.456332
0.464571
0.472406
0.479864
0.486971
0.493748
0.500216
0.506393
0.512298
0.517944
0.523348
0.528521
0.533477
0.538227
0.542782
0.547151
0.551344
0.55537
0.559236
0.562951
0.566521
0.569953
0.573253
0.576429
0.579484
0.582425
0.585256
0.587983
0.59061
0.59314
0.595579
0.597929
0.600196
0.602381
0.604489
0.606522
0.608484
0.610377
0.612204
0.613968
0.61567
0.617315
0.618903
0.620436
0.621918
0.623349
0.624732
0.626069
0.627361
0.628609
0.629816
0.630983
0.632111
0.633186
0.634224
0.635251
0.636268
0.637274
0.638271
0.639257
0.640234
0.641201
0.642158
0.643105
0.644043
0.644971
0.64589
0.6468
0.647701
0.648593
0.649476
0.65035
0.651215
0.652072
0.65292
0.653759
0.654593
0.65533
0.655987
0.656642
0.657297
0.65795
0.658603
0.659254
0.659904
0.660552
0.6612
0.661846
0.662491
0.663135
0.663778
0.664419
0.66506
0.665699
0.666336
0.666973
0.667608
0.668242
0.668874
0.669505
0.670135
0.670764
0.671391
0.672017
0.672641
0.673264
0.673886
0.674506
0.675125
0.675742
0.676358
0.676972
0.677585
0.678197
0.678807
0.679415
0.680023
0.680628
0.681232
0.681834
0.682435
0.683035
0.683632
0.684229
0.684823
0.685416
0.686007
0.686597
0.687185
0.687771
0.688356
0.688939
0.68952
0.6901
0.690678
0.691254
0.691828
0.692401
0.692971
0.693541
0.694108
0.694673
0.695237
0.695799
0.696358
0.696916
0.697473
0.698027
0.698579
0.69913
0.699678
0.700225
0.70077
0.701312
0.701853
0.702392
0.702928
0.703463
0.703996
0.704526
0.705055
0.705581
0.706106
0.706628
0.707148
0.707666
0.708182
0.708696
0.709208
0.709717
0.710224
0.710729
0.711232
0.711733
0.712231
0.712727
0.713221
0.713712
0.714202
0.714689
0.715173
0.715655
0.716135
0.716613
0.717088
0.71756
0.718031
0.718498
0.718964
0.719427
0.719887
0.720345
0.7208
0.721253
0.721704
0.722152
0.722597
0.72304
0.72348
0.723917
0.724352
0.724785
0.725214
0.725641
0.726065
0.726487
0.726906
0.727322
0.727736
0.728146
0.728554
0.728959
0.729362
0.729761
0.730158
0.730552
0.730943
0.731331
0.731716
0.732099
0.732478
0.732855
0.733228
0.733599
0.733967
0.734331
0.734693
0.735052
0.735407
0.73576
0.73611
0.736456
0.7368
0.73714
0.737477
0.737811
0.738142
0.73847
0.738794
0.739116
0.739434
0.739749
0.74006
0.740369
0.740674
0.740976
0.741275
0.74157
0.741862
0.742152
0.742416
0.74266
0.742905
0.743149
0.743393
0.743637
0.743881
0.744124
0.744367
0.74461
0.744852
0.745093
0.745334
0.745574
0.745813
0.746051
0.746288
0.746524
0.746759
0.746993
0.747225
0.747455
0.747684
0.747912
0.748137
0.748361
0.748582
0.748801
0.749018
0.749233
0.749445
0.749655
0.749862
0.750066
0.750267
0.750465
0.750659
0.750851
0.751038
0.751223
0.751402
0.751579
0.751751
0.751918
0.752081
0.75224
0.752394
0.752543
0.752686
0.752825
0.752958
0.753085
0.753206
0.753322
0.753431
0.753534
0.75363
0.753719
0.753801
0.753876
0.753944
0.754004
0.754056
0.7541
0.754136
0.754163
0.754181
0.754191
0.754191
0.754182
0.754163
0.754134
0.754095
0.754045
0.753985
0.753914
0.753832
0.753738
0.753632
0.753515
0.753385
0.753243
0.753087
0.752919
0.752737
0.752542
0.752333
0.752109
0.751871
0.751619
0.751351
0.751068
0.750769
0.750454
0.750123
0.749775
0.749411
0.749029
0.74863
0.748213
0.747778
0.747325
0.746853
0.746362
0.745852
0.745322
0.744773
0.744203
0.743613
0.743002
0.742371
0.741718
0.741043
0.740346
0.739628
0.738887
0.738123
0.737336
0.736526
0.735693
0.734835
0.733954
0.733048
0.732119
0.731164
0.730184
0.729179
0.728149
0.727093
0.726012
0.724904
0.72377
0.72261
0.721423
0.720209
0.718969
0.717702
0.716408
0.715086
0.713737
0.712361
0.710957
0.709525
0.708066
0.706579
0.705065
0.703523
0.701953
0.700355
0.698729
0.697076
0.695396
0.693688
0.691952
0.69019
0.688399
0.686583
0.684739
0.682869
0.680971
0.679049
0.677099
0.675125
0.673124
0.671099
0.669048
0.666974
0.664874
0.662751
0.660604
0.658435
0.656242
0.654027
0.65179
0.649532
0.647252
0.644953
0.642632
0.640294
0.637936
0.635559
0.632907
0.629993
0.627093
0.62421
0.621342
0.618493
0.615659
0.612845
0.610048
0.607274
0.604517
0.601784
0.59907
0.596381
0.593713
0.59107
0.588449
0.585855
0.583283
0.580739
0.578218
0.575725
0.573257
0.570817
0.568402
0.566017
0.563657
0.561327
0.559023
0.55675
0.554503
0.552287
0.550097
0.54794
0.545809
0.54371
0.54164
0.539601
0.53759
0.535612
0.533663
0.531746
0.529859
0.528004
0.526179
0.524387
0.522624
0.520895
0.519196
0.517531
0.515896
0.514295
0.512725
0.511188
0.509683
0.508212
0.506772
0.505366
0.503992
0.502653
0.501345
0.500072
0.498831
0.497626
0.496452
0.495314
0.494208
0.493138
0.4921
0.491099
0.49013
0.489197
0.488297
0.487433
0.486603
0.485809
0.485048
0.484324
0.483634
0.482981
0.482362
0.481779
0.481232
0.480721
0.480246
0.479807
0.479403
0.479036
0.478703
0.478404
0.478137
0.477903
0.477693
0.477539
0.477343
)
;
    }
    bottomWall
    {
        type            calculated;
        value           nonuniform List<scalar> 
449
(
0.00274329
0.00483219
0.00540679
0.00537108
0.00530933
0.00519252
0.00505095
0.00491034
0.00478104
0.00466518
0.00456203
0.00447005
0.00438735
0.00431239
0.00424536
0.00418434
0.00412822
0.00407728
0.00402978
0.00398559
0.00394496
0.0039065
0.0038712
0.00383769
0.00380578
0.00377613
0.00374842
0.00372212
0.00369756
0.00367383
0.00365077
0.00362927
0.00360898
0.00358964
0.00357123
0.00355314
0.00353588
0.00351952
0.00350338
0.0034881
0.00347343
0.00345958
0.00344629
0.00343333
0.00342102
0.00340921
0.00339754
0.00338634
0.00337529
0.0033644
0.00335411
0.00334427
0.00333447
0.00332466
0.00331566
0.00330684
0.0032983
0.00328987
0.00328159
0.00327391
0.00326607
0.00325876
0.00325123
0.00324381
0.00323675
0.00323001
0.00322324
0.0032167
0.00321057
0.00320469
0.00319843
0.00319248
0.00318673
0.00318161
0.0031762
0.00317127
0.00316621
0.00316114
0.00315578
0.00315052
0.00314557
0.00314091
0.0031363
0.00313161
0.00312678
0.00312196
0.00311741
0.00311371
0.00310976
0.00310559
0.00310141
0.00309704
0.00309282
0.00308863
0.00308425
0.00308027
0.00307668
0.00307301
0.00306936
0.00306577
0.00306217
0.00305875
0.00305518
0.00305156
0.00304816
0.00304481
0.00304149
0.0030387
0.00303586
0.0030328
0.00302986
0.00302633
0.00302313
0.00301943
0.0030161
0.0030129
0.00301012
0.00300741
0.00300452
0.00300191
0.00299962
0.00299702
0.00299432
0.0029915
0.00298865
0.0029858
0.00298308
0.00298036
0.00297788
0.00297575
0.00297364
0.00297156
0.00296917
0.00296684
0.00296481
0.0029623
0.00295965
0.00295711
0.00295448
0.00295187
0.00294927
0.00294685
0.00294468
0.00294304
0.00294133
0.00293947
0.0029379
0.00293582
0.00293359
0.00293157
0.00292955
0.00292757
0.0029256
0.00292339
0.002921
0.00291914
0.00291741
0.00291528
0.00291338
0.00291176
0.00291003
0.00290821
0.00290671
0.00290459
0.00290256
0.00290106
0.00289949
0.00289753
0.00289578
0.0028943
0.00289248
0.00289121
0.00288966
0.00288855
0.00288734
0.00288589
0.00288433
0.00288271
0.00288132
0.0028804
0.00287947
0.00287825
0.0028773
0.00287615
0.00287442
0.00287291
0.00287142
0.00287016
0.00286926
0.00286807
0.00286649
0.0028653
0.00286432
0.00286263
0.00286137
0.00286015
0.00285898
0.00285803
0.00285688
0.00285561
0.00285444
0.00285339
0.00285201
0.00285056
0.00284929
0.00284822
0.00284712
0.00284567
0.00284455
0.00284328
0.00284182
0.00284025
0.00283901
0.00283812
0.00283665
0.00283513
0.00283345
0.00283196
0.00283089
0.00282949
0.00282796
0.002827
0.00282607
0.0028251
0.0028238
0.00282255
0.0028215
0.00282009
0.00281898
0.00281802
0.00281689
0.00281608
0.0028155
0.00281452
0.00281351
0.00281276
0.00281188
0.00281055
0.00280951
0.00280847
0.00280731
0.00280643
0.00280561
0.00280459
0.00280332
0.00280238
0.00280157
0.00280026
0.00279953
0.00279897
0.00279846
0.00279753
0.0027962
0.00279487
0.00279399
0.0027929
0.00279175
0.00279107
0.00279032
0.002789
0.00278794
0.00278738
0.00278681
0.00278585
0.00278511
0.00278431
0.00278312
0.00278224
0.00278166
0.0027808
0.00278012
0.00277915
0.00277836
0.00277772
0.00277683
0.0027759
0.00277534
0.00277466
0.00277343
0.00277261
0.00277173
0.00277111
0.00277015
0.00276927
0.00276858
0.00276774
0.0027668
0.00276569
0.00276492
0.00276406
0.00276309
0.00276252
0.00276179
0.00276072
0.00275985
0.00275862
0.00275769
0.00275695
0.00275587
0.00275518
0.00275439
0.00275355
0.00275304
0.00275272
0.00275219
0.00275093
0.00274988
0.00274877
0.0027477
0.00274702
0.00274621
0.00274531
0.00274476
0.00274429
0.00274332
0.00274233
0.00274158
0.00274077
0.00273987
0.00273914
0.00273862
0.00273799
0.00273695
0.00273593
0.00273535
0.00273484
0.00273408
0.00273342
0.0027326
0.00273205
0.0027314
0.00273027
0.00272925
0.00272865
0.00272812
0.00272737
0.00272648
0.0027259
0.00272536
0.00272471
0.00272427
0.00272386
0.00272303
0.00272236
0.00272151
0.00272064
0.0027201
0.00271936
0.00271857
0.00271823
0.00271782
0.00271732
0.00271693
0.00271637
0.00271596
0.00271537
0.0027144
0.00271361
0.00271273
0.00271177
0.00271038
0.0027092
0.00270844
0.00270793
0.00270732
0.00270681
0.00270636
0.00270593
0.00270564
0.00270518
0.00270436
0.00270375
0.0027034
0.00270289
0.00270252
0.00270238
0.00270217
0.00270164
0.002701
0.00270052
0.00270003
0.00269972
0.00269942
0.00269906
0.00269867
0.00269817
0.00269775
0.00269741
0.00269707
0.00269691
0.0026968
0.00269668
0.00269641
0.00269598
0.00269549
0.00269515
0.00269481
0.00269464
0.00269431
0.00269404
0.002694
0.00269394
0.00269376
0.00269346
0.00269322
0.00269295
0.00269267
0.00269231
0.00269199
0.00269175
0.00269127
0.00269111
0.00269092
0.00269069
0.00269044
0.00269041
0.00269048
0.00269055
0.00269062
0.00269047
0.00269006
0.00268964
0.00268936
0.00268922
0.00268905
0.00268892
0.00268873
0.00268865
0.00268859
0.00268839
0.002688
0.00268783
0.00268754
0.00268722
0.00268689
0.00268684
0.00268686
0.00268675
0.00268661
0.0026864
0.00268614
0.00268602
0.00268601
0.00268597
0.00268578
0.00268572
0.00268554
0.00268548
0.00268518
)
;
    }
    symmetry
    {
        type            symmetryPlane;
    }
    frontAndBack
    {
        type            empty;
    }
}


// ************************************************************************* //
