/*--------------------------------*- C++ -*----------------------------------*\
| =========                 |                                                 |
| \\      /  F ield         | OpenFOAM: The Open Source CFD Toolbox           |
|  \\    /   O peration     | Version:  v2012                                 |
|   \\  /    A nd           | Website:  www.openfoam.com                      |
|    \\/     M anipulation  |                                                 |
\*---------------------------------------------------------------------------*/
FoamFile
{
    version     2.0;
    format      ascii;
    class       volScalarField;
    location    "32.5";
    object      nut;
}
// * * * * * * * * * * * * * * * * * * * * * * * * * * * * * * * * * * * * * //

dimensions      [0 2 -1 0 0 0 0];


internalField   nonuniform List<scalar> 
209825
(
1.25017e-07
1.21504e-07
1.14491e-07
1.06658e-07
9.94917e-08
9.34244e-08
8.83654e-08
8.4176e-08
8.06536e-08
7.7694e-08
7.51556e-08
7.29873e-08
7.10921e-08
6.94537e-08
6.7995e-08
6.67221e-08
6.55722e-08
6.45627e-08
6.36384e-08
6.28233e-08
6.20671e-08
6.13995e-08
6.07717e-08
6.02163e-08
5.96889e-08
5.92234e-08
5.87769e-08
5.8381e-08
5.7999e-08
5.76636e-08
5.73335e-08
5.70441e-08
5.6758e-08
5.65095e-08
5.62613e-08
5.60466e-08
5.58282e-08
5.56418e-08
5.54497e-08
5.52862e-08
5.51165e-08
5.49728e-08
5.48221e-08
5.46981e-08
5.45635e-08
5.4453e-08
5.43332e-08
5.42384e-08
5.41317e-08
5.40461e-08
5.39547e-08
5.38831e-08
5.37965e-08
5.37308e-08
5.36541e-08
5.36065e-08
5.35328e-08
5.34774e-08
5.34176e-08
5.33635e-08
5.33065e-08
5.32712e-08
5.32188e-08
5.31807e-08
5.31285e-08
5.30922e-08
5.30411e-08
5.30099e-08
5.29638e-08
5.2931e-08
5.28866e-08
5.28596e-08
5.28296e-08
5.28146e-08
5.27985e-08
5.27895e-08
5.27756e-08
5.27673e-08
5.27579e-08
5.27491e-08
5.27431e-08
5.27369e-08
5.27345e-08
5.27326e-08
5.27316e-08
5.27318e-08
5.27318e-08
5.27342e-08
5.27346e-08
5.27402e-08
5.27385e-08
5.27466e-08
5.27323e-08
5.31351e-08
3.26062e-06
2.13271e-08
1.25017e-07
1.21504e-07
1.14492e-07
1.0666e-07
9.94939e-08
9.34267e-08
8.83675e-08
8.41779e-08
8.06554e-08
7.76956e-08
7.5157e-08
7.29886e-08
7.10932e-08
6.94547e-08
6.79958e-08
6.67228e-08
6.55728e-08
6.45632e-08
6.36388e-08
6.28236e-08
6.20673e-08
6.13996e-08
6.07718e-08
6.02164e-08
5.96889e-08
5.92233e-08
5.87768e-08
5.83809e-08
5.79988e-08
5.76634e-08
5.73332e-08
5.70438e-08
5.67576e-08
5.65091e-08
5.62609e-08
5.60462e-08
5.58278e-08
5.56413e-08
5.54492e-08
5.52857e-08
5.51159e-08
5.49723e-08
5.48215e-08
5.46975e-08
5.45629e-08
5.44524e-08
5.43326e-08
5.42378e-08
5.4131e-08
5.40454e-08
5.3954e-08
5.38824e-08
5.37958e-08
5.37301e-08
5.36533e-08
5.36057e-08
5.3532e-08
5.34767e-08
5.34168e-08
5.33627e-08
5.33057e-08
5.32705e-08
5.3218e-08
5.31799e-08
5.31277e-08
5.30914e-08
5.30403e-08
5.30091e-08
5.2963e-08
5.29302e-08
5.28858e-08
5.28588e-08
5.28288e-08
5.28137e-08
5.27976e-08
5.27886e-08
5.27747e-08
5.27664e-08
5.2757e-08
5.27482e-08
5.27422e-08
5.2736e-08
5.27336e-08
5.27316e-08
5.27307e-08
5.27309e-08
5.27309e-08
5.27333e-08
5.27336e-08
5.27393e-08
5.27375e-08
5.27457e-08
5.27313e-08
5.31347e-08
3.26122e-06
2.14995e-08
1.25017e-07
1.21507e-07
1.14499e-07
1.06669e-07
9.95033e-08
9.34358e-08
8.8376e-08
8.41856e-08
8.06623e-08
7.77017e-08
7.51624e-08
7.29933e-08
7.10973e-08
6.94582e-08
6.79988e-08
6.67254e-08
6.55749e-08
6.45649e-08
6.36402e-08
6.28247e-08
6.20681e-08
6.14002e-08
6.07721e-08
6.02164e-08
5.96888e-08
5.9223e-08
5.87762e-08
5.83802e-08
5.7998e-08
5.76624e-08
5.73321e-08
5.70425e-08
5.67563e-08
5.65076e-08
5.62593e-08
5.60445e-08
5.5826e-08
5.56394e-08
5.54472e-08
5.52837e-08
5.51138e-08
5.49701e-08
5.48193e-08
5.46952e-08
5.45605e-08
5.445e-08
5.43301e-08
5.42352e-08
5.41284e-08
5.40428e-08
5.39514e-08
5.38797e-08
5.3793e-08
5.37273e-08
5.36505e-08
5.36029e-08
5.35291e-08
5.34738e-08
5.34138e-08
5.33598e-08
5.33027e-08
5.32674e-08
5.32149e-08
5.31768e-08
5.31246e-08
5.30883e-08
5.30371e-08
5.30059e-08
5.29598e-08
5.2927e-08
5.28826e-08
5.28556e-08
5.28255e-08
5.28104e-08
5.27943e-08
5.27852e-08
5.27713e-08
5.27629e-08
5.27535e-08
5.27447e-08
5.27387e-08
5.27325e-08
5.273e-08
5.27281e-08
5.27271e-08
5.27273e-08
5.27273e-08
5.27296e-08
5.273e-08
5.27356e-08
5.27338e-08
5.27419e-08
5.27275e-08
5.31319e-08
3.26265e-06
2.17436e-08
1.25016e-07
1.21512e-07
1.1451e-07
1.06683e-07
9.95191e-08
9.34512e-08
8.83903e-08
8.41986e-08
8.06739e-08
7.7712e-08
7.51715e-08
7.30012e-08
7.11042e-08
6.94641e-08
6.80039e-08
6.67297e-08
6.55785e-08
6.45679e-08
6.36426e-08
6.28266e-08
6.20695e-08
6.14011e-08
6.07726e-08
6.02166e-08
5.96886e-08
5.92225e-08
5.87754e-08
5.83791e-08
5.79967e-08
5.76608e-08
5.73303e-08
5.70405e-08
5.67541e-08
5.65052e-08
5.62567e-08
5.60418e-08
5.58231e-08
5.56364e-08
5.5444e-08
5.52804e-08
5.51104e-08
5.49666e-08
5.48156e-08
5.46915e-08
5.45567e-08
5.4446e-08
5.43261e-08
5.42311e-08
5.41242e-08
5.40385e-08
5.3947e-08
5.38752e-08
5.37885e-08
5.37227e-08
5.36458e-08
5.35982e-08
5.35244e-08
5.3469e-08
5.3409e-08
5.33549e-08
5.32978e-08
5.32625e-08
5.32099e-08
5.31717e-08
5.31195e-08
5.30832e-08
5.3032e-08
5.30007e-08
5.29546e-08
5.29218e-08
5.28774e-08
5.28503e-08
5.28201e-08
5.28049e-08
5.27887e-08
5.27796e-08
5.27657e-08
5.27573e-08
5.27478e-08
5.2739e-08
5.27329e-08
5.27267e-08
5.27242e-08
5.27222e-08
5.27212e-08
5.27213e-08
5.27213e-08
5.27236e-08
5.27239e-08
5.27295e-08
5.27277e-08
5.27358e-08
5.27213e-08
5.31273e-08
3.26493e-06
2.20343e-08
1.25015e-07
1.21518e-07
1.14526e-07
1.06704e-07
9.95415e-08
9.3473e-08
8.84106e-08
8.4217e-08
8.06904e-08
7.77266e-08
7.51843e-08
7.30124e-08
7.1114e-08
6.94726e-08
6.80112e-08
6.67359e-08
6.55837e-08
6.45722e-08
6.36461e-08
6.28293e-08
6.20715e-08
6.14025e-08
6.07734e-08
6.02169e-08
5.96884e-08
5.92218e-08
5.87744e-08
5.83776e-08
5.79948e-08
5.76586e-08
5.73278e-08
5.70377e-08
5.6751e-08
5.65019e-08
5.62532e-08
5.6038e-08
5.58191e-08
5.56322e-08
5.54396e-08
5.52758e-08
5.51056e-08
5.49616e-08
5.48105e-08
5.46862e-08
5.45513e-08
5.44405e-08
5.43204e-08
5.42253e-08
5.41183e-08
5.40324e-08
5.39408e-08
5.3869e-08
5.37822e-08
5.37163e-08
5.36393e-08
5.35916e-08
5.35177e-08
5.34623e-08
5.34022e-08
5.33481e-08
5.32909e-08
5.32555e-08
5.32028e-08
5.31647e-08
5.31123e-08
5.3076e-08
5.30248e-08
5.29934e-08
5.29473e-08
5.29145e-08
5.287e-08
5.28428e-08
5.28126e-08
5.27972e-08
5.2781e-08
5.27718e-08
5.27578e-08
5.27493e-08
5.27398e-08
5.27309e-08
5.27248e-08
5.27185e-08
5.2716e-08
5.27139e-08
5.27129e-08
5.2713e-08
5.27129e-08
5.27151e-08
5.27154e-08
5.2721e-08
5.27191e-08
5.27271e-08
5.27125e-08
5.31208e-08
3.26811e-06
2.23615e-08
1.25014e-07
1.21527e-07
1.14546e-07
1.06731e-07
9.95705e-08
9.35013e-08
8.84369e-08
8.42409e-08
8.07118e-08
7.77455e-08
7.5201e-08
7.30271e-08
7.11267e-08
6.94836e-08
6.80207e-08
6.67439e-08
6.55905e-08
6.45778e-08
6.36507e-08
6.28329e-08
6.20742e-08
6.14044e-08
6.07746e-08
6.02173e-08
5.96882e-08
5.9221e-08
5.8773e-08
5.83758e-08
5.79925e-08
5.76559e-08
5.73246e-08
5.70342e-08
5.67471e-08
5.64977e-08
5.62486e-08
5.60331e-08
5.58139e-08
5.56267e-08
5.54339e-08
5.52699e-08
5.50995e-08
5.49553e-08
5.48039e-08
5.46795e-08
5.45443e-08
5.44334e-08
5.43131e-08
5.42179e-08
5.41107e-08
5.40247e-08
5.39329e-08
5.3861e-08
5.3774e-08
5.37081e-08
5.36309e-08
5.35831e-08
5.35091e-08
5.34537e-08
5.33935e-08
5.33393e-08
5.3282e-08
5.32465e-08
5.31937e-08
5.31555e-08
5.31031e-08
5.30668e-08
5.30154e-08
5.29841e-08
5.29379e-08
5.2905e-08
5.28605e-08
5.28333e-08
5.28028e-08
5.27873e-08
5.2771e-08
5.27617e-08
5.27476e-08
5.27391e-08
5.27294e-08
5.27205e-08
5.27144e-08
5.2708e-08
5.27054e-08
5.27032e-08
5.27022e-08
5.27022e-08
5.2702e-08
5.27042e-08
5.27045e-08
5.27099e-08
5.2708e-08
5.2716e-08
5.27013e-08
5.31125e-08
3.27224e-06
2.2722e-08
1.25012e-07
1.21538e-07
1.14571e-07
1.06765e-07
9.96064e-08
9.35363e-08
8.84694e-08
8.42704e-08
8.07382e-08
7.7769e-08
7.52217e-08
7.30452e-08
7.11425e-08
6.94973e-08
6.80324e-08
6.6754e-08
6.5599e-08
6.45848e-08
6.36564e-08
6.28374e-08
6.20776e-08
6.14068e-08
6.0776e-08
6.0218e-08
5.9688e-08
5.92201e-08
5.87714e-08
5.83736e-08
5.79897e-08
5.76525e-08
5.73208e-08
5.70299e-08
5.67423e-08
5.64925e-08
5.6243e-08
5.60271e-08
5.58076e-08
5.56201e-08
5.5427e-08
5.52626e-08
5.50919e-08
5.49475e-08
5.47959e-08
5.46712e-08
5.45358e-08
5.44246e-08
5.43042e-08
5.42087e-08
5.41014e-08
5.40152e-08
5.39232e-08
5.38512e-08
5.3764e-08
5.3698e-08
5.36206e-08
5.35727e-08
5.34986e-08
5.34431e-08
5.33827e-08
5.33285e-08
5.32711e-08
5.32355e-08
5.31826e-08
5.31443e-08
5.30918e-08
5.30554e-08
5.3004e-08
5.29725e-08
5.29263e-08
5.28934e-08
5.28489e-08
5.28215e-08
5.27909e-08
5.27751e-08
5.27588e-08
5.27492e-08
5.27351e-08
5.27265e-08
5.27167e-08
5.27078e-08
5.27015e-08
5.2695e-08
5.26924e-08
5.26901e-08
5.2689e-08
5.26889e-08
5.26887e-08
5.26908e-08
5.2691e-08
5.26964e-08
5.26944e-08
5.27022e-08
5.26874e-08
5.31022e-08
3.27735e-06
2.31164e-08
1.2501e-07
1.21551e-07
1.14601e-07
1.06805e-07
9.96491e-08
9.3578e-08
8.85083e-08
8.43058e-08
8.07699e-08
7.77971e-08
7.52465e-08
7.3067e-08
7.11614e-08
6.95137e-08
6.80466e-08
6.6766e-08
6.56091e-08
6.45933e-08
6.36632e-08
6.28428e-08
6.20818e-08
6.14097e-08
6.07779e-08
6.02188e-08
5.96879e-08
5.92191e-08
5.87696e-08
5.83711e-08
5.79864e-08
5.76486e-08
5.73163e-08
5.70248e-08
5.67367e-08
5.64863e-08
5.62364e-08
5.60201e-08
5.58001e-08
5.56122e-08
5.54187e-08
5.5254e-08
5.5083e-08
5.49382e-08
5.47863e-08
5.46613e-08
5.45257e-08
5.44143e-08
5.42935e-08
5.41979e-08
5.40903e-08
5.40039e-08
5.39117e-08
5.38395e-08
5.37521e-08
5.36859e-08
5.36084e-08
5.35603e-08
5.3486e-08
5.34305e-08
5.337e-08
5.33156e-08
5.32581e-08
5.32223e-08
5.31693e-08
5.3131e-08
5.30784e-08
5.30419e-08
5.29904e-08
5.29588e-08
5.29126e-08
5.28796e-08
5.2835e-08
5.28075e-08
5.27766e-08
5.27606e-08
5.27442e-08
5.27344e-08
5.27202e-08
5.27115e-08
5.27016e-08
5.26926e-08
5.26862e-08
5.26796e-08
5.26769e-08
5.26745e-08
5.26733e-08
5.26731e-08
5.26729e-08
5.26748e-08
5.26749e-08
5.26802e-08
5.26782e-08
5.26859e-08
5.2671e-08
5.30901e-08
3.28348e-06
2.35484e-08
1.25008e-07
1.21566e-07
1.14636e-07
1.06851e-07
9.96989e-08
9.36266e-08
8.85536e-08
8.4347e-08
8.08068e-08
7.783e-08
7.52755e-08
7.30924e-08
7.11836e-08
6.9533e-08
6.80631e-08
6.67802e-08
6.56211e-08
6.46032e-08
6.36713e-08
6.28493e-08
6.20867e-08
6.14132e-08
6.07801e-08
6.02198e-08
5.96878e-08
5.9218e-08
5.87676e-08
5.83682e-08
5.79827e-08
5.76441e-08
5.73111e-08
5.70189e-08
5.67301e-08
5.64793e-08
5.62287e-08
5.60119e-08
5.57914e-08
5.56031e-08
5.54091e-08
5.52441e-08
5.50726e-08
5.49275e-08
5.47752e-08
5.46499e-08
5.45139e-08
5.44023e-08
5.42812e-08
5.41853e-08
5.40774e-08
5.39908e-08
5.38983e-08
5.38259e-08
5.37383e-08
5.36719e-08
5.35941e-08
5.35459e-08
5.34715e-08
5.34159e-08
5.33551e-08
5.33007e-08
5.32431e-08
5.32071e-08
5.31538e-08
5.31155e-08
5.30627e-08
5.30262e-08
5.29745e-08
5.29429e-08
5.28966e-08
5.28636e-08
5.28189e-08
5.27913e-08
5.27601e-08
5.27437e-08
5.27272e-08
5.27172e-08
5.27029e-08
5.26941e-08
5.2684e-08
5.26749e-08
5.26684e-08
5.26617e-08
5.26589e-08
5.26564e-08
5.26551e-08
5.26547e-08
5.26544e-08
5.26563e-08
5.26563e-08
5.26614e-08
5.26593e-08
5.26669e-08
5.26518e-08
5.3076e-08
3.29066e-06
2.40236e-08
1.25005e-07
1.21583e-07
1.14676e-07
1.06904e-07
9.97559e-08
9.36823e-08
8.86056e-08
8.43943e-08
8.08492e-08
7.78677e-08
7.53087e-08
7.31216e-08
7.12091e-08
6.95551e-08
6.80822e-08
6.67965e-08
6.56348e-08
6.46147e-08
6.36807e-08
6.28567e-08
6.20924e-08
6.14174e-08
6.07827e-08
6.02211e-08
5.96878e-08
5.92169e-08
5.87653e-08
5.83649e-08
5.79785e-08
5.76391e-08
5.73052e-08
5.70123e-08
5.67228e-08
5.64712e-08
5.622e-08
5.60026e-08
5.57815e-08
5.55927e-08
5.53982e-08
5.52327e-08
5.50608e-08
5.49153e-08
5.47625e-08
5.46369e-08
5.45005e-08
5.43885e-08
5.42671e-08
5.41709e-08
5.40627e-08
5.39759e-08
5.3883e-08
5.38103e-08
5.37225e-08
5.36559e-08
5.35779e-08
5.35295e-08
5.34548e-08
5.33992e-08
5.33382e-08
5.32836e-08
5.32258e-08
5.31897e-08
5.31361e-08
5.30978e-08
5.30448e-08
5.30082e-08
5.29564e-08
5.29246e-08
5.28783e-08
5.28452e-08
5.28004e-08
5.27727e-08
5.27412e-08
5.27245e-08
5.27078e-08
5.26975e-08
5.26831e-08
5.26742e-08
5.26639e-08
5.26547e-08
5.26481e-08
5.26413e-08
5.26383e-08
5.26356e-08
5.26343e-08
5.26337e-08
5.26333e-08
5.2635e-08
5.2635e-08
5.26399e-08
5.26377e-08
5.26451e-08
5.26299e-08
5.30599e-08
3.2989e-06
2.45496e-08
1.25003e-07
1.21601e-07
1.1472e-07
1.06963e-07
9.982e-08
9.37452e-08
8.86643e-08
8.44478e-08
8.08973e-08
7.79104e-08
7.53465e-08
7.31548e-08
7.12381e-08
6.95803e-08
6.81039e-08
6.6815e-08
6.56505e-08
6.46278e-08
6.36914e-08
6.28653e-08
6.20989e-08
6.14221e-08
6.07857e-08
6.02226e-08
5.96879e-08
5.92156e-08
5.87628e-08
5.83613e-08
5.79738e-08
5.76334e-08
5.72986e-08
5.70049e-08
5.67145e-08
5.64622e-08
5.62102e-08
5.59922e-08
5.57705e-08
5.55811e-08
5.5386e-08
5.522e-08
5.50475e-08
5.49016e-08
5.47483e-08
5.46223e-08
5.44855e-08
5.43731e-08
5.42513e-08
5.41547e-08
5.40462e-08
5.3959e-08
5.38657e-08
5.37929e-08
5.37047e-08
5.36379e-08
5.35595e-08
5.35109e-08
5.34361e-08
5.33803e-08
5.33191e-08
5.32644e-08
5.32064e-08
5.317e-08
5.31162e-08
5.30778e-08
5.30246e-08
5.2988e-08
5.2936e-08
5.29041e-08
5.28576e-08
5.28245e-08
5.27796e-08
5.27517e-08
5.27198e-08
5.27028e-08
5.2686e-08
5.26753e-08
5.26608e-08
5.26517e-08
5.26413e-08
5.2632e-08
5.26252e-08
5.26182e-08
5.26151e-08
5.26122e-08
5.26107e-08
5.261e-08
5.26095e-08
5.26111e-08
5.26109e-08
5.26157e-08
5.26134e-08
5.26206e-08
5.26051e-08
5.30418e-08
3.30819e-06
2.51355e-08
1.24999e-07
1.21622e-07
1.1477e-07
1.0703e-07
9.98916e-08
9.38154e-08
8.87299e-08
8.45076e-08
8.0951e-08
7.79582e-08
7.53888e-08
7.3192e-08
7.12706e-08
6.96085e-08
6.81283e-08
6.68359e-08
6.56682e-08
6.46426e-08
6.37035e-08
6.2875e-08
6.21064e-08
6.14275e-08
6.07893e-08
6.02244e-08
5.96881e-08
5.92144e-08
5.87602e-08
5.83574e-08
5.79687e-08
5.76272e-08
5.72913e-08
5.69967e-08
5.67053e-08
5.64522e-08
5.61994e-08
5.59807e-08
5.57582e-08
5.55681e-08
5.53724e-08
5.52058e-08
5.50327e-08
5.48863e-08
5.47325e-08
5.4606e-08
5.44687e-08
5.43559e-08
5.42336e-08
5.41367e-08
5.40278e-08
5.39403e-08
5.38466e-08
5.37734e-08
5.36849e-08
5.36179e-08
5.35391e-08
5.34903e-08
5.34152e-08
5.33593e-08
5.32978e-08
5.32429e-08
5.31848e-08
5.31481e-08
5.3094e-08
5.30556e-08
5.30022e-08
5.29654e-08
5.29133e-08
5.28812e-08
5.28347e-08
5.28014e-08
5.27564e-08
5.27283e-08
5.26961e-08
5.26786e-08
5.26617e-08
5.26505e-08
5.26359e-08
5.26267e-08
5.2616e-08
5.26066e-08
5.25996e-08
5.25924e-08
5.25892e-08
5.25861e-08
5.25845e-08
5.25836e-08
5.2583e-08
5.25843e-08
5.2584e-08
5.25887e-08
5.25862e-08
5.25932e-08
5.25775e-08
5.30218e-08
3.31849e-06
2.57914e-08
1.24996e-07
1.21645e-07
1.14824e-07
1.07103e-07
9.99707e-08
9.3893e-08
8.88026e-08
8.4574e-08
8.10107e-08
7.80114e-08
7.54358e-08
7.32333e-08
7.13068e-08
6.964e-08
6.81554e-08
6.68592e-08
6.56879e-08
6.46591e-08
6.37171e-08
6.28859e-08
6.21148e-08
6.14337e-08
6.07933e-08
6.02266e-08
5.96885e-08
5.92131e-08
5.87574e-08
5.83532e-08
5.79631e-08
5.76204e-08
5.72834e-08
5.69877e-08
5.66953e-08
5.64413e-08
5.61875e-08
5.5968e-08
5.57447e-08
5.55539e-08
5.53574e-08
5.51902e-08
5.50164e-08
5.48694e-08
5.4715e-08
5.4588e-08
5.44502e-08
5.4337e-08
5.42142e-08
5.41168e-08
5.40075e-08
5.39196e-08
5.38254e-08
5.37519e-08
5.36631e-08
5.35958e-08
5.35166e-08
5.34675e-08
5.33921e-08
5.33361e-08
5.32742e-08
5.32193e-08
5.31608e-08
5.31239e-08
5.30695e-08
5.3031e-08
5.29773e-08
5.29405e-08
5.28881e-08
5.28558e-08
5.28092e-08
5.27759e-08
5.27308e-08
5.27025e-08
5.26699e-08
5.26519e-08
5.26348e-08
5.26232e-08
5.26084e-08
5.2599e-08
5.25881e-08
5.25785e-08
5.25713e-08
5.25639e-08
5.25605e-08
5.25572e-08
5.25555e-08
5.25544e-08
5.25537e-08
5.25548e-08
5.25544e-08
5.25588e-08
5.25562e-08
5.25629e-08
5.2547e-08
5.29996e-08
3.32973e-06
2.65285e-08
1.24991e-07
1.21669e-07
1.14883e-07
1.07183e-07
1.00057e-07
9.39783e-08
8.88825e-08
8.4647e-08
8.10764e-08
7.807e-08
7.54876e-08
7.3279e-08
7.13467e-08
6.96748e-08
6.81855e-08
6.6885e-08
6.57098e-08
6.46775e-08
6.37322e-08
6.2898e-08
6.21242e-08
6.14406e-08
6.0798e-08
6.02291e-08
5.9689e-08
5.92119e-08
5.87545e-08
5.83488e-08
5.79572e-08
5.76132e-08
5.72748e-08
5.69779e-08
5.66844e-08
5.64294e-08
5.61746e-08
5.59542e-08
5.57299e-08
5.55384e-08
5.53411e-08
5.51731e-08
5.49987e-08
5.48511e-08
5.4696e-08
5.45684e-08
5.443e-08
5.43163e-08
5.41929e-08
5.40951e-08
5.39852e-08
5.38969e-08
5.38022e-08
5.37284e-08
5.36392e-08
5.35715e-08
5.34919e-08
5.34425e-08
5.33668e-08
5.33107e-08
5.32485e-08
5.31933e-08
5.31346e-08
5.30974e-08
5.30426e-08
5.3004e-08
5.29501e-08
5.29131e-08
5.28606e-08
5.28281e-08
5.27814e-08
5.2748e-08
5.27027e-08
5.26741e-08
5.26411e-08
5.26227e-08
5.26053e-08
5.25931e-08
5.25783e-08
5.25686e-08
5.25575e-08
5.25477e-08
5.25403e-08
5.25327e-08
5.25291e-08
5.25256e-08
5.25237e-08
5.25224e-08
5.25215e-08
5.25224e-08
5.25218e-08
5.2526e-08
5.25233e-08
5.25297e-08
5.25136e-08
5.29754e-08
3.3418e-06
2.73588e-08
1.24987e-07
1.21695e-07
1.14947e-07
1.07269e-07
1.00152e-07
9.40714e-08
8.89699e-08
8.47268e-08
8.11483e-08
7.81341e-08
7.55445e-08
7.33291e-08
7.13906e-08
6.9713e-08
6.82186e-08
6.69134e-08
6.5734e-08
6.46977e-08
6.37489e-08
6.29115e-08
6.21347e-08
6.14484e-08
6.08032e-08
6.02321e-08
5.96898e-08
5.92107e-08
5.87514e-08
5.83441e-08
5.79508e-08
5.76054e-08
5.72656e-08
5.69675e-08
5.66727e-08
5.64165e-08
5.61606e-08
5.59392e-08
5.5714e-08
5.55215e-08
5.53233e-08
5.51546e-08
5.49794e-08
5.48311e-08
5.46753e-08
5.45471e-08
5.4408e-08
5.42938e-08
5.41697e-08
5.40714e-08
5.3961e-08
5.38723e-08
5.3777e-08
5.37028e-08
5.36131e-08
5.35451e-08
5.3465e-08
5.34153e-08
5.33393e-08
5.3283e-08
5.32204e-08
5.31651e-08
5.31061e-08
5.30685e-08
5.30134e-08
5.29747e-08
5.29204e-08
5.28833e-08
5.28305e-08
5.27978e-08
5.2751e-08
5.27175e-08
5.26721e-08
5.26433e-08
5.26099e-08
5.25909e-08
5.25732e-08
5.25604e-08
5.25456e-08
5.25356e-08
5.25241e-08
5.25142e-08
5.25065e-08
5.24987e-08
5.24949e-08
5.24911e-08
5.24891e-08
5.24874e-08
5.24864e-08
5.2487e-08
5.24863e-08
5.24903e-08
5.24874e-08
5.24935e-08
5.24771e-08
5.29491e-08
3.35454e-06
2.82949e-08
1.24982e-07
1.21724e-07
1.15016e-07
1.07363e-07
1.00254e-07
9.41723e-08
8.90648e-08
8.48137e-08
8.12266e-08
7.82041e-08
7.56065e-08
7.33838e-08
7.14385e-08
6.97548e-08
6.82548e-08
6.69446e-08
6.57605e-08
6.472e-08
6.37673e-08
6.29264e-08
6.21463e-08
6.14571e-08
6.08091e-08
6.02355e-08
5.96909e-08
5.92097e-08
5.87483e-08
5.83392e-08
5.79441e-08
5.75971e-08
5.72558e-08
5.69563e-08
5.66601e-08
5.64027e-08
5.61456e-08
5.59231e-08
5.56968e-08
5.55034e-08
5.53042e-08
5.51347e-08
5.49586e-08
5.48095e-08
5.46529e-08
5.4524e-08
5.43842e-08
5.42694e-08
5.41447e-08
5.40459e-08
5.39349e-08
5.38456e-08
5.37497e-08
5.36751e-08
5.3585e-08
5.35166e-08
5.3436e-08
5.33859e-08
5.33095e-08
5.3253e-08
5.319e-08
5.31345e-08
5.30752e-08
5.30372e-08
5.29817e-08
5.29429e-08
5.28883e-08
5.28511e-08
5.2798e-08
5.27651e-08
5.27182e-08
5.26845e-08
5.26389e-08
5.26098e-08
5.2576e-08
5.25565e-08
5.25385e-08
5.2525e-08
5.25101e-08
5.24998e-08
5.2488e-08
5.24779e-08
5.24699e-08
5.24619e-08
5.24578e-08
5.24537e-08
5.24515e-08
5.24496e-08
5.24484e-08
5.24487e-08
5.24479e-08
5.24516e-08
5.24485e-08
5.24542e-08
5.24376e-08
5.29205e-08
3.36774e-06
2.935e-08
1.24977e-07
1.21753e-07
1.1509e-07
1.07464e-07
1.00364e-07
9.42814e-08
8.91674e-08
8.49078e-08
8.13115e-08
7.828e-08
7.56738e-08
7.34432e-08
7.14907e-08
6.98004e-08
6.82943e-08
6.69786e-08
6.57894e-08
6.47444e-08
6.37875e-08
6.29428e-08
6.21592e-08
6.14667e-08
6.08158e-08
6.02395e-08
5.96923e-08
5.92088e-08
5.87453e-08
5.83341e-08
5.79371e-08
5.75883e-08
5.72454e-08
5.69444e-08
5.66467e-08
5.6388e-08
5.61295e-08
5.59059e-08
5.56784e-08
5.5484e-08
5.52838e-08
5.51133e-08
5.49362e-08
5.47864e-08
5.46289e-08
5.44993e-08
5.43587e-08
5.42433e-08
5.41179e-08
5.40184e-08
5.39068e-08
5.3817e-08
5.37204e-08
5.36454e-08
5.35546e-08
5.34859e-08
5.34047e-08
5.33542e-08
5.32774e-08
5.32207e-08
5.31573e-08
5.31016e-08
5.30419e-08
5.30035e-08
5.29475e-08
5.29087e-08
5.28537e-08
5.28163e-08
5.2763e-08
5.27298e-08
5.26827e-08
5.26489e-08
5.26032e-08
5.25738e-08
5.25396e-08
5.25195e-08
5.2501e-08
5.24868e-08
5.24719e-08
5.24612e-08
5.24491e-08
5.24387e-08
5.24305e-08
5.24221e-08
5.24179e-08
5.24134e-08
5.2411e-08
5.24088e-08
5.24075e-08
5.24075e-08
5.24064e-08
5.24098e-08
5.24065e-08
5.24118e-08
5.23949e-08
5.28897e-08
3.38113e-06
3.05379e-08
1.24971e-07
1.21785e-07
1.15169e-07
1.07572e-07
1.00482e-07
9.43986e-08
8.92779e-08
8.50092e-08
8.14032e-08
7.8362e-08
7.57467e-08
7.35076e-08
7.15472e-08
6.98498e-08
6.83372e-08
6.70155e-08
6.58209e-08
6.4771e-08
6.38096e-08
6.29608e-08
6.21734e-08
6.14775e-08
6.08233e-08
6.02441e-08
5.96942e-08
5.92081e-08
5.87422e-08
5.83289e-08
5.79299e-08
5.75792e-08
5.72344e-08
5.69318e-08
5.66326e-08
5.63724e-08
5.61125e-08
5.58876e-08
5.56588e-08
5.54633e-08
5.5262e-08
5.50905e-08
5.49124e-08
5.47617e-08
5.46033e-08
5.44729e-08
5.43315e-08
5.42153e-08
5.40891e-08
5.3989e-08
5.38767e-08
5.37863e-08
5.3689e-08
5.36135e-08
5.35222e-08
5.3453e-08
5.33711e-08
5.33202e-08
5.32431e-08
5.31861e-08
5.31222e-08
5.30663e-08
5.30062e-08
5.29674e-08
5.29109e-08
5.28719e-08
5.28166e-08
5.2779e-08
5.27254e-08
5.26919e-08
5.26447e-08
5.26108e-08
5.25648e-08
5.25351e-08
5.25005e-08
5.24798e-08
5.24609e-08
5.24458e-08
5.24309e-08
5.24198e-08
5.24073e-08
5.23967e-08
5.23881e-08
5.23795e-08
5.2375e-08
5.23702e-08
5.23676e-08
5.2365e-08
5.23635e-08
5.23631e-08
5.23619e-08
5.2365e-08
5.23615e-08
5.23663e-08
5.23491e-08
5.28566e-08
3.39435e-06
3.18727e-08
1.24965e-07
1.21818e-07
1.15252e-07
1.07687e-07
1.00609e-07
9.45242e-08
8.93965e-08
8.51182e-08
8.15018e-08
7.84503e-08
7.58252e-08
7.3577e-08
7.16082e-08
6.99032e-08
6.83836e-08
6.70556e-08
6.58552e-08
6.48e-08
6.38337e-08
6.29805e-08
6.21889e-08
6.14893e-08
6.08317e-08
6.02493e-08
5.96965e-08
5.92077e-08
5.87392e-08
5.83236e-08
5.79223e-08
5.75697e-08
5.7223e-08
5.69186e-08
5.66176e-08
5.63559e-08
5.60945e-08
5.58682e-08
5.56381e-08
5.54414e-08
5.52388e-08
5.50663e-08
5.48871e-08
5.47355e-08
5.4576e-08
5.44448e-08
5.43025e-08
5.41856e-08
5.40585e-08
5.39577e-08
5.38446e-08
5.37536e-08
5.36555e-08
5.35795e-08
5.34875e-08
5.34179e-08
5.33354e-08
5.32839e-08
5.32064e-08
5.31491e-08
5.30848e-08
5.30286e-08
5.29681e-08
5.29288e-08
5.28718e-08
5.28327e-08
5.27769e-08
5.27392e-08
5.26852e-08
5.26514e-08
5.26041e-08
5.257e-08
5.25238e-08
5.24938e-08
5.24588e-08
5.24374e-08
5.2418e-08
5.24021e-08
5.23871e-08
5.23756e-08
5.23627e-08
5.23518e-08
5.23429e-08
5.23339e-08
5.23291e-08
5.23239e-08
5.23211e-08
5.23182e-08
5.23164e-08
5.23158e-08
5.23143e-08
5.23171e-08
5.23133e-08
5.23176e-08
5.23002e-08
5.28212e-08
3.40701e-06
3.33692e-08
1.24958e-07
1.21853e-07
1.15341e-07
1.07809e-07
1.00744e-07
9.46584e-08
8.95234e-08
8.5235e-08
8.16076e-08
7.85451e-08
7.59096e-08
7.36517e-08
7.1674e-08
6.99607e-08
6.84337e-08
6.70989e-08
6.58923e-08
6.48314e-08
6.38599e-08
6.30019e-08
6.2206e-08
6.15024e-08
6.08411e-08
6.02554e-08
5.96993e-08
5.92076e-08
5.87364e-08
5.83184e-08
5.79147e-08
5.75598e-08
5.7211e-08
5.69048e-08
5.6602e-08
5.63386e-08
5.60755e-08
5.58478e-08
5.56162e-08
5.54182e-08
5.52143e-08
5.50407e-08
5.48603e-08
5.47077e-08
5.45471e-08
5.44149e-08
5.42717e-08
5.4154e-08
5.4026e-08
5.39244e-08
5.38106e-08
5.37189e-08
5.362e-08
5.35433e-08
5.34507e-08
5.33806e-08
5.32973e-08
5.32454e-08
5.31674e-08
5.31098e-08
5.30449e-08
5.29885e-08
5.29275e-08
5.28878e-08
5.28302e-08
5.2791e-08
5.27347e-08
5.26968e-08
5.26425e-08
5.26083e-08
5.25609e-08
5.25265e-08
5.24802e-08
5.24498e-08
5.24145e-08
5.23923e-08
5.23724e-08
5.23556e-08
5.23404e-08
5.23284e-08
5.23152e-08
5.2304e-08
5.22947e-08
5.22854e-08
5.22803e-08
5.22747e-08
5.22716e-08
5.22683e-08
5.22663e-08
5.22653e-08
5.22636e-08
5.2266e-08
5.2262e-08
5.22656e-08
5.2248e-08
5.27832e-08
3.41859e-06
3.50423e-08
1.24951e-07
1.2189e-07
1.15434e-07
1.07938e-07
1.00887e-07
9.48012e-08
8.96588e-08
8.53598e-08
8.17207e-08
7.86467e-08
7.60001e-08
7.37319e-08
7.17446e-08
7.00227e-08
6.84876e-08
6.71456e-08
6.59323e-08
6.48654e-08
6.38883e-08
6.30253e-08
6.22247e-08
6.15169e-08
6.08516e-08
6.02622e-08
5.97028e-08
5.9208e-08
5.87339e-08
5.83132e-08
5.79069e-08
5.75497e-08
5.71987e-08
5.68905e-08
5.65857e-08
5.63205e-08
5.60556e-08
5.58264e-08
5.55932e-08
5.53938e-08
5.51885e-08
5.50137e-08
5.4832e-08
5.46783e-08
5.45166e-08
5.43834e-08
5.42391e-08
5.41206e-08
5.39916e-08
5.38893e-08
5.37745e-08
5.36821e-08
5.35823e-08
5.35051e-08
5.34118e-08
5.33411e-08
5.3257e-08
5.32045e-08
5.31261e-08
5.30681e-08
5.30027e-08
5.29459e-08
5.28844e-08
5.28442e-08
5.27861e-08
5.27467e-08
5.26899e-08
5.26518e-08
5.25971e-08
5.25626e-08
5.2515e-08
5.24804e-08
5.24338e-08
5.24031e-08
5.23675e-08
5.23445e-08
5.2324e-08
5.23064e-08
5.2291e-08
5.22784e-08
5.22647e-08
5.22533e-08
5.22435e-08
5.22339e-08
5.22284e-08
5.22224e-08
5.22191e-08
5.22153e-08
5.22131e-08
5.22116e-08
5.22097e-08
5.22117e-08
5.22075e-08
5.22104e-08
5.21926e-08
5.27427e-08
3.42855e-06
3.69068e-08
1.24943e-07
1.21927e-07
1.15532e-07
1.08074e-07
1.01038e-07
9.49528e-08
8.98028e-08
8.54927e-08
8.18414e-08
7.87552e-08
7.60969e-08
7.38178e-08
7.18204e-08
7.00892e-08
6.85456e-08
6.71959e-08
6.59755e-08
6.49022e-08
6.39192e-08
6.30508e-08
6.22452e-08
6.15328e-08
6.08633e-08
6.02701e-08
5.9707e-08
5.92089e-08
5.87316e-08
5.83081e-08
5.7899e-08
5.75395e-08
5.7186e-08
5.68757e-08
5.65687e-08
5.63017e-08
5.60349e-08
5.5804e-08
5.55691e-08
5.53683e-08
5.51615e-08
5.49854e-08
5.48023e-08
5.46475e-08
5.44844e-08
5.43503e-08
5.42049e-08
5.40854e-08
5.39554e-08
5.38522e-08
5.37365e-08
5.36434e-08
5.35426e-08
5.34647e-08
5.33706e-08
5.32994e-08
5.32145e-08
5.31613e-08
5.30825e-08
5.3024e-08
5.2958e-08
5.2901e-08
5.28389e-08
5.27982e-08
5.27394e-08
5.26999e-08
5.26426e-08
5.26042e-08
5.25491e-08
5.25143e-08
5.24664e-08
5.24317e-08
5.23848e-08
5.23537e-08
5.23178e-08
5.22941e-08
5.22728e-08
5.22544e-08
5.22386e-08
5.22255e-08
5.22114e-08
5.21996e-08
5.21893e-08
5.21793e-08
5.21735e-08
5.2167e-08
5.21634e-08
5.21592e-08
5.21568e-08
5.21548e-08
5.21527e-08
5.21542e-08
5.21497e-08
5.21519e-08
5.21339e-08
5.26995e-08
3.43623e-06
3.89773e-08
1.24935e-07
1.21967e-07
1.15634e-07
1.08218e-07
1.01198e-07
9.51135e-08
8.99556e-08
8.56341e-08
8.197e-08
7.88709e-08
7.62002e-08
7.39096e-08
7.19014e-08
7.01604e-08
6.86079e-08
6.725e-08
6.60221e-08
6.49419e-08
6.39525e-08
6.30784e-08
6.22675e-08
6.15503e-08
6.08763e-08
6.02789e-08
5.9712e-08
5.92104e-08
5.87298e-08
5.83032e-08
5.78913e-08
5.7529e-08
5.71731e-08
5.68604e-08
5.65512e-08
5.62822e-08
5.60133e-08
5.57807e-08
5.5544e-08
5.53416e-08
5.51332e-08
5.49557e-08
5.47712e-08
5.46151e-08
5.44508e-08
5.43155e-08
5.41689e-08
5.40485e-08
5.39174e-08
5.38132e-08
5.36966e-08
5.36026e-08
5.35008e-08
5.34222e-08
5.33273e-08
5.32555e-08
5.31697e-08
5.31158e-08
5.30365e-08
5.29775e-08
5.2911e-08
5.28537e-08
5.27909e-08
5.27497e-08
5.26902e-08
5.26506e-08
5.25926e-08
5.25541e-08
5.24985e-08
5.24632e-08
5.24152e-08
5.23802e-08
5.23331e-08
5.23015e-08
5.22654e-08
5.22409e-08
5.22188e-08
5.21995e-08
5.21835e-08
5.21696e-08
5.21551e-08
5.21429e-08
5.21321e-08
5.21218e-08
5.21155e-08
5.21086e-08
5.21046e-08
5.21e-08
5.20972e-08
5.20949e-08
5.20924e-08
5.20935e-08
5.20887e-08
5.20901e-08
5.20719e-08
5.26536e-08
3.44091e-06
4.12676e-08
1.24927e-07
1.22007e-07
1.15741e-07
1.08369e-07
1.01367e-07
9.52833e-08
9.01175e-08
8.5784e-08
8.21066e-08
7.89939e-08
7.63102e-08
7.40074e-08
7.19879e-08
7.02366e-08
6.86745e-08
6.73079e-08
6.6072e-08
6.49846e-08
6.39886e-08
6.31084e-08
6.22918e-08
6.15695e-08
6.08907e-08
6.0289e-08
5.97179e-08
5.92126e-08
5.87284e-08
5.82987e-08
5.78836e-08
5.75186e-08
5.71599e-08
5.68449e-08
5.65332e-08
5.6262e-08
5.59911e-08
5.57565e-08
5.5518e-08
5.53139e-08
5.51037e-08
5.49248e-08
5.47387e-08
5.45814e-08
5.44156e-08
5.42791e-08
5.41313e-08
5.40098e-08
5.38775e-08
5.37724e-08
5.36547e-08
5.35599e-08
5.3457e-08
5.33776e-08
5.32818e-08
5.32094e-08
5.31226e-08
5.3068e-08
5.29881e-08
5.29286e-08
5.28615e-08
5.28039e-08
5.27404e-08
5.26987e-08
5.26385e-08
5.25987e-08
5.25401e-08
5.25013e-08
5.24452e-08
5.24096e-08
5.23613e-08
5.2326e-08
5.22786e-08
5.22466e-08
5.22102e-08
5.2185e-08
5.2162e-08
5.21419e-08
5.21254e-08
5.21108e-08
5.20958e-08
5.20832e-08
5.20719e-08
5.20612e-08
5.20544e-08
5.2047e-08
5.20428e-08
5.20376e-08
5.20346e-08
5.20317e-08
5.2029e-08
5.20296e-08
5.20244e-08
5.20248e-08
5.20066e-08
5.26047e-08
3.4418e-06
4.37904e-08
1.24918e-07
1.22049e-07
1.15852e-07
1.08527e-07
1.01545e-07
9.54623e-08
9.02886e-08
8.59428e-08
8.22514e-08
7.91247e-08
7.64273e-08
7.41116e-08
7.20802e-08
7.03179e-08
6.87458e-08
6.73701e-08
6.61257e-08
6.50306e-08
6.40275e-08
6.31409e-08
6.23183e-08
6.15905e-08
6.09066e-08
6.03003e-08
5.97249e-08
5.92156e-08
5.87277e-08
5.82945e-08
5.78761e-08
5.75082e-08
5.71466e-08
5.6829e-08
5.65148e-08
5.62413e-08
5.59681e-08
5.57316e-08
5.5491e-08
5.52851e-08
5.50732e-08
5.48926e-08
5.47049e-08
5.45462e-08
5.43789e-08
5.42412e-08
5.4092e-08
5.39694e-08
5.38359e-08
5.37297e-08
5.36109e-08
5.35152e-08
5.34111e-08
5.33309e-08
5.32342e-08
5.31611e-08
5.30733e-08
5.30178e-08
5.29374e-08
5.28774e-08
5.28097e-08
5.27517e-08
5.26875e-08
5.26452e-08
5.25842e-08
5.25443e-08
5.2485e-08
5.24459e-08
5.23893e-08
5.23532e-08
5.23048e-08
5.22692e-08
5.22215e-08
5.2189e-08
5.21522e-08
5.21263e-08
5.21025e-08
5.20815e-08
5.20645e-08
5.20491e-08
5.20337e-08
5.20206e-08
5.20087e-08
5.19975e-08
5.19903e-08
5.19824e-08
5.19777e-08
5.19721e-08
5.19687e-08
5.19653e-08
5.19623e-08
5.19624e-08
5.19569e-08
5.19562e-08
5.19379e-08
5.25528e-08
3.43807e-06
4.65563e-08
1.24908e-07
1.22092e-07
1.15968e-07
1.08692e-07
1.01731e-07
9.56508e-08
9.04692e-08
8.61107e-08
8.24048e-08
7.92633e-08
7.65516e-08
7.42225e-08
7.21784e-08
7.04046e-08
6.88219e-08
6.74365e-08
6.61833e-08
6.50801e-08
6.40694e-08
6.3176e-08
6.23471e-08
6.16135e-08
6.09243e-08
6.03131e-08
5.9733e-08
5.92195e-08
5.87276e-08
5.82909e-08
5.7869e-08
5.74979e-08
5.71333e-08
5.6813e-08
5.64961e-08
5.62202e-08
5.59445e-08
5.57059e-08
5.54631e-08
5.52554e-08
5.50415e-08
5.48593e-08
5.46699e-08
5.45097e-08
5.43408e-08
5.42017e-08
5.40511e-08
5.39274e-08
5.37925e-08
5.36852e-08
5.35652e-08
5.34685e-08