/*--------------------------------*- C++ -*----------------------------------*\
| =========                 |                                                 |
| \\      /  F ield         | OpenFOAM: The Open Source CFD Toolbox           |
|  \\    /   O peration     | Version:  v2012                                 |
|   \\  /    A nd           | Website:  www.openfoam.com                      |
|    \\/     M anipulation  |                                                 |
\*---------------------------------------------------------------------------*/
FoamFile
{
    version     2.0;
    format      ascii;
    class       volScalarField;
    location    "32.5";
    object      yPlus;
}
// * * * * * * * * * * * * * * * * * * * * * * * * * * * * * * * * * * * * * //

dimensions      [0 0 0 0 0 0 0];


internalField   uniform 0;

boundaryField
{
    inlet
    {
        type            calculated;
        value           uniform 0;
    }
    outlet
    {
        type            calculated;
        value           uniform 0;
    }
    topWall
    {
        type            calculated;
        value           nonuniform List<scalar> 
545
(
0.145464
0.2509
0.321881
0.378345
0.426138
0.467947
0.505284
0.539097
0.570035
0.598562
0.625027
0.649699
0.672793
0.694482
0.71491
0.734199
0.752449
0.76975
0.786177
0.801799
0.816673
0.830852
0.844384
0.85731
0.86967
0.881496
0.892821
0.903675
0.914082
0.924068
0.933655
0.942864
0.951714
0.960224
0.968409
0.976287
0.98387
0.991174
0.99821
1.00499
1.01153
1.01783
1.02392
1.02978
1.03545
1.04092
1.0462
1.0513
1.05623
1.06099
1.06559
1.07004
1.07434
1.07851
1.08253
1.08643
1.09019
1.09384
1.09737
1.10079
1.1041
1.10731
1.11041
1.11342
1.11633
1.11915
1.12189
1.12454
1.12711
1.1296
1.13202
1.13436
1.1366
1.13877
1.14092
1.14305
1.14517
1.14726
1.14934
1.15141
1.15345
1.15548
1.1575
1.15949
1.16147
1.16344
1.16539
1.16732
1.16924
1.17114
1.17303
1.1749
1.17676
1.1786
1.18043
1.18224
1.18387
1.18533
1.18679
1.18825
1.1897
1.19116
1.19262
1.19407
1.19553
1.19698
1.19843
1.19989
1.20134
1.20279
1.20424
1.20569
1.20714
1.20859
1.21004
1.21149
1.21293
1.21438
1.21583
1.21727
1.21872
1.22016
1.2216
1.22304
1.22448
1.22592
1.22736
1.2288
1.23024
1.23167
1.23311
1.23454
1.23598
1.23741
1.23884
1.24027
1.2417
1.24313
1.24456
1.24599
1.24741
1.24884
1.25026
1.25169
1.25311
1.25453
1.25595
1.25737
1.25878
1.2602
1.26161
1.26303
1.26444
1.26585
1.26726
1.26867
1.27008
1.27149
1.27289
1.2743
1.2757
1.2771
1.2785
1.2799
1.2813
1.28269
1.28409
1.28548
1.28687
1.28826
1.28965
1.29104
1.29243
1.29381
1.29519
1.29657
1.29795
1.29933
1.30071
1.30209
1.30346
1.30483
1.3062
1.30757
1.30894
1.3103
1.31167
1.31303
1.31439
1.31575
1.3171
1.31846
1.31981
1.32116
1.32251
1.32386
1.32521
1.32655
1.32789
1.32923
1.33057
1.33191
1.33324
1.33457
1.3359
1.33723
1.33856
1.33988
1.34121
1.34253
1.34384
1.34516
1.34647
1.34778
1.34909
1.3504
1.35171
1.35301
1.35431
1.35561
1.3569
1.3582
1.35949
1.36078
1.36206
1.36335
1.36463
1.36591
1.36718
1.36846
1.36973
1.371
1.37227
1.37353
1.37479
1.37605
1.37731
1.37856
1.37981
1.38106
1.38231
1.38355
1.38479
1.38603
1.38727
1.3885
1.38973
1.39095
1.39218
1.3934
1.39462
1.39583
1.39705
1.39825
1.39946
1.40066
1.40187
1.40306
1.40426
1.40545
1.40664
1.40782
1.409
1.41018
1.41136
1.41253
1.4137
1.41487
1.41603
1.41712
1.41816
1.41919
1.42024
1.42129
1.42234
1.42341
1.42448
1.42555
1.42663
1.42772
1.42882
1.42992
1.43102
1.43213
1.43325
1.43438
1.43551
1.43664
1.43778
1.43893
1.44008
1.44124
1.44241
1.44357
1.44475
1.44593
1.44711
1.4483
1.4495
1.4507
1.4519
1.45311
1.45432
1.45554
1.45676
1.45799
1.45922
1.46045
1.46169
1.46293
1.46417
1.46542
1.46667
1.46793
1.46918
1.47044
1.47171
1.47297
1.47424
1.47551
1.47678
1.47805
1.47933
1.4806
1.48188
1.48316
1.48443
1.48571
1.48699
1.48827
1.48955
1.49083
1.49211
1.49338
1.49466
1.49593
1.4972
1.49847
1.49974
1.50101
1.50227
1.50353
1.50478
1.50603
1.50728
1.50853
1.50976
1.511
1.51222
1.51345
1.51466
1.51587
1.51708
1.51827
1.51946
1.52064
1.52181
1.52298
1.52413
1.52527
1.52641
1.52753
1.52865
1.52975
1.53084
1.53192
1.53299
1.53404
1.53508
1.53611
1.53712
1.53812
1.5391
1.54007
1.54102
1.54195
1.54287
1.54377
1.54465
1.54552
1.54636
1.54719
1.54799
1.54878
1.54954
1.55028
1.551
1.5517
1.55238
1.55303
1.55366
1.55426
1.55484
1.5554
1.55593
1.55643
1.5569
1.55735
1.55777
1.55816
1.55853
1.55886
1.55916
1.55944
1.55968
1.5599
1.56008
1.56023
1.56034
1.56043
1.56048
1.5605
1.56049
1.56044
1.56035
1.56023
1.56008
1.55989
1.55966
1.5594
1.55911
1.55877
1.5584
1.55799
1.55755
1.55707
1.55654
1.55599
1.55539
1.55476
1.55408
1.55337
1.55262
1.55184
1.55101
1.55015
1.54924
1.5483
1.54732
1.54631
1.54525
1.54416
1.54303
1.54186
1.54066
1.53942
1.53814
1.53683
1.53547
1.53409
1.53251
1.53073
1.52893
1.52711
1.52526
1.52339
1.5215
1.5196
1.51768
1.51575
1.51381
1.51185
1.50989
1.50792
1.50594
1.50397
1.50198
1.5
1.49801
1.49603
1.49405
1.49207
1.4901
1.48813
1.48617
1.48422
1.48227
1.48034
1.47841
1.4765
1.47459
1.4727
1.47083
1.46897
1.46712
1.46529
1.46347
1.46168
1.4599
1.45815
1.4564
1.45469
1.45299
1.45131
1.44965
1.44802
1.44641
1.44483
1.44327
1.44173
1.44022
1.43873
1.43727
1.43584
1.43443
1.43306
1.4317
1.43039
1.42909
1.42783
1.42659
1.42539
1.42422
1.42308
1.42197
1.42089
1.41984
1.41883
1.41785
1.4169
1.41599
1.41511
1.41426
1.41345
1.41268
1.41193
1.41123
1.41056
1.40992
1.40932
1.40876
1.40823
1.40774
1.40729
1.40687
1.4065
1.40616
1.40585
1.40559
1.40536
1.40516
1.40501
1.40489
1.40482
1.40475
)
;
    }
    bottomWall
    {
        type            calculated;
        value           nonuniform List<scalar> 
449
(
0.00274044
0.00480666
0.00538036
0.00533241
0.00526071
0.00516424
0.00506646
0.00497495
0.00489104
0.00481436
0.0047442
0.00467984
0.00462063
0.00456584
0.00451497
0.00446758
0.00442324
0.0043816
0.00434238
0.00430527
0.00427015
0.0042368
0.00420509
0.00417487
0.00414604
0.00411847
0.00409207
0.00406676
0.00404246
0.00401908
0.00399658
0.00397488
0.00395393
0.00393368
0.00391411
0.00389513
0.00387675
0.00385891
0.00384158
0.00382473
0.00380834
0.00379237
0.00377683
0.00376166
0.00374688
0.00373245
0.00371837
0.0037046
0.00369116
0.00367801
0.00366516
0.00365258
0.00364028
0.00362822
0.00361642
0.00360484
0.0035935
0.00358236
0.00357144
0.00356071
0.00355018
0.00353983
0.00352966
0.00351966
0.00350984
0.00350016
0.00349066
0.00348129
0.00347209
0.003463
0.00345408
0.00344527
0.00343661
0.00342806
0.00341965
0.00341134
0.00340318
0.0033951
0.00338715
0.00337929
0.00337156
0.00336391
0.00335639
0.00334894
0.00334161
0.00333434
0.0033272
0.00332012
0.00331315
0.00330624
0.00329944
0.0032927
0.00328606
0.00327947
0.00327299
0.00326656
0.00326022
0.00325393
0.00324774
0.00324159
0.00323553
0.00322951
0.00322358
0.0032177
0.00321189
0.00320613
0.00320044
0.0031948
0.00318923
0.0031837
0.00317824
0.00317282
0.00316747
0.00316216
0.00315691
0.0031517
0.00314655
0.00314144
0.00313639
0.00313137
0.00312641
0.00312149
0.00311662
0.00311178
0.003107
0.00310225
0.00309755
0.00309289
0.00308827
0.00308368
0.00307915
0.00307464
0.00307018
0.00306575
0.00306136
0.003057
0.00305269
0.0030484
0.00304415
0.00303993
0.00303576
0.0030316
0.00302749
0.00302341
0.00301936
0.00301534
0.00301136
0.00300739
0.00300347
0.00299956
0.0029957
0.00299185
0.00298804
0.00298425
0.0029805
0.00297676
0.00297306
0.00296938
0.00296573
0.0029621
0.0029585
0.00295493
0.00295138
0.00294785
0.00294435
0.00294087
0.00293741
0.00293398
0.00293057
0.00292719
0.00292382
0.00292048
0.00291716
0.00291405
0.00291111
0.00290817
0.00290521
0.00290226
0.00289929
0.00289632
0.00289334
0.00289036
0.00288736
0.00288437
0.00288135
0.00287834
0.00287531
0.00287229
0.00286925
0.00286621
0.00286316
0.00286011
0.00285704
0.00285397
0.00285089
0.00284781
0.00284472
0.00284163
0.00283853
0.00283542
0.00283231
0.00282919
0.00282607
0.00282294
0.0028198
0.00281666
0.00281352
0.00281037
0.00280721
0.00280405
0.00280088
0.00279771
0.00279454
0.00279136
0.00278818
0.00278499
0.00278181
0.0027786
0.00277541
0.0027722
0.002769
0.00276578
0.00276257
0.00275935
0.00275613
0.0027529
0.00274968
0.00274644
0.00274321
0.00273997
0.00273673
0.00273349
0.00273024
0.00272699
0.00272374
0.00272049
0.00271723
0.00271397
0.00271071
0.00270745
0.00270419
0.00270093
0.00269767
0.0026944
0.00269113
0.00268787
0.00268459
0.00268132
0.00267805
0.00267478
0.0026715
0.00266823
0.00266495
0.00266168
0.0026584
0.00265513
0.00265184
0.00264857
0.00264529
0.00264202
0.00263874
0.00263546
0.00263219
0.00262891
0.00262564
0.00262236
0.00261909
0.00261582
0.00261255
0.00260928
0.00260601
0.00260274
0.00259948
0.00259621
0.00259296
0.00258969
0.00258644
0.00258317
0.00257993
0.00257667
0.00257343
0.00257018
0.00256694
0.0025637
0.00256047
0.00255723
0.002554
0.00255077
0.00254755
0.00254432
0.00254111
0.00253789
0.00253468
0.00253146
0.00252826
0.00252505
0.00252186
0.00251866
0.00251547
0.00251228
0.00250909
0.00250591
0.00250274
0.00249956
0.00249639
0.00249322
0.00249006
0.0024869
0.00248375
0.0024806
0.00247745
0.00247431
0.00247117
0.00246804
0.0024649
0.00246179
0.00245866
0.00245556
0.00245244
0.00244935
0.00244624
0.00244316
0.00244007
0.00243699
0.00243391
0.00243085
0.00242777
0.00242472
0.00242166
0.00241862
0.00241556
0.00241253
0.00240949
0.00240647
0.00240344
0.00240043
0.00239742
0.00239442
0.00239143
0.00238844
0.00238546
0.00238248
0.00237951
0.00237655
0.00237359
0.00237064
0.0023677
0.00236475
0.00236182
0.00235888
0.00235597
0.00235304
0.00235014
0.00234722
0.00234402
0.00234052
0.00233709
0.00233369
0.00233036
0.00232706
0.00232384
0.00232064
0.00231751
0.0023144
0.00231135
0.00230834
0.00230537
0.00230244
0.00229955
0.0022967
0.00229389
0.00229111
0.00228838
0.00228567
0.002283
0.00228037
0.00227776
0.00227519
0.00227265
0.00227013
0.00226767
0.00226521
0.00226281
0.0022604
0.00225805
0.00225571
0.00225341
0.00225112
0.00224888
0.00224664
0.00224445
0.00224226
0.00224011
0.00223797
0.00223587
0.00223377
0.00223171
0.00222966
0.00222764
0.00222563
0.00222366
0.00222169
0.00221975
0.00221782
0.00221592
0.00221403
0.00221217
0.00221031
0.00220849
0.00220667
0.00220488
0.00220309
0.00220134
0.00219958
0.00219786
0.00219613
0.00219444
0.00219273
0.00219108
0.0021894
0.00218778
0.00218612
0.00218454
0.0021829
0.00218135
0.00217974
0.00217822
0.00217663
0.00217514
0.00217357
0.00217211
0.00217056
0.00216913
0.0021676
0.00216619
0.00216468
0.00216329
0.00216181
0.00216042
0.00215898
0.00215758
0.0021562
0.00215475
0.00215348
0.00215188
0.00215091
0.00214886
0.00214862
0.00214597
)
;
    }
    symmetry
    {
        type            symmetryPlane;
    }
    frontAndBack
    {
        type            empty;
    }
}


// ************************************************************************* //
