/*--------------------------------*- C++ -*----------------------------------*\
| =========                 |                                                 |
| \\      /  F ield         | OpenFOAM: The Open Source CFD Toolbox           |
|  \\    /   O peration     | Version:  v2012                                 |
|   \\  /    A nd           | Website:  www.openfoam.com                      |
|    \\/     M anipulation  |                                                 |
\*---------------------------------------------------------------------------*/
FoamFile
{
    version     2.0;
    format      ascii;
    class       volScalarField;
    location    "31";
    object      nut;
}
// * * * * * * * * * * * * * * * * * * * * * * * * * * * * * * * * * * * * * //

dimensions      [0 2 -1 0 0 0 0];


internalField   nonuniform List<scalar> 
209825
(
1.23883e-07
1.22938e-07
1.22559e-07
1.22626e-07
1.2294e-07
1.23341e-07
1.23766e-07
1.24166e-07
1.24546e-07
1.24885e-07
1.25203e-07
1.25481e-07
1.25744e-07
1.25972e-07
1.2619e-07
1.26378e-07
1.26561e-07
1.26717e-07
1.2687e-07
1.27002e-07
1.27132e-07
1.27243e-07
1.27355e-07
1.27449e-07
1.27546e-07
1.27627e-07
1.2771e-07
1.2778e-07
1.27853e-07
1.27915e-07
1.27978e-07
1.28031e-07
1.2809e-07
1.28137e-07
1.28187e-07
1.28227e-07
1.28273e-07
1.28311e-07
1.28352e-07
1.28384e-07
1.28421e-07
1.28454e-07
1.28485e-07
1.28511e-07
1.28544e-07
1.28567e-07
1.28595e-07
1.28615e-07
1.28639e-07
1.28661e-07
1.28684e-07
1.28701e-07
1.28722e-07
1.28742e-07
1.2876e-07
1.28773e-07
1.28793e-07
1.28805e-07
1.28814e-07
1.28827e-07
1.28834e-07
1.28846e-07
1.28843e-07
1.28859e-07
1.28874e-07
1.28901e-07
1.28926e-07
1.28953e-07
1.28963e-07
1.2899e-07
1.29005e-07
1.29032e-07
1.29054e-07
1.29084e-07
1.29105e-07
1.29131e-07
1.29145e-07
1.29169e-07
1.29185e-07
1.29207e-07
1.29225e-07
1.29245e-07
1.29265e-07
1.29285e-07
1.29306e-07
1.29328e-07
1.29349e-07
1.29375e-07
1.29396e-07
1.2943e-07
1.29453e-07
1.29496e-07
1.29533e-07
1.30729e-07
1.34607e-07
1.45555e-08
1.23883e-07
1.22938e-07
1.22559e-07
1.22626e-07
1.2294e-07
1.23341e-07
1.23765e-07
1.24166e-07
1.24546e-07
1.24885e-07
1.25202e-07
1.25481e-07
1.25743e-07
1.25972e-07
1.2619e-07
1.26378e-07
1.2656e-07
1.26717e-07
1.2687e-07
1.27001e-07
1.27132e-07
1.27243e-07
1.27354e-07
1.27449e-07
1.27546e-07
1.27627e-07
1.2771e-07
1.2778e-07
1.27853e-07
1.27915e-07
1.27978e-07
1.28031e-07
1.2809e-07
1.28137e-07
1.28187e-07
1.28227e-07
1.28273e-07
1.28311e-07
1.28352e-07
1.28384e-07
1.28421e-07
1.28454e-07
1.28485e-07
1.28511e-07
1.28544e-07
1.28567e-07
1.28595e-07
1.28615e-07
1.28639e-07
1.28661e-07
1.28684e-07
1.28701e-07
1.28722e-07
1.28742e-07
1.2876e-07
1.28773e-07
1.28793e-07
1.28805e-07
1.28814e-07
1.28827e-07
1.28834e-07
1.28846e-07
1.28844e-07
1.28859e-07
1.28875e-07
1.28901e-07
1.28926e-07
1.28953e-07
1.28963e-07
1.2899e-07
1.29005e-07
1.29032e-07
1.29054e-07
1.29084e-07
1.29105e-07
1.29131e-07
1.29145e-07
1.29169e-07
1.29185e-07
1.29207e-07
1.29225e-07
1.29245e-07
1.29265e-07
1.29285e-07
1.29306e-07
1.29328e-07
1.29349e-07
1.29375e-07
1.29396e-07
1.2943e-07
1.29453e-07
1.29496e-07
1.29533e-07
1.30731e-07
1.34609e-07
1.49994e-08
1.23883e-07
1.22938e-07
1.22558e-07
1.22625e-07
1.22939e-07
1.23339e-07
1.23763e-07
1.24163e-07
1.24543e-07
1.24882e-07
1.252e-07
1.25478e-07
1.25741e-07
1.2597e-07
1.26187e-07
1.26376e-07
1.26558e-07
1.26714e-07
1.26867e-07
1.26999e-07
1.27129e-07
1.2724e-07
1.27352e-07
1.27446e-07
1.27543e-07
1.27624e-07
1.27707e-07
1.27778e-07
1.2785e-07
1.27912e-07
1.27976e-07
1.28029e-07
1.28087e-07
1.28134e-07
1.28185e-07
1.28225e-07
1.2827e-07
1.28308e-07
1.28349e-07
1.28381e-07
1.28419e-07
1.28451e-07
1.28482e-07
1.28508e-07
1.28542e-07
1.28565e-07
1.28592e-07
1.28613e-07
1.28637e-07
1.28659e-07
1.28682e-07
1.28699e-07
1.2872e-07
1.2874e-07
1.28757e-07
1.28771e-07
1.2879e-07
1.28803e-07
1.28812e-07
1.28825e-07
1.28831e-07
1.28844e-07
1.28841e-07
1.28856e-07
1.28872e-07
1.28899e-07
1.28924e-07
1.2895e-07
1.28961e-07
1.28988e-07
1.29003e-07
1.29029e-07
1.29052e-07
1.29081e-07
1.29102e-07
1.29128e-07
1.29142e-07
1.29167e-07
1.29183e-07
1.29205e-07
1.29222e-07
1.29242e-07
1.29262e-07
1.29282e-07
1.29304e-07
1.29326e-07
1.29346e-07
1.29373e-07
1.29394e-07
1.29427e-07
1.29451e-07
1.29494e-07
1.29531e-07
1.30734e-07
1.34609e-07
1.55504e-08
1.23883e-07
1.22938e-07
1.22557e-07
1.22623e-07
1.22936e-07
1.23336e-07
1.2376e-07
1.24159e-07
1.24539e-07
1.24878e-07
1.25196e-07
1.25474e-07
1.25737e-07
1.25965e-07
1.26183e-07
1.26371e-07
1.26553e-07
1.2671e-07
1.26863e-07
1.26995e-07
1.27125e-07
1.27236e-07
1.27348e-07
1.27442e-07
1.27539e-07
1.2762e-07
1.27703e-07
1.27774e-07
1.27846e-07
1.27908e-07
1.27972e-07
1.28025e-07
1.28083e-07
1.2813e-07
1.28181e-07
1.28221e-07
1.28266e-07
1.28304e-07
1.28345e-07
1.28377e-07
1.28415e-07
1.28447e-07
1.28479e-07
1.28505e-07
1.28538e-07
1.28561e-07
1.28588e-07
1.28609e-07
1.28633e-07
1.28655e-07
1.28678e-07
1.28695e-07
1.28716e-07
1.28736e-07
1.28753e-07
1.28767e-07
1.28787e-07
1.28799e-07
1.28808e-07
1.28821e-07
1.28828e-07
1.2884e-07
1.28838e-07
1.28853e-07
1.28868e-07
1.28895e-07
1.2892e-07
1.28947e-07
1.28957e-07
1.28984e-07
1.28999e-07
1.29025e-07
1.29048e-07
1.29077e-07
1.29099e-07
1.29125e-07
1.29139e-07
1.29163e-07
1.29179e-07
1.29201e-07
1.29219e-07
1.29239e-07
1.29259e-07
1.29279e-07
1.293e-07
1.29322e-07
1.29343e-07
1.29369e-07
1.2939e-07
1.29424e-07
1.29447e-07
1.2949e-07
1.29527e-07
1.30737e-07
1.34609e-07
1.61618e-08
1.23883e-07
1.22938e-07
1.22556e-07
1.2262e-07
1.22933e-07
1.23332e-07
1.23755e-07
1.24154e-07
1.24534e-07
1.24873e-07
1.2519e-07
1.25469e-07
1.25731e-07
1.2596e-07
1.26177e-07
1.26366e-07
1.26548e-07
1.26705e-07
1.26858e-07
1.26989e-07
1.27119e-07
1.27231e-07
1.27342e-07
1.27437e-07
1.27533e-07
1.27615e-07
1.27698e-07
1.27768e-07
1.27841e-07
1.27903e-07
1.27967e-07
1.2802e-07
1.28078e-07
1.28125e-07
1.28176e-07
1.28216e-07
1.28261e-07
1.28299e-07
1.2834e-07
1.28372e-07
1.2841e-07
1.28442e-07
1.28474e-07
1.285e-07
1.28533e-07
1.28556e-07
1.28584e-07
1.28604e-07
1.28628e-07
1.2865e-07
1.28673e-07
1.2869e-07
1.28711e-07
1.28731e-07
1.28749e-07
1.28763e-07
1.28782e-07
1.28795e-07
1.28803e-07
1.28816e-07
1.28823e-07
1.28836e-07
1.28833e-07
1.28848e-07
1.28864e-07
1.2889e-07
1.28915e-07
1.28942e-07
1.28952e-07
1.28979e-07
1.28994e-07
1.29021e-07
1.29043e-07
1.29072e-07
1.29094e-07
1.2912e-07
1.29134e-07
1.29158e-07
1.29174e-07
1.29197e-07
1.29214e-07
1.29234e-07
1.29254e-07
1.29274e-07
1.29296e-07
1.29318e-07
1.29338e-07
1.29364e-07
1.29386e-07
1.29419e-07
1.29442e-07
1.29485e-07
1.29522e-07
1.30743e-07
1.3461e-07
1.68247e-08
1.23883e-07
1.22937e-07
1.22555e-07
1.22617e-07
1.22928e-07
1.23326e-07
1.23749e-07
1.24148e-07
1.24527e-07
1.24866e-07
1.25183e-07
1.25462e-07
1.25724e-07
1.25952e-07
1.2617e-07
1.26359e-07
1.26541e-07
1.26698e-07
1.26851e-07
1.26982e-07
1.27112e-07
1.27224e-07
1.27335e-07
1.2743e-07
1.27527e-07
1.27608e-07
1.27691e-07
1.27762e-07
1.27834e-07
1.27896e-07
1.2796e-07
1.28013e-07
1.28071e-07
1.28119e-07
1.28169e-07
1.28209e-07
1.28255e-07
1.28293e-07
1.28334e-07
1.28366e-07
1.28404e-07
1.28436e-07
1.28467e-07
1.28494e-07
1.28527e-07
1.2855e-07
1.28577e-07
1.28598e-07
1.28622e-07
1.28644e-07
1.28667e-07
1.28684e-07
1.28705e-07
1.28725e-07
1.28743e-07
1.28757e-07
1.28776e-07
1.28789e-07
1.28798e-07
1.2881e-07
1.28817e-07
1.2883e-07
1.28827e-07
1.28842e-07
1.28858e-07
1.28884e-07
1.2891e-07
1.28936e-07
1.28947e-07
1.28973e-07
1.28988e-07
1.29015e-07
1.29037e-07
1.29066e-07
1.29088e-07
1.29114e-07
1.29128e-07
1.29153e-07
1.29168e-07
1.29191e-07
1.29208e-07
1.29228e-07
1.29248e-07
1.29268e-07
1.2929e-07
1.29312e-07
1.29332e-07
1.29359e-07
1.2938e-07
1.29413e-07
1.29436e-07
1.29479e-07
1.29517e-07
1.3075e-07
1.34611e-07
1.75375e-08
1.23884e-07
1.22937e-07
1.22553e-07
1.22613e-07
1.22923e-07
1.2332e-07
1.23742e-07
1.2414e-07
1.24519e-07
1.24857e-07
1.25174e-07
1.25453e-07
1.25715e-07
1.25944e-07
1.26161e-07
1.2635e-07
1.26532e-07
1.26689e-07
1.26842e-07
1.26974e-07
1.27104e-07
1.27215e-07
1.27327e-07
1.27422e-07
1.27519e-07
1.276e-07
1.27683e-07
1.27754e-07
1.27826e-07
1.27888e-07
1.27952e-07
1.28005e-07
1.28064e-07
1.28111e-07
1.28162e-07
1.28202e-07
1.28247e-07
1.28285e-07
1.28326e-07
1.28359e-07
1.28396e-07
1.28429e-07
1.2846e-07
1.28486e-07
1.2852e-07
1.28543e-07
1.2857e-07
1.28591e-07
1.28615e-07
1.28637e-07
1.2866e-07
1.28677e-07
1.28698e-07
1.28718e-07
1.28736e-07
1.2875e-07
1.28769e-07
1.28782e-07
1.28791e-07
1.28803e-07
1.2881e-07
1.28823e-07
1.28821e-07
1.28835e-07
1.28851e-07
1.28877e-07
1.28903e-07
1.28929e-07
1.28939e-07
1.28966e-07
1.28981e-07
1.29007e-07
1.2903e-07
1.29059e-07
1.29081e-07
1.29107e-07
1.29121e-07
1.29145e-07
1.29161e-07
1.29184e-07
1.29201e-07
1.29221e-07
1.29241e-07
1.29261e-07
1.29283e-07
1.29305e-07
1.29325e-07
1.29352e-07
1.29373e-07
1.29406e-07
1.29429e-07
1.29472e-07
1.2951e-07
1.3076e-07
1.34612e-07
1.83004e-08
1.23884e-07
1.22937e-07
1.22551e-07
1.22609e-07
1.22916e-07
1.23312e-07
1.23733e-07
1.24131e-07
1.24509e-07
1.24847e-07
1.25164e-07
1.25443e-07
1.25705e-07
1.25933e-07
1.26151e-07
1.2634e-07
1.26522e-07
1.26679e-07
1.26832e-07
1.26964e-07
1.27094e-07
1.27206e-07
1.27317e-07
1.27412e-07
1.27509e-07
1.2759e-07
1.27674e-07
1.27744e-07
1.27817e-07
1.27879e-07
1.27943e-07
1.27996e-07
1.28055e-07
1.28102e-07
1.28153e-07
1.28193e-07
1.28238e-07
1.28276e-07
1.28318e-07
1.2835e-07
1.28387e-07
1.2842e-07
1.28451e-07
1.28478e-07
1.28511e-07
1.28534e-07
1.28562e-07
1.28582e-07
1.28607e-07
1.28628e-07
1.28652e-07
1.28669e-07
1.2869e-07
1.2871e-07
1.28727e-07
1.28741e-07
1.28761e-07
1.28774e-07
1.28783e-07
1.28795e-07
1.28802e-07
1.28815e-07
1.28813e-07
1.28827e-07
1.28843e-07
1.28869e-07
1.28894e-07
1.2892e-07
1.28931e-07
1.28958e-07
1.28973e-07
1.28999e-07
1.29021e-07
1.29051e-07
1.29072e-07
1.29099e-07
1.29113e-07
1.29137e-07
1.29153e-07
1.29176e-07
1.29193e-07
1.29213e-07
1.29233e-07
1.29253e-07
1.29275e-07
1.29297e-07
1.29317e-07
1.29343e-07
1.29365e-07
1.29398e-07
1.29421e-07
1.29464e-07
1.29501e-07
1.30772e-07
1.34614e-07
1.91144e-08
1.23885e-07
1.22937e-07
1.22548e-07
1.22604e-07
1.22909e-07
1.23303e-07
1.23723e-07
1.2412e-07
1.24498e-07
1.24836e-07
1.25153e-07
1.25431e-07
1.25693e-07
1.25922e-07
1.26139e-07
1.26328e-07
1.2651e-07
1.26667e-07
1.26821e-07
1.26952e-07
1.27083e-07
1.27194e-07
1.27306e-07
1.27401e-07
1.27498e-07
1.27579e-07
1.27663e-07
1.27733e-07
1.27806e-07
1.27868e-07
1.27933e-07
1.27986e-07
1.28044e-07
1.28092e-07
1.28142e-07
1.28183e-07
1.28228e-07
1.28266e-07
1.28307e-07
1.2834e-07
1.28377e-07
1.2841e-07
1.28442e-07
1.28468e-07
1.28501e-07
1.28524e-07
1.28552e-07
1.28573e-07
1.28597e-07
1.28619e-07
1.28642e-07
1.28659e-07
1.2868e-07
1.287e-07
1.28718e-07
1.28732e-07
1.28751e-07
1.28764e-07
1.28773e-07
1.28786e-07
1.28793e-07
1.28806e-07
1.28804e-07
1.28818e-07
1.28833e-07
1.2886e-07
1.28885e-07
1.28911e-07
1.28922e-07
1.28948e-07
1.28963e-07
1.28989e-07
1.29012e-07
1.29041e-07
1.29063e-07
1.29089e-07
1.29103e-07
1.29128e-07
1.29144e-07
1.29166e-07
1.29183e-07
1.29204e-07
1.29224e-07
1.29244e-07
1.29265e-07
1.29287e-07
1.29308e-07
1.29334e-07
1.29355e-07
1.29389e-07
1.29412e-07
1.29455e-07
1.29492e-07
1.30787e-07
1.34617e-07
1.99799e-08
1.23885e-07
1.22936e-07
1.22545e-07
1.22598e-07
1.22901e-07
1.23293e-07
1.23712e-07
1.24108e-07
1.24485e-07
1.24823e-07
1.25139e-07
1.25417e-07
1.2568e-07
1.25908e-07
1.26126e-07
1.26315e-07
1.26497e-07
1.26654e-07
1.26808e-07
1.26939e-07
1.2707e-07
1.27182e-07
1.27293e-07
1.27388e-07
1.27486e-07
1.27567e-07
1.27651e-07
1.27721e-07
1.27794e-07
1.27856e-07
1.27921e-07
1.27974e-07
1.28032e-07
1.2808e-07
1.28131e-07
1.28171e-07
1.28217e-07
1.28255e-07
1.28296e-07
1.28329e-07
1.28366e-07
1.28399e-07
1.2843e-07
1.28457e-07
1.2849e-07
1.28513e-07
1.28541e-07
1.28562e-07
1.28586e-07
1.28608e-07
1.28631e-07
1.28648e-07
1.28669e-07
1.28689e-07
1.28707e-07
1.28721e-07
1.28741e-07
1.28754e-07
1.28763e-07
1.28776e-07
1.28783e-07
1.28795e-07
1.28794e-07
1.28808e-07
1.28823e-07
1.28849e-07
1.28875e-07
1.289e-07
1.28911e-07
1.28937e-07
1.28952e-07
1.28979e-07
1.29001e-07
1.2903e-07
1.29052e-07
1.29078e-07
1.29092e-07
1.29117e-07
1.29133e-07
1.29156e-07
1.29173e-07
1.29193e-07
1.29213e-07
1.29233e-07
1.29255e-07
1.29277e-07
1.29298e-07
1.29324e-07
1.29345e-07
1.29378e-07
1.29401e-07
1.29444e-07
1.29482e-07
1.30804e-07
1.3462e-07
2.0897e-08
1.23886e-07
1.22936e-07
1.22542e-07
1.22591e-07
1.22891e-07
1.23281e-07
1.23699e-07
1.24094e-07
1.24471e-07
1.24808e-07
1.25124e-07
1.25402e-07
1.25665e-07
1.25893e-07
1.26111e-07
1.263e-07
1.26482e-07
1.26639e-07
1.26793e-07
1.26925e-07
1.27056e-07
1.27167e-07
1.27279e-07
1.27374e-07
1.27472e-07
1.27553e-07
1.27637e-07
1.27708e-07
1.27781e-07
1.27843e-07
1.27907e-07
1.2796e-07
1.28019e-07
1.28067e-07
1.28118e-07
1.28158e-07
1.28204e-07
1.28242e-07
1.28283e-07
1.28316e-07
1.28354e-07
1.28386e-07
1.28418e-07
1.28444e-07
1.28478e-07
1.28501e-07
1.28529e-07
1.28549e-07
1.28574e-07
1.28596e-07
1.28619e-07
1.28636e-07
1.28657e-07
1.28677e-07
1.28695e-07
1.28709e-07
1.28729e-07
1.28742e-07
1.28751e-07
1.28764e-07
1.28771e-07
1.28784e-07
1.28782e-07
1.28796e-07
1.28811e-07
1.28837e-07
1.28863e-07
1.28888e-07
1.28899e-07
1.28925e-07
1.2894e-07
1.28967e-07
1.28989e-07
1.29018e-07
1.2904e-07
1.29066e-07
1.29081e-07
1.29105e-07
1.29121e-07
1.29144e-07
1.29161e-07
1.29182e-07
1.29202e-07
1.29222e-07
1.29243e-07
1.29265e-07
1.29286e-07
1.29312e-07
1.29333e-07
1.29366e-07
1.29389e-07
1.29432e-07
1.2947e-07
1.30824e-07
1.34623e-07
2.18644e-08
1.23886e-07
1.22936e-07
1.22538e-07
1.22584e-07
1.22881e-07
1.23268e-07
1.23685e-07
1.24079e-07
1.24455e-07
1.24792e-07
1.25108e-07
1.25386e-07
1.25648e-07
1.25876e-07
1.26094e-07
1.26283e-07
1.26466e-07
1.26623e-07
1.26777e-07
1.26908e-07
1.27039e-07
1.27151e-07
1.27263e-07
1.27359e-07
1.27456e-07
1.27538e-07
1.27622e-07
1.27692e-07
1.27766e-07
1.27828e-07
1.27892e-07
1.27946e-07
1.28004e-07
1.28052e-07
1.28103e-07
1.28144e-07
1.2819e-07
1.28228e-07
1.28269e-07
1.28302e-07
1.28339e-07
1.28372e-07
1.28404e-07
1.2843e-07
1.28464e-07
1.28487e-07
1.28515e-07
1.28536e-07
1.2856e-07
1.28582e-07
1.28606e-07
1.28623e-07
1.28644e-07
1.28664e-07
1.28682e-07
1.28696e-07
1.28715e-07
1.28729e-07
1.28738e-07
1.28751e-07
1.28758e-07
1.28771e-07
1.2877e-07
1.28784e-07
1.28798e-07
1.28824e-07
1.2885e-07
1.28875e-07
1.28886e-07
1.28912e-07
1.28927e-07
1.28953e-07
1.28975e-07
1.29005e-07
1.29026e-07
1.29053e-07
1.29067e-07
1.29092e-07
1.29108e-07
1.29131e-07
1.29148e-07
1.29169e-07
1.29188e-07
1.29209e-07
1.2923e-07
1.29252e-07
1.29273e-07
1.29299e-07
1.2932e-07
1.29353e-07
1.29376e-07
1.29419e-07
1.29457e-07
1.30847e-07
1.34627e-07
2.2881e-08
1.23887e-07
1.22935e-07
1.22534e-07
1.22576e-07
1.22869e-07
1.23254e-07
1.23669e-07
1.24062e-07
1.24437e-07
1.24774e-07
1.25089e-07
1.25367e-07
1.25629e-07
1.25858e-07
1.26076e-07
1.26265e-07
1.26447e-07
1.26605e-07
1.26759e-07
1.26891e-07
1.27022e-07
1.27134e-07
1.27246e-07
1.27341e-07
1.27439e-07
1.27521e-07
1.27605e-07
1.27676e-07
1.27749e-07
1.27811e-07
1.27876e-07
1.27929e-07
1.27988e-07
1.28036e-07
1.28087e-07
1.28128e-07
1.28174e-07
1.28212e-07
1.28254e-07
1.28286e-07
1.28324e-07
1.28357e-07
1.28389e-07
1.28415e-07
1.28449e-07
1.28472e-07
1.285e-07
1.28521e-07
1.28545e-07
1.28567e-07
1.28591e-07
1.28608e-07
1.28629e-07
1.28649e-07
1.28668e-07
1.28682e-07
1.28701e-07
1.28714e-07
1.28724e-07
1.28737e-07
1.28744e-07
1.28757e-07
1.28756e-07
1.2877e-07
1.28783e-07
1.2881e-07
1.28835e-07
1.2886e-07
1.28871e-07
1.28897e-07
1.28912e-07
1.28939e-07
1.2896e-07
1.2899e-07
1.29011e-07
1.29038e-07
1.29053e-07
1.29078e-07
1.29093e-07
1.29117e-07
1.29134e-07
1.29154e-07
1.29174e-07
1.29194e-07
1.29216e-07
1.29238e-07
1.29259e-07
1.29285e-07
1.29306e-07
1.29339e-07
1.29362e-07
1.29404e-07
1.29443e-07
1.30873e-07
1.34631e-07
2.39494e-08
1.23888e-07
1.22935e-07
1.2253e-07
1.22567e-07
1.22857e-07
1.23239e-07
1.23652e-07
1.24043e-07
1.24418e-07
1.24754e-07
1.25069e-07
1.25347e-07
1.25609e-07
1.25838e-07
1.26056e-07
1.26245e-07
1.26427e-07
1.26585e-07
1.26739e-07
1.26871e-07
1.27002e-07
1.27114e-07
1.27227e-07
1.27323e-07
1.2742e-07
1.27502e-07
1.27586e-07
1.27657e-07
1.27731e-07
1.27793e-07
1.27858e-07
1.27912e-07
1.27971e-07
1.28019e-07
1.2807e-07
1.2811e-07
1.28157e-07
1.28195e-07
1.28236e-07
1.28269e-07
1.28307e-07
1.2834e-07
1.28372e-07
1.28398e-07
1.28432e-07
1.28456e-07
1.28484e-07
1.28505e-07
1.28529e-07
1.28551e-07
1.28575e-07
1.28592e-07
1.28613e-07
1.28633e-07
1.28652e-07
1.28666e-07
1.28685e-07
1.28699e-07
1.28708e-07
1.28721e-07
1.28729e-07
1.28742e-07
1.28741e-07
1.28754e-07
1.28768e-07
1.28794e-07
1.2882e-07
1.28844e-07
1.28855e-07
1.28881e-07
1.28896e-07
1.28922e-07
1.28944e-07
1.28973e-07
1.28995e-07
1.29022e-07
1.29037e-07
1.29062e-07
1.29078e-07
1.29101e-07
1.29118e-07
1.29139e-07
1.29159e-07
1.29179e-07
1.29201e-07
1.29222e-07
1.29243e-07
1.29269e-07
1.2929e-07
1.29323e-07
1.29346e-07
1.29388e-07
1.29428e-07
1.30902e-07
1.34636e-07
2.5073e-08
1.23889e-07
1.22935e-07
1.22525e-07
1.22557e-07
1.22843e-07
1.23222e-07
1.23633e-07
1.24023e-07
1.24397e-07
1.24732e-07
1.25048e-07
1.25325e-07
1.25587e-07
1.25816e-07
1.26034e-07
1.26223e-07
1.26406e-07
1.26563e-07
1.26718e-07
1.2685e-07
1.26981e-07
1.27094e-07
1.27206e-07
1.27302e-07
1.274e-07
1.27482e-07
1.27566e-07
1.27637e-07
1.27711e-07
1.27774e-07
1.27839e-07
1.27892e-07
1.27951e-07
1.27999e-07
1.28051e-07
1.28092e-07
1.28138e-07
1.28176e-07
1.28218e-07
1.28251e-07
1.28289e-07
1.28322e-07
1.28354e-07
1.2838e-07
1.28414e-07
1.28438e-07
1.28466e-07
1.28487e-07
1.28511e-07
1.28533e-07
1.28557e-07
1.28575e-07
1.28596e-07
1.28616e-07
1.28634e-07
1.28649e-07
1.28668e-07
1.28682e-07
1.28691e-07
1.28704e-07
1.28712e-07
1.28725e-07
1.28724e-07
1.28738e-07
1.28751e-07
1.28777e-07
1.28803e-07
1.28827e-07
1.28838e-07
1.28864e-07
1.28879e-07
1.28905e-07
1.28927e-07
1.28956e-07
1.28978e-07
1.29005e-07
1.2902e-07
1.29045e-07
1.2906e-07
1.29084e-07
1.29101e-07
1.29122e-07
1.29142e-07
1.29162e-07
1.29184e-07
1.29205e-07
1.29226e-07
1.29252e-07
1.29273e-07
1.29306e-07
1.29329e-07
1.29371e-07
1.29411e-07
1.30935e-07
1.34641e-07
2.62549e-08
1.2389e-07
1.22934e-07
1.2252e-07
1.22547e-07
1.22828e-07
1.23204e-07
1.23613e-07
1.24002e-07
1.24375e-07
1.24709e-07
1.25024e-07
1.25301e-07
1.25563e-07
1.25792e-07
1.2601e-07
1.26199e-07
1.26382e-07
1.2654e-07
1.26694e-07
1.26827e-07
1.26959e-07
1.27071e-07
1.27184e-07
1.2728e-07
1.27378e-07
1.2746e-07
1.27545e-07
1.27616e-07
1.2769e-07
1.27752e-07
1.27818e-07
1.27871e-07
1.27931e-07
1.27979e-07
1.2803e-07
1.28071e-07
1.28117e-07
1.28156e-07
1.28198e-07
1.28231e-07
1.28269e-07
1.28302e-07
1.28334e-07
1.28361e-07
1.28395e-07
1.28418e-07
1.28446e-07
1.28468e-07
1.28492e-07
1.28514e-07
1.28538e-07
1.28556e-07
1.28577e-07
1.28597e-07
1.28616e-07
1.2863e-07
1.28649e-07
1.28663e-07
1.28673e-07
1.28686e-07
1.28693e-07
1.28707e-07
1.28706e-07
1.2872e-07
1.28732e-07
1.28759e-07
1.28784e-07
1.28808e-07
1.2882e-07
1.28845e-07
1.2886e-07
1.28886e-07
1.28908e-07
1.28937e-07
1.28959e-07
1.28986e-07
1.29001e-07
1.29026e-07
1.29042e-07
1.29066e-07
1.29082e-07
1.29104e-07
1.29123e-07
1.29144e-07
1.29165e-07
1.29187e-07
1.29208e-07
1.29234e-07
1.29255e-07
1.29288e-07
1.2931e-07
1.29353e-07
1.29393e-07
1.30971e-07
1.34645e-07
2.74988e-08
1.2389e-07
1.22934e-07
1.22515e-07
1.22536e-07
1.22812e-07
1.23185e-07
1.23591e-07
1.23978e-07
1.2435e-07
1.24684e-07
1.24999e-07
1.25275e-07
1.25537e-07
1.25766e-07
1.25984e-07
1.26173e-07
1.26357e-07
1.26515e-07
1.26669e-07
1.26802e-07
1.26934e-07
1.27047e-07
1.2716e-07
1.27256e-07
1.27354e-07
1.27436e-07
1.27521e-07
1.27593e-07
1.27667e-07
1.27729e-07
1.27795e-07
1.27849e-07
1.27908e-07
1.27956e-07
1.28008e-07
1.28049e-07
1.28096e-07
1.28134e-07
1.28176e-07
1.28209e-07
1.28247e-07
1.28281e-07
1.28313e-07
1.2834e-07
1.28374e-07
1.28397e-07
1.28426e-07
1.28447e-07
1.28472e-07
1.28494e-07
1.28518e-07
1.28535e-07
1.28557e-07
1.28577e-07
1.28595e-07
1.2861e-07
1.28629e-07
1.28643e-07
1.28653e-07
1.28666e-07
1.28674e-07
1.28687e-07
1.28687e-07
1.287e-07
1.28712e-07
1.28739e-07
1.28765e-07
1.28788e-07
1.288e-07
1.28825e-07
1.2884e-07
1.28866e-07
1.28887e-07
1.28916e-07
1.28938e-07
1.28966e-07
1.28981e-07
1.29006e-07
1.29022e-07
1.29046e-07
1.29062e-07
1.29084e-07
1.29103e-07
1.29124e-07
1.29146e-07
1.29167e-07
1.29189e-07
1.29214e-07
1.29235e-07
1.29268e-07
1.2929e-07
1.29333e-07
1.29374e-07
1.31011e-07
1.3465e-07
2.88085e-08
1.23891e-07
1.22933e-07
1.22509e-07
1.22524e-07
1.22796e-07
1.23165e-07
1.23568e-07
1.23953e-07
1.24324e-07
1.24657e-07
1.24971e-07
1.25248e-07
1.2551e-07
1.25738e-07
1.25957e-07
1.26146e-07
1.2633e-07
1.26488e-07
1.26643e-07
1.26775e-07
1.26908e-07
1.2702e-07
1.27134e-07
1.2723e-07
1.27328e-07
1.27411e-07
1.27496e-07
1.27568e-07
1.27642e-07
1.27705e-07
1.2777e-07
1.27824e-07
1.27884e-07
1.27933e-07
1.27984e-07
1.28025e-07
1.28072e-07
1.28111e-07
1.28153e-07
1.28186e-07
1.28224e-07
1.28258e-07
1.2829e-07
1.28317e-07
1.28351e-07
1.28375e-07
1.28403e-07
1.28425e-07
1.2845e-07
1.28472e-07
1.28496e-07
1.28513e-07
1.28535e-07
1.28555e-07
1.28574e-07
1.28588e-07
1.28608e-07
1.28622e-07
1.28632e-07
1.28645e-07
1.28653e-07
1.28666e-07
1.28666e-07
1.28679e-07
1.28691e-07
1.28717e-07
1.28743e-07
1.28766e-07
1.28778e-07
1.28803e-07
1.28818e-07
1.28844e-07
1.28865e-07
1.28894e-07
1.28916e-07
1.28944e-07
1.28959e-07
1.28985e-07
1.29e-07
1.29024e-07
1.29041e-07
1.29063e-07
1.29082e-07
1.29103e-07
1.29124e-07
1.29146e-07
1.29167e-07
1.29193e-07
1.29214e-07
1.29247e-07
1.29269e-07
1.29311e-07
1.29353e-07
1.31054e-07
1.34653e-07
3.01877e-08
1.23893e-07
1.22933e-07
1.22503e-07
1.22512e-07
1.22778e-07
1.23143e-07
1.23543e-07
1.23927e-07
1.24296e-07
1.24629e-07
1.24942e-07
1.25218e-07
1.2548e-07
1.25709e-07
1.25927e-07
1.26117e-07
1.263e-07
1.26459e-07
1.26614e-07
1.26747e-07
1.26879e-07
1.26992e-07
1.27106e-07
1.27202e-07
1.27301e-07
1.27384e-07
1.27469e-07
1.27541e-07
1.27616e-07
1.27678e-07
1.27744e-07
1.27798e-07
1.27858e-07
1.27907e-07
1.27959e-07
1.28e-07
1.28047e-07
1.28086e-07
1.28128e-07
1.28161e-07
1.282e-07
1.28233e-07
1.28266e-07
1.28293e-07
1.28327e-07
1.28351e-07
1.28379e-07
1.28401e-07
1.28426e-07
1.28448e-07
1.28472e-07
1.2849e-07
1.28511e-07
1.28532e-07
1.28551e-07
1.28565e-07
1.28585e-07
1.28599e-07
1.28609e-07
1.28623e-07
1.2863e-07
1.28644e-07
1.28644e-07
1.28657e-07
1.28668e-07
1.28695e-07
1.28721e-07
1.28743e-07
1.28755e-07
1.2878e-07
1.28795e-07
1.28821e-07
1.28842e-07
1.28871e-07
1.28893e-07
1.2892e-07
1.28936e-07
1.28961e-07
1.28977e-07
1.29002e-07
1.29018e-07
1.2904e-07
1.29059e-07
1.2908e-07
1.29102e-07
1.29124e-07
1.29145e-07
1.2917e-07
1.29191e-07
1.29224e-07
1.29246e-07
1.29288e-07
1.29331e-07
1.31102e-07
1.34655e-07
3.16404e-08
1.23894e-07
1.22932e-07
1.22497e-07
1.22499e-07
1.22759e-07
1.23119e-07
1.23517e-07
1.23898e-07
1.24267e-07
1.24598e-07
1.24911e-07
1.25187e-07
1.25449e-07
1.25677e-07
1.25896e-07
1.26085e-07
1.26269e-07
1.26428e-07
1.26583e-07
1.26716e-07
1.26849e-07
1.26962e-07
1.27076e-07
1.27173e-07
1.27272e-07
1.27355e-07
1.2744e-07
1.27512e-07
1.27587e-07
1.2765e-07
1.27716e-07
1.27771e-07
1.27831e-07
1.27879e-07
1.27932e-07
1.27973e-07
1.2802e-07
1.28059e-07
1.28102e-07
1.28135e-07
1.28174e-07
1.28207e-07
1.2824e-07
1.28267e-07
1.28301e-07
1.28325e-07
1.28354e-07
1.28375e-07
1.28401e-07
1.28423e-07
1.28447e-07
1.28465e-07
1.28486e-07
1.28507e-07
1.28526e-07
1.28541e-07
1.2856e-07
1.28575e-07
1.28585e-07
1.28599e-07
1.28606e-07
1.2862e-07
1.28621e-07
1.28633e-07
1.28644e-07
1.2867e-07
1.28696e-07
1.28718e-07
1.28731e-07
1.28756e-07
1.2877e-07
1.28796e-07
1.28817e-07
1.28846e-07
1.28867e-07
1.28895e-07
1.28911e-07
1.28937e-07
1.28953e-07
1.28977e-07
1.28994e-07
1.29016e-07
1.29035e-07
1.29056e-07
1.29077e-07
1.29099e-07
1.29121e-07
1.29146e-07
1.29167e-07
1.292e-07
1.29222e-07
1.29264e-07
1.29308e-07
1.31152e-07
1.34655e-07
3.31706e-08
1.23895e-07
1.22932e-07
1.22491e-07
1.22485e-07
1.22739e-07
1.23095e-07
1.23489e-07
1.23868e-07
1.24235e-07
1.24565e-07
1.24878e-07
1.25154e-07
1.25415e-07
1.25644e-07
1.25862e-07
1.26052e-07
1.26236e-07
1.26395e-07
1.2655e-07
1.26684e-07
1.26817e-07
1.2693e-07
1.27045e-07
1.27141e-07
1.27241e-07
1.27324e-07
1.2741e-07
1.27482e-07
1.27557e-07
1.2762e-07
1.27687e-07
1.27741e-07
1.27801e-07
1.2785e-07
1.27903e-07
1.27944e-07
1.27992e-07
1.28031e-07
1.28073e-07
1.28107e-07
1.28146e-07
1.28179e-07
1.28212e-07
1.28239e-07
1.28274e-07
1.28298e-07
1.28327e-07
1.28348e-07
1.28374e-07
1.28396e-07
1.2842e-07
1.28438e-07
1.2846e-07
1.2848e-07
1.285e-07
1.28514e-07
1.28534e-07
1.28549e-07
1.28559e-07
1.28573e-07
1.28581e-07
1.28594e-07
1.28596e-07
1.28608e-07
1.28618e-07
1.28644e-07
1.28671e-07
1.28692e-07
1.28704e-07
1.28729e-07
1.28744e-07
1.2877e-07
1.2879e-07
1.28819e-07
1.28841e-07
1.28869e-07
1.28885e-07
1.28911e-07
1.28926e-07
1.28951e-07
1.28968e-07
1.2899e-07
1.29009e-07
1.2903e-07
1.29052e-07
1.29074e-07
1.29095e-07
1.2912e-07
1.29142e-07
1.29174e-07
1.29196e-07
1.29238e-07
1.29283e-07
1.31207e-07
1.34652e-07
3.47824e-08
1.23896e-07
1.22932e-07
1.22484e-07
1.2247e-07
1.22718e-07
1.23068e-07
1.2346e-07
1.23836e-07
1.24202e-07
1.24531e-07
1.24843e-07
1.25118e-07
1.2538e-07
1.25608e-07
1.25827e-07
1.26017e-07
1.26201e-07
1.2636e-07
1.26516e-07
1.26649e-07
1.26783e-07
1.26896e-07
1.27011e-07
1.27108e-07
1.27208e-07
1.27291e-07
1.27377e-07
1.2745e-07
1.27525e-07
1.27589e-07
1.27655e-07
1.2771e-07
1.2777e-07
1.27819e-07
1.27872e-07
1.27914e-07
1.27961e-07
1.28e-07
1.28043e-07
1.28077e-07
1.28116e-07
1.28149e-07
1.28183e-07
1.2821e-07
1.28244e-07
1.28269e-07
1.28298e-07
1.2832e-07
1.28345e-07
1.28367e-07
1.28392e-07
1.2841e-07
1.28432e-07
1.28452e-07
1.28472e-07
1.28486e-07
1.28506e-07
1.28521e-07
1.28531e-07
1.28546e-07
1.28553e-07
1.28567e-07
1.28569e-07
1.28581e-07
1.28591e-07
1.28617e-07
1.28643e-07
1.28664e-07
1.28677e-07
1.28701e-07
1.28716e-07
1.28742e-07
1.28762e-07
1.28791e-07
1.28812e-07
1.28841e-07
1.28857e-07
1.28883e-07
1.28899e-07
1.28924e-07
1.2894e-07
1.28963e-07
1.28981e-07
1.29003e-07
1.29024e-07
1.29046e-07
1.29068e-07
1.29093e-07
1.29114e-07
1.29147e-07
1.29168e-07
1.2921e-07
1.29257e-07
1.31264e-07
1.33936e-07
3.64794e-08
1.23897e-07
1.22931e-07
1.22477e-07
1.22455e-07
1.22696e-07
1.23041e-07
1.23428e-07
1.23803e-07
1.24167e-07
1.24494e-07
1.24806e-07
1.25081e-07
1.25342e-07
1.2557e-07
1.25789e-07
1.25979e-07
1.26164e-07
1.26323e-07
1.26479e-07
1.26613e-07
1.26747e-07
1.2686e-07
1.26975e-07
1.27073e-07
1.27173e-07
1.27256e-07
1.27343e-07
1.27415e-07
1.27491e-07
1.27555e-07
1.27622e-07
1.27676e-07
1.27737e-07
1.27787e-07
1.2784e-07
1.27881e-07
1.27929e-07
1.27968e-07
1.28011e-07
1.28045e-07
1.28084e-07
1.28118e-07
1.28152e-07
1.28179e-07
1.28213e-07
1.28238e-07
1.28267e-07
1.28289e-07
1.28315e-07
1.28337e-07
1.28362e-07
1.2838e-07
1.28402e-07
1.28422e-07
1.28442e-07
1.28457e-07
1.28477e-07
1.28492e-07
1.28502e-07
1.28517e-07
1.28525e-07
1.28539e-07
1.2854e-07
1.28553e-07
1.28562e-07
1.28588e-07
1.28614e-07
1.28634e-07
1.28647e-07
1.28672e-07
1.28686e-07
1.28712e-07
1.28732e-07
1.28761e-07
1.28782e-07
1.28811e-07
1.28827e-07
1.28853e-07
1.28869e-07
1.28895e-07
1.28911e-07
1.28934e-07
1.28952e-07
1.28974e-07
1.28995e-07
1.29017e-07
1.29039e-07
1.29064e-07
1.29085e-07
1.29118e-07
1.29139e-07
1.2918e-07
1.29229e-07
1.31325e-07
1.28228e-07
3.82651e-08
1.23899e-07
1.22931e-07
1.22469e-07
1.22439e-07
1.22672e-07
1.23012e-07
1.23396e-07
1.23767e-07
1.24129e-07
1.24456e-07
1.24767e-07
1.25041e-07
1.25302e-07
1.2553e-07
1.25749e-07
1.25939e-07
1.26124e-07
1.26284e-07
1.2644e-07
1.26574e-07
1.26708e-07
1.26822e-07
1.26938e-07
1.27035e-07
1.27136e-07
1.27219e-07
1.27306e-07
1.27379e-07
1.27455e-07
1.27519e-07
1.27586e-07
1.27641e-07
1.27702e-07
1.27752e-07
1.27805e-07
1.27847e-07
1.27895e-07
1.27934e-07
1.27978e-07
1.28012e-07
1.28051e-07
1.28085e-07
1.28119e-07
1.28146e-07
1.28181e-07
1.28206e-07
1.28235e-07
1.28257e-07
1.28283e-07
1.28305e-07
1.2833e-07
1.28348e-07
1.2837e-07
1.28391e-07
1.28411e-07
1.28426e-07
1.28445e-07
1.28461e-07
1.28472e-07
1.28486e-07
1.28494e-07
1.28508e-07
1.2851e-07
1.28522e-07
1.28532e-07
1.28557e-07
1.28584e-07
1.28603e-07
1.28616e-07
1.2864e-07
1.28655e-07
1.28681e-07
1.287e-07
1.28729e-07
1.2875e-07
1.28779e-07
1.28795e-07
1.28822e-07
1.28838e-07
1.28864e-07
1.2888e-07
1.28903e-07
1.28921e-07
1.28944e-07
1.28964e-07
1.28987e-07
1.29008e-07
1.29033e-07
1.29055e-07
1.29087e-07
1.29108e-07
1.29149e-07
1.29199e-07
1.31387e-07
1.23108e-07
4.01425e-08
1.239e-07
1.22931e-07
1.22462e-07
1.22423e-07
1.22648e-07
1.22982e-07
1.23361e-07
1.2373e-07
1.2409e-07
1.24416e-07
1.24726e-07
1.24999e-07
1.2526e-07
1.25488e-07
1.25708e-07
1.25897e-07
1.26083e-07
1.26242e-07
1.26399e-07
1.26533e-07
1.26668e-07
1.26782e-07
1.26898e-07
1.26996e-07
1.27096e-07
1.27181e-07
1.27268e-07
1.27341e-07
1.27417e-07
1.27481e-07
1.27549e-07
1.27604e-07
1.27665e-07
1.27715e-07
1.27769e-07
1.27811e-07
1.27859e-07
1.27899e-07
1.27942e-07
1.27976e-07
1.28016e-07
1.2805e-07
1.28084e-07
1.28111e-07
1.28146e-07
1.28171e-07
1.28201e-07
1.28223e-07
1.28249e-07
1.28271e-07
1.28296e-07
1.28315e-07
1.28337e-07
1.28358e-07
1.28377e-07
1.28393e-07
1.28412e-07
1.28428e-07
1.28439e-07
1.28454e-07
1.28462e-07
1.28476e-07
1.28479e-07
1.28491e-07
1.28499e-07
1.28525e-07
1.28551e-07
1.2857e-07
1.28584e-07
1.28607e-07
1.28622e-07
1.28647e-07
1.28667e-07
1.28695e-07
1.28717e-07
1.28745e-07
1.28762e-07
1.28788e-07
1.28805e-07
1.28831e-07
1.28847e-07
1.28871e-07
1.28889e-07
1.28911e-07
1.28932e-07
1.28954e-07
1.28976e-07
1.29001e-07
1.29022e-07
1.29055e-07
1.29076e-07
1.29116e-07
1.29168e-07
1.3145e-07
1.1853e-07
4.21134e-08
1.23902e-07
1.2293e-07
1.22454e-07
1.22406e-07
1.22623e-07
1.2295e-07
1.23325e-07
1.23691e-07
1.24049e-07
1.24373e-07
1.24682e-07
1.24955e-07
1.25216e-07
1.25444e-07
1.25663e-07
1.25853e-07
1.26039e-07
1.26199e-07
1.26356e-07
1.2649e-07
1.26625e-07
1.2674e-07
1.26856e-07
1.26954e-07
1.27055e-07
1.2714e-07
1.27227e-07
1.273e-07
1.27377e-07
1.27442e-07
1.2751e-07
1.27565e-07
1.27626e-07
1.27676e-07
1.2773e-07
1.27773e-07
1.27821e-07
1.27861e-07
1.27905e-07
1.27939e-07
1.27979e-07
1.28013e-07
1.28047e-07
1.28075e-07
1.2811e-07
1.28135e-07
1.28164e-07
1.28187e-07
1.28213e-07
1.28236e-07