/*--------------------------------*- C++ -*----------------------------------*\
| =========                 |                                                 |
| \\      /  F ield         | OpenFOAM: The Open Source CFD Toolbox           |
|  \\    /   O peration     | Version:  v2012                                 |
|   \\  /    A nd           | Website:  www.openfoam.com                      |
|    \\/     M anipulation  |                                                 |
\*---------------------------------------------------------------------------*/
FoamFile
{
    version     2.0;
    format      ascii;
    class       volScalarField;
    location    "31";
    object      omega;
}
// * * * * * * * * * * * * * * * * * * * * * * * * * * * * * * * * * * * * * //

dimensions      [0 0 -1 0 0 0 0];


internalField   nonuniform List<scalar> 
209825
(
8259.5
7561.55
7005.63
6578.97
6254.86
6007.28
5814.65
5662.46
5539.6
5439.35
5355.89
5286.14
5226.64
5176.04
5132
5094.08
5060.52
5031.37
5005.17
4982.27
4961.41
4943.13
4926.23
4911.4
4897.53
4885.38
4873.86
4863.76
4854.09
4845.66
4837.46
4830.37
4823.36
4817.34
4811.32
4806.23
4801.03
4796.66
4792.13
4788.41
4784.5
4781.23
4777.84
4775.08
4772.07
4769.66
4767.01
4764.95
4762.7
4760.93
4759.04
4757.55
4755.8
4754.41
4753.03
4751.78
4750.54
4749.47
4748.52
4747.75
4746.93
4746.18
4745.58
4745.03
4744.35
4743.9
4743.43
4743.2
4742.81
4742.6
4742.17
4741.95
4741.5
4741.38
4741.11
4741.22
4741.2
4741.43
4741.43
4741.86
4741.86
4742.5
4742.5
4743.34
4743.38
4744.33
4744.5
4745.55
4745.79
4747.03
4747.21
4748.88
4749.46
4782.13
4904.06
113593
8259.5
7561.55
7005.63
6578.95
6254.83
6007.24
5814.6
5662.39
5539.52
5439.27
5355.8
5286.04
5226.53
5175.92
5131.89
5093.96
5060.4
5031.24
5005.04
4982.14
4961.28
4942.99
4926.09
4911.26
4897.39
4885.24
4873.71
4863.62
4853.94
4845.52
4837.31
4830.22
4823.21
4817.19
4811.17
4806.08
4800.88
4796.5
4791.98
4788.26
4784.34
4781.07
4777.68
4774.93
4771.91
4769.5
4766.85
4764.79
4762.54
4760.77
4758.88
4757.39
4755.64
4754.24
4752.87
4751.62
4750.38
4749.31
4748.35
4747.59
4746.77
4746.02
4745.42
4744.87
4744.18
4743.73
4743.26
4743.03
4742.65
4742.44
4742.01
4741.78
4741.34
4741.22
4740.94
4741.05
4741.04
4741.27
4741.26
4741.69
4741.69
4742.33
4742.33
4743.18
4743.22
4744.16
4744.34
4745.38
4745.63
4746.86
4747.04
4748.71
4749.29
4782.02
4903.92
110295
8259.5
7561.56
7005.62
6578.9
6254.72
6007.08
5814.4
5662.16
5539.25
5438.97
5355.48
5285.7
5226.17
5175.55
5131.49
5093.56
5059.98
5030.81
5004.6
4981.7
4960.83
4942.53
4925.63
4910.79
4896.92
4884.76
4873.23
4863.13
4853.45
4845.02
4836.81
4829.72
4822.7
4816.69
4810.66
4805.57
4800.37
4795.99
4791.46
4787.74
4783.83
4780.56
4777.16
4774.4
4771.39
4768.98
4766.32
4764.27
4762.01
4760.24
4758.36
4756.86
4755.11
4753.71
4752.33
4751.08
4749.85
4748.77
4747.82
4747.05
4746.23
4745.48
4744.88
4744.33
4743.64
4743.19
4742.72
4742.49
4742.11
4741.89
4741.46
4741.24
4740.79
4740.68
4740.4
4740.51
4740.49
4740.72
4740.72
4741.15
4741.15
4741.78
4741.79
4742.63
4742.67
4743.61
4743.79
4744.83
4745.07
4746.31
4746.49
4748.16
4748.74
4781.59
4903.43
106510
8259.51
7561.58
7005.6
6578.81
6254.54
6006.82
5814.06
5661.75
5538.78
5438.45
5354.92
5285.1
5225.55
5174.89
5130.82
5092.86
5059.27
5030.08
5003.86
4980.94
4960.05
4941.75
4924.84
4909.99
4896.11
4883.94
4872.4
4862.3
4852.61
4844.18
4835.96
4828.86
4821.85
4815.83
4809.8
4804.7
4799.49
4795.12
4790.59
4786.86
4782.94
4779.67
4776.27
4773.51
4770.49
4768.08
4765.43
4763.37
4761.11
4759.33
4757.45
4755.95
4754.2
4752.8
4751.42
4750.17
4748.94
4747.86
4746.9
4746.13
4745.31
4744.56
4743.96
4743.41
4742.72
4742.27
4741.8
4741.57
4741.18
4740.97
4740.54
4740.32
4739.87
4739.75
4739.47
4739.58
4739.56
4739.78
4739.78
4740.21
4740.21
4740.85
4740.85
4741.69
4741.73
4742.67
4742.84
4743.88
4744.13
4745.36
4745.54
4747.21
4747.79
4780.83
4902.57
102618
8259.52
7561.6
7005.56
6578.67
6254.28
6006.44
5813.57
5661.17
5538.12
5437.72
5354.13
5284.26
5224.66
5173.97
5129.86
5091.87
5058.25
5029.04
5002.79
4979.85
4958.95
4940.63
4923.71
4908.84
4894.95
4882.77
4871.23
4861.11
4851.42
4842.98
4834.75
4827.65
4820.62
4814.6
4808.56
4803.46
4798.25
4793.87
4789.33
4785.6
4781.68
4778.4
4775
4772.24
4769.22
4766.81
4764.15
4762.08
4759.83
4758.05
4756.16
4754.66
4752.9
4751.51
4750.13
4748.87
4747.63
4746.55
4745.6
4744.83
4744.01
4743.25
4742.65
4742.09
4741.41
4740.96
4740.48
4740.25
4739.87
4739.65
4739.22
4739
4738.55
4738.43
4738.15
4738.25
4738.23
4738.45
4738.45
4738.88
4738.88
4739.51
4739.51
4740.35
4740.39
4741.33
4741.5
4742.54
4742.78
4744.01
4744.19
4745.87
4746.44
4779.74
4901.34
98722.5
8259.53
7561.63
7005.52
6578.49
6253.94
6005.94
5812.93
5660.4
5537.25
5436.76
5353.09
5283.16
5223.5
5172.76
5128.6
5090.58
5056.92
5027.68
5001.4
4978.44
4957.52
4939.18
4922.23
4907.35
4893.44
4881.25
4869.69
4859.57
4849.86
4841.41
4833.18
4826.06
4819.03
4812.99
4806.95
4801.84
4796.62
4792.24
4787.7
4783.96
4780.03
4776.76
4773.35
4770.58
4767.56
4765.14
4762.48
4760.41
4758.15
4756.37
4754.48
4752.98
4751.22
4749.82
4748.43
4747.18
4745.94
4744.86
4743.9
4743.12
4742.3
4741.55
4740.94
4740.38
4739.7
4739.24
4738.77
4738.53
4738.15
4737.93
4737.5
4737.28
4736.83
4736.7
4736.42
4736.52
4736.5
4736.72
4736.72
4737.14
4737.14
4737.77
4737.77
4738.6
4738.64
4739.58
4739.75
4740.79
4741.03
4742.26
4742.43
4744.11
4744.69
4778.32
4899.74
94865
8259.54
7561.67
7005.48
6578.27
6253.52
6005.33
5812.14
5659.46
5536.18
5435.58
5351.81
5281.79
5222.06
5171.26
5127.05
5088.97
5055.27
5025.99
4999.69
4976.69
4955.74
4937.37
4920.41
4905.5
4891.58
4879.37
4867.79
4857.65
4847.93
4839.47
4831.22
4824.1
4817.05
4811.01
4804.96
4799.84
4794.62
4790.22
4785.67
4781.93
4778
4774.71
4771.3
4768.53
4765.5
4763.08
4760.41
4758.34
4756.08
4754.29
4752.39
4750.89
4749.13
4747.73
4746.34
4745.08
4743.84
4742.75
4741.79
4741.01
4740.19
4739.43
4738.82
4738.26
4737.58
4737.12
4736.64
4736.41
4736.02
4735.8
4735.37
4735.14
4734.69
4734.57
4734.28
4734.38
4734.36
4734.57
4734.57
4734.99
4734.99
4735.61
4735.61
4736.44
4736.48
4737.41
4737.58
4738.62
4738.86
4740.08
4740.25
4741.93
4742.51
4776.57
4897.76
91063.8
8259.56
7561.71
7005.42
6578.01
6253.02
6004.59
5811.2
5658.34
5534.9
5434.17
5350.28
5280.17
5220.35
5169.47
5125.19
5087.06
5053.31
5023.98
4997.63
4974.6
4953.61
4935.22
4918.22
4903.29
4889.34
4877.12
4865.52
4855.36
4845.62
4837.15
4828.88
4821.75
4814.69
4808.64
4802.57
4797.45
4792.21
4787.81
4783.25
4779.5
4775.56
4772.27
4768.85
4766.08
4763.04
4760.61
4757.94
4755.86
4753.59
4751.8
4749.9
4748.39
4746.63
4745.22
4743.83
4742.57
4741.32
4740.23
4739.27
4738.49
4737.66
4736.9
4736.29
4735.73
4735.04
4734.58
4734.1
4733.86
4733.47
4733.25
4732.82
4732.59
4732.14
4732.02
4731.73
4731.82
4731.79
4732
4732
4732.41
4732.41
4733.03
4733.03
4733.85
4733.89
4734.82
4734.99
4736.02
4736.26
4737.48
4737.65
4739.32
4739.91
4774.47
4895.4
87327.7
8259.58
7561.77
7005.35
6577.71
6252.45
6003.74
5810.1
5657.03
5533.41
5432.52
5348.5
5278.27
5218.35
5167.38
5123.02
5084.82
5051.01
5021.63
4995.23
4972.16
4951.13
4932.7
4915.67
4900.72
4886.74
4874.49
4862.87
4852.69
4842.93
4834.44
4826.16
4819
4811.93
4805.87
4799.79
4794.65
4789.41
4784.99
4780.43
4776.67
4772.72
4769.42
4765.99
4763.21
4760.17
4757.73
4755.05
4752.97
4750.7
4748.9
4746.99
4745.48
4743.71
4742.3
4740.9
4739.64
4738.39
4737.3
4736.32
4735.54
4734.71
4733.95
4733.33
4732.77
4732.08
4731.62
4731.13
4730.89
4730.5
4730.28
4729.84
4729.62
4729.16
4729.04
4728.74
4728.83
4728.8
4729
4729
4729.4
4729.4
4730.01
4730.01
4730.84
4730.87
4731.8
4731.96
4732.99
4733.22
4734.44
4734.61
4736.28
4736.87
4772.03
4892.66
83659.5
8259.61
7561.82
7005.28
6577.37
6251.78
6002.77
5808.85
5655.54
5531.7
5430.63
5346.46
5276.09
5216.06
5164.99
5120.55
5082.27
5048.38
5018.94
4992.49
4969.36
4948.29
4929.82
4912.75
4897.76
4883.76
4871.47
4859.83
4849.63
4839.84
4831.33
4823.03
4815.86
4808.78
4802.69
4796.6
4791.45
4786.19
4781.77
4777.19
4773.42
4769.46
4766.15
4762.72
4759.92
4756.87
4754.43
4751.74
4749.66
4747.37
4745.57
4743.66
4742.14
4740.37
4738.95
4737.55
4736.28
4735.03
4733.93
4732.95
4732.17
4731.33
4730.57
4729.94
4729.38
4728.68
4728.22
4727.73
4727.49
4727.09
4726.87
4726.43
4726.2
4725.75
4725.62
4725.32
4725.4
4725.37
4725.56
4725.56
4725.96
4725.96
4726.56
4726.56
4727.37
4727.4
4728.33
4728.49
4729.51
4729.74
4730.96
4731.12
4732.8
4733.38
4769.24
4889.53
80057.3
8259.63
7561.89
7005.19
6576.98
6251.04
6001.68
5807.44
5653.85
5529.78
5428.51
5344.16
5273.64
5213.47
5162.29
5117.75
5079.38
5045.42
5015.91
4989.39
4966.21
4945.08
4926.57
4909.46
4894.43
4880.39
4868.07
4856.4
4846.17
4836.36
4827.82
4819.5
4812.31
4805.21
4799.11
4793
4787.83
4782.56
4778.12
4773.53
4769.75
4765.78
4762.46
4759.01
4756.21
4753.15
4750.7
4748.01
4745.91
4743.62
4741.81
4739.89
4738.37
4736.59
4735.17
4733.76
4732.49
4731.22
4730.13
4729.14
4728.35
4727.51
4726.74
4726.11
4725.55
4724.85
4724.38
4723.89
4723.64
4723.24
4723.02
4722.57
4722.35
4721.89
4721.76
4721.46
4721.53
4721.49
4721.68
4721.68
4722.06
4722.06
4722.65
4722.66
4723.46
4723.49
4724.41
4724.56
4725.59
4725.81
4727.02
4727.18
4728.86
4729.45
4766.09
4886.01
76515.4
8259.66
7561.97
7005.1
6576.56
6250.22
6000.46
5805.87
5651.98
5527.64
5426.14
5341.6
5270.91
5210.59
5159.28
5114.63
5076.16
5042.11
5012.52
4985.93
4962.68
4941.5
4922.93
4905.78
4890.71
4876.62
4864.27
4852.56
4842.3
4832.47
4823.91
4815.56
4808.35
4801.22
4795.1
4788.98
4783.79
4778.5
4774.05
4769.45
4765.65
4761.67
4758.34
4754.88
4752.07
4749
4746.54
4743.83
4741.73
4739.43
4737.61
4735.68
4734.15
4732.37
4730.94
4729.52
4728.25
4726.98
4725.88
4724.88
4724.09
4723.24
4722.47
4721.83
4721.27
4720.56
4720.09
4719.59
4719.34
4718.93
4718.71
4718.27
4718.04
4717.59
4717.45
4717.14
4717.21
4717.16
4717.34
4717.34
4717.71
4717.71
4718.29
4718.3
4719.09
4719.12
4720.03
4720.18
4721.2
4721.42
4722.63
4722.78
4724.46
4725.05
4762.59
4882.1
73029.2
8259.69
7562.05
7005
6576.09
6249.31
5999.13
5804.15
5649.91
5525.28
5423.53
5338.77
5267.89
5207.41
5155.96
5111.18
5072.6
5038.45
5008.77
4982.1
4958.79
4937.54
4918.92
4901.71
4886.59
4872.46
4860.07
4848.32
4838.03
4828.16
4819.57
4811.2
4803.97
4796.81
4790.67
4784.53
4779.32
4774.01
4769.55
4764.93
4761.12
4757.12
4753.78
4750.3
4747.48
4744.4
4741.93
4739.21
4737.1
4734.79
4732.96
4731.03
4729.49
4727.7
4726.26
4724.84
4723.56
4722.28
4721.17
4720.17
4719.37
4718.52
4717.74
4717.09
4716.53
4715.82
4715.34
4714.84
4714.58
4714.17
4713.95
4713.5
4713.27
4712.82
4712.68
4712.36
4712.42
4712.37
4712.54
4712.53
4712.9
4712.9
4713.47
4713.47
4714.26
4714.28
4715.19
4715.33
4716.34
4716.56
4717.76
4717.91
4719.58
4720.19
4758.72
4877.79
69605.2
8259.73
7562.14
7004.9
6575.58
6248.32
5997.67
5802.26
5647.65
5522.7
5420.67
5335.66
5264.59
5203.92
5152.32
5107.39
5068.69
5034.43
5004.66
4977.9
4954.51
4933.2
4914.51
4897.24
4882.07
4867.89
4855.46
4843.67
4833.34
4823.44
4814.82
4806.41
4799.15
4791.97
4785.81
4779.64
4774.42
4769.09
4764.6
4759.96
4756.14
4752.12
4748.77
4745.28
4742.44
4739.35
4736.87
4734.14
4732.02
4729.7
4727.86
4725.91
4724.37
4722.57
4721.12
4719.69
4718.4
4717.12
4716.01
4715
4714.19
4713.33
4712.55
4711.89
4711.32
4710.61
4710.13
4709.62
4709.36
4708.94
4708.72
4708.27
4708.04
4707.58
4707.43
4707.11
4707.16
4707.1
4707.27
4707.26
4707.61
4707.61
4708.17
4708.17
4708.95
4708.96
4709.87
4710
4711.01
4711.23
4712.41
4712.56
4714.23
4714.84
4754.48
4873.08
66249.5
8259.76
7562.24
7004.78
6575.04
6247.26
5996.09
5800.21
5645.19
5519.89
5417.55
5332.29
5260.99
5200.13
5148.35
5103.27
5064.44
5030.06
5000.18
4973.33
4949.85
4928.46
4909.7
4892.37
4877.14
4862.91
4850.43
4838.6
4828.23
4818.29
4809.63
4801.19
4793.9
4786.69
4780.51
4774.31
4769.06
4763.71
4759.21
4754.55
4750.7
4746.67
4743.3
4739.8
4736.95
4733.84
4731.35
4728.61
4726.47
4724.14
4722.29
4720.33
4718.78
4716.97
4715.52
4714.08
4712.78
4711.49
4710.37
4709.35
4708.54
4707.67
4706.88
4706.22
4705.65
4704.93
4704.44
4703.92
4703.66
4703.24
4703.01
4702.55
4702.32
4701.86
4701.72
4701.39
4701.43
4701.36
4701.51
4701.5
4701.84
4701.84
4702.38
4702.38
4703.15
4703.16
4704.06
4704.19
4705.19
4705.4
4706.58
4706.73
4708.4
4709.02
4749.87
4867.96
62967.6
8259.8
7562.34
7004.66
6574.45
6246.11
5994.38
5798
5642.54
5516.85
5414.19
5328.64
5257.09
5196.02
5144.05
5098.81
5059.83
5025.32
4995.33
4968.37
4944.81
4923.33
4904.49
4887.09
4871.8
4857.51
4844.98
4833.1
4822.68
4812.7
4804.01
4795.53
4788.21
4780.97
4774.75
4768.53
4763.26
4757.88
4753.36
4748.67
4744.81
4740.76
4737.38
4733.85
4730.99
4727.86
4725.36
4722.61
4720.46
4718.11
4716.25
4714.28
4712.72
4710.9
4709.44
4707.99
4706.69
4705.39
4704.26
4703.22
4702.4
4701.53
4700.74
4700.06
4699.49
4698.76
4698.27
4697.74
4697.47
4697.05
4696.81
4696.36
4696.12
4695.66
4695.51
4695.18
4695.21
4695.13
4695.27
4695.26
4695.58
4695.58
4696.11
4696.11
4696.87
4696.87
4697.76
4697.89
4698.88
4699.08
4700.26
4700.4
4702.07
4702.7
4744.87
4862.43
59764.9
8259.84
7562.46
7004.54
6573.83
6244.88
5992.55
5795.62
5639.68
5513.58
5410.57
5324.71
5252.89
5191.59
5139.42
5094
5054.87
5020.22
4990.1
4963.03
4939.36
4917.79
4898.88
4881.4
4866.04
4851.69
4839.1
4827.16
4816.7
4806.67
4797.94
4789.43
4782.07
4774.79
4768.55
4762.29
4756.99
4751.59
4747.04
4742.34
4738.45
4734.38
4730.98
4727.44
4724.56
4721.42
4718.9
4716.13
4713.97
4711.61
4709.74
4707.75
4706.17
4704.35
4702.87
4701.41
4700.1
4698.79
4697.66
4696.61
4695.78
4694.9
4694.11
4693.42
4692.84
4692.11
4691.61
4691.07
4690.8
4690.36
4690.13
4689.67
4689.43
4688.97
4688.81
4688.48
4688.49
4688.4
4688.54
4688.51
4688.83
4688.82
4689.34
4689.34
4690.08
4690.08
4690.96
4691.08
4692.07
4692.26
4693.43
4693.56
4695.23
4695.87
4739.47
4856.49
56646.1
8259.88
7562.58
7004.41
6573.16
6243.57
5990.6
5793.09
5636.63
5510.09
5406.69
5320.5
5248.4
5186.84
5134.46
5088.84
5049.54
5014.74
4984.49
4957.29
4933.52
4911.85
4892.85
4875.29
4859.86
4845.43
4832.79
4820.79
4810.28
4800.2
4791.42
4782.86
4775.47
4768.16
4761.88
4755.59
4750.26
4744.83
4740.26
4735.53
4731.62
4727.53
4724.1
4720.54
4717.64
4714.49
4711.95
4709.17
4706.99
4704.62
4702.73
4700.73
4699.14
4697.3
4695.82
4694.35
4693.03
4691.71
4690.56
4689.51
4688.67
4687.78
4686.97
4686.28
4685.69
4684.95
4684.45
4683.9
4683.62
4683.18
4682.94
4682.47
4682.24
4681.77
4681.61
4681.27
4681.27
4681.17
4681.29
4681.27
4681.56
4681.56
4682.06
4682.06
4682.78
4682.79
4683.65
4683.76
4684.74
4684.93
4686.09
4686.21
4687.88
4688.54
4733.67
4850.14
53615.7
8259.93
7562.71
7004.27
6572.46
6242.18
5988.53
5790.38
5633.38
5506.36
5402.55
5316
5243.6
5181.77
5129.15
5083.33
5043.85
5008.88
4978.48
4951.16
4927.27
4905.49
4886.4
4868.75
4853.24
4838.74
4826.03
4813.97
4803.4
4793.27
4784.44
4775.84
4768.4
4761.05
4754.74
4748.42
4743.06
4737.6
4733
4728.24
4724.31
4720.19
4716.75
4713.16
4710.24
4707.07
4704.52
4701.71
4699.52
4697.13
4695.23
4693.21
4691.61
4689.76
4688.27
4686.78
4685.45
4684.12
4682.97
4681.9
4681.05
4680.15
4679.34
4678.63
4678.04
4677.29
4676.78
4676.23
4675.94
4675.49
4675.25
4674.77
4674.53
4674.06
4673.9
4673.56
4673.54
4673.43
4673.54
4673.51
4673.79
4673.78
4674.26
4674.26
4674.97
4674.97
4675.83
4675.93
4676.9
4677.08
4678.23
4678.35
4680.01
4680.68
4727.45
4843.36
50678
8259.98
7562.86
7004.14
6571.73
6240.71
5986.33
5787.52
5629.93
5502.4
5398.15
5311.23
5238.49
5176.38
5123.5
5077.46
5037.78
5002.64
4972.09
4944.63
4920.61
4898.72
4879.52
4861.78
4846.19
4831.61
4818.82
4806.7
4796.07
4785.88
4777
4768.35
4760.87
4753.48
4747.13
4740.76
4735.38
4729.88
4725.25
4720.46
4716.51
4712.36
4708.9
4705.29
4702.35
4699.15
4696.58
4693.76
4691.55
4689.14
4687.23
4685.19
4683.58
4681.72
4680.21
4678.71
4677.37
4676.03
4674.86
4673.78
4672.92
4672.01
4671.19
4670.47
4669.87
4669.12
4668.6
4668.03
4667.74
4667.28
4667.03
4666.55
4666.31
4665.84
4665.67
4665.33
4665.3
4665.17
4665.27
4665.23
4665.49
4665.48
4665.94
4665.94
4666.63
4666.63
4667.48
4667.57
4668.53
4668.7
4669.84
4669.95
4671.62
4672.31
4720.8
4836.16
47836.6
8260.02
7563.01
7003.99
6570.96
6239.17
5984.01
5784.5
5626.28
5498.21
5393.49
5306.16
5233.07
5170.65
5117.51
5071.23
5031.34
4996.01
4965.3
4937.69
4913.54
4891.52
4872.21
4854.37
4838.69
4824.03
4811.17
4798.97
4788.28
4778.03
4769.1
4760.39
4752.86
4745.42
4739.03
4732.63
4727.2
4721.67
4717.01
4712.19
4708.21
4704.04
4700.55
4696.91
4693.95
4690.73
4688.15
4685.3
4683.07
4680.65
4678.72
4676.66
4675.03
4673.16
4671.64
4670.12
4668.78
4667.42
4666.24
4665.15
4664.28
4663.35
4662.53
4661.79
4661.19
4660.42
4659.9
4659.32
4659.02
4658.55
4658.3
4657.81
4657.57
4657.09
4656.92
4656.57
4656.53
4656.39
4656.47
4656.42
4656.66
4656.66
4657.09
4657.09
4657.76
4657.76
4658.59
4658.67
4659.62
4659.79
4660.91
4661.02
4662.69
4663.39
4713.71
4828.53
45095
8260.07
7563.16
7003.85
6570.15
6237.55
5981.58
5781.31
5622.43
5493.78
5388.57
5300.8
5227.34
5164.6
5111.17
5064.64
5024.53
4989
4958.11
4930.33
4906.04
4883.9
4864.47
4846.52
4830.74
4815.99
4803.05
4790.78
4780.02
4769.7
4760.71
4751.95
4744.37
4736.88
4730.45
4724
4718.54
4712.97
4708.28
4703.43
4699.41
4695.21
4691.7
4688.03
4685.05
4681.8
4679.2
4676.33
4674.08
4671.64
4669.69
4667.61
4665.97
4664.08
4662.55
4661.01
4659.66
4658.29
4657.1
4655.98
4655.1
4654.17
4653.33
4652.58
4651.97
4651.2
4650.67
4650.08
4649.76
4649.28
4649.03
4648.54
4648.29
4647.81
4647.63
4647.27
4647.22
4647.06
4647.14
4647.08
4647.3
4647.29
4647.71
4647.71
4648.35
4648.35
4649.16
4649.24
4650.18
4650.34
4651.45
4651.54
4653.21
4653.94
4706.15
4820.46
42456.3
8260.12
7563.33
7003.7
6569.32
6235.86
5979.03
5777.96
5618.38
5489.12
5383.38
5295.16
5221.3
5158.21
5104.48
5057.68
5017.33
4981.59
4950.51
4922.57
4898.13
4875.84
4856.29
4838.23
4822.35
4807.5
4794.47
4782.12
4771.29
4760.9
4751.85
4743.03
4735.39
4727.85
4721.37
4714.88
4709.38
4703.77
4699.04
4694.15
4690.11
4685.87
4682.33
4678.64
4675.63
4672.36
4669.73
4666.85
4664.57
4662.11
4660.14
4658.04
4656.38
4654.48
4652.93
4651.38
4650.01
4648.62
4647.42
4646.29
4645.4
4644.45
4643.61
4642.84
4642.22
4641.44
4640.9
4640.29
4639.97
4639.48
4639.22
4638.72
4638.47
4637.99
4637.8
4637.44
4637.38
4637.2
4637.26
4637.19
4637.39
4637.38
4637.77
4637.77
4638.39
4638.39
4639.19
4639.25
4640.18
4640.33
4641.43
4641.52
4643.18
4643.94
4698.12
4811.95
39923.1
8260.18
7563.51
7003.56
6568.45
6234.1
5976.35
5774.45
5614.14
5484.23
5377.93
5289.23
5214.95
5151.48
5097.44
5050.35
5009.75
4973.78
4942.51
4914.38
4889.78
4867.35
4847.67
4829.48
4813.49
4798.54
4785.42
4772.98
4762.07
4751.61
4742.5
4733.61
4725.92
4718.33
4711.8
4705.26
4699.71
4694.06
4689.29
4684.37
4680.28
4676.02
4672.45
4668.72
4665.69
4662.39
4659.74
4656.83
4654.54
4652.05
4650.06
4647.94
4646.26
4644.34
4642.77
4641.21
4639.82
4638.42
4637.21
4636.06
4635.15
4634.19
4633.34
4632.55
4631.93
4631.13
4630.59
4629.97
4629.63
4629.13
4628.87
4628.36
4628.11
4627.61
4627.42
4627.06
4626.98
4626.79
4626.84
4626.75
4626.94
4626.92
4627.29
4627.29
4627.88
4627.88
4628.66
4628.71
4629.63
4629.77
4630.85
4630.93
4632.6
4633.38
4689.58
4802.95
37497.9
8260.23
7563.69
7003.41
6567.55
6232.26
5973.57
5770.79
5609.69
5479.1
5372.22
5283
5208.28
5144.43
5090.04
5042.65
5001.78
4965.58
4934.09
4905.78
4881
4858.42
4838.6
4820.28
4804.18
4789.12
4775.9
4763.37
4752.38
4741.84
4732.65
4723.7
4715.95
4708.3
4701.71
4695.12
4689.53
4683.83
4679.03
4674.06
4669.94
4665.64
4662.04
4658.28
4655.22
4651.89
4649.22
4646.28
4643.96
4641.45
4639.44
4637.3
4635.6
4633.67
4632.08
4630.49
4629.1
4627.68
4626.45
4625.28
4624.36
4623.38
4622.52
4621.72
4621.09
4620.28
4619.72
4619.09
4618.75
4618.23
4617.96
4617.45
4617.19
4616.69
4616.49
4616.12
4616.03
4615.83
4615.85
4615.76
4615.92
4615.9
4616.24
4616.24
4616.81
4616.81
4617.57
4617.61
4618.51
4618.64
4619.71
4619.78
4621.44
4622.25
4680.51
4793.43
35182.6
8260.28
7563.88
7003.26
6566.63
6230.36
5970.67
5766.97
5605.05
5473.75
5366.24
5276.48
5201.29
5137.03
5082.28
5034.57
4993.43
4956.97
4925.26
4896.74
4871.79
4849.04
4829.07
4810.62
4794.4
4779.22
4765.9
4753.27
4742.2
4731.57
4722.31
4713.29
4705.48
4697.76
4691.12
4684.47
4678.83
4673.09
4668.24
4663.23
4659.08
4654.74
4651.1
4647.31
4644.22
4640.86
4638.16
4635.19
4632.85
4630.31
4628.28
4626.11
4624.4
4622.44
4620.84
4619.23
4617.82
4616.38
4615.15
4613.95
4613.02
4612.02
4611.15
4610.33
4609.69
4608.87
4608.3
4607.65
4607.3
4606.77
4606.49
4605.97
4605.7
4605.2
4605
4604.62
4604.52
4604.3
4604.31
4604.2
4604.34
4604.31
4604.63
4604.62
4605.16
4605.16
4605.9
4605.94
4606.82
4606.94
4607.99
4608.05
4609.72
4610.56
4670.89
4783.35
32979.1
8260.34
7564.09
7003.11
6565.67
6228.38
5967.66
5762.99
5600.22
5468.16
5360
5269.67
5193.99
5129.3
5074.17
5026.12
4984.69
4947.96
4916.02
4887.29
4862.15
4839.22
4819.1
4800.5
4784.14
4768.85
4755.42
4742.69
4731.52
4720.81
4711.47
4702.37
4694.49
4686.71
4680.01
4673.31
4667.62
4661.82
4656.93
4651.87
4647.68
4643.3
4639.63
4635.79
4632.67
4629.29
4626.55
4623.56
4621.2
4618.63
4616.57
4614.38
4612.64
4610.67
4609.04
4607.41
4605.99
4604.53
4603.28
4602.07
4601.11
4600.1
4599.22
4598.38
4597.72
4596.89
4596.32
4595.65
4595.28
4594.75
4594.46
4593.92
4593.65
4593.15
4592.93
4592.55
4592.44
4592.21
4592.2
4592.06
4592.19
4592.15
4592.44
4592.44
4592.95
4592.95
4593.66
4593.69
4594.56
4594.66
4595.7
4595.75
4597.41
4598.28
4660.66
4772.67
30888.9
8260.39
7564.3
7002.97
6564.7
6226.35
5964.54
5758.86
5595.19
5462.34
5353.5
5262.58
5186.38
5121.22
5065.7
5017.3
4975.55
4938.55
4906.36
4877.4
4852.06
4828.94
4808.66
4789.91
4773.42
4757.99
4744.45
4731.61
4720.35
4709.54
4700.12
4690.94
4682.99
4675.14
4668.38
4661.62
4655.87
4650.02
4645.08
4639.98
4635.74
4631.32
4627.61
4623.74
4620.59
4617.16
4614.4
4611.38
4608.99
4606.39
4604.31
4602.09
4600.33
4598.33
4596.69
4595.03
4593.59
4592.12
4590.85
4589.61
4588.65
4587.61
4586.72
4585.86
4585.19
4584.34
4583.76
4583.08
4582.7
4582.15
4581.85
4581.31
4581.03
4580.52
4580.3
4579.9
4579.78
4579.54
4579.51
4579.36
4579.47
4579.41
4579.67
4579.67
4580.15
4580.15
4580.83
4580.85
4581.71
4581.8
4582.81
4582.86
4584.52
4585.42
4649.79
4761.36
28913.2
8260.44
7564.52
7002.83
6563.7
6224.25
5961.32
5754.58
5589.97
5456.3
5346.74
5255.19
5178.45
5112.81
5056.87
5008.1
4966.02
4928.73
4896.27
4867.08
4841.53
4818.22
4797.76
4778.85
4762.22
4746.66
4733
4720.04
4708.68
4697.77
4688.27
4679
4670.98
4663.05
4656.23
4649.4
4643.59
4637.69
4632.7
4627.54
4623.26
4618.79
4615.05
4611.14
4607.95
4604.49
4601.7
4598.64
4596.22
4593.59
4591.48
4589.23
4587.45
4585.43
4583.77
4582.09
4580.63
4579.13
4577.85
4576.59
4575.6
4574.55
4573.65
4572.76
4572.09
4571.22
4570.63
4569.93
4569.54
4568.97
4568.66
4568.11
4567.83
4567.3
4567.08
4566.67
4566.54
4566.28
4566.24
4566.07
4566.15
4566.09
4566.32
4566.31
4566.76
4566.76
4567.42
4567.43
4568.26
4568.35
4569.34
4569.38
4571.04
4571.97
4638.23
4749.38
27053.2
8260.5
7564.74
7002.69
6562.68
6222.1
5957.99
5750.16
5584.57
5450.03
5339.72
5247.51
5170.2
5104.07
5047.69
4998.52
4956.1
4918.49
4885.77
4856.32
4830.55
4807.04
4786.4
4767.32
4750.54
4734.83
4721.05
4707.97
4696.5
4685.49
4675.9
4666.54
4658.44
4650.43
4643.54
4636.64
4630.78
4624.81
4619.77
4614.57
4610.24
4605.72
4601.94
4597.98
4594.75
4591.26
4588.43
4585.35
4582.89
4580.23
4578.1
4575.81
4574.01
4571.96
4570.28
4568.57
4567.1
4565.58
4564.28
4562.99
4561.99
4560.92
4559.99
4559.09
4558.4
4557.52
4556.91
4556.19
4555.79
4555.2
4554.89
4554.32
4554.04
4553.51
4553.27
4552.85
4552.71
4552.44
4552.38
4552.19
4552.26
4552.18
4552.38
4552.37
4552.78
4552.78
4553.41
4553.41
4554.23
4554.3
4555.27
4555.29
4556.95
4557.92
4625.92
4736.68
25310
8260.55
7564.98
7002.56
6561.64
6219.89
5954.57
5745.59
5578.98
5443.54
5332.44
5239.55
5161.64
5094.98
5038.14
4988.57
4945.79
4907.85
4874.84
4845.13
4819.13
4795.4
4774.57
4755.31
4738.37
4722.52
4708.6
4695.4
4683.82
4672.7
4663.01
4653.56
4645.37
4637.29
4630.33
4623.35
4617.43
4611.4
4606.3
4601.04
4596.66
4592.1
4588.27
4584.27
4581
4577.47
4574.61
4571.48
4568.99
4566.3
4564.14
4561.82
4559.99
4557.92
4556.21
4554.48
4552.99
4551.44
4550.12
4548.81
4547.79
4546.7
4545.76
4544.83
4544.13
4543.23
4542.61
4541.87
4541.45
4540.85
4540.53
4539.95
4539.65
4539.11
4538.87
4538.44
4538.28
4538
4537.92
4537.71
4537.76
4537.67
4537.85
4537.82
4538.2
4538.2
4538.79
4538.8
4539.58
4539.65
4540.59
4540.61
4542.26
4543.27
4612.85
4723.24
23684.2
8260.61
7565.22
7002.43
6560.59
6217.62
5951.05
5740.88
5573.21
5436.83
5324.92
5231.31
5152.77
5085.56
5028.24
4978.24
4935.08
4896.81
4863.49
4833.51
4807.26
4783.31
4762.28
4742.83
4725.73
4709.72
4695.66
4682.32
4670.63
4659.39
4649.6
4640.05
4631.78
4623.61
4616.57
4609.52
4603.53
4597.43
4592.28
4586.96
4582.53
4577.91
4574.04
4569.99
4566.68
4563.11
4560.21
4557.05
4554.53
4551.8
4549.6
4547.26
4545.39
4543.3
4541.57
4539.81
4538.29
4536.72
4535.38
4534.05
4533
4531.89
4530.93
4529.98
4529.26
4528.35
4527.72
4526.96
4526.52
4525.9
4525.57
4524.98
4524.67
4524.13
4523.87
4523.43
4523.26
4522.96
4522.87
4522.64
4522.67
4522.55
4522.71
4522.67
4523.01
4523.01
4523.57
4523.57
4524.34
4524.38
4525.3
4525.32
4526.97
4528
4599.02
4709.01
22173
8260.66
7565.48
7002.31
6559.52
6215.31
5947.43
5736.04
5567.26
5429.9
5317.14
5222.78
5143.59
5075.81
5017.98
4967.53
4923.98
4885.35
4851.72
4821.45
4794.94
4770.76
4749.52
4729.88
4712.6
4696.42
4682.22
4668.74
4656.92
4645.57
4635.67
4626.02
4617.66
4609.39
4602.28
4595.15
4589.09
4582.92
4577.71
4572.33
4567.84
4563.17
4559.25
4555.15
4551.8
4548.18
4545.24
4542.04
4539.49
4536.72
4534.49
4532.11
4530.22
4528.09
4526.34
4524.54
4523.01
4521.41
4520.06
4518.69
4517.62
4516.48
4515.52
4514.53
4513.81
4512.87
4512.23
4511.44
4511
4510.36
4510.01
4509.41
4509.09
4508.53
4508.27
4507.82
4507.63
4507.32
4507.21
4506.97
4506.97
4506.84
4506.97
4506.92
4507.22
4507.22
4507.74
4507.74
4508.47
4508.51
4509.4
4509.41
4511.05
4512.12
4584.42
4693.94
20771.5
8260.71
7565.74
7002.2
6558.44
6212.95
5943.73
5731.07
5561.14
5422.76
5309.11
5213.97
5134.11
5065.72
5007.37
4956.45
4912.49
4873.48
4839.52
4808.95
4782.18
4757.75
4736.29
4716.44
4698.98
4682.63
4668.28
4654.65
4642.7
4631.22
4621.21
4611.46
4603
4594.64
4587.44
4580.23
4574.1
4567.86
4562.58
4557.13
4552.59
4547.86
4543.89
4539.74
4536.34
4532.68
4529.7
4526.46
4523.86
4521.06
4518.8
4516.38
4514.46
4512.3
4510.52
4508.69
4507.14
4505.51
4504.13
4502.74
4501.65
4500.48
4499.5
4498.49
4497.75
4496.8
4496.13
4495.33
4494.86
4494.21
4493.85
4493.23
4492.9
4492.34
4492.06
4491.59
4491.4
4491.07
4490.95
4490.69
4490.66
4490.51
4490.61
4490.55
4490.82
4490.81
4491.29
4491.29
4491.99
4492.02
4492.88
4492.88
4494.52
4495.62
4569.03
4678.02
19474.9
8260.76
7566
7002.09
6557.35
6210.55
5939.95
5725.97
5554.85
5415.42
5300.84
5204.89
5124.32
5055.31
4996.41
4945
4900.6
4861.21
4826.91
4796.02
4768.97
4744.28
4722.59
4702.53
4684.88
4668.35
4653.83
4640.06
4627.97
4616.36
4606.23
4596.36
4587.8
4579.35
4572.06
4564.77
4558.55
4552.24
4546.89
4541.38
4536.77
4531.98
4527.96
4523.75
4520.31
4516.6
4513.58
4510.3
4507.66
4504.82
4502.52
4500.06
4498.1
4495.92
4494.11
4492.25
4490.67
4489.01
4487.62
4486.19
4485.08
4483.89
4482.89
4481.85
4481.09
4480.11
4479.44
4478.61
4478.13
4477.45
4477.07
4476.44
4476.11
4475.53
4475.24
4474.76
4474.55
4474.2
4474.07
4473.79
4473.75
4473.57
4473.64
4473.56
4473.8
4473.78
4474.22
4474.22
4474.89
4474.91
4475.73
4475.73
4477.37
4478.49
4552.87
4661.19
18277.9
8260.81
7566.28
7001.99
6556.25
6208.11
5936.09
5720.75
5548.39
5407.87
5292.34
5195.54
5114.23
5044.57
4985.1
4933.18
4888.33
4848.53
4813.87
4782.65
4755.31
4730.35
4708.42
4688.14
4670.29
4653.57
4638.89
4624.95
4612.72
4600.97
4590.73
4580.74
4572.07
4563.51
4556.14
4548.75
4542.46
4536.06
4530.65
4525.06
4520.39
4515.54
4511.47
4507.2
4503.71
4499.94
4496.88
4493.55
4490.87
4487.99
4485.65
4483.15
4481.16
4478.94
4477.1
4475.21
4473.61
4471.92
4470.5
4469.04
4467.9
4466.68
4465.67
4464.59
4463.82
4462.82
4462.13
4461.28
4460.78
4460.08
4459.69
4459.04
4458.69
4458.1
4457.8
4457.31
4457.09
4456.72
4456.57
4456.28
4456.21
4456.01
4456.06
4455.96
4456.16
4456.14
4456.53
4456.53
4457.16
4457.18
4457.95
4457.96
4459.58
4460.73
4535.91
4643.42
17175.3
8260.85
7566.56
7001.91
6555.15
6205.64
5932.15
5715.41
5541.78
5400.12
5283.6
5185.93
5103.85
5033.51
4973.44
4920.99
4875.68
4835.45
4800.41
4768.85
4741.21
4715.97
4693.79
4673.27
4655.21
4638.3
4623.44
4609.33
4596.96
4585.07
4574.69
4564.58
4555.8
4547.13
4539.66
4532.18
4525.81
4519.32
4513.84
4508.18
4503.44
4498.52
4494.39
4490.06
4486.52
4482.7
4479.6
4476.22
4473.5
4470.57
4468.19
4465.65
4463.62
4461.37
4459.5
4457.57
4455.94
4454.22
4452.78
4451.29
4450.13
4448.87
4447.84
4446.74
4445.94
4444.92
4444.21
4443.33
4442.82
4442.09
4441.69
4441.02
4440.66
4440.06
4439.75
4439.24
4439
4438.61
4438.45
4438.14
4438.06
4437.83
4437.85
4437.73
4437.9
4437.86
4438.21
4438.21
4438.81
4438.81
4439.55
4439.55
4441.17
4442.33
4518.15
4624.69
16161.2
8260.9
7566.85
7001.83
6554.05
6203.13
5928.15
5709.96
5535.02
5392.19
5274.63
5176.05
5093.18
5022.13
4961.45
4908.44
4862.64
4821.97
4786.54
4754.63
4726.66
4701.13
4678.69
4657.92
4639.65
4622.53
4607.49
4593.21
4580.68
4568.63
4558.13
4547.88
4538.99
4530.21
4522.64
4515.06
4508.6
4502.03
4496.47
4490.73
4485.93
4480.93
4476.75
4472.35
4468.76
4464.88
4461.73
4458.3
4455.54
4452.55
4450.14
4447.55
4445.49
4443.2
4441.3
4439.33
4437.67
4435.92
4434.45
4432.93
4431.74
4430.45
4429.4
4428.27
4427.45
4426.41
4425.68
4424.78
4424.24
4423.49
4423.07
4422.39
4422.02
4421.4
4421.08
4420.55
4420.29
4419.89
4419.71
4419.38
4419.28
4419.03
4419.02
4418.88
4419.01
4418.96
4419.27
4419.27
4419.82
4419.82
4420.51
4420.52
4422.12
4423.29
4499.59
4604.96
15229.8
8260.94
7567.14
7001.77
6552.95
6200.6
5924.08
5704.41
5528.11
5384.07
5265.44
5165.92
5082.22
5010.44
4949.12
4895.53
4849.22
4808.1
4772.26
4739.97
4711.68
4685.83
4663.12
4642.1
4623.6
4606.27
4591.04
4576.58
4563.88
4551.68
4541.04
4530.66
4521.65
4512.75
4505.08
4497.39
4490.84
4484.17
4478.53
4472.71
4467.84
4462.77
4458.52
4454.06
4450.41
4446.47
4443.27
4439.79
4436.98
4433.95
4431.5