/*--------------------------------*- C++ -*----------------------------------*\
| =========                 |                                                 |
| \\      /  F ield         | OpenFOAM: The Open Source CFD Toolbox           |
|  \\    /   O peration     | Version:  v2012                                 |
|   \\  /    A nd           | Website:  www.openfoam.com                      |
|    \\/     M anipulation  |                                                 |
\*---------------------------------------------------------------------------*/
FoamFile
{
    version     2.0;
    format      ascii;
    class       volScalarField;
    location    "18.5";
    object      k;
}
// * * * * * * * * * * * * * * * * * * * * * * * * * * * * * * * * * * * * * //

dimensions      [0 2 -2 0 0 0 0];


internalField   nonuniform List<scalar> 
209825
(
0.00101996
0.000933795
0.000878341
0.000842072
0.000816866
0.000798465
0.000784333
0.000773246
0.000764199
0.000756812
0.000750539
0.000745288
0.000740707
0.000736794
0.000733312
0.000730327
0.000727611
0.000725271
0.000723098
0.000721224
0.000719456
0.000717926
0.000716465
0.00071522
0.000714006
0.00071297
0.000711947
0.000711097
0.000710241
0.0007095
0.00070879
0.0007082
0.000707598
0.0007071
0.00070658
0.000706136
0.000705686
0.000705324
0.000704939
0.000704637
0.000704308
0.000704034
0.000703741
0.000703513
0.000703274
0.000703075
0.000702873
0.000702719
0.000702528
0.000702411
0.000702258
0.000702132
0.00070201
0.000701946
0.000701831
0.000701752
0.000701702
0.00070165
0.000701526
0.00070151
0.000701504
0.00070149
0.00070144
0.000701578
0.000701695
0.000701695
0.000701817
0.000701958
0.000702197
0.000702429
0.000702598
0.000702758
0.000702962
0.000703213
0.000703451
0.000703801
0.000704102
0.000704518
0.000704797
0.000705267
0.000705585
0.000706166
0.000706543
0.000707307
0.000707745
0.000708654
0.000709189
0.000710305
0.000710984
0.000712463
0.000713294
0.000715831
0.000716422
0.000725817
0.00987057
0.0101008
0.00101997
0.000933793
0.000878336
0.000842063
0.000816853
0.000798449
0.000784315
0.000773226
0.000764177
0.000756789
0.000750515
0.000745263
0.000740682
0.000736768
0.000733285
0.0007303
0.000727583
0.000725242
0.000723069
0.000721195
0.000719427
0.000717896
0.000716434
0.000715189
0.000713975
0.000712939
0.000711916
0.000711065
0.000710209
0.000709469
0.000708758
0.000708168
0.000707566
0.000707068
0.000706548
0.000706103
0.000705653
0.000705291
0.000704906
0.000704604
0.000704275
0.000704
0.000703708
0.00070348
0.000703241
0.000703042
0.000702839
0.000702685
0.000702495
0.000702377
0.000702225
0.000702099
0.000701976
0.000701912
0.000701797
0.000701718
0.000701668
0.000701617
0.000701492
0.000701476
0.00070147
0.000701457
0.000701406
0.000701544
0.000701661
0.000701661
0.000701783
0.000701924
0.000702163
0.000702395
0.000702564
0.000702724
0.000702928
0.000703179
0.000703417
0.000703767
0.000704069
0.000704484
0.000704763
0.000705233
0.000705551
0.000706133
0.000706509
0.000707273
0.000707712
0.000708621
0.000709155
0.000710271
0.00071095
0.000712429
0.00071326
0.000715797
0.000716387
0.000725798
0.00987834
0.0101114
0.00101997
0.000933784
0.000878307
0.000842017
0.000816794
0.000798379
0.000784236
0.000773139
0.000764085
0.000756692
0.000750414
0.000745158
0.000740574
0.000736657
0.000733172
0.000730184
0.000727465
0.000725123
0.000722949
0.000721073
0.000719303
0.000717772
0.000716309
0.000715063
0.000713848
0.000712811
0.000711787
0.000710936
0.000710079
0.000709338
0.000708627
0.000708036
0.000707434
0.000706935
0.000706415
0.00070597
0.000705519
0.000705157
0.000704771
0.000704469
0.00070414
0.000703865
0.000703572
0.000703344
0.000703104
0.000702905
0.000702703
0.000702549
0.000702358
0.00070224
0.000702087
0.000701961
0.000701838
0.000701775
0.000701659
0.000701581
0.00070153
0.000701479
0.000701354
0.000701338
0.000701332
0.000701319
0.000701268
0.000701405
0.000701522
0.000701523
0.000701645
0.000701785
0.000702024
0.000702256
0.000702425
0.000702585
0.000702789
0.00070304
0.000703278
0.000703628
0.000703929
0.000704345
0.000704624
0.000705094
0.000705412
0.000705993
0.00070637
0.000707134
0.000707572
0.000708481
0.000709015
0.000710131
0.00071081
0.000712289
0.00071312
0.000715657
0.000716244
0.000725684
0.00989393
0.0101337
0.00101997
0.000933768
0.000878259
0.00084194
0.000816693
0.000798259
0.000784102
0.000772993
0.000763929
0.000756528
0.000750243
0.000744981
0.000740391
0.00073647
0.000732981
0.00072999
0.000727268
0.000724923
0.000722746
0.000720867
0.000719096
0.000717563
0.000716098
0.00071485
0.000713634
0.000712595
0.00071157
0.000710718
0.00070986
0.000709118
0.000708406
0.000707814
0.000707211
0.000706711
0.00070619
0.000705745
0.000705294
0.000704931
0.000704545
0.000704242
0.000703912
0.000703637
0.000703344
0.000703115
0.000702875
0.000702676
0.000702473
0.000702319
0.000702128
0.000702009
0.000701857
0.00070173
0.000701607
0.000701544
0.000701428
0.000701349
0.000701298
0.000701247
0.000701122
0.000701107
0.0007011
0.000701086
0.000701035
0.000701173
0.00070129
0.00070129
0.000701412
0.000701552
0.000701791
0.000702023
0.000702192
0.000702352
0.000702556
0.000702807
0.000703045
0.000703394
0.000703696
0.000704111
0.00070439
0.00070486
0.000705178
0.000705759
0.000706136
0.0007069
0.000707338
0.000708246
0.000708781
0.000709896
0.000710575
0.000712053
0.000712883
0.00071542
0.000716002
0.000725487
0.00991816
0.0101682
0.00101998
0.000933746
0.000878191
0.00084183
0.00081655
0.00079809
0.000783912
0.000772787
0.000763709
0.000756296
0.000750001
0.000744731
0.000740134
0.000736206
0.000732712
0.000729715
0.000726989
0.00072464
0.000722459
0.000720578
0.000718803
0.000717268
0.0007158
0.000714551
0.000713331
0.000712291
0.000711265
0.000710411
0.000709551
0.000708807
0.000708094
0.000707501
0.000706897
0.000706396
0.000705874
0.000705428
0.000704976
0.000704612
0.000704225
0.000703922
0.000703591
0.000703315
0.000703022
0.000702792
0.000702552
0.000702352
0.000702149
0.000701994
0.000701803
0.000701684
0.000701531
0.000701405
0.000701281
0.000701217
0.000701101
0.000701022
0.000700971
0.00070092
0.000700796
0.000700779
0.000700773
0.000700759
0.000700707
0.000700844
0.000700961
0.000700961
0.000701083
0.000701223
0.000701462
0.000701693
0.000701863
0.000702023
0.000702227
0.000702477
0.000702715
0.000703064
0.000703365
0.000703781
0.00070406
0.00070453
0.000704848
0.000705429
0.000705805
0.000706569
0.000707007
0.000707915
0.000708449
0.000709564
0.000710242
0.000711719
0.000712549
0.000715085
0.000715661
0.000725207
0.0099517
0.0102157
0.00101999
0.000933717
0.000878103
0.000841689
0.000816365
0.000797872
0.000783667
0.00077252
0.000763424
0.000755996
0.000749688
0.000744407
0.000739801
0.000735865
0.000732363
0.00072936
0.000726628
0.000724274
0.000722088
0.000720203
0.000718424
0.000716885
0.000715414
0.000714162
0.00071294
0.000711898
0.000710868
0.000710012
0.000709151
0.000708405
0.00070769
0.000707096
0.00070649
0.000705988
0.000705464
0.000705017
0.000704564
0.000704198
0.000703811
0.000703507
0.000703175
0.000702899
0.000702604
0.000702374
0.000702133
0.000701933
0.000701729
0.000701573
0.000701382
0.000701263
0.000701109
0.000700983
0.000700858
0.000700794
0.000700678
0.000700599
0.000700548
0.000700496
0.000700372
0.000700355
0.000700349
0.000700334
0.000700282
0.000700419
0.000700535
0.000700535
0.000700657
0.000700797
0.000701035
0.000701266
0.000701436
0.000701597
0.0007018
0.00070205
0.000702288
0.000702637
0.000702937
0.000703353
0.000703632
0.000704102
0.000704419
0.000705001
0.000705376
0.000706139
0.000706578
0.000707485
0.000708019
0.000709133
0.000709811
0.000711287
0.000712115
0.000714651
0.000715219
0.000724844
0.00999521
0.0102768
0.00102
0.000933681
0.000877994
0.000841514
0.000816138
0.000797603
0.000783365
0.000772191
0.000763073
0.000755626
0.000749303
0.000744008
0.00073939
0.000735444
0.000731933
0.000728922
0.000726183
0.000723823
0.000721631
0.00071974
0.000717957
0.000716414
0.000714939
0.000713683
0.000712458
0.000711412
0.00071038
0.000709521
0.000708657
0.00070791
0.000707192
0.000706596
0.000705988
0.000705484
0.000704959
0.00070451
0.000704056
0.000703689
0.0007033
0.000702995
0.000702663
0.000702385
0.00070209
0.000701858
0.000701617
0.000701416
0.000701211
0.000701055
0.000700863
0.000700743
0.000700589
0.000700462
0.000700337
0.000700273
0.000700157
0.000700077
0.000700025
0.000699974
0.00069985
0.000699833
0.000699826
0.000699811
0.000699758
0.000699894
0.00070001
0.00070001
0.000700131
0.000700271
0.000700508
0.00070074
0.00070091
0.000701071
0.000701274
0.000701524
0.000701761
0.00070211
0.00070241
0.000702826
0.000703104
0.000703574
0.000703892
0.000704473
0.000704848
0.00070561
0.000706048
0.000706956
0.000707489
0.000708602
0.000709279
0.000710754
0.000711581
0.000714115
0.000714674
0.000724396
0.0100493
0.0103521
0.00102002
0.000933639
0.000877866
0.000841307
0.000815868
0.000797284
0.000783006
0.0007718
0.000762655
0.000755186
0.000748844
0.000743533
0.000738901
0.000734943
0.000731421
0.000728401
0.000725653
0.000723285
0.000721086
0.000719189
0.000717401
0.000715852
0.000714373
0.000713112
0.000711883
0.000710834
0.000709798
0.000708936
0.00070807
0.000707319
0.000706599
0.000706
0.00070539
0.000704884
0.000704357
0.000703907
0.00070345
0.000703082
0.000702692
0.000702385
0.000702051
0.000701773
0.000701476
0.000701244
0.000701001
0.000700799
0.000700593
0.000700437
0.000700244
0.000700124
0.000699969
0.000699842
0.000699716
0.000699651
0.000699535
0.000699455
0.000699403
0.000699351
0.000699228
0.00069921
0.000699203
0.000699188
0.000699133
0.000699269
0.000699384
0.000699384
0.000699505
0.000699645
0.000699881
0.000700113
0.000700283
0.000700444
0.000700647
0.000700897
0.000701133
0.000701481
0.000701781
0.000702197
0.000702475
0.000702945
0.000703262
0.000703844
0.000704218
0.00070498
0.000705418
0.000706324
0.000706857
0.000707969
0.000708645
0.000710118
0.000710943
0.000713477
0.000714024
0.000723863
0.0101147
0.0104421
0.00102004
0.00093359
0.000877717
0.000841068
0.000815555
0.000796913
0.000782588
0.000771345
0.000762169
0.000754675
0.00074831
0.000742981
0.000738332
0.00073436
0.000730826
0.000727794
0.000725036
0.000722659
0.000720453
0.000718549
0.000716753
0.000715199
0.000713714
0.000712448
0.000711214
0.000710161
0.000709121
0.000708256
0.000707385
0.000706632
0.000705908
0.000705307
0.000704694
0.000704186
0.000703657
0.000703204
0.000702746
0.000702376
0.000701984
0.000701676
0.00070134
0.00070106
0.000700762
0.000700529
0.000700285
0.000700082
0.000699875
0.000699718
0.000699524
0.000699403
0.000699248
0.00069912
0.000698994
0.000698928
0.000698811
0.000698731
0.000698678
0.000698626
0.000698503
0.000698484
0.000698477
0.000698462
0.000698406
0.000698541
0.000698655
0.000698655
0.000698776
0.000698916
0.000699151
0.000699382
0.000699553
0.000699715
0.000699916
0.000700167
0.000700402
0.00070075
0.000701049
0.000701465
0.000701743
0.000702213
0.00070253
0.000703111
0.000703484
0.000704245
0.000704683
0.000705588
0.000706121
0.000707232
0.000707907
0.000709378
0.000710201
0.000712734
0.000713267
0.000723243
0.0101916
0.0105472
0.00102006
0.000933536
0.000877549
0.000840795
0.000815198
0.00079649
0.000782113
0.000770826
0.000761615
0.000754091
0.000747701
0.00074235
0.000737683
0.000733695
0.000730146
0.000727101
0.000724332
0.000721945
0.000719729
0.000717817
0.000716014
0.000714452
0.000712961
0.00071169
0.00071045
0.000709392
0.000708348
0.000707478
0.000706604
0.000705847
0.000705119
0.000704515
0.000703899
0.000703388
0.000702856
0.000702401
0.000701941
0.000701569
0.000701174
0.000700864
0.000700527
0.000700246
0.000699947
0.000699712
0.000699466
0.000699262
0.000699054
0.000698896
0.000698701
0.000698579
0.000698423
0.000698295
0.000698167
0.000698101
0.000697984
0.000697903
0.000697849
0.000697798
0.000697675
0.000697655
0.000697648
0.000697632
0.000697575
0.000697709
0.000697822
0.000697822
0.000697943
0.000698082
0.000698316
0.000698547
0.000698719
0.000698881
0.000699082
0.000699332
0.000699566
0.000699914
0.000700212
0.000700628
0.000700906
0.000701376
0.000701692
0.000702273
0.000702646
0.000703406
0.000703843
0.000704747
0.00070528
0.000706389
0.000707063
0.000708531
0.000709352
0.000711883
0.000712401
0.000722535
0.0102807
0.010668
0.00102008
0.000933475
0.000877361
0.000840489
0.000814798
0.000796015
0.000781578
0.000770243
0.000760992
0.000753434
0.000747016
0.000741641
0.000736952
0.000732945
0.00072938
0.000726321
0.000723538
0.00072114
0.000718914
0.000716992
0.00071518
0.000713611
0.000712113
0.000710835
0.000709589
0.000708525
0.000707476
0.000706601
0.000705723
0.000704962
0.00070423
0.000703622
0.000703003
0.000702489
0.000701954
0.000701496
0.000701033
0.000700659
0.000700262
0.00069995
0.000699611
0.000699328
0.000699027
0.000698791
0.000698543
0.000698338
0.000698128
0.00069797
0.000697773
0.00069765
0.000697493
0.000697364
0.000697236
0.000697169
0.000697052
0.00069697
0.000696915
0.000696864
0.000696741
0.000696721
0.000696713
0.000696696
0.000696637
0.000696771
0.000696883
0.000696883
0.000697003
0.000697143
0.000697374
0.000697606
0.000697778
0.00069794
0.00069814
0.00069839
0.000698624
0.000698971
0.000699268
0.000699684
0.000699962
0.000700432
0.000700747
0.000701328
0.0007017
0.000702459
0.000702896
0.000703799
0.000704331
0.000705438
0.000706111
0.000707576
0.000708395
0.000710924
0.000711426
0.000721738
0.0103821
0.0108047
0.0010201
0.000933409
0.000877152
0.000840151
0.000814354
0.000795487
0.000780983
0.000769594
0.000760298
0.000752703
0.000746253
0.00074085
0.000736138
0.000732111
0.000728527
0.000725452
0.000722655
0.000720243
0.000718005
0.000716073
0.000714252
0.000712674
0.000711167
0.000709882
0.00070863
0.00070756
0.000706504
0.000705624
0.000704741
0.000703975
0.000703239
0.000702627
0.000702004
0.000701486
0.000700948
0.000700488
0.000700021
0.000699645
0.000699245
0.000698931
0.00069859
0.000698305
0.000698002
0.000697764
0.000697515
0.000697308
0.000697097
0.000696937
0.000696739
0.000696615
0.000696457
0.000696327
0.000696198
0.00069613
0.000696012
0.00069593
0.000695874
0.000695822
0.0006957
0.000695679
0.00069567
0.000695653
0.000695592
0.000695725
0.000695836
0.000695836
0.000695956
0.000696095
0.000696325
0.000696556
0.000696729
0.000696891
0.000697091
0.00069734
0.000697573
0.000697919
0.000698215
0.000698631
0.000698909
0.000699379
0.000699694
0.000700274
0.000700645
0.000701403
0.000701839
0.000702741
0.000703272
0.000704378
0.000705049
0.000706511
0.000707327
0.000709855
0.000710337
0.00072085
0.0104961
0.0109577
0.00102013
0.000933337
0.000876924
0.000839779
0.000813865
0.000794906
0.000780329
0.00076888
0.000759534
0.000751897
0.000745412
0.000739979
0.00073524
0.00073119
0.000727586
0.000724493
0.00072168
0.000719254
0.000717003
0.000715059
0.000713227
0.00071164
0.000710124
0.00070883
0.000707571
0.000706494
0.000705432
0.000704546
0.000703657
0.000702886
0.000702145
0.000701528
0.000700901
0.000700379
0.000699838
0.000699374
0.000698904
0.000698525
0.000698122
0.000697805
0.000697462
0.000697175
0.000696869
0.000696629
0.000696379
0.000696171
0.000695957
0.000695796
0.000695597
0.000695471
0.000695312
0.000695182
0.000695051
0.000694982
0.000694864
0.000694781
0.000694724
0.000694672
0.00069455
0.000694527
0.000694519
0.000694501
0.000694438
0.000694569
0.00069468
0.00069468
0.000694799
0.000694937
0.000695165
0.000695397
0.00069557
0.000695733
0.000695931
0.000696181
0.000696412
0.000696757
0.000697052
0.000697469
0.000697746
0.000698216
0.00069853
0.00069911
0.00069948
0.000700236
0.000700672
0.000701572
0.000702103
0.000703206
0.000703876
0.000705335
0.000706147
0.000708673
0.000709135
0.000719871
0.0106224
0.0111272
0.00102016
0.000933259
0.000876677
0.000839374
0.000813333
0.000794272
0.000779613
0.000768098
0.000758698
0.000751016
0.000744492
0.000739025
0.000734258
0.000730182
0.000726555
0.000723443
0.000720612
0.00071817
0.000715905
0.000713948
0.000712104
0.000710507
0.000708981
0.000707678
0.00070641
0.000705326
0.000704257
0.000703364
0.000702469
0.000701693
0.000700946
0.000700324
0.000699692
0.000699166
0.000698621
0.000698154
0.00069768
0.000697297
0.000696892
0.000696572
0.000696225
0.000695936
0.000695628
0.000695386
0.000695133
0.000694924
0.000694708
0.000694545
0.000694345
0.000694218
0.000694058
0.000693926
0.000693794
0.000693724
0.000693605
0.000693522
0.000693463
0.000693411
0.00069329
0.000693266
0.000693257
0.000693237
0.000693173
0.000693303
0.000693412
0.000693412
0.00069353
0.000693668
0.000693894
0.000694126
0.000694299
0.000694463
0.00069466
0.000694909
0.00069514
0.000695484
0.000695777
0.000696194
0.000696471
0.000696941
0.000697254
0.000697833
0.000698202
0.000698956
0.000699392
0.000700291
0.00070082
0.000701921
0.000702589
0.000704044
0.000704853
0.000707377
0.000707816
0.000718798
0.0107609
0.0113134
0.00102019
0.000933176
0.00087641
0.000838937
0.000812756
0.000793585
0.000778837
0.00076725
0.00075779
0.000750058
0.000743491
0.000737988
0.000733189
0.000729086
0.000725435
0.000722301
0.00071945
0.000716992
0.000714711
0.00071274
0.000710883
0.000709274
0.000707737
0.000706425
0.000705147
0.000704055
0.000702978
0.000702078
0.000701176
0.000700394
0.000699641
0.000699014
0.000698376
0.000697846
0.000697296
0.000696825
0.000696347
0.000695961
0.000695552
0.000695229
0.000694879
0.000694588
0.000694277
0.000694033
0.000693777
0.000693566
0.000693348
0.000693184
0.000692981
0.000692853
0.000692691
0.000692559
0.000692425
0.000692354
0.000692234
0.00069215
0.00069209
0.000692038
0.000691917
0.000691891
0.000691882
0.000691862
0.000691795
0.000691924
0.000692031
0.000692031
0.000692148
0.000692286
0.00069251
0.000692741
0.000692915
0.000693079
0.000693275
0.000693524
0.000693753
0.000694097
0.000694388
0.000694805
0.000695081
0.000695551
0.000695863
0.000696443
0.00069681
0.000697563
0.000697997
0.000698894
0.000699423
0.000700521
0.000701188
0.000702638
0.000703443
0.000705965
0.00070638
0.000717629
0.0109111
0.0115164
0.00102023
0.000933089
0.000876125
0.000838467
0.000812135
0.000792844
0.000778
0.000766335
0.00075681
0.000749023
0.000742411
0.000736868
0.000732034
0.000727901
0.000724223
0.000721066
0.000718194
0.000715717
0.000713418
0.000711432
0.000709561
0.000707939
0.000706391
0.000705068
0.000703781
0.000702679
0.000701594
0.000700686
0.000699777
0.000698988
0.000698228
0.000697595
0.000696952
0.000696417
0.000695862
0.000695387
0.000694905
0.000694514
0.000694101
0.000693775
0.000693422
0.000693128
0.000692814
0.000692568
0.000692309
0.000692096
0.000691876
0.00069171
0.000691505
0.000691375
0.000691212
0.000691078
0.000690942
0.000690871
0.00069075
0.000690665
0.000690603
0.000690551
0.00069043
0.000690403
0.000690393
0.000690372
0.000690303
0.00069043
0.000690536
0.000690536
0.000690652
0.000690789
0.000691011
0.000691242
0.000691416
0.000691581
0.000691776
0.000692024
0.000692252
0.000692594
0.000692884
0.000693301
0.000693577
0.000694046
0.000694358
0.000694936
0.000695302
0.000696053
0.000696487
0.000697382
0.000697909
0.000699005
0.000699669
0.000701115
0.000701916
0.000704436
0.000704825
0.000716364
0.0110722
0.0117362
0.00102027
0.000932996
0.000875821
0.000837964
0.00081147
0.000792049
0.000777102
0.000765352
0.000755757
0.000747911
0.000741248
0.000735663
0.000730792
0.000726627
0.00072292
0.000719737
0.000716842
0.000714344
0.000712027
0.000710025
0.000708139
0.000706503
0.000704942
0.000703607
0.000702309
0.000701198
0.000700103
0.000699186
0.00069827
0.000697474
0.000696707
0.000696067
0.000695418
0.000694877
0.000694317
0.000693837
0.00069335
0.000692956
0.000692539
0.000692209
0.000691852
0.000691555
0.000691239
0.000690989
0.000690728
0.000690512
0.000690289
0.000690121
0.000689914
0.000689782
0.000689618
0.000689483
0.000689345
0.000689272
0.00068915
0.000689064
0.000689001
0.000688949
0.000688828
0.0006888
0.000688789
0.000688767
0.000688695
0.000688821
0.000688924
0.000688924
0.00068904
0.000689176
0.000689395
0.000689625
0.0006898
0.000689966
0.000690159
0.000690407
0.000690633
0.000690975
0.000691263
0.000691679
0.000691955
0.000692424
0.000692734
0.000693312
0.000693676
0.000694425
0.000694858
0.000695751
0.000696277
0.00069737
0.000698032
0.000699473
0.000700269
0.000702786
0.000703148
0.000714999
0.0112431
0.0119727
0.00102031
0.0009329
0.000875499
0.00083743
0.000810761
0.000791201
0.000776141
0.0007643
0.00075463
0.000746721
0.000740004
0.000734373
0.000729461
0.000725261
0.000721523
0.000718312
0.000715393
0.000712873
0.000710537
0.000708516
0.000706613
0.000704963
0.000703388
0.000702041
0.000700731
0.000699609
0.000698504
0.000697579
0.000696653
0.00069585
0.000695075
0.000694429
0.000693772
0.000693226
0.00069266
0.000692175
0.000691683
0.000691285
0.000690863
0.000690529
0.000690168
0.000689868
0.000689548
0.000689295
0.000689031
0.000688813
0.000688587
0.000688417
0.000688208
0.000688074
0.000687908
0.000687772
0.000687632
0.000687557
0.000687434
0.000687347
0.000687282
0.00068723
0.00068711
0.000687079
0.000687067
0.000687044
0.00068697
0.000687094
0.000687195
0.000687195
0.00068731
0.000687446
0.000687661
0.000687891
0.000688066
0.000688233
0.000688425
0.000688672
0.000688897
0.000689237
0.000689523
0.000689939
0.000690214
0.000690683
0.000690992
0.000691569
0.000691932
0.000692678
0.00069311
0.000694
0.000694525
0.000695614
0.000696274
0.00069771
0.000698501
0.000701016
0.000701348
0.000713531
0.0114223
0.0122257
0.00102035
0.000932799
0.000875159
0.000836863
0.000810008
0.000790299
0.00077512
0.000763181
0.000753429
0.000745453
0.000738678
0.000732996
0.000728042
0.000723804
0.000720033
0.000716792
0.000713847
0.000711303
0.000708945
0.000706905
0.000704985
0.000703319
0.000701729
0.000700368
0.000699046
0.000697913
0.000696797
0.000695861
0.000694927
0.000694115
0.000693332
0.000692678
0.000692014
0.000691462
0.00069089
0.0006904
0.000689902
0.000689499
0.000689072
0.000688734
0.000688369
0.000688065
0.000687741
0.000687486
0.000687218
0.000686997
0.000686768
0.000686596
0.000686385
0.000686248
0.00068608
0.000685943
0.0006858
0.000685724
0.0006856
0.000685512
0.000685445
0.000685392
0.000685272
0.00068524
0.000685227
0.000685203
0.000685126
0.000685248
0.000685347
0.000685347
0.00068546
0.000685595
0.000685808
0.000686037
0.000686212
0.00068638
0.00068657
0.000686817
0.00068704
0.000687379
0.000687663
0.000688079
0.000688353
0.000688822
0.000689129
0.000689705
0.000690066
0.00069081
0.000691241
0.000692129
0.000692652
0.000693737
0.000694394
0.000695825
0.000696611
0.000699122
0.000699424
0.00071196
0.0116079
0.0124949
0.0010204
0.000932694
0.000874801
0.000836265
0.000809212
0.000789344
0.000774036
0.000761993
0.000752155
0.000744106
0.000737269
0.000731534
0.000726533
0.000722255
0.000718448
0.000715176
0.000712202
0.000709633
0.000707252
0.000705191
0.000703252
0.000701569
0.000699963
0.000698588
0.000697252
0.000696107
0.00069498
0.000694034
0.000693089
0.000692269
0.000691476
0.000690815
0.000690143
0.000689583
0.000689005
0.000688509
0.000688006
0.000687597
0.000687165
0.000686822
0.000686453
0.000686146
0.000685818
0.000685559
0.000685287
0.000685064
0.000684831
0.000684657
0.000684443
0.000684304
0.000684133
0.000683995
0.00068385
0.000683772
0.000683647
0.000683557
0.000683488
0.000683435
0.000683315
0.000683281
0.000683267
0.000683242
0.000683162
0.000683282
0.000683379
0.000683378
0.00068349
0.000683624
0.000683834
0.000684063
0.000684238
0.000684406
0.000684595
0.000684841
0.000685062
0.000685399
0.000685681
0.000686096
0.00068637
0.000686838
0.000687144
0.000687719
0.000688079
0.000688819
0.000689249
0.000690134
0.000690656
0.000691737
0.000692391
0.000693816
0.000694596
0.000697103
0.000697374
0.000710281
0.0117979
0.0127794
0.00102045
0.000932587
0.000874427
0.000835637
0.000808372
0.000788336
0.000772891
0.000760737
0.000750806
0.000742679
0.000735776
0.000729985
0.000724935
0.000720614
0.000716768
0.000713462
0.000710457
0.000707862
0.000705456
0.000703373
0.000701414
0.000699713
0.00069809
0.0006967
0.000695349
0.000694191
0.000693052
0.000692094
0.000691139
0.000690309
0.000689507
0.000688837
0.000688157
0.00068759
0.000687004
0.000686503
0.000685993
0.000685578
0.000685141
0.000684793
0.000684419
0.000684108
0.000683776
0.000683513
0.000683238
0.000683011
0.000682775
0.000682598
0.000682381
0.000682239
0.000682067
0.000681926
0.000681779
0.000681699
0.000681573
0.000681482
0.000681411
0.000681357
0.000681237
0.000681201
0.000681185
0.000681159
0.000681077
0.000681194
0.000681288
0.000681288
0.000681398
0.000681531
0.000681738
0.000681965
0.00068214
0.000682309
0.000682496
0.000682742
0.000682961
0.000683296
0.000683576
0.000683991
0.000684263
0.000684731
0.000685036
0.00068561
0.000685967
0.000686704
0.000687133
0.000688015
0.000688535
0.000689612
0.000690263
0.000691681
0.000692455
0.000694958
0.000695196
0.000708492
0.0119895
0.0130786
0.0010205
0.000932476
0.000874037
0.000834978
0.00080749
0.000787274
0.000771685
0.000759413
0.000749383
0.000741174
0.000734201
0.000728349
0.000723246
0.000718879
0.000714992
0.000711651
0.000708614
0.000705989
0.000703557
0.000701451
0.00069947
0.00069775
0.000696108
0.000694702
0.000693336
0.000692164
0.000691011
0.000690042
0.000689076
0.000688235
0.000687423
0.000686744
0.000686055
0.00068548
0.000684887
0.000684379
0.000683862
0.000683442
0.000682998
0.000682645
0.000682266
0.000681951
0.000681614
0.000681347
0.000681068
0.000680838
0.000680598
0.000680418
0.000680198
0.000680054
0.000679879
0.000679737
0.000679586
0.000679505
0.000679376
0.000679284
0.000679211
0.000679156
0.000679036
0.000678998
0.000678981
0.000678954
0.000678868
0.000678984
0.000679074
0.000679074
0.000679182
0.000679315
0.000679517
0.000679744
0.000679919
0.000680089
0.000680274
0.000680519
0.000680735
0.00068107
0.000681347
0.000681761
0.000682032
0.000682499
0.000682802
0.000683375
0.00068373
0.000684464
0.000684892
0.00068577
0.000686288
0.00068736
0.000688008
0.00068942
0.000690187
0.000692685
0.00069289
0.000706589
0.0121795
0.0133912
0.00102055
0.000932362
0.000873631
0.00083429
0.000806566
0.000786161
0.000770418
0.00075802
0.000747886
0.000739589
0.000732541
0.000726625
0.000721466
0.000717051
0.000713121
0.000709741
0.000706669
0.000704014
0.000701554
0.000699423
0.000697419
0.000695678
0.000694018
0.000692594
0.000691212
0.000690025
0.000688858
0.000687876
0.000686898
0.000686047
0.000685223
0.000684534
0.000683836
0.000683253
0.000682652
0.000682137
0.000681613
0.000681186
0.000680736
0.000680378
0.000679993
0.000679673
0.000679331
0.00067906
0.000678776
0.000678543
0.000678299
0.000678117
0.000677893
0.000677746
0.000677568
0.000677424
0.000677271
0.000677187
0.000677057
0.000676963
0.000676887
0.000676832
0.000676712
0.000676672
0.000676653
0.000676625
0.000676536
0.000676649
0.000676736
0.000676736
0.000676842
0.000676974
0.000677172
0.000677397
0.000677573
0.000677743
0.000677926
0.000678171
0.000678385
0.000678717
0.000678991
0.000679404
0.000679674
0.000680141
0.000680442
0.000681013
0.000681367
0.000682097
0.000682523
0.000683397
0.000683913
0.00068498
0.000685624
0.000687029
0.00068779
0.000690282
0.000690453
0.000704569
0.0123645
0.0137155
0.00102061
0.000932247
0.000873211
0.000833573
0.000805601
0.000784995
0.00076909
0.000756559
0.000746315
0.000737925
0.000730798
0.000724814
0.000719596
0.000715129
0.000711153
0.000707732
0.000704624
0.000701937
0.000699447
0.00069729
0.000695261
0.000693498
0.000691818
0.000690375
0.000688976
0.000687773
0.000686592
0.000685595
0.000684605
0.000683742
0.000682907
0.000682208
0.0006815
0.000680908
0.000680298
0.000679776
0.000679244
0.000678811
0.000678354
0.00067799
0.000677599
0.000677274
0.000676927
0.000676652
0.000676363
0.000676126
0.000675878
0.000675692
0.000675465
0.000675315
0.000675134
0.000674988
0.000674831
0.000674745
0.000674613
0.000674518
0.000674439
0.000674383
0.000674263
0.000674221
0.0006742
0.00067417
0.000674078
0.000674189
0.000674272
0.000674272
0.000674376
0.000674507
0.000674701
0.000674925
0.0006751
0.000675271
0.000675452
0.000675695
0.000675907
0.000676237
0.000676509
0.000676921
0.00067719
0.000677655
0.000677955
0.000678524
0.000678875
0.000679601
0.000680026
0.000680896
0.00068141
0.000682472
0.000683112
0.000684509
0.000685262
0.000687747
0.000687884
0.000702427
0.0125404
0.0140498
0.00102067
0.00093213
0.000872776
0.000832827
0.000804595
0.000783778
0.000767702
0.000755031
0.00074467
0.000736182
0.000728971
0.000722915
0.000717634
0.000713113
0.000709088
0.000705625
0.000702478
0.000699756
0.000697235
0.00069505
0.000692995
0.000691209
0.000689507
0.000688045
0.000686627
0.000685408
0.000684211
0.0006832
0.000682196
0.000681321
0.000680474
0.000679764
0.000679045
0.000678444
0.000677825
0.000677295
0.000676755
0.000676315
0.00067585
0.00067548
0.000675083
0.000674753
0.0006744
0.00067412
0.000673826
0.000673586
0.000673332
0.000673143
0.000672912
0.000672759
0.000672575
0.000672427
0.000672267
0.000672178
0.000672044
0.000671948
0.000671865
0.000671809
0.000671688
0.000671643
0.000671621
0.00067159
0.000671494
0.000671602
0.000671681
0.000671682
0.000671783
0.000671912
0.000672102
0.000672325
0.000672499
0.000672671
0.00067285
0.000673092
0.000673301
0.00067363
0.000673898
0.000674309
0.000674576
0.000675041
0.000675338
0.000675906
0.000676254
0.000676976
0.000677399
0.000678264
0.000678776
0.000679832
0.000680468
0.000681857
0.000682603
0.000685081
0.000685183
0.000700159
0.0127029
0.0143913
0.00102073
0.000932011
0.000872328
0.000832055
0.000803549
0.00078251
0.000766254
0.000753435
0.000742952
0.00073436
0.000727061
0.000720928
0.000715582
0.000711002
0.000706926
0.000703418
0.00070023
0.000697472
0.000694918
0.000692703
0.000690621
0.000688811
0.000687085
0.000685602
0.000684165
0.000682929
0.000681715
0.000680689
0.00067967
0.000678783
0.000677922
0.000677201
0.000676471
0.00067586
0.000675232
0.000674693
0.000674144
0.000673697
0.000673225
0.000672847
0.000672444
0.000672108
0.00067175
0.000671465
0.000671166
0.000670921
0.000670663
0.00067047
0.000670235
0.000670078
0.00066989
0.00066974
0.000669576
0.000669485
0.000669349
0.00066925
0.000669165
0.000669108
0.000668987
0.000668939
0.000668915