/*--------------------------------*- C++ -*----------------------------------*\
| =========                 |                                                 |
| \\      /  F ield         | OpenFOAM: The Open Source CFD Toolbox           |
|  \\    /   O peration     | Version:  v2012                                 |
|   \\  /    A nd           | Website:  www.openfoam.com                      |
|    \\/     M anipulation  |                                                 |
\*---------------------------------------------------------------------------*/
FoamFile
{
    version     2.0;
    format      ascii;
    class       volVectorField;
    location    "18.5";
    object      wallShearStress;
}
// * * * * * * * * * * * * * * * * * * * * * * * * * * * * * * * * * * * * * //

dimensions      [0 2 -2 0 0 0 0];


internalField   uniform (0 0 0);

boundaryField
{
    inlet
    {
        type            calculated;
        value           uniform (0 0 0);
    }
    outlet
    {
        type            calculated;
        value           uniform (0 0 0);
    }
    topWall
    {
        type            calculated;
        value           nonuniform List<vector> 
545
(
(4.51354e-08 -3.17973e-08 0)
(4.51199e-08 -8.89354e-08 0)
(4.50657e-08 -1.48299e-07 0)
(4.49931e-08 -2.05918e-07 0)
(4.49081e-08 -2.61022e-07 0)
(4.48201e-08 -3.14339e-07 0)
(4.47197e-08 -3.66324e-07 0)
(4.46083e-08 -4.16952e-07 0)
(4.44869e-08 -4.66109e-07 0)
(4.43563e-08 -5.13793e-07 0)
(4.42176e-08 -5.60064e-07 0)
(4.40714e-08 -6.04978e-07 0)
(4.39185e-08 -6.48566e-07 0)
(4.37597e-08 -6.90853e-07 0)
(4.35957e-08 -7.31871e-07 0)
(4.34271e-08 -7.71655e-07 0)
(4.32546e-08 -8.10237e-07 0)
(4.30786e-08 -8.47652e-07 0)
(4.28997e-08 -8.8393e-07 0)
(4.27184e-08 -9.19103e-07 0)
(4.25351e-08 -9.53202e-07 0)
(4.23503e-08 -9.86259e-07 0)
(4.21643e-08 -1.0183e-06 0)
(4.19776e-08 -1.04936e-06 0)
(4.17903e-08 -1.07947e-06 0)
(4.16029e-08 -1.10866e-06 0)
(4.14156e-08 -1.13694e-06 0)
(4.12286e-08 -1.16436e-06 0)
(4.10423e-08 -1.19093e-06 0)
(4.08567e-08 -1.21668e-06 0)
(4.06722e-08 -1.24164e-06 0)
(4.04889e-08 -1.26584e-06 0)
(4.03068e-08 -1.28929e-06 0)
(4.01263e-08 -1.31202e-06 0)
(3.99474e-08 -1.33405e-06 0)
(3.97703e-08 -1.3554e-06 0)
(3.9595e-08 -1.3761e-06 0)
(3.94216e-08 -1.39617e-06 0)
(3.92502e-08 -1.41562e-06 0)
(3.90809e-08 -1.43447e-06 0)
(3.89138e-08 -1.45275e-06 0)
(3.87489e-08 -1.47047e-06 0)
(3.85862e-08 -1.48765e-06 0)
(3.84258e-08 -1.50431e-06 0)
(3.82677e-08 -1.52046e-06 0)
(3.81119e-08 -1.53613e-06 0)
(3.79584e-08 -1.55131e-06 0)
(3.78074e-08 -1.56604e-06 0)
(3.76586e-08 -1.58032e-06 0)
(3.75123e-08 -1.59417e-06 0)
(3.73683e-08 -1.60761e-06 0)
(3.72266e-08 -1.62064e-06 0)
(3.70872e-08 -1.63327e-06 0)
(3.69502e-08 -1.64553e-06 0)
(3.68155e-08 -1.65743e-06 0)
(3.6683e-08 -1.66896e-06 0)
(3.65528e-08 -1.68015e-06 0)
(3.64248e-08 -1.69101e-06 0)
(3.6299e-08 -1.70155e-06 0)
(3.61753e-08 -1.71177e-06 0)
(3.60538e-08 -1.72169e-06 0)
(3.59343e-08 -1.73131e-06 0)
(3.58169e-08 -1.74066e-06 0)
(3.57015e-08 -1.74972e-06 0)
(3.5588e-08 -1.75852e-06 0)
(3.54765e-08 -1.76706e-06 0)
(3.53669e-08 -1.77534e-06 0)
(3.52591e-08 -1.78339e-06 0)
(3.51531e-08 -1.7912e-06 0)
(3.50485e-08 -1.79877e-06 0)
(3.49477e-08 -1.80614e-06 0)
(3.48402e-08 -1.81326e-06 0)
(3.47375e-08 -1.82011e-06 0)
(3.46509e-08 -1.82678e-06 0)
(3.45656e-08 -1.83334e-06 0)
(3.44801e-08 -1.83985e-06 0)
(3.43949e-08 -1.84634e-06 0)
(3.43097e-08 -1.85279e-06 0)
(3.42246e-08 -1.85919e-06 0)
(3.41396e-08 -1.86554e-06 0)
(3.40547e-08 -1.87184e-06 0)
(3.397e-08 -1.87811e-06 0)
(3.38853e-08 -1.88433e-06 0)
(3.38007e-08 -1.8905e-06 0)
(3.37162e-08 -1.89663e-06 0)
(3.36319e-08 -1.90272e-06 0)
(3.35477e-08 -1.90876e-06 0)
(3.34636e-08 -1.91477e-06 0)
(3.33797e-08 -1.92073e-06 0)
(3.32958e-08 -1.92664e-06 0)
(3.32122e-08 -1.93252e-06 0)
(3.31284e-08 -1.93835e-06 0)
(3.30458e-08 -1.94416e-06 0)
(3.29595e-08 -1.94989e-06 0)
(3.28899e-08 -1.95568e-06 0)
(3.27521e-08 -1.96119e-06 0)
(3.25974e-08 -1.96623e-06 0)
(3.25234e-08 -1.97106e-06 0)
(3.24577e-08 -1.97559e-06 0)
(3.23925e-08 -1.98003e-06 0)
(3.23277e-08 -1.98456e-06 0)
(3.22627e-08 -1.98917e-06 0)
(3.21974e-08 -1.99375e-06 0)
(3.21318e-08 -1.99831e-06 0)
(3.20659e-08 -2.00287e-06 0)
(3.19998e-08 -2.00744e-06 0)
(3.19334e-08 -2.01201e-06 0)
(3.18667e-08 -2.01658e-06 0)
(3.17997e-08 -2.02115e-06 0)
(3.17324e-08 -2.02572e-06 0)
(3.16649e-08 -2.0303e-06 0)
(3.1597e-08 -2.03487e-06 0)
(3.15289e-08 -2.03945e-06 0)
(3.14606e-08 -2.04403e-06 0)
(3.13919e-08 -2.04861e-06 0)
(3.1323e-08 -2.05318e-06 0)
(3.12537e-08 -2.05776e-06 0)
(3.11842e-08 -2.06234e-06 0)
(3.11144e-08 -2.06692e-06 0)
(3.10444e-08 -2.07151e-06 0)
(3.0974e-08 -2.07609e-06 0)
(3.09034e-08 -2.08067e-06 0)
(3.08325e-08 -2.08525e-06 0)
(3.07613e-08 -2.08983e-06 0)
(3.06899e-08 -2.09442e-06 0)
(3.06181e-08 -2.099e-06 0)
(3.05461e-08 -2.10358e-06 0)
(3.04737e-08 -2.10816e-06 0)
(3.04011e-08 -2.11275e-06 0)
(3.03283e-08 -2.11733e-06 0)
(3.02551e-08 -2.12191e-06 0)
(3.01816e-08 -2.12649e-06 0)
(3.01079e-08 -2.13108e-06 0)
(3.00339e-08 -2.13566e-06 0)
(2.99595e-08 -2.14024e-06 0)
(2.98849e-08 -2.14482e-06 0)
(2.98101e-08 -2.1494e-06 0)
(2.97349e-08 -2.15397e-06 0)
(2.96594e-08 -2.15855e-06 0)
(2.95837e-08 -2.16313e-06 0)
(2.95077e-08 -2.1677e-06 0)
(2.94313e-08 -2.17228e-06 0)
(2.93547e-08 -2.17685e-06 0)
(2.92778e-08 -2.18143e-06 0)
(2.92007e-08 -2.186e-06 0)
(2.91232e-08 -2.19057e-06 0)
(2.90454e-08 -2.19514e-06 0)
(2.89674e-08 -2.1997e-06 0)
(2.8889e-08 -2.20427e-06 0)
(2.88104e-08 -2.20883e-06 0)
(2.87315e-08 -2.21339e-06 0)
(2.86523e-08 -2.21795e-06 0)
(2.85728e-08 -2.22251e-06 0)
(2.8493e-08 -2.22707e-06 0)
(2.8413e-08 -2.23162e-06 0)
(2.83326e-08 -2.23617e-06 0)
(2.8252e-08 -2.24072e-06 0)
(2.8171e-08 -2.24527e-06 0)
(2.80898e-08 -2.24982e-06 0)
(2.80083e-08 -2.25436e-06 0)
(2.79265e-08 -2.2589e-06 0)
(2.78444e-08 -2.26344e-06 0)
(2.7762e-08 -2.26797e-06 0)
(2.76793e-08 -2.27251e-06 0)
(2.75964e-08 -2.27703e-06 0)
(2.75131e-08 -2.28156e-06 0)
(2.74296e-08 -2.28608e-06 0)
(2.73458e-08 -2.2906e-06 0)
(2.72616e-08 -2.29512e-06 0)
(2.71772e-08 -2.29963e-06 0)
(2.70926e-08 -2.30414e-06 0)
(2.70076e-08 -2.30865e-06 0)
(2.69223e-08 -2.31315e-06 0)
(2.68368e-08 -2.31765e-06 0)
(2.67509e-08 -2.32215e-06 0)
(2.66648e-08 -2.32664e-06 0)
(2.65784e-08 -2.33113e-06 0)
(2.64917e-08 -2.33561e-06 0)
(2.64047e-08 -2.34009e-06 0)
(2.63174e-08 -2.34457e-06 0)
(2.62298e-08 -2.34904e-06 0)
(2.6142e-08 -2.3535e-06 0)
(2.60539e-08 -2.35796e-06 0)
(2.59655e-08 -2.36242e-06 0)
(2.58768e-08 -2.36687e-06 0)
(2.57878e-08 -2.37132e-06 0)
(2.56985e-08 -2.37577e-06 0)
(2.5609e-08 -2.3802e-06 0)
(2.55191e-08 -2.38464e-06 0)
(2.5429e-08 -2.38906e-06 0)
(2.53386e-08 -2.39349e-06 0)
(2.52479e-08 -2.3979e-06 0)
(2.5157e-08 -2.40231e-06 0)
(2.50658e-08 -2.40672e-06 0)
(2.49742e-08 -2.41112e-06 0)
(2.48824e-08 -2.41552e-06 0)
(2.47904e-08 -2.4199e-06 0)
(2.4698e-08 -2.42429e-06 0)
(2.46054e-08 -2.42866e-06 0)
(2.45125e-08 -2.43303e-06 0)
(2.44193e-08 -2.4374e-06 0)
(2.43259e-08 -2.44175e-06 0)
(2.42321e-08 -2.4461e-06 0)
(2.41381e-08 -2.45045e-06 0)
(2.40439e-08 -2.45479e-06 0)
(2.39493e-08 -2.45912e-06 0)
(2.38545e-08 -2.46344e-06 0)
(2.37594e-08 -2.46776e-06 0)
(2.36641e-08 -2.47207e-06 0)
(2.35684e-08 -2.47637e-06 0)
(2.34725e-08 -2.48067e-06 0)
(2.33764e-08 -2.48495e-06 0)
(2.328e-08 -2.48923e-06 0)
(2.31833e-08 -2.49351e-06 0)
(2.30863e-08 -2.49777e-06 0)
(2.29891e-08 -2.50203e-06 0)
(2.28916e-08 -2.50628e-06 0)
(2.27939e-08 -2.51052e-06 0)
(2.26959e-08 -2.51475e-06 0)
(2.25977e-08 -2.51897e-06 0)
(2.24991e-08 -2.52319e-06 0)
(2.24004e-08 -2.52739e-06 0)
(2.23013e-08 -2.53159e-06 0)
(2.22021e-08 -2.53578e-06 0)
(2.21025e-08 -2.53996e-06 0)
(2.20028e-08 -2.54413e-06 0)
(2.19027e-08 -2.5483e-06 0)
(2.18025e-08 -2.55245e-06 0)
(2.17019e-08 -2.55659e-06 0)
(2.16012e-08 -2.56073e-06 0)
(2.15001e-08 -2.56485e-06 0)
(2.13989e-08 -2.56897e-06 0)
(2.12974e-08 -2.57307e-06 0)
(2.11956e-08 -2.57717e-06 0)
(2.10936e-08 -2.58125e-06 0)
(2.09914e-08 -2.58533e-06 0)
(2.0889e-08 -2.58939e-06 0)
(2.07863e-08 -2.59345e-06 0)
(2.06833e-08 -2.59749e-06 0)
(2.05802e-08 -2.60153e-06 0)
(2.04768e-08 -2.60555e-06 0)
(2.03732e-08 -2.60956e-06 0)
(2.02693e-08 -2.61356e-06 0)
(2.01653e-08 -2.61755e-06 0)
(2.0061e-08 -2.62153e-06 0)
(1.99565e-08 -2.6255e-06 0)
(1.98517e-08 -2.62945e-06 0)
(1.97468e-08 -2.6334e-06 0)
(1.96416e-08 -2.63733e-06 0)
(1.95362e-08 -2.64125e-06 0)
(1.94306e-08 -2.64516e-06 0)
(1.93248e-08 -2.64905e-06 0)
(1.92188e-08 -2.65294e-06 0)
(1.91126e-08 -2.65681e-06 0)
(1.90061e-08 -2.66067e-06 0)
(1.88995e-08 -2.66452e-06 0)
(1.87927e-08 -2.66835e-06 0)
(1.86856e-08 -2.67217e-06 0)
(1.85784e-08 -2.67598e-06 0)
(1.8471e-08 -2.67978e-06 0)
(1.83634e-08 -2.68356e-06 0)
(1.82556e-08 -2.68733e-06 0)
(1.81476e-08 -2.69108e-06 0)
(1.80394e-08 -2.69483e-06 0)
(1.7931e-08 -2.69855e-06 0)
(1.78229e-08 -2.70228e-06 0)
(1.77123e-08 -2.70596e-06 0)
(1.76109e-08 -2.70978e-06 0)
(1.74628e-08 -2.71323e-06 0)
(1.73117e-08 -2.71656e-06 0)
(1.7216e-08 -2.72014e-06 0)
(1.71211e-08 -2.72337e-06 0)
(1.70276e-08 -2.72653e-06 0)
(1.69337e-08 -2.72979e-06 0)
(1.68387e-08 -2.73313e-06 0)
(1.67427e-08 -2.73647e-06 0)
(1.66457e-08 -2.73981e-06 0)
(1.65475e-08 -2.74316e-06 0)
(1.64483e-08 -2.74653e-06 0)
(1.63479e-08 -2.74992e-06 0)
(1.62464e-08 -2.75333e-06 0)
(1.61438e-08 -2.75675e-06 0)
(1.60401e-08 -2.76019e-06 0)
(1.59353e-08 -2.76364e-06 0)
(1.58293e-08 -2.7671e-06 0)
(1.57221e-08 -2.77058e-06 0)
(1.56138e-08 -2.77408e-06 0)
(1.55044e-08 -2.77758e-06 0)
(1.53938e-08 -2.7811e-06 0)
(1.5282e-08 -2.78464e-06 0)
(1.51691e-08 -2.78818e-06 0)
(1.5055e-08 -2.79174e-06 0)
(1.49396e-08 -2.7953e-06 0)
(1.48231e-08 -2.79888e-06 0)
(1.47054e-08 -2.80247e-06 0)
(1.45866e-08 -2.80607e-06 0)
(1.44665e-08 -2.80968e-06 0)
(1.43452e-08 -2.8133e-06 0)
(1.42227e-08 -2.81692e-06 0)
(1.40989e-08 -2.82055e-06 0)
(1.3974e-08 -2.82419e-06 0)
(1.38478e-08 -2.82784e-06 0)
(1.37204e-08 -2.83149e-06 0)
(1.35918e-08 -2.83515e-06 0)
(1.3462e-08 -2.83881e-06 0)
(1.33309e-08 -2.84248e-06 0)
(1.31986e-08 -2.84615e-06 0)
(1.30651e-08 -2.84982e-06 0)
(1.29303e-08 -2.8535e-06 0)
(1.27943e-08 -2.85718e-06 0)
(1.2657e-08 -2.86085e-06 0)
(1.25185e-08 -2.86453e-06 0)
(1.23788e-08 -2.8682e-06 0)
(1.22379e-08 -2.87188e-06 0)
(1.20957e-08 -2.87555e-06 0)
(1.19522e-08 -2.87921e-06 0)
(1.18076e-08 -2.88287e-06 0)
(1.16617e-08 -2.88653e-06 0)
(1.15146e-08 -2.89018e-06 0)
(1.13662e-08 -2.89382e-06 0)
(1.12167e-08 -2.89745e-06 0)
(1.10659e-08 -2.90108e-06 0)
(1.09139e-08 -2.90469e-06 0)
(1.07607e-08 -2.90829e-06 0)
(1.06064e-08 -2.91188e-06 0)
(1.04508e-08 -2.91546e-06 0)
(1.0294e-08 -2.91902e-06 0)
(1.01361e-08 -2.92256e-06 0)
(9.97693e-09 -2.92609e-06 0)
(9.81665e-09 -2.9296e-06 0)
(9.65522e-09 -2.93309e-06 0)
(9.49264e-09 -2.93656e-06 0)
(9.32893e-09 -2.94e-06 0)
(9.1641e-09 -2.94343e-06 0)
(8.99816e-09 -2.94683e-06 0)
(8.83113e-09 -2.9502e-06 0)
(8.66301e-09 -2.95354e-06 0)
(8.49383e-09 -2.95686e-06 0)
(8.3236e-09 -2.96014e-06 0)
(8.15233e-09 -2.96339e-06 0)
(7.98003e-09 -2.96661e-06 0)
(7.80674e-09 -2.9698e-06 0)
(7.63246e-09 -2.97294e-06 0)
(7.45723e-09 -2.97606e-06 0)
(7.28104e-09 -2.97912e-06 0)
(7.10394e-09 -2.98215e-06 0)
(6.92593e-09 -2.98514e-06 0)
(6.74705e-09 -2.98808e-06 0)
(6.56731e-09 -2.99098e-06 0)
(6.38675e-09 -2.99382e-06 0)
(6.20538e-09 -2.99662e-06 0)
(6.02324e-09 -2.99937e-06 0)
(5.84034e-09 -3.00206e-06 0)
(5.65674e-09 -3.0047e-06 0)
(5.47244e-09 -3.00728e-06 0)
(5.28749e-09 -3.0098e-06 0)
(5.10191e-09 -3.01226e-06 0)
(4.91574e-09 -3.01466e-06 0)
(4.72901e-09 -3.01699e-06 0)
(4.54176e-09 -3.01926e-06 0)
(4.35402e-09 -3.02145e-06 0)
(4.16584e-09 -3.02358e-06 0)
(3.97724e-09 -3.02564e-06 0)
(3.78828e-09 -3.02762e-06 0)
(3.59899e-09 -3.02952e-06 0)
(3.40941e-09 -3.03135e-06 0)
(3.21959e-09 -3.03309e-06 0)
(3.02957e-09 -3.03475e-06 0)
(2.8394e-09 -3.03633e-06 0)
(2.64912e-09 -3.03782e-06 0)
(2.45878e-09 -3.03922e-06 0)
(2.26843e-09 -3.04053e-06 0)
(2.07812e-09 -3.04175e-06 0)
(1.8879e-09 -3.04287e-06 0)
(1.69782e-09 -3.04389e-06 0)
(1.50794e-09 -3.04481e-06 0)
(1.3183e-09 -3.04563e-06 0)
(1.12898e-09 -3.04635e-06 0)
(9.40006e-10 -3.04696e-06 0)
(7.51454e-10 -3.04746e-06 0)
(5.63376e-10 -3.04785e-06 0)
(3.75832e-10 -3.04813e-06 0)
(1.8888e-10 -3.04829e-06 0)
(2.58149e-12 -3.04834e-06 0)
(-1.83003e-10 -3.04827e-06 0)
(-3.67813e-10 -3.04807e-06 0)
(-5.51784e-10 -3.04775e-06 0)
(-7.34855e-10 -3.04731e-06 0)
(-9.16961e-10 -3.04674e-06 0)
(-1.09804e-09 -3.04604e-06 0)
(-1.27803e-09 -3.04521e-06 0)
(-1.45686e-09 -3.04425e-06 0)
(-1.63446e-09 -3.04314e-06 0)
(-1.81078e-09 -3.04191e-06 0)
(-1.98574e-09 -3.04053e-06 0)
(-2.15928e-09 -3.03901e-06 0)
(-2.33134e-09 -3.03735e-06 0)
(-2.50184e-09 -3.03554e-06 0)
(-2.67071e-09 -3.03358e-06 0)
(-2.8379e-09 -3.03149e-06 0)
(-3.00332e-09 -3.02923e-06 0)
(-3.16693e-09 -3.02683e-06 0)
(-3.32862e-09 -3.02427e-06 0)
(-3.48837e-09 -3.02156e-06 0)
(-3.64606e-09 -3.01869e-06 0)
(-3.80166e-09 -3.01567e-06 0)
(-3.95508e-09 -3.01248e-06 0)
(-4.10626e-09 -3.00914e-06 0)
(-4.25511e-09 -3.00563e-06 0)
(-4.40158e-09 -3.00196e-06 0)
(-4.54558e-09 -2.99813e-06 0)
(-4.68706e-09 -2.99413e-06 0)
(-4.82593e-09 -2.98996e-06 0)
(-4.96214e-09 -2.98564e-06 0)
(-5.09559e-09 -2.98114e-06 0)
(-5.22624e-09 -2.97648e-06 0)
(-5.35399e-09 -2.97164e-06 0)
(-5.47882e-09 -2.96664e-06 0)
(-5.60061e-09 -2.96146e-06 0)
(-5.71933e-09 -2.95613e-06 0)
(-5.8349e-09 -2.95061e-06 0)
(-5.94728e-09 -2.94494e-06 0)
(-6.05638e-09 -2.93908e-06 0)
(-6.1622e-09 -2.93307e-06 0)
(-6.26463e-09 -2.92688e-06 0)
(-6.36368e-09 -2.92053e-06 0)
(-6.45926e-09 -2.914e-06 0)
(-6.55138e-09 -2.90732e-06 0)
(-6.63997e-09 -2.90045e-06 0)
(-6.72504e-09 -2.89344e-06 0)
(-6.80653e-09 -2.88625e-06 0)
(-6.88445e-09 -2.87891e-06 0)
(-6.95875e-09 -2.87139e-06 0)
(-7.02946e-09 -2.86373e-06 0)
(-7.09652e-09 -2.85589e-06 0)
(-7.15997e-09 -2.84791e-06 0)
(-7.21976e-09 -2.83976e-06 0)
(-7.27593e-09 -2.83147e-06 0)
(-7.32842e-09 -2.82301e-06 0)
(-7.37729e-09 -2.81441e-06 0)
(-7.42247e-09 -2.80566e-06 0)
(-7.46402e-09 -2.79677e-06 0)
(-7.50185e-09 -2.78772e-06 0)
(-7.53602e-09 -2.77854e-06 0)
(-7.56642e-09 -2.76921e-06 0)
(-7.59306e-09 -2.75976e-06 0)
(-7.6159e-09 -2.75014e-06 0)
(-7.63392e-09 -2.74046e-06 0)
(-7.65083e-09 -2.73038e-06 0)
(-7.65961e-09 -2.7207e-06 0)
(-7.65349e-09 -2.70966e-06 0)
(-7.64718e-09 -2.69689e-06 0)
(-7.64593e-09 -2.68455e-06 0)
(-7.64227e-09 -2.67227e-06 0)
(-7.63335e-09 -2.65991e-06 0)
(-7.62037e-09 -2.64754e-06 0)
(-7.60317e-09 -2.63519e-06 0)
(-7.58198e-09 -2.62291e-06 0)
(-7.55685e-09 -2.61064e-06 0)
(-7.52808e-09 -2.59844e-06 0)
(-7.49569e-09 -2.58626e-06 0)
(-7.45998e-09 -2.57416e-06 0)
(-7.42099e-09 -2.5621e-06 0)
(-7.37899e-09 -2.55012e-06 0)
(-7.33404e-09 -2.5382e-06 0)
(-7.28638e-09 -2.52637e-06 0)
(-7.23606e-09 -2.5146e-06 0)
(-7.18333e-09 -2.50294e-06 0)
(-7.12819e-09 -2.49134e-06 0)
(-7.07089e-09 -2.47985e-06 0)
(-7.01142e-09 -2.46844e-06 0)
(-6.95001e-09 -2.45714e-06 0)
(-6.88664e-09 -2.44593e-06 0)
(-6.82151e-09 -2.43484e-06 0)
(-6.75461e-09 -2.42383e-06 0)
(-6.68612e-09 -2.41296e-06 0)
(-6.616e-09 -2.40218e-06 0)
(-6.54444e-09 -2.39153e-06 0)
(-6.4714e-09 -2.38098e-06 0)
(-6.39704e-09 -2.37057e-06 0)
(-6.32132e-09 -2.36026e-06 0)
(-6.2444e-09 -2.35009e-06 0)
(-6.16623e-09 -2.34003e-06 0)
(-6.08696e-09 -2.33012e-06 0)
(-6.00655e-09 -2.32032e-06 0)
(-5.92514e-09 -2.31067e-06 0)
(-5.84268e-09 -2.30113e-06 0)
(-5.75931e-09 -2.29174e-06 0)
(-5.67497e-09 -2.28248e-06 0)
(-5.58982e-09 -2.27336e-06 0)
(-5.50378e-09 -2.26437e-06 0)
(-5.41699e-09 -2.25554e-06 0)
(-5.3294e-09 -2.24683e-06 0)
(-5.24112e-09 -2.23828e-06 0)
(-5.15211e-09 -2.22986e-06 0)
(-5.06249e-09 -2.2216e-06 0)
(-4.97218e-09 -2.21346e-06 0)
(-4.88131e-09 -2.20549e-06 0)
(-4.78981e-09 -2.19766e-06 0)
(-4.69779e-09 -2.18998e-06 0)
(-4.60519e-09 -2.18244e-06 0)
(-4.5121e-09 -2.17507e-06 0)
(-4.41846e-09 -2.16783e-06 0)
(-4.32436e-09 -2.16076e-06 0)
(-4.22974e-09 -2.15383e-06 0)
(-4.13469e-09 -2.14707e-06 0)
(-4.03914e-09 -2.14044e-06 0)
(-3.94316e-09 -2.13399e-06 0)
(-3.84672e-09 -2.12768e-06 0)
(-3.74986e-09 -2.12153e-06 0)
(-3.65255e-09 -2.11553e-06 0)
(-3.55483e-09 -2.1097e-06 0)
(-3.45668e-09 -2.10402e-06 0)
(-3.35814e-09 -2.09851e-06 0)
(-3.25918e-09 -2.09315e-06 0)
(-3.15984e-09 -2.08795e-06 0)
(-3.06008e-09 -2.08291e-06 0)
(-2.95997e-09 -2.07804e-06 0)
(-2.85946e-09 -2.07332e-06 0)
(-2.75859e-09 -2.06878e-06 0)
(-2.65735e-09 -2.06439e-06 0)
(-2.55576e-09 -2.06017e-06 0)
(-2.4538e-09 -2.05611e-06 0)
(-2.35151e-09 -2.05222e-06 0)
(-2.24885e-09 -2.04849e-06 0)
(-2.14586e-09 -2.04493e-06 0)
(-2.04251e-09 -2.04153e-06 0)
(-1.93882e-09 -2.03831e-06 0)
(-1.83476e-09 -2.03524e-06 0)
(-1.73035e-09 -2.03236e-06 0)
(-1.62556e-09 -2.02963e-06 0)
(-1.52042e-09 -2.02708e-06 0)
(-1.4149e-09 -2.0247e-06 0)
(-1.30906e-09 -2.02249e-06 0)
(-1.20292e-09 -2.02045e-06 0)
(-1.09662e-09 -2.01859e-06 0)
(-9.90297e-10 -2.01686e-06 0)
(-8.8426e-10 -2.01548e-06 0)
(-7.78731e-10 -2.01366e-06 0)
(-6.74536e-10 -2.01401e-06 0)
(-5.70401e-10 -2.00777e-06 0)
(-4.71566e-10 -2.02324e-06 0)
(-3.56086e-10 -1.96204e-06 0)
(-3.02251e-10 -2.12262e-06 0)
(-1.5881e-10 -1.85351e-06 0)
)
;
    }
    bottomWall
    {
        type            calculated;
        value           nonuniform List<vector> 
449
(
(-52.9498 -0.958497 0)
(-34.9101 -0.00281268 0)
(-34.4982 -0.000260922 0)
(-33.1147 -0.000368251 0)
(-31.9773 -0.000317388 0)
(-30.9382 -0.000285778 0)
(-30.0128 -0.000252893 0)
(-29.1956 -0.000222095 0)
(-28.4795 -0.000194201 0)
(-27.8525 -0.000170143 0)
(-27.3005 -0.000150351 0)
(-26.8084 -0.000134581 0)
(-26.3635 -0.000122143 0)
(-25.9556 -0.000112162 0)
(-25.5784 -0.000103838 0)
(-25.227 -9.672e-05 0)
(-24.898 -9.04915e-05 0)
(-24.5889 -8.49952e-05 0)
(-24.2973 -8.00647e-05 0)
(-24.0218 -7.55822e-05 0)
(-23.7607 -7.15073e-05 0)
(-23.5129 -6.77556e-05 0)
(-23.2774 -6.43005e-05 0)
(-23.0533 -6.11367e-05 0)
(-22.8394 -5.81964e-05 0)
(-22.6354 -5.54414e-05 0)
(-22.4404 -5.28982e-05 0)
(-22.2538 -5.05216e-05 0)
(-22.0752 -4.83192e-05 0)
(-21.9037 -4.62924e-05 0)
(-21.739 -4.43706e-05 0)
(-21.5808 -4.25379e-05 0)
(-21.4287 -4.08271e-05 0)
(-21.2823 -3.92209e-05 0)
(-21.1413 -3.77337e-05 0)
(-21.0051 -3.63493e-05 0)
(-20.8737 -3.50061e-05 0)
(-20.7468 -3.37624e-05 0)
(-20.624 -3.25651e-05 0)
(-20.5054 -3.14556e-05 0)
(-20.3903 -3.03771e-05 0)
(-20.2792 -2.93712e-05 0)
(-20.1711 -2.8414e-05 0)
(-20.0667 -2.75204e-05 0)
(-19.9647 -2.665e-05 0)
(-19.8664 -2.58388e-05 0)
(-19.7701 -2.50555e-05 0)
(-19.6772 -2.43137e-05 0)
(-19.5861 -2.3606e-05 0)
(-19.4982 -2.2922e-05 0)
(-19.4118 -2.22583e-05 0)
(-19.3286 -2.16251e-05 0)
(-19.2466 -2.10546e-05 0)
(-19.1674 -2.04748e-05 0)
(-19.0895 -1.99267e-05 0)
(-19.0141 -1.9393e-05 0)
(-18.94 -1.89041e-05 0)
(-18.868 -1.8429e-05 0)
(-18.7973 -1.79656e-05 0)
(-18.7286 -1.7524e-05 0)
(-18.661 -1.70986e-05 0)
(-18.5952 -1.6691e-05 0)
(-18.5305 -1.63092e-05 0)
(-18.4674 -1.59241e-05 0)
(-18.4054 -1.55395e-05 0)
(-18.3451 -1.51764e-05 0)
(-18.2857 -1.48415e-05 0)
(-18.2277 -1.451e-05 0)
(-18.1707 -1.41876e-05 0)
(-18.115 -1.38886e-05 0)
(-18.06 -1.36122e-05 0)
(-18.0063 -1.33253e-05 0)
(-17.9534 -1.3033e-05 0)
(-17.9018 -1.27652e-05 0)
(-17.8508 -1.25115e-05 0)
(-17.801 -1.22621e-05 0)
(-17.7518 -1.20291e-05 0)
(-17.7036 -1.18013e-05 0)
(-17.656 -1.15822e-05 0)
(-17.6094 -1.13451e-05 0)
(-17.5635 -1.11148e-05 0)
(-17.5186 -1.08983e-05 0)
(-17.4742 -1.07011e-05 0)
(-17.4307 -1.05192e-05 0)
(-17.3877 -1.0336e-05 0)
(-17.3455 -1.01523e-05 0)
(-17.3037 -9.94689e-06 0)
(-17.263 -9.75194e-06 0)
(-17.2227 -9.59504e-06 0)
(-17.1831 -9.4397e-06 0)
(-17.1439 -9.28912e-06 0)
(-17.1054 -9.13414e-06 0)
(-17.0673 -8.97592e-06 0)
(-17.03 -8.82773e-06 0)
(-16.993 -8.67965e-06 0)
(-16.9567 -8.52239e-06 0)
(-16.9208 -8.37806e-06 0)
(-16.8856 -8.25061e-06 0)
(-16.8507 -8.12748e-06 0)
(-16.8163 -8.00524e-06 0)
(-16.7823 -7.87446e-06 0)
(-16.7489 -7.7516e-06 0)
(-16.7157 -7.63928e-06 0)
(-16.6832 -7.52202e-06 0)
(-16.6508 -7.39372e-06 0)
(-16.6192 -7.28028e-06 0)
(-16.5878 -7.16387e-06 0)
(-16.557 -7.04957e-06 0)
(-16.5264 -6.96093e-06 0)
(-16.4963 -6.86212e-06 0)
(-16.4664 -6.78744e-06 0)
(-16.4368 -6.69286e-06 0)
(-16.4076 -6.60008e-06 0)
(-16.3786 -6.50443e-06 0)
(-16.3501 -6.40587e-06 0)
(-16.3219 -6.2952e-06 0)
(-16.2943 -6.19694e-06 0)
(-16.2669 -6.12114e-06 0)
(-16.2397 -6.04169e-06 0)
(-16.2129 -5.9466e-06 0)
(-16.1865 -5.86345e-06 0)
(-16.1603 -5.80335e-06 0)
(-16.1343 -5.73345e-06 0)
(-16.1086 -5.66926e-06 0)
(-16.083 -5.60412e-06 0)
(-16.0578 -5.53233e-06 0)
(-16.0328 -5.45005e-06 0)
(-16.0082 -5.37144e-06 0)
(-15.9838 -5.28854e-06 0)
(-15.9598 -5.21257e-06 0)
(-15.936 -5.14787e-06 0)
(-15.9125 -5.0935e-06 0)
(-15.8891 -5.0481e-06 0)
(-15.8659 -4.98936e-06 0)
(-15.8429 -4.93426e-06 0)
(-15.8202 -4.88735e-06 0)
(-15.7975 -4.83061e-06 0)
(-15.7751 -4.77126e-06 0)
(-15.7529 -4.70813e-06 0)
(-15.7311 -4.64499e-06 0)
(-15.7094 -4.59078e-06 0)
(-15.6879 -4.51559e-06 0)
(-15.6668 -4.45081e-06 0)
(-15.6458 -4.38519e-06 0)
(-15.6253 -4.33319e-06 0)
(-15.6047 -4.27604e-06 0)
(-15.5846 -4.23528e-06 0)
(-15.5643 -4.19741e-06 0)
(-15.5444 -4.15061e-06 0)
(-15.5245 -4.10513e-06 0)
(-15.505 -4.06522e-06 0)
(-15.4854 -4.03282e-06 0)
(-15.4661 -3.9775e-06 0)
(-15.4469 -3.94578e-06 0)
(-15.4278 -3.89446e-06 0)
(-15.409 -3.84259e-06 0)
(-15.3904 -3.79293e-06 0)
(-15.372 -3.75234e-06 0)
(-15.3537 -3.703e-06 0)
(-15.3357 -3.65364e-06 0)
(-15.3177 -3.62448e-06 0)
(-15.3 -3.58612e-06 0)
(-15.2823 -3.55687e-06 0)
(-15.2647 -3.53866e-06 0)
(-15.2472 -3.49975e-06 0)
(-15.2299 -3.4423e-06 0)
(-15.2129 -3.40134e-06 0)
(-15.1959 -3.36349e-06 0)
(-15.1792 -3.31641e-06 0)
(-15.1626 -3.27748e-06 0)
(-15.1462 -3.23833e-06 0)
(-15.13 -3.20154e-06 0)
(-15.1138 -3.18858e-06 0)
(-15.0985 -3.17935e-06 0)
(-15.0841 -3.16167e-06 0)
(-15.0697 -3.13627e-06 0)
(-15.0552 -3.10151e-06 0)
(-15.0407 -3.08024e-06 0)
(-15.0262 -3.04732e-06 0)
(-15.0117 -2.9965e-06 0)
(-14.9973 -2.97133e-06 0)
(-14.9828 -2.94276e-06 0)
(-14.9683 -2.90593e-06 0)
(-14.9539 -2.88254e-06 0)
(-14.9393 -2.85641e-06 0)
(-14.9248 -2.81801e-06 0)
(-14.9104 -2.77061e-06 0)
(-14.896 -2.73033e-06 0)
(-14.8817 -2.707e-06 0)
(-14.8673 -2.69495e-06 0)
(-14.8528 -2.67846e-06 0)
(-14.8382 -2.63644e-06 0)
(-14.8239 -2.62068e-06 0)
(-14.8092 -2.6025e-06 0)
(-14.7947 -2.56143e-06 0)
(-14.7802 -2.52233e-06 0)
(-14.7658 -2.48872e-06 0)
(-14.7514 -2.4633e-06 0)
(-14.737 -2.43145e-06 0)
(-14.7226 -2.40763e-06 0)
(-14.7082 -2.38192e-06 0)
(-14.6938 -2.35597e-06 0)
(-14.6795 -2.33439e-06 0)
(-14.665 -2.31804e-06 0)
(-14.6505 -2.29433e-06 0)
(-14.6361 -2.27812e-06 0)
(-14.6214 -2.27495e-06 0)
(-14.6067 -2.25851e-06 0)
(-14.592 -2.2367e-06 0)
(-14.5772 -2.2123e-06 0)
(-14.5625 -2.18745e-06 0)
(-14.5478 -2.15465e-06 0)
(-14.5332 -2.1099e-06 0)
(-14.5188 -2.07534e-06 0)
(-14.5044 -2.05444e-06 0)
(-14.4899 -2.02572e-06 0)
(-14.4756 -1.99377e-06 0)
(-14.4613 -1.96012e-06 0)
(-14.4472 -1.93009e-06 0)
(-14.433 -1.91752e-06 0)
(-14.4187 -1.89889e-06 0)
(-14.4045 -1.88568e-06 0)
(-14.3901 -1.87275e-06 0)
(-14.3758 -1.85034e-06 0)
(-14.3614 -1.83869e-06 0)
(-14.347 -1.80901e-06 0)
(-14.3328 -1.78879e-06 0)
(-14.3183 -1.77951e-06 0)
(-14.304 -1.74121e-06 0)
(-14.2899 -1.72281e-06 0)
(-14.2755 -1.70477e-06 0)
(-14.2614 -1.67848e-06 0)
(-14.2472 -1.67127e-06 0)
(-14.2328 -1.65287e-06 0)
(-14.2186 -1.64248e-06 0)
(-14.2041 -1.6384e-06 0)
(-14.1897 -1.63248e-06 0)
(-14.175 -1.6138e-06 0)
(-14.1606 -1.57878e-06 0)
(-14.1462 -1.55183e-06 0)
(-14.132 -1.52483e-06 0)
(-14.1179 -1.49352e-06 0)
(-14.1039 -1.47291e-06 0)
(-14.0898 -1.46114e-06 0)
(-14.0758 -1.4388e-06 0)
(-14.0619 -1.42351e-06 0)
(-14.0478 -1.42019e-06 0)
(-14.0336 -1.40278e-06 0)
(-14.0197 -1.38269e-06 0)
(-14.0056 -1.36568e-06 0)
(-13.9916 -1.347e-06 0)
(-13.9776 -1.33893e-06 0)
(-13.9635 -1.32363e-06 0)
(-13.9496 -1.30099e-06 0)
(-13.9357 -1.28374e-06 0)
(-13.9217 -1.27479e-06 0)
(-13.9077 -1.26585e-06 0)
(-13.8937 -1.24524e-06 0)
(-13.8799 -1.23182e-06 0)
(-13.8658 -1.21996e-06 0)
(-13.852 -1.19797e-06 0)
(-13.8382 -1.18776e-06 0)
(-13.8242 -1.1798e-06 0)
(-13.8103 -1.17274e-06 0)
(-13.7962 -1.15539e-06 0)
(-13.7824 -1.13967e-06 0)
(-13.7684 -1.1206e-06 0)
(-13.7548 -1.09631e-06 0)
(-13.7411 -1.08935e-06 0)
(-13.7273 -1.08798e-06 0)
(-13.7133 -1.08258e-06 0)
(-13.6994 -1.06475e-06 0)
(-13.6856 -1.04073e-06 0)
(-13.672 -1.02362e-06 0)
(-13.6584 -1.01881e-06 0)
(-13.6446 -1.00434e-06 0)
(-13.6311 -9.91499e-07 0)
(-13.6174 -9.82729e-07 0)
(-13.6038 -9.62361e-07 0)
(-13.5904 -9.41805e-07 0)
(-13.5771 -9.22393e-07 0)
(-13.5639 -9.15964e-07 0)
(-13.5505 -9.12447e-07 0)
(-13.5372 -8.97734e-07 0)
(-13.5239 -8.87048e-07 0)
(-13.5106 -8.81002e-07 0)
(-13.4972 -8.85865e-07 0)
(-13.4835 -8.7479e-07 0)
(-13.4702 -8.55766e-07 0)
(-13.4567 -8.35787e-07 0)
(-13.4438 -8.21555e-07 0)
(-13.4305 -8.19118e-07 0)
(-13.4173 -8.07741e-07 0)
(-13.4041 -7.9556e-07 0)
(-13.391 -7.92563e-07 0)
(-13.3776 -7.79824e-07 0)
(-13.3647 -7.60681e-07 0)
(-13.3517 -7.53876e-07 0)
(-13.3388 -7.33449e-07 0)
(-13.3262 -7.22127e-07 0)
(-13.3133 -7.1026e-07 0)
(-13.3009 -6.88903e-07 0)
(-13.2885 -6.91229e-07 0)
(-13.2757 -7.01116e-07 0)
(-13.2627 -7.07146e-07 0)
(-13.2494 -6.93928e-07 0)
(-13.2366 -6.70542e-07 0)
(-13.2239 -6.60098e-07 0)
(-13.2113 -6.50307e-07 0)
(-13.1987 -6.43628e-07 0)
(-13.186 -6.36811e-07 0)
(-13.1734 -6.23221e-07 0)
(-13.161 -6.20789e-07 0)
(-13.1482 -6.22392e-07 0)
(-13.1355 -6.1448e-07 0)
(-13.1228 -5.99396e-07 0)
(-13.1104 -5.89627e-07 0)
(-13.0978 -5.8258e-07 0)
(-13.0855 -5.72076e-07 0)
(-13.0731 -5.61293e-07 0)
(-13.061 -5.49509e-07 0)
(-13.0488 -5.48014e-07 0)
(-13.0365 -5.44126e-07 0)
(-13.0242 -5.34877e-07 0)
(-13.0121 -5.2229e-07 0)
(-13.0001 -5.12862e-07 0)
(-12.9881 -5.08055e-07 0)
(-12.9762 -5.03674e-07 0)
(-12.9641 -4.98242e-07 0)
(-12.9521 -4.88847e-07 0)
(-12.9403 -4.89306e-07 0)
(-12.928 -4.86093e-07 0)
(-12.9161 -4.71334e-07 0)
(-12.9043 -4.64825e-07 0)
(-12.8924 -4.67378e-07 0)
(-12.8803 -4.69212e-07 0)
(-12.868 -4.56606e-07 0)
(-12.8563 -4.45132e-07 0)
(-12.8444 -4.37756e-07 0)
(-12.8328 -4.25458e-07 0)
(-12.8213 -4.17624e-07 0)
(-12.8099 -4.15206e-07 0)
(-12.7983 -4.10004e-07 0)
(-12.7869 -4.04969e-07 0)
(-12.7754 -3.99141e-07 0)
(-12.7641 -3.89095e-07 0)
(-12.7528 -3.83806e-07 0)
(-12.7416 -3.80541e-07 0)
(-12.7303 -3.72675e-07 0)
(-12.7193 -3.6852e-07 0)
(-12.708 -3.65475e-07 0)
(-12.697 -3.59456e-07 0)
(-12.6858 -3.58546e-07 0)
(-12.6745 -3.53243e-07 0)
(-12.6623 -3.43469e-07 0)
(-12.649 -3.37767e-07 0)
(-12.6359 -3.31633e-07 0)
(-12.6231 -3.26058e-07 0)
(-12.6104 -3.21755e-07 0)
(-12.598 -3.15473e-07 0)
(-12.5858 -3.11829e-07 0)
(-12.5736 -3.07715e-07 0)
(-12.5618 -3.0004e-07 0)
(-12.5502 -2.98769e-07 0)
(-12.5385 -2.98842e-07 0)
(-12.5269 -2.95005e-07 0)
(-12.5154 -2.89006e-07 0)
(-12.5043 -2.83669e-07 0)
(-12.4933 -2.74785e-07 0)
(-12.4829 -2.68721e-07 0)
(-12.4723 -2.67195e-07 0)
(-12.4621 -2.63057e-07 0)
(-12.4518 -2.62346e-07 0)
(-12.4416 -2.56479e-07 0)
(-12.4318 -2.47962e-07 0)
(-12.4222 -2.47868e-07 0)
(-12.4124 -2.52322e-07 0)
(-12.4025 -2.47711e-07 0)
(-12.3931 -2.422e-07 0)
(-12.3836 -2.31624e-07 0)
(-12.375 -2.24401e-07 0)
(-12.3661 -2.27002e-07 0)
(-12.3573 -2.21379e-07 0)
(-12.3488 -2.19089e-07 0)
(-12.3402 -2.22462e-07 0)
(-12.3315 -2.19717e-07 0)
(-12.3231 -2.0926e-07 0)
(-12.3152 -2.03081e-07 0)
(-12.3073 -1.9839e-07 0)
(-12.2997 -1.98187e-07 0)
(-12.2918 -2.00201e-07 0)
(-12.2841 -2.01051e-07 0)
(-12.2761 -2.02349e-07 0)
(-12.2683 -1.99155e-07 0)
(-12.2605 -1.98806e-07 0)
(-12.2528 -1.95062e-07 0)
(-12.2453 -1.90461e-07 0)
(-12.2379 -1.89389e-07 0)
(-12.2305 -1.84055e-07 0)
(-12.2235 -1.83369e-07 0)
(-12.2162 -1.84751e-07 0)
(-12.2091 -1.82559e-07 0)
(-12.2019 -1.81054e-07 0)
(-12.1949 -1.77488e-07 0)
(-12.1881 -1.71974e-07 0)
(-12.1815 -1.64646e-07 0)
(-12.1753 -1.66923e-07 0)
(-12.1685 -1.63968e-07 0)
(-12.1625 -1.61953e-07 0)
(-12.1559 -1.64036e-07 0)
(-12.1497 -1.64196e-07 0)
(-12.1431 -1.65383e-07 0)
(-12.1367 -1.64376e-07 0)
(-12.1302 -1.61203e-07 0)
(-12.1242 -1.55386e-07 0)
(-12.1181 -1.53634e-07 0)
(-12.1122 -1.52459e-07 0)
(-12.1062 -1.502e-07 0)
(-12.1005 -1.48163e-07 0)
(-12.0946 -1.48805e-07 0)
(-12.0888 -1.49971e-07 0)
(-12.0829 -1.40719e-07 0)
(-12.0779 -1.35067e-07 0)
(-12.0724 -1.39749e-07 0)
(-12.0669 -1.35612e-07 0)
(-12.0618 -1.33681e-07 0)
(-12.0565 -1.34585e-07 0)
(-12.0513 -1.32851e-07 0)
(-12.0462 -1.35181e-07 0)
(-12.0408 -1.32296e-07 0)
(-12.0358 -1.31694e-07 0)
(-12.0305 -1.32183e-07 0)
(-12.0255 -1.3141e-07 0)
(-12.0202 -1.34144e-07 0)
(-12.015 -1.27558e-07 0)
(-12.0103 -1.21929e-07 0)
(-12.0055 -1.1982e-07 0)
(-12.0009 -1.18841e-07 0)
(-11.9962 -1.24521e-07 0)
(-11.9912 -1.27772e-07 0)
(-11.9863 -1.29789e-07 0)
(-11.981 -1.30893e-07 0)
(-11.976 -1.33486e-07 0)
(-11.9706 -1.38417e-07 0)
(-11.9652 -1.21838e-07 0)
(-11.9611 -1.46052e-07 0)
(-11.9538 -1.02418e-07 0)
(-11.9532 -1.32576e-07 0)
(-11.9433 -1.30383e-07 0)
)
;
    }
    symmetry
    {
        type            symmetryPlane;
    }
    frontAndBack
    {
        type            empty;
    }
}


// ************************************************************************* //
