/*--------------------------------*- C++ -*----------------------------------*\
| =========                 |                                                 |
| \\      /  F ield         | OpenFOAM: The Open Source CFD Toolbox           |
|  \\    /   O peration     | Version:  v2012                                 |
|   \\  /    A nd           | Website:  www.openfoam.com                      |
|    \\/     M anipulation  |                                                 |
\*---------------------------------------------------------------------------*/
FoamFile
{
    version     2.0;
    format      ascii;
    class       volScalarField;
    location    "18";
    object      epsilon;
}
// * * * * * * * * * * * * * * * * * * * * * * * * * * * * * * * * * * * * * //

dimensions      [0 2 -3 0 0 0 0];


internalField   nonuniform List<scalar> 
209825
(
0.758485
0.683726
0.649276
0.63078
0.619459
0.611944
0.606623
0.602727
0.599741
0.597432
0.595564
0.59407
0.592811
0.591775
0.590886
0.590147
0.589491
0.588941
0.588439
0.58802
0.587626
0.587295
0.586987
0.586732
0.58648
0.586275
0.586076
0.585919
0.585749
0.585616
0.585495
0.5854
0.585291
0.585212
0.585135
0.585078
0.584993
0.584946
0.584897
0.584868
0.584841
0.584814
0.584756
0.584749
0.584744
0.584734
0.584705
0.584732
0.584732
0.584756
0.584756
0.584875
0.584875
0.584875
0.584943
0.584943
0.585055
0.585197
0.585333
0.585444
0.585444
0.585444
0.58554
0.58573
0.585928
0.585964
0.586053
0.586269
0.586471
0.586607
0.586856
0.58704
0.587225
0.587449
0.587677
0.587934
0.588243
0.588547
0.588859
0.589267
0.589588
0.590072
0.590465
0.591061
0.591543
0.592318
0.592908
0.593978
0.59467
0.596212
0.597117
0.600032
0.60064
0.611464
2.7429
513.218
0.758484
0.683715
0.649257
0.630755
0.61943
0.611912
0.606589
0.602692
0.599704
0.597394
0.595525
0.594031
0.592771
0.591735
0.590845
0.590106
0.58945
0.5889
0.588398
0.587978
0.587583
0.587253
0.586944
0.58669
0.586438
0.586232
0.586033
0.585876
0.585706
0.585573
0.585452
0.585357
0.585248
0.585169
0.585092
0.585035
0.584949
0.584902
0.584853
0.584825
0.584798
0.584771
0.584712
0.584705
0.584701
0.584691
0.584661
0.584689
0.584689
0.584712
0.584712
0.584831
0.584831
0.584831
0.584899
0.584899
0.585011
0.585153
0.585289
0.5854
0.5854
0.5854
0.585496
0.585686
0.585885
0.58592
0.58601
0.586225
0.586427
0.586563
0.586812
0.586997
0.587182
0.587406
0.587633
0.58789
0.5882
0.588504
0.588816
0.589224
0.589545
0.590029
0.590422
0.591018
0.5915
0.592276
0.592865
0.593936
0.594628
0.596169
0.597075
0.59999
0.600597
0.611439
2.74717
509.868
0.758475
0.683659
0.649166
0.630642
0.619301
0.611773
0.606443
0.602539
0.599547
0.597233
0.595362
0.593865
0.592603
0.591565
0.590674
0.589934
0.589276
0.588726
0.588223
0.587802
0.587407
0.587076
0.586767
0.586512
0.586259
0.586053
0.585854
0.585697
0.585526
0.585394
0.585272
0.585177
0.585068
0.584988
0.584911
0.584854
0.584768
0.584721
0.584672
0.584643
0.584616
0.584589
0.58453
0.584524
0.584519
0.584509
0.584479
0.584507
0.584507
0.58453
0.58453
0.584649
0.584649
0.584649
0.584717
0.584717
0.584829
0.584971
0.585107
0.585218
0.585218
0.585218
0.585314
0.585504
0.585703
0.585739
0.585828
0.586043
0.586246
0.586382
0.586631
0.586816
0.587001
0.587225
0.587452
0.587709
0.588019
0.588323
0.588635
0.589043
0.589364
0.589848
0.590242
0.590838
0.59132
0.592096
0.592685
0.593756
0.594448
0.595989
0.596894
0.599809
0.600413
0.611289
2.75645
506.012
0.758459
0.683564
0.649013
0.63045
0.619084
0.611538
0.606195
0.602282
0.599282
0.596962
0.595086
0.593585
0.59232
0.591279
0.590386
0.589643
0.588984
0.588432
0.587927
0.587506
0.587109
0.586778
0.586467
0.586211
0.585958
0.585752
0.585552
0.585394
0.585223
0.58509
0.584968
0.584872
0.584763
0.584683
0.584605
0.584548
0.584462
0.584415
0.584366
0.584337
0.58431
0.584283
0.584224
0.584217
0.584212
0.584202
0.584172
0.584199
0.584199
0.584223
0.584223
0.584342
0.584342
0.584342
0.58441
0.58441
0.584521
0.584664
0.584799
0.584911
0.584911
0.584911
0.585007
0.585197
0.585396
0.585432
0.585522
0.585737
0.585939
0.586075
0.586324
0.58651
0.586695
0.586919
0.587146
0.587404
0.587713
0.588018
0.58833
0.588738
0.58906
0.589544
0.589937
0.590533
0.591015
0.591791
0.59238
0.593451
0.594143
0.595684
0.596588
0.599503
0.600101
0.611029
2.77106
502.409
0.758437
0.68343
0.648795
0.630179
0.618778
0.611206
0.605845
0.601918
0.598907
0.596579
0.594696
0.593189
0.591919
0.590874
0.589978
0.589233
0.588571
0.588016
0.58751
0.587087
0.586689
0.586356
0.586044
0.585787
0.585533
0.585326
0.585125
0.584967
0.584795
0.584661
0.584538
0.584442
0.584333
0.584252
0.584174
0.584117
0.58403
0.583983
0.583934
0.583904
0.583877
0.583849
0.583791
0.583783
0.583778
0.583768
0.583738
0.583765
0.583765
0.583788
0.583788
0.583907
0.583907
0.583907
0.583975
0.583975
0.584087
0.584229
0.584365
0.584477
0.584477
0.584477
0.584573
0.584763
0.584962
0.584999
0.585088
0.585303
0.585506
0.585642
0.585891
0.586077
0.586262
0.586487
0.586714
0.586972
0.587281
0.587586
0.587898
0.588307
0.588628
0.589113
0.589506
0.590103
0.590585
0.591361
0.59195
0.593021
0.593712
0.595252
0.596156
0.59907
0.599661
0.610659
2.79139
499.399
0.758409
0.683255
0.648514
0.629828
0.61838
0.610776
0.605391
0.601446
0.598421
0.596082
0.59419
0.592676
0.5914
0.59035
0.589449
0.5887
0.588035
0.587478
0.586969
0.586543
0.586144
0.585809
0.585496
0.585237
0.584982
0.584774
0.584572
0.584412
0.58424
0.584105
0.583981
0.583885
0.583774
0.583693
0.583615
0.583557
0.58347
0.583423
0.583373
0.583343
0.583315
0.583288
0.583229
0.583221
0.583216
0.583206
0.583175
0.583202
0.583202
0.583225
0.583225
0.583344
0.583344
0.583344
0.583412
0.583412
0.583523
0.583666
0.583801
0.583914
0.583915
0.583914
0.584011
0.5842
0.584399
0.584438
0.584527
0.584741
0.584944
0.585081
0.58533
0.585516
0.585701
0.585926
0.586154
0.586412
0.586721
0.587026
0.587338
0.587747
0.588069
0.588554
0.588948
0.589545
0.590026
0.590803
0.591391
0.592462
0.593153
0.594692
0.595594
0.598508
0.599089
0.610177
2.8178
497.139
0.758374
0.683041
0.648167
0.629396
0.61789
0.610246
0.604831
0.600864
0.597823
0.59547
0.593566
0.592043
0.59076
0.589704
0.588798
0.588044
0.587375
0.586814
0.586302
0.585874
0.585472
0.585135
0.58482
0.584559
0.584303
0.584093
0.58389
0.583729
0.583555
0.58342
0.583295
0.583198
0.583087
0.583005
0.582926
0.582867
0.58278
0.582732
0.582681
0.582651
0.582623
0.582596
0.582536
0.582529
0.582523
0.582513
0.582482
0.582508
0.582508
0.582531
0.582531
0.582649
0.582649
0.582649
0.582717
0.582717
0.582828
0.582971
0.583106
0.58322
0.583221
0.583221
0.583317
0.583505
0.583705
0.583745
0.583834
0.584048
0.584251
0.584388
0.584637
0.584824
0.58501
0.585235
0.585463
0.585721
0.58603
0.586336
0.586648
0.587057
0.58738
0.587865
0.588258
0.588856
0.589337
0.590115
0.590702
0.591774
0.592464
0.594001
0.594902
0.597815
0.598385
0.609584
2.85069
495.678
0.758333
0.682787
0.647755
0.628881
0.617308
0.609615
0.604165
0.600172
0.59711
0.59474
0.592824
0.59129
0.589998
0.588934
0.588021
0.587262
0.586588
0.586023
0.585507
0.585076
0.584671
0.584331
0.584014
0.583752
0.583493
0.583281
0.583077
0.582915
0.58274
0.582603
0.582477
0.582379
0.582267
0.582184
0.582104
0.582045
0.581958
0.581909
0.581858
0.581827
0.581798
0.581771
0.581711
0.581703
0.581698
0.581687
0.581655
0.581681
0.581681
0.581704
0.581703
0.581821
0.581821
0.581821
0.58189
0.58189
0.582001
0.582143
0.582278
0.582393
0.582394
0.582394
0.58249
0.582678
0.582878
0.58292
0.583009
0.583222
0.583426
0.583563
0.583812
0.584
0.584186
0.584411
0.584639
0.584897
0.585206
0.585513
0.585825
0.586235
0.586558
0.587044
0.587437
0.588035
0.588516
0.589294
0.58988
0.590952
0.591642
0.593177
0.594077
0.596988
0.597545
0.608877
2.89042
494.996
0.758286
0.682493
0.647278
0.628285
0.616631
0.608882
0.603392
0.599367
0.596281
0.593892
0.591961
0.590414
0.589111
0.588039
0.587119
0.586353
0.585673
0.585103
0.584583
0.584148
0.58374
0.583397
0.583077
0.582812
0.582551
0.582338
0.582131
0.581967
0.581791
0.581653
0.581526
0.581426
0.581313
0.58123
0.581149
0.581089
0.581001
0.580951
0.5809
0.580869
0.580839
0.580811
0.580752
0.580743
0.580737
0.580726
0.580693
0.580719
0.580719
0.580741
0.580741
0.580858
0.580858
0.580858
0.580927
0.580927
0.581038
0.58118
0.581315
0.581431
0.581432
0.581432
0.581528
0.581716
0.581916
0.58196
0.582048
0.582261
0.582465
0.582603
0.582852
0.58304
0.583227
0.583452
0.583681
0.58394
0.584248
0.584556
0.584868
0.585279
0.585601
0.586088
0.586481
0.58708
0.587561
0.588339
0.588924
0.589997
0.590685
0.592219
0.593116
0.596026
0.596567
0.608055
2.93734
495.022
0.758234
0.682159
0.646735
0.627605
0.615859
0.608046
0.602508
0.598448
0.595334
0.592924
0.590975
0.589414
0.588099
0.587016
0.586088
0.585315
0.584628
0.584053
0.583528
0.583088
0.582676
0.58233
0.582007
0.581739
0.581476
0.58126
0.581051
0.580886
0.580708
0.580568
0.580439
0.580338
0.580224
0.58014
0.580057
0.579997
0.579908
0.579857
0.579805
0.579773
0.579743
0.579715
0.579655
0.579646
0.57964
0.579628
0.579595
0.579621
0.579621
0.579642
0.579641
0.579758
0.579758
0.579758
0.579827
0.579827
0.579937
0.58008
0.580214
0.580331
0.580333
0.580333
0.580429
0.580616
0.580817
0.580863
0.580951
0.581163
0.581368
0.581507
0.581755
0.581944
0.582131
0.582357
0.582586
0.582845
0.583154
0.583463
0.583774
0.584186
0.584508
0.584996
0.585389
0.585989
0.586469
0.587248
0.587832
0.588905
0.589592
0.591123
0.592018
0.594926
0.59545
0.607118
2.99178
495.645
0.758176
0.681785
0.646125
0.626841
0.614991
0.607106
0.601515
0.597414
0.594269
0.591834
0.589865
0.588288
0.586959
0.585865
0.584927
0.584145
0.583452
0.58287
0.582339
0.581895
0.581478
0.581128
0.580801
0.580531
0.580265
0.580046
0.579835
0.579667
0.579487
0.579346
0.579215
0.579113
0.578997
0.578912
0.578828
0.578767
0.578677
0.578625
0.578572
0.57854
0.578509
0.578481
0.57842
0.578411
0.578404
0.578392
0.578358
0.578383
0.578383
0.578404
0.578402
0.578519
0.578519
0.578519
0.578588
0.578588
0.578698
0.578841
0.578975
0.579093
0.579095
0.579095
0.579191
0.579378
0.57958
0.579628
0.579715
0.579926
0.580132
0.580271
0.580519
0.58071
0.580897
0.581123
0.581353
0.581612
0.58192
0.582231
0.582541
0.582954
0.583277
0.583765
0.584159
0.58476
0.585239
0.586019
0.586601
0.587674
0.588361
0.589889
0.590781
0.593687
0.594192
0.606063
3.05404
496.737
0.758112
0.681372
0.645449
0.625992
0.614027
0.60606
0.60041
0.596264
0.593084
0.590622
0.58863
0.587034
0.585691
0.584584
0.583634
0.582843
0.582142
0.581553
0.581016
0.580566
0.580145
0.57979
0.579459
0.579185
0.578916
0.578695
0.578481
0.57831
0.578128
0.577985
0.577852
0.577748
0.577631
0.577544
0.577459
0.577397
0.577306
0.577254
0.577199
0.577166
0.577134
0.577106
0.577045
0.577035
0.577027
0.577015
0.57698
0.577005
0.577005
0.577025
0.577023
0.57714
0.57714
0.57714
0.577208
0.577208
0.577318
0.577461
0.577594
0.577714
0.577717
0.577716
0.577813
0.577998
0.578201
0.578251
0.578339
0.578549
0.578755
0.578895
0.579142
0.579334
0.579522
0.579749
0.579979
0.580238
0.580546
0.580858
0.581169
0.581582
0.581906
0.582395
0.582788
0.58339
0.583868
0.584649
0.58523
0.586303
0.586988
0.588514
0.589403
0.592307
0.59279
0.60489
3.12438
498.149
0.758044
0.680919
0.644707
0.625059
0.612966
0.604909
0.599192
0.594997
0.591778
0.589285
0.587268
0.585652
0.584292
0.583171
0.582209
0.581408
0.580697
0.5801
0.579557
0.579101
0.578674
0.578314
0.577979
0.577701
0.577428
0.577203
0.576986
0.576814
0.576629
0.576483
0.576349
0.576243
0.576124
0.576036
0.575949
0.575885
0.575793
0.57574
0.575685
0.575651
0.575618
0.575589
0.575528
0.575517
0.575509
0.575496
0.57546
0.575484
0.575484
0.575504
0.575501
0.575617
0.575617
0.575617
0.575685
0.575685
0.575795
0.575938
0.576071
0.576192
0.576195
0.576195
0.576292
0.576476
0.576679
0.576733
0.57682
0.577029
0.577236
0.577377
0.577623
0.577817
0.578005
0.578233
0.578462
0.578723
0.57903
0.579343
0.579654
0.580068
0.580392
0.580882
0.581275
0.581878
0.582356
0.583137
0.583716
0.584789
0.585474
0.586996
0.587882
0.590783
0.591242
0.603597
3.20299
499.727
0.757971
0.680428
0.643898
0.624041
0.611807
0.60365
0.597861
0.593611
0.590349
0.587822
0.585779
0.58414
0.582761
0.581624
0.580649
0.579837
0.579116
0.57851
0.577959
0.577496
0.577063
0.576699
0.576359
0.576076
0.575799
0.575571
0.575351
0.575175
0.574988
0.57484
0.574703
0.574595
0.574475
0.574384
0.574296
0.574231
0.574138
0.574083
0.574027
0.573991
0.573958
0.573928
0.573867
0.573855
0.573846
0.573833
0.573796
0.573819
0.573819
0.573838
0.573835
0.57395
0.57395
0.57395
0.574019
0.574019
0.574128
0.574271
0.574403
0.574526
0.57453
0.57453
0.574626
0.57481
0.575013
0.57507
0.575157
0.575364
0.575572
0.575714
0.57596
0.576155
0.576344
0.576572
0.576802
0.577063
0.57737
0.577685
0.577994
0.57841
0.578734
0.579225
0.579618
0.580222
0.580699
0.581482
0.582059
0.583132
0.583814
0.585333
0.586215
0.589114
0.589547
0.602182
3.28998
501.319
0.757894
0.679898
0.643023
0.622937
0.610549
0.602285
0.596415
0.592105
0.588797
0.586233
0.58416
0.582497
0.581097
0.579944
0.578954
0.578128
0.577397
0.576782
0.576222
0.575752
0.575313
0.574942
0.574597
0.57431
0.574028
0.573797
0.573573
0.573394
0.573204
0.573053
0.572913
0.572803
0.572681
0.572588
0.572498
0.572432
0.572337
0.572281
0.572223
0.572187
0.572152
0.572122
0.57206
0.572047
0.572038
0.572024
0.571986
0.572009
0.572008
0.572027
0.572023
0.572137
0.572138
0.572138
0.572206
0.572206
0.572315
0.572458
0.572589
0.572713
0.572718
0.572718
0.572815
0.572997
0.573201
0.573261
0.573348
0.573554
0.573763
0.573905
0.574151
0.574347
0.574537
0.574766
0.574996
0.575257
0.575564
0.57588
0.576189
0.576607
0.576931
0.577423
0.577815
0.57842
0.578896
0.57968
0.580255
0.581328
0.582009
0.583523
0.584402
0.587298
0.587703
0.600643
3.38539
502.776
0.757814
0.67933
0.642082
0.621749
0.609193
0.600811
0.594855
0.590479
0.587121
0.584517
0.58241
0.580721
0.579299
0.578127
0.577121
0.576282
0.575539
0.574914
0.574345
0.573867
0.57342
0.573044
0.572692
0.5724
0.572114
0.571878
0.57165
0.571468
0.571275
0.571121
0.570978
0.570866
0.570741
0.570646
0.570555
0.570486
0.57039
0.570333
0.570274
0.570236
0.5702
0.570169
0.570107
0.570093
0.570083
0.570069
0.570029
0.570051
0.570051
0.570068
0.570064
0.570177
0.570177
0.570177
0.570245
0.570245
0.570354
0.570497
0.570627
0.570753
0.570759
0.570759
0.570855
0.571037
0.571242
0.571304
0.571392
0.571596
0.571806
0.571949
0.572194
0.572392
0.572582
0.572812
0.573043
0.573304
0.573611
0.573928
0.574237
0.574655
0.57498
0.575473
0.575865
0.576471
0.576946
0.577731
0.578303
0.579376
0.580056
0.581566
0.58244
0.585333
0.585708
0.598978
3.48914
503.961
0.757729
0.678725
0.641075
0.620475
0.607738
0.599228
0.593179
0.588733
0.585319
0.582671
0.58053
0.578812
0.577366
0.576174
0.57515
0.574297
0.57354
0.572904
0.572325
0.571839
0.571384
0.571001
0.570643
0.570346
0.570054
0.569814
0.569582
0.569396
0.569199
0.569042
0.568896
0.568781
0.568654
0.568557
0.568463
0.568393
0.568296
0.568237
0.568176
0.568137
0.5681
0.568068
0.568005
0.56799
0.567979
0.567964
0.567923
0.567944
0.567944
0.567961
0.567956
0.568068
0.568068
0.568068
0.568136
0.568136
0.568245
0.568387
0.568516
0.568644
0.568651
0.568651
0.568747
0.568928
0.569133
0.569199
0.569286
0.56949
0.5697
0.569844
0.570088
0.570288
0.570479
0.570709
0.57094
0.571203
0.571508
0.571827
0.572136
0.572555
0.57288
0.573374
0.573766
0.574373
0.574847
0.575632
0.576203
0.577275
0.577953
0.579458
0.580328
0.583217
0.583561
0.597186
3.60103
504.749
0.757642
0.678083
0.640004
0.619116
0.606185
0.597537
0.591387
0.586864
0.583391
0.580697
0.578517
0.576768
0.575297
0.574082
0.57304
0.572171
0.5714
0.570752
0.570163
0.569667
0.569204
0.568813
0.568449
0.568145
0.567849
0.567603
0.567366
0.567176
0.566976
0.566816
0.566666
0.566549
0.566419
0.56632
0.566223
0.566152
0.566052
0.565992
0.565929
0.565889
0.56585
0.565818
0.565754
0.565738
0.565726
0.56571
0.565668
0.565688
0.565688
0.565703
0.565697
0.565809
0.565809
0.565809
0.565876
0.565876
0.565984
0.566127
0.566255
0.566385
0.566393
0.566392
0.566489
0.566668
0.566874
0.566943
0.567031
0.567232
0.567443
0.567589
0.567832
0.568033
0.568225
0.568456
0.568687
0.56895
0.569255
0.569576
0.569884
0.570305
0.57063
0.571125
0.571516
0.572125
0.572597
0.573383
0.573951
0.575023
0.575698
0.577199
0.578064
0.580949
0.581259
0.595263
3.72069
505.028
0.757552
0.677406
0.638867
0.617672
0.604532
0.595737
0.589478
0.584874
0.581337
0.578592
0.576372
0.574589
0.57309
0.571852
0.57079
0.569904
0.569118
0.568457
0.567856
0.56735
0.566879
0.56648
0.566108
0.565798
0.565495
0.565245
0.565003
0.564809
0.564604
0.56444
0.564287
0.564167
0.564034
0.563932
0.563833
0.56376
0.563659
0.563596
0.563531
0.56349
0.563449
0.563417
0.563352
0.563335
0.563321
0.563305
0.563261
0.56328
0.56328
0.563294
0.563288
0.563398
0.563398
0.563398
0.563465
0.563465
0.563573
0.563715
0.563842
0.563973
0.563982
0.563982
0.564079
0.564257
0.564463
0.564536
0.564623
0.564824
0.565035
0.565182
0.565424
0.565627
0.56582
0.566051
0.566283
0.566547
0.56685
0.567173
0.56748
0.567902
0.568227
0.568724
0.569114
0.569724
0.570195
0.570982
0.571547
0.572619
0.573292
0.574787
0.575646
0.578527
0.578803
0.593208
3.8476
504.706
0.75746
0.676694
0.637667
0.616144
0.602781
0.593827
0.587453
0.582761
0.579156
0.576357
0.574093
0.572274
0.570745
0.569483
0.568399
0.567494
0.566693
0.566018
0.565405
0.564888
0.564407
0.564
0.56362
0.563303
0.562994
0.562738
0.562491
0.562292
0.562083
0.561915
0.561758
0.561634
0.561499
0.561394
0.561292
0.561217
0.561114
0.561049
0.560983
0.560939
0.560897
0.560863
0.560798
0.560779
0.560765
0.560748
0.560703
0.56072
0.56072
0.560733
0.560725
0.560834
0.560834
0.560834
0.560901
0.560901
0.561008
0.56115
0.561276
0.561409
0.561419
0.561419
0.561516
0.561692
0.561899
0.561976
0.562063
0.562262
0.562474
0.562622
0.562863
0.563068
0.563261
0.563493
0.563725
0.56399
0.564292
0.564617
0.564923
0.565347
0.565672
0.566169
0.56656
0.567171
0.567639
0.568428
0.56899
0.57006
0.570731
0.57222
0.573073
0.575949
0.576189
0.591016
3.98102
503.704
0.757366
0.675948
0.636404
0.614532
0.600931
0.591809
0.585311
0.580525
0.576847
0.57399
0.57168
0.569823
0.568262
0.566973
0.565866
0.564942
0.564123
0.563434
0.562807
0.562279
0.561788
0.561371
0.560983
0.560659
0.560343
0.560081
0.559828
0.559624
0.559411
0.559239
0.559078
0.558951
0.558812
0.558705
0.5586
0.558521
0.558416
0.558349
0.558281
0.558236
0.558192
0.558157
0.558091
0.558071
0.558055
0.558038
0.557991
0.558007
0.558007
0.558019
0.558009
0.558116
0.558117
0.558117
0.558183
0.558183
0.55829
0.558431
0.558556
0.558691
0.558703
0.558702
0.558799
0.558974
0.55918
0.559261
0.559349
0.559546
0.559758
0.559908
0.560148
0.560355
0.560548
0.560781
0.561013
0.561279
0.56158
0.561907
0.562212
0.562637
0.562962
0.563461
0.56385
0.564462
0.564929
0.565718
0.566277
0.567346
0.568014
0.569498
0.570345
0.573215
0.573418
0.588686
4.12001
501.951
0.757271
0.675169
0.63508
0.612837
0.598983
0.589682
0.583052
0.578166
0.574411
0.571493
0.569133
0.567235
0.56564
0.564322
0.563191
0.562246
0.561409
0.560704
0.560064
0.559523
0.559021
0.558595
0.558198
0.557866
0.557543
0.557274
0.557015
0.556806
0.556588
0.556411
0.556246
0.556115
0.555972
0.555862
0.555754
0.555673
0.555566
0.555497
0.555426
0.555379
0.555333
0.555297
0.55523
0.555208
0.555191
0.555173
0.555125
0.55514
0.55514
0.55515
0.555139
0.555245
0.555245
0.555245
0.555311
0.555311
0.555416
0.555558
0.555681
0.555817
0.555831
0.555831
0.555927
0.556101
0.556307
0.556392
0.556481
0.556675
0.556888
0.557039
0.557277
0.557486
0.557681
0.557914
0.558147
0.558413
0.558713
0.559042
0.559346
0.559772
0.560097
0.560597
0.560985
0.561599
0.562063
0.562853
0.563408
0.564476
0.565142
0.566619
0.567458
0.570322
0.570487
0.586212
4.26338
499.404
0.757176
0.674359
0.633694
0.611059
0.596938
0.587447
0.580677
0.575685
0.571847
0.568864
0.56645
0.564509
0.562879
0.56153
0.560373
0.559406
0.55855
0.557828
0.557173
0.55662
0.556105
0.555669
0.555263
0.554922
0.554592
0.554316
0.554051
0.553836
0.553613
0.553431
0.553261
0.553126
0.55298
0.552867
0.552755
0.552672
0.552562
0.55249
0.552417
0.552368
0.55232
0.552283
0.552215
0.552191
0.552173
0.552154
0.552104
0.552118
0.552118
0.552126
0.552114
0.552217
0.552217
0.552217
0.552283
0.552283
0.552388
0.552529
0.55265
0.552788
0.552803
0.552803
0.5529
0.553071
0.553278
0.553367
0.553456
0.553649
0.553862
0.554014
0.554251
0.554462
0.554657
0.554891
0.555124
0.55539
0.555689
0.55602
0.556323
0.55675
0.557075
0.557576
0.557963
0.558578
0.559041
0.559831
0.560383
0.561449
0.562111
0.563581
0.564414
0.56727
0.567397
0.583593
4.40966
496.023
0.75708
0.673518
0.632249
0.609201
0.594796
0.585103
0.578185
0.573081
0.569156
0.566103
0.563634
0.561647
0.559978
0.558597
0.557413
0.556422
0.555545
0.554806
0.554135
0.553568
0.553041
0.552594
0.552177
0.551828
0.55149
0.551207
0.550935
0.550714
0.550485
0.550299
0.550124
0.549984
0.549834
0.549717
0.549602
0.549516
0.549403
0.549329
0.549254
0.549202
0.549152
0.549114
0.549044
0.549019
0.548999
0.548979
0.548928
0.54894
0.54894
0.548946
0.548933
0.549034
0.549034
0.549034
0.549099
0.549099
0.549203
0.549344
0.549463
0.549603
0.54962
0.54962
0.549716
0.549886
0.550092
0.550185
0.550275
0.550466
0.550679
0.550833
0.551068
0.551281
0.551477
0.551711
0.551944
0.552211
0.552509
0.552842
0.553143
0.553572
0.553896
0.554398
0.554784
0.5554
0.55586
0.55665
0.557199
0.558263
0.558922
0.560385
0.56121
0.564057
0.564145
0.580822
4.55714
491.785
0.756985
0.672648
0.630745
0.607262
0.592558
0.582653
0.575578
0.570355
0.566337
0.563211
0.560682
0.558647
0.556937
0.555523
0.554309
0.553293
0.552395
0.551636
0.550949
0.550367
0.549828
0.549369
0.548942
0.548583
0.548236
0.547946
0.547666
0.547439
0.547205
0.547013
0.546833
0.546689
0.546535
0.546414
0.546295
0.546205
0.54609
0.546013
0.545935
0.545882
0.545829
0.545789
0.545718
0.545691
0.54567
0.545649
0.545596
0.545607
0.545606
0.545611
0.545595
0.545694
0.545695
0.545695
0.545758
0.545758
0.545862
0.546002
0.54612
0.546261
0.546279
0.546279
0.546375
0.546544
0.54675
0.546847
0.546937
0.547126
0.547339
0.547494
0.547728
0.547942
0.548139
0.548374
0.548607
0.548875
0.549171
0.549506
0.549806
0.550235
0.550559
0.551062
0.551447
0.552064
0.552521
0.553312
0.553856
0.554918
0.555573
0.557028
0.557845
0.560683
0.560732
0.577897
4.7038
486.672
0.756891
0.671751
0.629186
0.605245
0.590226
0.580096
0.572855
0.567507
0.563392
0.560188
0.557597
0.55551
0.553757
0.552307
0.551062
0.55002
0.549099
0.548321
0.547616
0.547019
0.546465
0.545994
0.545556
0.545187
0.544831
0.544533
0.544246
0.544012
0.543771
0.543574
0.543388
0.543239
0.543081
0.542956
0.542833
0.54274
0.542622
0.542542
0.542461
0.542405
0.54235
0.542309
0.542236
0.542208
0.542184
0.542163
0.542109
0.542117
0.542116
0.542119
0.542101
0.542198
0.542198
0.542198
0.542261
0.542261
0.542363
0.542503
0.542619
0.542761
0.542781
0.542781
0.542877
0.543044
0.543249
0.543351
0.543442
0.543628
0.543841
0.543998
0.54423
0.544446
0.544643
0.544879
0.545112
0.545381
0.545675
0.546011
0.54631
0.546741
0.547064
0.547568
0.547951
0.548569
0.549023
0.549814
0.550354
0.551413
0.552065
0.553511
0.55432
0.557146
0.557157
0.574813
4.84735
480.672
0.756798
0.670828
0.627571
0.603151
0.5878
0.577434
0.570019
0.564538
0.56032
0.557034
0.554377
0.552236
0.550438
0.54895
0.547673
0.546603
0.545658
0.544858
0.544135
0.543521
0.542953
0.54247
0.542019
0.541641
0.541275
0.540968
0.540673
0.540431
0.540185
0.539981
0.539789
0.539636
0.539472
0.539343
0.539216
0.53912
0.538999
0.538916
0.538832
0.538773
0.538715
0.538673
0.538599
0.538568
0.538542
0.53852
0.538465
0.538471
0.53847
0.538471
0.538451
0.538545
0.538545
0.538545
0.538606
0.538606
0.538708
0.538847
0.53896
0.539104
0.539126
0.539126
0.539222
0.539386
0.539591
0.539697
0.539789
0.539973
0.540186
0.540344
0.540575
0.540792
0.54099
0.541226
0.541459
0.541728
0.54202
0.542358
0.542656
0.543087
0.54341
0.543915
0.544296
0.544914
0.545366
0.546156
0.546692
0.547747
0.548396
0.549833
0.550633
0.553446
0.553419
0.571564
4.98521
473.779
0.756708
0.669881
0.625903
0.600981
0.585282
0.574668
0.567069
0.561449
0.557122
0.553751
0.551024
0.548826
0.546981
0.545453
0.544141
0.543042
0.542071
0.54125
0.540507
0.539876
0.539293
0.538796
0.538333
0.537943
0.537567
0.537251
0.536948
0.536699
0.536445
0.536235
0.536037
0.535878
0.53571
0.535577
0.535445
0.535345
0.535221
0.535135
0.535047
0.534986
0.534925
0.53488
0.534805
0.534772
0.534744
0.534721
0.534665
0.534669
0.534668
0.534666
0.534643
0.534735
0.534735
0.534735
0.534795
0.534795
0.534895
0.535034
0.535145
0.53529
0.535313
0.535313
0.535409
0.535572
0.535776
0.535885
0.535978
0.53616
0.536373
0.536532
0.536761
0.53698
0.537178
0.537415
0.537647
0.537917
0.538207
0.538547
0.538843
0.539275
0.539597
0.540102
0.540482
0.5411
0.541549
0.542338
0.54287
0.543921
0.544565
0.545994
0.546785
0.549583
0.549519
0.568144
5.11455
465.986
0.75662
0.668911
0.624184
0.598737
0.582674
0.571799
0.564008
0.558241
0.5538
0.550339
0.547538
0.54528
0.543385
0.541815
0.540467
0.539338
0.53834
0.537495
0.536731
0.536083
0.535484
0.534972
0.534496
0.534095
0.533708
0.533383
0.53307
0.532814
0.532553
0.532336
0.532132
0.531968
0.531794
0.531656
0.531519
0.531416
0.531288
0.531199
0.531108
0.531043
0.530979
0.530933
0.530856
0.530821
0.53079
0.530766
0.530709
0.530711
0.530709
0.530705
0.530679
0.530768
0.530768
0.530768
0.530826
0.530826
0.530926
0.531063
0.531172
0.531318
0.531343
0.531343
0.531439
0.531599
0.531802
0.531916
0.53201
0.53219
0.532401
0.532562
0.532789
0.533009
0.533208
0.533445
0.533677
0.533948
0.534236
0.534577
0.534871
0.535303
0.535625
0.53613
0.536508
0.537126
0.537572
0.53836
0.538887
0.539934
0.540574
0.541993
0.542774
0.545557
0.545455
0.564549
5.23233
457.289
0.756536
0.667921
0.622416
0.596422
0.579977
0.568829
0.560836
0.554916
0.550355
0.546798
0.543921
0.541599
0.539652
0.538038
0.536653
0.53549
0.534465
0.533596
0.53281
0.532143
0.531526
0.531
0.53051
0.530097
0.529699
0.529364
0.529042
0.528777
0.528508
0.528285
0.528074
0.527904
0.527724
0.527581
0.52744
0.527333
0.527201
0.527108
0.527013
0.526946
0.526878
0.52683
0.526751
0.526714
0.526681
0.526656
0.526597
0.526597
0.526594
0.526588
0.526559
0.526645
0.526645
0.526645
0.526701
0.526701
0.526799
0.526936
0.527042
0.527189
0.527216
0.527216
0.527312
0.52747
0.527671
0.527789
0.527884
0.528061
0.528272
0.528434
0.528659
0.528881
0.529079
0.529318
0.529549
0.52982
0.530106
0.530448
0.53074
0.531173
0.531493
0.531999
0.532375
0.532993
0.533435
0.534222
0.534745
0.535786
0.536422
0.53783
0.538601
0.541368
0.541229
0.560773
5.33534
447.682
0.756455
0.666911
0.620602
0.594037
0.577194
0.56576
0.557555
0.551474
0.546788
0.543131
0.540173
0.537785
0.535783
0.534123
0.532698
0.531502
0.530446
0.529552
0.528744
0.528056
0.527422
0.52688
0.526376
0.52595
0.52554
0.525195
0.524863
0.524589
0.524313
0.524082
0.523864
0.523687
0.523502
0.523354
0.523207
0.523096
0.52296
0.522863
0.522765
0.522694
0.522623
0.522573
0.522492
0.522452
0.522417
0.52239
0.522331
0.522328
0.522324
0.522316
0.522284
0.522366
0.522366
0.522366
0.52242
0.52242
0.522517
0.522653
0.522755
0.522903
0.522933
0.522932
0.523028
0.523183
0.523384
0.523505
0.523601
0.523776
0.523986
0.52415
0.524372
0.524595
0.524794
0.525032
0.525263
0.525535
0.525817
0.526161
0.526451
0.526884
0.527203
0.527709
0.528082
0.528701
0.529138
0.529924
0.530442
0.531478
0.532108
0.533505
0.534266
0.537015
0.53684
0.556809
5.42025
437.158
0.756379
0.665885
0.618743
0.591585
0.574326
0.562594
0.554167
0.547918
0.5431
0.539339
0.536296
0.533839
0.531779
0.53007
0.528604
0.527372
0.526286
0.525364
0.524533
0.523825
0.523172
0.522613
0.522094
0.521654
0.521233
0.520876
0.520534
0.520251
0.519966
0.519728
0.519502
0.519319
0.519128
0.518975
0.518822
0.518706
0.518566
0.518466
0.518363
0.518289
0.518215
0.518162
0.518079
0.518036
0.517998
0.51797
0.51791
0.517905
0.517899
0.517889
0.517854
0.517932
0.517932
0.517932
0.517984
0.517984
0.518079
0.518214
0.518313
0.518461
0.518493
0.518493
0.518588
0.518741
0.51894
0.519064
0.519162
0.519335
0.519544
0.519708
0.519928
0.520152
0.520351
0.52059
0.52082
0.521092
0.521372
0.521717
0.522005
0.522438
0.522755
0.523261
0.523631
0.524249
0.524683
0.525467
0.525979
0.527009
0.527634
0.52902
0.52977
0.532499
0.53229
0.552651
5.48373
425.712
0.756308
0.664845
0.616842
0.589069
0.571377
0.559333
0.550674
0.544248
0.539293
0.535423
0.532292
0.529762
0.527642
0.525882
0.524372
0.523103
0.521984
0.521035
0.520179
0.519449
0.518776
0.518201
0.517665
0.517212
0.516778
0.516409
0.516056
0.515764
0.51547
0.515224
0.51499
0.514801
0.514603
0.514444
0.514286
0.514165
0.514021
0.513916
0.513809
0.513732
0.513653
0.513598
0.513512
0.513467
0.513426
0.513397
0.513336
0.513328
0.51332
0.513309
0.51327
0.513344
0.513344
0.513344
0.513393
0.513393
0.513487
0.513621
0.513716
0.513865
0.513899
0.513898
0.513993
0.514144
0.514341
0.514468
0.514567
0.514738
0.514945
0.515111
0.515329
0.515553
0.515752
0.515991
0.51622
0.516492
0.516769
0.517115
0.517401
0.517834
0.518149
0.518655
0.519022
0.519639
0.520068
0.52085
0.521357
0.52238
0.523
0.524374
0.525112
0.527821
0.527578
0.548293
5.5225
413.338
0.756243
0.663791
0.614903
0.586491
0.568348
0.555979
0.547079
0.540469
0.53537
0.531385
0.528162
0.525556
0.523373
0.52156
0.520004
0.518697
0.517544
0.516565
0.515683
0.51493
0.514237
0.513644
0.513092
0.512624
0.512176
0.511796
0.511432
0.511129
0.510826
0.510572
0.51033
0.510133
0.509929
0.509764
0.5096
0.509474
0.509325
0.509216
0.509105
0.509023
0.508941
0.508883
0.508795
0.508747
0.508703
0.508672
0.508609
0.508599
0.508589
0.508576
0.508533
0.508603
0.508604
0.508603
0.508649
0.508649
0.508742
0.508874
0.508966
0.509114
0.50915
0.50915
0.509244
0.509392
0.509587
0.509718
0.509818
0.509986
0.510192
0.510359
0.510574
0.510799
0.510998
0.511237
0.511464
0.511737
0.512011
0.512358
0.512641
0.513073
0.513386
0.513892
0.514256
0.514872
0.515297
0.516075
0.516577
0.517592
0.518206
0.519567
0.520295
0.522981
0.522707
0.543729
5.53359
400.034
0.756184
0.662728
0.612928
0.583854
0.565243
0.552535
0.543383
0.536581
0.531332
0.527228
0.523908
0.521223
0.518974
0.517105
0.515502
0.514154
0.512966
0.511957