/*--------------------------------*- C++ -*----------------------------------*\
| =========                 |                                                 |
| \\      /  F ield         | OpenFOAM: The Open Source CFD Toolbox           |
|  \\    /   O peration     | Version:  v2012                                 |
|   \\  /    A nd           | Website:  www.openfoam.com                      |
|    \\/     M anipulation  |                                                 |
\*---------------------------------------------------------------------------*/
FoamFile
{
    version     2.0;
    format      ascii;
    class       volScalarField;
    location    "51.5";
    object      epsilon;
}
// * * * * * * * * * * * * * * * * * * * * * * * * * * * * * * * * * * * * * //

dimensions      [0 2 -3 0 0 0 0];


internalField   nonuniform List<scalar> 
209825
(
0.75955
0.633748
0.543234
0.479235
0.433645
0.400498
0.375727
0.356771
0.341889
0.330006
0.320307
0.312313
0.305587
0.29991
0.295016
0.290811
0.287114
0.283896
0.281018
0.27849
0.276194
0.274164
0.272296
0.270637
0.269092
0.267719
0.266423
0.265271
0.264172
0.2632
0.262258
0.261428
0.260616
0.259906
0.259201
0.258588
0.257974
0.257445
0.256905
0.256446
0.25597
0.255569
0.25515
0.254804
0.254434
0.254127
0.253801
0.253537
0.253247
0.253008
0.252761
0.25255
0.25233
0.252139
0.251944
0.251797
0.251613
0.251477
0.25133
0.251196
0.251078
0.250969
0.250872
0.250777
0.250698
0.25062
0.250544
0.250506
0.250446
0.250415
0.250359
0.250336
0.250293
0.250282
0.250256
0.250264
0.250259
0.250286
0.250286
0.250335
0.250335
0.250397
0.250412
0.250487
0.250517
0.250608
0.250652
0.250768
0.250825
0.250978
0.25104
0.251268
0.251355
0.25433
2.95073
564.412
0.75955
0.633748
0.543233
0.479233
0.43364
0.400492
0.375719
0.356762
0.341879
0.329995
0.320296
0.3123
0.305574
0.299897
0.295002
0.290797
0.287099
0.283882
0.281003
0.278474
0.276178
0.274149
0.27228
0.270622
0.269076
0.267703
0.266407
0.265255
0.264156
0.263183
0.262242
0.261412
0.2606
0.259889
0.259184
0.258571
0.257957
0.257428
0.256888
0.256429
0.255953
0.255552
0.255133
0.254787
0.254417
0.25411
0.253784
0.253519
0.25323
0.252991
0.252744
0.252532
0.252312
0.252122
0.251927
0.251779
0.251595
0.251459
0.251312
0.251178
0.251061
0.250952
0.250854
0.250759
0.25068
0.250602
0.250527
0.250488
0.250428
0.250398
0.250341
0.250318
0.250276
0.250265
0.250239
0.250246
0.250241
0.250268
0.250268
0.250317
0.250317
0.250379
0.250394
0.250469
0.250499
0.25059
0.250634
0.25075
0.250807
0.25096
0.251022
0.25125
0.251336
0.254317
2.95564
561.098
0.759551
0.633749
0.543228
0.47922
0.433619
0.400464
0.375685
0.356723
0.341835
0.329948
0.320246
0.312248
0.30552
0.29984
0.294944
0.290738
0.287039
0.28382
0.28094
0.278411
0.276114
0.274084
0.272215
0.270556
0.26901
0.267636
0.26634
0.265187
0.264088
0.263115
0.262173
0.261343
0.260531
0.25982
0.259115
0.258501
0.257887
0.257358
0.256818
0.256358
0.255882
0.255481
0.255062
0.254715
0.254345
0.254039
0.253712
0.253447
0.253158
0.252919
0.252672
0.25246
0.25224
0.252049
0.251854
0.251706
0.251522
0.251386
0.251239
0.251105
0.250987
0.250879
0.25078
0.250686
0.250607
0.250529
0.250453
0.250414
0.250354
0.250324
0.250267
0.250244
0.250201
0.25019
0.250164
0.250172
0.250167
0.250193
0.250193
0.250242
0.250242
0.250304
0.250319
0.250393
0.250423
0.250514
0.250559
0.250674
0.250731
0.250884
0.250946
0.251173
0.25126
0.25425
2.96536
557.079
0.759553
0.63375
0.543221
0.479199
0.433584
0.400416
0.375627
0.356656
0.341761
0.329868
0.320161
0.312159
0.305427
0.299745
0.294846
0.290638
0.286937
0.283716
0.280835
0.278305
0.276006
0.273975
0.272105
0.270445
0.268898
0.267523
0.266226
0.265073
0.263974
0.263
0.262058
0.261227
0.260414
0.259703
0.258997
0.258383
0.257768
0.257239
0.256699
0.256239
0.255763
0.255361
0.254942
0.254595
0.254224
0.253918
0.253591
0.253326
0.253036
0.252797
0.25255
0.252338
0.252117
0.251927
0.251731
0.251583
0.251399
0.251263
0.251116
0.250982
0.250864
0.250755
0.250657
0.250562
0.250483
0.250404
0.250328
0.250289
0.250229
0.250199
0.250142
0.250119
0.250076
0.250065
0.250039
0.250046
0.250041
0.250067
0.250067
0.250115
0.250115
0.250177
0.250192
0.250266
0.250296
0.250387
0.250431
0.250546
0.250603
0.250756
0.250817
0.251045
0.251131
0.254135
2.98044
553.149
0.759555
0.633752
0.543209
0.479169
0.433534
0.400349
0.375544
0.356562
0.341657
0.329756
0.320042
0.312034
0.305297
0.299611
0.294708
0.290497
0.286793
0.28357
0.280686
0.278154
0.275854
0.273821
0.271949
0.270288
0.26874
0.267364
0.266066
0.264912
0.263812
0.262837
0.261894
0.261062
0.260249
0.259537
0.258831
0.258216
0.257601
0.257071
0.25653
0.25607
0.255594
0.255191
0.254772
0.254424
0.254054
0.253747
0.25342
0.253154
0.252864
0.252625
0.252377
0.252165
0.251944
0.251753
0.251558
0.25141
0.251225
0.251089
0.250942
0.250807
0.250689
0.25058
0.250481
0.250386
0.250307
0.250229
0.250152
0.250113
0.250053
0.250022
0.249965
0.249942
0.249899
0.249888
0.249861
0.249868
0.249863
0.249888
0.249888
0.249936
0.249936
0.249998
0.250012
0.250086
0.250116
0.250207
0.25025
0.250366
0.250422
0.250574
0.250636
0.250862
0.250949
0.253972
3.00132
549.653
0.759559
0.633754
0.543195
0.47913
0.43347
0.400262
0.375438
0.35644
0.341522
0.32961
0.319887
0.311871
0.305128
0.299436
0.294529
0.290313
0.286606
0.283379
0.280493
0.277958
0.275656
0.273621
0.271747
0.270084
0.268535
0.267157
0.265858
0.264703
0.263601
0.262626
0.261682
0.260849
0.260035
0.259322
0.258615
0.258
0.257384
0.256853
0.256312
0.255851
0.255374
0.254972
0.254552
0.254204
0.253833
0.253525
0.253198
0.252932
0.252641
0.252401
0.252154
0.251941
0.25172
0.251529
0.251333
0.251184
0.251
0.250863
0.250716
0.250581
0.250462
0.250353
0.250254
0.250159
0.250079
0.250001
0.249924
0.249885
0.249824
0.249793
0.249736
0.249713
0.24967
0.249658
0.249631
0.249638
0.249632
0.249657
0.249657
0.249704
0.249704
0.249766
0.24978
0.249853
0.249882
0.249973
0.250016
0.250131
0.250187
0.250339
0.2504
0.250626
0.250713
0.253761
3.02847
546.756
0.759563
0.633757
0.543178
0.479082
0.433391
0.400155
0.375307
0.356289
0.341355
0.32943
0.319696
0.311671
0.30492
0.299221
0.294308
0.290087
0.286375
0.283145
0.280255
0.277717
0.275412
0.273375
0.271499
0.269834
0.268282
0.266903
0.265602
0.264446
0.263342
0.262365
0.26142
0.260587
0.259771
0.259058
0.25835
0.257734
0.257117
0.256585
0.256043
0.255582
0.255104
0.254701
0.25428
0.253931
0.25356
0.253252
0.252924
0.252658
0.252367
0.252126
0.251878
0.251665
0.251444
0.251252
0.251056
0.250907
0.250722
0.250585
0.250437
0.250302
0.250183
0.250073
0.249974
0.249879
0.249799
0.24972
0.249643
0.249603
0.249542
0.249511
0.249454
0.24943
0.249387
0.249375
0.249348
0.249354
0.249347
0.249372
0.249372
0.249418
0.249418
0.249479
0.249493
0.249566
0.249595
0.249685
0.249728
0.249842
0.249897
0.250049
0.25011
0.250335
0.250421
0.253501
3.06237
544.521
0.759568
0.633761
0.543157
0.479025
0.433296
0.400027
0.375151
0.35611
0.341157
0.329216
0.319468
0.311432
0.304672
0.298965
0.294045
0.289818
0.286101
0.282866
0.279972
0.27743
0.275122
0.273081
0.271202
0.269535
0.267981
0.2666
0.265297
0.264139
0.263034
0.262055
0.261109
0.260274
0.259457
0.258742
0.258033
0.257416
0.256798
0.256266
0.255723
0.25526
0.254782
0.254378
0.253957
0.253607
0.253235
0.252926
0.252598
0.252331
0.252039
0.251798
0.25155
0.251336
0.251114
0.250922
0.250725
0.250576
0.250391
0.250253
0.250105
0.24997
0.24985
0.24974
0.249641
0.249545
0.249464
0.249386
0.249308
0.249268
0.249207
0.249175
0.249117
0.249094
0.24905
0.249038
0.24901
0.249016
0.249008
0.249032
0.249032
0.249077
0.249077
0.249138
0.249151
0.249224
0.249252
0.249341
0.249384
0.249498
0.249553
0.249703
0.249764
0.249989
0.250075
0.253192
3.10349
542.937
0.759573
0.633765
0.543133
0.478959
0.433187
0.399879
0.374971
0.355902
0.340927
0.328967
0.319204
0.311155
0.304384
0.298667
0.293739
0.289505
0.285782
0.282541
0.279642
0.277096
0.274784
0.27274
0.270858
0.269187
0.267631
0.266247
0.264942
0.263782
0.262675
0.261695
0.260747
0.25991
0.259092
0.258376
0.257665
0.257047
0.256428
0.255894
0.25535
0.254887
0.254407
0.254003
0.25358
0.25323
0.252857
0.252548
0.252218
0.251951
0.251659
0.251417
0.251168
0.250954
0.250731
0.250539
0.250341
0.250191
0.250006
0.249867
0.249719
0.249583
0.249463
0.249353
0.249253
0.249157
0.249076
0.248997
0.248918
0.248878
0.248816
0.248784
0.248726
0.248702
0.248658
0.248646
0.248617
0.248622
0.248614
0.248637
0.248637
0.248681
0.248681
0.248741
0.248753
0.248826
0.248853
0.248942
0.248985
0.249097
0.249152
0.249302
0.249361
0.249586
0.249671
0.252834
3.15228
541.945
0.759579
0.63377
0.543106
0.478884
0.433063
0.39971
0.374764
0.355665
0.340664
0.328683
0.318903
0.310839
0.304055
0.298328
0.29339
0.289148
0.285417
0.282171
0.279266
0.276715
0.274398
0.27235
0.270464
0.268791
0.267231
0.265845
0.264537
0.263374
0.262265
0.261283
0.260333
0.259494
0.258674
0.257957
0.257245
0.256625
0.256005
0.25547
0.254925
0.25446
0.25398
0.253574
0.253151
0.2528
0.252426
0.252115
0.251785
0.251517
0.251224
0.250982
0.250731
0.250517
0.250294
0.250101
0.249902
0.249752
0.249566
0.249427
0.249278
0.249142
0.249021
0.24891
0.24881
0.248713
0.248631
0.248552
0.248473
0.248432
0.24837
0.248338
0.248279
0.248255
0.24821
0.248198
0.248168
0.248173
0.248164
0.248186
0.248185
0.248229
0.248229
0.248288
0.248299
0.248371
0.248398
0.248486
0.248528
0.24864
0.248694
0.248843
0.248902
0.249125
0.249211
0.252425
3.20919
541.451
0.759586
0.633775
0.543076
0.4788
0.432923
0.399521
0.374533
0.355399
0.340369
0.328364
0.318563
0.310483
0.303684
0.297945
0.292997
0.288746
0.285007
0.281753
0.278843
0.276286
0.273964
0.271911
0.270021
0.268344
0.266781
0.265391
0.264081
0.262915
0.261804
0.260819
0.259867
0.259027
0.258205
0.257485
0.256772
0.25615
0.255529
0.254992
0.254446
0.25398
0.253498
0.253091
0.252667
0.252315
0.25194
0.251629
0.251297
0.251028
0.250734
0.250491
0.25024
0.250025
0.249801
0.249608
0.249408
0.249257
0.249071
0.248931
0.248781
0.248645
0.248523
0.248412
0.248311
0.248214
0.248131
0.248052
0.247972
0.247931
0.247868
0.247835
0.247776
0.247751
0.247706
0.247693
0.247663
0.247667
0.247657
0.247679
0.247677
0.247719
0.247719
0.247777
0.247788
0.247859
0.247886
0.247973
0.248014
0.248125
0.248178
0.248326
0.248384
0.248607
0.248692
0.251966
3.27463
541.335
0.759594
0.633781
0.543043
0.478707
0.432768
0.39931
0.374276
0.355102
0.34004
0.328009
0.318186
0.310087
0.303273
0.29752
0.29256
0.288298
0.284551
0.281289
0.278371
0.275808
0.273481
0.271423
0.269528
0.267847
0.26628
0.264887
0.263573
0.262404
0.26129
0.260303
0.259348
0.258506
0.257682
0.25696
0.256245
0.255622
0.254998
0.25446
0.253912
0.253445
0.252962
0.252554
0.252128
0.251775
0.251399
0.251087
0.250754
0.250484
0.250189
0.249945
0.249693
0.249477
0.249253
0.249058
0.248858
0.248707
0.248519
0.248379
0.248229
0.248091
0.247969
0.247857
0.247755
0.247658
0.247574
0.247495
0.247414
0.247372
0.247308
0.247276
0.247216
0.247191
0.247145
0.247131
0.247101
0.247103
0.247093
0.247113
0.247111
0.247152
0.247152
0.247209
0.247219
0.247289
0.247315
0.247401
0.247442
0.247552
0.247604
0.247751
0.247808
0.24803
0.248115
0.251456
3.34897
541.462
0.759603
0.633788
0.543006
0.478605
0.432599
0.399079
0.373993
0.354776
0.339679
0.327618
0.31777
0.30965
0.302819
0.29705
0.292078
0.287805
0.284047
0.280777
0.277851
0.275281
0.272947
0.270884
0.268985
0.267298
0.265727
0.26433
0.263013
0.261841
0.260724
0.259734
0.258776
0.257931
0.257105
0.256381
0.255664
0.255039
0.254413
0.253874
0.253324
0.252855
0.252371
0.251961
0.251534
0.251179
0.250802
0.250489
0.250155
0.249884
0.249588
0.249343
0.24909
0.248873
0.248648
0.248453
0.248251
0.248099
0.247911
0.24777
0.247619
0.247481
0.247358
0.247245
0.247142
0.247045
0.24696
0.24688
0.246799
0.246756
0.246692
0.246658
0.246598
0.246572
0.246526
0.246512
0.246481
0.246482
0.246471
0.24649
0.246487
0.246526
0.246526
0.246582
0.246591
0.246661
0.246686
0.246771
0.246811
0.246919
0.246971
0.247117
0.247173
0.247393
0.247478
0.250895
3.43252
541.693
0.759612
0.633795
0.542967
0.478495
0.432414
0.398827
0.373684
0.35442
0.339284
0.32719
0.317316
0.309173
0.302322
0.296537
0.29155
0.287265
0.283497
0.280216
0.277283
0.274705
0.272364
0.270295
0.26839
0.266698
0.265122
0.263721
0.2624
0.261224
0.260104
0.25911
0.25815
0.257302
0.256473
0.255747
0.255028
0.2544
0.253773
0.253232
0.25268
0.25221
0.251723
0.251312
0.250884
0.250528
0.250149
0.249834
0.249499
0.249227
0.24893
0.248684
0.24843
0.248212
0.247985
0.24779
0.247587
0.247434
0.247245
0.247103
0.246951
0.246813
0.246689
0.246576
0.246472
0.246373
0.246288
0.246208
0.246125
0.246082
0.246016
0.245982
0.245921
0.245895
0.245849
0.245834
0.245802
0.245802
0.24579
0.245807
0.245804
0.245841
0.245841
0.245896
0.245905
0.245973
0.245997
0.246081
0.24612
0.246227
0.246278
0.246422
0.246478
0.246697
0.246781
0.250282
3.52552
541.888
0.759622
0.633804
0.542925
0.478376
0.432214
0.398555
0.373349
0.354034
0.338855
0.326726
0.316823
0.308655
0.301783
0.29598
0.290977
0.286678
0.282898
0.279608
0.276664
0.274078
0.27173
0.269654
0.267743
0.266046
0.264465
0.263059
0.261733
0.260554
0.25943
0.258433
0.257469
0.256619
0.255787
0.255058
0.254336
0.253707
0.253077
0.252534
0.25198
0.251508
0.25102
0.250607
0.250177
0.249819
0.249439
0.249123
0.248787
0.248513
0.248215
0.247968
0.247712
0.247493
0.247265
0.247069
0.246865
0.246711
0.246522
0.246379
0.246226
0.246087
0.245961
0.245848
0.245743
0.245644
0.245557
0.245476
0.245393
0.245349
0.245282
0.245248
0.245186
0.245159
0.245112
0.245096
0.245064
0.245063
0.245049
0.245065
0.245062
0.245097
0.245096
0.24515
0.245158
0.245225
0.245248
0.245331
0.245369
0.245475
0.245525
0.245668
0.245722
0.24594
0.246024
0.249617
3.6281
541.911
0.759632
0.633813
0.542881
0.478248
0.431999
0.398261
0.372989
0.353618
0.338393
0.326226
0.31629
0.308095
0.3012
0.295378
0.290358
0.286045
0.282252
0.27895
0.275996
0.273401
0.271045
0.268962
0.267044
0.265341
0.263754
0.262343
0.261013
0.25983
0.258701
0.257701
0.256734
0.25588
0.255045
0.254314
0.253589
0.252957
0.252325
0.251779
0.251223
0.250749
0.250259
0.249844
0.249412
0.249053
0.248671
0.248354
0.248016
0.247741
0.247442
0.247193
0.246936
0.246717
0.246487
0.24629
0.246085
0.24593
0.245739
0.245595
0.245441
0.245302
0.245175
0.245061
0.244954
0.244855
0.244767
0.244686
0.244601
0.244556
0.244489
0.244454
0.244391
0.244364
0.244316
0.2443
0.244267
0.244264
0.244249
0.244263
0.244259
0.244292
0.244292
0.244344
0.24435
0.244417
0.244438
0.24452
0.244557
0.244662
0.244711
0.244852
0.244905
0.245121
0.245206
0.248899
3.7403
541.636
0.759643
0.633823
0.542833
0.478111
0.431769
0.397946
0.372602
0.353171
0.337896
0.325688
0.315718
0.307494
0.300574
0.294731
0.289693
0.285364
0.281557
0.278242
0.275278
0.272673
0.270309
0.268217
0.266292
0.264583
0.26299
0.261574
0.260239
0.25905
0.257918
0.256913
0.255943
0.255085
0.254247
0.253513
0.252785
0.25215
0.251516
0.250968
0.25041
0.249933
0.249441
0.249024
0.24859
0.24823
0.247846
0.247527
0.247187
0.246911
0.24661
0.24636
0.246102
0.245881
0.24565
0.245452
0.245246
0.245089
0.244898
0.244753
0.244598
0.244457
0.244329
0.244214
0.244107
0.244007
0.243918
0.243836
0.24375
0.243704
0.243636
0.2436
0.243536
0.243508
0.243459
0.243442
0.243409
0.243405
0.243388
0.243401
0.243396
0.243427
0.243426
0.243476
0.243482
0.243547
0.243568
0.243648
0.243684
0.243787
0.243835
0.243974
0.244026
0.244241
0.244326
0.248128
3.862
540.948
0.759655
0.633834
0.542783
0.477967
0.431525
0.397611
0.37219
0.352694
0.337366
0.325113
0.315106
0.306851
0.299905
0.294039
0.288981
0.284635
0.280813
0.277485
0.27451
0.271894
0.26952
0.26742
0.265488
0.263771
0.262172
0.26075
0.259409
0.258216
0.257079
0.25607
0.255096
0.254235
0.253393
0.252655
0.251924
0.251287
0.250649
0.250099
0.249538
0.249059
0.248565
0.248146
0.24771
0.247348
0.246962
0.246641
0.2463
0.246022
0.245719
0.245468
0.245208
0.244986
0.244754
0.244555
0.244347
0.244189
0.243997
0.24385
0.243694
0.243553
0.243424
0.243308
0.243199
0.243098
0.243008
0.242925
0.242838
0.242791
0.242722
0.242685
0.242621
0.242592
0.242542
0.242525
0.24249
0.242485
0.242466
0.242478
0.242471
0.2425
0.242499
0.242548
0.242553
0.242616
0.242636
0.242715
0.242749
0.242851
0.242898
0.243035
0.243086
0.243299
0.243384
0.247302
3.99292
539.747
0.759668
0.633845
0.542731
0.477814
0.431266
0.397255
0.371751
0.352187
0.336802
0.324501
0.314455
0.306166
0.299192
0.293301
0.288223
0.283858
0.28002
0.276678
0.27369
0.271063
0.268679
0.26657
0.26463
0.262906
0.2613
0.259872
0.258525
0.257327
0.256184
0.255171
0.254192
0.253327
0.252482
0.251741
0.251006
0.250366
0.249725
0.249172
0.248609
0.248128
0.247631
0.24721
0.246772
0.246407
0.246019
0.245697
0.245354
0.245074
0.24477
0.244517
0.244255
0.244032
0.243798
0.243598
0.243388
0.243229
0.243036
0.242888
0.242731
0.242589
0.242458
0.242341
0.242231
0.242129
0.242037
0.241954
0.241866
0.241817
0.241747
0.241709
0.241644
0.241614
0.241564
0.241545
0.24151
0.241503
0.241483
0.241493
0.241486
0.241512
0.241511
0.241557
0.241561
0.241623
0.241641
0.241719
0.241752
0.241852
0.241898
0.242033
0.242082
0.242294
0.242379
0.246423
4.13258
537.949
0.759681
0.633858
0.542677
0.477653
0.430992
0.396879
0.371287
0.351649
0.336204
0.323852
0.313763
0.305439
0.298434
0.292518
0.287417
0.283033
0.279178
0.275821
0.272819
0.270181
0.267786
0.265667
0.263718
0.261986
0.260373
0.258938
0.257585
0.256381
0.255234
0.254216
0.253232
0.252363
0.251514
0.250769
0.250031
0.249387
0.248743
0.248187
0.247621
0.247137
0.246638
0.246215
0.245774
0.245407
0.245017
0.244693
0.244348
0.244066
0.24376
0.243506
0.243242
0.243017
0.242782
0.24258
0.242369
0.242209
0.242014
0.241865
0.241707
0.241563
0.241431
0.241313
0.241202
0.241099
0.241006
0.240922
0.240832
0.240783
0.240711
0.240673
0.240606
0.240576
0.240524
0.240505
0.240468
0.24046
0.240438
0.240447
0.240438
0.240463
0.24046
0.240505
0.240508
0.240568
0.240585
0.240661
0.240693
0.240791
0.240835
0.240968
0.241016
0.241225
0.241311
0.245488
4.28031
535.485
0.759694
0.633872
0.54262
0.477484
0.430704
0.396482
0.370798
0.351082
0.335571
0.323166
0.313032
0.30467
0.297633
0.291689
0.286564
0.282159
0.278286
0.274913
0.271897
0.269246
0.26684
0.264711
0.262752
0.261012
0.259391
0.257949
0.25659
0.25538
0.254227
0.253204
0.252215
0.251341
0.250488
0.249739
0.248997
0.24835
0.247703
0.247144
0.246575
0.246088
0.245586
0.24516
0.244717
0.244348
0.243956
0.243629
0.243282
0.242998
0.242691
0.242435
0.242169
0.241943
0.241706
0.241503
0.24129
0.241128
0.240932
0.240782
0.240622
0.240477
0.240343
0.240225
0.240111
0.240008
0.239913
0.239829
0.239737
0.239687
0.239613
0.239574
0.239507
0.239475
0.239423
0.239402
0.239365
0.239355
0.239332
0.239338
0.239328
0.23935
0.239347
0.239389
0.239391
0.23945
0.239465
0.23954
0.23957
0.239666
0.239709
0.23984
0.239886
0.240094
0.24018
0.244497
4.43515
532.301
0.759708
0.633887
0.542561
0.477308
0.430403
0.396066
0.370283
0.350484
0.334905
0.322443
0.312261
0.303859
0.296788
0.290814
0.285664
0.281237
0.277345
0.273955
0.270924
0.268259
0.265841
0.263701
0.261733
0.259983
0.258354
0.256905
0.255539
0.254322
0.253163
0.252134
0.251141
0.250263
0.249404
0.248651
0.247906
0.247255
0.246604
0.246042
0.245469
0.24498
0.244475
0.244047
0.243601
0.243229
0.242834
0.242506
0.242156
0.241871
0.241561
0.241303
0.241035
0.240807
0.240568
0.240364
0.240149
0.239986
0.239789
0.239637
0.239476
0.23933
0.239194
0.239074
0.23896
0.238855
0.238759
0.238674
0.23858
0.238529
0.238454
0.238414
0.238345
0.238313
0.238259
0.238238
0.238199
0.238188
0.238163
0.238167
0.238156
0.238176
0.238172
0.238211
0.238212
0.238269
0.238283
0.238355
0.238384
0.238478
0.23852
0.238648
0.238693
0.238899
0.238986
0.243449
4.5959
528.355
0.759723
0.633902
0.542501
0.477125
0.430088
0.39563
0.369742
0.349857
0.334206
0.321683
0.311451
0.303005
0.295898
0.289893
0.284717
0.280266
0.276354
0.272946
0.269899
0.26722
0.264789
0.262638
0.260659
0.2589
0.257262
0.255805
0.254431
0.253208
0.252043
0.251008
0.250009
0.249126
0.248263
0.247506
0.246756
0.246101
0.245447
0.244881
0.244305
0.243812
0.243304
0.242873
0.242424
0.24205
0.241653
0.241322
0.24097
0.240683
0.240371
0.240111
0.239841
0.239612
0.239371
0.239165
0.238948
0.238783
0.238584
0.238431
0.238268
0.238122
0.237984
0.237863
0.237746
0.237641
0.237542
0.237457
0.237362
0.237309
0.237232
0.237191
0.237121
0.237088
0.237033
0.237011
0.23697
0.236959
0.236931
0.236934
0.236921
0.236938
0.236933
0.23697
0.23697
0.237025
0.237037
0.237108
0.237135
0.237227
0.237267
0.237393
0.237436
0.23764
0.237727
0.242343
4.76107
523.62
0.759738
0.633919
0.542438
0.476934
0.429759
0.395174
0.369177
0.3492
0.333472
0.320886
0.310601
0.30211
0.294965
0.288927
0.283722
0.279247
0.275313
0.271886
0.268822
0.266128
0.263684
0.26152
0.25953
0.257761
0.256115
0.254649
0.253268
0.252038
0.250866
0.249825
0.24882
0.247932
0.247064
0.246302
0.245548
0.244889
0.24423
0.24366
0.243081
0.242585
0.242074
0.24164
0.241188
0.240811
0.240412
0.240078
0.239724
0.239434
0.23912
0.238858
0.238586
0.238355
0.238112
0.237905
0.237685
0.237519
0.237318
0.237164
0.236999
0.236851
0.236712
0.236589
0.236471
0.236365
0.236264
0.236178
0.236081
0.236026
0.235949
0.235906
0.235835
0.2358
0.235744
0.235721
0.235679
0.235666
0.235637
0.235638
0.235623
0.235638
0.235632
0.235665
0.235665
0.235717
0.235728
0.235797
0.235822
0.235912
0.23595
0.236074
0.236115
0.236317
0.236405
0.241178
4.92883
518.077
0.759754
0.633937
0.542375
0.476737
0.429417
0.394699
0.368588
0.348514
0.332706
0.320052
0.309711
0.301173
0.293987
0.287915
0.282681
0.278179
0.274222
0.270775
0.267694
0.264984
0.262526
0.260349
0.258348
0.256568
0.254912
0.253437
0.252048
0.25081
0.249631
0.248585
0.247574
0.24668
0.245806
0.24504
0.244281
0.243617
0.242955
0.242381
0.241798
0.241299
0.240784
0.240347
0.239892
0.239512
0.23911
0.238774
0.238417
0.238125
0.237808
0.237544
0.23727
0.237037
0.236791
0.236583
0.236361
0.236193
0.235991
0.235835
0.235668
0.235519
0.235378
0.235254
0.235134
0.235026
0.234924
0.234837
0.234738
0.234682
0.234602
0.234559
0.234487
0.234451
0.234393
0.234369
0.234326
0.234311
0.234281
0.234279
0.234262
0.234275
0.234267
0.234297
0.234297
0.234346
0.234355
0.234422
0.234446
0.234533
0.23457
0.234691
0.23473
0.234929
0.235019
0.239953
5.09705
511.715
0.75977
0.633956
0.54231
0.476533
0.429063
0.394206
0.367974
0.347799
0.331906
0.319182
0.308782
0.300194
0.292966
0.286857
0.281592
0.277063
0.273082
0.269614
0.266514
0.263788
0.261314
0.259124
0.257111
0.25532
0.253654
0.25217
0.250772
0.249527
0.24834
0.247287
0.24627
0.24537
0.244491
0.243719
0.242955
0.242287
0.24162
0.241043
0.240456
0.239953
0.239435
0.238994
0.238536
0.238153
0.237748
0.23741
0.23705
0.236755
0.236436
0.23617
0.235893
0.235658
0.23541
0.2352
0.234976
0.234806
0.234602
0.234444
0.234276
0.234126
0.233982
0.233857
0.233735
0.233626
0.233522
0.233433
0.233333
0.233275
0.233194
0.233149
0.233075
0.233038
0.23298
0.232954
0.232909
0.232894
0.232861
0.232857
0.232838
0.232848
0.232839
0.232867
0.232865
0.232912
0.232919
0.232984
0.233005
0.23309
0.233125
0.233244
0.233281
0.233478
0.233569
0.238666
5.26326
504.53
0.759786
0.633976
0.542243
0.476323
0.428697
0.393694
0.367336
0.347055
0.331074
0.318276
0.307814
0.299173
0.291901
0.285754
0.280456
0.275899
0.271893
0.268403
0.265283
0.262539
0.26005
0.257846
0.25582
0.254017
0.252341
0.250847
0.24944
0.248186
0.246992
0.245932
0.244908
0.244002
0.243117
0.24234
0.241571
0.240899
0.240227
0.239645
0.239054
0.238547
0.238025
0.237582
0.23712
0.236734
0.236326
0.235985
0.235622
0.235324
0.235003
0.234734
0.234455
0.234218
0.233968
0.233756
0.233529
0.233358
0.233152
0.232992
0.232822
0.23267
0.232524
0.232398
0.232274
0.232164
0.232057
0.231968
0.231865
0.231806
0.231723
0.231677
0.231602
0.231563
0.231503
0.231476
0.23143
0.231413
0.231379
0.231373
0.231351
0.231359
0.231348
0.231373
0.23137
0.231414
0.23142
0.231482
0.231501
0.231584
0.231617
0.231733
0.231768
0.231963
0.232055
0.237317
5.42467
496.519
0.759803
0.633998
0.542176
0.476107
0.428319
0.393164
0.366676
0.346283
0.33021
0.317335
0.306808
0.298112
0.290793
0.284606
0.279274
0.274686
0.270654
0.267141
0.264001
0.261238
0.258733
0.256514
0.254474
0.25266
0.250972
0.249468
0.248052
0.24679
0.245588
0.24452
0.243489
0.242577
0.241686
0.240903
0.240129
0.239451
0.238775
0.238189
0.237593
0.237083
0.236557
0.23611
0.235645
0.235255
0.234844
0.2345
0.234134
0.233833
0.233509
0.233238
0.232956
0.232717
0.232464
0.232251
0.232022
0.231848
0.23164
0.231478
0.231306
0.231153
0.231005
0.230877
0.230751
0.23064
0.230531
0.23044
0.230335
0.230275
0.23019
0.230142
0.230066
0.230026
0.229964
0.229936
0.229888
0.22987
0.229834
0.229826
0.229802
0.229807
0.229795
0.229816
0.229812
0.229853
0.229857
0.229916
0.229934
0.230014
0.230045
0.230158
0.230191
0.230383
0.230477
0.235903
5.57818
487.679
0.75982
0.63402
0.542108
0.475886
0.427929
0.392617
0.365992
0.345484
0.329315
0.316358
0.305763
0.29701
0.289643
0.283414
0.278045
0.273426
0.269367
0.265829
0.262668
0.259886
0.257363
0.255129
0.253075
0.251248
0.249549
0.248034
0.246608
0.245337
0.244127
0.243051
0.242013
0.241094
0.240197
0.239408
0.238628
0.237946
0.237264
0.236673
0.236073
0.235559
0.235029
0.234578
0.234109
0.233717
0.233301
0.232954
0.232585
0.232282
0.231955
0.231682
0.231397
0.231155
0.2309
0.230685
0.230453
0.230277
0.230068
0.229903
0.229729
0.229575
0.229424
0.229295
0.229166
0.229054
0.228942
0.228851
0.228744
0.228682
0.228595
0.228546
0.228467
0.228426
0.228363
0.228333
0.228284
0.228264
0.228226
0.228216
0.22819
0.228193
0.228178
0.228196
0.228191
0.228228
0.228231
0.228288
0.228303
0.228381
0.22841
0.228519
0.228551
0.22874
0.228836
0.234422
5.72043
478.007
0.759838
0.634044
0.542039
0.47566
0.427529
0.392054
0.365286
0.344658
0.328388
0.315347
0.304681
0.295868
0.28845
0.282177
0.27677
0.272118
0.268031
0.264467
0.261284
0.258482
0.255941
0.253691
0.251623
0.249782
0.248071
0.246545
0.245109
0.243828
0.242609
0.241525
0.24048
0.239554
0.23865
0.237855
0.23707
0.236382
0.235695
0.2351
0.234495
0.233976
0.233442
0.232987
0.232514
0.232118
0.2317
0.231349
0.230977
0.230671
0.230341
0.230065
0.229777
0.229533
0.229275
0.229058
0.228823
0.228645
0.228434
0.228268
0.228091
0.227935
0.227782
0.227651
0.22752
0.227406
0.227292
0.2272
0.227091
0.227027
0.226938
0.226887
0.226807
0.226765
0.2267
0.226669
0.226617
0.226596
0.226556
0.226544
0.226516
0.226516
0.226499
0.226514
0.226507
0.226541
0.226542
0.226596
0.22661
0.226684
0.226711
0.226818
0.226847
0.227034
0.227131
0.232874
5.84783
467.497
0.759855
0.634069
0.54197
0.475429
0.427119
0.391474
0.364559
0.343805
0.32743
0.314301
0.303562
0.294686
0.287215
0.280896
0.27545
0.270764
0.266646
0.263057
0.25985
0.257027
0.254468
0.2522
0.250117
0.248263
0.246539
0.245001
0.243555
0.242264
0.241036
0.239944
0.238891
0.237957
0.237047
0.236245
0.235454
0.23476
0.234068
0.233467
0.232858
0.232335
0.231796
0.231338
0.230861
0.230461
0.230038
0.229685
0.229309
0.229
0.228667
0.228388
0.228097
0.227851
0.22759
0.227371
0.227134
0.226953
0.22674
0.226571
0.226392
0.226235
0.226079
0.225947
0.225813
0.225698
0.225581
0.225488
0.225376
0.22531
0.225219
0.225167
0.225085
0.225041
0.224975
0.224942
0.224889
0.224866
0.224824
0.22481
0.22478
0.224777
0.224758
0.22477
0.224761
0.224791
0.224791
0.224842
0.224853
0.224925
0.22495
0.225053
0.22508
0.225264
0.225363
0.231256
5.95663
456.143
0.759873
0.634095
0.541901
0.475194
0.426698
0.390879
0.363811
0.342927
0.326443
0.313222
0.302406
0.293465
0.285938
0.279572
0.274086
0.269363
0.265215
0.261597
0.258366
0.255521
0.252943
0.250657
0.248558
0.24669
0.244953
0.243403
0.241946
0.240645
0.239407
0.238306
0.237245
0.236304
0.235387
0.234579
0.233781
0.233081
0.232383
0.231778
0.231163
0.230635
0.230092
0.229629
0.229148
0.228745
0.228318
0.227962
0.227582
0.22727
0.226934
0.226652
0.226357
0.226109
0.225845
0.225624
0.225384
0.225201
0.224985
0.224814
0.224633
0.224474
0.224316
0.224181
0.224045
0.223929
0.223809
0.223715
0.223601
0.223533
0.223439
0.223386
0.223302
0.223257
0.223188
0.223154
0.223099
0.223074
0.22303
0.223015
0.222983
0.222977
0.222955
0.222964
0.222953
0.222979
0.222978
0.223025
0.223035
0.223103
0.223126
0.223226
0.22325
0.223432
0.223532
0.229567
6.04303
443.935
0.759891
0.634122
0.541832
0.474955
0.426269
0.390269
0.363043
0.342024
0.325427
0.312111
0.301215
0.292206
0.284621
0.278206
0.272676
0.267917
0.263736
0.260089
0.256833
0.253965
0.251367
0.249063
0.246948
0.245064
0.243313
0.241751
0.240282
0.238971
0.237724
0.236614
0.235544
0.234595
0.23367
0.232855
0.232051
0.231345
0.230642
0.230031
0.229411
0.228878
0.22833
0.227863
0.227378
0.22697
0.22654
0.22618
0.225797
0.225481
0.225141
0.224857
0.224559
0.224308
0.224041
0.223818
0.223574
0.223389
0.223171
0.222998
0.222814
0.222653
0.222492
0.222356
0.222217
0.222099
0.221977
0.221881
0.221765
0.221695
0.221599
0.221544
0.221458
0.221411
0.221341
0.221305
0.221248
0.221221
0.221175
0.221158
0.221124
0.221116
0.221092
0.221097
0.221084
0.221106
0.221103
0.221147
0.221154
0.22122
0.22124
0.221336
0.221359
0.221537
0.221639
0.227804
6.10323
430.861
0.759908
0.63415
0.541763
0.474713
0.425831
0.389645
0.362255
0.341097
0.324382
0.310967
0.299988
0.290909
0.283265
0.276797
0.271224
0.266426
0.262211
0.258534
0.255251
0.25236
0.249741
0.247418
0.245286
0.243386
0.241621
0.240046
0.238566
0.237243
0.235986
0.234866
0.233788
0.232831
0.231898
0.231076
0.230265
0.229553
0.228843
0.228227
0.227602
0.227064
0.226511
0.22604
0.22555
0.225138
0.224704
0.22434
0.223953
0.223634
0.223291
0.223003
0.222702
0.222448
0.222178
0.221952
0.221706
0.221518
0.221297
0.221122
0.220936
0.220773
0.220609
0.220472
0.22033
0.22021
0.220085
0.219988
0.219869
0.219797
0.219699
0.219642
0.219555
0.219506
0.219434
0.219396
0.219337
0.219309
0.21926
0.219241
0.219204
0.219194
0.219167
0.219169
0.219154
0.219172
0.219168
0.219208
0.219213
0.219275
0.219293
0.219386
0.219406
0.219581
0.219684
0.225966
6.13356
416.911
0.759926
0.63418
0.541695
0.474468
0.425386
0.389008
0.361449
0.340146
0.32331
0.309793
0.298727
0.289575
0.281869
0.275348
0.269728
0.26489
0.26064
0.256932
0.253622
0.250707
0.248065