/*--------------------------------*- C++ -*----------------------------------*\
| =========                 |                                                 |
| \\      /  F ield         | OpenFOAM: The Open Source CFD Toolbox           |
|  \\    /   O peration     | Version:  v2012                                 |
|   \\  /    A nd           | Website:  www.openfoam.com                      |
|    \\/     M anipulation  |                                                 |
\*---------------------------------------------------------------------------*/
FoamFile
{
    version     2.0;
    format      ascii;
    class       volScalarField;
    location    "51.5";
    object      nut;
}
// * * * * * * * * * * * * * * * * * * * * * * * * * * * * * * * * * * * * * //

dimensions      [0 2 -1 0 0 0 0];


internalField   nonuniform List<scalar> 
209825
(
1.24241e-07
1.23655e-07
1.21691e-07
1.17648e-07
1.12016e-07
1.0567e-07
9.92735e-08
9.32336e-08
8.77027e-08
8.27455e-08
7.83207e-08
7.44065e-08
7.09212e-08
6.78395e-08
6.50819e-08
6.26349e-08
6.04276e-08
5.84606e-08
5.66705e-08
5.50697e-08
5.35996e-08
5.2281e-08
5.10592e-08
4.99614e-08
4.89344e-08
4.80111e-08
4.71386e-08
4.63559e-08
4.5608e-08
4.49383e-08
4.42922e-08
4.37163e-08
4.31537e-08
4.26547e-08
4.21614e-08
4.17271e-08
4.12919e-08
4.09122e-08
4.05266e-08
4.01935e-08
3.985e-08
3.95567e-08
3.9249e-08
3.8989e-08
3.87124e-08
3.84825e-08
3.82328e-08
3.80281e-08
3.78019e-08
3.76207e-08
3.74138e-08
3.72526e-08
3.70645e-08
3.69212e-08
3.67496e-08
3.6619e-08
3.64636e-08
3.63481e-08
3.62033e-08
3.61024e-08
3.59684e-08
3.5876e-08
3.57532e-08
3.56697e-08
3.55568e-08
3.54804e-08
3.53787e-08
3.53055e-08
3.52116e-08
3.51452e-08
3.50599e-08
3.49997e-08
3.49222e-08
3.4868e-08
3.47933e-08
3.47391e-08
3.46642e-08
3.46098e-08
3.45369e-08
3.44819e-08
3.4412e-08
3.43579e-08
3.42896e-08
3.4237e-08
3.41705e-08
3.41191e-08
3.40542e-08
3.40045e-08
3.39401e-08
3.38922e-08
3.38284e-08
3.37758e-08
3.37065e-08
3.39936e-08
3.12917e-06
2.19416e-08
1.24241e-07
1.23654e-07
1.21691e-07
1.17649e-07
1.12017e-07
1.05672e-07
9.92757e-08
9.3236e-08
8.77052e-08
8.2748e-08
7.83231e-08
7.44088e-08
7.09234e-08
6.78416e-08
6.50839e-08
6.26367e-08
6.04294e-08
5.84622e-08
5.66721e-08
5.50711e-08
5.36009e-08
5.22822e-08
5.10604e-08
4.99625e-08
4.89354e-08
4.80121e-08
4.71395e-08
4.63567e-08
4.56088e-08
4.49391e-08
4.42929e-08
4.3717e-08
4.31543e-08
4.26552e-08
4.21619e-08
4.17276e-08
4.12924e-08
4.09126e-08
4.0527e-08
4.01939e-08
3.98503e-08
3.9557e-08
3.92493e-08
3.89893e-08
3.87127e-08
3.84828e-08
3.8233e-08
3.80283e-08
3.78021e-08
3.76209e-08
3.7414e-08
3.72527e-08
3.70646e-08
3.69213e-08
3.67497e-08
3.6619e-08
3.64637e-08
3.63481e-08
3.62033e-08
3.61024e-08
3.59684e-08
3.58761e-08
3.57532e-08
3.56697e-08
3.55568e-08
3.54803e-08
3.53787e-08
3.53054e-08
3.52116e-08
3.51451e-08
3.50598e-08
3.49997e-08
3.49221e-08
3.48679e-08
3.47932e-08
3.4739e-08
3.46641e-08
3.46097e-08
3.45368e-08
3.44818e-08
3.44119e-08
3.43578e-08
3.42894e-08
3.42369e-08
3.41703e-08
3.4119e-08
3.4054e-08
3.40044e-08
3.39399e-08
3.3892e-08
3.38283e-08
3.37757e-08
3.37063e-08
3.39937e-08
3.12993e-06
2.21125e-08
1.2424e-07
1.23654e-07
1.21693e-07
1.17653e-07
1.12023e-07
1.0568e-07
9.9285e-08
9.32458e-08
8.77152e-08
8.27579e-08
7.83327e-08
7.44179e-08
7.0932e-08
6.78497e-08
6.50915e-08
6.26439e-08
6.04361e-08
5.84685e-08
5.66779e-08
5.50766e-08
5.3606e-08
5.2287e-08
5.10648e-08
4.99667e-08
4.89393e-08
4.80157e-08
4.71429e-08
4.63599e-08
4.56118e-08
4.49419e-08
4.42955e-08
4.37194e-08
4.31566e-08
4.26573e-08
4.21639e-08
4.17294e-08
4.12941e-08
4.09142e-08
4.05285e-08
4.01953e-08
3.98516e-08
3.95582e-08
3.92504e-08
3.89903e-08
3.87136e-08
3.84836e-08
3.82338e-08
3.8029e-08
3.78028e-08
3.76215e-08
3.74145e-08
3.72532e-08
3.7065e-08
3.69216e-08
3.675e-08
3.66193e-08
3.64639e-08
3.63483e-08
3.62035e-08
3.61025e-08
3.59685e-08
3.58761e-08
3.57532e-08
3.56697e-08
3.55567e-08
3.54802e-08
3.53785e-08
3.53052e-08
3.52113e-08
3.51449e-08
3.50595e-08
3.49994e-08
3.49218e-08
3.48676e-08
3.47928e-08
3.47387e-08
3.46637e-08
3.46093e-08
3.45364e-08
3.44813e-08
3.44114e-08
3.43573e-08
3.42889e-08
3.42364e-08
3.41698e-08
3.41184e-08
3.40534e-08
3.40038e-08
3.39393e-08
3.38914e-08
3.38276e-08
3.3775e-08
3.37056e-08
3.39936e-08
3.13203e-06
2.23481e-08
1.2424e-07
1.23654e-07
1.21695e-07
1.17659e-07
1.12034e-07
1.05694e-07
9.93007e-08
9.32625e-08
8.77321e-08
8.27744e-08
7.83487e-08
7.44332e-08
7.09465e-08
6.78634e-08
6.51044e-08
6.26559e-08
6.04473e-08
5.8479e-08
5.66877e-08
5.50858e-08
5.36146e-08
5.2295e-08
5.10723e-08
4.99737e-08
4.89458e-08
4.80218e-08
4.71486e-08
4.63652e-08
4.56167e-08
4.49465e-08
4.42999e-08
4.37234e-08
4.31604e-08
4.26609e-08
4.21672e-08
4.17325e-08
4.1297e-08
4.09169e-08
4.0531e-08
4.01976e-08
3.98538e-08
3.95602e-08
3.92523e-08
3.8992e-08
3.87152e-08
3.84851e-08
3.82351e-08
3.80302e-08
3.78039e-08
3.76225e-08
3.74154e-08
3.7254e-08
3.70657e-08
3.69223e-08
3.67506e-08
3.66198e-08
3.64643e-08
3.63486e-08
3.62037e-08
3.61027e-08
3.59686e-08
3.58761e-08
3.57532e-08
3.56696e-08
3.55565e-08
3.548e-08
3.53783e-08
3.5305e-08
3.5211e-08
3.51445e-08
3.50591e-08
3.49989e-08
3.49213e-08
3.4867e-08
3.47922e-08
3.47381e-08
3.46631e-08
3.46087e-08
3.45357e-08
3.44806e-08
3.44106e-08
3.43566e-08
3.42881e-08
3.42356e-08
3.41689e-08
3.41175e-08
3.40525e-08
3.40029e-08
3.39383e-08
3.38904e-08
3.38266e-08
3.37739e-08
3.37045e-08
3.39934e-08
3.13542e-06
2.26236e-08
1.24239e-07
1.23653e-07
1.21698e-07
1.17668e-07
1.12049e-07
1.05713e-07
9.93229e-08
9.3286e-08
8.77559e-08
8.27979e-08
7.83714e-08
7.44549e-08
7.09671e-08
6.78827e-08
6.51225e-08
6.26729e-08
6.04632e-08
5.84938e-08
5.67016e-08
5.50987e-08
5.36267e-08
5.23063e-08
5.10829e-08
4.99835e-08
4.89551e-08
4.80304e-08
4.71567e-08
4.63728e-08
4.56238e-08
4.49531e-08
4.4306e-08
4.37292e-08
4.31658e-08
4.2666e-08
4.21719e-08
4.17369e-08
4.13011e-08
4.09207e-08
4.05346e-08
4.02009e-08
3.98569e-08
3.95631e-08
3.92549e-08
3.89945e-08
3.87175e-08
3.84872e-08
3.8237e-08
3.8032e-08
3.78055e-08
3.76239e-08
3.74167e-08
3.72551e-08
3.70667e-08
3.69232e-08
3.67514e-08
3.66204e-08
3.64648e-08
3.63491e-08
3.6204e-08
3.61029e-08
3.59687e-08
3.58762e-08
3.57532e-08
3.56695e-08
3.55564e-08
3.54798e-08
3.5378e-08
3.53046e-08
3.52106e-08
3.5144e-08
3.50585e-08
3.49983e-08
3.49206e-08
3.48663e-08
3.47915e-08
3.47373e-08
3.46623e-08
3.46078e-08
3.45347e-08
3.44797e-08
3.44096e-08
3.43555e-08
3.4287e-08
3.42344e-08
3.41677e-08
3.41163e-08
3.40512e-08
3.40016e-08
3.39369e-08
3.3889e-08
3.38251e-08
3.37725e-08
3.37031e-08
3.39932e-08
3.14019e-06
2.29293e-08
1.24239e-07
1.23653e-07
1.21702e-07
1.1768e-07
1.12068e-07
1.05738e-07
9.93517e-08
9.33165e-08
8.77869e-08
8.28284e-08
7.84009e-08
7.4483e-08
7.09937e-08
6.79078e-08
6.51461e-08
6.2695e-08
6.04839e-08
5.85132e-08
5.67197e-08
5.51156e-08
5.36425e-08
5.2321e-08
5.10967e-08
4.99964e-08
4.89671e-08
4.80417e-08
4.71672e-08
4.63826e-08
4.5633e-08
4.49618e-08
4.43141e-08
4.37368e-08
4.31729e-08
4.26726e-08
4.21781e-08
4.17427e-08
4.13065e-08
4.09258e-08
4.05393e-08
4.02053e-08
3.98609e-08
3.95668e-08
3.92584e-08
3.89977e-08
3.87204e-08
3.84899e-08
3.82396e-08
3.80343e-08
3.78076e-08
3.76259e-08
3.74184e-08
3.72567e-08
3.70681e-08
3.69244e-08
3.67524e-08
3.66214e-08
3.64656e-08
3.63497e-08
3.62045e-08
3.61033e-08
3.5969e-08
3.58763e-08
3.57532e-08
3.56695e-08
3.55562e-08
3.54795e-08
3.53776e-08
3.53042e-08
3.521e-08
3.51434e-08
3.50578e-08
3.49975e-08
3.49197e-08
3.48654e-08
3.47905e-08
3.47363e-08
3.46612e-08
3.46068e-08
3.45335e-08
3.44785e-08
3.44083e-08
3.43542e-08
3.42856e-08
3.4233e-08
3.41662e-08
3.41148e-08
3.40496e-08
3.39999e-08
3.39352e-08
3.38873e-08
3.38232e-08
3.37707e-08
3.37012e-08
3.39929e-08
3.14637e-06
2.32616e-08
1.24238e-07
1.23652e-07
1.21707e-07
1.17694e-07
1.12092e-07
1.05769e-07
9.93872e-08
9.33542e-08
8.78251e-08
8.2866e-08
7.84372e-08
7.45178e-08
7.10267e-08
6.79388e-08
6.51753e-08
6.27223e-08
6.05095e-08
5.85371e-08
5.67421e-08
5.51365e-08
5.3662e-08
5.23393e-08
5.11137e-08
5.00123e-08
4.8982e-08
4.80556e-08
4.71802e-08
4.63948e-08
4.56445e-08
4.49725e-08
4.43241e-08
4.37461e-08
4.31816e-08
4.26808e-08
4.21858e-08
4.17499e-08
4.13132e-08
4.0932e-08
4.05451e-08
4.02107e-08
3.9866e-08
3.95715e-08
3.92628e-08
3.90018e-08
3.87242e-08
3.84934e-08
3.82427e-08
3.80372e-08
3.78102e-08
3.76283e-08
3.74206e-08
3.72587e-08
3.70699e-08
3.6926e-08
3.67538e-08
3.66226e-08
3.64666e-08
3.63506e-08
3.62052e-08
3.61038e-08
3.59694e-08
3.58766e-08
3.57533e-08
3.56694e-08
3.5556e-08
3.54792e-08
3.53772e-08
3.53037e-08
3.52094e-08
3.51427e-08
3.5057e-08
3.49966e-08
3.49187e-08
3.48643e-08
3.47893e-08
3.47351e-08
3.46599e-08
3.46055e-08
3.45321e-08
3.44771e-08
3.44068e-08
3.43526e-08
3.42839e-08
3.42313e-08
3.41644e-08
3.41129e-08
3.40476e-08
3.39979e-08
3.39331e-08
3.38851e-08
3.3821e-08
3.37684e-08
3.36989e-08
3.39926e-08
3.15404e-06
2.36213e-08
1.24237e-07
1.23651e-07
1.21712e-07
1.17711e-07
1.1212e-07
1.05806e-07
9.94295e-08
9.33991e-08
8.78706e-08
8.29109e-08
7.84807e-08
7.45593e-08
7.1066e-08
6.79759e-08
6.52102e-08
6.2755e-08
6.05401e-08
5.85657e-08
5.67688e-08
5.51615e-08
5.36854e-08
5.23611e-08
5.11341e-08
5.00314e-08
4.89999e-08
4.80723e-08
4.71959e-08
4.64095e-08
4.56582e-08
4.49853e-08
4.43361e-08
4.37574e-08
4.31921e-08
4.26906e-08
4.2195e-08
4.17585e-08
4.13212e-08
4.09395e-08
4.05521e-08
4.02173e-08
3.9872e-08
3.95772e-08
3.9268e-08
3.90066e-08
3.87287e-08
3.84976e-08
3.82465e-08
3.80407e-08
3.78134e-08
3.76312e-08
3.74233e-08
3.72611e-08
3.7072e-08
3.69279e-08
3.67555e-08
3.6624e-08
3.64678e-08
3.63517e-08
3.6206e-08
3.61045e-08
3.59698e-08
3.58769e-08
3.57534e-08
3.56694e-08
3.55559e-08
3.5479e-08
3.53768e-08
3.53031e-08
3.52087e-08
3.51419e-08
3.50561e-08
3.49956e-08
3.49175e-08
3.4863e-08
3.47879e-08
3.47337e-08
3.46584e-08
3.4604e-08
3.45305e-08
3.44755e-08
3.4405e-08
3.43508e-08
3.4282e-08
3.42293e-08
3.41622e-08
3.41108e-08
3.40453e-08
3.39956e-08
3.39306e-08
3.38826e-08
3.38183e-08
3.37658e-08
3.36961e-08
3.39923e-08
3.16325e-06
2.40119e-08
1.24236e-07
1.23649e-07
1.21719e-07
1.17731e-07
1.12153e-07
1.05849e-07
9.94787e-08
9.34514e-08
8.79237e-08
8.29632e-08
7.85314e-08
7.46077e-08
7.1112e-08
6.80192e-08
6.52509e-08
6.27932e-08
6.05759e-08
5.85991e-08
5.68001e-08
5.51907e-08
5.37127e-08
5.23866e-08
5.1158e-08
5.00538e-08
4.90208e-08
4.80919e-08
4.72142e-08
4.64266e-08
4.56742e-08
4.50003e-08
4.43502e-08
4.37706e-08
4.32045e-08
4.27022e-08
4.22058e-08
4.17686e-08
4.13307e-08
4.09484e-08
4.05603e-08
4.02249e-08
3.98792e-08
3.95839e-08
3.92742e-08
3.90124e-08
3.8734e-08
3.85025e-08
3.8251e-08
3.80449e-08
3.78172e-08
3.76347e-08
3.74264e-08
3.72639e-08
3.70745e-08
3.69302e-08
3.67575e-08
3.66258e-08
3.64693e-08
3.63529e-08
3.62071e-08
3.61053e-08
3.59704e-08
3.58773e-08
3.57537e-08
3.56695e-08
3.55558e-08
3.54787e-08
3.53763e-08
3.53025e-08
3.5208e-08
3.5141e-08
3.5055e-08
3.49944e-08
3.49162e-08
3.48616e-08
3.47864e-08
3.47321e-08
3.46567e-08
3.46022e-08
3.45286e-08
3.44736e-08
3.44029e-08
3.43486e-08
3.42797e-08
3.4227e-08
3.41598e-08
3.41083e-08
3.40426e-08
3.39929e-08
3.39277e-08
3.38797e-08
3.38153e-08
3.37628e-08
3.3693e-08
3.39921e-08
3.17405e-06
2.44393e-08
1.24234e-07
1.23648e-07
1.21727e-07
1.17753e-07
1.12191e-07
1.05898e-07
9.9535e-08
9.35112e-08
8.79845e-08
8.30231e-08
7.85894e-08
7.46632e-08
7.11646e-08
6.80689e-08
6.52976e-08
6.2837e-08
6.06169e-08
5.86375e-08
5.6836e-08
5.52243e-08
5.37441e-08
5.2416e-08
5.11855e-08
5.00794e-08
4.90448e-08
4.81144e-08
4.72352e-08
4.64463e-08
4.56927e-08
4.50176e-08
4.43664e-08
4.37857e-08
4.32187e-08
4.27155e-08
4.22182e-08
4.17802e-08
4.13415e-08
4.09585e-08
4.05698e-08
4.02338e-08
3.98874e-08
3.95915e-08
3.92813e-08
3.9019e-08
3.87401e-08
3.85081e-08
3.82563e-08
3.80497e-08
3.78216e-08
3.76387e-08
3.74301e-08
3.72673e-08
3.70775e-08
3.69328e-08
3.67598e-08
3.66279e-08
3.64711e-08
3.63545e-08
3.62083e-08
3.61063e-08
3.59712e-08
3.58779e-08
3.5754e-08
3.56696e-08
3.55557e-08
3.54784e-08
3.53758e-08
3.53019e-08
3.52071e-08
3.51401e-08
3.50538e-08
3.49931e-08
3.49147e-08
3.486e-08
3.47846e-08
3.47303e-08
3.46548e-08
3.46003e-08
3.45264e-08
3.44715e-08
3.44005e-08
3.43463e-08
3.42772e-08
3.42244e-08
3.4157e-08
3.41054e-08
3.40396e-08
3.39899e-08
3.39245e-08
3.38765e-08
3.38118e-08
3.37594e-08
3.36895e-08
3.39919e-08
3.18646e-06
2.49109e-08
1.24233e-07
1.23646e-07
1.21735e-07
1.17779e-07
1.12233e-07
1.05953e-07
9.95984e-08
9.35786e-08
8.80531e-08
8.30908e-08
7.8655e-08
7.47259e-08
7.12242e-08
6.81251e-08
6.53505e-08
6.28866e-08
6.06634e-08
5.8681e-08
5.68767e-08
5.52623e-08
5.37797e-08
5.24493e-08
5.12166e-08
5.01086e-08
4.90721e-08
4.81399e-08
4.72591e-08
4.64687e-08
4.57136e-08
4.50372e-08
4.43848e-08
4.3803e-08
4.32348e-08
4.27306e-08
4.22324e-08
4.17935e-08
4.13539e-08
4.09701e-08
4.05806e-08
4.02439e-08
3.98968e-08
3.96003e-08
3.92895e-08
3.90266e-08
3.87471e-08
3.85146e-08
3.82622e-08
3.80552e-08
3.78266e-08
3.76434e-08
3.74343e-08
3.72711e-08
3.70809e-08
3.69359e-08
3.67625e-08
3.66303e-08
3.64731e-08
3.63563e-08
3.62098e-08
3.61075e-08
3.59721e-08
3.58786e-08
3.57544e-08
3.56698e-08
3.55556e-08
3.54781e-08
3.53754e-08
3.53013e-08
3.52063e-08
3.5139e-08
3.50526e-08
3.49917e-08
3.49131e-08
3.48583e-08
3.47827e-08
3.47283e-08
3.46527e-08
3.45982e-08
3.45241e-08
3.44692e-08
3.43979e-08
3.43436e-08
3.42743e-08
3.42215e-08
3.41539e-08
3.41023e-08
3.40362e-08
3.39865e-08
3.39209e-08
3.38728e-08
3.38079e-08
3.37556e-08
3.36856e-08
3.39918e-08
3.2005e-06
2.54359e-08
1.24231e-07
1.23644e-07
1.21744e-07
1.17807e-07
1.1228e-07
1.06015e-07
9.9669e-08
9.36538e-08
8.81297e-08
8.31664e-08
7.87283e-08
7.47961e-08
7.12909e-08
6.8188e-08
6.54097e-08
6.29421e-08
6.07154e-08
5.87297e-08
5.69223e-08
5.53049e-08
5.38196e-08
5.24866e-08
5.12515e-08
5.01412e-08
4.91027e-08
4.81685e-08
4.7286e-08
4.64938e-08
4.57372e-08
4.50593e-08
4.44055e-08
4.38223e-08
4.3253e-08
4.27476e-08
4.22483e-08
4.18084e-08
4.13679e-08
4.09832e-08
4.05928e-08
4.02553e-08
3.99074e-08
3.96102e-08
3.92986e-08
3.90352e-08
3.8755e-08
3.8522e-08
3.8269e-08
3.80615e-08
3.78323e-08
3.76486e-08
3.7439e-08
3.72755e-08
3.70848e-08
3.69394e-08
3.67657e-08
3.66331e-08
3.64755e-08
3.63583e-08
3.62115e-08
3.6109e-08
3.59732e-08
3.58794e-08
3.57549e-08
3.56701e-08
3.55556e-08
3.54779e-08
3.53749e-08
3.53006e-08
3.52054e-08
3.51379e-08
3.50512e-08
3.49902e-08
3.49114e-08
3.48564e-08
3.47807e-08
3.47262e-08
3.46504e-08
3.45958e-08
3.45215e-08
3.44666e-08
3.43951e-08
3.43407e-08
3.42712e-08
3.42183e-08
3.41505e-08
3.40988e-08
3.40325e-08
3.39828e-08
3.39169e-08
3.38688e-08
3.38037e-08
3.37513e-08
3.36812e-08
3.39918e-08
3.21615e-06
2.60245e-08
1.24229e-07
1.23642e-07
1.21754e-07
1.17837e-07
1.12331e-07
1.06082e-07
9.97469e-08
9.3737e-08
8.82143e-08
8.32501e-08
7.88095e-08
7.48738e-08
7.13647e-08
6.82578e-08
6.54754e-08
6.30037e-08
6.07732e-08
5.87838e-08
5.69729e-08
5.53523e-08
5.38639e-08
5.2528e-08
5.12903e-08
5.01776e-08
4.91367e-08
4.82004e-08
4.73158e-08
4.65218e-08
4.57634e-08
4.50839e-08
4.44285e-08
4.38439e-08
4.32732e-08
4.27666e-08
4.2266e-08
4.1825e-08
4.13834e-08
4.09978e-08
4.06064e-08
4.0268e-08
3.99193e-08
3.96213e-08
3.93089e-08
3.90448e-08
3.87639e-08
3.85303e-08
3.82766e-08
3.80685e-08
3.78388e-08
3.76546e-08
3.74444e-08
3.72804e-08
3.70892e-08
3.69434e-08
3.67692e-08
3.66363e-08
3.64782e-08
3.63607e-08
3.62134e-08
3.61106e-08
3.59745e-08
3.58804e-08
3.57556e-08
3.56705e-08
3.55557e-08
3.54777e-08
3.53744e-08
3.53e-08
3.52045e-08
3.51368e-08
3.50498e-08
3.49887e-08
3.49095e-08
3.48544e-08
3.47784e-08
3.47239e-08
3.46479e-08
3.45933e-08
3.45188e-08
3.44639e-08
3.4392e-08
3.43376e-08
3.42679e-08
3.42148e-08
3.41468e-08
3.40951e-08
3.40285e-08
3.39787e-08
3.39126e-08
3.38645e-08
3.3799e-08
3.37467e-08
3.36765e-08
3.39919e-08
3.23338e-06
2.66878e-08
1.24227e-07
1.2364e-07
1.21765e-07
1.1787e-07
1.12387e-07
1.06156e-07
9.98323e-08
9.38281e-08
8.83073e-08
8.3342e-08
7.88988e-08
7.49593e-08
7.1446e-08
6.83345e-08
6.55477e-08
6.30716e-08
6.08369e-08
5.88434e-08
5.70288e-08
5.54045e-08
5.39128e-08
5.25738e-08
5.13332e-08
5.02177e-08
4.91743e-08
4.82356e-08
4.73488e-08
4.65527e-08
4.57924e-08
4.51111e-08
4.4454e-08
4.38678e-08
4.32956e-08
4.27876e-08
4.22857e-08
4.18435e-08
4.14007e-08
4.10139e-08
4.06215e-08
4.02822e-08
3.99325e-08
3.96336e-08
3.93204e-08
3.90554e-08
3.87738e-08
3.85394e-08
3.82851e-08
3.80764e-08
3.7846e-08
3.76612e-08
3.74505e-08
3.72859e-08
3.70942e-08
3.69479e-08
3.67732e-08
3.66399e-08
3.64813e-08
3.63635e-08
3.62157e-08
3.61125e-08
3.59761e-08
3.58816e-08
3.57564e-08
3.56711e-08
3.5556e-08
3.54776e-08
3.53741e-08
3.52994e-08
3.52035e-08
3.51357e-08
3.50484e-08
3.4987e-08
3.49076e-08
3.48524e-08
3.47761e-08
3.47215e-08
3.46453e-08
3.45906e-08
3.45158e-08
3.44609e-08
3.43887e-08
3.43343e-08
3.42643e-08
3.42111e-08
3.41429e-08
3.40911e-08
3.40242e-08
3.39744e-08
3.39079e-08
3.38598e-08
3.3794e-08
3.37418e-08
3.36714e-08
3.39921e-08
3.2521e-06
2.74376e-08
1.24225e-07
1.23637e-07
1.21777e-07
1.17906e-07
1.12448e-07
1.06237e-07
9.99252e-08
9.39275e-08
8.84087e-08
8.34424e-08
7.89963e-08
7.50528e-08
7.15349e-08
6.84186e-08
6.56268e-08
6.31459e-08
6.09066e-08
5.89087e-08
5.70899e-08
5.54618e-08
5.39664e-08
5.2624e-08
5.13802e-08
5.02617e-08
4.92155e-08
4.82742e-08
4.73851e-08
4.65867e-08
4.58242e-08
4.51409e-08
4.4482e-08
4.38941e-08
4.33202e-08
4.28107e-08
4.23074e-08
4.18638e-08
4.14197e-08
4.10317e-08
4.06381e-08
4.02977e-08
3.9947e-08
3.96472e-08
3.9333e-08
3.90672e-08
3.87847e-08
3.85496e-08
3.82945e-08
3.80851e-08
3.7854e-08
3.76686e-08
3.74572e-08
3.72921e-08
3.70998e-08
3.6953e-08
3.67777e-08
3.66439e-08
3.64848e-08
3.63666e-08
3.62183e-08
3.61148e-08
3.59778e-08
3.58831e-08
3.57575e-08
3.56718e-08
3.55563e-08
3.54777e-08
3.53738e-08
3.52989e-08
3.52027e-08
3.51346e-08
3.50469e-08
3.49853e-08
3.49056e-08
3.48502e-08
3.47736e-08
3.47189e-08
3.46425e-08
3.45878e-08
3.45127e-08
3.44578e-08
3.43852e-08
3.43307e-08
3.42604e-08
3.42072e-08
3.41386e-08
3.40868e-08
3.40195e-08
3.39697e-08
3.39029e-08
3.38547e-08
3.37886e-08
3.37364e-08
3.36659e-08
3.39925e-08
3.27218e-06
2.82866e-08
1.24223e-07
1.23634e-07
1.21789e-07
1.17945e-07
1.12514e-07
1.06323e-07
1.00026e-07
9.40351e-08
8.85187e-08
8.35513e-08
7.91022e-08
7.51544e-08
7.16316e-08
6.851e-08
6.5713e-08
6.32268e-08
6.09826e-08
5.89799e-08
5.71567e-08
5.55242e-08
5.40249e-08
5.26787e-08
5.14315e-08
5.03097e-08
4.92606e-08
4.83164e-08
4.74246e-08
4.66238e-08
4.58591e-08
4.51736e-08
4.45126e-08
4.39228e-08
4.33472e-08
4.2836e-08
4.23311e-08
4.18861e-08
4.14406e-08
4.10513e-08
4.06564e-08
4.03149e-08
3.9963e-08
3.96621e-08
3.93469e-08
3.90802e-08
3.87968e-08
3.85609e-08
3.83049e-08
3.80948e-08
3.78628e-08
3.76768e-08
3.74647e-08
3.7299e-08
3.7106e-08
3.69586e-08
3.67828e-08
3.66485e-08
3.64888e-08
3.63701e-08
3.62213e-08
3.61173e-08
3.59799e-08
3.58848e-08
3.57588e-08
3.56727e-08
3.55568e-08
3.54778e-08
3.53736e-08
3.52984e-08
3.52018e-08
3.51335e-08
3.50455e-08
3.49837e-08
3.49035e-08
3.48479e-08
3.4771e-08
3.47163e-08
3.46396e-08
3.45848e-08
3.45094e-08
3.44545e-08
3.43815e-08
3.43269e-08
3.42564e-08
3.4203e-08
3.41341e-08
3.40822e-08
3.40146e-08
3.39647e-08
3.38976e-08
3.38493e-08
3.37828e-08
3.37307e-08
3.366e-08
3.3993e-08
3.29343e-06
2.92478e-08
1.2422e-07
1.23631e-07
1.21802e-07
1.17986e-07
1.12585e-07
1.06417e-07
1.00134e-07
9.41512e-08
8.86374e-08
8.3669e-08
7.92168e-08
7.52643e-08
7.17363e-08
6.8609e-08
6.58064e-08
6.33146e-08
6.1065e-08
5.90571e-08
5.72291e-08
5.5592e-08
5.40885e-08
5.27382e-08
5.14873e-08
5.0362e-08
4.93096e-08
4.83624e-08
4.74677e-08
4.66642e-08
4.5897e-08
4.52092e-08
4.4546e-08
4.39542e-08
4.33766e-08
4.28636e-08
4.2357e-08
4.19104e-08
4.14633e-08
4.10726e-08
4.06764e-08
4.03336e-08
3.99805e-08
3.96785e-08
3.93622e-08
3.90945e-08
3.881e-08
3.85732e-08
3.83163e-08
3.81054e-08
3.78726e-08
3.76858e-08
3.74729e-08
3.73066e-08
3.71129e-08
3.69649e-08
3.67884e-08
3.66536e-08
3.64932e-08
3.63741e-08
3.62247e-08
3.61203e-08
3.59824e-08
3.58868e-08
3.57603e-08
3.56738e-08
3.55575e-08
3.54782e-08
3.53735e-08
3.52981e-08
3.52011e-08
3.51325e-08
3.5044e-08
3.4982e-08
3.49015e-08
3.48457e-08
3.47683e-08
3.47135e-08
3.46366e-08
3.45818e-08
3.45059e-08
3.44511e-08
3.43777e-08
3.4323e-08
3.42521e-08
3.41986e-08
3.41294e-08
3.40774e-08
3.40094e-08
3.39595e-08
3.3892e-08
3.38436e-08
3.37767e-08
3.37247e-08
3.36538e-08
3.39938e-08
3.31561e-06
3.03352e-08
1.24218e-07
1.23628e-07
1.21816e-07
1.1803e-07
1.1266e-07
1.06517e-07
1.0025e-07
9.42758e-08
8.8765e-08
8.37957e-08
7.93401e-08
7.53828e-08
7.18492e-08
6.87158e-08
6.59072e-08
6.34094e-08
6.1154e-08
5.91406e-08
5.73073e-08
5.56653e-08
5.41572e-08
5.28026e-08
5.15476e-08
5.04185e-08
4.93626e-08
4.84121e-08
4.75144e-08
4.6708e-08
4.59381e-08
4.52478e-08
4.45823e-08
4.39882e-08
4.34085e-08
4.28936e-08
4.23851e-08
4.19368e-08
4.14881e-08
4.10959e-08
4.06982e-08
4.0354e-08
3.99995e-08
3.96964e-08
3.93789e-08
3.91101e-08
3.88245e-08
3.85867e-08
3.83288e-08
3.8117e-08
3.78833e-08
3.76958e-08
3.7482e-08
3.7315e-08
3.71205e-08
3.69719e-08
3.67946e-08
3.66593e-08
3.64982e-08
3.63786e-08
3.62285e-08
3.61236e-08
3.59852e-08
3.58892e-08
3.57621e-08
3.56753e-08
3.55585e-08
3.54787e-08
3.53736e-08
3.52979e-08
3.52004e-08
3.51315e-08
3.50427e-08
3.49804e-08
3.48995e-08
3.48434e-08
3.47657e-08
3.47107e-08
3.46335e-08
3.45786e-08
3.45024e-08
3.44476e-08
3.43737e-08
3.4319e-08
3.42476e-08
3.41941e-08
3.41245e-08
3.40724e-08
3.4004e-08
3.3954e-08
3.38861e-08
3.38376e-08
3.37703e-08
3.37184e-08
3.36473e-08
3.39947e-08
3.33839e-06
3.15628e-08
1.24215e-07
1.23624e-07
1.21831e-07
1.18077e-07
1.1274e-07
1.06623e-07
1.00374e-07
9.4409e-08
8.89016e-08
8.39314e-08
7.94725e-08
7.551e-08
7.19705e-08
6.88307e-08
6.60156e-08
6.35113e-08
6.12499e-08
5.92304e-08
5.73917e-08
5.57443e-08
5.42313e-08
5.2872e-08
5.16128e-08
5.04796e-08
4.94199e-08
4.84658e-08
4.75648e-08
4.67553e-08
4.59826e-08
4.52895e-08
4.46215e-08
4.4025e-08
4.34431e-08
4.29261e-08
4.24156e-08
4.19654e-08
4.1515e-08
4.11211e-08
4.07218e-08
4.03762e-08
4.00203e-08
3.97158e-08
3.9397e-08
3.91271e-08
3.88403e-08
3.86015e-08
3.83425e-08
3.81298e-08
3.7895e-08
3.77067e-08
3.74921e-08
3.73242e-08
3.71289e-08
3.69796e-08
3.68016e-08
3.66656e-08
3.65038e-08
3.63836e-08
3.62329e-08
3.61274e-08
3.59884e-08
3.58919e-08
3.57643e-08
3.5677e-08
3.55597e-08
3.54795e-08
3.53739e-08
3.52979e-08
3.52e-08
3.51308e-08
3.50414e-08
3.49788e-08
3.48975e-08
3.48412e-08
3.4763e-08
3.47079e-08
3.46304e-08
3.45754e-08
3.44988e-08
3.44439e-08
3.43696e-08
3.43148e-08
3.42431e-08
3.41894e-08
3.41194e-08
3.40671e-08
3.39983e-08
3.39483e-08
3.38799e-08
3.38314e-08
3.37636e-08
3.37118e-08
3.36405e-08
3.39958e-08
3.36138e-06
3.29454e-08
1.24212e-07
1.2362e-07
1.21846e-07
1.18126e-07
1.12824e-07
1.06736e-07
1.00506e-07
9.45511e-08
8.90475e-08
8.40765e-08
7.9614e-08
7.56461e-08
7.21004e-08
6.89538e-08
6.61318e-08
6.36207e-08
6.13527e-08
5.9327e-08
5.74823e-08
5.58293e-08
5.4311e-08
5.29467e-08
5.16828e-08
5.05453e-08
4.94816e-08
4.85237e-08
4.76192e-08
4.68063e-08
4.60305e-08
4.53346e-08
4.46638e-08
4.40648e-08
4.34805e-08
4.29612e-08
4.24486e-08
4.19964e-08
4.15441e-08
4.11485e-08
4.07474e-08
4.04002e-08
4.00428e-08
3.97369e-08
3.94167e-08
3.91456e-08
3.88575e-08
3.86176e-08
3.83574e-08
3.81437e-08
3.79079e-08
3.77187e-08
3.7503e-08
3.73344e-08
3.71382e-08
3.69881e-08
3.68093e-08
3.66727e-08
3.651e-08
3.63893e-08
3.62378e-08
3.61318e-08
3.59921e-08
3.58951e-08
3.57669e-08
3.56791e-08
3.55613e-08
3.54806e-08
3.53745e-08
3.52981e-08
3.51997e-08
3.51301e-08
3.50403e-08
3.49774e-08
3.48956e-08
3.4839e-08
3.47604e-08
3.47051e-08
3.46273e-08
3.45721e-08
3.44951e-08
3.44402e-08
3.43654e-08
3.43106e-08
3.42384e-08
3.41845e-08
3.41141e-08
3.40618e-08
3.39925e-08
3.39424e-08
3.38735e-08
3.38249e-08
3.37566e-08
3.37049e-08
3.36334e-08
3.39971e-08
3.3841e-06
3.4498e-08
1.24209e-07
1.23616e-07
1.21862e-07
1.18177e-07
1.12914e-07
1.06856e-07
1.00646e-07
9.4702e-08
8.92027e-08
8.42311e-08
7.9765e-08
7.57915e-08
7.22392e-08
6.90853e-08
6.62562e-08
6.37378e-08
6.14628e-08
5.94303e-08
5.75793e-08
5.59203e-08
5.43964e-08
5.30268e-08
5.1758e-08
5.06158e-08
4.95478e-08
4.85859e-08
4.76776e-08
4.68612e-08
4.60821e-08
4.5383e-08
4.47093e-08
4.41076e-08
4.35207e-08
4.2999e-08
4.24842e-08
4.20299e-08
4.15755e-08
4.1178e-08
4.07751e-08
4.04262e-08
4.00671e-08
3.97598e-08
3.94381e-08
3.91656e-08
3.88762e-08
3.86351e-08
3.83737e-08
3.81589e-08
3.79219e-08
3.77318e-08
3.75151e-08
3.73456e-08
3.71483e-08
3.69975e-08
3.68178e-08
3.66805e-08
3.65169e-08
3.63956e-08
3.62433e-08
3.61367e-08
3.59964e-08
3.58988e-08
3.57699e-08
3.56816e-08
3.55632e-08
3.54821e-08
3.53754e-08
3.52986e-08
3.51997e-08
3.51298e-08
3.50394e-08
3.49761e-08
3.48938e-08
3.4837e-08
3.47579e-08
3.47024e-08
3.46242e-08
3.45689e-08
3.44915e-08
3.44365e-08
3.43611e-08
3.43063e-08
3.42336e-08
3.41796e-08
3.41087e-08
3.40563e-08
3.39865e-08
3.39363e-08
3.38669e-08
3.38183e-08
3.37494e-08
3.36977e-08
3.36261e-08
3.39986e-08
3.40601e-06
3.62358e-08
1.24206e-07
1.23611e-07
1.21878e-07
1.18231e-07
1.13008e-07
1.06982e-07
1.00794e-07
9.4862e-08
8.93675e-08
8.43953e-08
7.99255e-08
7.59462e-08
7.2387e-08
6.92256e-08
6.63888e-08
6.38627e-08
6.15804e-08
5.95408e-08
5.76831e-08
5.60176e-08
5.44878e-08
5.31125e-08
5.18385e-08
5.06913e-08
4.96188e-08
4.86525e-08
4.77402e-08
4.692e-08
4.61374e-08
4.5435e-08
4.47582e-08
4.41536e-08
4.3564e-08
4.30398e-08
4.25225e-08
4.20659e-08
4.16093e-08
4.12098e-08
4.0805e-08
4.04543e-08
4.00935e-08
3.97845e-08
3.94612e-08
3.91873e-08
3.88964e-08
3.86541e-08
3.83913e-08
3.81755e-08
3.79372e-08
3.7746e-08
3.75282e-08
3.73578e-08
3.71595e-08
3.70078e-08
3.68272e-08
3.66891e-08
3.65247e-08
3.64027e-08
3.62496e-08
3.61422e-08
3.60012e-08
3.5903e-08
3.57735e-08
3.56846e-08
3.55656e-08
3.5484e-08
3.53767e-08
3.52995e-08
3.52e-08
3.51297e-08
3.50387e-08
3.49751e-08
3.48922e-08
3.48351e-08
3.47555e-08
3.46997e-08
3.46211e-08
3.45658e-08
3.44879e-08
3.44329e-08
3.43569e-08
3.4302e-08
3.42287e-08
3.41747e-08
3.41033e-08
3.40507e-08
3.39804e-08
3.39301e-08
3.38602e-08
3.38114e-08
3.3742e-08
3.36904e-08
3.36185e-08
3.40003e-08
3.42644e-06
3.81741e-08
1.24203e-07
1.23607e-07
1.21895e-07
1.18287e-07
1.13106e-07
1.07115e-07
1.0095e-07
9.50311e-08
8.95419e-08
8.45694e-08
8.00959e-08
7.61105e-08
7.25442e-08
6.93748e-08
6.653e-08
6.39958e-08
6.17057e-08
5.96585e-08
5.77937e-08
5.61214e-08
5.45853e-08
5.3204e-08
5.19245e-08
5.0772e-08
4.96946e-08
4.87238e-08
4.78072e-08
4.6983e-08
4.61966e-08
4.54908e-08
4.48107e-08
4.4203e-08
4.36104e-08
4.30835e-08
4.25636e-08
4.21046e-08
4.16457e-08
4.12441e-08
4.08372e-08
4.04846e-08
4.01218e-08
3.98112e-08
3.94862e-08
3.92108e-08
3.89184e-08
3.86746e-08
3.84105e-08
3.81934e-08
3.79539e-08
3.77616e-08
3.75426e-08
3.73712e-08
3.71718e-08
3.70191e-08
3.68376e-08
3.66987e-08
3.65332e-08
3.64105e-08
3.62565e-08
3.61485e-08
3.60067e-08
3.59079e-08
3.57776e-08
3.56882e-08
3.55685e-08
3.54863e-08
3.53784e-08
3.53008e-08
3.52006e-08
3.51299e-08
3.50383e-08
3.49744e-08
3.48909e-08
3.48334e-08
3.47533e-08
3.46973e-08
3.46182e-08
3.45627e-08
3.44843e-08
3.44293e-08
3.43527e-08
3.42978e-08
3.42239e-08
3.41697e-08
3.40978e-08
3.40451e-08
3.39742e-08
3.39239e-08
3.38534e-08
3.38045e-08
3.37344e-08
3.36829e-08
3.36108e-08
3.40021e-08
3.44469e-06
4.03276e-08
1.242e-07
1.23601e-07
1.21912e-07
1.18346e-07
1.13209e-07
1.07254e-07
1.01114e-07
9.52094e-08
8.97261e-08
8.47536e-08
8.02764e-08
7.62846e-08
7.27109e-08
6.95331e-08
6.66799e-08
6.41372e-08
6.1839e-08
5.97838e-08
5.79115e-08
5.62321e-08
5.46893e-08
5.33016e-08
5.20162e-08
5.08582e-08
4.97756e-08
4.87999e-08
4.78788e-08
4.70503e-08
4.626e-08
4.55504e-08
4.48668e-08
4.42558e-08
4.36602e-08
4.31303e-08
4.26077e-08
4.21461e-08
4.16848e-08
4.12809e-08
4.08718e-08
4.05172e-08
4.01524e-08
3.984e-08
3.95132e-08
3.92362e-08
3.89421e-08
3.86969e-08
3.84313e-08
3.82129e-08
3.7972e-08
3.77785e-08
3.75583e-08
3.73858e-08
3.71853e-08
3.70316e-08
3.6849e-08
3.67092e-08
3.65428e-08
3.64193e-08
3.62643e-08
3.61556e-08
3.60129e-08
3.59135e-08
3.57824e-08
3.56923e-08
3.5572e-08
3.54891e-08
3.53806e-08
3.53025e-08
3.52017e-08
3.51305e-08
3.50383e-08
3.49739e-08
3.48899e-08
3.48321e-08
3.47514e-08
3.46951e-08
3.46154e-08
3.45598e-08
3.44809e-08
3.44258e-08
3.43487e-08
3.42937e-08
3.42191e-08
3.41648e-08
3.40924e-08
3.40395e-08
3.3968e-08
3.39176e-08
3.38465e-08
3.37975e-08
3.37267e-08
3.36753e-08
3.3603e-08
3.4004e-08
3.45993e-06
4.27103e-08
1.24197e-07
1.23596e-07
1.2193e-07
1.18407e-07
1.13317e-07
1.074e-07
1.01287e-07
9.53971e-08
8.99203e-08
8.49479e-08
8.04671e-08
7.64689e-08
7.28874e-08
6.9701e-08
6.6839e-08
6.42873e-08
6.19805e-08
5.99169e-08
5.80367e-08
5.63497e-08
5.47999e-08
5.34055e-08
5.21138e-08
5.09499e-08
4.98619e-08
4.88811e-08
4.79552e-08
4.71222e-08
4.63277e-08
4.56141e-08
4.49268e-08
4.43123e-08
4.37134e-08
4.31805e-08
4.26549e-08
4.21907e-08
4.17267e-08
4.13204e-08
4.09089e-08
4.05522e-08
4.01853e-08
3.98709e-08
3.95423e-08
3.92636e-08
3.89677e-08
3.8721e-08
3.84538e-08
3.8234e-08
3.79916e-08
3.7797e-08
3.75754e-08
3.74017e-08
3.72e-08
3.70453e-08
3.68616e-08
3.67209e-08
3.65533e-08
3.6429e-08
3.62731e-08
3.61635e-08
3.602e-08
3.59198e-08
3.57879e-08
3.56972e-08
3.55761e-08
3.54926e-08
3.53833e-08
3.53048e-08
3.52033e-08
3.51316e-08
3.50387e-08
3.49739e-08
3.48892e-08
3.4831e-08
3.47498e-08
3.46931e-08
3.46129e-08
3.45571e-08
3.44778e-08
3.44225e-08
3.43447e-08
3.42898e-08
3.42145e-08
3.41601e-08
3.4087e-08
3.4034e-08
3.39619e-08
3.39113e-08
3.38395e-08
3.37904e-08
3.3719e-08
3.36677e-08
3.35951e-08
3.4006e-08
3.47129e-06
4.53348e-08
1.24193e-07
1.2359e-07
1.21948e-07
1.1847e-07
1.13429e-07
1.07553e-07
1.01468e-07
9.55941e-08
9.01246e-08
8.51527e-08
8.06682e-08
7.66635e-08
7.3074e-08
6.98785e-08
6.70073e-08
6.44462e-08
6.21305e-08
6.0058e-08
5.81696e-08
5.64745e-08
5.49173e-08
5.35158e-08
5.22177e-08
5.10475e-08
4.99538e-08
4.89675e-08
4.80366e-08
4.71988e-08
4.63998e-08
4.56821e-08
4.49908e-08
4.43727e-08
4.37703e-08
4.32341e-08
4.27055e-08
4.22383e-08
4.17716e-08
4.13628e-08
4.09488e-08
4.05898e-08
4.02207e-08
3.99043e-08
3.95736e-08
3.92931e-08
3.89953e-08
3.8747e-08
3.84781e-08
3.82569e-08
3.80129e-08
3.7817e-08
3.7594e-08