/*--------------------------------*- C++ -*----------------------------------*\
| =========                 |                                                 |
| \\      /  F ield         | OpenFOAM: The Open Source CFD Toolbox           |
|  \\    /   O peration     | Version:  v2012                                 |
|   \\  /    A nd           | Website:  www.openfoam.com                      |
|    \\/     M anipulation  |                                                 |
\*---------------------------------------------------------------------------*/
FoamFile
{
    version     2.0;
    format      ascii;
    class       volVectorField;
    location    "51.5";
    object      wallShearStress;
}
// * * * * * * * * * * * * * * * * * * * * * * * * * * * * * * * * * * * * * //

dimensions      [0 2 -2 0 0 0 0];


internalField   uniform (0 0 0);

boundaryField
{
    inlet
    {
        type            calculated;
        value           uniform (0 0 0);
    }
    outlet
    {
        type            calculated;
        value           uniform (0 0 0);
    }
    topWall
    {
        type            calculated;
        value           nonuniform List<vector> 
545
(
(6.93484e-08 -4.88138e-08 0)
(6.93294e-08 -1.36561e-07 0)
(6.92847e-08 -2.278e-07 0)
(6.92229e-08 -3.1639e-07 0)
(6.91474e-08 -4.01199e-07 0)
(6.90586e-08 -4.83317e-07 0)
(6.89573e-08 -5.63443e-07 0)
(6.88444e-08 -6.41537e-07 0)
(6.87208e-08 -7.1743e-07 0)
(6.85877e-08 -7.91118e-07 0)
(6.84457e-08 -8.627e-07 0)
(6.8296e-08 -9.32256e-07 0)
(6.8139e-08 -9.99836e-07 0)
(6.79758e-08 -1.06548e-06 0)
(6.78069e-08 -1.12923e-06 0)
(6.7633e-08 -1.19114e-06 0)
(6.74547e-08 -1.25127e-06 0)
(6.72726e-08 -1.30965e-06 0)
(6.70873e-08 -1.36634e-06 0)
(6.68992e-08 -1.42137e-06 0)
(6.67088e-08 -1.47481e-06 0)
(6.65166e-08 -1.52669e-06 0)
(6.63229e-08 -1.57705e-06 0)
(6.61282e-08 -1.62594e-06 0)
(6.59327e-08 -1.6734e-06 0)
(6.57369e-08 -1.71948e-06 0)
(6.5541e-08 -1.7642e-06 0)
(6.53454e-08 -1.80762e-06 0)
(6.51501e-08 -1.84976e-06 0)
(6.49556e-08 -1.89067e-06 0)
(6.47621e-08 -1.93039e-06 0)
(6.45696e-08 -1.96894e-06 0)
(6.43784e-08 -2.00636e-06 0)
(6.41888e-08 -2.04269e-06 0)
(6.40007e-08 -2.07795e-06 0)
(6.38145e-08 -2.11219e-06 0)
(6.36301e-08 -2.14543e-06 0)
(6.34477e-08 -2.17769e-06 0)
(6.32675e-08 -2.20902e-06 0)
(6.30895e-08 -2.23944e-06 0)
(6.29137e-08 -2.26897e-06 0)
(6.27403e-08 -2.29764e-06 0)
(6.25693e-08 -2.32547e-06 0)
(6.24008e-08 -2.35251e-06 0)
(6.22348e-08 -2.37875e-06 0)
(6.20713e-08 -2.40424e-06 0)
(6.19105e-08 -2.42899e-06 0)
(6.17522e-08 -2.45303e-06 0)
(6.15966e-08 -2.47637e-06 0)
(6.14436e-08 -2.49904e-06 0)
(6.12933e-08 -2.52106e-06 0)
(6.11457e-08 -2.54245e-06 0)
(6.10006e-08 -2.56322e-06 0)
(6.08583e-08 -2.5834e-06 0)
(6.07186e-08 -2.603e-06 0)
(6.05815e-08 -2.62204e-06 0)
(6.04471e-08 -2.64053e-06 0)
(6.03152e-08 -2.6585e-06 0)
(6.0186e-08 -2.67596e-06 0)
(6.00593e-08 -2.69292e-06 0)
(5.99351e-08 -2.7094e-06 0)
(5.98135e-08 -2.72541e-06 0)
(5.96943e-08 -2.74097e-06 0)
(5.95776e-08 -2.75609e-06 0)
(5.94633e-08 -2.77078e-06 0)
(5.93515e-08 -2.78505e-06 0)
(5.92419e-08 -2.79893e-06 0)
(5.91348e-08 -2.81241e-06 0)
(5.90299e-08 -2.82551e-06 0)
(5.89272e-08 -2.83825e-06 0)
(5.88268e-08 -2.85063e-06 0)
(5.87287e-08 -2.86265e-06 0)
(5.86334e-08 -2.87421e-06 0)
(5.85406e-08 -2.88543e-06 0)
(5.84487e-08 -2.89652e-06 0)
(5.83571e-08 -2.90756e-06 0)
(5.82656e-08 -2.91855e-06 0)
(5.81742e-08 -2.92948e-06 0)
(5.80828e-08 -2.94033e-06 0)
(5.79916e-08 -2.95111e-06 0)
(5.79005e-08 -2.96183e-06 0)
(5.78094e-08 -2.97248e-06 0)
(5.77185e-08 -2.98307e-06 0)
(5.76276e-08 -2.99359e-06 0)
(5.75369e-08 -3.00405e-06 0)
(5.74463e-08 -3.01445e-06 0)
(5.73557e-08 -3.02478e-06 0)
(5.72653e-08 -3.03504e-06 0)
(5.7175e-08 -3.04525e-06 0)
(5.70849e-08 -3.05539e-06 0)
(5.69948e-08 -3.06547e-06 0)
(5.69049e-08 -3.07548e-06 0)
(5.68152e-08 -3.08544e-06 0)
(5.67255e-08 -3.09532e-06 0)
(5.66363e-08 -3.10519e-06 0)
(5.65469e-08 -3.11486e-06 0)
(5.64614e-08 -3.12372e-06 0)
(5.6384e-08 -3.13177e-06 0)
(5.63103e-08 -3.1396e-06 0)
(5.62368e-08 -3.14744e-06 0)
(5.61632e-08 -3.15537e-06 0)
(5.60893e-08 -3.16332e-06 0)
(5.6015e-08 -3.17127e-06 0)
(5.59403e-08 -3.17921e-06 0)
(5.58653e-08 -3.18716e-06 0)
(5.579e-08 -3.19512e-06 0)
(5.57143e-08 -3.20309e-06 0)
(5.56383e-08 -3.21107e-06 0)
(5.55619e-08 -3.21906e-06 0)
(5.54851e-08 -3.22705e-06 0)
(5.5408e-08 -3.23506e-06 0)
(5.53306e-08 -3.24307e-06 0)
(5.52527e-08 -3.25108e-06 0)
(5.51746e-08 -3.25911e-06 0)
(5.5096e-08 -3.26714e-06 0)
(5.50171e-08 -3.27518e-06 0)
(5.49379e-08 -3.28323e-06 0)
(5.48582e-08 -3.29128e-06 0)
(5.47783e-08 -3.29934e-06 0)
(5.46979e-08 -3.30741e-06 0)
(5.46172e-08 -3.31549e-06 0)
(5.45361e-08 -3.32357e-06 0)
(5.44547e-08 -3.33166e-06 0)
(5.43729e-08 -3.33976e-06 0)
(5.42907e-08 -3.34786e-06 0)
(5.42081e-08 -3.35597e-06 0)
(5.41252e-08 -3.36409e-06 0)
(5.40419e-08 -3.37221e-06 0)
(5.39582e-08 -3.38034e-06 0)
(5.38742e-08 -3.38848e-06 0)
(5.37898e-08 -3.39663e-06 0)
(5.3705e-08 -3.40478e-06 0)
(5.36198e-08 -3.41293e-06 0)
(5.35343e-08 -3.4211e-06 0)
(5.34483e-08 -3.42926e-06 0)
(5.3362e-08 -3.43744e-06 0)
(5.32753e-08 -3.44562e-06 0)
(5.31883e-08 -3.45381e-06 0)
(5.31008e-08 -3.462e-06 0)
(5.3013e-08 -3.4702e-06 0)
(5.29248e-08 -3.4784e-06 0)
(5.28362e-08 -3.48661e-06 0)
(5.27472e-08 -3.49483e-06 0)
(5.26578e-08 -3.50305e-06 0)
(5.25681e-08 -3.51127e-06 0)
(5.24779e-08 -3.51951e-06 0)
(5.23874e-08 -3.52774e-06 0)
(5.22965e-08 -3.53598e-06 0)
(5.22052e-08 -3.54423e-06 0)
(5.21135e-08 -3.55248e-06 0)
(5.20214e-08 -3.56074e-06 0)
(5.19289e-08 -3.569e-06 0)
(5.1836e-08 -3.57727e-06 0)
(5.17427e-08 -3.58554e-06 0)
(5.1649e-08 -3.59381e-06 0)
(5.1555e-08 -3.60209e-06 0)
(5.14605e-08 -3.61038e-06 0)
(5.13656e-08 -3.61867e-06 0)
(5.12704e-08 -3.62696e-06 0)
(5.11747e-08 -3.63526e-06 0)
(5.10786e-08 -3.64356e-06 0)
(5.09822e-08 -3.65186e-06 0)
(5.08853e-08 -3.66017e-06 0)
(5.0788e-08 -3.66848e-06 0)
(5.06904e-08 -3.6768e-06 0)
(5.05923e-08 -3.68512e-06 0)
(5.04938e-08 -3.69344e-06 0)
(5.03949e-08 -3.70177e-06 0)
(5.02956e-08 -3.7101e-06 0)
(5.0196e-08 -3.71843e-06 0)
(5.00959e-08 -3.72676e-06 0)
(4.99954e-08 -3.7351e-06 0)
(4.98945e-08 -3.74344e-06 0)
(4.97931e-08 -3.75179e-06 0)
(4.96914e-08 -3.76013e-06 0)
(4.95893e-08 -3.76848e-06 0)
(4.94868e-08 -3.77684e-06 0)
(4.93838e-08 -3.78519e-06 0)
(4.92805e-08 -3.79355e-06 0)
(4.91767e-08 -3.8019e-06 0)
(4.90725e-08 -3.81026e-06 0)
(4.8968e-08 -3.81863e-06 0)
(4.8863e-08 -3.82699e-06 0)
(4.87576e-08 -3.83536e-06 0)
(4.86517e-08 -3.84372e-06 0)
(4.85455e-08 -3.85209e-06 0)
(4.84389e-08 -3.86046e-06 0)
(4.83318e-08 -3.86884e-06 0)
(4.82244e-08 -3.87721e-06 0)
(4.81165e-08 -3.88558e-06 0)
(4.80082e-08 -3.89396e-06 0)
(4.78995e-08 -3.90233e-06 0)
(4.77904e-08 -3.91071e-06 0)
(4.76809e-08 -3.91908e-06 0)
(4.7571e-08 -3.92746e-06 0)
(4.74607e-08 -3.93584e-06 0)
(4.73499e-08 -3.94422e-06 0)
(4.72387e-08 -3.95259e-06 0)
(4.71272e-08 -3.96097e-06 0)
(4.70152e-08 -3.96935e-06 0)
(4.69028e-08 -3.97773e-06 0)
(4.679e-08 -3.9861e-06 0)
(4.66767e-08 -3.99448e-06 0)
(4.65631e-08 -4.00286e-06 0)
(4.64491e-08 -4.01123e-06 0)
(4.63346e-08 -4.01961e-06 0)
(4.62197e-08 -4.02798e-06 0)
(4.61045e-08 -4.03635e-06 0)
(4.59888e-08 -4.04472e-06 0)
(4.58727e-08 -4.05309e-06 0)
(4.57562e-08 -4.06146e-06 0)
(4.56392e-08 -4.06982e-06 0)
(4.55219e-08 -4.07819e-06 0)
(4.54042e-08 -4.08655e-06 0)
(4.5286e-08 -4.09491e-06 0)
(4.51674e-08 -4.10327e-06 0)
(4.50485e-08 -4.11163e-06 0)
(4.49291e-08 -4.11998e-06 0)
(4.48093e-08 -4.12833e-06 0)
(4.46891e-08 -4.13668e-06 0)
(4.45685e-08 -4.14502e-06 0)
(4.44475e-08 -4.15337e-06 0)
(4.43261e-08 -4.16171e-06 0)
(4.42043e-08 -4.17004e-06 0)
(4.40821e-08 -4.17838e-06 0)
(4.39594e-08 -4.1867e-06 0)
(4.38364e-08 -4.19503e-06 0)
(4.3713e-08 -4.20335e-06 0)
(4.35891e-08 -4.21167e-06 0)
(4.34649e-08 -4.21998e-06 0)
(4.33403e-08 -4.22829e-06 0)
(4.32152e-08 -4.2366e-06 0)
(4.30898e-08 -4.2449e-06 0)
(4.2964e-08 -4.2532e-06 0)
(4.28377e-08 -4.26149e-06 0)
(4.27111e-08 -4.26977e-06 0)
(4.25841e-08 -4.27805e-06 0)
(4.24566e-08 -4.28633e-06 0)
(4.23288e-08 -4.2946e-06 0)
(4.22006e-08 -4.30286e-06 0)
(4.2072e-08 -4.31112e-06 0)
(4.1943e-08 -4.31938e-06 0)
(4.18136e-08 -4.32762e-06 0)
(4.16838e-08 -4.33587e-06 0)
(4.15537e-08 -4.3441e-06 0)
(4.14231e-08 -4.35233e-06 0)
(4.12922e-08 -4.36055e-06 0)
(4.11609e-08 -4.36877e-06 0)
(4.10291e-08 -4.37697e-06 0)
(4.08971e-08 -4.38518e-06 0)
(4.07646e-08 -4.39337e-06 0)
(4.06317e-08 -4.40156e-06 0)
(4.04985e-08 -4.40973e-06 0)
(4.03649e-08 -4.41791e-06 0)
(4.02309e-08 -4.42607e-06 0)
(4.00965e-08 -4.43423e-06 0)
(3.99618e-08 -4.44237e-06 0)
(3.98267e-08 -4.45051e-06 0)
(3.96912e-08 -4.45864e-06 0)
(3.95554e-08 -4.46676e-06 0)
(3.94191e-08 -4.47488e-06 0)
(3.92826e-08 -4.48298e-06 0)
(3.91456e-08 -4.49107e-06 0)
(3.90083e-08 -4.49916e-06 0)
(3.88706e-08 -4.50724e-06 0)
(3.87326e-08 -4.51531e-06 0)
(3.85943e-08 -4.52335e-06 0)
(3.84559e-08 -4.53142e-06 0)
(3.83185e-08 -4.5394e-06 0)
(3.81828e-08 -4.54699e-06 0)
(3.80527e-08 -4.55424e-06 0)
(3.79268e-08 -4.56141e-06 0)
(3.77996e-08 -4.56863e-06 0)
(3.76714e-08 -4.57595e-06 0)
(3.75417e-08 -4.58333e-06 0)
(3.74106e-08 -4.59076e-06 0)
(3.7278e-08 -4.59823e-06 0)
(3.7144e-08 -4.60576e-06 0)
(3.70085e-08 -4.61335e-06 0)
(3.68715e-08 -4.62099e-06 0)
(3.6733e-08 -4.62869e-06 0)
(3.6593e-08 -4.63644e-06 0)
(3.64515e-08 -4.64424e-06 0)
(3.63084e-08 -4.6521e-06 0)
(3.61638e-08 -4.66001e-06 0)
(3.60177e-08 -4.66797e-06 0)
(3.58699e-08 -4.67599e-06 0)
(3.57206e-08 -4.68407e-06 0)
(3.55696e-08 -4.69219e-06 0)
(3.54171e-08 -4.70037e-06 0)
(3.52629e-08 -4.7086e-06 0)
(3.5107e-08 -4.71689e-06 0)
(3.49495e-08 -4.72523e-06 0)
(3.47904e-08 -4.73362e-06 0)
(3.46296e-08 -4.74206e-06 0)
(3.4467e-08 -4.75056e-06 0)
(3.43028e-08 -4.7591e-06 0)
(3.41369e-08 -4.7677e-06 0)
(3.39692e-08 -4.77635e-06 0)
(3.37998e-08 -4.78505e-06 0)
(3.36286e-08 -4.7938e-06 0)
(3.34557e-08 -4.8026e-06 0)
(3.3281e-08 -4.81145e-06 0)
(3.31045e-08 -4.82035e-06 0)
(3.29262e-08 -4.82929e-06 0)
(3.27461e-08 -4.83829e-06 0)
(3.25642e-08 -4.84733e-06 0)
(3.23804e-08 -4.85642e-06 0)
(3.21948e-08 -4.86556e-06 0)
(3.20074e-08 -4.87474e-06 0)
(3.18181e-08 -4.88397e-06 0)
(3.16269e-08 -4.89324e-06 0)
(3.14338e-08 -4.90255e-06 0)
(3.12389e-08 -4.91191e-06 0)
(3.10421e-08 -4.92131e-06 0)
(3.08433e-08 -4.93076e-06 0)
(3.06427e-08 -4.94024e-06 0)
(3.04401e-08 -4.94977e-06 0)
(3.02356e-08 -4.95933e-06 0)
(3.00291e-08 -4.96893e-06 0)
(2.98207e-08 -4.97857e-06 0)
(2.96104e-08 -4.98825e-06 0)
(2.93981e-08 -4.99796e-06 0)
(2.91839e-08 -5.00771e-06 0)
(2.89677e-08 -5.01748e-06 0)
(2.87496e-08 -5.0273e-06 0)
(2.85295e-08 -5.03714e-06 0)
(2.83074e-08 -5.04701e-06 0)
(2.80833e-08 -5.05691e-06 0)
(2.78573e-08 -5.06685e-06 0)
(2.76293e-08 -5.0768e-06 0)
(2.73993e-08 -5.08678e-06 0)
(2.71673e-08 -5.09678e-06 0)
(2.69334e-08 -5.10681e-06 0)
(2.66975e-08 -5.11686e-06 0)
(2.64597e-08 -5.12693e-06 0)
(2.62199e-08 -5.13701e-06 0)
(2.59781e-08 -5.14711e-06 0)
(2.57344e-08 -5.15723e-06 0)
(2.54888e-08 -5.16736e-06 0)
(2.52411e-08 -5.1775e-06 0)
(2.49916e-08 -5.18765e-06 0)
(2.47402e-08 -5.1978e-06 0)
(2.44868e-08 -5.20797e-06 0)
(2.42316e-08 -5.21814e-06 0)
(2.39744e-08 -5.22831e-06 0)
(2.37154e-08 -5.23848e-06 0)
(2.34546e-08 -5.24865e-06 0)
(2.31918e-08 -5.25881e-06 0)
(2.29273e-08 -5.26897e-06 0)
(2.2661e-08 -5.27912e-06 0)
(2.23928e-08 -5.28926e-06 0)
(2.21229e-08 -5.29939e-06 0)
(2.18513e-08 -5.3095e-06 0)
(2.15779e-08 -5.3196e-06 0)
(2.13028e-08 -5.32968e-06 0)
(2.10261e-08 -5.33973e-06 0)
(2.07477e-08 -5.34977e-06 0)
(2.04676e-08 -5.35977e-06 0)
(2.0186e-08 -5.36974e-06 0)
(1.99029e-08 -5.37968e-06 0)
(1.96182e-08 -5.3896e-06 0)
(1.9332e-08 -5.39946e-06 0)
(1.90443e-08 -5.4093e-06 0)
(1.87553e-08 -5.41908e-06 0)
(1.84648e-08 -5.42883e-06 0)
(1.8173e-08 -5.43852e-06 0)
(1.78799e-08 -5.44817e-06 0)
(1.75856e-08 -5.45775e-06 0)
(1.729e-08 -5.46729e-06 0)
(1.69933e-08 -5.47676e-06 0)
(1.66955e-08 -5.48617e-06 0)
(1.63966e-08 -5.49551e-06 0)
(1.60966e-08 -5.50478e-06 0)
(1.57957e-08 -5.51397e-06 0)
(1.5494e-08 -5.5231e-06 0)
(1.51913e-08 -5.53214e-06 0)
(1.48879e-08 -5.5411e-06 0)
(1.45837e-08 -5.54997e-06 0)
(1.42789e-08 -5.55876e-06 0)
(1.39734e-08 -5.56745e-06 0)
(1.36675e-08 -5.57605e-06 0)
(1.3361e-08 -5.58454e-06 0)
(1.30541e-08 -5.59294e-06 0)
(1.27469e-08 -5.60122e-06 0)
(1.24395e-08 -5.60941e-06 0)
(1.21318e-08 -5.61746e-06 0)
(1.1824e-08 -5.62542e-06 0)
(1.15162e-08 -5.63324e-06 0)
(1.12084e-08 -5.64094e-06 0)
(1.09008e-08 -5.64851e-06 0)
(1.05933e-08 -5.65596e-06 0)
(1.02861e-08 -5.66326e-06 0)
(9.97934e-09 -5.67044e-06 0)
(9.67297e-09 -5.67746e-06 0)
(9.36715e-09 -5.68434e-06 0)
(9.06195e-09 -5.69107e-06 0)
(8.75748e-09 -5.69766e-06 0)
(8.45379e-09 -5.70407e-06 0)
(8.15102e-09 -5.71034e-06 0)
(7.84923e-09 -5.71644e-06 0)
(7.54853e-09 -5.72238e-06 0)
(7.249e-09 -5.72813e-06 0)
(6.95076e-09 -5.73373e-06 0)
(6.65387e-09 -5.73913e-06 0)
(6.35847e-09 -5.74437e-06 0)
(6.06462e-09 -5.74941e-06 0)
(5.77245e-09 -5.75428e-06 0)
(5.48203e-09 -5.75894e-06 0)
(5.19348e-09 -5.76343e-06 0)
(4.90689e-09 -5.7677e-06 0)
(4.62237e-09 -5.77179e-06 0)
(4.34001e-09 -5.77566e-06 0)
(4.05992e-09 -5.77934e-06 0)
(3.78219e-09 -5.7828e-06 0)
(3.50694e-09 -5.78606e-06 0)
(3.23424e-09 -5.78909e-06 0)
(2.96422e-09 -5.79192e-06 0)
(2.69696e-09 -5.79451e-06 0)
(2.43257e-09 -5.7969e-06 0)
(2.17115e-09 -5.79905e-06 0)
(1.91279e-09 -5.80099e-06 0)
(1.65758e-09 -5.80269e-06 0)
(1.40564e-09 -5.80417e-06 0)
(1.15704e-09 -5.8054e-06 0)
(9.11885e-10 -5.80642e-06 0)
(6.7026e-10 -5.80718e-06 0)
(4.32261e-10 -5.80773e-06 0)
(1.97971e-10 -5.80801e-06 0)
(-3.25214e-11 -5.80808e-06 0)
(-2.59133e-10 -5.80788e-06 0)
(-4.81784e-10 -5.80746e-06 0)
(-7.00391e-10 -5.80678e-06 0)
(-9.14881e-10 -5.80588e-06 0)
(-1.12517e-09 -5.8047e-06 0)
(-1.3312e-09 -5.80331e-06 0)
(-1.53289e-09 -5.80165e-06 0)
(-1.73017e-09 -5.79977e-06 0)
(-1.92298e-09 -5.79761e-06 0)
(-2.11126e-09 -5.79524e-06 0)
(-2.29493e-09 -5.79259e-06 0)
(-2.47397e-09 -5.78973e-06 0)
(-2.64827e-09 -5.78659e-06 0)
(-2.81782e-09 -5.78324e-06 0)
(-2.98253e-09 -5.77962e-06 0)
(-3.1424e-09 -5.77579e-06 0)
(-3.29726e-09 -5.77169e-06 0)
(-3.44747e-09 -5.76739e-06 0)
(-3.59159e-09 -5.76279e-06 0)
(-3.73621e-09 -5.75798e-06 0)
(-3.88551e-09 -5.75241e-06 0)
(-4.03547e-09 -5.74602e-06 0)
(-4.18154e-09 -5.73928e-06 0)
(-4.31918e-09 -5.73238e-06 0)
(-4.44828e-09 -5.72523e-06 0)
(-4.56903e-09 -5.71792e-06 0)
(-4.68156e-09 -5.71038e-06 0)
(-4.78614e-09 -5.70271e-06 0)
(-4.88296e-09 -5.69483e-06 0)
(-4.97235e-09 -5.68685e-06 0)
(-5.05449e-09 -5.67868e-06 0)
(-5.1297e-09 -5.67043e-06 0)
(-5.19812e-09 -5.66202e-06 0)
(-5.26007e-09 -5.65355e-06 0)
(-5.31569e-09 -5.64494e-06 0)
(-5.36528e-09 -5.6363e-06 0)
(-5.40895e-09 -5.62753e-06 0)
(-5.447e-09 -5.61874e-06 0)
(-5.47954e-09 -5.60985e-06 0)
(-5.50683e-09 -5.60095e-06 0)
(-5.52897e-09 -5.59197e-06 0)
(-5.54623e-09 -5.58301e-06 0)
(-5.55868e-09 -5.57398e-06 0)
(-5.56658e-09 -5.56497e-06 0)
(-5.56998e-09 -5.55591e-06 0)
(-5.56914e-09 -5.5469e-06 0)
(-5.56409e-09 -5.53784e-06 0)
(-5.55508e-09 -5.52885e-06 0)
(-5.54215e-09 -5.51982e-06 0)
(-5.5255e-09 -5.51087e-06 0)
(-5.50518e-09 -5.50189e-06 0)
(-5.48139e-09 -5.49301e-06 0)
(-5.45416e-09 -5.48411e-06 0)
(-5.42368e-09 -5.47531e-06 0)
(-5.38997e-09 -5.46652e-06 0)
(-5.35321e-09 -5.45783e-06 0)
(-5.31342e-09 -5.44915e-06 0)
(-5.27077e-09 -5.44059e-06 0)
(-5.22526e-09 -5.43206e-06 0)
(-5.17708e-09 -5.42364e-06 0)
(-5.1262e-09 -5.41526e-06 0)
(-5.0728e-09 -5.40701e-06 0)
(-5.01687e-09 -5.39881e-06 0)
(-4.95856e-09 -5.39074e-06 0)
(-4.89786e-09 -5.38272e-06 0)
(-4.83491e-09 -5.37485e-06 0)
(-4.76971e-09 -5.36704e-06 0)
(-4.70239e-09 -5.35938e-06 0)
(-4.63293e-09 -5.35179e-06 0)
(-4.56147e-09 -5.34435e-06 0)
(-4.488e-09 -5.33699e-06 0)
(-4.41263e-09 -5.32979e-06 0)
(-4.33535e-09 -5.32267e-06 0)
(-4.25627e-09 -5.31573e-06 0)
(-4.17539e-09 -5.30887e-06 0)
(-4.09281e-09 -5.30218e-06 0)
(-4.00851e-09 -5.29559e-06 0)
(-3.92261e-09 -5.28917e-06 0)
(-3.83509e-09 -5.28286e-06 0)
(-3.74605e-09 -5.27673e-06 0)
(-3.65548e-09 -5.2707e-06 0)
(-3.56347e-09 -5.26487e-06 0)
(-3.47001e-09 -5.25914e-06 0)
(-3.37521e-09 -5.2536e-06 0)
(-3.27904e-09 -5.24819e-06 0)
(-3.18159e-09 -5.24296e-06 0)
(-3.08287e-09 -5.23786e-06 0)
(-2.98296e-09 -5.23295e-06 0)
(-2.88185e-09 -5.22817e-06 0)
(-2.77962e-09 -5.22359e-06 0)
(-2.67627e-09 -5.21915e-06 0)
(-2.57189e-09 -5.2149e-06 0)
(-2.46648e-09 -5.2108e-06 0)
(-2.3601e-09 -5.20689e-06 0)
(-2.25278e-09 -5.20313e-06 0)
(-2.14457e-09 -5.19957e-06 0)
(-2.0355e-09 -5.19616e-06 0)
(-1.92561e-09 -5.19295e-06 0)
(-1.81495e-09 -5.1899e-06 0)
(-1.70355e-09 -5.18704e-06 0)
(-1.59146e-09 -5.18436e-06 0)
(-1.47871e-09 -5.18186e-06 0)
(-1.36535e-09 -5.17954e-06 0)
(-1.25143e-09 -5.17742e-06 0)
(-1.13698e-09 -5.17546e-06 0)
(-1.02206e-09 -5.17373e-06 0)
(-9.06708e-10 -5.17204e-06 0)
(-7.91008e-10 -5.17102e-06 0)
(-6.74965e-10 -5.16861e-06 0)
(-5.58811e-10 -5.17153e-06 0)
(-4.42139e-10 -5.15726e-06 0)
(-3.26278e-10 -5.19861e-06 0)
(-2.08476e-10 -5.04254e-06 0)
(-9.33537e-11 -5.45646e-06 0)
(-1.94024e-11 -4.76562e-06 0)
)
;
    }
    bottomWall
    {
        type            calculated;
        value           nonuniform List<vector> 
449
(
(-52.688 -0.955402 0)
(-34.7304 -0.0027963 0)
(-34.3452 -0.000253929 0)
(-32.9829 -0.000363415 0)
(-31.8572 -0.000315163 0)
(-30.8214 -0.000284051 0)
(-29.9051 -0.000249059 0)
(-29.1061 -0.000217173 0)
(-28.406 -0.000190658 0)
(-27.7871 -0.000168917 0)
(-27.2349 -0.000150918 0)
(-26.7384 -0.000135831 0)
(-26.2889 -0.000123189 0)
(-25.8785 -0.000112515 0)
(-25.5017 -0.000103308 0)
(-25.1541 -9.53082e-05 0)
(-24.8318 -8.83214e-05 0)
(-24.5319 -8.21895e-05 0)
(-24.2515 -7.67867e-05 0)
(-23.9885 -7.19686e-05 0)
(-23.741 -6.76469e-05 0)
(-23.5075 -6.3759e-05 0)
(-23.2866 -6.02521e-05 0)
(-23.0771 -5.70712e-05 0)
(-22.878 -5.41744e-05 0)
(-22.6884 -5.15172e-05 0)
(-22.5075 -4.9082e-05 0)
(-22.3345 -4.68419e-05 0)
(-22.169 -4.47764e-05 0)
(-22.0102 -4.28605e-05 0)
(-21.8578 -4.10838e-05 0)
(-21.7113 -3.94308e-05 0)
(-21.5702 -3.78928e-05 0)
(-21.4342 -3.64513e-05 0)
(-21.3031 -3.51059e-05 0)
(-21.1764 -3.38409e-05 0)
(-21.0539 -3.26576e-05 0)
(-20.9354 -3.15476e-05 0)
(-20.8206 -3.04999e-05 0)
(-20.7093 -2.95124e-05 0)
(-20.6013 -2.85805e-05 0)
(-20.4964 -2.77016e-05 0)
(-20.3944 -2.6867e-05 0)
(-20.2953 -2.60721e-05 0)
(-20.1989 -2.53165e-05 0)
(-20.1049 -2.45916e-05 0)
(-20.0135 -2.39007e-05 0)
(-19.9244 -2.32434e-05 0)
(-19.8375 -2.2607e-05 0)
(-19.7528 -2.20071e-05 0)
(-19.6701 -2.14284e-05 0)
(-19.5894 -2.08761e-05 0)
(-19.5105 -2.03516e-05 0)
(-19.4335 -1.98445e-05 0)
(-19.3582 -1.93631e-05 0)
(-19.2845 -1.8899e-05 0)
(-19.2123 -1.84574e-05 0)
(-19.1417 -1.80327e-05 0)
(-19.0726 -1.76256e-05 0)
(-19.0048 -1.72342e-05 0)
(-18.9384 -1.68577e-05 0)
(-18.8732 -1.64966e-05 0)
(-18.8093 -1.61472e-05 0)
(-18.7465 -1.58131e-05 0)
(-18.685 -1.54884e-05 0)
(-18.6245 -1.51779e-05 0)
(-18.5651 -1.48754e-05 0)
(-18.5067 -1.45849e-05 0)
(-18.4493 -1.43035e-05 0)
(-18.393 -1.40296e-05 0)
(-18.3375 -1.37681e-05 0)
(-18.2829 -1.35095e-05 0)
(-18.2293 -1.32643e-05 0)
(-18.1764 -1.30223e-05 0)
(-18.1245 -1.27892e-05 0)
(-18.0733 -1.25637e-05 0)
(-18.0229 -1.23415e-05 0)
(-17.9732 -1.21301e-05 0)
(-17.9243 -1.19208e-05 0)
(-17.8762 -1.1719e-05 0)
(-17.8287 -1.15238e-05 0)
(-17.7819 -1.13308e-05 0)
(-17.7357 -1.11462e-05 0)
(-17.6903 -1.09649e-05 0)
(-17.6454 -1.07875e-05 0)
(-17.6012 -1.06171e-05 0)
(-17.5575 -1.0449e-05 0)
(-17.5145 -1.02857e-05 0)
(-17.472 -1.01279e-05 0)
(-17.43 -9.97174e-06 0)
(-17.3886 -9.82085e-06 0)
(-17.3478 -9.67435e-06 0)
(-17.3074 -9.52945e-06 0)
(-17.2676 -9.38951e-06 0)
(-17.2282 -9.25316e-06 0)
(-17.1893 -9.11854e-06 0)
(-17.1509 -8.98828e-06 0)
(-17.113 -8.86131e-06 0)
(-17.0755 -8.73593e-06 0)
(-17.0384 -8.61441e-06 0)
(-17.0018 -8.49591e-06 0)
(-16.9655 -8.37903e-06 0)
(-16.9297 -8.26532e-06 0)
(-16.8943 -8.15458e-06 0)
(-16.8593 -8.04545e-06 0)
(-16.8247 -7.93884e-06 0)
(-16.7904 -7.83505e-06 0)
(-16.7565 -7.73305e-06 0)
(-16.723 -7.63294e-06 0)
(-16.6898 -7.53542e-06 0)
(-16.657 -7.43988e-06 0)
(-16.6245 -7.34582e-06 0)
(-16.5924 -7.25403e-06 0)
(-16.5605 -7.16427e-06 0)
(-16.529 -7.07593e-06 0)
(-16.4978 -6.98933e-06 0)
(-16.4669 -6.90476e-06 0)
(-16.4363 -6.82171e-06 0)
(-16.4061 -6.74003e-06 0)
(-16.376 -6.66008e-06 0)
(-16.3463 -6.5818e-06 0)
(-16.3169 -6.50475e-06 0)
(-16.2877 -6.42914e-06 0)
(-16.2588 -6.35508e-06 0)
(-16.2302 -6.28244e-06 0)
(-16.2018 -6.21088e-06 0)
(-16.1737 -6.14073e-06 0)
(-16.1458 -6.07189e-06 0)
(-16.1182 -6.00429e-06 0)
(-16.0908 -5.93773e-06 0)
(-16.0637 -5.87243e-06 0)
(-16.0368 -5.80829e-06 0)
(-16.0101 -5.74524e-06 0)
(-15.9837 -5.68321e-06 0)
(-15.9575 -5.62228e-06 0)
(-15.9315 -5.56241e-06 0)
(-15.9057 -5.50353e-06 0)
(-15.8801 -5.4456e-06 0)
(-15.8547 -5.38864e-06 0)
(-15.8296 -5.33265e-06 0)
(-15.8046 -5.27753e-06 0)
(-15.7798 -5.22332e-06 0)
(-15.7553 -5.16994e-06 0)
(-15.7309 -5.11747e-06 0)
(-15.7067 -5.06578e-06 0)
(-15.6827 -5.01497e-06 0)
(-15.6589 -4.96487e-06 0)
(-15.6353 -4.91562e-06 0)
(-15.6118 -4.86707e-06 0)
(-15.5885 -4.81937e-06 0)
(-15.5654 -4.7723e-06 0)
(-15.5425 -4.72601e-06 0)
(-15.5197 -4.68035e-06 0)
(-15.4971 -4.63546e-06 0)
(-15.4747 -4.59116e-06 0)
(-15.4524 -4.54757e-06 0)
(-15.4303 -4.50455e-06 0)
(-15.4084 -4.46224e-06 0)
(-15.3866 -4.42048e-06 0)
(-15.3649 -4.37937e-06 0)
(-15.3434 -4.33878e-06 0)
(-15.3221 -4.29884e-06 0)
(-15.3009 -4.25944e-06 0)
(-15.2798 -4.22061e-06 0)
(-15.2589 -4.1823e-06 0)
(-15.2381 -4.14451e-06 0)
(-15.2175 -4.10736e-06 0)
(-15.197 -4.07058e-06 0)
(-15.1766 -4.03452e-06 0)
(-15.1564 -3.99859e-06 0)
(-15.1363 -3.96354e-06 0)
(-15.1163 -3.92865e-06 0)
(-15.0964 -3.89226e-06 0)
(-15.0778 -3.86235e-06 0)
(-15.0603 -3.83561e-06 0)
(-15.0428 -3.80451e-06 0)
(-15.0252 -3.77411e-06 0)
(-15.0075 -3.74429e-06 0)
(-14.9898 -3.71439e-06 0)
(-14.972 -3.68483e-06 0)
(-14.9542 -3.65536e-06 0)
(-14.9364 -3.62607e-06 0)
(-14.9184 -3.59691e-06 0)
(-14.9005 -3.56783e-06 0)
(-14.8825 -3.53889e-06 0)
(-14.8644 -3.51005e-06 0)
(-14.8463 -3.48139e-06 0)
(-14.8282 -3.45281e-06 0)
(-14.81 -3.42438e-06 0)
(-14.7918 -3.396e-06 0)
(-14.7735 -3.36779e-06 0)
(-14.7551 -3.3397e-06 0)
(-14.7368 -3.31176e-06 0)
(-14.7183 -3.2839e-06 0)
(-14.6999 -3.25617e-06 0)
(-14.6814 -3.22858e-06 0)
(-14.6628 -3.20113e-06 0)
(-14.6443 -3.17379e-06 0)
(-14.6256 -3.14655e-06 0)
(-14.607 -3.11945e-06 0)
(-14.5882 -3.09249e-06 0)
(-14.5695 -3.06568e-06 0)
(-14.5507 -3.03898e-06 0)
(-14.5319 -3.0124e-06 0)
(-14.513 -2.98596e-06 0)
(-14.4941 -2.95967e-06 0)
(-14.4752 -2.9335e-06 0)
(-14.4562 -2.90747e-06 0)
(-14.4372 -2.88154e-06 0)
(-14.4181 -2.85581e-06 0)
(-14.3991 -2.83017e-06 0)
(-14.38 -2.8047e-06 0)
(-14.3608 -2.7793e-06 0)
(-14.3416 -2.75411e-06 0)
(-14.3224 -2.729e-06 0)
(-14.3032 -2.70411e-06 0)
(-14.2839 -2.67925e-06 0)
(-14.2646 -2.65465e-06 0)
(-14.2453 -2.63009e-06 0)
(-14.2259 -2.6058e-06 0)
(-14.2065 -2.58151e-06 0)
(-14.1871 -2.55748e-06 0)
(-14.1676 -2.53349e-06 0)
(-14.1482 -2.50977e-06 0)
(-14.1287 -2.48605e-06 0)
(-14.1091 -2.46261e-06 0)
(-14.0896 -2.43916e-06 0)
(-14.07 -2.41602e-06 0)
(-14.0504 -2.39289e-06 0)
(-14.0308 -2.37e-06 0)
(-14.0111 -2.34717e-06 0)
(-13.9915 -2.32459e-06 0)
(-13.9718 -2.30206e-06 0)
(-13.952 -2.27976e-06 0)
(-13.9323 -2.25752e-06 0)
(-13.9126 -2.23553e-06 0)
(-13.8928 -2.21359e-06 0)
(-13.873 -2.19187e-06 0)
(-13.8532 -2.17023e-06 0)
(-13.8334 -2.1488e-06 0)
(-13.8135 -2.12745e-06 0)
(-13.7937 -2.10631e-06 0)
(-13.7738 -2.08526e-06 0)
(-13.7539 -2.06441e-06 0)
(-13.734 -2.0437e-06 0)
(-13.7141 -2.02312e-06 0)
(-13.6941 -2.00269e-06 0)
(-13.6742 -1.98243e-06 0)
(-13.6542 -1.96231e-06 0)
(-13.6343 -1.9423e-06 0)
(-13.6143 -1.92248e-06 0)
(-13.5943 -1.90277e-06 0)
(-13.5743 -1.88328e-06 0)
(-13.5543 -1.86382e-06 0)
(-13.5342 -1.84463e-06 0)
(-13.5142 -1.82548e-06 0)
(-13.4942 -1.80659e-06 0)
(-13.4741 -1.78771e-06 0)
(-13.4541 -1.76912e-06 0)
(-13.434 -1.75055e-06 0)
(-13.414 -1.73224e-06 0)
(-13.3939 -1.71393e-06 0)
(-13.3738 -1.69593e-06 0)
(-13.3538 -1.67793e-06 0)
(-13.3337 -1.6602e-06 0)
(-13.3136 -1.64246e-06 0)
(-13.2935 -1.62505e-06 0)
(-13.2734 -1.60759e-06 0)
(-13.2533 -1.59044e-06 0)
(-13.2333 -1.57326e-06 0)
(-13.2132 -1.55644e-06 0)
(-13.1931 -1.53954e-06 0)
(-13.173 -1.52298e-06 0)
(-13.1529 -1.50634e-06 0)
(-13.1328 -1.49008e-06 0)
(-13.1128 -1.47375e-06 0)
(-13.0927 -1.45774e-06 0)
(-13.0726 -1.44169e-06 0)
(-13.0526 -1.42596e-06 0)
(-13.0325 -1.41018e-06 0)
(-13.0124 -1.3947e-06 0)
(-12.9924 -1.37921e-06 0)
(-12.9723 -1.36403e-06 0)
(-12.9523 -1.3488e-06 0)
(-12.9323 -1.33386e-06 0)
(-12.9122 -1.31892e-06 0)
(-12.8923 -1.30425e-06 0)
(-12.8722 -1.28957e-06 0)
(-12.8523 -1.27514e-06 0)
(-12.8322 -1.26075e-06 0)
(-12.8123 -1.24656e-06 0)
(-12.7923 -1.23244e-06 0)
(-12.7724 -1.21854e-06 0)
(-12.7524 -1.20466e-06 0)
(-12.7325 -1.19099e-06 0)
(-12.7126 -1.1774e-06 0)
(-12.6927 -1.16397e-06 0)
(-12.6728 -1.15065e-06 0)
(-12.6529 -1.13745e-06 0)
(-12.6331 -1.12438e-06 0)
(-12.6132 -1.11145e-06 0)
(-12.5934 -1.09862e-06 0)
(-12.5736 -1.08592e-06 0)
(-12.5538 -1.07337e-06 0)
(-12.534 -1.06091e-06 0)
(-12.5142 -1.0486e-06 0)
(-12.4945 -1.03634e-06 0)
(-12.4748 -1.02427e-06 0)
(-12.4551 -1.01227e-06 0)
(-12.4354 -1.00045e-06 0)
(-12.4157 -9.88687e-07 0)
(-12.3961 -9.77094e-07 0)
(-12.3765 -9.65548e-07 0)
(-12.3568 -9.54201e-07 0)
(-12.3373 -9.42885e-07 0)
(-12.3177 -9.31747e-07 0)
(-12.2981 -9.20655e-07 0)
(-12.2786 -9.09744e-07 0)
(-12.2591 -8.98878e-07 0)
(-12.2396 -8.88194e-07 0)
(-12.2202 -8.77536e-07 0)
(-12.2007 -8.67069e-07 0)
(-12.1814 -8.56641e-07 0)
(-12.162 -8.46394e-07 0)
(-12.1426 -8.36161e-07 0)
(-12.1233 -8.26122e-07 0)
(-12.104 -8.16118e-07 0)
(-12.0847 -8.06289e-07 0)
(-12.0655 -7.96482e-07 0)
(-12.0462 -7.86855e-07 0)
(-12.027 -7.77259e-07 0)
(-12.0078 -7.67839e-07 0)
(-11.9887 -7.58432e-07 0)
(-11.9696 -7.4921e-07 0)
(-11.9505 -7.4001e-07 0)
(-11.9315 -7.3098e-07 0)
(-11.9124 -7.21973e-07 0)
(-11.8934 -7.13122e-07 0)
(-11.8745 -7.04314e-07 0)
(-11.8555 -6.95655e-07 0)
(-11.8366 -6.87045e-07 0)
(-11.8177 -6.78569e-07 0)
(-11.7989 -6.70152e-07 0)
(-11.7801 -6.61858e-07 0)
(-11.7613 -6.53626e-07 0)
(-11.7425 -6.45496e-07 0)
(-11.7238 -6.3746e-07 0)
(-11.7051 -6.29501e-07 0)
(-11.6865 -6.21639e-07 0)
(-11.6679 -6.13828e-07 0)
(-11.6493 -6.06193e-07 0)
(-11.6307 -5.98423e-07 0)
(-11.6122 -5.91041e-07 0)
(-11.5937 -5.83624e-07 0)
(-11.5732 -5.74789e-07 0)
(-11.5509 -5.65582e-07 0)
(-11.5289 -5.57339e-07 0)
(-11.5072 -5.49261e-07 0)
(-11.4859 -5.41241e-07 0)
(-11.4649 -5.33436e-07 0)
(-11.4442 -5.25779e-07 0)
(-11.4237 -5.18315e-07 0)
(-11.4036 -5.1101e-07 0)
(-11.3837 -5.03899e-07 0)
(-11.3641 -4.96948e-07 0)
(-11.3448 -4.9017e-07 0)
(-11.3258 -4.83524e-07 0)
(-11.307 -4.77067e-07 0)
(-11.2884 -4.70728e-07 0)
(-11.2701 -4.64553e-07 0)
(-11.2521 -4.58507e-07 0)
(-11.2342 -4.52611e-07 0)
(-11.2166 -4.46829e-07 0)
(-11.1992 -4.41176e-07 0)
(-11.1821 -4.35654e-07 0)
(-11.1651 -4.30246e-07 0)
(-11.1484 -4.24957e-07 0)
(-11.1319 -4.19768e-07 0)
(-11.1156 -4.14711e-07 0)
(-11.0994 -4.09729e-07 0)
(-11.0835 -4.04872e-07 0)
(-11.0677 -4.00118e-07 0)
(-11.0522 -3.95447e-07 0)
(-11.0367 -3.90874e-07 0)
(-11.0216 -3.86404e-07 0)
(-11.0065 -3.82011e-07 0)
(-10.9917 -3.77701e-07 0)
(-10.9769 -3.73478e-07 0)
(-10.9624 -3.69342e-07 0)
(-10.948 -3.65296e-07 0)
(-10.9338 -3.61316e-07 0)
(-10.9197 -3.5742e-07 0)
(-10.9058 -3.53595e-07 0)
(-10.8921 -3.49848e-07 0)
(-10.8785 -3.46165e-07 0)
(-10.865 -3.42554e-07 0)
(-10.8516 -3.39002e-07 0)
(-10.8384 -3.35536e-07 0)
(-10.8254 -3.32103e-07 0)
(-10.8124 -3.28757e-07 0)
(-10.7996 -3.25449e-07 0)
(-10.787 -3.22222e-07 0)
(-10.7744 -3.19032e-07 0)
(-10.762 -3.15917e-07 0)
(-10.7497 -3.12834e-07 0)
(-10.7375 -3.0982e-07 0)
(-10.7254 -3.06868e-07 0)
(-10.7135 -3.03954e-07 0)
(-10.7016 -3.0109e-07 0)
(-10.6899 -2.98278e-07 0)
(-10.6783 -2.95525e-07 0)
(-10.6668 -2.92803e-07 0)
(-10.6554 -2.90149e-07 0)
(-10.6441 -2.875e-07 0)
(-10.6329 -2.84957e-07 0)
(-10.6218 -2.82382e-07 0)
(-10.6108 -2.79948e-07 0)
(-10.5998 -2.77427e-07 0)
(-10.5891 -2.75104e-07 0)
(-10.5783 -2.7263e-07 0)
(-10.5677 -2.70448e-07 0)
(-10.5571 -2.67986e-07 0)
(-10.5467 -2.65938e-07 0)
(-10.5363 -2.63507e-07 0)
(-10.5261 -2.61607e-07 0)
(-10.5158 -2.59154e-07 0)
(-10.5058 -2.57435e-07 0)
(-10.4957 -2.54956e-07 0)
(-10.4859 -2.53434e-07 0)
(-10.4759 -2.50923e-07 0)
(-10.4662 -2.49597e-07 0)
(-10.4563 -2.47062e-07 0)
(-10.4469 -2.4593e-07 0)
(-10.4371 -2.43412e-07 0)
(-10.4278 -2.42416e-07 0)
(-10.4181 -2.40029e-07 0)
(-10.4091 -2.39002e-07 0)
(-10.3994 -2.37088e-07 0)
(-10.3905 -2.35514e-07 0)
(-10.381 -2.35076e-07 0)
(-10.3721 -2.31267e-07 0)
(-10.3629 -2.35433e-07 0)
(-10.3536 -2.23946e-07 0)
(-10.3454 -2.42207e-07 0)
(-10.3346 -2.06648e-07 0)
(-10.3293 -2.62318e-07 0)
(-10.3139 -1.71817e-07 0)
(-10.3161 -2.36523e-07 0)
(-10.295 -2.77111e-07 0)
)
;
    }
    symmetry
    {
        type            symmetryPlane;
    }
    frontAndBack
    {
        type            empty;
    }
}


// ************************************************************************* //
