/*--------------------------------*- C++ -*----------------------------------*\
| =========                 |                                                 |
| \\      /  F ield         | OpenFOAM: The Open Source CFD Toolbox           |
|  \\    /   O peration     | Version:  v2012                                 |
|   \\  /    A nd           | Website:  www.openfoam.com                      |
|    \\/     M anipulation  |                                                 |
\*---------------------------------------------------------------------------*/
FoamFile
{
    version     2.0;
    format      ascii;
    class       volScalarField;
    location    "21.5";
    object      k;
}
// * * * * * * * * * * * * * * * * * * * * * * * * * * * * * * * * * * * * * //

dimensions      [0 2 -2 0 0 0 0];


internalField   nonuniform List<scalar> 
209825
(
0.00102022
0.000933839
0.000878202
0.000842247
0.000817904
0.000800596
0.000787758
0.000777935
0.000770221
0.000764048
0.000759021
0.000754874
0.00075141
0.000748491
0.000746003
0.000743875
0.000742032
0.000740433
0.000739029
0.000737807
0.000736721
0.000735765
0.000734902
0.00073415
0.000733463
0.000732852
0.000732289
0.000731803
0.000731347
0.00073095
0.000730566
0.000730257
0.000729943
0.000729665
0.000729401
0.000729194
0.000728985
0.000728807
0.000728627
0.000728501
0.000728351
0.000728224
0.000728104
0.00072803
0.00072789
0.000727802
0.000727746
0.00072771
0.000727677
0.000727639
0.000727552
0.000727525
0.000727514
0.000727491
0.000727421
0.000727475
0.000727475
0.00072747
0.000727585
0.000727595
0.000727595
0.000727685
0.000727773
0.000727924
0.000728054
0.000728221
0.000728323
0.000728478
0.000728564
0.000728718
0.000728843
0.000729046
0.000729171
0.000729375
0.000729511
0.000729741
0.000729874
0.000730134
0.000730291
0.000730594
0.000730751
0.000731079
0.000731259
0.000731635
0.000731847
0.000732293
0.000732545
0.000733077
0.000733369
0.000734032
0.000734346
0.000735434
0.000735711
0.000746806
0.000793765
0.00204389
0.00102022
0.000933838
0.000878197
0.000842239
0.000817893
0.000800582
0.000787742
0.000777918
0.000770203
0.000764028
0.000759
0.000754853
0.000751388
0.000748468
0.00074598
0.000743851
0.000742008
0.000740409
0.000739005
0.000737783
0.000736696
0.00073574
0.000734877
0.000734125
0.000733437
0.000732826
0.000732263
0.000731777
0.000731321
0.000730924
0.00073054
0.000730231
0.000729917
0.000729638
0.000729374
0.000729167
0.000728958
0.00072878
0.0007286
0.000728474
0.000728324
0.000728197
0.000728077
0.000728003
0.000727863
0.000727775
0.000727718
0.000727682
0.00072765
0.000727612
0.000727524
0.000727498
0.000727487
0.000727464
0.000727394
0.000727448
0.000727448
0.000727442
0.000727558
0.000727568
0.000727568
0.000727658
0.000727745
0.000727897
0.000728026
0.000728194
0.000728295
0.00072845
0.000728537
0.00072869
0.000728816
0.000729018
0.000729144
0.000729347
0.000729484
0.000729714
0.000729847
0.000730107
0.000730263
0.000730566
0.000730724
0.000731052
0.000731231
0.000731608
0.000731819
0.000732265
0.000732517
0.000733049
0.000733341
0.000734005
0.000734318
0.000735406
0.000735683
0.000746799
0.000793761
0.00204512
0.00102023
0.000933831
0.000878174
0.000842201
0.000817843
0.000800523
0.000787675
0.000777845
0.000770126
0.000763947
0.000758916
0.000754766
0.000751299
0.000748377
0.000745887
0.000743757
0.000741912
0.000740311
0.000738907
0.000737684
0.000736596
0.000735639
0.000734775
0.000734023
0.000733335
0.000732723
0.00073216
0.000731674
0.000731216
0.00073082
0.000730435
0.000730125
0.000729811
0.000729533
0.000729268
0.000729061
0.000728852
0.000728674
0.000728493
0.000728367
0.000728217
0.00072809
0.000727969
0.000727896
0.000727755
0.000727667
0.000727611
0.000727575
0.000727542
0.000727504
0.000727416
0.00072739
0.000727378
0.000727356
0.000727286
0.00072734
0.00072734
0.000727334
0.000727449
0.000727459
0.000727459
0.000727549
0.000727637
0.000727788
0.000727917
0.000728085
0.000728186
0.000728341
0.000728427
0.000728581
0.000728706
0.000728909
0.000729034
0.000729238
0.000729374
0.000729604
0.000729737
0.000729997
0.000730153
0.000730456
0.000730614
0.000730942
0.000731122
0.000731498
0.000731709
0.000732155
0.000732407
0.000732939
0.00073323
0.000733894
0.000734207
0.000735295
0.000735571
0.000746731
0.00079369
0.00204757
0.00102023
0.000933819
0.000878135
0.000842137
0.000817759
0.000800423
0.000787563
0.000777723
0.000769996
0.000763811
0.000758774
0.000754619
0.000751149
0.000748223
0.00074573
0.000743598
0.000741751
0.000740148
0.000738742
0.000737517
0.000736428
0.00073547
0.000734605
0.000733852
0.000733163
0.00073255
0.000731986
0.000731499
0.000731042
0.000730644
0.000730259
0.000729949
0.000729634
0.000729356
0.000729091
0.000728883
0.000728673
0.000728495
0.000728314
0.000728188
0.000728038
0.00072791
0.00072779
0.000727716
0.000727575
0.000727487
0.00072743
0.000727394
0.000727361
0.000727323
0.000727236
0.000727209
0.000727197
0.000727174
0.000727104
0.000727158
0.000727158
0.000727152
0.000727267
0.000727277
0.000727277
0.000727367
0.000727454
0.000727605
0.000727734
0.000727902
0.000728003
0.000728158
0.000728244
0.000728398
0.000728523
0.000728726
0.000728851
0.000729054
0.000729191
0.00072942
0.000729553
0.000729813
0.00072997
0.000730272
0.00073043
0.000730758
0.000730937
0.000731313
0.000731524
0.00073197
0.000732222
0.000732753
0.000733045
0.000733708
0.00073402
0.000735108
0.000735383
0.000746611
0.000793556
0.00205042
0.00102024
0.000933801
0.00087808
0.000842046
0.00081764
0.000800282
0.000787405
0.000777551
0.000769812
0.000763618
0.000758574
0.000754413
0.000750936
0.000748006
0.00074551
0.000743373
0.000741524
0.000739918
0.000738509
0.000737283
0.000736192
0.000735232
0.000734365
0.000733611
0.00073292
0.000732307
0.000731742
0.000731254
0.000730795
0.000730397
0.000730011
0.0007297
0.000729385
0.000729106
0.00072884
0.000728632
0.000728422
0.000728243
0.000728062
0.000727935
0.000727785
0.000727657
0.000727536
0.000727462
0.000727321
0.000727233
0.000727176
0.000727139
0.000727106
0.000727068
0.00072698
0.000726954
0.000726942
0.000726919
0.000726848
0.000726901
0.000726901
0.000726895
0.00072701
0.00072702
0.00072702
0.00072711
0.000727197
0.000727348
0.000727476
0.000727644
0.000727745
0.000727901
0.000727986
0.00072814
0.000728265
0.000728467
0.000728592
0.000728796
0.000728932
0.000729161
0.000729294
0.000729554
0.00072971
0.000730013
0.00073017
0.000730498
0.000730677
0.000731053
0.000731264
0.000731709
0.000731961
0.000732492
0.000732783
0.000733445
0.000733757
0.000734845
0.000735118
0.00074644
0.000793355
0.00205366
0.00102024
0.000933779
0.000878008
0.000841929
0.000817486
0.000800099
0.000787199
0.000777328
0.000769575
0.000763368
0.000758314
0.000754145
0.000750662
0.000747726
0.000745224
0.000743083
0.000741229
0.00073962
0.000738208
0.000736979
0.000735885
0.000734923
0.000734055
0.000733298
0.000732606
0.000731991
0.000731425
0.000730935
0.000730476
0.000730076
0.000729689
0.000729378
0.000729062
0.000728782
0.000728516
0.000728307
0.000728096
0.000727917
0.000727735
0.000727608
0.000727457
0.000727329
0.000727207
0.000727133
0.000726992
0.000726903
0.000726845
0.000726809
0.000726775
0.000726737
0.000726649
0.000726623
0.00072661
0.000726587
0.000726517
0.000726569
0.000726569
0.000726563
0.000726677
0.000726686
0.000726686
0.000726776
0.000726863
0.000727014
0.000727142
0.000727309
0.000727411
0.000727566
0.000727652
0.000727805
0.00072793
0.000728132
0.000728257
0.00072846
0.000728596
0.000728826
0.000728958
0.000729218
0.000729374
0.000729676
0.000729833
0.000730161
0.00073034
0.000730715
0.000730926
0.000731371
0.000731622
0.000732152
0.000732443
0.000733105
0.000733416
0.000734504
0.000734774
0.000746218
0.000793087
0.0020572
0.00102026
0.000933751
0.00087792
0.000841784
0.000817296
0.000799874
0.000786947
0.000777053
0.000769282
0.000763061
0.000757995
0.000753815
0.000750323
0.000747379
0.000744871
0.000742724
0.000740866
0.000739252
0.000737837
0.000736604
0.000735507
0.000734542
0.000733671
0.000732913
0.000732219
0.000731602
0.000731034
0.000730543
0.000730082
0.000729681
0.000729293
0.00072898
0.000728663
0.000728382
0.000728115
0.000727906
0.000727694
0.000727514
0.000727332
0.000727204
0.000727052
0.000726924
0.000726802
0.000726727
0.000726586
0.000726497
0.000726438
0.000726401
0.000726368
0.000726329
0.000726242
0.000726214
0.000726202
0.000726178
0.000726107
0.000726159
0.000726159
0.000726152
0.000726267
0.000726275
0.000726275
0.000726365
0.000726451
0.000726602
0.00072673
0.000726897
0.000726998
0.000727154
0.000727239
0.000727392
0.000727516
0.000727719
0.000727843
0.000728047
0.000728182
0.000728412
0.000728544
0.000728803
0.000728959
0.000729261
0.000729418
0.000729745
0.000729924
0.000730299
0.00073051
0.000730954
0.000731205
0.000731734
0.000732025
0.000732686
0.000732996
0.000734084
0.000734351
0.000745945
0.000792752
0.00206091
0.00102027
0.000933719
0.000877815
0.000841613
0.00081707
0.000799606
0.000786646
0.000776725
0.000768933
0.000762695
0.000757614
0.000753422
0.00074992
0.000746967
0.000744451
0.000742297
0.000740433
0.000738814
0.000737394
0.000736157
0.000735057
0.000734088
0.000733215
0.000732453
0.000731757
0.000731138
0.000730568
0.000730075
0.000729612
0.00072921
0.00072882
0.000728506
0.000728188
0.000727906
0.000727638
0.000727427
0.000727215
0.000727034
0.000726851
0.000726722
0.00072657
0.000726441
0.000726318
0.000726243
0.000726102
0.000726012
0.000725953
0.000725915
0.000725881
0.000725843
0.000725755
0.000725727
0.000725714
0.000725691
0.00072562
0.00072567
0.00072567
0.000725663
0.000725777
0.000725785
0.000725785
0.000725875
0.000725961
0.00072611
0.000726238
0.000726405
0.000726506
0.000726662
0.000726747
0.0007269
0.000727024
0.000727226
0.00072735
0.000727553
0.000727689
0.000727918
0.00072805
0.000728309
0.000728464
0.000728766
0.000728923
0.00072925
0.000729429
0.000729803
0.000730013
0.000730456
0.000730707
0.000731235
0.000731525
0.000732185
0.000732494
0.000733582
0.000733846
0.000745621
0.000792349
0.00206454
0.00102028
0.000933681
0.000877694
0.000841414
0.000816808
0.000799295
0.000786296
0.000776345
0.000768528
0.000762269
0.000757171
0.000752964
0.00074945
0.000746487
0.000743961
0.0007418
0.000739929
0.000738304
0.000736878
0.000735637
0.000734532
0.00073356
0.000732683
0.000731918
0.000731219
0.000730597
0.000730025
0.00072953
0.000729065
0.000728661
0.00072827
0.000727954
0.000727635
0.000727352
0.000727082
0.00072687
0.000726657
0.000726475
0.000726291
0.000726162
0.000726009
0.000725879
0.000725755
0.00072568
0.000725538
0.000725448
0.000725388
0.00072535
0.000725315
0.000725276
0.000725189
0.00072516
0.000725147
0.000725123
0.000725051
0.000725101
0.000725101
0.000725094
0.000725206
0.000725215
0.000725214
0.000725304
0.000725389
0.000725538
0.000725666
0.000725832
0.000725933
0.000726089
0.000726174
0.000726327
0.00072645
0.000726651
0.000726776
0.000726979
0.000727114
0.000727343
0.000727475
0.000727733
0.000727888
0.00072819
0.000728346
0.000728673
0.000728851
0.000729225
0.000729434
0.000729877
0.000730127
0.000730654
0.000730944
0.000731602
0.00073191
0.000732998
0.000733258
0.000745247
0.000791878
0.00206772
0.0010203
0.000933639
0.000877557
0.000841187
0.00081651
0.00079894
0.000785897
0.00077591
0.000768065
0.000761782
0.000756665
0.000752442
0.000748913
0.000745938
0.000743402
0.000741232
0.000739353
0.000737721
0.000736289
0.000735042
0.000733932
0.000732956
0.000732075
0.000731306
0.000730604
0.000729979
0.000729404
0.000728907
0.000728439
0.000728034
0.00072764
0.000727323
0.000727002
0.000726717
0.000726446
0.000726233
0.000726018
0.000725836
0.00072565
0.00072552
0.000725366
0.000725236
0.000725111
0.000725035
0.000724893
0.000724802
0.000724741
0.000724702
0.000724667
0.000724628
0.000724541
0.000724512
0.000724498
0.000724474
0.000724401
0.00072445
0.00072445
0.000724442
0.000724554
0.000724562
0.000724561
0.000724651
0.000724735
0.000724884
0.00072501
0.000725177
0.000725278
0.000725434
0.000725519
0.000725671
0.000725793
0.000725995
0.000726119
0.000726321
0.000726456
0.000726685
0.000726817
0.000727075
0.000727229
0.00072753
0.000727687
0.000728012
0.000728191
0.000728563
0.000728773
0.000729214
0.000729464
0.00072999
0.000730278
0.000730936
0.000731242
0.00073233
0.000732585
0.000744823
0.000791337
0.00206992
0.00102032
0.000933592
0.000877403
0.000840932
0.000816174
0.00079854
0.000785447
0.000775421
0.000767543
0.000761234
0.000756094
0.000751853
0.000748308
0.000745319
0.000742772
0.000740591
0.000738703
0.000737063
0.000735624
0.000734371
0.000733256
0.000732274
0.000731389
0.000730616
0.00072991
0.000729282
0.000728704
0.000728204
0.000727734
0.000727326
0.00072693
0.000726611
0.000726288
0.000726002
0.000725729
0.000725514
0.000725298
0.000725114
0.000724928
0.000724796
0.000724642
0.00072451
0.000724385
0.000724308
0.000724165
0.000724073
0.000724012
0.000723972
0.000723936
0.000723897
0.00072381
0.00072378
0.000723765
0.000723741
0.000723668
0.000723715
0.000723715
0.000723707
0.000723818
0.000723825
0.000723825
0.000723914
0.000723997
0.000724145
0.000724271
0.000724437
0.000724538
0.000724695
0.000724779
0.00072493
0.000725052
0.000725253
0.000725377
0.00072558
0.000725714
0.000725943
0.000726074
0.000726332
0.000726485
0.000726786
0.000726942
0.000727267
0.000727445
0.000727817
0.000728026
0.000728466
0.000728715
0.00072924
0.000729527
0.000730183
0.000730488
0.000731576
0.000731827
0.000744348
0.000790727
0.00207042
0.00102034
0.00093354
0.000877232
0.00084065
0.000815801
0.000798096
0.000784947
0.000774876
0.000766962
0.000760623
0.000755459
0.000751196
0.000747634
0.00074463
0.000742069
0.000739877
0.000737979
0.00073633
0.000734883
0.000733623
0.000732501
0.000731514
0.000730623
0.000729846
0.000729136
0.000728505
0.000727923
0.00072742
0.000726947
0.000726536
0.000726138
0.000725816
0.000725492
0.000725203
0.000724929
0.000724713
0.000724495
0.00072431
0.000724122
0.000723989
0.000723833
0.000723701
0.000723574
0.000723496
0.000723354
0.000723261
0.000723198
0.000723158
0.000723121
0.000723081
0.000722994
0.000722963
0.000722948
0.000722924
0.00072285
0.000722895
0.000722895
0.000722886
0.000722996
0.000723003
0.000723003
0.000723092
0.000723174
0.000723321
0.000723447
0.000723612
0.000723713
0.00072387
0.000723954
0.000724105
0.000724226
0.000724426
0.00072455
0.000724752
0.000724886
0.000725114
0.000725246
0.000725502
0.000725656
0.000725956
0.000726112
0.000726436
0.000726613
0.000726984
0.000727193
0.000727631
0.00072788
0.000728403
0.00072869
0.000729344
0.000729647
0.000730735
0.00073098
0.000743822
0.000790047
0.00206843
0.00102036
0.000933484
0.000877045
0.000840339
0.00081539
0.000797607
0.000784396
0.000774275
0.000766321
0.000759949
0.000754757
0.000750471
0.000746889
0.000743868
0.000741293
0.000739088
0.000737179
0.00073552
0.000734065
0.000732796
0.000731668
0.000730674
0.000729778
0.000728996
0.000728281
0.000727645
0.00072706
0.000726553
0.000726077
0.000725663
0.000725263
0.000724938
0.000724611
0.000724321
0.000724045
0.000723826
0.000723607
0.00072342
0.000723231
0.000723096
0.00072294
0.000722806
0.000722678
0.000722599
0.000722456
0.000722362
0.000722298
0.000722257
0.000722219
0.00072218
0.000722092
0.000722061
0.000722045
0.00072202
0.000721945
0.000721989
0.000721989
0.000721979
0.000722088
0.000722094
0.000722094
0.000722183
0.000722264
0.00072241
0.000722535
0.0007227
0.000722801
0.000722958
0.000723041
0.000723191
0.000723312
0.000723512
0.000723636
0.000723837
0.000723971
0.000724199
0.000724329
0.000724586
0.000724738
0.000725038
0.000725193
0.000725517
0.000725694
0.000726064
0.000726271
0.000726709
0.000726956
0.000727478
0.000727764
0.000728416
0.000728717
0.000729805
0.000730045
0.000743244
0.000789295
0.00206394
0.00102038
0.000933423
0.000876842
0.000840001
0.000814942
0.000797072
0.000783793
0.000773618
0.00076562
0.000759211
0.000753989
0.000749677
0.000746074
0.000743034
0.000740442
0.000738223
0.000736301
0.000734632
0.000733167
0.00073189
0.000730754
0.000729754
0.000728851
0.000728063
0.000727343
0.000726703
0.000726113
0.000725602
0.000725123
0.000724706
0.000724302
0.000723975
0.000723646
0.000723353
0.000723074
0.000722854
0.000722633
0.000722444
0.000722253
0.000722117
0.000721959
0.000721825
0.000721695
0.000721615
0.000721472
0.000721377
0.000721311
0.000721269
0.00072123
0.00072119
0.000721102
0.00072107
0.000721054
0.000721028
0.000720953
0.000720995
0.000720995
0.000720984
0.000721092
0.000721097
0.000721097
0.000721186
0.000721266
0.000721411
0.000721535
0.0007217
0.0007218
0.000721957
0.00072204
0.00072219
0.000722309
0.000722509
0.000722632
0.000722833
0.000722966
0.000723194
0.000723324
0.00072358
0.000723732
0.00072403
0.000724185
0.000724508
0.000724685
0.000725053
0.00072526
0.000725696
0.000725943
0.000726463
0.000726747
0.000727397
0.000727697
0.000728784
0.000729019
0.000742615
0.000788472
0.00205699
0.00102041
0.000933358
0.000876622
0.000839635
0.000814456
0.000796491
0.000783138
0.000772903
0.000764856
0.000758408
0.000753152
0.000748813
0.000745185
0.000742125
0.000739516
0.000737281
0.000735346
0.000733665
0.000732189
0.000730902
0.000729758
0.00072875
0.000727841
0.000727047
0.000726321
0.000725676
0.000725082
0.000724567
0.000724083
0.000723663
0.000723256
0.000722925
0.000722593
0.000722299
0.000722017
0.000721795
0.000721571
0.000721381
0.000721188
0.00072105
0.000720891
0.000720755
0.000720624
0.000720543
0.000720399
0.000720302
0.000720236
0.000720192
0.000720152
0.000720112
0.000720024
0.000719991
0.000719973
0.000719948
0.000719871
0.000719911
0.000719911
0.0007199
0.000720006
0.000720011
0.000720011
0.000720099
0.000720177
0.000720322
0.000720445
0.000720609
0.000720709
0.000720866
0.000720949
0.000721097
0.000721216
0.000721415
0.000721538
0.000721739
0.000721871
0.000722098
0.000722228
0.000722483
0.000722634
0.000722932
0.000723087
0.000723409
0.000723585
0.000723952
0.000724158
0.000724593
0.000724838
0.000725356
0.00072564
0.000726287
0.000726584
0.000727672
0.000727901
0.000741934
0.000787574
0.00204762
0.00102044
0.000933289
0.000876387
0.00083924
0.000813931
0.000795864
0.00078243
0.00077213
0.000764031
0.000757539
0.000752247
0.000747877
0.000744224
0.000741141
0.000738513
0.000736261
0.000734312
0.000732617
0.00073113
0.000729833
0.000728679
0.000727664
0.000726747
0.000725946
0.000725214
0.000724564
0.000723964
0.000723444
0.000722957
0.000722533
0.000722122
0.000721788
0.000721453
0.000721156
0.000720872
0.000720646
0.000720421
0.000720229
0.000720033
0.000719894
0.000719733
0.000719596
0.000719463
0.000719381
0.000719236
0.000719138
0.00071907
0.000719025
0.000718984
0.000718943
0.000718855
0.000718821
0.000718802
0.000718776
0.000718699
0.000718737
0.000718737
0.000718724
0.000718829
0.000718833
0.000718833
0.000718921
0.000718998
0.000719141
0.000719263
0.000719426
0.000719527
0.000719683
0.000719766
0.000719914
0.000720031
0.00072023
0.000720352
0.000720553
0.000720684
0.000720911
0.00072104
0.000721294
0.000721445
0.000721741
0.000721896
0.000722217
0.000722392
0.000722758
0.000722964
0.000723396
0.000723641
0.000724156
0.000724439
0.000725084
0.000725378
0.000726466
0.000726689
0.000741199
0.000786602
0.00203588
0.00102047
0.000933216
0.000876135
0.000838817
0.000813369
0.00079519
0.000781669
0.000771299
0.000763143
0.000756604
0.000751273
0.00074687
0.000743188
0.000740081
0.000737432
0.000735162
0.000733197
0.000731488
0.000729988
0.00072868
0.000727517
0.000726492
0.000725567
0.000724759
0.000724021
0.000723364
0.000722759
0.000722234
0.000721742
0.000721314
0.000720899
0.000720561
0.000720223
0.000719923
0.000719636
0.000719408
0.00071918
0.000718986
0.000718788
0.000718647
0.000718484
0.000718345
0.000718211
0.000718127
0.000717981
0.000717882
0.000717812
0.000717766
0.000717724
0.000717683
0.000717594
0.000717559
0.000717539
0.000717513
0.000717434
0.00071747
0.00071747
0.000717456
0.000717559
0.000717562
0.000717562
0.00071765
0.000717725
0.000717867
0.000717988
0.000718151
0.000718251
0.000718408
0.000718489
0.000718636
0.000718753
0.000718951
0.000719073
0.000719273
0.000719404
0.00071963
0.000719758
0.000720012
0.000720161
0.000720457
0.000720611
0.000720931
0.000721106
0.000721471
0.000721675
0.000722105
0.000722349
0.000722862
0.000723143
0.000723786
0.000724078
0.000725166
0.000725383
0.00074041
0.000785552
0.00202183
0.0010205
0.000933139
0.000875868
0.000838367
0.000812768
0.00079447
0.000780854
0.000770409
0.000762191
0.000755601
0.000750229
0.00074579
0.000742078
0.000738945
0.000736273
0.000733983
0.000732
0.000730277
0.000728763
0.000727443
0.000726269
0.000725234
0.000724301
0.000723485
0.000722739
0.000722076
0.000721465
0.000720935
0.000720438
0.000720005
0.000719586
0.000719244
0.000718903
0.0007186
0.000718309
0.000718078
0.000717847
0.000717651
0.000717451
0.000717307
0.000717143
0.000717003
0.000716866
0.000716781
0.000716634
0.000716533
0.000716462
0.000716414
0.00071637
0.000716329
0.00071624
0.000716203
0.000716183
0.000716155
0.000716076
0.00071611
0.000716109
0.000716094
0.000716195
0.000716198
0.000716198
0.000716285
0.000716358
0.000716499
0.000716619
0.000716781
0.000716881
0.000717038
0.000717118
0.000717265
0.00071738
0.000717577
0.000717699
0.000717898
0.000718028
0.000718254
0.000718382
0.000718634
0.000718783
0.000719077
0.000719231
0.00071955
0.000719724
0.000720087
0.000720291
0.000720719
0.000720961
0.000721472
0.000721752
0.000722391
0.00072268
0.000723769
0.00072398
0.000739565
0.000784424
0.00200554
0.00102054
0.000933058
0.000875586
0.000837889
0.000812129
0.000793703
0.000779986
0.000769459
0.000761176
0.000754531
0.000749113
0.000744636
0.000740891
0.00073773
0.000735034
0.000732723
0.000730722
0.000728981
0.000727454
0.00072612
0.000724934
0.00072389
0.000722947
0.000722122
0.000721369
0.000720699
0.000720082
0.000719546
0.000719043
0.000718605
0.000718182
0.000717836
0.00071749
0.000717184
0.00071689
0.000716656
0.000716422
0.000716223
0.000716021
0.000715874
0.000715708
0.000715566
0.000715427
0.00071534
0.000715193
0.00071509
0.000715017
0.000714968
0.000714922
0.00071488
0.000714791
0.000714753
0.000714731
0.000714703
0.000714623
0.000714654
0.000714654
0.000714637
0.000714736
0.000714738
0.000714738
0.000714825
0.000714896
0.000715035
0.000715153
0.000715315
0.000715414
0.000715571
0.000715651
0.000715797
0.000715911
0.000716107
0.000716228
0.000716427
0.000716556
0.000716781
0.000716909
0.00071716
0.000717308
0.000717601
0.000717754
0.000718072
0.000718245
0.000718607
0.000718809
0.000719235
0.000719476
0.000719985
0.000720262
0.000720899
0.000721185
0.000722274
0.000722479
0.000738663
0.000783213
0.00198709
0.00102058
0.000932975
0.000875288
0.000837384
0.000811452
0.00079289
0.000779065
0.00076845
0.000760096
0.000753393
0.000747926
0.000743408
0.000739628
0.000736437
0.000733715
0.000731381
0.000729359
0.000727602
0.000726058
0.000724711
0.000723513
0.000722457
0.000721504
0.00072067
0.000719908
0.000719231
0.000718607
0.000718064
0.000717556
0.000717113
0.000716685
0.000716334
0.000715985
0.000715675
0.000715377
0.00071514
0.000714903
0.000714701
0.000714496
0.000714347
0.000714178
0.000714034
0.000713893
0.000713805
0.000713656
0.000713552
0.000713476
0.000713426
0.000713378
0.000713336
0.000713246
0.000713206
0.000713184
0.000713155
0.000713074
0.000713102
0.000713102
0.000713084
0.00071318
0.000713181
0.000713181
0.000713267
0.000713336
0.000713474
0.000713591
0.000713751
0.000713851
0.000714008
0.000714087
0.000714231
0.000714344
0.00071454
0.00071466
0.000714858
0.000714986
0.000715211
0.000715338
0.000715588
0.000715734
0.000716027
0.000716179
0.000716495
0.000716668
0.000717028
0.000717229
0.000717653
0.000717893
0.000718398
0.000718674
0.000719308
0.000719591
0.00072068
0.000720878
0.0007377
0.000781918
0.00196656
0.00102062
0.000932888
0.000874975
0.000836851
0.000810736
0.000792029
0.000778088
0.000767381
0.000758952
0.000752186
0.000746668
0.000742105
0.000738288
0.000735064
0.000732314
0.000729956
0.000727913
0.000726137
0.000724576
0.000723214
0.000722002
0.000720935
0.000719971
0.000719127
0.000718357
0.000717672
0.00071704
0.000716491
0.000715976
0.000715528
0.000715094
0.000714738
0.000714385
0.000714071
0.000713769
0.000713528
0.000713288
0.000713083
0.000712875
0.000712723
0.000712552
0.000712406
0.000712262
0.000712172
0.000712023
0.000711916
0.000711838
0.000711786
0.000711737
0.000711694
0.000711604
0.000711563
0.000711538
0.000711509
0.000711427
0.000711452
0.000711452
0.000711432
0.000711526
0.000711527
0.000711526
0.000711611
0.000711678
0.000711814
0.00071193
0.000712089
0.000712188
0.000712345
0.000712424
0.000712567
0.000712678
0.000712873
0.000712993
0.00071319
0.000713318
0.000713541
0.000713667
0.000713916
0.000714062
0.000714353
0.000714505
0.000714819
0.000714991
0.000715349
0.000715549
0.00071597
0.000716209
0.000716711
0.000716986
0.000717616
0.000717895
0.000718984
0.000719178
0.000736675
0.000780533
0.00194405
0.00102066
0.000932798
0.000874649
0.000836291
0.000809983
0.000791121
0.000777058
0.000766252
0.000757742
0.00075091
0.000745336
0.000740726
0.000736869
0.000733611
0.000730831
0.000728447
0.000726381
0.000724585
0.000723007
0.000721629
0.000720403
0.000719322
0.000718347
0.000717492
0.000716713
0.000716019
0.000715379
0.000714823
0.000714302
0.000713847
0.000713408
0.000713047
0.000712689
0.000712371
0.000712065
0.00071182
0.000711576
0.000711368
0.000711157
0.000711002
0.000710828
0.000710681
0.000710534
0.000710442
0.000710291
0.000710183
0.000710102
0.000710048
0.000709997
0.000709953
0.000709862
0.00070982
0.000709794
0.000709764
0.000709681
0.000709704
0.000709703
0.000709681
0.000709772
0.000709773
0.000709771
0.000709856
0.00070992
0.000710055
0.000710169
0.000710327
0.000710426
0.000710583
0.00071066
0.000710802
0.000710912
0.000711106
0.000711225
0.000711422
0.000711548
0.000711771
0.000711896
0.000712144
0.000712288
0.000712578
0.000712729
0.000713042
0.000713213
0.000713569
0.000713768
0.000714187
0.000714423
0.000714923
0.000715195
0.000715822
0.000716098
0.000717187
0.000717375
0.000735585
0.000779056
0.00191967
0.00102071
0.000932706
0.000874308
0.000835705
0.000809193
0.000790167
0.000775974
0.000765063
0.000756467
0.000749565
0.000743931
0.000739272
0.000735372
0.000732077
0.000729266
0.000726854
0.000724764
0.000722946
0.000721349
0.000719954
0.000718712
0.000717618
0.00071663
0.000715765
0.000714975
0.000714273
0.000713625
0.000713061
0.000712532
0.000712071
0.000711626
0.000711259
0.000710896
0.000710574
0.000710264
0.000710014
0.000709766
0.000709555
0.00070934
0.000709182
0.000709006
0.000708856
0.000708707
0.000708612
0.00070846
0.00070835
0.000708267
0.000708211
0.000708157
0.000708113
0.000708021
0.000707977
0.00070795
0.000707919
0.000707836
0.000707855
0.000707854
0.00070783
0.000707917
0.000707918
0.000707916
0.000708
0.000708061
0.000708194
0.000708307
0.000708464
0.000708562
0.000708719
0.000708795
0.000708936
0.000709045
0.000709237
0.000709355
0.000709552
0.000709677
0.000709898
0.000710023
0.00071027
0.000710412
0.0007107
0.000710851
0.000711162
0.000711333
0.000711686
0.000711884
0.0007123
0.000712535
0.000713031
0.000713302
0.000713925
0.000714197
0.000715286
0.000715469
0.000734427
0.00077748
0.00189351
0.00102075
0.000932611
0.000873953
0.000835093
0.000808365
0.000789166
0.000774835
0.000763813
0.000755127
0.000748149
0.000742453
0.00073774
0.000733796
0.000730462
0.000727617
0.000725175
0.00072306
0.000721219
0.000719601
0.000718188
0.000716931
0.000715822
0.000714821
0.000713944
0.000713144
0.000712431
0.000711774
0.000711202
0.000710666
0.000710199
0.000709747
0.000709374
0.000709006
0.000708678
0.000708364
0.00070811
0.000707858
0.000707643
0.000707425
0.000707263
0.000707084
0.000706932
0.000706779
0.000706682
0.000706529
0.000706416
0.000706331
0.000706272
0.000706217
0.000706172
0.000706079
0.000706033
0.000706004
0.000705973
0.000705888
0.000705905
0.000705903
0.000705877
0.000705961
0.000705961
0.000705958
0.000706041
0.0007061
0.000706231
0.000706342
0.000706498
0.000706596
0.000706753
0.000706827
0.000706967
0.000707074
0.000707265
0.000707383
0.000707578
0.000707702
0.000707923
0.000708046
0.000708292
0.000708433
0.000708719
0.00070887
0.000709179
0.000709348
0.0007097
0.000709897
0.000710309
0.000710543
0.000711035
0.000711304
0.000711923
0.000712191
0.000713281
0.000713459
0.000733197
0.000775799
0.00186571
0.0010208
0.000932515
0.000873586
0.000834455
0.0008075
0.000788119
0.000773642
0.000762502
0.000753721
0.000746663
0.000740901
0.000736132
0.00073214
0.000728764
0.000725883
0.000723411
0.000721268
0.000719403
0.000717764
0.000716331
0.000715057
0.000713933
0.000712918
0.000712028
0.000711217
0.000710494
0.000709827
0.000709247
0.000708702
0.000708228
0.00070777
0.00070739
0.000707016
0.000706684
0.000706364
0.000706105
0.000705849
0.000705631
0.000705408
0.000705243
0.000705061
0.000704906
0.00070475
0.000704651
0.000704496
0.000704381
0.000704292
0.000704232
0.000704174
0.000704128
0.000704034
0.000703987
0.000703956
0.000703924
0.000703839
0.000703852
0.000703849
0.000703821
0.000703901
0.000703901
0.000703898
0.00070398
0.000704035
0.000704164
0.000704274
0.000704428
0.000704525
0.000704682
0.000704755
0.000704894
0.000704999
0.000705189
0.000705306
0.0007055
0.000705623
0.000705843
0.000705965
0.000706209
0.00070635
0.000706634
0.000706783
0.000707091
0.000707259
0.000707608
0.000707804
0.000708213
0.000708445
0.000708934
0.0007092
0.000709815
0.000710079
0.000711169
0.000711343
0.000731892
0.000774006
0.00183637
0.00102085
0.000932417
0.000873206
0.000833792
0.000806598
0.000787025
0.000772395
0.000761132
0.000752249
0.000745107
0.000739275
0.000734446
0.000730403
0.000726984
0.000724066
0.00072156
0.000719388
0.000717497
0.000715836
0.000714383
0.00071309
0.00071195
0.000710921
0.000710017
0.000709193
0.00070846
0.000707783
0.000707193
0.000706641
0.000706158
0.000705693
0.000705307
0.000704927
0.000704589
0.000704264
0.000704
0.000703739
0.000703517
0.00070329
0.000703122
0.000702936
0.000702778
0.000702619
0.000702517
0.00070236
0.000702243
0.000702151
0.000702088
0.000702028
0.000701981
0.000701886
0.000701837
0.000701804
0.000701771