/*--------------------------------*- C++ -*----------------------------------*\
| =========                 |                                                 |
| \\      /  F ield         | OpenFOAM: The Open Source CFD Toolbox           |
|  \\    /   O peration     | Version:  v2012                                 |
|   \\  /    A nd           | Website:  www.openfoam.com                      |
|    \\/     M anipulation  |                                                 |
\*---------------------------------------------------------------------------*/
FoamFile
{
    version     2.0;
    format      ascii;
    class       volScalarField;
    location    "21.5";
    object      nut;
}
// * * * * * * * * * * * * * * * * * * * * * * * * * * * * * * * * * * * * * //

dimensions      [0 2 -1 0 0 0 0];


internalField   nonuniform List<scalar> 
209825
(
1.23783e-07
1.23423e-07
1.23775e-07
1.24347e-07
1.24917e-07
1.2542e-07
1.25855e-07
1.26225e-07
1.26548e-07
1.26823e-07
1.27068e-07
1.27279e-07
1.27469e-07
1.27634e-07
1.27786e-07
1.27917e-07
1.2804e-07
1.28145e-07
1.28246e-07
1.28334e-07
1.28418e-07
1.2849e-07
1.2856e-07
1.28622e-07
1.28681e-07
1.28732e-07
1.28783e-07
1.28827e-07
1.28871e-07
1.28909e-07
1.28947e-07
1.28982e-07
1.29016e-07
1.29041e-07
1.29069e-07
1.29096e-07
1.29124e-07
1.29145e-07
1.29168e-07
1.2919e-07
1.29213e-07
1.29225e-07
1.29244e-07
1.29266e-07
1.29276e-07
1.29285e-07
1.29302e-07
1.29313e-07
1.29331e-07
1.29338e-07
1.29348e-07
1.29362e-07
1.29374e-07
1.29379e-07
1.29388e-07
1.29401e-07
1.29402e-07
1.29403e-07
1.29427e-07
1.29441e-07
1.29435e-07
1.29451e-07
1.29467e-07
1.29498e-07
1.29504e-07
1.29534e-07
1.29552e-07
1.2957e-07
1.29585e-07
1.29596e-07
1.29618e-07
1.29628e-07
1.2965e-07
1.2966e-07
1.29667e-07
1.2968e-07
1.297e-07
1.29717e-07
1.29731e-07
1.29755e-07
1.29767e-07
1.2979e-07
1.29806e-07
1.29835e-07
1.29853e-07
1.29892e-07
1.29916e-07
1.29964e-07
1.29993e-07
1.30052e-07
1.30086e-07
1.30187e-07
1.30225e-07
1.31307e-07
1.35818e-07
1.78275e-08
1.23783e-07
1.23423e-07
1.23775e-07
1.24346e-07
1.24917e-07
1.2542e-07
1.25855e-07
1.26225e-07
1.26547e-07
1.26823e-07
1.27068e-07
1.27279e-07
1.27469e-07
1.27634e-07
1.27786e-07
1.27917e-07
1.2804e-07
1.28145e-07
1.28246e-07
1.28334e-07
1.28418e-07
1.2849e-07
1.28561e-07
1.28622e-07
1.28681e-07
1.28732e-07
1.28783e-07
1.28827e-07
1.28871e-07
1.28909e-07
1.28947e-07
1.28982e-07
1.29016e-07
1.29041e-07
1.2907e-07
1.29096e-07
1.29125e-07
1.29145e-07
1.29168e-07
1.2919e-07
1.29213e-07
1.29225e-07
1.29244e-07
1.29266e-07
1.29276e-07
1.29285e-07
1.29302e-07
1.29313e-07
1.29331e-07
1.29338e-07
1.29349e-07
1.29363e-07
1.29374e-07
1.29379e-07
1.29388e-07
1.29401e-07
1.29402e-07
1.29403e-07
1.29427e-07
1.29441e-07
1.29436e-07
1.29452e-07
1.29467e-07
1.29498e-07
1.29504e-07
1.29534e-07
1.29552e-07
1.2957e-07
1.29585e-07
1.29596e-07
1.29618e-07
1.29628e-07
1.2965e-07
1.2966e-07
1.29668e-07
1.2968e-07
1.297e-07
1.29717e-07
1.29731e-07
1.29755e-07
1.29768e-07
1.29791e-07
1.29806e-07
1.29835e-07
1.29854e-07
1.29892e-07
1.29917e-07
1.29964e-07
1.29993e-07
1.30052e-07
1.30086e-07
1.30188e-07
1.30225e-07
1.31309e-07
1.35821e-07
1.83663e-08
1.23784e-07
1.23422e-07
1.23773e-07
1.24344e-07
1.24915e-07
1.25417e-07
1.25852e-07
1.26222e-07
1.26544e-07
1.2682e-07
1.27065e-07
1.27276e-07
1.27466e-07
1.27631e-07
1.27783e-07
1.27914e-07
1.28037e-07
1.28143e-07
1.28243e-07
1.28331e-07
1.28415e-07
1.28487e-07
1.28558e-07
1.28619e-07
1.28678e-07
1.28729e-07
1.2878e-07
1.28824e-07
1.28868e-07
1.28907e-07
1.28944e-07
1.28979e-07
1.29013e-07
1.29038e-07
1.29067e-07
1.29093e-07
1.29122e-07
1.29142e-07
1.29165e-07
1.29187e-07
1.2921e-07
1.29222e-07
1.29241e-07
1.29263e-07
1.29273e-07
1.29282e-07
1.29299e-07
1.2931e-07
1.29328e-07
1.29335e-07
1.29346e-07
1.2936e-07
1.29371e-07
1.29377e-07
1.29386e-07
1.29399e-07
1.294e-07
1.294e-07
1.29424e-07
1.29438e-07
1.29433e-07
1.29449e-07
1.29465e-07
1.29495e-07
1.29501e-07
1.29531e-07
1.29549e-07
1.29567e-07
1.29583e-07
1.29593e-07
1.29616e-07
1.29625e-07
1.29648e-07
1.29658e-07
1.29665e-07
1.29678e-07
1.29698e-07
1.29715e-07
1.29729e-07
1.29753e-07
1.29765e-07
1.29788e-07
1.29804e-07
1.29833e-07
1.29851e-07
1.29889e-07
1.29914e-07
1.29961e-07
1.29991e-07
1.3005e-07
1.30084e-07
1.30185e-07
1.30222e-07
1.31311e-07
1.35823e-07
1.90351e-08
1.23784e-07
1.23421e-07
1.23771e-07
1.24341e-07
1.24911e-07
1.25413e-07
1.25848e-07
1.26218e-07
1.2654e-07
1.26816e-07
1.27061e-07
1.27271e-07
1.27462e-07
1.27627e-07
1.27778e-07
1.2791e-07
1.28033e-07
1.28138e-07
1.28239e-07
1.28326e-07
1.28411e-07
1.28483e-07
1.28553e-07
1.28615e-07
1.28674e-07
1.28725e-07
1.28776e-07
1.2882e-07
1.28864e-07
1.28903e-07
1.2894e-07
1.28975e-07
1.29009e-07
1.29034e-07
1.29063e-07
1.29089e-07
1.29118e-07
1.29138e-07
1.29161e-07
1.29183e-07
1.29206e-07
1.29218e-07
1.29237e-07
1.29259e-07
1.29269e-07
1.29278e-07
1.29296e-07
1.29306e-07
1.29324e-07
1.29332e-07
1.29342e-07
1.29356e-07
1.29367e-07
1.29373e-07
1.29382e-07
1.29395e-07
1.29396e-07
1.29397e-07
1.29421e-07
1.29435e-07
1.29429e-07
1.29445e-07
1.29461e-07
1.29492e-07
1.29498e-07
1.29528e-07
1.29546e-07
1.29564e-07
1.29579e-07
1.2959e-07
1.29612e-07
1.29622e-07
1.29644e-07
1.29654e-07
1.29662e-07
1.29674e-07
1.29694e-07
1.29711e-07
1.29725e-07
1.29749e-07
1.29761e-07
1.29785e-07
1.298e-07
1.29829e-07
1.29848e-07
1.29886e-07
1.2991e-07
1.29958e-07
1.29987e-07
1.30046e-07
1.3008e-07
1.30181e-07
1.30219e-07
1.31314e-07
1.35827e-07
1.97767e-08
1.23784e-07
1.23419e-07
1.23768e-07
1.24336e-07
1.24906e-07
1.25407e-07
1.25842e-07
1.26212e-07
1.26534e-07
1.2681e-07
1.27055e-07
1.27265e-07
1.27456e-07
1.27621e-07
1.27772e-07
1.27904e-07
1.28027e-07
1.28132e-07
1.28233e-07
1.28321e-07
1.28405e-07
1.28477e-07
1.28548e-07
1.28609e-07
1.28669e-07
1.28719e-07
1.28771e-07
1.28815e-07
1.28859e-07
1.28897e-07
1.28935e-07
1.2897e-07
1.29004e-07
1.29029e-07
1.29058e-07
1.29084e-07
1.29113e-07
1.29133e-07
1.29156e-07
1.29178e-07
1.29201e-07
1.29213e-07
1.29232e-07
1.29254e-07
1.29264e-07
1.29273e-07
1.29291e-07
1.29301e-07
1.29319e-07
1.29327e-07
1.29337e-07
1.29351e-07
1.29363e-07
1.29368e-07
1.29377e-07
1.2939e-07
1.29391e-07
1.29392e-07
1.29416e-07
1.2943e-07
1.29424e-07
1.2944e-07
1.29456e-07
1.29487e-07
1.29493e-07
1.29523e-07
1.29541e-07
1.29559e-07
1.29574e-07
1.29585e-07
1.29607e-07
1.29617e-07
1.29639e-07
1.29649e-07
1.29657e-07
1.2967e-07
1.29689e-07
1.29706e-07
1.2972e-07
1.29744e-07
1.29757e-07
1.2978e-07
1.29795e-07
1.29824e-07
1.29843e-07
1.29881e-07
1.29906e-07
1.29953e-07
1.29982e-07
1.30041e-07
1.30075e-07
1.30177e-07
1.30214e-07
1.31318e-07
1.35831e-07
2.05805e-08
1.23784e-07
1.23417e-07
1.23763e-07
1.24331e-07
1.24899e-07
1.254e-07
1.25835e-07
1.26204e-07
1.26526e-07
1.26802e-07
1.27047e-07
1.27258e-07
1.27449e-07
1.27613e-07
1.27765e-07
1.27896e-07
1.28019e-07
1.28125e-07
1.28226e-07
1.28314e-07
1.28398e-07
1.2847e-07
1.28541e-07
1.28602e-07
1.28662e-07
1.28713e-07
1.28764e-07
1.28808e-07
1.28852e-07
1.28891e-07
1.28928e-07
1.28963e-07
1.28997e-07
1.29023e-07
1.29051e-07
1.29077e-07
1.29106e-07
1.29127e-07
1.2915e-07
1.29172e-07
1.29195e-07
1.29207e-07
1.29226e-07
1.29248e-07
1.29258e-07
1.29267e-07
1.29284e-07
1.29295e-07
1.29313e-07
1.29321e-07
1.29331e-07
1.29345e-07
1.29357e-07
1.29362e-07
1.29371e-07
1.29384e-07
1.29385e-07
1.29386e-07
1.2941e-07
1.29424e-07
1.29419e-07
1.29435e-07
1.2945e-07
1.29481e-07
1.29487e-07
1.29517e-07
1.29535e-07
1.29553e-07
1.29569e-07
1.29579e-07
1.29601e-07
1.29611e-07
1.29634e-07
1.29644e-07
1.29651e-07
1.29664e-07
1.29684e-07
1.29701e-07
1.29715e-07
1.29739e-07
1.29751e-07
1.29774e-07
1.2979e-07
1.29819e-07
1.29837e-07
1.29875e-07
1.299e-07
1.29947e-07
1.29977e-07
1.30036e-07
1.30069e-07
1.30171e-07
1.30208e-07
1.31324e-07
1.35835e-07
2.14442e-08
1.23784e-07
1.23415e-07
1.23758e-07
1.24324e-07
1.24891e-07
1.25391e-07
1.25826e-07
1.26195e-07
1.26517e-07
1.26793e-07
1.27038e-07
1.27249e-07
1.27439e-07
1.27604e-07
1.27756e-07
1.27888e-07
1.28011e-07
1.28117e-07
1.28217e-07
1.28305e-07
1.28389e-07
1.28462e-07
1.28533e-07
1.28594e-07
1.28654e-07
1.28704e-07
1.28756e-07
1.288e-07
1.28844e-07
1.28883e-07
1.2892e-07
1.28955e-07
1.2899e-07
1.29015e-07
1.29043e-07
1.2907e-07
1.29099e-07
1.29119e-07
1.29142e-07
1.29164e-07
1.29187e-07
1.29199e-07
1.29219e-07
1.29241e-07
1.29251e-07
1.2926e-07
1.29277e-07
1.29288e-07
1.29306e-07
1.29313e-07
1.29324e-07
1.29338e-07
1.29349e-07
1.29355e-07
1.29364e-07
1.29377e-07
1.29378e-07
1.29379e-07
1.29403e-07
1.29417e-07
1.29412e-07
1.29428e-07
1.29443e-07
1.29474e-07
1.2948e-07
1.2951e-07
1.29528e-07
1.29546e-07
1.29562e-07
1.29572e-07
1.29594e-07
1.29604e-07
1.29627e-07
1.29637e-07
1.29644e-07
1.29657e-07
1.29677e-07
1.29694e-07
1.29708e-07
1.29732e-07
1.29745e-07
1.29768e-07
1.29783e-07
1.29812e-07
1.29831e-07
1.29869e-07
1.29893e-07
1.29941e-07
1.2997e-07
1.30029e-07
1.30062e-07
1.30164e-07
1.30201e-07
1.31332e-07
1.35841e-07
2.23681e-08
1.23784e-07
1.23412e-07
1.23752e-07
1.24315e-07
1.24881e-07
1.25381e-07
1.25815e-07
1.26184e-07
1.26506e-07
1.26782e-07
1.27027e-07
1.27238e-07
1.27429e-07
1.27594e-07
1.27746e-07
1.27877e-07
1.28001e-07
1.28106e-07
1.28207e-07
1.28295e-07
1.2838e-07
1.28452e-07
1.28523e-07
1.28584e-07
1.28644e-07
1.28695e-07
1.28747e-07
1.28791e-07
1.28835e-07
1.28873e-07
1.28911e-07
1.28946e-07
1.28981e-07
1.29006e-07
1.29034e-07
1.29061e-07
1.2909e-07
1.2911e-07
1.29133e-07
1.29156e-07
1.29179e-07
1.29191e-07
1.2921e-07
1.29232e-07
1.29242e-07
1.29251e-07
1.29269e-07
1.29279e-07
1.29297e-07
1.29305e-07
1.29316e-07
1.2933e-07
1.29341e-07
1.29346e-07
1.29356e-07
1.29368e-07
1.2937e-07
1.2937e-07
1.29394e-07
1.29408e-07
1.29403e-07
1.29419e-07
1.29435e-07
1.29466e-07
1.29472e-07
1.29502e-07
1.2952e-07
1.29538e-07
1.29554e-07
1.29564e-07
1.29586e-07
1.29597e-07
1.29619e-07
1.29629e-07
1.29637e-07
1.29649e-07
1.29669e-07
1.29686e-07
1.297e-07
1.29724e-07
1.29737e-07
1.2976e-07
1.29775e-07
1.29804e-07
1.29823e-07
1.29861e-07
1.29885e-07
1.29933e-07
1.29962e-07
1.30021e-07
1.30054e-07
1.30156e-07
1.30192e-07
1.31342e-07
1.35848e-07
2.33531e-08
1.23785e-07
1.23409e-07
1.23745e-07
1.24305e-07
1.2487e-07
1.25369e-07
1.25803e-07
1.26172e-07
1.26494e-07
1.2677e-07
1.27015e-07
1.27226e-07
1.27417e-07
1.27582e-07
1.27734e-07
1.27865e-07
1.27989e-07
1.28095e-07
1.28196e-07
1.28284e-07
1.28368e-07
1.28441e-07
1.28512e-07
1.28573e-07
1.28633e-07
1.28684e-07
1.28736e-07
1.2878e-07
1.28824e-07
1.28863e-07
1.28901e-07
1.28936e-07
1.2897e-07
1.28996e-07
1.29024e-07
1.29051e-07
1.2908e-07
1.291e-07
1.29123e-07
1.29145e-07
1.29169e-07
1.29181e-07
1.292e-07
1.29222e-07
1.29233e-07
1.29242e-07
1.29259e-07
1.2927e-07
1.29288e-07
1.29295e-07
1.29306e-07
1.2932e-07
1.29332e-07
1.29337e-07
1.29346e-07
1.29359e-07
1.2936e-07
1.29361e-07
1.29385e-07
1.29399e-07
1.29394e-07
1.2941e-07
1.29425e-07
1.29456e-07
1.29463e-07
1.29492e-07
1.29511e-07
1.29529e-07
1.29544e-07
1.29555e-07
1.29577e-07
1.29587e-07
1.2961e-07
1.2962e-07
1.29628e-07
1.2964e-07
1.2966e-07
1.29677e-07
1.29691e-07
1.29715e-07
1.29728e-07
1.29751e-07
1.29766e-07
1.29795e-07
1.29814e-07
1.29852e-07
1.29876e-07
1.29924e-07
1.29953e-07
1.30012e-07
1.30045e-07
1.30147e-07
1.30183e-07
1.31354e-07
1.35855e-07
2.43998e-08
1.23785e-07
1.23405e-07
1.23737e-07
1.24294e-07
1.24858e-07
1.25356e-07
1.25789e-07
1.26158e-07
1.2648e-07
1.26755e-07
1.27001e-07
1.27212e-07
1.27403e-07
1.27568e-07
1.2772e-07
1.27852e-07
1.27976e-07
1.28082e-07
1.28183e-07
1.28271e-07
1.28355e-07
1.28428e-07
1.28499e-07
1.28561e-07
1.28621e-07
1.28672e-07
1.28724e-07
1.28768e-07
1.28812e-07
1.28851e-07
1.28889e-07
1.28924e-07
1.28958e-07
1.28984e-07
1.29013e-07
1.29039e-07
1.29068e-07
1.29089e-07
1.29112e-07
1.29134e-07
1.29157e-07
1.2917e-07
1.29189e-07
1.29211e-07
1.29222e-07
1.29231e-07
1.29248e-07
1.29259e-07
1.29277e-07
1.29285e-07
1.29295e-07
1.29309e-07
1.29321e-07
1.29326e-07
1.29335e-07
1.29348e-07
1.2935e-07
1.2935e-07
1.29374e-07
1.29388e-07
1.29384e-07
1.294e-07
1.29415e-07
1.29446e-07
1.29452e-07
1.29482e-07
1.295e-07
1.29519e-07
1.29534e-07
1.29545e-07
1.29567e-07
1.29577e-07
1.29599e-07
1.2961e-07
1.29617e-07
1.2963e-07
1.2965e-07
1.29667e-07
1.29681e-07
1.29705e-07
1.29718e-07
1.29741e-07
1.29756e-07
1.29785e-07
1.29804e-07
1.29842e-07
1.29866e-07
1.29913e-07
1.29943e-07
1.30001e-07
1.30035e-07
1.30136e-07
1.30172e-07
1.31368e-07
1.35864e-07
2.55081e-08
1.23786e-07
1.23401e-07
1.23728e-07
1.24282e-07
1.24843e-07
1.25341e-07
1.25773e-07
1.26142e-07
1.26464e-07
1.26739e-07
1.26985e-07
1.27196e-07
1.27387e-07
1.27553e-07
1.27705e-07
1.27837e-07
1.27961e-07
1.28067e-07
1.28168e-07
1.28256e-07
1.28341e-07
1.28414e-07
1.28485e-07
1.28547e-07
1.28607e-07
1.28658e-07
1.2871e-07
1.28754e-07
1.28799e-07
1.28837e-07
1.28875e-07
1.28911e-07
1.28945e-07
1.28971e-07
1.29e-07
1.29026e-07
1.29055e-07
1.29076e-07
1.29099e-07
1.29121e-07
1.29145e-07
1.29157e-07
1.29176e-07
1.29199e-07
1.29209e-07
1.29218e-07
1.29236e-07
1.29247e-07
1.29265e-07
1.29273e-07
1.29283e-07
1.29297e-07
1.29309e-07
1.29314e-07
1.29323e-07
1.29336e-07
1.29338e-07
1.29338e-07
1.29362e-07
1.29376e-07
1.29372e-07
1.29388e-07
1.29403e-07
1.29434e-07
1.29441e-07
1.2947e-07
1.29488e-07
1.29507e-07
1.29523e-07
1.29534e-07
1.29555e-07
1.29566e-07
1.29588e-07
1.29598e-07
1.29606e-07
1.29619e-07
1.29639e-07
1.29656e-07
1.2967e-07
1.29694e-07
1.29707e-07
1.2973e-07
1.29745e-07
1.29774e-07
1.29793e-07
1.2983e-07
1.29855e-07
1.29902e-07
1.29931e-07
1.2999e-07
1.30023e-07
1.30125e-07
1.3016e-07
1.31384e-07
1.35875e-07
2.66762e-08
1.23786e-07
1.23396e-07
1.23718e-07
1.24268e-07
1.24828e-07
1.25324e-07
1.25756e-07
1.26124e-07
1.26446e-07
1.26722e-07
1.26967e-07
1.27179e-07
1.2737e-07
1.27536e-07
1.27688e-07
1.2782e-07
1.27944e-07
1.28051e-07
1.28152e-07
1.2824e-07
1.28325e-07
1.28398e-07
1.2847e-07
1.28531e-07
1.28592e-07
1.28643e-07
1.28695e-07
1.28739e-07
1.28784e-07
1.28823e-07
1.28861e-07
1.28896e-07
1.28931e-07
1.28957e-07
1.28985e-07
1.29012e-07
1.29041e-07
1.29062e-07
1.29085e-07
1.29107e-07
1.29131e-07
1.29143e-07
1.29163e-07
1.29185e-07
1.29196e-07
1.29205e-07
1.29222e-07
1.29233e-07
1.29251e-07
1.29259e-07
1.2927e-07
1.29284e-07
1.29296e-07
1.29301e-07
1.2931e-07
1.29323e-07
1.29325e-07
1.29325e-07
1.29349e-07
1.29363e-07
1.29359e-07
1.29375e-07
1.2939e-07
1.29421e-07
1.29428e-07
1.29457e-07
1.29476e-07
1.29495e-07
1.2951e-07
1.29521e-07
1.29543e-07
1.29553e-07
1.29575e-07
1.29586e-07
1.29594e-07
1.29606e-07
1.29627e-07
1.29644e-07
1.29658e-07
1.29681e-07
1.29694e-07
1.29718e-07
1.29733e-07
1.29762e-07
1.2978e-07
1.29818e-07
1.29843e-07
1.2989e-07
1.29919e-07
1.29977e-07
1.3001e-07
1.30112e-07
1.30147e-07
1.31403e-07
1.35886e-07
2.79017e-08
1.23787e-07
1.23391e-07
1.23707e-07
1.24253e-07
1.2481e-07
1.25305e-07
1.25737e-07
1.26105e-07
1.26427e-07
1.26702e-07
1.26948e-07
1.27159e-07
1.27351e-07
1.27517e-07
1.27669e-07
1.27802e-07
1.27926e-07
1.28033e-07
1.28134e-07
1.28223e-07
1.28308e-07
1.28381e-07
1.28452e-07
1.28514e-07
1.28575e-07
1.28626e-07
1.28678e-07
1.28723e-07
1.28768e-07
1.28806e-07
1.28845e-07
1.2888e-07
1.28915e-07
1.28941e-07
1.2897e-07
1.28996e-07
1.29025e-07
1.29046e-07
1.2907e-07
1.29092e-07
1.29116e-07
1.29128e-07
1.29148e-07
1.2917e-07
1.29181e-07
1.2919e-07
1.29207e-07
1.29218e-07
1.29237e-07
1.29245e-07
1.29255e-07
1.29269e-07
1.29282e-07
1.29287e-07
1.29296e-07
1.29308e-07
1.2931e-07
1.29311e-07
1.29335e-07
1.29349e-07
1.29345e-07
1.29361e-07
1.29376e-07
1.29407e-07
1.29414e-07
1.29443e-07
1.29461e-07
1.29481e-07
1.29496e-07
1.29507e-07
1.29529e-07
1.2954e-07
1.29562e-07
1.29572e-07
1.2958e-07
1.29593e-07
1.29613e-07
1.2963e-07
1.29644e-07
1.29668e-07
1.29681e-07
1.29704e-07
1.2972e-07
1.29748e-07
1.29767e-07
1.29804e-07
1.29829e-07
1.29876e-07
1.29905e-07
1.29963e-07
1.29996e-07
1.30098e-07
1.30133e-07
1.31424e-07
1.35899e-07
2.91874e-08
1.23787e-07
1.23386e-07
1.23695e-07
1.24237e-07
1.24791e-07
1.25285e-07
1.25716e-07
1.26083e-07
1.26405e-07
1.26681e-07
1.26927e-07
1.27138e-07
1.2733e-07
1.27496e-07
1.27649e-07
1.27782e-07
1.27906e-07
1.28013e-07
1.28115e-07
1.28203e-07
1.28289e-07
1.28362e-07
1.28434e-07
1.28496e-07
1.28556e-07
1.28608e-07
1.2866e-07
1.28705e-07
1.2875e-07
1.28789e-07
1.28827e-07
1.28863e-07
1.28897e-07
1.28923e-07
1.28952e-07
1.28979e-07
1.29008e-07
1.2903e-07
1.29053e-07
1.29075e-07
1.29099e-07
1.29112e-07
1.29131e-07
1.29153e-07
1.29165e-07
1.29174e-07
1.29191e-07
1.29202e-07
1.29221e-07
1.29229e-07
1.2924e-07
1.29254e-07
1.29266e-07
1.29271e-07
1.2928e-07
1.29292e-07
1.29295e-07
1.29295e-07
1.29319e-07
1.29333e-07
1.29329e-07
1.29345e-07
1.2936e-07
1.29391e-07
1.29398e-07
1.29428e-07
1.29446e-07
1.29466e-07
1.29481e-07
1.29492e-07
1.29513e-07
1.29525e-07
1.29547e-07
1.29557e-07
1.29565e-07
1.29578e-07
1.29598e-07
1.29615e-07
1.29629e-07
1.29653e-07
1.29666e-07
1.29689e-07
1.29705e-07
1.29734e-07
1.29752e-07
1.2979e-07
1.29814e-07
1.29861e-07
1.2989e-07
1.29948e-07
1.29981e-07
1.30083e-07
1.30117e-07
1.31448e-07
1.35913e-07
3.0537e-08
1.23788e-07
1.2338e-07
1.23682e-07
1.24219e-07
1.24771e-07
1.25263e-07
1.25693e-07
1.2606e-07
1.26382e-07
1.26658e-07
1.26904e-07
1.27116e-07
1.27308e-07
1.27474e-07
1.27627e-07
1.2776e-07
1.27884e-07
1.27991e-07
1.28094e-07
1.28182e-07
1.28268e-07
1.28341e-07
1.28413e-07
1.28475e-07
1.28536e-07
1.28588e-07
1.2864e-07
1.28685e-07
1.2873e-07
1.28769e-07
1.28808e-07
1.28843e-07
1.28879e-07
1.28905e-07
1.28934e-07
1.2896e-07
1.2899e-07
1.29011e-07
1.29035e-07
1.29057e-07
1.29081e-07
1.29094e-07
1.29113e-07
1.29135e-07
1.29147e-07
1.29156e-07
1.29174e-07
1.29185e-07
1.29203e-07
1.29211e-07
1.29222e-07
1.29236e-07
1.29249e-07
1.29254e-07
1.29263e-07
1.29275e-07
1.29278e-07
1.29278e-07
1.29302e-07
1.29316e-07
1.29312e-07
1.29328e-07
1.29343e-07
1.29374e-07
1.29382e-07
1.29411e-07
1.29429e-07
1.29449e-07
1.29464e-07
1.29476e-07
1.29497e-07
1.29508e-07
1.2953e-07
1.29541e-07
1.29549e-07
1.29561e-07
1.29582e-07
1.29599e-07
1.29613e-07
1.29637e-07
1.2965e-07
1.29673e-07
1.29689e-07
1.29718e-07
1.29736e-07
1.29773e-07
1.29798e-07
1.29845e-07
1.29874e-07
1.29932e-07
1.29964e-07
1.30066e-07
1.301e-07
1.31475e-07
1.35929e-07
3.19539e-08
1.23789e-07
1.23374e-07
1.23668e-07
1.242e-07
1.24749e-07
1.25239e-07
1.25668e-07
1.26035e-07
1.26357e-07
1.26633e-07
1.26879e-07
1.27091e-07
1.27283e-07
1.2745e-07
1.27603e-07
1.27736e-07
1.27861e-07
1.27968e-07
1.28071e-07
1.2816e-07
1.28245e-07
1.28319e-07
1.28391e-07
1.28453e-07
1.28515e-07
1.28566e-07
1.28619e-07
1.28664e-07
1.28709e-07
1.28748e-07
1.28787e-07
1.28823e-07
1.28858e-07
1.28884e-07
1.28913e-07
1.2894e-07
1.2897e-07
1.28991e-07
1.29015e-07
1.29037e-07
1.29061e-07
1.29074e-07
1.29094e-07
1.29116e-07
1.29128e-07
1.29137e-07
1.29155e-07
1.29166e-07
1.29184e-07
1.29193e-07
1.29204e-07
1.29218e-07
1.2923e-07
1.29236e-07
1.29244e-07
1.29257e-07
1.2926e-07
1.2926e-07
1.29283e-07
1.29297e-07
1.29294e-07
1.2931e-07
1.29325e-07
1.29356e-07
1.29363e-07
1.29393e-07
1.29411e-07
1.29431e-07
1.29446e-07
1.29458e-07
1.29479e-07
1.2949e-07
1.29512e-07
1.29523e-07
1.29532e-07
1.29544e-07
1.29565e-07
1.29582e-07
1.29596e-07
1.2962e-07
1.29633e-07
1.29656e-07
1.29672e-07
1.29701e-07
1.29719e-07
1.29756e-07
1.2978e-07
1.29827e-07
1.29856e-07
1.29914e-07
1.29946e-07
1.30049e-07
1.30082e-07
1.31505e-07
1.35946e-07
3.34419e-08
1.23789e-07
1.23367e-07
1.23653e-07
1.24179e-07
1.24725e-07
1.25214e-07
1.25642e-07
1.26009e-07
1.2633e-07
1.26606e-07
1.26852e-07
1.27064e-07
1.27257e-07
1.27424e-07
1.27577e-07
1.27711e-07
1.27836e-07
1.27943e-07
1.28046e-07
1.28135e-07
1.28221e-07
1.28295e-07
1.28367e-07
1.2843e-07
1.28491e-07
1.28543e-07
1.28596e-07
1.28641e-07
1.28687e-07
1.28726e-07
1.28765e-07
1.28801e-07
1.28836e-07
1.28862e-07
1.28892e-07
1.28919e-07
1.28948e-07
1.2897e-07
1.28994e-07
1.29016e-07
1.2904e-07
1.29053e-07
1.29073e-07
1.29095e-07
1.29107e-07
1.29116e-07
1.29134e-07
1.29145e-07
1.29164e-07
1.29172e-07
1.29183e-07
1.29198e-07
1.2921e-07
1.29216e-07
1.29224e-07
1.29237e-07
1.2924e-07
1.2924e-07
1.29263e-07
1.29277e-07
1.29275e-07
1.2929e-07
1.29305e-07
1.29337e-07
1.29344e-07
1.29373e-07
1.29392e-07
1.29412e-07
1.29427e-07
1.29439e-07
1.2946e-07
1.29471e-07
1.29493e-07
1.29504e-07
1.29513e-07
1.29525e-07
1.29546e-07
1.29563e-07
1.29577e-07
1.29601e-07
1.29614e-07
1.29638e-07
1.29653e-07
1.29682e-07
1.297e-07
1.29737e-07
1.29762e-07
1.29808e-07
1.29837e-07
1.29895e-07
1.29927e-07
1.3003e-07
1.30062e-07
1.31537e-07
1.35965e-07
3.50051e-08
1.2379e-07
1.2336e-07
1.23637e-07
1.24157e-07
1.24699e-07
1.25186e-07
1.25614e-07
1.2598e-07
1.26301e-07
1.26577e-07
1.26823e-07
1.27036e-07
1.27229e-07
1.27396e-07
1.2755e-07
1.27683e-07
1.27809e-07
1.27916e-07
1.28019e-07
1.28109e-07
1.28195e-07
1.28269e-07
1.28342e-07
1.28405e-07
1.28466e-07
1.28518e-07
1.28571e-07
1.28617e-07
1.28662e-07
1.28702e-07
1.28741e-07
1.28777e-07
1.28812e-07
1.28839e-07
1.28868e-07
1.28895e-07
1.28925e-07
1.28947e-07
1.28971e-07
1.28993e-07
1.29017e-07
1.29031e-07
1.2905e-07
1.29073e-07
1.29085e-07
1.29094e-07
1.29112e-07
1.29124e-07
1.29142e-07
1.29151e-07
1.29162e-07
1.29176e-07
1.29189e-07
1.29194e-07
1.29203e-07
1.29215e-07
1.29219e-07
1.29219e-07
1.29242e-07
1.29256e-07
1.29254e-07
1.29269e-07
1.29284e-07
1.29315e-07
1.29323e-07
1.29352e-07
1.29371e-07
1.29392e-07
1.29406e-07
1.29418e-07
1.29439e-07
1.29451e-07
1.29473e-07
1.29484e-07
1.29493e-07
1.29505e-07
1.29526e-07
1.29543e-07
1.29557e-07
1.29581e-07
1.29595e-07
1.29618e-07
1.29633e-07
1.29662e-07
1.2968e-07
1.29717e-07
1.29742e-07
1.29788e-07
1.29817e-07
1.29874e-07
1.29906e-07
1.30009e-07
1.30041e-07
1.31572e-07
1.35985e-07
3.66473e-08
1.23791e-07
1.23353e-07
1.2362e-07
1.24134e-07
1.24672e-07
1.25157e-07
1.25583e-07
1.25949e-07
1.2627e-07
1.26546e-07
1.26793e-07
1.27005e-07
1.27198e-07
1.27366e-07
1.2752e-07
1.27654e-07
1.2778e-07
1.27888e-07
1.27991e-07
1.28081e-07
1.28167e-07
1.28242e-07
1.28315e-07
1.28377e-07
1.28439e-07
1.28492e-07
1.28545e-07
1.28591e-07
1.28636e-07
1.28676e-07
1.28715e-07
1.28751e-07
1.28787e-07
1.28814e-07
1.28843e-07
1.2887e-07
1.289e-07
1.28922e-07
1.28946e-07
1.28969e-07
1.28993e-07
1.29007e-07
1.29026e-07
1.29049e-07
1.29061e-07
1.29071e-07
1.29089e-07
1.291e-07
1.29119e-07
1.29128e-07
1.29139e-07
1.29153e-07
1.29166e-07
1.29172e-07
1.2918e-07
1.29192e-07
1.29196e-07
1.29196e-07
1.29219e-07
1.29233e-07
1.29231e-07
1.29247e-07
1.29261e-07
1.29293e-07
1.29301e-07
1.2933e-07
1.29348e-07
1.2937e-07
1.29384e-07
1.29396e-07
1.29417e-07
1.29429e-07
1.29451e-07
1.29462e-07
1.29471e-07
1.29483e-07
1.29505e-07
1.29522e-07
1.29536e-07
1.29559e-07
1.29573e-07
1.29596e-07
1.29612e-07
1.29641e-07
1.29659e-07
1.29696e-07
1.2972e-07
1.29766e-07
1.29795e-07
1.29852e-07
1.29884e-07
1.29987e-07
1.30019e-07
1.3161e-07
1.36006e-07
3.83728e-08
1.23792e-07
1.23345e-07
1.23602e-07
1.24109e-07
1.24643e-07
1.25126e-07
1.25551e-07
1.25916e-07
1.26237e-07
1.26513e-07
1.2676e-07
1.26973e-07
1.27166e-07
1.27334e-07
1.27488e-07
1.27622e-07
1.27749e-07
1.27857e-07
1.27961e-07
1.28051e-07
1.28138e-07
1.28212e-07
1.28285e-07
1.28349e-07
1.28411e-07
1.28463e-07
1.28517e-07
1.28563e-07
1.28609e-07
1.28648e-07
1.28688e-07
1.28724e-07
1.2876e-07
1.28787e-07
1.28817e-07
1.28844e-07
1.28874e-07
1.28896e-07
1.2892e-07
1.28943e-07
1.28967e-07
1.28981e-07
1.29001e-07
1.29023e-07
1.29036e-07
1.29046e-07
1.29064e-07
1.29075e-07
1.29094e-07
1.29103e-07
1.29114e-07
1.29128e-07
1.29142e-07
1.29147e-07
1.29155e-07
1.29168e-07
1.29172e-07
1.29172e-07
1.29195e-07
1.29209e-07
1.29207e-07
1.29223e-07
1.29237e-07
1.29269e-07
1.29277e-07
1.29306e-07
1.29324e-07
1.29346e-07
1.2936e-07
1.29373e-07
1.29393e-07
1.29406e-07
1.29428e-07
1.29439e-07
1.29448e-07
1.2946e-07
1.29482e-07
1.29499e-07
1.29513e-07
1.29536e-07
1.29551e-07
1.29574e-07
1.29589e-07
1.29618e-07
1.29636e-07
1.29673e-07
1.29697e-07
1.29743e-07
1.29772e-07
1.29829e-07
1.29861e-07
1.29964e-07
1.29995e-07
1.31651e-07
1.36028e-07
4.01854e-08
1.23793e-07
1.23337e-07
1.23583e-07
1.24083e-07
1.24613e-07
1.25093e-07
1.25517e-07
1.25881e-07
1.26202e-07
1.26478e-07
1.26725e-07
1.26938e-07
1.27132e-07
1.273e-07
1.27455e-07
1.27589e-07
1.27716e-07
1.27824e-07
1.27928e-07
1.28019e-07
1.28106e-07
1.28181e-07
1.28254e-07
1.28318e-07
1.2838e-07
1.28433e-07
1.28487e-07
1.28533e-07
1.28579e-07
1.28619e-07
1.28659e-07
1.28695e-07
1.28731e-07
1.28758e-07
1.28788e-07
1.28816e-07
1.28846e-07
1.28868e-07
1.28892e-07
1.28915e-07
1.2894e-07
1.28954e-07
1.28973e-07
1.28996e-07
1.29009e-07
1.29019e-07
1.29037e-07
1.29049e-07
1.29067e-07
1.29077e-07
1.29088e-07
1.29102e-07
1.29116e-07
1.29121e-07
1.2913e-07
1.29142e-07
1.29146e-07
1.29147e-07
1.29169e-07
1.29183e-07
1.29181e-07
1.29197e-07
1.29211e-07
1.29243e-07
1.29252e-07
1.29281e-07
1.29299e-07
1.29321e-07
1.29335e-07
1.29348e-07
1.29368e-07
1.29381e-07
1.29403e-07
1.29414e-07
1.29424e-07
1.29436e-07
1.29457e-07
1.29475e-07
1.29489e-07
1.29512e-07
1.29526e-07
1.2955e-07
1.29565e-07
1.29594e-07
1.29612e-07
1.29649e-07
1.29673e-07
1.29719e-07
1.29747e-07
1.29804e-07
1.29836e-07
1.29939e-07
1.2997e-07
1.31694e-07
1.36051e-07
4.20893e-08
1.23795e-07
1.23329e-07
1.23564e-07
1.24055e-07
1.2458e-07
1.25058e-07
1.25481e-07
1.25844e-07
1.26165e-07
1.26441e-07
1.26688e-07
1.26901e-07
1.27095e-07
1.27263e-07
1.27419e-07
1.27554e-07
1.27681e-07
1.2779e-07
1.27894e-07
1.27985e-07
1.28072e-07
1.28148e-07
1.28221e-07
1.28285e-07
1.28348e-07
1.28401e-07
1.28455e-07
1.28501e-07
1.28548e-07
1.28588e-07
1.28628e-07
1.28664e-07
1.28701e-07
1.28728e-07
1.28758e-07
1.28786e-07
1.28816e-07
1.28839e-07
1.28863e-07
1.28886e-07
1.28911e-07
1.28925e-07
1.28945e-07
1.28967e-07
1.28981e-07
1.28991e-07
1.29009e-07
1.2902e-07
1.29039e-07
1.29049e-07
1.2906e-07
1.29075e-07
1.29088e-07
1.29094e-07
1.29102e-07
1.29115e-07
1.29119e-07
1.2912e-07
1.29141e-07
1.29155e-07
1.29154e-07
1.2917e-07
1.29184e-07
1.29216e-07
1.29225e-07
1.29254e-07
1.29272e-07
1.29294e-07
1.29308e-07
1.29322e-07
1.29342e-07
1.29355e-07
1.29377e-07
1.29388e-07
1.29398e-07
1.2941e-07
1.29432e-07
1.29449e-07
1.29463e-07
1.29486e-07
1.29501e-07
1.29524e-07
1.2954e-07
1.29568e-07
1.29586e-07
1.29623e-07
1.29647e-07
1.29692e-07
1.29721e-07
1.29778e-07
1.29809e-07
1.29913e-07
1.29943e-07
1.31739e-07
1.36075e-07
4.40879e-08
1.23796e-07
1.2332e-07
1.23543e-07
1.24026e-07
1.24546e-07
1.25021e-07
1.25442e-07
1.25805e-07
1.26126e-07
1.26401e-07
1.26649e-07
1.26862e-07
1.27057e-07
1.27225e-07
1.27381e-07
1.27516e-07
1.27644e-07
1.27753e-07
1.27858e-07
1.27949e-07
1.28037e-07
1.28112e-07
1.28187e-07
1.2825e-07
1.28314e-07
1.28367e-07
1.28421e-07
1.28468e-07
1.28515e-07
1.28555e-07
1.28595e-07
1.28632e-07
1.28668e-07
1.28696e-07
1.28726e-07
1.28754e-07
1.28785e-07
1.28807e-07
1.28832e-07
1.28855e-07
1.2888e-07
1.28894e-07
1.28914e-07
1.28937e-07
1.28951e-07
1.28961e-07
1.28979e-07
1.28991e-07
1.2901e-07
1.29019e-07
1.29031e-07
1.29045e-07
1.29059e-07
1.29065e-07
1.29073e-07
1.29086e-07
1.29091e-07
1.29091e-07
1.29112e-07
1.29126e-07
1.29126e-07
1.29142e-07
1.29155e-07
1.29188e-07
1.29196e-07
1.29225e-07
1.29243e-07
1.29266e-07
1.2928e-07
1.29294e-07
1.29313e-07
1.29327e-07
1.29349e-07
1.2936e-07
1.29371e-07
1.29383e-07
1.29404e-07
1.29421e-07
1.29436e-07
1.29459e-07
1.29474e-07
1.29497e-07
1.29513e-07
1.29541e-07
1.29559e-07
1.29596e-07
1.29619e-07
1.29665e-07
1.29693e-07
1.2975e-07
1.29781e-07
1.29885e-07
1.29915e-07
1.31787e-07
1.36099e-07
4.61846e-08
1.23797e-07
1.23311e-07
1.23522e-07
1.23996e-07
1.24511e-07
1.24982e-07
1.25402e-07
1.25764e-07
1.26084e-07
1.2636e-07
1.26607e-07
1.26821e-07
1.27016e-07
1.27185e-07
1.27341e-07
1.27477e-07
1.27605e-07
1.27714e-07
1.2782e-07
1.27911e-07
1.27999e-07
1.28075e-07
1.2815e-07
1.28214e-07
1.28277e-07
1.28331e-07
1.28386e-07
1.28432e-07
1.28479e-07
1.2852e-07
1.2856e-07
1.28597e-07
1.28634e-07
1.28662e-07
1.28693e-07
1.2872e-07
1.28751e-07
1.28774e-07
1.28799e-07
1.28822e-07
1.28847e-07
1.28862e-07
1.28882e-07
1.28905e-07
1.28919e-07
1.28929e-07
1.28947e-07
1.28959e-07
1.28978e-07
1.28988e-07
1.29e-07
1.29014e-07
1.29028e-07
1.29034e-07
1.29043e-07
1.29055e-07
1.2906e-07
1.2906e-07
1.29081e-07
1.29095e-07
1.29095e-07
1.29111e-07
1.29124e-07
1.29157e-07
1.29166e-07
1.29195e-07
1.29213e-07
1.29236e-07
1.2925e-07
1.29264e-07
1.29284e-07
1.29298e-07
1.29319e-07
1.29331e-07
1.29341e-07
1.29354e-07
1.29375e-07
1.29393e-07
1.29407e-07
1.2943e-07
1.29445e-07
1.29468e-07
1.29484e-07
1.29512e-07
1.29531e-07
1.29567e-07
1.2959e-07
1.29636e-07
1.29664e-07
1.29721e-07
1.29751e-07
1.29855e-07
1.29886e-07
1.31836e-07
1.36123e-07
4.83816e-08
1.23799e-07
1.23301e-07
1.23499e-07
1.23964e-07
1.24473e-07
1.24941e-07
1.25359e-07
1.2572e-07
1.2604e-07
1.26316e-07
1.26564e-07
1.26777e-07
1.26973e-07
1.27142e-07
1.27299e-07
1.27435e-07
1.27563e-07
1.27673e-07
1.27779e-07
1.27871e-07
1.2796e-07
1.28036e-07
1.28111e-07
1.28175e-07
1.28239e-07
1.28293e-07
1.28348e-07
1.28395e-07
1.28442e-07
1.28483e-07
1.28524e-07
1.28561e-07
1.28598e-07
1.28626e-07
1.28657e-07
1.28685e-07
1.28716e-07
1.28739e-07
1.28764e-07
1.28787e-07
1.28813e-07
1.28828e-07
1.28848e-07
1.28871e-07
1.28885e-07
1.28895e-07
1.28914e-07
1.28926e-07
1.28945e-07
1.28955e-07
1.28967e-07
1.28981e-07
1.28996e-07
1.29002e-07
1.2901e-07
1.29023e-07
1.29028e-07
1.29028e-07
1.29049e-07
1.29063e-07
1.29063e-07
1.29079e-07
1.29092e-07
1.29125e-07
1.29135e-07
1.29163e-07
1.29181e-07
1.29205e-07
1.29219e-07
1.29233e-07
1.29252e-07
1.29266e-07
1.29288e-07
1.293e-07
1.29311e-07
1.29323e-07
1.29345e-07
1.29362e-07
1.29376e-07
1.29399e-07
1.29414e-07
1.29438e-07
1.29454e-07
1.29482e-07
1.295e-07
1.29536e-07
1.2956e-07
1.29605e-07
1.29633e-07
1.2969e-07
1.2972e-07
1.29824e-07
1.29854e-07
1.31887e-07
1.36146e-07
5.06804e-08
1.238e-07
1.23292e-07
1.23476e-07
1.23931e-07
1.24434e-07
1.24899e-07
1.25315e-07
1.25675e-07
1.25994e-07
1.2627e-07
1.26518e-07
1.26732e-07
1.26928e-07
1.27097e-07
1.27254e-07
1.27391e-07
1.2752e-07
1.2763e-07
1.27736e-07
1.27828e-07
1.27918e-07
1.27994e-07
1.2807e-07
1.28135e-07
1.28199e-07
1.28253e-07
1.28308e-07
1.28356e-07
1.28403e-07
1.28444e-07
1.28485e-07
1.28523e-07
1.2856e-07
1.28589e-07
1.2862e-07
1.28648e-07
1.28679e-07
1.28702e-07
1.28727e-07
1.2875e-07
1.28776e-07
1.28792e-07
1.28812e-07
1.28835e-07
1.2885e-07
1.2886e-07
1.28879e-07
1.28891e-07
1.2891e-07
1.28921e-07