/*--------------------------------*- C++ -*----------------------------------*\
| =========                 |                                                 |
| \\      /  F ield         | OpenFOAM: The Open Source CFD Toolbox           |
|  \\    /   O peration     | Version:  v2012                                 |
|   \\  /    A nd           | Website:  www.openfoam.com                      |
|    \\/     M anipulation  |                                                 |
\*---------------------------------------------------------------------------*/
FoamFile
{
    version     2.0;
    format      ascii;
    class       volScalarField;
    location    "21.5";
    object      omega;
}
// * * * * * * * * * * * * * * * * * * * * * * * * * * * * * * * * * * * * * //

dimensions      [0 0 -1 0 0 0 0];


internalField   nonuniform List<scalar> 
209825
(
8241.99
7566.19
7095.15
6773.38
6547.56
6383.32
6259.24
6163.08
6086.42
6024.51
5973.34
5930.87
5894.83
5864.35
5837.93
5815.29
5795.32
5778.06
5762.59
5749.14
5736.91
5726.24
5716.39
5707.84
5699.84
5692.86
5686.22
5680.5
5675.02
5670.27
5665.64
5661.7
5657.78
5654.52
5651.23
5648.48
5645.6
5643.33
5640.93
5639
5636.83
5635.33
5633.56
5632.04
5630.52
5629.45
5628.27
5627.52
5626.49
5625.88
5624.75
5623.93
5623.35
5622.95
5622
5621.87
5621.82
5621.75
5621.6
5621.07
5621.3
5621.3
5621.29
5621.14
5621.87
5621.87
5621.87
5622.28
5622.28
5623.01
5623.01
5624.15
5624.15
5625.29
5626.02
5627.24
5627.41
5628.68
5629.28
5630.57
5631.24
5632.77
5633.48
5635.12
5635.94
5637.72
5638.59
5640.63
5641.6
5644.14
5645.09
5649.04
5649.54
5687.5
5844.34
114648
8242
7566.19
7095.12
6773.33
6547.48
6383.23
6259.13
6162.95
6086.28
6024.36
5973.18
5930.71
5894.66
5864.17
5837.75
5815.11
5795.14
5777.88
5762.4
5748.95
5736.72
5726.05
5716.19
5707.64
5699.64
5692.66
5686.02
5680.3
5674.82
5670.06
5665.43
5661.49
5657.57
5654.31
5651.02
5648.26
5645.38
5643.11
5640.72
5638.78
5636.62
5635.12
5633.35
5631.83
5630.3
5629.24
5628.05
5627.3
5626.27
5625.66
5624.53
5623.72
5623.14
5622.73
5621.78
5621.65
5621.6
5621.53
5621.38
5620.85
5621.08
5621.08
5621.07
5620.92
5621.65
5621.65
5621.65
5622.06
5622.06
5622.79
5622.79
5623.93
5623.93
5625.07
5625.8
5627.02
5627.19
5628.45
5629.05
5630.35
5631.02
5632.55
5633.26
5634.9
5635.72
5637.5
5638.37
5640.4
5641.38
5643.92
5644.86
5648.82
5649.31
5687.35
5844.18
111352
8242.02
7566.17
7095.02
6773.14
6547.21
6382.89
6258.74
6162.52
6085.81
6023.86
5972.66
5930.16
5894.09
5863.59
5837.15
5814.51
5794.52
5777.25
5761.76
5748.3
5736.07
5725.39
5715.53
5706.97
5698.97
5691.98
5685.34
5679.62
5674.13
5669.37
5664.74
5660.8
5656.87
5653.61
5650.32
5647.56
5644.68
5642.41
5640.01
5638.08
5635.91
5634.4
5632.63
5631.11
5629.59
5628.52
5627.33
5626.58
5625.55
5624.94
5623.81
5623
5622.41
5622.01
5621.06
5620.93
5620.87
5620.8
5620.65
5620.12
5620.35
5620.35
5620.34
5620.19
5620.92
5620.92
5620.92
5621.33
5621.33
5622.06
5622.06
5623.2
5623.2
5624.33
5625.06
5626.28
5626.45
5627.72
5628.32
5629.61
5630.28
5631.81
5632.52
5634.16
5634.98
5636.76
5637.63
5639.66
5640.63
5643.18
5644.12
5648.08
5648.57
5686.75
5843.55
107568
8242.04
7566.14
7094.84
6772.8
6546.73
6382.3
6258.06
6161.76
6085
6023
5971.75
5929.22
5893.12
5862.59
5836.13
5813.46
5793.46
5776.17
5760.67
5747.2
5734.95
5724.27
5714.39
5705.82
5697.82
5690.82
5684.17
5678.45
5672.95
5668.19
5663.55
5659.61
5655.68
5652.41
5649.12
5646.36
5643.47
5641.2
5638.8
5636.86
5634.69
5633.18
5631.41
5629.89
5628.36
5627.29
5626.1
5625.35
5624.32
5623.7
5622.57
5621.76
5621.18
5620.77
5619.82
5619.69
5619.63
5619.56
5619.41
5618.88
5619.11
5619.11
5619.1
5618.94
5619.67
5619.67
5619.67
5620.07
5620.07
5620.8
5620.8
5621.94
5621.94
5623.08
5623.8
5625.02
5625.19
5626.45
5627.05
5628.35
5629.02
5630.54
5631.26
5632.89
5633.71
5635.49
5636.36
5638.39
5639.36
5641.9
5642.84
5646.8
5647.29
5685.71
5842.42
103679
8242.09
7566.09
7094.58
6772.32
6546.06
6381.46
6257.09
6160.69
6083.84
6021.77
5970.46
5927.88
5891.73
5861.17
5834.67
5811.97
5791.94
5774.64
5759.11
5745.63
5733.36
5722.66
5712.78
5704.19
5696.18
5689.17
5682.51
5676.78
5671.28
5666.51
5661.86
5657.91
5653.98
5650.7
5647.4
5644.64
5641.75
5639.47
5637.07
5635.13
5632.96
5631.44
5629.67
5628.14
5626.61
5625.54
5624.35
5623.6
5622.56
5621.94
5620.81
5620
5619.41
5619
5618.06
5617.92
5617.86
5617.79
5617.63
5617.1
5617.33
5617.33
5617.32
5617.16
5617.88
5617.88
5617.88
5618.29
5618.29
5619.01
5619.01
5620.15
5620.15
5621.28
5622.01
5623.23
5623.39
5624.66
5625.25
5626.55
5627.22
5628.74
5629.45
5631.09
5631.91
5633.69
5634.55
5636.58
5637.55
5640.09
5641.03
5644.99
5645.47
5684.22
5840.77
99786.7
8242.14
7566.03
7094.25
6771.69
6545.17
6380.37
6255.83
6159.29
6082.32
6020.16
5968.77
5926.12
5889.92
5859.31
5832.77
5810.03
5789.97
5772.63
5757.08
5743.57
5731.29
5720.57
5710.67
5702.07
5694.04
5687.02
5680.35
5674.6
5669.09
5664.31
5659.66
5655.7
5651.76
5648.48
5645.17
5642.4
5639.51
5637.22
5634.81
5632.87
5630.69
5629.18
5627.4
5625.87
5624.33
5623.26
5622.06
5621.31
5620.27
5619.65
5618.52
5617.7
5617.11
5616.7
5615.76
5615.61
5615.55
5615.48
5615.32
5614.79
5615.01
5615.01
5615
5614.84
5615.56
5615.56
5615.56
5615.96
5615.96
5616.68
5616.68
5617.81
5617.81
5618.94
5619.67
5620.89
5621.05
5622.31
5622.91
5624.2
5624.87
5626.39
5627.1
5628.73
5629.55
5631.33
5632.19
5634.22
5635.19
5637.73
5638.66
5642.62
5643.09
5682.26
5838.59
95933.1
8242.21
7565.95
7093.84
6770.92
6544.08
6379.02
6254.27
6157.56
6080.45
6018.17
5966.69
5923.95
5887.68
5857.01
5830.42
5807.63
5787.53
5770.15
5754.57
5741.03
5728.72
5717.98
5708.05
5699.44
5691.39
5684.35
5677.67
5671.91
5666.38
5661.59
5656.93
5652.96
5649.01
5645.72
5642.4
5639.63
5636.73
5634.44
5632.02
5630.07
5627.89
5626.37
5624.59
5623.05
5621.51
5620.43
5619.23
5618.48
5617.43
5616.81
5615.68
5614.86
5614.26
5613.85
5612.9
5612.75
5612.69
5612.62
5612.46
5611.92
5612.14
5612.14
5612.13
5611.96
5612.68
5612.67
5612.67
5613.08
5613.07
5613.79
5613.79
5614.92
5614.92
5616.05
5616.77
5617.99
5618.15
5619.41
5620
5621.29
5621.96
5623.48
5624.19
5625.82
5626.64
5628.41
5629.28
5631.3
5632.27
5634.8
5635.73
5639.69
5640.15
5679.85
5835.88
92136.4
8242.29
7565.86
7093.35
6769.99
6542.78
6377.41
6252.4
6155.49
6078.22
6015.8
5964.19
5921.36
5885
5854.26
5827.6
5804.76
5784.61
5767.19
5751.57
5737.99
5725.65
5714.88
5704.93
5696.29
5688.22
5681.17
5674.46
5668.68
5663.15
5658.34
5653.67
5649.68
5645.72
5642.42
5639.1
5636.31
5633.4
5631.1
5628.68
5626.72
5624.54
5623.01
5621.22
5619.68
5618.14
5617.06
5615.85
5615.09
5614.04
5613.41
5612.28
5611.45
5610.85
5610.44
5609.49
5609.34
5609.27
5609.19
5609.03
5608.49
5608.7
5608.7
5608.69
5608.52
5609.23
5609.23
5609.23
5609.63
5609.62
5610.34
5610.34
5611.46
5611.46
5612.59
5613.3
5614.52
5614.68
5615.93
5616.53
5617.82
5618.48
5620
5620.71
5622.33
5623.15
5624.92
5625.78
5627.81
5628.77
5631.3
5632.23
5636.19
5636.63
5676.96
5832.63
88405.6
8242.38
7565.76
7092.78
6768.92
6541.26
6375.53
6250.23
6153.08
6075.61
6013.03
5961.29
5918.34
5881.88
5851.05
5824.32
5801.41
5781.2
5763.73
5748.07
5734.45
5722.07
5711.27
5701.28
5692.62
5684.52
5677.45
5670.72
5664.93
5659.37
5654.55
5649.86
5645.86
5641.88
5638.57
5635.24
5632.44
5629.52
5627.22
5624.79
5622.82
5620.62
5619.09
5617.29
5615.75
5614.2
5613.11
5611.9
5611.13
5610.08
5609.45
5608.31
5607.48
5606.88
5606.46
5605.52
5605.35
5605.28
5605.2
5605.03
5604.49
5604.7
5604.7
5604.68
5604.51
5605.21
5605.21
5605.21
5605.6
5605.6
5606.31
5606.31
5607.42
5607.42
5608.54
5609.25
5610.48
5610.63
5611.88
5612.47
5613.76
5614.42
5615.93
5616.64
5618.26
5619.08
5620.85
5621.71
5623.73
5624.69
5627.21
5628.14
5632.1
5632.53
5673.6
5828.83
84743.2
8242.49
7565.65
7092.13
6767.69
6539.53
6373.38
6247.75
6150.33
6072.63
6009.86
5957.96
5914.88
5878.31
5847.38
5820.56
5797.58
5777.3
5759.77
5744.05
5730.39
5717.97
5707.13
5697.11
5688.41
5680.29
5673.19
5666.44
5660.62
5655.04
5650.2
5645.49
5641.48
5637.49
5634.17
5630.82
5628.01
5625.08
5622.76
5620.32
5618.35
5616.14
5614.6
5612.8
5611.25
5609.69
5608.59
5607.37
5606.6
5605.54
5604.9
5603.77
5602.93
5602.32
5601.9
5600.95
5600.78
5600.7
5600.62
5600.45
5599.91
5600.11
5600.11
5600.09
5599.91
5600.6
5600.6
5600.6
5600.99
5600.99
5601.69
5601.69
5602.79
5602.79
5603.91
5604.62
5605.84
5605.99
5607.24
5607.82
5609.11
5609.76
5611.28
5611.98
5613.6
5614.41
5616.18
5617.04
5619.05
5620.01
5622.53
5623.45
5627.41
5627.82
5669.76
5824.46
81147.6
8242.61
7565.52
7091.41
6766.32
6537.58
6370.97
6244.95
6147.22
6069.27
6006.29
5954.21
5910.98
5874.28
5843.23
5816.32
5793.25
5772.89
5755.3
5739.52
5725.81
5713.33
5702.45
5692.39
5683.66
5675.5
5668.37
5661.6
5655.75
5650.15
5645.3
5640.57
5636.54
5632.53
5629.19
5625.82
5623
5620.06
5617.73
5615.28
5613.29
5611.08
5609.52
5607.71
5606.16
5604.59
5603.49
5602.26
5601.48
5600.41
5599.77
5598.63
5597.79
5597.17
5596.75
5595.8
5595.62
5595.54
5595.45
5595.28
5594.73
5594.92
5594.92
5594.9
5594.71
5595.39
5595.39
5595.39
5595.77
5595.77
5596.47
5596.47
5597.56
5597.56
5598.68
5599.38
5600.6
5600.74
5601.99
5602.57
5603.86
5604.51
5606.01
5606.72
5608.33
5609.14
5610.9
5611.76
5613.77
5614.72
5617.24
5618.15
5622.11
5622.51
5665.44
5819.54
77613
8242.74
7565.38
7090.6
6764.79
6535.42
6368.28
6241.84
6143.76
6065.52
6002.3
5950.03
5906.63
5869.78
5838.61
5811.58
5788.42
5767.98
5750.31
5734.46
5720.69
5708.16
5697.23
5687.13
5678.36
5670.16
5663
5656.19
5650.32
5644.7
5639.81
5635.06
5631.01
5626.98
5623.63
5620.24
5617.41
5614.45
5612.11
5609.64
5607.65
5605.42
5603.86
5602.04
5600.48
5598.9
5597.78
5596.55
5595.76
5594.69
5594.04
5592.9
5592.05
5591.42
5591
5590.05
5589.85
5589.76
5589.67
5589.5
5588.95
5589.12
5589.12
5589.1
5588.9
5589.58
5589.58
5589.58
5589.95
5589.95
5590.64
5590.64
5591.72
5591.72
5592.83
5593.52
5594.75
5594.88
5596.12
5596.71
5597.99
5598.63
5600.13
5600.84
5602.45
5603.25
5605.01
5605.86
5607.87
5608.82
5611.32
5612.23
5616.2
5616.57
5660.62
5814.04
74132.7
8242.89
7565.23
7089.72
6763.11
6533.04
6365.31
6238.4
6139.94
6061.39
5997.91
5945.41
5901.82
5864.8
5833.49
5806.35
5783.08
5762.54
5744.79
5728.87
5715.03
5702.44
5691.46
5681.31
5672.49
5664.26
5657.06
5650.21
5644.31
5638.66
5633.75
5628.97
5624.9
5620.85
5617.47
5614.07
5611.22
5608.25
5605.89
5603.41
5601.4
5599.16
5597.59
5595.76
5594.19
5592.6
5591.47
5590.23
5589.43
5588.35
5587.7
5586.55
5585.7
5585.06
5584.63
5583.68
5583.47
5583.38
5583.28
5583.1
5582.55
5582.71
5582.71
5582.69
5582.48
5583.14
5583.15
5583.14
5583.51
5583.51
5584.18
5584.18
5585.26
5585.26
5586.37
5587.05
5588.27
5588.4
5589.64
5590.21
5591.5
5592.13
5593.63
5594.33
5595.93
5596.74
5598.49
5599.34
5601.33
5602.28
5604.78
5605.68
5609.65
5610
5655.3
5807.96
70713.2
8243.05
7565.07
7088.77
6761.28
6530.43
6362.07
6234.64
6135.76
6056.86
5993.08
5940.34
5896.54
5859.35
5827.89
5800.61
5777.22
5756.58
5738.74
5722.74
5708.82
5696.17
5685.12
5674.92
5666.06
5657.78
5650.54
5643.65
5637.72
5632.03
5627.1
5622.29
5618.2
5614.12
5610.72
5607.3
5604.43
5601.44
5599.06
5596.57
5594.55
5592.29
5590.7
5588.86
5587.28
5585.68
5584.55
5583.29
5582.48
5581.39
5580.73
5579.58
5578.73
5578.07
5577.64
5576.69
5576.47
5576.36
5576.26
5576.08
5575.52
5575.67
5575.67
5575.65
5575.42
5576.08
5576.08
5576.08
5576.43
5576.43
5577.1
5577.1
5578.16
5578.17
5579.26
5579.94
5581.16
5581.28
5582.51
5583.09
5584.37
5585
5586.49
5587.18
5588.78
5589.58
5591.33
5592.18
5594.16
5595.11
5597.6
5598.49
5602.46
5602.79
5649.48
5801.28
67360.6
8243.22
7564.9
7087.74
6759.3
6527.61
6358.55
6230.56
6131.21
6051.93
5987.84
5934.83
5890.8
5853.42
5821.78
5794.35
5770.84
5750.09
5732.14
5716.05
5702.05
5689.33
5678.22
5667.96
5659.04
5650.71
5643.42
5636.5
5630.53
5624.81
5619.84
5615
5610.88
5606.78
5603.36
5599.91
5597.03
5594.01
5591.62
5589.1
5587.07
5584.8
5583.2
5581.34
5579.75
5578.14
5576.99
5575.72
5574.9
5573.8
5573.14
5571.98
5571.12
5570.45
5570.02
5569.06
5568.83
5568.71
5568.6
5568.42
5567.85
5568
5567.99
5567.97
5567.73
5568.37
5568.37
5568.37
5568.72
5568.72
5569.37
5569.37
5570.42
5570.43
5571.52
5572.18
5573.4
5573.51
5574.74
5575.31
5576.59
5577.21
5578.7
5579.39
5580.98
5581.78
5583.52
5584.36
5586.34
5587.28
5589.76
5590.65
5594.62
5594.93
5643.14
5794.01
64080.5
8243.41
7564.72
7086.63
6757.17
6524.57
6354.76
6226.14
6126.29
6046.59
5982.16
5928.86
5884.59
5846.99
5815.17
5787.58
5763.93
5743.05
5725
5708.8
5694.72
5681.92
5670.74
5660.41
5651.43
5643.05
5635.72
5628.75
5622.73
5616.97
5611.97
5607.1
5602.95
5598.82
5595.37
5591.9
5589
5585.96
5583.55
5581.01
5578.96
5576.68
5575.05
5573.19
5571.59
5569.96
5568.8
5567.51
5566.68
5565.57
5564.9
5563.74
5562.87
5562.19
5561.75
5560.79
5560.54
5560.42
5560.3
5560.11
5559.54
5559.67
5559.67
5559.64
5559.39
5560.01
5560.02
5560.01
5560.35
5560.35
5560.99
5560.99
5562.03
5562.03
5563.12
5563.76
5564.99
5565.09
5566.32
5566.88
5568.15
5568.77
5570.24
5570.93
5572.52
5573.31
5575.04
5575.88
5577.86
5578.79
5581.26
5582.14
5586.11
5586.4
5636.29
5786.12
60878.1
8243.61
7564.53
7085.45
6754.89
6521.3
6350.68
6221.4
6121
6040.86
5976.05
5922.43
5877.89
5840.06
5808.04
5780.28
5756.48
5735.46
5717.29
5700.99
5686.81
5673.92
5662.67
5652.27
5643.23
5634.78
5627.4
5620.38
5614.33
5608.52
5603.48
5598.58
5594.4
5590.23
5586.76
5583.26
5580.33
5577.27
5574.84
5572.28
5570.22
5567.91
5566.27
5564.39
5562.78
5561.13
5559.96
5558.66
5557.82
5556.69
5556.01
5554.84
5553.96
5553.27
5552.83
5551.86
5551.6
5551.46
5551.34
5551.14
5550.57
5550.68
5550.68
5550.64
5550.38
5550.99
5551
5550.99
5551.32
5551.32
5551.95
5551.94
5552.97
5552.97
5554.05
5554.68
5555.91
5556
5557.22
5557.77
5559.04
5559.65
5561.12
5561.81
5563.38
5564.17
5565.9
5566.74
5568.7
5569.63
5572.09
5572.95
5576.93
5577.19
5628.9
5777.61
57758.3
8243.82
7564.34
7084.2
6752.46
6517.82
6346.31
6216.32
6115.34
6034.71
5969.5
5915.54
5870.71
5832.63
5800.4
5772.44
5748.48
5727.32
5709.02
5692.6
5678.32
5665.34
5654
5643.52
5634.42
5625.91
5618.47
5611.4
5605.29
5599.44
5594.37
5589.42
5585.21
5581.01
5577.5
5573.98
5571.02
5567.94
5565.48
5562.9
5560.82
5558.49
5556.83
5554.94
5553.31
5551.65
5550.46
5549.14
5548.29
5547.15
5546.46
5545.29
5544.4
5543.69
5543.24
5542.27
5541.99
5541.84
5541.71
5541.51
5540.93
5541.03
5541.03
5540.98
5540.7
5541.3
5541.3
5541.3
5541.61
5541.61
5542.22
5542.22
5543.23
5543.23
5544.3
5544.92
5546.15
5546.23
5547.44
5547.99
5549.26
5549.86
5551.32
5552
5553.57
5554.35
5556.07
5556.9
5558.86
5559.78
5562.23
5563.08
5567.06
5567.3
5620.97
5768.46
54725.5
8244.05
7564.14
7082.88
6749.88
6514.11
6341.67
6210.91
6109.3
6028.15
5962.5
5908.18
5863.04
5824.69
5792.23
5764.07
5739.93
5718.61
5700.17
5683.63
5669.24
5656.16
5644.73
5634.17
5624.99
5616.42
5608.92
5601.79
5595.63
5589.73
5584.61
5579.63
5575.37
5571.14
5567.6
5564.04
5561.06
5557.95
5555.47
5552.86
5550.76
5548.41
5546.73
5544.82
5543.18
5541.49
5540.29
5538.96
5538.09
5536.94
5536.23
5535.06
5534.16
5533.43
5532.98
5532
5531.71
5531.54
5531.4
5531.19
5530.62
5530.7
5530.69
5530.64
5530.35
5530.93
5530.93
5530.92
5531.22
5531.22
5531.82
5531.82
5532.81
5532.81
5533.87
5534.48
5535.7
5535.78
5536.98
5537.52
5538.78
5539.37
5540.83
5541.5
5543.06
5543.84
5545.55
5546.38
5548.32
5549.24
5551.68
5552.52
5556.5
5556.71
5612.5
5758.67
51783.8
8244.28
7563.94
7081.5
6747.16
6510.19
6336.74
6205.16
6102.88
6021.17
5955.06
5900.34
5854.87
5816.23
5783.53
5755.15
5730.82
5709.33
5690.75
5674.07
5659.57
5646.37
5634.85
5624.21
5614.94
5606.29
5598.73
5591.54
5585.33
5579.38
5574.21
5569.18
5564.89
5560.61
5557.04
5553.45
5550.44
5547.3
5544.79
5542.16
5540.03
5537.66
5535.96
5534.03
5532.37
5530.67
5529.45
5528.09
5527.21
5526.05
5525.33
5524.14
5523.23
5522.49
5522.03
5521.05
5520.74
5520.56
5520.4
5520.19
5519.61
5519.68
5519.67
5519.6
5519.3
5519.86
5519.86
5519.85
5520.14
5520.14
5520.72
5520.72
5521.69
5521.69
5522.75
5523.33
5524.55
5524.62
5525.82
5526.35
5527.61
5528.18
5529.63
5530.3
5531.85
5532.63
5534.33
5535.15
5537.08
5537.99
5540.42
5541.25
5545.23
5545.42
5603.46
5748.2
48937.1
8244.54
7563.73
7080.04
6744.29
6506.05
6331.54
6199.08
6096.08
6013.78
5947.17
5892.03
5846.2
5807.26
5774.29
5745.68
5721.15
5699.48
5680.74
5663.92
5649.29
5635.98
5624.35
5613.61
5604.27
5595.54
5587.9
5580.65
5574.38
5568.37
5563.15
5558.07
5553.74
5549.43
5545.82
5542.19
5539.14
5535.97
5533.43
5530.77
5528.62
5526.23
5524.5
5522.55
5520.88
5519.15
5517.92
5516.54
5515.64
5514.46
5513.73
5512.54
5511.62
5510.86
5510.39
5509.4
5509.07
5508.88
5508.71
5508.49
5507.91
5507.96
5507.94
5507.87
5507.55
5508.09
5508.09
5508.08
5508.35
5508.35
5508.91
5508.91
5509.86
5509.87
5510.91
5511.48
5512.69
5512.75
5513.95
5514.47
5515.72
5516.29
5517.72
5518.39
5519.93
5520.7
5522.39
5523.2
5525.13
5526.02
5528.44
5529.26
5533.24
5533.41
5593.85
5737.05
46188.7
8244.8
7563.52
7078.52
6741.28
6501.69
6326.05
6192.66
6088.9
6005.96
5938.83
5883.25
5837.04
5797.77
5764.51
5735.66
5710.9
5689.05
5670.13
5653.16
5638.4
5624.96
5613.23
5602.39
5592.95
5584.14
5576.43
5569.11
5562.77
5556.7
5551.43
5546.3
5541.92
5537.56
5533.91
5530.24
5527.17
5523.96
5521.39
5518.7
5516.53
5514.11
5512.36
5510.38
5508.69
5506.95
5505.69
5504.29
5503.38
5502.18
5501.43
5500.23
5499.3
5498.52
5498.04
5497.05
5496.7
5496.49
5496.31
5496.09
5495.51
5495.53
5495.51
5495.43
5495.08
5495.61
5495.61
5495.6
5495.85
5495.85
5496.39
5496.39
5497.33
5497.33
5498.36
5498.91
5500.12
5500.17
5501.35
5501.86
5503.11
5503.67
5505.09
5505.75
5507.28
5508.05
5509.73
5510.54
5512.45
5513.34
5515.74
5516.55
5520.53
5520.67
5583.65
5725.19
43541.7
8245.08
7563.31
7076.95
6738.14
6497.12
6320.28
6185.9
6081.34
5997.73
5930.04
5873.98
5827.36
5787.74
5754.19
5725.07
5700.09
5678.02
5658.93
5641.8
5626.89
5613.32
5601.48
5590.53
5580.99
5572.09
5564.3
5556.9
5550.5
5544.37
5539.04
5533.86
5529.43
5525.02
5521.33
5517.62
5514.51
5511.26
5508.66
5505.94
5503.74
5501.29
5499.51
5497.52
5495.81
5494.04
5492.76
5491.34
5490.4
5489.19
5488.43
5487.22
5486.27
5485.47
5484.98
5483.99
5483.61
5483.38
5483.19
5482.96
5482.38
5482.38
5482.35
5482.26
5481.9
5482.4
5482.41
5482.39
5482.63
5482.63
5483.15
5483.15
5484.06
5484.06
5485.09
5485.61
5486.81
5486.86
5488.04
5488.53
5489.77
5490.32
5491.73
5492.38
5493.91
5494.66
5496.33
5497.13
5499.03
5499.91
5502.31
5503.09
5507.08
5507.2
5572.85
5712.6
40998.8
8245.37
7563.1
7075.31
6734.85
6492.33
6314.23
6178.82
6073.39
5989.07
5920.79
5864.22
5817.18
5777.19
5743.32
5713.92
5688.69
5666.41
5647.13
5629.82
5614.76
5601.06
5589.08
5578.02
5568.38
5559.39
5551.52
5544.03
5537.56
5531.36
5525.98
5520.73
5516.25
5511.79
5508.06
5504.3
5501.15
5497.87
5495.23
5492.48
5490.25
5487.77
5485.96
5483.94
5482.21
5480.42
5479.12
5477.67
5476.72
5475.48
5474.7
5473.48
5472.52
5471.7
5471.2
5470.2
5469.8
5469.55
5469.35
5469.11
5468.54
5468.51
5468.47
5468.37
5467.99
5468.47
5468.47
5468.46
5468.68
5468.67
5469.18
5469.17
5470.06
5470.06
5471.07
5471.58
5472.77
5472.81
5473.98
5474.46
5475.7
5476.23
5477.63
5478.28
5479.79
5480.53
5482.19
5482.99
5484.87
5485.75
5488.12
5488.9
5492.88
5492.98
5561.44
5699.25
38562.4
8245.67
7562.89
7073.61
6731.44
6487.34
6307.91
6171.4
6065.07
5980
5911.08
5853.98
5806.49
5766.1
5731.89
5702.2
5676.71
5654.2
5634.71
5617.23
5602
5588.15
5576.05
5564.86
5555.12
5546.02
5538.06
5530.49
5523.94
5517.67
5512.22
5506.91
5502.38
5497.87
5494.08
5490.28
5487.09
5483.77
5481.1
5478.3
5476.04
5473.54
5471.7
5469.65
5467.9
5466.07
5464.75
5463.28
5462.3
5461.05
5460.25
5459.02
5458.05
5457.2
5456.69
5455.68
5455.26
5454.99
5454.77
5454.53
5453.95
5453.9
5453.85
5453.74
5453.35
5453.8
5453.8
5453.78
5453.99
5453.98
5454.46
5454.45
5455.32
5455.32
5456.32
5456.8
5457.99
5458.02
5459.17
5459.64
5460.87
5461.39
5462.78
5463.42
5464.92
5465.66
5467.3
5468.09
5469.96
5470.82
5473.19
5473.95
5477.93
5478.01
5549.4
5685.11
36234.4
8245.98
7562.68
7071.87
6727.89
6482.14
6301.31
6163.64
6056.36
5970.5
5900.92
5843.25
5795.28
5754.48
5719.91
5689.9
5664.15
5641.39
5621.69
5604.01
5588.61
5574.6
5562.36
5551.05
5541.19
5531.98
5523.93
5516.27
5509.64
5503.29
5497.77
5492.4
5487.81
5483.24
5479.4
5475.55
5472.32
5468.95
5466.24
5463.41
5461.12
5458.58
5456.71
5454.63
5452.85
5451
5449.66
5448.16
5447.16
5445.88
5445.06
5443.82
5442.84
5441.97
5441.44
5440.42
5439.98
5439.69
5439.46
5439.2
5438.62
5438.55
5438.49
5438.37
5437.95
5438.38
5438.38
5438.36
5438.55
5438.53
5438.99
5438.99
5439.82
5439.82
5440.81
5441.27
5442.44
5442.47
5443.61
5444.07
5445.29
5445.8
5447.18
5447.8
5449.29
5450.02
5451.65
5452.43
5454.29
5455.14
5457.49
5458.23
5462.21
5462.28
5536.69
5670.17
34016.5
8246.31
7562.47
7070.07
6724.22
6476.74
6294.44
6155.56
6047.27
5960.57
5890.29
5832.04
5783.56
5742.32
5707.38
5677.03
5650.99
5627.97
5608.04
5590.16
5574.58
5560.41
5548.02
5536.57
5526.59
5517.27
5509.11
5501.36
5494.65
5488.22
5482.63
5477.19
5472.53
5467.9
5464.01
5460.11
5456.83
5453.42
5450.67
5447.79
5445.47
5442.89
5440.99
5438.88
5437.08
5435.2
5433.82
5432.3
5431.27
5429.97
5429.14
5427.88
5426.88
5425.99
5425.45
5424.42
5423.95
5423.64
5423.39
5423.13
5422.54
5422.45
5422.38
5422.24
5421.81
5422.21
5422.21
5422.18
5422.35
5422.33
5422.76
5422.76
5423.56
5423.57
5424.54
5424.97
5426.14
5426.15
5427.29
5427.73
5428.95
5429.44
5430.8
5431.42
5432.89
5433.61
5435.23
5436
5437.84
5438.69
5441.02
5441.74
5445.72
5445.77
5523.29
5654.39
31910.2
8246.64
7562.28
7068.23
6720.43
6471.14
6287.31
6147.15
6037.81
5950.23
5879.21
5820.33
5771.32
5729.62
5694.28
5663.59
5637.24
5613.95
5593.78
5575.68
5559.91
5545.56
5533.02
5521.42
5511.32
5501.88
5493.62
5485.76
5478.96
5472.44
5466.78
5461.26
5456.54
5451.85
5447.9
5443.94
5440.62
5437.16
5434.36
5431.44
5429.08
5426.47
5424.53
5422.39
5420.56
5418.65
5417.25
5415.69
5414.64
5413.32
5412.46
5411.19
5410.17
5409.25
5408.7
5407.66
5407.16
5406.83
5406.56
5406.29
5405.71
5405.59
5405.5
5405.35
5404.9
5405.27
5405.27
5405.24
5405.4
5405.36
5405.77
5405.77
5406.54
5406.54
5407.51
5407.91
5409.06
5409.07
5410.2
5410.62
5411.83
5412.3
5413.65
5414.26
5415.71
5416.43
5418.03
5418.8
5420.62
5421.45
5423.77
5424.47
5428.45
5428.48
5509.16
5637.78
29916.6
8246.99
7562.09
7066.34
6716.52
6465.35
6279.91
6138.42
6027.97
5939.47
5867.68
5808.14
5758.57
5716.38
5680.62
5649.56
5622.89
5599.31
5578.89
5560.56
5544.59
5530.06
5517.35
5505.61
5495.37
5485.8
5477.43
5469.47
5462.57
5455.96
5450.22
5444.62
5439.84
5435.08
5431.07
5427.05
5423.67
5420.16
5417.32
5414.36
5411.96
5409.31
5407.33
5405.15
5403.3
5401.36
5399.92
5398.34
5397.26
5395.9
5395.02
5393.74
5392.71
5391.76
5391.19
5390.14
5389.62
5389.26
5388.97
5388.69
5388.1
5387.96
5387.85
5387.7
5387.23
5387.57
5387.57
5387.54
5387.67
5387.62
5388.01
5388
5388.74
5388.75
5389.69
5390.07
5391.2
5391.21
5392.32
5392.73
5393.92
5394.38
5395.72
5396.32
5397.76
5398.46
5400.05
5400.8
5402.61
5403.43
5405.73
5406.42
5410.38
5410.41
5494.24
5620.29
28036.8
8247.34
7561.9
7064.41
6712.5
6459.37
6272.26
6129.36
6017.76
5928.29
5855.69
5795.45
5745.29
5702.6
5666.4
5634.95
5607.94
5584.07
5563.38
5544.81
5528.63
5513.9
5501.02
5489.12
5478.73
5469.03
5460.54
5452.47
5445.48
5438.77
5432.95
5427.27
5422.41
5417.58
5413.51
5409.42
5405.99
5402.43
5399.54
5396.53
5394.09
5391.4
5389.37
5387.16
5385.29
5383.3
5381.84
5380.22
5379.11
5377.73
5376.83
5375.53
5374.48
5373.5
5372.91
5371.85
5371.3
5370.92
5370.61
5370.32
5369.72
5369.55
5369.43
5369.26
5368.78
5369.08
5369.08
5369.05
5369.16
5369.1
5369.46
5369.45
5370.16
5370.17
5371.1
5371.44
5372.56
5372.56
5373.66
5374.05
5375.24
5375.68
5377
5377.58
5379.01
5379.7
5381.27
5382.02
5383.81
5384.61
5386.89
5387.56
5391.52
5391.54
5478.48
5601.91
26271.6
8247.7
7561.73
7062.45
6708.37
6453.21
6264.35
6120
6007.18
5916.7
5843.24
5782.29
5731.51
5688.28
5651.62
5619.76
5592.4
5568.2
5547.24
5528.42
5512.01
5497.08
5484.02
5471.95
5461.41
5451.57
5442.96
5434.77
5427.67
5420.86
5414.95
5409.19
5404.25
5399.35
5395.21
5391.06
5387.57
5383.95
5381.01
5377.95
5375.47
5372.73
5370.67
5368.42
5366.51
5364.49
5363
5361.34
5360.2
5358.79
5357.86
5356.55
5355.47
5354.47
5353.86
5352.79
5352.21
5351.8
5351.47
5351.17
5350.56
5350.37
5350.23
5350.05
5349.55
5349.82
5349.82
5349.78
5349.87
5349.8
5350.12
5350.12
5350.79
5350.8
5351.71
5352.02
5353.12
5353.12
5354.21
5354.57
5355.75
5356.17
5357.48
5358.05
5359.46
5360.14
5361.7
5362.43
5364.2
5365
5367.26
5367.91
5371.86
5371.86
5461.85
5582.62
24621.8
8248.08
7561.57
7060.46
6704.14
6446.87
6256.19
6110.32
5996.24
5904.69
5830.35
5768.63
5717.21
5673.42
5636.27
5603.99
5576.25
5551.72
5530.47
5511.38
5494.74
5479.6
5466.35
5454.1
5443.41
5433.42
5424.68
5416.37
5409.15
5402.24
5396.23
5390.38
5385.36
5380.38
5376.17
5371.95
5368.41
5364.73
5361.74
5358.62
5356.09
5353.31
5351.2
5348.91
5346.97
5344.91
5343.38
5341.69
5340.52
5339.08
5338.12
5336.79
5335.7
5334.66
5334.03
5332.95
5332.34
5331.9
5331.54
5331.23
5330.62
5330.4
5330.24
5330.05
5329.53
5329.76
5329.76
5329.72
5329.79
5329.7
5330
5329.99
5330.63
5330.63
5331.53
5331.81
5332.88
5332.89
5333.96
5334.3
5335.47
5335.87
5337.16
5337.72
5339.11
5339.78
5341.32
5342.04
5343.79
5344.57
5346.81
5347.45
5351.38
5351.38
5444.28
5562.38
23087.2
8248.46
7561.42
7058.44
6699.82
6440.36
6247.8
6100.34
5984.93
5892.28
5817.01
5754.5
5702.4
5658.02
5620.36
5587.63
5559.51
5534.63
5513.07
5493.7
5476.82
5461.45
5448
5435.56
5424.71
5414.57
5405.69
5397.25
5389.92
5382.89
5376.79
5370.84
5365.74
5360.67
5356.39
5352.1
5348.49
5344.75
5341.7
5338.53
5335.95
5333.12
5330.97
5328.64
5326.66
5324.56
5323
5321.27
5320.07
5318.59
5317.6
5316.25
5315.14
5314.07
5313.41
5312.32
5311.68
5311.21
5310.83
5310.5
5309.88
5309.63
5309.46
5309.26
5308.72
5308.92
5308.92
5308.87
5308.91
5308.81
5309.07
5309.06
5309.66
5309.67
5310.54
5310.79
5311.84
5311.85
5312.9
5313.22
5314.37
5314.76
5316.03
5316.58
5317.95
5318.6
5320.12
5320.84
5322.57
5323.34
5325.55
5326.17
5330.08
5330.08
5425.72
5541.18
21662.9
8248.85
7561.29
7056.4
6695.41
6433.69
6239.16
6090.05
5973.28
5879.47
5803.23
5739.89
5687.08
5642.09
5603.9
5570.7
5542.16
5516.92
5495.04
5475.38
5458.24
5442.63
5428.97
5416.35
5405.32
5395.01
5385.99
5377.41
5369.96
5362.82
5356.62
5350.57
5345.38
5340.22
5335.87
5331.5
5327.83
5324.02
5320.91
5317.68
5315.05
5312.17
5309.97
5307.59
5305.58
5303.44
5301.84
5300.07
5298.83
5297.32
5296.3
5294.92
5293.79
5292.69
5292.01
5290.9
5290.23
5289.73
5289.33
5288.98
5288.35
5288.07
5287.88
5287.67
5287.11
5287.27
5287.27
5287.22
5287.23
5287.11
5287.35
5287.33
5287.89
5287.9
5288.75
5288.97
5289.99
5290
5291.04
5291.33
5292.47
5292.83
5294.09
5294.62
5295.97
5296.61
5298.11
5298.81
5300.52
5301.28
5303.47
5304.07
5307.96
5307.96
5406.1
5518.98
20343.9
8249.24
7561.17
7054.34
6690.91
6426.86
6230.31
6079.48
5961.28
5866.27
5789
5724.8
5671.25
5625.62
5586.88
5553.19
5524.22
5498.6
5476.38
5456.42
5439.01
5423.15
5409.27
5396.44
5385.23
5374.76
5365.58
5356.87
5349.29
5342.02
5335.71
5329.55
5324.27
5319.03
5314.59
5310.15
5306.4
5302.53
5299.36
5296.06
5293.38
5290.45
5288.2
5285.77
5283.72
5281.54
5279.9
5278.08
5276.81
5275.26
5274.21
5272.81
5271.66
5270.52
5269.81
5268.69
5267.98
5267.46
5267.02
5266.66
5266.02
5265.71
5265.5
5265.28
5264.71
5264.82
5264.82
5264.76
5264.75
5264.61
5264.82
5264.8
5265.32
5265.32
5266.15
5266.33
5267.33
5267.33
5268.36
5268.62
5269.75
5270.09
5271.33
5271.84
5273.18
5273.8
5275.28
5275.97
5277.66
5278.4
5280.57
5281.14
5285.01
5285.01
5385.39
5495.76
19125.2
8249.64
7561.07
7052.27
6686.35
6419.89
6221.23
6068.63
5948.93
5852.67
5774.35
5709.25
5654.93
5608.62
5569.3
5535.1
5505.69
5479.66
5457.09
5436.81
5419.12
5403
5388.9
5375.85
5364.45
5353.8
5344.47
5335.6
5327.89
5320.5
5314.07
5307.81
5302.43
5297.09
5292.57
5288.04
5284.22
5280.27
5277.04
5273.68
5270.94
5267.95
5265.65
5263.17
5261.08
5258.85
5257.17
5255.31
5254
5252.42
5251.33
5249.91
5248.73
5247.55
5246.82
5245.68
5244.94
5244.38
5243.92
5243.54
5242.89
5242.55
5242.31
5242.08
5241.5
5241.57
5241.56
5241.5
5241.46
5241.29
5241.48
5241.44
5241.92
5241.93
5242.73
5242.88
5243.85
5243.85
5244.86
5245.09
5246.21
5246.53
5247.75
5248.24
5249.56
5250.16
5251.62
5252.3
5253.96
5254.69
5256.83
5257.39
5261.23
5261.23
5363.5
5471.48
18001.3
8250.05
7560.98
7050.18
6681.71
6412.78
6211.94
6057.5
5936.26
5838.69
5759.28
5693.23
5638.1
5591.1
5551.17
5516.44
5486.56
5460.12
5437.18
5416.56
5398.58
5382.19
5367.85
5354.58
5342.98
5332.14
5322.65
5313.62
5305.77
5298.24
5291.7
5285.32
5279.84
5274.4
5269.79
5265.17
5261.28
5257.26
5253.95
5250.52
5247.73
5244.69
5242.32
5239.8
5237.67
5235.39
5233.66
5231.76
5230.4
5228.78
5227.66
5226.21
5225
5223.79
5223.03
5221.87
5221.1
5220.5
5220.01
5219.61
5218.95
5218.58
5218.32
5218.07
5217.49
5217.52
5217.49
5217.41
5217.36
5217.17
5217.33
5217.28
5217.72
5217.72
5218.49
5218.61
5219.55
5219.55
5220.53
5220.74
5221.84
5222.14
5223.34
5223.81
5225.11
5225.7
5227.14
5227.8
5229.44
5230.15
5232.27
5232.8
5236.61
5236.61
5340.4
5446.12
16966.8
8250.46
7560.92
7048.1
6677.01
6405.53
6202.46
6046.11
5923.26
5824.34
5743.78
5676.76
5620.79
5573.06
5532.5
5497.21
5466.84
5439.97
5416.64
5395.68
5377.39
5360.72
5346.12
5332.62
5320.82
5309.78
5300.12
5290.93
5282.93
5275.26
5268.6
5262.1
5256.51
5250.97
5246.27
5241.55
5237.58
5233.48
5230.1
5226.6
5223.75
5220.64
5218.22
5215.64
5213.46
5211.13
5209.36
5207.41
5206.01
5204.35
5203.19
5201.71
5200.48
5199.23
5198.44
5197.26
5196.45
5195.82
5195.3
5194.87
5194.2
5193.8
5193.51
5193.25
5192.66
5192.65
5192.61
5192.51
5192.44
5192.23
5192.36
5192.29
5192.69
5192.69
5193.43
5193.52
5194.42
5194.42
5195.39
5195.57
5196.65
5196.92
5198.1
5198.55
5199.83
5200.4
5201.82
5202.46
5204.08
5204.77
5206.86
5207.38
5211.16
5211.15
5316.05
5419.65
16015.7
8250.88
7560.88
7046.01
6672.27
6398.17
6192.78
6034.46
5909.95
5809.63
5727.88
5659.83
5603
5554.51
5513.29
5477.42
5446.55
5419.21
5395.49
5374.16
5355.55
5338.58
5323.73
5309.99
5297.96
5286.72
5276.88
5267.52
5259.37
5251.55
5244.76
5238.13
5232.44
5226.78
5221.99
5217.18
5213.12
5208.94
5205.49
5201.91
5198.99
5195.82
5193.34
5190.7
5188.48
5186.1
5184.28
5182.27
5180.84
5179.13
5177.93
5176.42
5175.16
5173.87
5173.04
5171.84