/*--------------------------------*- C++ -*----------------------------------*\
| =========                 |                                                 |
| \\      /  F ield         | OpenFOAM: The Open Source CFD Toolbox           |
|  \\    /   O peration     | Version:  v2012                                 |
|   \\  /    A nd           | Website:  www.openfoam.com                      |
|    \\/     M anipulation  |                                                 |
\*---------------------------------------------------------------------------*/
FoamFile
{
    version     2.0;
    format      ascii;
    class       volVectorField;
    location    "21.5";
    object      wallShearStress;
}
// * * * * * * * * * * * * * * * * * * * * * * * * * * * * * * * * * * * * * //

dimensions      [0 2 -2 0 0 0 0];


internalField   uniform (0 0 0);

boundaryField
{
    inlet
    {
        type            calculated;
        value           uniform (0 0 0);
    }
    outlet
    {
        type            calculated;
        value           uniform (0 0 0);
    }
    topWall
    {
        type            calculated;
        value           nonuniform List<vector> 
545
(
(3.52498e-08 -2.4807e-08 0)
(3.52512e-08 -6.94284e-08 0)
(3.52223e-08 -1.15817e-07 0)
(3.51849e-08 -1.6085e-07 0)
(3.51437e-08 -2.03957e-07 0)
(3.50955e-08 -2.45693e-07 0)
(3.50409e-08 -2.86411e-07 0)
(3.49801e-08 -3.26094e-07 0)
(3.49136e-08 -3.64655e-07 0)
(3.48419e-08 -4.02091e-07 0)
(3.47656e-08 -4.38453e-07 0)
(3.46851e-08 -4.73781e-07 0)
(3.46007e-08 -5.08101e-07 0)
(3.4513e-08 -5.41432e-07 0)
(3.44222e-08 -5.73799e-07 0)
(3.43287e-08 -6.05227e-07 0)
(3.42329e-08 -6.35743e-07 0)
(3.41351e-08 -6.6537e-07 0)
(3.40355e-08 -6.94132e-07 0)
(3.39343e-08 -7.22053e-07 0)
(3.3832e-08 -7.49156e-07 0)
(3.37286e-08 -7.75464e-07 0)
(3.36245e-08 -8.01e-07 0)
(3.35198e-08 -8.25785e-07 0)
(3.34146e-08 -8.49841e-07 0)
(3.33093e-08 -8.7319e-07 0)
(3.32038e-08 -8.9585e-07 0)
(3.30985e-08 -9.17843e-07 0)
(3.29934e-08 -9.39188e-07 0)
(3.28886e-08 -9.59905e-07 0)
(3.27844e-08 -9.80011e-07 0)
(3.26806e-08 -9.99524e-07 0)
(3.25776e-08 -1.01846e-06 0)
(3.24753e-08 -1.03685e-06 0)
(3.23739e-08 -1.05469e-06 0)
(3.22734e-08 -1.072e-06 0)
(3.21739e-08 -1.08881e-06 0)
(3.20754e-08 -1.10512e-06 0)
(3.1978e-08 -1.12096e-06 0)
(3.18818e-08 -1.13633e-06 0)
(3.17868e-08 -1.15125e-06 0)
(3.16929e-08 -1.16574e-06 0)
(3.16004e-08 -1.1798e-06 0)
(3.15091e-08 -1.19345e-06 0)
(3.14192e-08 -1.2067e-06 0)
(3.13306e-08 -1.21957e-06 0)
(3.12433e-08 -1.23206e-06 0)
(3.11574e-08 -1.24419e-06 0)
(3.10729e-08 -1.25597e-06 0)
(3.09898e-08 -1.2674e-06 0)
(3.0908e-08 -1.27851e-06 0)
(3.08277e-08 -1.28929e-06 0)
(3.07487e-08 -1.29976e-06 0)
(3.06711e-08 -1.30993e-06 0)
(3.05948e-08 -1.31981e-06 0)
(3.052e-08 -1.3294e-06 0)
(3.04465e-08 -1.33872e-06 0)
(3.03743e-08 -1.34777e-06 0)
(3.03035e-08 -1.35656e-06 0)
(3.02341e-08 -1.3651e-06 0)
(3.01659e-08 -1.37339e-06 0)
(3.00991e-08 -1.38145e-06 0)
(3.00335e-08 -1.38928e-06 0)
(2.99692e-08 -1.39688e-06 0)
(2.99061e-08 -1.40427e-06 0)
(2.98443e-08 -1.41145e-06 0)
(2.97837e-08 -1.41843e-06 0)
(2.97243e-08 -1.42521e-06 0)
(2.96661e-08 -1.43179e-06 0)
(2.96089e-08 -1.43819e-06 0)
(2.95532e-08 -1.44442e-06 0)
(2.94972e-08 -1.45045e-06 0)
(2.94433e-08 -1.45625e-06 0)
(2.93933e-08 -1.46189e-06 0)
(2.93435e-08 -1.46746e-06 0)
(2.92936e-08 -1.473e-06 0)
(2.92439e-08 -1.47852e-06 0)
(2.91942e-08 -1.484e-06 0)
(2.91445e-08 -1.48945e-06 0)
(2.90949e-08 -1.49486e-06 0)
(2.90453e-08 -1.50023e-06 0)
(2.89958e-08 -1.50558e-06 0)
(2.89463e-08 -1.51089e-06 0)
(2.88968e-08 -1.51616e-06 0)
(2.88474e-08 -1.52141e-06 0)
(2.87981e-08 -1.52662e-06 0)
(2.87488e-08 -1.5318e-06 0)
(2.86996e-08 -1.53694e-06 0)
(2.86504e-08 -1.54206e-06 0)
(2.86013e-08 -1.54714e-06 0)
(2.85523e-08 -1.55219e-06 0)
(2.85033e-08 -1.5572e-06 0)
(2.84545e-08 -1.56219e-06 0)
(2.84052e-08 -1.56713e-06 0)
(2.8359e-08 -1.57209e-06 0)
(2.82998e-08 -1.57694e-06 0)
(2.82404e-08 -1.58133e-06 0)
(2.81994e-08 -1.58538e-06 0)
(2.81599e-08 -1.58931e-06 0)
(2.81204e-08 -1.59322e-06 0)
(2.80808e-08 -1.59718e-06 0)
(2.80411e-08 -1.60116e-06 0)
(2.80012e-08 -1.60513e-06 0)
(2.7961e-08 -1.6091e-06 0)
(2.79208e-08 -1.61307e-06 0)
(2.78803e-08 -1.61705e-06 0)
(2.78396e-08 -1.62104e-06 0)
(2.77987e-08 -1.62502e-06 0)
(2.77576e-08 -1.62901e-06 0)
(2.77164e-08 -1.63301e-06 0)
(2.76749e-08 -1.637e-06 0)
(2.76333e-08 -1.64101e-06 0)
(2.75914e-08 -1.64501e-06 0)
(2.75494e-08 -1.64902e-06 0)
(2.75072e-08 -1.65303e-06 0)
(2.74647e-08 -1.65704e-06 0)
(2.74221e-08 -1.66106e-06 0)
(2.73793e-08 -1.66508e-06 0)
(2.73363e-08 -1.6691e-06 0)
(2.72931e-08 -1.67313e-06 0)
(2.72497e-08 -1.67716e-06 0)
(2.72061e-08 -1.68119e-06 0)
(2.71623e-08 -1.68523e-06 0)
(2.71183e-08 -1.68926e-06 0)
(2.70741e-08 -1.69331e-06 0)
(2.70297e-08 -1.69735e-06 0)
(2.69851e-08 -1.7014e-06 0)
(2.69403e-08 -1.70545e-06 0)
(2.68953e-08 -1.7095e-06 0)
(2.685e-08 -1.71356e-06 0)
(2.68046e-08 -1.71761e-06 0)
(2.6759e-08 -1.72168e-06 0)
(2.67132e-08 -1.72574e-06 0)
(2.66672e-08 -1.72981e-06 0)
(2.66209e-08 -1.73387e-06 0)
(2.65745e-08 -1.73795e-06 0)
(2.65279e-08 -1.74202e-06 0)
(2.6481e-08 -1.7461e-06 0)
(2.6434e-08 -1.75018e-06 0)
(2.63867e-08 -1.75426e-06 0)
(2.63392e-08 -1.75834e-06 0)
(2.62916e-08 -1.76242e-06 0)
(2.62437e-08 -1.76651e-06 0)
(2.61956e-08 -1.7706e-06 0)
(2.61473e-08 -1.77469e-06 0)
(2.60988e-08 -1.77879e-06 0)
(2.605e-08 -1.78288e-06 0)
(2.60011e-08 -1.78698e-06 0)
(2.5952e-08 -1.79108e-06 0)
(2.59026e-08 -1.79518e-06 0)
(2.5853e-08 -1.79929e-06 0)
(2.58032e-08 -1.80339e-06 0)
(2.57532e-08 -1.8075e-06 0)
(2.5703e-08 -1.81161e-06 0)
(2.56526e-08 -1.81572e-06 0)
(2.5602e-08 -1.81983e-06 0)
(2.55511e-08 -1.82395e-06 0)
(2.55e-08 -1.82806e-06 0)
(2.54487e-08 -1.83218e-06 0)
(2.53972e-08 -1.8363e-06 0)
(2.53455e-08 -1.84041e-06 0)
(2.52936e-08 -1.84453e-06 0)
(2.52414e-08 -1.84866e-06 0)
(2.51891e-08 -1.85278e-06 0)
(2.51365e-08 -1.8569e-06 0)
(2.50837e-08 -1.86103e-06 0)
(2.50306e-08 -1.86515e-06 0)
(2.49774e-08 -1.86928e-06 0)
(2.49239e-08 -1.87341e-06 0)
(2.48703e-08 -1.87754e-06 0)
(2.48164e-08 -1.88167e-06 0)
(2.47622e-08 -1.8858e-06 0)
(2.47079e-08 -1.88993e-06 0)
(2.46533e-08 -1.89406e-06 0)
(2.45986e-08 -1.89819e-06 0)
(2.45436e-08 -1.90233e-06 0)
(2.44883e-08 -1.90646e-06 0)
(2.44329e-08 -1.91059e-06 0)
(2.43772e-08 -1.91473e-06 0)
(2.43213e-08 -1.91886e-06 0)
(2.42652e-08 -1.923e-06 0)
(2.42089e-08 -1.92713e-06 0)
(2.41523e-08 -1.93127e-06 0)
(2.40956e-08 -1.9354e-06 0)
(2.40386e-08 -1.93953e-06 0)
(2.39813e-08 -1.94367e-06 0)
(2.39239e-08 -1.9478e-06 0)
(2.38662e-08 -1.95194e-06 0)
(2.38083e-08 -1.95607e-06 0)
(2.37502e-08 -1.96021e-06 0)
(2.36919e-08 -1.96434e-06 0)
(2.36333e-08 -1.96847e-06 0)
(2.35745e-08 -1.9726e-06 0)
(2.35155e-08 -1.97674e-06 0)
(2.34563e-08 -1.98087e-06 0)
(2.33968e-08 -1.985e-06 0)
(2.33372e-08 -1.98913e-06 0)
(2.32773e-08 -1.99326e-06 0)
(2.32171e-08 -1.99738e-06 0)
(2.31568e-08 -2.00151e-06 0)
(2.30962e-08 -2.00564e-06 0)
(2.30354e-08 -2.00976e-06 0)
(2.29744e-08 -2.01388e-06 0)
(2.29131e-08 -2.01801e-06 0)
(2.28517e-08 -2.02213e-06 0)
(2.279e-08 -2.02625e-06 0)
(2.2728e-08 -2.03036e-06 0)
(2.26659e-08 -2.03448e-06 0)
(2.26035e-08 -2.03859e-06 0)
(2.25409e-08 -2.04271e-06 0)
(2.24781e-08 -2.04682e-06 0)
(2.24151e-08 -2.05093e-06 0)
(2.23518e-08 -2.05504e-06 0)
(2.22883e-08 -2.05914e-06 0)
(2.22246e-08 -2.06324e-06 0)
(2.21607e-08 -2.06735e-06 0)
(2.20965e-08 -2.07144e-06 0)
(2.20321e-08 -2.07554e-06 0)
(2.19675e-08 -2.07964e-06 0)
(2.19027e-08 -2.08373e-06 0)
(2.18377e-08 -2.08782e-06 0)
(2.17724e-08 -2.09191e-06 0)
(2.17069e-08 -2.09599e-06 0)
(2.16412e-08 -2.10007e-06 0)
(2.15753e-08 -2.10415e-06 0)
(2.15091e-08 -2.10823e-06 0)
(2.14427e-08 -2.1123e-06 0)
(2.13762e-08 -2.11637e-06 0)
(2.13093e-08 -2.12044e-06 0)
(2.12423e-08 -2.1245e-06 0)
(2.11751e-08 -2.12856e-06 0)
(2.11076e-08 -2.13262e-06 0)
(2.10399e-08 -2.13667e-06 0)
(2.0972e-08 -2.14072e-06 0)
(2.09039e-08 -2.14477e-06 0)
(2.08355e-08 -2.14881e-06 0)
(2.0767e-08 -2.15285e-06 0)
(2.06982e-08 -2.15688e-06 0)
(2.06292e-08 -2.16092e-06 0)
(2.056e-08 -2.16494e-06 0)
(2.04906e-08 -2.16897e-06 0)
(2.0421e-08 -2.17298e-06 0)
(2.03512e-08 -2.177e-06 0)
(2.02811e-08 -2.18101e-06 0)
(2.02108e-08 -2.18502e-06 0)
(2.01404e-08 -2.18902e-06 0)
(2.00697e-08 -2.19301e-06 0)
(1.99988e-08 -2.19701e-06 0)
(1.99277e-08 -2.20099e-06 0)
(1.98563e-08 -2.20498e-06 0)
(1.97848e-08 -2.20895e-06 0)
(1.97131e-08 -2.21293e-06 0)
(1.96411e-08 -2.21689e-06 0)
(1.9569e-08 -2.22085e-06 0)
(1.94966e-08 -2.22481e-06 0)
(1.94241e-08 -2.22876e-06 0)
(1.93513e-08 -2.23271e-06 0)
(1.92784e-08 -2.23665e-06 0)
(1.92052e-08 -2.24058e-06 0)
(1.91318e-08 -2.24451e-06 0)
(1.90583e-08 -2.24844e-06 0)
(1.89845e-08 -2.25235e-06 0)
(1.89105e-08 -2.25626e-06 0)
(1.88364e-08 -2.26017e-06 0)
(1.8762e-08 -2.26407e-06 0)
(1.86876e-08 -2.26796e-06 0)
(1.86125e-08 -2.27184e-06 0)
(1.85399e-08 -2.27575e-06 0)
(1.84595e-08 -2.27958e-06 0)
(1.83751e-08 -2.2832e-06 0)
(1.8304e-08 -2.28673e-06 0)
(1.82379e-08 -2.29019e-06 0)
(1.81704e-08 -2.29364e-06 0)
(1.81024e-08 -2.29715e-06 0)
(1.80337e-08 -2.3007e-06 0)
(1.79642e-08 -2.30427e-06 0)
(1.78939e-08 -2.30786e-06 0)
(1.78227e-08 -2.31147e-06 0)
(1.77508e-08 -2.31511e-06 0)
(1.7678e-08 -2.31878e-06 0)
(1.76044e-08 -2.32247e-06 0)
(1.75299e-08 -2.32618e-06 0)
(1.74546e-08 -2.32992e-06 0)
(1.73785e-08 -2.33368e-06 0)
(1.73015e-08 -2.33746e-06 0)
(1.72237e-08 -2.34127e-06 0)
(1.7145e-08 -2.34511e-06 0)
(1.70654e-08 -2.34896e-06 0)
(1.6985e-08 -2.35285e-06 0)
(1.69037e-08 -2.35675e-06 0)
(1.68214e-08 -2.36068e-06 0)
(1.67383e-08 -2.36463e-06 0)
(1.66543e-08 -2.3686e-06 0)
(1.65694e-08 -2.3726e-06 0)
(1.64835e-08 -2.37662e-06 0)
(1.63967e-08 -2.38066e-06 0)
(1.6309e-08 -2.38473e-06 0)
(1.62204e-08 -2.38881e-06 0)
(1.61308e-08 -2.39292e-06 0)
(1.60402e-08 -2.39705e-06 0)
(1.59487e-08 -2.4012e-06 0)
(1.58563e-08 -2.40537e-06 0)
(1.57628e-08 -2.40957e-06 0)
(1.56684e-08 -2.41378e-06 0)
(1.5573e-08 -2.41801e-06 0)
(1.54767e-08 -2.42226e-06 0)
(1.53793e-08 -2.42654e-06 0)
(1.52809e-08 -2.43083e-06 0)
(1.51815e-08 -2.43514e-06 0)
(1.50811e-08 -2.43946e-06 0)
(1.49797e-08 -2.44381e-06 0)
(1.48773e-08 -2.44817e-06 0)
(1.47739e-08 -2.45255e-06 0)
(1.46694e-08 -2.45695e-06 0)
(1.45639e-08 -2.46136e-06 0)
(1.44574e-08 -2.46579e-06 0)
(1.43498e-08 -2.47023e-06 0)
(1.42411e-08 -2.47469e-06 0)
(1.41315e-08 -2.47916e-06 0)
(1.40207e-08 -2.48365e-06 0)
(1.3909e-08 -2.48814e-06 0)
(1.37961e-08 -2.49265e-06 0)
(1.36822e-08 -2.49718e-06 0)
(1.35672e-08 -2.50171e-06 0)
(1.34512e-08 -2.50625e-06 0)
(1.33341e-08 -2.51081e-06 0)
(1.32159e-08 -2.51537e-06 0)
(1.30967e-08 -2.51994e-06 0)
(1.29764e-08 -2.52452e-06 0)
(1.2855e-08 -2.5291e-06 0)
(1.27326e-08 -2.53369e-06 0)
(1.2609e-08 -2.53829e-06 0)
(1.24844e-08 -2.54289e-06 0)
(1.23588e-08 -2.54749e-06 0)
(1.22321e-08 -2.5521e-06 0)
(1.21043e-08 -2.5567e-06 0)
(1.19754e-08 -2.56131e-06 0)
(1.18455e-08 -2.56592e-06 0)
(1.17146e-08 -2.57053e-06 0)
(1.15826e-08 -2.57514e-06 0)
(1.14495e-08 -2.57974e-06 0)
(1.13154e-08 -2.58434e-06 0)
(1.11803e-08 -2.58893e-06 0)
(1.10441e-08 -2.59352e-06 0)
(1.09069e-08 -2.5981e-06 0)
(1.07687e-08 -2.60267e-06 0)
(1.06295e-08 -2.60723e-06 0)
(1.04893e-08 -2.61179e-06 0)
(1.03481e-08 -2.61633e-06 0)
(1.0206e-08 -2.62085e-06 0)
(1.00628e-08 -2.62536e-06 0)
(9.91872e-09 -2.62986e-06 0)
(9.77367e-09 -2.63434e-06 0)
(9.62769e-09 -2.6388e-06 0)
(9.48079e-09 -2.64324e-06 0)
(9.33298e-09 -2.64766e-06 0)
(9.18428e-09 -2.65206e-06 0)
(9.0347e-09 -2.65643e-06 0)
(8.88427e-09 -2.66078e-06 0)
(8.73299e-09 -2.6651e-06 0)
(8.58089e-09 -2.6694e-06 0)
(8.42799e-09 -2.67366e-06 0)
(8.2743e-09 -2.67789e-06 0)
(8.11984e-09 -2.68209e-06 0)
(7.96465e-09 -2.68625e-06 0)
(7.80873e-09 -2.69038e-06 0)
(7.65211e-09 -2.69447e-06 0)
(7.49482e-09 -2.69852e-06 0)
(7.33689e-09 -2.70253e-06 0)
(7.17833e-09 -2.70649e-06 0)
(7.01918e-09 -2.71041e-06 0)
(6.85946e-09 -2.71429e-06 0)
(6.69921e-09 -2.71811e-06 0)
(6.53844e-09 -2.72189e-06 0)
(6.3772e-09 -2.72561e-06 0)
(6.21552e-09 -2.72928e-06 0)
(6.05342e-09 -2.73289e-06 0)
(5.89094e-09 -2.73645e-06 0)
(5.72812e-09 -2.73994e-06 0)
(5.56499e-09 -2.74338e-06 0)
(5.4016e-09 -2.74675e-06 0)
(5.23796e-09 -2.75006e-06 0)
(5.07414e-09 -2.75329e-06 0)
(4.91016e-09 -2.75646e-06 0)
(4.74606e-09 -2.75956e-06 0)
(4.58189e-09 -2.76259e-06 0)
(4.41769e-09 -2.76554e-06 0)
(4.2535e-09 -2.76841e-06 0)
(4.08937e-09 -2.7712e-06 0)
(3.92535e-09 -2.77392e-06 0)
(3.76147e-09 -2.77654e-06 0)
(3.59778e-09 -2.77909e-06 0)
(3.43434e-09 -2.78155e-06 0)
(3.27119e-09 -2.78391e-06 0)
(3.10838e-09 -2.78619e-06 0)
(2.94595e-09 -2.78837e-06 0)
(2.78398e-09 -2.79046e-06 0)
(2.62249e-09 -2.79245e-06 0)
(2.46155e-09 -2.79434e-06 0)
(2.3012e-09 -2.79613e-06 0)
(2.14151e-09 -2.79782e-06 0)
(1.98253e-09 -2.7994e-06 0)
(1.8243e-09 -2.80088e-06 0)
(1.66689e-09 -2.80225e-06 0)
(1.51036e-09 -2.8035e-06 0)
(1.35475e-09 -2.80465e-06 0)
(1.20014e-09 -2.80568e-06 0)
(1.04656e-09 -2.80659e-06 0)
(8.94092e-10 -2.80739e-06 0)
(7.42784e-10 -2.80806e-06 0)
(5.92697e-10 -2.80862e-06 0)
(4.43891e-10 -2.80905e-06 0)
(2.96425e-10 -2.80936e-06 0)
(1.5036e-10 -2.80954e-06 0)
(5.75572e-12 -2.8096e-06 0)
(-1.37327e-10 -2.80952e-06 0)
(-2.78828e-10 -2.80932e-06 0)
(-4.18687e-10 -2.80898e-06 0)
(-5.56844e-10 -2.80851e-06 0)
(-6.9324e-10 -2.80791e-06 0)
(-8.27815e-10 -2.80717e-06 0)
(-9.60511e-10 -2.8063e-06 0)
(-1.09127e-09 -2.80528e-06 0)
(-1.22004e-09 -2.80413e-06 0)
(-1.34675e-09 -2.80284e-06 0)
(-1.47137e-09 -2.80141e-06 0)
(-1.59383e-09 -2.79984e-06 0)
(-1.71408e-09 -2.79813e-06 0)
(-1.83207e-09 -2.79628e-06 0)
(-1.94776e-09 -2.79428e-06 0)
(-2.06109e-09 -2.79214e-06 0)
(-2.17203e-09 -2.78986e-06 0)
(-2.28052e-09 -2.78743e-06 0)
(-2.38653e-09 -2.78486e-06 0)
(-2.49001e-09 -2.78215e-06 0)
(-2.59094e-09 -2.77929e-06 0)
(-2.68926e-09 -2.77629e-06 0)
(-2.78494e-09 -2.77315e-06 0)
(-2.87795e-09 -2.76987e-06 0)
(-2.96825e-09 -2.76644e-06 0)
(-3.05582e-09 -2.76287e-06 0)
(-3.14061e-09 -2.75915e-06 0)
(-3.22259e-09 -2.7553e-06 0)
(-3.30173e-09 -2.75131e-06 0)
(-3.378e-09 -2.74717e-06 0)
(-3.45134e-09 -2.74291e-06 0)
(-3.52177e-09 -2.73849e-06 0)
(-3.589e-09 -2.73397e-06 0)
(-3.65448e-09 -2.72923e-06 0)
(-3.71482e-09 -2.72444e-06 0)
(-3.7726e-09 -2.71905e-06 0)
(-3.83528e-09 -2.71281e-06 0)
(-3.89737e-09 -2.70651e-06 0)
(-3.95427e-09 -2.70018e-06 0)
(-4.00648e-09 -2.69372e-06 0)
(-4.05406e-09 -2.68718e-06 0)
(-4.09714e-09 -2.68057e-06 0)
(-4.13584e-09 -2.67389e-06 0)
(-4.17029e-09 -2.66716e-06 0)
(-4.20063e-09 -2.66037e-06 0)
(-4.22701e-09 -2.65354e-06 0)
(-4.24956e-09 -2.64666e-06 0)
(-4.26842e-09 -2.63976e-06 0)
(-4.28372e-09 -2.63282e-06 0)
(-4.29559e-09 -2.62587e-06 0)
(-4.30416e-09 -2.6189e-06 0)
(-4.30954e-09 -2.61192e-06 0)
(-4.31187e-09 -2.60493e-06 0)
(-4.31123e-09 -2.59794e-06 0)
(-4.30776e-09 -2.59095e-06 0)
(-4.30155e-09 -2.58398e-06 0)
(-4.29269e-09 -2.57701e-06 0)
(-4.2813e-09 -2.57006e-06 0)
(-4.26745e-09 -2.56313e-06 0)
(-4.25124e-09 -2.55623e-06 0)
(-4.23274e-09 -2.54935e-06 0)
(-4.21205e-09 -2.54251e-06 0)
(-4.18923e-09 -2.5357e-06 0)
(-4.16436e-09 -2.52893e-06 0)
(-4.13751e-09 -2.52221e-06 0)
(-4.10875e-09 -2.51552e-06 0)
(-4.07814e-09 -2.50889e-06 0)
(-4.04575e-09 -2.50231e-06 0)
(-4.01163e-09 -2.49578e-06 0)
(-3.97584e-09 -2.48931e-06 0)
(-3.93844e-09 -2.48289e-06 0)
(-3.89948e-09 -2.47654e-06 0)
(-3.85902e-09 -2.47026e-06 0)
(-3.81709e-09 -2.46404e-06 0)
(-3.77375e-09 -2.45789e-06 0)
(-3.72904e-09 -2.45181e-06 0)
(-3.68301e-09 -2.4458e-06 0)
(-3.63569e-09 -2.43987e-06 0)
(-3.58713e-09 -2.43402e-06 0)
(-3.53736e-09 -2.42825e-06 0)
(-3.48642e-09 -2.42256e-06 0)
(-3.43434e-09 -2.41695e-06 0)
(-3.38117e-09 -2.41143e-06 0)
(-3.32692e-09 -2.40599e-06 0)
(-3.27163e-09 -2.40065e-06 0)
(-3.21533e-09 -2.39539e-06 0)
(-3.15805e-09 -2.39023e-06 0)
(-3.09981e-09 -2.38515e-06 0)
(-3.04064e-09 -2.38018e-06 0)
(-2.98056e-09 -2.3753e-06 0)
(-2.91959e-09 -2.37052e-06 0)
(-2.85777e-09 -2.36584e-06 0)
(-2.79511e-09 -2.36126e-06 0)
(-2.73163e-09 -2.35678e-06 0)
(-2.66736e-09 -2.35241e-06 0)
(-2.60231e-09 -2.34813e-06 0)
(-2.5365e-09 -2.34397e-06 0)
(-2.46997e-09 -2.33991e-06 0)
(-2.40272e-09 -2.33596e-06 0)
(-2.33477e-09 -2.33212e-06 0)
(-2.26615e-09 -2.3284e-06 0)
(-2.19688e-09 -2.32478e-06 0)
(-2.12697e-09 -2.32127e-06 0)
(-2.05644e-09 -2.31788e-06 0)
(-1.98532e-09 -2.31461e-06 0)
(-1.91361e-09 -2.31144e-06 0)
(-1.84135e-09 -2.3084e-06 0)
(-1.76855e-09 -2.30547e-06 0)
(-1.69523e-09 -2.30266e-06 0)
(-1.6214e-09 -2.29997e-06 0)
(-1.54708e-09 -2.2974e-06 0)
(-1.4723e-09 -2.29495e-06 0)
(-1.39706e-09 -2.29263e-06 0)
(-1.32138e-09 -2.29042e-06 0)
(-1.24528e-09 -2.28834e-06 0)
(-1.16877e-09 -2.28637e-06 0)
(-1.09188e-09 -2.28454e-06 0)
(-1.01461e-09 -2.28283e-06 0)
(-9.37001e-10 -2.28124e-06 0)
(-8.59083e-10 -2.27978e-06 0)
(-7.80907e-10 -2.27846e-06 0)
(-7.02536e-10 -2.27721e-06 0)
(-6.24093e-10 -2.27629e-06 0)
(-5.4563e-10 -2.2748e-06 0)
(-4.67554e-10 -2.27571e-06 0)
(-3.89038e-10 -2.26909e-06 0)
(-3.13189e-10 -2.28698e-06 0)
(-2.27743e-10 -2.21809e-06 0)
(-1.76141e-10 -2.39994e-06 0)
(-8.69062e-11 -2.09591e-06 0)
)
;
    }
    bottomWall
    {
        type            calculated;
        value           nonuniform List<vector> 
449
(
(-48.5513 -0.964357 0)
(-19.7619 -0.00515626 0)
(-14.3566 -0.00113354 0)
(-12.0532 -0.000542877 0)
(-10.6586 -0.000346412 0)
(-9.68789 -0.000245668 0)
(-8.97723 -0.000175824 0)
(-8.48176 -0.000108203 0)
(-8.23374 -1.95746e-05 0)
(-8.34924 0.000155407 0)
(-9.31275 0.000318832 0)
(-10.5582 0.000306731 0)
(-11.4379 0.000197745 0)
(-11.9316 0.00010863 0)
(-12.1947 5.72006e-05 0)
(-12.3311 2.76546e-05 0)
(-12.3883 8.45318e-06 0)
(-12.3904 -4.67234e-06 0)
(-12.3554 -1.30108e-05 0)
(-12.2986 -1.81713e-05 0)
(-12.2268 -2.13538e-05 0)
(-12.1472 -2.29247e-05 0)
(-12.0639 -2.35208e-05 0)
(-11.9796 -2.35231e-05 0)
(-11.8959 -2.31736e-05 0)
(-11.8138 -2.26394e-05 0)
(-11.7335 -2.19896e-05 0)
(-11.6557 -2.12536e-05 0)
(-11.5804 -2.04868e-05 0)
(-11.5077 -1.97171e-05 0)
(-11.4376 -1.89614e-05 0)
(-11.37 -1.82288e-05 0)
(-11.305 -1.75248e-05 0)
(-11.2422 -1.68483e-05 0)
(-11.1818 -1.62207e-05 0)
(-11.1234 -1.56362e-05 0)
(-11.067 -1.50709e-05 0)
(-11.0124 -1.45312e-05 0)
(-10.9597 -1.40239e-05 0)
(-10.9087 -1.35481e-05 0)
(-10.8593 -1.31025e-05 0)
(-10.8113 -1.2684e-05 0)
(-10.7648 -1.22923e-05 0)
(-10.7195 -1.19283e-05 0)
(-10.6755 -1.15826e-05 0)
(-10.6326 -1.12577e-05 0)
(-10.5908 -1.09753e-05 0)
(-10.5498 -1.07466e-05 0)
(-10.5095 -1.05468e-05 0)
(-10.4699 -1.03459e-05 0)
(-10.431 -1.01421e-05 0)
(-10.3927 -9.93958e-06 0)
(-10.3551 -9.73915e-06 0)
(-10.3182 -9.54213e-06 0)
(-10.2819 -9.35064e-06 0)
(-10.2463 -9.16428e-06 0)
(-10.2113 -8.98248e-06 0)
(-10.177 -8.80609e-06 0)
(-10.1432 -8.63454e-06 0)
(-10.11 -8.46954e-06 0)
(-10.0773 -8.30826e-06 0)
(-10.0452 -8.15124e-06 0)
(-10.0136 -7.99706e-06 0)
(-9.98255 -7.84828e-06 0)
(-9.95199 -7.70645e-06 0)
(-9.9219 -7.57188e-06 0)
(-9.89226 -7.44346e-06 0)
(-9.86304 -7.31546e-06 0)
(-9.83428 -7.18599e-06 0)
(-9.80596 -7.05919e-06 0)
(-9.77807 -6.93606e-06 0)
(-9.7506 -6.81665e-06 0)
(-9.72353 -6.70045e-06 0)
(-9.69686 -6.58709e-06 0)
(-9.67058 -6.47757e-06 0)
(-9.64467 -6.37084e-06 0)
(-9.61913 -6.26709e-06 0)
(-9.59394 -6.16524e-06 0)
(-9.56911 -6.06594e-06 0)
(-9.5446 -5.96837e-06 0)
(-9.52045 -5.87377e-06 0)
(-9.49661 -5.78115e-06 0)
(-9.4731 -5.69092e-06 0)
(-9.44988 -5.60277e-06 0)
(-9.42699 -5.5168e-06 0)
(-9.40438 -5.43277e-06 0)
(-9.38207 -5.35007e-06 0)
(-9.36004 -5.27019e-06 0)
(-9.33829 -5.19144e-06 0)
(-9.31681 -5.11541e-06 0)
(-9.2956 -5.04086e-06 0)
(-9.27464 -4.96836e-06 0)
(-9.25393 -4.89907e-06 0)
(-9.23346 -4.83152e-06 0)
(-9.21322 -4.76492e-06 0)
(-9.19322 -4.69736e-06 0)
(-9.17346 -4.63046e-06 0)
(-9.15393 -4.5663e-06 0)
(-9.13463 -4.50274e-06 0)
(-9.11555 -4.44027e-06 0)
(-9.09669 -4.37996e-06 0)
(-9.07803 -4.32004e-06 0)
(-9.0596 -4.26159e-06 0)
(-9.04136 -4.20485e-06 0)
(-9.02333 -4.14792e-06 0)
(-9.0055 -4.09338e-06 0)
(-8.98786 -4.03943e-06 0)
(-8.97041 -3.98603e-06 0)
(-8.95315 -3.93449e-06 0)
(-8.93607 -3.88399e-06 0)
(-8.91918 -3.83326e-06 0)
(-8.90246 -3.7851e-06 0)
(-8.88591 -3.73717e-06 0)
(-8.86954 -3.68964e-06 0)
(-8.85333 -3.6437e-06 0)
(-8.83729 -3.59881e-06 0)
(-8.8214 -3.55363e-06 0)
(-8.80569 -3.5102e-06 0)
(-8.79011 -3.46767e-06 0)
(-8.7747 -3.42517e-06 0)
(-8.75943 -3.38357e-06 0)
(-8.74433 -3.34366e-06 0)
(-8.72935 -3.3034e-06 0)
(-8.71454 -3.26375e-06 0)
(-8.69984 -3.22583e-06 0)
(-8.6853 -3.18823e-06 0)
(-8.67088 -3.15038e-06 0)
(-8.65662 -3.11424e-06 0)
(-8.64246 -3.07856e-06 0)
(-8.62846 -3.04299e-06 0)
(-8.61456 -3.00794e-06 0)
(-8.60082 -2.97476e-06 0)
(-8.58716 -2.94162e-06 0)
(-8.57366 -2.90883e-06 0)
(-8.56024 -2.87754e-06 0)
(-8.54696 -2.84691e-06 0)
(-8.53376 -2.81506e-06 0)
(-8.52072 -2.78336e-06 0)
(-8.50776 -2.75321e-06 0)
(-8.49494 -2.72317e-06 0)
(-8.4822 -2.69323e-06 0)
(-8.4696 -2.66369e-06 0)
(-8.45708 -2.63565e-06 0)
(-8.44468 -2.60718e-06 0)
(-8.43237 -2.57886e-06 0)
(-8.42019 -2.55119e-06 0)
(-8.40808 -2.52477e-06 0)
(-8.3961 -2.49782e-06 0)
(-8.38419 -2.47099e-06 0)
(-8.37241 -2.44509e-06 0)
(-8.3607 -2.42014e-06 0)
(-8.34909 -2.3946e-06 0)
(-8.33757 -2.36931e-06 0)
(-8.32616 -2.34478e-06 0)
(-8.31483 -2.32124e-06 0)
(-8.30359 -2.29707e-06 0)
(-8.29244 -2.27329e-06 0)
(-8.28138 -2.25019e-06 0)
(-8.2704 -2.22828e-06 0)
(-8.25951 -2.20577e-06 0)
(-8.2487 -2.18384e-06 0)
(-8.23798 -2.1621e-06 0)
(-8.22733 -2.14166e-06 0)
(-8.21675 -2.12074e-06 0)
(-8.20627 -2.09982e-06 0)
(-8.19585 -2.0792e-06 0)
(-8.18552 -2.05941e-06 0)
(-8.17525 -2.03969e-06 0)
(-8.16507 -2.01978e-06 0)
(-8.15496 -1.99991e-06 0)
(-8.14493 -1.98137e-06 0)
(-8.13495 -1.96256e-06 0)
(-8.12507 -1.94137e-06 0)
(-8.1158 -1.92658e-06 0)
(-8.10708 -1.91528e-06 0)
(-8.09831 -1.89927e-06 0)
(-8.08955 -1.8833e-06 0)
(-8.08074 -1.86743e-06 0)
(-8.07193 -1.85071e-06 0)
(-8.06309 -1.83436e-06 0)
(-8.05425 -1.81823e-06 0)
(-8.04538 -1.8022e-06 0)
(-8.0365 -1.78574e-06 0)
(-8.0276 -1.76917e-06 0)
(-8.01869 -1.75305e-06 0)
(-8.00976 -1.73701e-06 0)
(-8.00083 -1.72106e-06 0)
(-7.99187 -1.70463e-06 0)
(-7.98291 -1.68809e-06 0)
(-7.97394 -1.67211e-06 0)
(-7.96496 -1.65634e-06 0)
(-7.95596 -1.64057e-06 0)
(-7.94696 -1.62466e-06 0)
(-7.93794 -1.60893e-06 0)
(-7.92892 -1.59341e-06 0)
(-7.91988 -1.57833e-06 0)
(-7.91083 -1.56263e-06 0)
(-7.90178 -1.54695e-06 0)
(-7.89272 -1.53143e-06 0)
(-7.88365 -1.5167e-06 0)
(-7.87458 -1.50219e-06 0)
(-7.86549 -1.48716e-06 0)
(-7.8564 -1.47131e-06 0)
(-7.84731 -1.45602e-06 0)
(-7.83821 -1.44066e-06 0)
(-7.82911 -1.42523e-06 0)
(-7.82002 -1.40962e-06 0)
(-7.81093 -1.39414e-06 0)
(-7.80183 -1.3792e-06 0)
(-7.79274 -1.36396e-06 0)
(-7.78366 -1.34864e-06 0)
(-7.77458 -1.33349e-06 0)
(-7.7655 -1.31859e-06 0)
(-7.75642 -1.3036e-06 0)
(-7.74736 -1.28893e-06 0)
(-7.73829 -1.27361e-06 0)
(-7.72925 -1.25929e-06 0)
(-7.72019 -1.24496e-06 0)
(-7.71116 -1.2305e-06 0)
(-7.70212 -1.21625e-06 0)
(-7.6931 -1.20202e-06 0)
(-7.68408 -1.18825e-06 0)
(-7.67507 -1.17415e-06 0)
(-7.66607 -1.16016e-06 0)
(-7.65709 -1.14629e-06 0)
(-7.64811 -1.13277e-06 0)
(-7.63914 -1.11918e-06 0)
(-7.63019 -1.10581e-06 0)
(-7.62124 -1.09219e-06 0)
(-7.61232 -1.07915e-06 0)
(-7.60339 -1.06619e-06 0)
(-7.59449 -1.05302e-06 0)
(-7.5856 -1.03994e-06 0)
(-7.57672 -1.02711e-06 0)
(-7.56786 -1.01422e-06 0)
(-7.55902 -1.00121e-06 0)
(-7.55019 -9.88241e-07 0)
(-7.54139 -9.75245e-07 0)
(-7.5326 -9.63e-07 0)
(-7.52383 -9.50464e-07 0)
(-7.51509 -9.38058e-07 0)
(-7.50636 -9.26126e-07 0)
(-7.49765 -9.14298e-07 0)
(-7.48896 -9.02273e-07 0)
(-7.48029 -8.90338e-07 0)
(-7.47164 -8.78787e-07 0)
(-7.46302 -8.67218e-07 0)
(-7.45441 -8.55708e-07 0)
(-7.44583 -8.43933e-07 0)
(-7.43727 -8.32763e-07 0)
(-7.42873 -8.21294e-07 0)
(-7.42023 -8.10046e-07 0)
(-7.41174 -7.98882e-07 0)
(-7.40329 -7.88081e-07 0)
(-7.39485 -7.77384e-07 0)
(-7.38645 -7.66713e-07 0)
(-7.37806 -7.56185e-07 0)
(-7.36971 -7.45606e-07 0)
(-7.36137 -7.35274e-07 0)
(-7.35307 -7.24787e-07 0)
(-7.3448 -7.1437e-07 0)
(-7.33656 -7.04371e-07 0)
(-7.32834 -6.94073e-07 0)
(-7.32017 -6.84036e-07 0)
(-7.31201 -6.74291e-07 0)
(-7.30389 -6.64523e-07 0)
(-7.2958 -6.55276e-07 0)
(-7.28773 -6.46005e-07 0)
(-7.27969 -6.36889e-07 0)
(-7.27168 -6.28019e-07 0)
(-7.26369 -6.19087e-07 0)
(-7.25574 -6.10065e-07 0)
(-7.24781 -6.01273e-07 0)
(-7.23992 -5.92662e-07 0)
(-7.23205 -5.84019e-07 0)
(-7.22421 -5.7562e-07 0)
(-7.2164 -5.6769e-07 0)
(-7.20862 -5.59372e-07 0)
(-7.20087 -5.5135e-07 0)
(-7.19314 -5.43397e-07 0)
(-7.18544 -5.35162e-07 0)
(-7.17779 -5.27435e-07 0)
(-7.17015 -5.19812e-07 0)
(-7.16255 -5.12181e-07 0)
(-7.15497 -5.05044e-07 0)
(-7.14742 -4.97755e-07 0)
(-7.1399 -4.9032e-07 0)
(-7.13241 -4.8338e-07 0)
(-7.12494 -4.76208e-07 0)
(-7.11752 -4.69183e-07 0)
(-7.11011 -4.6242e-07 0)
(-7.10274 -4.55426e-07 0)
(-7.0954 -4.48772e-07 0)
(-7.08808 -4.42077e-07 0)
(-7.0808 -4.35637e-07 0)
(-7.07355 -4.2918e-07 0)
(-7.06632 -4.23036e-07 0)
(-7.05912 -4.16882e-07 0)
(-7.05195 -4.10768e-07 0)
(-7.04481 -4.04934e-07 0)
(-7.03769 -3.98913e-07 0)
(-7.0306 -3.93062e-07 0)
(-7.02354 -3.87479e-07 0)
(-7.0165 -3.81842e-07 0)
(-7.0095 -3.76317e-07 0)
(-7.00251 -3.71101e-07 0)
(-6.99555 -3.65662e-07 0)
(-6.98862 -3.60587e-07 0)
(-6.9817 -3.55563e-07 0)
(-6.97482 -3.50391e-07 0)
(-6.96795 -3.4535e-07 0)
(-6.96111 -3.40392e-07 0)
(-6.9543 -3.35269e-07 0)
(-6.94752 -3.30472e-07 0)
(-6.94076 -3.25623e-07 0)
(-6.93404 -3.20752e-07 0)
(-6.92733 -3.16136e-07 0)
(-6.92065 -3.11538e-07 0)
(-6.914 -3.06809e-07 0)
(-6.90738 -3.02375e-07 0)
(-6.90078 -2.97914e-07 0)
(-6.89422 -2.93406e-07 0)
(-6.88767 -2.89068e-07 0)
(-6.88116 -2.84777e-07 0)
(-6.87467 -2.80394e-07 0)
(-6.86822 -2.76274e-07 0)
(-6.86178 -2.72193e-07 0)
(-6.85539 -2.68107e-07 0)
(-6.849 -2.64236e-07 0)
(-6.84265 -2.60356e-07 0)
(-6.83631 -2.56487e-07 0)
(-6.83002 -2.52827e-07 0)
(-6.82373 -2.49098e-07 0)
(-6.81749 -2.45447e-07 0)
(-6.81124 -2.41939e-07 0)
(-6.80505 -2.38444e-07 0)
(-6.79885 -2.34935e-07 0)
(-6.7927 -2.31619e-07 0)
(-6.78655 -2.28267e-07 0)
(-6.78045 -2.24947e-07 0)
(-6.77434 -2.21728e-07 0)
(-6.76828 -2.1848e-07 0)
(-6.76222 -2.15411e-07 0)
(-6.75621 -2.12351e-07 0)
(-6.75019 -2.09273e-07 0)
(-6.74422 -2.0644e-07 0)
(-6.73823 -2.0371e-07 0)
(-6.73229 -2.00818e-07 0)
(-6.72635 -1.98195e-07 0)
(-6.72044 -1.9514e-07 0)
(-6.71454 -1.92417e-07 0)
(-6.70867 -1.89204e-07 0)
(-6.70285 -1.86578e-07 0)
(-6.69702 -1.83489e-07 0)
(-6.69062 -1.79054e-07 0)
(-6.68371 -1.74641e-07 0)
(-6.67698 -1.71093e-07 0)
(-6.67035 -1.67924e-07 0)
(-6.66387 -1.64757e-07 0)
(-6.65748 -1.61865e-07 0)
(-6.65123 -1.59219e-07 0)
(-6.64505 -1.56782e-07 0)
(-6.63898 -1.54458e-07 0)
(-6.63299 -1.52366e-07 0)
(-6.62708 -1.50205e-07 0)
(-6.62125 -1.47933e-07 0)
(-6.61553 -1.45739e-07 0)
(-6.60987 -1.43641e-07 0)
(-6.60431 -1.41511e-07 0)
(-6.59882 -1.39546e-07 0)
(-6.59341 -1.37464e-07 0)
(-6.58808 -1.35559e-07 0)
(-6.58282 -1.33774e-07 0)
(-6.57763 -1.31957e-07 0)
(-6.57252 -1.30349e-07 0)
(-6.56745 -1.28635e-07 0)
(-6.56247 -1.26992e-07 0)
(-6.55754 -1.25324e-07 0)
(-6.55268 -1.23677e-07 0)
(-6.54788 -1.22e-07 0)
(-6.54315 -1.20508e-07 0)
(-6.53846 -1.19011e-07 0)
(-6.53386 -1.17426e-07 0)
(-6.52929 -1.16003e-07 0)
(-6.5248 -1.14408e-07 0)
(-6.52036 -1.13016e-07 0)
(-6.51597 -1.11521e-07 0)
(-6.51165 -1.10262e-07 0)
(-6.50736 -1.09003e-07 0)
(-6.50313 -1.0774e-07 0)
(-6.49895 -1.06707e-07 0)
(-6.4948 -1.054e-07 0)
(-6.49071 -1.043e-07 0)
(-6.48665 -1.03026e-07 0)
(-6.48267 -1.01833e-07 0)
(-6.4787 -1.00648e-07 0)
(-6.47481 -9.93364e-08 0)
(-6.47094 -9.81935e-08 0)
(-6.46714 -9.69609e-08 0)
(-6.46337 -9.58551e-08 0)
(-6.45965 -9.48906e-08 0)
(-6.45596 -9.38836e-08 0)
(-6.45232 -9.33315e-08 0)
(-6.44867 -9.25085e-08 0)
(-6.4451 -9.19258e-08 0)
(-6.44149 -9.11803e-08 0)
(-6.43798 -9.04086e-08 0)
(-6.43443 -8.9867e-08 0)
(-6.43096 -8.90915e-08 0)
(-6.42747 -8.84545e-08 0)
(-6.42405 -8.7682e-08 0)
(-6.42062 -8.71062e-08 0)
(-6.41724 -8.62834e-08 0)
(-6.41388 -8.54098e-08 0)
(-6.41057 -8.44668e-08 0)
(-6.40728 -8.34746e-08 0)
(-6.40405 -8.25097e-08 0)
(-6.40084 -8.18744e-08 0)
(-6.39766 -8.11683e-08 0)
(-6.3945 -8.05192e-08 0)
(-6.39137 -7.97067e-08 0)
(-6.38828 -7.89284e-08 0)
(-6.3852 -7.8119e-08 0)
(-6.38217 -7.7448e-08 0)
(-6.37915 -7.65806e-08 0)
(-6.37619 -7.59264e-08 0)
(-6.37322 -7.54426e-08 0)
(-6.3703 -7.48146e-08 0)
(-6.36738 -7.45103e-08 0)
(-6.36448 -7.39337e-08 0)
(-6.36161 -7.36187e-08 0)
(-6.35873 -7.30455e-08 0)
(-6.3559 -7.27078e-08 0)
(-6.35305 -7.22894e-08 0)
(-6.35025 -7.18961e-08 0)
(-6.34744 -7.12545e-08 0)
(-6.34469 -7.09517e-08 0)
(-6.3419 -7.04131e-08 0)
(-6.33919 -7.00521e-08 0)
(-6.33642 -6.96973e-08 0)
(-6.33374 -6.88372e-08 0)
(-6.33105 -6.96043e-08 0)
(-6.32831 -6.70162e-08 0)
(-6.32582 -7.19267e-08 0)
(-6.32268 -6.0803e-08 0)
(-6.3211 -8.04181e-08 0)
(-6.31634 -4.58598e-08 0)
(-6.31762 -6.20349e-08 0)
(-6.31131 -8.41195e-08 0)
)
;
    }
    symmetry
    {
        type            symmetryPlane;
    }
    frontAndBack
    {
        type            empty;
    }
}


// ************************************************************************* //
