/*--------------------------------*- C++ -*----------------------------------*\
| =========                 |                                                 |
| \\      /  F ield         | OpenFOAM: The Open Source CFD Toolbox           |
|  \\    /   O peration     | Version:  v2012                                 |
|   \\  /    A nd           | Website:  www.openfoam.com                      |
|    \\/     M anipulation  |                                                 |
\*---------------------------------------------------------------------------*/
FoamFile
{
    version     2.0;
    format      ascii;
    class       volScalarField;
    location    "21.5";
    object      yPlus;
}
// * * * * * * * * * * * * * * * * * * * * * * * * * * * * * * * * * * * * * //

dimensions      [0 0 0 0 0 0 0];


internalField   uniform 0;

boundaryField
{
    inlet
    {
        type            calculated;
        value           uniform 0;
    }
    outlet
    {
        type            calculated;
        value           uniform 0;
    }
    topWall
    {
        type            calculated;
        value           nonuniform List<scalar> 
545
(
0.109025
0.188044
0.241249
0.283576
0.319405
0.350752
0.378747
0.404105
0.427309
0.448708
0.468563
0.487076
0.504408
0.520689
0.536027
0.550511
0.564218
0.577215
0.589559
0.601299
0.612481
0.623142
0.633319
0.643043
0.652342
0.661242
0.669767
0.677938
0.685776
0.693298
0.700521
0.707461
0.714132
0.720548
0.72672
0.732662
0.738383
0.743894
0.749205
0.754324
0.75926
0.764022
0.768616
0.77305
0.77733
0.781463
0.785455
0.789312
0.793039
0.796641
0.800123
0.80349
0.806747
0.809897
0.812944
0.815893
0.818747
0.82151
0.824185
0.826774
0.829282
0.831712
0.834065
0.836345
0.838554
0.840695
0.84277
0.844781
0.846731
0.848621
0.850454
0.852232
0.853933
0.855579
0.857211
0.85883
0.860437
0.86203
0.86361
0.865177
0.866732
0.868274
0.869804
0.871322
0.872827
0.874321
0.875802
0.877272
0.87873
0.880177
0.881612
0.883036
0.884448
0.88585
0.88724
0.88862
0.889862
0.890972
0.892083
0.893193
0.894302
0.895412
0.896521
0.897629
0.898737
0.899845
0.900953
0.90206
0.903167
0.904273
0.905379
0.906485
0.90759
0.908695
0.909799
0.910903
0.912006
0.913109
0.914212
0.915314
0.916416
0.917517
0.918617
0.919717
0.920817
0.921916
0.923015
0.924113
0.92521
0.926307
0.927403
0.928499
0.929594
0.930689
0.931783
0.932876
0.933969
0.935061
0.936152
0.937243
0.938333
0.939423
0.940512
0.9416
0.942687
0.943774
0.94486
0.945946
0.94703
0.948114
0.949197
0.950279
0.951361
0.952442
0.953522
0.954601
0.955679
0.956757
0.957833
0.958909
0.959984
0.961058
0.962131
0.963204
0.964275
0.965346
0.966415
0.967484
0.968552
0.969618
0.970684
0.971749
0.972813
0.973876
0.974938
0.975998
0.977058
0.978117
0.979175
0.980231
0.981287
0.982341
0.983394
0.984447
0.985498
0.986548
0.987596
0.988644
0.98969
0.990736
0.99178
0.992823
0.993864
0.994904
0.995944
0.996981
0.998018
0.999053
1.00009
1.00112
1.00215
1.00318
1.00421
1.00524
1.00626
1.00729
1.00831
1.00933
1.01035
1.01137
1.01239
1.0134
1.01442
1.01543
1.01644
1.01745
1.01846
1.01947
1.02047
1.02148
1.02248
1.02348
1.02448
1.02548
1.02647
1.02746
1.02846
1.02945
1.03044
1.03142
1.03241
1.03339
1.03437
1.03535
1.03633
1.03731
1.03828
1.03926
1.04023
1.0412
1.04216
1.04313
1.04409
1.04505
1.04601
1.04697
1.04792
1.04888
1.04983
1.05078
1.05173
1.05267
1.05362
1.05456
1.0555
1.05643
1.05737
1.0583
1.05923
1.06016
1.06109
1.06201
1.06293
1.06385
1.06477
1.06568
1.0666
1.06751
1.06842
1.06927
1.07008
1.07089
1.0717
1.07252
1.07335
1.07418
1.07502
1.07586
1.07671
1.07756
1.07842
1.07928
1.08014
1.08102
1.08189
1.08277
1.08366
1.08455
1.08545
1.08635
1.08725
1.08816
1.08908
1.09
1.09092
1.09185
1.09278
1.09371
1.09466
1.0956
1.09655
1.0975
1.09846
1.09942
1.10038
1.10135
1.10232
1.10329
1.10427
1.10525
1.10624
1.10722
1.10821
1.10921
1.1102
1.1112
1.1122
1.11321
1.11421
1.11522
1.11623
1.11724
1.11825
1.11927
1.12029
1.1213
1.12232
1.12334
1.12436
1.12538
1.1264
1.12743
1.12845
1.12947
1.13049
1.13151
1.13253
1.13355
1.13457
1.13558
1.1366
1.13761
1.13862
1.13963
1.14064
1.14164
1.14264
1.14364
1.14463
1.14562
1.14661
1.14759
1.14857
1.14954
1.15051
1.15147
1.15243
1.15338
1.15432
1.15526
1.15619
1.15712
1.15803
1.15894
1.15984
1.16073
1.16161
1.16249
1.16335
1.1642
1.16505
1.16588
1.1667
1.16751
1.16831
1.1691
1.16987
1.17063
1.17138
1.17212
1.17284
1.17354
1.17424
1.17491
1.17557
1.17622
1.17685
1.17746
1.17805
1.17863
1.17919
1.17973
1.18025
1.18076
1.18124
1.1817
1.18215
1.18257
1.18297
1.18335
1.18371
1.18404
1.18436
1.18465
1.18491
1.18516
1.18537
1.18557
1.18574
1.18588
1.186
1.18609
1.18616
1.1862
1.18621
1.1862
1.18615
1.18608
1.18598
1.18586
1.1857
1.18552
1.18531
1.18506
1.18479
1.18449
1.18416
1.1838
1.18341
1.18299
1.18254
1.18205
1.18154
1.181
1.18042
1.17982
1.17918
1.17851
1.17782
1.17709
1.17633
1.17554
1.17472
1.17387
1.17299
1.17208
1.17114
1.17017
1.16917
1.16814
1.16696
1.16563
1.16429
1.16292
1.16153
1.16012
1.15869
1.15725
1.15579
1.15432
1.15284
1.15134
1.14984
1.14833
1.14681
1.14529
1.14376
1.14223
1.1407
1.13916
1.13763
1.1361
1.13456
1.13303
1.13151
1.12999
1.12847
1.12696
1.12545
1.12396
1.12247
1.12099
1.11951
1.11805
1.1166
1.11516
1.11374
1.11232
1.11092
1.10954
1.10816
1.10681
1.10546
1.10414
1.10283
1.10153
1.10026
1.099
1.09776
1.09654
1.09534
1.09416
1.093
1.09186
1.09074
1.08964
1.08857
1.08751
1.08648
1.08547
1.08448
1.08352
1.08258
1.08167
1.08078
1.07992
1.07908
1.07826
1.07748
1.07672
1.07598
1.07527
1.07459
1.07393
1.07331
1.07271
1.07214
1.07159
1.07108
1.07059
1.07013
1.0697
1.0693
1.06893
1.06859
1.06828
1.06799
1.06774
1.06752
1.06732
1.06716
1.06702
1.06692
1.06685
1.06678
)
;
    }
    bottomWall
    {
        type            calculated;
        value           nonuniform List<scalar> 
449
(
0.139481
0.088985
0.0758452
0.0694949
0.065351
0.0623041
0.0599754
0.0582969
0.0574382
0.0578396
0.0610859
0.0650425
0.0676979
0.0691434
0.0699016
0.0702916
0.0704544
0.0704603
0.0703606
0.0701987
0.0699936
0.0697653
0.0695258
0.0692825
0.0690401
0.0688013
0.0685672
0.0683393
0.0681182
0.067904
0.0676969
0.0674968
0.0673033
0.0671163
0.0669357
0.0667606
0.0665911
0.0664269
0.0662677
0.0661133
0.0659633
0.0658175
0.0656757
0.0655374
0.0654027
0.0652712
0.0651428
0.0650167
0.0648924
0.0647699
0.0646494
0.0645306
0.0644139
0.0642989
0.0641859
0.0640746
0.0639651
0.0638573
0.0637513
0.0636468
0.0635439
0.0634426
0.0633428
0.0632445
0.0631476
0.0630521
0.0629578
0.0628648
0.0627731
0.0626826
0.0625934
0.0625054
0.0624186
0.062333
0.0622484
0.062165
0.0620826
0.0620013
0.061921
0.0618416
0.0617633
0.061686
0.0616095
0.061534
0.0614594
0.0613857
0.0613128
0.0612408
0.0611696
0.0610992
0.0610296
0.0609608
0.0608927
0.0608253
0.0607586
0.0606926
0.0606274
0.0605628
0.0604989
0.0604357
0.0603731
0.0603112
0.0602499
0.0601893
0.0601292
0.0600698
0.0600109
0.0599526
0.0598949
0.0598378
0.0597812
0.0597251
0.0596696
0.0596146
0.0595601
0.0595061
0.0594526
0.0593996
0.0593471
0.059295
0.0592434
0.0591923
0.0591416
0.0590914
0.0590415
0.0589922
0.0589432
0.0588947
0.0588465
0.0587988
0.0587515
0.0587046
0.0586579
0.0586118
0.0585659
0.0585205
0.0584753
0.0584306
0.0583861
0.0583421
0.0582983
0.058255
0.0582119
0.0581693
0.0581269
0.0580849
0.0580431
0.0580017
0.0579606
0.0579198
0.0578793
0.0578391
0.0577992
0.0577596
0.0577203
0.0576813
0.0576426
0.0576041
0.0575659
0.057528
0.0574903
0.0574529
0.0574158
0.0573789
0.0573423
0.0573059
0.0572697
0.0572338
0.0571982
0.0571627
0.0571276
0.0570926
0.0570579
0.0570253
0.0569947
0.0569639
0.056933
0.056902
0.056871
0.0568398
0.0568087
0.0567774
0.056746
0.0567146
0.0566831
0.0566516
0.05662
0.0565882
0.0565565
0.0565247
0.0564929
0.056461
0.056429
0.056397
0.0563649
0.0563328
0.0563006
0.0562684
0.0562361
0.0562038
0.0561714
0.056139
0.0561066
0.0560741
0.0560416
0.0560091
0.0559765
0.055944
0.0559114
0.0558788
0.0558462
0.0558136
0.055781
0.0557484
0.0557159
0.0556833
0.0556507
0.0556181
0.0555855
0.055553
0.0555204
0.0554879
0.0554553
0.0554228
0.0553903
0.0553578
0.0553254
0.0552929
0.0552605
0.0552281
0.0551958
0.0551634
0.0551311
0.0550989
0.0550666
0.0550345
0.0550023
0.0549702
0.0549382
0.0549062
0.0548743
0.0548424
0.0548106
0.0547788
0.0547471
0.0547155
0.0546839
0.0546523
0.0546209
0.0545895
0.0545581
0.0545269
0.0544957
0.0544646
0.0544336
0.0544026
0.0543717
0.0543409
0.0543102
0.0542796
0.054249
0.0542186
0.0541882
0.054158
0.0541278
0.0540978
0.0540678
0.0540379
0.054008
0.0539783
0.0539487
0.0539191
0.0538897
0.0538603
0.053831
0.0538019
0.0537728
0.0537438
0.0537149
0.053686
0.0536573
0.0536287
0.0536002
0.0535717
0.0535434
0.0535151
0.053487
0.0534589
0.0534309
0.0534031
0.0533753
0.0533476
0.05332
0.0532925
0.0532652
0.0532379
0.0532107
0.0531835
0.0531565
0.0531296
0.0531028
0.053076
0.0530494
0.0530228
0.0529963
0.0529699
0.0529435
0.0529173
0.0528911
0.052865
0.052839
0.0528131
0.0527872
0.0527615
0.0527358
0.0527102
0.0526847
0.0526594
0.052634
0.0526089
0.0525837
0.0525587
0.0525337
0.0525089
0.0524841
0.0524595
0.0524349
0.0524105
0.052386
0.0523618
0.0523375
0.0523134
0.0522893
0.0522654
0.0522415
0.0522177
0.0521939
0.0521703
0.0521467
0.0521232
0.0520997
0.0520764
0.0520531
0.05203
0.0520068
0.0519838
0.0519607
0.0519378
0.0519149
0.051892
0.0518693
0.0518466
0.0518241
0.0518015
0.0517768
0.0517501
0.051724
0.0516983
0.0516732
0.0516484
0.0516242
0.0516002
0.0515766
0.0515533
0.0515304
0.0515077
0.0514854
0.0514634
0.0514418
0.0514204
0.0513993
0.0513785
0.051358
0.0513378
0.0513178
0.051298
0.0512785
0.0512593
0.0512403
0.0512215
0.051203
0.0511847
0.0511666
0.0511488
0.0511312
0.0511137
0.0510966
0.0510796
0.0510628
0.0510462
0.0510298
0.0510135
0.0509974
0.0509815
0.0509658
0.0509502
0.0509349
0.0509197
0.0509047
0.0508899
0.0508753
0.0508607
0.0508464
0.050832
0.0508179
0.0508037
0.0507898
0.0507758
0.0507621
0.0507484
0.0507348
0.0507213
0.050708
0.0506947
0.0506816
0.0506686
0.0506558
0.0506431
0.0506305
0.050618
0.0506056
0.0505934
0.0505812
0.0505692
0.0505573
0.0505455
0.0505338
0.0505222
0.0505106
0.0504991
0.0504877
0.0504763
0.050465
0.0504537
0.0504426
0.0504314
0.0504205
0.0504094
0.0503986
0.0503877
0.050377
0.0503663
0.0503554
0.0503455
0.050333
0.0503267
0.0503078
0.0503128
0.0502877
)
;
    }
    symmetry
    {
        type            symmetryPlane;
    }
    frontAndBack
    {
        type            empty;
    }
}


// ************************************************************************* //
