/*--------------------------------*- C++ -*----------------------------------*\
| =========                 |                                                 |
| \\      /  F ield         | OpenFOAM: The Open Source CFD Toolbox           |
|  \\    /   O peration     | Version:  v2012                                 |
|   \\  /    A nd           | Website:  www.openfoam.com                      |
|    \\/     M anipulation  |                                                 |
\*---------------------------------------------------------------------------*/
FoamFile
{
    version     2.0;
    format      ascii;
    class       volVectorField;
    location    "1.5";
    object      wallShearStress;
}
// * * * * * * * * * * * * * * * * * * * * * * * * * * * * * * * * * * * * * //

dimensions      [0 2 -2 0 0 0 0];


internalField   uniform (0 0 0);

boundaryField
{
    inlet
    {
        type            calculated;
        value           uniform (0 0 0);
    }
    outlet
    {
        type            calculated;
        value           uniform (0 0 0);
    }
    topWall
    {
        type            calculated;
        value           nonuniform List<vector> 
545
(
(1.74848e-09 -1.20928e-09 0)
(1.79065e-09 -3.5011e-09 0)
(1.75907e-09 -5.83289e-09 0)
(1.73527e-09 -8.06569e-09 0)
(1.72451e-09 -1.01884e-08 0)
(1.71376e-09 -1.22302e-08 0)
(1.70315e-09 -1.42127e-08 0)
(1.69188e-09 -1.6136e-08 0)
(1.68004e-09 -1.79967e-08 0)
(1.6676e-09 -1.97935e-08 0)
(1.65466e-09 -2.15294e-08 0)
(1.6412e-09 -2.32059e-08 0)
(1.62733e-09 -2.48254e-08 0)
(1.61303e-09 -2.6388e-08 0)
(1.59843e-09 -2.78964e-08 0)
(1.58348e-09 -2.93508e-08 0)
(1.56831e-09 -3.07543e-08 0)
(1.55287e-09 -3.21064e-08 0)
(1.53731e-09 -3.3411e-08 0)
(1.52153e-09 -3.46669e-08 0)
(1.50569e-09 -3.58786e-08 0)
(1.48969e-09 -3.70443e-08 0)
(1.4737e-09 -3.81687e-08 0)
(1.4576e-09 -3.925e-08 0)
(1.44154e-09 -4.02928e-08 0)
(1.42542e-09 -4.12953e-08 0)
(1.40936e-09 -4.22619e-08 0)
(1.3933e-09 -4.3191e-08 0)
(1.37732e-09 -4.40863e-08 0)
(1.36136e-09 -4.49471e-08 0)
(1.34549e-09 -4.5776e-08 0)
(1.32969e-09 -4.65733e-08 0)
(1.31398e-09 -4.73406e-08 0)
(1.29836e-09 -4.80787e-08 0)
(1.28282e-09 -4.87886e-08 0)
(1.2674e-09 -4.9472e-08 0)
(1.25207e-09 -5.01286e-08 0)
(1.23686e-09 -5.0761e-08 0)
(1.22174e-09 -5.13682e-08 0)
(1.20675e-09 -5.19533e-08 0)
(1.19184e-09 -5.25146e-08 0)
(1.17707e-09 -5.30558e-08 0)
(1.16237e-09 -5.35746e-08 0)
(1.14781e-09 -5.4075e-08 0)
(1.13332e-09 -5.45545e-08 0)
(1.11897e-09 -5.5017e-08 0)
(1.10468e-09 -5.546e-08 0)
(1.09051e-09 -5.58873e-08 0)
(1.07641e-09 -5.62966e-08 0)
(1.06242e-09 -5.66912e-08 0)
(1.04849e-09 -5.70691e-08 0)
(1.03466e-09 -5.74334e-08 0)
(1.02087e-09 -5.77822e-08 0)
(1.00718e-09 -5.81185e-08 0)
(9.93534e-10 -5.84402e-08 0)
(9.79967e-10 -5.87506e-08 0)
(9.66425e-10 -5.9047e-08 0)
(9.52958e-10 -5.93333e-08 0)
(9.39504e-10 -5.96064e-08 0)
(9.26112e-10 -5.98703e-08 0)
(9.12723e-10 -6.01218e-08 0)
(8.99382e-10 -6.03647e-08 0)
(8.86035e-10 -6.05963e-08 0)
(8.72717e-10 -6.08196e-08 0)
(8.59389e-10 -6.10328e-08 0)
(8.46066e-10 -6.12378e-08 0)
(8.32732e-10 -6.14341e-08 0)
(8.19368e-10 -6.16218e-08 0)
(8.06044e-10 -6.18031e-08 0)
(7.92437e-10 -6.19696e-08 0)
(7.79872e-10 -6.21417e-08 0)
(7.62808e-10 -6.23091e-08 0)
(7.46974e-10 -6.24352e-08 0)
(7.38781e-10 -6.25851e-08 0)
(7.31195e-10 -6.27375e-08 0)
(7.23628e-10 -6.28593e-08 0)
(7.16125e-10 -6.29973e-08 0)
(7.08624e-10 -6.31328e-08 0)
(7.01153e-10 -6.32662e-08 0)
(6.93687e-10 -6.33947e-08 0)
(6.86249e-10 -6.35223e-08 0)
(6.78819e-10 -6.36473e-08 0)
(6.71417e-10 -6.37716e-08 0)
(6.64022e-10 -6.3893e-08 0)
(6.56656e-10 -6.40133e-08 0)
(6.49299e-10 -6.41309e-08 0)
(6.41968e-10 -6.42475e-08 0)
(6.34649e-10 -6.43617e-08 0)
(6.27352e-10 -6.44745e-08 0)
(6.20068e-10 -6.45853e-08 0)
(6.12824e-10 -6.46952e-08 0)
(6.05497e-10 -6.48023e-08 0)
(5.98634e-10 -6.49171e-08 0)
(5.89892e-10 -6.49754e-08 0)
(5.89425e-10 -6.51134e-08 0)
(5.544e-10 -6.53027e-08 0)
(5.0667e-10 -6.52238e-08 0)
(4.96229e-10 -6.53367e-08 0)
(4.91071e-10 -6.55155e-08 0)
(4.86845e-10 -6.54979e-08 0)
(4.82897e-10 -6.55647e-08 0)
(4.78994e-10 -6.56447e-08 0)
(4.75077e-10 -6.57216e-08 0)
(4.71156e-10 -6.57895e-08 0)
(4.67211e-10 -6.58539e-08 0)
(4.63258e-10 -6.59204e-08 0)
(4.59283e-10 -6.59864e-08 0)
(4.55295e-10 -6.60521e-08 0)
(4.51285e-10 -6.6116e-08 0)
(4.47262e-10 -6.61796e-08 0)
(4.43216e-10 -6.62417e-08 0)
(4.39157e-10 -6.63035e-08 0)
(4.35076e-10 -6.63638e-08 0)
(4.3098e-10 -6.64234e-08 0)
(4.26865e-10 -6.64817e-08 0)
(4.22734e-10 -6.65395e-08 0)
(4.18582e-10 -6.65957e-08 0)
(4.14418e-10 -6.66518e-08 0)
(4.10235e-10 -6.67064e-08 0)
(4.06038e-10 -6.67606e-08 0)
(4.01823e-10 -6.68136e-08 0)
(3.97596e-10 -6.68662e-08 0)
(3.93353e-10 -6.6918e-08 0)
(3.89095e-10 -6.69689e-08 0)
(3.84828e-10 -6.70199e-08 0)
(3.80543e-10 -6.70695e-08 0)
(3.76249e-10 -6.71193e-08 0)
(3.71938e-10 -6.71676e-08 0)
(3.67617e-10 -6.72156e-08 0)
(3.6328e-10 -6.72626e-08 0)
(3.58932e-10 -6.73089e-08 0)
(3.54572e-10 -6.73546e-08 0)
(3.50199e-10 -6.73994e-08 0)
(3.45817e-10 -6.7444e-08 0)
(3.41425e-10 -6.7488e-08 0)
(3.37025e-10 -6.75319e-08 0)
(3.32612e-10 -6.75748e-08 0)
(3.28194e-10 -6.7618e-08 0)
(3.23766e-10 -6.76605e-08 0)
(3.1933e-10 -6.77028e-08 0)
(3.14886e-10 -6.77446e-08 0)
(3.10434e-10 -6.7786e-08 0)
(3.05973e-10 -6.78268e-08 0)
(3.01507e-10 -6.78676e-08 0)
(2.9703e-10 -6.79072e-08 0)
(2.92547e-10 -6.79468e-08 0)
(2.88055e-10 -6.79853e-08 0)
(2.83558e-10 -6.80238e-08 0)
(2.79054e-10 -6.80617e-08 0)
(2.74542e-10 -6.80989e-08 0)
(2.70028e-10 -6.81364e-08 0)
(2.65505e-10 -6.81727e-08 0)
(2.60978e-10 -6.82092e-08 0)
(2.56446e-10 -6.82452e-08 0)
(2.51907e-10 -6.82804e-08 0)
(2.47366e-10 -6.83157e-08 0)
(2.42818e-10 -6.83502e-08 0)
(2.38266e-10 -6.83844e-08 0)
(2.33707e-10 -6.84175e-08 0)
(2.29145e-10 -6.84503e-08 0)
(2.24578e-10 -6.84827e-08 0)
(2.20008e-10 -6.85147e-08 0)
(2.15434e-10 -6.85464e-08 0)
(2.10856e-10 -6.85775e-08 0)
(2.06275e-10 -6.86084e-08 0)
(2.01689e-10 -6.86383e-08 0)
(1.97103e-10 -6.86687e-08 0)
(1.9251e-10 -6.86975e-08 0)
(1.87912e-10 -6.87248e-08 0)
(1.83317e-10 -6.87537e-08 0)
(1.78714e-10 -6.87805e-08 0)
(1.74106e-10 -6.8806e-08 0)
(1.69502e-10 -6.88332e-08 0)
(1.64891e-10 -6.88581e-08 0)
(1.60277e-10 -6.88819e-08 0)
(1.55665e-10 -6.89072e-08 0)
(1.51046e-10 -6.893e-08 0)
(1.46426e-10 -6.89524e-08 0)
(1.41803e-10 -6.89737e-08 0)
(1.37179e-10 -6.89944e-08 0)
(1.32552e-10 -6.90145e-08 0)
(1.27926e-10 -6.90348e-08 0)
(1.23298e-10 -6.90541e-08 0)
(1.18668e-10 -6.90721e-08 0)
(1.14039e-10 -6.90912e-08 0)
(1.09406e-10 -6.91078e-08 0)
(1.04771e-10 -6.91229e-08 0)
(1.00136e-10 -6.91379e-08 0)
(9.55018e-11 -6.9153e-08 0)
(9.08667e-11 -6.91673e-08 0)
(8.62324e-11 -6.9182e-08 0)
(8.1596e-11 -6.91946e-08 0)
(7.69588e-11 -6.9206e-08 0)
(7.23212e-11 -6.92164e-08 0)
(6.76849e-11 -6.92272e-08 0)
(6.30483e-11 -6.92369e-08 0)
(5.84131e-11 -6.92471e-08 0)
(5.37768e-11 -6.9255e-08 0)
(4.91405e-11 -6.92614e-08 0)
(4.45051e-11 -6.92673e-08 0)
(3.98717e-11 -6.92744e-08 0)
(3.52376e-11 -6.92782e-08 0)
(3.06058e-11 -6.92837e-08 0)
(2.59744e-11 -6.9287e-08 0)
(2.13444e-11 -6.92898e-08 0)
(1.67157e-11 -6.92919e-08 0)
(1.20887e-11 -6.92941e-08 0)
(7.46298e-12 -6.92947e-08 0)
(2.83895e-12 -6.92931e-08 0)
(-1.78309e-12 -6.92917e-08 0)
(-6.40316e-12 -6.92898e-08 0)
(-1.10212e-11 -6.92872e-08 0)
(-1.5637e-11 -6.9284e-08 0)
(-2.02506e-11 -6.92803e-08 0)
(-2.48614e-11 -6.92748e-08 0)
(-2.94701e-11 -6.92696e-08 0)
(-3.40753e-11 -6.9262e-08 0)
(-3.86779e-11 -6.92543e-08 0)
(-4.32774e-11 -6.92456e-08 0)
(-4.78723e-11 -6.92341e-08 0)
(-5.24657e-11 -6.92245e-08 0)
(-5.70543e-11 -6.92123e-08 0)
(-6.16408e-11 -6.92011e-08 0)
(-6.62218e-11 -6.91872e-08 0)
(-7.07993e-11 -6.91728e-08 0)
(-7.53735e-11 -6.91584e-08 0)
(-7.99421e-11 -6.91418e-08 0)
(-8.45091e-11 -6.91268e-08 0)
(-8.90708e-11 -6.911e-08 0)
(-9.36283e-11 -6.90927e-08 0)
(-9.81781e-11 -6.90724e-08 0)
(-1.02725e-10 -6.90526e-08 0)
(-1.07265e-10 -6.90311e-08 0)
(-1.11804e-10 -6.90109e-08 0)
(-1.16334e-10 -6.89876e-08 0)
(-1.20857e-10 -6.8963e-08 0)
(-1.25376e-10 -6.89382e-08 0)
(-1.29894e-10 -6.89152e-08 0)
(-1.34401e-10 -6.88885e-08 0)
(-1.38898e-10 -6.88591e-08 0)
(-1.43394e-10 -6.88312e-08 0)
(-1.47886e-10 -6.88039e-08 0)
(-1.52363e-10 -6.87717e-08 0)
(-1.56845e-10 -6.8744e-08 0)
(-1.61322e-10 -6.87159e-08 0)
(-1.65781e-10 -6.86823e-08 0)
(-1.70235e-10 -6.86486e-08 0)
(-1.74684e-10 -6.86152e-08 0)
(-1.79124e-10 -6.85799e-08 0)
(-1.83557e-10 -6.85444e-08 0)
(-1.87989e-10 -6.85103e-08 0)
(-1.92397e-10 -6.84693e-08 0)
(-1.96803e-10 -6.84299e-08 0)
(-2.01206e-10 -6.83912e-08 0)
(-2.05595e-10 -6.83499e-08 0)
(-2.09983e-10 -6.83099e-08 0)
(-2.14353e-10 -6.82664e-08 0)
(-2.18711e-10 -6.82207e-08 0)
(-2.23074e-10 -6.81787e-08 0)
(-2.27415e-10 -6.81318e-08 0)
(-2.31757e-10 -6.80873e-08 0)
(-2.36077e-10 -6.80383e-08 0)
(-2.40397e-10 -6.79901e-08 0)
(-2.44695e-10 -6.79415e-08 0)
(-2.49019e-10 -6.78887e-08 0)
(-2.53133e-10 -6.78427e-08 0)
(-2.58003e-10 -6.77618e-08 0)
(-2.59217e-10 -6.77685e-08 0)
(-2.73538e-10 -6.76976e-08 0)
(-2.97042e-10 -6.75198e-08 0)
(-3.0556e-10 -6.75725e-08 0)
(-3.07507e-10 -6.75677e-08 0)
(-3.09014e-10 -6.74414e-08 0)
(-3.10245e-10 -6.7372e-08 0)
(-3.11526e-10 -6.73209e-08 0)
(-3.1284e-10 -6.72651e-08 0)
(-3.14228e-10 -6.72036e-08 0)
(-3.15673e-10 -6.71391e-08 0)
(-3.17172e-10 -6.70739e-08 0)
(-3.18717e-10 -6.70062e-08 0)
(-3.20325e-10 -6.69392e-08 0)
(-3.21985e-10 -6.68705e-08 0)
(-3.23699e-10 -6.68007e-08 0)
(-3.25467e-10 -6.67304e-08 0)
(-3.27287e-10 -6.66596e-08 0)
(-3.29166e-10 -6.65892e-08 0)
(-3.3107e-10 -6.6513e-08 0)
(-3.33039e-10 -6.6439e-08 0)
(-3.35056e-10 -6.63641e-08 0)
(-3.37121e-10 -6.62882e-08 0)
(-3.39214e-10 -6.62078e-08 0)
(-3.4136e-10 -6.61279e-08 0)
(-3.43534e-10 -6.60437e-08 0)
(-3.45775e-10 -6.5963e-08 0)
(-3.48039e-10 -6.58774e-08 0)
(-3.50342e-10 -6.579e-08 0)
(-3.52711e-10 -6.57063e-08 0)
(-3.55089e-10 -6.56155e-08 0)
(-3.57525e-10 -6.5527e-08 0)
(-3.59973e-10 -6.54324e-08 0)
(-3.6247e-10 -6.53386e-08 0)
(-3.65014e-10 -6.52456e-08 0)
(-3.67559e-10 -6.5145e-08 0)
(-3.70164e-10 -6.50475e-08 0)
(-3.72809e-10 -6.49498e-08 0)
(-3.7545e-10 -6.48444e-08 0)
(-3.78135e-10 -6.47397e-08 0)
(-3.80862e-10 -6.46356e-08 0)
(-3.836e-10 -6.45267e-08 0)
(-3.86367e-10 -6.44164e-08 0)
(-3.89167e-10 -6.43056e-08 0)
(-3.91969e-10 -6.41892e-08 0)
(-3.94801e-10 -6.4072e-08 0)
(-3.97665e-10 -6.39545e-08 0)
(-4.00534e-10 -6.38324e-08 0)
(-4.03445e-10 -6.3712e-08 0)
(-4.06362e-10 -6.35876e-08 0)
(-4.09278e-10 -6.34582e-08 0)
(-4.12222e-10 -6.33286e-08 0)
(-4.15169e-10 -6.31952e-08 0)
(-4.1813e-10 -6.30596e-08 0)
(-4.21106e-10 -6.29225e-08 0)
(-4.241e-10 -6.27841e-08 0)
(-4.27071e-10 -6.26388e-08 0)
(-4.30056e-10 -6.24922e-08 0)
(-4.33068e-10 -6.23463e-08 0)
(-4.36071e-10 -6.2196e-08 0)
(-4.39089e-10 -6.20451e-08 0)
(-4.42089e-10 -6.18889e-08 0)
(-4.45097e-10 -6.17313e-08 0)
(-4.481e-10 -6.15707e-08 0)
(-4.51099e-10 -6.14074e-08 0)
(-4.54093e-10 -6.12416e-08 0)
(-4.57068e-10 -6.10713e-08 0)
(-4.60038e-10 -6.08988e-08 0)
(-4.62999e-10 -6.07239e-08 0)
(-4.65918e-10 -6.05421e-08 0)
(-4.68859e-10 -6.03622e-08 0)
(-4.71739e-10 -6.01737e-08 0)
(-4.74632e-10 -5.9986e-08 0)
(-4.77486e-10 -5.97932e-08 0)
(-4.8035e-10 -5.9601e-08 0)
(-4.83184e-10 -5.9405e-08 0)
(-4.85963e-10 -5.92025e-08 0)
(-4.88751e-10 -5.9001e-08 0)
(-4.91521e-10 -5.87978e-08 0)
(-4.94198e-10 -5.85838e-08 0)
(-4.96873e-10 -5.83705e-08 0)
(-4.99474e-10 -5.81493e-08 0)
(-5.02077e-10 -5.79293e-08 0)
(-5.04615e-10 -5.77032e-08 0)
(-5.07096e-10 -5.74719e-08 0)
(-5.09555e-10 -5.72397e-08 0)
(-5.11976e-10 -5.70049e-08 0)
(-5.14352e-10 -5.6767e-08 0)
(-5.16647e-10 -5.65221e-08 0)
(-5.18912e-10 -5.62762e-08 0)
(-5.21121e-10 -5.60264e-08 0)
(-5.23301e-10 -5.57761e-08 0)
(-5.25378e-10 -5.55173e-08 0)
(-5.27422e-10 -5.52579e-08 0)
(-5.29395e-10 -5.4994e-08 0)
(-5.31298e-10 -5.47258e-08 0)
(-5.3311e-10 -5.44516e-08 0)
(-5.34851e-10 -5.41735e-08 0)
(-5.3654e-10 -5.38937e-08 0)
(-5.38145e-10 -5.36091e-08 0)
(-5.39626e-10 -5.33161e-08 0)
(-5.41094e-10 -5.30256e-08 0)
(-5.42401e-10 -5.27236e-08 0)
(-5.43678e-10 -5.2423e-08 0)
(-5.44871e-10 -5.21185e-08 0)
(-5.46009e-10 -5.18133e-08 0)
(-5.47033e-10 -5.15019e-08 0)
(-5.47984e-10 -5.11883e-08 0)
(-5.48826e-10 -5.08694e-08 0)
(-5.4964e-10 -5.05528e-08 0)
(-5.50236e-10 -5.02212e-08 0)
(-5.5079e-10 -4.98911e-08 0)
(-5.51202e-10 -4.95535e-08 0)
(-5.51513e-10 -4.92123e-08 0)
(-5.51717e-10 -4.88671e-08 0)
(-5.5182e-10 -4.85186e-08 0)
(-5.51819e-10 -4.81668e-08 0)
(-5.51702e-10 -4.78107e-08 0)
(-5.51476e-10 -4.74512e-08 0)
(-5.51147e-10 -4.70889e-08 0)
(-5.50687e-10 -4.67216e-08 0)
(-5.50116e-10 -4.63511e-08 0)
(-5.49442e-10 -4.59783e-08 0)
(-5.48619e-10 -4.55994e-08 0)
(-5.47751e-10 -4.52231e-08 0)
(-5.46678e-10 -4.48366e-08 0)
(-5.45557e-10 -4.44526e-08 0)
(-5.44263e-10 -4.40612e-08 0)
(-5.42813e-10 -4.3664e-08 0)
(-5.4125e-10 -4.32645e-08 0)
(-5.39572e-10 -4.28626e-08 0)
(-5.37777e-10 -4.24583e-08 0)
(-5.35855e-10 -4.2051e-08 0)
(-5.33806e-10 -4.16406e-08 0)
(-5.31635e-10 -4.12277e-08 0)
(-5.2936e-10 -4.08137e-08 0)
(-5.26919e-10 -4.03939e-08 0)
(-5.24369e-10 -3.99729e-08 0)
(-5.21674e-10 -3.95479e-08 0)
(-5.18849e-10 -3.912e-08 0)
(-5.15906e-10 -3.86904e-08 0)
(-5.12858e-10 -3.82599e-08 0)
(-5.09683e-10 -3.78269e-08 0)
(-5.06408e-10 -3.73937e-08 0)
(-5.02996e-10 -3.69572e-08 0)
(-4.99468e-10 -3.65192e-08 0)
(-4.95837e-10 -3.60807e-08 0)
(-4.92057e-10 -3.56383e-08 0)
(-4.88222e-10 -3.51987e-08 0)
(-4.84222e-10 -3.47542e-08 0)
(-4.80143e-10 -3.43108e-08 0)
(-4.75948e-10 -3.38659e-08 0)
(-4.71648e-10 -3.34204e-08 0)
(-4.6724e-10 -3.29738e-08 0)
(-4.62737e-10 -3.25273e-08 0)
(-4.58123e-10 -3.20796e-08 0)
(-4.53416e-10 -3.16319e-08 0)
(-4.48618e-10 -3.11845e-08 0)
(-4.4371e-10 -3.0736e-08 0)
(-4.38732e-10 -3.02889e-08 0)
(-4.3365e-10 -2.98411e-08 0)
(-4.28477e-10 -2.93934e-08 0)
(-4.23247e-10 -2.89479e-08 0)
(-4.17906e-10 -2.8501e-08 0)
(-4.12493e-10 -2.80552e-08 0)
(-4.06996e-10 -2.76097e-08 0)
(-4.01465e-10 -2.71678e-08 0)
(-3.95882e-10 -2.67281e-08 0)
(-3.90237e-10 -2.62898e-08 0)
(-3.84531e-10 -2.5853e-08 0)
(-3.78754e-10 -2.54169e-08 0)
(-3.72933e-10 -2.49832e-08 0)
(-3.67057e-10 -2.4551e-08 0)
(-3.61139e-10 -2.41212e-08 0)
(-3.55178e-10 -2.36935e-08 0)
(-3.49199e-10 -2.32693e-08 0)
(-3.43166e-10 -2.28465e-08 0)
(-3.37121e-10 -2.24272e-08 0)
(-3.31035e-10 -2.20109e-08 0)
(-3.24908e-10 -2.15926e-08 0)
(-3.18773e-10 -2.11935e-08 0)
(-3.122e-10 -2.07398e-08 0)
(-3.05219e-10 -2.0387e-08 0)
(-2.98619e-10 -1.99969e-08 0)
(-2.90791e-10 -1.94352e-08 0)
(-2.82372e-10 -1.89677e-08 0)
(-2.74954e-10 -1.85438e-08 0)
(-2.67665e-10 -1.81122e-08 0)
(-2.60548e-10 -1.76802e-08 0)
(-2.53559e-10 -1.72599e-08 0)
(-2.46706e-10 -1.68546e-08 0)
(-2.39996e-10 -1.6462e-08 0)
(-2.33417e-10 -1.60793e-08 0)
(-2.26978e-10 -1.57069e-08 0)
(-2.20676e-10 -1.5345e-08 0)
(-2.14503e-10 -1.49932e-08 0)
(-2.08457e-10 -1.46509e-08 0)
(-2.02544e-10 -1.43184e-08 0)
(-1.96761e-10 -1.39952e-08 0)
(-1.91116e-10 -1.36816e-08 0)
(-1.85604e-10 -1.33774e-08 0)
(-1.8022e-10 -1.30819e-08 0)
(-1.74972e-10 -1.27957e-08 0)
(-1.69857e-10 -1.25185e-08 0)
(-1.6484e-10 -1.22477e-08 0)
(-1.59955e-10 -1.19855e-08 0)
(-1.55181e-10 -1.17305e-08 0)
(-1.5053e-10 -1.14835e-08 0)
(-1.45997e-10 -1.1244e-08 0)
(-1.416e-10 -1.10134e-08 0)
(-1.37294e-10 -1.07882e-08 0)
(-1.33099e-10 -1.057e-08 0)
(-1.29017e-10 -1.0359e-08 0)
(-1.25044e-10 -1.01547e-08 0)
(-1.21168e-10 -9.95634e-09 0)
(-1.17379e-10 -9.76293e-09 0)
(-1.137e-10 -9.57645e-09 0)
(-1.10117e-10 -9.39581e-09 0)
(-1.06631e-10 -9.22109e-09 0)
(-1.03235e-10 -9.05176e-09 0)
(-9.99347e-11 -8.88824e-09 0)
(-9.67177e-11 -8.72958e-09 0)
(-9.35884e-11 -8.57618e-09 0)
(-9.05473e-11 -8.42814e-09 0)
(-8.75855e-11 -8.2847e-09 0)
(-8.46964e-11 -8.14525e-09 0)
(-8.18849e-11 -8.01031e-09 0)
(-7.91509e-11 -7.87994e-09 0)
(-7.64918e-11 -7.75395e-09 0)
(-7.3906e-11 -7.63224e-09 0)
(-7.1391e-11 -7.51465e-09 0)
(-6.89456e-11 -7.40112e-09 0)
(-6.65672e-11 -7.2915e-09 0)
(-6.42544e-11 -7.1857e-09 0)
(-6.2005e-11 -7.08361e-09 0)
(-5.98173e-11 -6.98513e-09 0)
(-5.76895e-11 -6.89015e-09 0)
(-5.56195e-11 -6.79857e-09 0)
(-5.36056e-11 -6.7103e-09 0)
(-5.1646e-11 -6.62524e-09 0)
(-4.97387e-11 -6.54328e-09 0)
(-4.78825e-11 -6.4644e-09 0)
(-4.6075e-11 -6.38843e-09 0)
(-4.4315e-11 -6.31536e-09 0)
(-4.26006e-11 -6.24508e-09 0)
(-4.09301e-11 -6.17748e-09 0)
(-3.93022e-11 -6.11257e-09 0)
(-3.77152e-11 -6.05024e-09 0)
(-3.61676e-11 -5.99042e-09 0)
(-3.46578e-11 -5.93305e-09 0)
(-3.31843e-11 -5.87807e-09 0)
(-3.17458e-11 -5.82544e-09 0)
(-3.03409e-11 -5.77512e-09 0)
(-2.8968e-11 -5.72703e-09 0)
(-2.76259e-11 -5.68116e-09 0)
(-2.63127e-11 -5.6374e-09 0)
(-2.50266e-11 -5.59561e-09 0)
(-2.37663e-11 -5.55575e-09 0)
(-2.25313e-11 -5.51808e-09 0)
(-2.13195e-11 -5.4824e-09 0)
(-2.01295e-11 -5.44875e-09 0)
(-1.89589e-11 -5.41698e-09 0)
(-1.78065e-11 -5.38715e-09 0)
(-1.667e-11 -5.35913e-09 0)
(-1.55479e-11 -5.33298e-09 0)
(-1.44384e-11 -5.3086e-09 0)
(-1.33404e-11 -5.28605e-09 0)
(-1.22532e-11 -5.26524e-09 0)
(-1.11776e-11 -5.24627e-09 0)
(-1.01154e-11 -5.22886e-09 0)
(-9.07195e-12 -5.2137e-09 0)
(-8.05144e-12 -5.19862e-09 0)
(-7.0694e-12 -5.19029e-09 0)
(-6.10161e-12 -5.16623e-09 0)
(-5.23349e-12 -5.19885e-09 0)
(-4.07432e-12 -5.03606e-09 0)
(-3.92937e-12 -5.44281e-09 0)
(-2.28275e-12 -4.74885e-09 0)
)
;
    }
    bottomWall
    {
        type            calculated;
        value           nonuniform List<vector> 
449
(
(-49.5377 -0.935664 0)
(-36.4743 -0.00209705 0)
(-35.9342 -0.000193569 0)
(-35.1575 -0.000252946 0)
(-34.3177 -0.000206298 0)
(-33.9059 -0.000110368 0)
(-33.677 -5.94526e-05 0)
(-33.5758 -2.48741e-05 0)
(-33.5539 -7.81608e-06 0)
(-33.5451 -8.06435e-06 0)
(-33.5109 -8.93486e-06 0)
(-33.4952 -9.01145e-06 0)
(-33.4576 -7.57551e-06 0)
(-33.4512 2.17317e-06 0)
(-33.48 6.774e-06 0)
(-33.5005 2.67305e-06 0)
(-33.4986 -9.50382e-08 0)
(-33.5004 -1.74983e-06 0)
(-33.4839 -5.13379e-06 0)
(-33.4637 -1.7105e-06 0)
(-33.477 6.2017e-07 0)
(-33.4712 -1.38615e-06 0)
(-33.4676 -2.39798e-06 0)
(-33.4552 -1.28233e-06 0)
(-33.4602 1.02087e-06 0)
(-33.4638 1.7036e-06 0)
(-33.4715 -5.35722e-07 0)
(-33.4587 -1.56988e-06 0)
(-33.4597 -2.79718e-06 0)
(-33.4386 -2.2695e-06 0)
(-33.4457 2.39533e-06 0)
(-33.457 3.52643e-06 0)
(-33.4682 2.64695e-07 0)
(-33.4553 -2.52446e-06 0)
(-33.4506 1.64736e-06 0)
(-33.4706 3.05171e-06 0)
(-33.4723 -1.62475e-06 0)
(-33.458 -2.32235e-06 0)
(-33.4586 2.69657e-06 0)
(-33.4799 3.58632e-06 0)
(-33.4818 -2.00546e-06 0)
(-33.4602 -4.41039e-06 0)
(-33.4493 1.99897e-06 0)
(-33.4789 6.30609e-06 0)
(-33.4965 2.02691e-06 0)
(-33.4921 5.88267e-07 0)
(-33.4981 -3.10043e-06 0)
(-33.4657 -5.72477e-06 0)
(-33.458 1.83711e-06 0)
(-33.4847 4.61556e-06 0)
(-33.4907 -2.24214e-06 0)
(-33.4622 -5.22753e-06 0)
(-33.4519 3.2938e-07 0)
(-33.469 5.00324e-06 0)
(-33.4889 2.88577e-06 0)
(-33.488 -3.81203e-06 0)
(-33.4588 -6.95467e-06 0)
(-33.4374 -1.53641e-08 0)
(-33.4645 3.29803e-06 0)
(-33.4626 -1.87977e-07 0)
(-33.4601 4.4043e-07 0)
(-33.4635 -1.04411e-06 0)
(-33.4509 -2.24514e-06 0)
(-33.4495 -7.68515e-07 0)
(-33.447 4.97438e-07 0)
(-33.4551 2.70926e-06 0)
(-33.4706 4.2525e-06 0)
(-33.4873 2.23109e-06 0)
(-33.4844 -1.4131e-06 0)
(-33.4747 -1.87482e-06 0)
(-33.4723 1.30789e-06 0)
(-33.4867 1.84726e-06 0)
(-33.4857 -3.36476e-07 0)
(-33.4831 -5.9285e-07 0)
(-33.4805 -1.04115e-06 0)
(-33.4736 2.21069e-07 0)
(-33.4797 -2.95225e-06 0)
(-33.4458 -6.21701e-06 0)
(-33.43 5.96285e-07 0)
(-33.4566 6.44005e-06 0)
(-33.4838 4.20198e-06 0)
(-33.4862 -1.45731e-06 0)
(-33.4679 -3.71951e-06 0)
(-33.4577 -2.21397e-06 0)
(-33.4549 3.30072e-07 0)
(-33.4629 3.40124e-06 0)
(-33.4811 1.11344e-06 0)
(-33.4658 -4.35896e-06 0)
(-33.4416 -2.27352e-06 0)
(-33.4494 9.11012e-07 0)
(-33.4508 1.14408e-06 0)
(-33.4582 -2.53986e-06 0)
(-33.4278 -5.08715e-06 0)
(-33.4181 2.07598e-06 0)
(-33.4513 6.73339e-06 0)
(-33.4754 4.22265e-06 0)
(-33.4824 -1.03161e-06 0)
(-33.4634 -3.25281e-06 0)
(-33.4562 8.61106e-07 0)
(-33.471 1.74695e-06 0)
(-33.4694 -8.64339e-07 0)
(-33.465 -9.18804e-07 0)
(-33.4628 -1.48206e-06 0)
(-33.4508 -2.43743e-06 0)
(-33.4415 -4.78875e-07 0)
(-33.4515 4.68497e-06 0)
(-33.4856 4.90629e-06 0)
(-33.4919 5.74423e-07 0)
(-33.4887 -2.64843e-07 0)
(-33.4894 -1.22908e-06 0)
(-33.4776 -1.33827e-06 0)
(-33.477 -1.84812e-06 0)
(-33.4578 -4.12816e-06 0)
(-33.4388 -1.42926e-06 0)
(-33.4501 2.3393e-06 0)
(-33.4621 9.10018e-08 0)
(-33.4488 -2.17321e-06 0)
(-33.444 8.06721e-07 0)
(-33.4604 2.73991e-06 0)
(-33.4657 -9.04892e-09 0)
(-33.4562 5.9534e-07 0)
(-33.4755 4.69529e-06 0)
(-33.5004 2.68317e-06 0)
(-33.4979 2.25051e-07 0)
(-33.5008 -1.0237e-06 0)
(-33.4843 -4.05667e-06 0)
(-33.4619 -2.38185e-06 0)
(-33.4661 2.05711e-06 0)
(-33.4825 2.47627e-06 0)
(-33.4868 1.17036e-07 0)
(-33.4825 -8.01421e-07 0)
(-33.4801 -5.02249e-07 0)
(-33.4791 3.73747e-08 0)
(-33.4778 -1.16285e-06 0)
(-33.4656 -1.48291e-06 0)
(-33.4676 6.40898e-08 0)
(-33.4691 4.07502e-08 0)
(-33.4677 -3.10956e-07 0)
(-33.4643 -1.73207e-06 0)
(-33.4514 -1.29206e-06 0)
(-33.4561 2.93585e-06 0)
(-33.479 2.55556e-06 0)
(-33.4775 5.90621e-07 0)
(-33.4831 -3.30853e-07 0)
(-33.4741 -6.64995e-07 0)
(-33.4777 -2.00897e-06 0)
(-33.4543 -3.0674e-06 0)
(-33.4506 5.10927e-07 0)
(-33.4629 1.32222e-06 0)
(-33.4632 1.7429e-06 0)
(-33.4774 2.18513e-06 0)
(-33.4794 -1.41035e-06 0)
(-33.4614 -1.67385e-06 0)
(-33.4663 1.8181e-06 0)
(-33.479 1.78809e-07 0)
(-33.4662 -2.10901e-06 0)
(-33.461 -9.25309e-07 0)
(-33.4584 -1.22321e-07 0)
(-33.4596 1.51384e-06 0)
(-33.4738 1.02074e-06 0)
(-33.4684 5.61934e-08 0)
(-33.4723 -1.70081e-06 0)
(-33.4511 -1.49988e-06 0)
(-33.4605 2.97009e-06 0)
(-33.4825 1.57494e-06 0)
(-33.4766 -5.81692e-07 0)
(-33.4776 9.05035e-07 0)
(-33.4846 7.42973e-07 0)
(-33.4826 -1.92768e-06 0)
(-33.4639 -2.04447e-06 0)
(-33.4642 1.38412e-06 0)
(-33.4797 1.71112e-06 0)
(-33.478 -9.46076e-07 0)
(-33.468 -5.196e-08 0)
(-33.4806 2.20333e-06 0)
(-33.4911 1.23144e-06 0)
(-33.4912 4.59118e-08 0)
(-33.4913 2.99175e-09 0)
(-33.49 -2.13807e-06 0)
(-33.4688 -2.58927e-06 0)
(-33.4666 1.92801e-06 0)
(-33.49 7.87687e-08 0)
(-33.4637 -4.1213e-06 0)
(-33.4474 -1.07366e-06 0)
(-33.4573 1.63908e-06 0)
(-33.4641 2.57054e-06 0)
(-33.4805 1.35704e-06 0)
(-33.4767 -7.80021e-07 0)
(-33.4703 -2.46002e-06 0)
(-33.4514 -1.55316e-06 0)
(-33.4589 1.19593e-06 0)
(-33.4659 1.50199e-07 0)
(-33.4576 -1.14205e-06 0)
(-33.4516 4.25522e-07 0)
(-33.4651 1.61307e-06 0)
(-33.4716 1.18107e-06 0)
(-33.4768 6.52624e-09 0)
(-33.4705 1.217e-07 0)
(-33.4771 9.5947e-07 0)
(-33.4791 -7.14797e-07 0)
(-33.4686 -5.94356e-07 0)
(-33.4737 -1.11152e-06 0)
(-33.4543 -1.92564e-06 0)
(-33.4511 2.07805e-06 0)
(-33.4834 2.91438e-06 0)
(-33.4869 5.07051e-07 0)
(-33.4873 -7.7296e-07 0)
(-33.4765 -1.28692e-06 0)
(-33.4714 -1.79748e-06 0)
(-33.452 -1.5585e-06 0)
(-33.4508 5.00097e-07 0)
(-33.4598 8.5962e-07 0)
(-33.4618 8.24813e-08 0)
(-33.461 3.47439e-07 0)
(-33.4652 4.84429e-07 0)
(-33.4661 3.33596e-07 0)
(-33.4706 6.63603e-07 0)
(-33.4756 4.97748e-08 0)
(-33.4708 -8.21022e-07 0)
(-33.4647 -1.61199e-07 0)
(-33.4689 8.03722e-07 0)
(-33.4758 3.17703e-07 0)
(-33.474 -2.42262e-07 0)
(-33.4725 -3.85195e-07 0)
(-33.4683 -1.20672e-06 0)
(-33.4541 -9.80947e-07 0)
(-33.4547 7.15336e-07 0)
(-33.4673 3.17925e-07 0)
(-33.4594 1.60839e-07 0)
(-33.4692 1.51841e-07 0)
(-33.4606 -1.70696e-07 0)
(-33.4663 1.43632e-06 0)
(-33.4846 6.54313e-07 0)
(-33.4764 -6.07926e-07 0)
(-33.4742 -1.89967e-07 0)
(-33.473 -6.97039e-07 0)
(-33.4615 -1.11401e-06 0)
(-33.454 1.60993e-07 0)
(-33.4647 6.34783e-07 0)
(-33.4652 2.34304e-07 0)
(-33.47 4.4609e-08 0)
(-33.4647 -5.15263e-07 0)
(-33.4591 -8.78769e-08 0)
(-33.4632 -5.54974e-07 0)
(-33.4492 -6.95508e-07 0)
(-33.4516 4.451e-07 0)
(-33.4566 -8.77706e-08 0)
(-33.4494 -1.38223e-07 0)
(-33.4565 8.32718e-07 0)
(-33.4645 3.26108e-07 0)
(-33.4614 -3.20598e-08 0)
(-33.4661 -4.64383e-07 0)
(-33.4511 -6.2375e-07 0)
(-33.4512 4.35263e-07 0)
(-33.4591 -3.20466e-08 0)
(-33.4508 -2.76434e-07 0)
(-33.4557 4.51112e-07 0)
(-33.46 3.18101e-07 0)
(-33.4608 -1.18433e-07 0)
(-33.457 -3.33368e-07 0)
(-33.4543 2.39754e-07 0)
(-33.4647 3.51485e-07 0)
(-33.4622 5.26241e-09 0)
(-33.4641 4.73725e-08 0)
(-33.4637 -6.23037e-08 0)
(-33.4623 -4.54837e-08 0)
(-33.4628 1.0111e-07 0)
(-33.4657 8.79839e-08 0)
(-33.465 9.30783e-10 0)
(-33.4654 -7.3135e-08 0)
(-33.4626 -5.20913e-07 0)
(-33.4507 -3.69341e-07 0)
(-33.4532 2.1983e-07 0)
(-33.4576 1.37947e-07 0)
(-33.4563 2.4079e-08 0)
(-33.4579 2.52371e-08 0)
(-33.4576 -7.60082e-08 0)
(-33.4557 -5.32667e-10 0)
(-33.4578 2.141e-07 0)
(-33.462 3.87198e-08 0)
(-33.4576 -1.75724e-07 0)
(-33.4562 -2.86683e-07 0)
(-33.4499 -2.30125e-07 0)
(-33.4509 2.80177e-07 0)
(-33.4595 2.59686e-07 0)
(-33.4586 5.49014e-08 0)
(-33.4606 4.28176e-08 0)
(-33.4594 -5.9109e-08 0)
(-33.4573 -2.60323e-07 0)
(-33.4511 -1.45441e-08 0)
(-33.4589 4.43763e-07 0)
(-33.465 2.63498e-07 0)
(-33.466 2.17669e-08 0)
(-33.4655 -2.43858e-08 0)
(-33.4651 -3.26779e-08 0)
(-33.4643 -7.24336e-08 0)
(-33.4625 -1.20821e-07 0)
(-33.4598 -1.33949e-07 0)
(-33.4582 -8.27107e-08 0)
(-33.4578 -1.58597e-07 0)
(-33.4519 -1.29047e-07 0)
(-33.4529 2.06483e-08 0)
(-33.4535 -2.60558e-08 0)
(-33.4517 1.18568e-08 0)
(-33.454 5.8272e-08 0)
(-33.4545 -2.09397e-08 0)
(-33.4528 -3.47718e-08 0)
(-33.4528 -6.35696e-08 0)
(-33.4501 -7.27233e-08 0)
(-33.4497 -1.16651e-08 0)
(-33.4498 1.51223e-08 0)
(-33.4507 4.6967e-08 0)
(-33.4524 2.8145e-08 0)
(-33.4522 -2.67068e-07 0)
(-33.4416 -1.36374e-07 0)
(-33.4465 3.93807e-07 0)
(-33.4569 1.84541e-07 0)
(-33.4544 -3.69056e-08 0)
(-33.4564 1.08896e-07 0)
(-33.4584 4.26595e-08 0)
(-33.4578 -6.01113e-08 0)
(-33.4557 -2.02461e-07 0)
(-33.4482 -2.08262e-07 0)
(-33.4462 4.36635e-08 0)
(-33.4513 1.63621e-07 0)
(-33.4546 6.41613e-08 0)
(-33.4542 4.58484e-09 0)
(-33.4547 -2.99518e-08 0)
(-33.4529 -2.50698e-08 0)
(-33.4535 3.9962e-08 0)
(-33.4542 -2.51624e-08 0)
(-33.4515 -1.64885e-07 0)
(-33.4462 -5.00173e-08 0)
(-33.4501 1.22405e-07 0)
(-33.4525 -1.0108e-08 0)
(-33.4492 -1.33396e-07 0)
(-33.4448 -5.41663e-08 0)
(-33.4463 1.4034e-07 0)
(-33.4534 9.43525e-08 0)
(-33.4513 -2.61054e-10 0)
(-33.453 4.53582e-08 0)
(-33.4536 -1.39711e-08 0)
(-33.4522 -5.03981e-08 0)
(-33.4503 -6.45261e-08 0)
(-33.4484 -3.60493e-08 0)
(-33.4491 -3.49621e-09 0)
(-33.4479 -3.57338e-09 0)
(-33.4484 -2.9785e-08 0)
(-33.4462 -5.47164e-09 0)
(-33.4481 7.24853e-08 0)
(-33.4505 1.22479e-08 0)
(-33.4492 -8.95515e-09 0)
(-33.4507 -2.46178e-08 0)
(-33.4469 -8.25805e-08 0)
(-33.4448 -1.1542e-08 0)
(-33.4469 1.00612e-08 0)
(-33.4454 -2.0907e-08 0)
(-33.4453 3.64298e-08 0)
(-33.4485 7.19003e-08 0)
(-33.4503 2.39101e-08 0)
(-33.4499 -9.15075e-09 0)
(-33.4497 -2.18646e-08 0)
(-33.4484 -8.34104e-08 0)
(-33.4433 -3.59739e-08 0)
(-33.4459 6.41554e-08 0)
(-33.4487 -3.58813e-08 0)
(-33.4431 -2.59779e-08 0)
(-33.4468 6.84703e-08 0)
(-33.4485 -9.25632e-09 0)
(-33.4462 -1.35709e-08 0)
(-33.4475 -1.21517e-08 0)
(-33.4451 -2.75338e-08 0)
(-33.4456 -1.82421e-10 0)
(-33.4445 -1.49797e-08 0)
(-33.444 2.15457e-08 0)
(-33.4467 3.34221e-08 0)
(-33.4466 2.1111e-09 0)
(-33.4465 -4.16861e-08 0)
(-33.4435 -1.52725e-08 0)
(-33.4458 3.55784e-08 0)
(-33.4463 -1.74347e-08 0)
(-33.4443 1.45331e-08 0)
(-33.4474 5.66553e-08 0)
(-33.4487 -1.30351e-08 0)
(-33.4461 -2.12564e-08 0)
(-33.447 2.1559e-08 0)
(-33.4481 2.40782e-09 0)
(-33.447 -2.6953e-08 0)
(-33.4459 -1.4673e-09 0)
(-33.4472 1.46389e-08 0)
(-33.447 1.82823e-09 0)
(-33.4473 2.44145e-08 0)
(-33.4491 5.11393e-09 0)
(-33.4478 -1.16014e-08 0)
(-33.4482 -4.66922e-08 0)
(-33.4441 -7.39552e-09 0)
(-33.4476 5.6381e-08 0)
(-33.4484 3.40685e-09 0)
(-33.4477 2.97647e-09 0)
(-33.4483 1.61718e-09 0)
(-33.4478 -5.34806e-09 0)
(-33.4483 -2.0655e-08 0)
(-33.446 -2.90114e-08 0)
(-33.446 2.56352e-08 0)
(-33.4484 1.57409e-08 0)
(-33.4473 -1.41451e-08 0)
(-33.4473 -2.60079e-08 0)
(-33.445 7.71526e-09 0)
(-33.4479 5.92903e-08 0)
(-33.4499 -1.82793e-08 0)
(-33.4464 -3.09963e-08 0)
(-33.4474 1.74527e-08 0)
(-33.4477 3.10546e-09 0)
(-33.4475 -2.50694e-09 0)
(-33.4472 9.30928e-09 0)
(-33.4483 1.75286e-08 0)
(-33.4489 -2.16837e-08 0)
(-33.4461 -3.99642e-08 0)
(-33.4455 -3.46011e-08 0)
(-33.4439 9.01892e-09 0)
(-33.4462 5.90996e-08 0)
(-33.4481 7.17235e-09 0)
(-33.4471 -1.09576e-08 0)
(-33.4479 7.44616e-09 0)
(-33.4478 7.81965e-10 0)
(-33.4479 -1.78635e-08 0)
(-33.446 -4.93124e-09 0)
(-33.4474 2.52935e-08 0)
(-33.4482 -1.34835e-08 0)
(-33.446 -2.94824e-08 0)
(-33.4459 1.58177e-08 0)
(-33.4477 2.00351e-08 0)
(-33.4475 -2.81864e-09 0)
(-33.4474 -3.75898e-08 0)
(-33.4443 -1.55849e-08 0)
(-33.4461 6.0548e-08 0)
(-33.4493 1.1004e-08 0)
(-33.4471 -1.43077e-08 0)
(-33.4482 2.34626e-08 0)
(-33.4488 2.88956e-09 0)
(-33.4484 -3.5541e-08 0)
(-33.4456 -4.63124e-09 0)
(-33.448 4.01541e-08 0)
(-33.4491 -1.67931e-08 0)
(-33.4465 -6.88784e-09 0)
(-33.4486 3.36611e-08 0)
(-33.4493 -2.4429e-09 0)
(-33.4483 -3.34699e-08 0)
(-33.4463 -2.21775e-08 0)
)
;
    }
    symmetry
    {
        type            symmetryPlane;
    }
    frontAndBack
    {
        type            empty;
    }
}


// ************************************************************************* //
