/*--------------------------------*- C++ -*----------------------------------*\
| =========                 |                                                 |
| \\      /  F ield         | OpenFOAM: The Open Source CFD Toolbox           |
|  \\    /   O peration     | Version:  v2012                                 |
|   \\  /    A nd           | Website:  www.openfoam.com                      |
|    \\/     M anipulation  |                                                 |
\*---------------------------------------------------------------------------*/
FoamFile
{
    version     2.0;
    format      ascii;
    class       volScalarField;
    location    "1.5";
    object      yPlus;
}
// * * * * * * * * * * * * * * * * * * * * * * * * * * * * * * * * * * * * * //

dimensions      [0 0 0 0 0 0 0];


internalField   uniform 0;

boundaryField
{
    inlet
    {
        type            calculated;
        value           uniform 0;
    }
    outlet
    {
        type            calculated;
        value           uniform 0;
    }
    topWall
    {
        type            calculated;
        value           nonuniform List<scalar> 
545
(
0.0238992
0.0420937
0.0540743
0.063421
0.0713101
0.0781869
0.0843104
0.089837
0.0948763
0.0995042
0.103781
0.107749
0.111448
0.114905
0.118145
0.121188
0.124053
0.126752
0.129303
0.131712
0.133995
0.136156
0.138208
0.140152
0.142003
0.143759
0.145433
0.147023
0.14854
0.149984
0.151361
0.152674
0.153927
0.155123
0.156265
0.157356
0.158397
0.159393
0.160344
0.161255
0.162125
0.162958
0.163753
0.164517
0.165245
0.165944
0.166611
0.167252
0.167864
0.168452
0.169013
0.169551
0.170066
0.17056
0.171032
0.171486
0.171918
0.172335
0.172731
0.173114
0.173477
0.173827
0.174161
0.174482
0.174788
0.175081
0.175362
0.17563
0.175887
0.176132
0.176367
0.176591
0.176801
0.177001
0.177199
0.177393
0.177585
0.177772
0.177958
0.17814
0.17832
0.178495
0.178669
0.178839
0.179008
0.179172
0.179335
0.179494
0.179652
0.179806
0.179958
0.180108
0.180255
0.180401
0.180542
0.180687
0.180799
0.180898
0.180995
0.181093
0.181188
0.181284
0.181378
0.181473
0.181565
0.181658
0.181748
0.181838
0.181926
0.182014
0.1821
0.182184
0.182267
0.182349
0.182429
0.182509
0.182586
0.182663
0.182738
0.182812
0.182884
0.182956
0.183027
0.183097
0.183167
0.183235
0.183303
0.183369
0.183434
0.183499
0.183562
0.183624
0.183685
0.183746
0.183806
0.183866
0.183925
0.183983
0.184041
0.184099
0.184156
0.184212
0.184268
0.184323
0.184377
0.184431
0.184483
0.184536
0.184587
0.184638
0.184688
0.184738
0.184787
0.184836
0.184884
0.184932
0.184979
0.185025
0.18507
0.185114
0.185158
0.185202
0.185245
0.185287
0.185328
0.185369
0.18541
0.185449
0.185486
0.185525
0.185561
0.185596
0.185633
0.185666
0.185699
0.185733
0.185764
0.185794
0.185823
0.185851
0.185878
0.185905
0.185931
0.185956
0.185982
0.186004
0.186025
0.186045
0.186065
0.186085
0.186105
0.186122
0.186137
0.186151
0.186166
0.186179
0.186193
0.186204
0.186212
0.18622
0.18623
0.186235
0.186243
0.186247
0.186251
0.186254
0.186257
0.186258
0.186256
0.186254
0.186252
0.186249
0.186245
0.18624
0.186232
0.186226
0.186215
0.186205
0.186194
0.186178
0.186166
0.186149
0.186134
0.186116
0.186097
0.186077
0.186055
0.186035
0.186013
0.18599
0.185962
0.185936
0.185907
0.18588
0.185849
0.185816
0.185783
0.185752
0.185716
0.185676
0.185639
0.185602
0.185559
0.185522
0.185484
0.185439
0.185393
0.185348
0.185301
0.185253
0.185207
0.185152
0.185099
0.185047
0.184991
0.184937
0.184878
0.184816
0.18476
0.184696
0.184636
0.18457
0.184505
0.184438
0.184368
0.184296
0.184227
0.18415
0.184082
0.184001
0.183926
0.18385
0.183765
0.183684
0.183604
0.183517
0.183434
0.183348
0.18326
0.183168
0.183076
0.182982
0.182887
0.182791
0.182694
0.182598
0.182493
0.182392
0.182289
0.182185
0.182075
0.181965
0.18185
0.181739
0.181621
0.1815
0.181385
0.18126
0.181138
0.181007
0.180878
0.180749
0.18061
0.180475
0.18034
0.180194
0.180048
0.179904
0.179752
0.179599
0.179445
0.179283
0.179119
0.178955
0.178784
0.178616
0.178442
0.17826
0.178078
0.177891
0.1777
0.177507
0.177312
0.177107
0.1769
0.176694
0.176481
0.176267
0.176045
0.175821
0.175593
0.17536
0.175124
0.17488
0.174634
0.174383
0.174122
0.173863
0.173592
0.173321
0.173043
0.172765
0.172481
0.172187
0.171894
0.171598
0.171286
0.170974
0.170651
0.170328
0.169995
0.169655
0.169312
0.168965
0.168612
0.168248
0.167882
0.16751
0.167136
0.166748
0.166358
0.165961
0.165556
0.165141
0.164719
0.164294
0.16386
0.163412
0.162966
0.162502
0.162039
0.161568
0.161094
0.16061
0.160121
0.159621
0.159124
0.158602
0.158081
0.157545
0.157002
0.156451
0.155893
0.155327
0.154752
0.15417
0.15358
0.152981
0.152373
0.15176
0.151133
0.150509
0.149865
0.149222
0.148564
0.147894
0.147216
0.146531
0.145839
0.145138
0.144428
0.143711
0.142988
0.142251
0.141508
0.140754
0.139991
0.139221
0.138445
0.13766
0.136869
0.136069
0.13526
0.134446
0.13362
0.132794
0.131953
0.131109
0.130256
0.129397
0.12853
0.127657
0.126776
0.125888
0.124995
0.124093
0.123188
0.122274
0.121353
0.120431
0.119498
0.11856
0.117615
0.11667
0.115722
0.114769
0.113812
0.112848
0.111881
0.11091
0.109935
0.108956
0.107976
0.106991
0.106005
0.105015
0.104022
0.103028
0.102035
0.101044
0.0999431
0.0987392
0.0975574
0.0963929
0.0952465
0.0941145
0.0929991
0.0919009
0.0908217
0.0897589
0.0887141
0.087687
0.0866762
0.0856812
0.0847031
0.0837417
0.0827985
0.0818729
0.0809639
0.0800736
0.0792016
0.0783404
0.0774975
0.0766687
0.0758574
0.0750623
0.0742889
0.0735256
0.0727784
0.0720484
0.0713346
0.0706345
0.0699452
0.0692741
0.0686177
0.0679768
0.0673499
0.0667388
0.0661405
0.0655568
0.0649885
0.0644331
0.0638885
0.0633571
0.0628393
0.0623349
0.0618436
0.0613653
0.0608999
0.0604471
0.0600068
0.0595789
0.0591632
0.0587594
0.0583675
0.0579872
0.0576184
0.0572607
0.0569144
0.0565788
0.0562542
0.0559402
0.0556365
0.0553432
0.0550602
0.0547873
0.0545241
0.0542708
0.0540272
0.0537933
0.0535688
0.0533538
0.0531479
0.0529505
0.0527615
0.0525823
0.0524121
0.0522511
0.0520986
0.0519551
0.0518199
0.0516935
0.0515753
0.0514658
0.0513645
0.0512718
0.0511871
0.051111
0.0510428
0.0509826
0.05093
0.0508851
0.0508462
0.0508198
0.0507833
)
;
    }
    bottomWall
    {
        type            calculated;
        value           nonuniform List<scalar> 
449
(
0.00146825
0.00433889
0.00435389
0.00415072
0.00398118
0.00391086
0.00387418
0.00385957
0.00385795
0.00385653
0.00385063
0.00384847
0.00384137
0.00384093
0.00384701
0.0038504
0.00385008
0.00385086
0.00384705
0.00384303
0.00384616
0.00384504
0.00384476
0.00384216
0.00384326
0.00384415
0.00384563
0.00384313
0.00384376
0.00383944
0.00384107
0.00384305
0.00384519
0.00384208
0.00384127
0.00384537
0.0038453
0.00384258
0.00384303
0.00384728
0.00384779
0.00384286
0.00384088
0.00384715
0.00385002
0.00384894
0.0038503
0.00384366
0.00384252
0.00384818
0.00384936
0.0038431
0.00384133
0.00384499
0.00384827
0.00384842
0.00384246
0.00383873
0.00384442
0.00384352
0.00384325
0.00384351
0.00384109
0.00384116
0.0038406
0.0038426
0.00384588
0.00384858
0.00384749
0.0038458
0.00384592
0.00384853
0.00384833
0.00384805
0.0038477
0.00384641
0.00384802
0.00384065
0.00383738
0.00384339
0.00384792
0.00384836
0.00384463
0.00384335
0.00384285
0.00384403
0.00384708
0.00384432
0.00383984
0.00384174
0.00384206
0.00384392
0.00383727
0.00383538
0.00384258
0.00384647
0.00384763
0.00384367
0.00384261
0.00384536
0.00384476
0.00384408
0.00384362
0.00384168
0.00383982
0.00384233
0.00384875
0.00384915
0.00384874
0.00384911
0.0038469
0.0038475
0.00384336
0.00383916
0.00384172
0.00384383
0.00384139
0.00384076
0.00384427
0.00384439
0.0038425
0.00384689
0.00385138
0.00385092
0.00385136
0.00384791
0.00384353
0.00384461
0.00384764
0.00384818
0.00384737
0.00384715
0.00384708
0.00384668
0.00384427
0.00384497
0.00384541
0.00384524
0.00384424
0.00384187
0.00384324
0.0038473
0.00384673
0.00384806
0.00384641
0.00384717
0.00384221
0.00384179
0.0038444
0.00384424
0.00384678
0.00384708
0.00384358
0.00384479
0.00384702
0.00384449
0.00384375
0.00384312
0.0038436
0.00384635
0.00384503
0.00384607
0.00384179
0.00384392
0.0038481
0.00384709
0.00384731
0.00384845
0.00384807
0.00384427
0.00384463
0.00384755
0.00384679
0.00384453
0.00384733
0.00384924
0.00384916
0.0038495
0.00384952
0.00384518
0.00384502
0.00384957
0.00384389
0.00384115
0.00384348
0.00384444
0.00384748
0.00384664
0.00384538
0.00384208
0.00384392
0.0038451
0.00384338
0.00384225
0.00384522
0.00384649
0.00384726
0.00384614
0.00384728
0.00384733
0.00384558
0.00384661
0.0038427
0.00384234
0.00384884
0.00384926
0.00384952
0.00384757
0.00384671
0.00384261
0.00384232
0.00384406
0.00384438
0.00384441
0.00384517
0.00384526
0.00384617
0.003847
0.00384604
0.00384511
0.00384585
0.00384711
0.00384687
0.00384665
0.00384621
0.00384334
0.00384353
0.00384599
0.00384441
0.0038463
0.00384453
0.00384581
0.00384914
0.00384754
0.00384725
0.00384708
0.00384485
0.0038434
0.00384539
0.00384563
0.00384669
0.00384542
0.00384445
0.00384534
0.00384279
0.00384328
0.0038441
0.00384283
0.00384422
0.00384538
0.00384504
0.00384612
0.00384305
0.00384297
0.00384456
0.00384312
0.00384409
0.00384472
0.00384476
0.00384415
0.00384385
0.00384588
0.00384519
0.00384563
0.00384559
0.00384527
0.00384542
0.00384602
0.00384592
0.00384613
0.00384555
0.00384327
0.00384376
0.00384462
0.00384426
0.00384459
0.0038446
0.00384415
0.00384471
0.00384545
0.00384447
0.00384421
0.0038432
0.00384354
0.00384517
0.00384495
0.00384531
0.00384502
0.00384457
0.00384354
0.00384506
0.00384601
0.00384615
0.00384616
0.00384622
0.00384603
0.00384568
0.00384514
0.00384479
0.00384475
0.00384364
0.0038439
0.00384406
0.00384364
0.00384411
0.00384423
0.00384385
0.00384384
0.00384338
0.00384328
0.00384339
0.00384359
0.00384394
0.00384385
0.00384194
0.00384281
0.0038447
0.00384432
0.00384467
0.00384496
0.00384485
0.00384449
0.00384309
0.00384277
0.00384386
0.0038444
0.0038443
0.00384442
0.00384414
0.00384422
0.00384433
0.00384384
0.00384287
0.00384362
0.00384399
0.0038434
0.00384252
0.00384293
0.0038443
0.0038438
0.00384418
0.00384428
0.00384402
0.00384367
0.0038433
0.00384346
0.00384322
0.00384329
0.00384295
0.00384328
0.00384372
0.00384349
0.00384375
0.00384314
0.0038428
0.00384317
0.00384288
0.00384288
0.00384342
0.00384372
0.00384364
0.0038436
0.00384339
0.00384249
0.00384302
0.00384354
0.00384245
0.00384314
0.00384344
0.00384306
0.00384333
0.00384286
0.00384293
0.00384272
0.00384266
0.00384316
0.00384313
0.00384315
0.00384257
0.00384293
0.00384303
0.00384273
0.00384325
0.00384348
0.00384302
0.00384317
0.00384338
0.00384318
0.00384299
0.0038432
0.00384313
0.00384323
0.00384354
0.00384333
0.00384346
0.00384265
0.00384328
0.00384342
0.00384328
0.00384342
0.00384331
0.0038434
0.00384299
0.003843
0.00384343
0.00384323
0.00384325
0.0038428
0.00384335
0.00384372
0.00384304
0.0038432
0.00384326
0.00384324
0.00384321
0.00384339
0.0038435
0.00384301
0.00384286
0.0038426
0.00384301
0.00384333
0.00384321
0.00384335
0.00384332
0.00384335
0.00384301
0.00384324
0.0038434
0.003843
0.00384298
0.00384329
0.00384326
0.00384325
0.00384265
0.00384301
0.00384362
0.00384321
0.00384337
0.00384348
0.00384343
0.00384289
0.00384334
0.00384355
0.00384306
0.00384347
0.00384359
0.0038434
0.00384312
)
;
    }
    symmetry
    {
        type            symmetryPlane;
    }
    frontAndBack
    {
        type            empty;
    }
}


// ************************************************************************* //
