/*--------------------------------*- C++ -*----------------------------------*\
| =========                 |                                                 |
| \\      /  F ield         | OpenFOAM: The Open Source CFD Toolbox           |
|  \\    /   O peration     | Version:  v2012                                 |
|   \\  /    A nd           | Website:  www.openfoam.com                      |
|    \\/     M anipulation  |                                                 |
\*---------------------------------------------------------------------------*/
FoamFile
{
    version     2.0;
    format      ascii;
    class       volScalarField;
    location    "1.5";
    object      yPlus;
}
// * * * * * * * * * * * * * * * * * * * * * * * * * * * * * * * * * * * * * //

dimensions      [0 0 0 0 0 0 0];


internalField   uniform 0;

boundaryField
{
    inlet
    {
        type            calculated;
        value           uniform 0;
    }
    outlet
    {
        type            calculated;
        value           uniform 0;
    }
    topWall
    {
        type            calculated;
        value           nonuniform List<scalar> 
545
(
0.0246691
0.0432427
0.0553821
0.0649412
0.0729988
0.0800329
0.086299
0.091958
0.0971191
0.101861
0.106244
0.110312
0.114104
0.117649
0.120972
0.124093
0.127032
0.129802
0.132418
0.134892
0.137233
0.139452
0.141557
0.143555
0.145453
0.147258
0.148975
0.150609
0.152166
0.153649
0.155063
0.156412
0.157699
0.158927
0.1601
0.16122
0.16229
0.163313
0.164291
0.165226
0.16612
0.166975
0.167794
0.168577
0.169327
0.170044
0.170731
0.171389
0.172018
0.172621
0.173199
0.173752
0.174282
0.17479
0.175276
0.175742
0.176188
0.176615
0.177024
0.177416
0.177792
0.178151
0.178495
0.178825
0.17914
0.179442
0.179731
0.180008
0.180272
0.180525
0.180766
0.180998
0.181214
0.18142
0.181624
0.181824
0.182021
0.182214
0.182405
0.182593
0.182777
0.182959
0.183137
0.183313
0.183485
0.183655
0.183822
0.183986
0.184147
0.184306
0.184462
0.184615
0.184765
0.184913
0.185057
0.185203
0.185317
0.185416
0.185514
0.185611
0.185707
0.185802
0.185897
0.185991
0.186085
0.186178
0.18627
0.186362
0.186452
0.186543
0.186632
0.186721
0.186809
0.186896
0.186983
0.187069
0.187154
0.187239
0.187323
0.187406
0.187488
0.18757
0.187651
0.187731
0.18781
0.187889
0.187967
0.188044
0.18812
0.188196
0.188271
0.188345
0.188418
0.188491
0.188563
0.188634
0.188704
0.188773
0.188842
0.188909
0.188976
0.189043
0.189108
0.189172
0.189236
0.189299
0.189361
0.189422
0.189482
0.189542
0.189601
0.189658
0.189715
0.189771
0.189826
0.189881
0.189934
0.189987
0.190038
0.190089
0.190139
0.190188
0.190236
0.190283
0.190329
0.190374
0.190418
0.190462
0.190504
0.190546
0.190586
0.190626
0.190665
0.190702
0.190739
0.190775
0.190809
0.190843
0.190876
0.190908
0.190939
0.190968
0.190997
0.191025
0.191052
0.191077
0.191102
0.191126
0.191148
0.19117
0.19119
0.19121
0.191228
0.191246
0.191262
0.191277
0.191291
0.191304
0.191316
0.191327
0.191337
0.191345
0.191353
0.191359
0.191365
0.191369
0.191372
0.191374
0.191374
0.191374
0.191372
0.19137
0.191366
0.191361
0.191354
0.191347
0.191338
0.191328
0.191317
0.191305
0.191292
0.191277
0.191261
0.191244
0.191226
0.191206
0.191186
0.191164
0.19114
0.191116
0.19109
0.191063
0.191035
0.191005
0.190974
0.190942
0.190909
0.190874
0.190838
0.190801
0.190762
0.190722
0.190681
0.190638
0.190594
0.190549
0.190502
0.190454
0.190405
0.190354
0.190302
0.190249
0.190194
0.190138
0.19008
0.190021
0.189961
0.189899
0.189836
0.189771
0.189705
0.189638
0.189569
0.189499
0.189427
0.189354
0.18928
0.189203
0.189128
0.189046
0.188966
0.188884
0.188801
0.188716
0.18863
0.188543
0.188455
0.188365
0.188274
0.188181
0.188087
0.187992
0.187895
0.187796
0.187695
0.187593
0.187489
0.187384
0.187276
0.187167
0.187056
0.186942
0.186827
0.18671
0.186591
0.186469
0.186346
0.18622
0.186092
0.185961
0.185829
0.185693
0.185555
0.185415
0.185272
0.185126
0.184978
0.184827
0.184673
0.184516
0.184356
0.184193
0.184027
0.183858
0.183686
0.18351
0.183331
0.183149
0.182963
0.182773
0.18258
0.182384
0.182183
0.181979
0.181771
0.181559
0.181343
0.181122
0.180898
0.180669
0.180436
0.180198
0.179956
0.17971
0.179459
0.179203
0.178942
0.178676
0.178406
0.17813
0.177849
0.177563
0.177272
0.176976
0.176673
0.176366
0.176053
0.175734
0.175409
0.175078
0.174742
0.174399
0.17405
0.173695
0.173334
0.172966
0.172592
0.172212
0.171824
0.171431
0.17103
0.170622
0.170208
0.169786
0.169357
0.168922
0.168478
0.168028
0.16757
0.167105
0.166632
0.166151
0.165663
0.165167
0.164664
0.164152
0.163632
0.163105
0.162569
0.162025
0.161473
0.160912
0.160344
0.159767
0.159182
0.158588
0.157986
0.157375
0.156755
0.156128
0.155491
0.154846
0.154192
0.15353
0.152859
0.152179
0.151491
0.150794
0.150088
0.149373
0.14865
0.147918
0.147178
0.146429
0.145671
0.144905
0.14413
0.143347
0.142555
0.141755
0.140947
0.140131
0.139306
0.138473
0.137633
0.136784
0.135928
0.135064
0.134192
0.133313
0.132426
0.131532
0.130631
0.129723
0.128809
0.127887
0.12696
0.126026
0.125085
0.124139
0.123187
0.122229
0.121266
0.120298
0.119325
0.118347
0.117365
0.116378
0.115387
0.114393
0.113394
0.112393
0.111388
0.110381
0.109371
0.108358
0.107344
0.106328
0.10531
0.104293
0.103154
0.101924
0.100715
0.0995227
0.0983479
0.09719
0.0960491
0.0949253
0.0938186
0.0927291
0.0916568
0.0906018
0.089564
0.0885434
0.08754
0.0865537
0.0855846
0.0846326
0.0836976
0.0827795
0.0818782
0.0809938
0.0801261
0.0792749
0.0784402
0.077622
0.0768199
0.0760341
0.0752643
0.0745103
0.0737722
0.0730497
0.0723428
0.0716512
0.0709749
0.0703136
0.0696674
0.0690359
0.0684191
0.0678168
0.0672289
0.0666552
0.0660955
0.0655497
0.0650176
0.0644991
0.0639939
0.063502
0.0630232
0.0625572
0.062104
0.0616633
0.061235
0.060819
0.060415
0.0600229
0.0596425
0.0592737
0.0589163
0.0585702
0.0582352
0.0579111
0.0575978
0.0572951
0.0570029
0.0567211
0.0564495
0.056188
0.0559364
0.0556946
0.0554626
0.0552401
0.055027
0.0548233
0.0546289
0.0544436
0.0542673
0.0540999
0.0539415
0.0537918
0.0536508
0.0535185
0.0533949
0.0532797
0.0531731
0.0530749
0.0529851
0.0529036
0.0528302
0.0527649
0.0527073
0.0526577
0.0526142
0.0525836
0.0525442
)
;
    }
    bottomWall
    {
        type            calculated;
        value           nonuniform List<scalar> 
449
(
0.138355
0.0952975
0.0898803
0.0895205
0.0896499
0.0896888
0.0896687
0.0896443
0.0896292
0.0896213
0.0896172
0.0896152
0.0896145
0.0896145
0.089615
0.0896156
0.0896164
0.0896171
0.0896178
0.0896185
0.0896191
0.0896196
0.0896201
0.0896206
0.089621
0.0896213
0.0896216
0.0896219
0.0896221
0.0896223
0.0896224
0.0896225
0.0896226
0.0896227
0.0896228
0.0896228
0.0896228
0.0896228
0.0896228
0.0896228
0.0896228
0.0896227
0.0896227
0.0896226
0.0896226
0.0896225
0.0896224
0.0896223
0.0896222
0.0896221
0.089622
0.0896219
0.0896218
0.0896217
0.0896215
0.0896214
0.0896213
0.0896211
0.089621
0.0896209
0.0896207
0.0896206
0.0896205
0.0896203
0.0896202
0.08962
0.0896199
0.0896197
0.0896196
0.0896194
0.0896193
0.0896191
0.089619
0.0896188
0.0896187
0.0896185
0.0896184
0.0896182
0.089618
0.0896179
0.0896177
0.0896176
0.0896174
0.0896173
0.0896171
0.0896169
0.0896168
0.0896166
0.0896165
0.0896163
0.0896161
0.089616
0.0896158
0.0896157
0.0896155
0.0896153
0.0896152
0.089615
0.0896149
0.0896147
0.0896145
0.0896144
0.0896142
0.0896141
0.0896139
0.0896137
0.0896136
0.0896134
0.0896133
0.0896131
0.089613
0.0896128
0.0896126
0.0896125
0.0896123
0.0896122
0.089612
0.0896119
0.0896117
0.0896115
0.0896114
0.0896112
0.0896111
0.0896109
0.0896108
0.0896106
0.0896105
0.0896103
0.0896101
0.08961
0.0896098
0.0896097
0.0896095
0.0896094
0.0896092
0.0896091
0.0896089
0.0896088
0.0896086
0.0896085
0.0896083
0.0896082
0.089608
0.0896079
0.0896077
0.0896076
0.0896074
0.0896073
0.0896071
0.089607
0.0896068
0.0896067
0.0896065
0.0896064
0.0896062
0.0896061
0.089606
0.0896058
0.0896057
0.0896055
0.0896054
0.0896052
0.0896051
0.0896049
0.0896048
0.0896047
0.0896045
0.0896044
0.0896042
0.0896041
0.089604
0.089604
0.0896036
0.0896062
0.0896081
0.089609
0.089609
0.0896085
0.089608
0.0896074
0.0896067
0.0896061
0.0896054
0.0896047
0.0896041
0.0896034
0.0896028
0.0896021
0.0896015
0.0896009
0.0896002
0.0895996
0.089599
0.0895984
0.0895978
0.0895972
0.0895966
0.0895961
0.0895955
0.0895949
0.0895944
0.0895938
0.0895933
0.0895927
0.0895922
0.0895917
0.0895911
0.0895906
0.0895901
0.0895896
0.0895891
0.0895886
0.0895881
0.0895876
0.0895872
0.0895867
0.0895862
0.0895857
0.0895853
0.0895848
0.0895844
0.0895839
0.0895835
0.0895831
0.0895826
0.0895822
0.0895818
0.0895814
0.089581
0.0895806
0.0895801
0.0895798
0.0895794
0.089579
0.0895786
0.0895782
0.0895778
0.0895775
0.0895771
0.0895767
0.0895764
0.089576
0.0895756
0.0895753
0.089575
0.0895746
0.0895743
0.0895739
0.0895736
0.0895733
0.089573
0.0895726
0.0895723
0.089572
0.0895717
0.0895714
0.0895711
0.0895708
0.0895705
0.0895702
0.0895699
0.0895696
0.0895693
0.0895691
0.0895688
0.0895685
0.0895682
0.089568
0.0895677
0.0895674
0.0895672
0.0895669
0.0895667
0.0895664
0.0895662
0.0895659
0.0895657
0.0895654
0.0895652
0.089565
0.0895647
0.0895645
0.0895643
0.089564
0.0895638
0.0895636
0.0895634
0.0895632
0.0895629
0.0895627
0.0895625
0.0895623
0.0895621
0.0895619
0.0895617
0.0895615
0.0895613
0.0895611
0.0895609
0.0895607
0.0895605
0.0895604
0.0895602
0.08956
0.0895598
0.0895596
0.0895595
0.0895593
0.0895591
0.0895589
0.0895588
0.0895586
0.0895584
0.0895583
0.0895581
0.089558
0.0895578
0.0895576
0.0895575
0.0895573
0.0895572
0.089557
0.0895569
0.0895567
0.0895566
0.0895565
0.0895563
0.0895562
0.089556
0.0895559
0.0895558
0.0895556
0.0895555
0.0895554
0.0895552
0.0895551
0.089555
0.0895549
0.0895547
0.0895546
0.0895545
0.0895544
0.0895542
0.0895541
0.089554
0.0895539
0.0895538
0.0895537
0.0895536
0.0895534
0.0895533
0.0895532
0.0895531
0.089553
0.0895514
0.0895511
0.0895511
0.0895511
0.0895511
0.0895511
0.0895511
0.0895511
0.0895511
0.0895511
0.0895511
0.0895511
0.0895511
0.0895511
0.0895511
0.0895511
0.0895511
0.0895511
0.0895511
0.0895511
0.0895511
0.0895511
0.0895511
0.0895511
0.0895511
0.0895511
0.0895511
0.0895511
0.0895511
0.0895511
0.0895511
0.0895511
0.0895511
0.0895511
0.0895511
0.0895511
0.0895511
0.0895511
0.0895511
0.0895511
0.0895511
0.0895511
0.0895511
0.0895511
0.0895511
0.0895511
0.0895511
0.0895511
0.0895511
0.0895511
0.0895511
0.0895511
0.0895511
0.0895511
0.0895511
0.0895511
0.0895511
0.0895511
0.0895511
0.0895511
0.0895511
0.0895511
0.0895511
0.0895511
0.0895511
0.0895511
0.0895511
0.0895511
0.0895511
0.0895511
0.0895511
0.0895511
0.0895511
0.0895511
0.0895511
0.0895511
0.0895511
0.0895511
0.0895511
0.0895511
0.0895511
0.0895511
0.0895511
0.0895511
0.0895511
0.0895511
0.0895511
0.0895511
0.0895511
0.0895511
0.0895511
0.0895511
0.0895511
0.0895511
0.0895511
)
;
    }
    symmetry
    {
        type            symmetryPlane;
    }
    frontAndBack
    {
        type            empty;
    }
}


// ************************************************************************* //
