/*--------------------------------*- C++ -*----------------------------------*\
| =========                 |                                                 |
| \\      /  F ield         | OpenFOAM: The Open Source CFD Toolbox           |
|  \\    /   O peration     | Version:  v2012                                 |
|   \\  /    A nd           | Website:  www.openfoam.com                      |
|    \\/     M anipulation  |                                                 |
\*---------------------------------------------------------------------------*/
FoamFile
{
    version     2.0;
    format      ascii;
    class       volVectorField;
    location    "57";
    object      wallShearStress;
}
// * * * * * * * * * * * * * * * * * * * * * * * * * * * * * * * * * * * * * //

dimensions      [0 2 -2 0 0 0 0];


internalField   uniform (0 0 0);

boundaryField
{
    inlet
    {
        type            calculated;
        value           uniform (0 0 0);
    }
    outlet
    {
        type            calculated;
        value           uniform (0 0 0);
    }
    topWall
    {
        type            calculated;
        value           nonuniform List<vector> 
545
(
(1.48729e-08 -1.04693e-08 0)
(1.48661e-08 -2.92891e-08 0)
(1.48523e-08 -4.88573e-08 0)
(1.48319e-08 -6.78517e-08 0)
(1.48057e-08 -8.60249e-08 0)
(1.47745e-08 -1.03608e-07 0)
(1.47386e-08 -1.2075e-07 0)
(1.46983e-08 -1.37441e-07 0)
(1.46541e-08 -1.53643e-07 0)
(1.46064e-08 -1.69354e-07 0)
(1.45556e-08 -1.84595e-07 0)
(1.45018e-08 -1.99384e-07 0)
(1.44456e-08 -2.1373e-07 0)
(1.43871e-08 -2.27643e-07 0)
(1.43267e-08 -2.41132e-07 0)
(1.42646e-08 -2.54209e-07 0)
(1.4201e-08 -2.66886e-07 0)
(1.41361e-08 -2.79172e-07 0)
(1.40702e-08 -2.9108e-07 0)
(1.40034e-08 -3.02619e-07 0)
(1.3936e-08 -3.13799e-07 0)
(1.3868e-08 -3.24633e-07 0)
(1.37997e-08 -3.35129e-07 0)
(1.37311e-08 -3.45297e-07 0)
(1.36625e-08 -3.55148e-07 0)
(1.35938e-08 -3.64691e-07 0)
(1.35253e-08 -3.73936e-07 0)
(1.3457e-08 -3.82892e-07 0)
(1.3389e-08 -3.91567e-07 0)
(1.33214e-08 -3.99971e-07 0)
(1.32543e-08 -4.08112e-07 0)
(1.31877e-08 -4.15999e-07 0)
(1.31217e-08 -4.23639e-07 0)
(1.30563e-08 -4.31041e-07 0)
(1.29917e-08 -4.38211e-07 0)
(1.29278e-08 -4.45158e-07 0)
(1.28647e-08 -4.51889e-07 0)
(1.28024e-08 -4.5841e-07 0)
(1.27409e-08 -4.64729e-07 0)
(1.26803e-08 -4.70852e-07 0)
(1.26207e-08 -4.76785e-07 0)
(1.25619e-08 -4.82535e-07 0)
(1.25041e-08 -4.88107e-07 0)
(1.24472e-08 -4.93507e-07 0)
(1.23913e-08 -4.98741e-07 0)
(1.23363e-08 -5.03815e-07 0)
(1.22823e-08 -5.08733e-07 0)
(1.22293e-08 -5.135e-07 0)
(1.21773e-08 -5.18122e-07 0)
(1.21262e-08 -5.22603e-07 0)
(1.20761e-08 -5.26947e-07 0)
(1.2027e-08 -5.3116e-07 0)
(1.19788e-08 -5.35245e-07 0)
(1.19316e-08 -5.39207e-07 0)
(1.18854e-08 -5.43049e-07 0)
(1.18401e-08 -5.46775e-07 0)
(1.17958e-08 -5.50389e-07 0)
(1.17523e-08 -5.53895e-07 0)
(1.17098e-08 -5.57296e-07 0)
(1.16682e-08 -5.60596e-07 0)
(1.16275e-08 -5.63797e-07 0)
(1.15877e-08 -5.66903e-07 0)
(1.15488e-08 -5.69917e-07 0)
(1.15107e-08 -5.72842e-07 0)
(1.14735e-08 -5.7568e-07 0)
(1.14371e-08 -5.78435e-07 0)
(1.14015e-08 -5.81108e-07 0)
(1.13668e-08 -5.83703e-07 0)
(1.13328e-08 -5.86222e-07 0)
(1.12996e-08 -5.88667e-07 0)
(1.12672e-08 -5.91042e-07 0)
(1.12357e-08 -5.93344e-07 0)
(1.12052e-08 -5.95556e-07 0)
(1.11751e-08 -5.977e-07 0)
(1.11454e-08 -5.99818e-07 0)
(1.11157e-08 -6.01923e-07 0)
(1.10862e-08 -6.04017e-07 0)
(1.10567e-08 -6.06095e-07 0)
(1.10272e-08 -6.08158e-07 0)
(1.09979e-08 -6.10206e-07 0)
(1.09685e-08 -6.12239e-07 0)
(1.09393e-08 -6.14257e-07 0)
(1.09101e-08 -6.16261e-07 0)
(1.08809e-08 -6.1825e-07 0)
(1.08518e-08 -6.20225e-07 0)
(1.08228e-08 -6.22185e-07 0)
(1.07939e-08 -6.24132e-07 0)
(1.0765e-08 -6.26064e-07 0)
(1.07362e-08 -6.27982e-07 0)
(1.07074e-08 -6.29887e-07 0)
(1.06787e-08 -6.31777e-07 0)
(1.06501e-08 -6.33654e-07 0)
(1.06215e-08 -6.35518e-07 0)
(1.05931e-08 -6.37366e-07 0)
(1.05644e-08 -6.39206e-07 0)
(1.05372e-08 -6.41013e-07 0)
(1.05121e-08 -6.42666e-07 0)
(1.04878e-08 -6.44162e-07 0)
(1.04644e-08 -6.45617e-07 0)
(1.04411e-08 -6.47078e-07 0)
(1.04178e-08 -6.4855e-07 0)
(1.03943e-08 -6.50025e-07 0)
(1.03708e-08 -6.51497e-07 0)
(1.03472e-08 -6.52968e-07 0)
(1.03235e-08 -6.54439e-07 0)
(1.02997e-08 -6.55911e-07 0)
(1.02758e-08 -6.57382e-07 0)
(1.02518e-08 -6.58854e-07 0)
(1.02277e-08 -6.60326e-07 0)
(1.02036e-08 -6.61798e-07 0)
(1.01793e-08 -6.6327e-07 0)
(1.01549e-08 -6.64741e-07 0)
(1.01305e-08 -6.66213e-07 0)
(1.01059e-08 -6.67684e-07 0)
(1.00813e-08 -6.69156e-07 0)
(1.00566e-08 -6.70627e-07 0)
(1.00317e-08 -6.72098e-07 0)
(1.00068e-08 -6.73569e-07 0)
(9.9818e-09 -6.7504e-07 0)
(9.95669e-09 -6.7651e-07 0)
(9.93148e-09 -6.77981e-07 0)
(9.90618e-09 -6.79451e-07 0)
(9.88079e-09 -6.8092e-07 0)
(9.8553e-09 -6.8239e-07 0)
(9.82972e-09 -6.83859e-07 0)
(9.80404e-09 -6.85328e-07 0)
(9.77826e-09 -6.86796e-07 0)
(9.7524e-09 -6.88264e-07 0)
(9.72643e-09 -6.89731e-07 0)
(9.70038e-09 -6.91198e-07 0)
(9.67422e-09 -6.92664e-07 0)
(9.64798e-09 -6.9413e-07 0)
(9.62163e-09 -6.95596e-07 0)
(9.5952e-09 -6.97061e-07 0)
(9.56866e-09 -6.98525e-07 0)
(9.54204e-09 -6.99988e-07 0)
(9.51532e-09 -7.01451e-07 0)
(9.4885e-09 -7.02914e-07 0)
(9.46159e-09 -7.04375e-07 0)
(9.43458e-09 -7.05836e-07 0)
(9.40748e-09 -7.07296e-07 0)
(9.38028e-09 -7.08756e-07 0)
(9.35299e-09 -7.10214e-07 0)
(9.32561e-09 -7.11672e-07 0)
(9.29813e-09 -7.13129e-07 0)
(9.27055e-09 -7.14585e-07 0)
(9.24288e-09 -7.1604e-07 0)
(9.21511e-09 -7.17494e-07 0)
(9.18725e-09 -7.18947e-07 0)
(9.1593e-09 -7.20399e-07 0)
(9.13125e-09 -7.2185e-07 0)
(9.10311e-09 -7.23301e-07 0)
(9.07487e-09 -7.2475e-07 0)
(9.04654e-09 -7.26198e-07 0)
(9.01811e-09 -7.27644e-07 0)
(8.98959e-09 -7.2909e-07 0)
(8.96098e-09 -7.30535e-07 0)
(8.93227e-09 -7.31978e-07 0)
(8.90347e-09 -7.3342e-07 0)
(8.87458e-09 -7.34861e-07 0)
(8.84559e-09 -7.363e-07 0)
(8.8165e-09 -7.37738e-07 0)
(8.78733e-09 -7.39175e-07 0)
(8.75806e-09 -7.4061e-07 0)
(8.7287e-09 -7.42044e-07 0)
(8.69924e-09 -7.43476e-07 0)
(8.66969e-09 -7.44907e-07 0)
(8.64005e-09 -7.46337e-07 0)
(8.61032e-09 -7.47765e-07 0)
(8.58049e-09 -7.49191e-07 0)
(8.55058e-09 -7.50616e-07 0)
(8.52057e-09 -7.52039e-07 0)
(8.49046e-09 -7.5346e-07 0)
(8.46027e-09 -7.5488e-07 0)
(8.42999e-09 -7.56298e-07 0)
(8.39961e-09 -7.57714e-07 0)
(8.36914e-09 -7.59129e-07 0)
(8.33858e-09 -7.60541e-07 0)
(8.30794e-09 -7.61952e-07 0)
(8.2772e-09 -7.63361e-07 0)
(8.24637e-09 -7.64768e-07 0)
(8.21545e-09 -7.66173e-07 0)
(8.18444e-09 -7.67576e-07 0)
(8.15334e-09 -7.68977e-07 0)
(8.12215e-09 -7.70376e-07 0)
(8.09087e-09 -7.71773e-07 0)
(8.05951e-09 -7.73168e-07 0)
(8.02806e-09 -7.7456e-07 0)
(7.99651e-09 -7.75951e-07 0)
(7.96488e-09 -7.77339e-07 0)
(7.93317e-09 -7.78725e-07 0)
(7.90136e-09 -7.80108e-07 0)
(7.86947e-09 -7.8149e-07 0)
(7.83749e-09 -7.82869e-07 0)
(7.80542e-09 -7.84245e-07 0)
(7.77327e-09 -7.8562e-07 0)
(7.74104e-09 -7.86991e-07 0)
(7.70871e-09 -7.88361e-07 0)
(7.67631e-09 -7.89727e-07 0)
(7.64381e-09 -7.91091e-07 0)
(7.61124e-09 -7.92453e-07 0)
(7.57858e-09 -7.93812e-07 0)
(7.54583e-09 -7.95168e-07 0)
(7.51301e-09 -7.96522e-07 0)
(7.4801e-09 -7.97873e-07 0)
(7.44711e-09 -7.99221e-07 0)
(7.41403e-09 -8.00566e-07 0)
(7.38088e-09 -8.01909e-07 0)
(7.34764e-09 -8.03248e-07 0)
(7.31432e-09 -8.04585e-07 0)
(7.28092e-09 -8.05919e-07 0)
(7.24745e-09 -8.07249e-07 0)
(7.21389e-09 -8.08577e-07 0)
(7.18025e-09 -8.09902e-07 0)
(7.14654e-09 -8.11223e-07 0)
(7.11275e-09 -8.12542e-07 0)
(7.07888e-09 -8.13857e-07 0)
(7.04493e-09 -8.15169e-07 0)
(7.0109e-09 -8.16478e-07 0)
(6.9768e-09 -8.17783e-07 0)
(6.94263e-09 -8.19086e-07 0)
(6.90838e-09 -8.20385e-07 0)
(6.87405e-09 -8.2168e-07 0)
(6.83965e-09 -8.22972e-07 0)
(6.80518e-09 -8.24261e-07 0)
(6.77064e-09 -8.25546e-07 0)
(6.73602e-09 -8.26828e-07 0)
(6.70133e-09 -8.28106e-07 0)
(6.66657e-09 -8.2938e-07 0)
(6.63174e-09 -8.30651e-07 0)
(6.59684e-09 -8.31918e-07 0)
(6.56187e-09 -8.33181e-07 0)
(6.52683e-09 -8.34441e-07 0)
(6.49172e-09 -8.35697e-07 0)
(6.45654e-09 -8.36949e-07 0)
(6.4213e-09 -8.38197e-07 0)
(6.38599e-09 -8.39441e-07 0)
(6.35062e-09 -8.40681e-07 0)
(6.31518e-09 -8.41917e-07 0)
(6.27968e-09 -8.43149e-07 0)
(6.24411e-09 -8.44378e-07 0)
(6.20848e-09 -8.45602e-07 0)
(6.17279e-09 -8.46822e-07 0)
(6.13703e-09 -8.48037e-07 0)
(6.10122e-09 -8.49249e-07 0)
(6.06534e-09 -8.50456e-07 0)
(6.02941e-09 -8.51659e-07 0)
(5.99342e-09 -8.52857e-07 0)
(5.95736e-09 -8.54052e-07 0)
(5.92126e-09 -8.55241e-07 0)
(5.88509e-09 -8.56427e-07 0)
(5.84887e-09 -8.57608e-07 0)
(5.81259e-09 -8.58784e-07 0)
(5.77627e-09 -8.59956e-07 0)
(5.73988e-09 -8.61123e-07 0)
(5.70345e-09 -8.62285e-07 0)
(5.66696e-09 -8.63443e-07 0)
(5.63042e-09 -8.64596e-07 0)
(5.59383e-09 -8.65745e-07 0)
(5.55719e-09 -8.66888e-07 0)
(5.52051e-09 -8.68027e-07 0)
(5.48377e-09 -8.6916e-07 0)
(5.44699e-09 -8.70289e-07 0)
(5.41017e-09 -8.71413e-07 0)
(5.3733e-09 -8.72532e-07 0)
(5.33637e-09 -8.73646e-07 0)
(5.29946e-09 -8.74754e-07 0)
(5.26224e-09 -8.75859e-07 0)
(5.22611e-09 -8.76952e-07 0)
(5.1915e-09 -8.77988e-07 0)
(5.1574e-09 -8.78969e-07 0)
(5.12372e-09 -8.79939e-07 0)
(5.0899e-09 -8.80915e-07 0)
(5.05579e-09 -8.81899e-07 0)
(5.02136e-09 -8.82889e-07 0)
(4.98661e-09 -8.83881e-07 0)
(4.95153e-09 -8.84876e-07 0)
(4.91611e-09 -8.85875e-07 0)
(4.88036e-09 -8.86878e-07 0)
(4.84428e-09 -8.87884e-07 0)
(4.80785e-09 -8.88894e-07 0)
(4.77109e-09 -8.89907e-07 0)
(4.73399e-09 -8.90923e-07 0)
(4.69654e-09 -8.91942e-07 0)
(4.65875e-09 -8.92964e-07 0)
(4.62061e-09 -8.93988e-07 0)
(4.58212e-09 -8.95015e-07 0)
(4.54329e-09 -8.96045e-07 0)
(4.5041e-09 -8.97077e-07 0)
(4.46456e-09 -8.98111e-07 0)
(4.42467e-09 -8.99147e-07 0)
(4.38443e-09 -9.00184e-07 0)
(4.34383e-09 -9.01224e-07 0)
(4.30287e-09 -9.02264e-07 0)
(4.26156e-09 -9.03307e-07 0)
(4.21989e-09 -9.0435e-07 0)
(4.17786e-09 -9.05394e-07 0)
(4.13546e-09 -9.06439e-07 0)
(4.09271e-09 -9.07484e-07 0)
(4.0496e-09 -9.0853e-07 0)
(4.00613e-09 -9.09576e-07 0)
(3.96229e-09 -9.10622e-07 0)
(3.91809e-09 -9.11667e-07 0)
(3.87353e-09 -9.12712e-07 0)
(3.82861e-09 -9.13756e-07 0)
(3.78332e-09 -9.14799e-07 0)
(3.73767e-09 -9.15841e-07 0)
(3.69166e-09 -9.16881e-07 0)
(3.64529e-09 -9.1792e-07 0)
(3.59856e-09 -9.18956e-07 0)
(3.55147e-09 -9.1999e-07 0)
(3.50402e-09 -9.21022e-07 0)
(3.45621e-09 -9.2205e-07 0)
(3.40804e-09 -9.23076e-07 0)
(3.35952e-09 -9.24098e-07 0)
(3.31064e-09 -9.25116e-07 0)
(3.26141e-09 -9.2613e-07 0)
(3.21183e-09 -9.2714e-07 0)
(3.1619e-09 -9.28145e-07 0)
(3.11162e-09 -9.29145e-07 0)
(3.061e-09 -9.30139e-07 0)
(3.01003e-09 -9.31128e-07 0)
(2.95872e-09 -9.32111e-07 0)
(2.90708e-09 -9.33087e-07 0)
(2.8551e-09 -9.34056e-07 0)
(2.80279e-09 -9.35018e-07 0)
(2.75016e-09 -9.35973e-07 0)
(2.6972e-09 -9.36919e-07 0)
(2.64392e-09 -9.37857e-07 0)
(2.59032e-09 -9.38787e-07 0)
(2.53641e-09 -9.39707e-07 0)
(2.4822e-09 -9.40617e-07 0)
(2.42768e-09 -9.41517e-07 0)
(2.37287e-09 -9.42407e-07 0)
(2.31776e-09 -9.43286e-07 0)
(2.26237e-09 -9.44154e-07 0)
(2.2067e-09 -9.45009e-07 0)
(2.15075e-09 -9.45852e-07 0)
(2.09453e-09 -9.46683e-07 0)
(2.03806e-09 -9.475e-07 0)
(1.98132e-09 -9.48303e-07 0)
(1.92435e-09 -9.49093e-07 0)
(1.86713e-09 -9.49867e-07 0)
(1.80967e-09 -9.50626e-07 0)
(1.752e-09 -9.51369e-07 0)
(1.6941e-09 -9.52096e-07 0)
(1.636e-09 -9.52806e-07 0)
(1.57771e-09 -9.53498e-07 0)
(1.51922e-09 -9.54173e-07 0)
(1.46055e-09 -9.54829e-07 0)
(1.40171e-09 -9.55466e-07 0)
(1.34272e-09 -9.56083e-07 0)
(1.28357e-09 -9.5668e-07 0)
(1.22429e-09 -9.57256e-07 0)
(1.16488e-09 -9.57811e-07 0)
(1.10535e-09 -9.58344e-07 0)
(1.04572e-09 -9.58855e-07 0)
(9.86004e-10 -9.59342e-07 0)
(9.26206e-10 -9.59805e-07 0)
(8.66342e-10 -9.60244e-07 0)
(8.06425e-10 -9.60658e-07 0)
(7.4647e-10 -9.61047e-07 0)
(6.86489e-10 -9.61409e-07 0)
(6.26498e-10 -9.61744e-07 0)
(5.66511e-10 -9.62052e-07 0)
(5.06542e-10 -9.62332e-07 0)
(4.46608e-10 -9.62583e-07 0)
(3.86723e-10 -9.62804e-07 0)
(3.26904e-10 -9.62996e-07 0)
(2.67167e-10 -9.63157e-07 0)
(2.07528e-10 -9.63286e-07 0)
(1.48004e-10 -9.63384e-07 0)
(8.86127e-11 -9.63449e-07 0)
(2.93715e-11 -9.63481e-07 0)
(-2.97019e-11 -9.63479e-07 0)
(-8.85894e-11 -9.63442e-07 0)
(-1.47273e-10 -9.63371e-07 0)
(-2.05733e-10 -9.63263e-07 0)
(-2.63951e-10 -9.63119e-07 0)
(-3.21909e-10 -9.62939e-07 0)
(-3.79586e-10 -9.6272e-07 0)
(-4.36963e-10 -9.62463e-07 0)
(-4.94019e-10 -9.62168e-07 0)
(-5.50736e-10 -9.61833e-07 0)
(-6.07092e-10 -9.61458e-07 0)
(-6.63068e-10 -9.61042e-07 0)
(-7.18641e-10 -9.60585e-07 0)
(-7.73793e-10 -9.60087e-07 0)
(-8.28501e-10 -9.59546e-07 0)
(-8.82745e-10 -9.58962e-07 0)
(-9.36503e-10 -9.58334e-07 0)
(-9.89754e-10 -9.57663e-07 0)
(-1.04248e-09 -9.56947e-07 0)
(-1.09465e-09 -9.56186e-07 0)
(-1.14625e-09 -9.5538e-07 0)
(-1.19726e-09 -9.54527e-07 0)
(-1.24766e-09 -9.53628e-07 0)
(-1.29742e-09 -9.52683e-07 0)
(-1.34652e-09 -9.5169e-07 0)
(-1.39495e-09 -9.50649e-07 0)
(-1.44268e-09 -9.4956e-07 0)
(-1.48969e-09 -9.48423e-07 0)
(-1.53595e-09 -9.47237e-07 0)
(-1.58146e-09 -9.46001e-07 0)
(-1.62618e-09 -9.44716e-07 0)
(-1.67011e-09 -9.43382e-07 0)
(-1.71321e-09 -9.41997e-07 0)
(-1.75546e-09 -9.40562e-07 0)
(-1.79686e-09 -9.39077e-07 0)
(-1.83738e-09 -9.37541e-07 0)
(-1.877e-09 -9.35954e-07 0)
(-1.9157e-09 -9.34316e-07 0)
(-1.95347e-09 -9.32627e-07 0)
(-1.99028e-09 -9.30887e-07 0)
(-2.02613e-09 -9.29095e-07 0)
(-2.06099e-09 -9.27252e-07 0)
(-2.09485e-09 -9.25358e-07 0)
(-2.12769e-09 -9.23413e-07 0)
(-2.1595e-09 -9.21416e-07 0)
(-2.19026e-09 -9.19369e-07 0)
(-2.21997e-09 -9.1727e-07 0)
(-2.2486e-09 -9.15121e-07 0)
(-2.27615e-09 -9.12921e-07 0)
(-2.30261e-09 -9.10671e-07 0)
(-2.32795e-09 -9.0837e-07 0)
(-2.35218e-09 -9.0602e-07 0)
(-2.37528e-09 -9.0362e-07 0)
(-2.39725e-09 -9.01171e-07 0)
(-2.41808e-09 -8.98673e-07 0)
(-2.43776e-09 -8.96127e-07 0)
(-2.45628e-09 -8.93533e-07 0)
(-2.47364e-09 -8.90892e-07 0)
(-2.48983e-09 -8.88204e-07 0)
(-2.50486e-09 -8.8547e-07 0)
(-2.51871e-09 -8.8269e-07 0)
(-2.53139e-09 -8.79865e-07 0)
(-2.5429e-09 -8.76995e-07 0)
(-2.55323e-09 -8.74083e-07 0)
(-2.56239e-09 -8.71127e-07 0)
(-2.57037e-09 -8.68129e-07 0)
(-2.57719e-09 -8.6509e-07 0)
(-2.58283e-09 -8.6201e-07 0)
(-2.58732e-09 -8.58891e-07 0)
(-2.59065e-09 -8.55733e-07 0)
(-2.59282e-09 -8.52538e-07 0)
(-2.59385e-09 -8.49306e-07 0)
(-2.59375e-09 -8.46039e-07 0)
(-2.5925e-09 -8.42734e-07 0)
(-2.59019e-09 -8.39403e-07 0)
(-2.58654e-09 -8.35998e-07 0)
(-2.58129e-09 -8.32239e-07 0)
(-2.5744e-09 -8.28122e-07 0)
(-2.56587e-09 -8.23933e-07 0)
(-2.55587e-09 -8.19767e-07 0)
(-2.54456e-09 -8.15643e-07 0)
(-2.53203e-09 -8.11542e-07 0)
(-2.51834e-09 -8.07458e-07 0)
(-2.50355e-09 -8.03394e-07 0)
(-2.48773e-09 -7.99355e-07 0)
(-2.47093e-09 -7.95343e-07 0)
(-2.45322e-09 -7.9136e-07 0)
(-2.43465e-09 -7.87405e-07 0)
(-2.41527e-09 -7.83482e-07 0)
(-2.39513e-09 -7.7959e-07 0)
(-2.37428e-09 -7.75732e-07 0)
(-2.35276e-09 -7.71908e-07 0)
(-2.33063e-09 -7.6812e-07 0)
(-2.3079e-09 -7.64367e-07 0)
(-2.28464e-09 -7.60652e-07 0)
(-2.26086e-09 -7.56975e-07 0)
(-2.23661e-09 -7.53337e-07 0)
(-2.21192e-09 -7.49739e-07 0)
(-2.18681e-09 -7.46181e-07 0)
(-2.16132e-09 -7.42664e-07 0)
(-2.13547e-09 -7.39188e-07 0)
(-2.10929e-09 -7.35755e-07 0)
(-2.08279e-09 -7.32364e-07 0)
(-2.05601e-09 -7.29016e-07 0)
(-2.02897e-09 -7.25712e-07 0)
(-2.00167e-09 -7.22452e-07 0)
(-1.97414e-09 -7.19236e-07 0)
(-1.9464e-09 -7.16065e-07 0)
(-1.91846e-09 -7.12939e-07 0)
(-1.89033e-09 -7.09858e-07 0)
(-1.86203e-09 -7.06823e-07 0)
(-1.83357e-09 -7.03834e-07 0)
(-1.80495e-09 -7.00891e-07 0)
(-1.7762e-09 -6.97995e-07 0)
(-1.74732e-09 -6.95145e-07 0)
(-1.71831e-09 -6.92342e-07 0)
(-1.68919e-09 -6.89586e-07 0)
(-1.65995e-09 -6.86877e-07 0)
(-1.63062e-09 -6.84215e-07 0)
(-1.60119e-09 -6.81601e-07 0)
(-1.57166e-09 -6.79035e-07 0)
(-1.54204e-09 -6.76517e-07 0)
(-1.51234e-09 -6.74046e-07 0)
(-1.48256e-09 -6.71624e-07 0)
(-1.4527e-09 -6.6925e-07 0)
(-1.42276e-09 -6.66924e-07 0)
(-1.39275e-09 -6.64647e-07 0)
(-1.36266e-09 -6.62419e-07 0)
(-1.3325e-09 -6.60239e-07 0)
(-1.30227e-09 -6.58108e-07 0)
(-1.27197e-09 -6.56026e-07 0)
(-1.24161e-09 -6.53993e-07 0)
(-1.21117e-09 -6.52009e-07 0)
(-1.18067e-09 -6.50074e-07 0)
(-1.1501e-09 -6.48189e-07 0)
(-1.11946e-09 -6.46353e-07 0)
(-1.08876e-09 -6.44567e-07 0)
(-1.05799e-09 -6.42831e-07 0)
(-1.02715e-09 -6.41145e-07 0)
(-9.96246e-10 -6.39508e-07 0)
(-9.65276e-10 -6.37922e-07 0)
(-9.34241e-10 -6.36385e-07 0)
(-9.0314e-10 -6.34899e-07 0)
(-8.71974e-10 -6.33463e-07 0)
(-8.40743e-10 -6.32078e-07 0)
(-8.09448e-10 -6.30743e-07 0)
(-7.7809e-10 -6.29459e-07 0)
(-7.4667e-10 -6.28226e-07 0)
(-7.15188e-10 -6.27044e-07 0)
(-6.83646e-10 -6.25912e-07 0)
(-6.52044e-10 -6.24832e-07 0)
(-6.20385e-10 -6.23803e-07 0)
(-5.8867e-10 -6.22825e-07 0)
(-5.569e-10 -6.21898e-07 0)
(-5.25078e-10 -6.21023e-07 0)
(-4.93205e-10 -6.202e-07 0)
(-4.61284e-10 -6.19428e-07 0)
(-4.29316e-10 -6.18707e-07 0)
(-3.97305e-10 -6.18038e-07 0)
(-3.65254e-10 -6.17422e-07 0)
(-3.33163e-10 -6.16856e-07 0)
(-3.01038e-10 -6.16347e-07 0)
(-2.68879e-10 -6.15873e-07 0)
(-2.36697e-10 -6.15507e-07 0)
(-2.04469e-10 -6.15007e-07 0)
(-1.72282e-10 -6.15169e-07 0)
(-1.3987e-10 -6.13319e-07 0)
(-1.0813e-10 -6.18108e-07 0)
(-7.42048e-11 -5.99464e-07 0)
(-4.79048e-11 -6.48592e-07 0)
(-2.00743e-11 -5.66448e-07 0)
)
;
    }
    bottomWall
    {
        type            calculated;
        value           nonuniform List<vector> 
449
(
(-48.5205 -0.963939 0)
(-19.747 -0.00515404 0)
(-14.3405 -0.00113461 0)
(-12.0312 -0.00054541 0)
(-10.6253 -0.000351456 0)
(-9.63164 -0.000255966 0)
(-8.87365 -0.000198464 0)
(-8.27021 -0.000159798 0)
(-7.77484 -0.000132311 0)
(-7.35825 -0.000111966 0)
(-7.00128 -9.63676e-05 0)
(-6.69089 -8.40621e-05 0)
(-6.41777 -7.41453e-05 0)
(-6.17499 -6.60187e-05 0)
(-5.95733 -5.92625e-05 0)
(-5.7607 -5.35737e-05 0)
(-5.58192 -4.873e-05 0)
(-5.41843 -4.45656e-05 0)
(-5.26815 -4.09545e-05 0)
(-5.1294 -3.77992e-05 0)
(-5.00077 -3.50232e-05 0)
(-4.88107 -3.25658e-05 0)
(-4.76932 -3.0378e-05 0)
(-4.66466 -2.84203e-05 0)
(-4.56637 -2.66602e-05 0)
(-4.47383 -2.50711e-05 0)
(-4.38649 -2.36306e-05 0)
(-4.30389 -2.23199e-05 0)
(-4.2256 -2.11234e-05 0)
(-4.15126 -2.00276e-05 0)
(-4.08055 -1.90211e-05 0)
(-4.01317 -1.80941e-05 0)
(-3.94888 -1.72381e-05 0)
(-3.88744 -1.64456e-05 0)
(-3.82864 -1.57104e-05 0)
(-3.7723 -1.50269e-05 0)
(-3.71825 -1.439e-05 0)
(-3.66635 -1.37956e-05 0)
(-3.61644 -1.32397e-05 0)
(-3.5684 -1.27189e-05 0)
(-3.52212 -1.22303e-05 0)
(-3.47749 -1.17712e-05 0)
(-3.43442 -1.13391e-05 0)
(-3.39281 -1.09318e-05 0)
(-3.35258 -1.05475e-05 0)
(-3.31367 -1.01843e-05 0)
(-3.27599 -9.84076e-06 0)
(-3.23948 -9.51533e-06 0)
(-3.20408 -9.20674e-06 0)
(-3.16974 -8.91381e-06 0)
(-3.13641 -8.63544e-06 0)
(-3.10402 -8.37065e-06 0)
(-3.07255 -8.11854e-06 0)
(-3.04195 -7.87829e-06 0)
(-3.01217 -7.64912e-06 0)
(-2.98318 -7.43035e-06 0)
(-2.95495 -7.22133e-06 0)
(-2.92744 -7.02147e-06 0)
(-2.90063 -6.83022e-06 0)
(-2.87447 -6.64707e-06 0)
(-2.84896 -6.47156e-06 0)
(-2.82405 -6.30325e-06 0)
(-2.79973 -6.14173e-06 0)
(-2.77597 -5.98664e-06 0)
(-2.75275 -5.83763e-06 0)
(-2.73005 -5.69436e-06 0)
(-2.70785 -5.55654e-06 0)
(-2.68614 -5.42388e-06 0)
(-2.66489 -5.29613e-06 0)
(-2.64409 -5.17302e-06 0)
(-2.62372 -5.05434e-06 0)
(-2.60376 -4.93986e-06 0)
(-2.58421 -4.82939e-06 0)
(-2.56505 -4.72272e-06 0)
(-2.54627 -4.61968e-06 0)
(-2.52785 -4.52011e-06 0)
(-2.50978 -4.42384e-06 0)
(-2.49206 -4.33072e-06 0)
(-2.47466 -4.24062e-06 0)
(-2.45758 -4.15339e-06 0)
(-2.44081 -4.06892e-06 0)
(-2.42435 -3.98708e-06 0)
(-2.40817 -3.90777e-06 0)
(-2.39228 -3.83087e-06 0)
(-2.37666 -3.75629e-06 0)
(-2.3613 -3.68393e-06 0)
(-2.34621 -3.6137e-06 0)
(-2.33137 -3.54552e-06 0)
(-2.31677 -3.4793e-06 0)
(-2.30241 -3.41496e-06 0)
(-2.28828 -3.35244e-06 0)
(-2.27437 -3.29167e-06 0)
(-2.26068 -3.23257e-06 0)
(-2.24721 -3.17508e-06 0)
(-2.23394 -3.11915e-06 0)
(-2.22088 -3.06471e-06 0)
(-2.20801 -3.01172e-06 0)
(-2.19533 -2.96011e-06 0)
(-2.18284 -2.90985e-06 0)
(-2.17053 -2.86088e-06 0)
(-2.1584 -2.81315e-06 0)
(-2.14645 -2.76663e-06 0)
(-2.13466 -2.72128e-06 0)
(-2.12304 -2.67704e-06 0)
(-2.11157 -2.63389e-06 0)
(-2.10027 -2.59179e-06 0)
(-2.08912 -2.55071e-06 0)
(-2.07812 -2.5106e-06 0)
(-2.06726 -2.47144e-06 0)
(-2.05655 -2.43321e-06 0)
(-2.04598 -2.39586e-06 0)
(-2.03555 -2.35937e-06 0)
(-2.02525 -2.32371e-06 0)
(-2.01508 -2.28887e-06 0)
(-2.00504 -2.2548e-06 0)
(-1.99513 -2.2215e-06 0)
(-1.98534 -2.18893e-06 0)
(-1.97567 -2.15708e-06 0)
(-1.96611 -2.12591e-06 0)
(-1.95667 -2.09542e-06 0)
(-1.94735 -2.06559e-06 0)
(-1.93813 -2.03638e-06 0)
(-1.92903 -2.00779e-06 0)
(-1.92003 -1.9798e-06 0)
(-1.91113 -1.95239e-06 0)
(-1.90234 -1.92554e-06 0)
(-1.89364 -1.89925e-06 0)
(-1.88505 -1.87348e-06 0)
(-1.87655 -1.84823e-06 0)
(-1.86814 -1.82349e-06 0)
(-1.85983 -1.79924e-06 0)
(-1.85161 -1.77546e-06 0)
(-1.84347 -1.75215e-06 0)
(-1.83543 -1.7293e-06 0)
(-1.82747 -1.70688e-06 0)
(-1.81959 -1.68489e-06 0)
(-1.8118 -1.66332e-06 0)
(-1.80409 -1.64216e-06 0)
(-1.79646 -1.62139e-06 0)
(-1.78891 -1.60101e-06 0)
(-1.78143 -1.58101e-06 0)
(-1.77403 -1.56137e-06 0)
(-1.7667 -1.54209e-06 0)
(-1.75945 -1.52316e-06 0)
(-1.75227 -1.50457e-06 0)
(-1.74516 -1.48632e-06 0)
(-1.73812 -1.46839e-06 0)
(-1.73115 -1.45077e-06 0)
(-1.72424 -1.43347e-06 0)
(-1.7174 -1.41646e-06 0)
(-1.71063 -1.39975e-06 0)
(-1.70392 -1.38333e-06 0)
(-1.69727 -1.36719e-06 0)
(-1.69069 -1.35132e-06 0)
(-1.68416 -1.33572e-06 0)
(-1.6777 -1.32039e-06 0)
(-1.67129 -1.30531e-06 0)
(-1.66494 -1.29048e-06 0)
(-1.65865 -1.27589e-06 0)
(-1.65242 -1.26155e-06 0)
(-1.64624 -1.24743e-06 0)
(-1.64011 -1.23355e-06 0)
(-1.63404 -1.21989e-06 0)
(-1.62802 -1.20645e-06 0)
(-1.62206 -1.19323e-06 0)
(-1.61614 -1.18022e-06 0)
(-1.61028 -1.1674e-06 0)
(-1.60447 -1.1548e-06 0)
(-1.5987 -1.14242e-06 0)
(-1.59298 -1.13009e-06 0)
(-1.58731 -1.1184e-06 0)
(-1.58169 -1.10631e-06 0)
(-1.57612 -1.09317e-06 0)
(-1.5709 -1.08299e-06 0)
(-1.566 -1.07476e-06 0)
(-1.56109 -1.06441e-06 0)
(-1.55617 -1.05373e-06 0)
(-1.55125 -1.04372e-06 0)
(-1.54633 -1.03368e-06 0)
(-1.54139 -1.02377e-06 0)
(-1.53646 -1.01391e-06 0)
(-1.53151 -1.00413e-06 0)
(-1.52656 -9.94398e-07 0)
(-1.52161 -9.84728e-07 0)
(-1.51665 -9.75114e-07 0)
(-1.51169 -9.65557e-07 0)
(-1.50672 -9.56054e-07 0)
(-1.50174 -9.46606e-07 0)
(-1.49677 -9.37214e-07 0)
(-1.49178 -9.27877e-07 0)
(-1.4868 -9.18595e-07 0)
(-1.48181 -9.09369e-07 0)
(-1.47682 -9.00198e-07 0)
(-1.47182 -8.91084e-07 0)
(-1.46682 -8.82026e-07 0)
(-1.46182 -8.73024e-07 0)
(-1.45682 -8.64079e-07 0)
(-1.45181 -8.55191e-07 0)
(-1.4468 -8.4636e-07 0)
(-1.44179 -8.37586e-07 0)
(-1.43678 -8.2887e-07 0)
(-1.43176 -8.20212e-07 0)
(-1.42674 -8.11612e-07 0)
(-1.42173 -8.0307e-07 0)
(-1.41671 -7.94586e-07 0)
(-1.41169 -7.86161e-07 0)
(-1.40667 -7.77794e-07 0)
(-1.40165 -7.69486e-07 0)
(-1.39663 -7.61237e-07 0)
(-1.39161 -7.53047e-07 0)
(-1.38659 -7.44916e-07 0)
(-1.38157 -7.36845e-07 0)
(-1.37655 -7.28832e-07 0)
(-1.37153 -7.20879e-07 0)
(-1.36651 -7.12986e-07 0)
(-1.36149 -7.05152e-07 0)
(-1.35647 -6.97377e-07 0)
(-1.35146 -6.89662e-07 0)
(-1.34645 -6.82007e-07 0)
(-1.34144 -6.74411e-07 0)
(-1.33643 -6.66875e-07 0)
(-1.33142 -6.59399e-07 0)
(-1.32642 -6.51982e-07 0)
(-1.32142 -6.44625e-07 0)
(-1.31642 -6.37327e-07 0)
(-1.31142 -6.30089e-07 0)
(-1.30643 -6.2291e-07 0)
(-1.30144 -6.15791e-07 0)
(-1.29645 -6.08731e-07 0)
(-1.29147 -6.0173e-07 0)
(-1.28649 -5.94789e-07 0)
(-1.28152 -5.87906e-07 0)
(-1.27655 -5.81083e-07 0)
(-1.27158 -5.74318e-07 0)
(-1.26662 -5.67613e-07 0)
(-1.26166 -5.60966e-07 0)
(-1.25671 -5.54377e-07 0)
(-1.25177 -5.47847e-07 0)
(-1.24683 -5.41375e-07 0)
(-1.24189 -5.34961e-07 0)
(-1.23696 -5.28605e-07 0)
(-1.23203 -5.22307e-07 0)
(-1.22712 -5.16067e-07 0)
(-1.2222 -5.09884e-07 0)
(-1.2173 -5.03758e-07 0)
(-1.2124 -4.97689e-07 0)
(-1.2075 -4.91677e-07 0)
(-1.20262 -4.85722e-07 0)
(-1.19774 -4.79823e-07 0)
(-1.19286 -4.7398e-07 0)
(-1.188 -4.68194e-07 0)
(-1.18314 -4.62463e-07 0)
(-1.17829 -4.56787e-07 0)
(-1.17344 -4.51167e-07 0)
(-1.1686 -4.45602e-07 0)
(-1.16378 -4.40092e-07 0)
(-1.15896 -4.34636e-07 0)
(-1.15414 -4.29234e-07 0)
(-1.14934 -4.23887e-07 0)
(-1.14454 -4.18593e-07 0)
(-1.13976 -4.13353e-07 0)
(-1.13498 -4.08166e-07 0)
(-1.13021 -4.03032e-07 0)
(-1.12545 -3.9795e-07 0)
(-1.12069 -3.92921e-07 0)
(-1.11595 -3.87944e-07 0)
(-1.11122 -3.83018e-07 0)
(-1.10649 -3.78144e-07 0)
(-1.10178 -3.73322e-07 0)
(-1.09707 -3.6855e-07 0)
(-1.09238 -3.63828e-07 0)
(-1.08769 -3.59157e-07 0)
(-1.08301 -3.54536e-07 0)
(-1.07835 -3.49964e-07 0)
(-1.07369 -3.45441e-07 0)
(-1.06905 -3.40968e-07 0)
(-1.06441 -3.36543e-07 0)
(-1.05979 -3.32166e-07 0)
(-1.05517 -3.27838e-07 0)
(-1.05057 -3.23557e-07 0)
(-1.04598 -3.19323e-07 0)
(-1.0414 -3.15136e-07 0)
(-1.03683 -3.10996e-07 0)
(-1.03227 -3.06902e-07 0)
(-1.02772 -3.02854e-07 0)
(-1.02318 -2.98852e-07 0)
(-1.01866 -2.94895e-07 0)
(-1.01414 -2.90983e-07 0)
(-1.00964 -2.87115e-07 0)
(-1.00515 -2.83292e-07 0)
(-1.00067 -2.79512e-07 0)
(-0.996202 -2.75776e-07 0)
(-0.991746 -2.72084e-07 0)
(-0.987302 -2.68434e-07 0)
(-0.982871 -2.64826e-07 0)
(-0.978451 -2.61261e-07 0)
(-0.974043 -2.57737e-07 0)
(-0.969648 -2.54255e-07 0)
(-0.965265 -2.50814e-07 0)
(-0.960895 -2.47414e-07 0)
(-0.956536 -2.44054e-07 0)
(-0.952191 -2.40734e-07 0)
(-0.947858 -2.37454e-07 0)
(-0.943537 -2.34213e-07 0)
(-0.93923 -2.31011e-07 0)
(-0.934935 -2.27848e-07 0)
(-0.930652 -2.24723e-07 0)
(-0.926383 -2.21636e-07 0)
(-0.922127 -2.18587e-07 0)
(-0.917883 -2.15575e-07 0)
(-0.913653 -2.12599e-07 0)
(-0.909436 -2.09661e-07 0)
(-0.905232 -2.06758e-07 0)
(-0.901041 -2.03891e-07 0)
(-0.896863 -2.0106e-07 0)
(-0.892699 -1.98264e-07 0)
(-0.888548 -1.95503e-07 0)
(-0.88441 -1.92776e-07 0)
(-0.880286 -1.90084e-07 0)
(-0.876175 -1.87425e-07 0)
(-0.872077 -1.848e-07 0)
(-0.867993 -1.82208e-07 0)
(-0.863923 -1.79648e-07 0)
(-0.859866 -1.77122e-07 0)
(-0.855823 -1.74627e-07 0)
(-0.851794 -1.72164e-07 0)
(-0.847778 -1.69733e-07 0)
(-0.843776 -1.67332e-07 0)
(-0.839788 -1.64963e-07 0)
(-0.835813 -1.62624e-07 0)
(-0.831852 -1.60315e-07 0)
(-0.827906 -1.58037e-07 0)
(-0.823973 -1.55787e-07 0)
(-0.820053 -1.53567e-07 0)
(-0.816148 -1.51376e-07 0)
(-0.812257 -1.49214e-07 0)
(-0.808379 -1.4708e-07 0)
(-0.804516 -1.44974e-07 0)
(-0.800666 -1.42895e-07 0)
(-0.796831 -1.40844e-07 0)
(-0.793009 -1.3882e-07 0)
(-0.789202 -1.36822e-07 0)
(-0.785408 -1.34852e-07 0)
(-0.781629 -1.32907e-07 0)
(-0.777863 -1.30988e-07 0)
(-0.774112 -1.29094e-07 0)
(-0.770375 -1.27226e-07 0)
(-0.766652 -1.25382e-07 0)
(-0.762943 -1.23561e-07 0)
(-0.759248 -1.21767e-07 0)
(-0.755567 -1.19992e-07 0)
(-0.7519 -1.18204e-07 0)
(-0.74825 -1.16566e-07 0)
(-0.744607 -1.14939e-07 0)
(-0.740573 -1.12952e-07 0)
(-0.736197 -1.10842e-07 0)
(-0.731901 -1.08941e-07 0)
(-0.727674 -1.07143e-07 0)
(-0.723519 -1.05333e-07 0)
(-0.719434 -1.03558e-07 0)
(-0.715417 -1.01829e-07 0)
(-0.711467 -1.00146e-07 0)
(-0.707582 -9.85081e-08 0)
(-0.70376 -9.69139e-08 0)
(-0.7 -9.53619e-08 0)
(-0.6963 -9.38509e-08 0)
(-0.692658 -9.23794e-08 0)
(-0.689073 -9.0946e-08 0)
(-0.685543 -8.95494e-08 0)
(-0.682067 -8.81881e-08 0)
(-0.678643 -8.68611e-08 0)
(-0.675271 -8.55671e-08 0)
(-0.671949 -8.43049e-08 0)
(-0.668676 -8.30736e-08 0)
(-0.66545 -8.18719e-08 0)
(-0.66227 -8.0699e-08 0)
(-0.659136 -7.9554e-08 0)
(-0.656046 -7.84358e-08 0)
(-0.653 -7.73436e-08 0)
(-0.649995 -7.62765e-08 0)
(-0.647032 -7.52339e-08 0)
(-0.64411 -7.42149e-08 0)
(-0.641226 -7.32187e-08 0)
(-0.638381 -7.22446e-08 0)
(-0.635574 -7.12921e-08 0)
(-0.632804 -7.03604e-08 0)
(-0.63007 -6.94488e-08 0)
(-0.627371 -6.85569e-08 0)
(-0.624706 -6.76839e-08 0)
(-0.622075 -6.68294e-08 0)
(-0.619478 -6.59929e-08 0)
(-0.616912 -6.51737e-08 0)
(-0.614379 -6.43714e-08 0)
(-0.611876 -6.35855e-08 0)
(-0.609404 -6.28156e-08 0)
(-0.606962 -6.20613e-08 0)
(-0.604549 -6.1322e-08 0)
(-0.602164 -6.05973e-08 0)
(-0.599808 -5.9887e-08 0)
(-0.597479 -5.91905e-08 0)
(-0.595177 -5.85076e-08 0)
(-0.592902 -5.78378e-08 0)
(-0.590652 -5.71809e-08 0)
(-0.588428 -5.65365e-08 0)
(-0.586229 -5.59042e-08 0)
(-0.584055 -5.52838e-08 0)
(-0.581904 -5.4675e-08 0)
(-0.579777 -5.40774e-08 0)
(-0.577673 -5.34909e-08 0)
(-0.575592 -5.29151e-08 0)
(-0.573534 -5.23498e-08 0)
(-0.571497 -5.17947e-08 0)
(-0.569482 -5.12496e-08 0)
(-0.567487 -5.07143e-08 0)
(-0.565514 -5.01886e-08 0)
(-0.563561 -4.96722e-08 0)
(-0.561628 -4.9165e-08 0)
(-0.559714 -4.86667e-08 0)
(-0.55782 -4.81773e-08 0)
(-0.555945 -4.76964e-08 0)
(-0.554089 -4.7224e-08 0)
(-0.552251 -4.67599e-08 0)
(-0.550431 -4.63041e-08 0)
(-0.548628 -4.58562e-08 0)
(-0.546843 -4.54164e-08 0)
(-0.545075 -4.49844e-08 0)
(-0.543324 -4.45603e-08 0)
(-0.541589 -4.4144e-08 0)
(-0.53987 -4.37355e-08 0)
(-0.538167 -4.33349e-08 0)
(-0.53648 -4.29423e-08 0)
(-0.534808 -4.25578e-08 0)
(-0.53315 -4.21818e-08 0)
(-0.531508 -4.18147e-08 0)
(-0.529879 -4.14571e-08 0)
(-0.528264 -4.11099e-08 0)
(-0.526663 -4.07746e-08 0)
(-0.525074 -4.04523e-08 0)
(-0.523498 -4.01464e-08 0)
(-0.521934 -3.98693e-08 0)
(-0.520379 -3.95905e-08 0)
(-0.518836 -3.93696e-08 0)
(-0.517299 -3.9431e-08 0)
(-0.515751 -3.87482e-08 0)
(-0.514268 -3.78792e-08 0)
(-0.512788 -5.00524e-08 0)
(-0.510352 -1.40269e-08 0)
(-0.511702 -3.69616e-08 0)
(-0.507417 -5.57016e-08 0)
)
;
    }
    symmetry
    {
        type            symmetryPlane;
    }
    frontAndBack
    {
        type            empty;
    }
}


// ************************************************************************* //
