/*--------------------------------*- C++ -*----------------------------------*\
| =========                 |                                                 |
| \\      /  F ield         | OpenFOAM: The Open Source CFD Toolbox           |
|  \\    /   O peration     | Version:  v2012                                 |
|   \\  /    A nd           | Website:  www.openfoam.com                      |
|    \\/     M anipulation  |                                                 |
\*---------------------------------------------------------------------------*/
FoamFile
{
    version     2.0;
    format      ascii;
    class       volScalarField;
    location    "32";
    object      yPlus;
}
// * * * * * * * * * * * * * * * * * * * * * * * * * * * * * * * * * * * * * //

dimensions      [0 0 0 0 0 0 0];


internalField   uniform 0;

boundaryField
{
    inlet
    {
        type            calculated;
        value           uniform 0;
    }
    outlet
    {
        type            calculated;
        value           uniform 0;
    }
    topWall
    {
        type            calculated;
        value           nonuniform List<scalar> 
545
(
0.0707959
0.122074
0.156602
0.184071
0.207313
0.227635
0.245773
0.262189
0.277198
0.291025
0.303842
0.315779
0.326941
0.337413
0.347266
0.356557
0.365339
0.373653
0.381538
0.389026
0.396147
0.402926
0.409388
0.415551
0.421437
0.427061
0.432439
0.437586
0.442515
0.447238
0.451766
0.45611
0.460279
0.464281
0.468127
0.471822
0.475375
0.478792
0.48208
0.485245
0.488292
0.491227
0.494054
0.496779
0.499406
0.501939
0.504383
0.50674
0.509015
0.511211
0.513331
0.515378
0.517355
0.519266
0.521112
0.522897
0.524621
0.526289
0.527902
0.529462
0.530971
0.532431
0.533844
0.535212
0.536536
0.537818
0.539059
0.54026
0.541425
0.542552
0.543645
0.544703
0.545716
0.546694
0.547664
0.548625
0.549578
0.550522
0.551457
0.552385
0.553304
0.554215
0.555117
0.556012
0.556899
0.557778
0.55865
0.559513
0.56037
0.561218
0.56206
0.562893
0.56372
0.56454
0.565352
0.566157
0.566882
0.56753
0.568177
0.568824
0.56947
0.570115
0.570759
0.571403
0.572046
0.572689
0.573331
0.573972
0.574612
0.575252
0.575891
0.576529
0.577166
0.577803
0.578439
0.579074
0.579709
0.580343
0.580975
0.581608
0.582239
0.582869
0.583499
0.584128
0.584756
0.585383
0.586009
0.586635
0.58726
0.587883
0.588506
0.589128
0.58975
0.59037
0.590989
0.591608
0.592225
0.592842
0.593457
0.594072
0.594686
0.595299
0.59591
0.596521
0.597131
0.59774
0.598348
0.598955
0.59956
0.600165
0.600769
0.601372
0.601973
0.602574
0.603174
0.603772
0.604369
0.604966
0.605561
0.606155
0.606748
0.60734
0.60793
0.60852
0.609108
0.609695
0.610281
0.610866
0.61145
0.612032
0.612613
0.613193
0.613772
0.61435
0.614926
0.615501
0.616075
0.616647
0.617218
0.617788
0.618357
0.618924
0.61949
0.620054
0.620618
0.62118
0.62174
0.622299
0.622857
0.623413
0.623968
0.624522
0.625074
0.625625
0.626174
0.626722
0.627268
0.627813
0.628357
0.628899
0.629439
0.629978
0.630515
0.631051
0.631585
0.632118
0.632649
0.633179
0.633707
0.634234
0.634758
0.635282
0.635803
0.636323
0.636842
0.637358
0.637873
0.638387
0.638899
0.639408
0.639917
0.640423
0.640928
0.641431
0.641933
0.642432
0.64293
0.643426
0.64392
0.644413
0.644904
0.645392
0.645879
0.646365
0.646848
0.647329
0.647809
0.648287
0.648762
0.649236
0.649708
0.650178
0.650646
0.651113
0.651577
0.652039
0.652499
0.652957
0.653414
0.653868
0.65432
0.65477
0.655219
0.655665
0.656109
0.656551
0.65699
0.657428
0.657864
0.658297
0.658729
0.659158
0.659585
0.66001
0.660433
0.660854
0.661272
0.661688
0.662102
0.662491
0.662857
0.663224
0.663592
0.663962
0.664333
0.664705
0.665079
0.665453
0.665829
0.666206
0.666583
0.666962
0.667342
0.667723
0.668104
0.668486
0.668869
0.669253
0.669637
0.670022
0.670407
0.670793
0.671179
0.671566
0.671952
0.672339
0.672726
0.673113
0.6735
0.673887
0.674273
0.67466
0.675046
0.675431
0.675816
0.676201
0.676584
0.676967
0.677349
0.67773
0.67811
0.678489
0.678866
0.679242
0.679617
0.67999
0.680361
0.68073
0.681097
0.681463
0.681826
0.682186
0.682545
0.6829
0.683253
0.683604
0.683951
0.684295
0.684635
0.684973
0.685306
0.685637
0.685963
0.686285
0.686603
0.686917
0.687226
0.68753
0.68783
0.688125
0.688414
0.688698
0.688977
0.68925
0.689517
0.689778
0.690033
0.690281
0.690523
0.690758
0.690985
0.691206
0.691419
0.691625
0.691822
0.692012
0.692193
0.692366
0.692531
0.692686
0.692832
0.692969
0.693097
0.693214
0.693322
0.693419
0.693506
0.693583
0.693648
0.693703
0.693746
0.693777
0.693797
0.693804
0.6938
0.693783
0.693753
0.69371
0.693654
0.693585
0.693502
0.693405
0.693294
0.693168
0.693029
0.692874
0.692704
0.69252
0.692319
0.692103
0.691872
0.691624
0.69136
0.69108
0.690782
0.690468
0.690137
0.689789
0.689423
0.68904
0.688639
0.68822
0.687783
0.687328
0.686854
0.686362
0.685851
0.685321
0.684773
0.684205
0.683618
0.683012
0.682387
0.681742
0.681077
0.680393
0.679689
0.678966
0.678223
0.67746
0.676678
0.675875
0.675053
0.674211
0.673349
0.672468
0.671567
0.670646
0.669706
0.668746
0.667767
0.666768
0.665751
0.664714
0.663658
0.662584
0.661491
0.66038
0.65925
0.658103
0.656937
0.655754
0.654554
0.653337
0.652103
0.650852
0.649585
0.648303
0.647004
0.645691
0.644213
0.642579
0.640946
0.639314
0.637686
0.63606
0.634439
0.632823
0.631213
0.62961
0.628013
0.626425
0.624844
0.623273
0.621711
0.620159
0.618618
0.617087
0.615568
0.614061
0.612566
0.611084
0.609615
0.608159
0.606717
0.605289
0.603876
0.602477
0.601093
0.599725
0.598372
0.597035
0.595714
0.594409
0.59312
0.591849
0.590594
0.589356
0.588136
0.586934
0.585749
0.584582
0.583433
0.582303
0.58119
0.580097
0.579022
0.577967
0.57693
0.575913
0.574915
0.573937
0.572978
0.57204
0.571121
0.570223
0.569345
0.568487
0.567651
0.566834
0.566039
0.565265
0.564512
0.56378
0.56307
0.562381
0.561714
0.561069
0.560446
0.559845
0.559266
0.558709
0.558175
0.557663
0.557174
0.556708
0.556264
0.555844
0.555446
0.555072
0.554721
0.554393
0.554088
0.553807
0.553549
0.553315
0.553104
0.552917
0.552754
0.552614
0.552499
0.552407
0.552338
0.552296
0.552266
)
;
    }
    bottomWall
    {
        type            calculated;
        value           nonuniform List<scalar> 
449
(
0.139465
0.0889683
0.0758166
0.0694442
0.0652605
0.0621338
0.0596387
0.057575
0.0558239
0.0543076
0.0529738
0.0517861
0.050718
0.0497494
0.0488646
0.0480513
0.0472997
0.0466018
0.0459509
0.0453417
0.0447695
0.0442304
0.043721
0.0432386
0.0427806
0.0423448
0.0419294
0.0415327
0.0411531
0.0407895
0.0404405
0.0401052
0.0397827
0.0394719
0.0391722
0.0388829
0.0386033
0.0383329
0.038071
0.0378173
0.0375712
0.0373324
0.0371005
0.036875
0.0366557
0.0364423
0.0362345
0.036032
0.0358346
0.0356421
0.0354541
0.0352706
0.0350913
0.0349161
0.0347448
0.0345772
0.0344132
0.0342526
0.0340953
0.0339413
0.0337903
0.0336422
0.033497
0.0333546
0.0332148
0.0330776
0.0329428
0.0328105
0.0326804
0.0325526
0.032427
0.0323035
0.032182
0.0320624
0.0319448
0.0318291
0.0317151
0.0316029
0.0314925
0.0313836
0.0312764
0.0311707
0.0310666
0.0309639
0.0308627
0.0307628
0.0306644
0.0305672
0.0304714
0.0303768
0.0302835
0.0301914
0.0301004
0.0300106
0.0299219
0.0298343
0.0297478
0.0296623
0.0295778
0.0294943
0.0294119
0.0293303
0.0292497
0.02917
0.0290912
0.0290133
0.0289362
0.0288599
0.0287845
0.0287099
0.0286361
0.028563
0.0284907
0.0284191
0.0283483
0.0282782
0.0282088
0.02814
0.028072
0.0280046
0.0279378
0.0278717
0.0278062
0.0277413
0.027677
0.0276134
0.0275503
0.0274877
0.0274257
0.0273643
0.0273034
0.0272431
0.0271833
0.027124
0.0270652
0.0270069
0.0269491
0.0268917
0.0268349
0.0267785
0.0267226
0.0266671
0.0266121
0.0265575
0.0265033
0.0264496
0.0263963
0.0263433
0.0262908
0.0262387
0.026187
0.0261357
0.0260848
0.0260342
0.0259841
0.0259342
0.0258848
0.0258357
0.0257869
0.0257385
0.0256905
0.0256427
0.0255954
0.0255483
0.0255015
0.0254551
0.025409
0.0253632
0.0253177
0.0252725
0.0252276
0.025183
0.0251387
0.0250973
0.0250582
0.0250189
0.0249797
0.0249402
0.0249007
0.0248611
0.0248214
0.0247815
0.0247416
0.0247015
0.0246614
0.0246211
0.0245808
0.0245403
0.0244997
0.0244591
0.0244183
0.0243775
0.0243365
0.0242955
0.0242543
0.0242131
0.0241718
0.0241304
0.0240889
0.0240473
0.0240056
0.0239638
0.023922
0.0238801
0.0238381
0.023796
0.0237538
0.0237116
0.0236693
0.0236269
0.0235844
0.0235419
0.0234993
0.0234566
0.0234139
0.0233711
0.0233282
0.0232853
0.0232423
0.0231992
0.0231561
0.0231129
0.0230697
0.0230264
0.022983
0.0229396
0.0228962
0.0228527
0.0228091
0.0227655
0.0227219
0.0226782
0.0226344
0.0225906
0.0225468
0.0225029
0.022459
0.0224151
0.0223711
0.0223271
0.022283
0.0222389
0.0221948
0.0221507
0.0221065
0.0220623
0.022018
0.0219738
0.0219295
0.0218852
0.0218409
0.0217965
0.0217521
0.0217077
0.0216633
0.0216189
0.0215745
0.02153
0.0214856
0.0214411
0.0213966
0.0213521
0.0213076
0.0212631
0.0212186
0.0211741
0.0211296
0.021085
0.0210405
0.020996
0.0209515
0.020907
0.0208625
0.0208179
0.0207734
0.020729
0.0206845
0.02064
0.0205955
0.0205511
0.0205066
0.0204622
0.0204178
0.0203734
0.020329
0.0202846
0.0202403
0.020196
0.0201517
0.0201074
0.0200631
0.0200189
0.0199747
0.0199305
0.0198863
0.0198422
0.0197981
0.019754
0.01971
0.0196659
0.019622
0.019578
0.0195341
0.0194902
0.0194464
0.0194026
0.0193588
0.0193151
0.0192714
0.0192277
0.0191841
0.0191405
0.019097
0.0190535
0.0190101
0.0189667
0.0189233
0.01888
0.0188368
0.0187935
0.0187504
0.0187073
0.0186642
0.0186212
0.0185782
0.0185353
0.0184925
0.0184497
0.0184069
0.0183642
0.0183216
0.018279
0.0182365
0.018194
0.0181516
0.0181093
0.018067
0.0180248
0.0179826
0.0179405
0.0178984
0.0178565
0.0178145
0.0177727
0.0177309
0.0176892
0.0176475
0.0176059
0.0175644
0.0175229
0.0174815
0.0174402
0.017399
0.0173577
0.0173119
0.0172622
0.0172132
0.0171648
0.0171172
0.0170702
0.0170239
0.0169783
0.0169333
0.0168889
0.0168451
0.016802
0.0167594
0.0167174
0.0166759
0.016635
0.0165946
0.0165547
0.0165154
0.0164765
0.0164381
0.0164002
0.0163627
0.0163257
0.0162892
0.0162531
0.0162174
0.0161821
0.0161472
0.0161127
0.0160786
0.0160449
0.0160116
0.0159787
0.0159461
0.0159138
0.015882
0.0158504
0.0158192
0.0157883
0.0157578
0.0157275
0.0156976
0.0156679
0.0156386
0.0156096
0.0155808
0.0155524
0.0155242
0.0154963
0.0154687
0.0154413
0.0154142
0.0153873
0.0153607
0.0153343
0.0153082
0.0152824
0.0152567
0.0152313
0.0152061
0.0151812
0.0151564
0.0151319
0.0151076
0.0150835
0.0150596
0.0150359
0.0150124
0.0149892
0.0149661
0.0149431
0.0149204
0.0148979
0.0148755
0.0148533
0.0148313
0.0148095
0.0147878
0.0147663
0.014745
0.0147238
0.0147027
0.0146818
0.0146611
0.0146404
0.0146199
0.0145995
0.0145791
0.0145586
0.0145389
0.0145193
0.0144867
0.0145051
0.0144476
)
;
    }
    symmetry
    {
        type            symmetryPlane;
    }
    frontAndBack
    {
        type            empty;
    }
}


// ************************************************************************* //
