/*--------------------------------*- C++ -*----------------------------------*\
| =========                 |                                                 |
| \\      /  F ield         | OpenFOAM: The Open Source CFD Toolbox           |
|  \\    /   O peration     | Version:  v2012                                 |
|   \\  /    A nd           | Website:  www.openfoam.com                      |
|    \\/     M anipulation  |                                                 |
\*---------------------------------------------------------------------------*/
FoamFile
{
    version     2.0;
    format      ascii;
    class       volScalarField;
    location    "39";
    object      k;
}
// * * * * * * * * * * * * * * * * * * * * * * * * * * * * * * * * * * * * * //

dimensions      [0 2 -2 0 0 0 0];


internalField   nonuniform List<scalar> 
209825
(
0.00102409
0.000930834
0.000855344
0.000795965
0.000750041
0.00071449
0.000686738
0.000664723
0.000647035
0.000632581
0.000620651
0.000610657
0.00060223
0.000595032
0.000588856
0.0005835
0.000578838
0.000574748
0.000571143
0.000567952
0.000565107
0.000562573
0.00056029
0.000558246
0.000556386
0.00055472
0.000553185
0.00055181
0.000550529
0.000549384
0.000548308
0.000547345
0.000546431
0.000545622
0.000544842
0.000544154
0.00054348
0.000542894
0.000542315
0.000541814
0.00054131
0.000540882
0.000540451
0.000540078
0.0005397
0.000539385
0.000539055
0.00053878
0.00053849
0.00053825
0.000537999
0.000537801
0.000537588
0.000537411
0.000537227
0.000537084
0.000536911
0.000536799
0.000536644
0.000536546
0.000536409
0.00053633
0.000536211
0.000536142
0.000536038
0.000535943
0.000535866
0.000535831
0.000535779
0.000535753
0.0005357
0.000535679
0.00053563
0.00053564
0.000535636
0.000535684
0.000535684
0.000535753
0.000535756
0.000535833
0.000535855
0.000535942
0.000535971
0.000536064
0.000536104
0.000536212
0.000536262
0.000536389
0.000536444
0.000536599
0.000536658
0.000536811
0.000537035
0.000545818
0.000574595
0.00141306
0.00102409
0.000930835
0.000855344
0.000795964
0.000750039
0.000714487
0.000686733
0.000664718
0.000647028
0.000632573
0.000620642
0.000610648
0.000602219
0.000595021
0.000588844
0.000583488
0.000578826
0.000574736
0.000571131
0.000567939
0.000565093
0.000562559
0.000560276
0.000558232
0.000556372
0.000554706
0.000553171
0.000551795
0.000550514
0.000549369
0.000548293
0.00054733
0.000546416
0.000545606
0.000544827
0.000544138
0.000543464
0.000542878
0.000542299
0.000541798
0.000541294
0.000540866
0.000540435
0.000540062
0.000539684
0.000539369
0.000539039
0.000538764
0.000538473
0.000538234
0.000537983
0.000537784
0.000537572
0.000537394
0.000537211
0.000537067
0.000536894
0.000536782
0.000536627
0.000536529
0.000536392
0.000536313
0.000536195
0.000536125
0.000536022
0.000535926
0.00053585
0.000535814
0.000535763
0.000535736
0.000535683
0.000535663
0.000535613
0.000535623
0.00053562
0.000535667
0.000535667
0.000535737
0.000535739
0.000535816
0.000535838
0.000535925
0.000535954
0.000536047
0.000536087
0.000536195
0.000536245
0.000536372
0.000536427
0.000536581
0.000536641
0.000536794
0.000537018
0.000545818
0.000574587
0.00141387
0.00102409
0.000930836
0.000855344
0.00079596
0.000750029
0.000714471
0.000686712
0.000664692
0.000646998
0.000632539
0.000620605
0.000610608
0.000602177
0.000594976
0.000588798
0.00058344
0.000578776
0.000574685
0.000571078
0.000567885
0.000565039
0.000562504
0.00056022
0.000558176
0.000556315
0.000554648
0.000553113
0.000551737
0.000550455
0.000549309
0.000548233
0.00054727
0.000546355
0.000545545
0.000544765
0.000544077
0.000543403
0.000542816
0.000542237
0.000541736
0.000541232
0.000540803
0.000540372
0.000539999
0.000539621
0.000539305
0.000538975
0.0005387
0.00053841
0.00053817
0.000537919
0.00053772
0.000537507
0.00053733
0.000537146
0.000537003
0.00053683
0.000536717
0.000536562
0.000536464
0.000536327
0.000536248
0.000536129
0.00053606
0.000535956
0.000535861
0.000535784
0.000535749
0.000535697
0.00053567
0.000535618
0.000535597
0.000535547
0.000535557
0.000535553
0.000535601
0.000535601
0.00053567
0.000535672
0.000535749
0.000535771
0.000535859
0.000535887
0.00053598
0.00053602
0.000536128
0.000536177
0.000536305
0.00053636
0.000536514
0.000536573
0.000536727
0.000536951
0.000545783
0.000574534
0.00141548
0.00102409
0.000930838
0.000855344
0.000795953
0.000750013
0.000714445
0.000686677
0.000664648
0.000646947
0.000632482
0.000620542
0.000610541
0.000602106
0.000594901
0.00058872
0.000583359
0.000578693
0.000574599
0.000570991
0.000567796
0.000564948
0.000562412
0.000560127
0.000558081
0.000556219
0.000554551
0.000553015
0.000551638
0.000550356
0.000549209
0.000548132
0.000547168
0.000546253
0.000545443
0.000544663
0.000543973
0.000543299
0.000542712
0.000542132
0.000541631
0.000541127
0.000540698
0.000540266
0.000539893
0.000539514
0.000539199
0.000538868
0.000538593
0.000538302
0.000538062
0.000537811
0.000537612
0.000537399
0.000537222
0.000537037
0.000536894
0.000536721
0.000536608
0.000536453
0.000536355
0.000536218
0.000536139
0.00053602
0.00053595
0.000535847
0.000535751
0.000535674
0.000535639
0.000535587
0.00053556
0.000535507
0.000535487
0.000535436
0.000535446
0.000535442
0.00053549
0.00053549
0.000535558
0.000535561
0.000535638
0.000535659
0.000535747
0.000535775
0.000535868
0.000535908
0.000536015
0.000536065
0.000536192
0.000536247
0.000536401
0.00053646
0.000536613
0.000536838
0.000545721
0.000574444
0.00141738
0.00102409
0.000930841
0.000855343
0.000795943
0.000749989
0.000714408
0.000686626
0.000664586
0.000646875
0.000632401
0.000620454
0.000610446
0.000602005
0.000594795
0.000588609
0.000583245
0.000578575
0.000574479
0.000570868
0.00056767
0.00056482
0.000562282
0.000559995
0.000557948
0.000556084
0.000554415
0.000552877
0.000551499
0.000550216
0.000549068
0.00054799
0.000547026
0.00054611
0.000545299
0.000544518
0.000543828
0.000543153
0.000542565
0.000541985
0.000541483
0.000540978
0.000540549
0.000540117
0.000539743
0.000539364
0.000539049
0.000538718
0.000538442
0.000538151
0.000537911
0.000537659
0.00053746
0.000537247
0.000537069
0.000536885
0.000536741
0.000536568
0.000536455
0.0005363
0.000536201
0.000536064
0.000535985
0.000535865
0.000535796
0.000535692
0.000535597
0.00053552
0.000535484
0.000535431
0.000535405
0.000535352
0.000535331
0.000535281
0.00053529
0.000535286
0.000535333
0.000535333
0.000535401
0.000535403
0.00053548
0.000535501
0.000535589
0.000535617
0.00053571
0.000535749
0.000535856
0.000535906
0.000536033
0.000536088
0.000536241
0.0005363
0.000536453
0.00053668
0.000545633
0.000574315
0.00141952
0.00102409
0.000930845
0.000855343
0.00079593
0.000749959
0.00071436
0.000686562
0.000664506
0.000646782
0.000632296
0.000620339
0.000610322
0.000601874
0.000594658
0.000588467
0.000583097
0.000578423
0.000574322
0.000570708
0.000567507
0.000564654
0.000562113
0.000559824
0.000557775
0.000555909
0.000554238
0.000552699
0.000551319
0.000550034
0.000548886
0.000547807
0.000546841
0.000545924
0.000545112
0.00054433
0.000543639
0.000542963
0.000542375
0.000541794
0.000541292
0.000540786
0.000540356
0.000539924
0.000539549
0.00053917
0.000538854
0.000538522
0.000538246
0.000537955
0.000537714
0.000537462
0.000537263
0.000537049
0.000536871
0.000536686
0.000536543
0.000536369
0.000536256
0.0005361
0.000536002
0.000535864
0.000535785
0.000535665
0.000535596
0.000535492
0.000535396
0.000535319
0.000535283
0.00053523
0.000535203
0.00053515
0.000535129
0.000535079
0.000535088
0.000535083
0.000535129
0.000535129
0.000535197
0.000535199
0.000535276
0.000535297
0.000535384
0.000535412
0.000535504
0.000535544
0.00053565
0.0005357
0.000535827
0.000535881
0.000536035
0.000536093
0.000536246
0.000536474
0.000545518
0.000574149
0.00142185
0.00102409
0.000930849
0.000855342
0.000795914
0.000749923
0.000714301
0.000686482
0.000664408
0.000646667
0.000632167
0.000620198
0.000610171
0.000601713
0.000594489
0.000588291
0.000582915
0.000578235
0.00057413
0.000570511
0.000567306
0.00056445
0.000561905
0.000559613
0.000557561
0.000555693
0.00055402
0.000552479
0.000551097
0.000549811
0.00054866
0.00054758
0.000546613
0.000545694
0.000544881
0.000544098
0.000543406
0.00054273
0.00054214
0.000541559
0.000541055
0.000540549
0.000540119
0.000539685
0.00053931
0.00053893
0.000538614
0.000538282
0.000538005
0.000537713
0.000537472
0.00053722
0.00053702
0.000536806
0.000536627
0.000536442
0.000536298
0.000536124
0.000536011
0.000535855
0.000535756
0.000535618
0.000535538
0.000535419
0.000535349
0.000535245
0.000535149
0.000535071
0.000535035
0.000534982
0.000534955
0.000534902
0.00053488
0.00053483
0.000534838
0.000534833
0.000534878
0.000534878
0.000534946
0.000534947
0.000535024
0.000535045
0.000535131
0.000535159
0.000535251
0.00053529
0.000535397
0.000535446
0.000535572
0.000535627
0.00053578
0.000535838
0.000535991
0.00053622
0.000545377
0.000573944
0.00142427
0.00102409
0.000930855
0.000855342
0.000795895
0.000749879
0.000714231
0.000686387
0.000664291
0.000646531
0.000632014
0.00062003
0.00060999
0.000601522
0.000594288
0.000588081
0.000582697
0.000578011
0.0005739
0.000570276
0.000567066
0.000564206
0.000561658
0.000559362
0.000557307
0.000555436
0.00055376
0.000552216
0.000550833
0.000549544
0.000548392
0.000547309
0.000546341
0.000545421
0.000544606
0.000543822
0.000543129
0.000542451
0.000541861
0.000541278
0.000540774
0.000540267
0.000539835
0.000539401
0.000539025
0.000538645
0.000538327
0.000537995
0.000537717
0.000537425
0.000537183
0.00053693
0.00053673
0.000536515
0.000536336
0.000536151
0.000536006
0.000535832
0.000535718
0.000535562
0.000535463
0.000535324
0.000535244
0.000535124
0.000535054
0.00053495
0.000534854
0.000534776
0.000534739
0.000534686
0.000534659
0.000534605
0.000534584
0.000534533
0.00053454
0.000534535
0.000534579
0.000534579
0.000534646
0.000534647
0.000534723
0.000534744
0.00053483
0.000534857
0.000534949
0.000534988
0.000535094
0.000535143
0.000535269
0.000535323
0.000535476
0.000535533
0.000535686
0.000535918
0.000545211
0.000573701
0.0014266
0.00102409
0.000930861
0.000855341
0.000795873
0.000749828
0.00071415
0.000686277
0.000664155
0.000646372
0.000631836
0.000619835
0.00060978
0.000601299
0.000594054
0.000587837
0.000582445
0.000577751
0.000573633
0.000570002
0.000566787
0.000563922
0.000561369
0.000559069
0.00055701
0.000555136
0.000553457
0.000551911
0.000550525
0.000549233
0.000548079
0.000546995
0.000546024
0.000545102
0.000544286
0.0005435
0.000542806
0.000542126
0.000541535
0.000540951
0.000540446
0.000539937
0.000539505
0.00053907
0.000538693
0.000538312
0.000537993
0.00053766
0.000537382
0.000537089
0.000536847
0.000536593
0.000536392
0.000536177
0.000535998
0.000535811
0.000535666
0.000535491
0.000535377
0.00053522
0.000535121
0.000534982
0.000534902
0.000534782
0.000534711
0.000534607
0.000534511
0.000534432
0.000534395
0.000534341
0.000534314
0.00053426
0.000534238
0.000534187
0.000534194
0.000534187
0.000534231
0.00053423
0.000534296
0.000534298
0.000534373
0.000534393
0.000534479
0.000534506
0.000534597
0.000534636
0.000534741
0.00053479
0.000534915
0.000534969
0.000535121
0.000535178
0.000535331
0.000535565
0.00054502
0.000573419
0.00142857
0.00102409
0.000930868
0.000855341
0.000795849
0.000749771
0.000714057
0.000686151
0.000663999
0.000646191
0.000631632
0.000619612
0.00060954
0.000601044
0.000593786
0.000587558
0.000582156
0.000577453
0.000573327
0.000569689
0.000566468
0.000563597
0.000561039
0.000558735
0.000556672
0.000554793
0.000553111
0.000551561
0.000550172
0.000548878
0.000547721
0.000546634
0.000545662
0.000544738
0.00054392
0.000543132
0.000542436
0.000541755
0.000541162
0.000540577
0.00054007
0.000539561
0.000539127
0.000538691
0.000538313
0.000537931
0.000537612
0.000537277
0.000536999
0.000536705
0.000536462
0.000536207
0.000536006
0.00053579
0.00053561
0.000535423
0.000535277
0.000535102
0.000534987
0.00053483
0.00053473
0.000534591
0.00053451
0.000534389
0.000534318
0.000534214
0.000534118
0.000534038
0.000534
0.000533946
0.000533919
0.000533865
0.000533843
0.000533791
0.000533797
0.00053379
0.000533832
0.000533832
0.000533897
0.000533897
0.000533973
0.000533992
0.000534077
0.000534104
0.000534195
0.000534233
0.000534338
0.000534386
0.000534511
0.000534564
0.000534716
0.000534772
0.000534925
0.000535162
0.000544805
0.000573098
0.00142982
0.00102409
0.000930876
0.00085534
0.000795821
0.000749706
0.000713953
0.00068601
0.000663825
0.000645987
0.000631403
0.00061936
0.00060927
0.000600757
0.000593485
0.000587244
0.00058183
0.000577117
0.000572982
0.000569337
0.000566109
0.000563231
0.000560667
0.000558358
0.00055629
0.000554407
0.000552721
0.000551167
0.000549775
0.000548477
0.000547318
0.000546228
0.000545253
0.000544327
0.000543507
0.000542717
0.000542019
0.000541336
0.000540742
0.000540155
0.000539647
0.000539136
0.000538701
0.000538263
0.000537885
0.000537501
0.000537181
0.000536846
0.000536566
0.000536271
0.000536027
0.000535772
0.000535569
0.000535353
0.000535172
0.000534984
0.000534838
0.000534662
0.000534547
0.000534389
0.000534289
0.000534149
0.000534068
0.000533947
0.000533875
0.000533771
0.000533674
0.000533594
0.000533556
0.000533501
0.000533473
0.000533418
0.000533396
0.000533344
0.000533349
0.000533341
0.000533382
0.000533381
0.000533445
0.000533446
0.000533521
0.000533539
0.000533624
0.00053365
0.000533741
0.000533778
0.000533883
0.00053393
0.000534054
0.000534107
0.000534259
0.000534314
0.000534466
0.000534708
0.000544564
0.000572737
0.00142982
0.00102409
0.000930885
0.000855339
0.00079579
0.000749635
0.000713838
0.000685854
0.000663631
0.00064576
0.000631148
0.000619081
0.000608969
0.000600437
0.000593149
0.000586893
0.000581467
0.000576743
0.000572598
0.000568944
0.000565708
0.000562823
0.000560252
0.000557937
0.000555863
0.000553976
0.000552285
0.000550727
0.000549331
0.00054803
0.000546867
0.000545775
0.000544797
0.000543868
0.000543046
0.000542253
0.000541554
0.000540869
0.000540272
0.000539684
0.000539174
0.000538662
0.000538225
0.000537786
0.000537406
0.000537021
0.0005367
0.000536364
0.000536083
0.000535787
0.000535542
0.000535286
0.000535083
0.000534865
0.000534684
0.000534495
0.000534349
0.000534171
0.000534056
0.000533897
0.000533797
0.000533656
0.000533574
0.000533453
0.000533381
0.000533276
0.000533179
0.000533098
0.000533059
0.000533004
0.000532976
0.000532921
0.000532898
0.000532846
0.00053285
0.00053284
0.000532879
0.000532879
0.000532942
0.000532942
0.000533016
0.000533034
0.000533118
0.000533143
0.000533234
0.00053327
0.000533374
0.000533421
0.000533545
0.000533598
0.000533748
0.000533803
0.000533955
0.0005342
0.0005443
0.000572335
0.00142814
0.00102409
0.000930895
0.000855339
0.000795757
0.000749556
0.000713712
0.000685681
0.000663417
0.000645511
0.000630867
0.000618772
0.000608636
0.000600085
0.000592778
0.000586507
0.000581066
0.00057633
0.000572174
0.00056851
0.000565265
0.000562372
0.000559794
0.000557472
0.000555393
0.000553499
0.000551804
0.000550241
0.000548841
0.000547536
0.00054637
0.000545274
0.000544293
0.000543361
0.000542536
0.000541741
0.000541039
0.000540352
0.000539754
0.000539163
0.000538651
0.000538137
0.000537699
0.000537259
0.000536878
0.000536491
0.000536168
0.000535831
0.000535549
0.000535252
0.000535006
0.000534749
0.000534545
0.000534326
0.000534144
0.000533954
0.000533807
0.000533629
0.000533513
0.000533353
0.000533252
0.000533111
0.000533028
0.000532906
0.000532834
0.000532729
0.000532632
0.00053255
0.00053251
0.000532454
0.000532426
0.00053237
0.000532347
0.000532295
0.000532297
0.000532287
0.000532324
0.000532324
0.000532385
0.000532385
0.000532458
0.000532475
0.000532559
0.000532583
0.000532673
0.000532709
0.000532812
0.000532859
0.000532982
0.000533034
0.000533183
0.000533237
0.000533389
0.000533639
0.000544011
0.000571892
0.00142477
0.0010241
0.000930906
0.000855339
0.000795721
0.000749471
0.000713574
0.000685493
0.000663184
0.000645238
0.000630559
0.000618435
0.000608273
0.000599698
0.000592372
0.000586083
0.000580627
0.000575877
0.000571709
0.000568034
0.000564779
0.000561877
0.000559292
0.000556962
0.000554876
0.000552977
0.000551276
0.000549708
0.000548303
0.000546994
0.000545824
0.000544724
0.00054374
0.000542805
0.000541977
0.000541179
0.000540475
0.000539785
0.000539184
0.000538592
0.000538078
0.000537562
0.000537122
0.00053668
0.000536297
0.000535909
0.000535585
0.000535246
0.000534963
0.000534665
0.000534418
0.000534159
0.000533954
0.000533734
0.000533552
0.00053336
0.000533213
0.000533034
0.000532916
0.000532757
0.000532654
0.000532513
0.000532429
0.000532307
0.000532233
0.000532128
0.000532031
0.000531948
0.000531907
0.000531851
0.000531822
0.000531766
0.000531743
0.00053169
0.000531691
0.000531679
0.000531714
0.000531714
0.000531773
0.000531773
0.000531846
0.000531862
0.000531945
0.000531969
0.000532058
0.000532093
0.000532195
0.000532241
0.000532363
0.000532415
0.000532564
0.000532616
0.000532768
0.000533024
0.000543697
0.000571407
0.00141975
0.0010241
0.000930918
0.000855338
0.000795683
0.000749379
0.000713424
0.000685289
0.000662931
0.000644941
0.000630225
0.000618068
0.000607877
0.000599278
0.00059193
0.000585622
0.000580149
0.000575384
0.000571203
0.000567516
0.00056425
0.000561338
0.000558744
0.000556407
0.000554314
0.000552408
0.0005507
0.000549127
0.000547717
0.000546404
0.000545229
0.000544125
0.000543137
0.000542199
0.000541367
0.000540567
0.000539859
0.000539167
0.000538564
0.000537969
0.000537453
0.000536935
0.000536493
0.000536049
0.000535665
0.000535275
0.000534949
0.000534609
0.000534324
0.000534025
0.000533777
0.000533517
0.00053331
0.000533089
0.000532905
0.000532713
0.000532564
0.000532384
0.000532266
0.000532106
0.000532003
0.00053186
0.000531776
0.000531653
0.000531579
0.000531473
0.000531376
0.000531292
0.00053125
0.000531193
0.000531164
0.000531107
0.000531083
0.000531031
0.00053103
0.000531016
0.00053105
0.000531049
0.000531107
0.000531107
0.000531178
0.000531193
0.000531275
0.000531298
0.000531387
0.000531421
0.000531523
0.000531568
0.000531689
0.00053174
0.000531888
0.000531939
0.000532091
0.000532353
0.000543358
0.000570878
0.0014131
0.0010241
0.00093093
0.000855338
0.000795641
0.00074928
0.000713263
0.000685069
0.000662657
0.000644621
0.000629863
0.000617671
0.00060745
0.000598823
0.000591451
0.000585123
0.000579632
0.000574851
0.000570654
0.000566954
0.000563677
0.000560755
0.000558151
0.000555805
0.000553704
0.000551791
0.000550077
0.000548498
0.000547082
0.000545764
0.000544584
0.000543476
0.000542484
0.000541542
0.000540707
0.000539903
0.000539192
0.000538497
0.000537891
0.000537293
0.000536776
0.000536255
0.000535811
0.000535365
0.000534979
0.000534587
0.00053426
0.000533917
0.000533632
0.000533331
0.000533081
0.00053282
0.000532612
0.00053239
0.000532205
0.000532011
0.000531862
0.000531681
0.000531562
0.0005314
0.000531296
0.000531153
0.000531068
0.000530944
0.000530869
0.000530763
0.000530666
0.00053058
0.000530538
0.000530479
0.00053045
0.000530392
0.000530368
0.000530316
0.000530313
0.000530298
0.000530329
0.000530329
0.000530384
0.000530384
0.000530454
0.000530468
0.000530549
0.000530571
0.000530659
0.000530693
0.000530794
0.000530838
0.000530958
0.000531008
0.000531155
0.000531205
0.000531357
0.000531626
0.000542994
0.000570304
0.00140485
0.0010241
0.000930944
0.000855339
0.000795597
0.000749174
0.000713091
0.000684834
0.000662364
0.000644277
0.000629475
0.000617245
0.000606989
0.000598334
0.000590936
0.000584585
0.000579074
0.000574276
0.000570064
0.000566349
0.000563059
0.000560126
0.000557512
0.000555156
0.000553047
0.000551126
0.000549405
0.000547819
0.000546398
0.000545073
0.000543889
0.000542776
0.000541779
0.000540833
0.000539994
0.000539187
0.000538473
0.000537775
0.000537166
0.000536565
0.000536045
0.000535522
0.000535076
0.000534627
0.000534239
0.000533845
0.000533516
0.000533172
0.000532885
0.000532582
0.000532331
0.000532068
0.000531859
0.000531635
0.000531449
0.000531254
0.000531103
0.000530921
0.000530801
0.000530638
0.000530534
0.000530389
0.000530304
0.000530179
0.000530103
0.000529997
0.000529899
0.000529812
0.000529769
0.00052971
0.000529679
0.000529621
0.000529597
0.000529544
0.00052954
0.000529523
0.000529552
0.000529551
0.000529604
0.000529604
0.000529673
0.000529686
0.000529766
0.000529787
0.000529874
0.000529907
0.000530006
0.00053005
0.000530169
0.000530218
0.000530364
0.000530413
0.000530564
0.000530841
0.000542603
0.000569682
0.00139506
0.0010241
0.000930958
0.000855339
0.000795551
0.000749062
0.000712907
0.000684582
0.00066205
0.000643909
0.000629059
0.000616788
0.000606496
0.00059781
0.000590384
0.000584009
0.000578477
0.000573659
0.00056943
0.0005657
0.000562397
0.000559451
0.000556826
0.00055446
0.000552341
0.000550412
0.000548683
0.000547091
0.000545663
0.000544332
0.000543142
0.000542024
0.000541023
0.000540072
0.000539229
0.000538417
0.0005377
0.000536999
0.000536387
0.000535783
0.00053526
0.000534734
0.000534285
0.000533834
0.000533444
0.000533048
0.000532717
0.000532371
0.000532082
0.000531777
0.000531525
0.00053126
0.000531049
0.000530824
0.000530637
0.00053044
0.000530289
0.000530105
0.000529984
0.00052982
0.000529715
0.000529569
0.000529482
0.000529357
0.00052928
0.000529174
0.000529075
0.000528987
0.000528943
0.000528882
0.000528852
0.000528793
0.000528768
0.000528715
0.000528709
0.00052869
0.000528717
0.000528715
0.000528766
0.000528766
0.000528833
0.000528845
0.000528924
0.000528944
0.00052903
0.000529062
0.000529161
0.000529203
0.000529321
0.00052937
0.000529515
0.000529562
0.000529713
0.000529998
0.000542184
0.000569012
0.00138376
0.0010241
0.000930974
0.00085534
0.000795502
0.000748943
0.000712713
0.000684314
0.000661716
0.000643517
0.000628616
0.0006163
0.00060597
0.00059725
0.000589795
0.000583394
0.000577838
0.000573
0.000568752
0.000565007
0.000561688
0.000558729
0.000556092
0.000553716
0.000551587
0.000549649
0.000547912
0.000546311
0.000544876
0.000543539
0.000542343
0.000541219
0.000540213
0.000539257
0.00053841
0.000537594
0.000536873
0.000536168
0.000535553
0.000534946
0.000534419
0.000533891
0.00053344
0.000532986
0.000532593
0.000532195
0.000531862
0.000531513
0.000531223
0.000530916
0.000530662
0.000530395
0.000530183
0.000529956
0.000529768
0.000529569
0.000529417
0.000529232
0.000529109
0.000528944
0.000528838
0.000528691
0.000528604
0.000528477
0.000528399
0.000528292
0.000528194
0.000528104
0.000528059
0.000527997
0.000527965
0.000527906
0.00052788
0.000527827
0.00052782
0.000527798
0.000527823
0.000527821
0.000527869
0.000527869
0.000527934
0.000527945
0.000528023
0.000528042
0.000528127
0.000528158
0.000528256
0.000528297
0.000528414
0.000528462
0.000528605
0.000528651
0.000528802
0.000529096
0.000541736
0.000568288
0.00137103
0.0010241
0.00093099
0.000855341
0.000795451
0.000748818
0.000712506
0.000684031
0.000661362
0.000643101
0.000628146
0.000615782
0.000605411
0.000596654
0.000589168
0.000582739
0.000577158
0.000572298
0.000568031
0.000564268
0.000560934
0.000557961
0.00055531
0.000552922
0.000550783
0.000548835
0.000547089
0.000545481
0.000544038
0.000542694
0.000541491
0.000540362
0.00053935
0.000538389
0.000537537
0.000536717
0.000535992
0.000535282
0.000534663
0.000534053
0.000533523
0.000532992
0.000532537
0.000532081
0.000531686
0.000531285
0.000530949
0.000530599
0.000530306
0.000529998
0.000529742
0.000529473
0.000529259
0.00052903
0.000528841
0.00052864
0.000528487
0.0005283
0.000528176
0.00052801
0.000527903
0.000527755
0.000527666
0.000527538
0.00052746
0.000527352
0.000527253
0.000527162
0.000527115
0.000527052
0.00052702
0.00052696
0.000526934
0.00052688
0.000526871
0.000526847
0.00052687
0.000526867
0.000526912
0.000526912
0.000526976
0.000526985
0.000527062
0.00052708
0.000527164
0.000527193
0.00052729
0.00052733
0.000527446
0.000527493
0.000527635
0.000527679
0.00052783
0.000528134
0.000541257
0.000567509
0.0013569
0.0010241
0.000931007
0.000855343
0.000795397
0.000748686
0.000712289
0.000683732
0.000660988
0.00064266
0.000627647
0.000615233
0.000604818
0.000596023
0.000588502
0.000582044
0.000576437
0.000571553
0.000567265
0.000563483
0.000560132
0.000557144
0.00055448
0.000552079
0.000549929
0.00054797
0.000546215
0.000544598
0.000543147
0.000541796
0.000540586
0.00053945
0.000538433
0.000537466
0.000536609
0.000535784
0.000535054
0.000534341
0.000533718
0.000533104
0.000532571
0.000532036
0.000531578
0.000531119
0.000530721
0.000530317
0.000529979
0.000529626
0.000529332
0.000529021
0.000528763
0.000528492
0.000528276
0.000528046
0.000527855
0.000527652
0.000527497
0.000527309
0.000527184
0.000527017
0.000526908
0.000526759
0.000526669
0.00052654
0.00052646
0.000526352
0.000526252
0.00052616
0.000526112
0.000526048
0.000526015
0.000525953
0.000525926
0.000525872
0.000525863
0.000525836
0.000525856
0.000525852
0.000525894
0.000525894
0.000525956
0.000525964
0.00052604
0.000526056
0.000526139
0.000526167
0.000526263
0.000526302
0.000526416
0.000526462
0.000526603
0.000526646
0.000526796
0.000527111
0.000540744
0.00056667
0.00134147
0.00102411
0.000931025
0.000855345
0.000795342
0.000748549
0.000712061
0.000683417
0.000660594
0.000642196
0.000627121
0.000614654
0.000604191
0.000595355
0.000587799
0.000581308
0.000575673
0.000570765
0.000566455
0.000562653
0.000559284
0.000556279
0.000553601
0.000551187
0.000549024
0.000547054
0.000545289
0.000543662
0.000542203
0.000540844
0.000539627
0.000538484
0.00053746
0.000536488
0.000535625
0.000534795
0.000534061
0.000533343
0.000532716
0.000532097
0.000531561
0.000531022
0.000530562
0.000530099
0.000529698
0.000529291
0.000528951
0.000528595
0.000528298
0.000527985
0.000527726
0.000527452
0.000527234
0.000527002
0.000526809
0.000526604
0.000526448
0.000526258
0.000526132
0.000525963
0.000525853
0.000525702
0.000525611
0.000525481
0.0005254
0.000525291
0.000525191
0.000525097
0.000525048
0.000524982
0.000524948
0.000524886
0.000524858
0.000524803
0.000524792
0.000524764
0.000524781
0.000524776
0.000524815
0.000524815
0.000524875
0.000524882
0.000524955
0.000524971
0.000525052
0.000525079
0.000525173
0.000525211
0.000525324
0.000525369
0.000525508
0.000525549
0.000525699
0.000526025
0.000540192
0.000565769
0.00132479
0.00102411
0.000931044
0.000855348
0.000795284
0.000748405
0.000711823
0.000683086
0.00066018
0.000641707
0.000626567
0.000614043
0.000603531
0.000594651
0.000587056
0.000580532
0.000574867
0.000569933
0.000565598
0.000561776
0.000558387
0.000555366
0.000552671
0.000550243
0.000548068
0.000546086
0.00054431
0.000542673
0.000541205
0.000539837
0.000538613
0.000537463
0.000536432
0.000535453
0.000534585
0.000533749
0.00053301
0.000532287
0.000531656
0.000531033
0.000530493
0.00052995
0.000529486
0.00052902
0.000528616
0.000528206
0.000527863
0.000527505
0.000527205
0.000526889
0.000526628
0.000526352
0.000526132
0.000525897
0.000525703
0.000525496
0.000525338
0.000525146
0.000525018
0.000524848
0.000524736
0.000524585
0.000524492
0.000524361
0.000524279
0.000524168
0.000524068
0.000523972
0.000523922
0.000523855
0.00052382
0.000523756
0.000523728
0.000523673
0.00052366
0.000523629
0.000523644
0.000523638
0.000523673
0.000523673
0.00052373
0.000523736
0.000523808
0.000523822
0.000523902
0.000523928
0.00052402
0.000524057
0.000524168
0.000524212
0.00052435
0.000524389
0.000524539
0.000524877
0.000539594
0.000564802
0.00130695
0.00102411
0.000931064
0.000855351
0.000795225
0.000748255
0.000711573
0.00068274
0.000659745
0.000641194
0.000625985
0.000613401
0.000602836
0.000593911
0.000586275
0.000579716
0.000574019
0.000569056
0.000564697
0.000560851
0.000557443
0.000554403
0.000551692
0.000549249
0.000547059
0.000545066
0.000543278
0.000541631
0.000540153
0.000538776
0.000537543
0.000536385
0.000535348
0.000534362
0.000533488
0.000532646
0.000531901
0.000531173
0.000530537
0.00052991
0.000529366
0.000528819
0.000528351
0.000527881
0.000527475
0.000527061
0.000526715
0.000526354
0.000526052
0.000525733
0.000525469
0.000525191
0.000524969
0.000524731
0.000524536
0.000524326
0.000524167
0.000523973
0.000523843
0.000523671
0.000523558
0.000523405
0.000523311
0.000523179
0.000523095
0.000522984
0.000522883
0.000522785
0.000522733
0.000522664
0.000522629
0.000522564
0.000522535
0.000522479
0.000522465
0.000522432
0.000522444
0.000522436
0.000522469
0.000522467
0.000522523
0.000522527
0.000522597
0.00052261
0.000522688
0.000522712
0.000522804
0.000522839
0.000522948
0.000522991
0.000523127
0.000523164
0.000523314
0.000523665
0.000538944
0.000563769
0.00128802
0.00102411
0.000931085
0.000855355
0.000795164
0.0007481
0.000711313
0.000682379
0.000659291
0.000640658
0.000625376
0.000612728
0.000602107
0.000593134
0.000585455
0.000578858
0.000573128
0.000568135
0.000563749
0.00055988
0.00055645
0.00055339
0.000550662
0.000548203
0.000545999
0.000543992
0.000542192
0.000540533
0.000539045
0.000537659
0.000536417
0.000535251
0.000534206
0.000533214
0.000532332
0.000531484
0.000530734
0.000530001
0.00052936
0.000528728
0.000528179
0.000527628
0.000527156
0.000526682
0.000526272
0.000525855
0.000525506
0.000525141
0.000524837
0.000524516
0.000524249
0.000523968
0.000523744
0.000523504
0.000523306
0.000523094
0.000522933
0.000522737
0.000522606
0.000522432
0.000522317
0.000522162
0.000522067
0.000521933
0.000521848
0.000521736
0.000521635
0.000521535
0.000521482
0.000521411
0.000521374
0.000521308
0.000521279
0.000521221
0.000521206
0.00052117
0.00052118
0.000521171
0.0005212
0.000521198
0.00052125
0.000521254
0.000521322
0.000521333
0.00052141
0.000521432
0.000521522
0.000521556
0.000521663
0.000521705
0.00052184
0.000521875
0.000522024
0.000522388
0.000538231
0.000562664
0.00126809
0.00102411
0.000931106
0.000855359
0.000795101
0.000747939
0.000711043
0.000682003
0.000658817
0.000640097
0.000624738
0.000612024
0.000601345
0.00059232
0.000584596
0.000577958
0.000572193
0.000567169
0.000562755
0.00055886
0.000555408
0.000552328
0.000549581
0.000547105
0.000544886
0.000542864
0.000541051
0.000539381
0.000537882
0.000536486
0.000535235
0.00053406
0.000533007
0.000532007
0.000531119
0.000530264
0.000529508
0.000528769
0.000528123
0.000527485
0.000526932
0.000526377
0.0005259
0.000525422
0.000525009
0.000524588
0.000524236
0.000523868
0.00052356
0.000523236
0.000522967
0.000522683
0.000522456
0.000522213
0.000522014
0.000521799