/*--------------------------------*- C++ -*----------------------------------*\
| =========                 |                                                 |
| \\      /  F ield         | OpenFOAM: The Open Source CFD Toolbox           |
|  \\    /   O peration     | Version:  v2012                                 |
|   \\  /    A nd           | Website:  www.openfoam.com                      |
|    \\/     M anipulation  |                                                 |
\*---------------------------------------------------------------------------*/
FoamFile
{
    version     2.0;
    format      ascii;
    class       volScalarField;
    location    "39";
    object      yPlus;
}
// * * * * * * * * * * * * * * * * * * * * * * * * * * * * * * * * * * * * * //

dimensions      [0 0 0 0 0 0 0];


internalField   uniform 0;

boundaryField
{
    inlet
    {
        type            calculated;
        value           uniform 0;
    }
    outlet
    {
        type            calculated;
        value           uniform 0;
    }
    topWall
    {
        type            calculated;
        value           nonuniform List<scalar> 
545
(
0.111321
0.19195
0.246254
0.289471
0.326059
0.358074
0.386672
0.41258
0.436292
0.458165
0.478466
0.497399
0.515129
0.531789
0.547488
0.562318
0.576358
0.589674
0.602326
0.614363
0.625831
0.63677
0.647215
0.657199
0.666751
0.675896
0.68466
0.693063
0.701126
0.708867
0.716303
0.723451
0.730324
0.736937
0.743302
0.749431
0.755335
0.761025
0.766509
0.771798
0.7769
0.781823
0.786575
0.791163
0.795593
0.799873
0.804009
0.808005
0.811869
0.815604
0.819217
0.822711
0.826091
0.829363
0.832529
0.835593
0.83856
0.841433
0.844216
0.846911
0.849522
0.852051
0.854503
0.856878
0.859181
0.861413
0.863577
0.865676
0.86771
0.869684
0.871598
0.873455
0.875233
0.876954
0.87866
0.880354
0.882034
0.8837
0.885354
0.886995
0.888623
0.890238
0.89184
0.893431
0.895008
0.896574
0.898127
0.899669
0.901199
0.902716
0.904223
0.905717
0.907201
0.908673
0.910134
0.911584
0.91289
0.914059
0.915227
0.916395
0.917564
0.918732
0.9199
0.921068
0.922235
0.923403
0.92457
0.925737
0.926904
0.928071
0.929238
0.930404
0.931571
0.932737
0.933903
0.935068
0.936233
0.937399
0.938564
0.939728
0.940893
0.942057
0.94322
0.944384
0.945547
0.94671
0.947873
0.949035
0.950197
0.951359
0.95252
0.953682
0.954842
0.956003
0.957163
0.958322
0.959481
0.96064
0.961799
0.962957
0.964114
0.965272
0.966428
0.967585
0.968741
0.969896
0.971051
0.972205
0.973359
0.974513
0.975666
0.976819
0.977971
0.979122
0.980273
0.981424
0.982573
0.983723
0.984871
0.98602
0.987167
0.988314
0.989461
0.990606
0.991752
0.992896
0.99404
0.995183
0.996326
0.997468
0.998609
0.999749
1.00089
1.00203
1.00317
1.0043
1.00544
1.00658
1.00771
1.00885
1.00998
1.01111
1.01225
1.01338
1.01451
1.01564
1.01677
1.0179
1.01902
1.02015
1.02128
1.0224
1.02352
1.02465
1.02577
1.02689
1.02801
1.02913
1.03025
1.03136
1.03248
1.03359
1.03471
1.03582
1.03693
1.03804
1.03915
1.04026
1.04137
1.04248
1.04358
1.04469
1.04579
1.04689
1.04799
1.04909
1.05019
1.05129
1.05239
1.05348
1.05457
1.05567
1.05676
1.05785
1.05894
1.06002
1.06111
1.0622
1.06328
1.06436
1.06544
1.06652
1.0676
1.06868
1.06975
1.07082
1.0719
1.07297
1.07404
1.07511
1.07617
1.07724
1.0783
1.07936
1.08042
1.08148
1.08254
1.0836
1.08465
1.0857
1.08675
1.0878
1.08885
1.0899
1.09094
1.09199
1.09303
1.09407
1.0951
1.09614
1.09717
1.09821
1.09924
1.10027
1.10129
1.10232
1.10334
1.10436
1.10538
1.10634
1.10725
1.10816
1.10908
1.11001
1.11094
1.11188
1.11283
1.11378
1.11474
1.1157
1.11667
1.11765
1.11863
1.11962
1.12062
1.12162
1.12263
1.12364
1.12466
1.12569
1.12673
1.12777
1.12881
1.12986
1.13092
1.13198
1.13305
1.13413
1.13521
1.1363
1.13739
1.13849
1.1396
1.14071
1.14183
1.14295
1.14407
1.14521
1.14635
1.14749
1.14864
1.14979
1.15095
1.15211
1.15328
1.15446
1.15563
1.15682
1.158
1.1592
1.16039
1.16159
1.1628
1.16401
1.16522
1.16644
1.16766
1.16888
1.17011
1.17134
1.17257
1.17381
1.17504
1.17629
1.17753
1.17878
1.18003
1.18128
1.18253
1.18379
1.18504
1.1863
1.18756
1.18882
1.19008
1.19134
1.1926
1.19386
1.19513
1.19639
1.19765
1.19891
1.20017
1.20143
1.20269
1.20394
1.2052
1.20645
1.2077
1.20894
1.21019
1.21143
1.21267
1.2139
1.21513
1.21636
1.21758
1.21879
1.22001
1.22121
1.22241
1.22361
1.22479
1.22598
1.22715
1.22832
1.22948
1.23063
1.23177
1.23291
1.23404
1.23515
1.23626
1.23736
1.23844
1.23952
1.24059
1.24164
1.24269
1.24372
1.24473
1.24574
1.24673
1.24771
1.24868
1.24963
1.25057
1.25149
1.2524
1.25329
1.25417
1.25502
1.25587
1.25669
1.2575
1.25829
1.25907
1.25982
1.26056
1.26127
1.26197
1.26265
1.26331
1.26395
1.26456
1.26516
1.26574
1.26629
1.26682
1.26733
1.26782
1.26829
1.26873
1.26915
1.26955
1.26992
1.27027
1.27059
1.2709
1.27117
1.27143
1.27165
1.27186
1.27204
1.27219
1.27232
1.27242
1.2725
1.27255
1.27258
1.27258
1.27255
1.2725
1.27243
1.27233
1.2722
1.27205
1.27187
1.27167
1.27144
1.27116
1.27082
1.27044
1.27004
1.2696
1.26914
1.26866
1.26815
1.26762
1.26706
1.26649
1.2659
1.26529
1.26466
1.26402
1.26336
1.26269
1.26201
1.26131
1.26061
1.25989
1.25917
1.25844
1.2577
1.25696
1.25621
1.25545
1.2547
1.25394
1.25317
1.25241
1.25164
1.25088
1.25011
1.24935
1.24858
1.24782
1.24706
1.24631
1.24556
1.24481
1.24407
1.24333
1.2426
1.24187
1.24116
1.24045
1.23974
1.23905
1.23836
1.23768
1.23702
1.23636
1.23571
1.23507
1.23444
1.23383
1.23322
1.23263
1.23205
1.23148
1.23093
1.23039
1.22986
1.22934
1.22884
1.22836
1.22788
1.22743
1.22699
1.22656
1.22615
1.22575
1.22537
1.22501
1.22466
1.22433
1.22402
1.22372
1.22344
1.22318
1.22294
1.22271
1.2225
1.22231
1.22213
1.22197
1.22184
1.22172
1.22161
1.22153
1.22146
1.22142
1.22139
1.22137
)
;
    }
    bottomWall
    {
        type            calculated;
        value           nonuniform List<scalar> 
449
(
0.139405
0.0889401
0.0758058
0.0694566
0.0653095
0.0622511
0.059893
0.0581325
0.0570792
0.0571237
0.0594988
0.0635618
0.0666874
0.0685217
0.0695102
0.0700376
0.0702869
0.070356
0.0702937
0.0701602
0.0699753
0.0697603
0.0695296
0.0692923
0.0690538
0.0688174
0.0685847
0.0683572
0.0681358
0.0679208
0.0677123
0.0675103
0.0673146
0.0671251
0.0669415
0.0667633
0.0665904
0.0664227
0.0662599
0.0661018
0.0659483
0.065799
0.0656538
0.0655124
0.0653747
0.0652406
0.0651098
0.0649821
0.0648576
0.0647357
0.0646161
0.0644987
0.0643834
0.06427
0.0641587
0.0640493
0.063942
0.0638365
0.063733
0.0636313
0.0635314
0.0634332
0.0633366
0.0632417
0.0631484
0.0630567
0.0629664
0.0628775
0.0627901
0.062704
0.0626192
0.0625356
0.0624533
0.0623722
0.0622922
0.0622134
0.0621357
0.0620591
0.0619836
0.0619092
0.0618358
0.0617633
0.0616918
0.0616213
0.0615517
0.0614829
0.0614151
0.0613481
0.0612819
0.0612165
0.0611519
0.0610881
0.061025
0.0609626
0.060901
0.0608401
0.0607799
0.0607204
0.0606615
0.0606032
0.0605456
0.0604885
0.060432
0.0603761
0.0603208
0.060266
0.0602118
0.0601582
0.060105
0.0600524
0.0600003
0.0599487
0.0598976
0.059847
0.0597968
0.0597472
0.0596979
0.0596491
0.0596008
0.0595529
0.0595054
0.0594583
0.0594116
0.0593653
0.0593195
0.059274
0.0592288
0.0591841
0.0591397
0.0590957
0.059052
0.0590087
0.0589657
0.0589231
0.0588808
0.0588388
0.0587971
0.0587557
0.0587147
0.058674
0.0586335
0.0585934
0.0585535
0.0585139
0.0584746
0.0584356
0.0583969
0.0583584
0.0583201
0.0582821
0.0582443
0.0582068
0.0581696
0.0581326
0.0580958
0.0580593
0.058023
0.0579869
0.0579511
0.0579155
0.0578801
0.057845
0.05781
0.0577753
0.0577408
0.0577065
0.0576724
0.0576385
0.0576048
0.0575713
0.057538
0.0575048
0.0574719
0.0574411
0.057412
0.0573828
0.0573535
0.0573241
0.0572946
0.057265
0.0572353
0.0572056
0.0571757
0.0571457
0.0571155
0.0570853
0.0570551
0.0570247
0.0569941
0.0569635
0.0569329
0.0569021
0.0568712
0.0568402
0.0568091
0.0567779
0.0567467
0.0567153
0.0566838
0.0566523
0.0566207
0.0565889
0.0565571
0.0565252
0.0564932
0.0564611
0.0564289
0.0563967
0.0563643
0.0563319
0.0562994
0.0562668
0.056234
0.0562012
0.0561683
0.0561353
0.0561023
0.0560691
0.0560359
0.0560026
0.0559692
0.0559358
0.0559022
0.0558686
0.0558349
0.0558012
0.0557674
0.0557335
0.0556995
0.0556654
0.0556313
0.0555972
0.0555629
0.0555286
0.0554942
0.0554598
0.0554253
0.0553907
0.0553561
0.0553214
0.0552866
0.0552518
0.055217
0.055182
0.055147
0.055112
0.0550769
0.0550418
0.0550065
0.0549713
0.054936
0.0549006
0.0548652
0.0548298
0.0547943
0.0547587
0.0547232
0.0546875
0.0546519
0.0546161
0.0545804
0.0545446
0.0545088
0.0544729
0.054437
0.0544011
0.0543651
0.0543291
0.054293
0.054257
0.0542209
0.0541848
0.0541486
0.0541124
0.0540761
0.0540398
0.0540036
0.0539672
0.0539309
0.0538945
0.0538582
0.0538218
0.0537854
0.053749
0.0537125
0.0536761
0.0536396
0.0536032
0.0535667
0.0535303
0.0534938
0.0534573
0.0534209
0.0533844
0.0533479
0.0533114
0.053275
0.0532385
0.0532021
0.0531656
0.0531292
0.0530928
0.0530563
0.0530199
0.0529835
0.0529471
0.0529108
0.0528744
0.0528381
0.0528018
0.0527655
0.0527292
0.052693
0.0526567
0.0526206
0.0525844
0.0525482
0.0525121
0.052476
0.0524399
0.0524039
0.0523679
0.0523319
0.052296
0.0522601
0.0522242
0.0521883
0.0521525
0.0521167
0.052081
0.0520453
0.0520096
0.0519739
0.0519383
0.0519027
0.0518671
0.0518316
0.0517962
0.0517608
0.0517254
0.0516901
0.0516548
0.0516196
0.0515844
0.0515493
0.0515142
0.0514792
0.0514442
0.0514093
0.0513745
0.0513397
0.0513049
0.0512703
0.0512356
0.0511971
0.0511553
0.0511141
0.0510734
0.0510334
0.0509939
0.050955
0.0509167
0.0508789
0.0508415
0.0508048
0.0507685
0.0507327
0.0506974
0.0506625
0.0506281
0.0505942
0.0505606
0.0505276
0.0504949
0.0504626
0.0504307
0.0503993
0.0503681
0.0503374
0.050307
0.0502771
0.0502474
0.0502181
0.0501891
0.0501605
0.0501321
0.0501041
0.0500764
0.050049
0.0500219
0.0499951
0.0499685
0.0499423
0.0499163
0.0498906
0.0498651
0.0498399
0.0498149
0.0497903
0.0497658
0.0497416
0.0497176
0.0496939
0.0496704
0.0496471
0.049624
0.0496012
0.0495785
0.0495562
0.0495339
0.0495119
0.0494901
0.0494685
0.049447
0.0494259
0.0494047
0.0493839
0.0493632
0.0493427
0.0493223
0.0493022
0.0492821
0.0492624
0.0492426
0.0492232
0.0492037
0.0491846
0.0491654
0.0491466
0.0491276
0.0491092
0.0490905
0.0490724
0.0490539
0.0490361
0.0490178
0.0490003
0.0489822
0.0489649
0.0489471
0.0489299
0.0489125
0.0488949
0.0488789
0.0488587
0.0488482
0.0488182
0.0488245
0.0487837
)
;
    }
    symmetry
    {
        type            symmetryPlane;
    }
    frontAndBack
    {
        type            empty;
    }
}


// ************************************************************************* //
