/*--------------------------------*- C++ -*----------------------------------*\
| =========                 |                                                 |
| \\      /  F ield         | OpenFOAM: The Open Source CFD Toolbox           |
|  \\    /   O peration     | Version:  v2012                                 |
|   \\  /    A nd           | Website:  www.openfoam.com                      |
|    \\/     M anipulation  |                                                 |
\*---------------------------------------------------------------------------*/
FoamFile
{
    version     2.0;
    format      ascii;
    class       volScalarField;
    location    "7";
    object      p;
}
// * * * * * * * * * * * * * * * * * * * * * * * * * * * * * * * * * * * * * //

dimensions      [0 2 -2 0 0 0 0];


internalField   nonuniform List<scalar> 
209825
(
6.99532
6.99808
7.00492
7.01525
7.02849
7.04444
7.063
7.08409
7.10759
7.13339
7.1614
7.19155
7.22379
7.25805
7.29428
7.33245
7.37252
7.41447
7.45827
7.50391
7.55137
7.60063
7.65171
7.70459
7.75929
7.81579
7.87413
7.9343
7.99632
8.06022
8.12601
8.19372
8.26339
8.33503
8.40869
8.4844
8.56222
8.64217
8.72431
8.8087
8.89539
8.98444
9.07591
9.16988
9.26643
9.36562
9.46755
9.57231
9.67999
9.7907
9.90456
10.0217
10.1422
10.2662
10.3939
10.5254
10.6609
10.8006
10.9447
11.0934
11.2468
11.4054
11.5692
11.7387
11.9141
12.0957
12.284
12.4793
12.6822
12.8929
13.1122
13.3406
13.5757
13.8201
14.081
14.3603
14.6607
14.9849
15.3361
15.7184
16.1365
16.5966
17.1061
17.6745
18.3143
19.0418
19.8789
20.8572
22.0183
23.4383
25.1942
27.5673
30.5796
36.1446
42.4347
75.1923
6.99532
6.99808
7.00492
7.01525
7.02849
7.04444
7.063
7.08409
7.10759
7.13339
7.1614
7.19155
7.22379
7.25805
7.29428
7.33245
7.37252
7.41447
7.45827
7.50391
7.55137
7.60063
7.65171
7.70459
7.75929
7.81579
7.87413
7.9343
7.99632
8.06022
8.12601
8.19372
8.26339
8.33503
8.40869
8.4844
8.56222
8.64217
8.72431
8.8087
8.89539
8.98444
9.07591
9.16988
9.26643
9.36562
9.46755
9.57231
9.67999
9.7907
9.90456
10.0217
10.1422
10.2662
10.3939
10.5254
10.6609
10.8006
10.9447
11.0934
11.2468
11.4054
11.5692
11.7387
11.9141
12.0957
12.284
12.4793
12.6822
12.8929
13.1122
13.3406
13.5757
13.8201
14.081
14.3603
14.6607
14.9849
15.3361
15.7184
16.1365
16.5966
17.106
17.6745
18.3143
19.0418
19.8789
20.8571
22.0182
23.4382
25.1941
27.567
30.5792
36.1422
42.4138
74.5552
6.99532
6.99808
7.00492
7.01525
7.02849
7.04444
7.063
7.08409
7.10759
7.13339
7.1614
7.19155
7.22379
7.25805
7.29428
7.33245
7.37252
7.41447
7.45827
7.50391
7.55137
7.60063
7.65171
7.70459
7.75929
7.81579
7.87413
7.9343
7.99632
8.06022
8.12601
8.19372
8.26339
8.33503
8.40869
8.4844
8.56222
8.64217
8.72431
8.8087
8.89539
8.98444
9.07591
9.16988
9.26643
9.36562
9.46755
9.57231
9.67999
9.7907
9.90455
10.0217
10.1422
10.2662
10.3939
10.5254
10.6609
10.8006
10.9447
11.0934
11.2468
11.4054
11.5692
11.7387
11.9141
12.0957
12.284
12.4793
12.6821
12.8929
13.1122
13.3406
13.5757
13.8201
14.081
14.3603
14.6607
14.9849
15.3361
15.7183
16.1365
16.5965
17.106
17.6745
18.3142
19.0417
19.8788
20.857
22.0181
23.438
25.1938
27.5665
30.5784
36.1381
42.3915
73.7854
6.99532
6.99808
7.00492
7.01525
7.02849
7.04444
7.063
7.08409
7.10759
7.13339
7.1614
7.19155
7.22379
7.25805
7.29428
7.33245
7.37252
7.41447
7.45827
7.50391
7.55137
7.60063
7.65171
7.70459
7.75929
7.81579
7.87413
7.9343
7.99632
8.06022
8.12601
8.19372
8.26339
8.33503
8.40869
8.4844
8.56221
8.64217
8.72431
8.8087
8.89539
8.98444
9.07591
9.16988
9.26643
9.36562
9.46755
9.57231
9.67999
9.7907
9.90455
10.0217
10.1422
10.2662
10.3939
10.5254
10.6609
10.8006
10.9447
11.0934
11.2468
11.4054
11.5692
11.7387
11.9141
12.0957
12.284
12.4793
12.6821
12.8929
13.1122
13.3406
13.5757
13.8201
14.0809
14.3603
14.6607
14.9849
15.3361
15.7183
16.1365
16.5965
17.106
17.6744
18.3142
19.0416
19.8787
20.8569
22.0179
23.4377
25.1934
27.5657
30.5772
36.1323
42.3715
73.0235
6.99532
6.99808
7.00492
7.01525
7.02849
7.04444
7.063
7.08409
7.10759
7.13339
7.1614
7.19155
7.22379
7.25804
7.29428
7.33245
7.37252
7.41447
7.45827
7.50391
7.55136
7.60063
7.65171
7.70459
7.75929
7.81579
7.87413
7.9343
7.99632
8.06022
8.12601
8.19372
8.26339
8.33503
8.40869
8.4844
8.56221
8.64217
8.72431
8.8087
8.89539
8.98443
9.07591
9.16988
9.26642
9.36562
9.46755
9.5723
9.67999
9.7907
9.90455
10.0217
10.1422
10.2662
10.3939
10.5254
10.6609
10.8006
10.9447
11.0934
11.2468
11.4054
11.5692
11.7387
11.9141
12.0957
12.284
12.4793
12.6821
12.8929
13.1122
13.3406
13.5757
13.8201
14.0809
14.3603
14.6607
14.9848
15.3361
15.7183
16.1364
16.5965
17.1059
17.6743
18.3141
19.0415
19.8785
20.8567
22.0177
23.4374
25.1928
27.5647
30.5756
36.1248
42.3517
72.2743
6.99532
6.99808
7.00492
7.01525
7.02849
7.04444
7.063
7.08409
7.10759
7.13339
7.1614
7.19155
7.22379
7.25804
7.29428
7.33245
7.37252
7.41447
7.45827
7.50391
7.55136
7.60063
7.65171
7.70459
7.75929
7.81579
7.87413
7.9343
7.99632
8.06022
8.12601
8.19372
8.26338
8.33503
8.40869
8.4844
8.56221
8.64217
8.72431
8.8087
8.89539
8.98443
9.07591
9.16988
9.26642
9.36562
9.46755
9.5723
9.67999
9.7907
9.90455
10.0217
10.1422
10.2662
10.3939
10.5254
10.6609
10.8006
10.9447
11.0934
11.2468
11.4054
11.5692
11.7387
11.9141
12.0957
12.284
12.4793
12.6821
12.8929
13.1122
13.3406
13.5756
13.8201
14.0809
14.3603
14.6607
14.9848
15.336
15.7182
16.1364
16.5964
17.1058
17.6742
18.314
19.0414
19.8783
20.8565
22.0173
23.4369
25.1921
27.5633
30.5736
36.1153
42.3297
71.5288
6.99532
6.99808
7.00492
7.01525
7.02849
7.04444
7.063
7.08409
7.10759
7.13339
7.1614
7.19155
7.22379
7.25804
7.29428
7.33245
7.37252
7.41447
7.45827
7.50391
7.55136
7.60063
7.65171
7.70459
7.75928
7.81579
7.87413
7.9343
7.99632
8.06022
8.12601
8.19372
8.26338
8.33503
8.40869
8.4844
8.56221
8.64217
8.72431
8.8087
8.89538
8.98443
9.07591
9.16988
9.26642
9.36561
9.46754
9.5723
9.67998
9.79069
9.90455
10.0217
10.1422
10.2662
10.3939
10.5254
10.6609
10.8006
10.9447
11.0934
11.2468
11.4054
11.5692
11.7387
11.914
12.0957
12.284
12.4793
12.6821
12.8929
13.1122
13.3405
13.5756
13.82
14.0809
14.3602
14.6606
14.9848
15.336
15.7182
16.1363
16.5963
17.1057
17.6741
18.3138
19.0412
19.8781
20.8562
22.0169
23.4362
25.1912
27.5616
30.571
36.1039
42.3041
70.7841
6.99532
6.99808
7.00492
7.01525
7.02849
7.04444
7.063
7.08409
7.10759
7.13339
7.1614
7.19155
7.22379
7.25804
7.29428
7.33245
7.37252
7.41447
7.45827
7.50391
7.55136
7.60063
7.65171
7.70459
7.75928
7.81579
7.87412
7.93429
7.99632
8.06022
8.12601
8.19372
8.26338
8.33503
8.40869
8.4844
8.56221
8.64216
8.72431
8.8087
8.89538
8.98443
9.07591
9.16988
9.26642
9.36561
9.46754
9.5723
9.67998
9.79069
9.90454
10.0217
10.1422
10.2662
10.3939
10.5254
10.6609
10.8006
10.9447
11.0933
11.2468
11.4053
11.5692
11.7387
11.914
12.0957
12.284
12.4793
12.6821
12.8929
13.1122
13.3405
13.5756
13.82
14.0808
14.3602
14.6606
14.9847
15.3359
15.7181
16.1362
16.5962
17.1056
17.674
18.3137
19.041
19.8778
20.8558
22.0164
23.4355
25.1901
27.5596
30.568
36.0904
42.2748
70.0397
6.99532
6.99808
7.00492
7.01525
7.02849
7.04444
7.063
7.08409
7.10759
7.13339
7.1614
7.19155
7.22379
7.25804
7.29428
7.33245
7.37252
7.41447
7.45827
7.50391
7.55136
7.60063
7.65171
7.70459
7.75928
7.81579
7.87412
7.93429
7.99632
8.06022
8.12601
8.19372
8.26338
8.33503
8.40869
8.4844
8.56221
8.64216
8.72431
8.80869
8.89538
8.98443
9.0759
9.16988
9.26642
9.36561
9.46754
9.5723
9.67998
9.79069
9.90454
10.0217
10.1422
10.2662
10.3939
10.5254
10.6609
10.8006
10.9447
11.0933
11.2468
11.4053
11.5692
11.7386
11.914
12.0957
12.2839
12.4793
12.6821
12.8928
13.1121
13.3405
13.5756
13.82
14.0808
14.3602
14.6605
14.9847
15.3358
15.718
16.1361
16.5961
17.1055
17.6738
18.3135
19.0408
19.8775
20.8554
22.0158
23.4346
25.1889
27.5572
30.5645
36.0747
42.2418
69.2955
6.99532
6.99808
7.00492
7.01525
7.02849
7.04444
7.063
7.08409
7.10759
7.13339
7.1614
7.19155
7.22379
7.25804
7.29428
7.33245
7.37252
7.41447
7.45827
7.50391
7.55136
7.60063
7.65171
7.70459
7.75928
7.81579
7.87412
7.93429
7.99632
8.06021
8.12601
8.19372
8.26338
8.33502
8.40868
8.4844
8.56221
8.64216
8.72431
8.80869
8.89538
8.98443
9.0759
9.16987
9.26642
9.36561
9.46754
9.57229
9.67997
9.79068
9.90454
10.0216
10.1421
10.2662
10.3939
10.5254
10.6609
10.8006
10.9447
11.0933
11.2468
11.4053
11.5692
11.7386
11.914
12.0957
12.2839
12.4792
12.682
12.8928
13.1121
13.3405
13.5755
13.8199
14.0808
14.3601
14.6605
14.9846
15.3358
15.718
16.136
16.596
17.1053
17.6737
18.3132
19.0405
19.8772
20.8549
22.0151
23.4336
25.1874
27.5545
30.5603
36.0569
42.2052
68.5515
6.99532
6.99808
7.00492
7.01525
7.02849
7.04444
7.063
7.08409
7.10759
7.13339
7.1614
7.19155
7.22379
7.25804
7.29428
7.33245
7.37252
7.41447
7.45827
7.50391
7.55136
7.60063
7.65171
7.70459
7.75928
7.81579
7.87412
7.93429
7.99632
8.06021
8.12601
8.19372
8.26338
8.33502
8.40868
8.4844
8.56221
8.64216
8.7243
8.80869
8.89538
8.98443
9.0759
9.16987
9.26641
9.3656
9.46753
9.57229
9.67997
9.79068
9.90453
10.0216
10.1421
10.2662
10.3939
10.5254
10.6609
10.8006
10.9447
11.0933
11.2468
11.4053
11.5692
11.7386
11.914
12.0956
12.2839
12.4792
12.682
12.8928
13.1121
13.3404
13.5755
13.8199
14.0807
14.36
14.6604
14.9845
15.3357
15.7179
16.1359
16.5958
17.1052
17.6734
18.313
19.0401
19.8767
20.8543
22.0144
23.4325
25.1857
27.5513
30.5556
36.0369
42.1647
67.808
6.99532
6.99808
7.00492
7.01525
7.02849
7.04444
7.063
7.08409
7.10759
7.13339
7.1614
7.19155
7.22379
7.25804
7.29428
7.33245
7.37252
7.41447
7.45827
7.50391
7.55136
7.60063
7.65171
7.70459
7.75928
7.81579
7.87412
7.93429
7.99632
8.06021
8.126
8.19372
8.26338
8.33502
8.40868
8.4844
8.56221
8.64216
8.7243
8.80869
8.89537
8.98442
9.0759
9.16987
9.26641
9.3656
9.46753
9.57229
9.67997
9.79068
9.90453
10.0216
10.1421
10.2662
10.3939
10.5254
10.6609
10.8006
10.9447
11.0933
11.2468
11.4053
11.5691
11.7386
11.914
12.0956
12.2839
12.4792
12.682
12.8928
13.112
13.3404
13.5754
13.8198
14.0806
14.36
14.6603
14.9844
15.3356
15.7177
16.1358
16.5957
17.105
17.6732
18.3127
19.0398
19.8762
20.8537
22.0135
23.4312
25.1838
27.5478
30.5503
36.0146
42.1203
67.0653
6.99532
6.99808
7.00492
7.01525
7.02849
7.04444
7.063
7.08409
7.10759
7.13339
7.1614
7.19155
7.22379
7.25804
7.29428
7.33245
7.37252
7.41447
7.45827
7.50391
7.55136
7.60063
7.65171
7.70459
7.75928
7.81579
7.87412
7.93429
7.99631
8.06021
8.126
8.19372
8.26338
8.33502
8.40868
8.48439
8.5622
8.64216
8.7243
8.80869
8.89537
8.98442
9.07589
9.16986
9.26641
9.3656
9.46753
9.57228
9.67996
9.79067
9.90452
10.0216
10.1421
10.2661
10.3938
10.5254
10.6609
10.8006
10.9446
11.0933
11.2468
11.4053
11.5691
11.7386
11.9139
12.0956
12.2839
12.4792
12.682
12.8927
13.112
13.3403
13.5754
13.8198
14.0806
14.3599
14.6602
14.9843
15.3355
15.7176
16.1356
16.5955
17.1048
17.6729
18.3123
19.0394
19.8757
20.8529
22.0125
23.4298
25.1817
27.5439
30.5443
35.99
42.0719
66.3238
6.99532
6.99808
7.00492
7.01525
7.02849
7.04443
7.063
7.08409
7.10759
7.13339
7.1614
7.19155
7.22378
7.25804
7.29428
7.33245
7.37252
7.41447
7.45827
7.50391
7.55136
7.60063
7.65171
7.70459
7.75928
7.81579
7.87412
7.93429
7.99631
8.06021
8.126
8.19371
8.26338
8.33502
8.40868
8.48439
8.5622
8.64215
8.7243
8.80868
8.89537
8.98442
9.07589
9.16986
9.2664
9.36559
9.46752
9.57228
9.67996
9.79066
9.90451
10.0216
10.1421
10.2661
10.3938
10.5254
10.6609
10.8006
10.9446
11.0933
11.2467
11.4053
11.5691
11.7386
11.9139
12.0956
12.2838
12.4791
12.6819
12.8927
13.1119
13.3403
13.5753
13.8197
14.0805
14.3598
14.6601
14.9842
15.3353
15.7175
16.1354
16.5953
17.1045
17.6726
18.312
19.0389
19.8751
20.8522
22.0114
23.4282
25.1794
27.5395
30.5376
35.9631
42.0194
65.5837
6.99532
6.99808
7.00492
7.01525
7.02849
7.04443
7.063
7.08409
7.10759
7.13339
7.1614
7.19155
7.22378
7.25804
7.29428
7.33245
7.37252
7.41447
7.45827
7.5039
7.55136
7.60063
7.6517
7.70459
7.75928
7.81579
7.87412
7.93429
7.99631
8.06021
8.126
8.19371
8.26337
8.33502
8.40868
8.48439
8.5622
8.64215
8.72429
8.80868
8.89537
8.98441
9.07589
9.16986
9.2664
9.36559
9.46752
9.57227
9.67995
9.79066
9.90451
10.0216
10.1421
10.2661
10.3938
10.5253
10.6609
10.8005
10.9446
11.0933
11.2467
11.4052
11.5691
11.7385
11.9139
12.0955
12.2838
12.4791
12.6819
12.8926
13.1119
13.3402
13.5753
13.8196
14.0804
14.3597
14.66
14.9841
15.3352
15.7173
16.1353
16.5951
17.1043
17.6723
18.3116
19.0384
19.8745
20.8513
22.0102
23.4264
25.1767
27.5347
30.5302
35.9337
41.9627
64.8452
6.99532
6.99808
7.00492
7.01525
7.02849
7.04443
7.063
7.08409
7.10759
7.13338
7.1614
7.19155
7.22378
7.25804
7.29428
7.33245
7.37252
7.41447
7.45827
7.5039
7.55136
7.60063
7.6517
7.70459
7.75928
7.81579
7.87412
7.93429
7.99631
8.06021
8.126
8.19371
8.26337
8.33502
8.40867
8.48439
8.5622
8.64215
8.72429
8.80868
8.89536
8.98441
9.07588
9.16985
9.26639
9.36558
9.46751
9.57226
9.67994
9.79065
9.9045
10.0216
10.1421
10.2661
10.3938
10.5253
10.6608
10.8005
10.9446
11.0932
11.2467
11.4052
11.5691
11.7385
11.9139
12.0955
12.2838
12.4791
12.6818
12.8926
13.1118
13.3402
13.5752
13.8196
14.0803
14.3596
14.6599
14.984
15.3351
15.7171
16.1351
16.5948
17.104
17.672
18.3111
19.0378
19.8737
20.8503
22.0089
23.4245
25.1739
27.5294
30.5221
35.9019
41.9016
64.1087
6.99532
6.99808
7.00492
7.01525
7.02849
7.04443
7.063
7.08409
7.10759
7.13338
7.1614
7.19155
7.22378
7.25804
7.29428
7.33245
7.37252
7.41447
7.45827
7.5039
7.55136
7.60063
7.6517
7.70459
7.75928
7.81578
7.87412
7.93429
7.99631
8.06021
8.126
8.19371
8.26337
8.33501
8.40867
8.48438
8.56219
8.64215
8.72429
8.80867
8.89536
8.98441
9.07588
9.16985
9.26639
9.36558
9.4675
9.57226
9.67993
9.79064
9.90449
10.0216
10.1421
10.2661
10.3938
10.5253
10.6608
10.8005
10.9446
11.0932
11.2467
11.4052
11.569
11.7385
11.9138
12.0955
12.2837
12.479
12.6818
12.8925
13.1118
13.3401
13.5751
13.8195
14.0802
14.3595
14.6598
14.9838
15.3349
15.7169
16.1348
16.5946
17.1036
17.6716
18.3106
19.0372
19.8729
20.8492
22.0074
23.4223
25.1707
27.5236
30.5131
35.8677
41.8361
63.3744
6.99531
6.99808
7.00492
7.01525
7.02849
7.04443
7.063
7.08409
7.10759
7.13338
7.1614
7.19155
7.22378
7.25804
7.29427
7.33245
7.37252
7.41447
7.45827
7.5039
7.55136
7.60063
7.6517
7.70458
7.75928
7.81578
7.87412
7.93428
7.99631
8.0602
8.126
8.19371
8.26337
8.33501
8.40867
8.48438
8.56219
8.64214
8.72428
8.80867
8.89535
8.9844
9.07587
9.16984
9.26638
9.36557
9.4675
9.57225
9.67993
9.79063
9.90448
10.0216
10.1421
10.2661
10.3938
10.5253
10.6608
10.8005
10.9446
11.0932
11.2467
11.4052
11.569
11.7384
11.9138
12.0954
12.2837
12.479
12.6817
12.8925
13.1117
13.34
13.575
13.8194
14.0801
14.3594
14.6597
14.9837
15.3347
15.7167
16.1346
16.5943
17.1033
17.6711
18.3101
19.0365
19.8721
20.8481
22.0058
23.42
25.1673
27.5172
30.5034
35.8309
41.7661
62.6426
6.99531
6.99808
7.00492
7.01525
7.02849
7.04443
7.063
7.08409
7.10759
7.13338
7.16139
7.19155
7.22378
7.25804
7.29427
7.33244
7.37252
7.41447
7.45827
7.5039
7.55136
7.60062
7.6517
7.70458
7.75927
7.81578
7.87411
7.93428
7.99631
8.0602
8.12599
8.1937
8.26337
8.33501
8.40867
8.48438
8.56219
8.64214
8.72428
8.80867
8.89535
8.9844
9.07587
9.16984
9.26637
9.36556
9.46749
9.57224
9.67992
9.79062
9.90447
10.0216
10.1421
10.2661
10.3938
10.5253
10.6608
10.8005
10.9445
11.0932
11.2466
11.4051
11.569
11.7384
11.9138
12.0954
12.2836
12.4789
12.6817
12.8924
13.1116
13.3399
13.5749
13.8193
14.08
14.3593
14.6595
14.9835
15.3345
15.7165
16.1343
16.5939
17.1029
17.6707
18.3095
19.0358
19.8711
20.8468
22.0041
23.4175
25.1636
27.5104
30.4927
35.7915
41.6915
61.9135
6.99531
6.99808
7.00492
7.01525
7.02849
7.04443
7.063
7.08409
7.10759
7.13338
7.16139
7.19155
7.22378
7.25804
7.29427
7.33244
7.37252
7.41447
7.45827
7.5039
7.55136
7.60062
7.6517
7.70458
7.75927
7.81578
7.87411
7.93428
7.9963
8.0602
8.12599
8.1937
8.26336
8.33501
8.40866
8.48438
8.56218
8.64214
8.72428
8.80866
8.89535
8.98439
9.07586
9.16983
9.26637
9.36556
9.46748
9.57223
9.67991
9.79061
9.90446
10.0216
10.1421
10.2661
10.3938
10.5253
10.6608
10.8005
10.9445
11.0932
11.2466
11.4051
11.5689
11.7384
11.9137
12.0953
12.2836
12.4789
12.6816
12.8923
13.1116
13.3398
13.5748
13.8192
14.0799
14.3591
14.6594
14.9833
15.3343
15.7162
16.134
16.5936
17.1025
17.6702
18.3089
19.035
19.8701
20.8454
22.0022
23.4147
25.1595
27.503
30.4812
35.7496
41.6122
61.1874
6.99531
6.99808
7.00492
7.01525
7.02849
7.04443
7.063
7.08409
7.10759
7.13338
7.16139
7.19155
7.22378
7.25804
7.29427
7.33244
7.37252
7.41446
7.45826
7.5039
7.55135
7.60062
7.6517
7.70458
7.75927
7.81578
7.87411
7.93428
7.9963
8.0602
8.12599
8.1937
8.26336
8.335
8.40866
8.48437
8.56218
8.64213
8.72427
8.80866
8.89534
8.98438
9.07586
9.16982
9.26636
9.36555
9.46747
9.57222
9.6799
9.7906
9.90445
10.0215
10.142
10.2661
10.3937
10.5252
10.6608
10.8004
10.9445
11.0931
11.2466
11.4051
11.5689
11.7383
11.9137
12.0953
12.2835
12.4788
12.6815
12.8923
13.1115
13.3398
13.5747
13.8191
14.0798
14.359
14.6592
14.9831
15.3341
15.716
16.1337
16.5932
17.102
17.6696
18.3082
19.0341
19.869
20.844
22.0002
23.4118
25.1552
27.495
30.4686
35.705
41.5282
60.4645
6.99531
6.99808
7.00492
7.01525
7.02849
7.04443
7.063
7.08409
7.10758
7.13338
7.16139
7.19155
7.22378
7.25804
7.29427
7.33244
7.37252
7.41446
7.45826
7.5039
7.55135
7.60062
7.6517
7.70458
7.75927
7.81578
7.87411
7.93428
7.9963
8.0602
8.12599
8.1937
8.26336
8.335
8.40866
8.48437
8.56218
8.64213
8.72427
8.80865
8.89533
8.98438
9.07585
9.16982
9.26635
9.36554
9.46746
9.57221
9.67989
9.79059
9.90443
10.0215
10.142
10.266
10.3937
10.5252
10.6607
10.8004
10.9445
11.0931
11.2465
11.405
11.5689
11.7383
11.9136
12.0952
12.2835
12.4787
12.6815
12.8922
13.1114
13.3397
13.5746
13.8189
14.0796
14.3588
14.659
14.9829
15.3338
15.7157
16.1334
16.5928
17.1015
17.669
18.3075
19.0332
19.8678
20.8424
21.998
23.4086
25.1505
27.4863
30.4551
35.6577
41.4393
59.7452
6.99531
6.99808
7.00492
7.01524
7.02849
7.04443
7.063
7.08409
7.10758
7.13338
7.16139
7.19155
7.22378
7.25804
7.29427
7.33244
7.37251
7.41446
7.45826
7.5039
7.55135
7.60062
7.65169
7.70458
7.75927
7.81577
7.87411
7.93427
7.9963
8.06019
8.12598
8.19369
8.26335
8.335
8.40865
8.48436
8.56217
8.64212
8.72426
8.80864
8.89533
8.98437
9.07584
9.16981
9.26634
9.36553
9.46745
9.5722
9.67987
9.79058
9.90442
10.0215
10.142
10.266
10.3937
10.5252
10.6607
10.8004
10.9444
11.0931
11.2465
11.405
11.5688
11.7382
11.9136
12.0952
12.2834
12.4787
12.6814
12.8921
13.1113
13.3395
13.5745
13.8188
14.0795
14.3586
14.6588
14.9827
15.3335
15.7154
16.133
16.5924
17.101
17.6684
18.3067
19.0322
19.8665
20.8406
21.9957
23.4051
25.1454
27.4771
30.4406
35.6077
41.3456
59.0295
6.99531
6.99808
7.00492
7.01524
7.02849
7.04443
7.063
7.08409
7.10758
7.13338
7.16139
7.19154
7.22378
7.25804
7.29427
7.33244
7.37251
7.41446
7.45826
7.50389
7.55135
7.60062
7.65169
7.70458
7.75927
7.81577
7.8741
7.93427
7.99629
8.06019
8.12598
8.19369
8.26335
8.33499
8.40865
8.48436
8.56217
8.64212
8.72426
8.80864
8.89532
8.98436
9.07583
9.1698
9.26633
9.36552
9.46744
9.57219
9.67986
9.79056
9.9044
10.0215
10.142
10.266
10.3937
10.5252
10.6607
10.8004
10.9444
11.093
11.2465
11.405
11.5688
11.7382
11.9135
12.0951
12.2833
12.4786
12.6813
12.892
13.1112
13.3394
13.5744
13.8186
14.0793
14.3584
14.6586
14.9824
15.3333
15.715
16.1326
16.5919
17.1004
17.6677
18.3058
19.0311
19.8651
20.8388
21.9932
23.4014
25.1399
27.4672
30.4249
35.5549
41.2469
58.3178
6.99531
6.99808
7.00492
7.01524
7.02849
7.04443
7.063
7.08409
7.10758
7.13338
7.16139
7.19154
7.22378
7.25803
7.29427
7.33244
7.37251
7.41446
7.45826
7.50389
7.55135
7.60062
7.65169
7.70457
7.75926
7.81577
7.8741
7.93427
7.99629
8.06019
8.12598
8.19369
8.26335
8.33499
8.40864
8.48435
8.56216
8.64211
8.72425
8.80863
8.89531
8.98436
9.07583
9.16979
9.26632
9.36551
9.46743
9.57218
9.67985
9.79055
9.90439
10.0215
10.142
10.266
10.3937
10.5252
10.6607
10.8003
10.9444
11.093
11.2464
11.4049
11.5687
11.7381
11.9135
12.095
12.2833
12.4785
12.6812
12.8919
13.1111
13.3393
13.5742
13.8185
14.0791
14.3582
14.6583
14.9822
15.333
15.7147
16.1322
16.5914
17.0998
17.6669
18.3049
19.03
19.8636
20.8368
21.9904
23.3975
25.1341
27.4567
30.4082
35.4994
41.1432
57.6102
6.99531
6.99808
7.00492
7.01524
7.02848
7.04443
7.06299
7.08408
7.10758
7.13338
7.16139
7.19154
7.22378
7.25803
7.29427
7.33244
7.37251
7.41446
7.45826
7.50389
7.55135
7.60061
7.65169
7.70457
7.75926
7.81577
7.8741
7.93427
7.99629
8.06018
8.12597
8.19368
8.26334
8.33498
8.40864
8.48435
8.56216
8.6421
8.72424
8.80862
8.89531
8.98435
9.07582
9.16978
9.26631
9.3655
9.46742
9.57216
9.67983
9.79053
9.90437
10.0215
10.1419
10.266
10.3936
10.5251
10.6606
10.8003
10.9443
11.093
11.2464
11.4049
11.5687
11.7381
11.9134
12.095
12.2832
12.4784
12.6811
12.8918
13.1109
13.3392
13.5741
13.8183
14.0789
14.358
14.6581
14.9819
15.3326
15.7143
16.1317
16.5909
17.0992
17.6662
18.3039
19.0287
19.862
20.8347
21.9876
23.3932
25.1279
27.4454
30.3902
35.441
41.0345
56.9071
6.99531
6.99808
7.00492
7.01524
7.02848
7.04443
7.06299
7.08408
7.10758
7.13338
7.16139
7.19154
7.22377
7.25803
7.29427
7.33244
7.37251
7.41446
7.45826
7.50389
7.55134
7.60061
7.65169
7.70457
7.75926
7.81576
7.8741
7.93426
7.99629
8.06018
8.12597
8.19368
8.26334
8.33498
8.40863
8.48434
8.56215
8.6421
8.72424
8.80862
8.8953
8.98434
9.07581
9.16977
9.2663
9.36549
9.4674
9.57215
9.67982
9.79051
9.90435
10.0214
10.1419
10.2659
10.3936
10.5251
10.6606
10.8003
10.9443
11.0929
11.2463
11.4048
11.5686
11.738
11.9133
12.0949
12.2831
12.4783
12.681
12.8917
13.1108
13.339
13.5739
13.8181
14.0787
14.3578
14.6578
14.9816
15.3323
15.7139
16.1312
16.5903
17.0985
17.6653
18.3029
19.0274
19.8603
20.8324
21.9845
23.3887
25.1212
27.4334
30.371
35.3798
40.9206
56.2087
6.99531
6.99807
7.00491
7.01524
7.02848
7.04443
7.06299
7.08408
7.10758
7.13338
7.16139
7.19154
7.22377
7.25803
7.29426
7.33243
7.37251
7.41445
7.45825
7.50389
7.55134
7.60061
7.65168
7.70457
7.75926
7.81576
7.87409
7.93426
7.99628
8.06018
8.12597
8.19367
8.26333
8.33497
8.40863
8.48434
8.56214
8.64209
8.72423
8.80861
8.89529
8.98433
9.0758
9.16976
9.26629
9.36547
9.46739
9.57213
9.6798
9.7905
9.90433
10.0214
10.1419
10.2659
10.3936
10.5251
10.6606
10.8002
10.9443
11.0929
11.2463
11.4048
11.5685
11.7379
11.9132
12.0948
12.283
12.4782
12.6809
12.8915
13.1107
13.3389
13.5737
13.8179
14.0785
14.3575
14.6575
14.9812
15.3319
15.7134
16.1307
16.5897
17.0978
17.6644
18.3018
19.026
19.8585
20.83
21.9812
23.3839
25.1141
27.4206
30.3505
35.3157
40.8016
55.5151
6.99531
6.99807
7.00491
7.01524
7.02848
7.04443
7.06299
7.08408
7.10758
7.13338
7.16139
7.19154
7.22377
7.25803
7.29426
7.33243
7.37251
7.41445
7.45825
7.50389
7.55134
7.60061
7.65168
7.70456
7.75925
7.81576
7.87409
7.93426
7.99628
8.06017
8.12596
8.19367
8.26333
8.33497
8.40862
8.48433
8.56214
8.64208
8.72422
8.8086
8.89528
8.98432
9.07579
9.16975
9.26628
9.36546
9.46737
9.57212
9.67978
9.79048
9.90431
10.0214
10.1419
10.2659
10.3935
10.525
10.6605
10.8002
10.9442
11.0928
11.2462
11.4047
11.5685
11.7379
11.9132
12.0947
12.2829
12.4781
12.6808
12.8914
13.1105
13.3387
13.5735
13.8177
14.0783
14.3573
14.6572
14.9809
15.3315
15.713
16.1302
16.589
17.097
17.6635
18.3006
19.0245
19.8566
20.8275
21.9777
23.3788
25.1066
27.4071
30.3287
35.2486
40.6775
54.8266
6.99531
6.99807
7.00491
7.01524
7.02848
7.04442
7.06299
7.08408
7.10758
7.13337
7.16138
7.19154
7.22377
7.25803
7.29426
7.33243
7.3725
7.41445
7.45825
7.50388
7.55134
7.60061
7.65168
7.70456
7.75925
7.81576
7.87409
7.93425
7.99627
8.06017
8.12596
8.19367
8.26332
8.33496
8.40862
8.48433
8.56213
8.64208
8.72421
8.80859
8.89527
8.98431
9.07577
9.16973
9.26626
9.36544
9.46736
9.5721
9.67976
9.79045
9.90429
10.0214
10.1418
10.2658
10.3935
10.525
10.6605
10.8001
10.9442
11.0928
11.2462
11.4046
11.5684
11.7378
11.9131
12.0946
12.2828
12.478
12.6806
12.8913
13.1104
13.3385
13.5733
13.8175
14.078
14.357
14.6569
14.9805
15.3311
15.7125
16.1296
16.5883
17.0961
17.6624
18.2993
19.0229
19.8545
20.8247
21.9739
23.3734
25.0985
27.3927
30.3056
35.1787
40.5481
54.1433
6.99531
6.99807
7.00491
7.01524
7.02848
7.04442
7.06299
7.08408
7.10758
7.13337
7.16138
7.19154
7.22377
7.25803
7.29426
7.33243
7.3725
7.41445
7.45825
7.50388
7.55134
7.6006
7.65168
7.70456
7.75925
7.81575
7.87408
7.93425
7.99627
8.06016
8.12595
8.19366
8.26332
8.33496
8.40861
8.48432
8.56212
8.64207
8.7242
8.80858
8.89526
8.9843
9.07576
9.16972
9.26625
9.36543
9.46734
9.57208
9.67974
9.79043
9.90426
10.0213
10.1418
10.2658
10.3935
10.525
10.6604
10.8001
10.9441
11.0927
11.2461
11.4046
11.5683
11.7377
11.913
12.0945
12.2827
12.4779
12.6805
12.8911
13.1102
13.3383
13.5731
13.8173
14.0777
14.3567
14.6566
14.9801
15.3306
15.7119
16.129
16.5876
17.0953
17.6614
18.298
19.0212
19.8523
20.8218
21.9699
23.3676
25.09
27.3775
30.281
35.1057
40.4135
53.4655
6.9953
6.99807
7.00491
7.01524
7.02848
7.04442
7.06299
7.08408
7.10757
7.13337
7.16138
7.19154
7.22377
7.25802
7.29426
7.33243
7.3725
7.41445
7.45825
7.50388
7.55133
7.6006
7.65167
7.70455
7.75924
7.81575
7.87408
7.93425
7.99627
8.06016
8.12595
8.19365
8.26331
8.33495
8.4086
8.48431
8.56211
8.64206
8.72419
8.80857
8.89525
8.98429
9.07575
9.16971
9.26623
9.36541
9.46732
9.57206
9.67972
9.79041
9.90423
10.0213
10.1418
10.2658
10.3934
10.5249
10.6604
10.8
10.9441
11.0927
11.2461
11.4045
11.5683
11.7376
11.9129
12.0944
12.2826
12.4777
12.6804
12.8909
13.11
13.3381
13.5729
13.817
14.0775
14.3564
14.6562
14.9797
15.3301
15.7114
16.1283
16.5868
17.0943
17.6602
18.2966
19.0194
19.85
20.8187
21.9657
23.3615
25.0809
27.3614
30.2549
35.0298
40.2737
52.7934
6.9953
6.99807
7.00491
7.01524
7.02848
7.04442
7.06299
7.08408
7.10757
7.13337
7.16138
7.19153
7.22377
7.25802
7.29426
7.33243
7.3725
7.41445
7.45824
7.50388
7.55133
7.6006
7.65167
7.70455
7.75924
7.81575
7.87407
7.93424
7.99626
8.06015
8.12594
8.19365
8.2633
8.33494
8.4086
8.4843
8.56211
8.64205
8.72418
8.80856
8.89524
8.98427
9.07573
9.16969
9.26622
9.36539
9.4673
9.57204
9.6797
9.79038
9.90421
10.0213
10.1418
10.2657
10.3934
10.5249
10.6603
10.8
10.944
11.0926
11.246
11.4044
11.5682
11.7375
11.9128
12.0943
12.2824
12.4776
12.6802
12.8908
13.1098
13.3379
13.5727
13.8167
14.0772
14.356
14.6558
14.9793
15.3296
15.7108
16.1276
16.586
17.0933
17.659
18.2951
19.0175
19.8476
20.8155
21.9613
23.355
25.0713
27.3445
30.2273
34.9508
40.1287
52.127
6.9953
6.99807
7.00491
7.01523
7.02848
7.04442
7.06299
7.08408
7.10757
7.13337
7.16138
7.19153
7.22376
7.25802
7.29425
7.33242
7.3725
7.41444
7.45824
7.50387
7.55133
7.60059
7.65167
7.70455
7.75924
7.81574
7.87407
7.93424
7.99626
8.06015
8.12593
8.19364
8.2633
8.33493
8.40859
8.48429
8.5621
8.64204
8.72417
8.80855
8.89522
8.98426
9.07572
9.16967
9.2662
9.36537
9.46728
9.57202
9.67967
9.79036
9.90418
10.0213
10.1417
10.2657
10.3934
10.5248
10.6603
10.7999
10.9439
11.0925
11.2459
11.4043
11.5681
11.7374
11.9127
12.0942
12.2823
12.4775
12.6801
12.8906
13.1096
13.3377
13.5724
13.8165
14.0768
14.3557
14.6554
14.9788
15.3291
15.7101
16.1269
16.5851
17.0922
17.6577
18.2935
19.0155
19.845
20.812
21.9565
23.3481
25.0612
27.3266
30.1981
34.8688
39.9785
51.4667
6.9953
6.99807
7.00491
7.01523
7.02847
7.04442
7.06298
7.08407
7.10757
7.13337
7.16138
7.19153
7.22376
7.25802
7.29425
7.33242
7.37249
7.41444
7.45824
7.50387
7.55133
7.60059
7.65166
7.70454
7.75923
7.81574
7.87407
7.93423
7.99625
8.06014
8.12593
8.19364
8.26329
8.33493
8.40858
8.48428
8.56209
8.64203
8.72416
8.80854
8.89521
8.98424
9.0757
9.16966
9.26618
9.36535
9.46726
9.57199
9.67965
9.79033
9.90415
10.0212
10.1417
10.2657
10.3933
10.5248
10.6602
10.7999
10.9439
11.0925
11.2458
11.4043
11.568
11.7373
11.9126
12.0941
12.2822
12.4773
12.6799
12.8904
13.1094
13.3374
13.5721
13.8162
14.0765
14.3553
14.655
14.9783
15.3285
15.7095
16.1261
16.5842
17.0911
17.6563
18.2918
19.0134
19.8422
20.8084
21.9515
23.3408
25.0504
27.3077
30.1673
34.7838
39.823
50.8125
6.9953
6.99807
7.00491
7.01523
7.02847
7.04442
7.06298
7.08407
7.10757
7.13337
7.16138
7.19153
7.22376
7.25802
7.29425
7.33242
7.37249
7.41444
7.45824
7.50387
7.55132
7.60059
7.65166
7.70454
7.75923
7.81573
7.87406
7.93423
7.99624
8.06014
8.12592
8.19363
8.26328
8.33492
8.40857
8.48428
8.56208
8.64202
8.72415
8.80852
8.8952
8.98423
9.07569
9.16964
9.26616
9.36533
9.46724
9.57197
9.67962
9.7903
9.90412
10.0212
10.1416
10.2656
10.3933
10.5247
10.6602
10.7998
10.9438
11.0924
11.2458
11.4042
11.5679
11.7372
11.9125
12.0939
12.282
12.4771
12.6797
12.8902
13.1092
13.3372
13.5719
13.8158
14.0761
14.3549
14.6545
14.9778
15.3279
15.7088
16.1252
16.5832
17.0899
17.6549
18.29
19.0111
19.8393
20.8045
21.9463
23.3332
25.0391
27.2878
30.1348
34.6957
39.6623
50.1646
6.9953
6.99807
7.0049
7.01523
7.02847
7.04442
7.06298
7.08407
7.10757
7.13336
7.16137
7.19153
7.22376
7.25801
7.29425
7.33242
7.37249
7.41443
7.45823
7.50387
7.55132
7.60058
7.65166
7.70454
7.75922
7.81573
7.87406
7.93422
7.99624
8.06013
8.12592
8.19362
8.26328
8.33491
8.40856
8.48427
8.56207
8.64201
8.72414
8.80851
8.89518
8.98421
9.07567
9.16962
9.26614
9.36531
9.46721
9.57194
9.67959
9.79027
9.90408
10.0212
10.1416
10.2656
10.3932
10.5247
10.6601
10.7998
10.9437
11.0923
11.2457
11.4041
11.5678
11.7371
11.9123
12.0938
12.2819
12.477
12.6795
12.89
13.1089
13.3369
13.5716
13.8155
14.0758
14.3545
14.654
14.9772
15.3272
15.708
16.1243
16.5821
17.0887
17.6533
18.2881
19.0087
19.8362
20.8004
21.9407
23.3251
25.0271
27.2669
30.1006
34.6044
39.4964
49.5232
6.9953
6.99806
7.0049
7.01523
7.02847
7.04441
7.06298
7.08407
7.10757
7.13336
7.16137
7.19152
7.22376
7.25801
7.29425
7.33241
7.37249
7.41443
7.45823
7.50386
7.55131
7.60058
7.65165
7.70453
7.75922
7.81572
7.87405
7.93421
7.99623
8.06012
8.12591
8.19361
8.26327
8.3349
8.40855
8.48425
8.56205
8.64199
8.72412
8.80849
8.89517
8.9842
9.07565
9.1696
9.26612
9.36529
9.46719
9.57191
9.67956
9.79023
9.90404
10.0211
10.1416
10.2655
10.3932
10.5246
10.6601
10.7997
10.9437
11.0922
11.2456
11.404
11.5677
11.737
11.9122
12.0936
12.2817
12.4768
12.6793
12.8898
13.1087
13.3366
13.5712
13.8152
14.0754
14.354
14.6535
14.9766
15.3266
15.7072
16.1234
16.581
17.0874
17.6517
18.2861
19.0062
19.833
20.7961
21.9348
23.3165
25.0145
27.245
30.0646
34.5101
39.3254
48.8883
6.9953
6.99806
7.0049
7.01523
7.02847
7.04441
7.06298
7.08407
7.10756
7.13336
7.16137
7.19152
7.22375
7.25801
7.29424
7.33241
7.37248
7.41443
7.45823
7.50386
7.55131
7.60058
7.65165
7.70453
7.75921
7.81572
7.87404
7.93421
7.99623
8.06012
8.1259
8.1936
8.26326
8.33489
8.40854
8.48424
8.56204
8.64198
8.72411
8.80848
8.89515
8.98418
9.07563
9.16958
9.2661
9.36526