/*--------------------------------*- C++ -*----------------------------------*\
| =========                 |                                                 |
| \\      /  F ield         | OpenFOAM: The Open Source CFD Toolbox           |
|  \\    /   O peration     | Version:  v2012                                 |
|   \\  /    A nd           | Website:  www.openfoam.com                      |
|    \\/     M anipulation  |                                                 |
\*---------------------------------------------------------------------------*/
FoamFile
{
    version     2.0;
    format      ascii;
    class       volScalarField;
    location    "7";
    object      yPlus;
}
// * * * * * * * * * * * * * * * * * * * * * * * * * * * * * * * * * * * * * //

dimensions      [0 0 0 0 0 0 0];


internalField   uniform 0;

boundaryField
{
    inlet
    {
        type            calculated;
        value           uniform 0;
    }
    outlet
    {
        type            calculated;
        value           uniform 0;
    }
    topWall
    {
        type            calculated;
        value           nonuniform List<scalar> 
545
(
0.045157
0.0778639
0.0998883
0.117409
0.132234
0.145198
0.156767
0.167239
0.176812
0.185633
0.193808
0.201423
0.208543
0.215223
0.221508
0.227435
0.233037
0.238341
0.243371
0.248148
0.252691
0.257016
0.261138
0.26507
0.268825
0.272413
0.275844
0.279128
0.282273
0.285286
0.288175
0.290947
0.293606
0.29616
0.298614
0.300972
0.303239
0.305419
0.307517
0.309537
0.311481
0.313354
0.315158
0.316897
0.318573
0.32019
0.321749
0.323253
0.324705
0.326106
0.327459
0.328766
0.330028
0.331247
0.332425
0.333564
0.334665
0.33573
0.336759
0.337755
0.338718
0.33965
0.340552
0.341425
0.34227
0.343088
0.34388
0.344647
0.34539
0.34611
0.346807
0.347483
0.348129
0.348754
0.349373
0.349987
0.350595
0.351197
0.351794
0.352386
0.352973
0.353555
0.354131
0.354702
0.355268
0.35583
0.356386
0.356937
0.357484
0.358026
0.358563
0.359095
0.359623
0.360146
0.360665
0.361179
0.361642
0.362056
0.362469
0.362882
0.363294
0.363706
0.364118
0.364529
0.364939
0.36535
0.36576
0.366169
0.366578
0.366986
0.367394
0.367802
0.368209
0.368615
0.369022
0.369427
0.369832
0.370237
0.370641
0.371045
0.371448
0.371851
0.372253
0.372654
0.373055
0.373456
0.373856
0.374256
0.374654
0.375053
0.375451
0.375848
0.376245
0.376641
0.377036
0.377431
0.377826
0.37822
0.378613
0.379005
0.379397
0.379789
0.38018
0.38057
0.380959
0.381348
0.381737
0.382124
0.382511
0.382898
0.383283
0.383668
0.384053
0.384436
0.384819
0.385202
0.385583
0.385964
0.386344
0.386724
0.387103
0.387481
0.387858
0.388235
0.388611
0.388986
0.38936
0.389734
0.390107
0.390479
0.39085
0.391221
0.391591
0.39196
0.392328
0.392695
0.393062
0.393428
0.393793
0.394157
0.39452
0.394883
0.395244
0.395605
0.395965
0.396324
0.396682
0.39704
0.397396
0.397752
0.398107
0.39846
0.398813
0.399165
0.399516
0.399867
0.400216
0.400564
0.400911
0.401258
0.401603
0.401948
0.402291
0.402634
0.402976
0.403316
0.403656
0.403994
0.404332
0.404669
0.405004
0.405339
0.405672
0.406005
0.406336
0.406667
0.406996
0.407324
0.407651
0.407977
0.408303
0.408626
0.408949
0.409271
0.409592
0.409911
0.41023
0.410547
0.410863
0.411178
0.411492
0.411805
0.412116
0.412426
0.412736
0.413044
0.41335
0.413656
0.41396
0.414264
0.414566
0.414866
0.415166
0.415464
0.415761
0.416057
0.416352
0.416645
0.416937
0.417227
0.417517
0.417805
0.418092
0.418377
0.418662
0.418944
0.419226
0.419506
0.419785
0.420063
0.420339
0.420614
0.420887
0.421159
0.42143
0.421699
0.421967
0.422234
0.422499
0.422748
0.422982
0.423217
0.423453
0.42369
0.423928
0.424166
0.424405
0.424645
0.424886
0.425127
0.42537
0.425612
0.425856
0.426099
0.426344
0.426589
0.426834
0.42708
0.427327
0.427573
0.42782
0.428067
0.428315
0.428563
0.428811
0.429059
0.429307
0.429555
0.429803
0.430051
0.430299
0.430547
0.430795
0.431042
0.431289
0.431536
0.431782
0.432028
0.432273
0.432518
0.432761
0.433005
0.433247
0.433488
0.433729
0.433968
0.434207
0.434444
0.43468
0.434915
0.435148
0.43538
0.43561
0.435839
0.436066
0.436291
0.436515
0.436736
0.436955
0.437172
0.437387
0.4376
0.43781
0.438018
0.438223
0.438425
0.438624
0.438821
0.439014
0.439204
0.439391
0.439575
0.439755
0.439931
0.440104
0.440273
0.440438
0.440598
0.440755
0.440907
0.441055
0.441198
0.441337
0.441471
0.4416
0.441723
0.441842
0.441955
0.442062
0.442164
0.44226
0.442351
0.442435
0.442513
0.442585
0.44265
0.442708
0.44276
0.442805
0.442843
0.442873
0.442897
0.442913
0.442921
0.442921
0.442914
0.442898
0.442874
0.442842
0.442801
0.442752
0.442693
0.442626
0.44255
0.442464
0.44237
0.442265
0.442151
0.442027
0.441893
0.44175
0.441596
0.441431
0.441256
0.441071
0.440875
0.440668
0.44045
0.440221
0.439981
0.439729
0.439466
0.439192
0.438906
0.438608
0.438299
0.437978
0.437645
0.437299
0.436942
0.436572
0.43619
0.435796
0.43539
0.434971
0.43454
0.434096
0.43364
0.433171
0.432689
0.432195
0.431689
0.431169
0.430638
0.430093
0.429537
0.428967
0.428385
0.427791
0.427185
0.426566
0.425934
0.425291
0.424636
0.423968
0.423289
0.422597
0.421894
0.42118
0.420454
0.419717
0.418968
0.418209
0.417438
0.416657
0.415866
0.415064
0.414252
0.413431
0.412599
0.411664
0.410629
0.409595
0.408562
0.407531
0.406501
0.405475
0.404452
0.403432
0.402416
0.401405
0.400399
0.399398
0.398402
0.397413
0.39643
0.395453
0.394483
0.393521
0.392566
0.391619
0.39068
0.389749
0.388826
0.387913
0.387008
0.386112
0.385225
0.384348
0.383481
0.382623
0.381775
0.380938
0.38011
0.379294
0.378487
0.377692
0.376907
0.376133
0.375371
0.374619
0.373879
0.37315
0.372433
0.371728
0.371034
0.370352
0.369682
0.369025
0.368379
0.367746
0.367125
0.366517
0.365921
0.365338
0.364768
0.364211
0.363666
0.363135
0.362617
0.362112
0.36162
0.361142
0.360677
0.360226
0.359789
0.359365
0.358955
0.358559
0.358177
0.357809
0.357455
0.357116
0.356791
0.35648
0.356183
0.355901
0.355634
0.355381
0.355143
0.35492
0.354711
0.354517
0.354338
0.354174
0.354025
0.353891
0.353772
0.353668
0.35358
0.353506
0.353447
0.353403
0.353377
0.353357
)
;
    }
    bottomWall
    {
        type            calculated;
        value           nonuniform List<scalar> 
449
(
4.58185
3.01384
2.53621
2.321
2.18431
2.08431
2.00231
1.93341
1.87497
1.82441
1.77984
1.74007
1.70427
1.67177
1.64207
1.61476
1.58951
1.56605
1.54416
1.52368
1.50443
1.48629
1.46915
1.45292
1.4375
1.42284
1.40885
1.3955
1.38272
1.37048
1.35873
1.34744
1.33658
1.32612
1.31603
1.30629
1.29688
1.28777
1.27895
1.27041
1.26213
1.25409
1.24628
1.23869
1.2313
1.22412
1.21712
1.21031
1.20366
1.19718
1.19085
1.18467
1.17864
1.17274
1.16697
1.16133
1.15581
1.15041
1.14511
1.13993
1.13485
1.12986
1.12498
1.12018
1.11548
1.11086
1.10632
1.10187
1.09749
1.09319
1.08896
1.08481
1.08072
1.0767
1.07274
1.06884
1.06501
1.06123
1.05752
1.05385
1.05025
1.04669
1.04319
1.03973
1.03632
1.03297
1.02965
1.02638
1.02316
1.01998
1.01684
1.01374
1.01068
1.00765
1.00467
1.00172
0.998811
0.995935
0.993093
0.990284
0.987508
0.984764
0.982052
0.97937
0.976718
0.974096
0.971503
0.968937
0.966399
0.963888
0.961404
0.958946
0.956513
0.954105
0.951721
0.949361
0.947025
0.944712
0.942422
0.940154
0.937907
0.935682
0.933478
0.931294
0.929131
0.926988
0.924864
0.922759
0.920674
0.918606
0.916557
0.914526
0.912513
0.910516
0.908537
0.906575
0.904629
0.902699
0.900785
0.898887
0.897004
0.895137
0.893284
0.891446
0.889623
0.887814
0.886018
0.884237
0.88247
0.880715
0.878974
0.877247
0.875531
0.873829
0.872139
0.870462
0.868796
0.867142
0.865501
0.86387
0.862252
0.860644
0.859048
0.857463
0.855888
0.854324
0.852771
0.851228
0.849696
0.848173
0.846661
0.845158
0.843666
0.842268
0.840952
0.83963
0.838305
0.836978
0.835646
0.834311
0.832972
0.831629
0.830283
0.828933
0.827579
0.826222
0.824862
0.823498
0.822131
0.82076
0.819386
0.818008
0.816628
0.815244
0.813857
0.812466
0.811073
0.809677
0.808277
0.806875
0.805469
0.804061
0.80265
0.801236
0.799819
0.798399
0.796977
0.795552
0.794125
0.792694
0.791262
0.789827
0.788389
0.786949
0.785507
0.784062
0.782615
0.781166
0.779714
0.778261
0.776805
0.775347
0.773888
0.772426
0.770962
0.769497
0.768029
0.76656
0.765089
0.763616
0.762141
0.760665
0.759188
0.757708
0.756227
0.754745
0.753261
0.751776
0.75029
0.748802
0.747313
0.745823
0.744331
0.742838
0.741345
0.73985
0.738354
0.736857
0.735359
0.733861
0.732361
0.730861
0.729359
0.727857
0.726355
0.724852
0.723348
0.721843
0.720338
0.718832
0.717326
0.71582
0.714313
0.712806
0.711298
0.70979
0.708282
0.706774
0.705265
0.703757
0.702248
0.700739
0.69923
0.697721
0.696213
0.694704
0.693195
0.691687
0.690178
0.68867
0.687163
0.685655
0.684148
0.682641
0.681134
0.679628
0.678123
0.676618
0.675113
0.673609
0.672105
0.670602
0.6691
0.667598
0.666097
0.664597
0.663098
0.661599
0.660101
0.658604
0.657108
0.655613
0.654119
0.652625
0.651133
0.649642
0.648151
0.646662
0.645174
0.643687
0.642201
0.640717
0.639233
0.637751
0.63627
0.63479
0.633312
0.631835
0.630359
0.628885
0.627412
0.62594
0.62447
0.623001
0.621534
0.620068
0.618604
0.617142
0.615681
0.614221
0.612764
0.611307
0.609853
0.6084
0.606949
0.6055
0.604052
0.602606
0.601162
0.59972
0.598279
0.59684
0.595403
0.593969
0.592535
0.591104
0.589675
0.588248
0.586822
0.585399
0.583977
0.582558
0.581142
0.579725
0.578151
0.57644
0.574755
0.573092
0.571453
0.569836
0.568243
0.566671
0.565121
0.563592
0.562084
0.560596
0.559127
0.557678
0.556247
0.554835
0.55344
0.552063
0.550702
0.549359
0.548032
0.546721
0.545425
0.544145
0.54288
0.541629
0.540393
0.539171
0.537962
0.536768
0.535586
0.534418
0.533262
0.532118
0.530987
0.529868
0.528761
0.527665
0.526581
0.525508
0.524445
0.523394
0.522353
0.521323
0.520302
0.519292
0.518292
0.517301
0.51632
0.515348
0.514385
0.513431
0.512487
0.511551
0.510623
0.509704
0.508794
0.507892
0.506997
0.506111
0.505232
0.504362
0.503499
0.502643
0.501794
0.500953
0.500119
0.499292
0.498472
0.497659
0.496852
0.496052
0.495259
0.494471
0.493691
0.492916
0.492147
0.491384
0.490627
0.489876
0.48913
0.48839
0.487654
0.486924
0.486199
0.485478
0.48476
0.484047
0.483336
0.482619
0.481927
0.481252
0.480087
0.48075
0.478747
)
;
    }
    symmetry
    {
        type            symmetryPlane;
    }
    frontAndBack
    {
        type            empty;
    }
}


// ************************************************************************* //
