/*--------------------------------*- C++ -*----------------------------------*\
| =========                 |                                                 |
| \\      /  F ield         | OpenFOAM: The Open Source CFD Toolbox           |
|  \\    /   O peration     | Version:  v2012                                 |
|   \\  /    A nd           | Website:  www.openfoam.com                      |
|    \\/     M anipulation  |                                                 |
\*---------------------------------------------------------------------------*/
FoamFile
{
    version     2.0;
    format      ascii;
    class       volVectorField;
    location    "8";
    object      wallShearStress;
}
// * * * * * * * * * * * * * * * * * * * * * * * * * * * * * * * * * * * * * //

dimensions      [0 2 -2 0 0 0 0];


internalField   uniform (0 0 0);

boundaryField
{
    inlet
    {
        type            calculated;
        value           uniform (0 0 0);
    }
    outlet
    {
        type            calculated;
        value           uniform (0 0 0);
    }
    topWall
    {
        type            calculated;
        value           nonuniform List<vector> 
545
(
(1.09317e-08 -7.67847e-09 0)
(1.09383e-08 -2.15523e-08 0)
(1.08956e-08 -3.59157e-08 0)
(1.0869e-08 -4.9846e-08 0)
(1.08427e-08 -6.31625e-08 0)
(1.08131e-08 -7.60361e-08 0)
(1.07796e-08 -8.85776e-08 0)
(1.07424e-08 -1.00781e-07 0)
(1.07016e-08 -1.12619e-07 0)
(1.06577e-08 -1.24089e-07 0)
(1.0611e-08 -1.35206e-07 0)
(1.05617e-08 -1.45982e-07 0)
(1.05102e-08 -1.56426e-07 0)
(1.04567e-08 -1.66544e-07 0)
(1.04014e-08 -1.76344e-07 0)
(1.03446e-08 -1.85834e-07 0)
(1.02865e-08 -1.95022e-07 0)
(1.02274e-08 -2.03917e-07 0)
(1.01672e-08 -2.12528e-07 0)
(1.01064e-08 -2.20861e-07 0)
(1.00449e-08 -2.28926e-07 0)
(9.98298e-09 -2.3673e-07 0)
(9.92073e-09 -2.44281e-07 0)
(9.85829e-09 -2.51587e-07 0)
(9.79576e-09 -2.58655e-07 0)
(9.73324e-09 -2.65493e-07 0)
(9.67082e-09 -2.72108e-07 0)
(9.60861e-09 -2.78508e-07 0)
(9.54666e-09 -2.84698e-07 0)
(9.48506e-09 -2.90687e-07 0)
(9.42385e-09 -2.9648e-07 0)
(9.36311e-09 -3.02083e-07 0)
(9.30289e-09 -3.07504e-07 0)
(9.24322e-09 -3.12748e-07 0)
(9.18415e-09 -3.17821e-07 0)
(9.12572e-09 -3.22729e-07 0)
(9.06795e-09 -3.27477e-07 0)
(9.01087e-09 -3.32071e-07 0)
(8.95451e-09 -3.36515e-07 0)
(8.89889e-09 -3.40815e-07 0)
(8.84402e-09 -3.44976e-07 0)
(8.78991e-09 -3.49003e-07 0)
(8.73658e-09 -3.52899e-07 0)
(8.68404e-09 -3.5667e-07 0)
(8.63228e-09 -3.60319e-07 0)
(8.58132e-09 -3.63851e-07 0)
(8.53116e-09 -3.67269e-07 0)
(8.48179e-09 -3.70579e-07 0)
(8.43321e-09 -3.73782e-07 0)
(8.38542e-09 -3.76883e-07 0)
(8.33842e-09 -3.79885e-07 0)
(8.29219e-09 -3.82792e-07 0)
(8.24673e-09 -3.85607e-07 0)
(8.20203e-09 -3.88332e-07 0)
(8.15809e-09 -3.90971e-07 0)
(8.11489e-09 -3.93527e-07 0)
(8.07241e-09 -3.96003e-07 0)
(8.03066e-09 -3.984e-07 0)
(7.98961e-09 -4.00723e-07 0)
(7.94925e-09 -4.02972e-07 0)
(7.90957e-09 -4.05152e-07 0)
(7.87055e-09 -4.07263e-07 0)
(7.83218e-09 -4.09309e-07 0)
(7.79445e-09 -4.11291e-07 0)
(7.75733e-09 -4.13211e-07 0)
(7.72082e-09 -4.15072e-07 0)
(7.6849e-09 -4.16876e-07 0)
(7.64954e-09 -4.18623e-07 0)
(7.61477e-09 -4.20318e-07 0)
(7.58036e-09 -4.21958e-07 0)
(7.54726e-09 -4.23558e-07 0)
(7.51126e-09 -4.25082e-07 0)
(7.47723e-09 -4.26558e-07 0)
(7.44955e-09 -4.28012e-07 0)
(7.42208e-09 -4.29415e-07 0)
(7.39471e-09 -4.30809e-07 0)
(7.3674e-09 -4.32201e-07 0)
(7.34013e-09 -4.33584e-07 0)
(7.31291e-09 -4.34953e-07 0)
(7.28575e-09 -4.3631e-07 0)
(7.25863e-09 -4.37656e-07 0)
(7.23157e-09 -4.38991e-07 0)
(7.20456e-09 -4.40315e-07 0)
(7.1776e-09 -4.41628e-07 0)
(7.15069e-09 -4.4293e-07 0)
(7.12384e-09 -4.44221e-07 0)
(7.09704e-09 -4.45502e-07 0)
(7.0703e-09 -4.46771e-07 0)
(7.04362e-09 -4.48031e-07 0)
(7.01698e-09 -4.49279e-07 0)
(6.99043e-09 -4.50518e-07 0)
(6.96384e-09 -4.51744e-07 0)
(6.93769e-09 -4.52969e-07 0)
(6.91003e-09 -4.54159e-07 0)
(6.88904e-09 -4.55437e-07 0)
(6.84011e-09 -4.56505e-07 0)
(6.78422e-09 -4.57512e-07 0)
(6.76035e-09 -4.58642e-07 0)
(6.73938e-09 -4.5956e-07 0)
(6.71907e-09 -4.60453e-07 0)
(6.69887e-09 -4.61392e-07 0)
(6.67863e-09 -4.62351e-07 0)
(6.65832e-09 -4.63303e-07 0)
(6.63795e-09 -4.64245e-07 0)
(6.6175e-09 -4.65187e-07 0)
(6.59698e-09 -4.66129e-07 0)
(6.57639e-09 -4.67072e-07 0)
(6.55572e-09 -4.68014e-07 0)
(6.53499e-09 -4.68955e-07 0)
(6.51418e-09 -4.69895e-07 0)
(6.49329e-09 -4.70834e-07 0)
(6.47234e-09 -4.71772e-07 0)
(6.45131e-09 -4.7271e-07 0)
(6.43021e-09 -4.73647e-07 0)
(6.40903e-09 -4.74582e-07 0)
(6.38779e-09 -4.75517e-07 0)
(6.36647e-09 -4.76451e-07 0)
(6.34507e-09 -4.77384e-07 0)
(6.32361e-09 -4.78317e-07 0)
(6.30207e-09 -4.79248e-07 0)
(6.28046e-09 -4.80178e-07 0)
(6.25878e-09 -4.81107e-07 0)
(6.23702e-09 -4.82035e-07 0)
(6.21519e-09 -4.82962e-07 0)
(6.19329e-09 -4.83888e-07 0)
(6.17132e-09 -4.84813e-07 0)
(6.14927e-09 -4.85737e-07 0)
(6.12716e-09 -4.8666e-07 0)
(6.10497e-09 -4.87581e-07 0)
(6.0827e-09 -4.88502e-07 0)
(6.06037e-09 -4.89421e-07 0)
(6.03796e-09 -4.90338e-07 0)
(6.01548e-09 -4.91255e-07 0)
(5.99293e-09 -4.9217e-07 0)
(5.97031e-09 -4.93084e-07 0)
(5.94761e-09 -4.93997e-07 0)
(5.92485e-09 -4.94909e-07 0)
(5.90201e-09 -4.95819e-07 0)
(5.8791e-09 -4.96727e-07 0)
(5.85612e-09 -4.97635e-07 0)
(5.83307e-09 -4.9854e-07 0)
(5.80994e-09 -4.99445e-07 0)
(5.78675e-09 -5.00348e-07 0)
(5.76348e-09 -5.01249e-07 0)
(5.74014e-09 -5.02149e-07 0)
(5.71674e-09 -5.03047e-07 0)
(5.69326e-09 -5.03944e-07 0)
(5.66971e-09 -5.04839e-07 0)
(5.64609e-09 -5.05733e-07 0)
(5.6224e-09 -5.06625e-07 0)
(5.59864e-09 -5.07515e-07 0)
(5.57481e-09 -5.08403e-07 0)
(5.55091e-09 -5.0929e-07 0)
(5.52695e-09 -5.10175e-07 0)
(5.50291e-09 -5.11059e-07 0)
(5.4788e-09 -5.1194e-07 0)
(5.45462e-09 -5.1282e-07 0)
(5.43038e-09 -5.13698e-07 0)
(5.40606e-09 -5.14574e-07 0)
(5.38168e-09 -5.15448e-07 0)
(5.35723e-09 -5.16321e-07 0)
(5.33271e-09 -5.17191e-07 0)
(5.30812e-09 -5.18059e-07 0)
(5.28347e-09 -5.18926e-07 0)
(5.25875e-09 -5.1979e-07 0)
(5.23396e-09 -5.20653e-07 0)
(5.2091e-09 -5.21513e-07 0)
(5.18418e-09 -5.22371e-07 0)
(5.15919e-09 -5.23227e-07 0)
(5.13413e-09 -5.24081e-07 0)
(5.10901e-09 -5.24933e-07 0)
(5.08382e-09 -5.25783e-07 0)
(5.05857e-09 -5.2663e-07 0)
(5.03325e-09 -5.27476e-07 0)
(5.00786e-09 -5.28319e-07 0)
(4.98241e-09 -5.29159e-07 0)
(4.9569e-09 -5.29998e-07 0)
(4.93132e-09 -5.30834e-07 0)
(4.90568e-09 -5.31667e-07 0)
(4.87997e-09 -5.32498e-07 0)
(4.8542e-09 -5.33327e-07 0)
(4.82837e-09 -5.34154e-07 0)
(4.80248e-09 -5.34977e-07 0)
(4.77652e-09 -5.35799e-07 0)
(4.7505e-09 -5.36618e-07 0)
(4.72442e-09 -5.37434e-07 0)
(4.69827e-09 -5.38248e-07 0)
(4.67207e-09 -5.39059e-07 0)
(4.64581e-09 -5.39867e-07 0)
(4.61948e-09 -5.40673e-07 0)
(4.5931e-09 -5.41476e-07 0)
(4.56665e-09 -5.42276e-07 0)
(4.54015e-09 -5.43074e-07 0)
(4.51358e-09 -5.43869e-07 0)
(4.48696e-09 -5.44661e-07 0)
(4.46028e-09 -5.4545e-07 0)
(4.43355e-09 -5.46236e-07 0)
(4.40675e-09 -5.47019e-07 0)
(4.3799e-09 -5.478e-07 0)
(4.35299e-09 -5.48577e-07 0)
(4.32603e-09 -5.49352e-07 0)
(4.29901e-09 -5.50123e-07 0)
(4.27193e-09 -5.50892e-07 0)
(4.2448e-09 -5.51657e-07 0)
(4.21762e-09 -5.5242e-07 0)
(4.19038e-09 -5.53179e-07 0)
(4.16308e-09 -5.53935e-07 0)
(4.13574e-09 -5.54688e-07 0)
(4.10834e-09 -5.55438e-07 0)
(4.08089e-09 -5.56184e-07 0)
(4.05339e-09 -5.56927e-07 0)
(4.02584e-09 -5.57667e-07 0)
(3.99824e-09 -5.58404e-07 0)
(3.97058e-09 -5.59137e-07 0)
(3.94288e-09 -5.59867e-07 0)
(3.91513e-09 -5.60594e-07 0)
(3.88733e-09 -5.61317e-07 0)
(3.85948e-09 -5.62036e-07 0)
(3.83158e-09 -5.62752e-07 0)
(3.80364e-09 -5.63465e-07 0)
(3.77565e-09 -5.64174e-07 0)
(3.74762e-09 -5.64879e-07 0)
(3.71954e-09 -5.65581e-07 0)
(3.69141e-09 -5.66279e-07 0)
(3.66324e-09 -5.66973e-07 0)
(3.63503e-09 -5.67664e-07 0)
(3.60678e-09 -5.68351e-07 0)
(3.57848e-09 -5.69034e-07 0)
(3.55014e-09 -5.69714e-07 0)
(3.52176e-09 -5.7039e-07 0)
(3.49334e-09 -5.71061e-07 0)
(3.46488e-09 -5.71729e-07 0)
(3.43638e-09 -5.72393e-07 0)
(3.40784e-09 -5.73053e-07 0)
(3.37926e-09 -5.73709e-07 0)
(3.35065e-09 -5.74362e-07 0)
(3.322e-09 -5.7501e-07 0)
(3.29331e-09 -5.75654e-07 0)
(3.26459e-09 -5.76294e-07 0)
(3.23583e-09 -5.76929e-07 0)
(3.20704e-09 -5.77561e-07 0)
(3.17822e-09 -5.78189e-07 0)
(3.14936e-09 -5.78812e-07 0)
(3.12047e-09 -5.79431e-07 0)
(3.09155e-09 -5.80046e-07 0)
(3.0626e-09 -5.80656e-07 0)
(3.03362e-09 -5.81262e-07 0)
(3.00461e-09 -5.81864e-07 0)
(2.97558e-09 -5.82461e-07 0)
(2.94651e-09 -5.83054e-07 0)
(2.91742e-09 -5.83643e-07 0)
(2.8883e-09 -5.84227e-07 0)
(2.85916e-09 -5.84807e-07 0)
(2.82999e-09 -5.85382e-07 0)
(2.8008e-09 -5.85952e-07 0)
(2.77159e-09 -5.86518e-07 0)
(2.74235e-09 -5.87079e-07 0)
(2.7131e-09 -5.87636e-07 0)
(2.68382e-09 -5.88188e-07 0)
(2.65452e-09 -5.88735e-07 0)
(2.6252e-09 -5.89277e-07 0)
(2.59587e-09 -5.89815e-07 0)
(2.56652e-09 -5.90348e-07 0)
(2.53716e-09 -5.90877e-07 0)
(2.50773e-09 -5.91398e-07 0)
(2.47852e-09 -5.91923e-07 0)
(2.44834e-09 -5.92419e-07 0)
(2.42215e-09 -5.93009e-07 0)
(2.37903e-09 -5.934e-07 0)
(2.33123e-09 -5.93799e-07 0)
(2.30342e-09 -5.94406e-07 0)
(2.27866e-09 -5.94824e-07 0)
(2.25442e-09 -5.9521e-07 0)
(2.23011e-09 -5.95633e-07 0)
(2.20557e-09 -5.96079e-07 0)
(2.18077e-09 -5.9652e-07 0)
(2.1557e-09 -5.96953e-07 0)
(2.13036e-09 -5.97385e-07 0)
(2.10475e-09 -5.97818e-07 0)
(2.07887e-09 -5.98251e-07 0)
(2.05272e-09 -5.98683e-07 0)
(2.02629e-09 -5.99114e-07 0)
(1.9996e-09 -5.99544e-07 0)
(1.97262e-09 -5.99973e-07 0)
(1.94538e-09 -6.00401e-07 0)
(1.91786e-09 -6.00827e-07 0)
(1.89007e-09 -6.01252e-07 0)
(1.86201e-09 -6.01675e-07 0)
(1.83367e-09 -6.02096e-07 0)
(1.80506e-09 -6.02515e-07 0)
(1.77617e-09 -6.02932e-07 0)
(1.74701e-09 -6.03347e-07 0)
(1.71758e-09 -6.03759e-07 0)
(1.68787e-09 -6.04169e-07 0)
(1.6579e-09 -6.04576e-07 0)
(1.62765e-09 -6.04979e-07 0)
(1.59713e-09 -6.0538e-07 0)
(1.56634e-09 -6.05777e-07 0)
(1.53527e-09 -6.06171e-07 0)
(1.50394e-09 -6.06561e-07 0)
(1.47235e-09 -6.06947e-07 0)
(1.44048e-09 -6.07329e-07 0)
(1.40835e-09 -6.07706e-07 0)
(1.37595e-09 -6.08079e-07 0)
(1.34329e-09 -6.08447e-07 0)
(1.31037e-09 -6.08811e-07 0)
(1.27718e-09 -6.09169e-07 0)
(1.24374e-09 -6.09521e-07 0)
(1.21004e-09 -6.09868e-07 0)
(1.17608e-09 -6.10209e-07 0)
(1.14187e-09 -6.10544e-07 0)
(1.10741e-09 -6.10872e-07 0)
(1.0727e-09 -6.11194e-07 0)
(1.03775e-09 -6.11509e-07 0)
(1.00254e-09 -6.11816e-07 0)
(9.67101e-10 -6.12116e-07 0)
(9.31418e-10 -6.12409e-07 0)
(8.955e-10 -6.12693e-07 0)
(8.59349e-10 -6.12969e-07 0)
(8.22968e-10 -6.13237e-07 0)
(7.8636e-10 -6.13495e-07 0)
(7.4953e-10 -6.13745e-07 0)
(7.12481e-10 -6.13985e-07 0)
(6.75217e-10 -6.14215e-07 0)
(6.37741e-10 -6.14435e-07 0)
(6.00059e-10 -6.14645e-07 0)
(5.62175e-10 -6.14844e-07 0)
(5.24093e-10 -6.15032e-07 0)
(4.85818e-10 -6.15209e-07 0)
(4.47355e-10 -6.15374e-07 0)
(4.08709e-10 -6.15527e-07 0)
(3.69885e-10 -6.15667e-07 0)
(3.3089e-10 -6.15795e-07 0)
(2.91729e-10 -6.15909e-07 0)
(2.52408e-10 -6.1601e-07 0)
(2.12933e-10 -6.16097e-07 0)
(1.73311e-10 -6.1617e-07 0)
(1.33548e-10 -6.16229e-07 0)
(9.36515e-11 -6.16272e-07 0)
(5.36279e-11 -6.163e-07 0)
(1.3485e-11 -6.16312e-07 0)
(-2.67699e-11 -6.16309e-07 0)
(-6.71289e-11 -6.16288e-07 0)
(-1.07584e-10 -6.16251e-07 0)
(-1.48127e-10 -6.16196e-07 0)
(-1.88749e-10 -6.16124e-07 0)
(-2.29442e-10 -6.16033e-07 0)
(-2.70196e-10 -6.15924e-07 0)
(-3.11003e-10 -6.15796e-07 0)
(-3.51853e-10 -6.15648e-07 0)
(-3.92736e-10 -6.15481e-07 0)
(-4.33642e-10 -6.15293e-07 0)
(-4.74562e-10 -6.15085e-07 0)
(-5.15484e-10 -6.14856e-07 0)
(-5.56398e-10 -6.14605e-07 0)
(-5.97292e-10 -6.14332e-07 0)
(-6.38157e-10 -6.14036e-07 0)
(-6.7898e-10 -6.13718e-07 0)
(-7.19749e-10 -6.13377e-07 0)
(-7.60454e-10 -6.13011e-07 0)
(-8.0108e-10 -6.12622e-07 0)
(-8.41617e-10 -6.12208e-07 0)
(-8.82051e-10 -6.11768e-07 0)
(-9.2237e-10 -6.11304e-07 0)
(-9.6256e-10 -6.10813e-07 0)
(-1.00261e-09 -6.10296e-07 0)
(-1.0425e-09 -6.09752e-07 0)
(-1.08223e-09 -6.09181e-07 0)
(-1.12177e-09 -6.08583e-07 0)
(-1.16111e-09 -6.07956e-07 0)
(-1.20024e-09 -6.073e-07 0)
(-1.23914e-09 -6.06616e-07 0)
(-1.27781e-09 -6.05902e-07 0)
(-1.31622e-09 -6.05159e-07 0)
(-1.35435e-09 -6.04385e-07 0)
(-1.3922e-09 -6.03581e-07 0)
(-1.42975e-09 -6.02746e-07 0)
(-1.46698e-09 -6.01879e-07 0)
(-1.50388e-09 -6.0098e-07 0)
(-1.54043e-09 -6.0005e-07 0)
(-1.57661e-09 -5.99087e-07 0)
(-1.61241e-09 -5.9809e-07 0)
(-1.64782e-09 -5.97061e-07 0)
(-1.68281e-09 -5.95998e-07 0)
(-1.71737e-09 -5.94901e-07 0)
(-1.75149e-09 -5.9377e-07 0)
(-1.78514e-09 -5.92604e-07 0)
(-1.81832e-09 -5.91403e-07 0)
(-1.851e-09 -5.90167e-07 0)
(-1.88318e-09 -5.88896e-07 0)
(-1.91482e-09 -5.87589e-07 0)
(-1.94592e-09 -5.86246e-07 0)
(-1.97647e-09 -5.84867e-07 0)
(-2.00643e-09 -5.83451e-07 0)
(-2.03581e-09 -5.81998e-07 0)
(-2.06458e-09 -5.80509e-07 0)
(-2.09273e-09 -5.78983e-07 0)
(-2.12024e-09 -5.77419e-07 0)
(-2.14709e-09 -5.75818e-07 0)
(-2.17328e-09 -5.7418e-07 0)
(-2.19879e-09 -5.72504e-07 0)
(-2.2236e-09 -5.7079e-07 0)
(-2.2477e-09 -5.69039e-07 0)
(-2.27107e-09 -5.6725e-07 0)
(-2.29371e-09 -5.65423e-07 0)
(-2.31559e-09 -5.63558e-07 0)
(-2.3367e-09 -5.61656e-07 0)
(-2.35704e-09 -5.59715e-07 0)
(-2.37659e-09 -5.57737e-07 0)
(-2.39534e-09 -5.55721e-07 0)
(-2.41328e-09 -5.53668e-07 0)
(-2.43039e-09 -5.51577e-07 0)
(-2.44667e-09 -5.4945e-07 0)
(-2.4621e-09 -5.47285e-07 0)
(-2.47669e-09 -5.45083e-07 0)
(-2.49041e-09 -5.42844e-07 0)
(-2.50326e-09 -5.40569e-07 0)
(-2.51523e-09 -5.38258e-07 0)
(-2.52632e-09 -5.35911e-07 0)
(-2.53653e-09 -5.33529e-07 0)
(-2.54583e-09 -5.31112e-07 0)
(-2.55423e-09 -5.28659e-07 0)
(-2.56173e-09 -5.26173e-07 0)
(-2.56832e-09 -5.23653e-07 0)
(-2.574e-09 -5.21099e-07 0)
(-2.57876e-09 -5.18512e-07 0)
(-2.58261e-09 -5.15892e-07 0)
(-2.58554e-09 -5.13241e-07 0)
(-2.58756e-09 -5.10559e-07 0)
(-2.58866e-09 -5.07845e-07 0)
(-2.58885e-09 -5.05102e-07 0)
(-2.58812e-09 -5.02329e-07 0)
(-2.58649e-09 -4.99527e-07 0)
(-2.58395e-09 -4.96698e-07 0)
(-2.58051e-09 -4.9384e-07 0)
(-2.57618e-09 -4.90956e-07 0)
(-2.57096e-09 -4.88047e-07 0)
(-2.56486e-09 -4.85112e-07 0)
(-2.55788e-09 -4.82152e-07 0)
(-2.55003e-09 -4.7917e-07 0)
(-2.54133e-09 -4.76164e-07 0)
(-2.53178e-09 -4.73137e-07 0)
(-2.52139e-09 -4.70089e-07 0)
(-2.51017e-09 -4.67022e-07 0)
(-2.49814e-09 -4.63934e-07 0)
(-2.4853e-09 -4.60831e-07 0)
(-2.47171e-09 -4.57702e-07 0)
(-2.45713e-09 -4.54583e-07 0)
(-2.44269e-09 -4.51336e-07 0)
(-2.42366e-09 -4.48276e-07 0)
(-2.4e-09 -4.44831e-07 0)
(-2.37764e-09 -4.40806e-07 0)
(-2.35569e-09 -4.36993e-07 0)
(-2.33334e-09 -4.3324e-07 0)
(-2.31044e-09 -4.29491e-07 0)
(-2.28699e-09 -4.25762e-07 0)
(-2.26303e-09 -4.22076e-07 0)
(-2.23859e-09 -4.18436e-07 0)
(-2.21372e-09 -4.14836e-07 0)
(-2.18846e-09 -4.11276e-07 0)
(-2.16287e-09 -4.07755e-07 0)
(-2.13696e-09 -4.04277e-07 0)
(-2.11078e-09 -4.00841e-07 0)
(-2.08437e-09 -3.97448e-07 0)
(-2.05774e-09 -3.94098e-07 0)
(-2.03094e-09 -3.90791e-07 0)
(-2.00399e-09 -3.87527e-07 0)
(-1.97691e-09 -3.84308e-07 0)
(-1.94973e-09 -3.81132e-07 0)
(-1.92247e-09 -3.78e-07 0)
(-1.89515e-09 -3.74912e-07 0)
(-1.86779e-09 -3.71869e-07 0)
(-1.84041e-09 -3.6887e-07 0)
(-1.81302e-09 -3.65915e-07 0)
(-1.78563e-09 -3.63005e-07 0)
(-1.75827e-09 -3.60138e-07 0)
(-1.73093e-09 -3.57316e-07 0)
(-1.70364e-09 -3.54539e-07 0)
(-1.67641e-09 -3.51805e-07 0)
(-1.64923e-09 -3.49115e-07 0)
(-1.62212e-09 -3.4647e-07 0)
(-1.59509e-09 -3.43868e-07 0)
(-1.56815e-09 -3.4131e-07 0)
(-1.54129e-09 -3.38795e-07 0)
(-1.51452e-09 -3.36324e-07 0)
(-1.48785e-09 -3.33896e-07 0)
(-1.46127e-09 -3.3151e-07 0)
(-1.4348e-09 -3.29168e-07 0)
(-1.40843e-09 -3.26869e-07 0)
(-1.38217e-09 -3.24612e-07 0)
(-1.35601e-09 -3.22398e-07 0)
(-1.32996e-09 -3.20226e-07 0)
(-1.30401e-09 -3.18095e-07 0)
(-1.27817e-09 -3.16007e-07 0)
(-1.25243e-09 -3.13961e-07 0)
(-1.2268e-09 -3.11956e-07 0)
(-1.20126e-09 -3.09992e-07 0)
(-1.17583e-09 -3.0807e-07 0)
(-1.15049e-09 -3.06188e-07 0)
(-1.12525e-09 -3.04348e-07 0)
(-1.10011e-09 -3.02548e-07 0)
(-1.07505e-09 -3.00789e-07 0)
(-1.05008e-09 -2.99071e-07 0)
(-1.02519e-09 -2.97392e-07 0)
(-1.00039e-09 -2.95754e-07 0)
(-9.75661e-10 -2.94156e-07 0)
(-9.5101e-10 -2.92598e-07 0)
(-9.2643e-10 -2.9108e-07 0)
(-9.01918e-10 -2.89601e-07 0)
(-8.77471e-10 -2.88162e-07 0)
(-8.53085e-10 -2.86762e-07 0)
(-8.28757e-10 -2.85402e-07 0)
(-8.04483e-10 -2.84081e-07 0)
(-7.80261e-10 -2.828e-07 0)
(-7.56087e-10 -2.81557e-07 0)
(-7.31958e-10 -2.80354e-07 0)
(-7.0787e-10 -2.79189e-07 0)
(-6.8382e-10 -2.78064e-07 0)
(-6.59807e-10 -2.76977e-07 0)
(-6.35826e-10 -2.75929e-07 0)
(-6.11875e-10 -2.7492e-07 0)
(-5.87952e-10 -2.7395e-07 0)
(-5.64054e-10 -2.73018e-07 0)
(-5.40179e-10 -2.72125e-07 0)
(-5.16325e-10 -2.71271e-07 0)
(-4.92491e-10 -2.70455e-07 0)
(-4.68674e-10 -2.69678e-07 0)
(-4.44873e-10 -2.68939e-07 0)
(-4.21088e-10 -2.68238e-07 0)
(-3.97318e-10 -2.67577e-07 0)
(-3.73561e-10 -2.66953e-07 0)
(-3.49819e-10 -2.66368e-07 0)
(-3.26091e-10 -2.65822e-07 0)
(-3.02375e-10 -2.65313e-07 0)
(-2.78671e-10 -2.64843e-07 0)
(-2.54976e-10 -2.64413e-07 0)
(-2.31281e-10 -2.64014e-07 0)
(-2.07585e-10 -2.63678e-07 0)
(-1.83846e-10 -2.633e-07 0)
(-1.60156e-10 -2.63221e-07 0)
(-1.36108e-10 -2.62299e-07 0)
(-1.13231e-10 -2.64227e-07 0)
(-8.59017e-11 -2.56166e-07 0)
(-7.64361e-11 -2.77068e-07 0)
(-4.18363e-11 -2.41897e-07 0)
)
;
    }
    bottomWall
    {
        type            calculated;
        value           nonuniform List<vector> 
449
(
(-48.7283 -0.966838 0)
(-19.8255 -0.00517649 0)
(-14.3993 -0.00113852 0)
(-12.083 -0.000546747 0)
(-10.6752 -0.000351553 0)
(-9.68317 -0.000255104 0)
(-8.93006 -0.000196716 0)
(-8.33455 -0.000157227 0)
(-7.84992 -0.000129009 0)
(-7.44647 -0.000108055 0)
(-7.10458 -9.19771e-05 0)
(-6.81074 -7.93159e-05 0)
(-6.55523 -6.91504e-05 0)
(-6.33079 -6.08615e-05 0)
(-6.13191 -5.40104e-05 0)
(-5.95432 -4.82778e-05 0)
(-5.79468 -4.34284e-05 0)
(-5.6503 -3.92867e-05 0)
(-5.51905 -3.57194e-05 0)
(-5.39916 -3.26233e-05 0)
(-5.28918 -2.99178e-05 0)
(-5.18788 -2.7539e-05 0)
(-5.09427 -2.54355e-05 0)
(-5.00746 -2.3566e-05 0)
(-4.92674 -2.18966e-05 0)
(-4.85146 -2.03992e-05 0)
(-4.78107 -1.90509e-05 0)
(-4.71512 -1.78322e-05 0)
(-4.65317 -1.67269e-05 0)
(-4.59488 -1.57212e-05 0)
(-4.53991 -1.48032e-05 0)
(-4.48798 -1.39631e-05 0)
(-4.43885 -1.31922e-05 0)
(-4.39229 -1.2483e-05 0)
(-4.34811 -1.1829e-05 0)
(-4.30611 -1.12246e-05 0)
(-4.26614 -1.06649e-05 0)
(-4.22805 -1.01455e-05 0)
(-4.19172 -9.66261e-06 0)
(-4.15701 -9.21291e-06 0)
(-4.12383 -8.79338e-06 0)
(-4.09207 -8.40137e-06 0)
(-4.06164 -8.0345e-06 0)
(-4.03246 -7.69066e-06 0)
(-4.00445 -7.36796e-06 0)
(-3.97755 -7.06468e-06 0)
(-3.95168 -6.77931e-06 0)
(-3.9268 -6.51044e-06 0)
(-3.90283 -6.25683e-06 0)
(-3.87974 -6.01734e-06 0)
(-3.85748 -5.79093e-06 0)
(-3.83599 -5.57669e-06 0)
(-3.81525 -5.37373e-06 0)
(-3.79521 -5.1813e-06 0)
(-3.77584 -4.99866e-06 0)
(-3.7571 -4.82517e-06 0)
(-3.73897 -4.66023e-06 0)
(-3.72141 -4.50329e-06 0)
(-3.7044 -4.35383e-06 0)
(-3.68791 -4.21139e-06 0)
(-3.67192 -4.07554e-06 0)
(-3.65641 -3.94588e-06 0)
(-3.64136 -3.82204e-06 0)
(-3.62674 -3.70368e-06 0)
(-3.61253 -3.59048e-06 0)
(-3.59873 -3.48215e-06 0)
(-3.58531 -3.37841e-06 0)
(-3.57226 -3.27901e-06 0)
(-3.55956 -3.18372e-06 0)
(-3.5472 -3.0923e-06 0)
(-3.53517 -3.00456e-06 0)
(-3.52344 -2.9203e-06 0)
(-3.51202 -2.83935e-06 0)
(-3.50089 -2.76152e-06 0)
(-3.49003 -2.68667e-06 0)
(-3.47945 -2.61465e-06 0)
(-3.46912 -2.54532e-06 0)
(-3.45904 -2.47854e-06 0)
(-3.44921 -2.4142e-06 0)
(-3.4396 -2.35217e-06 0)
(-3.43022 -2.29236e-06 0)
(-3.42105 -2.23465e-06 0)
(-3.4121 -2.17895e-06 0)
(-3.40334 -2.12518e-06 0)
(-3.39479 -2.07324e-06 0)
(-3.38642 -2.02305e-06 0)
(-3.37823 -1.97454e-06 0)
(-3.37022 -1.92763e-06 0)
(-3.36238 -1.88225e-06 0)
(-3.35471 -1.83835e-06 0)
(-3.3472 -1.79585e-06 0)
(-3.33984 -1.7547e-06 0)
(-3.33264 -1.71484e-06 0)
(-3.32558 -1.67623e-06 0)
(-3.31867 -1.63881e-06 0)
(-3.31189 -1.60253e-06 0)
(-3.30525 -1.56735e-06 0)
(-3.29874 -1.53323e-06 0)
(-3.29235 -1.50012e-06 0)
(-3.28609 -1.46798e-06 0)
(-3.27995 -1.43679e-06 0)
(-3.27392 -1.40649e-06 0)
(-3.268 -1.37707e-06 0)
(-3.2622 -1.34848e-06 0)
(-3.2565 -1.3207e-06 0)
(-3.25091 -1.2937e-06 0)
(-3.24542 -1.26745e-06 0)
(-3.24003 -1.24191e-06 0)
(-3.23473 -1.21708e-06 0)
(-3.22952 -1.19292e-06 0)
(-3.22441 -1.1694e-06 0)
(-3.21939 -1.14652e-06 0)
(-3.21445 -1.12424e-06 0)
(-3.2096 -1.10254e-06 0)
(-3.20483 -1.08141e-06 0)
(-3.20014 -1.06082e-06 0)
(-3.19553 -1.04076e-06 0)
(-3.19099 -1.02121e-06 0)
(-3.18653 -1.00216e-06 0)
(-3.18215 -9.83583e-07 0)
(-3.17783 -9.6547e-07 0)
(-3.17358 -9.47804e-07 0)
(-3.1694 -9.30571e-07 0)
(-3.16529 -9.13759e-07 0)
(-3.16124 -8.97353e-07 0)
(-3.15726 -8.81342e-07 0)
(-3.15334 -8.65713e-07 0)
(-3.14947 -8.50455e-07 0)
(-3.14567 -8.35556e-07 0)
(-3.14192 -8.21005e-07 0)
(-3.13824 -8.06793e-07 0)
(-3.1346 -7.92909e-07 0)
(-3.13102 -7.79343e-07 0)
(-3.1275 -7.66086e-07 0)
(-3.12402 -7.5313e-07 0)
(-3.1206 -7.40464e-07 0)
(-3.11722 -7.28082e-07 0)
(-3.1139 -7.15976e-07 0)
(-3.11062 -7.04136e-07 0)
(-3.10739 -6.92556e-07 0)
(-3.1042 -6.81228e-07 0)
(-3.10106 -6.70146e-07 0)
(-3.09796 -6.59303e-07 0)
(-3.09491 -6.48692e-07 0)
(-3.0919 -6.38306e-07 0)
(-3.08892 -6.2814e-07 0)
(-3.08599 -6.18188e-07 0)
(-3.0831 -6.08443e-07 0)
(-3.08025 -5.98901e-07 0)
(-3.07744 -5.89555e-07 0)
(-3.07466 -5.80401e-07 0)
(-3.07192 -5.71433e-07 0)
(-3.06921 -5.62646e-07 0)
(-3.06655 -5.54036e-07 0)
(-3.06391 -5.45596e-07 0)
(-3.06131 -5.37323e-07 0)
(-3.05875 -5.29211e-07 0)
(-3.05621 -5.21256e-07 0)
(-3.05371 -5.13452e-07 0)
(-3.05124 -5.05794e-07 0)
(-3.0488 -4.98276e-07 0)
(-3.04639 -4.90892e-07 0)
(-3.04401 -4.83634e-07 0)
(-3.04167 -4.76492e-07 0)
(-3.03935 -4.69456e-07 0)
(-3.03706 -4.62506e-07 0)
(-3.0348 -4.55626e-07 0)
(-3.03256 -4.48774e-07 0)
(-3.03036 -4.41792e-07 0)
(-3.02819 -4.35285e-07 0)
(-3.02604 -4.26351e-07 0)
(-3.02394 -4.20524e-07 0)
(-3.02184 -4.22154e-07 0)
(-3.01984 -4.19002e-07 0)
(-3.01798 -4.04281e-07 0)
(-3.0162 -3.90183e-07 0)
(-3.01444 -3.83285e-07 0)
(-3.01268 -3.78316e-07 0)
(-3.01092 -3.74401e-07 0)
(-3.00917 -3.71082e-07 0)
(-3.0074 -3.68105e-07 0)
(-3.00563 -3.65292e-07 0)
(-3.00386 -3.62537e-07 0)
(-3.00208 -3.59777e-07 0)
(-3.00029 -3.56982e-07 0)
(-2.9985 -3.54137e-07 0)
(-2.9967 -3.51235e-07 0)
(-2.9949 -3.48275e-07 0)
(-2.99309 -3.45259e-07 0)
(-2.99128 -3.42191e-07 0)
(-2.98947 -3.39075e-07 0)
(-2.98765 -3.35916e-07 0)
(-2.98583 -3.32717e-07 0)
(-2.98401 -3.29484e-07 0)
(-2.98219 -3.2622e-07 0)
(-2.98036 -3.2293e-07 0)
(-2.97854 -3.19616e-07 0)
(-2.97671 -3.16282e-07 0)
(-2.97488 -3.12932e-07 0)
(-2.97306 -3.09567e-07 0)
(-2.97123 -3.06192e-07 0)
(-2.9694 -3.02808e-07 0)
(-2.96758 -2.99417e-07 0)
(-2.96575 -2.96023e-07 0)
(-2.96393 -2.92627e-07 0)
(-2.9621 -2.8923e-07 0)
(-2.96028 -2.85836e-07 0)
(-2.95847 -2.82445e-07 0)
(-2.95665 -2.7906e-07 0)
(-2.95483 -2.75681e-07 0)
(-2.95302 -2.7231e-07 0)
(-2.95121 -2.68949e-07 0)
(-2.94941 -2.65599e-07 0)
(-2.9476 -2.62261e-07 0)
(-2.9458 -2.58936e-07 0)
(-2.94401 -2.55625e-07 0)
(-2.94222 -2.5233e-07 0)
(-2.94043 -2.49051e-07 0)
(-2.93864 -2.45788e-07 0)
(-2.93687 -2.42544e-07 0)
(-2.93509 -2.39318e-07 0)
(-2.93332 -2.36112e-07 0)
(-2.93155 -2.32926e-07 0)
(-2.92979 -2.29761e-07 0)
(-2.92804 -2.26617e-07 0)
(-2.92629 -2.23495e-07 0)
(-2.92454 -2.20396e-07 0)
(-2.92281 -2.1732e-07 0)
(-2.92107 -2.14267e-07 0)
(-2.91935 -2.11239e-07 0)
(-2.91762 -2.08234e-07 0)
(-2.91591 -2.05255e-07 0)
(-2.9142 -2.02301e-07 0)
(-2.9125 -1.99372e-07 0)
(-2.9108 -1.96469e-07 0)
(-2.90911 -1.93592e-07 0)
(-2.90743 -1.90742e-07 0)
(-2.90575 -1.87918e-07 0)
(-2.90409 -1.85121e-07 0)
(-2.90242 -1.82351e-07 0)
(-2.90077 -1.79608e-07 0)
(-2.89912 -1.76892e-07 0)
(-2.89748 -1.74204e-07 0)
(-2.89585 -1.71543e-07 0)
(-2.89423 -1.68911e-07 0)
(-2.89261 -1.66306e-07 0)
(-2.891 -1.63728e-07 0)
(-2.8894 -1.61179e-07 0)
(-2.88781 -1.58658e-07 0)
(-2.88622 -1.56165e-07 0)
(-2.88464 -1.53699e-07 0)
(-2.88307 -1.51262e-07 0)
(-2.88151 -1.48853e-07 0)
(-2.87996 -1.46471e-07 0)
(-2.87842 -1.44118e-07 0)
(-2.87688 -1.41793e-07 0)
(-2.87535 -1.39495e-07 0)
(-2.87383 -1.37225e-07 0)
(-2.87232 -1.34983e-07 0)
(-2.87082 -1.32769e-07 0)
(-2.86933 -1.30582e-07 0)
(-2.86784 -1.28423e-07 0)
(-2.86637 -1.26291e-07 0)
(-2.8649 -1.24186e-07 0)
(-2.86345 -1.22108e-07 0)
(-2.862 -1.20057e-07 0)
(-2.86056 -1.18033e-07 0)
(-2.85913 -1.16036e-07 0)
(-2.8577 -1.14066e-07 0)
(-2.85629 -1.12121e-07 0)
(-2.85489 -1.10203e-07 0)
(-2.85349 -1.08312e-07 0)
(-2.85211 -1.06446e-07 0)
(-2.85073 -1.04605e-07 0)
(-2.84936 -1.02791e-07 0)
(-2.84801 -1.01001e-07 0)
(-2.84666 -9.92372e-08 0)
(-2.84532 -9.74981e-08 0)
(-2.84399 -9.57837e-08 0)
(-2.84267 -9.4094e-08 0)
(-2.84136 -9.24287e-08 0)
(-2.84006 -9.07875e-08 0)
(-2.83876 -8.91703e-08 0)
(-2.83748 -8.7577e-08 0)
(-2.83621 -8.60071e-08 0)
(-2.83494 -8.44607e-08 0)
(-2.83369 -8.29373e-08 0)
(-2.83244 -8.14369e-08 0)
(-2.8312 -7.99592e-08 0)
(-2.82997 -7.8504e-08 0)
(-2.82876 -7.7071e-08 0)
(-2.82755 -7.56601e-08 0)
(-2.82635 -7.42709e-08 0)
(-2.82516 -7.29033e-08 0)
(-2.82398 -7.15571e-08 0)
(-2.82281 -7.0232e-08 0)
(-2.82164 -6.89277e-08 0)
(-2.82049 -6.76442e-08 0)
(-2.81935 -6.63811e-08 0)
(-2.81821 -6.51382e-08 0)
(-2.81709 -6.39152e-08 0)
(-2.81597 -6.2712e-08 0)
(-2.81487 -6.15283e-08 0)
(-2.81377 -6.03639e-08 0)
(-2.81268 -5.92185e-08 0)
(-2.8116 -5.8092e-08 0)
(-2.81053 -5.6984e-08 0)
(-2.80947 -5.58945e-08 0)
(-2.80842 -5.4823e-08 0)
(-2.80738 -5.37695e-08 0)
(-2.80634 -5.27337e-08 0)
(-2.80532 -5.17153e-08 0)
(-2.8043 -5.07141e-08 0)
(-2.80329 -4.973e-08 0)
(-2.8023 -4.87626e-08 0)
(-2.80131 -4.78119e-08 0)
(-2.80033 -4.68774e-08 0)
(-2.79935 -4.59591e-08 0)
(-2.79839 -4.50567e-08 0)
(-2.79744 -4.41699e-08 0)
(-2.79649 -4.32987e-08 0)
(-2.79556 -4.24427e-08 0)
(-2.79463 -4.16018e-08 0)
(-2.79371 -4.07757e-08 0)
(-2.7928 -3.99642e-08 0)
(-2.79189 -3.91672e-08 0)
(-2.791 -3.83843e-08 0)
(-2.79011 -3.76155e-08 0)
(-2.78924 -3.68605e-08 0)
(-2.78837 -3.61191e-08 0)
(-2.78751 -3.53911e-08 0)
(-2.78665 -3.46764e-08 0)
(-2.78581 -3.39746e-08 0)
(-2.78497 -3.32857e-08 0)
(-2.78415 -3.26095e-08 0)
(-2.78333 -3.19457e-08 0)
(-2.78252 -3.12942e-08 0)
(-2.78171 -3.06549e-08 0)
(-2.78092 -3.00275e-08 0)
(-2.78013 -2.94119e-08 0)
(-2.77935 -2.88081e-08 0)
(-2.77857 -2.82158e-08 0)
(-2.77781 -2.76349e-08 0)
(-2.77705 -2.70656e-08 0)
(-2.7763 -2.65077e-08 0)
(-2.77556 -2.59616e-08 0)
(-2.77483 -2.54276e-08 0)
(-2.7741 -2.49069e-08 0)
(-2.77338 -2.44016e-08 0)
(-2.77267 -2.39162e-08 0)
(-2.77196 -2.34569e-08 0)
(-2.77126 -2.31501e-08 0)
(-2.77055 -2.24446e-08 0)
(-2.76988 -2.32317e-08 0)
(-2.76902 -2.46375e-08 0)
(-2.76808 -2.43214e-08 0)
(-2.76715 -2.33795e-08 0)
(-2.76628 -2.21207e-08 0)
(-2.76545 -2.09564e-08 0)
(-2.76467 -1.99605e-08 0)
(-2.76392 -1.90972e-08 0)
(-2.7632 -1.83267e-08 0)
(-2.76252 -1.76257e-08 0)
(-2.76185 -1.69815e-08 0)
(-2.76122 -1.63852e-08 0)
(-2.7606 -1.58294e-08 0)
(-2.76001 -1.53087e-08 0)
(-2.75943 -1.48186e-08 0)
(-2.75887 -1.43559e-08 0)
(-2.75833 -1.39179e-08 0)
(-2.75781 -1.35021e-08 0)
(-2.7573 -1.31067e-08 0)
(-2.75681 -1.27299e-08 0)
(-2.75633 -1.23703e-08 0)
(-2.75587 -1.20266e-08 0)
(-2.75541 -1.16977e-08 0)
(-2.75497 -1.13826e-08 0)
(-2.75455 -1.10803e-08 0)
(-2.75413 -1.07901e-08 0)
(-2.75372 -1.05112e-08 0)
(-2.75333 -1.0243e-08 0)
(-2.75294 -9.98494e-09 0)
(-2.75257 -9.73635e-09 0)
(-2.7522 -9.49676e-09 0)
(-2.75184 -9.26571e-09 0)
(-2.7515 -9.04276e-09 0)
(-2.75116 -8.82751e-09 0)
(-2.75082 -8.61959e-09 0)
(-2.7505 -8.41864e-09 0)
(-2.75018 -8.22434e-09 0)
(-2.74987 -8.03638e-09 0)
(-2.74957 -7.85448e-09 0)
(-2.74928 -7.67837e-09 0)
(-2.74899 -7.50781e-09 0)
(-2.74871 -7.34255e-09 0)
(-2.74843 -7.18236e-09 0)
(-2.74816 -7.02705e-09 0)
(-2.7479 -6.87642e-09 0)
(-2.74764 -6.73026e-09 0)
(-2.74738 -6.58841e-09 0)
(-2.74714 -6.4507e-09 0)
(-2.74689 -6.31697e-09 0)
(-2.74666 -6.18707e-09 0)
(-2.74642 -6.06085e-09 0)
(-2.7462 -5.93817e-09 0)
(-2.74597 -5.81892e-09 0)
(-2.74575 -5.70296e-09 0)
(-2.74554 -5.59017e-09 0)
(-2.74533 -5.48045e-09 0)
(-2.74512 -5.37368e-09 0)
(-2.74492 -5.26977e-09 0)
(-2.74472 -5.16862e-09 0)
(-2.74453 -5.07014e-09 0)
(-2.74434 -4.97423e-09 0)
(-2.74415 -4.88082e-09 0)
(-2.74397 -4.78982e-09 0)
(-2.74379 -4.70115e-09 0)
(-2.74361 -4.61475e-09 0)
(-2.74344 -4.53055e-09 0)
(-2.74327 -4.44847e-09 0)
(-2.7431 -4.36846e-09 0)
(-2.74294 -4.29045e-09 0)
(-2.74278 -4.2144e-09 0)
(-2.74262 -4.14025e-09 0)
(-2.74246 -4.06794e-09 0)
(-2.74231 -3.99744e-09 0)
(-2.74216 -3.92871e-09 0)
(-2.74201 -3.8617e-09 0)
(-2.74187 -3.79638e-09 0)
(-2.74173 -3.73274e-09 0)
(-2.74159 -3.67076e-09 0)
(-2.74145 -3.61042e-09 0)
(-2.74131 -3.55174e-09 0)
(-2.74118 -3.49474e-09 0)
(-2.74105 -3.43949e-09 0)
(-2.74092 -3.38607e-09 0)
(-2.74079 -3.33465e-09 0)
(-2.74067 -3.28555e-09 0)
(-2.74054 -3.23904e-09 0)
(-2.74042 -3.19647e-09 0)
(-2.7403 -3.15752e-09 0)
(-2.74018 -3.13054e-09 0)
(-2.74007 -3.10124e-09 0)
(-2.73995 -3.16884e-09 0)
(-2.73983 -2.95039e-09 0)
(-2.73973 -4.65231e-09 0)
(-2.73947 4.97797e-10 0)
(-2.73977 -1.95167e-09 0)
(-2.73931 -6.41963e-09 0)
)
;
    }
    symmetry
    {
        type            symmetryPlane;
    }
    frontAndBack
    {
        type            empty;
    }
}


// ************************************************************************* //
