/*--------------------------------*- C++ -*----------------------------------*\
| =========                 |                                                 |
| \\      /  F ield         | OpenFOAM: The Open Source CFD Toolbox           |
|  \\    /   O peration     | Version:  v2012                                 |
|   \\  /    A nd           | Website:  www.openfoam.com                      |
|    \\/     M anipulation  |                                                 |
\*---------------------------------------------------------------------------*/
FoamFile
{
    version     2.0;
    format      ascii;
    class       volScalarField;
    location    "8";
    object      yPlus;
}
// * * * * * * * * * * * * * * * * * * * * * * * * * * * * * * * * * * * * * //

dimensions      [0 0 0 0 0 0 0];


internalField   uniform 0;

boundaryField
{
    inlet
    {
        type            calculated;
        value           uniform 0;
    }
    outlet
    {
        type            calculated;
        value           uniform 0;
    }
    topWall
    {
        type            calculated;
        value           nonuniform List<scalar> 
545
(
0.0606268
0.104771
0.134345
0.157849
0.177728
0.195105
0.210607
0.22463
0.237444
0.249243
0.260171
0.270341
0.279844
0.288752
0.297126
0.305016
0.312466
0.319512
0.326188
0.332522
0.338538
0.34426
0.349708
0.354899
0.35985
0.364575
0.369089
0.373404
0.377532
0.381481
0.385264
0.388888
0.392362
0.395693
0.39889
0.401958
0.404904
0.407734
0.410453
0.413068
0.415582
0.418
0.420327
0.422567
0.424723
0.4268
0.4288
0.430728
0.432585
0.434376
0.436103
0.437768
0.439375
0.440925
0.442421
0.443865
0.445259
0.446605
0.447905
0.44916
0.450373
0.451545
0.452678
0.453773
0.454831
0.455854
0.456844
0.4578
0.458726
0.459621
0.460487
0.461325
0.462124
0.462897
0.463661
0.464418
0.465168
0.46591
0.466645
0.467372
0.468093
0.468806
0.469513
0.470212
0.470905
0.471591
0.47227
0.472943
0.473609
0.474269
0.474922
0.475569
0.476209
0.476844
0.477472
0.478095
0.478651
0.479146
0.479641
0.480135
0.480629
0.481121
0.481612
0.482103
0.482593
0.483082
0.48357
0.484057
0.484544
0.485029
0.485514
0.485997
0.48648
0.486962
0.487443
0.487923
0.488402
0.48888
0.489357
0.489833
0.490309
0.490783
0.491256
0.491728
0.4922
0.49267
0.493139
0.493607
0.494074
0.494541
0.495006
0.49547
0.495933
0.496395
0.496856
0.497315
0.497774
0.498231
0.498688
0.499143
0.499597
0.50005
0.500502
0.500953
0.501403
0.501851
0.502298
0.502744
0.503189
0.503633
0.504075
0.504516
0.504956
0.505395
0.505832
0.506269
0.506704
0.507137
0.50757
0.508001
0.508431
0.508859
0.509286
0.509712
0.510137
0.51056
0.510981
0.511402
0.511821
0.512239
0.512655
0.51307
0.513483
0.513895
0.514306
0.514715
0.515123
0.515529
0.515934
0.516337
0.516739
0.517139
0.517538
0.517935
0.518331
0.518725
0.519118
0.519509
0.519898
0.520286
0.520673
0.521058
0.521441
0.521822
0.522202
0.522581
0.522957
0.523332
0.523706
0.524077
0.524447
0.524816
0.525182
0.525547
0.52591
0.526272
0.526632
0.526989
0.527346
0.5277
0.528053
0.528404
0.528753
0.5291
0.529445
0.529789
0.53013
0.53047
0.530808
0.531144
0.531479
0.531811
0.532141
0.53247
0.532796
0.533121
0.533444
0.533765
0.534083
0.5344
0.534715
0.535028
0.535339
0.535647
0.535954
0.536259
0.536561
0.536862
0.537161
0.537457
0.537751
0.538044
0.538334
0.538622
0.538908
0.539191
0.539473
0.539752
0.54003
0.540305
0.540577
0.540848
0.541117
0.541383
0.541647
0.541908
0.542168
0.542425
0.54268
0.542933
0.543183
0.543431
0.543677
0.54392
0.544161
0.5444
0.544636
0.54487
0.545102
0.545316
0.545515
0.545715
0.545915
0.546114
0.546314
0.546513
0.546712
0.546911
0.547109
0.547308
0.547505
0.547703
0.547899
0.548096
0.548291
0.548486
0.54868
0.548873
0.549066
0.549257
0.549447
0.549637
0.549825
0.550011
0.550197
0.550381
0.550563
0.550744
0.550924
0.551101
0.551277
0.55145
0.551622
0.551792
0.551959
0.552124
0.552287
0.552447
0.552605
0.552759
0.552911
0.55306
0.553206
0.553349
0.553489
0.553625
0.553757
0.553886
0.554012
0.554133
0.55425
0.554363
0.554472
0.554576
0.554676
0.554771
0.554862
0.554947
0.555027
0.555102
0.555171
0.555235
0.555293
0.555345
0.555391
0.555431
0.555464
0.555491
0.555511
0.555524
0.55553
0.555529
0.555521
0.555504
0.55548
0.555448
0.555408
0.555359
0.555302
0.555236
0.555161
0.555077
0.554984
0.554881
0.554768
0.554646
0.554513
0.55437
0.554216
0.554052
0.553876
0.55369
0.553492
0.553282
0.553061
0.552827
0.552581
0.552323
0.552052
0.551769
0.551472
0.551162
0.550838
0.550501
0.55015
0.549784
0.549404
0.54901
0.548601
0.548176
0.547737
0.547282
0.546812
0.546325
0.545823
0.545305
0.54477
0.544218
0.54365
0.543065
0.542463
0.541843
0.541206
0.540551
0.539879
0.539188
0.53848
0.537753
0.537008
0.536244
0.535462
0.53466
0.53384
0.533001
0.532143
0.531265
0.530368
0.529452
0.528517
0.527561
0.526587
0.525592
0.524578
0.523544
0.522491
0.521418
0.520325
0.519212
0.518079
0.516927
0.515756
0.514564
0.513353
0.512123
0.510873
0.509604
0.508316
0.507009
0.505683
0.504338
0.502975
0.501593
0.500192
0.498774
0.497338
0.495884
0.494413
0.492925
0.49142
0.489898
0.48836
0.486805
0.485235
0.48365
0.482049
0.480434
0.478804
0.477161
0.475504
0.473832
0.471964
0.46991
0.467865
0.465831
0.463807
0.461795
0.459795
0.457808
0.455833
0.453873
0.451927
0.449996
0.44808
0.44618
0.444295
0.442427
0.440576
0.438742
0.436926
0.435127
0.433347
0.431584
0.429841
0.428116
0.42641
0.424723
0.423056
0.421408
0.419781
0.418173
0.416586
0.415019
0.413472
0.411946
0.410441
0.408957
0.407493
0.406051
0.404631
0.403232
0.401854
0.400498
0.399164
0.397851
0.396561
0.395293
0.394047
0.392823
0.391622
0.390443
0.389287
0.388154
0.387043
0.385956
0.384891
0.38385
0.382832
0.381837
0.380866
0.379919
0.378995
0.378096
0.37722
0.376368
0.37554
0.374737
0.373958
0.373203
0.372473
0.371768
0.371088
0.370432
0.369802
0.369197
0.368617
0.368062
0.367533
0.367029
0.366551
0.366098
0.365671
0.365271
0.364896
0.364547
0.364224
0.363927
0.363656
0.363412
0.363193
0.363001
0.362836
0.362698
0.362583
0.362506
0.362412
)
;
    }
    bottomWall
    {
        type            calculated;
        value           nonuniform List<scalar> 
449
(
0.139734
0.0891282
0.0759579
0.0695809
0.0654019
0.0622889
0.0598176
0.0577887
0.0560834
0.0546232
0.0533545
0.0522395
0.0512502
0.0503653
0.0495678
0.0488448
0.0481855
0.0475815
0.0470256
0.046512
0.0460358
0.0455929
0.0451797
0.0447931
0.0444306
0.0440898
0.0437688
0.0434659
0.0431794
0.0429081
0.0426506
0.042406
0.0421733
0.0419515
0.04174
0.0415379
0.0413447
0.0411597
0.0409825
0.0408124
0.0406492
0.0404924
0.0403416
0.0401964
0.0400566
0.0399218
0.0397918
0.0396663
0.039545
0.0394279
0.0393146
0.0392049
0.0390988
0.038996
0.0388963
0.0387997
0.038706
0.038615
0.0385266
0.0384408
0.0383574
0.0382763
0.0381974
0.0381206
0.0380459
0.0379732
0.0379023
0.0378332
0.0377659
0.0377003
0.0376363
0.0375738
0.0375129
0.0374534
0.0373953
0.0373385
0.0372831
0.0372289
0.0371759
0.0371241
0.0370734
0.0370239
0.0369754
0.0369279
0.0368815
0.036836
0.0367914
0.0367478
0.036705
0.0366631
0.0366221
0.0365818
0.0365423
0.0365036
0.0364656
0.0364284
0.0363919
0.036356
0.0363208
0.0362862
0.0362523
0.036219
0.0361862
0.0361541
0.0361225
0.0360915
0.036061
0.036031
0.0360015
0.0359726
0.0359441
0.0359161
0.0358885
0.0358614
0.0358348
0.0358085
0.0357827
0.0357573
0.0357323
0.0357077
0.0356835
0.0356596
0.0356362
0.035613
0.0355902
0.0355678
0.0355457
0.0355239
0.0355025
0.0354813
0.0354605
0.03544
0.0354197
0.0353998
0.0353801
0.0353607
0.0353416
0.0353227
0.0353041
0.0352858
0.0352677
0.0352498
0.0352322
0.0352149
0.0351977
0.0351808
0.0351641
0.0351476
0.0351314
0.0351153
0.0350995
0.0350838
0.0350684
0.0350531
0.0350381
0.0350232
0.0350085
0.034994
0.0349797
0.0349655
0.0349516
0.0349378
0.0349241
0.0349106
0.0348973
0.0348842
0.0348712
0.0348584
0.0348457
0.0348332
0.0348208
0.0348088
0.0347967
0.0347852
0.0347745
0.0347642
0.034754
0.0347439
0.0347338
0.0347236
0.0347135
0.0347032
0.034693
0.0346827
0.0346724
0.034662
0.0346516
0.0346412
0.0346308
0.0346203
0.0346098
0.0345993
0.0345887
0.0345782
0.0345676
0.034557
0.0345465
0.0345359
0.0345253
0.0345147
0.0345041
0.0344934
0.0344828
0.0344722
0.0344616
0.034451
0.0344404
0.0344299
0.0344193
0.0344087
0.0343982
0.0343876
0.0343771
0.0343666
0.0343561
0.0343456
0.0343352
0.0343247
0.0343143
0.0343039
0.0342936
0.0342832
0.0342729
0.0342626
0.0342524
0.0342421
0.0342319
0.0342217
0.0342116
0.0342015
0.0341914
0.0341813
0.0341713
0.0341613
0.0341514
0.0341415
0.0341316
0.0341218
0.034112
0.0341022
0.0340925
0.0340828
0.0340732
0.0340636
0.034054
0.0340445
0.034035
0.0340256
0.0340162
0.0340069
0.0339976
0.0339883
0.0339791
0.03397
0.0339609
0.0339518
0.0339428
0.0339338
0.0339249
0.033916
0.0339072
0.0338985
0.0338897
0.0338811
0.0338724
0.0338639
0.0338553
0.0338469
0.0338385
0.0338301
0.0338218
0.0338135
0.0338053
0.0337972
0.0337891
0.033781
0.033773
0.0337651
0.0337572
0.0337493
0.0337415
0.0337338
0.0337261
0.0337185
0.0337109
0.0337034
0.033696
0.0336885
0.0336812
0.0336739
0.0336666
0.0336595
0.0336523
0.0336452
0.0336382
0.0336312
0.0336243
0.0336174
0.0336106
0.0336038
0.0335971
0.0335905
0.0335839
0.0335773
0.0335708
0.0335644
0.033558
0.0335517
0.0335454
0.0335392
0.033533
0.0335269
0.0335208
0.0335148
0.0335088
0.0335029
0.033497
0.0334912
0.0334855
0.0334798
0.0334741
0.0334685
0.0334629
0.0334574
0.033452
0.0334466
0.0334412
0.0334359
0.0334306
0.0334254
0.0334203
0.0334152
0.0334101
0.0334051
0.0334001
0.0333952
0.0333903
0.0333855
0.0333807
0.033376
0.0333713
0.0333667
0.0333621
0.0333575
0.033353
0.0333486
0.0333442
0.0333398
0.0333355
0.0333312
0.0333269
0.0333227
0.0333185
0.0333145
0.0333093
0.0333036
0.033298
0.0332928
0.0332878
0.0332831
0.0332786
0.0332743
0.0332701
0.0332661
0.0332623
0.0332586
0.033255
0.0332515
0.0332482
0.0332449
0.0332418
0.0332387
0.0332357
0.0332329
0.0332301
0.0332273
0.0332247
0.0332221
0.0332196
0.0332171
0.0332147
0.0332124
0.0332102
0.033208
0.0332058
0.0332037
0.0332016
0.0331996
0.0331977
0.0331958
0.0331939
0.0331921
0.0331903
0.0331886
0.0331869
0.0331852
0.0331836
0.033182
0.0331804
0.0331789
0.0331774
0.0331759
0.0331745
0.0331731
0.0331717
0.0331704
0.033169
0.0331677
0.0331665
0.0331652
0.033164
0.0331628
0.0331616
0.0331605
0.0331594
0.0331583
0.0331572
0.0331561
0.0331551
0.033154
0.033153
0.033152
0.0331511
0.0331501
0.0331492
0.0331482
0.0331473
0.0331464
0.0331456
0.0331447
0.0331439
0.033143
0.0331422
0.0331414
0.0331406
0.0331398
0.0331391
0.0331383
0.0331376
0.0331368
0.0331361
0.0331354
0.0331347
0.033134
0.0331332
0.0331326
0.0331311
0.0331329
0.0331301
)
;
    }
    symmetry
    {
        type            symmetryPlane;
    }
    frontAndBack
    {
        type            empty;
    }
}


// ************************************************************************* //
