/*--------------------------------*- C++ -*----------------------------------*\
| =========                 |                                                 |
| \\      /  F ield         | OpenFOAM: The Open Source CFD Toolbox           |
|  \\    /   O peration     | Version:  v2012                                 |
|   \\  /    A nd           | Website:  www.openfoam.com                      |
|    \\/     M anipulation  |                                                 |
\*---------------------------------------------------------------------------*/
FoamFile
{
    version     2.0;
    format      ascii;
    class       volScalarField;
    location    "6.5";
    object      epsilon;
}
// * * * * * * * * * * * * * * * * * * * * * * * * * * * * * * * * * * * * * //

dimensions      [0 2 -3 0 0 0 0];


internalField   nonuniform List<scalar> 
209825
(
0.796945
0.7819
0.778145
0.776737
0.776031
0.77564
0.775389
0.775226
0.775103
0.77502
0.774947
0.774899
0.774844
0.774817
0.774795
0.774778
0.774758
0.774747
0.77473
0.774723
0.774705
0.774707
0.774703
0.774706
0.7747
0.77471
0.774709
0.774721
0.77472
0.774738
0.774738
0.774754
0.774754
0.774772
0.774772
0.77479
0.77479
0.774821
0.774821
0.774838
0.774838
0.774861
0.774861
0.774891
0.774891
0.774919
0.774919
0.774945
0.774945
0.774976
0.774976
0.77502
0.77502
0.77502
0.775029
0.775029
0.775079
0.775079
0.775129
0.775129
0.775128
0.775123
0.775204
0.775213
0.77522
0.77522
0.775332
0.775337
0.775337
0.775432
0.775433
0.775433
0.77553
0.77553
0.77567
0.775752
0.775802
0.775899
0.77601
0.776011
0.776191
0.776274
0.776451
0.776707
0.776921
0.777237
0.77761
0.778106
0.778845
0.779572
0.781147
0.782422
0.786312
0.798329
1.05608
203.56
0.796934
0.781874
0.778113
0.776701
0.775993
0.775601
0.775349
0.775186
0.775062
0.774979
0.774906
0.774858
0.774803
0.774776
0.774753
0.774737
0.774716
0.774705
0.774689
0.774681
0.774664
0.774665
0.774662
0.774664
0.774658
0.774668
0.774667
0.774679
0.774678
0.774697
0.774697
0.774712
0.774712
0.77473
0.77473
0.774749
0.774749
0.774779
0.774779
0.774796
0.774796
0.774819
0.774819
0.774849
0.774849
0.774878
0.774878
0.774903
0.774903
0.774935
0.774935
0.774978
0.774978
0.774978
0.774987
0.774987
0.775038
0.775038
0.775087
0.775087
0.775087
0.775082
0.775163
0.775172
0.775179
0.775179
0.775291
0.775296
0.775296
0.775391
0.775392
0.775392
0.77549
0.77549
0.775629
0.775712
0.775762
0.775859
0.775969
0.775971
0.776151
0.776234
0.776411
0.776668
0.776883
0.777199
0.777572
0.778068
0.778808
0.779537
0.781113
0.78239
0.78628
0.79833
1.05683
200.323
0.796871
0.781748
0.777962
0.776539
0.775824
0.775428
0.775173
0.775008
0.774883
0.774799
0.774725
0.774677
0.774622
0.774594
0.774571
0.774554
0.774533
0.774522
0.774505
0.774498
0.77448
0.774482
0.774478
0.77448
0.774475
0.774484
0.774483
0.774495
0.774494
0.774512
0.774512
0.774528
0.774528
0.774546
0.774546
0.774565
0.774564
0.774595
0.774595
0.774612
0.774612
0.774635
0.774635
0.774666
0.774666
0.774694
0.774694
0.77472
0.77472
0.774751
0.774751
0.774795
0.774795
0.774795
0.774804
0.774804
0.774855
0.774855
0.774905
0.774905
0.774904
0.774899
0.774981
0.77499
0.774997
0.774997
0.775109
0.775114
0.775114
0.77521
0.775211
0.775211
0.775309
0.775309
0.775449
0.775532
0.775582
0.77568
0.775791
0.775793
0.775974
0.776058
0.776235
0.776493
0.776709
0.777026
0.7774
0.777899
0.778641
0.779372
0.780951
0.782236
0.786117
0.798264
1.05874
196.843
0.796762
0.781534
0.777706
0.776263
0.775537
0.775135
0.774875
0.774707
0.77458
0.774495
0.774419
0.77437
0.774313
0.774285
0.774262
0.774244
0.774223
0.774212
0.774195
0.774187
0.774169
0.77417
0.774166
0.774169
0.774163
0.774172
0.774171
0.774183
0.774182
0.7742
0.7742
0.774216
0.774216
0.774234
0.774234
0.774253
0.774253
0.774283
0.774283
0.774301
0.774301
0.774323
0.774323
0.774354
0.774354
0.774383
0.774383
0.774408
0.774408
0.77444
0.77444
0.774484
0.774484
0.774484
0.774493
0.774493
0.774545
0.774545
0.774595
0.774595
0.774595
0.77459
0.774672
0.774681
0.774688
0.774688
0.774801
0.774806
0.774806
0.774903
0.774904
0.774904
0.775003
0.775003
0.775144
0.775228
0.775278
0.775376
0.775489
0.775492
0.775673
0.775758
0.775936
0.776195
0.776413
0.776733
0.777109
0.77761
0.778356
0.779092
0.780674
0.781971
0.785836
0.79814
1.06184
193.853
0.796608
0.781231
0.777343
0.775872
0.77513
0.774719
0.774453
0.774281
0.774151
0.774063
0.773986
0.773935
0.773877
0.773848
0.773824
0.773806
0.773784
0.773772
0.773755
0.773747
0.773729
0.77373
0.773726
0.773728
0.773722
0.773731
0.77373
0.773741
0.77374
0.773759
0.773759
0.773775
0.773774
0.773792
0.773792
0.773811
0.773811
0.773842
0.773842
0.77386
0.77386
0.773882
0.773882
0.773913
0.773913
0.773942
0.773942
0.773968
0.773968
0.774
0.774
0.774044
0.774045
0.774045
0.774054
0.774054
0.774107
0.774107
0.774157
0.774157
0.774156
0.774151
0.774234
0.774244
0.774251
0.774251
0.774365
0.774371
0.774371
0.774468
0.77447
0.77447
0.77457
0.77457
0.774711
0.774797
0.774847
0.774946
0.775061
0.775064
0.775247
0.775333
0.775513
0.775774
0.775995
0.776316
0.776696
0.777201
0.777951
0.778693
0.78028
0.781595
0.785435
0.797959
1.0662
191.647
0.796409
0.780839
0.776873
0.775365
0.774603
0.774179
0.773906
0.773728
0.773593
0.773503
0.773423
0.773371
0.773312
0.773281
0.773256
0.773237
0.773215
0.773202
0.773184
0.773176
0.773157
0.773158
0.773154
0.773155
0.773149
0.773158
0.773157
0.773168
0.773167
0.773185
0.773185
0.773201
0.773201
0.773219
0.773219
0.773238
0.773238
0.773269
0.773269
0.773287
0.773287
0.77331
0.77331
0.773341
0.773341
0.77337
0.77337
0.773396
0.773396
0.773429
0.773429
0.773473
0.773474
0.773474
0.773483
0.773483
0.773537
0.773538
0.773588
0.773587
0.773587
0.773582
0.773666
0.773677
0.773683
0.773683
0.773798
0.773805
0.773805
0.773904
0.773906
0.773906
0.774008
0.774008
0.77415
0.774238
0.774288
0.774388
0.774505
0.774509
0.774694
0.774782
0.774962
0.775226
0.77545
0.775776
0.776159
0.776668
0.777425
0.778175
0.779767
0.781105
0.784911
0.797717
1.07192
190.328
0.796164
0.780356
0.776294
0.77474
0.773953
0.773514
0.77323
0.773046
0.772906
0.772812
0.772729
0.772674
0.772613
0.772581
0.772555
0.772535
0.772512
0.772499
0.77248
0.772471
0.772452
0.772452
0.772448
0.772449
0.772442
0.772451
0.77245
0.772461
0.77246
0.772478
0.772478
0.772494
0.772494
0.772512
0.772512
0.772531
0.772531
0.772562
0.772562
0.77258
0.77258
0.772603
0.772603
0.772635
0.772635
0.772665
0.772665
0.772691
0.772691
0.772724
0.772724
0.772768
0.77277
0.77277
0.772779
0.772779
0.772835
0.772835
0.772885
0.772885
0.772885
0.77288
0.772965
0.772978
0.772983
0.772983
0.773099
0.773107
0.773107
0.773208
0.77321
0.77321
0.773314
0.773314
0.773457
0.773548
0.773597
0.773699
0.773819
0.773824
0.774011
0.774102
0.774283
0.774551
0.774779
0.775108
0.775495
0.776011
0.776774
0.777534
0.779132
0.780498
0.784262
0.797415
1.07909
189.894
0.795875
0.779781
0.775604
0.773996
0.773179
0.772721
0.772426
0.772233
0.772087
0.771988
0.771902
0.771844
0.771781
0.771747
0.771719
0.771698
0.771674
0.77166
0.771641
0.771631
0.771612
0.771611
0.771606
0.771607
0.771599
0.771608
0.771607
0.771618
0.771616
0.771635
0.771635
0.77165
0.77165
0.771668
0.771668
0.771687
0.771687
0.77172
0.77172
0.771737
0.771737
0.771761
0.771761
0.771793
0.771793
0.771823
0.771823
0.77185
0.77185
0.771883
0.771883
0.771928
0.77193
0.77193
0.771939
0.771939
0.771997
0.771998
0.772048
0.772048
0.772048
0.772043
0.772129
0.772143
0.772148
0.772148
0.772266
0.772274
0.772274
0.772377
0.77238
0.77238
0.772486
0.772486
0.77263
0.772724
0.772774
0.772877
0.773
0.773007
0.773196
0.77329
0.773472
0.773744
0.773977
0.77431
0.774703
0.775225
0.775997
0.776768
0.778373
0.779773
0.783485
0.797049
1.0878
190.276
0.795541
0.779116
0.774803
0.773131
0.772278
0.771799
0.771489
0.771286
0.771133
0.771029
0.770939
0.770878
0.770812
0.770776
0.770746
0.770724
0.770698
0.770683
0.770663
0.770653
0.770633
0.770632
0.770626
0.770626
0.770618
0.770627
0.770625
0.770636
0.770634
0.770653
0.770653
0.770668
0.770668
0.770686
0.770686
0.770705
0.770705
0.770738
0.770738
0.770756
0.770756
0.770779
0.770779
0.770813
0.770813
0.770843
0.770843
0.77087
0.77087
0.770904
0.770903
0.770949
0.770952
0.770952
0.770961
0.770961
0.771021
0.771023
0.771073
0.771073
0.771072
0.771068
0.771156
0.771171
0.771176
0.771175
0.771295
0.771305
0.771305
0.771409
0.771413
0.771413
0.771522
0.771522
0.771667
0.771765
0.771814
0.77192
0.772047
0.772055
0.772247
0.772344
0.772528
0.772804
0.773042
0.773381
0.77378
0.77431
0.77509
0.775874
0.777487
0.778925
0.782577
0.796617
1.09817
191.365
0.795162
0.778358
0.77389
0.772143
0.771249
0.770745
0.770419
0.770205
0.770043
0.769933
0.769838
0.769773
0.769704
0.769665
0.769633
0.76961
0.769583
0.769567
0.769545
0.769534
0.769513
0.769511
0.769505
0.769505
0.769496
0.769504
0.769502
0.769513
0.76951
0.769529
0.769529
0.769545
0.769545
0.769563
0.769563
0.769582
0.769582
0.769616
0.769616
0.769634
0.769634
0.769657
0.769657
0.769691
0.769691
0.769722
0.769722
0.76975
0.76975
0.769783
0.769783
0.76983
0.769833
0.769833
0.769843
0.769843
0.769905
0.769907
0.769957
0.769957
0.769957
0.769953
0.770043
0.770059
0.770063
0.770063
0.770184
0.770196
0.770196
0.770303
0.770307
0.770307
0.770419
0.770419
0.770566
0.770668
0.770717
0.770824
0.770956
0.770966
0.77116
0.771261
0.771447
0.771728
0.771973
0.772318
0.772723
0.773261
0.774052
0.774849
0.77647
0.777953
0.781536
0.796116
1.1103
193.019
0.79474
0.777507
0.772863
0.771031
0.770091
0.769558
0.769212
0.768986
0.768814
0.768697
0.768596
0.768528
0.768455
0.768413
0.768378
0.768353
0.768324
0.768307
0.768284
0.768273
0.76825
0.768248
0.768241
0.76824
0.76823
0.768238
0.768236
0.768246
0.768243
0.768262
0.768262
0.768278
0.768278
0.768296
0.768296
0.768315
0.768315
0.768349
0.768349
0.768368
0.768368
0.768391
0.768391
0.768426
0.768426
0.768458
0.768458
0.768486
0.768486
0.76852
0.76852
0.768567
0.768571
0.768571
0.768581
0.768581
0.768645
0.768649
0.768699
0.768699
0.768699
0.768694
0.768787
0.768805
0.768808
0.768808
0.768931
0.768945
0.768944
0.769054
0.76906
0.76906
0.769174
0.769175
0.769323
0.769429
0.769478
0.769588
0.769725
0.769737
0.769935
0.77004
0.770227
0.770514
0.770765
0.771117
0.77153
0.772077
0.772878
0.773692
0.77532
0.776853
0.780357
0.795542
1.12429
195.084
0.794275
0.776564
0.771721
0.769794
0.7688
0.768236
0.767868
0.767627
0.767445
0.767319
0.767212
0.767139
0.767061
0.767016
0.766979
0.766952
0.766921
0.766902
0.766878
0.766865
0.766842
0.766839
0.766831
0.766829
0.766819
0.766826
0.766824
0.766833
0.76683
0.766849
0.766849
0.766864
0.766864
0.766882
0.766882
0.766902
0.766902
0.766937
0.766937
0.766956
0.766955
0.76698
0.766979
0.767015
0.767015
0.767048
0.767048
0.767076
0.767076
0.767111
0.767111
0.767158
0.767164
0.767164
0.767174
0.767174
0.767241
0.767246
0.767295
0.767295
0.767295
0.767291
0.767386
0.767406
0.767408
0.767408
0.767533
0.767549
0.767549
0.767662
0.767668
0.767668
0.767786
0.767787
0.767937
0.768048
0.768097
0.768209
0.768352
0.768366
0.768567
0.768677
0.768866
0.769159
0.769417
0.769776
0.770197
0.770754
0.771567
0.772398
0.774033
0.775623
0.779039
0.79489
1.14023
197.396
0.793768
0.775528
0.770463
0.76843
0.767377
0.766776
0.766384
0.766126
0.765931
0.765797
0.765682
0.765604
0.765522
0.765473
0.765433
0.765403
0.76537
0.76535
0.765324
0.76531
0.765286
0.765281
0.765273
0.76527
0.765259
0.765265
0.765263
0.765272
0.765268
0.765287
0.765287
0.765302
0.765302
0.76532
0.76532
0.76534
0.76534
0.765376
0.765376
0.765394
0.765394
0.765419
0.765419
0.765456
0.765456
0.765489
0.765489
0.765518
0.765518
0.765553
0.765553
0.765601
0.765608
0.765608
0.765618
0.765618
0.765688
0.765694
0.765743
0.765744
0.765743
0.76574
0.765837
0.765859
0.765861
0.765861
0.765988
0.766006
0.766006
0.766122
0.76613
0.76613
0.766251
0.766252
0.766404
0.766521
0.766569
0.766684
0.766833
0.76685
0.767054
0.767169
0.76736
0.76766
0.767926
0.768292
0.768722
0.769289
0.770115
0.770964
0.772607
0.774259
0.777577
0.794157
1.15822
199.795
0.793219
0.774398
0.769089
0.766937
0.765818
0.765176
0.764758
0.764481
0.764273
0.764129
0.764006
0.763921
0.763834
0.763781
0.763737
0.763705
0.76367
0.763647
0.763619
0.763604
0.763578
0.763573
0.763564
0.76356
0.763547
0.763554
0.76355
0.763559
0.763554
0.763573
0.763573
0.763588
0.763588
0.763606
0.763606
0.763626
0.763626
0.763663
0.763663
0.763682
0.763682
0.763706
0.763706
0.763744
0.763744
0.763779
0.763779
0.763808
0.763808
0.763844
0.763844
0.763892
0.763901
0.7639
0.763912
0.763911
0.763984
0.763993
0.764041
0.764041
0.764041
0.764037
0.764137
0.764161
0.764163
0.764163
0.764292
0.764313
0.764313
0.764432
0.764441
0.764442
0.764566
0.764569
0.764722
0.764845
0.764893
0.765011
0.765166
0.765185
0.765394
0.765514
0.765708
0.766014
0.766289
0.766663
0.767101
0.76768
0.768519
0.769389
0.771037
0.772758
0.775967
0.793336
1.17835
202.128
0.79263
0.773176
0.767598
0.765315
0.764122
0.763435
0.762987
0.76269
0.762466
0.762311
0.762179
0.762088
0.761994
0.761937
0.761889
0.761854
0.761816
0.761792
0.761762
0.761745
0.761718
0.761711
0.761701
0.761696
0.761682
0.761688
0.761684
0.761692
0.761687
0.761705
0.761705
0.76172
0.76172
0.761738
0.761738
0.761758
0.761758
0.761796
0.761796
0.761815
0.761815
0.76184
0.76184
0.761879
0.761879
0.761914
0.761914
0.761944
0.761944
0.761981
0.761981
0.76203
0.76204
0.762039
0.762051
0.762051
0.762126
0.762137
0.762185
0.762185
0.762185
0.762182
0.762284
0.762311
0.762312
0.762312
0.762444
0.762467
0.762467
0.76259
0.762601
0.762601
0.762729
0.762733
0.762888
0.763017
0.763065
0.763186
0.763347
0.76337
0.763583
0.763709
0.763905
0.764218
0.764502
0.764885
0.765333
0.765924
0.766776
0.767667
0.769321
0.771117
0.774207
0.792423
1.20068
204.255
0.792002
0.771861
0.765989
0.763562
0.762288
0.761552
0.76107
0.76075
0.760509
0.760342
0.7602
0.760101
0.760001
0.759939
0.759887
0.759848
0.759807
0.75978
0.759748
0.75973
0.759701
0.759693
0.759681
0.759676
0.75966
0.759665
0.759661
0.759668
0.759662
0.75968
0.75968
0.759695
0.759695
0.759713
0.759713
0.759732
0.759732
0.759772
0.759772
0.759791
0.759791
0.759816
0.759816
0.759857
0.759857
0.759893
0.759893
0.759923
0.759924
0.759961
0.759961
0.760011
0.760022
0.760022
0.760033
0.760033
0.760112
0.760126
0.760173
0.760173
0.760173
0.76017
0.760275
0.760304
0.760305
0.760305
0.760439
0.760466
0.760466
0.760592
0.760605
0.760605
0.760737
0.760742
0.760899
0.761035
0.761083
0.761207
0.761376
0.761402
0.76162
0.761752
0.761949
0.76227
0.762563
0.762956
0.763413
0.764017
0.764882
0.765797
0.767454
0.769333
0.772294
0.791409
1.22528
206.049
0.791335
0.770454
0.764261
0.761676
0.760313
0.759523
0.759004
0.758659
0.7584
0.758219
0.758066
0.757959
0.757852
0.757784
0.757727
0.757685
0.75764
0.757611
0.757576
0.757556
0.757525
0.757516
0.757502
0.757496
0.757479
0.757483
0.757478
0.757484
0.757477
0.757496
0.757496
0.75751
0.757509
0.757528
0.757528
0.757547
0.757547
0.757588
0.757588
0.757607
0.757607
0.757633
0.757633
0.757675
0.757675
0.757712
0.757712
0.757743
0.757743
0.757781
0.757781
0.757832
0.757845
0.757845
0.757857
0.757856
0.757938
0.757955
0.758001
0.758002
0.758001
0.757998
0.758107
0.758138
0.758139
0.758139
0.758276
0.758306
0.758306
0.758437
0.758451
0.758451
0.758587
0.758594
0.758753
0.758895
0.758944
0.759071
0.759247
0.759277
0.7595
0.759638
0.759838
0.760166
0.760469
0.760872
0.761339
0.761956
0.762835
0.763774
0.765433
0.7674
0.770223
0.790289
1.25216
207.403
0.790632
0.768955
0.762414
0.759658
0.758197
0.757347
0.756789
0.756416
0.756136
0.75594
0.755774
0.755658
0.755544
0.755469
0.755407
0.755361
0.755313
0.755281
0.755243
0.755221
0.755187
0.755177
0.755162
0.755154
0.755135
0.755139
0.755133
0.755138
0.75513
0.755149
0.755149
0.755163
0.755162
0.75518
0.75518
0.7552
0.755199
0.755242
0.755241
0.755261
0.755261
0.755286
0.755286
0.75533
0.75533
0.755369
0.755369
0.755401
0.755401
0.755439
0.755439
0.75549
0.755505
0.755505
0.755517
0.755517
0.755602
0.755623
0.755668
0.755668
0.755668
0.755665
0.755777
0.755811
0.755811
0.755811
0.755951
0.755985
0.755985
0.75612
0.756136
0.756136
0.756277
0.756286
0.756446
0.756596
0.756645
0.756775
0.756959
0.756993
0.75722
0.757365
0.757567
0.757903
0.758217
0.75863
0.759108
0.759738
0.760631
0.761595
0.763255
0.765316
0.767991
0.789054
1.28134
208.225
0.789893
0.767365
0.760448
0.757505
0.755938
0.755022
0.75442
0.754017
0.753715
0.753502
0.753323
0.753197
0.753074
0.752993
0.752925
0.752874
0.752822
0.752787
0.752746
0.752722
0.752686
0.752673
0.752657
0.752648
0.752627
0.75263
0.752623
0.752627
0.752618
0.752636
0.752636
0.75265
0.752649
0.752667
0.752667
0.752686
0.752686
0.752729
0.752729
0.752749
0.752749
0.752775
0.752775
0.75282
0.75282
0.75286
0.75286
0.752893
0.752893
0.752932
0.752932
0.752983
0.753
0.753001
0.753013
0.753013
0.753101
0.753126
0.75317
0.75317
0.75317
0.753167
0.753283
0.753319
0.753319
0.753319
0.753462
0.7535
0.7535
0.753639
0.753658
0.753658
0.753802
0.753814
0.753975
0.754133
0.754183
0.754315
0.754508
0.754546
0.754779
0.754931
0.755135
0.755479
0.755803
0.756227
0.756715
0.757359
0.758266
0.759256
0.760915
0.763076
0.765595
0.787695
1.31278
208.446
0.789121
0.765684
0.758362
0.755217
0.753535
0.752548
0.751898
0.751462
0.751135
0.750904
0.75071
0.750573
0.750441
0.750352
0.750278
0.750222
0.750165
0.750127
0.750083
0.750056
0.750017
0.750002
0.749984
0.749974
0.749952
0.749953
0.749946
0.749949
0.749938
0.749956
0.749956
0.749969
0.749967
0.749986
0.749986
0.750005
0.750004
0.750049
0.750049
0.750069
0.750069
0.750095
0.750095
0.750141
0.750141
0.750183
0.750183
0.750217
0.750217
0.750256
0.750256
0.750308
0.750328
0.750328
0.750341
0.750341
0.750433
0.750461
0.750504
0.750504
0.750504
0.750502
0.750621
0.75066
0.75066
0.75066
0.750805
0.750848
0.750848
0.750992
0.751012
0.751012
0.751161
0.751176
0.751339
0.751504
0.751555
0.75169
0.751891
0.751934
0.752173
0.752332
0.752538
0.752889
0.753225
0.75366
0.754159
0.754817
0.755737
0.756755
0.758411
0.760676
0.763031
0.786204
1.3464
208.018
0.788317
0.763915
0.756157
0.752793
0.750986
0.749921
0.749219
0.748747
0.748393
0.748143
0.747933
0.747784
0.747641
0.747544
0.747463
0.747402
0.74734
0.747298
0.74725
0.747221
0.747179
0.747162
0.747142
0.74713
0.747106
0.747106
0.747098
0.747099
0.747087
0.747104
0.747104
0.747117
0.747115
0.747133
0.747133
0.747152
0.747151
0.747197
0.747197
0.747217
0.747217
0.747243
0.747243
0.747292
0.747292
0.747335
0.747335
0.747369
0.747369
0.74741
0.74741
0.747462
0.747484
0.747484
0.747498
0.747497
0.747593
0.747625
0.747667
0.747667
0.747667
0.747666
0.747788
0.74783
0.74783
0.74783
0.747979
0.748025
0.748026
0.748174
0.748197
0.748197
0.748351
0.748369
0.748533
0.748706
0.748758
0.748896
0.749105
0.749153
0.749398
0.749564
0.749773
0.750132
0.750479
0.750926
0.751435
0.752108
0.753041
0.754087
0.755738
0.758112
0.760297
0.784569
1.38208
206.904
0.787482
0.762057
0.753833
0.750232
0.74829
0.747141
0.746383
0.745871
0.745488
0.745216
0.744989
0.744827
0.744673
0.744567
0.744478
0.744411
0.744344
0.744298
0.744246
0.744213
0.744168
0.744149
0.744126
0.744113
0.744087
0.744085
0.744076
0.744076
0.744062
0.744079
0.744079
0.744091
0.744089
0.744107
0.744107
0.744125
0.744124
0.744172
0.744172
0.744192
0.744192
0.744218
0.744218
0.744268
0.744268
0.744313
0.744313
0.744349
0.744348
0.744389
0.744389
0.744442
0.744467
0.744467
0.744481
0.74448
0.74458
0.744616
0.744657
0.744657
0.744657
0.744656
0.744782
0.744827
0.744827
0.744827
0.744979
0.745031
0.745031
0.745184
0.74521
0.745209
0.745367
0.74539
0.745555
0.745737
0.74579
0.745931
0.746148
0.746202
0.746452
0.746626
0.746837
0.747203
0.747562
0.74802
0.748541
0.749228
0.750173
0.751249
0.752892
0.755379
0.757388
0.78278
1.41963
205.084
0.786619
0.760113
0.75139
0.747535
0.745447
0.744207
0.743386
0.742832
0.742417
0.742122
0.741876
0.7417
0.741533
0.741417
0.74132
0.741247
0.741174
0.741123
0.741067
0.741031
0.740983
0.740961
0.740936
0.740921
0.740893
0.740889
0.740879
0.740877
0.740861
0.740878
0.740878
0.740889
0.740886
0.740904
0.740904
0.740922
0.74092
0.740969
0.740969
0.74099
0.740989
0.741016
0.741016
0.741068
0.741068
0.741114
0.741114
0.741151
0.741151
0.741192
0.741192
0.741245
0.741273
0.741273
0.741287
0.741286
0.74139
0.741431
0.741471
0.741471
0.741471
0.74147
0.7416
0.741648
0.741648
0.741648
0.741802
0.74186
0.74186
0.742019
0.742047
0.742046
0.742209
0.742236
0.742402
0.742592
0.742647
0.74279
0.743016
0.743075
0.743332
0.743514
0.743727
0.744101
0.744471
0.744942
0.745473
0.746175
0.747132
0.748237
0.749871
0.752473
0.754301
0.780826
1.4588
202.56
0.78573
0.758084
0.748828
0.7447
0.742454
0.741116
0.740229
0.739629
0.739179
0.738858
0.738592
0.7384
0.738221
0.738094
0.737988
0.737908
0.737828
0.737772
0.737711
0.737672
0.737619
0.737595
0.737567
0.73755
0.73752
0.737515
0.737503
0.7375
0.737481
0.737497
0.737497
0.737508
0.737504
0.737522
0.737522
0.737539
0.737537
0.737587
0.737587
0.737608
0.737608
0.737634
0.737634
0.737688
0.737688
0.737736
0.737736
0.737774
0.737774
0.737815
0.737815
0.737868
0.737899
0.737899
0.737914
0.737913
0.73802
0.738066
0.738105
0.738105
0.738106
0.738104
0.738238
0.73829
0.73829
0.73829
0.738447
0.738511
0.738511
0.738674
0.738705
0.738705
0.738872
0.738904
0.739071
0.739269
0.739326
0.739472
0.739707
0.739772
0.740035
0.740225
0.74044
0.740821
0.741203
0.741686
0.742227
0.742944
0.743912
0.745048
0.746669
0.74939
0.751033
0.778694
1.49926
199.347
0.784817
0.755971
0.746149
0.741728
0.739313
0.737868
0.736909
0.736259
0.735772
0.735423
0.735135
0.734926
0.734732
0.734594
0.734478
0.73439
0.734304
0.734242
0.734176
0.734133
0.734076
0.734048
0.734017
0.733999
0.733966
0.733959
0.733946
0.733941
0.733919
0.733935
0.733935
0.733945
0.73394
0.733957
0.733957
0.733974
0.733971
0.734023
0.734023
0.734044
0.734044
0.73407
0.73407
0.734126
0.734125
0.734176
0.734176
0.734215
0.734215
0.734256
0.734256
0.734309
0.734344
0.734344
0.734358
0.734358
0.734469
0.734519
0.734558
0.734558
0.734558
0.734557
0.734695
0.73475
0.734751
0.73475
0.73491
0.73498
0.73498
0.735149
0.735182
0.735182
0.735353
0.735391
0.735559
0.735765
0.735826
0.735973
0.736217
0.736288
0.736558
0.736756
0.736973
0.73736
0.737754
0.738249
0.738801
0.739533
0.74051
0.741677
0.743285
0.746124
0.747581
0.776371
1.54062
195.471
0.783883
0.753778
0.743354
0.738619
0.736021
0.734462
0.733426
0.732721
0.732193
0.731815
0.731503
0.731276
0.731066
0.730915
0.730788
0.730693
0.730598
0.730531
0.730459
0.730411
0.73035
0.730319
0.730285
0.730264
0.730228
0.73022
0.730205
0.730198
0.730174
0.730188
0.730188
0.730197
0.730191
0.730208
0.730208
0.730225
0.73022
0.730274
0.730274
0.730295
0.730294
0.730321
0.730321
0.730378
0.730378
0.73043
0.73043
0.730471
0.730471
0.730512
0.730512
0.730565
0.730603
0.730603
0.730618
0.730618
0.730732
0.730788
0.730826
0.730826
0.730826
0.730825
0.730967
0.731026
0.731027
0.731026
0.731189
0.731265
0.731266
0.731439
0.731476
0.731476
0.731651
0.731696
0.731863
0.732077
0.732142
0.732291
0.732543
0.73262
0.732897
0.733104
0.733322
0.733716
0.734121
0.73463
0.735192
0.735938
0.736924
0.738122
0.739714
0.742672
0.743941
0.773843
1.58239
190.97
0.782928
0.751506
0.740442
0.735373
0.732579
0.730897
0.729777
0.729014
0.728442
0.728032
0.727693
0.727446
0.72722
0.727056
0.726917
0.726812
0.72671
0.726636
0.726558
0.726506
0.72644
0.726405
0.726367
0.726344
0.726305
0.726294
0.726277
0.726269
0.726241
0.726255
0.726255
0.726263
0.726255
0.726272
0.726272
0.726288
0.726282
0.726337
0.726337
0.726358
0.726358
0.726384
0.726384
0.726443
0.726443
0.726497
0.726497
0.726539
0.726539
0.726581
0.726581
0.726633
0.726676
0.726675
0.72669
0.72669
0.726808
0.726869
0.726906
0.726906
0.726907
0.726906
0.727051
0.727115
0.727115
0.727115
0.72728
0.727364
0.727364
0.727543
0.727582
0.727583
0.727762
0.727814
0.727981
0.728203
0.728272
0.728423
0.728683
0.728767
0.729051
0.729266
0.729486
0.729886
0.730302
0.730823
0.731395
0.732156
0.73315
0.734379
0.735953
0.739027
0.740109
0.771097
1.62399
185.888
0.781957
0.749158
0.737417
0.731991
0.728987
0.727172
0.725962
0.725136
0.724518
0.724072
0.723705
0.723437
0.723192
0.723013
0.722862
0.722748
0.722636
0.722556
0.72247
0.722413
0.722342
0.722303
0.722261
0.722235
0.722193
0.72218
0.722161
0.722151
0.72212
0.722133
0.722133
0.722139
0.72213
0.722146
0.722146
0.722161
0.722154
0.72221
0.72221
0.722231
0.722231
0.722257
0.722257
0.722318
0.722318
0.722374
0.722374
0.722418
0.722418
0.722459
0.722459
0.722511
0.722558
0.722557
0.722572
0.722572
0.722694
0.722761
0.722797
0.722797
0.722798
0.722797
0.722946
0.723014
0.723014
0.723014
0.723181
0.723273
0.723273
0.723457
0.7235
0.7235
0.723683
0.723743
0.72391
0.72414
0.724214
0.724365
0.724634
0.724724
0.725015
0.725239
0.725461
0.725866
0.726294
0.726828
0.727409
0.728184
0.729184
0.730443
0.731998
0.735186
0.736084
0.768118
1.66477
180.277
0.780972
0.746736
0.73428
0.728472
0.725245
0.723287
0.72198
0.721087
0.720417
0.719934
0.719537
0.719245
0.718981
0.718786
0.718621
0.718496
0.718375
0.718287
0.718195
0.718132
0.718055
0.718011
0.717966
0.717937
0.717891
0.717876
0.717854
0.717842
0.717808
0.717819
0.717819
0.717824
0.717813
0.717829
0.717829
0.717842
0.717834
0.717891
0.717891
0.717913
0.717913
0.717938
0.717938
0.718001
0.718
0.718059
0.718059
0.718104
0.718104
0.718145
0.718145
0.718196
0.718247
0.718247
0.718261
0.718261
0.718387
0.71846
0.718496
0.718496
0.718496
0.718495
0.718648
0.71872
0.718721
0.718721
0.71889
0.71899
0.71899
0.71918
0.719226
0.719225
0.719412
0.719481
0.719647
0.719884
0.719964
0.720116
0.720393
0.72049
0.720788
0.721021
0.721244
0.721654
0.722092
0.72264
0.72323
0.724019
0.725023
0.726313
0.727848
0.731144
0.731861
0.764891
1.704
174.195
0.779975
0.744244
0.731032
0.72482
0.721352
0.719242
0.717832
0.716865
0.716141
0.715617
0.715187
0.71487
0.714585
0.714373
0.714193
0.714057
0.713925
0.713829
0.713728
0.71366
0.713577
0.713528
0.713478
0.713446
0.713397
0.713378
0.713354
0.71334
0.713302
0.713312
0.713312
0.713315
0.713302
0.713317
0.713317
0.713329
0.71332
0.713378
0.713378
0.713399
0.713399
0.713424
0.713424
0.713488
0.713488
0.713548
0.713548
0.713596
0.713596
0.713636
0.713636
0.713686
0.713742
0.713742
0.713756
0.713756
0.713886
0.713964
0.713999
0.713999
0.714
0.713999
0.714155
0.714232
0.714233
0.714233
0.714405
0.714513
0.714513
0.714708
0.714757
0.714757
0.714947
0.715025
0.71519
0.715434
0.71552
0.715673
0.715957
0.716061
0.716367
0.716609
0.716833
0.717248
0.717696
0.718256
0.718854
0.719657
0.720664
0.721985
0.723497
0.726896
0.727438
0.761401
1.74084
167.702
0.778968
0.741684
0.727676
0.721033
0.71731
0.715037
0.713515
0.712469
0.711687
0.711119
0.710654
0.71031
0.710002
0.709772
0.709576
0.709427
0.709284
0.709179
0.70907
0.708995
0.708906
0.708852
0.708796
0.70876
0.708707
0.708686
0.708659
0.708642
0.708602
0.70861
0.708609
0.70861
0.708596
0.70861
0.70861
0.70862
0.708609
0.708667
0.708667
0.708689
0.708689
0.708713
0.708713
0.708779
0.708779
0.708841
0.708841
0.708891
0.708891
0.70893
0.70893
0.708978
0.709039
0.709039
0.709053
0.709053
0.709187
0.70927
0.709306
0.709306
0.709306
0.709305
0.709466
0.709547
0.709548
0.709548
0.709722
0.709838
0.709839
0.710039
0.710091
0.710091
0.710284
0.710372
0.710537
0.710787
0.710881
0.711034
0.711324
0.711436
0.711749
0.712
0.712225
0.712644
0.713101
0.713674
0.71428
0.715097
0.716105
0.717455
0.718944
0.722439
0.722812
0.757633
1.77445
160.86
0.777956
0.739061
0.724215
0.717115
0.713119
0.710672
0.70903
0.707901
0.707055
0.70644
0.705937
0.705564
0.705232
0.704981
0.704769
0.704607
0.704451
0.704337
0.704218
0.704136
0.70404
0.70398
0.703919
0.703879
0.703822
0.703798
0.703767
0.703748
0.703704
0.70371
0.703709
0.703708
0.703691
0.703704
0.703704
0.703713
0.703699
0.703759
0.703758
0.70378
0.70378
0.703804
0.703803
0.703871
0.70387
0.703935
0.703935
0.703988
0.703988
0.704025
0.704025
0.704072
0.704138
0.704138
0.704152
0.704151
0.704289
0.704378
0.704414
0.704414
0.704414
0.704413
0.704577
0.704663
0.704664
0.704664
0.704839
0.704965
0.704966
0.705171
0.705227
0.705227
0.705423
0.705521
0.705685
0.705941
0.706042
0.706195
0.706493
0.706611
0.706932
0.707192
0.707419
0.70784
0.708306
0.708892
0.709505
0.710335
0.711342
0.71272
0.714186
0.717768
0.71798
0.753573
1.8039
153.732
0.77694
0.736378
0.72065
0.713068
0.708781
0.706147
0.704378
0.703158
0.702245
0.701579
0.701036
0.700632
0.700272
0.700001
0.69977
0.699593
0.699425
0.6993
0.699172
0.699081
0.698977
0.698912
0.698845
0.698801
0.698739
0.698711
0.698676
0.698656
0.698608
0.698611
0.69861
0.698606
0.698587
0.698599
0.698599
0.698606
0.698589
0.698649
0.698649
0.698671
0.698671
0.698694
0.698692
0.698761
0.698761
0.698828
0.698828
0.698883
0.698884
0.698919
0.698919
0.698964
0.699036
0.699036
0.699049
0.699049
0.69919
0.699285
0.699321
0.699321
0.699321
0.699319
0.699487
0.699579
0.699579
0.699579
0.699756
0.699892
0.699892
0.700103
0.700162
0.700162
0.70036
0.700469
0.700632
0.700894
0.701003
0.701156
0.701459
0.701585
0.701914
0.702183
0.70241
0.702834
0.703309
0.703907
0.704526
0.705368
0.706373
0.707779
0.709218
0.712879
0.712939
0.749205
1.82827
146.381
0.775924
0.733638
0.716987
0.708892
0.704297
0.701464
0.699559
0.698242
0.697256
0.696536
0.695949
0.695511
0.695124
0.694829
0.694578
0.694386
0.694203
0.694067
0.693928
0.69383
0.693718
0.693645
0.693572
0.693523
0.693457
0.693425
0.693386
0.693363
0.693312
0.693313
0.69331
0.693304
0.693282
0.693293
0.693292
0.693297
0.693278
0.693338
0.693338
0.69336
0.693359
0.693381
0.69338
0.69345
0.69345
0.693519
0.693518
0.693576
0.693578
0.693611
0.693611
0.693653
0.693731
0.693731
0.693743
0.693743
0.693888
0.693989
0.694025
0.694025
0.694025
0.694023
0.694194
0.694292
0.694291
0.694291
0.69447
0.694616
0.694616
0.694832
0.694894
0.694894
0.695095
0.695215
0.695376
0.695643
0.695762
0.695914
0.696223
0.696356
0.696692
0.69697
0.697199
0.697624
0.698106
0.698716
0.699341
0.700195
0.701195
0.702627
0.70404
0.707769
0.707687
0.744517
1.84665
138.868
0.77491
0.730847
0.713227
0.704592
0.699669
0.696624
0.694572
0.693152
0.692088
0.691311
0.690677
0.690203
0.689785
0.689466
0.689194
0.688984
0.688787
0.688638
0.688488
0.688381
0.68826
0.68818
0.6881