/*--------------------------------*- C++ -*----------------------------------*\
| =========                 |                                                 |
| \\      /  F ield         | OpenFOAM: The Open Source CFD Toolbox           |
|  \\    /   O peration     | Version:  v2012                                 |
|   \\  /    A nd           | Website:  www.openfoam.com                      |
|    \\/     M anipulation  |                                                 |
\*---------------------------------------------------------------------------*/
FoamFile
{
    version     2.0;
    format      ascii;
    class       volScalarField;
    location    "6.5";
    object      k;
}
// * * * * * * * * * * * * * * * * * * * * * * * * * * * * * * * * * * * * * //

dimensions      [0 2 -2 0 0 0 0];


internalField   nonuniform List<scalar> 
209825
(
0.00103224
0.00100278
0.000991051
0.000984953
0.000981153
0.000978621
0.000976771
0.000975424
0.000974347
0.000973539
0.000972833
0.000972312
0.00097181
0.000971446
0.000971132
0.000970889
0.000970645
0.000970471
0.000970276
0.000970152
0.000969991
0.000969912
0.000969821
0.000969772
0.00096968
0.000969669
0.000969629
0.000969632
0.000969591
0.000969679
0.000969679
0.000969677
0.000969666
0.000969673
0.000969656
0.000969694
0.000969693
0.000969693
0.000969691
0.00096968
0.000969633
0.000969652
0.000969652
0.000969649
0.00096961
0.000969624
0.000969624
0.000969612
0.00096965
0.00096965
0.000969638
0.000969722
0.000969722
0.000969721
0.000969696
0.000969797
0.000969797
0.000969797
0.000969782
0.000969848
0.000969848
0.000969846
0.000970017
0.000970112
0.000970112
0.00097011
0.000970292
0.000970343
0.000970343
0.00097034
0.000970528
0.000970635
0.000970811
0.000970937
0.00097095
0.00097095
0.000971137
0.000971339
0.000971603
0.00097176
0.000972038
0.000972099
0.00097229
0.000972708
0.00097318
0.000973616
0.000974239
0.000974956
0.000975965
0.000976993
0.000979001
0.000981143
0.00098442
0.000999286
0.00165255
0.000891009
0.00103223
0.00100277
0.000991029
0.000984926
0.000981122
0.000978588
0.000976736
0.000975387
0.000974309
0.0009735
0.000972793
0.000972272
0.000971769
0.000971405
0.00097109
0.000970847
0.000970602
0.000970428
0.000970233
0.000970109
0.000969948
0.000969868
0.000969777
0.000969728
0.000969636
0.000969625
0.000969584
0.000969587
0.000969546
0.000969634
0.000969634
0.000969633
0.000969621
0.000969628
0.000969611
0.000969649
0.000969649
0.000969648
0.000969646
0.000969635
0.000969588
0.000969607
0.000969607
0.000969604
0.000969565
0.000969579
0.000969579
0.000969567
0.000969605
0.000969605
0.000969593
0.000969677
0.000969677
0.000969676
0.00096965
0.000969752
0.000969752
0.000969751
0.000969737
0.000969803
0.000969803
0.0009698
0.000969972
0.000970067
0.000970067
0.000970065
0.000970247
0.000970298
0.000970298
0.000970295
0.000970483
0.00097059
0.000970766
0.000970892
0.000970905
0.000970905
0.000971093
0.000971294
0.000971559
0.000971716
0.000971994
0.000972055
0.000972246
0.000972665
0.000973137
0.000973573
0.000974197
0.000974915
0.000975924
0.000976953
0.000978962
0.000981107
0.000984383
0.000999278
0.00165378
0.000894931
0.00103221
0.0010027
0.000990928
0.000984806
0.00098099
0.000978446
0.000976588
0.000975234
0.000974151
0.000973338
0.000972628
0.000972104
0.0009716
0.000971234
0.000970917
0.000970673
0.000970427
0.000970252
0.000970055
0.000969931
0.000969769
0.000969689
0.000969597
0.000969547
0.000969454
0.000969443
0.000969402
0.000969405
0.000969363
0.000969451
0.000969451
0.000969449
0.000969438
0.000969444
0.000969427
0.000969465
0.000969464
0.000969464
0.000969461
0.000969451
0.000969404
0.000969422
0.000969422
0.00096942
0.00096938
0.000969395
0.000969395
0.000969382
0.00096942
0.00096942
0.000969408
0.000969492
0.000969492
0.000969491
0.000969465
0.000969567
0.000969567
0.000969566
0.000969551
0.000969618
0.000969618
0.000969615
0.000969787
0.000969882
0.000969882
0.00096988
0.000970063
0.000970114
0.000970114
0.000970111
0.000970299
0.000970407
0.000970583
0.000970709
0.000970723
0.000970723
0.000970911
0.000971112
0.000971378
0.000971535
0.000971814
0.000971876
0.000972067
0.000972486
0.000972959
0.000973396
0.000974022
0.000974741
0.000975752
0.000976783
0.000978792
0.000980946
0.000984214
0.000999181
0.00165715
0.00090348
0.00103217
0.00100258
0.000990757
0.000984604
0.000980767
0.000978208
0.000976337
0.000974974
0.000973884
0.000973066
0.00097235
0.000971822
0.000971314
0.000970945
0.000970626
0.000970379
0.000970131
0.000969955
0.000969757
0.000969631
0.000969468
0.000969386
0.000969294
0.000969243
0.00096915
0.000969138
0.000969096
0.000969098
0.000969056
0.000969143
0.000969143
0.000969141
0.000969129
0.000969135
0.000969118
0.000969155
0.000969155
0.000969154
0.000969152
0.000969141
0.000969094
0.000969112
0.000969112
0.000969109
0.00096907
0.000969084
0.000969084
0.000969071
0.000969109
0.000969109
0.000969097
0.000969181
0.000969181
0.000969179
0.000969154
0.000969255
0.000969255
0.000969255
0.00096924
0.000969307
0.000969307
0.000969304
0.000969475
0.000969571
0.000969571
0.000969569
0.000969752
0.000969804
0.000969804
0.000969802
0.000969989
0.000970098
0.000970275
0.000970401
0.000970416
0.000970416
0.000970604
0.000970807
0.000971073
0.000971231
0.00097151
0.000971574
0.000971766
0.000972185
0.000972659
0.000973099
0.000973726
0.000974448
0.00097546
0.000976496
0.000978506
0.000980673
0.000983926
0.000999007
0.00166261
0.000916604
0.00103211
0.0010024
0.000990516
0.00098432
0.000980452
0.000977871
0.000975984
0.000974608
0.000973507
0.000972681
0.000971958
0.000971425
0.000970912
0.000970538
0.000970215
0.000969966
0.000969715
0.000969536
0.000969335
0.000969208
0.000969043
0.00096896
0.000968866
0.000968814
0.00096872
0.000968707
0.000968665
0.000968666
0.000968622
0.000968708
0.000968708
0.000968706
0.000968694
0.000968699
0.000968681
0.000968718
0.000968718
0.000968717
0.000968715
0.000968704
0.000968656
0.000968674
0.000968674
0.000968671
0.000968632
0.000968645
0.000968645
0.000968632
0.00096867
0.000968669
0.000968657
0.000968741
0.000968741
0.00096874
0.000968714
0.000968816
0.000968816
0.000968815
0.000968801
0.000968867
0.000968867
0.000968865
0.000969036
0.000969133
0.000969133
0.000969131
0.000969314
0.000969367
0.000969367
0.000969364
0.000969552
0.000969663
0.000969839
0.000969967
0.000969983
0.000969983
0.000970171
0.000970375
0.000970642
0.000970801
0.000971081
0.000971148
0.000971341
0.00097176
0.000972236
0.000972679
0.000973308
0.000974033
0.000975049
0.00097609
0.000978099
0.000980287
0.000983517
0.000998755
0.00167029
0.000934284
0.00103204
0.00100218
0.000990204
0.000983951
0.000980044
0.000977435
0.000975527
0.000974134
0.000973019
0.000972182
0.00097145
0.000970909
0.00097039
0.000970011
0.000969682
0.000969429
0.000969175
0.000968993
0.000968789
0.000968659
0.000968492
0.000968407
0.000968311
0.000968258
0.000968162
0.000968148
0.000968105
0.000968104
0.00096806
0.000968144
0.000968144
0.000968142
0.000968129
0.000968134
0.000968115
0.000968152
0.000968151
0.000968151
0.000968148
0.000968137
0.000968089
0.000968107
0.000968106
0.000968103
0.000968064
0.000968077
0.000968077
0.000968063
0.0009681
0.0009681
0.000968088
0.000968172
0.000968172
0.00096817
0.000968144
0.000968246
0.000968247
0.000968246
0.000968231
0.000968298
0.000968298
0.000968295
0.000968467
0.000968564
0.000968564
0.000968562
0.000968746
0.0009688
0.0009688
0.000968798
0.000968985
0.000969098
0.000969275
0.000969403
0.000969421
0.000969421
0.000969609
0.000969814
0.000970083
0.000970243
0.000970525
0.000970595
0.000970789
0.000971209
0.000971687
0.000972133
0.000972765
0.000973494
0.000974514
0.000975562
0.000977571
0.000979784
0.000982985
0.000998425
0.00168031
0.000956453
0.00103195
0.00100191
0.000989819
0.000983496
0.000979542
0.000976898
0.000974963
0.000973549
0.000972418
0.000971567
0.000970824
0.000970274
0.000969746
0.000969361
0.000969026
0.000968768
0.000968509
0.000968323
0.000968116
0.000967983
0.000967813
0.000967726
0.000967627
0.000967573
0.000967475
0.000967459
0.000967414
0.000967413
0.000967366
0.000967449
0.000967449
0.000967447
0.000967434
0.000967438
0.000967418
0.000967453
0.000967453
0.000967453
0.00096745
0.000967438
0.00096739
0.000967407
0.000967407
0.000967403
0.000967363
0.000967376
0.000967376
0.000967361
0.000967398
0.000967398
0.000967386
0.000967469
0.000967469
0.000967468
0.000967442
0.000967544
0.000967544
0.000967543
0.000967529
0.000967596
0.000967596
0.000967593
0.000967765
0.000967863
0.000967863
0.000967861
0.000968045
0.000968101
0.000968101
0.000968098
0.000968286
0.000968402
0.000968579
0.000968708
0.000968728
0.000968728
0.000968917
0.000969123
0.000969394
0.000969555
0.000969839
0.000969913
0.000970107
0.000970529
0.000971009
0.00097146
0.000972095
0.000972829
0.000973854
0.000974911
0.000976918
0.000979162
0.000982326
0.000998014
0.00169279
0.000982986
0.00103184
0.00100158
0.000989362
0.000982956
0.000978944
0.000976258
0.000974291
0.000972853
0.000971702
0.000970835
0.000970078
0.000969517
0.00096898
0.000968586
0.000968244
0.00096798
0.000967715
0.000967525
0.000967314
0.000967177
0.000967003
0.000966913
0.000966812
0.000966755
0.000966655
0.000966638
0.000966591
0.000966588
0.000966539
0.00096662
0.00096662
0.000966618
0.000966604
0.000966607
0.000966586
0.00096662
0.00096662
0.00096662
0.000966616
0.000966604
0.000966555
0.000966572
0.000966572
0.000966568
0.000966528
0.00096654
0.00096654
0.000966525
0.000966561
0.000966561
0.000966548
0.000966632
0.000966632
0.00096663
0.000966604
0.000966706
0.000966706
0.000966706
0.000966691
0.000966758
0.000966758
0.000966755
0.000966928
0.000967026
0.000967026
0.000967025
0.000967209
0.000967267
0.000967267
0.000967265
0.000967453
0.000967571
0.000967748
0.000967879
0.000967901
0.000967901
0.000968091
0.000968299
0.000968572
0.000968735
0.000969021
0.000969099
0.000969295
0.000969718
0.000970201
0.000970656
0.000971295
0.000972036
0.000973065
0.000974132
0.000976138
0.000978419
0.000981537
0.00099752
0.00170787
0.00101371
0.00103172
0.0010012
0.000988832
0.000982329
0.00097825
0.000975515
0.00097351
0.000972043
0.000970869
0.000969983
0.00096921
0.000968636
0.000968087
0.000967684
0.000967333
0.000967062
0.000966791
0.000966595
0.000966379
0.000966239
0.000966061
0.000965967
0.000965863
0.000965803
0.000965701
0.000965681
0.000965633
0.000965627
0.000965576
0.000965655
0.000965655
0.000965652
0.000965637
0.000965639
0.000965617
0.000965651
0.00096565
0.00096565
0.000965646
0.000965634
0.000965584
0.0009656
0.0009656
0.000965596
0.000965555
0.000965566
0.000965566
0.00096555
0.000965586
0.000965586
0.000965573
0.000965656
0.000965656
0.000965655
0.000965628
0.000965731
0.000965731
0.00096573
0.000965715
0.000965783
0.000965783
0.00096578
0.000965953
0.000966052
0.000966052
0.00096605
0.000966236
0.000966296
0.000966296
0.000966293
0.000966482
0.000966603
0.000966781
0.000966912
0.000966938
0.000966938
0.000967128
0.000967338
0.000967614
0.000967778
0.000968067
0.00096815
0.000968348
0.000968772
0.000969258
0.000969719
0.000970362
0.00097111
0.000972145
0.000973223
0.000975227
0.00097755
0.000980616
0.000996942
0.00172567
0.00104841
0.00103158
0.00100078
0.000988228
0.000981613
0.000977457
0.000974666
0.000972619
0.000971118
0.000969916
0.000969009
0.000968218
0.000967629
0.000967067
0.000966653
0.000966292
0.000966013
0.000965734
0.000965533
0.000965311
0.000965165
0.000964983
0.000964886
0.000964777
0.000964715
0.000964609
0.000964587
0.000964537
0.000964529
0.000964475
0.000964552
0.000964551
0.000964547
0.000964532
0.000964532
0.000964509
0.000964541
0.000964541
0.00096454
0.000964536
0.000964523
0.000964473
0.000964488
0.000964487
0.000964483
0.000964442
0.000964453
0.000964452
0.000964436
0.000964471
0.000964471
0.000964457
0.00096454
0.00096454
0.000964538
0.000964511
0.000964615
0.000964615
0.000964614
0.000964599
0.000964667
0.000964667
0.000964664
0.000964837
0.000964937
0.000964938
0.000964936
0.000965122
0.000965184
0.000965184
0.000965182
0.00096537
0.000965496
0.000965674
0.000965807
0.000965836
0.000965836
0.000966027
0.000966239
0.000966518
0.000966684
0.000966975
0.000967064
0.000967264
0.000967689
0.000968179
0.000968646
0.000969294
0.000970049
0.000971091
0.000972182
0.000974182
0.000976554
0.000979559
0.000996277
0.00174632
0.00108681
0.00103143
0.0010003
0.00098755
0.000980808
0.000976565
0.00097371
0.000971614
0.000970076
0.000968844
0.000967912
0.0009671
0.000966493
0.000965917
0.00096549
0.000965119
0.00096483
0.000964543
0.000964334
0.000964106
0.000963955
0.000963768
0.000963665
0.000963553
0.000963487
0.000963378
0.000963353
0.0009633
0.00096329
0.000963233
0.000963307
0.000963306
0.000963301
0.000963285
0.000963284
0.000963259
0.000963289
0.000963289
0.000963288
0.000963284
0.00096327
0.000963219
0.000963233
0.000963233
0.000963228
0.000963186
0.000963196
0.000963196
0.000963178
0.000963212
0.000963212
0.000963198
0.000963281
0.000963281
0.000963279
0.000963251
0.000963355
0.000963355
0.000963354
0.000963339
0.000963407
0.000963407
0.000963404
0.000963578
0.00096368
0.00096368
0.000963678
0.000963865
0.00096393
0.00096393
0.000963928
0.000964116
0.000964246
0.000964424
0.000964559
0.000964592
0.000964592
0.000964783
0.000964999
0.00096528
0.000965448
0.000965742
0.000965838
0.00096604
0.000966467
0.000966961
0.000967435
0.000968088
0.000968852
0.0009699
0.000971005
0.000973001
0.000975427
0.000978363
0.000995521
0.00176995
0.00112864
0.00103126
0.000999767
0.000986797
0.000979914
0.000975573
0.000972646
0.000970496
0.000968915
0.000967649
0.000966689
0.000965854
0.000965228
0.000964635
0.000964194
0.00096381
0.000963511
0.000963214
0.000962998
0.000962762
0.000962605
0.000962412
0.000962304
0.000962187
0.000962117
0.000962005
0.000961977
0.00096192
0.000961907
0.000961847
0.000961918
0.000961917
0.000961911
0.000961894
0.000961891
0.000961864
0.000961893
0.000961893
0.000961892
0.000961887
0.000961872
0.00096182
0.000961833
0.000961833
0.000961828
0.000961785
0.000961794
0.000961793
0.000961775
0.000961809
0.000961808
0.000961793
0.000961875
0.000961875
0.000961874
0.000961845
0.00096195
0.00096195
0.000961949
0.000961933
0.000962002
0.000962002
0.000961999
0.000962173
0.000962276
0.000962276
0.000962275
0.000962463
0.00096253
0.00096253
0.000962528
0.000962717
0.000962851
0.00096303
0.000963166
0.000963204
0.000963204
0.000963396
0.000963614
0.000963899
0.000964069
0.000964367
0.000964469
0.000964673
0.000965102
0.0009656
0.000966081
0.00096674
0.000967513
0.000968568
0.000969689
0.00097168
0.000974165
0.000977025
0.000994671
0.00179669
0.00117357
0.00103108
0.000999185
0.000985969
0.000978929
0.000974479
0.000971473
0.000969262
0.000967634
0.000966329
0.000965339
0.000964478
0.000963831
0.000963219
0.000962762
0.000962364
0.000962053
0.000961746
0.000961521
0.000961277
0.000961113
0.000960913
0.0009608
0.000960677
0.000960604
0.000960487
0.000960455
0.000960395
0.000960379
0.000960315
0.000960382
0.000960381
0.000960374
0.000960356
0.000960351
0.000960322
0.000960349
0.000960349
0.000960348
0.000960342
0.000960327
0.000960274
0.000960285
0.000960285
0.000960279
0.000960237
0.000960244
0.000960243
0.000960223
0.000960256
0.000960256
0.000960239
0.000960321
0.000960322
0.00096032
0.000960291
0.000960396
0.000960396
0.000960395
0.000960379
0.000960448
0.000960448
0.000960445
0.00096062
0.000960724
0.000960724
0.000960723
0.000960911
0.000960982
0.000960982
0.00096098
0.000961169
0.000961308
0.000961488
0.000961626
0.000961669
0.000961669
0.000961861
0.000962082
0.000962371
0.000962544
0.000962844
0.000962954
0.000963161
0.000963592
0.000964094
0.000964584
0.000965248
0.000966031
0.000967094
0.000968231
0.000970216
0.000972766
0.000975541
0.000993722
0.00182663
0.00122129
0.00103088
0.000998552
0.000985066
0.000977853
0.000973283
0.00097019
0.000967912
0.000966231
0.000964884
0.000963859
0.00096297
0.000962299
0.000961667
0.000961193
0.000960779
0.000960455
0.000960137
0.000959902
0.000959648
0.000959477
0.00095927
0.00095915
0.000959021
0.000958943
0.000958822
0.000958786
0.000958722
0.000958703
0.000958634
0.000958698
0.000958697
0.000958688
0.000958668
0.000958661
0.00095863
0.000958655
0.000958655
0.000958653
0.000958647
0.000958631
0.000958577
0.000958587
0.000958587
0.00095858
0.000958537
0.000958544
0.000958542
0.00095852
0.000958552
0.000958552
0.000958535
0.000958616
0.000958616
0.000958615
0.000958585
0.00095869
0.00095869
0.000958689
0.000958673
0.000958743
0.000958743
0.000958739
0.000958915
0.00095902
0.000959021
0.000959019
0.000959209
0.000959283
0.000959284
0.000959282
0.00095947
0.000959615
0.000959795
0.000959935
0.000959983
0.000959983
0.000960177
0.0009604
0.000960693
0.000960869
0.000961173
0.000961291
0.000961501
0.000961933
0.00096244
0.000962938
0.000963609
0.000964403
0.000965473
0.000966629
0.000968605
0.000971225
0.000973908
0.000992672
0.00185987
0.00127145
0.00103067
0.000997868
0.000984087
0.000976685
0.000971984
0.000968795
0.000966443
0.000964705
0.000963311
0.000962249
0.000961328
0.000960631
0.000959977
0.000959483
0.000959052
0.000958715
0.000958383
0.000958137
0.000957874
0.000957694
0.000957479
0.000957352
0.000957217
0.000957133
0.000957007
0.000956967
0.000956898
0.000956876
0.000956802
0.000956862
0.00095686
0.00095685
0.000956828
0.00095682
0.000956785
0.000956809
0.000956809
0.000956806
0.000956799
0.000956782
0.000956727
0.000956736
0.000956735
0.000956728
0.000956684
0.00095669
0.000956687
0.000956664
0.000956695
0.000956695
0.000956676
0.000956757
0.000956757
0.000956755
0.000956725
0.000956831
0.000956831
0.00095683
0.000956814
0.000956883
0.000956883
0.00095688
0.000957056
0.000957163
0.000957163
0.000957162
0.000957352
0.00095743
0.000957431
0.000957429
0.000957617
0.000957768
0.000957949
0.00095809
0.000958145
0.000958145
0.000958339
0.000958566
0.000958863
0.000959042
0.000959349
0.000959476
0.000959689
0.000960123
0.000960635
0.000961143
0.00096182
0.000962625
0.000963702
0.000964878
0.000966844
0.00096954
0.000972123
0.000991514
0.00189648
0.00132375
0.00103045
0.000997134
0.000983033
0.000975425
0.000970581
0.000967287
0.000964854
0.000963054
0.00096161
0.000960507
0.000959551
0.000958825
0.000958147
0.000957632
0.000957182
0.000956829
0.000956483
0.000956226
0.000955951
0.000955762
0.000955538
0.000955404
0.000955261
0.000955172
0.00095504
0.000954995
0.000954921
0.000954895
0.000954817
0.000954872
0.000954869
0.000954858
0.000954833
0.000954823
0.000954786
0.000954807
0.000954807
0.000954804
0.000954795
0.000954777
0.000954722
0.000954729
0.000954728
0.00095472
0.000954675
0.000954679
0.000954676
0.000954651
0.000954681
0.000954681
0.000954661
0.000954741
0.000954742
0.00095474
0.000954709
0.000954814
0.000954815
0.000954813
0.000954797
0.000954867
0.000954867
0.000954863
0.00095504
0.000955149
0.000955149
0.000955148
0.000955339
0.000955421
0.000955422
0.00095542
0.000955608
0.000955765
0.000955947
0.00095609
0.000956152
0.000956152
0.000956346
0.000956576
0.000956878
0.00095706
0.000957371
0.000957507
0.000957723
0.00095816
0.000958676
0.000959193
0.000959877
0.000960694
0.000961779
0.000962975
0.000964931
0.000967706
0.000970182
0.000990244
0.0019365
0.00137787
0.00103021
0.00099635
0.000981904
0.000974073
0.000969073
0.000965665
0.000963145
0.000961277
0.000959777
0.00095863
0.000957636
0.00095688
0.000956174
0.000955636
0.000955166
0.000954796
0.000954435
0.000954165
0.000953878
0.000953679
0.000953446
0.000953303
0.000953152
0.000953057
0.000952919
0.000952868
0.000952789
0.000952759
0.000952675
0.000952726
0.000952722
0.000952708
0.000952682
0.000952669
0.000952629
0.000952648
0.000952647
0.000952643
0.000952633
0.000952614
0.000952558
0.000952564
0.000952562
0.000952553
0.000952508
0.000952511
0.000952507
0.00095248
0.000952508
0.000952508
0.000952487
0.000952566
0.000952566
0.000952564
0.000952532
0.000952639
0.000952639
0.000952638
0.000952621
0.000952691
0.000952691
0.000952687
0.000952865
0.000952975
0.000952975
0.000952974
0.000953166
0.000953253
0.000953253
0.000953251
0.000953439
0.000953603
0.000953785
0.000953931
0.000954
0.000954
0.000954195
0.000954428
0.000954735
0.00095492
0.000955234
0.00095538
0.0009556
0.000956039
0.00095656
0.000957088
0.000957778
0.000958607
0.0009597
0.000960918
0.000962861
0.000965721
0.000968081
0.000988855
0.00197994
0.0014335
0.00102996
0.000995516
0.0009807
0.000972628
0.00096746
0.000963929
0.000961315
0.000959373
0.000957813
0.000956617
0.000955583
0.000954792
0.000954058
0.000953495
0.000953003
0.000952614
0.000952237
0.000951952
0.000951652
0.000951442
0.000951199
0.000951047
0.000950887
0.000950785
0.00095064
0.000950584
0.000950499
0.000950465
0.000950374
0.000950421
0.000950415
0.000950399
0.00095037
0.000950355
0.000950312
0.000950328
0.000950327
0.000950322
0.000950311
0.000950291
0.000950233
0.000950237
0.000950235
0.000950225
0.00095018
0.00095018
0.000950175
0.000950146
0.000950173
0.000950173
0.00095015
0.000950229
0.000950229
0.000950227
0.000950194
0.000950301
0.000950301
0.000950299
0.000950282
0.000950353
0.000950353
0.000950349
0.000950527
0.000950639
0.000950639
0.000950638
0.000950831
0.000950922
0.000950922
0.000950921
0.000951109
0.000951279
0.000951462
0.000951609
0.000951686
0.000951686
0.000951883
0.000952119
0.00095243
0.000952619
0.000952937
0.000953093
0.000953317
0.000953759
0.000954285
0.000954822
0.000955519
0.000956361
0.000957461
0.000958702
0.000960631
0.000963579
0.000965818
0.000987341
0.00202676
0.00149039
0.0010297
0.000994635
0.00097942
0.00097109
0.000965741
0.000962078
0.000959361
0.00095734
0.000955715
0.000954467
0.000953389
0.000952562
0.000951796
0.000951206
0.00095069
0.000950281
0.000949885
0.000949586
0.000949272
0.00094905
0.000948795
0.000948633
0.000948464
0.000948355
0.000948203
0.000948139
0.000948049
0.00094801
0.000947913
0.000947954
0.000947946
0.000947927
0.000947896
0.000947879
0.000947833
0.000947846
0.000947844
0.000947837
0.000947825
0.000947803
0.000947745
0.000947747
0.000947744
0.000947733
0.000947688
0.000947686
0.00094768
0.000947649
0.000947674
0.000947674
0.00094765
0.000947727
0.000947727
0.000947725
0.000947691
0.000947798
0.000947798
0.000947797
0.000947779
0.000947849
0.00094785
0.000947845
0.000948024
0.000948138
0.000948138
0.000948137
0.000948331
0.000948427
0.000948427
0.000948425
0.000948613
0.000948791
0.000948975
0.000949124
0.000949209
0.000949209
0.000949406
0.000949646
0.000949963
0.000950155
0.000950477
0.000950643
0.000950872
0.000951315
0.000951846
0.000952395
0.000953098
0.000953953
0.000955061
0.000956325
0.000958238
0.000961277
0.000963389
0.000985694
0.00207686
0.00154827
0.00102943
0.000993706
0.000978066
0.000969459
0.000963916
0.00096011
0.000957285
0.000955178
0.000953483
0.000952179
0.000951052
0.000950186
0.000949386
0.000948767
0.000948226
0.000947795
0.00094738
0.000947064
0.000946735
0.0009465
0.000946233
0.00094606
0.000945881
0.000945764
0.000945603
0.000945533
0.000945436
0.000945391
0.000945288
0.000945323
0.000945313
0.000945291
0.000945257
0.000945237
0.000945188
0.000945198
0.000945195
0.000945187
0.000945173
0.00094515
0.000945091
0.000945091
0.000945087
0.000945074
0.000945029
0.000945026
0.000945018
0.000944985
0.000945008
0.000945008
0.000944982
0.000945058
0.000945058
0.000945056
0.00094502
0.000945127
0.000945127
0.000945126
0.000945108
0.000945179
0.000945179
0.000945174
0.000945354
0.000945469
0.000945469
0.000945468
0.000945663
0.000945763
0.000945764
0.000945763
0.00094595
0.000946135
0.00094632
0.00094647
0.000946564
0.000946565
0.000946763
0.000947006
0.000947328
0.000947525
0.00094785
0.000948026
0.00094826
0.000948706
0.000949242
0.000949801
0.000950511
0.00095138
0.000952494
0.000953783
0.000955678
0.000958812
0.000960791
0.000983908
0.0021301
0.00160692
0.00102915
0.00099273
0.000976639
0.000967736
0.000961985
0.000958027
0.000955083
0.000952884
0.000951115
0.00094975
0.000948573
0.000947664
0.000946828
0.000946178
0.000945608
0.000945154
0.000944718
0.000944384
0.000944038
0.000943789
0.000943509
0.000943325
0.000943135
0.000943009
0.00094284
0.000942762
0.000942658
0.000942608
0.000942497
0.000942526
0.000942514
0.000942488
0.000942451
0.000942429
0.000942375
0.000942383
0.000942378
0.000942368
0.000942352
0.000942328
0.000942269
0.000942267
0.000942261
0.000942247
0.000942201
0.000942196
0.000942187
0.000942151
0.000942173
0.000942172
0.000942144
0.000942219
0.000942219
0.000942217
0.00094218
0.000942286
0.000942287
0.000942285
0.000942267
0.000942338
0.000942338
0.000942333
0.000942513
0.00094263
0.00094263
0.000942629
0.000942824
0.00094293
0.000942931
0.000942929
0.000943116
0.000943309
0.000943495
0.000943647
0.00094375
0.000943752
0.000943951
0.000944196
0.000944524
0.000944725
0.000945053
0.000945241
0.000945479
0.000945928
0.000946468
0.000947039
0.000947755
0.000948638
0.000949758
0.000951073
0.000952948
0.000956178
0.00095802
0.000981974
0.00218626
0.00166613
0.00102886
0.000991709
0.000975138
0.00096592
0.000959948
0.000955826
0.000952757
0.00095046
0.00094861
0.00094718
0.000945948
0.000944994
0.000944118
0.000943435
0.000942835
0.000942357
0.000941897
0.000941544
0.000941181
0.000940917
0.000940623
0.000940427
0.000940225
0.000940089
0.000939911
0.000939825
0.000939712
0.000939656
0.000939539
0.00093956
0.000939545
0.000939516
0.000939475
0.00093945
0.000939393
0.000939397
0.000939391
0.000939379
0.000939361
0.000939336
0.000939275
0.000939271
0.000939263
0.000939248
0.000939201
0.000939195
0.000939183
0.000939145
0.000939165
0.000939164
0.000939134
0.000939207
0.000939207
0.000939205
0.000939167
0.000939273
0.000939273
0.000939272
0.000939253
0.000939324
0.000939324
0.000939319
0.000939499
0.000939618
0.000939618
0.000939616
0.000939813
0.000939924
0.000939925
0.000939923
0.000940109
0.00094031
0.000940497
0.000940651
0.000940762
0.000940767
0.000940966
0.000941214
0.000941548
0.000941753
0.000942085
0.000942283
0.000942527
0.000942979
0.000943523
0.000944105
0.000944828
0.000945725
0.00094685
0.000948191
0.000950045
0.000953372
0.000955073
0.000979882
0.00224502
0.00172573
0.00102857
0.000990644
0.000973565
0.000964012
0.000957804
0.000953509
0.000950305
0.000947902
0.000945967
0.000944468
0.000943177
0.000942174
0.000941257
0.000940537
0.000939906
0.000939401
0.000938917
0.000938543
0.000938161
0.000937881
0.000937572
0.000937362
0.000937147
0.000937001
0.000936813
0.000936718
0.000936597
0.000936535
0.00093641
0.000936424
0.000936405
0.000936371
0.000936327
0.000936299
0.000936239
0.000936238
0.00093623
0.000936216
0.000936196
0.000936169
0.000936108
0.000936101
0.000936092
0.000936075
0.000936027
0.000936019
0.000936006
0.000935965
0.000935983
0.000935982
0.000935949
0.000936021
0.000936021
0.000936018
0.000935978
0.000936084
0.000936085
0.000936083
0.000936064
0.000936134
0.000936134
0.000936129
0.00093631
0.00093643
0.00093643
0.000936428
0.000936626
0.000936742
0.000936743
0.000936741
0.000936926
0.000937135
0.000937324
0.000937479
0.0009376
0.000937607
0.000937807
0.000938057
0.000938397
0.000938607
0.000938941
0.000939151
0.0009394
0.000939855
0.000940403
0.000940996
0.000941725
0.000942636
0.000943766
0.000945134
0.000946965
0.00095039
0.000951946
0.000977623
0.00230599
0.00178555
0.00102826
0.000989535
0.00097192
0.000962012
0.000955554
0.000951074
0.000947727
0.000945213
0.000943185
0.000941613
0.000940259
0.000939204
0.000938242
0.000937484
0.000936818
0.000936284
0.000935774
0.000935379
0.000934976
0.000934679
0.000934354
0.000934129
0.000933901
0.000933744
0.000933545
0.000933441
0.000933311
0.000933242
0.000933108
0.000933114
0.000933091
0.000933053
0.000933005
0.000932973
0.000932909
0.000932905
0.000932894
0.000932878
0.000932855
0.000932827
0.000932764
0.000932755
0.000932744
0.000932725
0.000932676
0.000932666
0.000932652
0.000932609
0.000932625
0.000932623
0.000932586
0.000932657
0.000932657
0.000932654
0.000932612
0.000932718
0.000932718
0.000932717
0.000932697
0.000932767
0.000932767
0.000932761
0.000932942
0.000933063
0.000933064
0.000933062
0.00093326
0.000933382
0.000933383
0.000933381
0.000933565
0.000933783
0.000933972
0.000934129
0.000934259
0.000934269
0.00093447
0.000934722
0.000935068
0.000935283
0.000935619
0.000935841
0.000936095
0.000936553
0.000937105
0.00093771
0.000938445
0.00093937
0.000940504
0.000941898
0.000943705
0.000947228
0.000948638
0.000975188
0.00236866
0.00184545
0.00102796
0.000988385
0.000970206
0.000959922
0.000953198
0.000948521
0.000945023
0.000942389
0.000940265
0.000938613
0.000937193
0.000936082
0.000935072
0.000934273
0.000933571
0.000933006
0.000932468
0.00093205
0.000931625
0.000931309
0.000930967
0.000930727
0.000930484
0.000930315
0.000930105
0.000929991
0.000929851
0.000929774
0.000929633
0.00092963
0.000929602
0.000929559
0.000929506
0.000929471
0.000929403
0.000929395
0.00092938
0.000929361
0.000929336
0.000929307
0.000929242
0.00092923
0.000929217
0.000929197
0.000929146
0.000929134
0.000929118
0.000929073
0.000929087
0.000929084
0.000929045
0.000929113
0.000929113
0.000929109
0.000929066
0.000929171
0.000929172
0.00092917
0.00092915
0.000929219
0.000929219
0.000929213
0.000929394
0.000929517
0.000929518
0.000929515
0.000929714
0.000929841
0.000929842
0.000929841
0.000930024
0.000930249
0.00093044
0.000930598
0.000930737
0.000930751
0.000930952
0.000931206
0.000931558
0.000931778
0.000932117
0.00093235
0.000932611
0.000933072
0.000933627
0.000934243
0.000934983
0.000935922
0.000937059
0.000938481
0.000940263
0.00094388
0.000945143
0.000972564
0.00243243
0.00190529
0.00102764
0.000987195
0.000968422
0.000957742
0.000950737
0.000945852
0.000942192
0.000939432
0.000937204
0.000935469
0.000933977
0.000932808
0.000931747
0.000930904
0.000930162
0.000929565
0.000928998
0.000928554
0.000928106
0.00092777
0.000927409
0.000927153
0.000926895
0.000926713
0.000926491
0.000926365
0.000926215
0.00092613
0.00092598
0.000925969
0.000925934
0.000925886
0.000925829
0.00092579
0.000925718
0.000925705
0.000925686
0.000925665
0.000925637
0.000925606
0.000925539
0.000925525
0.000925509
0.000925487
0.000925436
0.000925421
0.000925403
0.000925356
0.000925367
0.000925363
0.000925321
0.000925386
0.000925387
0.000925383
0.000925337
0.000925442