/*--------------------------------*- C++ -*----------------------------------*\
| =========                 |                                                 |
| \\      /  F ield         | OpenFOAM: The Open Source CFD Toolbox           |
|  \\    /   O peration     | Version:  v2012                                 |
|   \\  /    A nd           | Website:  www.openfoam.com                      |
|    \\/     M anipulation  |                                                 |
\*---------------------------------------------------------------------------*/
FoamFile
{
    version     2.0;
    format      ascii;
    class       volScalarField;
    location    "6.5";
    object      yPlus;
}
// * * * * * * * * * * * * * * * * * * * * * * * * * * * * * * * * * * * * * //

dimensions      [0 0 0 0 0 0 0];


internalField   uniform 0;

boundaryField
{
    inlet
    {
        type            calculated;
        value           uniform 0;
    }
    outlet
    {
        type            calculated;
        value           uniform 0;
    }
    topWall
    {
        type            calculated;
        value           nonuniform List<scalar> 
545
(
0.0659867
0.114477
0.146978
0.172642
0.194324
0.213263
0.230147
0.24541
0.259347
0.272169
0.284036
0.295073
0.305376
0.315026
0.324089
0.332622
0.340671
0.348277
0.355476
0.3623
0.368776
0.374929
0.38078
0.38635
0.391657
0.396717
0.401545
0.406155
0.410559
0.414769
0.418797
0.42265
0.42634
0.429874
0.433261
0.436508
0.439621
0.442609
0.445475
0.448228
0.450871
0.45341
0.455849
0.458194
0.460449
0.462617
0.464702
0.466709
0.468639
0.470498
0.472287
0.47401
0.475669
0.477268
0.478808
0.480292
0.481722
0.483101
0.48443
0.485712
0.486947
0.488139
0.489289
0.490398
0.491468
0.4925
0.493497
0.494458
0.495386
0.496281
0.497146
0.497981
0.498774
0.499539
0.500296
0.501044
0.501784
0.502516
0.50324
0.503956
0.504664
0.505364
0.506056
0.506741
0.507419
0.508089
0.508751
0.509406
0.510054
0.510695
0.511329
0.511956
0.512576
0.513189
0.513794
0.514397
0.514923
0.515392
0.515858
0.516324
0.516789
0.517252
0.517714
0.518175
0.518635
0.519094
0.519551
0.520008
0.520463
0.520917
0.52137
0.521821
0.522271
0.52272
0.523168
0.523614
0.52406
0.524503
0.524946
0.525387
0.525827
0.526266
0.526703
0.527139
0.527574
0.528007
0.528439
0.528869
0.529299
0.529726
0.530152
0.530577
0.531001
0.531423
0.531843
0.532262
0.53268
0.533096
0.53351
0.533924
0.534335
0.534745
0.535154
0.535561
0.535966
0.53637
0.536772
0.537173
0.537572
0.537969
0.538365
0.538759
0.539152
0.539543
0.539932
0.54032
0.540705
0.54109
0.541472
0.541853
0.542232
0.542609
0.542985
0.543359
0.543731
0.544101
0.544469
0.544836
0.545201
0.545564
0.545925
0.546284
0.546641
0.546997
0.54735
0.547702
0.548052
0.5484
0.548746
0.54909
0.549432
0.549772
0.55011
0.550446
0.550781
0.551113
0.551443
0.551771
0.552097
0.552421
0.552743
0.553063
0.55338
0.553696
0.554009
0.554321
0.55463
0.554937
0.555242
0.555544
0.555845
0.556143
0.556439
0.556733
0.557025
0.557314
0.557601
0.557886
0.558168
0.558449
0.558727
0.559002
0.559275
0.559546
0.559815
0.560081
0.560345
0.560606
0.560865
0.561122
0.561376
0.561627
0.561876
0.562123
0.562367
0.562609
0.562848
0.563085
0.563319
0.563551
0.56378
0.564006
0.56423
0.564452
0.56467
0.564887
0.5651
0.565311
0.565519
0.565724
0.565927
0.566127
0.566325
0.56652
0.566711
0.566901
0.567087
0.567271
0.567452
0.56763
0.567805
0.567978
0.568147
0.568314
0.568478
0.568639
0.568798
0.568953
0.569106
0.569255
0.569402
0.569545
0.569686
0.569824
0.569959
0.570091
0.570219
0.570345
0.570469
0.570574
0.570671
0.570766
0.57086
0.570953
0.571044
0.571135
0.571224
0.571312
0.571398
0.571483
0.571566
0.571648
0.571728
0.571807
0.571883
0.571957
0.57203
0.5721
0.572168
0.572234
0.572298
0.572358
0.572417
0.572473
0.572526
0.572576
0.572623
0.572667
0.572707
0.572745
0.572779
0.57281
0.572836
0.57286
0.572879
0.572894
0.572905
0.572912
0.572914
0.572912
0.572905
0.572894
0.572877
0.572855
0.572829
0.572796
0.572758
0.572715
0.572666
0.57261
0.572549
0.572481
0.572407
0.572326
0.572238
0.572143
0.572041
0.571932
0.571815
0.57169
0.571558
0.571417
0.571268
0.571111
0.570945
0.57077
0.570586
0.570393
0.570191
0.569978
0.569756
0.569524
0.569281
0.569028
0.568765
0.56849
0.568204
0.567907
0.567598
0.567277
0.566944
0.566599
0.566242
0.565871
0.565488
0.565091
0.564681
0.564258
0.56382
0.563368
0.562902
0.562421
0.561925
0.561414
0.560888
0.560346
0.559789
0.559215
0.558625
0.558018
0.557395
0.556755
0.556097
0.555422
0.554729
0.554018
0.55329
0.552542
0.551776
0.550992
0.550188
0.549365
0.548522
0.54766
0.546778
0.545876
0.544953
0.54401
0.543047
0.542062
0.541057
0.54003
0.538983
0.537913
0.536823
0.53571
0.534575
0.533418
0.53224
0.531038
0.529815
0.528569
0.527301
0.526009
0.524695
0.523358
0.521999
0.520617
0.519212
0.517783
0.516332
0.514858
0.513361
0.511841
0.510299
0.508733
0.507145
0.505534
0.503901
0.502246
0.500568
0.498868
0.497146
0.495402
0.493637
0.49185
0.490042
0.488213
0.486364
0.484494
0.482604
0.480694
0.478764
0.476816
0.474848
0.472862
0.470858
0.468836
0.466797
0.46474
0.462667
0.460578
0.458473
0.456353
0.454218
0.452069
0.449906
0.447729
0.44554
0.443336
0.440875
0.438192
0.435529
0.432885
0.430264
0.427663
0.425084
0.422527
0.419994
0.417483
0.414997
0.412534
0.410097
0.407683
0.405295
0.402931
0.400595
0.398282
0.395998
0.393737
0.391505
0.389297
0.387119
0.384963
0.382839
0.380737
0.378666
0.376618
0.374602
0.372609
0.370647
0.368708
0.366802
0.364917
0.363066
0.361236
0.35944
0.357666
0.355925
0.354206
0.352521
0.350857
0.349228
0.34762
0.346047
0.344494
0.342976
0.34148
0.340018
0.338577
0.337171
0.335786
0.334436
0.333107
0.331814
0.33054
0.329304
0.328086
0.326906
0.325744
0.324621
0.323516
0.32245
0.3214
0.320392
0.319399
0.318447
0.317511
0.316618
0.315738
0.314903
0.31408
0.313303
0.312538
0.31182
0.311113
0.310454
0.309805
0.309205
0.308614
0.308075
0.307544
0.307064
0.306593
0.306175
0.305763
0.305406
0.305055
0.30476
0.304469
0.304235
0.304004
0.303827
0.303672
0.303501
)
;
    }
    bottomWall
    {
        type            calculated;
        value           nonuniform List<scalar> 
449
(
0.00282473
0.0048478
0.00549767
0.00538823
0.00521183
0.00500886
0.00482436
0.00466651
0.00453375
0.00441916
0.00432042
0.00423335
0.00415699
0.00409035
0.00403173
0.00397614
0.00392814
0.0038826
0.00384102
0.00380357
0.00376911
0.00373691
0.00370772
0.00367857
0.00365415
0.00363116
0.00360969
0.00358914
0.00356946
0.00354972
0.00353322
0.00351755
0.00350221
0.00348722
0.00347234
0.00345845
0.00344604
0.00343338
0.00342215
0.00341196
0.00340232
0.00339254
0.00338265
0.00337332
0.00336412
0.00335466
0.00334543
0.00333662
0.00332796
0.00332055
0.00331323
0.00330553
0.00329806
0.00329237
0.00328623
0.00327963
0.00327387
0.00326774
0.00326274
0.00325652
0.00325131
0.00324534
0.00324024
0.00323628
0.00323213
0.00322745
0.00322301
0.00321935
0.00321536
0.00321057
0.00320664
0.00320342
0.00320002
0.00319565
0.00319136
0.00318728
0.00318213
0.00317821
0.00317481
0.003172
0.00316887
0.00316556
0.00316184
0.00315836
0.00315547
0.0031533
0.0031518
0.00314859
0.00314493
0.003142
0.00313875
0.00313618
0.00313358
0.00313102
0.00312939
0.00312786
0.00312539
0.00312267
0.0031198
0.00311757
0.00311522
0.0031126
0.0031105
0.00310926
0.00310778
0.00310683
0.00310611
0.0031045
0.00310221
0.00310009
0.00309764
0.00309562
0.00309393
0.00309182
0.00309097
0.00309027
0.00308857
0.00308675
0.00308592
0.0030853
0.00308344
0.00308167
0.00308008
0.00307789
0.00307568
0.00307452
0.00307357
0.00307257
0.00307214
0.00307127
0.00307003
0.00306843
0.00306748
0.0030665
0.00306458
0.00306356
0.00306267
0.0030617
0.00306103
0.00306005
0.00305941
0.003059
0.0030586
0.00305758
0.00305679
0.00305617
0.00305503
0.00305414
0.00305348
0.00305275
0.0030515
0.00305037
0.00304918
0.00304842
0.00304793
0.00304703
0.00304632
0.00304589
0.0030456
0.00304524
0.00304476
0.00304423
0.00304325
0.0030423
0.0030419
0.00304115
0.00304017
0.00303979
0.00303948
0.0030391
0.00303903
0.00303922
0.00303891
0.00303802
0.00303726
0.00303682
0.00303652
0.00303625
0.00303615
0.00303588
0.00303564
0.00303566
0.00303525
0.00303446
0.00303434
0.00303446
0.0030343
0.00303399
0.00303312
0.00303233
0.00303215
0.00303198
0.00303161
0.00303099
0.00303081
0.00303085
0.00303078
0.00303039
0.00302978
0.00302904
0.00302833
0.00302796
0.00302737
0.00302706
0.00302705
0.003027
0.003026
0.00302513
0.00302436
0.00302329
0.0030227
0.00302252
0.0030222
0.00302151
0.00302084
0.00302019
0.00301992
0.00301983
0.00301931
0.00301895
0.00301883
0.00301854
0.00301823
0.00301798
0.00301779
0.00301745
0.00301719
0.00301701
0.00301678
0.00301652
0.00301606
0.00301588
0.00301546
0.00301449
0.00301361
0.00301297
0.00301228
0.00301214
0.00301203
0.00301167
0.00301096
0.00301006
0.00300946
0.00300906
0.00300897
0.00300875
0.00300816
0.00300774
0.00300769
0.00300722
0.00300628
0.00300544
0.00300466
0.00300418
0.00300394
0.00300409
0.00300409
0.0030033
0.00300182
0.0030007
0.00300058
0.00300069
0.00300042
0.00299982
0.00299937
0.00299855
0.00299824
0.00299821
0.00299791
0.00299704
0.00299623
0.00299566
0.00299558
0.00299551
0.00299484
0.00299409
0.00299377
0.00299328
0.00299293
0.00299289
0.00299253
0.00299197
0.00299153
0.00299141
0.00299128
0.0029909
0.00299074
0.0029908
0.00299032
0.00298957
0.00298897
0.00298822
0.00298742
0.00298707
0.00298684
0.00298634
0.00298635
0.00298655
0.00298647
0.00298654
0.00298634
0.00298582
0.00298573
0.00298516
0.00298421
0.00298375
0.00298334
0.00298304
0.00298298
0.00298281
0.00298234
0.00298199
0.00298177
0.00298106
0.00298085
0.002981
0.00298081
0.00298083
0.00298075
0.00297997
0.00297965
0.00297916
0.00297834
0.00297807
0.00297829
0.00297811
0.00297789
0.00297765
0.00297713
0.0029766
0.00297595
0.00297565
0.00297598
0.00297671
0.00297671
0.00297629
0.00297565
0.00297563
0.00297571
0.00297534
0.00297541
0.00297504
0.00297443
0.00297391
0.00297381
0.00297416
0.00297399
0.00297377
0.00297381
0.00297379
0.00297361
0.00297369
0.00297365
0.00297326
0.00297319
0.0029726
0.00297195
0.00297196
0.00297176
0.00297121
0.00297101
0.00297093
0.00297105
0.00297125
0.00297121
0.00297117
0.00297106
0.00297109
0.00297086
0.00297054
0.00297041
0.00297036
0.00297035
0.00297031
0.00297034
0.00297016
0.00296964
0.00296944
0.00296921
0.00296922
0.00296932
0.00296935
0.0029692
0.00296886
0.00296867
0.00296868
0.00296873
0.00296862
0.00296896
0.00296907
0.00296872
0.00296874
0.00296838
0.00296823
0.00296816
0.002968
0.00296783
0.00296783
0.00296798
0.00296839
0.00296848
0.00296835
0.00296821
0.00296848
0.00296848
0.00296817
0.00296791
0.00296755
0.00296756
0.00296737
0.00296707
0.00296719
0.00296719
0.00296722
0.00296769
0.0029679
0.00296799
0.00296772
0.00296714
0.00296705
0.00296707
0.00296701
0.0029672
0.00296726
0.00296753
0.00296786
0.00296758
0.00296738
0.00296701
0.00296643
0.0029662
0.00296623
0.00296616
0.00296642
0.00296649
0.00296671
0.00296671
0.00296637
0.00296625
0.00296635
0.00296668
0.00296669
0.00296657
0.00296635
0.00296604
0.00296593
0.00296594
0.00296603
0.00296637
)
;
    }
    symmetry
    {
        type            symmetryPlane;
    }
    frontAndBack
    {
        type            empty;
    }
}


// ************************************************************************* //
