/*--------------------------------*- C++ -*----------------------------------*\
| =========                 |                                                 |
| \\      /  F ield         | OpenFOAM: The Open Source CFD Toolbox           |
|  \\    /   O peration     | Version:  v2012                                 |
|   \\  /    A nd           | Website:  www.openfoam.com                      |
|    \\/     M anipulation  |                                                 |
\*---------------------------------------------------------------------------*/
FoamFile
{
    version     2.0;
    format      ascii;
    class       volScalarField;
    location    "22";
    object      k;
}
// * * * * * * * * * * * * * * * * * * * * * * * * * * * * * * * * * * * * * //

dimensions      [0 2 -2 0 0 0 0];


internalField   nonuniform List<scalar> 
209825
(
0.00102041
0.000933217
0.000876419
0.000839453
0.000814334
0.000796438
0.000783151
0.000772975
0.000764981
0.000758577
0.000753361
0.000749055
0.000745457
0.000742423
0.000739837
0.000737622
0.000735705
0.00073404
0.000732579
0.000731305
0.000730172
0.000729175
0.000728275
0.00072749
0.000726772
0.000726134
0.000725546
0.000725037
0.00072456
0.000724145
0.000723742
0.000723416
0.000723089
0.000722798
0.000722519
0.0007223
0.00072208
0.000721893
0.000721702
0.000721567
0.00072141
0.000721276
0.000721147
0.000721068
0.000720926
0.00072083
0.000720765
0.000720722
0.000720685
0.000720646
0.00072056
0.000720526
0.00072051
0.000720483
0.000720404
0.000720443
0.000720443
0.000720434
0.000720543
0.000720548
0.000720547
0.000720637
0.000720717
0.000720861
0.000720984
0.00072115
0.000721251
0.000721409
0.000721493
0.000721641
0.000721757
0.000721957
0.00072208
0.00072228
0.000722412
0.000722639
0.000722768
0.000723022
0.000723171
0.000723469
0.000723623
0.000723944
0.000724118
0.000724484
0.000724688
0.000725119
0.000725363
0.000725877
0.000726158
0.000726798
0.000727098
0.000728137
0.000728414
0.000739453
0.000785729
0.00202053
0.00102041
0.000933216
0.000876415
0.000839445
0.000814323
0.000796425
0.000783136
0.000772959
0.000764963
0.000758558
0.000753341
0.000749034
0.000745436
0.000742401
0.000739814
0.0007376
0.000735682
0.000734017
0.000732555
0.000731281
0.000730148
0.00072915
0.00072825
0.000727465
0.000726747
0.000726109
0.000725521
0.000725012
0.000724534
0.000724119
0.000723716
0.00072339
0.000723063
0.000722772
0.000722493
0.000722274
0.000722053
0.000721866
0.000721675
0.00072154
0.000721384
0.00072125
0.00072112
0.000721042
0.0007209
0.000720804
0.000720738
0.000720696
0.000720658
0.000720619
0.000720533
0.000720499
0.000720483
0.000720456
0.000720377
0.000720416
0.000720416
0.000720407
0.000720516
0.000720521
0.000720521
0.00072061
0.00072069
0.000720834
0.000720957
0.000721123
0.000721224
0.000721382
0.000721466
0.000721613
0.00072173
0.00072193
0.000722053
0.000722253
0.000722384
0.000722612
0.000722741
0.000722995
0.000723144
0.000723442
0.000723596
0.000723916
0.000724091
0.000724456
0.000724661
0.000725092
0.000725335
0.00072585
0.000726131
0.000726771
0.00072707
0.00072811
0.000728387
0.000739446
0.000785723
0.00202174
0.00102041
0.00093321
0.000876394
0.000839409
0.000814275
0.000796368
0.000783071
0.000772888
0.000764887
0.000758479
0.000753258
0.000748949
0.000745348
0.000742311
0.000739723
0.000737507
0.000735588
0.000733921
0.000732458
0.000731183
0.00073005
0.000729052
0.000728151
0.000727365
0.000726646
0.000726008
0.000725419
0.00072491
0.000724432
0.000724016
0.000723613
0.000723287
0.000722959
0.000722668
0.000722389
0.000722169
0.000721949
0.000721762
0.000721571
0.000721435
0.000721278
0.000721145
0.000721015
0.000720936
0.000720794
0.000720698
0.000720632
0.00072059
0.000720552
0.000720513
0.000720427
0.000720393
0.000720377
0.00072035
0.00072027
0.00072031
0.00072031
0.0007203
0.000720409
0.000720414
0.000720414
0.000720503
0.000720583
0.000720726
0.000720849
0.000721015
0.000721117
0.000721274
0.000721358
0.000721506
0.000721623
0.000721822
0.000721945
0.000722146
0.000722277
0.000722504
0.000722633
0.000722887
0.000723036
0.000723334
0.000723488
0.000723808
0.000723983
0.000724348
0.000724552
0.000724983
0.000725227
0.000725741
0.000726022
0.000726662
0.000726961
0.000728001
0.000728276
0.000739379
0.000785651
0.00202416
0.00102041
0.000933199
0.000876357
0.000839348
0.000814194
0.000796271
0.000782962
0.000772769
0.00076476
0.000758345
0.000753119
0.000748806
0.000745201
0.000742161
0.00073957
0.000737351
0.00073543
0.000733761
0.000732297
0.00073102
0.000729885
0.000728886
0.000727984
0.000727197
0.000726478
0.000725838
0.000725249
0.000724739
0.00072426
0.000723844
0.00072344
0.000723113
0.000722785
0.000722493
0.000722215
0.000721994
0.000721774
0.000721586
0.000721395
0.000721259
0.000721102
0.000720968
0.000720838
0.000720759
0.000720617
0.00072052
0.000720454
0.000720412
0.000720374
0.000720335
0.000720249
0.000720215
0.000720198
0.000720171
0.000720092
0.000720131
0.000720131
0.000720121
0.00072023
0.000720234
0.000720234
0.000720324
0.000720403
0.000720547
0.000720669
0.000720835
0.000720937
0.000721094
0.000721178
0.000721326
0.000721442
0.000721642
0.000721765
0.000721965
0.000722096
0.000722323
0.000722452
0.000722706
0.000722855
0.000723153
0.000723307
0.000723627
0.000723802
0.000724166
0.00072437
0.000724801
0.000725044
0.000725558
0.000725839
0.000726478
0.000726777
0.000727817
0.000728091
0.000739262
0.000785514
0.00202697
0.00102042
0.000933183
0.000876305
0.000839261
0.00081408
0.000796134
0.000782808
0.000772601
0.000764582
0.000758157
0.000752924
0.000748604
0.000744994
0.000741949
0.000739353
0.000737131
0.000735207
0.000733535
0.000732068
0.00073079
0.000729653
0.000728652
0.000727748
0.00072696
0.000726239
0.000725599
0.000725009
0.000724497
0.000724018
0.000723601
0.000723197
0.000722869
0.00072254
0.000722248
0.000721968
0.000721748
0.000721526
0.000721338
0.000721146
0.00072101
0.000720853
0.000720719
0.000720588
0.000720509
0.000720367
0.00072027
0.000720204
0.000720161
0.000720123
0.000720084
0.000719998
0.000719963
0.000719947
0.00071992
0.00071984
0.000719878
0.000719878
0.000719869
0.000719977
0.000719981
0.000719981
0.000720071
0.00072015
0.000720293
0.000720416
0.000720581
0.000720683
0.00072084
0.000720924
0.000721072
0.000721188
0.000721387
0.00072151
0.00072171
0.000721841
0.000722068
0.000722197
0.000722451
0.0007226
0.000722897
0.000723051
0.000723371
0.000723545
0.00072391
0.000724114
0.000724544
0.000724787
0.0007253
0.000725581
0.00072622
0.000726518
0.000727558
0.00072783
0.000739094
0.000785313
0.00203016
0.00102043
0.000933163
0.000876238
0.000839149
0.000813931
0.000795957
0.000782609
0.000772384
0.00076435
0.000757914
0.00075267
0.000748342
0.000744725
0.000741674
0.000739073
0.000736846
0.000734918
0.000733243
0.000731773
0.000730491
0.000729352
0.000728349
0.000727443
0.000726653
0.000725931
0.000725289
0.000724697
0.000724185
0.000723704
0.000723286
0.000722881
0.000722552
0.000722222
0.000721929
0.000721649
0.000721428
0.000721206
0.000721017
0.000720825
0.000720688
0.000720531
0.000720396
0.000720265
0.000720186
0.000720043
0.000719946
0.000719879
0.000719836
0.000719797
0.000719758
0.000719673
0.000719638
0.000719621
0.000719594
0.000719514
0.000719551
0.000719551
0.000719542
0.000719649
0.000719653
0.000719653
0.000719743
0.000719821
0.000719964
0.000720087
0.000720252
0.000720353
0.000720511
0.000720595
0.000720742
0.000720858
0.000721057
0.00072118
0.00072138
0.000721511
0.000721738
0.000721866
0.00072212
0.000722268
0.000722566
0.00072272
0.000723039
0.000723214
0.000723578
0.000723781
0.000724211
0.000724454
0.000724966
0.000725247
0.000725885
0.000726183
0.000727222
0.000727492
0.000738877
0.000785045
0.00203365
0.00102044
0.000933139
0.000876155
0.000839011
0.000813748
0.00079574
0.000782363
0.000772117
0.000764064
0.000757613
0.000752358
0.000748019
0.000744393
0.000741334
0.000738727
0.000736495
0.000734562
0.000732882
0.000731408
0.000730123
0.000728981
0.000727975
0.000727067
0.000726274
0.00072555
0.000724906
0.000724313
0.000723799
0.000723317
0.000722897
0.000722491
0.000722161
0.000721831
0.000721537
0.000721256
0.000721033
0.000720811
0.000720621
0.000720428
0.000720291
0.000720133
0.000719998
0.000719866
0.000719787
0.000719644
0.000719546
0.000719479
0.000719435
0.000719396
0.000719357
0.000719271
0.000719236
0.000719219
0.000719192
0.000719111
0.000719148
0.000719148
0.000719138
0.000719245
0.000719249
0.000719249
0.000719338
0.000719417
0.000719559
0.000719681
0.000719846
0.000719948
0.000720105
0.000720189
0.000720336
0.000720451
0.00072065
0.000720773
0.000720973
0.000721103
0.00072133
0.000721458
0.000721712
0.00072186
0.000722157
0.000722311
0.00072263
0.000722804
0.000723168
0.000723371
0.0007238
0.000724043
0.000724555
0.000724834
0.000725472
0.000725768
0.000726808
0.000727076
0.00073861
0.000784712
0.0020373
0.00102045
0.00093311
0.000876057
0.000838848
0.000813531
0.00079548
0.000782071
0.000771798
0.000763724
0.000757256
0.000751985
0.000747634
0.000743998
0.00074093
0.000738315
0.000736076
0.000734137
0.000732452
0.000730974
0.000729685
0.000728539
0.000727529
0.000726618
0.000725823
0.000725096
0.00072445
0.000723855
0.000723339
0.000722855
0.000722434
0.000722027
0.000721695
0.000721363
0.000721069
0.000720786
0.000720563
0.00072034
0.000720149
0.000719956
0.000719818
0.000719659
0.000719523
0.000719391
0.000719311
0.000719168
0.00071907
0.000719002
0.000718958
0.000718918
0.000718879
0.000718793
0.000718757
0.00071874
0.000718712
0.000718631
0.000718668
0.000718668
0.000718657
0.000718763
0.000718767
0.000718767
0.000718856
0.000718934
0.000719075
0.000719197
0.000719362
0.000719463
0.000719621
0.000719704
0.000719851
0.000719966
0.000720165
0.000720287
0.000720487
0.000720617
0.000720844
0.000720972
0.000721225
0.000721373
0.00072167
0.000721823
0.000722142
0.000722316
0.000722679
0.000722882
0.00072331
0.000723552
0.000724063
0.000724343
0.000724979
0.000725275
0.000726314
0.000726578
0.000738293
0.000784312
0.00204086
0.00102047
0.000933077
0.000875944
0.000838658
0.000813279
0.000795179
0.000781731
0.000771427
0.000763329
0.00075684
0.000751552
0.000747187
0.000743538
0.00074046
0.000737836
0.000735589
0.000733643
0.000731952
0.000730468
0.000729174
0.000728024
0.00072701
0.000726096
0.000725297
0.000724568
0.00072392
0.000723322
0.000722804
0.000722318
0.000721895
0.000721486
0.000721153
0.00072082
0.000720523
0.00072024
0.000720015
0.000719791
0.0007196
0.000719405
0.000719266
0.000719107
0.00071897
0.000718837
0.000718757
0.000718613
0.000718514
0.000718446
0.000718401
0.000718361
0.000718321
0.000718235
0.000718199
0.000718181
0.000718154
0.000718072
0.000718108
0.000718108
0.000718096
0.000718202
0.000718205
0.000718205
0.000718294
0.000718371
0.000718512
0.000718634
0.000718799
0.0007189
0.000719057
0.00071914
0.000719287
0.000719401
0.0007196
0.000719722
0.000719922
0.000720051
0.000720278
0.000720406
0.000720658
0.000720806
0.000721102
0.000721256
0.000721574
0.000721747
0.00072211
0.000722313
0.00072274
0.000722981
0.000723491
0.00072377
0.000724405
0.0007247
0.000725739
0.000726
0.000737928
0.000783845
0.00204398
0.00102048
0.00093304
0.000875815
0.000838441
0.000812991
0.000794835
0.000781344
0.000771004
0.000762877
0.000756364
0.000751057
0.000746675
0.000743013
0.000739922
0.000737288
0.000735032
0.000733078
0.00073138
0.00072989
0.00072859
0.000727435
0.000726417
0.000725499
0.000724696
0.000723964
0.000723312
0.000722712
0.000722191
0.000721703
0.000721278
0.000720867
0.000720532
0.000720197
0.0007199
0.000719615
0.000719389
0.000719163
0.000718971
0.000718775
0.000718635
0.000718475
0.000718338
0.000718204
0.000718123
0.000717979
0.000717879
0.00071781
0.000717765
0.000717724
0.000717684
0.000717598
0.000717561
0.000717543
0.000717515
0.000717433
0.000717467
0.000717467
0.000717455
0.00071756
0.000717563
0.000717563
0.000717652
0.000717728
0.000717868
0.000717989
0.000718154
0.000718254
0.000718412
0.000718495
0.000718641
0.000718755
0.000718953
0.000719075
0.000719275
0.000719404
0.00071963
0.000719758
0.00072001
0.000720157
0.000720453
0.000720606
0.000720923
0.000721097
0.000721459
0.000721661
0.000722087
0.000722328
0.000722837
0.000723115
0.000723748
0.000724042
0.000725081
0.000725338
0.000737512
0.000783311
0.00204612
0.0010205
0.000932998
0.00087567
0.000838199
0.000812668
0.000794449
0.000780907
0.000770528
0.000762368
0.000755829
0.0007505
0.000746099
0.00074242
0.000739316
0.00073667
0.000734403
0.00073244
0.000730735
0.000729238
0.000727932
0.000726771
0.000725748
0.000724825
0.000724019
0.000723282
0.000722628
0.000722024
0.0007215
0.000721009
0.000720583
0.000720169
0.000719832
0.000719496
0.000719196
0.00071891
0.000718682
0.000718455
0.000718262
0.000718065
0.000717924
0.000717762
0.000717624
0.000717489
0.000717407
0.000717263
0.000717163
0.000717092
0.000717046
0.000717005
0.000716965
0.000716879
0.000716841
0.000716822
0.000716794
0.000716712
0.000716744
0.000716744
0.000716732
0.000716836
0.000716838
0.000716838
0.000716927
0.000717002
0.000717142
0.000717262
0.000717426
0.000717527
0.000717684
0.000717767
0.000717913
0.000718026
0.000718223
0.000718345
0.000718544
0.000718673
0.000718899
0.000719026
0.000719278
0.000719425
0.00071972
0.000719873
0.00072019
0.000720363
0.000720724
0.000720925
0.00072135
0.000721591
0.000722098
0.000722375
0.000723007
0.000723299
0.000724338
0.000724591
0.000737047
0.000782709
0.00204658
0.00102052
0.000932953
0.000875511
0.000837929
0.000812309
0.000794019
0.000780421
0.000769997
0.000761802
0.000755232
0.000749879
0.000745457
0.00074176
0.000738641
0.000735982
0.000733703
0.00073173
0.000730016
0.00072851
0.000727198
0.00072603
0.000725002
0.000724074
0.000723263
0.000722522
0.000721864
0.000721256
0.00072073
0.000720236
0.000719807
0.00071939
0.000719051
0.000718713
0.000718412
0.000718123
0.000717894
0.000717665
0.000717471
0.000717272
0.00071713
0.000716967
0.000716829
0.000716692
0.000716609
0.000716465
0.000716363
0.000716292
0.000716245
0.000716202
0.000716162
0.000716076
0.000716038
0.000716018
0.000715989
0.000715907
0.000715938
0.000715938
0.000715925
0.000716027
0.000716029
0.000716029
0.000716118
0.000716191
0.000716331
0.00071645
0.000716614
0.000716714
0.000716872
0.000716954
0.0007171
0.000717212
0.000717409
0.000717531
0.00071773
0.000717858
0.000718084
0.000718211
0.000718462
0.000718608
0.000718902
0.000719055
0.000719371
0.000719544
0.000719904
0.000720105
0.000720529
0.000720768
0.000721274
0.00072155
0.000722181
0.000722471
0.000723509
0.000723758
0.000736533
0.000782038
0.00204458
0.00102054
0.000932903
0.000875335
0.000837633
0.000811914
0.000793545
0.000779886
0.000769412
0.000761177
0.000754574
0.000749193
0.000744747
0.000741031
0.000737895
0.000735221
0.00073293
0.000730945
0.000729221
0.000727707
0.000726386
0.000725212
0.000724177
0.000723244
0.000722427
0.000721682
0.00072102
0.000720408
0.000719878
0.000719381
0.000718949
0.00071853
0.000718188
0.000717847
0.000717544
0.000717254
0.000717023
0.000716792
0.000716596
0.000716396
0.000716252
0.000716088
0.000715949
0.000715811
0.000715727
0.000715582
0.00071548
0.000715407
0.000715359
0.000715316
0.000715275
0.000715189
0.000715149
0.000715129
0.0007151
0.000715017
0.000715047
0.000715047
0.000715032
0.000715134
0.000715135
0.000715135
0.000715223
0.000715296
0.000715434
0.000715553
0.000715716
0.000715817
0.000715975
0.000716056
0.000716201
0.000716313
0.000716509
0.00071663
0.000716829
0.000716957
0.000717182
0.000717308
0.000717559
0.000717704
0.000717998
0.00071815
0.000718466
0.000718638
0.000718997
0.000719198
0.00071962
0.000719859
0.000720363
0.000720638
0.000721267
0.000721555
0.000722594
0.000722837
0.000735968
0.000781297
0.00204011
0.00102057
0.000932849
0.000875145
0.00083731
0.000811483
0.000793028
0.0007793
0.000768772
0.000760492
0.000753853
0.000748441
0.00074397
0.000740232
0.000737077
0.000734387
0.000732082
0.000730085
0.00072835
0.000726826
0.000725497
0.000724314
0.000723273
0.000722333
0.000721511
0.000720761
0.000720094
0.000719478
0.000718944
0.000718444
0.000718008
0.000717586
0.000717241
0.000716898
0.000716593
0.0007163
0.000716067
0.000715834
0.000715637
0.000715435
0.000715289
0.000715124
0.000714983
0.000714844
0.000714759
0.000714614
0.00071451
0.000714436
0.000714387
0.000714343
0.000714302
0.000714215
0.000714175
0.000714154
0.000714125
0.000714041
0.000714069
0.000714069
0.000714054
0.000714153
0.000714154
0.000714154
0.000714242
0.000714313
0.000714451
0.000714568
0.000714731
0.000714831
0.000714989
0.000715071
0.000715215
0.000715326
0.000715521
0.000715642
0.00071584
0.000715968
0.000716193
0.000716319
0.000716568
0.000716713
0.000717006
0.000717158
0.000717473
0.000717644
0.000718002
0.000718202
0.000718623
0.000718861
0.000719363
0.000719637
0.000720264
0.00072055
0.000721589
0.000721827
0.000735354
0.000780485
0.00203321
0.00102059
0.000932792
0.00087494
0.000836961
0.000811014
0.000792466
0.000778664
0.000768076
0.000759748
0.000753069
0.000747624
0.000743125
0.000739363
0.000736187
0.000733479
0.000731158
0.000729148
0.000727401
0.000725866
0.000724528
0.000723337
0.000722288
0.000721341
0.000720513
0.000719757
0.000719085
0.000718465
0.000717927
0.000717422
0.000716983
0.000716558
0.00071621
0.000715864
0.000715556
0.000715261
0.000715025
0.00071479
0.000714591
0.000714387
0.00071424
0.000714074
0.000713931
0.000713791
0.000713704
0.000713558
0.000713454
0.000713378
0.000713328
0.000713282
0.000713241
0.000713154
0.000713113
0.000713091
0.000713061
0.000712977
0.000713003
0.000713003
0.000712987
0.000713084
0.000713085
0.000713085
0.000713172
0.000713242
0.000713379
0.000713495
0.000713658
0.000713757
0.000713916
0.000713996
0.000714139
0.00071425
0.000714445
0.000714565
0.000714763
0.00071489
0.000715114
0.00071524
0.000715489
0.000715633
0.000715924
0.000716076
0.00071639
0.000716561
0.000716918
0.000717117
0.000717536
0.000717773
0.000718273
0.000718546
0.000719171
0.000719454
0.000720493
0.000720726
0.000734688
0.000779601
0.00202392
0.00102062
0.000932731
0.000874719
0.000836585
0.00081051
0.000791859
0.000777977
0.000767324
0.000758943
0.00075222
0.000746739
0.000742209
0.000738422
0.000735224
0.000732496
0.000730158
0.000728133
0.000726373
0.000724827
0.000723478
0.000722278
0.000721221
0.000720267
0.000719432
0.00071867
0.000717992
0.000717367
0.000716824
0.000716315
0.000715872
0.000715443
0.000715092
0.000714743
0.000714432
0.000714134
0.000713896
0.000713659
0.000713458
0.000713252
0.000713103
0.000712935
0.000712791
0.000712649
0.000712561
0.000712414
0.000712308
0.000712231
0.00071218
0.000712133
0.000712091
0.000712004
0.000711962
0.000711939
0.000711909
0.000711824
0.000711848
0.000711848
0.00071183
0.000711926
0.000711926
0.000711926
0.000712013
0.000712081
0.000712216
0.000712332
0.000712494
0.000712593
0.000712751
0.000712831
0.000712974
0.000713083
0.000713278
0.000713398
0.000713595
0.000713721
0.000713945
0.00071407
0.000714318
0.000714461
0.000714752
0.000714903
0.000715216
0.000715387
0.000715742
0.00071594
0.000716358
0.000716594
0.000717092
0.000717364
0.000717985
0.000718267
0.000719306
0.000719534
0.00073397
0.000778644
0.00201229
0.00102065
0.000932667
0.000874484
0.000836182
0.000809968
0.000791207
0.000777238
0.000766515
0.000758077
0.000751307
0.000745787
0.000741224
0.000737408
0.000734185
0.000731437
0.000729081
0.00072704
0.000725265
0.000723707
0.000722346
0.000721137
0.00072007
0.000719108
0.000718266
0.000717497
0.000716813
0.000716183
0.000715635
0.000715121
0.000714674
0.000714241
0.000713886
0.000713534
0.000713221
0.00071292
0.000712679
0.000712439
0.000712235
0.000712027
0.000711876
0.000711706
0.000711561
0.000711417
0.000711328
0.00071118
0.000711073
0.000710994
0.000710941
0.000710893
0.000710851
0.000710763
0.00071072
0.000710696
0.000710666
0.00071058
0.000710602
0.000710602
0.000710582
0.000710676
0.000710676
0.000710676
0.000710762
0.000710828
0.000710963
0.000711077
0.000711238
0.000711337
0.000711496
0.000711575
0.000711717
0.000711825
0.000712019
0.000712138
0.000712335
0.00071246
0.000712683
0.000712808
0.000713055
0.000713198
0.000713487
0.000713638
0.00071395
0.00071412
0.000714474
0.000714671
0.000715087
0.000715321
0.000715817
0.000716088
0.000716707
0.000716986
0.000718025
0.000718248
0.000733199
0.000777611
0.00199837
0.00102069
0.0009326
0.000874234
0.000835753
0.00080939
0.000790511
0.000776447
0.000765648
0.000757149
0.000750328
0.000744766
0.000740167
0.00073632
0.000733072
0.000730301
0.000727925
0.000725867
0.000724077
0.000722505
0.000721132
0.000719911
0.000718836
0.000717864
0.000717014
0.000716238
0.000715548
0.000714911
0.000714358
0.000713839
0.000713388
0.000712951
0.000712591
0.000712236
0.000711919
0.000711615
0.000711371
0.000711129
0.000710923
0.000710712
0.000710559
0.000710387
0.000710241
0.000710094
0.000710004
0.000709855
0.000709746
0.000709665
0.000709611
0.000709562
0.000709519
0.000709431
0.000709386
0.000709361
0.00070933
0.000709244
0.000709264
0.000709263
0.000709242
0.000709334
0.000709334
0.000709333
0.000709419
0.000709483
0.000709616
0.00070973
0.00070989
0.000709989
0.000710147
0.000710225
0.000710366
0.000710473
0.000710666
0.000710785
0.000710981
0.000711106
0.000711328
0.000711452
0.000711699
0.00071184
0.000712129
0.000712279
0.00071259
0.000712759
0.000713111
0.000713308
0.000713721
0.000713955
0.000714448
0.000714717
0.000715334
0.00071561
0.000716649
0.000716866
0.000732374
0.000776501
0.00198224
0.00102072
0.000932529
0.000873969
0.000835297
0.000808776
0.000789769
0.000775604
0.000764724
0.000756159
0.000749284
0.000743675
0.000739038
0.000735159
0.000731882
0.000729087
0.000726689
0.000724612
0.000722806
0.000721219
0.000719834
0.000718601
0.000717515
0.000716535
0.000715676
0.000714892
0.000714195
0.000713552
0.000712993
0.000712468
0.000712012
0.00071157
0.000711207
0.000710847
0.000710527
0.00071022
0.000709973
0.000709727
0.000709519
0.000709306
0.00070915
0.000708976
0.000708828
0.000708679
0.000708587
0.000708437
0.000708327
0.000708244
0.000708189
0.000708137
0.000708094
0.000708005
0.000707959
0.000707933
0.000707901
0.000707815
0.000707832
0.000707831
0.000707809
0.000707898
0.000707898
0.000707896
0.000707981
0.000708044
0.000708175
0.000708288
0.000708447
0.000708545
0.000708703
0.000708781
0.000708921
0.000709027
0.000709219
0.000709337
0.000709533
0.000709657
0.000709878
0.000710002
0.000710247
0.000710388
0.000710675
0.000710825
0.000711134
0.000711303
0.000711653
0.000711849
0.00071226
0.000712492
0.000712983
0.00071325
0.000713864
0.000714137
0.000715176
0.000715389
0.000731492
0.00077531
0.00196398
0.00102076
0.000932456
0.000873691
0.000834816
0.000808124
0.000788981
0.000774709
0.000763742
0.000755106
0.000748172
0.000742515
0.000737837
0.000733922
0.000730615
0.000727794
0.000725373
0.000723276
0.000721452
0.00071985
0.000718451
0.000717206
0.000716108
0.000715117
0.000714249
0.000713458
0.000712753
0.000712103
0.000711537
0.000711007
0.000710545
0.000710099
0.00070973
0.000709367
0.000709044
0.000708732
0.000708482
0.000708233
0.000708022
0.000707806
0.000707647
0.000707471
0.000707321
0.00070717
0.000707076
0.000706925
0.000706813
0.000706728
0.000706671
0.000706618
0.000706574
0.000706485
0.000706438
0.00070641
0.000706378
0.000706291
0.000706306
0.000706304
0.00070628
0.000706366
0.000706366
0.000706364
0.000706449
0.000706509
0.000706639
0.00070675
0.000706908
0.000707006
0.000707164
0.000707241
0.00070738
0.000707485
0.000707676
0.000707793
0.000707988
0.000708111
0.000708332
0.000708455
0.000708699
0.000708839
0.000709124
0.000709274
0.000709581
0.000709749
0.000710098
0.000710293
0.000710701
0.000710933
0.00071142
0.000711686
0.000712297
0.000712567
0.000713606
0.000713814
0.000730552
0.000774035
0.00194367
0.0010208
0.00093238
0.000873399
0.000834308
0.000807436
0.000788149
0.000773761
0.000762702
0.00075399
0.000746994
0.000741285
0.000736562
0.00073261
0.000729271
0.000726421
0.000723976
0.000721858
0.000720015
0.000718396
0.000716981
0.000715723
0.000714613
0.000713612
0.000712734
0.000711933
0.000711221
0.000710563
0.000709991
0.000709454
0.000708987
0.000708535
0.000708162
0.000707794
0.000707467
0.000707151
0.000706897
0.000706645
0.000706431
0.000706212
0.00070605
0.000705872
0.00070572
0.000705566
0.00070547
0.000705318
0.000705204
0.000705117
0.000705058
0.000705003
0.000704959
0.000704868
0.00070482
0.000704791
0.000704758
0.000704671
0.000704684
0.000704681
0.000704655
0.000704738
0.000704738
0.000704735
0.000704819
0.000704877
0.000705005
0.000705115
0.000705272
0.000705369
0.000705527
0.000705603
0.000705742
0.000705845
0.000706035
0.000706152
0.000706346
0.000706468
0.000706688
0.00070681
0.000707053
0.000707192
0.000707475
0.000707624
0.000707931
0.000708098
0.000708445
0.000708638
0.000709045
0.000709274
0.000709759
0.000710023
0.00071063
0.000710897
0.000711936
0.000712139
0.000729552
0.000772674
0.0019214
0.00102084
0.000932302
0.000873093
0.000833775
0.000806712
0.000787271
0.000772761
0.000761603
0.000752811
0.000745748
0.000739983
0.000735213
0.000731221
0.000727847
0.000724968
0.000722497
0.000720356
0.000718493
0.000716856
0.000715425
0.000714152
0.00071303
0.000712017
0.000711128
0.000710318
0.000709597
0.000708932
0.000708352
0.000707809
0.000707335
0.000706878
0.000706499
0.000706127
0.000705795
0.000705476
0.000705217
0.000704962
0.000704744
0.000704522
0.000704358
0.000704177
0.000704022
0.000703866
0.000703768
0.000703615
0.000703499
0.000703409
0.000703349
0.000703291
0.000703246
0.000703155
0.000703105
0.000703074
0.000703041
0.000702954
0.000702964
0.000702961
0.000702932
0.000703012
0.000703012
0.000703008
0.000703091
0.000703146
0.000703274
0.000703382
0.000703537
0.000703634
0.000703792
0.000703867
0.000704004
0.000704106
0.000704295
0.000704411
0.000704605
0.000704725
0.000704945
0.000705066
0.000705308
0.000705445
0.000705727
0.000705876
0.000706181
0.000706347
0.000706692
0.000706884
0.000707288
0.000707516
0.000707998
0.00070826
0.000708864
0.000709127
0.000710166
0.000710365
0.000728488
0.00077122
0.00189729
0.00102089
0.000932221
0.000872775
0.000833217
0.000805952
0.000786348
0.000771708
0.000760445
0.000751568
0.000744434
0.00073861
0.00073379
0.000729756
0.000726345
0.000723434
0.000720935
0.000718769
0.000716885
0.000715229
0.000713781
0.000712493
0.000711357
0.000710331
0.000709432
0.000708611
0.000707881
0.000707207
0.00070662
0.000706069
0.00070559
0.000705126
0.000704742
0.000704364
0.000704028
0.000703704
0.000703442
0.000703182
0.000702962
0.000702736
0.000702568
0.000702384
0.000702228
0.000702069
0.000701968
0.000701814
0.000701696
0.000701604
0.000701541
0.000701481
0.000701435
0.000701343
0.000701292
0.000701259
0.000701226
0.000701138
0.000701145
0.000701141
0.00070111
0.000701187
0.000701187
0.000701183
0.000701264
0.000701317
0.000701442
0.000701549
0.000701703
0.0007018
0.000701957
0.000702031
0.000702167
0.000702268
0.000702455
0.00070257
0.000702763
0.000702883
0.000703101
0.000703221
0.000703462
0.000703598
0.000703878
0.000704026
0.000704329
0.000704495
0.000704838
0.000705029
0.000705429
0.000705656
0.000706134
0.000706395
0.000706995
0.000707255
0.000708294
0.000708488
0.000727358
0.000769669
0.00187143
0.00102093
0.000932139
0.000872444
0.000832634
0.000805155
0.00078538
0.000770603
0.000759229
0.000750261
0.000743052
0.000737165
0.000732292
0.000728212
0.000724762
0.000721818
0.000719289
0.000717098
0.00071519
0.000713514
0.000712048
0.000710744
0.000709593
0.000708555
0.000707643
0.000706812
0.000706072
0.000705389
0.000704793
0.000704235
0.000703749
0.000703279
0.000702888
0.000702505
0.000702165
0.000701836
0.000701569
0.000701305
0.000701081
0.000700852
0.00070068
0.000700494
0.000700335
0.000700173
0.000700069
0.000699914
0.000699794
0.000699699
0.000699634
0.000699572
0.000699525
0.000699432
0.000699379
0.000699344
0.00069931
0.000699222
0.000699227
0.000699222
0.000699188
0.000699261
0.000699261
0.000699256
0.000699337
0.000699386
0.00069951
0.000699615
0.000699767
0.000699864
0.000700021
0.000700093
0.000700228
0.000700327
0.000700513
0.000700628
0.00070082
0.000700938
0.000701155
0.000701275
0.000701514
0.000701649
0.000701928
0.000702075
0.000702376
0.00070254
0.000702881
0.000703071
0.000703469
0.000703694
0.000704169
0.000704427
0.000705023
0.000705279
0.000706318
0.000706509
0.000726157
0.000768015
0.00184393
0.00102098
0.000932055
0.000872101
0.000832026
0.000804324
0.000784367
0.000769445
0.000757953
0.00074889
0.000741601
0.000735648
0.000730719
0.000726591
0.0007231
0.000720119
0.000717559
0.00071534
0.000713409
0.000711711
0.000710225
0.000708904
0.000707738
0.000706686
0.000705761
0.000704919
0.000704168
0.000703476
0.000702871
0.000702306
0.000701812
0.000701335
0.000700938
0.000700549
0.000700204
0.00069987
0.000699598
0.00069933
0.000699102
0.000698869
0.000698694
0.000698504
0.000698342
0.000698177
0.000698071
0.000697914
0.000697791
0.000697693
0.000697626
0.000697562
0.000697513
0.00069742
0.000697366
0.000697328
0.000697294
0.000697206
0.000697208
0.000697201
0.000697165
0.000697234
0.000697234
0.000697228
0.000697308
0.000697354
0.000697476
0.000697579
0.00069773
0.000697826
0.000697982
0.000698053
0.000698187
0.000698285
0.000698469
0.000698583
0.000698774
0.000698891
0.000699107
0.000699225
0.000699463
0.000699597
0.000699873
0.00070002
0.000700319
0.000700482
0.000700821
0.000701009
0.000701404
0.000701627
0.000702099
0.000702354
0.000702947
0.000703199
0.000704238
0.000704426
0.000724883
0.000766249
0.00181493
0.00102103
0.00093197
0.000871746
0.000831395
0.000803457
0.00078331
0.000768235
0.000756619
0.000747454
0.000740082
0.000734059
0.00072907
0.000724891
0.000721356
0.000718337
0.000715744
0.000713496
0.000711539
0.000709818
0.000708313
0.000706973
0.000705791
0.000704724
0.000703786
0.000702931
0.00070217
0.000701467
0.000700853
0.000700279
0.000699777
0.000699293
0.00069889
0.000698495
0.000698144
0.000697805
0.000697528
0.000697255
0.000697023
0.000696785
0.000696607
0.000696414
0.000696249
0.00069608
0.000695972
0.000695812
0.000695688
0.000695587
0.000695517
0.00069545
0.0006954
0.000695306
0.00069525
0.000695211
0.000695175
0.000695088