/*--------------------------------*- C++ -*----------------------------------*\
| =========                 |                                                 |
| \\      /  F ield         | OpenFOAM: The Open Source CFD Toolbox           |
|  \\    /   O peration     | Version:  v2012                                 |
|   \\  /    A nd           | Website:  www.openfoam.com                      |
|    \\/     M anipulation  |                                                 |
\*---------------------------------------------------------------------------*/
FoamFile
{
    version     2.0;
    format      ascii;
    class       volScalarField;
    location    "22";
    object      omega;
}
// * * * * * * * * * * * * * * * * * * * * * * * * * * * * * * * * * * * * * //

dimensions      [0 0 -1 0 0 0 0];


internalField   nonuniform List<scalar> 
209825
(
8243.46
7564.04
7085.58
6756.32
6524.26
6355.09
6227.11
6127.85
6048.67
5984.69
5931.79
5887.87
5850.58
5819.04
5791.7
5768.26
5747.57
5729.69
5713.66
5699.72
5687.04
5675.98
5665.76
5656.87
5648.58
5641.33
5634.44
5628.49
5622.8
5617.85
5613.04
5608.94
5604.86
5601.45
5598.03
5595.16
5592.16
5589.78
5587.28
5585.26
5583
5581.4
5579.57
5577.99
5576.38
5575.24
5573.97
5573.16
5572.08
5571.42
5570.29
5569.42
5568.75
5568.32
5567.39
5567.13
5567.01
5566.91
5566.72
5566.14
5566.28
5566.28
5566.27
5566.05
5566.68
5566.68
5566.68
5567.03
5567.03
5567.69
5567.69
5568.74
5568.74
5569.82
5570.49
5571.75
5571.83
5573.05
5573.63
5574.91
5575.52
5577
5577.69
5579.27
5580.07
5581.8
5582.63
5584.6
5585.52
5587.97
5588.86
5592.68
5593.17
5630.9
5785.53
114581
8243.47
7564.04
7085.55
6756.27
6524.19
6355
6227
6127.73
6048.54
5984.55
5931.64
5887.71
5850.42
5818.87
5791.52
5768.08
5747.39
5729.51
5713.47
5699.53
5686.85
5675.79
5665.56
5656.68
5648.38
5641.13
5634.24
5628.29
5622.59
5617.65
5612.84
5608.74
5604.65
5601.25
5597.82
5594.95
5591.95
5589.57
5587.07
5585.05
5582.79
5581.19
5579.36
5577.78
5576.17
5575.03
5573.76
5572.95
5571.86
5571.21
5570.07
5569.2
5568.54
5568.11
5567.17
5566.91
5566.8
5566.7
5566.5
5565.92
5566.06
5566.06
5566.05
5565.83
5566.46
5566.46
5566.46
5566.82
5566.82
5567.47
5567.47
5568.52
5568.52
5569.6
5570.27
5571.53
5571.61
5572.83
5573.41
5574.69
5575.3
5576.78
5577.47
5579.05
5579.85
5581.58
5582.41
5584.37
5585.3
5587.75
5588.63
5592.46
5592.95
5630.75
5785.36
111285
8243.48
7564.02
7085.46
6756.09
6523.92
6354.67
6226.63
6127.3
6048.08
5984.06
5931.13
5887.18
5849.87
5818.3
5790.94
5767.49
5746.79
5728.9
5712.85
5698.9
5686.21
5675.14
5664.91
5656.02
5647.72
5640.47
5633.57
5627.62
5621.92
5616.98
5612.16
5608.05
5603.97
5600.56
5597.13
5594.26
5591.26
5588.88
5586.37
5584.35
5582.09
5580.49
5578.66
5577.08
5575.46
5574.32
5573.05
5572.24
5571.15
5570.5
5569.36
5568.49
5567.83
5567.4
5566.46
5566.2
5566.09
5565.98
5565.79
5565.21
5565.35
5565.35
5565.33
5565.11
5565.74
5565.74
5565.74
5566.1
5566.1
5566.75
5566.75
5567.8
5567.8
5568.88
5569.55
5570.81
5570.89
5572.1
5572.69
5573.96
5574.57
5576.05
5576.74
5578.32
5579.12
5580.85
5581.68
5583.65
5584.57
5587.02
5587.9
5591.72
5592.21
5630.16
5784.73
107501
8243.51
7564
7085.3
6755.77
6523.47
6354.11
6225.97
6126.57
6047.29
5983.22
5930.24
5886.26
5848.92
5817.33
5789.94
5766.47
5745.75
5727.84
5711.78
5697.82
5685.12
5674.04
5663.8
5654.9
5646.6
5639.33
5632.43
5626.47
5620.77
5615.82
5610.99
5606.89
5602.8
5599.38
5595.95
5593.08
5590.07
5587.69
5585.18
5583.16
5580.9
5579.29
5577.46
5575.88
5574.26
5573.12
5571.85
5571.03
5569.94
5569.29
5568.15
5567.28
5566.61
5566.18
5565.25
5564.98
5564.86
5564.76
5564.57
5563.98
5564.12
5564.12
5564.11
5563.88
5564.51
5564.51
5564.51
5564.86
5564.86
5565.52
5565.52
5566.56
5566.56
5567.64
5568.31
5569.57
5569.65
5570.86
5571.45
5572.72
5573.33
5574.81
5575.5
5577.08
5577.87
5579.6
5580.44
5582.4
5583.32
5585.77
5586.65
5590.47
5590.96
5629.14
5783.61
103611
8243.55
7563.96
7085.06
6755.32
6522.82
6353.3
6225.03
6125.53
6046.16
5982.02
5928.98
5884.95
5847.56
5815.93
5788.51
5765.01
5744.27
5726.34
5710.26
5696.27
5683.56
5672.47
5662.21
5653.3
5644.99
5637.71
5630.8
5624.84
5619.12
5614.16
5609.34
5605.22
5601.12
5597.71
5594.27
5591.39
5588.38
5585.99
5583.48
5581.46
5579.19
5577.59
5575.75
5574.16
5572.54
5571.4
5570.12
5569.31
5568.22
5567.56
5566.42
5565.55
5564.88
5564.45
5563.51
5563.24
5563.12
5563.02
5562.82
5562.24
5562.38
5562.38
5562.36
5562.13
5562.76
5562.76
5562.76
5563.11
5563.11
5563.76
5563.76
5564.8
5564.8
5565.88
5566.54
5567.81
5567.88
5569.1
5569.68
5570.95
5571.56
5573.03
5573.72
5575.3
5576.1
5577.83
5578.66
5580.62
5581.54
5583.98
5584.87
5588.69
5589.17
5627.68
5781.97
99719.2
8243.6
7563.91
7084.75
6754.73
6521.98
6352.25
6223.81
6124.18
6044.69
5980.46
5927.34
5883.24
5845.79
5814.12
5786.65
5763.11
5742.34
5724.38
5708.27
5694.26
5681.53
5670.41
5660.14
5651.22
5642.89
5635.6
5628.68
5622.7
5616.98
5612.01
5607.17
5603.05
5598.95
5595.52
5592.08
5589.19
5586.18
5583.78
5581.27
5579.24
5576.97
5575.36
5573.51
5571.93
5570.3
5569.16
5567.88
5567.06
5565.96
5565.31
5564.17
5563.29
5562.62
5562.18
5561.25
5560.97
5560.85
5560.75
5560.55
5559.97
5560.1
5560.1
5560.08
5559.85
5560.47
5560.47
5560.47
5560.82
5560.82
5561.47
5561.46
5562.5
5562.51
5563.58
5564.24
5565.5
5565.58
5566.79
5567.37
5568.64
5569.25
5570.72
5571.41
5572.99
5573.78
5575.51
5576.34
5578.3
5579.22
5581.66
5582.54
5586.36
5586.83
5625.76
5779.82
95865.3
8243.67
7563.85
7084.37
6754
6520.94
6350.95
6222.3
6122.5
6042.87
5978.52
5925.31
5881.12
5843.61
5811.87
5784.35
5760.76
5739.95
5721.95
5705.81
5691.77
5679.01
5667.87
5657.58
5648.64
5640.29
5632.99
5626.05
5620.06
5614.32
5609.34
5604.49
5600.36
5596.25
5592.82
5589.36
5586.47
5583.45
5581.05
5578.53
5576.49
5574.21
5572.6
5570.75
5569.16
5567.53
5566.38
5565.1
5564.28
5563.18
5562.51
5561.37
5560.5
5559.82
5559.38
5558.44
5558.17
5558.04
5557.93
5557.74
5557.15
5557.28
5557.28
5557.26
5557.02
5557.64
5557.64
5557.64
5557.98
5557.98
5558.63
5558.62
5559.66
5559.66
5560.73
5561.39
5562.65
5562.72
5563.93
5564.51
5565.79
5566.39
5567.86
5568.55
5570.12
5570.91
5572.64
5573.47
5575.42
5576.34
5578.78
5579.66
5583.48
5583.94
5623.39
5777.14
92068.3
8243.74
7563.78
7083.92
6753.12
6519.69
6349.4
6220.5
6120.49
6040.7
5976.21
5922.88
5878.59
5840.99
5809.18
5781.6
5757.95
5737.09
5719.04
5702.87
5688.8
5676
5664.84
5654.52
5645.55
5637.18
5629.86
5622.9
5616.89
5611.14
5606.15
5601.29
5597.14
5593.02
5589.58
5586.12
5583.22
5580.18
5577.77
5575.25
5573.21
5570.92
5569.3
5567.45
5565.85
5564.22
5563.06
5561.77
5560.95
5559.84
5559.18
5558.03
5557.15
5556.47
5556.03
5555.09
5554.81
5554.68
5554.57
5554.37
5553.78
5553.9
5553.9
5553.88
5553.64
5554.26
5554.25
5554.25
5554.59
5554.59
5555.23
5555.23
5556.26
5556.26
5557.33
5557.98
5559.24
5559.31
5560.52
5561.1
5562.37
5562.96
5564.43
5565.12
5566.69
5567.48
5569.2
5570.03
5571.98
5572.9
5575.34
5576.21
5580.03
5580.48
5620.56
5773.93
88337.1
8243.83
7563.7
7083.4
6752.11
6518.24
6347.59
6218.4
6118.15
6038.17
5973.52
5920.05
5875.65
5837.94
5806.04
5778.39
5754.68
5733.75
5715.66
5699.43
5685.32
5672.49
5661.29
5650.95
5641.95
5633.55
5626.21
5619.23
5613.21
5607.43
5602.43
5597.55
5593.39
5589.25
5585.8
5582.33
5579.42
5576.38
5573.96
5571.42
5569.37
5567.08
5565.45
5563.59
5561.99
5560.35
5559.18
5557.89
5557.06
5555.95
5555.28
5554.14
5553.25
5552.56
5552.12
5551.18
5550.89
5550.76
5550.64
5550.44
5549.85
5549.97
5549.97
5549.94
5549.69
5550.3
5550.3
5550.3
5550.64
5550.63
5551.27
5551.26
5552.29
5552.29
5553.35
5554
5555.26
5555.33
5556.53
5557.11
5558.38
5558.97
5560.44
5561.12
5562.69
5563.48
5565.2
5566.02
5567.97
5568.88
5571.32
5572.18
5576.01
5576.44
5617.26
5770.18
84674.4
8243.94
7563.6
7082.8
6750.96
6516.59
6345.53
6216.01
6115.48
6035.27
5970.43
5916.8
5872.27
5834.45
5802.45
5774.71
5750.93
5729.93
5711.78
5695.5
5681.34
5668.47
5657.23
5646.85
5637.82
5629.4
5622.03
5615.02
5608.98
5603.19
5598.16
5593.27
5589.09
5584.94
5581.47
5577.98
5575.06
5572.01
5569.58
5567.03
5564.97
5562.67
5561.04
5559.17
5557.56
5555.91
5554.74
5553.44
5552.6
5551.49
5550.81
5549.67
5548.78
5548.08
5547.64
5546.7
5546.4
5546.26
5546.14
5545.94
5545.35
5545.45
5545.45
5545.43
5545.17
5545.77
5545.77
5545.77
5546.1
5546.1
5546.72
5546.72
5547.74
5547.74
5548.8
5549.44
5550.7
5550.76
5551.97
5552.54
5553.8
5554.39
5555.86
5556.54
5558.1
5558.89
5560.61
5561.43
5563.37
5564.28
5566.71
5567.57
5571.4
5571.82
5613.49
5765.88
81078.3
8244.05
7563.5
7082.14
6749.66
6514.73
6343.2
6213.3
6112.47
6032
5966.95
5913.15
5868.46
5830.51
5798.4
5770.56
5746.69
5725.62
5707.4
5691.06
5676.85
5663.93
5652.65
5642.23
5633.17
5624.71
5617.31
5610.28
5604.21
5598.39
5593.34
5588.43
5584.24
5580.07
5576.58
5573.08
5570.14
5567.08
5564.64
5562.08
5560.01
5557.7
5556.05
5554.18
5552.56
5550.9
5549.73
5548.42
5547.57
5546.45
5545.77
5544.62
5543.73
5543.02
5542.58
5541.63
5541.32
5541.18
5541.06
5540.85
5540.26
5540.36
5540.36
5540.32
5540.06
5540.65
5540.65
5540.65
5540.98
5540.97
5541.59
5541.59
5542.6
5542.6
5543.66
5544.29
5545.55
5545.6
5546.8
5547.37
5548.64
5549.22
5550.68
5551.36
5552.92
5553.7
5555.42
5556.24
5558.17
5559.08
5561.5
5562.36
5566.19
5566.59
5609.25
5761.03
77543.3
8244.18
7563.39
7081.4
6748.22
6512.67
6340.62
6210.29
6109.12
6028.36
5963.08
5909.07
5864.21
5826.12
5793.88
5765.93
5741.96
5720.81
5702.52
5686.11
5671.84
5658.86
5647.53
5637.07
5627.96
5619.47
5612.04
5604.97
5598.87
5593.03
5587.96
5583.02
5578.81
5574.62
5571.12
5567.6
5564.65
5561.57
5559.12
5556.54
5554.47
5552.14
5550.48
5548.6
5546.98
5545.31
5544.12
5542.8
5541.95
5540.82
5540.14
5538.98
5538.08
5537.37
5536.92
5535.97
5535.66
5535.51
5535.38
5535.17
5534.58
5534.66
5534.66
5534.63
5534.35
5534.94
5534.94
5534.93
5535.25
5535.25
5535.86
5535.86
5536.86
5536.86
5537.91
5538.53
5539.79
5539.84
5541.04
5541.6
5542.87
5543.45
5544.9
5545.58
5547.13
5547.91
5549.62
5550.44
5552.37
5553.27
5555.69
5556.54
5560.37
5560.75
5604.53
5755.62
74062.6
8244.32
7563.27
7080.59
6746.64
6510.39
6337.77
6206.97
6105.41
6024.34
5958.79
5904.56
5859.52
5821.26
5788.89
5760.81
5736.74
5715.49
5697.11
5680.63
5666.29
5653.26
5641.87
5631.36
5622.21
5613.67
5606.21
5599.11
5592.98
5587.11
5582.01
5577.05
5572.81
5568.6
5565.08
5561.54
5558.58
5555.48
5553.01
5550.42
5548.33
5546
5544.32
5542.43
5540.8
5539.12
5537.92
5536.59
5535.73
5534.59
5533.9
5532.75
5531.84
5531.12
5530.66
5529.71
5529.39
5529.23
5529.09
5528.88
5528.29
5528.36
5528.36
5528.32
5528.04
5528.61
5528.61
5528.61
5528.92
5528.92
5529.51
5529.51
5530.5
5530.5
5531.55
5532.16
5533.42
5533.47
5534.66
5535.22
5536.48
5537.05
5538.5
5539.17
5540.73
5541.5
5543.21
5544.02
5545.95
5546.85
5549.25
5550.1
5553.93
5554.3
5599.31
5749.63
70642.9
8244.47
7563.15
7079.71
6744.91
6507.91
6334.65
6203.34
6101.36
6019.94
5954.1
5899.63
5854.38
5815.94
5783.41
5755.2
5731.01
5709.65
5691.18
5674.62
5660.21
5647.11
5635.67
5625.09
5615.9
5607.31
5599.81
5592.67
5586.51
5580.6
5575.48
5570.49
5566.23
5561.99
5558.45
5554.89
5551.91
5548.79
5546.3
5543.7
5541.6
5539.25
5537.56
5535.65
5534.02
5532.33
5531.12
5529.78
5528.91
5527.76
5527.06
5525.9
5524.99
5524.25
5523.79
5522.84
5522.5
5522.33
5522.19
5521.98
5521.39
5521.45
5521.44
5521.4
5521.1
5521.67
5521.67
5521.66
5521.96
5521.96
5522.55
5522.55
5523.52
5523.53
5524.57
5525.17
5526.43
5526.47
5527.66
5528.21
5529.47
5530.03
5531.48
5532.15
5533.69
5534.46
5536.16
5536.97
5538.89
5539.79
5542.19
5543.02
5546.86
5547.21
5593.6
5743.06
67290.1
8244.64
7563.01
7078.77
6743.04
6505.21
6331.26
6199.39
6096.95
6015.15
5948.99
5894.25
5848.77
5810.14
5777.44
5749.08
5724.76
5703.29
5684.72
5668.07
5653.58
5640.4
5628.9
5618.26
5609.02
5600.38
5592.83
5585.65
5579.45
5573.51
5568.36
5563.33
5559.05
5554.79
5551.22
5547.64
5544.63
5541.5
5538.99
5536.37
5534.25
5531.89
5530.19
5528.27
5526.62
5524.91
5523.69
5522.34
5521.46
5520.3
5519.59
5518.43
5517.51
5516.76
5516.3
5515.34
5514.99
5514.81
5514.66
5514.45
5513.86
5513.91
5513.9
5513.84
5513.54
5514.09
5514.09
5514.09
5514.38
5514.38
5514.95
5514.95
5515.91
5515.92
5516.95
5517.54
5518.79
5518.83
5520.02
5520.56
5521.82
5522.38
5523.81
5524.48
5526.02
5526.79
5528.48
5529.29
5531.2
5532.09
5534.48
5535.31
5539.15
5539.47
5587.39
5735.91
64009.9
8244.81
7562.88
7077.75
6741.04
6502.31
6327.61
6195.13
6092.19
6009.97
5943.47
5888.43
5842.71
5803.86
5770.98
5742.46
5718
5696.4
5677.73
5660.97
5646.39
5633.14
5621.56
5610.86
5601.56
5592.87
5585.27
5578.04
5571.8
5565.82
5560.63
5555.58
5551.26
5546.97
5543.38
5539.77
5536.74
5533.59
5531.06
5528.42
5526.29
5523.91
5522.19
5520.25
5518.59
5516.88
5515.64
5514.28
5513.38
5512.21
5511.5
5510.33
5509.4
5508.64
5508.17
5507.21
5506.85
5506.66
5506.5
5506.28
5505.69
5505.73
5505.71
5505.65
5505.34
5505.87
5505.88
5505.87
5506.15
5506.15
5506.71
5506.71
5507.66
5507.66
5508.69
5509.27
5510.52
5510.55
5511.73
5512.26
5513.52
5514.07
5515.5
5516.16
5517.7
5518.46
5520.14
5520.95
5522.85
5523.74
5526.12
5526.94
5530.78
5531.08
5580.66
5728.15
60807.4
8245
7562.73
7076.67
6738.89
6499.19
6323.69
6190.54
6087.06
6004.4
5937.52
5882.17
5836.17
5797.1
5764.01
5735.32
5710.71
5688.98
5670.18
5653.32
5638.64
5625.3
5613.65
5602.88
5593.51
5584.76
5577.11
5569.84
5563.55
5557.53
5552.3
5547.21
5542.86
5538.54
5534.92
5531.28
5528.23
5525.05
5522.51
5519.84
5517.69
5515.29
5513.56
5511.61
5509.94
5508.2
5506.96
5505.57
5504.67
5503.49
5502.76
5501.58
5500.65
5499.87
5499.4
5498.44
5498.06
5497.86
5497.69
5497.47
5496.88
5496.9
5496.88
5496.81
5496.48
5497.01
5497.01
5497
5497.27
5497.27
5497.82
5497.82
5498.75
5498.75
5499.78
5500.34
5501.58
5501.61
5502.78
5503.31
5504.56
5505.11
5506.53
5507.19
5508.71
5509.47
5511.15
5511.95
5513.84
5514.72
5517.1
5517.9
5521.75
5522.03
5573.42
5719.78
57687.6
8245.21
7562.58
7075.52
6736.6
6495.86
6319.5
6185.64
6081.57
5998.42
5931.14
5875.45
5829.17
5789.84
5756.54
5727.66
5702.88
5681
5662.08
5645.1
5630.32
5616.89
5605.15
5594.31
5584.87
5576.05
5568.35
5561.02
5554.69
5548.62
5543.35
5538.22
5533.84
5529.48
5525.83
5522.17
5519.09
5515.89
5513.32
5510.63
5508.46
5506.04
5504.28
5502.32
5500.63
5498.88
5497.62
5496.22
5495.3
5494.11
5493.37
5492.19
5491.25
5490.46
5489.98
5489.01
5488.61
5488.4
5488.22
5488
5487.41
5487.41
5487.39
5487.31
5486.97
5487.48
5487.48
5487.47
5487.73
5487.72
5488.26
5488.26
5489.18
5489.18
5490.2
5490.74
5491.98
5492
5493.17
5493.69
5494.94
5495.47
5496.89
5497.54
5499.06
5499.81
5501.48
5502.28
5504.16
5505.04
5507.4
5508.2
5512.05
5512.3
5565.65
5710.78
54654.9
8245.42
7562.43
7074.31
6734.17
6492.33
6315.03
6180.41
6075.72
5992.05
5924.34
5868.28
5821.68
5782.08
5748.56
5719.47
5694.52
5672.48
5653.42
5636.31
5621.43
5607.89
5596.06
5585.14
5575.62
5566.74
5558.97
5551.59
5545.2
5539.09
5533.78
5528.6
5524.18
5519.79
5516.11
5512.41
5509.31
5506.08
5503.48
5500.77
5498.58
5496.14
5494.36
5492.38
5490.68
5488.91
5487.63
5486.21
5485.28
5484.07
5483.32
5482.13
5481.18
5480.38
5479.89
5478.91
5478.5
5478.27
5478.09
5477.86
5477.27
5477.26
5477.23
5477.14
5476.79
5477.28
5477.28
5477.27
5477.51
5477.51
5478.03
5478.03
5478.93
5478.93
5479.94
5480.47
5481.7
5481.72
5482.88
5483.39
5484.63
5485.16
5486.57
5487.21
5488.72
5489.47
5491.13
5491.92
5493.8
5494.67
5497.02
5497.8
5501.66
5501.89
5557.34
5701.14
51713.5
8245.65
7562.27
7073.04
6731.6
6488.59
6310.3
6174.86
6069.49
5985.27
5917.1
5860.64
5813.71
5773.83
5740.05
5710.75
5685.6
5663.4
5644.19
5626.95
5611.95
5598.3
5586.38
5575.36
5565.77
5556.81
5548.98
5541.53
5535.09
5528.92
5523.56
5518.35
5513.89
5509.46
5505.74
5502
5498.87
5495.61
5492.99
5490.25
5488.04
5485.58
5483.78
5481.77
5480.06
5478.27
5476.97
5475.54
5474.59
5473.37
5472.6
5471.41
5470.44
5469.62
5469.13
5468.14
5467.72
5467.47
5467.28
5467.04
5466.46
5466.43
5466.39
5466.29
5465.93
5466.4
5466.4
5466.39
5466.62
5466.61
5467.11
5467.11
5467.99
5468
5469
5469.51
5470.73
5470.75
5471.9
5472.4
5473.64
5474.16
5475.55
5476.2
5477.7
5478.44
5480.09
5480.88
5482.74
5483.6
5485.94
5486.72
5490.57
5490.79
5548.48
5690.85
48867.1
8245.89
7562.12
7071.71
6728.9
6484.63
6305.29
6168.99
6062.91
5978.09
5909.42
5852.55
5805.26
5765.07
5731.03
5701.49
5676.14
5653.76
5634.38
5617
5601.87
5588.11
5576.08
5564.97
5555.3
5546.26
5538.36
5530.85
5524.34
5518.12
5512.71
5507.44
5502.94
5498.47
5494.71
5490.94
5487.78
5484.49
5481.84
5479.07
5476.83
5474.35
5472.52
5470.5
5468.77
5466.96
5465.64
5464.19
5463.22
5461.98
5461.2
5460
5459.03
5458.19
5457.68
5456.69
5456.25
5455.99
5455.78
5455.54
5454.96
5454.91
5454.86
5454.76
5454.37
5454.83
5454.83
5454.81
5455.03
5455.02
5455.5
5455.5
5456.37
5456.37
5457.36
5457.85
5459.07
5459.08
5460.23
5460.72
5461.95
5462.46
5463.84
5464.48
5465.97
5466.7
5468.35
5469.13
5470.98
5471.83
5474.16
5474.92
5478.79
5478.98
5539.05
5679.88
46119.1
8246.14
7561.96
7070.32
6726.07
6480.48
6300.02
6162.79
6055.95
5970.5
5901.3
5843.98
5796.32
5755.79
5721.47
5691.68
5666.12
5643.54
5624
5606.47
5591.2
5577.31
5565.18
5553.97
5544.2
5535.08
5527.1
5519.52
5512.95
5506.67
5501.21
5495.89
5491.34
5486.82
5483.03
5479.22
5476.02
5472.69
5470.01
5467.21
5464.95
5462.44
5460.59
5458.54
5456.79
5454.96
5453.63
5452.15
5451.17
5449.91
5449.11
5447.9
5446.92
5446.06
5445.54
5444.55
5444.09
5443.81
5443.59
5443.34
5442.76
5442.69
5442.64
5442.52
5442.12
5442.56
5442.56
5442.54
5442.74
5442.73
5443.19
5443.19
5444.03
5444.04
5445.02
5445.49
5446.7
5446.71
5447.85
5448.32
5449.55
5450.04
5451.42
5452.05
5453.53
5454.26
5455.89
5456.66
5458.51
5459.35
5461.67
5462.41
5466.28
5466.45
5529.05
5668.21
43472.6
8246.41
7561.8
7068.87
6723.11
6476.12
6294.47
6156.27
6048.62
5962.5
5892.74
5834.95
5786.88
5746.01
5711.38
5681.33
5655.54
5632.75
5613.03
5595.33
5579.92
5565.9
5553.65
5542.33
5532.47
5523.26
5515.2
5507.54
5500.91
5494.56
5489.04
5483.67
5479.07
5474.51
5470.67
5466.81
5463.58
5460.22
5457.51
5454.67
5452.39
5449.85
5447.97
5445.9
5444.13
5442.27
5440.92
5439.42
5438.42
5437.14
5436.33
5435.11
5434.11
5433.23
5432.71
5431.7
5431.22
5430.93
5430.69
5430.44
5429.86
5429.77
5429.7
5429.58
5429.16
5429.58
5429.58
5429.56
5429.74
5429.73
5430.17
5430.17
5430.99
5430.99
5431.97
5432.41
5433.61
5433.62
5434.75
5435.21
5436.43
5436.91
5438.28
5438.9
5440.37
5441.09
5442.71
5443.48
5445.31
5446.14
5448.45
5449.18
5453.05
5453.2
5518.47
5655.83
40930.3
8246.68
7561.65
7067.38
6720.02
6471.56
6288.66
6149.42
6040.92
5954.1
5883.74
5825.44
5776.94
5735.7
5700.76
5670.42
5644.39
5621.39
5601.47
5583.6
5568.04
5553.88
5541.5
5530.07
5520.1
5510.8
5502.65
5494.92
5488.21
5481.79
5476.21
5470.78
5466.13
5461.51
5457.63
5453.73
5450.46
5447.06
5444.31
5441.45
5439.13
5436.56
5434.65
5432.56
5430.77
5428.89
5427.51
5425.99
5424.96
5423.67
5422.84
5421.61
5420.6
5419.7
5419.16
5418.15
5417.64
5417.33
5417.08
5416.82
5416.24
5416.13
5416.06
5415.92
5415.49
5415.88
5415.88
5415.86
5416.03
5416
5416.43
5416.43
5417.22
5417.22
5418.19
5418.61
5419.8
5419.8
5420.92
5421.37
5422.58
5423.05
5424.41
5425.02
5426.48
5427.19
5428.8
5429.56
5431.38
5432.21
5434.5
5435.21
5439.09
5439.22
5507.28
5642.7
38494.5
8246.97
7561.5
7065.83
6716.8
6466.8
6282.59
6142.26
6032.86
5945.28
5874.3
5815.47
5766.51
5724.88
5689.6
5658.96
5632.67
5609.43
5589.32
5571.26
5555.54
5541.23
5528.72
5517.16
5507.09
5497.68
5489.45
5481.63
5474.85
5468.35
5462.71
5457.21
5452.51
5447.84
5443.91
5439.96
5436.65
5433.21
5430.42
5427.52
5425.17
5422.57
5420.63
5418.51
5416.7
5414.79
5413.39
5411.84
5410.8
5409.48
5408.63
5407.39
5406.37
5405.44
5404.89
5403.87
5403.35
5403.02
5402.75
5402.49
5401.9
5401.77
5401.68
5401.54
5401.09
5401.45
5401.45
5401.43
5401.58
5401.55
5401.96
5401.95
5402.72
5402.72
5403.68
5404.08
5405.25
5405.25
5406.36
5406.79
5408
5408.46
5409.8
5410.41
5411.85
5412.56
5414.15
5414.91
5416.71
5417.53
5419.8
5420.5
5424.38
5424.49
5495.47
5628.79
36167.3
8247.26
7561.35
7064.23
6713.47
6461.84
6276.25
6134.77
6024.42
5936.05
5864.41
5805.01
5755.58
5713.53
5677.89
5646.94
5620.37
5596.89
5576.56
5558.31
5542.41
5527.95
5515.3
5503.62
5493.43
5483.91
5475.58
5467.67
5460.81
5454.24
5448.53
5442.97
5438.21
5433.48
5429.49
5425.5
5422.14
5418.66
5415.83
5412.89
5410.51
5407.87
5405.91
5403.75
5401.92
5399.98
5398.56
5396.98
5395.91
5394.57
5393.71
5392.45
5391.41
5390.47
5389.9
5388.87
5388.33
5387.97
5387.69
5387.42
5386.83
5386.68
5386.58
5386.42
5385.96
5386.29
5386.29
5386.27
5386.4
5386.36
5386.74
5386.74
5387.49
5387.49
5388.43
5388.8
5389.96
5389.96
5391.06
5391.47
5392.68
5393.12
5394.45
5395.04
5396.48
5397.17
5398.76
5399.5
5401.29
5402.1
5404.36
5405.04
5408.92
5409.02
5483.02
5614.09
33950.3
8247.57
7561.21
7062.59
6710.02
6456.69
6269.66
6126.97
6015.62
5926.42
5854.07
5794.08
5744.15
5701.66
5665.64
5634.36
5607.5
5583.76
5563.2
5544.75
5528.67
5514.03
5501.24
5489.42
5479.11
5469.48
5461.05
5453.04
5446.09
5439.44
5433.66
5428.03
5423.2
5418.41
5414.38
5410.33
5406.93
5403.4
5400.53
5397.55
5395.13
5392.46
5390.46
5388.27
5386.42
5384.45
5383
5381.39
5380.3
5378.94
5378.05
5376.78
5375.73
5374.76
5374.17
5373.14
5372.57
5372.19
5371.89
5371.61
5371.01
5370.84
5370.73
5370.56
5370.08
5370.39
5370.39
5370.36
5370.48
5370.43
5370.79
5370.78
5371.5
5371.5
5372.43
5372.77
5373.91
5373.91
5375.01
5375.4
5376.6
5377.02
5378.34
5378.93
5380.35
5381.03
5382.6
5383.34
5385.11
5385.91
5388.15
5388.82
5392.7
5392.78
5469.87
5598.57
31845
8247.89
7561.07
7060.91
6706.45
6451.36
6262.8
6118.85
6006.45
5916.37
5843.29
5782.68
5732.21
5689.26
5652.84
5621.21
5594.04
5570.03
5549.23
5530.56
5514.29
5499.48
5486.54
5474.57
5464.13
5454.38
5445.84
5437.73
5430.7
5423.95
5418.1
5412.39
5407.51
5402.65
5398.56
5394.45
5391
5387.42
5384.51
5381.48
5379.03
5376.33
5374.29
5372.07
5370.18
5368.19
5366.71
5365.07
5363.95
5362.56
5361.65
5360.37
5359.3
5358.3
5357.71
5356.66
5356.07
5355.67
5355.35
5355.05
5354.46
5354.26
5354.13
5353.96
5353.46
5353.74
5353.74
5353.71
5353.8
5353.75
5354.08
5354.07
5354.75
5354.76
5355.67
5355.99
5357.11
5357.11
5358.19
5358.57
5359.75
5360.17
5361.47
5362.04
5363.45
5364.13
5365.68
5366.41
5368.17
5368.95
5371.18
5371.83
5375.71
5375.78
5455.99
5582.23
29852.5
8248.21
7560.94
7059.18
6702.78
6445.84
6255.7
6110.42
5996.93
5905.92
5832.07
5770.8
5719.77
5676.33
5639.49
5607.49
5580.01
5555.71
5534.66
5515.75
5499.28
5484.29
5471.18
5459.06
5448.48
5438.6
5429.96
5421.74
5414.61
5407.78
5401.84
5396.06
5391.1
5386.18
5382.02
5377.86
5374.36
5370.73
5367.77
5364.7
5362.21
5359.46
5357.38
5355.13
5353.22
5351.19
5349.68
5348.01
5346.87
5345.45
5344.52
5343.21
5342.13
5341.11
5340.49
5339.43
5338.81
5338.39
5338.05
5337.75
5337.14
5336.92
5336.78
5336.6
5336.08
5336.33
5336.33
5336.3
5336.37
5336.3
5336.6
5336.6
5337.25
5337.25
5338.15
5338.44
5339.55
5339.54
5340.61
5340.97
5342.14
5342.54
5343.83
5344.39
5345.78
5346.45
5347.99
5348.71
5350.45
5351.22
5353.43
5354.07
5357.94
5358
5441.34
5565.02
27973.9
8248.55
7560.83
7057.43
6699
6440.15
6248.35
6101.69
5987.04
5895.07
5820.41
5758.44
5706.82
5662.88
5625.6
5593.21
5565.38
5540.78
5519.46
5500.32
5483.64
5468.45
5455.17
5442.89
5432.17
5422.15
5413.39
5405.06
5397.83
5390.9
5384.88
5379.01
5373.99
5368.99
5364.78
5360.55
5356.99
5353.31
5350.3
5347.18
5344.65
5341.86
5339.74
5337.45
5335.51
5333.45
5331.91
5330.21
5329.03
5327.59
5326.63
5325.31
5324.21
5323.16
5322.52
5321.45
5320.81
5320.36
5319.99
5319.68
5319.07
5318.83
5318.67
5318.47
5317.94
5318.16
5318.16
5318.12
5318.17
5318.09
5318.37
5318.36
5318.98
5318.98
5319.86
5320.12
5321.2
5321.2
5322.26
5322.59
5323.76
5324.14
5325.41
5325.96
5327.34
5327.99
5329.52
5330.22
5331.95
5332.71
5334.9
5335.52
5339.39
5339.44
5425.87
5546.95
26210
8248.89
7560.72
7055.64
6695.12
6434.28
6240.76
6092.65
5976.79
5883.82
5808.3
5745.61
5693.38
5648.89
5611.15
5578.36
5550.18
5525.26
5503.66
5484.26
5467.36
5451.96
5438.5
5426.05
5415.18
5405.03
5396.14
5387.69
5380.35
5373.32
5367.22
5361.26
5356.16
5351.09
5346.8
5342.51
5338.9
5335.16
5332.1
5328.93
5326.35
5323.52
5321.36
5319.03
5317.06
5314.96
5313.39
5311.65
5310.44
5308.97
5307.98
5306.64
5305.53
5304.44
5303.79
5302.7
5302.03
5301.56
5301.17
5300.84
5300.23
5299.96
5299.78
5299.58
5299.04
5299.22
5299.21
5299.17
5299.2
5299.1
5299.35
5299.35
5299.93
5299.93
5300.79
5301.03
5302.08
5302.08
5303.13
5303.43
5304.59
5304.95
5306.21
5306.75
5308.11
5308.75
5310.25
5310.95
5312.66
5313.41
5315.58
5316.18
5320.05
5320.09
5409.52
5527.97
24561.6
8249.24
7560.62
7053.83
6691.15
6428.24
6232.93
6083.31
5966.2
5872.16
5795.76
5732.31
5679.43
5634.39
5596.16
5562.94
5534.38
5509.13
5487.24
5467.58
5450.43
5434.82
5421.17
5408.54
5397.52
5387.22
5378.2
5369.63
5362.18
5355.04
5348.84
5342.79
5337.61
5332.46
5328.11
5323.74
5320.07
5316.27
5313.16
5309.93
5307.31
5304.43
5302.23
5299.86
5297.85
5295.71
5294.11
5292.33
5291.1
5289.59
5288.58
5287.22
5286.08
5284.97
5284.29
5283.19
5282.5
5281.99
5281.58
5281.24
5280.62
5280.32
5280.13
5279.91
5279.35
5279.5
5279.5
5279.45
5279.46
5279.33
5279.56
5279.55
5280.1
5280.1
5280.94
5281.14
5282.18
5282.18
5283.2
5283.49
5284.64
5284.98
5286.22
5286.74
5288.09
5288.71
5290.2
5290.89
5292.58
5293.31
5295.46
5296.04
5299.9
5299.94
5392.25
5508.06
23028.5
8249.6
7560.54
7051.99
6687.09
6422.05
6224.87
6073.68
5955.25
5860.12
5782.79
5718.55
5664.98
5619.35
5580.62
5546.95
5518
5492.4
5470.2
5450.26
5432.87
5417.03
5403.18
5390.37
5379.18
5368.72
5359.56
5350.86
5343.3
5336.05
5329.75
5323.61
5318.34
5313.11
5308.68
5304.24
5300.51
5296.64
5293.48
5290.19
5287.52
5284.6
5282.35
5279.93
5277.89
5275.71
5274.07
5272.26
5270.99
5269.45
5268.4
5267.02
5265.87
5264.72
5264.02
5262.91
5262.18
5261.65
5261.22
5260.85
5260.22
5259.9
5259.69
5259.46
5258.89
5259
5259
5258.94
5258.93
5258.78
5258.99
5258.97
5259.48
5259.48
5260.3
5260.47
5261.48
5261.48
5262.49
5262.75
5263.89
5264.21
5265.44
5265.94
5267.27
5267.88
5269.35
5270.03
5271.69
5272.41
5274.54
5275.11
5278.95
5278.98
5373.98
5487.2
21605.6
8249.97
7560.47
7050.13
6682.95
6415.7
6216.59
6063.76
5943.97
5847.68
5769.38
5704.31
5650.04
5603.8
5564.53
5530.39
5501.03
5475.06
5452.54
5432.31
5414.66
5398.59
5384.53
5371.52
5360.15
5349.53
5340.24
5331.4
5323.71
5316.34
5309.94
5303.7
5298.34
5293.02
5288.52
5284
5280.2
5276.27
5273.05
5269.7
5266.98
5264.01
5261.71
5259.25
5257.17
5254.95
5253.27
5251.42
5250.11
5248.54
5247.46
5246.06
5244.88
5243.7
5242.97
5241.85
5241.09
5240.53
5240.07
5239.69
5239.05
5238.7
5238.46
5238.23
5237.65
5237.72
5237.71
5237.65
5237.61
5237.45
5237.63
5237.59
5238.07
5238.07
5238.86
5239.01
5239.98
5239.99
5240.98
5241.22
5242.34
5242.64
5243.85
5244.34
5245.65
5246.24
5247.69
5248.36
5250
5250.71
5252.82
5253.36
5257.2
5257.22
5354.68
5465.36
20288
8250.34
7560.42
7048.26
6678.74
6409.2
6208.09
6053.57
5932.35
5834.87
5755.55
5689.62
5634.61
5587.72
5547.9
5513.27
5483.48
5457.13
5434.27
5413.73
5395.82
5379.5
5365.21
5352
5340.45
5329.66
5320.21
5311.23
5303.42
5295.93
5289.42
5283.07
5277.62
5272.21
5267.62
5263.03
5259.16
5255.16
5251.87
5248.46
5245.69
5242.66
5240.31
5237.8
5235.69
5233.42
5231.7
5229.81
5228.46
5226.85
5225.74
5224.31
5223.12
5221.9
5221.15
5220
5219.22
5218.62
5218.13
5217.73
5217.09
5216.71
5216.45
5216.2
5215.62
5215.65
5215.63
5215.56
5215.5
5215.31
5215.47
5215.42
5215.86
5215.86
5216.62
5216.74
5217.68
5217.69
5218.67
5218.88
5219.98
5220.27
5221.46
5221.93
5223.22
5223.8
5225.23
5225.88
5227.5
5228.19
5230.28
5230.81
5234.62
5234.64
5334.28
5442.52
19070.6
8250.72
7560.39
7046.38
6674.46
6402.57
6199.39
6043.1
5920.41
5821.67
5741.31
5674.47
5618.69
5571.13
5530.73
5495.58
5465.35
5438.6
5415.39
5394.53
5376.33
5359.75
5345.23
5331.81
5320.07
5309.1
5299.49
5290.36
5282.41
5274.79
5268.17
5261.71
5256.16
5250.66
5245.99
5241.31
5237.37
5233.29
5229.94
5226.47
5223.64
5220.55
5218.15
5215.59
5213.44
5211.12
5209.36
5207.42
5206.04
5204.39
5203.25
5201.79
5200.57
5199.32
5198.54
5197.38
5196.56
5195.93
5195.41
5194.99
5194.33
5193.93
5193.65
5193.39
5192.8
5192.79
5192.75
5192.66
5192.6
5192.39
5192.51
5192.45
5192.85
5192.85
5193.58
5193.68
5194.58
5194.59
5195.55
5195.73
5196.82
5197.08
5198.26
5198.7
5199.97
5200.54
5201.95
5202.58
5204.19
5204.86
5206.93
5207.43
5211.22
5211.24
5312.72
5418.63
17948
8251.1
7560.37
7044.49
6670.11
6395.8
6190.48
6032.37
5908.14
5808.11
5726.65
5658.87
5602.29
5554.03
5513.02
5477.34
5446.64
5419.47
5395.89
5374.7
5356.2
5339.35
5324.59
5310.95
5299.01
5287.85
5278.08
5268.79
5260.7
5252.95
5246.21
5239.63
5233.98
5228.38
5223.62
5218.85
5214.83
5210.68
5207.26
5203.72
5200.83
5197.69
5195.23
5192.61
5190.42
5188.05
5186.25
5184.27
5182.84
5181.15
5179.97
5178.49
5177.24
5175.96
5175.14
5173.96
5173.12
5172.45
5171.9
5171.46
5170.79
5170.36
5170.05
5169.77
5169.19
5169.13
5169.08
5168.97
5168.89
5168.66
5168.76
5168.68
5169.04
5169.03
5169.74
5169.81
5170.68
5170.69
5171.62
5171.78
5172.85
5173.09
5174.24
5174.67
5175.92
5176.46
5177.85
5178.47
5180.05
5180.71
5182.75
5183.24
5187
5187.02
5289.96
5393.68
16914.7
8251.48
7560.37
7042.61
6665.71
6388.92
6181.39
6021.39
5895.56
5794.19
5711.58
5642.83
5585.41
5536.42
5494.78
5458.54
5427.36
5399.75
5375.78
5354.24
5335.44
5318.3
5303.29
5289.41
5277.27
5265.92
5255.97
5246.52
5238.28
5230.39
5223.52
5216.82
5211.07
5205.36
5200.5
5195.64
5191.55
5187.32
5183.83
5180.21
5177.26
5174.06
5171.54
5168.87
5166.63
5164.21
5162.37
5160.33
5158.87
5157.13
5155.92
5154.4
5153.13
5151.8
5150.96
5149.76
5148.88
5148.17
5147.6
5147.13
5146.45
5145.98
5145.65
5145.36
5144.77
5144.67
5144.6
5144.48
5144.38
5144.13
5144.21
5144.11
5144.42
5144.41
5145.08
5145.13
5145.96
5145.97
5146.88
5147.01
5148.06
5148.28
5149.41
5149.82
5151.05
5151.57
5152.94
5153.54
5155.1
5155.74
5157.75
5158.22
5161.96
5161.97
5265.98
5367.64
15964.9
8251.87
7560.39
7040.72
6661.26
6381.92
6172.11
6010.16
5882.69
5779.91
5696.12
5626.35
5568.06
5518.31
5476.02
5439.2
5407.5
5379.43
5355.07
5333.16
5314.04
5296.6
5281.34
5267.21
5254.85
5243.29
5233.17
5223.54
5215.15
5207.11
5200.11
5193.29
5187.42
5181.6
5176.65
5171.69
5167.51
5163.2
5159.64
5155.94
5152.93
5149.66
5147.08
5144.35
5142.07
5139.6
5137.71
5135.62
5134.11
5132.33
5131.08
5129.53
5128.23