/*--------------------------------*- C++ -*----------------------------------*\
| =========                 |                                                 |
| \\      /  F ield         | OpenFOAM: The Open Source CFD Toolbox           |
|  \\    /   O peration     | Version:  v2012                                 |
|   \\  /    A nd           | Website:  www.openfoam.com                      |
|    \\/     M anipulation  |                                                 |
\*---------------------------------------------------------------------------*/
FoamFile
{
    version     2.0;
    format      ascii;
    class       volScalarField;
    location    "30";
    object      epsilon;
}
// * * * * * * * * * * * * * * * * * * * * * * * * * * * * * * * * * * * * * //

dimensions      [0 2 -3 0 0 0 0];


internalField   nonuniform List<scalar> 
209825
(
0.755198
0.644456
0.579979
0.541058
0.515903
0.49865
0.48619
0.476887
0.469688
0.464027
0.459437
0.455699
0.452565
0.449947
0.447692
0.445782
0.444099
0.442657
0.44136
0.440242
0.439219
0.438331
0.437506
0.436795
0.436124
0.435543
0.434987
0.434513
0.434054
0.433656
0.43327
0.432947
0.432626
0.432355
0.432083
0.431866
0.431636
0.431446
0.431252
0.431099
0.430939
0.430825
0.43069
0.430582
0.430473
0.430404
0.430304
0.430232
0.430171
0.430126
0.430031
0.430004
0.429989
0.429972
0.429954
0.429907
0.429958
0.430041
0.430041
0.430168
0.430199
0.430199
0.430277
0.430349
0.43045
0.430592
0.430712
0.430811
0.430926
0.431075
0.431198
0.431379
0.431531
0.431729
0.431879
0.432111
0.432254
0.432536
0.4327
0.43303
0.43322
0.433609
0.433824
0.434273
0.434525
0.43505
0.43535
0.435982
0.436345
0.437146
0.437567
0.438857
0.43921
0.445311
3.04767
555.985
0.755199
0.644453
0.579971
0.541046
0.515887
0.498631
0.486168
0.476865
0.469664
0.464002
0.459411
0.455673
0.452538
0.449919
0.447664
0.445753
0.44407
0.442627
0.441331
0.440212
0.439189
0.438301
0.437476
0.436765
0.436093
0.435512
0.434957
0.434482
0.434023
0.433625
0.433239
0.432916
0.432595
0.432324
0.432052
0.431835
0.431604
0.431414
0.431221
0.431067
0.430908
0.430793
0.430658
0.43055
0.430441
0.430372
0.430272
0.4302
0.430139
0.430095
0.429999
0.429972
0.429957
0.429941
0.429923
0.429875
0.429926
0.430009
0.430009
0.430136
0.430167
0.430167
0.430245
0.430317
0.430418
0.43056
0.43068
0.430779
0.430894
0.431043
0.431166
0.431347
0.431498
0.431697
0.431847
0.432079
0.432222
0.432504
0.432668
0.432998
0.433187
0.433577
0.433791
0.43424
0.434492
0.435017
0.435318
0.43595
0.436313
0.437113
0.437534
0.438825
0.439177
0.445288
3.05262
552.66
0.755202
0.644437
0.579932
0.540987
0.515814
0.498547
0.486076
0.476766
0.469561
0.463895
0.4593
0.45556
0.452423
0.449802
0.447545
0.445633
0.443948
0.442505
0.441207
0.440088
0.439064
0.438175
0.43735
0.436638
0.435966
0.435384
0.434829
0.434354
0.433894
0.433496
0.433109
0.432786
0.432465
0.432194
0.431921
0.431704
0.431473
0.431283
0.43109
0.430936
0.430776
0.430662
0.430526
0.430418
0.430309
0.43024
0.43014
0.430068
0.430007
0.429962
0.429867
0.429839
0.429824
0.429808
0.42979
0.429742
0.429793
0.429876
0.429876
0.430002
0.430034
0.430034
0.430112
0.430184
0.430285
0.430426
0.430546
0.430645
0.43076
0.430909
0.431031
0.431212
0.431364
0.431562
0.431713
0.431944
0.432088
0.432369
0.432533
0.432863
0.433052
0.433442
0.433656
0.434105
0.434356
0.434881
0.435182
0.435813
0.436176
0.436976
0.437397
0.438687
0.439038
0.445168
3.06298
548.765
0.755206
0.64441
0.579865
0.540887
0.51569
0.498405
0.485921
0.4766
0.469386
0.463714
0.459114
0.455369
0.452228
0.449604
0.447345
0.44543
0.443744
0.442299
0.440999
0.439878
0.438853
0.437963
0.437137
0.436424
0.435751
0.435169
0.434612
0.434137
0.433677
0.433278
0.432891
0.432567
0.432245
0.431974
0.431701
0.431483
0.431253
0.431062
0.430868
0.430714
0.430554
0.430439
0.430304
0.430195
0.430086
0.430017
0.429916
0.429845
0.429783
0.429738
0.429643
0.429615
0.4296
0.429584
0.429565
0.429517
0.429568
0.429651
0.429651
0.429777
0.429808
0.429808
0.429886
0.429958
0.430059
0.4302
0.43032
0.430419
0.430533
0.430682
0.430805
0.430986
0.431137
0.431335
0.431485
0.431717
0.43186
0.432142
0.432305
0.432635
0.432824
0.433213
0.433427
0.433875
0.434127
0.434652
0.434951
0.435583
0.435945
0.436744
0.437164
0.438454
0.438803
0.444961
3.07918
545.074
0.755213
0.644371
0.57977
0.540747
0.515514
0.498204
0.485701
0.476365
0.46914
0.463458
0.458851
0.455099
0.451954
0.449325
0.447062
0.445144
0.443454
0.442007
0.440705
0.439582
0.438555
0.437664
0.436836
0.436122
0.435448
0.434865
0.434307
0.433831
0.43337
0.43297
0.432582
0.432258
0.431935
0.431664
0.43139
0.431172
0.43094
0.43075
0.430555
0.430401
0.430241
0.430125
0.429989
0.429881
0.429771
0.429702
0.429601
0.429529
0.429467
0.429422
0.429327
0.429299
0.429284
0.429267
0.429248
0.4292
0.429251
0.429333
0.429333
0.429458
0.42949
0.42949
0.429568
0.429639
0.42974
0.429881
0.430001
0.4301
0.430214
0.430362
0.430485
0.430665
0.430816
0.431014
0.431164
0.431396
0.431539
0.43182
0.431983
0.432313
0.432501
0.43289
0.433104
0.433552
0.433803
0.434327
0.434626
0.435257
0.435618
0.436416
0.436836
0.438124
0.438471
0.444669
3.10165
541.932
0.755221
0.644321
0.579648
0.540564
0.515287
0.497944
0.485416
0.476061
0.468821
0.463126
0.458509
0.45475
0.451597
0.448963
0.446695
0.444772
0.443079
0.441628
0.440324
0.439198
0.438169
0.437276
0.436446
0.43573
0.435055
0.43447
0.433911
0.433433
0.432971
0.432571
0.432182
0.431857
0.431533
0.431261
0.430986
0.430768
0.430536
0.430344
0.430149
0.429995
0.429834
0.429718
0.429582
0.429473
0.429363
0.429293
0.429192
0.42912
0.429058
0.429013
0.428917
0.428888
0.428873
0.428856
0.428837
0.428788
0.428839
0.42892
0.42892
0.429045
0.429077
0.429076
0.429155
0.429226
0.429326
0.429467
0.429586
0.429685
0.429799
0.429947
0.430069
0.43025
0.430401
0.430598
0.430748
0.430979
0.431122
0.431403
0.431565
0.431895
0.432083
0.432471
0.432685
0.433132
0.433382
0.433905
0.434204
0.434834
0.435195
0.435991
0.43641
0.437697
0.43804
0.444289
3.13085
539.501
0.755231
0.64426
0.579497
0.540339
0.515007
0.497623
0.485064
0.475686
0.468427
0.462718
0.458089
0.454319
0.451158
0.448516
0.446242
0.444315
0.442617
0.441162
0.439854
0.438725
0.437693
0.436797
0.435965
0.435247
0.43457
0.433983
0.433423
0.432944
0.432481
0.432079
0.431688
0.431362
0.431038
0.430764
0.430489
0.43027
0.430037
0.429845
0.429649
0.429494
0.429332
0.429216
0.429079
0.42897
0.428859
0.428789
0.428688
0.428615
0.428553
0.428507
0.428411
0.428383
0.428367
0.428349
0.428331
0.428281
0.428331
0.428412
0.428412
0.428536
0.428567
0.428567
0.428645
0.428716
0.428816
0.428956
0.429076
0.429175
0.429288
0.429436
0.429558
0.429738
0.429888
0.430086
0.430235
0.430466
0.430608
0.430888
0.431051
0.431379
0.431567
0.431954
0.432168
0.432614
0.432864
0.433386
0.433685
0.434312
0.434673
0.435468
0.435885
0.43717
0.437509
0.443821
3.1672
537.84
0.755244
0.644187
0.579318
0.540072
0.514675
0.497242
0.484646
0.47524
0.467958
0.462231
0.457588
0.453806
0.450635
0.447985
0.445703
0.44377
0.442066
0.440606
0.439294
0.438162
0.437126
0.436227
0.435393
0.434672
0.433992
0.433404
0.432841
0.432361
0.431896
0.431492
0.431101
0.430773
0.430448
0.430173
0.429897
0.429676
0.429443
0.42925
0.429053
0.428897
0.428735
0.428618
0.428481
0.428371
0.428259
0.428189
0.428087
0.428014
0.427951
0.427906
0.427809
0.42778
0.427764
0.427746
0.427727
0.427677
0.427727
0.427806
0.427806
0.42793
0.427961
0.42796
0.428038
0.428109
0.428208
0.428348
0.428467
0.428566
0.428679
0.428827
0.428948
0.429127
0.429277
0.429475
0.429623
0.429854
0.429996
0.430276
0.430437
0.430765
0.430953
0.431339
0.431552
0.431997
0.432247
0.432767
0.433065
0.433691
0.43405
0.434843
0.435259
0.436542
0.436876
0.443264
3.21113
536.936
0.755258
0.644103
0.57911
0.539763
0.514289
0.496799
0.484161
0.474721
0.467414
0.461666
0.457005
0.45321
0.450027
0.447367
0.445077
0.443136
0.441426
0.43996
0.438643
0.437506
0.436467
0.435564
0.434726
0.434003
0.433321
0.43273
0.432165
0.431682
0.431215
0.43081
0.430417
0.430088
0.429761
0.429485
0.429208
0.428986
0.428752
0.428558
0.42836
0.428203
0.42804
0.427923
0.427784
0.427674
0.427562
0.42749
0.427388
0.427315
0.427251
0.427205
0.427109
0.427079
0.427062
0.427044
0.427025
0.426974
0.427023
0.427101
0.427101
0.427224
0.427255
0.427255
0.427332
0.427403
0.427501
0.427641
0.42776
0.427858
0.42797
0.428118
0.428239
0.428417
0.428567
0.428764
0.428912
0.429142
0.429284
0.429563
0.429724
0.430051
0.430238
0.430623
0.430835
0.431279
0.431528
0.432048
0.432344
0.432969
0.433327
0.434117
0.434531
0.435812
0.43614
0.442617
3.26306
536.724
0.755275
0.644009
0.578875
0.53941
0.513849
0.496294
0.483607
0.474129
0.466792
0.461021
0.456341
0.452529
0.449333
0.446661
0.444361
0.442412
0.440695
0.439223
0.4379
0.436758
0.435714
0.434807
0.433966
0.433239
0.432553
0.43196
0.431393
0.430907
0.430438
0.430031
0.429636
0.429306
0.428977
0.4287
0.428421
0.428198
0.427962
0.427767
0.427569
0.427411
0.427247
0.427128
0.426989
0.426878
0.426765
0.426693
0.42659
0.426516
0.426452
0.426406
0.426309
0.426278
0.426261
0.426243
0.426223
0.426171
0.42622
0.426296
0.426296
0.426418
0.426449
0.426449
0.426526
0.426596
0.426694
0.426832
0.426951
0.42705
0.427161
0.427308
0.427428
0.427607
0.427755
0.427952
0.4281
0.428329
0.42847
0.428748
0.428909
0.429235
0.429421
0.429805
0.430017
0.430459
0.430708
0.431225
0.431521
0.432144
0.4325
0.433288
0.4337
0.434978
0.4353
0.44188
3.32336
537.105
0.755294
0.643903
0.578611
0.539015
0.513354
0.495727
0.482984
0.473464
0.466093
0.460295
0.455593
0.451763
0.448551
0.445867
0.443556
0.441597
0.439871
0.438392
0.437063
0.435915
0.434866
0.433955
0.433109
0.432378
0.43169
0.431093
0.430523
0.430035
0.429563
0.429154
0.428757
0.428424
0.428094
0.427815
0.427534
0.42731
0.427073
0.426877
0.426677
0.426518
0.426353
0.426233
0.426093
0.425981
0.425868
0.425795
0.425692
0.425617
0.425552
0.425505
0.425408
0.425376
0.425359
0.42534
0.42532
0.425267
0.425315
0.425389
0.425389
0.425511
0.425541
0.425541
0.425618
0.425687
0.425784
0.425922
0.42604
0.426139
0.42625
0.426396
0.426516
0.426693
0.426841
0.427038
0.427184
0.427414
0.427554
0.427831
0.427991
0.428316
0.428502
0.428884
0.429095
0.429536
0.429784
0.430299
0.430594
0.431214
0.431569
0.432354
0.432764
0.434039
0.434354
0.441052
3.39239
537.955
0.755315
0.643786
0.578318
0.538576
0.512806
0.495096
0.482291
0.472723
0.465315
0.459487
0.45476
0.45091
0.447681
0.444983
0.442659
0.44069
0.438955
0.437467
0.436131
0.434977
0.433922
0.433006
0.432155
0.43142
0.430728
0.430128
0.429554
0.429063
0.428589
0.428178
0.427778
0.427443
0.427111
0.42683
0.426548
0.426322
0.426083
0.425885
0.425684
0.425524
0.425358
0.425237
0.425096
0.424983
0.424868
0.424795
0.424691
0.424615
0.424549
0.424502
0.424405
0.424372
0.424354
0.424334
0.424314
0.42426
0.424308
0.42438
0.42438
0.4245
0.42453
0.424529
0.424607
0.424675
0.424772
0.424908
0.425026
0.425126
0.425235
0.425381
0.425499
0.425676
0.425824
0.426019
0.426165
0.426394
0.426534
0.42681
0.426969
0.427293
0.427478
0.427859
0.428069
0.428508
0.428755
0.429268
0.429562
0.430179
0.430533
0.431314
0.431721
0.432994
0.4333
0.440131
3.47044
539.135
0.755339
0.643659
0.577998
0.538094
0.512202
0.494402
0.481529
0.471908
0.464458
0.458596
0.453843
0.44997
0.446722
0.444008
0.441671
0.439689
0.437944
0.436448
0.435103
0.433942
0.432881
0.431959
0.431103
0.430364
0.429667
0.429063
0.428486
0.427992
0.427515
0.4271
0.426698
0.426361
0.426026
0.425744
0.425459
0.425231
0.424991
0.424792
0.424589
0.424428
0.42426
0.424138
0.423996
0.423882
0.423766
0.423691
0.423587
0.42351
0.423443
0.423396
0.423298
0.423265
0.423245
0.423225
0.423204
0.423149
0.423197
0.423266
0.423266
0.423385
0.423414
0.423414
0.423491
0.423559
0.423654
0.42379
0.423908
0.424007
0.424115
0.42426
0.424378
0.424554
0.424701
0.424896
0.425041
0.425269
0.425408
0.425683
0.425842
0.426164
0.426348
0.426727
0.426937
0.427374
0.427619
0.428131
0.428423
0.429037
0.429389
0.430167
0.430571
0.43184
0.432138
0.439117
3.55773
540.497
0.755365
0.643521
0.577649
0.537569
0.511543
0.493644
0.480695
0.471017
0.463521
0.457623
0.452839
0.448942
0.445673
0.442941
0.440589
0.438595
0.436838
0.435332
0.433978
0.43281
0.431741
0.430813
0.429952
0.429208
0.428506
0.427898
0.427317
0.426819
0.426339
0.425921
0.425516
0.425177
0.424839
0.424554
0.424268
0.424038
0.423796
0.423595
0.423391
0.423228
0.423058
0.422935
0.422792
0.422677
0.422559
0.422484
0.422378
0.422301
0.422233
0.422185
0.422087
0.422052
0.422032
0.422011
0.42199
0.421933
0.42198
0.422047
0.422047
0.422165
0.422193
0.422193
0.42227
0.422337
0.422431
0.422566
0.422683
0.422782
0.422889
0.423034
0.423151
0.423326
0.423471
0.423666
0.42381
0.424038
0.424176
0.42445
0.424607
0.424928
0.425111
0.425489
0.425697
0.426132
0.426376
0.426885
0.427176
0.427787
0.428137
0.428911
0.429312
0.430578
0.430866
0.438009
3.65442
541.894
0.755393
0.643373
0.577273
0.537001
0.51083
0.492821
0.479791
0.470049
0.462504
0.456565
0.451749
0.447824
0.444534
0.441782
0.439414
0.437405
0.435636
0.434119
0.432756
0.431579
0.430503
0.429568
0.428701
0.427951
0.427244
0.426631
0.426046
0.425544
0.42506
0.42464
0.424231
0.423889
0.423549
0.423261
0.422972
0.42274
0.422496
0.422294
0.422087
0.421923
0.421751
0.421627
0.421482
0.421366
0.421247
0.421171
0.421064
0.420986
0.420916
0.420868
0.42077
0.420734
0.420712
0.420691
0.420669
0.420611
0.420657
0.420721
0.420721
0.420838
0.420866
0.420865
0.420942
0.421008
0.421102
0.421235
0.421352
0.421451
0.421556
0.4217
0.421816
0.421991
0.422135
0.422329
0.422472
0.422699
0.422836
0.423108
0.423265
0.423584
0.423766
0.424142
0.424349
0.424782
0.425025
0.425531
0.42582
0.426428
0.426776
0.427545
0.427943
0.429205
0.429483
0.436805
3.76056
543.183
0.755424
0.643216
0.57687
0.536389
0.510061
0.491935
0.478815
0.469005
0.461405
0.455423
0.450571
0.446618
0.443302
0.44053
0.438144
0.43612
0.434337
0.432809
0.431435
0.430248
0.429164
0.428222
0.427348
0.426592
0.42588
0.425262
0.424672
0.424166
0.423678
0.423254
0.422842
0.422496
0.422154
0.421864
0.421572
0.421338
0.421091
0.420887
0.420679
0.420512
0.420339
0.420213
0.420067
0.419949
0.419829
0.419751
0.419643
0.419564
0.419493
0.419444
0.419345
0.419308
0.419286
0.419264
0.419241
0.419182
0.419227
0.419288
0.419288
0.419403
0.41943
0.41943
0.419506
0.419571
0.419664
0.419796
0.419912
0.420011
0.420115
0.420258
0.420373
0.420547
0.42069
0.420883
0.421025
0.421251
0.421387
0.421658
0.421814
0.422131
0.422312
0.422685
0.422891
0.423322
0.423564
0.424067
0.424354
0.424958
0.425304
0.426068
0.426463
0.427721
0.427989
0.435505
3.87606
544.23
0.755458
0.643049
0.576439
0.535735
0.509237
0.490984
0.477768
0.467883
0.460225
0.454196
0.449306
0.44532
0.441979
0.439184
0.436778
0.434738
0.432941
0.431399
0.430014
0.428818
0.427725
0.426775
0.425893
0.425131
0.424412
0.423789
0.423194
0.422684
0.422191
0.421764
0.421348
0.420999
0.420653
0.42036
0.420066
0.419829
0.41958
0.419373
0.419163
0.418995
0.41882
0.418691
0.418544
0.418425
0.418303
0.418224
0.418115
0.418035
0.417962
0.417913
0.417813
0.417775
0.417751
0.417728
0.417705
0.417644
0.417688
0.417746
0.417746
0.41786
0.417886
0.417886
0.417961
0.418026
0.418117
0.418248
0.418363
0.418462
0.418565
0.418707
0.418821
0.418993
0.419135
0.419327
0.419468
0.419693
0.419828
0.420098
0.420252
0.420568
0.420747
0.421118
0.421323
0.421751
0.421991
0.422491
0.422777
0.423377
0.42372
0.42448
0.424871
0.426125
0.426381
0.434108
4.0007
544.913
0.755494
0.642872
0.575981
0.535038
0.508358
0.489969
0.476649
0.466685
0.458963
0.452883
0.447952
0.443932
0.440562
0.437743
0.435317
0.433258
0.431446
0.42989
0.428493
0.427286
0.426183
0.425225
0.424336
0.423566
0.422841
0.422212
0.421612
0.421096
0.420599
0.420168
0.419748
0.419395
0.419046
0.41875
0.418452
0.418213
0.417961
0.417753
0.41754
0.417369
0.417192
0.417062
0.416913
0.416793
0.416669
0.416588
0.416478
0.416397
0.416323
0.416273
0.416173
0.416132
0.416107
0.416083
0.416059
0.415997
0.41604
0.416095
0.416095
0.416207
0.416232
0.416232
0.416307
0.41637
0.41646
0.416589
0.416704
0.416803
0.416904
0.417045
0.417158
0.417329
0.417469
0.417661
0.4178
0.418024
0.418158
0.418426
0.41858
0.418893
0.419071
0.41944
0.419644
0.420069
0.420307
0.420804
0.421088
0.421683
0.422024
0.422779
0.423166
0.424415
0.424659
0.432612
4.1341
545.123
0.755533
0.642687
0.575497
0.534299
0.507424
0.488889
0.475459
0.465408
0.457619
0.451485
0.446509
0.442453
0.439052
0.436207
0.433759
0.431681
0.429851
0.428282
0.426872
0.425653
0.42454
0.423572
0.422674
0.421897
0.421165
0.42053
0.419924
0.419403
0.418902
0.418465
0.418041
0.417685
0.417332
0.417033
0.416732
0.416489
0.416235
0.416024
0.415809
0.415636
0.415456
0.415324
0.415173
0.415051
0.414926
0.414843
0.414732
0.414649
0.414574
0.414523
0.414422
0.41438
0.414354
0.414329
0.414304
0.41424
0.414282
0.414334
0.414333
0.414443
0.414467
0.414467
0.414542
0.414604
0.414692
0.41482
0.414934
0.415033
0.415132
0.415273
0.415384
0.415554
0.415692
0.415883
0.416021
0.416244
0.416377
0.416643
0.416795
0.417106
0.417283
0.417649
0.417852
0.418274
0.418511
0.419004
0.419285
0.419877
0.420215
0.420963
0.421347
0.422591
0.422823
0.431015
4.27567
544.769
0.755575
0.642494
0.574987
0.533518
0.506436
0.487745
0.474196
0.464054
0.456193
0.450001
0.444978
0.440882
0.437448
0.434576
0.432103
0.430005
0.428158
0.426572
0.425148
0.423917
0.422793
0.421815
0.420909
0.420124
0.419384
0.418743
0.41813
0.417604
0.417097
0.416656
0.416227
0.415867
0.41551
0.415207
0.414903
0.414657
0.4144
0.414186
0.413968
0.413793
0.413611
0.413477
0.413324
0.4132
0.413073
0.412988
0.412876
0.412792
0.412714
0.412662
0.412561
0.412517
0.41249
0.412464
0.412438
0.412372
0.412413
0.412461
0.41246
0.412568
0.412591
0.412591
0.412665
0.412726
0.412813
0.412939
0.413052
0.413151
0.413249
0.413388
0.413498
0.413666
0.413803
0.413993
0.414129
0.414351
0.414483
0.414747
0.414898
0.415207
0.415382
0.415745
0.415946
0.416365
0.4166
0.41709
0.417369
0.417956
0.418291
0.419034
0.419412
0.420652
0.420871
0.429317
4.42459
543.768
0.75562
0.642292
0.574452
0.532696
0.505393
0.486537
0.472862
0.462622
0.454684
0.44843
0.443357
0.43922
0.43575
0.432848
0.430351
0.42823
0.426364
0.424762
0.423323
0.422079
0.420943
0.419955
0.419039
0.418245
0.417498
0.416849
0.41623
0.415698
0.415185
0.414739
0.414306
0.41394
0.413579
0.413273
0.412965
0.412716
0.412455
0.412239
0.412018
0.411841
0.411656
0.411519
0.411364
0.411239
0.411109
0.411023
0.410909
0.410823
0.410744
0.410691
0.410589
0.410543
0.410514
0.410487
0.410461
0.410393
0.410433
0.410477
0.410476
0.410582
0.410603
0.410603
0.410677
0.410736
0.410822
0.410946
0.411057
0.411156
0.411252
0.41139
0.411499
0.411666
0.411801
0.41199
0.412125
0.412345
0.412475
0.412738
0.412887
0.413194
0.413367
0.413728
0.413927
0.414342
0.414576
0.415061
0.415338
0.41592
0.416252
0.416989
0.417363
0.418597
0.418803
0.427515
4.57981
542.051
0.755667
0.642083
0.573892
0.531833
0.504297
0.485265
0.471457
0.461113
0.453093
0.446773
0.441646
0.437465
0.433958
0.431025
0.4285
0.426356
0.42447
0.42285
0.421395
0.420137
0.418989
0.417989
0.417063
0.41626
0.415505
0.414848
0.414222
0.413684
0.413165
0.412714
0.412275
0.411905
0.41154
0.411229
0.410917
0.410665
0.410401
0.410182
0.409958
0.409778
0.40959
0.409451
0.409294
0.409166
0.409034
0.408946
0.408831
0.408744
0.408662
0.408608
0.408505
0.408458
0.408427
0.408399
0.408372
0.408302
0.40834
0.40838
0.408379
0.408482
0.408502
0.408502
0.408575
0.408633
0.408717
0.408839
0.40895
0.409049
0.409143
0.40928
0.409386
0.409552
0.409686
0.409873
0.410006
0.410226
0.410354
0.410615
0.410762
0.411066
0.411238
0.411596
0.411793
0.412205
0.412437
0.412918
0.413192
0.413768
0.414097
0.414828
0.415197
0.416425
0.416619
0.425608
4.74001
539.569
0.755718
0.641867
0.573309
0.53093
0.503148
0.48393
0.46998
0.459526
0.451419
0.44503
0.439846
0.435617
0.432072
0.429105
0.426551
0.424383
0.422475
0.420836
0.419365
0.418092
0.41693
0.415919
0.414982
0.41417
0.413405
0.412741
0.412107
0.411562
0.411037
0.41058
0.410136
0.409761
0.409391
0.409076
0.40876
0.408504
0.408237
0.408014
0.407787
0.407604
0.407413
0.407272
0.407112
0.406983
0.406848
0.406758
0.406641
0.406552
0.406468
0.406413
0.406309
0.40626
0.406228
0.406198
0.40617
0.406098
0.406135
0.406171
0.406169
0.40627
0.406289
0.406289
0.406361
0.406417
0.4065
0.406619
0.406729
0.406828
0.406919
0.407055
0.40716
0.407324
0.407456
0.407642
0.407773
0.407992
0.408119
0.408377
0.408523
0.408824
0.408994
0.409348
0.409544
0.409952
0.410182
0.410658
0.41093
0.411501
0.411827
0.41255
0.412914
0.414137
0.414317
0.423594
4.90357
536.278
0.755771
0.641645
0.572702
0.529988
0.501946
0.482532
0.468432
0.457862
0.449664
0.443201
0.437956
0.433678
0.430091
0.427089
0.424505
0.42231
0.420379
0.41872
0.417231
0.415943
0.414767
0.413744
0.412795
0.411973
0.411199
0.410526
0.409885
0.409332
0.4088
0.408337
0.407888
0.407508
0.407132
0.406813
0.406493
0.406232
0.405961
0.405735
0.405505
0.405319
0.405125
0.404981
0.404819
0.404687
0.40455
0.404458
0.404339
0.404248
0.404162
0.404106
0.404001
0.40395
0.403915
0.403884
0.403855
0.403782
0.403816
0.403849
0.403845
0.403944
0.403962
0.403961
0.404033
0.404087
0.404168
0.404286
0.404394
0.404493
0.404582
0.404716
0.40482
0.404982
0.405112
0.405297
0.405426
0.405643
0.405768
0.406024
0.406169
0.406467
0.406635
0.406986
0.40718
0.407584
0.407811
0.408283
0.408552
0.409117
0.409439
0.410156
0.410515
0.411731
0.411897
0.42147
5.06856
532.148
0.755827
0.641416
0.572073
0.529007
0.500693
0.481072
0.466814
0.456122
0.447826
0.441285
0.435978
0.431647
0.428015
0.424976
0.42236
0.420138
0.418183
0.416503
0.414995
0.413691
0.4125
0.411463
0.410503
0.409669
0.408886
0.408204
0.407554
0.406994
0.406455
0.405986
0.40553
0.405145
0.404764
0.40444
0.404115
0.40385
0.403575
0.403346
0.403112
0.402923
0.402726
0.402579
0.402413
0.40228
0.40214
0.402045
0.401924
0.401832
0.401744
0.401686
0.40158
0.401526
0.40149
0.401457
0.401427
0.401352
0.401385
0.401413
0.401409
0.401505
0.401521
0.40152
0.401591
0.401643
0.401723
0.401838
0.401945
0.402043
0.40213
0.402263
0.402365
0.402525
0.402653
0.402836
0.402964
0.403179
0.403303
0.403556
0.403699
0.403994
0.404161
0.404507
0.4047
0.405099
0.405324
0.405792
0.406058
0.406617
0.406935
0.407644
0.407998
0.409208
0.40936
0.419233
5.23274
527.151
0.755886
0.641182
0.571422
0.527989
0.499388
0.47955
0.465126
0.454305
0.445908
0.439285
0.43391
0.429523
0.425845
0.422767
0.420117
0.417866
0.415886
0.414184
0.412656
0.411334
0.410128
0.409078
0.408104
0.407259
0.406465
0.405774
0.405116
0.404548
0.404001
0.403526
0.403063
0.402672
0.402285
0.401957
0.401627
0.401358
0.401079
0.400845
0.400608
0.400415
0.400215
0.400064
0.399896
0.39976
0.399617
0.399521
0.399398
0.399303
0.399212
0.399153
0.399046
0.39899
0.398952
0.398917
0.398886
0.39881
0.398839
0.398864
0.398858
0.398952
0.398966
0.398965
0.399035
0.399085
0.399163
0.399276
0.399381
0.39948
0.399564
0.399695
0.399795
0.399953
0.400079
0.400261
0.400386
0.4006
0.400722
0.400972
0.401114
0.401405
0.40157
0.401913
0.402103
0.402499
0.402721
0.403183
0.403447
0.404
0.404314
0.405015
0.405363
0.406566
0.406706
0.416883
5.39354
521.267
0.755949
0.640944
0.570751
0.526934
0.498034
0.477968
0.46337
0.452413
0.443908
0.437199
0.431754
0.427309
0.423582
0.420462
0.417777
0.415495
0.413488
0.411763
0.410215
0.408874
0.407652
0.406587
0.4056
0.404743
0.403938
0.403237
0.402569
0.401993
0.401439
0.400956
0.400487
0.400089
0.399697
0.399363
0.399028
0.398754
0.398471
0.398234
0.397992
0.397796
0.397592
0.397438
0.397267
0.397128
0.396983
0.396883
0.396758
0.396662
0.396568
0.396507
0.396399
0.396341
0.3963
0.396264
0.396232
0.396153
0.396181
0.396202
0.396194
0.396284
0.396297
0.396297
0.396365
0.396413
0.396489
0.396599
0.396703
0.396801
0.396883
0.397013
0.39711
0.397267
0.39739
0.39757
0.397694
0.397905
0.398026
0.398273
0.398413
0.398701
0.398864
0.399203
0.399391
0.399782
0.400002
0.400459
0.400719
0.401265
0.401576
0.402269
0.402611
0.403807
0.403933
0.414414
5.54809
514.475
0.756014
0.640701
0.570061
0.525844
0.496631
0.476327
0.461546
0.450446
0.441829
0.435029
0.429509
0.425003
0.421225
0.418062
0.415339
0.413026
0.41099
0.40924
0.407671
0.406311
0.405071
0.403991
0.40299
0.402121
0.401304
0.400593
0.399915
0.39933
0.398768
0.398278
0.397802
0.397398
0.396999
0.39666
0.396319
0.39604
0.395752
0.395511
0.395265
0.395066
0.394858
0.394701
0.394526
0.394385
0.394236
0.394134
0.394006
0.393908
0.393811
0.393749
0.39364
0.393579
0.393536
0.393498
0.393465
0.393384
0.393409
0.393426
0.393417
0.393504
0.393514
0.393514
0.393581
0.393626
0.393701
0.393808
0.393911
0.394008
0.394088
0.394215
0.394311
0.394465
0.394586
0.394765
0.394886
0.395096
0.395214
0.395459
0.395596
0.395881
0.396042
0.396376
0.396562
0.396948
0.397166
0.397617
0.397874
0.398414
0.39872
0.399405
0.399741
0.400929
0.401042
0.411826
5.69323
506.757
0.756082
0.640454
0.569352
0.52472
0.495181
0.474627
0.459654
0.448406
0.43967
0.432775
0.427178
0.422608
0.418775
0.415566
0.412805
0.410457
0.408393
0.406617
0.405025
0.403645
0.402387
0.40129
0.400275
0.399393
0.398564
0.397842
0.397154
0.39656
0.395989
0.395491
0.395007
0.394597
0.394192
0.393847
0.3935
0.393216
0.392924
0.392678
0.392428
0.392224
0.392012
0.391851
0.391674
0.39153
0.391378
0.391272
0.391143
0.391042
0.390942
0.390878
0.390768
0.390704
0.390659
0.390618
0.390584
0.390502
0.390524
0.390537
0.390526
0.390609
0.390618
0.390617
0.390683
0.390726
0.390799
0.390903
0.391004
0.391101
0.391178
0.391303
0.391397
0.391549
0.391668
0.391844
0.391963
0.392171
0.392288
0.392529
0.392665
0.392946
0.393104
0.393434
0.393618
0.393999
0.394214
0.394659
0.394913
0.395446
0.395748
0.396425
0.396754
0.397934
0.398034
0.409114
5.82553
498.09
0.756153
0.640205
0.568626
0.523564
0.493684
0.472869
0.457697
0.446292
0.437433
0.430438
0.42476
0.420122
0.416233
0.412977
0.410174
0.407792
0.405696
0.403893
0.402277
0.400876
0.399599
0.398486
0.397456
0.396559
0.395718
0.394984
0.394286
0.393682
0.393102
0.392596
0.392105
0.391687
0.391275
0.390924
0.390572
0.390283
0.389985
0.389735
0.38948
0.389272
0.389056
0.388891
0.38871
0.388563
0.388408
0.388299
0.388167
0.388064
0.387961
0.387895
0.387783
0.387717
0.387669
0.387627
0.387591
0.387508
0.387526
0.387535
0.387522
0.387602
0.387609
0.387608
0.387672
0.387712
0.387784
0.387885
0.387983
0.38808
0.388153
0.388277
0.388369
0.388519
0.388635
0.388809
0.388926
0.389131
0.389246
0.389484
0.389618
0.389895
0.390051
0.390376
0.390558
0.390934
0.391146
0.391585
0.391836
0.392361
0.392659
0.393327
0.39365
0.394821
0.394909
0.406275
5.94139
488.451
0.756228
0.639954
0.567884
0.522376
0.492142
0.471056
0.455675
0.444107
0.435119
0.42802
0.422257
0.417548
0.4136
0.410294
0.407449
0.405029
0.402901
0.40107
0.399429
0.398006
0.396709
0.395579
0.394532
0.393621
0.392766
0.392021
0.391312
0.390698
0.390108
0.389594
0.389094
0.388669
0.38825
0.387893
0.387535
0.38724
0.386936
0.386682
0.386422
0.38621
0.38599
0.385821
0.385636
0.385486
0.385327
0.385215
0.38508
0.384974
0.384869
0.3848
0.384687
0.384618
0.384568
0.384523
0.384486
0.384401
0.384415
0.384421
0.384406
0.384481
0.384487
0.384485
0.384548
0.384585
0.384655
0.384753
0.384849
0.384945
0.385016
0.385138
0.385227
0.385375
0.385488
0.38566
0.385775
0.385977
0.38609
0.386325
0.386456
0.386729
0.386883
0.387204
0.387383
0.387754
0.387963
0.388396
0.388643
0.38916
0.389454
0.390113
0.39043
0.391591
0.391667
0.403306
6.03707
477.817
0.756305
0.639701
0.567127
0.521158
0.490557
0.469189
0.45359
0.441852
0.432729
0.425521
0.419669
0.414887
0.410877
0.407519
0.404628
0.40217
0.400008
0.398148
0.396481
0.395035
0.393718
0.392568
0.391505
0.390579
0.389711
0.388953
0.388232
0.387607
0.387008
0.386485
0.385977
0.385544
0.385118
0.384754
0.384389
0.384088
0.383779
0.38352
0.383255
0.383039
0.382813
0.382641
0.382452
0.382298
0.382135
0.382021
0.381883
0.381774
0.381666
0.381594
0.38148
0.381408
0.381355
0.381308
0.38127
0.381183
0.381193
0.381196
0.381177
0.381249
0.381253
0.381251
0.381311
0.381345
0.381414
0.381508
0.381603
0.381698
0.381765
0.381885
0.381972
0.382117
0.382228
0.382398
0.38251
0.38271
0.382821
0.383051
0.383181
0.38345
0.383601
0.383917
0.384093
0.384458
0.384664
0.385091
0.385334
0.385844
0.386133
0.386783
0.387093
0.388244
0.388309
0.400203
6.1088
466.162
0.756385
0.639448
0.566357
0.519911
0.488931
0.467269
0.451443
0.439528
0.430264
0.422943
0.416998
0.412139
0.408065
0.404652
0.401715
0.399216
0.397019
0.395129
0.393434
0.391964
0.390625
0.389457
0.388376
0.387434
0.386551
0.38578
0.385048
0.384412
0.383802
0.38327
0.382753
0.382312
0.381878
0.381508
0.381136
0.380829
0.380514
0.380249
0.379979
0.379758
0.379529
0.379352
0.379159
0.379002
0.378835
0.378717
0.378576
0.378465
0.378352
0.378279
0.378163
0.378088
0.378032
0.377982
0.377943
0.377855
0.37786
0.37786
0.377838
0.377905
0.377908
0.377905
0.377963
0.377993
0.378061
0.378152
0.378244
0.378338
0.378402
0.37852
0.378604
0.378747
0.378855
0.379023
0.379132
0.379329
0.379438
0.379665
0.379792
0.380057
0.380206
0.380516
0.38069
0.381049
0.381252
0.381672
0.381912
0.382414
0.382698
0.383338
0.383642
0.384781
0.384835
0.396963
6.15284
453.461
0.756468
0.639194
0.565575
0.518638
0.487264
0.465298
0.449236
0.437137
0.427726
0.420287
0.414245
0.409306
0.405165
0.401695
0.398709
0.396169
0.393935
0.392012
0.390289
0.388794
0.387433
0.386245
0.385146
0.384188
0.38329
0.382505
0.38176
0.381113
0.380492
0.379951
0.379425
0.378975
0.378533
0.378155
0.377776
0.377463
0.377142
0.376872
0.376596
0.376371
0.376136
0.375954
0.375757
0.375597
0.375426
0.375304
0.37516
0.375046
0.37493
0.374854
0.374736
0.374658
0.374599
0.374547
0.374506
0.374417
0.374417
0.374415
0.374389
0.374451
0.374453
0.374448
0.374505
0.374531
0.374597
0.374685
0.374774
0.374868
0.374928
0.375043
0.375125
0.375266
0.37537
0.375536
0.375642
0.375836
0.375943
0.376166
0.376291
0.376551
0.376697
0.377003
0.377173
0.377527
0.377727
0.37814
0.378376
0.37887
0.379149
0.379779
0.380076
0.381204
0.381247
0.393583
6.16578
439.696
0.756554
0.638942
0.564782
0.517341
0.485559
0.463277
0.446971
0.43468
0.425117
0.417554
0.411412
0.40639
0.402178
0.398649
0.395613
0.393029
0.390757
0.388801