/*--------------------------------*- C++ -*----------------------------------*\
| =========                 |                                                 |
| \\      /  F ield         | OpenFOAM: The Open Source CFD Toolbox           |
|  \\    /   O peration     | Version:  v2012                                 |
|   \\  /    A nd           | Website:  www.openfoam.com                      |
|    \\/     M anipulation  |                                                 |
\*---------------------------------------------------------------------------*/
FoamFile
{
    version     2.0;
    format      ascii;
    class       volScalarField;
    location    "30";
    object      k;
}
// * * * * * * * * * * * * * * * * * * * * * * * * * * * * * * * * * * * * * //

dimensions      [0 2 -2 0 0 0 0];


internalField   nonuniform List<scalar> 
209825
(
0.00102425
0.000929338
0.000853333
0.000795046
0.000750627
0.000716483
0.000689575
0.000668059
0.000650384
0.000635773
0.000623379
0.000612884
0.000603762
0.000595911
0.000588941
0.000582881
0.000577411
0.000572624
0.000568237
0.000564379
0.000560795
0.000557638
0.000554662
0.000552041
0.000549546
0.000547353
0.00054524
0.00054338
0.000541583
0.000540005
0.000538451
0.000537101
0.000535764
0.00053461
0.000533455
0.000532466
0.000531451
0.000530592
0.000529705
0.000528959
0.000528183
0.000527539
0.000526857
0.000526296
0.000525691
0.000525208
0.000524673
0.000524256
0.000523792
0.000523429
0.000523021
0.000522718
0.000522362
0.000522092
0.000521784
0.000521565
0.000521301
0.000521104
0.000520889
0.000520733
0.000520528
0.000520412
0.000520255
0.000520128
0.000519985
0.000519915
0.000519776
0.00051971
0.000519568
0.000519549
0.000519506
0.000519597
0.00051961
0.000519736
0.000519767
0.000519898
0.000519957
0.000520116
0.000520199
0.000520399
0.000520517
0.000520777
0.000520924
0.000521237
0.000521412
0.000521783
0.000521994
0.000522447
0.000522701
0.000523277
0.000523557
0.00052445
0.000524615
0.000530304
0.0108817
0.0119461
0.00102425
0.000929339
0.000853333
0.000795044
0.000750624
0.000716478
0.000689568
0.000668051
0.000650374
0.000635762
0.000623366
0.00061287
0.000603747
0.000595896
0.000588925
0.000582865
0.000577394
0.000572606
0.000568219
0.00056436
0.000560776
0.000557619
0.000554642
0.000552021
0.000549526
0.000547333
0.00054522
0.000543359
0.000541562
0.000539984
0.00053843
0.00053708
0.000535743
0.000534589
0.000533433
0.000532444
0.000531429
0.00053057
0.000529683
0.000528936
0.000528161
0.000527517
0.000526835
0.000526274
0.000525668
0.000525186
0.00052465
0.000524233
0.000523769
0.000523406
0.000522998
0.000522695
0.000522338
0.000522069
0.000521761
0.000521541
0.000521277
0.00052108
0.000520866
0.00052071
0.000520504
0.000520389
0.000520231
0.000520104
0.000519962
0.000519891
0.000519752
0.000519687
0.000519545
0.000519525
0.000519482
0.000519573
0.000519586
0.000519712
0.000519743
0.000519874
0.000519933
0.000520092
0.000520175
0.000520375
0.000520493
0.000520752
0.0005209
0.000521212
0.000521388
0.000521759
0.00052197
0.000522422
0.000522677
0.000523252
0.000523532
0.000524425
0.00052459
0.000530288
0.0108909
0.0119582
0.00102426
0.000929341
0.000853332
0.000795035
0.000750605
0.000716451
0.000689533
0.000668009
0.000650327
0.00063571
0.00062331
0.00061281
0.000603684
0.00059583
0.000588856
0.000582794
0.000577322
0.000572532
0.000568143
0.000564283
0.000560697
0.000557538
0.000554561
0.000551939
0.000549443
0.000547248
0.000545134
0.000543273
0.000541475
0.000539897
0.000538342
0.000536991
0.000535654
0.000534499
0.000533343
0.000532353
0.000531338
0.000530478
0.000529591
0.000528844
0.000528068
0.000527424
0.000526741
0.00052618
0.000525575
0.000525092
0.000524556
0.000524138
0.000523674
0.000523311
0.000522902
0.0005226
0.000522243
0.000521973
0.000521665
0.000521445
0.000521181
0.000520984
0.000520769
0.000520613
0.000520408
0.000520292
0.000520134
0.000520007
0.000519864
0.000519794
0.000519655
0.000519589
0.000519447
0.000519427
0.000519384
0.000519474
0.000519488
0.000519613
0.000519644
0.000519775
0.000519834
0.000519993
0.000520076
0.000520275
0.000520393
0.000520652
0.0005208
0.000521112
0.000521287
0.000521658
0.000521869
0.000522321
0.000522576
0.000523151
0.00052343
0.000524323
0.000524487
0.000530201
0.0109095
0.0119838
0.00102426
0.000929345
0.000853329
0.000795019
0.000750574
0.000716405
0.000689475
0.00066794
0.000650248
0.000635622
0.000623215
0.000612709
0.000603578
0.000595719
0.000588741
0.000582675
0.000577199
0.000572406
0.000568014
0.000564152
0.000560564
0.000557403
0.000554423
0.0005518
0.000549302
0.000547106
0.000544991
0.000543128
0.000541329
0.00053975
0.000538193
0.000536842
0.000535504
0.000534348
0.000533191
0.000532201
0.000531185
0.000530324
0.000529436
0.000528689
0.000527913
0.000527267
0.000526585
0.000526023
0.000525417
0.000524934
0.000524397
0.000523979
0.000523515
0.000523151
0.000522742
0.000522439
0.000522082
0.000521812
0.000521503
0.000521284
0.000521019
0.000520822
0.000520607
0.00052045
0.000520245
0.000520129
0.000519971
0.000519844
0.000519701
0.00051963
0.000519491
0.000519425
0.000519283
0.000519263
0.000519219
0.000519309
0.000519322
0.000519447
0.000519478
0.000519609
0.000519667
0.000519826
0.000519909
0.000520108
0.000520225
0.000520484
0.000520632
0.000520943
0.000521118
0.000521489
0.0005217
0.000522151
0.000522405
0.00052298
0.000523259
0.000524152
0.000524314
0.000530054
0.0109384
0.0120238
0.00102426
0.000929351
0.000853325
0.000794996
0.00075053
0.00071634
0.000689392
0.000667841
0.000650136
0.000635498
0.000623081
0.000612566
0.000603427
0.000595561
0.000588578
0.000582506
0.000577026
0.000572229
0.000567833
0.000563967
0.000560375
0.000557212
0.00055423
0.000551604
0.000549103
0.000546905
0.000544788
0.000542924
0.000541123
0.000539542
0.000537984
0.000536632
0.000535292
0.000534135
0.000532977
0.000531985
0.000530969
0.000530107
0.000529218
0.00052847
0.000527693
0.000527047
0.000526363
0.000525801
0.000525194
0.00052471
0.000524173
0.000523755
0.00052329
0.000522926
0.000522516
0.000522213
0.000521855
0.000521585
0.000521276
0.000521056
0.000520791
0.000520593
0.000520378
0.000520221
0.000520015
0.000519899
0.00051974
0.000519614
0.00051947
0.000519399
0.00051926
0.000519194
0.000519052
0.000519031
0.000518986
0.000519075
0.000519088
0.000519213
0.000519243
0.000519374
0.000519432
0.00051959
0.000519673
0.000519871
0.000519989
0.000520247
0.000520394
0.000520705
0.00052088
0.00052125
0.00052146
0.000521911
0.000522165
0.000522738
0.000523017
0.000523909
0.000524069
0.000529845
0.0109782
0.0120789
0.00102426
0.000929358
0.00085332
0.000794967
0.000750473
0.000716256
0.000689285
0.000667713
0.00064999
0.000635338
0.000622908
0.000612382
0.000603233
0.000595358
0.000588366
0.000582288
0.000576801
0.000571999
0.000567598
0.000563727
0.000560132
0.000556964
0.000553979
0.000551349
0.000548846
0.000546645
0.000544526
0.000542659
0.000540856
0.000539273
0.000537713
0.000536359
0.000535017
0.000533859
0.0005327
0.000531706
0.000530688
0.000529826
0.000528936
0.000528186
0.000527408
0.000526761
0.000526077
0.000525514
0.000524906
0.000524421
0.000523883
0.000523464
0.000522999
0.000522634
0.000522224
0.00052192
0.000521561
0.000521291
0.000520981
0.00052076
0.000520495
0.000520297
0.000520081
0.000519924
0.000519717
0.000519601
0.000519442
0.000519315
0.000519171
0.0005191
0.00051896
0.000518894
0.000518752
0.000518731
0.000518684
0.000518773
0.000518785
0.000518909
0.000518939
0.000519069
0.000519127
0.000519285
0.000519367
0.000519565
0.000519682
0.00051994
0.000520086
0.000520397
0.000520571
0.00052094
0.00052115
0.0005216
0.000521853
0.000522425
0.000522703
0.000523595
0.000523752
0.000529573
0.0110298
0.0121499
0.00102427
0.000929368
0.000853314
0.000794931
0.000750402
0.000716154
0.000689153
0.000667556
0.000649812
0.000635141
0.000622694
0.000612154
0.000602993
0.000595107
0.000588106
0.000582019
0.000576525
0.000571715
0.000567308
0.000563432
0.000559831
0.000556659
0.000553669
0.000551036
0.000548529
0.000546325
0.000544202
0.000542333
0.000540527
0.000538942
0.00053738
0.000536023
0.000534679
0.000533519
0.000532358
0.000531363
0.000530343
0.000529479
0.000528587
0.000527837
0.000527057
0.000526409
0.000525723
0.000525159
0.00052455
0.000524065
0.000523526
0.000523106
0.00052264
0.000522274
0.000521863
0.000521558
0.000521199
0.000520928
0.000520617
0.000520396
0.00052013
0.000519931
0.000519715
0.000519557
0.00051935
0.000519233
0.000519074
0.000518947
0.000518802
0.000518731
0.000518591
0.000518525
0.000518382
0.00051836
0.000518313
0.0005184
0.000518411
0.000518535
0.000518565
0.000518694
0.000518752
0.000518909
0.00051899
0.000519188
0.000519304
0.000519561
0.000519707
0.000520017
0.00052019
0.000520558
0.000520768
0.000521217
0.000521469
0.00052204
0.000522317
0.000523207
0.000523362
0.000529239
0.0110939
0.0122378
0.00102427
0.000929379
0.000853307
0.000794888
0.000750319
0.000716032
0.000688996
0.00066737
0.000649599
0.000634906
0.00062244
0.000611883
0.000602708
0.000594809
0.000587797
0.000581699
0.000576196
0.000571378
0.000566964
0.000563081
0.000559474
0.000556296
0.000553301
0.000550663
0.000548152
0.000545944
0.000543817
0.000541944
0.000540135
0.000538547
0.000536982
0.000535623
0.000534276
0.000533114
0.00053195
0.000530953
0.000529932
0.000529066
0.000528172
0.00052742
0.000526639
0.00052599
0.000525302
0.000524737
0.000524127
0.00052364
0.0005231
0.000522679
0.000522212
0.000521845
0.000521433
0.000521127
0.000520767
0.000520495
0.000520184
0.000519962
0.000519695
0.000519496
0.000519279
0.000519121
0.000518913
0.000518795
0.000518636
0.000518508
0.000518363
0.000518291
0.000518151
0.000518084
0.000517941
0.000517919
0.000517869
0.000517956
0.000517966
0.000518089
0.000518118
0.000518247
0.000518304
0.00051846
0.000518541
0.000518738
0.000518853
0.000519109
0.000519255
0.000519563
0.000519736
0.000520103
0.000520312
0.000520759
0.000521011
0.00052158
0.000521856
0.000522745
0.000522896
0.000528841
0.0111708
0.0123431
0.00102427
0.000929391
0.000853299
0.000794839
0.000750223
0.00071589
0.000688814
0.000667153
0.000649353
0.000634634
0.000622145
0.000611569
0.000602376
0.000594462
0.000587437
0.000581328
0.000575813
0.000570986
0.000566563
0.000562672
0.000559058
0.000555874
0.000552873
0.000550229
0.000547713
0.0005455
0.000543369
0.000541492
0.000539679
0.000538088
0.000536519
0.000535157
0.000533808
0.000532643
0.000531476
0.000530477
0.000529453
0.000528585
0.00052769
0.000526936
0.000526152
0.000525502
0.000524812
0.000524246
0.000523634
0.000523146
0.000522605
0.000522183
0.000521714
0.000521346
0.000520933
0.000520626
0.000520265
0.000519992
0.00051968
0.000519457
0.00051919
0.00051899
0.000518771
0.000518613
0.000518404
0.000518286
0.000518125
0.000517998
0.000517851
0.000517779
0.000517638
0.000517572
0.000517429
0.000517405
0.000517354
0.000517439
0.000517448
0.00051757
0.000517598
0.000517727
0.000517783
0.000517938
0.000518019
0.000518214
0.000518329
0.000518584
0.000518729
0.000519036
0.000519208
0.000519574
0.000519782
0.000520228
0.000520478
0.000521046
0.00052132
0.000522208
0.000522354
0.00052838
0.0112613
0.0124666
0.00102428
0.000929406
0.00085329
0.000794784
0.000750114
0.000715729
0.000688608
0.000666906
0.000649072
0.000634323
0.000621809
0.00061121
0.000601998
0.000594067
0.000587026
0.000580903
0.000575377
0.000570538
0.000566105
0.000562205
0.000558583
0.000555391
0.000552383
0.000549734
0.000547212
0.000544993
0.000542857
0.000540976
0.000539158
0.000537563
0.000535991
0.000534625
0.000533272
0.000532104
0.000530935
0.000529933
0.000528906
0.000528036
0.000527138
0.000526382
0.000525597
0.000524944
0.000524253
0.000523684
0.000523071
0.000522581
0.000522038
0.000521615
0.000521145
0.000520776
0.000520361
0.000520053
0.000519691
0.000519417
0.000519103
0.00051888
0.000518612
0.000518411
0.000518191
0.000518032
0.000517823
0.000517703
0.000517542
0.000517414
0.000517267
0.000517194
0.000517053
0.000516986
0.000516842
0.000516818
0.000516764
0.000516848
0.000516856
0.000516977
0.000517004
0.000517132
0.000517187
0.000517342
0.000517422
0.000517616
0.00051773
0.000517983
0.000518127
0.000518433
0.000518605
0.000518969
0.000519176
0.00051962
0.000519869
0.000520435
0.000520708
0.000521593
0.000521735
0.000527853
0.0113656
0.0126088
0.00102428
0.000929422
0.000853281
0.000794723
0.000749992
0.000715549
0.000688376
0.00066663
0.000648756
0.000633974
0.000621431
0.000610807
0.000601572
0.000593622
0.000586564
0.000580425
0.000574885
0.000570034
0.00056559
0.00056168
0.000558048
0.000554848
0.000551832
0.000549176
0.000546647
0.000544423
0.000542281
0.000540395
0.000538572
0.000536972
0.000535395
0.000534026
0.000532669
0.000531498
0.000530325
0.00052932
0.00052829
0.000527417
0.000526517
0.000525758
0.00052497
0.000524315
0.000523622
0.000523052
0.000522436
0.000521945
0.0005214
0.000520975
0.000520503
0.000520133
0.000519717
0.000519408
0.000519044
0.000518769
0.000518454
0.00051823
0.00051796
0.000517758
0.000517537
0.000517378
0.000517167
0.000517047
0.000516885
0.000516757
0.000516608
0.000516535
0.000516393
0.000516326
0.000516182
0.000516156
0.0005161
0.000516181
0.000516189
0.000516308
0.000516335
0.000516461
0.000516516
0.000516669
0.000516748
0.000516941
0.000517054
0.000517306
0.000517449
0.000517754
0.000517924
0.000518287
0.000518493
0.000518934
0.000519183
0.000519746
0.000520017
0.000520901
0.000521037
0.00052726
0.011484
0.0127704
0.00102429
0.000929441
0.000853271
0.000794655
0.000749857
0.00071535
0.000688119
0.000666322
0.000648405
0.000633586
0.000621011
0.000610359
0.000601099
0.000593127
0.000586049
0.000579894
0.000574338
0.000569473
0.000565016
0.000561095
0.000557453
0.000554243
0.000551219
0.000548554
0.000546018
0.000543787
0.000541639
0.000539747
0.000537918
0.000536314
0.000534732
0.000533358
0.000531997
0.000530822
0.000529645
0.000528637
0.000527604
0.000526728
0.000525824
0.000525063
0.000524272
0.000523615
0.000522919
0.000522347
0.000521729
0.000521236
0.000520689
0.000520263
0.000519789
0.000519417
0.000518999
0.000518688
0.000518323
0.000518047
0.00051773
0.000517505
0.000517234
0.000517031
0.000516809
0.000516648
0.000516437
0.000516315
0.000516152
0.000516024
0.000515874
0.0005158
0.000515658
0.00051559
0.000515445
0.000515419
0.00051536
0.000515439
0.000515445
0.000515563
0.000515588
0.000515714
0.000515767
0.00051592
0.000515998
0.000516189
0.000516301
0.000516551
0.000516694
0.000516996
0.000517166
0.000517526
0.000517731
0.000518171
0.000518417
0.000518978
0.000519247
0.000520129
0.000520259
0.000526601
0.0116165
0.0129518
0.0010243
0.000929461
0.00085326
0.000794581
0.00074971
0.000715132
0.000687837
0.000665985
0.00064802
0.000633159
0.000620548
0.000609865
0.000600578
0.000592582
0.000585482
0.000579308
0.000573735
0.000568855
0.000564384
0.00056045
0.000556796
0.000553576
0.000550542
0.000547869
0.000545324
0.000543086
0.000540931
0.000539032
0.000537197
0.000535587
0.000534
0.000532621
0.000531256
0.000530076
0.000528895
0.000527883
0.000526846
0.000525967
0.00052506
0.000524296
0.000523502
0.000522842
0.000522143
0.000521569
0.000520949
0.000520453
0.000519904
0.000519476
0.000518999
0.000518626
0.000518206
0.000517894
0.000517527
0.00051725
0.000516931
0.000516704
0.000516432
0.000516228
0.000516004
0.000515843
0.00051563
0.000515508
0.000515344
0.000515214
0.000515063
0.000514989
0.000514845
0.000514777
0.000514632
0.000514604
0.000514542
0.000514619
0.000514624
0.00051474
0.000514764
0.000514889
0.000514941
0.000515092
0.000515169
0.000515359
0.00051547
0.000515718
0.000515859
0.00051616
0.000516328
0.000516686
0.00051689
0.000517327
0.000517572
0.00051813
0.000518397
0.000519277
0.0005194
0.000525875
0.0117629
0.0131535
0.0010243
0.000929484
0.00085325
0.000794501
0.00074955
0.000714894
0.000687529
0.000665616
0.000647599
0.000632693
0.000620043
0.000609325
0.000600008
0.000591985
0.000584862
0.000578667
0.000573075
0.000568178
0.000563692
0.000559744
0.000556077
0.000552846
0.000549801
0.000547118
0.000544564
0.000542318
0.000540155
0.000538249
0.000536408
0.000534791
0.000533198
0.000531814
0.000530443
0.000529259
0.000528073
0.000527057
0.000526016
0.000525133
0.000524222
0.000523455
0.000522658
0.000521995
0.000521293
0.000520716
0.000520093
0.000519596
0.000519044
0.000518613
0.000518135
0.00051776
0.000517337
0.000517024
0.000516655
0.000516376
0.000516056
0.000515827
0.000515553
0.000515348
0.000515123
0.00051496
0.000514746
0.000514622
0.000514457
0.000514327
0.000514175
0.0005141
0.000513955
0.000513886
0.000513741
0.000513712
0.000513647
0.00051372
0.000513724
0.000513838
0.000513861
0.000513985
0.000514035
0.000514185
0.000514261
0.000514449
0.000514559
0.000514804
0.000514945
0.000515243
0.000515411
0.000515766
0.000515968
0.000516402
0.000516646
0.000517201
0.000517466
0.000518343
0.000518459
0.00052508
0.0119229
0.0133757
0.00102431
0.000929508
0.000853239
0.000794416
0.000749377
0.000714637
0.000687197
0.000665218
0.000647143
0.000632187
0.000619494
0.000608739
0.000599389
0.000591337
0.000584189
0.00057797
0.000572358
0.000567442
0.000562939
0.000558976
0.000555296
0.000552052
0.000548995
0.000546302
0.000543738
0.000541482
0.000539311
0.000537397
0.000535548
0.000533925
0.000532326
0.000530936
0.000529559
0.00052837
0.000527179
0.000526158
0.000525113
0.000524226
0.000523311
0.00052254
0.000521739
0.000521073
0.000520368
0.000519788
0.000519162
0.000518662
0.000518108
0.000517675
0.000517194
0.000516817
0.000516392
0.000516076
0.000515706
0.000515425
0.000515103
0.000514873
0.000514597
0.00051439
0.000514163
0.000513999
0.000513784
0.000513659
0.000513492
0.000513362
0.000513208
0.000513132
0.000512986
0.000512917
0.000512771
0.00051274
0.000512672
0.000512742
0.000512744
0.000512857
0.000512878
0.000513
0.000513049
0.000513198
0.000513272
0.000513458
0.000513567
0.00051381
0.000513949
0.000514245
0.000514411
0.000514764
0.000514965
0.000515396
0.000515638
0.000516189
0.000516452
0.000517326
0.000517435
0.000524216
0.0120956
0.0136188
0.00102432
0.000929534
0.000853228
0.000794326
0.000749193
0.000714361
0.000686839
0.000664788
0.000646652
0.000631642
0.000618902
0.000608107
0.000598721
0.000590638
0.000583461
0.000577218
0.000571583
0.000566647
0.000562126
0.000558146
0.000554451
0.000551193
0.000548124
0.000545419
0.000542844
0.000540579
0.000538398
0.000536476
0.000534619
0.000532989
0.000531383
0.000529986
0.000528603
0.000527408
0.000526211
0.000525186
0.000524135
0.000523244
0.000522325
0.00052155
0.000520745
0.000520076
0.000519367
0.000518784
0.000518155
0.000517652
0.000517095
0.000516659
0.000516175
0.000515796
0.000515369
0.000515051
0.000514678
0.000514396
0.000514071
0.000513839
0.000513562
0.000513354
0.000513124
0.000512959
0.000512742
0.000512615
0.000512447
0.000512317
0.000512161
0.000512084
0.000511937
0.000511867
0.00051172
0.000511688
0.000511616
0.000511682
0.000511684
0.000511794
0.000511813
0.000511934
0.000511982
0.000512128
0.000512201
0.000512385
0.000512493
0.000512733
0.000512871
0.000513164
0.000513329
0.000513679
0.000513879
0.000514306
0.000514546
0.000515094
0.000515354
0.000516225
0.000516326
0.000523282
0.0122802
0.0138828
0.00102433
0.000929563
0.000853217
0.00079423
0.000748997
0.000714067
0.000686456
0.000664328
0.000646125
0.000631057
0.000618267
0.000607427
0.000598003
0.000589886
0.000582679
0.000576409
0.00057075
0.000565792
0.000561251
0.000557254
0.000553542
0.000550269
0.000547186
0.000544469
0.000541883
0.000539606
0.000537416
0.000535485
0.000533619
0.000531981
0.000530367
0.000528964
0.000527574
0.000526372
0.000525169
0.000524139
0.000523083
0.000522187
0.000521263
0.000520484
0.000519675
0.000519001
0.000518289
0.000517703
0.00051707
0.000516564
0.000516003
0.000515565
0.000515078
0.000514697
0.000514267
0.000513947
0.000513571
0.000513287
0.00051296
0.000512726
0.000512446
0.000512237
0.000512005
0.000511839
0.00051162
0.000511492
0.000511322
0.00051119
0.000511033
0.000510955
0.000510807
0.000510736
0.000510589
0.000510554
0.000510479
0.000510541
0.000510542
0.000510649
0.000510667
0.000510786
0.000510832
0.000510977
0.000511048
0.00051123
0.000511335
0.000511574
0.00051171
0.000512
0.000512164
0.000512511
0.000512708
0.000513132
0.00051337
0.000513914
0.000514171
0.000515039
0.000515131
0.000522276
0.0124751
0.0141678
0.00102434
0.000929594
0.000853206
0.000794129
0.000748789
0.000713754
0.000686049
0.000663838
0.000645562
0.000630433
0.000617589
0.000606702
0.000597235
0.000589082
0.000581843
0.000575543
0.000569858
0.000564877
0.000560315
0.000556298
0.000552568
0.00054928
0.000546182
0.000543451
0.000540852
0.000538565
0.000536363
0.000534422
0.000532547
0.0005309
0.000529278
0.000527867
0.00052647
0.000525262
0.000524053
0.000523016
0.000521955
0.000521054
0.000520124
0.000519341
0.000518527
0.00051785
0.000517133
0.000516543
0.000515906
0.000515397
0.000514833
0.000514392
0.000513902
0.000513518
0.000513085
0.000512762
0.000512384
0.000512098
0.000511768
0.000511532
0.00051125
0.000511039
0.000510805
0.000510637
0.000510416
0.000510286
0.000510115
0.000509983
0.000509823
0.000509744
0.000509595
0.000509523
0.000509375
0.000509339
0.00050926
0.000509317
0.000509317
0.000509421
0.000509437
0.000509554
0.000509598
0.000509741
0.000509811
0.00050999
0.000510094
0.00051033
0.000510464
0.000510752
0.000510913
0.000511257
0.000511453
0.000511873
0.000512109
0.000512648
0.000512902
0.000513767
0.00051385
0.000521197
0.0126787
0.0144734
0.00102435
0.000929626
0.000853196
0.000794024
0.000748569
0.000713423
0.000685617
0.000663317
0.000644965
0.000629769
0.000616866
0.000605929
0.000596418
0.000588225
0.000580951
0.000574621
0.000568907
0.000563901
0.000559316
0.000555278
0.00055153
0.000548224
0.000545111
0.000542365
0.000539753
0.000537453
0.00053524
0.000533288
0.000531402
0.000529747
0.000528116
0.000526697
0.000525292
0.000524077
0.00052286
0.000521818
0.00052075
0.000519843
0.000518909
0.00051812
0.000517301
0.00051662
0.000515898
0.000515305
0.000514664
0.000514151
0.000513584
0.000513139
0.000512645
0.000512258
0.000511822
0.000511497
0.000511116
0.000510827
0.000510495
0.000510257
0.000509973
0.000509759
0.000509523
0.000509354
0.000509131
0.000508999
0.000508825
0.000508692
0.00050853
0.00050845
0.000508299
0.000508227
0.000508078
0.00050804
0.000507957
0.00050801
0.000508008
0.000508109
0.000508123
0.000508239
0.00050828
0.000508421
0.000508489
0.000508666
0.000508768
0.000509
0.000509133
0.000509417
0.000509577
0.000509918
0.000510111
0.000510528
0.000510761
0.000511296
0.000511547
0.000512407
0.000512482
0.000520043
0.0128889
0.0147993
0.00102436
0.000929661
0.000853186
0.000793914
0.000748339
0.000713074
0.00068516
0.000662766
0.000644332
0.000629065
0.000616101
0.000605109
0.00059555
0.000587316
0.000580004
0.00057364
0.000567897
0.000562864
0.000558254
0.000554195
0.000550426
0.000547102
0.000543971
0.00054121
0.000538583
0.00053627
0.000534045
0.000532082
0.000530185
0.00052852
0.000526879
0.000525452
0.000524038
0.000522816
0.000521592
0.000520542
0.000519468
0.000518556
0.000517615
0.000516821
0.000515997
0.000515311
0.000514584
0.000513987
0.000513341
0.000512825
0.000512253
0.000511805
0.000511308
0.000510918
0.000510478
0.00051015
0.000509766
0.000509475
0.00050914
0.000508899
0.000508612
0.000508397
0.000508157
0.000507987
0.000507762
0.000507628
0.000507452
0.000507318
0.000507154
0.000507073
0.00050692
0.000506847
0.000506697
0.000506657
0.00050657
0.000506618
0.000506615
0.000506712
0.000506724
0.000506837
0.000506877
0.000507016
0.000507082
0.000507256
0.000507356
0.000507585
0.000507716
0.000507997
0.000508155
0.000508491
0.000508683
0.000509095
0.000509326
0.000509856
0.000510103
0.000510959
0.000511025
0.000518814
0.0131028
0.0151446
0.00102437
0.000929699
0.000853177
0.0007938
0.000748098
0.000712708
0.00068468
0.000662186
0.000643665
0.000628321
0.000615291
0.000604242
0.000594633
0.000586353
0.000579002
0.000572603
0.000566827
0.000561765
0.000557129
0.000553046
0.000549256
0.000545912
0.000542764
0.000539986
0.000537344
0.000535016
0.000532777
0.000530803
0.000528894
0.000527218
0.000525568
0.000524131
0.000522709
0.000521478
0.000520246
0.000519189
0.000518108
0.000517189
0.000516242
0.000515443
0.000514613
0.000513922
0.00051319
0.000512588
0.000511938
0.000511418
0.000510842
0.00051039
0.000509889
0.000509495
0.000509052
0.000508721
0.000508334
0.00050804
0.000507701
0.000507458
0.000507169
0.000506951
0.000506709
0.000506536
0.000506309
0.000506173
0.000505995
0.00050586
0.000505693
0.00050561
0.000505456
0.000505382
0.000505231
0.000505189
0.000505098
0.000505141
0.000505136
0.000505229
0.000505239
0.00050535
0.000505387
0.000505524
0.000505588
0.000505759
0.000505857
0.000506082
0.000506211
0.000506488
0.000506645
0.000506977
0.000507166
0.000507574
0.000507802
0.000508327
0.000508571
0.000509422
0.000509478
0.000517506
0.0133175
0.0155085
0.00102438
0.000929738
0.000853169
0.000793682
0.000747847
0.000712325
0.000684176
0.000661576
0.000642962
0.000627539
0.000614439
0.000603328
0.000593665
0.000585338
0.000577944
0.000571507
0.000565698
0.000560605
0.000555942
0.000551833
0.00054802
0.000544655
0.000541487
0.000538692
0.000536033
0.000533691
0.000531438
0.00052945
0.000527529
0.000525842
0.000524181
0.000522735
0.000521302
0.000520063
0.000518822
0.000517758
0.000516669
0.000515744
0.00051479
0.000513985
0.000513148
0.000512452
0.000511715
0.000511108
0.000510453
0.000509929
0.000509348
0.000508892
0.000508387
0.00050799
0.000507543
0.000507208
0.000506818
0.000506521
0.000506179
0.000505934
0.000505641
0.000505421
0.000505175
0.000505001
0.000504771
0.000504632
0.000504453
0.000504317
0.000504147
0.000504063
0.000503907
0.000503832
0.000503679
0.000503635
0.00050354
0.000503578
0.00050357
0.000503659
0.000503668
0.000503776
0.00050381
0.000503944
0.000504006
0.000504174
0.00050427
0.000504492
0.000504619
0.000504892
0.000505046
0.000505374
0.000505561
0.000505964
0.000506189
0.000506709
0.000506949
0.000507795
0.000507842
0.000516119
0.0135293
0.0158893
0.00102438
0.000929779
0.000853163
0.000793561
0.000747586
0.000711925
0.000683649
0.000660937
0.000642225
0.000626717
0.000613543
0.000602367
0.000592647
0.00058427
0.000576831
0.000570354
0.000564508
0.000559384
0.00055469
0.000550555
0.000546717
0.00054333
0.000540142
0.000537328
0.000534652
0.000532293
0.000530025
0.000528024
0.00052609
0.000524391
0.000522719
0.000521262
0.000519819
0.000518571
0.000517321
0.000516249
0.000515152
0.000514219
0.000513258
0.000512447
0.000511603
0.000510902
0.000510158
0.000509547
0.000508886
0.000508357
0.000507772
0.000507312
0.000506802
0.000506402
0.00050595
0.000505612
0.000505218
0.000504918
0.000504573
0.000504324
0.000504028
0.000503806
0.000503557
0.00050338
0.000503147
0.000503007
0.000502824
0.000502687
0.000502515
0.000502429
0.000502271
0.000502195
0.000502041
0.000501995
0.000501896
0.000501928
0.000501918
0.000502002
0.000502009
0.000502114
0.000502146
0.000502277
0.000502336
0.000502501
0.000502595
0.000502812
0.000502937
0.000503206
0.000503358
0.000503682
0.000503866
0.000504264
0.000504487
0.000505
0.000505236
0.000506077
0.000506114
0.000514649
0.0137342
0.0162851
0.00102439
0.000929823
0.000853157
0.000793437
0.000747315
0.000711508
0.000683099
0.000660269
0.000641455
0.000625857
0.000612604
0.00060136
0.000591579
0.000583149
0.000575662
0.000569143
0.000563259
0.0005581
0.000553375
0.000549212
0.000545348
0.000541938
0.000538728
0.000535894
0.000533199
0.000530823
0.00052854
0.000526524
0.000524576
0.000522864
0.00052118
0.000519712
0.000518258
0.000517
0.000515741
0.00051466
0.000513554
0.000512615
0.000511645
0.000510828
0.000509977
0.000509269
0.00050852
0.000507903
0.000507236
0.000506703
0.000506112
0.000505648
0.000505133
0.000504729
0.000504273
0.000503931
0.000503533
0.00050323
0.000502881
0.000502629
0.00050233
0.000502105
0.000501852
0.000501674
0.000501438
0.000501295
0.000501109
0.000500971
0.000500796
0.000500708
0.000500548
0.000500471
0.000500315
0.000500267
0.000500164
0.000500191
0.000500177
0.000500257
0.000500261
0.000500364
0.000500392
0.000500521
0.000500578
0.000500739
0.00050083
0.000501044
0.000501166
0.000501431
0.00050158
0.000501899
0.000502081
0.000502473
0.000502693
0.000503201
0.000503432
0.000504267
0.000504295
0.000513096
0.0139277
0.0166935
0.0010244
0.000929869
0.000853153
0.00079331
0.000747036
0.000711076
0.000682527
0.000659573
0.00064065
0.000624958
0.000611623
0.000600306
0.000590462
0.000581975
0.000574438
0.000567874
0.00056195
0.000556754
0.000551996
0.000547804
0.000543912
0.000540477
0.000537244
0.000534389
0.000531674
0.000529281
0.00052698
0.000524949
0.000522986
0.000521262
0.000519564
0.000518085
0.00051662
0.000515351
0.000514081
0.000512992
0.000511877
0.000510929
0.000509952
0.000509127
0.000508269
0.000507555
0.000506798
0.000506176
0.000505504
0.000504965
0.000504369
0.0005039
0.00050338
0.000502972
0.000502511
0.000502165
0.000501763
0.000501457
0.000501103
0.000500848
0.000500545
0.000500318
0.000500061
0.00049988
0.000499641
0.000499495
0.000499307
0.000499168
0.000498989
0.000498899
0.000498738
0.000498659
0.000498502
0.000498451
0.000498344
0.000498366
0.000498349
0.000498423
0.000498425
0.000498524
0.00049855
0.000498675
0.000498729
0.000498887
0.000498975
0.000499185
0.000499305
0.000499565
0.000499712
0.000500026
0.000500205
0.000500592
0.000500808
0.00050131
0.000501536
0.000502364
0.000502383
0.000511456
0.0141047
0.0171111
0.00102441
0.000929917
0.000853151
0.000793181
0.000746749
0.00071063
0.000681934
0.000658849
0.000639813
0.000624021
0.000610599
0.000599207
0.000589295
0.000580749
0.000573159
0.000566548
0.000560581
0.000555347
0.000550554
0.00054633
0.000542409
0.000538948
0.00053569
0.000532813
0.000530078
0.000527666
0.000525347
0.0005233
0.000521321
0.000519583
0.000517872
0.00051638
0.000514903
0.000513624
0.000512342
0.000511243
0.000510119
0.000509163
0.000508177
0.000507345
0.000506479
0.000505758
0.000504994
0.000504366
0.000503687
0.000503143
0.000502541
0.000502067
0.000501542
0.000501129
0.000500663
0.000500314
0.000499907
0.000499597
0.000499239
0.000498981
0.000498674
0.000498444
0.000498183
0.000498
0.000497758