/*--------------------------------*- C++ -*----------------------------------*\
| =========                 |                                                 |
| \\      /  F ield         | OpenFOAM: The Open Source CFD Toolbox           |
|  \\    /   O peration     | Version:  v2012                                 |
|   \\  /    A nd           | Website:  www.openfoam.com                      |
|    \\/     M anipulation  |                                                 |
\*---------------------------------------------------------------------------*/
FoamFile
{
    version     2.0;
    format      ascii;
    class       volScalarField;
    location    "30";
    object      yPlus;
}
// * * * * * * * * * * * * * * * * * * * * * * * * * * * * * * * * * * * * * //

dimensions      [0 0 0 0 0 0 0];


internalField   uniform 0;

boundaryField
{
    inlet
    {
        type            calculated;
        value           uniform 0;
    }
    outlet
    {
        type            calculated;
        value           uniform 0;
    }
    topWall
    {
        type            calculated;
        value           nonuniform List<scalar> 
545
(
0.143182
0.246984
0.316857
0.372435
0.419477
0.460627
0.497373
0.53065
0.561095
0.589167
0.615207
0.639481
0.662201
0.683537
0.703632
0.722603
0.740552
0.757566
0.773719
0.789078
0.803701
0.817639
0.83094
0.843645
0.85579
0.867412
0.878539
0.889202
0.899425
0.909234
0.918649
0.927693
0.936383
0.944738
0.952774
0.960507
0.96795
0.975118
0.982023
0.988677
0.995091
1.00128
1.00724
1.013
1.01855
1.02392
1.02909
1.0341
1.03893
1.04359
1.04811
1.05247
1.05668
1.06076
1.06471
1.06852
1.07221
1.07579
1.07925
1.08259
1.08583
1.08897
1.09201
1.09496
1.09781
1.10057
1.10325
1.10585
1.10836
1.1108
1.11316
1.11545
1.11765
1.11977
1.12187
1.12396
1.12602
1.12808
1.13011
1.13213
1.13413
1.13611
1.13808
1.14003
1.14197
1.14389
1.1458
1.14769
1.14956
1.15142
1.15326
1.15509
1.15691
1.15871
1.16049
1.16226
1.16386
1.16528
1.1667
1.16813
1.16955
1.17097
1.1724
1.17382
1.17524
1.17666
1.17808
1.17949
1.18091
1.18233
1.18374
1.18516
1.18658
1.18799
1.1894
1.19082
1.19223
1.19364
1.19505
1.19646
1.19787
1.19927
1.20068
1.20209
1.20349
1.2049
1.2063
1.2077
1.2091
1.2105
1.2119
1.2133
1.2147
1.2161
1.21749
1.21889
1.22028
1.22167
1.22306
1.22446
1.22584
1.22723
1.22862
1.23001
1.23139
1.23278
1.23416
1.23554
1.23692
1.2383
1.23968
1.24105
1.24243
1.2438
1.24518
1.24655
1.24792
1.24929
1.25066
1.25202
1.25339
1.25475
1.25611
1.25747
1.25883
1.26019
1.26155
1.2629
1.26426
1.26561
1.26696
1.26831
1.26966
1.271
1.27235
1.27369
1.27503
1.27637
1.27771
1.27904
1.28038
1.28171
1.28304
1.28437
1.2857
1.28703
1.28835
1.28968
1.291
1.29231
1.29363
1.29495
1.29626
1.29757
1.29888
1.30019
1.3015
1.3028
1.3041
1.3054
1.3067
1.308
1.30929
1.31058
1.31187
1.31316
1.31445
1.31573
1.31701
1.31829
1.31957
1.32084
1.32211
1.32338
1.32465
1.32592
1.32718
1.32844
1.3297
1.33096
1.33221
1.33347
1.33472
1.33596
1.33721
1.33845
1.33969
1.34093
1.34216
1.34339
1.34462
1.34585
1.34708
1.3483
1.34952
1.35073
1.35195
1.35316
1.35437
1.35557
1.35678
1.35798
1.35917
1.36037
1.36156
1.36275
1.36394
1.36512
1.3663
1.36748
1.36865
1.36982
1.37099
1.37216
1.37332
1.37448
1.37564
1.37679
1.37794
1.37909
1.38023
1.38137
1.38251
1.38365
1.38478
1.3859
1.38703
1.38815
1.38927
1.39032
1.39131
1.39231
1.39331
1.39432
1.39534
1.39636
1.39738
1.39842
1.39945
1.4005
1.40155
1.4026
1.40366
1.40473
1.4058
1.40688
1.40796
1.40905
1.41015
1.41125
1.41235
1.41346
1.41457
1.41569
1.41681
1.41794
1.41908
1.42021
1.42135
1.4225
1.42365
1.42481
1.42596
1.42713
1.42829
1.42946
1.43064
1.43181
1.43299
1.43418
1.43536
1.43655
1.43774
1.43894
1.44013
1.44133
1.44253
1.44373
1.44494
1.44614
1.44735
1.44856
1.44977
1.45098
1.45219
1.4534
1.45461
1.45582
1.45703
1.45824
1.45945
1.46065
1.46186
1.46306
1.46427
1.46547
1.46667
1.46786
1.46905
1.47024
1.47143
1.47261
1.47379
1.47496
1.47613
1.47729
1.47845
1.4796
1.48075
1.48189
1.48302
1.48415
1.48526
1.48637
1.48748
1.48857
1.48965
1.49073
1.49179
1.49285
1.49389
1.49493
1.49595
1.49696
1.49796
1.49894
1.49992
1.50087
1.50182
1.50275
1.50366
1.50456
1.50545
1.50632
1.50717
1.508
1.50882
1.50962
1.51039
1.51116
1.5119
1.51262
1.51332
1.514
1.51465
1.51529
1.5159
1.51649
1.51706
1.5176
1.51812
1.51861
1.51908
1.51952
1.51993
1.52032
1.52068
1.52101
1.52132
1.5216
1.52184
1.52206
1.52224
1.5224
1.52252
1.52262
1.52268
1.52271
1.52271
1.52267
1.5226
1.5225
1.52236
1.52219
1.52198
1.52174
1.52146
1.52114
1.52079
1.52041
1.51998
1.51952
1.51903
1.51849
1.51792
1.51731
1.51666
1.51598
1.51525
1.51449
1.51369
1.51285
1.51197
1.51106
1.51011
1.50912
1.50808
1.50702
1.50591
1.50477
1.50358
1.50237
1.50111
1.49981
1.49848
1.49711
1.49571
1.49427
1.49279
1.49128
1.48956
1.48764
1.48569
1.48372
1.48172
1.47972
1.47769
1.47565
1.4736
1.47154
1.46946
1.46738
1.46529
1.46321
1.46111
1.45901
1.45691
1.45482
1.45272
1.45063
1.44853
1.44645
1.44437
1.44231
1.44024
1.43819
1.43615
1.43412
1.4321
1.43009
1.4281
1.42612
1.42416
1.42221
1.42028
1.41837
1.41648
1.4146
1.41275
1.41092
1.4091
1.40731
1.40554
1.40379
1.40207
1.40037
1.39869
1.39705
1.39542
1.39382
1.39225
1.39071
1.38919
1.3877
1.38624
1.38481
1.3834
1.38203
1.38069
1.37938
1.3781
1.37685
1.37563
1.37445
1.3733
1.37218
1.37109
1.37004
1.36902
1.36804
1.36709
1.36618
1.3653
1.36446
1.36365
1.36288
1.36214
1.36145
1.36079
1.36016
1.35958
1.35903
1.35852
1.35805
1.35761
1.35722
1.35686
1.35654
1.35626
1.35602
1.35582
1.35566
1.35553
1.35546
1.35537
)
;
    }
    bottomWall
    {
        type            calculated;
        value           nonuniform List<scalar> 
449
(
0.00274239
0.00480862
0.00538169
0.00533362
0.00526187
0.00516527
0.00506737
0.00497582
0.00489181
0.004815
0.00474472
0.00468034
0.00462116
0.00456639
0.00451548
0.00446797
0.00442346
0.00438163
0.00434224
0.004305
0.00426979
0.00423637
0.00420464
0.00417442
0.00414559
0.00411804
0.00409166
0.00406636
0.00404205
0.00401867
0.00399614
0.0039744
0.00395341
0.00393309
0.00391343
0.00389437
0.00387589
0.00385792
0.00384047
0.00382348
0.00380695
0.00379083
0.00377513
0.00375979
0.00374484
0.00373023
0.00371597
0.00370202
0.0036884
0.00367507
0.00366204
0.00364928
0.0036368
0.00362456
0.00361259
0.00360084
0.00358933
0.00357802
0.00356694
0.00355605
0.00354537
0.00353486
0.00352455
0.0035144
0.00350443
0.00349462
0.00348497
0.00347547
0.00346613
0.00345692
0.00344787
0.00343894
0.00343016
0.00342149
0.00341297
0.00340455
0.00339627
0.00338808
0.00338004
0.00337208
0.00336426
0.00335651
0.0033489
0.00334135
0.00333395
0.00332659
0.00331937
0.00331221
0.00330517
0.00329818
0.00329132
0.0032845
0.0032778
0.00327114
0.00326461
0.00325811
0.00325172
0.00324537
0.00323913
0.00323292
0.00322682
0.00322075
0.00321478
0.00320884
0.00320301
0.0031972
0.00319148
0.0031858
0.0031802
0.00317463
0.00316914
0.00316369
0.00315831
0.00315296
0.0031477
0.00314246
0.00313729
0.00313216
0.00312709
0.00312205
0.00311708
0.00311213
0.00310726
0.0031024
0.00309761
0.00309284
0.00308814
0.00308346
0.00307884
0.00307425
0.00306971
0.00306519
0.00306073
0.00305629
0.00305191
0.00304754
0.00304323
0.00303894
0.00303471
0.00303049
0.00302632
0.00302217
0.00301807
0.00301399
0.00300995
0.00300593
0.00300196
0.002998
0.00299409
0.00299019
0.00298634
0.00298249
0.0029787
0.00297492
0.00297118
0.00296745
0.00296377
0.0029601
0.00295647
0.00295286
0.00294928
0.00294571
0.00294218
0.00293867
0.00293519
0.00293172
0.00292829
0.00292488
0.00292149
0.00291812
0.00291478
0.00291146
0.00290816
0.00290506
0.00290214
0.00289921
0.00289628
0.00289334
0.00289039
0.00288744
0.00288448
0.00288152
0.00287855
0.00287557
0.00287258
0.00286959
0.00286659
0.00286359
0.00286057
0.00285756
0.00285453
0.0028515
0.00284846
0.00284542
0.00284236
0.00283931
0.00283625
0.00283319
0.00283011
0.00282704
0.00282395
0.00282086
0.00281777
0.00281467
0.00281156
0.00280846
0.00280534
0.00280223
0.00279911
0.00279599
0.00279286
0.00278973
0.00278659
0.00278346
0.00278031
0.00277716
0.00277401
0.00277086
0.0027677
0.00276453
0.00276137
0.00275819
0.00275502
0.00275184
0.00274867
0.00274548
0.00274231
0.00273911
0.00273593
0.00273273
0.00272955
0.00272634
0.00272315
0.00271994
0.00271675
0.00271354
0.00271034
0.00270713
0.00270393
0.00270072
0.00269752
0.00269431
0.0026911
0.00268789
0.00268468
0.00268146
0.00267825
0.00267503
0.00267182
0.00266861
0.00266539
0.00266218
0.00265896
0.00265575
0.00265253
0.00264932
0.00264609
0.00264289
0.00263967
0.00263646
0.00263324
0.00263003
0.00262681
0.00262361
0.00262039
0.00261719
0.00261398
0.00261079
0.00260758
0.00260438
0.00260118
0.00259799
0.0025948
0.00259161
0.00258842
0.00258523
0.00258205
0.00257887
0.0025757
0.00257252
0.00256935
0.00256618
0.00256302
0.00255985
0.0025567
0.00255354
0.00255039
0.00254723
0.0025441
0.00254095
0.00253783
0.00253468
0.00253156
0.00252843
0.00252531
0.00252218
0.00251908
0.00251596
0.00251286
0.00250975
0.00250665
0.00250355
0.00250045
0.00249736
0.00249427
0.00249119
0.00248812
0.00248504
0.00248198
0.00247891
0.00247585
0.0024728
0.00246975
0.0024667
0.00246366
0.00246063
0.0024576
0.00245458
0.00245156
0.00244856
0.00244554
0.00244255
0.00243954
0.00243656
0.00243357
0.0024306
0.00242761
0.00242466
0.00242168
0.00241874
0.00241577
0.00241284
0.00240989
0.00240697
0.00240403
0.00240112
0.0023982
0.00239531
0.0023924
0.00238952
0.00238663
0.00238375
0.00238087
0.00237801
0.00237514
0.00237229
0.00236944
0.00236659
0.00236376
0.00236092
0.0023581
0.00235528
0.00235247
0.00234965
0.00234657
0.00234319
0.00233989
0.00233661
0.0023334
0.00233022
0.00232711
0.00232402
0.00232101
0.00231801
0.00231508
0.00231216
0.00230931
0.00230648
0.0023037
0.00230095
0.00229824
0.00229557
0.00229293
0.00229033
0.00228776
0.00228522
0.00228271
0.00228024
0.00227779
0.00227538
0.002273
0.00227064
0.00226832
0.00226601
0.00226374
0.00226149
0.00225928
0.00225708
0.00225492
0.00225276
0.00225065
0.00224854
0.00224647
0.0022444
0.00224238
0.00224036
0.00223837
0.00223639
0.00223445
0.00223251
0.0022306
0.00222871
0.00222684
0.00222498
0.00222315
0.00222133
0.00221953
0.00221775
0.00221599
0.00221424
0.00221252
0.0022108
0.0022091
0.00220742
0.00220576
0.0022041
0.00220247
0.00220084
0.00219924
0.00219763
0.00219606
0.00219448
0.00219295
0.00219138
0.00218988
0.00218833
0.00218687
0.00218534
0.00218391
0.00218239
0.00218099
0.00217949
0.00217812
0.00217662
0.00217528
0.0021738
0.00217247
0.00217102
0.00216969
0.00216827
0.00216694
0.00216558
0.0021642
0.00216297
0.00216143
0.0021605
0.00215851
0.00215829
0.00215577
)
;
    }
    symmetry
    {
        type            symmetryPlane;
    }
    frontAndBack
    {
        type            empty;
    }
}


// ************************************************************************* //
