/*--------------------------------*- C++ -*----------------------------------*\
| =========                 |                                                 |
| \\      /  F ield         | OpenFOAM: The Open Source CFD Toolbox           |
|  \\    /   O peration     | Version:  v2012                                 |
|   \\  /    A nd           | Website:  www.openfoam.com                      |
|    \\/     M anipulation  |                                                 |
\*---------------------------------------------------------------------------*/
FoamFile
{
    version     2.0;
    format      ascii;
    class       volScalarField;
    location    "33.5";
    object      k;
}
// * * * * * * * * * * * * * * * * * * * * * * * * * * * * * * * * * * * * * //

dimensions      [0 2 -2 0 0 0 0];


internalField   nonuniform List<scalar> 
209825
(
0.00102363
0.000929869
0.000856844
0.000802089
0.000761413
0.000730839
0.000707435
0.000689121
0.000674538
0.000662705
0.000652987
0.000644883
0.00063807
0.000632272
0.000627308
0.000623016
0.000619287
0.000616025
0.000613152
0.000610616
0.000608358
0.000606353
0.000604547
0.000602935
0.00060147
0.000600162
0.000598955
0.000597879
0.000596875
0.000595987
0.000595146
0.0005944
0.000593694
0.000593073
0.000592469
0.00059194
0.000591423
0.000590981
0.00059054
0.000590163
0.000589784
0.000589473
0.000589145
0.000588869
0.000588598
0.000588366
0.000588121
0.000587921
0.00058771
0.000587547
0.000587382
0.000587249
0.000587097
0.000586981
0.000586868
0.000586757
0.000586658
0.000586579
0.000586471
0.000586416
0.000586327
0.000586281
0.00058619
0.000586148
0.000586042
0.000586075
0.000586114
0.000586123
0.000586123
0.000586184
0.000586184
0.000586268
0.000586288
0.000586383
0.000586431
0.000586546
0.000586592
0.000586707
0.000586765
0.000586896
0.000586961
0.000587104
0.000587179
0.000587341
0.000587428
0.000587614
0.00058771
0.000587923
0.000588027
0.000588284
0.00058839
0.000588704
0.000588948
0.000598553
0.00063122
0.00157009
0.00102363
0.000929869
0.000856844
0.000802087
0.000761409
0.000730833
0.000707428
0.000689113
0.000674528
0.000662694
0.000652975
0.000644871
0.000638057
0.000632259
0.000627294
0.000623001
0.000619272
0.00061601
0.000613136
0.0006106
0.000608341
0.000606337
0.00060453
0.000602918
0.000601453
0.000600145
0.000598938
0.000597862
0.000596858
0.000595969
0.000595129
0.000594382
0.000593676
0.000593055
0.000592451
0.000591921
0.000591405
0.000590963
0.000590522
0.000590145
0.000589766
0.000589454
0.000589126
0.000588851
0.000588579
0.000588348
0.000588102
0.000587902
0.000587691
0.000587528
0.000587363
0.00058723
0.000587078
0.000586962
0.000586849
0.000586738
0.000586639
0.00058656
0.000586452
0.000586397
0.000586308
0.000586262
0.000586171
0.000586128
0.000586022
0.000586056
0.000586095
0.000586104
0.000586103
0.000586165
0.000586165
0.000586248
0.000586268
0.000586364
0.000586411
0.000586527
0.000586573
0.000586688
0.000586745
0.000586877
0.000586942
0.000587085
0.000587159
0.000587322
0.000587408
0.000587594
0.000587691
0.000587903
0.000588007
0.000588264
0.00058837
0.000588684
0.000588929
0.000598551
0.00063121
0.001571
0.00102363
0.000929871
0.000856841
0.000802078
0.000761391
0.000730809
0.000707397
0.000689076
0.000674487
0.000662649
0.000652927
0.000644819
0.000638004
0.000632203
0.000627236
0.000622942
0.000619212
0.000615948
0.000613073
0.000610536
0.000608277
0.000606271
0.000604464
0.000602851
0.000601385
0.000600077
0.000598869
0.000597793
0.000596788
0.000595899
0.000595058
0.000594311
0.000593605
0.000592983
0.000592379
0.00059185
0.000591332
0.000590891
0.000590449
0.000590072
0.000589693
0.000589381
0.000589053
0.000588777
0.000588506
0.000588274
0.000588028
0.000587828
0.000587617
0.000587454
0.000587289
0.000587155
0.000587003
0.000586888
0.000586775
0.000586664
0.000586564
0.000586485
0.000586377
0.000586322
0.000586233
0.000586187
0.000586096
0.000586053
0.000585947
0.000585981
0.000586019
0.000586028
0.000586028
0.000586089
0.000586089
0.000586172
0.000586192
0.000586288
0.000586335
0.000586451
0.000586496
0.000586611
0.000586669
0.0005868
0.000586865
0.000587008
0.000587082
0.000587244
0.000587331
0.000587517
0.000587614
0.000587826
0.00058793
0.000588187
0.000588292
0.000588607
0.000588851
0.00059851
0.000631149
0.0015728
0.00102363
0.000929873
0.000856836
0.000802061
0.000761361
0.000730766
0.000707344
0.000689014
0.000674418
0.000662573
0.000652845
0.000644733
0.000637914
0.000632109
0.00062714
0.000622843
0.00061911
0.000615844
0.000612967
0.000610428
0.000608168
0.000606161
0.000604352
0.000602738
0.000601272
0.000599962
0.000598754
0.000597677
0.000596671
0.000595782
0.00059494
0.000594193
0.000593486
0.000592863
0.000592259
0.000591729
0.000591211
0.000590769
0.000590328
0.00058995
0.000589571
0.000589258
0.00058893
0.000588654
0.000588382
0.00058815
0.000587904
0.000587704
0.000587493
0.000587329
0.000587164
0.000587031
0.000586878
0.000586762
0.000586649
0.000586538
0.000586439
0.000586359
0.000586251
0.000586196
0.000586107
0.000586061
0.00058597
0.000585927
0.000585821
0.000585854
0.000585892
0.000585901
0.0005859
0.000585961
0.000585962
0.000586045
0.000586064
0.00058616
0.000586207
0.000586322
0.000586368
0.000586483
0.00058654
0.000586671
0.000586736
0.000586879
0.000586953
0.000587115
0.000587202
0.000587388
0.000587484
0.000587696
0.0005878
0.000588056
0.000588162
0.000588476
0.000588721
0.000598436
0.000631043
0.0015749
0.00102364
0.000929876
0.000856829
0.000802037
0.000761319
0.000730707
0.00070727
0.000688927
0.00067432
0.000662466
0.00065273
0.000644612
0.000637786
0.000631977
0.000627003
0.000622703
0.000618966
0.000615697
0.000612818
0.000610277
0.000608014
0.000606005
0.000604195
0.00060258
0.000601111
0.000599801
0.000598591
0.000597513
0.000596507
0.000595616
0.000594774
0.000594025
0.000593318
0.000592695
0.00059209
0.000591559
0.000591041
0.000590598
0.000590156
0.000589778
0.000589398
0.000589085
0.000588757
0.00058848
0.000588208
0.000587976
0.00058773
0.000587529
0.000587318
0.000587154
0.000586988
0.000586855
0.000586702
0.000586586
0.000586473
0.000586361
0.000586262
0.000586182
0.000586074
0.000586018
0.000585929
0.000585883
0.000585792
0.000585749
0.000585642
0.000585676
0.000585714
0.000585721
0.000585721
0.000585782
0.000585782
0.000585864
0.000585884
0.000585979
0.000586026
0.000586141
0.000586187
0.000586302
0.000586359
0.000586489
0.000586555
0.000586697
0.000586771
0.000586933
0.00058702
0.000587205
0.000587301
0.000587513
0.000587617
0.000587873
0.000587978
0.000588292
0.000588538
0.00059833
0.000630893
0.00157726
0.00102364
0.000929879
0.000856821
0.000802007
0.000761265
0.00073063
0.000707173
0.000688814
0.000674193
0.000662328
0.000652582
0.000644454
0.000637621
0.000631806
0.000626826
0.000622521
0.00061878
0.000615508
0.000612625
0.000610081
0.000607815
0.000605804
0.000603991
0.000602374
0.000600904
0.000599591
0.00059838
0.0005973
0.000596293
0.000595401
0.000594558
0.000593808
0.0005931
0.000592476
0.00059187
0.000591339
0.00059082
0.000590377
0.000589933
0.000589555
0.000589175
0.000588861
0.000588532
0.000588255
0.000587982
0.00058775
0.000587503
0.000587302
0.000587091
0.000586927
0.00058676
0.000586627
0.000586474
0.000586357
0.000586244
0.000586132
0.000586032
0.000585952
0.000585844
0.000585788
0.000585699
0.000585653
0.000585562
0.000585518
0.000585411
0.000585444
0.000585482
0.000585489
0.000585488
0.000585549
0.000585549
0.000585631
0.00058565
0.000585745
0.000585792
0.000585907
0.000585952
0.000586067
0.000586124
0.000586254
0.000586319
0.000586461
0.000586535
0.000586697
0.000586783
0.000586968
0.000587064
0.000587275
0.000587379
0.000587635
0.00058774
0.000588053
0.0005883
0.000598193
0.000630698
0.00157984
0.00102364
0.000929884
0.00085681
0.000801969
0.000761198
0.000730536
0.000707055
0.000688675
0.000674036
0.000662157
0.000652398
0.00064426
0.000637418
0.000631595
0.000626609
0.000622297
0.000618551
0.000615273
0.000612387
0.000609839
0.00060757
0.000605555
0.00060374
0.00060212
0.000600648
0.000599333
0.00059812
0.000597039
0.00059603
0.000595136
0.000594292
0.000593541
0.000592831
0.000592206
0.000591599
0.000591067
0.000590547
0.000590103
0.000589659
0.00058928
0.000588899
0.000588585
0.000588255
0.000587978
0.000587704
0.000587471
0.000587224
0.000587023
0.000586811
0.000586646
0.000586479
0.000586345
0.000586192
0.000586075
0.000585961
0.00058585
0.000585749
0.000585669
0.00058556
0.000585504
0.000585415
0.000585369
0.000585277
0.000585234
0.000585127
0.000585159
0.000585196
0.000585203
0.000585202
0.000585261
0.000585261
0.000585343
0.000585362
0.000585457
0.000585503
0.000585618
0.000585663
0.000585777
0.000585834
0.000585964
0.000586029
0.000586171
0.000586244
0.000586405
0.000586491
0.000586676
0.000586772
0.000586983
0.000587086
0.000587341
0.000587446
0.000587759
0.000588007
0.000598026
0.000630459
0.0015825
0.00102365
0.00092989
0.000856797
0.000801924
0.000761118
0.000730423
0.000706914
0.000688509
0.00067385
0.000661953
0.00065218
0.000644029
0.000637176
0.000631343
0.000626349
0.00062203
0.000618278
0.000614995
0.000612103
0.00060955
0.000607277
0.000605259
0.00060344
0.000601818
0.000600342
0.000599026
0.00059781
0.000596727
0.000595716
0.000594821
0.000593974
0.000593222
0.00059251
0.000591884
0.000591276
0.000590743
0.000590222
0.000589777
0.000589332
0.000588952
0.00058857
0.000588255
0.000587925
0.000587647
0.000587372
0.000587139
0.000586891
0.000586689
0.000586477
0.000586311
0.000586144
0.00058601
0.000585856
0.000585739
0.000585624
0.000585513
0.000585412
0.000585331
0.000585222
0.000585166
0.000585076
0.00058503
0.000584938
0.000584895
0.000584787
0.000584818
0.000584854
0.000584861
0.00058486
0.000584918
0.000584918
0.000585
0.000585018
0.000585113
0.000585159
0.000585273
0.000585317
0.000585432
0.000585488
0.000585618
0.000585682
0.000585824
0.000585897
0.000586058
0.000586144
0.000586328
0.000586423
0.000586633
0.000586737
0.000586991
0.000587096
0.000587408
0.000587658
0.000597827
0.000630175
0.00158507
0.00102365
0.000929896
0.000856782
0.000801873
0.000761026
0.000730293
0.00070675
0.000688317
0.000673634
0.000661716
0.000651926
0.000643761
0.000636895
0.000631051
0.000626047
0.000621719
0.00061796
0.00061467
0.000611772
0.000609214
0.000606936
0.000604914
0.000603092
0.000601465
0.000599987
0.000598667
0.000597449
0.000596363
0.00059535
0.000594453
0.000593604
0.00059285
0.000592137
0.00059151
0.0005909
0.000590365
0.000589843
0.000589397
0.000588951
0.00058857
0.000588187
0.000587871
0.00058754
0.000587261
0.000586986
0.000586752
0.000586503
0.000586301
0.000586087
0.000585922
0.000585754
0.000585619
0.000585465
0.000585347
0.000585232
0.00058512
0.000585018
0.000584938
0.000584828
0.000584772
0.000584681
0.000584635
0.000584543
0.000584499
0.000584391
0.000584421
0.000584457
0.000584463
0.000584461
0.000584519
0.000584519
0.0005846
0.000584618
0.000584712
0.000584757
0.000584871
0.000584915
0.000585029
0.000585085
0.000585215
0.000585279
0.00058542
0.000585493
0.000585653
0.000585738
0.000585922
0.000586017
0.000586227
0.00058633
0.000586584
0.000586687
0.000586999
0.000587251
0.000597599
0.000629845
0.00158724
0.00102365
0.000929903
0.000856766
0.000801814
0.000760921
0.000730144
0.000706563
0.000688098
0.000673387
0.000661446
0.000651636
0.000643453
0.000636573
0.000630716
0.000625701
0.000621364
0.000617596
0.000614298
0.000611394
0.00060883
0.000606547
0.00060452
0.000602693
0.000601062
0.00059958
0.000598257
0.000597036
0.000595947
0.000594932
0.000594032
0.000593181
0.000592425
0.00059171
0.000591081
0.00059047
0.000589934
0.00058941
0.000588962
0.000588515
0.000588133
0.000587749
0.000587432
0.0005871
0.00058682
0.000586544
0.000586309
0.00058606
0.000585857
0.000585642
0.000585476
0.000585307
0.000585171
0.000585017
0.000584898
0.000584783
0.000584671
0.000584568
0.000584487
0.000584377
0.000584321
0.00058423
0.000584183
0.000584091
0.000584047
0.000583938
0.000583968
0.000584002
0.000584007
0.000584005
0.000584062
0.000584062
0.000584143
0.00058416
0.000584253
0.000584298
0.000584412
0.000584455
0.000584569
0.000584624
0.000584753
0.000584817
0.000584958
0.00058503
0.000585189
0.000585275
0.000585458
0.000585552
0.000585761
0.000585864
0.000586117
0.00058622
0.000586531
0.000586785
0.00059734
0.00062947
0.0015886
0.00102366
0.000929912
0.000856747
0.000801749
0.000760803
0.000729977
0.000706353
0.000687851
0.000673109
0.000661142
0.000651309
0.000643107
0.000636211
0.000630339
0.000625312
0.000620964
0.000617186
0.00061388
0.000610968
0.000608397
0.000606108
0.000604075
0.000602243
0.000600608
0.000599122
0.000597795
0.00059657
0.000595478
0.00059446
0.000593557
0.000592704
0.000591946
0.000591229
0.000590597
0.000589984
0.000589446
0.000588921
0.000588472
0.000588023
0.000587639
0.000587254
0.000586936
0.000586603
0.000586322
0.000586045
0.000585809
0.000585559
0.000585355
0.00058514
0.000584973
0.000584803
0.000584667
0.000584512
0.000584392
0.000584276
0.000584163
0.00058406
0.000583979
0.000583869
0.000583812
0.00058372
0.000583673
0.000583581
0.000583537
0.000583427
0.000583455
0.000583489
0.000583493
0.000583491
0.000583546
0.000583546
0.000583626
0.000583642
0.000583736
0.00058378
0.000583893
0.000583936
0.000584049
0.000584104
0.000584232
0.000584296
0.000584436
0.000584508
0.000584667
0.000584752
0.000584934
0.000585028
0.000585236
0.000585338
0.000585591
0.000585693
0.000586003
0.00058626
0.000597052
0.000629048
0.00158859
0.00102366
0.000929921
0.000856727
0.000801676
0.000760672
0.000729791
0.000706119
0.000687576
0.000672799
0.000660803
0.000650945
0.000642722
0.000635807
0.000629919
0.000624878
0.000620517
0.000616729
0.000613413
0.000610492
0.000607914
0.000605618
0.000603579
0.000601741
0.000600101
0.00059861
0.000597279
0.000596051
0.000594955
0.000593933
0.000593028
0.000592172
0.000591411
0.000590691
0.000590058
0.000589443
0.000588903
0.000588376
0.000587925
0.000587475
0.000587089
0.000586702
0.000586383
0.000586048
0.000585766
0.000585488
0.000585251
0.000585
0.000584795
0.000584579
0.000584411
0.00058424
0.000584104
0.000583948
0.000583828
0.000583711
0.000583598
0.000583494
0.000583412
0.000583301
0.000583244
0.000583152
0.000583105
0.000583012
0.000582967
0.000582857
0.000582884
0.000582916
0.00058292
0.000582917
0.000582971
0.000582971
0.00058305
0.000583065
0.000583158
0.000583202
0.000583314
0.000583357
0.000583469
0.000583524
0.000583651
0.000583714
0.000583853
0.000583925
0.000584083
0.000584168
0.000584349
0.000584443
0.00058465
0.000584751
0.000585003
0.000585104
0.000585414
0.000585674
0.000596735
0.000628579
0.0015867
0.00102367
0.000929932
0.000856705
0.000801597
0.000760529
0.000729587
0.000705862
0.000687273
0.000672458
0.000660429
0.000650543
0.000642297
0.000635361
0.000629456
0.000624398
0.000620024
0.000616224
0.000612897
0.000609967
0.00060738
0.000605076
0.00060303
0.000601187
0.000599541
0.000598045
0.000596709
0.000595476
0.000594377
0.000593351
0.000592443
0.000591584
0.00059082
0.000590097
0.000589461
0.000588844
0.000588302
0.000587773
0.00058732
0.000586868
0.000586481
0.000586092
0.000585771
0.000585435
0.000585152
0.000584872
0.000584635
0.000584382
0.000584177
0.000583959
0.00058379
0.000583618
0.000583481
0.000583324
0.000583203
0.000583085
0.000582972
0.000582867
0.000582785
0.000582673
0.000582615
0.000582523
0.000582475
0.000582382
0.000582337
0.000582226
0.000582252
0.000582282
0.000582286
0.000582282
0.000582334
0.000582334
0.000582413
0.000582427
0.000582519
0.000582562
0.000582674
0.000582716
0.000582827
0.000582882
0.000583008
0.000583071
0.00058321
0.000583281
0.000583438
0.000583522
0.000583702
0.000583795
0.000584002
0.000584102
0.000584353
0.000584453
0.000584763
0.000585026
0.000596387
0.000628062
0.00158292
0.00102368
0.000929943
0.000856681
0.00080151
0.000760372
0.000729364
0.000705581
0.000686942
0.000672085
0.00066002
0.000650104
0.000641831
0.000634872
0.000628947
0.000623873
0.000619484
0.00061567
0.000612332
0.000609392
0.000606795
0.000604483
0.000602429
0.000600579
0.000598927
0.000597425
0.000596084
0.000594846
0.000593743
0.000592713
0.0005918
0.000590938
0.000590171
0.000589446
0.000588807
0.000588187
0.000587642
0.000587111
0.000586656
0.000586202
0.000585813
0.000585423
0.0005851
0.000584763
0.000584478
0.000584197
0.000583958
0.000583704
0.000583497
0.000583279
0.000583109
0.000582936
0.000582797
0.00058264
0.000582518
0.000582399
0.000582285
0.000582179
0.000582097
0.000581985
0.000581926
0.000581833
0.000581785
0.000581691
0.000581645
0.000581534
0.000581558
0.000581587
0.00058159
0.000581585
0.000581636
0.000581636
0.000581713
0.000581727
0.000581818
0.00058186
0.000581971
0.000582013
0.000582123
0.000582177
0.000582303
0.000582365
0.000582503
0.000582573
0.000582729
0.000582813
0.000582992
0.000583085
0.00058329
0.00058339
0.00058364
0.000583739
0.000584047
0.000584315
0.00059601
0.000627496
0.00157729
0.00102368
0.000929956
0.000856655
0.000801417
0.000760203
0.000729123
0.000705276
0.000686583
0.000671679
0.000659575
0.000649626
0.000641324
0.000634341
0.000628394
0.000623301
0.000618896
0.000615067
0.000611716
0.000608764
0.000606157
0.000603836
0.000601774
0.000599916
0.000598257
0.000596749
0.000595403
0.00059416
0.000593051
0.000592017
0.000591101
0.000590234
0.000589464
0.000588735
0.000588093
0.00058747
0.000586924
0.00058639
0.000585932
0.000585476
0.000585085
0.000584693
0.000584369
0.00058403
0.000583743
0.00058346
0.00058322
0.000582965
0.000582757
0.000582537
0.000582366
0.000582192
0.000582052
0.000581893
0.000581771
0.000581651
0.000581536
0.000581429
0.000581347
0.000581233
0.000581174
0.00058108
0.000581032
0.000580938
0.000580892
0.000580779
0.000580801
0.000580829
0.000580831
0.000580826
0.000580874
0.000580874
0.00058095
0.000580963
0.000581054
0.000581095
0.000581205
0.000581246
0.000581356
0.000581409
0.000581534
0.000581595
0.000581732
0.000581802
0.000581957
0.00058204
0.000582218
0.00058231
0.000582514
0.000582614
0.000582862
0.00058296
0.000583268
0.00058354
0.000595603
0.00062688
0.00156983
0.00102369
0.000929969
0.000856629
0.000801317
0.000760021
0.000728863
0.000704947
0.000686194
0.000671241
0.000659094
0.000649108
0.000640775
0.000633765
0.000627796
0.000622682
0.000618259
0.000614415
0.000611049
0.000608085
0.000605467
0.000603135
0.000601065
0.000599198
0.000597532
0.000596017
0.000594664
0.000593416
0.000592302
0.000591263
0.000590342
0.000589472
0.000588698
0.000587965
0.00058732
0.000586694
0.000586145
0.000585608
0.000585148
0.000584689
0.000584296
0.000583902
0.000583576
0.000583235
0.000582946
0.000582662
0.00058242
0.000582164
0.000581954
0.000581733
0.00058156
0.000581385
0.000581244
0.000581084
0.000580961
0.00058084
0.000580724
0.000580616
0.000580533
0.000580419
0.000580359
0.000580264
0.000580215
0.000580121
0.000580074
0.000579961
0.000579981
0.000580007
0.000580008
0.000580002
0.000580048
0.000580048
0.000580124
0.000580135
0.000580225
0.000580265
0.000580374
0.000580414
0.000580523
0.000580575
0.0005807
0.000580761
0.000580897
0.000580966
0.00058112
0.000581202
0.000581379
0.00058147
0.000581673
0.000581772
0.000582019
0.000582116
0.000582422
0.0005827
0.000595164
0.000626211
0.0015606
0.0010237
0.000929984
0.0008566
0.00080121
0.000759826
0.000728583
0.000704593
0.000685777
0.00067077
0.000658576
0.000648552
0.000640185
0.000633146
0.000627151
0.000622016
0.000617573
0.000613711
0.000610331
0.000607353
0.000604723
0.00060238
0.000600299
0.000598424
0.00059675
0.000595228
0.000593868
0.000592613
0.000591494
0.00059045
0.000589524
0.000588649
0.000587871
0.000587135
0.000586486
0.000585857
0.000585304
0.000584764
0.000584302
0.000583841
0.000583445
0.000583048
0.00058272
0.000582377
0.000582087
0.0005818
0.000581557
0.000581299
0.000581088
0.000580866
0.000580691
0.000580514
0.000580372
0.000580211
0.000580086
0.000579964
0.000579848
0.000579739
0.000579655
0.00057954
0.000579479
0.000579383
0.000579334
0.000579239
0.000579192
0.000579078
0.000579096
0.00057912
0.00057912
0.000579113
0.000579157
0.000579157
0.000579231
0.000579242
0.000579331
0.00057937
0.000579478
0.000579517
0.000579625
0.000579676
0.0005798
0.00057986
0.000579995
0.000580063
0.000580216
0.000580297
0.000580473
0.000580564
0.000580765
0.000580863
0.000581109
0.000581205
0.00058151
0.000581794
0.000594693
0.000625489
0.00154963
0.00102371
0.00093
0.00085657
0.000801097
0.000759618
0.000728286
0.000704216
0.000685331
0.000670265
0.000658022
0.000647955
0.000639552
0.000632482
0.000626459
0.0006213
0.000616836
0.000612956
0.00060956
0.000606567
0.000603924
0.00060157
0.000599478
0.000597593
0.00059591
0.00059438
0.000593013
0.000591752
0.000590626
0.000589576
0.000588645
0.000587766
0.000586983
0.000586243
0.00058559
0.000584957
0.000584401
0.000583858
0.000583393
0.000582929
0.000582531
0.000582132
0.000581801
0.000581456
0.000581164
0.000580875
0.00058063
0.00058037
0.000580158
0.000579934
0.000579758
0.000579579
0.000579436
0.000579274
0.000579147
0.000579024
0.000578907
0.000578796
0.000578712
0.000578596
0.000578534
0.000578437
0.000578388
0.000578292
0.000578244
0.00057813
0.000578145
0.000578167
0.000578167
0.000578158
0.0005782
0.0005782
0.000578272
0.000578282
0.00057837
0.000578407
0.000578515
0.000578553
0.00057866
0.00057871
0.000578833
0.000578892
0.000579026
0.000579094
0.000579245
0.000579326
0.0005795
0.00057959
0.00057979
0.000579887
0.000580131
0.000580225
0.000580529
0.000580821
0.000594189
0.00062471
0.00153698
0.00102372
0.000930017
0.000856539
0.000800978
0.000759398
0.000727969
0.000703814
0.000684856
0.000669728
0.000657431
0.000647319
0.000638876
0.000631773
0.000625721
0.000620536
0.00061605
0.00061215
0.000608735
0.000605727
0.00060307
0.000600703
0.0005986
0.000596705
0.000595012
0.000593473
0.000592099
0.00059083
0.000589698
0.000588642
0.000587705
0.000586821
0.000586033
0.000585288
0.000584632
0.000583995
0.000583435
0.000582889
0.00058242
0.000581953
0.000581553
0.00058115
0.000580817
0.00058047
0.000580175
0.000579884
0.000579638
0.000579376
0.000579162
0.000578936
0.000578758
0.000578578
0.000578433
0.00057827
0.000578142
0.000578017
0.0005779
0.000577787
0.000577702
0.000577585
0.000577522
0.000577425
0.000577374
0.000577278
0.00057723
0.000577115
0.000577127
0.000577146
0.000577146
0.000577136
0.000577176
0.000577175
0.000577246
0.000577254
0.000577341
0.000577377
0.000577484
0.000577521
0.000577627
0.000577676
0.000577797
0.000577856
0.000577989
0.000578056
0.000578206
0.000578285
0.000578458
0.000578548
0.000578746
0.000578842
0.000579085
0.000579177
0.00057948
0.000579779
0.000593651
0.000623871
0.00152272
0.00102373
0.000930036
0.000856507
0.000800852
0.000759166
0.000727634
0.000703388
0.000684351
0.000669156
0.000656803
0.000646642
0.000638158
0.000631018
0.000624935
0.000619723
0.000615212
0.000611291
0.000607857
0.000604832
0.00060216
0.000599779
0.000597664
0.000595758
0.000594055
0.000592507
0.000591124
0.000589848
0.000588709
0.000587646
0.000586703
0.000585813
0.000585021
0.00058427
0.000583609
0.000582968
0.000582405
0.000581855
0.000581383
0.000580913
0.000580509
0.000580104
0.000579768
0.000579418
0.000579122
0.000578828
0.000578579
0.000578315
0.0005781
0.000577872
0.000577692
0.00057751
0.000577364
0.000577199
0.00057707
0.000576943
0.000576825
0.000576711
0.000576625
0.000576507
0.000576443
0.000576344
0.000576293
0.000576196
0.000576147
0.000576032
0.000576041
0.000576058
0.000576058
0.000576046
0.000576083
0.000576082
0.000576151
0.000576158
0.000576244
0.000576279
0.000576384
0.00057642
0.000576525
0.000576573
0.000576693
0.000576751
0.000576882
0.000576948
0.000577097
0.000577176
0.000577347
0.000577435
0.000577632
0.000577727
0.000577968
0.000578059
0.00057836
0.000578668
0.000593075
0.000622969
0.00150691
0.00102374
0.000930055
0.000856474
0.00080072
0.000758921
0.00072728
0.000702938
0.000683818
0.000668552
0.000656137
0.000645925
0.000637396
0.000630217
0.0006241
0.000618859
0.000614322
0.000610379
0.000606925
0.000603882
0.000601193
0.000598798
0.00059667
0.000594751
0.000593038
0.00059148
0.000590088
0.000588804
0.000587657
0.000586587
0.000585638
0.000584742
0.000583944
0.000583189
0.000582523
0.000581877
0.00058131
0.000580756
0.00058028
0.000579806
0.0005794
0.000578991
0.000578652
0.0005783
0.000578001
0.000577705
0.000577454
0.000577188
0.00057697
0.00057674
0.000576559
0.000576374
0.000576227
0.00057606
0.00057593
0.000575802
0.000575682
0.000575566
0.00057548
0.00057536
0.000575295
0.000575195
0.000575144
0.000575046
0.000574996
0.000574881
0.000574886
0.0005749
0.0005749
0.000574887
0.000574921
0.00057492
0.000574987
0.000574993
0.000575077
0.00057511
0.000575214
0.000575249
0.000575353
0.0005754
0.000575519
0.000575576
0.000575705
0.000575771
0.000575917
0.000575995
0.000576165
0.000576252
0.000576448
0.000576541
0.000576781
0.00057687
0.00057717
0.000577487
0.00059246
0.000622
0.00148963
0.00102375
0.000930076
0.000856439
0.000800582
0.000758664
0.000726908
0.000702463
0.000683254
0.000667913
0.000655434
0.000645166
0.00063659
0.00062937
0.000623218
0.000617945
0.000613381
0.000609413
0.000605937
0.000602875
0.000600169
0.000597758
0.000595616
0.000593685
0.00059196
0.000590392
0.00058899
0.000587697
0.000586542
0.000585465
0.000584509
0.000583607
0.000582803
0.000582042
0.000581371
0.000580721
0.000580149
0.000579591
0.000579111
0.000578633
0.000578223
0.000577812
0.00057747
0.000577114
0.000576813
0.000576514
0.00057626
0.000575992
0.000575773
0.00057554
0.000575357
0.00057517
0.000575021
0.000574853
0.00057472
0.00057459
0.00057447
0.000574353
0.000574265
0.000574144
0.000574078
0.000573977
0.000573925
0.000573825
0.000573776
0.00057366
0.000573661
0.000573673
0.000573672
0.000573657
0.000573689
0.000573687
0.000573752
0.000573756
0.00057384
0.000573871
0.000573973
0.000574007
0.00057411
0.000574156
0.000574273
0.000574329
0.000574457
0.000574521
0.000574667
0.000574744
0.000574912
0.000574998
0.000575191
0.000575284
0.000575521
0.000575609
0.000575907
0.000576234
0.000591803
0.000620958
0.00147095
0.00102376
0.000930098
0.000856404
0.000800438
0.000758395
0.000726518
0.000701965
0.000682662
0.000667241
0.000654693
0.000644367
0.00063574
0.000628477
0.000622286
0.00061698
0.000612387
0.000608393
0.000604895
0.000601812
0.000599087
0.00059666
0.000594503
0.000592559
0.000590822
0.000589242
0.00058783
0.000586527
0.000585364
0.000584279
0.000583315
0.000582406
0.000581596
0.000580829
0.000580153
0.000579497
0.000578921
0.000578358
0.000577874
0.000577393
0.000576979
0.000576564
0.000576219
0.00057586
0.000575556
0.000575254
0.000574998
0.000574727
0.000574506
0.000574271
0.000574086
0.000573896
0.000573745
0.000573575
0.000573441
0.000573309
0.000573188
0.000573068
0.00057298
0.000572858
0.00057279
0.000572688
0.000572635
0.000572535
0.000572484
0.000572368
0.000572365
0.000572375
0.000572373
0.000572357
0.000572385
0.000572383
0.000572445
0.000572449
0.00057253
0.00057256
0.000572661
0.000572693
0.000572795
0.000572839
0.000572955
0.00057301
0.000573137
0.0005732
0.000573343
0.000573419
0.000573585
0.00057367
0.000573862
0.000573953
0.000574189
0.000574274
0.00057457
0.000574909
0.000591096
0.000619842
0.00145097
0.00102377
0.000930121
0.000856369
0.000800289
0.000758114
0.000726109
0.000701442
0.00068204
0.000666534
0.000653915
0.000643526
0.000634846
0.000627536
0.000621305
0.000615964
0.00061134
0.000607319
0.000603796
0.000600691
0.000597947
0.000595503
0.000593329
0.000591371
0.000589621
0.000588029
0.000586606
0.000585294
0.000584121
0.000583028
0.000582056
0.00058114
0.000580323
0.00057955
0.000578868
0.000578207
0.000577626
0.000577058
0.00057657
0.000576084
0.000575667
0.000575247
0.000574899
0.000574537
0.000574229
0.000573924
0.000573666
0.000573393
0.000573169
0.000572932
0.000572744
0.000572552
0.000572399
0.000572227
0.000572091
0.000571957
0.000571835
0.000571713
0.000571624
0.0005715
0.000571431
0.000571327
0.000571273
0.000571172
0.000571121
0.000571005
0.000570998
0.000571005
0.000571003
0.000570984
0.00057101
0.000571007
0.000571066
0.000571069
0.000571149
0.000571176
0.000571275
0.000571306
0.000571406
0.00057145
0.000571564
0.000571617
0.000571743
0.000571805
0.000571946
0.000572021
0.000572185
0.000572269
0.000572459
0.000572549
0.000572782
0.000572866
0.00057316
0.000573511
0.000590332
0.000618647
0.00142978
0.00102378
0.000930146
0.000856332
0.000800135
0.000757822
0.000725683
0.000700896
0.00068139
0.000665794
0.000653098
0.000642644
0.000633907
0.000626549
0.000620275
0.000614897
0.00061024
0.000606189
0.00060264
0.000599513
0.000596748
0.000594285
0.000592095
0.000590121
0.000588357
0.000586753
0.000585318
0.000583995
0.000582813
0.000581711
0.000580731
0.000579807
0.000578983
0.000578203
0.000577515
0.000576848
0.000576262
0.000575689
0.000575196
0.000574706
0.000574285
0.000573861
0.000573509
0.000573144
0.000572833
0.000572524
0.000572263
0.000571987
0.000571761
0.000571521
0.000571331
0.000571136
0.000570981
0.000570807
0.00057067
0.000570533
0.00057041
0.000570286
0.000570195
0.00057007
0.00057
0.000569894
0.000569839
0.000569737
0.000569685
0.000569569
0.000569558
0.000569563
0.000569559
0.000569538
0.000569561
0.000569557
0.000569613
0.000569615
0.000569693
0.000569719
0.000569816
0.000569845
0.000569944
0.000569986
0.000570098
0.000570151
0.000570275
0.000570335
0.000570475
0.000570548
0.000570711
0.000570793
0.000570981
0.000571069
0.000571301
0.000571382
0.000571675
0.000572038
0.000589501
0.000617372
0.00140746
0.00102379
0.000930171
0.000856295
0.000799975
0.000757519
0.00072524
0.000700326
0.00068071
0.000665021
0.000652244
0.000641721
0.000632924
0.000625514
0.000619195
0.000613778
0.000609086
0.000605004
0.000601428
0.000598277
0.00059549
0.000593007
0.000590799
0.000588809
0.000587031
0.000585413
0.000583966
0.000582632
0.00058144
0.000580328
0.000579339
0.000578407
0.000577576
0.000576788
0.000576094
0.000575421
0.000574829
0.000574251
0.000573753
0.000573258
0.000572832
0.000572405
0.000572048
0.000571679
0.000571365
0.000571053
0.000570789
0.00057051
0.000570281
0.000570039
0.000569846
0.000569648
0.000569491
0.000569315
0.000569175
0.000569037
0.000568912
0.000568785
0.000568693
0.000568566
0.000568495