/*--------------------------------*- C++ -*----------------------------------*\
| =========                 |                                                 |
| \\      /  F ield         | OpenFOAM: The Open Source CFD Toolbox           |
|  \\    /   O peration     | Version:  v2012                                 |
|   \\  /    A nd           | Website:  www.openfoam.com                      |
|    \\/     M anipulation  |                                                 |
\*---------------------------------------------------------------------------*/
FoamFile
{
    version     2.0;
    format      ascii;
    class       volScalarField;
    location    "33.5";
    object      nut;
}
// * * * * * * * * * * * * * * * * * * * * * * * * * * * * * * * * * * * * * //

dimensions      [0 2 -1 0 0 0 0];


internalField   nonuniform List<scalar> 
209825
(
1.23918e-07
1.22937e-07
1.22369e-07
1.22179e-07
1.22244e-07
1.22428e-07
1.22673e-07
1.22925e-07
1.23184e-07
1.23422e-07
1.23655e-07
1.23862e-07
1.24064e-07
1.2424e-07
1.24413e-07
1.24562e-07
1.2471e-07
1.24837e-07
1.24964e-07
1.25072e-07
1.25182e-07
1.25275e-07
1.2537e-07
1.2545e-07
1.25533e-07
1.25602e-07
1.25675e-07
1.25735e-07
1.25799e-07
1.25852e-07
1.2591e-07
1.25955e-07
1.26007e-07
1.26049e-07
1.26094e-07
1.2613e-07
1.2617e-07
1.26204e-07
1.26241e-07
1.2627e-07
1.26303e-07
1.26332e-07
1.26362e-07
1.26385e-07
1.26415e-07
1.26437e-07
1.26462e-07
1.26481e-07
1.26503e-07
1.26522e-07
1.26543e-07
1.2656e-07
1.26579e-07
1.26596e-07
1.26614e-07
1.26628e-07
1.26644e-07
1.2666e-07
1.26668e-07
1.26681e-07
1.26687e-07
1.26701e-07
1.26703e-07
1.2671e-07
1.26708e-07
1.2673e-07
1.26756e-07
1.26767e-07
1.2678e-07
1.268e-07
1.26813e-07
1.26838e-07
1.26855e-07
1.26881e-07
1.26904e-07
1.26932e-07
1.2695e-07
1.26974e-07
1.26988e-07
1.27012e-07
1.27026e-07
1.27048e-07
1.27064e-07
1.27083e-07
1.27102e-07
1.2712e-07
1.27141e-07
1.27161e-07
1.2718e-07
1.27206e-07
1.27227e-07
1.27256e-07
1.27292e-07
1.28494e-07
1.32162e-07
1.38392e-08
1.23918e-07
1.22937e-07
1.22368e-07
1.22179e-07
1.22244e-07
1.22427e-07
1.22673e-07
1.22925e-07
1.23184e-07
1.23422e-07
1.23655e-07
1.23862e-07
1.24064e-07
1.2424e-07
1.24413e-07
1.24562e-07
1.2471e-07
1.24837e-07
1.24964e-07
1.25072e-07
1.25182e-07
1.25275e-07
1.2537e-07
1.2545e-07
1.25533e-07
1.25602e-07
1.25675e-07
1.25735e-07
1.25799e-07
1.25852e-07
1.2591e-07
1.25955e-07
1.26007e-07
1.26049e-07
1.26095e-07
1.2613e-07
1.2617e-07
1.26204e-07
1.26241e-07
1.2627e-07
1.26303e-07
1.26332e-07
1.26362e-07
1.26385e-07
1.26415e-07
1.26437e-07
1.26462e-07
1.26481e-07
1.26503e-07
1.26522e-07
1.26544e-07
1.2656e-07
1.26579e-07
1.26596e-07
1.26614e-07
1.26628e-07
1.26644e-07
1.2666e-07
1.26668e-07
1.26681e-07
1.26687e-07
1.26701e-07
1.26703e-07
1.2671e-07
1.26708e-07
1.2673e-07
1.26756e-07
1.26767e-07
1.2678e-07
1.268e-07
1.26813e-07
1.26838e-07
1.26855e-07
1.26882e-07
1.26904e-07
1.26932e-07
1.2695e-07
1.26974e-07
1.26988e-07
1.27012e-07
1.27026e-07
1.27048e-07
1.27064e-07
1.27083e-07
1.27102e-07
1.2712e-07
1.27141e-07
1.27161e-07
1.2718e-07
1.27207e-07
1.27227e-07
1.27256e-07
1.27292e-07
1.28496e-07
1.32164e-07
1.42617e-08
1.23918e-07
1.22937e-07
1.22368e-07
1.22178e-07
1.22243e-07
1.22426e-07
1.22671e-07
1.22923e-07
1.23182e-07
1.23419e-07
1.23653e-07
1.23859e-07
1.24061e-07
1.24237e-07
1.2441e-07
1.24559e-07
1.24708e-07
1.24835e-07
1.24962e-07
1.25069e-07
1.2518e-07
1.25272e-07
1.25368e-07
1.25447e-07
1.25531e-07
1.256e-07
1.25673e-07
1.25733e-07
1.25797e-07
1.2585e-07
1.25907e-07
1.25953e-07
1.26005e-07
1.26046e-07
1.26092e-07
1.26127e-07
1.26168e-07
1.26201e-07
1.26239e-07
1.26268e-07
1.26301e-07
1.2633e-07
1.2636e-07
1.26382e-07
1.26413e-07
1.26434e-07
1.2646e-07
1.26479e-07
1.26501e-07
1.2652e-07
1.26541e-07
1.26558e-07
1.26576e-07
1.26594e-07
1.26612e-07
1.26625e-07
1.26642e-07
1.26658e-07
1.26666e-07
1.26679e-07
1.26685e-07
1.26699e-07
1.26701e-07
1.26708e-07
1.26706e-07
1.26728e-07
1.26754e-07
1.26765e-07
1.26778e-07
1.26798e-07
1.26811e-07
1.26836e-07
1.26853e-07
1.26879e-07
1.26901e-07
1.2693e-07
1.26948e-07
1.26972e-07
1.26986e-07
1.2701e-07
1.27024e-07
1.27045e-07
1.27061e-07
1.27081e-07
1.27099e-07
1.27118e-07
1.27138e-07
1.27159e-07
1.27178e-07
1.27204e-07
1.27225e-07
1.27254e-07
1.2729e-07
1.28499e-07
1.32164e-07
1.47863e-08
1.23918e-07
1.22937e-07
1.22368e-07
1.22177e-07
1.22241e-07
1.22424e-07
1.22669e-07
1.2292e-07
1.23179e-07
1.23416e-07
1.23649e-07
1.23856e-07
1.24058e-07
1.24234e-07
1.24407e-07
1.24556e-07
1.24704e-07
1.24831e-07
1.24958e-07
1.25066e-07
1.25176e-07
1.25268e-07
1.25364e-07
1.25444e-07
1.25527e-07
1.25596e-07
1.25669e-07
1.25729e-07
1.25793e-07
1.25847e-07
1.25904e-07
1.25949e-07
1.26001e-07
1.26043e-07
1.26089e-07
1.26124e-07
1.26165e-07
1.26198e-07
1.26235e-07
1.26264e-07
1.26297e-07
1.26327e-07
1.26357e-07
1.26379e-07
1.26409e-07
1.26431e-07
1.26457e-07
1.26476e-07
1.26497e-07
1.26516e-07
1.26538e-07
1.26554e-07
1.26573e-07
1.26591e-07
1.26609e-07
1.26622e-07
1.26639e-07
1.26654e-07
1.26663e-07
1.26676e-07
1.26682e-07
1.26695e-07
1.26697e-07
1.26704e-07
1.26703e-07
1.26725e-07
1.2675e-07
1.26761e-07
1.26775e-07
1.26795e-07
1.26808e-07
1.26832e-07
1.26849e-07
1.26876e-07
1.26898e-07
1.26927e-07
1.26944e-07
1.26968e-07
1.26982e-07
1.27007e-07
1.27021e-07
1.27042e-07
1.27058e-07
1.27077e-07
1.27096e-07
1.27115e-07
1.27135e-07
1.27156e-07
1.27175e-07
1.27201e-07
1.27221e-07
1.2725e-07
1.27287e-07
1.28503e-07
1.32164e-07
1.53684e-08
1.23919e-07
1.22937e-07
1.22367e-07
1.22175e-07
1.22238e-07
1.2242e-07
1.22665e-07
1.22916e-07
1.23174e-07
1.23412e-07
1.23644e-07
1.23851e-07
1.24053e-07
1.24229e-07
1.24402e-07
1.24551e-07
1.24699e-07
1.24826e-07
1.24953e-07
1.25061e-07
1.25171e-07
1.25264e-07
1.25359e-07
1.25439e-07
1.25522e-07
1.25592e-07
1.25664e-07
1.25725e-07
1.25789e-07
1.25842e-07
1.25899e-07
1.25945e-07
1.25997e-07
1.26038e-07
1.26084e-07
1.26119e-07
1.2616e-07
1.26193e-07
1.26231e-07
1.2626e-07
1.26293e-07
1.26322e-07
1.26352e-07
1.26374e-07
1.26405e-07
1.26426e-07
1.26452e-07
1.26471e-07
1.26493e-07
1.26512e-07
1.26534e-07
1.2655e-07
1.26569e-07
1.26586e-07
1.26604e-07
1.26618e-07
1.26634e-07
1.2665e-07
1.26658e-07
1.26671e-07
1.26678e-07
1.26691e-07
1.26693e-07
1.267e-07
1.26698e-07
1.26721e-07
1.26746e-07
1.26757e-07
1.2677e-07
1.2679e-07
1.26803e-07
1.26828e-07
1.26845e-07
1.26871e-07
1.26893e-07
1.26922e-07
1.2694e-07
1.26964e-07
1.26978e-07
1.27002e-07
1.27016e-07
1.27038e-07
1.27054e-07
1.27073e-07
1.27092e-07
1.2711e-07
1.27131e-07
1.27151e-07
1.27171e-07
1.27197e-07
1.27217e-07
1.27246e-07
1.27283e-07
1.28509e-07
1.32164e-07
1.59997e-08
1.23919e-07
1.22937e-07
1.22366e-07
1.22173e-07
1.22235e-07
1.22416e-07
1.2266e-07
1.22911e-07
1.23169e-07
1.23406e-07
1.23639e-07
1.23845e-07
1.24047e-07
1.24223e-07
1.24396e-07
1.24545e-07
1.24693e-07
1.2482e-07
1.24947e-07
1.25055e-07
1.25165e-07
1.25257e-07
1.25353e-07
1.25433e-07
1.25516e-07
1.25586e-07
1.25658e-07
1.25719e-07
1.25783e-07
1.25836e-07
1.25893e-07
1.25939e-07
1.25991e-07
1.26032e-07
1.26078e-07
1.26114e-07
1.26154e-07
1.26188e-07
1.26225e-07
1.26254e-07
1.26287e-07
1.26316e-07
1.26346e-07
1.26369e-07
1.26399e-07
1.26421e-07
1.26447e-07
1.26466e-07
1.26488e-07
1.26506e-07
1.26528e-07
1.26545e-07
1.26563e-07
1.26581e-07
1.26599e-07
1.26612e-07
1.26629e-07
1.26645e-07
1.26653e-07
1.26666e-07
1.26672e-07
1.26686e-07
1.26688e-07
1.26695e-07
1.26693e-07
1.26715e-07
1.26741e-07
1.26752e-07
1.26765e-07
1.26785e-07
1.26798e-07
1.26822e-07
1.26839e-07
1.26866e-07
1.26888e-07
1.26917e-07
1.26934e-07
1.26959e-07
1.26973e-07
1.26997e-07
1.27011e-07
1.27032e-07
1.27048e-07
1.27068e-07
1.27086e-07
1.27105e-07
1.27125e-07
1.27146e-07
1.27165e-07
1.27191e-07
1.27212e-07
1.27241e-07
1.27277e-07
1.28517e-07
1.32165e-07
1.66786e-08
1.23919e-07
1.22937e-07
1.22365e-07
1.22171e-07
1.22231e-07
1.22411e-07
1.22655e-07
1.22905e-07
1.23162e-07
1.23399e-07
1.23631e-07
1.23838e-07
1.24039e-07
1.24215e-07
1.24388e-07
1.24537e-07
1.24686e-07
1.24812e-07
1.2494e-07
1.25047e-07
1.25158e-07
1.2525e-07
1.25346e-07
1.25425e-07
1.25509e-07
1.25578e-07
1.25651e-07
1.25712e-07
1.25776e-07
1.25829e-07
1.25886e-07
1.25932e-07
1.25984e-07
1.26026e-07
1.26071e-07
1.26107e-07
1.26148e-07
1.26181e-07
1.26218e-07
1.26247e-07
1.26281e-07
1.2631e-07
1.2634e-07
1.26362e-07
1.26393e-07
1.26414e-07
1.2644e-07
1.26459e-07
1.26481e-07
1.265e-07
1.26522e-07
1.26538e-07
1.26557e-07
1.26575e-07
1.26593e-07
1.26606e-07
1.26623e-07
1.26638e-07
1.26647e-07
1.2666e-07
1.26666e-07
1.2668e-07
1.26682e-07
1.26689e-07
1.26687e-07
1.26709e-07
1.26735e-07
1.26745e-07
1.26759e-07
1.26778e-07
1.26792e-07
1.26816e-07
1.26833e-07
1.26859e-07
1.26881e-07
1.2691e-07
1.26928e-07
1.26952e-07
1.26966e-07
1.2699e-07
1.27005e-07
1.27026e-07
1.27042e-07
1.27061e-07
1.2708e-07
1.27099e-07
1.27119e-07
1.2714e-07
1.27159e-07
1.27185e-07
1.27205e-07
1.27234e-07
1.27271e-07
1.28527e-07
1.32166e-07
1.74053e-08
1.23919e-07
1.22937e-07
1.22364e-07
1.22168e-07
1.22227e-07
1.22405e-07
1.22648e-07
1.22897e-07
1.23154e-07
1.23391e-07
1.23623e-07
1.23829e-07
1.24031e-07
1.24206e-07
1.24379e-07
1.24528e-07
1.24677e-07
1.24803e-07
1.24931e-07
1.25039e-07
1.25149e-07
1.25241e-07
1.25337e-07
1.25417e-07
1.25501e-07
1.2557e-07
1.25643e-07
1.25703e-07
1.25768e-07
1.25821e-07
1.25878e-07
1.25924e-07
1.25976e-07
1.26017e-07
1.26063e-07
1.26099e-07
1.2614e-07
1.26173e-07
1.26211e-07
1.26239e-07
1.26273e-07
1.26302e-07
1.26332e-07
1.26354e-07
1.26385e-07
1.26407e-07
1.26432e-07
1.26452e-07
1.26473e-07
1.26492e-07
1.26514e-07
1.26531e-07
1.26549e-07
1.26567e-07
1.26585e-07
1.26599e-07
1.26615e-07
1.26631e-07
1.26639e-07
1.26652e-07
1.26659e-07
1.26672e-07
1.26675e-07
1.26682e-07
1.2668e-07
1.26702e-07
1.26727e-07
1.26738e-07
1.26751e-07
1.26771e-07
1.26784e-07
1.26808e-07
1.26825e-07
1.26852e-07
1.26874e-07
1.26902e-07
1.2692e-07
1.26944e-07
1.26959e-07
1.26983e-07
1.26997e-07
1.27019e-07
1.27035e-07
1.27054e-07
1.27073e-07
1.27091e-07
1.27112e-07
1.27132e-07
1.27151e-07
1.27178e-07
1.27198e-07
1.27227e-07
1.27264e-07
1.2854e-07
1.32168e-07
1.81807e-08
1.2392e-07
1.22937e-07
1.22362e-07
1.22164e-07
1.22221e-07
1.22399e-07
1.2264e-07
1.22889e-07
1.23145e-07
1.23381e-07
1.23613e-07
1.23819e-07
1.24021e-07
1.24196e-07
1.24369e-07
1.24518e-07
1.24667e-07
1.24793e-07
1.24921e-07
1.25029e-07
1.25139e-07
1.25232e-07
1.25327e-07
1.25407e-07
1.25491e-07
1.2556e-07
1.25633e-07
1.25694e-07
1.25758e-07
1.25811e-07
1.25869e-07
1.25914e-07
1.25966e-07
1.26008e-07
1.26054e-07
1.2609e-07
1.2613e-07
1.26164e-07
1.26202e-07
1.2623e-07
1.26264e-07
1.26293e-07
1.26323e-07
1.26346e-07
1.26376e-07
1.26398e-07
1.26424e-07
1.26443e-07
1.26465e-07
1.26484e-07
1.26505e-07
1.26522e-07
1.26541e-07
1.26559e-07
1.26577e-07
1.2659e-07
1.26607e-07
1.26623e-07
1.26631e-07
1.26644e-07
1.26651e-07
1.26664e-07
1.26666e-07
1.26673e-07
1.26672e-07
1.26693e-07
1.26719e-07
1.26729e-07
1.26743e-07
1.26762e-07
1.26776e-07
1.268e-07
1.26817e-07
1.26843e-07
1.26865e-07
1.26894e-07
1.26911e-07
1.26936e-07
1.2695e-07
1.26974e-07
1.26989e-07
1.2701e-07
1.27026e-07
1.27046e-07
1.27064e-07
1.27083e-07
1.27103e-07
1.27124e-07
1.27143e-07
1.27169e-07
1.27189e-07
1.27218e-07
1.27256e-07
1.28555e-07
1.3217e-07
1.90054e-08
1.2392e-07
1.22937e-07
1.2236e-07
1.2216e-07
1.22215e-07
1.22391e-07
1.22631e-07
1.22879e-07
1.23135e-07
1.2337e-07
1.23602e-07
1.23808e-07
1.24009e-07
1.24185e-07
1.24358e-07
1.24507e-07
1.24655e-07
1.24782e-07
1.24909e-07
1.25017e-07
1.25128e-07
1.2522e-07
1.25316e-07
1.25396e-07
1.2548e-07
1.25549e-07
1.25622e-07
1.25683e-07
1.25747e-07
1.258e-07
1.25858e-07
1.25904e-07
1.25956e-07
1.25998e-07
1.26044e-07
1.26079e-07
1.2612e-07
1.26153e-07
1.26191e-07
1.2622e-07
1.26254e-07
1.26283e-07
1.26313e-07
1.26336e-07
1.26366e-07
1.26388e-07
1.26414e-07
1.26433e-07
1.26455e-07
1.26474e-07
1.26496e-07
1.26512e-07
1.26531e-07
1.26549e-07
1.26567e-07
1.26581e-07
1.26597e-07
1.26613e-07
1.26622e-07
1.26635e-07
1.26641e-07
1.26655e-07
1.26657e-07
1.26664e-07
1.26662e-07
1.26684e-07
1.26709e-07
1.2672e-07
1.26733e-07
1.26753e-07
1.26766e-07
1.2679e-07
1.26807e-07
1.26833e-07
1.26855e-07
1.26884e-07
1.26901e-07
1.26926e-07
1.2694e-07
1.26965e-07
1.26979e-07
1.27001e-07
1.27016e-07
1.27036e-07
1.27055e-07
1.27073e-07
1.27094e-07
1.27114e-07
1.27133e-07
1.2716e-07
1.2718e-07
1.27209e-07
1.27246e-07
1.28574e-07
1.32172e-07
1.98794e-08
1.2392e-07
1.22937e-07
1.22359e-07
1.22156e-07
1.22208e-07
1.22382e-07
1.22621e-07
1.22868e-07
1.23123e-07
1.23358e-07
1.2359e-07
1.23795e-07
1.23996e-07
1.24172e-07
1.24345e-07
1.24494e-07
1.24642e-07
1.24769e-07
1.24897e-07
1.25005e-07
1.25115e-07
1.25208e-07
1.25304e-07
1.25384e-07
1.25468e-07
1.25537e-07
1.2561e-07
1.25671e-07
1.25735e-07
1.25788e-07
1.25846e-07
1.25892e-07
1.25944e-07
1.25986e-07
1.26032e-07
1.26068e-07
1.26109e-07
1.26142e-07
1.2618e-07
1.26209e-07
1.26242e-07
1.26272e-07
1.26302e-07
1.26324e-07
1.26355e-07
1.26377e-07
1.26403e-07
1.26422e-07
1.26444e-07
1.26463e-07
1.26485e-07
1.26501e-07
1.2652e-07
1.26538e-07
1.26556e-07
1.2657e-07
1.26586e-07
1.26602e-07
1.26611e-07
1.26624e-07
1.26631e-07
1.26644e-07
1.26647e-07
1.26654e-07
1.26652e-07
1.26673e-07
1.26699e-07
1.26709e-07
1.26723e-07
1.26742e-07
1.26755e-07
1.26779e-07
1.26796e-07
1.26822e-07
1.26844e-07
1.26873e-07
1.2689e-07
1.26915e-07
1.2693e-07
1.26954e-07
1.26968e-07
1.2699e-07
1.27006e-07
1.27025e-07
1.27044e-07
1.27063e-07
1.27083e-07
1.27104e-07
1.27123e-07
1.27149e-07
1.27169e-07
1.27198e-07
1.27236e-07
1.28595e-07
1.32175e-07
2.08015e-08
1.23921e-07
1.22937e-07
1.22356e-07
1.22151e-07
1.22201e-07
1.22373e-07
1.2261e-07
1.22856e-07
1.2311e-07
1.23345e-07
1.23576e-07
1.23781e-07
1.23982e-07
1.24158e-07
1.24331e-07
1.24479e-07
1.24628e-07
1.24755e-07
1.24882e-07
1.2499e-07
1.25101e-07
1.25194e-07
1.2529e-07
1.2537e-07
1.25454e-07
1.25523e-07
1.25597e-07
1.25657e-07
1.25722e-07
1.25775e-07
1.25833e-07
1.25879e-07
1.25931e-07
1.25973e-07
1.26019e-07
1.26055e-07
1.26096e-07
1.26129e-07
1.26167e-07
1.26196e-07
1.2623e-07
1.26259e-07
1.2629e-07
1.26312e-07
1.26343e-07
1.26365e-07
1.2639e-07
1.2641e-07
1.26432e-07
1.26451e-07
1.26473e-07
1.26489e-07
1.26508e-07
1.26526e-07
1.26544e-07
1.26558e-07
1.26574e-07
1.26591e-07
1.26599e-07
1.26612e-07
1.26619e-07
1.26633e-07
1.26635e-07
1.26642e-07
1.2664e-07
1.26662e-07
1.26687e-07
1.26697e-07
1.26711e-07
1.2673e-07
1.26743e-07
1.26767e-07
1.26784e-07
1.2681e-07
1.26832e-07
1.2686e-07
1.26878e-07
1.26903e-07
1.26918e-07
1.26942e-07
1.26956e-07
1.26978e-07
1.26994e-07
1.27014e-07
1.27032e-07
1.27051e-07
1.27071e-07
1.27092e-07
1.27111e-07
1.27137e-07
1.27157e-07
1.27186e-07
1.27224e-07
1.28619e-07
1.32178e-07
2.17708e-08
1.23921e-07
1.22937e-07
1.22354e-07
1.22145e-07
1.22192e-07
1.22362e-07
1.22598e-07
1.22842e-07
1.23096e-07
1.2333e-07
1.23561e-07
1.23766e-07
1.23967e-07
1.24142e-07
1.24315e-07
1.24464e-07
1.24612e-07
1.24739e-07
1.24867e-07
1.24975e-07
1.25086e-07
1.25178e-07
1.25275e-07
1.25355e-07
1.25439e-07
1.25508e-07
1.25582e-07
1.25642e-07
1.25707e-07
1.25761e-07
1.25818e-07
1.25864e-07
1.25917e-07
1.25959e-07
1.26005e-07
1.26041e-07
1.26082e-07
1.26115e-07
1.26153e-07
1.26182e-07
1.26216e-07
1.26245e-07
1.26276e-07
1.26298e-07
1.26329e-07
1.26351e-07
1.26377e-07
1.26396e-07
1.26419e-07
1.26438e-07
1.26459e-07
1.26476e-07
1.26495e-07
1.26513e-07
1.26531e-07
1.26545e-07
1.26561e-07
1.26578e-07
1.26586e-07
1.266e-07
1.26606e-07
1.2662e-07
1.26623e-07
1.2663e-07
1.26628e-07
1.26649e-07
1.26674e-07
1.26684e-07
1.26698e-07
1.26717e-07
1.2673e-07
1.26754e-07
1.26771e-07
1.26797e-07
1.26819e-07
1.26847e-07
1.26864e-07
1.26889e-07
1.26904e-07
1.26929e-07
1.26943e-07
1.26965e-07
1.26981e-07
1.27001e-07
1.27019e-07
1.27038e-07
1.27058e-07
1.27079e-07
1.27098e-07
1.27124e-07
1.27144e-07
1.27173e-07
1.27212e-07
1.28647e-07
1.32181e-07
2.27897e-08
1.23922e-07
1.22938e-07
1.22352e-07
1.22139e-07
1.22183e-07
1.2235e-07
1.22584e-07
1.22828e-07
1.2308e-07
1.23314e-07
1.23544e-07
1.23749e-07
1.23949e-07
1.24125e-07
1.24298e-07
1.24446e-07
1.24595e-07
1.24722e-07
1.2485e-07
1.24958e-07
1.25069e-07
1.25162e-07
1.25258e-07
1.25338e-07
1.25422e-07
1.25492e-07
1.25565e-07
1.25626e-07
1.25691e-07
1.25745e-07
1.25802e-07
1.25849e-07
1.25901e-07
1.25943e-07
1.2599e-07
1.26025e-07
1.26066e-07
1.261e-07
1.26138e-07
1.26167e-07
1.26201e-07
1.2623e-07
1.26261e-07
1.26284e-07
1.26314e-07
1.26336e-07
1.26362e-07
1.26382e-07
1.26404e-07
1.26423e-07
1.26445e-07
1.26462e-07
1.26481e-07
1.26499e-07
1.26517e-07
1.26531e-07
1.26547e-07
1.26564e-07
1.26572e-07
1.26586e-07
1.26592e-07
1.26606e-07
1.26609e-07
1.26616e-07
1.26614e-07
1.26635e-07
1.2666e-07
1.2667e-07
1.26684e-07
1.26702e-07
1.26716e-07
1.2674e-07
1.26756e-07
1.26782e-07
1.26804e-07
1.26832e-07
1.2685e-07
1.26875e-07
1.2689e-07
1.26915e-07
1.26929e-07
1.26951e-07
1.26967e-07
1.26987e-07
1.27005e-07
1.27024e-07
1.27044e-07
1.27065e-07
1.27084e-07
1.2711e-07
1.2713e-07
1.27158e-07
1.27198e-07
1.28678e-07
1.32184e-07
2.38616e-08
1.23922e-07
1.22938e-07
1.22349e-07
1.22133e-07
1.22174e-07
1.22338e-07
1.2257e-07
1.22812e-07
1.23064e-07
1.23296e-07
1.23526e-07
1.2373e-07
1.23931e-07
1.24106e-07
1.24279e-07
1.24427e-07
1.24576e-07
1.24703e-07
1.24831e-07
1.24939e-07
1.2505e-07
1.25143e-07
1.2524e-07
1.2532e-07
1.25404e-07
1.25474e-07
1.25548e-07
1.25609e-07
1.25674e-07
1.25727e-07
1.25785e-07
1.25831e-07
1.25884e-07
1.25926e-07
1.25973e-07
1.26008e-07
1.2605e-07
1.26083e-07
1.26122e-07
1.26151e-07
1.26185e-07
1.26214e-07
1.26245e-07
1.26267e-07
1.26298e-07
1.2632e-07
1.26346e-07
1.26366e-07
1.26388e-07
1.26407e-07
1.26429e-07
1.26446e-07
1.26465e-07
1.26483e-07
1.26501e-07
1.26515e-07
1.26532e-07
1.26548e-07
1.26557e-07
1.2657e-07
1.26577e-07
1.26591e-07
1.26594e-07
1.26601e-07
1.26599e-07
1.2662e-07
1.26645e-07
1.26655e-07
1.26669e-07
1.26687e-07
1.26701e-07
1.26724e-07
1.2674e-07
1.26767e-07
1.26788e-07
1.26817e-07
1.26834e-07
1.26859e-07
1.26874e-07
1.26899e-07
1.26913e-07
1.26936e-07
1.26951e-07
1.26971e-07
1.2699e-07
1.27009e-07
1.27029e-07
1.27049e-07
1.27069e-07
1.27095e-07
1.27115e-07
1.27143e-07
1.27184e-07
1.28713e-07
1.32187e-07
2.49897e-08
1.23923e-07
1.22938e-07
1.22346e-07
1.22126e-07
1.22163e-07
1.22324e-07
1.22554e-07
1.22794e-07
1.23045e-07
1.23277e-07
1.23506e-07
1.2371e-07
1.23911e-07
1.24085e-07
1.24258e-07
1.24407e-07
1.24556e-07
1.24683e-07
1.24811e-07
1.24919e-07
1.2503e-07
1.25123e-07
1.2522e-07
1.253e-07
1.25385e-07
1.25455e-07
1.25529e-07
1.2559e-07
1.25655e-07
1.25708e-07
1.25767e-07
1.25813e-07
1.25865e-07
1.25908e-07
1.25954e-07
1.2599e-07
1.26032e-07
1.26065e-07
1.26104e-07
1.26133e-07
1.26167e-07
1.26196e-07
1.26227e-07
1.2625e-07
1.26281e-07
1.26303e-07
1.26329e-07
1.26349e-07
1.26371e-07
1.2639e-07
1.26412e-07
1.26429e-07
1.26448e-07
1.26466e-07
1.26485e-07
1.26499e-07
1.26515e-07
1.26532e-07
1.26541e-07
1.26554e-07
1.26561e-07
1.26575e-07
1.26578e-07
1.26585e-07
1.26583e-07
1.26603e-07
1.26628e-07
1.26639e-07
1.26652e-07
1.2667e-07
1.26684e-07
1.26707e-07
1.26723e-07
1.2675e-07
1.26771e-07
1.26799e-07
1.26817e-07
1.26842e-07
1.26857e-07
1.26882e-07
1.26896e-07
1.26919e-07
1.26934e-07
1.26955e-07
1.26973e-07
1.26992e-07
1.27012e-07
1.27033e-07
1.27052e-07
1.27078e-07
1.27098e-07
1.27126e-07
1.27168e-07
1.28751e-07
1.32189e-07
2.61773e-08
1.23923e-07
1.22938e-07
1.22343e-07
1.22119e-07
1.22152e-07
1.2231e-07
1.22537e-07
1.22776e-07
1.23026e-07
1.23256e-07
1.23485e-07
1.23689e-07
1.23889e-07
1.24064e-07
1.24236e-07
1.24385e-07
1.24534e-07
1.24661e-07
1.24789e-07
1.24898e-07
1.25009e-07
1.25102e-07
1.25199e-07
1.25279e-07
1.25364e-07
1.25434e-07
1.25508e-07
1.25569e-07
1.25634e-07
1.25688e-07
1.25746e-07
1.25793e-07
1.25845e-07
1.25888e-07
1.25935e-07
1.25971e-07
1.26012e-07
1.26046e-07
1.26084e-07
1.26114e-07
1.26148e-07
1.26177e-07
1.26208e-07
1.26231e-07
1.26262e-07
1.26284e-07
1.2631e-07
1.2633e-07
1.26353e-07
1.26372e-07
1.26394e-07
1.26411e-07
1.2643e-07
1.26448e-07
1.26467e-07
1.26481e-07
1.26497e-07
1.26514e-07
1.26523e-07
1.26536e-07
1.26543e-07
1.26557e-07
1.2656e-07
1.26568e-07
1.26566e-07
1.26586e-07
1.2661e-07
1.26621e-07
1.26634e-07
1.26652e-07
1.26666e-07
1.26689e-07
1.26705e-07
1.26731e-07
1.26752e-07
1.26781e-07
1.26798e-07
1.26823e-07
1.26839e-07
1.26864e-07
1.26878e-07
1.26901e-07
1.26916e-07
1.26937e-07
1.26955e-07
1.26975e-07
1.26994e-07
1.27015e-07
1.27034e-07
1.2706e-07
1.2708e-07
1.27108e-07
1.2715e-07
1.28794e-07
1.3219e-07
2.74281e-08
1.23924e-07
1.22938e-07
1.2234e-07
1.22111e-07
1.2214e-07
1.22294e-07
1.22519e-07
1.22756e-07
1.23004e-07
1.23234e-07
1.23463e-07
1.23666e-07
1.23866e-07
1.2404e-07
1.24213e-07
1.24362e-07
1.24511e-07
1.24638e-07
1.24766e-07
1.24874e-07
1.24986e-07
1.25079e-07
1.25176e-07
1.25256e-07
1.25341e-07
1.25411e-07
1.25486e-07
1.25547e-07
1.25612e-07
1.25666e-07
1.25725e-07
1.25771e-07
1.25824e-07
1.25866e-07
1.25914e-07
1.2595e-07
1.25991e-07
1.26025e-07
1.26064e-07
1.26093e-07
1.26127e-07
1.26157e-07
1.26188e-07
1.26211e-07
1.26242e-07
1.26264e-07
1.2629e-07
1.2631e-07
1.26333e-07
1.26352e-07
1.26374e-07
1.26391e-07
1.2641e-07
1.26428e-07
1.26447e-07
1.26461e-07
1.26478e-07
1.26494e-07
1.26504e-07
1.26517e-07
1.26524e-07
1.26538e-07
1.26542e-07
1.26549e-07
1.26547e-07
1.26567e-07
1.26591e-07
1.26602e-07
1.26615e-07
1.26632e-07
1.26647e-07
1.2667e-07
1.26686e-07
1.26712e-07
1.26733e-07
1.26761e-07
1.26778e-07
1.26803e-07
1.26819e-07
1.26844e-07
1.26859e-07
1.26882e-07
1.26897e-07
1.26918e-07
1.26936e-07
1.26956e-07
1.26975e-07
1.26996e-07
1.27015e-07
1.27041e-07
1.27061e-07
1.27088e-07
1.27132e-07
1.2884e-07
1.3219e-07
2.87459e-08
1.23925e-07
1.22938e-07
1.22337e-07
1.22103e-07
1.22127e-07
1.22278e-07
1.225e-07
1.22735e-07
1.22982e-07
1.23211e-07
1.23438e-07
1.23641e-07
1.23841e-07
1.24015e-07
1.24188e-07
1.24336e-07
1.24485e-07
1.24612e-07
1.24741e-07
1.24849e-07
1.24961e-07
1.25054e-07
1.25152e-07
1.25232e-07
1.25317e-07
1.25388e-07
1.25462e-07
1.25523e-07
1.25589e-07
1.25643e-07
1.25702e-07
1.25748e-07
1.25801e-07
1.25844e-07
1.25891e-07
1.25927e-07
1.25969e-07
1.26003e-07
1.26041e-07
1.26071e-07
1.26105e-07
1.26135e-07
1.26166e-07
1.26189e-07
1.2622e-07
1.26243e-07
1.26269e-07
1.26289e-07
1.26312e-07
1.26331e-07
1.26353e-07
1.2637e-07
1.26389e-07
1.26408e-07
1.26426e-07
1.26441e-07
1.26457e-07
1.26474e-07
1.26483e-07
1.26497e-07
1.26504e-07
1.26518e-07
1.26522e-07
1.26529e-07
1.26527e-07
1.26547e-07
1.26571e-07
1.26581e-07
1.26595e-07
1.26611e-07
1.26626e-07
1.26649e-07
1.26665e-07
1.2669e-07
1.26712e-07
1.2674e-07
1.26757e-07
1.26782e-07
1.26798e-07
1.26823e-07
1.26838e-07
1.26861e-07
1.26876e-07
1.26897e-07
1.26915e-07
1.26935e-07
1.26955e-07
1.26975e-07
1.26995e-07
1.27021e-07
1.2704e-07
1.27068e-07
1.27112e-07
1.2889e-07
1.32188e-07
3.01345e-08
1.23926e-07
1.22938e-07
1.22333e-07
1.22094e-07
1.22113e-07
1.2226e-07
1.2248e-07
1.22712e-07
1.22958e-07
1.23185e-07
1.23413e-07
1.23615e-07
1.23814e-07
1.23988e-07
1.24161e-07
1.24309e-07
1.24459e-07
1.24586e-07
1.24714e-07
1.24823e-07
1.24935e-07
1.25028e-07
1.25125e-07
1.25206e-07
1.25292e-07
1.25362e-07
1.25437e-07
1.25498e-07
1.25564e-07
1.25618e-07
1.25677e-07
1.25723e-07
1.25777e-07
1.25819e-07
1.25867e-07
1.25903e-07
1.25945e-07
1.25979e-07
1.26018e-07
1.26048e-07
1.26082e-07
1.26111e-07
1.26143e-07
1.26166e-07
1.26197e-07
1.2622e-07
1.26246e-07
1.26266e-07
1.26289e-07
1.26308e-07
1.26331e-07
1.26348e-07
1.26367e-07
1.26385e-07
1.26404e-07
1.26418e-07
1.26435e-07
1.26452e-07
1.26461e-07
1.26475e-07
1.26482e-07
1.26496e-07
1.265e-07
1.26508e-07
1.26506e-07
1.26525e-07
1.26549e-07
1.2656e-07
1.26573e-07
1.26589e-07
1.26604e-07
1.26627e-07
1.26642e-07
1.26668e-07
1.26689e-07
1.26717e-07
1.26734e-07
1.2676e-07
1.26776e-07
1.26801e-07
1.26816e-07
1.26839e-07
1.26854e-07
1.26876e-07
1.26893e-07
1.26913e-07
1.26933e-07
1.26953e-07
1.26973e-07
1.26999e-07
1.27018e-07
1.27045e-07
1.27092e-07
1.28944e-07
1.32182e-07
3.15979e-08
1.23926e-07
1.22939e-07
1.22329e-07
1.22085e-07
1.22099e-07
1.22242e-07
1.22458e-07
1.22688e-07
1.22932e-07
1.23159e-07
1.23385e-07
1.23587e-07
1.23786e-07
1.2396e-07
1.24132e-07
1.24281e-07
1.2443e-07
1.24557e-07
1.24686e-07
1.24795e-07
1.24907e-07
1.25e-07
1.25098e-07
1.25179e-07
1.25264e-07
1.25335e-07
1.25409e-07
1.25471e-07
1.25537e-07
1.25591e-07
1.2565e-07
1.25697e-07
1.25751e-07
1.25793e-07
1.25841e-07
1.25877e-07
1.2592e-07
1.25954e-07
1.25993e-07
1.26023e-07
1.26057e-07
1.26087e-07
1.26118e-07
1.26141e-07
1.26172e-07
1.26195e-07
1.26222e-07
1.26242e-07
1.26265e-07
1.26284e-07
1.26307e-07
1.26324e-07
1.26343e-07
1.26362e-07
1.2638e-07
1.26395e-07
1.26411e-07
1.26428e-07
1.26438e-07
1.26452e-07
1.26459e-07
1.26473e-07
1.26478e-07
1.26485e-07
1.26484e-07
1.26502e-07
1.26525e-07
1.26537e-07
1.2655e-07
1.26566e-07
1.26581e-07
1.26603e-07
1.26619e-07
1.26644e-07
1.26665e-07
1.26693e-07
1.2671e-07
1.26735e-07
1.26752e-07
1.26777e-07
1.26792e-07
1.26816e-07
1.2683e-07
1.26852e-07
1.26869e-07
1.2689e-07
1.26909e-07
1.2693e-07
1.2695e-07
1.26976e-07
1.26995e-07
1.27022e-07
1.27069e-07
1.29001e-07
1.27288e-07
3.314e-08
1.23927e-07
1.22939e-07
1.22326e-07
1.22075e-07
1.22084e-07
1.22222e-07
1.22435e-07
1.22663e-07
1.22905e-07
1.23131e-07
1.23356e-07
1.23557e-07
1.23756e-07
1.23929e-07
1.24102e-07
1.2425e-07
1.244e-07
1.24527e-07
1.24656e-07
1.24765e-07
1.24877e-07
1.2497e-07
1.25068e-07
1.25149e-07
1.25235e-07
1.25306e-07
1.25381e-07
1.25443e-07
1.25509e-07
1.25563e-07
1.25622e-07
1.25669e-07
1.25723e-07
1.25766e-07
1.25814e-07
1.2585e-07
1.25893e-07
1.25927e-07
1.25966e-07
1.25996e-07
1.2603e-07
1.2606e-07
1.26092e-07
1.26115e-07
1.26146e-07
1.26169e-07
1.26196e-07
1.26216e-07
1.26239e-07
1.26259e-07
1.26281e-07
1.26299e-07
1.26318e-07
1.26336e-07
1.26355e-07
1.2637e-07
1.26386e-07
1.26404e-07
1.26413e-07
1.26427e-07
1.26435e-07
1.26449e-07
1.26453e-07
1.26461e-07
1.2646e-07
1.26477e-07
1.26501e-07
1.26512e-07
1.26526e-07
1.26541e-07
1.26556e-07
1.26578e-07
1.26593e-07
1.26619e-07
1.26639e-07
1.26668e-07
1.26684e-07
1.2671e-07
1.26726e-07
1.26752e-07
1.26767e-07
1.26791e-07
1.26805e-07
1.26827e-07
1.26845e-07
1.26866e-07
1.26885e-07
1.26905e-07
1.26925e-07
1.26951e-07
1.2697e-07
1.26997e-07
1.27046e-07
1.29063e-07
1.21533e-07
3.47646e-08
1.23928e-07
1.22939e-07
1.22322e-07
1.22065e-07
1.22068e-07
1.22202e-07
1.22411e-07
1.22636e-07
1.22877e-07
1.23101e-07
1.23325e-07
1.23525e-07
1.23724e-07
1.23897e-07
1.2407e-07
1.24218e-07
1.24368e-07
1.24495e-07
1.24624e-07
1.24733e-07
1.24845e-07
1.24939e-07
1.25037e-07
1.25118e-07
1.25204e-07
1.25275e-07
1.2535e-07
1.25412e-07
1.25479e-07
1.25533e-07
1.25593e-07
1.2564e-07
1.25694e-07
1.25737e-07
1.25785e-07
1.25821e-07
1.25864e-07
1.25898e-07
1.25937e-07
1.25968e-07
1.26002e-07
1.26032e-07
1.26064e-07
1.26088e-07
1.26119e-07
1.26142e-07
1.26169e-07
1.26189e-07
1.26212e-07
1.26232e-07
1.26254e-07
1.26272e-07
1.26291e-07
1.2631e-07
1.26329e-07
1.26343e-07
1.2636e-07
1.26377e-07
1.26387e-07
1.26401e-07
1.26409e-07
1.26423e-07
1.26428e-07
1.26436e-07
1.26435e-07
1.26452e-07
1.26475e-07
1.26486e-07
1.265e-07
1.26515e-07
1.2653e-07
1.26551e-07
1.26567e-07
1.26592e-07
1.26612e-07
1.26641e-07
1.26657e-07
1.26683e-07
1.26699e-07
1.26725e-07
1.2674e-07
1.26764e-07
1.26779e-07
1.26801e-07
1.26818e-07
1.26839e-07
1.26858e-07
1.26879e-07
1.26899e-07
1.26925e-07
1.26944e-07
1.2697e-07
1.27021e-07
1.29127e-07
1.16379e-07
3.6475e-08
1.23929e-07
1.2294e-07
1.22317e-07
1.22055e-07
1.22051e-07
1.2218e-07
1.22386e-07
1.22608e-07
1.22847e-07
1.23069e-07
1.23293e-07
1.23492e-07
1.23691e-07
1.23863e-07
1.24036e-07
1.24184e-07
1.24334e-07
1.24461e-07
1.2459e-07
1.24699e-07
1.24812e-07
1.24906e-07
1.25004e-07
1.25085e-07
1.25172e-07
1.25243e-07
1.25318e-07
1.2538e-07
1.25447e-07
1.25502e-07
1.25561e-07
1.25609e-07
1.25663e-07
1.25706e-07
1.25754e-07
1.25791e-07
1.25834e-07
1.25868e-07
1.25907e-07
1.25938e-07
1.25973e-07
1.26002e-07
1.26035e-07
1.26058e-07
1.2609e-07
1.26113e-07
1.2614e-07
1.2616e-07
1.26183e-07
1.26203e-07
1.26226e-07
1.26244e-07
1.26263e-07
1.26281e-07
1.26301e-07
1.26315e-07
1.26332e-07
1.26349e-07
1.2636e-07
1.26374e-07
1.26381e-07
1.26396e-07
1.26401e-07
1.26409e-07
1.26408e-07
1.26424e-07
1.26447e-07
1.26459e-07
1.26472e-07
1.26487e-07
1.26502e-07
1.26523e-07
1.26539e-07
1.26564e-07
1.26584e-07
1.26612e-07
1.26629e-07
1.26654e-07
1.26671e-07
1.26696e-07
1.26712e-07
1.26736e-07
1.26751e-07
1.26773e-07
1.2679e-07
1.26812e-07
1.2683e-07
1.26852e-07
1.26871e-07
1.26898e-07
1.26916e-07
1.26942e-07
1.26995e-07
1.29193e-07
1.11768e-07
3.82741e-08
1.2393e-07
1.2294e-07
1.22313e-07
1.22044e-07
1.22034e-07
1.22158e-07
1.2236e-07
1.22579e-07
1.22815e-07
1.23036e-07
1.23259e-07
1.23457e-07
1.23655e-07
1.23828e-07
1.24e-07
1.24148e-07
1.24298e-07
1.24425e-07
1.24555e-07
1.24664e-07
1.24776e-07
1.24871e-07
1.24969e-07
1.25051e-07
1.25137e-07
1.25208e-07
1.25284e-07
1.25346e-07
1.25413e-07
1.25468e-07
1.25528e-07
1.25576e-07
1.2563e-07
1.25673e-07
1.25722e-07
1.25759e-07
1.25802e-07
1.25836e-07
1.25876e-07
1.25906e-07
1.25941e-07
1.25971e-07
1.26004e-07
1.26027e-07
1.26059e-07
1.26082e-07
1.26109e-07
1.2613e-07
1.26153e-07
1.26173e-07
1.26196e-07
1.26214e-07
1.26233e-07
1.26252e-07
1.26271e-07
1.26286e-07
1.26302e-07
1.2632e-07
1.2633e-07
1.26345e-07
1.26353e-07
1.26367e-07
1.26372e-07
1.2638e-07
1.2638e-07
1.26395e-07
1.26418e-07
1.2643e-07
1.26443e-07
1.26458e-07
1.26473e-07
1.26494e-07
1.26509e-07
1.26534e-07
1.26554e-07
1.26582e-07
1.26598e-07
1.26624e-07
1.2664e-07
1.26666e-07
1.26682e-07
1.26706e-07
1.26721e-07
1.26744e-07
1.26761e-07
1.26783e-07
1.26801e-07
1.26822e-07
1.26842e-07
1.26868e-07
1.26886e-07
1.26912e-07
1.26967e-07
1.29259e-07
1.07646e-07
4.0164e-08
1.23931e-07
1.22941e-07
1.22309e-07
1.22032e-07
1.22016e-07
1.22134e-07
1.22332e-07
1.22548e-07
1.22782e-07
1.23001e-07
1.23223e-07
1.23421e-07
1.23618e-07
1.2379e-07
1.23962e-07
1.2411e-07
1.2426e-07
1.24387e-07
1.24517e-07
1.24626e-07
1.24739e-07
1.24834e-07
1.24932e-07
1.25014e-07
1.25101e-07
1.25172e-07
1.25248e-07
1.25311e-07
1.25378e-07
1.25433e-07
1.25493e-07
1.25541e-07
1.25595e-07
1.25639e-07
1.25687e-07
1.25725e-07
1.25768e-07
1.25802e-07
1.25842e-07
1.25873e-07
1.25908e-07
1.25938e-07
1.25971e-07
1.25995e-07
1.26026e-07
1.26049e-07
1.26077e-07
1.26098e-07
1.26121e-07
1.26141e-07
1.26164e-07