/*--------------------------------*- C++ -*----------------------------------*\
| =========                 |                                                 |
| \\      /  F ield         | OpenFOAM: The Open Source CFD Toolbox           |
|  \\    /   O peration     | Version:  v2012                                 |
|   \\  /    A nd           | Website:  www.openfoam.com                      |
|    \\/     M anipulation  |                                                 |
\*---------------------------------------------------------------------------*/
FoamFile
{
    version     2.0;
    format      ascii;
    class       volScalarField;
    location    "33.5";
    object      omega;
}
// * * * * * * * * * * * * * * * * * * * * * * * * * * * * * * * * * * * * * //

dimensions      [0 0 -1 0 0 0 0];


internalField   nonuniform List<scalar> 
209825
(
8260.54
7563.78
7002.16
6564.87
6228.63
5969.56
5766.82
5606.01
5475.85
5369.44
5280.72
5206.48
5143.09
5089.13
5042.15
5001.66
4965.8
4934.63
4906.62
4882.11
4859.78
4840.19
4822.09
4806.19
4791.32
4778.27
4765.9
4755.06
4744.66
4735.6
4726.77
4719.14
4711.59
4705.11
4698.61
4693.1
4687.49
4682.76
4677.87
4673.82
4669.59
4666.05
4662.35
4659.35
4656.08
4653.45
4650.57
4648.29
4645.82
4643.84
4641.74
4640.09
4638.2
4636.64
4635.09
4633.72
4632.34
4631.13
4629.98
4629.08
4628.14
4627.29
4626.51
4625.91
4625.14
4624.59
4623.96
4623.63
4623.15
4622.9
4622.42
4622.19
4621.72
4621.51
4621.07
4620.94
4620.65
4620.69
4620.63
4620.79
4620.79
4621.14
4621.14
4621.72
4621.72
4622.52
4622.52
4623.45
4623.57
4624.64
4624.73
4626.14
4626.74
4658.22
4776.1
113452
8260.54
7563.78
7002.16
6564.86
6228.61
5969.53
5766.77
5605.95
5475.78
5369.36
5280.63
5206.38
5142.99
5089.03
5042.04
5001.55
4965.69
4934.51
4906.49
4881.99
4859.65
4840.06
4821.96
4806.06
4791.18
4778.13
4765.76
4754.92
4744.52
4735.46
4726.63
4718.99
4711.45
4704.96
4698.47
4692.96
4687.35
4682.62
4677.73
4673.67
4669.45
4665.9
4662.2
4659.2
4655.93
4653.3
4650.42
4648.13
4645.67
4643.69
4641.59
4639.93
4638.05
4636.48
4634.93
4633.57
4632.19
4630.98
4629.82
4628.92
4627.99
4627.14
4626.35
4625.76
4624.98
4624.43
4623.81
4623.47
4622.99
4622.74
4622.27
4622.03
4621.56
4621.35
4620.92
4620.79
4620.49
4620.53
4620.47
4620.63
4620.63
4620.98
4620.98
4621.56
4621.56
4622.36
4622.36
4623.29
4623.41
4624.48
4624.57
4625.98
4626.58
4658.12
4775.97
110155
8260.54
7563.79
7002.16
6564.82
6228.52
5969.39
5766.6
5605.74
5475.53
5369.09
5280.33
5206.07
5142.65
5088.67
5041.67
5001.17
4965.3
4934.11
4906.08
4881.57
4859.23
4839.63
4821.53
4805.61
4790.73
4777.68
4765.31
4754.46
4744.06
4734.99
4726.16
4718.52
4710.97
4704.48
4697.99
4692.47
4686.86
4682.13
4677.24
4673.18
4668.95
4665.41
4661.71
4658.7
4655.43
4652.8
4649.92
4647.63
4645.17
4643.19
4641.08
4639.43
4637.54
4635.98
4634.43
4633.06
4631.68
4630.47
4629.31
4628.41
4627.48
4626.63
4625.84
4625.24
4624.47
4623.92
4623.29
4622.96
4622.47
4622.23
4621.75
4621.51
4621.05
4620.83
4620.4
4620.27
4619.97
4620.01
4619.95
4620.11
4620.11
4620.46
4620.46
4621.04
4621.04
4621.83
4621.84
4622.76
4622.88
4623.95
4624.04
4625.45
4626.05
4657.71
4775.51
106369
8260.54
7563.8
7002.15
6564.74
6228.37
5969.16
5766.29
5605.37
5475.11
5368.62
5279.82
5205.52
5142.07
5088.07
5041.04
5000.52
4964.63
4933.43
4905.38
4880.86
4858.5
4838.89
4820.78
4804.86
4789.97
4776.91
4764.53
4753.67
4743.26
4734.19
4725.36
4717.71
4710.16
4703.67
4697.16
4691.65
4686.03
4681.3
4676.4
4672.35
4668.11
4664.56
4660.86
4657.85
4654.58
4651.95
4649.06
4646.78
4644.31
4642.33
4640.22
4638.56
4636.68
4635.11
4633.56
4632.19
4630.81
4629.6
4628.44
4627.54
4626.6
4625.75
4624.96
4624.36
4623.59
4623.04
4622.41
4622.08
4621.59
4621.34
4620.87
4620.63
4620.16
4619.95
4619.51
4619.38
4619.09
4619.12
4619.06
4619.22
4619.21
4619.56
4619.56
4620.14
4620.14
4620.93
4620.94
4621.86
4621.98
4623.05
4623.14
4624.55
4625.15
4656.98
4774.7
102476
8260.55
7563.83
7002.13
6564.64
6228.16
5968.83
5765.86
5604.85
5474.51
5367.95
5279.09
5204.74
5141.25
5087.2
5040.14
4999.59
4963.67
4932.45
4904.38
4879.84
4857.46
4837.84
4819.71
4803.77
4788.88
4775.81
4763.41
4752.55
4742.13
4733.05
4724.21
4716.56
4709
4702.5
4695.99
4690.47
4684.85
4680.11
4675.21
4671.15
4666.91
4663.36
4659.65
4656.64
4653.37
4650.73
4647.84
4645.56
4643.09
4641.1
4638.99
4637.33
4635.45
4633.88
4632.32
4630.95
4629.57
4628.36
4627.2
4626.29
4625.35
4624.5
4623.71
4623.11
4622.34
4621.79
4621.16
4620.82
4620.33
4620.09
4619.61
4619.37
4618.9
4618.69
4618.25
4618.12
4617.82
4617.86
4617.79
4617.94
4617.94
4618.29
4618.29
4618.86
4618.86
4619.65
4619.66
4620.58
4620.7
4621.77
4621.85
4623.26
4623.87
4655.94
4773.55
98580.7
8260.56
7563.86
7002.11
6564.5
6227.87
5968.41
5765.3
5604.17
5473.72
5367.07
5278.14
5203.72
5140.17
5086.08
5038.97
4998.38
4962.43
4931.17
4903.08
4878.51
4856.11
4836.47
4818.32
4802.37
4787.45
4774.37
4761.96
4751.09
4740.65
4731.57
4722.71
4715.05
4707.48
4700.98
4694.46
4688.94
4683.31
4678.56
4673.66
4669.59
4665.35
4661.79
4658.08
4655.07
4651.79
4649.15
4646.26
4643.97
4641.49
4639.5
4637.39
4635.73
4633.84
4632.27
4630.71
4629.34
4627.95
4626.74
4625.58
4624.67
4623.73
4622.88
4622.08
4621.48
4620.7
4620.15
4619.52
4619.18
4618.69
4618.44
4617.97
4617.73
4617.26
4617.04
4616.61
4616.47
4616.18
4616.21
4616.14
4616.29
4616.29
4616.63
4616.63
4617.2
4617.2
4617.98
4617.99
4618.9
4619.02
4620.09
4620.17
4621.58
4622.19
4654.59
4772.05
94722.6
8260.57
7563.89
7002.08
6564.33
6227.53
5967.88
5764.6
5603.33
5472.75
5365.99
5276.96
5202.46
5138.84
5084.68
5037.52
4996.88
4960.89
4929.59
4901.46
4876.86
4854.44
4834.77
4816.59
4800.62
4785.69
4772.58
4760.16
4749.27
4738.83
4729.73
4720.86
4713.19
4705.61
4699.1
4692.57
4687.04
4681.4
4676.65
4671.74
4667.66
4663.42
4659.85
4656.13
4653.11
4649.83
4647.19
4644.29
4641.99
4639.51
4637.52
4635.41
4633.74
4631.85
4630.27
4628.71
4627.34
4625.95
4624.73
4623.57
4622.66
4621.71
4620.86
4620.06
4619.46
4618.68
4618.13
4617.49
4617.16
4616.66
4616.41
4615.93
4615.69
4615.22
4615.01
4614.57
4614.44
4614.14
4614.16
4614.09
4614.24
4614.23
4614.57
4614.57
4615.13
4615.13
4615.92
4615.92
4616.83
4616.95
4618.01
4618.1
4619.5
4620.11
4652.91
4770.19
90920.8
8260.58
7563.94
7002.05
6564.13
6227.11
5967.24
5763.77
5602.32
5471.59
5364.7
5275.56
5200.96
5137.25
5083.02
5035.79
4995.09
4959.04
4927.7
4899.53
4874.89
4852.44
4832.74
4814.53
4798.54
4783.58
4770.45
4758.01
4747.11
4736.64
4727.53
4718.65
4710.96
4703.37
4696.84
4690.31
4684.76
4679.12
4674.36
4669.44
4665.35
4661.1
4657.53
4653.8
4650.78
4647.49
4644.84
4641.94
4639.64
4637.15
4635.15
4633.03
4631.37
4629.47
4627.89
4626.32
4624.95
4623.55
4622.34
4621.17
4620.25
4619.3
4618.45
4617.65
4617.04
4616.26
4615.71
4615.07
4614.73
4614.23
4613.98
4613.5
4613.26
4612.79
4612.57
4612.13
4612
4611.7
4611.72
4611.64
4611.78
4611.78
4612.11
4612.11
4612.67
4612.67
4613.44
4613.45
4614.36
4614.47
4615.53
4615.61
4617.02
4617.63
4650.9
4767.98
87184
8260.59
7563.99
7002.02
6563.9
6226.63
5966.51
5762.8
5601.15
5470.24
5363.19
5273.92
5199.2
5135.4
5081.08
5033.77
4993
4956.89
4925.5
4897.28
4872.6
4850.1
4830.36
4812.13
4796.1
4781.12
4767.97
4755.5
4744.58
4734.09
4724.96
4716.06
4708.36
4700.76
4694.22
4687.67
4682.11
4676.45
4671.68
4666.75
4662.66
4658.4
4654.82
4651.08
4648.05
4644.76
4642.1
4639.19
4636.88
4634.39
4632.39
4630.27
4628.59
4626.69
4625.1
4623.54
4622.16
4620.76
4619.54
4618.36
4617.44
4616.49
4615.64
4614.83
4614.22
4613.44
4612.88
4612.24
4611.9
4611.4
4611.14
4610.66
4610.42
4609.95
4609.73
4609.29
4609.15
4608.85
4608.86
4608.78
4608.92
4608.91
4609.23
4609.23
4609.78
4609.78
4610.55
4610.56
4611.46
4611.58
4612.63
4612.71
4614.11
4614.73
4648.57
4765.42
83515
8260.61
7564.05
7001.98
6563.63
6226.08
5965.67
5761.7
5599.81
5468.69
5361.47
5272.04
5197.2
5133.27
5078.85
5031.46
4990.61
4954.43
4922.98
4894.7
4869.97
4847.42
4827.65
4809.38
4793.31
4778.3
4765.12
4752.63
4741.68
4731.17
4722.02
4713.1
4705.38
4697.76
4691.2
4684.64
4679.07
4673.4
4668.62
4663.67
4659.57
4655.3
4651.71
4647.97
4644.93
4641.62
4638.96
4636.04
4633.73
4631.23
4629.22
4627.09
4625.41
4623.5
4621.91
4620.34
4618.96
4617.55
4616.33
4615.15
4614.23
4613.27
4612.41
4611.6
4610.99
4610.2
4609.64
4608.99
4608.65
4608.15
4607.89
4607.4
4607.16
4606.69
4606.47
4606.03
4605.89
4605.59
4605.59
4605.5
4605.63
4605.62
4605.94
4605.94
4606.48
4606.48
4607.24
4607.25
4608.15
4608.26
4609.3
4609.38
4610.79
4611.41
4645.9
4762.49
79911.9
8260.62
7564.11
7001.94
6563.34
6225.46
5964.73
5760.45
5598.3
5466.95
5359.53
5269.93
5194.93
5130.88
5076.35
5028.85
4987.91
4951.65
4920.13
4891.79
4867
4844.4
4824.58
4806.27
4790.17
4775.11
4761.9
4749.38
4738.4
4727.87
4718.69
4709.76
4702.02
4694.37
4687.8
4681.22
4675.64
4669.95
4665.16
4660.2
4656.09
4651.8
4648.2
4644.45
4641.4
4638.08
4635.41
4632.49
4630.17
4627.66
4625.64
4623.5
4621.82
4619.91
4618.31
4616.73
4615.34
4613.93
4612.7
4611.52
4610.59
4609.63
4608.77
4607.95
4607.34
4606.54
4605.98
4605.33
4604.98
4604.47
4604.22
4603.73
4603.48
4603.01
4602.78
4602.34
4602.2
4601.9
4601.89
4601.8
4601.92
4601.91
4602.22
4602.22
4602.75
4602.75
4603.5
4603.51
4604.4
4604.51
4605.55
4605.62
4607.03
4607.66
4642.9
4759.2
76369.1
8260.64
7564.18
7001.89
6563.01
6224.78
5963.68
5759.07
5596.62
5465.01
5357.37
5267.58
5192.41
5128.21
5073.55
5025.94
4984.9
4948.55
4916.95
4888.54
4863.69
4841.03
4821.16
4802.79
4786.65
4771.56
4758.31
4745.76
4734.75
4724.18
4714.98
4706.02
4698.26
4690.59
4684
4677.4
4671.8
4666.1
4661.29
4656.32
4652.19
4647.89
4644.28
4640.51
4637.45
4634.13
4631.45
4628.51
4626.19
4623.67
4621.65
4619.5
4617.8
4615.89
4614.28
4612.69
4611.3
4609.89
4608.65
4607.46
4606.53
4605.56
4604.69
4603.87
4603.25
4602.45
4601.89
4601.23
4600.88
4600.37
4600.11
4599.62
4599.37
4598.89
4598.67
4598.22
4598.08
4597.78
4597.76
4597.66
4597.78
4597.76
4598.06
4598.06
4598.58
4598.58
4599.33
4599.33
4600.22
4600.32
4601.35
4601.42
4602.83
4603.47
4639.55
4755.55
72882.1
8260.66
7564.26
7001.84
6562.65
6224.02
5962.53
5757.55
5594.76
5462.88
5354.98
5264.97
5189.62
5125.26
5070.46
5022.72
4981.57
4945.13
4913.43
4884.94
4860.02
4837.3
4817.37
4798.95
4782.76
4767.62
4754.34
4741.74
4730.7
4720.11
4710.88
4701.89
4694.1
4686.41
4679.8
4673.18
4667.56
4661.84
4657.01
4652.02
4647.88
4643.56
4639.94
4636.16
4633.09
4629.75
4627.06
4624.12
4621.78
4619.25
4617.22
4615.06
4613.36
4611.44
4609.83
4608.23
4606.83
4605.41
4604.17
4602.97
4602.03
4601.06
4600.19
4599.35
4598.74
4597.93
4597.37
4596.7
4596.34
4595.83
4595.56
4595.07
4594.82
4594.34
4594.11
4593.66
4593.52
4593.21
4593.19
4593.08
4593.19
4593.17
4593.46
4593.46
4593.97
4593.97
4594.7
4594.7
4595.58
4595.68
4596.71
4596.77
4598.18
4598.83
4635.85
4751.52
69457.5
8260.68
7564.35
7001.79
6562.26
6223.2
5961.27
5755.88
5592.74
5460.53
5352.37
5262.12
5186.57
5122.03
5067.07
5019.19
4977.92
4941.37
4909.58
4881
4856
4833.21
4813.21
4794.74
4778.5
4763.31
4749.98
4737.34
4726.26
4715.63
4706.37
4697.35
4689.53
4681.82
4675.18
4668.54
4662.9
4657.15
4652.31
4647.3
4643.15
4638.81
4635.18
4631.38
4628.3
4624.95
4622.25
4619.29
4616.94
4614.4
4612.36
4610.19
4608.48
4606.55
4604.93
4603.33
4601.92
4600.49
4599.25
4598.04
4597.09
4596.11
4595.24
4594.39
4593.77
4592.96
4592.39
4591.72
4591.36
4590.84
4590.57
4590.07
4589.82
4589.34
4589.11
4588.66
4588.51
4588.2
4588.17
4588.04
4588.15
4588.13
4588.4
4588.4
4588.9
4588.9
4589.62
4589.62
4590.49
4590.59
4591.61
4591.67
4593.07
4593.73
4631.79
4747.13
66101.3
8260.7
7564.45
7001.74
6561.84
6222.32
5959.91
5754.07
5590.54
5457.99
5349.53
5259.02
5183.25
5118.51
5063.38
5015.35
4973.95
4937.27
4905.38
4876.7
4851.62
4828.75
4808.69
4790.14
4773.84
4758.6
4745.22
4732.54
4721.42
4710.75
4701.46
4692.4
4684.56
4676.81
4670.15
4663.48
4657.81
4652.05
4647.18
4642.16
4637.98
4633.63
4629.98
4626.17
4623.07
4619.71
4616.99
4614.02
4611.66
4609.11
4607.06
4604.88
4603.16
4601.22
4599.59
4597.98
4596.57
4595.13
4593.88
4592.66
4591.7
4590.72
4589.84
4588.99
4588.36
4587.54
4586.97
4586.29
4585.92
4585.4
4585.13
4584.62
4584.37
4583.88
4583.65
4583.2
4583.04
4582.74
4582.69
4582.56
4582.65
4582.62
4582.89
4582.89
4583.37
4583.37
4584.08
4584.08
4584.94
4585.03
4586.04
4586.1
4587.5
4588.17
4627.38
4742.37
62819.3
8260.73
7564.55
7001.68
6561.39
6221.36
5958.44
5752.12
5588.16
5455.24
5346.46
5255.67
5179.65
5114.7
5059.38
5011.19
4969.64
4932.84
4900.83
4872.05
4846.87
4823.92
4803.78
4785.16
4768.8
4753.5
4740.07
4727.34
4716.17
4705.46
4696.13
4687.03
4679.16
4671.38
4664.69
4657.99
4652.3
4646.51
4641.63
4636.58
4632.38
4628.01
4624.35
4620.52
4617.4
4614.02
4611.3
4608.31
4605.94
4603.38
4601.31
4599.12
4597.39
4595.44
4593.8
4592.17
4590.76
4589.31
4588.05
4586.82
4585.86
4584.86
4583.98
4583.12
4582.49
4581.66
4581.08
4580.4
4580.03
4579.49
4579.22
4578.71
4578.45
4577.96
4577.73
4577.27
4577.11
4576.8
4576.75
4576.6
4576.69
4576.65
4576.9
4576.9
4577.37
4577.37
4578.06
4578.06
4578.92
4579
4580
4580.06
4581.46
4582.15
4622.59
4737.24
59616.5
8260.75
7564.66
7001.62
6560.91
6220.35
5956.86
5750.03
5585.61
5452.28
5343.15
5252.06
5175.78
5110.59
5055.08
5006.71
4965
4928.06
4895.92
4867.03
4841.75
4818.7
4798.48
4779.79
4763.36
4748
4734.51
4721.72
4710.51
4699.75
4690.38
4681.24
4673.33
4665.52
4658.8
4652.07
4646.35
4640.54
4635.63
4630.55
4626.34
4621.95
4618.27
4614.41
4611.28
4607.89
4605.14
4602.15
4599.76
4597.18
4595.11
4592.9
4591.16
4589.19
4587.55
4585.91
4584.49
4583.02
4581.76
4580.52
4579.55
4578.54
4577.65
4576.78
4576.14
4575.32
4574.73
4574.04
4573.66
4573.12
4572.84
4572.32
4572.06
4571.57
4571.34
4570.87
4570.7
4570.4
4570.34
4570.17
4570.25
4570.21
4570.44
4570.44
4570.9
4570.89
4571.57
4571.57
4572.42
4572.49
4573.48
4573.53
4574.93
4575.64
4617.41
4731.73
56497.9
8260.78
7564.78
7001.56
6560.41
6219.26
5955.18
5747.79
5582.87
5449.12
5339.61
5248.19
5171.63
5106.19
5050.46
5001.9
4960.02
4922.92
4890.66
4861.64
4836.26
4813.11
4792.8
4774.03
4757.52
4742.09
4728.54
4715.69
4704.43
4693.62
4684.2
4675.02
4667.07
4659.22
4652.47
4645.71
4639.96
4634.12
4629.18
4624.08
4619.84
4615.43
4611.73
4607.86
4604.71
4601.29
4598.53
4595.52
4593.12
4590.52
4588.44
4586.21
4584.46
4582.48
4580.83
4579.18
4577.74
4576.27
4575
4573.75
4572.77
4571.75
4570.86
4569.97
4569.33
4568.49
4567.9
4567.2
4566.81
4566.26
4565.98
4565.46
4565.2
4564.7
4564.46
4563.99
4563.82
4563.51
4563.44
4563.26
4563.34
4563.28
4563.5
4563.5
4563.94
4563.93
4564.59
4564.59
4565.43
4565.49
4566.48
4566.52
4567.92
4568.64
4611.85
4725.85
53467.9
8260.8
7564.91
7001.5
6559.87
6218.11
5953.4
5745.41
5579.97
5445.74
5335.83
5244.07
5167.2
5101.5
5045.53
4996.76
4954.7
4917.44
4885.03
4855.88
4830.38
4807.12
4786.72
4767.86
4751.27
4735.76
4722.15
4709.24
4697.92
4687.06
4677.59
4668.37
4660.38
4652.48
4645.7
4638.9
4633.12
4627.24
4622.28
4617.15
4612.89
4608.45
4604.73
4600.84
4597.67
4594.23
4591.46
4588.42
4586.01
4583.4
4581.29
4579.05
4577.29
4575.3
4573.63
4571.97
4570.53
4569.04
4567.76
4566.5
4565.51
4564.48
4563.58
4562.68
4562.03
4561.19
4560.59
4559.88
4559.48
4558.93
4558.64
4558.11
4557.84
4557.34
4557.1
4556.63
4556.45
4556.13
4556.06
4555.87
4555.93
4555.87
4556.07
4556.06
4556.48
4556.48
4557.12
4557.12
4557.94
4558
4558.97
4559.01
4560.4
4561.15
4605.88
4719.59
50530.7
8260.83
7565.05
7001.44
6559.31
6216.9
5951.51
5742.89
5576.88
5442.16
5331.82
5239.68
5162.48
5096.5
5040.28
4991.29
4949.04
4911.6
4879.03
4849.74
4824.11
4800.74
4780.24
4761.28
4744.61
4729.02
4715.34
4702.36
4690.98
4680.06
4670.54
4661.27
4653.23
4645.3
4638.47
4631.63
4625.82
4619.91
4614.92
4609.77
4605.48
4601.01
4597.27
4593.35
4590.15
4586.7
4583.91
4580.86
4578.42
4575.79
4573.67
4571.42
4569.63
4567.63
4565.96
4564.28
4562.82
4561.33
4560.04
4558.76
4557.76
4556.72
4555.81
4554.9
4554.24
4553.39
4552.79
4552.06
4551.66
4551.09
4550.8
4550.26
4549.99
4549.49
4549.25
4548.77
4548.58
4548.26
4548.18
4547.97
4548.02
4547.95
4548.14
4548.13
4548.53
4548.52
4549.14
4549.15
4549.95
4550.01
4550.96
4551
4552.39
4553.16
4599.49
4712.95
47690.1
8260.86
7565.19
7001.38
6558.72
6215.62
5949.52
5740.23
5573.61
5438.37
5327.57
5235.03
5157.48
5091.19
5034.71
4985.48
4943.02
4905.4
4872.66
4843.22
4817.46
4793.97
4773.35
4754.29
4737.54
4721.86
4708.1
4695.05
4683.6
4672.62
4663.05
4653.72
4645.64
4637.66
4630.79
4623.91
4618.06
4612.12
4607.09
4601.91
4597.59
4593.1
4589.33
4585.38
4582.17
4578.69
4575.88
4572.8
4570.35
4567.7
4565.57
4563.29
4561.5
4559.48
4557.79
4556.1
4554.63
4553.12
4551.82
4550.53
4549.52
4548.46
4547.55
4546.62
4545.96
4545.1
4544.49
4543.75
4543.34
4542.76
4542.46
4541.92
4541.65
4541.14
4540.89
4540.41
4540.21
4539.89
4539.79
4539.58
4539.61
4539.53
4539.7
4539.69
4540.07
4540.06
4540.66
4540.66
4541.45
4541.5
4542.44
4542.47
4543.86
4544.66
4592.67
4705.94
44949.5
8260.89
7565.34
7001.31
6558.11
6214.28
5947.42
5737.42
5570.17
5434.37
5323.08
5230.11
5152.2
5085.58
5028.82
4979.33
4936.65
4898.83
4865.92
4836.32
4810.41
4786.79
4766.05
4746.89
4730.03
4714.27
4700.42
4687.3
4675.79
4664.73
4655.1
4645.72
4637.59
4629.55
4622.64
4615.72
4609.84
4603.85
4598.79
4593.57
4589.22
4584.7
4580.91
4576.93
4573.69
4570.19
4567.36
4564.27
4561.79
4559.13
4556.97
4554.68
4552.86
4550.83
4549.13
4547.42
4545.94
4544.42
4543.11
4541.79
4540.77
4539.71
4538.78
4537.84
4537.17
4536.3
4535.68
4534.93
4534.52
4533.93
4533.62
4533.07
4532.79
4532.28
4532.02
4531.53
4531.33
4531
4530.9
4530.67
4530.69
4530.6
4530.75
4530.73
4531.09
4531.09
4531.66
4531.66
4532.44
4532.48
4533.4
4533.43
4534.81
4535.64
4585.39
4698.53
42311.8
8260.92
7565.5
7001.26
6557.47
6212.89
5945.23
5734.48
5566.55
5430.15
5318.35
5224.93
5146.63
5079.67
5022.6
4972.85
4929.93
4891.89
4858.8
4829.02
4802.97
4779.2
4758.35
4739.06
4722.11
4706.24
4692.31
4679.1
4667.52
4656.4
4646.7
4637.26
4629.07
4620.99
4614.03
4607.06
4601.13
4595.11
4590.02
4584.76
4580.38
4575.82
4572
4567.99
4564.73
4561.21
4558.35
4555.23
4552.74
4550.05
4547.88
4545.56
4543.73
4541.68
4539.96
4538.23
4536.74
4535.2
4533.88
4532.56
4531.52
4530.44
4529.5
4528.55
4527.87
4526.98
4526.36
4525.6
4525.18
4524.57
4524.26
4523.7
4523.42
4522.9
4522.64
4522.14
4521.94
4521.59
4521.49
4521.25
4521.25
4521.14
4521.28
4521.25
4521.59
4521.59
4522.13
4522.14
4522.9
4522.93
4523.84
4523.86
4525.24
4526.1
4577.64
4690.68
39780
8260.95
7565.67
7001.2
6556.82
6211.43
5942.93
5731.39
5562.76
5425.73
5313.38
5219.49
5140.77
5073.44
5016.05
4966.02
4922.85
4884.59
4851.29
4821.34
4795.12
4771.21
4750.22
4730.81
4713.75
4697.78
4683.76
4670.46
4658.8
4647.6
4637.84
4628.33
4620.09
4611.95
4604.94
4597.92
4591.95
4585.88
4580.75
4575.46
4571.04
4566.45
4562.6
4558.56
4555.27
4551.72
4548.84
4545.7
4543.18
4540.47
4538.28
4535.94
4534.09
4532.02
4530.29
4528.54
4527.04
4525.48
4524.15
4522.8
4521.75
4520.66
4519.71
4518.74
4518.05
4517.15
4516.52
4515.75
4515.31
4514.7
4514.38
4513.81
4513.52
4513
4512.73
4512.23
4512.02
4511.66
4511.55
4511.3
4511.29
4511.16
4511.29
4511.25
4511.56
4511.56
4512.08
4512.08
4512.82
4512.85
4513.74
4513.75
4515.13
4516.03
4569.38
4682.36
37356.3
8260.98
7565.84
7001.14
6556.14
6209.91
5940.54
5728.17
5558.79
5421.1
5308.18
5213.78
5134.62
5066.9
5009.18
4958.84
4915.41
4876.91
4843.4
4813.26
4786.87
4762.8
4741.67
4722.13
4704.95
4688.87
4674.75
4661.37
4649.62
4638.34
4628.51
4618.93
4610.63
4602.43
4595.37
4588.3
4582.28
4576.17
4571
4565.66
4561.21
4556.58
4552.7
4548.63
4545.31
4541.73
4538.82
4535.66
4533.11
4530.38
4528.17
4525.8
4523.93
4521.85
4520.1
4518.33
4516.81
4515.24
4513.89
4512.53
4511.46
4510.35
4509.4
4508.41
4507.71
4506.8
4506.16
4505.37
4504.93
4504.3
4503.97
4503.39
4503.09
4502.56
4502.29
4501.79
4501.56
4501.2
4501.08
4500.82
4500.79
4500.65
4500.76
4500.71
4500.99
4500.99
4501.49
4501.49
4502.21
4502.23
4503.1
4503.11
4504.48
4505.41
4560.61
4673.53
35042.8
8261.01
7566.02
7001.09
6555.44
6208.34
5938.06
5724.81
5554.64
5416.26
5302.73
5207.8
5128.18
5060.05
5001.97
4951.32
4907.61
4868.85
4835.12
4804.77
4778.21
4753.97
4732.69
4713.02
4695.72
4679.52
4665.3
4651.81
4639.98
4628.62
4618.72
4609.06
4600.7
4592.43
4585.32
4578.19
4572.12
4565.96
4560.75
4555.37
4550.88
4546.21
4542.3
4538.19
4534.84
4531.23
4528.3
4525.1
4522.53
4519.77
4517.54
4515.15
4513.26
4511.15
4509.39
4507.59
4506.06
4504.47
4503.11
4501.73
4500.65
4499.52
4498.55
4497.55
4496.83
4495.91
4495.26
4494.46
4494
4493.36
4493.02
4492.44
4492.13
4491.59
4491.32
4490.8
4490.57
4490.2
4490.07
4489.8
4489.76
4489.6
4489.69
4489.63
4489.89
4489.88
4490.35
4490.35
4491.05
4491.06
4491.91
4491.91
4493.29
4494.25
4551.28
4664.16
32841.2
8261.04
7566.21
7001.04
6554.72
6206.72
5935.48
5721.32
5550.32
5411.21
5297.04
5201.55
5121.45
5052.89
4994.44
4943.45
4899.44
4860.42
4826.46
4795.89
4769.14
4744.72
4723.29
4703.47
4686.04
4669.72
4655.39
4641.8
4629.88
4618.43
4608.44
4598.71
4590.28
4581.95
4574.77
4567.59
4561.47
4555.25
4550
4544.57
4540.04
4535.33
4531.38
4527.24
4523.86
4520.21
4517.25
4514.03
4511.43
4508.64
4506.38
4503.97
4502.06
4499.93
4498.15
4496.33
4494.78
4493.17
4491.8
4490.39
4489.3
4488.15
4487.17
4486.15
4485.42
4484.49
4483.83
4483.01
4482.54
4481.89
4481.53
4480.94
4480.63
4480.08
4479.8
4479.28
4479.04
4478.66
4478.52
4478.24
4478.18
4478
4478.07
4478
4478.23
4478.22
4478.66
4478.66
4479.33
4479.34
4480.16
4480.17
4481.54
4482.54
4541.36
4654.2
30753.2
8261.07
7566.41
7001
6553.98
6205.05
5932.8
5717.69
5545.83
5405.96
5291.12
5195.04
5114.43
5045.42
4986.57
4935.23
4890.91
4851.61
4817.4
4786.61
4759.65
4735.05
4713.45
4693.48
4675.91
4659.47
4645.02
4631.32
4619.3
4607.76
4597.69
4587.88
4579.37
4570.97
4563.73
4556.49
4550.32
4544.04
4538.74
4533.26
4528.69
4523.94
4519.95
4515.77
4512.36
4508.67
4505.68
4502.43
4499.81
4496.99
4494.7
4492.26
4490.32
4488.18
4486.37
4484.53
4482.97
4481.33
4479.95
4478.52
4477.41
4476.24
4475.25
4474.21
4473.47
4472.52
4471.85
4471.02
4470.53
4469.86
4469.5
4468.89
4468.57
4468.02
4467.73
4467.2
4466.95
4466.56
4466.41
4466.12
4466.04
4465.85
4465.9
4465.81
4466.02
4466.01
4466.42
4466.42
4467.06
4467.07
4467.86
4467.86
4469.23
4470.27
4530.81
4643.61
28779.9
8261.09
7566.62
7000.95
6553.23
6203.32
5930.04
5713.94
5541.18
5400.5
5284.96
5188.27
5107.12
5037.64
4978.37
4926.66
4882.01
4842.42
4807.95
4776.92
4749.75
4724.96
4703.19
4683.05
4665.34
4648.75
4634.19
4620.37
4608.25
4596.61
4586.45
4576.56
4567.97
4559.5
4552.2
4544.88
4538.66
4532.33
4526.97
4521.44
4516.83
4512.03
4508
4503.78
4500.33
4496.61
4493.59
4490.3
4487.65
4484.8
4482.49
4480.02
4478.05
4475.88
4474.06
4472.2
4470.61
4468.96
4467.55
4466.1
4464.98
4463.78
4462.78
4461.72
4460.96
4460
4459.32
4458.47
4457.97
4457.28
4456.91
4456.29
4455.97
4455.4
4455.11
4454.57
4454.31
4453.91
4453.74
4453.44
4453.35
4453.14
4453.17
4453.07
4453.26
4453.23
4453.61
4453.61
4454.23
4454.23
4454.99
4454.99
4456.35
4457.44
4519.57
4632.36
26922.6
8261.12
7566.83
7000.92
6552.47
6201.55
5927.2
5710.05
5536.36
5394.84
5278.57
5181.23
5099.52
5029.54
4969.84
4917.74
4872.75
4832.85
4798.1
4766.82
4739.43
4714.43
4692.48
4672.18
4654.31
4637.58
4622.89
4608.95
4596.72
4584.98
4574.73
4564.74
4556.08
4547.53
4540.16
4532.77
4526.49
4520.1
4514.69
4509.11
4504.44
4499.6
4495.53
4491.26
4487.77
4484.02
4480.96
4477.64
4474.96
4472.08
4469.74
4467.23
4465.24
4463.05
4461.2
4459.31
4457.71
4456.03
4454.61
4453.14
4451.99
4450.77
4449.76
4448.67
4447.91
4446.92
4446.23
4445.36
4444.85
4444.15
4443.77
4443.13
4442.8
4442.23
4441.92
4441.38
4441.1
4440.69
4440.52
4440.2
4440.1
4439.87
4439.88
4439.76
4439.92
4439.89
4440.23
4440.23
4440.82
4440.82
4441.55
4441.55
4442.9
4444.03
4507.64
4620.4
25182.3
8261.15
7567.05
7000.89
6551.69
6199.74
5924.27
5706.05
5531.37
5388.98
5271.95
5173.94
5091.63
5021.14
4960.98
4908.47
4863.12
4822.89
4787.86
4756.32
4728.7
4703.48
4681.34
4660.85
4642.83
4625.95
4611.13
4597.06
4584.72
4572.86
4562.52
4552.44
4543.69
4535.05
4527.61
4520.16
4513.8
4507.35
4501.88
4496.25
4491.53
4486.64
4482.53
4478.21
4474.68
4470.89
4467.8
4464.44
4461.73
4458.81
4456.44
4453.9
4451.89
4449.66
4447.8
4445.88
4444.26
4442.55
4441.11
4439.62
4438.45
4437.21
4436.18
4435.07
4434.29
4433.29
4432.58
4431.7
4431.17
4430.45
4430.06
4429.41
4429.06
4428.48
4428.17
4427.61
4427.33
4426.9
4426.72
4426.39
4426.28
4426.03
4426.02
4425.88
4426.02
4425.97
4426.28
4426.28
4426.83
4426.83
4427.53
4427.53
4428.87
4430.04
4494.99
4607.71
23559.7
8261.18
7567.27
7000.87
6550.9
6197.88
5921.26
5701.92
5526.23
5382.93
5265.1
5166.38
5083.46
5012.42
4951.78
4898.85
4853.13
4812.56
4777.22
4745.41
4717.54
4692.1
4669.75
4649.08
4630.89
4613.86
4598.89
4584.69
4572.23
4560.26
4549.81
4539.63
4530.8
4522.07
4514.56
4507.02
4500.6
4494.08
4488.56
4482.86
4478.1
4473.15
4468.99
4464.63
4461.06
4457.22
4454.09
4450.69
4447.95
4444.99
4442.6
4440.03
4437.98
4435.73
4433.84
4431.89
4430.25
4428.51
4427.06
4425.54
4424.35
4423.08
4422.04
4420.91
4420.11
4419.09
4418.37
4417.47
4416.93
4416.19
4415.78
4415.11
4414.76
4414.17
4413.85
4413.28
4412.99
4412.54
4412.35
4412
4411.88
4411.62
4411.58
4411.42
4411.54
4411.48
4411.76
4411.75
4412.27
4412.27
4412.92
4412.93
4414.26
4415.47
4481.62
4594.24
22051.6
8261.2
7567.5
7000.85
6550.11
6195.99
5918.17
5697.68
5520.93
5376.68
5258.02
5158.57
5075.01
5003.4
4942.26
4888.88
4842.76
4801.84
4766.19
4734.08
4705.96
4680.29
4657.73
4636.86
4618.5
4601.3
4586.18
4571.84
4559.26
4547.16
4536.61
4526.33
4517.4
4508.59
4500.99
4493.38
4486.89
4480.29
4474.71
4468.95
4464.13
4459.12
4454.92
4450.5
4446.89
4443.01
4439.84
4436.4
4433.62
4430.63
4428.2
4425.59
4423.52
4421.24
4419.32
4417.34
4415.68
4413.92
4412.44
4410.89
4409.68
4408.39
4407.34
4406.17
4405.36
4404.32
4403.59
4402.66
4402.11
4401.35
4400.92
4400.25
4399.88
4399.28
4398.95
4398.37
4398.06
4397.61
4397.4
4397.03
4396.9
4396.62
4396.57
4396.39
4396.47
4396.4
4396.65
4396.64
4397.12
4397.12
4397.73
4397.74
4399.07
4400.31
4467.53
4579.96
20653.2
8261.22
7567.74
7000.85
6549.31
6194.06
5915.01
5693.32
5515.48
5370.25
5250.72
5150.51
5066.27
4994.07
4932.41
4878.56
4832.04
4790.74
4754.76
4722.36
4693.97
4668.04
4645.27
4624.19
4605.64
4588.27
4573
4558.51
4545.8
4533.58
4522.91
4512.52
4503.5
4494.59
4486.91
4479.21
4472.65
4465.98
4460.33
4454.51
4449.63
4444.56
4440.31
4435.84
4432.18
4428.25
4425.04
4421.56
4418.74
4415.71
4413.25
4410.6
4408.5
4406.18
4404.24
4402.23
4400.54
4398.75
4397.26
4395.68
4394.45
4393.13
4392.06
4390.87
4390.03
4388.97
4388.23
4387.28
4386.71
4385.93
4385.49
4384.8
4384.42
4383.8
4383.47
4382.88
4382.56
4382.09
4381.87
4381.49
4381.34
4381.04
4380.97
4380.77
4380.83
4380.74
4380.96
4380.93
4381.38
4381.38
4381.95
4381.96
4383.28
4384.55
4452.7
4564.82
19359.6
8261.25
7567.99
7000.85
6548.5
6192.1
5911.78
5688.86
5509.88
5363.63
5243.2
5142.19
5057.26
4984.44
4922.24
4867.9
4820.95
4779.26
4742.94
4710.22
4681.55
4655.37
4632.36
4611.07
4592.33
4574.78
4559.35
4544.7
4531.85
4519.5
4508.72
4498.21
4489.09
4480.08
4472.31
4464.52
4457.88
4451.14
4445.42
4439.53
4434.59
4429.46
4425.16
4420.63
4416.92
4412.94
4409.69
4406.17
4403.31
4400.24
4397.74
4395.06
4392.91
4390.57
4388.6
4386.55
4384.84
4383.02
4381.51
4379.9
4378.64
4377.29
4376.2
4374.99
4374.14
4373.05
4372.29
4371.32
4370.74
4369.93
4369.48
4368.77
4368.38
4367.75
4367.4
4366.8
4366.47
4365.98
4365.74
4365.35
4365.18
4364.88
4364.79
4364.56
4364.59
4364.49
4364.67
4364.64
4365.04
4365.04
4365.58
4365.58
4366.89
4368.2
4437.15
4548.8
18165.6
8261.27
7568.23
7000.86
6547.69
6190.11
5908.49
5684.29
5504.13
5356.83
5235.47
5133.63
5047.98
4974.51
4911.74
4856.9
4809.5
4767.41
4730.72
4697.67
4668.71
4642.26
4619.01
4597.5
4578.56
4560.81
4545.22
4530.41
4517.42
4504.93
4494.02
4483.39
4474.17
4465.05
4457.19
4449.31
4442.59
4435.77
4429.98
4424.01
4419.01
4413.82
4409.46
4404.87
4401.12
4397.08
4393.79
4390.22
4387.32
4384.2
4381.67
4378.94
4376.77
4374.39
4372.39
4370.31
4368.57
4366.72
4365.18
4363.54
4362.26
4360.88
4359.77
4358.53
4357.66
4356.55
4355.77
4354.78
4354.18
4353.35
4352.88
4352.15
4351.75
4351.11
4350.75
4350.13
4349.79
4349.28
4349.03
4348.62
4348.44
4348.11
4348.01
4347.76
4347.77
4347.64
4347.79
4347.75
4348.11
4348.11
4348.6
4348.6
4349.91
4351.24
4420.86
4531.87
17065.8
8261.29
7568.49
7000.88
6546.88
6188.09
5905.14
5679.62
5498.25
5349.85
5227.53
5124.83
5038.42
4964.29
4900.93
4845.56
4797.69
4755.18
4718.12
4684.73
4655.46
4628.73
4605.23
4583.48
4564.33
4546.39
4530.61
4515.64
4502.5
4489.86
4478.83
4468.07
4458.73
4449.51
4441.55
4433.58
4426.77
4419.86
4414
4407.96
4402.89
4397.63
4393.21
4388.57
4384.76
4380.67
4377.33
4373.71
4370.77
4367.61
4365.04
4362.27
4360.05
4357.63
4355.61
4353.49
4351.72
4349.84
4348.28
4346.6
4345.3
4343.89
4342.76
4341.49
4340.6
4339.46
4338.67
4337.66
4337.03
4336.18
4335.7
4334.95
4334.53
4333.87
4333.5
4332.87
4332.52
4331.99
4331.73
4331.3
4331.1
4330.76
4330.64
4330.37
4330.35
4330.19
4330.32
4330.26
4330.58
4330.58
4331.03
4331.03
4332.32
4333.67
4403.82
4513.98
16054.5
8261.3
7568.75
7000.91
6546.07
6186.05
5901.73
5674.86
5492.24
5342.71
5219.38
5115.79
5028.61
4953.77
4889.8
4833.88
4785.53
4742.57
4705.13
4671.38
4641.79
4614.76
4591
4569.01
4549.64
4531.49
4515.53
4500.38
4487.09
4474.3
4463.13
4452.24
4442.79
4433.45
4425.4
4417.32
4410.43
4403.43
4397.49
4391.37
4386.23
4380.9
4376.42
4371.71
4367.85
4363.7
4360.32
4356.64
4353.66
4350.45
4347.84
4345.02
4342.77
4340.31
4338.25
4336.1
4334.3
4332.38
4330.8
4329.09
4327.76
4326.32
4325.17
4323.86
4322.95
4321.79
4320.98
4319.94
4319.3
4318.42
4317.92
4317.15
4316.72
4316.04
4315.66
4315.02
4314.65
4314.11
4313.83
4313.37
4313.17
4312.8
4312.66
4312.38
4312.33
4312.15
4312.24
4312.16
4312.45
4312.44
4312.85
4312.84
4314.12
4315.49
4386.03
4495.11
15125.8
8261.32
7569.01
7000.95
6545.27
6184
5898.27
5670.01
5486.1
5335.4
5211.03
5106.53
5018.53
4942.97
4878.37
4821.87
4773.02
4729.6
4691.75
4657.63
4627.71
4600.38
4576.34
4554.09
4534.5
4516.13
4499.98
4484.65
4471.19
4458.24
4446.94
4435.91
4426.34
4416.88
4408.72
4400.54
4393.55
4386.46
4380.44
4374.24
4369.03
4363.62
4359.08
4354.31
4350.39
4346.18
4342.74
4339.02
4335.99
4332.73
4330.07