/*--------------------------------*- C++ -*----------------------------------*\
| =========                 |                                                 |
| \\      /  F ield         | OpenFOAM: The Open Source CFD Toolbox           |
|  \\    /   O peration     | Version:  v2012                                 |
|   \\  /    A nd           | Website:  www.openfoam.com                      |
|    \\/     M anipulation  |                                                 |
\*---------------------------------------------------------------------------*/
FoamFile
{
    version     2.0;
    format      ascii;
    class       volScalarField;
    location    "33.5";
    object      yPlus;
}
// * * * * * * * * * * * * * * * * * * * * * * * * * * * * * * * * * * * * * //

dimensions      [0 0 0 0 0 0 0];


internalField   uniform 0;

boundaryField
{
    inlet
    {
        type            calculated;
        value           uniform 0;
    }
    outlet
    {
        type            calculated;
        value           uniform 0;
    }
    topWall
    {
        type            calculated;
        value           nonuniform List<scalar> 
545
(
0.111219
0.191777
0.246031
0.289208
0.325761
0.357746
0.386316
0.412198
0.435887
0.457737
0.478016
0.496929
0.514639
0.53128
0.546961
0.561774
0.575797
0.589096
0.601731
0.613753
0.625205
0.636129
0.64656
0.656529
0.666066
0.675198
0.683948
0.692337
0.700387
0.708115
0.715539
0.722674
0.729535
0.736136
0.742489
0.748606
0.754499
0.760177
0.765651
0.770929
0.77602
0.780932
0.785674
0.790251
0.794672
0.798942
0.803068
0.807055
0.810909
0.814636
0.818239
0.821725
0.825097
0.82836
0.831518
0.834574
0.837534
0.840399
0.843174
0.845861
0.848465
0.850987
0.853432
0.8558
0.858096
0.860322
0.86248
0.864572
0.866601
0.868568
0.870476
0.872327
0.8741
0.875815
0.877516
0.879204
0.880879
0.88254
0.884188
0.885823
0.887446
0.889056
0.890653
0.892237
0.89381
0.89537
0.896918
0.898454
0.899978
0.901491
0.902992
0.904481
0.905959
0.907426
0.908881
0.910326
0.911627
0.912791
0.913955
0.915119
0.916283
0.917447
0.91861
0.919773
0.920936
0.922099
0.923262
0.924424
0.925587
0.926749
0.927911
0.929073
0.930234
0.931395
0.932556
0.933717
0.934877
0.936038
0.937198
0.938357
0.939517
0.940676
0.941835
0.942993
0.944151
0.945309
0.946467
0.947624
0.948781
0.949937
0.951093
0.952249
0.953404
0.954559
0.955714
0.956868
0.958022
0.959175
0.960328
0.961481
0.962633
0.963785
0.964936
0.966087
0.967237
0.968387
0.969536
0.970685
0.971833
0.972981
0.974128
0.975275
0.976421
0.977566
0.978711
0.979856
0.980999
0.982143
0.983285
0.984427
0.985569
0.98671
0.98785
0.988989
0.990128
0.991266
0.992404
0.993541
0.994677
0.995812
0.996947
0.998081
0.999214
1.00035
1.00148
1.00261
1.00374
1.00487
1.006
1.00713
1.00825
1.00938
1.0105
1.01163
1.01275
1.01387
1.015
1.01612
1.01724
1.01836
1.01948
1.02059
1.02171
1.02282
1.02394
1.02505
1.02616
1.02728
1.02839
1.0295
1.0306
1.03171
1.03282
1.03392
1.03503
1.03613
1.03723
1.03833
1.03943
1.04053
1.04163
1.04272
1.04382
1.04491
1.04601
1.0471
1.04819
1.04928
1.05036
1.05145
1.05254
1.05362
1.0547
1.05578
1.05686
1.05794
1.05902
1.0601
1.06117
1.06224
1.06331
1.06438
1.06545
1.06652
1.06759
1.06865
1.06971
1.07078
1.07184
1.07289
1.07395
1.07501
1.07606
1.07711
1.07816
1.07921
1.08026
1.08131
1.08235
1.08339
1.08443
1.08547
1.08651
1.08755
1.08858
1.08961
1.09064
1.09167
1.0927
1.09372
1.09475
1.09577
1.09679
1.09781
1.09882
1.09984
1.10085
1.10186
1.10287
1.10382
1.10471
1.10562
1.10653
1.10744
1.10836
1.10929
1.11022
1.11117
1.11211
1.11306
1.11402
1.11499
1.11596
1.11694
1.11792
1.11891
1.11991
1.12091
1.12192
1.12293
1.12395
1.12498
1.12601
1.12705
1.12809
1.12914
1.13019
1.13125
1.13232
1.13339
1.13447
1.13555
1.13664
1.13774
1.13884
1.13994
1.14105
1.14217
1.14329
1.14441
1.14554
1.14668
1.14782
1.14896
1.15011
1.15127
1.15243
1.15359
1.15476
1.15593
1.1571
1.15828
1.15946
1.16065
1.16184
1.16303
1.16423
1.16543
1.16663
1.16784
1.16905
1.17026
1.17147
1.17269
1.17391
1.17513
1.17635
1.17757
1.1788
1.18002
1.18125
1.18248
1.18371
1.18494
1.18617
1.1874
1.18863
1.18986
1.19109
1.19232
1.19354
1.19477
1.19599
1.19722
1.19844
1.19966
1.20087
1.20209
1.2033
1.20451
1.20571
1.20691
1.20811
1.2093
1.21049
1.21167
1.21285
1.21402
1.21518
1.21634
1.2175
1.21864
1.21978
1.22091
1.22204
1.22315
1.22426
1.22536
1.22645
1.22753
1.2286
1.22966
1.23071
1.23175
1.23278
1.2338
1.2348
1.23579
1.23677
1.23774
1.23869
1.23963
1.24056
1.24147
1.24237
1.24325
1.24411
1.24496
1.24579
1.24661
1.24741
1.24819
1.24895
1.2497
1.25043
1.25113
1.25182
1.25249
1.25314
1.25377
1.25438
1.25496
1.25553
1.25607
1.2566
1.2571
1.25757
1.25803
1.25846
1.25887
1.25925
1.25961
1.25995
1.26026
1.26054
1.2608
1.26104
1.26125
1.26143
1.26159
1.26173
1.26183
1.26191
1.26197
1.26199
1.262
1.26197
1.26192
1.26184
1.26173
1.2616
1.26143
1.26125
1.26103
1.26079
1.26052
1.26022
1.2599
1.25955
1.25917
1.25872
1.25819
1.25763
1.25704
1.25643
1.25579
1.25512
1.25443
1.25371
1.25298
1.25223
1.25145
1.25067
1.24986
1.24904
1.24821
1.24737
1.24651
1.24564
1.24477
1.24389
1.24299
1.2421
1.24119
1.24028
1.23937
1.23846
1.23754
1.23662
1.2357
1.23478
1.23386
1.23294
1.23203
1.23111
1.2302
1.2293
1.22839
1.2275
1.22661
1.22572
1.22484
1.22397
1.22311
1.22225
1.22141
1.22057
1.21974
1.21892
1.21812
1.21732
1.21654
1.21576
1.215
1.21426
1.21352
1.2128
1.21209
1.2114
1.21072
1.21006
1.20941
1.20878
1.20816
1.20756
1.20698
1.20641
1.20586
1.20532
1.20481
1.20431
1.20383
1.20337
1.20293
1.2025
1.2021
1.20171
1.20135
1.201
1.20067
1.20037
1.20008
1.19981
1.19957
1.19934
1.19913
1.19895
1.19879
1.19864
1.19852
1.19842
1.19834
1.19828
1.19825
1.19821
)
;
    }
    bottomWall
    {
        type            calculated;
        value           nonuniform List<scalar> 
449
(
0.13942
0.088949
0.0758138
0.0694646
0.0653186
0.0622634
0.0599134
0.058175
0.0571735
0.057317
0.0599733
0.0640141
0.0669958
0.0687097
0.0696275
0.0701129
0.0703356
0.0703853
0.0703113
0.0701693
0.069978
0.0697589
0.0695256
0.0692866
0.0690469
0.0688097
0.0685764
0.0683485
0.0681269
0.0679118
0.0677033
0.0675014
0.0673058
0.0671163
0.0669328
0.0667548
0.0665821
0.0664145
0.0662519
0.066094
0.0659406
0.0657915
0.0656464
0.0655051
0.0653676
0.0652335
0.0651028
0.0649753
0.0648509
0.064729
0.0646096
0.0644922
0.0643769
0.0642637
0.0641524
0.0640432
0.0639359
0.0638306
0.0637272
0.0636256
0.0635259
0.0634278
0.0633315
0.0632368
0.0631437
0.0630522
0.0629622
0.0628736
0.0627864
0.0627006
0.062616
0.0625328
0.0624507
0.0623699
0.0622902
0.0622117
0.0621344
0.0620581
0.0619829
0.0619088
0.0618356
0.0617635
0.0616923
0.061622
0.0615527
0.0614842
0.0614166
0.0613498
0.0612838
0.0612186
0.0611542
0.0610906
0.0610277
0.0609656
0.0609041
0.0608434
0.0607833
0.0607239
0.0606651
0.060607
0.0605494
0.0604924
0.060436
0.0603801
0.0603248
0.0602701
0.0602159
0.0601622
0.0601091
0.0600564
0.0600043
0.0599526
0.0599015
0.0598507
0.0598005
0.0597507
0.0597013
0.0596524
0.059604
0.0595559
0.0595082
0.059461
0.0594141
0.0593676
0.0593215
0.0592758
0.0592305
0.0591855
0.0591409
0.0590966
0.0590527
0.0590091
0.0589658
0.0589229
0.0588803
0.058838
0.058796
0.0587544
0.058713
0.0586719
0.0586311
0.0585906
0.0585504
0.0585105
0.0584709
0.0584315
0.0583923
0.0583534
0.0583147
0.0582763
0.0582381
0.0582002
0.0581626
0.0581251
0.058088
0.058051
0.0580143
0.0579778
0.0579416
0.0579056
0.0578698
0.0578341
0.0577988
0.0577636
0.0577287
0.0576939
0.0576593
0.057625
0.0575909
0.0575569
0.0575231
0.0574896
0.0574562
0.0574249
0.0573954
0.0573658
0.0573361
0.0573063
0.0572764
0.0572464
0.0572163
0.057186
0.0571557
0.0571252
0.0570947
0.057064
0.0570333
0.0570024
0.0569715
0.0569404
0.0569092
0.056878
0.0568466
0.0568151
0.0567836
0.0567519
0.0567202
0.0566883
0.0566564
0.0566243
0.0565922
0.05656
0.0565277
0.0564952
0.0564628
0.0564302
0.0563975
0.0563647
0.0563318
0.0562988
0.0562658
0.0562326
0.0561993
0.056166
0.0561326
0.056099
0.0560655
0.0560318
0.0559981
0.0559642
0.0559304
0.0558964
0.0558623
0.0558282
0.055794
0.0557598
0.0557255
0.0556911
0.0556566
0.0556221
0.0555875
0.0555528
0.0555181
0.0554833
0.0554485
0.0554136
0.0553787
0.0553437
0.0553086
0.0552735
0.0552383
0.0552031
0.0551678
0.0551325
0.0550972
0.0550618
0.0550263
0.0549908
0.0549553
0.0549197
0.0548841
0.0548485
0.0548128
0.0547771
0.0547413
0.0547056
0.0546698
0.0546339
0.0545981
0.0545622
0.0545263
0.0544904
0.0544544
0.0544185
0.0543825
0.0543465
0.0543105
0.0542744
0.0542384
0.0542023
0.0541663
0.0541302
0.054094
0.0540579
0.0540218
0.0539857
0.0539495
0.0539134
0.0538773
0.0538412
0.0538051
0.053769
0.0537329
0.0536968
0.0536608
0.0536247
0.0535887
0.0535527
0.0535167
0.0534807
0.0534448
0.0534089
0.053373
0.0533371
0.0533012
0.0532654
0.0532296
0.0531939
0.0531581
0.0531224
0.0530868
0.0530512
0.0530156
0.05298
0.0529445
0.052909
0.0528736
0.0528382
0.0528028
0.0527675
0.0527323
0.0526971
0.0526619
0.0526268
0.0525917
0.0525566
0.0525217
0.0524867
0.0524518
0.052417
0.0523822
0.0523475
0.0523128
0.0522782
0.0522436
0.0522091
0.0521746
0.0521402
0.0521059
0.0520716
0.0520374
0.0520032
0.0519691
0.051935
0.051901
0.0518671
0.0518332
0.0517994
0.0517656
0.0517319
0.0516983
0.0516647
0.0516312
0.0515978
0.0515644
0.0515311
0.0514979
0.0514648
0.0514317
0.0513987
0.0513658
0.0513329
0.0513001
0.0512673
0.051231
0.0511915
0.0511527
0.0511144
0.0510768
0.0510396
0.0510031
0.050967
0.0509316
0.0508966
0.0508621
0.0508281
0.0507947
0.0507616
0.0507291
0.0506969
0.0506652
0.0506339
0.0506031
0.0505726
0.0505426
0.0505129
0.0504836
0.0504546
0.0504261
0.0503978
0.0503699
0.0503423
0.0503151
0.0502882
0.0502616
0.0502353
0.0502094
0.0501836
0.0501583
0.0501331
0.0501083
0.0500837
0.0500594
0.0500353
0.0500116
0.049988
0.0499647
0.0499416
0.0499188
0.0498962
0.0498739
0.0498517
0.0498298
0.049808
0.0497865
0.0497652
0.0497441
0.0497231
0.0497025
0.0496819
0.0496617
0.0496415
0.0496216
0.0496017
0.0495822
0.0495626
0.0495435
0.0495243
0.0495054
0.0494865
0.049468
0.0494494
0.0494312
0.0494129
0.049395
0.049377
0.0493594
0.0493416
0.0493243
0.0493068
0.0492898
0.0492725
0.0492558
0.0492388
0.0492223
0.0492055
0.0491892
0.0491726
0.0491566
0.0491402
0.0491242
0.0491083
0.0490919
0.0490773
0.0490584
0.0490489
0.0490209
0.0490271
0.0489893
)
;
    }
    symmetry
    {
        type            symmetryPlane;
    }
    frontAndBack
    {
        type            empty;
    }
}


// ************************************************************************* //
