/*--------------------------------*- C++ -*----------------------------------*\
| =========                 |                                                 |
| \\      /  F ield         | OpenFOAM: The Open Source CFD Toolbox           |
|  \\    /   O peration     | Version:  v2012                                 |
|   \\  /    A nd           | Website:  www.openfoam.com                      |
|    \\/     M anipulation  |                                                 |
\*---------------------------------------------------------------------------*/
FoamFile
{
    version     2.0;
    format      ascii;
    class       volScalarField;
    location    "35.5";
    object      omega;
}
// * * * * * * * * * * * * * * * * * * * * * * * * * * * * * * * * * * * * * //

dimensions      [0 0 -1 0 0 0 0];


internalField   nonuniform List<scalar> 
209825
(
8261.01
7565.21
7000.79
6557.59
6214.29
5948.32
5739.39
5573.25
5438.53
5328.25
5236.21
5159.14
5093.29
5037.2
4988.35
4946.22
4908.91
4876.46
4847.28
4821.75
4798.48
4778.06
4759.19
4742.6
4727.08
4713.46
4700.56
4689.23
4678.37
4668.9
4659.68
4651.69
4643.8
4637.02
4630.22
4624.44
4618.57
4613.61
4608.49
4604.22
4599.79
4596.07
4592.17
4589.01
4585.58
4582.81
4579.78
4577.35
4574.75
4572.64
4570.4
4568.63
4566.66
4564.99
4563.33
4561.89
4560.41
4559.13
4557.85
4556.85
4555.83
4554.93
4554.02
4553.38
4552.55
4551.95
4551.23
4550.83
4550.27
4549.99
4549.47
4549.21
4548.73
4548.49
4548.01
4547.81
4547.46
4547.34
4547.07
4547.12
4547.07
4547.25
4547.25
4547.64
4547.64
4548.26
4548.26
4549.08
4549.11
4550.08
4550.11
4551.36
4551.99
4582.71
4698.25
113368
8261.01
7565.21
7000.79
6557.58
6214.27
5948.28
5739.34
5573.19
5438.46
5328.18
5236.13
5159.05
5093.19
5037.11
4988.24
4946.12
4908.8
4876.34
4847.16
4821.63
4798.36
4777.93
4759.06
4742.47
4726.95
4713.33
4700.42
4689.1
4678.24
4668.77
4659.54
4651.55
4643.66
4636.88
4630.08
4624.3
4618.43
4613.47
4608.34
4604.08
4599.65
4595.92
4592.03
4588.86
4585.43
4582.66
4579.63
4577.21
4574.6
4572.49
4570.25
4568.48
4566.51
4564.84
4563.18
4561.74
4560.26
4558.98
4557.7
4556.7
4555.68
4554.78
4553.87
4553.23
4552.39
4551.8
4551.08
4550.68
4550.12
4549.83
4549.31
4549.06
4548.57
4548.34
4547.86
4547.66
4547.3
4547.19
4546.91
4546.96
4546.92
4547.1
4547.09
4547.49
4547.49
4548.11
4548.11
4548.92
4548.95
4549.92
4549.96
4551.21
4551.83
4582.61
4698.13
110069
8261.01
7565.22
7000.79
6557.55
6214.19
5948.16
5739.18
5573
5438.23
5327.92
5235.85
5158.75
5092.87
5036.77
4987.89
4945.75
4908.42
4875.96
4846.77
4821.23
4797.95
4777.52
4758.64
4742.04
4726.52
4712.9
4699.98
4688.66
4677.79
4668.32
4659.09
4651.1
4643.2
4636.41
4629.61
4623.83
4617.96
4613
4607.87
4603.6
4599.17
4595.45
4591.55
4588.38
4584.95
4582.18
4579.15
4576.72
4574.11
4572.01
4569.76
4567.99
4566.02
4564.35
4562.68
4561.24
4559.76
4558.48
4557.2
4556.21
4555.18
4554.28
4553.38
4552.73
4551.9
4551.3
4550.58
4550.18
4549.62
4549.33
4548.81
4548.56
4548.07
4547.83
4547.36
4547.16
4546.8
4546.68
4546.41
4546.46
4546.41
4546.59
4546.59
4546.98
4546.98
4547.6
4547.6
4548.41
4548.44
4549.41
4549.44
4550.69
4551.32
4582.21
4697.68
106283
8261.01
7565.23
7000.78
6557.49
6214.06
5947.96
5738.9
5572.65
5437.84
5327.48
5235.37
5158.23
5092.32
5036.19
4987.29
4945.13
4907.78
4875.3
4846.09
4820.54
4797.25
4776.81
4757.92
4741.31
4725.78
4712.15
4699.23
4687.9
4677.02
4667.54
4658.31
4650.31
4642.42
4635.62
4628.82
4623.04
4617.16
4612.19
4607.06
4602.79
4598.36
4594.63
4590.73
4587.56
4584.13
4581.35
4578.32
4575.89
4573.28
4571.17
4568.93
4567.16
4565.18
4563.51
4561.84
4560.4
4558.92
4557.64
4556.36
4555.36
4554.33
4553.43
4552.52
4551.88
4551.04
4550.45
4549.72
4549.32
4548.76
4548.47
4547.96
4547.7
4547.21
4546.97
4546.5
4546.3
4545.94
4545.82
4545.55
4545.6
4545.55
4545.72
4545.72
4546.11
4546.11
4546.72
4546.72
4547.54
4547.57
4548.53
4548.57
4549.82
4550.44
4581.51
4696.91
102391
8261.01
7565.25
7000.77
6557.4
6213.87
5947.66
5738.51
5572.17
5437.27
5326.84
5234.67
5157.49
5091.54
5035.37
4986.43
4944.24
4906.87
4874.36
4845.13
4819.56
4796.25
4775.79
4756.89
4740.27
4724.73
4711.09
4698.15
4686.81
4675.93
4666.44
4657.2
4649.2
4641.29
4634.49
4627.68
4621.9
4616.01
4611.04
4605.91
4601.64
4597.19
4593.47
4589.56
4586.39
4582.95
4580.17
4577.14
4574.71
4572.1
4569.98
4567.74
4565.96
4563.99
4562.31
4560.64
4559.2
4557.72
4556.43
4555.15
4554.15
4553.13
4552.22
4551.31
4550.67
4549.83
4549.23
4548.5
4548.1
4547.54
4547.25
4546.73
4546.48
4545.99
4545.75
4545.27
4545.07
4544.71
4544.59
4544.32
4544.36
4544.31
4544.48
4544.48
4544.87
4544.87
4545.48
4545.48
4546.29
4546.32
4547.28
4547.32
4548.57
4549.2
4580.5
4695.8
98494.8
8261.02
7565.28
7000.76
6557.28
6213.62
5947.27
5737.99
5571.53
5436.53
5326.02
5233.77
5156.52
5090.51
5034.29
4985.31
4943.08
4905.67
4873.13
4843.88
4818.28
4794.95
4774.47
4755.55
4738.91
4723.35
4709.7
4696.75
4685.4
4674.5
4665.01
4655.76
4647.74
4639.83
4633.02
4626.2
4620.41
4614.52
4609.54
4604.4
4600.13
4595.68
4591.95
4588.04
4584.86
4581.42
4578.64
4575.6
4573.16
4570.55
4568.43
4566.18
4564.41
4562.43
4560.75
4559.08
4557.63
4556.15
4554.86
4553.58
4552.58
4551.55
4550.64
4549.73
4549.08
4548.24
4547.64
4546.92
4546.51
4545.95
4545.66
4545.14
4544.88
4544.39
4544.15
4543.68
4543.47
4543.11
4542.99
4542.72
4542.76
4542.7
4542.87
4542.87
4543.25
4543.25
4543.86
4543.86
4544.67
4544.7
4545.66
4545.69
4546.94
4547.57
4579.18
4694.36
94636.4
8261.03
7565.32
7000.75
6557.14
6213.31
5946.79
5737.34
5570.74
5435.62
5325
5232.66
5155.32
5089.24
5032.96
4983.93
4941.65
4904.19
4871.62
4842.33
4816.7
4793.34
4772.83
4753.89
4737.23
4721.65
4707.98
4695.01
4683.65
4672.74
4663.23
4653.97
4645.94
4638.02
4631.2
4624.37
4618.57
4612.67
4607.69
4602.54
4598.26
4593.8
4590.07
4586.15
4582.97
4579.52
4576.73
4573.69
4571.25
4568.63
4566.52
4564.26
4562.48
4560.5
4558.82
4557.14
4555.69
4554.21
4552.92
4551.63
4550.62
4549.59
4548.69
4547.77
4547.12
4546.28
4545.68
4544.95
4544.54
4543.97
4543.69
4543.16
4542.91
4542.42
4542.18
4541.7
4541.49
4541.13
4541.01
4540.73
4540.77
4540.71
4540.87
4540.87
4541.25
4541.25
4541.85
4541.85
4542.66
4542.68
4543.64
4543.67
4544.92
4545.56
4577.55
4692.58
90834.1
8261.04
7565.36
7000.73
6556.97
6212.94
5946.21
5736.58
5569.81
5434.53
5323.78
5231.33
5153.89
5087.73
5031.37
4982.27
4939.93
4902.43
4869.8
4840.47
4814.81
4791.41
4770.88
4751.9
4735.22
4719.62
4705.92
4692.94
4681.55
4670.62
4661.1
4651.82
4643.79
4635.85
4629.02
4622.18
4616.37
4610.46
4605.47
4600.32
4596.02
4591.56
4587.82
4583.89
4580.7
4577.25
4574.46
4571.41
4568.97
4566.34
4564.22
4561.96
4560.18
4558.19
4556.51
4554.83
4553.37
4551.88
4550.59
4549.3
4548.29
4547.26
4546.35
4545.43
4544.78
4543.93
4543.33
4542.6
4542.19
4541.62
4541.33
4540.8
4540.54
4540.05
4539.81
4539.33
4539.12
4538.76
4538.64
4538.36
4538.39
4538.33
4538.49
4538.48
4538.85
4538.85
4539.45
4539.45
4540.25
4540.28
4541.23
4541.26
4542.5
4543.15
4575.6
4690.47
87096.9
8261.04
7565.41
7000.71
6556.78
6212.51
5945.54
5735.68
5568.71
5433.26
5322.36
5229.78
5152.23
5085.96
5029.52
4980.34
4937.93
4900.36
4867.69
4838.3
4812.6
4789.16
4768.59
4749.59
4732.87
4717.24
4703.52
4690.52
4679.11
4668.16
4658.62
4649.33
4641.27
4633.32
4626.48
4619.63
4613.8
4607.88
4602.88
4597.72
4593.41
4588.94
4585.19
4581.26
4578.06
4574.6
4571.8
4568.75
4566.3
4563.67
4561.54
4559.27
4557.49
4555.49
4553.81
4552.12
4550.67
4549.17
4547.88
4546.58
4545.57
4544.53
4543.62
4542.69
4542.04
4541.19
4540.59
4539.85
4539.44
4538.86
4538.57
4538.04
4537.78
4537.29
4537.05
4536.57
4536.36
4535.99
4535.87
4535.59
4535.61
4535.54
4535.7
4535.69
4536.06
4536.06
4536.64
4536.65
4537.44
4537.47
4538.41
4538.44
4539.68
4540.33
4573.33
4688.01
83427.4
8261.05
7565.47
7000.69
6556.56
6212.03
5944.78
5734.67
5567.47
5431.81
5320.74
5228
5150.32
5083.94
5027.39
4978.12
4935.64
4898
4865.26
4835.83
4810.07
4786.58
4765.98
4746.93
4730.18
4714.52
4700.77
4687.74
4676.31
4665.34
4655.78
4646.46
4638.39
4630.42
4623.57
4616.7
4610.86
4604.93
4599.91
4594.74
4590.42
4585.94
4582.18
4578.24
4575.03
4571.57
4568.76
4565.7
4563.24
4560.6
4558.47
4556.19
4554.4
4552.4
4550.71
4549.02
4547.56
4546.06
4544.76
4543.46
4542.44
4541.4
4540.49
4539.56
4538.9
4538.05
4537.44
4536.7
4536.29
4535.71
4535.41
4534.88
4534.62
4534.13
4533.88
4533.4
4533.19
4532.82
4532.69
4532.41
4532.43
4532.35
4532.5
4532.5
4532.85
4532.85
4533.43
4533.43
4534.22
4534.24
4535.18
4535.21
4536.45
4537.11
4570.74
4685.21
79823.7
8261.07
7565.53
7000.67
6556.31
6211.48
5943.93
5733.52
5566.06
5430.18
5318.9
5226
5148.17
5081.66
5025
4975.63
4933.06
4895.34
4862.53
4833.03
4807.21
4783.68
4763.02
4743.93
4727.15
4711.45
4697.67
4684.6
4673.15
4662.15
4652.56
4643.23
4635.14
4627.15
4620.28
4613.39
4607.54
4601.59
4596.56
4591.37
4587.05
4582.55
4578.78
4574.83
4571.61
4568.14
4565.32
4562.25
4559.79
4557.14
4555
4552.72
4550.92
4548.91
4547.22
4545.52
4544.06
4542.55
4541.25
4539.94
4538.92
4537.87
4536.95
4536.01
4535.35
4534.5
4533.89
4533.14
4532.73
4532.14
4531.85
4531.31
4531.05
4530.55
4530.31
4529.82
4529.61
4529.23
4529.11
4528.82
4528.83
4528.75
4528.89
4528.88
4529.23
4529.23
4529.8
4529.8
4530.58
4530.6
4531.53
4531.56
4532.8
4533.47
4567.82
4682.06
76280.3
8261.08
7565.6
7000.64
6556.03
6210.88
5942.98
5732.24
5564.49
5428.36
5316.87
5223.77
5145.77
5079.11
5022.33
4972.84
4930.17
4892.36
4859.48
4829.9
4804.03
4780.43
4759.72
4740.59
4723.76
4708.02
4694.2
4681.1
4669.61
4658.59
4648.98
4639.61
4631.5
4623.49
4616.6
4609.69
4603.82
4597.86
4592.82
4587.61
4583.27
4578.77
4574.98
4571.02
4567.79
4564.31
4561.48
4558.4
4555.93
4553.27
4551.12
4548.83
4547.02
4545.01
4543.31
4541.61
4540.14
4538.62
4537.32
4536
4534.97
4533.92
4533
4532.06
4531.39
4530.53
4529.92
4529.17
4528.75
4528.16
4527.86
4527.32
4527.05
4526.56
4526.31
4525.82
4525.6
4525.23
4525.1
4524.81
4524.81
4524.72
4524.86
4524.85
4525.18
4525.18
4525.74
4525.74
4526.52
4526.53
4527.46
4527.48
4528.72
4529.4
4564.56
4678.56
72792.8
8261.09
7565.68
7000.62
6555.73
6210.21
5941.93
5730.84
5562.77
5426.36
5314.61
5221.3
5143.13
5076.3
5019.38
4969.77
4926.99
4889.08
4856.1
4826.45
4800.5
4776.84
4756.08
4736.88
4720.01
4704.22
4690.37
4677.23
4665.71
4654.65
4645.01
4635.62
4627.48
4619.45
4612.53
4605.6
4599.72
4593.73
4588.67
4583.45
4579.1
4574.58
4570.78
4566.8
4563.56
4560.06
4557.23
4554.14
4551.66
4548.99
4546.83
4544.53
4542.72
4540.7
4538.99
4537.27
4535.8
4534.28
4532.97
4531.65
4530.61
4529.55
4528.63
4527.68
4527.01
4526.14
4525.53
4524.77
4524.34
4523.75
4523.45
4522.91
4522.64
4522.14
4521.89
4521.39
4521.17
4520.79
4520.66
4520.37
4520.36
4520.26
4520.39
4520.38
4520.7
4520.7
4521.25
4521.25
4522.02
4522.03
4522.95
4522.97
4524.2
4524.9
4560.96
4674.72
69367.9
8261.11
7565.76
7000.59
6555.41
6209.49
5940.79
5729.3
5560.88
5424.16
5312.15
5218.6
5140.22
5073.22
5016.14
4966.39
4923.49
4885.47
4852.4
4822.66
4796.63
4772.9
4752.07
4732.82
4715.9
4700.06
4686.16
4672.98
4661.42
4650.32
4640.65
4631.23
4623.07
4615
4608.07
4601.12
4595.21
4589.2
4584.12
4578.88
4574.51
4569.97
4566.16
4562.17
4558.92
4555.41
4552.56
4549.46
4546.97
4544.29
4542.12
4539.81
4537.99
4535.96
4534.24
4532.52
4531.04
4529.51
4528.19
4526.86
4525.82
4524.75
4523.82
4522.86
4522.19
4521.32
4520.7
4519.94
4519.51
4518.91
4518.6
4518.05
4517.78
4517.28
4517.03
4516.53
4516.31
4515.92
4515.79
4515.5
4515.48
4515.37
4515.49
4515.47
4515.79
4515.79
4516.32
4516.32
4517.08
4517.09
4517.99
4518.01
4519.25
4519.95
4557.02
4670.53
66011.5
8261.12
7565.85
7000.57
6555.06
6208.7
5939.55
5727.64
5558.83
5421.77
5309.47
5215.67
5137.07
5069.87
5012.62
4962.72
4919.68
4881.55
4848.37
4818.53
4792.42
4768.61
4747.71
4728.39
4711.41
4695.52
4681.57
4668.34
4656.74
4645.61
4635.9
4626.45
4618.25
4610.16
4603.2
4596.22
4590.29
4584.26
4579.16
4573.9
4569.51
4564.96
4561.13
4557.12
4553.85
4550.33
4547.47
4544.35
4541.85
4539.16
4536.98
4534.66
4532.82
4530.79
4529.06
4527.33
4525.84
4524.3
4522.98
4521.64
4520.59
4519.51
4518.58
4517.62
4516.94
4516.06
4515.43
4514.67
4514.23
4513.62
4513.31
4512.76
4512.49
4511.98
4511.72
4511.23
4511
4510.61
4510.47
4510.18
4510.15
4510.03
4510.14
4510.12
4510.42
4510.42
4510.94
4510.94
4511.68
4511.69
4512.59
4512.6
4513.83
4514.56
4552.72
4665.99
62729.3
8261.14
7565.95
7000.54
6554.68
6207.86
5938.22
5725.84
5556.62
5419.19
5306.57
5212.49
5133.65
5066.24
5008.8
4958.74
4915.56
4877.29
4844
4814.06
4787.85
4763.96
4742.98
4723.6
4706.55
4690.6
4676.59
4663.32
4651.67
4640.5
4630.75
4621.26
4613.03
4604.91
4597.91
4590.91
4584.95
4578.9
4573.78
4568.49
4564.09
4559.51
4555.67
4551.64
4548.36
4544.82
4541.95
4538.82
4536.3
4533.6
4531.41
4529.07
4527.22
4525.18
4523.45
4521.7
4520.21
4518.66
4517.33
4515.98
4514.92
4513.83
4512.9
4511.92
4511.23
4510.35
4509.72
4508.95
4508.5
4507.89
4507.57
4507.02
4506.74
4506.23
4505.97
4505.47
4505.24
4504.85
4504.7
4504.41
4504.37
4504.23
4504.34
4504.31
4504.59
4504.59
4505.1
4505.1
4505.83
4505.84
4506.72
4506.73
4507.96
4508.7
4548.06
4661.1
59526.5
8261.15
7566.06
7000.51
6554.28
6206.96
5936.79
5723.91
5554.24
5416.42
5303.46
5209.08
5129.97
5062.33
5004.69
4954.45
4911.11
4872.71
4839.29
4809.23
4782.93
4758.94
4737.88
4718.42
4701.3
4685.29
4671.23
4657.9
4646.2
4634.98
4625.19
4615.66
4607.4
4599.24
4592.21
4585.18
4579.19
4573.11
4567.97
4562.66
4558.23
4553.64
4549.78
4545.73
4542.43
4538.87
4535.98
4532.84
4530.31
4527.59
4525.39
4523.04
4521.18
4519.12
4517.38
4515.62
4514.12
4512.56
4511.22
4509.86
4508.8
4507.7
4506.76
4505.77
4505.08
4504.19
4503.56
4502.77
4502.32
4501.7
4501.38
4500.82
4500.54
4500.02
4499.76
4499.26
4499.02
4498.62
4498.47
4498.18
4498.13
4497.98
4498.07
4498.04
4498.31
4498.31
4498.8
4498.8
4499.52
4499.52
4500.39
4500.4
4501.63
4502.39
4543.02
4655.87
56408
8261.17
7566.17
7000.49
6553.86
6206
5935.27
5721.85
5551.7
5413.45
5300.12
5205.42
5126.03
5058.14
5000.29
4949.85
4906.35
4867.79
4834.23
4804.05
4777.64
4753.55
4732.41
4712.86
4695.67
4679.59
4665.46
4652.08
4640.33
4629.05
4619.22
4609.65
4601.34
4593.15
4586.09
4579.02
4573.01
4566.9
4561.73
4556.39
4551.94
4547.32
4543.44
4539.37
4536.06
4532.48
4529.58
4526.41
4523.87
4521.14
4518.92
4516.56
4514.68
4512.62
4510.86
4509.09
4507.58
4506.01
4504.67
4503.29
4502.22
4501.11
4500.16
4499.16
4498.46
4497.57
4496.93
4496.13
4495.68
4495.05
4494.72
4494.15
4493.87
4493.35
4493.09
4492.58
4492.33
4491.93
4491.78
4491.48
4491.42
4491.26
4491.34
4491.3
4491.55
4491.55
4492.02
4492.02
4492.73
4492.73
4493.58
4493.59
4494.81
4495.6
4537.6
4650.28
53378.2
8261.19
7566.3
7000.46
6553.41
6204.98
5933.65
5719.66
5549
5410.29
5296.56
5201.51
5121.82
5053.67
4995.58
4944.94
4901.25
4862.53
4828.83
4798.52
4771.99
4747.79
4726.55
4706.92
4689.65
4673.49
4659.3
4645.85
4634.04
4622.71
4612.83
4603.21
4594.87
4586.63
4579.54
4572.43
4566.39
4560.24
4555.05
4549.69
4545.21
4540.56
4536.66
4532.57
4529.23
4525.64
4522.72
4519.54
4516.98
4514.23
4512
4509.61
4507.73
4505.65
4503.88
4502.1
4500.58
4499
4497.64
4496.26
4495.17
4494.05
4493.1
4492.09
4491.38
4490.47
4489.83
4489.03
4488.56
4487.92
4487.59
4487.02
4486.73
4486.2
4485.94
4485.42
4485.18
4484.76
4484.6
4484.3
4484.23
4484.06
4484.13
4484.08
4484.32
4484.31
4484.77
4484.77
4485.45
4485.45
4486.29
4486.3
4487.52
4488.33
4531.78
4644.35
50441.4
8261.21
7566.42
7000.44
6552.95
6203.91
5931.94
5717.34
5546.12
5406.93
5292.78
5197.35
5117.34
5048.91
4990.57
4939.71
4895.82
4856.93
4823.07
4792.62
4765.97
4741.65
4720.31
4700.58
4683.22
4666.98
4652.72
4639.2
4627.34
4615.95
4606.02
4596.35
4587.96
4579.68
4572.55
4565.4
4559.32
4553.15
4547.92
4542.53
4538.03
4533.35
4529.43
4525.31
4521.96
4518.34
4515.4
4512.2
4509.62
4506.85
4504.61
4502.21
4500.31
4498.21
4496.44
4494.64
4493.1
4491.51
4490.15
4488.75
4487.66
4486.52
4485.56
4484.54
4483.82
4482.9
4482.25
4481.44
4480.97
4480.32
4479.98
4479.4
4479.1
4478.58
4478.31
4477.79
4477.53
4477.12
4476.95
4476.64
4476.57
4476.38
4476.44
4476.37
4476.6
4476.59
4477.03
4477.02
4477.69
4477.69
4478.51
4478.52
4479.73
4480.57
4525.55
4638.07
47601.2
8261.22
7566.56
7000.42
6552.46
6202.79
5930.13
5714.89
5543.09
5403.38
5288.77
5192.95
5112.6
5043.86
4985.26
4934.16
4890.06
4850.98
4816.96
4786.36
4759.57
4735.13
4713.68
4693.84
4676.4
4660.07
4645.74
4632.14
4620.21
4608.76
4598.78
4589.05
4580.61
4572.29
4565.11
4557.93
4551.81
4545.6
4540.34
4534.92
4530.39
4525.69
4521.74
4517.59
4514.21
4510.57
4507.61
4504.39
4501.8
4499.01
4496.75
4494.33
4492.41
4490.3
4488.51
4486.7
4485.16
4483.55
4482.17
4480.76
4479.66
4478.51
4477.54
4476.5
4475.78
4474.85
4474.19
4473.37
4472.89
4472.23
4471.89
4471.3
4471
4470.46
4470.19
4469.66
4469.41
4468.98
4468.81
4468.49
4468.41
4468.2
4468.25
4468.18
4468.39
4468.38
4468.79
4468.79
4469.44
4469.43
4470.24
4470.24
4471.45
4472.32
4518.89
4631.43
44861.1
8261.24
7566.7
7000.4
6551.95
6201.61
5928.24
5712.31
5539.89
5399.63
5284.54
5188.3
5107.58
5038.52
4979.63
4928.28
4883.97
4844.68
4810.49
4779.72
4752.79
4728.22
4706.65
4686.71
4669.16
4652.75
4638.33
4624.66
4612.66
4601.14
4591.1
4581.31
4572.83
4564.45
4557.23
4550
4543.85
4537.6
4532.31
4526.85
4522.29
4517.55
4513.58
4509.41
4506
4502.34
4499.36
4496.11
4493.5
4490.69
4488.41
4485.97
4484.04
4481.92
4480.11
4478.28
4476.72
4475.1
4473.72
4472.29
4471.17
4470.01
4469.03
4467.98
4467.25
4466.31
4465.65
4464.81
4464.32
4463.65
4463.3
4462.7
4462.39
4461.85
4461.58
4461.05
4460.78
4460.35
4460.17
4459.85
4459.75
4459.54
4459.57
4459.48
4459.67
4459.66
4460.05
4460.05
4460.68
4460.67
4461.45
4461.45
4462.66
4463.56
4511.78
4624.39
42224.2
8261.26
7566.85
7000.38
6551.42
6200.38
5926.25
5709.6
5536.52
5395.68
5280.08
5183.4
5102.29
5032.88
4973.7
4922.08
4877.53
4838.03
4803.65
4772.71
4745.63
4720.92
4699.22
4679.17
4661.52
4645
4630.5
4616.74
4604.68
4593.09
4582.98
4573.13
4564.59
4556.16
4548.9
4541.62
4535.42
4529.13
4523.8
4518.31
4513.72
4508.95
4504.95
4500.75
4497.32
4493.62
4490.62
4487.36
4484.72
4481.89
4479.59
4477.13
4475.18
4473.04
4471.22
4469.37
4467.8
4466.16
4464.77
4463.32
4462.19
4461.02
4460.03
4458.96
4458.22
4457.27
4456.6
4455.75
4455.26
4454.57
4454.21
4453.6
4453.29
4452.74
4452.46
4451.93
4451.65
4451.21
4451.03
4450.7
4450.6
4450.37
4450.38
4450.28
4450.46
4450.44
4450.8
4450.8
4451.4
4451.4
4452.16
4452.16
4453.36
4454.3
4504.2
4616.92
39693.1
8261.28
7567.01
7000.36
6550.88
6199.09
5924.17
5706.76
5532.99
5391.54
5275.4
5178.25
5096.72
5026.96
4967.45
4915.55
4870.75
4831.03
4796.45
4765.33
4738.08
4713.22
4691.4
4671.21
4653.46
4636.84
4622.24
4608.4
4596.25
4584.59
4574.41
4564.5
4555.9
4547.42
4540.1
4532.78
4526.54
4520.2
4514.83
4509.3
4504.67
4499.87
4495.84
4491.61
4488.15
4484.43
4481.4
4478.11
4475.45
4472.6
4470.28
4467.8
4465.83
4463.67
4461.84
4459.97
4458.38
4456.73
4455.32
4453.86
4452.72
4451.52
4450.53
4449.44
4448.69
4447.73
4447.05
4446.19
4445.68
4444.99
4444.62
4444
4443.68
4443.13
4442.84
4442.3
4442.02
4441.57
4441.37
4441.03
4440.93
4440.68
4440.69
4440.57
4440.72
4440.7
4441.04
4441.04
4441.62
4441.62
4442.35
4442.35
4443.54
4444.52
4496.13
4609
37270.3
8261.3
7567.18
7000.35
6550.32
6197.76
5922.01
5703.79
5529.3
5387.2
5270.5
5172.84
5090.89
5020.73
4960.89
4908.69
4863.63
4823.66
4788.87
4757.56
4730.15
4705.13
4683.16
4662.85
4644.98
4628.25
4613.55
4599.62
4587.39
4575.64
4565.4
4555.42
4546.76
4538.21
4530.84
4523.46
4517.18
4510.79
4505.39
4499.81
4495.15
4490.31
4486.25
4481.98
4478.5
4474.75
4471.69
4468.38
4465.69
4462.82
4460.48
4457.97
4455.98
4453.8
4451.95
4450.06
4448.46
4446.79
4445.37
4443.89
4442.73
4441.52
4440.51
4439.41
4438.65
4437.67
4436.98
4436.11
4435.6
4434.89
4434.51
4433.88
4433.55
4432.99
4432.7
4432.15
4431.86
4431.41
4431.2
4430.85
4430.74
4430.49
4430.47
4430.34
4430.47
4430.44
4430.75
4430.75
4431.31
4431.31
4432.01
4432.01
4433.2
4434.21
4487.53
4600.57
34957.8
8261.31
7567.35
7000.35
6549.74
6196.38
5919.76
5700.71
5525.45
5382.66
5265.37
5167.19
5084.77
5014.21
4954.02
4901.5
4856.16
4815.94
4780.93
4749.41
4721.82
4696.64
4674.52
4654.07
4636.07
4619.23
4604.43
4590.39
4578.08
4566.25
4555.93
4545.87
4537.15
4528.54
4521.12
4513.68
4507.34
4500.91
4495.46
4489.84
4485.14
4480.26
4476.17
4471.87
4468.35
4464.57
4461.49
4458.14
4455.44
4452.53
4450.17
4447.64
4445.63
4443.42
4441.56
4439.65
4438.03
4436.34
4434.91
4433.41
4432.24
4431.01
4429.99
4428.87
4428.09
4427.1
4426.41
4425.52
4424.99
4424.27
4423.88
4423.24
4422.91
4422.34
4422.04
4421.48
4421.19
4420.72
4420.51
4420.15
4420.02
4419.76
4419.73
4419.58
4419.7
4419.65
4419.94
4419.94
4420.46
4420.46
4421.14
4421.14
4422.32
4423.38
4478.38
4591.62
32757.5
8261.33
7567.53
7000.34
6549.15
6194.95
5917.43
5697.49
5521.43
5377.94
5260.01
5161.28
5078.38
5007.4
4946.83
4893.98
4848.34
4807.86
4772.61
4740.88
4713.1
4687.74
4665.46
4644.87
4626.74
4609.77
4594.87
4580.73
4568.32
4556.4
4546
4535.87
4527.07
4518.39
4510.91
4503.42
4497.03
4490.54
4485.05
4479.39
4474.64
4469.72
4465.59
4461.25
4457.7
4453.89
4450.78
4447.41
4444.67
4441.74
4439.35
4436.8
4434.76
4432.54
4430.65
4428.72
4427.09
4425.37
4423.93
4422.41
4421.22
4419.97
4418.94
4417.81
4417.02
4416.01
4415.3
4414.4
4413.86
4413.12
4412.72
4412.08
4411.73
4411.15
4410.85
4410.28
4409.98
4409.5
4409.28
4408.91
4408.78
4408.51
4408.46
4408.29
4408.39
4408.33
4408.59
4408.59
4409.08
4409.09
4409.73
4409.73
4410.91
4412.01
4468.64
4582.08
30670.7
8261.35
7567.71
7000.35
6548.54
6193.48
5915.01
5694.16
5517.26
5373.02
5254.44
5155.12
5071.72
5000.29
4939.33
4886.12
4840.17
4799.41
4763.92
4731.96
4703.98
4678.43
4655.99
4635.24
4616.98
4599.88
4584.86
4570.61
4558.1
4546.09
4535.61
4525.39
4516.53
4507.78
4500.23
4492.68
4486.23
4479.69
4474.15
4468.44
4463.65
4458.69
4454.52
4450.14
4446.56
4442.7
4439.57
4436.16
4433.4
4430.44
4428.03
4425.44
4423.38
4421.13
4419.23
4417.27
4415.62
4413.89
4412.43
4410.89
4409.68
4408.41
4407.37
4406.21
4405.41
4404.39
4403.67
4402.75
4402.2
4401.45
4401.04
4400.38
4400.03
4399.44
4399.12
4398.55
4398.24
4397.75
4397.52
4397.14
4397
4396.71
4396.65
4396.46
4396.54
4396.47
4396.71
4396.7
4397.16
4397.17
4397.78
4397.78
4398.95
4400.09
4458.27
4571.93
28698.9
8261.36
7567.9
7000.35
6547.92
6191.97
5912.52
5690.71
5512.94
5367.91
5248.64
5148.72
5064.78
4992.88
4931.5
4877.93
4831.66
4790.6
4754.85
4722.65
4694.46
4668.71
4646.1
4625.19
4606.78
4589.55
4574.4
4560.04
4547.43
4535.32
4524.75
4514.44
4505.51
4496.68
4489.07
4481.45
4474.95
4468.35
4462.75
4456.99
4452.16
4447.15
4442.94
4438.52
4434.9
4431.01
4427.84
4424.4
4421.61
4418.62
4416.18
4413.56
4411.48
4409.21
4407.28
4405.3
4403.63
4401.87
4400.4
4398.84
4397.61
4396.32
4395.27
4394.09
4393.27
4392.23
4391.5
4390.57
4390.01
4389.24
4388.81
4388.14
4387.78
4387.18
4386.86
4386.28
4385.96
4385.46
4385.22
4384.83
4384.67
4384.37
4384.3
4384.09
4384.15
4384.06
4384.27
4384.26
4384.69
4384.7
4385.28
4385.28
4386.44
4387.63
4447.23
4561.12
26843.1
8261.38
7568.1
7000.37
6547.29
6190.41
5909.95
5687.15
5508.46
5362.61
5242.62
5142.06
5057.57
4985.18
4923.37
4869.4
4822.79
4781.43
4745.4
4712.95
4684.53
4658.59
4635.79
4614.71
4596.15
4578.77
4563.5
4549.01
4536.3
4524.08
4513.41
4503.02
4494
4485.1
4477.42
4469.73
4463.17
4456.5
4450.86
4445.04
4440.16
4435.1
4430.85
4426.39
4422.73
4418.8
4415.6
4412.12
4409.3
4406.28
4403.81
4401.16
4399.05
4396.75
4394.81
4392.8
4391.11
4389.33
4387.84
4386.25
4385.01
4383.69
4382.63
4381.43
4380.6
4379.54
4378.8
4377.85
4377.27
4376.48
4376.05
4375.36
4374.99
4374.38
4374.05
4373.46
4373.13
4372.62
4372.37
4371.96
4371.8
4371.49
4371.39
4371.17
4371.21
4371.11
4371.29
4371.27
4371.67
4371.67
4372.22
4372.22
4373.37
4374.61
4435.52
4549.61
25104.6
8261.39
7568.31
7000.39
6546.66
6188.82
5907.3
5683.47
5503.83
5357.13
5236.39
5135.17
5050.09
4977.18
4914.92
4860.55
4813.58
4771.89
4735.57
4702.86
4674.21
4648.05
4625.06
4603.8
4585.08
4567.55
4552.15
4537.53
4524.7
4512.37
4501.61
4491.12
4482.02
4473.03
4465.28
4457.51
4450.89
4444.16
4438.46
4432.59
4427.65
4422.54
4418.25
4413.74
4410.04
4406.07
4402.83
4399.32
4396.47
4393.41
4390.91
4388.24
4386.1
4383.77
4381.8
4379.76
4378.06
4376.25
4374.74
4373.13
4371.87
4370.53
4369.45
4368.22
4367.38
4366.3
4365.55
4364.58
4363.98
4363.18
4362.73
4362.03
4361.65
4361.03
4360.69
4360.09
4359.75
4359.23
4358.97
4358.55
4358.37
4358.04
4357.94
4357.69
4357.71
4357.59
4357.75
4357.72
4358.09
4358.09
4358.61
4358.6
4359.74
4361.02
4423.11
4537.36
23484
8261.4
7568.51
7000.42
6546.01
6187.19
5904.59
5679.68
5499.06
5351.47
5229.94
5128.02
5042.34
4968.89
4906.15
4851.36
4804.01
4761.98
4725.36
4692.38
4663.48
4637.1
4613.91
4592.46
4573.57
4555.88
4540.34
4525.59
4512.64
4500.19
4489.33
4478.74
4469.55
4460.47
4452.65
4444.81
4438.11
4431.32
4425.56
4419.62
4414.64
4409.47
4405.14
4400.57
4396.84
4392.82
4389.55
4386
4383.11
4380.01
4377.49
4374.77
4372.61
4370.25
4368.26
4366.19
4364.46
4362.63
4361.1
4359.46
4358.18
4356.81
4355.72
4354.47
4353.61
4352.51
4351.75
4350.76
4350.15
4349.33
4348.86
4348.14
4347.75
4347.12
4346.78
4346.17
4345.82
4345.28
4345.01
4344.57
4344.38
4344.04
4343.92
4343.66
4343.65
4343.52
4343.65
4343.6
4343.94
4343.95
4344.42
4344.42
4345.55
4346.87
4410.02
4524.35
21977.8
8261.41
7568.73
7000.45
6545.36
6185.53
5901.8
5675.79
5494.14
5345.63
5223.28
5120.64
5034.32
4960.3
4897.07
4841.83
4794.09
4751.71
4714.78
4681.51
4652.35
4625.73
4602.33
4580.68
4561.62
4543.77
4528.07
4513.18
4500.11
4487.54
4476.57
4465.88
4456.59
4447.43
4439.52
4431.6
4424.83
4417.97
4412.14
4406.15
4401.11
4395.88
4391.5
4386.89
4383.1
4379.05
4375.73
4372.14
4369.22
4366.08
4363.52
4360.77
4358.58
4356.19
4354.17
4352.07
4350.32
4348.46
4346.91
4345.25
4343.95
4342.55
4341.44
4340.17
4339.29
4338.17
4337.39
4336.38
4335.76
4334.91
4334.44
4333.7
4333.3
4332.65
4332.3
4331.68
4331.32
4330.77
4330.48
4330.03
4329.83
4329.47
4329.34
4329.07
4329.04
4328.88
4328.99
4328.92
4329.23
4329.23
4329.67
4329.66
4330.78
4332.15
4396.24
4510.53
20581.2
8261.42
7568.95
7000.49
6544.71
6183.84
5898.95
5671.79
5489.08
5339.61
5216.42
5113.02
5026.04
4951.43
4887.68
4831.98
4783.83
4741.07
4703.81
4670.24
4640.82
4613.95
4590.33
4568.47
4549.23
4531.2
4515.35
4500.31
4487.11
4474.41
4463.33
4452.53
4443.15
4433.88
4425.89
4417.88
4411.05
4404.11
4398.22
4392.15
4387.06
4381.78
4377.34
4372.67
4368.84
4364.74
4361.38
4357.75
4354.79
4351.61
4349.02
4346.23
4344
4341.58
4339.54
4337.41
4335.64
4333.74
4332.17
4330.48
4329.16
4327.74
4326.61
4325.31
4324.41
4323.27
4322.48
4321.45
4320.81
4319.94
4319.45
4318.7
4318.28
4317.62
4317.26
4316.63
4316.26
4315.69
4315.39
4314.93
4314.71
4314.34
4314.19
4313.9
4313.85
4313.67
4313.75
4313.67
4313.94
4313.94
4314.34
4314.33
4315.44
4316.85
4381.75
4495.87
19289.4
8261.43
7569.18
7000.54
6544.06
6182.13
5896.04
5667.7
5483.89
5333.42
5209.34
5105.16
5017.5
4942.27
4877.98
4821.79
4773.22
4730.08
4692.47
4658.58
4628.88
4601.75
4577.9
4555.83
4536.4
4518.19
4502.18
4486.98
4473.64
4460.81
4449.61
4438.69
4429.21
4419.84
4411.76
4403.67
4396.75
4389.73
4383.78
4377.65
4372.49
4367.14
4362.66
4357.93
4354.05
4349.9
4346.5
4342.82
4339.82
4336.6
4333.98
4331.15
4328.89
4326.43
4324.36
4322.19
4320.4
4318.47
4316.88
4315.16
4313.82
4312.36
4311.22
4309.89
4308.97
4307.81
4307
4305.95
4305.29
4304.41
4303.9
4303.13
4302.7
4302.03
4301.65
4301
4300.62
4300.04
4299.73
4299.25
4299.02
4298.63
4298.47
4298.16
4298.09
4297.88
4297.94
4297.84
4298.08
4298.08
4298.44
4298.42
4299.52
4300.96
4366.56
4480.34
18097.2
8261.44
7569.41
7000.6
6543.4
6180.39
5893.08
5663.51
5478.57
5327.06
5202.07
5097.08
5008.69
4932.83
4867.98
4811.29
4762.27
4718.72
4680.75
4646.54
4616.55
4589.14
4565.05
4542.76
4523.12
4504.72
4488.54
4473.18
4459.7
4446.73
4435.41
4424.37
4414.78
4405.31
4397.14
4388.95
4381.95
4374.85
4368.82
4362.62
4357.4
4351.99
4347.44
4342.66
4338.73
4334.52
4331.08
4327.36
4324.32
4321.05
4318.39
4315.52
4313.22
4310.73
4308.63
4306.43
4304.61
4302.65
4301.04
4299.28
4297.92
4296.43
4295.26
4293.91
4292.97
4291.79
4290.96
4289.88
4289.21
4288.3
4287.78
4286.99
4286.54
4285.86
4285.47
4284.81
4284.42
4283.82
4283.49
4283
4282.75
4282.34
4282.17
4281.84
4281.75
4281.52
4281.56
4281.43
4281.64
4281.63
4281.96
4281.93
4283.02
4284.48
4350.66
4463.9
16999.1
8261.44
7569.64
7000.67
6542.75
6178.63
5890.06
5659.24
5473.12
5320.55
5194.6
5088.76
4999.63
4923.11
4857.67
4800.45
4750.97
4707
4668.66
4634.1
4603.81
4576.12
4551.78
4529.25
4509.4
4490.8
4474.45
4458.92
4445.28
4432.17
4420.72
4409.55
4399.86
4390.27
4382.01
4373.72
4366.64
4359.45
4353.35
4347.07
4341.78
4336.3
4331.7
4326.86
4322.88
4318.61
4315.12
4311.35
4308.27
4304.95
4302.25
4299.34
4297.01
4294.47
4292.35
4290.11
4288.26
4286.27
4284.63
4282.84
4281.45
4279.94
4278.75
4277.37
4276.41
4275.19
4274.35
4273.25
4272.56
4271.63
4271.08
4270.27
4269.82
4269.11
4268.71
4268.04
4267.63
4267.02
4266.68
4266.16
4265.91
4265.48
4265.29
4264.94
4264.84
4264.59
4264.59
4264.44
4264.62
4264.6
4264.89
4264.85
4265.92
4267.42
4334.05
4446.52
15989.5
8261.44
7569.88
7000.75
6542.09
6176.85
5887
5654.88
5467.55
5313.87
5186.95
5080.23
4990.33
4913.11
4847.07
4789.3
4739.33
4694.93
4656.2
4621.28
4590.67
4562.69
4538.09
4515.31
4495.25
4476.44
4459.9
4444.19
4430.4
4417.14
4405.55
4394.25
4384.44
4374.74
4366.37
4357.99
4350.82
4343.54
4337.36
4331
4325.64
4320.09
4315.43
4310.52
4306.48
4302.16
4298.62
4294.8
4291.67
4288.31
4285.57
4282.61
4280.24
4277.67
4275.51
4273.23
4271.35
4269.32
4267.66
4265.84
4264.43
4262.88
4261.67
4260.26
4259.27
4258.03
4257.17
4256.05
4255.34
4254.38
4253.82
4252.99
4252.51
4251.79
4251.38
4250.69
4250.27
4249.64
4249.29
4248.75
4248.48
4248.03
4247.83
4247.46
4247.34
4247.07
4247.04
4246.87
4247.01
4246.98
4247.24
4247.18
4248.24
4249.76
4316.73
4428.18
15062.4
8261.44
7570.12
7000.84
6541.45
6175.06
5883.89
5650.44
5461.86
5307.05
5179.1
5071.48
4980.78
4902.85
4836.17
4777.84
4727.37
4682.5
4643.37
4608.08
4577.14
4548.85
4523.97
4500.94
4480.65
4461.62
4444.89
4429
4415.05
4401.62
4389.9
4378.46
4368.53
4358.71
4350.24
4341.74
4334.48
4327.11
4320.85
4314.4
4308.98
4303.35
4298.63
4293.65
4289.56
4285.17
4281.58
4277.7
4274.53
4271.12