/*--------------------------------*- C++ -*----------------------------------*\
| =========                 |                                                 |
| \\      /  F ield         | OpenFOAM: The Open Source CFD Toolbox           |
|  \\    /   O peration     | Version:  v2012                                 |
|   \\  /    A nd           | Website:  www.openfoam.com                      |
|    \\/     M anipulation  |                                                 |
\*---------------------------------------------------------------------------*/
FoamFile
{
    version     2.0;
    format      ascii;
    class       volVectorField;
    location    "35.5";
    object      wallShearStress;
}
// * * * * * * * * * * * * * * * * * * * * * * * * * * * * * * * * * * * * * //

dimensions      [0 2 -2 0 0 0 0];


internalField   uniform (0 0 0);

boundaryField
{
    inlet
    {
        type            calculated;
        value           uniform (0 0 0);
    }
    outlet
    {
        type            calculated;
        value           uniform (0 0 0);
    }
    topWall
    {
        type            calculated;
        value           nonuniform List<vector> 
545
(
(3.67039e-08 -2.58362e-08 0)
(3.66927e-08 -7.2275e-08 0)
(3.6672e-08 -1.20565e-07 0)
(3.66429e-08 -1.67457e-07 0)
(3.66066e-08 -2.12353e-07 0)
(3.65637e-08 -2.55829e-07 0)
(3.65147e-08 -2.98255e-07 0)
(3.64601e-08 -3.39611e-07 0)
(3.64002e-08 -3.79806e-07 0)
(3.63356e-08 -4.18841e-07 0)
(3.62668e-08 -4.56766e-07 0)
(3.61941e-08 -4.93624e-07 0)
(3.61179e-08 -5.29442e-07 0)
(3.60386e-08 -5.6424e-07 0)
(3.59566e-08 -5.98042e-07 0)
(3.58721e-08 -6.30877e-07 0)
(3.57854e-08 -6.62769e-07 0)
(3.56969e-08 -6.93745e-07 0)
(3.56067e-08 -7.23828e-07 0)
(3.55152e-08 -7.53043e-07 0)
(3.54225e-08 -7.81414e-07 0)
(3.53289e-08 -8.08964e-07 0)
(3.52345e-08 -8.35716e-07 0)
(3.51396e-08 -8.61693e-07 0)
(3.50444e-08 -8.86916e-07 0)
(3.49489e-08 -9.11408e-07 0)
(3.48533e-08 -9.35189e-07 0)
(3.47579e-08 -9.58279e-07 0)
(3.46626e-08 -9.80698e-07 0)
(3.45676e-08 -1.00247e-06 0)
(3.44731e-08 -1.0236e-06 0)
(3.43791e-08 -1.04413e-06 0)
(3.42857e-08 -1.06405e-06 0)
(3.4193e-08 -1.0834e-06 0)
(3.4101e-08 -1.10219e-06 0)
(3.40099e-08 -1.12044e-06 0)
(3.39198e-08 -1.13815e-06 0)
(3.38305e-08 -1.15535e-06 0)
(3.37423e-08 -1.17206e-06 0)
(3.36552e-08 -1.18828e-06 0)
(3.35691e-08 -1.20404e-06 0)
(3.34842e-08 -1.21933e-06 0)
(3.34005e-08 -1.23419e-06 0)
(3.33179e-08 -1.24862e-06 0)
(3.32366e-08 -1.26264e-06 0)
(3.31565e-08 -1.27625e-06 0)
(3.30776e-08 -1.28948e-06 0)
(3.30001e-08 -1.30232e-06 0)
(3.29238e-08 -1.3148e-06 0)
(3.28487e-08 -1.32692e-06 0)
(3.2775e-08 -1.33869e-06 0)
(3.27026e-08 -1.35012e-06 0)
(3.26315e-08 -1.36124e-06 0)
(3.25616e-08 -1.37203e-06 0)
(3.24931e-08 -1.38252e-06 0)
(3.24258e-08 -1.39271e-06 0)
(3.23599e-08 -1.40261e-06 0)
(3.22952e-08 -1.41223e-06 0)
(3.22318e-08 -1.42158e-06 0)
(3.21696e-08 -1.43066e-06 0)
(3.21087e-08 -1.43949e-06 0)
(3.2049e-08 -1.44807e-06 0)
(3.19905e-08 -1.4564e-06 0)
(3.19332e-08 -1.4645e-06 0)
(3.18772e-08 -1.47238e-06 0)
(3.18223e-08 -1.48003e-06 0)
(3.17686e-08 -1.48747e-06 0)
(3.1716e-08 -1.4947e-06 0)
(3.16646e-08 -1.50173e-06 0)
(3.16143e-08 -1.50856e-06 0)
(3.1565e-08 -1.51521e-06 0)
(3.15171e-08 -1.52166e-06 0)
(3.14705e-08 -1.52786e-06 0)
(3.14248e-08 -1.53388e-06 0)
(3.13795e-08 -1.53984e-06 0)
(3.13344e-08 -1.54576e-06 0)
(3.12893e-08 -1.55167e-06 0)
(3.12442e-08 -1.55753e-06 0)
(3.11992e-08 -1.56336e-06 0)
(3.11542e-08 -1.56915e-06 0)
(3.11093e-08 -1.57491e-06 0)
(3.10644e-08 -1.58064e-06 0)
(3.10196e-08 -1.58633e-06 0)
(3.09748e-08 -1.59198e-06 0)
(3.093e-08 -1.5976e-06 0)
(3.08853e-08 -1.60319e-06 0)
(3.08406e-08 -1.60875e-06 0)
(3.0796e-08 -1.61427e-06 0)
(3.07515e-08 -1.61975e-06 0)
(3.0707e-08 -1.62521e-06 0)
(3.06626e-08 -1.63063e-06 0)
(3.06182e-08 -1.63602e-06 0)
(3.05739e-08 -1.64138e-06 0)
(3.05297e-08 -1.6467e-06 0)
(3.04852e-08 -1.652e-06 0)
(3.04423e-08 -1.65721e-06 0)
(3.04023e-08 -1.66199e-06 0)
(3.03645e-08 -1.66632e-06 0)
(3.03279e-08 -1.67053e-06 0)
(3.02916e-08 -1.67476e-06 0)
(3.02551e-08 -1.67903e-06 0)
(3.02185e-08 -1.68331e-06 0)
(3.01817e-08 -1.68759e-06 0)
(3.01447e-08 -1.69187e-06 0)
(3.01076e-08 -1.69616e-06 0)
(3.00702e-08 -1.70045e-06 0)
(3.00327e-08 -1.70475e-06 0)
(2.9995e-08 -1.70905e-06 0)
(2.99572e-08 -1.71335e-06 0)
(2.99191e-08 -1.71766e-06 0)
(2.98809e-08 -1.72198e-06 0)
(2.98425e-08 -1.7263e-06 0)
(2.98039e-08 -1.73062e-06 0)
(2.97651e-08 -1.73495e-06 0)
(2.97262e-08 -1.73929e-06 0)
(2.9687e-08 -1.74362e-06 0)
(2.96477e-08 -1.74797e-06 0)
(2.96082e-08 -1.75231e-06 0)
(2.95685e-08 -1.75666e-06 0)
(2.95286e-08 -1.76102e-06 0)
(2.94886e-08 -1.76538e-06 0)
(2.94483e-08 -1.76974e-06 0)
(2.94079e-08 -1.77411e-06 0)
(2.93672e-08 -1.77849e-06 0)
(2.93264e-08 -1.78286e-06 0)
(2.92854e-08 -1.78725e-06 0)
(2.92442e-08 -1.79163e-06 0)
(2.92028e-08 -1.79602e-06 0)
(2.91613e-08 -1.80041e-06 0)
(2.91195e-08 -1.80481e-06 0)
(2.90775e-08 -1.80921e-06 0)
(2.90354e-08 -1.81362e-06 0)
(2.89931e-08 -1.81803e-06 0)
(2.89505e-08 -1.82244e-06 0)
(2.89078e-08 -1.82686e-06 0)
(2.88649e-08 -1.83128e-06 0)
(2.88217e-08 -1.83571e-06 0)
(2.87784e-08 -1.84014e-06 0)
(2.87349e-08 -1.84457e-06 0)
(2.86912e-08 -1.84901e-06 0)
(2.86473e-08 -1.85345e-06 0)
(2.86032e-08 -1.85789e-06 0)
(2.85589e-08 -1.86234e-06 0)
(2.85144e-08 -1.86679e-06 0)
(2.84697e-08 -1.87125e-06 0)
(2.84248e-08 -1.87571e-06 0)
(2.83797e-08 -1.88017e-06 0)
(2.83345e-08 -1.88463e-06 0)
(2.8289e-08 -1.8891e-06 0)
(2.82433e-08 -1.89357e-06 0)
(2.81974e-08 -1.89805e-06 0)
(2.81513e-08 -1.90253e-06 0)
(2.8105e-08 -1.90701e-06 0)
(2.80585e-08 -1.91149e-06 0)
(2.80118e-08 -1.91598e-06 0)
(2.79649e-08 -1.92047e-06 0)
(2.79178e-08 -1.92497e-06 0)
(2.78704e-08 -1.92946e-06 0)
(2.78229e-08 -1.93396e-06 0)
(2.77752e-08 -1.93847e-06 0)
(2.77273e-08 -1.94297e-06 0)
(2.76791e-08 -1.94748e-06 0)
(2.76308e-08 -1.95199e-06 0)
(2.75822e-08 -1.9565e-06 0)
(2.75335e-08 -1.96102e-06 0)
(2.74845e-08 -1.96554e-06 0)
(2.74353e-08 -1.97006e-06 0)
(2.7386e-08 -1.97459e-06 0)
(2.73364e-08 -1.97911e-06 0)
(2.72866e-08 -1.98364e-06 0)
(2.72366e-08 -1.98817e-06 0)
(2.71863e-08 -1.99271e-06 0)
(2.71359e-08 -1.99724e-06 0)
(2.70853e-08 -2.00178e-06 0)
(2.70344e-08 -2.00632e-06 0)
(2.69834e-08 -2.01087e-06 0)
(2.69321e-08 -2.01541e-06 0)
(2.68806e-08 -2.01996e-06 0)
(2.68289e-08 -2.02451e-06 0)
(2.6777e-08 -2.02906e-06 0)
(2.67249e-08 -2.03361e-06 0)
(2.66726e-08 -2.03817e-06 0)
(2.66201e-08 -2.04272e-06 0)
(2.65673e-08 -2.04728e-06 0)
(2.65143e-08 -2.05184e-06 0)
(2.64612e-08 -2.0564e-06 0)
(2.64078e-08 -2.06096e-06 0)
(2.63542e-08 -2.06553e-06 0)
(2.63003e-08 -2.07009e-06 0)
(2.62463e-08 -2.07466e-06 0)
(2.61921e-08 -2.07923e-06 0)
(2.61376e-08 -2.0838e-06 0)
(2.60829e-08 -2.08837e-06 0)
(2.6028e-08 -2.09294e-06 0)
(2.59729e-08 -2.09752e-06 0)
(2.59176e-08 -2.10209e-06 0)
(2.58621e-08 -2.10667e-06 0)
(2.58063e-08 -2.11124e-06 0)
(2.57503e-08 -2.11582e-06 0)
(2.56942e-08 -2.1204e-06 0)
(2.56378e-08 -2.12498e-06 0)
(2.55811e-08 -2.12956e-06 0)
(2.55243e-08 -2.13414e-06 0)
(2.54673e-08 -2.13872e-06 0)
(2.541e-08 -2.1433e-06 0)
(2.53525e-08 -2.14788e-06 0)
(2.52948e-08 -2.15246e-06 0)
(2.52369e-08 -2.15704e-06 0)
(2.51788e-08 -2.16163e-06 0)
(2.51204e-08 -2.16621e-06 0)
(2.50619e-08 -2.17079e-06 0)
(2.50031e-08 -2.17538e-06 0)
(2.49441e-08 -2.17996e-06 0)
(2.48849e-08 -2.18454e-06 0)
(2.48255e-08 -2.18912e-06 0)
(2.47659e-08 -2.19371e-06 0)
(2.4706e-08 -2.19829e-06 0)
(2.46459e-08 -2.20287e-06 0)
(2.45856e-08 -2.20745e-06 0)
(2.45251e-08 -2.21203e-06 0)
(2.44644e-08 -2.21661e-06 0)
(2.44035e-08 -2.22119e-06 0)
(2.43423e-08 -2.22577e-06 0)
(2.4281e-08 -2.23035e-06 0)
(2.42194e-08 -2.23493e-06 0)
(2.41576e-08 -2.23951e-06 0)
(2.40956e-08 -2.24408e-06 0)
(2.40334e-08 -2.24866e-06 0)
(2.39709e-08 -2.25323e-06 0)
(2.39083e-08 -2.2578e-06 0)
(2.38454e-08 -2.26238e-06 0)
(2.37824e-08 -2.26695e-06 0)
(2.37191e-08 -2.27151e-06 0)
(2.36556e-08 -2.27608e-06 0)
(2.35919e-08 -2.28065e-06 0)
(2.35279e-08 -2.28521e-06 0)
(2.34638e-08 -2.28977e-06 0)
(2.33994e-08 -2.29433e-06 0)
(2.33349e-08 -2.29889e-06 0)
(2.32701e-08 -2.30345e-06 0)
(2.32051e-08 -2.30801e-06 0)
(2.31399e-08 -2.31256e-06 0)
(2.30745e-08 -2.31711e-06 0)
(2.30089e-08 -2.32166e-06 0)
(2.29431e-08 -2.3262e-06 0)
(2.28771e-08 -2.33075e-06 0)
(2.28108e-08 -2.33529e-06 0)
(2.27444e-08 -2.33983e-06 0)
(2.26777e-08 -2.34437e-06 0)
(2.26109e-08 -2.3489e-06 0)
(2.25438e-08 -2.35343e-06 0)
(2.24765e-08 -2.35796e-06 0)
(2.24091e-08 -2.36248e-06 0)
(2.23414e-08 -2.36701e-06 0)
(2.22735e-08 -2.37152e-06 0)
(2.22054e-08 -2.37604e-06 0)
(2.21371e-08 -2.38055e-06 0)
(2.20686e-08 -2.38506e-06 0)
(2.19999e-08 -2.38957e-06 0)
(2.19311e-08 -2.39407e-06 0)
(2.1862e-08 -2.39857e-06 0)
(2.17927e-08 -2.40307e-06 0)
(2.17232e-08 -2.40756e-06 0)
(2.16535e-08 -2.41205e-06 0)
(2.15836e-08 -2.41653e-06 0)
(2.15135e-08 -2.42101e-06 0)
(2.14433e-08 -2.42548e-06 0)
(2.13726e-08 -2.42996e-06 0)
(2.1303e-08 -2.4344e-06 0)
(2.12359e-08 -2.43863e-06 0)
(2.11707e-08 -2.44265e-06 0)
(2.11064e-08 -2.44664e-06 0)
(2.10416e-08 -2.45066e-06 0)
(2.09761e-08 -2.45474e-06 0)
(2.09099e-08 -2.45885e-06 0)
(2.08431e-08 -2.46298e-06 0)
(2.07754e-08 -2.46715e-06 0)
(2.0707e-08 -2.47135e-06 0)
(2.06379e-08 -2.47558e-06 0)
(2.05679e-08 -2.47984e-06 0)
(2.04973e-08 -2.48413e-06 0)
(2.04258e-08 -2.48846e-06 0)
(2.03535e-08 -2.49282e-06 0)
(2.02805e-08 -2.4972e-06 0)
(2.02066e-08 -2.50163e-06 0)
(2.01319e-08 -2.50608e-06 0)
(2.00564e-08 -2.51056e-06 0)
(1.99801e-08 -2.51507e-06 0)
(1.9903e-08 -2.51962e-06 0)
(1.9825e-08 -2.5242e-06 0)
(1.97461e-08 -2.52881e-06 0)
(1.96665e-08 -2.53345e-06 0)
(1.95859e-08 -2.53812e-06 0)
(1.95045e-08 -2.54282e-06 0)
(1.94222e-08 -2.54756e-06 0)
(1.9339e-08 -2.55233e-06 0)
(1.92549e-08 -2.55712e-06 0)
(1.917e-08 -2.56195e-06 0)
(1.90841e-08 -2.56681e-06 0)
(1.89973e-08 -2.5717e-06 0)
(1.89096e-08 -2.57662e-06 0)
(1.8821e-08 -2.58157e-06 0)
(1.87315e-08 -2.58655e-06 0)
(1.8641e-08 -2.59156e-06 0)
(1.85495e-08 -2.59659e-06 0)
(1.84571e-08 -2.60166e-06 0)
(1.83638e-08 -2.60676e-06 0)
(1.82695e-08 -2.61189e-06 0)
(1.81742e-08 -2.61705e-06 0)
(1.80779e-08 -2.62223e-06 0)
(1.79807e-08 -2.62745e-06 0)
(1.78825e-08 -2.63269e-06 0)
(1.77833e-08 -2.63796e-06 0)
(1.7683e-08 -2.64325e-06 0)
(1.75818e-08 -2.64858e-06 0)
(1.74796e-08 -2.65393e-06 0)
(1.73763e-08 -2.6593e-06 0)
(1.72721e-08 -2.66471e-06 0)
(1.71668e-08 -2.67014e-06 0)
(1.70604e-08 -2.67559e-06 0)
(1.69531e-08 -2.68107e-06 0)
(1.68447e-08 -2.68657e-06 0)
(1.67352e-08 -2.6921e-06 0)
(1.66247e-08 -2.69765e-06 0)
(1.65132e-08 -2.70322e-06 0)
(1.64006e-08 -2.70882e-06 0)
(1.62869e-08 -2.71444e-06 0)
(1.61722e-08 -2.72007e-06 0)
(1.60565e-08 -2.72573e-06 0)
(1.59396e-08 -2.73141e-06 0)
(1.58217e-08 -2.73711e-06 0)
(1.57028e-08 -2.74283e-06 0)
(1.55828e-08 -2.74857e-06 0)
(1.54617e-08 -2.75432e-06 0)
(1.53395e-08 -2.76009e-06 0)
(1.52162e-08 -2.76588e-06 0)
(1.50919e-08 -2.77168e-06 0)
(1.49666e-08 -2.7775e-06 0)
(1.48401e-08 -2.78333e-06 0)
(1.47126e-08 -2.78918e-06 0)
(1.4584e-08 -2.79503e-06 0)
(1.44544e-08 -2.8009e-06 0)
(1.43237e-08 -2.80678e-06 0)
(1.4192e-08 -2.81267e-06 0)
(1.40592e-08 -2.81857e-06 0)
(1.39253e-08 -2.82447e-06 0)
(1.37904e-08 -2.83038e-06 0)
(1.36545e-08 -2.8363e-06 0)
(1.35176e-08 -2.84222e-06 0)
(1.33796e-08 -2.84815e-06 0)
(1.32406e-08 -2.85408e-06 0)
(1.31006e-08 -2.86001e-06 0)
(1.29596e-08 -2.86594e-06 0)
(1.28176e-08 -2.87187e-06 0)
(1.26746e-08 -2.87779e-06 0)
(1.25306e-08 -2.88372e-06 0)
(1.23857e-08 -2.88964e-06 0)
(1.22398e-08 -2.89555e-06 0)
(1.2093e-08 -2.90146e-06 0)
(1.19453e-08 -2.90736e-06 0)
(1.17966e-08 -2.91325e-06 0)
(1.16471e-08 -2.91913e-06 0)
(1.14967e-08 -2.925e-06 0)
(1.13454e-08 -2.93085e-06 0)
(1.11932e-08 -2.93669e-06 0)
(1.10402e-08 -2.94251e-06 0)
(1.08864e-08 -2.94831e-06 0)
(1.07319e-08 -2.95409e-06 0)
(1.05765e-08 -2.95986e-06 0)
(1.04204e-08 -2.9656e-06 0)
(1.02635e-08 -2.97131e-06 0)
(1.0106e-08 -2.977e-06 0)
(9.9477e-09 -2.98267e-06 0)
(9.78879e-09 -2.9883e-06 0)
(9.62924e-09 -2.9939e-06 0)
(9.46907e-09 -2.99947e-06 0)
(9.30832e-09 -3.00501e-06 0)
(9.14701e-09 -3.01051e-06 0)
(8.98517e-09 -3.01597e-06 0)
(8.82284e-09 -3.02139e-06 0)
(8.66003e-09 -3.02677e-06 0)
(8.49678e-09 -3.03211e-06 0)
(8.33313e-09 -3.0374e-06 0)
(8.1691e-09 -3.04265e-06 0)
(8.00474e-09 -3.04784e-06 0)
(7.84007e-09 -3.05299e-06 0)
(7.67513e-09 -3.05808e-06 0)
(7.50996e-09 -3.06312e-06 0)
(7.34459e-09 -3.06811e-06 0)
(7.17907e-09 -3.07303e-06 0)
(7.01344e-09 -3.0779e-06 0)
(6.84772e-09 -3.0827e-06 0)
(6.68197e-09 -3.08744e-06 0)
(6.51623e-09 -3.09211e-06 0)
(6.35053e-09 -3.09671e-06 0)
(6.18492e-09 -3.10125e-06 0)
(6.01945e-09 -3.10571e-06 0)
(5.85416e-09 -3.1101e-06 0)
(5.6891e-09 -3.11441e-06 0)
(5.52431e-09 -3.11864e-06 0)
(5.35984e-09 -3.12279e-06 0)
(5.19573e-09 -3.12686e-06 0)
(5.03204e-09 -3.13085e-06 0)
(4.86881e-09 -3.13475e-06 0)
(4.7061e-09 -3.13857e-06 0)
(4.54395e-09 -3.14229e-06 0)
(4.38241e-09 -3.14592e-06 0)
(4.22154e-09 -3.14946e-06 0)
(4.06138e-09 -3.15291e-06 0)
(3.902e-09 -3.15625e-06 0)
(3.74343e-09 -3.1595e-06 0)
(3.58573e-09 -3.16264e-06 0)
(3.42897e-09 -3.16569e-06 0)
(3.27318e-09 -3.16862e-06 0)
(3.11842e-09 -3.17146e-06 0)
(2.96475e-09 -3.17418e-06 0)
(2.81222e-09 -3.17679e-06 0)
(2.66089e-09 -3.1793e-06 0)
(2.5108e-09 -3.18168e-06 0)
(2.36202e-09 -3.18396e-06 0)
(2.21459e-09 -3.18612e-06 0)
(2.06856e-09 -3.18816e-06 0)
(1.924e-09 -3.19008e-06 0)
(1.78095e-09 -3.19189e-06 0)
(1.63947e-09 -3.19357e-06 0)
(1.4996e-09 -3.19513e-06 0)
(1.36141e-09 -3.19656e-06 0)
(1.22492e-09 -3.19787e-06 0)
(1.09021e-09 -3.19905e-06 0)
(9.57316e-10 -3.20011e-06 0)
(8.26284e-10 -3.20103e-06 0)
(6.97163e-10 -3.20183e-06 0)
(5.7e-10 -3.2025e-06 0)
(4.4484e-10 -3.20304e-06 0)
(3.21727e-10 -3.20345e-06 0)
(2.00706e-10 -3.20372e-06 0)
(8.18171e-11 -3.20386e-06 0)
(-3.48969e-11 -3.20387e-06 0)
(-1.49396e-10 -3.20375e-06 0)
(-2.61641e-10 -3.20349e-06 0)
(-3.71595e-10 -3.2031e-06 0)
(-4.79219e-10 -3.20258e-06 0)
(-5.8448e-10 -3.20192e-06 0)
(-6.87343e-10 -3.20112e-06 0)
(-7.87772e-10 -3.2002e-06 0)
(-8.85747e-10 -3.19914e-06 0)
(-9.81188e-10 -3.19794e-06 0)
(-1.07428e-09 -3.19662e-06 0)
(-1.1641e-09 -3.19515e-06 0)
(-1.25439e-09 -3.19356e-06 0)
(-1.34928e-09 -3.19166e-06 0)
(-1.44566e-09 -3.18938e-06 0)
(-1.53953e-09 -3.18694e-06 0)
(-1.62889e-09 -3.18435e-06 0)
(-1.71356e-09 -3.18163e-06 0)
(-1.79361e-09 -3.17877e-06 0)
(-1.86913e-09 -3.17578e-06 0)
(-1.94023e-09 -3.17268e-06 0)
(-2.00704e-09 -3.16947e-06 0)
(-2.06969e-09 -3.16615e-06 0)
(-2.12831e-09 -3.16274e-06 0)
(-2.18303e-09 -3.15923e-06 0)
(-2.23395e-09 -3.15564e-06 0)
(-2.2812e-09 -3.15197e-06 0)
(-2.32489e-09 -3.14823e-06 0)
(-2.36513e-09 -3.14441e-06 0)
(-2.40203e-09 -3.14054e-06 0)
(-2.43569e-09 -3.13661e-06 0)
(-2.46621e-09 -3.13263e-06 0)
(-2.49369e-09 -3.1286e-06 0)
(-2.51822e-09 -3.12453e-06 0)
(-2.5399e-09 -3.12042e-06 0)
(-2.55881e-09 -3.11628e-06 0)
(-2.57504e-09 -3.11211e-06 0)
(-2.58866e-09 -3.10792e-06 0)
(-2.59977e-09 -3.10371e-06 0)
(-2.60844e-09 -3.09948e-06 0)
(-2.61474e-09 -3.09524e-06 0)
(-2.61873e-09 -3.09099e-06 0)
(-2.6205e-09 -3.08674e-06 0)
(-2.62011e-09 -3.08248e-06 0)
(-2.61762e-09 -3.07823e-06 0)
(-2.6131e-09 -3.07399e-06 0)
(-2.6066e-09 -3.06975e-06 0)
(-2.59818e-09 -3.06553e-06 0)
(-2.58789e-09 -3.06132e-06 0)
(-2.5758e-09 -3.05713e-06 0)
(-2.56195e-09 -3.05296e-06 0)
(-2.54639e-09 -3.04882e-06 0)
(-2.52917e-09 -3.0447e-06 0)
(-2.51034e-09 -3.04061e-06 0)
(-2.48994e-09 -3.03655e-06 0)
(-2.46801e-09 -3.03253e-06 0)
(-2.4446e-09 -3.02854e-06 0)
(-2.41975e-09 -3.02459e-06 0)
(-2.39349e-09 -3.02069e-06 0)
(-2.36587e-09 -3.01683e-06 0)
(-2.33691e-09 -3.01301e-06 0)
(-2.30667e-09 -3.00924e-06 0)
(-2.27516e-09 -3.00553e-06 0)
(-2.24243e-09 -3.00186e-06 0)
(-2.2085e-09 -2.99825e-06 0)
(-2.17341e-09 -2.99469e-06 0)
(-2.13719e-09 -2.9912e-06 0)
(-2.09987e-09 -2.98776e-06 0)
(-2.06147e-09 -2.98438e-06 0)
(-2.02203e-09 -2.98107e-06 0)
(-1.98157e-09 -2.97782e-06 0)
(-1.94013e-09 -2.97463e-06 0)
(-1.89772e-09 -2.97152e-06 0)
(-1.85438e-09 -2.96847e-06 0)
(-1.81013e-09 -2.9655e-06 0)
(-1.765e-09 -2.9626e-06 0)
(-1.71901e-09 -2.95977e-06 0)
(-1.67219e-09 -2.95701e-06 0)
(-1.62456e-09 -2.95434e-06 0)
(-1.57615e-09 -2.95174e-06 0)
(-1.52699e-09 -2.94922e-06 0)
(-1.4771e-09 -2.94678e-06 0)
(-1.42651e-09 -2.94442e-06 0)
(-1.37523e-09 -2.94215e-06 0)
(-1.3233e-09 -2.93995e-06 0)
(-1.27074e-09 -2.93785e-06 0)
(-1.21758e-09 -2.93582e-06 0)
(-1.16383e-09 -2.93389e-06 0)
(-1.10953e-09 -2.93204e-06 0)
(-1.0547e-09 -2.93028e-06 0)
(-9.99362e-10 -2.92861e-06 0)
(-9.43544e-10 -2.92703e-06 0)
(-8.87273e-10 -2.92554e-06 0)
(-8.3057e-10 -2.92414e-06 0)
(-7.73465e-10 -2.92283e-06 0)
(-7.15981e-10 -2.92162e-06 0)
(-6.58149e-10 -2.9205e-06 0)
(-5.99996e-10 -2.91947e-06 0)
(-5.41558e-10 -2.91856e-06 0)
(-4.82865e-10 -2.91766e-06 0)
(-4.2397e-10 -2.91712e-06 0)
(-3.64879e-10 -2.91579e-06 0)
(-3.05761e-10 -2.91746e-06 0)
(-2.46258e-10 -2.90942e-06 0)
(-1.87616e-10 -2.93274e-06 0)
(-1.26033e-10 -2.84469e-06 0)
(-7.34723e-11 -3.07816e-06 0)
(-2.69185e-11 -2.68845e-06 0)
)
;
    }
    bottomWall
    {
        type            calculated;
        value           nonuniform List<vector> 
449
(
(-48.5049 -0.96371 0)
(-19.7443 -0.00515121 0)
(-14.3435 -0.00113267 0)
(-12.0416 -0.000542681 0)
(-10.6469 -0.000346786 0)
(-9.67374 -0.000247011 0)
(-8.95631 -0.000179612 0)
(-8.44159 -0.000117662 0)
(-8.14766 -3.85691e-05 0)
(-8.17784 0.000111557 0)
(-8.92376 0.00028778 0)
(-10.1736 0.000323184 0)
(-11.1639 0.000228294 0)
(-11.7586 0.00013216 0)
(-12.0842 7.16236e-05 0)
(-12.2587 3.65783e-05 0)
(-12.3402 1.44687e-05 0)
(-12.3601 -6.2092e-07 0)
(-12.3356 -1.0356e-05 0)
(-12.287 -1.62204e-05 0)
(-12.2209 -2.00188e-05 0)
(-12.145 -2.20361e-05 0)
(-12.0643 -2.29273e-05 0)
(-11.9817 -2.31315e-05 0)
(-11.8991 -2.29269e-05 0)
(-11.8176 -2.25003e-05 0)
(-11.7377 -2.19338e-05 0)
(-11.6599 -2.12631e-05 0)
(-11.5844 -2.05499e-05 0)
(-11.5114 -1.98264e-05 0)
(-11.4408 -1.91104e-05 0)
(-11.3727 -1.84127e-05 0)
(-11.3068 -1.774e-05 0)
(-11.2433 -1.70934e-05 0)
(-11.1819 -1.64858e-05 0)
(-11.1225 -1.59165e-05 0)
(-11.065 -1.53671e-05 0)
(-11.0093 -1.48373e-05 0)
(-10.9555 -1.43339e-05 0)
(-10.9033 -1.38566e-05 0)
(-10.8527 -1.34031e-05 0)
(-10.8037 -1.29732e-05 0)
(-10.7561 -1.25673e-05 0)
(-10.7098 -1.21816e-05 0)
(-10.6649 -1.18147e-05 0)
(-10.6212 -1.14654e-05 0)
(-10.5786 -1.11347e-05 0)
(-10.5372 -1.08179e-05 0)
(-10.4969 -1.05266e-05 0)
(-10.4575 -1.02706e-05 0)
(-10.4189 -1.00384e-05 0)
(-10.3811 -9.82021e-06 0)
(-10.344 -9.60842e-06 0)
(-10.3076 -9.3998e-06 0)
(-10.272 -9.19512e-06 0)
(-10.237 -8.99276e-06 0)
(-10.2027 -8.79452e-06 0)
(-10.1691 -8.60269e-06 0)
(-10.1362 -8.41507e-06 0)
(-10.1038 -8.23316e-06 0)
(-10.0722 -8.05761e-06 0)
(-10.0411 -7.88884e-06 0)
(-10.0106 -7.72463e-06 0)
(-9.9806 -7.56449e-06 0)
(-9.95119 -7.4089e-06 0)
(-9.92232 -7.2595e-06 0)
(-9.89396 -7.11547e-06 0)
(-9.86609 -6.97584e-06 0)
(-9.8387 -6.83955e-06 0)
(-9.81179 -6.71145e-06 0)
(-9.78529 -6.5889e-06 0)
(-9.75923 -6.46574e-06 0)
(-9.73359 -6.34556e-06 0)
(-9.70837 -6.23012e-06 0)
(-9.68354 -6.11814e-06 0)
(-9.6591 -6.00783e-06 0)
(-9.63504 -5.90051e-06 0)
(-9.61136 -5.79595e-06 0)
(-9.58804 -5.69442e-06 0)
(-9.56507 -5.59598e-06 0)
(-9.54244 -5.50028e-06 0)
(-9.52014 -5.40716e-06 0)
(-9.49817 -5.31696e-06 0)
(-9.47651 -5.22868e-06 0)
(-9.45516 -5.14271e-06 0)
(-9.43411 -5.05983e-06 0)
(-9.41335 -4.97939e-06 0)
(-9.39286 -4.90193e-06 0)
(-9.37264 -4.82553e-06 0)
(-9.3527 -4.75033e-06 0)
(-9.33301 -4.67755e-06 0)
(-9.31358 -4.60606e-06 0)
(-9.2944 -4.537e-06 0)
(-9.27546 -4.46931e-06 0)
(-9.25676 -4.40248e-06 0)
(-9.2383 -4.33872e-06 0)
(-9.22005 -4.27559e-06 0)
(-9.20203 -4.2141e-06 0)
(-9.18422 -4.15458e-06 0)
(-9.16663 -4.09555e-06 0)
(-9.14924 -4.04175e-06 0)
(-9.13202 -3.98965e-06 0)
(-9.115 -3.9354e-06 0)
(-9.09816 -3.88281e-06 0)
(-9.08151 -3.83053e-06 0)
(-9.06506 -3.77889e-06 0)
(-9.04877 -3.72978e-06 0)
(-9.03266 -3.68104e-06 0)
(-9.01673 -3.63261e-06 0)
(-9.00097 -3.58659e-06 0)
(-8.98536 -3.54089e-06 0)
(-8.96993 -3.49536e-06 0)
(-8.95465 -3.45226e-06 0)
(-8.93952 -3.40947e-06 0)
(-8.92455 -3.36667e-06 0)
(-8.90972 -3.32602e-06 0)
(-8.89504 -3.28587e-06 0)
(-8.88051 -3.24568e-06 0)
(-8.86611 -3.20718e-06 0)
(-8.85185 -3.1696e-06 0)
(-8.83773 -3.13185e-06 0)
(-8.82374 -3.09522e-06 0)
(-8.80988 -3.06e-06 0)
(-8.79615 -3.02457e-06 0)
(-8.78254 -2.98956e-06 0)
(-8.76906 -2.95619e-06 0)
(-8.75569 -2.92311e-06 0)
(-8.74244 -2.89002e-06 0)
(-8.72932 -2.85804e-06 0)
(-8.7163 -2.8271e-06 0)
(-8.70339 -2.79603e-06 0)
(-8.6906 -2.76524e-06 0)
(-8.67792 -2.73586e-06 0)
(-8.66534 -2.70688e-06 0)
(-8.65287 -2.67765e-06 0)
(-8.6405 -2.6493e-06 0)
(-8.62823 -2.6222e-06 0)
(-8.61605 -2.59478e-06 0)
(-8.60398 -2.56728e-06 0)
(-8.59201 -2.54116e-06 0)
(-8.58013 -2.51572e-06 0)
(-8.56834 -2.48985e-06 0)
(-8.55664 -2.46436e-06 0)
(-8.54504 -2.44001e-06 0)
(-8.53352 -2.41596e-06 0)
(-8.52209 -2.3926e-06 0)
(-8.51074 -2.37095e-06 0)
(-8.49946 -2.3494e-06 0)
(-8.48826 -2.32687e-06 0)
(-8.47715 -2.304e-06 0)
(-8.46612 -2.2817e-06 0)
(-8.45516 -2.2602e-06 0)
(-8.44429 -2.23889e-06 0)
(-8.43349 -2.21747e-06 0)
(-8.42277 -2.19643e-06 0)
(-8.41213 -2.17617e-06 0)
(-8.40156 -2.15617e-06 0)
(-8.39106 -2.13605e-06 0)
(-8.38063 -2.11613e-06 0)
(-8.37028 -2.09698e-06 0)
(-8.36 -2.07826e-06 0)
(-8.34978 -2.05932e-06 0)
(-8.33963 -2.04041e-06 0)
(-8.32956 -2.02226e-06 0)
(-8.31954 -2.00474e-06 0)
(-8.30959 -1.98689e-06 0)
(-8.29971 -1.96897e-06 0)
(-8.28989 -1.95169e-06 0)
(-8.28014 -1.93516e-06 0)
(-8.27044 -1.91835e-06 0)
(-8.26081 -1.90174e-06 0)
(-8.25123 -1.88509e-06 0)
(-8.24172 -1.86687e-06 0)
(-8.23281 -1.85359e-06 0)
(-8.22441 -1.8421e-06 0)
(-8.21599 -1.82616e-06 0)
(-8.20755 -1.81149e-06 0)
(-8.19908 -1.798e-06 0)
(-8.19058 -1.78431e-06 0)
(-8.18205 -1.77039e-06 0)
(-8.17351 -1.75622e-06 0)
(-8.16494 -1.74263e-06 0)
(-8.15634 -1.72924e-06 0)
(-8.14771 -1.71585e-06 0)
(-8.13906 -1.70209e-06 0)
(-8.13039 -1.6883e-06 0)
(-8.12169 -1.67499e-06 0)
(-8.11297 -1.66184e-06 0)
(-8.10422 -1.64857e-06 0)
(-8.09544 -1.63508e-06 0)
(-8.08665 -1.6217e-06 0)
(-8.07783 -1.60867e-06 0)
(-8.06899 -1.59577e-06 0)
(-8.06012 -1.58267e-06 0)
(-8.05123 -1.56942e-06 0)
(-8.04232 -1.55644e-06 0)
(-8.03339 -1.5437e-06 0)
(-8.02444 -1.53104e-06 0)
(-8.01546 -1.51812e-06 0)
(-8.00646 -1.50517e-06 0)
(-7.99744 -1.49258e-06 0)
(-7.9884 -1.48017e-06 0)
(-7.97933 -1.46764e-06 0)
(-7.97025 -1.45497e-06 0)
(-7.96115 -1.44245e-06 0)
(-7.95203 -1.43022e-06 0)
(-7.94288 -1.41809e-06 0)
(-7.93372 -1.40577e-06 0)
(-7.92453 -1.3935e-06 0)
(-7.91533 -1.38202e-06 0)
(-7.9061 -1.37124e-06 0)
(-7.89684 -1.3598e-06 0)
(-7.88757 -1.34754e-06 0)
(-7.87828 -1.33556e-06 0)
(-7.86897 -1.32389e-06 0)
(-7.85964 -1.31216e-06 0)
(-7.8503 -1.30023e-06 0)
(-7.84094 -1.28845e-06 0)
(-7.83156 -1.27701e-06 0)
(-7.82217 -1.26561e-06 0)
(-7.81276 -1.25398e-06 0)
(-7.80333 -1.24239e-06 0)
(-7.79389 -1.23116e-06 0)
(-7.78443 -1.22005e-06 0)
(-7.77496 -1.2087e-06 0)
(-7.76548 -1.19731e-06 0)
(-7.75598 -1.18632e-06 0)
(-7.74646 -1.17547e-06 0)
(-7.73693 -1.16438e-06 0)
(-7.72739 -1.15322e-06 0)
(-7.71784 -1.14246e-06 0)
(-7.70827 -1.13186e-06 0)
(-7.69869 -1.12102e-06 0)
(-7.6891 -1.11011e-06 0)
(-7.6795 -1.09959e-06 0)
(-7.66989 -1.08923e-06 0)
(-7.66026 -1.07862e-06 0)
(-7.65063 -1.068e-06 0)
(-7.64098 -1.05772e-06 0)
(-7.63133 -1.04759e-06 0)
(-7.62166 -1.03723e-06 0)
(-7.61199 -1.02689e-06 0)
(-7.60231 -1.01686e-06 0)
(-7.59261 -1.00694e-06 0)
(-7.58291 -9.9683e-07 0)
(-7.57321 -9.86776e-07 0)
(-7.56349 -9.76995e-07 0)
(-7.55377 -9.67268e-07 0)
(-7.54404 -9.57414e-07 0)
(-7.53431 -9.47649e-07 0)
(-7.52457 -9.38109e-07 0)
(-7.51482 -9.28588e-07 0)
(-7.50507 -9.18984e-07 0)
(-7.49531 -9.09505e-07 0)
(-7.48555 -9.00215e-07 0)
(-7.47579 -8.90917e-07 0)
(-7.46602 -8.81552e-07 0)
(-7.45625 -8.72353e-07 0)
(-7.44647 -8.63326e-07 0)
(-7.43669 -8.54248e-07 0)
(-7.42691 -8.45119e-07 0)
(-7.41713 -8.36206e-07 0)
(-7.40735 -8.27416e-07 0)
(-7.39757 -8.1855e-07 0)
(-7.38778 -8.09694e-07 0)
(-7.378 -8.01065e-07 0)
(-7.36821 -7.92489e-07 0)
(-7.35843 -7.83846e-07 0)
(-7.34865 -7.75286e-07 0)
(-7.33887 -7.66929e-07 0)
(-7.32908 -7.58837e-07 0)
(-7.3193 -7.50955e-07 0)
(-7.30951 -7.42953e-07 0)
(-7.29972 -7.34832e-07 0)
(-7.28994 -7.26636e-07 0)
(-7.28016 -7.18504e-07 0)
(-7.27038 -7.10583e-07 0)
(-7.26061 -7.0267e-07 0)
(-7.25084 -6.94658e-07 0)
(-7.24108 -6.86776e-07 0)
(-7.23133 -6.79082e-07 0)
(-7.22158 -6.71324e-07 0)
(-7.21183 -6.63555e-07 0)
(-7.2021 -6.56001e-07 0)
(-7.19237 -6.48519e-07 0)
(-7.18265 -6.40962e-07 0)
(-7.17293 -6.33516e-07 0)
(-7.16323 -6.2625e-07 0)
(-7.15353 -6.18945e-07 0)
(-7.14385 -6.11608e-07 0)
(-7.13417 -6.04482e-07 0)
(-7.1245 -5.9742e-07 0)
(-7.11484 -5.90308e-07 0)
(-7.1052 -5.83288e-07 0)
(-7.09556 -5.76457e-07 0)
(-7.08593 -5.69568e-07 0)
(-7.07632 -5.6269e-07 0)
(-7.06672 -5.55997e-07 0)
(-7.05713 -5.4937e-07 0)
(-7.04755 -5.42683e-07 0)
(-7.03799 -5.36128e-07 0)
(-7.02844 -5.29704e-07 0)
(-7.0189 -5.23247e-07 0)
(-7.00937 -5.16806e-07 0)
(-6.99986 -5.10561e-07 0)
(-6.99036 -5.04322e-07 0)
(-6.98088 -4.98079e-07 0)
(-6.97142 -4.91957e-07 0)
(-6.96196 -4.85945e-07 0)
(-6.95253 -4.7989e-07 0)
(-6.94311 -4.73915e-07 0)
(-6.9337 -4.6808e-07 0)
(-6.92431 -4.62254e-07 0)
(-6.91494 -4.56429e-07 0)
(-6.90559 -4.5076e-07 0)
(-6.89624 -4.45139e-07 0)
(-6.88692 -4.39526e-07 0)
(-6.87762 -4.34003e-07 0)
(-6.86833 -4.28601e-07 0)
(-6.85905 -4.23181e-07 0)
(-6.8498 -4.17827e-07 0)
(-6.84056 -4.12606e-07 0)
(-6.83135 -4.074e-07 0)
(-6.82214 -4.02185e-07 0)
(-6.81296 -3.97085e-07 0)
(-6.80379 -3.92036e-07 0)
(-6.79465 -3.86999e-07 0)
(-6.78552 -3.82036e-07 0)
(-6.77641 -3.77173e-07 0)
(-6.76732 -3.72309e-07 0)
(-6.75826 -3.6764e-07 0)
(-6.7492 -3.63117e-07 0)
(-6.74016 -3.58483e-07 0)
(-6.73114 -3.5382e-07 0)
(-6.72214 -3.49257e-07 0)
(-6.71316 -3.44728e-07 0)
(-6.7042 -3.40217e-07 0)
(-6.69526 -3.35776e-07 0)
(-6.68635 -3.31411e-07 0)
(-6.67745 -3.27053e-07 0)
(-6.66858 -3.22749e-07 0)
(-6.65972 -3.18537e-07 0)
(-6.65089 -3.14341e-07 0)
(-6.64207 -3.10166e-07 0)
(-6.63329 -3.06097e-07 0)
(-6.62452 -3.02053e-07 0)
(-6.61578 -2.98032e-07 0)
(-6.60705 -2.94079e-07 0)
(-6.59836 -2.90184e-07 0)
(-6.58967 -2.86282e-07 0)
(-6.58103 -2.82484e-07 0)
(-6.57239 -2.78645e-07 0)
(-6.56379 -2.74999e-07 0)
(-6.55519 -2.71446e-07 0)
(-6.54567 -2.67114e-07 0)
(-6.53531 -2.62531e-07 0)
(-6.52514 -2.58421e-07 0)
(-6.51511 -2.54427e-07 0)
(-6.50525 -2.50444e-07 0)
(-6.49553 -2.4661e-07 0)
(-6.48597 -2.42848e-07 0)
(-6.47654 -2.39169e-07 0)
(-6.46727 -2.35591e-07 0)
(-6.45812 -2.32074e-07 0)
(-6.44913 -2.2862e-07 0)
(-6.44025 -2.25286e-07 0)
(-6.43151 -2.22023e-07 0)
(-6.42289 -2.18832e-07 0)
(-6.41441 -2.15752e-07 0)
(-6.40602 -2.12736e-07 0)
(-6.39777 -2.09776e-07 0)
(-6.38962 -2.06911e-07 0)
(-6.3816 -2.04106e-07 0)
(-6.37367 -2.01351e-07 0)
(-6.36586 -1.98673e-07 0)
(-6.35814 -1.96067e-07 0)
(-6.35053 -1.93506e-07 0)
(-6.34301 -1.91007e-07 0)
(-6.3356 -1.88584e-07 0)
(-6.32827 -1.86203e-07 0)
(-6.32104 -1.8386e-07 0)
(-6.31389 -1.81589e-07 0)
(-6.30685 -1.79368e-07 0)
(-6.29987 -1.77175e-07 0)
(-6.29299 -1.75037e-07 0)
(-6.28619 -1.7296e-07 0)
(-6.27947 -1.70922e-07 0)
(-6.27283 -1.68908e-07 0)
(-6.26627 -1.66956e-07 0)
(-6.25977 -1.65047e-07 0)
(-6.25337 -1.63165e-07 0)
(-6.24702 -1.61307e-07 0)
(-6.24076 -1.59506e-07 0)
(-6.23455 -1.57758e-07 0)
(-6.22842 -1.5607e-07 0)
(-6.22235 -1.54399e-07 0)
(-6.21636 -1.52768e-07 0)
(-6.21041 -1.5115e-07 0)
(-6.20454 -1.49565e-07 0)
(-6.19872 -1.4799e-07 0)
(-6.19297 -1.4647e-07 0)
(-6.18727 -1.44966e-07 0)
(-6.18164 -1.43493e-07 0)
(-6.17605 -1.42016e-07 0)
(-6.17054 -1.40593e-07 0)
(-6.16506 -1.3918e-07 0)
(-6.15966 -1.37811e-07 0)
(-6.15429 -1.36431e-07 0)
(-6.14899 -1.35124e-07 0)
(-6.14372 -1.33812e-07 0)
(-6.13853 -1.32558e-07 0)
(-6.13336 -1.31271e-07 0)
(-6.12827 -1.30061e-07 0)
(-6.12319 -1.28829e-07 0)
(-6.1182 -1.27683e-07 0)
(-6.11321 -1.26485e-07 0)
(-6.10831 -1.25378e-07 0)
(-6.10341 -1.24225e-07 0)
(-6.0986 -1.23174e-07 0)
(-6.09378 -1.22051e-07 0)
(-6.08906 -1.21029e-07 0)
(-6.08432 -1.19922e-07 0)
(-6.07969 -1.18947e-07 0)
(-6.07502 -1.17887e-07 0)
(-6.07047 -1.16955e-07 0)
(-6.06588 -1.15916e-07 0)
(-6.06141 -1.15017e-07 0)
(-6.05689 -1.14018e-07 0)
(-6.0525 -1.13163e-07 0)
(-6.04804 -1.12195e-07 0)
(-6.04372 -1.11364e-07 0)
(-6.03934 -1.1043e-07 0)
(-6.03509 -1.09641e-07 0)
(-6.03077 -1.08762e-07 0)
(-6.02659 -1.08013e-07 0)
(-6.02232 -1.07193e-07 0)
(-6.01821 -1.06468e-07 0)
(-6.014 -1.05782e-07 0)
(-6.00994 -1.04996e-07 0)
(-6.00579 -1.04699e-07 0)
(-6.00176 -1.03351e-07 0)
(-5.99772 -1.04587e-07 0)
(-5.99357 -1.00457e-07 0)
(-5.98987 -1.07863e-07 0)
(-5.98512 -9.21605e-08 0)
(-5.98271 -1.2002e-07 0)
(-5.97566 -7.24028e-08 0)
(-5.97719 -9.91372e-08 0)
(-5.96766 -1.26638e-07 0)
)
;
    }
    symmetry
    {
        type            symmetryPlane;
    }
    frontAndBack
    {
        type            empty;
    }
}


// ************************************************************************* //
