/*--------------------------------*- C++ -*----------------------------------*\
| =========                 |                                                 |
| \\      /  F ield         | OpenFOAM: The Open Source CFD Toolbox           |
|  \\    /   O peration     | Version:  v2012                                 |
|   \\  /    A nd           | Website:  www.openfoam.com                      |
|    \\/     M anipulation  |                                                 |
\*---------------------------------------------------------------------------*/
FoamFile
{
    version     2.0;
    format      ascii;
    class       volScalarField;
    location    "35.5";
    object      yPlus;
}
// * * * * * * * * * * * * * * * * * * * * * * * * * * * * * * * * * * * * * //

dimensions      [0 0 0 0 0 0 0];


internalField   uniform 0;

boundaryField
{
    inlet
    {
        type            calculated;
        value           uniform 0;
    }
    outlet
    {
        type            calculated;
        value           uniform 0;
    }
    topWall
    {
        type            calculated;
        value           nonuniform List<scalar> 
545
(
0.111274
0.19187
0.246151
0.289349
0.325921
0.357922
0.386507
0.412403
0.436104
0.457967
0.478257
0.497181
0.514902
0.531552
0.547243
0.562065
0.576096
0.589405
0.602048
0.614078
0.625538
0.63647
0.646908
0.656885
0.66643
0.675568
0.684325
0.692722
0.700778
0.708513
0.715943
0.723085
0.729952
0.736559
0.742918
0.749041
0.754939
0.760623
0.766102
0.771386
0.776483
0.7814
0.786147
0.79073
0.795155
0.79943
0.803561
0.807553
0.811411
0.815142
0.81875
0.82224
0.825617
0.828884
0.832045
0.835106
0.838069
0.840938
0.843717
0.846408
0.849015
0.851541
0.853989
0.856361
0.85866
0.860889
0.86305
0.865145
0.867177
0.869147
0.871059
0.872913
0.874688
0.876405
0.87811
0.8798
0.881477
0.883141
0.884792
0.88643
0.888055
0.889667
0.891267
0.892855
0.89443
0.895992
0.897543
0.899082
0.900609
0.902124
0.903627
0.90512
0.9066
0.908069
0.909528
0.910975
0.912278
0.913445
0.914611
0.915777
0.916943
0.918109
0.919274
0.92044
0.921605
0.92277
0.923935
0.9251
0.926265
0.927429
0.928593
0.929757
0.930921
0.932085
0.933248
0.934411
0.935574
0.936737
0.937899
0.939061
0.940223
0.941384
0.942546
0.943707
0.944867
0.946028
0.947188
0.948347
0.949507
0.950666
0.951824
0.952983
0.954141
0.955298
0.956455
0.957612
0.958769
0.959925
0.96108
0.962236
0.96339
0.964545
0.965698
0.966852
0.968005
0.969157
0.970309
0.971461
0.972612
0.973762
0.974913
0.976062
0.977211
0.978359
0.979507
0.980655
0.981801
0.982947
0.984093
0.985238
0.986382
0.987526
0.988669
0.989812
0.990954
0.992095
0.993236
0.994375
0.995515
0.996653
0.997791
0.998928
1.00006
1.0012
1.00234
1.00347
1.0046
1.00574
1.00687
1.008
1.00913
1.01026
1.01139
1.01251
1.01364
1.01477
1.01589
1.01702
1.01814
1.01926
1.02039
1.02151
1.02263
1.02374
1.02486
1.02598
1.0271
1.02821
1.02932
1.03044
1.03155
1.03266
1.03377
1.03488
1.03599
1.03709
1.0382
1.0393
1.04041
1.04151
1.04261
1.04371
1.04481
1.04591
1.04701
1.0481
1.04919
1.05029
1.05138
1.05247
1.05356
1.05465
1.05573
1.05682
1.0579
1.05899
1.06007
1.06115
1.06223
1.0633
1.06438
1.06545
1.06653
1.0676
1.06867
1.06974
1.07081
1.07187
1.07294
1.074
1.07506
1.07612
1.07718
1.07824
1.07929
1.08035
1.0814
1.08245
1.0835
1.08454
1.08559
1.08663
1.08768
1.08872
1.08976
1.09079
1.09183
1.09286
1.09389
1.09492
1.09595
1.09698
1.098
1.09903
1.10005
1.10107
1.10209
1.1031
1.10411
1.10507
1.10597
1.10688
1.10779
1.10871
1.10964
1.11057
1.11151
1.11246
1.11341
1.11437
1.11533
1.1163
1.11728
1.11826
1.11925
1.12025
1.12125
1.12226
1.12327
1.12429
1.12532
1.12635
1.12739
1.12843
1.12948
1.13054
1.1316
1.13267
1.13374
1.13482
1.13591
1.137
1.13809
1.1392
1.1403
1.14142
1.14253
1.14366
1.14479
1.14592
1.14706
1.1482
1.14935
1.15051
1.15166
1.15283
1.15399
1.15517
1.15634
1.15752
1.15871
1.1599
1.16109
1.16229
1.16349
1.16469
1.1659
1.16711
1.16832
1.16954
1.17076
1.17198
1.17321
1.17444
1.17567
1.1769
1.17813
1.17937
1.18061
1.18185
1.18309
1.18433
1.18557
1.18681
1.18806
1.1893
1.19055
1.19179
1.19304
1.19428
1.19552
1.19676
1.198
1.19924
1.20048
1.20172
1.20295
1.20418
1.20541
1.20663
1.20786
1.20908
1.21029
1.2115
1.21271
1.21391
1.21511
1.2163
1.21748
1.21867
1.21984
1.22101
1.22217
1.22332
1.22447
1.22561
1.22674
1.22786
1.22898
1.23008
1.23118
1.23226
1.23334
1.2344
1.23546
1.2365
1.23753
1.23855
1.23956
1.24056
1.24154
1.24251
1.24346
1.24441
1.24533
1.24624
1.24714
1.24802
1.24889
1.24974
1.25057
1.25139
1.25218
1.25297
1.25373
1.25447
1.2552
1.2559
1.25659
1.25726
1.25791
1.25853
1.25914
1.25972
1.26029
1.26083
1.26135
1.26185
1.26232
1.26277
1.2632
1.26361
1.26399
1.26435
1.26468
1.26499
1.26528
1.26554
1.26577
1.26598
1.26617
1.26632
1.26646
1.26656
1.26665
1.2667
1.26673
1.26673
1.26671
1.26666
1.26658
1.26648
1.26635
1.26619
1.26601
1.2658
1.26557
1.26531
1.26502
1.2647
1.26432
1.26387
1.26339
1.26288
1.26234
1.26177
1.26118
1.26057
1.25993
1.25927
1.25859
1.25789
1.25718
1.25645
1.2557
1.25494
1.25417
1.25339
1.25259
1.25179
1.25097
1.25015
1.24932
1.24849
1.24764
1.2468
1.24595
1.2451
1.24424
1.24339
1.24253
1.24167
1.24082
1.23996
1.23911
1.23826
1.23741
1.23657
1.23573
1.23489
1.23407
1.23324
1.23243
1.23162
1.23081
1.23002
1.22923
1.22845
1.22769
1.22693
1.22618
1.22544
1.22472
1.224
1.2233
1.22261
1.22193
1.22126
1.22061
1.21997
1.21934
1.21873
1.21814
1.21756
1.21699
1.21644
1.2159
1.21538
1.21488
1.2144
1.21393
1.21347
1.21304
1.21262
1.21222
1.21184
1.21148
1.21113
1.2108
1.2105
1.21021
1.20994
1.20969
1.20945
1.20924
1.20905
1.20887
1.20872
1.20859
1.20847
1.20838
1.2083
1.20825
1.20822
1.2082
)
;
    }
    bottomWall
    {
        type            calculated;
        value           nonuniform List<scalar> 
449
(
0.139414
0.0889454
0.0758106
0.0694614
0.065315
0.0622586
0.0599055
0.0581586
0.0571371
0.0572429
0.0597965
0.0638469
0.066882
0.0686403
0.0695841
0.0700848
0.0703173
0.0703742
0.0703045
0.0701656
0.0699766
0.0697591
0.0695268
0.0692885
0.0690492
0.0688124
0.0685793
0.0683516
0.0681301
0.067915
0.0677065
0.0675045
0.0673089
0.0671194
0.0669359
0.0667579
0.0665851
0.0664174
0.0662548
0.0660968
0.0659434
0.0657942
0.0656491
0.0655078
0.0653702
0.0652361
0.0651054
0.0649778
0.0648534
0.0647315
0.064612
0.0644946
0.0643793
0.064266
0.0641547
0.0640454
0.0639381
0.0638327
0.0637292
0.0636276
0.0635277
0.0634296
0.0633331
0.0632383
0.0631451
0.0630534
0.0629632
0.0628745
0.0627872
0.0627012
0.0626165
0.0625331
0.0624509
0.0623699
0.0622901
0.0622114
0.0621339
0.0620575
0.0619822
0.0619079
0.0618346
0.0617623
0.061691
0.0616207
0.0615512
0.0614826
0.0614149
0.0613481
0.061282
0.0612168
0.0611523
0.0610886
0.0610257
0.0609635
0.060902
0.0608412
0.0607811
0.0607217
0.0606629
0.0606048
0.0605473
0.0604903
0.0604339
0.060378
0.0603228
0.0602681
0.0602139
0.0601603
0.0601072
0.0600547
0.0600026
0.059951
0.0598999
0.0598493
0.0597992
0.0597495
0.0597002
0.0596514
0.0596031
0.0595551
0.0595076
0.0594605
0.0594138
0.0593674
0.0593215
0.0592759
0.0592307
0.0591859
0.0591415
0.0590974
0.0590536
0.0590102
0.0589671
0.0589244
0.0588819
0.0588398
0.058798
0.0587565
0.0587154
0.0586745
0.0586339
0.0585936
0.0585536
0.0585139
0.0584744
0.0584353
0.0583963
0.0583576
0.0583192
0.058281
0.0582431
0.0582054
0.0581679
0.0581307
0.0580938
0.058057
0.0580206
0.0579843
0.0579483
0.0579125
0.0578769
0.0578415
0.0578063
0.0577714
0.0577367
0.0577021
0.0576678
0.0576337
0.0575998
0.057566
0.0575325
0.0574991
0.057466
0.0574349
0.0574056
0.0573762
0.0573467
0.0573171
0.0572874
0.0572576
0.0572277
0.0571977
0.0571676
0.0571373
0.057107
0.0570765
0.057046
0.0570154
0.0569846
0.0569538
0.0569228
0.0568918
0.0568606
0.0568294
0.056798
0.0567666
0.0567351
0.0567034
0.0566717
0.0566399
0.056608
0.056576
0.0565438
0.0565117
0.0564794
0.056447
0.0564145
0.056382
0.0563493
0.0563166
0.0562838
0.0562508
0.0562178
0.0561847
0.0561515
0.0561182
0.0560848
0.0560513
0.0560178
0.0559842
0.0559505
0.0559168
0.0558829
0.055849
0.055815
0.055781
0.0557468
0.0557126
0.0556784
0.055644
0.0556096
0.0555751
0.0555406
0.055506
0.0554713
0.0554366
0.0554018
0.0553669
0.055332
0.0552971
0.055262
0.055227
0.0551918
0.0551566
0.0551214
0.0550861
0.0550507
0.0550154
0.0549799
0.0549444
0.0549089
0.0548733
0.0548377
0.0548021
0.0547664
0.0547306
0.0546949
0.0546591
0.0546232
0.0545873
0.0545514
0.0545155
0.0544795
0.0544436
0.0544075
0.0543715
0.0543354
0.0542993
0.0542632
0.0542271
0.054191
0.0541548
0.0541186
0.0540823
0.0540461
0.0540098
0.0539735
0.0539372
0.0539009
0.0538646
0.0538283
0.053792
0.0537557
0.0537195
0.0536831
0.0536469
0.0536106
0.0535743
0.053538
0.0535018
0.0534655
0.0534293
0.053393
0.0533568
0.0533206
0.0532845
0.0532483
0.0532122
0.053176
0.0531399
0.0531039
0.0530678
0.0530318
0.0529958
0.0529599
0.0529239
0.052888
0.0528521
0.0528163
0.0527805
0.0527447
0.052709
0.0526733
0.0526376
0.052602
0.0525664
0.0525309
0.0524954
0.0524599
0.0524245
0.0523891
0.0523538
0.0523185
0.0522832
0.052248
0.0522129
0.0521778
0.0521427
0.0521077
0.0520727
0.0520379
0.052003
0.0519681
0.0519333
0.0518986
0.0518639
0.0518293
0.0517948
0.0517603
0.0517258
0.0516914
0.0516571
0.0516228
0.0515886
0.0515545
0.0515204
0.0514864
0.0514524
0.0514186
0.0513847
0.051351
0.0513173
0.0512837
0.0512501
0.0512129
0.0511723
0.0511325
0.0510932
0.0510545
0.0510163
0.0509788
0.0509417
0.0509052
0.0508692
0.0508338
0.0507988
0.0507643
0.0507303
0.0506968
0.0506636
0.050631
0.0505987
0.050567
0.0505355
0.0505045
0.0504739
0.0504437
0.0504138
0.0503844
0.0503552
0.0503265
0.050298
0.0502699
0.0502421
0.0502147
0.0501875
0.0501607
0.0501341
0.0501079
0.050082
0.0500563
0.0500309
0.0500058
0.049981
0.0499564
0.049932
0.049908
0.0498841
0.0498605
0.0498371
0.049814
0.0497911
0.0497684
0.0497459
0.0497237
0.0497016
0.0496799
0.0496582
0.0496368
0.0496156
0.0495946
0.0495737
0.0495531
0.0495326
0.0495124
0.0494922
0.0494724
0.0494525
0.049433
0.0494135
0.0493943
0.0493751
0.0493563
0.0493374
0.0493189
0.0493002
0.0492821
0.0492637
0.0492458
0.0492277
0.0492101
0.0491922
0.049175
0.0491573
0.0491403
0.0491229
0.0491061
0.0490889
0.0490724
0.0490554
0.049039
0.0490224
0.0490055
0.0489904
0.048971
0.0489611
0.0489322
0.0489385
0.0488994
)
;
    }
    symmetry
    {
        type            symmetryPlane;
    }
    frontAndBack
    {
        type            empty;
    }
}


// ************************************************************************* //
