/*--------------------------------*- C++ -*----------------------------------*\
| =========                 |                                                 |
| \\      /  F ield         | OpenFOAM: The Open Source CFD Toolbox           |
|  \\    /   O peration     | Version:  v2012                                 |
|   \\  /    A nd           | Website:  www.openfoam.com                      |
|    \\/     M anipulation  |                                                 |
\*---------------------------------------------------------------------------*/
FoamFile
{
    version     2.0;
    format      ascii;
    class       volVectorField;
    location    "37.5";
    object      wallShearStress;
}
// * * * * * * * * * * * * * * * * * * * * * * * * * * * * * * * * * * * * * //

dimensions      [0 2 -2 0 0 0 0];


internalField   uniform (0 0 0);

boundaryField
{
    inlet
    {
        type            calculated;
        value           uniform (0 0 0);
    }
    outlet
    {
        type            calculated;
        value           uniform (0 0 0);
    }
    topWall
    {
        type            calculated;
        value           nonuniform List<vector> 
545
(
(6.5625e-08 -4.61878e-08 0)
(6.56165e-08 -1.29246e-07 0)
(6.5563e-08 -2.15591e-07 0)
(6.54948e-08 -2.99418e-07 0)
(6.54161e-08 -3.79657e-07 0)
(6.53238e-08 -4.5734e-07 0)
(6.52191e-08 -5.33128e-07 0)
(6.51024e-08 -6.06985e-07 0)
(6.49749e-08 -6.78748e-07 0)
(6.48374e-08 -7.48415e-07 0)
(6.46911e-08 -8.16077e-07 0)
(6.45366e-08 -8.81813e-07 0)
(6.43749e-08 -9.45667e-07 0)
(6.42068e-08 -1.00768e-06 0)
(6.40328e-08 -1.06789e-06 0)
(6.38537e-08 -1.12635e-06 0)
(6.36702e-08 -1.18311e-06 0)
(6.34829e-08 -1.23821e-06 0)
(6.32922e-08 -1.2917e-06 0)
(6.30987e-08 -1.34362e-06 0)
(6.29029e-08 -1.39401e-06 0)
(6.27053e-08 -1.44292e-06 0)
(6.25062e-08 -1.4904e-06 0)
(6.23061e-08 -1.53647e-06 0)
(6.21052e-08 -1.58118e-06 0)
(6.19041e-08 -1.62458e-06 0)
(6.17029e-08 -1.66669e-06 0)
(6.15019e-08 -1.70756e-06 0)
(6.13014e-08 -1.74722e-06 0)
(6.11017e-08 -1.78571e-06 0)
(6.0903e-08 -1.82306e-06 0)
(6.07055e-08 -1.85931e-06 0)
(6.05093e-08 -1.89449e-06 0)
(6.03146e-08 -1.92863e-06 0)
(6.01216e-08 -1.96176e-06 0)
(5.99305e-08 -1.99392e-06 0)
(5.97413e-08 -2.02513e-06 0)
(5.95542e-08 -2.05542e-06 0)
(5.93692e-08 -2.08482e-06 0)
(5.91866e-08 -2.11336e-06 0)
(5.90062e-08 -2.14106e-06 0)
(5.88283e-08 -2.16794e-06 0)
(5.86528e-08 -2.19404e-06 0)
(5.84799e-08 -2.21938e-06 0)
(5.83095e-08 -2.24397e-06 0)
(5.81417e-08 -2.26785e-06 0)
(5.79766e-08 -2.29103e-06 0)
(5.78141e-08 -2.31354e-06 0)
(5.76543e-08 -2.33539e-06 0)
(5.74971e-08 -2.35661e-06 0)
(5.73427e-08 -2.37721e-06 0)
(5.7191e-08 -2.39722e-06 0)
(5.70419e-08 -2.41664e-06 0)
(5.68955e-08 -2.43551e-06 0)
(5.67518e-08 -2.45383e-06 0)
(5.66108e-08 -2.47163e-06 0)
(5.64724e-08 -2.48891e-06 0)
(5.63367e-08 -2.50569e-06 0)
(5.62035e-08 -2.522e-06 0)
(5.60729e-08 -2.53783e-06 0)
(5.59449e-08 -2.55322e-06 0)
(5.58194e-08 -2.56816e-06 0)
(5.56963e-08 -2.58268e-06 0)
(5.55758e-08 -2.59678e-06 0)
(5.54576e-08 -2.61048e-06 0)
(5.53419e-08 -2.6238e-06 0)
(5.52285e-08 -2.63673e-06 0)
(5.51175e-08 -2.6493e-06 0)
(5.50087e-08 -2.66151e-06 0)
(5.49021e-08 -2.67338e-06 0)
(5.4798e-08 -2.68492e-06 0)
(5.46947e-08 -2.69611e-06 0)
(5.45949e-08 -2.70687e-06 0)
(5.45002e-08 -2.71732e-06 0)
(5.44062e-08 -2.72765e-06 0)
(5.43125e-08 -2.73792e-06 0)
(5.42189e-08 -2.74815e-06 0)
(5.41254e-08 -2.75831e-06 0)
(5.4032e-08 -2.76841e-06 0)
(5.39387e-08 -2.77844e-06 0)
(5.38455e-08 -2.78841e-06 0)
(5.37524e-08 -2.79832e-06 0)
(5.36594e-08 -2.80816e-06 0)
(5.35665e-08 -2.81794e-06 0)
(5.34737e-08 -2.82766e-06 0)
(5.33811e-08 -2.83732e-06 0)
(5.32886e-08 -2.84692e-06 0)
(5.31962e-08 -2.85646e-06 0)
(5.31039e-08 -2.86594e-06 0)
(5.30117e-08 -2.87535e-06 0)
(5.29197e-08 -2.88471e-06 0)
(5.28278e-08 -2.89401e-06 0)
(5.27362e-08 -2.90326e-06 0)
(5.2644e-08 -2.91242e-06 0)
(5.25552e-08 -2.9216e-06 0)
(5.24529e-08 -2.93056e-06 0)
(5.23521e-08 -2.93874e-06 0)
(5.22737e-08 -2.94625e-06 0)
(5.21987e-08 -2.95351e-06 0)
(5.21242e-08 -2.96076e-06 0)
(5.20496e-08 -2.96811e-06 0)
(5.19748e-08 -2.97548e-06 0)
(5.18995e-08 -2.98284e-06 0)
(5.1824e-08 -2.9902e-06 0)
(5.1748e-08 -2.99757e-06 0)
(5.16718e-08 -3.00494e-06 0)
(5.15952e-08 -3.01233e-06 0)
(5.15182e-08 -3.01971e-06 0)
(5.14409e-08 -3.02711e-06 0)
(5.13632e-08 -3.03451e-06 0)
(5.12852e-08 -3.04192e-06 0)
(5.12068e-08 -3.04933e-06 0)
(5.11281e-08 -3.05675e-06 0)
(5.1049e-08 -3.06417e-06 0)
(5.09695e-08 -3.0716e-06 0)
(5.08897e-08 -3.07904e-06 0)
(5.08096e-08 -3.08648e-06 0)
(5.0729e-08 -3.09393e-06 0)
(5.06481e-08 -3.10139e-06 0)
(5.05669e-08 -3.10885e-06 0)
(5.04853e-08 -3.11631e-06 0)
(5.04033e-08 -3.12378e-06 0)
(5.0321e-08 -3.13126e-06 0)
(5.02383e-08 -3.13874e-06 0)
(5.01552e-08 -3.14623e-06 0)
(5.00717e-08 -3.15372e-06 0)
(4.99879e-08 -3.16122e-06 0)
(4.99038e-08 -3.16872e-06 0)
(4.98192e-08 -3.17623e-06 0)
(4.97343e-08 -3.18374e-06 0)
(4.9649e-08 -3.19126e-06 0)
(4.95633e-08 -3.19878e-06 0)
(4.94773e-08 -3.20631e-06 0)
(4.93909e-08 -3.21384e-06 0)
(4.93041e-08 -3.22138e-06 0)
(4.92169e-08 -3.22892e-06 0)
(4.91294e-08 -3.23646e-06 0)
(4.90415e-08 -3.24401e-06 0)
(4.89532e-08 -3.25156e-06 0)
(4.88645e-08 -3.25912e-06 0)
(4.87755e-08 -3.26668e-06 0)
(4.8686e-08 -3.27425e-06 0)
(4.85962e-08 -3.28182e-06 0)
(4.8506e-08 -3.28939e-06 0)
(4.84154e-08 -3.29697e-06 0)
(4.83245e-08 -3.30455e-06 0)
(4.82331e-08 -3.31213e-06 0)
(4.81414e-08 -3.31972e-06 0)
(4.80493e-08 -3.32731e-06 0)
(4.79568e-08 -3.33491e-06 0)
(4.78639e-08 -3.3425e-06 0)
(4.77706e-08 -3.3501e-06 0)
(4.76769e-08 -3.35771e-06 0)
(4.75829e-08 -3.36531e-06 0)
(4.74884e-08 -3.37292e-06 0)
(4.73936e-08 -3.38054e-06 0)
(4.72984e-08 -3.38815e-06 0)
(4.72028e-08 -3.39577e-06 0)
(4.71068e-08 -3.40339e-06 0)
(4.70104e-08 -3.41101e-06 0)
(4.69136e-08 -3.41863e-06 0)
(4.68164e-08 -3.42626e-06 0)
(4.67188e-08 -3.43389e-06 0)
(4.66208e-08 -3.44152e-06 0)
(4.65225e-08 -3.44915e-06 0)
(4.64237e-08 -3.45679e-06 0)
(4.63246e-08 -3.46442e-06 0)
(4.6225e-08 -3.47206e-06 0)
(4.61251e-08 -3.4797e-06 0)
(4.60247e-08 -3.48734e-06 0)
(4.5924e-08 -3.49498e-06 0)
(4.58228e-08 -3.50263e-06 0)
(4.57213e-08 -3.51027e-06 0)
(4.56194e-08 -3.51792e-06 0)
(4.5517e-08 -3.52556e-06 0)
(4.54143e-08 -3.53321e-06 0)
(4.53112e-08 -3.54086e-06 0)
(4.52076e-08 -3.54851e-06 0)
(4.51037e-08 -3.55616e-06 0)
(4.49994e-08 -3.56381e-06 0)
(4.48946e-08 -3.57145e-06 0)
(4.47895e-08 -3.5791e-06 0)
(4.4684e-08 -3.58675e-06 0)
(4.4578e-08 -3.5944e-06 0)
(4.44717e-08 -3.60205e-06 0)
(4.4365e-08 -3.6097e-06 0)
(4.42578e-08 -3.61735e-06 0)
(4.41503e-08 -3.625e-06 0)
(4.40424e-08 -3.63264e-06 0)
(4.3934e-08 -3.64029e-06 0)
(4.38253e-08 -3.64794e-06 0)
(4.37161e-08 -3.65558e-06 0)
(4.36066e-08 -3.66322e-06 0)
(4.34967e-08 -3.67087e-06 0)
(4.33863e-08 -3.67851e-06 0)
(4.32756e-08 -3.68615e-06 0)
(4.31644e-08 -3.69379e-06 0)
(4.30529e-08 -3.70142e-06 0)
(4.29409e-08 -3.70906e-06 0)
(4.28286e-08 -3.71669e-06 0)
(4.27158e-08 -3.72432e-06 0)
(4.26027e-08 -3.73195e-06 0)
(4.24891e-08 -3.73957e-06 0)
(4.23751e-08 -3.7472e-06 0)
(4.22608e-08 -3.75482e-06 0)
(4.2146e-08 -3.76243e-06 0)
(4.20309e-08 -3.77005e-06 0)
(4.19153e-08 -3.77766e-06 0)
(4.17994e-08 -3.78527e-06 0)
(4.1683e-08 -3.79288e-06 0)
(4.15663e-08 -3.80048e-06 0)
(4.14491e-08 -3.80808e-06 0)
(4.13316e-08 -3.81567e-06 0)
(4.12136e-08 -3.82326e-06 0)
(4.10953e-08 -3.83085e-06 0)
(4.09766e-08 -3.83844e-06 0)
(4.08574e-08 -3.84601e-06 0)
(4.07379e-08 -3.85359e-06 0)
(4.0618e-08 -3.86116e-06 0)
(4.04977e-08 -3.86873e-06 0)
(4.0377e-08 -3.87629e-06 0)
(4.02559e-08 -3.88385e-06 0)
(4.01344e-08 -3.8914e-06 0)
(4.00125e-08 -3.89894e-06 0)
(3.98902e-08 -3.90648e-06 0)
(3.97675e-08 -3.91402e-06 0)
(3.96445e-08 -3.92155e-06 0)
(3.9521e-08 -3.92908e-06 0)
(3.93972e-08 -3.93659e-06 0)
(3.9273e-08 -3.94411e-06 0)
(3.91484e-08 -3.95161e-06 0)
(3.90234e-08 -3.95911e-06 0)
(3.8898e-08 -3.96661e-06 0)
(3.87723e-08 -3.9741e-06 0)
(3.86461e-08 -3.98158e-06 0)
(3.85196e-08 -3.98905e-06 0)
(3.83927e-08 -3.99652e-06 0)
(3.82655e-08 -4.00398e-06 0)
(3.81378e-08 -4.01143e-06 0)
(3.80098e-08 -4.01888e-06 0)
(3.78814e-08 -4.02631e-06 0)
(3.77526e-08 -4.03374e-06 0)
(3.76234e-08 -4.04116e-06 0)
(3.74939e-08 -4.04858e-06 0)
(3.7364e-08 -4.05598e-06 0)
(3.72337e-08 -4.06338e-06 0)
(3.71031e-08 -4.07077e-06 0)
(3.69721e-08 -4.07815e-06 0)
(3.68407e-08 -4.08552e-06 0)
(3.6709e-08 -4.09288e-06 0)
(3.65769e-08 -4.10024e-06 0)
(3.64445e-08 -4.10758e-06 0)
(3.63116e-08 -4.11491e-06 0)
(3.61785e-08 -4.12224e-06 0)
(3.60449e-08 -4.12955e-06 0)
(3.59111e-08 -4.13686e-06 0)
(3.57768e-08 -4.14415e-06 0)
(3.56422e-08 -4.15144e-06 0)
(3.55073e-08 -4.15871e-06 0)
(3.5372e-08 -4.16598e-06 0)
(3.52364e-08 -4.17323e-06 0)
(3.51004e-08 -4.18047e-06 0)
(3.49641e-08 -4.1877e-06 0)
(3.48274e-08 -4.19493e-06 0)
(3.46904e-08 -4.20213e-06 0)
(3.45532e-08 -4.20934e-06 0)
(3.44152e-08 -4.2165e-06 0)
(3.42792e-08 -4.22373e-06 0)
(3.41358e-08 -4.23081e-06 0)
(3.3991e-08 -4.23753e-06 0)
(3.38615e-08 -4.24404e-06 0)
(3.37376e-08 -4.25042e-06 0)
(3.36124e-08 -4.25682e-06 0)
(3.34862e-08 -4.26332e-06 0)
(3.33586e-08 -4.26989e-06 0)
(3.32296e-08 -4.27649e-06 0)
(3.30992e-08 -4.28313e-06 0)
(3.29673e-08 -4.28981e-06 0)
(3.2834e-08 -4.29654e-06 0)
(3.26992e-08 -4.30332e-06 0)
(3.25629e-08 -4.31014e-06 0)
(3.24251e-08 -4.31701e-06 0)
(3.22858e-08 -4.32392e-06 0)
(3.21451e-08 -4.33088e-06 0)
(3.20027e-08 -4.33788e-06 0)
(3.18589e-08 -4.34493e-06 0)
(3.17135e-08 -4.35202e-06 0)
(3.15665e-08 -4.35916e-06 0)
(3.1418e-08 -4.36633e-06 0)
(3.12678e-08 -4.37356e-06 0)
(3.11161e-08 -4.38082e-06 0)
(3.09628e-08 -4.38813e-06 0)
(3.08078e-08 -4.39548e-06 0)
(3.06512e-08 -4.40288e-06 0)
(3.0493e-08 -4.41031e-06 0)
(3.03331e-08 -4.41779e-06 0)
(3.01716e-08 -4.42531e-06 0)
(3.00083e-08 -4.43287e-06 0)
(2.98434e-08 -4.44047e-06 0)
(2.96768e-08 -4.44811e-06 0)
(2.95085e-08 -4.45579e-06 0)
(2.93385e-08 -4.46351e-06 0)
(2.91667e-08 -4.47126e-06 0)
(2.89932e-08 -4.47906e-06 0)
(2.88179e-08 -4.48689e-06 0)
(2.86409e-08 -4.49476e-06 0)
(2.84621e-08 -4.50267e-06 0)
(2.82816e-08 -4.51061e-06 0)
(2.80992e-08 -4.51858e-06 0)
(2.79151e-08 -4.52659e-06 0)
(2.77291e-08 -4.53464e-06 0)
(2.75414e-08 -4.54271e-06 0)
(2.73518e-08 -4.55082e-06 0)
(2.71604e-08 -4.55896e-06 0)
(2.69672e-08 -4.56713e-06 0)
(2.67721e-08 -4.57533e-06 0)
(2.65752e-08 -4.58356e-06 0)
(2.63765e-08 -4.59181e-06 0)
(2.61759e-08 -4.6001e-06 0)
(2.59734e-08 -4.6084e-06 0)
(2.57691e-08 -4.61674e-06 0)
(2.55629e-08 -4.62509e-06 0)
(2.53548e-08 -4.63347e-06 0)
(2.51449e-08 -4.64187e-06 0)
(2.49331e-08 -4.65029e-06 0)
(2.47194e-08 -4.65873e-06 0)
(2.45038e-08 -4.66719e-06 0)
(2.42864e-08 -4.67567e-06 0)
(2.40671e-08 -4.68415e-06 0)
(2.38459e-08 -4.69266e-06 0)
(2.36228e-08 -4.70117e-06 0)
(2.33979e-08 -4.7097e-06 0)
(2.31711e-08 -4.71824e-06 0)
(2.29424e-08 -4.72678e-06 0)
(2.27119e-08 -4.73533e-06 0)
(2.24795e-08 -4.74389e-06 0)
(2.22452e-08 -4.75245e-06 0)
(2.20092e-08 -4.76102e-06 0)
(2.17713e-08 -4.76958e-06 0)
(2.15316e-08 -4.77814e-06 0)
(2.129e-08 -4.78669e-06 0)
(2.10467e-08 -4.79525e-06 0)
(2.08015e-08 -4.80379e-06 0)
(2.05546e-08 -4.81233e-06 0)
(2.03059e-08 -4.82086e-06 0)
(2.00555e-08 -4.82937e-06 0)
(1.98034e-08 -4.83787e-06 0)
(1.95495e-08 -4.84635e-06 0)
(1.92939e-08 -4.85481e-06 0)
(1.90367e-08 -4.86326e-06 0)
(1.87778e-08 -4.87167e-06 0)
(1.85173e-08 -4.88007e-06 0)
(1.82551e-08 -4.88843e-06 0)
(1.79914e-08 -4.89676e-06 0)
(1.77261e-08 -4.90506e-06 0)
(1.74593e-08 -4.91333e-06 0)
(1.7191e-08 -4.92156e-06 0)
(1.69212e-08 -4.92975e-06 0)
(1.66499e-08 -4.93789e-06 0)
(1.63773e-08 -4.946e-06 0)
(1.61033e-08 -4.95405e-06 0)
(1.58279e-08 -4.96206e-06 0)
(1.55512e-08 -4.97e-06 0)
(1.52733e-08 -4.9779e-06 0)
(1.49941e-08 -4.98573e-06 0)
(1.47138e-08 -4.99351e-06 0)
(1.44323e-08 -5.00121e-06 0)
(1.41497e-08 -5.00886e-06 0)
(1.38661e-08 -5.01643e-06 0)
(1.35815e-08 -5.02393e-06 0)
(1.32959e-08 -5.03135e-06 0)
(1.30095e-08 -5.03869e-06 0)
(1.27221e-08 -5.04595e-06 0)
(1.24341e-08 -5.05313e-06 0)
(1.21452e-08 -5.06021e-06 0)
(1.18557e-08 -5.06721e-06 0)
(1.15656e-08 -5.0741e-06 0)
(1.12749e-08 -5.0809e-06 0)
(1.09837e-08 -5.0876e-06 0)
(1.06922e-08 -5.0942e-06 0)
(1.04002e-08 -5.10068e-06 0)
(1.0108e-08 -5.10705e-06 0)
(9.81547e-09 -5.11331e-06 0)
(9.52286e-09 -5.11945e-06 0)
(9.23015e-09 -5.12546e-06 0)
(8.93745e-09 -5.13136e-06 0)
(8.64481e-09 -5.13712e-06 0)
(8.35234e-09 -5.14276e-06 0)
(8.06007e-09 -5.14825e-06 0)
(7.76813e-09 -5.15361e-06 0)
(7.47656e-09 -5.15883e-06 0)
(7.18548e-09 -5.1639e-06 0)
(6.89494e-09 -5.16882e-06 0)
(6.60505e-09 -5.17359e-06 0)
(6.31588e-09 -5.1782e-06 0)
(6.02754e-09 -5.18266e-06 0)
(5.74009e-09 -5.18694e-06 0)
(5.45365e-09 -5.19107e-06 0)
(5.16829e-09 -5.19502e-06 0)
(4.88412e-09 -5.19881e-06 0)
(4.60121e-09 -5.20241e-06 0)
(4.31968e-09 -5.20585e-06 0)
(4.0396e-09 -5.20909e-06 0)
(3.76109e-09 -5.21215e-06 0)
(3.48423e-09 -5.21502e-06 0)
(3.20913e-09 -5.2177e-06 0)
(2.93587e-09 -5.22018e-06 0)
(2.66457e-09 -5.22248e-06 0)
(2.39531e-09 -5.22455e-06 0)
(2.12821e-09 -5.22644e-06 0)
(1.86335e-09 -5.22811e-06 0)
(1.60085e-09 -5.22959e-06 0)
(1.3408e-09 -5.23084e-06 0)
(1.08329e-09 -5.23188e-06 0)
(8.28439e-10 -5.2327e-06 0)
(5.76339e-10 -5.23331e-06 0)
(3.27088e-10 -5.23369e-06 0)
(8.07894e-11 -5.23386e-06 0)
(-1.6246e-10 -5.23378e-06 0)
(-4.02563e-10 -5.2335e-06 0)
(-6.39421e-10 -5.23296e-06 0)
(-8.72941e-10 -5.23222e-06 0)
(-1.10302e-09 -5.23122e-06 0)
(-1.32959e-09 -5.23001e-06 0)
(-1.55252e-09 -5.22854e-06 0)
(-1.77177e-09 -5.22685e-06 0)
(-1.98721e-09 -5.22491e-06 0)
(-2.19878e-09 -5.22274e-06 0)
(-2.40639e-09 -5.22031e-06 0)
(-2.60998e-09 -5.21767e-06 0)
(-2.80944e-09 -5.21476e-06 0)
(-3.00472e-09 -5.21163e-06 0)
(-3.19574e-09 -5.20823e-06 0)
(-3.38244e-09 -5.20461e-06 0)
(-3.56473e-09 -5.20073e-06 0)
(-3.74259e-09 -5.19663e-06 0)
(-3.91591e-09 -5.19226e-06 0)
(-4.08468e-09 -5.18767e-06 0)
(-4.2488e-09 -5.18282e-06 0)
(-4.40825e-09 -5.17775e-06 0)
(-4.56295e-09 -5.17241e-06 0)
(-4.71288e-09 -5.16686e-06 0)
(-4.85795e-09 -5.16105e-06 0)
(-4.99815e-09 -5.15503e-06 0)
(-5.1334e-09 -5.14874e-06 0)
(-5.26368e-09 -5.14225e-06 0)
(-5.3889e-09 -5.13549e-06 0)
(-5.50908e-09 -5.12856e-06 0)
(-5.62438e-09 -5.12128e-06 0)
(-5.73528e-09 -5.11389e-06 0)
(-5.84629e-09 -5.10549e-06 0)
(-5.96051e-09 -5.09589e-06 0)
(-6.07127e-09 -5.08606e-06 0)
(-6.17374e-09 -5.07616e-06 0)
(-6.26814e-09 -5.06605e-06 0)
(-6.35464e-09 -5.05582e-06 0)
(-6.43336e-09 -5.04543e-06 0)
(-6.50462e-09 -5.03495e-06 0)
(-6.56856e-09 -5.02432e-06 0)
(-6.62554e-09 -5.01364e-06 0)
(-6.67571e-09 -5.00283e-06 0)
(-6.71941e-09 -4.99199e-06 0)
(-6.75676e-09 -4.98104e-06 0)
(-6.78811e-09 -4.97007e-06 0)
(-6.81357e-09 -4.95902e-06 0)
(-6.83347e-09 -4.94798e-06 0)
(-6.84789e-09 -4.93686e-06 0)
(-6.85716e-09 -4.92577e-06 0)
(-6.86135e-09 -4.91463e-06 0)
(-6.86075e-09 -4.90352e-06 0)
(-6.85544e-09 -4.89238e-06 0)
(-6.8457e-09 -4.88129e-06 0)
(-6.83158e-09 -4.87019e-06 0)
(-6.81334e-09 -4.85914e-06 0)
(-6.79102e-09 -4.8481e-06 0)
(-6.76488e-09 -4.83713e-06 0)
(-6.73494e-09 -4.82616e-06 0)
(-6.70145e-09 -4.81529e-06 0)
(-6.66442e-09 -4.80444e-06 0)
(-6.62408e-09 -4.79369e-06 0)
(-6.58043e-09 -4.78296e-06 0)
(-6.5337e-09 -4.77235e-06 0)
(-6.48388e-09 -4.76178e-06 0)
(-6.43118e-09 -4.75134e-06 0)
(-6.37559e-09 -4.74094e-06 0)
(-6.31732e-09 -4.73067e-06 0)
(-6.25633e-09 -4.72046e-06 0)
(-6.19283e-09 -4.71039e-06 0)
(-6.12679e-09 -4.70038e-06 0)
(-6.0584e-09 -4.69053e-06 0)
(-5.98761e-09 -4.68074e-06 0)
(-5.91462e-09 -4.67112e-06 0)
(-5.83939e-09 -4.66157e-06 0)
(-5.76207e-09 -4.65219e-06 0)
(-5.68265e-09 -4.64289e-06 0)
(-5.60127e-09 -4.63377e-06 0)
(-5.5179e-09 -4.62474e-06 0)
(-5.43268e-09 -4.61588e-06 0)
(-5.34558e-09 -4.60713e-06 0)
(-5.25674e-09 -4.59855e-06 0)
(-5.16611e-09 -4.59009e-06 0)
(-5.07384e-09 -4.5818e-06 0)
(-4.97988e-09 -4.57364e-06 0)
(-4.88436e-09 -4.56566e-06 0)
(-4.78724e-09 -4.5578e-06 0)
(-4.68863e-09 -4.55014e-06 0)
(-4.58851e-09 -4.5426e-06 0)
(-4.48698e-09 -4.53526e-06 0)
(-4.38401e-09 -4.52806e-06 0)
(-4.2797e-09 -4.52105e-06 0)
(-4.17403e-09 -4.51418e-06 0)
(-4.06709e-09 -4.50751e-06 0)
(-3.95886e-09 -4.50099e-06 0)
(-3.84943e-09 -4.49468e-06 0)
(-3.73877e-09 -4.48851e-06 0)
(-3.62699e-09 -4.48255e-06 0)
(-3.51405e-09 -4.47675e-06 0)
(-3.40004e-09 -4.47115e-06 0)
(-3.28496e-09 -4.46572e-06 0)
(-3.16886e-09 -4.4605e-06 0)
(-3.05176e-09 -4.45544e-06 0)
(-2.93372e-09 -4.45059e-06 0)
(-2.81473e-09 -4.44592e-06 0)
(-2.69487e-09 -4.44146e-06 0)
(-2.57413e-09 -4.43717e-06 0)
(-2.45258e-09 -4.4331e-06 0)
(-2.33022e-09 -4.42921e-06 0)
(-2.20711e-09 -4.42554e-06 0)
(-2.08325e-09 -4.42204e-06 0)
(-1.95869e-09 -4.41877e-06 0)
(-1.83346e-09 -4.41568e-06 0)
(-1.70759e-09 -4.41281e-06 0)
(-1.58112e-09 -4.41013e-06 0)
(-1.45408e-09 -4.40767e-06 0)
(-1.32654e-09 -4.40539e-06 0)
(-1.19856e-09 -4.40337e-06 0)
(-1.07022e-09 -4.40143e-06 0)
(-9.41689e-10 -4.40009e-06 0)
(-8.13025e-10 -4.39764e-06 0)
(-6.84694e-10 -4.39975e-06 0)
(-5.5585e-10 -4.38731e-06 0)
(-4.2952e-10 -4.4222e-06 0)
(-2.95013e-10 -4.28924e-06 0)
(-1.86355e-10 -4.64113e-06 0)
(-7.53763e-11 -4.05338e-06 0)
)
;
    }
    bottomWall
    {
        type            calculated;
        value           nonuniform List<vector> 
449
(
(-52.7456 -0.956061 0)
(-34.7678 -0.00280054 0)
(-34.3744 -0.000255704 0)
(-33.0083 -0.000364345 0)
(-31.8801 -0.000315884 0)
(-30.8418 -0.00028472 0)
(-29.9233 -0.000249679 0)
(-29.1222 -0.000217712 0)
(-28.4205 -0.000191098 0)
(-27.8002 -0.000169289 0)
(-27.2467 -0.000151231 0)
(-26.7493 -0.000136093 0)
(-26.2989 -0.000123417 0)
(-25.8878 -0.000112719 0)
(-25.5103 -0.000103487 0)
(-25.1621 -9.54668e-05 0)
(-24.8393 -8.84537e-05 0)
(-24.539 -8.22921e-05 0)
(-24.2582 -7.6866e-05 0)
(-23.995 -7.20326e-05 0)
(-23.7473 -6.77036e-05 0)
(-23.5136 -6.38169e-05 0)
(-23.2925 -6.03136e-05 0)
(-23.0828 -5.71366e-05 0)
(-22.8834 -5.4246e-05 0)
(-22.6935 -5.15919e-05 0)
(-22.5123 -4.91588e-05 0)
(-22.3391 -4.69221e-05 0)
(-22.1732 -4.48545e-05 0)
(-22.0142 -4.29342e-05 0)
(-21.8615 -4.11545e-05 0)
(-21.7147 -3.94983e-05 0)
(-21.5734 -3.79555e-05 0)
(-21.4373 -3.65112e-05 0)
(-21.3059 -3.5159e-05 0)
(-21.179 -3.38948e-05 0)
(-21.0563 -3.27096e-05 0)
(-20.9376 -3.1594e-05 0)
(-20.8226 -3.05491e-05 0)
(-20.7111 -2.95607e-05 0)
(-20.603 -2.86267e-05 0)
(-20.4979 -2.77441e-05 0)
(-20.3958 -2.69095e-05 0)
(-20.2965 -2.61164e-05 0)
(-20.1999 -2.53559e-05 0)
(-20.1059 -2.46324e-05 0)
(-20.0143 -2.39476e-05 0)
(-19.925 -2.32873e-05 0)
(-19.8379 -2.26575e-05 0)
(-19.753 -2.20576e-05 0)
(-19.6701 -2.14799e-05 0)
(-19.5892 -2.09285e-05 0)
(-19.5102 -2.04007e-05 0)
(-19.4329 -1.98941e-05 0)
(-19.3574 -1.94107e-05 0)
(-19.2835 -1.89474e-05 0)
(-19.2112 -1.85046e-05 0)
(-19.1404 -1.80801e-05 0)
(-19.0711 -1.76732e-05 0)
(-19.0031 -1.72827e-05 0)
(-18.9365 -1.6908e-05 0)
(-18.8711 -1.65481e-05 0)
(-18.807 -1.62015e-05 0)
(-18.744 -1.58684e-05 0)
(-18.6822 -1.5547e-05 0)
(-18.6215 -1.52378e-05 0)
(-18.5619 -1.49383e-05 0)
(-18.5032 -1.46498e-05 0)
(-18.4456 -1.437e-05 0)
(-18.3889 -1.40998e-05 0)
(-18.3332 -1.38377e-05 0)
(-18.2783 -1.35839e-05 0)
(-18.2243 -1.33378e-05 0)
(-18.1712 -1.30994e-05 0)
(-18.1189 -1.28676e-05 0)
(-18.0674 -1.26431e-05 0)
(-18.0167 -1.24244e-05 0)
(-17.9667 -1.22123e-05 0)
(-17.9174 -1.20057e-05 0)
(-17.8689 -1.18052e-05 0)
(-17.8211 -1.161e-05 0)
(-17.7739 -1.14201e-05 0)
(-17.7274 -1.12352e-05 0)
(-17.6816 -1.10551e-05 0)
(-17.6363 -1.08792e-05 0)
(-17.5917 -1.07082e-05 0)
(-17.5477 -1.05414e-05 0)
(-17.5042 -1.0379e-05 0)
(-17.4613 -1.02208e-05 0)
(-17.419 -1.00659e-05 0)
(-17.3772 -9.91506e-06 0)
(-17.336 -9.7678e-06 0)
(-17.2952 -9.62395e-06 0)
(-17.255 -9.4839e-06 0)
(-17.2152 -9.34702e-06 0)
(-17.1759 -9.21307e-06 0)
(-17.1371 -9.08273e-06 0)
(-17.0988 -8.95479e-06 0)
(-17.0608 -8.82986e-06 0)
(-17.0234 -8.70766e-06 0)
(-16.9863 -8.58825e-06 0)
(-16.9497 -8.47124e-06 0)
(-16.9135 -8.35741e-06 0)
(-16.8777 -8.24519e-06 0)
(-16.8423 -8.13613e-06 0)
(-16.8073 -8.02879e-06 0)
(-16.7726 -7.92427e-06 0)
(-16.7384 -7.82119e-06 0)
(-16.7045 -7.72089e-06 0)
(-16.6709 -7.62209e-06 0)
(-16.6377 -7.52546e-06 0)
(-16.6048 -7.43066e-06 0)
(-16.5723 -7.33814e-06 0)
(-16.5401 -7.24713e-06 0)
(-16.5082 -7.15819e-06 0)
(-16.4766 -7.0709e-06 0)
(-16.4454 -6.98537e-06 0)
(-16.4144 -6.90118e-06 0)
(-16.3838 -6.81849e-06 0)
(-16.3534 -6.73738e-06 0)
(-16.3234 -6.65784e-06 0)
(-16.2936 -6.57975e-06 0)
(-16.2641 -6.50309e-06 0)
(-16.2349 -6.42775e-06 0)
(-16.2059 -6.35386e-06 0)
(-16.1772 -6.28138e-06 0)
(-16.1488 -6.21028e-06 0)
(-16.1206 -6.14032e-06 0)
(-16.0927 -6.07168e-06 0)
(-16.065 -6.00423e-06 0)
(-16.0375 -5.93755e-06 0)
(-16.0103 -5.87235e-06 0)
(-15.9834 -5.80773e-06 0)
(-15.9566 -5.74466e-06 0)
(-15.9301 -5.68234e-06 0)
(-15.9038 -5.62161e-06 0)
(-15.8778 -5.56142e-06 0)
(-15.8519 -5.5026e-06 0)
(-15.8263 -5.44447e-06 0)
(-15.8009 -5.38766e-06 0)
(-15.7757 -5.33117e-06 0)
(-15.7506 -5.27608e-06 0)
(-15.7258 -5.22129e-06 0)
(-15.7012 -5.16802e-06 0)
(-15.6768 -5.11465e-06 0)
(-15.6526 -5.06291e-06 0)
(-15.6285 -5.01116e-06 0)
(-15.6047 -4.96105e-06 0)
(-15.581 -4.91083e-06 0)
(-15.5575 -4.86232e-06 0)
(-15.5342 -4.81391e-06 0)
(-15.5111 -4.76682e-06 0)
(-15.4881 -4.71994e-06 0)
(-15.4654 -4.67405e-06 0)
(-15.4427 -4.62868e-06 0)
(-15.4203 -4.58415e-06 0)
(-15.398 -4.5402e-06 0)
(-15.3759 -4.49661e-06 0)
(-15.3539 -4.45391e-06 0)
(-15.3321 -4.41176e-06 0)
(-15.3104 -4.3702e-06 0)
(-15.2889 -4.3289e-06 0)
(-15.2676 -4.28864e-06 0)
(-15.2464 -4.24847e-06 0)
(-15.2253 -4.2094e-06 0)
(-15.2044 -4.17044e-06 0)
(-15.1836 -4.13268e-06 0)
(-15.163 -4.09468e-06 0)
(-15.1425 -4.05803e-06 0)
(-15.1222 -4.02081e-06 0)
(-15.102 -3.98501e-06 0)
(-15.0819 -3.94869e-06 0)
(-15.062 -3.9139e-06 0)
(-15.0432 -3.88579e-06 0)
(-15.0256 -3.85842e-06 0)
(-15.008 -3.82532e-06 0)
(-14.9903 -3.79363e-06 0)
(-14.9725 -3.76195e-06 0)
(-14.9547 -3.73083e-06 0)
(-14.9369 -3.69977e-06 0)
(-14.919 -3.6692e-06 0)
(-14.9011 -3.63828e-06 0)
(-14.8831 -3.60818e-06 0)
(-14.8651 -3.57765e-06 0)
(-14.8471 -3.54773e-06 0)
(-14.829 -3.51745e-06 0)
(-14.8108 -3.48798e-06 0)
(-14.7927 -3.45818e-06 0)
(-14.7745 -3.42893e-06 0)
(-14.7562 -3.39924e-06 0)
(-14.7379 -3.36974e-06 0)
(-14.7195 -3.34071e-06 0)
(-14.7012 -3.3118e-06 0)
(-14.6828 -3.28298e-06 0)
(-14.6643 -3.25426e-06 0)
(-14.6458 -3.22585e-06 0)
(-14.6273 -3.19752e-06 0)
(-14.6087 -3.16925e-06 0)
(-14.5902 -3.14109e-06 0)
(-14.5715 -3.11287e-06 0)
(-14.5529 -3.08497e-06 0)
(-14.5341 -3.05726e-06 0)
(-14.5154 -3.02978e-06 0)
(-14.4966 -3.00229e-06 0)
(-14.4779 -2.97496e-06 0)
(-14.459 -2.94789e-06 0)
(-14.4402 -2.9207e-06 0)
(-14.4213 -2.89413e-06 0)
(-14.4024 -2.86729e-06 0)
(-14.3834 -2.84112e-06 0)
(-14.3645 -2.81439e-06 0)
(-14.3454 -2.78849e-06 0)
(-14.3264 -2.76207e-06 0)
(-14.3074 -2.73641e-06 0)
(-14.2883 -2.70993e-06 0)
(-14.2692 -2.6845e-06 0)
(-14.2501 -2.65852e-06 0)
(-14.2309 -2.63348e-06 0)
(-14.2117 -2.60796e-06 0)
(-14.1925 -2.58291e-06 0)
(-14.1733 -2.55788e-06 0)
(-14.1541 -2.53309e-06 0)
(-14.1348 -2.50845e-06 0)
(-14.1156 -2.48412e-06 0)
(-14.0963 -2.45965e-06 0)
(-14.077 -2.43584e-06 0)
(-14.0576 -2.41159e-06 0)
(-14.0383 -2.38766e-06 0)
(-14.0189 -2.36409e-06 0)
(-13.9995 -2.34025e-06 0)
(-13.9801 -2.31705e-06 0)
(-13.9607 -2.29359e-06 0)
(-13.9413 -2.27058e-06 0)
(-13.9219 -2.24753e-06 0)
(-13.9024 -2.22494e-06 0)
(-13.883 -2.20227e-06 0)
(-13.8635 -2.17993e-06 0)
(-13.844 -2.15763e-06 0)
(-13.8245 -2.13582e-06 0)
(-13.805 -2.11356e-06 0)
(-13.7855 -2.09182e-06 0)
(-13.766 -2.06989e-06 0)
(-13.7464 -2.04852e-06 0)
(-13.7269 -2.02682e-06 0)
(-13.7074 -2.006e-06 0)
(-13.6878 -1.98472e-06 0)
(-13.6683 -1.9641e-06 0)
(-13.6487 -1.94328e-06 0)
(-13.6292 -1.92299e-06 0)
(-13.6096 -1.90232e-06 0)
(-13.5901 -1.88235e-06 0)
(-13.5705 -1.86187e-06 0)
(-13.5509 -1.84218e-06 0)
(-13.5313 -1.82218e-06 0)
(-13.5118 -1.8028e-06 0)
(-13.4922 -1.78309e-06 0)
(-13.4727 -1.76382e-06 0)
(-13.4531 -1.74465e-06 0)
(-13.4336 -1.72564e-06 0)
(-13.414 -1.70688e-06 0)
(-13.3945 -1.68813e-06 0)
(-13.3749 -1.66962e-06 0)
(-13.3554 -1.65118e-06 0)
(-13.3358 -1.63316e-06 0)
(-13.3163 -1.61512e-06 0)
(-13.2967 -1.59729e-06 0)
(-13.2773 -1.57961e-06 0)
(-13.2577 -1.56212e-06 0)
(-13.2382 -1.54448e-06 0)
(-13.2187 -1.52719e-06 0)
(-13.1993 -1.51011e-06 0)
(-13.1797 -1.49337e-06 0)
(-13.1603 -1.47645e-06 0)
(-13.1408 -1.4597e-06 0)
(-13.1214 -1.44289e-06 0)
(-13.1019 -1.42689e-06 0)
(-13.0825 -1.41036e-06 0)
(-13.0631 -1.3946e-06 0)
(-13.0437 -1.3785e-06 0)
(-13.0243 -1.36295e-06 0)
(-13.005 -1.34701e-06 0)
(-12.9856 -1.33162e-06 0)
(-12.9663 -1.31621e-06 0)
(-12.9469 -1.30115e-06 0)
(-12.9276 -1.28593e-06 0)
(-12.9083 -1.27112e-06 0)
(-12.8891 -1.25625e-06 0)
(-12.8698 -1.24195e-06 0)
(-12.8506 -1.22725e-06 0)
(-12.8313 -1.21308e-06 0)
(-12.8121 -1.1985e-06 0)
(-12.793 -1.18447e-06 0)
(-12.7738 -1.17049e-06 0)
(-12.7547 -1.15679e-06 0)
(-12.7355 -1.14286e-06 0)
(-12.7164 -1.12961e-06 0)
(-12.6973 -1.1159e-06 0)
(-12.6783 -1.10271e-06 0)
(-12.6592 -1.08944e-06 0)
(-12.6403 -1.07628e-06 0)
(-12.6212 -1.06336e-06 0)
(-12.6023 -1.05052e-06 0)
(-12.5833 -1.03766e-06 0)
(-12.5645 -1.02517e-06 0)
(-12.5456 -1.01282e-06 0)
(-12.5267 -1.00085e-06 0)
(-12.5079 -9.88584e-07 0)
(-12.4891 -9.76389e-07 0)
(-12.4703 -9.645e-07 0)
(-12.4516 -9.52704e-07 0)
(-12.4328 -9.41151e-07 0)
(-12.4142 -9.29547e-07 0)
(-12.3955 -9.18085e-07 0)
(-12.3769 -9.06796e-07 0)
(-12.3582 -8.95851e-07 0)
(-12.3397 -8.84732e-07 0)
(-12.3211 -8.73917e-07 0)
(-12.3026 -8.63076e-07 0)
(-12.2841 -8.52478e-07 0)
(-12.2657 -8.4188e-07 0)
(-12.2472 -8.31418e-07 0)
(-12.2289 -8.20917e-07 0)
(-12.2105 -8.10723e-07 0)
(-12.1922 -8.00578e-07 0)
(-12.1738 -7.90605e-07 0)
(-12.1556 -7.8052e-07 0)
(-12.1373 -7.70736e-07 0)
(-12.1192 -7.61008e-07 0)
(-12.101 -7.51552e-07 0)
(-12.0829 -7.41873e-07 0)
(-12.0648 -7.32542e-07 0)
(-12.0467 -7.23351e-07 0)
(-12.0287 -7.14281e-07 0)
(-12.0107 -7.04995e-07 0)
(-11.9928 -6.96256e-07 0)
(-11.9749 -6.87406e-07 0)
(-11.957 -6.789e-07 0)
(-11.9391 -6.7e-07 0)
(-11.9213 -6.61655e-07 0)
(-11.9035 -6.52993e-07 0)
(-11.8858 -6.44669e-07 0)
(-11.8681 -6.36257e-07 0)
(-11.8504 -6.28281e-07 0)
(-11.8328 -6.20023e-07 0)
(-11.8152 -6.12108e-07 0)
(-11.7976 -6.04181e-07 0)
(-11.7802 -5.96387e-07 0)
(-11.7627 -5.88624e-07 0)
(-11.7453 -5.80975e-07 0)
(-11.7278 -5.7336e-07 0)
(-11.7105 -5.65991e-07 0)
(-11.6932 -5.58443e-07 0)
(-11.6759 -5.51315e-07 0)
(-11.6587 -5.43651e-07 0)
(-11.6396 -5.34381e-07 0)
(-11.6189 -5.25704e-07 0)
(-11.5985 -5.17857e-07 0)
(-11.5783 -5.10268e-07 0)
(-11.5586 -5.02687e-07 0)
(-11.539 -4.95274e-07 0)
(-11.5198 -4.87876e-07 0)
(-11.5008 -4.80911e-07 0)
(-11.4822 -4.73824e-07 0)
(-11.4637 -4.66959e-07 0)
(-11.4456 -4.60395e-07 0)
(-11.4277 -4.53922e-07 0)
(-11.4101 -4.47573e-07 0)
(-11.3927 -4.41473e-07 0)
(-11.3756 -4.35516e-07 0)
(-11.3586 -4.29486e-07 0)
(-11.342 -4.23864e-07 0)
(-11.3254 -4.18165e-07 0)
(-11.3092 -4.12737e-07 0)
(-11.2931 -4.07334e-07 0)
(-11.2774 -4.02121e-07 0)
(-11.2617 -3.96903e-07 0)
(-11.2463 -3.91935e-07 0)
(-11.231 -3.87092e-07 0)
(-11.216 -3.82294e-07 0)
(-11.2011 -3.77634e-07 0)
(-11.1865 -3.72818e-07 0)
(-11.1719 -3.68473e-07 0)
(-11.1576 -3.64015e-07 0)
(-11.1434 -3.59625e-07 0)
(-11.1295 -3.55382e-07 0)
(-11.1156 -3.51396e-07 0)
(-11.102 -3.47283e-07 0)
(-11.0885 -3.43289e-07 0)
(-11.0751 -3.39293e-07 0)
(-11.0619 -3.35486e-07 0)
(-11.0489 -3.3174e-07 0)
(-11.036 -3.28022e-07 0)
(-11.0232 -3.24425e-07 0)
(-11.0106 -3.20893e-07 0)
(-10.9981 -3.17453e-07 0)
(-10.9857 -3.14082e-07 0)
(-10.9735 -3.10675e-07 0)
(-10.9614 -3.0743e-07 0)
(-10.9495 -3.04284e-07 0)
(-10.9376 -3.01064e-07 0)
(-10.9259 -2.98036e-07 0)
(-10.9143 -2.94951e-07 0)
(-10.9028 -2.92049e-07 0)
(-10.8914 -2.89093e-07 0)
(-10.8802 -2.86285e-07 0)
(-10.869 -2.83303e-07 0)
(-10.8581 -2.80608e-07 0)
(-10.8471 -2.77871e-07 0)
(-10.8363 -2.75185e-07 0)
(-10.8256 -2.72524e-07 0)
(-10.815 -2.70012e-07 0)
(-10.8044 -2.67386e-07 0)
(-10.7941 -2.65005e-07 0)
(-10.7837 -2.62465e-07 0)
(-10.7735 -2.60105e-07 0)
(-10.7633 -2.57619e-07 0)
(-10.7534 -2.55416e-07 0)
(-10.7434 -2.53034e-07 0)
(-10.7336 -2.50893e-07 0)
(-10.7237 -2.48537e-07 0)
(-10.7141 -2.46576e-07 0)
(-10.7044 -2.44349e-07 0)
(-10.695 -2.42332e-07 0)
(-10.6855 -2.40183e-07 0)
(-10.6762 -2.38356e-07 0)
(-10.6668 -2.36167e-07 0)
(-10.6578 -2.34392e-07 0)
(-10.6485 -2.32282e-07 0)
(-10.6396 -2.30539e-07 0)
(-10.6305 -2.28565e-07 0)
(-10.6217 -2.26727e-07 0)
(-10.6127 -2.2487e-07 0)
(-10.6041 -2.23154e-07 0)
(-10.5953 -2.21475e-07 0)
(-10.5868 -2.19786e-07 0)
(-10.5781 -2.18256e-07 0)
(-10.5697 -2.16459e-07 0)
(-10.5611 -2.15383e-07 0)
(-10.5528 -2.13168e-07 0)
(-10.5445 -2.13311e-07 0)
(-10.5362 -2.0936e-07 0)
(-10.5281 -2.13216e-07 0)
(-10.5195 -2.0307e-07 0)
(-10.5122 -2.18856e-07 0)
(-10.5023 -1.8819e-07 0)
(-10.4976 -2.35795e-07 0)
(-10.4837 -1.58923e-07 0)
(-10.4854 -2.10142e-07 0)
(-10.4669 -2.41642e-07 0)
)
;
    }
    symmetry
    {
        type            symmetryPlane;
    }
    frontAndBack
    {
        type            empty;
    }
}


// ************************************************************************* //
