/*--------------------------------*- C++ -*----------------------------------*\
| =========                 |                                                 |
| \\      /  F ield         | OpenFOAM: The Open Source CFD Toolbox           |
|  \\    /   O peration     | Version:  v2012                                 |
|   \\  /    A nd           | Website:  www.openfoam.com                      |
|    \\/     M anipulation  |                                                 |
\*---------------------------------------------------------------------------*/
FoamFile
{
    version     2.0;
    format      ascii;
    class       volScalarField;
    location    "37.5";
    object      yPlus;
}
// * * * * * * * * * * * * * * * * * * * * * * * * * * * * * * * * * * * * * //

dimensions      [0 0 0 0 0 0 0];


internalField   uniform 0;

boundaryField
{
    inlet
    {
        type            calculated;
        value           uniform 0;
    }
    outlet
    {
        type            calculated;
        value           uniform 0;
    }
    topWall
    {
        type            calculated;
        value           nonuniform List<scalar> 
545
(
0.148768
0.256569
0.329152
0.386899
0.43578
0.478545
0.516737
0.551328
0.582981
0.612169
0.639251
0.6645
0.688137
0.71034
0.731254
0.751004
0.769693
0.787412
0.80424
0.820244
0.835484
0.850015
0.863884
0.877135
0.889807
0.901934
0.913549
0.924681
0.935358
0.945604
0.955443
0.964895
0.97398
0.982717
0.991122
0.999213
1.007
1.01451
1.02174
1.0287
1.03542
1.0419
1.04816
1.05419
1.06002
1.06564
1.07107
1.07632
1.08139
1.0863
1.09103
1.09561
1.10005
1.10433
1.10848
1.11249
1.11637
1.12013
1.12377
1.12729
1.1307
1.13401
1.13721
1.14031
1.14331
1.14622
1.14905
1.15178
1.15443
1.157
1.1595
1.16191
1.16423
1.16647
1.16869
1.17089
1.17307
1.17524
1.17739
1.17952
1.18163
1.18373
1.18581
1.18787
1.18992
1.19195
1.19397
1.19596
1.19795
1.19991
1.20187
1.2038
1.20572
1.20763
1.20952
1.21139
1.21308
1.21459
1.2161
1.21761
1.21912
1.22063
1.22214
1.22364
1.22515
1.22666
1.22816
1.22967
1.23117
1.23268
1.23418
1.23568
1.23718
1.23869
1.24019
1.24169
1.24319
1.24469
1.24619
1.24768
1.24918
1.25068
1.25217
1.25367
1.25516
1.25666
1.25815
1.25964
1.26113
1.26262
1.26411
1.2656
1.26709
1.26858
1.27006
1.27155
1.27304
1.27452
1.276
1.27748
1.27897
1.28045
1.28192
1.2834
1.28488
1.28636
1.28783
1.28931
1.29078
1.29225
1.29372
1.29519
1.29666
1.29813
1.2996
1.30106
1.30253
1.30399
1.30545
1.30691
1.30837
1.30983
1.31129
1.31275
1.3142
1.31566
1.31711
1.31856
1.32001
1.32146
1.3229
1.32435
1.3258
1.32724
1.32868
1.33012
1.33156
1.333
1.33443
1.33587
1.3373
1.33873
1.34016
1.34159
1.34302
1.34444
1.34587
1.34729
1.34871
1.35013
1.35154
1.35296
1.35437
1.35579
1.3572
1.35861
1.36001
1.36142
1.36282
1.36422
1.36562
1.36702
1.36842
1.36981
1.3712
1.37259
1.37398
1.37537
1.37675
1.37814
1.37952
1.38089
1.38227
1.38365
1.38502
1.38639
1.38776
1.38912
1.39049
1.39185
1.39321
1.39457
1.39592
1.39727
1.39862
1.39997
1.40132
1.40266
1.40401
1.40534
1.40668
1.40802
1.40935
1.41068
1.41201
1.41333
1.41465
1.41597
1.41729
1.4186
1.41992
1.42123
1.42253
1.42384
1.42514
1.42644
1.42774
1.42903
1.43032
1.43161
1.43289
1.43418
1.43546
1.43673
1.43801
1.43928
1.44055
1.44182
1.44308
1.44434
1.44559
1.44685
1.4481
1.44935
1.45059
1.45184
1.45307
1.45431
1.45554
1.4567
1.4578
1.4589
1.46001
1.46112
1.46224
1.46337
1.46451
1.46565
1.4668
1.46796
1.46912
1.47029
1.47147
1.47265
1.47384
1.47504
1.47624
1.47745
1.47867
1.47989
1.48112
1.48236
1.4836
1.48485
1.4861
1.48736
1.48862
1.4899
1.49117
1.49246
1.49374
1.49504
1.49634
1.49764
1.49895
1.50026
1.50158
1.50291
1.50424
1.50557
1.50691
1.50825
1.50959
1.51094
1.5123
1.51365
1.51502
1.51638
1.51775
1.51912
1.52049
1.52187
1.52325
1.52463
1.52601
1.52739
1.52878
1.53017
1.53156
1.53295
1.53434
1.53573
1.53712
1.53851
1.5399
1.5413
1.54269
1.54408
1.54547
1.54685
1.54824
1.54962
1.551
1.55238
1.55376
1.55513
1.5565
1.55786
1.55922
1.56058
1.56193
1.56327
1.56461
1.56595
1.56727
1.5686
1.56991
1.57122
1.57251
1.5738
1.57509
1.57636
1.57762
1.57888
1.58012
1.58135
1.58257
1.58378
1.58498
1.58616
1.58734
1.58849
1.58964
1.59077
1.59189
1.59299
1.59407
1.59514
1.59619
1.59723
1.59824
1.59924
1.60022
1.60119
1.60213
1.60305
1.60395
1.60483
1.60569
1.60653
1.60734
1.60813
1.6089
1.60964
1.61036
1.61106
1.61172
1.61236
1.61298
1.61357
1.61413
1.61466
1.61517
1.61564
1.61609
1.61651
1.61689
1.61725
1.61757
1.61786
1.61812
1.61835
1.61855
1.61871
1.61884
1.61893
1.61899
1.61902
1.61901
1.61897
1.61889
1.61877
1.61862
1.61843
1.61821
1.61795
1.61765
1.61731
1.61694
1.61653
1.61608
1.6156
1.61507
1.61451
1.61391
1.61328
1.6126
1.61189
1.61113
1.61035
1.60952
1.60866
1.60775
1.60681
1.60584
1.60482
1.60377
1.60269
1.60156
1.6004
1.59907
1.59758
1.59604
1.59449
1.5929
1.59129
1.58965
1.588
1.58633
1.58464
1.58293
1.58122
1.57948
1.57774
1.57599
1.57424
1.57247
1.5707
1.56892
1.56715
1.56537
1.5636
1.56182
1.56005
1.55827
1.55651
1.55474
1.55299
1.55124
1.54951
1.54777
1.54606
1.54434
1.54265
1.54096
1.53929
1.53763
1.53599
1.53436
1.53275
1.53115
1.52957
1.52801
1.52647
1.52495
1.52345
1.52196
1.5205
1.51906
1.51765
1.51625
1.51488
1.51353
1.51221
1.51091
1.50964
1.50839
1.50717
1.50597
1.50481
1.50366
1.50255
1.50147
1.50041
1.49938
1.49839
1.49742
1.49648
1.49557
1.4947
1.49385
1.49304
1.49225
1.4915
1.49078
1.4901
1.48945
1.48883
1.48824
1.48769
1.48717
1.48669
1.48624
1.48582
1.48544
1.48509
1.48478
1.48451
1.48426
1.48406
1.48389
1.48375
1.48365
1.48359
1.48353
)
;
    }
    bottomWall
    {
        type            calculated;
        value           nonuniform List<scalar> 
449
(
0.00273914
0.00480423
0.0053778
0.00533014
0.00525879
0.00516258
0.00506502
0.0049737
0.0048899
0.00481332
0.00474326
0.00467903
0.00461993
0.00456521
0.00451436
0.00446697
0.00442264
0.00438107
0.00434193
0.00430497
0.00426999
0.00423681
0.00420525
0.00417517
0.00414644
0.00411897
0.00409265
0.00406739
0.00404312
0.00401978
0.0039973
0.00397562
0.0039547
0.00393448
0.00391493
0.00389599
0.00387765
0.00385986
0.00384258
0.0038258
0.00380948
0.00379361
0.00377815
0.00376309
0.00374842
0.0037341
0.00372014
0.00370651
0.0036932
0.0036802
0.00366749
0.00365506
0.00364291
0.00363101
0.00361937
0.00360796
0.00359678
0.00358582
0.00357507
0.00356452
0.00355417
0.003544
0.00353401
0.00352419
0.00351454
0.00350505
0.00349572
0.00348654
0.0034775
0.0034686
0.00345984
0.00345122
0.00344272
0.00343434
0.00342609
0.00341796
0.00340994
0.00340204
0.00339424
0.00338655
0.00337896
0.00337148
0.00336409
0.0033568
0.00334959
0.00334249
0.00333547
0.00332854
0.00332169
0.00331493
0.00330825
0.00330165
0.00329512
0.00328867
0.00328229
0.00327599
0.00326976
0.0032636
0.0032575
0.00325147
0.00324551
0.00323961
0.00323377
0.003228
0.00322228
0.00321662
0.00321102
0.00320548
0.00319999
0.00319456
0.00318918
0.00318385
0.00317857
0.00317334
0.00316817
0.00316304
0.00315796
0.00315292
0.00314794
0.00314299
0.0031381
0.00313324
0.00312843
0.00312366
0.00311893
0.00311424
0.0031096
0.00310499
0.00310042
0.00309589
0.00309139
0.00308694
0.00308252
0.00307813
0.00307379
0.00306947
0.00306519
0.00306094
0.00305673
0.00305255
0.0030484
0.00304429
0.0030402
0.00303615
0.00303212
0.00302813
0.00302416
0.00302023
0.00301632
0.00301245
0.00300859
0.00300477
0.00300097
0.00299721
0.00299346
0.00298975
0.00298605
0.00298239
0.00297875
0.00297514
0.00297154
0.00296798
0.00296443
0.00296091
0.00295741
0.00295394
0.00295049
0.00294706
0.00294365
0.00294027
0.0029369
0.00293356
0.00293024
0.00292712
0.00292418
0.00292124
0.00291829
0.00291533
0.00291236
0.00290939
0.0029064
0.00290341
0.00290041
0.0028974
0.00289439
0.00289136
0.00288833
0.00288529
0.00288224
0.00287918
0.00287612
0.00287304
0.00286997
0.00286688
0.00286379
0.00286068
0.00285758
0.00285446
0.00285134
0.00284821
0.00284507
0.00284193
0.00283878
0.00283562
0.00283247
0.00282929
0.00282612
0.00282294
0.00281975
0.00281656
0.00281336
0.00281015
0.00280695
0.00280373
0.00280051
0.00279728
0.00279405
0.00279081
0.00278757
0.00278433
0.00278107
0.00277782
0.00277456
0.0027713
0.00276803
0.00276476
0.00276147
0.0027582
0.00275491
0.00275162
0.00274833
0.00274503
0.00274173
0.00273843
0.00273512
0.00273182
0.0027285
0.00272519
0.00272187
0.00271855
0.00271523
0.0027119
0.00270857
0.00270524
0.00270191
0.00269857
0.00269524
0.0026919
0.00268856
0.00268521
0.00268187
0.00267852
0.00267518
0.00267183
0.00266848
0.00266513
0.00266178
0.00265842
0.00265508
0.00265172
0.00264837
0.00264501
0.00264167
0.0026383
0.00263496
0.00263159
0.00262825
0.00262488
0.00262154
0.00261817
0.00261483
0.00261146
0.00260812
0.00260476
0.00260142
0.00259806
0.00259471
0.00259136
0.00258802
0.00258467
0.00258132
0.00257798
0.00257464
0.00257129
0.00256796
0.00256462
0.00256128
0.00255795
0.00255461
0.00255128
0.00254795
0.00254463
0.00254131
0.00253799
0.00253467
0.00253135
0.00252804
0.00252473
0.00252142
0.00251812
0.00251481
0.00251152
0.00250822
0.00250494
0.00250165
0.00249837
0.00249508
0.00249182
0.00248853
0.00248527
0.002482
0.00247875
0.00247548
0.00247224
0.00246898
0.00246574
0.00246249
0.00245927
0.00245602
0.0024528
0.00244957
0.00244636
0.00244314
0.00243993
0.00243672
0.00243353
0.00243033
0.00242714
0.00242395
0.00242078
0.0024176
0.00241443
0.00241126
0.00240811
0.00240495
0.0024018
0.00239865
0.00239551
0.00239238
0.00238925
0.00238613
0.00238301
0.0023799
0.00237679
0.00237369
0.00237059
0.00236751
0.00236442
0.00236135
0.00235827
0.00235521
0.00235214
0.0023491
0.00234605
0.00234268
0.002339
0.0023354
0.00233183
0.00232832
0.00232486
0.00232145
0.00231809
0.00231478
0.00231151
0.0023083
0.00230512
0.00230199
0.0022989
0.00229586
0.00229284
0.00228988
0.00228694
0.00228406
0.0022812
0.00227839
0.0022756
0.00227286
0.00227013
0.00226746
0.0022648
0.0022622
0.0022596
0.00225705
0.00225452
0.00225203
0.00224956
0.00224713
0.00224471
0.00224233
0.00223996
0.00223764
0.00223532
0.00223305
0.00223079
0.00222856
0.00222634
0.00222416
0.002222
0.00221986
0.00221773
0.00221564
0.00221356
0.00221151
0.00220947
0.00220746
0.00220545
0.00220349
0.00220152
0.00219959
0.00219766
0.00219576
0.00219387
0.00219201
0.00219014
0.00218832
0.00218649
0.0021847
0.0021829
0.00218115
0.00217937
0.00217765
0.0021759
0.00217421
0.00217249
0.00217083
0.00216914
0.00216751
0.00216584
0.00216424
0.00216259
0.00216102
0.0021594
0.00215785
0.00215626
0.00215473
0.00215316
0.00215166
0.00215011
0.00214863
0.0021471
0.00214563
0.00214414
0.00214264
0.00214126
0.00213961
0.00213853
0.0021364
0.00213614
0.00213329
)
;
    }
    symmetry
    {
        type            symmetryPlane;
    }
    frontAndBack
    {
        type            empty;
    }
}


// ************************************************************************* //
