/*--------------------------------*- C++ -*----------------------------------*\
| =========                 |                                                 |
| \\      /  F ield         | OpenFOAM: The Open Source CFD Toolbox           |
|  \\    /   O peration     | Version:  v2012                                 |
|   \\  /    A nd           | Website:  www.openfoam.com                      |
|    \\/     M anipulation  |                                                 |
\*---------------------------------------------------------------------------*/
FoamFile
{
    version     2.0;
    format      ascii;
    class       volScalarField;
    location    "14";
    object      yPlus;
}
// * * * * * * * * * * * * * * * * * * * * * * * * * * * * * * * * * * * * * //

dimensions      [0 0 0 0 0 0 0];


internalField   uniform 0;

boundaryField
{
    inlet
    {
        type            calculated;
        value           uniform 0;
    }
    outlet
    {
        type            calculated;
        value           uniform 0;
    }
    topWall
    {
        type            calculated;
        value           nonuniform List<scalar> 
545
(
0.0682388
0.117723
0.151005
0.177476
0.199871
0.219451
0.236924
0.252735
0.267189
0.280502
0.29284
0.304328
0.315068
0.325142
0.334616
0.343549
0.351989
0.359978
0.367552
0.374743
0.381578
0.388084
0.394282
0.400193
0.405835
0.411225
0.416378
0.421307
0.426025
0.430545
0.434877
0.43903
0.443015
0.44684
0.450513
0.454042
0.457434
0.460694
0.46383
0.466848
0.469752
0.472548
0.475241
0.477835
0.480335
0.482745
0.485069
0.487309
0.489471
0.491557
0.49357
0.495513
0.49739
0.499202
0.500953
0.502644
0.504278
0.505858
0.507385
0.508861
0.510289
0.51167
0.513006
0.514298
0.515549
0.516759
0.51793
0.519064
0.520163
0.521226
0.522255
0.523253
0.524206
0.525128
0.52604
0.526945
0.527841
0.528729
0.529608
0.53048
0.531344
0.5322
0.533048
0.533888
0.53472
0.535546
0.536363
0.537173
0.537976
0.538772
0.53956
0.540342
0.541116
0.541884
0.542644
0.543398
0.544075
0.54468
0.545285
0.545888
0.546491
0.547093
0.547695
0.548295
0.548895
0.549494
0.550093
0.55069
0.551287
0.551883
0.552478
0.553073
0.553666
0.554259
0.554851
0.555442
0.556032
0.556622
0.55721
0.557798
0.558385
0.558971
0.559556
0.56014
0.560723
0.561305
0.561887
0.562467
0.563047
0.563626
0.564203
0.56478
0.565356
0.56593
0.566504
0.567077
0.567649
0.56822
0.568789
0.569358
0.569926
0.570492
0.571058
0.571623
0.572186
0.572748
0.57331
0.57387
0.574429
0.574987
0.575544
0.5761
0.576654
0.577208
0.57776
0.578311
0.578861
0.57941
0.579958
0.580504
0.58105
0.581594
0.582136
0.582678
0.583218
0.583757
0.584295
0.584832
0.585367
0.585901
0.586433
0.586965
0.587495
0.588023
0.588551
0.589077
0.589601
0.590125
0.590646
0.591167
0.591686
0.592204
0.59272
0.593235
0.593748
0.59426
0.594771
0.59528
0.595787
0.596293
0.596798
0.597301
0.597803
0.598303
0.598801
0.599298
0.599794
0.600287
0.60078
0.60127
0.60176
0.602247
0.602733
0.603217
0.6037
0.604181
0.60466
0.605138
0.605614
0.606088
0.60656
0.607031
0.6075
0.607968
0.608433
0.608897
0.60936
0.60982
0.610278
0.610735
0.61119
0.611643
0.612095
0.612544
0.612992
0.613438
0.613882
0.614324
0.614764
0.615202
0.615638
0.616073
0.616505
0.616936
0.617365
0.617791
0.618216
0.618638
0.619059
0.619478
0.619894
0.620309
0.620722
0.621132
0.621541
0.621947
0.622351
0.622753
0.623153
0.623551
0.623947
0.624341
0.624732
0.625122
0.625509
0.625894
0.626277
0.626657
0.627036
0.627412
0.627786
0.628158
0.628527
0.628894
0.629259
0.629622
0.629982
0.63034
0.630696
0.631029
0.631341
0.631655
0.631969
0.632284
0.6326
0.632917
0.633234
0.633552
0.633871
0.63419
0.63451
0.63483
0.63515
0.635471
0.635792
0.636113
0.636435
0.636757
0.637078
0.6374
0.637721
0.638043
0.638364
0.638685
0.639005
0.639325
0.639645
0.639964
0.640282
0.640599
0.640916
0.641232
0.641547
0.64186
0.642173
0.642484
0.642793
0.643102
0.643408
0.643713
0.644016
0.644318
0.644617
0.644914
0.645209
0.645501
0.645791
0.646079
0.646363
0.646645
0.646924
0.6472
0.647472
0.647742
0.648007
0.648269
0.648527
0.648782
0.649032
0.649278
0.649519
0.649756
0.649988
0.650216
0.650438
0.650655
0.650867
0.651073
0.651273
0.651468
0.651656
0.651839
0.652014
0.652183
0.652346
0.652501
0.652649
0.65279
0.652923
0.653049
0.653166
0.653275
0.653376
0.653468
0.653551
0.653625
0.653691
0.653746
0.653792
0.653828
0.653854
0.653869
0.653874
0.653868
0.653851
0.653823
0.653783
0.653732
0.653668
0.653593
0.653505
0.653404
0.65329
0.653164
0.653024
0.65287
0.652703
0.652521
0.652326
0.652116
0.651891
0.651651
0.651396
0.651125
0.650839
0.650537
0.650219
0.649884
0.649533
0.649166
0.648781
0.648379
0.64796
0.647523
0.647069
0.646596
0.646106
0.645597
0.64507
0.644524
0.643959
0.643375
0.642772
0.64215
0.641508
0.640847
0.640166
0.639465
0.638745
0.638004
0.637243
0.636462
0.63566
0.634839
0.633996
0.633133
0.63225
0.631346
0.630422
0.629476
0.628511
0.627524
0.626517
0.625489
0.624441
0.623372
0.622283
0.621174
0.620044
0.618894
0.617724
0.616534
0.615324
0.614095
0.612846
0.611578
0.610291
0.608985
0.60766
0.606317
0.604955
0.603575
0.602178
0.600764
0.599332
0.597884
0.596419
0.594938
0.593441
0.591928
0.590231
0.588358
0.586489
0.584624
0.582765
0.580912
0.579066
0.577229
0.5754
0.57358
0.57177
0.56997
0.568182
0.566405
0.56464
0.562889
0.56115
0.559424
0.557713
0.556016
0.554334
0.552668
0.551016
0.549381
0.547762
0.546159
0.544573
0.543005
0.541453
0.53992
0.538404
0.536906
0.535427
0.533966
0.532524
0.531101
0.529698
0.528313
0.526949
0.525604
0.524279
0.522974
0.52169
0.520426
0.519183
0.517961
0.51676
0.51558
0.514421
0.513283
0.512168
0.511074
0.510002
0.508952
0.507925
0.506919
0.505937
0.504977
0.50404
0.503126
0.502235
0.501367
0.500523
0.499702
0.498905
0.498131
0.497382
0.496657
0.495956
0.495279
0.494627
0.494
0.493397
0.492819
0.492266
0.491739
0.491236
0.490759
0.490307
0.48988
0.489479
0.489104
0.488755
0.488431
0.488134
0.487862
0.487616
0.487397
0.487203
0.487036
0.486895
0.486781
0.486691
0.486634
0.486579
)
;
    }
    bottomWall
    {
        type            calculated;
        value           nonuniform List<scalar> 
449
(
0.139578
0.0890337
0.0758719
0.0694941
0.0653071
0.0621779
0.0596808
0.0576157
0.0558636
0.0543467
0.0530127
0.0518251
0.0507575
0.0497898
0.0489064
0.0480949
0.0473456
0.0466504
0.0460027
0.0453971
0.0448289
0.0442943
0.0437898
0.0433127
0.0428604
0.0424307
0.0420217
0.0416317
0.0412593
0.040903
0.0405618
0.0402344
0.0399201
0.0396178
0.0393268
0.0390465
0.038776
0.038515
0.0382627
0.0380187
0.0377825
0.0375537
0.037332
0.0371169
0.0369081
0.0367053
0.0365082
0.0363166
0.0361301
0.0359486
0.0357718
0.0355995
0.0354316
0.0352677
0.0351079
0.0349518
0.0347994
0.0346505
0.034505
0.0343627
0.0342235
0.0340873
0.033954
0.0338235
0.0336957
0.0335705
0.0334478
0.0333276
0.0332096
0.033094
0.0329805
0.0328691
0.0327599
0.0326526
0.0325472
0.0324437
0.032342
0.0322421
0.0321439
0.0320473
0.0319524
0.031859
0.0317672
0.0316768
0.0315879
0.0315004
0.0314142
0.0313294
0.0312459
0.0311637
0.0310826
0.0310028
0.0309242
0.0308466
0.0307702
0.0306949
0.0306207
0.0305475
0.0304753
0.030404
0.0303338
0.0302645
0.0301961
0.0301286
0.030062
0.0299963
0.0299314
0.0298673
0.029804
0.0297416
0.0296799
0.0296189
0.0295587
0.0294992
0.0294405
0.0293824
0.0293251
0.0292684
0.0292123
0.0291569
0.0291021
0.029048
0.0289945
0.0289415
0.0288892
0.0288374
0.0287862
0.0287355
0.0286854
0.0286358
0.0285868
0.0285382
0.0284902
0.0284427
0.0283956
0.028349
0.028303
0.0282573
0.0282122
0.0281675
0.0281232
0.0280793
0.0280359
0.0279929
0.0279504
0.0279082
0.0278664
0.027825
0.0277841
0.0277434
0.0277032
0.0276634
0.0276239
0.0275847
0.027546
0.0275075
0.0274694
0.0274317
0.0273943
0.0273572
0.0273204
0.027284
0.0272479
0.0272121
0.0271765
0.0271413
0.0271064
0.0270718
0.0270375
0.0270035
0.0269697
0.0269363
0.0269031
0.026872
0.0268427
0.0268134
0.0267842
0.0267549
0.0267257
0.0266963
0.026667
0.0266376
0.0266082
0.0265787
0.0265492
0.0265196
0.02649
0.0264604
0.0264308
0.0264011
0.0263713
0.0263415
0.0263117
0.0262819
0.026252
0.0262221
0.0261922
0.0261622
0.0261323
0.0261023
0.0260722
0.0260422
0.0260121
0.025982
0.0259519
0.0259218
0.0258916
0.0258615
0.0258313
0.0258012
0.025771
0.0257408
0.0257106
0.0256804
0.0256502
0.02562
0.0255898
0.0255596
0.0255294
0.0254992
0.025469
0.0254388
0.0254086
0.0253785
0.0253483
0.0253182
0.025288
0.0252579
0.0252278
0.0251978
0.0251677
0.0251377
0.0251076
0.0250776
0.0250477
0.0250177
0.0249878
0.0249579
0.0249281
0.0248983
0.0248685
0.0248387
0.024809
0.0247793
0.0247497
0.02472
0.0246905
0.0246609
0.0246315
0.024602
0.0245726
0.0245433
0.024514
0.0244847
0.0244555
0.0244264
0.0243973
0.0243682
0.0243392
0.0243103
0.0242814
0.0242526
0.0242238
0.0241951
0.0241665
0.0241379
0.0241093
0.0240809
0.0240525
0.0240242
0.0239959
0.0239677
0.0239396
0.0239115
0.0238836
0.0238556
0.0238278
0.0238
0.0237723
0.0237447
0.0237172
0.0236897
0.0236623
0.023635
0.0236078
0.0235807
0.0235536
0.0235266
0.0234997
0.0234729
0.0234461
0.0234195
0.0233929
0.0233664
0.02334
0.0233137
0.0232875
0.0232614
0.0232353
0.0232094
0.0231835
0.0231578
0.0231321
0.0231065
0.023081
0.0230556
0.0230303
0.0230051
0.02298
0.022955
0.02293
0.0229052
0.0228805
0.0228558
0.0228313
0.0228069
0.0227825
0.0227583
0.0227342
0.0227101
0.0226862
0.0226623
0.0226386
0.022615
0.0225914
0.022568
0.0225447
0.0225214
0.0224983
0.0224753
0.0224524
0.0224296
0.0224068
0.0223842
0.0223617
0.0223393
0.0223171
0.0222949
0.0222728
0.0222508
0.0222289
0.0222072
0.0221855
0.022164
0.0221425
0.0221212
0.0220999
0.0220788
0.0220578
0.0220368
0.022016
0.0219953
0.0219746
0.0219541
0.0219313
0.0219065
0.021882
0.021858
0.0218345
0.0218115
0.0217889
0.0217668
0.0217451
0.0217238
0.0217029
0.0216825
0.0216624
0.0216426
0.0216233
0.0216043
0.0215856
0.0215673
0.0215492
0.0215315
0.0215141
0.021497
0.0214802
0.0214636
0.0214473
0.0214313
0.0214156
0.0214001
0.0213848
0.0213698
0.021355
0.0213405
0.0213261
0.021312
0.0212981
0.0212845
0.021271
0.0212577
0.0212446
0.0212317
0.021219
0.0212064
0.0211941
0.0211819
0.0211699
0.021158
0.0211463
0.0211348
0.0211234
0.0211122
0.0211011
0.0210902
0.0210794
0.0210688
0.0210583
0.0210479
0.0210377
0.0210276
0.0210176
0.0210078
0.020998
0.0209884
0.0209789
0.0209696
0.0209603
0.0209511
0.0209421
0.0209332
0.0209243
0.0209156
0.020907
0.0208985
0.0208901
0.0208817
0.0208735
0.0208653
0.0208573
0.0208493
0.0208414
0.0208336
0.0208259
0.0208183
0.0208108
0.0208033
0.0207959
0.0207885
0.0207813
0.020774
0.0207669
0.0207597
0.0207526
0.0207459
0.0207344
0.0207413
0.020721
)
;
    }
    symmetry
    {
        type            symmetryPlane;
    }
    frontAndBack
    {
        type            empty;
    }
}


// ************************************************************************* //
