/*--------------------------------*- C++ -*----------------------------------*\
| =========                 |                                                 |
| \\      /  F ield         | OpenFOAM: The Open Source CFD Toolbox           |
|  \\    /   O peration     | Version:  v2012                                 |
|   \\  /    A nd           | Website:  www.openfoam.com                      |
|    \\/     M anipulation  |                                                 |
\*---------------------------------------------------------------------------*/
FoamFile
{
    version     2.0;
    format      ascii;
    class       volVectorField;
    location    "29.5";
    object      wallShearStress;
}
// * * * * * * * * * * * * * * * * * * * * * * * * * * * * * * * * * * * * * //

dimensions      [0 2 -2 0 0 0 0];


internalField   uniform (0 0 0);

boundaryField
{
    inlet
    {
        type            calculated;
        value           uniform (0 0 0);
    }
    outlet
    {
        type            calculated;
        value           uniform (0 0 0);
    }
    topWall
    {
        type            calculated;
        value           nonuniform List<vector> 
545
(
(1.48437e-08 -1.04485e-08 0)
(1.4837e-08 -2.92316e-08 0)
(1.48229e-08 -4.87613e-08 0)
(1.48024e-08 -6.7718e-08 0)
(1.47762e-08 -8.5855e-08 0)
(1.47449e-08 -1.03403e-07 0)
(1.4709e-08 -1.20511e-07 0)
(1.46687e-08 -1.37168e-07 0)
(1.46244e-08 -1.53337e-07 0)
(1.45767e-08 -1.69016e-07 0)
(1.45258e-08 -1.84226e-07 0)
(1.4472e-08 -1.98985e-07 0)
(1.44157e-08 -2.13302e-07 0)
(1.43572e-08 -2.27185e-07 0)
(1.42967e-08 -2.40646e-07 0)
(1.42345e-08 -2.53696e-07 0)
(1.41708e-08 -2.66346e-07 0)
(1.41059e-08 -2.78606e-07 0)
(1.40399e-08 -2.90488e-07 0)
(1.39731e-08 -3.02002e-07 0)
(1.39056e-08 -3.13159e-07 0)
(1.38376e-08 -3.23968e-07 0)
(1.37692e-08 -3.34441e-07 0)
(1.37005e-08 -3.44587e-07 0)
(1.36318e-08 -3.54416e-07 0)
(1.35631e-08 -3.63938e-07 0)
(1.34945e-08 -3.73162e-07 0)
(1.34261e-08 -3.82097e-07 0)
(1.33581e-08 -3.90752e-07 0)
(1.32904e-08 -3.99137e-07 0)
(1.32232e-08 -4.07259e-07 0)
(1.31566e-08 -4.15127e-07 0)
(1.30905e-08 -4.22749e-07 0)
(1.30251e-08 -4.30133e-07 0)
(1.29604e-08 -4.37286e-07 0)
(1.28964e-08 -4.44216e-07 0)
(1.28332e-08 -4.50931e-07 0)
(1.27709e-08 -4.57436e-07 0)
(1.27093e-08 -4.63739e-07 0)
(1.26487e-08 -4.69847e-07 0)
(1.2589e-08 -4.75765e-07 0)
(1.25301e-08 -4.815e-07 0)
(1.24722e-08 -4.87058e-07 0)
(1.24153e-08 -4.92445e-07 0)
(1.23593e-08 -4.97666e-07 0)
(1.23043e-08 -5.02726e-07 0)
(1.22502e-08 -5.07631e-07 0)
(1.21971e-08 -5.12386e-07 0)
(1.2145e-08 -5.16995e-07 0)
(1.20939e-08 -5.21465e-07 0)
(1.20437e-08 -5.25798e-07 0)
(1.19946e-08 -5.29999e-07 0)
(1.19463e-08 -5.34073e-07 0)
(1.18991e-08 -5.38024e-07 0)
(1.18528e-08 -5.41855e-07 0)
(1.18074e-08 -5.45571e-07 0)
(1.1763e-08 -5.49176e-07 0)
(1.17195e-08 -5.52672e-07 0)
(1.1677e-08 -5.56064e-07 0)
(1.16353e-08 -5.59354e-07 0)
(1.15945e-08 -5.62546e-07 0)
(1.15547e-08 -5.65643e-07 0)
(1.15157e-08 -5.68649e-07 0)
(1.14775e-08 -5.71565e-07 0)
(1.14402e-08 -5.74395e-07 0)
(1.14038e-08 -5.77142e-07 0)
(1.13681e-08 -5.79807e-07 0)
(1.13333e-08 -5.82395e-07 0)
(1.12993e-08 -5.84906e-07 0)
(1.1266e-08 -5.87344e-07 0)
(1.12335e-08 -5.89712e-07 0)
(1.12019e-08 -5.92006e-07 0)
(1.11713e-08 -5.94212e-07 0)
(1.11412e-08 -5.96349e-07 0)
(1.11114e-08 -5.98461e-07 0)
(1.10817e-08 -6.0056e-07 0)
(1.10522e-08 -6.02647e-07 0)
(1.10226e-08 -6.04719e-07 0)
(1.09932e-08 -6.06776e-07 0)
(1.09637e-08 -6.08817e-07 0)
(1.09344e-08 -6.10843e-07 0)
(1.09051e-08 -6.12855e-07 0)
(1.08758e-08 -6.14853e-07 0)
(1.08467e-08 -6.16836e-07 0)
(1.08175e-08 -6.18804e-07 0)
(1.07885e-08 -6.20759e-07 0)
(1.07595e-08 -6.22699e-07 0)
(1.07306e-08 -6.24625e-07 0)
(1.07017e-08 -6.26537e-07 0)
(1.06729e-08 -6.28435e-07 0)
(1.06442e-08 -6.3032e-07 0)
(1.06155e-08 -6.32191e-07 0)
(1.05869e-08 -6.34048e-07 0)
(1.05585e-08 -6.35891e-07 0)
(1.05298e-08 -6.37725e-07 0)
(1.05023e-08 -6.39525e-07 0)
(1.04769e-08 -6.41173e-07 0)
(1.04526e-08 -6.42665e-07 0)
(1.04291e-08 -6.44115e-07 0)
(1.04058e-08 -6.4557e-07 0)
(1.03824e-08 -6.47037e-07 0)
(1.0359e-08 -6.48507e-07 0)
(1.03355e-08 -6.49974e-07 0)
(1.03118e-08 -6.5144e-07 0)
(1.02881e-08 -6.52906e-07 0)
(1.02643e-08 -6.54373e-07 0)
(1.02404e-08 -6.5584e-07 0)
(1.02164e-08 -6.57306e-07 0)
(1.01923e-08 -6.58773e-07 0)
(1.01681e-08 -6.6024e-07 0)
(1.01438e-08 -6.61706e-07 0)
(1.01195e-08 -6.63173e-07 0)
(1.0095e-08 -6.64639e-07 0)
(1.00704e-08 -6.66106e-07 0)
(1.00458e-08 -6.67572e-07 0)
(1.0021e-08 -6.69038e-07 0)
(9.99617e-09 -6.70504e-07 0)
(9.97123e-09 -6.7197e-07 0)
(9.94619e-09 -6.73435e-07 0)
(9.92106e-09 -6.749e-07 0)
(9.89584e-09 -6.76365e-07 0)
(9.87052e-09 -6.7783e-07 0)
(9.84511e-09 -6.79295e-07 0)
(9.81961e-09 -6.80759e-07 0)
(9.79401e-09 -6.82222e-07 0)
(9.76831e-09 -6.83686e-07 0)
(9.74252e-09 -6.85149e-07 0)
(9.71663e-09 -6.86611e-07 0)
(9.69065e-09 -6.88073e-07 0)
(9.66458e-09 -6.89535e-07 0)
(9.63841e-09 -6.90996e-07 0)
(9.61215e-09 -6.92456e-07 0)
(9.58579e-09 -6.93916e-07 0)
(9.55933e-09 -6.95375e-07 0)
(9.53278e-09 -6.96834e-07 0)
(9.50614e-09 -6.98292e-07 0)
(9.4794e-09 -6.9975e-07 0)
(9.45256e-09 -7.01206e-07 0)
(9.42564e-09 -7.02663e-07 0)
(9.39861e-09 -7.04118e-07 0)
(9.37149e-09 -7.05572e-07 0)
(9.34428e-09 -7.07026e-07 0)
(9.31697e-09 -7.08479e-07 0)
(9.28957e-09 -7.09931e-07 0)
(9.26207e-09 -7.11382e-07 0)
(9.23448e-09 -7.12833e-07 0)
(9.20679e-09 -7.14282e-07 0)
(9.17901e-09 -7.15731e-07 0)
(9.15113e-09 -7.17178e-07 0)
(9.12316e-09 -7.18625e-07 0)
(9.09509e-09 -7.2007e-07 0)
(9.06693e-09 -7.21514e-07 0)
(9.03868e-09 -7.22958e-07 0)
(9.01033e-09 -7.244e-07 0)
(8.98188e-09 -7.25841e-07 0)
(8.95335e-09 -7.27281e-07 0)
(8.92471e-09 -7.28719e-07 0)
(8.89599e-09 -7.30157e-07 0)
(8.86717e-09 -7.31593e-07 0)
(8.83826e-09 -7.33028e-07 0)
(8.80925e-09 -7.34461e-07 0)
(8.78015e-09 -7.35893e-07 0)
(8.75096e-09 -7.37324e-07 0)
(8.72167e-09 -7.38754e-07 0)
(8.69229e-09 -7.40182e-07 0)
(8.66282e-09 -7.41608e-07 0)
(8.63325e-09 -7.43033e-07 0)
(8.60359e-09 -7.44456e-07 0)
(8.57384e-09 -7.45878e-07 0)
(8.544e-09 -7.47299e-07 0)
(8.51406e-09 -7.48717e-07 0)
(8.48403e-09 -7.50134e-07 0)
(8.45391e-09 -7.5155e-07 0)
(8.4237e-09 -7.52963e-07 0)
(8.3934e-09 -7.54375e-07 0)
(8.36301e-09 -7.55785e-07 0)
(8.33252e-09 -7.57193e-07 0)
(8.30194e-09 -7.586e-07 0)
(8.27128e-09 -7.60004e-07 0)
(8.24052e-09 -7.61407e-07 0)
(8.20967e-09 -7.62808e-07 0)
(8.17874e-09 -7.64206e-07 0)
(8.14771e-09 -7.65603e-07 0)
(8.11659e-09 -7.66998e-07 0)
(8.08539e-09 -7.68391e-07 0)
(8.05409e-09 -7.69781e-07 0)
(8.02271e-09 -7.71169e-07 0)
(7.99124e-09 -7.72556e-07 0)
(7.95968e-09 -7.7394e-07 0)
(7.92803e-09 -7.75321e-07 0)
(7.89629e-09 -7.76701e-07 0)
(7.86447e-09 -7.78078e-07 0)
(7.83256e-09 -7.79453e-07 0)
(7.80056e-09 -7.80826e-07 0)
(7.76848e-09 -7.82196e-07 0)
(7.73631e-09 -7.83563e-07 0)
(7.70406e-09 -7.84929e-07 0)
(7.67172e-09 -7.86291e-07 0)
(7.63929e-09 -7.87651e-07 0)
(7.60678e-09 -7.89009e-07 0)
(7.57419e-09 -7.90364e-07 0)
(7.54151e-09 -7.91716e-07 0)
(7.50875e-09 -7.93066e-07 0)
(7.47591e-09 -7.94413e-07 0)
(7.44298e-09 -7.95757e-07 0)
(7.40997e-09 -7.97098e-07 0)
(7.37688e-09 -7.98437e-07 0)
(7.34371e-09 -7.99773e-07 0)
(7.31045e-09 -8.01105e-07 0)
(7.27712e-09 -8.02435e-07 0)
(7.2437e-09 -8.03762e-07 0)
(7.21021e-09 -8.05086e-07 0)
(7.17663e-09 -8.06407e-07 0)
(7.14298e-09 -8.07725e-07 0)
(7.10925e-09 -8.0904e-07 0)
(7.07544e-09 -8.10351e-07 0)
(7.04155e-09 -8.11659e-07 0)
(7.00758e-09 -8.12965e-07 0)
(6.97354e-09 -8.14266e-07 0)
(6.93943e-09 -8.15565e-07 0)
(6.90523e-09 -8.1686e-07 0)
(6.87097e-09 -8.18152e-07 0)
(6.83662e-09 -8.19441e-07 0)
(6.80221e-09 -8.20726e-07 0)
(6.76772e-09 -8.22007e-07 0)
(6.73316e-09 -8.23285e-07 0)
(6.69852e-09 -8.2456e-07 0)
(6.66382e-09 -8.25831e-07 0)
(6.62904e-09 -8.27098e-07 0)
(6.59419e-09 -8.28362e-07 0)
(6.55927e-09 -8.29621e-07 0)
(6.52429e-09 -8.30878e-07 0)
(6.48923e-09 -8.3213e-07 0)
(6.45411e-09 -8.33378e-07 0)
(6.41891e-09 -8.34623e-07 0)
(6.38365e-09 -8.35864e-07 0)
(6.34833e-09 -8.37101e-07 0)
(6.31294e-09 -8.38334e-07 0)
(6.27748e-09 -8.39563e-07 0)
(6.24196e-09 -8.40787e-07 0)
(6.20638e-09 -8.42008e-07 0)
(6.17073e-09 -8.43225e-07 0)
(6.13503e-09 -8.44437e-07 0)
(6.09926e-09 -8.45645e-07 0)
(6.06343e-09 -8.46849e-07 0)
(6.02753e-09 -8.48049e-07 0)
(5.99158e-09 -8.49245e-07 0)
(5.95558e-09 -8.50436e-07 0)
(5.91951e-09 -8.51622e-07 0)
(5.88338e-09 -8.52804e-07 0)
(5.8472e-09 -8.53982e-07 0)
(5.81097e-09 -8.55155e-07 0)
(5.77468e-09 -8.56324e-07 0)
(5.73833e-09 -8.57488e-07 0)
(5.70193e-09 -8.58648e-07 0)
(5.66548e-09 -8.59802e-07 0)
(5.62898e-09 -8.60952e-07 0)
(5.59243e-09 -8.62098e-07 0)
(5.55582e-09 -8.63238e-07 0)
(5.51917e-09 -8.64374e-07 0)
(5.48247e-09 -8.65505e-07 0)
(5.44572e-09 -8.66631e-07 0)
(5.40893e-09 -8.67752e-07 0)
(5.37208e-09 -8.68868e-07 0)
(5.3352e-09 -8.69979e-07 0)
(5.29826e-09 -8.71085e-07 0)
(5.26133e-09 -8.72185e-07 0)
(5.22414e-09 -8.73283e-07 0)
(5.18782e-09 -8.74366e-07 0)
(5.15297e-09 -8.75394e-07 0)
(5.11887e-09 -8.76369e-07 0)
(5.08521e-09 -8.77332e-07 0)
(5.0514e-09 -8.783e-07 0)
(5.0173e-09 -8.79277e-07 0)
(4.98289e-09 -8.80259e-07 0)
(4.94816e-09 -8.81243e-07 0)
(4.91309e-09 -8.82231e-07 0)
(4.87769e-09 -8.83222e-07 0)
(4.84196e-09 -8.84217e-07 0)
(4.80589e-09 -8.85216e-07 0)
(4.76948e-09 -8.86217e-07 0)
(4.73273e-09 -8.87222e-07 0)
(4.69564e-09 -8.8823e-07 0)
(4.65821e-09 -8.8924e-07 0)
(4.62043e-09 -8.90254e-07 0)
(4.58231e-09 -8.9127e-07 0)
(4.54383e-09 -8.92289e-07 0)
(4.50501e-09 -8.93309e-07 0)
(4.46584e-09 -8.94333e-07 0)
(4.42632e-09 -8.95358e-07 0)
(4.38644e-09 -8.96385e-07 0)
(4.34621e-09 -8.97413e-07 0)
(4.30562e-09 -8.98444e-07 0)
(4.26467e-09 -8.99475e-07 0)
(4.22337e-09 -9.00508e-07 0)
(4.18171e-09 -9.01542e-07 0)
(4.13969e-09 -9.02577e-07 0)
(4.09731e-09 -9.03612e-07 0)
(4.05457e-09 -9.04648e-07 0)
(4.01147e-09 -9.05684e-07 0)
(3.96801e-09 -9.0672e-07 0)
(3.92418e-09 -9.07755e-07 0)
(3.87999e-09 -9.08791e-07 0)
(3.83544e-09 -9.09825e-07 0)
(3.79053e-09 -9.10859e-07 0)
(3.74526e-09 -9.11892e-07 0)
(3.69962e-09 -9.12923e-07 0)
(3.65362e-09 -9.13953e-07 0)
(3.60726e-09 -9.1498e-07 0)
(3.56054e-09 -9.16006e-07 0)
(3.51346e-09 -9.17029e-07 0)
(3.46601e-09 -9.18049e-07 0)
(3.41822e-09 -9.19067e-07 0)
(3.37006e-09 -9.20081e-07 0)
(3.32155e-09 -9.21091e-07 0)
(3.27268e-09 -9.22098e-07 0)
(3.22346e-09 -9.231e-07 0)
(3.17389e-09 -9.24098e-07 0)
(3.12397e-09 -9.25091e-07 0)
(3.0737e-09 -9.26079e-07 0)
(3.02308e-09 -9.27061e-07 0)
(2.97213e-09 -9.28038e-07 0)
(2.92083e-09 -9.29008e-07 0)
(2.8692e-09 -9.29971e-07 0)
(2.81723e-09 -9.30928e-07 0)
(2.76494e-09 -9.31877e-07 0)
(2.71231e-09 -9.32819e-07 0)
(2.65936e-09 -9.33752e-07 0)
(2.6061e-09 -9.34677e-07 0)
(2.55251e-09 -9.35593e-07 0)
(2.49862e-09 -9.36499e-07 0)
(2.44442e-09 -9.37396e-07 0)
(2.38991e-09 -9.38282e-07 0)
(2.33511e-09 -9.39158e-07 0)
(2.28002e-09 -9.40023e-07 0)
(2.22464e-09 -9.40876e-07 0)
(2.16898e-09 -9.41717e-07 0)
(2.11305e-09 -9.42546e-07 0)
(2.05685e-09 -9.43361e-07 0)
(2.00039e-09 -9.44164e-07 0)
(1.94367e-09 -9.44952e-07 0)
(1.88671e-09 -9.45726e-07 0)
(1.8295e-09 -9.46485e-07 0)
(1.77207e-09 -9.47228e-07 0)
(1.71441e-09 -9.47955e-07 0)
(1.65653e-09 -9.48666e-07 0)
(1.59845e-09 -9.4936e-07 0)
(1.54017e-09 -9.50037e-07 0)
(1.48171e-09 -9.50695e-07 0)
(1.42306e-09 -9.51334e-07 0)
(1.36424e-09 -9.51954e-07 0)
(1.30527e-09 -9.52555e-07 0)
(1.24615e-09 -9.53135e-07 0)
(1.18689e-09 -9.53694e-07 0)
(1.1275e-09 -9.54231e-07 0)
(1.068e-09 -9.54747e-07 0)
(1.0084e-09 -9.55239e-07 0)
(9.48705e-10 -9.55708e-07 0)
(8.88934e-10 -9.56154e-07 0)
(8.29098e-10 -9.56574e-07 0)
(7.69211e-10 -9.5697e-07 0)
(7.09286e-10 -9.5734e-07 0)
(6.49336e-10 -9.57683e-07 0)
(5.89377e-10 -9.57999e-07 0)
(5.29423e-10 -9.58288e-07 0)
(4.69489e-10 -9.58548e-07 0)
(4.0959e-10 -9.58779e-07 0)
(3.49742e-10 -9.58981e-07 0)
(2.89961e-10 -9.59153e-07 0)
(2.30263e-10 -9.59293e-07 0)
(1.70664e-10 -9.59402e-07 0)
(1.11182e-10 -9.59479e-07 0)
(5.18333e-11 -9.59524e-07 0)
(-7.36369e-12 -9.59534e-07 0)
(-6.63915e-11 -9.59511e-07 0)
(-1.25232e-10 -9.59453e-07 0)
(-1.83867e-10 -9.5936e-07 0)
(-2.42277e-10 -9.59231e-07 0)
(-3.00444e-10 -9.59065e-07 0)
(-3.58349e-10 -9.58862e-07 0)
(-4.15971e-10 -9.58621e-07 0)
(-4.73292e-10 -9.58342e-07 0)
(-5.30291e-10 -9.58023e-07 0)
(-5.86948e-10 -9.57665e-07 0)
(-6.43243e-10 -9.57267e-07 0)
(-6.99155e-10 -9.56828e-07 0)
(-7.54664e-10 -9.56347e-07 0)
(-8.09749e-10 -9.55824e-07 0)
(-8.64389e-10 -9.55259e-07 0)
(-9.18562e-10 -9.54651e-07 0)
(-9.72247e-10 -9.53999e-07 0)
(-1.02542e-09 -9.53303e-07 0)
(-1.07807e-09 -9.52562e-07 0)
(-1.13017e-09 -9.51775e-07 0)
(-1.18169e-09 -9.50944e-07 0)
(-1.23261e-09 -9.50066e-07 0)
(-1.28293e-09 -9.49141e-07 0)
(-1.3326e-09 -9.48169e-07 0)
(-1.38161e-09 -9.4715e-07 0)
(-1.42995e-09 -9.46082e-07 0)
(-1.47758e-09 -9.44967e-07 0)
(-1.5245e-09 -9.43802e-07 0)
(-1.57066e-09 -9.42589e-07 0)
(-1.61607e-09 -9.41326e-07 0)
(-1.66069e-09 -9.40014e-07 0)
(-1.70451e-09 -9.38651e-07 0)
(-1.7475e-09 -9.37239e-07 0)
(-1.78965e-09 -9.35775e-07 0)
(-1.83093e-09 -9.34262e-07 0)
(-1.87133e-09 -9.32697e-07 0)
(-1.91083e-09 -9.31081e-07 0)
(-1.94941e-09 -9.29414e-07 0)
(-1.98706e-09 -9.27695e-07 0)
(-2.02375e-09 -9.25926e-07 0)
(-2.05946e-09 -9.24104e-07 0)
(-2.09419e-09 -9.22232e-07 0)
(-2.12792e-09 -9.20307e-07 0)
(-2.16062e-09 -9.18332e-07 0)
(-2.19229e-09 -9.16305e-07 0)
(-2.22291e-09 -9.14226e-07 0)
(-2.25247e-09 -9.12097e-07 0)
(-2.28096e-09 -9.09916e-07 0)
(-2.30835e-09 -9.07685e-07 0)
(-2.33465e-09 -9.05403e-07 0)
(-2.35984e-09 -9.03071e-07 0)
(-2.38391e-09 -9.00689e-07 0)
(-2.40685e-09 -8.98257e-07 0)
(-2.42866e-09 -8.95775e-07 0)
(-2.44932e-09 -8.93245e-07 0)
(-2.46882e-09 -8.90667e-07 0)
(-2.48717e-09 -8.8804e-07 0)
(-2.50435e-09 -8.85366e-07 0)
(-2.52037e-09 -8.82644e-07 0)
(-2.53521e-09 -8.79877e-07 0)
(-2.54888e-09 -8.77063e-07 0)
(-2.56137e-09 -8.74205e-07 0)
(-2.57269e-09 -8.71302e-07 0)
(-2.58283e-09 -8.68355e-07 0)
(-2.59179e-09 -8.65365e-07 0)
(-2.59957e-09 -8.62333e-07 0)
(-2.60618e-09 -8.59259e-07 0)
(-2.61163e-09 -8.56145e-07 0)
(-2.61591e-09 -8.52992e-07 0)
(-2.61902e-09 -8.49799e-07 0)
(-2.62099e-09 -8.46569e-07 0)
(-2.6218e-09 -8.43302e-07 0)
(-2.62148e-09 -8.4e-07 0)
(-2.62001e-09 -8.3666e-07 0)
(-2.6175e-09 -8.33292e-07 0)
(-2.61352e-09 -8.29854e-07 0)
(-2.60788e-09 -8.26057e-07 0)
(-2.60075e-09 -8.21894e-07 0)
(-2.59196e-09 -8.17663e-07 0)
(-2.5817e-09 -8.13456e-07 0)
(-2.57012e-09 -8.0929e-07 0)
(-2.55732e-09 -8.05148e-07 0)
(-2.54337e-09 -8.01023e-07 0)
(-2.52831e-09 -7.96919e-07 0)
(-2.51222e-09 -7.9284e-07 0)
(-2.49516e-09 -7.88789e-07 0)
(-2.47719e-09 -7.84767e-07 0)
(-2.45835e-09 -7.80774e-07 0)
(-2.43871e-09 -7.76812e-07 0)
(-2.41831e-09 -7.72883e-07 0)
(-2.3972e-09 -7.68987e-07 0)
(-2.37542e-09 -7.65127e-07 0)
(-2.35303e-09 -7.61302e-07 0)
(-2.33005e-09 -7.57513e-07 0)
(-2.30652e-09 -7.53763e-07 0)
(-2.28249e-09 -7.50051e-07 0)
(-2.25798e-09 -7.46378e-07 0)
(-2.23303e-09 -7.42745e-07 0)
(-2.20767e-09 -7.39153e-07 0)
(-2.18192e-09 -7.35602e-07 0)
(-2.15582e-09 -7.32094e-07 0)
(-2.12938e-09 -7.28627e-07 0)
(-2.10264e-09 -7.25204e-07 0)
(-2.07561e-09 -7.21825e-07 0)
(-2.04831e-09 -7.18489e-07 0)
(-2.02076e-09 -7.15198e-07 0)
(-1.99298e-09 -7.11951e-07 0)
(-1.96499e-09 -7.0875e-07 0)
(-1.93679e-09 -7.05594e-07 0)
(-1.90842e-09 -7.02484e-07 0)
(-1.87987e-09 -6.9942e-07 0)
(-1.85115e-09 -6.96402e-07 0)
(-1.82229e-09 -6.93431e-07 0)
(-1.79329e-09 -6.90506e-07 0)
(-1.76415e-09 -6.87629e-07 0)
(-1.7349e-09 -6.84799e-07 0)
(-1.70552e-09 -6.82016e-07 0)
(-1.67604e-09 -6.79281e-07 0)
(-1.64645e-09 -6.76594e-07 0)
(-1.61677e-09 -6.73955e-07 0)
(-1.58699e-09 -6.71364e-07 0)
(-1.55712e-09 -6.68821e-07 0)
(-1.52717e-09 -6.66326e-07 0)
(-1.49713e-09 -6.6388e-07 0)
(-1.46701e-09 -6.61482e-07 0)
(-1.43682e-09 -6.59134e-07 0)
(-1.40655e-09 -6.56834e-07 0)
(-1.37621e-09 -6.54583e-07 0)
(-1.34579e-09 -6.52382e-07 0)
(-1.3153e-09 -6.50229e-07 0)
(-1.28475e-09 -6.48127e-07 0)
(-1.25412e-09 -6.46073e-07 0)
(-1.22342e-09 -6.44069e-07 0)
(-1.19265e-09 -6.42115e-07 0)
(-1.16182e-09 -6.40211e-07 0)
(-1.13091e-09 -6.38356e-07 0)
(-1.09994e-09 -6.36552e-07 0)
(-1.0689e-09 -6.34798e-07 0)
(-1.03779e-09 -6.33094e-07 0)
(-1.00662e-09 -6.3144e-07 0)
(-9.75376e-10 -6.29837e-07 0)
(-9.44065e-10 -6.28285e-07 0)
(-9.12688e-10 -6.26783e-07 0)
(-8.81244e-10 -6.25332e-07 0)
(-8.49733e-10 -6.23932e-07 0)
(-8.18158e-10 -6.22583e-07 0)
(-7.86517e-10 -6.21285e-07 0)
(-7.54813e-10 -6.20039e-07 0)
(-7.23045e-10 -6.18843e-07 0)
(-6.91215e-10 -6.17699e-07 0)
(-6.59325e-10 -6.16607e-07 0)
(-6.27376e-10 -6.15566e-07 0)
(-5.95369e-10 -6.14577e-07 0)
(-5.63306e-10 -6.1364e-07 0)
(-5.3119e-10 -6.12755e-07 0)
(-4.99021e-10 -6.11922e-07 0)
(-4.66803e-10 -6.1114e-07 0)
(-4.34538e-10 -6.10411e-07 0)
(-4.02228e-10 -6.09734e-07 0)
(-3.69877e-10 -6.0911e-07 0)
(-3.37485e-10 -6.08537e-07 0)
(-3.05059e-10 -6.08021e-07 0)
(-2.72597e-10 -6.07541e-07 0)
(-2.40111e-10 -6.07169e-07 0)
(-2.07578e-10 -6.06665e-07 0)
(-1.75086e-10 -6.06816e-07 0)
(-1.42361e-10 -6.04983e-07 0)
(-1.10338e-10 -6.09701e-07 0)
(-7.60078e-11 -5.91306e-07 0)
(-4.97989e-11 -6.39761e-07 0)
(-2.12082e-11 -5.58732e-07 0)
)
;
    }
    bottomWall
    {
        type            calculated;
        value           nonuniform List<vector> 
449
(
(-48.5454 -0.964286 0)
(-19.7562 -0.0051568 0)
(-14.347 -0.00113516 0)
(-12.0366 -0.000545686 0)
(-10.63 -0.000351635 0)
(-9.6358 -0.000256098 0)
(-8.87742 -0.000198567 0)
(-8.27366 -0.000159882 0)
(-7.77803 -0.00013238 0)
(-7.36122 -0.000112025 0)
(-7.00407 -9.64179e-05 0)
(-6.69352 -8.41059e-05 0)
(-6.42025 -7.41839e-05 0)
(-6.17735 -6.60529e-05 0)
(-5.95957 -5.92931e-05 0)
(-5.76284 -5.36012e-05 0)
(-5.58397 -4.87549e-05 0)
(-5.42039 -4.45883e-05 0)
(-5.27004 -4.09753e-05 0)
(-5.13122 -3.78183e-05 0)
(-5.00252 -3.50409e-05 0)
(-4.88276 -3.25821e-05 0)
(-4.77095 -3.03931e-05 0)
(-4.66624 -2.84343e-05 0)
(-4.56791 -2.66734e-05 0)
(-4.47532 -2.50834e-05 0)
(-4.38794 -2.36421e-05 0)
(-4.3053 -2.23307e-05 0)
(-4.22697 -2.11336e-05 0)
(-4.15259 -2.00372e-05 0)
(-4.08185 -1.90301e-05 0)
(-4.01444 -1.81026e-05 0)
(-3.95012 -1.72461e-05 0)
(-3.88865 -1.64532e-05 0)
(-3.82982 -1.57176e-05 0)
(-3.77346 -1.50337e-05 0)
(-3.71939 -1.43965e-05 0)
(-3.66745 -1.38017e-05 0)
(-3.61752 -1.32454e-05 0)
(-3.56946 -1.27244e-05 0)
(-3.52317 -1.22355e-05 0)
(-3.47852 -1.17761e-05 0)
(-3.43543 -1.13437e-05 0)
(-3.3938 -1.09363e-05 0)
(-3.35356 -1.05517e-05 0)
(-3.31463 -1.01883e-05 0)
(-3.27693 -9.84454e-06 0)
(-3.24041 -9.5189e-06 0)
(-3.205 -9.21012e-06 0)
(-3.17065 -8.91699e-06 0)
(-3.1373 -8.63844e-06 0)
(-3.10491 -8.37347e-06 0)
(-3.07343 -8.1212e-06 0)
(-3.04281 -7.88078e-06 0)
(-3.01303 -7.65145e-06 0)
(-2.98403 -7.43253e-06 0)
(-2.95579 -7.22336e-06 0)
(-2.92828 -7.02335e-06 0)
(-2.90145 -6.83196e-06 0)
(-2.87529 -6.64867e-06 0)
(-2.84977 -6.47302e-06 0)
(-2.82486 -6.30458e-06 0)
(-2.80053 -6.14294e-06 0)
(-2.77676 -5.98773e-06 0)
(-2.75354 -5.83859e-06 0)
(-2.73084 -5.6952e-06 0)
(-2.70864 -5.55727e-06 0)
(-2.68692 -5.4245e-06 0)
(-2.66567 -5.29663e-06 0)
(-2.64487 -5.17342e-06 0)
(-2.6245 -5.05463e-06 0)
(-2.60454 -4.94004e-06 0)
(-2.58499 -4.82946e-06 0)
(-2.56583 -4.7227e-06 0)
(-2.54705 -4.61956e-06 0)
(-2.52863 -4.51989e-06 0)
(-2.51056 -4.42353e-06 0)
(-2.49284 -4.33032e-06 0)
(-2.47544 -4.24012e-06 0)
(-2.45837 -4.15281e-06 0)
(-2.4416 -4.06825e-06 0)
(-2.42514 -3.98632e-06 0)
(-2.40897 -3.90692e-06 0)
(-2.39308 -3.82994e-06 0)
(-2.37746 -3.75528e-06 0)
(-2.36211 -3.68284e-06 0)
(-2.34702 -3.61253e-06 0)
(-2.33218 -3.54427e-06 0)
(-2.31759 -3.47797e-06 0)
(-2.30324 -3.41356e-06 0)
(-2.28911 -3.35097e-06 0)
(-2.27521 -3.29012e-06 0)
(-2.26153 -3.23095e-06 0)
(-2.24807 -3.17339e-06 0)
(-2.23481 -3.11739e-06 0)
(-2.22175 -3.06289e-06 0)
(-2.20889 -3.00982e-06 0)
(-2.19622 -2.95815e-06 0)
(-2.18374 -2.90783e-06 0)
(-2.17144 -2.85879e-06 0)
(-2.15932 -2.811e-06 0)
(-2.14737 -2.76442e-06 0)
(-2.13559 -2.71901e-06 0)
(-2.12398 -2.67471e-06 0)
(-2.11253 -2.6315e-06 0)
(-2.10123 -2.58935e-06 0)
(-2.0901 -2.5482e-06 0)
(-2.07911 -2.50804e-06 0)
(-2.06826 -2.46883e-06 0)
(-2.05756 -2.43054e-06 0)
(-2.04701 -2.39314e-06 0)
(-2.03659 -2.3566e-06 0)
(-2.0263 -2.32089e-06 0)
(-2.01614 -2.28599e-06 0)
(-2.00612 -2.25188e-06 0)
(-1.99622 -2.21853e-06 0)
(-1.98644 -2.18591e-06 0)
(-1.97678 -2.15401e-06 0)
(-1.96724 -2.1228e-06 0)
(-1.95782 -2.09227e-06 0)
(-1.94851 -2.06238e-06 0)
(-1.93931 -2.03313e-06 0)
(-1.93021 -2.0045e-06 0)
(-1.92123 -1.97647e-06 0)
(-1.91235 -1.94902e-06 0)
(-1.90357 -1.92213e-06 0)
(-1.89489 -1.89579e-06 0)
(-1.88631 -1.86998e-06 0)
(-1.87783 -1.8447e-06 0)
(-1.86944 -1.81992e-06 0)
(-1.86114 -1.79563e-06 0)
(-1.85294 -1.77181e-06 0)
(-1.84482 -1.74847e-06 0)
(-1.8368 -1.72557e-06 0)
(-1.82885 -1.70312e-06 0)
(-1.821 -1.6811e-06 0)
(-1.81322 -1.65949e-06 0)
(-1.80553 -1.6383e-06 0)
(-1.79792 -1.6175e-06 0)
(-1.79038 -1.59708e-06 0)
(-1.78293 -1.57705e-06 0)
(-1.77554 -1.55738e-06 0)
(-1.76824 -1.53807e-06 0)
(-1.76101 -1.51911e-06 0)
(-1.75384 -1.50049e-06 0)
(-1.74675 -1.48221e-06 0)
(-1.73973 -1.46425e-06 0)
(-1.73278 -1.44661e-06 0)
(-1.7259 -1.42927e-06 0)
(-1.71908 -1.41224e-06 0)
(-1.71232 -1.39551e-06 0)
(-1.70563 -1.37906e-06 0)
(-1.69901 -1.36289e-06 0)
(-1.69244 -1.347e-06 0)
(-1.68594 -1.33138e-06 0)
(-1.6795 -1.31601e-06 0)
(-1.67311 -1.30091e-06 0)
(-1.66679 -1.28606e-06 0)
(-1.66052 -1.27145e-06 0)
(-1.65431 -1.25708e-06 0)
(-1.64815 -1.24295e-06 0)
(-1.64205 -1.22904e-06 0)
(-1.636 -1.21536e-06 0)
(-1.63 -1.2019e-06 0)
(-1.62406 -1.18866e-06 0)
(-1.61817 -1.17562e-06 0)
(-1.61233 -1.16279e-06 0)
(-1.60654 -1.15017e-06 0)
(-1.6008 -1.13777e-06 0)
(-1.5951 -1.12542e-06 0)
(-1.58946 -1.11371e-06 0)
(-1.58386 -1.10159e-06 0)
(-1.57831 -1.08845e-06 0)
(-1.57312 -1.07827e-06 0)
(-1.56824 -1.07002e-06 0)
(-1.56335 -1.05964e-06 0)
(-1.55846 -1.04893e-06 0)
(-1.55356 -1.03891e-06 0)
(-1.54865 -1.02886e-06 0)
(-1.54375 -1.01893e-06 0)
(-1.53883 -1.00906e-06 0)
(-1.53391 -9.9926e-07 0)
(-1.52899 -9.89519e-07 0)
(-1.52406 -9.79838e-07 0)
(-1.51912 -9.70213e-07 0)
(-1.51419 -9.60645e-07 0)
(-1.50924 -9.51132e-07 0)
(-1.5043 -9.41675e-07 0)
(-1.49934 -9.32273e-07 0)
(-1.49439 -9.22927e-07 0)
(-1.48943 -9.13637e-07 0)
(-1.48447 -9.04402e-07 0)
(-1.4795 -8.95224e-07 0)
(-1.47454 -8.86102e-07 0)
(-1.46957 -8.77036e-07 0)
(-1.46459 -8.68028e-07 0)
(-1.45962 -8.59076e-07 0)
(-1.45464 -8.50182e-07 0)
(-1.44966 -8.41345e-07 0)
(-1.44468 -8.32566e-07 0)
(-1.4397 -8.23845e-07 0)
(-1.43471 -8.15182e-07 0)
(-1.42973 -8.06577e-07 0)
(-1.42474 -7.98031e-07 0)
(-1.41976 -7.89543e-07 0)
(-1.41477 -7.81114e-07 0)
(-1.40978 -7.72744e-07 0)
(-1.4048 -7.64433e-07 0)
(-1.39981 -7.56181e-07 0)
(-1.39482 -7.47989e-07 0)
(-1.38984 -7.39855e-07 0)
(-1.38485 -7.31782e-07 0)
(-1.37986 -7.23768e-07 0)
(-1.37488 -7.15814e-07 0)
(-1.3699 -7.07919e-07 0)
(-1.36492 -7.00084e-07 0)
(-1.35994 -6.92309e-07 0)
(-1.35496 -6.84594e-07 0)
(-1.34999 -6.76938e-07 0)
(-1.34501 -6.69343e-07 0)
(-1.34004 -6.61808e-07 0)
(-1.33508 -6.54332e-07 0)
(-1.33011 -6.46916e-07 0)
(-1.32515 -6.3956e-07 0)
(-1.32019 -6.32264e-07 0)
(-1.31523 -6.25028e-07 0)
(-1.31028 -6.17851e-07 0)
(-1.30533 -6.10734e-07 0)
(-1.30039 -6.03677e-07 0)
(-1.29545 -5.96679e-07 0)
(-1.29051 -5.89741e-07 0)
(-1.28558 -5.82862e-07 0)
(-1.28066 -5.76042e-07 0)
(-1.27573 -5.69281e-07 0)
(-1.27082 -5.6258e-07 0)
(-1.26591 -5.55937e-07 0)
(-1.261 -5.49353e-07 0)
(-1.2561 -5.42828e-07 0)
(-1.2512 -5.36361e-07 0)
(-1.24631 -5.29953e-07 0)
(-1.24143 -5.23602e-07 0)
(-1.23655 -5.1731e-07 0)
(-1.23168 -5.11076e-07 0)
(-1.22682 -5.04899e-07 0)
(-1.22196 -4.9878e-07 0)
(-1.21711 -4.92718e-07 0)
(-1.21227 -4.86713e-07 0)
(-1.20743 -4.80764e-07 0)
(-1.2026 -4.74873e-07 0)
(-1.19778 -4.69038e-07 0)
(-1.19296 -4.63259e-07 0)
(-1.18816 -4.57536e-07 0)
(-1.18336 -4.51869e-07 0)
(-1.17857 -4.46257e-07 0)
(-1.17378 -4.40701e-07 0)
(-1.16901 -4.35199e-07 0)
(-1.16424 -4.29753e-07 0)
(-1.15949 -4.24361e-07 0)
(-1.15474 -4.19023e-07 0)
(-1.15 -4.13739e-07 0)
(-1.14527 -4.08508e-07 0)
(-1.14054 -4.03331e-07 0)
(-1.13583 -3.98207e-07 0)
(-1.13113 -3.93136e-07 0)
(-1.12643 -3.88118e-07 0)
(-1.12175 -3.83152e-07 0)
(-1.11708 -3.78237e-07 0)
(-1.11241 -3.73375e-07 0)
(-1.10776 -3.68563e-07 0)
(-1.10311 -3.63803e-07 0)
(-1.09848 -3.59094e-07 0)
(-1.09386 -3.54434e-07 0)
(-1.08924 -3.49825e-07 0)
(-1.08464 -3.45266e-07 0)
(-1.08005 -3.40756e-07 0)
(-1.07547 -3.36295e-07 0)
(-1.0709 -3.31884e-07 0)
(-1.06634 -3.2752e-07 0)
(-1.06179 -3.23205e-07 0)
(-1.05725 -3.18937e-07 0)
(-1.05273 -3.14717e-07 0)
(-1.04821 -3.10544e-07 0)
(-1.04371 -3.06418e-07 0)
(-1.03922 -3.02338e-07 0)
(-1.03474 -2.98305e-07 0)
(-1.03027 -2.94317e-07 0)
(-1.02581 -2.90374e-07 0)
(-1.02137 -2.86477e-07 0)
(-1.01694 -2.82624e-07 0)
(-1.01252 -2.78816e-07 0)
(-1.00811 -2.75052e-07 0)
(-1.00372 -2.71331e-07 0)
(-0.999334 -2.67654e-07 0)
(-0.994964 -2.6402e-07 0)
(-0.990606 -2.60428e-07 0)
(-0.986261 -2.56879e-07 0)
(-0.981928 -2.53371e-07 0)
(-0.977609 -2.49905e-07 0)
(-0.973302 -2.46481e-07 0)
(-0.969008 -2.43097e-07 0)
(-0.964727 -2.39753e-07 0)
(-0.96046 -2.3645e-07 0)
(-0.956205 -2.33187e-07 0)
(-0.951963 -2.29963e-07 0)
(-0.947735 -2.26778e-07 0)
(-0.94352 -2.23632e-07 0)
(-0.939318 -2.20524e-07 0)
(-0.93513 -2.17455e-07 0)
(-0.930955 -2.14423e-07 0)
(-0.926794 -2.11428e-07 0)
(-0.922647 -2.08471e-07 0)
(-0.918512 -2.0555e-07 0)
(-0.914392 -2.02665e-07 0)
(-0.910285 -1.99816e-07 0)
(-0.906193 -1.97003e-07 0)
(-0.902113 -1.94225e-07 0)
(-0.898048 -1.91483e-07 0)
(-0.893997 -1.88774e-07 0)
(-0.88996 -1.861e-07 0)
(-0.885936 -1.8346e-07 0)
(-0.881927 -1.80853e-07 0)
(-0.877931 -1.7828e-07 0)
(-0.87395 -1.75739e-07 0)
(-0.869983 -1.73231e-07 0)
(-0.86603 -1.70756e-07 0)
(-0.862091 -1.68312e-07 0)
(-0.858167 -1.65899e-07 0)
(-0.854257 -1.63518e-07 0)
(-0.850361 -1.61168e-07 0)
(-0.846479 -1.58848e-07 0)
(-0.842612 -1.56559e-07 0)
(-0.838759 -1.543e-07 0)
(-0.83492 -1.5207e-07 0)
(-0.831096 -1.49869e-07 0)
(-0.827286 -1.47698e-07 0)
(-0.823491 -1.45555e-07 0)
(-0.81971 -1.4344e-07 0)
(-0.815943 -1.41354e-07 0)
(-0.812191 -1.39295e-07 0)
(-0.808454 -1.37263e-07 0)
(-0.804731 -1.35259e-07 0)
(-0.801022 -1.33282e-07 0)
(-0.797329 -1.31331e-07 0)
(-0.793649 -1.29406e-07 0)
(-0.789984 -1.27507e-07 0)
(-0.786334 -1.25633e-07 0)
(-0.782699 -1.23785e-07 0)
(-0.779078 -1.21962e-07 0)
(-0.775471 -1.20162e-07 0)
(-0.771879 -1.18389e-07 0)
(-0.768302 -1.16635e-07 0)
(-0.76474 -1.14873e-07 0)
(-0.761194 -1.13252e-07 0)
(-0.757656 -1.11641e-07 0)
(-0.753739 -1.09686e-07 0)
(-0.749492 -1.07614e-07 0)
(-0.745322 -1.05747e-07 0)
(-0.741221 -1.03974e-07 0)
(-0.737191 -1.02187e-07 0)
(-0.733229 -1.00433e-07 0)
(-0.729336 -9.87235e-08 0)
(-0.725508 -9.70599e-08 0)
(-0.721745 -9.54407e-08 0)
(-0.718044 -9.38648e-08 0)
(-0.714403 -9.23307e-08 0)
(-0.710822 -9.08373e-08 0)
(-0.707299 -8.93832e-08 0)
(-0.703832 -8.79669e-08 0)
(-0.700419 -8.65871e-08 0)
(-0.69706 -8.52426e-08 0)
(-0.693752 -8.39321e-08 0)
(-0.690496 -8.26545e-08 0)
(-0.687288 -8.14085e-08 0)
(-0.684129 -8.01932e-08 0)
(-0.681016 -7.90074e-08 0)
(-0.67795 -7.78503e-08 0)
(-0.674928 -7.67207e-08 0)
(-0.67195 -7.5618e-08 0)
(-0.669014 -7.4541e-08 0)
(-0.66612 -7.34892e-08 0)
(-0.663267 -7.24615e-08 0)
(-0.660453 -7.14573e-08 0)
(-0.657678 -7.04758e-08 0)
(-0.654942 -6.95164e-08 0)
(-0.652242 -6.85782e-08 0)
(-0.649578 -6.76608e-08 0)
(-0.64695 -6.67634e-08 0)
(-0.644357 -6.58855e-08 0)
(-0.641798 -6.50265e-08 0)
(-0.639272 -6.41857e-08 0)
(-0.636778 -6.33628e-08 0)
(-0.634316 -6.25571e-08 0)
(-0.631886 -6.17682e-08 0)
(-0.629486 -6.09956e-08 0)
(-0.627116 -6.02388e-08 0)
(-0.624775 -5.94974e-08 0)
(-0.622463 -5.8771e-08 0)
(-0.620179 -5.80591e-08 0)
(-0.617922 -5.73614e-08 0)
(-0.615693 -5.66775e-08 0)
(-0.61349 -5.60069e-08 0)
(-0.611313 -5.53495e-08 0)
(-0.609162 -5.47047e-08 0)
(-0.607035 -5.40723e-08 0)
(-0.604933 -5.3452e-08 0)
(-0.602855 -5.28434e-08 0)
(-0.600801 -5.22462e-08 0)
(-0.598769 -5.16603e-08 0)
(-0.596761 -5.10852e-08 0)
(-0.594774 -5.05208e-08 0)
(-0.59281 -4.99667e-08 0)
(-0.590867 -4.94228e-08 0)
(-0.588945 -4.88888e-08 0)
(-0.587044 -4.83644e-08 0)
(-0.585163 -4.78495e-08 0)
(-0.583302 -4.73438e-08 0)
(-0.581461 -4.68472e-08 0)
(-0.579638 -4.63594e-08 0)
(-0.577835 -4.58803e-08 0)
(-0.576051 -4.54097e-08 0)
(-0.574284 -4.49474e-08 0)
(-0.572536 -4.44934e-08 0)
(-0.570805 -4.40474e-08 0)
(-0.569091 -4.36094e-08 0)
(-0.567395 -4.31792e-08 0)
(-0.565715 -4.27568e-08 0)
(-0.564051 -4.23421e-08 0)
(-0.562404 -4.1935e-08 0)
(-0.560772 -4.15356e-08 0)
(-0.559156 -4.1144e-08 0)
(-0.557555 -4.07601e-08 0)
(-0.555968 -4.03843e-08 0)
(-0.554397 -4.00166e-08 0)
(-0.552839 -3.96577e-08 0)
(-0.551296 -3.93079e-08 0)
(-0.549765 -3.89683e-08 0)
(-0.548248 -3.86402e-08 0)
(-0.546744 -3.83249e-08 0)
(-0.545251 -3.80252e-08 0)
(-0.54377 -3.77527e-08 0)
(-0.542299 -3.74828e-08 0)
(-0.54084 -3.72651e-08 0)
(-0.539385 -3.73025e-08 0)
(-0.537923 -3.67053e-08 0)
(-0.536515 -3.58416e-08 0)
(-0.53512 -4.74139e-08 0)
(-0.532807 -1.2993e-08 0)
(-0.534115 -3.4841e-08 0)
(-0.530041 -5.30175e-08 0)
)
;
    }
    symmetry
    {
        type            symmetryPlane;
    }
    frontAndBack
    {
        type            empty;
    }
}


// ************************************************************************* //
