/*--------------------------------*- C++ -*----------------------------------*\
| =========                 |                                                 |
| \\      /  F ield         | OpenFOAM: The Open Source CFD Toolbox           |
|  \\    /   O peration     | Version:  v2012                                 |
|   \\  /    A nd           | Website:  www.openfoam.com                      |
|    \\/     M anipulation  |                                                 |
\*---------------------------------------------------------------------------*/
FoamFile
{
    version     2.0;
    format      ascii;
    class       volScalarField;
    location    "29.5";
    object      yPlus;
}
// * * * * * * * * * * * * * * * * * * * * * * * * * * * * * * * * * * * * * //

dimensions      [0 0 0 0 0 0 0];


internalField   uniform 0;

boundaryField
{
    inlet
    {
        type            calculated;
        value           uniform 0;
    }
    outlet
    {
        type            calculated;
        value           uniform 0;
    }
    topWall
    {
        type            calculated;
        value           nonuniform List<scalar> 
545
(
0.0707648
0.122021
0.156534
0.18399
0.207222
0.227536
0.245666
0.262074
0.277076
0.290897
0.303708
0.315639
0.326796
0.337263
0.347111
0.356398
0.365175
0.373486
0.381366
0.388851
0.395968
0.402744
0.409202
0.415362
0.421245
0.426866
0.432241
0.437386
0.442312
0.447032
0.451558
0.455899
0.460065
0.464065
0.467908
0.471602
0.475152
0.478568
0.481853
0.485016
0.488061
0.490994
0.49382
0.496543
0.499168
0.5017
0.504142
0.506497
0.508771
0.510965
0.513083
0.515129
0.517105
0.519015
0.520859
0.522643
0.524366
0.526033
0.527644
0.529203
0.530711
0.53217
0.533582
0.534949
0.536272
0.537552
0.538792
0.539993
0.541156
0.542283
0.543375
0.544432
0.545444
0.546422
0.547391
0.548351
0.549303
0.550246
0.551181
0.552107
0.553026
0.553936
0.554838
0.555732
0.556618
0.557496
0.558367
0.55923
0.560085
0.560933
0.561774
0.562607
0.563433
0.564252
0.565063
0.565868
0.566592
0.567239
0.567886
0.568532
0.569177
0.569821
0.570465
0.571109
0.571751
0.572393
0.573034
0.573675
0.574314
0.574953
0.575592
0.576229
0.576866
0.577502
0.578138
0.578772
0.579406
0.580039
0.580671
0.581303
0.581933
0.582563
0.583192
0.58382
0.584448
0.585074
0.5857
0.586325
0.586949
0.587572
0.588194
0.588816
0.589436
0.590056
0.590674
0.591292
0.591909
0.592525
0.59314
0.593754
0.594367
0.594979
0.59559
0.5962
0.596809
0.597417
0.598025
0.598631
0.599236
0.59984
0.600443
0.601045
0.601646
0.602246
0.602845
0.603442
0.604039
0.604635
0.605229
0.605822
0.606415
0.607006
0.607596
0.608184
0.608772
0.609358
0.609944
0.610528
0.611111
0.611692
0.612273
0.612852
0.61343
0.614007
0.614582
0.615156
0.615729
0.616301
0.616871
0.617441
0.618008
0.618575
0.61914
0.619704
0.620266
0.620827
0.621387
0.621945
0.622502
0.623058
0.623612
0.624165
0.624716
0.625266
0.625815
0.626362
0.626907
0.627451
0.627994
0.628535
0.629075
0.629613
0.630149
0.630684
0.631218
0.63175
0.63228
0.632809
0.633336
0.633862
0.634386
0.634908
0.635429
0.635948
0.636466
0.636982
0.637496
0.638008
0.638519
0.639028
0.639536
0.640041
0.640545
0.641047
0.641548
0.642047
0.642544
0.643039
0.643532
0.644024
0.644513
0.645001
0.645487
0.645972
0.646454
0.646935
0.647413
0.64789
0.648365
0.648838
0.649309
0.649778
0.650245
0.65071
0.651174
0.651635
0.652094
0.652552
0.653007
0.65346
0.653911
0.654361
0.654808
0.655253
0.655696
0.656137
0.656576
0.657013
0.657447
0.65788
0.65831
0.658739
0.659165
0.659589
0.66001
0.66043
0.660847
0.661263
0.661676
0.662063
0.662428
0.662794
0.663162
0.663531
0.663901
0.664272
0.664644
0.665018
0.665393
0.665768
0.666145
0.666523
0.666902
0.667281
0.667662
0.668043
0.668425
0.668807
0.66919
0.669574
0.669958
0.670343
0.670728
0.671113
0.671498
0.671884
0.67227
0.672655
0.673041
0.673427
0.673812
0.674197
0.674582
0.674966
0.67535
0.675733
0.676115
0.676496
0.676877
0.677257
0.677635
0.678012
0.678388
0.678763
0.679136
0.679507
0.679877
0.680244
0.68061
0.680974
0.681335
0.681694
0.682051
0.682405
0.682756
0.683105
0.68345
0.683792
0.684131
0.684467
0.684799
0.685127
0.685451
0.685772
0.686088
0.6864
0.686707
0.687009
0.687307
0.6876
0.687887
0.688169
0.688446
0.688717
0.688982
0.68924
0.689493
0.689739
0.689978
0.690211
0.690437
0.690655
0.690866
0.691069
0.691264
0.691451
0.69163
0.691801
0.691962
0.692115
0.692259
0.692393
0.692518
0.692633
0.692738
0.692833
0.692917
0.69299
0.693053
0.693104
0.693145
0.693173
0.69319
0.693194
0.693187
0.693166
0.693133
0.693087
0.693028
0.692955
0.692869
0.692769
0.692655
0.692526
0.692382
0.692224
0.692051
0.691863
0.691659
0.691439
0.691204
0.690952
0.690685
0.6904
0.690099
0.689781
0.689446
0.689094
0.688724
0.688337
0.687932
0.687509
0.687067
0.686608
0.686129
0.685633
0.685117
0.684583
0.68403
0.683458
0.682866
0.682255
0.681625
0.680975
0.680306
0.679617
0.678908
0.67818
0.677432
0.676664
0.675876
0.675068
0.674241
0.673393
0.672526
0.671639
0.670732
0.669806
0.66886
0.667895
0.66691
0.665905
0.664882
0.663839
0.662778
0.661697
0.660598
0.659481
0.658345
0.657191
0.65602
0.65483
0.653624
0.6524
0.651159
0.649902
0.648629
0.647339
0.646034
0.644714
0.643229
0.641587
0.639945
0.638305
0.636668
0.635035
0.633406
0.631782
0.630163
0.628552
0.626947
0.625351
0.623763
0.622183
0.620614
0.619054
0.617505
0.615967
0.61444
0.612926
0.611423
0.609934
0.608457
0.606994
0.605545
0.60411
0.60269
0.601284
0.599893
0.598518
0.597158
0.595814
0.594486
0.593174
0.591879
0.590601
0.58934
0.588096
0.58687
0.585661
0.58447
0.583297
0.582142
0.581006
0.579888
0.578788
0.577708
0.576647
0.575605
0.574582
0.573579
0.572595
0.571632
0.570688
0.569765
0.568861
0.567979
0.567116
0.566275
0.565454
0.564654
0.563876
0.563119
0.562383
0.561669
0.560976
0.560305
0.559656
0.55903
0.558425
0.557843
0.557283
0.556745
0.556231
0.555739
0.55527
0.554823
0.5544
0.554
0.553623
0.55327
0.55294
0.552633
0.55235
0.552091
0.551855
0.551643
0.551455
0.55129
0.55115
0.551033
0.55094
0.550871
0.550829
0.550797
)
;
    }
    bottomWall
    {
        type            calculated;
        value           nonuniform List<scalar> 
449
(
0.139472
0.0889722
0.0758199
0.0694471
0.0652633
0.0621364
0.0596411
0.0575773
0.055826
0.0543097
0.0529758
0.051788
0.0507198
0.0497512
0.0488663
0.048053
0.0473013
0.0466034
0.0459525
0.0453432
0.044771
0.0442318
0.0437225
0.04324
0.042782
0.0423462
0.0419307
0.041534
0.0411544
0.0407908
0.0404418
0.0401065
0.0397839
0.0394731
0.0391734
0.0388841
0.0386045
0.038334
0.0380722
0.0378184
0.0375724
0.0373335
0.0371016
0.0368761
0.0366569
0.0364434
0.0362356
0.0360331
0.0358357
0.0356432
0.0354552
0.0352717
0.0350924
0.0349172
0.0347459
0.0345783
0.0344143
0.0342537
0.0340965
0.0339424
0.0337915
0.0336434
0.0334982
0.0333558
0.033216
0.0330788
0.0329441
0.0328118
0.0326817
0.032554
0.0324284
0.0323048
0.0321834
0.0320639
0.0319463
0.0318306
0.0317167
0.0316045
0.031494
0.0313852
0.031278
0.0311724
0.0310683
0.0309657
0.0308645
0.0307647
0.0306662
0.0305692
0.0304734
0.0303788
0.0302856
0.0301935
0.0301026
0.0300128
0.0299242
0.0298366
0.0297501
0.0296647
0.0295803
0.0294969
0.0294144
0.0293329
0.0292524
0.0291727
0.029094
0.0290161
0.0289391
0.0288629
0.0287876
0.028713
0.0286393
0.0285663
0.028494
0.0284225
0.0283518
0.0282817
0.0282124
0.0281437
0.0280757
0.0280084
0.0279417
0.0278757
0.0278102
0.0277454
0.0276812
0.0276176
0.0275546
0.0274922
0.0274303
0.0273689
0.0273081
0.0272479
0.0271881
0.0271289
0.0270702
0.027012
0.0269543
0.026897
0.0268403
0.026784
0.0267281
0.0266728
0.0266178
0.0265633
0.0265093
0.0264556
0.0264024
0.0263496
0.0262972
0.0262452
0.0261936
0.0261424
0.0260915
0.0260411
0.025991
0.0259413
0.0258919
0.025843
0.0257943
0.025746
0.0256981
0.0256504
0.0256032
0.0255562
0.0255096
0.0254633
0.0254173
0.0253716
0.0253262
0.0252811
0.0252364
0.0251918
0.0251477
0.0251063
0.0250673
0.0250282
0.024989
0.0249497
0.0249103
0.0248708
0.0248312
0.0247915
0.0247516
0.0247117
0.0246717
0.0246315
0.0245913
0.024551
0.0245105
0.02447
0.0244294
0.0243886
0.0243478
0.0243069
0.0242659
0.0242248
0.0241836
0.0241424
0.024101
0.0240596
0.024018
0.0239764
0.0239348
0.023893
0.0238511
0.0238092
0.0237672
0.0237251
0.023683
0.0236408
0.0235985
0.0235561
0.0235137
0.0234712
0.0234286
0.023386
0.0233433
0.0233005
0.0232577
0.0232148
0.0231719
0.0231289
0.0230859
0.0230427
0.0229996
0.0229564
0.0229131
0.0228698
0.0228265
0.0227831
0.0227396
0.0226961
0.0226526
0.022609
0.0225654
0.0225218
0.0224781
0.0224344
0.0223906
0.0223468
0.022303
0.0222592
0.0222153
0.0221714
0.0221274
0.0220835
0.0220395
0.0219955
0.0219514
0.0219074
0.0218633
0.0218192
0.0217751
0.021731
0.0216868
0.0216427
0.0215985
0.0215543
0.0215102
0.021466
0.0214218
0.0213776
0.0213333
0.0212891
0.0212449
0.0212007
0.0211565
0.0211123
0.0210681
0.0210238
0.0209796
0.0209354
0.0208912
0.0208471
0.0208029
0.0207587
0.0207146
0.0206704
0.0206263
0.0205822
0.0205381
0.020494
0.0204499
0.0204059
0.0203618
0.0203178
0.0202739
0.0202299
0.020186
0.020142
0.0200982
0.0200543
0.0200105
0.0199667
0.0199229
0.0198792
0.0198354
0.0197918
0.0197481
0.0197045
0.0196609
0.0196174
0.0195739
0.0195304
0.019487
0.0194436
0.0194003
0.019357
0.0193137
0.0192705
0.0192274
0.0191842
0.0191412
0.0190981
0.0190551
0.0190122
0.0189693
0.0189265
0.0188837
0.018841
0.0187983
0.0187557
0.0187131
0.0186706
0.0186281
0.0185857
0.0185433
0.018501
0.0184588
0.0184166
0.0183745
0.0183325
0.0182905
0.0182485
0.0182066
0.0181648
0.0181231
0.0180814
0.0180398
0.0179982
0.0179567
0.0179153
0.017874
0.0178327
0.0177914
0.0177503
0.0177092
0.0176682
0.0176273
0.0175864
0.0175456
0.0175049
0.0174642
0.0174236
0.0173785
0.0173295
0.0172812
0.0172336
0.0171867
0.0171404
0.0170949
0.01705
0.0170057
0.016962
0.016919
0.0168765
0.0168346
0.0167933
0.0167526
0.0167123
0.0166726
0.0166335
0.0165948
0.0165566
0.0165189
0.0164817
0.0164449
0.0164086
0.0163727
0.0163372
0.0163022
0.0162676
0.0162334
0.0161996
0.0161661
0.0161331
0.0161004
0.0160681
0.0160362
0.0160046
0.0159734
0.0159424
0.0159119
0.0158816
0.0158517
0.0158221
0.0157928
0.0157638
0.0157351
0.0157067
0.0156785
0.0156507
0.0156231
0.0155958
0.0155688
0.0155421
0.0155156
0.0154893
0.0154633
0.0154375
0.015412
0.0153867
0.0153617
0.0153369
0.0153123
0.0152879
0.0152638
0.0152398
0.0152161
0.0151926
0.0151693
0.0151462
0.0151233
0.0151006
0.015078
0.0150557
0.0150335
0.0150116
0.0149898
0.0149682
0.0149467
0.0149254
0.0149043
0.0148834
0.0148626
0.0148419
0.0148215
0.0148011
0.0147809
0.0147608
0.0147408
0.014721
0.0147012
0.0146812
0.014662
0.0146429
0.0146112
0.0146292
0.0145733
)
;
    }
    symmetry
    {
        type            symmetryPlane;
    }
    frontAndBack
    {
        type            empty;
    }
}


// ************************************************************************* //
