/*--------------------------------*- C++ -*----------------------------------*\
| =========                 |                                                 |
| \\      /  F ield         | OpenFOAM: The Open Source CFD Toolbox           |
|  \\    /   O peration     | Version:  v2012                                 |
|   \\  /    A nd           | Website:  www.openfoam.com                      |
|    \\/     M anipulation  |                                                 |
\*---------------------------------------------------------------------------*/
FoamFile
{
    version     2.0;
    format      ascii;
    class       volScalarField;
    location    "42.5";
    object      nut;
}
// * * * * * * * * * * * * * * * * * * * * * * * * * * * * * * * * * * * * * //

dimensions      [0 2 -1 0 0 0 0];


internalField   nonuniform List<scalar> 
209825
(
1.23965e-07
1.23069e-07
1.22199e-07
1.21317e-07
1.20485e-07
1.19723e-07
1.19071e-07
1.18504e-07
1.18038e-07
1.17635e-07
1.17307e-07
1.17019e-07
1.16787e-07
1.16578e-07
1.16412e-07
1.16258e-07
1.16137e-07
1.16021e-07
1.15933e-07
1.15844e-07
1.15778e-07
1.1571e-07
1.15661e-07
1.15607e-07
1.1557e-07
1.15528e-07
1.15499e-07
1.15466e-07
1.15444e-07
1.15417e-07
1.154e-07
1.15378e-07
1.15365e-07
1.15347e-07
1.15338e-07
1.15323e-07
1.15315e-07
1.15303e-07
1.15297e-07
1.15288e-07
1.15283e-07
1.15275e-07
1.15273e-07
1.15266e-07
1.15263e-07
1.15258e-07
1.15257e-07
1.15254e-07
1.15252e-07
1.15249e-07
1.15246e-07
1.15243e-07
1.15241e-07
1.15242e-07
1.15238e-07
1.15241e-07
1.15237e-07
1.15241e-07
1.15238e-07
1.1524e-07
1.15234e-07
1.15235e-07
1.15233e-07
1.1523e-07
1.1523e-07
1.15226e-07
1.15222e-07
1.15219e-07
1.15218e-07
1.15217e-07
1.15217e-07
1.15217e-07
1.15216e-07
1.15217e-07
1.15217e-07
1.15219e-07
1.15221e-07
1.15225e-07
1.1523e-07
1.15238e-07
1.15247e-07
1.1526e-07
1.15267e-07
1.1528e-07
1.15281e-07
1.15292e-07
1.15296e-07
1.15304e-07
1.1531e-07
1.15318e-07
1.15325e-07
1.15322e-07
1.15351e-07
1.16462e-07
1.19519e-07
1.17225e-08
1.23965e-07
1.23069e-07
1.22199e-07
1.21317e-07
1.20485e-07
1.19723e-07
1.19071e-07
1.18505e-07
1.18039e-07
1.17635e-07
1.17308e-07
1.17019e-07
1.16787e-07
1.16578e-07
1.16412e-07
1.16258e-07
1.16137e-07
1.16021e-07
1.15933e-07
1.15844e-07
1.15778e-07
1.1571e-07
1.15661e-07
1.15608e-07
1.1557e-07
1.15528e-07
1.15499e-07
1.15466e-07
1.15444e-07
1.15417e-07
1.15401e-07
1.15378e-07
1.15365e-07
1.15348e-07
1.15338e-07
1.15324e-07
1.15316e-07
1.15303e-07
1.15298e-07
1.15288e-07
1.15283e-07
1.15275e-07
1.15273e-07
1.15266e-07
1.15263e-07
1.15259e-07
1.15257e-07
1.15254e-07
1.15252e-07
1.15249e-07
1.15246e-07
1.15243e-07
1.15241e-07
1.15242e-07
1.15239e-07
1.15241e-07
1.15237e-07
1.15241e-07
1.15238e-07
1.1524e-07
1.15235e-07
1.15236e-07
1.15233e-07
1.15231e-07
1.1523e-07
1.15226e-07
1.15222e-07
1.15219e-07
1.15218e-07
1.15218e-07
1.15217e-07
1.15217e-07
1.15217e-07
1.15217e-07
1.15217e-07
1.15219e-07
1.15221e-07
1.15225e-07
1.1523e-07
1.15239e-07
1.15247e-07
1.1526e-07
1.15267e-07
1.1528e-07
1.15281e-07
1.15293e-07
1.15296e-07
1.15304e-07
1.1531e-07
1.15318e-07
1.15325e-07
1.15323e-07
1.15351e-07
1.16464e-07
1.1952e-07
1.20812e-08
1.23965e-07
1.23069e-07
1.22199e-07
1.21317e-07
1.20486e-07
1.19723e-07
1.19071e-07
1.18505e-07
1.18039e-07
1.17635e-07
1.17307e-07
1.17019e-07
1.16787e-07
1.16578e-07
1.16412e-07
1.16257e-07
1.16136e-07
1.16021e-07
1.15932e-07
1.15843e-07
1.15777e-07
1.15709e-07
1.1566e-07
1.15607e-07
1.15569e-07
1.15527e-07
1.15498e-07
1.15465e-07
1.15443e-07
1.15416e-07
1.15399e-07
1.15377e-07
1.15364e-07
1.15346e-07
1.15337e-07
1.15322e-07
1.15314e-07
1.15302e-07
1.15296e-07
1.15287e-07
1.15282e-07
1.15274e-07
1.15272e-07
1.15265e-07
1.15262e-07
1.15257e-07
1.15256e-07
1.15253e-07
1.15251e-07
1.15248e-07
1.15245e-07
1.15242e-07
1.1524e-07
1.15241e-07
1.15237e-07
1.1524e-07
1.15236e-07
1.1524e-07
1.15237e-07
1.15239e-07
1.15233e-07
1.15234e-07
1.15232e-07
1.15229e-07
1.15229e-07
1.15225e-07
1.15221e-07
1.15218e-07
1.15217e-07
1.15216e-07
1.15216e-07
1.15216e-07
1.15215e-07
1.15215e-07
1.15215e-07
1.15218e-07
1.1522e-07
1.15224e-07
1.15229e-07
1.15237e-07
1.15246e-07
1.15259e-07
1.15266e-07
1.15278e-07
1.1528e-07
1.15291e-07
1.15295e-07
1.15302e-07
1.15309e-07
1.15317e-07
1.15323e-07
1.15321e-07
1.1535e-07
1.16467e-07
1.1952e-07
1.25266e-08
1.23965e-07
1.23069e-07
1.22199e-07
1.21318e-07
1.20486e-07
1.19724e-07
1.19071e-07
1.18505e-07
1.18038e-07
1.17634e-07
1.17307e-07
1.17018e-07
1.16786e-07
1.16577e-07
1.16411e-07
1.16256e-07
1.16135e-07
1.16019e-07
1.15931e-07
1.15842e-07
1.15776e-07
1.15708e-07
1.15658e-07
1.15605e-07
1.15568e-07
1.15525e-07
1.15497e-07
1.15463e-07
1.15441e-07
1.15414e-07
1.15398e-07
1.15375e-07
1.15362e-07
1.15345e-07
1.15335e-07
1.15321e-07
1.15313e-07
1.153e-07
1.15295e-07
1.15285e-07
1.1528e-07
1.15272e-07
1.1527e-07
1.15263e-07
1.1526e-07
1.15255e-07
1.15254e-07
1.15251e-07
1.15249e-07
1.15246e-07
1.15243e-07
1.1524e-07
1.15238e-07
1.15239e-07
1.15235e-07
1.15238e-07
1.15234e-07
1.15238e-07
1.15235e-07
1.15237e-07
1.15231e-07
1.15232e-07
1.1523e-07
1.15227e-07
1.15227e-07
1.15223e-07
1.15219e-07
1.15216e-07
1.15215e-07
1.15214e-07
1.15214e-07
1.15214e-07
1.15213e-07
1.15213e-07
1.15213e-07
1.15216e-07
1.15218e-07
1.15222e-07
1.15227e-07
1.15235e-07
1.15244e-07
1.15256e-07
1.15263e-07
1.15276e-07
1.15278e-07
1.15289e-07
1.15293e-07
1.153e-07
1.15307e-07
1.15315e-07
1.15321e-07
1.15319e-07
1.15348e-07
1.16472e-07
1.19521e-07
1.30215e-08
1.23965e-07
1.23069e-07
1.22199e-07
1.21318e-07
1.20486e-07
1.19724e-07
1.19072e-07
1.18505e-07
1.18038e-07
1.17634e-07
1.17306e-07
1.17017e-07
1.16785e-07
1.16576e-07
1.1641e-07
1.16255e-07
1.16134e-07
1.16018e-07
1.15929e-07
1.15841e-07
1.15774e-07
1.15706e-07
1.15657e-07
1.15603e-07
1.15566e-07
1.15523e-07
1.15495e-07
1.15461e-07
1.15439e-07
1.15412e-07
1.15395e-07
1.15373e-07
1.1536e-07
1.15342e-07
1.15333e-07
1.15318e-07
1.1531e-07
1.15298e-07
1.15292e-07
1.15283e-07
1.15277e-07
1.1527e-07
1.15267e-07
1.1526e-07
1.15258e-07
1.15253e-07
1.15252e-07
1.15249e-07
1.15246e-07
1.15243e-07
1.15241e-07
1.15238e-07
1.15236e-07
1.15236e-07
1.15233e-07
1.15236e-07
1.15231e-07
1.15235e-07
1.15232e-07
1.15235e-07
1.15229e-07
1.1523e-07
1.15227e-07
1.15225e-07
1.15224e-07
1.1522e-07
1.15216e-07
1.15214e-07
1.15212e-07
1.15212e-07
1.15211e-07
1.15211e-07
1.15211e-07
1.15211e-07
1.15211e-07
1.15213e-07
1.15215e-07
1.15219e-07
1.15224e-07
1.15232e-07
1.15241e-07
1.15254e-07
1.15261e-07
1.15274e-07
1.15275e-07
1.15286e-07
1.1529e-07
1.15298e-07
1.15304e-07
1.15312e-07
1.15319e-07
1.15316e-07
1.15346e-07
1.16479e-07
1.19521e-07
1.35583e-08
1.23965e-07
1.23069e-07
1.222e-07
1.21318e-07
1.20487e-07
1.19725e-07
1.19072e-07
1.18505e-07
1.18038e-07
1.17634e-07
1.17306e-07
1.17017e-07
1.16785e-07
1.16575e-07
1.16408e-07
1.16253e-07
1.16133e-07
1.16016e-07
1.15927e-07
1.15839e-07
1.15773e-07
1.15704e-07
1.15654e-07
1.15601e-07
1.15563e-07
1.15521e-07
1.15492e-07
1.15459e-07
1.15437e-07
1.15409e-07
1.15393e-07
1.15371e-07
1.15358e-07
1.1534e-07
1.1533e-07
1.15316e-07
1.15308e-07
1.15295e-07
1.1529e-07
1.1528e-07
1.15275e-07
1.15267e-07
1.15265e-07
1.15258e-07
1.15255e-07
1.1525e-07
1.15249e-07
1.15246e-07
1.15244e-07
1.15241e-07
1.15238e-07
1.15235e-07
1.15233e-07
1.15233e-07
1.1523e-07
1.15233e-07
1.15228e-07
1.15232e-07
1.15229e-07
1.15232e-07
1.15226e-07
1.15227e-07
1.15224e-07
1.15222e-07
1.15222e-07
1.15217e-07
1.15213e-07
1.15211e-07
1.15209e-07
1.15209e-07
1.15208e-07
1.15208e-07
1.15208e-07
1.15208e-07
1.15208e-07
1.1521e-07
1.15212e-07
1.15216e-07
1.15221e-07
1.15229e-07
1.15238e-07
1.15251e-07
1.15258e-07
1.1527e-07
1.15272e-07
1.15283e-07
1.15287e-07
1.15295e-07
1.15301e-07
1.15309e-07
1.15315e-07
1.15313e-07
1.15343e-07
1.16488e-07
1.19522e-07
1.41358e-08
1.23964e-07
1.23069e-07
1.222e-07
1.21319e-07
1.20488e-07
1.19725e-07
1.19073e-07
1.18505e-07
1.18039e-07
1.17634e-07
1.17305e-07
1.17016e-07
1.16784e-07
1.16574e-07
1.16407e-07
1.16252e-07
1.16131e-07
1.16014e-07
1.15925e-07
1.15837e-07
1.1577e-07
1.15702e-07
1.15652e-07
1.15598e-07
1.15561e-07
1.15518e-07
1.1549e-07
1.15456e-07
1.15434e-07
1.15407e-07
1.1539e-07
1.15368e-07
1.15355e-07
1.15337e-07
1.15327e-07
1.15313e-07
1.15304e-07
1.15292e-07
1.15286e-07
1.15277e-07
1.15271e-07
1.15264e-07
1.15261e-07
1.15254e-07
1.15252e-07
1.15247e-07
1.15246e-07
1.15242e-07
1.1524e-07
1.15237e-07
1.15235e-07
1.15232e-07
1.15229e-07
1.1523e-07
1.15227e-07
1.15229e-07
1.15225e-07
1.15229e-07
1.15226e-07
1.15228e-07
1.15223e-07
1.15224e-07
1.15221e-07
1.15218e-07
1.15218e-07
1.15214e-07
1.1521e-07
1.15207e-07
1.15206e-07
1.15206e-07
1.15205e-07
1.15205e-07
1.15204e-07
1.15205e-07
1.15205e-07
1.15207e-07
1.15209e-07
1.15213e-07
1.15217e-07
1.15226e-07
1.15234e-07
1.15247e-07
1.15254e-07
1.15267e-07
1.15268e-07
1.1528e-07
1.15283e-07
1.15291e-07
1.15297e-07
1.15305e-07
1.15312e-07
1.1531e-07
1.15339e-07
1.165e-07
1.19524e-07
1.47543e-08
1.23964e-07
1.23069e-07
1.222e-07
1.2132e-07
1.20489e-07
1.19726e-07
1.19074e-07
1.18506e-07
1.18039e-07
1.17634e-07
1.17305e-07
1.17015e-07
1.16783e-07
1.16572e-07
1.16406e-07
1.1625e-07
1.16129e-07
1.16012e-07
1.15923e-07
1.15834e-07
1.15768e-07
1.15699e-07
1.15649e-07
1.15596e-07
1.15558e-07
1.15515e-07
1.15486e-07
1.15453e-07
1.15431e-07
1.15403e-07
1.15387e-07
1.15364e-07
1.15351e-07
1.15333e-07
1.15324e-07
1.15309e-07
1.15301e-07
1.15289e-07
1.15283e-07
1.15273e-07
1.15268e-07
1.1526e-07
1.15258e-07
1.15251e-07
1.15248e-07
1.15243e-07
1.15242e-07
1.15239e-07
1.15236e-07
1.15233e-07
1.15231e-07
1.15228e-07
1.15225e-07
1.15226e-07
1.15223e-07
1.15226e-07
1.15221e-07
1.15225e-07
1.15222e-07
1.15224e-07
1.15219e-07
1.1522e-07
1.15217e-07
1.15215e-07
1.15214e-07
1.1521e-07
1.15206e-07
1.15203e-07
1.15202e-07
1.15202e-07
1.15201e-07
1.15201e-07
1.152e-07
1.15201e-07
1.15201e-07
1.15203e-07
1.15205e-07
1.15209e-07
1.15213e-07
1.15221e-07
1.1523e-07
1.15242e-07
1.1525e-07
1.15262e-07
1.15264e-07
1.15275e-07
1.15279e-07
1.15287e-07
1.15293e-07
1.15301e-07
1.15307e-07
1.15305e-07
1.15335e-07
1.16515e-07
1.19526e-07
1.54144e-08
1.23964e-07
1.23069e-07
1.222e-07
1.2132e-07
1.2049e-07
1.19727e-07
1.19075e-07
1.18507e-07
1.18039e-07
1.17634e-07
1.17305e-07
1.17015e-07
1.16782e-07
1.16571e-07
1.16404e-07
1.16248e-07
1.16127e-07
1.1601e-07
1.15921e-07
1.15831e-07
1.15765e-07
1.15696e-07
1.15646e-07
1.15592e-07
1.15554e-07
1.15512e-07
1.15483e-07
1.15449e-07
1.15427e-07
1.15399e-07
1.15383e-07
1.1536e-07
1.15347e-07
1.15329e-07
1.1532e-07
1.15305e-07
1.15297e-07
1.15284e-07
1.15279e-07
1.15269e-07
1.15264e-07
1.15256e-07
1.15253e-07
1.15246e-07
1.15244e-07
1.15239e-07
1.15237e-07
1.15234e-07
1.15232e-07
1.15229e-07
1.15226e-07
1.15223e-07
1.15221e-07
1.15222e-07
1.15218e-07
1.15221e-07
1.15217e-07
1.15221e-07
1.15218e-07
1.1522e-07
1.15214e-07
1.15215e-07
1.15213e-07
1.1521e-07
1.1521e-07
1.15206e-07
1.15202e-07
1.15199e-07
1.15198e-07
1.15197e-07
1.15197e-07
1.15197e-07
1.15196e-07
1.15196e-07
1.15196e-07
1.15198e-07
1.152e-07
1.15204e-07
1.15209e-07
1.15217e-07
1.15225e-07
1.15237e-07
1.15245e-07
1.15257e-07
1.15259e-07
1.15271e-07
1.15274e-07
1.15282e-07
1.15288e-07
1.15296e-07
1.15302e-07
1.15301e-07
1.15331e-07
1.16532e-07
1.19528e-07
1.61168e-08
1.23964e-07
1.23069e-07
1.22201e-07
1.21321e-07
1.20491e-07
1.19729e-07
1.19076e-07
1.18507e-07
1.1804e-07
1.17634e-07
1.17304e-07
1.17014e-07
1.1678e-07
1.16569e-07
1.16402e-07
1.16246e-07
1.16124e-07
1.16007e-07
1.15918e-07
1.15828e-07
1.15762e-07
1.15692e-07
1.15643e-07
1.15589e-07
1.15551e-07
1.15508e-07
1.15479e-07
1.15445e-07
1.15423e-07
1.15395e-07
1.15379e-07
1.15356e-07
1.15343e-07
1.15325e-07
1.15315e-07
1.15301e-07
1.15292e-07
1.1528e-07
1.15274e-07
1.15265e-07
1.15259e-07
1.15251e-07
1.15249e-07
1.15242e-07
1.15239e-07
1.15234e-07
1.15233e-07
1.1523e-07
1.15227e-07
1.15224e-07
1.15222e-07
1.15219e-07
1.15216e-07
1.15217e-07
1.15213e-07
1.15216e-07
1.15212e-07
1.15216e-07
1.15213e-07
1.15215e-07
1.15209e-07
1.1521e-07
1.15208e-07
1.15205e-07
1.15205e-07
1.15201e-07
1.15197e-07
1.15194e-07
1.15193e-07
1.15192e-07
1.15192e-07
1.15192e-07
1.15191e-07
1.15191e-07
1.15191e-07
1.15193e-07
1.15195e-07
1.15199e-07
1.15204e-07
1.15211e-07
1.1522e-07
1.15232e-07
1.15239e-07
1.15252e-07
1.15254e-07
1.15265e-07
1.15269e-07
1.15277e-07
1.15283e-07
1.15291e-07
1.15297e-07
1.15295e-07
1.15326e-07
1.16552e-07
1.1953e-07
1.68614e-08
1.23964e-07
1.23069e-07
1.22201e-07
1.21322e-07
1.20492e-07
1.1973e-07
1.19077e-07
1.18508e-07
1.1804e-07
1.17634e-07
1.17304e-07
1.17013e-07
1.16779e-07
1.16568e-07
1.164e-07
1.16244e-07
1.16122e-07
1.16004e-07
1.15915e-07
1.15825e-07
1.15758e-07
1.15689e-07
1.15639e-07
1.15585e-07
1.15547e-07
1.15504e-07
1.15475e-07
1.15441e-07
1.15419e-07
1.15391e-07
1.15374e-07
1.15351e-07
1.15338e-07
1.1532e-07
1.1531e-07
1.15296e-07
1.15287e-07
1.15275e-07
1.15269e-07
1.15259e-07
1.15254e-07
1.15246e-07
1.15244e-07
1.15236e-07
1.15234e-07
1.15229e-07
1.15227e-07
1.15224e-07
1.15222e-07
1.15219e-07
1.15216e-07
1.15213e-07
1.15211e-07
1.15212e-07
1.15208e-07
1.15211e-07
1.15206e-07
1.1521e-07
1.15207e-07
1.1521e-07
1.15204e-07
1.15205e-07
1.15202e-07
1.152e-07
1.152e-07
1.15195e-07
1.15191e-07
1.15189e-07
1.15187e-07
1.15187e-07
1.15186e-07
1.15186e-07
1.15186e-07
1.15186e-07
1.15186e-07
1.15188e-07
1.1519e-07
1.15194e-07
1.15198e-07
1.15206e-07
1.15214e-07
1.15226e-07
1.15233e-07
1.15246e-07
1.15248e-07
1.15259e-07
1.15263e-07
1.15271e-07
1.15277e-07
1.15285e-07
1.15291e-07
1.15289e-07
1.15321e-07
1.16576e-07
1.19533e-07
1.76474e-08
1.23964e-07
1.23069e-07
1.22202e-07
1.21323e-07
1.20494e-07
1.19732e-07
1.19079e-07
1.1851e-07
1.18041e-07
1.17634e-07
1.17303e-07
1.17012e-07
1.16778e-07
1.16566e-07
1.16398e-07
1.16241e-07
1.16119e-07
1.16001e-07
1.15911e-07
1.15821e-07
1.15754e-07
1.15685e-07
1.15635e-07
1.1558e-07
1.15542e-07
1.15499e-07
1.1547e-07
1.15436e-07
1.15414e-07
1.15386e-07
1.15369e-07
1.15346e-07
1.15333e-07
1.15315e-07
1.15305e-07
1.1529e-07
1.15282e-07
1.15269e-07
1.15263e-07
1.15254e-07
1.15248e-07
1.1524e-07
1.15238e-07
1.15231e-07
1.15228e-07
1.15223e-07
1.15222e-07
1.15218e-07
1.15216e-07
1.15213e-07
1.1521e-07
1.15207e-07
1.15205e-07
1.15206e-07
1.15202e-07
1.15205e-07
1.152e-07
1.15204e-07
1.15201e-07
1.15204e-07
1.15198e-07
1.15199e-07
1.15197e-07
1.15194e-07
1.15194e-07
1.1519e-07
1.15185e-07
1.15183e-07
1.15181e-07
1.15181e-07
1.1518e-07
1.1518e-07
1.1518e-07
1.1518e-07
1.1518e-07
1.15182e-07
1.15184e-07
1.15187e-07
1.15192e-07
1.15199e-07
1.15208e-07
1.15219e-07
1.15227e-07
1.15239e-07
1.15241e-07
1.15253e-07
1.15256e-07
1.15264e-07
1.1527e-07
1.15279e-07
1.15284e-07
1.15283e-07
1.15315e-07
1.16603e-07
1.19535e-07
1.84741e-08
1.23964e-07
1.23069e-07
1.22202e-07
1.21325e-07
1.20496e-07
1.19734e-07
1.1908e-07
1.18511e-07
1.18041e-07
1.17634e-07
1.17303e-07
1.17011e-07
1.16776e-07
1.16564e-07
1.16396e-07
1.16238e-07
1.16116e-07
1.15998e-07
1.15908e-07
1.15817e-07
1.1575e-07
1.1568e-07
1.1563e-07
1.15576e-07
1.15537e-07
1.15494e-07
1.15465e-07
1.15431e-07
1.15408e-07
1.1538e-07
1.15363e-07
1.15341e-07
1.15327e-07
1.15309e-07
1.15299e-07
1.15284e-07
1.15276e-07
1.15263e-07
1.15257e-07
1.15248e-07
1.15242e-07
1.15234e-07
1.15232e-07
1.15225e-07
1.15222e-07
1.15217e-07
1.15215e-07
1.15212e-07
1.1521e-07
1.15207e-07
1.15204e-07
1.15201e-07
1.15198e-07
1.15199e-07
1.15196e-07
1.15198e-07
1.15194e-07
1.15198e-07
1.15195e-07
1.15197e-07
1.15192e-07
1.15192e-07
1.1519e-07
1.15187e-07
1.15187e-07
1.15183e-07
1.15179e-07
1.15176e-07
1.15175e-07
1.15174e-07
1.15174e-07
1.15174e-07
1.15173e-07
1.15173e-07
1.15173e-07
1.15175e-07
1.15177e-07
1.15181e-07
1.15185e-07
1.15192e-07
1.15201e-07
1.15212e-07
1.15219e-07
1.15232e-07
1.15234e-07
1.15246e-07
1.15249e-07
1.15257e-07
1.15263e-07
1.15272e-07
1.15277e-07
1.15276e-07
1.15309e-07
1.16634e-07
1.19538e-07
1.93438e-08
1.23964e-07
1.23068e-07
1.22203e-07
1.21326e-07
1.20498e-07
1.19736e-07
1.19082e-07
1.18512e-07
1.18042e-07
1.17634e-07
1.17303e-07
1.1701e-07
1.16775e-07
1.16562e-07
1.16393e-07
1.16236e-07
1.16113e-07
1.15994e-07
1.15904e-07
1.15813e-07
1.15746e-07
1.15676e-07
1.15625e-07
1.1557e-07
1.15532e-07
1.15489e-07
1.15459e-07
1.15425e-07
1.15402e-07
1.15374e-07
1.15357e-07
1.15334e-07
1.15321e-07
1.15303e-07
1.15293e-07
1.15278e-07
1.15269e-07
1.15257e-07
1.15251e-07
1.15241e-07
1.15235e-07
1.15227e-07
1.15225e-07
1.15218e-07
1.15215e-07
1.1521e-07
1.15208e-07
1.15205e-07
1.15203e-07
1.152e-07
1.15197e-07
1.15194e-07
1.15191e-07
1.15192e-07
1.15189e-07
1.15191e-07
1.15187e-07
1.15191e-07
1.15188e-07
1.1519e-07
1.15184e-07
1.15185e-07
1.15183e-07
1.1518e-07
1.1518e-07
1.15176e-07
1.15172e-07
1.15169e-07
1.15168e-07
1.15167e-07
1.15167e-07
1.15167e-07
1.15166e-07
1.15166e-07
1.15166e-07
1.15168e-07
1.1517e-07
1.15174e-07
1.15177e-07
1.15185e-07
1.15193e-07
1.15204e-07
1.15211e-07
1.15224e-07
1.15226e-07
1.15238e-07
1.15241e-07
1.1525e-07
1.15255e-07
1.15264e-07
1.15269e-07
1.15268e-07
1.15302e-07
1.16669e-07
1.19539e-07
2.02593e-08
1.23964e-07
1.23068e-07
1.22203e-07
1.21327e-07
1.205e-07
1.19738e-07
1.19084e-07
1.18514e-07
1.18043e-07
1.17634e-07
1.17302e-07
1.17009e-07
1.16773e-07
1.1656e-07
1.1639e-07
1.16232e-07
1.16109e-07
1.1599e-07
1.15899e-07
1.15809e-07
1.15741e-07
1.15671e-07
1.1562e-07
1.15565e-07
1.15526e-07
1.15483e-07
1.15453e-07
1.15419e-07
1.15396e-07
1.15368e-07
1.15351e-07
1.15328e-07
1.15314e-07
1.15296e-07
1.15286e-07
1.15271e-07
1.15262e-07
1.1525e-07
1.15244e-07
1.15234e-07
1.15228e-07
1.1522e-07
1.15218e-07
1.1521e-07
1.15207e-07
1.15203e-07
1.15201e-07
1.15198e-07
1.15195e-07
1.15192e-07
1.1519e-07
1.15187e-07
1.15184e-07
1.15185e-07
1.15181e-07
1.15184e-07
1.15179e-07
1.15183e-07
1.1518e-07
1.15182e-07
1.15177e-07
1.15178e-07
1.15175e-07
1.15173e-07
1.15172e-07
1.15168e-07
1.15164e-07
1.15162e-07
1.1516e-07
1.1516e-07
1.15159e-07
1.15159e-07
1.15158e-07
1.15158e-07
1.15158e-07
1.1516e-07
1.15162e-07
1.15166e-07
1.1517e-07
1.15176e-07
1.15185e-07
1.15195e-07
1.15203e-07
1.15215e-07
1.15218e-07
1.1523e-07
1.15233e-07
1.15241e-07
1.15247e-07
1.15256e-07
1.15261e-07
1.1526e-07
1.15294e-07
1.16707e-07
1.1954e-07
2.12235e-08
1.23964e-07
1.23068e-07
1.22204e-07
1.21329e-07
1.20502e-07
1.19741e-07
1.19087e-07
1.18516e-07
1.18044e-07
1.17635e-07
1.17302e-07
1.17008e-07
1.16772e-07
1.16558e-07
1.16388e-07
1.16229e-07
1.16105e-07
1.15986e-07
1.15895e-07
1.15804e-07
1.15736e-07
1.15665e-07
1.15614e-07
1.15559e-07
1.1552e-07
1.15477e-07
1.15447e-07
1.15412e-07
1.15389e-07
1.15361e-07
1.15344e-07
1.15321e-07
1.15307e-07
1.15289e-07
1.15279e-07
1.15263e-07
1.15255e-07
1.15242e-07
1.15236e-07
1.15226e-07
1.15221e-07
1.15212e-07
1.1521e-07
1.15203e-07
1.152e-07
1.15195e-07
1.15193e-07
1.1519e-07
1.15187e-07
1.15184e-07
1.15181e-07
1.15178e-07
1.15176e-07
1.15177e-07
1.15173e-07
1.15176e-07
1.15171e-07
1.15175e-07
1.15172e-07
1.15174e-07
1.15169e-07
1.15169e-07
1.15167e-07
1.15164e-07
1.15164e-07
1.1516e-07
1.15156e-07
1.15154e-07
1.15152e-07
1.15151e-07
1.15151e-07
1.15151e-07
1.1515e-07
1.1515e-07
1.1515e-07
1.15152e-07
1.15154e-07
1.15157e-07
1.15161e-07
1.15168e-07
1.15176e-07
1.15186e-07
1.15194e-07
1.15206e-07
1.15209e-07
1.15221e-07
1.15224e-07
1.15233e-07
1.15238e-07
1.15247e-07
1.15252e-07
1.15251e-07
1.15286e-07
1.16749e-07
1.1954e-07
2.22394e-08
1.23963e-07
1.23068e-07
1.22204e-07
1.21331e-07
1.20504e-07
1.19743e-07
1.19089e-07
1.18517e-07
1.18046e-07
1.17635e-07
1.17302e-07
1.17007e-07
1.1677e-07
1.16555e-07
1.16385e-07
1.16226e-07
1.16101e-07
1.15982e-07
1.1589e-07
1.15799e-07
1.1573e-07
1.15659e-07
1.15608e-07
1.15553e-07
1.15514e-07
1.1547e-07
1.1544e-07
1.15405e-07
1.15382e-07
1.15354e-07
1.15336e-07
1.15313e-07
1.15299e-07
1.15281e-07
1.15271e-07
1.15256e-07
1.15247e-07
1.15234e-07
1.15228e-07
1.15218e-07
1.15212e-07
1.15204e-07
1.15201e-07
1.15194e-07
1.15191e-07
1.15186e-07
1.15184e-07
1.15181e-07
1.15179e-07
1.15176e-07
1.15173e-07
1.1517e-07
1.15167e-07
1.15168e-07
1.15164e-07
1.15167e-07
1.15162e-07
1.15166e-07
1.15163e-07
1.15165e-07
1.1516e-07
1.15161e-07
1.15158e-07
1.15156e-07
1.15155e-07
1.15152e-07
1.15148e-07
1.15145e-07
1.15143e-07
1.15143e-07
1.15142e-07
1.15142e-07
1.15141e-07
1.15141e-07
1.15141e-07
1.15143e-07
1.15145e-07
1.15148e-07
1.15152e-07
1.15158e-07
1.15166e-07
1.15176e-07
1.15184e-07
1.15196e-07
1.15199e-07
1.15211e-07
1.15214e-07
1.15223e-07
1.15228e-07
1.15237e-07
1.15242e-07
1.15242e-07
1.15278e-07
1.16796e-07
1.19538e-07
2.33104e-08
1.23963e-07
1.23068e-07
1.22205e-07
1.21332e-07
1.20507e-07
1.19746e-07
1.19092e-07
1.1852e-07
1.18047e-07
1.17636e-07
1.17302e-07
1.17006e-07
1.16768e-07
1.16553e-07
1.16382e-07
1.16222e-07
1.16097e-07
1.15977e-07
1.15885e-07
1.15793e-07
1.15724e-07
1.15653e-07
1.15602e-07
1.15546e-07
1.15507e-07
1.15463e-07
1.15433e-07
1.15397e-07
1.15374e-07
1.15346e-07
1.15328e-07
1.15305e-07
1.15291e-07
1.15272e-07
1.15262e-07
1.15247e-07
1.15238e-07
1.15225e-07
1.15219e-07
1.15209e-07
1.15203e-07
1.15195e-07
1.15192e-07
1.15185e-07
1.15182e-07
1.15177e-07
1.15175e-07
1.15172e-07
1.1517e-07
1.15166e-07
1.15164e-07
1.15161e-07
1.15158e-07
1.15159e-07
1.15155e-07
1.15157e-07
1.15153e-07
1.15156e-07
1.15153e-07
1.15156e-07
1.1515e-07
1.15151e-07
1.15149e-07
1.15146e-07
1.15146e-07
1.15142e-07
1.15138e-07
1.15135e-07
1.15134e-07
1.15133e-07
1.15132e-07
1.15132e-07
1.15132e-07
1.15132e-07
1.15131e-07
1.15133e-07
1.15135e-07
1.15139e-07
1.15142e-07
1.15148e-07
1.15156e-07
1.15166e-07
1.15173e-07
1.15185e-07
1.15189e-07
1.15201e-07
1.15203e-07
1.15213e-07
1.15218e-07
1.15227e-07
1.15231e-07
1.15231e-07
1.15269e-07
1.16847e-07
1.15485e-07
2.44396e-08
1.23963e-07
1.23068e-07
1.22206e-07
1.21334e-07
1.2051e-07
1.19749e-07
1.19095e-07
1.18522e-07
1.18049e-07
1.17637e-07
1.17301e-07
1.17005e-07
1.16766e-07
1.1655e-07
1.16378e-07
1.16218e-07
1.16093e-07
1.15972e-07
1.1588e-07
1.15787e-07
1.15718e-07
1.15646e-07
1.15595e-07
1.15539e-07
1.15499e-07
1.15455e-07
1.15425e-07
1.15389e-07
1.15366e-07
1.15337e-07
1.1532e-07
1.15296e-07
1.15282e-07
1.15264e-07
1.15253e-07
1.15238e-07
1.15229e-07
1.15216e-07
1.1521e-07
1.152e-07
1.15194e-07
1.15186e-07
1.15183e-07
1.15176e-07
1.15172e-07
1.15167e-07
1.15166e-07
1.15162e-07
1.1516e-07
1.15157e-07
1.15154e-07
1.15151e-07
1.15148e-07
1.15149e-07
1.15145e-07
1.15147e-07
1.15143e-07
1.15146e-07
1.15143e-07
1.15146e-07
1.1514e-07
1.15141e-07
1.15139e-07
1.15136e-07
1.15136e-07
1.15132e-07
1.15128e-07
1.15125e-07
1.15124e-07
1.15123e-07
1.15122e-07
1.15122e-07
1.15122e-07
1.15122e-07
1.15121e-07
1.15123e-07
1.15125e-07
1.15128e-07
1.15132e-07
1.15138e-07
1.15145e-07
1.15155e-07
1.15162e-07
1.15174e-07
1.15178e-07
1.15189e-07
1.15192e-07
1.15202e-07
1.15207e-07
1.15216e-07
1.1522e-07
1.15221e-07
1.15259e-07
1.16902e-07
1.0931e-07
2.56307e-08
1.23963e-07
1.23067e-07
1.22206e-07
1.21336e-07
1.20513e-07
1.19753e-07
1.19098e-07
1.18524e-07
1.1805e-07
1.17637e-07
1.17301e-07
1.17004e-07
1.16764e-07
1.16547e-07
1.16375e-07
1.16214e-07
1.16088e-07
1.15967e-07
1.15874e-07
1.15781e-07
1.15712e-07
1.1564e-07
1.15587e-07
1.15531e-07
1.15491e-07
1.15447e-07
1.15416e-07
1.15381e-07
1.15358e-07
1.15328e-07
1.15311e-07
1.15287e-07
1.15273e-07
1.15254e-07
1.15244e-07
1.15228e-07
1.1522e-07
1.15206e-07
1.152e-07
1.1519e-07
1.15184e-07
1.15176e-07
1.15173e-07
1.15165e-07
1.15162e-07
1.15157e-07
1.15155e-07
1.15152e-07
1.15149e-07
1.15146e-07
1.15143e-07
1.1514e-07
1.15137e-07
1.15138e-07
1.15134e-07
1.15137e-07
1.15132e-07
1.15136e-07
1.15133e-07
1.15135e-07
1.1513e-07
1.1513e-07
1.15128e-07
1.15125e-07
1.15125e-07
1.15122e-07
1.15118e-07
1.15115e-07
1.15113e-07
1.15112e-07
1.15112e-07
1.15111e-07
1.15111e-07
1.15111e-07
1.1511e-07
1.15112e-07
1.15114e-07
1.15117e-07
1.15121e-07
1.15127e-07
1.15134e-07
1.15143e-07
1.1515e-07
1.15162e-07
1.15166e-07
1.15178e-07
1.1518e-07
1.1519e-07
1.15195e-07
1.15204e-07
1.15208e-07
1.15209e-07
1.15249e-07
1.16961e-07
1.03792e-07
2.68872e-08
1.23963e-07
1.23067e-07
1.22207e-07
1.21338e-07
1.20516e-07
1.19756e-07
1.19101e-07
1.18527e-07
1.18052e-07
1.17638e-07
1.17301e-07
1.17003e-07
1.16763e-07
1.16544e-07
1.16371e-07
1.1621e-07
1.16083e-07
1.15961e-07
1.15868e-07
1.15774e-07
1.15705e-07
1.15632e-07
1.1558e-07
1.15523e-07
1.15483e-07
1.15438e-07
1.15408e-07
1.15372e-07
1.15348e-07
1.15319e-07
1.15301e-07
1.15277e-07
1.15263e-07
1.15244e-07
1.15234e-07
1.15218e-07
1.15209e-07
1.15196e-07
1.1519e-07
1.15179e-07
1.15173e-07
1.15165e-07
1.15162e-07
1.15155e-07
1.15151e-07
1.15146e-07
1.15144e-07
1.15141e-07
1.15138e-07
1.15135e-07
1.15132e-07
1.15129e-07
1.15126e-07
1.15127e-07
1.15123e-07
1.15126e-07
1.15121e-07
1.15124e-07
1.15121e-07
1.15124e-07
1.15119e-07
1.15119e-07
1.15117e-07
1.15114e-07
1.15114e-07
1.1511e-07
1.15106e-07
1.15104e-07
1.15102e-07
1.15101e-07
1.151e-07
1.151e-07
1.15099e-07
1.15099e-07
1.15099e-07
1.15101e-07
1.15102e-07
1.15106e-07
1.15109e-07
1.15115e-07
1.15122e-07
1.1513e-07
1.15138e-07
1.15149e-07
1.15154e-07
1.15165e-07
1.15168e-07
1.15178e-07
1.15182e-07
1.15192e-07
1.15196e-07
1.15197e-07
1.15238e-07
1.17025e-07
9.88609e-08
2.82126e-08
1.23963e-07
1.23067e-07
1.22208e-07
1.21341e-07
1.20519e-07
1.1976e-07
1.19105e-07
1.1853e-07
1.18054e-07
1.17639e-07
1.17301e-07
1.17002e-07
1.16761e-07
1.16542e-07
1.16368e-07
1.16205e-07
1.16078e-07
1.15955e-07
1.15862e-07
1.15768e-07
1.15697e-07
1.15624e-07
1.15572e-07
1.15515e-07
1.15474e-07
1.15429e-07
1.15398e-07
1.15362e-07
1.15339e-07
1.15309e-07
1.15291e-07
1.15267e-07
1.15253e-07
1.15234e-07
1.15223e-07
1.15207e-07
1.15198e-07
1.15185e-07
1.15178e-07
1.15168e-07
1.15162e-07
1.15154e-07
1.15151e-07
1.15143e-07
1.1514e-07
1.15135e-07
1.15133e-07
1.15129e-07
1.15127e-07
1.15123e-07
1.1512e-07
1.15117e-07
1.15114e-07
1.15115e-07
1.15111e-07
1.15114e-07
1.15109e-07
1.15112e-07
1.15109e-07
1.15112e-07
1.15107e-07
1.15107e-07
1.15105e-07
1.15102e-07
1.15102e-07
1.15098e-07
1.15094e-07
1.15092e-07
1.1509e-07
1.15089e-07
1.15088e-07
1.15088e-07
1.15087e-07
1.15087e-07
1.15087e-07
1.15089e-07
1.1509e-07
1.15094e-07
1.15097e-07
1.15102e-07
1.15109e-07
1.15117e-07
1.15125e-07
1.15135e-07
1.1514e-07
1.15152e-07
1.15155e-07
1.15165e-07
1.15169e-07
1.15179e-07
1.15182e-07
1.15184e-07
1.15227e-07
1.17092e-07
9.44496e-08
2.96104e-08
1.23962e-07
1.23067e-07
1.22209e-07
1.21343e-07
1.20523e-07
1.19764e-07
1.19108e-07
1.18533e-07
1.18056e-07
1.1764e-07
1.17301e-07
1.17e-07
1.16758e-07
1.16538e-07
1.16364e-07
1.162e-07
1.16073e-07
1.15949e-07
1.15855e-07
1.1576e-07
1.1569e-07
1.15616e-07
1.15563e-07
1.15506e-07
1.15465e-07
1.1542e-07
1.15389e-07
1.15352e-07
1.15328e-07
1.15299e-07
1.15281e-07
1.15256e-07
1.15242e-07
1.15222e-07
1.15212e-07
1.15196e-07
1.15187e-07
1.15173e-07
1.15167e-07
1.15156e-07
1.1515e-07
1.15142e-07
1.15139e-07
1.15131e-07
1.15128e-07
1.15122e-07
1.1512e-07
1.15117e-07
1.15114e-07
1.15111e-07
1.15108e-07
1.15105e-07
1.15102e-07
1.15102e-07
1.15098e-07
1.15101e-07
1.15096e-07
1.151e-07
1.15097e-07
1.15099e-07
1.15094e-07
1.15094e-07
1.15092e-07
1.15089e-07
1.15089e-07
1.15086e-07
1.15082e-07
1.15079e-07
1.15077e-07
1.15076e-07
1.15076e-07
1.15075e-07
1.15075e-07
1.15075e-07
1.15074e-07
1.15076e-07
1.15077e-07
1.15081e-07
1.15084e-07
1.15089e-07
1.15096e-07
1.15103e-07
1.15111e-07
1.15121e-07
1.15126e-07
1.15138e-07
1.15141e-07
1.15151e-07
1.15155e-07
1.15165e-07
1.15168e-07
1.1517e-07
1.15215e-07
1.17162e-07
9.05028e-08
3.10838e-08
1.23962e-07
1.23066e-07
1.2221e-07
1.21345e-07
1.20527e-07
1.19768e-07
1.19112e-07
1.18536e-07
1.18059e-07
1.17641e-07
1.17301e-07
1.16999e-07
1.16756e-07
1.16535e-07
1.1636e-07
1.16195e-07
1.16067e-07
1.15943e-07
1.15848e-07
1.15753e-07
1.15682e-07
1.15608e-07
1.15554e-07
1.15496e-07
1.15456e-07
1.1541e-07
1.15378e-07
1.15342e-07
1.15318e-07
1.15288e-07
1.15269e-07
1.15245e-07
1.1523e-07
1.15211e-07
1.152e-07
1.15184e-07
1.15175e-07
1.15161e-07
1.15154e-07
1.15144e-07
1.15138e-07
1.15129e-07
1.15126e-07
1.15118e-07
1.15115e-07
1.15109e-07
1.15107e-07
1.15104e-07
1.15101e-07
1.15098e-07
1.15095e-07
1.15092e-07
1.15089e-07
1.15089e-07
1.15085e-07
1.15088e-07
1.15083e-07
1.15086e-07
1.15083e-07
1.15085e-07
1.15081e-07
1.15081e-07
1.15079e-07
1.15076e-07
1.15076e-07
1.15072e-07
1.15069e-07
1.15066e-07
1.15064e-07
1.15063e-07
1.15062e-07
1.15062e-07
1.15061e-07
1.15061e-07
1.15061e-07
1.15062e-07
1.15064e-07
1.15067e-07
1.1507e-07
1.15075e-07
1.15081e-07
1.15089e-07
1.15096e-07
1.15106e-07
1.15112e-07
1.15123e-07
1.15126e-07
1.15136e-07
1.1514e-07
1.15151e-07
1.15153e-07
1.15156e-07
1.15202e-07
1.17234e-07
8.69728e-08
3.26355e-08
1.23962e-07
1.23066e-07
1.22211e-07
1.21348e-07
1.2053e-07
1.19772e-07
1.19116e-07
1.18539e-07
1.18061e-07
1.17642e-07
1.17301e-07
1.16998e-07
1.16754e-07
1.16532e-07
1.16356e-07
1.1619e-07
1.16061e-07
1.15936e-07
1.15841e-07
1.15745e-07
1.15673e-07
1.15599e-07
1.15545e-07
1.15487e-07
1.15445e-07
1.15399e-07
1.15368e-07
1.15331e-07
1.15306e-07
1.15276e-07
1.15258e-07
1.15233e-07
1.15218e-07
1.15198e-07
1.15188e-07
1.15171e-07
1.15162e-07
1.15148e-07
1.15142e-07
1.15131e-07
1.15125e-07
1.15116e-07
1.15113e-07
1.15105e-07
1.15101e-07
1.15096e-07
1.15094e-07
1.1509e-07
1.15087e-07
1.15084e-07
1.15081e-07
1.15078e-07
1.15075e-07
1.15075e-07
1.15071e-07
1.15074e-07
1.15069e-07
1.15072e-07
1.15069e-07
1.15071e-07
1.15067e-07
1.15067e-07
1.15065e-07
1.15062e-07
1.15062e-07
1.15058e-07
1.15055e-07
1.15052e-07
1.1505e-07
1.15049e-07
1.15048e-07
1.15048e-07
1.15047e-07
1.15047e-07
1.15046e-07
1.15048e-07
1.15049e-07
1.15052e-07
1.15056e-07
1.15061e-07
1.15066e-07
1.15074e-07
1.15081e-07
1.1509e-07
1.15096e-07
1.15107e-07
1.1511e-07
1.15121e-07
1.15124e-07
1.15135e-07
1.15137e-07
1.1514e-07
1.15189e-07
1.17307e-07
8.38188e-08
3.42676e-08
1.23962e-07
1.23066e-07
1.22211e-07
1.21351e-07
1.20534e-07
1.19777e-07
1.19121e-07
1.18543e-07
1.18064e-07
1.17644e-07
1.17301e-07
1.16997e-07
1.16752e-07
1.16529e-07
1.16351e-07
1.16185e-07
1.16055e-07
1.15929e-07
1.15833e-07
1.15737e-07
1.15665e-07
1.15589e-07
1.15535e-07
1.15476e-07
1.15435e-07
1.15388e-07
1.15356e-07
1.15319e-07
1.15295e-07
1.15264e-07
1.15245e-07
1.1522e-07
1.15206e-07
1.15185e-07
1.15174e-07
1.15158e-07
1.15149e-07
1.15135e-07
1.15128e-07
1.15117e-07
1.15111e-07
1.15102e-07
1.15099e-07
1.15091e-07
1.15087e-07
1.15082e-07
1.15079e-07
1.15076e-07
1.15073e-07