/*--------------------------------*- C++ -*----------------------------------*\
| =========                 |                                                 |
| \\      /  F ield         | OpenFOAM: The Open Source CFD Toolbox           |
|  \\    /   O peration     | Version:  v2012                                 |
|   \\  /    A nd           | Website:  www.openfoam.com                      |
|    \\/     M anipulation  |                                                 |
\*---------------------------------------------------------------------------*/
FoamFile
{
    version     2.0;
    format      ascii;
    class       volScalarField;
    location    "42.5";
    object      omega;
}
// * * * * * * * * * * * * * * * * * * * * * * * * * * * * * * * * * * * * * //

dimensions      [0 0 -1 0 0 0 0];


internalField   nonuniform List<scalar> 
209825
(
8261.61
7568.13
6999.46
6545.65
6188.8
5909.11
5687.58
5510.41
5366.16
5247.74
5148.69
5065.6
4994.5
4933.87
4881
4835.37
4794.92
4759.71
4728.03
4700.3
4675
4652.79
4632.25
4614.19
4597.28
4582.42
4568.34
4555.98
4544.12
4533.76
4523.68
4514.93
4506.3
4498.86
4491.4
4485.05
4478.6
4473.14
4467.51
4462.79
4457.9
4453.8
4449.49
4445.96
4442.17
4439.09
4435.74
4433.02
4430.11
4427.73
4425.19
4423.16
4420.97
4419.1
4417.18
4415.56
4413.87
4412.43
4410.92
4409.72
4408.48
4407.47
4406.33
4405.55
4404.56
4403.87
4402.97
4402.42
4401.69
4401.29
4400.66
4400.34
4399.78
4399.5
4398.95
4398.64
4398.15
4397.91
4397.5
4397.31
4396.97
4396.86
4396.59
4396.66
4396.63
4396.85
4396.85
4397.31
4397.31
4397.93
4397.93
4398.84
4399.52
4428.67
4539.75
113196
8261.61
7568.14
6999.46
6545.64
6188.79
5909.08
5687.54
5510.36
5366.11
5247.68
5148.62
5065.52
4994.41
4933.78
4880.91
4835.27
4794.82
4759.61
4727.93
4700.19
4674.89
4652.67
4632.14
4614.07
4597.16
4582.3
4568.22
4555.86
4543.99
4533.64
4523.55
4514.8
4506.17
4498.73
4491.27
4484.92
4478.47
4473.01
4467.38
4462.65
4457.77
4453.67
4449.35
4445.82
4442.04
4438.95
4435.6
4432.88
4429.97
4427.59
4425.05
4423.02
4420.83
4418.96
4417.04
4415.42
4413.73
4412.29
4410.78
4409.58
4408.34
4407.33
4406.19
4405.4
4404.42
4403.73
4402.83
4402.28
4401.54
4401.15
4400.52
4400.19
4399.64
4399.35
4398.81
4398.5
4398.01
4397.76
4397.35
4397.17
4396.82
4396.71
4396.45
4396.52
4396.49
4396.7
4396.7
4397.16
4397.16
4397.78
4397.78
4398.69
4399.37
4428.58
4539.64
109897
8261.61
7568.14
6999.46
6545.62
6188.73
5908.98
5687.41
5510.19
5365.91
5247.45
5148.37
5065.25
4994.12
4933.48
4880.59
4834.94
4794.48
4759.26
4727.57
4699.82
4674.51
4652.29
4631.75
4613.67
4596.76
4581.9
4567.81
4555.45
4543.58
4533.22
4523.13
4514.38
4505.74
4498.3
4490.84
4484.48
4478.03
4472.57
4466.94
4462.21
4457.32
4453.22
4448.9
4445.37
4441.59
4438.5
4435.15
4432.43
4429.51
4427.14
4424.59
4422.56
4420.37
4418.5
4416.58
4414.96
4413.26
4411.83
4410.31
4409.11
4407.87
4406.87
4405.72
4404.94
4403.95
4403.26
4402.36
4401.81
4401.07
4400.68
4400.05
4399.72
4399.17
4398.88
4398.33
4398.02
4397.53
4397.29
4396.88
4396.7
4396.35
4396.24
4395.97
4396.04
4396.01
4396.23
4396.23
4396.68
4396.68
4397.3
4397.3
4398.21
4398.89
4428.2
4539.24
106111
8261.61
7568.16
6999.46
6545.58
6188.63
5908.81
5687.17
5509.9
5365.56
5247.06
5147.94
5064.78
4993.63
4932.95
4880.04
4834.38
4793.89
4758.65
4726.95
4699.19
4673.87
4651.63
4631.08
4613
4596.07
4581.2
4567.11
4554.74
4542.86
4532.5
4522.41
4513.65
4505.01
4497.56
4490.1
4483.73
4477.28
4471.81
4466.18
4461.45
4456.56
4452.46
4448.14
4444.6
4440.81
4437.72
4434.37
4431.65
4428.73
4426.36
4423.81
4421.78
4419.59
4417.71
4415.79
4414.17
4412.47
4411.04
4409.52
4408.32
4407.08
4406.07
4404.92
4404.14
4403.15
4402.46
4401.56
4401.01
4400.27
4399.87
4399.24
4398.91
4398.36
4398.07
4397.52
4397.21
4396.72
4396.48
4396.07
4395.88
4395.53
4395.42
4395.16
4395.22
4395.19
4395.41
4395.41
4395.86
4395.86
4396.48
4396.48
4397.38
4398.07
4427.54
4538.53
102217
8261.61
7568.18
6999.46
6545.52
6188.48
5908.57
5686.84
5509.48
5365.07
5246.51
5147.33
5064.12
4992.92
4932.21
4879.26
4833.57
4793.05
4757.79
4726.06
4698.29
4672.95
4650.7
4630.13
4612.03
4595.1
4580.22
4566.11
4553.73
4541.85
4531.48
4521.38
4512.61
4503.96
4496.51
4489.04
4482.67
4476.21
4470.74
4465.1
4460.37
4455.48
4451.37
4447.04
4443.51
4439.72
4436.62
4433.27
4430.54
4427.62
4425.24
4422.69
4420.66
4418.47
4416.59
4414.66
4413.04
4411.34
4409.91
4408.39
4407.19
4405.94
4404.93
4403.78
4403
4402.01
4401.32
4400.41
4399.86
4399.12
4398.73
4398.09
4397.76
4397.21
4396.92
4396.37
4396.06
4395.57
4395.33
4394.91
4394.73
4394.38
4394.26
4394
4394.06
4394.03
4394.24
4394.24
4394.69
4394.69
4395.3
4395.3
4396.21
4396.9
4426.59
4537.52
98320.7
8261.61
7568.2
6999.46
6545.44
6188.29
5908.26
5686.41
5508.94
5364.43
5245.78
5146.52
5063.25
4992
4931.23
4878.24
4832.51
4791.96
4756.67
4724.91
4697.11
4671.75
4649.48
4628.89
4610.77
4593.82
4578.93
4564.81
4552.42
4540.52
4530.14
4520.03
4511.26
4502.6
4495.13
4487.66
4481.29
4474.82
4469.34
4463.7
4458.96
4454.06
4449.95
4445.62
4442.08
4438.28
4435.18
4431.83
4429.1
4426.18
4423.79
4421.24
4419.2
4417.01
4415.13
4413.2
4411.57
4409.87
4408.44
4406.91
4405.71
4404.46
4403.45
4402.3
4401.51
4400.52
4399.83
4398.92
4398.37
4397.63
4397.23
4396.59
4396.27
4395.71
4395.42
4394.87
4394.56
4394.07
4393.82
4393.4
4393.22
4392.87
4392.75
4392.48
4392.55
4392.51
4392.72
4392.72
4393.16
4393.16
4393.77
4393.77
4394.67
4395.37
4425.35
4536.21
94461.4
8261.62
7568.23
6999.47
6545.35
6188.05
5907.87
5685.87
5508.27
5363.64
5244.88
5145.53
5062.18
4990.86
4930.03
4876.98
4831.2
4790.61
4755.28
4723.49
4695.65
4670.26
4647.96
4627.35
4609.22
4592.25
4577.33
4563.2
4550.79
4538.88
4528.49
4518.36
4509.58
4500.91
4493.44
4485.95
4479.57
4473.1
4467.61
4461.96
4457.22
4452.31
4448.19
4443.85
4440.31
4436.51
4433.4
4430.04
4427.31
4424.38
4421.99
4419.44
4417.4
4415.2
4413.31
4411.38
4409.76
4408.05
4406.61
4405.09
4403.88
4402.63
4401.62
4400.46
4399.67
4398.68
4397.98
4397.07
4396.52
4395.78
4395.38
4394.74
4394.41
4393.85
4393.56
4393.01
4392.7
4392.2
4391.96
4391.54
4391.35
4391
4390.88
4390.61
4390.67
4390.63
4390.83
4390.83
4391.27
4391.27
4391.88
4391.88
4392.78
4393.48
4423.81
4534.6
90658.3
8261.62
7568.27
6999.47
6545.24
6187.78
5907.41
5685.23
5507.46
5362.69
5243.81
5144.35
5060.9
4989.49
4928.59
4875.48
4829.64
4788.99
4753.61
4721.78
4693.91
4668.49
4646.16
4625.52
4607.36
4590.36
4575.43
4561.27
4548.85
4536.92
4526.51
4516.37
4507.57
4498.89
4491.41
4483.91
4477.52
4471.03
4465.54
4459.88
4455.13
4450.21
4446.09
4441.74
4438.19
4434.38
4431.28
4427.91
4425.17
4422.24
4419.84
4417.28
4415.24
4413.03
4411.15
4409.21
4407.58
4405.87
4404.43
4402.9
4401.69
4400.44
4399.42
4398.26
4397.47
4396.48
4395.78
4394.87
4394.31
4393.56
4393.16
4392.52
4392.19
4391.63
4391.34
4390.79
4390.47
4389.97
4389.73
4389.3
4389.12
4388.76
4388.65
4388.37
4388.42
4388.38
4388.58
4388.58
4389.01
4389.01
4389.61
4389.61
4390.51
4391.22
4421.98
4532.67
86920
8261.62
7568.31
6999.48
6545.11
6187.45
5906.87
5684.48
5506.53
5361.59
5242.56
5142.97
5059.41
4987.9
4926.91
4873.72
4827.81
4787.11
4751.68
4719.79
4691.88
4666.41
4644.05
4623.38
4605.19
4588.16
4573.2
4559.02
4546.58
4534.63
4524.2
4514.04
4505.23
4496.53
4489.04
4481.53
4475.12
4468.63
4463.12
4457.45
4452.69
4447.77
4443.63
4439.28
4435.72
4431.9
4428.79
4425.42
4422.67
4419.73
4417.33
4414.77
4412.72
4410.51
4408.62
4406.67
4405.04
4403.33
4401.88
4400.35
4399.14
4397.88
4396.86
4395.7
4394.9
4393.9
4393.2
4392.29
4391.73
4390.98
4390.57
4389.93
4389.6
4389.04
4388.74
4388.19
4387.87
4387.37
4387.12
4386.7
4386.51
4386.15
4386.03
4385.75
4385.8
4385.75
4385.94
4385.94
4386.37
4386.37
4386.96
4386.96
4387.85
4388.58
4419.85
4530.44
83249.4
8261.62
7568.36
6999.49
6544.96
6187.08
5906.25
5683.63
5505.46
5360.33
5241.13
5141.39
5057.7
4986.08
4924.99
4871.71
4825.73
4784.95
4749.46
4717.52
4689.55
4664.04
4641.63
4620.92
4602.7
4585.64
4570.65
4556.45
4543.98
4532
4521.56
4511.38
4502.55
4493.83
4486.32
4478.8
4472.38
4465.87
4460.35
4454.67
4449.9
4444.96
4440.82
4436.46
4432.89
4429.06
4425.94
4422.56
4419.81
4416.86
4414.46
4411.88
4409.83
4407.61
4405.72
4403.77
4402.13
4400.41
4398.96
4397.42
4396.21
4394.94
4393.92
4392.75
4391.96
4390.95
4390.25
4389.33
4388.77
4388.01
4387.61
4386.96
4386.63
4386.06
4385.77
4385.21
4384.89
4384.39
4384.14
4383.71
4383.52
4383.16
4383.04
4382.75
4382.8
4382.74
4382.93
4382.92
4383.35
4383.35
4383.93
4383.93
4384.82
4385.56
4417.4
4527.9
79644.6
8261.63
7568.42
6999.5
6544.8
6186.67
5905.56
5682.67
5504.26
5358.91
5239.52
5139.61
5055.78
4984.02
4922.83
4869.45
4823.37
4782.52
4746.95
4714.95
4686.92
4661.36
4638.91
4618.15
4599.89
4582.79
4567.78
4553.54
4541.04
4529.04
4518.57
4508.37
4499.52
4490.78
4483.25
4475.71
4469.28
4462.75
4457.22
4451.52
4446.74
4441.79
4437.64
4433.27
4429.69
4425.85
4422.72
4419.33
4416.57
4413.62
4411.21
4408.62
4406.56
4404.34
4402.44
4400.48
4398.84
4397.12
4395.66
4394.12
4392.9
4391.63
4390.6
4389.43
4388.63
4387.62
4386.91
4385.99
4385.43
4384.67
4384.26
4383.6
4383.27
4382.7
4382.4
4381.85
4381.53
4381.02
4380.77
4380.34
4380.14
4379.78
4379.65
4379.37
4379.4
4379.34
4379.52
4379.51
4379.93
4379.93
4380.5
4380.5
4381.38
4382.14
4414.65
4525.05
76100
8261.63
7568.48
6999.51
6544.62
6186.21
5904.8
5681.61
5502.92
5357.32
5237.72
5137.63
5053.63
4981.73
4920.41
4866.92
4820.74
4779.8
4744.15
4712.08
4683.99
4658.37
4635.86
4615.06
4596.75
4579.62
4564.56
4550.29
4537.76
4525.73
4515.23
4505.01
4496.13
4487.37
4479.82
4472.26
4465.81
4459.27
4453.72
4448.01
4443.21
4438.25
4434.09
4429.7
4426.11
4422.27
4419.13
4415.73
4412.96
4410
4407.58
4404.98
4402.91
4400.69
4398.78
4396.82
4395.17
4393.44
4391.98
4390.43
4389.2
4387.92
4386.89
4385.72
4384.91
4383.9
4383.19
4382.26
4381.69
4380.92
4380.51
4379.86
4379.52
4378.95
4378.65
4378.09
4377.76
4377.26
4377
4376.56
4376.37
4376
4375.87
4375.58
4375.61
4375.54
4375.71
4375.7
4376.11
4376.11
4376.67
4376.67
4377.55
4378.32
4411.59
4521.89
72611.5
8261.63
7568.55
6999.52
6544.42
6185.7
5903.95
5680.43
5501.44
5355.58
5235.74
5135.44
5051.26
4979.2
4917.74
4864.12
4817.84
4776.79
4741.06
4708.9
4680.75
4655.06
4632.5
4611.64
4593.28
4576.1
4561.01
4546.69
4534.13
4522.07
4511.54
4501.29
4492.39
4483.6
4476.03
4468.45
4461.98
4455.42
4449.85
4444.13
4439.31
4434.34
4430.16
4425.76
4422.16
4418.3
4415.15
4411.74
4408.96
4405.99
4403.56
4400.96
4398.88
4396.64
4394.73
4392.76
4391.1
4389.36
4387.9
4386.34
4385.11
4383.82
4382.79
4381.6
4380.79
4379.77
4379.06
4378.13
4377.56
4376.78
4376.37
4375.71
4375.36
4374.79
4374.49
4373.92
4373.6
4373.09
4372.83
4372.39
4372.19
4371.82
4371.69
4371.39
4371.41
4371.33
4371.49
4371.48
4371.88
4371.88
4372.43
4372.43
4373.3
4374.09
4408.2
4518.43
69185.8
8261.64
7568.62
6999.53
6544.21
6185.15
5903.03
5679.15
5499.83
5353.67
5233.57
5133.05
5048.67
4976.43
4914.81
4861.06
4814.65
4773.5
4737.67
4705.43
4677.19
4651.43
4628.8
4607.88
4589.48
4572.24
4557.1
4542.75
4530.15
4518.05
4507.49
4497.2
4488.28
4479.47
4471.87
4464.26
4457.77
4451.19
4445.61
4439.86
4435.03
4430.04
4425.84
4421.43
4417.82
4413.94
4410.78
4407.36
4404.57
4401.58
4399.15
4396.53
4394.44
4392.2
4390.28
4388.3
4386.64
4384.89
4383.42
4381.85
4380.61
4379.32
4378.28
4377.09
4376.27
4375.25
4374.53
4373.59
4373.01
4372.24
4371.81
4371.15
4370.8
4370.23
4369.92
4369.35
4369.03
4368.51
4368.24
4367.8
4367.6
4367.22
4367.09
4366.79
4366.8
4366.71
4366.86
4366.85
4367.23
4367.23
4367.77
4367.77
4368.64
4369.45
4404.48
4514.66
65828.9
8261.64
7568.7
6999.55
6543.98
6184.56
5902.04
5677.76
5498.08
5351.6
5231.22
5130.44
5045.84
4973.41
4911.63
4857.72
4811.18
4769.91
4733.97
4701.63
4673.31
4647.47
4624.77
4603.79
4585.33
4568.04
4552.85
4538.45
4525.81
4513.67
4503.07
4492.75
4483.79
4474.95
4467.33
4459.7
4453.18
4446.57
4440.97
4435.2
4430.36
4425.34
4421.13
4416.7
4413.08
4409.19
4406.01
4402.58
4399.78
4396.78
4394.33
4391.71
4389.61
4387.35
4385.42
4383.43
4381.76
4380.01
4378.53
4376.95
4375.71
4374.41
4373.36
4372.16
4371.34
4370.31
4369.59
4368.64
4368.06
4367.27
4366.85
4366.18
4365.82
4365.24
4364.94
4364.37
4364.03
4363.51
4363.24
4362.8
4362.59
4362.21
4362.07
4361.77
4361.77
4361.67
4361.81
4361.8
4362.17
4362.16
4362.69
4362.69
4363.55
4364.39
4400.42
4510.59
62546.4
8261.64
7568.78
6999.57
6543.73
6183.92
5900.97
5676.26
5496.19
5349.36
5228.67
5127.62
5042.78
4970.15
4908.18
4854.11
4807.42
4766.02
4729.97
4697.53
4669.11
4643.19
4620.41
4599.36
4580.83
4563.48
4548.24
4533.78
4521.1
4508.91
4498.28
4487.92
4478.93
4470.06
4462.41
4454.74
4448.2
4441.57
4435.95
4430.16
4425.29
4420.26
4416.03
4411.58
4407.94
4404.03
4400.84
4397.39
4394.58
4391.57
4389.11
4386.47
4384.36
4382.09
4380.15
4378.15
4376.48
4374.71
4373.23
4371.64
4370.39
4369.08
4368.03
4366.82
4365.99
4364.95
4364.22
4363.27
4362.68
4361.89
4361.46
4360.78
4360.42
4359.84
4359.53
4358.95
4358.62
4358.09
4357.82
4357.37
4357.15
4356.77
4356.63
4356.33
4356.31
4356.2
4356.33
4356.31
4356.67
4356.67
4357.17
4357.17
4358.03
4358.89
4396.02
4506.22
59343.6
8261.64
7568.88
6999.59
6543.47
6183.24
5899.82
5674.65
5494.16
5346.95
5225.93
5124.59
5039.49
4966.63
4904.46
4850.21
4803.38
4761.83
4725.66
4693.1
4664.58
4638.56
4615.71
4594.57
4575.97
4558.56
4543.26
4528.75
4516.02
4503.79
4493.11
4482.71
4473.69
4464.78
4457.09
4449.4
4442.83
4436.17
4430.52
4424.71
4419.82
4414.76
4410.52
4406.05
4402.39
4398.47
4395.26
4391.8
4388.97
4385.94
4383.47
4380.82
4378.7
4376.42
4374.47
4372.46
4370.77
4368.99
4367.5
4365.91
4364.65
4363.32
4362.27
4361.05
4360.21
4359.16
4358.43
4357.47
4356.88
4356.08
4355.64
4354.95
4354.59
4354
4353.69
4353.11
4352.77
4352.24
4351.96
4351.5
4351.29
4350.9
4350.75
4350.45
4350.42
4350.29
4350.42
4350.39
4350.73
4350.73
4351.22
4351.22
4352.07
4352.96
4391.27
4501.55
56225.2
8261.65
7568.97
6999.62
6543.2
6182.52
5898.59
5672.94
5491.99
5344.37
5222.99
5121.34
5035.97
4962.86
4900.48
4846.04
4799.03
4757.34
4721.03
4688.34
4659.72
4633.6
4610.65
4589.44
4570.76
4553.28
4537.92
4523.35
4510.56
4498.28
4487.56
4477.12
4468.05
4459.1
4451.38
4443.66
4437.06
4430.37
4424.69
4418.85
4413.94
4408.86
4404.6
4400.11
4396.43
4392.49
4389.27
4385.78
4382.94
4379.9
4377.41
4374.74
4372.61
4370.32
4368.36
4366.33
4364.64
4362.85
4361.35
4359.74
4358.47
4357.14
4356.07
4354.84
4354
4352.94
4352.2
4351.23
4350.64
4349.83
4349.38
4348.69
4348.33
4347.73
4347.41
4346.83
4346.49
4345.95
4345.67
4345.2
4344.98
4344.58
4344.43
4344.12
4344.09
4343.95
4344.06
4344.02
4344.35
4344.35
4344.82
4344.82
4345.66
4346.59
4386.15
4496.59
53195.8
8261.65
7569.08
6999.64
6542.91
6181.75
5897.29
5671.11
5489.68
5341.63
5219.86
5117.87
5032.21
4958.84
4896.22
4841.58
4794.39
4752.53
4716.08
4683.26
4654.52
4628.29
4605.25
4583.94
4565.19
4547.63
4532.2
4517.57
4504.73
4492.39
4481.62
4471.13
4462.02
4453.03
4445.27
4437.51
4430.88
4424.16
4418.46
4412.58
4407.65
4402.54
4398.26
4393.74
4390.04
4386.08
4382.84
4379.34
4376.48
4373.42
4370.92
4368.24
4366.09
4363.78
4361.81
4359.77
4358.07
4356.26
4354.76
4353.14
4351.86
4350.51
4349.44
4348.2
4347.35
4346.28
4345.54
4344.56
4343.95
4343.14
4342.68
4341.99
4341.61
4341.01
4340.69
4340.1
4339.76
4339.21
4338.92
4338.45
4338.23
4337.82
4337.67
4337.35
4337.3
4337.15
4337.25
4337.21
4337.52
4337.52
4337.97
4337.97
4338.8
4339.76
4380.64
4491.33
50259.6
8261.65
7569.19
6999.68
6542.6
6180.94
5895.92
5669.18
5487.23
5338.71
5216.54
5114.18
5028.2
4954.55
4891.69
4836.83
4789.45
4747.41
4710.8
4677.85
4648.98
4622.64
4599.49
4578.09
4559.25
4541.61
4526.11
4511.4
4498.5
4486.1
4475.28
4464.74
4455.58
4446.55
4438.76
4430.95
4424.29
4417.53
4411.8
4405.9
4400.94
4395.8
4391.49
4386.95
4383.23
4379.25
4375.99
4372.47
4369.59
4366.52
4364
4361.3
4359.14
4356.81
4354.83
4352.78
4351.06
4349.24
4347.73
4346.1
4344.81
4343.44
4342.37
4341.11
4340.25
4339.17
4338.42
4337.44
4336.82
4335.99
4335.54
4334.83
4334.45
4333.84
4333.51
4332.92
4332.57
4332.02
4331.73
4331.25
4331.02
4330.61
4330.44
4330.12
4330.07
4329.9
4329.99
4329.93
4330.22
4330.22
4330.65
4330.65
4331.48
4332.48
4374.74
4485.74
47420.3
8261.65
7569.3
6999.71
6542.29
6180.09
5894.47
5667.14
5484.64
5335.63
5213.02
5110.28
5023.96
4950.01
4886.89
4831.79
4784.2
4741.98
4705.2
4672.1
4643.1
4616.63
4593.37
4571.86
4552.93
4535.21
4519.63
4504.85
4491.88
4479.42
4468.54
4457.95
4448.74
4439.66
4431.83
4423.98
4417.28
4410.49
4404.72
4398.79
4393.8
4388.63
4384.3
4379.73
4375.99
4371.98
4368.71
4365.16
4362.27
4359.17
4356.64
4353.92
4351.74
4349.4
4347.4
4345.33
4343.61
4341.77
4340.25
4338.6
4337.3
4335.92
4334.84
4333.57
4332.7
4331.61
4330.85
4329.86
4329.24
4328.4
4327.93
4327.21
4326.83
4326.22
4325.88
4325.28
4324.93
4324.37
4324.07
4323.58
4323.34
4322.93
4322.76
4322.43
4322.36
4322.18
4322.26
4322.19
4322.47
4322.47
4322.87
4322.87
4323.69
4324.73
4368.43
4479.79
44681.2
8261.65
7569.42
6999.75
6541.96
6179.21
5892.95
5664.99
5481.91
5332.37
5209.3
5106.15
5019.48
4945.21
4881.81
4826.46
4778.65
4736.23
4699.28
4666.01
4636.86
4610.26
4586.89
4565.27
4546.24
4528.42
4512.76
4497.91
4484.87
4472.34
4461.4
4450.75
4441.49
4432.36
4424.48
4416.59
4409.85
4403.02
4397.22
4391.25
4386.23
4381.03
4376.67
4372.08
4368.31
4364.28
4360.98
4357.41
4354.5
4351.38
4348.83
4346.09
4343.89
4341.53
4339.53
4337.44
4335.7
4333.85
4332.31
4330.65
4329.34
4327.95
4326.85
4325.57
4324.69
4323.59
4322.82
4321.82
4321.19
4320.34
4319.86
4319.14
4318.74
4318.12
4317.78
4317.18
4316.82
4316.25
4315.95
4315.45
4315.21
4314.78
4314.61
4314.27
4314.19
4313.99
4314.06
4313.98
4314.23
4314.23
4314.62
4314.62
4315.42
4316.51
4361.68
4473.47
42045.6
8261.66
7569.55
6999.8
6541.62
6178.28
5891.36
5662.73
5479.04
5328.95
5205.39
5101.8
5014.75
4940.14
4876.45
4820.83
4772.79
4730.15
4693.02
4659.57
4630.28
4603.54
4580.04
4558.3
4539.17
4521.25
4505.5
4490.57
4477.45
4464.85
4453.85
4443.13
4433.82
4424.64
4416.71
4408.77
4401.99
4395.11
4389.28
4383.27
4378.22
4372.99
4368.6
4363.98
4360.18
4356.12
4352.8
4349.21
4346.27
4343.13
4340.56
4337.8
4335.59
4333.21
4331.19
4329.08
4327.33
4325.46
4323.92
4322.24
4320.91
4319.51
4318.4
4317.11
4316.21
4315.1
4314.33
4313.31
4312.67
4311.81
4311.32
4310.59
4310.19
4309.56
4309.21
4308.6
4308.23
4307.66
4307.35
4306.85
4306.59
4306.16
4305.98
4305.64
4305.55
4305.33
4305.38
4305.29
4305.53
4305.52
4305.89
4305.88
4306.68
4307.8
4354.47
4466.73
39516.1
8261.65
7569.68
6999.85
6541.28
6177.32
5889.69
5660.38
5476.04
5325.36
5201.28
5097.24
5009.78
4934.82
4870.8
4814.91
4766.62
4723.76
4686.42
4652.8
4623.34
4596.45
4572.81
4550.96
4531.71
4513.69
4497.85
4482.82
4469.63
4456.95
4445.88
4435.1
4425.73
4416.49
4408.51
4400.52
4393.7
4386.77
4380.9
4374.86
4369.77
4364.5
4360.08
4355.43
4351.6
4347.51
4344.17
4340.55
4337.59
4334.43
4331.84
4329.06
4326.82
4324.42
4322.39
4320.26
4318.49
4316.61
4315.05
4313.36
4312.02
4310.59
4309.48
4308.17
4307.27
4306.14
4305.35
4304.32
4303.67
4302.8
4302.31
4301.56
4301.15
4300.51
4300.16
4299.54
4299.17
4298.59
4298.27
4297.76
4297.5
4297.05
4296.87
4296.52
4296.42
4296.19
4296.22
4296.12
4296.33
4296.33
4296.66
4296.66
4297.44
4298.62
4346.78
4459.56
37095.1
8261.65
7569.82
6999.9
6540.92
6176.32
5887.96
5657.91
5472.89
5321.6
5196.98
5092.45
5004.56
4929.22
4864.88
4808.68
4760.13
4717.03
4679.49
4645.67
4616.04
4588.99
4565.22
4543.23
4523.87
4505.74
4489.79
4474.67
4461.4
4448.64
4437.5
4426.64
4417.22
4407.91
4399.88
4391.84
4384.96
4377.99
4372.08
4365.99
4360.87
4355.56
4351.11
4346.42
4342.57
4338.45
4335.08
4331.44
4328.45
4325.26
4322.65
4319.85
4317.59
4315.17
4313.12
4310.97
4309.19
4307.28
4305.71
4304
4302.65
4301.21
4300.08
4298.75
4297.84
4296.7
4295.9
4294.86
4294.2
4293.31
4292.81
4292.05
4291.63
4290.98
4290.63
4290
4289.62
4289.03
4288.7
4288.18
4287.91
4287.46
4287.26
4286.91
4286.8
4286.56
4286.57
4286.45
4286.64
4286.64
4286.95
4286.94
4287.71
4288.94
4338.57
4451.9
34784.6
8261.65
7569.97
6999.96
6540.55
6175.28
5886.16
5655.35
5469.61
5317.67
5192.48
5087.44
4999.1
4923.37
4858.67
4802.16
4753.33
4709.98
4672.21
4638.19
4608.39
4581.17
4557.24
4535.11
4515.63
4497.38
4481.34
4466.11
4452.75
4439.91
4428.69
4417.76
4408.27
4398.9
4390.81
4382.71
4375.79
4368.77
4362.81
4356.68
4351.51
4346.17
4341.68
4336.96
4333.07
4328.92
4325.52
4321.85
4318.84
4315.63
4312.99
4310.16
4307.88
4305.44
4303.37
4301.2
4299.4
4297.48
4295.89
4294.16
4292.8
4291.33
4290.2
4288.85
4287.93
4286.77
4285.96
4284.91
4284.24
4283.33
4282.82
4282.05
4281.62
4280.97
4280.6
4279.97
4279.58
4278.98
4278.65
4278.11
4277.84
4277.37
4277.17
4276.8
4276.68
4276.43
4276.42
4276.29
4276.46
4276.45
4276.74
4276.72
4277.48
4278.76
4329.82
4443.74
32586.5
8261.65
7570.12
7000.03
6540.18
6174.21
5884.3
5652.68
5466.2
5313.58
5187.78
5082.2
4993.4
4917.24
4852.18
4795.34
4746.22
4702.6
4664.6
4630.36
4600.37
4572.97
4548.89
4526.61
4507
4488.63
4472.47
4457.14
4443.69
4430.75
4419.45
4408.45
4398.89
4389.45
4381.3
4373.14
4366.16
4359.09
4353.09
4346.91
4341.7
4336.31
4331.79
4327.03
4323.11
4318.93
4315.5
4311.8
4308.76
4305.51
4302.86
4300
4297.7
4295.23
4293.14
4290.95
4289.13
4287.19
4285.59
4283.84
4282.46
4280.98
4279.83
4278.47
4277.52
4276.35
4275.53
4274.46
4273.78
4272.86
4272.34
4271.55
4271.12
4270.45
4270.08
4269.43
4269.04
4268.43
4268.09
4267.55
4267.26
4266.79
4266.57
4266.19
4266.06
4265.8
4265.77
4265.62
4265.77
4265.76
4266.02
4265.99
4266.74
4268.08
4320.47
4435.02
30502.3
8261.65
7570.27
7000.1
6539.79
6173.11
5882.37
5649.92
5462.66
5309.32
5182.89
5076.75
4987.45
4910.85
4845.4
4788.21
4738.78
4694.89
4656.64
4622.18
4591.98
4564.4
4540.15
4517.72
4497.97
4479.47
4463.19
4447.76
4434.2
4421.17
4409.79
4398.7
4389.06
4379.55
4371.34
4363.12
4356.09
4348.96
4342.9
4336.68
4331.43
4325.99
4321.43
4316.63
4312.68
4308.46
4305
4301.26
4298.2
4294.92
4292.24
4289.36
4287.03
4284.54
4282.43
4280.21
4278.38
4276.41
4274.8
4273.03
4271.63
4270.12
4268.96
4267.58
4266.62
4265.43
4264.61
4263.52
4262.83
4261.89
4261.36
4260.56
4260.11
4259.43
4259.05
4258.4
4258
4257.38
4257.03
4256.47
4256.18
4255.69
4255.47
4255.08
4254.94
4254.66
4254.62
4254.44
4254.58
4254.55
4254.79
4254.75
4255.49
4256.88
4310.5
4425.7
28533.3
8261.64
7570.43
7000.18
6539.41
6171.98
5880.38
5647.06
5458.98
5304.9
5177.81
5071.08
4981.26
4904.2
4838.34
4780.79
4731.04
4686.85
4648.34
4613.64
4583.23
4555.45
4531.03
4508.44
4488.54
4469.9
4453.5
4437.95
4424.29
4411.16
4399.69
4388.51
4378.8
4369.21
4360.93
4352.65
4345.55
4338.37
4332.26
4325.98
4320.68
4315.2
4310.6
4305.76
4301.77
4297.51
4294.02
4290.25
4287.16
4283.85
4281.14
4278.23
4275.87
4273.35
4271.23
4268.98
4267.13
4265.14
4263.51
4261.71
4260.3
4258.77
4257.59
4256.2
4255.22
4254.01
4253.18
4252.07
4251.37
4250.42
4249.87
4249.06
4248.6
4247.91
4247.52
4246.85
4246.45
4245.81
4245.45
4244.89
4244.58
4244.09
4243.85
4243.45
4243.3
4243.01
4242.95
4242.75
4242.87
4242.83
4243.05
4242.99
4243.72
4245.17
4299.89
4415.76
26680.8
8261.63
7570.59
7000.26
6539.02
6170.83
5878.33
5644.11
5455.18
5300.32
5172.54
5065.19
4974.83
4897.28
4831
4773.06
4722.97
4678.48
4639.69
4604.74
4574.11
4546.13
4521.52
4498.76
4478.71
4459.92
4443.4
4427.72
4413.95
4400.71
4389.15
4377.88
4368.09
4358.42
4350.07
4341.71
4334.56
4327.31
4321.15
4314.81
4309.47
4303.94
4299.3
4294.41
4290.38
4286.08
4282.55
4278.75
4275.63
4272.29
4269.55
4266.6
4264.22
4261.68
4259.53
4257.25
4255.38
4253.37
4251.72
4249.9
4248.47
4246.92
4245.73
4244.31
4243.32
4242.09
4241.24
4240.11
4239.4
4238.43
4237.87
4237.04
4236.57
4235.87
4235.47
4234.79
4234.38
4233.74
4233.37
4232.79
4232.47
4231.96
4231.72
4231.3
4231.14
4230.84
4230.76
4230.54
4230.64
4230.59
4230.78
4230.71
4231.43
4232.93
4288.64
4405.15
24945.7
8261.63
7570.76
7000.35
6538.62
6169.64
5876.23
5641.06
5451.25
5295.59
5167.08
5059.09
4968.16
4890.1
4823.37
4765.03
4714.58
4669.77
4630.7
4595.49
4564.62
4536.42
4511.63
4488.68
4468.47
4449.53
4432.87
4417.07
4403.18
4389.83
4378.17
4366.81
4356.93
4347.18
4338.76
4330.32
4323.1
4315.79
4309.57
4303.18
4297.78
4292.2
4287.51
4282.58
4278.51
4274.17
4270.6
4266.76
4263.61
4260.23
4257.46
4254.48
4252.08
4249.5
4247.33
4245.03
4243.13
4241.09
4239.42
4237.58
4236.14
4234.56
4233.35
4231.91
4230.9
4229.65
4228.79
4227.65
4226.91
4225.93
4225.35
4224.51
4224.03
4223.31
4222.9
4222.22
4221.79
4221.14
4220.76
4220.16
4219.84
4219.32
4219.06
4218.63
4218.46
4218.14
4218.05
4217.81
4217.88
4217.82
4217.99
4217.9
4218.61
4220.16
4276.74
4393.82
23329
8261.62
7570.93
7000.45
6538.23
6168.44
5874.07
5637.93
5447.2
5290.69
5161.43
5052.77
4961.25
4882.66
4815.46
4756.7
4705.88
4660.73
4621.36
4585.88
4554.77
4526.34
4501.34
4478.21
4457.83
4438.73
4421.93
4405.98
4391.98
4378.52
4366.75
4355.28
4345.32
4335.48
4326.98
4318.47
4311.18
4303.79
4297.52
4291.06
4285.62
4279.98
4275.25
4270.26
4266.15
4261.76
4258.16
4254.28
4251.09
4247.67
4244.88
4241.86
4239.43
4236.82
4234.62
4232.29
4230.38
4228.3
4226.62
4224.75
4223.29
4221.68
4220.46
4218.99
4217.97
4216.7
4215.82
4214.66
4213.91
4212.91
4212.32
4211.46
4210.97
4210.23
4209.81
4209.11
4208.68
4208.01
4207.62
4207.02
4206.68
4206.14
4205.88
4205.43
4205.25
4204.91
4204.81
4204.54
4204.6
4204.53
4204.67
4204.56
4205.25
4206.85
4264.19
4381.75
21826.6
8261.61
7571.11
7000.56
6537.83
6167.21
5871.86
5634.71
5443.03
5285.65
5155.6
5046.24
4954.1
4874.96
4807.27
4748.07
4696.87
4651.36
4611.68
4575.9
4544.54
4515.87
4490.67
4467.33
4446.78
4427.51
4410.56
4394.48
4380.35
4366.76
4354.89
4343.31
4333.25
4323.32
4314.74
4306.15
4298.79
4291.33
4284.99
4278.47
4272.97
4267.27
4262.49
4257.45
4253.3
4248.86
4245.22
4241.3
4238.07
4234.62
4231.79
4228.74
4226.27
4223.63
4221.41
4219.05
4217.11
4215.01
4213.3
4211.41
4209.92
4208.29
4207.05
4205.56
4204.52
4203.22
4202.33
4201.15
4200.39
4199.37
4198.76
4197.88
4197.37
4196.63
4196.2
4195.48
4195.04
4194.36
4193.96
4193.34
4192.99
4192.44
4192.16
4191.7
4191.5
4191.15
4191.03
4190.75
4190.78
4190.69
4190.81
4190.67
4191.36
4193.01
4251
4368.9
20433.8
8261.6
7571.28
7000.67
6537.43
6165.96
5869.6
5631.41
5438.74
5280.45
5149.59
5039.5
4946.72
4867
4798.81
4739.15
4687.53
4641.66
4601.65
4565.57
4533.94
4505.03
4479.6
4456.06
4435.32
4415.88
4398.77
4382.54
4368.28
4354.56
4342.57
4330.89
4320.73
4310.7
4302.03
4293.36
4285.92
4278.39
4271.98
4265.4
4259.83
4254.08
4249.25
4244.15
4239.95
4235.47
4231.78
4227.82
4224.56
4221.06
4218.2
4215.11
4212.61
4209.93
4207.68
4205.29
4203.33
4201.19
4199.47
4197.55
4196.04
4194.38
4193.11
4191.6
4190.54
4189.22
4188.31
4187.11
4186.34
4185.29
4184.67
4183.77
4183.25
4182.49
4182.05
4181.32
4180.87
4180.17
4179.76
4179.12
4178.77
4178.2
4177.91
4177.43
4177.22
4176.85
4176.72
4176.42
4176.42
4176.32
4176.41
4176.25
4176.93
4178.62
4237.16
4355.23
19145.8
8261.58
7571.47
7000.79
6537.03
6164.69
5867.29
5628.03
5434.34
5275.11
5143.41
5032.56
4939.1
4858.79
4790.06
4729.93
4677.89
4631.63
4591.28
4554.89
4522.97
4493.8
4468.14
4444.38
4423.45
4403.83
4386.56
4370.17
4355.77
4341.92
4329.81
4318.01
4307.75
4297.62
4288.86
4280.1
4272.59
4264.97
4258.5
4251.84
4246.22
4240.4
4235.51
4230.36
4226.11
4221.57
4217.85
4213.83
4210.53
4206.99
4204.1
4200.97
4198.43
4195.72
4193.44
4191.01
4189.03
4186.86
4185.11
4183.16
4181.63
4179.94
4178.66
4177.12
4176.04
4174.69
4173.77
4172.55
4171.75
4170.69
4170.05
4169.13
4168.6
4167.82
4167.36
4166.62
4166.16
4165.45
4165.02
4164.37
4164
4163.42
4163.11
4162.62
4162.4
4162.01
4161.86
4161.55
4161.53
4161.4
4161.47
4161.28
4161.95
4163.68
4222.68
4340.7
17957.2
8261.57
7571.65
7000.92
6536.64
6163.41
5864.94
5624.58
5429.83
5269.63
5137.05
5025.42
4931.26
4850.32
4781.04
4720.41
4667.93
4621.27
4580.56
4543.84
4511.64
4482.2
4456.3
4432.31
4411.18
4391.36
4373.93
4357.37
4342.83
4328.83
4316.6
4304.68
4294.31
4284.07
4275.23
4266.36
4258.77
4251.07
4244.53
4237.8
4232.11
4226.22
4221.28
4216.07
4211.77
4207.18
4203.4
4199.34
4196
4192.42
4189.48
4186.31
4183.74
4180.99
4178.69
4176.22
4174.21
4172.01
4170.23
4168.25
4166.7
4164.98
4163.68
4162.11
4161.01
4159.64
4158.69
4157.45
4156.64
4155.55
4154.89
4153.96
4153.41
4152.61
4152.14
4151.39
4150.91
4150.18
4149.75
4149.08
4148.69
4148.09
4147.78
4147.27
4147.03
4146.62
4146.46
4146.13
4146.08
4145.94
4145.98
4145.76
4146.42
4148.18
4207.55
4325.29
16862.7
8261.55
7571.84
7001.05
6536.25
6162.11
5862.55
5621.06
5425.22
5264.01
5130.53
5018.07
4923.2
4841.61
4771.76
4710.6
4657.67
4610.59
4569.51
4532.45
4499.94
4470.21
4444.06
4419.84
4398.5
4378.48
4360.87
4344.14
4329.45
4315.31
4302.95
4290.9
4280.42
4270.06
4261.12
4252.16
4244.48
4236.7
4230.07
4223.27
4217.51
4211.55
4206.55
4201.28
4196.92
4192.28
4188.46
4184.35
4180.96
4177.33
4174.36
4171.14
4168.54
4165.74
4163.41
4160.9
4158.86
4156.63
4154.83
4152.82
4151.24
4149.48
4148.16
4146.56
4145.44
4144.04
4143.08
4141.81
4140.99
4139.87
4139.2
4138.24
4137.67
4136.85
4136.38
4135.6
4135.12
4134.37
4133.93
4133.24
4132.84
4132.22
4131.89
4131.36
4131.11
4130.68
4130.51
4130.16
4130.09
4129.93
4129.94
4129.69
4130.34
4132.13
4191.78
4308.96
15856.5
8261.53
7572.03
7001.2
6535.87
6160.81
5860.13
5617.47
5420.51
5258.26
5123.84
5010.54
4914.92
4832.65
4762.2
4700.51
4647.09
4599.58
4558.11
4520.7
4487.87
4457.85
4431.44
4406.97
4385.41
4365.18
4347.38
4330.48
4315.63
4301.33
4288.84
4276.66
4266.06
4255.59
4246.54
4237.48
4229.71
4221.84
4215.14
4208.25
4202.42
4196.39
4191.33
4185.99
4181.58
4176.88
4173
4168.84
4165.41
4161.73
4158.72
4155.46
4152.81
4149.97
4147.61
4145.06
4142.99
4140.72
4138.9
4136.85
4135.26
4133.46
4132.12
4130.49
4129.34
4127.92
4126.94
4125.64
4124.8
4123.66
4122.97
4121.98
4121.4
4120.56
4120.07
4119.28
4118.78
4118.02
4117.56
4116.85
4116.44
4115.8
4115.46
4114.91
4114.64
4114.19
4114.01
4113.64
4113.55
4113.37
4113.35
4113.06
4113.7
4115.51
4175.35
4291.68
14932.8
8261.51
7572.22
7001.35
6535.49
6159.5
5857.68
5613.82
5415.71
5252.39
5116.99
5002.82
4906.42
4823.46
4752.39
4690.13
4636.22
4588.25
4546.39
4508.6
4475.44
4445.12
4418.43
4393.7
4371.92
4351.47
4333.48
4316.39
4301.37
4286.92
4274.28
4261.96
4251.24
4240.65
4231.5
4222.33
4214.47
4206.5
4199.71
4192.74
4186.84
4180.74
4175.61
4170.2
4165.73
4160.97