/*--------------------------------*- C++ -*----------------------------------*\
| =========                 |                                                 |
| \\      /  F ield         | OpenFOAM: The Open Source CFD Toolbox           |
|  \\    /   O peration     | Version:  v2012                                 |
|   \\  /    A nd           | Website:  www.openfoam.com                      |
|    \\/     M anipulation  |                                                 |
\*---------------------------------------------------------------------------*/
FoamFile
{
    version     2.0;
    format      ascii;
    class       volVectorField;
    location    "42.5";
    object      wallShearStress;
}
// * * * * * * * * * * * * * * * * * * * * * * * * * * * * * * * * * * * * * //

dimensions      [0 2 -2 0 0 0 0];


internalField   uniform (0 0 0);

boundaryField
{
    inlet
    {
        type            calculated;
        value           uniform (0 0 0);
    }
    outlet
    {
        type            calculated;
        value           uniform (0 0 0);
    }
    topWall
    {
        type            calculated;
        value           nonuniform List<vector> 
545
(
(3.67448e-08 -2.58652e-08 0)
(3.67335e-08 -7.23551e-08 0)
(3.67134e-08 -1.20699e-07 0)
(3.66848e-08 -1.67644e-07 0)
(3.66489e-08 -2.12591e-07 0)
(3.66065e-08 -2.56118e-07 0)
(3.6558e-08 -2.98594e-07 0)
(3.65039e-08 -3.39999e-07 0)
(3.64447e-08 -3.80243e-07 0)
(3.63809e-08 -4.19326e-07 0)
(3.63128e-08 -4.57298e-07 0)
(3.62409e-08 -4.94204e-07 0)
(3.61656e-08 -5.30068e-07 0)
(3.60872e-08 -5.64912e-07 0)
(3.6006e-08 -5.98761e-07 0)
(3.59224e-08 -6.31641e-07 0)
(3.58367e-08 -6.63578e-07 0)
(3.57492e-08 -6.94599e-07 0)
(3.566e-08 -7.24727e-07 0)
(3.55695e-08 -7.53986e-07 0)
(3.54779e-08 -7.824e-07 0)
(3.53853e-08 -8.09994e-07 0)
(3.5292e-08 -8.36789e-07 0)
(3.51982e-08 -8.62809e-07 0)
(3.5104e-08 -8.88075e-07 0)
(3.50096e-08 -9.12608e-07 0)
(3.49151e-08 -9.36431e-07 0)
(3.48207e-08 -9.59562e-07 0)
(3.47266e-08 -9.82023e-07 0)
(3.46327e-08 -1.00383e-06 0)
(3.45392e-08 -1.02501e-06 0)
(3.44463e-08 -1.04557e-06 0)
(3.43539e-08 -1.06554e-06 0)
(3.42623e-08 -1.08493e-06 0)
(3.41714e-08 -1.10375e-06 0)
(3.40814e-08 -1.12203e-06 0)
(3.39923e-08 -1.13979e-06 0)
(3.39041e-08 -1.15703e-06 0)
(3.38169e-08 -1.17377e-06 0)
(3.37308e-08 -1.19003e-06 0)
(3.36457e-08 -1.20582e-06 0)
(3.35618e-08 -1.22115e-06 0)
(3.34791e-08 -1.23605e-06 0)
(3.33975e-08 -1.25051e-06 0)
(3.33171e-08 -1.26456e-06 0)
(3.3238e-08 -1.27821e-06 0)
(3.31601e-08 -1.29146e-06 0)
(3.30834e-08 -1.30434e-06 0)
(3.3008e-08 -1.31685e-06 0)
(3.29339e-08 -1.329e-06 0)
(3.28611e-08 -1.3408e-06 0)
(3.27896e-08 -1.35227e-06 0)
(3.27193e-08 -1.36341e-06 0)
(3.26503e-08 -1.37423e-06 0)
(3.25826e-08 -1.38475e-06 0)
(3.25162e-08 -1.39496e-06 0)
(3.24511e-08 -1.40489e-06 0)
(3.23872e-08 -1.41454e-06 0)
(3.23246e-08 -1.42391e-06 0)
(3.22632e-08 -1.43302e-06 0)
(3.22031e-08 -1.44188e-06 0)
(3.21441e-08 -1.45048e-06 0)
(3.20864e-08 -1.45884e-06 0)
(3.20299e-08 -1.46697e-06 0)
(3.19746e-08 -1.47487e-06 0)
(3.19204e-08 -1.48255e-06 0)
(3.18674e-08 -1.49001e-06 0)
(3.18156e-08 -1.49726e-06 0)
(3.17648e-08 -1.50431e-06 0)
(3.17152e-08 -1.51117e-06 0)
(3.16666e-08 -1.51783e-06 0)
(3.16194e-08 -1.5243e-06 0)
(3.15735e-08 -1.53053e-06 0)
(3.15283e-08 -1.53657e-06 0)
(3.14836e-08 -1.54254e-06 0)
(3.1439e-08 -1.54849e-06 0)
(3.13945e-08 -1.55441e-06 0)
(3.135e-08 -1.5603e-06 0)
(3.13055e-08 -1.56615e-06 0)
(3.12611e-08 -1.57196e-06 0)
(3.12167e-08 -1.57774e-06 0)
(3.11724e-08 -1.58348e-06 0)
(3.11281e-08 -1.58919e-06 0)
(3.10839e-08 -1.59486e-06 0)
(3.10397e-08 -1.60051e-06 0)
(3.09955e-08 -1.60611e-06 0)
(3.09514e-08 -1.61169e-06 0)
(3.09074e-08 -1.61723e-06 0)
(3.08634e-08 -1.62274e-06 0)
(3.08195e-08 -1.62821e-06 0)
(3.07756e-08 -1.63365e-06 0)
(3.07318e-08 -1.63906e-06 0)
(3.0688e-08 -1.64444e-06 0)
(3.06444e-08 -1.64978e-06 0)
(3.06005e-08 -1.6551e-06 0)
(3.05586e-08 -1.66034e-06 0)
(3.05197e-08 -1.66513e-06 0)
(3.04823e-08 -1.66947e-06 0)
(3.04463e-08 -1.6737e-06 0)
(3.04103e-08 -1.67795e-06 0)
(3.03743e-08 -1.68224e-06 0)
(3.03381e-08 -1.68654e-06 0)
(3.03018e-08 -1.69083e-06 0)
(3.02653e-08 -1.69513e-06 0)
(3.02286e-08 -1.69943e-06 0)
(3.01917e-08 -1.70374e-06 0)
(3.01546e-08 -1.70806e-06 0)
(3.01174e-08 -1.71237e-06 0)
(3.008e-08 -1.7167e-06 0)
(3.00424e-08 -1.72103e-06 0)
(3.00046e-08 -1.72536e-06 0)
(2.99667e-08 -1.7297e-06 0)
(2.99286e-08 -1.73404e-06 0)
(2.98903e-08 -1.73839e-06 0)
(2.98518e-08 -1.74274e-06 0)
(2.98131e-08 -1.74709e-06 0)
(2.97743e-08 -1.75145e-06 0)
(2.97352e-08 -1.75582e-06 0)
(2.9696e-08 -1.76019e-06 0)
(2.96566e-08 -1.76456e-06 0)
(2.96171e-08 -1.76894e-06 0)
(2.95773e-08 -1.77333e-06 0)
(2.95373e-08 -1.77772e-06 0)
(2.94972e-08 -1.78211e-06 0)
(2.94569e-08 -1.7865e-06 0)
(2.94164e-08 -1.79091e-06 0)
(2.93757e-08 -1.79531e-06 0)
(2.93348e-08 -1.79972e-06 0)
(2.92937e-08 -1.80413e-06 0)
(2.92525e-08 -1.80855e-06 0)
(2.9211e-08 -1.81297e-06 0)
(2.91694e-08 -1.8174e-06 0)
(2.91276e-08 -1.82183e-06 0)
(2.90856e-08 -1.82627e-06 0)
(2.90433e-08 -1.8307e-06 0)
(2.90009e-08 -1.83515e-06 0)
(2.89584e-08 -1.83959e-06 0)
(2.89156e-08 -1.84404e-06 0)
(2.88726e-08 -1.8485e-06 0)
(2.88294e-08 -1.85296e-06 0)
(2.87861e-08 -1.85742e-06 0)
(2.87425e-08 -1.86188e-06 0)
(2.86988e-08 -1.86635e-06 0)
(2.86548e-08 -1.87083e-06 0)
(2.86107e-08 -1.8753e-06 0)
(2.85663e-08 -1.87978e-06 0)
(2.85218e-08 -1.88427e-06 0)
(2.84771e-08 -1.88875e-06 0)
(2.84321e-08 -1.89325e-06 0)
(2.8387e-08 -1.89774e-06 0)
(2.83417e-08 -1.90224e-06 0)
(2.82961e-08 -1.90674e-06 0)
(2.82504e-08 -1.91124e-06 0)
(2.82045e-08 -1.91575e-06 0)
(2.81584e-08 -1.92026e-06 0)
(2.8112e-08 -1.92478e-06 0)
(2.80655e-08 -1.9293e-06 0)
(2.80188e-08 -1.93382e-06 0)
(2.79719e-08 -1.93834e-06 0)
(2.79247e-08 -1.94287e-06 0)
(2.78774e-08 -1.9474e-06 0)
(2.78299e-08 -1.95193e-06 0)
(2.77821e-08 -1.95647e-06 0)
(2.77342e-08 -1.961e-06 0)
(2.7686e-08 -1.96555e-06 0)
(2.76377e-08 -1.97009e-06 0)
(2.75891e-08 -1.97464e-06 0)
(2.75404e-08 -1.97919e-06 0)
(2.74914e-08 -1.98374e-06 0)
(2.74422e-08 -1.9883e-06 0)
(2.73929e-08 -1.99285e-06 0)
(2.73433e-08 -1.99741e-06 0)
(2.72935e-08 -2.00198e-06 0)
(2.72435e-08 -2.00654e-06 0)
(2.71933e-08 -2.01111e-06 0)
(2.71429e-08 -2.01568e-06 0)
(2.70923e-08 -2.02025e-06 0)
(2.70414e-08 -2.02482e-06 0)
(2.69904e-08 -2.0294e-06 0)
(2.69392e-08 -2.03398e-06 0)
(2.68877e-08 -2.03856e-06 0)
(2.68361e-08 -2.04314e-06 0)
(2.67842e-08 -2.04772e-06 0)
(2.67321e-08 -2.05231e-06 0)
(2.66798e-08 -2.0569e-06 0)
(2.66273e-08 -2.06149e-06 0)
(2.65746e-08 -2.06608e-06 0)
(2.65217e-08 -2.07067e-06 0)
(2.64686e-08 -2.07527e-06 0)
(2.64152e-08 -2.07987e-06 0)
(2.63617e-08 -2.08446e-06 0)
(2.63079e-08 -2.08906e-06 0)
(2.6254e-08 -2.09366e-06 0)
(2.61998e-08 -2.09827e-06 0)
(2.61454e-08 -2.10287e-06 0)
(2.60908e-08 -2.10748e-06 0)
(2.6036e-08 -2.11208e-06 0)
(2.59809e-08 -2.11669e-06 0)
(2.59257e-08 -2.1213e-06 0)
(2.58702e-08 -2.12591e-06 0)
(2.58146e-08 -2.13052e-06 0)
(2.57587e-08 -2.13513e-06 0)
(2.57026e-08 -2.13974e-06 0)
(2.56463e-08 -2.14435e-06 0)
(2.55898e-08 -2.14897e-06 0)
(2.55331e-08 -2.15358e-06 0)
(2.54761e-08 -2.15819e-06 0)
(2.5419e-08 -2.16281e-06 0)
(2.53616e-08 -2.16743e-06 0)
(2.5304e-08 -2.17204e-06 0)
(2.52462e-08 -2.17666e-06 0)
(2.51882e-08 -2.18128e-06 0)
(2.513e-08 -2.18589e-06 0)
(2.50716e-08 -2.19051e-06 0)
(2.5013e-08 -2.19513e-06 0)
(2.49541e-08 -2.19974e-06 0)
(2.4895e-08 -2.20436e-06 0)
(2.48358e-08 -2.20898e-06 0)
(2.47763e-08 -2.2136e-06 0)
(2.47166e-08 -2.21821e-06 0)
(2.46567e-08 -2.22283e-06 0)
(2.45966e-08 -2.22744e-06 0)
(2.45362e-08 -2.23206e-06 0)
(2.44757e-08 -2.23668e-06 0)
(2.44149e-08 -2.24129e-06 0)
(2.4354e-08 -2.2459e-06 0)
(2.42928e-08 -2.25052e-06 0)
(2.42314e-08 -2.25513e-06 0)
(2.41698e-08 -2.25974e-06 0)
(2.4108e-08 -2.26435e-06 0)
(2.4046e-08 -2.26896e-06 0)
(2.39838e-08 -2.27357e-06 0)
(2.39213e-08 -2.27818e-06 0)
(2.38587e-08 -2.28278e-06 0)
(2.37958e-08 -2.28739e-06 0)
(2.37328e-08 -2.29199e-06 0)
(2.36695e-08 -2.2966e-06 0)
(2.3606e-08 -2.3012e-06 0)
(2.35423e-08 -2.3058e-06 0)
(2.34784e-08 -2.31039e-06 0)
(2.34143e-08 -2.31499e-06 0)
(2.335e-08 -2.31958e-06 0)
(2.32855e-08 -2.32418e-06 0)
(2.32208e-08 -2.32877e-06 0)
(2.31559e-08 -2.33335e-06 0)
(2.30908e-08 -2.33794e-06 0)
(2.30255e-08 -2.34252e-06 0)
(2.29599e-08 -2.34711e-06 0)
(2.28942e-08 -2.35169e-06 0)
(2.28282e-08 -2.35626e-06 0)
(2.27621e-08 -2.36084e-06 0)
(2.26958e-08 -2.36541e-06 0)
(2.26292e-08 -2.36998e-06 0)
(2.25625e-08 -2.37455e-06 0)
(2.24955e-08 -2.37911e-06 0)
(2.24284e-08 -2.38367e-06 0)
(2.23611e-08 -2.38823e-06 0)
(2.22935e-08 -2.39278e-06 0)
(2.22258e-08 -2.39734e-06 0)
(2.21579e-08 -2.40189e-06 0)
(2.20897e-08 -2.40643e-06 0)
(2.20214e-08 -2.41097e-06 0)
(2.19529e-08 -2.41551e-06 0)
(2.18842e-08 -2.42005e-06 0)
(2.18153e-08 -2.42458e-06 0)
(2.17462e-08 -2.42911e-06 0)
(2.1677e-08 -2.43363e-06 0)
(2.16072e-08 -2.43816e-06 0)
(2.15392e-08 -2.44265e-06 0)
(2.14735e-08 -2.44692e-06 0)
(2.14092e-08 -2.45099e-06 0)
(2.13457e-08 -2.45502e-06 0)
(2.12817e-08 -2.45909e-06 0)
(2.12171e-08 -2.46321e-06 0)
(2.11518e-08 -2.46737e-06 0)
(2.10858e-08 -2.47156e-06 0)
(2.1019e-08 -2.47577e-06 0)
(2.09516e-08 -2.48002e-06 0)
(2.08833e-08 -2.4843e-06 0)
(2.08143e-08 -2.48861e-06 0)
(2.07446e-08 -2.49296e-06 0)
(2.0674e-08 -2.49733e-06 0)
(2.06027e-08 -2.50174e-06 0)
(2.05306e-08 -2.50619e-06 0)
(2.04578e-08 -2.51066e-06 0)
(2.03841e-08 -2.51517e-06 0)
(2.03096e-08 -2.51971e-06 0)
(2.02343e-08 -2.52428e-06 0)
(2.01582e-08 -2.52888e-06 0)
(2.00813e-08 -2.53352e-06 0)
(2.00036e-08 -2.53819e-06 0)
(1.9925e-08 -2.54289e-06 0)
(1.98455e-08 -2.54763e-06 0)
(1.97652e-08 -2.55239e-06 0)
(1.9684e-08 -2.55719e-06 0)
(1.9602e-08 -2.56202e-06 0)
(1.95191e-08 -2.56688e-06 0)
(1.94353e-08 -2.57178e-06 0)
(1.93507e-08 -2.5767e-06 0)
(1.92651e-08 -2.58166e-06 0)
(1.91786e-08 -2.58665e-06 0)
(1.90913e-08 -2.59167e-06 0)
(1.9003e-08 -2.59672e-06 0)
(1.89137e-08 -2.6018e-06 0)
(1.88236e-08 -2.60692e-06 0)
(1.87325e-08 -2.61206e-06 0)
(1.86405e-08 -2.61724e-06 0)
(1.85476e-08 -2.62244e-06 0)
(1.84536e-08 -2.62768e-06 0)
(1.83588e-08 -2.63294e-06 0)
(1.82629e-08 -2.63824e-06 0)
(1.81661e-08 -2.64356e-06 0)
(1.80684e-08 -2.64892e-06 0)
(1.79696e-08 -2.6543e-06 0)
(1.78698e-08 -2.65971e-06 0)
(1.77691e-08 -2.66515e-06 0)
(1.76674e-08 -2.67061e-06 0)
(1.75646e-08 -2.67611e-06 0)
(1.74609e-08 -2.68163e-06 0)
(1.73561e-08 -2.68718e-06 0)
(1.72504e-08 -2.69275e-06 0)
(1.71436e-08 -2.69835e-06 0)
(1.70358e-08 -2.70398e-06 0)
(1.69269e-08 -2.70963e-06 0)
(1.6817e-08 -2.7153e-06 0)
(1.67061e-08 -2.721e-06 0)
(1.65942e-08 -2.72673e-06 0)
(1.64812e-08 -2.73247e-06 0)
(1.63672e-08 -2.73824e-06 0)
(1.62522e-08 -2.74403e-06 0)
(1.61361e-08 -2.74984e-06 0)
(1.60189e-08 -2.75568e-06 0)
(1.59007e-08 -2.76153e-06 0)
(1.57815e-08 -2.7674e-06 0)
(1.56612e-08 -2.77329e-06 0)
(1.55399e-08 -2.7792e-06 0)
(1.54175e-08 -2.78513e-06 0)
(1.52941e-08 -2.79108e-06 0)
(1.51696e-08 -2.79704e-06 0)
(1.50441e-08 -2.80301e-06 0)
(1.49175e-08 -2.809e-06 0)
(1.47899e-08 -2.815e-06 0)
(1.46613e-08 -2.82102e-06 0)
(1.45316e-08 -2.82705e-06 0)
(1.44009e-08 -2.83309e-06 0)
(1.42692e-08 -2.83914e-06 0)
(1.41365e-08 -2.8452e-06 0)
(1.40027e-08 -2.85126e-06 0)
(1.3868e-08 -2.85734e-06 0)
(1.37322e-08 -2.86342e-06 0)
(1.35954e-08 -2.86951e-06 0)
(1.34577e-08 -2.8756e-06 0)
(1.33189e-08 -2.88169e-06 0)
(1.31792e-08 -2.88778e-06 0)
(1.30386e-08 -2.89388e-06 0)
(1.2897e-08 -2.89998e-06 0)
(1.27544e-08 -2.90607e-06 0)
(1.26109e-08 -2.91217e-06 0)
(1.24665e-08 -2.91825e-06 0)
(1.23212e-08 -2.92434e-06 0)
(1.2175e-08 -2.93041e-06 0)
(1.2028e-08 -2.93648e-06 0)
(1.188e-08 -2.94255e-06 0)
(1.17312e-08 -2.9486e-06 0)
(1.15816e-08 -2.95463e-06 0)
(1.14312e-08 -2.96066e-06 0)
(1.128e-08 -2.96667e-06 0)
(1.1128e-08 -2.97267e-06 0)
(1.09752e-08 -2.97864e-06 0)
(1.08217e-08 -2.9846e-06 0)
(1.06675e-08 -2.99054e-06 0)
(1.05126e-08 -2.99646e-06 0)
(1.03571e-08 -3.00235e-06 0)
(1.02009e-08 -3.00822e-06 0)
(1.0044e-08 -3.01406e-06 0)
(9.88657e-09 -3.01987e-06 0)
(9.72857e-09 -3.02566e-06 0)
(9.57001e-09 -3.03141e-06 0)
(9.41095e-09 -3.03713e-06 0)
(9.25139e-09 -3.04281e-06 0)
(9.09138e-09 -3.04846e-06 0)
(8.93094e-09 -3.05406e-06 0)
(8.7701e-09 -3.05963e-06 0)
(8.6089e-09 -3.06516e-06 0)
(8.44737e-09 -3.07064e-06 0)
(8.28554e-09 -3.07607e-06 0)
(8.12345e-09 -3.08146e-06 0)
(7.96113e-09 -3.0868e-06 0)
(7.79863e-09 -3.09209e-06 0)
(7.63597e-09 -3.09732e-06 0)
(7.4732e-09 -3.1025e-06 0)
(7.31035e-09 -3.10762e-06 0)
(7.14747e-09 -3.11269e-06 0)
(6.98459e-09 -3.11769e-06 0)
(6.82176e-09 -3.12263e-06 0)
(6.65902e-09 -3.12751e-06 0)
(6.49641e-09 -3.13232e-06 0)
(6.33397e-09 -3.13706e-06 0)
(6.17176e-09 -3.14173e-06 0)
(6.0098e-09 -3.14633e-06 0)
(5.84816e-09 -3.15086e-06 0)
(5.68687e-09 -3.15531e-06 0)
(5.52598e-09 -3.15968e-06 0)
(5.36554e-09 -3.16398e-06 0)
(5.2056e-09 -3.16819e-06 0)
(5.0462e-09 -3.17232e-06 0)
(4.88739e-09 -3.17636e-06 0)
(4.72923e-09 -3.18032e-06 0)
(4.57176e-09 -3.18418e-06 0)
(4.41503e-09 -3.18796e-06 0)
(4.25909e-09 -3.19165e-06 0)
(4.10399e-09 -3.19524e-06 0)
(3.94979e-09 -3.19873e-06 0)
(3.79653e-09 -3.20213e-06 0)
(3.64426e-09 -3.20543e-06 0)
(3.49304e-09 -3.20863e-06 0)
(3.34291e-09 -3.21173e-06 0)
(3.19393e-09 -3.21472e-06 0)
(3.04614e-09 -3.2176e-06 0)
(2.89961e-09 -3.22038e-06 0)
(2.75437e-09 -3.22305e-06 0)
(2.61048e-09 -3.22562e-06 0)
(2.46798e-09 -3.22807e-06 0)
(2.32694e-09 -3.2304e-06 0)
(2.18739e-09 -3.23263e-06 0)
(2.04938e-09 -3.23474e-06 0)
(1.91297e-09 -3.23673e-06 0)
(1.7782e-09 -3.23861e-06 0)
(1.64512e-09 -3.24036e-06 0)
(1.51377e-09 -3.242e-06 0)
(1.3842e-09 -3.24352e-06 0)
(1.25646e-09 -3.24491e-06 0)
(1.13058e-09 -3.24619e-06 0)
(1.00661e-09 -3.24734e-06 0)
(8.84592e-10 -3.24837e-06 0)
(7.64569e-10 -3.24927e-06 0)
(6.46579e-10 -3.25006e-06 0)
(5.30661e-10 -3.25071e-06 0)
(4.16853e-10 -3.25124e-06 0)
(3.05191e-10 -3.25164e-06 0)
(1.95712e-10 -3.25192e-06 0)
(8.84489e-11 -3.25207e-06 0)
(-1.65633e-11 -3.2521e-06 0)
(-1.19294e-10 -3.252e-06 0)
(-2.19706e-10 -3.25177e-06 0)
(-3.17788e-10 -3.25142e-06 0)
(-4.13441e-10 -3.25094e-06 0)
(-5.06948e-10 -3.25034e-06 0)
(-5.97187e-10 -3.24961e-06 0)
(-6.89329e-10 -3.24875e-06 0)
(-7.85451e-10 -3.24766e-06 0)
(-8.82101e-10 -3.2463e-06 0)
(-9.77342e-10 -3.24477e-06 0)
(-1.0681e-09 -3.24309e-06 0)
(-1.15439e-09 -3.24127e-06 0)
(-1.23623e-09 -3.23932e-06 0)
(-1.31372e-09 -3.23723e-06 0)
(-1.38697e-09 -3.23503e-06 0)
(-1.45608e-09 -3.23271e-06 0)
(-1.52119e-09 -3.23028e-06 0)
(-1.58244e-09 -3.22775e-06 0)
(-1.63992e-09 -3.22513e-06 0)
(-1.69377e-09 -3.22241e-06 0)
(-1.74408e-09 -3.21961e-06 0)
(-1.79098e-09 -3.21673e-06 0)
(-1.83456e-09 -3.21378e-06 0)
(-1.87494e-09 -3.21076e-06 0)
(-1.91221e-09 -3.20768e-06 0)
(-1.94646e-09 -3.20454e-06 0)
(-1.9778e-09 -3.20135e-06 0)
(-2.00631e-09 -3.19811e-06 0)
(-2.03209e-09 -3.19483e-06 0)
(-2.05521e-09 -3.19151e-06 0)
(-2.07577e-09 -3.18815e-06 0)
(-2.09383e-09 -3.18476e-06 0)
(-2.10948e-09 -3.18135e-06 0)
(-2.1228e-09 -3.17791e-06 0)
(-2.13384e-09 -3.17445e-06 0)
(-2.14269e-09 -3.17097e-06 0)
(-2.14941e-09 -3.16749e-06 0)
(-2.15406e-09 -3.16399e-06 0)
(-2.1567e-09 -3.16049e-06 0)
(-2.15741e-09 -3.15699e-06 0)
(-2.15622e-09 -3.15348e-06 0)
(-2.1532e-09 -3.14998e-06 0)
(-2.14841e-09 -3.14649e-06 0)
(-2.14189e-09 -3.14301e-06 0)
(-2.13369e-09 -3.13953e-06 0)
(-2.12387e-09 -3.13608e-06 0)
(-2.11246e-09 -3.13264e-06 0)
(-2.09952e-09 -3.12922e-06 0)
(-2.08508e-09 -3.12582e-06 0)
(-2.06919e-09 -3.12244e-06 0)
(-2.05189e-09 -3.1191e-06 0)
(-2.03321e-09 -3.11578e-06 0)
(-2.0132e-09 -3.1125e-06 0)
(-1.99189e-09 -3.10924e-06 0)
(-1.96931e-09 -3.10603e-06 0)
(-1.94551e-09 -3.10285e-06 0)
(-1.9205e-09 -3.09971e-06 0)
(-1.89433e-09 -3.09661e-06 0)
(-1.86703e-09 -3.09356e-06 0)
(-1.83863e-09 -3.09055e-06 0)
(-1.80915e-09 -3.08759e-06 0)
(-1.77862e-09 -3.08467e-06 0)
(-1.74708e-09 -3.08181e-06 0)
(-1.71455e-09 -3.079e-06 0)
(-1.68105e-09 -3.07624e-06 0)
(-1.64662e-09 -3.07354e-06 0)
(-1.61129e-09 -3.07089e-06 0)
(-1.57507e-09 -3.0683e-06 0)
(-1.53799e-09 -3.06578e-06 0)
(-1.50008e-09 -3.06331e-06 0)
(-1.46136e-09 -3.0609e-06 0)
(-1.42186e-09 -3.05856e-06 0)
(-1.38161e-09 -3.05628e-06 0)
(-1.34061e-09 -3.05407e-06 0)
(-1.29892e-09 -3.05192e-06 0)
(-1.25653e-09 -3.04985e-06 0)
(-1.21349e-09 -3.04784e-06 0)
(-1.16981e-09 -3.0459e-06 0)
(-1.12552e-09 -3.04403e-06 0)
(-1.08064e-09 -3.04224e-06 0)
(-1.03519e-09 -3.04052e-06 0)
(-9.89208e-10 -3.03887e-06 0)
(-9.4271e-10 -3.0373e-06 0)
(-8.95719e-10 -3.0358e-06 0)
(-8.48262e-10 -3.03438e-06 0)
(-8.00361e-10 -3.03304e-06 0)
(-7.52042e-10 -3.03178e-06 0)
(-7.03328e-10 -3.03059e-06 0)
(-6.54246e-10 -3.02948e-06 0)
(-6.04817e-10 -3.02845e-06 0)
(-5.55069e-10 -3.02751e-06 0)
(-5.05024e-10 -3.02663e-06 0)
(-4.54709e-10 -3.02587e-06 0)
(-4.04145e-10 -3.0251e-06 0)
(-3.53367e-10 -3.02469e-06 0)
(-3.02372e-10 -3.02345e-06 0)
(-2.51273e-10 -3.02529e-06 0)
(-1.99846e-10 -3.01705e-06 0)
(-1.48886e-10 -3.04132e-06 0)
(-9.65493e-11 -2.95007e-06 0)
(-4.76208e-11 -3.19226e-06 0)
(-1.29771e-11 -2.7881e-06 0)
)
;
    }
    bottomWall
    {
        type            calculated;
        value           nonuniform List<vector> 
449
(
(-48.4939 -0.963558 0)
(-19.74 -0.00515004 0)
(-14.3402 -0.00113249 0)
(-12.0385 -0.000542686 0)
(-10.6436 -0.00034698 0)
(-9.66938 -0.000247552 0)
(-8.9493 -0.000181058 0)
(-8.42725 -0.000121156 0)
(-8.11651 -4.57936e-05 0)
(-8.11336 9.1289e-05 0)
(-8.75196 0.000271595 0)
(-9.99747 0.000329687 0)
(-11.0378 0.000242233 0)
(-11.6793 0.000143013 0)
(-12.0338 7.8267e-05 0)
(-12.226 4.07371e-05 0)
(-12.319 1.73168e-05 0)
(-12.3474 1.32247e-06 0)
(-12.3282 -9.08964e-06 0)
(-12.2832 -1.52781e-05 0)
(-12.2201 -1.93645e-05 0)
(-12.1459 -2.16377e-05 0)
(-12.0663 -2.26667e-05 0)
(-11.9845 -2.29558e-05 0)
(-11.9024 -2.28088e-05 0)
(-11.8212 -2.24231e-05 0)
(-11.7415 -2.18857e-05 0)
(-11.6638 -2.1236e-05 0)
(-11.5884 -2.05385e-05 0)
(-11.5154 -1.98263e-05 0)
(-11.4449 -1.91186e-05 0)
(-11.3767 -1.84267e-05 0)
(-11.3108 -1.77579e-05 0)
(-11.2471 -1.71142e-05 0)
(-11.1857 -1.65077e-05 0)
(-11.1262 -1.5939e-05 0)
(-11.0686 -1.53909e-05 0)
(-11.0129 -1.48612e-05 0)
(-10.9589 -1.43574e-05 0)
(-10.9066 -1.38791e-05 0)
(-10.856 -1.34249e-05 0)
(-10.8069 -1.29943e-05 0)
(-10.7592 -1.25876e-05 0)
(-10.7129 -1.2201e-05 0)
(-10.6678 -1.18329e-05 0)
(-10.6241 -1.14825e-05 0)
(-10.5815 -1.11513e-05 0)
(-10.54 -1.08338e-05 0)
(-10.4996 -1.05404e-05 0)
(-10.4602 -1.02826e-05 0)
(-10.4216 -1.00498e-05 0)
(-10.3837 -9.83104e-06 0)
(-10.3466 -9.61883e-06 0)
(-10.3101 -9.40999e-06 0)
(-10.2744 -9.20504e-06 0)
(-10.2394 -9.00225e-06 0)
(-10.2051 -8.80408e-06 0)
(-10.1715 -8.61223e-06 0)
(-10.1385 -8.42481e-06 0)
(-10.1061 -8.24299e-06 0)
(-10.0744 -8.06766e-06 0)
(-10.0433 -7.89914e-06 0)
(-10.0127 -7.7352e-06 0)
(-9.98273 -7.57533e-06 0)
(-9.95328 -7.42029e-06 0)
(-9.92436 -7.27172e-06 0)
(-9.89595 -7.12815e-06 0)
(-9.86803 -6.98906e-06 0)
(-9.84059 -6.85313e-06 0)
(-9.81362 -6.7255e-06 0)
(-9.78706 -6.60358e-06 0)
(-9.76094 -6.48134e-06 0)
(-9.73523 -6.36153e-06 0)
(-9.70995 -6.24608e-06 0)
(-9.68505 -6.13454e-06 0)
(-9.66054 -6.02463e-06 0)
(-9.63642 -5.91793e-06 0)
(-9.61266 -5.81367e-06 0)
(-9.58927 -5.71239e-06 0)
(-9.56622 -5.61413e-06 0)
(-9.54352 -5.51846e-06 0)
(-9.52115 -5.42548e-06 0)
(-9.4991 -5.3352e-06 0)
(-9.47737 -5.24691e-06 0)
(-9.45594 -5.16098e-06 0)
(-9.43481 -5.07781e-06 0)
(-9.41398 -4.99655e-06 0)
(-9.39342 -4.91867e-06 0)
(-9.37313 -4.8423e-06 0)
(-9.35311 -4.76733e-06 0)
(-9.33336 -4.69458e-06 0)
(-9.31385 -4.62283e-06 0)
(-9.29461 -4.55335e-06 0)
(-9.2756 -4.48535e-06 0)
(-9.25683 -4.41818e-06 0)
(-9.2383 -4.35392e-06 0)
(-9.21999 -4.29049e-06 0)
(-9.20191 -4.22838e-06 0)
(-9.18404 -4.16854e-06 0)
(-9.16638 -4.10906e-06 0)
(-9.14894 -4.05403e-06 0)
(-9.13167 -4.00142e-06 0)
(-9.1146 -3.94706e-06 0)
(-9.09772 -3.89391e-06 0)
(-9.08102 -3.84113e-06 0)
(-9.06452 -3.78901e-06 0)
(-9.04819 -3.73926e-06 0)
(-9.03204 -3.68991e-06 0)
(-9.01607 -3.64095e-06 0)
(-9.00028 -3.59432e-06 0)
(-8.98464 -3.54794e-06 0)
(-8.96917 -3.50186e-06 0)
(-8.95387 -3.45809e-06 0)
(-8.93871 -3.41468e-06 0)
(-8.92372 -3.37132e-06 0)
(-8.90888 -3.33003e-06 0)
(-8.89418 -3.28934e-06 0)
(-8.87963 -3.24851e-06 0)
(-8.86523 -3.2093e-06 0)
(-8.85096 -3.17117e-06 0)
(-8.83683 -3.13287e-06 0)
(-8.82284 -3.09556e-06 0)
(-8.80898 -3.05987e-06 0)
(-8.79525 -3.02393e-06 0)
(-8.78165 -2.9883e-06 0)
(-8.76817 -2.95436e-06 0)
(-8.75482 -2.9208e-06 0)
(-8.74159 -2.88719e-06 0)
(-8.72847 -2.85464e-06 0)
(-8.71548 -2.82321e-06 0)
(-8.70259 -2.79164e-06 0)
(-8.68982 -2.76032e-06 0)
(-8.67716 -2.73042e-06 0)
(-8.66461 -2.70097e-06 0)
(-8.65217 -2.67129e-06 0)
(-8.63983 -2.64243e-06 0)
(-8.62759 -2.61482e-06 0)
(-8.61546 -2.587e-06 0)
(-8.60343 -2.55909e-06 0)
(-8.59149 -2.53249e-06 0)
(-8.57965 -2.50666e-06 0)
(-8.56791 -2.48043e-06 0)
(-8.55626 -2.45449e-06 0)
(-8.5447 -2.42976e-06 0)
(-8.53324 -2.40547e-06 0)
(-8.52186 -2.38076e-06 0)
(-8.51057 -2.35738e-06 0)
(-8.49936 -2.33607e-06 0)
(-8.48822 -2.31432e-06 0)
(-8.47717 -2.29141e-06 0)
(-8.4662 -2.26878e-06 0)
(-8.45531 -2.247e-06 0)
(-8.4445 -2.22546e-06 0)
(-8.43377 -2.20376e-06 0)
(-8.42312 -2.18243e-06 0)
(-8.41255 -2.1619e-06 0)
(-8.40205 -2.1417e-06 0)
(-8.39162 -2.12131e-06 0)
(-8.38127 -2.10114e-06 0)
(-8.371 -2.08173e-06 0)
(-8.36079 -2.06282e-06 0)
(-8.35065 -2.04368e-06 0)
(-8.34058 -2.02452e-06 0)
(-8.33059 -2.00614e-06 0)
(-8.32066 -1.9884e-06 0)
(-8.31079 -1.97043e-06 0)
(-8.30099 -1.95234e-06 0)
(-8.29126 -1.93483e-06 0)
(-8.28159 -1.91812e-06 0)
(-8.27198 -1.90122e-06 0)
(-8.26244 -1.88449e-06 0)
(-8.25295 -1.86763e-06 0)
(-8.24353 -1.84931e-06 0)
(-8.23471 -1.83602e-06 0)
(-8.22638 -1.82449e-06 0)
(-8.21804 -1.80847e-06 0)
(-8.20969 -1.79362e-06 0)
(-8.2013 -1.77999e-06 0)
(-8.19289 -1.76626e-06 0)
(-8.18445 -1.75232e-06 0)
(-8.176 -1.73806e-06 0)
(-8.16751 -1.7243e-06 0)
(-8.15901 -1.71084e-06 0)
(-8.15048 -1.69747e-06 0)
(-8.14192 -1.68367e-06 0)
(-8.13334 -1.66973e-06 0)
(-8.12474 -1.65631e-06 0)
(-8.11612 -1.64312e-06 0)
(-8.10747 -1.62988e-06 0)
(-8.0988 -1.61634e-06 0)
(-8.0901 -1.60283e-06 0)
(-8.08139 -1.58975e-06 0)
(-8.07265 -1.57684e-06 0)
(-8.06389 -1.56374e-06 0)
(-8.05511 -1.55048e-06 0)
(-8.04631 -1.53742e-06 0)
(-8.03749 -1.52465e-06 0)
(-8.02865 -1.51204e-06 0)
(-8.01978 -1.49914e-06 0)
(-8.0109 -1.48613e-06 0)
(-8.00199 -1.47351e-06 0)
(-7.99307 -1.46112e-06 0)
(-7.98412 -1.44864e-06 0)
(-7.97516 -1.43601e-06 0)
(-7.96618 -1.42348e-06 0)
(-7.95718 -1.41125e-06 0)
(-7.94815 -1.39919e-06 0)
(-7.93911 -1.38689e-06 0)
(-7.93006 -1.3745e-06 0)
(-7.92098 -1.36247e-06 0)
(-7.91189 -1.35067e-06 0)
(-7.90277 -1.33911e-06 0)
(-7.89364 -1.32808e-06 0)
(-7.88448 -1.31692e-06 0)
(-7.8753 -1.30539e-06 0)
(-7.86611 -1.29378e-06 0)
(-7.85689 -1.28201e-06 0)
(-7.84767 -1.27029e-06 0)
(-7.83842 -1.25891e-06 0)
(-7.82916 -1.24766e-06 0)
(-7.81989 -1.2362e-06 0)
(-7.81059 -1.2247e-06 0)
(-7.80129 -1.21355e-06 0)
(-7.79197 -1.20263e-06 0)
(-7.78263 -1.19148e-06 0)
(-7.77328 -1.18021e-06 0)
(-7.76392 -1.16932e-06 0)
(-7.75454 -1.15867e-06 0)
(-7.74515 -1.14782e-06 0)
(-7.73575 -1.13686e-06 0)
(-7.72633 -1.12621e-06 0)
(-7.7169 -1.11582e-06 0)
(-7.70746 -1.10527e-06 0)
(-7.698 -1.0946e-06 0)
(-7.68854 -1.08422e-06 0)
(-7.67906 -1.0741e-06 0)
(-7.66956 -1.06383e-06 0)
(-7.66006 -1.05344e-06 0)
(-7.65055 -1.04333e-06 0)
(-7.64103 -1.03348e-06 0)
(-7.63149 -1.02348e-06 0)
(-7.62194 -1.01338e-06 0)
(-7.61239 -1.00356e-06 0)
(-7.60282 -9.93965e-07 0)
(-7.59325 -9.84215e-07 0)
(-7.58366 -9.74392e-07 0)
(-7.57407 -9.64869e-07 0)
(-7.56447 -9.55532e-07 0)
(-7.55485 -9.46025e-07 0)
(-7.54524 -9.36494e-07 0)
(-7.53561 -9.27264e-07 0)
(-7.52597 -9.18156e-07 0)
(-7.51633 -9.08903e-07 0)
(-7.50668 -8.99694e-07 0)
(-7.49702 -8.90747e-07 0)
(-7.48736 -8.81855e-07 0)
(-7.47769 -8.72851e-07 0)
(-7.46801 -8.63956e-07 0)
(-7.45833 -8.55284e-07 0)
(-7.44864 -8.46597e-07 0)
(-7.43895 -8.37842e-07 0)
(-7.42925 -8.29259e-07 0)
(-7.41954 -8.20865e-07 0)
(-7.40983 -8.12392e-07 0)
(-7.40012 -8.03889e-07 0)
(-7.39041 -7.95613e-07 0)
(-7.38068 -7.87443e-07 0)
(-7.37096 -7.79187e-07 0)
(-7.36123 -7.7098e-07 0)
(-7.3515 -7.62986e-07 0)
(-7.34177 -7.55013e-07 0)
(-7.33203 -7.47028e-07 0)
(-7.3223 -7.39598e-07 0)
(-7.31255 -7.32401e-07 0)
(-7.30279 -7.24719e-07 0)
(-7.29303 -7.16899e-07 0)
(-7.28327 -7.09283e-07 0)
(-7.27352 -7.01762e-07 0)
(-7.26376 -6.94268e-07 0)
(-7.254 -6.86856e-07 0)
(-7.24423 -6.79534e-07 0)
(-7.23447 -6.72184e-07 0)
(-7.22471 -6.64806e-07 0)
(-7.21496 -6.57573e-07 0)
(-7.2052 -6.50465e-07 0)
(-7.19544 -6.43308e-07 0)
(-7.18569 -6.36187e-07 0)
(-7.17594 -6.29239e-07 0)
(-7.16619 -6.22327e-07 0)
(-7.15644 -6.15378e-07 0)
(-7.1467 -6.0855e-07 0)
(-7.13697 -6.01849e-07 0)
(-7.12723 -5.95114e-07 0)
(-7.1175 -5.88396e-07 0)
(-7.10777 -5.81853e-07 0)
(-7.09805 -5.7534e-07 0)
(-7.08834 -5.68798e-07 0)
(-7.07862 -5.62366e-07 0)
(-7.06892 -5.56064e-07 0)
(-7.05922 -5.4972e-07 0)
(-7.04953 -5.43409e-07 0)
(-7.03984 -5.37262e-07 0)
(-7.03016 -5.31132e-07 0)
(-7.02048 -5.24974e-07 0)
(-7.01082 -5.18952e-07 0)
(-7.00116 -5.13019e-07 0)
(-6.99151 -5.07051e-07 0)
(-6.98186 -5.01139e-07 0)
(-6.97223 -4.95389e-07 0)
(-6.9626 -4.89614e-07 0)
(-6.95298 -4.83835e-07 0)
(-6.94338 -4.78208e-07 0)
(-6.93378 -4.72631e-07 0)
(-6.92419 -4.67023e-07 0)
(-6.91461 -4.61517e-07 0)
(-6.90504 -4.56115e-07 0)
(-6.89548 -4.50689e-07 0)
(-6.88593 -4.45301e-07 0)
(-6.8764 -4.40061e-07 0)
(-6.86687 -4.34816e-07 0)
(-6.85735 -4.29572e-07 0)
(-6.84785 -4.24459e-07 0)
(-6.83836 -4.19393e-07 0)
(-6.82888 -4.14311e-07 0)
(-6.81942 -4.09321e-07 0)
(-6.80996 -4.04421e-07 0)
(-6.80052 -3.99508e-07 0)
(-6.79109 -3.94639e-07 0)
(-6.78168 -3.89895e-07 0)
(-6.77227 -3.85383e-07 0)
(-6.76287 -3.80912e-07 0)
(-6.75348 -3.76324e-07 0)
(-6.74411 -3.71751e-07 0)
(-6.73475 -3.67189e-07 0)
(-6.7254 -3.62717e-07 0)
(-6.71607 -3.58281e-07 0)
(-6.70675 -3.53833e-07 0)
(-6.69745 -3.49444e-07 0)
(-6.68816 -3.45149e-07 0)
(-6.67889 -3.40847e-07 0)
(-6.66964 -3.36581e-07 0)
(-6.66039 -3.32417e-07 0)
(-6.65117 -3.28268e-07 0)
(-6.64196 -3.24129e-07 0)
(-6.63277 -3.20088e-07 0)
(-6.6236 -3.16077e-07 0)
(-6.61444 -3.12079e-07 0)
(-6.6053 -3.08148e-07 0)
(-6.59618 -3.0428e-07 0)
(-6.58707 -3.00394e-07 0)
(-6.57799 -2.96604e-07 0)
(-6.56891 -2.92772e-07 0)
(-6.55987 -2.89105e-07 0)
(-6.55082 -2.85564e-07 0)
(-6.5408 -2.81296e-07 0)
(-6.52988 -2.76744e-07 0)
(-6.51915 -2.72628e-07 0)
(-6.50856 -2.68599e-07 0)
(-6.49814 -2.64578e-07 0)
(-6.48786 -2.60697e-07 0)
(-6.47775 -2.56888e-07 0)
(-6.46777 -2.53163e-07 0)
(-6.45795 -2.49551e-07 0)
(-6.44825 -2.46005e-07 0)
(-6.43871 -2.42535e-07 0)
(-6.42928 -2.39174e-07 0)
(-6.42 -2.35872e-07 0)
(-6.41083 -2.32634e-07 0)
(-6.4018 -2.29506e-07 0)
(-6.39288 -2.26431e-07 0)
(-6.38409 -2.23414e-07 0)
(-6.37541 -2.20496e-07 0)
(-6.36685 -2.17631e-07 0)
(-6.35839 -2.14812e-07 0)
(-6.35004 -2.1208e-07 0)
(-6.3418 -2.09407e-07 0)
(-6.33367 -2.0678e-07 0)
(-6.32563 -2.04227e-07 0)
(-6.31769 -2.01743e-07 0)
(-6.30985 -1.99282e-07 0)
(-6.30211 -1.96864e-07 0)
(-6.29445 -1.94516e-07 0)
(-6.28689 -1.9221e-07 0)
(-6.27942 -1.89931e-07 0)
(-6.27204 -1.87717e-07 0)
(-6.26473 -1.85568e-07 0)
(-6.25753 -1.83505e-07 0)
(-6.25038 -1.81486e-07 0)
(-6.24333 -1.79484e-07 0)
(-6.23635 -1.77499e-07 0)
(-6.22945 -1.75535e-07 0)
(-6.22262 -1.73605e-07 0)
(-6.21587 -1.71731e-07 0)
(-6.20919 -1.69875e-07 0)
(-6.20259 -1.68048e-07 0)
(-6.19604 -1.66258e-07 0)
(-6.18958 -1.64525e-07 0)
(-6.18318 -1.628e-07 0)
(-6.17685 -1.61107e-07 0)
(-6.17058 -1.59445e-07 0)
(-6.16438 -1.57839e-07 0)
(-6.15823 -1.56235e-07 0)
(-6.15216 -1.54667e-07 0)
(-6.14613 -1.53117e-07 0)
(-6.14019 -1.51626e-07 0)
(-6.13428 -1.5013e-07 0)
(-6.12845 -1.48675e-07 0)
(-6.12265 -1.47219e-07 0)
(-6.11693 -1.45833e-07 0)
(-6.11124 -1.44435e-07 0)
(-6.10564 -1.4309e-07 0)
(-6.10005 -1.41717e-07 0)
(-6.09455 -1.4043e-07 0)
(-6.08907 -1.39123e-07 0)
(-6.08367 -1.37883e-07 0)
(-6.07829 -1.36588e-07 0)
(-6.07299 -1.35399e-07 0)
(-6.0677 -1.34164e-07 0)
(-6.0625 -1.33033e-07 0)
(-6.05729 -1.31818e-07 0)
(-6.05219 -1.30717e-07 0)
(-6.04707 -1.29539e-07 0)
(-6.04206 -1.28504e-07 0)
(-6.03702 -1.27358e-07 0)
(-6.0321 -1.26356e-07 0)
(-6.02714 -1.25228e-07 0)
(-6.0223 -1.24284e-07 0)
(-6.01742 -1.232e-07 0)
(-6.01267 -1.22303e-07 0)
(-6.00785 -1.21229e-07 0)
(-6.00319 -1.20373e-07 0)
(-5.99844 -1.19336e-07 0)
(-5.99385 -1.18548e-07 0)
(-5.98917 -1.17541e-07 0)
(-5.98466 -1.16795e-07 0)
(-5.98003 -1.15831e-07 0)
(-5.9756 -1.15137e-07 0)
(-5.97103 -1.14298e-07 0)
(-5.96666 -1.13554e-07 0)
(-5.96215 -1.13111e-07 0)
(-5.95782 -1.11751e-07 0)
(-5.95341 -1.12978e-07 0)
(-5.94898 -1.08627e-07 0)
(-5.94493 -1.16455e-07 0)
(-5.93985 -9.96888e-08 0)
(-5.93717 -1.29416e-07 0)
(-5.92965 -7.84414e-08 0)
(-5.93119 -1.07996e-07 0)
(-5.92093 -1.3621e-07 0)
)
;
    }
    symmetry
    {
        type            symmetryPlane;
    }
    frontAndBack
    {
        type            empty;
    }
}


// ************************************************************************* //
