/*--------------------------------*- C++ -*----------------------------------*\
| =========                 |                                                 |
| \\      /  F ield         | OpenFOAM: The Open Source CFD Toolbox           |
|  \\    /   O peration     | Version:  v2012                                 |
|   \\  /    A nd           | Website:  www.openfoam.com                      |
|    \\/     M anipulation  |                                                 |
\*---------------------------------------------------------------------------*/
FoamFile
{
    version     2.0;
    format      ascii;
    class       volScalarField;
    location    "47.5";
    object      epsilon;
}
// * * * * * * * * * * * * * * * * * * * * * * * * * * * * * * * * * * * * * //

dimensions      [0 2 -3 0 0 0 0];


internalField   nonuniform List<scalar> 
209825
(
0.759041
0.633738
0.545698
0.484885
0.442302
0.411697
0.388988
0.371697
0.358162
0.347385
0.338601
0.331374
0.325298
0.320177
0.315763
0.311978
0.308648
0.305757
0.303168
0.300901
0.298839
0.297022
0.295346
0.293864
0.292481
0.291256
0.290098
0.289073
0.288095
0.287231
0.286394
0.285659
0.28494
0.284314
0.283691
0.283152
0.282613
0.28215
0.281677
0.281277
0.280862
0.280515
0.280153
0.279856
0.279536
0.279275
0.278997
0.278773
0.278524
0.278326
0.278121
0.27794
0.277758
0.277597
0.277449
0.277324
0.277169
0.277069
0.276946
0.276841
0.276763
0.276677
0.276613
0.27654
0.276497
0.276433
0.276407
0.276391
0.276358
0.276348
0.276325
0.276341
0.27634
0.276383
0.276383
0.276448
0.276456
0.276532
0.276553
0.276637
0.276671
0.276769
0.276817
0.276936
0.276998
0.277143
0.277221
0.277398
0.277491
0.277716
0.277817
0.278148
0.278267
0.281607
3.12728
566.739
0.759041
0.633738
0.545697
0.484882
0.442297
0.411689
0.388978
0.371686
0.35815
0.347372
0.338587
0.331359
0.325283
0.320162
0.315747
0.311962
0.308631
0.30574
0.303151
0.300883
0.298822
0.297005
0.295328
0.293846
0.292463
0.291238
0.29008
0.289055
0.288076
0.287213
0.286375
0.285641
0.284921
0.284295
0.283672
0.283134
0.282594
0.282131
0.281658
0.281258
0.280843
0.280496
0.280134
0.279837
0.279517
0.279255
0.278978
0.278754
0.278505
0.278307
0.278101
0.277921
0.277739
0.277577
0.277429
0.277305
0.27715
0.277049
0.276926
0.276821
0.276743
0.276657
0.276593
0.276521
0.276477
0.276413
0.276387
0.276371
0.276338
0.276329
0.276305
0.276321
0.27632
0.276363
0.276363
0.276428
0.276436
0.276512
0.276533
0.276617
0.276651
0.276749
0.276797
0.276915
0.276978
0.277122
0.2772
0.277377
0.277471
0.277696
0.277797
0.278128
0.278247
0.281592
3.13304
563.438
0.759043
0.633738
0.54569
0.484864
0.44227
0.411654
0.388936
0.371639
0.358099
0.347317
0.338529
0.331298
0.32522
0.320097
0.315681
0.311894
0.308562
0.30567
0.30308
0.300811
0.298749
0.296931
0.295254
0.293772
0.292388
0.291163
0.290004
0.288979
0.287999
0.287136
0.286298
0.285563
0.284843
0.284217
0.283593
0.283055
0.282515
0.282052
0.281579
0.281179
0.280763
0.280416
0.280054
0.279757
0.279436
0.279175
0.278897
0.278673
0.278424
0.278226
0.27802
0.27784
0.277657
0.277496
0.277348
0.277223
0.277068
0.276967
0.276844
0.276739
0.276661
0.276575
0.276511
0.276438
0.276395
0.27633
0.276304
0.276288
0.276255
0.276246
0.276222
0.276238
0.276237
0.27628
0.27628
0.276344
0.276352
0.276428
0.276449
0.276533
0.276567
0.276665
0.276713
0.276831
0.276893
0.277038
0.277116
0.277292
0.277386
0.277611
0.277712
0.278043
0.278161
0.281516
3.14575
559.636
0.759045
0.633738
0.545677
0.484835
0.442224
0.411595
0.388866
0.371559
0.358011
0.347223
0.33843
0.331195
0.325113
0.319987
0.315568
0.311779
0.308446
0.305551
0.30296
0.30069
0.298626
0.296807
0.295129
0.293646
0.292261
0.291035
0.289876
0.28885
0.28787
0.287006
0.286167
0.285432
0.284711
0.284085
0.283461
0.282922
0.282382
0.281918
0.281445
0.281044
0.280628
0.280281
0.279919
0.279621
0.2793
0.279039
0.278761
0.278536
0.278287
0.278089
0.277883
0.277702
0.27752
0.277358
0.27721
0.277085
0.27693
0.276829
0.276706
0.2766
0.276522
0.276436
0.276372
0.276299
0.276255
0.276191
0.276165
0.276149
0.276115
0.276106
0.276081
0.276098
0.276096
0.276139
0.276139
0.276203
0.27621
0.276286
0.276307
0.276391
0.276425
0.276523
0.27657
0.276688
0.27675
0.276895
0.276972
0.277149
0.277242
0.277467
0.277567
0.277898
0.278016
0.281387
3.16577
556.098
0.759049
0.633738
0.545659
0.484793
0.442159
0.411511
0.388765
0.371446
0.357888
0.347091
0.338291
0.33105
0.324962
0.319832
0.315409
0.311617
0.308281
0.305384
0.302791
0.300518
0.298453
0.296632
0.294953
0.293468
0.292082
0.290855
0.289694
0.288667
0.287687
0.286822
0.285982
0.285246
0.284525
0.283898
0.283273
0.282734
0.282193
0.281729
0.281255
0.280854
0.280438
0.28009
0.279728
0.27943
0.279108
0.278846
0.278568
0.278344
0.278094
0.277895
0.277689
0.277508
0.277325
0.277163
0.277015
0.27689
0.276734
0.276633
0.27651
0.276405
0.276326
0.27624
0.276175
0.276102
0.276058
0.275994
0.275967
0.275951
0.275918
0.275908
0.275883
0.275899
0.275897
0.27594
0.27594
0.276003
0.276011
0.276086
0.276107
0.276191
0.276224
0.276322
0.276369
0.276487
0.276549
0.276692
0.27677
0.276946
0.277039
0.277263
0.277364
0.277694
0.277812
0.281205
3.19359
553.172
0.759054
0.633738
0.545635
0.484738
0.442076
0.411402
0.388636
0.371299
0.357727
0.34692
0.33811
0.330861
0.324767
0.319631
0.315204
0.311407
0.308067
0.305167
0.302571
0.300296
0.298228
0.296405
0.294724
0.293237
0.29185
0.290621
0.289459
0.288431
0.287449
0.286583
0.285743
0.285006
0.284284
0.283656
0.28303
0.28249
0.281949
0.281484
0.28101
0.280608
0.280191
0.279843
0.27948
0.279181
0.27886
0.278597
0.278318
0.278093
0.277843
0.277644
0.277438
0.277257
0.277074
0.276911
0.276762
0.276637
0.276481
0.27638
0.276257
0.276151
0.276072
0.275985
0.27592
0.275847
0.275803
0.275738
0.275711
0.275695
0.275661
0.275651
0.275626
0.275642
0.27564
0.275681
0.275681
0.275745
0.275752
0.275827
0.275847
0.275931
0.275964
0.276061
0.276108
0.276226
0.276287
0.27643
0.276508
0.276683
0.276776
0.276999
0.277099
0.277429
0.277546
0.280967
3.22971
551.023
0.75906
0.633738
0.545606
0.484672
0.441973
0.411268
0.388476
0.371119
0.35753
0.346708
0.337887
0.330629
0.324526
0.319384
0.31495
0.311148
0.307803
0.304899
0.302299
0.300021
0.29795
0.296125
0.294442
0.292953
0.291563
0.290333
0.28917
0.28814
0.287156
0.286289
0.285448
0.284709
0.283986
0.283357
0.282731
0.28219
0.281648
0.281182
0.280707
0.280305
0.279887
0.279538
0.279174
0.278875
0.278553
0.27829
0.278011
0.277785
0.277535
0.277335
0.277128
0.276947
0.276763
0.2766
0.276451
0.276326
0.276169
0.276068
0.275944
0.275838
0.275758
0.275672
0.275606
0.275533
0.275488
0.275423
0.275396
0.27538
0.275346
0.275335
0.275309
0.275324
0.275322
0.275363
0.275363
0.275426
0.275433
0.275507
0.275527
0.275611
0.275643
0.27574
0.275787
0.275904
0.275965
0.276107
0.276184
0.276359
0.276451
0.276674
0.276774
0.277103
0.277219
0.280675
3.27462
549.714
0.759067
0.633739
0.545572
0.484593
0.44185
0.411108
0.388286
0.370904
0.357295
0.346457
0.337622
0.330352
0.32424
0.319089
0.314648
0.31084
0.30749
0.304581
0.301976
0.299695
0.29762
0.295792
0.294106
0.292614
0.291222
0.28999
0.288824
0.287793
0.286808
0.285939
0.285096
0.284356
0.283632
0.283002
0.282374
0.281832
0.281289
0.280823
0.280346
0.279943
0.279524
0.279175
0.27881
0.27851
0.278188
0.277924
0.277644
0.277418
0.277167
0.276967
0.27676
0.276577
0.276393
0.27623
0.27608
0.275954
0.275798
0.275695
0.275572
0.275465
0.275385
0.275298
0.275232
0.275159
0.275113
0.275048
0.27502
0.275004
0.274969
0.274958
0.274932
0.274946
0.274944
0.274984
0.274984
0.275046
0.275052
0.275127
0.275146
0.275229
0.275261
0.275357
0.275404
0.27552
0.275581
0.275723
0.275799
0.275973
0.276065
0.276287
0.276386
0.276714
0.27683
0.280328
3.32881
549.239
0.759075
0.633739
0.545533
0.484501
0.441708
0.410923
0.388065
0.370655
0.357022
0.346164
0.337313
0.33003
0.323907
0.318746
0.314296
0.310481
0.307125
0.30421
0.301601
0.299314
0.297236
0.295404
0.293715
0.29222
0.290826
0.28959
0.288423
0.287389
0.286402
0.285531
0.284687
0.283946
0.283219
0.282588
0.281959
0.281416
0.280871
0.280404
0.279926
0.279522
0.279103
0.278752
0.278387
0.278086
0.277763
0.277498
0.277217
0.276991
0.276739
0.276538
0.27633
0.276148
0.275963
0.2758
0.275649
0.275523
0.275366
0.275263
0.275138
0.275031
0.274951
0.274863
0.274797
0.274723
0.274677
0.274612
0.274583
0.274566
0.274531
0.27452
0.274493
0.274507
0.274504
0.274543
0.274543
0.274604
0.27461
0.274684
0.274703
0.274785
0.274816
0.274912
0.274958
0.275074
0.275134
0.275275
0.275351
0.275524
0.275615
0.275836
0.275934
0.276261
0.276377
0.279925
3.39275
549.537
0.759084
0.63374
0.545488
0.484397
0.441546
0.410712
0.387814
0.37037
0.35671
0.345831
0.336961
0.329663
0.323526
0.318354
0.313895
0.310072
0.306708
0.303787
0.301172
0.298881
0.296798
0.294962
0.293268
0.29177
0.290373
0.289135
0.287965
0.286928
0.285939
0.285066
0.284219
0.283477
0.282749
0.282116
0.281485
0.28094
0.280395
0.279926
0.279447
0.279042
0.278622
0.27827
0.277903
0.277602
0.277277
0.277012
0.27673
0.276503
0.276251
0.276049
0.27584
0.275657
0.275472
0.275308
0.275156
0.27503
0.274872
0.274768
0.274644
0.274536
0.274455
0.274367
0.2743
0.274226
0.274179
0.274114
0.274084
0.274067
0.274031
0.27402
0.273992
0.274005
0.274001
0.274039
0.274039
0.274099
0.274105
0.274178
0.274196
0.274278
0.274309
0.274404
0.274449
0.274564
0.274624
0.274764
0.274839
0.275011
0.275102
0.275322
0.275419
0.275745
0.27586
0.279465
3.46687
550.517
0.759094
0.633741
0.545438
0.48428
0.441365
0.410475
0.387531
0.37005
0.35636
0.345456
0.336566
0.329249
0.323098
0.317914
0.313444
0.309611
0.306239
0.303311
0.300689
0.298392
0.296304
0.294463
0.292766
0.291264
0.289863
0.288621
0.287448
0.286409
0.285417
0.284542
0.283693
0.282948
0.282219
0.281584
0.280952
0.280405
0.279858
0.279388
0.278908
0.278501
0.278079
0.277727
0.277359
0.277056
0.276731
0.276465
0.276182
0.275954
0.2757
0.275498
0.275289
0.275105
0.274918
0.274754
0.274601
0.274474
0.274316
0.274212
0.274087
0.273978
0.273896
0.273808
0.27374
0.273666
0.273618
0.273553
0.273522
0.273504
0.273468
0.273456
0.273427
0.273439
0.273435
0.273472
0.273472
0.273531
0.273536
0.273608
0.273626
0.273707
0.273737
0.273832
0.273876
0.27399
0.274049
0.274188
0.274263
0.274434
0.274524
0.274742
0.274839
0.275163
0.275277
0.278949
3.55158
552.063
0.759106
0.633742
0.545383
0.484151
0.441164
0.410212
0.387217
0.369695
0.355971
0.345038
0.336125
0.32879
0.322622
0.317424
0.312942
0.309098
0.305717
0.30278
0.300152
0.297848
0.295754
0.293908
0.292206
0.2907
0.289295
0.28805
0.286874
0.285832
0.284837
0.283959
0.283108
0.28236
0.281628
0.280992
0.280357
0.279809
0.27926
0.278789
0.278307
0.277899
0.277476
0.277122
0.276753
0.276449
0.276122
0.275855
0.275571
0.275342
0.275088
0.274885
0.274674
0.27449
0.274302
0.274137
0.273984
0.273856
0.273697
0.273592
0.273466
0.273357
0.273274
0.273186
0.273117
0.273042
0.272994
0.272928
0.272896
0.272878
0.272841
0.272829
0.272799
0.27281
0.272805
0.27284
0.27284
0.272898
0.272903
0.272974
0.272991
0.273072
0.273101
0.273194
0.273238
0.273351
0.27341
0.273547
0.273621
0.273791
0.27388
0.274097
0.274192
0.274516
0.274629
0.278375
3.64723
554.038
0.759118
0.633743
0.545323
0.484009
0.440943
0.409923
0.386872
0.369303
0.355542
0.344579
0.33564
0.328283
0.322097
0.316883
0.312388
0.308533
0.305141
0.302196
0.299559
0.297248
0.295148
0.293296
0.291589
0.290078
0.288669
0.28742
0.28624
0.285194
0.284196
0.283316
0.282462
0.281712
0.280977
0.280338
0.279702
0.279152
0.278601
0.278128
0.277644
0.277235
0.27681
0.276455
0.276084
0.275779
0.275451
0.275183
0.274898
0.274668
0.274412
0.274208
0.273996
0.273811
0.273623
0.273457
0.273302
0.273174
0.273014
0.272908
0.272782
0.272672
0.272588
0.272499
0.27243
0.272354
0.272305
0.272239
0.272206
0.272187
0.27215
0.272137
0.272106
0.272116
0.27211
0.272144
0.272143
0.2722
0.272204
0.272275
0.272291
0.27237
0.272399
0.272492
0.272535
0.272646
0.272704
0.27284
0.272914
0.273082
0.27317
0.273385
0.27348
0.273802
0.273914
0.277744
3.75409
556.304
0.759132
0.633745
0.545259
0.483855
0.440702
0.409607
0.386495
0.368876
0.355073
0.344076
0.335109
0.327729
0.321523
0.316292
0.311782
0.307914
0.304512
0.301556
0.298911
0.296592
0.294485
0.292627
0.290914
0.289398
0.287983
0.28673
0.285546
0.284497
0.283496
0.282612
0.281755
0.281002
0.280265
0.279624
0.278985
0.278433
0.277879
0.277404
0.276919
0.276508
0.276082
0.275725
0.275352
0.275046
0.274717
0.274447
0.274161
0.273929
0.273673
0.273467
0.273255
0.273068
0.272879
0.272712
0.272556
0.272428
0.272267
0.27216
0.272033
0.271923
0.271838
0.271748
0.271678
0.271601
0.271551
0.271485
0.27145
0.271431
0.271393
0.271379
0.271347
0.271356
0.271349
0.271381
0.271381
0.271436
0.27144
0.271509
0.271525
0.271603
0.271631
0.271722
0.271764
0.271875
0.271932
0.272067
0.272139
0.272306
0.272393
0.272607
0.2727
0.273021
0.273132
0.277054
3.87235
558.72
0.759146
0.633747
0.545189
0.483689
0.440442
0.409266
0.386086
0.368412
0.354565
0.343531
0.334533
0.327127
0.3209
0.31565
0.311124
0.307242
0.303827
0.300861
0.298206
0.295879
0.293764
0.291899
0.29018
0.288658
0.287239
0.285981
0.284792
0.283739
0.282734
0.281846
0.280986
0.280231
0.279491
0.278847
0.278205
0.277651
0.277095
0.276618
0.276131
0.275718
0.275289
0.274931
0.274557
0.274249
0.273918
0.273647
0.273359
0.273127
0.272869
0.272662
0.272448
0.272261
0.272071
0.271903
0.271746
0.271616
0.271455
0.271347
0.271219
0.271108
0.271021
0.270931
0.27086
0.270783
0.270732
0.270665
0.270629
0.270609
0.27057
0.270556
0.270523
0.27053
0.270523
0.270553
0.270552
0.270606
0.270608
0.270677
0.270691
0.270769
0.270795
0.270886
0.270927
0.271036
0.271092
0.271226
0.271297
0.271462
0.271548
0.27176
0.271852
0.272171
0.272281
0.276305
4.00208
561.148
0.759162
0.63375
0.545114
0.48351
0.440162
0.408898
0.385645
0.367912
0.354016
0.342942
0.333911
0.326477
0.320226
0.314956
0.310413
0.306516
0.303088
0.30011
0.297445
0.295109
0.292985
0.291113
0.289387
0.287859
0.286434
0.285171
0.283977
0.28292
0.28191
0.281019
0.280155
0.279397
0.278654
0.278007
0.277363
0.276806
0.276247
0.275768
0.275278
0.274864
0.274433
0.274073
0.273697
0.273388
0.273055
0.272782
0.272493
0.272259
0.272
0.271792
0.271577
0.271388
0.271197
0.271028
0.270869
0.270739
0.270577
0.270468
0.270339
0.270227
0.270139
0.270048
0.269975
0.269898
0.269846
0.269778
0.269741
0.26972
0.269681
0.269666
0.269632
0.269638
0.269629
0.269657
0.269656
0.269708
0.26971
0.269777
0.269791
0.269867
0.269892
0.269982
0.270022
0.27013
0.270185
0.270317
0.270387
0.27055
0.270635
0.270845
0.270936
0.271253
0.271362
0.275496
4.14322
563.46
0.759179
0.633753
0.545035
0.48332
0.439863
0.408504
0.385173
0.367375
0.353427
0.34231
0.333243
0.325779
0.319502
0.314211
0.309649
0.305735
0.302293
0.299303
0.296626
0.29428
0.292148
0.290267
0.288534
0.286999
0.285568
0.284299
0.283101
0.282039
0.281025
0.28013
0.279262
0.2785
0.277753
0.277103
0.276456
0.275896
0.275336
0.274854
0.274362
0.273945
0.273512
0.27315
0.272772
0.272461
0.272126
0.271852
0.271561
0.271326
0.271065
0.270856
0.270639
0.27045
0.270257
0.270087
0.269927
0.269795
0.269632
0.269522
0.269392
0.269279
0.26919
0.269098
0.269024
0.268946
0.268893
0.268825
0.268786
0.268764
0.268724
0.268708
0.268673
0.268677
0.268667
0.268694
0.268692
0.268742
0.268744
0.268809
0.268822
0.268897
0.268921
0.269009
0.269049
0.269155
0.269209
0.269339
0.269408
0.269569
0.269653
0.269861
0.26995
0.270265
0.270374
0.274628
4.29555
565.539
0.759196
0.633757
0.544952
0.483117
0.439544
0.408083
0.384668
0.366802
0.352798
0.341634
0.332529
0.325032
0.318728
0.313413
0.308831
0.3049
0.301442
0.298438
0.29575
0.293393
0.291251
0.289362
0.287621
0.286079
0.284641
0.283367
0.282163
0.281095
0.280077
0.279177
0.278305
0.277539
0.276789
0.276136
0.275486
0.274923
0.274359
0.273875
0.27338
0.272961
0.272526
0.272162
0.271782
0.271469
0.271132
0.270857
0.270563
0.270327
0.270064
0.269853
0.269635
0.269444
0.26925
0.269079
0.268917
0.268785
0.26862
0.268509
0.268378
0.268264
0.268174
0.268081
0.268006
0.267927
0.267872
0.267804
0.267763
0.267741
0.267699
0.267683
0.267647
0.267649
0.267638
0.267662
0.26766
0.267708
0.267709
0.267773
0.267784
0.267858
0.267881
0.267968
0.268006
0.268111
0.268164
0.268292
0.26836
0.268519
0.268602
0.268807
0.268895
0.269208
0.269316
0.273698
4.45865
567.278
0.759215
0.633762
0.544864
0.482903
0.439206
0.407637
0.384132
0.366192
0.352128
0.340914
0.331768
0.324236
0.317903
0.312563
0.307959
0.304009
0.300535
0.297517
0.294816
0.292447
0.290295
0.288397
0.286647
0.285098
0.283653
0.282372
0.281162
0.280089
0.279066
0.278161
0.277285
0.276515
0.275761
0.275104
0.274451
0.273885
0.273318
0.272831
0.272334
0.271912
0.271474
0.271108
0.270726
0.27041
0.270072
0.269794
0.269499
0.269261
0.268997
0.268784
0.268564
0.268372
0.268176
0.268004
0.26784
0.267707
0.267542
0.267429
0.267297
0.267182
0.26709
0.266996
0.26692
0.26684
0.266784
0.266715
0.266672
0.266649
0.266606
0.266589
0.266552
0.266553
0.26654
0.266562
0.26656
0.266605
0.266606
0.266668
0.266678
0.266751
0.266772
0.266858
0.266894
0.266997
0.267049
0.267175
0.267242
0.267399
0.26748
0.267683
0.267769
0.26808
0.268187
0.272707
4.63191
568.585
0.759234
0.633767
0.544772
0.482678
0.438849
0.407165
0.383565
0.365546
0.351417
0.34015
0.33096
0.323392
0.317027
0.31166
0.307033
0.303064
0.299572
0.296538
0.293823
0.291442
0.289279
0.287371
0.285612
0.284055
0.282603
0.281315
0.280099
0.27902
0.277991
0.277082
0.276201
0.275427
0.274669
0.274008
0.273351
0.272781
0.272211
0.271721
0.271221
0.270797
0.270357
0.269988
0.269603
0.269285
0.268945
0.268665
0.268368
0.268128
0.267862
0.267648
0.267426
0.267233
0.267035
0.266862
0.266696
0.266562
0.266395
0.266281
0.266148
0.266031
0.265938
0.265843
0.265765
0.265685
0.265627
0.265557
0.265512
0.265489
0.265445
0.265427
0.265389
0.265388
0.265373
0.265393
0.26539
0.265433
0.265433
0.265493
0.265502
0.265573
0.265594
0.265677
0.265713
0.265814
0.265864
0.265988
0.266054
0.266208
0.266288
0.266489
0.266573
0.266882
0.266988
0.271654
4.81445
569.381
0.759255
0.633773
0.544676
0.482442
0.438473
0.406667
0.382965
0.364864
0.350666
0.339343
0.330106
0.322498
0.3161
0.310705
0.306053
0.302062
0.298552
0.295502
0.292772
0.290378
0.288204
0.286285
0.284516
0.282951
0.28149
0.280195
0.278972
0.277888
0.276853
0.275938
0.275053
0.274274
0.273511
0.272846
0.272185
0.271613
0.271039
0.270546
0.270042
0.269615
0.269172
0.268801
0.268414
0.268094
0.267751
0.267469
0.26717
0.266928
0.26666
0.266444
0.26622
0.266025
0.265826
0.265652
0.265484
0.265348
0.26518
0.265064
0.26493
0.264813
0.264717
0.264622
0.264542
0.26446
0.264401
0.26433
0.264284
0.264259
0.264214
0.264195
0.264156
0.264153
0.264137
0.264155
0.26415
0.26419
0.26419
0.264248
0.264256
0.264326
0.264345
0.264427
0.264461
0.26456
0.264609
0.264731
0.264795
0.264947
0.265025
0.265223
0.265305
0.265612
0.265718
0.270537
5.00512
569.599
0.759276
0.633779
0.544577
0.482194
0.438079
0.406144
0.382335
0.364145
0.349875
0.338492
0.329205
0.321555
0.315122
0.309696
0.305019
0.301005
0.297475
0.294407
0.291662
0.289255
0.287068
0.285138
0.283359
0.281784
0.280315
0.279013
0.277783
0.276692
0.275651
0.274731
0.273839
0.273056
0.272289
0.27162
0.270955
0.270378
0.269801
0.269304
0.268797
0.268367
0.267922
0.267547
0.267157
0.266835
0.26649
0.266206
0.265904
0.26566
0.26539
0.265172
0.264946
0.26475
0.264549
0.264373
0.264203
0.264066
0.263897
0.263779
0.263644
0.263525
0.263428
0.263331
0.26325
0.263167
0.263106
0.263035
0.262986
0.26296
0.262914
0.262894
0.262854
0.262849
0.262831
0.262847
0.262841
0.262878
0.262878
0.262934
0.26294
0.263008
0.263025
0.263106
0.263138
0.263235
0.263283
0.263402
0.263465
0.263614
0.263691
0.263886
0.263967
0.264271
0.264376
0.269356
5.20247
569.185
0.759298
0.633787
0.544473
0.481936
0.437666
0.405596
0.381673
0.36339
0.349044
0.337597
0.328258
0.320564
0.314093
0.308635
0.30393
0.299892
0.296342
0.293255
0.290494
0.288071
0.285871
0.283929
0.28214
0.280556
0.279078
0.277767
0.276529
0.275432
0.274384
0.273458
0.272562
0.271773
0.271001
0.270327
0.269658
0.269077
0.268496
0.267996
0.267486
0.267053
0.266604
0.266227
0.265834
0.265509
0.265161
0.264875
0.26457
0.264324
0.264052
0.263832
0.263604
0.263406
0.263203
0.263026
0.262853
0.262715
0.262544
0.262425
0.262289
0.262168
0.262069
0.261971
0.261888
0.261805
0.261741
0.26167
0.261619
0.261592
0.261544
0.261523
0.261482
0.261475
0.261455
0.261469
0.261462
0.261496
0.261495
0.261548
0.261553
0.261619
0.261635
0.261714
0.261745
0.26184
0.261886
0.262003
0.262064
0.262211
0.262286
0.262478
0.262556
0.262858
0.262963
0.268109
5.40472
568.086
0.759321
0.633796
0.544367
0.481668
0.437236
0.405023
0.380981
0.362599
0.348172
0.336659
0.327264
0.319523
0.313013
0.307521
0.302787
0.298724
0.295151
0.292045
0.289266
0.286829
0.284615
0.28266
0.28086
0.279265
0.277778
0.276458
0.275213
0.274108
0.273053
0.272121
0.271219
0.270425
0.269647
0.268969
0.268295
0.26771
0.267125
0.266621
0.266108
0.265671
0.265219
0.264839
0.264443
0.264115
0.263764
0.263476
0.263169
0.26292
0.262646
0.262424
0.262194
0.261994
0.261789
0.26161
0.261435
0.261296
0.261123
0.261002
0.260864
0.260742
0.260641
0.260542
0.260457
0.260373
0.260307
0.260235
0.260182
0.260154
0.260104
0.260082
0.260039
0.260032
0.260009
0.26002
0.260012
0.260043
0.260042
0.260092
0.260096
0.26016
0.260174
0.260251
0.26028
0.260373
0.260418
0.260532
0.260592
0.260736
0.260809
0.260998
0.261074
0.261374
0.261478
0.266796
5.60975
566.254
0.759345
0.633805
0.544258
0.481391
0.436789
0.404426
0.380259
0.361773
0.347261
0.335677
0.326224
0.318434
0.311882
0.306354
0.30159
0.2975
0.293903
0.290777
0.28798
0.285526
0.283297
0.28133
0.279518
0.277912
0.276415
0.275086
0.273833
0.27272
0.271658
0.27072
0.269811
0.269011
0.268228
0.267545
0.266866
0.266277
0.265688
0.26518
0.264662
0.264222
0.263767
0.263383
0.262984
0.262654
0.2623
0.262009
0.261699
0.261448
0.261172
0.260948
0.260715
0.260513
0.260306
0.260126
0.259948
0.259807
0.259633
0.25951
0.25937
0.259247
0.259144
0.259044
0.258957
0.258871
0.258804
0.258731
0.258675
0.258645
0.258594
0.258572
0.258527
0.258518
0.258493
0.258502
0.258492
0.25852
0.258518
0.258566
0.258568
0.25863
0.258643
0.258717
0.258745
0.258835
0.258878
0.25899
0.259048
0.259189
0.25926
0.259446
0.25952
0.259817
0.259921
0.265415
5.81506
563.651
0.75937
0.633816
0.544146
0.481103
0.436325
0.403805
0.379506
0.360912
0.346311
0.334653
0.325138
0.317296
0.3107
0.305135
0.300338
0.29622
0.292599
0.289451
0.286635
0.284164
0.28192
0.279938
0.278114
0.276496
0.274989
0.273651
0.272389
0.271268
0.270199
0.269253
0.268338
0.267532
0.266744
0.266055
0.265372
0.264778
0.264184
0.263672
0.26315
0.262707
0.262247
0.261861
0.261458
0.261125
0.260768
0.260474
0.260162
0.259908
0.259629
0.259403
0.259167
0.258964
0.258754
0.258572
0.258392
0.25825
0.258074
0.257949
0.257808
0.257683
0.257577
0.257476
0.257387
0.2573
0.25723
0.257156
0.257098
0.257067
0.257015
0.256991
0.256945
0.256934
0.256907
0.256913
0.256902
0.256927
0.256924
0.256968
0.25697
0.257029
0.25704
0.257112
0.257138
0.257226
0.257267
0.257376
0.257433
0.25757
0.25764
0.257822
0.257894
0.258188
0.258293
0.263965
6.01778
560.235
0.759395
0.633828
0.544031
0.480807
0.435844
0.403161
0.378725
0.360016
0.345321
0.333586
0.324006
0.31611
0.309468
0.303863
0.299032
0.294885
0.291238
0.288067
0.285231
0.282742
0.280482
0.278486
0.276648
0.275019
0.273501
0.272153
0.270881
0.269752
0.268675
0.267722
0.2668
0.265988
0.265194
0.2645
0.263811
0.263212
0.262613
0.262097
0.261571
0.261124
0.260661
0.260271
0.259864
0.259528
0.259168
0.258871
0.258556
0.2583
0.258018
0.257789
0.257551
0.257346
0.257134
0.25695
0.256767
0.256623
0.256445
0.256318
0.256175
0.256049
0.255941
0.255838
0.255747
0.255659
0.255587
0.255512
0.255451
0.255419
0.255365
0.25534
0.255292
0.25528
0.25525
0.255255
0.255241
0.255263
0.255259
0.2553
0.255301
0.255357
0.255366
0.255437
0.25546
0.255546
0.255585
0.255691
0.255746
0.25588
0.255948
0.256127
0.256196
0.256487
0.256592
0.262444
6.21471
555.962
0.759421
0.633841
0.543914
0.480502
0.435348
0.402494
0.377914
0.359087
0.344293
0.332476
0.322829
0.314875
0.308185
0.30254
0.297673
0.293495
0.289821
0.286626
0.283769
0.281261
0.278984
0.276973
0.275121
0.27348
0.27195
0.270592
0.26931
0.268172
0.267087
0.266127
0.265198
0.264379
0.263579
0.262879
0.262184
0.261581
0.260977
0.260456
0.259926
0.259474
0.259007
0.258614
0.258203
0.257864
0.257501
0.257201
0.256882
0.256623
0.256339
0.256108
0.255867
0.255659
0.255445
0.255259
0.255073
0.254927
0.254748
0.254619
0.254474
0.254346
0.254236
0.254131
0.254038
0.253948
0.253874
0.253799
0.253735
0.253701
0.253645
0.253618
0.253569
0.253555
0.253524
0.253526
0.25351
0.253529
0.253523
0.253561
0.253561
0.253614
0.253622
0.25369
0.253711
0.253795
0.253831
0.253935
0.253988
0.254119
0.254184
0.25436
0.254427
0.254715
0.25482
0.260851
6.40225
550.78
0.759447
0.633855
0.543795
0.480189
0.434836
0.401805
0.377075
0.358123
0.343227
0.331325
0.321607
0.313594
0.306853
0.301164
0.29626
0.29205
0.288348
0.285128
0.282248
0.279721
0.277426
0.275399
0.273533
0.271879
0.270337
0.268968
0.267676
0.266529
0.265435
0.264467
0.263531
0.262705
0.261898
0.261192
0.260492
0.259883
0.259274
0.258749
0.258214
0.257758
0.257287
0.256889
0.256475
0.256132
0.255766
0.255463
0.255141
0.254879
0.254592
0.254358
0.254114
0.253905
0.253687
0.2535
0.253311
0.253163
0.252982
0.25285
0.252704
0.252574
0.252461
0.252355
0.25226
0.252168
0.252092
0.252015
0.251949
0.251913
0.251855
0.251828
0.251777
0.251761
0.251728
0.251727
0.251709
0.251725
0.251718
0.251751
0.251751
0.251801
0.251807
0.251872
0.251891
0.251972
0.252007
0.252108
0.252158
0.252286
0.25235
0.252521
0.252586
0.252871
0.252976
0.259183
6.57651
544.633
0.759474
0.633871
0.543675
0.479868
0.43431
0.401094
0.376208
0.357127
0.342124
0.330133
0.320341
0.312265
0.305472
0.299737
0.294795
0.29055
0.286819
0.283573
0.28067
0.278122
0.275809
0.273765
0.271885
0.270216
0.268662
0.267282
0.26598
0.264823
0.26372
0.262744
0.261799
0.260967
0.260153
0.259441
0.258734
0.25812
0.257505
0.256975
0.256435
0.255975
0.2555
0.255099
0.25468
0.254334
0.253964
0.253658
0.253332
0.253067
0.252778
0.25254
0.252294
0.252082
0.251862
0.251672
0.251481
0.251331
0.251147
0.251013
0.250865
0.250734
0.250618
0.25051
0.250412
0.25032
0.250241
0.250163
0.250094
0.250057
0.249996
0.249967
0.249915
0.249897
0.249863
0.249859
0.249839
0.249851
0.249842
0.249872
0.249871
0.249918
0.249922
0.249984
0.250001
0.250079
0.250112
0.25021
0.250258
0.250382
0.250444
0.250612
0.250674
0.250955
0.25106
0.25744
6.73334
537.455
0.759501
0.633888
0.543553
0.47954
0.43377
0.400363
0.375315
0.356099
0.340984
0.328901
0.319031
0.31089
0.304042
0.29826
0.293277
0.288997
0.285234
0.281961
0.279035
0.276465
0.274133
0.272072
0.270175
0.268493
0.266926
0.265533
0.26422
0.263054
0.261941
0.260956
0.260004
0.259164
0.258343
0.257624
0.256912
0.256292
0.255671
0.255136
0.254591
0.254127
0.253647
0.253241
0.252819
0.252468
0.252095
0.251785
0.251456
0.251188
0.250896
0.250655
0.250406
0.250191
0.249969
0.249777
0.249582
0.24943
0.249244
0.249108
0.248957
0.248824
0.248706
0.248597
0.248496
0.248402
0.248321
0.248242
0.24817
0.248131
0.248068
0.248038
0.247983
0.247964
0.247928
0.247921
0.247899
0.247908
0.247897
0.247923
0.247921
0.247964
0.247967
0.248026
0.248041
0.248116
0.248146
0.248241
0.248287
0.248408
0.248467
0.248631
0.24869
0.248969
0.249074
0.255619
6.86838
529.174
0.759529
0.633906
0.54343
0.479206
0.433216
0.399612
0.374395
0.355039
0.339808
0.327628
0.317678
0.30947
0.302564
0.296733
0.291707
0.28739
0.283596
0.280294
0.277342
0.27475
0.272398
0.270319
0.268406
0.266709
0.265128
0.263724
0.262399
0.261222
0.2601
0.259106
0.258145
0.257298
0.256469
0.255744
0.255025
0.254399
0.253773
0.253232
0.252682
0.252213
0.251728
0.251318
0.250892
0.250537
0.250159
0.249847
0.249514
0.249243
0.248947
0.248704
0.24845
0.248234
0.248008
0.247814
0.247616
0.247462
0.247274
0.247135
0.246982
0.246848
0.246726
0.246615
0.246512
0.246416
0.246332
0.246252
0.246177
0.246136
0.246072
0.246039
0.245983
0.245962
0.245924
0.245915
0.24589
0.245896
0.245883
0.245905
0.245901
0.245941
0.245942
0.245999
0.246011
0.246083
0.246111
0.246202
0.246246
0.246363
0.24642
0.24658
0.246637
0.246912
0.247018
0.253718
6.97716
519.713
0.759557
0.633926
0.543307
0.478866
0.432651
0.398841
0.37345
0.353948
0.338598
0.326317
0.316283
0.308004
0.301038
0.295156
0.290087
0.285731
0.281903
0.278572
0.275594
0.272978
0.270606
0.268508
0.266578
0.264865
0.263271
0.261853
0.260517
0.259329
0.258197
0.257193
0.256224
0.255368
0.254532
0.2538
0.253074
0.252442
0.251809
0.251263
0.250708
0.250234
0.249744
0.24933
0.248899
0.24854
0.248158
0.247842
0.247505
0.247231
0.246932
0.246685
0.246429
0.24621
0.245981
0.245784
0.245583
0.245427
0.245236
0.245095
0.24494
0.244803
0.244679
0.244566
0.24446
0.244363
0.244276
0.244195
0.244116
0.244074
0.244007
0.243973
0.243915
0.243892
0.243851
0.243841
0.243813
0.243816
0.243801
0.243819
0.243814
0.243849
0.243849
0.243902
0.243912
0.243981
0.244007
0.244095
0.244136
0.244249
0.244304
0.24446
0.244514
0.244785
0.244891
0.251735
7.05523
508.993
0.759585
0.633947
0.543183
0.478521
0.432073
0.398052
0.372481
0.352828
0.337353
0.324968
0.314847
0.306494
0.299466
0.293531
0.288415
0.28402
0.280157
0.276795
0.27379
0.27115
0.268756
0.266639
0.264691
0.262962
0.261353
0.259922
0.258574
0.257374
0.256232
0.255219
0.25424
0.253376
0.252532
0.251792
0.25106
0.250421
0.249782
0.249231
0.24867
0.24819
0.247695
0.247277
0.246841
0.246478
0.246092
0.245772
0.245432
0.245154
0.244851
0.244601
0.244341
0.244119
0.243887
0.243689
0.243484
0.243325
0.243132
0.242989
0.242831
0.242692
0.242565
0.24245
0.242341
0.242243
0.242152
0.24207
0.241989
0.241944
0.241875
0.241839
0.241779
0.241754
0.241712
0.241699
0.241669
0.241668
0.241651
0.241665
0.241658
0.241688
0.241688
0.241737
0.241745
0.241811
0.241834
0.241918
0.241957
0.242066
0.242119
0.24227
0.242322
0.242589
0.242695
0.249668
7.0982
496.937
0.759614
0.63397
0.543059
0.478171
0.431484
0.397246
0.371489
0.35168
0.336074
0.323582
0.31337
0.304942
0.297849
0.291858
0.286695
0.282258
0.278359
0.274965
0.271932
0.269267