/*--------------------------------*- C++ -*----------------------------------*\
| =========                 |                                                 |
| \\      /  F ield         | OpenFOAM: The Open Source CFD Toolbox           |
|  \\    /   O peration     | Version:  v2012                                 |
|   \\  /    A nd           | Website:  www.openfoam.com                      |
|    \\/     M anipulation  |                                                 |
\*---------------------------------------------------------------------------*/
FoamFile
{
    version     2.0;
    format      ascii;
    class       volScalarField;
    location    "47.5";
    object      k;
}
// * * * * * * * * * * * * * * * * * * * * * * * * * * * * * * * * * * * * * //

dimensions      [0 2 -2 0 0 0 0];


internalField   nonuniform List<scalar> 
209825
(
0.00102417
0.000933158
0.000856252
0.000790156
0.000733531
0.000685577
0.000645064
0.000610937
0.000581953
0.000557296
0.000536046
0.000517729
0.000501686
0.000487692
0.000475253
0.000464296
0.000454425
0.000445668
0.000437683
0.000430563
0.000423997
0.000418123
0.00041265
0.000407744
0.000403125
0.000398983
0.000395044
0.00039152
0.000388128
0.000385104
0.000382164
0.000379554
0.000376985
0.000374719
0.000372462
0.000370486
0.000368493
0.000366764
0.000364996
0.000363479
0.000361902
0.000360565
0.000359153
0.000357971
0.000356705
0.000355659
0.000354519
0.000353591
0.000352562
0.000351737
0.000350807
0.000350073
0.00034923
0.000348578
0.000347815
0.000347235
0.000346541
0.000346027
0.000345395
0.000344941
0.000344364
0.000343961
0.000343439
0.000343077
0.000342604
0.00034228
0.000341855
0.000341562
0.000341179
0.000340916
0.00034057
0.000340335
0.000340027
0.000339821
0.000339533
0.000339335
0.000339057
0.000338869
0.000338604
0.00033843
0.000338182
0.000338022
0.000337793
0.000337649
0.00033744
0.000337312
0.000337127
0.000337013
0.000336854
0.000336774
0.000336602
0.000336546
0.0003364
0.000339936
0.0118345
0.0129297
0.00102417
0.000933158
0.000856253
0.000790156
0.000733532
0.000685577
0.000645064
0.000610937
0.000581951
0.000557294
0.000536044
0.000517725
0.000501682
0.000487687
0.000475247
0.00046429
0.000454419
0.000445661
0.000437676
0.000430555
0.000423989
0.000418115
0.000412642
0.000407735
0.000403116
0.000398974
0.000395035
0.00039151
0.000388119
0.000385094
0.000382154
0.000379544
0.000376975
0.000374709
0.000372451
0.000370475
0.000368482
0.000366753
0.000364985
0.000363467
0.00036189
0.000360553
0.000359142
0.00035796
0.000356694
0.000355647
0.000354507
0.000353579
0.00035255
0.000351725
0.000350794
0.000350061
0.000349218
0.000348566
0.000347803
0.000347223
0.000346528
0.000346014
0.000345382
0.000344928
0.000344351
0.000343948
0.000343426
0.000343064
0.000342591
0.000342267
0.000341842
0.000341549
0.000341166
0.000340902
0.000340556
0.000340321
0.000340014
0.000339808
0.000339519
0.000339322
0.000339044
0.000338856
0.000338591
0.000338416
0.000338168
0.000338009
0.000337779
0.000337636
0.000337426
0.000337298
0.000337113
0.000337
0.000336841
0.00033676
0.000336588
0.000336533
0.000336387
0.000339926
0.0118463
0.0129444
0.00102417
0.000933158
0.000856254
0.000790159
0.000733534
0.000685578
0.000645062
0.000610932
0.000581943
0.000557283
0.000536029
0.000517708
0.000501661
0.000487664
0.000475222
0.000464263
0.00045439
0.00044563
0.000437643
0.000430522
0.000423954
0.000418079
0.000412604
0.000407697
0.000403077
0.000398934
0.000394994
0.000391468
0.000388076
0.000385051
0.00038211
0.000379499
0.00037693
0.000374663
0.000372405
0.000370428
0.000368435
0.000366706
0.000364937
0.000363419
0.000361842
0.000360504
0.000359092
0.00035791
0.000356644
0.000355597
0.000354457
0.000353528
0.000352499
0.000351674
0.000350743
0.000350009
0.000349166
0.000348514
0.00034775
0.00034717
0.000346476
0.000345961
0.000345329
0.000344875
0.000344298
0.000343894
0.000343372
0.00034301
0.000342537
0.000342213
0.000341788
0.000341495
0.000341111
0.000340848
0.000340502
0.000340266
0.000339959
0.000339752
0.000339464
0.000339266
0.000338988
0.0003388
0.000338535
0.000338361
0.000338112
0.000337953
0.000337723
0.00033758
0.00033737
0.000337242
0.000337056
0.000336943
0.000336784
0.000336703
0.000336531
0.000336476
0.000336329
0.000339879
0.0118734
0.012979
0.00102417
0.000933158
0.000856257
0.000790163
0.000733538
0.000685579
0.000645059
0.000610923
0.000581928
0.000557263
0.000536004
0.000517678
0.000501627
0.000487626
0.00047518
0.000464217
0.000454341
0.000445579
0.000437589
0.000430465
0.000423896
0.000418018
0.000412541
0.000407632
0.000403011
0.000398866
0.000394924
0.000391398
0.000388004
0.000384978
0.000382036
0.000379424
0.000376854
0.000374586
0.000372327
0.00037035
0.000368356
0.000366626
0.000364856
0.000363338
0.00036176
0.000360422
0.000359009
0.000357826
0.000356559
0.000355512
0.000354372
0.000353442
0.000352413
0.000351587
0.000350656
0.000349922
0.000349079
0.000348426
0.000347662
0.000347082
0.000346387
0.000345872
0.00034524
0.000344785
0.000344208
0.000343804
0.000343281
0.000342919
0.000342446
0.000342122
0.000341697
0.000341403
0.000341019
0.000340756
0.000340409
0.000340174
0.000339866
0.00033966
0.000339371
0.000339173
0.000338895
0.000338707
0.000338441
0.000338267
0.000338018
0.000337859
0.000337629
0.000337485
0.000337275
0.000337146
0.000336961
0.000336848
0.000336688
0.000336607
0.000336435
0.000336379
0.000336233
0.000339797
0.0119162
0.013034
0.00102417
0.000933158
0.00085626
0.00079017
0.000733543
0.00068558
0.000645053
0.00061091
0.000581908
0.000557234
0.000535968
0.000517635
0.000501578
0.000487571
0.00047512
0.000464153
0.000454272
0.000445506
0.000437513
0.000430385
0.000423812
0.000417932
0.000412453
0.000407541
0.000402917
0.00039877
0.000394827
0.000391298
0.000387903
0.000384875
0.000381931
0.000379318
0.000376746
0.000374478
0.000372217
0.000370239
0.000368244
0.000366513
0.000364742
0.000363223
0.000361644
0.000360305
0.000358892
0.000357708
0.000356441
0.000355393
0.000354251
0.000353322
0.000352291
0.000351465
0.000350533
0.000349799
0.000348955
0.000348302
0.000347537
0.000346957
0.000346261
0.000345746
0.000345114
0.000344659
0.000344081
0.000343677
0.000343154
0.000342791
0.000342318
0.000341993
0.000341567
0.000341274
0.00034089
0.000340626
0.000340279
0.000340043
0.000339735
0.000339529
0.00033924
0.000339042
0.000338763
0.000338575
0.000338309
0.000338134
0.000337885
0.000337726
0.000337495
0.000337351
0.000337141
0.000337012
0.000336826
0.000336713
0.000336553
0.000336472
0.000336299
0.000336244
0.000336096
0.000339682
0.0119754
0.0131104
0.00102417
0.000933158
0.000856265
0.000790178
0.00073355
0.000685581
0.000645047
0.000610893
0.000581881
0.000557198
0.000535922
0.000517581
0.000501515
0.000487501
0.000475043
0.000464069
0.000454183
0.000445411
0.000437413
0.000430281
0.000423705
0.00041782
0.000412338
0.000407423
0.000402796
0.000398646
0.0003947
0.000391169
0.000387772
0.000384742
0.000381796
0.000379181
0.000376608
0.000374337
0.000372075
0.000370095
0.000368099
0.000366367
0.000364595
0.000363074
0.000361494
0.000360154
0.00035874
0.000357555
0.000356287
0.000355238
0.000354096
0.000353165
0.000352134
0.000351307
0.000350375
0.00034964
0.000348795
0.000348141
0.000347376
0.000346795
0.000346099
0.000345583
0.00034495
0.000344495
0.000343916
0.000343512
0.000342988
0.000342625
0.000342151
0.000341826
0.0003414
0.000341106
0.000340722
0.000340457
0.00034011
0.000339874
0.000339566
0.000339359
0.000339069
0.000338871
0.000338592
0.000338404
0.000338138
0.000337962
0.000337713
0.000337553
0.000337323
0.000337178
0.000336967
0.000336838
0.000336652
0.000336538
0.000336378
0.000336297
0.000336123
0.000336068
0.00033592
0.000339532
0.012052
0.0132092
0.00102416
0.000933158
0.000856271
0.000790187
0.000733559
0.000685583
0.000645038
0.000610873
0.000581849
0.000557153
0.000535866
0.000517513
0.000501438
0.000487414
0.000474948
0.000463966
0.000454074
0.000445295
0.000437291
0.000430153
0.000423572
0.000417683
0.000412196
0.000407277
0.000402647
0.000398494
0.000394544
0.00039101
0.00038761
0.000384577
0.000381629
0.000379012
0.000376436
0.000374164
0.0003719
0.000369918
0.00036792
0.000366186
0.000364413
0.000362891
0.000361309
0.000359968
0.000358553
0.000357367
0.000356097
0.000355047
0.000353904
0.000352973
0.00035194
0.000351113
0.000350179
0.000349443
0.000348598
0.000347943
0.000347177
0.000346595
0.000345898
0.000345383
0.000344748
0.000344292
0.000343713
0.000343308
0.000342784
0.00034242
0.000341946
0.00034162
0.000341194
0.000340899
0.000340514
0.00034025
0.000339902
0.000339666
0.000339357
0.000339149
0.00033886
0.000338661
0.000338381
0.000338193
0.000337926
0.000337751
0.000337501
0.000337341
0.00033711
0.000336965
0.000336753
0.000336624
0.000336437
0.000336323
0.000336162
0.000336081
0.000335906
0.000335851
0.000335702
0.000339348
0.0121467
0.0133317
0.00102416
0.000933158
0.000856278
0.000790199
0.000733569
0.000685585
0.000645029
0.000610849
0.00058181
0.0005571
0.000535799
0.000517433
0.000501346
0.000487311
0.000474835
0.000463844
0.000453943
0.000445157
0.000437146
0.000430002
0.000423414
0.00041752
0.000412028
0.000407104
0.000402469
0.000398312
0.000394359
0.000390821
0.000387418
0.000384382
0.000381431
0.000378811
0.000376233
0.000373958
0.000371692
0.000369708
0.000367707
0.000365972
0.000364197
0.000362673
0.000361089
0.000359747
0.00035833
0.000357142
0.000355871
0.00035482
0.000353676
0.000352743
0.000351709
0.000350881
0.000349946
0.000349209
0.000348363
0.000347707
0.00034694
0.000346358
0.00034566
0.000345143
0.000344508
0.000344052
0.000343472
0.000343066
0.000342541
0.000342177
0.000341702
0.000341375
0.000340948
0.000340653
0.000340268
0.000340002
0.000339654
0.000339417
0.000339108
0.0003389
0.00033861
0.000338411
0.000338131
0.000337942
0.000337675
0.000337499
0.000337248
0.000337088
0.000336856
0.000336711
0.000336499
0.000336369
0.000336181
0.000336067
0.000335905
0.000335823
0.000335648
0.000335593
0.000335443
0.000339129
0.01226
0.0134787
0.00102416
0.000933158
0.000856286
0.000790213
0.000733581
0.000685588
0.000645018
0.000610822
0.000581766
0.000557038
0.000535721
0.000517341
0.00050124
0.000487192
0.000474704
0.000463703
0.000453792
0.000444996
0.000436977
0.000429825
0.000423231
0.00041733
0.000411832
0.000406903
0.000402263
0.000398101
0.000394143
0.000390602
0.000387194
0.000384155
0.0003812
0.000378577
0.000375996
0.000373718
0.000371449
0.000369463
0.00036746
0.000365722
0.000363945
0.000362419
0.000360834
0.000359489
0.00035807
0.000356881
0.000355609
0.000354556
0.00035341
0.000352476
0.000351441
0.000350611
0.000349675
0.000348937
0.000348089
0.000347433
0.000346665
0.000346081
0.000345382
0.000344865
0.000344229
0.000343771
0.000343191
0.000342784
0.000342258
0.000341893
0.000341417
0.00034109
0.000340663
0.000340367
0.000339981
0.000339715
0.000339366
0.000339129
0.000338818
0.00033861
0.000338319
0.00033812
0.000337839
0.00033765
0.000337382
0.000337206
0.000336954
0.000336793
0.000336561
0.000336415
0.000336202
0.000336072
0.000335884
0.000335769
0.000335606
0.000335524
0.000335348
0.000335292
0.000335141
0.000338874
0.0123924
0.0136514
0.00102416
0.000933157
0.000856295
0.000790229
0.000733595
0.000685592
0.000645006
0.000610791
0.000581715
0.000556969
0.000535633
0.000517236
0.000501119
0.000487056
0.000474555
0.000463541
0.000453619
0.000444813
0.000436785
0.000429624
0.000423022
0.000417114
0.000411609
0.000406673
0.000402027
0.00039786
0.000393897
0.000390351
0.000386939
0.000383895
0.000380937
0.00037831
0.000375726
0.000373445
0.000371173
0.000369183
0.000367178
0.000365437
0.000363657
0.000362129
0.000360542
0.000359195
0.000357774
0.000356583
0.000355309
0.000354254
0.000353107
0.000352171
0.000351135
0.000350303
0.000349366
0.000348627
0.000347777
0.00034712
0.00034635
0.000345766
0.000345065
0.000344547
0.00034391
0.000343452
0.000342869
0.000342462
0.000341935
0.000341569
0.000341093
0.000340765
0.000340336
0.00034004
0.000339653
0.000339386
0.000339036
0.000338799
0.000338488
0.000338279
0.000337987
0.000337787
0.000337506
0.000337316
0.000337047
0.000336871
0.000336619
0.000336457
0.000336224
0.000336077
0.000335864
0.000335733
0.000335544
0.000335428
0.000335264
0.000335182
0.000335005
0.000334949
0.000334797
0.000338585
0.0125444
0.0138508
0.00102416
0.000933157
0.000856305
0.000790246
0.000733611
0.000685597
0.000644993
0.000610757
0.000581659
0.000556891
0.000535535
0.000517118
0.000500983
0.000486904
0.000474388
0.00046336
0.000453425
0.000444608
0.000436569
0.000429399
0.000422787
0.00041687
0.000411358
0.000406415
0.000401763
0.000397589
0.000393621
0.000390069
0.000386652
0.000383604
0.000380641
0.00037801
0.000375421
0.000373137
0.000370861
0.000368869
0.00036686
0.000365117
0.000363334
0.000361803
0.000360213
0.000358864
0.000357441
0.000356248
0.000354971
0.000353915
0.000352765
0.000351828
0.000350789
0.000349957
0.000349017
0.000348277
0.000347426
0.000346767
0.000345996
0.00034541
0.000344709
0.000344189
0.00034355
0.000343091
0.000342508
0.0003421
0.000341571
0.000341205
0.000340727
0.000340398
0.000339969
0.000339671
0.000339283
0.000339016
0.000338665
0.000338427
0.000338115
0.000337906
0.000337613
0.000337413
0.00033713
0.00033694
0.000336671
0.000336493
0.00033624
0.000336078
0.000335844
0.000335697
0.000335482
0.000335351
0.000335161
0.000335045
0.000334879
0.000334796
0.000334618
0.000334562
0.000334409
0.00033826
0.0127161
0.0140778
0.00102415
0.000933157
0.000856317
0.000790266
0.000733629
0.000685602
0.000644979
0.00061072
0.000581598
0.000556805
0.000535426
0.000516987
0.000500833
0.000486735
0.000474203
0.000463159
0.00045321
0.00044438
0.000436329
0.000429148
0.000422526
0.0004166
0.000411079
0.000406128
0.000401468
0.000397288
0.000393313
0.000389755
0.000386333
0.000383279
0.000380312
0.000377676
0.000375083
0.000372794
0.000370515
0.000368518
0.000366506
0.00036476
0.000362974
0.00036144
0.000359847
0.000358496
0.00035707
0.000355874
0.000354595
0.000353537
0.000352385
0.000351446
0.000350405
0.000349571
0.000348629
0.000347887
0.000347034
0.000346374
0.000345601
0.000345014
0.000344311
0.00034379
0.00034315
0.00034269
0.000342105
0.000341696
0.000341166
0.000340799
0.00034032
0.00033999
0.000339559
0.000339261
0.000338872
0.000338604
0.000338252
0.000338013
0.0003377
0.00033749
0.000337196
0.000336996
0.000336712
0.000336521
0.000336251
0.000336073
0.000335819
0.000335656
0.000335421
0.000335273
0.000335058
0.000334926
0.000334734
0.000334617
0.00033445
0.000334367
0.000334188
0.000334132
0.000333977
0.000337898
0.0129073
0.0143334
0.00102415
0.000933156
0.000856329
0.000790288
0.000733649
0.000685608
0.000644964
0.000610679
0.00058153
0.000556711
0.000535307
0.000516844
0.000500668
0.00048655
0.000473999
0.000462938
0.000452974
0.000444129
0.000436065
0.000428871
0.000422239
0.000416302
0.000410772
0.000405812
0.000401144
0.000396956
0.000392974
0.000389409
0.000385981
0.000382921
0.000379948
0.000377308
0.00037471
0.000372416
0.000370133
0.000368132
0.000366116
0.000364366
0.000362577
0.00036104
0.000359443
0.000358089
0.00035666
0.000355462
0.00035418
0.00035312
0.000351965
0.000351024
0.000349981
0.000349145
0.000348201
0.000347457
0.000346603
0.000345941
0.000345166
0.000344578
0.000343872
0.00034335
0.000342708
0.000342247
0.000341661
0.00034125
0.000340719
0.00034035
0.00033987
0.000339539
0.000339107
0.000338808
0.000338418
0.000338149
0.000337796
0.000337556
0.000337242
0.000337031
0.000336737
0.000336535
0.000336251
0.000336059
0.000335788
0.000335609
0.000335354
0.00033519
0.000334954
0.000334806
0.000334589
0.000334456
0.000334263
0.000334146
0.000333977
0.000333893
0.000333712
0.000333656
0.0003335
0.0003375
0.0131178
0.0146185
0.00102415
0.000933155
0.000856343
0.000790312
0.000733671
0.000685616
0.000644949
0.000610636
0.000581458
0.000556609
0.000535177
0.000516689
0.000500488
0.000486348
0.000473777
0.000462697
0.000452716
0.000443855
0.000435777
0.00042857
0.000421925
0.000415977
0.000410436
0.000405466
0.000400789
0.000396593
0.000392603
0.000389031
0.000385596
0.00038253
0.000379551
0.000376905
0.000374301
0.000372003
0.000369715
0.00036771
0.000365689
0.000363935
0.000362142
0.000360601
0.000359002
0.000357644
0.000356212
0.000355011
0.000353726
0.000352663
0.000351506
0.000350562
0.000349517
0.000348678
0.000347733
0.000346987
0.00034613
0.000345466
0.000344689
0.000344099
0.000343392
0.000342869
0.000342225
0.000341762
0.000341174
0.000340762
0.00034023
0.00033986
0.000339378
0.000339046
0.000338612
0.000338312
0.00033792
0.000337651
0.000337296
0.000337056
0.00033674
0.000336529
0.000336233
0.000336031
0.000335745
0.000335553
0.00033528
0.000335101
0.000334845
0.00033468
0.000334442
0.000334293
0.000334075
0.000333941
0.000333747
0.000333629
0.000333459
0.000333374
0.000333192
0.000333136
0.000332978
0.000337065
0.0133469
0.0149338
0.00102414
0.000933154
0.000856357
0.000790338
0.000733695
0.000685625
0.000644933
0.00061059
0.00058138
0.0005565
0.000535038
0.00051652
0.000500294
0.00048613
0.000473536
0.000462436
0.000452436
0.000443558
0.000435464
0.000428242
0.000421584
0.000415624
0.000410071
0.000405091
0.000400404
0.000396199
0.0003922
0.00038862
0.000385178
0.000382105
0.000379119
0.000376467
0.000373857
0.000371554
0.00036926
0.000367251
0.000365225
0.000363467
0.000361669
0.000360125
0.000358521
0.00035716
0.000355725
0.000354521
0.000353233
0.000352167
0.000351006
0.00035006
0.000349012
0.000348171
0.000347223
0.000346475
0.000345616
0.00034495
0.000344171
0.000343579
0.00034287
0.000342345
0.000341699
0.000341234
0.000340645
0.000340231
0.000339697
0.000339326
0.000338842
0.000338509
0.000338074
0.000337773
0.00033738
0.000337109
0.000336753
0.000336511
0.000336195
0.000335982
0.000335685
0.000335482
0.000335195
0.000335002
0.000334728
0.000334548
0.00033429
0.000334125
0.000333886
0.000333736
0.000333516
0.000333382
0.000333186
0.000333067
0.000332895
0.000332809
0.000332626
0.000332569
0.00033241
0.000336593
0.0135935
0.0152802
0.00102414
0.000933153
0.000856373
0.000790366
0.000733722
0.000685635
0.000644916
0.000610541
0.000581297
0.000556383
0.000534888
0.00051634
0.000500085
0.000485895
0.000473277
0.000462155
0.000452135
0.000443238
0.000435127
0.000427889
0.000421217
0.000415243
0.000409678
0.000404686
0.000399989
0.000395773
0.000391766
0.000388177
0.000384726
0.000381646
0.000378653
0.000375994
0.000373378
0.000371069
0.000368769
0.000366754
0.000364724
0.000362961
0.000361159
0.00035961
0.000358002
0.000356637
0.000355198
0.000353991
0.000352699
0.00035163
0.000350466
0.000349517
0.000348466
0.000347623
0.000346672
0.000345922
0.000345059
0.000344392
0.00034361
0.000343017
0.000342305
0.000341778
0.00034113
0.000340664
0.000340072
0.000339657
0.000339121
0.000338748
0.000338263
0.000337929
0.000337492
0.00033719
0.000336794
0.000336523
0.000336165
0.000335922
0.000335604
0.000335391
0.000335093
0.000334889
0.0003346
0.000334407
0.000334131
0.00033395
0.000333691
0.000333525
0.000333284
0.000333133
0.000332912
0.000332776
0.000332579
0.000332459
0.000332285
0.000332198
0.000332013
0.000331957
0.000331796
0.000336082
0.0138565
0.0156581
0.00102413
0.000933152
0.000856389
0.000790396
0.000733751
0.000685647
0.0006449
0.00061049
0.000581209
0.000556258
0.000534729
0.000516148
0.000499862
0.000485643
0.000473
0.000461854
0.000451812
0.000442895
0.000434765
0.00042751
0.000420822
0.000414834
0.000409256
0.000404251
0.000399542
0.000395316
0.000391298
0.0003877
0.000384241
0.000381152
0.000378151
0.000375485
0.000372863
0.000370547
0.000368241
0.000366221
0.000364185
0.000362417
0.000360609
0.000359056
0.000357444
0.000356075
0.000354631
0.000353421
0.000352125
0.000351052
0.000349885
0.000348933
0.000347879
0.000347033
0.000346079
0.000345326
0.000344461
0.000343791
0.000343007
0.000342411
0.000341697
0.000341168
0.000340518
0.00034005
0.000339456
0.000339039
0.000338501
0.000338127
0.00033764
0.000337304
0.000336865
0.000336561
0.000336165
0.000335892
0.000335532
0.000335289
0.000334969
0.000334755
0.000334455
0.00033425
0.00033396
0.000333765
0.000333488
0.000333306
0.000333046
0.000332878
0.000332636
0.000332484
0.000332261
0.000332125
0.000331925
0.000331804
0.000331628
0.000331541
0.000331353
0.000331297
0.000331135
0.000335533
0.0141339
0.0160681
0.00102413
0.000933151
0.000856407
0.000790429
0.000733783
0.00068566
0.000644883
0.000610437
0.000581117
0.000556127
0.00053456
0.000515943
0.000499625
0.000485375
0.000472704
0.000461532
0.000451467
0.000442528
0.000434379
0.000427106
0.000420401
0.000414397
0.000408804
0.000403787
0.000399065
0.000394827
0.000390799
0.000387191
0.000383721
0.000380624
0.000377615
0.000374941
0.000372311
0.000369988
0.000367676
0.000365649
0.000363608
0.000361834
0.000360021
0.000358463
0.000356846
0.000355473
0.000354025
0.00035281
0.00035151
0.000350434
0.000349263
0.000348308
0.00034725
0.000346401
0.000345444
0.000344688
0.00034382
0.000343148
0.000342361
0.000341763
0.000341046
0.000340515
0.000339862
0.000339392
0.000338796
0.000338377
0.000337837
0.000337461
0.000336972
0.000336634
0.000336194
0.000335888
0.00033549
0.000335215
0.000334854
0.000334609
0.000334288
0.000334073
0.000333771
0.000333565
0.000333274
0.000333078
0.000332799
0.000332616
0.000332354
0.000332186
0.000331941
0.000331788
0.000331564
0.000331426
0.000331225
0.000331103
0.000330924
0.000330836
0.000330646
0.00033059
0.000330426
0.000334945
0.0144235
0.0165104
0.00102413
0.000933149
0.000856426
0.000790464
0.000733817
0.000685676
0.000644867
0.000610381
0.00058102
0.000555988
0.000534381
0.000515727
0.000499374
0.000485091
0.000472391
0.000461191
0.000451101
0.000442139
0.000433969
0.000426676
0.000419953
0.000413932
0.000408324
0.000403292
0.000398557
0.000394306
0.000390266
0.000386647
0.000383168
0.000380061
0.000377043
0.000374361
0.000371723
0.000369393
0.000367074
0.00036504
0.000362992
0.000361212
0.000359394
0.000357831
0.000356208
0.00035483
0.000353377
0.000352158
0.000350854
0.000349774
0.000348599
0.000347641
0.000346579
0.000345727
0.000344766
0.000344007
0.000343136
0.000342461
0.000341671
0.000341071
0.000340351
0.000339818
0.000339162
0.00033869
0.000338091
0.000337671
0.000337128
0.00033675
0.000336259
0.000335919
0.000335477
0.00033517
0.000334769
0.000334494
0.000334131
0.000333884
0.000333561
0.000333345
0.000333041
0.000332834
0.000332541
0.000332344
0.000332064
0.00033188
0.000331615
0.000331446
0.0003312
0.000331046
0.000330819
0.00033068
0.000330477
0.000330354
0.000330173
0.000330084
0.000329892
0.000329835
0.00032967
0.000334317
0.0147225
0.0169848
0.00102412
0.000933147
0.000856445
0.000790501
0.000733854
0.000685693
0.000644851
0.000610324
0.000580919
0.000555843
0.000534193
0.000515499
0.000499108
0.000484792
0.000472059
0.00046083
0.000450713
0.000441727
0.000433534
0.00042622
0.000419478
0.000413438
0.000407814
0.000402766
0.000398017
0.000393753
0.000389701
0.000386071
0.00038258
0.000379463
0.000376436
0.000373744
0.000371098
0.00036876
0.000366433
0.000364393
0.000362338
0.000360552
0.000358727
0.000357158
0.00035553
0.000354147
0.000352689
0.000351466
0.000350157
0.000349073
0.000347893
0.000346931
0.000345865
0.00034501
0.000344045
0.000343284
0.000342409
0.000341731
0.000340938
0.000340334
0.000339612
0.000339076
0.000338418
0.000337943
0.000337342
0.000336919
0.000336374
0.000335994
0.0003355
0.000335159
0.000334714
0.000334406
0.000334003
0.000333726
0.000333361
0.000333113
0.000332788
0.00033257
0.000332265
0.000332057
0.000331762
0.000331564
0.000331282
0.000331096
0.00033083
0.000330659
0.000330411
0.000330256
0.000330027
0.000329887
0.000329681
0.000329557
0.000329373
0.000329283
0.000329089
0.000329032
0.000328865
0.000333648
0.0150276
0.0174909
0.00102412
0.000933145
0.000856466
0.000790541
0.000733894
0.000685712
0.000644836
0.000610265
0.000580814
0.000555691
0.000533997
0.000515259
0.00049883
0.000484476
0.00047171
0.00046045
0.000450305
0.000441291
0.000433074
0.000425738
0.000418975
0.000412917
0.000407275
0.000402211
0.000397447
0.000393169
0.000389103
0.00038546
0.000381959
0.000378831
0.000375793
0.000373092
0.000370437
0.00036809
0.000365755
0.000363708
0.000361645
0.000359853
0.000358021
0.000356446
0.000354812
0.000353424
0.00035196
0.000350732
0.000349418
0.000348329
0.000347145
0.000346179
0.000345109
0.00034425
0.000343281
0.000342516
0.000341638
0.000340957
0.00034016
0.000339554
0.000338828
0.00033829
0.000337628
0.000337152
0.000336547
0.000336122
0.000335575
0.000335193
0.000334696
0.000334353
0.000333906
0.000333596
0.00033319
0.000332912
0.000332544
0.000332295
0.000331968
0.000331749
0.000331441
0.000331232
0.000330935
0.000330736
0.000330452
0.000330265
0.000329997
0.000329825
0.000329574
0.000329418
0.000329187
0.000329045
0.000328837
0.000328712
0.000328525
0.000328434
0.000328237
0.00032818
0.000328012
0.000332938
0.0153351
0.018028
0.00102411
0.000933143
0.000856488
0.000790582
0.000733937
0.000685734
0.000644822
0.000610205
0.000580706
0.000555533
0.000533791
0.000515009
0.000498538
0.000484145
0.000471343
0.00046005
0.000449875
0.000440833
0.000432591
0.000425231
0.000418446
0.000412367
0.000406707
0.000401625
0.000396845
0.000392552
0.000388472
0.000384816
0.000381302
0.000378163
0.000375114
0.000372403
0.000369738
0.000367383
0.000365039
0.000362984
0.000360913
0.000359114
0.000357275
0.000355694
0.000354054
0.000352659
0.00035119
0.000349956
0.000348637
0.000347544
0.000346355
0.000345384
0.00034431
0.000343447
0.000342474
0.000341705
0.000340823
0.000340139
0.000339338
0.000338729
0.000338
0.000337459
0.000336794
0.000336315
0.000335707
0.00033528
0.000334729
0.000334345
0.000333846
0.000333501
0.000333051
0.000332739
0.000332331
0.000332051
0.000331681
0.00033143
0.0003311
0.00033088
0.000330571
0.00033036
0.000330061
0.000329861
0.000329574
0.000329386
0.000329116
0.000328942
0.00032869
0.000328532
0.000328298
0.000328155
0.000327944
0.000327818
0.000327629
0.000327536
0.000327336
0.00032728
0.00032711
0.000332185
0.0156404
0.0185945
0.0010241
0.00093314
0.00085651
0.000790626
0.000733983
0.000685758
0.000644808
0.000610145
0.000580594
0.000555369
0.000533578
0.000514747
0.000498232
0.000483798
0.000470959
0.000459631
0.000449424
0.000440353
0.000432083
0.000424698
0.000417891
0.00041179
0.00040611
0.00040101
0.000396213
0.000391903
0.000387809
0.000384139
0.000380612
0.00037746
0.0003744
0.000371678
0.000369003
0.000366638
0.000364286
0.000362221
0.000360143
0.000358335
0.00035649
0.000354901
0.000353254
0.000351854
0.000350378
0.000349139
0.000347814
0.000346716
0.000345522
0.000344547
0.000343467
0.0003426
0.000341622
0.00034085
0.000339964
0.000339276
0.000338472
0.00033786
0.000337126
0.000336583
0.000335914
0.000335432
0.000334822
0.000334392
0.000333838
0.000333451
0.00033295
0.000332602
0.000332149
0.000331835
0.000331425
0.000331143
0.00033077
0.000330518
0.000330186
0.000329964
0.000329652
0.00032944
0.000329139
0.000328937
0.000328649
0.000328459
0.000328186
0.000328012
0.000327756
0.000327597
0.000327361
0.000327217
0.000327003
0.000326876
0.000326683
0.000326589
0.000326386
0.000326329
0.000326158
0.000331388
0.0159386
0.0191883
0.0010241
0.000933137
0.000856533
0.000790673
0.000734031
0.000685785
0.000644796
0.000610083
0.000580479
0.0005552
0.000533356
0.000514476
0.000497914
0.000483437
0.000470558
0.000459193
0.000448952
0.00043985
0.000431552
0.00042414
0.000417308
0.000411185
0.000405484
0.000400364
0.000395549
0.000391223
0.000387113
0.000383428
0.000379887
0.000376722
0.00037365
0.000370917
0.000368231
0.000365856
0.000363494
0.00036142
0.000359333
0.000357518
0.000355664
0.000354069
0.000352414
0.000351007
0.000349525
0.00034828
0.000346949
0.000345846
0.000344646
0.000343666
0.000342581
0.00034171
0.000340728
0.000339952
0.00033906
0.000338369
0.00033756
0.000336945
0.000336208
0.000335661
0.000334989
0.000334504
0.00033389
0.000333457
0.000332901
0.000332511
0.000332007
0.000331657
0.000331201
0.000330885
0.000330472
0.000330188
0.000329813
0.000329559
0.000329224
0.000329001
0.000328686
0.000328473
0.000328169
0.000327966
0.000327675
0.000327484
0.000327209
0.000327032
0.000326775
0.000326614
0.000326375
0.000326229
0.000326013
0.000325884
0.000325688
0.000325592
0.000325386
0.00032533
0.000325157
0.000330546
0.0162241
0.0198066
0.00102409
0.000933133
0.000856557
0.000790721
0.000734083
0.000685815
0.000644786
0.000610021
0.000580361
0.000555025
0.000533127
0.000514194
0.000497584
0.000483061
0.000470141
0.000458737
0.00044846
0.000439325
0.000430997
0.000423557
0.0004167
0.000410552
0.000404829
0.000399689
0.000394855
0.00039051
0.000386384
0.000382683
0.000379128
0.00037595
0.000372864
0.000370119
0.000367422
0.000365036
0.000362663
0.000360581
0.000358484
0.00035666
0.000354798
0.000353195
0.000351533
0.000350119
0.000348631
0.000347379
0.000346042
0.000344933
0.000343727
0.000342742
0.000341652
0.000340776
0.000339789
0.000339009
0.000338113
0.000337418
0.000336604
0.000335986
0.000335244
0.000334694
0.000334018
0.00033353
0.000332913
0.000332477
0.000331917
0.000331525
0.000331017
0.000330665
0.000330206
0.000329888
0.000329471
0.000329185
0.000328807
0.000328551
0.000328214
0.000327989
0.000327672
0.000327457
0.000327151
0.000326946
0.000326653
0.00032646
0.000326182
0.000326004
0.000325744
0.000325581
0.00032534
0.000325192
0.000324973
0.000324843
0.000324643
0.000324546
0.000324337
0.00032428
0.000324107
0.000329657
0.0164908
0.0204455
0.00102409
0.00093313
0.000856582
0.000790772
0.000734138
0.000685848
0.000644778
0.00060996
0.000580242
0.000554846
0.000532891
0.000513903
0.000497242
0.000482671
0.000469707
0.000458262
0.000447949
0.000438779
0.000430419
0.000422949
0.000416065
0.000409892
0.000404146
0.000398984
0.000394129
0.000389766
0.000385622
0.000381905
0.000378335
0.000375142
0.000372043
0.000369285
0.000366576
0.000364179
0.000361795
0.000359703
0.000357596
0.000355764
0.000353893
0.000352282
0.000350612
0.000349191
0.000347694
0.000346437
0.000345092
0.000343977
0.000342766
0.000341775
0.00034068
0.000339799
0.000338806
0.000338021
0.00033712
0.000336421
0.000335603
0.000334981
0.000334235
0.000333681
0.000333001
0.00033251
0.000331889
0.00033145
0.000330886