/*--------------------------------*- C++ -*----------------------------------*\
| =========                 |                                                 |
| \\      /  F ield         | OpenFOAM: The Open Source CFD Toolbox           |
|  \\    /   O peration     | Version:  v2012                                 |
|   \\  /    A nd           | Website:  www.openfoam.com                      |
|    \\/     M anipulation  |                                                 |
\*---------------------------------------------------------------------------*/
FoamFile
{
    version     2.0;
    format      ascii;
    class       volVectorField;
    location    "47.5";
    object      wallShearStress;
}
// * * * * * * * * * * * * * * * * * * * * * * * * * * * * * * * * * * * * * //

dimensions      [0 2 -2 0 0 0 0];


internalField   uniform (0 0 0);

boundaryField
{
    inlet
    {
        type            calculated;
        value           uniform (0 0 0);
    }
    outlet
    {
        type            calculated;
        value           uniform (0 0 0);
    }
    topWall
    {
        type            calculated;
        value           nonuniform List<vector> 
545
(
(6.87072e-08 -4.83618e-08 0)
(6.86894e-08 -1.35302e-07 0)
(6.86426e-08 -2.25696e-07 0)
(6.85796e-08 -3.13464e-07 0)
(6.85034e-08 -3.97485e-07 0)
(6.84138e-08 -4.78838e-07 0)
(6.83118e-08 -5.58214e-07 0)
(6.8198e-08 -6.35577e-07 0)
(6.80735e-08 -7.10756e-07 0)
(6.79393e-08 -7.83749e-07 0)
(6.77964e-08 -8.54653e-07 0)
(6.76455e-08 -9.23549e-07 0)
(6.74874e-08 -9.90483e-07 0)
(6.7323e-08 -1.0555e-06 0)
(6.71529e-08 -1.11864e-06 0)
(6.69778e-08 -1.17995e-06 0)
(6.67982e-08 -1.23949e-06 0)
(6.66149e-08 -1.2973e-06 0)
(6.64282e-08 -1.35344e-06 0)
(6.62389e-08 -1.40793e-06 0)
(6.60471e-08 -1.46084e-06 0)
(6.58536e-08 -1.5122e-06 0)
(6.56586e-08 -1.56206e-06 0)
(6.54626e-08 -1.61046e-06 0)
(6.52658e-08 -1.65745e-06 0)
(6.50687e-08 -1.70305e-06 0)
(6.48715e-08 -1.74732e-06 0)
(6.46745e-08 -1.79029e-06 0)
(6.4478e-08 -1.832e-06 0)
(6.42822e-08 -1.87249e-06 0)
(6.40873e-08 -1.91179e-06 0)
(6.38935e-08 -1.94994e-06 0)
(6.37011e-08 -1.98697e-06 0)
(6.35102e-08 -2.02291e-06 0)
(6.33209e-08 -2.05781e-06 0)
(6.31334e-08 -2.09168e-06 0)
(6.29478e-08 -2.12456e-06 0)
(6.27643e-08 -2.15648e-06 0)
(6.25828e-08 -2.18747e-06 0)
(6.24036e-08 -2.21755e-06 0)
(6.22267e-08 -2.24676e-06 0)
(6.20521e-08 -2.27512e-06 0)
(6.188e-08 -2.30265e-06 0)
(6.17104e-08 -2.32938e-06 0)
(6.15433e-08 -2.35534e-06 0)
(6.13787e-08 -2.38055e-06 0)
(6.12168e-08 -2.40502e-06 0)
(6.10574e-08 -2.42879e-06 0)
(6.09008e-08 -2.45187e-06 0)
(6.07467e-08 -2.47428e-06 0)
(6.05954e-08 -2.49605e-06 0)
(6.04467e-08 -2.51719e-06 0)
(6.03006e-08 -2.53773e-06 0)
(6.01573e-08 -2.55767e-06 0)
(6.00166e-08 -2.57705e-06 0)
(5.98785e-08 -2.59586e-06 0)
(5.97431e-08 -2.61414e-06 0)
(5.96103e-08 -2.6319e-06 0)
(5.948e-08 -2.64916e-06 0)
(5.93524e-08 -2.66592e-06 0)
(5.92273e-08 -2.6822e-06 0)
(5.91047e-08 -2.69802e-06 0)
(5.89846e-08 -2.7134e-06 0)
(5.88669e-08 -2.72834e-06 0)
(5.87517e-08 -2.74285e-06 0)
(5.86389e-08 -2.75696e-06 0)
(5.85285e-08 -2.77066e-06 0)
(5.84204e-08 -2.78398e-06 0)
(5.83145e-08 -2.79693e-06 0)
(5.8211e-08 -2.80951e-06 0)
(5.81097e-08 -2.82174e-06 0)
(5.80105e-08 -2.83361e-06 0)
(5.79142e-08 -2.84503e-06 0)
(5.78208e-08 -2.85611e-06 0)
(5.77284e-08 -2.86707e-06 0)
(5.76362e-08 -2.87797e-06 0)
(5.75441e-08 -2.88883e-06 0)
(5.74521e-08 -2.89962e-06 0)
(5.73603e-08 -2.91033e-06 0)
(5.72685e-08 -2.92098e-06 0)
(5.71768e-08 -2.93157e-06 0)
(5.70852e-08 -2.94209e-06 0)
(5.69937e-08 -2.95254e-06 0)
(5.69023e-08 -2.96293e-06 0)
(5.68111e-08 -2.97326e-06 0)
(5.67199e-08 -2.98352e-06 0)
(5.66288e-08 -2.99372e-06 0)
(5.65379e-08 -3.00386e-06 0)
(5.64471e-08 -3.01393e-06 0)
(5.63564e-08 -3.02394e-06 0)
(5.62659e-08 -3.03389e-06 0)
(5.61754e-08 -3.04378e-06 0)
(5.60852e-08 -3.05361e-06 0)
(5.59949e-08 -3.06337e-06 0)
(5.59057e-08 -3.07311e-06 0)
(5.58138e-08 -3.08265e-06 0)
(5.57253e-08 -3.09139e-06 0)
(5.56475e-08 -3.09935e-06 0)
(5.55736e-08 -3.10707e-06 0)
(5.54998e-08 -3.11481e-06 0)
(5.54259e-08 -3.12263e-06 0)
(5.53516e-08 -3.13048e-06 0)
(5.52771e-08 -3.13832e-06 0)
(5.52021e-08 -3.14616e-06 0)
(5.51268e-08 -3.154e-06 0)
(5.50512e-08 -3.16186e-06 0)
(5.49752e-08 -3.16973e-06 0)
(5.48989e-08 -3.1776e-06 0)
(5.48222e-08 -3.18548e-06 0)
(5.47452e-08 -3.19337e-06 0)
(5.46677e-08 -3.20126e-06 0)
(5.459e-08 -3.20916e-06 0)
(5.45119e-08 -3.21707e-06 0)
(5.44334e-08 -3.22499e-06 0)
(5.43545e-08 -3.23292e-06 0)
(5.42753e-08 -3.24085e-06 0)
(5.41957e-08 -3.24879e-06 0)
(5.41158e-08 -3.25673e-06 0)
(5.40355e-08 -3.26468e-06 0)
(5.39549e-08 -3.27264e-06 0)
(5.38738e-08 -3.28061e-06 0)
(5.37924e-08 -3.28858e-06 0)
(5.37107e-08 -3.29656e-06 0)
(5.36285e-08 -3.30455e-06 0)
(5.3546e-08 -3.31254e-06 0)
(5.34631e-08 -3.32054e-06 0)
(5.33799e-08 -3.32855e-06 0)
(5.32963e-08 -3.33656e-06 0)
(5.32123e-08 -3.34458e-06 0)
(5.31279e-08 -3.3526e-06 0)
(5.30432e-08 -3.36063e-06 0)
(5.2958e-08 -3.36867e-06 0)
(5.28725e-08 -3.37671e-06 0)
(5.27867e-08 -3.38476e-06 0)
(5.27004e-08 -3.39282e-06 0)
(5.26138e-08 -3.40088e-06 0)
(5.25268e-08 -3.40894e-06 0)
(5.24394e-08 -3.41701e-06 0)
(5.23516e-08 -3.42509e-06 0)
(5.22634e-08 -3.43317e-06 0)
(5.21749e-08 -3.44126e-06 0)
(5.20859e-08 -3.44935e-06 0)
(5.19966e-08 -3.45745e-06 0)
(5.19069e-08 -3.46556e-06 0)
(5.18168e-08 -3.47367e-06 0)
(5.17263e-08 -3.48178e-06 0)
(5.16354e-08 -3.4899e-06 0)
(5.15442e-08 -3.49802e-06 0)
(5.14525e-08 -3.50615e-06 0)
(5.13605e-08 -3.51428e-06 0)
(5.12681e-08 -3.52242e-06 0)
(5.11752e-08 -3.53056e-06 0)
(5.1082e-08 -3.53871e-06 0)
(5.09884e-08 -3.54686e-06 0)
(5.08944e-08 -3.55501e-06 0)
(5.08e-08 -3.56317e-06 0)
(5.07052e-08 -3.57133e-06 0)
(5.061e-08 -3.5795e-06 0)
(5.05144e-08 -3.58767e-06 0)
(5.04184e-08 -3.59585e-06 0)
(5.0322e-08 -3.60402e-06 0)
(5.02252e-08 -3.61221e-06 0)
(5.0128e-08 -3.62039e-06 0)
(5.00304e-08 -3.62858e-06 0)
(4.99324e-08 -3.63677e-06 0)
(4.9834e-08 -3.64497e-06 0)
(4.97352e-08 -3.65316e-06 0)
(4.9636e-08 -3.66136e-06 0)
(4.95364e-08 -3.66957e-06 0)
(4.94364e-08 -3.67777e-06 0)
(4.9336e-08 -3.68598e-06 0)
(4.92352e-08 -3.6942e-06 0)
(4.91339e-08 -3.70241e-06 0)
(4.90323e-08 -3.71063e-06 0)
(4.89303e-08 -3.71885e-06 0)
(4.88278e-08 -3.72707e-06 0)
(4.8725e-08 -3.73529e-06 0)
(4.86217e-08 -3.74352e-06 0)
(4.85181e-08 -3.75174e-06 0)
(4.8414e-08 -3.75997e-06 0)
(4.83095e-08 -3.7682e-06 0)
(4.82046e-08 -3.77644e-06 0)
(4.80993e-08 -3.78467e-06 0)
(4.79936e-08 -3.7929e-06 0)
(4.78875e-08 -3.80114e-06 0)
(4.7781e-08 -3.80938e-06 0)
(4.7674e-08 -3.81761e-06 0)
(4.75667e-08 -3.82585e-06 0)
(4.74589e-08 -3.83409e-06 0)
(4.73508e-08 -3.84233e-06 0)
(4.72422e-08 -3.85058e-06 0)
(4.71332e-08 -3.85882e-06 0)
(4.70238e-08 -3.86706e-06 0)
(4.6914e-08 -3.8753e-06 0)
(4.68037e-08 -3.88354e-06 0)
(4.66931e-08 -3.89179e-06 0)
(4.65821e-08 -3.90003e-06 0)
(4.64706e-08 -3.90827e-06 0)
(4.63587e-08 -3.91651e-06 0)
(4.62465e-08 -3.92475e-06 0)
(4.61338e-08 -3.93299e-06 0)
(4.60207e-08 -3.94123e-06 0)
(4.59071e-08 -3.94947e-06 0)
(4.57932e-08 -3.95771e-06 0)
(4.56789e-08 -3.96594e-06 0)
(4.55641e-08 -3.97418e-06 0)
(4.5449e-08 -3.98241e-06 0)
(4.53334e-08 -3.99064e-06 0)
(4.52174e-08 -3.99887e-06 0)
(4.5101e-08 -4.0071e-06 0)
(4.49842e-08 -4.01533e-06 0)
(4.4867e-08 -4.02355e-06 0)
(4.47494e-08 -4.03178e-06 0)
(4.46314e-08 -4.04e-06 0)
(4.45129e-08 -4.04822e-06 0)
(4.43941e-08 -4.05643e-06 0)
(4.42748e-08 -4.06464e-06 0)
(4.41552e-08 -4.07285e-06 0)
(4.40351e-08 -4.08106e-06 0)
(4.39146e-08 -4.08926e-06 0)
(4.37937e-08 -4.09746e-06 0)
(4.36724e-08 -4.10566e-06 0)
(4.35507e-08 -4.11386e-06 0)
(4.34287e-08 -4.12205e-06 0)
(4.33061e-08 -4.13023e-06 0)
(4.31832e-08 -4.13841e-06 0)
(4.30599e-08 -4.14659e-06 0)
(4.29362e-08 -4.15477e-06 0)
(4.28121e-08 -4.16294e-06 0)
(4.26876e-08 -4.1711e-06 0)
(4.25627e-08 -4.17926e-06 0)
(4.24374e-08 -4.18742e-06 0)
(4.23116e-08 -4.19557e-06 0)
(4.21855e-08 -4.20372e-06 0)
(4.2059e-08 -4.21186e-06 0)
(4.19321e-08 -4.21999e-06 0)
(4.18048e-08 -4.22812e-06 0)
(4.16771e-08 -4.23625e-06 0)
(4.1549e-08 -4.24436e-06 0)
(4.14205e-08 -4.25248e-06 0)
(4.12917e-08 -4.26058e-06 0)
(4.11624e-08 -4.26868e-06 0)
(4.10328e-08 -4.27678e-06 0)
(4.09027e-08 -4.28486e-06 0)
(4.07723e-08 -4.29294e-06 0)
(4.06415e-08 -4.30102e-06 0)
(4.05103e-08 -4.30908e-06 0)
(4.03787e-08 -4.31714e-06 0)
(4.02467e-08 -4.32519e-06 0)
(4.01144e-08 -4.33324e-06 0)
(3.99817e-08 -4.34127e-06 0)
(3.98486e-08 -4.3493e-06 0)
(3.97151e-08 -4.35732e-06 0)
(3.95812e-08 -4.36534e-06 0)
(3.9447e-08 -4.37334e-06 0)
(3.93124e-08 -4.38134e-06 0)
(3.91774e-08 -4.38933e-06 0)
(3.90421e-08 -4.39731e-06 0)
(3.89063e-08 -4.40527e-06 0)
(3.87703e-08 -4.41324e-06 0)
(3.86338e-08 -4.42119e-06 0)
(3.8497e-08 -4.42913e-06 0)
(3.83598e-08 -4.43706e-06 0)
(3.82223e-08 -4.44499e-06 0)
(3.80844e-08 -4.4529e-06 0)
(3.79462e-08 -4.4608e-06 0)
(3.78076e-08 -4.46869e-06 0)
(3.76693e-08 -4.4766e-06 0)
(3.75306e-08 -4.48441e-06 0)
(3.73928e-08 -4.49183e-06 0)
(3.72624e-08 -4.49894e-06 0)
(3.71366e-08 -4.50596e-06 0)
(3.70095e-08 -4.51303e-06 0)
(3.68813e-08 -4.52019e-06 0)
(3.67516e-08 -4.52742e-06 0)
(3.66206e-08 -4.53469e-06 0)
(3.64881e-08 -4.54201e-06 0)
(3.63541e-08 -4.54938e-06 0)
(3.62187e-08 -4.5568e-06 0)
(3.60818e-08 -4.56428e-06 0)
(3.59433e-08 -4.57181e-06 0)
(3.58034e-08 -4.57939e-06 0)
(3.56619e-08 -4.58703e-06 0)
(3.55189e-08 -4.59472e-06 0)
(3.53744e-08 -4.60245e-06 0)
(3.52283e-08 -4.61025e-06 0)
(3.50806e-08 -4.61809e-06 0)
(3.49313e-08 -4.62598e-06 0)
(3.47804e-08 -4.63393e-06 0)
(3.46279e-08 -4.64193e-06 0)
(3.44738e-08 -4.64997e-06 0)
(3.43181e-08 -4.65807e-06 0)
(3.41607e-08 -4.66622e-06 0)
(3.40016e-08 -4.67443e-06 0)
(3.38408e-08 -4.68268e-06 0)
(3.36784e-08 -4.69098e-06 0)
(3.35143e-08 -4.69933e-06 0)
(3.33484e-08 -4.70773e-06 0)
(3.31808e-08 -4.71618e-06 0)
(3.30115e-08 -4.72467e-06 0)
(3.28405e-08 -4.73322e-06 0)
(3.26677e-08 -4.74181e-06 0)
(3.24931e-08 -4.75045e-06 0)
(3.23167e-08 -4.75914e-06 0)
(3.21385e-08 -4.76787e-06 0)
(3.19585e-08 -4.77665e-06 0)
(3.17767e-08 -4.78547e-06 0)
(3.15931e-08 -4.79435e-06 0)
(3.14077e-08 -4.80326e-06 0)
(3.12204e-08 -4.81222e-06 0)
(3.10312e-08 -4.82121e-06 0)
(3.08402e-08 -4.83026e-06 0)
(3.06473e-08 -4.83934e-06 0)
(3.04526e-08 -4.84846e-06 0)
(3.02559e-08 -4.85763e-06 0)
(3.00574e-08 -4.86683e-06 0)
(2.98569e-08 -4.87607e-06 0)
(2.96545e-08 -4.88535e-06 0)
(2.94502e-08 -4.89467e-06 0)
(2.9244e-08 -4.90402e-06 0)
(2.90359e-08 -4.9134e-06 0)
(2.88258e-08 -4.92283e-06 0)
(2.86138e-08 -4.93228e-06 0)
(2.83998e-08 -4.94176e-06 0)
(2.81839e-08 -4.95128e-06 0)
(2.7966e-08 -4.96082e-06 0)
(2.77462e-08 -4.9704e-06 0)
(2.75244e-08 -4.98e-06 0)
(2.73006e-08 -4.98962e-06 0)
(2.70749e-08 -4.99928e-06 0)
(2.68473e-08 -5.00895e-06 0)
(2.66177e-08 -5.01865e-06 0)
(2.63861e-08 -5.02837e-06 0)
(2.61525e-08 -5.0381e-06 0)
(2.5917e-08 -5.04786e-06 0)
(2.56796e-08 -5.05763e-06 0)
(2.54402e-08 -5.06741e-06 0)
(2.51989e-08 -5.07722e-06 0)
(2.49556e-08 -5.08702e-06 0)
(2.47105e-08 -5.09685e-06 0)
(2.44633e-08 -5.10667e-06 0)
(2.42143e-08 -5.11651e-06 0)
(2.39634e-08 -5.12635e-06 0)
(2.37106e-08 -5.13619e-06 0)
(2.34559e-08 -5.14603e-06 0)
(2.31993e-08 -5.15588e-06 0)
(2.29409e-08 -5.16572e-06 0)
(2.26807e-08 -5.17555e-06 0)
(2.24186e-08 -5.18538e-06 0)
(2.21547e-08 -5.1952e-06 0)
(2.18891e-08 -5.205e-06 0)
(2.16217e-08 -5.2148e-06 0)
(2.13525e-08 -5.22457e-06 0)
(2.10816e-08 -5.23433e-06 0)
(2.0809e-08 -5.24407e-06 0)
(2.05347e-08 -5.25379e-06 0)
(2.02588e-08 -5.26348e-06 0)
(1.99813e-08 -5.27314e-06 0)
(1.97021e-08 -5.28277e-06 0)
(1.94215e-08 -5.29237e-06 0)
(1.91392e-08 -5.30193e-06 0)
(1.88555e-08 -5.31146e-06 0)
(1.85703e-08 -5.32094e-06 0)
(1.82837e-08 -5.33039e-06 0)
(1.79957e-08 -5.33978e-06 0)
(1.77064e-08 -5.34913e-06 0)
(1.74157e-08 -5.35842e-06 0)
(1.71238e-08 -5.36766e-06 0)
(1.68306e-08 -5.37683e-06 0)
(1.65363e-08 -5.38596e-06 0)
(1.62409e-08 -5.39501e-06 0)
(1.59443e-08 -5.404e-06 0)
(1.56468e-08 -5.41291e-06 0)
(1.53482e-08 -5.42176e-06 0)
(1.50488e-08 -5.43052e-06 0)
(1.47485e-08 -5.43921e-06 0)
(1.44473e-08 -5.44781e-06 0)
(1.41454e-08 -5.45633e-06 0)
(1.38428e-08 -5.46475e-06 0)
(1.35396e-08 -5.47309e-06 0)
(1.32359e-08 -5.48132e-06 0)
(1.29316e-08 -5.48946e-06 0)
(1.26269e-08 -5.49749e-06 0)
(1.23218e-08 -5.50542e-06 0)
(1.20165e-08 -5.51323e-06 0)
(1.17109e-08 -5.52094e-06 0)
(1.14052e-08 -5.52852e-06 0)
(1.10994e-08 -5.53599e-06 0)
(1.07937e-08 -5.54332e-06 0)
(1.0488e-08 -5.55054e-06 0)
(1.01825e-08 -5.55761e-06 0)
(9.87722e-09 -5.56456e-06 0)
(9.57229e-09 -5.57136e-06 0)
(9.26779e-09 -5.57803e-06 0)
(8.96378e-09 -5.58454e-06 0)
(8.66038e-09 -5.59092e-06 0)
(8.35764e-09 -5.59713e-06 0)
(8.05569e-09 -5.60319e-06 0)
(7.75458e-09 -5.60908e-06 0)
(7.45444e-09 -5.61483e-06 0)
(7.15533e-09 -5.62039e-06 0)
(6.85739e-09 -5.62579e-06 0)
(6.56066e-09 -5.63101e-06 0)
(6.26528e-09 -5.63606e-06 0)
(5.97131e-09 -5.64092e-06 0)
(5.67889e-09 -5.64561e-06 0)
(5.38807e-09 -5.65009e-06 0)
(5.099e-09 -5.6544e-06 0)
(4.81174e-09 -5.65851e-06 0)
(4.52641e-09 -5.66243e-06 0)
(4.2431e-09 -5.66613e-06 0)
(3.96193e-09 -5.66965e-06 0)
(3.68297e-09 -5.67295e-06 0)
(3.40635e-09 -5.67605e-06 0)
(3.13216e-09 -5.67893e-06 0)
(2.8605e-09 -5.6816e-06 0)
(2.59147e-09 -5.68405e-06 0)
(2.32518e-09 -5.68629e-06 0)
(2.06172e-09 -5.68829e-06 0)
(1.8012e-09 -5.69009e-06 0)
(1.5437e-09 -5.69164e-06 0)
(1.28934e-09 -5.69298e-06 0)
(1.03821e-09 -5.69407e-06 0)
(7.90395e-10 -5.69495e-06 0)
(5.45999e-10 -5.69557e-06 0)
(3.05115e-10 -5.69598e-06 0)
(6.78305e-11 -5.69612e-06 0)
(-1.65764e-10 -5.69605e-06 0)
(-3.9558e-10 -5.69572e-06 0)
(-6.21536e-10 -5.69517e-06 0)
(-8.43544e-10 -5.69435e-06 0)
(-1.06153e-09 -5.69331e-06 0)
(-1.27541e-09 -5.692e-06 0)
(-1.48511e-09 -5.69047e-06 0)
(-1.69055e-09 -5.68867e-06 0)
(-1.89167e-09 -5.68665e-06 0)
(-2.08838e-09 -5.68436e-06 0)
(-2.28065e-09 -5.68184e-06 0)
(-2.46838e-09 -5.67906e-06 0)
(-2.65153e-09 -5.67605e-06 0)
(-2.83002e-09 -5.67277e-06 0)
(-3.00382e-09 -5.66927e-06 0)
(-3.17285e-09 -5.6655e-06 0)
(-3.33707e-09 -5.66152e-06 0)
(-3.49641e-09 -5.65726e-06 0)
(-3.65085e-09 -5.65279e-06 0)
(-3.80026e-09 -5.64805e-06 0)
(-3.94489e-09 -5.64311e-06 0)
(-4.08367e-09 -5.63787e-06 0)
(-4.22171e-09 -5.63244e-06 0)
(-4.36375e-09 -5.62617e-06 0)
(-4.50717e-09 -5.619e-06 0)
(-4.64651e-09 -5.6115e-06 0)
(-4.77742e-09 -5.60386e-06 0)
(-4.89982e-09 -5.59598e-06 0)
(-5.0139e-09 -5.58795e-06 0)
(-5.1198e-09 -5.57969e-06 0)
(-5.21781e-09 -5.57132e-06 0)
(-5.3081e-09 -5.56275e-06 0)
(-5.39102e-09 -5.55408e-06 0)
(-5.46672e-09 -5.54524e-06 0)
(-5.53555e-09 -5.53633e-06 0)
(-5.59764e-09 -5.52727e-06 0)
(-5.65332e-09 -5.51816e-06 0)
(-5.70272e-09 -5.50892e-06 0)
(-5.74614e-09 -5.49965e-06 0)
(-5.7837e-09 -5.49027e-06 0)
(-5.8157e-09 -5.48088e-06 0)
(-5.84224e-09 -5.4714e-06 0)
(-5.86359e-09 -5.46193e-06 0)
(-5.87985e-09 -5.45238e-06 0)
(-5.89129e-09 -5.44285e-06 0)
(-5.89797e-09 -5.43326e-06 0)
(-5.90016e-09 -5.42372e-06 0)
(-5.89791e-09 -5.41412e-06 0)
(-5.89147e-09 -5.40458e-06 0)
(-5.88088e-09 -5.39501e-06 0)
(-5.86638e-09 -5.38551e-06 0)
(-5.848e-09 -5.37598e-06 0)
(-5.82597e-09 -5.36654e-06 0)
(-5.80031e-09 -5.35709e-06 0)
(-5.77123e-09 -5.34773e-06 0)
(-5.73876e-09 -5.33837e-06 0)
(-5.70308e-09 -5.32911e-06 0)
(-5.66422e-09 -5.31987e-06 0)
(-5.62237e-09 -5.31074e-06 0)
(-5.57752e-09 -5.30164e-06 0)
(-5.52986e-09 -5.29265e-06 0)
(-5.47938e-09 -5.2837e-06 0)
(-5.42627e-09 -5.27488e-06 0)
(-5.3705e-09 -5.2661e-06 0)
(-5.31226e-09 -5.25746e-06 0)
(-5.25152e-09 -5.24888e-06 0)
(-5.18844e-09 -5.24043e-06 0)
(-5.12301e-09 -5.23205e-06 0)
(-5.05538e-09 -5.22382e-06 0)
(-4.98552e-09 -5.21565e-06 0)
(-4.91358e-09 -5.20765e-06 0)
(-4.83954e-09 -5.19972e-06 0)
(-4.76353e-09 -5.19195e-06 0)
(-4.68553e-09 -5.18427e-06 0)
(-4.60567e-09 -5.17675e-06 0)
(-4.52393e-09 -5.16933e-06 0)
(-4.44043e-09 -5.16208e-06 0)
(-4.35515e-09 -5.15493e-06 0)
(-4.26819e-09 -5.14795e-06 0)
(-4.17955e-09 -5.14108e-06 0)
(-4.08932e-09 -5.13439e-06 0)
(-3.9975e-09 -5.12782e-06 0)
(-3.90418e-09 -5.12143e-06 0)
(-3.80934e-09 -5.11515e-06 0)
(-3.71309e-09 -5.10907e-06 0)
(-3.61542e-09 -5.1031e-06 0)
(-3.5164e-09 -5.09733e-06 0)
(-3.41604e-09 -5.09169e-06 0)
(-3.31442e-09 -5.08625e-06 0)
(-3.21154e-09 -5.08094e-06 0)
(-3.10748e-09 -5.07583e-06 0)
(-3.00223e-09 -5.07085e-06 0)
(-2.89587e-09 -5.06608e-06 0)
(-2.78841e-09 -5.06145e-06 0)
(-2.67992e-09 -5.05703e-06 0)
(-2.5704e-09 -5.05275e-06 0)
(-2.45993e-09 -5.04868e-06 0)
(-2.34852e-09 -5.04476e-06 0)
(-2.23622e-09 -5.04105e-06 0)
(-2.12306e-09 -5.0375e-06 0)
(-2.00909e-09 -5.03415e-06 0)
(-1.89433e-09 -5.03096e-06 0)
(-1.77885e-09 -5.02799e-06 0)
(-1.66265e-09 -5.02518e-06 0)
(-1.5458e-09 -5.02258e-06 0)
(-1.42832e-09 -5.02015e-06 0)
(-1.31027e-09 -5.01793e-06 0)
(-1.19167e-09 -5.01587e-06 0)
(-1.0726e-09 -5.01406e-06 0)
(-9.53103e-10 -5.0123e-06 0)
(-8.33263e-10 -5.01119e-06 0)
(-7.131e-10 -5.00876e-06 0)
(-5.92896e-10 -5.0115e-06 0)
(-4.72146e-10 -4.99759e-06 0)
(-3.52608e-10 -5.03759e-06 0)
(-2.29668e-10 -4.88631e-06 0)
(-1.15054e-10 -5.28737e-06 0)
(-3.22792e-11 -4.6179e-06 0)
)
;
    }
    bottomWall
    {
        type            calculated;
        value           nonuniform List<vector> 
449
(
(-52.7051 -0.955569 0)
(-34.7361 -0.0027984 0)
(-34.3485 -0.000254212 0)
(-32.9871 -0.000363173 0)
(-31.8621 -0.000315087 0)
(-30.826 -0.000284184 0)
(-29.909 -0.00024924 0)
(-29.1094 -0.000217322 0)
(-28.4089 -0.000190765 0)
(-27.7897 -0.000169002 0)
(-27.2372 -0.000150989 0)
(-26.7405 -0.00013589 0)
(-26.2908 -0.000123239 0)
(-25.8803 -0.000112557 0)
(-25.5033 -0.000103343 0)
(-25.1556 -9.53389e-05 0)
(-24.8332 -8.83471e-05 0)
(-24.5332 -8.2211e-05 0)
(-24.2527 -7.68052e-05 0)
(-23.9896 -7.19853e-05 0)
(-23.7421 -6.76626e-05 0)
(-23.5086 -6.37751e-05 0)
(-23.2876 -6.0268e-05 0)
(-23.0781 -5.70849e-05 0)
(-22.8789 -5.41871e-05 0)
(-22.6892 -5.15279e-05 0)
(-22.5083 -4.909e-05 0)
(-22.3353 -4.6849e-05 0)
(-22.1697 -4.47816e-05 0)
(-22.011 -4.28639e-05 0)
(-21.8585 -4.10865e-05 0)
(-21.712 -3.94329e-05 0)
(-21.5709 -3.78946e-05 0)
(-21.435 -3.64545e-05 0)
(-21.3038 -3.5109e-05 0)
(-21.1771 -3.38455e-05 0)
(-21.0546 -3.26627e-05 0)
(-20.936 -3.15529e-05 0)
(-20.8212 -3.05086e-05 0)
(-20.7098 -2.95232e-05 0)
(-20.6018 -2.85925e-05 0)
(-20.4969 -2.77128e-05 0)
(-20.3949 -2.68788e-05 0)
(-20.2957 -2.60846e-05 0)
(-20.1992 -2.53275e-05 0)
(-20.1053 -2.46034e-05 0)
(-20.0138 -2.39118e-05 0)
(-19.9246 -2.32525e-05 0)
(-19.8377 -2.26162e-05 0)
(-19.753 -2.20136e-05 0)
(-19.6703 -2.14347e-05 0)
(-19.5896 -2.08805e-05 0)
(-19.5107 -2.03558e-05 0)
(-19.4336 -1.98473e-05 0)
(-19.3583 -1.9366e-05 0)
(-19.2845 -1.89024e-05 0)
(-19.2124 -1.84613e-05 0)
(-19.1418 -1.80367e-05 0)
(-19.0726 -1.76304e-05 0)
(-19.0048 -1.72388e-05 0)
(-18.9384 -1.68632e-05 0)
(-18.8732 -1.65017e-05 0)
(-18.8092 -1.61532e-05 0)
(-18.7465 -1.58186e-05 0)
(-18.6849 -1.54942e-05 0)
(-18.6244 -1.51838e-05 0)
(-18.565 -1.48806e-05 0)
(-18.5066 -1.45916e-05 0)
(-18.4492 -1.43078e-05 0)
(-18.3928 -1.4037e-05 0)
(-18.3373 -1.3772e-05 0)
(-18.2827 -1.35161e-05 0)
(-18.229 -1.32697e-05 0)
(-18.1762 -1.30268e-05 0)
(-18.1241 -1.27963e-05 0)
(-18.0729 -1.25677e-05 0)
(-18.0225 -1.23487e-05 0)
(-17.9728 -1.21352e-05 0)
(-17.9239 -1.19258e-05 0)
(-17.8757 -1.17262e-05 0)
(-17.8282 -1.15281e-05 0)
(-17.7814 -1.13377e-05 0)
(-17.7352 -1.11525e-05 0)
(-17.6897 -1.09699e-05 0)
(-17.6448 -1.07952e-05 0)
(-17.6006 -1.06231e-05 0)
(-17.5569 -1.04553e-05 0)
(-17.5138 -1.02936e-05 0)
(-17.4713 -1.01339e-05 0)
(-17.4293 -9.97912e-06 0)
(-17.3879 -9.82899e-06 0)
(-17.347 -9.6809e-06 0)
(-17.3066 -9.53762e-06 0)
(-17.2667 -9.39795e-06 0)
(-17.2273 -9.26036e-06 0)
(-17.1884 -9.12723e-06 0)
(-17.15 -8.9971e-06 0)
(-17.112 -8.8691e-06 0)
(-17.0745 -8.74496e-06 0)
(-17.0374 -8.62368e-06 0)
(-17.0007 -8.50428e-06 0)
(-16.9644 -8.38839e-06 0)
(-16.9286 -8.27502e-06 0)
(-16.8931 -8.16359e-06 0)
(-16.8581 -8.05492e-06 0)
(-16.8234 -7.94892e-06 0)
(-16.7891 -7.84456e-06 0)
(-16.7552 -7.74265e-06 0)
(-16.7216 -7.64319e-06 0)
(-16.6884 -7.54543e-06 0)
(-16.6555 -7.44962e-06 0)
(-16.623 -7.35621e-06 0)
(-16.5908 -7.26441e-06 0)
(-16.5589 -7.17433e-06 0)
(-16.5273 -7.08629e-06 0)
(-16.4961 -6.99997e-06 0)
(-16.4652 -6.91513e-06 0)
(-16.4345 -6.832e-06 0)
(-16.4042 -6.75063e-06 0)
(-16.3741 -6.67067e-06 0)
(-16.3444 -6.59221e-06 0)
(-16.3149 -6.51533e-06 0)
(-16.2857 -6.43988e-06 0)
(-16.2567 -6.3657e-06 0)
(-16.228 -6.29296e-06 0)
(-16.1996 -6.22158e-06 0)
(-16.1715 -6.15144e-06 0)
(-16.1435 -6.08246e-06 0)
(-16.1159 -6.01486e-06 0)
(-16.0884 -5.94831e-06 0)
(-16.0613 -5.88301e-06 0)
(-16.0343 -5.81873e-06 0)
(-16.0076 -5.75573e-06 0)
(-15.9811 -5.69367e-06 0)
(-15.9548 -5.63278e-06 0)
(-15.9288 -5.57278e-06 0)
(-15.9029 -5.51394e-06 0)
(-15.8773 -5.45591e-06 0)
(-15.8519 -5.39897e-06 0)
(-15.8267 -5.34279e-06 0)
(-15.8017 -5.28771e-06 0)
(-15.7768 -5.23333e-06 0)
(-15.7522 -5.18001e-06 0)
(-15.7278 -5.12736e-06 0)
(-15.7036 -5.07572e-06 0)
(-15.6795 -5.02474e-06 0)
(-15.6557 -4.97471e-06 0)
(-15.632 -4.92533e-06 0)
(-15.6085 -4.8768e-06 0)
(-15.5852 -4.82898e-06 0)
(-15.562 -4.78187e-06 0)
(-15.539 -4.7355e-06 0)
(-15.5162 -4.68975e-06 0)
(-15.4936 -4.64477e-06 0)
(-15.4711 -4.60035e-06 0)
(-15.4488 -4.55672e-06 0)
(-15.4266 -4.51357e-06 0)
(-15.4046 -4.47118e-06 0)
(-15.3828 -4.42929e-06 0)
(-15.3611 -4.38815e-06 0)
(-15.3396 -4.34743e-06 0)
(-15.3182 -4.30744e-06 0)
(-15.2969 -4.2679e-06 0)
(-15.2758 -4.22903e-06 0)
(-15.2549 -4.19062e-06 0)
(-15.234 -4.1528e-06 0)
(-15.2134 -4.11548e-06 0)
(-15.1928 -4.07863e-06 0)
(-15.1724 -4.04243e-06 0)
(-15.1521 -4.00644e-06 0)
(-15.132 -3.97128e-06 0)
(-15.112 -3.93628e-06 0)
(-15.0921 -3.90011e-06 0)
(-15.0735 -3.87058e-06 0)
(-15.0559 -3.84372e-06 0)
(-15.0383 -3.81244e-06 0)
(-15.0207 -3.78182e-06 0)
(-15.003 -3.75178e-06 0)
(-14.9852 -3.72171e-06 0)
(-14.9674 -3.69198e-06 0)
(-14.9496 -3.66229e-06 0)
(-14.9317 -3.63283e-06 0)
(-14.9138 -3.60348e-06 0)
(-14.8958 -3.57426e-06 0)
(-14.8777 -3.54518e-06 0)
(-14.8596 -3.51619e-06 0)
(-14.8415 -3.48738e-06 0)
(-14.8233 -3.45863e-06 0)
(-14.8051 -3.43007e-06 0)
(-14.7868 -3.40151e-06 0)
(-14.7685 -3.37322e-06 0)
(-14.7502 -3.34497e-06 0)
(-14.7318 -3.31694e-06 0)
(-14.7133 -3.2889e-06 0)
(-14.6948 -3.26108e-06 0)
(-14.6763 -3.23329e-06 0)
(-14.6577 -3.20572e-06 0)
(-14.6391 -3.17821e-06 0)
(-14.6205 -3.15086e-06 0)
(-14.6018 -3.12361e-06 0)
(-14.583 -3.09655e-06 0)
(-14.5643 -3.0696e-06 0)
(-14.5454 -3.04278e-06 0)
(-14.5266 -3.01604e-06 0)
(-14.5077 -2.9895e-06 0)
(-14.4888 -2.96303e-06 0)
(-14.4698 -2.93679e-06 0)
(-14.4508 -2.91056e-06 0)
(-14.4318 -2.88457e-06 0)
(-14.4127 -2.8586e-06 0)
(-14.3936 -2.83289e-06 0)
(-14.3745 -2.80721e-06 0)
(-14.3553 -2.78175e-06 0)
(-14.3361 -2.75635e-06 0)
(-14.3169 -2.73119e-06 0)
(-14.2977 -2.70614e-06 0)
(-14.2784 -2.68122e-06 0)
(-14.259 -2.65647e-06 0)
(-14.2397 -2.63179e-06 0)
(-14.2203 -2.60738e-06 0)
(-14.2009 -2.58295e-06 0)
(-14.1815 -2.55879e-06 0)
(-14.162 -2.53467e-06 0)
(-14.1425 -2.51081e-06 0)
(-14.123 -2.48696e-06 0)
(-14.1035 -2.46336e-06 0)
(-14.084 -2.43975e-06 0)
(-14.0644 -2.41655e-06 0)
(-14.0448 -2.39321e-06 0)
(-14.0251 -2.37026e-06 0)
(-14.0055 -2.34725e-06 0)
(-13.9858 -2.32461e-06 0)
(-13.9661 -2.30188e-06 0)
(-13.9464 -2.27951e-06 0)
(-13.9267 -2.25709e-06 0)
(-13.9069 -2.23502e-06 0)
(-13.8872 -2.21289e-06 0)
(-13.8674 -2.1911e-06 0)
(-13.8476 -2.16922e-06 0)
(-13.8278 -2.14776e-06 0)
(-13.8079 -2.12621e-06 0)
(-13.7881 -2.10503e-06 0)
(-13.7682 -2.08377e-06 0)
(-13.7483 -2.06296e-06 0)
(-13.7284 -2.042e-06 0)
(-13.7086 -2.02141e-06 0)
(-13.6886 -2.00076e-06 0)
(-13.6687 -1.98049e-06 0)
(-13.6488 -1.96011e-06 0)
(-13.6288 -1.9401e-06 0)
(-13.6088 -1.92004e-06 0)
(-13.5889 -1.90037e-06 0)
(-13.5689 -1.88062e-06 0)
(-13.5489 -1.86118e-06 0)
(-13.5289 -1.84176e-06 0)
(-13.509 -1.82262e-06 0)
(-13.4889 -1.80353e-06 0)
(-13.4689 -1.78462e-06 0)
(-13.4489 -1.76585e-06 0)
(-13.4289 -1.74725e-06 0)
(-13.4089 -1.72875e-06 0)
(-13.3889 -1.71041e-06 0)
(-13.3688 -1.69226e-06 0)
(-13.3488 -1.67422e-06 0)
(-13.3287 -1.6563e-06 0)
(-13.3087 -1.63853e-06 0)
(-13.2887 -1.62096e-06 0)
(-13.2687 -1.60347e-06 0)
(-13.2486 -1.58616e-06 0)
(-13.2286 -1.56898e-06 0)
(-13.2086 -1.55201e-06 0)
(-13.1886 -1.53505e-06 0)
(-13.1685 -1.51832e-06 0)
(-13.1485 -1.50166e-06 0)
(-13.1285 -1.48534e-06 0)
(-13.1085 -1.4689e-06 0)
(-13.0885 -1.4528e-06 0)
(-13.0685 -1.43666e-06 0)
(-13.0485 -1.42088e-06 0)
(-13.0285 -1.40497e-06 0)
(-13.0085 -1.38945e-06 0)
(-12.9885 -1.3739e-06 0)
(-12.9686 -1.35867e-06 0)
(-12.9486 -1.34331e-06 0)
(-12.9287 -1.32837e-06 0)
(-12.9087 -1.31331e-06 0)
(-12.8888 -1.29861e-06 0)
(-12.8689 -1.28378e-06 0)
(-12.849 -1.2694e-06 0)
(-12.8291 -1.25484e-06 0)
(-12.8092 -1.24071e-06 0)
(-12.7894 -1.22645e-06 0)
(-12.7695 -1.21257e-06 0)
(-12.7497 -1.19854e-06 0)
(-12.7298 -1.18494e-06 0)
(-12.71 -1.17117e-06 0)
(-12.6902 -1.15782e-06 0)
(-12.6704 -1.14434e-06 0)
(-12.6507 -1.13117e-06 0)
(-12.6309 -1.11799e-06 0)
(-12.6112 -1.10511e-06 0)
(-12.5915 -1.09215e-06 0)
(-12.5718 -1.07952e-06 0)
(-12.5521 -1.06683e-06 0)
(-12.5325 -1.05442e-06 0)
(-12.5128 -1.04192e-06 0)
(-12.4932 -1.02975e-06 0)
(-12.4736 -1.01759e-06 0)
(-12.4541 -1.00565e-06 0)
(-12.4345 -9.93721e-07 0)
(-12.415 -9.81994e-07 0)
(-12.3954 -9.70301e-07 0)
(-12.376 -9.58802e-07 0)
(-12.3564 -9.47368e-07 0)
(-12.337 -9.36058e-07 0)
(-12.3176 -9.24851e-07 0)
(-12.2982 -9.13778e-07 0)
(-12.2788 -9.02815e-07 0)
(-12.2595 -8.91965e-07 0)
(-12.2401 -8.81216e-07 0)
(-12.2209 -8.70586e-07 0)
(-12.2016 -8.60097e-07 0)
(-12.1824 -8.49674e-07 0)
(-12.1631 -8.39381e-07 0)
(-12.1439 -8.2916e-07 0)
(-12.1247 -8.19113e-07 0)
(-12.1056 -8.09101e-07 0)
(-12.0865 -7.99262e-07 0)
(-12.0674 -7.89439e-07 0)
(-12.0484 -7.79821e-07 0)
(-12.0294 -7.70216e-07 0)
(-12.0103 -7.60788e-07 0)
(-11.9914 -7.51353e-07 0)
(-11.9724 -7.42164e-07 0)
(-11.9536 -7.32932e-07 0)
(-11.9347 -7.23926e-07 0)
(-11.9159 -7.14869e-07 0)
(-11.897 -7.06083e-07 0)
(-11.8783 -6.97246e-07 0)
(-11.8595 -6.88641e-07 0)
(-11.8408 -6.80006e-07 0)
(-11.8221 -6.71589e-07 0)
(-11.8035 -6.63137e-07 0)
(-11.7848 -6.54896e-07 0)
(-11.7663 -6.4664e-07 0)
(-11.7477 -6.38557e-07 0)
(-11.7292 -6.30506e-07 0)
(-11.7107 -6.22569e-07 0)
(-11.6923 -6.14718e-07 0)
(-11.6738 -6.06928e-07 0)
(-11.6555 -5.99279e-07 0)
(-11.6371 -5.91552e-07 0)
(-11.6188 -5.8419e-07 0)
(-11.6005 -5.76632e-07 0)
(-11.5803 -5.67708e-07 0)
(-11.5582 -5.58537e-07 0)
(-11.5366 -5.50337e-07 0)
(-11.5152 -5.4234e-07 0)
(-11.4941 -5.34361e-07 0)
(-11.4733 -5.26591e-07 0)
(-11.4529 -5.19003e-07 0)
(-11.4327 -5.11572e-07 0)
(-11.4129 -5.04331e-07 0)
(-11.3932 -4.97279e-07 0)
(-11.3739 -4.90371e-07 0)
(-11.3548 -4.83622e-07 0)
(-11.3361 -4.77036e-07 0)
(-11.3175 -4.70616e-07 0)
(-11.2992 -4.64308e-07 0)
(-11.2811 -4.58203e-07 0)
(-11.2634 -4.52178e-07 0)
(-11.2458 -4.46331e-07 0)
(-11.2284 -4.40557e-07 0)
(-11.2113 -4.34965e-07 0)
(-11.1944 -4.29459e-07 0)
(-11.1776 -4.2412e-07 0)
(-11.1612 -4.18844e-07 0)
(-11.1449 -4.13711e-07 0)
(-11.1288 -4.08671e-07 0)
(-11.1129 -4.03738e-07 0)
(-11.0972 -3.98938e-07 0)
(-11.0816 -3.942e-07 0)
(-11.0663 -3.89565e-07 0)
(-11.0512 -3.85043e-07 0)
(-11.0362 -3.80599e-07 0)
(-11.0214 -3.76229e-07 0)
(-11.0067 -3.71966e-07 0)
(-10.9922 -3.67787e-07 0)
(-10.978 -3.63705e-07 0)
(-10.9638 -3.59701e-07 0)
(-10.9498 -3.55762e-07 0)
(-10.9359 -3.51909e-07 0)
(-10.9223 -3.48117e-07 0)
(-10.9087 -3.44411e-07 0)
(-10.8953 -3.40761e-07 0)
(-10.882 -3.37176e-07 0)
(-10.8689 -3.33664e-07 0)
(-10.8559 -3.30221e-07 0)
(-10.8431 -3.26815e-07 0)
(-10.8303 -3.23509e-07 0)
(-10.8177 -3.2022e-07 0)
(-10.8052 -3.17031e-07 0)
(-10.7929 -3.13861e-07 0)
(-10.7807 -3.10783e-07 0)
(-10.7686 -3.07719e-07 0)
(-10.7566 -3.04766e-07 0)
(-10.7447 -3.01829e-07 0)
(-10.733 -2.98941e-07 0)
(-10.7213 -2.96119e-07 0)
(-10.7098 -2.93336e-07 0)
(-10.6984 -2.90602e-07 0)
(-10.687 -2.87905e-07 0)
(-10.6758 -2.85272e-07 0)
(-10.6647 -2.82649e-07 0)
(-10.6537 -2.80132e-07 0)
(-10.6428 -2.77584e-07 0)
(-10.632 -2.75178e-07 0)
(-10.6212 -2.72672e-07 0)
(-10.6106 -2.7039e-07 0)
(-10.6001 -2.6794e-07 0)
(-10.5897 -2.65771e-07 0)
(-10.5793 -2.63323e-07 0)
(-10.5691 -2.6132e-07 0)
(-10.5588 -2.58878e-07 0)
(-10.5488 -2.56997e-07 0)
(-10.5387 -2.54572e-07 0)
(-10.5289 -2.52869e-07 0)
(-10.5189 -2.50434e-07 0)
(-10.5093 -2.48924e-07 0)
(-10.4994 -2.46462e-07 0)
(-10.49 -2.45143e-07 0)
(-10.4802 -2.42693e-07 0)
(-10.471 -2.41518e-07 0)
(-10.4613 -2.39109e-07 0)
(-10.4523 -2.3802e-07 0)
(-10.4427 -2.35796e-07 0)
(-10.4338 -2.3464e-07 0)
(-10.4244 -2.32918e-07 0)
(-10.4156 -2.31197e-07 0)
(-10.4063 -2.30924e-07 0)
(-10.3975 -2.27032e-07 0)
(-10.3885 -2.3123e-07 0)
(-10.3794 -2.19873e-07 0)
(-10.3713 -2.37741e-07 0)
(-10.3607 -2.03042e-07 0)
(-10.3555 -2.5711e-07 0)
(-10.3405 -1.69505e-07 0)
(-10.3425 -2.31258e-07 0)
(-10.3219 -2.69863e-07 0)
)
;
    }
    symmetry
    {
        type            symmetryPlane;
    }
    frontAndBack
    {
        type            empty;
    }
}


// ************************************************************************* //
