/*--------------------------------*- C++ -*----------------------------------*\
| =========                 |                                                 |
| \\      /  F ield         | OpenFOAM: The Open Source CFD Toolbox           |
|  \\    /   O peration     | Version:  v2012                                 |
|   \\  /    A nd           | Website:  www.openfoam.com                      |
|    \\/     M anipulation  |                                                 |
\*---------------------------------------------------------------------------*/
FoamFile
{
    version     2.0;
    format      ascii;
    class       volScalarField;
    location    "4";
    object      nut;
}
// * * * * * * * * * * * * * * * * * * * * * * * * * * * * * * * * * * * * * //

dimensions      [0 2 -1 0 0 0 0];


internalField   nonuniform List<scalar> 
209825
(
1.25365e-07
1.26181e-07
1.265e-07
1.26648e-07
1.26731e-07
1.2678e-07
1.26812e-07
1.26833e-07
1.26848e-07
1.26858e-07
1.26866e-07
1.26871e-07
1.26876e-07
1.26879e-07
1.26882e-07
1.26884e-07
1.26886e-07
1.26886e-07
1.26887e-07
1.26887e-07
1.26888e-07
1.26887e-07
1.26887e-07
1.26887e-07
1.26887e-07
1.26885e-07
1.26885e-07
1.26883e-07
1.26883e-07
1.26881e-07
1.26881e-07
1.26878e-07
1.26878e-07
1.26876e-07
1.26876e-07
1.26872e-07
1.26872e-07
1.26868e-07
1.26868e-07
1.26864e-07
1.26864e-07
1.26859e-07
1.26859e-07
1.26852e-07
1.26852e-07
1.26848e-07
1.26848e-07
1.26842e-07
1.26842e-07
1.26836e-07
1.26836e-07
1.26825e-07
1.26822e-07
1.26818e-07
1.26816e-07
1.26808e-07
1.26805e-07
1.26807e-07
1.26807e-07
1.26806e-07
1.26806e-07
1.26804e-07
1.26804e-07
1.26793e-07
1.26792e-07
1.26795e-07
1.26796e-07
1.26789e-07
1.26789e-07
1.26774e-07
1.26777e-07
1.26771e-07
1.26772e-07
1.26773e-07
1.26778e-07
1.26765e-07
1.26765e-07
1.26767e-07
1.26769e-07
1.26775e-07
1.26769e-07
1.26782e-07
1.2677e-07
1.26777e-07
1.26796e-07
1.26784e-07
1.26799e-07
1.26813e-07
1.26825e-07
1.26853e-07
1.26914e-07
1.2694e-07
1.27287e-07
1.27339e-07
1.30772e-07
1.48191e-08
1.25365e-07
1.26181e-07
1.26501e-07
1.26649e-07
1.26732e-07
1.26781e-07
1.26813e-07
1.26834e-07
1.26849e-07
1.26859e-07
1.26868e-07
1.26873e-07
1.26878e-07
1.26881e-07
1.26884e-07
1.26885e-07
1.26887e-07
1.26888e-07
1.26889e-07
1.26889e-07
1.2689e-07
1.26889e-07
1.26889e-07
1.26888e-07
1.26888e-07
1.26887e-07
1.26887e-07
1.26885e-07
1.26885e-07
1.26882e-07
1.26882e-07
1.2688e-07
1.2688e-07
1.26877e-07
1.26877e-07
1.26874e-07
1.26874e-07
1.2687e-07
1.2687e-07
1.26865e-07
1.26865e-07
1.26861e-07
1.26861e-07
1.26853e-07
1.26853e-07
1.26849e-07
1.26849e-07
1.26843e-07
1.26843e-07
1.26837e-07
1.26837e-07
1.26827e-07
1.26823e-07
1.26819e-07
1.26818e-07
1.26809e-07
1.26807e-07
1.26808e-07
1.26808e-07
1.26808e-07
1.26808e-07
1.26805e-07
1.26805e-07
1.26794e-07
1.26793e-07
1.26797e-07
1.26797e-07
1.26791e-07
1.26791e-07
1.26775e-07
1.26778e-07
1.26773e-07
1.26774e-07
1.26774e-07
1.26779e-07
1.26766e-07
1.26766e-07
1.26769e-07
1.2677e-07
1.26776e-07
1.2677e-07
1.26783e-07
1.26771e-07
1.26779e-07
1.26798e-07
1.26786e-07
1.268e-07
1.26815e-07
1.26826e-07
1.26854e-07
1.26915e-07
1.26941e-07
1.27289e-07
1.27342e-07
1.30776e-07
1.52504e-08
1.25363e-07
1.2618e-07
1.265e-07
1.26649e-07
1.26733e-07
1.26782e-07
1.26814e-07
1.26835e-07
1.26851e-07
1.26861e-07
1.26869e-07
1.26875e-07
1.2688e-07
1.26883e-07
1.26886e-07
1.26887e-07
1.26889e-07
1.2689e-07
1.26891e-07
1.26891e-07
1.26892e-07
1.26891e-07
1.26891e-07
1.2689e-07
1.2689e-07
1.26889e-07
1.26889e-07
1.26887e-07
1.26887e-07
1.26885e-07
1.26885e-07
1.26882e-07
1.26882e-07
1.26879e-07
1.2688e-07
1.26876e-07
1.26876e-07
1.26872e-07
1.26872e-07
1.26868e-07
1.26868e-07
1.26863e-07
1.26863e-07
1.26855e-07
1.26855e-07
1.26851e-07
1.26851e-07
1.26845e-07
1.26845e-07
1.26839e-07
1.26839e-07
1.26829e-07
1.26825e-07
1.26821e-07
1.2682e-07
1.26811e-07
1.26809e-07
1.2681e-07
1.2681e-07
1.2681e-07
1.2681e-07
1.26807e-07
1.26807e-07
1.26796e-07
1.26795e-07
1.26799e-07
1.26799e-07
1.26793e-07
1.26793e-07
1.26777e-07
1.2678e-07
1.26775e-07
1.26776e-07
1.26776e-07
1.26781e-07
1.26768e-07
1.26768e-07
1.26771e-07
1.26772e-07
1.26778e-07
1.26772e-07
1.26785e-07
1.26773e-07
1.26781e-07
1.268e-07
1.26788e-07
1.26803e-07
1.26817e-07
1.26829e-07
1.26857e-07
1.26918e-07
1.26944e-07
1.27292e-07
1.27347e-07
1.30781e-07
1.5794e-08
1.2536e-07
1.26178e-07
1.265e-07
1.2665e-07
1.26734e-07
1.26784e-07
1.26817e-07
1.26838e-07
1.26854e-07
1.26864e-07
1.26873e-07
1.26878e-07
1.26883e-07
1.26886e-07
1.26889e-07
1.26891e-07
1.26893e-07
1.26894e-07
1.26895e-07
1.26895e-07
1.26896e-07
1.26895e-07
1.26895e-07
1.26894e-07
1.26894e-07
1.26893e-07
1.26893e-07
1.26891e-07
1.26891e-07
1.26889e-07
1.26889e-07
1.26886e-07
1.26886e-07
1.26884e-07
1.26884e-07
1.2688e-07
1.2688e-07
1.26876e-07
1.26876e-07
1.26872e-07
1.26872e-07
1.26867e-07
1.26867e-07
1.26859e-07
1.26859e-07
1.26855e-07
1.26855e-07
1.26849e-07
1.26849e-07
1.26843e-07
1.26843e-07
1.26833e-07
1.26829e-07
1.26825e-07
1.26823e-07
1.26815e-07
1.26812e-07
1.26814e-07
1.26814e-07
1.26813e-07
1.26813e-07
1.26811e-07
1.26811e-07
1.268e-07
1.26799e-07
1.26802e-07
1.26803e-07
1.26796e-07
1.26796e-07
1.26781e-07
1.26784e-07
1.26778e-07
1.26779e-07
1.2678e-07
1.26785e-07
1.26772e-07
1.26772e-07
1.26774e-07
1.26776e-07
1.26782e-07
1.26776e-07
1.26789e-07
1.26777e-07
1.26784e-07
1.26804e-07
1.26792e-07
1.26806e-07
1.26821e-07
1.26833e-07
1.26861e-07
1.26923e-07
1.26949e-07
1.27297e-07
1.27357e-07
1.30787e-07
1.64056e-08
1.25355e-07
1.26176e-07
1.265e-07
1.26651e-07
1.26737e-07
1.26788e-07
1.26821e-07
1.26843e-07
1.26859e-07
1.26869e-07
1.26878e-07
1.26884e-07
1.26889e-07
1.26892e-07
1.26895e-07
1.26897e-07
1.26899e-07
1.269e-07
1.26901e-07
1.26901e-07
1.26902e-07
1.26901e-07
1.26901e-07
1.269e-07
1.269e-07
1.26899e-07
1.26899e-07
1.26897e-07
1.26897e-07
1.26895e-07
1.26895e-07
1.26892e-07
1.26892e-07
1.2689e-07
1.2689e-07
1.26886e-07
1.26886e-07
1.26882e-07
1.26882e-07
1.26878e-07
1.26878e-07
1.26873e-07
1.26873e-07
1.26865e-07
1.26865e-07
1.26861e-07
1.26861e-07
1.26855e-07
1.26855e-07
1.26849e-07
1.26849e-07
1.26839e-07
1.26835e-07
1.26831e-07
1.26829e-07
1.2682e-07
1.26818e-07
1.2682e-07
1.2682e-07
1.26819e-07
1.26819e-07
1.26817e-07
1.26817e-07
1.26805e-07
1.26804e-07
1.26808e-07
1.26809e-07
1.26802e-07
1.26802e-07
1.26786e-07
1.26789e-07
1.26784e-07
1.26784e-07
1.26785e-07
1.26791e-07
1.26777e-07
1.26777e-07
1.26779e-07
1.26781e-07
1.26787e-07
1.26781e-07
1.26794e-07
1.26783e-07
1.2679e-07
1.2681e-07
1.26797e-07
1.26812e-07
1.26827e-07
1.2684e-07
1.26868e-07
1.2693e-07
1.26957e-07
1.27305e-07
1.2737e-07
1.30795e-07
1.70777e-08
1.2535e-07
1.26172e-07
1.265e-07
1.26653e-07
1.26741e-07
1.26792e-07
1.26827e-07
1.26849e-07
1.26865e-07
1.26876e-07
1.26885e-07
1.26891e-07
1.26896e-07
1.26899e-07
1.26903e-07
1.26904e-07
1.26906e-07
1.26907e-07
1.26909e-07
1.26909e-07
1.2691e-07
1.26909e-07
1.26909e-07
1.26908e-07
1.26909e-07
1.26907e-07
1.26907e-07
1.26905e-07
1.26905e-07
1.26903e-07
1.26903e-07
1.269e-07
1.269e-07
1.26898e-07
1.26898e-07
1.26894e-07
1.26894e-07
1.2689e-07
1.2689e-07
1.26886e-07
1.26886e-07
1.26881e-07
1.26881e-07
1.26873e-07
1.26873e-07
1.26869e-07
1.26869e-07
1.26863e-07
1.26863e-07
1.26857e-07
1.26857e-07
1.26846e-07
1.26843e-07
1.26838e-07
1.26837e-07
1.26828e-07
1.26826e-07
1.26827e-07
1.26827e-07
1.26826e-07
1.26826e-07
1.26824e-07
1.26824e-07
1.26813e-07
1.26812e-07
1.26815e-07
1.26816e-07
1.26809e-07
1.26809e-07
1.26794e-07
1.26797e-07
1.26791e-07
1.26792e-07
1.26792e-07
1.26798e-07
1.26785e-07
1.26784e-07
1.26787e-07
1.26789e-07
1.26795e-07
1.26788e-07
1.26802e-07
1.2679e-07
1.26798e-07
1.26817e-07
1.26805e-07
1.2682e-07
1.26836e-07
1.26848e-07
1.26877e-07
1.26939e-07
1.26967e-07
1.27314e-07
1.27389e-07
1.30806e-07
1.78098e-08
1.25344e-07
1.26169e-07
1.265e-07
1.26656e-07
1.26745e-07
1.26798e-07
1.26834e-07
1.26857e-07
1.26873e-07
1.26885e-07
1.26894e-07
1.269e-07
1.26906e-07
1.26909e-07
1.26912e-07
1.26914e-07
1.26916e-07
1.26917e-07
1.26919e-07
1.26919e-07
1.2692e-07
1.26919e-07
1.26919e-07
1.26918e-07
1.26919e-07
1.26917e-07
1.26917e-07
1.26915e-07
1.26915e-07
1.26913e-07
1.26913e-07
1.26911e-07
1.26911e-07
1.26908e-07
1.26908e-07
1.26904e-07
1.26904e-07
1.269e-07
1.269e-07
1.26896e-07
1.26896e-07
1.26891e-07
1.26891e-07
1.26883e-07
1.26883e-07
1.26879e-07
1.26879e-07
1.26873e-07
1.26873e-07
1.26867e-07
1.26867e-07
1.26856e-07
1.26852e-07
1.26848e-07
1.26846e-07
1.26838e-07
1.26835e-07
1.26837e-07
1.26837e-07
1.26836e-07
1.26836e-07
1.26834e-07
1.26834e-07
1.26822e-07
1.26821e-07
1.26825e-07
1.26826e-07
1.26819e-07
1.26819e-07
1.26803e-07
1.26806e-07
1.26801e-07
1.26801e-07
1.26802e-07
1.26807e-07
1.26794e-07
1.26793e-07
1.26796e-07
1.26798e-07
1.26804e-07
1.26798e-07
1.26811e-07
1.268e-07
1.26807e-07
1.26827e-07
1.26815e-07
1.2683e-07
1.26846e-07
1.26859e-07
1.26888e-07
1.26951e-07
1.2698e-07
1.27326e-07
1.27412e-07
1.30823e-07
1.86037e-08
1.25336e-07
1.26165e-07
1.265e-07
1.2666e-07
1.26751e-07
1.26806e-07
1.26842e-07
1.26866e-07
1.26884e-07
1.26895e-07
1.26905e-07
1.26911e-07
1.26917e-07
1.26921e-07
1.26924e-07
1.26926e-07
1.26928e-07
1.26929e-07
1.26931e-07
1.26931e-07
1.26932e-07
1.26931e-07
1.26931e-07
1.26931e-07
1.26931e-07
1.2693e-07
1.2693e-07
1.26928e-07
1.26928e-07
1.26926e-07
1.26926e-07
1.26923e-07
1.26923e-07
1.26921e-07
1.26921e-07
1.26917e-07
1.26917e-07
1.26913e-07
1.26913e-07
1.26909e-07
1.26909e-07
1.26904e-07
1.26904e-07
1.26895e-07
1.26895e-07
1.26891e-07
1.26892e-07
1.26886e-07
1.26886e-07
1.26879e-07
1.26879e-07
1.26869e-07
1.26864e-07
1.2686e-07
1.26858e-07
1.2685e-07
1.26847e-07
1.26848e-07
1.26848e-07
1.26848e-07
1.26848e-07
1.26845e-07
1.26845e-07
1.26833e-07
1.26832e-07
1.26836e-07
1.26838e-07
1.2683e-07
1.2683e-07
1.26814e-07
1.26817e-07
1.26812e-07
1.26812e-07
1.26813e-07
1.26819e-07
1.26805e-07
1.26804e-07
1.26807e-07
1.2681e-07
1.26815e-07
1.26809e-07
1.26823e-07
1.26811e-07
1.26819e-07
1.26839e-07
1.26828e-07
1.26842e-07
1.26859e-07
1.26872e-07
1.26901e-07
1.26966e-07
1.26995e-07
1.27341e-07
1.27439e-07
1.30846e-07
1.94618e-08
1.25328e-07
1.2616e-07
1.26501e-07
1.26664e-07
1.26758e-07
1.26815e-07
1.26852e-07
1.26877e-07
1.26896e-07
1.26908e-07
1.26918e-07
1.26925e-07
1.26931e-07
1.26934e-07
1.26938e-07
1.2694e-07
1.26943e-07
1.26944e-07
1.26945e-07
1.26946e-07
1.26947e-07
1.26946e-07
1.26946e-07
1.26946e-07
1.26946e-07
1.26945e-07
1.26945e-07
1.26943e-07
1.26943e-07
1.26941e-07
1.26941e-07
1.26938e-07
1.26938e-07
1.26936e-07
1.26936e-07
1.26932e-07
1.26932e-07
1.26928e-07
1.26928e-07
1.26923e-07
1.26923e-07
1.26918e-07
1.26918e-07
1.2691e-07
1.2691e-07
1.26906e-07
1.26906e-07
1.269e-07
1.269e-07
1.26894e-07
1.26893e-07
1.26883e-07
1.26879e-07
1.26874e-07
1.26872e-07
1.26864e-07
1.2686e-07
1.26862e-07
1.26862e-07
1.26862e-07
1.26862e-07
1.26859e-07
1.26859e-07
1.26847e-07
1.26846e-07
1.2685e-07
1.26851e-07
1.26844e-07
1.26844e-07
1.26828e-07
1.26831e-07
1.26826e-07
1.26825e-07
1.26827e-07
1.26832e-07
1.26819e-07
1.26817e-07
1.26821e-07
1.26823e-07
1.26829e-07
1.26823e-07
1.26837e-07
1.26825e-07
1.26832e-07
1.26854e-07
1.26842e-07
1.26856e-07
1.26873e-07
1.26887e-07
1.26917e-07
1.26982e-07
1.27013e-07
1.27357e-07
1.27472e-07
1.3088e-07
2.03866e-08
1.25318e-07
1.26154e-07
1.26501e-07
1.26669e-07
1.26766e-07
1.26825e-07
1.26864e-07
1.2689e-07
1.26909e-07
1.26922e-07
1.26933e-07
1.2694e-07
1.26946e-07
1.2695e-07
1.26954e-07
1.26957e-07
1.26959e-07
1.2696e-07
1.26962e-07
1.26962e-07
1.26963e-07
1.26963e-07
1.26963e-07
1.26963e-07
1.26963e-07
1.26962e-07
1.26962e-07
1.2696e-07
1.2696e-07
1.26958e-07
1.26958e-07
1.26955e-07
1.26955e-07
1.26953e-07
1.26953e-07
1.26949e-07
1.26949e-07
1.26945e-07
1.26945e-07
1.2694e-07
1.26941e-07
1.26936e-07
1.26936e-07
1.26927e-07
1.26927e-07
1.26923e-07
1.26923e-07
1.26917e-07
1.26917e-07
1.2691e-07
1.2691e-07
1.26899e-07
1.26895e-07
1.2689e-07
1.26888e-07
1.2688e-07
1.26876e-07
1.26878e-07
1.26878e-07
1.26878e-07
1.26878e-07
1.26875e-07
1.26875e-07
1.26863e-07
1.26861e-07
1.26866e-07
1.26867e-07
1.26859e-07
1.26859e-07
1.26843e-07
1.26847e-07
1.26842e-07
1.2684e-07
1.26843e-07
1.26848e-07
1.26834e-07
1.26833e-07
1.26836e-07
1.26839e-07
1.26844e-07
1.26839e-07
1.26853e-07
1.26841e-07
1.26848e-07
1.2687e-07
1.26858e-07
1.26873e-07
1.26891e-07
1.26905e-07
1.26935e-07
1.27002e-07
1.27033e-07
1.27375e-07
1.2751e-07
1.30925e-07
2.138e-08
1.25307e-07
1.26148e-07
1.26502e-07
1.26674e-07
1.26775e-07
1.26836e-07
1.26877e-07
1.26905e-07
1.26925e-07
1.26939e-07
1.2695e-07
1.26957e-07
1.26964e-07
1.26968e-07
1.26973e-07
1.26975e-07
1.26978e-07
1.26979e-07
1.26981e-07
1.26982e-07
1.26983e-07
1.26982e-07
1.26982e-07
1.26982e-07
1.26983e-07
1.26981e-07
1.26981e-07
1.2698e-07
1.2698e-07
1.26977e-07
1.26977e-07
1.26975e-07
1.26975e-07
1.26973e-07
1.26973e-07
1.26969e-07
1.26969e-07
1.26965e-07
1.26965e-07
1.2696e-07
1.2696e-07
1.26955e-07
1.26955e-07
1.26946e-07
1.26946e-07
1.26942e-07
1.26942e-07
1.26936e-07
1.26936e-07
1.26929e-07
1.26929e-07
1.26918e-07
1.26914e-07
1.26909e-07
1.26907e-07
1.26898e-07
1.26895e-07
1.26896e-07
1.26896e-07
1.26896e-07
1.26896e-07
1.26893e-07
1.26894e-07
1.26881e-07
1.26879e-07
1.26884e-07
1.26886e-07
1.26877e-07
1.26877e-07
1.26861e-07
1.26865e-07
1.26859e-07
1.26858e-07
1.26861e-07
1.26866e-07
1.26852e-07
1.2685e-07
1.26853e-07
1.26857e-07
1.26862e-07
1.26856e-07
1.26871e-07
1.26859e-07
1.26867e-07
1.26889e-07
1.26877e-07
1.26891e-07
1.2691e-07
1.26925e-07
1.26955e-07
1.27023e-07
1.27056e-07
1.27396e-07
1.27554e-07
1.30984e-07
2.24432e-08
1.25295e-07
1.26142e-07
1.26502e-07
1.2668e-07
1.26785e-07
1.26849e-07
1.26892e-07
1.26921e-07
1.26943e-07
1.26957e-07
1.26969e-07
1.26977e-07
1.26984e-07
1.26989e-07
1.26993e-07
1.26996e-07
1.26999e-07
1.27e-07
1.27002e-07
1.27003e-07
1.27004e-07
1.27004e-07
1.27004e-07
1.27004e-07
1.27005e-07
1.27003e-07
1.27003e-07
1.27002e-07
1.27002e-07
1.27e-07
1.26999e-07
1.26997e-07
1.26997e-07
1.26995e-07
1.26995e-07
1.26991e-07
1.26991e-07
1.26987e-07
1.26987e-07
1.26982e-07
1.26982e-07
1.26977e-07
1.26977e-07
1.26968e-07
1.26967e-07
1.26964e-07
1.26964e-07
1.26958e-07
1.26957e-07
1.2695e-07
1.2695e-07
1.2694e-07
1.26935e-07
1.26929e-07
1.26927e-07
1.26919e-07
1.26915e-07
1.26917e-07
1.26917e-07
1.26917e-07
1.26917e-07
1.26914e-07
1.26914e-07
1.26901e-07
1.26899e-07
1.26904e-07
1.26906e-07
1.26897e-07
1.26897e-07
1.26881e-07
1.26885e-07
1.2688e-07
1.26878e-07
1.26881e-07
1.26886e-07
1.26872e-07
1.26869e-07
1.26873e-07
1.26877e-07
1.26882e-07
1.26877e-07
1.26891e-07
1.26879e-07
1.26887e-07
1.26909e-07
1.26898e-07
1.26912e-07
1.26932e-07
1.26948e-07
1.26978e-07
1.27048e-07
1.27082e-07
1.27418e-07
1.27603e-07
1.31058e-07
2.35756e-08
1.25282e-07
1.26134e-07
1.26503e-07
1.26687e-07
1.26796e-07
1.26863e-07
1.26909e-07
1.26939e-07
1.26962e-07
1.26978e-07
1.2699e-07
1.26999e-07
1.27006e-07
1.27011e-07
1.27016e-07
1.27019e-07
1.27022e-07
1.27024e-07
1.27026e-07
1.27027e-07
1.27028e-07
1.27028e-07
1.27028e-07
1.27028e-07
1.27029e-07
1.27028e-07
1.27028e-07
1.27026e-07
1.27026e-07
1.27024e-07
1.27024e-07
1.27022e-07
1.27022e-07
1.2702e-07
1.2702e-07
1.27016e-07
1.27016e-07
1.27011e-07
1.27011e-07
1.27007e-07
1.27007e-07
1.27001e-07
1.27001e-07
1.26992e-07
1.26991e-07
1.26988e-07
1.26988e-07
1.26982e-07
1.26981e-07
1.26974e-07
1.26974e-07
1.26963e-07
1.26958e-07
1.26953e-07
1.2695e-07
1.26942e-07
1.26938e-07
1.2694e-07
1.2694e-07
1.2694e-07
1.2694e-07
1.26937e-07
1.26937e-07
1.26924e-07
1.26922e-07
1.26927e-07
1.26929e-07
1.2692e-07
1.2692e-07
1.26903e-07
1.26907e-07
1.26902e-07
1.26899e-07
1.26903e-07
1.26909e-07
1.26894e-07
1.26891e-07
1.26895e-07
1.26899e-07
1.26904e-07
1.26899e-07
1.26914e-07
1.26902e-07
1.2691e-07
1.26933e-07
1.26922e-07
1.26936e-07
1.26956e-07
1.26973e-07
1.27004e-07
1.27074e-07
1.2711e-07
1.27443e-07
1.27658e-07
1.31149e-07
2.4776e-08
1.25268e-07
1.26126e-07
1.26503e-07
1.26694e-07
1.26808e-07
1.26879e-07
1.26927e-07
1.26959e-07
1.26983e-07
1.27e-07
1.27014e-07
1.27023e-07
1.27031e-07
1.27036e-07
1.27041e-07
1.27045e-07
1.27048e-07
1.2705e-07
1.27052e-07
1.27053e-07
1.27055e-07
1.27055e-07
1.27055e-07
1.27055e-07
1.27056e-07
1.27055e-07
1.27055e-07
1.27053e-07
1.27053e-07
1.27051e-07
1.27051e-07
1.27049e-07
1.27049e-07
1.27047e-07
1.27047e-07
1.27043e-07
1.27043e-07
1.27039e-07
1.27038e-07
1.27034e-07
1.27034e-07
1.27028e-07
1.27028e-07
1.27018e-07
1.27018e-07
1.27015e-07
1.27015e-07
1.27008e-07
1.27008e-07
1.27e-07
1.27e-07
1.2699e-07
1.26984e-07
1.26978e-07
1.26976e-07
1.26968e-07
1.26963e-07
1.26965e-07
1.26965e-07
1.26965e-07
1.26965e-07
1.26962e-07
1.26962e-07
1.26949e-07
1.26946e-07
1.26952e-07
1.26954e-07
1.26944e-07
1.26944e-07
1.26928e-07
1.26932e-07
1.26927e-07
1.26924e-07
1.26928e-07
1.26934e-07
1.26918e-07
1.26915e-07
1.26919e-07
1.26924e-07
1.26928e-07
1.26924e-07
1.26938e-07
1.26927e-07
1.26934e-07
1.26958e-07
1.26948e-07
1.26961e-07
1.26983e-07
1.27e-07
1.27032e-07
1.27104e-07
1.27141e-07
1.27469e-07
1.27719e-07
1.31257e-07
2.60486e-08
1.25252e-07
1.26117e-07
1.26504e-07
1.26702e-07
1.26821e-07
1.26896e-07
1.26947e-07
1.26981e-07
1.27007e-07
1.27025e-07
1.27039e-07
1.27049e-07
1.27058e-07
1.27064e-07
1.27069e-07
1.27073e-07
1.27076e-07
1.27078e-07
1.27081e-07
1.27082e-07
1.27084e-07
1.27084e-07
1.27084e-07
1.27084e-07
1.27085e-07
1.27084e-07
1.27084e-07
1.27083e-07
1.27083e-07
1.27081e-07
1.27081e-07
1.27079e-07
1.27079e-07
1.27077e-07
1.27077e-07
1.27073e-07
1.27073e-07
1.27068e-07
1.27068e-07
1.27063e-07
1.27063e-07
1.27058e-07
1.27058e-07
1.27048e-07
1.27047e-07
1.27044e-07
1.27044e-07
1.27037e-07
1.27037e-07
1.27029e-07
1.27029e-07
1.27018e-07
1.27012e-07
1.27006e-07
1.27004e-07
1.26996e-07
1.26991e-07
1.26992e-07
1.26992e-07
1.26993e-07
1.26993e-07
1.2699e-07
1.2699e-07
1.26976e-07
1.26974e-07
1.26979e-07
1.26982e-07
1.26971e-07
1.26971e-07
1.26955e-07
1.26959e-07
1.26954e-07
1.2695e-07
1.26955e-07
1.26961e-07
1.26945e-07
1.26942e-07
1.26946e-07
1.26951e-07
1.26955e-07
1.26951e-07
1.26966e-07
1.26954e-07
1.26962e-07
1.26986e-07
1.26976e-07
1.26989e-07
1.27012e-07
1.2703e-07
1.27062e-07
1.27135e-07
1.27175e-07
1.27498e-07
1.27786e-07
1.31382e-07
2.73982e-08
1.25235e-07
1.26106e-07
1.26504e-07
1.2671e-07
1.26835e-07
1.26914e-07
1.26968e-07
1.27005e-07
1.27032e-07
1.27051e-07
1.27067e-07
1.27077e-07
1.27087e-07
1.27093e-07
1.27099e-07
1.27103e-07
1.27107e-07
1.27109e-07
1.27112e-07
1.27113e-07
1.27115e-07
1.27115e-07
1.27115e-07
1.27116e-07
1.27117e-07
1.27116e-07
1.27116e-07
1.27115e-07
1.27115e-07
1.27113e-07
1.27113e-07
1.27111e-07
1.27111e-07
1.2711e-07
1.2711e-07
1.27105e-07
1.27105e-07
1.27101e-07
1.27101e-07
1.27096e-07
1.27096e-07
1.2709e-07
1.2709e-07
1.27079e-07
1.27078e-07
1.27075e-07
1.27075e-07
1.27069e-07
1.27069e-07
1.2706e-07
1.2706e-07
1.2705e-07
1.27043e-07
1.27037e-07
1.27034e-07
1.27026e-07
1.27021e-07
1.27023e-07
1.27022e-07
1.27023e-07
1.27023e-07
1.2702e-07
1.2702e-07
1.27006e-07
1.27003e-07
1.27008e-07
1.27012e-07
1.27001e-07
1.27001e-07
1.26984e-07
1.26989e-07
1.26983e-07
1.26979e-07
1.26985e-07
1.26991e-07
1.26974e-07
1.2697e-07
1.26975e-07
1.2698e-07
1.26984e-07
1.2698e-07
1.26995e-07
1.26983e-07
1.26991e-07
1.27017e-07
1.27007e-07
1.2702e-07
1.27043e-07
1.27063e-07
1.27095e-07
1.2717e-07
1.27212e-07
1.27528e-07
1.27859e-07
1.31522e-07
2.88295e-08
1.25218e-07
1.26095e-07
1.26504e-07
1.26719e-07
1.2685e-07
1.26933e-07
1.2699e-07
1.2703e-07
1.27059e-07
1.2708e-07
1.27096e-07
1.27108e-07
1.27118e-07
1.27125e-07
1.27132e-07
1.27136e-07
1.2714e-07
1.27143e-07
1.27146e-07
1.27147e-07
1.27149e-07
1.2715e-07
1.2715e-07
1.2715e-07
1.27152e-07
1.27151e-07
1.27151e-07
1.2715e-07
1.2715e-07
1.27148e-07
1.27148e-07
1.27146e-07
1.27146e-07
1.27145e-07
1.27145e-07
1.2714e-07
1.2714e-07
1.27136e-07
1.27136e-07
1.2713e-07
1.2713e-07
1.27125e-07
1.27125e-07
1.27114e-07
1.27112e-07
1.2711e-07
1.2711e-07
1.27103e-07
1.27103e-07
1.27094e-07
1.27094e-07
1.27084e-07
1.27077e-07
1.2707e-07
1.27067e-07
1.2706e-07
1.27054e-07
1.27055e-07
1.27055e-07
1.27056e-07
1.27056e-07
1.27052e-07
1.27053e-07
1.27038e-07
1.27035e-07
1.27041e-07
1.27045e-07
1.27033e-07
1.27033e-07
1.27016e-07
1.27021e-07
1.27015e-07
1.2701e-07
1.27017e-07
1.27023e-07
1.27006e-07
1.27001e-07
1.27006e-07
1.27012e-07
1.27016e-07
1.27012e-07
1.27027e-07
1.27015e-07
1.27024e-07
1.2705e-07
1.2704e-07
1.27053e-07
1.27077e-07
1.27098e-07
1.27131e-07
1.27207e-07
1.27251e-07
1.2756e-07
1.27938e-07
1.31673e-07
3.03476e-08
1.25199e-07
1.26083e-07
1.26503e-07
1.26728e-07
1.26866e-07
1.26954e-07
1.27014e-07
1.27057e-07
1.27088e-07
1.2711e-07
1.27128e-07
1.27141e-07
1.27152e-07
1.27159e-07
1.27166e-07
1.27171e-07
1.27175e-07
1.27179e-07
1.27182e-07
1.27184e-07
1.27186e-07
1.27186e-07
1.27187e-07
1.27188e-07
1.27189e-07
1.27188e-07
1.27188e-07
1.27187e-07
1.27187e-07
1.27186e-07
1.27186e-07
1.27184e-07
1.27184e-07
1.27183e-07
1.27183e-07
1.27178e-07
1.27178e-07
1.27174e-07
1.27173e-07
1.27168e-07
1.27168e-07
1.27163e-07
1.27163e-07
1.27151e-07
1.27149e-07
1.27147e-07
1.27147e-07
1.2714e-07
1.2714e-07
1.27131e-07
1.27131e-07
1.2712e-07
1.27113e-07
1.27105e-07
1.27103e-07
1.27095e-07
1.27089e-07
1.2709e-07
1.2709e-07
1.27091e-07
1.27091e-07
1.27087e-07
1.27088e-07
1.27073e-07
1.2707e-07
1.27075e-07
1.2708e-07
1.27067e-07
1.27067e-07
1.2705e-07
1.27055e-07
1.27049e-07
1.27044e-07
1.27051e-07
1.27057e-07
1.2704e-07
1.27035e-07
1.2704e-07
1.27046e-07
1.2705e-07
1.27046e-07
1.27062e-07
1.2705e-07
1.27058e-07
1.27085e-07
1.27076e-07
1.27088e-07
1.27114e-07
1.27136e-07
1.27169e-07
1.27246e-07
1.27293e-07
1.27595e-07
1.28024e-07
1.31831e-07
3.1958e-08
1.25179e-07
1.2607e-07
1.26503e-07
1.26737e-07
1.26882e-07
1.26975e-07
1.2704e-07
1.27085e-07
1.27119e-07
1.27143e-07
1.27162e-07
1.27176e-07
1.27188e-07
1.27196e-07
1.27204e-07
1.27209e-07
1.27214e-07
1.27217e-07
1.2722e-07
1.27223e-07
1.27225e-07
1.27226e-07
1.27226e-07
1.27227e-07
1.27229e-07
1.27229e-07
1.27229e-07
1.27228e-07
1.27228e-07
1.27226e-07
1.27226e-07
1.27224e-07
1.27224e-07
1.27223e-07
1.27223e-07
1.27219e-07
1.27219e-07
1.27214e-07
1.27214e-07
1.27209e-07
1.27209e-07
1.27203e-07
1.27203e-07
1.27191e-07
1.27189e-07
1.27187e-07
1.27187e-07
1.27179e-07
1.27179e-07
1.2717e-07
1.2717e-07
1.27159e-07
1.27152e-07
1.27144e-07
1.27141e-07
1.27134e-07
1.27127e-07
1.27128e-07
1.27128e-07
1.27129e-07
1.27129e-07
1.27125e-07
1.27126e-07
1.2711e-07
1.27107e-07
1.27112e-07
1.27118e-07
1.27104e-07
1.27104e-07
1.27087e-07
1.27093e-07
1.27086e-07
1.2708e-07
1.27088e-07
1.27095e-07
1.27077e-07
1.27071e-07
1.27076e-07
1.27083e-07
1.27086e-07
1.27083e-07
1.27099e-07
1.27087e-07
1.27095e-07
1.27123e-07
1.27114e-07
1.27126e-07
1.27153e-07
1.27176e-07
1.2721e-07
1.27288e-07
1.27338e-07
1.27631e-07
1.28117e-07
1.31994e-07
3.36661e-08
1.25157e-07
1.26056e-07
1.26501e-07
1.26746e-07
1.26899e-07
1.26998e-07
1.27067e-07
1.27115e-07
1.27151e-07
1.27178e-07
1.27198e-07
1.27213e-07
1.27226e-07
1.27235e-07
1.27243e-07
1.27249e-07
1.27254e-07
1.27258e-07
1.27262e-07
1.27264e-07
1.27267e-07
1.27268e-07
1.27268e-07
1.2727e-07
1.27272e-07
1.27271e-07
1.27271e-07
1.2727e-07
1.27271e-07
1.27269e-07
1.27269e-07
1.27268e-07
1.27268e-07
1.27267e-07
1.27267e-07
1.27262e-07
1.27262e-07
1.27257e-07
1.27257e-07
1.27252e-07
1.27252e-07
1.27246e-07
1.27246e-07
1.27234e-07
1.27231e-07
1.27229e-07
1.27229e-07
1.27222e-07
1.27222e-07
1.27212e-07
1.27212e-07
1.27202e-07
1.27193e-07
1.27185e-07
1.27182e-07
1.27175e-07
1.27167e-07
1.27169e-07
1.27168e-07
1.2717e-07
1.2717e-07
1.27165e-07
1.27167e-07
1.2715e-07
1.27146e-07
1.27152e-07
1.27158e-07
1.27144e-07
1.27144e-07
1.27127e-07
1.27132e-07
1.27126e-07
1.27118e-07
1.27128e-07
1.27134e-07
1.27116e-07
1.2711e-07
1.27115e-07
1.27123e-07
1.27125e-07
1.27122e-07
1.27139e-07
1.27127e-07
1.27135e-07
1.27164e-07
1.27155e-07
1.27166e-07
1.27195e-07
1.27219e-07
1.27253e-07
1.27333e-07
1.27385e-07
1.27669e-07
1.28216e-07
1.32162e-07
3.54778e-08
1.25135e-07
1.2604e-07
1.26499e-07
1.26755e-07
1.26916e-07
1.27022e-07
1.27095e-07
1.27147e-07
1.27186e-07
1.27214e-07
1.27237e-07
1.27253e-07
1.27266e-07
1.27276e-07
1.27285e-07
1.27292e-07
1.27297e-07
1.27302e-07
1.27306e-07
1.27308e-07
1.27312e-07
1.27313e-07
1.27313e-07
1.27315e-07
1.27317e-07
1.27317e-07
1.27317e-07
1.27316e-07
1.27317e-07
1.27315e-07
1.27315e-07
1.27314e-07
1.27314e-07
1.27313e-07
1.27313e-07
1.27308e-07
1.27308e-07
1.27304e-07
1.27304e-07
1.27298e-07
1.27298e-07
1.27292e-07
1.27292e-07
1.27279e-07
1.27276e-07
1.27275e-07
1.27275e-07
1.27267e-07
1.27267e-07
1.27257e-07
1.27257e-07
1.27246e-07
1.27238e-07
1.27228e-07
1.27225e-07
1.27219e-07
1.2721e-07
1.27212e-07
1.27211e-07
1.27213e-07
1.27213e-07
1.27208e-07
1.2721e-07
1.27193e-07
1.27189e-07
1.27194e-07
1.27201e-07
1.27186e-07
1.27186e-07
1.27169e-07
1.27174e-07
1.27167e-07
1.27159e-07
1.2717e-07
1.27177e-07
1.27158e-07
1.27151e-07
1.27156e-07
1.27164e-07
1.27167e-07
1.27164e-07
1.27181e-07
1.27169e-07
1.27177e-07
1.27207e-07
1.27199e-07
1.27209e-07
1.27239e-07
1.27264e-07
1.27299e-07
1.2738e-07
1.27436e-07
1.2771e-07
1.28321e-07
1.32334e-07
3.7399e-08
1.25112e-07
1.26023e-07
1.26496e-07
1.26764e-07
1.26934e-07
1.27046e-07
1.27125e-07
1.2718e-07
1.27222e-07
1.27253e-07
1.27277e-07
1.27295e-07
1.27309e-07
1.2732e-07
1.2733e-07
1.27337e-07
1.27343e-07
1.27348e-07
1.27352e-07
1.27355e-07
1.27359e-07
1.2736e-07
1.2736e-07
1.27363e-07
1.27365e-07
1.27365e-07
1.27365e-07
1.27365e-07
1.27365e-07
1.27364e-07
1.27364e-07
1.27363e-07
1.27363e-07
1.27363e-07
1.27363e-07
1.27357e-07
1.27357e-07
1.27353e-07
1.27353e-07
1.27347e-07
1.27347e-07
1.27341e-07
1.27341e-07
1.27327e-07
1.27324e-07
1.27323e-07
1.27323e-07
1.27315e-07
1.27315e-07
1.27304e-07
1.27304e-07
1.27294e-07
1.27285e-07
1.27275e-07
1.27271e-07
1.27265e-07
1.27256e-07
1.27257e-07
1.27257e-07
1.27259e-07
1.27259e-07
1.27253e-07
1.27255e-07
1.27238e-07
1.27233e-07
1.27239e-07
1.27246e-07
1.27231e-07
1.2723e-07
1.27213e-07
1.27219e-07
1.27212e-07
1.27203e-07
1.27214e-07
1.27221e-07
1.27202e-07
1.27195e-07
1.272e-07
1.27209e-07
1.27211e-07
1.27209e-07
1.27225e-07
1.27213e-07
1.27222e-07
1.27253e-07
1.27245e-07
1.27255e-07
1.27286e-07
1.27312e-07
1.27347e-07
1.27429e-07
1.27488e-07
1.27753e-07
1.28432e-07
1.32511e-07
3.9435e-08
1.25087e-07
1.26005e-07
1.26493e-07
1.26773e-07
1.26952e-07
1.27071e-07
1.27155e-07
1.27215e-07
1.2726e-07
1.27293e-07
1.27319e-07
1.27339e-07
1.27354e-07
1.27366e-07
1.27377e-07
1.27384e-07
1.27391e-07
1.27396e-07
1.27401e-07
1.27405e-07
1.27409e-07
1.2741e-07
1.27411e-07
1.27413e-07
1.27416e-07
1.27416e-07
1.27416e-07
1.27416e-07
1.27417e-07
1.27415e-07
1.27415e-07
1.27414e-07
1.27414e-07
1.27415e-07
1.27415e-07
1.27409e-07
1.27409e-07
1.27405e-07
1.27405e-07
1.27399e-07
1.27399e-07
1.27393e-07
1.27393e-07
1.27379e-07
1.27374e-07
1.27374e-07
1.27374e-07
1.27366e-07
1.27366e-07
1.27355e-07
1.27355e-07
1.27344e-07
1.27335e-07
1.27324e-07
1.2732e-07
1.27315e-07
1.27305e-07
1.27306e-07
1.27306e-07
1.27308e-07
1.27308e-07
1.27301e-07
1.27304e-07
1.27286e-07
1.27281e-07
1.27287e-07
1.27295e-07
1.27279e-07
1.27277e-07
1.27261e-07
1.27267e-07
1.27259e-07
1.2725e-07
1.27261e-07
1.27269e-07
1.2725e-07
1.27241e-07
1.27246e-07
1.27256e-07
1.27258e-07
1.27256e-07
1.27273e-07
1.27261e-07
1.27269e-07
1.27301e-07
1.27293e-07
1.27303e-07
1.27335e-07
1.27363e-07
1.27399e-07
1.27482e-07
1.27544e-07
1.27798e-07
1.28549e-07
1.32691e-07
4.15915e-08
1.25062e-07
1.25985e-07
1.26488e-07
1.26781e-07
1.26971e-07
1.27097e-07
1.27187e-07
1.27251e-07
1.27299e-07
1.27335e-07
1.27363e-07
1.27385e-07
1.27402e-07
1.27415e-07
1.27426e-07
1.27434e-07
1.27442e-07
1.27448e-07
1.27453e-07
1.27457e-07
1.27461e-07
1.27463e-07
1.27464e-07
1.27466e-07
1.2747e-07
1.2747e-07
1.2747e-07
1.2747e-07
1.27471e-07
1.2747e-07
1.2747e-07
1.27469e-07
1.27469e-07
1.2747e-07
1.2747e-07
1.27464e-07
1.27464e-07
1.2746e-07
1.2746e-07
1.27453e-07
1.27453e-07
1.27448e-07
1.27448e-07
1.27433e-07
1.27428e-07
1.27428e-07
1.27428e-07
1.2742e-07
1.2742e-07
1.27408e-07
1.27408e-07
1.27398e-07
1.27388e-07
1.27376e-07
1.27372e-07
1.27367e-07
1.27356e-07
1.27357e-07
1.27357e-07
1.27359e-07
1.27359e-07
1.27352e-07
1.27355e-07
1.27337e-07
1.27331e-07
1.27337e-07
1.27346e-07
1.27329e-07
1.27327e-07
1.27311e-07
1.27317e-07
1.27309e-07
1.27299e-07
1.27311e-07
1.27319e-07
1.27299e-07
1.2729e-07
1.27295e-07
1.27306e-07
1.27307e-07
1.27305e-07
1.27322e-07
1.27311e-07
1.27319e-07
1.27352e-07
1.27345e-07
1.27354e-07
1.27387e-07
1.27416e-07
1.27452e-07
1.27536e-07
1.27602e-07
1.27845e-07
1.28671e-07
1.32876e-07
4.38738e-08
1.25035e-07
1.25964e-07
1.26482e-07
1.26789e-07
1.26989e-07
1.27124e-07
1.27219e-07
1.27288e-07
1.2734e-07
1.27379e-07
1.2741e-07
1.27433e-07
1.27451e-07
1.27466e-07
1.27478e-07
1.27487e-07
1.27495e-07
1.27501e-07
1.27507e-07
1.27511e-07
1.27516e-07
1.27518e-07
1.27519e-07
1.27522e-07
1.27526e-07
1.27527e-07
1.27527e-07
1.27527e-07
1.27528e-07
1.27527e-07
1.27527e-07
1.27527e-07
1.27527e-07
1.27528e-07
1.27528e-07
1.27522e-07
1.27522e-07
1.27518e-07
1.27518e-07
1.27511e-07
1.27511e-07
1.27505e-07
1.27505e-07
1.2749e-07
1.27485e-07
1.27485e-07
1.27485e-07
1.27477e-07
1.27477e-07
1.27464e-07
1.27464e-07
1.27454e-07
1.27443e-07
1.27431e-07
1.27426e-07
1.27422e-07
1.27411e-07
1.27411e-07
1.27411e-07
1.27413e-07
1.27414e-07
1.27405e-07
1.27409e-07
1.27391e-07
1.27384e-07
1.2739e-07
1.274e-07
1.27382e-07
1.2738e-07
1.27364e-07
1.2737e-07
1.27361e-07
1.2735e-07
1.27364e-07
1.27372e-07
1.27352e-07
1.27342e-07
1.27347e-07
1.27358e-07
1.2736e-07
1.27358e-07
1.27375e-07
1.27363e-07
1.27371e-07
1.27405e-07
1.27399e-07
1.27407e-07
1.27442e-07
1.27472e-07
1.27509e-07
1.27593e-07
1.27663e-07
1.27895e-07
1.288e-07
1.33064e-07
4.62865e-08
1.25008e-07
1.25941e-07
1.26475e-07
1.26796e-07
1.27007e-07
1.27151e-07
1.27253e-07
1.27327e-07
1.27383e-07
1.27425e-07
1.27458e-07
1.27483e-07
1.27503e-07
1.27519e-07
1.27532e-07
1.27542e-07
1.27551e-07
1.27558e-07
1.27564e-07
1.27569e-07
1.27574e-07
1.27577e-07
1.27578e-07
1.27581e-07
1.27586e-07
1.27586e-07
1.27586e-07
1.27587e-07
1.27588e-07
1.27587e-07
1.27587e-07
1.27587e-07
1.27587e-07
1.27589e-07
1.27589e-07
1.27583e-07
1.27583e-07
1.27578e-07
1.27578e-07
1.27572e-07
1.27572e-07
1.27566e-07
1.27566e-07
1.2755e-07
1.27544e-07
1.27544e-07
1.27544e-07
1.27536e-07
1.27536e-07
1.27523e-07
1.27523e-07