/*--------------------------------*- C++ -*----------------------------------*\
| =========                 |                                                 |
| \\      /  F ield         | OpenFOAM: The Open Source CFD Toolbox           |
|  \\    /   O peration     | Version:  v2012                                 |
|   \\  /    A nd           | Website:  www.openfoam.com                      |
|    \\/     M anipulation  |                                                 |
\*---------------------------------------------------------------------------*/
FoamFile
{
    version     2.0;
    format      ascii;
    class       volScalarField;
    location    "4";
    object      omega;
}
// * * * * * * * * * * * * * * * * * * * * * * * * * * * * * * * * * * * * * //

dimensions      [0 0 -1 0 0 0 0];


internalField   nonuniform List<scalar> 
209825
(
8411.16
8307.35
8277.13
8264.93
8258.4
8254.87
8252.5
8251.09
8249.99
8249.34
8248.77
8248.45
8248.12
8247.96
8247.76
8247.7
8247.58
8247.57
8247.49
8247.53
8247.49
8247.58
8247.58
8247.67
8247.65
8247.81
8247.81
8247.98
8247.98
8248.18
8248.18
8248.41
8248.41
8248.67
8248.67
8248.96
8248.96
8249.28
8249.28
8249.62
8249.62
8250.01
8250.01
8250.57
8250.57
8250.92
8250.92
8251.37
8251.37
8251.88
8251.88
8252.75
8252.98
8253.23
8253.23
8253.85
8254
8254.01
8254.01
8254.24
8254.24
8254.57
8254.57
8255.3
8255.31
8255.36
8255.36
8255.86
8255.86
8256.86
8257.28
8257.67
8257.82
8257.84
8257.84
8258.68
8258.68
8259.2
8259.19
8259.18
8259.79
8259.79
8261
8261.26
8261.26
8262.69
8263.43
8264.44
8266.78
8268.13
8272.63
8274.69
8297.41
8306.71
8512.37
118747
8411.09
8307.19
8276.92
8264.7
8258.16
8254.61
8252.23
8250.82
8249.72
8249.07
8248.49
8248.17
8247.84
8247.68
8247.48
8247.42
8247.3
8247.28
8247.21
8247.25
8247.21
8247.3
8247.3
8247.39
8247.37
8247.52
8247.52
8247.7
8247.7
8247.9
8247.9
8248.13
8248.13
8248.39
8248.39
8248.67
8248.68
8248.99
8248.99
8249.34
8249.34
8249.73
8249.73
8250.29
8250.29
8250.64
8250.64
8251.09
8251.09
8251.6
8251.6
8252.47
8252.7
8252.95
8252.95
8253.58
8253.72
8253.73
8253.73
8253.96
8253.96
8254.29
8254.29
8255.03
8255.03
8255.09
8255.09
8255.59
8255.59
8256.58
8257
8257.4
8257.55
8257.57
8257.57
8258.41
8258.41
8258.93
8258.92
8258.91
8259.53
8259.52
8260.74
8260.99
8260.99
8262.42
8263.17
8264.18
8266.52
8267.88
8272.38
8274.44
8297.17
8306.49
8512.21
115452
8410.83
8306.59
8276.17
8263.87
8257.28
8253.7
8251.3
8249.87
8248.77
8248.11
8247.52
8247.2
8246.87
8246.71
8246.5
8246.44
8246.31
8246.3
8246.23
8246.26
8246.22
8246.31
8246.31
8246.4
8246.38
8246.54
8246.54
8246.71
8246.71
8246.91
8246.91
8247.14
8247.14
8247.4
8247.4
8247.69
8247.69
8248.01
8248.01
8248.36
8248.36
8248.74
8248.74
8249.31
8249.31
8249.66
8249.66
8250.11
8250.11
8250.62
8250.62
8251.5
8251.72
8251.98
8251.98
8252.6
8252.75
8252.76
8252.76
8252.99
8252.99
8253.33
8253.32
8254.06
8254.07
8254.12
8254.12
8254.63
8254.63
8255.62
8256.04
8256.44
8256.6
8256.61
8256.61
8257.46
8257.46
8257.98
8257.97
8257.96
8258.58
8258.58
8259.79
8260.05
8260.05
8261.49
8262.24
8263.26
8265.59
8266.96
8271.47
8273.54
8296.26
8305.7
8511.23
111667
8410.36
8305.55
8274.86
8262.43
8255.75
8252.13
8249.7
8248.24
8247.12
8246.44
8245.85
8245.52
8245.18
8245.02
8244.81
8244.74
8244.62
8244.6
8244.53
8244.56
8244.52
8244.61
8244.61
8244.7
8244.67
8244.83
8244.83
8245
8245
8245.21
8245.21
8245.43
8245.43
8245.69
8245.69
8245.98
8245.98
8246.3
8246.3
8246.66
8246.66
8247.05
8247.05
8247.61
8247.61
8247.97
8247.96
8248.42
8248.42
8248.93
8248.93
8249.81
8250.04
8250.3
8250.3
8250.93
8251.08
8251.09
8251.09
8251.32
8251.32
8251.66
8251.65
8252.39
8252.41
8252.46
8252.46
8252.96
8252.96
8253.96
8254.39
8254.79
8254.95
8254.96
8254.96
8255.81
8255.82
8256.34
8256.34
8256.32
8256.95
8256.95
8258.16
8258.43
8258.43
8259.87
8260.64
8261.65
8264
8265.38
8269.91
8271.99
8294.69
8304.33
8509.42
107775
8409.68
8304.06
8273
8260.37
8253.58
8249.88
8247.4
8245.91
8244.76
8244.07
8243.46
8243.12
8242.78
8242.61
8242.4
8242.32
8242.19
8242.18
8242.1
8242.13
8242.08
8242.17
8242.17
8242.26
8242.24
8242.39
8242.39
8242.56
8242.56
8242.77
8242.77
8243
8243
8243.26
8243.26
8243.55
8243.55
8243.87
8243.87
8244.23
8244.23
8244.62
8244.62
8245.19
8245.19
8245.55
8245.54
8246
8246
8246.52
8246.52
8247.4
8247.64
8247.9
8247.9
8248.53
8248.68
8248.7
8248.7
8248.93
8248.93
8249.27
8249.27
8250.01
8250.04
8250.08
8250.08
8250.59
8250.59
8251.59
8252.02
8252.43
8252.59
8252.61
8252.6
8253.46
8253.48
8254
8254
8253.98
8254.61
8254.61
8255.84
8256.11
8256.11
8257.55
8258.34
8259.36
8261.72
8263.12
8267.67
8269.77
8292.41
8302.37
8506.78
103879
8408.79
8302.12
8270.57
8257.68
8250.74
8246.94
8244.4
8242.87
8241.69
8240.97
8240.35
8239.99
8239.63
8239.46
8239.24
8239.16
8239.03
8239.01
8238.92
8238.96
8238.9
8238.99
8238.99
8239.08
8239.05
8239.21
8239.21
8239.38
8239.38
8239.59
8239.58
8239.82
8239.81
8240.08
8240.08
8240.37
8240.37
8240.7
8240.7
8241.05
8241.05
8241.45
8241.45
8242.03
8242.03
8242.39
8242.38
8242.84
8242.84
8243.37
8243.37
8244.26
8244.5
8244.77
8244.77
8245.4
8245.56
8245.58
8245.58
8245.8
8245.8
8246.15
8246.15
8246.9
8246.93
8246.97
8246.97
8247.49
8247.49
8248.49
8248.93
8249.34
8249.52
8249.53
8249.53
8250.39
8250.42
8250.94
8250.94
8250.93
8251.56
8251.56
8252.8
8253.08
8253.08
8254.53
8255.34
8256.37
8258.74
8260.16
8264.73
8266.87
8289.43
8299.82
8503.37
100023
8407.71
8299.72
8267.56
8254.35
8247.22
8243.31
8240.69
8239.1
8237.88
8237.13
8236.49
8236.11
8235.74
8235.56
8235.33
8235.24
8235.11
8235.08
8234.99
8235.02
8234.97
8235.05
8235.05
8235.14
8235.11
8235.27
8235.27
8235.44
8235.44
8235.64
8235.64
8235.87
8235.87
8236.14
8236.14
8236.43
8236.43
8236.76
8236.76
8237.12
8237.12
8237.52
8237.52
8238.12
8238.12
8238.47
8238.47
8238.93
8238.93
8239.47
8239.47
8240.36
8240.62
8240.89
8240.89
8241.52
8241.69
8241.71
8241.71
8241.94
8241.93
8242.29
8242.28
8243.05
8243.09
8243.12
8243.12
8243.65
8243.65
8244.66
8245.1
8245.52
8245.71
8245.72
8245.71
8246.59
8246.63
8247.15
8247.15
8247.14
8247.79
8247.79
8249.03
8249.33
8249.33
8250.79
8251.63
8252.65
8255.04
8256.49
8261.09
8263.26
8285.72
8296.67
8499.28
96225.4
8406.41
8296.86
8263.96
8250.38
8243.02
8238.97
8236.25
8234.59
8233.32
8232.54
8231.87
8231.47
8231.09
8230.89
8230.65
8230.56
8230.42
8230.39
8230.29
8230.32
8230.26
8230.34
8230.34
8230.42
8230.39
8230.55
8230.55
8230.72
8230.72
8230.92
8230.92
8231.16
8231.16
8231.42
8231.42
8231.72
8231.72
8232.05
8232.05
8232.42
8232.42
8232.82
8232.82
8233.43
8233.43
8233.79
8233.78
8234.26
8234.26
8234.8
8234.8
8235.7
8235.96
8236.25
8236.25
8236.87
8237.06
8237.09
8237.09
8237.31
8237.31
8237.67
8237.66
8238.44
8238.49
8238.51
8238.51
8239.06
8239.06
8240.07
8240.52
8240.95
8241.15
8241.15
8241.15
8242.04
8242.09
8242.62
8242.62
8242.61
8243.27
8243.27
8244.52
8244.84
8244.84
8246.31
8247.18
8248.21
8250.62
8252.1
8256.74
8258.95
8281.27
8292.9
8494.6
92497.4
8404.92
8293.54
8259.78
8245.75
8238.12
8233.9
8231.07
8229.33
8228.01
8227.19
8226.48
8226.06
8225.65
8225.44
8225.19
8225.09
8224.94
8224.9
8224.8
8224.82
8224.76
8224.84
8224.84
8224.92
8224.88
8225.04
8225.04
8225.21
8225.21
8225.42
8225.42
8225.65
8225.65
8225.92
8225.92
8226.22
8226.22
8226.56
8226.56
8226.93
8226.92
8227.34
8227.34
8227.96
8227.96
8228.32
8228.31
8228.79
8228.79
8229.34
8229.34
8230.26
8230.53
8230.83
8230.83
8231.45
8231.65
8231.69
8231.68
8231.9
8231.9
8232.27
8232.27
8233.06
8233.12
8233.13
8233.13
8233.7
8233.7
8234.71
8235.18
8235.61
8235.82
8235.82
8235.82
8236.73
8236.79
8237.33
8237.33
8237.32
8237.99
8237.99
8239.26
8239.6
8239.6
8241.07
8241.98
8243.02
8245.45
8246.97
8251.64
8253.91
8276.04
8288.52
8489.43
88843
8403.22
8289.75
8255
8240.45
8232.52
8228.1
8225.13
8223.31
8221.92
8221.05
8220.3
8219.86
8219.43
8219.2
8218.93
8218.82
8218.66
8218.62
8218.51
8218.53
8218.46
8218.54
8218.54
8218.61
8218.57
8218.73
8218.73
8218.9
8218.9
8219.1
8219.1
8219.34
8219.34
8219.61
8219.61
8219.92
8219.92
8220.26
8220.26
8220.63
8220.63
8221.05
8221.05
8221.69
8221.7
8222.05
8222.05
8222.53
8222.53
8223.09
8223.09
8224.02
8224.31
8224.62
8224.61
8225.24
8225.45
8225.49
8225.49
8225.71
8225.71
8226.08
8226.08
8226.89
8226.96
8226.97
8226.97
8227.55
8227.55
8228.57
8229.04
8229.49
8229.71
8229.72
8229.72
8230.64
8230.72
8231.26
8231.26
8231.25
8231.94
8231.94
8233.23
8233.59
8233.59
8235.07
8236.03
8237.07
8239.52
8241.08
8245.8
8248.12
8270.04
8283.51
8483.85
85262.3
8401.33
8285.49
8249.62
8234.48
8226.19
8221.55
8218.44
8216.51
8215.04
8214.11
8213.32
8212.85
8212.39
8212.14
8211.86
8211.74
8211.57
8211.52
8211.4
8211.41
8211.33
8211.41
8211.41
8211.48
8211.43
8211.59
8211.59
8211.76
8211.76
8211.97
8211.97
8212.2
8212.2
8212.48
8212.48
8212.79
8212.79
8213.13
8213.13
8213.52
8213.51
8213.94
8213.94
8214.6
8214.61
8214.96
8214.96
8215.45
8215.46
8216.03
8216.03
8216.97
8217.27
8217.59
8217.59
8218.21
8218.44
8218.49
8218.49
8218.71
8218.71
8219.09
8219.09
8219.91
8219.99
8220
8220
8220.6
8220.6
8221.62
8222.11
8222.57
8222.81
8222.81
8222.81
8223.75
8223.86
8224.4
8224.4
8224.4
8225.1
8225.1
8226.41
8226.79
8226.79
8228.29
8229.29
8230.34
8232.81
8234.42
8239.19
8241.57
8263.23
8277.87
8477.96
81751.3
8399.24
8280.76
8243.63
8227.82
8219.14
8214.25
8210.96
8208.92
8207.36
8206.37
8205.53
8205.02
8204.53
8204.26
8203.96
8203.83
8203.64
8203.59
8203.46
8203.46
8203.37
8203.45
8203.45
8203.51
8203.46
8203.62
8203.62
8203.78
8203.78
8203.99
8203.99
8204.23
8204.23
8204.51
8204.51
8204.82
8204.82
8205.17
8205.17
8205.56
8205.56
8206
8205.99
8206.68
8206.7
8207.04
8207.04
8207.55
8207.55
8208.13
8208.14
8209.09
8209.41
8209.74
8209.74
8210.36
8210.61
8210.67
8210.67
8210.88
8210.88
8211.28
8211.28
8212.12
8212.21
8212.22
8212.21
8212.84
8212.84
8213.86
8214.37
8214.84
8215.1
8215.1
8215.1
8216.06
8216.19
8216.74
8216.74
8216.73
8217.46
8217.45
8218.79
8219.2
8219.2
8220.71
8221.76
8222.82
8225.32
8226.97
8231.79
8234.25
8255.6
8271.59
8471.82
78302.1
8396.96
8275.56
8237.03
8220.47
8211.35
8206.18
8202.69
8200.52
8198.86
8197.8
8196.91
8196.35
8195.84
8195.54
8195.22
8195.07
8194.87
8194.8
8194.67
8194.66
8194.56
8194.63
8194.63
8194.69
8194.63
8194.79
8194.79
8194.95
8194.95
8195.16
8195.16
8195.4
8195.4
8195.68
8195.68
8196
8196
8196.36
8196.36
8196.76
8196.75
8197.2
8197.2
8197.9
8197.93
8198.27
8198.27
8198.79
8198.79
8199.39
8199.39
8200.36
8200.7
8201.05
8201.05
8201.67
8201.94
8202.01
8202.01
8202.22
8202.22
8202.63
8202.63
8203.49
8203.59
8203.59
8203.59
8204.24
8204.24
8205.27
8205.79
8206.28
8206.56
8206.56
8206.56
8207.53
8207.69
8208.25
8208.25
8208.25
8208.99
8208.99
8210.34
8210.79
8210.79
8212.31
8213.42
8214.49
8217.01
8218.72
8223.59
8226.13
8247.13
8264.66
8465.47
74905.8
8394.5
8269.89
8229.81
8212.43
8202.8
8197.32
8193.62
8191.3
8189.53
8188.39
8187.44
8186.84
8186.28
8185.96
8185.61
8185.44
8185.23
8185.15
8185
8184.99
8184.88
8184.95
8184.95
8184.99
8184.93
8185.09
8185.08
8185.25
8185.25
8185.46
8185.46
8185.7
8185.7
8185.98
8185.98
8186.31
8186.31
8186.67
8186.67
8187.08
8187.08
8187.53
8187.53
8188.26
8188.3
8188.63
8188.63
8189.16
8189.16
8189.78
8189.78
8190.76
8191.13
8191.5
8191.5
8192.11
8192.4
8192.5
8192.5
8192.7
8192.7
8193.12
8193.12
8194
8194.11
8194.12
8194.11
8194.79
8194.79
8195.83
8196.37
8196.87
8197.17
8197.17
8197.17
8198.17
8198.35
8198.93
8198.93
8198.92
8199.69
8199.69
8201.06
8201.55
8201.54
8203.08
8204.25
8205.33
8207.88
8209.65
8214.56
8217.19
8237.8
8257.06
8458.93
71568.6
8391.85
8263.74
8221.96
8203.67
8193.5
8187.67
8183.73
8181.24
8179.35
8178.13
8177.1
8176.45
8175.85
8175.5
8175.13
8174.94
8174.71
8174.61
8174.46
8174.43
8174.31
8174.37
8174.37
8174.41
8174.34
8174.49
8174.49
8174.66
8174.65
8174.86
8174.86
8175.11
8175.11
8175.39
8175.39
8175.72
8175.72
8176.1
8176.1
8176.51
8176.51
8176.97
8176.97
8177.72
8177.78
8178.1
8178.1
8178.65
8178.65
8179.29
8179.29
8180.29
8180.67
8181.07
8181.07
8181.68
8181.99
8182.1
8182.11
8182.3
8182.3
8182.74
8182.74
8183.64
8183.77
8183.77
8183.77
8184.48
8184.47
8185.51
8186.07
8186.6
8186.92
8186.92
8186.92
8187.94
8188.16
8188.74
8188.74
8188.74
8189.53
8189.53
8190.93
8191.45
8191.45
8192.99
8194.23
8195.32
8197.9
8199.73
8204.7
8207.43
8227.58
8248.79
8452.14
68296
8389.02
8257.13
8213.49
8194.2
8183.43
8177.21
8173.01
8170.34
8168.31
8166.99
8165.89
8165.18
8164.54
8164.15
8163.75
8163.53
8163.28
8163.18
8163
8162.97
8162.83
8162.89
8162.89
8162.92
8162.83
8162.99
8162.99
8163.15
8163.15
8163.36
8163.36
8163.6
8163.6
8163.89
8163.89
8164.23
8164.23
8164.61
8164.61
8165.03
8165.03
8165.51
8165.51
8166.29
8166.36
8166.67
8166.67
8167.24
8167.24
8167.9
8167.9
8168.92
8169.32
8169.74
8169.74
8170.34
8170.69
8170.82
8170.82
8171.01
8171.01
8171.47
8171.46
8172.39
8172.53
8172.54
8172.53
8173.27
8173.27
8174.32
8174.89
8175.44
8175.78
8175.79
8175.78
8176.83
8177.08
8177.68
8177.69
8177.68
8178.5
8178.5
8179.92
8180.49
8180.48
8182.04
8183.35
8184.46
8187.06
8188.96
8193.97
8196.81
8216.47
8239.82
8445.01
65093.6
8386.02
8250.05
8204.39
8184
8172.57
8165.94
8161.45
8158.57
8156.4
8154.97
8153.78
8153.01
8152.31
8151.88
8151.45
8151.22
8150.94
8150.82
8150.63
8150.58
8150.43
8150.49
8150.48
8150.51
8150.41
8150.56
8150.56
8150.72
8150.71
8150.93
8150.93
8151.17
8151.17
8151.47
8151.46
8151.81
8151.81
8152.2
8152.2
8152.63
8152.63
8153.12
8153.12
8153.92
8154.02
8154.32
8154.32
8154.9
8154.9
8155.59
8155.59
8156.62
8157.05
8157.5
8157.5
8158.09
8158.47
8158.63
8158.63
8158.81
8158.81
8159.28
8159.28
8160.23
8160.39
8160.4
8160.39
8161.17
8161.16
8162.21
8162.81
8163.38
8163.75
8163.76
8163.75
8164.83
8165.11
8165.73
8165.74
8165.73
8166.57
8166.57
8168.03
8168.63
8168.63
8170.2
8171.59
8172.71
8175.34
8177.3
8182.36
8185.33
8204.43
8230.15
8437.34
61966.3
8382.86
8242.51
8194.65
8173.08
8160.93
8153.83
8149.02
8145.93
8143.59
8142.04
8140.76
8139.92
8139.17
8138.7
8138.23
8137.96
8137.67
8137.53
8137.32
8137.26
8137.1
8137.14
8137.14
8137.15
8137.03
8137.19
8137.19
8137.34
8137.33
8137.55
8137.55
8137.8
8137.8
8138.09
8138.09
8138.44
8138.44
8138.84
8138.84
8139.29
8139.29
8139.79
8139.79
8140.62
8140.74
8141.03
8141.03
8141.63
8141.63
8142.34
8142.34
8143.39
8143.85
8144.32
8144.33
8144.91
8145.32
8145.5
8145.51
8145.68
8145.67
8146.17
8146.17
8147.15
8147.32
8147.33
8147.32
8148.14
8148.14
8149.19
8149.81
8150.4
8150.8
8150.81
8150.8
8151.9
8152.22
8152.87
8152.87
8152.87
8153.74
8153.74
8155.22
8155.88
8155.87
8157.46
8158.92
8160.05
8162.72
8164.75
8169.86
8172.96
8191.47
8219.76
8428.84
58918.8
8379.54
8234.5
8184.28
8161.42
8148.49
8140.89
8135.73
8132.4
8129.88
8128.2
8126.82
8125.9
8125.08
8124.56
8124.05
8123.76
8123.44
8123.28
8123.05
8122.98
8122.8
8122.84
8122.83
8122.82
8122.7
8122.85
8122.85
8123
8122.99
8123.21
8123.21
8123.45
8123.45
8123.75
8123.75
8124.11
8124.11
8124.52
8124.52
8124.97
8124.97
8125.49
8125.49
8126.35
8126.49
8126.77
8126.77
8127.39
8127.39
8128.13
8128.13
8129.2
8129.68
8130.19
8130.2
8130.77
8131.22
8131.42
8131.44
8131.59
8131.59
8132.11
8132.11
8133.11
8133.31
8133.32
8133.3
8134.16
8134.17
8135.22
8135.87
8136.48
8136.92
8136.93
8136.91
8138.04
8138.4
8139.07
8139.08
8139.07
8139.97
8139.97
8141.48
8142.19
8142.19
8143.79
8145.33
8146.48
8149.17
8151.28
8156.43
8159.67
8177.55
8208.61
8419.43
55955.5
8376.07
8226.03
8173.28
8149.02
8135.24
8127.09
8121.56
8117.96
8115.25
8113.42
8111.93
8110.93
8110.04
8109.47
8108.91
8108.59
8108.23
8108.05
8107.81
8107.72
8107.52
8107.55
8107.54
8107.52
8107.38
8107.53
8107.53
8107.68
8107.66
8107.88
8107.88
8108.13
8108.12
8108.43
8108.43
8108.79
8108.79
8109.21
8109.21
8109.68
8109.68
8110.21
8110.21
8111.1
8111.27
8111.54
8111.54
8112.18
8112.17
8112.94
8112.94
8114.03
8114.55
8115.09
8115.1
8115.66
8116.14
8116.37
8116.4
8116.54
8116.54
8117.08
8117.08
8118.11
8118.33
8118.34
8118.33
8119.22
8119.24
8120.29
8120.96
8121.6
8122.07
8122.08
8122.07
8123.23
8123.63
8124.33
8124.33
8124.33
8125.26
8125.26
8126.8
8127.57
8127.57
8129.17
8130.8
8131.97
8134.69
8136.87
8142.06
8145.46
8162.66
8196.69
8409.1
53080.4
8372.45
8217.12
8161.64
8135.88
8121.18
8112.44
8106.49
8102.61
8099.68
8097.7
8096.08
8094.98
8094.02
8093.39
8092.79
8092.43
8092.04
8091.84
8091.57
8091.46
8091.24
8091.26
8091.25
8091.22
8091.06
8091.21
8091.21
8091.35
8091.33
8091.55
8091.55
8091.79
8091.79
8092.1
8092.1
8092.47
8092.47
8092.9
8092.9
8093.38
8093.38
8093.92
8093.92
8094.85
8095.04
8095.3
8095.3
8095.96
8095.96
8096.75
8096.76
8097.87
8098.41
8098.99
8099.01
8099.55
8100.07
8100.34
8100.38
8100.5
8100.5
8101.07
8101.06
8102.12
8102.37
8102.38
8102.36
8103.3
8103.33
8104.37
8105.07
8105.74
8106.25
8106.27
8106.25
8107.44
8107.88
8108.61
8108.62
8108.62
8109.58
8109.58
8111.15
8111.98
8111.98
8113.59
8115.3
8116.5
8119.24
8121.5
8126.73
8130.29
8146.8
8183.97
8397.81
50297.2
8368.7
8207.76
8149.36
8121.99
8106.29
8096.91
8090.52
8086.32
8083.16
8081.01
8079.25
8078.06
8077.01
8076.32
8075.66
8075.26
8074.84
8074.61
8074.31
8074.19
8073.95
8073.96
8073.94
8073.89
8073.71
8073.86
8073.86
8074
8073.97
8074.19
8074.19
8074.43
8074.43
8074.74
8074.74
8075.12
8075.12
8075.56
8075.56
8076.05
8076.05
8076.61
8076.61
8077.57
8077.8
8078.04
8078.04
8078.73
8078.72
8079.55
8079.55
8080.69
8081.26
8081.88
8081.91
8082.42
8082.99
8083.29
8083.35
8083.45
8083.44
8084.05
8084.04
8085.13
8085.4
8085.41
8085.4
8086.38
8086.43
8087.46
8088.19
8088.88
8089.44
8089.45
8089.43
8090.65
8091.13
8091.9
8091.91
8091.91
8092.91
8092.91
8094.51
8095.4
8095.4
8097.03
8098.83
8100.05
8102.81
8105.16
8110.41
8114.15
8129.94
8170.42
8385.53
47609.1
8364.83
8197.95
8136.45
8107.34
8090.57
8080.5
8073.63
8069.09
8065.67
8063.34
8061.43
8060.13
8058.99
8058.24
8057.52
8057.07
8056.61
8056.35
8056.03
8055.89
8055.63
8055.62
8055.59
8055.53
8055.33
8055.47
8055.47
8055.6
8055.57
8055.79
8055.79
8056.03
8056.03
8056.34
8056.34
8056.73
8056.73
8057.18
8057.18
8057.68
8057.68
8058.26
8058.26
8059.25
8059.51
8059.74
8059.74
8060.45
8060.45
8061.31
8061.31
8062.47
8063.08
8063.73
8063.78
8064.26
8064.88
8065.21
8065.29
8065.37
8065.36
8066
8065.99
8067.1
8067.41
8067.42
8067.4
8068.43
8068.51
8069.52
8070.28
8071
8071.6
8071.62
8071.6
8072.85
8073.37
8074.19
8074.2
8074.2
8075.23
8075.24
8076.86
8077.82
8077.82
8079.46
8081.35
8082.6
8085.37
8087.81
8093.08
8097.02
8112.05
8156
8372.23
45019.1
8360.84
8187.72
8122.91
8091.94
8074.02
8063.2
8055.8
8050.9
8047.21
8044.67
8042.61
8041.19
8039.95
8039.12
8038.34
8037.84
8037.34
8037.04
8036.69
8036.53
8036.25
8036.22
8036.18
8036.11
8035.88
8036.03
8036.03
8036.14
8036.1
8036.32
8036.32
8036.56
8036.56
8036.87
8036.87
8037.27
8037.27
8037.73
8037.73
8038.25
8038.25
8038.85
8038.84
8039.87
8040.17
8040.38
8040.38
8041.11
8041.11
8042.02
8042.01
8043.19
8043.83
8044.53
8044.6
8045.04
8045.71
8046.07
8046.17
8046.24
8046.24
8046.91
8046.9
8048.03
8048.38
8048.38
8048.37
8049.44
8049.54
8050.54
8051.33
8052.08
8052.73
8052.75
8052.73
8054.02
8054.58
8055.44
8055.45
8055.45
8056.53
8056.53
8058.18
8059.22
8059.22
8060.86
8062.84
8064.12
8066.92
8069.44
8074.72
8078.87
8093.13
8140.7
8357.88
42529.7
8356.74
8177.07
8108.74
8075.79
8056.63
8045
8037.04
8031.75
8027.76
8025
8022.76
8021.21
8019.86
8018.95
8018.1
8017.55
8017
8016.67
8016.28
8016.1
8015.79
8015.75
8015.69
8015.61
8015.36
8015.5
8015.49
8015.6
8015.55
8015.77
8015.77
8016.01
8016.01
8016.32
8016.32
8016.72
8016.72
8017.19
8017.19
8017.73
8017.73
8018.34
8018.34
8019.4
8019.74
8019.93
8019.93
8020.7
8020.69
8021.64
8021.63
8022.83
8023.51
8024.25
8024.34
8024.74
8025.47
8025.87
8025.99
8026.04
8026.04
8026.74
8026.74
8027.89
8028.28
8028.28
8028.27
8029.38
8029.53
8030.5
8031.32
8032.1
8032.81
8032.83
8032.81
8034.12
8034.73
8035.64
8035.66
8035.66
8036.77
8036.77
8038.46
8039.57
8039.58
8041.22
8043.29
8044.61
8047.41
8050.03
8055.31
8059.69
8073.16
8124.46
8342.45
40143.2
8352.55
8166.01
8093.95
8058.88
8038.4
8025.9
8017.33
8011.61
8007.29
8004.3
8001.87
8000.18
7998.72
7997.71
7996.79
7996.18
7995.57
7995.21
7994.79
7994.57
7994.24
7994.18
7994.11
7994.01
7993.73
7993.86
7993.86
7993.96
7993.9
7994.12
7994.12
7994.36
7994.35
7994.66
7994.66
7995.07
7995.07
7995.55
7995.55
7996.1
7996.1
7996.74
7996.73
7997.83
7998.21
7998.39
7998.39
7999.18
7999.17
8000.16
8000.15
8001.38
8002.09
8002.87
8002.98
8003.35
8004.14
8004.57
8004.71
8004.75
8004.74
8005.49
8005.48
8006.66
8007.09
8007.09
8007.08
8008.24
8008.43
8009.37
8010.23
8011.04
8011.8
8011.82
8011.8
8013.15
8013.8
8014.77
8014.79
8014.79
8015.95
8015.94
8017.66
8018.85
8018.87
8020.51
8022.67
8024.03
8026.85
8029.55
8034.83
8039.45
8052.1
8107.25
8325.89
37861.5
8348.28
8154.55
8078.55
8041.21
8019.31
8005.88
7996.67
7990.48
7985.82
7982.56
7979.93
7978.08
7976.5
7975.39
7974.38
7973.71
7973.05
7972.64
7972.18
7971.94
7971.58
7971.5
7971.41
7971.3
7970.99
7971.11
7971.11
7971.2
7971.12
7971.34
7971.34
7971.57
7971.57
7971.88
7971.88
7972.29
7972.29
7972.78
7972.78
7973.35
7973.35
7974
7973.99
7975.13
7975.55
7975.72
7975.71
7976.53
7976.53
7977.56
7977.56
7978.8
7979.54
7980.37
7980.51
7980.83
7981.68
7982.16
7982.32
7982.35
7982.34
7983.13
7983.12
7984.32
7984.8
7984.8
7984.78
7985.99
7986.23
7987.14
7988.03
7988.87
7989.7
7989.72
7989.7
7991.08
7991.78
7992.8
7992.83
7992.83
7994.03
7994.03
7995.77
7997.05
7997.08
7998.72
8000.97
8002.36
8005.19
8007.98
8013.25
8018.12
8029.94
8089.03
8308.17
35685.9
8343.94
8142.71
8062.53
8022.79
7999.38
7984.95
7975.03
7968.34
7963.31
7959.77
7956.93
7954.91
7953.18
7951.97
7950.87
7950.13
7949.41
7948.95
7948.45
7948.18
7947.79
7947.68
7947.57
7947.45
7947.1
7947.22
7947.22
7947.29
7947.2
7947.42
7947.42
7947.65
7947.64
7947.95
7947.94
7948.36
7948.36
7948.87
7948.87
7949.45
7949.44
7950.12
7950.11
7951.28
7951.75
7951.9
7951.9
7952.75
7952.74
7953.82
7953.82
7955.08
7955.86
7956.74
7956.9
7957.17
7958.09
7958.61
7958.8
7958.82
7958.81
7959.64
7959.63
7960.85
7961.38
7961.37
7961.36
7962.61
7962.91
7963.79
7964.71
7965.58
7966.48
7966.49
7966.48
7967.89
7968.64
7969.72
7969.76
7969.76
7971
7971
7972.77
7974.13
7974.18
7975.81
7978.15
7979.59
7982.42
7985.31
7990.54
7995.7
8006.67
8069.74
8289.25
33617.7
8339.53
8130.49
8045.92
8003.62
7978.59
7963.09
7952.42
7945.2
7939.76
7935.92
7932.84
7930.63
7928.76
7927.44
7926.24
7925.42
7924.63
7924.13
7923.58
7923.27
7922.84
7922.71
7922.58
7922.44
7922.07
7922.17
7922.17
7922.22
7922.12
7922.33
7922.33
7922.56
7922.55
7922.85
7922.85
7923.27
7923.27
7923.78
7923.78
7924.38
7924.38
7925.07
7925.06
7926.27
7926.78
7926.92
7926.91
7927.8
7927.79
7928.92
7928.91
7930.2
7931.01
7931.94
7932.13
7932.36
7933.34
7933.9
7934.12
7934.13
7934.12
7935
7934.99
7936.22
7936.81
7936.8
7936.79
7938.08
7938.45
7939.28
7940.25
7941.15
7942.12
7942.12
7942.12
7943.56
7944.35
7945.49
7945.56
7945.55
7946.83
7946.84
7948.63
7950.08
7950.15
7951.77
7954.2
7955.69
7958.52
7961.51
7966.7
7972.15
7982.25
8049.33
8269.07
31657.8
8335.08
8117.92
8028.72
7983.7
7956.95
7940.31
7928.83
7921.03
7915.15
7910.99
7907.65
7905.25
7903.22
7901.77
7900.46
7899.56
7898.7
7898.14
7897.54
7897.19
7896.73
7896.57
7896.42
7896.26
7895.85
7895.94
7895.94
7895.97
7895.85
7896.07
7896.06
7896.28
7896.27
7896.56
7896.56
7896.99
7896.99
7897.51
7897.51
7898.13
7898.12
7898.83
7898.82
7900.06
7900.63
7900.75
7900.75
7901.66
7901.66
7902.84
7902.83
7904.13
7904.98
7905.96
7906.18
7906.36
7907.42
7908.02
7908.27
7908.27
7908.25
7909.19
7909.18
7910.43
7911.06
7911.06
7911.05
7912.38
7912.83
7913.61
7914.61
7915.55
7916.59
7916.59
7916.59
7918.07
7918.91
7920.11
7920.2
7920.19
7921.51
7921.52
7923.34
7924.88
7924.99
7926.59
7929.09
7930.64
7933.46
7936.55
7941.68
7947.45
7956.67
8027.76
8247.58
29806.7
8330.59
8105.01
8010.93
7963.04
7934.47
7916.6
7904.25
7895.83
7889.49
7884.98
7881.36
7878.75
7876.54
7874.95
7873.53
7872.54
7871.6
7870.98
7870.32
7869.93
7869.43
7869.24
7869.06
7868.88
7868.44
7868.52
7868.51
7868.53
7868.38
7868.59
7868.59
7868.8
7868.79
7869.07
7869.07
7869.5
7869.5
7870.04
7870.03
7870.66
7870.65
7871.38
7871.38
7872.65
7873.27
7873.37
7873.37
7874.32
7874.32
7875.55
7875.54
7876.86
7877.75
7878.78
7879.03
7879.17
7880.29
7880.94
7881.22
7881.22
7881.2
7882.18
7882.18
7883.43
7884.13
7884.14
7884.12
7885.49
7886.02
7886.76
7887.8
7888.77
7889.87
7889.88
7889.89
7891.4
7892.28
7893.55
7893.66
7893.65
7895.03
7895.03
7896.87
7898.51
7898.65
7900.23
7902.81
7904.42
7907.23
7910.42
7915.49
7921.58
7929.91
8004.95
8224.74
28064.9
8326.08
8091.77
7992.58
7941.65
7911.13
7891.95
7878.69
7869.6
7862.75
7857.87
7853.95
7851.11
7848.71
7846.97
7845.43
7844.34
7843.31
7842.62
7841.91
7841.47
7840.93
7840.7
7840.49
7840.29
7839.82
7839.88
7839.87
7839.86
7839.69
7839.9
7839.9
7840.1
7840.08
7840.36
7840.35
7840.78
7840.78
7841.33
7841.33
7841.97
7841.96
7842.7
7842.7
7844.02
7844.69
7844.77
7844.77
7845.76
7845.75
7847.04
7847.04
7848.36
7849.29
7850.38
7850.65
7850.75
7851.94
7852.64
7852.95
7852.95
7852.92
7853.97
7853.97
7855.23
7855.98
7856
7855.98
7857.39
7858
7858.69
7859.77
7860.78
7861.95
7861.97
7861.97
7863.52
7864.45
7865.79
7865.92
7865.92
7867.35
7867.35
7869.21
7870.94
7871.13
7872.68
7875.33
7877.01
7879.81
7883.09
7888.08
7894.52
7901.96
7980.84
8200.48
26432.6
8321.57
8078.23
7973.69
7919.54
7886.94
7866.38
7852.12
7842.32
7834.94
7829.65
7825.4
7822.32
7819.71
7817.82
7816.14
7814.94
7813.83
7813.06
7812.28
7811.8
7811.2
7810.94
7810.7
7810.48
7809.97
7810.01
7809.99
7809.96
7809.76
7809.97
7809.97
7810.16
7810.13
7810.4
7810.39
7810.82
7810.82
7811.38
7811.37
7812.03
7812.02
7812.78
7812.78
7814.13
7814.85
7814.92
7814.92
7815.95
7815.94
7817.29
7817.29
7818.62
7819.59
7820.73
7821.03
7821.1
7822.34
7823.1
7823.45
7823.45
7823.42
7824.53
7824.53
7825.79
7826.61
7826.63
7826.61
7828.06
7828.76
7829.4
7830.52
7831.56
7832.81
7832.84
7832.84
7834.42
7835.4
7836.81
7836.97
7836.98
7838.45
7838.45
7840.33
7842.16
7842.41
7843.92
7846.63
7848.39
7851.17
7854.55
7859.45
7866.23
7872.79
7955.37
8174.75
24910.1
8317.05
8064.41
7954.25
7896.71
7861.92
7839.88
7824.57
7814
7806.04
7800.31
7795.72
7792.37
7789.54
7787.48
7785.65
7784.34
7783.12
7782.28
7781.42
7780.89
7780.24
7779.94
7779.66
7779.42
7778.87
7778.89
7778.86
7778.81
7778.58
7778.78
7778.78
7778.96
7778.93
7779.18
7779.17
7779.6
7779.6
7780.16
7780.16
7780.83
7780.82
7781.59
7781.6
7782.98
7783.76
7783.81
7783.81
7784.88
7784.87
7786.27
7786.28
7787.62
7788.62
7789.82
7790.14
7790.18
7791.49
7792.29
7792.69
7792.69
7792.66
7793.84
7793.84
7795.09
7795.99
7796
7795.99
7797.48
7798.27
7798.86
7800.02
7801.1
7802.41
7802.47
7802.47
7804.08
7805.11
7806.59
7806.78
7806.79
7808.32
7808.31
7810.22
7812.14
7812.45
7813.92
7816.7
7818.53
7821.29
7824.77
7829.57
7836.7
7842.39
7928.48
8147.49
23497.1
8312.56
8050.33
7934.3
7873.18
7836.07
7812.45
7796.01
7784.63
7776.05
7769.85
7764.89
7761.25
7758.18
7755.93
7753.95
7752.51
7751.19
7750.26
7749.33
7748.73
7748.03
7747.68
7747.36
7747.09
7746.52
7746.5
7746.46
7746.39
7746.12
7746.32
7746.32
7746.48
7746.44
7746.69
7746.66
7747.09
7747.09
7747.66
7747.65
7748.34
7748.33
7749.12
7749.12
7750.54
7751.37
7751.42
7751.42
7752.52
7752.51
7753.97
7754
7755.33
7756.37
7757.63
7757.97
7757.99
7759.36
7760.21
7760.66
7760.66
7760.62
7761.87
7761.89
7763.12
7764.11
7764.11
7764.11
7765.63
7766.51
7767.06
7768.25
7769.37
7770.75
7770.83
7770.83
7772.48
7773.55
7775.1
7775.34
7775.35
7776.93
7776.92
7778.85
7780.86
7781.26
7782.67
7785.5
7787.42
7790.15
7793.73
7798.41
7805.9
7810.74
7900.09
8118.62
22188.6
8308.1
8036
7913.85
7848.97
7809.4
7784.1
7766.46
7754.21
7744.96
7738.26
7732.91
7728.95
7725.63
7723.18
7721.02
7719.45
7718.01
7716.99
7715.97
7715.31
7714.55
7714.15
7713.79
7713.49
7712.88
7712.83
7712.77
7712.68
7712.38
7712.57
7712.57
7712.71
7712.66
7712.89
7712.86
7713.29
7713.29
7713.86
7713.85
7714.55
7714.54
7715.35
7715.35
7716.8
7717.69
7717.72
7717.72
7718.86
7718.85
7720.36
7720.42
7721.74
7722.82
7724.14
7724.5
7724.5
7725.93
7726.84
7727.34
7727.34
7727.3
7728.61
7728.65
7729.86
7730.93
7730.93
7730.93
7732.48
7733.47
7733.98
7735.2
7736.36
7737.81
7737.91
7737.91
7739.59
7740.71
7742.33
7742.62
7742.64
7744.27
7744.26
7746.2
7748.3
7748.8
7750.15
7753.02
7755.03
7757.73
7761.41
7765.98
7773.8
7777.83
7870.15
8088.1
20979.3
8303.68
8021.46
7892.93
7824.08
7781.91
7754.83
7735.92
7722.74
7712.78
7705.54
7699.76
7695.47
7691.87
7689.21
7686.86
7685.15
7683.57
7682.45
7681.35
7680.61
7679.79
7679.34
7678.93
7678.6
7677.95
7677.87
7677.78
7677.67
7677.33
7677.51
7677.51
7677.64
7677.58
7677.79
7677.75
7678.17
7678.16
7678.74
7678.73
7679.44
7679.43
7680.26
7680.26
7681.74
7682.69
7682.71
7682.71
7683.89
7683.88
7685.44
7685.53
7686.84
7687.95
7689.33
7689.7
7689.7
7691.18
7692.14
7692.7
7692.71
7692.66
7694.05
7694.11
7695.28
7696.44
7696.44
7696.45
7698.03
7699.12
7699.59
7700.85
7702.05
7703.56
7703.69
7703.69
7705.41
7706.58
7708.26
7708.62
7708.62
7710.31
7710.31
7712.27
7714.45
7715.06
7716.34
7719.25
7721.36
7724.02
7727.79
7732.23
7740.38
7743.64
7838.57
8055.84
19863.7
8299.33
8006.73
7871.55
7798.55
7753.62
7724.66
7704.39
7690.22
7679.5
7671.69
7665.44
7660.79
7656.9
7654
7651.46
7649.59
7647.88
7646.64
7645.44
7644.63
7643.73
7643.22
7642.76
7642.4
7641.7
7641.59
7641.48
7641.34
7640.96
7641.13
7641.13
7641.24
7641.17
7641.36
7641.3
7641.72
7641.71
7642.29
7642.28
7643
7642.99
7643.83
7643.83
7645.34
7646.34
7646.35
7646.35
7647.58
7647.57
7649.18
7649.3
7650.59
7651.75
7653.19
7653.57
7653.57
7655.1
7656.11
7656.74
7656.74
7656.7
7658.15
7658.26
7659.37
7660.62
7660.64
7660.65
7662.26
7663.46
7663.9
7665.17
7666.42
7667.98
7668.15
7668.15
7669.9
7671.12
7672.88
7673.3
7673.3
7675.05
7675.04
7677.02
7679.29
7680.01
7681.22
7684.15
7686.37
7688.99
7692.86
7697.17
7705.61
7708.14
7805.3
8021.79
18836
8295.04
7991.83
7849.75
7772.38
7724.56
7693.6
7671.88
7656.65
7645.13
7636.69
7629.96
7624.92
7620.72
7617.56
7614.81
7612.76
7610.9
7609.55
7608.24
7607.34
7606.37
7605.8
7605.28
7604.88
7604.14
7603.99
7603.84
7603.69
7603.27
7603.42
7603.42
7603.5
7603.42
7603.59
7603.52
7603.92
7603.92
7604.49
7604.48
7605.2
7605.2
7606.05
7606.05
7607.59
7608.65
7608.65
7608.65
7609.92
7609.91
7611.57
7611.74
7612.99
7614.19