/*--------------------------------*- C++ -*----------------------------------*\
| =========                 |                                                 |
| \\      /  F ield         | OpenFOAM: The Open Source CFD Toolbox           |
|  \\    /   O peration     | Version:  v2012                                 |
|   \\  /    A nd           | Website:  www.openfoam.com                      |
|    \\/     M anipulation  |                                                 |
\*---------------------------------------------------------------------------*/
FoamFile
{
    version     2.0;
    format      ascii;
    class       volVectorField;
    location    "4";
    object      wallShearStress;
}
// * * * * * * * * * * * * * * * * * * * * * * * * * * * * * * * * * * * * * //

dimensions      [0 2 -2 0 0 0 0];


internalField   uniform (0 0 0);

boundaryField
{
    inlet
    {
        type            calculated;
        value           uniform (0 0 0);
    }
    outlet
    {
        type            calculated;
        value           uniform (0 0 0);
    }
    topWall
    {
        type            calculated;
        value           nonuniform List<vector> 
545
(
(6.53473e-09 -4.5686e-09 0)
(6.56349e-09 -1.29581e-08 0)
(6.47042e-09 -2.15052e-08 0)
(6.43263e-09 -2.97643e-08 0)
(6.40591e-09 -3.76385e-08 0)
(6.37979e-09 -4.52353e-08 0)
(6.35174e-09 -5.26255e-08 0)
(6.32127e-09 -5.9808e-08 0)
(6.28844e-09 -6.67663e-08 0)
(6.25347e-09 -7.3499e-08 0)
(6.21655e-09 -8.00144e-08 0)
(6.17788e-09 -8.63202e-08 0)
(6.13765e-09 -9.24215e-08 0)
(6.09602e-09 -9.83224e-08 0)
(6.05317e-09 -1.04028e-07 0)
(6.00926e-09 -1.09543e-07 0)
(5.96443e-09 -1.14873e-07 0)
(5.91883e-09 -1.20023e-07 0)
(5.87256e-09 -1.24999e-07 0)
(5.82577e-09 -1.29805e-07 0)
(5.77854e-09 -1.34447e-07 0)
(5.73099e-09 -1.38929e-07 0)
(5.68319e-09 -1.43257e-07 0)
(5.63525e-09 -1.47436e-07 0)
(5.58721e-09 -1.5147e-07 0)
(5.53918e-09 -1.55364e-07 0)
(5.49118e-09 -1.59122e-07 0)
(5.4433e-09 -1.6275e-07 0)
(5.39558e-09 -1.6625e-07 0)
(5.34806e-09 -1.69629e-07 0)
(5.30078e-09 -1.72889e-07 0)
(5.25378e-09 -1.76036e-07 0)
(5.20709e-09 -1.79072e-07 0)
(5.16074e-09 -1.82002e-07 0)
(5.11475e-09 -1.84829e-07 0)
(5.06916e-09 -1.87557e-07 0)
(5.02395e-09 -1.90189e-07 0)
(4.97917e-09 -1.9273e-07 0)
(4.93481e-09 -1.95181e-07 0)
(4.89089e-09 -1.97546e-07 0)
(4.84741e-09 -1.99828e-07 0)
(4.80438e-09 -2.02031e-07 0)
(4.76179e-09 -2.04156e-07 0)
(4.71967e-09 -2.06207e-07 0)
(4.67798e-09 -2.08186e-07 0)
(4.63676e-09 -2.10096e-07 0)
(4.59596e-09 -2.11939e-07 0)
(4.55562e-09 -2.13718e-07 0)
(4.51569e-09 -2.15435e-07 0)
(4.4762e-09 -2.17092e-07 0)
(4.43711e-09 -2.18691e-07 0)
(4.39844e-09 -2.20234e-07 0)
(4.36015e-09 -2.21723e-07 0)
(4.32226e-09 -2.23161e-07 0)
(4.28472e-09 -2.24548e-07 0)
(4.24756e-09 -2.25888e-07 0)
(4.21072e-09 -2.2718e-07 0)
(4.17423e-09 -2.28428e-07 0)
(4.13804e-09 -2.29632e-07 0)
(4.10215e-09 -2.30794e-07 0)
(4.06655e-09 -2.31916e-07 0)
(4.03121e-09 -2.32998e-07 0)
(3.99613e-09 -2.34043e-07 0)
(3.96128e-09 -2.35052e-07 0)
(3.92664e-09 -2.36025e-07 0)
(3.8922e-09 -2.36964e-07 0)
(3.85795e-09 -2.37871e-07 0)
(3.82383e-09 -2.38745e-07 0)
(3.78997e-09 -2.39592e-07 0)
(3.75576e-09 -2.40401e-07 0)
(3.72369e-09 -2.4121e-07 0)
(3.68298e-09 -2.41924e-07 0)
(3.64558e-09 -2.4264e-07 0)
(3.62307e-09 -2.434e-07 0)
(3.60086e-09 -2.44063e-07 0)
(3.57876e-09 -2.44722e-07 0)
(3.5567e-09 -2.45395e-07 0)
(3.53468e-09 -2.46066e-07 0)
(3.51268e-09 -2.46725e-07 0)
(3.49072e-09 -2.47375e-07 0)
(3.46879e-09 -2.48018e-07 0)
(3.44689e-09 -2.48654e-07 0)
(3.42503e-09 -2.49284e-07 0)
(3.40319e-09 -2.49907e-07 0)
(3.3814e-09 -2.50523e-07 0)
(3.35963e-09 -2.51132e-07 0)
(3.3379e-09 -2.51735e-07 0)
(3.3162e-09 -2.52331e-07 0)
(3.29454e-09 -2.5292e-07 0)
(3.2729e-09 -2.53502e-07 0)
(3.25135e-09 -2.5408e-07 0)
(3.22962e-09 -2.54646e-07 0)
(3.20884e-09 -2.55225e-07 0)
(3.18424e-09 -2.55739e-07 0)
(3.17604e-09 -2.56496e-07 0)
(3.09828e-09 -2.56753e-07 0)
(2.99937e-09 -2.57066e-07 0)
(2.97607e-09 -2.57918e-07 0)
(2.9599e-09 -2.58279e-07 0)
(2.94547e-09 -2.58574e-07 0)
(2.93142e-09 -2.58966e-07 0)
(2.91742e-09 -2.59406e-07 0)
(2.9034e-09 -2.59834e-07 0)
(2.88935e-09 -2.60243e-07 0)
(2.87525e-09 -2.60647e-07 0)
(2.86111e-09 -2.61055e-07 0)
(2.84693e-09 -2.61464e-07 0)
(2.83271e-09 -2.61871e-07 0)
(2.81845e-09 -2.62277e-07 0)
(2.80414e-09 -2.62682e-07 0)
(2.7898e-09 -2.63085e-07 0)
(2.77541e-09 -2.63487e-07 0)
(2.76098e-09 -2.63888e-07 0)
(2.74651e-09 -2.64289e-07 0)
(2.73199e-09 -2.64687e-07 0)
(2.71744e-09 -2.65085e-07 0)
(2.70285e-09 -2.65482e-07 0)
(2.68821e-09 -2.65877e-07 0)
(2.67353e-09 -2.66271e-07 0)
(2.65882e-09 -2.66664e-07 0)
(2.64406e-09 -2.67055e-07 0)
(2.62926e-09 -2.67446e-07 0)
(2.61442e-09 -2.67835e-07 0)
(2.59954e-09 -2.68223e-07 0)
(2.58462e-09 -2.68609e-07 0)
(2.56966e-09 -2.68994e-07 0)
(2.55466e-09 -2.69378e-07 0)
(2.53962e-09 -2.6976e-07 0)
(2.52454e-09 -2.70141e-07 0)
(2.50942e-09 -2.70521e-07 0)
(2.49426e-09 -2.70899e-07 0)
(2.47906e-09 -2.71276e-07 0)
(2.46382e-09 -2.71652e-07 0)
(2.44855e-09 -2.72026e-07 0)
(2.43323e-09 -2.72398e-07 0)
(2.41788e-09 -2.72769e-07 0)
(2.40248e-09 -2.73139e-07 0)
(2.38705e-09 -2.73507e-07 0)
(2.37158e-09 -2.73873e-07 0)
(2.35607e-09 -2.74238e-07 0)
(2.34052e-09 -2.74602e-07 0)
(2.32494e-09 -2.74964e-07 0)
(2.30932e-09 -2.75324e-07 0)
(2.29366e-09 -2.75683e-07 0)
(2.27796e-09 -2.7604e-07 0)
(2.26223e-09 -2.76396e-07 0)
(2.24646e-09 -2.76749e-07 0)
(2.23065e-09 -2.77102e-07 0)
(2.2148e-09 -2.77452e-07 0)
(2.19892e-09 -2.77801e-07 0)
(2.183e-09 -2.78148e-07 0)
(2.16705e-09 -2.78494e-07 0)
(2.15106e-09 -2.78837e-07 0)
(2.13504e-09 -2.79179e-07 0)
(2.11898e-09 -2.7952e-07 0)
(2.10288e-09 -2.79858e-07 0)
(2.08675e-09 -2.80195e-07 0)
(2.07058e-09 -2.80529e-07 0)
(2.05438e-09 -2.80862e-07 0)
(2.03815e-09 -2.81193e-07 0)
(2.02188e-09 -2.81523e-07 0)
(2.00558e-09 -2.8185e-07 0)
(1.98924e-09 -2.82176e-07 0)
(1.97287e-09 -2.82499e-07 0)
(1.95647e-09 -2.82821e-07 0)
(1.94003e-09 -2.83141e-07 0)
(1.92356e-09 -2.83459e-07 0)
(1.90706e-09 -2.83774e-07 0)
(1.89053e-09 -2.84088e-07 0)
(1.87396e-09 -2.844e-07 0)
(1.85737e-09 -2.8471e-07 0)
(1.84074e-09 -2.85018e-07 0)
(1.82408e-09 -2.85323e-07 0)
(1.80739e-09 -2.85627e-07 0)
(1.79067e-09 -2.85928e-07 0)
(1.77391e-09 -2.86228e-07 0)
(1.75713e-09 -2.86525e-07 0)
(1.74032e-09 -2.8682e-07 0)
(1.72348e-09 -2.87113e-07 0)
(1.70661e-09 -2.87404e-07 0)
(1.68971e-09 -2.87693e-07 0)
(1.67279e-09 -2.87979e-07 0)
(1.65583e-09 -2.88263e-07 0)
(1.63885e-09 -2.88545e-07 0)
(1.62184e-09 -2.88825e-07 0)
(1.6048e-09 -2.89102e-07 0)
(1.58774e-09 -2.89378e-07 0)
(1.57065e-09 -2.8965e-07 0)
(1.55353e-09 -2.89921e-07 0)
(1.53639e-09 -2.90189e-07 0)
(1.51922e-09 -2.90455e-07 0)
(1.50203e-09 -2.90718e-07 0)
(1.48481e-09 -2.90979e-07 0)
(1.46757e-09 -2.91238e-07 0)
(1.4503e-09 -2.91494e-07 0)
(1.43301e-09 -2.91748e-07 0)
(1.4157e-09 -2.91999e-07 0)
(1.39836e-09 -2.92248e-07 0)
(1.381e-09 -2.92494e-07 0)
(1.36362e-09 -2.92738e-07 0)
(1.34622e-09 -2.92979e-07 0)
(1.3288e-09 -2.93218e-07 0)
(1.31135e-09 -2.93454e-07 0)
(1.29389e-09 -2.93688e-07 0)
(1.2764e-09 -2.93919e-07 0)
(1.25889e-09 -2.94147e-07 0)
(1.24137e-09 -2.94373e-07 0)
(1.22383e-09 -2.94596e-07 0)
(1.20626e-09 -2.94816e-07 0)
(1.18868e-09 -2.95034e-07 0)
(1.17108e-09 -2.95249e-07 0)
(1.15347e-09 -2.95461e-07 0)
(1.13584e-09 -2.95671e-07 0)
(1.11819e-09 -2.95878e-07 0)
(1.10052e-09 -2.96082e-07 0)
(1.08284e-09 -2.96283e-07 0)
(1.06515e-09 -2.96481e-07 0)
(1.04744e-09 -2.96677e-07 0)
(1.02972e-09 -2.9687e-07 0)
(1.01198e-09 -2.9706e-07 0)
(9.94229e-10 -2.97247e-07 0)
(9.76467e-10 -2.97431e-07 0)
(9.58692e-10 -2.97612e-07 0)
(9.40906e-10 -2.97791e-07 0)
(9.23107e-10 -2.97966e-07 0)
(9.05299e-10 -2.98138e-07 0)
(8.8748e-10 -2.98308e-07 0)
(8.69652e-10 -2.98474e-07 0)
(8.51814e-10 -2.98638e-07 0)
(8.33968e-10 -2.98798e-07 0)
(8.16113e-10 -2.98956e-07 0)
(7.98251e-10 -2.9911e-07 0)
(7.80382e-10 -2.99261e-07 0)
(7.62506e-10 -2.99409e-07 0)
(7.44624e-10 -2.99554e-07 0)
(7.26737e-10 -2.99696e-07 0)
(7.08844e-10 -2.99835e-07 0)
(6.90947e-10 -2.99971e-07 0)
(6.73046e-10 -3.00103e-07 0)
(6.55142e-10 -3.00232e-07 0)
(6.37235e-10 -3.00358e-07 0)
(6.19325e-10 -3.00481e-07 0)
(6.01414e-10 -3.00601e-07 0)
(5.83502e-10 -3.00717e-07 0)
(5.65589e-10 -3.0083e-07 0)
(5.47676e-10 -3.0094e-07 0)
(5.29764e-10 -3.01046e-07 0)
(5.11853e-10 -3.01149e-07 0)
(4.93944e-10 -3.01249e-07 0)
(4.76037e-10 -3.01345e-07 0)
(4.58134e-10 -3.01439e-07 0)
(4.40233e-10 -3.01528e-07 0)
(4.22337e-10 -3.01615e-07 0)
(4.04445e-10 -3.01697e-07 0)
(3.86559e-10 -3.01777e-07 0)
(3.68679e-10 -3.01853e-07 0)
(3.50806e-10 -3.01925e-07 0)
(3.32939e-10 -3.01994e-07 0)
(3.15081e-10 -3.0206e-07 0)
(2.97231e-10 -3.02122e-07 0)
(2.7939e-10 -3.0218e-07 0)
(2.6156e-10 -3.02235e-07 0)
(2.43734e-10 -3.02287e-07 0)
(2.25946e-10 -3.02336e-07 0)
(2.08057e-10 -3.02376e-07 0)
(1.90657e-10 -3.02432e-07 0)
(1.71249e-10 -3.02428e-07 0)
(1.60407e-10 -3.02657e-07 0)
(1.13326e-10 -3.02424e-07 0)
(5.30219e-11 -3.02271e-07 0)
(3.31343e-11 -3.02677e-07 0)
(2.08666e-11 -3.02652e-07 0)
(1.02921e-11 -3.02544e-07 0)
(-2.46129e-14 -3.02516e-07 0)
(-1.04325e-11 -3.02536e-07 0)
(-2.10117e-11 -3.02548e-07 0)
(-3.1776e-11 -3.02541e-07 0)
(-4.27269e-11 -3.02528e-07 0)
(-5.38647e-11 -3.02516e-07 0)
(-6.51895e-11 -3.02504e-07 0)
(-7.67004e-11 -3.02489e-07 0)
(-8.83963e-11 -3.02471e-07 0)
(-1.00276e-10 -3.0245e-07 0)
(-1.12338e-10 -3.02426e-07 0)
(-1.24582e-10 -3.02399e-07 0)
(-1.37006e-10 -3.0237e-07 0)
(-1.49609e-10 -3.02337e-07 0)
(-1.6239e-10 -3.02301e-07 0)
(-1.75347e-10 -3.02262e-07 0)
(-1.88479e-10 -3.02219e-07 0)
(-2.01785e-10 -3.02173e-07 0)
(-2.15263e-10 -3.02123e-07 0)
(-2.28912e-10 -3.02069e-07 0)
(-2.4273e-10 -3.02012e-07 0)
(-2.56715e-10 -3.01951e-07 0)
(-2.70866e-10 -3.01885e-07 0)
(-2.85181e-10 -3.01815e-07 0)
(-2.99659e-10 -3.01741e-07 0)
(-3.14296e-10 -3.01663e-07 0)
(-3.29093e-10 -3.0158e-07 0)
(-3.44045e-10 -3.01492e-07 0)
(-3.59152e-10 -3.01399e-07 0)
(-3.74412e-10 -3.01301e-07 0)
(-3.89821e-10 -3.01199e-07 0)
(-4.05379e-10 -3.01091e-07 0)
(-4.21081e-10 -3.00977e-07 0)
(-4.36927e-10 -3.00858e-07 0)
(-4.52914e-10 -3.00733e-07 0)
(-4.69039e-10 -3.00602e-07 0)
(-4.85299e-10 -3.00466e-07 0)
(-5.01692e-10 -3.00323e-07 0)
(-5.18214e-10 -3.00173e-07 0)
(-5.34864e-10 -3.00017e-07 0)
(-5.51637e-10 -2.99855e-07 0)
(-5.68532e-10 -2.99685e-07 0)
(-5.85543e-10 -2.99509e-07 0)
(-6.0267e-10 -2.99325e-07 0)
(-6.19907e-10 -2.99134e-07 0)
(-6.37251e-10 -2.98935e-07 0)
(-6.54699e-10 -2.98728e-07 0)
(-6.72248e-10 -2.98514e-07 0)
(-6.89892e-10 -2.98291e-07 0)
(-7.07629e-10 -2.9806e-07 0)
(-7.25454e-10 -2.9782e-07 0)
(-7.43363e-10 -2.97571e-07 0)
(-7.61352e-10 -2.97314e-07 0)
(-7.79417e-10 -2.97047e-07 0)
(-7.97552e-10 -2.96771e-07 0)
(-8.15754e-10 -2.96485e-07 0)
(-8.34017e-10 -2.9619e-07 0)
(-8.52338e-10 -2.95884e-07 0)
(-8.70709e-10 -2.95568e-07 0)
(-8.89128e-10 -2.95242e-07 0)
(-9.07588e-10 -2.94905e-07 0)
(-9.26084e-10 -2.94557e-07 0)
(-9.44611e-10 -2.94198e-07 0)
(-9.63163e-10 -2.93828e-07 0)
(-9.81734e-10 -2.93447e-07 0)
(-1.00032e-09 -2.93053e-07 0)
(-1.01891e-09 -2.92648e-07 0)
(-1.0375e-09 -2.92231e-07 0)
(-1.05609e-09 -2.91801e-07 0)
(-1.07467e-09 -2.91359e-07 0)
(-1.09323e-09 -2.90904e-07 0)
(-1.11177e-09 -2.90436e-07 0)
(-1.13028e-09 -2.89955e-07 0)
(-1.14875e-09 -2.89461e-07 0)
(-1.16717e-09 -2.88953e-07 0)
(-1.18554e-09 -2.88431e-07 0)
(-1.20386e-09 -2.87896e-07 0)
(-1.22211e-09 -2.87346e-07 0)
(-1.24029e-09 -2.86783e-07 0)
(-1.25838e-09 -2.86204e-07 0)
(-1.27639e-09 -2.85611e-07 0)
(-1.2943e-09 -2.85003e-07 0)
(-1.31211e-09 -2.8438e-07 0)
(-1.32981e-09 -2.83742e-07 0)
(-1.34739e-09 -2.83088e-07 0)
(-1.36484e-09 -2.82419e-07 0)
(-1.38215e-09 -2.81734e-07 0)
(-1.39932e-09 -2.81032e-07 0)
(-1.41634e-09 -2.80315e-07 0)
(-1.4332e-09 -2.79582e-07 0)
(-1.44989e-09 -2.78832e-07 0)
(-1.4664e-09 -2.78065e-07 0)
(-1.48272e-09 -2.77281e-07 0)
(-1.49885e-09 -2.76481e-07 0)
(-1.51477e-09 -2.75663e-07 0)
(-1.53049e-09 -2.74828e-07 0)
(-1.54597e-09 -2.73976e-07 0)
(-1.56123e-09 -2.73106e-07 0)
(-1.57625e-09 -2.72218e-07 0)
(-1.59101e-09 -2.71312e-07 0)
(-1.60552e-09 -2.70388e-07 0)
(-1.61976e-09 -2.69447e-07 0)
(-1.63373e-09 -2.68486e-07 0)
(-1.6474e-09 -2.67508e-07 0)
(-1.66079e-09 -2.66511e-07 0)
(-1.67387e-09 -2.65495e-07 0)
(-1.68663e-09 -2.64461e-07 0)
(-1.69907e-09 -2.63408e-07 0)
(-1.71118e-09 -2.62336e-07 0)
(-1.72295e-09 -2.61245e-07 0)
(-1.73438e-09 -2.60135e-07 0)
(-1.74544e-09 -2.59005e-07 0)
(-1.75614e-09 -2.57857e-07 0)
(-1.76646e-09 -2.5669e-07 0)
(-1.77639e-09 -2.55503e-07 0)
(-1.78594e-09 -2.54297e-07 0)
(-1.79508e-09 -2.53072e-07 0)
(-1.80382e-09 -2.51828e-07 0)
(-1.81214e-09 -2.50564e-07 0)
(-1.82004e-09 -2.49281e-07 0)
(-1.82751e-09 -2.47979e-07 0)
(-1.83453e-09 -2.46658e-07 0)
(-1.84112e-09 -2.45318e-07 0)
(-1.84725e-09 -2.43958e-07 0)
(-1.85292e-09 -2.4258e-07 0)
(-1.85813e-09 -2.41183e-07 0)
(-1.86287e-09 -2.39767e-07 0)
(-1.86713e-09 -2.38333e-07 0)
(-1.87091e-09 -2.3688e-07 0)
(-1.8742e-09 -2.35408e-07 0)
(-1.877e-09 -2.33919e-07 0)
(-1.87931e-09 -2.32411e-07 0)
(-1.88111e-09 -2.30885e-07 0)
(-1.88241e-09 -2.29342e-07 0)
(-1.8832e-09 -2.27781e-07 0)
(-1.88348e-09 -2.26203e-07 0)
(-1.88324e-09 -2.24608e-07 0)
(-1.88249e-09 -2.22997e-07 0)
(-1.88121e-09 -2.21368e-07 0)
(-1.87941e-09 -2.19724e-07 0)
(-1.87709e-09 -2.18063e-07 0)
(-1.87424e-09 -2.16387e-07 0)
(-1.87087e-09 -2.14696e-07 0)
(-1.86696e-09 -2.1299e-07 0)
(-1.86253e-09 -2.11269e-07 0)
(-1.85757e-09 -2.09534e-07 0)
(-1.85208e-09 -2.07785e-07 0)
(-1.84606e-09 -2.06022e-07 0)
(-1.83952e-09 -2.04247e-07 0)
(-1.83245e-09 -2.02459e-07 0)
(-1.82486e-09 -2.00659e-07 0)
(-1.81675e-09 -1.98847e-07 0)
(-1.80813e-09 -1.97024e-07 0)
(-1.799e-09 -1.95191e-07 0)
(-1.78936e-09 -1.93347e-07 0)
(-1.77923e-09 -1.91494e-07 0)
(-1.7686e-09 -1.89631e-07 0)
(-1.7575e-09 -1.8776e-07 0)
(-1.74592e-09 -1.85881e-07 0)
(-1.73387e-09 -1.83994e-07 0)
(-1.72137e-09 -1.82101e-07 0)
(-1.70842e-09 -1.80201e-07 0)
(-1.69503e-09 -1.78295e-07 0)
(-1.68121e-09 -1.76384e-07 0)
(-1.66698e-09 -1.74469e-07 0)
(-1.65235e-09 -1.72549e-07 0)
(-1.63732e-09 -1.70626e-07 0)
(-1.6219e-09 -1.687e-07 0)
(-1.60612e-09 -1.66773e-07 0)
(-1.58997e-09 -1.64843e-07 0)
(-1.57348e-09 -1.62913e-07 0)
(-1.55665e-09 -1.6098e-07 0)
(-1.53949e-09 -1.59053e-07 0)
(-1.52204e-09 -1.5711e-07 0)
(-1.50419e-09 -1.55216e-07 0)
(-1.48642e-09 -1.53126e-07 0)
(-1.46676e-09 -1.51412e-07 0)
(-1.44027e-09 -1.49415e-07 0)
(-1.4124e-09 -1.46792e-07 0)
(-1.38848e-09 -1.44562e-07 0)
(-1.36554e-09 -1.42418e-07 0)
(-1.34287e-09 -1.40242e-07 0)
(-1.32031e-09 -1.38068e-07 0)
(-1.29781e-09 -1.35937e-07 0)
(-1.2754e-09 -1.33856e-07 0)
(-1.2531e-09 -1.31813e-07 0)
(-1.23092e-09 -1.29804e-07 0)
(-1.20888e-09 -1.27828e-07 0)
(-1.18699e-09 -1.25889e-07 0)
(-1.16527e-09 -1.23985e-07 0)
(-1.14373e-09 -1.22116e-07 0)
(-1.12238e-09 -1.20282e-07 0)
(-1.10124e-09 -1.18483e-07 0)
(-1.0803e-09 -1.16717e-07 0)
(-1.05959e-09 -1.14985e-07 0)
(-1.0391e-09 -1.13286e-07 0)
(-1.01884e-09 -1.11621e-07 0)
(-9.98809e-10 -1.09988e-07 0)
(-9.79025e-10 -1.08387e-07 0)
(-9.5948e-10 -1.06818e-07 0)
(-9.40183e-10 -1.05281e-07 0)
(-9.21128e-10 -1.03774e-07 0)
(-9.02326e-10 -1.02299e-07 0)
(-8.83766e-10 -1.00853e-07 0)
(-8.65458e-10 -9.94373e-08 0)
(-8.47392e-10 -9.80507e-08 0)
(-8.29576e-10 -9.66937e-08 0)
(-8.12e-10 -9.53648e-08 0)
(-7.94671e-10 -9.40647e-08 0)
(-7.77578e-10 -9.2792e-08 0)
(-7.60726e-10 -9.15471e-08 0)
(-7.44107e-10 -9.0329e-08 0)
(-7.27723e-10 -8.91379e-08 0)
(-7.11567e-10 -8.79729e-08 0)
(-6.95639e-10 -8.68342e-08 0)
(-6.79933e-10 -8.57207e-08 0)
(-6.64449e-10 -8.46329e-08 0)
(-6.49179e-10 -8.35696e-08 0)
(-6.34126e-10 -8.25312e-08 0)
(-6.19279e-10 -8.15167e-08 0)
(-6.04641e-10 -8.05264e-08 0)
(-5.90202e-10 -7.95593e-08 0)
(-5.75964e-10 -7.86157e-08 0)
(-5.61918e-10 -7.76948e-08 0)
(-5.48064e-10 -7.67968e-08 0)
(-5.34393e-10 -7.59207e-08 0)
(-5.20906e-10 -7.50669e-08 0)
(-5.07594e-10 -7.42346e-08 0)
(-4.94457e-10 -7.34239e-08 0)
(-4.81486e-10 -7.26341e-08 0)
(-4.68681e-10 -7.18654e-08 0)
(-4.56033e-10 -7.11171e-08 0)
(-4.43541e-10 -7.03894e-08 0)
(-4.31198e-10 -6.96816e-08 0)
(-4.19001e-10 -6.89937e-08 0)
(-4.06945e-10 -6.83255e-08 0)
(-3.95025e-10 -6.76766e-08 0)
(-3.83237e-10 -6.7047e-08 0)
(-3.71576e-10 -6.64363e-08 0)
(-3.60039e-10 -6.58444e-08 0)
(-3.48619e-10 -6.5271e-08 0)
(-3.37314e-10 -6.4716e-08 0)
(-3.26119e-10 -6.41793e-08 0)
(-3.1503e-10 -6.36605e-08 0)
(-3.04043e-10 -6.31596e-08 0)
(-2.93153e-10 -6.26764e-08 0)
(-2.82356e-10 -6.22107e-08 0)
(-2.71648e-10 -6.17625e-08 0)
(-2.61026e-10 -6.13314e-08 0)
(-2.50484e-10 -6.09174e-08 0)
(-2.4002e-10 -6.05205e-08 0)
(-2.29627e-10 -6.01403e-08 0)
(-2.19303e-10 -5.9777e-08 0)
(-2.09041e-10 -5.94302e-08 0)
(-1.98839e-10 -5.91e-08 0)
(-1.88691e-10 -5.87862e-08 0)
(-1.78592e-10 -5.84888e-08 0)
(-1.68537e-10 -5.82076e-08 0)
(-1.58523e-10 -5.79428e-08 0)
(-1.48545e-10 -5.7694e-08 0)
(-1.38602e-10 -5.74615e-08 0)
(-1.28691e-10 -5.72448e-08 0)
(-1.18816e-10 -5.70447e-08 0)
(-1.08979e-10 -5.68589e-08 0)
(-9.91979e-11 -5.66942e-08 0)
(-8.94672e-11 -5.65282e-08 0)
(-7.98749e-11 -5.64334e-08 0)
(-7.01616e-11 -5.61664e-08 0)
(-6.13384e-11 -5.65135e-08 0)
(-4.92498e-11 -5.47378e-08 0)
(-5.01109e-11 -5.91496e-08 0)
(-2.9607e-11 -5.15912e-08 0)
)
;
    }
    bottomWall
    {
        type            calculated;
        value           nonuniform List<vector> 
449
(
(-48.7522 -0.967094 0)
(-19.8764 -0.00516075 0)
(-14.5467 -0.00110303 0)
(-12.3947 -0.00049504 0)
(-11.1976 -0.000290384 0)
(-10.4343 -0.000191506 0)
(-9.90585 -0.00013551 0)
(-9.51939 -0.000100603 0)
(-9.22496 -7.73937e-05 0)
(-8.99374 -6.10891e-05 0)
(-8.80821 -4.90482e-05 0)
(-8.65735 -3.98307e-05 0)
(-8.53326 -3.27024e-05 0)
(-8.43002 -2.73015e-05 0)
(-8.34237 -2.32423e-05 0)
(-8.26694 -2.01852e-05 0)
(-8.20059 -1.78545e-05 0)
(-8.14163 -1.59954e-05 0)
(-8.08854 -1.4469e-05 0)
(-8.04053 -1.31752e-05 0)
(-7.99672 -1.20502e-05 0)
(-7.95673 -1.10624e-05 0)
(-7.91994 -1.01828e-05 0)
(-7.88616 -9.39739e-06 0)
(-7.8549 -8.69666e-06 0)
(-7.82604 -8.05265e-06 0)
(-7.79928 -7.48683e-06 0)
(-7.77437 -6.9528e-06 0)
(-7.75131 -6.48317e-06 0)
(-7.72966 -6.06236e-06 0)
(-7.70952 -5.65258e-06 0)
(-7.69069 -5.31478e-06 0)
(-7.67289 -5.01528e-06 0)
(-7.65614 -4.66949e-06 0)
(-7.64071 -4.39727e-06 0)
(-7.62584 -4.17186e-06 0)
(-7.61197 -3.91088e-06 0)
(-7.59887 -3.68046e-06 0)
(-7.58656 -3.45538e-06 0)
(-7.575 -3.23643e-06 0)
(-7.56419 -3.07313e-06 0)
(-7.55374 -2.93916e-06 0)
(-7.54386 -2.758e-06 0)
(-7.53466 -2.63249e-06 0)
(-7.52564 -2.52173e-06 0)
(-7.51719 -2.38404e-06 0)
(-7.50912 -2.25991e-06 0)
(-7.50151 -2.1158e-06 0)
(-7.49438 -2.00213e-06 0)
(-7.48756 -1.90046e-06 0)
(-7.48113 -1.7742e-06 0)
(-7.47517 -1.66958e-06 0)
(-7.46946 -1.6347e-06 0)
(-7.46372 -1.61269e-06 0)
(-7.45818 -1.52795e-06 0)
(-7.45304 -1.44772e-06 0)
(-7.44802 -1.41472e-06 0)
(-7.44311 -1.32261e-06 0)
(-7.43874 -1.23507e-06 0)
(-7.43439 -1.20883e-06 0)
(-7.4302 -1.14104e-06 0)
(-7.42633 -1.06901e-06 0)
(-7.42263 -1.02482e-06 0)
(-7.41904 -9.93001e-07 0)
(-7.41555 -9.52856e-07 0)
(-7.41227 -8.80275e-07 0)
(-7.40928 -8.40687e-07 0)
(-7.40626 -8.42346e-07 0)
(-7.40325 -8.1549e-07 0)
(-7.40042 -7.78871e-07 0)
(-7.39767 -7.52764e-07 0)
(-7.39501 -7.10688e-07 0)
(-7.39255 -6.78397e-07 0)
(-7.39012 -6.67962e-07 0)
(-7.38774 -6.41547e-07 0)
(-7.38548 -6.15189e-07 0)
(-7.38329 -5.91833e-07 0)
(-7.38119 -5.89962e-07 0)
(-7.37898 -5.77878e-07 0)
(-7.37699 -5.01071e-07 0)
(-7.37536 -4.73711e-07 0)
(-7.37352 -5.11248e-07 0)
(-7.3716 -4.9995e-07 0)
(-7.36987 -4.57148e-07 0)
(-7.36823 -4.56173e-07 0)
(-7.36648 -4.44893e-07 0)
(-7.36497 -3.82832e-07 0)
(-7.3637 -3.69053e-07 0)
(-7.36224 -3.96279e-07 0)
(-7.36076 -3.91164e-07 0)
(-7.35933 -3.79334e-07 0)
(-7.35793 -3.62772e-07 0)
(-7.35664 -3.18343e-07 0)
(-7.35556 -2.93405e-07 0)
(-7.35443 -3.22062e-07 0)
(-7.35313 -3.28012e-07 0)
(-7.35197 -3.01266e-07 0)
(-7.35087 -3.07818e-07 0)
(-7.34964 -3.06471e-07 0)
(-7.34855 -2.55573e-07 0)
(-7.34772 -2.308e-07 0)
(-7.34679 -2.5855e-07 0)
(-7.34575 -2.65353e-07 0)
(-7.34477 -2.52096e-07 0)
(-7.34381 -2.32169e-07 0)
(-7.34298 -2.05733e-07 0)
(-7.34221 -2.08496e-07 0)
(-7.34136 -1.97446e-07 0)
(-7.34068 -1.70182e-07 0)
(-7.34004 -1.91292e-07 0)
(-7.33918 -2.08052e-07 0)
(-7.33842 -1.85165e-07 0)
(-7.33775 -1.83316e-07 0)
(-7.33699 -1.98114e-07 0)
(-7.33619 -1.97649e-07 0)
(-7.33543 -1.71204e-07 0)
(-7.33486 -1.46155e-07 0)
(-7.33429 -1.61062e-07 0)
(-7.33358 -1.7242e-07 0)
(-7.33293 -1.61496e-07 0)
(-7.33231 -1.49587e-07 0)
(-7.33173 -1.47357e-07 0)
(-7.33112 -1.6002e-07 0)
(-7.33044 -1.50018e-07 0)
(-7.32992 -9.94576e-08 0)
(-7.32967 -7.91444e-08 0)
(-7.32929 -1.18592e-07 0)
(-7.3287 -1.49962e-07 0)
(-7.32806 -1.50157e-07 0)
(-7.32748 -1.22013e-07 0)
(-7.32708 -1.03379e-07 0)
(-7.32663 -1.2127e-07 0)
(-7.32608 -1.08535e-07 0)
(-7.32574 -8.81306e-08 0)
(-7.32535 -1.0508e-07 0)
(-7.32486 -1.00424e-07 0)
(-7.32451 -8.85782e-08 0)
(-7.32412 -1.03058e-07 0)
(-7.32365 -9.94901e-08 0)
(-7.32329 -8.82388e-08 0)
(-7.32291 -9.88129e-08 0)
(-7.32245 -9.6637e-08 0)
(-7.3221 -7.53403e-08 0)
(-7.32183 -7.04015e-08 0)
(-7.32151 -9.16097e-08 0)
(-7.32104 -1.11896e-07 0)
(-7.32055 -9.29267e-08 0)
(-7.32026 -7.34742e-08 0)
(-7.31993 -9.15499e-08 0)
(-7.31948 -8.29838e-08 0)
(-7.31923 -5.83424e-08 0)
(-7.31899 -7.06211e-08 0)
(-7.31863 -7.37378e-08 0)
(-7.31836 -6.93823e-08 0)
(-7.31803 -8.30443e-08 0)
(-7.31763 -8.30482e-08 0)
(-7.3173 -7.0717e-08 0)
(-7.31701 -5.83906e-08 0)
(-7.31678 -5.589e-08 0)
(-7.31651 -5.92833e-08 0)
(-7.31624 -6.19407e-08 0)
(-7.31595 -6.861e-08 0)
(-7.31563 -5.21047e-08 0)
(-7.31549 -4.29691e-08 0)
(-7.31525 -6.34123e-08 0)
(-7.31492 -5.35643e-08 0)
(-7.31477 -4.2835e-08 0)
(-7.31453 -6.31892e-08 0)
(-7.3142 -5.34782e-08 0)
(-7.31405 -4.1894e-08 0)
(-7.31382 -5.97866e-08 0)
(-7.31352 -5.77233e-08 0)
(-7.31332 -1.71996e-08 0)
(-7.31339 2.99984e-09 0)
(-7.31337 -1.47025e-08 0)
(-7.31332 -6.13875e-09 0)
(-7.3134 1.20687e-08 0)
(-7.3135 -2.77536e-09 0)
(-7.31344 -2.16435e-08 0)
(-7.31333 -4.24898e-08 0)
(-7.31308 -6.70199e-08 0)
(-7.31276 -5.84152e-08 0)
(-7.31255 -5.16979e-08 0)
(-7.31228 -6.51407e-08 0)
(-7.31194 -5.95424e-08 0)
(-7.3117 -5.66347e-08 0)
(-7.31139 -6.77351e-08 0)
(-7.31103 -6.29694e-08 0)
(-7.31074 -6.22802e-08 0)
(-7.31039 -7.11668e-08 0)
(-7.31 -6.77739e-08 0)
(-7.30967 -6.71072e-08 0)
(-7.30929 -7.05662e-08 0)
(-7.3089 -7.00354e-08 0)
(-7.30851 -7.23718e-08 0)
(-7.30811 -6.90803e-08 0)
(-7.30774 -6.83423e-08 0)
(-7.30733 -7.49269e-08 0)
(-7.30689 -6.95389e-08 0)
(-7.30652 -6.70846e-08 0)
(-7.3061 -7.45606e-08 0)
(-7.30565 -6.90278e-08 0)
(-7.30527 -6.48049e-08 0)
(-7.30486 -7.16055e-08 0)
(-7.3044 -6.79033e-08 0)
(-7.30402 -6.34986e-08 0)
(-7.30361 -6.78398e-08 0)
(-7.30316 -6.42117e-08 0)
(-7.30278 -6.14166e-08 0)
(-7.30237 -6.58447e-08 0)
(-7.30193 -6.35508e-08 0)
(-7.30153 -6.14512e-08 0)
(-7.30111 -6.3508e-08 0)
(-7.30067 -6.16417e-08 0)
(-7.30027 -6.11059e-08 0)
(-7.29984 -6.0944e-08 0)
(-7.29942 -5.87122e-08 0)
(-7.29901 -5.90365e-08 0)
(-7.29858 -5.6646e-08 0)
(-7.29819 -5.44281e-08 0)
(-7.29779 -5.63012e-08 0)
(-7.29737 -5.3646e-08 0)
(-7.29699 -5.12888e-08 0)
(-7.2966 -5.34839e-08 0)
(-7.29618 -5.11007e-08 0)
(-7.29582 -4.87461e-08 0)
(-7.29543 -5.01956e-08 0)
(-7.29503 -4.79371e-08 0)
(-7.29467 -4.6566e-08 0)
(-7.29428 -4.79049e-08 0)
(-7.29389 -4.63626e-08 0)
(-7.29352 -4.58585e-08 0)
(-7.29313 -4.5951e-08 0)
(-7.29276 -4.45716e-08 0)
(-7.29238 -4.47353e-08 0)
(-7.292 -4.31254e-08 0)
(-7.29164 -4.14016e-08 0)
(-7.29128 -4.24263e-08 0)
(-7.2909 -4.04944e-08 0)
(-7.29056 -3.88133e-08 0)
(-7.29021 -3.99553e-08 0)
(-7.28984 -3.81044e-08 0)
(-7.28951 -3.71655e-08 0)
(-7.28915 -3.86087e-08 0)
(-7.28879 -3.64423e-08 0)
(-7.28847 -3.4984e-08 0)
(-7.28812 -3.6208e-08 0)
(-7.28777 -3.43353e-08 0)
(-7.28745 -3.3135e-08 0)
(-7.28712 -3.43472e-08 0)
(-7.28677 -3.28983e-08 0)
(-7.28646 -3.09754e-08 0)
(-7.28614 -3.09793e-08 0)
(-7.28582 -3.06639e-08 0)
(-7.2855 -3.04219e-08 0)
(-7.28518 -3.04401e-08 0)
(-7.28486 -2.89623e-08 0)
(-7.28456 -2.8276e-08 0)
(-7.28425 -2.86782e-08 0)
(-7.28393 -2.75504e-08 0)
(-7.28364 -2.69941e-08 0)
(-7.28333 -2.72846e-08 0)
(-7.28303 -2.62839e-08 0)
(-7.28274 -2.56866e-08 0)
(-7.28244 -2.5462e-08 0)
(-7.28215 -2.42906e-08 0)
(-7.28187 -2.38884e-08 0)
(-7.28158 -2.38915e-08 0)
(-7.2813 -2.29578e-08 0)
(-7.28102 -2.24181e-08 0)
(-7.28075 -2.22801e-08 0)
(-7.28047 -2.18031e-08 0)
(-7.2802 -2.09532e-08 0)
(-7.27994 -2.05852e-08 0)
(-7.27968 -2.05932e-08 0)
(-7.27941 -1.95677e-08 0)
(-7.27917 -1.90607e-08 0)
(-7.27891 -1.93069e-08 0)
(-7.27865 -1.82158e-08 0)
(-7.27842 -1.75189e-08 0)
(-7.27817 -1.7877e-08 0)
(-7.27793 -1.69337e-08 0)
(-7.2777 -1.64155e-08 0)
(-7.27746 -1.69058e-08 0)
(-7.27722 -1.62534e-08 0)
(-7.27699 -1.588e-08 0)
(-7.27676 -1.61828e-08 0)
(-7.27652 -1.54106e-08 0)
(-7.2763 -1.48631e-08 0)
(-7.27608 -1.50025e-08 0)
(-7.27585 -1.41764e-08 0)
(-7.27564 -1.35795e-08 0)
(-7.27543 -1.38216e-08 0)
(-7.27521 -1.32653e-08 0)
(-7.27501 -1.28375e-08 0)
(-7.2748 -1.29799e-08 0)
(-7.27459 -1.24779e-08 0)
(-7.27439 -1.2321e-08 0)
(-7.27418 -1.2488e-08 0)
(-7.27398 -1.19838e-08 0)
(-7.27378 -1.16818e-08 0)
(-7.27358 -1.16348e-08 0)
(-7.27338 -1.11719e-08 0)
(-7.27319 -1.08749e-08 0)
(-7.273 -1.07752e-08 0)
(-7.27281 -1.03948e-08 0)
(-7.27262 -1.0141e-08 0)
(-7.27244 -1.00145e-08 0)
(-7.27226 -9.52053e-09 0)
(-7.27209 -9.24146e-09 0)
(-7.27191 -9.24928e-09 0)
(-7.27174 -8.86846e-09 0)
(-7.27157 -8.65818e-09 0)
(-7.2714 -8.61094e-09 0)
(-7.27123 -8.32289e-09 0)
(-7.27107 -8.35125e-09 0)
(-7.2709 -8.36468e-09 0)
(-7.27073 -7.95921e-09 0)
(-7.27058 -7.68509e-09 0)
(-7.27042 -7.62778e-09 0)
(-7.27026 -7.49509e-09 0)
(-7.2701 -7.37e-09 0)
(-7.26995 -7.03032e-09 0)
(-7.2698 -6.62811e-09 0)
(-7.26966 -6.68858e-09 0)
(-7.2695 -6.5179e-09 0)
(-7.26936 -6.22583e-09 0)
(-7.26922 -6.38833e-09 0)
(-7.26907 -6.28035e-09 0)
(-7.26893 -5.99808e-09 0)
(-7.26879 -5.90181e-09 0)
(-7.26866 -5.56307e-09 0)
(-7.26853 -5.36978e-09 0)
(-7.2684 -5.39084e-09 0)
(-7.26827 -5.12963e-09 0)
(-7.26814 -5.00913e-09 0)
(-7.26802 -5.38569e-09 0)
(-7.26788 -5.29396e-09 0)
(-7.26775 -4.8081e-09 0)
(-7.26763 -4.6592e-09 0)
(-7.26751 -4.41764e-09 0)
(-7.2674 -4.30545e-09 0)
(-7.26728 -4.43147e-09 0)
(-7.26716 -4.34661e-09 0)
(-7.26704 -4.20086e-09 0)
(-7.26693 -4.14776e-09 0)
(-7.26681 -4.04127e-09 0)
(-7.2667 -4.28917e-09 0)
(-7.26657 -4.36566e-09 0)
(-7.26645 -3.96977e-09 0)
(-7.26634 -3.74653e-09 0)
(-7.26623 -3.80463e-09 0)
(-7.26612 -3.59813e-09 0)
(-7.26602 -8.91695e-09 0)
(-7.26551 -1.27308e-08 0)
(-7.26509 -8.93798e-09 0)
(-7.26482 -5.70656e-09 0)
(-7.26465 -3.7509e-09 0)
(-7.26454 -2.6829e-09 0)
(-7.26446 -2.03617e-09 0)
(-7.26439 -1.63048e-09 0)
(-7.26434 -1.48843e-09 0)
(-7.26429 -1.32185e-09 0)
(-7.26425 -1.05398e-09 0)
(-7.26421 -9.50037e-10 0)
(-7.26418 -1.12361e-09 0)
(-7.26414 -1.11171e-09 0)
(-7.26411 -7.61737e-10 0)
(-7.26409 -6.05276e-10 0)
(-7.26407 -6.20778e-10 0)
(-7.26405 -8.33688e-10 0)
(-7.26401 -8.13556e-10 0)
(-7.26399 -5.41984e-10 0)
(-7.26398 -6.37713e-10 0)
(-7.26395 -6.96455e-10 0)
(-7.26393 -4.80131e-10 0)
(-7.26392 -3.52201e-10 0)
(-7.26391 -3.32027e-10 0)
(-7.2639 -5.13609e-10 0)
(-7.26388 -5.85762e-10 0)
(-7.26386 -3.37285e-10 0)
(-7.26386 -2.81255e-10 0)
(-7.26385 -2.77547e-10 0)
(-7.26384 -2.19964e-10 0)
(-7.26383 -3.22699e-10 0)
(-7.26382 -2.81802e-10 0)
(-7.26382 -1.17649e-10 0)
(-7.26381 -4.75822e-10 0)
(-7.26379 -5.58931e-10 0)
(-7.26378 -9.64248e-11 0)
(-7.26378 -3.42667e-10 0)
(-7.26376 -4.44338e-10 0)
(-7.26375 2.75655e-11 0)
(-7.26376 -2.21136e-11 0)
(-7.26375 -2.21363e-10 0)
(-7.26375 -2.63031e-10 0)
(-7.26374 -3.1298e-10 0)
(-7.26373 -4.61148e-11 0)
(-7.26374 2.78463e-10 0)
(-7.26375 -8.76715e-11 0)
(-7.26373 -3.14656e-10 0)
(-7.26373 1.11761e-10 0)
(-7.26374 -1.363e-10 0)
(-7.26372 -3.79998e-10 0)
(-7.26371 9.65569e-11 0)
(-7.26372 2.43741e-10 0)
(-7.26373 1.13423e-11 0)
(-7.26373 -2.78949e-10 0)
(-7.26371 -2.70363e-10 0)
(-7.26371 2.4051e-11 0)
(-7.26371 -5.28406e-11 0)
(-7.26371 -1.01776e-10 0)
(-7.26371 1.59714e-10 0)
(-7.26372 -7.89736e-11 0)
(-7.2637 -2.63273e-10 0)
(-7.2637 6.93206e-11 0)
(-7.26371 1.18404e-10 0)
(-7.26371 -8.97717e-11 0)
(-7.2637 -2.32637e-10 0)
(-7.26369 -5.46888e-11 0)
(-7.2637 7.10721e-11 0)
(-7.2637 3.01402e-12 0)
(-7.2637 1.23064e-11 0)
(-7.2637 -1.41847e-10 0)
(-7.26369 -4.07749e-11 0)
(-7.2637 2.59273e-10 0)
(-7.26371 1.45093e-11 0)
(-7.2637 -1.61405e-10 0)
(-7.2637 4.54469e-11 0)
(-7.2637 -2.81508e-10 0)
(-7.26368 -3.66813e-10 0)
(-7.26368 2.21074e-10 0)
(-7.26369 -9.58024e-11 0)
(-7.26367 -3.13788e-10 0)
(-7.26367 2.53428e-10 0)
(-7.26369 2.2612e-10 0)
(-7.26369 3.12924e-11 0)
(-7.26369 -1.39072e-10 0)
(-7.26368 -2.42739e-10 0)
(-7.26367 7.89821e-11 0)
(-7.26368 2.49935e-10 0)
(-7.26369 6.0371e-11 0)
(-7.26369 1.93381e-12 0)
(-7.26369 -1.11693e-10 0)
(-7.26368 -1.93265e-10 0)
(-7.26368 -4.89389e-11 0)
(-7.26367 3.08585e-10 0)
(-7.2637 -2.18448e-10 0)
(-7.26366 -6.58907e-10 0)
)
;
    }
    symmetry
    {
        type            symmetryPlane;
    }
    frontAndBack
    {
        type            empty;
    }
}


// ************************************************************************* //
