/*--------------------------------*- C++ -*----------------------------------*\
| =========                 |                                                 |
| \\      /  F ield         | OpenFOAM: The Open Source CFD Toolbox           |
|  \\    /   O peration     | Version:  v2012                                 |
|   \\  /    A nd           | Website:  www.openfoam.com                      |
|    \\/     M anipulation  |                                                 |
\*---------------------------------------------------------------------------*/
FoamFile
{
    version     2.0;
    format      ascii;
    class       volScalarField;
    location    "4";
    object      yPlus;
}
// * * * * * * * * * * * * * * * * * * * * * * * * * * * * * * * * * * * * * //

dimensions      [0 0 0 0 0 0 0];


internalField   uniform 0;

boundaryField
{
    inlet
    {
        type            calculated;
        value           uniform 0;
    }
    outlet
    {
        type            calculated;
        value           uniform 0;
    }
    topWall
    {
        type            calculated;
        value           nonuniform List<scalar> 
545
(
0.0465959
0.0811588
0.103903
0.121917
0.137139
0.150436
0.162291
0.173007
0.18279
0.191788
0.200114
0.207853
0.215076
0.221838
0.228185
0.234157
0.239788
0.245105
0.250136
0.2549
0.259419
0.263709
0.267786
0.271664
0.275356
0.278873
0.282227
0.285426
0.28848
0.291397
0.294185
0.29685
0.299399
0.301839
0.304175
0.306412
0.308555
0.310609
0.312578
0.314467
0.316278
0.318017
0.319685
0.321288
0.322826
0.324304
0.325723
0.327088
0.328399
0.32966
0.330871
0.332037
0.333158
0.334237
0.335274
0.336273
0.337234
0.338159
0.339049
0.339906
0.340731
0.341526
0.342291
0.343028
0.343737
0.344421
0.345079
0.345713
0.346324
0.346913
0.347479
0.348026
0.348543
0.349041
0.349533
0.35002
0.3505
0.350974
0.351443
0.351906
0.352364
0.352816
0.353263
0.353704
0.354139
0.35457
0.354995
0.355415
0.35583
0.35624
0.356644
0.357044
0.357439
0.357829
0.358214
0.358598
0.358926
0.359217
0.359507
0.359796
0.360084
0.360371
0.360657
0.360942
0.361227
0.36151
0.361792
0.362074
0.362354
0.362634
0.362912
0.36319
0.363466
0.363742
0.364016
0.36429
0.364562
0.364833
0.365104
0.365373
0.365641
0.365908
0.366175
0.36644
0.366704
0.366967
0.367228
0.367489
0.367748
0.368007
0.368264
0.36852
0.368775
0.369029
0.369282
0.369533
0.369784
0.370033
0.370281
0.370528
0.370773
0.371018
0.371261
0.371503
0.371743
0.371983
0.372221
0.372458
0.372693
0.372928
0.373161
0.373393
0.373623
0.373852
0.37408
0.374307
0.374532
0.374756
0.374978
0.375199
0.375419
0.375637
0.375854
0.37607
0.376284
0.376497
0.376708
0.376918
0.377127
0.377334
0.377539
0.377743
0.377946
0.378147
0.378347
0.378545
0.378742
0.378937
0.37913
0.379323
0.379513
0.379702
0.37989
0.380076
0.38026
0.380443
0.380624
0.380803
0.380981
0.381158
0.381332
0.381505
0.381677
0.381846
0.382014
0.382181
0.382345
0.382509
0.38267
0.382829
0.382987
0.383144
0.383298
0.383451
0.383601
0.383751
0.383898
0.384044
0.384187
0.384329
0.38447
0.384608
0.384744
0.384879
0.385012
0.385143
0.385272
0.3854
0.385525
0.385648
0.38577
0.38589
0.386007
0.386123
0.386237
0.386349
0.386459
0.386567
0.386673
0.386777
0.386879
0.386979
0.387077
0.387173
0.387267
0.387359
0.387449
0.387536
0.387622
0.387706
0.387788
0.387867
0.387944
0.38802
0.388093
0.388164
0.388233
0.388299
0.388364
0.388426
0.388486
0.388544
0.3886
0.388654
0.388705
0.388754
0.388801
0.388846
0.388888
0.388928
0.388966
0.389002
0.389035
0.389066
0.389095
0.389121
0.389145
0.389167
0.389188
0.389196
0.389201
0.389204
0.389205
0.389206
0.389205
0.389202
0.389199
0.389194
0.389187
0.389179
0.389169
0.389158
0.389144
0.389129
0.389112
0.389094
0.389073
0.38905
0.389025
0.388998
0.388968
0.388937
0.388902
0.388866
0.388826
0.388785
0.38874
0.388693
0.388642
0.388589
0.388533
0.388473
0.388411
0.388345
0.388275
0.388203
0.388126
0.388046
0.387962
0.387874
0.387782
0.387686
0.387586
0.387481
0.387372
0.387258
0.38714
0.387016
0.386888
0.386755
0.386616
0.386472
0.386323
0.386168
0.386007
0.38584
0.385668
0.385489
0.385304
0.385112
0.384914
0.384709
0.384497
0.384278
0.384052
0.383818
0.383577
0.383328
0.383072
0.382807
0.382535
0.382254
0.381965
0.381667
0.38136
0.381045
0.380721
0.380387
0.380044
0.379692
0.37933
0.378958
0.378576
0.378184
0.377782
0.377369
0.376946
0.376512
0.376067
0.375611
0.375144
0.374666
0.374176
0.373674
0.373161
0.372635
0.372098
0.371548
0.370985
0.37041
0.369822
0.369221
0.368607
0.367979
0.367339
0.366684
0.366016
0.365334
0.364638
0.363927
0.363203
0.362463
0.36171
0.360941
0.360157
0.359359
0.358545
0.357716
0.356871
0.356011
0.355136
0.354244
0.353337
0.352413
0.351474
0.350518
0.349546
0.348558
0.347554
0.346533
0.345495
0.344441
0.34337
0.342282
0.341178
0.340057
0.338919
0.337765
0.336593
0.335405
0.3342
0.332978
0.33174
0.330485
0.329213
0.327924
0.326619
0.325298
0.32396
0.322606
0.321236
0.31985
0.318447
0.317029
0.315596
0.314147
0.312682
0.311203
0.309708
0.308199
0.306675
0.305138
0.303586
0.30202
0.300441
0.298849
0.297243
0.295626
0.293995
0.292353
0.290699
0.289033
0.287356
0.285669
0.283971
0.282264
0.280546
0.27882
0.277085
0.27534
0.273395
0.271274
0.269173
0.267091
0.265028
0.262983
0.260957
0.258951
0.256963
0.254997
0.253049
0.251123
0.249217
0.247332
0.245468
0.243625
0.241803
0.240002
0.238223
0.236466
0.234729
0.233016
0.231323
0.229652
0.228003
0.226377
0.224772
0.223189
0.221628
0.220089
0.218571
0.217077
0.215603
0.214152
0.212723
0.211316
0.209931
0.208568
0.207226
0.205907
0.20461
0.203335
0.202081
0.20085
0.19964
0.198453
0.197287
0.196143
0.195021
0.193922
0.192844
0.191788
0.190753
0.189741
0.18875
0.187782
0.186835
0.185911
0.185008
0.184127
0.183269
0.182432
0.181617
0.180825
0.180054
0.179306
0.17858
0.177876
0.177194
0.176534
0.175897
0.175282
0.17469
0.174119
0.173572
0.173047
0.172544
0.172064
0.171607
0.171172
0.170761
0.170372
0.170006
0.169663
0.169343
0.169046
0.168773
0.168522
0.168295
0.168091
0.167909
0.167751
0.167611
0.167512
0.167368
)
;
    }
    bottomWall
    {
        type            calculated;
        value           nonuniform List<scalar> 
449
(
0.139769
0.0892424
0.0763456
0.0704727
0.066983
0.0646598
0.0630011
0.0617599
0.0607973
0.0600305
0.0594081
0.0588972
0.0584736
0.0581188
0.0578158
0.0575538
0.0573224
0.057116
0.0569295
0.0567603
0.0566054
0.0564637
0.056333
0.0562128
0.0561012
0.0559981
0.0559022
0.0558129
0.0557301
0.0556522
0.0555796
0.0555117
0.0554474
0.0553869
0.0553311
0.0552772
0.0552269
0.0551793
0.0551346
0.0550926
0.0550533
0.0550152
0.0549792
0.0549457
0.0549128
0.054882
0.0548525
0.0548247
0.0547987
0.0547737
0.0547502
0.0547284
0.0547075
0.0546864
0.0546661
0.0546473
0.0546289
0.0546109
0.0545949
0.0545789
0.0545635
0.0545493
0.0545357
0.0545225
0.0545097
0.0544976
0.0544866
0.0544755
0.0544645
0.054454
0.0544439
0.0544342
0.0544251
0.0544161
0.0544074
0.0543991
0.054391
0.0543833
0.0543751
0.0543678
0.0543618
0.054355
0.0543479
0.0543415
0.0543355
0.054329
0.0543235
0.0543188
0.0543134
0.0543079
0.0543027
0.0542975
0.0542927
0.0542887
0.0542846
0.0542798
0.0542755
0.0542714
0.0542669
0.0542629
0.0542598
0.0542564
0.0542525
0.0542489
0.0542454
0.0542423
0.0542395
0.0542363
0.0542338
0.0542314
0.0542283
0.0542255
0.054223
0.0542202
0.0542172
0.0542144
0.0542123
0.0542102
0.0542076
0.0542052
0.0542029
0.0542008
0.0541985
0.054196
0.0541941
0.0541931
0.0541917
0.0541895
0.0541872
0.054185
0.0541836
0.0541819
0.0541799
0.0541786
0.0541772
0.0541753
0.0541741
0.0541726
0.0541709
0.0541695
0.0541681
0.0541664
0.0541651
0.0541641
0.0541629
0.0541612
0.0541594
0.0541583
0.0541571
0.0541555
0.0541545
0.0541536
0.0541523
0.0541513
0.0541501
0.0541486
0.0541474
0.0541463
0.0541455
0.0541444
0.0541435
0.0541424
0.0541412
0.0541407
0.0541398
0.0541386
0.054138
0.0541371
0.0541359
0.0541354
0.0541345
0.0541334
0.0541326
0.0541329
0.0541328
0.0541327
0.054133
0.0541333
0.0541331
0.0541327
0.0541317
0.0541306
0.0541298
0.0541288
0.0541276
0.0541267
0.0541255
0.0541242
0.0541231
0.0541218
0.0541204
0.0541191
0.0541177
0.0541163
0.0541149
0.0541134
0.054112
0.0541105
0.0541088
0.0541075
0.0541059
0.0541042
0.0541029
0.0541013
0.0540996
0.0540982
0.0540967
0.0540951
0.0540936
0.0540921
0.0540905
0.054089
0.0540874
0.0540858
0.0540843
0.0540827
0.0540812
0.0540797
0.0540781
0.0540766
0.0540752
0.0540736
0.0540722
0.0540707
0.0540692
0.0540678
0.0540664
0.0540649
0.0540636
0.0540621
0.0540607
0.0540593
0.0540579
0.0540565
0.0540551
0.0540537
0.0540524
0.054051
0.0540496
0.0540484
0.054047
0.0540457
0.0540445
0.0540431
0.0540418
0.0540406
0.0540393
0.054038
0.0540368
0.0540356
0.0540343
0.0540331
0.054032
0.0540308
0.0540296
0.0540284
0.0540272
0.0540261
0.054025
0.0540238
0.0540227
0.0540216
0.0540204
0.0540194
0.0540182
0.0540172
0.0540161
0.0540151
0.054014
0.054013
0.054012
0.054011
0.0540099
0.054009
0.054008
0.054007
0.0540061
0.0540052
0.0540042
0.0540033
0.0540024
0.0540015
0.0540007
0.0539998
0.0539989
0.053998
0.0539972
0.0539963
0.0539955
0.0539946
0.0539938
0.053993
0.0539922
0.0539914
0.0539907
0.0539899
0.0539891
0.0539884
0.0539876
0.0539868
0.0539861
0.0539854
0.0539846
0.0539839
0.0539832
0.0539825
0.0539818
0.0539811
0.0539805
0.0539798
0.0539792
0.0539785
0.0539779
0.0539773
0.0539767
0.0539761
0.0539754
0.0539748
0.0539742
0.0539736
0.053973
0.0539725
0.0539719
0.0539713
0.0539708
0.0539703
0.0539697
0.0539692
0.0539687
0.0539681
0.0539676
0.0539671
0.0539666
0.0539661
0.0539657
0.0539652
0.0539647
0.0539642
0.0539637
0.0539633
0.0539628
0.0539624
0.053962
0.0539615
0.0539611
0.0539607
0.0539603
0.0539598
0.0539594
0.0539589
0.0539585
0.0539581
0.0539577
0.0539573
0.0539554
0.0539539
0.0539529
0.0539522
0.0539518
0.0539515
0.0539513
0.0539511
0.0539509
0.0539507
0.0539506
0.0539505
0.0539503
0.0539502
0.0539501
0.0539501
0.05395
0.0539499
0.0539498
0.0539497
0.0539496
0.0539496
0.0539495
0.0539495
0.0539494
0.0539494
0.0539493
0.0539493
0.0539492
0.0539492
0.0539492
0.0539491
0.0539491
0.0539491
0.053949
0.053949
0.053949
0.0539489
0.0539489
0.0539489
0.0539489
0.0539489
0.0539488
0.0539488
0.0539488
0.0539489
0.0539488
0.0539488
0.0539488
0.0539488
0.0539487
0.0539488
0.0539488
0.0539488
0.0539487
0.0539487
0.0539487
0.0539487
0.0539487
0.0539488
0.0539487
0.0539487
0.0539487
0.0539487
0.0539487
0.0539487
0.0539487
0.0539487
0.0539487
0.0539487
0.0539487
0.0539487
0.0539487
0.0539487
0.0539487
0.0539487
0.0539486
0.0539486
0.0539487
0.0539486
0.0539486
0.0539486
0.0539486
0.0539487
0.0539486
0.0539486
0.0539486
0.0539487
0.0539486
0.0539487
0.0539486
0.0539486
0.0539486
0.0539487
0.0539485
)
;
    }
    symmetry
    {
        type            symmetryPlane;
    }
    frontAndBack
    {
        type            empty;
    }
}


// ************************************************************************* //
