/*--------------------------------*- C++ -*----------------------------------*\
| =========                 |                                                 |
| \\      /  F ield         | OpenFOAM: The Open Source CFD Toolbox           |
|  \\    /   O peration     | Version:  v2012                                 |
|   \\  /    A nd           | Website:  www.openfoam.com                      |
|    \\/     M anipulation  |                                                 |
\*---------------------------------------------------------------------------*/
FoamFile
{
    version     2.0;
    format      ascii;
    class       volScalarField;
    location    "43";
    object      k;
}
// * * * * * * * * * * * * * * * * * * * * * * * * * * * * * * * * * * * * * //

dimensions      [0 2 -2 0 0 0 0];


internalField   nonuniform List<scalar> 
209825
(
0.00102445
0.000932846
0.000854969
0.000788816
0.00073332
0.000687361
0.000649248
0.000617627
0.000591055
0.000568655
0.000549458
0.000533004
0.000518635
0.000506156
0.000495074
0.000485349
0.000476588
0.000468842
0.000461774
0.000455494
0.000449694
0.000444526
0.000439698
0.000435389
0.00043132
0.000427688
0.000424225
0.000421138
0.00041816
0.000415518
0.00041294
0.000410663
0.000408414
0.000406442
0.00040447
0.000402755
0.00040102
0.000399522
0.000397986
0.000396675
0.000395307
0.000394155
0.000392935
0.00039192
0.000390829
0.000389933
0.000388955
0.000388163
0.000387283
0.000386582
0.000385791
0.00038517
0.000384458
0.000383911
0.00038327
0.000382784
0.000382206
0.00038178
0.000381258
0.000380883
0.000380409
0.000380084
0.000379652
0.000379366
0.000378981
0.000378729
0.000378383
0.000378157
0.00037785
0.000377648
0.000377377
0.000377196
0.000376957
0.000376798
0.000376575
0.000376426
0.000376217
0.000376084
0.000375895
0.000375781
0.000375613
0.000375518
0.000375371
0.000375295
0.000375173
0.000375121
0.000375026
0.000375
0.000374948
0.000374953
0.000374931
0.000375013
0.000375012
0.000378902
0.0113947
0.0131761
0.00102445
0.000932846
0.000854969
0.000788816
0.000733321
0.000687361
0.000649247
0.000617625
0.000591052
0.000568651
0.000549453
0.000532999
0.000518629
0.000506149
0.000495067
0.000485341
0.000476579
0.000468833
0.000461765
0.000455485
0.000449684
0.000444515
0.000439688
0.000435378
0.000431309
0.000427676
0.000424213
0.000421127
0.000418148
0.000415505
0.000412928
0.00041065
0.000408402
0.000406429
0.000404456
0.000402741
0.000401006
0.000399509
0.000397973
0.000396661
0.000395294
0.000394141
0.000392921
0.000391906
0.000390815
0.000389919
0.000388941
0.000388148
0.000387268
0.000386568
0.000385776
0.000385156
0.000384443
0.000383896
0.000383255
0.000382769
0.000382191
0.000381765
0.000381243
0.000380868
0.000380394
0.000380069
0.000379637
0.000379351
0.000378966
0.000378713
0.000378368
0.000378141
0.000377834
0.000377633
0.000377361
0.00037718
0.000376941
0.000376783
0.000376559
0.00037641
0.000376202
0.000376069
0.00037588
0.000375766
0.000375598
0.000375502
0.000375356
0.00037528
0.000375157
0.000375105
0.00037501
0.000374985
0.000374933
0.000374937
0.000374915
0.000374997
0.000374996
0.000378891
0.011404
0.0131887
0.00102445
0.000932846
0.000854972
0.000788819
0.000733321
0.000687358
0.00064924
0.000617614
0.000591037
0.000568632
0.00054943
0.000532973
0.0005186
0.000506117
0.000495033
0.000485305
0.000476542
0.000468794
0.000461723
0.000455442
0.00044964
0.00044447
0.000439641
0.00043533
0.000431261
0.000427627
0.000424163
0.000421075
0.000418096
0.000415453
0.000412875
0.000410597
0.000408347
0.000406374
0.000404401
0.000402685
0.00040095
0.000399452
0.000397915
0.000396603
0.000395236
0.000394083
0.000392862
0.000391847
0.000390756
0.00038986
0.000388881
0.000388088
0.000387208
0.000386507
0.000385715
0.000385095
0.000384382
0.000383834
0.000383194
0.000382707
0.000382129
0.000381703
0.00038118
0.000380805
0.000380331
0.000380006
0.000379574
0.000379287
0.000378902
0.00037865
0.000378304
0.000378078
0.00037777
0.000377568
0.000377297
0.000377116
0.000376877
0.000376718
0.000376495
0.000376346
0.000376137
0.000376004
0.000375815
0.0003757
0.000375532
0.000375437
0.00037529
0.000375214
0.000375092
0.000375039
0.000374944
0.000374918
0.000374866
0.000374871
0.000374848
0.00037493
0.000374928
0.000378834
0.0114217
0.0132142
0.00102445
0.000932847
0.000854975
0.000788822
0.000733322
0.000687353
0.000649228
0.000617595
0.000591011
0.000568599
0.000549392
0.000532929
0.000518552
0.000506064
0.000494976
0.000485245
0.000476478
0.000468727
0.000461654
0.00045537
0.000449565
0.000444393
0.000439563
0.00043525
0.000431179
0.000427543
0.000424078
0.000420989
0.000418008
0.000415364
0.000412785
0.000410506
0.000408255
0.000406281
0.000404308
0.000402591
0.000400855
0.000399356
0.000397819
0.000396506
0.000395138
0.000393985
0.000392763
0.000391748
0.000390656
0.000389759
0.00038878
0.000387987
0.000387106
0.000386405
0.000385613
0.000384992
0.000384279
0.000383731
0.00038309
0.000382603
0.000382024
0.000381598
0.000381075
0.0003807
0.000380225
0.0003799
0.000379468
0.000379181
0.000378796
0.000378543
0.000378197
0.00037797
0.000377663
0.000377461
0.000377189
0.000377008
0.000376769
0.00037661
0.000376386
0.000376237
0.000376028
0.000375894
0.000375705
0.000375591
0.000375422
0.000375327
0.00037518
0.000375104
0.000374981
0.000374928
0.000374832
0.000374807
0.000374754
0.000374758
0.000374736
0.000374817
0.000374815
0.000378736
0.011449
0.0132539
0.00102445
0.000932849
0.000854981
0.000788828
0.000733322
0.000687345
0.000649211
0.000617568
0.000590974
0.000568553
0.000549338
0.000532867
0.000518483
0.000505989
0.000494895
0.000485159
0.000476387
0.000468632
0.000461555
0.000455268
0.00044946
0.000444285
0.000439452
0.000435137
0.000431063
0.000427426
0.000423958
0.000420867
0.000417885
0.000415239
0.000412658
0.000410378
0.000408126
0.00040615
0.000404176
0.000402458
0.000400721
0.000399221
0.000397683
0.000396369
0.000395
0.000393846
0.000392624
0.000391608
0.000390515
0.000389618
0.000388638
0.000387844
0.000386963
0.000386261
0.000385468
0.000384847
0.000384133
0.000383584
0.000382943
0.000382456
0.000381876
0.00038145
0.000380926
0.000380551
0.000380076
0.00037975
0.000379318
0.000379031
0.000378645
0.000378392
0.000378046
0.000377819
0.000377511
0.000377309
0.000377037
0.000376855
0.000376616
0.000376457
0.000376233
0.000376083
0.000375874
0.00037574
0.000375551
0.000375436
0.000375267
0.000375172
0.000375024
0.000374948
0.000374825
0.000374771
0.000374675
0.000374649
0.000374597
0.0003746
0.000374577
0.000374657
0.000374655
0.000378598
0.0114865
0.0133086
0.00102445
0.000932851
0.000854987
0.000788835
0.000733323
0.000687336
0.000649189
0.000617533
0.000590927
0.000568494
0.000549267
0.000532787
0.000518394
0.000505892
0.000494791
0.000485048
0.00047627
0.00046851
0.000461428
0.000455136
0.000449324
0.000444145
0.000439308
0.00043499
0.000430913
0.000427273
0.000423803
0.00042071
0.000417725
0.000415077
0.000412494
0.000410212
0.000407958
0.000405981
0.000404005
0.000402286
0.000400547
0.000399046
0.000397507
0.000396192
0.000394821
0.000393666
0.000392443
0.000391426
0.000390332
0.000389434
0.000388453
0.000387659
0.000386777
0.000386074
0.000385281
0.000384658
0.000383944
0.000383395
0.000382753
0.000382265
0.000381685
0.000381258
0.000380734
0.000380358
0.000379883
0.000379557
0.000379123
0.000378836
0.00037845
0.000378196
0.00037785
0.000377622
0.000377314
0.000377111
0.000376839
0.000376657
0.000376418
0.000376258
0.000376034
0.000375884
0.000375675
0.00037554
0.00037535
0.000375235
0.000375066
0.00037497
0.000374822
0.000374745
0.000374622
0.000374568
0.000374472
0.000374446
0.000374393
0.000374395
0.00037437
0.000374451
0.000374448
0.000378419
0.011535
0.0133792
0.00102444
0.000932853
0.000854996
0.000788843
0.000733325
0.000687324
0.000649162
0.00061749
0.000590868
0.000568421
0.000549181
0.000532689
0.000518284
0.000505773
0.000494663
0.000484911
0.000476126
0.000468359
0.000461271
0.000454974
0.000449157
0.000443973
0.000439132
0.000434809
0.000430729
0.000427085
0.000423612
0.000420516
0.000417528
0.000414877
0.000412292
0.000410008
0.000407752
0.000405773
0.000403794
0.000402073
0.000400333
0.00039883
0.000397289
0.000395973
0.000394601
0.000393445
0.00039222
0.000391202
0.000390107
0.000389208
0.000388226
0.000387431
0.000386547
0.000385844
0.00038505
0.000384427
0.000383712
0.000383162
0.000382519
0.00038203
0.000381449
0.000381022
0.000380497
0.000380121
0.000379644
0.000379318
0.000378884
0.000378596
0.000378209
0.000377955
0.000377608
0.00037738
0.000377072
0.000376868
0.000376596
0.000376414
0.000376173
0.000376014
0.000375789
0.000375639
0.000375429
0.000375294
0.000375104
0.000374988
0.000374819
0.000374722
0.000374574
0.000374496
0.000374372
0.000374318
0.000374221
0.000374194
0.000374141
0.000374142
0.000374116
0.000374196
0.000374193
0.000378199
0.0115952
0.0134665
0.00102444
0.000932856
0.000855006
0.000788854
0.000733326
0.000687311
0.00064913
0.000617439
0.000590799
0.000568334
0.000549078
0.000532572
0.000518154
0.000505631
0.00049451
0.000484749
0.000475955
0.00046818
0.000461085
0.00045478
0.000448957
0.000443768
0.000438921
0.000434594
0.000430509
0.000426861
0.000423384
0.000420284
0.000417293
0.00041464
0.000412052
0.000409764
0.000407506
0.000405524
0.000403543
0.000401821
0.000400078
0.000398574
0.00039703
0.000395713
0.000394339
0.000393181
0.000391955
0.000390935
0.000389839
0.000388939
0.000387956
0.000387159
0.000386274
0.00038557
0.000384774
0.000384151
0.000383434
0.000382884
0.00038224
0.000381751
0.000381169
0.000380741
0.000380215
0.000379838
0.00037936
0.000379033
0.000378599
0.00037831
0.000377923
0.000377668
0.00037732
0.000377092
0.000376783
0.000376579
0.000376306
0.000376123
0.000375882
0.000375722
0.000375497
0.000375346
0.000375136
0.000375001
0.00037481
0.000374694
0.000374524
0.000374427
0.000374278
0.0003742
0.000374075
0.00037402
0.000373923
0.000373895
0.000373841
0.000373841
0.000373814
0.000373893
0.000373889
0.000377938
0.0116676
0.0135713
0.00102444
0.000932859
0.000855018
0.000788866
0.000733328
0.000687295
0.000649093
0.00061738
0.000590718
0.000568234
0.00054896
0.000532436
0.000518003
0.000505466
0.000494333
0.000484561
0.000475756
0.000467972
0.000460868
0.000454556
0.000448725
0.000443529
0.000438677
0.000434344
0.000430254
0.000426601
0.000423119
0.000420016
0.000417021
0.000414363
0.000411772
0.000409481
0.00040722
0.000405235
0.000403252
0.000401527
0.000399781
0.000398275
0.00039673
0.00039541
0.000394034
0.000392875
0.000391646
0.000390625
0.000389527
0.000388625
0.000387641
0.000386843
0.000385957
0.000385251
0.000384454
0.000383829
0.000383112
0.00038256
0.000381915
0.000381425
0.000380842
0.000380413
0.000379886
0.000379508
0.00037903
0.000378702
0.000378267
0.000377978
0.000377589
0.000377334
0.000376986
0.000376757
0.000376446
0.000376242
0.000375968
0.000375785
0.000375544
0.000375383
0.000375158
0.000375006
0.000374795
0.00037466
0.000374468
0.000374352
0.00037418
0.000374083
0.000373933
0.000373855
0.000373729
0.000373674
0.000373575
0.000373547
0.000373492
0.000373491
0.000373461
0.00037354
0.000373535
0.000377634
0.0117527
0.0136944
0.00102444
0.000932862
0.000855031
0.000788879
0.000733331
0.000687278
0.000649052
0.000617314
0.000590627
0.00056812
0.000548824
0.000532281
0.000517831
0.000505278
0.000494131
0.000484346
0.00047553
0.000467734
0.000460621
0.0004543
0.000448461
0.000443257
0.000438398
0.000434059
0.000429963
0.000426304
0.000422817
0.000419709
0.000416709
0.000414048
0.000411452
0.000409158
0.000406893
0.000404906
0.000402919
0.000401191
0.000399443
0.000397934
0.000396386
0.000395064
0.000393686
0.000392524
0.000391294
0.000390271
0.000389171
0.000388268
0.000387281
0.000386482
0.000385594
0.000384887
0.000384089
0.000383463
0.000382744
0.000382191
0.000381544
0.000381053
0.000380469
0.000380039
0.000379511
0.000379132
0.000378653
0.000378324
0.000377888
0.000377598
0.000377209
0.000376953
0.000376603
0.000376373
0.000376062
0.000375858
0.000375583
0.000375399
0.000375157
0.000374996
0.00037477
0.000374618
0.000374406
0.00037427
0.000374077
0.00037396
0.000373788
0.00037369
0.000373539
0.00037346
0.000373334
0.000373277
0.000373178
0.000373149
0.000373094
0.000373091
0.000373059
0.000373137
0.000373131
0.000377288
0.0118508
0.0138363
0.00102443
0.000932866
0.000855046
0.000788895
0.000733334
0.000687259
0.000649006
0.000617239
0.000590525
0.000567992
0.000548673
0.000532108
0.000517638
0.000505068
0.000493904
0.000484104
0.000475275
0.000467467
0.000460343
0.000454011
0.000448164
0.000442952
0.000438084
0.000433737
0.000429635
0.00042597
0.000422478
0.000419364
0.000416359
0.000413693
0.000411093
0.000408795
0.000406526
0.000404534
0.000402544
0.000400813
0.000399062
0.00039755
0.000395999
0.000394674
0.000393294
0.00039213
0.000390897
0.000389872
0.00038877
0.000387865
0.000386876
0.000386075
0.000385186
0.000384477
0.000383677
0.000383049
0.000382329
0.000381775
0.000381127
0.000380635
0.000380049
0.000379618
0.000379088
0.000378709
0.000378228
0.000377898
0.000377461
0.00037717
0.000376779
0.000376523
0.000376172
0.000375942
0.00037563
0.000375424
0.000375148
0.000374964
0.000374721
0.00037456
0.000374332
0.00037418
0.000373967
0.000373831
0.000373637
0.000373519
0.000373346
0.000373248
0.000373096
0.000373016
0.000372888
0.000372831
0.000372731
0.000372701
0.000372645
0.00037264
0.000372606
0.000372683
0.000372675
0.000376899
0.0119623
0.0139976
0.00102443
0.00093287
0.000855063
0.000788913
0.000733338
0.000687238
0.000648956
0.000617157
0.000590413
0.00056785
0.000548505
0.000531916
0.000517424
0.000504834
0.000493652
0.000483836
0.000474992
0.000467171
0.000460034
0.000453691
0.000447833
0.000442611
0.000437735
0.00043338
0.00042927
0.000425599
0.000422099
0.000418979
0.000415969
0.000413298
0.000410693
0.00040839
0.000406116
0.000404121
0.000402127
0.000400392
0.000398637
0.000397122
0.000395568
0.00039424
0.000392857
0.000391691
0.000390455
0.000389428
0.000388323
0.000387416
0.000386425
0.000385622
0.000384731
0.00038402
0.000383218
0.000382589
0.000381867
0.000381311
0.000380661
0.000380168
0.000379581
0.000379149
0.000378617
0.000378237
0.000377755
0.000377424
0.000376985
0.000376693
0.000376301
0.000376044
0.000375692
0.000375461
0.000375148
0.000374941
0.000374665
0.00037448
0.000374236
0.000374074
0.000373845
0.000373692
0.000373479
0.000373341
0.000373147
0.000373028
0.000372854
0.000372754
0.000372602
0.000372521
0.000372392
0.000372334
0.000372232
0.000372201
0.000372144
0.000372138
0.000372101
0.000372177
0.000372168
0.000376467
0.0120869
0.0141788
0.00102443
0.000932875
0.000855081
0.000788933
0.000733343
0.000687216
0.000648901
0.000617068
0.00059029
0.000567695
0.000548321
0.000531705
0.000517189
0.000504576
0.000493375
0.000483541
0.00047468
0.000466844
0.000459693
0.000453338
0.000447469
0.000442236
0.00043735
0.000432987
0.000428868
0.000425189
0.000421682
0.000418556
0.000415539
0.000412862
0.000410251
0.000407943
0.000405665
0.000403665
0.000401667
0.000399928
0.000398169
0.00039665
0.000395093
0.000393762
0.000392375
0.000391206
0.000389967
0.000388938
0.00038783
0.000386921
0.000385927
0.000385122
0.000384228
0.000383516
0.000382712
0.000382081
0.000381357
0.0003808
0.000380148
0.000379653
0.000379064
0.000378631
0.000378098
0.000377716
0.000377232
0.0003769
0.00037646
0.000376167
0.000375774
0.000375515
0.000375162
0.00037493
0.000374616
0.000374409
0.000374131
0.000373945
0.0003737
0.000373537
0.000373308
0.000373154
0.000372939
0.000372801
0.000372605
0.000372486
0.000372311
0.00037221
0.000372056
0.000371974
0.000371844
0.000371785
0.000371682
0.00037165
0.000371592
0.000371584
0.000371543
0.000371619
0.000371608
0.000375991
0.0122246
0.0143803
0.00102442
0.00093288
0.000855101
0.000788954
0.000733348
0.000687192
0.000648842
0.000616971
0.000590156
0.000567527
0.00054812
0.000531475
0.000516933
0.000504296
0.000493072
0.000483218
0.00047434
0.000466487
0.000459322
0.000452953
0.00044707
0.000441826
0.00043693
0.000432556
0.000428428
0.000424741
0.000421226
0.000418092
0.000415069
0.000412385
0.000409768
0.000407455
0.000405171
0.000403166
0.000401163
0.000399419
0.000397656
0.000396134
0.000394572
0.000393238
0.000391848
0.000390675
0.000389434
0.000388401
0.000387291
0.000386378
0.000385382
0.000384575
0.000383679
0.000382965
0.000382158
0.000381525
0.000380798
0.000380239
0.000379586
0.000379089
0.000378498
0.000378063
0.000377529
0.000377145
0.00037666
0.000376327
0.000375885
0.00037559
0.000375196
0.000374936
0.000374582
0.000374348
0.000374033
0.000373825
0.000373546
0.000373359
0.000373113
0.000372949
0.000372719
0.000372564
0.000372348
0.000372209
0.000372012
0.000371892
0.000371715
0.000371614
0.000371458
0.000371375
0.000371244
0.000371184
0.00037108
0.000371046
0.000370987
0.000370977
0.000370933
0.000371008
0.000370995
0.000375471
0.0123749
0.0146024
0.00102442
0.000932885
0.000855123
0.000788978
0.000733355
0.000687168
0.000648778
0.000616866
0.000590011
0.000567344
0.000547903
0.000531226
0.000516655
0.000503992
0.000492745
0.000482869
0.000473971
0.0004661
0.000458918
0.000452534
0.000446638
0.000441381
0.000436473
0.000432088
0.000427951
0.000424254
0.000420731
0.000417589
0.000414557
0.000411867
0.000409243
0.000406924
0.000404634
0.000402624
0.000400615
0.000398867
0.000397099
0.000395572
0.000394006
0.000392668
0.000391274
0.000390098
0.000388853
0.000387817
0.000386704
0.000385789
0.00038479
0.00038398
0.00038308
0.000382364
0.000381555
0.00038092
0.000380191
0.00037963
0.000378974
0.000378476
0.000377882
0.000377446
0.000376909
0.000376525
0.000376037
0.000375703
0.000375259
0.000374963
0.000374567
0.000374306
0.00037395
0.000373716
0.000373399
0.00037319
0.000372909
0.000372721
0.000372474
0.00037231
0.000372078
0.000371923
0.000371705
0.000371565
0.000371367
0.000371246
0.000371068
0.000370965
0.000370808
0.000370724
0.000370591
0.00037053
0.000370424
0.000370388
0.000370328
0.000370316
0.000370268
0.000370342
0.000370328
0.000374906
0.012537
0.0148452
0.00102441
0.00093289
0.000855146
0.000789004
0.000733363
0.000687142
0.000648711
0.000616755
0.000589857
0.000567149
0.00054767
0.000530958
0.000516356
0.000503664
0.000492391
0.000482492
0.000473572
0.000465682
0.000458482
0.000452082
0.000446171
0.000440901
0.00043598
0.000431583
0.000427435
0.000423728
0.000420195
0.000417044
0.000414005
0.000411307
0.000408676
0.00040635
0.000404054
0.000402038
0.000400023
0.00039827
0.000396496
0.000394965
0.000393394
0.000392052
0.000390654
0.000389474
0.000388225
0.000387186
0.000386069
0.000385151
0.000384148
0.000383336
0.000382434
0.000381715
0.000380903
0.000380265
0.000379534
0.000378971
0.000378312
0.000377812
0.000377216
0.000376778
0.000376239
0.000375853
0.000375364
0.000375027
0.000374582
0.000374285
0.000373887
0.000373624
0.000373267
0.000373031
0.000372713
0.000372502
0.00037222
0.000372032
0.000371783
0.000371618
0.000371385
0.000371228
0.00037101
0.000370869
0.000370669
0.000370546
0.000370367
0.000370263
0.000370104
0.000370019
0.000369885
0.000369822
0.000369714
0.000369677
0.000369615
0.000369601
0.000369549
0.000369622
0.000369606
0.000374296
0.0127098
0.0151088
0.00102441
0.000932896
0.000855171
0.000789033
0.000733373
0.000687116
0.00064864
0.000616637
0.000589692
0.00056694
0.00054742
0.000530672
0.000516035
0.000503313
0.000492012
0.000482087
0.000473145
0.000465234
0.000458015
0.000451597
0.00044567
0.000440384
0.000435449
0.000431041
0.00042688
0.000423162
0.000419619
0.000416459
0.000413411
0.000410704
0.000408066
0.000405732
0.000403429
0.000401407
0.000399386
0.000397627
0.000395848
0.000394312
0.000392736
0.000391389
0.000389986
0.000388803
0.000387549
0.000386507
0.000385386
0.000384464
0.000383458
0.000382643
0.000381737
0.000381016
0.000380201
0.000379561
0.000378826
0.000378261
0.0003776
0.000377098
0.0003765
0.000376059
0.000375518
0.00037513
0.000374639
0.000374301
0.000373853
0.000373554
0.000373155
0.000372891
0.000372532
0.000372294
0.000371974
0.000371762
0.000371479
0.000371289
0.000371039
0.000370872
0.000370638
0.000370481
0.000370261
0.000370118
0.000369917
0.000369793
0.000369612
0.000369507
0.000369347
0.00036926
0.000369124
0.000369059
0.00036895
0.000368911
0.000368848
0.000368832
0.000368776
0.000368847
0.00036883
0.00037364
0.0128918
0.0153929
0.0010244
0.000932902
0.000855198
0.000789063
0.000733384
0.000687089
0.000648566
0.000616512
0.000589518
0.000566719
0.000547155
0.000530367
0.000515694
0.000502938
0.000491608
0.000481656
0.000472689
0.000464755
0.000457515
0.000451078
0.000445134
0.000439832
0.000434882
0.00043046
0.000426287
0.000422557
0.000419003
0.000415833
0.000412775
0.00041006
0.000407412
0.000405071
0.000402761
0.000400731
0.000398704
0.000396939
0.000395154
0.000393612
0.000392031
0.000390679
0.000389271
0.000388083
0.000386825
0.000385779
0.000384654
0.000383729
0.000382719
0.0003819
0.000380991
0.000380267
0.000379448
0.000378806
0.000378068
0.000377501
0.000376836
0.000376332
0.000375731
0.000375289
0.000374745
0.000374355
0.000373861
0.000373522
0.000373072
0.000372771
0.00037237
0.000372104
0.000371743
0.000371504
0.000371182
0.000370969
0.000370684
0.000370493
0.000370241
0.000370074
0.000369838
0.000369679
0.000369458
0.000369314
0.000369111
0.000368986
0.000368803
0.000368696
0.000368534
0.000368446
0.000368308
0.000368242
0.000368131
0.00036809
0.000368025
0.000368007
0.000367946
0.000368016
0.000367997
0.000372936
0.0130814
0.0156973
0.00102439
0.000932908
0.000855226
0.000789096
0.000733396
0.000687061
0.000648488
0.000616381
0.000589333
0.000566484
0.000546874
0.000530043
0.000515332
0.000502541
0.000491178
0.000481197
0.000472203
0.000464245
0.000456983
0.000450526
0.000444562
0.000439244
0.000434278
0.000429841
0.000425654
0.000421912
0.000418346
0.000415165
0.000412097
0.000409372
0.000406716
0.000404366
0.000402048
0.000400011
0.000397976
0.000396204
0.000394413
0.000392865
0.000391278
0.000389922
0.000388508
0.000387316
0.000386053
0.000385002
0.000383873
0.000382944
0.00038193
0.000381108
0.000380195
0.000379467
0.000378645
0.000378
0.000377259
0.000376689
0.000376022
0.000375515
0.000374911
0.000374467
0.00037392
0.000373528
0.000373032
0.00037269
0.000372238
0.000371936
0.000371532
0.000371264
0.000370901
0.000370661
0.000370337
0.000370122
0.000369835
0.000369643
0.000369389
0.000369221
0.000368983
0.000368824
0.0003686
0.000368455
0.00036825
0.000368124
0.000367939
0.000367831
0.000367667
0.000367577
0.000367437
0.000367369
0.000367256
0.000367214
0.000367146
0.000367126
0.00036706
0.000367129
0.000367108
0.000372186
0.013276
0.0160213
0.00102439
0.000932914
0.000855256
0.000789132
0.00073341
0.000687034
0.000648408
0.000616243
0.00058914
0.000566237
0.000546578
0.000529701
0.000514948
0.00050212
0.000490723
0.00048071
0.000471689
0.000463704
0.000456419
0.00044994
0.000443957
0.00043862
0.000433637
0.000429184
0.000424983
0.000421227
0.000417648
0.000414456
0.000411376
0.000408641
0.000405975
0.000403617
0.00040129
0.000399245
0.000397203
0.000395424
0.000393626
0.000392072
0.000390478
0.000389116
0.000387697
0.000386499
0.000385232
0.000384176
0.000383042
0.000382109
0.000381091
0.000380265
0.000379348
0.000378617
0.000377791
0.000377143
0.000376398
0.000375825
0.000375155
0.000374646
0.000374038
0.000373592
0.000373042
0.000372648
0.000372149
0.000371805
0.000371351
0.000371046
0.00037064
0.00037037
0.000370005
0.000369763
0.000369437
0.000369221
0.000368932
0.000368738
0.000368483
0.000368313
0.000368074
0.000367913
0.000367688
0.000367542
0.000367334
0.000367206
0.00036702
0.00036691
0.000366744
0.000366653
0.00036651
0.000366441
0.000366325
0.000366281
0.000366211
0.000366188
0.000366117
0.000366185
0.000366162
0.000371386
0.0134732
0.0163639
0.00102438
0.00093292
0.000855288
0.00078917
0.000733427
0.000687006
0.000648325
0.0006161
0.000588937
0.000565978
0.000546266
0.000529341
0.000514544
0.000501676
0.000490243
0.000480197
0.000471145
0.000463133
0.000455822
0.00044932
0.000443316
0.000437959
0.000432958
0.000428489
0.000424272
0.000420502
0.00041691
0.000413705
0.000410613
0.000407867
0.000405191
0.000402823
0.000400487
0.000398434
0.000396383
0.000394597
0.000392791
0.000391231
0.00038963
0.000388262
0.000386837
0.000385634
0.000384361
0.0003833
0.000382161
0.000381224
0.000380201
0.000379371
0.00037845
0.000377715
0.000376885
0.000376234
0.000375486
0.00037491
0.000374235
0.000373724
0.000373113
0.000372664
0.000372111
0.000371715
0.000371212
0.000370867
0.00037041
0.000370103
0.000369694
0.000369423
0.000369055
0.000368811
0.000368483
0.000368265
0.000367974
0.000367779
0.000367521
0.00036735
0.000367109
0.000366947
0.00036672
0.000366572
0.000366363
0.000366233
0.000366044
0.000365933
0.000365765
0.000365672
0.000365527
0.000365456
0.000365338
0.000365291
0.000365219
0.000365194
0.000365117
0.000365184
0.000365159
0.000370537
0.0136696
0.0167238
0.00102437
0.000932927
0.000855322
0.000789211
0.000733445
0.000686978
0.000648239
0.000615951
0.000588726
0.000565706
0.000545939
0.000528963
0.00051412
0.000501209
0.000489737
0.000479656
0.000470572
0.000462531
0.000455194
0.000448667
0.00044264
0.000437262
0.000432242
0.000427755
0.000423521
0.000419736
0.00041613
0.000412912
0.000409808
0.00040705
0.000404363
0.000401985
0.000399639
0.000397577
0.000395517
0.000393723
0.000391909
0.000390342
0.000388734
0.00038736
0.000385928
0.00038472
0.00038344
0.000382375
0.00038123
0.000380288
0.00037926
0.000378426
0.0003775
0.000376762
0.000375928
0.000375273
0.000374521
0.000373941
0.000373263
0.000372749
0.000372135
0.000371683
0.000371127
0.000370728
0.000370222
0.000369874
0.000369414
0.000369105
0.000368694
0.00036842
0.00036805
0.000367804
0.000367474
0.000367254
0.00036696
0.000366764
0.000366504
0.000366332
0.000366089
0.000365925
0.000365696
0.000365547
0.000365335
0.000365204
0.000365013
0.0003649
0.000364729
0.000364634
0.000364487
0.000364413
0.000364293
0.000364244
0.000364169
0.000364142
0.00036406
0.000364125
0.000364098
0.000369638
0.0138617
0.0170992
0.00102436
0.000932933
0.000855357
0.000789254
0.000733466
0.000686952
0.000648151
0.000615796
0.000588505
0.000565423
0.000545598
0.000528568
0.000513675
0.000500719
0.000489207
0.000479089
0.000469971
0.000461899
0.000454533
0.00044798
0.000441929
0.000436529
0.000431489
0.000426983
0.000422732
0.00041893
0.000415309
0.000412076
0.000408959
0.00040619
0.00040349
0.000401102
0.000398745
0.000396674
0.000394605
0.000392802
0.00039098
0.000389405
0.00038779
0.000386409
0.00038497
0.000383756
0.00038247
0.000381399
0.000380249
0.000379302
0.000378269
0.00037743
0.000376499
0.000375757
0.000374918
0.000374259
0.000373503
0.00037292
0.000372238
0.000371721
0.000371103
0.000370648
0.000370088
0.000369687
0.000369178
0.000368827
0.000368364
0.000368053
0.000367639
0.000367363
0.00036699
0.000366742
0.000366409
0.000366188
0.000365891
0.000365693
0.000365431
0.000365257
0.000365012
0.000364847
0.000364615
0.000364465
0.000364251
0.000364118
0.000363924
0.000363809
0.000363636
0.000363539
0.000363389
0.000363314
0.000363191
0.00036314
0.000363062
0.000363032
0.000362944
0.000363008
0.000362979
0.000368686
0.0140452
0.0174879
0.00102436
0.00093294
0.000855394
0.0007893
0.000733489
0.000686925
0.000648061
0.000615637
0.000588277
0.000565129
0.000545242
0.000528155
0.000513211
0.000500208
0.000488652
0.000478495
0.000469341
0.000461236
0.00045384
0.00044726
0.000441184
0.000435761
0.000430699
0.000426172
0.000421903
0.000418084
0.000414446
0.000411199
0.000408068
0.000405285
0.000402574
0.000400174
0.000397806
0.000395725
0.000393646
0.000391834
0.000390003
0.00038842
0.000386797
0.000385409
0.000383963
0.000382742
0.00038145
0.000380373
0.000379216
0.000378264
0.000377225
0.000376382
0.000375446
0.0003747
0.000373856
0.000373193
0.000372432
0.000371846
0.00037116
0.000370639
0.000370017
0.000369559
0.000368996
0.000368591
0.000368079
0.000367726
0.00036726
0.000366946
0.000366528
0.00036625
0.000365875
0.000365624
0.000365289
0.000365065
0.000364766
0.000364566
0.000364302
0.000364127
0.000363879
0.000363713
0.000363478
0.000363326
0.00036311
0.000362975
0.000362778
0.000362662
0.000362486
0.000362387
0.000362234
0.000362157
0.000362031
0.000361977
0.000361896
0.000361864
0.00036177
0.000361832
0.000361801
0.000367681
0.0142156
0.017887
0.00102435
0.000932946
0.000855432
0.000789349
0.000733514
0.0006869
0.00064797
0.000615474
0.000588042
0.000564824
0.000544872
0.000527726
0.000512727
0.000499674
0.000488073
0.000477874
0.000468683
0.000460543
0.000453116
0.000446506
0.000440403
0.000434956
0.000429871
0.000425324
0.000421035
0.000417198
0.000413543
0.00041028
0.000407134
0.000404338
0.000401613
0.000399201
0.000396821
0.000394729
0.00039264
0.000390819
0.000388979
0.000387387
0.000385755
0.00038436
0.000382906
0.000381678
0.000380379
0.000379296
0.000378133
0.000377175
0.000376131
0.000375283
0.000374341
0.00037359
0.000372741
0.000372074
0.000371308
0.000370718
0.000370027
0.000369503
0.000368877
0.000368416
0.000367849
0.000367441
0.000366925
0.000366569
0.0003661
0.000365783
0.000365362
0.000365082
0.000364704
0.000364451
0.000364113
0.000363887
0.000363585
0.000363383
0.000363117
0.000362939
0.000362689
0.000362521
0.000362284
0.00036213
0.000361911
0.000361775
0.000361575
0.000361457
0.000361278
0.000361177
0.000361022
0.000360942
0.000360813
0.000360756
0.000360672
0.000360638
0.000360537
0.000360598
0.000360565
0.000366621
0.0143679
0.0182929
0.00102434
0.000932952
0.000855472
0.0007894
0.000733543
0.000686876
0.000647878
0.000615306
0.000587799
0.000564508
0.000544489
0.00052728
0.000512224
0.000499119
0.00048747
0.000477228
0.000467997
0.000459821
0.00045236
0.00044572
0.000439589
0.000434115
0.000429006
0.000424437
0.000420127
0.000416271
0.000412598
0.000409319
0.000406157
0.000403346
0.000400608
0.000398183
0.000395791
0.000393688
0.000391588
0.000389757
0.000387906
0.000386306
0.000384665
0.000383261
0.0003818
0.000380565
0.000379258
0.000378169
0.000376999
0.000376035
0.000374984
0.000374131
0.000373184
0.000372428
0.000371573
0.000370902
0.000370131
0.000369537
0.000368842
0.000368314
0.000367683
0.000367218
0.000366647
0.000366237
0.000365717
0.000365357
0.000364885