/*--------------------------------*- C++ -*----------------------------------*\
| =========                 |                                                 |
| \\      /  F ield         | OpenFOAM: The Open Source CFD Toolbox           |
|  \\    /   O peration     | Version:  v2012                                 |
|   \\  /    A nd           | Website:  www.openfoam.com                      |
|    \\/     M anipulation  |                                                 |
\*---------------------------------------------------------------------------*/
FoamFile
{
    version     2.0;
    format      ascii;
    class       volScalarField;
    location    "43";
    object      nut;
}
// * * * * * * * * * * * * * * * * * * * * * * * * * * * * * * * * * * * * * //

dimensions      [0 2 -1 0 0 0 0];


internalField   nonuniform List<scalar> 
209825
(
1.24569e-07
1.23476e-07
1.19589e-07
1.13434e-07
1.06378e-07
9.94679e-08
9.31512e-08
8.75936e-08
8.27424e-08
7.85513e-08
7.48986e-08
7.1734e-08
6.89488e-08
6.65195e-08
6.43558e-08
6.24542e-08
6.074e-08
5.92246e-08
5.78429e-08
5.66167e-08
5.54855e-08
5.4479e-08
5.35408e-08
5.27042e-08
5.1916e-08
5.12128e-08
5.05442e-08
4.99487e-08
4.93747e-08
4.88661e-08
4.83712e-08
4.79337e-08
4.75023e-08
4.71236e-08
4.67461e-08
4.64172e-08
4.60849e-08
4.57981e-08
4.55043e-08
4.52529e-08
4.49915e-08
4.47704e-08
4.4536e-08
4.43409e-08
4.41319e-08
4.39593e-08
4.37705e-08
4.36176e-08
4.34484e-08
4.33122e-08
4.31577e-08
4.30393e-08
4.28997e-08
4.27945e-08
4.26651e-08
4.25721e-08
4.24593e-08
4.23734e-08
4.22711e-08
4.21962e-08
4.20964e-08
4.20331e-08
4.19409e-08
4.18842e-08
4.17991e-08
4.1745e-08
4.16638e-08
4.1613e-08
4.15455e-08
4.14935e-08
4.14339e-08
4.13836e-08
4.13294e-08
4.12827e-08
4.12294e-08
4.11832e-08
4.11314e-08
4.10867e-08
4.10382e-08
4.09959e-08
4.09502e-08
4.0909e-08
4.08659e-08
4.0825e-08
4.07851e-08
4.07447e-08
4.07081e-08
4.06683e-08
4.06384e-08
4.05968e-08
4.05718e-08
4.05264e-08
4.05052e-08
4.08507e-08
3.70416e-06
2.7073e-08
1.24569e-07
1.23476e-07
1.1959e-07
1.13436e-07
1.06379e-07
9.94701e-08
9.31536e-08
8.7596e-08
8.27447e-08
7.85535e-08
7.49007e-08
7.17359e-08
6.89506e-08
6.65211e-08
6.43573e-08
6.24556e-08
6.07412e-08
5.92258e-08
5.7844e-08
5.66176e-08
5.54864e-08
5.44798e-08
5.35416e-08
5.27049e-08
5.19166e-08
5.12134e-08
5.05447e-08
4.99491e-08
4.9375e-08
4.88664e-08
4.83715e-08
4.7934e-08
4.75026e-08
4.71238e-08
4.67462e-08
4.64174e-08
4.6085e-08
4.57981e-08
4.55043e-08
4.5253e-08
4.49915e-08
4.47704e-08
4.45359e-08
4.43408e-08
4.41318e-08
4.39592e-08
4.37703e-08
4.36174e-08
4.34482e-08
4.3312e-08
4.31575e-08
4.30391e-08
4.28995e-08
4.27943e-08
4.26649e-08
4.25719e-08
4.24591e-08
4.23731e-08
4.22709e-08
4.2196e-08
4.20961e-08
4.20328e-08
4.19406e-08
4.18839e-08
4.17987e-08
4.17446e-08
4.16634e-08
4.16126e-08
4.15452e-08
4.14932e-08
4.14336e-08
4.13832e-08
4.1329e-08
4.12823e-08
4.1229e-08
4.11828e-08
4.1131e-08
4.10863e-08
4.10378e-08
4.09955e-08
4.09498e-08
4.09086e-08
4.08655e-08
4.08246e-08
4.07846e-08
4.07443e-08
4.07077e-08
4.06678e-08
4.06379e-08
4.05964e-08
4.05713e-08
4.05259e-08
4.05047e-08
4.08505e-08
3.70407e-06
2.72814e-08
1.24569e-07
1.23477e-07
1.19593e-07
1.13442e-07
1.06388e-07
9.94797e-08
9.31634e-08
8.76057e-08
8.2754e-08
7.85622e-08
7.49089e-08
7.17434e-08
6.89575e-08
6.65275e-08
6.43631e-08
6.24609e-08
6.07461e-08
5.92302e-08
5.7848e-08
5.66213e-08
5.54897e-08
5.44828e-08
5.35443e-08
5.27073e-08
5.19188e-08
5.12153e-08
5.05464e-08
4.99507e-08
4.93764e-08
4.88676e-08
4.83725e-08
4.79349e-08
4.75033e-08
4.71245e-08
4.67468e-08
4.64178e-08
4.60853e-08
4.57983e-08
4.55044e-08
4.5253e-08
4.49914e-08
4.47702e-08
4.45357e-08
4.43405e-08
4.41314e-08
4.39588e-08
4.37698e-08
4.36168e-08
4.34476e-08
4.33113e-08
4.31568e-08
4.30383e-08
4.28986e-08
4.27934e-08
4.26639e-08
4.25709e-08
4.2458e-08
4.2372e-08
4.22697e-08
4.21948e-08
4.20949e-08
4.20315e-08
4.19394e-08
4.18826e-08
4.17974e-08
4.17433e-08
4.16621e-08
4.16113e-08
4.15438e-08
4.14918e-08
4.14321e-08
4.13818e-08
4.13275e-08
4.12808e-08
4.12275e-08
4.11813e-08
4.11295e-08
4.10848e-08
4.10362e-08
4.09939e-08
4.09482e-08
4.09069e-08
4.08638e-08
4.08229e-08
4.07829e-08
4.07425e-08
4.07059e-08
4.06661e-08
4.06361e-08
4.05946e-08
4.05695e-08
4.0524e-08
4.05028e-08
4.08493e-08
3.70302e-06
2.75743e-08
1.24568e-07
1.23478e-07
1.19599e-07
1.13453e-07
1.06402e-07
9.94958e-08
9.31801e-08
8.76221e-08
8.27697e-08
7.85769e-08
7.49226e-08
7.17561e-08
6.89691e-08
6.65381e-08
6.43729e-08
6.24698e-08
6.07542e-08
5.92377e-08
5.78548e-08
5.66274e-08
5.54953e-08
5.44879e-08
5.35489e-08
5.27115e-08
5.19225e-08
5.12187e-08
5.05494e-08
4.99533e-08
4.93788e-08
4.88697e-08
4.83743e-08
4.79364e-08
4.75047e-08
4.71256e-08
4.67476e-08
4.64185e-08
4.60858e-08
4.57987e-08
4.55046e-08
4.5253e-08
4.49913e-08
4.477e-08
4.45353e-08
4.434e-08
4.41308e-08
4.3958e-08
4.37689e-08
4.36159e-08
4.34465e-08
4.33101e-08
4.31555e-08
4.3037e-08
4.28972e-08
4.27919e-08
4.26624e-08
4.25693e-08
4.24563e-08
4.23703e-08
4.22679e-08
4.21929e-08
4.20929e-08
4.20295e-08
4.19373e-08
4.18805e-08
4.17953e-08
4.17411e-08
4.16599e-08
4.1609e-08
4.15415e-08
4.14894e-08
4.14297e-08
4.13794e-08
4.13251e-08
4.12784e-08
4.1225e-08
4.11788e-08
4.11269e-08
4.10822e-08
4.10336e-08
4.09913e-08
4.09455e-08
4.09042e-08
4.08611e-08
4.08202e-08
4.07801e-08
4.07397e-08
4.0703e-08
4.06632e-08
4.06332e-08
4.05916e-08
4.05664e-08
4.05209e-08
4.04997e-08
4.08473e-08
3.70121e-06
2.79211e-08
1.24567e-07
1.23479e-07
1.19607e-07
1.13468e-07
1.06422e-07
9.95185e-08
9.32036e-08
8.76453e-08
8.27918e-08
7.85978e-08
7.49419e-08
7.1774e-08
6.89856e-08
6.65532e-08
6.43867e-08
6.24825e-08
6.07658e-08
5.92482e-08
5.78644e-08
5.66362e-08
5.55032e-08
5.44951e-08
5.35554e-08
5.27174e-08
5.19278e-08
5.12235e-08
5.05537e-08
4.99571e-08
4.93822e-08
4.88727e-08
4.83769e-08
4.79387e-08
4.75066e-08
4.71272e-08
4.6749e-08
4.64195e-08
4.60866e-08
4.57992e-08
4.55049e-08
4.52531e-08
4.49912e-08
4.47697e-08
4.45348e-08
4.43393e-08
4.41299e-08
4.3957e-08
4.37678e-08
4.36146e-08
4.3445e-08
4.33086e-08
4.31538e-08
4.30352e-08
4.28952e-08
4.27899e-08
4.26602e-08
4.2567e-08
4.24539e-08
4.23678e-08
4.22653e-08
4.21903e-08
4.20902e-08
4.20268e-08
4.19345e-08
4.18775e-08
4.17923e-08
4.17381e-08
4.16568e-08
4.16059e-08
4.15383e-08
4.14862e-08
4.14264e-08
4.13761e-08
4.13217e-08
4.1275e-08
4.12215e-08
4.11753e-08
4.11234e-08
4.10786e-08
4.10299e-08
4.09876e-08
4.09418e-08
4.09005e-08
4.08573e-08
4.08163e-08
4.07762e-08
4.07358e-08
4.0699e-08
4.06592e-08
4.06291e-08
4.05874e-08
4.05621e-08
4.05166e-08
4.04953e-08
4.08444e-08
3.69865e-06
2.83093e-08
1.24565e-07
1.2348e-07
1.19617e-07
1.13487e-07
1.06449e-07
9.9548e-08
9.32341e-08
8.76753e-08
8.28206e-08
7.86248e-08
7.49671e-08
7.17972e-08
6.9007e-08
6.65729e-08
6.44047e-08
6.24989e-08
6.07808e-08
5.92619e-08
5.78769e-08
5.66475e-08
5.55135e-08
5.45045e-08
5.35639e-08
5.27251e-08
5.19348e-08
5.12297e-08
5.05593e-08
4.99621e-08
4.93866e-08
4.88766e-08
4.83803e-08
4.79417e-08
4.75091e-08
4.71293e-08
4.67507e-08
4.64209e-08
4.60876e-08
4.57999e-08
4.55053e-08
4.52532e-08
4.49911e-08
4.47693e-08
4.45342e-08
4.43385e-08
4.41289e-08
4.39558e-08
4.37663e-08
4.36129e-08
4.34432e-08
4.33066e-08
4.31517e-08
4.30329e-08
4.28928e-08
4.27873e-08
4.26575e-08
4.25641e-08
4.24509e-08
4.23647e-08
4.22621e-08
4.2187e-08
4.20868e-08
4.20232e-08
4.19308e-08
4.18738e-08
4.17884e-08
4.17343e-08
4.16528e-08
4.16019e-08
4.15342e-08
4.14821e-08
4.14222e-08
4.13718e-08
4.13174e-08
4.12706e-08
4.12171e-08
4.11708e-08
4.11188e-08
4.1074e-08
4.10253e-08
4.09829e-08
4.0937e-08
4.08956e-08
4.08524e-08
4.08114e-08
4.07711e-08
4.07307e-08
4.06939e-08
4.0654e-08
4.06239e-08
4.0582e-08
4.05565e-08
4.0511e-08
4.04897e-08
4.08408e-08
3.69538e-06
2.87349e-08
1.24564e-07
1.23482e-07
1.1963e-07
1.13511e-07
1.06481e-07
9.95844e-08
9.32718e-08
8.77124e-08
8.28561e-08
7.86582e-08
7.49982e-08
7.1826e-08
6.90335e-08
6.65972e-08
6.44269e-08
6.25193e-08
6.07994e-08
5.92789e-08
5.78923e-08
5.66616e-08
5.55264e-08
5.45161e-08
5.35745e-08
5.27346e-08
5.19434e-08
5.12375e-08
5.05662e-08
4.99684e-08
4.93921e-08
4.88815e-08
4.83846e-08
4.79454e-08
4.75123e-08
4.7132e-08
4.67529e-08
4.64227e-08
4.60889e-08
4.58009e-08
4.55059e-08
4.52535e-08
4.4991e-08
4.47689e-08
4.45335e-08
4.43375e-08
4.41276e-08
4.39543e-08
4.37646e-08
4.3611e-08
4.3441e-08
4.33042e-08
4.3149e-08
4.30301e-08
4.28897e-08
4.27841e-08
4.26541e-08
4.25606e-08
4.24472e-08
4.23609e-08
4.22581e-08
4.21829e-08
4.20825e-08
4.20189e-08
4.19263e-08
4.18691e-08
4.17838e-08
4.17295e-08
4.1648e-08
4.1597e-08
4.15291e-08
4.14771e-08
4.1417e-08
4.13666e-08
4.13121e-08
4.12652e-08
4.12117e-08
4.11653e-08
4.11132e-08
4.10684e-08
4.10195e-08
4.09771e-08
4.09311e-08
4.08897e-08
4.08463e-08
4.08053e-08
4.0765e-08
4.07245e-08
4.06876e-08
4.06476e-08
4.06175e-08
4.05755e-08
4.05497e-08
4.05042e-08
4.04828e-08
4.08363e-08
3.69144e-06
2.91981e-08
1.24561e-07
1.23484e-07
1.19645e-07
1.1354e-07
1.06519e-07
9.96278e-08
9.33167e-08
8.77567e-08
8.28985e-08
7.86981e-08
7.50354e-08
7.18604e-08
6.90651e-08
6.66262e-08
6.44536e-08
6.25437e-08
6.08216e-08
5.92992e-08
5.79109e-08
5.66785e-08
5.55417e-08
5.45301e-08
5.35871e-08
5.27461e-08
5.19538e-08
5.12468e-08
5.05746e-08
4.99759e-08
4.93988e-08
4.88873e-08
4.83898e-08
4.79499e-08
4.75161e-08
4.71353e-08
4.67556e-08
4.64249e-08
4.60906e-08
4.58021e-08
4.55067e-08
4.52538e-08
4.49909e-08
4.47685e-08
4.45327e-08
4.43364e-08
4.41261e-08
4.39525e-08
4.37625e-08
4.36087e-08
4.34384e-08
4.33014e-08
4.31459e-08
4.30268e-08
4.28862e-08
4.27804e-08
4.26502e-08
4.25565e-08
4.24429e-08
4.23564e-08
4.22534e-08
4.21781e-08
4.20775e-08
4.20137e-08
4.1921e-08
4.18637e-08
4.17782e-08
4.17239e-08
4.16423e-08
4.15911e-08
4.15232e-08
4.14711e-08
4.14109e-08
4.13604e-08
4.13058e-08
4.12589e-08
4.12052e-08
4.11588e-08
4.11066e-08
4.10617e-08
4.10128e-08
4.09703e-08
4.09241e-08
4.08827e-08
4.08392e-08
4.07981e-08
4.07576e-08
4.07171e-08
4.06801e-08
4.064e-08
4.06099e-08
4.05677e-08
4.05417e-08
4.0496e-08
4.04746e-08
4.0831e-08
3.68687e-06
2.97029e-08
1.24559e-07
1.23486e-07
1.19662e-07
1.13573e-07
1.06564e-07
9.96783e-08
9.3369e-08
8.78083e-08
8.29479e-08
7.87447e-08
7.50788e-08
7.19005e-08
6.91021e-08
6.66602e-08
6.44847e-08
6.25722e-08
6.08477e-08
5.9323e-08
5.79326e-08
5.66983e-08
5.55598e-08
5.45465e-08
5.3602e-08
5.27596e-08
5.19659e-08
5.12578e-08
5.05844e-08
4.99847e-08
4.94066e-08
4.88943e-08
4.83958e-08
4.79552e-08
4.75207e-08
4.71391e-08
4.67588e-08
4.64275e-08
4.60926e-08
4.58036e-08
4.55076e-08
4.52543e-08
4.49909e-08
4.47681e-08
4.45318e-08
4.43351e-08
4.41245e-08
4.39506e-08
4.37602e-08
4.3606e-08
4.34354e-08
4.32981e-08
4.31424e-08
4.3023e-08
4.28821e-08
4.27761e-08
4.26457e-08
4.25517e-08
4.24379e-08
4.23512e-08
4.22479e-08
4.21725e-08
4.20717e-08
4.20078e-08
4.19149e-08
4.18574e-08
4.17718e-08
4.17174e-08
4.16356e-08
4.15844e-08
4.15163e-08
4.14642e-08
4.14038e-08
4.13532e-08
4.12985e-08
4.12515e-08
4.11977e-08
4.11513e-08
4.1099e-08
4.1054e-08
4.10049e-08
4.09623e-08
4.0916e-08
4.08745e-08
4.08309e-08
4.07897e-08
4.07491e-08
4.07085e-08
4.06714e-08
4.06313e-08
4.06011e-08
4.05586e-08
4.05323e-08
4.04866e-08
4.04651e-08
4.0825e-08
3.6817e-06
3.02556e-08
1.24556e-07
1.23489e-07
1.19682e-07
1.13611e-07
1.06615e-07
9.97361e-08
9.34289e-08
8.78674e-08
8.30046e-08
7.87981e-08
7.51285e-08
7.19466e-08
6.91446e-08
6.66992e-08
6.45205e-08
6.26049e-08
6.08776e-08
5.93504e-08
5.79575e-08
5.67211e-08
5.55805e-08
5.45653e-08
5.36191e-08
5.27751e-08
5.19799e-08
5.12704e-08
5.05958e-08
4.99948e-08
4.94157e-08
4.89023e-08
4.84029e-08
4.79613e-08
4.7526e-08
4.71436e-08
4.67625e-08
4.64305e-08
4.6095e-08
4.58053e-08
4.55087e-08
4.52549e-08
4.49909e-08
4.47676e-08
4.45309e-08
4.43338e-08
4.41227e-08
4.39484e-08
4.37576e-08
4.36031e-08
4.34321e-08
4.32945e-08
4.31384e-08
4.30187e-08
4.28775e-08
4.27712e-08
4.26405e-08
4.25463e-08
4.24322e-08
4.23453e-08
4.22418e-08
4.21662e-08
4.20652e-08
4.2001e-08
4.19079e-08
4.18502e-08
4.17644e-08
4.171e-08
4.16281e-08
4.15767e-08
4.15084e-08
4.14563e-08
4.13957e-08
4.1345e-08
4.12902e-08
4.12431e-08
4.11892e-08
4.11427e-08
4.10902e-08
4.10452e-08
4.09959e-08
4.09532e-08
4.09068e-08
4.08652e-08
4.08214e-08
4.07802e-08
4.07394e-08
4.06988e-08
4.06615e-08
4.06213e-08
4.0591e-08
4.05483e-08
4.05216e-08
4.04759e-08
4.04543e-08
4.08181e-08
3.67598e-06
3.08647e-08
1.24553e-07
1.23492e-07
1.19704e-07
1.13654e-07
1.06672e-07
9.98011e-08
9.34965e-08
8.79341e-08
8.30687e-08
7.88585e-08
7.51848e-08
7.19988e-08
6.91926e-08
6.67434e-08
6.4561e-08
6.2642e-08
6.09116e-08
5.93814e-08
5.79859e-08
5.67469e-08
5.5604e-08
5.45867e-08
5.36385e-08
5.27927e-08
5.19959e-08
5.12848e-08
5.06087e-08
5.00064e-08
4.9426e-08
4.89115e-08
4.84109e-08
4.79684e-08
4.7532e-08
4.71488e-08
4.67668e-08
4.6434e-08
4.60977e-08
4.58074e-08
4.55101e-08
4.52556e-08
4.49911e-08
4.47672e-08
4.45299e-08
4.43323e-08
4.41207e-08
4.39459e-08
4.37547e-08
4.35998e-08
4.34284e-08
4.32905e-08
4.31339e-08
4.30139e-08
4.28723e-08
4.27658e-08
4.26347e-08
4.25402e-08
4.24258e-08
4.23387e-08
4.22348e-08
4.21591e-08
4.20578e-08
4.19934e-08
4.19001e-08
4.18421e-08
4.17562e-08
4.17017e-08
4.16196e-08
4.15681e-08
4.14996e-08
4.14474e-08
4.13865e-08
4.13358e-08
4.12809e-08
4.12337e-08
4.11797e-08
4.1133e-08
4.10804e-08
4.10352e-08
4.09858e-08
4.0943e-08
4.08964e-08
4.08547e-08
4.08108e-08
4.07695e-08
4.07285e-08
4.06878e-08
4.06503e-08
4.061e-08
4.05796e-08
4.05367e-08
4.05096e-08
4.04638e-08
4.04421e-08
4.08104e-08
3.66972e-06
3.15402e-08
1.24549e-07
1.23495e-07
1.19728e-07
1.13701e-07
1.06736e-07
9.98736e-08
9.35718e-08
8.80086e-08
8.31402e-08
7.8926e-08
7.52478e-08
7.20571e-08
6.92465e-08
6.67929e-08
6.46064e-08
6.26836e-08
6.09497e-08
5.94162e-08
5.80176e-08
5.67759e-08
5.56304e-08
5.46108e-08
5.36604e-08
5.28125e-08
5.20138e-08
5.1301e-08
5.06233e-08
5.00195e-08
4.94376e-08
4.89218e-08
4.842e-08
4.79763e-08
4.75389e-08
4.71547e-08
4.67718e-08
4.64381e-08
4.61009e-08
4.58098e-08
4.55117e-08
4.52566e-08
4.49913e-08
4.47668e-08
4.45289e-08
4.43308e-08
4.41186e-08
4.39433e-08
4.37515e-08
4.35962e-08
4.34243e-08
4.3286e-08
4.3129e-08
4.30086e-08
4.28666e-08
4.27598e-08
4.26284e-08
4.25335e-08
4.24188e-08
4.23314e-08
4.22272e-08
4.21512e-08
4.20496e-08
4.1985e-08
4.18914e-08
4.18332e-08
4.1747e-08
4.16925e-08
4.16102e-08
4.15585e-08
4.14898e-08
4.14376e-08
4.13764e-08
4.13256e-08
4.12705e-08
4.12232e-08
4.1169e-08
4.11223e-08
4.10695e-08
4.10242e-08
4.09746e-08
4.09317e-08
4.08849e-08
4.08431e-08
4.07989e-08
4.07576e-08
4.07164e-08
4.06756e-08
4.06379e-08
4.05975e-08
4.0567e-08
4.05239e-08
4.04962e-08
4.04503e-08
4.04285e-08
4.0802e-08
3.66293e-06
3.22934e-08
1.24546e-07
1.23498e-07
1.19755e-07
1.13753e-07
1.06806e-07
9.99536e-08
9.36552e-08
8.80911e-08
8.32195e-08
7.90008e-08
7.53177e-08
7.21219e-08
6.93062e-08
6.68478e-08
6.46568e-08
6.27298e-08
6.0992e-08
5.94549e-08
5.8053e-08
5.68082e-08
5.56598e-08
5.46376e-08
5.36847e-08
5.28347e-08
5.20338e-08
5.13191e-08
5.06396e-08
5.00341e-08
4.94507e-08
4.89334e-08
4.84302e-08
4.79853e-08
4.75466e-08
4.71613e-08
4.67773e-08
4.64427e-08
4.61045e-08
4.58126e-08
4.55136e-08
4.52577e-08
4.49916e-08
4.47665e-08
4.45279e-08
4.43291e-08
4.41163e-08
4.39405e-08
4.37482e-08
4.35923e-08
4.34199e-08
4.32812e-08
4.31237e-08
4.30029e-08
4.28604e-08
4.27532e-08
4.26214e-08
4.25262e-08
4.2411e-08
4.23234e-08
4.22187e-08
4.21426e-08
4.20406e-08
4.19758e-08
4.18819e-08
4.18234e-08
4.1737e-08
4.16824e-08
4.15998e-08
4.1548e-08
4.1479e-08
4.14267e-08
4.13653e-08
4.13144e-08
4.12591e-08
4.12117e-08
4.11573e-08
4.11104e-08
4.10574e-08
4.10121e-08
4.09622e-08
4.09192e-08
4.08721e-08
4.08303e-08
4.07859e-08
4.07444e-08
4.0703e-08
4.06621e-08
4.06242e-08
4.05837e-08
4.0553e-08
4.05097e-08
4.04814e-08
4.04355e-08
4.04136e-08
4.07927e-08
3.65558e-06
3.31363e-08
1.24541e-07
1.23502e-07
1.19783e-07
1.1381e-07
1.06883e-07
1.00041e-07
9.37466e-08
8.81816e-08
8.33066e-08
7.90831e-08
7.53945e-08
7.21932e-08
6.9372e-08
6.69084e-08
6.47124e-08
6.27808e-08
6.10387e-08
5.94976e-08
5.80921e-08
5.68439e-08
5.56924e-08
5.46672e-08
5.37117e-08
5.28591e-08
5.2056e-08
5.13392e-08
5.06576e-08
5.00504e-08
4.94652e-08
4.89463e-08
4.84416e-08
4.79953e-08
4.75553e-08
4.71688e-08
4.67836e-08
4.64479e-08
4.61086e-08
4.58157e-08
4.55158e-08
4.52591e-08
4.49922e-08
4.47663e-08
4.45269e-08
4.43275e-08
4.41139e-08
4.39376e-08
4.37445e-08
4.35882e-08
4.34151e-08
4.3276e-08
4.31179e-08
4.29966e-08
4.28537e-08
4.27461e-08
4.26138e-08
4.25182e-08
4.24026e-08
4.23147e-08
4.22096e-08
4.21332e-08
4.20309e-08
4.19657e-08
4.18715e-08
4.18127e-08
4.1726e-08
4.16713e-08
4.15885e-08
4.15364e-08
4.14672e-08
4.14149e-08
4.13531e-08
4.13021e-08
4.12466e-08
4.1199e-08
4.11445e-08
4.10975e-08
4.10443e-08
4.09988e-08
4.09487e-08
4.09056e-08
4.08582e-08
4.08163e-08
4.07716e-08
4.073e-08
4.06884e-08
4.06473e-08
4.06092e-08
4.05686e-08
4.05377e-08
4.04942e-08
4.04653e-08
4.04192e-08
4.03972e-08
4.07826e-08
3.64762e-06
3.40817e-08
1.24537e-07
1.23506e-07
1.19815e-07
1.13871e-07
1.06966e-07
1.00137e-07
9.38462e-08
8.82805e-08
8.34017e-08
7.9173e-08
7.54786e-08
7.22712e-08
6.94441e-08
6.69748e-08
6.47734e-08
6.28368e-08
6.10899e-08
5.95445e-08
5.81349e-08
5.6883e-08
5.57281e-08
5.46998e-08
5.37413e-08
5.28861e-08
5.20804e-08
5.13613e-08
5.06775e-08
5.00683e-08
4.94812e-08
4.89606e-08
4.84542e-08
4.80064e-08
4.75649e-08
4.71771e-08
4.67905e-08
4.64537e-08
4.61133e-08
4.58194e-08
4.55184e-08
4.52607e-08
4.49929e-08
4.47662e-08
4.45259e-08
4.43258e-08
4.41115e-08
4.39345e-08
4.37407e-08
4.35838e-08
4.34101e-08
4.32704e-08
4.31117e-08
4.299e-08
4.28465e-08
4.27385e-08
4.26057e-08
4.25096e-08
4.23936e-08
4.23053e-08
4.21997e-08
4.2123e-08
4.20203e-08
4.19549e-08
4.18603e-08
4.18012e-08
4.17142e-08
4.16594e-08
4.15763e-08
4.1524e-08
4.14544e-08
4.14021e-08
4.13399e-08
4.12888e-08
4.1233e-08
4.11854e-08
4.11306e-08
4.10835e-08
4.103e-08
4.09844e-08
4.0934e-08
4.08907e-08
4.08431e-08
4.0801e-08
4.07561e-08
4.07144e-08
4.06725e-08
4.06313e-08
4.05929e-08
4.05521e-08
4.05211e-08
4.04773e-08
4.04477e-08
4.04016e-08
4.03794e-08
4.07717e-08
3.63895e-06
3.51427e-08
1.24532e-07
1.23509e-07
1.19848e-07
1.13938e-07
1.07056e-07
1.0024e-07
9.39542e-08
8.83877e-08
8.35051e-08
7.92708e-08
7.55701e-08
7.23561e-08
6.95226e-08
6.70471e-08
6.48399e-08
6.28978e-08
6.11458e-08
5.95957e-08
5.81818e-08
5.69258e-08
5.57672e-08
5.47354e-08
5.37737e-08
5.29156e-08
5.21071e-08
5.13855e-08
5.06993e-08
5.00879e-08
4.94988e-08
4.89763e-08
4.84681e-08
4.80186e-08
4.75755e-08
4.71863e-08
4.67983e-08
4.64602e-08
4.61185e-08
4.58235e-08
4.55213e-08
4.52627e-08
4.49938e-08
4.47663e-08
4.45251e-08
4.43241e-08
4.41089e-08
4.39312e-08
4.37367e-08
4.35792e-08
4.34047e-08
4.32645e-08
4.31051e-08
4.29829e-08
4.28388e-08
4.27303e-08
4.2597e-08
4.25004e-08
4.23839e-08
4.22952e-08
4.21891e-08
4.21122e-08
4.2009e-08
4.19432e-08
4.18482e-08
4.17887e-08
4.17014e-08
4.16465e-08
4.15631e-08
4.15105e-08
4.14407e-08
4.13883e-08
4.13256e-08
4.12744e-08
4.12184e-08
4.11706e-08
4.11156e-08
4.10683e-08
4.10146e-08
4.09688e-08
4.09181e-08
4.08747e-08
4.08268e-08
4.07846e-08
4.07394e-08
4.06976e-08
4.06553e-08
4.0614e-08
4.05753e-08
4.05344e-08
4.05031e-08
4.04591e-08
4.04288e-08
4.03826e-08
4.03602e-08
4.07599e-08
3.62941e-06
3.63328e-08
1.24527e-07
1.23513e-07
1.19884e-07
1.14008e-07
1.07153e-07
1.00351e-07
9.40707e-08
8.85035e-08
8.36169e-08
7.93767e-08
7.56692e-08
7.24482e-08
6.96077e-08
6.71255e-08
6.4912e-08
6.2964e-08
6.12066e-08
5.96514e-08
5.82327e-08
5.69724e-08
5.58097e-08
5.47742e-08
5.38091e-08
5.29477e-08
5.21363e-08
5.1412e-08
5.07232e-08
5.01094e-08
4.9518e-08
4.89935e-08
4.84833e-08
4.80321e-08
4.75873e-08
4.71965e-08
4.68069e-08
4.64674e-08
4.61244e-08
4.58281e-08
4.55247e-08
4.5265e-08
4.4995e-08
4.47665e-08
4.45243e-08
4.43225e-08
4.41064e-08
4.39279e-08
4.37326e-08
4.35743e-08
4.33991e-08
4.32583e-08
4.30982e-08
4.29754e-08
4.28306e-08
4.27216e-08
4.25877e-08
4.24907e-08
4.23735e-08
4.22845e-08
4.21778e-08
4.21005e-08
4.19968e-08
4.19307e-08
4.18353e-08
4.17755e-08
4.16877e-08
4.16326e-08
4.15491e-08
4.14961e-08
4.14259e-08
4.13734e-08
4.13104e-08
4.12591e-08
4.12027e-08
4.11548e-08
4.10995e-08
4.10521e-08
4.09981e-08
4.09521e-08
4.09011e-08
4.08576e-08
4.08094e-08
4.0767e-08
4.07214e-08
4.06795e-08
4.06369e-08
4.05955e-08
4.05565e-08
4.05154e-08
4.04838e-08
4.04396e-08
4.04085e-08
4.03621e-08
4.03396e-08
4.07473e-08
3.61882e-06
3.76655e-08
1.24521e-07
1.23518e-07
1.19922e-07
1.14084e-07
1.07257e-07
1.0047e-07
9.41958e-08
8.86281e-08
8.37372e-08
7.94907e-08
7.57761e-08
7.25476e-08
6.96997e-08
6.72103e-08
6.499e-08
6.30357e-08
6.12723e-08
5.97116e-08
5.82879e-08
5.70229e-08
5.58558e-08
5.48163e-08
5.38475e-08
5.29827e-08
5.21681e-08
5.14407e-08
5.07492e-08
5.01329e-08
4.95391e-08
4.90123e-08
4.85e-08
4.80469e-08
4.76002e-08
4.72077e-08
4.68165e-08
4.64755e-08
4.61309e-08
4.58333e-08
4.55286e-08
4.52678e-08
4.49965e-08
4.4767e-08
4.45237e-08
4.4321e-08
4.41039e-08
4.39246e-08
4.37284e-08
4.35693e-08
4.33933e-08
4.32518e-08
4.30909e-08
4.29675e-08
4.2822e-08
4.27125e-08
4.25779e-08
4.24803e-08
4.23626e-08
4.22731e-08
4.21658e-08
4.20882e-08
4.1984e-08
4.19174e-08
4.18216e-08
4.17613e-08
4.16732e-08
4.16179e-08
4.15341e-08
4.14807e-08
4.14102e-08
4.13576e-08
4.12941e-08
4.12427e-08
4.1186e-08
4.11379e-08
4.10824e-08
4.10348e-08
4.09805e-08
4.09343e-08
4.0883e-08
4.08392e-08
4.07907e-08
4.07481e-08
4.07022e-08
4.06601e-08
4.06172e-08
4.05756e-08
4.05363e-08
4.0495e-08
4.04632e-08
4.04187e-08
4.03867e-08
4.03403e-08
4.03176e-08
4.07338e-08
3.60688e-06
3.91544e-08
1.24515e-07
1.23522e-07
1.19962e-07
1.14164e-07
1.07367e-07
1.00598e-07
9.43297e-08
8.87617e-08
8.38663e-08
7.96132e-08
7.58909e-08
7.26544e-08
6.97986e-08
6.73016e-08
6.50741e-08
6.31129e-08
6.13432e-08
5.97767e-08
5.83474e-08
5.70774e-08
5.59057e-08
5.48619e-08
5.3889e-08
5.30205e-08
5.22025e-08
5.1472e-08
5.07774e-08
5.01584e-08
4.9562e-08
4.90328e-08
4.85183e-08
4.8063e-08
4.76143e-08
4.722e-08
4.6827e-08
4.64844e-08
4.61383e-08
4.58392e-08
4.55331e-08
4.5271e-08
4.49984e-08
4.47678e-08
4.45234e-08
4.43196e-08
4.41014e-08
4.39212e-08
4.3724e-08
4.35642e-08
4.33872e-08
4.32451e-08
4.30833e-08
4.29592e-08
4.28129e-08
4.27029e-08
4.25677e-08
4.24695e-08
4.2351e-08
4.22611e-08
4.21531e-08
4.20751e-08
4.19704e-08
4.19034e-08
4.18071e-08
4.17464e-08
4.16578e-08
4.16023e-08
4.15182e-08
4.14644e-08
4.13935e-08
4.13408e-08
4.12768e-08
4.12253e-08
4.11682e-08
4.11199e-08
4.10641e-08
4.10163e-08
4.09618e-08
4.09154e-08
4.08637e-08
4.08197e-08
4.07708e-08
4.07281e-08
4.06818e-08
4.06396e-08
4.05963e-08
4.05545e-08
4.05148e-08
4.04733e-08
4.04411e-08
4.03964e-08
4.03636e-08
4.0317e-08
4.02941e-08
4.07195e-08
3.59327e-06
4.08125e-08
1.24509e-07
1.23526e-07
1.20004e-07
1.14249e-07
1.07485e-07
1.00733e-07
9.44726e-08
8.89043e-08
8.40044e-08
7.97444e-08
7.6014e-08
7.2769e-08
6.99048e-08
6.73996e-08
6.51644e-08
6.3196e-08
6.14195e-08
5.98467e-08
5.84116e-08
5.71362e-08
5.59595e-08
5.4911e-08
5.39339e-08
5.30614e-08
5.22397e-08
5.15058e-08
5.0808e-08
5.01861e-08
4.95868e-08
4.90552e-08
4.85381e-08
4.80806e-08
4.76298e-08
4.72335e-08
4.68386e-08
4.64943e-08
4.61464e-08
4.58459e-08
4.55382e-08
4.52747e-08
4.50008e-08
4.4769e-08
4.45232e-08
4.43184e-08
4.40991e-08
4.39179e-08
4.37197e-08
4.3559e-08
4.3381e-08
4.32381e-08
4.30755e-08
4.29507e-08
4.28036e-08
4.26929e-08
4.25569e-08
4.24581e-08
4.23389e-08
4.22485e-08
4.21398e-08
4.20614e-08
4.1956e-08
4.18886e-08
4.17917e-08
4.17306e-08
4.16415e-08
4.15858e-08
4.15014e-08
4.14471e-08
4.13759e-08
4.1323e-08
4.12585e-08
4.12069e-08
4.11494e-08
4.1101e-08
4.10448e-08
4.09968e-08
4.09419e-08
4.08953e-08
4.08433e-08
4.07991e-08
4.07498e-08
4.07068e-08
4.06602e-08
4.06178e-08
4.0574e-08
4.05321e-08
4.0492e-08
4.04503e-08
4.04178e-08
4.03728e-08
4.0339e-08
4.02923e-08
4.02692e-08
4.07041e-08
3.57757e-06
4.26529e-08
1.24502e-07
1.2353e-07
1.20048e-07
1.14339e-07
1.07609e-07
1.00877e-07
9.46244e-08
8.90562e-08
8.41517e-08
7.98844e-08
7.61455e-08
7.28916e-08
7.00184e-08
6.75046e-08
6.52611e-08
6.3285e-08
6.15013e-08
5.99218e-08
5.84805e-08
5.71994e-08
5.60173e-08
5.49639e-08
5.39822e-08
5.31055e-08
5.22798e-08
5.15423e-08
5.08411e-08
5.0216e-08
4.96138e-08
4.90794e-08
4.85597e-08
4.80998e-08
4.76467e-08
4.72483e-08
4.68513e-08
4.65052e-08
4.61555e-08
4.58533e-08
4.55439e-08
4.5279e-08
4.50036e-08
4.47705e-08
4.45235e-08
4.43175e-08
4.40969e-08
4.39147e-08
4.37154e-08
4.35537e-08
4.33747e-08
4.3231e-08
4.30674e-08
4.29418e-08
4.27938e-08
4.26825e-08
4.25458e-08
4.24462e-08
4.23263e-08
4.22354e-08
4.21259e-08
4.20471e-08
4.1941e-08
4.18731e-08
4.17757e-08
4.17141e-08
4.16245e-08
4.15685e-08
4.14837e-08
4.1429e-08
4.13573e-08
4.13043e-08
4.12393e-08
4.11875e-08
4.11296e-08
4.10809e-08
4.10245e-08
4.09763e-08
4.0921e-08
4.08742e-08
4.08217e-08
4.07773e-08
4.07275e-08
4.06844e-08
4.06373e-08
4.05947e-08
4.05506e-08
4.05085e-08
4.04679e-08
4.0426e-08
4.03931e-08
4.03479e-08
4.03131e-08
4.02663e-08
4.02429e-08
4.06878e-08
3.55932e-06
4.46879e-08
1.24495e-07
1.23535e-07
1.20094e-07
1.14433e-07
1.0774e-07
1.0103e-07
9.47854e-08
8.92175e-08
8.43083e-08
8.00334e-08
7.62857e-08
7.30223e-08
7.01397e-08
6.76167e-08
6.53646e-08
6.33802e-08
6.15889e-08
6.00023e-08
5.85544e-08
5.72671e-08
5.60793e-08
5.50207e-08
5.40341e-08
5.31529e-08
5.2323e-08
5.15816e-08
5.08767e-08
5.02483e-08
4.96429e-08
4.91056e-08
4.85831e-08
4.81207e-08
4.76651e-08
4.72645e-08
4.68653e-08
4.65172e-08
4.61655e-08
4.58616e-08
4.55505e-08
4.5284e-08
4.5007e-08
4.47725e-08
4.45241e-08
4.43168e-08
4.40949e-08
4.39117e-08
4.37111e-08
4.35485e-08
4.33684e-08
4.32238e-08
4.30592e-08
4.29328e-08
4.27838e-08
4.26717e-08
4.25342e-08
4.24339e-08
4.23132e-08
4.22217e-08
4.21114e-08
4.20321e-08
4.19254e-08
4.18569e-08
4.17589e-08
4.16968e-08
4.16066e-08
4.15503e-08
4.14651e-08
4.14099e-08
4.13379e-08
4.12847e-08
4.12191e-08
4.11672e-08
4.11088e-08
4.10599e-08
4.10031e-08
4.09547e-08
4.0899e-08
4.0852e-08
4.0799e-08
4.07544e-08
4.07042e-08
4.06609e-08
4.06133e-08
4.05705e-08
4.05259e-08
4.04836e-08
4.04426e-08
4.04004e-08
4.0367e-08
4.03216e-08
4.02858e-08
4.02388e-08
4.02152e-08
4.06705e-08
3.53796e-06
4.69284e-08
1.24488e-07
1.23539e-07
1.20141e-07
1.14532e-07
1.07878e-07
1.0119e-07
9.49557e-08
8.93885e-08
8.44745e-08
8.01918e-08
7.64347e-08
7.31615e-08
7.0269e-08
6.77363e-08
6.54749e-08
6.34819e-08
6.16825e-08
6.00883e-08
5.86333e-08
5.73396e-08
5.61458e-08
5.50816e-08
5.40897e-08
5.32038e-08
5.23694e-08
5.16239e-08
5.09151e-08
5.02831e-08
4.96744e-08
4.91339e-08
4.86084e-08
4.81434e-08
4.76851e-08
4.72821e-08
4.68806e-08
4.65304e-08
4.61766e-08
4.58708e-08
4.55579e-08
4.52898e-08
4.5011e-08
4.47751e-08
4.45251e-08
4.43166e-08
4.40933e-08
4.39089e-08
4.3707e-08
4.35433e-08
4.33621e-08
4.32166e-08
4.30508e-08
4.29235e-08
4.27736e-08
4.26607e-08
4.25223e-08
4.24213e-08
4.22997e-08
4.22076e-08
4.20964e-08
4.20166e-08
4.19091e-08
4.18401e-08
4.17415e-08
4.16788e-08
4.1588e-08
4.15313e-08
4.14457e-08
4.139e-08
4.13175e-08
4.12641e-08
4.11979e-08
4.11459e-08
4.1087e-08
4.1038e-08
4.09807e-08
4.09321e-08
4.0876e-08
4.08287e-08
4.07753e-08
4.07304e-08
4.06797e-08
4.06361e-08
4.05881e-08
4.05451e-08
4.04999e-08
4.04575e-08
4.04159e-08
4.03736e-08
4.03397e-08
4.0294e-08
4.02571e-08
4.021e-08
4.01862e-08
4.0652e-08
3.51288e-06
4.93836e-08
1.24481e-07
1.23543e-07
1.20191e-07
1.14635e-07
1.08022e-07
1.01359e-07
9.51355e-08
8.95692e-08
8.46504e-08
8.03597e-08
7.65929e-08
7.33093e-08
7.04063e-08
6.78635e-08
6.55924e-08
6.35902e-08
6.17822e-08
6.018e-08
5.87177e-08
5.7417e-08
5.62168e-08
5.51467e-08
5.41494e-08
5.32584e-08
5.24192e-08
5.16693e-08
5.09564e-08
5.03206e-08
4.97083e-08
4.91645e-08
4.86359e-08
4.81679e-08
4.77069e-08
4.73014e-08
4.68974e-08
4.65449e-08
4.61889e-08
4.58812e-08
4.55662e-08
4.52963e-08
4.50158e-08
4.47783e-08
4.45267e-08
4.43168e-08
4.4092e-08
4.39064e-08
4.37032e-08
4.35383e-08
4.33558e-08
4.32093e-08
4.30424e-08
4.29142e-08
4.27632e-08
4.26495e-08
4.25101e-08
4.24083e-08
4.22858e-08
4.2193e-08
4.20808e-08
4.20006e-08
4.18923e-08
4.18227e-08
4.17234e-08
4.16601e-08
4.15687e-08
4.15116e-08
4.14256e-08
4.13694e-08
4.12963e-08
4.12427e-08
4.11759e-08
4.11238e-08
4.10642e-08
4.1015e-08
4.09574e-08
4.09085e-08
4.08519e-08
4.08044e-08
4.07505e-08
4.07053e-08
4.06541e-08
4.06103e-08
4.05617e-08
4.05185e-08
4.04728e-08
4.04301e-08
4.03881e-08
4.03455e-08
4.03111e-08
4.02652e-08
4.02271e-08
4.01798e-08
4.01557e-08
4.06325e-08
3.48343e-06
5.20604e-08
1.24473e-07
1.23547e-07
1.20242e-07
1.14742e-07
1.08174e-07
1.01537e-07
9.53247e-08
8.97598e-08
8.48363e-08
8.05373e-08
7.67604e-08
7.3466e-08
7.05521e-08
6.79985e-08
6.57173e-08
6.37055e-08
6.18884e-08
6.02778e-08
5.88076e-08
5.74996e-08
5.62927e-08
5.52163e-08
5.42131e-08
5.33168e-08
5.24726e-08
5.1718e-08
5.10007e-08
5.0361e-08
4.97448e-08
4.91975e-08
4.86655e-08
4.81945e-08
4.77305e-08
4.73223e-08
4.69157e-08
4.65609e-08
4.62025e-08
4.58927e-08
4.55756e-08
4.53038e-08
4.50214e-08
4.47823e-08
4.4529e-08
4.43175e-08
4.40911e-08
4.39042e-08
4.36996e-08
4.35336e-08
4.33497e-08
4.32022e-08
4.3034e-08
4.29048e-08
4.27526e-08
4.26381e-08
4.24977e-08
4.2395e-08
4.22715e-08
4.21781e-08
4.20649e-08
4.19841e-08
4.1875e-08
4.18047e-08
4.17047e-08
4.16408e-08
4.15487e-08
4.14911e-08
4.14046e-08
4.13479e-08
4.12743e-08
4.12204e-08
4.1153e-08
4.11009e-08
4.10406e-08
4.09912e-08
4.09331e-08
4.08839e-08
4.08269e-08
4.07791e-08
4.07246e-08
4.06792e-08
4.06274e-08
4.05834e-08
4.05342e-08
4.04908e-08
4.04446e-08
4.04016e-08
4.0359e-08
4.03162e-08
4.02812e-08
4.02351e-08
4.01958e-08
4.01483e-08
4.01239e-08
4.06116e-08
3.4489e-06
5.49628e-08
1.24465e-07
1.23551e-07
1.20295e-07
1.14854e-07
1.08332e-07
1.01723e-07
9.55236e-08
8.99606e-08
8.50324e-08
8.07249e-08
7.69376e-08
7.36318e-08
7.07066e-08
6.81418e-08
6.58498e-08
6.38278e-08
6.20013e-08
6.03818e-08
5.89033e-08
5.75877e-08
5.63736e-08
5.52906e-08
5.42812e-08
5.33792e-08
5.25296e-08
5.17702e-08
5.10483e-08
5.04043e-08
4.9784e-08
4.92331e-08
4.86975e-08
4.82233e-08
4.77561e-08
4.73451e-08
4.69357e-08
4.65784e-08
4.62175e-08
4.59054e-08
4.55861e-08
4.53124e-08
4.50279e-08
4.47871e-08
4.45319e-08
4.43189e-08
4.40908e-08
4.39025e-08
4.36963e-08
4.35291e-08