/*--------------------------------*- C++ -*----------------------------------*\
| =========                 |                                                 |
| \\      /  F ield         | OpenFOAM: The Open Source CFD Toolbox           |
|  \\    /   O peration     | Version:  v2012                                 |
|   \\  /    A nd           | Website:  www.openfoam.com                      |
|    \\/     M anipulation  |                                                 |
\*---------------------------------------------------------------------------*/
FoamFile
{
    version     2.0;
    format      ascii;
    class       volScalarField;
    location    "43";
    object      yPlus;
}
// * * * * * * * * * * * * * * * * * * * * * * * * * * * * * * * * * * * * * //

dimensions      [0 0 0 0 0 0 0];


internalField   uniform 0;

boundaryField
{
    inlet
    {
        type            calculated;
        value           uniform 0;
    }
    outlet
    {
        type            calculated;
        value           uniform 0;
    }
    topWall
    {
        type            calculated;
        value           nonuniform List<scalar> 
545
(
0.15105
0.260483
0.334174
0.392808
0.442442
0.485868
0.524652
0.559781
0.591928
0.621575
0.649084
0.674734
0.698749
0.721307
0.742559
0.76263
0.781625
0.799636
0.816742
0.833012
0.848509
0.863285
0.877391
0.890869
0.903759
0.916096
0.927915
0.939243
0.950109
0.960539
0.970554
0.980177
0.989428
0.998325
1.00689
1.01513
1.02306
1.03071
1.03807
1.04517
1.05202
1.05863
1.065
1.07116
1.0771
1.08283
1.08837
1.09373
1.0989
1.1039
1.10873
1.11341
1.11793
1.1223
1.12653
1.13063
1.13459
1.13843
1.14215
1.14574
1.14923
1.1526
1.15587
1.15904
1.16211
1.16509
1.16797
1.17077
1.17348
1.1761
1.17865
1.18113
1.18349
1.18578
1.18805
1.1903
1.19254
1.19475
1.19695
1.19913
1.20129
1.20344
1.20557
1.20768
1.20978
1.21185
1.21392
1.21596
1.21799
1.22
1.222
1.22398
1.22595
1.2279
1.22984
1.23176
1.23349
1.23504
1.23658
1.23813
1.23967
1.24122
1.24277
1.24431
1.24586
1.2474
1.24894
1.25049
1.25203
1.25357
1.25511
1.25665
1.25819
1.25973
1.26127
1.26281
1.26435
1.26589
1.26743
1.26896
1.2705
1.27203
1.27357
1.2751
1.27664
1.27817
1.2797
1.28123
1.28276
1.28429
1.28582
1.28735
1.28888
1.29041
1.29193
1.29346
1.29498
1.29651
1.29803
1.29955
1.30107
1.3026
1.30411
1.30563
1.30715
1.30867
1.31019
1.3117
1.31321
1.31473
1.31624
1.31775
1.31926
1.32077
1.32228
1.32379
1.32529
1.3268
1.3283
1.32981
1.33131
1.33281
1.33431
1.33581
1.33731
1.3388
1.3403
1.34179
1.34328
1.34477
1.34627
1.34775
1.34924
1.35073
1.35221
1.3537
1.35518
1.35666
1.35814
1.35962
1.36109
1.36257
1.36404
1.36552
1.36699
1.36846
1.36993
1.37139
1.37286
1.37432
1.37578
1.37724
1.3787
1.38016
1.38162
1.38307
1.38452
1.38597
1.38742
1.38887
1.39031
1.39176
1.3932
1.39464
1.39608
1.39752
1.39895
1.40038
1.40182
1.40324
1.40467
1.4061
1.40752
1.40894
1.41036
1.41178
1.4132
1.41461
1.41602
1.41743
1.41884
1.42024
1.42165
1.42305
1.42445
1.42584
1.42724
1.42863
1.43002
1.43141
1.4328
1.43418
1.43556
1.43694
1.43832
1.43969
1.44106
1.44243
1.4438
1.44516
1.44653
1.44789
1.44924
1.4506
1.45195
1.4533
1.45465
1.45599
1.45734
1.45867
1.46001
1.46135
1.46268
1.46401
1.46533
1.46665
1.46798
1.46929
1.47061
1.47192
1.47323
1.47454
1.47584
1.47714
1.47844
1.47973
1.48102
1.48231
1.4836
1.48481
1.48595
1.4871
1.48826
1.48942
1.4906
1.49178
1.49296
1.49416
1.49536
1.49657
1.49778
1.49901
1.50024
1.50148
1.50272
1.50398
1.50524
1.5065
1.50778
1.50906
1.51035
1.51164
1.51294
1.51425
1.51557
1.51689
1.51822
1.51955
1.52089
1.52224
1.52359
1.52495
1.52632
1.52769
1.52906
1.53045
1.53184
1.53323
1.53463
1.53603
1.53744
1.53886
1.54028
1.5417
1.54313
1.54456
1.546
1.54744
1.54889
1.55034
1.55179
1.55325
1.55471
1.55617
1.55764
1.55911
1.56058
1.56205
1.56353
1.56501
1.56648
1.56797
1.56945
1.57093
1.57241
1.5739
1.57538
1.57687
1.57835
1.57984
1.58132
1.5828
1.58428
1.58576
1.58724
1.58871
1.59018
1.59165
1.59312
1.59458
1.59604
1.59749
1.59894
1.60039
1.60183
1.60326
1.60469
1.60611
1.60753
1.60894
1.61034
1.61173
1.61311
1.61449
1.61585
1.61721
1.61856
1.6199
1.62122
1.62253
1.62384
1.62513
1.6264
1.62767
1.62892
1.63016
1.63138
1.63259
1.63378
1.63496
1.63612
1.63726
1.63838
1.63949
1.64058
1.64165
1.6427
1.64374
1.64475
1.64574
1.6467
1.64765
1.64858
1.64948
1.65036
1.65121
1.65204
1.65285
1.65363
1.65438
1.65511
1.65581
1.65649
1.65714
1.65775
1.65834
1.6589
1.65944
1.65994
1.66041
1.66085
1.66126
1.66163
1.66198
1.66229
1.66257
1.66282
1.66304
1.66321
1.66336
1.66347
1.66355
1.66359
1.66359
1.66356
1.6635
1.6634
1.66326
1.66308
1.66287
1.66262
1.66234
1.66202
1.66166
1.66126
1.66083
1.66036
1.65985
1.6593
1.65872
1.6581
1.65744
1.65675
1.65602
1.65525
1.65445
1.6536
1.65273
1.65181
1.65087
1.64977
1.64852
1.64724
1.64593
1.64459
1.64322
1.64183
1.64041
1.63897
1.63751
1.63603
1.63454
1.63303
1.63151
1.62997
1.62842
1.62686
1.6253
1.62373
1.62216
1.62057
1.61899
1.6174
1.61582
1.61424
1.61266
1.61107
1.6095
1.60792
1.60636
1.6048
1.60325
1.6017
1.60016
1.59863
1.59712
1.59561
1.59413
1.59264
1.59118
1.58972
1.58829
1.58687
1.58546
1.58407
1.5827
1.58135
1.58002
1.5787
1.5774
1.57612
1.57487
1.57364
1.57243
1.57123
1.57007
1.56892
1.5678
1.56671
1.56564
1.56459
1.56357
1.56257
1.5616
1.56066
1.55974
1.55885
1.55799
1.55716
1.55636
1.55558
1.55483
1.55411
1.55343
1.55277
1.55214
1.55154
1.55097
1.55044
1.54993
1.54946
1.54901
1.5486
1.54823
1.54788
1.54756
1.54728
1.54703
1.54681
1.54663
1.54648
1.54636
1.54627
1.54622
1.54618
)
;
    }
    bottomWall
    {
        type            calculated;
        value           nonuniform List<scalar> 
449
(
0.00273832
0.0048021
0.00537569
0.00532833
0.00525727
0.00516129
0.00506388
0.0049727
0.004889
0.00481252
0.00474254
0.00467839
0.00461934
0.00456468
0.00451388
0.00446656
0.00442228
0.00438075
0.00434162
0.00430468
0.00426971
0.00423655
0.00420501
0.00417496
0.00414628
0.00411886
0.0040926
0.0040674
0.0040432
0.00401992
0.0039975
0.00397588
0.00395501
0.00393484
0.00391533
0.00389644
0.00387813
0.00386038
0.00384313
0.00382639
0.0038101
0.00379425
0.00377882
0.0037638
0.00374915
0.00373487
0.00372094
0.00370736
0.00369408
0.00368113
0.00366847
0.0036561
0.00364399
0.00363215
0.00362055
0.0036092
0.00359807
0.00358716
0.00357646
0.00356596
0.00355566
0.00354555
0.00353561
0.00352585
0.00351626
0.00350683
0.00349756
0.00348843
0.00347946
0.00347063
0.00346194
0.00345338
0.00344495
0.00343665
0.00342847
0.00342041
0.00341247
0.00340464
0.00339692
0.0033893
0.00338179
0.00337439
0.00336708
0.00335987
0.00335275
0.00334572
0.00333878
0.00333193
0.00332517
0.00331849
0.00331188
0.00330536
0.00329892
0.00329255
0.00328625
0.00328003
0.00327388
0.0032678
0.00326178
0.00325583
0.00324995
0.00324413
0.00323837
0.00323267
0.00322703
0.00322145
0.00321592
0.00321046
0.00320504
0.00319968
0.00319437
0.00318912
0.00318391
0.00317876
0.00317365
0.00316859
0.00316358
0.00315862
0.00315369
0.00314882
0.00314398
0.0031392
0.00313445
0.00312974
0.00312508
0.00312045
0.00311586
0.00311132
0.00310681
0.00310234
0.0030979
0.00309351
0.00308914
0.00308481
0.00308052
0.00307626
0.00307203
0.00306784
0.00306368
0.00305955
0.00305545
0.00305139
0.00304735
0.00304335
0.00303937
0.00303542
0.0030315
0.00302761
0.00302375
0.00301991
0.00301611
0.00301233
0.00300857
0.00300484
0.00300114
0.00299746
0.00299381
0.00299018
0.00298658
0.002983
0.00297944
0.00297591
0.0029724
0.00296891
0.00296545
0.00296201
0.00295859
0.00295519
0.00295181
0.00294846
0.00294512
0.0029418
0.00293851
0.00293542
0.00293251
0.00292959
0.00292666
0.00292373
0.00292078
0.00291783
0.00291487
0.00291189
0.00290892
0.00290593
0.00290293
0.00289992
0.00289691
0.00289389
0.00289085
0.00288781
0.00288477
0.00288171
0.00287865
0.00287557
0.00287249
0.00286941
0.00286631
0.00286321
0.0028601
0.00285698
0.00285385
0.00285072
0.00284758
0.00284443
0.00284128
0.00283812
0.00283495
0.00283177
0.00282859
0.0028254
0.00282221
0.00281901
0.0028158
0.00281259
0.00280937
0.00280614
0.00280291
0.00279967
0.00279643
0.00279318
0.00278993
0.00278667
0.00278341
0.00278013
0.00277686
0.00277358
0.0027703
0.00276701
0.00276372
0.00276041
0.00275711
0.0027538
0.0027505
0.00274718
0.00274386
0.00274053
0.00273721
0.00273387
0.00273055
0.0027272
0.00272387
0.00272052
0.00271717
0.00271382
0.00271047
0.00270711
0.00270375
0.00270038
0.00269702
0.00269365
0.00269029
0.00268691
0.00268354
0.00268016
0.00267678
0.0026734
0.00267002
0.00266663
0.00266325
0.00265986
0.00265647
0.00265309
0.00264969
0.0026463
0.00264291
0.00263952
0.00263612
0.00263273
0.00262933
0.00262594
0.00262254
0.00261915
0.00261574
0.00261235
0.00260895
0.00260556
0.00260216
0.00259877
0.00259536
0.00259198
0.00258857
0.00258519
0.00258179
0.0025784
0.002575
0.00257162
0.00256822
0.00256484
0.00256145
0.00255807
0.00255467
0.0025513
0.00254791
0.00254454
0.00254115
0.00253779
0.0025344
0.00253104
0.00252766
0.0025243
0.00252093
0.00251757
0.0025142
0.00251085
0.00250749
0.00250414
0.00250079
0.00249744
0.0024941
0.00249076
0.00248742
0.00248408
0.00248075
0.00247742
0.0024741
0.00247078
0.00246746
0.00246415
0.00246084
0.00245753
0.00245423
0.00245092
0.00244763
0.00244433
0.00244105
0.00243776
0.00243449
0.00243121
0.00242794
0.00242467
0.00242142
0.00241815
0.00241491
0.00241165
0.00240842
0.00240517
0.00240194
0.0023987
0.00239549
0.00239226
0.00238905
0.00238584
0.00238264
0.00237943
0.00237624
0.00237305
0.00236987
0.00236669
0.00236352
0.00236034
0.00235719
0.00235403
0.00235088
0.00234773
0.00234425
0.00234045
0.00233672
0.00233303
0.00232941
0.00232583
0.00232231
0.00231882
0.0023154
0.00231202
0.00230869
0.00230539
0.00230216
0.00229895
0.0022958
0.00229267
0.0022896
0.00228656
0.00228357
0.0022806
0.00227768
0.00227479
0.00227194
0.00226912
0.00226634
0.00226359
0.00226087
0.00225818
0.00225553
0.00225291
0.00225032
0.00224775
0.00224522
0.0022427
0.00224023
0.00223777
0.00223535
0.00223294
0.00223057
0.00222822
0.0022259
0.0022236
0.00222133
0.00221907
0.00221684
0.00221463
0.00221245
0.00221028
0.00220815
0.00220602
0.00220393
0.00220184
0.00219978
0.00219774
0.00219572
0.00219371
0.00219173
0.00218976
0.00218782
0.00218588
0.00218397
0.00218207
0.00218019
0.00217832
0.00217648
0.00217464
0.00217284
0.00217103
0.00216925
0.00216747
0.00216573
0.00216397
0.00216226
0.00216053
0.00215885
0.00215714
0.00215549
0.0021538
0.00215219
0.00215051
0.00214893
0.00214727
0.00214571
0.00214407
0.00214254
0.00214091
0.0021394
0.00213781
0.00213628
0.00213478
0.0021331
0.00213192
0.00212973
0.00212944
0.00212642
)
;
    }
    symmetry
    {
        type            symmetryPlane;
    }
    frontAndBack
    {
        type            empty;
    }
}


// ************************************************************************* //
