/*--------------------------------*- C++ -*----------------------------------*\
| =========                 |                                                 |
| \\      /  F ield         | OpenFOAM: The Open Source CFD Toolbox           |
|  \\    /   O peration     | Version:  v2012                                 |
|   \\  /    A nd           | Website:  www.openfoam.com                      |
|    \\/     M anipulation  |                                                 |
\*---------------------------------------------------------------------------*/
FoamFile
{
    version     2.0;
    format      ascii;
    class       volScalarField;
    location    "25.5";
    object      k;
}
// * * * * * * * * * * * * * * * * * * * * * * * * * * * * * * * * * * * * * //

dimensions      [0 2 -2 0 0 0 0];


internalField   nonuniform List<scalar> 
209825
(
0.00102169
0.000930458
0.000866683
0.000823134
0.000792749
0.000770783
0.000754346
0.000741682
0.000731695
0.000723662
0.000717102
0.000711667
0.000707116
0.000703264
0.000699976
0.000697149
0.0006947
0.000692566
0.000690689
0.000689045
0.000687583
0.000686292
0.000685127
0.000684099
0.000683166
0.000682334
0.000681565
0.000680891
0.000680261
0.00067971
0.00067918
0.000678729
0.000678298
0.000677915
0.00067754
0.000677228
0.000676925
0.000676669
0.000676404
0.000676198
0.000675986
0.000675807
0.000675612
0.000675485
0.000675325
0.000675182
0.000675054
0.000674964
0.000674877
0.000674823
0.000674733
0.000674659
0.000674603
0.000674563
0.000674481
0.000674442
0.000674413
0.000674333
0.000674355
0.000674355
0.000674342
0.000674416
0.000674427
0.000674527
0.000674605
0.000674741
0.000674828
0.000674986
0.000675056
0.000675182
0.000675245
0.000675398
0.0006755
0.000675681
0.000675777
0.000675976
0.000676078
0.000676292
0.000676403
0.000676642
0.000676773
0.000677043
0.000677184
0.00067748
0.00067764
0.000677977
0.000678164
0.000678562
0.000678777
0.000679271
0.000679491
0.000680235
0.000680502
0.00069112
0.000732756
0.00186548
0.00102169
0.000930458
0.000866681
0.000823129
0.00079274
0.000770772
0.000754334
0.000741668
0.00073168
0.000723646
0.000717085
0.000711649
0.000707098
0.000703245
0.000699957
0.000697129
0.000694679
0.000692545
0.000690668
0.000689024
0.000687562
0.000686271
0.000685105
0.000684077
0.000683143
0.000682312
0.000681543
0.000680868
0.000680238
0.000679688
0.000679157
0.000678706
0.000678275
0.000677892
0.000677517
0.000677205
0.000676902
0.000676646
0.000676381
0.000676174
0.000675963
0.000675783
0.000675588
0.000675461
0.000675301
0.000675158
0.00067503
0.00067494
0.000674853
0.000674799
0.000674709
0.000674635
0.000674579
0.000674539
0.000674457
0.000674418
0.000674389
0.000674309
0.000674331
0.000674331
0.000674318
0.000674391
0.000674403
0.000674503
0.000674581
0.000674717
0.000674804
0.000674962
0.000675031
0.000675158
0.00067522
0.000675373
0.000675476
0.000675657
0.000675753
0.000675951
0.000676054
0.000676267
0.000676379
0.000676617
0.000676749
0.000677018
0.00067716
0.000677455
0.000677616
0.000677953
0.000678139
0.000678537
0.000678752
0.000679246
0.000679466
0.00068021
0.000680477
0.000691115
0.000732742
0.00186658
0.00102169
0.000930456
0.000866668
0.000823103
0.000792704
0.000770727
0.000754281
0.00074161
0.000731617
0.000723579
0.000717015
0.000711576
0.000707022
0.000703168
0.000699877
0.000697048
0.000694597
0.000692461
0.000690584
0.000688938
0.000687475
0.000686183
0.000685017
0.000683989
0.000683054
0.000682222
0.000681453
0.000680778
0.000680147
0.000679597
0.000679065
0.000678615
0.000678183
0.0006778
0.000677425
0.000677112
0.000676809
0.000676552
0.000676287
0.000676081
0.000675869
0.000675689
0.000675494
0.000675367
0.000675207
0.000675064
0.000674936
0.000674845
0.000674758
0.000674704
0.000674614
0.00067454
0.000674484
0.000674444
0.000674362
0.000674323
0.000674293
0.000674214
0.000674236
0.000674236
0.000674222
0.000674296
0.000674307
0.000674407
0.000674485
0.000674621
0.000674707
0.000674866
0.000674935
0.000675061
0.000675124
0.000675277
0.000675379
0.00067556
0.000675656
0.000675854
0.000675957
0.000676171
0.000676282
0.00067652
0.000676651
0.000676921
0.000677063
0.000677358
0.000677518
0.000677855
0.000678041
0.00067844
0.000678654
0.000679148
0.000679367
0.000680112
0.000680378
0.000691058
0.000732662
0.00186877
0.0010217
0.000930453
0.000866645
0.00082306
0.000792643
0.000770651
0.000754193
0.000741512
0.000731511
0.000723466
0.000716896
0.000711453
0.000706895
0.000703037
0.000699744
0.000696913
0.000694459
0.000692321
0.000690442
0.000688795
0.00068733
0.000686037
0.00068487
0.000683841
0.000682905
0.000682072
0.000681302
0.000680626
0.000679995
0.000679444
0.000678912
0.000678461
0.000678029
0.000677645
0.000677269
0.000676957
0.000676653
0.000676396
0.000676131
0.000675924
0.000675712
0.000675532
0.000675337
0.000675209
0.000675049
0.000674905
0.000674778
0.000674687
0.000674599
0.000674545
0.000674455
0.000674381
0.000674324
0.000674284
0.000674202
0.000674163
0.000674134
0.000674054
0.000674076
0.000674076
0.000674062
0.000674135
0.000674146
0.000674246
0.000674324
0.00067446
0.000674546
0.000674704
0.000674773
0.0006749
0.000674962
0.000675115
0.000675217
0.000675398
0.000675494
0.000675692
0.000675795
0.000676008
0.000676119
0.000676357
0.000676489
0.000676758
0.000676899
0.000677194
0.000677355
0.000677692
0.000677878
0.000678275
0.00067849
0.000678983
0.000679203
0.000679947
0.000680212
0.000690956
0.000732524
0.00187132
0.0010217
0.000930447
0.000866613
0.000822999
0.000792556
0.000770543
0.000754068
0.000741373
0.000731361
0.000723307
0.00071673
0.00071128
0.000706716
0.000702854
0.000699556
0.000696721
0.000694264
0.000692124
0.000690242
0.000688593
0.000687126
0.000685831
0.000684663
0.000683632
0.000682695
0.000681861
0.000681089
0.000680412
0.00067978
0.000679228
0.000678696
0.000678244
0.000677811
0.000677427
0.00067705
0.000676737
0.000676433
0.000676176
0.00067591
0.000675703
0.00067549
0.00067531
0.000675114
0.000674986
0.000674826
0.000674682
0.000674554
0.000674463
0.000674375
0.000674321
0.000674231
0.000674157
0.000674099
0.00067406
0.000673977
0.000673938
0.000673908
0.000673829
0.00067385
0.00067385
0.000673836
0.000673909
0.00067392
0.00067402
0.000674097
0.000674232
0.000674319
0.000674477
0.000674545
0.000674672
0.000674734
0.000674887
0.000674989
0.00067517
0.000675265
0.000675463
0.000675566
0.000675779
0.00067589
0.000676128
0.000676259
0.000676528
0.000676669
0.000676964
0.000677124
0.000677461
0.000677646
0.000678044
0.000678258
0.000678751
0.00067897
0.000679714
0.000679979
0.000690812
0.000732328
0.0018742
0.00102171
0.000930441
0.000866572
0.000822919
0.000792443
0.000770403
0.000753906
0.000741193
0.000731167
0.000723101
0.000716513
0.000711055
0.000706484
0.000702616
0.000699313
0.000696473
0.000694012
0.000691868
0.000689983
0.00068833
0.000686862
0.000685564
0.000684393
0.000683361
0.000682422
0.000681586
0.000680814
0.000680135
0.000679502
0.000678949
0.000678415
0.000677963
0.000677529
0.000677144
0.000676767
0.000676453
0.000676148
0.00067589
0.000675624
0.000675416
0.000675203
0.000675022
0.000674826
0.000674698
0.000674537
0.000674393
0.000674265
0.000674173
0.000674085
0.00067403
0.00067394
0.000673866
0.000673808
0.000673768
0.000673686
0.000673646
0.000673617
0.000673537
0.000673557
0.000673557
0.000673542
0.000673615
0.000673626
0.000673725
0.000673802
0.000673937
0.000674024
0.000674182
0.00067425
0.000674377
0.000674438
0.000674591
0.000674693
0.000674873
0.000674969
0.000675166
0.000675269
0.000675482
0.000675593
0.00067583
0.000675961
0.00067623
0.000676371
0.000676666
0.000676825
0.000677161
0.000677347
0.000677744
0.000677957
0.00067845
0.000678668
0.000679412
0.000679676
0.000690624
0.000732075
0.00187735
0.00102172
0.000930433
0.000866521
0.000822822
0.000792305
0.000770231
0.000753707
0.000740972
0.000730928
0.000722847
0.000716247
0.000710778
0.000706198
0.000702322
0.000699012
0.000696167
0.000693701
0.000691552
0.000689663
0.000688007
0.000686535
0.000685235
0.000684062
0.000683027
0.000682086
0.000681248
0.000680474
0.000679794
0.000679159
0.000678605
0.00067807
0.000677616
0.000677181
0.000676795
0.000676417
0.000676102
0.000675796
0.000675538
0.000675271
0.000675062
0.000674849
0.000674668
0.000674471
0.000674342
0.000674181
0.000674037
0.000673908
0.000673815
0.000673727
0.000673672
0.000673582
0.000673507
0.000673449
0.000673409
0.000673326
0.000673286
0.000673257
0.000673177
0.000673196
0.000673196
0.000673181
0.000673253
0.000673263
0.000673363
0.000673439
0.000673574
0.00067366
0.000673818
0.000673886
0.000674012
0.000674074
0.000674226
0.000674327
0.000674508
0.000674603
0.0006748
0.000674903
0.000675115
0.000675226
0.000675463
0.000675594
0.000675862
0.000676003
0.000676297
0.000676457
0.000676792
0.000676978
0.000677374
0.000677587
0.000678079
0.000678296
0.00067904
0.000679303
0.000690393
0.000731763
0.00188062
0.00102173
0.000930423
0.000866461
0.000822706
0.00079214
0.000770026
0.000753469
0.000740709
0.000730643
0.000722545
0.00071593
0.000710448
0.000705858
0.000701972
0.000698655
0.000695802
0.00069333
0.000691176
0.000689282
0.000687622
0.000686146
0.000684843
0.000683666
0.000682628
0.000681685
0.000680845
0.000680068
0.000679387
0.00067875
0.000678194
0.000677658
0.000677202
0.000676766
0.000676379
0.000676
0.000675684
0.000675377
0.000675118
0.00067485
0.000674641
0.000674426
0.000674245
0.000674047
0.000673918
0.000673756
0.000673611
0.000673482
0.000673389
0.0006733
0.000673245
0.000673154
0.000673079
0.000673021
0.00067298
0.000672898
0.000672857
0.000672827
0.000672747
0.000672766
0.000672766
0.00067275
0.000672822
0.000672831
0.00067293
0.000673006
0.00067314
0.000673226
0.000673384
0.000673452
0.000673578
0.000673639
0.000673791
0.000673892
0.000674072
0.000674167
0.000674364
0.000674466
0.000674678
0.000674789
0.000675026
0.000675156
0.000675424
0.000675565
0.000675858
0.000676017
0.000676352
0.000676537
0.000676932
0.000677145
0.000677636
0.000677853
0.000678596
0.000678858
0.00069012
0.000731393
0.00188379
0.00102174
0.000930412
0.000866392
0.000822572
0.000791949
0.000769788
0.000753194
0.000740402
0.000730312
0.000722193
0.00071556
0.000710064
0.000705462
0.000701565
0.000698238
0.000695378
0.000692898
0.000690738
0.000688839
0.000687174
0.000685693
0.000684386
0.000683206
0.000682165
0.000681218
0.000680376
0.000679597
0.000678913
0.000678274
0.000677716
0.000677178
0.000676721
0.000676283
0.000675895
0.000675514
0.000675197
0.000674889
0.000674629
0.00067436
0.00067415
0.000673934
0.000673752
0.000673554
0.000673423
0.000673261
0.000673116
0.000672986
0.000672893
0.000672803
0.000672747
0.000672656
0.000672581
0.000672522
0.000672481
0.000672398
0.000672357
0.000672327
0.000672247
0.000672264
0.000672264
0.000672248
0.000672319
0.000672328
0.000672426
0.000672502
0.000672635
0.000672721
0.000672878
0.000672946
0.000673072
0.000673132
0.000673284
0.000673385
0.000673565
0.00067366
0.000673856
0.000673958
0.000674169
0.00067428
0.000674516
0.000674646
0.000674913
0.000675054
0.000675347
0.000675506
0.00067584
0.000676024
0.000676418
0.00067663
0.00067712
0.000677336
0.000678079
0.000678339
0.000689804
0.000730964
0.00188653
0.00102175
0.0009304
0.000866313
0.00082242
0.000791731
0.000769516
0.000752879
0.000740053
0.000729934
0.000721791
0.000715139
0.000709626
0.000705009
0.0007011
0.000697762
0.000694892
0.000692405
0.000690237
0.000688332
0.000686661
0.000685175
0.000683863
0.000682679
0.000681634
0.000680684
0.000679839
0.000679057
0.00067837
0.000677729
0.000677169
0.000676629
0.00067617
0.000675731
0.000675341
0.000674959
0.00067464
0.000674331
0.000674069
0.000673799
0.000673588
0.000673372
0.000673188
0.000672989
0.000672858
0.000672695
0.00067255
0.000672418
0.000672324
0.000672234
0.000672177
0.000672086
0.000672011
0.000671951
0.00067191
0.000671827
0.000671786
0.000671755
0.000671674
0.000671691
0.000671691
0.000671673
0.000671744
0.000671752
0.00067185
0.000671924
0.000672058
0.000672143
0.0006723
0.000672367
0.000672493
0.000672553
0.000672704
0.000672804
0.000672984
0.000673078
0.000673274
0.000673376
0.000673587
0.000673697
0.000673932
0.000674062
0.000674329
0.000674469
0.000674761
0.00067492
0.000675253
0.000675437
0.00067583
0.000676042
0.00067653
0.000676745
0.000677488
0.000677746
0.000689447
0.000730476
0.00188834
0.00102177
0.000930387
0.000866225
0.000822249
0.000791487
0.000769211
0.000752525
0.000739659
0.000729508
0.000721338
0.000714663
0.000709131
0.000704498
0.000700575
0.000697226
0.000694345
0.000691848
0.000689673
0.00068776
0.000686082
0.000684591
0.000683274
0.000682085
0.000681036
0.000680082
0.000679233
0.000678448
0.000677758
0.000677114
0.000676552
0.00067601
0.000675548
0.000675107
0.000674715
0.000674332
0.000674012
0.000673701
0.000673438
0.000673167
0.000672954
0.000672737
0.000672553
0.000672353
0.00067222
0.000672057
0.00067191
0.000671778
0.000671683
0.000671592
0.000671535
0.000671443
0.000671367
0.000671307
0.000671266
0.000671183
0.00067114
0.00067111
0.000671028
0.000671044
0.000671043
0.000671025
0.000671094
0.000671102
0.0006712
0.000671273
0.000671406
0.000671491
0.000671648
0.000671714
0.000671839
0.000671899
0.000672049
0.000672149
0.000672329
0.000672423
0.000672618
0.000672719
0.00067293
0.00067304
0.000673274
0.000673404
0.000673669
0.000673809
0.000674101
0.000674259
0.000674591
0.000674774
0.000675166
0.000675377
0.000675864
0.000676078
0.00067682
0.000677078
0.000689047
0.000729928
0.00188856
0.00102179
0.000930372
0.000866128
0.000822059
0.000791215
0.000768872
0.000752132
0.000739221
0.000729033
0.000720833
0.000714134
0.00070858
0.000703929
0.000699991
0.000696628
0.000693735
0.000691228
0.000689043
0.000687122
0.000685438
0.00068394
0.000682617
0.000681423
0.000680369
0.000679411
0.000678558
0.000677769
0.000677076
0.000676429
0.000675864
0.000675319
0.000674855
0.000674412
0.000674018
0.000673633
0.000673311
0.000672998
0.000672734
0.000672461
0.000672247
0.000672028
0.000671843
0.000671642
0.000671508
0.000671344
0.000671197
0.000671064
0.000670968
0.000670876
0.000670818
0.000670726
0.000670649
0.000670588
0.000670547
0.000670463
0.00067042
0.000670389
0.000670308
0.000670322
0.000670321
0.000670302
0.00067037
0.000670377
0.000670474
0.000670547
0.000670678
0.000670763
0.00067092
0.000670985
0.00067111
0.000671169
0.000671319
0.000671418
0.000671597
0.000671691
0.000671885
0.000671987
0.000672197
0.000672306
0.00067254
0.000672669
0.000672933
0.000673073
0.000673364
0.000673521
0.000673852
0.000674035
0.000674426
0.000674636
0.000675121
0.000675334
0.000676076
0.000676331
0.000688606
0.000729319
0.00188652
0.00102181
0.000930357
0.000866022
0.000821851
0.000790916
0.000768499
0.000751698
0.000738738
0.00072851
0.000720277
0.000713549
0.000707972
0.000703301
0.000699345
0.000695967
0.000693061
0.000690543
0.000688348
0.000686418
0.000684725
0.00068322
0.00068189
0.00068069
0.000679631
0.000678668
0.000677811
0.000677018
0.000676322
0.000675671
0.000675103
0.000674555
0.000674089
0.000673643
0.000673247
0.00067286
0.000672536
0.000672221
0.000671955
0.000671681
0.000671465
0.000671245
0.000671059
0.000670856
0.000670721
0.000670556
0.000670408
0.000670274
0.000670177
0.000670084
0.000670025
0.000669933
0.000669856
0.000669793
0.000669752
0.000669668
0.000669624
0.000669593
0.000669511
0.000669524
0.000669523
0.000669503
0.000669569
0.000669575
0.000669672
0.000669743
0.000669874
0.000669959
0.000670114
0.000670179
0.000670304
0.000670363
0.000670511
0.00067061
0.000670789
0.000670882
0.000671076
0.000671177
0.000671386
0.000671495
0.000671728
0.000671856
0.00067212
0.000672259
0.000672549
0.000672706
0.000673036
0.000673218
0.000673607
0.000673816
0.0006743
0.000674511
0.000675252
0.000675507
0.000688122
0.00072865
0.00188221
0.00102183
0.00093034
0.000865906
0.000821624
0.00079059
0.00076809
0.000751223
0.000738209
0.000727937
0.000719667
0.000712909
0.000707306
0.000702612
0.000698637
0.000695243
0.000692323
0.000689791
0.000687585
0.000685645
0.000683944
0.000682431
0.000681094
0.000679887
0.000678822
0.000677854
0.000676992
0.000676195
0.000675494
0.00067484
0.000674268
0.000673717
0.000673248
0.0006728
0.000672401
0.000672011
0.000671685
0.000671369
0.000671101
0.000670825
0.000670607
0.000670386
0.000670198
0.000669994
0.000669858
0.000669692
0.000669543
0.000669408
0.00066931
0.000669215
0.000669155
0.000669062
0.000668985
0.000668921
0.000668879
0.000668795
0.000668751
0.000668719
0.000668637
0.000668648
0.000668647
0.000668625
0.00066869
0.000668695
0.000668791
0.000668861
0.000668991
0.000669076
0.000669231
0.000669294
0.000669419
0.000669477
0.000669625
0.000669723
0.000669901
0.000669994
0.000670187
0.000670288
0.000670496
0.000670605
0.000670836
0.000670964
0.000671227
0.000671366
0.000671654
0.000671811
0.000672139
0.00067232
0.000672708
0.000672916
0.000673398
0.000673608
0.000674349
0.000674602
0.000687596
0.000727918
0.00187567
0.00102185
0.000930323
0.000865781
0.000821378
0.000790237
0.000767647
0.000750708
0.000737635
0.000727314
0.000719004
0.000712212
0.000706581
0.000701863
0.000697867
0.000694454
0.000691518
0.000688973
0.000686755
0.000684804
0.000683092
0.000681571
0.000680226
0.000679013
0.000677941
0.000676967
0.0006761
0.000675298
0.000674593
0.000673934
0.000673359
0.000672805
0.000672332
0.00067188
0.00067148
0.000671087
0.000670759
0.00067044
0.00067017
0.000669892
0.000669673
0.000669449
0.00066926
0.000669055
0.000668917
0.00066875
0.0006686
0.000668463
0.000668364
0.000668268
0.000668207
0.000668114
0.000668035
0.000667971
0.000667928
0.000667844
0.000667799
0.000667767
0.000667684
0.000667693
0.000667692
0.000667669
0.000667732
0.000667736
0.000667831
0.0006679
0.000668029
0.000668113
0.000668268
0.00066833
0.000668454
0.000668512
0.000668659
0.000668757
0.000668934
0.000669026
0.000669218
0.000669318
0.000669526
0.000669634
0.000669865
0.000669992
0.000670254
0.000670392
0.000670679
0.000670835
0.000671162
0.000671343
0.000671728
0.000671935
0.000672416
0.000672623
0.000673364
0.000673616
0.000687026
0.000727122
0.00186694
0.00102187
0.000930305
0.000865648
0.000821114
0.000789856
0.000767169
0.000750151
0.000737014
0.000726641
0.000718287
0.000711459
0.000705796
0.000701052
0.000697033
0.000693601
0.000690647
0.000688087
0.000685855
0.000683892
0.00068217
0.000680639
0.000679286
0.000678065
0.000676986
0.000676006
0.000675133
0.000674326
0.000673616
0.000672953
0.000672373
0.000671815
0.000671339
0.000670884
0.000670481
0.000670085
0.000669754
0.000669433
0.000669161
0.00066888
0.000668659
0.000668434
0.000668243
0.000668036
0.000667897
0.000667728
0.000667578
0.000667439
0.000667339
0.000667241
0.00066718
0.000667085
0.000667006
0.000666941
0.000666898
0.000666813
0.000666767
0.000666734
0.000666651
0.000666659
0.000666656
0.000666632
0.000666694
0.000666697
0.000666791
0.000666858
0.000666986
0.00066707
0.000667224
0.000667285
0.000667409
0.000667465
0.000667611
0.000667709
0.000667885
0.000667977
0.000668168
0.000668268
0.000668474
0.000668582
0.000668811
0.000668938
0.000669198
0.000669336
0.000669622
0.000669777
0.000670103
0.000670282
0.000670666
0.000670872
0.00067135
0.000671556
0.000672296
0.000672547
0.000686413
0.000726261
0.00185606
0.0010219
0.000930286
0.000865506
0.000820831
0.000789447
0.000766656
0.000749553
0.000736346
0.000725917
0.000717515
0.000710647
0.000704951
0.000700178
0.000696135
0.000692681
0.000689709
0.000687132
0.000684886
0.00068291
0.000681176
0.000679635
0.000678273
0.000677043
0.000675957
0.000674969
0.00067409
0.000673277
0.000672562
0.000671894
0.000671311
0.000670748
0.000670268
0.00066981
0.000669403
0.000669005
0.000668671
0.000668346
0.000668072
0.00066779
0.000667566
0.000667339
0.000667147
0.000666938
0.000666796
0.000666627
0.000666475
0.000666335
0.000666233
0.000666134
0.000666071
0.000665976
0.000665896
0.000665829
0.000665785
0.0006657
0.000665653
0.00066562
0.000665537
0.000665542
0.000665539
0.000665514
0.000665573
0.000665575
0.000665669
0.000665734
0.00066586
0.000665944
0.000666097
0.000666157
0.00066628
0.000666336
0.000666481
0.000666578
0.000666754
0.000666845
0.000667035
0.000667134
0.000667339
0.000667447
0.000667675
0.000667801
0.00066806
0.000668197
0.000668482
0.000668636
0.00066896
0.000669138
0.00066952
0.000669725
0.000670201
0.000670404
0.000671144
0.000671395
0.000685756
0.000725333
0.00184308
0.00102192
0.000930266
0.000865355
0.000820531
0.000789011
0.000766108
0.000748913
0.000735632
0.000725141
0.000716688
0.000709778
0.000704045
0.000699241
0.000695171
0.000691694
0.000688702
0.000686107
0.000683845
0.000681855
0.00068011
0.000678557
0.000677185
0.000675946
0.000674852
0.000673857
0.000672971
0.000672152
0.000671431
0.000670758
0.000670169
0.000669603
0.000669118
0.000668656
0.000668246
0.000667845
0.000667507
0.00066718
0.000666903
0.000666618
0.000666392
0.000666162
0.000665969
0.000665758
0.000665614
0.000665443
0.00066529
0.000665148
0.000665045
0.000664944
0.00066488
0.000664784
0.000664703
0.000664635
0.000664591
0.000664505
0.000664457
0.000664423
0.00066434
0.000664344
0.00066434
0.000664312
0.000664369
0.000664371
0.000664463
0.000664526
0.000664652
0.000664735
0.000664887
0.000664945
0.000665068
0.000665124
0.000665267
0.000665363
0.000665538
0.000665629
0.000665817
0.000665916
0.00066612
0.000666227
0.000666454
0.000666579
0.000666837
0.000666973
0.000667256
0.00066741
0.000667732
0.000667909
0.000668289
0.000668492
0.000668966
0.000669167
0.000669907
0.000670157
0.000685052
0.000724336
0.00182808
0.00102195
0.000930246
0.000865196
0.000820212
0.000788548
0.000765524
0.000748231
0.00073487
0.000724313
0.000715806
0.000708849
0.000703078
0.000698241
0.000694142
0.00069064
0.000687626
0.000685012
0.000682733
0.000680728
0.000678969
0.000677404
0.000676021
0.000674773
0.00067367
0.000672667
0.000671774
0.000670948
0.000670221
0.000669542
0.000668948
0.000668377
0.000667888
0.000667422
0.000667008
0.000666603
0.000666263
0.000665932
0.000665653
0.000665365
0.000665136
0.000664904
0.000664708
0.000664495
0.00066435
0.000664177
0.000664023
0.000663879
0.000663774
0.000663671
0.000663606
0.000663509
0.000663427
0.000663357
0.000663312
0.000663227
0.000663177
0.000663142
0.00066306
0.000663061
0.000663056
0.000663027
0.000663081
0.000663082
0.000663173
0.000663234
0.000663358
0.000663441
0.000663592
0.000663649
0.000663771
0.000663826
0.000663968
0.000664063
0.000664237
0.000664327
0.000664514
0.000664612
0.000664816
0.000664922
0.000665147
0.000665271
0.000665528
0.000665663
0.000665945
0.000666098
0.000666418
0.000666594
0.000666972
0.000667173
0.000667645
0.000667844
0.000668583
0.000668833
0.000684301
0.000723267
0.00181113
0.00102198
0.000930226
0.000865029
0.000819875
0.000788058
0.000764905
0.000747507
0.00073406
0.000723433
0.000714867
0.000707861
0.000702048
0.000697175
0.000693046
0.000689517
0.000686479
0.000683845
0.000681548
0.000679527
0.000677754
0.000676176
0.000674781
0.000673523
0.00067241
0.000671398
0.000670497
0.000669664
0.000668931
0.000668246
0.000667647
0.00066707
0.000666577
0.000666106
0.000665688
0.00066528
0.000664936
0.000664602
0.000664319
0.000664028
0.000663797
0.000663562
0.000663364
0.000663149
0.000663001
0.000662827
0.000662671
0.000662525
0.000662419
0.000662314
0.000662247
0.000662149
0.000662066
0.000661995
0.000661949
0.000661863
0.000661811
0.000661776
0.000661694
0.000661693
0.000661687
0.000661655
0.000661707
0.000661707
0.000661796
0.000661856
0.000661978
0.00066206
0.000662211
0.000662266
0.000662388
0.000662441
0.000662582
0.000662676
0.00066285
0.000662939
0.000663125
0.000663222
0.000663424
0.00066353
0.000663753
0.000663877
0.000664131
0.000664266
0.000664546
0.000664698
0.000665016
0.000665191
0.000665566
0.000665767
0.000666235
0.000666432
0.00066717
0.000667421
0.0006835
0.000722122
0.0017923
0.00102201
0.000930206
0.000864854
0.00081952
0.00078754
0.000764251
0.000746742
0.000733203
0.0007225
0.000713872
0.000706814
0.000700956
0.000696045
0.000691882
0.000688325
0.000685262
0.000682606
0.00068029
0.000678252
0.000676463
0.000674871
0.000673464
0.000672194
0.000671071
0.000670051
0.000669141
0.000668301
0.00066756
0.000666869
0.000666264
0.000665682
0.000665183
0.000664707
0.000664286
0.000663873
0.000663525
0.000663187
0.000662901
0.000662608
0.000662373
0.000662136
0.000661936
0.000661718
0.000661567
0.000661392
0.000661234
0.000661086
0.000660978
0.000660871
0.000660802
0.000660703
0.000660619
0.000660546
0.000660499
0.000660412
0.00066036
0.000660324
0.000660242
0.000660238
0.000660231
0.000660198
0.000660246
0.000660245
0.000660333
0.00066039
0.000660511
0.000660593
0.000660742
0.000660795
0.000660916
0.000660969
0.000661109
0.000661202
0.000661374
0.000661462
0.000661647
0.000661744
0.000661945
0.000662049
0.000662271
0.000662394
0.000662647
0.000662781
0.000663059
0.00066321
0.000663526
0.0006637
0.000664072
0.000664271
0.000664737
0.00066493
0.000665668
0.00066592
0.000682649
0.000720898
0.00177168
0.00102205
0.000930185
0.000864671
0.000819149
0.000786996
0.000763562
0.000745934
0.000732298
0.000721515
0.00071282
0.000705706
0.0006998
0.000694849
0.000690651
0.000687063
0.000683974
0.000681294
0.000678957
0.000676901
0.000675095
0.000673489
0.000672069
0.000670787
0.000669653
0.000668623
0.000667704
0.000666856
0.000666108
0.000665409
0.000664798
0.00066421
0.000663706
0.000663225
0.000662799
0.000662382
0.00066203
0.000661688
0.000661399
0.000661102
0.000660864
0.000660623
0.000660421
0.000660201
0.000660048
0.00065987
0.00065971
0.00065956
0.00065945
0.000659341
0.00065927
0.00065917
0.000659085
0.00065901
0.000658962
0.000658875
0.000658821
0.000658784
0.000658702
0.000658696
0.000658687
0.000658652
0.000658697
0.000658696
0.000658782
0.000658836
0.000658955
0.000659037
0.000659185
0.000659236
0.000659356
0.000659408
0.000659546
0.000659639
0.00065981
0.000659897
0.00066008
0.000660176
0.000660375
0.000660479
0.0006607
0.000660821
0.000661072
0.000661206
0.000661482
0.000661632
0.000661945
0.000662118
0.000662487
0.000662685
0.000663147
0.000663338
0.000664076
0.000664329
0.000681742
0.00071959
0.00174938
0.00102208
0.000930165
0.000864482
0.00081876
0.000786425
0.000762837
0.000745084
0.000731344
0.000720477
0.000711711
0.000704537
0.000698581
0.000693586
0.000689351
0.000685731
0.000682613
0.000679909
0.00067755
0.000675474
0.000673651
0.000672029
0.000670595
0.0006693
0.000668154
0.000667113
0.000666186
0.000665328
0.000664572
0.000663866
0.000663248
0.000662654
0.000662144
0.000661658
0.000661227
0.000660805
0.000660449
0.000660103
0.00065981
0.000659509
0.000659268
0.000659024
0.000658819
0.000658596
0.00065844
0.00065826
0.000658099
0.000657947
0.000657834
0.000657723
0.00065765
0.000657549
0.000657462
0.000657385
0.000657337
0.000657249
0.000657193
0.000657155
0.000657074
0.000657065
0.000657055
0.000657017
0.000657059
0.000657057
0.000657141
0.000657193
0.00065731
0.000657391
0.000657537
0.000657587
0.000657706
0.000657757
0.000657894
0.000657985
0.000658155
0.000658241
0.000658423
0.000658518
0.000658716
0.000658819
0.000659037
0.000659158
0.000659407
0.000659539
0.000659814
0.000659962
0.000660274
0.000660445
0.000660811
0.000661007
0.000661466
0.000661655
0.000662391
0.000662647
0.000680779
0.000718192
0.00172548
0.00102212
0.000930145
0.000864285
0.000818354
0.000785828
0.000762078
0.000744191
0.000730343
0.000719386
0.000710544
0.000703307
0.000697298
0.000692257
0.000687982
0.000684328
0.00068118
0.000678449
0.000676066
0.00067397
0.000672128
0.000670489
0.00066904
0.000667732
0.000666574
0.000665522
0.000664584
0.000663717
0.000662953
0.000662239
0.000661614
0.000661013
0.000660496
0.000660005
0.000659569
0.000659142
0.000658781
0.00065843
0.000658134
0.000657829
0.000657585
0.000657337
0.00065713
0.000656904
0.000656745
0.000656563
0.000656399
0.000656244
0.00065613
0.000656015
0.000655941
0.000655838
0.00065575
0.000655671
0.000655621
0.000655533
0.000655475
0.000655437
0.000655355
0.000655344
0.000655333
0.000655293
0.00065533
0.000655328
0.00065541
0.000655459
0.000655574
0.000655654
0.000655799
0.000655846
0.000655965
0.000656014
0.00065615
0.00065624
0.000656409
0.000656494
0.000656674
0.000656768
0.000656964
0.000657066
0.000657283
0.000657402
0.000657649
0.000657781
0.000658053
0.0006582
0.000658509
0.000658679
0.000659043
0.000659236
0.000659693
0.000659878
0.000660613
0.000660872
0.000679755
0.000716697
0.0017001
0.00102216
0.000930125
0.000864081
0.000817932
0.000785204
0.000761284
0.000743257
0.000729294
0.000718241
0.00070932
0.000702017
0.00069595
0.000690861
0.000686544
0.000682853
0.000679673
0.000676914
0.000674507
0.000672388
0.000670526
0.00066887
0.000667405
0.000666083
0.000664912
0.000663848
0.000662899
0.000662022
0.000661249
0.000660527
0.000659894
0.000659286
0.000658763
0.000658265
0.000657823
0.000657391
0.000657025
0.00065667
0.000656369
0.000656061
0.000655813
0.000655562
0.000655351
0.000655122
0.00065496
0.000654775
0.00065461
0.000654452
0.000654335
0.000654218
0.000654142
0.000654037
0.000653948
0.000653867
0.000653815
0.000653726
0.000653667
0.000653627
0.000653545
0.000653532
0.000653519
0.000653477
0.000653511
0.000653507
0.000653587
0.000653633
0.000653746
0.000653826
0.000653969
0.000654014
0.000654132
0.00065418
0.000654313
0.000654402
0.00065457
0.000654654
0.000654832
0.000654925
0.00065512
0.000655221
0.000655436
0.000655554
0.000655799
0.000655929
0.000656199
0.000656345
0.000656651
0.00065682
0.00065718
0.000657372
0.000657825
0.000658007
0.000658741
0.000659003
0.000678665
0.0007151
0.00167335
0.0010222
0.000930106
0.000863871
0.000817494
0.000784555
0.000760456
0.000742282
0.000728196
0.000717043
0.000708038
0.000700664
0.000694537
0.000689397
0.000685035
0.000681306
0.000678092
0.000675304
0.00067287
0.000670728
0.000668846
0.000667171
0.000665689
0.000664351
0.000663166
0.000662089
0.00066113
0.000660242
0.000659459
0.000658728
0.000658087
0.000657472
0.000656942
0.000656437
0.00065599
0.000655553
0.000655181
0.000654821
0.000654516
0.000654203
0.000653951
0.000653696
0.000653482
0.00065325
0.000653084
0.000652897
0.000652729
0.000652569
0.000652449
0.000652329
0.000652251
0.000652144
0.000652054
0.00065197
0.000651918