/*--------------------------------*- C++ -*----------------------------------*\
| =========                 |                                                 |
| \\      /  F ield         | OpenFOAM: The Open Source CFD Toolbox           |
|  \\    /   O peration     | Version:  v2012                                 |
|   \\  /    A nd           | Website:  www.openfoam.com                      |
|    \\/     M anipulation  |                                                 |
\*---------------------------------------------------------------------------*/
FoamFile
{
    version     2.0;
    format      ascii;
    class       volScalarField;
    location    "25.5";
    object      yPlus;
}
// * * * * * * * * * * * * * * * * * * * * * * * * * * * * * * * * * * * * * //

dimensions      [0 0 0 0 0 0 0];


internalField   uniform 0;

boundaryField
{
    inlet
    {
        type            calculated;
        value           uniform 0;
    }
    outlet
    {
        type            calculated;
        value           uniform 0;
    }
    topWall
    {
        type            calculated;
        value           nonuniform List<scalar> 
545
(
0.110423
0.190422
0.244287
0.287151
0.323438
0.355187
0.383546
0.409234
0.432743
0.454426
0.474548
0.493312
0.510881
0.527387
0.542938
0.557627
0.571531
0.584716
0.59724
0.609155
0.620503
0.631327
0.64166
0.651534
0.660979
0.670021
0.678684
0.686988
0.694955
0.702603
0.709948
0.717006
0.723792
0.73032
0.736601
0.742649
0.748473
0.754085
0.759493
0.764708
0.769737
0.774589
0.779271
0.783791
0.788155
0.792369
0.796441
0.800375
0.804178
0.807854
0.811408
0.814845
0.81817
0.821387
0.824499
0.827512
0.830428
0.833251
0.835985
0.838632
0.841196
0.843681
0.846087
0.848419
0.850679
0.85287
0.854993
0.857052
0.859048
0.860984
0.862861
0.864681
0.866424
0.86811
0.869783
0.871442
0.873088
0.874721
0.876341
0.877948
0.879542
0.881124
0.882693
0.884249
0.885794
0.887326
0.888846
0.890354
0.891851
0.893336
0.894809
0.896271
0.897721
0.899161
0.900589
0.902006
0.903282
0.904424
0.905565
0.906706
0.907847
0.908988
0.910128
0.911269
0.912409
0.913548
0.914688
0.915827
0.916966
0.918104
0.919242
0.92038
0.921518
0.922655
0.923792
0.924929
0.926065
0.927201
0.928336
0.929471
0.930606
0.931741
0.932875
0.934008
0.935141
0.936274
0.937406
0.938538
0.93967
0.940801
0.941931
0.943061
0.944191
0.94532
0.946449
0.947577
0.948704
0.949831
0.950958
0.952084
0.953209
0.954334
0.955459
0.956582
0.957706
0.958828
0.95995
0.961071
0.962192
0.963312
0.964432
0.96555
0.966669
0.967786
0.968903
0.970019
0.971134
0.972249
0.973363
0.974476
0.975589
0.976701
0.977812
0.978922
0.980031
0.98114
0.982248
0.983355
0.984461
0.985566
0.986671
0.987775
0.988877
0.989979
0.991081
0.992181
0.99328
0.994378
0.995476
0.996572
0.997668
0.998762
0.999856
1.00095
1.00204
1.00313
1.00422
1.00531
1.0064
1.00748
1.00857
1.00965
1.01074
1.01182
1.0129
1.01398
1.01506
1.01613
1.01721
1.01829
1.01936
1.02043
1.02151
1.02258
1.02364
1.02471
1.02578
1.02684
1.02791
1.02897
1.03003
1.03109
1.03215
1.03321
1.03427
1.03532
1.03637
1.03743
1.03848
1.03953
1.04057
1.04162
1.04266
1.04371
1.04475
1.04579
1.04683
1.04787
1.0489
1.04994
1.05097
1.052
1.05303
1.05406
1.05508
1.05611
1.05713
1.05815
1.05917
1.06019
1.0612
1.06222
1.06323
1.06424
1.06525
1.06626
1.06726
1.06827
1.06927
1.07027
1.07127
1.07226
1.07326
1.07425
1.07524
1.07623
1.07721
1.0782
1.07918
1.08016
1.08114
1.08212
1.08309
1.08406
1.08503
1.086
1.08697
1.08793
1.0889
1.0898
1.09066
1.09152
1.09238
1.09325
1.09413
1.09501
1.0959
1.0968
1.0977
1.0986
1.09951
1.10043
1.10135
1.10228
1.10322
1.10415
1.1051
1.10605
1.107
1.10797
1.10893
1.1099
1.11088
1.11186
1.11285
1.11384
1.11484
1.11584
1.11685
1.11786
1.11887
1.1199
1.12092
1.12195
1.12299
1.12403
1.12507
1.12612
1.12717
1.12823
1.12929
1.13036
1.13142
1.1325
1.13357
1.13465
1.13573
1.13682
1.13791
1.139
1.1401
1.1412
1.1423
1.1434
1.14451
1.14562
1.14673
1.14784
1.14895
1.15007
1.15119
1.15231
1.15343
1.15455
1.15567
1.15679
1.15792
1.15904
1.16017
1.16129
1.16241
1.16354
1.16466
1.16578
1.1669
1.16802
1.16913
1.17025
1.17136
1.17247
1.17358
1.17469
1.17579
1.17689
1.17798
1.17907
1.18016
1.18124
1.18232
1.18339
1.18446
1.18552
1.18658
1.18763
1.18867
1.18971
1.19073
1.19176
1.19277
1.19377
1.19477
1.19576
1.19674
1.19771
1.19866
1.19961
1.20055
1.20148
1.20239
1.2033
1.20419
1.20507
1.20593
1.20678
1.20762
1.20845
1.20926
1.21005
1.21083
1.2116
1.21235
1.21308
1.2138
1.21449
1.21517
1.21584
1.21648
1.21711
1.21771
1.2183
1.21887
1.21941
1.21994
1.22044
1.22093
1.22139
1.22183
1.22224
1.22264
1.22301
1.22335
1.22367
1.22397
1.22425
1.22449
1.22472
1.22491
1.22509
1.22523
1.22535
1.22544
1.22551
1.22554
1.22555
1.22553
1.22549
1.22541
1.22531
1.22518
1.22502
1.22483
1.22461
1.22437
1.22409
1.22378
1.22345
1.22308
1.22269
1.22227
1.22181
1.22133
1.22082
1.22027
1.2197
1.2191
1.21847
1.21781
1.21712
1.2164
1.21566
1.2148
1.21381
1.21281
1.21177
1.21071
1.20963
1.20853
1.2074
1.20626
1.2051
1.20393
1.20274
1.20154
1.20032
1.1991
1.19786
1.19662
1.19537
1.19412
1.19286
1.19159
1.19033
1.18906
1.18778
1.18651
1.18524
1.18397
1.1827
1.18144
1.18018
1.17892
1.17767
1.17642
1.17518
1.17395
1.17273
1.17151
1.17031
1.16911
1.16792
1.16675
1.16558
1.16443
1.16329
1.16216
1.16105
1.15995
1.15886
1.15779
1.15674
1.1557
1.15468
1.15367
1.15268
1.15171
1.15076
1.14982
1.14891
1.14801
1.14713
1.14628
1.14544
1.14462
1.14383
1.14305
1.1423
1.14157
1.14086
1.14017
1.13951
1.13887
1.13825
1.13766
1.13709
1.13654
1.13602
1.13552
1.13505
1.1346
1.13418
1.13378
1.13341
1.13306
1.13274
1.13245
1.13218
1.13194
1.13172
1.13153
1.13137
1.13123
1.13112
1.13103
1.13099
1.13093
)
;
    }
    bottomWall
    {
        type            calculated;
        value           nonuniform List<scalar> 
449
(
0.139454
0.0889693
0.0758316
0.069482
0.0653376
0.0622879
0.0599517
0.0582519
0.0573418
0.0576524
0.0607119
0.0647046
0.0674695
0.0690032
0.0698139
0.0702349
0.0704169
0.0704366
0.0703448
0.0701891
0.0699881
0.0697625
0.0695247
0.0692825
0.0690406
0.0688018
0.0685674
0.0683389
0.0681168
0.0679014
0.0676928
0.0674908
0.0672953
0.067106
0.0669228
0.0667452
0.0665729
0.0664058
0.0662439
0.0660868
0.0659343
0.0657862
0.0656422
0.0655023
0.0653662
0.0652337
0.0651046
0.0649789
0.0648562
0.0647359
0.0646177
0.0645015
0.0643874
0.0642754
0.0641654
0.0640574
0.0639512
0.063847
0.0637445
0.0636438
0.0635448
0.0634474
0.0633515
0.0632572
0.0631644
0.063073
0.062983
0.0628943
0.0628069
0.0627207
0.0626356
0.0625518
0.0624691
0.0623875
0.0623071
0.0622277
0.0621493
0.062072
0.0619957
0.0619203
0.0618459
0.0617723
0.0616997
0.0616279
0.061557
0.0614869
0.0614177
0.0613492
0.0612814
0.0612145
0.0611482
0.0610827
0.0610179
0.0609538
0.0608903
0.0608275
0.0607654
0.0607038
0.0606428
0.0605824
0.0605226
0.0604634
0.0604047
0.0603467
0.0602892
0.0602322
0.0601758
0.0601198
0.0600645
0.0600096
0.0599552
0.0599013
0.0598478
0.0597949
0.0597424
0.0596903
0.0596387
0.0595876
0.0595368
0.0594865
0.0594367
0.0593872
0.0593381
0.0592895
0.0592412
0.0591933
0.0591457
0.0590986
0.0590518
0.0590054
0.0589594
0.0589137
0.0588683
0.0588233
0.0587786
0.0587343
0.0586902
0.0586465
0.0586031
0.05856
0.0585172
0.0584747
0.0584324
0.0583905
0.0583489
0.0583075
0.0582665
0.0582257
0.0581852
0.058145
0.058105
0.0580654
0.0580259
0.0579868
0.0579479
0.0579093
0.0578709
0.0578327
0.0577949
0.0577572
0.0577198
0.0576826
0.0576457
0.057609
0.0575725
0.0575363
0.0575003
0.0574645
0.0574289
0.0573935
0.0573584
0.0573234
0.0572887
0.0572561
0.0572254
0.0571946
0.0571637
0.0571327
0.0571016
0.0570703
0.057039
0.0570076
0.0569761
0.0569445
0.0569128
0.056881
0.0568492
0.0568172
0.0567852
0.056753
0.0567208
0.0566885
0.0566561
0.0566236
0.056591
0.0565584
0.0565257
0.0564928
0.05646
0.056427
0.056394
0.0563608
0.0563277
0.0562944
0.056261
0.0562275
0.056194
0.0561605
0.0561269
0.0560932
0.0560594
0.0560256
0.0559918
0.0559579
0.055924
0.0558899
0.0558559
0.0558219
0.0557878
0.0557536
0.0557194
0.0556852
0.055651
0.0556167
0.0555824
0.0555481
0.0555137
0.0554793
0.0554449
0.0554105
0.0553761
0.0553416
0.0553072
0.0552727
0.0552382
0.0552037
0.0551692
0.0551347
0.0551002
0.0550657
0.0550312
0.0549967
0.0549622
0.0549277
0.0548933
0.0548588
0.0548244
0.05479
0.0547556
0.0547212
0.0546868
0.0546525
0.0546182
0.0545839
0.0545496
0.0545154
0.0544812
0.0544471
0.0544129
0.0543789
0.0543448
0.0543108
0.0542768
0.0542429
0.054209
0.0541752
0.0541415
0.0541078
0.0540741
0.0540405
0.054007
0.0539735
0.05394
0.0539066
0.0538733
0.05384
0.0538068
0.0537736
0.0537405
0.0537075
0.0536745
0.0536416
0.0536087
0.053576
0.0535433
0.0535107
0.0534781
0.0534456
0.0534132
0.0533809
0.0533486
0.0533164
0.0532843
0.0532522
0.0532203
0.0531884
0.0531566
0.0531249
0.0530932
0.0530616
0.0530301
0.0529987
0.0529674
0.0529361
0.0529049
0.0528738
0.0528428
0.0528119
0.052781
0.0527502
0.0527195
0.0526889
0.0526583
0.0526279
0.0525975
0.0525672
0.0525369
0.0525068
0.0524767
0.0524468
0.0524169
0.0523871
0.0523573
0.0523277
0.0522981
0.0522686
0.0522392
0.05221
0.0521807
0.0521516
0.0521226
0.0520936
0.0520647
0.052036
0.0520073
0.0519787
0.0519502
0.0519218
0.0518934
0.0518651
0.0518369
0.0518089
0.0517808
0.0517529
0.0517251
0.0516973
0.0516697
0.0516421
0.0516146
0.0515871
0.0515598
0.0515324
0.0515053
0.0514781
0.0514481
0.0514155
0.0513836
0.0513522
0.0513214
0.051291
0.0512612
0.0512319
0.051203
0.0511746
0.0511466
0.051119
0.0510919
0.0510651
0.0510387
0.0510127
0.0509871
0.0509617
0.0509368
0.0509122
0.0508879
0.0508639
0.0508402
0.0508168
0.0507938
0.0507709
0.0507484
0.0507262
0.0507042
0.0506825
0.0506611
0.0506398
0.0506189
0.0505981
0.0505777
0.0505574
0.0505374
0.0505175
0.050498
0.0504785
0.0504594
0.0504404
0.0504217
0.050403
0.0503847
0.0503665
0.0503485
0.0503306
0.050313
0.0502955
0.0502783
0.0502611
0.0502442
0.0502273
0.0502106
0.0501941
0.0501777
0.0501614
0.0501453
0.0501293
0.0501134
0.0500977
0.0500821
0.0500667
0.0500514
0.0500362
0.0500212
0.0500062
0.0499914
0.0499767
0.0499622
0.0499477
0.0499335
0.0499192
0.0499052
0.0498911
0.0498773
0.0498634
0.0498499
0.0498361
0.0498228
0.0498091
0.049796
0.0497825
0.0497696
0.0497563
0.0497434
0.0497304
0.0497171
0.0497053
0.0496899
0.0496824
0.0496594
0.049665
0.0496342
)
;
    }
    symmetry
    {
        type            symmetryPlane;
    }
    frontAndBack
    {
        type            empty;
    }
}


// ************************************************************************* //
