/*--------------------------------*- C++ -*----------------------------------*\
| =========                 |                                                 |
| \\      /  F ield         | OpenFOAM: The Open Source CFD Toolbox           |
|  \\    /   O peration     | Version:  v2012                                 |
|   \\  /    A nd           | Website:  www.openfoam.com                      |
|    \\/     M anipulation  |                                                 |
\*---------------------------------------------------------------------------*/
FoamFile
{
    version     2.0;
    format      ascii;
    class       volScalarField;
    location    "41.5";
    object      yPlus;
}
// * * * * * * * * * * * * * * * * * * * * * * * * * * * * * * * * * * * * * //

dimensions      [0 0 0 0 0 0 0];


internalField   uniform 0;

boundaryField
{
    inlet
    {
        type            calculated;
        value           uniform 0;
    }
    outlet
    {
        type            calculated;
        value           uniform 0;
    }
    topWall
    {
        type            calculated;
        value           nonuniform List<scalar> 
545
(
0.0708308
0.122133
0.156679
0.184161
0.207414
0.227747
0.245894
0.262319
0.277335
0.291169
0.303993
0.315936
0.327104
0.337582
0.347439
0.356736
0.365522
0.373841
0.38173
0.389223
0.396348
0.403131
0.409596
0.415764
0.421653
0.42728
0.432662
0.437812
0.442744
0.44747
0.452001
0.456348
0.460519
0.464524
0.468372
0.47207
0.475626
0.479045
0.482336
0.485503
0.488552
0.491489
0.494318
0.497045
0.499674
0.502209
0.504654
0.507014
0.50929
0.511488
0.513609
0.515658
0.517637
0.51955
0.521397
0.523183
0.524909
0.526579
0.528193
0.529754
0.531265
0.532726
0.53414
0.535509
0.536834
0.538117
0.539359
0.540562
0.541727
0.542856
0.54395
0.545009
0.546022
0.547002
0.547973
0.548935
0.549888
0.550833
0.55177
0.552698
0.553618
0.55453
0.555434
0.556329
0.557217
0.558097
0.558969
0.559834
0.560691
0.561541
0.562383
0.563218
0.564045
0.564865
0.565679
0.566485
0.56721
0.567859
0.568507
0.569154
0.569801
0.570447
0.571092
0.571737
0.572381
0.573024
0.573666
0.574308
0.574949
0.57559
0.576229
0.576868
0.577507
0.578144
0.578781
0.579417
0.580052
0.580686
0.58132
0.581953
0.582585
0.583216
0.583847
0.584476
0.585105
0.585733
0.58636
0.586987
0.587612
0.588237
0.58886
0.589483
0.590105
0.590726
0.591346
0.591965
0.592584
0.593201
0.593818
0.594433
0.595048
0.595661
0.596274
0.596886
0.597496
0.598106
0.598715
0.599322
0.599929
0.600535
0.601139
0.601743
0.602345
0.602947
0.603547
0.604146
0.604744
0.605342
0.605938
0.606533
0.607126
0.607719
0.60831
0.608901
0.60949
0.610078
0.610665
0.611251
0.611835
0.612419
0.613001
0.613581
0.614161
0.61474
0.615317
0.615893
0.616467
0.617041
0.617613
0.618183
0.618753
0.619321
0.619888
0.620453
0.621018
0.62158
0.622142
0.622702
0.623261
0.623818
0.624374
0.624929
0.625482
0.626033
0.626584
0.627132
0.62768
0.628226
0.62877
0.629313
0.629854
0.630394
0.630933
0.631469
0.632005
0.632538
0.633071
0.633601
0.63413
0.634658
0.635184
0.635708
0.636231
0.636752
0.637271
0.637789
0.638305
0.638819
0.639332
0.639843
0.640352
0.64086
0.641366
0.64187
0.642372
0.642873
0.643372
0.643869
0.644364
0.644858
0.64535
0.64584
0.646328
0.646814
0.647298
0.647781
0.648261
0.64874
0.649217
0.649692
0.650165
0.650636
0.651106
0.651573
0.652038
0.652502
0.652963
0.653422
0.65388
0.654335
0.654789
0.65524
0.655689
0.656137
0.656582
0.657025
0.657466
0.657905
0.658342
0.658777
0.659209
0.65964
0.660068
0.660494
0.660918
0.66134
0.66176
0.662177
0.662592
0.662982
0.663349
0.663717
0.664087
0.664458
0.66483
0.665203
0.665578
0.665954
0.666331
0.666709
0.667088
0.667468
0.667849
0.668231
0.668613
0.668997
0.669381
0.669766
0.670152
0.670538
0.670925
0.671312
0.6717
0.672088
0.672476
0.672864
0.673252
0.673641
0.674029
0.674418
0.674806
0.675194
0.675582
0.675969
0.676355
0.676742
0.677127
0.677511
0.677895
0.678278
0.67866
0.67904
0.679419
0.679797
0.680174
0.680548
0.680921
0.681293
0.681662
0.682029
0.682394
0.682757
0.683117
0.683475
0.68383
0.684182
0.684532
0.684878
0.685221
0.68556
0.685896
0.686229
0.686557
0.686882
0.687202
0.687518
0.68783
0.688137
0.688439
0.688736
0.689028
0.689315
0.689597
0.689872
0.690142
0.690406
0.690663
0.690914
0.691159
0.691397
0.691627
0.691851
0.692067
0.692276
0.692476
0.692669
0.692854
0.69303
0.693197
0.693356
0.693506
0.693646
0.693777
0.693898
0.694009
0.69411
0.694201
0.694281
0.69435
0.694408
0.694455
0.69449
0.694514
0.694525
0.694525
0.694512
0.694486
0.694447
0.694395
0.69433
0.694252
0.694159
0.694053
0.693932
0.693796
0.693646
0.693482
0.693301
0.693106
0.692895
0.692668
0.692426
0.692167
0.691891
0.691599
0.691291
0.690965
0.690622
0.690262
0.689884
0.689489
0.689076
0.688644
0.688195
0.687727
0.687241
0.686736
0.686212
0.68567
0.685108
0.684528
0.683928
0.683309
0.682671
0.682013
0.681336
0.680639
0.679923
0.679187
0.678431
0.677656
0.676861
0.676046
0.675211
0.674357
0.673483
0.67259
0.671677
0.670745
0.669793
0.668822
0.667832
0.666822
0.665794
0.664747
0.663681
0.662597
0.661494
0.660374
0.659235
0.658079
0.656905
0.655714
0.654506
0.653281
0.65204
0.650783
0.64951
0.648222
0.646918
0.645451
0.643829
0.642208
0.640589
0.638972
0.637359
0.63575
0.634146
0.632548
0.630956
0.629372
0.627795
0.626226
0.624666
0.623116
0.621576
0.620046
0.618527
0.61702
0.615524
0.61404
0.612569
0.611112
0.609667
0.608236
0.606819
0.605417
0.604029
0.602656
0.601298
0.599955
0.598629
0.597318
0.596023
0.594745
0.593484
0.592239
0.591012
0.589801
0.588608
0.587433
0.586276
0.585136
0.584015
0.582912
0.581828
0.580762
0.579715
0.578687
0.577679
0.576689
0.575719
0.574769
0.573839
0.572928
0.572037
0.571167
0.570317
0.569488
0.568679
0.56789
0.567123
0.566377
0.565652
0.564948
0.564266
0.563605
0.562965
0.562348
0.561752
0.561179
0.560627
0.560098
0.559591
0.559107
0.558645
0.558206
0.557789
0.557395
0.557025
0.556677
0.556352
0.556051
0.555772
0.555517
0.555286
0.555077
0.554893
0.554731
0.554593
0.554479
0.554389
0.554321
0.55428
0.55425
)
;
    }
    bottomWall
    {
        type            calculated;
        value           nonuniform List<scalar> 
449
(
0.139448
0.0889586
0.0758085
0.0694368
0.0652538
0.0621275
0.0596327
0.0575693
0.0558185
0.0543024
0.0529688
0.0517813
0.0507134
0.0497449
0.0488602
0.0480471
0.0472956
0.0465978
0.0459471
0.0453379
0.0447658
0.0442268
0.0437175
0.0432351
0.0427772
0.0423415
0.0419262
0.0415295
0.04115
0.0407864
0.0404375
0.0401023
0.0397797
0.039469
0.0391694
0.0388801
0.0386006
0.0383302
0.0380684
0.0378147
0.0375686
0.0373298
0.0370979
0.0368725
0.0366533
0.0364399
0.0362321
0.0360296
0.0358322
0.0356397
0.0354518
0.0352683
0.035089
0.0349138
0.0347425
0.0345749
0.0344109
0.0342504
0.0340931
0.0339391
0.0337881
0.03364
0.0334949
0.0333524
0.0332126
0.0330754
0.0329407
0.0328083
0.0326783
0.0325505
0.0324248
0.0323013
0.0321798
0.0320603
0.0319427
0.0318269
0.031713
0.0316008
0.0314903
0.0313814
0.0312742
0.0311685
0.0310643
0.0309616
0.0308604
0.0307606
0.0306621
0.0305649
0.0304691
0.0303745
0.0302811
0.030189
0.030098
0.0300082
0.0299194
0.0298318
0.0297453
0.0296597
0.0295752
0.0294917
0.0294092
0.0293276
0.029247
0.0291673
0.0290884
0.0290105
0.0289333
0.0288571
0.0287816
0.0287069
0.0286331
0.02856
0.0284876
0.028416
0.0283451
0.028275
0.0282055
0.0281367
0.0280686
0.0280011
0.0279343
0.0278682
0.0278026
0.0277377
0.0276733
0.0276096
0.0275464
0.0274838
0.0274218
0.0273603
0.0272994
0.027239
0.0271791
0.0271197
0.0270609
0.0270025
0.0269446
0.0268872
0.0268303
0.0267738
0.0267178
0.0266623
0.0266072
0.0265525
0.0264983
0.0264444
0.0263911
0.0263381
0.0262855
0.0262333
0.0261815
0.0261301
0.0260791
0.0260285
0.0259782
0.0259283
0.0258787
0.0258296
0.0257807
0.0257322
0.0256841
0.0256362
0.0255888
0.0255416
0.0254948
0.0254482
0.025402
0.0253561
0.0253105
0.0252652
0.0252203
0.0251755
0.0251312
0.0250896
0.0250504
0.0250111
0.0249717
0.0249322
0.0248926
0.0248528
0.024813
0.024773
0.024733
0.0246928
0.0246526
0.0246122
0.0245717
0.0245311
0.0244905
0.0244497
0.0244088
0.0243678
0.0243267
0.0242856
0.0242443
0.0242029
0.0241615
0.0241199
0.0240783
0.0240366
0.0239947
0.0239528
0.0239109
0.0238688
0.0238266
0.0237844
0.0237421
0.0236997
0.0236572
0.0236147
0.023572
0.0235293
0.0234866
0.0234437
0.0234008
0.0233578
0.0233148
0.0232717
0.0232285
0.0231852
0.0231419
0.0230985
0.0230551
0.0230116
0.0229681
0.0229245
0.0228808
0.0228371
0.0227933
0.0227495
0.0227056
0.0226617
0.0226177
0.0225737
0.0225297
0.0224856
0.0224414
0.0223972
0.022353
0.0223087
0.0222644
0.0222201
0.0221757
0.0221313
0.0220869
0.0220424
0.0219979
0.0219534
0.0219088
0.0218642
0.0218196
0.021775
0.0217303
0.0216856
0.0216409
0.0215962
0.0215515
0.0215067
0.0214619
0.0214171
0.0213723
0.0213275
0.0212827
0.0212379
0.021193
0.0211482
0.0211033
0.0210584
0.0210135
0.0209687
0.0209238
0.0208789
0.020834
0.0207891
0.0207443
0.0206994
0.0206545
0.0206097
0.0205648
0.0205199
0.0204751
0.0204302
0.0203854
0.0203406
0.0202958
0.020251
0.0202062
0.0201615
0.0201167
0.020072
0.0200273
0.0199826
0.0199379
0.0198932
0.0198486
0.019804
0.0197594
0.0197149
0.0196703
0.0196258
0.0195813
0.0195369
0.0194924
0.019448
0.0194037
0.0193593
0.019315
0.0192708
0.0192265
0.0191823
0.0191381
0.019094
0.0190499
0.0190058
0.0189618
0.0189178
0.0188739
0.01883
0.0187861
0.0187423
0.0186985
0.0186548
0.0186111
0.0185675
0.0185239
0.0184803
0.0184368
0.0183933
0.0183499
0.0183066
0.0182633
0.01822
0.0181768
0.0181336
0.0180905
0.0180475
0.0180045
0.0179615
0.0179186
0.0178758
0.017833
0.0177903
0.0177476
0.017705
0.0176624
0.0176199
0.0175775
0.0175351
0.0174928
0.0174505
0.0174083
0.0173662
0.0173241
0.017282
0.0172353
0.0171845
0.0171345
0.0170852
0.0170365
0.0169885
0.0169412
0.0168946
0.0168486
0.0168032
0.0167585
0.0167143
0.0166708
0.0166278
0.0165853
0.0165434
0.0165021
0.0164612
0.0164209
0.016381
0.0163417
0.0163028
0.0162644
0.0162264
0.0161889
0.0161518
0.0161151
0.0160789
0.0160431
0.0160077
0.0159726
0.015938
0.0159037
0.0158698
0.0158363
0.0158031
0.0157703
0.0157378
0.0157057
0.0156739
0.0156424
0.0156112
0.0155804
0.0155498
0.0155196
0.0154896
0.01546
0.0154306
0.0154015
0.0153727
0.0153441
0.0153159
0.0152879
0.0152601
0.0152326
0.0152053
0.0151783
0.0151516
0.015125
0.0150988
0.0150727
0.0150468
0.0150212
0.0149958
0.0149707
0.0149457
0.0149209
0.0148964
0.014872
0.0148478
0.0148239
0.0148001
0.0147765
0.0147531
0.0147299
0.0147069
0.014684
0.0146613
0.0146388
0.0146164
0.0145942
0.0145722
0.0145503
0.0145286
0.014507
0.0144855
0.0144641
0.0144429
0.0144217
0.0144003
0.0143798
0.0143593
0.0143254
0.0143443
0.0142846
)
;
    }
    symmetry
    {
        type            symmetryPlane;
    }
    frontAndBack
    {
        type            empty;
    }
}


// ************************************************************************* //
