/*--------------------------------*- C++ -*----------------------------------*\
| =========                 |                                                 |
| \\      /  F ield         | OpenFOAM: The Open Source CFD Toolbox           |
|  \\    /   O peration     | Version:  v2012                                 |
|   \\  /    A nd           | Website:  www.openfoam.com                      |
|    \\/     M anipulation  |                                                 |
\*---------------------------------------------------------------------------*/
FoamFile
{
    version     2.0;
    format      ascii;
    class       volScalarField;
    location    "52";
    object      yPlus;
}
// * * * * * * * * * * * * * * * * * * * * * * * * * * * * * * * * * * * * * //

dimensions      [0 0 0 0 0 0 0];


internalField   uniform 0;

boundaryField
{
    inlet
    {
        type            calculated;
        value           uniform 0;
    }
    outlet
    {
        type            calculated;
        value           uniform 0;
    }
    topWall
    {
        type            calculated;
        value           nonuniform List<scalar> 
545
(
0.0708349
0.12214
0.156688
0.184171
0.207426
0.22776
0.245909
0.262334
0.277351
0.291186
0.30401
0.315954
0.327123
0.337601
0.34746
0.356757
0.365544
0.373863
0.381753
0.389246
0.396371
0.403155
0.409621
0.415788
0.421678
0.427306
0.432688
0.437838
0.442771
0.447497
0.452028
0.456375
0.460547
0.464553
0.468401
0.472099
0.475655
0.479075
0.482365
0.485532
0.488582
0.491519
0.494349
0.497076
0.499705
0.502241
0.504686
0.507045
0.509322
0.51152
0.513642
0.515691
0.51767
0.519582
0.52143
0.523216
0.524943
0.526612
0.528227
0.529788
0.531299
0.53276
0.534175
0.535544
0.536869
0.538152
0.539394
0.540597
0.541762
0.542891
0.543985
0.545045
0.546058
0.547038
0.548009
0.548971
0.549924
0.550869
0.551806
0.552734
0.553654
0.554566
0.55547
0.556366
0.557254
0.558134
0.559006
0.559871
0.560728
0.561578
0.56242
0.563255
0.564083
0.564903
0.565716
0.566523
0.567249
0.567897
0.568545
0.569193
0.569839
0.570485
0.571131
0.571775
0.572419
0.573063
0.573705
0.574347
0.574988
0.575629
0.576269
0.576908
0.577546
0.578184
0.57882
0.579456
0.580092
0.580726
0.58136
0.581993
0.582625
0.583256
0.583887
0.584517
0.585146
0.585774
0.586401
0.587027
0.587653
0.588277
0.588901
0.589524
0.590146
0.590767
0.591388
0.592007
0.592625
0.593243
0.593859
0.594475
0.59509
0.595703
0.596316
0.596928
0.597538
0.598148
0.598757
0.599365
0.599972
0.600577
0.601182
0.601786
0.602388
0.60299
0.60359
0.60419
0.604788
0.605385
0.605981
0.606576
0.60717
0.607763
0.608355
0.608945
0.609534
0.610122
0.610709
0.611295
0.61188
0.612463
0.613045
0.613626
0.614206
0.614785
0.615362
0.615938
0.616513
0.617086
0.617658
0.618229
0.618799
0.619367
0.619934
0.6205
0.621064
0.621627
0.622189
0.622749
0.623308
0.623865
0.624421
0.624976
0.625529
0.626081
0.626631
0.62718
0.627727
0.628273
0.628818
0.629361
0.629902
0.630442
0.630981
0.631518
0.632053
0.632587
0.633119
0.63365
0.634179
0.634707
0.635233
0.635757
0.63628
0.636801
0.637321
0.637839
0.638355
0.638869
0.639382
0.639893
0.640403
0.64091
0.641417
0.641921
0.642423
0.642924
0.643423
0.64392
0.644416
0.64491
0.645401
0.645891
0.64638
0.646866
0.647351
0.647833
0.648314
0.648793
0.64927
0.649745
0.650218
0.65069
0.651159
0.651626
0.652092
0.652555
0.653017
0.653477
0.653934
0.65439
0.654843
0.655295
0.655744
0.656192
0.656637
0.65708
0.657521
0.65796
0.658397
0.658832
0.659265
0.659696
0.660124
0.66055
0.660975
0.661397
0.661816
0.662234
0.662649
0.663039
0.663406
0.663775
0.664144
0.664515
0.664888
0.665261
0.665636
0.666012
0.666389
0.666767
0.667147
0.667527
0.667908
0.66829
0.668673
0.669057
0.669441
0.669826
0.670212
0.670599
0.670985
0.671373
0.671761
0.672149
0.672537
0.672925
0.673314
0.673703
0.674091
0.67448
0.674868
0.675257
0.675644
0.676032
0.676419
0.676805
0.677191
0.677575
0.677959
0.678342
0.678724
0.679105
0.679484
0.679862
0.680239
0.680614
0.680987
0.681359
0.681728
0.682096
0.682461
0.682824
0.683185
0.683543
0.683898
0.684251
0.6846
0.684947
0.68529
0.68563
0.685966
0.686299
0.686628
0.686952
0.687273
0.68759
0.687901
0.688209
0.688511
0.688809
0.689101
0.689388
0.68967
0.689946
0.690216
0.69048
0.690738
0.69099
0.691235
0.691473
0.691704
0.691928
0.692144
0.692353
0.692554
0.692748
0.692933
0.693109
0.693277
0.693436
0.693586
0.693727
0.693858
0.69398
0.694092
0.694193
0.694284
0.694365
0.694434
0.694493
0.69454
0.694576
0.6946
0.694613
0.694612
0.6946
0.694575
0.694537
0.694486
0.694421
0.694343
0.694251
0.694145
0.694025
0.69389
0.693741
0.693577
0.693397
0.693203
0.692992
0.692766
0.692524
0.692266
0.691991
0.6917
0.691392
0.691067
0.690725
0.690366
0.689989
0.689594
0.689182
0.688752
0.688303
0.687836
0.687351
0.686847
0.686324
0.685783
0.685222
0.684643
0.684044
0.683426
0.682789
0.682132
0.681456
0.68076
0.680045
0.67931
0.678555
0.677781
0.676987
0.676174
0.67534
0.674487
0.673615
0.672723
0.671811
0.67088
0.669929
0.66896
0.667971
0.666963
0.665936
0.66489
0.663826
0.662743
0.661642
0.660522
0.659385
0.658231
0.657058
0.655869
0.654662
0.653439
0.6522
0.650944
0.649673
0.648386
0.647084
0.64562
0.644
0.642381
0.640763
0.639149
0.637538
0.635931
0.634329
0.632733
0.631144
0.629561
0.627986
0.62642
0.624862
0.623314
0.621776
0.620248
0.618732
0.617226
0.615733
0.614251
0.612782
0.611326
0.609884
0.608455
0.60704
0.60564
0.604254
0.602883
0.601527
0.600187
0.598862
0.597553
0.596261
0.594985
0.593725
0.592482
0.591257
0.590048
0.588857
0.587684
0.586528
0.585391
0.584271
0.58317
0.582088
0.581024
0.579979
0.578953
0.577946
0.576958
0.57599
0.575041
0.574112
0.573203
0.572314
0.571445
0.570597
0.569769
0.568961
0.568175
0.567409
0.566664
0.56594
0.565238
0.564556
0.563897
0.563259
0.562642
0.562048
0.561475
0.560925
0.560397
0.559891
0.559407
0.558947
0.558508
0.558092
0.5577
0.55733
0.556983
0.556659
0.556358
0.55608
0.555825
0.555594
0.555386
0.555202
0.555041
0.554903
0.554789
0.554699
0.554631
0.554591
0.554561
)
;
    }
    bottomWall
    {
        type            calculated;
        value           nonuniform List<scalar> 
449
(
0.139439
0.0889532
0.0758039
0.0694327
0.06525
0.062124
0.0596294
0.0575661
0.0558154
0.0542995
0.052966
0.0517786
0.0507108
0.0497424
0.0488578
0.0480447
0.0472933
0.0465956
0.0459449
0.0453358
0.0447637
0.0442247
0.0437155
0.0432332
0.0427753
0.0423396
0.0419243
0.0415277
0.0411483
0.0407847
0.0404358
0.0401006
0.0397781
0.0394674
0.0391678
0.0388786
0.038599
0.0383287
0.0380669
0.0378132
0.0375672
0.0373284
0.0370965
0.0368711
0.0366519
0.0364385
0.0362308
0.0360283
0.035831
0.0356384
0.0354505
0.035267
0.0350878
0.0349126
0.0347413
0.0345737
0.0344097
0.0342492
0.034092
0.0339379
0.033787
0.0336389
0.0334938
0.0333513
0.0332116
0.0330744
0.0329396
0.0328073
0.0326772
0.0325495
0.0324238
0.0323003
0.0321788
0.0320593
0.0319417
0.031826
0.031712
0.0315998
0.0314893
0.0313805
0.0312732
0.0311676
0.0310634
0.0309607
0.0308595
0.0307597
0.0306612
0.030564
0.0304682
0.0303736
0.0302803
0.0301881
0.0300971
0.0300073
0.0299186
0.029831
0.0297444
0.0296589
0.0295744
0.0294909
0.0294084
0.0293268
0.0292462
0.0291665
0.0290876
0.0290097
0.0289325
0.0288563
0.0287808
0.0287062
0.0286323
0.0285592
0.0284869
0.0284153
0.0283444
0.0282742
0.0282047
0.028136
0.0280678
0.0280004
0.0279336
0.0278674
0.0278019
0.0277369
0.0276726
0.0276089
0.0275457
0.0274831
0.0274211
0.0273596
0.0272987
0.0272382
0.0271784
0.027119
0.0270601
0.0270018
0.0269439
0.0268865
0.0268296
0.0267731
0.0267171
0.0266615
0.0266064
0.0265518
0.0264975
0.0264437
0.0263903
0.0263373
0.0262848
0.0262326
0.0261808
0.0261294
0.0260784
0.0260277
0.0259774
0.0259275
0.025878
0.0258288
0.02578
0.0257315
0.0256833
0.0256355
0.025588
0.0255408
0.025494
0.0254475
0.0254013
0.0253554
0.0253098
0.0252645
0.0252195
0.0251747
0.0251304
0.0250888
0.0250496
0.0250103
0.0249709
0.0249314
0.0248917
0.024852
0.0248122
0.0247722
0.0247322
0.024692
0.0246517
0.0246113
0.0245709
0.0245303
0.0244896
0.0244488
0.0244079
0.0243669
0.0243258
0.0242847
0.0242434
0.024202
0.0241605
0.024119
0.0240773
0.0240356
0.0239938
0.0239519
0.0239099
0.0238678
0.0238256
0.0237834
0.0237411
0.0236987
0.0236562
0.0236136
0.023571
0.0235283
0.0234855
0.0234426
0.0233997
0.0233567
0.0233137
0.0232705
0.0232273
0.0231841
0.0231407
0.0230974
0.0230539
0.0230104
0.0229668
0.0229232
0.0228795
0.0228358
0.022792
0.0227482
0.0227043
0.0226604
0.0226164
0.0225724
0.0225283
0.0224842
0.02244
0.0223958
0.0223515
0.0223073
0.0222629
0.0222186
0.0221742
0.0221297
0.0220853
0.0220408
0.0219963
0.0219517
0.0219071
0.0218625
0.0218179
0.0217732
0.0217285
0.0216838
0.0216391
0.0215943
0.0215496
0.0215048
0.02146
0.0214151
0.0213703
0.0213255
0.0212806
0.0212357
0.0211909
0.021146
0.0211011
0.0210562
0.0210113
0.0209663
0.0209214
0.0208765
0.0208316
0.0207867
0.0207418
0.0206968
0.0206519
0.020607
0.0205621
0.0205172
0.0204723
0.0204274
0.0203826
0.0203377
0.0202929
0.020248
0.0202032
0.0201584
0.0201136
0.0200688
0.020024
0.0199793
0.0199346
0.0198899
0.0198452
0.0198005
0.0197559
0.0197112
0.0196666
0.0196221
0.0195775
0.019533
0.0194885
0.0194441
0.0193996
0.0193552
0.0193109
0.0192665
0.0192222
0.0191779
0.0191337
0.0190895
0.0190453
0.0190012
0.0189571
0.018913
0.018869
0.018825
0.0187811
0.0187372
0.0186933
0.0186495
0.0186058
0.018562
0.0185183
0.0184747
0.0184311
0.0183876
0.0183441
0.0183006
0.0182572
0.0182138
0.0181705
0.0181273
0.0180841
0.0180409
0.0179978
0.0179548
0.0179118
0.0178688
0.0178259
0.0177831
0.0177403
0.0176976
0.0176549
0.0176123
0.0175697
0.0175272
0.0174848
0.0174424
0.0174001
0.0173578
0.0173157
0.0172735
0.0172266
0.0171757
0.0171255
0.017076
0.0170272
0.0169791
0.0169316
0.0168848
0.0168387
0.0167931
0.0167482
0.0167039
0.0166602
0.016617
0.0165744
0.0165324
0.0164908
0.0164498
0.0164093
0.0163693
0.0163298
0.0162908
0.0162522
0.0162141
0.0161764
0.0161392
0.0161024
0.016066
0.01603
0.0159944
0.0159592
0.0159244
0.01589
0.0158559
0.0158222
0.0157889
0.0157559
0.0157233
0.015691
0.015659
0.0156273
0.015596
0.015565
0.0155343
0.0155039
0.0154738
0.015444
0.0154144
0.0153852
0.0153562
0.0153275
0.0152991
0.0152709
0.015243
0.0152153
0.0151879
0.0151607
0.0151338
0.0151071
0.0150806
0.0150544
0.0150284
0.0150026
0.0149771
0.0149517
0.0149266
0.0149017
0.014877
0.0148524
0.0148281
0.014804
0.0147801
0.0147563
0.0147328
0.0147094
0.0146862
0.0146632
0.0146403
0.0146176
0.0145951
0.0145727
0.0145505
0.0145285
0.0145066
0.0144848
0.0144632
0.0144416
0.0144202
0.0143989
0.0143773
0.0143566
0.014336
0.0143019
0.0143208
0.0142608
)
;
    }
    symmetry
    {
        type            symmetryPlane;
    }
    frontAndBack
    {
        type            empty;
    }
}


// ************************************************************************* //
