/*--------------------------------*- C++ -*----------------------------------*\
| =========                 |                                                 |
| \\      /  F ield         | OpenFOAM: The Open Source CFD Toolbox           |
|  \\    /   O peration     | Version:  v2012                                 |
|   \\  /    A nd           | Website:  www.openfoam.com                      |
|    \\/     M anipulation  |                                                 |
\*---------------------------------------------------------------------------*/
FoamFile
{
    version     2.0;
    format      ascii;
    class       volScalarField;
    location    "25";
    object      epsilon;
}
// * * * * * * * * * * * * * * * * * * * * * * * * * * * * * * * * * * * * * //

dimensions      [0 2 -3 0 0 0 0];


internalField   nonuniform List<scalar> 
209825
(
0.754839
0.655516
0.602365
0.571724
0.55235
0.539222
0.529806
0.522818
0.517428
0.513211
0.509796
0.507029
0.504708
0.502776
0.501115
0.499715
0.49848
0.497429
0.49648
0.495669
0.494922
0.49428
0.493682
0.493173
0.492688
0.492274
0.491876
0.491545
0.491217
0.490936
0.490667
0.490449
0.490226
0.490042
0.489859
0.489719
0.489558
0.489433
0.489307
0.489212
0.489116
0.489052
0.488958
0.488893
0.488838
0.488801
0.488726
0.488696
0.488678
0.488653
0.488584
0.488634
0.488634
0.488633
0.488664
0.488664
0.488739
0.488866
0.48894
0.489102
0.489125
0.489125
0.489208
0.489315
0.489491
0.489656
0.489758
0.489872
0.490057
0.490222
0.490398
0.490617
0.490805
0.491022
0.491222
0.491468
0.491682
0.49201
0.492236
0.49263
0.492889
0.493348
0.493634
0.494189
0.494513
0.495191
0.495584
0.496415
0.496909
0.497987
0.498577
0.500421
0.500889
0.508464
2.93649
545.503
0.75484
0.655511
0.602353
0.571707
0.552329
0.539198
0.52978
0.522791
0.517399
0.513181
0.509765
0.506997
0.504676
0.502744
0.501082
0.499682
0.498446
0.497395
0.496446
0.495634
0.494888
0.494245
0.493647
0.493138
0.492653
0.492239
0.491841
0.491509
0.491181
0.490901
0.490632
0.490414
0.490191
0.490007
0.489823
0.489683
0.489522
0.489397
0.489271
0.489176
0.48908
0.489016
0.488922
0.488857
0.488802
0.488764
0.48869
0.48866
0.488641
0.488616
0.488548
0.488598
0.488598
0.488596
0.488627
0.488627
0.488702
0.48883
0.488903
0.489066
0.489088
0.489088
0.489172
0.489278
0.489454
0.489619
0.489722
0.489836
0.49002
0.490186
0.490361
0.490581
0.490768
0.490985
0.491185
0.491432
0.491645
0.491973
0.492199
0.492593
0.492853
0.493311
0.493598
0.494152
0.494477
0.495154
0.495547
0.496379
0.496872
0.49795
0.498541
0.500384
0.500852
0.508439
2.94102
542.17
0.75484
0.655483
0.602296
0.571628
0.552236
0.539093
0.529667
0.522672
0.517276
0.513053
0.509634
0.506864
0.50454
0.502606
0.500943
0.499542
0.498305
0.497253
0.496303
0.49549
0.494743
0.4941
0.493502
0.492992
0.492506
0.492092
0.491693
0.491361
0.491033
0.490752
0.490483
0.490264
0.490041
0.489857
0.489673
0.489533
0.489372
0.489247
0.489121
0.489025
0.488929
0.488865
0.48877
0.488706
0.488651
0.488613
0.488539
0.488509
0.48849
0.488465
0.488396
0.488446
0.488446
0.488444
0.488475
0.488475
0.48855
0.488678
0.488751
0.488913
0.488936
0.488936
0.489019
0.489126
0.489301
0.489466
0.489569
0.489683
0.489868
0.490033
0.490209
0.490428
0.490615
0.490833
0.491033
0.491279
0.491493
0.49182
0.492046
0.49244
0.4927
0.493158
0.493444
0.493998
0.494323
0.495
0.495393
0.496224
0.496717
0.497795
0.498385
0.500229
0.500694
0.508305
2.95029
538.209
0.754841
0.655434
0.602199
0.571495
0.552078
0.538917
0.529477
0.522471
0.517067
0.512838
0.509414
0.506639
0.504312
0.502375
0.500709
0.499305
0.498067
0.497012
0.496061
0.495247
0.494499
0.493855
0.493255
0.492745
0.492258
0.491843
0.491444
0.491111
0.490782
0.490501
0.490231
0.490012
0.489789
0.489604
0.48942
0.48928
0.489118
0.488993
0.488866
0.488771
0.488675
0.48861
0.488515
0.488451
0.488395
0.488357
0.488283
0.488253
0.488234
0.488209
0.48814
0.488189
0.488189
0.488188
0.488219
0.488219
0.488294
0.488421
0.488494
0.488656
0.488679
0.488679
0.488762
0.488869
0.489044
0.489209
0.489312
0.489426
0.48961
0.489776
0.489951
0.49017
0.490357
0.490575
0.490775
0.491021
0.491234
0.491562
0.491788
0.492181
0.492441
0.492899
0.493185
0.493739
0.494063
0.49474
0.495132
0.495963
0.496456
0.497533
0.498122
0.499965
0.500427
0.508075
2.96473
534.403
0.754842
0.655366
0.602062
0.571307
0.551854
0.538667
0.529208
0.522188
0.516772
0.512534
0.509102
0.506321
0.503989
0.502048
0.500378
0.498971
0.49773
0.496673
0.49572
0.494904
0.494154
0.493508
0.492907
0.492396
0.491908
0.491492
0.491092
0.490758
0.490428
0.490146
0.489876
0.489657
0.489432
0.489247
0.489063
0.488922
0.48876
0.488634
0.488507
0.488412
0.488315
0.48825
0.488155
0.48809
0.488035
0.487997
0.487922
0.487892
0.487873
0.487847
0.487778
0.487827
0.487827
0.487826
0.487856
0.487856
0.487931
0.488058
0.488131
0.488292
0.488315
0.488315
0.488399
0.488505
0.48868
0.488845
0.488949
0.489062
0.489246
0.489412
0.489587
0.489806
0.489993
0.49021
0.49041
0.490656
0.490869
0.491197
0.491423
0.491816
0.492075
0.492533
0.492819
0.493372
0.493696
0.494373
0.494765
0.495594
0.496087
0.497162
0.497751
0.499592
0.50005
0.507747
2.98477
531.097
0.754844
0.655277
0.601884
0.571064
0.551563
0.538343
0.528859
0.52182
0.516389
0.512139
0.508698
0.505909
0.50357
0.501623
0.499949
0.498538
0.497293
0.496233
0.495277
0.494459
0.493707
0.493059
0.492456
0.491943
0.491454
0.491036
0.490635
0.4903
0.489969
0.489687
0.489415
0.489195
0.48897
0.488784
0.488599
0.488457
0.488295
0.488169
0.488042
0.487946
0.487848
0.487783
0.487688
0.487623
0.487567
0.487529
0.487454
0.487423
0.487404
0.487378
0.487309
0.487357
0.487357
0.487356
0.487386
0.487386
0.48746
0.487587
0.487659
0.487821
0.487844
0.487844
0.487928
0.488034
0.488208
0.488373
0.488477
0.488591
0.488774
0.48894
0.489114
0.489333
0.48952
0.489738
0.489937
0.490184
0.490396
0.490723
0.490949
0.491342
0.491601
0.492058
0.492344
0.492897
0.49322
0.493896
0.494287
0.495116
0.495607
0.496681
0.497269
0.499108
0.499561
0.507322
3.01082
528.452
0.754846
0.655168
0.601665
0.570764
0.551206
0.537944
0.528429
0.521367
0.515918
0.511653
0.5082
0.505402
0.503054
0.501101
0.49942
0.498004
0.496755
0.495691
0.494731
0.49391
0.493155
0.492505
0.4919
0.491385
0.490894
0.490475
0.490072
0.489736
0.489404
0.48912
0.488848
0.488626
0.4884
0.488214
0.488028
0.487885
0.487723
0.487596
0.487468
0.487371
0.487273
0.487208
0.487112
0.487047
0.48699
0.486952
0.486877
0.486846
0.486826
0.486801
0.486731
0.486778
0.486778
0.486777
0.486806
0.486806
0.486881
0.487007
0.487079
0.48724
0.487263
0.487263
0.487347
0.487453
0.487627
0.487792
0.487896
0.488009
0.488192
0.488358
0.488532
0.488751
0.488938
0.489155
0.489354
0.489601
0.489813
0.49014
0.490365
0.490757
0.491016
0.491473
0.491758
0.492311
0.492634
0.493308
0.493699
0.494526
0.495017
0.496089
0.496675
0.498512
0.498958
0.506798
3.04331
526.525
0.754848
0.655039
0.601406
0.570407
0.550781
0.53747
0.527918
0.520827
0.515356
0.511074
0.507607
0.504797
0.50244
0.500478
0.49879
0.497368
0.496113
0.495045
0.494081
0.493257
0.492498
0.491845
0.491238
0.49072
0.490227
0.489806
0.489402
0.489064
0.48873
0.488445
0.488171
0.487949
0.487722
0.487534
0.487347
0.487204
0.48704
0.486913
0.486784
0.486687
0.486588
0.486522
0.486426
0.48636
0.486303
0.486264
0.486189
0.486158
0.486138
0.486112
0.486042
0.486088
0.486088
0.486087
0.486116
0.486116
0.48619
0.486316
0.486387
0.486548
0.486571
0.486571
0.486655
0.48676
0.486934
0.487099
0.487203
0.487316
0.487499
0.487664
0.487838
0.488057
0.488244
0.488461
0.488659
0.488906
0.489117
0.489444
0.489669
0.490061
0.490319
0.490776
0.49106
0.491612
0.491934
0.492608
0.492998
0.493823
0.494313
0.495382
0.495966
0.497801
0.498239
0.506174
3.08264
525.303
0.754852
0.65489
0.601105
0.569994
0.550287
0.536918
0.527324
0.5202
0.514704
0.510402
0.506917
0.504094
0.501725
0.499754
0.498058
0.496629
0.495368
0.494294
0.493325
0.492496
0.491734
0.491078
0.490467
0.489947
0.489452
0.489028
0.488621
0.488282
0.487946
0.48766
0.487384
0.487161
0.486932
0.486744
0.486555
0.486411
0.486247
0.486118
0.485989
0.485891
0.485791
0.485724
0.485628
0.485562
0.485504
0.485465
0.485389
0.485357
0.485337
0.485311
0.48524
0.485286
0.485286
0.485284
0.485312
0.485312
0.485386
0.485512
0.485582
0.485743
0.485766
0.485766
0.48585
0.485955
0.486128
0.486293
0.486397
0.48651
0.486692
0.486858
0.487031
0.48725
0.487436
0.487653
0.487851
0.488098
0.488308
0.488635
0.488859
0.489251
0.489508
0.489964
0.490248
0.490799
0.491121
0.491793
0.492182
0.493006
0.493494
0.494561
0.495143
0.496974
0.497403
0.50545
3.12922
524.721
0.754856
0.654721
0.600763
0.569523
0.549725
0.53629
0.526646
0.519485
0.513959
0.509633
0.50613
0.503291
0.500909
0.498927
0.497221
0.495784
0.494516
0.493436
0.492462
0.491628
0.490862
0.490202
0.489588
0.489064
0.488566
0.48814
0.487731
0.487389
0.487051
0.486763
0.486486
0.48626
0.486031
0.485841
0.485651
0.485506
0.48534
0.485211
0.48508
0.484981
0.484881
0.484813
0.484717
0.484649
0.484591
0.484552
0.484476
0.484443
0.484422
0.484396
0.484324
0.484369
0.484369
0.484367
0.484395
0.484394
0.484468
0.484593
0.484662
0.484823
0.484847
0.484847
0.48493
0.485035
0.485207
0.485372
0.485477
0.48559
0.485771
0.485936
0.486109
0.486327
0.486513
0.48673
0.486928
0.487175
0.487384
0.487711
0.487934
0.488325
0.488582
0.489038
0.48932
0.489871
0.490191
0.490862
0.49125
0.492071
0.492558
0.493622
0.494202
0.49603
0.496449
0.504624
3.18342
524.678
0.754861
0.654532
0.600379
0.568994
0.549092
0.535583
0.525883
0.51868
0.513121
0.508769
0.505244
0.502387
0.499991
0.497996
0.49628
0.494833
0.493557
0.49247
0.49149
0.490651
0.489879
0.489215
0.488597
0.48807
0.487568
0.487139
0.486727
0.486383
0.486043
0.485753
0.485474
0.485246
0.485015
0.484824
0.484632
0.484486
0.484319
0.484189
0.484057
0.483957
0.483856
0.483787
0.48369
0.483622
0.483563
0.483523
0.483447
0.483414
0.483392
0.483365
0.483293
0.483337
0.483337
0.483335
0.483362
0.483361
0.483434
0.483559
0.483626
0.483786
0.483811
0.483811
0.483895
0.483999
0.48417
0.484335
0.48444
0.484553
0.484733
0.484898
0.48507
0.485288
0.485474
0.485691
0.485888
0.486135
0.486344
0.48667
0.486892
0.487282
0.487538
0.487994
0.488276
0.488825
0.489145
0.489813
0.4902
0.491019
0.491504
0.492565
0.493142
0.494966
0.495374
0.503696
3.24558
525.048
0.754867
0.654324
0.599954
0.568407
0.54839
0.534797
0.525036
0.517785
0.512189
0.507807
0.504258
0.501382
0.498969
0.49696
0.495232
0.493775
0.49249
0.491395
0.490408
0.489562
0.488786
0.488116
0.487494
0.486963
0.486457
0.486025
0.48561
0.485263
0.484921
0.484628
0.484347
0.484118
0.483884
0.483691
0.483498
0.48335
0.483182
0.483051
0.482918
0.482817
0.482715
0.482645
0.482547
0.482478
0.482418
0.482378
0.482301
0.482267
0.482245
0.482218
0.482145
0.482187
0.482187
0.482185
0.482211
0.48221
0.482282
0.482406
0.482473
0.482633
0.482658
0.482658
0.482741
0.482845
0.483014
0.483179
0.483285
0.483398
0.483577
0.483742
0.483914
0.484131
0.484317
0.484533
0.48473
0.484976
0.485184
0.48551
0.485732
0.486121
0.486376
0.486831
0.487112
0.48766
0.487979
0.488645
0.489031
0.489847
0.490331
0.491388
0.491961
0.493782
0.494177
0.502664
3.31601
525.693
0.754874
0.654096
0.599488
0.567762
0.547617
0.533932
0.524102
0.516799
0.511161
0.506747
0.503172
0.500273
0.497842
0.495817
0.494076
0.492608
0.491312
0.490209
0.489214
0.488362
0.487579
0.486904
0.486277
0.485742
0.485232
0.484796
0.484378
0.484028
0.483683
0.483387
0.483104
0.482872
0.482637
0.482442
0.482247
0.482098
0.481928
0.481795
0.481661
0.481559
0.481455
0.481385
0.481286
0.481216
0.481155
0.481114
0.481037
0.481002
0.480979
0.480952
0.480878
0.480919
0.480919
0.480916
0.480941
0.48094
0.481012
0.481135
0.481201
0.48136
0.481385
0.481385
0.481469
0.481572
0.48174
0.481905
0.482011
0.482124
0.482302
0.482467
0.482638
0.482855
0.48304
0.483256
0.483452
0.483699
0.483905
0.484231
0.484451
0.48484
0.485094
0.485548
0.485828
0.486375
0.486692
0.487356
0.487741
0.488554
0.489036
0.490089
0.490659
0.492475
0.492856
0.501527
3.39494
526.468
0.754882
0.653849
0.59898
0.567058
0.546774
0.532987
0.523081
0.51572
0.510038
0.505588
0.501983
0.49906
0.496609
0.494567
0.492811
0.49133
0.490024
0.488911
0.487908
0.487048
0.486259
0.485578
0.484945
0.484405
0.483891
0.483451
0.483029
0.482676
0.482328
0.482029
0.481743
0.481509
0.481271
0.481075
0.480878
0.480726
0.480555
0.480421
0.480285
0.480182
0.480077
0.480005
0.479905
0.479835
0.479772
0.479731
0.479653
0.479618
0.479593
0.479566
0.479491
0.479531
0.479531
0.479527
0.479552
0.47955
0.479621
0.479744
0.479808
0.479966
0.479992
0.479992
0.480076
0.480178
0.480345
0.48051
0.480616
0.480729
0.480905
0.481071
0.48124
0.481457
0.481641
0.481858
0.482053
0.4823
0.482505
0.48283
0.48305
0.483438
0.48369
0.484143
0.484422
0.484967
0.485284
0.485945
0.486329
0.487139
0.487618
0.488666
0.489233
0.491045
0.49141
0.500284
3.48254
527.224
0.754892
0.653583
0.598432
0.566297
0.545859
0.531962
0.521973
0.51455
0.508818
0.504328
0.500691
0.497742
0.495269
0.493208
0.491437
0.489942
0.488624
0.487501
0.486488
0.48562
0.484823
0.484136
0.483497
0.482952
0.482433
0.481989
0.481563
0.481206
0.480854
0.480553
0.480264
0.480027
0.479787
0.479588
0.479389
0.479236
0.479063
0.478927
0.478789
0.478684
0.478578
0.478505
0.478404
0.478333
0.478269
0.478227
0.478148
0.478112
0.478087
0.478059
0.477983
0.478021
0.478021
0.478017
0.47804
0.478038
0.478109
0.478231
0.478293
0.478451
0.478477
0.478477
0.478561
0.478662
0.478828
0.478992
0.479099
0.479212
0.479387
0.479552
0.479721
0.479937
0.480121
0.480337
0.480532
0.480778
0.480982
0.481306
0.481525
0.481912
0.482164
0.482616
0.482893
0.483437
0.483752
0.484411
0.484793
0.485599
0.486076
0.487119
0.487682
0.489489
0.489838
0.498934
3.57887
527.821
0.754904
0.653299
0.597843
0.565477
0.544874
0.530856
0.520778
0.513286
0.5075
0.502968
0.499296
0.496318
0.493821
0.49174
0.489951
0.488442
0.487111
0.485976
0.484953
0.484077
0.483272
0.482578
0.481933
0.481381
0.480857
0.480408
0.479978
0.479617
0.479262
0.478957
0.478664
0.478425
0.478182
0.477981
0.477779
0.477624
0.477449
0.477311
0.477172
0.477065
0.476957
0.476883
0.476781
0.476708
0.476643
0.4766
0.476521
0.476484
0.476458
0.476429
0.476353
0.476389
0.476389
0.476385
0.476407
0.476404
0.476474
0.476595
0.476655
0.476812
0.476839
0.476839
0.476922
0.477023
0.477187
0.477352
0.477459
0.477571
0.477745
0.47791
0.478078
0.478293
0.478477
0.478693
0.478886
0.479133
0.479336
0.479659
0.479876
0.480262
0.480513
0.480964
0.48124
0.481782
0.482096
0.482751
0.483132
0.483934
0.484408
0.485447
0.486005
0.487807
0.488139
0.497476
3.6839
528.128
0.754917
0.652997
0.597214
0.564599
0.543817
0.529669
0.519495
0.511928
0.506085
0.501506
0.497796
0.494787
0.492264
0.490162
0.488354
0.486828
0.485483
0.484336
0.483303
0.482417
0.481603
0.480902
0.480249
0.479692
0.479162
0.478708
0.478273
0.477907
0.477548
0.47724
0.476944
0.476701
0.476456
0.476252
0.476047
0.47589
0.475713
0.475573
0.475432
0.475324
0.475214
0.475138
0.475035
0.474961
0.474895
0.474851
0.474771
0.474733
0.474705
0.474676
0.474599
0.474633
0.474633
0.474628
0.474649
0.474645
0.474715
0.474834
0.474893
0.475049
0.475076
0.475076
0.47516
0.47526
0.475422
0.475586
0.475695
0.475806
0.475979
0.476144
0.47631
0.476525
0.476708
0.476923
0.477116
0.477362
0.477564
0.477886
0.478103
0.478487
0.478736
0.479186
0.47946
0.480001
0.480313
0.480966
0.481345
0.482142
0.482614
0.483647
0.4842
0.485997
0.486311
0.495907
3.79743
528.025
0.754932
0.652677
0.596545
0.563663
0.54269
0.528402
0.518123
0.510477
0.504571
0.499942
0.496192
0.49315
0.490598
0.488473
0.486644
0.485101
0.483741
0.482581
0.481536
0.480639
0.479817
0.479107
0.478447
0.477883
0.477347
0.476887
0.476447
0.476077
0.475714
0.475402
0.475101
0.474856
0.474607
0.4744
0.474193
0.474033
0.473854
0.473712
0.473569
0.473459
0.473347
0.47327
0.473165
0.47309
0.473022
0.472977
0.472896
0.472857
0.472828
0.472799
0.47272
0.472752
0.472752
0.472747
0.472766
0.472762
0.472831
0.472949
0.473006
0.47316
0.473189
0.473188
0.473272
0.473371
0.473532
0.473695
0.473804
0.473915
0.474087
0.474251
0.474417
0.474631
0.474813
0.475028
0.47522
0.475466
0.475666
0.475987
0.476202
0.476586
0.476833
0.477282
0.477554
0.478093
0.478404
0.479053
0.47943
0.480223
0.480692
0.481719
0.482267
0.484057
0.484353
0.494226
3.91915
527.41
0.754949
0.652341
0.595837
0.56267
0.541491
0.527054
0.516663
0.508931
0.502958
0.498275
0.494482
0.491404
0.488822
0.486671
0.484821
0.48326
0.481883
0.480709
0.479651
0.478744
0.477911
0.477193
0.476525
0.475953
0.475411
0.474945
0.4745
0.474124
0.473756
0.47344
0.473136
0.472887
0.472634
0.472424
0.472214
0.472052
0.47187
0.471726
0.471581
0.471469
0.471355
0.471276
0.47117
0.471093
0.471024
0.470978
0.470896
0.470855
0.470826
0.470796
0.470716
0.470745
0.470745
0.47074
0.470757
0.470752
0.47082
0.470937
0.470992
0.471146
0.471174
0.471174
0.471258
0.471356
0.471515
0.471678
0.471787
0.471898
0.472067
0.472232
0.472396
0.472609
0.47279
0.473006
0.473196
0.473442
0.47364
0.473961
0.474174
0.474557
0.474803
0.475249
0.47552
0.476056
0.476366
0.477011
0.477386
0.478175
0.47864
0.479661
0.480204
0.481988
0.482264
0.492432
4.04853
526.185
0.754969
0.651988
0.59509
0.56162
0.540222
0.525624
0.515114
0.50729
0.501246
0.496506
0.492666
0.489549
0.486936
0.484758
0.482885
0.481303
0.479909
0.47872
0.477649
0.476729
0.475886
0.475158
0.474482
0.473902
0.473353
0.472881
0.472429
0.472049
0.471676
0.471356
0.471047
0.470794
0.470538
0.470325
0.470111
0.469946
0.469762
0.469616
0.469468
0.469353
0.469237
0.469157
0.469049
0.468971
0.468899
0.468852
0.46877
0.468728
0.468697
0.468666
0.468585
0.468612
0.468612
0.468606
0.468622
0.468616
0.468683
0.468798
0.468851
0.469003
0.469032
0.469032
0.469116
0.469213
0.46937
0.469532
0.469642
0.469753
0.469921
0.470085
0.470248
0.47046
0.47064
0.470855
0.471044
0.47129
0.471486
0.471806
0.472018
0.472399
0.472643
0.473088
0.473358
0.473891
0.474199
0.474841
0.475213
0.475997
0.476459
0.477473
0.478011
0.479788
0.480043
0.490522
4.18484
524.281
0.754991
0.65162
0.594305
0.560514
0.538882
0.524114
0.513476
0.505555
0.499434
0.494633
0.490744
0.487586
0.484938
0.482732
0.480834
0.479231
0.477818
0.476613
0.475527
0.474595
0.473741
0.473003
0.472317
0.47173
0.471173
0.470694
0.470236
0.46985
0.469472
0.469147
0.468834
0.468576
0.468316
0.4681
0.467883
0.467714
0.467528
0.467379
0.467228
0.467112
0.466993
0.466911
0.466802
0.466722
0.466648
0.4666
0.466517
0.466473
0.46644
0.466409
0.466327
0.466352
0.466351
0.466344
0.466359
0.466351
0.466418
0.466532
0.466582
0.466733
0.466763
0.466762
0.466846
0.466942
0.467097
0.467259
0.467369
0.46748
0.467645
0.467809
0.46797
0.468182
0.468361
0.468575
0.468763
0.469009
0.469203
0.469522
0.469732
0.470112
0.470354
0.470798
0.471065
0.471596
0.471902
0.472539
0.47291
0.473688
0.474146
0.475154
0.475685
0.477456
0.47769
0.488495
4.32714
521.639
0.755015
0.651237
0.593483
0.559352
0.537472
0.522524
0.511751
0.503726
0.497523
0.492657
0.488715
0.485514
0.48283
0.480592
0.478668
0.477043
0.47561
0.474387
0.473287
0.472341
0.471475
0.470726
0.470031
0.469435
0.46887
0.468384
0.467919
0.467527
0.467143
0.466813
0.466495
0.466233
0.465969
0.465749
0.465529
0.465357
0.465167
0.465015
0.464862
0.464743
0.464622
0.464538
0.464427
0.464345
0.46427
0.46422
0.464135
0.46409
0.464056
0.464024
0.463941
0.463963
0.463963
0.463955
0.463968
0.463959
0.464024
0.464136
0.464184
0.464334
0.464364
0.464364
0.464447
0.464542
0.464694
0.464856
0.464966
0.465077
0.46524
0.465404
0.465564
0.465774
0.465952
0.466166
0.466353
0.466598
0.466791
0.467108
0.467317
0.467694
0.467935
0.468377
0.468642
0.46917
0.469474
0.470107
0.470475
0.471247
0.471702
0.472702
0.473228
0.474991
0.475203
0.486347
4.4742
518.212
0.755042
0.650839
0.592625
0.558134
0.535994
0.520854
0.509937
0.501802
0.495513
0.490578
0.48658
0.483332
0.48061
0.478339
0.476387
0.474738
0.473285
0.472044
0.470927
0.469967
0.469088
0.468328
0.467622
0.467017
0.466443
0.46595
0.465478
0.465079
0.46469
0.464354
0.464031
0.463764
0.463496
0.463272
0.463048
0.462872
0.46268
0.462525
0.462369
0.462248
0.462124
0.462037
0.461924
0.461841
0.461763
0.461712
0.461626
0.46158
0.461543
0.461511
0.461427
0.461446
0.461445
0.461437
0.461448
0.461437
0.461502
0.461612
0.461656
0.461805
0.461836
0.461835
0.461919
0.462013
0.462162
0.462323
0.462434
0.462544
0.462706
0.462869
0.463027
0.463236
0.463413
0.463627
0.463812
0.464057
0.464247
0.464563
0.46477
0.465146
0.465384
0.465824
0.466087
0.466613
0.466914
0.467543
0.467909
0.468675
0.469126
0.470118
0.470637
0.472392
0.472583
0.484077
4.62454
513.968
0.755072
0.650428
0.591731
0.556863
0.534447
0.519104
0.508035
0.499784
0.493404
0.488396
0.484338
0.481041
0.478278
0.475973
0.473991
0.472317
0.470841
0.469581
0.468447
0.467472
0.466579
0.465807
0.46509
0.464475
0.463893
0.463392
0.462912
0.462507
0.462111
0.46177
0.461441
0.461169
0.460896
0.460668
0.46044
0.460261
0.460065
0.459907
0.459748
0.459624
0.459497
0.459408
0.459293
0.459208
0.459128
0.459075
0.458988
0.45894
0.458902
0.458868
0.458783
0.4588
0.458799
0.458789
0.458798
0.458786
0.45885
0.458957
0.458999
0.459146
0.459177
0.459177
0.45926
0.459353
0.4595
0.45966
0.459772
0.459882
0.460041
0.460204
0.46036
0.460568
0.460743
0.460956
0.46114
0.461384
0.461573
0.461887
0.462093
0.462466
0.462703
0.46314
0.463401
0.463923
0.464223
0.464847
0.465209
0.465969
0.466417
0.4674
0.467913
0.46966
0.469828
0.481681
4.7764
508.884
0.755105
0.650005
0.590803
0.555539
0.532832
0.517276
0.506047
0.497672
0.491195
0.48611
0.48199
0.478641
0.475835
0.473494
0.47148
0.469779
0.46828
0.466999
0.465847
0.464856
0.463949
0.463165
0.462436
0.461811
0.461219
0.460709
0.460221
0.459809
0.459406
0.459059
0.458724
0.458448
0.45817
0.457937
0.457705
0.457522
0.457322
0.457162
0.456999
0.456872
0.456742
0.456651
0.456534
0.456446
0.456364
0.45631
0.456221
0.456171
0.456131
0.456097
0.456011
0.456024
0.456023
0.456012
0.456019
0.456005
0.456068
0.456173
0.456212
0.456357
0.456389
0.456389
0.456471
0.456563
0.456708
0.456866
0.456978
0.457088
0.457245
0.457407
0.457561
0.457768
0.457943
0.458155
0.458337
0.458581
0.458767
0.45908
0.459283
0.459655
0.459889
0.460324
0.460583
0.461101
0.461398
0.462018
0.462377
0.463131
0.463574
0.464549
0.465055
0.466792
0.466938
0.479156
4.9277
502.947
0.755141
0.649569
0.589842
0.554163
0.53115
0.515369
0.503972
0.495467
0.488889
0.483722
0.479535
0.476132
0.47328
0.470901
0.468854
0.467124
0.465601
0.464298
0.463127
0.46212
0.461198
0.4604
0.459659
0.459023
0.458421
0.457902
0.457406
0.456986
0.456576
0.456223
0.455882
0.4556
0.455317
0.45508
0.454842
0.454655
0.454452
0.454288
0.454122
0.453992
0.453859
0.453765
0.453646
0.453556
0.453471
0.453415
0.453325
0.453273
0.453231
0.453196
0.453109
0.453119
0.453117
0.453105
0.45311
0.453094
0.453156
0.453258
0.453295
0.453438
0.45347
0.45347
0.453552
0.453643
0.453784
0.453942
0.454054
0.454164
0.454318
0.454479
0.454632
0.454837
0.45501
0.455222
0.455402
0.455645
0.455829
0.45614
0.456342
0.456711
0.456943
0.457375
0.457632
0.458147
0.458441
0.459055
0.459412
0.460159
0.460597
0.461564
0.462062
0.46379
0.463914
0.476499
5.07606
496.147
0.75518
0.649123
0.588849
0.552736
0.529403
0.513386
0.501811
0.49317
0.486484
0.481232
0.476975
0.473515
0.470615
0.468195
0.466114
0.464354
0.462804
0.461479
0.460288
0.459263
0.458325
0.457513
0.456759
0.456111
0.455499
0.454971
0.454466
0.454037
0.453621
0.453261
0.452913
0.452625
0.452337
0.452095
0.451852
0.451661
0.451454
0.451287
0.451117
0.450984
0.450847
0.45075
0.450629
0.450537
0.450449
0.450391
0.4503
0.450246
0.450201
0.450165
0.450077
0.450085
0.450082
0.450069
0.450072
0.450053
0.450113
0.450213
0.450247
0.450388
0.45042
0.45042
0.450502
0.450591
0.45073
0.450886
0.450999
0.451108
0.451259
0.451421
0.451571
0.451775
0.451946
0.452157
0.452335
0.452578
0.45276
0.453069
0.453268
0.453635
0.453864
0.454294
0.454548
0.455059
0.455351
0.45596
0.456313
0.457053
0.457487
0.458444
0.458935
0.460652
0.460754
0.473708
5.21883
488.479
0.755223
0.648667
0.587826
0.551259
0.527591
0.511327
0.499565
0.490781
0.483983
0.47864
0.47431
0.47079
0.467839
0.465376
0.463259
0.461467
0.45989
0.458541
0.457329
0.456285
0.455331
0.454504
0.453737
0.453077
0.452453
0.451915
0.451401
0.450964
0.450539
0.450173
0.449818
0.449524
0.44923
0.448983
0.448736
0.44854
0.448329
0.448157
0.447984
0.447847
0.447707
0.447607
0.447483
0.447389
0.447298
0.447238
0.447145
0.447089
0.447042
0.447005
0.446917
0.446921
0.446917
0.446903
0.446903
0.446882
0.446941
0.447038
0.447069
0.447208
0.44724
0.44724
0.447322
0.447409
0.447545
0.4477
0.447812
0.447921
0.44807
0.44823
0.448379
0.448581
0.44875
0.448961
0.449137
0.449379
0.449558
0.449865
0.450062
0.450426
0.450653
0.45108
0.451332
0.451839
0.452128
0.452731
0.453081
0.453813
0.454242
0.45519
0.455674
0.457379
0.45746
0.470777
5.35307
479.94
0.75527
0.648202
0.586774
0.549735
0.525717
0.509193
0.497236
0.488302
0.481385
0.475948
0.471541
0.467957
0.464953
0.462446
0.46029
0.458465
0.45686
0.455486
0.454251
0.453188
0.452216
0.451373
0.450592
0.449919
0.449284
0.448736
0.448212
0.447766
0.447333
0.446959
0.446598
0.446297
0.445997
0.445745
0.445492
0.445292
0.445076
0.444901
0.444723
0.444583
0.444439
0.444336
0.444209
0.444112
0.444018
0.443956
0.443861
0.443803
0.443754
0.443716
0.443627
0.443627
0.443622
0.443608
0.443605
0.443581
0.443639
0.443733
0.44376
0.443897
0.443929
0.443929
0.44401
0.444096
0.444229
0.444382
0.444495
0.444604
0.44475
0.444909
0.445055
0.445256
0.445423
0.445633
0.445806
0.446048
0.446225
0.44653
0.446724
0.447086
0.44731
0.447734
0.447983
0.448485
0.448772
0.449369
0.449715
0.45044
0.450864
0.451801
0.452277
0.45397
0.45403
0.467702
5.47561
470.524
0.75532
0.64773
0.585694
0.548164
0.523781
0.506987
0.494825
0.485733
0.478692
0.473156
0.468668
0.465018
0.461958
0.459404
0.457208
0.455349
0.453713
0.452313
0.451055
0.449971
0.448981
0.448122
0.447326
0.44664
0.445992
0.445433
0.444899
0.444444
0.444003
0.443621
0.443252
0.442945
0.442638
0.44238
0.442122
0.441916
0.441696
0.441517
0.441335
0.441191
0.441043
0.440937
0.440807
0.440708
0.44061
0.440546
0.440449
0.440389
0.440337
0.440298
0.440209
0.440206
0.440199
0.440183
0.440178
0.440151
0.440208
0.440298
0.440322
0.440456
0.440488
0.440488
0.440569
0.440653
0.440783
0.440935
0.441047
0.441156
0.441299
0.441457
0.441601
0.441799
0.441965
0.442174
0.442345
0.442585
0.44276
0.443063
0.443255
0.443613
0.443834
0.444255
0.444501
0.444999
0.445283
0.445873
0.446217
0.446933
0.447352
0.448279
0.448747
0.450426
0.450467
0.464481
5.5831
460.226
0.755374
0.647251
0.584588
0.546549
0.521785
0.504708
0.492333
0.483076
0.475905
0.470265
0.465693
0.461973
0.458855
0.456252
0.454014
0.452118
0.450451
0.449023
0.447741
0.446636
0.445626
0.44475
0.443939
0.443239
0.442579
0.442008
0.441463
0.440999
0.440548
0.440158
0.439782
0.439467
0.439154
0.43889
0.438626
0.438415
0.43819
0.438006
0.43782
0.437672
0.437521
0.437411
0.437278
0.437176
0.437075
0.437008
0.43691
0.436847
0.436792
0.436752
0.436662
0.436655
0.436647
0.43663
0.436623
0.436592
0.436647
0.436734
0.436755
0.436886
0.436918
0.436918
0.436998
0.437081
0.437207
0.437357
0.437469
0.437578
0.437717
0.437875
0.438016
0.438213
0.438376
0.438584
0.438753
0.438992
0.439164
0.439464
0.439654
0.440009
0.440228
0.440645
0.440888
0.441381
0.441662
0.442246
0.442585
0.443293
0.443706
0.444623
0.445083
0.446747
0.446769
0.461109
5.67206
449.041
0.755432
0.646766
0.583458
0.544892
0.519732
0.50236
0.489761
0.480332
0.473026
0.467278
0.462617
0.458824
0.455645
0.45299
0.450708
0.448775
0.447075
0.445618
0.444311
0.443183
0.442153
0.44126
0.440432
0.439717
0.439044
0.438461
0.437905
0.43743
0.43697
0.436572
0.436187
0.435866
0.435545
0.435275
0.435005
0.434789
0.434559
0.43437
0.434179
0.434028
0.433871
0.433758
0.433622
0.433517
0.433412
0.433343
0.433242
0.433177
0.433119
0.433078
0.432987
0.432977
0.432967
0.432949
0.432939
0.432905
0.432958
0.433041
0.433059
0.433188
0.433219
0.433219
0.433299
0.433379
0.433502
0.43365
0.433762
0.43387
0.434006
0.434162
0.434301
0.434496
0.434658
0.434864
0.43503
0.435269
0.435437
0.435735
0.435922
0.436274
0.43649
0.436903
0.437143
0.437631
0.437909
0.438486
0.438821
0.439521
0.439929
0.440834
0.441285
0.442933
0.442938
0.457581
5.739
436.961
0.755494
0.646277
0.582306
0.543193
0.517622
0.499943
0.487112
0.477503
0.470056
0.464194
0.459441
0.455572
0.452329
0.449621
0.447293
0.44532
0.443585
0.442099
0.440764
0.439614
0.438563
0.437651
0.436805
0.436076
0.435388
0.434793
0.434225
0.43374
0.433271
0.432864
0.43247
0.432141
0.431813
0.431537
0.43126
0.431038
0.430803
0.43061
0.430413
0.430258
0.430097
0.42998
0.42984
0.429732
0.429624
0.429552
0.429449
0.429381
0.42932
0.429278
0.429186
0.429172
0.429159
0.42914
0.429129
0.429091
0.429142
0.42922
0.429235
0.429361
0.429392
0.429391
0.429471
0.429549
0.429669
0.429814
0.429926
0.430034
0.430167
0.430322
0.430458
0.43065
0.43081
0.431014
0.431178
0.431415
0.431581
0.431877
0.43206
0.432409
0.432621
0.433031
0.433268
0.43375
0.434025
0.434595
0.434926
0.435617
0.436019
0.436913
0.437356
0.438986
0.438974
0.453893
5.78046
423.98
0.75556
0.645785
0.581133
0.541456
0.515458
0.49746
0.484387
0.474591
0.466996
0.461016
0.456167
0.452218
0.448909
0.446145
0.443769
0.441755
0.439984
0.438466
0.437104
0.435929
0.434856
0.433924
0.433062
0.432316
0.431614
0.431006
0.430426
0.42993
0.42945
0.429034
0.428631
0.428294
0.427959
0.427676
0.427392
0.427164
0.426923
0.426725
0.426524
0.426364
0.426198
0.426077
0.425934
0.425823
0.425711
0.425636
0.42553
0.42546
0.425396
0.425351
0.425259
0.425241
0.425226
0.425205
0.425192
0.42515
0.4252
0.425273
0.425285
0.425408
0.425437
0.425437
0.425516
0.425592
0.425709
0.425851
0.425962
0.42607
0.426199
0.426353
0.426486
0.426676
0.426833
0.427036
0.427198
0.427433
0.427596
0.427889
0.42807
0.428415
0.428624
0.429029
0.429263
0.42974
0.430011
0.430574
0.430901
0.431582
0.431978
0.43286
0.433294
0.434906
0.434879
0.450041
5.79327
410.094
0.755631
0.645291
0.579942
0.539683
0.513243
0.494914
0.481588
0.471598
0.463849
0.457746
0.452797
0.448765
0.445387
0.442564
0.440138
0.438081
0.436272
0.434722
0.433331