/*--------------------------------*- C++ -*----------------------------------*\
| =========                 |                                                 |
| \\      /  F ield         | OpenFOAM: The Open Source CFD Toolbox           |
|  \\    /   O peration     | Version:  v2012                                 |
|   \\  /    A nd           | Website:  www.openfoam.com                      |
|    \\/     M anipulation  |                                                 |
\*---------------------------------------------------------------------------*/
FoamFile
{
    version     2.0;
    format      ascii;
    class       volScalarField;
    location    "25";
    object      nut;
}
// * * * * * * * * * * * * * * * * * * * * * * * * * * * * * * * * * * * * * //

dimensions      [0 2 -1 0 0 0 0];


internalField   nonuniform List<scalar> 
209825
(
1.24747e-07
1.18389e-07
1.10103e-07
1.0277e-07
9.68941e-08
9.22756e-08
8.85761e-08
8.55873e-08
8.31052e-08
8.10423e-08
7.92783e-08
7.77807e-08
7.6472e-08
7.53444e-08
7.43378e-08
7.34643e-08
7.26721e-08
7.1981e-08
7.13443e-08
7.07865e-08
7.02658e-08
6.98092e-08
6.93757e-08
6.89968e-08
6.86341e-08
6.83177e-08
6.80098e-08
6.77413e-08
6.7482e-08
6.72537e-08
6.7028e-08
6.68341e-08
6.6642e-08
6.64776e-08
6.63121e-08
6.61681e-08
6.60222e-08
6.58996e-08
6.57716e-08
6.56647e-08
6.55533e-08
6.54591e-08
6.53622e-08
6.52811e-08
6.51934e-08
6.51227e-08
6.50487e-08
6.49904e-08
6.49206e-08
6.48691e-08
6.48182e-08
6.47669e-08
6.47117e-08
6.46744e-08
6.46281e-08
6.45969e-08
6.45493e-08
6.451e-08
6.44724e-08
6.44262e-08
6.44013e-08
6.43871e-08
6.43448e-08
6.43181e-08
6.4289e-08
6.42609e-08
6.42339e-08
6.42403e-08
6.42233e-08
6.42291e-08
6.42316e-08
6.42447e-08
6.42429e-08
6.42577e-08
6.42538e-08
6.42715e-08
6.42719e-08
6.42924e-08
6.43009e-08
6.43301e-08
6.43406e-08
6.43726e-08
6.43867e-08
6.44218e-08
6.44412e-08
6.44827e-08
6.45071e-08
6.45573e-08
6.45833e-08
6.46405e-08
6.46656e-08
6.47382e-08
6.47431e-08
6.52501e-08
3.15068e-06
2.01042e-08
1.24747e-07
1.1839e-07
1.10105e-07
1.02772e-07
9.68961e-08
9.22774e-08
8.85777e-08
8.55887e-08
8.31064e-08
8.10433e-08
7.9279e-08
7.77813e-08
7.64725e-08
7.53447e-08
7.4338e-08
7.34644e-08
7.26721e-08
7.19809e-08
7.13442e-08
7.07862e-08
7.02655e-08
6.98088e-08
6.93752e-08
6.89963e-08
6.86336e-08
6.83171e-08
6.80092e-08
6.77407e-08
6.74813e-08
6.72529e-08
6.70273e-08
6.68333e-08
6.66412e-08
6.64767e-08
6.63112e-08
6.61672e-08
6.60213e-08
6.58986e-08
6.57707e-08
6.56638e-08
6.55523e-08
6.5458e-08
6.53612e-08
6.52801e-08
6.51924e-08
6.51217e-08
6.50477e-08
6.49893e-08
6.49195e-08
6.4868e-08
6.48171e-08
6.47658e-08
6.47105e-08
6.46733e-08
6.46269e-08
6.45957e-08
6.45482e-08
6.45088e-08
6.44712e-08
6.4425e-08
6.44001e-08
6.43859e-08
6.43436e-08
6.43169e-08
6.42878e-08
6.42596e-08
6.42327e-08
6.42391e-08
6.4222e-08
6.42279e-08
6.42304e-08
6.42434e-08
6.42416e-08
6.42564e-08
6.42525e-08
6.42702e-08
6.42706e-08
6.42911e-08
6.42996e-08
6.43288e-08
6.43393e-08
6.43713e-08
6.43853e-08
6.44205e-08
6.44398e-08
6.44814e-08
6.45057e-08
6.4556e-08
6.45819e-08
6.46391e-08
6.46643e-08
6.47368e-08
6.47417e-08
6.52493e-08
3.15107e-06
2.02681e-08
1.24748e-07
1.18395e-07
1.10113e-07
1.0278e-07
9.69042e-08
9.22846e-08
8.85839e-08
8.55939e-08
8.31107e-08
8.10468e-08
7.92819e-08
7.77835e-08
7.64741e-08
7.53458e-08
7.43387e-08
7.34647e-08
7.2672e-08
7.19805e-08
7.13434e-08
7.07852e-08
7.02643e-08
6.98073e-08
6.93735e-08
6.89944e-08
6.86315e-08
6.83148e-08
6.80067e-08
6.77381e-08
6.74786e-08
6.72501e-08
6.70243e-08
6.68303e-08
6.6638e-08
6.64734e-08
6.63079e-08
6.61638e-08
6.60177e-08
6.5895e-08
6.5767e-08
6.566e-08
6.55485e-08
6.54542e-08
6.53572e-08
6.52761e-08
6.51883e-08
6.51176e-08
6.50435e-08
6.49851e-08
6.49153e-08
6.48637e-08
6.48128e-08
6.47614e-08
6.47062e-08
6.46689e-08
6.46225e-08
6.45913e-08
6.45437e-08
6.45043e-08
6.44667e-08
6.44205e-08
6.43955e-08
6.43813e-08
6.4339e-08
6.43123e-08
6.42832e-08
6.4255e-08
6.4228e-08
6.42343e-08
6.42172e-08
6.4223e-08
6.42255e-08
6.42385e-08
6.42367e-08
6.42515e-08
6.42475e-08
6.42653e-08
6.42656e-08
6.42861e-08
6.42946e-08
6.43237e-08
6.43342e-08
6.43662e-08
6.43802e-08
6.44154e-08
6.44347e-08
6.44762e-08
6.45005e-08
6.45507e-08
6.45766e-08
6.46338e-08
6.4659e-08
6.47315e-08
6.47363e-08
6.52453e-08
3.15159e-06
2.04973e-08
1.24748e-07
1.18404e-07
1.10127e-07
1.02795e-07
9.69179e-08
9.22967e-08
8.85943e-08
8.56027e-08
8.3118e-08
8.10528e-08
7.92867e-08
7.77873e-08
7.64769e-08
7.53478e-08
7.43399e-08
7.34652e-08
7.26719e-08
7.19798e-08
7.13422e-08
7.07836e-08
7.02622e-08
6.98049e-08
6.93707e-08
6.89913e-08
6.8628e-08
6.83111e-08
6.80028e-08
6.77339e-08
6.74742e-08
6.72454e-08
6.70194e-08
6.68252e-08
6.66328e-08
6.64681e-08
6.63023e-08
6.61581e-08
6.60119e-08
6.58891e-08
6.57609e-08
6.56538e-08
6.55422e-08
6.54478e-08
6.53507e-08
6.52695e-08
6.51817e-08
6.51108e-08
6.50367e-08
6.49782e-08
6.49083e-08
6.48567e-08
6.48057e-08
6.47543e-08
6.4699e-08
6.46616e-08
6.46152e-08
6.4584e-08
6.45363e-08
6.44968e-08
6.44592e-08
6.4413e-08
6.4388e-08
6.43737e-08
6.43314e-08
6.43047e-08
6.42755e-08
6.42473e-08
6.42202e-08
6.42264e-08
6.42093e-08
6.4215e-08
6.42175e-08
6.42305e-08
6.42286e-08
6.42434e-08
6.42394e-08
6.42571e-08
6.42574e-08
6.42778e-08
6.42863e-08
6.43154e-08
6.43258e-08
6.43577e-08
6.43718e-08
6.44069e-08
6.44261e-08
6.44676e-08
6.44919e-08
6.45421e-08
6.45679e-08
6.46251e-08
6.46502e-08
6.47227e-08
6.47274e-08
6.52385e-08
3.15234e-06
2.07679e-08
1.24749e-07
1.18417e-07
1.10146e-07
1.02816e-07
9.69373e-08
9.23139e-08
8.86091e-08
8.56152e-08
8.31285e-08
8.10614e-08
7.92936e-08
7.77926e-08
7.6481e-08
7.53506e-08
7.43416e-08
7.3466e-08
7.26718e-08
7.19789e-08
7.13406e-08
7.07813e-08
7.02593e-08
6.98015e-08
6.93668e-08
6.89869e-08
6.86232e-08
6.83059e-08
6.79972e-08
6.7728e-08
6.74679e-08
6.72389e-08
6.70126e-08
6.68182e-08
6.66255e-08
6.64605e-08
6.62946e-08
6.61501e-08
6.60038e-08
6.58808e-08
6.57524e-08
6.56452e-08
6.55334e-08
6.54388e-08
6.53416e-08
6.52603e-08
6.51723e-08
6.51014e-08
6.50271e-08
6.49685e-08
6.48985e-08
6.48468e-08
6.47957e-08
6.47443e-08
6.46889e-08
6.46514e-08
6.4605e-08
6.45737e-08
6.45259e-08
6.44864e-08
6.44488e-08
6.44026e-08
6.43774e-08
6.43631e-08
6.43208e-08
6.4294e-08
6.42648e-08
6.42366e-08
6.42092e-08
6.42154e-08
6.41981e-08
6.42039e-08
6.42062e-08
6.42192e-08
6.42173e-08
6.4232e-08
6.4228e-08
6.42456e-08
6.42459e-08
6.42662e-08
6.42747e-08
6.43036e-08
6.43141e-08
6.43459e-08
6.436e-08
6.43949e-08
6.44142e-08
6.44555e-08
6.44798e-08
6.45299e-08
6.45557e-08
6.46128e-08
6.46378e-08
6.47103e-08
6.47148e-08
6.5229e-08
3.15337e-06
2.10701e-08
1.24751e-07
1.18433e-07
1.10171e-07
1.02843e-07
9.69626e-08
9.23362e-08
8.86284e-08
8.56315e-08
8.31421e-08
8.10725e-08
7.93026e-08
7.77997e-08
7.64863e-08
7.53544e-08
7.4344e-08
7.34671e-08
7.26718e-08
7.19779e-08
7.13387e-08
7.07785e-08
7.02557e-08
6.97972e-08
6.93618e-08
6.89813e-08
6.86171e-08
6.82993e-08
6.79901e-08
6.77204e-08
6.74599e-08
6.72306e-08
6.70039e-08
6.68091e-08
6.66161e-08
6.64508e-08
6.62846e-08
6.61399e-08
6.59933e-08
6.587e-08
6.57415e-08
6.5634e-08
6.55221e-08
6.54273e-08
6.53299e-08
6.52484e-08
6.51603e-08
6.50892e-08
6.50148e-08
6.4956e-08
6.48859e-08
6.48341e-08
6.47829e-08
6.47315e-08
6.46759e-08
6.46383e-08
6.45918e-08
6.45604e-08
6.45126e-08
6.4473e-08
6.44353e-08
6.4389e-08
6.43637e-08
6.43495e-08
6.43071e-08
6.42802e-08
6.42509e-08
6.42227e-08
6.41951e-08
6.42011e-08
6.41838e-08
6.41894e-08
6.41917e-08
6.42046e-08
6.42026e-08
6.42172e-08
6.42132e-08
6.42307e-08
6.4231e-08
6.42512e-08
6.42596e-08
6.42885e-08
6.42989e-08
6.43306e-08
6.43447e-08
6.43795e-08
6.43987e-08
6.444e-08
6.44642e-08
6.45142e-08
6.45399e-08
6.45969e-08
6.46219e-08
6.46944e-08
6.46986e-08
6.52166e-08
3.15473e-06
2.14005e-08
1.24753e-07
1.18453e-07
1.10202e-07
1.02876e-07
9.69937e-08
9.23639e-08
8.86522e-08
8.56517e-08
8.31589e-08
8.10864e-08
7.93137e-08
7.78085e-08
7.64929e-08
7.53591e-08
7.4347e-08
7.34686e-08
7.26718e-08
7.19767e-08
7.13363e-08
7.07751e-08
7.02514e-08
6.97919e-08
6.93558e-08
6.89745e-08
6.86096e-08
6.82912e-08
6.79814e-08
6.77111e-08
6.74501e-08
6.72203e-08
6.69932e-08
6.6798e-08
6.66046e-08
6.64389e-08
6.62723e-08
6.61273e-08
6.59804e-08
6.58569e-08
6.5728e-08
6.56204e-08
6.55081e-08
6.54131e-08
6.53155e-08
6.52338e-08
6.51455e-08
6.50742e-08
6.49996e-08
6.49407e-08
6.48704e-08
6.48185e-08
6.47671e-08
6.47156e-08
6.46599e-08
6.46222e-08
6.45756e-08
6.45441e-08
6.44961e-08
6.44564e-08
6.44187e-08
6.43724e-08
6.43469e-08
6.43326e-08
6.42903e-08
6.42632e-08
6.42339e-08
6.42056e-08
6.41777e-08
6.41836e-08
6.41661e-08
6.41716e-08
6.41738e-08
6.41866e-08
6.41846e-08
6.41991e-08
6.4195e-08
6.42124e-08
6.42127e-08
6.42328e-08
6.42411e-08
6.42698e-08
6.42803e-08
6.43118e-08
6.43258e-08
6.43606e-08
6.43797e-08
6.44208e-08
6.4445e-08
6.44948e-08
6.45205e-08
6.45774e-08
6.46023e-08
6.46747e-08
6.46786e-08
6.52014e-08
3.15647e-06
2.17594e-08
1.24755e-07
1.18477e-07
1.10239e-07
1.02916e-07
9.70309e-08
9.23969e-08
8.86807e-08
8.56759e-08
8.31791e-08
8.1103e-08
7.93272e-08
7.7819e-08
7.65009e-08
7.53649e-08
7.43507e-08
7.34704e-08
7.2672e-08
7.19753e-08
7.13335e-08
7.07711e-08
7.02462e-08
6.97857e-08
6.93486e-08
6.89665e-08
6.86007e-08
6.82815e-08
6.7971e-08
6.77001e-08
6.74385e-08
6.72081e-08
6.69805e-08
6.67847e-08
6.65908e-08
6.64248e-08
6.62578e-08
6.61124e-08
6.59651e-08
6.58412e-08
6.5712e-08
6.56041e-08
6.54915e-08
6.53963e-08
6.52984e-08
6.52165e-08
6.51279e-08
6.50564e-08
6.49815e-08
6.49225e-08
6.4852e-08
6.47998e-08
6.47483e-08
6.46968e-08
6.46409e-08
6.4603e-08
6.45563e-08
6.45247e-08
6.44766e-08
6.44367e-08
6.4399e-08
6.43526e-08
6.43269e-08
6.43126e-08
6.42702e-08
6.42431e-08
6.42136e-08
6.41852e-08
6.4157e-08
6.41627e-08
6.4145e-08
6.41505e-08
6.41525e-08
6.41652e-08
6.41631e-08
6.41776e-08
6.41734e-08
6.41906e-08
6.41909e-08
6.42108e-08
6.42191e-08
6.42476e-08
6.4258e-08
6.42894e-08
6.43034e-08
6.4338e-08
6.4357e-08
6.4398e-08
6.44221e-08
6.44717e-08
6.44974e-08
6.45541e-08
6.45789e-08
6.46513e-08
6.46548e-08
6.51833e-08
3.15864e-06
2.21498e-08
1.24757e-07
1.18505e-07
1.10282e-07
1.02962e-07
9.70743e-08
9.24355e-08
8.8714e-08
8.57042e-08
8.32028e-08
8.11225e-08
7.93429e-08
7.78315e-08
7.65103e-08
7.53716e-08
7.4355e-08
7.34727e-08
7.26723e-08
7.19738e-08
7.13304e-08
7.07665e-08
7.02403e-08
6.97786e-08
6.93403e-08
6.89572e-08
6.85904e-08
6.82704e-08
6.7959e-08
6.76874e-08
6.7425e-08
6.7194e-08
6.69657e-08
6.67694e-08
6.65749e-08
6.64083e-08
6.62408e-08
6.6095e-08
6.59473e-08
6.5823e-08
6.56935e-08
6.55851e-08
6.54722e-08
6.53767e-08
6.52785e-08
6.51963e-08
6.51074e-08
6.50357e-08
6.49605e-08
6.49012e-08
6.48306e-08
6.47782e-08
6.47265e-08
6.46748e-08
6.46187e-08
6.45807e-08
6.45338e-08
6.4502e-08
6.44538e-08
6.44138e-08
6.43761e-08
6.43296e-08
6.43037e-08
6.42893e-08
6.42468e-08
6.42196e-08
6.419e-08
6.41615e-08
6.4133e-08
6.41384e-08
6.41205e-08
6.41259e-08
6.41277e-08
6.41403e-08
6.41381e-08
6.41525e-08
6.41482e-08
6.41653e-08
6.41655e-08
6.41852e-08
6.41934e-08
6.42218e-08
6.42321e-08
6.42634e-08
6.42773e-08
6.43116e-08
6.43307e-08
6.43714e-08
6.43954e-08
6.44449e-08
6.44705e-08
6.4527e-08
6.45517e-08
6.4624e-08
6.46271e-08
6.51623e-08
3.16126e-06
2.25768e-08
1.2476e-07
1.18536e-07
1.10332e-07
1.03015e-07
9.71241e-08
9.24797e-08
8.87523e-08
8.57367e-08
8.323e-08
8.1145e-08
7.93611e-08
7.78458e-08
7.65213e-08
7.53795e-08
7.43602e-08
7.34753e-08
7.26727e-08
7.19722e-08
7.1327e-08
7.07614e-08
7.02336e-08
6.97705e-08
6.9331e-08
6.89466e-08
6.85787e-08
6.82577e-08
6.79454e-08
6.76729e-08
6.74096e-08
6.71779e-08
6.69488e-08
6.67519e-08
6.65567e-08
6.63896e-08
6.62215e-08
6.60752e-08
6.59269e-08
6.58022e-08
6.56722e-08
6.55635e-08
6.54502e-08
6.53543e-08
6.52557e-08
6.51732e-08
6.5084e-08
6.5012e-08
6.49365e-08
6.4877e-08
6.4806e-08
6.47534e-08
6.47015e-08
6.46498e-08
6.45934e-08
6.45551e-08
6.45081e-08
6.44762e-08
6.44277e-08
6.43876e-08
6.43498e-08
6.43033e-08
6.42771e-08
6.42626e-08
6.42201e-08
6.41927e-08
6.4163e-08
6.41344e-08
6.41054e-08
6.41107e-08
6.40925e-08
6.40977e-08
6.40993e-08
6.41119e-08
6.41095e-08
6.41237e-08
6.41194e-08
6.41363e-08
6.41365e-08
6.41559e-08
6.41641e-08
6.41922e-08
6.42025e-08
6.42335e-08
6.42474e-08
6.42815e-08
6.43005e-08
6.43411e-08
6.43649e-08
6.44142e-08
6.44396e-08
6.4496e-08
6.45206e-08
6.45928e-08
6.45954e-08
6.51383e-08
3.16436e-06
2.30472e-08
1.24763e-07
1.18572e-07
1.10387e-07
1.03074e-07
9.71802e-08
9.25297e-08
8.87956e-08
8.57735e-08
8.32608e-08
8.11705e-08
7.93817e-08
7.78622e-08
7.65338e-08
7.53886e-08
7.43661e-08
7.34784e-08
7.26732e-08
7.19705e-08
7.13231e-08
7.07557e-08
7.02261e-08
6.97615e-08
6.93204e-08
6.89348e-08
6.85656e-08
6.82434e-08
6.793e-08
6.76565e-08
6.73924e-08
6.71598e-08
6.69299e-08
6.67322e-08
6.65363e-08
6.63685e-08
6.61997e-08
6.60529e-08
6.5904e-08
6.57788e-08
6.56483e-08
6.55391e-08
6.54253e-08
6.53291e-08
6.523e-08
6.51472e-08
6.50576e-08
6.49853e-08
6.49094e-08
6.48496e-08
6.47784e-08
6.47255e-08
6.46733e-08
6.46215e-08
6.45648e-08
6.45263e-08
6.4479e-08
6.4447e-08
6.43983e-08
6.43581e-08
6.43202e-08
6.42736e-08
6.4247e-08
6.42325e-08
6.419e-08
6.41624e-08
6.41326e-08
6.41038e-08
6.40744e-08
6.40793e-08
6.40609e-08
6.40659e-08
6.40673e-08
6.40797e-08
6.40772e-08
6.40913e-08
6.40869e-08
6.41035e-08
6.41037e-08
6.41229e-08
6.4131e-08
6.41588e-08
6.41691e-08
6.41999e-08
6.42137e-08
6.42476e-08
6.42664e-08
6.43067e-08
6.43304e-08
6.43795e-08
6.44049e-08
6.4461e-08
6.44854e-08
6.45575e-08
6.45596e-08
6.51114e-08
3.16796e-06
2.3569e-08
1.24766e-07
1.18611e-07
1.10448e-07
1.03141e-07
9.72429e-08
9.25856e-08
8.8844e-08
8.58148e-08
8.32955e-08
8.11991e-08
7.9405e-08
7.78806e-08
7.65479e-08
7.53988e-08
7.43729e-08
7.34821e-08
7.2674e-08
7.19687e-08
7.1319e-08
7.07494e-08
7.02179e-08
6.97515e-08
6.93088e-08
6.89216e-08
6.85511e-08
6.82276e-08
6.7913e-08
6.76384e-08
6.73731e-08
6.71396e-08
6.69088e-08
6.67102e-08
6.65135e-08
6.6345e-08
6.61755e-08
6.6028e-08
6.58785e-08
6.57527e-08
6.56216e-08
6.55119e-08
6.53976e-08
6.53009e-08
6.52014e-08
6.51182e-08
6.50282e-08
6.49555e-08
6.48792e-08
6.48191e-08
6.47476e-08
6.46944e-08
6.46419e-08
6.45899e-08
6.45329e-08
6.44941e-08
6.44467e-08
6.44145e-08
6.43655e-08
6.43251e-08
6.42871e-08
6.42404e-08
6.42135e-08
6.41989e-08
6.41563e-08
6.41285e-08
6.40986e-08
6.40697e-08
6.40397e-08
6.40443e-08
6.40256e-08
6.40304e-08
6.40316e-08
6.40438e-08
6.40412e-08
6.40551e-08
6.40506e-08
6.4067e-08
6.40672e-08
6.4086e-08
6.4094e-08
6.41215e-08
6.41317e-08
6.41623e-08
6.4176e-08
6.42097e-08
6.42284e-08
6.42684e-08
6.4292e-08
6.43408e-08
6.4366e-08
6.44219e-08
6.44462e-08
6.45182e-08
6.45196e-08
6.50813e-08
3.17205e-06
2.41513e-08
1.24769e-07
1.18654e-07
1.10516e-07
1.03214e-07
9.73123e-08
9.26477e-08
8.88979e-08
8.58607e-08
8.3334e-08
8.1231e-08
7.94309e-08
7.79012e-08
7.65636e-08
7.54103e-08
7.43805e-08
7.34863e-08
7.26751e-08
7.19669e-08
7.13146e-08
7.07427e-08
7.0209e-08
6.97406e-08
6.92961e-08
6.89072e-08
6.85351e-08
6.82101e-08
6.78942e-08
6.76184e-08
6.73519e-08
6.71174e-08
6.68855e-08
6.6686e-08
6.64884e-08
6.6319e-08
6.61487e-08
6.60006e-08
6.58503e-08
6.57239e-08
6.55922e-08
6.54819e-08
6.53671e-08
6.52699e-08
6.51698e-08
6.50862e-08
6.49957e-08
6.49226e-08
6.48458e-08
6.47854e-08
6.47135e-08
6.46599e-08
6.46071e-08
6.4555e-08
6.44976e-08
6.44586e-08
6.44108e-08
6.43785e-08
6.43293e-08
6.42886e-08
6.42505e-08
6.42037e-08
6.41764e-08
6.41618e-08
6.41191e-08
6.40911e-08
6.40609e-08
6.40319e-08
6.40014e-08
6.40056e-08
6.39866e-08
6.39912e-08
6.39921e-08
6.40042e-08
6.40013e-08
6.40151e-08
6.40104e-08
6.40265e-08
6.40267e-08
6.40452e-08
6.40531e-08
6.40803e-08
6.40904e-08
6.41207e-08
6.41344e-08
6.41677e-08
6.41863e-08
6.42261e-08
6.42494e-08
6.42979e-08
6.4323e-08
6.43787e-08
6.44028e-08
6.44746e-08
6.44754e-08
6.50481e-08
3.17657e-06
2.4804e-08
1.24772e-07
1.187e-07
1.1059e-07
1.03294e-07
9.73886e-08
9.27159e-08
8.89571e-08
8.59113e-08
8.33766e-08
8.12663e-08
7.94596e-08
7.79241e-08
7.65812e-08
7.54232e-08
7.43891e-08
7.34911e-08
7.26764e-08
7.19651e-08
7.13099e-08
7.07354e-08
7.01993e-08
6.97287e-08
6.92822e-08
6.88915e-08
6.85176e-08
6.81911e-08
6.78737e-08
6.75965e-08
6.73288e-08
6.70931e-08
6.68601e-08
6.66596e-08
6.64609e-08
6.62906e-08
6.61194e-08
6.59705e-08
6.58194e-08
6.56923e-08
6.55599e-08
6.5449e-08
6.53335e-08
6.52358e-08
6.51351e-08
6.5051e-08
6.496e-08
6.48865e-08
6.48092e-08
6.47484e-08
6.46761e-08
6.46222e-08
6.4569e-08
6.45167e-08
6.44589e-08
6.44196e-08
6.43715e-08
6.4339e-08
6.42895e-08
6.42486e-08
6.42104e-08
6.41635e-08
6.41358e-08
6.4121e-08
6.40782e-08
6.405e-08
6.40196e-08
6.39905e-08
6.39594e-08
6.39631e-08
6.39438e-08
6.39481e-08
6.39488e-08
6.39606e-08
6.39576e-08
6.39711e-08
6.39664e-08
6.39822e-08
6.39822e-08
6.40005e-08
6.40082e-08
6.4035e-08
6.40451e-08
6.4075e-08
6.40887e-08
6.41216e-08
6.41401e-08
6.41796e-08
6.42027e-08
6.42509e-08
6.42759e-08
6.43312e-08
6.43551e-08
6.44268e-08
6.44269e-08
6.50117e-08
3.18146e-06
2.55377e-08
1.24776e-07
1.18751e-07
1.1067e-07
1.03382e-07
9.74718e-08
9.27905e-08
8.90221e-08
8.59668e-08
8.34233e-08
8.1305e-08
7.94913e-08
7.79493e-08
7.66007e-08
7.54376e-08
7.43988e-08
7.34966e-08
7.26781e-08
7.19634e-08
7.1305e-08
7.07277e-08
7.01889e-08
6.9716e-08
6.92672e-08
6.88745e-08
6.84988e-08
6.81706e-08
6.78515e-08
6.75728e-08
6.73036e-08
6.70667e-08
6.68324e-08
6.66308e-08
6.6431e-08
6.62597e-08
6.60875e-08
6.59378e-08
6.57858e-08
6.5658e-08
6.55248e-08
6.54132e-08
6.5297e-08
6.51987e-08
6.50974e-08
6.50128e-08
6.49212e-08
6.48472e-08
6.47693e-08
6.47081e-08
6.46353e-08
6.4581e-08
6.45274e-08
6.4475e-08
6.44167e-08
6.4377e-08
6.43287e-08
6.42959e-08
6.42461e-08
6.42049e-08
6.41666e-08
6.41196e-08
6.40914e-08
6.40765e-08
6.40336e-08
6.40052e-08
6.39746e-08
6.39453e-08
6.39136e-08
6.39167e-08
6.38971e-08
6.39012e-08
6.39015e-08
6.39131e-08
6.39098e-08
6.39232e-08
6.39183e-08
6.39338e-08
6.39338e-08
6.39516e-08
6.39592e-08
6.39856e-08
6.39957e-08
6.40252e-08
6.40388e-08
6.40714e-08
6.40897e-08
6.41288e-08
6.41518e-08
6.41996e-08
6.42244e-08
6.42794e-08
6.43031e-08
6.43746e-08
6.4374e-08
6.4972e-08
3.18659e-06
2.63634e-08
1.24779e-07
1.18805e-07
1.10756e-07
1.03477e-07
9.75622e-08
9.28717e-08
8.90928e-08
8.60273e-08
8.34743e-08
8.13475e-08
7.95259e-08
7.7977e-08
7.66221e-08
7.54534e-08
7.44096e-08
7.35028e-08
7.26801e-08
7.19617e-08
7.12999e-08
7.07195e-08
7.01779e-08
6.97024e-08
6.92512e-08
6.88563e-08
6.84785e-08
6.81484e-08
6.78276e-08
6.75473e-08
6.72765e-08
6.70381e-08
6.68026e-08
6.65997e-08
6.63987e-08
6.62263e-08
6.60531e-08
6.59024e-08
6.57495e-08
6.56208e-08
6.54867e-08
6.53745e-08
6.52575e-08
6.51585e-08
6.50565e-08
6.49713e-08
6.48791e-08
6.48046e-08
6.47261e-08
6.46644e-08
6.45912e-08
6.45364e-08
6.44824e-08
6.44298e-08
6.4371e-08
6.43309e-08
6.42823e-08
6.42492e-08
6.4199e-08
6.41576e-08
6.41192e-08
6.4072e-08
6.40433e-08
6.40283e-08
6.39853e-08
6.39566e-08
6.39258e-08
6.38963e-08
6.38639e-08
6.38665e-08
6.38464e-08
6.38503e-08
6.38502e-08
6.38616e-08
6.38581e-08
6.38712e-08
6.38661e-08
6.38812e-08
6.38812e-08
6.38987e-08
6.39061e-08
6.39321e-08
6.3942e-08
6.39712e-08
6.39847e-08
6.40169e-08
6.40351e-08
6.40738e-08
6.40965e-08
6.41439e-08
6.41686e-08
6.42232e-08
6.42467e-08
6.4318e-08
6.43165e-08
6.4929e-08
3.19179e-06
2.72926e-08
1.24783e-07
1.18862e-07
1.10849e-07
1.03579e-07
9.76599e-08
9.29595e-08
8.91694e-08
8.6093e-08
8.35298e-08
8.13936e-08
7.95637e-08
7.80072e-08
7.66456e-08
7.54708e-08
7.44216e-08
7.35099e-08
7.26827e-08
7.19602e-08
7.12947e-08
7.07109e-08
7.01662e-08
6.96879e-08
6.92341e-08
6.88369e-08
6.84568e-08
6.81246e-08
6.78019e-08
6.75198e-08
6.72474e-08
6.70075e-08
6.67705e-08
6.65663e-08
6.63639e-08
6.61904e-08
6.6016e-08
6.58643e-08
6.57104e-08
6.55808e-08
6.54458e-08
6.53327e-08
6.52149e-08
6.51152e-08
6.50124e-08
6.49267e-08
6.48338e-08
6.47587e-08
6.46795e-08
6.46174e-08
6.45436e-08
6.44883e-08
6.44338e-08
6.4381e-08
6.43217e-08
6.42812e-08
6.42322e-08
6.41989e-08
6.41483e-08
6.41066e-08
6.4068e-08
6.40207e-08
6.39914e-08
6.39763e-08
6.39331e-08
6.39041e-08
6.38731e-08
6.38434e-08
6.38103e-08
6.38122e-08
6.37918e-08
6.37954e-08
6.37948e-08
6.3806e-08
6.38022e-08
6.3815e-08
6.38098e-08
6.38246e-08
6.38245e-08
6.38415e-08
6.38487e-08
6.38743e-08
6.38841e-08
6.39129e-08
6.39262e-08
6.39581e-08
6.39761e-08
6.40144e-08
6.40369e-08
6.40839e-08
6.41083e-08
6.41626e-08
6.41858e-08
6.42569e-08
6.42545e-08
6.48824e-08
3.19685e-06
2.83371e-08
1.24787e-07
1.18924e-07
1.10949e-07
1.03689e-07
9.77649e-08
9.30542e-08
8.92522e-08
8.61641e-08
8.35899e-08
8.14438e-08
7.96048e-08
7.80402e-08
7.66713e-08
7.549e-08
7.44348e-08
7.35178e-08
7.26858e-08
7.1959e-08
7.12895e-08
7.07021e-08
7.0154e-08
6.96727e-08
6.9216e-08
6.88162e-08
6.84337e-08
6.80994e-08
6.77745e-08
6.74906e-08
6.72163e-08
6.69748e-08
6.67362e-08
6.65305e-08
6.63267e-08
6.61519e-08
6.59762e-08
6.58235e-08
6.56684e-08
6.55379e-08
6.54019e-08
6.52879e-08
6.51693e-08
6.50688e-08
6.49652e-08
6.48787e-08
6.47852e-08
6.47094e-08
6.46296e-08
6.45669e-08
6.44925e-08
6.44367e-08
6.43817e-08
6.43286e-08
6.42687e-08
6.42278e-08
6.41783e-08
6.41448e-08
6.40938e-08
6.40517e-08
6.4013e-08
6.39655e-08
6.39357e-08
6.39204e-08
6.38771e-08
6.38478e-08
6.38164e-08
6.37866e-08
6.37528e-08
6.3754e-08
6.37332e-08
6.37364e-08
6.37354e-08
6.37462e-08
6.37422e-08
6.37547e-08
6.37494e-08
6.37637e-08
6.37635e-08
6.37801e-08
6.37871e-08
6.38122e-08
6.38219e-08
6.38503e-08
6.38635e-08
6.38948e-08
6.39126e-08
6.39505e-08
6.39728e-08
6.40193e-08
6.40435e-08
6.40974e-08
6.41204e-08
6.41911e-08
6.41879e-08
6.48323e-08
3.20147e-06
2.95089e-08
1.24791e-07
1.18988e-07
1.11055e-07
1.03806e-07
9.78776e-08
9.3156e-08
8.93413e-08
8.62407e-08
8.36548e-08
8.1498e-08
7.96493e-08
7.80761e-08
7.66993e-08
7.5511e-08
7.44495e-08
7.35268e-08
7.26895e-08
7.1958e-08
7.12842e-08
7.06929e-08
7.01412e-08
6.96566e-08
6.9197e-08
6.87944e-08
6.84092e-08
6.80725e-08
6.77455e-08
6.74595e-08
6.71832e-08
6.694e-08
6.66996e-08
6.64924e-08
6.62871e-08
6.61109e-08
6.59339e-08
6.578e-08
6.56237e-08
6.54921e-08
6.5355e-08
6.52402e-08
6.51205e-08
6.50192e-08
6.49147e-08
6.48276e-08
6.47332e-08
6.46567e-08
6.45761e-08
6.45129e-08
6.44379e-08
6.43815e-08
6.43259e-08
6.42725e-08
6.4212e-08
6.41707e-08
6.41208e-08
6.40869e-08
6.40355e-08
6.39931e-08
6.39542e-08
6.39065e-08
6.38761e-08
6.38606e-08
6.38171e-08
6.37875e-08
6.37558e-08
6.37258e-08
6.36913e-08
6.36916e-08
6.36705e-08
6.36733e-08
6.36718e-08
6.36823e-08
6.36779e-08
6.36902e-08
6.36846e-08
6.36985e-08
6.36982e-08
6.37143e-08
6.37212e-08
6.37457e-08
6.37553e-08
6.37832e-08
6.37962e-08
6.38271e-08
6.38447e-08
6.38821e-08
6.39041e-08
6.39502e-08
6.39741e-08
6.40276e-08
6.40503e-08
6.41207e-08
6.41165e-08
6.47785e-08
3.2053e-06
3.08207e-08
1.24794e-07
1.19057e-07
1.11167e-07
1.03931e-07
9.79979e-08
9.32649e-08
8.94369e-08
8.6323e-08
8.37246e-08
8.15564e-08
7.96974e-08
7.81149e-08
7.67298e-08
7.5534e-08
7.44656e-08
7.35368e-08
7.2694e-08
7.19575e-08
7.1279e-08
7.06835e-08
7.0128e-08
6.96399e-08
6.9177e-08
6.87714e-08
6.83834e-08
6.80442e-08
6.77148e-08
6.74265e-08
6.71481e-08
6.69031e-08
6.66609e-08
6.6452e-08
6.6245e-08
6.60673e-08
6.58889e-08
6.57337e-08
6.55761e-08
6.54434e-08
6.53052e-08
6.51893e-08
6.50686e-08
6.49665e-08
6.4861e-08
6.47731e-08
6.46779e-08
6.46007e-08
6.45192e-08
6.44553e-08
6.43797e-08
6.43228e-08
6.42664e-08
6.42128e-08
6.41516e-08
6.41098e-08
6.40594e-08
6.40253e-08
6.39733e-08
6.39306e-08
6.38915e-08
6.38436e-08
6.38125e-08
6.37969e-08
6.37531e-08
6.37232e-08
6.36912e-08
6.36609e-08
6.36257e-08
6.36251e-08
6.36036e-08
6.3606e-08
6.36039e-08
6.36141e-08
6.36094e-08
6.36213e-08
6.36155e-08
6.36289e-08
6.36286e-08
6.36441e-08
6.36508e-08
6.36747e-08
6.36842e-08
6.37116e-08
6.37245e-08
6.37549e-08
6.37723e-08
6.38092e-08
6.38309e-08
6.38764e-08
6.39001e-08
6.39531e-08
6.39755e-08
6.40455e-08
6.40404e-08
6.47209e-08
3.20791e-06
3.22846e-08
1.24798e-07
1.19128e-07
1.11286e-07
1.04064e-07
9.81261e-08
9.33813e-08
8.95392e-08
8.64112e-08
8.37997e-08
8.16193e-08
7.97493e-08
7.8157e-08
7.67628e-08
7.55591e-08
7.44834e-08
7.35481e-08
7.26993e-08
7.19574e-08
7.1274e-08
7.0674e-08
7.01143e-08
6.96225e-08
6.91561e-08
6.87473e-08
6.83563e-08
6.80144e-08
6.76824e-08
6.73918e-08
6.71111e-08
6.68641e-08
6.66199e-08
6.64092e-08
6.62005e-08
6.60212e-08
6.58412e-08
6.56847e-08
6.55257e-08
6.53918e-08
6.52523e-08
6.51354e-08
6.50136e-08
6.49105e-08
6.4804e-08
6.47152e-08
6.46191e-08
6.45412e-08
6.44589e-08
6.43943e-08
6.43179e-08
6.42603e-08
6.42033e-08
6.41494e-08
6.40875e-08
6.40451e-08
6.39942e-08
6.39597e-08
6.39072e-08
6.38642e-08
6.38248e-08
6.37768e-08
6.37449e-08
6.37291e-08
6.36851e-08
6.36548e-08
6.36225e-08
6.3592e-08
6.35559e-08
6.35543e-08
6.35325e-08
6.35345e-08
6.35317e-08
6.35415e-08
6.35365e-08
6.3548e-08
6.35421e-08
6.3555e-08
6.35545e-08
6.35695e-08
6.35759e-08
6.35993e-08
6.36087e-08
6.36355e-08
6.36482e-08
6.36781e-08
6.36952e-08
6.37316e-08
6.3753e-08
6.37979e-08
6.38214e-08
6.38738e-08
6.38959e-08
6.39654e-08
6.39594e-08
6.46593e-08
3.20882e-06
3.39129e-08
1.24801e-07
1.19203e-07
1.11411e-07
1.04204e-07
9.82624e-08
9.35052e-08
8.96484e-08
8.65056e-08
8.388e-08
8.16868e-08
7.98052e-08
7.82023e-08
7.67986e-08
7.55864e-08
7.4503e-08
7.35607e-08
7.27055e-08
7.19579e-08
7.12692e-08
7.06645e-08
7.01003e-08
6.96045e-08
6.91344e-08
6.87222e-08
6.8328e-08
6.79832e-08
6.76484e-08
6.73554e-08
6.70722e-08
6.6823e-08
6.65767e-08
6.63641e-08
6.61535e-08
6.59726e-08
6.57909e-08
6.5633e-08
6.54725e-08
6.53373e-08
6.51965e-08
6.50784e-08
6.49554e-08
6.48513e-08
6.47437e-08
6.46541e-08
6.4557e-08
6.44782e-08
6.43949e-08
6.43296e-08
6.42526e-08
6.41942e-08
6.41364e-08
6.40821e-08
6.40195e-08
6.39765e-08
6.39251e-08
6.38903e-08
6.38372e-08
6.37938e-08
6.37542e-08
6.37059e-08
6.36733e-08
6.36573e-08
6.3613e-08
6.35824e-08
6.35496e-08
6.35189e-08
6.34821e-08
6.34793e-08
6.34572e-08
6.34587e-08
6.34553e-08
6.34646e-08
6.34592e-08
6.34704e-08
6.34642e-08
6.34766e-08
6.3476e-08
6.34904e-08
6.34966e-08
6.35193e-08
6.35285e-08
6.35548e-08
6.35673e-08
6.35966e-08
6.36135e-08
6.36493e-08
6.36703e-08
6.37147e-08
6.37379e-08
6.37898e-08
6.38115e-08
6.38805e-08
6.38736e-08
6.45936e-08
3.20746e-06
3.57174e-08
1.24805e-07
1.19282e-07
1.11542e-07
1.04353e-07
9.84068e-08
9.36369e-08
8.97647e-08
8.66063e-08
8.39659e-08
8.17592e-08
7.98651e-08
7.82511e-08
7.68373e-08
7.5616e-08
7.45244e-08
7.35747e-08
7.27128e-08
7.1959e-08
7.12647e-08
7.0655e-08
7.00861e-08
6.95861e-08
6.91119e-08
6.86961e-08
6.82985e-08
6.79506e-08
6.76129e-08
6.73172e-08
6.70314e-08
6.678e-08
6.65314e-08
6.63168e-08
6.61041e-08
6.59214e-08
6.57379e-08
6.55785e-08
6.54164e-08
6.52798e-08
6.51377e-08
6.50183e-08
6.48941e-08
6.47889e-08
6.46801e-08
6.45895e-08
6.44914e-08
6.44118e-08
6.43275e-08
6.42614e-08
6.41835e-08
6.41244e-08
6.40658e-08
6.40111e-08
6.39477e-08
6.39041e-08
6.38521e-08
6.3817e-08
6.37633e-08
6.37194e-08
6.36795e-08
6.3631e-08
6.35977e-08
6.35814e-08
6.35368e-08
6.35058e-08
6.34726e-08
6.34417e-08
6.34041e-08
6.34e-08
6.33776e-08
6.33785e-08
6.33744e-08
6.33833e-08
6.33775e-08
6.33883e-08
6.33819e-08
6.33936e-08
6.33929e-08
6.34067e-08
6.34127e-08
6.34347e-08
6.34437e-08
6.34694e-08
6.34818e-08
6.35105e-08
6.3527e-08
6.35622e-08
6.35829e-08
6.36266e-08
6.36495e-08
6.37008e-08
6.37222e-08
6.37906e-08
6.37827e-08
6.45236e-08
3.20319e-06
3.77092e-08
1.24808e-07
1.19363e-07
1.1168e-07
1.04509e-07
9.85595e-08
9.37766e-08
8.98883e-08
8.67136e-08
8.40576e-08
8.18365e-08
7.99294e-08
7.83036e-08
7.68791e-08
7.56483e-08
7.45479e-08
7.35904e-08
7.27213e-08
7.1961e-08
7.12608e-08
7.06456e-08
7.00717e-08
6.95672e-08
6.90888e-08
6.86692e-08
6.82679e-08
6.79167e-08
6.75759e-08
6.72773e-08
6.69888e-08
6.67349e-08
6.6484e-08
6.62672e-08
6.60524e-08
6.58677e-08
6.56824e-08
6.55213e-08
6.53576e-08
6.52195e-08
6.50758e-08
6.49552e-08
6.48296e-08
6.47233e-08
6.46132e-08
6.45216e-08
6.44224e-08
6.43419e-08
6.42565e-08
6.41896e-08
6.41108e-08
6.40509e-08
6.39914e-08
6.39363e-08
6.3872e-08
6.38278e-08
6.37751e-08
6.37397e-08
6.36853e-08
6.3641e-08
6.36008e-08
6.35521e-08
6.35179e-08
6.35013e-08
6.34564e-08
6.34251e-08
6.33914e-08
6.33602e-08
6.33218e-08
6.33165e-08
6.32938e-08
6.32941e-08
6.32891e-08
6.32975e-08
6.32914e-08
6.33017e-08
6.3295e-08
6.33062e-08
6.33053e-08
6.33185e-08
6.33241e-08
6.33454e-08
6.33543e-08
6.33793e-08
6.33915e-08
6.34196e-08
6.34358e-08
6.34703e-08
6.34907e-08
6.35337e-08
6.35563e-08
6.3607e-08
6.3628e-08
6.36956e-08
6.36868e-08
6.44491e-08
3.19533e-06
3.98983e-08
1.24811e-07
1.19447e-07
1.11825e-07
1.04674e-07
9.87207e-08
9.39244e-08
9.00194e-08
8.68276e-08
8.41554e-08
8.19192e-08
7.99983e-08
7.836e-08
7.69242e-08
7.56832e-08
7.45737e-08
7.36078e-08
7.27311e-08
7.19639e-08
7.12574e-08
7.06365e-08
7.00573e-08
6.95479e-08
6.90651e-08
6.86414e-08
6.82363e-08
6.78816e-08
6.75375e-08
6.72358e-08
6.69444e-08
6.66879e-08
6.64345e-08
6.62154e-08
6.59983e-08
6.58116e-08
6.56242e-08
6.54615e-08
6.52959e-08
6.51563e-08
6.5011e-08
6.4889e-08
6.47619e-08
6.46544e-08
6.4543e-08
6.44504e-08
6.435e-08
6.42685e-08
6.41819e-08
6.41142e-08
6.40345e-08
6.39737e-08
6.39132e-08
6.38577e-08
6.37924e-08
6.37476e-08
6.36942e-08
6.36584e-08
6.36033e-08
6.35586e-08
6.35181e-08
6.34691e-08
6.3434e-08
6.34171e-08
6.33719e-08
6.33401e-08
6.33059e-08
6.32745e-08
6.32354e-08
6.32287e-08
6.32055e-08
6.32052e-08
6.31994e-08
6.32073e-08
6.32007e-08
6.32105e-08
6.32035e-08
6.32141e-08
6.32131e-08
6.32256e-08
6.32309e-08
6.32515e-08
6.32601e-08
6.32845e-08
6.32964e-08
6.33238e-08
6.33398e-08
6.33736e-08
6.33936e-08
6.34359e-08
6.34581e-08
6.35082e-08
6.35287e-08
6.35956e-08
6.35859e-08
6.43699e-08
3.18313e-06
4.22925e-08
1.24813e-07
1.19535e-07
1.11975e-07
1.04846e-07
9.88904e-08
9.40806e-08
9.01583e-08
8.69487e-08
8.42593e-08
8.20073e-08
8.00719e-08
7.84205e-08
7.69728e-08
7.57211e-08
7.46018e-08
7.36271e-08
7.27423e-08
7.1968e-08
7.12547e-08
7.06278e-08
7.00429e-08
6.95285e-08
6.90409e-08
6.86129e-08
6.82037e-08
6.78453e-08
6.74977e-08
6.71928e-08
6.68983e-08
6.66391e-08
6.63829e-08
6.61614e-08
6.59419e-08
6.57531e-08
6.55635e-08
6.53989e-08
6.52315e-08
6.50902e-08
6.49432e-08
6.48197e-08
6.46912e-08
6.45824e-08
6.44695e-08
6.43758e-08
6.42742e-08
6.41916e-08
6.41038e-08
6.40351e-08
6.39544e-08