/*--------------------------------*- C++ -*----------------------------------*\
| =========                 |                                                 |
| \\      /  F ield         | OpenFOAM: The Open Source CFD Toolbox           |
|  \\    /   O peration     | Version:  v2012                                 |
|   \\  /    A nd           | Website:  www.openfoam.com                      |
|    \\/     M anipulation  |                                                 |
\*---------------------------------------------------------------------------*/
FoamFile
{
    version     2.0;
    format      ascii;
    class       volScalarField;
    location    "12.5";
    object      k;
}
// * * * * * * * * * * * * * * * * * * * * * * * * * * * * * * * * * * * * * //

dimensions      [0 2 -2 0 0 0 0];


internalField   nonuniform List<scalar> 
209825
(
0.00102066
0.000962858
0.000934382
0.000918361
0.000908191
0.000901265
0.000896263
0.000892555
0.000889698
0.00088748
0.000885702
0.000884278
0.000883104
0.000882143
0.000881334
0.000880664
0.000880082
0.000879594
0.000879174
0.000878823
0.000878501
0.000878231
0.000877992
0.000877797
0.000877593
0.000877432
0.000877292
0.00087718
0.000877056
0.000876965
0.000876884
0.00087682
0.000876701
0.000876659
0.000876629
0.000876598
0.000876537
0.000876517
0.000876503
0.000876478
0.000876405
0.000876427
0.000876427
0.000876424
0.000876378
0.000876498
0.000876512
0.000876512
0.000876511
0.000876515
0.000876509
0.000876663
0.000876663
0.000876663
0.00087666
0.000876805
0.000876869
0.00087692
0.000877063
0.000877063
0.000877062
0.000877177
0.000877399
0.000877506
0.000877507
0.000877611
0.000877767
0.000877981
0.000878168
0.000878327
0.0008784
0.000878584
0.000878781
0.000878971
0.000879124
0.000879406
0.000879622
0.000879837
0.000880023
0.000880335
0.00088062
0.000880994
0.000881335
0.000881811
0.000882181
0.00088277
0.000883243
0.000884044
0.000884577
0.000885771
0.00088643
0.000888712
0.000889046
0.000902474
0.000964859
0.00243903
0.00102066
0.000962851
0.000934368
0.000918343
0.00090817
0.000901241
0.000896236
0.000892527
0.000889669
0.00088745
0.000885671
0.000884247
0.000883072
0.000882111
0.000881301
0.000880631
0.000880048
0.00087956
0.00087914
0.000878789
0.000878467
0.000878197
0.000877957
0.000877762
0.000877558
0.000877397
0.000877257
0.000877144
0.000877021
0.000876929
0.000876848
0.000876785
0.000876665
0.000876623
0.000876593
0.000876562
0.000876501
0.000876481
0.000876467
0.000876442
0.000876369
0.000876391
0.000876391
0.000876387
0.000876341
0.000876462
0.000876476
0.000876476
0.000876475
0.000876479
0.000876473
0.000876627
0.000876627
0.000876627
0.000876624
0.000876769
0.000876833
0.000876884
0.000877026
0.000877027
0.000877026
0.000877141
0.000877363
0.00087747
0.000877471
0.000877575
0.000877731
0.000877945
0.000878132
0.000878291
0.000878364
0.000878549
0.000878745
0.000878935
0.000879088
0.00087937
0.000879586
0.000879801
0.000879987
0.000880299
0.000880585
0.000880959
0.0008813
0.000881775
0.000882146
0.000882734
0.000883208
0.000884009
0.000884542
0.000885736
0.000886395
0.000888678
0.00088901
0.000902464
0.000964881
0.00244057
0.00102065
0.000962815
0.000934306
0.000918263
0.000908077
0.000901139
0.000896127
0.000892412
0.00088955
0.000887327
0.000885545
0.000884118
0.000882941
0.000881978
0.000881167
0.000880496
0.000879912
0.000879423
0.000879002
0.00087865
0.000878327
0.000878057
0.000877817
0.000877621
0.000877417
0.000877255
0.000877115
0.000877002
0.000876878
0.000876786
0.000876705
0.000876641
0.000876522
0.000876479
0.000876449
0.000876418
0.000876357
0.000876337
0.000876323
0.000876297
0.000876225
0.000876246
0.000876246
0.000876243
0.000876196
0.000876317
0.000876331
0.000876331
0.000876329
0.000876334
0.000876328
0.000876481
0.000876481
0.000876481
0.000876479
0.000876624
0.000876688
0.000876739
0.000876881
0.000876881
0.000876881
0.000876995
0.000877218
0.000877325
0.000877326
0.00087743
0.000877586
0.0008778
0.000877987
0.000878147
0.00087822
0.000878404
0.000878601
0.000878791
0.000878944
0.000879226
0.000879442
0.000879657
0.000879844
0.000880156
0.000880441
0.000880815
0.000881156
0.000881632
0.000882002
0.000882591
0.000883065
0.000883866
0.000884399
0.000885593
0.000886252
0.000888535
0.000888864
0.00090237
0.000964848
0.00244358
0.00102064
0.000962753
0.000934201
0.000918127
0.00090792
0.000900967
0.000895943
0.000892218
0.000889349
0.000887121
0.000885333
0.000883903
0.000882722
0.000881756
0.000880942
0.000880269
0.000879683
0.000879193
0.00087877
0.000878417
0.000878093
0.000877821
0.000877581
0.000877384
0.000877179
0.000877017
0.000876876
0.000876763
0.000876638
0.000876546
0.000876464
0.0008764
0.000876281
0.000876238
0.000876207
0.000876176
0.000876115
0.000876095
0.00087608
0.000876055
0.000875982
0.000876003
0.000876003
0.000876
0.000875953
0.000876074
0.000876088
0.000876087
0.000876086
0.000876091
0.000876084
0.000876238
0.000876238
0.000876238
0.000876235
0.00087638
0.000876445
0.000876495
0.000876637
0.000876638
0.000876637
0.000876752
0.000876974
0.000877082
0.000877084
0.000877187
0.000877343
0.000877557
0.000877744
0.000877904
0.000877978
0.000878162
0.000878358
0.000878549
0.000878702
0.000878984
0.0008792
0.000879416
0.000879602
0.000879915
0.0008802
0.000880574
0.000880915
0.000881392
0.000881762
0.000882351
0.000882824
0.000883626
0.000884159
0.000885352
0.000886011
0.000888295
0.000888619
0.000902206
0.00096477
0.00244725
0.00102063
0.000962666
0.000934052
0.000917935
0.000907699
0.000900723
0.000895683
0.000891945
0.000889066
0.000886829
0.000885035
0.000883598
0.000882413
0.000881443
0.000880625
0.000879949
0.00087936
0.000878868
0.000878443
0.000878088
0.000877763
0.00087749
0.000877248
0.00087705
0.000876844
0.000876681
0.000876539
0.000876425
0.0008763
0.000876207
0.000876125
0.000876061
0.000875941
0.000875897
0.000875866
0.000875835
0.000875773
0.000875753
0.000875738
0.000875713
0.00087564
0.00087566
0.00087566
0.000875657
0.00087561
0.00087573
0.000875744
0.000875744
0.000875742
0.000875747
0.00087574
0.000875894
0.000875894
0.000875894
0.000875891
0.000876036
0.000876101
0.00087615
0.000876294
0.000876294
0.000876294
0.000876408
0.000876631
0.000876739
0.000876741
0.000876844
0.000877
0.000877214
0.000877401
0.000877562
0.000877636
0.00087782
0.000878016
0.000878207
0.00087836
0.000878643
0.000878859
0.000879075
0.000879262
0.000879574
0.00087986
0.000880234
0.000880575
0.000881052
0.000881422
0.000882012
0.000882485
0.000883287
0.000883819
0.000885013
0.000885671
0.000887955
0.000888273
0.00090197
0.00096464
0.00245156
0.00102062
0.000962553
0.000933859
0.000917687
0.000907412
0.000900408
0.000895346
0.000891592
0.000888699
0.000886451
0.000884648
0.000883203
0.000882012
0.000881037
0.000880214
0.000879534
0.000878942
0.000878447
0.000878019
0.000877662
0.000877334
0.00087706
0.000876816
0.000876617
0.00087641
0.000876246
0.000876103
0.000875988
0.000875862
0.000875768
0.000875685
0.00087562
0.0008755
0.000875456
0.000875424
0.000875393
0.000875331
0.00087531
0.000875295
0.000875269
0.000875196
0.000875216
0.000875216
0.000875212
0.000875165
0.000875285
0.000875299
0.000875299
0.000875297
0.000875301
0.000875295
0.000875448
0.000875448
0.000875448
0.000875445
0.00087559
0.000875655
0.000875704
0.000875848
0.000875848
0.000875848
0.000875962
0.000876185
0.000876294
0.000876297
0.0008764
0.000876555
0.000876769
0.000876956
0.000877118
0.000877192
0.000877376
0.000877573
0.000877765
0.000877917
0.0008782
0.000878416
0.000878634
0.00087882
0.000879133
0.000879418
0.000879794
0.000880134
0.000880612
0.000880982
0.000881572
0.000882044
0.000882847
0.00088338
0.000884573
0.00088523
0.000887515
0.000887824
0.000901664
0.000964446
0.00245641
0.0010206
0.000962414
0.000933621
0.000917382
0.000907059
0.00090002
0.000894931
0.000891156
0.000888246
0.000885985
0.000884171
0.000882717
0.000881518
0.000880536
0.000879708
0.000879023
0.000878427
0.000877927
0.000877497
0.000877137
0.000876807
0.00087653
0.000876284
0.000876083
0.000875875
0.000875709
0.000875565
0.000875448
0.000875321
0.000875227
0.000875143
0.000875078
0.000874956
0.000874912
0.000874879
0.000874848
0.000874785
0.000874764
0.000874748
0.000874722
0.000874649
0.000874668
0.000874668
0.000874664
0.000874616
0.000874736
0.00087475
0.00087475
0.000874748
0.000874752
0.000874745
0.000874898
0.000874898
0.000874898
0.000874896
0.00087504
0.000875106
0.000875154
0.000875299
0.000875299
0.000875299
0.000875413
0.000875635
0.000875746
0.00087575
0.000875852
0.000876007
0.00087622
0.000876408
0.000876571
0.000876646
0.00087683
0.000877026
0.000877219
0.000877372
0.000877654
0.000877871
0.000878089
0.000878276
0.000878589
0.000878874
0.00087925
0.00087959
0.000880069
0.000880439
0.00088103
0.000881502
0.000882305
0.000882837
0.00088403
0.000884687
0.000886972
0.00088727
0.000901286
0.000964165
0.00246164
0.00102058
0.000962249
0.000933339
0.000917019
0.000906639
0.000899558
0.000894437
0.000890637
0.000887707
0.00088543
0.000883602
0.000882138
0.000880929
0.000879939
0.000879104
0.000878413
0.000877812
0.000877309
0.000876874
0.000876511
0.000876178
0.000875898
0.00087565
0.000875447
0.000875237
0.000875069
0.000874923
0.000874805
0.000874677
0.000874582
0.000874497
0.000874431
0.000874309
0.000874263
0.00087423
0.000874198
0.000874135
0.000874113
0.000874097
0.000874071
0.000873996
0.000874015
0.000874015
0.000874011
0.000873962
0.000874081
0.000874095
0.000874095
0.000874093
0.000874098
0.00087409
0.000874243
0.000874243
0.000874243
0.00087424
0.000874385
0.000874452
0.000874498
0.000874644
0.000874644
0.000874643
0.000874757
0.00087498
0.000875092
0.000875097
0.000875199
0.000875353
0.000875566
0.000875754
0.000875918
0.000875994
0.000876178
0.000876375
0.000876568
0.000876721
0.000877003
0.00087722
0.00087744
0.000877627
0.00087794
0.000878225
0.000878602
0.000878942
0.000879421
0.000879791
0.000880383
0.000880854
0.000881659
0.00088219
0.000883382
0.000884038
0.000886324
0.00088661
0.000900836
0.000963783
0.00246696
0.00102056
0.000962059
0.000933013
0.000916597
0.00090615
0.00089902
0.000893863
0.000890033
0.000887081
0.000884784
0.000882941
0.000881463
0.000880244
0.000879245
0.000878402
0.000877704
0.000877097
0.000876588
0.00087615
0.000875782
0.000875445
0.000875163
0.000874911
0.000874706
0.000874494
0.000874324
0.000874176
0.000874057
0.000873928
0.000873831
0.000873744
0.000873677
0.000873554
0.000873508
0.000873474
0.000873441
0.000873377
0.000873355
0.000873338
0.000873312
0.000873237
0.000873255
0.000873255
0.00087325
0.000873201
0.000873319
0.000873333
0.000873333
0.000873331
0.000873335
0.000873327
0.00087348
0.00087348
0.00087348
0.000873477
0.000873621
0.000873689
0.000873735
0.000873881
0.000873881
0.000873881
0.000873995
0.000874217
0.00087433
0.000874337
0.000874438
0.000874591
0.000874805
0.000874993
0.000875158
0.000875235
0.000875419
0.000875616
0.000875809
0.000875963
0.000876245
0.000876463
0.000876683
0.000876871
0.000877184
0.00087747
0.000877847
0.000878187
0.000878667
0.000879037
0.000879629
0.0008801
0.000880906
0.000881436
0.000882628
0.000883282
0.000885569
0.000885841
0.000900315
0.000963299
0.00247193
0.00102054
0.000961842
0.00093264
0.000916117
0.000905593
0.000898407
0.000893207
0.000889344
0.000886364
0.000884046
0.000882185
0.000880693
0.000879461
0.000878451
0.000877599
0.000876893
0.00087628
0.000875765
0.000875321
0.000874949
0.000874608
0.000874322
0.000874067
0.000873859
0.000873644
0.000873472
0.000873322
0.000873201
0.00087307
0.000872972
0.000872884
0.000872816
0.000872692
0.000872644
0.000872609
0.000872576
0.000872511
0.000872488
0.00087247
0.000872444
0.000872368
0.000872385
0.000872385
0.00087238
0.00087233
0.000872448
0.000872461
0.000872461
0.00087246
0.000872463
0.000872455
0.000872607
0.000872607
0.000872607
0.000872604
0.000872748
0.000872817
0.000872861
0.000873008
0.000873008
0.000873008
0.000873122
0.000873344
0.000873459
0.000873468
0.000873568
0.00087372
0.000873933
0.000874122
0.000874288
0.000874366
0.000874551
0.000874747
0.000874942
0.000875095
0.000875378
0.000875596
0.000875818
0.000876006
0.00087632
0.000876605
0.000876983
0.000877323
0.000877803
0.000878174
0.000878767
0.000879237
0.000880044
0.000880574
0.000881764
0.000882418
0.000884706
0.000884962
0.000899721
0.000962713
0.00247594
0.00102051
0.0009616
0.000932222
0.000915576
0.000904967
0.000897717
0.000892468
0.000888567
0.000885558
0.000883215
0.000881334
0.000879824
0.000878578
0.000877556
0.000876694
0.000875979
0.000875358
0.000874836
0.000874386
0.000874009
0.000873664
0.000873373
0.000873115
0.000872904
0.000872686
0.000872511
0.000872359
0.000872236
0.000872103
0.000872003
0.000871913
0.000871844
0.000871719
0.00087167
0.000871633
0.000871599
0.000871534
0.00087151
0.000871492
0.000871465
0.000871389
0.000871405
0.000871404
0.000871399
0.000871347
0.000871465
0.000871478
0.000871478
0.000871476
0.00087148
0.000871471
0.000871622
0.000871623
0.000871623
0.00087162
0.000871764
0.000871833
0.000871876
0.000872024
0.000872024
0.000872024
0.000872138
0.00087236
0.000872476
0.000872488
0.000872587
0.000872738
0.000872951
0.00087314
0.000873308
0.000873387
0.000873571
0.000873768
0.000873964
0.000874117
0.000874399
0.000874619
0.000874842
0.000875031
0.000875344
0.00087563
0.000876008
0.000876348
0.00087683
0.0008772
0.000877795
0.000878263
0.000879071
0.000879601
0.00088079
0.000881442
0.000883731
0.000883969
0.000899053
0.000962022
0.00247812
0.00102048
0.000961332
0.000931759
0.000914976
0.00090427
0.000896948
0.000891645
0.000887702
0.000884659
0.000882288
0.000880385
0.000878856
0.000877594
0.000876559
0.000875685
0.00087496
0.00087433
0.000873801
0.000873345
0.000872961
0.000872611
0.000872316
0.000872054
0.000871839
0.000871618
0.00087144
0.000871285
0.00087116
0.000871024
0.000870922
0.000870831
0.00087076
0.000870634
0.000870583
0.000870545
0.000870511
0.000870444
0.000870419
0.0008704
0.000870373
0.000870296
0.000870311
0.000870311
0.000870304
0.000870251
0.000870368
0.000870381
0.000870381
0.00087038
0.000870383
0.000870373
0.000870524
0.000870525
0.000870525
0.000870522
0.000870665
0.000870736
0.000870777
0.000870926
0.000870926
0.000870926
0.00087104
0.000871262
0.00087138
0.000871394
0.000871492
0.000871642
0.000871855
0.000872044
0.000872213
0.000872294
0.000872478
0.000872675
0.000872872
0.000873026
0.000873308
0.000873528
0.000873753
0.000873942
0.000874256
0.000874541
0.000874921
0.00087526
0.000875743
0.000876114
0.000876709
0.000877177
0.000877986
0.000878515
0.000879704
0.000880354
0.000882643
0.000882862
0.00089831
0.000961226
0.00247737
0.00102045
0.000961039
0.000931249
0.000914315
0.000903502
0.000896101
0.000890738
0.000886748
0.000883667
0.000881266
0.000879337
0.000877788
0.000876508
0.000875457
0.000874571
0.000873835
0.000873195
0.000872658
0.000872194
0.000871804
0.000871448
0.000871148
0.000870881
0.000870662
0.000870437
0.000870256
0.000870098
0.00086997
0.000869833
0.000869728
0.000869635
0.000869563
0.000869435
0.000869383
0.000869343
0.000869307
0.00086924
0.000869214
0.000869194
0.000869166
0.000869089
0.000869102
0.000869102
0.000869095
0.000869041
0.000869157
0.00086917
0.000869169
0.000869168
0.000869171
0.00086916
0.000869311
0.000869311
0.000869311
0.000869308
0.000869451
0.000869523
0.000869562
0.000869713
0.000869713
0.000869713
0.000869826
0.000870048
0.000870169
0.000870185
0.000870282
0.00087043
0.000870643
0.000870833
0.000871004
0.000871086
0.00087127
0.000871467
0.000871665
0.000871819
0.000872101
0.000872322
0.00087255
0.000872739
0.000873053
0.000873338
0.000873719
0.000874058
0.000874542
0.000874913
0.000875509
0.000875976
0.000876787
0.000877315
0.000878502
0.00087915
0.000881441
0.000881638
0.000897491
0.000960324
0.00247371
0.00102042
0.00096072
0.000930694
0.000913593
0.000902662
0.000895175
0.000889745
0.000885703
0.000882581
0.000880146
0.000878189
0.000876617
0.000875317
0.00087425
0.000873349
0.000872601
0.000871951
0.000871404
0.000870932
0.000870535
0.000870173
0.000869867
0.000869595
0.000869371
0.000869143
0.000868959
0.000868797
0.000868666
0.000868526
0.000868419
0.000868323
0.000868249
0.000868121
0.000868066
0.000868025
0.000867988
0.00086792
0.000867892
0.000867871
0.000867842
0.000867765
0.000867777
0.000867776
0.000867768
0.000867712
0.000867827
0.00086784
0.00086784
0.000867839
0.000867841
0.00086783
0.00086798
0.00086798
0.00086798
0.000867977
0.00086812
0.000868193
0.00086823
0.000868381
0.000868382
0.000868382
0.000868495
0.000868717
0.00086884
0.000868859
0.000868955
0.000869101
0.000869314
0.000869504
0.000869677
0.000869761
0.000869945
0.000870142
0.000870342
0.000870496
0.000870777
0.000870999
0.000871229
0.000871418
0.000871733
0.000872018
0.0008724
0.000872738
0.000873224
0.000873595
0.000874193
0.000874658
0.00087547
0.000875997
0.000877183
0.000877829
0.000880121
0.000880295
0.000896595
0.000959312
0.00246714
0.00102038
0.000960376
0.000930093
0.00091281
0.00090175
0.000894168
0.000888666
0.000884567
0.000881399
0.000878927
0.00087694
0.000875342
0.000874021
0.000872936
0.000872019
0.000871258
0.000870596
0.000870039
0.000869558
0.000869153
0.000868784
0.000868472
0.000868194
0.000867966
0.000867733
0.000867545
0.000867379
0.000867245
0.000867102
0.000866993
0.000866894
0.000866819
0.000866688
0.000866631
0.000866588
0.00086655
0.000866481
0.000866452
0.00086643
0.0008664
0.000866322
0.000866332
0.000866331
0.000866323
0.000866265
0.000866379
0.000866392
0.000866392
0.000866391
0.000866393
0.00086638
0.000866529
0.000866529
0.000866529
0.000866526
0.000866669
0.000866743
0.000866778
0.000866931
0.000866932
0.000866932
0.000867045
0.000867266
0.000867391
0.000867414
0.000867508
0.000867653
0.000867865
0.000868056
0.000868231
0.000868316
0.000868501
0.000868698
0.000868899
0.000869053
0.000869335
0.000869558
0.000869789
0.000869979
0.000870295
0.000870579
0.000870962
0.0008713
0.000871788
0.000872158
0.000872758
0.000873222
0.000874035
0.000874561
0.000875745
0.000876389
0.000878682
0.000878832
0.00089562
0.00095819
0.00245771
0.00102035
0.000960008
0.000929445
0.000911966
0.000900766
0.00089308
0.000887499
0.000883338
0.00088012
0.000877608
0.000875588
0.000873962
0.000872618
0.000871513
0.000870579
0.000869803
0.000869129
0.00086856
0.000868069
0.000867656
0.000867279
0.00086696
0.000866677
0.000866443
0.000866206
0.000866013
0.000865844
0.000865706
0.00086556
0.000865447
0.000865346
0.000865268
0.000865136
0.000865077
0.000865032
0.000864993
0.000864922
0.000864892
0.000864868
0.000864838
0.000864759
0.000864768
0.000864766
0.000864757
0.000864698
0.00086481
0.000864823
0.000864823
0.000864822
0.000864823
0.00086481
0.000864958
0.000864958
0.000864958
0.000864955
0.000865097
0.000865172
0.000865205
0.000865359
0.000865361
0.000865361
0.000865473
0.000865694
0.000865821
0.000865848
0.00086594
0.000866084
0.000866296
0.000866487
0.000866664
0.000866751
0.000866936
0.000867132
0.000867335
0.00086749
0.000867771
0.000867995
0.000868229
0.00086842
0.000868736
0.00086902
0.000869404
0.000869741
0.000870231
0.000870601
0.000871202
0.000871664
0.000872479
0.000873004
0.000874187
0.000874827
0.000877121
0.000877246
0.000894563
0.000956956
0.00244547
0.00102031
0.000959615
0.000928753
0.00091106
0.000899708
0.00089191
0.000886244
0.000882015
0.000878744
0.000876188
0.000874132
0.000872476
0.000871107
0.00086998
0.000869028
0.000868236
0.000867548
0.000866967
0.000866465
0.000866043
0.000865658
0.000865332
0.000865041
0.000864802
0.000864559
0.000864362
0.000864188
0.000864047
0.000863897
0.000863782
0.000863677
0.000863597
0.000863463
0.000863401
0.000863354
0.000863313
0.000863241
0.000863209
0.000863184
0.000863153
0.000863074
0.000863081
0.000863079
0.000863068
0.000863007
0.000863118
0.000863131
0.00086313
0.00086313
0.00086313
0.000863116
0.000863263
0.000863263
0.000863263
0.00086326
0.000863402
0.000863478
0.000863508
0.000863663
0.000863666
0.000863666
0.000863778
0.000863998
0.000864128
0.000864159
0.000864249
0.000864391
0.000864603
0.000864794
0.000864974
0.000865063
0.000865248
0.000865444
0.000865649
0.000865804
0.000866085
0.000866309
0.000866546
0.000866737
0.000867054
0.000867338
0.000867723
0.00086806
0.000868551
0.000868921
0.000869523
0.000869984
0.0008708
0.000871324
0.000872505
0.000873143
0.000875437
0.000875534
0.000893423
0.000955607
0.00243048
0.00102027
0.000959198
0.000928014
0.000910093
0.000898577
0.000890658
0.000884899
0.000880598
0.000877269
0.000874666
0.000872571
0.000870882
0.000869486
0.000868335
0.000867364
0.000866554
0.000865851
0.000865258
0.000864744
0.000864311
0.000863918
0.000863583
0.000863286
0.00086304
0.000862792
0.00086259
0.000862411
0.000862265
0.000862112
0.000861993
0.000861886
0.000861803
0.000861667
0.000861602
0.000861553
0.00086151
0.000861437
0.000861403
0.000861376
0.000861345
0.000861264
0.000861269
0.000861267
0.000861255
0.000861192
0.000861302
0.000861314
0.000861314
0.000861313
0.000861313
0.000861297
0.000861443
0.000861443
0.000861443
0.00086144
0.000861582
0.000861659
0.000861687
0.000861843
0.000861846
0.000861846
0.000861958
0.000862178
0.00086231
0.000862346
0.000862434
0.000862573
0.000862785
0.000862976
0.000863159
0.00086325
0.000863436
0.000863631
0.000863838
0.000863993
0.000864274
0.000864499
0.000864738
0.00086493
0.000865247
0.000865531
0.000865918
0.000866254
0.000866746
0.000867116
0.00086772
0.000868179
0.000868997
0.00086952
0.000870699
0.000871333
0.000873628
0.000873697
0.000892196
0.000954141
0.00241281
0.00102023
0.000958757
0.00092723
0.000909064
0.000897373
0.000889323
0.000883465
0.000879086
0.000875695
0.00087304
0.000870904
0.00086918
0.000867754
0.000866578
0.000865585
0.000864757
0.000864038
0.00086343
0.000862905
0.000862461
0.000862057
0.000861715
0.00086141
0.000861157
0.000860903
0.000860695
0.000860511
0.000860361
0.000860204
0.000860081
0.00085997
0.000859885
0.000859746
0.000859679
0.000859626
0.000859582
0.000859507
0.000859471
0.000859443
0.000859411
0.00085933
0.000859333
0.00085933
0.000859316
0.000859251
0.000859359
0.000859371
0.000859371
0.00085937
0.00085937
0.000859352
0.000859497
0.000859497
0.000859497
0.000859494
0.000859635
0.000859713
0.000859738
0.000859896
0.0008599
0.0008599
0.000860011
0.00086023
0.000860365
0.000860405
0.000860491
0.000860629
0.00086084
0.000861032
0.000861217
0.00086131
0.000861496
0.000861692
0.0008619
0.000862056
0.000862336
0.000862562
0.000862804
0.000862997
0.000863315
0.000863598
0.000863986
0.000864321
0.000864816
0.000865185
0.000865791
0.000866248
0.000867067
0.000867588
0.000868765
0.000869396
0.000871691
0.000871731
0.000890878
0.000952553
0.00239255
0.00102019
0.000958294
0.000926402
0.000907973
0.000896095
0.000887906
0.000881941
0.000877478
0.00087402
0.000871311
0.000869129
0.000867368
0.00086591
0.000864708
0.000863691
0.000862843
0.000862107
0.000861484
0.000860945
0.000860489
0.000860075
0.000859723
0.00085941
0.00085915
0.00085889
0.000858675
0.000858486
0.000858331
0.00085817
0.000858043
0.000857928
0.00085784
0.000857699
0.000857628
0.000857573
0.000857527
0.00085745
0.000857412
0.000857382
0.000857349
0.000857267
0.000857268
0.000857264
0.00085725
0.000857182
0.000857288
0.0008573
0.000857299
0.000857299
0.000857298
0.000857279
0.000857422
0.000857423
0.000857422
0.000857419
0.000857559
0.000857639
0.000857662
0.00085782
0.000857825
0.000857825
0.000857935
0.000858154
0.000858292
0.000858337
0.000858421
0.000858556
0.000858767
0.000858959
0.000859146
0.000859242
0.000859428
0.000859624
0.000859834
0.00085999
0.00086027
0.000860497
0.000860742
0.000860935
0.000861254
0.000861537
0.000861926
0.00086226
0.000862756
0.000863125
0.000863733
0.000864188
0.000865009
0.000865528
0.000866703
0.00086733
0.000869624
0.000869634
0.000889467
0.000950842
0.00236979
0.00102015
0.000957809
0.000925529
0.000906822
0.000894743
0.000886405
0.000880327
0.000875774
0.000872244
0.000869476
0.000867247
0.000865445
0.000863953
0.000862722
0.000861681
0.000860811
0.000860056
0.000859417
0.000858863
0.000858395
0.00085797
0.000857609
0.000857286
0.000857018
0.000856751
0.00085653
0.000856335
0.000856175
0.000856009
0.000855878
0.000855759
0.000855668
0.000855524
0.00085545
0.000855392
0.000855344
0.000855265
0.000855225
0.000855192
0.000855158
0.000855076
0.000855075
0.00085507
0.000855054
0.000854983
0.000855088
0.000855099
0.000855098
0.000855098
0.000855097
0.000855076
0.000855218
0.000855218
0.000855218
0.000855214
0.000855354
0.000855434
0.000855454
0.000855614
0.00085562
0.000855619
0.00085573
0.000855948
0.000856088
0.000856138
0.00085622
0.000856353
0.000856563
0.000856756
0.000856945
0.000857044
0.000857231
0.000857426
0.000857638
0.000857794
0.000858074
0.000858302
0.00085855
0.000858743
0.000859062
0.000859345
0.000859736
0.000860069
0.000860567
0.000860936
0.000861545
0.000861998
0.00086282
0.000863338
0.00086451
0.000865132
0.000867426
0.000867406
0.000887958
0.000949003
0.00234464
0.00102011
0.000957301
0.000924612
0.000905609
0.000893317
0.00088482
0.000878621
0.000873973
0.000870366
0.000867536
0.000865255
0.00086341
0.000861882
0.00086062
0.000859552
0.000858659
0.000857885
0.000857228
0.000856659
0.000856178
0.000855741
0.000855369
0.000855037
0.00085476
0.000854486
0.000854258
0.000854057
0.000853891
0.00085372
0.000853584
0.000853461
0.000853366
0.00085322
0.000853142
0.00085308
0.00085303
0.000852949
0.000852907
0.000852872
0.000852837
0.000852755
0.000852751
0.000852744
0.000852727
0.000852654
0.000852756
0.000852766
0.000852766
0.000852766
0.000852764
0.000852741
0.000852881
0.000852882
0.000852881
0.000852877
0.000853016
0.000853098
0.000853115
0.000853275
0.000853283
0.000853282
0.000853392
0.000853609
0.000853752
0.000853807
0.000853887
0.000854018
0.000854228
0.00085442
0.000854613
0.000854714
0.000854901
0.000855095
0.000855309
0.000855467
0.000855746
0.000855974
0.000856225
0.00085642
0.00085674
0.000857021
0.000857414
0.000857746
0.000858246
0.000858614
0.000859224
0.000859675
0.000860498
0.000861015
0.000862184
0.000862802
0.000865094
0.000865043
0.000886346
0.000947031
0.00231721
0.00102008
0.000956773
0.000923653
0.000904335
0.000891817
0.000883152
0.000876823
0.000872074
0.000868386
0.000865489
0.000863153
0.000861263
0.000859696
0.0008584
0.000857305
0.000856387
0.000855592
0.000854917
0.000854331
0.000853835
0.000853386
0.000853002
0.00085266
0.000852374
0.000852092
0.000851857
0.000851649
0.000851477
0.000851301
0.000851161
0.000851032
0.000850934
0.000850784
0.000850703
0.000850638
0.000850585
0.000850502
0.000850457
0.00085042
0.000850384
0.000850301
0.000850294
0.000850286
0.000850267
0.000850191
0.000850291
0.000850301
0.000850301
0.000850301
0.000850298
0.000850273
0.000850411
0.000850412
0.000850412
0.000850407
0.000850546
0.000850628
0.000850643
0.000850804
0.000850812
0.000850811
0.000850921
0.000851137
0.000851282
0.000851343
0.00085142
0.000851549
0.000851758
0.000851951
0.000852146
0.00085225
0.000852437
0.000852632
0.000852848
0.000853005
0.000853284
0.000853513
0.000853767
0.000853963
0.000854283
0.000854564
0.000854959
0.000855289
0.000855791
0.000856158
0.00085677
0.000857219
0.000858043
0.000858558
0.000859724
0.000860337
0.000862628
0.000862545
0.000884624
0.000944922
0.00228763
0.00102004
0.000956225
0.00092265
0.000903002
0.000890244
0.0008814
0.000874935
0.000870077
0.000866303
0.000863335
0.000860941
0.000859001
0.000857394
0.000856063
0.000854937
0.000853994
0.000853176
0.000852481
0.000851878
0.000851367
0.000850904
0.000850508
0.000850155
0.00084986
0.000849569
0.000849326
0.000849111
0.000848933
0.000848751
0.000848605
0.000848472
0.000848369
0.000848217
0.000848131
0.000848062
0.000848007
0.000847921
0.000847874
0.000847834
0.000847797
0.000847713
0.000847704
0.000847694
0.000847673
0.000847595
0.000847692
0.000847701
0.000847701
0.000847701
0.000847698
0.000847671
0.000847807
0.000847807
0.000847807
0.000847802
0.00084794
0.000848023
0.000848035
0.000848197
0.000848206
0.000848206
0.000848315
0.00084853
0.000848677
0.000848743
0.000848818
0.000848945
0.000849154
0.000849347
0.000849544
0.000849651
0.000849839
0.000850033
0.000850251
0.000850409
0.000850687
0.000850917
0.000851174
0.00085137
0.000851692
0.000851972
0.000852368
0.000852697
0.0008532
0.000853567
0.000854181
0.000854627
0.000855452
0.000855964
0.000857127
0.000857736
0.000860025
0.00085991
0.000882789
0.000942669
0.00225602
0.00102
0.000955658
0.000921606
0.000901608
0.000888598
0.000879565
0.000872954
0.000867982
0.000864116
0.000861074
0.000858618
0.000856626
0.000854975
0.000853607
0.000852449
0.000851478
0.000850636
0.00084992
0.000849299
0.000848771
0.000848294
0.000847885
0.000847521
0.000847215
0.000846916
0.000846664
0.000846441
0.000846256
0.000846069
0.000845917
0.000845778
0.000845672
0.000845515
0.000845425
0.000845353
0.000845294
0.000845206
0.000845156
0.000845114
0.000845075
0.00084499
0.000844978
0.000844967
0.000844944
0.000844863
0.000844957
0.000844965
0.000844966
0.000844965
0.000844962
0.000844932
0.000845066
0.000845067
0.000845066
0.000845061
0.000845198
0.000845281
0.000845291
0.000845453
0.000845464
0.000845463
0.000845572
0.000845786
0.000845936
0.000846007
0.00084608
0.000846205
0.000846413
0.000846605
0.000846806
0.000846915
0.000847104
0.000847297
0.000847517
0.000847676
0.000847953
0.000848183
0.000848444
0.000848641
0.000848963
0.000849243
0.00084964
0.000849968
0.000850473
0.000850838
0.000851454
0.000851897
0.000852723
0.000853233
0.000854393
0.000854996
0.000857283
0.000857136
0.000880831
0.000940265
0.00222251
0.00101997
0.000955072
0.000920522
0.000900156
0.000886879
0.000877646
0.000870882
0.000865789
0.000861826
0.000858704
0.000856182
0.000854136
0.000852438
0.000851031
0.000849839
0.000848839
0.000847972
0.000847233
0.000846593
0.000846047
0.000845555
0.000845133
0.000844756
0.000844439
0.00084413
0.00084387
0.000843639
0.000843447
0.000843252
0.000843095
0.00084295
0.000842839
0.000842679
0.000842585
0.000842507
0.000842446
0.000842355
0.000842302
0.000842257
0.000842217
0.00084213
0.000842116
0.000842103
0.000842079
0.000841994
0.000842086
0.000842093
0.000842093
0.000842092
0.000842088
0.000842056
0.000842187
0.000842188
0.000842188
0.000842182
0.000842318
0.000842401