/*--------------------------------*- C++ -*----------------------------------*\
| =========                 |                                                 |
| \\      /  F ield         | OpenFOAM: The Open Source CFD Toolbox           |
|  \\    /   O peration     | Version:  v2012                                 |
|   \\  /    A nd           | Website:  www.openfoam.com                      |
|    \\/     M anipulation  |                                                 |
\*---------------------------------------------------------------------------*/
FoamFile
{
    version     2.0;
    format      ascii;
    class       volScalarField;
    location    "12.5";
    object      nut;
}
// * * * * * * * * * * * * * * * * * * * * * * * * * * * * * * * * * * * * * //

dimensions      [0 2 -1 0 0 0 0];


internalField   nonuniform List<scalar> 
209825
(
1.24089e-07
1.24743e-07
1.25503e-07
1.26091e-07
1.26537e-07
1.26884e-07
1.27161e-07
1.27388e-07
1.27578e-07
1.27738e-07
1.27874e-07
1.27991e-07
1.28094e-07
1.28182e-07
1.28261e-07
1.28329e-07
1.28391e-07
1.28444e-07
1.28494e-07
1.28538e-07
1.28578e-07
1.28613e-07
1.28646e-07
1.28674e-07
1.287e-07
1.28723e-07
1.28746e-07
1.28765e-07
1.28784e-07
1.28801e-07
1.28818e-07
1.28832e-07
1.28837e-07
1.28849e-07
1.28866e-07
1.28877e-07
1.28882e-07
1.28889e-07
1.28904e-07
1.28909e-07
1.28906e-07
1.28917e-07
1.28937e-07
1.28931e-07
1.28924e-07
1.28942e-07
1.28945e-07
1.28948e-07
1.28956e-07
1.28953e-07
1.28953e-07
1.28958e-07
1.28948e-07
1.28948e-07
1.28948e-07
1.28949e-07
1.28942e-07
1.28944e-07
1.28965e-07
1.28965e-07
1.28949e-07
1.2895e-07
1.28983e-07
1.28986e-07
1.28959e-07
1.28974e-07
1.28997e-07
1.29007e-07
1.29034e-07
1.29036e-07
1.29019e-07
1.29024e-07
1.29025e-07
1.29027e-07
1.29049e-07
1.29068e-07
1.29073e-07
1.29085e-07
1.29078e-07
1.29096e-07
1.29121e-07
1.29139e-07
1.29166e-07
1.292e-07
1.29222e-07
1.2926e-07
1.29296e-07
1.2935e-07
1.29391e-07
1.29476e-07
1.29529e-07
1.29705e-07
1.29738e-07
1.30815e-07
1.35793e-07
2.10061e-08
1.24089e-07
1.24742e-07
1.25502e-07
1.26091e-07
1.26537e-07
1.26883e-07
1.27161e-07
1.27388e-07
1.27578e-07
1.27738e-07
1.27874e-07
1.27991e-07
1.28094e-07
1.28182e-07
1.28261e-07
1.2833e-07
1.28391e-07
1.28444e-07
1.28495e-07
1.28538e-07
1.28578e-07
1.28613e-07
1.28646e-07
1.28674e-07
1.287e-07
1.28723e-07
1.28747e-07
1.28766e-07
1.28784e-07
1.28801e-07
1.28818e-07
1.28832e-07
1.28838e-07
1.28849e-07
1.28866e-07
1.28877e-07
1.28883e-07
1.2889e-07
1.28904e-07
1.2891e-07
1.28907e-07
1.28917e-07
1.28937e-07
1.28931e-07
1.28925e-07
1.28943e-07
1.28945e-07
1.28948e-07
1.28956e-07
1.28953e-07
1.28954e-07
1.28958e-07
1.28948e-07
1.28948e-07
1.28948e-07
1.28949e-07
1.28942e-07
1.28945e-07
1.28966e-07
1.28966e-07
1.28949e-07
1.2895e-07
1.28983e-07
1.28987e-07
1.28959e-07
1.28974e-07
1.28997e-07
1.29007e-07
1.29035e-07
1.29037e-07
1.29019e-07
1.29024e-07
1.29025e-07
1.29027e-07
1.2905e-07
1.29069e-07
1.29074e-07
1.29086e-07
1.29078e-07
1.29097e-07
1.29121e-07
1.29139e-07
1.29166e-07
1.29201e-07
1.29222e-07
1.29261e-07
1.29297e-07
1.2935e-07
1.29392e-07
1.29477e-07
1.29529e-07
1.29706e-07
1.29739e-07
1.30818e-07
1.35799e-07
2.16331e-08
1.24089e-07
1.24741e-07
1.255e-07
1.26088e-07
1.26534e-07
1.2688e-07
1.27158e-07
1.27385e-07
1.27575e-07
1.27735e-07
1.27871e-07
1.27988e-07
1.28091e-07
1.28179e-07
1.28258e-07
1.28327e-07
1.28388e-07
1.28441e-07
1.28492e-07
1.28535e-07
1.28575e-07
1.2861e-07
1.28643e-07
1.28671e-07
1.28697e-07
1.28721e-07
1.28744e-07
1.28763e-07
1.28782e-07
1.28798e-07
1.28815e-07
1.2883e-07
1.28835e-07
1.28846e-07
1.28863e-07
1.28875e-07
1.2888e-07
1.28887e-07
1.28902e-07
1.28907e-07
1.28904e-07
1.28915e-07
1.28935e-07
1.28929e-07
1.28922e-07
1.2894e-07
1.28943e-07
1.28946e-07
1.28954e-07
1.28951e-07
1.28951e-07
1.28956e-07
1.28946e-07
1.28946e-07
1.28946e-07
1.28947e-07
1.2894e-07
1.28942e-07
1.28963e-07
1.28963e-07
1.28947e-07
1.28948e-07
1.28981e-07
1.28984e-07
1.28957e-07
1.28972e-07
1.28995e-07
1.29005e-07
1.29033e-07
1.29034e-07
1.29017e-07
1.29022e-07
1.29023e-07
1.29025e-07
1.29047e-07
1.29066e-07
1.29072e-07
1.29084e-07
1.29076e-07
1.29095e-07
1.29119e-07
1.29137e-07
1.29164e-07
1.29199e-07
1.2922e-07
1.29259e-07
1.29295e-07
1.29348e-07
1.2939e-07
1.29475e-07
1.29527e-07
1.29704e-07
1.29737e-07
1.3082e-07
1.35807e-07
2.24109e-08
1.24088e-07
1.24738e-07
1.25496e-07
1.26084e-07
1.2653e-07
1.26876e-07
1.27154e-07
1.27381e-07
1.27571e-07
1.2773e-07
1.27867e-07
1.27984e-07
1.28086e-07
1.28175e-07
1.28254e-07
1.28322e-07
1.28384e-07
1.28437e-07
1.28488e-07
1.28531e-07
1.28571e-07
1.28606e-07
1.28639e-07
1.28667e-07
1.28693e-07
1.28717e-07
1.2874e-07
1.28759e-07
1.28778e-07
1.28795e-07
1.28812e-07
1.28826e-07
1.28831e-07
1.28843e-07
1.2886e-07
1.28871e-07
1.28876e-07
1.28884e-07
1.28898e-07
1.28904e-07
1.289e-07
1.28911e-07
1.28931e-07
1.28925e-07
1.28919e-07
1.28937e-07
1.28939e-07
1.28942e-07
1.2895e-07
1.28947e-07
1.28948e-07
1.28952e-07
1.28942e-07
1.28942e-07
1.28942e-07
1.28944e-07
1.28937e-07
1.28939e-07
1.2896e-07
1.2896e-07
1.28944e-07
1.28945e-07
1.28977e-07
1.28981e-07
1.28954e-07
1.28969e-07
1.28992e-07
1.29002e-07
1.29029e-07
1.29031e-07
1.29014e-07
1.29019e-07
1.2902e-07
1.29022e-07
1.29044e-07
1.29063e-07
1.29069e-07
1.29081e-07
1.29074e-07
1.29092e-07
1.29116e-07
1.29134e-07
1.29161e-07
1.29196e-07
1.29217e-07
1.29256e-07
1.29292e-07
1.29346e-07
1.29387e-07
1.29472e-07
1.29525e-07
1.29701e-07
1.29734e-07
1.30824e-07
1.35819e-07
2.3274e-08
1.24087e-07
1.24734e-07
1.25491e-07
1.26078e-07
1.26524e-07
1.2687e-07
1.27148e-07
1.27375e-07
1.27565e-07
1.27724e-07
1.27861e-07
1.27978e-07
1.28081e-07
1.28169e-07
1.28248e-07
1.28317e-07
1.28378e-07
1.28432e-07
1.28482e-07
1.28526e-07
1.28566e-07
1.28601e-07
1.28634e-07
1.28662e-07
1.28688e-07
1.28712e-07
1.28735e-07
1.28754e-07
1.28773e-07
1.2879e-07
1.28807e-07
1.28821e-07
1.28827e-07
1.28838e-07
1.28855e-07
1.28866e-07
1.28872e-07
1.28879e-07
1.28893e-07
1.28899e-07
1.28896e-07
1.28907e-07
1.28926e-07
1.28921e-07
1.28914e-07
1.28932e-07
1.28935e-07
1.28938e-07
1.28946e-07
1.28943e-07
1.28943e-07
1.28948e-07
1.28938e-07
1.28938e-07
1.28938e-07
1.28939e-07
1.28932e-07
1.28935e-07
1.28956e-07
1.28956e-07
1.28939e-07
1.2894e-07
1.28973e-07
1.28977e-07
1.2895e-07
1.28965e-07
1.28988e-07
1.28998e-07
1.29025e-07
1.29027e-07
1.2901e-07
1.29015e-07
1.29016e-07
1.29018e-07
1.29041e-07
1.2906e-07
1.29065e-07
1.29077e-07
1.2907e-07
1.29088e-07
1.29113e-07
1.29131e-07
1.29158e-07
1.29192e-07
1.29214e-07
1.29253e-07
1.29289e-07
1.29342e-07
1.29384e-07
1.29469e-07
1.29521e-07
1.29698e-07
1.2973e-07
1.30829e-07
1.35836e-07
2.42099e-08
1.24085e-07
1.24729e-07
1.25484e-07
1.26071e-07
1.26516e-07
1.26862e-07
1.2714e-07
1.27367e-07
1.27557e-07
1.27717e-07
1.27854e-07
1.27971e-07
1.28074e-07
1.28162e-07
1.28241e-07
1.2831e-07
1.28372e-07
1.28425e-07
1.28476e-07
1.28519e-07
1.2856e-07
1.28595e-07
1.28628e-07
1.28656e-07
1.28682e-07
1.28706e-07
1.28729e-07
1.28748e-07
1.28767e-07
1.28784e-07
1.28801e-07
1.28815e-07
1.28821e-07
1.28832e-07
1.28849e-07
1.2886e-07
1.28866e-07
1.28873e-07
1.28888e-07
1.28893e-07
1.2889e-07
1.28901e-07
1.28921e-07
1.28916e-07
1.28909e-07
1.28926e-07
1.28929e-07
1.28932e-07
1.2894e-07
1.28938e-07
1.28938e-07
1.28943e-07
1.28933e-07
1.28933e-07
1.28933e-07
1.28934e-07
1.28927e-07
1.2893e-07
1.28951e-07
1.28951e-07
1.28934e-07
1.28935e-07
1.28968e-07
1.28972e-07
1.28945e-07
1.2896e-07
1.28983e-07
1.28993e-07
1.29021e-07
1.29023e-07
1.29006e-07
1.29011e-07
1.29012e-07
1.29014e-07
1.29036e-07
1.29055e-07
1.29061e-07
1.29073e-07
1.29066e-07
1.29084e-07
1.29108e-07
1.29127e-07
1.29154e-07
1.29188e-07
1.2921e-07
1.29249e-07
1.29285e-07
1.29338e-07
1.2938e-07
1.29465e-07
1.29518e-07
1.29694e-07
1.29725e-07
1.30836e-07
1.35855e-07
2.52162e-08
1.24083e-07
1.24723e-07
1.25476e-07
1.26062e-07
1.26507e-07
1.26853e-07
1.27131e-07
1.27358e-07
1.27548e-07
1.27708e-07
1.27845e-07
1.27962e-07
1.28065e-07
1.28154e-07
1.28233e-07
1.28302e-07
1.28364e-07
1.28417e-07
1.28468e-07
1.28512e-07
1.28552e-07
1.28587e-07
1.2862e-07
1.28649e-07
1.28675e-07
1.28698e-07
1.28722e-07
1.28741e-07
1.2876e-07
1.28777e-07
1.28794e-07
1.28808e-07
1.28814e-07
1.28825e-07
1.28842e-07
1.28854e-07
1.28859e-07
1.28867e-07
1.28881e-07
1.28887e-07
1.28884e-07
1.28894e-07
1.28914e-07
1.28909e-07
1.28902e-07
1.2892e-07
1.28923e-07
1.28926e-07
1.28934e-07
1.28931e-07
1.28932e-07
1.28936e-07
1.28927e-07
1.28927e-07
1.28927e-07
1.28928e-07
1.28921e-07
1.28924e-07
1.28945e-07
1.28945e-07
1.28928e-07
1.2893e-07
1.28962e-07
1.28966e-07
1.2894e-07
1.28955e-07
1.28977e-07
1.28987e-07
1.29015e-07
1.29017e-07
1.29001e-07
1.29005e-07
1.29007e-07
1.29009e-07
1.29031e-07
1.2905e-07
1.29055e-07
1.29068e-07
1.29061e-07
1.29079e-07
1.29103e-07
1.29122e-07
1.29149e-07
1.29183e-07
1.29205e-07
1.29244e-07
1.2928e-07
1.29334e-07
1.29375e-07
1.2946e-07
1.29513e-07
1.2969e-07
1.2972e-07
1.30846e-07
1.35876e-07
2.62929e-08
1.24081e-07
1.24715e-07
1.25466e-07
1.26052e-07
1.26496e-07
1.26842e-07
1.2712e-07
1.27348e-07
1.27538e-07
1.27698e-07
1.27835e-07
1.27952e-07
1.28055e-07
1.28144e-07
1.28223e-07
1.28293e-07
1.28354e-07
1.28408e-07
1.28459e-07
1.28503e-07
1.28543e-07
1.28578e-07
1.28611e-07
1.2864e-07
1.28666e-07
1.2869e-07
1.28713e-07
1.28733e-07
1.28752e-07
1.28769e-07
1.28786e-07
1.288e-07
1.28806e-07
1.28817e-07
1.28835e-07
1.28846e-07
1.28852e-07
1.28859e-07
1.28874e-07
1.28879e-07
1.28876e-07
1.28887e-07
1.28907e-07
1.28902e-07
1.28895e-07
1.28913e-07
1.28916e-07
1.28918e-07
1.28927e-07
1.28924e-07
1.28925e-07
1.28929e-07
1.2892e-07
1.2892e-07
1.2892e-07
1.28921e-07
1.28915e-07
1.28917e-07
1.28938e-07
1.28938e-07
1.28922e-07
1.28923e-07
1.28956e-07
1.2896e-07
1.28933e-07
1.28948e-07
1.28971e-07
1.28981e-07
1.29009e-07
1.29011e-07
1.28994e-07
1.28999e-07
1.29001e-07
1.29003e-07
1.29025e-07
1.29044e-07
1.2905e-07
1.29062e-07
1.29055e-07
1.29073e-07
1.29098e-07
1.29116e-07
1.29143e-07
1.29178e-07
1.292e-07
1.29239e-07
1.29274e-07
1.29329e-07
1.2937e-07
1.29455e-07
1.29508e-07
1.29685e-07
1.29714e-07
1.30857e-07
1.35898e-07
2.74411e-08
1.24079e-07
1.24707e-07
1.25455e-07
1.2604e-07
1.26484e-07
1.2683e-07
1.27108e-07
1.27336e-07
1.27526e-07
1.27686e-07
1.27823e-07
1.27941e-07
1.28044e-07
1.28133e-07
1.28212e-07
1.28282e-07
1.28344e-07
1.28398e-07
1.28448e-07
1.28493e-07
1.28533e-07
1.28568e-07
1.28602e-07
1.2863e-07
1.28657e-07
1.2868e-07
1.28704e-07
1.28723e-07
1.28742e-07
1.28759e-07
1.28777e-07
1.28791e-07
1.28797e-07
1.28808e-07
1.28826e-07
1.28837e-07
1.28843e-07
1.2885e-07
1.28865e-07
1.28871e-07
1.28868e-07
1.28878e-07
1.28898e-07
1.28893e-07
1.28886e-07
1.28904e-07
1.28907e-07
1.2891e-07
1.28918e-07
1.28916e-07
1.28917e-07
1.28921e-07
1.28912e-07
1.28912e-07
1.28912e-07
1.28913e-07
1.28907e-07
1.28909e-07
1.2893e-07
1.28931e-07
1.28914e-07
1.28915e-07
1.28948e-07
1.28953e-07
1.28926e-07
1.28941e-07
1.28963e-07
1.28974e-07
1.29001e-07
1.29004e-07
1.28988e-07
1.28992e-07
1.28994e-07
1.28996e-07
1.29018e-07
1.29037e-07
1.29043e-07
1.29056e-07
1.29049e-07
1.29067e-07
1.29091e-07
1.2911e-07
1.29137e-07
1.29172e-07
1.29194e-07
1.29233e-07
1.29268e-07
1.29323e-07
1.29364e-07
1.29449e-07
1.29502e-07
1.2968e-07
1.29708e-07
1.30871e-07
1.3592e-07
2.86616e-08
1.24076e-07
1.24697e-07
1.25443e-07
1.26026e-07
1.2647e-07
1.26816e-07
1.27094e-07
1.27322e-07
1.27512e-07
1.27672e-07
1.2781e-07
1.27928e-07
1.28031e-07
1.2812e-07
1.282e-07
1.28269e-07
1.28332e-07
1.28386e-07
1.28437e-07
1.28481e-07
1.28521e-07
1.28557e-07
1.2859e-07
1.28619e-07
1.28646e-07
1.2867e-07
1.28693e-07
1.28713e-07
1.28732e-07
1.28749e-07
1.28766e-07
1.28781e-07
1.28787e-07
1.28798e-07
1.28816e-07
1.28827e-07
1.28833e-07
1.2884e-07
1.28855e-07
1.28861e-07
1.28858e-07
1.28868e-07
1.28889e-07
1.28884e-07
1.28877e-07
1.28894e-07
1.28898e-07
1.28901e-07
1.28909e-07
1.28907e-07
1.28908e-07
1.28912e-07
1.28903e-07
1.28903e-07
1.28903e-07
1.28905e-07
1.28898e-07
1.289e-07
1.28922e-07
1.28922e-07
1.28905e-07
1.28907e-07
1.28939e-07
1.28944e-07
1.28918e-07
1.28933e-07
1.28955e-07
1.28965e-07
1.28993e-07
1.28996e-07
1.2898e-07
1.28985e-07
1.28986e-07
1.28988e-07
1.29011e-07
1.2903e-07
1.29036e-07
1.29048e-07
1.29042e-07
1.2906e-07
1.29084e-07
1.29103e-07
1.2913e-07
1.29165e-07
1.29187e-07
1.29226e-07
1.29262e-07
1.29316e-07
1.29357e-07
1.29443e-07
1.29495e-07
1.29673e-07
1.297e-07
1.30887e-07
1.35943e-07
2.99539e-08
1.24073e-07
1.24687e-07
1.25429e-07
1.26011e-07
1.26454e-07
1.268e-07
1.27079e-07
1.27306e-07
1.27497e-07
1.27657e-07
1.27795e-07
1.27913e-07
1.28017e-07
1.28106e-07
1.28186e-07
1.28256e-07
1.28318e-07
1.28372e-07
1.28424e-07
1.28468e-07
1.28509e-07
1.28544e-07
1.28578e-07
1.28607e-07
1.28634e-07
1.28658e-07
1.28681e-07
1.28701e-07
1.2872e-07
1.28737e-07
1.28755e-07
1.28769e-07
1.28776e-07
1.28787e-07
1.28804e-07
1.28816e-07
1.28822e-07
1.2883e-07
1.28844e-07
1.2885e-07
1.28847e-07
1.28858e-07
1.28878e-07
1.28874e-07
1.28866e-07
1.28884e-07
1.28887e-07
1.2889e-07
1.28899e-07
1.28897e-07
1.28897e-07
1.28902e-07
1.28893e-07
1.28893e-07
1.28893e-07
1.28895e-07
1.28889e-07
1.2889e-07
1.28912e-07
1.28912e-07
1.28896e-07
1.28897e-07
1.2893e-07
1.28935e-07
1.28909e-07
1.28924e-07
1.28946e-07
1.28956e-07
1.28984e-07
1.28987e-07
1.28971e-07
1.28976e-07
1.28978e-07
1.2898e-07
1.29002e-07
1.29021e-07
1.29027e-07
1.2904e-07
1.29034e-07
1.29052e-07
1.29076e-07
1.29095e-07
1.29122e-07
1.29157e-07
1.29179e-07
1.29219e-07
1.29254e-07
1.29309e-07
1.2935e-07
1.29436e-07
1.29488e-07
1.29667e-07
1.29692e-07
1.30905e-07
1.35968e-07
3.1316e-08
1.2407e-07
1.24675e-07
1.25413e-07
1.25994e-07
1.26437e-07
1.26783e-07
1.27061e-07
1.27289e-07
1.2748e-07
1.27641e-07
1.27779e-07
1.27897e-07
1.28001e-07
1.28091e-07
1.28171e-07
1.28241e-07
1.28303e-07
1.28358e-07
1.28409e-07
1.28454e-07
1.28495e-07
1.2853e-07
1.28564e-07
1.28593e-07
1.2862e-07
1.28644e-07
1.28668e-07
1.28688e-07
1.28707e-07
1.28724e-07
1.28742e-07
1.28757e-07
1.28763e-07
1.28775e-07
1.28792e-07
1.28804e-07
1.2881e-07
1.28817e-07
1.28832e-07
1.28838e-07
1.28836e-07
1.28846e-07
1.28867e-07
1.28862e-07
1.28854e-07
1.28872e-07
1.28876e-07
1.28879e-07
1.28887e-07
1.28886e-07
1.28886e-07
1.28891e-07
1.28882e-07
1.28882e-07
1.28882e-07
1.28884e-07
1.28878e-07
1.2888e-07
1.28902e-07
1.28902e-07
1.28885e-07
1.28887e-07
1.2892e-07
1.28925e-07
1.289e-07
1.28914e-07
1.28936e-07
1.28946e-07
1.28974e-07
1.28978e-07
1.28962e-07
1.28967e-07
1.28969e-07
1.28971e-07
1.28993e-07
1.29012e-07
1.29018e-07
1.29031e-07
1.29025e-07
1.29043e-07
1.29067e-07
1.29086e-07
1.29113e-07
1.29149e-07
1.29171e-07
1.2921e-07
1.29246e-07
1.29301e-07
1.29342e-07
1.29428e-07
1.2948e-07
1.29659e-07
1.29683e-07
1.30926e-07
1.35993e-07
3.27436e-08
1.24066e-07
1.24662e-07
1.25396e-07
1.25975e-07
1.26418e-07
1.26764e-07
1.27042e-07
1.2727e-07
1.27462e-07
1.27623e-07
1.27761e-07
1.2788e-07
1.27984e-07
1.28074e-07
1.28154e-07
1.28224e-07
1.28287e-07
1.28342e-07
1.28393e-07
1.28438e-07
1.28479e-07
1.28515e-07
1.28549e-07
1.28578e-07
1.28605e-07
1.2863e-07
1.28654e-07
1.28673e-07
1.28693e-07
1.2871e-07
1.28728e-07
1.28743e-07
1.28749e-07
1.28761e-07
1.28779e-07
1.2879e-07
1.28797e-07
1.28804e-07
1.28819e-07
1.28825e-07
1.28823e-07
1.28833e-07
1.28854e-07
1.2885e-07
1.28842e-07
1.2886e-07
1.28863e-07
1.28866e-07
1.28875e-07
1.28873e-07
1.28874e-07
1.28879e-07
1.2887e-07
1.2887e-07
1.2887e-07
1.28872e-07
1.28866e-07
1.28868e-07
1.2889e-07
1.2889e-07
1.28874e-07
1.28875e-07
1.28908e-07
1.28914e-07
1.28889e-07
1.28903e-07
1.28925e-07
1.28935e-07
1.28963e-07
1.28967e-07
1.28952e-07
1.28956e-07
1.28959e-07
1.2896e-07
1.28983e-07
1.29002e-07
1.29008e-07
1.29022e-07
1.29016e-07
1.29033e-07
1.29058e-07
1.29077e-07
1.29104e-07
1.29139e-07
1.29162e-07
1.29201e-07
1.29237e-07
1.29292e-07
1.29334e-07
1.29419e-07
1.29471e-07
1.29651e-07
1.29673e-07
1.3095e-07
1.36018e-07
3.42402e-08
1.24062e-07
1.24648e-07
1.25377e-07
1.25955e-07
1.26397e-07
1.26743e-07
1.27021e-07
1.2725e-07
1.27441e-07
1.27603e-07
1.27742e-07
1.2786e-07
1.27965e-07
1.28055e-07
1.28136e-07
1.28206e-07
1.28269e-07
1.28324e-07
1.28376e-07
1.28421e-07
1.28462e-07
1.28499e-07
1.28533e-07
1.28562e-07
1.28589e-07
1.28614e-07
1.28638e-07
1.28658e-07
1.28678e-07
1.28695e-07
1.28713e-07
1.28728e-07
1.28735e-07
1.28746e-07
1.28764e-07
1.28776e-07
1.28782e-07
1.2879e-07
1.28805e-07
1.28811e-07
1.28809e-07
1.28819e-07
1.2884e-07
1.28836e-07
1.28828e-07
1.28846e-07
1.2885e-07
1.28853e-07
1.28861e-07
1.2886e-07
1.28861e-07
1.28866e-07
1.28857e-07
1.28857e-07
1.28857e-07
1.28859e-07
1.28854e-07
1.28855e-07
1.28878e-07
1.28878e-07
1.28861e-07
1.28863e-07
1.28896e-07
1.28902e-07
1.28877e-07
1.28891e-07
1.28913e-07
1.28923e-07
1.28951e-07
1.28956e-07
1.28941e-07
1.28945e-07
1.28948e-07
1.28949e-07
1.28972e-07
1.28991e-07
1.28998e-07
1.29011e-07
1.29006e-07
1.29023e-07
1.29048e-07
1.29067e-07
1.29094e-07
1.29129e-07
1.29152e-07
1.29192e-07
1.29227e-07
1.29283e-07
1.29324e-07
1.2941e-07
1.29462e-07
1.29642e-07
1.29662e-07
1.30976e-07
1.36045e-07
3.58092e-08
1.24058e-07
1.24632e-07
1.25357e-07
1.25933e-07
1.26374e-07
1.2672e-07
1.26999e-07
1.27227e-07
1.27419e-07
1.27581e-07
1.2772e-07
1.27839e-07
1.27944e-07
1.28035e-07
1.28116e-07
1.28186e-07
1.2825e-07
1.28305e-07
1.28357e-07
1.28402e-07
1.28444e-07
1.2848e-07
1.28515e-07
1.28544e-07
1.28572e-07
1.28596e-07
1.28621e-07
1.28641e-07
1.28661e-07
1.28678e-07
1.28696e-07
1.28712e-07
1.28719e-07
1.2873e-07
1.28748e-07
1.2876e-07
1.28767e-07
1.28774e-07
1.28789e-07
1.28796e-07
1.28794e-07
1.28804e-07
1.28825e-07
1.28821e-07
1.28813e-07
1.28831e-07
1.28835e-07
1.28838e-07
1.28847e-07
1.28845e-07
1.28847e-07
1.28851e-07
1.28843e-07
1.28843e-07
1.28843e-07
1.28845e-07
1.2884e-07
1.28841e-07
1.28864e-07
1.28864e-07
1.28847e-07
1.28849e-07
1.28882e-07
1.28889e-07
1.28865e-07
1.28879e-07
1.289e-07
1.2891e-07
1.28939e-07
1.28943e-07
1.28929e-07
1.28933e-07
1.28936e-07
1.28938e-07
1.28961e-07
1.2898e-07
1.28986e-07
1.29e-07
1.28995e-07
1.29012e-07
1.29036e-07
1.29056e-07
1.29082e-07
1.29119e-07
1.29141e-07
1.29181e-07
1.29217e-07
1.29273e-07
1.29314e-07
1.294e-07
1.29452e-07
1.29632e-07
1.2965e-07
1.31005e-07
1.36073e-07
3.74544e-08
1.24053e-07
1.24616e-07
1.25335e-07
1.25909e-07
1.2635e-07
1.26695e-07
1.26974e-07
1.27203e-07
1.27395e-07
1.27557e-07
1.27697e-07
1.27817e-07
1.27922e-07
1.28013e-07
1.28094e-07
1.28165e-07
1.28229e-07
1.28284e-07
1.28337e-07
1.28382e-07
1.28424e-07
1.28461e-07
1.28496e-07
1.28525e-07
1.28553e-07
1.28578e-07
1.28602e-07
1.28623e-07
1.28643e-07
1.28661e-07
1.28679e-07
1.28694e-07
1.28701e-07
1.28713e-07
1.28731e-07
1.28743e-07
1.2875e-07
1.28758e-07
1.28773e-07
1.28779e-07
1.28777e-07
1.28787e-07
1.28808e-07
1.28805e-07
1.28796e-07
1.28814e-07
1.28819e-07
1.28822e-07
1.28831e-07
1.2883e-07
1.28831e-07
1.28836e-07
1.28828e-07
1.28828e-07
1.28828e-07
1.2883e-07
1.28825e-07
1.28826e-07
1.28849e-07
1.2885e-07
1.28833e-07
1.28835e-07
1.28868e-07
1.28875e-07
1.28851e-07
1.28865e-07
1.28886e-07
1.28896e-07
1.28925e-07
1.2893e-07
1.28916e-07
1.2892e-07
1.28923e-07
1.28925e-07
1.28948e-07
1.28967e-07
1.28973e-07
1.28988e-07
1.28983e-07
1.29e-07
1.29024e-07
1.29044e-07
1.29071e-07
1.29107e-07
1.2913e-07
1.2917e-07
1.29206e-07
1.29262e-07
1.29303e-07
1.29389e-07
1.29441e-07
1.29622e-07
1.29637e-07
1.31036e-07
1.36102e-07
3.91799e-08
1.24049e-07
1.24599e-07
1.25312e-07
1.25883e-07
1.26323e-07
1.26669e-07
1.26948e-07
1.27177e-07
1.2737e-07
1.27532e-07
1.27672e-07
1.27792e-07
1.27898e-07
1.27989e-07
1.28071e-07
1.28142e-07
1.28207e-07
1.28262e-07
1.28315e-07
1.28361e-07
1.28403e-07
1.2844e-07
1.28475e-07
1.28505e-07
1.28533e-07
1.28558e-07
1.28582e-07
1.28603e-07
1.28623e-07
1.28641e-07
1.28659e-07
1.28675e-07
1.28682e-07
1.28694e-07
1.28712e-07
1.28725e-07
1.28732e-07
1.28739e-07
1.28755e-07
1.28762e-07
1.2876e-07
1.2877e-07
1.28791e-07
1.28788e-07
1.28779e-07
1.28797e-07
1.28801e-07
1.28805e-07
1.28814e-07
1.28813e-07
1.28814e-07
1.28819e-07
1.28812e-07
1.28812e-07
1.28812e-07
1.28814e-07
1.2881e-07
1.2881e-07
1.28833e-07
1.28834e-07
1.28817e-07
1.28819e-07
1.28852e-07
1.2886e-07
1.28837e-07
1.2885e-07
1.28871e-07
1.28881e-07
1.2891e-07
1.28915e-07
1.28902e-07
1.28906e-07
1.28909e-07
1.28911e-07
1.28934e-07
1.28953e-07
1.2896e-07
1.28975e-07
1.2897e-07
1.28987e-07
1.29011e-07
1.29032e-07
1.29058e-07
1.29094e-07
1.29117e-07
1.29158e-07
1.29193e-07
1.2925e-07
1.29291e-07
1.29377e-07
1.29429e-07
1.29611e-07
1.29623e-07
1.3107e-07
1.36132e-07
4.09897e-08
1.24044e-07
1.2458e-07
1.25286e-07
1.25856e-07
1.26295e-07
1.2664e-07
1.2692e-07
1.27149e-07
1.27342e-07
1.27505e-07
1.27646e-07
1.27766e-07
1.27872e-07
1.27964e-07
1.28046e-07
1.28118e-07
1.28182e-07
1.28238e-07
1.28291e-07
1.28338e-07
1.2838e-07
1.28417e-07
1.28452e-07
1.28483e-07
1.28511e-07
1.28536e-07
1.28561e-07
1.28582e-07
1.28602e-07
1.28621e-07
1.28639e-07
1.28655e-07
1.28662e-07
1.28674e-07
1.28692e-07
1.28705e-07
1.28712e-07
1.2872e-07
1.28735e-07
1.28743e-07
1.28741e-07
1.28751e-07
1.28772e-07
1.28769e-07
1.2876e-07
1.28778e-07
1.28783e-07
1.28787e-07
1.28796e-07
1.28795e-07
1.28797e-07
1.28801e-07
1.28794e-07
1.28794e-07
1.28794e-07
1.28797e-07
1.28793e-07
1.28793e-07
1.28816e-07
1.28817e-07
1.288e-07
1.28803e-07
1.28835e-07
1.28844e-07
1.28821e-07
1.28834e-07
1.28855e-07
1.28865e-07
1.28894e-07
1.289e-07
1.28887e-07
1.28891e-07
1.28895e-07
1.28896e-07
1.28919e-07
1.28939e-07
1.28946e-07
1.2896e-07
1.28956e-07
1.28973e-07
1.28997e-07
1.29018e-07
1.29044e-07
1.29081e-07
1.29104e-07
1.29145e-07
1.2918e-07
1.29237e-07
1.29278e-07
1.29364e-07
1.29416e-07
1.29599e-07
1.29609e-07
1.31106e-07
1.36163e-07
4.28878e-08
1.24038e-07
1.2456e-07
1.2526e-07
1.25826e-07
1.26265e-07
1.2661e-07
1.2689e-07
1.27119e-07
1.27313e-07
1.27476e-07
1.27617e-07
1.27738e-07
1.27845e-07
1.27937e-07
1.28019e-07
1.28092e-07
1.28157e-07
1.28213e-07
1.28266e-07
1.28313e-07
1.28356e-07
1.28393e-07
1.28429e-07
1.28459e-07
1.28488e-07
1.28513e-07
1.28538e-07
1.28559e-07
1.2858e-07
1.28598e-07
1.28617e-07
1.28633e-07
1.28641e-07
1.28653e-07
1.28671e-07
1.28684e-07
1.28691e-07
1.28699e-07
1.28715e-07
1.28722e-07
1.28721e-07
1.2873e-07
1.28752e-07
1.28749e-07
1.2874e-07
1.28758e-07
1.28763e-07
1.28767e-07
1.28776e-07
1.28776e-07
1.28778e-07
1.28782e-07
1.28776e-07
1.28776e-07
1.28776e-07
1.28778e-07
1.28774e-07
1.28775e-07
1.28798e-07
1.28799e-07
1.28782e-07
1.28785e-07
1.28818e-07
1.28826e-07
1.28805e-07
1.28817e-07
1.28838e-07
1.28848e-07
1.28877e-07
1.28883e-07
1.28871e-07
1.28875e-07
1.28879e-07
1.28881e-07
1.28904e-07
1.28923e-07
1.2893e-07
1.28945e-07
1.28942e-07
1.28958e-07
1.28982e-07
1.29003e-07
1.29029e-07
1.29066e-07
1.2909e-07
1.29131e-07
1.29166e-07
1.29223e-07
1.29264e-07
1.2935e-07
1.29402e-07
1.29586e-07
1.29593e-07
1.31145e-07
1.36195e-07
4.48785e-08
1.24033e-07
1.2454e-07
1.25232e-07
1.25795e-07
1.26233e-07
1.26578e-07
1.26857e-07
1.27088e-07
1.27281e-07
1.27445e-07
1.27587e-07
1.27708e-07
1.27815e-07
1.27908e-07
1.27991e-07
1.28064e-07
1.28129e-07
1.28186e-07
1.2824e-07
1.28286e-07
1.2833e-07
1.28367e-07
1.28403e-07
1.28434e-07
1.28463e-07
1.28489e-07
1.28514e-07
1.28535e-07
1.28556e-07
1.28575e-07
1.28594e-07
1.2861e-07
1.28618e-07
1.2863e-07
1.28648e-07
1.28662e-07
1.28669e-07
1.28677e-07
1.28693e-07
1.287e-07
1.287e-07
1.28709e-07
1.2873e-07
1.28728e-07
1.28719e-07
1.28737e-07
1.28742e-07
1.28746e-07
1.28755e-07
1.28755e-07
1.28757e-07
1.28762e-07
1.28756e-07
1.28756e-07
1.28756e-07
1.28759e-07
1.28755e-07
1.28755e-07
1.28779e-07
1.2878e-07
1.28763e-07
1.28766e-07
1.28799e-07
1.28808e-07
1.28787e-07
1.28799e-07
1.2882e-07
1.2883e-07
1.28859e-07
1.28865e-07
1.28854e-07
1.28858e-07
1.28862e-07
1.28864e-07
1.28887e-07
1.28906e-07
1.28914e-07
1.28929e-07
1.28926e-07
1.28942e-07
1.28967e-07
1.28988e-07
1.29013e-07
1.29051e-07
1.29075e-07
1.29116e-07
1.29151e-07
1.29208e-07
1.29249e-07
1.29336e-07
1.29387e-07
1.29571e-07
1.29576e-07
1.31185e-07
1.36227e-07
4.69656e-08
1.24027e-07
1.24518e-07
1.25202e-07
1.25762e-07
1.26199e-07
1.26543e-07
1.26823e-07
1.27054e-07
1.27248e-07
1.27412e-07
1.27554e-07
1.27676e-07
1.27784e-07
1.27877e-07
1.27961e-07
1.28034e-07
1.281e-07
1.28157e-07
1.28211e-07
1.28258e-07
1.28302e-07
1.2834e-07
1.28376e-07
1.28407e-07
1.28436e-07
1.28462e-07
1.28488e-07
1.2851e-07
1.28531e-07
1.2855e-07
1.28569e-07
1.28585e-07
1.28594e-07
1.28606e-07
1.28624e-07
1.28638e-07
1.28646e-07
1.28654e-07
1.28669e-07
1.28677e-07
1.28677e-07
1.28686e-07
1.28707e-07
1.28706e-07
1.28697e-07
1.28715e-07
1.2872e-07
1.28724e-07
1.28733e-07
1.28734e-07
1.28736e-07
1.28741e-07
1.28735e-07
1.28735e-07
1.28735e-07
1.28738e-07
1.28735e-07
1.28734e-07
1.28758e-07
1.2876e-07
1.28742e-07
1.28746e-07
1.28778e-07
1.28788e-07
1.28768e-07
1.2878e-07
1.288e-07
1.28811e-07
1.2884e-07
1.28846e-07
1.28835e-07
1.28839e-07
1.28844e-07
1.28846e-07
1.28869e-07
1.28889e-07
1.28896e-07
1.28912e-07
1.28909e-07
1.28926e-07
1.2895e-07
1.28971e-07
1.28997e-07
1.29034e-07
1.29058e-07
1.291e-07
1.29135e-07
1.29193e-07
1.29234e-07
1.2932e-07
1.29371e-07
1.29556e-07
1.29559e-07
1.31228e-07
1.3626e-07
4.9153e-08
1.24022e-07
1.24495e-07
1.2517e-07
1.25728e-07
1.26163e-07
1.26507e-07
1.26787e-07
1.27018e-07
1.27213e-07
1.27377e-07
1.2752e-07
1.27642e-07
1.27751e-07
1.27844e-07
1.27929e-07
1.28002e-07
1.28069e-07
1.28126e-07
1.28181e-07
1.28229e-07
1.28273e-07
1.28311e-07
1.28348e-07
1.28379e-07
1.28408e-07
1.28435e-07
1.28461e-07
1.28483e-07
1.28504e-07
1.28523e-07
1.28542e-07
1.28559e-07
1.28568e-07
1.2858e-07
1.28599e-07
1.28612e-07
1.28621e-07
1.28629e-07
1.28645e-07
1.28653e-07
1.28653e-07
1.28662e-07
1.28683e-07
1.28682e-07
1.28673e-07
1.28691e-07
1.28696e-07
1.287e-07
1.2871e-07
1.28711e-07
1.28713e-07
1.28718e-07
1.28712e-07
1.28712e-07
1.28713e-07
1.28715e-07
1.28713e-07
1.28712e-07
1.28737e-07
1.28738e-07
1.28721e-07
1.28724e-07
1.28757e-07
1.28767e-07
1.28748e-07
1.2876e-07
1.28779e-07
1.2879e-07
1.28819e-07
1.28826e-07
1.28816e-07
1.2882e-07
1.28825e-07
1.28827e-07
1.28851e-07
1.2887e-07
1.28877e-07
1.28894e-07
1.28891e-07
1.28908e-07
1.28932e-07
1.28953e-07
1.28979e-07
1.29017e-07
1.29041e-07
1.29083e-07
1.29118e-07
1.29176e-07
1.29217e-07
1.29303e-07
1.29355e-07
1.2954e-07
1.2954e-07
1.31272e-07
1.36293e-07
5.14441e-08
1.24016e-07
1.24471e-07
1.25137e-07
1.25691e-07
1.26125e-07
1.26469e-07
1.26749e-07
1.2698e-07
1.27175e-07
1.2734e-07
1.27484e-07
1.27607e-07
1.27716e-07
1.2781e-07
1.27895e-07
1.27969e-07
1.28036e-07
1.28094e-07
1.28149e-07
1.28197e-07
1.28241e-07
1.2828e-07
1.28317e-07
1.28349e-07
1.28379e-07
1.28405e-07
1.28432e-07
1.28454e-07
1.28476e-07
1.28495e-07
1.28514e-07
1.28532e-07
1.28541e-07
1.28553e-07
1.28572e-07
1.28586e-07
1.28594e-07
1.28603e-07
1.28618e-07
1.28627e-07
1.28627e-07
1.28636e-07
1.28658e-07
1.28657e-07
1.28648e-07
1.28666e-07
1.28671e-07
1.28676e-07
1.28685e-07
1.28686e-07
1.28689e-07
1.28694e-07
1.28689e-07
1.28688e-07
1.28689e-07
1.28692e-07
1.2869e-07
1.28689e-07
1.28713e-07
1.28715e-07
1.28698e-07
1.28701e-07
1.28734e-07
1.28745e-07
1.28727e-07
1.28738e-07
1.28757e-07
1.28768e-07
1.28797e-07
1.28805e-07
1.28796e-07
1.288e-07
1.28805e-07
1.28807e-07
1.28831e-07
1.2885e-07
1.28858e-07
1.28874e-07
1.28873e-07
1.28889e-07
1.28913e-07
1.28935e-07
1.2896e-07
1.28998e-07
1.29023e-07
1.29065e-07
1.291e-07
1.29158e-07
1.29199e-07
1.29286e-07
1.29337e-07
1.29523e-07
1.2952e-07
1.31318e-07
1.36326e-07
5.38417e-08
1.2401e-07
1.24446e-07
1.25103e-07
1.25652e-07
1.26085e-07
1.26428e-07
1.26708e-07
1.2694e-07
1.27136e-07
1.27301e-07
1.27445e-07
1.27569e-07
1.27678e-07
1.27773e-07
1.27859e-07
1.27933e-07
1.28001e-07
1.28059e-07
1.28115e-07
1.28163e-07
1.28208e-07
1.28248e-07
1.28285e-07
1.28317e-07
1.28347e-07
1.28374e-07
1.28401e-07
1.28423e-07
1.28446e-07
1.28465e-07
1.28485e-07
1.28502e-07
1.28512e-07
1.28524e-07
1.28543e-07
1.28557e-07
1.28566e-07
1.28575e-07
1.28591e-07
1.286e-07
1.286e-07
1.28609e-07
1.28631e-07
1.2863e-07
1.28621e-07
1.28639e-07
1.28645e-07
1.28649e-07
1.28659e-07
1.2866e-07
1.28663e-07
1.28668e-07
1.28663e-07
1.28663e-07
1.28664e-07
1.28667e-07
1.28665e-07
1.28664e-07
1.28689e-07
1.28691e-07
1.28674e-07
1.28677e-07
1.2871e-07
1.28722e-07
1.28704e-07
1.28715e-07
1.28734e-07
1.28745e-07
1.28774e-07
1.28783e-07
1.28774e-07
1.28778e-07
1.28784e-07
1.28786e-07
1.28809e-07
1.28829e-07
1.28837e-07
1.28854e-07
1.28852e-07
1.28869e-07
1.28892e-07
1.28915e-07
1.2894e-07
1.28979e-07
1.29003e-07
1.29045e-07
1.2908e-07
1.29139e-07
1.2918e-07
1.29267e-07
1.29317e-07
1.29504e-07
1.29499e-07
1.31364e-07
1.36359e-07
5.63478e-08
1.24004e-07
1.2442e-07
1.25066e-07
1.25612e-07
1.26043e-07
1.26386e-07
1.26666e-07
1.26898e-07
1.27094e-07
1.2726e-07
1.27405e-07
1.27529e-07
1.27639e-07
1.27734e-07
1.27821e-07
1.27896e-07
1.27964e-07
1.28023e-07
1.28079e-07
1.28128e-07
1.28174e-07
1.28213e-07
1.28251e-07
1.28284e-07
1.28314e-07
1.28341e-07
1.28369e-07
1.28391e-07
1.28414e-07
1.28434e-07
1.28454e-07
1.28472e-07
1.28481e-07
1.28494e-07
1.28513e-07
1.28527e-07
1.28537e-07
1.28545e-07
1.28561e-07
1.28571e-07
1.28572e-07
1.28581e-07
1.28602e-07
1.28602e-07
1.28593e-07
1.28611e-07
1.28617e-07
1.28621e-07
1.28631e-07
1.28633e-07
1.28636e-07
1.28641e-07
1.28637e-07
1.28637e-07
1.28638e-07
1.28641e-07
1.28639e-07
1.28638e-07
1.28663e-07
1.28665e-07
1.28648e-07
1.28652e-07
1.28685e-07
1.28697e-07
1.2868e-07
1.28691e-07
1.2871e-07
1.28721e-07
1.2875e-07
1.28759e-07
1.28751e-07
1.28755e-07
1.28761e-07
1.28763e-07
1.28787e-07
1.28806e-07
1.28815e-07
1.28832e-07
1.28831e-07
1.28847e-07
1.28871e-07
1.28894e-07
1.28919e-07
1.28958e-07
1.28982e-07
1.29025e-07
1.2906e-07
1.29119e-07
1.2916e-07
1.29247e-07
1.29297e-07
1.29484e-07
1.29476e-07
1.31411e-07
1.36392e-07
5.89631e-08
1.23997e-07
1.24393e-07
1.25028e-07
1.25569e-07
1.25998e-07
1.26341e-07
1.26621e-07
1.26853e-07
1.2705e-07
1.27217e-07
1.27362e-07
1.27487e-07
1.27598e-07
1.27694e-07
1.27781e-07
1.27856e-07
1.27925e-07
1.27985e-07
1.28042e-07
1.28091e-07
1.28137e-07
1.28177e-07
1.28215e-07
1.28248e-07
1.28279e-07
1.28307e-07
1.28334e-07
1.28357e-07
1.2838e-07
1.284e-07
1.28421e-07
1.28439e-07
1.28449e-07
1.28462e-07
1.28481e-07
1.28496e-07
1.28505e-07
1.28514e-07
1.28531e-07
1.2854e-07
1.28542e-07
1.2855e-07
1.28572e-07
1.28572e-07
1.28563e-07
1.28581e-07
1.28587e-07
1.28592e-07
1.28602e-07
1.28604e-07
1.28608e-07
1.28613e-07