/*--------------------------------*- C++ -*----------------------------------*\
| =========                 |                                                 |
| \\      /  F ield         | OpenFOAM: The Open Source CFD Toolbox           |
|  \\    /   O peration     | Version:  v2012                                 |
|   \\  /    A nd           | Website:  www.openfoam.com                      |
|    \\/     M anipulation  |                                                 |
\*---------------------------------------------------------------------------*/
FoamFile
{
    version     2.0;
    format      ascii;
    class       volScalarField;
    location    "12.5";
    object      omega;
}
// * * * * * * * * * * * * * * * * * * * * * * * * * * * * * * * * * * * * * //

dimensions      [0 0 -1 0 0 0 0];


internalField   nonuniform List<scalar> 
209825
(
8225.18
7718.76
7445.11
7283.3
7177.28
7103.09
7048.23
7006.56
6973.75
6947.69
6926.34
6908.9
6894.2
6881.97
6871.42
6862.53
6854.71
6848.07
6842.13
6837.07
6832.45
6828.49
6824.89
6821.88
6818.92
6816.42
6814.12
6812.23
6810.28
6808.69
6807.16
6805.93
6804.71
6803.79
6802.65
6801.83
6801.07
6800.53
6799.66
6799.18
6798.78
6798.39
6797.34
6797.61
6797.61
6797.6
6797.56
6797.42
6796.99
6797.17
6797.1
6798.06
6798.58
6798.58
6798.58
6799.62
6800.5
6800.76
6800.76
6800.76
6801.63
6802.46
6802.46
6803.11
6804.55
6804.55
6804.55
6805.69
6805.69
6806.83
6808.3
6809.47
6810.94
6812.31
6812.31
6813.51
6814.9
6815.93
6817.76
6819.22
6820.13
6822.08
6823.28
6825.15
6826.88
6829.39
6831.16
6834.52
6836.46
6841.18
6843.49
6851.79
6852.61
6898.83
7105.34
116111
8225.18
7718.71
7445.02
7283.17
7177.12
7102.91
7048.03
7006.34
6973.52
6947.45
6926.1
6908.65
6893.95
6881.71
6871.16
6862.26
6854.44
6847.8
6841.85
6836.8
6832.17
6828.21
6824.61
6821.59
6818.63
6816.14
6813.83
6811.95
6809.99
6808.4
6806.87
6805.63
6804.42
6803.5
6802.36
6801.54
6800.78
6800.24
6799.36
6798.88
6798.48
6798.09
6797.04
6797.31
6797.31
6797.31
6797.26
6797.12
6796.69
6796.87
6796.8
6797.76
6798.28
6798.28
6798.28
6799.32
6800.2
6800.46
6800.46
6800.45
6801.32
6802.16
6802.16
6802.8
6804.25
6804.25
6804.25
6805.39
6805.38
6806.53
6808
6809.17
6810.64
6812.01
6812.01
6813.2
6814.59
6815.63
6817.46
6818.91
6819.83
6821.78
6822.98
6824.85
6826.58
6829.09
6830.86
6834.22
6836.16
6840.89
6843.2
6851.49
6852.31
6898.62
7105.22
112816
8225.18
7718.53
7444.67
7282.69
7176.55
7102.27
7047.33
7005.6
6972.75
6946.65
6925.28
6907.81
6893.09
6880.84
6870.27
6861.36
6853.53
6846.89
6840.93
6835.86
6831.23
6827.27
6823.66
6820.64
6817.68
6815.18
6812.87
6810.98
6809.02
6807.43
6805.9
6804.66
6803.44
6802.52
6801.38
6800.55
6799.79
6799.25
6798.38
6797.9
6797.5
6797.1
6796.05
6796.32
6796.32
6796.31
6796.27
6796.13
6795.7
6795.87
6795.81
6796.76
6797.28
6797.28
6797.28
6798.32
6799.2
6799.46
6799.46
6799.45
6800.32
6801.16
6801.16
6801.8
6803.25
6803.25
6803.25
6804.38
6804.38
6805.52
6807
6808.17
6809.63
6811.01
6811.01
6812.2
6813.59
6814.63
6816.46
6817.91
6818.83
6820.78
6821.98
6823.85
6825.58
6828.09
6829.86
6833.22
6835.16
6839.88
6842.19
6850.49
6851.3
6897.79
7104.55
109035
8225.18
7718.21
7444.06
7281.86
7175.56
7101.16
7046.13
7004.33
6971.42
6945.27
6923.86
6906.36
6891.61
6879.33
6868.74
6859.82
6851.97
6845.31
6839.34
6834.27
6829.62
6825.65
6822.04
6819.01
6816.04
6813.53
6811.22
6809.32
6807.36
6805.76
6804.23
6802.99
6801.77
6800.84
6799.7
6798.87
6798.1
6797.56
6796.69
6796.2
6795.8
6795.41
6794.35
6794.62
6794.62
6794.61
6794.57
6794.43
6793.99
6794.17
6794.1
6795.05
6795.57
6795.57
6795.57
6796.61
6797.48
6797.74
6797.74
6797.74
6798.61
6799.44
6799.44
6800.08
6801.53
6801.53
6801.53
6802.66
6802.66
6803.81
6805.28
6806.45
6807.91
6809.29
6809.29
6810.48
6811.87
6812.91
6814.74
6816.2
6817.12
6819.06
6820.27
6822.13
6823.86
6826.38
6828.14
6831.51
6833.45
6838.17
6840.48
6848.77
6849.57
6896.34
7103.33
105150
8225.17
7717.76
7443.18
7280.68
7174.15
7099.58
7044.42
7002.52
6969.53
6943.31
6921.84
6904.29
6889.5
6877.19
6866.57
6857.62
6849.75
6843.07
6837.08
6831.99
6827.33
6823.35
6819.72
6816.68
6813.7
6811.19
6808.86
6806.96
6804.99
6803.39
6801.85
6800.6
6799.38
6798.45
6797.3
6796.47
6795.7
6795.16
6794.28
6793.79
6793.39
6792.99
6791.94
6792.2
6792.19
6792.19
6792.14
6792
6791.56
6791.73
6791.66
6792.62
6793.13
6793.13
6793.13
6794.16
6795.04
6795.29
6795.3
6795.29
6796.16
6796.99
6796.99
6797.64
6799.08
6799.09
6799.09
6800.22
6800.22
6801.36
6802.83
6804
6805.46
6806.84
6806.84
6808.03
6809.43
6810.47
6812.29
6813.75
6814.67
6816.61
6817.82
6819.69
6821.41
6823.93
6825.7
6829.06
6831
6835.72
6838.03
6846.32
6847.09
6894.26
7101.52
101262
8225.16
7717.17
7442.04
7279.13
7172.31
7097.52
7042.2
7000.16
6967.05
6940.75
6919.21
6901.6
6886.75
6874.39
6863.74
6854.75
6846.85
6840.14
6834.13
6829.02
6824.34
6820.34
6816.7
6813.65
6810.66
6808.13
6805.79
6803.89
6801.91
6800.3
6798.75
6797.49
6796.26
6795.33
6794.18
6793.34
6792.56
6792.02
6791.14
6790.64
6790.23
6789.84
6788.78
6789.03
6789.03
6789.02
6788.97
6788.83
6788.39
6788.56
6788.48
6789.44
6789.95
6789.95
6789.94
6790.98
6791.85
6792.1
6792.11
6792.1
6792.97
6793.8
6793.8
6794.44
6795.89
6795.89
6795.89
6797.02
6797.02
6798.16
6799.63
6800.81
6802.26
6803.65
6803.65
6804.84
6806.23
6807.27
6809.09
6810.56
6811.48
6813.42
6814.63
6816.5
6818.22
6820.74
6822.51
6825.87
6827.81
6832.53
6834.83
6843.12
6843.87
6891.53
7099.08
97414.2
8225.14
7716.44
7440.64
7277.22
7170.03
7094.97
7039.44
6997.23
6964
6937.58
6915.95
6898.26
6883.35
6870.94
6860.23
6851.2
6843.26
6836.52
6830.48
6825.34
6820.64
6816.62
6812.96
6809.89
6806.88
6804.35
6802
6800.08
6798.08
6796.47
6794.91
6793.65
6792.41
6791.47
6790.31
6789.46
6788.68
6788.13
6787.25
6786.75
6786.33
6785.93
6784.87
6785.12
6785.12
6785.11
6785.05
6784.91
6784.47
6784.63
6784.55
6785.5
6786
6786
6786
6787.03
6787.91
6788.16
6788.16
6788.15
6789.03
6789.85
6789.85
6790.49
6791.94
6791.94
6791.94
6793.07
6793.07
6794.21
6795.68
6796.85
6798.3
6799.69
6799.69
6800.88
6802.28
6803.32
6805.13
6806.61
6807.53
6809.47
6810.68
6812.55
6814.27
6816.79
6818.55
6821.92
6823.86
6828.57
6830.87
6839.16
6839.88
6888.16
7095.91
93623.8
8225.13
7715.57
7438.96
7274.94
7167.32
7091.93
7036.14
6993.74
6960.34
6933.8
6912.05
6894.27
6879.28
6866.8
6856.03
6846.96
6838.97
6832.19
6826.12
6820.95
6816.22
6812.18
6808.49
6805.4
6802.38
6799.82
6797.45
6795.52
6793.52
6791.88
6790.32
6789.04
6787.8
6786.85
6785.68
6784.83
6784.04
6783.48
6782.59
6782.09
6781.67
6781.26
6780.2
6780.44
6780.44
6780.42
6780.36
6780.21
6779.77
6779.93
6779.84
6780.79
6781.29
6781.29
6781.29
6782.31
6783.19
6783.43
6783.43
6783.43
6784.3
6785.12
6785.12
6785.76
6787.21
6787.21
6787.21
6788.34
6788.34
6789.48
6790.94
6792.12
6793.57
6794.96
6794.96
6796.15
6797.55
6798.59
6800.4
6801.88
6802.8
6804.74
6805.96
6807.83
6809.54
6812.07
6813.83
6817.2
6819.13
6823.84
6826.14
6834.43
6835.1
6884.12
7091.96
89900.1
8225.11
7714.57
7437.01
7272.29
7164.16
7088.39
7032.3
6989.67
6956.08
6929.38
6907.51
6889.62
6874.54
6861.98
6851.14
6842
6833.97
6827.14
6821.02
6815.82
6811.06
6806.99
6803.27
6800.16
6797.11
6794.54
6792.15
6790.2
6788.18
6786.54
6784.96
6783.68
6782.42
6781.46
6780.28
6779.42
6778.62
6778.06
6777.16
6776.65
6776.23
6775.82
6774.75
6774.98
6774.97
6774.96
6774.89
6774.74
6774.3
6774.45
6774.35
6775.3
6775.79
6775.79
6775.78
6776.81
6777.68
6777.92
6777.92
6777.92
6778.79
6779.61
6779.61
6780.25
6781.69
6781.7
6781.7
6782.82
6782.82
6783.96
6785.42
6786.6
6788.04
6789.44
6789.44
6790.63
6792.03
6793.07
6794.87
6796.36
6797.28
6799.23
6800.44
6802.31
6804.03
6806.56
6808.31
6811.68
6813.61
6818.32
6820.61
6828.9
6829.53
6879.42
7087.24
86245.5
8225.1
7713.42
7434.79
7269.27
7160.54
7084.33
7027.91
6985.01
6951.21
6924.33
6902.31
6884.29
6869.11
6856.46
6845.54
6836.33
6828.24
6821.36
6815.19
6809.95
6805.15
6801.04
6797.3
6794.16
6791.09
6788.49
6786.08
6784.11
6782.08
6780.42
6778.82
6777.52
6776.25
6775.28
6774.1
6773.23
6772.42
6771.85
6770.94
6770.43
6769.99
6769.58
6768.51
6768.72
6768.72
6768.7
6768.63
6768.47
6768.02
6768.16
6768.07
6769.01
6769.49
6769.49
6769.48
6770.5
6771.37
6771.61
6771.61
6771.6
6772.48
6773.29
6773.29
6773.92
6775.37
6775.38
6775.38
6776.5
6776.5
6777.64
6779.09
6780.27
6781.7
6783.12
6783.12
6784.3
6785.7
6786.75
6788.54
6790.04
6790.96
6792.9
6794.12
6796
6797.71
6800.24
6801.99
6805.36
6807.29
6812
6814.28
6822.56
6823.14
6874.04
7081.71
82658.3
8225.08
7712.14
7432.3
7265.86
7156.48
7079.77
7022.96
6979.76
6945.71
6918.63
6896.44
6878.29
6862.98
6850.22
6839.22
6829.93
6821.77
6814.83
6808.61
6803.32
6798.48
6794.33
6790.55
6787.38
6784.28
6781.66
6779.23
6777.24
6775.18
6773.5
6771.89
6770.58
6769.29
6768.31
6767.11
6766.23
6765.41
6764.83
6763.92
6763.39
6762.95
6762.53
6761.46
6761.65
6761.65
6761.63
6761.55
6761.39
6760.94
6761.07
6760.96
6761.9
6762.37
6762.37
6762.36
6763.38
6764.24
6764.48
6764.48
6764.47
6765.35
6766.15
6766.15
6766.79
6768.23
6768.24
6768.24
6769.36
6769.36
6770.49
6771.94
6773.13
6774.55
6775.97
6775.97
6777.16
6778.56
6779.61
6781.39
6782.9
6783.82
6785.76
6786.99
6788.86
6790.57
6793.1
6794.85
6798.22
6800.15
6804.85
6807.13
6815.41
6815.93
6867.96
7075.38
79132.8
8225.07
7710.72
7429.52
7262.07
7151.95
7074.68
7017.45
6973.9
6939.58
6912.27
6889.89
6871.58
6856.14
6843.27
6832.17
6822.79
6814.55
6807.55
6801.26
6795.92
6791.03
6786.84
6783.02
6779.82
6776.68
6774.03
6771.58
6769.56
6767.48
6765.79
6764.15
6762.82
6761.52
6760.52
6759.31
6758.42
6757.59
6757
6756.08
6755.54
6755.08
6754.66
6753.58
6753.76
6753.76
6753.73
6753.64
6753.48
6753.03
6753.15
6753.03
6753.96
6754.42
6754.42
6754.41
6755.43
6756.28
6756.51
6756.51
6756.51
6757.39
6758.18
6758.18
6758.81
6760.26
6760.26
6760.26
6761.38
6761.38
6762.52
6763.96
6765.15
6766.56
6768
6768
6769.18
6770.58
6771.63
6773.41
6774.92
6775.85
6777.79
6779.02
6780.89
6782.59
6785.13
6786.87
6790.25
6792.18
6796.87
6799.14
6807.41
6807.87
6861.19
7068.23
75659.8
8225.06
7709.17
7426.48
7257.9
7146.95
7069.07
7011.36
6967.43
6932.81
6905.25
6882.66
6864.17
6848.58
6835.58
6824.37
6814.9
6806.57
6799.49
6793.14
6787.74
6782.79
6778.56
6774.69
6771.45
6768.28
6765.6
6763.11
6761.07
6758.97
6757.25
6755.6
6754.25
6752.92
6751.91
6750.69
6749.78
6748.93
6748.33
6747.4
6746.85
6746.39
6745.96
6744.87
6745.04
6745.03
6744.99
6744.9
6744.73
6744.27
6744.38
6744.26
6745.18
6745.63
6745.63
6745.62
6746.63
6747.48
6747.7
6747.7
6747.7
6748.58
6749.37
6749.37
6749.99
6751.44
6751.44
6751.45
6752.56
6752.56
6753.7
6755.13
6756.32
6757.72
6759.17
6759.17
6760.35
6761.75
6762.81
6764.57
6766.1
6767.03
6768.97
6770.2
6772.07
6773.77
6776.31
6778.05
6781.43
6783.35
6788.03
6790.3
6798.56
6798.96
6853.7
7060.24
72245.8
8225.05
7707.49
7423.16
7253.35
7141.49
7062.93
7004.69
6960.35
6925.39
6897.55
6874.73
6856.05
6840.29
6827.15
6815.81
6806.24
6797.81
6790.65
6784.23
6778.76
6773.76
6769.47
6765.56
6762.27
6759.06
6756.34
6753.82
6751.75
6749.63
6747.88
6746.2
6744.83
6743.49
6742.46
6741.22
6740.3
6739.43
6738.82
6737.88
6737.32
6736.84
6736.41
6735.31
6735.46
6735.45
6735.4
6735.3
6735.13
6734.67
6734.77
6734.63
6735.54
6735.98
6735.98
6735.96
6736.97
6737.81
6738.03
6738.03
6738.03
6738.91
6739.69
6739.69
6740.31
6741.75
6741.76
6741.76
6742.87
6742.88
6744.01
6745.43
6746.63
6748.02
6749.48
6749.48
6750.66
6752.06
6753.12
6754.87
6756.41
6757.34
6759.28
6760.51
6762.39
6764.08
6766.63
6768.36
6771.74
6773.66
6778.34
6780.59
6788.85
6789.17
6845.49
7051.41
68896.9
8225.05
7705.67
7419.56
7248.4
7135.56
7056.25
6997.44
6952.64
6917.31
6889.17
6866.1
6847.21
6831.27
6817.97
6806.49
6796.8
6788.27
6781.02
6774.52
6768.97
6763.91
6759.56
6755.6
6752.26
6749.02
6746.26
6743.7
6741.6
6739.44
6737.67
6735.96
6734.57
6733.2
6732.15
6730.9
6729.96
6729.08
6728.45
6727.5
6726.93
6726.43
6725.99
6724.89
6725.02
6725
6724.95
6724.84
6724.66
6724.19
6724.28
6724.12
6725.04
6725.46
6725.45
6725.44
6726.44
6727.28
6727.49
6727.49
6727.48
6728.36
6729.13
6729.14
6729.75
6731.19
6731.2
6731.21
6732.31
6732.32
6733.45
6734.86
6736.07
6737.44
6738.91
6738.91
6740.09
6741.49
6742.55
6744.3
6745.85
6746.78
6748.71
6749.95
6751.84
6753.51
6756.07
6757.8
6761.17
6763.09
6767.76
6770
6778.26
6778.5
6836.55
7041.72
65618.7
8225.06
7703.72
7415.69
7243.07
7129.15
7049.03
6989.6
6944.3
6908.57
6880.1
6856.75
6837.63
6821.49
6808.02
6796.4
6786.58
6777.94
6770.58
6763.99
6758.37
6753.23
6748.83
6744.8
6741.42
6738.12
6735.32
6732.73
6730.59
6728.4
6726.6
6724.86
6723.45
6722.06
6720.98
6719.71
6718.75
6717.85
6717.21
6716.24
6715.66
6715.15
6714.7
6713.59
6713.7
6713.68
6713.61
6713.49
6713.31
6712.84
6712.91
6712.74
6713.64
6714.05
6714.05
6714.03
6715.02
6715.85
6716.06
6716.06
6716.05
6716.93
6717.69
6717.69
6718.31
6719.75
6719.76
6719.76
6720.86
6720.86
6722
6723.4
6724.61
6725.97
6727.45
6727.45
6728.63
6730.03
6731.1
6732.83
6734.39
6735.32
6737.26
6738.5
6740.39
6742.06
6744.61
6746.34
6749.72
6751.63
6756.29
6758.52
6766.76
6766.93
6826.85
7031.16
62416.4
8225.07
7701.65
7411.55
7237.35
7122.27
7041.27
6981.16
6935.32
6899.15
6870.33
6846.68
6827.3
6810.95
6797.3
6785.52
6775.56
6766.79
6759.33
6752.65
6746.94
6741.73
6737.25
6733.16
6729.72
6726.38
6723.53
6720.89
6718.71
6716.49
6714.66
6712.89
6711.45
6710.03
6708.94
6707.64
6706.66
6705.74
6705.08
6704.1
6703.5
6702.97
6702.52
6701.41
6701.48
6701.46
6701.38
6701.25
6701.07
6700.59
6700.64
6700.46
6701.35
6701.74
6701.74
6701.72
6702.7
6703.53
6703.72
6703.72
6703.71
6704.6
6705.35
6705.35
6705.96
6707.39
6707.41
6707.41
6708.51
6708.51
6709.64
6711.03
6712.24
6713.59
6715.08
6715.09
6716.26
6717.66
6718.74
6720.45
6722.03
6722.96
6724.9
6726.14
6728.03
6729.69
6732.26
6733.97
6737.35
6739.26
6743.91
6746.13
6754.36
6754.44
6816.38
7019.7
59294.9
8225.09
7699.45
7407.14
7231.24
7114.9
7032.97
6972.12
6925.71
6889.06
6859.85
6835.88
6816.23
6799.65
6785.8
6773.84
6763.73
6754.84
6747.26
6740.46
6734.67
6729.37
6724.82
6720.67
6717.16
6713.77
6710.87
6708.18
6705.96
6703.7
6701.83
6700.04
6698.56
6697.12
6696
6694.68
6693.68
6692.73
6692.06
6691.06
6690.45
6689.9
6689.44
6688.32
6688.37
6688.33
6688.25
6688.1
6687.91
6687.44
6687.47
6687.26
6688.15
6688.52
6688.52
6688.49
6689.47
6690.29
6690.48
6690.47
6690.46
6691.35
6692.08
6692.09
6692.69
6694.12
6694.14
6694.14
6695.24
6695.24
6696.37
6697.74
6698.96
6700.29
6701.8
6701.81
6702.98
6704.37
6705.46
6707.16
6708.75
6709.68
6711.61
6712.86
6714.76
6716.41
6718.98
6720.69
6724.07
6725.97
6730.61
6732.82
6741.03
6741.03
6805.14
7007.34
56258.6
8225.12
7697.13
7402.46
7224.75
7107.06
7024.11
6962.48
6915.44
6878.29
6848.66
6824.35
6804.4
6787.57
6773.5
6761.36
6751.09
6742.05
6734.35
6727.44
6721.54
6716.16
6711.53
6707.3
6703.73
6700.28
6697.33
6694.59
6692.33
6690.02
6688.12
6686.28
6684.78
6683.3
6682.15
6680.81
6679.79
6678.82
6678.13
6677.11
6676.48
6675.91
6675.44
6674.31
6674.34
6674.29
6674.19
6674.04
6673.84
6673.36
6673.37
6673.15
6674.02
6674.38
6674.37
6674.34
6675.31
6676.12
6676.3
6676.3
6676.29
6677.17
6677.89
6677.9
6678.49
6679.92
6679.94
6679.94
6681.03
6681.03
6682.16
6683.52
6684.75
6686.06
6687.58
6687.59
6688.76
6690.15
6691.24
6692.93
6694.53
6695.47
6697.4
6698.65
6700.55
6702.19
6704.76
6706.47
6709.85
6711.74
6716.37
6718.57
6726.76
6726.68
6793.09
6994.06
53311.8
8225.16
7694.7
7397.51
7217.86
7098.74
7014.7
6952.23
6904.52
6866.83
6836.76
6812.06
6791.81
6774.7
6760.41
6748.06
6737.62
6728.43
6720.59
6713.56
6707.56
6702.08
6697.36
6693.05
6689.42
6685.9
6682.89
6680.1
6677.79
6675.44
6673.49
6671.62
6670.08
6668.57
6667.4
6666.03
6664.98
6663.98
6663.27
6662.24
6661.58
6660.99
6660.52
6659.38
6659.38
6659.31
6659.21
6659.04
6658.84
6658.35
6658.34
6658.1
6658.96
6659.29
6659.29
6659.25
6660.21
6661.01
6661.18
6661.18
6661.17
6662.05
6662.76
6662.76
6663.36
6664.78
6664.8
6664.8
6665.89
6665.89
6667.01
6668.36
6669.59
6670.88
6672.42
6672.43
6673.6
6674.99
6676.09
6677.75
6679.37
6680.31
6682.24
6683.49
6685.4
6687.03
6689.6
6691.3
6694.68
6696.57
6701.19
6703.37
6711.54
6711.36
6780.23
6979.84
50458
8225.22
7692.15
7392.3
7210.6
7089.94
7004.75
6941.37
6892.94
6854.67
6824.12
6799.03
6778.44
6761.05
6746.5
6733.95
6723.31
6713.96
6705.98
6698.82
6692.7
6687.12
6682.31
6677.92
6674.21
6670.62
6667.55
6664.7
6662.34
6659.95
6657.96
6656.04
6654.47
6652.92
6651.71
6650.31
6649.24
6648.22
6647.48
6646.43
6645.75
6645.14
6644.65
6643.51
6643.48
6643.4
6643.28
6643.09
6642.88
6642.4
6642.37
6642.1
6642.95
6643.26
6643.26
6643.21
6644.16
6644.95
6645.11
6645.11
6645.09
6645.98
6646.68
6646.67
6647.26
6648.68
6648.7
6648.7
6649.78
6649.78
6650.91
6652.23
6653.48
6654.74
6656.31
6656.31
6657.48
6658.86
6659.97
6661.62
6663.25
6664.19
6666.12
6667.37
6669.28
6670.9
6673.48
6675.17
6678.54
6680.43
6685.04
6687.2
6695.36
6695.08
6766.53
6964.66
47700.9
8225.28
7689.49
7386.84
7202.95
7080.67
6994.23
6929.89
6880.71
6841.82
6810.76
6785.24
6764.29
6746.59
6731.79
6719
6708.17
6698.63
6690.5
6683.21
6676.97
6671.27
6666.37
6661.89
6658.09
6654.43
6651.3
6648.39
6645.97
6643.52
6641.49
6639.53
6637.92
6636.33
6635.09
6633.66
6632.56
6631.51
6630.75
6629.68
6628.98
6628.34
6627.84
6626.69
6626.62
6626.52
6626.39
6626.19
6625.98
6625.49
6625.44
6625.13
6625.97
6626.27
6626.26
6626.21
6627.15
6627.92
6628.07
6628.07
6628.06
6628.94
6629.62
6629.62
6630.2
6631.61
6631.63
6631.64
6632.71
6632.71
6633.83
6635.14
6636.39
6637.64
6639.21
6639.22
6640.38
6641.77
6642.88
6644.51
6646.15
6647.1
6649.02
6650.28
6652.19
6653.8
6656.39
6658.06
6661.44
6663.32
6667.91
6670.06
6678.21
6677.82
6751.96
6948.5
45043.3
8225.37
7686.73
7381.12
7194.92
7070.91
6983.17
6917.81
6867.81
6828.26
6796.66
6770.69
6749.35
6731.33
6716.24
6703.21
6692.17
6682.45
6674.15
6666.71
6660.34
6654.53
6649.52
6644.94
6641.07
6637.33
6634.13
6631.14
6628.67
6626.17
6624.08
6622.08
6620.42
6618.79
6617.52
6616.06
6614.93
6613.84
6613.06
6611.96
6611.24
6610.58
6610.06
6608.91
6608.81
6608.68
6608.54
6608.32
6608.1
6607.61
6607.53
6607.2
6608.03
6608.3
6608.3
6608.23
6609.16
6609.92
6610.06
6610.06
6610.04
6610.92
6611.59
6611.59
6612.16
6613.57
6613.59
6613.59
6614.65
6614.66
6615.78
6617.07
6618.33
6619.55
6621.14
6621.14
6622.31
6623.69
6624.81
6626.41
6628.07
6629.02
6630.94
6632.21
6634.12
6635.72
6638.31
6639.97
6643.35
6645.22
6649.8
6651.93
6660.06
6659.56
6736.52
6931.33
42488
8225.47
7683.87
7375.15
7186.51
7060.68
6971.55
6905.11
6854.25
6814
6781.82
6755.37
6733.63
6715.26
6699.87
6686.58
6675.32
6665.4
6656.92
6649.33
6642.82
6636.88
6631.76
6627.08
6623.11
6619.29
6616.02
6612.96
6610.42
6607.87
6605.73
6603.68
6601.97
6600.3
6598.99
6597.49
6596.33
6595.21
6594.4
6593.28
6592.53
6591.84
6591.31
6590.15
6590.01
6589.87
6589.71
6589.47
6589.25
6588.75
6588.65
6588.29
6589.1
6589.34
6589.34
6589.27
6590.19
6590.93
6591.06
6591.06
6591.04
6591.92
6592.57
6592.56
6593.13
6594.53
6594.55
6594.55
6595.61
6595.61
6596.73
6598
6599.27
6600.46
6602.07
6602.07
6603.23
6604.61
6605.74
6607.33
6609
6609.95
6611.87
6613.13
6615.05
6616.63
6619.23
6620.89
6624.25
6626.12
6630.69
6632.79
6640.91
6640.3
6720.17
6913.13
40037.3
8225.58
7680.91
7368.94
7177.74
7049.98
6959.38
6891.79
6840.02
6799.03
6766.24
6739.28
6717.11
6698.37
6682.67
6669.1
6657.6
6647.47
6638.81
6631.04
6624.39
6618.32
6613.09
6608.29
6604.23
6600.32
6596.97
6593.84
6591.23
6588.61
6586.42
6584.31
6582.56
6580.84
6579.49
6577.96
6576.76
6575.6
6574.76
6573.62
6572.85
6572.12
6571.58
6570.4
6570.24
6570.06
6569.89
6569.63
6569.4
6568.89
6568.78
6568.38
6569.18
6569.4
6569.4
6569.31
6570.22
6570.94
6571.06
6571.06
6571.03
6571.91
6572.54
6572.54
6573.09
6574.49
6574.51
6574.51
6575.56
6575.57
6576.68
6577.93
6579.2
6580.37
6581.99
6582
6583.16
6584.53
6585.67
6587.23
6588.91
6589.87
6591.78
6593.05
6594.98
6596.54
6599.14
6600.79
6604.15
6606.01
6610.56
6612.64
6620.75
6620.02
6702.89
6893.87
37693.2
8225.72
7677.86
7362.5
7168.6
7038.81
6946.66
6877.86
6825.13
6783.35
6749.92
6722.42
6699.79
6680.66
6664.62
6650.77
6639.01
6628.65
6619.8
6611.86
6605.05
6598.84
6593.48
6588.57
6584.4
6580.4
6576.96
6573.75
6571.08
6568.4
6566.14
6563.98
6562.18
6560.41
6559.02
6557.45
6556.21
6555.01
6554.14
6552.97
6552.17
6551.42
6550.86
6549.67
6549.46
6549.26
6549.07
6548.8
6548.56
6548.04
6547.91
6547.47
6548.25
6548.44
6548.44
6548.35
6549.24
6549.95
6550.05
6550.05
6550.02
6550.9
6551.51
6551.5
6552.05
6553.43
6553.46
6553.46
6554.5
6554.5
6555.62
6556.84
6558.12
6559.26
6560.9
6560.91
6562.06
6563.43
6564.58
6566.11
6567.81
6568.77
6570.68
6571.95
6573.88
6575.43
6578.03
6579.66
6583.02
6584.87
6589.41
6591.47
6599.56
6598.72
6684.64
6873.51
35457.2
8225.88
7674.73
7355.83
7159.1
7027.18
6933.39
6863.32
6809.57
6766.97
6732.85
6704.78
6681.67
6662.12
6645.74
6631.57
6619.54
6608.95
6599.89
6591.76
6584.79
6578.43
6572.94
6567.91
6563.63
6559.53
6556
6552.71
6549.96
6547.21
6544.89
6542.67
6540.81
6538.99
6537.55
6535.94
6534.67
6533.43
6532.53
6531.33
6530.49
6529.71
6529.13
6527.92
6527.68
6527.46
6527.25
6526.95
6526.7
6526.18
6526.02
6525.55
6526.31
6526.48
6526.48
6526.36
6527.24
6527.93
6528.02
6528.02
6527.99
6528.86
6529.45
6529.45
6529.98
6531.36
6531.38
6531.38
6532.42
6532.42
6533.53
6534.73
6536.01
6537.12
6538.77
6538.79
6539.94
6541.3
6542.46
6543.97
6545.68
6546.64
6548.55
6549.81
6551.75
6553.28
6555.88
6557.51
6560.86
6562.7
6567.22
6569.26
6577.33
6576.37
6665.42
6852.02
33330.8
8226.06
7671.52
7348.93
7149.25
7015.08
6919.58
6848.17
6793.34
6749.87
6715.03
6686.36
6662.74
6642.76
6626
6611.51
6599.2
6588.35
6579.07
6570.75
6563.6
6557.09
6551.45
6546.29
6541.9
6537.7
6534.08
6530.7
6527.87
6525.04
6522.66
6520.37
6518.46
6516.58
6515.1
6513.44
6512.13
6510.84
6509.91
6508.68
6507.81
6506.99
6506.4
6505.17
6504.89
6504.63
6504.41
6504.09
6503.83
6503.29
6503.12
6502.61
6503.34
6503.49
6503.49
6503.36
6504.22
6504.89
6504.97
6504.97
6504.93
6505.8
6506.36
6506.36
6506.88
6508.25
6508.28
6508.28
6509.3
6509.3
6510.41
6511.58
6512.87
6513.95
6515.62
6515.63
6516.78
6518.13
6519.3
6520.79
6522.51
6523.47
6525.37
6526.64
6528.58
6530.1
6532.7
6534.31
6537.65
6539.49
6543.99
6546
6554.06
6552.98
6645.18
6829.35
31314.9
8226.26
7668.25
7341.83
7139.06
7002.54
6905.23
6832.41
6776.45
6732.06
6696.47
6667.16
6643.01
6622.57
6605.41
6590.58
6577.97
6566.86
6557.35
6548.82
6541.49
6534.8
6529.03
6523.73
6519.22
6514.9
6511.18
6507.7
6504.79
6501.89
6499.44
6497.08
6495.11
6493.18
6491.64
6489.94
6488.58
6487.25
6486.28
6485.01
6484.12
6483.25
6482.64
6481.4
6481.08
6480.79
6480.54
6480.2
6479.93
6479.38
6479.19
6478.64
6479.34
6479.47
6479.47
6479.32
6480.16
6480.81
6480.87
6480.87
6480.83
6481.69
6482.24
6482.23
6482.74
6484.1
6484.13
6484.13
6485.14
6485.13
6486.25
6487.39
6488.69
6489.73
6491.41
6491.43
6492.57
6493.92
6495.1
6496.56
6498.28
6499.25
6501.15
6502.41
6504.36
6505.86
6508.46
6510.07
6513.39
6515.22
6519.7
6521.68
6529.72
6528.53
6623.9
6805.47
29410.4
8226.49
7664.91
7334.51
7128.53
6989.55
6890.35
6816.04
6758.91
6713.55
6677.16
6647.18
6622.47
6601.54
6583.97
6568.78
6555.85
6544.47
6534.71
6525.96
6518.44
6511.58
6505.64
6500.2
6495.56
6491.13
6487.31
6483.73
6480.73
6477.75
6475.22
6472.79
6470.76
6468.76
6467.17
6465.42
6464.02
6462.64
6461.63
6460.33
6459.4
6458.5
6457.86
6456.6
6456.24
6455.92
6455.65
6455.28
6455
6454.43
6454.22
6453.64
6454.31
6454.41
6454.41
6454.23
6455.07
6455.68
6455.74
6455.74
6455.68
6456.55
6457.06
6457.06
6457.55
6458.9
6458.93
6458.93
6459.93
6459.92
6461.03
6462.14
6463.45
6464.46
6466.16
6466.17
6467.31
6468.65
6469.84
6471.27
6473.01
6473.98
6475.86
6477.13
6479.08
6480.56
6483.16
6484.75
6488.07
6489.89
6494.34
6496.3
6504.32
6503.01
6601.53
6780.35
27617.9
8226.74
7661.51
7327.01
7117.67
6976.12
6874.94
6799.08
6740.7
6694.33
6657.11
6626.43
6601.12
6579.69
6561.68
6546.1
6532.85
6521.17
6511.15
6502.17
6494.45
6487.4
6481.31
6475.71
6470.94
6466.39
6462.45
6458.77
6455.68
6452.61
6450.01
6447.5
6445.4
6443.34
6441.69
6439.89
6438.43
6437.01
6435.96
6434.62
6433.65
6432.71
6432.05
6430.77
6430.36
6430
6429.71
6429.32
6429.03
6428.44
6428.21
6427.59
6428.22
6428.3
6428.3
6428.1
6428.92
6429.5
6429.55
6429.55
6429.49
6430.34
6430.84
6430.83
6431.31
6432.64
6432.67
6432.67
6433.66
6433.65
6434.76
6435.83
6437.15
6438.13
6439.84
6439.84
6440.99
6442.31
6443.51
6444.91
6446.66
6447.63
6449.51
6450.78
6452.73
6454.2
6456.79
6458.37
6461.68
6463.48
6467.92
6469.85
6477.85
6476.42
6578.02
6753.96
25937.9
8227.02
7658.06
7319.32
7106.49
6962.26
6859.02
6781.53
6721.85
6674.41
6636.31
6604.89
6578.96
6557
6538.53
6522.56
6508.95
6496.97
6486.68
6477.46
6469.52
6462.28
6456.01
6450.26
6445.34
6440.66
6436.61
6432.82
6429.62
6426.47
6423.78
6421.2
6419.03
6416.9
6415.19
6413.33
6411.83
6410.35
6409.25
6407.87
6406.87
6405.88
6405.2
6403.89
6403.44
6403.05
6402.73
6402.31
6402
6401.4
6401.15
6400.49
6401.09
6401.14
6401.14
6400.92
6401.71
6402.27
6402.31
6402.3
6402.23
6403.08
6403.55
6403.54
6404
6405.32
6405.35
6405.35
6406.32
6406.31
6407.42
6408.46
6409.78
6410.72
6412.45
6412.45
6413.59
6414.91
6416.12
6417.49
6419.24
6420.21
6422.09
6423.35
6425.31
6426.75
6429.35
6430.91
6434.2
6436
6440.41
6442.31
6450.28
6448.75
6553.3
6726.28
24370.8
8227.33
7654.58
7311.46
7095.01
6947.99
6842.58
6763.39
6702.35
6653.8
6614.78
6582.59
6556
6533.48
6514.53
6498.14
6484.17
6471.86
6461.29
6451.81
6443.64
6436.2
6429.75
6423.83
6418.77
6413.95
6409.78
6405.87
6402.57
6399.32
6396.55
6393.88
6391.64
6389.44
6387.67
6385.75
6384.19
6382.66
6381.51
6380.09
6379.05
6378.01
6377.31
6375.97
6375.48
6375.04
6374.7
6374.25
6373.93
6373.31
6373.04
6372.34
6372.89
6372.93
6372.92
6372.67
6373.44
6373.97
6374
6373.99
6373.91
6374.75
6375.19
6375.18
6375.63
6376.92
6376.95
6376.95
6377.91
6377.9
6379.01
6380.01
6381.34
6382.24
6383.98
6383.98
6385.12
6386.42
6387.64
6388.98
6390.74
6391.72
6393.58
6394.84
6396.8
6398.23
6400.81
6402.37
6405.64
6407.42
6411.81
6413.68
6421.63
6419.99
6527.32
6697.28
22915.1
8227.67
7651.06
7303.43
7083.23
6933.3
6825.65
6744.68
6682.21
6632.5
6592.51
6559.51
6532.24
6509.13
6489.68
6472.84
6458.49
6445.84
6434.97
6425.23
6416.83
6409.17
6402.53
6396.44
6391.22
6386.26
6381.96
6377.92
6374.52
6371.17
6368.31
6365.55
6363.23
6360.95
6359.11
6357.13
6355.52
6353.93
6352.74
6351.27
6350.18
6349.1
6348.36
6347.01
6346.47
6345.99
6345.62
6345.14
6344.8
6344.16
6343.87
6343.12
6343.63
6343.65
6343.64
6343.36
6344.11
6344.6
6344.62
6344.62
6344.52
6345.35
6345.76
6345.75
6346.18
6347.46
6347.48
6347.48
6348.43
6348.42
6349.52
6350.48
6351.82
6352.68
6354.42
6354.42
6355.57
6356.85
6358.08
6359.39
6361.15
6362.13
6363.99
6365.24
6367.2
6368.61
6371.19
6372.73
6375.98
6377.76
6382.11
6383.95
6391.87
6390.14
6500.01
6666.93
21565.6
8228.03
7647.51
7295.25
7071.17
6918.22
6808.22
6725.4
6661.44
6610.51
6569.51
6535.67
6507.68
6483.96
6463.98
6446.68
6431.93
6418.92
6407.74
6397.72
6389.07
6381.19
6374.35
6368.07
6362.68
6357.57
6353.14
6348.98
6345.46
6342
6339.05
6336.2
6333.8
6331.44
6329.53
6327.49
6325.82
6324.16
6322.92
6321.41
6320.27
6319.14
6318.37
6316.99
6316.4
6315.87
6315.48
6314.96
6314.6
6313.94
6313.63
6312.85
6313.31
6313.32
6313.29
6312.97
6313.7
6314.16
6314.17
6314.17
6314.05
6314.87
6315.25
6315.25
6315.65
6316.91
6316.94
6316.93
6317.86
6317.85
6318.95
6319.87
6321.21
6322.03
6323.78
6323.78
6324.92
6326.19
6327.43
6328.72
6330.48
6331.45
6333.3
6334.54
6336.51
6337.9
6340.47
6342
6345.23
6346.99
6351.31
6353.13
6361.01
6359.18
6471.32
6635.2
20317.1
8228.43
7643.95
7286.94
7058.85
6902.76
6790.31
6705.56
6640.04
6587.85
6545.8
6511.07
6482.33
6457.96
6437.43
6419.65
6404.48
6391.1
6379.59
6369.28
6360.36
6352.25
6345.2
6338.73
6333.17
6327.9
6323.33
6319.03
6315.4
6311.83
6308.77
6305.83
6303.34
6300.9
6298.92
6296.81
6295.07
6293.35
6292.05
6290.49
6289.32
6288.13
6287.32
6285.91
6285.27
6284.7
6284.27
6283.72
6283.34
6282.66
6282.33
6281.51
6281.91
6281.91
6281.87
6281.52
6282.23
6282.64
6282.64
6282.64
6282.51
6283.31
6283.67
6283.66
6284.04
6285.28
6285.3
6285.3
6286.21
6286.2
6287.3
6288.17
6289.51
6290.29
6292.05
6292.05
6293.19
6294.44
6295.69
6296.94
6298.7
6299.68
6301.52
6302.75
6304.72
6306.09
6308.65
6310.16
6313.37
6315.11
6319.41
6321.19
6329.03
6327.12
6441.18
6602.07
19164.3
8228.86
7640.38
7278.5
7046.27
6886.93
6771.94
6685.18
6618.04
6564.52
6521.37
6485.71
6456.2
6431.16
6410.05
6391.76
6376.15
6362.38
6350.53
6339.9
6330.72
6322.36
6315.09
6308.42
6302.68
6297.25
6292.53
6288.09
6284.33
6280.64
6277.48
6274.44
6271.86
6269.33
6267.27
6265.09
6263.29
6261.5
6260.15
6258.53
6257.31
6256.06
6255.22
6253.78
6253.09
6252.47
6252.01
6251.42
6251.02
6250.31
6249.96
6249.1
6249.44
6249.44
6249.38
6248.99
6249.67
6250.04
6250.04
6250.04
6249.88
6250.68
6250.99
6250.99
6251.35
6252.56
6252.59
6252.58
6253.47
6253.46
6254.55
6255.38
6256.73
6257.46
6259.22
6259.23
6260.36
6261.59
6262.86
6264.07
6265.83
6266.8
6268.64
6269.86
6271.83
6273.18
6275.73
6277.22
6280.41
6282.13
6286.4
6288.15
6295.94
6293.95
6409.54
6567.51
18101.7
8229.32
7636.82
7269.96
7033.45
6870.75
6753.12
6664.26
6595.44
6540.53
6496.24
6459.62
6429.28
6403.54
6381.83
6363.01
6346.94
6332.76
6320.56
6309.61
6300.14
6291.52
6284.03
6277.14
6271.21
6265.61
6260.73
6256.15
6252.25
6248.44
6245.18
6242.03
6239.36
6236.73
6234.59
6232.33
6230.47
6228.61
6227.19
6225.53
6224.25
6222.95
6222.06
6220.59
6219.84
6219.17
6218.68
6218.05
6217.63
6216.89
6216.52
6215.63
6215.91
6215.9
6215.82
6215.38
6216.04
6216.37
6216.36
6216.36
6216.17
6216.95
6217.24
6217.24
6217.57
6218.76
6218.78
6218.78
6219.63
6219.63
6220.72
6221.5
6222.85
6223.54
6225.29
6225.3
6226.44
6227.65
6228.92
6230.1
6231.85
6232.83
6234.65
6235.86
6237.83
6239.16
6241.69
6243.17
6246.33
6248.04
6252.27
6253.99
6261.73
6259.67
6376.34
6531.48
17123.6
8229.81
7633.26
7261.31
7020.41
6854.23
6733.86
6642.83
6572.25
6515.9
6470.41
6432.79
6401.6
6375.12
6352.78
6333.41
6316.86
6302.26
6289.68
6278.39
6268.63
6259.74
6252.01
6244.89
6238.77
6232.99
6227.95
6223.21
6219.18
6215.24
6211.86
6208.6
6205.83
6203.11
6200.89
6198.55
6196.61
6194.67
6193.2
6191.47
6190.14
6188.78
6187.85
6186.34
6185.54
6184.82
6184.29
6183.62
6183.17