/*--------------------------------*- C++ -*----------------------------------*\
| =========                 |                                                 |
| \\      /  F ield         | OpenFOAM: The Open Source CFD Toolbox           |
|  \\    /   O peration     | Version:  v2012                                 |
|   \\  /    A nd           | Website:  www.openfoam.com                      |
|    \\/     M anipulation  |                                                 |
\*---------------------------------------------------------------------------*/
FoamFile
{
    version     2.0;
    format      ascii;
    class       volScalarField;
    location    "12.5";
    object      yPlus;
}
// * * * * * * * * * * * * * * * * * * * * * * * * * * * * * * * * * * * * * //

dimensions      [0 0 0 0 0 0 0];


internalField   uniform 0;

boundaryField
{
    inlet
    {
        type            calculated;
        value           uniform 0;
    }
    outlet
    {
        type            calculated;
        value           uniform 0;
    }
    topWall
    {
        type            calculated;
        value           nonuniform List<scalar> 
545
(
0.0948491
0.163972
0.210529
0.247418
0.278617
0.305901
0.330254
0.352296
0.372452
0.391027
0.408247
0.424289
0.439295
0.453379
0.466633
0.479138
0.490961
0.502159
0.512784
0.522878
0.532482
0.541629
0.55035
0.558674
0.566625
0.574227
0.5815
0.588463
0.595134
0.601529
0.607662
0.613549
0.6192
0.624629
0.629845
0.634861
0.639685
0.644326
0.648793
0.653094
0.657236
0.661227
0.665073
0.668781
0.672356
0.675804
0.67913
0.68234
0.685439
0.68843
0.691318
0.694107
0.696802
0.699406
0.701922
0.704354
0.706705
0.708978
0.711176
0.713302
0.715358
0.717348
0.719273
0.721136
0.72294
0.724685
0.726375
0.728011
0.729595
0.73113
0.732616
0.734055
0.735431
0.73676
0.738078
0.739384
0.740679
0.741962
0.743234
0.744494
0.745743
0.746982
0.748209
0.749426
0.750632
0.751827
0.753013
0.754187
0.755352
0.756506
0.75765
0.758785
0.759909
0.761024
0.762129
0.763226
0.764206
0.765082
0.765957
0.766832
0.767706
0.768579
0.769451
0.770323
0.771194
0.772064
0.772933
0.773802
0.774669
0.775536
0.776402
0.777268
0.778132
0.778996
0.779858
0.78072
0.781581
0.782442
0.783301
0.784159
0.785017
0.785873
0.786729
0.787584
0.788437
0.78929
0.790142
0.790993
0.791843
0.792692
0.79354
0.794387
0.795233
0.796077
0.796921
0.797764
0.798606
0.799446
0.800286
0.801124
0.801961
0.802798
0.803633
0.804467
0.805299
0.806131
0.806961
0.807791
0.808619
0.809445
0.810271
0.811095
0.811919
0.81274
0.813561
0.81438
0.815198
0.816015
0.816831
0.817645
0.818457
0.819269
0.820079
0.820888
0.821695
0.822501
0.823305
0.824108
0.82491
0.82571
0.826509
0.827306
0.828102
0.828896
0.829689
0.830481
0.83127
0.832059
0.832845
0.83363
0.834414
0.835196
0.835976
0.836755
0.837532
0.838307
0.839081
0.839853
0.840623
0.841392
0.842159
0.842924
0.843688
0.84445
0.84521
0.845968
0.846724
0.847479
0.848232
0.848983
0.849732
0.850479
0.851224
0.851968
0.852709
0.853449
0.854187
0.854923
0.855656
0.856388
0.857118
0.857846
0.858572
0.859296
0.860018
0.860737
0.861455
0.86217
0.862884
0.863595
0.864305
0.865012
0.865717
0.866419
0.86712
0.867818
0.868514
0.869208
0.8699
0.870589
0.871276
0.871961
0.872644
0.873324
0.874002
0.874677
0.87535
0.876021
0.876689
0.877355
0.878019
0.87868
0.879338
0.879994
0.880648
0.881299
0.881948
0.882594
0.883237
0.883878
0.884516
0.885152
0.885785
0.886416
0.887043
0.887668
0.888291
0.888911
0.889528
0.890142
0.890754
0.891363
0.891969
0.892572
0.893172
0.89377
0.894365
0.894956
0.895546
0.896096
0.896613
0.897132
0.897654
0.898178
0.898704
0.899233
0.899763
0.900297
0.900832
0.901369
0.901909
0.902451
0.902994
0.90354
0.904087
0.904636
0.905187
0.905739
0.906293
0.906849
0.907406
0.907964
0.908524
0.909084
0.909646
0.910209
0.910773
0.911337
0.911903
0.912469
0.913035
0.913602
0.914169
0.914737
0.915305
0.915872
0.91644
0.917007
0.917574
0.91814
0.918706
0.91927
0.919834
0.920397
0.920959
0.92152
0.922078
0.922636
0.923191
0.923745
0.924296
0.924845
0.925392
0.925936
0.926477
0.927015
0.92755
0.928082
0.92861
0.929134
0.929655
0.930171
0.930683
0.93119
0.931692
0.932189
0.932682
0.933168
0.933649
0.934124
0.934592
0.935055
0.93551
0.935959
0.9364
0.936834
0.93726
0.937678
0.938088
0.938489
0.938882
0.939265
0.939639
0.940003
0.940358
0.940702
0.941035
0.941357
0.941669
0.941968
0.942256
0.942532
0.942795
0.943045
0.943283
0.943506
0.943716
0.943912
0.944093
0.94426
0.944411
0.944547
0.944667
0.944771
0.944858
0.944928
0.944981
0.945017
0.945034
0.945033
0.945014
0.944975
0.944917
0.944839
0.944741
0.944623
0.944484
0.944324
0.944142
0.943938
0.943713
0.943464
0.943193
0.942899
0.942581
0.942239
0.941873
0.941482
0.941067
0.940626
0.94016
0.939669
0.939151
0.938607
0.938036
0.937439
0.936814
0.936162
0.935482
0.934774
0.934039
0.933275
0.932482
0.931661
0.930811
0.929931
0.929023
0.928085
0.927118
0.926121
0.925094
0.924038
0.922951
0.921835
0.920689
0.919513
0.918306
0.91707
0.915804
0.914508
0.913183
0.911827
0.910442
0.909027
0.907583
0.90611
0.904608
0.903076
0.901517
0.899928
0.898312
0.896667
0.894995
0.893295
0.891568
0.889815
0.888035
0.88623
0.8844
0.88254
0.880448
0.878149
0.875841
0.87353
0.871218
0.868905
0.866593
0.864282
0.861975
0.859672
0.857374
0.855083
0.852799
0.850523
0.848257
0.846001
0.843756
0.841524
0.839304
0.837097
0.834905
0.832728
0.830566
0.828421
0.826293
0.824182
0.822089
0.820014
0.817959
0.815924
0.813908
0.811913
0.80994
0.807988
0.806058
0.80415
0.802265
0.800404
0.798566
0.796752
0.794963
0.793198
0.791458
0.789744
0.788056
0.786394
0.784758
0.783149
0.781567
0.780012
0.778485
0.776986
0.775515
0.774073
0.772659
0.771275
0.769919
0.768594
0.767297
0.766031
0.764796
0.763591
0.762416
0.761273
0.760161
0.75908
0.758031
0.757015
0.75603
0.755077
0.754157
0.753271
0.752416
0.751596
0.750808
0.750054
0.749334
0.748648
0.747995
0.747378
0.746794
0.746246
0.745732
0.745253
0.744809
0.744401
0.744028
0.74369
0.743388
0.743122
0.74289
0.742695
0.74253
0.742422
0.742278
)
;
    }
    bottomWall
    {
        type            calculated;
        value           nonuniform List<scalar> 
449
(
0.139595
0.0890515
0.0759015
0.069546
0.0653995
0.0623534
0.0600316
0.0583741
0.0575901
0.0581112
0.0614557
0.0652917
0.0678121
0.0691717
0.0698886
0.070259
0.0704112
0.0704114
0.0703029
0.0701319
0.069916
0.0696729
0.0694141
0.0691461
0.0688739
0.0686004
0.0683288
0.0680595
0.0677948
0.0675344
0.0672798
0.0670304
0.0667869
0.0665493
0.0663182
0.0660929
0.065874
0.0656608
0.0654538
0.065252
0.0650563
0.0648653
0.0646802
0.0644989
0.0643235
0.0641516
0.0639855
0.0638224
0.0636648
0.0635099
0.06336
0.0632128
0.0630703
0.0629301
0.0627942
0.0626607
0.0625309
0.0624034
0.0622796
0.0621576
0.0620391
0.0619222
0.0618088
0.0616968
0.061588
0.0614807
0.0613762
0.0612732
0.0611727
0.0610739
0.0609771
0.0608822
0.060789
0.0606976
0.0606078
0.0605197
0.0604331
0.0603483
0.0602646
0.0601827
0.0601019
0.0600227
0.0599447
0.0598681
0.059793
0.0597186
0.059646
0.0595738
0.0595036
0.0594335
0.0593655
0.0592977
0.0592316
0.0591659
0.0591015
0.0590378
0.0589752
0.0589134
0.0588524
0.0587925
0.0587331
0.0586748
0.058617
0.0585606
0.0585046
0.0584498
0.0583953
0.0583418
0.0582889
0.0582367
0.0581851
0.0581343
0.0580841
0.0580345
0.0579855
0.0579373
0.0578895
0.0578425
0.0577962
0.0577505
0.0577055
0.0576612
0.0576173
0.0575739
0.0575311
0.0574887
0.0574468
0.0574053
0.0573643
0.0573238
0.0572839
0.0572441
0.0572054
0.0571666
0.0571289
0.0570914
0.0570545
0.0570179
0.0569818
0.0569458
0.0569103
0.0568752
0.05684
0.0568057
0.0567709
0.0567371
0.0567031
0.0566699
0.0566362
0.0566032
0.05657
0.0565375
0.0565054
0.056474
0.0564434
0.0564132
0.0563837
0.0563545
0.0563255
0.0562968
0.0562681
0.0562395
0.0562113
0.0561834
0.0561555
0.0561285
0.0561016
0.056075
0.0560486
0.0560222
0.0559957
0.0559692
0.0559433
0.0559188
0.0558955
0.0558725
0.0558491
0.0558263
0.0558035
0.0557807
0.055758
0.0557348
0.0557115
0.0556885
0.0556656
0.0556432
0.0556215
0.0555997
0.0555783
0.0555573
0.055536
0.055515
0.0554942
0.0554732
0.0554523
0.0554316
0.0554106
0.0553899
0.0553692
0.0553483
0.0553277
0.0553071
0.0552864
0.0552659
0.0552455
0.0552248
0.0552048
0.0551843
0.0551642
0.0551437
0.055123
0.0551026
0.0550821
0.0550618
0.0550425
0.0550226
0.055003
0.0549837
0.0549631
0.0549432
0.0549234
0.0549039
0.0548849
0.0548657
0.0548475
0.0548293
0.0548113
0.0547935
0.0547756
0.0547579
0.0547409
0.0547231
0.0547053
0.0546871
0.0546687
0.0546501
0.0546328
0.0546155
0.0545984
0.054582
0.0545642
0.0545475
0.054531
0.054515
0.0544987
0.0544832
0.0544672
0.0544511
0.0544353
0.0544193
0.054404
0.0543884
0.054374
0.054359
0.0543437
0.0543294
0.0543152
0.0543011
0.0542867
0.0542727
0.0542578
0.0542431
0.0542279
0.0542123
0.0541984
0.0541842
0.0541701
0.0541563
0.0541423
0.0541282
0.0541138
0.0540991
0.0540852
0.0540724
0.0540591
0.0540449
0.0540322
0.0540186
0.0540037
0.0539905
0.0539774
0.0539631
0.05395
0.0539369
0.0539229
0.0539098
0.0538963
0.0538824
0.0538692
0.0538551
0.0538415
0.0538282
0.0538139
0.0538011
0.0537879
0.0537744
0.0537608
0.0537483
0.0537344
0.0537197
0.0537066
0.0536936
0.0536791
0.0536659
0.0536522
0.0536388
0.0536255
0.053611
0.053598
0.0535851
0.0535711
0.0535584
0.0535455
0.0535313
0.0535186
0.0535056
0.0534915
0.053479
0.0534663
0.0534526
0.0534404
0.0534279
0.0534142
0.053402
0.0533894
0.0533759
0.0533638
0.0533512
0.0533377
0.0533256
0.0533131
0.0532996
0.0532877
0.0532751
0.0532618
0.0532499
0.0532375
0.0532244
0.0532121
0.0532001
0.0531871
0.0531753
0.0531625
0.0531502
0.0531369
0.0531237
0.0531125
0.0531009
0.0530884
0.0530776
0.0530654
0.0530541
0.0530422
0.0530306
0.0530183
0.0530049
0.0529932
0.0529806
0.0529683
0.0529543
0.0529415
0.0529286
0.052916
0.0529043
0.0528936
0.0528817
0.0528692
0.0528578
0.0528469
0.0528348
0.052824
0.0528126
0.0528021
0.0527925
0.0527823
0.0527736
0.0527641
0.0527551
0.0527454
0.0527354
0.0527256
0.0527171
0.052708
0.0526989
0.0526911
0.0526821
0.0526738
0.0526651
0.0526572
0.0526489
0.0526408
0.0526339
0.0526255
0.052618
0.0526095
0.0526019
0.0525948
0.0525869
0.0525802
0.0525729
0.0525657
0.0525579
0.0525501
0.0525438
0.0525363
0.0525294
0.0525223
0.0525151
0.0525093
0.0525025
0.0524963
0.0524897
0.0524841
0.0524779
0.0524717
0.0524666
0.0524606
0.0524546
0.0524495
0.0524429
0.0524369
0.0524317
0.0524255
0.0524201
0.0524148
0.0524088
0.0524038
0.0523989
0.0523932
0.0523887
0.0523832
0.0523788
0.052374
0.0523698
0.0523657
0.0523604
0.0523556
0.0523513
0.0523461
0.0523414
0.0523371
0.0523322
0.0523279
0.0523243
0.0523185
0.0523155
0.0523084
0.052311
0.0522985
)
;
    }
    symmetry
    {
        type            symmetryPlane;
    }
    frontAndBack
    {
        type            empty;
    }
}


// ************************************************************************* //
