/*--------------------------------*- C++ -*----------------------------------*\
| =========                 |                                                 |
| \\      /  F ield         | OpenFOAM: The Open Source CFD Toolbox           |
|  \\    /   O peration     | Version:  v2012                                 |
|   \\  /    A nd           | Website:  www.openfoam.com                      |
|    \\/     M anipulation  |                                                 |
\*---------------------------------------------------------------------------*/
FoamFile
{
    version     2.0;
    format      ascii;
    class       volVectorField;
    location    "53.5";
    object      wallShearStress;
}
// * * * * * * * * * * * * * * * * * * * * * * * * * * * * * * * * * * * * * //

dimensions      [0 2 -2 0 0 0 0];


internalField   uniform (0 0 0);

boundaryField
{
    inlet
    {
        type            calculated;
        value           uniform (0 0 0);
    }
    outlet
    {
        type            calculated;
        value           uniform (0 0 0);
    }
    topWall
    {
        type            calculated;
        value           nonuniform List<vector> 
545
(
(1.48729e-08 -1.04692e-08 0)
(1.4866e-08 -2.92889e-08 0)
(1.48523e-08 -4.8857e-08 0)
(1.48318e-08 -6.78513e-08 0)
(1.48057e-08 -8.60244e-08 0)
(1.47744e-08 -1.03608e-07 0)
(1.47385e-08 -1.2075e-07 0)
(1.46982e-08 -1.3744e-07 0)
(1.46541e-08 -1.53642e-07 0)
(1.46063e-08 -1.69353e-07 0)
(1.45555e-08 -1.84594e-07 0)
(1.45018e-08 -1.99383e-07 0)
(1.44455e-08 -2.13729e-07 0)
(1.43871e-08 -2.27641e-07 0)
(1.43266e-08 -2.41131e-07 0)
(1.42645e-08 -2.54208e-07 0)
(1.42009e-08 -2.66884e-07 0)
(1.4136e-08 -2.79171e-07 0)
(1.40701e-08 -2.91078e-07 0)
(1.40033e-08 -3.02617e-07 0)
(1.39359e-08 -3.13798e-07 0)
(1.38679e-08 -3.24631e-07 0)
(1.37996e-08 -3.35127e-07 0)
(1.3731e-08 -3.45295e-07 0)
(1.36624e-08 -3.55146e-07 0)
(1.35937e-08 -3.64689e-07 0)
(1.35252e-08 -3.73934e-07 0)
(1.34569e-08 -3.8289e-07 0)
(1.33889e-08 -3.91565e-07 0)
(1.33213e-08 -3.99969e-07 0)
(1.32542e-08 -4.0811e-07 0)
(1.31876e-08 -4.15997e-07 0)
(1.31216e-08 -4.23637e-07 0)
(1.30563e-08 -4.31038e-07 0)
(1.29916e-08 -4.38209e-07 0)
(1.29277e-08 -4.45156e-07 0)
(1.28646e-08 -4.51886e-07 0)
(1.28023e-08 -4.58408e-07 0)
(1.27408e-08 -4.64726e-07 0)
(1.26803e-08 -4.70849e-07 0)
(1.26206e-08 -4.76782e-07 0)
(1.25618e-08 -4.82532e-07 0)
(1.2504e-08 -4.88104e-07 0)
(1.24471e-08 -4.93504e-07 0)
(1.23912e-08 -4.98738e-07 0)
(1.23362e-08 -5.03812e-07 0)
(1.22822e-08 -5.0873e-07 0)
(1.22292e-08 -5.13497e-07 0)
(1.21772e-08 -5.18119e-07 0)
(1.21261e-08 -5.226e-07 0)
(1.2076e-08 -5.26944e-07 0)
(1.20269e-08 -5.31157e-07 0)
(1.19787e-08 -5.35242e-07 0)
(1.19316e-08 -5.39203e-07 0)
(1.18853e-08 -5.43045e-07 0)
(1.184e-08 -5.46772e-07 0)
(1.17957e-08 -5.50386e-07 0)
(1.17523e-08 -5.53892e-07 0)
(1.17098e-08 -5.57293e-07 0)
(1.16682e-08 -5.60593e-07 0)
(1.16275e-08 -5.63794e-07 0)
(1.15877e-08 -5.669e-07 0)
(1.15487e-08 -5.69914e-07 0)
(1.15106e-08 -5.72839e-07 0)
(1.14734e-08 -5.75677e-07 0)
(1.1437e-08 -5.78431e-07 0)
(1.14015e-08 -5.81105e-07 0)
(1.13667e-08 -5.837e-07 0)
(1.13327e-08 -5.86219e-07 0)
(1.12996e-08 -5.88664e-07 0)
(1.12671e-08 -5.91038e-07 0)
(1.12356e-08 -5.9334e-07 0)
(1.12051e-08 -5.95552e-07 0)
(1.1175e-08 -5.97696e-07 0)
(1.11453e-08 -5.99814e-07 0)
(1.11157e-08 -6.01919e-07 0)
(1.10861e-08 -6.04013e-07 0)
(1.10566e-08 -6.06092e-07 0)
(1.10272e-08 -6.08155e-07 0)
(1.09978e-08 -6.10202e-07 0)
(1.09685e-08 -6.12235e-07 0)
(1.09392e-08 -6.14253e-07 0)
(1.091e-08 -6.16257e-07 0)
(1.08809e-08 -6.18246e-07 0)
(1.08518e-08 -6.20221e-07 0)
(1.08228e-08 -6.22181e-07 0)
(1.07938e-08 -6.24128e-07 0)
(1.07649e-08 -6.2606e-07 0)
(1.07361e-08 -6.27978e-07 0)
(1.07073e-08 -6.29883e-07 0)
(1.06786e-08 -6.31773e-07 0)
(1.065e-08 -6.3365e-07 0)
(1.06214e-08 -6.35514e-07 0)
(1.0593e-08 -6.37362e-07 0)
(1.05643e-08 -6.39202e-07 0)
(1.05372e-08 -6.41009e-07 0)
(1.0512e-08 -6.42662e-07 0)
(1.04878e-08 -6.44158e-07 0)
(1.04643e-08 -6.45613e-07 0)
(1.0441e-08 -6.47074e-07 0)
(1.04177e-08 -6.48546e-07 0)
(1.03943e-08 -6.50021e-07 0)
(1.03707e-08 -6.51493e-07 0)
(1.03471e-08 -6.52964e-07 0)
(1.03234e-08 -6.54435e-07 0)
(1.02996e-08 -6.55907e-07 0)
(1.02757e-08 -6.57378e-07 0)
(1.02517e-08 -6.5885e-07 0)
(1.02277e-08 -6.60322e-07 0)
(1.02035e-08 -6.61794e-07 0)
(1.01792e-08 -6.63265e-07 0)
(1.01549e-08 -6.64737e-07 0)
(1.01304e-08 -6.66209e-07 0)
(1.01059e-08 -6.6768e-07 0)
(1.00812e-08 -6.69152e-07 0)
(1.00565e-08 -6.70623e-07 0)
(1.00317e-08 -6.72094e-07 0)
(1.00067e-08 -6.73565e-07 0)
(9.98172e-09 -6.75036e-07 0)
(9.95661e-09 -6.76506e-07 0)
(9.93141e-09 -6.77977e-07 0)
(9.90611e-09 -6.79447e-07 0)
(9.88071e-09 -6.80916e-07 0)
(9.85522e-09 -6.82386e-07 0)
(9.82964e-09 -6.83855e-07 0)
(9.80396e-09 -6.85323e-07 0)
(9.77819e-09 -6.86792e-07 0)
(9.75232e-09 -6.88259e-07 0)
(9.72636e-09 -6.89727e-07 0)
(9.7003e-09 -6.91194e-07 0)
(9.67415e-09 -6.9266e-07 0)
(9.6479e-09 -6.94126e-07 0)
(9.62156e-09 -6.95591e-07 0)
(9.59512e-09 -6.97056e-07 0)
(9.56859e-09 -6.9852e-07 0)
(9.54196e-09 -6.99984e-07 0)
(9.51524e-09 -7.01447e-07 0)
(9.48842e-09 -7.02909e-07 0)
(9.46151e-09 -7.04371e-07 0)
(9.4345e-09 -7.05832e-07 0)
(9.4074e-09 -7.07292e-07 0)
(9.38021e-09 -7.08751e-07 0)
(9.35292e-09 -7.1021e-07 0)
(9.32553e-09 -7.11667e-07 0)
(9.29805e-09 -7.13124e-07 0)
(9.27047e-09 -7.1458e-07 0)
(9.2428e-09 -7.16035e-07 0)
(9.21504e-09 -7.17489e-07 0)
(9.18718e-09 -7.18943e-07 0)
(9.15922e-09 -7.20395e-07 0)
(9.13118e-09 -7.21846e-07 0)
(9.10303e-09 -7.23296e-07 0)
(9.0748e-09 -7.24745e-07 0)
(9.04646e-09 -7.26193e-07 0)
(9.01804e-09 -7.2764e-07 0)
(8.98952e-09 -7.29086e-07 0)
(8.9609e-09 -7.3053e-07 0)
(8.9322e-09 -7.31973e-07 0)
(8.9034e-09 -7.33415e-07 0)
(8.8745e-09 -7.34856e-07 0)
(8.84551e-09 -7.36295e-07 0)
(8.81643e-09 -7.37733e-07 0)
(8.78725e-09 -7.3917e-07 0)
(8.75798e-09 -7.40605e-07 0)
(8.72862e-09 -7.42039e-07 0)
(8.69917e-09 -7.43472e-07 0)
(8.66962e-09 -7.44903e-07 0)
(8.63998e-09 -7.46332e-07 0)
(8.61024e-09 -7.4776e-07 0)
(8.58042e-09 -7.49186e-07 0)
(8.5505e-09 -7.50611e-07 0)
(8.52049e-09 -7.52034e-07 0)
(8.49039e-09 -7.53456e-07 0)
(8.4602e-09 -7.54875e-07 0)
(8.42991e-09 -7.56293e-07 0)
(8.39953e-09 -7.5771e-07 0)
(8.36907e-09 -7.59124e-07 0)
(8.33851e-09 -7.60537e-07 0)
(8.30786e-09 -7.61947e-07 0)
(8.27712e-09 -7.63356e-07 0)
(8.24629e-09 -7.64763e-07 0)
(8.21537e-09 -7.66168e-07 0)
(8.18436e-09 -7.67571e-07 0)
(8.15326e-09 -7.68972e-07 0)
(8.12208e-09 -7.70371e-07 0)
(8.0908e-09 -7.71768e-07 0)
(8.05943e-09 -7.73163e-07 0)
(8.02798e-09 -7.74555e-07 0)
(7.99644e-09 -7.75946e-07 0)
(7.96481e-09 -7.77334e-07 0)
(7.93309e-09 -7.7872e-07 0)
(7.90128e-09 -7.80103e-07 0)
(7.86939e-09 -7.81485e-07 0)
(7.83741e-09 -7.82864e-07 0)
(7.80535e-09 -7.8424e-07 0)
(7.7732e-09 -7.85615e-07 0)
(7.74096e-09 -7.86986e-07 0)
(7.70864e-09 -7.88355e-07 0)
(7.67623e-09 -7.89722e-07 0)
(7.64374e-09 -7.91086e-07 0)
(7.61116e-09 -7.92448e-07 0)
(7.5785e-09 -7.93807e-07 0)
(7.54576e-09 -7.95163e-07 0)
(7.51293e-09 -7.96517e-07 0)
(7.48002e-09 -7.97868e-07 0)
(7.44703e-09 -7.99216e-07 0)
(7.41396e-09 -8.00561e-07 0)
(7.3808e-09 -8.01903e-07 0)
(7.34756e-09 -8.03243e-07 0)
(7.31425e-09 -8.0458e-07 0)
(7.28085e-09 -8.05913e-07 0)
(7.24737e-09 -8.07244e-07 0)
(7.21381e-09 -8.08572e-07 0)
(7.18018e-09 -8.09896e-07 0)
(7.14646e-09 -8.11218e-07 0)
(7.11267e-09 -8.12536e-07 0)
(7.0788e-09 -8.13852e-07 0)
(7.04485e-09 -8.15164e-07 0)
(7.01083e-09 -8.16472e-07 0)
(6.97673e-09 -8.17778e-07 0)
(6.94255e-09 -8.1908e-07 0)
(6.9083e-09 -8.20379e-07 0)
(6.87398e-09 -8.21675e-07 0)
(6.83958e-09 -8.22967e-07 0)
(6.80511e-09 -8.24255e-07 0)
(6.77056e-09 -8.2554e-07 0)
(6.73594e-09 -8.26822e-07 0)
(6.70125e-09 -8.281e-07 0)
(6.66649e-09 -8.29374e-07 0)
(6.63166e-09 -8.30645e-07 0)
(6.59676e-09 -8.31912e-07 0)
(6.56179e-09 -8.33176e-07 0)
(6.52675e-09 -8.34435e-07 0)
(6.49164e-09 -8.35691e-07 0)
(6.45647e-09 -8.36943e-07 0)
(6.42122e-09 -8.38191e-07 0)
(6.38592e-09 -8.39435e-07 0)
(6.35054e-09 -8.40675e-07 0)
(6.3151e-09 -8.41912e-07 0)
(6.2796e-09 -8.43144e-07 0)
(6.24403e-09 -8.44372e-07 0)
(6.2084e-09 -8.45596e-07 0)
(6.17271e-09 -8.46816e-07 0)
(6.13696e-09 -8.48031e-07 0)
(6.10114e-09 -8.49243e-07 0)
(6.06527e-09 -8.5045e-07 0)
(6.02933e-09 -8.51653e-07 0)
(5.99334e-09 -8.52852e-07 0)
(5.95729e-09 -8.54046e-07 0)
(5.92118e-09 -8.55236e-07 0)
(5.88501e-09 -8.56421e-07 0)
(5.84879e-09 -8.57602e-07 0)
(5.81252e-09 -8.58778e-07 0)
(5.77619e-09 -8.5995e-07 0)
(5.7398e-09 -8.61117e-07 0)
(5.70337e-09 -8.62279e-07 0)
(5.66688e-09 -8.63437e-07 0)
(5.63034e-09 -8.6459e-07 0)
(5.59375e-09 -8.65738e-07 0)
(5.55711e-09 -8.66882e-07 0)
(5.52043e-09 -8.68021e-07 0)
(5.48369e-09 -8.69154e-07 0)
(5.44691e-09 -8.70283e-07 0)
(5.41009e-09 -8.71407e-07 0)
(5.37322e-09 -8.72526e-07 0)
(5.33629e-09 -8.7364e-07 0)
(5.29938e-09 -8.74748e-07 0)
(5.26217e-09 -8.75853e-07 0)
(5.22603e-09 -8.76945e-07 0)
(5.19142e-09 -8.77982e-07 0)
(5.15732e-09 -8.78962e-07 0)
(5.12364e-09 -8.79932e-07 0)
(5.08982e-09 -8.80909e-07 0)
(5.05571e-09 -8.81893e-07 0)
(5.02128e-09 -8.82882e-07 0)
(4.98653e-09 -8.83874e-07 0)
(4.95145e-09 -8.8487e-07 0)
(4.91603e-09 -8.85869e-07 0)
(4.88028e-09 -8.86872e-07 0)
(4.8442e-09 -8.87878e-07 0)
(4.80777e-09 -8.88888e-07 0)
(4.77101e-09 -8.89901e-07 0)
(4.73391e-09 -8.90916e-07 0)
(4.69646e-09 -8.91935e-07 0)
(4.65867e-09 -8.92957e-07 0)
(4.62053e-09 -8.93982e-07 0)
(4.58204e-09 -8.95009e-07 0)
(4.54321e-09 -8.96038e-07 0)
(4.50402e-09 -8.9707e-07 0)
(4.46448e-09 -8.98104e-07 0)
(4.42459e-09 -8.9914e-07 0)
(4.38435e-09 -9.00178e-07 0)
(4.34375e-09 -9.01217e-07 0)
(4.30279e-09 -9.02258e-07 0)
(4.26148e-09 -9.033e-07 0)
(4.21981e-09 -9.04343e-07 0)
(4.17777e-09 -9.05387e-07 0)
(4.13538e-09 -9.06432e-07 0)
(4.09263e-09 -9.07478e-07 0)
(4.04952e-09 -9.08523e-07 0)
(4.00604e-09 -9.09569e-07 0)
(3.96221e-09 -9.10615e-07 0)
(3.91801e-09 -9.1166e-07 0)
(3.87345e-09 -9.12705e-07 0)
(3.82852e-09 -9.13749e-07 0)
(3.78324e-09 -9.14792e-07 0)
(3.73759e-09 -9.15834e-07 0)
(3.69158e-09 -9.16874e-07 0)
(3.64521e-09 -9.17913e-07 0)
(3.59848e-09 -9.18949e-07 0)
(3.55139e-09 -9.19983e-07 0)
(3.50393e-09 -9.21015e-07 0)
(3.45613e-09 -9.22043e-07 0)
(3.40796e-09 -9.23069e-07 0)
(3.35943e-09 -9.24091e-07 0)
(3.31056e-09 -9.25109e-07 0)
(3.26133e-09 -9.26123e-07 0)
(3.21174e-09 -9.27133e-07 0)
(3.16181e-09 -9.28138e-07 0)
(3.11153e-09 -9.29138e-07 0)
(3.06091e-09 -9.30132e-07 0)
(3.00994e-09 -9.31121e-07 0)
(2.95864e-09 -9.32103e-07 0)
(2.90699e-09 -9.3308e-07 0)
(2.85502e-09 -9.34049e-07 0)
(2.80271e-09 -9.35011e-07 0)
(2.75007e-09 -9.35965e-07 0)
(2.69711e-09 -9.36912e-07 0)
(2.64383e-09 -9.3785e-07 0)
(2.59023e-09 -9.38779e-07 0)
(2.53633e-09 -9.39699e-07 0)
(2.48211e-09 -9.4061e-07 0)
(2.4276e-09 -9.4151e-07 0)
(2.37278e-09 -9.424e-07 0)
(2.31767e-09 -9.43279e-07 0)
(2.26228e-09 -9.44146e-07 0)
(2.20661e-09 -9.45002e-07 0)
(2.15066e-09 -9.45845e-07 0)
(2.09445e-09 -9.46675e-07 0)
(2.03797e-09 -9.47492e-07 0)
(1.98124e-09 -9.48296e-07 0)
(1.92426e-09 -9.49085e-07 0)
(1.86703e-09 -9.49859e-07 0)
(1.80958e-09 -9.50618e-07 0)
(1.75191e-09 -9.51361e-07 0)
(1.69401e-09 -9.52088e-07 0)
(1.63591e-09 -9.52798e-07 0)
(1.57761e-09 -9.5349e-07 0)
(1.51913e-09 -9.54165e-07 0)
(1.46046e-09 -9.54821e-07 0)
(1.40162e-09 -9.55457e-07 0)
(1.34262e-09 -9.56075e-07 0)
(1.28348e-09 -9.56672e-07 0)
(1.22419e-09 -9.57248e-07 0)
(1.16478e-09 -9.57803e-07 0)
(1.10526e-09 -9.58336e-07 0)
(1.04563e-09 -9.58846e-07 0)
(9.85909e-10 -9.59333e-07 0)
(9.2611e-10 -9.59796e-07 0)
(8.66245e-10 -9.60235e-07 0)
(8.06328e-10 -9.60649e-07 0)
(7.46372e-10 -9.61038e-07 0)
(6.86392e-10 -9.614e-07 0)
(6.264e-10 -9.61735e-07 0)
(5.66412e-10 -9.62043e-07 0)
(5.06443e-10 -9.62323e-07 0)
(4.46508e-10 -9.62574e-07 0)
(3.86623e-10 -9.62795e-07 0)
(3.26803e-10 -9.62987e-07 0)
(2.67066e-10 -9.63147e-07 0)
(2.07426e-10 -9.63277e-07 0)
(1.47902e-10 -9.63374e-07 0)
(8.85103e-11 -9.63439e-07 0)
(2.92686e-11 -9.63471e-07 0)
(-2.98053e-11 -9.63469e-07 0)
(-8.86934e-11 -9.63433e-07 0)
(-1.47377e-10 -9.63361e-07 0)
(-2.05838e-10 -9.63253e-07 0)
(-2.64057e-10 -9.6311e-07 0)
(-3.22015e-10 -9.62929e-07 0)
(-3.79692e-10 -9.6271e-07 0)
(-4.3707e-10 -9.62454e-07 0)
(-4.94127e-10 -9.62158e-07 0)
(-5.50844e-10 -9.61823e-07 0)
(-6.07201e-10 -9.61448e-07 0)
(-6.63177e-10 -9.61032e-07 0)
(-7.18751e-10 -9.60575e-07 0)
(-7.73903e-10 -9.60076e-07 0)
(-8.28612e-10 -9.59535e-07 0)
(-8.82856e-10 -9.58951e-07 0)
(-9.36615e-10 -9.58324e-07 0)
(-9.89867e-10 -9.57652e-07 0)
(-1.04259e-09 -9.56936e-07 0)
(-1.09476e-09 -9.56175e-07 0)
(-1.14637e-09 -9.55369e-07 0)
(-1.19738e-09 -9.54516e-07 0)
(-1.24777e-09 -9.53617e-07 0)
(-1.29754e-09 -9.52672e-07 0)
(-1.34664e-09 -9.51678e-07 0)
(-1.39507e-09 -9.50638e-07 0)
(-1.4428e-09 -9.49549e-07 0)
(-1.48981e-09 -9.48411e-07 0)
(-1.53607e-09 -9.47225e-07 0)
(-1.58158e-09 -9.4599e-07 0)
(-1.6263e-09 -9.44705e-07 0)
(-1.67023e-09 -9.4337e-07 0)
(-1.71333e-09 -9.41985e-07 0)
(-1.75559e-09 -9.4055e-07 0)
(-1.79699e-09 -9.39065e-07 0)
(-1.8375e-09 -9.37528e-07 0)
(-1.87712e-09 -9.35941e-07 0)
(-1.91583e-09 -9.34303e-07 0)
(-1.95359e-09 -9.32614e-07 0)
(-1.99041e-09 -9.30874e-07 0)
(-2.02626e-09 -9.29082e-07 0)
(-2.06112e-09 -9.27239e-07 0)
(-2.09498e-09 -9.25345e-07 0)
(-2.12782e-09 -9.234e-07 0)
(-2.15963e-09 -9.21403e-07 0)
(-2.1904e-09 -9.19355e-07 0)
(-2.2201e-09 -9.17257e-07 0)
(-2.24874e-09 -9.15107e-07 0)
(-2.27629e-09 -9.12907e-07 0)
(-2.30274e-09 -9.10657e-07 0)
(-2.32809e-09 -9.08356e-07 0)
(-2.35232e-09 -9.06006e-07 0)
(-2.37542e-09 -9.03606e-07 0)
(-2.39739e-09 -9.01157e-07 0)
(-2.41822e-09 -8.98659e-07 0)
(-2.43789e-09 -8.96113e-07 0)
(-2.45641e-09 -8.93518e-07 0)
(-2.47378e-09 -8.90877e-07 0)
(-2.48997e-09 -8.88189e-07 0)
(-2.505e-09 -8.85454e-07 0)
(-2.51885e-09 -8.82674e-07 0)
(-2.53153e-09 -8.79849e-07 0)
(-2.54304e-09 -8.7698e-07 0)
(-2.55337e-09 -8.74067e-07 0)
(-2.56253e-09 -8.71111e-07 0)
(-2.57051e-09 -8.68113e-07 0)
(-2.57733e-09 -8.65073e-07 0)
(-2.58298e-09 -8.61994e-07 0)
(-2.58746e-09 -8.58874e-07 0)
(-2.59079e-09 -8.55717e-07 0)
(-2.59297e-09 -8.52521e-07 0)
(-2.594e-09 -8.49289e-07 0)
(-2.59389e-09 -8.46021e-07 0)
(-2.59265e-09 -8.42716e-07 0)
(-2.59034e-09 -8.39385e-07 0)
(-2.58669e-09 -8.3598e-07 0)
(-2.58143e-09 -8.3222e-07 0)
(-2.57455e-09 -8.28104e-07 0)
(-2.56601e-09 -8.23914e-07 0)
(-2.55602e-09 -8.19748e-07 0)
(-2.54471e-09 -8.15623e-07 0)
(-2.53218e-09 -8.11523e-07 0)
(-2.51849e-09 -8.07438e-07 0)
(-2.5037e-09 -8.03374e-07 0)
(-2.48787e-09 -7.99334e-07 0)
(-2.47108e-09 -7.95323e-07 0)
(-2.45336e-09 -7.91339e-07 0)
(-2.43479e-09 -7.87385e-07 0)
(-2.41541e-09 -7.83461e-07 0)
(-2.39527e-09 -7.79569e-07 0)
(-2.37442e-09 -7.7571e-07 0)
(-2.35291e-09 -7.71886e-07 0)
(-2.33077e-09 -7.68097e-07 0)
(-2.30805e-09 -7.64345e-07 0)
(-2.28478e-09 -7.6063e-07 0)
(-2.261e-09 -7.56953e-07 0)
(-2.23675e-09 -7.53314e-07 0)
(-2.21206e-09 -7.49716e-07 0)
(-2.18695e-09 -7.46157e-07 0)
(-2.16146e-09 -7.4264e-07 0)
(-2.13561e-09 -7.39164e-07 0)
(-2.10943e-09 -7.35731e-07 0)
(-2.08293e-09 -7.32339e-07 0)
(-2.05615e-09 -7.28992e-07 0)
(-2.0291e-09 -7.25687e-07 0)
(-2.00181e-09 -7.22427e-07 0)
(-1.97428e-09 -7.19211e-07 0)
(-1.94653e-09 -7.16039e-07 0)
(-1.91859e-09 -7.12913e-07 0)
(-1.89046e-09 -7.09832e-07 0)
(-1.86216e-09 -7.06797e-07 0)
(-1.8337e-09 -7.03808e-07 0)
(-1.80508e-09 -7.00865e-07 0)
(-1.77633e-09 -6.97968e-07 0)
(-1.74745e-09 -6.95118e-07 0)
(-1.71844e-09 -6.92314e-07 0)
(-1.68931e-09 -6.89558e-07 0)
(-1.66008e-09 -6.86849e-07 0)
(-1.63074e-09 -6.84188e-07 0)
(-1.60131e-09 -6.81573e-07 0)
(-1.57178e-09 -6.79007e-07 0)
(-1.54216e-09 -6.76488e-07 0)
(-1.51246e-09 -6.74018e-07 0)
(-1.48268e-09 -6.71595e-07 0)
(-1.45281e-09 -6.69221e-07 0)
(-1.42287e-09 -6.66895e-07 0)
(-1.39286e-09 -6.64618e-07 0)
(-1.36277e-09 -6.62389e-07 0)
(-1.33261e-09 -6.60209e-07 0)
(-1.30238e-09 -6.58078e-07 0)
(-1.27208e-09 -6.55996e-07 0)
(-1.24171e-09 -6.53962e-07 0)
(-1.21127e-09 -6.51978e-07 0)
(-1.18077e-09 -6.50044e-07 0)
(-1.1502e-09 -6.48158e-07 0)
(-1.11956e-09 -6.46323e-07 0)
(-1.08885e-09 -6.44536e-07 0)
(-1.05808e-09 -6.428e-07 0)
(-1.02724e-09 -6.41113e-07 0)
(-9.96333e-10 -6.39477e-07 0)
(-9.65361e-10 -6.3789e-07 0)
(-9.34323e-10 -6.36354e-07 0)
(-9.0322e-10 -6.34867e-07 0)
(-8.72052e-10 -6.33431e-07 0)
(-8.40819e-10 -6.32046e-07 0)
(-8.09522e-10 -6.30711e-07 0)
(-7.78161e-10 -6.29427e-07 0)
(-7.46738e-10 -6.28194e-07 0)
(-7.15254e-10 -6.27011e-07 0)
(-6.83709e-10 -6.2588e-07 0)
(-6.52105e-10 -6.24799e-07 0)
(-6.20444e-10 -6.2377e-07 0)
(-5.88726e-10 -6.22792e-07 0)
(-5.56953e-10 -6.21865e-07 0)
(-5.25129e-10 -6.2099e-07 0)
(-4.93253e-10 -6.20166e-07 0)
(-4.61329e-10 -6.19394e-07 0)
(-4.29359e-10 -6.18674e-07 0)
(-3.97346e-10 -6.18005e-07 0)
(-3.65291e-10 -6.17389e-07 0)
(-3.33198e-10 -6.16822e-07 0)
(-3.0107e-10 -6.16313e-07 0)
(-2.68909e-10 -6.15839e-07 0)
(-2.36723e-10 -6.15473e-07 0)
(-2.04493e-10 -6.14973e-07 0)
(-1.72303e-10 -6.15135e-07 0)
(-1.39888e-10 -6.13285e-07 0)
(-1.08146e-10 -6.18074e-07 0)
(-7.42166e-11 -5.99431e-07 0)
(-4.79158e-11 -6.48557e-07 0)
(-2.00804e-11 -5.66417e-07 0)
)
;
    }
    bottomWall
    {
        type            calculated;
        value           nonuniform List<vector> 
449
(
(-48.5218 -0.963957 0)
(-19.7475 -0.00515418 0)
(-14.3408 -0.00113464 0)
(-12.0315 -0.000545424 0)
(-10.6256 -0.000351465 0)
(-9.63184 -0.000255972 0)
(-8.87384 -0.000198469 0)
(-8.27038 -0.000159802 0)
(-7.775 -0.000132314 0)
(-7.3584 -0.000111969 0)
(-7.00142 -9.63701e-05 0)
(-6.69102 -8.40643e-05 0)
(-6.41789 -7.41473e-05 0)
(-6.17511 -6.60204e-05 0)
(-5.95744 -5.9264e-05 0)
(-5.76081 -5.35751e-05 0)
(-5.58202 -4.87312e-05 0)
(-5.41852 -4.45667e-05 0)
(-5.26825 -4.09555e-05 0)
(-5.1295 -3.78002e-05 0)
(-5.00086 -3.50241e-05 0)
(-4.88116 -3.25666e-05 0)
(-4.7694 -3.03787e-05 0)
(-4.66474 -2.8421e-05 0)
(-4.56645 -2.66609e-05 0)
(-4.4739 -2.50717e-05 0)
(-4.38657 -2.36312e-05 0)
(-4.30396 -2.23205e-05 0)
(-4.22567 -2.11239e-05 0)
(-4.15133 -2.00281e-05 0)
(-4.08061 -1.90216e-05 0)
(-4.01323 -1.80946e-05 0)
(-3.94894 -1.72385e-05 0)
(-3.8875 -1.6446e-05 0)
(-3.8287 -1.57108e-05 0)
(-3.77236 -1.50272e-05 0)
(-3.71831 -1.43904e-05 0)
(-3.6664 -1.37959e-05 0)
(-3.61649 -1.324e-05 0)
(-3.56845 -1.27192e-05 0)
(-3.52217 -1.22306e-05 0)
(-3.47754 -1.17714e-05 0)
(-3.43447 -1.13393e-05 0)
(-3.39286 -1.09321e-05 0)
(-3.35263 -1.05477e-05 0)
(-3.31371 -1.01846e-05 0)
(-3.27603 -9.84099e-06 0)
(-3.23952 -9.51555e-06 0)
(-3.20413 -9.20695e-06 0)
(-3.16979 -8.91401e-06 0)
(-3.13645 -8.63563e-06 0)
(-3.10407 -8.37084e-06 0)
(-3.07259 -8.11873e-06 0)
(-3.04199 -7.87846e-06 0)
(-3.01221 -7.64929e-06 0)
(-2.98322 -7.43052e-06 0)
(-2.95499 -7.22149e-06 0)
(-2.92748 -7.02163e-06 0)
(-2.90066 -6.83037e-06 0)
(-2.87451 -6.64722e-06 0)
(-2.84899 -6.4717e-06 0)
(-2.82408 -6.30338e-06 0)
(-2.79976 -6.14187e-06 0)
(-2.776 -5.98677e-06 0)
(-2.75278 -5.83775e-06 0)
(-2.73008 -5.69448e-06 0)
(-2.70789 -5.55666e-06 0)
(-2.68617 -5.424e-06 0)
(-2.66492 -5.29624e-06 0)
(-2.64412 -5.17313e-06 0)
(-2.62375 -5.05445e-06 0)
(-2.60379 -4.93997e-06 0)
(-2.58424 -4.82949e-06 0)
(-2.56508 -4.72282e-06 0)
(-2.5463 -4.61978e-06 0)
(-2.52788 -4.5202e-06 0)
(-2.50981 -4.42393e-06 0)
(-2.49208 -4.33081e-06 0)
(-2.47469 -4.2407e-06 0)
(-2.45761 -4.15348e-06 0)
(-2.44084 -4.069e-06 0)
(-2.42437 -3.98716e-06 0)
(-2.4082 -3.90785e-06 0)
(-2.3923 -3.83095e-06 0)
(-2.37668 -3.75637e-06 0)
(-2.36133 -3.68401e-06 0)
(-2.34623 -3.61377e-06 0)
(-2.33139 -3.54559e-06 0)
(-2.31679 -3.47937e-06 0)
(-2.30243 -3.41503e-06 0)
(-2.2883 -3.35251e-06 0)
(-2.27439 -3.29173e-06 0)
(-2.26071 -3.23263e-06 0)
(-2.24723 -3.17514e-06 0)
(-2.23396 -3.11921e-06 0)
(-2.2209 -3.06477e-06 0)
(-2.20803 -3.01177e-06 0)
(-2.19535 -2.96017e-06 0)
(-2.18286 -2.9099e-06 0)
(-2.17055 -2.86093e-06 0)
(-2.15842 -2.81321e-06 0)
(-2.14647 -2.76669e-06 0)
(-2.13468 -2.72133e-06 0)
(-2.12306 -2.67709e-06 0)
(-2.11159 -2.63394e-06 0)
(-2.10029 -2.59184e-06 0)
(-2.08914 -2.55075e-06 0)
(-2.07814 -2.51065e-06 0)
(-2.06728 -2.47149e-06 0)
(-2.05657 -2.43325e-06 0)
(-2.046 -2.3959e-06 0)
(-2.03557 -2.35941e-06 0)
(-2.02527 -2.32376e-06 0)
(-2.0151 -2.28891e-06 0)
(-2.00506 -2.25484e-06 0)
(-1.99515 -2.22154e-06 0)
(-1.98535 -2.18897e-06 0)
(-1.97568 -2.15711e-06 0)
(-1.96613 -2.12595e-06 0)
(-1.95669 -2.09546e-06 0)
(-1.94737 -2.06562e-06 0)
(-1.93815 -2.03642e-06 0)
(-1.92904 -2.00783e-06 0)
(-1.92004 -1.97984e-06 0)
(-1.91115 -1.95242e-06 0)
(-1.90235 -1.92558e-06 0)
(-1.89366 -1.89928e-06 0)
(-1.88506 -1.87351e-06 0)
(-1.87656 -1.84826e-06 0)
(-1.86816 -1.82352e-06 0)
(-1.85984 -1.79927e-06 0)
(-1.85162 -1.77549e-06 0)
(-1.84349 -1.75218e-06 0)
(-1.83544 -1.72932e-06 0)
(-1.82748 -1.70691e-06 0)
(-1.81961 -1.68492e-06 0)
(-1.81182 -1.66335e-06 0)
(-1.80411 -1.64218e-06 0)
(-1.79647 -1.62142e-06 0)
(-1.78892 -1.60104e-06 0)
(-1.78145 -1.58103e-06 0)
(-1.77404 -1.56139e-06 0)
(-1.76672 -1.54212e-06 0)
(-1.75947 -1.52319e-06 0)
(-1.75229 -1.5046e-06 0)
(-1.74518 -1.48634e-06 0)
(-1.73813 -1.46841e-06 0)
(-1.73116 -1.45079e-06 0)
(-1.72426 -1.43349e-06 0)
(-1.71742 -1.41648e-06 0)
(-1.71064 -1.39977e-06 0)
(-1.70393 -1.38335e-06 0)
(-1.69729 -1.36721e-06 0)
(-1.6907 -1.35134e-06 0)
(-1.68417 -1.33574e-06 0)
(-1.67771 -1.32041e-06 0)
(-1.6713 -1.30533e-06 0)
(-1.66496 -1.2905e-06 0)
(-1.65866 -1.27591e-06 0)
(-1.65243 -1.26156e-06 0)
(-1.64625 -1.24745e-06 0)
(-1.64013 -1.23357e-06 0)
(-1.63406 -1.21991e-06 0)
(-1.62804 -1.20647e-06 0)
(-1.62207 -1.19324e-06 0)
(-1.61616 -1.18023e-06 0)
(-1.61029 -1.16742e-06 0)
(-1.60448 -1.15482e-06 0)
(-1.59871 -1.14243e-06 0)
(-1.59299 -1.1301e-06 0)
(-1.58733 -1.11842e-06 0)
(-1.5817 -1.10632e-06 0)
(-1.57613 -1.09318e-06 0)
(-1.57092 -1.083e-06 0)
(-1.56601 -1.07478e-06 0)
(-1.5611 -1.06442e-06 0)
(-1.55619 -1.05374e-06 0)
(-1.55126 -1.04373e-06 0)
(-1.54634 -1.03369e-06 0)
(-1.54141 -1.02378e-06 0)
(-1.53647 -1.01393e-06 0)
(-1.53152 -1.00414e-06 0)
(-1.52657 -9.9441e-07 0)
(-1.52162 -9.84739e-07 0)
(-1.51666 -9.75126e-07 0)
(-1.5117 -9.65567e-07 0)
(-1.50673 -9.56065e-07 0)
(-1.50175 -9.46617e-07 0)
(-1.49678 -9.37224e-07 0)
(-1.4918 -9.27887e-07 0)
(-1.48681 -9.18605e-07 0)
(-1.48182 -9.09378e-07 0)
(-1.47683 -9.00208e-07 0)
(-1.47183 -8.91093e-07 0)
(-1.46683 -8.82034e-07 0)
(-1.46183 -8.73033e-07 0)
(-1.45683 -8.64087e-07 0)
(-1.45182 -8.55199e-07 0)
(-1.44681 -8.46368e-07 0)
(-1.4418 -8.37594e-07 0)
(-1.43679 -8.28878e-07 0)
(-1.43177 -8.20219e-07 0)
(-1.42675 -8.11619e-07 0)
(-1.42174 -8.03077e-07 0)
(-1.41672 -7.94593e-07 0)
(-1.4117 -7.86167e-07 0)
(-1.40668 -7.778e-07 0)
(-1.40166 -7.69492e-07 0)
(-1.39664 -7.61243e-07 0)
(-1.39162 -7.53053e-07 0)
(-1.3866 -7.44922e-07 0)
(-1.38158 -7.3685e-07 0)
(-1.37656 -7.28838e-07 0)
(-1.37154 -7.20884e-07 0)
(-1.36652 -7.12991e-07 0)
(-1.3615 -7.05156e-07 0)
(-1.35648 -6.97382e-07 0)
(-1.35147 -6.89667e-07 0)
(-1.34646 -6.82011e-07 0)
(-1.34145 -6.74415e-07 0)
(-1.33644 -6.66879e-07 0)
(-1.33143 -6.59402e-07 0)
(-1.32643 -6.51985e-07 0)
(-1.32143 -6.44628e-07 0)
(-1.31643 -6.3733e-07 0)
(-1.31143 -6.30091e-07 0)
(-1.30644 -6.22913e-07 0)
(-1.30145 -6.15793e-07 0)
(-1.29646 -6.08733e-07 0)
(-1.29148 -6.01732e-07 0)
(-1.2865 -5.9479e-07 0)
(-1.28153 -5.87908e-07 0)
(-1.27656 -5.81084e-07 0)
(-1.27159 -5.7432e-07 0)
(-1.26663 -5.67614e-07 0)
(-1.26167 -5.60967e-07 0)
(-1.25672 -5.54378e-07 0)
(-1.25178 -5.47848e-07 0)
(-1.24683 -5.41376e-07 0)
(-1.2419 -5.34962e-07 0)
(-1.23697 -5.28606e-07 0)
(-1.23204 -5.22307e-07 0)
(-1.22713 -5.16067e-07 0)
(-1.22221 -5.09884e-07 0)
(-1.21731 -5.03758e-07 0)
(-1.21241 -4.97689e-07 0)
(-1.20751 -4.91676e-07 0)
(-1.20263 -4.85721e-07 0)
(-1.19774 -4.79822e-07 0)
(-1.19287 -4.73979e-07 0)
(-1.18801 -4.68192e-07 0)
(-1.18315 -4.62461e-07 0)
(-1.17829 -4.56786e-07 0)
(-1.17345 -4.51165e-07 0)
(-1.16861 -4.456e-07 0)
(-1.16379 -4.4009e-07 0)
(-1.15897 -4.34634e-07 0)
(-1.15415 -4.29232e-07 0)
(-1.14935 -4.23884e-07 0)
(-1.14455 -4.1859e-07 0)
(-1.13977 -4.1335e-07 0)
(-1.13499 -4.08163e-07 0)
(-1.13022 -4.03028e-07 0)
(-1.12546 -3.97947e-07 0)
(-1.1207 -3.92917e-07 0)
(-1.11596 -3.8794e-07 0)
(-1.11123 -3.83014e-07 0)
(-1.1065 -3.7814e-07 0)
(-1.10179 -3.73317e-07 0)
(-1.09708 -3.68545e-07 0)
(-1.09239 -3.63824e-07 0)
(-1.0877 -3.59152e-07 0)
(-1.08302 -3.54531e-07 0)
(-1.07836 -3.49959e-07 0)
(-1.0737 -3.45436e-07 0)
(-1.06906 -3.40963e-07 0)
(-1.06442 -3.36538e-07 0)
(-1.0598 -3.32161e-07 0)
(-1.05518 -3.27832e-07 0)
(-1.05058 -3.23551e-07 0)
(-1.04599 -3.19317e-07 0)
(-1.04141 -3.1513e-07 0)
(-1.03684 -3.1099e-07 0)
(-1.03228 -3.06896e-07 0)
(-1.02773 -3.02848e-07 0)
(-1.02319 -2.98845e-07 0)
(-1.01867 -2.94888e-07 0)
(-1.01415 -2.90976e-07 0)
(-1.00965 -2.87108e-07 0)
(-1.00516 -2.83285e-07 0)
(-1.00068 -2.79505e-07 0)
(-0.996214 -2.75769e-07 0)
(-0.991758 -2.72076e-07 0)
(-0.987314 -2.68426e-07 0)
(-0.982883 -2.64819e-07 0)
(-0.978463 -2.61253e-07 0)
(-0.974056 -2.5773e-07 0)
(-0.969661 -2.54247e-07 0)
(-0.965278 -2.50806e-07 0)
(-0.960908 -2.47406e-07 0)
(-0.95655 -2.44046e-07 0)
(-0.952204 -2.40726e-07 0)
(-0.947871 -2.37446e-07 0)
(-0.943551 -2.34205e-07 0)
(-0.939243 -2.31003e-07 0)
(-0.934949 -2.27839e-07 0)
(-0.930667 -2.24714e-07 0)
(-0.926397 -2.21627e-07 0)
(-0.922141 -2.18578e-07 0)
(-0.917898 -2.15565e-07 0)
(-0.913668 -2.1259e-07 0)
(-0.909451 -2.09651e-07 0)
(-0.905247 -2.06748e-07 0)
(-0.901056 -2.03882e-07 0)
(-0.896879 -2.0105e-07 0)
(-0.892715 -1.98254e-07 0)
(-0.888564 -1.95493e-07 0)
(-0.884426 -1.92766e-07 0)
(-0.880302 -1.90074e-07 0)
(-0.876191 -1.87415e-07 0)
(-0.872094 -1.84789e-07 0)
(-0.868011 -1.82197e-07 0)
(-0.86394 -1.79638e-07 0)
(-0.859884 -1.77111e-07 0)
(-0.855841 -1.74616e-07 0)
(-0.851812 -1.72153e-07 0)
(-0.847796 -1.69722e-07 0)
(-0.843795 -1.67321e-07 0)
(-0.839807 -1.64952e-07 0)
(-0.835832 -1.62613e-07 0)
(-0.831872 -1.60304e-07 0)
(-0.827925 -1.58025e-07 0)
(-0.823993 -1.55776e-07 0)
(-0.820074 -1.53556e-07 0)
(-0.816169 -1.51365e-07 0)
(-0.812278 -1.49202e-07 0)
(-0.808401 -1.47068e-07 0)
(-0.804537 -1.44962e-07 0)
(-0.800688 -1.42883e-07 0)
(-0.796853 -1.40832e-07 0)
(-0.793032 -1.38808e-07 0)
(-0.789225 -1.3681e-07 0)
(-0.785431 -1.34839e-07 0)
(-0.781652 -1.32895e-07 0)
(-0.777887 -1.30976e-07 0)
(-0.774136 -1.29082e-07 0)
(-0.770399 -1.27213e-07 0)
(-0.766677 -1.25369e-07 0)
(-0.762968 -1.23548e-07 0)
(-0.759273 -1.21755e-07 0)
(-0.755593 -1.19979e-07 0)
(-0.751927 -1.18192e-07 0)
(-0.748277 -1.16553e-07 0)
(-0.744634 -1.14926e-07 0)
(-0.740601 -1.12939e-07 0)
(-0.736226 -1.10829e-07 0)
(-0.73193 -1.08929e-07 0)
(-0.727704 -1.0713e-07 0)
(-0.723549 -1.0532e-07 0)
(-0.719464 -1.03545e-07 0)
(-0.715448 -1.01816e-07 0)
(-0.711499 -1.00133e-07 0)
(-0.707614 -9.8495e-08 0)
(-0.703793 -9.69007e-08 0)
(-0.700033 -9.53487e-08 0)
(-0.696333 -9.38377e-08 0)
(-0.692692 -9.23662e-08 0)
(-0.689107 -9.09327e-08 0)
(-0.685578 -8.9536e-08 0)
(-0.682102 -8.81748e-08 0)
(-0.678679 -8.68477e-08 0)
(-0.675308 -8.55536e-08 0)
(-0.671986 -8.42914e-08 0)
(-0.668713 -8.306e-08 0)
(-0.665488 -8.18584e-08 0)
(-0.662309 -8.06854e-08 0)
(-0.659176 -7.95403e-08 0)
(-0.656086 -7.84221e-08 0)
(-0.65304 -7.73299e-08 0)
(-0.650036 -7.62628e-08 0)
(-0.647074 -7.52201e-08 0)
(-0.644152 -7.42011e-08 0)
(-0.641269 -7.32048e-08 0)
(-0.638424 -7.22308e-08 0)
(-0.635618 -7.12782e-08 0)
(-0.632848 -7.03465e-08 0)
(-0.630114 -6.94349e-08 0)
(-0.627416 -6.85429e-08 0)
(-0.624752 -6.767e-08 0)
(-0.622122 -6.68155e-08 0)
(-0.619525 -6.59789e-08 0)
(-0.61696 -6.51597e-08 0)
(-0.614427 -6.43574e-08 0)
(-0.611925 -6.35715e-08 0)
(-0.609453 -6.28016e-08 0)
(-0.607012 -6.20472e-08 0)
(-0.604599 -6.13078e-08 0)
(-0.602215 -6.05832e-08 0)
(-0.59986 -5.98728e-08 0)
(-0.597531 -5.91764e-08 0)
(-0.59523 -5.84934e-08 0)
(-0.592955 -5.78237e-08 0)
(-0.590706 -5.71667e-08 0)
(-0.588483 -5.65223e-08 0)
(-0.586284 -5.589e-08 0)
(-0.58411 -5.52696e-08 0)
(-0.58196 -5.46607e-08 0)
(-0.579834 -5.40632e-08 0)
(-0.577731 -5.34766e-08 0)
(-0.57565 -5.29008e-08 0)
(-0.573592 -5.23355e-08 0)
(-0.571556 -5.17804e-08 0)
(-0.569541 -5.12354e-08 0)
(-0.567547 -5.07001e-08 0)
(-0.565574 -5.01743e-08 0)
(-0.563622 -4.96579e-08 0)
(-0.561689 -4.91507e-08 0)
(-0.559777 -4.86524e-08 0)
(-0.557883 -4.8163e-08 0)
(-0.556009 -4.76821e-08 0)
(-0.554153 -4.72097e-08 0)
(-0.552315 -4.67456e-08 0)
(-0.550496 -4.62897e-08 0)
(-0.548694 -4.58419e-08 0)
(-0.546909 -4.54021e-08 0)
(-0.545142 -4.49701e-08 0)
(-0.543391 -4.4546e-08 0)
(-0.541657 -4.41297e-08 0)
(-0.539939 -4.37212e-08 0)
(-0.538236 -4.33206e-08 0)
(-0.536549 -4.29279e-08 0)
(-0.534878 -4.25435e-08 0)
(-0.533221 -4.21675e-08 0)
(-0.531579 -4.18004e-08 0)
(-0.529951 -4.14427e-08 0)
(-0.528337 -4.10956e-08 0)
(-0.526736 -4.07602e-08 0)
(-0.525148 -4.0438e-08 0)
(-0.523572 -4.01321e-08 0)
(-0.522008 -3.98549e-08 0)
(-0.520454 -3.95761e-08 0)
(-0.518912 -3.93552e-08 0)
(-0.517375 -3.94165e-08 0)
(-0.515828 -3.87341e-08 0)
(-0.514345 -3.7865e-08 0)
(-0.512866 -5.00355e-08 0)
(-0.51043 -1.40177e-08 0)
(-0.51178 -3.69457e-08 0)
(-0.507497 -5.56853e-08 0)
)
;
    }
    symmetry
    {
        type            symmetryPlane;
    }
    frontAndBack
    {
        type            empty;
    }
}


// ************************************************************************* //
