/*--------------------------------*- C++ -*----------------------------------*\
| =========                 |                                                 |
| \\      /  F ield         | OpenFOAM: The Open Source CFD Toolbox           |
|  \\    /   O peration     | Version:  v2012                                 |
|   \\  /    A nd           | Website:  www.openfoam.com                      |
|    \\/     M anipulation  |                                                 |
\*---------------------------------------------------------------------------*/
FoamFile
{
    version     2.0;
    format      ascii;
    class       volScalarField;
    location    "53.5";
    object      yPlus;
}
// * * * * * * * * * * * * * * * * * * * * * * * * * * * * * * * * * * * * * //

dimensions      [0 0 0 0 0 0 0];


internalField   uniform 0;

boundaryField
{
    inlet
    {
        type            calculated;
        value           uniform 0;
    }
    outlet
    {
        type            calculated;
        value           uniform 0;
    }
    topWall
    {
        type            calculated;
        value           nonuniform List<scalar> 
545
(
0.070835
0.12214
0.156688
0.184172
0.207426
0.227761
0.245909
0.262334
0.277351
0.291187
0.304011
0.315955
0.327124
0.337602
0.34746
0.356758
0.365544
0.373864
0.381754
0.389247
0.396372
0.403156
0.409621
0.415789
0.421679
0.427307
0.432689
0.437839
0.442772
0.447498
0.452029
0.456376
0.460548
0.464554
0.468402
0.4721
0.475656
0.479076
0.482366
0.485533
0.488583
0.49152
0.49435
0.497077
0.499706
0.502242
0.504687
0.507046
0.509323
0.511521
0.513643
0.515692
0.517671
0.519584
0.521431
0.523217
0.524944
0.526613
0.528228
0.529789
0.5313
0.532761
0.534176
0.535545
0.53687
0.538153
0.539395
0.540598
0.541764
0.542892
0.543986
0.545046
0.546059
0.547039
0.54801
0.548972
0.549926
0.550871
0.551807
0.552736
0.553656
0.554567
0.555471
0.556367
0.557255
0.558135
0.559008
0.559872
0.560729
0.561579
0.562421
0.563256
0.564084
0.564904
0.565718
0.566524
0.56725
0.567898
0.568546
0.569194
0.56984
0.570486
0.571132
0.571776
0.57242
0.573064
0.573706
0.574348
0.57499
0.57563
0.57627
0.576909
0.577547
0.578185
0.578822
0.579458
0.580093
0.580727
0.581361
0.581994
0.582626
0.583258
0.583888
0.584518
0.585147
0.585775
0.586402
0.587029
0.587654
0.588279
0.588903
0.589525
0.590147
0.590769
0.591389
0.592008
0.592627
0.593244
0.593861
0.594476
0.595091
0.595705
0.596317
0.596929
0.59754
0.59815
0.598758
0.599366
0.599973
0.600579
0.601183
0.601787
0.60239
0.602991
0.603592
0.604191
0.604789
0.605387
0.605983
0.606578
0.607172
0.607764
0.608356
0.608946
0.609536
0.610124
0.610711
0.611297
0.611881
0.612465
0.613047
0.613628
0.614208
0.614786
0.615363
0.615939
0.616514
0.617088
0.61766
0.618231
0.6188
0.619369
0.619936
0.620501
0.621065
0.621628
0.62219
0.62275
0.623309
0.623866
0.624422
0.624977
0.62553
0.626082
0.626632
0.627181
0.627729
0.628275
0.628819
0.629362
0.629904
0.630444
0.630982
0.631519
0.632055
0.632589
0.633121
0.633652
0.634181
0.634708
0.635234
0.635759
0.636282
0.636803
0.637322
0.63784
0.638356
0.638871
0.639384
0.639895
0.640404
0.640912
0.641418
0.641922
0.642425
0.642926
0.643425
0.643922
0.644417
0.644911
0.645403
0.645893
0.646381
0.646868
0.647352
0.647835
0.648316
0.648795
0.649272
0.649747
0.65022
0.650691
0.651161
0.651628
0.652094
0.652557
0.653019
0.653478
0.653936
0.654391
0.654845
0.655296
0.655746
0.656193
0.656638
0.657082
0.657523
0.657962
0.658399
0.658834
0.659267
0.659697
0.660126
0.660552
0.660976
0.661398
0.661818
0.662236
0.662651
0.663041
0.663408
0.663776
0.664146
0.664517
0.66489
0.665263
0.665638
0.666014
0.666391
0.666769
0.667148
0.667529
0.66791
0.668292
0.668675
0.669058
0.669443
0.669828
0.670214
0.6706
0.670987
0.671375
0.671762
0.67215
0.672539
0.672927
0.673316
0.673705
0.674093
0.674482
0.67487
0.675258
0.675646
0.676034
0.676421
0.676807
0.677192
0.677577
0.677961
0.678344
0.678726
0.679107
0.679486
0.679864
0.680241
0.680616
0.680989
0.681361
0.68173
0.682098
0.682463
0.682826
0.683187
0.683545
0.6839
0.684253
0.684602
0.684949
0.685292
0.685632
0.685968
0.686301
0.68663
0.686954
0.687275
0.687592
0.687904
0.688211
0.688513
0.688811
0.689103
0.689391
0.689672
0.689948
0.690218
0.690482
0.69074
0.690992
0.691237
0.691475
0.691706
0.69193
0.692147
0.692356
0.692557
0.69275
0.692935
0.693112
0.693279
0.693439
0.693589
0.693729
0.693861
0.693982
0.694094
0.694196
0.694287
0.694367
0.694437
0.694496
0.694543
0.694579
0.694603
0.694615
0.694615
0.694602
0.694577
0.694539
0.694488
0.694424
0.694346
0.694254
0.694148
0.694028
0.693893
0.693744
0.693579
0.6934
0.693205
0.692995
0.692769
0.692527
0.692269
0.691994
0.691703
0.691395
0.69107
0.690728
0.690369
0.689992
0.689598
0.689185
0.688755
0.688306
0.687839
0.687354
0.68685
0.686328
0.685786
0.685226
0.684646
0.684048
0.68343
0.682792
0.682136
0.68146
0.680764
0.680049
0.679314
0.678559
0.677785
0.676991
0.676177
0.675344
0.674491
0.673619
0.672727
0.671815
0.670884
0.669933
0.668964
0.667975
0.666967
0.66594
0.664894
0.66383
0.662747
0.661646
0.660527
0.65939
0.658235
0.657063
0.655874
0.654667
0.653444
0.652205
0.650949
0.649678
0.648391
0.647089
0.645625
0.644005
0.642386
0.640769
0.639154
0.637543
0.635937
0.634335
0.632739
0.63115
0.629567
0.627992
0.626426
0.624869
0.623321
0.621783
0.620255
0.618738
0.617233
0.615739
0.614258
0.612789
0.611333
0.609891
0.608462
0.607048
0.605647
0.604261
0.60289
0.601535
0.600194
0.59887
0.597561
0.596269
0.594993
0.593733
0.59249
0.591265
0.590057
0.588866
0.587692
0.586537
0.585399
0.58428
0.583179
0.582097
0.581033
0.579988
0.578962
0.577955
0.576967
0.575999
0.575051
0.574122
0.573213
0.572324
0.571455
0.570607
0.569779
0.568971
0.568184
0.567419
0.566674
0.56595
0.565248
0.564566
0.563907
0.563269
0.562653
0.562058
0.561486
0.560935
0.560407
0.559901
0.559418
0.558957
0.558519
0.558103
0.55771
0.55734
0.556993
0.556669
0.556368
0.556091
0.555836
0.555605
0.555397
0.555213
0.555052
0.554914
0.5548
0.55471
0.554642
0.554602
0.554572
)
;
    }
    bottomWall
    {
        type            calculated;
        value           nonuniform List<scalar> 
449
(
0.139438
0.0889526
0.0758034
0.0694323
0.0652496
0.0621236
0.059629
0.0575658
0.0558151
0.0542992
0.0529658
0.0517784
0.0507105
0.0497421
0.0488576
0.0480445
0.0472931
0.0465953
0.0459447
0.0453356
0.0447635
0.0442245
0.0437153
0.043233
0.0427751
0.0423395
0.0419242
0.0415275
0.0411481
0.0407845
0.0404357
0.0401005
0.0397779
0.0394673
0.0391677
0.0388784
0.0385989
0.0383285
0.0380667
0.0378131
0.0375671
0.0373283
0.0370964
0.036871
0.0366518
0.0364384
0.0362306
0.0360282
0.0358308
0.0356383
0.0354504
0.0352669
0.0350877
0.0349125
0.0347412
0.0345736
0.0344096
0.0342491
0.0340919
0.0339378
0.0337869
0.0336388
0.0334937
0.0333512
0.0332115
0.0330743
0.0329395
0.0328072
0.0326771
0.0325494
0.0324237
0.0323002
0.0321787
0.0320592
0.0319416
0.0318259
0.0317119
0.0315997
0.0314892
0.0313804
0.0312732
0.0311675
0.0310633
0.0309606
0.0308594
0.0307596
0.0306611
0.030564
0.0304681
0.0303735
0.0302802
0.030188
0.0300971
0.0300072
0.0299185
0.0298309
0.0297444
0.0296588
0.0295744
0.0294909
0.0294083
0.0293268
0.0292461
0.0291664
0.0290876
0.0290096
0.0289325
0.0288562
0.0287807
0.0287061
0.0286322
0.0285591
0.0284868
0.0284152
0.0283443
0.0282741
0.0282047
0.0281359
0.0280678
0.0280003
0.0279335
0.0278674
0.0278018
0.0277369
0.0276725
0.0276088
0.0275456
0.027483
0.027421
0.0273595
0.0272986
0.0272382
0.0271783
0.0271189
0.0270601
0.0270017
0.0269438
0.0268864
0.0268295
0.026773
0.026717
0.0266615
0.0266064
0.0265517
0.0264975
0.0264437
0.0263903
0.0263373
0.0262847
0.0262325
0.0261807
0.0261293
0.0260783
0.0260277
0.0259774
0.0259275
0.0258779
0.0258287
0.0257799
0.0257314
0.0256833
0.0256354
0.0255879
0.0255408
0.0254939
0.0254474
0.0254012
0.0253553
0.0253097
0.0252644
0.0252194
0.0251747
0.0251303
0.0250887
0.0250495
0.0250102
0.0249708
0.0249313
0.0248917
0.024852
0.0248121
0.0247722
0.0247321
0.0246919
0.0246517
0.0246113
0.0245708
0.0245302
0.0244895
0.0244488
0.0244079
0.0243669
0.0243258
0.0242846
0.0242433
0.024202
0.0241605
0.0241189
0.0240773
0.0240356
0.0239937
0.0239518
0.0239098
0.0238678
0.0238256
0.0237834
0.023741
0.0236986
0.0236561
0.0236136
0.0235709
0.0235282
0.0234854
0.0234426
0.0233997
0.0233567
0.0233136
0.0232705
0.0232273
0.023184
0.0231407
0.0230973
0.0230539
0.0230104
0.0229668
0.0229232
0.0228795
0.0228358
0.022792
0.0227481
0.0227043
0.0226603
0.0226163
0.0225723
0.0225282
0.0224841
0.0224399
0.0223957
0.0223515
0.0223072
0.0222629
0.0222185
0.0221741
0.0221297
0.0220852
0.0220407
0.0219962
0.0219516
0.0219071
0.0218625
0.0218178
0.0217731
0.0217285
0.0216838
0.021639
0.0215943
0.0215495
0.0215047
0.0214599
0.0214151
0.0213703
0.0213254
0.0212805
0.0212357
0.0211908
0.0211459
0.021101
0.0210561
0.0210112
0.0209663
0.0209214
0.0208764
0.0208315
0.0207866
0.0207417
0.0206968
0.0206519
0.0206069
0.020562
0.0205171
0.0204723
0.0204274
0.0203825
0.0203376
0.0202928
0.0202479
0.0202031
0.0201583
0.0201135
0.0200687
0.020024
0.0199792
0.0199345
0.0198898
0.0198451
0.0198004
0.0197558
0.0197111
0.0196666
0.019622
0.0195774
0.0195329
0.0194884
0.019444
0.0193995
0.0193551
0.0193107
0.0192664
0.0192221
0.0191778
0.0191336
0.0190894
0.0190452
0.0190011
0.018957
0.0189129
0.0188689
0.0188249
0.018781
0.0187371
0.0186932
0.0186494
0.0186056
0.0185619
0.0185182
0.0184746
0.018431
0.0183874
0.0183439
0.0183004
0.018257
0.0182137
0.0181704
0.0181271
0.0180839
0.0180407
0.0179976
0.0179546
0.0179116
0.0178686
0.0178257
0.0177829
0.0177401
0.0176974
0.0176547
0.0176121
0.0175695
0.017527
0.0174846
0.0174422
0.0173999
0.0173576
0.0173154
0.0172732
0.0172264
0.0171754
0.0171252
0.0170757
0.0170269
0.0169788
0.0169313
0.0168845
0.0168384
0.0167929
0.0167479
0.0167036
0.0166599
0.0166167
0.0165741
0.0165321
0.0164905
0.0164495
0.016409
0.016369
0.0163295
0.0162904
0.0162518
0.0162137
0.016176
0.0161388
0.016102
0.0160656
0.0160296
0.015994
0.0159588
0.015924
0.0158896
0.0158555
0.0158218
0.0157885
0.0157555
0.0157228
0.0156905
0.0156585
0.0156269
0.0155955
0.0155645
0.0155338
0.0155034
0.0154733
0.0154435
0.0154139
0.0153847
0.0153557
0.015327
0.0152985
0.0152703
0.0152424
0.0152147
0.0151873
0.0151602
0.0151332
0.0151065
0.0150801
0.0150538
0.0150278
0.015002
0.0149765
0.0149511
0.014926
0.014901
0.0148763
0.0148518
0.0148275
0.0148033
0.0147794
0.0147556
0.0147321
0.0147087
0.0146855
0.0146625
0.0146396
0.0146169
0.0145944
0.014572
0.0145498
0.0145278
0.0145058
0.0144841
0.0144624
0.0144409
0.0144195
0.0143981
0.0143765
0.0143559
0.0143352
0.0143011
0.01432
0.01426
)
;
    }
    symmetry
    {
        type            symmetryPlane;
    }
    frontAndBack
    {
        type            empty;
    }
}


// ************************************************************************* //
