/*--------------------------------*- C++ -*----------------------------------*\
| =========                 |                                                 |
| \\      /  F ield         | OpenFOAM: The Open Source CFD Toolbox           |
|  \\    /   O peration     | Version:  v2012                                 |
|   \\  /    A nd           | Website:  www.openfoam.com                      |
|    \\/     M anipulation  |                                                 |
\*---------------------------------------------------------------------------*/
FoamFile
{
    version     2.0;
    format      ascii;
    class       volScalarField;
    location    "33";
    object      epsilon;
}
// * * * * * * * * * * * * * * * * * * * * * * * * * * * * * * * * * * * * * //

dimensions      [0 2 -3 0 0 0 0];


internalField   nonuniform List<scalar> 
209825
(
0.755851
0.640282
0.570013
0.526464
0.497934
0.478221
0.463925
0.453217
0.444915
0.438371
0.43306
0.428726
0.425091
0.422048
0.419427
0.4172
0.415239
0.413554
0.412041
0.410731
0.409534
0.408493
0.407527
0.406688
0.405899
0.405212
0.404558
0.403993
0.40345
0.402976
0.402516
0.402126
0.401741
0.401414
0.401085
0.400817
0.400539
0.400307
0.400069
0.399877
0.399676
0.399526
0.399359
0.399223
0.399079
0.398982
0.398861
0.398765
0.398672
0.398615
0.398509
0.398448
0.398407
0.398373
0.398339
0.398249
0.398282
0.398293
0.398291
0.398383
0.398396
0.398396
0.398467
0.398521
0.398589
0.398695
0.398802
0.398902
0.398979
0.399106
0.399199
0.399351
0.399471
0.39965
0.399768
0.399981
0.400095
0.400337
0.400471
0.400752
0.400909
0.401239
0.401422
0.401802
0.402015
0.402458
0.402708
0.403236
0.403534
0.404194
0.404535
0.405574
0.405871
0.41128
2.98203
550.629
0.755852
0.640281
0.570007
0.526454
0.49792
0.478204
0.463906
0.453197
0.444893
0.438348
0.433037
0.428702
0.425066
0.422023
0.419402
0.417174
0.415213
0.413528
0.412014
0.410704
0.409507
0.408465
0.407499
0.40666
0.405871
0.405184
0.40453
0.403965
0.403421
0.402948
0.402488
0.402098
0.401713
0.401386
0.401056
0.400788
0.40051
0.400278
0.40004
0.399848
0.399647
0.399497
0.39933
0.399194
0.39905
0.398953
0.398831
0.398735
0.398643
0.398585
0.39848
0.398418
0.398378
0.398344
0.398309
0.39822
0.398252
0.398264
0.398262
0.398354
0.398367
0.398367
0.398437
0.398492
0.398559
0.398665
0.398772
0.398872
0.398949
0.399076
0.39917
0.399322
0.399441
0.399621
0.399739
0.399951
0.400065
0.400307
0.400441
0.400723
0.400879
0.401209
0.401392
0.401772
0.401985
0.402428
0.402678
0.403206
0.403504
0.404164
0.404504
0.405544
0.405841
0.411258
2.98697
547.309
0.755855
0.64027
0.569976
0.526405
0.497857
0.478131
0.463825
0.45311
0.444801
0.438252
0.432937
0.4286
0.424962
0.421917
0.419294
0.417065
0.415103
0.413416
0.411902
0.41059
0.409393
0.40835
0.407384
0.406544
0.405754
0.405067
0.404412
0.403847
0.403303
0.40283
0.402369
0.401978
0.401593
0.401266
0.400936
0.400668
0.40039
0.400157
0.399919
0.399727
0.399526
0.399375
0.399209
0.399072
0.398928
0.398831
0.39871
0.398613
0.398521
0.398463
0.398358
0.398296
0.398255
0.398221
0.398187
0.398097
0.398129
0.398141
0.398139
0.39823
0.398244
0.398244
0.398314
0.398368
0.398436
0.398542
0.398648
0.398748
0.398826
0.398953
0.399046
0.399198
0.399317
0.399496
0.399614
0.399826
0.399941
0.400182
0.400316
0.400598
0.400754
0.401084
0.401266
0.401647
0.401859
0.402302
0.402552
0.403079
0.403377
0.404037
0.404377
0.405416
0.405712
0.411146
2.99729
543.374
0.75586
0.640252
0.569923
0.526322
0.497751
0.478007
0.463688
0.452962
0.444645
0.438089
0.432769
0.428428
0.424786
0.421737
0.419112
0.416881
0.414916
0.413228
0.411712
0.410399
0.4092
0.408157
0.407189
0.406348
0.405558
0.40487
0.404214
0.403648
0.403104
0.40263
0.402168
0.401777
0.401392
0.401064
0.400734
0.400465
0.400187
0.399954
0.399716
0.399523
0.399322
0.399171
0.399004
0.398867
0.398723
0.398626
0.398504
0.398408
0.398315
0.398257
0.398152
0.39809
0.398049
0.398015
0.39798
0.39789
0.397922
0.397933
0.397931
0.398023
0.398036
0.398036
0.398106
0.39816
0.398228
0.398333
0.39844
0.398539
0.398617
0.398743
0.398836
0.398988
0.399107
0.399286
0.399404
0.399616
0.39973
0.399972
0.400105
0.400387
0.400543
0.400872
0.401055
0.401435
0.401647
0.402089
0.402339
0.402866
0.403163
0.403822
0.404162
0.405201
0.405495
0.410954
3.01341
539.603
0.755867
0.640226
0.569849
0.526205
0.497601
0.477832
0.463494
0.452753
0.444425
0.43786
0.432532
0.428184
0.424537
0.421484
0.418854
0.41662
0.414653
0.412962
0.411443
0.410128
0.408928
0.407883
0.406913
0.406071
0.40528
0.404591
0.403934
0.403367
0.402822
0.402347
0.401885
0.401493
0.401107
0.400779
0.400448
0.400179
0.3999
0.399667
0.399428
0.399235
0.399033
0.398882
0.398714
0.398578
0.398433
0.398335
0.398213
0.398117
0.398024
0.397966
0.39786
0.397798
0.397757
0.397723
0.397688
0.397598
0.397629
0.39764
0.397638
0.397729
0.397742
0.397742
0.397812
0.397866
0.397933
0.398038
0.398145
0.398244
0.398321
0.398448
0.39854
0.398692
0.398811
0.39899
0.399107
0.399319
0.399433
0.399674
0.399808
0.400088
0.400244
0.400573
0.400755
0.401135
0.401347
0.401789
0.402038
0.402564
0.402861
0.403519
0.403858
0.404896
0.405188
0.410683
3.0358
536.343
0.755877
0.640192
0.569752
0.526053
0.497406
0.477605
0.463242
0.452483
0.444139
0.437562
0.432224
0.427868
0.424214
0.421155
0.418521
0.416282
0.414311
0.412617
0.411095
0.409778
0.408575
0.407528
0.406556
0.405713
0.40492
0.404229
0.403571
0.403003
0.402456
0.401981
0.401517
0.401125
0.400738
0.400409
0.400077
0.399807
0.399528
0.399294
0.399055
0.398861
0.398659
0.398507
0.398339
0.398202
0.398057
0.397959
0.397837
0.39774
0.397646
0.397588
0.397483
0.39742
0.397378
0.397344
0.397309
0.397219
0.39725
0.39726
0.397257
0.397348
0.39736
0.39736
0.39743
0.397484
0.397551
0.397656
0.397762
0.397862
0.397938
0.398064
0.398157
0.398308
0.398426
0.398605
0.398723
0.398934
0.399048
0.399288
0.399422
0.399702
0.399857
0.400186
0.400367
0.400746
0.400958
0.401399
0.401648
0.402173
0.402469
0.403126
0.403464
0.404501
0.40479
0.410331
3.06489
533.757
0.755888
0.64015
0.569634
0.525867
0.497167
0.477326
0.462933
0.452149
0.443788
0.437195
0.431845
0.427479
0.423817
0.42075
0.41811
0.415866
0.41389
0.412191
0.410666
0.409346
0.40814
0.40709
0.406116
0.405271
0.404476
0.403783
0.403124
0.402554
0.402006
0.401529
0.401065
0.400671
0.400283
0.399953
0.399621
0.39935
0.39907
0.398835
0.398595
0.398401
0.398198
0.398045
0.397877
0.397739
0.397593
0.397495
0.397372
0.397275
0.397181
0.397123
0.397017
0.396954
0.396912
0.396877
0.396842
0.396751
0.396782
0.396791
0.396788
0.396878
0.396891
0.396891
0.39696
0.397013
0.39708
0.397185
0.39729
0.39739
0.397466
0.397592
0.397684
0.397835
0.397953
0.398131
0.398248
0.398459
0.398572
0.398812
0.398946
0.399225
0.39938
0.399708
0.399889
0.400267
0.400478
0.400918
0.401167
0.40169
0.401986
0.402641
0.402978
0.404014
0.4043
0.409897
3.10115
531.903
0.755902
0.640102
0.569493
0.525645
0.496882
0.476994
0.462564
0.451753
0.443369
0.436758
0.431394
0.427015
0.423343
0.420268
0.41762
0.415369
0.413388
0.411685
0.410155
0.408831
0.407622
0.406569
0.405592
0.404744
0.403947
0.403252
0.40259
0.402019
0.40147
0.400991
0.400525
0.40013
0.399741
0.39941
0.399076
0.398804
0.398523
0.398288
0.398047
0.397852
0.397648
0.397495
0.397326
0.397188
0.397041
0.396942
0.396819
0.396722
0.396627
0.396568
0.396462
0.396398
0.396356
0.396321
0.396285
0.396194
0.396224
0.396233
0.39623
0.396319
0.396331
0.396331
0.3964
0.396453
0.39652
0.396623
0.396728
0.396828
0.396903
0.397029
0.397121
0.397271
0.397388
0.397567
0.397683
0.397893
0.398006
0.398246
0.398378
0.398657
0.398812
0.399138
0.399319
0.399696
0.399907
0.400346
0.400593
0.401115
0.40141
0.402064
0.402399
0.403433
0.403716
0.409381
3.14504
530.771
0.755919
0.640045
0.56933
0.525388
0.496552
0.476608
0.462136
0.451292
0.442882
0.436251
0.430869
0.426477
0.422792
0.419707
0.417051
0.414793
0.412805
0.411096
0.409561
0.408232
0.407019
0.405963
0.404983
0.404132
0.403331
0.402635
0.401971
0.401397
0.400846
0.400365
0.399898
0.399501
0.39911
0.398778
0.398443
0.39817
0.397888
0.397651
0.39741
0.397214
0.397009
0.396855
0.396685
0.396546
0.396399
0.3963
0.396176
0.396078
0.395982
0.395923
0.395817
0.395752
0.395709
0.395673
0.395638
0.395547
0.395576
0.395584
0.39558
0.395668
0.39568
0.39568
0.395749
0.395801
0.395867
0.39597
0.396075
0.396174
0.396249
0.396374
0.396465
0.396615
0.396732
0.39691
0.397025
0.397235
0.397348
0.397586
0.397719
0.397996
0.398151
0.398476
0.398657
0.399032
0.399242
0.39968
0.399926
0.400447
0.400741
0.401392
0.401726
0.402758
0.403036
0.408781
3.19698
530.299
0.755937
0.639981
0.569145
0.525095
0.496175
0.476168
0.461648
0.450766
0.442326
0.435671
0.43027
0.425861
0.422163
0.419067
0.4164
0.414134
0.412139
0.410423
0.408883
0.407549
0.406331
0.40527
0.404287
0.403432
0.402629
0.401929
0.401262
0.400686
0.400133
0.399651
0.399181
0.398783
0.39839
0.398056
0.39772
0.397446
0.397162
0.396924
0.396682
0.396485
0.396279
0.396124
0.395953
0.395814
0.395666
0.395565
0.395441
0.395342
0.395246
0.395186
0.395079
0.395014
0.394971
0.394934
0.394899
0.394807
0.394835
0.394842
0.394837
0.394925
0.394936
0.394936
0.395004
0.395056
0.395122
0.395224
0.395328
0.395428
0.395501
0.395626
0.395717
0.395866
0.395982
0.396159
0.396274
0.396484
0.396596
0.396833
0.396965
0.397242
0.397395
0.39772
0.3979
0.398274
0.398483
0.398919
0.399165
0.399683
0.399976
0.400625
0.400957
0.401987
0.40226
0.408098
3.25739
530.39
0.755958
0.63991
0.568938
0.524767
0.495752
0.475673
0.461099
0.450174
0.441701
0.435019
0.429596
0.425169
0.421456
0.418346
0.415669
0.413392
0.411389
0.409666
0.408119
0.406779
0.405556
0.404491
0.403503
0.402644
0.401838
0.401135
0.400465
0.399886
0.39933
0.398846
0.398374
0.397974
0.397579
0.397244
0.396906
0.39663
0.396345
0.396106
0.395862
0.395664
0.395457
0.395301
0.395129
0.394989
0.394839
0.394738
0.394613
0.394514
0.394417
0.394356
0.394249
0.394183
0.394139
0.394102
0.394066
0.393974
0.394001
0.394007
0.394001
0.394088
0.394098
0.394098
0.394166
0.394217
0.394283
0.394384
0.394487
0.394587
0.39466
0.394784
0.394874
0.395023
0.395137
0.395314
0.395429
0.395637
0.395749
0.395985
0.396116
0.396392
0.396545
0.396868
0.397047
0.39742
0.397628
0.398062
0.398307
0.398823
0.399115
0.399761
0.400091
0.401119
0.401387
0.40733
3.32667
530.921
0.755982
0.639832
0.568709
0.524402
0.495283
0.475124
0.460488
0.449517
0.441006
0.434294
0.428846
0.424399
0.420668
0.417544
0.414854
0.412567
0.410554
0.408823
0.407269
0.405922
0.404694
0.403623
0.40263
0.401767
0.400957
0.40025
0.399577
0.398996
0.398437
0.39795
0.397476
0.397073
0.396677
0.396339
0.395999
0.395722
0.395435
0.395195
0.394949
0.39475
0.394541
0.394384
0.394211
0.39407
0.39392
0.393818
0.393691
0.393591
0.393493
0.393432
0.393325
0.393258
0.393213
0.393175
0.393139
0.393046
0.393072
0.393077
0.393071
0.393156
0.393165
0.393165
0.393233
0.393283
0.393348
0.393448
0.393551
0.39365
0.393722
0.393846
0.393935
0.394083
0.394197
0.394373
0.394487
0.394694
0.394806
0.395041
0.395171
0.395446
0.395598
0.395919
0.396097
0.396469
0.396676
0.397108
0.397352
0.397865
0.398155
0.398799
0.399127
0.400152
0.400414
0.406477
3.40514
531.759
0.756007
0.639747
0.568458
0.524002
0.494767
0.47452
0.459816
0.448792
0.44024
0.433494
0.428019
0.423549
0.4198
0.41666
0.413956
0.411657
0.409633
0.407893
0.406331
0.404977
0.403742
0.402666
0.401668
0.4008
0.399985
0.399275
0.398598
0.398013
0.397451
0.396961
0.396484
0.39608
0.395681
0.395341
0.394999
0.39472
0.394431
0.394189
0.393942
0.393741
0.393532
0.393373
0.393199
0.393056
0.392905
0.392802
0.392675
0.392574
0.392475
0.392413
0.392305
0.392237
0.392191
0.392153
0.392116
0.392023
0.392047
0.392051
0.392044
0.392128
0.392137
0.392136
0.392204
0.392253
0.392317
0.392416
0.392518
0.392617
0.392688
0.392811
0.392899
0.393047
0.39316
0.393335
0.393448
0.393655
0.393765
0.393999
0.394129
0.394402
0.394553
0.394873
0.39505
0.395419
0.395625
0.396055
0.396298
0.396809
0.397097
0.397737
0.398064
0.399085
0.399341
0.405537
3.49309
532.759
0.756036
0.639655
0.568185
0.523567
0.494204
0.47386
0.459082
0.448
0.439403
0.43262
0.427115
0.422621
0.41885
0.415693
0.412973
0.410661
0.408626
0.406876
0.405305
0.403943
0.402701
0.401618
0.400615
0.399742
0.398922
0.398207
0.397527
0.396938
0.396373
0.39588
0.3954
0.394992
0.394591
0.394249
0.393905
0.393623
0.393333
0.393089
0.39284
0.392638
0.392426
0.392266
0.392091
0.391947
0.391794
0.39169
0.391562
0.39146
0.39136
0.391297
0.391189
0.39112
0.391073
0.391034
0.390996
0.390902
0.390925
0.390928
0.39092
0.391003
0.39101
0.39101
0.391077
0.391125
0.391189
0.391286
0.391387
0.391486
0.391556
0.391678
0.391766
0.391912
0.392024
0.392198
0.39231
0.392516
0.392626
0.392859
0.392988
0.393259
0.393409
0.393727
0.393903
0.394271
0.394476
0.394903
0.395144
0.395653
0.395939
0.396576
0.396899
0.397918
0.398167
0.40451
3.5907
533.779
0.756067
0.639557
0.56789
0.523096
0.493593
0.473144
0.458286
0.447141
0.438493
0.431671
0.426133
0.421611
0.417818
0.414641
0.411906
0.409579
0.407532
0.40577
0.404189
0.402819
0.401569
0.400479
0.39947
0.398591
0.397766
0.397047
0.396362
0.395769
0.3952
0.394704
0.394221
0.39381
0.393406
0.393061
0.392715
0.392431
0.392138
0.391893
0.391642
0.391438
0.391225
0.391063
0.390886
0.390741
0.390587
0.390481
0.390352
0.390249
0.390147
0.390084
0.389975
0.389905
0.389857
0.389817
0.389779
0.389684
0.389705
0.389708
0.389698
0.389779
0.389786
0.389786
0.389852
0.389898
0.389962
0.390058
0.390158
0.390257
0.390325
0.390446
0.390533
0.390678
0.390789
0.390963
0.391073
0.391278
0.391387
0.391619
0.391747
0.392016
0.392166
0.392481
0.392657
0.393022
0.393225
0.39365
0.39389
0.394395
0.39468
0.395313
0.395634
0.396649
0.396891
0.403395
3.6981
534.68
0.7561
0.639452
0.567575
0.522589
0.492936
0.472372
0.457426
0.446213
0.437512
0.430646
0.425073
0.420521
0.416703
0.413506
0.410752
0.40841
0.406349
0.404575
0.402984
0.401604
0.400346
0.399249
0.398232
0.397348
0.396517
0.395792
0.395103
0.394506
0.393932
0.393432
0.392946
0.392532
0.392125
0.391777
0.391428
0.391142
0.390847
0.390599
0.390346
0.39014
0.389925
0.389762
0.389583
0.389437
0.389281
0.389174
0.389044
0.38894
0.388837
0.388772
0.388663
0.388592
0.388542
0.388501
0.388463
0.388368
0.388386
0.388388
0.388376
0.388456
0.388462
0.388461
0.388527
0.388572
0.388635
0.38873
0.388829
0.388927
0.388994
0.389115
0.3892
0.389345
0.389454
0.389627
0.389736
0.38994
0.390048
0.390278
0.390405
0.390673
0.390821
0.391135
0.391309
0.391671
0.391874
0.392296
0.392534
0.393036
0.393319
0.393947
0.394265
0.395277
0.395511
0.402191
3.81524
535.335
0.756136
0.639341
0.567238
0.522047
0.492233
0.471545
0.456504
0.445218
0.436458
0.429545
0.423933
0.41935
0.415505
0.412285
0.409511
0.407153
0.405077
0.403291
0.401688
0.400298
0.399031
0.397925
0.396901
0.39601
0.395173
0.394443
0.393748
0.393147
0.392569
0.392065
0.391575
0.391158
0.390747
0.390397
0.390044
0.389755
0.389458
0.389208
0.388953
0.388745
0.388528
0.388363
0.388182
0.388035
0.387877
0.387768
0.387637
0.387532
0.387427
0.387361
0.387251
0.387179
0.387128
0.387086
0.387047
0.386951
0.386968
0.386968
0.386955
0.387033
0.387038
0.387037
0.387102
0.387146
0.387208
0.387301
0.387399
0.387497
0.387563
0.387682
0.387766
0.38791
0.388018
0.388189
0.388298
0.3885
0.388607
0.388836
0.388962
0.389227
0.389375
0.389686
0.389859
0.390219
0.39042
0.390839
0.391075
0.391573
0.391854
0.392478
0.392793
0.393802
0.394027
0.400896
3.94198
535.626
0.756175
0.639224
0.56688
0.521469
0.491482
0.470662
0.455519
0.444153
0.43533
0.428367
0.422714
0.418096
0.414223
0.410978
0.408184
0.405807
0.403715
0.401915
0.4003
0.3989
0.397622
0.396508
0.395476
0.394578
0.393734
0.392999
0.392298
0.391691
0.391109
0.390601
0.390106
0.389686
0.389271
0.388918
0.388563
0.388271
0.387971
0.387719
0.387461
0.387251
0.387031
0.386864
0.386682
0.386533
0.386373
0.386263
0.38613
0.386024
0.385917
0.38585
0.385739
0.385666
0.385614
0.38557
0.385531
0.385435
0.385448
0.385448
0.385433
0.385509
0.385513
0.385512
0.385575
0.385618
0.385679
0.385771
0.385867
0.385965
0.386029
0.386147
0.386231
0.386373
0.38648
0.38665
0.386757
0.386958
0.387064
0.387291
0.387416
0.387679
0.387826
0.388134
0.388306
0.388663
0.388862
0.389278
0.389513
0.390007
0.390286
0.390905
0.391216
0.392221
0.392438
0.39951
4.07798
535.452
0.756216
0.639102
0.566502
0.520858
0.490685
0.469722
0.454471
0.44302
0.43413
0.427112
0.421415
0.41676
0.412856
0.409585
0.406769
0.404372
0.402264
0.400449
0.398821
0.397408
0.396121
0.394997
0.393957
0.393051
0.3922
0.391458
0.390751
0.390139
0.389552
0.389039
0.38854
0.388116
0.387697
0.387341
0.386982
0.386687
0.386384
0.386129
0.385869
0.385657
0.385435
0.385266
0.385081
0.38493
0.384769
0.384657
0.384522
0.384415
0.384307
0.384238
0.384127
0.384052
0.383998
0.383953
0.383913
0.383817
0.383827
0.383826
0.383809
0.383883
0.383886
0.383884
0.383947
0.383988
0.384048
0.384138
0.384234
0.384331
0.384393
0.38451
0.384592
0.384733
0.384839
0.385008
0.385113
0.385313
0.385418
0.385642
0.385767
0.386028
0.386173
0.386479
0.386649
0.387003
0.387201
0.387614
0.387846
0.388336
0.388612
0.389227
0.389535
0.390536
0.390744
0.398031
4.22273
534.724
0.75626
0.638974
0.566104
0.520211
0.489841
0.468728
0.45336
0.441818
0.432856
0.425781
0.420036
0.415342
0.411405
0.408106
0.405265
0.402848
0.400721
0.398891
0.397248
0.395824
0.394525
0.393391
0.392342
0.391427
0.390569
0.389821
0.389108
0.38849
0.387897
0.38738
0.386876
0.386447
0.386025
0.385664
0.385302
0.385004
0.384698
0.38444
0.384177
0.383962
0.383738
0.383566
0.38338
0.383227
0.383064
0.38295
0.382814
0.382705
0.382594
0.382525
0.382412
0.382336
0.38228
0.382234
0.382193
0.382097
0.382104
0.382102
0.382083
0.382154
0.382156
0.382154
0.382216
0.382255
0.382315
0.382402
0.382497
0.382593
0.382654
0.38277
0.382851
0.38299
0.383094
0.383262
0.383366
0.383564
0.383668
0.38389
0.384013
0.384272
0.384416
0.384719
0.384887
0.385238
0.385435
0.385844
0.386074
0.38656
0.386833
0.387443
0.387747
0.388744
0.388942
0.396459
4.37547
533.366
0.756306
0.638842
0.565687
0.519531
0.488952
0.467678
0.452186
0.440548
0.431509
0.424372
0.418576
0.413841
0.409868
0.40654
0.403673
0.401234
0.399088
0.397241
0.395583
0.394145
0.392834
0.39169
0.390631
0.389708
0.388842
0.388086
0.387366
0.386742
0.386144
0.385621
0.385113
0.384679
0.384252
0.383888
0.383522
0.383221
0.382911
0.382651
0.382385
0.382167
0.38194
0.381766
0.381577
0.381422
0.381257
0.381141
0.381003
0.380892
0.38078
0.380709
0.380596
0.380518
0.38046
0.380413
0.380371
0.380274
0.380279
0.380275
0.380253
0.380322
0.380324
0.380321
0.380382
0.380419
0.380478
0.380563
0.380656
0.380752
0.380811
0.380926
0.381005
0.381143
0.381245
0.381411
0.381514
0.38171
0.381814
0.382034
0.382155
0.382411
0.382554
0.382854
0.383021
0.383369
0.383563
0.383968
0.384196
0.384678
0.384949
0.385553
0.385853
0.386845
0.387034
0.39479
4.53521
531.321
0.756355
0.638705
0.565251
0.518818
0.488017
0.466572
0.450949
0.439208
0.430088
0.422885
0.417036
0.412256
0.408247
0.404886
0.401993
0.39953
0.397364
0.395498
0.393825
0.392373
0.391049
0.389894
0.388824
0.387892
0.387017
0.386254
0.385527
0.384896
0.384291
0.383764
0.38325
0.382812
0.38238
0.382012
0.381642
0.381336
0.381024
0.38076
0.380491
0.380271
0.380041
0.379864
0.379672
0.379516
0.379348
0.37923
0.37909
0.378978
0.378863
0.378791
0.378676
0.378597
0.378537
0.378488
0.378446
0.378349
0.37835
0.378345
0.378321
0.378387
0.378388
0.378384
0.378444
0.378479
0.378537
0.37862
0.378711
0.378807
0.378863
0.378977
0.379055
0.379192
0.379292
0.379456
0.379558
0.379752
0.379854
0.380072
0.380192
0.380445
0.380586
0.380883
0.381048
0.381393
0.381585
0.381986
0.382212
0.382689
0.382957
0.383555
0.383851
0.384839
0.385019
0.393025
4.70069
528.544
0.756407
0.638564
0.564797
0.518072
0.487037
0.465412
0.44965
0.437801
0.428595
0.421322
0.415416
0.410589
0.406539
0.403146
0.400223
0.397736
0.395548
0.393663
0.391973
0.390506
0.389169
0.388002
0.386921
0.385979
0.385095
0.384323
0.383589
0.382952
0.38234
0.381807
0.381287
0.380844
0.380408
0.380035
0.379661
0.379351
0.379035
0.378768
0.378495
0.378272
0.378039
0.37786
0.377665
0.377507
0.377336
0.377216
0.377074
0.37696
0.376844
0.376769
0.376654
0.376572
0.376511
0.37646
0.376417
0.37632
0.376318
0.376312
0.376284
0.376347
0.376348
0.376343
0.376401
0.376434
0.376491
0.376572
0.376662
0.376757
0.376811
0.376923
0.377
0.377135
0.377233
0.377396
0.377496
0.377688
0.377789
0.378004
0.378123
0.378373
0.378513
0.378806
0.37897
0.37931
0.379501
0.379898
0.380122
0.380593
0.380858
0.38145
0.381742
0.382725
0.382895
0.39116
4.87036
524.999
0.756461
0.638419
0.564326
0.517294
0.486013
0.464198
0.448289
0.436325
0.427028
0.419682
0.413716
0.408838
0.404747
0.401318
0.398365
0.395851
0.39364
0.391735
0.390027
0.388544
0.387193
0.386013
0.384921
0.383969
0.383075
0.382295
0.381553
0.380908
0.38029
0.37975
0.379225
0.378776
0.378334
0.377957
0.377578
0.377265
0.376945
0.376674
0.376398
0.376172
0.375936
0.375753
0.375556
0.375395
0.375222
0.375099
0.374955
0.374839
0.374721
0.374644
0.374528
0.374444
0.374381
0.374328
0.374284
0.374187
0.374182
0.374174
0.374143
0.374203
0.374203
0.374198
0.374254
0.374284
0.374341
0.374419
0.374508
0.374602
0.374653
0.374764
0.374839
0.374973
0.375069
0.37523
0.375328
0.375518
0.375618
0.37583
0.375948
0.376195
0.376333
0.376623
0.376785
0.377121
0.37731
0.377702
0.377924
0.37839
0.378652
0.379238
0.379525
0.380503
0.380663
0.389194
5.04233
520.662
0.756518
0.63827
0.563837
0.516485
0.484946
0.462931
0.446867
0.434782
0.425388
0.417964
0.411935
0.407005
0.402869
0.399403
0.396418
0.393876
0.39164
0.389715
0.387988
0.386488
0.385122
0.383929
0.382825
0.381861
0.380958
0.380168
0.379418
0.378765
0.37814
0.377593
0.377062
0.376608
0.376161
0.375779
0.375395
0.375077
0.374753
0.374479
0.374198
0.373969
0.37373
0.373544
0.373344
0.37318
0.373004
0.372879
0.372733
0.372615
0.372494
0.372416
0.372298
0.372213
0.372147
0.372093
0.372047
0.37195
0.371941
0.371931
0.371898
0.371954
0.371954
0.371948
0.372002
0.37203
0.372086
0.372162
0.372248
0.372341
0.37239
0.372499
0.372573
0.372705
0.372799
0.372958
0.373054
0.373242
0.37334
0.37355
0.373666
0.373911
0.374046
0.374333
0.374493
0.374825
0.375011
0.375399
0.375618
0.376079
0.376338
0.376917
0.377199
0.378172
0.378323
0.387125
5.21441
515.514
0.756578
0.638119
0.563332
0.515645
0.483835
0.46161
0.445384
0.433171
0.423676
0.416171
0.410074
0.405089
0.400907
0.397401
0.394382
0.391811
0.38955
0.387601
0.385855
0.384338
0.382956
0.381748
0.380631
0.379656
0.378742
0.377943
0.377184
0.376523
0.37589
0.375337
0.374799
0.374339
0.373886
0.373499
0.37311
0.372788
0.372459
0.372181
0.371897
0.371664
0.371421
0.371232
0.371029
0.370863
0.370684
0.370556
0.370407
0.370288
0.370164
0.370084
0.369964
0.369877
0.369809
0.369753
0.369706
0.369609
0.369596
0.369585
0.369549
0.3696
0.3696
0.369593
0.369645
0.36967
0.369726
0.369798
0.369883
0.369975
0.370021
0.370129
0.370201
0.370331
0.370423
0.37058
0.370674
0.37086
0.370957
0.371164
0.371278
0.37152
0.371653
0.371936
0.372094
0.372422
0.372606
0.372989
0.373205
0.37366
0.373916
0.374488
0.374766
0.375733
0.375874
0.38495
5.38409
509.541
0.75664
0.637965
0.562812
0.514776
0.482683
0.460237
0.44384
0.431494
0.421893
0.414301
0.408134
0.403091
0.398859
0.395312
0.392257
0.389656
0.387367
0.385396
0.383628
0.382093
0.380694
0.379472
0.378341
0.377354
0.376429
0.37562
0.374851
0.374182
0.373541
0.372981
0.372436
0.371969
0.37151
0.371118
0.370724
0.370397
0.370063
0.369781
0.369493
0.369257
0.36901
0.368817
0.368611
0.368442
0.36826
0.36813
0.367978
0.367857
0.36773
0.367648
0.367527
0.367438
0.367367
0.367309
0.367261
0.367163
0.367147
0.367134
0.367094
0.367142
0.367142
0.367133
0.367183
0.367205
0.36726
0.36733
0.367412
0.367503
0.367547
0.367653
0.367723
0.367851
0.367941
0.368097
0.368189
0.368372
0.368467
0.368671
0.368784
0.369022
0.369154
0.369432
0.369588
0.369912
0.370093
0.370471
0.370685
0.371134
0.371386
0.371952
0.372224
0.373185
0.373317
0.382667
5.54851
502.729
0.756705
0.63781
0.562277
0.513879
0.48149
0.458814
0.442238
0.429751
0.420038
0.412356
0.406116
0.40101
0.396728
0.393137
0.390044
0.387411
0.385094
0.383098
0.381308
0.379753
0.378337
0.3771
0.375955
0.374955
0.374018
0.373199
0.37242
0.371742
0.371092
0.370525
0.369973
0.3695
0.369034
0.368636
0.368237
0.367905
0.367566
0.36728
0.366987
0.366747
0.366496
0.3663
0.36609
0.365919
0.365734
0.3656
0.365446
0.365322
0.365193
0.365108
0.364986
0.364894
0.364822
0.364761
0.364712
0.364613
0.364593
0.364578
0.364536
0.364579
0.364579
0.364568
0.364616
0.364635
0.364689
0.364756
0.364837
0.364926
0.364967
0.365072
0.36514
0.365266
0.365353
0.365507
0.365597
0.365777
0.365871
0.366072
0.366183
0.366417
0.366547
0.366822
0.366975
0.367295
0.367473
0.367846
0.368057
0.3685
0.368748
0.369307
0.369574
0.370529
0.370651
0.380273
5.70452
495.065
0.756772
0.637652
0.561729
0.512954
0.480256
0.45734
0.440577
0.427943
0.418113
0.410337
0.404019
0.398849
0.394512
0.390876
0.387744
0.385077
0.38273
0.380708
0.378896
0.37732
0.375886
0.374632
0.373473
0.37246
0.37151
0.37068
0.369891
0.369203
0.368545
0.36797
0.36741
0.36693
0.366458
0.366054
0.365649
0.365311
0.364968
0.364677
0.36438
0.364136
0.363881
0.363681
0.363467
0.363293
0.363104
0.362968
0.362811
0.362685
0.362552
0.362465
0.362341
0.362247
0.362172
0.362109
0.362058
0.36196
0.361936
0.361919
0.361873
0.361912
0.361912
0.361899
0.361945
0.361961
0.362014
0.362077
0.362156
0.362244
0.362282
0.362385
0.362451
0.362575
0.36266
0.362811
0.362899
0.363076
0.363169
0.363367
0.363476
0.363706
0.363834
0.364104
0.364255
0.36457
0.364746
0.365114
0.365321
0.365758
0.366002
0.366554
0.366816
0.367764
0.367878
0.377766
5.8487
486.534
0.756842
0.637494
0.561168
0.512002
0.478985
0.455817
0.438859
0.426071
0.416119
0.408243
0.401844
0.396607
0.392214
0.388529
0.385357
0.382654
0.380277
0.378227
0.376391
0.374794
0.373341
0.37207
0.370895
0.369868
0.368906
0.368064
0.367264
0.366567
0.365899
0.365315
0.364748
0.364261
0.363782
0.363372
0.36296
0.362617
0.362268
0.361973
0.361671
0.361423
0.361164
0.36096
0.360742
0.360565
0.360373
0.360233
0.360073
0.359944
0.359809
0.359719
0.359593
0.359497
0.359419
0.359353
0.359301
0.359202
0.359174
0.359156
0.359106
0.359141
0.35914
0.359126
0.359169
0.359182
0.359234
0.359294
0.35937
0.359457
0.359492
0.359593
0.359656
0.359779
0.359861
0.36001
0.360095
0.36027
0.360361
0.360555
0.360662
0.360889
0.361015
0.361281
0.361429
0.361739
0.361913
0.362275
0.362479
0.362909
0.36315
0.363693
0.36395
0.364891
0.364996
0.375143
5.97742
477.114
0.756914
0.637335
0.560596
0.511026
0.477675
0.454246
0.437084
0.424136
0.414056
0.406077
0.399593
0.394286
0.389834
0.386099
0.382883
0.380143
0.377734
0.375656
0.373794
0.372175
0.370702
0.369413
0.368222
0.367181
0.366205
0.365351
0.36454
0.363832
0.363155
0.362563
0.361987
0.361492
0.361006
0.36059
0.360172
0.359823
0.359469
0.359169
0.358862
0.358609
0.358345
0.358137
0.357916
0.357735
0.357539
0.357396
0.357233
0.357102
0.356963
0.35687
0.356743
0.356644
0.356563
0.356495
0.356441
0.356342
0.35631
0.356289
0.356237
0.356266
0.356265
0.356249
0.356289
0.356298
0.35635
0.356406
0.356481
0.356565
0.356597
0.356696
0.356757
0.356878
0.356957
0.357104
0.357187
0.357359
0.357448
0.357639
0.357744
0.357967
0.35809
0.358351
0.358497
0.358802
0.358973
0.359329
0.35953
0.359953
0.36019
0.360726
0.360977
0.361911
0.362007
0.3724
6.08689
466.785
0.756988
0.637176
0.560013
0.510026
0.47633
0.452629
0.435255
0.42214
0.411926
0.403839
0.397266
0.391886
0.387372
0.383585
0.380324
0.377545
0.375102
0.372995
0.371107
0.369465
0.36797
0.366663
0.365455
0.364398
0.363409
0.362542
0.361719
0.361001
0.360314
0.359713
0.359128
0.358626
0.358132
0.357709
0.357285
0.35693
0.356569
0.356264
0.355952
0.355695
0.355426
0.355214
0.354988
0.354804
0.354604
0.354457
0.354292
0.354157
0.354015
0.35392
0.353791
0.353689
0.353605
0.353534
0.353479
0.353379
0.353343
0.35332
0.353264
0.353289
0.353288
0.353269
0.353305
0.353312
0.353362
0.353415
0.353487
0.35357
0.353598
0.353695
0.353754
0.353872
0.353949
0.354093
0.354174
0.354342
0.35443
0.354617
0.35472
0.354939
0.35506
0.355317
0.35546
0.35576
0.355928
0.356278
0.356475
0.356892
0.357124
0.357652
0.357897
0.358824
0.358911
0.369534
6.17324
455.521
0.757065
0.637018
0.55942
0.509003
0.47495
0.450967
0.433372
0.420083
0.40973
0.40153
0.394866
0.389408
0.38483
0.380988
0.377681
0.374862
0.372383
0.370245
0.368329
0.366663
0.365147
0.363821
0.362595
0.361522
0.360518
0.359638
0.358803
0.358074
0.357376
0.356766
0.356172
0.355662
0.35516
0.35473
0.354299
0.353937
0.353571
0.353261
0.352943
0.352681
0.352407
0.352191
0.351961
0.351773
0.351569
0.351419
0.351249
0.351112
0.350967
0.350868
0.350737
0.350633
0.350546
0.350472
0.350414
0.350314
0.350273
0.350249
0.35019
0.35021
0.350208
0.350186
0.350219
0.350223
0.350272
0.350321
0.350391
0.350471
0.350496
0.350591
0.350648
0.350764
0.350838
0.350979
0.351057
0.351222
0.351308
0.351492
0.351593
0.351807
0.351926
0.352177
0.352318
0.352612
0.352777
0.353121
0.353315
0.353724
0.353953
0.354472
0.354712
0.35563
0.35571
0.366543
6.23266
443.297
0.757144
0.63686
0.558819
0.50796
0.473537
0.449262
0.431437
0.417967
0.407469
0.399153
0.392391
0.386854
0.382209
0.37831
0.374954
0.372093
0.369577
0.367407
0.365463
0.363772
0.362233
0.360887
0.359642
0.358553
0.357534
0.35664
0.355792
0.355052
0.354343
0.353723
0.35312
0.352601
0.352091
0.351654
0.351215
0.350848
0.350475
0.350159
0.349836
0.349569
0.34929
0.349069
0.348834
0.348642
0.348435
0.34828
0.348107
0.347967
0.347818
0.347716
0.347583
0.347476
0.347386
0.347309
0.347249
0.347148
0.347103
0.347077
0.347015
0.34703
0.347027
0.347003
0.347032
0.347033
0.34708
0.347125
0.347192
0.34727
0.347292
0.347385
0.347439
0.347552
0.347623
0.347762
0.347838
0.347999
0.348083
0.348263
0.348362
0.348572
0.348688
0.348934
0.349073
0.349361
0.349523
0.349861
0.350051
0.350453
0.350677
0.351188
0.351422
0.352331
0.352403
0.363423
6.26145
430.086
0.757225
0.636704
0.558211
0.506897
0.472093
0.447515
0.429452
0.415793
0.405145
0.396707
0.389846
0.384226
0.37951
0.375553
0.372146
0.369241
0.366687
0.364483
0.362509
0.360792
0.359229