/*--------------------------------*- C++ -*----------------------------------*\
| =========                 |                                                 |
| \\      /  F ield         | OpenFOAM: The Open Source CFD Toolbox           |
|  \\    /   O peration     | Version:  v2012                                 |
|   \\  /    A nd           | Website:  www.openfoam.com                      |
|    \\/     M anipulation  |                                                 |
\*---------------------------------------------------------------------------*/
FoamFile
{
    version     2.0;
    format      ascii;
    class       volScalarField;
    location    "33";
    object      k;
}
// * * * * * * * * * * * * * * * * * * * * * * * * * * * * * * * * * * * * * //

dimensions      [0 2 -2 0 0 0 0];


internalField   nonuniform List<scalar> 
209825
(
0.00102463
0.000930337
0.00085263
0.000791055
0.00074293
0.0007053
0.000675335
0.000651204
0.000631304
0.000614792
0.000600766
0.000588861
0.000578508
0.000569582
0.00056166
0.000554758
0.000548532
0.000543069
0.000538071
0.000533663
0.000529576
0.000525965
0.00052257
0.000519569
0.000516718
0.000514201
0.000511785
0.000509648
0.000507584
0.00050577
0.000503986
0.000502427
0.000500884
0.000499546
0.000498206
0.000497056
0.000495883
0.000494881
0.00049385
0.000492978
0.00049207
0.000491313
0.000490512
0.000489854
0.000489141
0.000488567
0.000487935
0.000487434
0.00048688
0.000486444
0.00048595
0.000485577
0.000485148
0.000484819
0.000484437
0.000484158
0.000483832
0.000483584
0.000483297
0.000483101
0.000482842
0.000482671
0.000482464
0.00048232
0.000482115
0.000482009
0.000481833
0.000481746
0.000481579
0.000481502
0.000481351
0.000481307
0.000481215
0.000481233
0.000481227
0.000481298
0.000481298
0.0004814
0.00048143
0.000481553
0.000481612
0.000481773
0.000481865
0.000482074
0.000482192
0.000482449
0.000482592
0.000482908
0.000483082
0.000483491
0.000483679
0.000484323
0.000484429
0.000489508
0.0104554
0.0113958
0.00102463
0.000930338
0.000852631
0.000791055
0.000742928
0.000705296
0.00067533
0.000651197
0.000631296
0.000614783
0.000600756
0.000588849
0.000578496
0.000569569
0.000561647
0.000554744
0.000548518
0.000543054
0.000538056
0.000533647
0.000529559
0.000525948
0.000522553
0.000519552
0.0005167
0.000514183
0.000511767
0.00050963
0.000507565
0.000505751
0.000503967
0.000502408
0.000500865
0.000499527
0.000498187
0.000497037
0.000495863
0.000494861
0.00049383
0.000492958
0.00049205
0.000491293
0.000490492
0.000489833
0.00048912
0.000488547
0.000487915
0.000487413
0.000486859
0.000486423
0.00048593
0.000485556
0.000485127
0.000484798
0.000484416
0.000484137
0.000483811
0.000483563
0.000483276
0.00048308
0.00048282
0.00048265
0.000482442
0.000482299
0.000482094
0.000481988
0.000481812
0.000481724
0.000481557
0.000481481
0.000481329
0.000481286
0.000481193
0.000481211
0.000481205
0.000481277
0.000481277
0.000481378
0.000481408
0.000481531
0.00048159
0.000481751
0.000481843
0.000482052
0.00048217
0.000482426
0.00048257
0.000482886
0.00048306
0.000483468
0.000483657
0.0004843
0.000484406
0.000489492
0.0104651
0.0114076
0.00102463
0.00093034
0.000852631
0.00079105
0.000742916
0.000705277
0.000675304
0.000651165
0.000631258
0.00061474
0.000600709
0.000588799
0.000578442
0.000569512
0.000561588
0.000554682
0.000548454
0.000542989
0.000537989
0.000533579
0.00052949
0.000525877
0.000522481
0.000519478
0.000516626
0.000514108
0.000511691
0.000509553
0.000507488
0.000505673
0.000503888
0.000502329
0.000500785
0.000499446
0.000498106
0.000496955
0.000495781
0.000494779
0.000493748
0.000492875
0.000491967
0.000491209
0.000490408
0.000489749
0.000489035
0.000488462
0.000487829
0.000487328
0.000486773
0.000486337
0.000485843
0.00048547
0.00048504
0.000484711
0.000484329
0.00048405
0.000483723
0.000483475
0.000483189
0.000482992
0.000482732
0.000482561
0.000482354
0.00048221
0.000482005
0.000481899
0.000481723
0.000481636
0.000481469
0.000481392
0.00048124
0.000481197
0.000481104
0.000481121
0.000481115
0.000481186
0.000481186
0.000481288
0.000481317
0.00048144
0.0004815
0.00048166
0.000481752
0.000481961
0.000482078
0.000482334
0.000482478
0.000482794
0.000482967
0.000483376
0.000483564
0.000484207
0.000484313
0.000489414
0.0104862
0.0114321
0.00102463
0.000930344
0.000852633
0.000791042
0.000742896
0.000705244
0.000675259
0.00065111
0.000631194
0.000614668
0.00060063
0.000588713
0.000578351
0.000569417
0.000561488
0.000554579
0.000548347
0.000542879
0.000537876
0.000533463
0.000529372
0.000525757
0.000522359
0.000519355
0.000516501
0.000513981
0.000511563
0.000509424
0.000507357
0.000505541
0.000503755
0.000502195
0.00050065
0.000499311
0.00049797
0.000496818
0.000495643
0.00049464
0.000493608
0.000492735
0.000491826
0.000491068
0.000490266
0.000489607
0.000488893
0.000488319
0.000487686
0.000487184
0.000486629
0.000486193
0.000485698
0.000485325
0.000484894
0.000484565
0.000484182
0.000483903
0.000483577
0.000483328
0.000483041
0.000482844
0.000482584
0.000482413
0.000482206
0.000482062
0.000481856
0.00048175
0.000481574
0.000481486
0.000481319
0.000481242
0.000481091
0.000481047
0.000480954
0.000480971
0.000480964
0.000481035
0.000481035
0.000481136
0.000481165
0.000481288
0.000481347
0.000481507
0.000481598
0.000481807
0.000481924
0.00048218
0.000482324
0.000482639
0.000482812
0.00048322
0.000483408
0.000484051
0.000484155
0.000489279
0.0105192
0.0114703
0.00102463
0.00093035
0.000852634
0.000791031
0.000742868
0.000705198
0.000675196
0.000651032
0.000631103
0.000614566
0.000600518
0.000588593
0.000578223
0.000569282
0.000561347
0.000554432
0.000548196
0.000542723
0.000537716
0.000533301
0.000529206
0.000525588
0.000522188
0.00051918
0.000516324
0.000513802
0.000511382
0.000509241
0.000507173
0.000505355
0.000503568
0.000502006
0.00050046
0.00049912
0.000497777
0.000496625
0.000495448
0.000494445
0.000493412
0.000492538
0.000491628
0.000490869
0.000490066
0.000489406
0.000488692
0.000488117
0.000487484
0.000486981
0.000486425
0.000485988
0.000485494
0.00048512
0.000484689
0.000484359
0.000483976
0.000483696
0.000483369
0.000483121
0.000482833
0.000482636
0.000482376
0.000482204
0.000481996
0.000481852
0.000481646
0.00048154
0.000481363
0.000481276
0.000481108
0.000481031
0.000480879
0.000480835
0.000480742
0.000480758
0.000480751
0.00048082
0.00048082
0.000480921
0.00048095
0.000481072
0.000481131
0.00048129
0.000481382
0.00048159
0.000481707
0.000481962
0.000482105
0.00048242
0.000482592
0.000483
0.000483187
0.000483829
0.000483932
0.000489088
0.0105651
0.011523
0.00102463
0.000930357
0.000852637
0.000791017
0.000742831
0.000705138
0.000675115
0.000650932
0.000630985
0.000614434
0.000600373
0.000588437
0.000578057
0.000569107
0.000561165
0.000554243
0.000548001
0.000542522
0.00053751
0.00053309
0.000528991
0.000525369
0.000521965
0.000518955
0.000516096
0.000513571
0.000511148
0.000509005
0.000506934
0.000505114
0.000503325
0.000501762
0.000500214
0.000498872
0.000497528
0.000496374
0.000495196
0.000494191
0.000493157
0.000492282
0.000491371
0.000490611
0.000489808
0.000489147
0.000488431
0.000487856
0.000487221
0.000486718
0.000486161
0.000485724
0.000485229
0.000484854
0.000484422
0.000484092
0.000483708
0.000483428
0.000483101
0.000482852
0.000482563
0.000482366
0.000482105
0.000481933
0.000481725
0.00048158
0.000481374
0.000481268
0.000481091
0.000481002
0.000480835
0.000480758
0.000480605
0.000480561
0.000480467
0.000480482
0.000480474
0.000480543
0.000480543
0.000480643
0.000480671
0.000480793
0.000480851
0.00048101
0.000481101
0.000481308
0.000481425
0.00048168
0.000481822
0.000482136
0.000482308
0.000482714
0.000482901
0.000483543
0.000483644
0.000488841
0.0106244
0.011591
0.00102463
0.000930366
0.00085264
0.000790999
0.000742786
0.000705064
0.000675015
0.000650808
0.000630841
0.000614271
0.000600194
0.000588245
0.000577853
0.000568892
0.00056094
0.00055401
0.00054776
0.000542274
0.000537256
0.00053283
0.000528725
0.000525099
0.000521691
0.000518677
0.000515814
0.000513285
0.00051086
0.000508714
0.00050664
0.000504818
0.000503026
0.00050146
0.000499911
0.000498566
0.00049722
0.000496065
0.000494885
0.000493879
0.000492843
0.000491967
0.000491054
0.000490294
0.000489489
0.000488826
0.00048811
0.000487533
0.000486898
0.000486394
0.000485836
0.000485398
0.000484902
0.000484526
0.000484094
0.000483763
0.000483378
0.000483098
0.000482769
0.00048252
0.000482231
0.000482033
0.000481772
0.000481599
0.00048139
0.000481246
0.000481039
0.000480932
0.000480754
0.000480666
0.000480498
0.00048042
0.000480268
0.000480223
0.000480128
0.000480142
0.000480134
0.000480201
0.000480201
0.000480301
0.000480328
0.000480449
0.000480507
0.000480665
0.000480755
0.000480962
0.000481078
0.000481331
0.000481474
0.000481786
0.000481958
0.000482363
0.000482549
0.000483189
0.000483288
0.000488536
0.0106981
0.0116752
0.00102463
0.000930377
0.000852643
0.000790978
0.000742732
0.000704977
0.000674896
0.000650661
0.000630669
0.000614078
0.000599982
0.000588016
0.00057761
0.000568636
0.000560672
0.000553732
0.000547473
0.000541979
0.000536953
0.00053252
0.00052841
0.000524778
0.000521364
0.000518345
0.000515478
0.000512946
0.000510516
0.000508367
0.00050629
0.000504464
0.00050267
0.000501101
0.000499549
0.000498202
0.000496854
0.000495697
0.000494515
0.000493507
0.000492469
0.000491591
0.000490677
0.000489915
0.000489108
0.000488445
0.000487727
0.00048715
0.000486513
0.000486007
0.000485449
0.00048501
0.000484512
0.000484136
0.000483703
0.000483371
0.000482986
0.000482704
0.000482375
0.000482125
0.000481835
0.000481636
0.000481374
0.000481201
0.000480991
0.000480847
0.000480639
0.000480532
0.000480354
0.000480265
0.000480096
0.000480019
0.000479866
0.00047982
0.000479724
0.000479737
0.000479728
0.000479793
0.000479793
0.000479892
0.000479918
0.000480039
0.000480096
0.000480253
0.000480343
0.000480548
0.000480664
0.000480916
0.000481058
0.00048137
0.00048154
0.000481944
0.000482129
0.000482768
0.000482864
0.000488174
0.0107867
0.0117763
0.00102463
0.00093039
0.000852648
0.000790954
0.000742671
0.000704876
0.000674758
0.000650491
0.00063047
0.000613854
0.000599736
0.000587751
0.000577327
0.000568339
0.000560362
0.000553409
0.000547139
0.000541636
0.000536602
0.000532161
0.000528043
0.000524404
0.000520985
0.00051796
0.000515088
0.000512551
0.000510117
0.000507963
0.000505882
0.000504053
0.000502256
0.000500684
0.000499129
0.000497779
0.000496428
0.000495268
0.000494084
0.000493074
0.000492034
0.000491154
0.000490239
0.000489475
0.000488666
0.000488001
0.000487282
0.000486703
0.000486065
0.000485558
0.000484998
0.000484558
0.000484059
0.000483682
0.000483247
0.000482915
0.000482528
0.000482246
0.000481916
0.000481665
0.000481374
0.000481175
0.000480912
0.000480739
0.000480527
0.000480382
0.000480174
0.000480066
0.000479887
0.000479798
0.000479629
0.000479551
0.000479398
0.000479351
0.000479255
0.000479266
0.000479256
0.000479319
0.000479319
0.000479417
0.000479442
0.000479562
0.000479618
0.000479774
0.000479863
0.000480068
0.000480182
0.000480434
0.000480575
0.000480885
0.000481055
0.000481457
0.00048164
0.000482278
0.000482371
0.000487753
0.0108909
0.0118952
0.00102463
0.000930404
0.000852653
0.000790927
0.000742601
0.000704762
0.000674602
0.000650297
0.000630244
0.000613599
0.000599456
0.000587448
0.000577005
0.000568
0.000560007
0.000553041
0.000546759
0.000541245
0.0005362
0.00053175
0.000527624
0.000523978
0.000520551
0.00051752
0.000514642
0.000512099
0.00050966
0.000507502
0.000505417
0.000503584
0.000501782
0.000500207
0.000498648
0.000497296
0.000495942
0.000494779
0.000493592
0.00049258
0.000491538
0.000490655
0.000489737
0.000488971
0.000488161
0.000487494
0.000486773
0.000486193
0.000485553
0.000485045
0.000484483
0.000484042
0.000483542
0.000483163
0.000482727
0.000482394
0.000482006
0.000481722
0.000481391
0.00048114
0.000480848
0.000480648
0.000480384
0.000480209
0.000479997
0.000479852
0.000479643
0.000479534
0.000479354
0.000479265
0.000479095
0.000479017
0.000478863
0.000478815
0.000478718
0.000478728
0.000478716
0.000478777
0.000478777
0.000478874
0.000478898
0.000479017
0.000479072
0.000479227
0.000479315
0.000479518
0.000479632
0.000479882
0.000480022
0.00048033
0.000480499
0.0004809
0.000481082
0.000481718
0.000481808
0.000487273
0.0110111
0.0120325
0.00102463
0.00093042
0.000852659
0.000790898
0.000742523
0.000704633
0.000674427
0.000650079
0.000629989
0.000613312
0.00059914
0.000587108
0.000576643
0.000567618
0.000559608
0.000552627
0.000546331
0.000540804
0.000535748
0.000531288
0.000527152
0.000523498
0.000520063
0.000517025
0.00051414
0.000511591
0.000509146
0.000506983
0.000504892
0.000503055
0.000501249
0.00049967
0.000498107
0.000496751
0.000495394
0.000494228
0.000493038
0.000492023
0.000490978
0.000490093
0.000489172
0.000488404
0.000487592
0.000486923
0.000486199
0.000485617
0.000484976
0.000484466
0.000483903
0.00048346
0.000482958
0.000482578
0.000482141
0.000481807
0.000481417
0.000481132
0.0004808
0.000480547
0.000480254
0.000480053
0.000479788
0.000479613
0.0004794
0.000479254
0.000479044
0.000478934
0.000478754
0.000478663
0.000478493
0.000478414
0.00047826
0.000478211
0.000478113
0.000478121
0.000478108
0.000478166
0.000478166
0.000478261
0.000478285
0.000478402
0.000478456
0.00047861
0.000478697
0.000478899
0.000479012
0.00047926
0.000479399
0.000479706
0.000479874
0.000480272
0.000480453
0.000481087
0.000481172
0.000486734
0.0111477
0.0121888
0.00102464
0.000930438
0.000852666
0.000790865
0.000742437
0.000704492
0.000674233
0.000649838
0.000629707
0.000612993
0.00059879
0.00058673
0.00057624
0.000567194
0.000559165
0.000552166
0.000545855
0.000540314
0.000535245
0.000530774
0.000526627
0.000522963
0.00051952
0.000516474
0.000513581
0.000511025
0.000508574
0.000506405
0.000504309
0.000502466
0.000500655
0.000499072
0.000497504
0.000496145
0.000494783
0.000493614
0.000492421
0.000491402
0.000490354
0.000489467
0.000488543
0.000487773
0.000486957
0.000486287
0.000485561
0.000484977
0.000484333
0.000483821
0.000483256
0.000482812
0.000482308
0.000481927
0.000481488
0.000481152
0.000480761
0.000480475
0.000480141
0.000479888
0.000479593
0.000479391
0.000479125
0.000478949
0.000478734
0.000478587
0.000478376
0.000478266
0.000478085
0.000477993
0.000477823
0.000477743
0.000477588
0.000477539
0.000477439
0.000477445
0.00047743
0.000477486
0.000477486
0.000477579
0.000477601
0.000477718
0.00047777
0.000477923
0.000478009
0.000478208
0.00047832
0.000478567
0.000478705
0.000479009
0.000479176
0.000479572
0.000479751
0.000480384
0.000480465
0.000486134
0.0113009
0.012365
0.00102464
0.000930458
0.000852674
0.00079083
0.000742343
0.000704336
0.00067402
0.000649573
0.000629396
0.000612642
0.000598405
0.000586314
0.000575797
0.000566726
0.000558676
0.000551658
0.00054533
0.000539773
0.00053469
0.000530206
0.000526048
0.000522374
0.00051892
0.000515865
0.000512964
0.000510401
0.000507943
0.000505767
0.000503664
0.000501816
0.0005
0.000498411
0.000496839
0.000495475
0.000494109
0.000492936
0.000491739
0.000490717
0.000489666
0.000488775
0.000487849
0.000487075
0.000486257
0.000485584
0.000484855
0.000484269
0.000483623
0.00048311
0.000482542
0.000482096
0.00048159
0.000481207
0.000480766
0.00048043
0.000480037
0.000479749
0.000479414
0.000479159
0.000478863
0.00047866
0.000478392
0.000478215
0.000477999
0.000477851
0.000477639
0.000477528
0.000477345
0.000477254
0.000477082
0.000477002
0.000476846
0.000476795
0.000476695
0.000476699
0.000476681
0.000476735
0.000476734
0.000476826
0.000476846
0.000476961
0.000477013
0.000477163
0.000477248
0.000477446
0.000477557
0.000477801
0.000477938
0.00047824
0.000478406
0.000478799
0.000478977
0.000479607
0.000479683
0.000485473
0.0114706
0.0125615
0.00102464
0.000930479
0.000852684
0.000790793
0.000742242
0.000704168
0.000673788
0.000649285
0.000629057
0.00061226
0.000597984
0.000585859
0.000575312
0.000566216
0.000558142
0.000551103
0.000544755
0.000539182
0.000534084
0.000529586
0.000525415
0.000521728
0.000518264
0.0005152
0.000512289
0.000509718
0.000507251
0.000505068
0.000502959
0.000501105
0.000499282
0.000497688
0.000496111
0.000494742
0.000493371
0.000492194
0.000490992
0.000489967
0.000488911
0.000488018
0.000487088
0.000486312
0.00048549
0.000484815
0.000484083
0.000483494
0.000482846
0.00048233
0.00048176
0.000481312
0.000480804
0.000480419
0.000479976
0.000479638
0.000479243
0.000478954
0.000478617
0.000478361
0.000478063
0.000477858
0.000477589
0.000477411
0.000477193
0.000477045
0.000476831
0.000476719
0.000476536
0.000476443
0.000476271
0.00047619
0.000476033
0.000475981
0.00047588
0.000475881
0.000475861
0.000475912
0.00047591
0.000476
0.000476019
0.000476133
0.000476183
0.000476331
0.000476415
0.000476611
0.00047672
0.000476962
0.000477098
0.000477398
0.000477562
0.000477953
0.000478128
0.000478756
0.000478827
0.00048475
0.0116565
0.0127789
0.00102464
0.000930502
0.000852694
0.000790753
0.000742133
0.000703986
0.000673537
0.000648972
0.000628691
0.000611845
0.000597527
0.000585366
0.000574787
0.000565661
0.000557562
0.0005505
0.000544131
0.00053854
0.000533424
0.000528911
0.000524726
0.000521027
0.000517551
0.000514476
0.000511555
0.000508975
0.0005065
0.000504309
0.000502192
0.000500331
0.000498502
0.000496902
0.000495319
0.000493944
0.000492568
0.000491386
0.00049018
0.000489151
0.000488091
0.000487194
0.00048626
0.00048548
0.000484656
0.000483977
0.000483242
0.000482651
0.000482
0.000481482
0.000480909
0.000480459
0.000479948
0.000479561
0.000479116
0.000478776
0.000478379
0.000478088
0.000477749
0.000477492
0.000477192
0.000476986
0.000476716
0.000476536
0.000476316
0.000476167
0.000475952
0.000475839
0.000475654
0.00047556
0.000475387
0.000475305
0.000475147
0.000475095
0.000474993
0.000474991
0.000474968
0.000475016
0.000475014
0.000475101
0.000475118
0.000475231
0.000475279
0.000475426
0.000475508
0.000475701
0.00047581
0.000476049
0.000476184
0.000476481
0.000476643
0.000477031
0.000477204
0.000477829
0.000477896
0.000483963
0.0118581
0.0130176
0.00102464
0.000930528
0.000852706
0.000790712
0.000742017
0.000703791
0.000673268
0.000648637
0.000628296
0.000611399
0.000597035
0.000584834
0.000574219
0.000565062
0.000556935
0.000549848
0.000543457
0.000537846
0.000532712
0.000528182
0.000523982
0.000520269
0.00051678
0.000513693
0.000510762
0.000508171
0.000505687
0.000503487
0.000501362
0.000499494
0.000497657
0.000496051
0.000494461
0.000493081
0.000491699
0.000490512
0.000489301
0.000488268
0.000487203
0.000486302
0.000485364
0.000484581
0.000483752
0.000483071
0.000482333
0.000481739
0.000481084
0.000480563
0.000479988
0.000479535
0.000479022
0.000478633
0.000478185
0.000477843
0.000477444
0.000477152
0.00047681
0.000476552
0.000476249
0.000476042
0.00047577
0.000475589
0.000475367
0.000475217
0.000475
0.000474886
0.0004747
0.000474605
0.000474431
0.000474348
0.000474189
0.000474135
0.000474032
0.000474028
0.000474002
0.000474046
0.000474043
0.000474128
0.000474144
0.000474254
0.000474301
0.000474446
0.000474526
0.000474717
0.000474824
0.000475061
0.000475194
0.000475488
0.000475649
0.000476033
0.000476204
0.000476826
0.000476887
0.000483113
0.0120746
0.013278
0.00102464
0.000930555
0.00085272
0.000790668
0.000741894
0.000703584
0.000672981
0.000648277
0.000627873
0.00061092
0.000596507
0.000584262
0.00057361
0.000564419
0.000556262
0.000549148
0.000542733
0.000537099
0.000531946
0.000527398
0.000523181
0.000519453
0.000515951
0.000512851
0.000509908
0.000507306
0.000504812
0.000502603
0.000500469
0.000498593
0.000496749
0.000495135
0.000493539
0.000492152
0.000490764
0.000489572
0.000488355
0.000487317
0.000486248
0.000485342
0.000484399
0.000483613
0.00048278
0.000482095
0.000481353
0.000480756
0.000480098
0.000479575
0.000478996
0.000478541
0.000478025
0.000477633
0.000477183
0.000476839
0.000476437
0.000476143
0.000475799
0.000475539
0.000475234
0.000475025
0.000474751
0.000474568
0.000474345
0.000474194
0.000473975
0.00047386
0.000473672
0.000473576
0.000473401
0.000473317
0.000473157
0.000473102
0.000472998
0.000472991
0.000472961
0.000473002
0.000472998
0.000473081
0.000473094
0.000473203
0.000473247
0.00047339
0.000473468
0.000473657
0.000473762
0.000473996
0.000474127
0.000474419
0.000474577
0.000474959
0.000475127
0.000475746
0.000475801
0.000482198
0.0123045
0.0135604
0.00102464
0.000930583
0.000852735
0.000790623
0.000741764
0.000703364
0.000672676
0.000647895
0.000627422
0.000610409
0.000595943
0.000583652
0.000572959
0.000563732
0.000555542
0.0005484
0.000541958
0.000536301
0.000531126
0.000526558
0.000522324
0.00051858
0.000515063
0.000511949
0.000508993
0.00050638
0.000503875
0.000501656
0.000499512
0.000497627
0.000495775
0.000494154
0.00049255
0.000491157
0.000489762
0.000488564
0.000487342
0.000486298
0.000485223
0.000484313
0.000483366
0.000482575
0.000481738
0.000481049
0.000480303
0.000479703
0.000479041
0.000478515
0.000477932
0.000477475
0.000476956
0.000476562
0.000476108
0.000475762
0.000475358
0.000475061
0.000474715
0.000474453
0.000474145
0.000473935
0.000473659
0.000473474
0.000473248
0.000473096
0.000472876
0.000472759
0.00047257
0.000472473
0.000472296
0.000472211
0.00047205
0.000471993
0.000471888
0.000471879
0.000471845
0.000471883
0.000471877
0.000471957
0.000471968
0.000472075
0.000472117
0.000472257
0.000472334
0.00047252
0.000472623
0.000472854
0.000472984
0.000473272
0.000473428
0.000473806
0.000473972
0.000474587
0.000474636
0.000481217
0.0125464
0.0138649
0.00102465
0.000930614
0.000852751
0.000790576
0.000741627
0.000703132
0.000672352
0.000647489
0.000626943
0.000609866
0.000595344
0.000583003
0.000572266
0.000563
0.000554775
0.000547602
0.000541132
0.00053545
0.000530252
0.000525663
0.00052141
0.000517648
0.000514115
0.000510987
0.000508018
0.000505392
0.000502874
0.000500645
0.000498491
0.000496597
0.000494735
0.000493107
0.000491494
0.000490094
0.000488692
0.000487488
0.000486259
0.00048521
0.000484129
0.000483214
0.000482262
0.000481466
0.000480624
0.000479932
0.000479182
0.000478578
0.000477912
0.000477382
0.000476797
0.000476336
0.000475814
0.000475417
0.00047496
0.000474612
0.000474205
0.000473906
0.000473557
0.000473293
0.000472983
0.00047277
0.000472492
0.000472306
0.000472077
0.000471924
0.000471702
0.000471583
0.000471392
0.000471294
0.000471116
0.00047103
0.000470868
0.000470809
0.000470702
0.00047069
0.000470653
0.000470687
0.00047068
0.000470756
0.000470766
0.00047087
0.00047091
0.000471047
0.000471122
0.000471305
0.000471406
0.000471634
0.000471762
0.000472046
0.000472201
0.000472575
0.000472738
0.000473349
0.000473392
0.000480168
0.012798
0.0141914
0.00102465
0.000930646
0.00085277
0.000790528
0.000741484
0.000702887
0.000672011
0.00064706
0.000626437
0.000609291
0.000594709
0.000582315
0.000571531
0.000562223
0.000553961
0.000546754
0.000540255
0.000534545
0.000529323
0.000524712
0.000520438
0.000516658
0.000513108
0.000509964
0.00050698
0.000504341
0.000501811
0.00049957
0.000497405
0.000495501
0.00049363
0.000491992
0.000490372
0.000488964
0.000487554
0.000486343
0.000485107
0.000484052
0.000482965
0.000482045
0.000481087
0.000480287
0.00047944
0.000478743
0.000477988
0.00047738
0.000476711
0.000476177
0.000475588
0.000475124
0.000474598
0.000474198
0.000473738
0.000473387
0.000472977
0.000472676
0.000472324
0.000472058
0.000471745
0.00047153
0.00047125
0.000471062
0.000470831
0.000470676
0.000470452
0.000470331
0.000470138
0.000470039
0.000469859
0.000469772
0.000469609
0.000469548
0.00046944
0.000469425
0.000469384
0.000469414
0.000469405
0.000469478
0.000469485
0.000469587
0.000469624
0.000469759
0.000469832
0.000470011
0.000470111
0.000470335
0.000470461
0.000470741
0.000470894
0.000471263
0.000471424
0.00047203
0.000472068
0.000479051
0.0130569
0.0145395
0.00102465
0.000930681
0.00085279
0.000790479
0.000741336
0.000702632
0.000671653
0.000646609
0.000625903
0.000608684
0.000594038
0.000581588
0.000570753
0.000561401
0.0005531
0.000545858
0.000539327
0.000533588
0.000528339
0.000523705
0.000519409
0.00051561
0.000512041
0.00050888
0.000505881
0.000503227
0.000500684
0.000498431
0.000496254
0.000494339
0.000492458
0.000490811
0.000489181
0.000487765
0.000486347
0.000485128
0.000483886
0.000482824
0.000481731
0.000480805
0.000479841
0.000479035
0.000478183
0.000477482
0.000476722
0.00047611
0.000475436
0.000474899
0.000474305
0.000473838
0.000473308
0.000472905
0.000472442
0.000472088
0.000471674
0.00047137
0.000471015
0.000470747
0.000470431
0.000470215
0.000469932
0.000469741
0.000469507
0.000469351
0.000469125
0.000469003
0.000468808
0.000468707
0.000468526
0.000468437
0.000468272
0.00046821
0.0004681
0.000468083
0.000468037
0.000468064
0.000468053
0.000468121
0.000468127
0.000468226
0.00046826
0.000468392
0.000468462
0.000468638
0.000468736
0.000468957
0.00046908
0.000469357
0.000469507
0.000469872
0.000470029
0.000470631
0.000470662
0.000477863
0.01332
0.0149086
0.00102465
0.000930717
0.000852812
0.000790429
0.000741181
0.000702365
0.000671278
0.000646135
0.000625342
0.000608046
0.000593332
0.000580822
0.000569934
0.000560535
0.000552192
0.000544912
0.000538347
0.000532578
0.000527301
0.000522641
0.000518323
0.000514502
0.000510913
0.000507735
0.000504719
0.00050205
0.000499492
0.000497226
0.000495037
0.00049311
0.000491218
0.000489562
0.000487922
0.000486497
0.000485071
0.000483844
0.000482594
0.000481525
0.000480425
0.000479493
0.000478522
0.000477712
0.000476854
0.000476147
0.000475383
0.000474766
0.000474087
0.000473546
0.000472948
0.000472477
0.000471944
0.000471537
0.00047107
0.000470713
0.000470296
0.000469989
0.000469631
0.00046936
0.000469041
0.000468822
0.000468537
0.000468344
0.000468107
0.00046795
0.000467721
0.000467597
0.000467399
0.000467297
0.000467114
0.000467025
0.000466858
0.000466793
0.000466682
0.000466662
0.000466612
0.000466635
0.000466621
0.000466685
0.000466689
0.000466785
0.000466816
0.000466946
0.000467013
0.000467185
0.000467281
0.000467498
0.000467619
0.000467891
0.000468039
0.000468399
0.000468553
0.00046915
0.000469175
0.000476602
0.0135836
0.0152976
0.00102465
0.000930754
0.000852837
0.000790379
0.000741022
0.000702087
0.000670887
0.00064564
0.000624754
0.000607377
0.000592591
0.000580017
0.000569073
0.000559625
0.000551236
0.000543917
0.000537315
0.000531514
0.000526207
0.000521521
0.000517178
0.000513334
0.000509725
0.000506528
0.000503494
0.000500809
0.000498236
0.000495957
0.000493754
0.000491815
0.000489912
0.000488244
0.000486594
0.00048516
0.000483725
0.00048249
0.000481231
0.000480155
0.000479048
0.000478109
0.000477132
0.000476316
0.000475451
0.00047474
0.00047397
0.000473348
0.000472664
0.000472119
0.000471516
0.000471042
0.000470504
0.000470094
0.000469622
0.000469263
0.000468842
0.000468532
0.00046817
0.000467897
0.000467574
0.000467353
0.000467064
0.00046687
0.00046663
0.00046647
0.000466239
0.000466113
0.000465913
0.000465809
0.000465624
0.000465533
0.000465365
0.000465298
0.000465185
0.000465162
0.000465108
0.000465127
0.00046511
0.000465169
0.000465171
0.000465264
0.000465292
0.000465418
0.000465483
0.000465652
0.000465745
0.000465957
0.000466076
0.000466344
0.000466489
0.000466845
0.000466995
0.000467586
0.000467605
0.000475268
0.0138437
0.0157051
0.00102465
0.000930794
0.000852864
0.000790328
0.000740858
0.000701799
0.000670479
0.000645123
0.00062414
0.000606677
0.000591815
0.000579174
0.000568171
0.000558669
0.000550234
0.000542872
0.000536232
0.000530396
0.000525059
0.000520344
0.000515975
0.000512108
0.000508477
0.000505259
0.000502207
0.000499505
0.000496916
0.000494621
0.000492404
0.000490453
0.000488537
0.000486859
0.000485198
0.000483754
0.000482308
0.000481065
0.000479797
0.000478714
0.000477598
0.000476653
0.000475669
0.000474846
0.000473975
0.000473258
0.000472482
0.000471856
0.000471167
0.000470617
0.000470009
0.00046953
0.000468988
0.000468574
0.000468098
0.000467735
0.000467311
0.000466997
0.000466632
0.000466356
0.00046603
0.000465806
0.000465514
0.000465317
0.000465073
0.000464912
0.000464678
0.00046455
0.000464348
0.000464242
0.000464056
0.000463963
0.000463793
0.000463724
0.000463609
0.000463583
0.000463525
0.000463539
0.000463519
0.000463573
0.000463573
0.000463662
0.000463688
0.00046381
0.000463872
0.000464036
0.000464127
0.000464335
0.000464452
0.000464715
0.000464857
0.000465207
0.000465354
0.000465939
0.000465952
0.000473857
0.0140956
0.0161289
0.00102465
0.000930835
0.000852893
0.000790278
0.000740689
0.000701501
0.000670056
0.000644586
0.0006235
0.000605946
0.000591004
0.000578293
0.000567227
0.00055767
0.000549185
0.000541778
0.000535098
0.000529226
0.000523855
0.000519111
0.000514713
0.000510821
0.000507167
0.000503929
0.000500856
0.000498136
0.00049553
0.00049322
0.000490988
0.000489023
0.000487094
0.000485404
0.000483732
0.000482277
0.000480821
0.000479568
0.000478292
0.0004772
0.000476076
0.000475124
0.000474132
0.000473303
0.000472425
0.000471702
0.00047092
0.000470289
0.000469594
0.000469039
0.000468426
0.000467943
0.000467395
0.000466977
0.000466497
0.000466131
0.000465702
0.000465385
0.000465016
0.000464737
0.000464407
0.00046418
0.000463885
0.000463686
0.000463439
0.000463276
0.000463039
0.000462908
0.000462703
0.000462595
0.000462407
0.000462313
0.000462141
0.000462069
0.000461952
0.000461923
0.000461861
0.000461871
0.000461848
0.000461896
0.000461894
0.000461979
0.000462001
0.00046212
0.000462179
0.000462339
0.000462427
0.000462631
0.000462745
0.000463003
0.000463142
0.000463487
0.000463629
0.000464208
0.000464216
0.000472368
0.0143341
0.0165665
0.00102465
0.000930877
0.000852924
0.000790228
0.000740517
0.000701193
0.000669618
0.000644027
0.000622835
0.000605186
0.00059016
0.000577374
0.000566242
0.000556626
0.000548089
0.000540635
0.000533913
0.000528002
0.000522597
0.00051782
0.000513394
0.000509476
0.000505797
0.000502536
0.000499443
0.000496704
0.000494079
0.000491753
0.000489505
0.000487526
0.000485584
0.000483881
0.000482196
0.000480731
0.000479264
0.000478001
0.000476715
0.000475614
0.000474482
0.000473522
0.000472522
0.000471686
0.000470801
0.000470072
0.000469283
0.000468646
0.000467945
0.000467386
0.000466766
0.000466279
0.000465726
0.000465304
0.000464819
0.000464449
0.000464016
0.000463696
0.000463322
0.00046304
0.000462706
0.000462476
0.000462178