/*--------------------------------*- C++ -*----------------------------------*\
| =========                 |                                                 |
| \\      /  F ield         | OpenFOAM: The Open Source CFD Toolbox           |
|  \\    /   O peration     | Version:  v2012                                 |
|   \\  /    A nd           | Website:  www.openfoam.com                      |
|    \\/     M anipulation  |                                                 |
\*---------------------------------------------------------------------------*/
FoamFile
{
    version     2.0;
    format      ascii;
    class       volScalarField;
    location    "33";
    object      nut;
}
// * * * * * * * * * * * * * * * * * * * * * * * * * * * * * * * * * * * * * //

dimensions      [0 2 -1 0 0 0 0];


internalField   nonuniform List<scalar> 
209825
(
1.25008e-07
1.21661e-07
1.14783e-07
1.06976e-07
9.97624e-08
9.36185e-08
8.84777e-08
8.42113e-08
8.06199e-08
7.75993e-08
7.50076e-08
7.27927e-08
7.08564e-08
6.9182e-08
6.76914e-08
6.63903e-08
6.52151e-08
6.41831e-08
6.32385e-08
6.24051e-08
6.16323e-08
6.09497e-08
6.03082e-08
5.97404e-08
5.92014e-08
5.87253e-08
5.8269e-08
5.78643e-08
5.74736e-08
5.71306e-08
5.67932e-08
5.64971e-08
5.62045e-08
5.59501e-08
5.56961e-08
5.54764e-08
5.52529e-08
5.5062e-08
5.48653e-08
5.4698e-08
5.45241e-08
5.4377e-08
5.42224e-08
5.40953e-08
5.39574e-08
5.38441e-08
5.37212e-08
5.36238e-08
5.35143e-08
5.34263e-08
5.3332e-08
5.32584e-08
5.31696e-08
5.31021e-08
5.3023e-08
5.29739e-08
5.28983e-08
5.28426e-08
5.27802e-08
5.27252e-08
5.26667e-08
5.26295e-08
5.25751e-08
5.25366e-08
5.2483e-08
5.2446e-08
5.23937e-08
5.23616e-08
5.23152e-08
5.22819e-08
5.22368e-08
5.22074e-08
5.21718e-08
5.21522e-08
5.21355e-08
5.21234e-08
5.21085e-08
5.20991e-08
5.2088e-08
5.2078e-08
5.20706e-08
5.20624e-08
5.20586e-08
5.20545e-08
5.20524e-08
5.20503e-08
5.20491e-08
5.20491e-08
5.2048e-08
5.20509e-08
5.20477e-08
5.20525e-08
5.20373e-08
5.24353e-08
3.29919e-06
2.12261e-08
1.25008e-07
1.21662e-07
1.14785e-07
1.06978e-07
9.97647e-08
9.36208e-08
8.84798e-08
8.42133e-08
8.06217e-08
7.7601e-08
7.5009e-08
7.27939e-08
7.08575e-08
6.9183e-08
6.76923e-08
6.63911e-08
6.52158e-08
6.41836e-08
6.32389e-08
6.24055e-08
6.16326e-08
6.09499e-08
6.03083e-08
5.97404e-08
5.92014e-08
5.87252e-08
5.82689e-08
5.78641e-08
5.74735e-08
5.71304e-08
5.67929e-08
5.64969e-08
5.62042e-08
5.59498e-08
5.56958e-08
5.5476e-08
5.52525e-08
5.50615e-08
5.48649e-08
5.46975e-08
5.45236e-08
5.43764e-08
5.42219e-08
5.40948e-08
5.39569e-08
5.38435e-08
5.37206e-08
5.36231e-08
5.35137e-08
5.34256e-08
5.33313e-08
5.32577e-08
5.31689e-08
5.31015e-08
5.30223e-08
5.29731e-08
5.28975e-08
5.28418e-08
5.27795e-08
5.27244e-08
5.2666e-08
5.26288e-08
5.25743e-08
5.25358e-08
5.24822e-08
5.24453e-08
5.2393e-08
5.23608e-08
5.23144e-08
5.22811e-08
5.2236e-08
5.22066e-08
5.2171e-08
5.21514e-08
5.21347e-08
5.21225e-08
5.21076e-08
5.20982e-08
5.20871e-08
5.20771e-08
5.20697e-08
5.20615e-08
5.20577e-08
5.20536e-08
5.20515e-08
5.20494e-08
5.20482e-08
5.20481e-08
5.20471e-08
5.205e-08
5.20468e-08
5.20516e-08
5.20364e-08
5.24349e-08
3.2999e-06
2.13992e-08
1.25007e-07
1.21664e-07
1.14791e-07
1.06987e-07
9.97741e-08
9.363e-08
8.84885e-08
8.42212e-08
8.06287e-08
7.76072e-08
7.50145e-08
7.27988e-08
7.08617e-08
6.91866e-08
6.76954e-08
6.63938e-08
6.5218e-08
6.41855e-08
6.32405e-08
6.24067e-08
6.16335e-08
6.09506e-08
6.03087e-08
5.97406e-08
5.92014e-08
5.8725e-08
5.82685e-08
5.78636e-08
5.74728e-08
5.71295e-08
5.67919e-08
5.64957e-08
5.62029e-08
5.59484e-08
5.56943e-08
5.54744e-08
5.52508e-08
5.50598e-08
5.4863e-08
5.46956e-08
5.45216e-08
5.43744e-08
5.42198e-08
5.40926e-08
5.39546e-08
5.38412e-08
5.37182e-08
5.36207e-08
5.35112e-08
5.34231e-08
5.33288e-08
5.32551e-08
5.31663e-08
5.30988e-08
5.30195e-08
5.29704e-08
5.28947e-08
5.2839e-08
5.27766e-08
5.27215e-08
5.26631e-08
5.26258e-08
5.25713e-08
5.25329e-08
5.24792e-08
5.24422e-08
5.23899e-08
5.23577e-08
5.23113e-08
5.2278e-08
5.22329e-08
5.22035e-08
5.21679e-08
5.21482e-08
5.21314e-08
5.21192e-08
5.21043e-08
5.20949e-08
5.20838e-08
5.20738e-08
5.20663e-08
5.20581e-08
5.20543e-08
5.20501e-08
5.2048e-08
5.20459e-08
5.20446e-08
5.20446e-08
5.20435e-08
5.20464e-08
5.20432e-08
5.2048e-08
5.20327e-08
5.24323e-08
3.3018e-06
2.1647e-08
1.25006e-07
1.21669e-07
1.14802e-07
1.07002e-07
9.97899e-08
9.36456e-08
8.8503e-08
8.42344e-08
8.06406e-08
7.76178e-08
7.50239e-08
7.2807e-08
7.08689e-08
6.91928e-08
6.77008e-08
6.63983e-08
6.52219e-08
6.41887e-08
6.32431e-08
6.24088e-08
6.16351e-08
6.09517e-08
6.03095e-08
5.9741e-08
5.92014e-08
5.87247e-08
5.82679e-08
5.78627e-08
5.74716e-08
5.71281e-08
5.67903e-08
5.64939e-08
5.62009e-08
5.59462e-08
5.56919e-08
5.54719e-08
5.52481e-08
5.50569e-08
5.486e-08
5.46924e-08
5.45183e-08
5.4371e-08
5.42163e-08
5.4089e-08
5.39509e-08
5.38374e-08
5.37144e-08
5.36168e-08
5.35071e-08
5.3419e-08
5.33245e-08
5.32508e-08
5.31619e-08
5.30943e-08
5.3015e-08
5.29658e-08
5.28901e-08
5.28344e-08
5.27719e-08
5.27168e-08
5.26583e-08
5.2621e-08
5.25664e-08
5.2528e-08
5.24742e-08
5.24373e-08
5.23849e-08
5.23527e-08
5.23062e-08
5.22729e-08
5.22278e-08
5.21983e-08
5.21627e-08
5.21429e-08
5.21261e-08
5.21137e-08
5.20989e-08
5.20894e-08
5.20782e-08
5.20682e-08
5.20607e-08
5.20524e-08
5.20486e-08
5.20444e-08
5.20422e-08
5.20401e-08
5.20388e-08
5.20387e-08
5.20376e-08
5.20405e-08
5.20372e-08
5.20419e-08
5.20266e-08
5.24278e-08
3.30486e-06
2.19441e-08
1.25005e-07
1.21675e-07
1.14818e-07
1.07022e-07
9.98124e-08
9.36675e-08
8.85235e-08
8.42531e-08
8.06574e-08
7.76327e-08
7.50371e-08
7.28186e-08
7.0879e-08
6.92016e-08
6.77084e-08
6.64048e-08
6.52274e-08
6.41933e-08
6.32469e-08
6.24118e-08
6.16374e-08
6.09534e-08
6.03106e-08
5.97416e-08
5.92015e-08
5.87244e-08
5.82671e-08
5.78615e-08
5.747e-08
5.71262e-08
5.67881e-08
5.64914e-08
5.61981e-08
5.59432e-08
5.56886e-08
5.54683e-08
5.52443e-08
5.50529e-08
5.48558e-08
5.46881e-08
5.45138e-08
5.43663e-08
5.42114e-08
5.4084e-08
5.39457e-08
5.38321e-08
5.37089e-08
5.36112e-08
5.35015e-08
5.34132e-08
5.33186e-08
5.32449e-08
5.31558e-08
5.30882e-08
5.30087e-08
5.29595e-08
5.28837e-08
5.28279e-08
5.27654e-08
5.27102e-08
5.26516e-08
5.26143e-08
5.25596e-08
5.25211e-08
5.24673e-08
5.24303e-08
5.23779e-08
5.23456e-08
5.22991e-08
5.22658e-08
5.22206e-08
5.21911e-08
5.21554e-08
5.21355e-08
5.21186e-08
5.21061e-08
5.20912e-08
5.20817e-08
5.20704e-08
5.20604e-08
5.20528e-08
5.20445e-08
5.20406e-08
5.20363e-08
5.20341e-08
5.2032e-08
5.20306e-08
5.20305e-08
5.20293e-08
5.20322e-08
5.20289e-08
5.20335e-08
5.20181e-08
5.24216e-08
3.30913e-06
2.22807e-08
1.25004e-07
1.21684e-07
1.14838e-07
1.07049e-07
9.98415e-08
9.36961e-08
8.85502e-08
8.42774e-08
8.06792e-08
7.76521e-08
7.50542e-08
7.28337e-08
7.08922e-08
6.92131e-08
6.77183e-08
6.64133e-08
6.52346e-08
6.41994e-08
6.32518e-08
6.24158e-08
6.16405e-08
6.09557e-08
6.03121e-08
5.97424e-08
5.92017e-08
5.87239e-08
5.82661e-08
5.786e-08
5.74681e-08
5.71238e-08
5.67853e-08
5.64882e-08
5.61945e-08
5.59392e-08
5.56843e-08
5.54638e-08
5.52395e-08
5.50478e-08
5.48505e-08
5.46825e-08
5.4508e-08
5.43603e-08
5.42051e-08
5.40775e-08
5.39391e-08
5.38253e-08
5.37019e-08
5.36041e-08
5.34942e-08
5.34058e-08
5.3311e-08
5.32371e-08
5.31479e-08
5.30802e-08
5.30006e-08
5.29513e-08
5.28754e-08
5.28196e-08
5.27569e-08
5.27017e-08
5.26431e-08
5.26056e-08
5.25508e-08
5.25123e-08
5.24584e-08
5.24214e-08
5.23689e-08
5.23365e-08
5.229e-08
5.22566e-08
5.22114e-08
5.21819e-08
5.2146e-08
5.21259e-08
5.21089e-08
5.20962e-08
5.20814e-08
5.20717e-08
5.20604e-08
5.20503e-08
5.20426e-08
5.20343e-08
5.20303e-08
5.2026e-08
5.20237e-08
5.20215e-08
5.20201e-08
5.20199e-08
5.20187e-08
5.20214e-08
5.20181e-08
5.20227e-08
5.20072e-08
5.24135e-08
3.31466e-06
2.26538e-08
1.25002e-07
1.21694e-07
1.14862e-07
1.07083e-07
9.98774e-08
9.37314e-08
8.85832e-08
8.43075e-08
8.07062e-08
7.76762e-08
7.50755e-08
7.28524e-08
7.09086e-08
6.92274e-08
6.77306e-08
6.64239e-08
6.52436e-08
6.42069e-08
6.3258e-08
6.24208e-08
6.16444e-08
6.09586e-08
6.0314e-08
5.97435e-08
5.9202e-08
5.87235e-08
5.8265e-08
5.78583e-08
5.74657e-08
5.71209e-08
5.67818e-08
5.64843e-08
5.61901e-08
5.59345e-08
5.56791e-08
5.54582e-08
5.52336e-08
5.50416e-08
5.48439e-08
5.46756e-08
5.45008e-08
5.43529e-08
5.41975e-08
5.40696e-08
5.39309e-08
5.3817e-08
5.36934e-08
5.35953e-08
5.34852e-08
5.33967e-08
5.33017e-08
5.32277e-08
5.31383e-08
5.30705e-08
5.29907e-08
5.29412e-08
5.28652e-08
5.28093e-08
5.27465e-08
5.26913e-08
5.26325e-08
5.25949e-08
5.254e-08
5.25014e-08
5.24474e-08
5.24103e-08
5.23578e-08
5.23253e-08
5.22788e-08
5.22454e-08
5.22001e-08
5.21705e-08
5.21345e-08
5.21142e-08
5.20971e-08
5.2084e-08
5.20692e-08
5.20595e-08
5.2048e-08
5.20379e-08
5.20301e-08
5.20217e-08
5.20177e-08
5.20132e-08
5.20109e-08
5.20086e-08
5.20071e-08
5.20068e-08
5.20056e-08
5.20082e-08
5.20048e-08
5.20093e-08
5.19937e-08
5.24036e-08
3.32147e-06
2.30642e-08
1.25e-07
1.21706e-07
1.14892e-07
1.07122e-07
9.99203e-08
9.37734e-08
8.86226e-08
8.43434e-08
8.07386e-08
7.7705e-08
7.5101e-08
7.28748e-08
7.09282e-08
6.92445e-08
6.77454e-08
6.64366e-08
6.52544e-08
6.4216e-08
6.32655e-08
6.24268e-08
6.16491e-08
6.09621e-08
6.03164e-08
5.97448e-08
5.92024e-08
5.8723e-08
5.82637e-08
5.78562e-08
5.74629e-08
5.71175e-08
5.67778e-08
5.64797e-08
5.6185e-08
5.59288e-08
5.5673e-08
5.54516e-08
5.52265e-08
5.50342e-08
5.48361e-08
5.46675e-08
5.44923e-08
5.43441e-08
5.41883e-08
5.40603e-08
5.39213e-08
5.38071e-08
5.36832e-08
5.35849e-08
5.34746e-08
5.33858e-08
5.32906e-08
5.32164e-08
5.31268e-08
5.30589e-08
5.29789e-08
5.29293e-08
5.28531e-08
5.27972e-08
5.27342e-08
5.26788e-08
5.262e-08
5.25822e-08
5.25271e-08
5.24885e-08
5.24344e-08
5.23972e-08
5.23446e-08
5.2312e-08
5.22654e-08
5.2232e-08
5.21866e-08
5.21569e-08
5.21208e-08
5.21003e-08
5.20829e-08
5.20696e-08
5.20548e-08
5.20449e-08
5.20333e-08
5.20231e-08
5.20152e-08
5.20067e-08
5.20026e-08
5.1998e-08
5.19956e-08
5.19932e-08
5.19917e-08
5.19913e-08
5.199e-08
5.19925e-08
5.1989e-08
5.19934e-08
5.19777e-08
5.23919e-08
3.32962e-06
2.35155e-08
1.24998e-07
1.2172e-07
1.14926e-07
1.07168e-07
9.99702e-08
9.38225e-08
8.86685e-08
8.43854e-08
8.07763e-08
7.77386e-08
7.51308e-08
7.2901e-08
7.09512e-08
6.92645e-08
6.77627e-08
6.64515e-08
6.5267e-08
6.42266e-08
6.32743e-08
6.2434e-08
6.16547e-08
6.09662e-08
6.03193e-08
5.97465e-08
5.92029e-08
5.87225e-08
5.82622e-08
5.78539e-08
5.74598e-08
5.71136e-08
5.67732e-08
5.64744e-08
5.61791e-08
5.59223e-08
5.56659e-08
5.5444e-08
5.52184e-08
5.50256e-08
5.48271e-08
5.46581e-08
5.44825e-08
5.43339e-08
5.41778e-08
5.40494e-08
5.39101e-08
5.37956e-08
5.36714e-08
5.35728e-08
5.34622e-08
5.33732e-08
5.32777e-08
5.32033e-08
5.31135e-08
5.30454e-08
5.29651e-08
5.29154e-08
5.28391e-08
5.2783e-08
5.27198e-08
5.26644e-08
5.26054e-08
5.25674e-08
5.25121e-08
5.24735e-08
5.24192e-08
5.2382e-08
5.23292e-08
5.22966e-08
5.22499e-08
5.22164e-08
5.2171e-08
5.21411e-08
5.21049e-08
5.20841e-08
5.20665e-08
5.20528e-08
5.2038e-08
5.2028e-08
5.20163e-08
5.2006e-08
5.19979e-08
5.19893e-08
5.19851e-08
5.19804e-08
5.19779e-08
5.19753e-08
5.19737e-08
5.19732e-08
5.19718e-08
5.19742e-08
5.19707e-08
5.19749e-08
5.1959e-08
5.23783e-08
3.3391e-06
2.40139e-08
1.24995e-07
1.21736e-07
1.14965e-07
1.07221e-07
1.00027e-07
9.38786e-08
8.87211e-08
8.44335e-08
8.08196e-08
7.77772e-08
7.5165e-08
7.29312e-08
7.09776e-08
6.92875e-08
6.77827e-08
6.64686e-08
6.52816e-08
6.42389e-08
6.32845e-08
6.24422e-08
6.16611e-08
6.09711e-08
6.03226e-08
5.97485e-08
5.92036e-08
5.87221e-08
5.82607e-08
5.78514e-08
5.74563e-08
5.71092e-08
5.67679e-08
5.64684e-08
5.61723e-08
5.59149e-08
5.56578e-08
5.54354e-08
5.52092e-08
5.50159e-08
5.48168e-08
5.46474e-08
5.44713e-08
5.43223e-08
5.41657e-08
5.4037e-08
5.38973e-08
5.37825e-08
5.36579e-08
5.35591e-08
5.34481e-08
5.33589e-08
5.3263e-08
5.31884e-08
5.30983e-08
5.303e-08
5.29495e-08
5.28995e-08
5.2823e-08
5.27668e-08
5.27035e-08
5.26479e-08
5.25887e-08
5.25506e-08
5.2495e-08
5.24563e-08
5.24019e-08
5.23646e-08
5.23116e-08
5.22789e-08
5.22322e-08
5.21986e-08
5.21531e-08
5.21231e-08
5.20867e-08
5.20656e-08
5.20478e-08
5.20336e-08
5.20189e-08
5.20087e-08
5.19967e-08
5.19863e-08
5.19782e-08
5.19694e-08
5.1965e-08
5.19602e-08
5.19576e-08
5.19549e-08
5.19532e-08
5.19525e-08
5.19511e-08
5.19533e-08
5.19497e-08
5.19537e-08
5.19377e-08
5.23628e-08
3.34992e-06
2.45672e-08
1.24992e-07
1.21753e-07
1.15008e-07
1.0728e-07
1.00092e-07
9.3942e-08
8.87806e-08
8.44879e-08
8.08686e-08
7.7821e-08
7.52037e-08
7.29654e-08
7.10075e-08
6.93137e-08
6.78053e-08
6.64882e-08
6.52983e-08
6.42529e-08
6.32961e-08
6.24517e-08
6.16686e-08
6.09767e-08
6.03265e-08
5.97509e-08
5.92045e-08
5.87217e-08
5.8259e-08
5.78486e-08
5.74524e-08
5.71043e-08
5.67621e-08
5.64618e-08
5.61648e-08
5.59066e-08
5.56488e-08
5.54257e-08
5.51988e-08
5.50049e-08
5.48053e-08
5.46353e-08
5.44587e-08
5.43093e-08
5.41522e-08
5.4023e-08
5.38829e-08
5.37677e-08
5.36427e-08
5.35436e-08
5.34323e-08
5.33427e-08
5.32465e-08
5.31716e-08
5.30812e-08
5.30127e-08
5.29318e-08
5.28816e-08
5.28049e-08
5.27486e-08
5.2685e-08
5.26293e-08
5.25699e-08
5.25315e-08
5.24757e-08
5.2437e-08
5.23823e-08
5.2345e-08
5.22919e-08
5.22589e-08
5.22122e-08
5.21785e-08
5.21329e-08
5.21028e-08
5.20662e-08
5.20447e-08
5.20266e-08
5.2012e-08
5.19973e-08
5.19869e-08
5.19747e-08
5.19642e-08
5.19559e-08
5.1947e-08
5.19425e-08
5.19374e-08
5.19348e-08
5.19319e-08
5.19301e-08
5.19292e-08
5.19276e-08
5.19298e-08
5.1926e-08
5.19298e-08
5.19136e-08
5.23454e-08
3.36206e-06
2.51848e-08
1.24988e-07
1.21773e-07
1.15056e-07
1.07345e-07
1.00163e-07
9.40128e-08
8.88471e-08
8.45487e-08
8.09235e-08
7.787e-08
7.52472e-08
7.30037e-08
7.10412e-08
6.9343e-08
6.78308e-08
6.65101e-08
6.5317e-08
6.42687e-08
6.33092e-08
6.24623e-08
6.1677e-08
6.09831e-08
6.0331e-08
5.97536e-08
5.92056e-08
5.87213e-08
5.82572e-08
5.78455e-08
5.74481e-08
5.7099e-08
5.67557e-08
5.64544e-08
5.61565e-08
5.58975e-08
5.56388e-08
5.5415e-08
5.51874e-08
5.49928e-08
5.47925e-08
5.46219e-08
5.44447e-08
5.42948e-08
5.41372e-08
5.40075e-08
5.38669e-08
5.37513e-08
5.36259e-08
5.35263e-08
5.34146e-08
5.33247e-08
5.3228e-08
5.31529e-08
5.30622e-08
5.29933e-08
5.29121e-08
5.28617e-08
5.27848e-08
5.27283e-08
5.26644e-08
5.26086e-08
5.2549e-08
5.25104e-08
5.24543e-08
5.24154e-08
5.23606e-08
5.23231e-08
5.22698e-08
5.22367e-08
5.21899e-08
5.21561e-08
5.21104e-08
5.20801e-08
5.20434e-08
5.20215e-08
5.20031e-08
5.19879e-08
5.19732e-08
5.19626e-08
5.19502e-08
5.19396e-08
5.1931e-08
5.19219e-08
5.19173e-08
5.1912e-08
5.19092e-08
5.19062e-08
5.19043e-08
5.19032e-08
5.19015e-08
5.19035e-08
5.18996e-08
5.19032e-08
5.18867e-08
5.23261e-08
3.37546e-06
2.58771e-08
1.24985e-07
1.21794e-07
1.15109e-07
1.07418e-07
1.00242e-07
9.40911e-08
8.89208e-08
8.46162e-08
8.09843e-08
7.79244e-08
7.52955e-08
7.30463e-08
7.10786e-08
6.93757e-08
6.78592e-08
6.65346e-08
6.53379e-08
6.42864e-08
6.33239e-08
6.24743e-08
6.16865e-08
6.09903e-08
6.03361e-08
5.97568e-08
5.9207e-08
5.8721e-08
5.82554e-08
5.78423e-08
5.74435e-08
5.70931e-08
5.67487e-08
5.64463e-08
5.61474e-08
5.58875e-08
5.56278e-08
5.54032e-08
5.51747e-08
5.49795e-08
5.47784e-08
5.46072e-08
5.44293e-08
5.42788e-08
5.41206e-08
5.39904e-08
5.38492e-08
5.37332e-08
5.36073e-08
5.35073e-08
5.33951e-08
5.33048e-08
5.32077e-08
5.31322e-08
5.30411e-08
5.2972e-08
5.28904e-08
5.28397e-08
5.27625e-08
5.27059e-08
5.26417e-08
5.25857e-08
5.25259e-08
5.2487e-08
5.24305e-08
5.23916e-08
5.23365e-08
5.22989e-08
5.22454e-08
5.22122e-08
5.21652e-08
5.21314e-08
5.20855e-08
5.2055e-08
5.20182e-08
5.19958e-08
5.1977e-08
5.19614e-08
5.19466e-08
5.19357e-08
5.19231e-08
5.19123e-08
5.19035e-08
5.18943e-08
5.18894e-08
5.1884e-08
5.18811e-08
5.18777e-08
5.18757e-08
5.18745e-08
5.18727e-08
5.18744e-08
5.18704e-08
5.18737e-08
5.18571e-08
5.23048e-08
3.39004e-06
2.66559e-08
1.2498e-07
1.21818e-07
1.15167e-07
1.07497e-07
1.00329e-07
9.41771e-08
8.90017e-08
8.46904e-08
8.10514e-08
7.79843e-08
7.53487e-08
7.30934e-08
7.11199e-08
6.94119e-08
6.78906e-08
6.65617e-08
6.53611e-08
6.4306e-08
6.33402e-08
6.24877e-08
6.16971e-08
6.09984e-08
6.03419e-08
5.97605e-08
5.92087e-08
5.87209e-08
5.82536e-08
5.78389e-08
5.74386e-08
5.70869e-08
5.67412e-08
5.64376e-08
5.61375e-08
5.58766e-08
5.56159e-08
5.53903e-08
5.5161e-08
5.49649e-08
5.4763e-08
5.45911e-08
5.44125e-08
5.42614e-08
5.41024e-08
5.39717e-08
5.383e-08
5.37135e-08
5.35869e-08
5.34864e-08
5.33738e-08
5.32831e-08
5.31854e-08
5.31096e-08
5.30181e-08
5.29487e-08
5.28666e-08
5.28155e-08
5.27381e-08
5.26813e-08
5.26168e-08
5.25607e-08
5.25005e-08
5.24613e-08
5.24045e-08
5.23656e-08
5.23101e-08
5.22724e-08
5.22187e-08
5.21852e-08
5.21382e-08
5.21042e-08
5.20582e-08
5.20276e-08
5.19906e-08
5.19678e-08
5.19485e-08
5.19323e-08
5.19175e-08
5.19063e-08
5.18934e-08
5.18824e-08
5.18734e-08
5.1864e-08
5.18589e-08
5.18532e-08
5.18501e-08
5.18466e-08
5.18445e-08
5.18429e-08
5.1841e-08
5.18425e-08
5.18383e-08
5.18414e-08
5.18245e-08
5.22815e-08
3.40566e-06
2.75337e-08
1.24976e-07
1.21842e-07
1.1523e-07
1.07583e-07
1.00424e-07
9.42709e-08
8.90902e-08
8.47716e-08
8.11248e-08
7.805e-08
7.54071e-08
7.3145e-08
7.11653e-08
6.94516e-08
6.79251e-08
6.65915e-08
6.53866e-08
6.43277e-08
6.33583e-08
6.25025e-08
6.17088e-08
6.10074e-08
6.03484e-08
5.97646e-08
5.92107e-08
5.87209e-08
5.82517e-08
5.78354e-08
5.74334e-08
5.70802e-08
5.67331e-08
5.64283e-08
5.61269e-08
5.58648e-08
5.5603e-08
5.53765e-08
5.51461e-08
5.49491e-08
5.47464e-08
5.45737e-08
5.43943e-08
5.42425e-08
5.40828e-08
5.39514e-08
5.3809e-08
5.3692e-08
5.35648e-08
5.34638e-08
5.33506e-08
5.32595e-08
5.31612e-08
5.3085e-08
5.29931e-08
5.29233e-08
5.28407e-08
5.27893e-08
5.27116e-08
5.26545e-08
5.25897e-08
5.25334e-08
5.24729e-08
5.24334e-08
5.23762e-08
5.23371e-08
5.22814e-08
5.22436e-08
5.21896e-08
5.21559e-08
5.21088e-08
5.20747e-08
5.20285e-08
5.19976e-08
5.19606e-08
5.19372e-08
5.19175e-08
5.19007e-08
5.18858e-08
5.18742e-08
5.1861e-08
5.18499e-08
5.18406e-08
5.18309e-08
5.18257e-08
5.18197e-08
5.18164e-08
5.18126e-08
5.18103e-08
5.18086e-08
5.18065e-08
5.18078e-08
5.18034e-08
5.18061e-08
5.1789e-08
5.22561e-08
3.42214e-06
2.85239e-08
1.2497e-07
1.21869e-07
1.15297e-07
1.07676e-07
1.00526e-07
9.43726e-08
8.91863e-08
8.48599e-08
8.12046e-08
7.81216e-08
7.54707e-08
7.32013e-08
7.12149e-08
6.9495e-08
6.79629e-08
6.66242e-08
6.54146e-08
6.43514e-08
6.33781e-08
6.25188e-08
6.17219e-08
6.10175e-08
6.03557e-08
5.97694e-08
5.92131e-08
5.87212e-08
5.82499e-08
5.78318e-08
5.7428e-08
5.70732e-08
5.67245e-08
5.64183e-08
5.61155e-08
5.58522e-08
5.55892e-08
5.53616e-08
5.51301e-08
5.49322e-08
5.47284e-08
5.45549e-08
5.43746e-08
5.4222e-08
5.40615e-08
5.39295e-08
5.37864e-08
5.36687e-08
5.35409e-08
5.34394e-08
5.33256e-08
5.32339e-08
5.31351e-08
5.30584e-08
5.2966e-08
5.28958e-08
5.28127e-08
5.27609e-08
5.26829e-08
5.26255e-08
5.25603e-08
5.25038e-08
5.2443e-08
5.24031e-08
5.23455e-08
5.23064e-08
5.22503e-08
5.22124e-08
5.21581e-08
5.21242e-08
5.20769e-08
5.20427e-08
5.19964e-08
5.19652e-08
5.19281e-08
5.19042e-08
5.18838e-08
5.18664e-08
5.18514e-08
5.18395e-08
5.1826e-08
5.18146e-08
5.1805e-08
5.17951e-08
5.17896e-08
5.17834e-08
5.17799e-08
5.17758e-08
5.17734e-08
5.17713e-08
5.17691e-08
5.17701e-08
5.17656e-08
5.17679e-08
5.17506e-08
5.22286e-08
3.43924e-06
2.96404e-08
1.24965e-07
1.21897e-07
1.15369e-07
1.07776e-07
1.00636e-07
9.44825e-08
8.92902e-08
8.49555e-08
8.12912e-08
7.81992e-08
7.55399e-08
7.32626e-08
7.12688e-08
6.95423e-08
6.80041e-08
6.66599e-08
6.54452e-08
6.43774e-08
6.33999e-08
6.25368e-08
6.17363e-08
6.10287e-08
6.03638e-08
5.97749e-08
5.9216e-08
5.87217e-08
5.82482e-08
5.78281e-08
5.74224e-08
5.70658e-08
5.67154e-08
5.64077e-08
5.61035e-08
5.58388e-08
5.55744e-08
5.53456e-08
5.5113e-08
5.4914e-08
5.47092e-08
5.45348e-08
5.43535e-08
5.42002e-08
5.40388e-08
5.3906e-08
5.37621e-08
5.36438e-08
5.35152e-08
5.34131e-08
5.32986e-08
5.32065e-08
5.31069e-08
5.30298e-08
5.29368e-08
5.28663e-08
5.27826e-08
5.27303e-08
5.2652e-08
5.25943e-08
5.25288e-08
5.2472e-08
5.24108e-08
5.23706e-08
5.23125e-08
5.22733e-08
5.22168e-08
5.21787e-08
5.21242e-08
5.209e-08
5.20426e-08
5.20082e-08
5.19617e-08
5.19303e-08
5.1893e-08
5.18686e-08
5.18476e-08
5.18296e-08
5.18144e-08
5.1802e-08
5.17882e-08
5.17766e-08
5.17667e-08
5.17566e-08
5.17508e-08
5.17442e-08
5.17406e-08
5.17362e-08
5.17336e-08
5.17312e-08
5.17288e-08
5.17295e-08
5.17248e-08
5.17267e-08
5.17091e-08
5.21989e-08
3.45667e-06
3.08979e-08
1.24959e-07
1.21927e-07
1.15446e-07
1.07883e-07
1.00755e-07
9.46006e-08
8.94021e-08
8.50586e-08
8.13847e-08
7.82831e-08
7.56146e-08
7.33288e-08
7.13272e-08
6.95935e-08
6.80488e-08
6.66987e-08
6.54785e-08
6.44058e-08
6.34237e-08
6.25564e-08
6.17521e-08
6.1041e-08
6.03729e-08
5.9781e-08
5.92193e-08
5.87225e-08
5.82467e-08
5.78243e-08
5.74165e-08
5.70581e-08
5.67059e-08
5.63966e-08
5.60907e-08
5.58246e-08
5.55587e-08
5.53287e-08
5.50948e-08
5.48947e-08
5.46887e-08
5.45133e-08
5.4331e-08
5.41768e-08
5.40144e-08
5.38809e-08
5.37361e-08
5.36171e-08
5.34877e-08
5.3385e-08
5.32698e-08
5.31771e-08
5.30768e-08
5.29992e-08
5.29056e-08
5.28347e-08
5.27503e-08
5.26976e-08
5.26189e-08
5.25609e-08
5.24949e-08
5.2438e-08
5.23763e-08
5.23357e-08
5.22771e-08
5.22378e-08
5.21809e-08
5.21426e-08
5.20878e-08
5.20533e-08
5.20057e-08
5.19712e-08
5.19245e-08
5.18928e-08
5.18554e-08
5.18305e-08
5.18088e-08
5.17901e-08
5.17747e-08
5.17619e-08
5.17477e-08
5.17359e-08
5.17256e-08
5.17152e-08
5.17091e-08
5.17022e-08
5.16984e-08
5.16936e-08
5.16908e-08
5.16881e-08
5.16855e-08
5.16859e-08
5.1681e-08
5.16824e-08
5.16646e-08
5.21671e-08
3.47403e-06
3.23116e-08
1.24952e-07
1.21958e-07
1.15528e-07
1.07997e-07
1.00881e-07
9.47271e-08
8.95221e-08
8.51694e-08
8.14852e-08
7.83734e-08
7.56952e-08
7.34003e-08
7.13903e-08
6.96489e-08
6.80972e-08
6.67407e-08
6.55147e-08
6.44366e-08
6.34496e-08
6.25779e-08
6.17694e-08
6.10546e-08
6.0383e-08
5.97879e-08
5.92233e-08
5.87238e-08
5.82453e-08
5.78207e-08
5.74106e-08
5.70501e-08
5.6696e-08
5.63849e-08
5.60773e-08
5.58096e-08
5.55422e-08
5.53108e-08
5.50755e-08
5.48742e-08
5.4667e-08
5.44905e-08
5.43071e-08
5.41519e-08
5.39886e-08
5.38541e-08
5.37085e-08
5.35887e-08
5.34585e-08
5.3355e-08
5.32391e-08
5.31457e-08
5.30447e-08
5.29665e-08
5.28723e-08
5.28009e-08
5.27159e-08
5.26626e-08
5.25836e-08
5.25251e-08
5.24588e-08
5.24016e-08
5.23395e-08
5.22984e-08
5.22393e-08
5.21998e-08
5.21425e-08
5.21041e-08
5.20489e-08
5.20141e-08
5.19664e-08
5.19316e-08
5.18847e-08
5.18528e-08
5.18152e-08
5.17897e-08
5.17673e-08
5.1748e-08
5.17323e-08
5.17189e-08
5.17044e-08
5.16923e-08
5.16816e-08
5.16709e-08
5.16646e-08
5.16573e-08
5.16532e-08
5.16481e-08
5.16451e-08
5.1642e-08
5.16392e-08
5.16393e-08
5.16341e-08
5.1635e-08
5.1617e-08
5.21329e-08
3.49089e-06
3.38972e-08
1.24946e-07
1.21991e-07
1.15614e-07
1.08118e-07
1.01016e-07
9.48623e-08
8.96505e-08
8.5288e-08
8.15931e-08
7.84704e-08
7.57818e-08
7.34772e-08
7.14582e-08
6.97087e-08
6.81494e-08
6.6786e-08
6.55538e-08
6.447e-08
6.34778e-08
6.26013e-08
6.17884e-08
6.10696e-08
6.03942e-08
5.97958e-08
5.92279e-08
5.87254e-08
5.82442e-08
5.78171e-08
5.74046e-08
5.7042e-08
5.66857e-08
5.63727e-08
5.60632e-08
5.57939e-08
5.55248e-08
5.5292e-08
5.50552e-08
5.48526e-08
5.46441e-08
5.44664e-08
5.42818e-08
5.41257e-08
5.39612e-08
5.38258e-08
5.36792e-08
5.35586e-08
5.34275e-08
5.33232e-08
5.32065e-08
5.31125e-08
5.30106e-08
5.29318e-08
5.28369e-08
5.2765e-08
5.26792e-08
5.26254e-08
5.2546e-08
5.24871e-08
5.24203e-08
5.23629e-08
5.23002e-08
5.22587e-08
5.21991e-08
5.21595e-08
5.21016e-08
5.2063e-08
5.20075e-08
5.19723e-08
5.19245e-08
5.18895e-08
5.18424e-08
5.18101e-08
5.17723e-08
5.17464e-08
5.17232e-08
5.17032e-08
5.16872e-08
5.16732e-08
5.16583e-08
5.16459e-08
5.16348e-08
5.16238e-08
5.16171e-08
5.16094e-08
5.16051e-08
5.15996e-08
5.15964e-08
5.1593e-08
5.15899e-08
5.15896e-08
5.15842e-08
5.15845e-08
5.15662e-08
5.20964e-08
3.50671e-06
3.56711e-08
1.24938e-07
1.22025e-07
1.15705e-07
1.08246e-07
1.01159e-07
9.50061e-08
8.97875e-08
8.54148e-08
8.17084e-08
7.85743e-08
7.58746e-08
7.35597e-08
7.15311e-08
6.97729e-08
6.82056e-08
6.6835e-08
6.5596e-08
6.45062e-08
6.35083e-08
6.26267e-08
6.18091e-08
6.1086e-08
6.04067e-08
5.98045e-08
5.92332e-08
5.87277e-08
5.82435e-08
5.78137e-08
5.73986e-08
5.70337e-08
5.66751e-08
5.63601e-08
5.60486e-08
5.57775e-08
5.55066e-08
5.52722e-08
5.50338e-08
5.48299e-08
5.46199e-08
5.44411e-08
5.42552e-08
5.40979e-08
5.39323e-08
5.37959e-08
5.36482e-08
5.35268e-08
5.33947e-08
5.32896e-08
5.31721e-08
5.30773e-08
5.29745e-08
5.28951e-08
5.27995e-08
5.27271e-08
5.26405e-08
5.2586e-08
5.25062e-08
5.24469e-08
5.23796e-08
5.23219e-08
5.22586e-08
5.22167e-08
5.21564e-08
5.21167e-08
5.20583e-08
5.20195e-08
5.19636e-08
5.1928e-08
5.188e-08
5.18449e-08
5.17975e-08
5.17648e-08
5.17269e-08
5.17004e-08
5.16765e-08
5.16557e-08
5.16393e-08
5.16247e-08
5.16095e-08
5.15967e-08
5.15851e-08
5.15738e-08
5.15667e-08
5.15587e-08
5.1554e-08
5.15481e-08
5.15447e-08
5.15408e-08
5.15376e-08
5.15369e-08
5.15312e-08
5.15308e-08
5.15124e-08
5.20574e-08
3.52089e-06
3.76494e-08
1.2493e-07
1.22061e-07
1.158e-07
1.08381e-07
1.01311e-07
9.51588e-08
8.99332e-08
8.55498e-08
8.18314e-08
7.86852e-08
7.59738e-08
7.36481e-08
7.16093e-08
6.98418e-08
6.8266e-08
6.68876e-08
6.56415e-08
6.45452e-08
6.35414e-08
6.26544e-08
6.18317e-08
6.1104e-08
6.04204e-08
5.98144e-08
5.92394e-08
5.87305e-08
5.82432e-08
5.78106e-08
5.73927e-08
5.70253e-08
5.66643e-08
5.63472e-08
5.60335e-08
5.57605e-08
5.54877e-08
5.52516e-08
5.50116e-08
5.48061e-08
5.45946e-08
5.44145e-08
5.42272e-08
5.40688e-08
5.39019e-08
5.37645e-08
5.36157e-08
5.34934e-08
5.33601e-08
5.32542e-08
5.31357e-08
5.30402e-08
5.29364e-08
5.28564e-08
5.276e-08
5.2687e-08
5.25995e-08
5.25444e-08
5.24641e-08
5.24043e-08
5.23365e-08
5.22785e-08
5.22147e-08
5.21722e-08
5.21113e-08
5.20714e-08
5.20125e-08
5.19735e-08
5.19171e-08
5.18812e-08
5.1833e-08
5.17976e-08
5.175e-08
5.1717e-08
5.16787e-08
5.16518e-08
5.1627e-08
5.16056e-08
5.15887e-08
5.15733e-08
5.15578e-08
5.15446e-08
5.15326e-08
5.15209e-08
5.15134e-08
5.15049e-08
5.15e-08
5.14937e-08
5.14899e-08
5.14856e-08
5.14821e-08
5.1481e-08
5.14751e-08
5.14739e-08
5.14553e-08
5.20158e-08
3.53274e-06
3.98482e-08
1.24922e-07
1.22098e-07
1.159e-07
1.08523e-07
1.01471e-07
9.53205e-08
9.00878e-08
8.56933e-08
8.19623e-08
7.88034e-08
7.60797e-08
7.37424e-08
7.16929e-08
6.99156e-08
6.83307e-08
6.69441e-08
6.56904e-08
6.45873e-08
6.35771e-08
6.26843e-08
6.18563e-08
6.11237e-08
6.04356e-08
5.98254e-08
5.92466e-08
5.87341e-08
5.82434e-08
5.78078e-08
5.73869e-08
5.70168e-08
5.66534e-08
5.63339e-08
5.6018e-08
5.57429e-08
5.54681e-08
5.52302e-08
5.49883e-08
5.47813e-08
5.45682e-08
5.43867e-08
5.41979e-08
5.40383e-08
5.387e-08
5.37315e-08
5.35815e-08
5.34582e-08
5.33239e-08
5.3217e-08
5.30975e-08
5.30012e-08
5.28964e-08
5.28156e-08
5.27184e-08
5.26448e-08
5.25565e-08
5.25005e-08
5.24197e-08
5.23595e-08
5.22911e-08
5.22329e-08
5.21683e-08
5.21254e-08
5.20638e-08
5.20238e-08
5.19642e-08
5.19249e-08
5.18681e-08
5.18318e-08
5.17834e-08
5.17477e-08
5.16999e-08
5.16664e-08
5.1628e-08
5.16005e-08
5.1575e-08
5.15527e-08
5.15353e-08
5.15191e-08
5.15033e-08
5.14897e-08
5.14771e-08
5.14651e-08
5.14571e-08
5.14482e-08
5.14429e-08
5.14361e-08
5.14321e-08
5.14274e-08
5.14236e-08
5.1422e-08
5.14158e-08
5.14137e-08
5.1395e-08
5.19715e-08
3.54149e-06
4.22828e-08
1.24913e-07
1.22136e-07
1.16004e-07
1.08673e-07
1.0164e-07
9.54913e-08
9.02515e-08
8.58455e-08
8.21014e-08
7.89291e-08
7.61925e-08
7.3843e-08
7.17822e-08
6.99945e-08
6.84e-08
6.70047e-08
6.5743e-08
6.46325e-08
6.36156e-08
6.27167e-08
6.1883e-08
6.11452e-08
6.04523e-08
5.98378e-08
5.92548e-08
5.87386e-08
5.82443e-08
5.78054e-08
5.73814e-08
5.70085e-08
5.66423e-08
5.63204e-08
5.60021e-08
5.57248e-08
5.54478e-08
5.52081e-08
5.49643e-08
5.47555e-08
5.45407e-08
5.43577e-08
5.41674e-08
5.40065e-08
5.38368e-08
5.36971e-08
5.35458e-08
5.34214e-08
5.32859e-08
5.31781e-08
5.30575e-08
5.29603e-08
5.28544e-08
5.27729e-08
5.26748e-08
5.26005e-08
5.25112e-08
5.24545e-08
5.23731e-08
5.23124e-08
5.22435e-08
5.2185e-08
5.21196e-08
5.20761e-08
5.20139e-08
5.19736e-08
5.19134e-08
5.18739e-08
5.18166e-08
5.17799e-08
5.17313e-08
5.16953e-08
5.16471e-08
5.16133e-08
5.15745e-08
5.15465e-08
5.15202e-08
5.14972e-08
5.14792e-08
5.14621e-08
5.1446e-08
5.14318e-08
5.14187e-08
5.14063e-08
5.13979e-08
5.13884e-08
5.13828e-08
5.13755e-08
5.13712e-08
5.1366e-08
5.13619e-08
5.13599e-08
5.13533e-08
5.13503e-08
5.13315e-08
5.19244e-08
3.54631e-06
4.49673e-08
1.24904e-07
1.22175e-07
1.16112e-07
1.08829e-07
1.01817e-07
9.56715e-08
9.04245e-08
8.60067e-08
8.22489e-08
7.90626e-08
7.63124e-08
7.39502e-08
7.18774e-08
7.00787e-08
6.84741e-08
6.70696e-08
6.57994e-08
6.46812e-08
6.36571e-08
6.27518e-08
6.1912e-08
6.11688e-08
6.04707e-08
5.98515e-08
5.92641e-08
5.87439e-08
5.82458e-08
5.78035e-08
5.73762e-08
5.70003e-08
5.66312e-08
5.63068e-08
5.59858e-08
5.57063e-08
5.5427e-08
5.51853e-08
5.49394e-08
5.47289e-08
5.45122e-08
5.43276e-08
5.41357e-08
5.39734e-08
5.38021e-08
5.36611e-08
5.35085e-08
5.3383e-08
5.32463e-08
5.31374e-08
5.30157e-08
5.29176e-08
5.28106e-08
5.27282e-08
5.26291e-08
5.25542e-08
5.24639e-08
5.24063e-08
5.23243e-08
5.22631e-08
5.21935e-08
5.21347e-08
5.20684e-08
5.20245e-08
5.19615e-08
5.19211e-08
5.18602e-08
5.18204e-08
5.17625e-08
5.17254e-08
5.16765e-08
5.16403e-08
5.15918e-08
5.15575e-08
5.15184e-08
5.14898e-08
5.14628e-08
5.1439e-08
5.14203e-08
5.14022e-08
5.13859e-08
5.13711e-08
5.13574e-08
5.13446e-08
5.13356e-08
5.13257e-08
5.13197e-08
5.13119e-08
5.13072e-08
5.13015e-08
5.12971e-08
5.12946e-08
5.12877e-08
5.12836e-08
5.12648e-08
5.18744e-08
3.54632e-06
4.7914e-08
1.24894e-07
1.22215e-07
1.16225e-07
1.08992e-07
1.02003e-07
9.58611e-08
9.0607e-08
8.61771e-08
8.24051e-08
7.92042e-08
7.64397e-08
7.4064e-08
7.19787e-08
7.01684e-08
6.85532e-08
6.7139e-08
6.58598e-08
6.47335e-08
6.37018e-08
6.27896e-08
6.19435e-08
6.11944e-08
6.04909e-08
5.98669e-08
5.92748e-08
5.87504e-08
5.82483e-08
5.78023e-08
5.73715e-08
5.69924e-08
5.66203e-08
5.62931e-08
5.59694e-08
5.56875e-08
5.54057e-08
5.51618e-08
5.49138e-08
5.47014e-08
5.44828e-08
5.42965e-08
5.41028e-08
5.3939e-08
5.37662e-08
5.36238e-08
5.34698e-08
5.33431e-08
5.3205e-08
5.3095e-08
5.29721e-08