/*--------------------------------*- C++ -*----------------------------------*\
| =========                 |                                                 |
| \\      /  F ield         | OpenFOAM: The Open Source CFD Toolbox           |
|  \\    /   O peration     | Version:  v2012                                 |
|   \\  /    A nd           | Website:  www.openfoam.com                      |
|    \\/     M anipulation  |                                                 |
\*---------------------------------------------------------------------------*/
FoamFile
{
    version     2.0;
    format      ascii;
    class       volScalarField;
    location    "4.5";
    object      nut;
}
// * * * * * * * * * * * * * * * * * * * * * * * * * * * * * * * * * * * * * //

dimensions      [0 2 -1 0 0 0 0];


internalField   nonuniform List<scalar> 
209825
(
1.25266e-07
1.26167e-07
1.26563e-07
1.26762e-07
1.26881e-07
1.26955e-07
1.27006e-07
1.2704e-07
1.27066e-07
1.27084e-07
1.27098e-07
1.27108e-07
1.27117e-07
1.27122e-07
1.27128e-07
1.27132e-07
1.27135e-07
1.27137e-07
1.2714e-07
1.27141e-07
1.27143e-07
1.27143e-07
1.27143e-07
1.27144e-07
1.27145e-07
1.27144e-07
1.27144e-07
1.27142e-07
1.27142e-07
1.2714e-07
1.2714e-07
1.27138e-07
1.27138e-07
1.27137e-07
1.27137e-07
1.27132e-07
1.27132e-07
1.27128e-07
1.27128e-07
1.27123e-07
1.27123e-07
1.27118e-07
1.27118e-07
1.27108e-07
1.27107e-07
1.27104e-07
1.27104e-07
1.27098e-07
1.27098e-07
1.2709e-07
1.2709e-07
1.27079e-07
1.27073e-07
1.27068e-07
1.27066e-07
1.27056e-07
1.27052e-07
1.27054e-07
1.27054e-07
1.27054e-07
1.27054e-07
1.27052e-07
1.27052e-07
1.27037e-07
1.27035e-07
1.27042e-07
1.27044e-07
1.27033e-07
1.27033e-07
1.27016e-07
1.27021e-07
1.27016e-07
1.27013e-07
1.27018e-07
1.27023e-07
1.27006e-07
1.27005e-07
1.27008e-07
1.27014e-07
1.2702e-07
1.27014e-07
1.27029e-07
1.27018e-07
1.27024e-07
1.27049e-07
1.2704e-07
1.27052e-07
1.27074e-07
1.27093e-07
1.27124e-07
1.27198e-07
1.27236e-07
1.2757e-07
1.27797e-07
1.31283e-07
1.59143e-08
1.25266e-07
1.26167e-07
1.26563e-07
1.26763e-07
1.26882e-07
1.26956e-07
1.27007e-07
1.27041e-07
1.27067e-07
1.27085e-07
1.27099e-07
1.27109e-07
1.27118e-07
1.27124e-07
1.27129e-07
1.27133e-07
1.27136e-07
1.27139e-07
1.27141e-07
1.27143e-07
1.27145e-07
1.27145e-07
1.27145e-07
1.27145e-07
1.27146e-07
1.27145e-07
1.27145e-07
1.27144e-07
1.27144e-07
1.27142e-07
1.27142e-07
1.2714e-07
1.2714e-07
1.27138e-07
1.27138e-07
1.27134e-07
1.27134e-07
1.2713e-07
1.2713e-07
1.27125e-07
1.27125e-07
1.2712e-07
1.2712e-07
1.27109e-07
1.27109e-07
1.27106e-07
1.27106e-07
1.27099e-07
1.27099e-07
1.27091e-07
1.27091e-07
1.2708e-07
1.27075e-07
1.27069e-07
1.27067e-07
1.27058e-07
1.27053e-07
1.27056e-07
1.27056e-07
1.27055e-07
1.27055e-07
1.27053e-07
1.27053e-07
1.27038e-07
1.27036e-07
1.27043e-07
1.27046e-07
1.27035e-07
1.27035e-07
1.27018e-07
1.27022e-07
1.27017e-07
1.27015e-07
1.27019e-07
1.27025e-07
1.27008e-07
1.27007e-07
1.27009e-07
1.27016e-07
1.27021e-07
1.27015e-07
1.2703e-07
1.27019e-07
1.27025e-07
1.27051e-07
1.27042e-07
1.27053e-07
1.27075e-07
1.27094e-07
1.27125e-07
1.27199e-07
1.27238e-07
1.27572e-07
1.27799e-07
1.31288e-07
1.63806e-08
1.25264e-07
1.26165e-07
1.26562e-07
1.26762e-07
1.26882e-07
1.26956e-07
1.27007e-07
1.27042e-07
1.27068e-07
1.27086e-07
1.271e-07
1.2711e-07
1.27119e-07
1.27125e-07
1.27131e-07
1.27134e-07
1.27138e-07
1.2714e-07
1.27143e-07
1.27144e-07
1.27146e-07
1.27146e-07
1.27146e-07
1.27146e-07
1.27148e-07
1.27147e-07
1.27147e-07
1.27145e-07
1.27145e-07
1.27143e-07
1.27143e-07
1.27141e-07
1.27141e-07
1.2714e-07
1.2714e-07
1.27135e-07
1.27135e-07
1.27131e-07
1.27131e-07
1.27126e-07
1.27126e-07
1.27121e-07
1.27121e-07
1.27111e-07
1.2711e-07
1.27107e-07
1.27107e-07
1.27101e-07
1.27101e-07
1.27093e-07
1.27093e-07
1.27082e-07
1.27076e-07
1.27071e-07
1.27069e-07
1.27059e-07
1.27054e-07
1.27057e-07
1.27057e-07
1.27057e-07
1.27057e-07
1.27054e-07
1.27055e-07
1.2704e-07
1.27038e-07
1.27044e-07
1.27047e-07
1.27036e-07
1.27036e-07
1.27019e-07
1.27023e-07
1.27018e-07
1.27016e-07
1.2702e-07
1.27026e-07
1.27009e-07
1.27008e-07
1.27011e-07
1.27017e-07
1.27023e-07
1.27016e-07
1.27032e-07
1.27021e-07
1.27027e-07
1.27052e-07
1.27043e-07
1.27055e-07
1.27077e-07
1.27096e-07
1.27127e-07
1.27202e-07
1.2724e-07
1.27574e-07
1.27805e-07
1.31296e-07
1.69669e-08
1.25261e-07
1.26163e-07
1.2656e-07
1.26761e-07
1.26882e-07
1.26957e-07
1.27008e-07
1.27043e-07
1.27069e-07
1.27088e-07
1.27102e-07
1.27113e-07
1.27122e-07
1.27128e-07
1.27133e-07
1.27137e-07
1.27141e-07
1.27143e-07
1.27146e-07
1.27147e-07
1.27149e-07
1.27149e-07
1.27149e-07
1.2715e-07
1.27151e-07
1.2715e-07
1.2715e-07
1.27148e-07
1.27148e-07
1.27147e-07
1.27147e-07
1.27145e-07
1.27145e-07
1.27143e-07
1.27143e-07
1.27139e-07
1.27139e-07
1.27135e-07
1.27135e-07
1.2713e-07
1.2713e-07
1.27125e-07
1.27125e-07
1.27114e-07
1.27113e-07
1.2711e-07
1.2711e-07
1.27104e-07
1.27104e-07
1.27096e-07
1.27096e-07
1.27085e-07
1.27079e-07
1.27074e-07
1.27072e-07
1.27062e-07
1.27057e-07
1.2706e-07
1.2706e-07
1.2706e-07
1.2706e-07
1.27057e-07
1.27057e-07
1.27043e-07
1.27041e-07
1.27047e-07
1.2705e-07
1.27039e-07
1.27039e-07
1.27022e-07
1.27026e-07
1.27021e-07
1.27019e-07
1.27023e-07
1.27029e-07
1.27012e-07
1.27011e-07
1.27014e-07
1.2702e-07
1.27026e-07
1.27019e-07
1.27035e-07
1.27024e-07
1.2703e-07
1.27056e-07
1.27047e-07
1.27058e-07
1.2708e-07
1.271e-07
1.27131e-07
1.27206e-07
1.27245e-07
1.27578e-07
1.27815e-07
1.31309e-07
1.76251e-08
1.25257e-07
1.26159e-07
1.26558e-07
1.26761e-07
1.26882e-07
1.26958e-07
1.2701e-07
1.27046e-07
1.27072e-07
1.27091e-07
1.27106e-07
1.27117e-07
1.27126e-07
1.27132e-07
1.27138e-07
1.27141e-07
1.27145e-07
1.27148e-07
1.2715e-07
1.27152e-07
1.27154e-07
1.27154e-07
1.27154e-07
1.27154e-07
1.27155e-07
1.27155e-07
1.27155e-07
1.27153e-07
1.27153e-07
1.27151e-07
1.27151e-07
1.27149e-07
1.27149e-07
1.27148e-07
1.27148e-07
1.27144e-07
1.27144e-07
1.27139e-07
1.27139e-07
1.27134e-07
1.27135e-07
1.27129e-07
1.27129e-07
1.27119e-07
1.27118e-07
1.27115e-07
1.27115e-07
1.27109e-07
1.27109e-07
1.27101e-07
1.27101e-07
1.2709e-07
1.27084e-07
1.27078e-07
1.27076e-07
1.27067e-07
1.27062e-07
1.27065e-07
1.27065e-07
1.27064e-07
1.27064e-07
1.27062e-07
1.27062e-07
1.27047e-07
1.27045e-07
1.27052e-07
1.27055e-07
1.27044e-07
1.27044e-07
1.27026e-07
1.27031e-07
1.27026e-07
1.27023e-07
1.27028e-07
1.27034e-07
1.27017e-07
1.27015e-07
1.27018e-07
1.27025e-07
1.2703e-07
1.27024e-07
1.2704e-07
1.27028e-07
1.27034e-07
1.2706e-07
1.27052e-07
1.27063e-07
1.27086e-07
1.27106e-07
1.27137e-07
1.27212e-07
1.27251e-07
1.27583e-07
1.2783e-07
1.31328e-07
1.83468e-08
1.25251e-07
1.26154e-07
1.26556e-07
1.2676e-07
1.26884e-07
1.26961e-07
1.27013e-07
1.2705e-07
1.27077e-07
1.27096e-07
1.27111e-07
1.27122e-07
1.27131e-07
1.27137e-07
1.27143e-07
1.27147e-07
1.27151e-07
1.27154e-07
1.27156e-07
1.27158e-07
1.2716e-07
1.2716e-07
1.2716e-07
1.27161e-07
1.27162e-07
1.27161e-07
1.27161e-07
1.2716e-07
1.2716e-07
1.27158e-07
1.27158e-07
1.27156e-07
1.27156e-07
1.27155e-07
1.27155e-07
1.2715e-07
1.2715e-07
1.27146e-07
1.27146e-07
1.27141e-07
1.27141e-07
1.27136e-07
1.27136e-07
1.27125e-07
1.27125e-07
1.27122e-07
1.27122e-07
1.27115e-07
1.27115e-07
1.27107e-07
1.27107e-07
1.27096e-07
1.2709e-07
1.27085e-07
1.27083e-07
1.27073e-07
1.27068e-07
1.27071e-07
1.27071e-07
1.27071e-07
1.27071e-07
1.27068e-07
1.27068e-07
1.27053e-07
1.27051e-07
1.27058e-07
1.27061e-07
1.2705e-07
1.2705e-07
1.27032e-07
1.27037e-07
1.27032e-07
1.27029e-07
1.27034e-07
1.2704e-07
1.27023e-07
1.27021e-07
1.27024e-07
1.27031e-07
1.27036e-07
1.2703e-07
1.27046e-07
1.27035e-07
1.27041e-07
1.27067e-07
1.27058e-07
1.2707e-07
1.27093e-07
1.27113e-07
1.27145e-07
1.2722e-07
1.2726e-07
1.27591e-07
1.2785e-07
1.31356e-07
1.9131e-08
1.25245e-07
1.26148e-07
1.26553e-07
1.2676e-07
1.26885e-07
1.26964e-07
1.27018e-07
1.27055e-07
1.27082e-07
1.27102e-07
1.27118e-07
1.27129e-07
1.27138e-07
1.27145e-07
1.27151e-07
1.27155e-07
1.27159e-07
1.27161e-07
1.27164e-07
1.27166e-07
1.27168e-07
1.27168e-07
1.27168e-07
1.27169e-07
1.2717e-07
1.27169e-07
1.27169e-07
1.27168e-07
1.27168e-07
1.27166e-07
1.27167e-07
1.27165e-07
1.27165e-07
1.27163e-07
1.27163e-07
1.27159e-07
1.27159e-07
1.27155e-07
1.27155e-07
1.2715e-07
1.2715e-07
1.27145e-07
1.27145e-07
1.27134e-07
1.27133e-07
1.2713e-07
1.2713e-07
1.27124e-07
1.27124e-07
1.27116e-07
1.27116e-07
1.27105e-07
1.27098e-07
1.27093e-07
1.27091e-07
1.27081e-07
1.27076e-07
1.27079e-07
1.27079e-07
1.27079e-07
1.27079e-07
1.27076e-07
1.27076e-07
1.27061e-07
1.27059e-07
1.27066e-07
1.27069e-07
1.27058e-07
1.27057e-07
1.2704e-07
1.27045e-07
1.2704e-07
1.27036e-07
1.27042e-07
1.27048e-07
1.27031e-07
1.27029e-07
1.27032e-07
1.27039e-07
1.27044e-07
1.27038e-07
1.27054e-07
1.27043e-07
1.27049e-07
1.27076e-07
1.27067e-07
1.27079e-07
1.27102e-07
1.27123e-07
1.27154e-07
1.27231e-07
1.27272e-07
1.276e-07
1.27874e-07
1.31394e-07
1.99791e-08
1.25237e-07
1.26142e-07
1.2655e-07
1.2676e-07
1.26887e-07
1.26967e-07
1.27023e-07
1.27061e-07
1.27089e-07
1.27109e-07
1.27126e-07
1.27137e-07
1.27147e-07
1.27154e-07
1.2716e-07
1.27164e-07
1.27168e-07
1.27171e-07
1.27174e-07
1.27176e-07
1.27178e-07
1.27178e-07
1.27178e-07
1.27179e-07
1.2718e-07
1.2718e-07
1.2718e-07
1.27178e-07
1.27179e-07
1.27177e-07
1.27177e-07
1.27175e-07
1.27175e-07
1.27174e-07
1.27174e-07
1.27169e-07
1.27169e-07
1.27165e-07
1.27165e-07
1.2716e-07
1.2716e-07
1.27155e-07
1.27155e-07
1.27144e-07
1.27143e-07
1.2714e-07
1.2714e-07
1.27134e-07
1.27134e-07
1.27126e-07
1.27126e-07
1.27115e-07
1.27109e-07
1.27103e-07
1.271e-07
1.27091e-07
1.27086e-07
1.27089e-07
1.27089e-07
1.27089e-07
1.27089e-07
1.27086e-07
1.27086e-07
1.27071e-07
1.27069e-07
1.27075e-07
1.27079e-07
1.27067e-07
1.27067e-07
1.2705e-07
1.27055e-07
1.27049e-07
1.27046e-07
1.27051e-07
1.27058e-07
1.2704e-07
1.27038e-07
1.27041e-07
1.27048e-07
1.27054e-07
1.27048e-07
1.27064e-07
1.27053e-07
1.27059e-07
1.27086e-07
1.27078e-07
1.27089e-07
1.27112e-07
1.27134e-07
1.27166e-07
1.27243e-07
1.27285e-07
1.27611e-07
1.27904e-07
1.31443e-07
2.08932e-08
1.25228e-07
1.26134e-07
1.26546e-07
1.2676e-07
1.2689e-07
1.26972e-07
1.27029e-07
1.27068e-07
1.27097e-07
1.27118e-07
1.27135e-07
1.27147e-07
1.27157e-07
1.27164e-07
1.27171e-07
1.27175e-07
1.27179e-07
1.27182e-07
1.27185e-07
1.27187e-07
1.2719e-07
1.2719e-07
1.2719e-07
1.27191e-07
1.27192e-07
1.27192e-07
1.27192e-07
1.27191e-07
1.27191e-07
1.27189e-07
1.27189e-07
1.27187e-07
1.27187e-07
1.27186e-07
1.27186e-07
1.27182e-07
1.27182e-07
1.27178e-07
1.27178e-07
1.27173e-07
1.27173e-07
1.27168e-07
1.27168e-07
1.27156e-07
1.27155e-07
1.27153e-07
1.27153e-07
1.27146e-07
1.27146e-07
1.27138e-07
1.27138e-07
1.27127e-07
1.2712e-07
1.27114e-07
1.27112e-07
1.27103e-07
1.27098e-07
1.271e-07
1.271e-07
1.271e-07
1.271e-07
1.27098e-07
1.27098e-07
1.27082e-07
1.2708e-07
1.27087e-07
1.2709e-07
1.27078e-07
1.27078e-07
1.27061e-07
1.27066e-07
1.27061e-07
1.27057e-07
1.27063e-07
1.27069e-07
1.27052e-07
1.27049e-07
1.27052e-07
1.2706e-07
1.27066e-07
1.2706e-07
1.27076e-07
1.27065e-07
1.2707e-07
1.27098e-07
1.2709e-07
1.27102e-07
1.27125e-07
1.27147e-07
1.2718e-07
1.27258e-07
1.27301e-07
1.27624e-07
1.27939e-07
1.31504e-07
2.18753e-08
1.25218e-07
1.26126e-07
1.26542e-07
1.2676e-07
1.26892e-07
1.26977e-07
1.27036e-07
1.27076e-07
1.27107e-07
1.27128e-07
1.27146e-07
1.27158e-07
1.27169e-07
1.27176e-07
1.27183e-07
1.27188e-07
1.27192e-07
1.27195e-07
1.27199e-07
1.27201e-07
1.27203e-07
1.27203e-07
1.27204e-07
1.27205e-07
1.27206e-07
1.27206e-07
1.27206e-07
1.27205e-07
1.27205e-07
1.27203e-07
1.27203e-07
1.27202e-07
1.27202e-07
1.27201e-07
1.27201e-07
1.27196e-07
1.27196e-07
1.27192e-07
1.27192e-07
1.27187e-07
1.27187e-07
1.27182e-07
1.27182e-07
1.2717e-07
1.27169e-07
1.27167e-07
1.27167e-07
1.2716e-07
1.2716e-07
1.27152e-07
1.27152e-07
1.27141e-07
1.27134e-07
1.27128e-07
1.27126e-07
1.27117e-07
1.27111e-07
1.27114e-07
1.27114e-07
1.27114e-07
1.27114e-07
1.27111e-07
1.27111e-07
1.27096e-07
1.27093e-07
1.271e-07
1.27104e-07
1.27092e-07
1.27092e-07
1.27074e-07
1.27079e-07
1.27074e-07
1.2707e-07
1.27076e-07
1.27083e-07
1.27065e-07
1.27062e-07
1.27065e-07
1.27073e-07
1.27079e-07
1.27073e-07
1.2709e-07
1.27079e-07
1.27084e-07
1.27112e-07
1.27105e-07
1.27116e-07
1.2714e-07
1.27163e-07
1.27196e-07
1.27275e-07
1.27319e-07
1.27638e-07
1.27979e-07
1.3158e-07
2.29267e-08
1.25207e-07
1.26116e-07
1.26538e-07
1.26759e-07
1.26896e-07
1.26983e-07
1.27043e-07
1.27086e-07
1.27117e-07
1.2714e-07
1.27158e-07
1.27171e-07
1.27183e-07
1.2719e-07
1.27198e-07
1.27203e-07
1.27207e-07
1.2721e-07
1.27214e-07
1.27216e-07
1.27219e-07
1.27219e-07
1.27219e-07
1.2722e-07
1.27222e-07
1.27222e-07
1.27222e-07
1.27221e-07
1.27221e-07
1.27219e-07
1.27219e-07
1.27218e-07
1.27218e-07
1.27217e-07
1.27217e-07
1.27213e-07
1.27213e-07
1.27209e-07
1.27209e-07
1.27203e-07
1.27203e-07
1.27198e-07
1.27198e-07
1.27186e-07
1.27185e-07
1.27183e-07
1.27183e-07
1.27176e-07
1.27176e-07
1.27168e-07
1.27168e-07
1.27157e-07
1.2715e-07
1.27144e-07
1.27141e-07
1.27132e-07
1.27126e-07
1.27129e-07
1.27129e-07
1.27129e-07
1.27129e-07
1.27126e-07
1.27126e-07
1.27111e-07
1.27108e-07
1.27115e-07
1.27119e-07
1.27107e-07
1.27107e-07
1.27089e-07
1.27094e-07
1.27089e-07
1.27084e-07
1.27091e-07
1.27098e-07
1.2708e-07
1.27077e-07
1.2708e-07
1.27089e-07
1.27094e-07
1.27089e-07
1.27105e-07
1.27094e-07
1.27099e-07
1.27128e-07
1.27121e-07
1.27132e-07
1.27157e-07
1.27181e-07
1.27214e-07
1.27294e-07
1.2734e-07
1.27655e-07
1.28025e-07
1.3167e-07
2.40476e-08
1.25195e-07
1.26105e-07
1.26533e-07
1.26759e-07
1.26899e-07
1.2699e-07
1.27052e-07
1.27096e-07
1.27129e-07
1.27153e-07
1.27172e-07
1.27186e-07
1.27198e-07
1.27206e-07
1.27214e-07
1.27219e-07
1.27224e-07
1.27227e-07
1.27231e-07
1.27233e-07
1.27236e-07
1.27237e-07
1.27237e-07
1.27238e-07
1.2724e-07
1.2724e-07
1.2724e-07
1.27239e-07
1.27239e-07
1.27238e-07
1.27238e-07
1.27236e-07
1.27236e-07
1.27236e-07
1.27236e-07
1.27231e-07
1.27231e-07
1.27227e-07
1.27227e-07
1.27222e-07
1.27222e-07
1.27217e-07
1.27217e-07
1.27205e-07
1.27203e-07
1.27201e-07
1.27201e-07
1.27195e-07
1.27195e-07
1.27186e-07
1.27186e-07
1.27175e-07
1.27168e-07
1.27161e-07
1.27159e-07
1.2715e-07
1.27144e-07
1.27146e-07
1.27147e-07
1.27147e-07
1.27147e-07
1.27144e-07
1.27144e-07
1.27128e-07
1.27125e-07
1.27132e-07
1.27137e-07
1.27124e-07
1.27124e-07
1.27106e-07
1.27112e-07
1.27106e-07
1.27101e-07
1.27108e-07
1.27115e-07
1.27097e-07
1.27094e-07
1.27097e-07
1.27106e-07
1.27112e-07
1.27106e-07
1.27123e-07
1.27112e-07
1.27117e-07
1.27146e-07
1.2714e-07
1.27151e-07
1.27176e-07
1.272e-07
1.27235e-07
1.27315e-07
1.27363e-07
1.27673e-07
1.28076e-07
1.31775e-07
2.52363e-08
1.25181e-07
1.26093e-07
1.26527e-07
1.26759e-07
1.26904e-07
1.26997e-07
1.27062e-07
1.27108e-07
1.27143e-07
1.27168e-07
1.27188e-07
1.27202e-07
1.27215e-07
1.27224e-07
1.27232e-07
1.27237e-07
1.27242e-07
1.27246e-07
1.2725e-07
1.27252e-07
1.27255e-07
1.27256e-07
1.27256e-07
1.27258e-07
1.2726e-07
1.2726e-07
1.2726e-07
1.27259e-07
1.27259e-07
1.27258e-07
1.27258e-07
1.27257e-07
1.27257e-07
1.27256e-07
1.27256e-07
1.27252e-07
1.27252e-07
1.27248e-07
1.27248e-07
1.27242e-07
1.27242e-07
1.27237e-07
1.27237e-07
1.27225e-07
1.27223e-07
1.27222e-07
1.27222e-07
1.27215e-07
1.27215e-07
1.27206e-07
1.27206e-07
1.27195e-07
1.27188e-07
1.27181e-07
1.27178e-07
1.2717e-07
1.27163e-07
1.27166e-07
1.27166e-07
1.27166e-07
1.27166e-07
1.27163e-07
1.27163e-07
1.27147e-07
1.27144e-07
1.27151e-07
1.27156e-07
1.27143e-07
1.27143e-07
1.27125e-07
1.27131e-07
1.27125e-07
1.27119e-07
1.27127e-07
1.27135e-07
1.27116e-07
1.27113e-07
1.27115e-07
1.27125e-07
1.27131e-07
1.27125e-07
1.27142e-07
1.27132e-07
1.27136e-07
1.27166e-07
1.2716e-07
1.27171e-07
1.27197e-07
1.27222e-07
1.27257e-07
1.27339e-07
1.27388e-07
1.27692e-07
1.28134e-07
1.31892e-07
2.64943e-08
1.25167e-07
1.26081e-07
1.26521e-07
1.26759e-07
1.26908e-07
1.27005e-07
1.27073e-07
1.27121e-07
1.27157e-07
1.27184e-07
1.27205e-07
1.2722e-07
1.27233e-07
1.27243e-07
1.27251e-07
1.27257e-07
1.27263e-07
1.27267e-07
1.27271e-07
1.27273e-07
1.27276e-07
1.27277e-07
1.27278e-07
1.27279e-07
1.27282e-07
1.27282e-07
1.27282e-07
1.27281e-07
1.27282e-07
1.2728e-07
1.2728e-07
1.27279e-07
1.27279e-07
1.27279e-07
1.27279e-07
1.27274e-07
1.27274e-07
1.2727e-07
1.2727e-07
1.27265e-07
1.27265e-07
1.2726e-07
1.2726e-07
1.27248e-07
1.27245e-07
1.27244e-07
1.27244e-07
1.27237e-07
1.27237e-07
1.27228e-07
1.27228e-07
1.27217e-07
1.2721e-07
1.27202e-07
1.272e-07
1.27191e-07
1.27184e-07
1.27187e-07
1.27188e-07
1.27187e-07
1.27187e-07
1.27184e-07
1.27184e-07
1.27168e-07
1.27165e-07
1.27172e-07
1.27178e-07
1.27164e-07
1.27163e-07
1.27146e-07
1.27152e-07
1.27146e-07
1.27139e-07
1.27148e-07
1.27156e-07
1.27137e-07
1.27133e-07
1.27136e-07
1.27146e-07
1.27152e-07
1.27147e-07
1.27164e-07
1.27153e-07
1.27158e-07
1.27188e-07
1.27183e-07
1.27194e-07
1.2722e-07
1.27246e-07
1.27282e-07
1.27364e-07
1.27416e-07
1.27714e-07
1.28197e-07
1.32022e-07
2.78257e-08
1.25151e-07
1.26066e-07
1.26514e-07
1.26759e-07
1.26913e-07
1.27014e-07
1.27084e-07
1.27135e-07
1.27173e-07
1.27201e-07
1.27223e-07
1.2724e-07
1.27254e-07
1.27264e-07
1.27273e-07
1.27279e-07
1.27285e-07
1.27289e-07
1.27294e-07
1.27296e-07
1.273e-07
1.27301e-07
1.27301e-07
1.27303e-07
1.27306e-07
1.27306e-07
1.27306e-07
1.27305e-07
1.27306e-07
1.27305e-07
1.27305e-07
1.27304e-07
1.27304e-07
1.27304e-07
1.27304e-07
1.27299e-07
1.27299e-07
1.27295e-07
1.27295e-07
1.2729e-07
1.2729e-07
1.27285e-07
1.27285e-07
1.27272e-07
1.2727e-07
1.27269e-07
1.27269e-07
1.27262e-07
1.27262e-07
1.27252e-07
1.27252e-07
1.27242e-07
1.27234e-07
1.27226e-07
1.27223e-07
1.27215e-07
1.27208e-07
1.27211e-07
1.27211e-07
1.27211e-07
1.27211e-07
1.27208e-07
1.27208e-07
1.27192e-07
1.27188e-07
1.27195e-07
1.27201e-07
1.27187e-07
1.27186e-07
1.27169e-07
1.27175e-07
1.27169e-07
1.27162e-07
1.27171e-07
1.27179e-07
1.2716e-07
1.27156e-07
1.27159e-07
1.27169e-07
1.27175e-07
1.2717e-07
1.27187e-07
1.27177e-07
1.27181e-07
1.27212e-07
1.27208e-07
1.27218e-07
1.27245e-07
1.27273e-07
1.27309e-07
1.27392e-07
1.27446e-07
1.27737e-07
1.28266e-07
1.32159e-07
2.92351e-08
1.25134e-07
1.26051e-07
1.26506e-07
1.26758e-07
1.26918e-07
1.27023e-07
1.27097e-07
1.2715e-07
1.2719e-07
1.2722e-07
1.27243e-07
1.27261e-07
1.27276e-07
1.27286e-07
1.27296e-07
1.27303e-07
1.27309e-07
1.27314e-07
1.27319e-07
1.27321e-07
1.27325e-07
1.27326e-07
1.27327e-07
1.27329e-07
1.27332e-07
1.27332e-07
1.27332e-07
1.27332e-07
1.27333e-07
1.27331e-07
1.27331e-07
1.2733e-07
1.27331e-07
1.27331e-07
1.27331e-07
1.27326e-07
1.27326e-07
1.27323e-07
1.27323e-07
1.27317e-07
1.27317e-07
1.27312e-07
1.27312e-07
1.27299e-07
1.27296e-07
1.27295e-07
1.27295e-07
1.27289e-07
1.27288e-07
1.27278e-07
1.27278e-07
1.27268e-07
1.2726e-07
1.27252e-07
1.27249e-07
1.27241e-07
1.27233e-07
1.27236e-07
1.27237e-07
1.27237e-07
1.27237e-07
1.27233e-07
1.27233e-07
1.27217e-07
1.27213e-07
1.2722e-07
1.27227e-07
1.27212e-07
1.27211e-07
1.27193e-07
1.272e-07
1.27194e-07
1.27186e-07
1.27196e-07
1.27205e-07
1.27186e-07
1.2718e-07
1.27183e-07
1.27195e-07
1.27201e-07
1.27195e-07
1.27213e-07
1.27203e-07
1.27207e-07
1.27238e-07
1.27235e-07
1.27245e-07
1.27273e-07
1.27301e-07
1.27338e-07
1.27422e-07
1.27479e-07
1.27763e-07
1.28341e-07
1.32301e-07
3.07274e-08
1.25116e-07
1.26034e-07
1.26498e-07
1.26757e-07
1.26923e-07
1.27032e-07
1.2711e-07
1.27166e-07
1.27208e-07
1.2724e-07
1.27265e-07
1.27284e-07
1.27299e-07
1.27311e-07
1.27321e-07
1.27329e-07
1.27335e-07
1.2734e-07
1.27345e-07
1.27349e-07
1.27352e-07
1.27354e-07
1.27355e-07
1.27357e-07
1.2736e-07
1.2736e-07
1.2736e-07
1.2736e-07
1.27361e-07
1.2736e-07
1.2736e-07
1.27359e-07
1.27359e-07
1.2736e-07
1.2736e-07
1.27356e-07
1.27356e-07
1.27352e-07
1.27352e-07
1.27346e-07
1.27346e-07
1.27342e-07
1.27342e-07
1.27328e-07
1.27325e-07
1.27324e-07
1.27324e-07
1.27317e-07
1.27317e-07
1.27307e-07
1.27307e-07
1.27297e-07
1.27289e-07
1.2728e-07
1.27277e-07
1.27269e-07
1.27261e-07
1.27264e-07
1.27264e-07
1.27264e-07
1.27264e-07
1.2726e-07
1.27261e-07
1.27244e-07
1.2724e-07
1.27247e-07
1.27254e-07
1.27239e-07
1.27238e-07
1.2722e-07
1.27227e-07
1.27221e-07
1.27212e-07
1.27223e-07
1.27232e-07
1.27213e-07
1.27207e-07
1.2721e-07
1.27222e-07
1.27228e-07
1.27223e-07
1.2724e-07
1.2723e-07
1.27234e-07
1.27267e-07
1.27264e-07
1.27274e-07
1.27302e-07
1.27332e-07
1.27369e-07
1.27455e-07
1.27514e-07
1.2779e-07
1.28422e-07
1.32447e-07
3.23074e-08
1.25097e-07
1.26017e-07
1.26489e-07
1.26756e-07
1.26928e-07
1.27043e-07
1.27124e-07
1.27183e-07
1.27228e-07
1.27261e-07
1.27288e-07
1.27308e-07
1.27325e-07
1.27337e-07
1.27348e-07
1.27356e-07
1.27363e-07
1.27369e-07
1.27374e-07
1.27378e-07
1.27382e-07
1.27384e-07
1.27385e-07
1.27387e-07
1.2739e-07
1.27391e-07
1.27391e-07
1.27391e-07
1.27392e-07
1.27391e-07
1.27391e-07
1.27391e-07
1.27391e-07
1.27392e-07
1.27392e-07
1.27387e-07
1.27387e-07
1.27384e-07
1.27384e-07
1.27378e-07
1.27378e-07
1.27373e-07
1.27373e-07
1.27359e-07
1.27356e-07
1.27356e-07
1.27356e-07
1.27349e-07
1.27349e-07
1.27338e-07
1.27338e-07
1.27328e-07
1.27319e-07
1.2731e-07
1.27307e-07
1.273e-07
1.27291e-07
1.27293e-07
1.27294e-07
1.27294e-07
1.27294e-07
1.2729e-07
1.27291e-07
1.27274e-07
1.27269e-07
1.27276e-07
1.27284e-07
1.27268e-07
1.27267e-07
1.27249e-07
1.27256e-07
1.2725e-07
1.27241e-07
1.27252e-07
1.27262e-07
1.27242e-07
1.27236e-07
1.27238e-07
1.27251e-07
1.27258e-07
1.27253e-07
1.2727e-07
1.2726e-07
1.27264e-07
1.27297e-07
1.27295e-07
1.27305e-07
1.27334e-07
1.27365e-07
1.27403e-07
1.27489e-07
1.27551e-07
1.27819e-07
1.28509e-07
1.32598e-07
3.39805e-08
1.25077e-07
1.25997e-07
1.26478e-07
1.26754e-07
1.26933e-07
1.27053e-07
1.27139e-07
1.27201e-07
1.27248e-07
1.27284e-07
1.27312e-07
1.27334e-07
1.27352e-07
1.27365e-07
1.27377e-07
1.27385e-07
1.27393e-07
1.27399e-07
1.27405e-07
1.27409e-07
1.27413e-07
1.27415e-07
1.27416e-07
1.27419e-07
1.27423e-07
1.27424e-07
1.27424e-07
1.27424e-07
1.27425e-07
1.27424e-07
1.27424e-07
1.27424e-07
1.27424e-07
1.27426e-07
1.27426e-07
1.27421e-07
1.27421e-07
1.27418e-07
1.27418e-07
1.27412e-07
1.27412e-07
1.27407e-07
1.27407e-07
1.27393e-07
1.27389e-07
1.27389e-07
1.27389e-07
1.27382e-07
1.27382e-07
1.27371e-07
1.27371e-07
1.27361e-07
1.27352e-07
1.27342e-07
1.27339e-07
1.27332e-07
1.27323e-07
1.27325e-07
1.27326e-07
1.27326e-07
1.27326e-07
1.27322e-07
1.27323e-07
1.27305e-07
1.273e-07
1.27308e-07
1.27316e-07
1.273e-07
1.27298e-07
1.27281e-07
1.27288e-07
1.27281e-07
1.27271e-07
1.27284e-07
1.27293e-07
1.27273e-07
1.27267e-07
1.27269e-07
1.27283e-07
1.27289e-07
1.27284e-07
1.27302e-07
1.27292e-07
1.27296e-07
1.2733e-07
1.27328e-07
1.27338e-07
1.27368e-07
1.274e-07
1.27439e-07
1.27526e-07
1.27591e-07
1.2785e-07
1.28602e-07
1.32753e-07
3.57523e-08
1.25056e-07
1.25977e-07
1.26467e-07
1.26752e-07
1.26938e-07
1.27064e-07
1.27154e-07
1.2722e-07
1.2727e-07
1.27308e-07
1.27338e-07
1.27361e-07
1.2738e-07
1.27395e-07
1.27408e-07
1.27417e-07
1.27425e-07
1.27431e-07
1.27438e-07
1.27442e-07
1.27446e-07
1.27449e-07
1.2745e-07
1.27453e-07
1.27457e-07
1.27458e-07
1.27458e-07
1.27459e-07
1.2746e-07
1.2746e-07
1.2746e-07
1.2746e-07
1.2746e-07
1.27462e-07
1.27462e-07
1.27457e-07
1.27457e-07
1.27454e-07
1.27454e-07
1.27448e-07
1.27448e-07
1.27443e-07
1.27443e-07
1.27429e-07
1.27424e-07
1.27425e-07
1.27425e-07
1.27418e-07
1.27418e-07
1.27406e-07
1.27406e-07
1.27396e-07
1.27387e-07
1.27377e-07
1.27374e-07
1.27367e-07
1.27357e-07
1.27359e-07
1.2736e-07
1.27361e-07
1.27361e-07
1.27355e-07
1.27357e-07
1.27339e-07
1.27333e-07
1.27341e-07
1.2735e-07
1.27334e-07
1.27332e-07
1.27314e-07
1.27322e-07
1.27314e-07
1.27304e-07
1.27317e-07
1.27327e-07
1.27307e-07
1.273e-07
1.27302e-07
1.27316e-07
1.27323e-07
1.27318e-07
1.27336e-07
1.27327e-07
1.2733e-07
1.27364e-07
1.27364e-07
1.27374e-07
1.27404e-07
1.27437e-07
1.27477e-07
1.27565e-07
1.27633e-07
1.27883e-07
1.28701e-07
1.32912e-07
3.76278e-08
1.25033e-07
1.25955e-07
1.26455e-07
1.26749e-07
1.26943e-07
1.27075e-07
1.2717e-07
1.2724e-07
1.27293e-07
1.27333e-07
1.27365e-07
1.2739e-07
1.2741e-07
1.27426e-07
1.2744e-07
1.2745e-07
1.27458e-07
1.27465e-07
1.27473e-07
1.27477e-07
1.27482e-07
1.27485e-07
1.27486e-07
1.27489e-07
1.27494e-07
1.27495e-07
1.27495e-07
1.27496e-07
1.27498e-07
1.27497e-07
1.27497e-07
1.27498e-07
1.27498e-07
1.275e-07
1.275e-07
1.27496e-07
1.27496e-07
1.27492e-07
1.27492e-07
1.27486e-07
1.27486e-07
1.27482e-07
1.27482e-07
1.27467e-07
1.27462e-07
1.27463e-07
1.27463e-07
1.27456e-07
1.27456e-07
1.27443e-07
1.27443e-07
1.27434e-07
1.27425e-07
1.27413e-07
1.2741e-07
1.27404e-07
1.27394e-07
1.27396e-07
1.27397e-07
1.27397e-07
1.27397e-07
1.27391e-07
1.27393e-07
1.27375e-07
1.27369e-07
1.27376e-07
1.27386e-07
1.2737e-07
1.27367e-07
1.27349e-07
1.27357e-07
1.2735e-07
1.27339e-07
1.27352e-07
1.27364e-07
1.27343e-07
1.27335e-07
1.27337e-07
1.27352e-07
1.27359e-07
1.27354e-07
1.27372e-07
1.27363e-07
1.27366e-07
1.27401e-07
1.27402e-07
1.27411e-07
1.27442e-07
1.27476e-07
1.27517e-07
1.27606e-07
1.27678e-07
1.27918e-07
1.28806e-07
1.33075e-07
3.96127e-08
1.2501e-07
1.25931e-07
1.26441e-07
1.26746e-07
1.26947e-07
1.27086e-07
1.27186e-07
1.2726e-07
1.27316e-07
1.27359e-07
1.27394e-07
1.2742e-07
1.27442e-07
1.27459e-07
1.27474e-07
1.27485e-07
1.27494e-07
1.27502e-07
1.27509e-07
1.27514e-07
1.27519e-07
1.27522e-07
1.27525e-07
1.27528e-07
1.27533e-07
1.27534e-07
1.27534e-07
1.27535e-07
1.27537e-07
1.27537e-07
1.27537e-07
1.27538e-07
1.27538e-07
1.27541e-07
1.27541e-07
1.27536e-07
1.27536e-07
1.27533e-07
1.27533e-07
1.27527e-07
1.27527e-07
1.27523e-07
1.27523e-07
1.27507e-07
1.27502e-07
1.27503e-07
1.27503e-07
1.27496e-07
1.27496e-07
1.27483e-07
1.27483e-07
1.27474e-07
1.27464e-07
1.27453e-07
1.27449e-07
1.27444e-07
1.27432e-07
1.27434e-07
1.27436e-07
1.27436e-07
1.27436e-07
1.2743e-07
1.27431e-07
1.27414e-07
1.27407e-07
1.27414e-07
1.27424e-07
1.27408e-07
1.27405e-07
1.27387e-07
1.27395e-07
1.27387e-07
1.27376e-07
1.2739e-07
1.27402e-07
1.27381e-07
1.27372e-07
1.27374e-07
1.2739e-07
1.27398e-07
1.27393e-07
1.27411e-07
1.27402e-07
1.27404e-07
1.2744e-07
1.27442e-07
1.27451e-07
1.27482e-07
1.27518e-07
1.2756e-07
1.27649e-07
1.27725e-07
1.27955e-07
1.28916e-07
1.33241e-07
4.17123e-08
1.24986e-07
1.25906e-07
1.26426e-07
1.26741e-07
1.26952e-07
1.27097e-07
1.27203e-07
1.27281e-07
1.27341e-07
1.27387e-07
1.27424e-07
1.27452e-07
1.27476e-07
1.27494e-07
1.2751e-07
1.27521e-07
1.27531e-07
1.2754e-07
1.27548e-07
1.27553e-07
1.27559e-07
1.27562e-07
1.27565e-07
1.27568e-07
1.27573e-07
1.27575e-07
1.27576e-07
1.27577e-07
1.27579e-07
1.27579e-07
1.27579e-07
1.2758e-07
1.2758e-07
1.27584e-07
1.27584e-07
1.27579e-07
1.27579e-07
1.27576e-07
1.27576e-07
1.2757e-07
1.2757e-07
1.27566e-07
1.27566e-07
1.2755e-07
1.27544e-07
1.27546e-07
1.27546e-07
1.27539e-07
1.27539e-07
1.27525e-07
1.27525e-07
1.27517e-07
1.27507e-07
1.27494e-07
1.2749e-07
1.27485e-07
1.27473e-07
1.27475e-07
1.27477e-07
1.27477e-07
1.27477e-07
1.2747e-07
1.27472e-07
1.27454e-07
1.27446e-07
1.27454e-07
1.27465e-07
1.27448e-07
1.27444e-07
1.27427e-07
1.27436e-07
1.27427e-07
1.27415e-07
1.2743e-07
1.27443e-07
1.27421e-07
1.27412e-07
1.27413e-07
1.2743e-07
1.27438e-07
1.27433e-07
1.27452e-07
1.27442e-07
1.27445e-07
1.27481e-07
1.27484e-07
1.27493e-07
1.27525e-07
1.27562e-07
1.27605e-07
1.27694e-07
1.27774e-07
1.27994e-07
1.29031e-07
1.33411e-07
4.39318e-08
1.24961e-07
1.25879e-07
1.2641e-07
1.26736e-07
1.26955e-07
1.27108e-07
1.2722e-07
1.27303e-07
1.27366e-07
1.27415e-07
1.27454e-07
1.27485e-07
1.2751e-07
1.2753e-07
1.27547e-07
1.2756e-07
1.2757e-07
1.2758e-07
1.27589e-07
1.27594e-07
1.276e-07
1.27604e-07
1.27607e-07
1.27611e-07
1.27616e-07
1.27619e-07
1.27619e-07
1.27621e-07
1.27623e-07
1.27623e-07
1.27623e-07
1.27624e-07
1.27625e-07
1.27629e-07
1.2763e-07
1.27625e-07
1.27625e-07
1.27622e-07
1.27622e-07
1.27616e-07
1.27616e-07
1.27612e-07
1.27612e-07
1.27595e-07
1.27589e-07
1.27591e-07
1.27591e-07
1.27584e-07
1.27584e-07
1.2757e-07
1.2757e-07
1.27561e-07
1.27551e-07
1.27538e-07
1.27533e-07
1.2753e-07
1.27517e-07
1.27518e-07
1.2752e-07
1.2752e-07
1.2752e-07
1.27513e-07
1.27515e-07
1.27497e-07
1.27489e-07
1.27496e-07
1.27508e-07
1.27491e-07
1.27486e-07
1.27469e-07
1.27478e-07
1.27469e-07
1.27456e-07
1.27472e-07
1.27485e-07
1.27463e-07
1.27453e-07
1.27455e-07
1.27472e-07
1.27481e-07
1.27476e-07
1.27494e-07
1.27485e-07
1.27487e-07
1.27524e-07
1.27528e-07
1.27537e-07
1.27569e-07
1.27608e-07
1.27652e-07
1.27742e-07
1.27826e-07
1.28035e-07
1.29152e-07
1.33584e-07
4.6276e-08
1.24935e-07
1.25851e-07
1.26393e-07
1.2673e-07
1.26958e-07
1.27119e-07
1.27237e-07
1.27325e-07
1.27392e-07
1.27445e-07
1.27487e-07
1.27519e-07
1.27546e-07
1.27568e-07
1.27586e-07
1.276e-07
1.27611e-07
1.27621e-07
1.27631e-07
1.27638e-07
1.27644e-07
1.27648e-07
1.27651e-07
1.27655e-07
1.27661e-07
1.27664e-07
1.27664e-07
1.27666e-07
1.27669e-07
1.2767e-07
1.2767e-07
1.27671e-07
1.27671e-07
1.27677e-07
1.27677e-07
1.27672e-07
1.27672e-07
1.2767e-07
1.2767e-07
1.27663e-07
1.27663e-07
1.2766e-07
1.2766e-07
1.27643e-07
1.27636e-07
1.27638e-07
1.27638e-07
1.27631e-07
1.27631e-07
1.27616e-07
1.27616e-07
1.27609e-07
1.27598e-07
1.27584e-07
1.27579e-07
1.27576e-07
1.27562e-07
1.27564e-07
1.27565e-07
1.27565e-07
1.27565e-07
1.27557e-07
1.2756e-07
1.27542e-07
1.27533e-07
1.2754e-07
1.27553e-07
1.27536e-07
1.27531e-07
1.27513e-07
1.27523e-07
1.27514e-07
1.275e-07
1.27516e-07
1.27531e-07
1.27508e-07
1.27497e-07
1.27499e-07
1.27517e-07
1.27526e-07
1.27521e-07
1.27539e-07
1.27531e-07
1.27532e-07
1.27569e-07
1.27575e-07
1.27584e-07
1.27616e-07
1.27656e-07
1.27701e-07
1.27791e-07
1.2788e-07
1.28078e-07
1.29277e-07
1.33759e-07
4.87488e-08
1.24908e-07
1.25821e-07
1.26374e-07
1.26722e-07
1.26961e-07
1.2713e-07
1.27254e-07
1.27347e-07
1.27419e-07
1.27475e-07
1.2752e-07
1.27555e-07
1.27584e-07
1.27607e-07
1.27627e-07
1.27642e-07
1.27654e-07
1.27665e-07
1.27676e-07
1.27682e-07
1.27689e-07
1.27694e-07
1.27698e-07
1.27702e-07
1.27708e-07
1.27712e-07
1.27712e-07
1.27714e-07
1.27718e-07
1.27718e-07
1.27718e-07
1.2772e-07
1.2772e-07
1.27727e-07
1.27727e-07
1.27722e-07
1.27722e-07
1.2772e-07
1.2772e-07
1.27713e-07
1.27713e-07
1.2771e-07
1.2771e-07
1.27693e-07
1.27685e-07
1.27688e-07
1.27688e-07
1.27681e-07
1.27681e-07
1.27665e-07
1.27665e-07
1.27658e-07
1.27647e-07