/*--------------------------------*- C++ -*----------------------------------*\
| =========                 |                                                 |
| \\      /  F ield         | OpenFOAM: The Open Source CFD Toolbox           |
|  \\    /   O peration     | Version:  v2012                                 |
|   \\  /    A nd           | Website:  www.openfoam.com                      |
|    \\/     M anipulation  |                                                 |
\*---------------------------------------------------------------------------*/
FoamFile
{
    version     2.0;
    format      ascii;
    class       volScalarField;
    location    "4.5";
    object      omega;
}
// * * * * * * * * * * * * * * * * * * * * * * * * * * * * * * * * * * * * * //

dimensions      [0 0 -1 0 0 0 0];


internalField   nonuniform List<scalar> 
209825
(
8384.56
8253.54
8211.61
8193.4
8183.29
8177.48
8173.55
8171.06
8169.17
8167.93
8166.9
8166.23
8165.63
8165.26
8164.89
8164.69
8164.45
8164.35
8164.18
8164.14
8164.02
8164.08
8164.07
8164.11
8164.03
8164.18
8164.18
8164.33
8164.32
8164.53
8164.53
8164.76
8164.76
8165.04
8165.04
8165.36
8165.36
8165.72
8165.72
8166.12
8166.12
8166.57
8166.57
8167.33
8167.34
8167.67
8167.67
8168.21
8168.21
8168.84
8168.84
8169.85
8170.22
8170.55
8170.55
8171.24
8171.54
8171.59
8171.59
8171.8
8171.8
8172.24
8172.24
8173.19
8173.27
8173.27
8173.26
8173.96
8173.96
8175.04
8175.6
8176.14
8176.4
8176.4
8176.39
8177.47
8177.54
8178.25
8178.25
8178.24
8179.04
8179.04
8180.44
8181.04
8181.04
8182.57
8183.86
8184.99
8187.61
8189.43
8194.51
8197.12
8217.04
8235.82
8432.46
118073
8384.51
8253.39
8211.4
8193.16
8183.04
8177.21
8173.28
8170.78
8168.88
8167.64
8166.6
8165.94
8165.33
8164.97
8164.59
8164.39
8164.15
8164.05
8163.88
8163.84
8163.72
8163.77
8163.77
8163.8
8163.73
8163.87
8163.87
8164.03
8164.02
8164.23
8164.23
8164.46
8164.46
8164.73
8164.73
8165.06
8165.05
8165.42
8165.42
8165.82
8165.82
8166.27
8166.27
8167.03
8167.04
8167.37
8167.37
8167.91
8167.91
8168.54
8168.54
8169.55
8169.92
8170.25
8170.25
8170.94
8171.24
8171.3
8171.3
8171.5
8171.5
8171.94
8171.94
8172.89
8172.97
8172.97
8172.96
8173.66
8173.66
8174.74
8175.3
8175.84
8176.1
8176.1
8176.1
8177.18
8177.25
8177.95
8177.96
8177.95
8178.75
8178.75
8180.15
8180.75
8180.76
8182.28
8183.58
8184.71
8187.33
8189.15
8194.24
8196.85
8216.77
8235.6
8432.33
114779
8384.27
8252.81
8210.66
8192.32
8182.14
8176.28
8172.32
8169.8
8167.89
8166.64
8165.59
8164.92
8164.31
8163.94
8163.56
8163.36
8163.11
8163.01
8162.84
8162.8
8162.67
8162.73
8162.73
8162.76
8162.68
8162.83
8162.83
8162.98
8162.97
8163.18
8163.18
8163.41
8163.41
8163.69
8163.69
8164.01
8164.01
8164.37
8164.37
8164.77
8164.77
8165.22
8165.22
8165.99
8166
8166.33
8166.33
8166.86
8166.87
8167.5
8167.5
8168.51
8168.88
8169.22
8169.22
8169.9
8170.21
8170.27
8170.27
8170.47
8170.47
8170.91
8170.91
8171.86
8171.94
8171.94
8171.94
8172.64
8172.64
8173.72
8174.28
8174.82
8175.09
8175.09
8175.08
8176.16
8176.24
8176.94
8176.95
8176.94
8177.74
8177.74
8179.14
8179.76
8179.76
8181.29
8182.59
8183.72
8186.35
8188.18
8193.27
8195.9
8215.79
8234.79
8431.49
110998
8383.85
8251.82
8209.37
8190.87
8180.59
8174.66
8170.66
8168.11
8166.17
8164.9
8163.84
8163.16
8162.54
8162.17
8161.78
8161.57
8161.33
8161.22
8161.05
8161.01
8160.88
8160.93
8160.93
8160.96
8160.88
8161.03
8161.03
8161.18
8161.17
8161.38
8161.38
8161.61
8161.61
8161.88
8161.88
8162.2
8162.2
8162.57
8162.57
8162.97
8162.97
8163.42
8163.42
8164.19
8164.21
8164.53
8164.53
8165.07
8165.07
8165.7
8165.7
8166.72
8167.09
8167.43
8167.43
8168.12
8168.42
8168.49
8168.49
8168.7
8168.69
8169.14
8169.14
8170.09
8170.17
8170.18
8170.17
8170.88
8170.88
8171.96
8172.52
8173.06
8173.33
8173.33
8173.33
8174.41
8174.5
8175.2
8175.2
8175.2
8176.01
8176.01
8177.41
8178.03
8178.03
8179.56
8180.88
8182.02
8184.65
8186.49
8191.6
8194.24
8214.09
8233.38
8429.99
107111
8383.26
8250.39
8207.53
8188.8
8178.38
8172.36
8168.29
8165.69
8163.72
8162.43
8161.35
8160.65
8160.02
8159.63
8159.24
8159.03
8158.78
8158.67
8158.49
8158.44
8158.31
8158.37
8158.36
8158.39
8158.31
8158.45
8158.45
8158.6
8158.59
8158.8
8158.8
8159.03
8159.03
8159.31
8159.3
8159.63
8159.63
8159.99
8159.99
8160.4
8160.39
8160.85
8160.85
8161.62
8161.65
8161.97
8161.97
8162.51
8162.51
8163.15
8163.15
8164.17
8164.54
8164.89
8164.89
8165.57
8165.88
8165.95
8165.95
8166.16
8166.15
8166.6
8166.6
8167.56
8167.65
8167.65
8167.64
8168.36
8168.36
8169.44
8170.01
8170.55
8170.83
8170.83
8170.83
8171.91
8172
8172.72
8172.72
8172.71
8173.53
8173.52
8174.94
8175.57
8175.57
8177.11
8178.43
8179.58
8182.22
8184.08
8189.21
8191.88
8211.64
8231.36
8427.91
103223
8382.48
8248.53
8205.12
8186.09
8175.49
8169.35
8165.19
8162.54
8160.52
8159.2
8158.09
8157.38
8156.73
8156.33
8155.92
8155.7
8155.45
8155.33
8155.15
8155.1
8154.96
8155.01
8155.01
8155.03
8154.95
8155.09
8155.09
8155.24
8155.23
8155.44
8155.43
8155.67
8155.67
8155.94
8155.94
8156.26
8156.26
8156.63
8156.63
8157.04
8157.03
8157.49
8157.49
8158.27
8158.3
8158.62
8158.61
8159.16
8159.16
8159.81
8159.8
8160.83
8161.21
8161.56
8161.56
8162.24
8162.56
8162.64
8162.64
8162.84
8162.84
8163.29
8163.29
8164.25
8164.35
8164.35
8164.34
8165.07
8165.07
8166.15
8166.73
8167.28
8167.56
8167.56
8167.56
8168.65
8168.75
8169.47
8169.47
8169.47
8170.29
8170.29
8171.7
8172.36
8172.36
8173.9
8175.24
8176.4
8179.05
8180.93
8186.08
8188.78
8208.43
8228.73
8425.3
99374.8
8381.51
8246.23
8202.15
8182.75
8171.91
8165.62
8161.36
8158.64
8156.56
8155.2
8154.06
8153.32
8152.65
8152.24
8151.82
8151.59
8151.32
8151.2
8151.01
8150.96
8150.81
8150.86
8150.86
8150.88
8150.79
8150.93
8150.93
8151.07
8151.06
8151.27
8151.27
8151.5
8151.5
8151.77
8151.77
8152.1
8152.1
8152.46
8152.46
8152.87
8152.87
8153.33
8153.33
8154.12
8154.16
8154.47
8154.47
8155.02
8155.02
8155.67
8155.67
8156.7
8157.08
8157.44
8157.44
8158.12
8158.45
8158.54
8158.54
8158.74
8158.73
8159.2
8159.2
8160.16
8160.26
8160.26
8160.25
8160.99
8160.99
8162.08
8162.66
8163.22
8163.51
8163.51
8163.5
8164.6
8164.72
8165.44
8165.45
8165.44
8166.28
8166.27
8167.7
8168.38
8168.38
8169.92
8171.29
8172.46
8175.13
8177.03
8182.2
8184.95
8204.44
8225.47
8422.22
95585.8
8380.37
8243.48
8198.6
8178.75
8167.64
8161.17
8156.79
8153.97
8151.83
8150.41
8149.24
8148.47
8147.77
8147.34
8146.91
8146.66
8146.39
8146.26
8146.06
8146
8145.85
8145.9
8145.89
8145.9
8145.81
8145.95
8145.95
8146.09
8146.08
8146.29
8146.28
8146.52
8146.52
8146.79
8146.79
8147.11
8147.11
8147.48
8147.48
8147.89
8147.89
8148.36
8148.36
8149.15
8149.2
8149.5
8149.5
8150.06
8150.06
8150.72
8150.72
8151.75
8152.15
8152.52
8152.52
8153.19
8153.53
8153.63
8153.64
8153.83
8153.82
8154.29
8154.29
8155.27
8155.37
8155.38
8155.37
8156.12
8156.12
8157.21
8157.79
8158.36
8158.66
8158.66
8158.66
8159.76
8159.89
8160.63
8160.63
8160.63
8161.48
8161.48
8162.9
8163.61
8163.61
8165.16
8166.55
8167.75
8170.43
8172.36
8177.56
8180.36
8199.66
8221.58
8418.73
91865.4
8379.06
8240.3
8194.47
8174.1
8162.66
8155.98
8151.45
8148.53
8146.31
8144.83
8143.61
8142.81
8142.08
8141.63
8141.18
8140.92
8140.63
8140.49
8140.28
8140.22
8140.06
8140.1
8140.09
8140.1
8140
8140.14
8140.14
8140.28
8140.26
8140.47
8140.47
8140.7
8140.7
8140.97
8140.97
8141.29
8141.29
8141.67
8141.67
8142.08
8142.08
8142.55
8142.55
8143.35
8143.41
8143.71
8143.71
8144.27
8144.27
8144.94
8144.94
8145.98
8146.38
8146.76
8146.77
8147.44
8147.79
8147.91
8147.91
8148.09
8148.09
8148.57
8148.57
8149.55
8149.67
8149.67
8149.66
8150.43
8150.43
8151.52
8152.11
8152.69
8153
8153.01
8153
8154.12
8154.26
8155.01
8155.01
8155.01
8155.87
8155.87
8157.31
8158.05
8158.05
8159.61
8161.03
8162.24
8164.93
8166.9
8172.13
8174.99
8194.06
8217.04
8414.88
88216.9
8377.56
8236.67
8189.75
8168.77
8156.97
8150.04
8145.34
8142.29
8139.98
8138.44
8137.17
8136.32
8135.56
8135.08
8134.61
8134.33
8134.03
8133.88
8133.66
8133.59
8133.42
8133.46
8133.45
8133.45
8133.34
8133.48
8133.48
8133.61
8133.59
8133.8
8133.8
8134.03
8134.03
8134.3
8134.3
8134.63
8134.62
8135
8135
8135.42
8135.42
8135.89
8135.89
8136.71
8136.78
8137.06
8137.06
8137.63
8137.63
8138.32
8138.31
8139.36
8139.78
8140.17
8140.17
8140.84
8141.21
8141.34
8141.34
8141.52
8141.52
8142.01
8142.01
8143
8143.13
8143.13
8143.12
8143.91
8143.91
8145
8145.6
8146.18
8146.52
8146.52
8146.51
8147.64
8147.81
8148.57
8148.57
8148.57
8149.45
8149.45
8150.89
8151.67
8151.68
8153.23
8154.69
8155.92
8158.64
8160.64
8165.9
8168.84
8187.64
8211.86
8410.71
84639.1
8375.89
8232.59
8184.44
8162.78
8150.54
8143.34
8138.44
8135.25
8132.84
8131.22
8129.89
8128.99
8128.2
8127.69
8127.19
8126.9
8126.57
8126.41
8126.18
8126.1
8125.92
8125.95
8125.94
8125.93
8125.81
8125.95
8125.95
8126.08
8126.06
8126.26
8126.26
8126.49
8126.49
8126.76
8126.76
8127.09
8127.09
8127.47
8127.47
8127.89
8127.89
8128.36
8128.36
8129.2
8129.28
8129.56
8129.56
8130.14
8130.14
8130.83
8130.83
8131.88
8132.31
8132.72
8132.72
8133.38
8133.77
8133.92
8133.93
8134.09
8134.09
8134.6
8134.6
8135.59
8135.73
8135.74
8135.73
8136.54
8136.54
8137.63
8138.24
8138.84
8139.19
8139.19
8139.19
8140.32
8140.51
8141.29
8141.29
8141.29
8142.19
8142.19
8143.64
8144.46
8144.47
8146.03
8147.53
8148.78
8151.52
8153.56
8158.86
8161.87
8180.37
8206
8406.22
81126.7
8374.05
8228.06
8178.53
8156.09
8143.38
8135.86
8130.74
8127.4
8124.87
8123.16
8121.76
8120.81
8119.98
8119.43
8118.9
8118.59
8118.25
8118.07
8117.83
8117.74
8117.55
8117.57
8117.55
8117.54
8117.41
8117.54
8117.54
8117.67
8117.64
8117.84
8117.84
8118.07
8118.07
8118.34
8118.34
8118.67
8118.67
8119.05
8119.05
8119.48
8119.48
8119.96
8119.96
8120.8
8120.91
8121.17
8121.17
8121.76
8121.76
8122.47
8122.46
8123.53
8123.97
8124.4
8124.4
8125.05
8125.45
8125.62
8125.64
8125.79
8125.79
8126.31
8126.31
8127.32
8127.47
8127.47
8127.47
8128.3
8128.31
8129.4
8130.02
8130.63
8131
8131
8131
8132.15
8132.36
8133.16
8133.16
8133.16
8134.07
8134.07
8135.54
8136.4
8136.42
8137.99
8139.52
8140.8
8143.56
8145.64
8150.97
8154.09
8172.23
8199.48
8401.4
77670.7
8372.05
8223.09
8172.02
8148.72
8135.47
8127.6
8122.23
8118.72
8116.05
8114.25
8112.77
8111.76
8110.87
8110.29
8109.73
8109.39
8109.03
8108.83
8108.58
8108.48
8108.28
8108.29
8108.27
8108.24
8108.1
8108.23
8108.23
8108.35
8108.32
8108.52
8108.52
8108.75
8108.75
8109.02
8109.02
8109.35
8109.35
8109.73
8109.73
8110.16
8110.16
8110.65
8110.65
8111.51
8111.63
8111.88
8111.88
8112.48
8112.48
8113.21
8113.21
8114.28
8114.73
8115.18
8115.18
8115.83
8116.25
8116.44
8116.46
8116.61
8116.61
8117.14
8117.14
8118.16
8118.33
8118.33
8118.32
8119.18
8119.19
8120.29
8120.92
8121.54
8121.93
8121.93
8121.93
8123.09
8123.33
8124.15
8124.15
8124.15
8125.09
8125.09
8126.57
8127.48
8127.5
8129.08
8130.65
8131.96
8134.74
8136.87
8142.24
8145.45
8163.21
8192.26
8396.17
74270.2
8369.88
8217.66
8164.9
8140.65
8126.8
8118.54
8112.9
8109.19
8106.38
8104.46
8102.89
8101.82
8100.88
8100.26
8099.66
8099.29
8098.91
8098.69
8098.42
8098.31
8098.09
8098.1
8098.07
8098.03
8097.88
8098.01
8098.01
8098.12
8098.09
8098.29
8098.29
8098.51
8098.51
8098.77
8098.77
8099.11
8099.11
8099.49
8099.49
8099.93
8099.93
8100.42
8100.42
8101.3
8101.45
8101.68
8101.68
8102.29
8102.29
8103.04
8103.03
8104.11
8104.58
8105.06
8105.06
8105.69
8106.14
8106.34
8106.38
8106.51
8106.51
8107.07
8107.06
8108.09
8108.28
8108.28
8108.27
8109.16
8109.18
8110.28
8110.92
8111.55
8111.97
8111.97
8111.96
8113.15
8113.41
8114.25
8114.26
8114.26
8115.22
8115.22
8116.71
8117.67
8117.71
8119.28
8120.9
8122.24
8125.04
8127.23
8132.63
8135.96
8153.3
8184.33
8390.42
70931.4
8367.55
8211.79
8157.17
8131.87
8117.37
8108.68
8102.73
8098.8
8095.83
8093.79
8092.13
8090.98
8089.98
8089.31
8088.68
8088.28
8087.86
8087.63
8087.34
8087.21
8086.98
8086.97
8086.94
8086.89
8086.72
8086.85
8086.85
8086.96
8086.91
8087.11
8087.11
8087.33
8087.33
8087.6
8087.59
8087.93
8087.93
8088.32
8088.32
8088.76
8088.76
8089.26
8089.26
8090.16
8090.32
8090.54
8090.55
8091.17
8091.17
8091.93
8091.93
8093.02
8093.5
8094
8094
8094.63
8095.1
8095.33
8095.38
8095.49
8095.49
8096.07
8096.07
8097.11
8097.31
8097.31
8097.31
8098.22
8098.25
8099.35
8100
8100.64
8101.09
8101.09
8101.09
8102.29
8102.58
8103.44
8103.46
8103.45
8104.44
8104.44
8105.95
8106.95
8107.01
8108.59
8110.25
8111.63
8114.45
8116.7
8122.13
8125.59
8142.46
8175.68
8383.95
67659.8
8365.07
8205.47
8148.82
8122.38
8107.16
8097.99
8091.71
8087.55
8084.4
8082.23
8080.45
8079.23
8078.16
8077.44
8076.76
8076.32
8075.88
8075.62
8075.31
8075.17
8074.92
8074.9
8074.86
8074.8
8074.62
8074.74
8074.74
8074.84
8074.79
8074.99
8074.99
8075.2
8075.2
8075.46
8075.46
8075.8
8075.8
8076.19
8076.19
8076.64
8076.64
8077.15
8077.15
8078.06
8078.25
8078.46
8078.46
8079.1
8079.1
8079.88
8079.87
8080.97
8081.47
8082.01
8082.01
8082.62
8083.11
8083.37
8083.43
8083.53
8083.53
8084.13
8084.13
8085.18
8085.41
8085.41
8085.4
8086.34
8086.38
8087.48
8088.15
8088.81
8089.29
8089.29
8089.28
8090.5
8090.82
8091.71
8091.73
8091.73
8092.74
8092.74
8094.26
8095.32
8095.4
8096.98
8098.69
8100.11
8102.95
8105.25
8110.72
8114.32
8130.7
8166.29
8376.58
64460.8
8362.43
8198.71
8139.87
8112.17
8096.17
8086.48
8079.84
8075.41
8072.06
8069.74
8067.85
8066.54
8065.4
8064.62
8063.89
8063.42
8062.94
8062.66
8062.32
8062.16
8061.9
8061.87
8061.81
8061.75
8061.54
8061.66
8061.66
8061.75
8061.69
8061.89
8061.89
8062.1
8062.1
8062.36
8062.36
8062.69
8062.69
8063.09
8063.09
8063.55
8063.54
8064.06
8064.06
8065
8065.21
8065.4
8065.4
8066.05
8066.05
8066.86
8066.85
8067.96
8068.48
8069.04
8069.05
8069.64
8070.17
8070.44
8070.53
8070.61
8070.61
8071.23
8071.23
8072.29
8072.55
8072.55
8072.54
8073.51
8073.57
8074.67
8075.34
8076.02
8076.53
8076.53
8076.52
8077.76
8078.12
8079.03
8079.06
8079.05
8080.1
8080.1
8081.63
8082.75
8082.85
8084.44
8086.19
8087.65
8090.52
8092.88
8098.38
8102.13
8117.99
8156.13
8368.27
61339.2
8359.66
8191.51
8130.29
8101.24
8084.39
8074.13
8067.09
8062.38
8058.81
8056.33
8054.32
8052.9
8051.68
8050.84
8050.05
8049.54
8049.03
8048.72
8048.36
8048.18
8047.89
8047.85
8047.78
8047.71
8047.48
8047.59
8047.59
8047.67
8047.6
8047.8
8047.8
8048.01
8048.01
8048.26
8048.26
8048.59
8048.59
8049
8048.99
8049.46
8049.46
8049.98
8049.98
8050.94
8051.17
8051.35
8051.35
8052.02
8052.02
8052.85
8052.85
8053.97
8054.5
8055.09
8055.1
8055.68
8056.24
8056.54
8056.64
8056.71
8056.71
8057.35
8057.36
8058.43
8058.71
8058.71
8058.7
8059.7
8059.78
8060.88
8061.56
8062.25
8062.81
8062.81
8062.8
8064.05
8064.45
8065.39
8065.43
8065.42
8066.5
8066.5
8068.05
8069.23
8069.35
8070.94
8072.74
8074.25
8077.14
8079.56
8085.08
8089
8104.31
8145.2
8359.02
58299.6
8356.75
8183.87
8120.1
8089.58
8071.81
8060.94
8053.46
8048.43
8044.64
8041.98
8039.82
8038.3
8036.99
8036.08
8035.24
8034.68
8034.13
8033.78
8033.39
8033.19
8032.89
8032.83
8032.75
8032.66
8032.42
8032.52
8032.51
8032.59
8032.51
8032.7
8032.7
8032.91
8032.91
8033.15
8033.15
8033.49
8033.49
8033.89
8033.89
8034.36
8034.36
8034.89
8034.89
8035.87
8036.13
8036.3
8036.3
8036.98
8036.98
8037.84
8037.83
8038.96
8039.51
8040.14
8040.16
8040.71
8041.3
8041.64
8041.76
8041.81
8041.81
8042.48
8042.48
8043.57
8043.88
8043.88
8043.87
8044.9
8045
8046.1
8046.79
8047.5
8048.1
8048.09
8048.09
8049.36
8049.79
8050.76
8050.81
8050.8
8051.91
8051.92
8053.48
8054.72
8054.87
8056.46
8058.32
8059.87
8062.78
8065.28
8070.82
8074.91
8089.64
8133.45
8348.8
55346.2
8353.71
8175.8
8109.29
8077.2
8058.42
8046.88
8038.94
8033.57
8029.52
8026.67
8024.36
8022.72
8021.31
8020.33
8019.42
8018.81
8018.21
8017.84
8017.42
8017.19
8016.87
8016.79
8016.69
8016.59
8016.33
8016.42
8016.42
8016.48
8016.39
8016.58
8016.58
8016.78
8016.78
8017.02
8017.01
8017.35
8017.35
8017.76
8017.76
8018.24
8018.23
8018.78
8018.78
8019.78
8020.06
8020.21
8020.22
8020.92
8020.92
8021.8
8021.8
8022.94
8023.51
8024.17
8024.2
8024.73
8025.35
8025.71
8025.85
8025.89
8025.89
8026.6
8026.6
8027.69
8028.04
8028.03
8028.02
8029.08
8029.22
8030.31
8031.01
8031.75
8032.38
8032.38
8032.37
8033.66
8034.13
8035.13
8035.2
8035.19
8036.33
8036.34
8037.92
8039.22
8039.41
8041
8042.9
8044.5
8047.44
8050
8055.55
8059.84
8073.96
8120.88
8337.58
52482.9
8350.54
8167.31
8097.87
8064.07
8044.22
8031.96
8023.51
8017.78
8013.45
8010.39
8007.91
8006.15
8004.63
8003.56
8002.59
8001.93
8001.28
8000.86
8000.41
8000.16
7999.81
7999.71
7999.6
7999.49
7999.2
7999.29
7999.28
7999.32
7999.22
7999.41
7999.41
7999.6
7999.6
7999.84
7999.83
8000.17
8000.17
8000.58
8000.58
8001.06
8001.06
8001.61
8001.61
8002.63
8002.95
8003.09
8003.09
8003.81
8003.81
8004.72
8004.72
8005.87
8006.46
8007.15
8007.2
8007.69
8008.36
8008.75
8008.91
8008.94
8008.94
8009.68
8009.68
8010.78
8011.16
8011.15
8011.15
8012.23
8012.41
8013.49
8014.21
8014.96
8015.64
8015.63
8015.63
8016.94
8017.45
8018.48
8018.56
8018.56
8019.74
8019.75
8021.34
8022.71
8022.93
8024.52
8026.47
8028.13
8031.08
8033.72
8039.28
8043.78
8057.26
8107.44
8325.33
49713.2
8347.27
8158.4
8085.84
8050.22
8029.2
8016.17
8007.17
8001.04
7996.41
7993.12
7990.47
7988.56
7986.94
7985.78
7984.73
7984
7983.3
7982.85
7982.36
7982.08
7981.7
7981.58
7981.45
7981.32
7981.01
7981.09
7981.08
7981.11
7980.99
7981.18
7981.18
7981.36
7981.36
7981.59
7981.58
7981.92
7981.92
7982.33
7982.33
7982.82
7982.82
7983.38
7983.38
7984.43
7984.77
7984.89
7984.89
7985.63
7985.63
7986.58
7986.57
7987.73
7988.35
7989.08
7989.14
7989.6
7990.31
7990.73
7990.92
7990.94
7990.93
7991.71
7991.71
7992.82
7993.23
7993.22
7993.22
7994.33
7994.55
7995.62
7996.35
7997.12
7997.85
7997.85
7997.84
7999.18
7999.72
8000.79
8000.89
8000.88
8002.1
8002.11
8003.72
8005.16
8005.42
8007.01
8009.01
8010.72
8013.69
8016.41
8021.97
8026.69
8039.51
8093.12
8312.03
47040.3
8343.89
8149.08
8073.19
8035.62
8013.37
7999.5
7989.9
7983.35
7978.39
7974.86
7972.01
7969.96
7968.2
7966.95
7965.81
7965.02
7964.27
7963.77
7963.24
7962.93
7962.52
7962.37
7962.22
7962.09
7961.75
7961.81
7961.8
7961.81
7961.68
7961.86
7961.86
7962.04
7962.04
7962.26
7962.25
7962.58
7962.58
7963
7963
7963.5
7963.49
7964.06
7964.06
7965.13
7965.51
7965.62
7965.62
7966.37
7966.38
7967.35
7967.35
7968.52
7969.15
7969.92
7970
7970.43
7971.18
7971.64
7971.84
7971.85
7971.85
7972.66
7972.66
7973.78
7974.23
7974.23
7974.22
7975.36
7975.62
7976.69
7977.43
7978.22
7979
7978.99
7978.99
7980.35
7980.93
7982.04
7982.16
7982.15
7983.41
7983.43
7985.04
7986.55
7986.87
7988.46
7990.5
7992.26
7995.25
7998.05
8003.6
8008.57
8020.7
8077.88
8297.64
44466.9
8340.41
8139.36
8059.94
8020.29
7996.7
7981.94
7971.71
7964.69
7959.38
7955.59
7952.53
7950.31
7948.42
7947.06
7945.84
7944.98
7944.16
7943.61
7943.04
7942.69
7942.25
7942.08
7941.91
7941.75
7941.39
7941.44
7941.42
7941.42
7941.27
7941.45
7941.45
7941.62
7941.61
7941.83
7941.81
7942.14
7942.14
7942.56
7942.56
7943.07
7943.06
7943.64
7943.64
7944.74
7945.14
7945.23
7945.24
7946.01
7946.02
7947.03
7947.02
7948.2
7948.86
7949.67
7949.76
7950.15
7950.96
7951.44
7951.67
7951.68
7951.68
7952.52
7952.52
7953.64
7954.14
7954.14
7954.13
7955.3
7955.61
7956.68
7957.42
7958.24
7959.06
7959.06
7959.06
7960.44
7961.06
7962.21
7962.36
7962.35
7963.65
7963.66
7965.29
7966.87
7967.24
7968.83
7970.92
7972.74
7975.74
7978.62
7984.15
7989.38
8000.8
8061.67
8282.13
41995.4
8336.84
8129.25
8046.08
8004.22
7979.21
7963.49
7952.57
7945.06
7939.37
7935.29
7932.01
7929.61
7927.58
7926.1
7924.78
7923.84
7922.96
7922.36
7921.73
7921.35
7920.88
7920.68
7920.48
7920.31
7919.92
7919.95
7919.93
7919.91
7919.74
7919.91
7919.91
7920.07
7920.06
7920.27
7920.25
7920.58
7920.58
7921
7921
7921.51
7921.51
7922.1
7922.1
7923.21
7923.65
7923.73
7923.73
7924.53
7924.53
7925.58
7925.58
7926.76
7927.44
7928.3
7928.41
7928.76
7929.61
7930.13
7930.39
7930.39
7930.39
7931.28
7931.28
7932.4
7932.94
7932.94
7932.93
7934.13
7934.49
7935.55
7936.3
7937.14
7938.03
7938.02
7938.02
7939.42
7940.09
7941.28
7941.45
7941.44
7942.79
7942.8
7944.45
7946.09
7946.53
7948.11
7950.24
7952.12
7955.14
7958.1
7963.6
7969.11
7979.79
8044.46
8265.46
39627.9
8333.2
8118.75
8031.63
7987.41
7960.89
7944.14
7932.49
7924.44
7918.35
7913.96
7910.43
7907.84
7905.66
7904.05
7902.63
7901.61
7900.65
7899.99
7899.32
7898.89
7898.38
7898.15
7897.92
7897.74
7897.32
7897.34
7897.3
7897.27
7897.07
7897.24
7897.24
7897.39
7897.38
7897.57
7897.55
7897.88
7897.87
7898.3
7898.29
7898.81
7898.81
7899.41
7899.41
7900.55
7901.02
7901.09
7901.09
7901.91
7901.91
7903
7903
7904.18
7904.89
7905.78
7905.92
7906.22
7907.13
7907.68
7907.97
7907.97
7907.96
7908.9
7908.9
7910.02
7910.61
7910.61
7910.6
7911.83
7912.25
7913.3
7914.06
7914.92
7915.87
7915.87
7915.86
7917.28
7917.99
7919.23
7919.43
7919.42
7920.82
7920.82
7922.49
7924.2
7924.7
7926.28
7928.45
7930.39
7933.42
7936.47
7941.92
7947.74
7957.65
8026.21
8247.59
37366.1
8329.48
8107.89
8016.6
7969.88
7941.74
7923.89
7911.45
7902.83
7896.3
7891.59
7887.79
7885
7882.64
7880.91
7879.37
7878.25
7877.22
7876.49
7875.76
7875.3
7874.74
7874.48
7874.22
7874.02
7873.58
7873.57
7873.52
7873.47
7873.25
7873.41
7873.41
7873.55
7873.53
7873.72
7873.69
7874.01
7874.01
7874.43
7874.43
7874.95
7874.95
7875.56
7875.55
7876.73
7877.23
7877.28
7877.28
7878.12
7878.13
7879.26
7879.25
7880.44
7881.17
7882.11
7882.27
7882.53
7883.49
7884.08
7884.4
7884.39
7884.39
7885.37
7885.38
7886.49
7887.13
7887.14
7887.12
7888.39
7888.86
7889.91
7890.67
7891.56
7892.56
7892.57
7892.56
7894.01
7894.76
7896.03
7896.27
7896.26
7897.71
7897.71
7899.39
7901.17
7901.75
7903.32
7905.52
7907.53
7910.57
7913.71
7919.11
7925.25
7934.37
8006.87
8228.49
35211.3
8325.71
8096.68
8000.99
7951.61
7921.75
7902.73
7889.45
7880.22
7873.23
7868.15
7864.08
7861.06
7858.52
7856.64
7854.98
7853.77
7852.65
7851.86
7851.06
7850.55
7849.95
7849.65
7849.36
7849.13
7848.67
7848.63
7848.57
7848.51
7848.26
7848.41
7848.41
7848.54
7848.52
7848.69
7848.65
7848.97
7848.97
7849.38
7849.38
7849.92
7849.91
7850.52
7850.52
7851.72
7852.25
7852.29
7852.3
7853.16
7853.16
7854.34
7854.34
7855.53
7856.28
7857.26
7857.45
7857.66
7858.68
7859.31
7859.66
7859.65
7859.64
7860.68
7860.68
7861.79
7862.48
7862.49
7862.48
7863.77
7864.3
7865.36
7866.12
7867.03
7868.1
7868.11
7868.1
7869.57
7870.36
7871.68
7871.95
7871.95
7873.45
7873.45
7875.14
7876.99
7877.64
7879.21
7881.44
7883.52
7886.57
7889.8
7895.13
7901.6
7909.93
7986.38
8208.1
33164.6
8321.9
8085.12
7984.81
7932.63
7900.93
7880.67
7866.49
7856.61
7849.11
7843.66
7839.28
7836.02
7833.29
7831.25
7829.45
7828.14
7826.92
7826.06
7825.2
7824.63
7823.98
7823.64
7823.32
7823.07
7822.57
7822.52
7822.44
7822.35
7822.08
7822.22
7822.22
7822.34
7822.31
7822.47
7822.42
7822.73
7822.73
7823.14
7823.14
7823.68
7823.67
7824.3
7824.29
7825.51
7826.08
7826.11
7826.11
7827
7827
7828.22
7828.22
7829.41
7830.19
7831.22
7831.43
7831.59
7832.67
7833.33
7833.72
7833.72
7833.71
7834.79
7834.8
7835.89
7836.65
7836.66
7836.65
7837.97
7838.56
7839.62
7840.38
7841.32
7842.45
7842.46
7842.45
7843.95
7844.79
7846.15
7846.46
7846.46
7848.01
7848.02
7849.72
7851.63
7852.36
7853.94
7856.19
7858.34
7861.39
7864.71
7869.97
7876.78
7884.3
7964.69
8186.37
31226.6
8318.05
8073.24
7968.07
7912.92
7879.29
7857.7
7842.57
7831.98
7823.95
7818.08
7813.38
7809.87
7806.92
7804.71
7802.78
7801.34
7800.03
7799.08
7798.16
7797.53
7796.83
7796.44
7796.09
7795.81
7795.28
7795.2
7795.1
7795
7794.7
7794.83
7794.82
7794.93
7794.89
7795.04
7794.98
7795.28
7795.28
7795.68
7795.68
7796.23
7796.22
7796.85
7796.85
7798.09
7798.69
7798.71
7798.71
7799.63
7799.63
7800.89
7800.9
7802.08
7802.89
7803.96
7804.19
7804.32
7805.45
7806.15
7806.58
7806.58
7806.56
7807.7
7807.72
7808.79
7809.61
7809.62
7809.61
7810.96
7811.62
7812.68
7813.43
7814.4
7815.6
7815.62
7815.61
7817.13
7818.01
7819.42
7819.77
7819.78
7821.38
7821.39
7823.11
7825.08
7825.9
7827.47
7829.75
7831.97
7835.01
7838.43
7843.6
7850.76
7857.48
7941.74
8163.26
29398
8314.17
8061.05
7950.79
7892.51
7856.82
7833.82
7817.67
7806.33
7797.73
7791.43
7786.37
7782.59
7779.41
7777.03
7774.93
7773.38
7771.96
7770.92
7769.92
7769.23
7768.47
7768.04
7767.64
7767.33
7766.77
7766.66
7766.54
7766.42
7766.09
7766.21
7766.2
7766.29
7766.24
7766.38
7766.3
7766.59
7766.59
7766.99
7766.99
7767.54
7767.53
7768.17
7768.16
7769.44
7770.07
7770.08
7770.08
7771.02
7771.02
7772.33
7772.34
7773.52
7774.35
7775.47
7775.72
7775.81
7777
7777.73
7778.21
7778.21
7778.19
7779.38
7779.42
7780.46
7781.35
7781.36
7781.35
7782.72
7783.45
7784.53
7785.27
7786.27
7787.53
7787.56
7787.55
7789.09
7790.02
7791.47
7791.87
7791.88
7793.54
7793.55
7795.28
7797.32
7798.22
7799.8
7802.09
7804.38
7807.42
7810.94
7816.01
7823.53
7829.44
7917.48
8138.72
27679.1
8310.29
8048.57
7932.98
7871.4
7833.54
7809.03
7791.8
7779.67
7770.45
7763.68
7758.25
7754.17
7750.75
7748.17
7745.92
7744.23
7742.69
7741.56
7740.47
7739.72
7738.9
7738.42
7737.97
7737.63
7737.03
7736.89
7736.75
7736.61
7736.24
7736.35
7736.34
7736.41
7736.36
7736.47
7736.39
7736.67
7736.66
7737.06
7737.06
7737.6
7737.6
7738.24
7738.23
7739.53
7740.19
7740.19
7740.19
7741.16
7741.16
7742.51
7742.54
7743.7
7744.56
7745.73
7745.99
7746.05
7747.29
7748.07
7748.59
7748.59
7748.57
7749.81
7749.88
7750.88
7751.85
7751.85
7751.85
7753.25
7754.04
7755.13
7755.86
7756.89
7758.22
7758.26
7758.26
7759.81
7760.79
7762.28
7762.74
7762.75
7764.47
7764.49
7766.23
7768.32
7769.31
7770.9
7773.2
7775.56
7778.6
7782.21
7787.18
7795.05
7800.16
7891.84
8112.68
26070
8306.4
8035.82
7914.66
7849.61
7809.44
7783.35
7764.96
7751.98
7742.11
7734.84
7729.01
7724.61
7720.93
7718.14
7715.71
7713.88
7712.21
7710.99
7709.81
7708.98
7708.1
7707.56
7707.06
7706.69
7706.05
7705.87
7705.7
7705.55
7705.15
7705.24
7705.22
7705.27
7705.21
7705.31
7705.21
7705.48
7705.47
7705.85
7705.85
7706.4
7706.39
7707.04
7707.04
7708.36
7709.04
7709.04
7709.04
7710.03
7710.03
7711.43
7711.48
7712.61
7713.5
7714.72
7714.99
7715.03
7716.32
7717.14
7717.71
7717.72
7717.7
7718.98
7719.09
7720.04
7721.08
7721.09
7721.09
7722.51
7723.37
7724.49
7725.2
7726.26
7727.65
7727.71
7727.71
7729.28
7730.3
7731.84
7732.36
7732.37
7734.14
7734.18
7735.92
7738.07
7739.15
7740.76
7743.07
7745.5
7748.52
7752.24
7757.08
7765.3
7769.64
7864.75
8085.08
24570.8
8302.53
8022.81
7895.84
7827.14
7784.55
7756.76
7737.16
7723.27
7712.71
7704.9
7698.64
7693.9
7689.95
7686.93
7684.31
7682.32
7680.52
7679.18
7677.91
7677
7676.05
7675.45
7674.9
7674.49
7673.81
7673.59
7673.39
7673.22
7672.79
7672.86
7672.83
7672.87
7672.8
7672.87
7672.75
7673.01
7673
7673.37
7673.37
7673.92
7673.91
7674.55
7674.55
7675.9
7676.6
7676.61
7676.6
7677.62
7677.62
7679.06
7679.13
7680.24
7681.16
7682.43
7682.71
7682.73
7684.06
7684.92
7685.55
7685.56
7685.54
7686.87
7687.02
7687.92
7689.04
7689.05
7689.05
7690.5
7691.42
7692.57
7693.25
7694.35
7695.81
7695.88
7695.88
7697.48
7698.55
7700.13
7700.71
7700.72
7702.55
7702.6
7704.36
7706.56
7707.72
7709.35
7711.66
7714.16
7717.17
7720.99
7725.71
7734.26
7737.86
7836.16
8055.87
23180.4
8298.68
8009.57
7876.55
7804.01
7758.85
7729.29
7708.38
7693.53
7682.23
7673.85
7667.14
7662.04
7657.78
7654.52
7651.7
7649.54
7647.6
7646.15
7644.77
7643.77
7642.74
7642.08
7641.47
7641.02
7640.3
7640.04
7639.81
7639.61
7639.15
7639.19
7639.16
7639.18
7639.09
7639.14
7639
7639.25
7639.23
7639.59
7639.59
7640.13
7640.13
7640.77
7640.77
7642.14
7642.87
7642.88
7642.87
7643.91
7643.91
7645.39
7645.49
7646.56
7647.51
7648.83
7649.12
7649.13
7650.51
7651.4
7652.1
7652.11
7652.09
7653.46
7653.66
7654.49
7655.7
7655.72
7655.72
7657.19
7658.18
7659.36
7660.01
7661.15
7662.68
7662.77
7662.77
7664.39
7665.5
7667.12
7667.78
7667.79
7669.67
7669.75
7671.51
7673.75
7675.01
7676.67
7678.97
7681.54
7684.53
7688.45
7693.04
7701.91
7704.79
7806
8024.99
21893.1
8294.86
7996.12
7856.79
7780.23
7732.38
7700.93
7678.65
7662.78
7650.69
7641.7
7634.5
7629.01
7624.43
7620.92
7617.87
7615.54
7613.44
7611.86
7610.37
7609.29
7608.17
7607.44
7606.77
7606.27
7605.5
7605.2
7604.93
7604.71
7604.21
7604.23
7604.2
7604.19
7604.09
7604.12
7603.95
7604.18
7604.16
7604.5
7604.49
7605.04
7605.04
7605.68
7605.68
7607.07
7607.82
7607.83
7607.81
7608.88
7608.88
7610.4
7610.54
7611.57
7612.55
7613.92
7614.22
7614.22
7615.63
7616.57
7617.33
7617.34
7617.33
7618.75
7618.99
7619.75
7621.05
7621.08
7621.09
7622.57
7623.63
7624.85
7625.46
7626.65
7628.23
7628.35
7628.36
7629.99
7631.15
7632.81
7633.55
7633.56
7635.49
7635.6
7637.36
7639.65
7641
7642.68
7644.98
7647.62
7650.59
7654.6
7659.06
7668.22
7670.42
7774.22
7992.36
20703.6
8291.09
7982.48
7836.61
7755.83
7705.14
7671.7
7647.96
7631.01
7618.08
7608.44
7600.72
7594.82
7589.9
7586.11
7582.83
7580.3
7578.04
7576.32
7574.71
7573.53
7572.32
7571.51
7570.78
7570.23
7569.41
7569.06
7568.75
7568.51
7567.98
7567.97
7567.92
7567.89
7567.78
7567.77
7567.58
7567.8
7567.77
7568.1
7568.08
7568.62
7568.62
7569.26
7569.26
7570.67
7571.44
7571.45
7571.43
7572.53
7572.53
7574.08
7574.26
7575.24
7576.25
7577.68
7577.98
7577.97
7579.43
7580.4
7581.24
7581.25
7581.24
7582.7
7583.01
7583.69
7585.07
7585.11
7585.12
7586.63
7587.76
7589.01
7589.59
7590.82
7592.47
7592.62
7592.62
7594.27
7595.48
7597.17
7598
7598
7599.99
7600.15
7601.9
7604.23
7605.66
7607.39
7609.67
7612.37
7615.31
7619.43
7623.75
7633.17
7634.74
7740.74
7957.92
19606.4
8287.39
7968.68
7816.01
7730.83
7677.15
7641.61
7616.33
7598.22
7584.41
7574.08
7565.8
7559.46
7554.18
7550.09
7546.56
7543.82
7541.39
7539.52
7537.78
7536.49
7535.19
7534.3
7533.49
7532.89
7532.01
7531.61
7531.26
7530.99
7530.43
7530.39
7530.31
7530.27
7530.14
7530.11
7529.89
7530.09
7530.05
7530.35
7530.33
7530.87
7530.87
7531.5
7531.5
7532.93
7533.73
7533.72
7533.71
7534.83
7534.83
7536.42
7536.64
7537.57
7538.62
7540.09
7540.39
7540.39
7541.88
7542.89
7543.8
7543.82
7543.81
7545.31
7545.68
7546.27
7547.74
7547.81
7547.82
7549.35
7550.54
7551.84
7552.37
7553.66
7555.36
7555.54
7555.54
7557.22
7558.48
7560.2
7561.13
7561.12
7563.16
7563.36
7565.11
7567.47
7568.99
7570.76
7573.02
7575.79
7578.7
7582.91
7587.1
7596.74
7597.74
7705.52
7921.62
18595.8
8283.75
7954.75
7795.03
7705.24
7648.43
7610.67
7583.76
7564.43
7549.68
7538.62
7529.75
7522.93
7517.26
7512.85
7509.06
7506.1
7503.47
7501.45
7499.57
7498.16
7496.76
7495.78
7494.89
7494.24
7493.3
7492.84
7492.45
7492.15
7491.55
7491.48
7491.38
7491.31
7491.16
7491.11
7490.85
7491.03
7490.98
7491.27
7491.24
7491.77
7491.77
7492.39
7492.39
7493.84
7494.66
7494.65
7494.64
7495.78
7495.78
7497.41