/*--------------------------------*- C++ -*----------------------------------*\
| =========                 |                                                 |
| \\      /  F ield         | OpenFOAM: The Open Source CFD Toolbox           |
|  \\    /   O peration     | Version:  v2012                                 |
|   \\  /    A nd           | Website:  www.openfoam.com                      |
|    \\/     M anipulation  |                                                 |
\*---------------------------------------------------------------------------*/
FoamFile
{
    version     2.0;
    format      ascii;
    class       volScalarField;
    location    "50";
    object      omega;
}
// * * * * * * * * * * * * * * * * * * * * * * * * * * * * * * * * * * * * * //

dimensions      [0 0 -1 0 0 0 0];


internalField   nonuniform List<scalar> 
209825
(
8261.75
7569.54
6999.41
6541.05
6177.96
5891.67
5663.92
5481.21
5332.12
5209.52
5106.85
5020.64
4946.81
4883.82
4828.85
4781.39
4739.29
4702.64
4669.65
4640.75
4614.39
4591.22
4569.81
4550.97
4533.32
4517.81
4503.11
4490.21
4477.81
4466.99
4456.45
4447.3
4438.27
4430.48
4422.68
4416.02
4409.27
4403.54
4397.64
4392.68
4387.55
4383.24
4378.71
4374.99
4371.01
4367.76
4364.24
4361.36
4358.29
4355.77
4353.07
4350.9
4348.59
4346.61
4344.56
4342.84
4341.03
4339.52
4337.89
4336.59
4335.22
4334.15
4332.89
4332.03
4330.95
4330.21
4329.22
4328.61
4327.77
4327.31
4326.61
4326.23
4325.63
4325.31
4324.73
4324.38
4323.82
4323.52
4323.04
4322.8
4322.38
4322.2
4321.83
4321.73
4321.48
4321.55
4321.52
4321.78
4321.78
4322.2
4322.2
4322.92
4323.64
4352.04
4461.07
113111
8261.75
7569.54
6999.41
6541.05
6177.95
5891.64
5663.88
5481.16
5332.07
5209.46
5106.79
5020.56
4946.73
4883.73
4828.76
4781.3
4739.2
4702.54
4669.54
4640.65
4614.28
4591.11
4569.7
4550.85
4533.21
4517.7
4503
4490.09
4477.69
4466.87
4456.33
4447.18
4438.15
4430.36
4422.55
4415.89
4409.14
4403.41
4397.51
4392.55
4387.42
4383.11
4378.58
4374.86
4370.88
4367.62
4364.11
4361.23
4358.16
4355.64
4352.94
4350.77
4348.46
4346.48
4344.42
4342.71
4340.89
4339.38
4337.75
4336.45
4335.08
4334.01
4332.76
4331.89
4330.82
4330.07
4329.08
4328.47
4327.63
4327.17
4326.47
4326.09
4325.49
4325.17
4324.59
4324.24
4323.68
4323.38
4322.9
4322.66
4322.24
4322.06
4321.69
4321.59
4321.34
4321.41
4321.38
4321.64
4321.64
4322.05
4322.05
4322.78
4323.5
4351.95
4460.97
109813
8261.75
7569.55
6999.41
6541.03
6177.9
5891.56
5663.76
5481.01
5331.88
5209.25
5106.55
5020.31
4946.46
4883.44
4828.46
4780.98
4738.87
4702.2
4669.2
4640.29
4613.92
4590.75
4569.33
4550.47
4532.82
4517.31
4502.6
4489.69
4477.29
4466.46
4455.92
4446.77
4437.73
4429.94
4422.14
4415.47
4408.72
4402.98
4397.09
4392.12
4386.99
4382.68
4378.15
4374.42
4370.44
4367.19
4363.67
4360.79
4357.72
4355.2
4352.5
4350.33
4348.01
4346.03
4343.98
4342.26
4340.44
4338.93
4337.3
4336
4334.63
4333.56
4332.31
4331.44
4330.36
4329.62
4328.63
4328.01
4327.18
4326.72
4326.01
4325.64
4325.04
4324.71
4324.13
4323.78
4323.22
4322.92
4322.44
4322.2
4321.78
4321.6
4321.23
4321.13
4320.88
4320.95
4320.92
4321.17
4321.18
4321.59
4321.59
4322.31
4323.04
4351.58
4460.58
106026
8261.75
7569.56
6999.42
6541
6177.81
5891.41
5663.55
5480.74
5331.56
5208.89
5106.15
5019.87
4945.99
4882.95
4827.94
4780.44
4738.31
4701.62
4668.61
4639.69
4613.3
4590.12
4568.69
4549.82
4532.16
4516.64
4501.93
4489.01
4476.6
4465.77
4455.22
4446.06
4437.03
4429.23
4421.42
4414.75
4407.99
4402.26
4396.36
4391.39
4386.26
4381.95
4377.4
4373.68
4369.7
4366.44
4362.92
4360.04
4356.96
4354.44
4351.74
4349.57
4347.25
4345.27
4343.21
4341.5
4339.68
4338.17
4336.53
4335.23
4333.86
4332.79
4331.53
4330.66
4329.59
4328.84
4327.85
4327.23
4326.4
4325.94
4325.23
4324.86
4324.25
4323.93
4323.35
4323
4322.44
4322.14
4321.65
4321.41
4320.99
4320.81
4320.44
4320.34
4320.09
4320.16
4320.12
4320.38
4320.38
4320.79
4320.79
4321.52
4322.24
4350.94
4459.91
102132
8261.75
7569.57
6999.42
6540.95
6177.68
5891.19
5663.25
5480.35
5331.1
5208.37
5105.57
5019.24
4945.32
4882.24
4827.2
4779.67
4737.51
4700.8
4667.76
4638.82
4612.42
4589.22
4567.77
4548.9
4531.23
4515.69
4500.97
4488.04
4475.63
4464.79
4454.23
4445.06
4436.02
4428.21
4420.4
4413.73
4406.96
4401.22
4395.32
4390.35
4385.21
4380.89
4376.35
4372.62
4368.64
4365.37
4361.85
4358.97
4355.89
4353.37
4350.66
4348.49
4346.17
4344.19
4342.12
4340.41
4338.59
4337.07
4335.44
4334.14
4332.77
4331.69
4330.43
4329.56
4328.48
4327.74
4326.75
4326.13
4325.29
4324.83
4324.12
4323.74
4323.14
4322.82
4322.23
4321.88
4321.32
4321.02
4320.53
4320.29
4319.87
4319.69
4319.32
4319.21
4318.96
4319.03
4318.99
4319.25
4319.25
4319.65
4319.65
4320.38
4321.11
4350.02
4458.96
98234.8
8261.75
7569.6
6999.43
6540.89
6177.52
5890.91
5662.85
5479.85
5330.51
5207.69
5104.82
5018.43
4944.45
4881.32
4826.23
4778.66
4736.47
4699.73
4666.66
4637.7
4611.27
4588.05
4566.58
4547.69
4530
4514.46
4499.72
4486.78
4474.35
4463.5
4452.93
4443.76
4434.7
4426.89
4419.07
4412.39
4405.62
4399.87
4393.96
4388.98
4383.84
4379.52
4374.97
4371.24
4367.25
4363.99
4360.46
4357.57
4354.49
4351.96
4349.26
4347.08
4344.76
4342.77
4340.71
4338.99
4337.16
4335.65
4334.01
4332.71
4331.33
4330.26
4328.99
4328.12
4327.04
4326.3
4325.3
4324.68
4323.84
4323.38
4322.67
4322.29
4321.69
4321.36
4320.78
4320.42
4319.87
4319.56
4319.07
4318.83
4318.41
4318.22
4317.85
4317.75
4317.49
4317.56
4317.52
4317.77
4317.77
4318.17
4318.17
4318.89
4319.63
4348.82
4457.71
94375
8261.75
7569.63
6999.44
6540.82
6177.32
5890.56
5662.36
5479.23
5329.77
5206.85
5103.89
5017.42
4943.37
4880.17
4825.03
4777.41
4735.18
4698.4
4665.3
4636.3
4609.84
4586.6
4565.11
4546.2
4528.49
4512.92
4498.17
4485.21
4472.77
4461.91
4451.33
4442.14
4433.08
4425.26
4417.42
4410.74
4403.95
4398.2
4392.28
4387.3
4382.15
4377.82
4373.27
4369.53
4365.54
4362.27
4358.74
4355.84
4352.76
4350.23
4347.51
4345.33
4343.01
4341.02
4338.95
4337.23
4335.4
4333.88
4332.24
4330.94
4329.56
4328.48
4327.22
4326.34
4325.26
4324.51
4323.52
4322.89
4322.05
4321.58
4320.87
4320.49
4319.89
4319.56
4318.98
4318.62
4318.06
4317.76
4317.27
4317.02
4316.6
4316.41
4316.04
4315.93
4315.67
4315.74
4315.69
4315.94
4315.94
4316.34
4316.33
4317.05
4317.8
4347.33
4456.18
90571.2
8261.75
7569.66
6999.45
6540.73
6177.08
5890.15
5661.78
5478.5
5328.89
5205.85
5102.78
5016.21
4942.08
4878.81
4823.6
4775.93
4733.64
4696.81
4663.67
4634.63
4608.14
4584.87
4563.35
4544.41
4526.68
4511.09
4496.31
4483.34
4470.88
4460
4449.41
4440.21
4431.13
4423.3
4415.45
4408.76
4401.96
4396.2
4390.27
4385.28
4380.12
4375.79
4371.23
4367.49
4363.48
4360.21
4356.67
4353.78
4350.68
4348.15
4345.43
4343.24
4340.91
4338.92
4336.85
4335.12
4333.29
4331.77
4330.13
4328.82
4327.44
4326.36
4325.09
4324.21
4323.13
4322.37
4321.38
4320.75
4319.91
4319.44
4318.72
4318.34
4317.74
4317.41
4316.82
4316.46
4315.9
4315.6
4315.1
4314.86
4314.43
4314.24
4313.87
4313.76
4313.5
4313.56
4313.51
4313.75
4313.75
4314.14
4314.14
4314.85
4315.62
4345.56
4454.35
86832.3
8261.75
7569.7
6999.47
6540.63
6176.8
5889.67
5661.11
5477.64
5327.87
5204.68
5101.48
5014.8
4940.57
4877.22
4821.93
4774.19
4731.84
4694.96
4661.76
4632.69
4606.16
4582.84
4561.29
4542.32
4524.56
4508.95
4494.15
4481.16
4468.68
4457.78
4447.17
4437.95
4428.86
4421.01
4413.16
4406.44
4399.64
4393.87
4387.93
4382.93
4377.76
4373.42
4368.85
4365.1
4361.09
4357.81
4354.26
4351.36
4348.26
4345.72
4343
4340.8
4338.47
4336.48
4334.4
4332.67
4330.83
4329.31
4327.66
4326.35
4324.96
4323.88
4322.6
4321.73
4320.64
4319.88
4318.88
4318.25
4317.4
4316.93
4316.22
4315.83
4315.22
4314.89
4314.3
4313.95
4313.38
4313.07
4312.58
4312.33
4311.9
4311.71
4311.34
4311.22
4310.96
4311.01
4310.96
4311.19
4311.19
4311.58
4311.58
4312.29
4313.06
4343.49
4452.24
83161.1
8261.75
7569.74
6999.48
6540.52
6176.48
5889.13
5660.33
5476.66
5326.7
5203.34
5100
5013.19
4938.85
4875.4
4820.02
4772.2
4729.78
4692.84
4659.59
4630.46
4603.88
4580.53
4558.94
4539.93
4522.14
4506.5
4491.67
4478.66
4466.15
4455.23
4444.6
4435.37
4426.25
4418.39
4410.52
4403.8
4396.98
4391.2
4385.24
4380.23
4375.05
4370.7
4366.12
4362.36
4358.35
4355.05
4351.5
4348.59
4345.49
4342.94
4340.21
4338.01
4335.67
4333.67
4331.59
4329.85
4328.01
4326.49
4324.83
4323.51
4322.12
4321.04
4319.76
4318.88
4317.78
4317.02
4316.02
4315.39
4314.54
4314.06
4313.34
4312.96
4312.34
4312.01
4311.42
4311.06
4310.49
4310.18
4309.69
4309.44
4309
4308.81
4308.43
4308.32
4308.05
4308.1
4308.04
4308.26
4308.26
4308.64
4308.64
4309.34
4310.13
4341.13
4449.83
79555.6
8261.75
7569.79
6999.5
6540.39
6176.12
5888.51
5659.46
5475.55
5325.38
5201.84
5098.33
5011.38
4936.9
4873.34
4817.87
4769.96
4727.46
4690.45
4657.13
4627.95
4601.31
4577.91
4556.28
4537.24
4519.41
4503.73
4488.87
4475.83
4463.3
4452.36
4441.7
4432.45
4423.31
4415.43
4407.55
4400.8
4393.97
4388.17
4382.21
4377.18
4371.99
4367.63
4363.04
4359.27
4355.24
4351.94
4348.39
4345.47
4342.35
4339.8
4337.06
4334.85
4332.51
4330.5
4328.41
4326.67
4324.83
4323.29
4321.63
4320.31
4318.91
4317.82
4316.54
4315.65
4314.55
4313.79
4312.79
4312.15
4311.29
4310.82
4310.09
4309.7
4309.09
4308.76
4308.16
4307.8
4307.23
4306.92
4306.42
4306.16
4305.73
4305.53
4305.15
4305.03
4304.76
4304.8
4304.73
4304.95
4304.95
4305.32
4305.32
4306.02
4306.82
4338.46
4447.14
76010.4
8261.75
7569.85
6999.53
6540.25
6175.73
5887.83
5658.5
5474.32
5323.92
5200.16
5096.47
5009.36
4934.74
4871.05
4815.46
4767.45
4724.87
4687.77
4654.38
4625.14
4598.45
4574.99
4553.31
4534.22
4516.35
4500.64
4485.75
4472.67
4460.11
4449.14
4438.46
4429.18
4420.03
4412.13
4404.22
4397.46
4390.61
4384.8
4378.82
4373.78
4368.58
4364.2
4359.6
4355.82
4351.78
4348.47
4344.9
4341.98
4338.85
4336.29
4333.54
4331.33
4328.97
4326.96
4324.86
4323.12
4321.26
4319.73
4318.06
4316.73
4315.33
4314.24
4312.95
4312.05
4310.95
4310.19
4309.17
4308.53
4307.67
4307.19
4306.46
4306.07
4305.45
4305.12
4304.52
4304.15
4303.58
4303.27
4302.76
4302.51
4302.07
4301.87
4301.48
4301.36
4301.09
4301.12
4301.04
4301.26
4301.26
4301.61
4301.61
4302.3
4303.13
4335.49
4444.16
72521.4
8261.75
7569.91
6999.55
6540.09
6175.3
5887.08
5657.43
5472.96
5322.3
5198.31
5094.41
5007.12
4932.35
4868.52
4812.8
4764.69
4722
4684.82
4651.35
4622.03
4595.28
4571.77
4550.03
4530.89
4512.98
4497.23
4482.29
4469.18
4456.59
4445.59
4434.88
4425.58
4416.39
4408.47
4400.54
4393.77
4386.9
4381.07
4375.07
4370.01
4364.79
4360.41
4355.79
4352
4347.95
4344.63
4341.05
4338.11
4334.97
4332.41
4329.65
4327.42
4325.06
4323.04
4320.94
4319.18
4317.32
4315.78
4314.1
4312.77
4311.36
4310.26
4308.97
4308.07
4306.96
4306.19
4305.17
4304.53
4303.66
4303.18
4302.45
4302.05
4301.43
4301.09
4300.49
4300.12
4299.55
4299.23
4298.72
4298.46
4298.02
4297.81
4297.42
4297.3
4297.02
4297.04
4296.96
4297.16
4297.16
4297.5
4297.5
4298.19
4299.04
4332.21
4440.89
69095.3
8261.75
7569.97
6999.58
6539.92
6174.82
5886.27
5656.27
5471.48
5320.53
5196.29
5092.16
5004.68
4929.72
4865.74
4809.89
4761.65
4718.86
4681.58
4648.02
4618.63
4591.8
4568.22
4546.43
4527.24
4509.27
4493.47
4478.5
4465.35
4452.72
4441.69
4430.94
4421.61
4412.41
4404.46
4396.51
4389.71
4382.81
4376.97
4370.95
4365.88
4360.64
4356.24
4351.61
4347.8
4343.74
4340.4
4336.81
4333.86
4330.72
4328.14
4325.37
4323.14
4320.76
4318.74
4316.62
4314.86
4312.99
4311.45
4309.76
4308.43
4307
4305.9
4304.6
4303.7
4302.58
4301.81
4300.78
4300.13
4299.26
4298.77
4298.03
4297.63
4297.01
4296.66
4296.06
4295.69
4295.11
4294.79
4294.28
4294.01
4293.56
4293.36
4292.97
4292.84
4292.55
4292.56
4292.47
4292.67
4292.66
4292.99
4292.99
4293.67
4294.55
4328.61
4437.35
65738.1
8261.75
7570.05
6999.61
6539.74
6174.32
5885.38
5655.01
5469.87
5318.6
5194.09
5089.72
5002.01
4926.87
4862.72
4806.72
4758.35
4715.44
4678.05
4644.4
4614.92
4588.01
4564.36
4542.5
4523.25
4505.23
4489.38
4474.36
4461.17
4448.5
4437.43
4426.65
4417.29
4408.05
4400.08
4392.1
4385.28
4378.36
4372.49
4366.46
4361.37
4356.11
4351.7
4347.04
4343.22
4339.14
4335.8
4332.19
4329.23
4326.07
4323.48
4320.7
4318.46
4316.08
4314.04
4311.92
4310.15
4308.27
4306.72
4305.02
4303.68
4302.25
4301.14
4299.83
4298.92
4297.8
4297.02
4295.99
4295.34
4294.46
4293.96
4293.22
4292.81
4292.18
4291.84
4291.23
4290.86
4290.27
4289.94
4289.43
4289.16
4288.71
4288.5
4288.1
4287.97
4287.68
4287.68
4287.58
4287.76
4287.76
4288.07
4288.07
4288.74
4289.64
4324.69
4433.52
62455.4
8261.75
7570.12
6999.65
6539.55
6173.77
5884.43
5653.65
5468.14
5316.53
5191.71
5087.07
4999.13
4923.78
4859.45
4803.29
4754.77
4711.73
4674.23
4640.47
4610.9
4583.9
4560.18
4538.24
4518.93
4500.85
4484.95
4469.88
4456.64
4443.92
4432.82
4422
4412.61
4403.34
4395.34
4387.32
4380.48
4373.53
4367.64
4361.58
4356.47
4351.2
4346.76
4342.09
4338.26
4334.16
4330.8
4327.18
4324.21
4321.03
4318.43
4315.64
4313.39
4310.99
4308.95
4306.81
4305.04
4303.15
4301.59
4299.88
4298.53
4297.09
4295.98
4294.66
4293.74
4292.61
4291.83
4290.79
4290.13
4289.24
4288.74
4287.99
4287.58
4286.95
4286.6
4285.98
4285.61
4285.02
4284.69
4284.17
4283.9
4283.44
4283.22
4282.82
4282.68
4282.4
4282.38
4282.26
4282.44
4282.43
4282.73
4282.73
4283.39
4284.33
4320.42
4429.42
59252.5
8261.74
7570.21
6999.69
6539.35
6173.19
5883.41
5652.19
5466.27
5314.29
5189.15
5084.22
4996.03
4920.46
4855.93
4799.59
4750.92
4707.73
4670.11
4636.24
4606.56
4579.47
4555.67
4533.65
4514.27
4496.12
4480.17
4465.04
4451.75
4438.99
4427.84
4416.98
4407.55
4398.24
4390.21
4382.17
4375.29
4368.32
4362.41
4356.32
4351.19
4345.89
4341.44
4336.75
4332.9
4328.78
4325.41
4321.77
4318.79
4315.6
4312.98
4310.18
4307.91
4305.5
4303.45
4301.3
4299.52
4297.61
4296.05
4294.33
4292.98
4291.52
4290.4
4289.07
4288.15
4287.01
4286.22
4285.17
4284.51
4283.62
4283.11
4282.35
4281.94
4281.29
4280.94
4280.32
4279.95
4279.35
4279.02
4278.49
4278.21
4277.75
4277.53
4277.12
4276.98
4276.69
4276.66
4276.53
4276.69
4276.69
4276.97
4276.96
4277.62
4278.59
4315.82
4425.05
56134.2
8261.74
7570.29
6999.73
6539.14
6172.57
5882.32
5650.64
5464.28
5311.9
5186.41
5081.17
4992.71
4916.89
4852.15
4795.62
4746.78
4703.44
4665.69
4631.69
4601.91
4574.72
4550.82
4528.72
4509.27
4491.05
4475.03
4459.84
4446.5
4433.69
4422.49
4411.59
4402.12
4392.77
4384.71
4376.63
4369.73
4362.73
4356.78
4350.67
4345.52
4340.19
4335.72
4331.01
4327.14
4323
4319.61
4315.96
4312.96
4309.75
4307.13
4304.3
4302.02
4299.6
4297.54
4295.37
4293.58
4291.67
4290.09
4288.37
4287
4285.54
4284.41
4283.07
4282.14
4280.99
4280.19
4279.14
4278.47
4277.57
4277.05
4276.29
4275.87
4275.22
4274.86
4274.24
4273.86
4273.26
4272.92
4272.38
4272.1
4271.63
4271.41
4270.99
4270.85
4270.55
4270.51
4270.37
4270.52
4270.51
4270.78
4270.76
4271.41
4272.42
4310.86
4420.4
53105
8261.74
7570.39
6999.77
6538.91
6171.91
5881.17
5648.98
5462.16
5309.36
5183.49
5077.92
4989.16
4913.09
4848.12
4791.38
4742.36
4698.86
4660.96
4626.83
4596.93
4569.63
4545.64
4523.45
4503.92
4485.62
4469.53
4454.28
4440.88
4428.01
4416.77
4405.82
4396.31
4386.92
4378.82
4370.7
4363.76
4356.73
4350.76
4344.62
4339.44
4334.09
4329.6
4324.86
4320.97
4316.82
4313.41
4309.73
4306.72
4303.49
4300.85
4298.01
4295.72
4293.28
4291.21
4289.03
4287.23
4285.3
4283.72
4281.98
4280.6
4279.13
4277.99
4276.64
4275.7
4274.54
4273.74
4272.68
4272
4271.09
4270.57
4269.79
4269.37
4268.71
4268.35
4267.72
4267.33
4266.73
4266.38
4265.84
4265.56
4265.08
4264.85
4264.43
4264.28
4263.97
4263.93
4263.77
4263.91
4263.89
4264.14
4264.12
4264.77
4265.81
4305.52
4415.45
50169
8261.74
7570.49
6999.83
6538.68
6171.22
5879.95
5647.23
5459.91
5306.66
5180.39
5074.46
4985.39
4909.04
4843.82
4786.87
4737.66
4693.98
4655.93
4621.66
4591.63
4564.21
4540.12
4517.83
4498.21
4479.83
4463.67
4448.35
4434.89
4421.96
4410.67
4399.67
4390.11
4380.68
4372.53
4364.38
4357.41
4350.34
4344.34
4338.17
4332.96
4327.58
4323.07
4318.31
4314.39
4310.21
4306.79
4303.09
4300.06
4296.82
4294.16
4291.3
4289
4286.54
4284.46
4282.26
4280.45
4278.51
4276.91
4275.16
4273.78
4272.29
4271.14
4269.78
4268.83
4267.66
4266.85
4265.78
4265.1
4264.17
4263.64
4262.86
4262.43
4261.77
4261.4
4260.77
4260.38
4259.76
4259.41
4258.86
4258.57
4258.09
4257.85
4257.43
4257.27
4256.96
4256.9
4256.72
4256.85
4256.83
4257.06
4257.04
4257.67
4258.76
4299.81
4410.19
47330
8261.73
7570.59
6999.88
6538.44
6170.49
5878.66
5645.39
5457.53
5303.8
5177.1
5070.8
4981.4
4904.74
4839.27
4782.08
4732.66
4688.8
4650.58
4616.16
4586
4558.46
4534.25
4511.86
4492.15
4473.68
4457.45
4442.05
4428.53
4415.53
4404.18
4393.13
4383.52
4374.04
4365.85
4357.66
4350.65
4343.54
4337.51
4331.3
4326.07
4320.66
4316.12
4311.33
4307.39
4303.19
4299.74
4296.03
4292.98
4289.71
4287.04
4284.17
4281.84
4279.37
4277.27
4275.06
4273.24
4271.28
4269.67
4267.91
4266.52
4265.01
4263.86
4262.48
4261.52
4260.34
4259.52
4258.44
4257.75
4256.82
4256.28
4255.49
4255.05
4254.38
4254.01
4253.37
4252.97
4252.35
4251.99
4251.44
4251.14
4250.65
4250.41
4249.97
4249.81
4249.49
4249.42
4249.23
4249.34
4249.32
4249.54
4249.5
4250.12
4251.26
4293.68
4404.58
44591.5
8261.73
7570.7
6999.94
6538.18
6169.74
5877.32
5643.44
5455.03
5300.79
5173.63
5066.93
4977.17
4900.2
4834.45
4777.02
4727.38
4683.32
4644.92
4610.34
4580.03
4552.36
4528.03
4505.53
4485.72
4467.17
4450.85
4435.37
4421.78
4408.71
4397.3
4386.19
4376.53
4367
4358.77
4350.53
4343.48
4336.33
4330.26
4324.03
4318.76
4313.32
4308.75
4303.94
4299.97
4295.74
4292.27
4288.54
4285.46
4282.18
4279.49
4276.59
4274.25
4271.76
4269.65
4267.42
4265.58
4263.61
4262
4260.22
4258.81
4257.29
4256.13
4254.74
4253.77
4252.57
4251.75
4250.66
4249.96
4249.01
4248.47
4247.67
4247.22
4246.54
4246.16
4245.51
4245.11
4244.49
4244.12
4243.56
4243.26
4242.75
4242.51
4242.07
4241.89
4241.57
4241.49
4241.28
4241.38
4241.35
4241.55
4241.5
4242.12
4243.3
4287.13
4398.6
41956.4
8261.72
7570.81
7000.01
6537.92
6168.95
5875.91
5641.4
5452.4
5297.62
5169.98
5062.85
4972.72
4895.42
4829.37
4771.67
4721.8
4677.53
4638.94
4604.19
4573.73
4545.91
4521.47
4498.85
4478.93
4460.28
4443.87
4428.31
4414.64
4401.51
4390.03
4378.85
4369.14
4359.55
4351.28
4342.99
4335.9
4328.71
4322.6
4316.33
4311.03
4305.55
4300.95
4296.11
4292.12
4287.86
4284.37
4280.61
4277.52
4274.21
4271.5
4268.58
4266.22
4263.71
4261.59
4259.34
4257.49
4255.5
4253.87
4252.08
4250.66
4249.12
4247.95
4246.54
4245.57
4244.35
4243.52
4242.42
4241.71
4240.75
4240.2
4239.39
4238.93
4238.24
4237.86
4237.2
4236.8
4236.16
4235.79
4235.22
4234.91
4234.4
4234.15
4233.7
4233.52
4233.18
4233.09
4232.86
4232.95
4232.91
4233.09
4233.04
4233.64
4234.88
4280.14
4392.21
39427.6
8261.71
7570.93
7000.08
6537.66
6168.12
5874.43
5639.27
5449.64
5294.29
5166.15
5058.56
4968.04
4890.38
4824.02
4766.04
4715.93
4671.43
4632.65
4597.71
4567.09
4539.12
4514.54
4491.8
4471.77
4453.01
4436.51
4420.86
4407.12
4393.9
4382.36
4371.12
4361.34
4351.7
4343.37
4335.03
4327.89
4320.66
4314.52
4308.2
4302.87
4297.35
4292.73
4287.85
4283.83
4279.55
4276.03
4272.24
4269.13
4265.79
4263.06
4260.13
4257.75
4255.21
4253.07
4250.81
4248.94
4246.93
4245.29
4243.48
4242.05
4240.49
4239.31
4237.89
4236.9
4235.68
4234.84
4233.72
4233
4232.03
4231.47
4230.64
4230.18
4229.48
4229.09
4228.43
4228.02
4227.37
4227
4226.42
4226.1
4225.58
4225.32
4224.86
4224.67
4224.33
4224.23
4223.98
4224.05
4224.01
4224.17
4224.1
4224.69
4225.98
4272.67
4385.39
37007.4
8261.7
7571.05
7000.15
6537.38
6167.27
5872.9
5637.04
5446.76
5290.81
5162.14
5054.07
4963.13
4885.1
4818.41
4760.13
4709.75
4665.02
4626.03
4590.9
4560.11
4531.98
4507.26
4484.39
4464.24
4445.37
4428.77
4413.02
4399.19
4385.9
4374.29
4362.97
4353.14
4343.43
4335.05
4326.65
4319.47
4312.19
4306
4299.64
4294.27
4288.72
4284.06
4279.15
4275.1
4270.79
4267.24
4263.43
4260.29
4256.93
4254.18
4251.22
4248.82
4246.26
4244.11
4241.82
4239.94
4237.91
4236.25
4234.43
4232.98
4231.41
4230.21
4228.78
4227.78
4226.54
4225.68
4224.55
4223.83
4222.84
4222.27
4221.43
4220.96
4220.25
4219.86
4219.18
4218.77
4218.11
4217.73
4217.14
4216.81
4216.28
4216.01
4215.55
4215.35
4215
4214.89
4214.63
4214.68
4214.62
4214.77
4214.69
4215.27
4216.61
4264.69
4378.1
34697.9
8261.7
7571.18
7000.24
6537.1
6166.39
5871.31
5634.72
5443.75
5287.17
5157.94
5049.37
4957.99
4879.56
4812.53
4753.94
4703.28
4658.3
4619.08
4583.75
4552.78
4524.49
4499.62
4476.6
4456.34
4437.34
4420.64
4404.79
4390.88
4377.49
4365.8
4354.41
4344.51
4334.74
4326.3
4317.85
4310.62
4303.29
4297.06
4290.65
4285.24
4279.65
4274.96
4270.01
4265.93
4261.58
4258.01
4254.16
4251
4247.61
4244.84
4241.85
4239.43
4236.85
4234.68
4232.37
4230.47
4228.42
4226.75
4224.91
4223.45
4221.85
4220.65
4219.2
4218.18
4216.92
4216.06
4214.92
4214.18
4213.18
4212.6
4211.75
4211.27
4210.55
4210.14
4209.46
4209.04
4208.37
4207.99
4207.38
4207.05
4206.51
4206.23
4205.75
4205.55
4205.19
4205.07
4204.79
4204.83
4204.76
4204.88
4204.78
4205.36
4206.75
4256.17
4370.3
32500.9
8261.69
7571.31
7000.32
6536.82
6165.48
5869.66
5632.31
5440.62
5283.39
5153.56
5044.47
4952.62
4873.78
4806.37
4747.46
4696.51
4651.26
4611.81
4576.27
4545.1
4516.64
4491.61
4468.45
4448.05
4428.93
4412.12
4396.16
4382.15
4368.68
4356.91
4345.44
4335.47
4325.63
4317.13
4308.62
4301.33
4293.95
4287.67
4281.22
4275.77
4270.13
4265.4
4260.42
4256.31
4251.92
4248.32
4244.44
4241.25
4237.84
4235.04
4232.03
4229.58
4226.98
4224.78
4222.45
4220.54
4218.47
4216.78
4214.92
4213.44
4211.83
4210.61
4209.14
4208.11
4206.84
4205.96
4204.8
4204.05
4203.04
4202.45
4201.58
4201.09
4200.36
4199.95
4199.26
4198.83
4198.15
4197.76
4197.14
4196.8
4196.25
4195.96
4195.48
4195.26
4194.89
4194.76
4194.46
4194.48
4194.4
4194.51
4194.39
4194.95
4196.41
4247.08
4361.96
30417.8
8261.67
7571.45
7000.42
6536.53
6164.55
5867.95
5629.81
5437.37
5279.45
5149
5039.36
4947.02
4867.74
4799.96
4740.69
4689.44
4643.91
4604.22
4568.44
4537.08
4508.43
4483.23
4459.92
4439.38
4420.13
4403.2
4387.14
4373.03
4359.46
4347.6
4336.05
4326.01
4316.09
4307.53
4298.96
4291.61
4284.17
4277.84
4271.34
4265.85
4260.17
4255.4
4250.37
4246.23
4241.8
4238.17
4234.26
4231.04
4227.6
4224.78
4221.73
4219.26
4216.63
4214.42
4212.06
4210.13
4208.04
4206.34
4204.45
4202.96
4201.33
4200.09
4198.6
4197.56
4196.27
4195.38
4194.21
4193.45
4192.42
4191.81
4190.93
4190.43
4189.69
4189.27
4188.57
4188.13
4187.44
4187.04
4186.41
4186.06
4185.5
4185.2
4184.71
4184.48
4184.1
4183.96
4183.65
4183.65
4183.55
4183.64
4183.5
4184.05
4185.57
4237.37
4353.03
28450.2
8261.66
7571.59
7000.52
6536.24
6163.59
5866.19
5627.23
5434.01
5275.36
5144.27
5034.04
4941.19
4861.46
4793.27
4733.64
4682.07
4636.25
4596.3
4560.28
4528.71
4499.86
4474.49
4451.01
4430.33
4410.94
4393.89
4377.7
4363.49
4349.82
4337.88
4326.24
4316.12
4306.13
4297.5
4288.85
4281.45
4273.95
4267.57
4261.02
4255.48
4249.75
4244.94
4239.87
4235.68
4231.23
4227.56
4223.62
4220.37
4216.89
4214.04
4210.97
4208.47
4205.81
4203.58
4201.2
4199.25
4197.13
4195.41
4193.5
4192
4190.34
4189.09
4187.58
4186.52
4185.21
4184.31
4183.12
4182.35
4181.31
4180.69
4179.79
4179.28
4178.53
4178.09
4177.38
4176.93
4176.24
4175.83
4175.19
4174.83
4174.25
4173.95
4173.44
4173.2
4172.8
4172.66
4172.34
4172.32
4172.2
4172.27
4172.11
4172.65
4174.22
4227.03
4343.49
26599.1
8261.65
7571.73
7000.62
6535.95
6162.6
5864.38
5624.56
5430.52
5271.12
5139.36
5028.53
4935.14
4854.92
4786.31
4726.3
4674.4
4628.27
4588.04
4551.78
4519.98
4490.93
4465.37
4441.72
4420.89
4401.36
4384.17
4367.87
4353.54
4339.77
4327.73
4316
4305.8
4295.72
4287.02
4278.31
4270.85
4263.28
4256.85
4250.24
4244.65
4238.87
4234.02
4228.9
4224.68
4220.18
4216.48
4212.5
4209.22
4205.71
4202.83
4199.73
4197.21
4194.52
4192.26
4189.85
4187.88
4185.74
4184
4182.07
4180.55
4178.86
4177.6
4176.07
4175
4173.67
4172.75
4171.55
4170.76
4169.7
4169.07
4168.16
4167.63
4166.86
4166.42
4165.7
4165.24
4164.53
4164.11
4163.46
4163.09
4162.5
4162.19
4161.67
4161.42
4161.01
4160.85
4160.52
4160.48
4160.35
4160.39
4160.21
4160.74
4162.37
4216.07
4333.28
24865.7
8261.63
7571.88
7000.74
6535.65
6161.6
5862.53
5621.82
5426.93
5266.74
5134.27
5022.81
4928.86
4848.14
4779.09
4718.68
4666.42
4619.97
4579.46
4542.94
4510.91
4481.64
4455.89
4432.06
4411.06
4391.38
4374.06
4357.62
4343.18
4329.3
4317.16
4305.33
4295.04
4284.88
4276.11
4267.32
4259.79
4252.16
4245.67
4239
4233.36
4227.53
4222.63
4217.47
4213.21
4208.67
4204.93
4200.91
4197.6
4194.05
4191.14
4188.01
4185.46
4182.74
4180.46
4178.02
4176.03
4173.86
4172.1
4170.15
4168.61
4166.9
4165.62
4164.07
4162.98
4161.62
4160.7
4159.47
4158.67
4157.59
4156.94
4156.02
4155.48
4154.7
4154.25
4153.51
4153.05
4152.33
4151.89
4151.23
4150.85
4150.25
4149.93
4149.39
4149.13
4148.71
4148.53
4148.19
4148.13
4147.99
4148
4147.8
4148.32
4150
4204.48
4322.38
23250.8
8261.62
7572.03
7000.86
6535.35
6160.58
5860.62
5618.99
5423.22
5262.21
5129.01
5016.89
4922.36
4841.12
4771.6
4710.78
4658.14
4611.36
4570.55
4533.75
4501.48
4471.98
4446.03
4422.01
4400.85
4381
4363.54
4346.97
4332.41
4318.4
4306.16
4294.23
4283.85
4273.61
4264.75
4255.89
4248.29
4240.59
4234.04
4227.31
4221.62
4215.73
4210.78
4205.57
4201.26
4196.68
4192.9
4188.84
4185.5
4181.91
4178.97
4175.8
4173.22
4170.47
4168.17
4165.7
4163.68
4161.48
4159.71
4157.73
4156.17
4154.44
4153.14
4151.56
4150.46
4149.08
4148.14
4146.89
4146.08
4144.98
4144.32
4143.38
4142.83
4142.03
4141.56
4140.81
4140.34
4139.61
4139.17
4138.49
4138.1
4137.48
4137.15
4136.6
4136.33
4135.89
4135.71
4135.35
4135.27
4135.12
4135.1
4134.87
4135.38
4137.12
4192.27
4310.75
21750.3
8261.6
7572.19
7000.98
6535.06
6159.54
5858.67
5616.09
5419.4
5257.55
5123.58
5010.77
4915.63
4833.85
4763.85
4702.59
4649.57
4602.43
4561.31
4524.22
4491.69
4461.96
4435.8
4411.58
4390.24
4370.23
4352.62
4335.9
4321.21
4307.09
4294.74
4282.7
4272.23
4261.89
4252.95
4244
4236.33
4228.56
4221.95
4215.15
4209.4
4203.45
4198.46
4193.2
4188.85
4184.21
4180.39
4176.29
4172.91
4169.29
4166.32
4163.11
4160.5
4157.71
4155.39
4152.88
4150.84
4148.62
4146.82
4144.81
4143.24
4141.47
4140.15
4138.56
4137.43
4136.03
4135.08
4133.81
4132.98
4131.87
4131.19
4130.23
4129.66
4128.85
4128.37
4127.61
4127.12
4126.38
4125.93
4125.23
4124.83
4124.2
4123.86
4123.29
4123.01
4122.55
4122.36
4121.98
4121.89
4121.72
4121.68
4121.41
4121.92
4123.71
4179.42
4298.34
20359.4
8261.58
7572.34
7001.12
6534.77
6158.48
5856.68
5613.11
5415.48
5252.75
5117.99
5004.46
4908.69
4826.33
4755.83
4694.11
4640.69
4593.19
4551.74
4514.35
4481.56
4451.57
4425.19
4400.76
4379.24
4359.05
4341.29
4324.42
4309.6
4295.34
4282.88
4270.73
4260.16
4249.72
4240.7
4231.67
4223.92
4216.07
4209.39
4202.53
4196.72
4190.71
4185.67
4180.35
4175.95
4171.27
4167.41
4163.26
4159.84
4156.18
4153.17
4149.93
4147.28
4144.46
4142.11
4139.57
4137.51
4135.25
4133.43
4131.39
4129.8
4128
4126.67
4125.04
4123.9
4122.48
4121.5
4120.22
4119.37
4118.24
4117.54
4116.56
4115.98
4115.15
4114.66
4113.88
4113.39
4112.63
4112.17
4111.46
4111.05
4110.4
4110.04
4109.46
4109.17
4108.69
4108.49
4108.1
4107.99
4107.8
4107.74
4107.43
4107.94
4109.77
4165.94
4285.14
19073.2
8261.56
7572.5
7001.26
6534.48
6157.41
5854.65
5610.07
5411.46
5247.82
5112.23
4997.97
4901.53
4818.58
4747.55
4685.36
4631.52
4583.63
4541.84
4504.14
4471.07
4440.82
4414.21
4389.57
4367.85
4347.48
4329.55
4312.53
4297.57
4283.18
4270.59
4258.33
4247.65
4237.11
4228
4218.88
4211.05
4203.12
4196.37
4189.44
4183.57
4177.5
4172.4
4167.02
4162.58
4157.84
4153.94
4149.74
4146.29
4142.58
4139.54
4136.25
4133.57
4130.71
4128.33
4125.76
4123.67
4121.38
4119.54
4117.47
4115.86
4114.03
4112.67
4111.02
4109.86
4108.41
4107.42
4106.11
4105.25
4104.09
4103.38
4102.38
4101.79
4100.94
4100.44
4099.64
4099.14
4098.36
4097.89
4097.16
4096.74
4096.08
4095.7
4095.11
4094.8
4094.31
4094.09
4093.68
4093.56
4093.35
4093.27
4092.93
4093.42
4095.29
4151.83
4271.1
17886.5
8261.54
7572.66
7001.4
6534.19
6156.33
5852.58
5606.96
5407.34
5242.75
5106.32
4991.28
4894.16
4810.59
4739.02
4676.33
4622.05
4573.76
4531.62
4493.59
4460.23
4429.71
4402.86
4377.99
4356.07
4335.51
4317.41
4300.22
4285.12
4270.58
4257.88
4245.49
4234.71
4224.06
4214.85
4205.63
4197.73
4189.71
4182.89
4175.88
4169.95
4163.81
4158.65
4153.22
4148.72
4143.93
4139.98
4135.73
4132.24
4128.48
4125.4
4122.07
4119.37
4116.46
4114.05
4111.44
4109.33
4107
4105.14
4103.04
4101.4
4099.55
4098.17
4096.49
4095.31
4093.83
4092.82
4091.49
4090.61
4089.43
4088.7
4087.68
4087.07
4086.2
4085.69
4084.88
4084.36
4083.57
4083.08
4082.34
4081.9
4081.22
4080.84
4080.23
4079.91
4079.4
4079.16
4078.74
4078.6
4078.37
4078.27
4077.89
4078.37
4080.28
4137.08
4256.19
16793.8
8261.51
7572.83
7001.56
6533.91
6155.24
5850.48
5603.79
5403.13
5237.57
5100.25
4984.41
4886.58
4802.37
4730.23
4667.03
4612.29
4563.59
4521.07
4482.71
4449.04
4418.24
4391.14
4366.03
4343.9
4323.14
4304.86
4287.5
4272.25
4257.56
4244.73
4232.21
4221.31
4210.55
4201.25
4191.93
4183.94
4175.84
4168.94
4161.85
4155.85
4149.64
4144.43
4138.93
4134.38
4129.53
4125.53
4121.24
4117.7
4113.89
4110.78
4107.4
4104.66
4101.71
4099.27
4096.63
4094.48
4092.12
4090.23
4088.1
4086.44
4084.55
4083.15
4081.44
4080.24
4078.73
4077.7
4076.35
4075.45
4074.25
4073.5
4072.46
4071.83
4070.94
4070.41
4069.58
4069.06
4068.25
4067.75
4066.99
4066.54
4065.84
4065.45
4064.81
4064.48
4063.95
4063.71
4063.26
4063.1
4062.86
4062.74
4062.31
4062.79
4064.73
4121.7
4240.39
15789.3
8261.49
7572.99
7001.72
6533.63
6154.14
5848.35
5600.56
5398.82
5232.26
5094.03
4977.36
4878.79
4793.92
4721.19
4657.45
4602.24
4553.11
4510.21
4471.48
4437.5
4406.41
4379.04
4353.69
4331.34
4310.37
4291.9
4274.36
4258.95
4244.12
4231.14
4218.49
4207.48
4196.6
4187.2
4177.78
4169.69
4161.5
4154.52
4147.35
4141.29
4135
4129.72
4124.16
4119.55
4114.64
4110.59
4106.24
4102.66
4098.81
4095.65
4092.23
4089.45
4086.46
4083.99
4081.3
4079.13
4076.72
4074.81
4072.65
4070.96
4069.04
4067.61
4065.88
4064.65
4063.12
4062.07
4060.68
4059.77
4058.54
4057.77
4056.71
4056.06
4055.15
4054.61
4053.76
4053.22
4052.4
4051.89
4051.11
4050.64
4049.93
4049.52
4048.87
4048.52
4047.97
4047.71
4047.25
4047.07
4046.81
4046.67
4046.2
4046.67
4048.63
4105.68
4223.67
14867.2
8261.46
7573.16
7001.89
6533.36
6153.04
5846.2
5597.27
5394.44
5226.84
5087.66
4970.14
4870.81
4785.25
4711.9
4647.61
4591.91
4542.32
4499.02
4459.93
4425.61
4394.22
4366.58
4340.96
4318.39
4297.2
4278.54
4260.82
4245.24
4230.25
4217.13
4204.34
4193.2
4182.2
4172.69
4163.16
4154.99
4146.7
4139.64
4132.38
4126.24
4119.88
4114.54
4108.9
4104.23
4099.26
4095.16
4090.76