/*--------------------------------*- C++ -*----------------------------------*\
| =========                 |                                                 |
| \\      /  F ield         | OpenFOAM: The Open Source CFD Toolbox           |
|  \\    /   O peration     | Version:  v2012                                 |
|   \\  /    A nd           | Website:  www.openfoam.com                      |
|    \\/     M anipulation  |                                                 |
\*---------------------------------------------------------------------------*/
FoamFile
{
    version     2.0;
    format      ascii;
    class       volVectorField;
    location    "50";
    object      wallShearStress;
}
// * * * * * * * * * * * * * * * * * * * * * * * * * * * * * * * * * * * * * //

dimensions      [0 2 -2 0 0 0 0];


internalField   uniform (0 0 0);

boundaryField
{
    inlet
    {
        type            calculated;
        value           uniform (0 0 0);
    }
    outlet
    {
        type            calculated;
        value           uniform (0 0 0);
    }
    topWall
    {
        type            calculated;
        value           nonuniform List<vector> 
545
(
(3.67452e-08 -2.58654e-08 0)
(3.67339e-08 -7.23558e-08 0)
(3.67139e-08 -1.207e-07 0)
(3.66854e-08 -1.67646e-07 0)
(3.66496e-08 -2.12594e-07 0)
(3.66073e-08 -2.56121e-07 0)
(3.65591e-08 -2.98598e-07 0)
(3.65052e-08 -3.40005e-07 0)
(3.64462e-08 -3.80251e-07 0)
(3.63825e-08 -4.19335e-07 0)
(3.63147e-08 -4.57309e-07 0)
(3.6243e-08 -4.94217e-07 0)
(3.6168e-08 -5.30083e-07 0)
(3.60899e-08 -5.6493e-07 0)
(3.6009e-08 -5.98781e-07 0)
(3.59257e-08 -6.31664e-07 0)
(3.58403e-08 -6.63605e-07 0)
(3.57531e-08 -6.94628e-07 0)
(3.56642e-08 -7.24759e-07 0)
(3.5574e-08 -7.54022e-07 0)
(3.54827e-08 -7.8244e-07 0)
(3.53905e-08 -8.10038e-07 0)
(3.52976e-08 -8.36837e-07 0)
(3.52041e-08 -8.62861e-07 0)
(3.51102e-08 -8.88131e-07 0)
(3.50162e-08 -9.12669e-07 0)
(3.49221e-08 -9.36496e-07 0)
(3.4828e-08 -9.59632e-07 0)
(3.47342e-08 -9.82098e-07 0)
(3.46406e-08 -1.00391e-06 0)
(3.45475e-08 -1.02509e-06 0)
(3.44549e-08 -1.04566e-06 0)
(3.43629e-08 -1.06563e-06 0)
(3.42717e-08 -1.08503e-06 0)
(3.41811e-08 -1.10386e-06 0)
(3.40914e-08 -1.12214e-06 0)
(3.40026e-08 -1.1399e-06 0)
(3.39148e-08 -1.15715e-06 0)
(3.38279e-08 -1.1739e-06 0)
(3.37421e-08 -1.19016e-06 0)
(3.36574e-08 -1.20595e-06 0)
(3.35738e-08 -1.22129e-06 0)
(3.34914e-08 -1.23619e-06 0)
(3.34102e-08 -1.25066e-06 0)
(3.33301e-08 -1.26472e-06 0)
(3.32513e-08 -1.27837e-06 0)
(3.31737e-08 -1.29163e-06 0)
(3.30973e-08 -1.30451e-06 0)
(3.30223e-08 -1.31703e-06 0)
(3.29485e-08 -1.32918e-06 0)
(3.28759e-08 -1.34099e-06 0)
(3.28047e-08 -1.35246e-06 0)
(3.27347e-08 -1.36361e-06 0)
(3.2666e-08 -1.37444e-06 0)
(3.25986e-08 -1.38496e-06 0)
(3.25325e-08 -1.39518e-06 0)
(3.24676e-08 -1.40511e-06 0)
(3.2404e-08 -1.41477e-06 0)
(3.23416e-08 -1.42415e-06 0)
(3.22805e-08 -1.43326e-06 0)
(3.22206e-08 -1.44212e-06 0)
(3.2162e-08 -1.45073e-06 0)
(3.21045e-08 -1.45909e-06 0)
(3.20482e-08 -1.46722e-06 0)
(3.19931e-08 -1.47513e-06 0)
(3.19392e-08 -1.48281e-06 0)
(3.18865e-08 -1.49028e-06 0)
(3.18348e-08 -1.49753e-06 0)
(3.17843e-08 -1.50459e-06 0)
(3.17349e-08 -1.51145e-06 0)
(3.16865e-08 -1.51812e-06 0)
(3.16395e-08 -1.52459e-06 0)
(3.15939e-08 -1.53082e-06 0)
(3.1549e-08 -1.53686e-06 0)
(3.15044e-08 -1.54284e-06 0)
(3.146e-08 -1.54879e-06 0)
(3.14157e-08 -1.55472e-06 0)
(3.13713e-08 -1.56061e-06 0)
(3.13271e-08 -1.56646e-06 0)
(3.12828e-08 -1.57228e-06 0)
(3.12387e-08 -1.57806e-06 0)
(3.11945e-08 -1.58381e-06 0)
(3.11504e-08 -1.58952e-06 0)
(3.11064e-08 -1.5952e-06 0)
(3.10623e-08 -1.60085e-06 0)
(3.10184e-08 -1.60646e-06 0)
(3.09745e-08 -1.61204e-06 0)
(3.09306e-08 -1.61758e-06 0)
(3.08868e-08 -1.62309e-06 0)
(3.08431e-08 -1.62857e-06 0)
(3.07994e-08 -1.63402e-06 0)
(3.07558e-08 -1.63943e-06 0)
(3.07122e-08 -1.64481e-06 0)
(3.06688e-08 -1.65016e-06 0)
(3.0625e-08 -1.65549e-06 0)
(3.05832e-08 -1.66072e-06 0)
(3.05448e-08 -1.66552e-06 0)
(3.05077e-08 -1.66987e-06 0)
(3.04718e-08 -1.6741e-06 0)
(3.0436e-08 -1.67835e-06 0)
(3.04001e-08 -1.68264e-06 0)
(3.03641e-08 -1.68695e-06 0)
(3.03279e-08 -1.69125e-06 0)
(3.02915e-08 -1.69555e-06 0)
(3.02549e-08 -1.69985e-06 0)
(3.02182e-08 -1.70417e-06 0)
(3.01813e-08 -1.70848e-06 0)
(3.01442e-08 -1.71281e-06 0)
(3.0107e-08 -1.71713e-06 0)
(3.00695e-08 -1.72147e-06 0)
(3.00319e-08 -1.7258e-06 0)
(2.99941e-08 -1.73014e-06 0)
(2.99562e-08 -1.73449e-06 0)
(2.9918e-08 -1.73884e-06 0)
(2.98797e-08 -1.7432e-06 0)
(2.98412e-08 -1.74756e-06 0)
(2.98025e-08 -1.75192e-06 0)
(2.97637e-08 -1.75629e-06 0)
(2.97246e-08 -1.76067e-06 0)
(2.96854e-08 -1.76504e-06 0)
(2.9646e-08 -1.76943e-06 0)
(2.96064e-08 -1.77382e-06 0)
(2.95666e-08 -1.77821e-06 0)
(2.95267e-08 -1.78261e-06 0)
(2.94865e-08 -1.78701e-06 0)
(2.94462e-08 -1.79141e-06 0)
(2.94057e-08 -1.79582e-06 0)
(2.9365e-08 -1.80024e-06 0)
(2.93241e-08 -1.80465e-06 0)
(2.9283e-08 -1.80908e-06 0)
(2.92417e-08 -1.8135e-06 0)
(2.92003e-08 -1.81793e-06 0)
(2.91586e-08 -1.82237e-06 0)
(2.91168e-08 -1.82681e-06 0)
(2.90748e-08 -1.83125e-06 0)
(2.90326e-08 -1.8357e-06 0)
(2.89902e-08 -1.84015e-06 0)
(2.89476e-08 -1.84461e-06 0)
(2.89048e-08 -1.84907e-06 0)
(2.88618e-08 -1.85353e-06 0)
(2.88187e-08 -1.858e-06 0)
(2.87753e-08 -1.86247e-06 0)
(2.87318e-08 -1.86694e-06 0)
(2.8688e-08 -1.87142e-06 0)
(2.86441e-08 -1.8759e-06 0)
(2.85999e-08 -1.88039e-06 0)
(2.85556e-08 -1.88488e-06 0)
(2.85111e-08 -1.88937e-06 0)
(2.84663e-08 -1.89387e-06 0)
(2.84214e-08 -1.89837e-06 0)
(2.83763e-08 -1.90287e-06 0)
(2.8331e-08 -1.90738e-06 0)
(2.82855e-08 -1.91189e-06 0)
(2.82397e-08 -1.9164e-06 0)
(2.81938e-08 -1.92092e-06 0)
(2.81477e-08 -1.92544e-06 0)
(2.81014e-08 -1.92996e-06 0)
(2.80549e-08 -1.93449e-06 0)
(2.80082e-08 -1.93902e-06 0)
(2.79613e-08 -1.94355e-06 0)
(2.79142e-08 -1.94808e-06 0)
(2.78668e-08 -1.95262e-06 0)
(2.78193e-08 -1.95717e-06 0)
(2.77716e-08 -1.96171e-06 0)
(2.77237e-08 -1.96626e-06 0)
(2.76756e-08 -1.97081e-06 0)
(2.76272e-08 -1.97536e-06 0)
(2.75787e-08 -1.97992e-06 0)
(2.753e-08 -1.98448e-06 0)
(2.7481e-08 -1.98904e-06 0)
(2.74319e-08 -1.9936e-06 0)
(2.73825e-08 -1.99817e-06 0)
(2.7333e-08 -2.00274e-06 0)
(2.72832e-08 -2.00731e-06 0)
(2.72333e-08 -2.01188e-06 0)
(2.71831e-08 -2.01646e-06 0)
(2.71327e-08 -2.02104e-06 0)
(2.70821e-08 -2.02562e-06 0)
(2.70313e-08 -2.0302e-06 0)
(2.69804e-08 -2.03479e-06 0)
(2.69291e-08 -2.03938e-06 0)
(2.68777e-08 -2.04397e-06 0)
(2.68261e-08 -2.04856e-06 0)
(2.67743e-08 -2.05315e-06 0)
(2.67223e-08 -2.05775e-06 0)
(2.667e-08 -2.06234e-06 0)
(2.66176e-08 -2.06694e-06 0)
(2.65649e-08 -2.07154e-06 0)
(2.6512e-08 -2.07615e-06 0)
(2.64589e-08 -2.08075e-06 0)
(2.64057e-08 -2.08536e-06 0)
(2.63522e-08 -2.08996e-06 0)
(2.62985e-08 -2.09457e-06 0)
(2.62445e-08 -2.09918e-06 0)
(2.61904e-08 -2.10379e-06 0)
(2.61361e-08 -2.10841e-06 0)
(2.60815e-08 -2.11302e-06 0)
(2.60268e-08 -2.11763e-06 0)
(2.59718e-08 -2.12225e-06 0)
(2.59166e-08 -2.12687e-06 0)
(2.58612e-08 -2.13149e-06 0)
(2.58056e-08 -2.13611e-06 0)
(2.57498e-08 -2.14073e-06 0)
(2.56938e-08 -2.14535e-06 0)
(2.56376e-08 -2.14997e-06 0)
(2.55811e-08 -2.15459e-06 0)
(2.55245e-08 -2.15922e-06 0)
(2.54676e-08 -2.16384e-06 0)
(2.54105e-08 -2.16847e-06 0)
(2.53533e-08 -2.17309e-06 0)
(2.52958e-08 -2.17772e-06 0)
(2.52381e-08 -2.18234e-06 0)
(2.51801e-08 -2.18697e-06 0)
(2.5122e-08 -2.19159e-06 0)
(2.50637e-08 -2.19622e-06 0)
(2.50051e-08 -2.20085e-06 0)
(2.49464e-08 -2.20547e-06 0)
(2.48874e-08 -2.2101e-06 0)
(2.48282e-08 -2.21473e-06 0)
(2.47688e-08 -2.21935e-06 0)
(2.47092e-08 -2.22398e-06 0)
(2.46494e-08 -2.22861e-06 0)
(2.45894e-08 -2.23323e-06 0)
(2.45292e-08 -2.23786e-06 0)
(2.44688e-08 -2.24248e-06 0)
(2.44081e-08 -2.24711e-06 0)
(2.43473e-08 -2.25173e-06 0)
(2.42862e-08 -2.25635e-06 0)
(2.42249e-08 -2.26097e-06 0)
(2.41635e-08 -2.2656e-06 0)
(2.41018e-08 -2.27022e-06 0)
(2.40399e-08 -2.27484e-06 0)
(2.39778e-08 -2.27945e-06 0)
(2.39155e-08 -2.28407e-06 0)
(2.38529e-08 -2.28869e-06 0)
(2.37902e-08 -2.2933e-06 0)
(2.37273e-08 -2.29792e-06 0)
(2.36642e-08 -2.30253e-06 0)
(2.36008e-08 -2.30714e-06 0)
(2.35373e-08 -2.31175e-06 0)
(2.34735e-08 -2.31636e-06 0)
(2.34096e-08 -2.32096e-06 0)
(2.33454e-08 -2.32556e-06 0)
(2.32811e-08 -2.33017e-06 0)
(2.32165e-08 -2.33477e-06 0)
(2.31517e-08 -2.33937e-06 0)
(2.30868e-08 -2.34396e-06 0)
(2.30216e-08 -2.34856e-06 0)
(2.29562e-08 -2.35315e-06 0)
(2.28907e-08 -2.35774e-06 0)
(2.28249e-08 -2.36232e-06 0)
(2.27589e-08 -2.36691e-06 0)
(2.26928e-08 -2.37149e-06 0)
(2.26264e-08 -2.37607e-06 0)
(2.25598e-08 -2.38065e-06 0)
(2.24931e-08 -2.38522e-06 0)
(2.24261e-08 -2.38979e-06 0)
(2.2359e-08 -2.39436e-06 0)
(2.22916e-08 -2.39893e-06 0)
(2.22241e-08 -2.40349e-06 0)
(2.21563e-08 -2.40805e-06 0)
(2.20884e-08 -2.41261e-06 0)
(2.20203e-08 -2.41716e-06 0)
(2.1952e-08 -2.42171e-06 0)
(2.18835e-08 -2.42625e-06 0)
(2.18148e-08 -2.4308e-06 0)
(2.1746e-08 -2.43533e-06 0)
(2.16765e-08 -2.43987e-06 0)
(2.16088e-08 -2.44438e-06 0)
(2.1544e-08 -2.44867e-06 0)
(2.14802e-08 -2.45275e-06 0)
(2.14169e-08 -2.45679e-06 0)
(2.13533e-08 -2.46088e-06 0)
(2.1289e-08 -2.46501e-06 0)
(2.12241e-08 -2.46919e-06 0)
(2.11584e-08 -2.47338e-06 0)
(2.10921e-08 -2.47761e-06 0)
(2.10249e-08 -2.48188e-06 0)
(2.09571e-08 -2.48617e-06 0)
(2.08885e-08 -2.4905e-06 0)
(2.08191e-08 -2.49486e-06 0)
(2.0749e-08 -2.49925e-06 0)
(2.06781e-08 -2.50368e-06 0)
(2.06064e-08 -2.50814e-06 0)
(2.0534e-08 -2.51263e-06 0)
(2.04607e-08 -2.51715e-06 0)
(2.03867e-08 -2.52171e-06 0)
(2.03119e-08 -2.5263e-06 0)
(2.02362e-08 -2.53092e-06 0)
(2.01597e-08 -2.53558e-06 0)
(2.00824e-08 -2.54027e-06 0)
(2.00043e-08 -2.54499e-06 0)
(1.99253e-08 -2.54974e-06 0)
(1.98455e-08 -2.55452e-06 0)
(1.97649e-08 -2.55934e-06 0)
(1.96833e-08 -2.56419e-06 0)
(1.96009e-08 -2.56907e-06 0)
(1.95177e-08 -2.57399e-06 0)
(1.94335e-08 -2.57894e-06 0)
(1.93485e-08 -2.58391e-06 0)
(1.92625e-08 -2.58893e-06 0)
(1.91757e-08 -2.59397e-06 0)
(1.9088e-08 -2.59904e-06 0)
(1.89993e-08 -2.60415e-06 0)
(1.89097e-08 -2.60929e-06 0)
(1.88193e-08 -2.61445e-06 0)
(1.87278e-08 -2.61965e-06 0)
(1.86355e-08 -2.62488e-06 0)
(1.85421e-08 -2.63014e-06 0)
(1.84479e-08 -2.63543e-06 0)
(1.83527e-08 -2.64075e-06 0)
(1.82565e-08 -2.6461e-06 0)
(1.81594e-08 -2.65148e-06 0)
(1.80612e-08 -2.65689e-06 0)
(1.79621e-08 -2.66233e-06 0)
(1.78621e-08 -2.6678e-06 0)
(1.7761e-08 -2.6733e-06 0)
(1.7659e-08 -2.67882e-06 0)
(1.75559e-08 -2.68437e-06 0)
(1.74519e-08 -2.68995e-06 0)
(1.73468e-08 -2.69555e-06 0)
(1.72408e-08 -2.70119e-06 0)
(1.71337e-08 -2.70684e-06 0)
(1.70256e-08 -2.71253e-06 0)
(1.69165e-08 -2.71824e-06 0)
(1.68064e-08 -2.72397e-06 0)
(1.66952e-08 -2.72973e-06 0)
(1.6583e-08 -2.73551e-06 0)
(1.64698e-08 -2.74131e-06 0)
(1.63556e-08 -2.74714e-06 0)
(1.62403e-08 -2.75299e-06 0)
(1.6124e-08 -2.75886e-06 0)
(1.60067e-08 -2.76475e-06 0)
(1.58883e-08 -2.77066e-06 0)
(1.57689e-08 -2.7766e-06 0)
(1.56484e-08 -2.78255e-06 0)
(1.55269e-08 -2.78852e-06 0)
(1.54044e-08 -2.7945e-06 0)
(1.52809e-08 -2.80051e-06 0)
(1.51563e-08 -2.80652e-06 0)
(1.50307e-08 -2.81256e-06 0)
(1.49041e-08 -2.81861e-06 0)
(1.47764e-08 -2.82467e-06 0)
(1.46477e-08 -2.83075e-06 0)
(1.4518e-08 -2.83684e-06 0)
(1.43873e-08 -2.84294e-06 0)
(1.42556e-08 -2.84905e-06 0)
(1.41229e-08 -2.85516e-06 0)
(1.39892e-08 -2.86129e-06 0)
(1.38545e-08 -2.86743e-06 0)
(1.37189e-08 -2.87357e-06 0)
(1.35822e-08 -2.87971e-06 0)
(1.34446e-08 -2.88586e-06 0)
(1.33061e-08 -2.89202e-06 0)
(1.31665e-08 -2.89817e-06 0)
(1.30261e-08 -2.90433e-06 0)
(1.28847e-08 -2.91049e-06 0)
(1.27424e-08 -2.91664e-06 0)
(1.25992e-08 -2.9228e-06 0)
(1.24552e-08 -2.92894e-06 0)
(1.23102e-08 -2.93509e-06 0)
(1.21644e-08 -2.94123e-06 0)
(1.20177e-08 -2.94736e-06 0)
(1.18703e-08 -2.95348e-06 0)
(1.1722e-08 -2.95959e-06 0)
(1.15729e-08 -2.96569e-06 0)
(1.1423e-08 -2.97178e-06 0)
(1.12723e-08 -2.97785e-06 0)
(1.1121e-08 -2.9839e-06 0)
(1.09689e-08 -2.98994e-06 0)
(1.08161e-08 -2.99596e-06 0)
(1.06626e-08 -3.00196e-06 0)
(1.05084e-08 -3.00794e-06 0)
(1.03537e-08 -3.0139e-06 0)
(1.01983e-08 -3.01983e-06 0)
(1.00424e-08 -3.02573e-06 0)
(9.88587e-09 -3.03161e-06 0)
(9.72884e-09 -3.03745e-06 0)
(9.57131e-09 -3.04327e-06 0)
(9.41331e-09 -3.04905e-06 0)
(9.25487e-09 -3.05479e-06 0)
(9.09602e-09 -3.0605e-06 0)
(8.93679e-09 -3.06618e-06 0)
(8.77721e-09 -3.07181e-06 0)
(8.61732e-09 -3.0774e-06 0)
(8.45714e-09 -3.08294e-06 0)
(8.29672e-09 -3.08845e-06 0)
(8.13609e-09 -3.0939e-06 0)
(7.97528e-09 -3.09931e-06 0)
(7.81434e-09 -3.10466e-06 0)
(7.6533e-09 -3.10996e-06 0)
(7.4922e-09 -3.11521e-06 0)
(7.33107e-09 -3.12041e-06 0)
(7.16997e-09 -3.12554e-06 0)
(7.00892e-09 -3.13061e-06 0)
(6.84798e-09 -3.13563e-06 0)
(6.68718e-09 -3.14058e-06 0)
(6.52657e-09 -3.14546e-06 0)
(6.36619e-09 -3.15028e-06 0)
(6.20608e-09 -3.15503e-06 0)
(6.0463e-09 -3.1597e-06 0)
(5.88687e-09 -3.16431e-06 0)
(5.72787e-09 -3.16884e-06 0)
(5.56931e-09 -3.17329e-06 0)
(5.41127e-09 -3.17767e-06 0)
(5.25377e-09 -3.18196e-06 0)
(5.09688e-09 -3.18618e-06 0)
(4.94064e-09 -3.19031e-06 0)
(4.78509e-09 -3.19435e-06 0)
(4.63029e-09 -3.19831e-06 0)
(4.47629e-09 -3.20218e-06 0)
(4.32313e-09 -3.20596e-06 0)
(4.17087e-09 -3.20965e-06 0)
(4.01955e-09 -3.21324e-06 0)
(3.86922e-09 -3.21674e-06 0)
(3.71994e-09 -3.22014e-06 0)
(3.57176e-09 -3.22345e-06 0)
(3.42471e-09 -3.22665e-06 0)
(3.27887e-09 -3.22975e-06 0)
(3.13426e-09 -3.23275e-06 0)
(2.99095e-09 -3.23565e-06 0)
(2.84898e-09 -3.23844e-06 0)
(2.7084e-09 -3.24112e-06 0)
(2.56926e-09 -3.24369e-06 0)
(2.4316e-09 -3.24616e-06 0)
(2.29548e-09 -3.24851e-06 0)
(2.16093e-09 -3.25076e-06 0)
(2.02802e-09 -3.25289e-06 0)
(1.89677e-09 -3.25491e-06 0)
(1.76724e-09 -3.25681e-06 0)
(1.63947e-09 -3.25859e-06 0)
(1.5135e-09 -3.26027e-06 0)
(1.38937e-09 -3.26182e-06 0)
(1.26713e-09 -3.26326e-06 0)
(1.14682e-09 -3.26457e-06 0)
(1.02847e-09 -3.26577e-06 0)
(9.12125e-10 -3.26685e-06 0)
(7.97818e-10 -3.26781e-06 0)
(6.85587e-10 -3.26865e-06 0)
(5.75466e-10 -3.26937e-06 0)
(4.67489e-10 -3.26997e-06 0)
(3.61688e-10 -3.27044e-06 0)
(2.58094e-10 -3.2708e-06 0)
(1.56735e-10 -3.27103e-06 0)
(5.76444e-11 -3.27115e-06 0)
(-3.91698e-11 -3.27114e-06 0)
(-1.33608e-10 -3.27102e-06 0)
(-2.25959e-10 -3.27077e-06 0)
(-3.1479e-10 -3.2704e-06 0)
(-4.05574e-10 -3.26992e-06 0)
(-5.01597e-10 -3.26924e-06 0)
(-5.97757e-10 -3.26833e-06 0)
(-6.91597e-10 -3.26727e-06 0)
(-7.81411e-10 -3.26605e-06 0)
(-8.66852e-10 -3.2647e-06 0)
(-9.47956e-10 -3.26321e-06 0)
(-1.02482e-09 -3.26159e-06 0)
(-1.09754e-09 -3.25985e-06 0)
(-1.16624e-09 -3.258e-06 0)
(-1.23106e-09 -3.25604e-06 0)
(-1.29211e-09 -3.25398e-06 0)
(-1.34952e-09 -3.25183e-06 0)
(-1.40339e-09 -3.24958e-06 0)
(-1.45384e-09 -3.24725e-06 0)
(-1.50099e-09 -3.24484e-06 0)
(-1.54492e-09 -3.24236e-06 0)
(-1.58576e-09 -3.23981e-06 0)
(-1.62358e-09 -3.2372e-06 0)
(-1.65851e-09 -3.23453e-06 0)
(-1.69061e-09 -3.2318e-06 0)
(-1.72e-09 -3.22902e-06 0)
(-1.74674e-09 -3.2262e-06 0)
(-1.77093e-09 -3.22334e-06 0)
(-1.79265e-09 -3.22044e-06 0)
(-1.81198e-09 -3.21751e-06 0)
(-1.82899e-09 -3.21455e-06 0)
(-1.84376e-09 -3.21156e-06 0)
(-1.85635e-09 -3.20855e-06 0)
(-1.86684e-09 -3.20553e-06 0)
(-1.87529e-09 -3.20249e-06 0)
(-1.88177e-09 -3.19943e-06 0)
(-1.88632e-09 -3.19637e-06 0)
(-1.88903e-09 -3.1933e-06 0)
(-1.88993e-09 -3.19023e-06 0)
(-1.88909e-09 -3.18716e-06 0)
(-1.88656e-09 -3.18409e-06 0)
(-1.88238e-09 -3.18103e-06 0)
(-1.87662e-09 -3.17797e-06 0)
(-1.86931e-09 -3.17493e-06 0)
(-1.8605e-09 -3.1719e-06 0)
(-1.85023e-09 -3.16889e-06 0)
(-1.83855e-09 -3.16589e-06 0)
(-1.8255e-09 -3.16291e-06 0)
(-1.81112e-09 -3.15996e-06 0)
(-1.79544e-09 -3.15703e-06 0)
(-1.77851e-09 -3.15412e-06 0)
(-1.76035e-09 -3.15125e-06 0)
(-1.741e-09 -3.1484e-06 0)
(-1.72051e-09 -3.14559e-06 0)
(-1.69889e-09 -3.14281e-06 0)
(-1.67618e-09 -3.14007e-06 0)
(-1.65241e-09 -3.13737e-06 0)
(-1.62761e-09 -3.1347e-06 0)
(-1.60181e-09 -3.13208e-06 0)
(-1.57504e-09 -3.1295e-06 0)
(-1.54732e-09 -3.12696e-06 0)
(-1.51868e-09 -3.12447e-06 0)
(-1.48916e-09 -3.12203e-06 0)
(-1.45877e-09 -3.11963e-06 0)
(-1.42754e-09 -3.11728e-06 0)
(-1.39549e-09 -3.11499e-06 0)
(-1.36265e-09 -3.11275e-06 0)
(-1.32905e-09 -3.11056e-06 0)
(-1.2947e-09 -3.10843e-06 0)
(-1.25964e-09 -3.10635e-06 0)
(-1.22388e-09 -3.10433e-06 0)
(-1.18745e-09 -3.10237e-06 0)
(-1.15038e-09 -3.10047e-06 0)
(-1.11267e-09 -3.09863e-06 0)
(-1.07437e-09 -3.09685e-06 0)
(-1.03548e-09 -3.09513e-06 0)
(-9.96041e-10 -3.09348e-06 0)
(-9.56064e-10 -3.09189e-06 0)
(-9.15575e-10 -3.09037e-06 0)
(-8.74595e-10 -3.08891e-06 0)
(-8.33149e-10 -3.08752e-06 0)
(-7.91256e-10 -3.08619e-06 0)
(-7.48939e-10 -3.08494e-06 0)
(-7.0622e-10 -3.08375e-06 0)
(-6.63122e-10 -3.08264e-06 0)
(-6.19665e-10 -3.08159e-06 0)
(-5.75873e-10 -3.08061e-06 0)
(-5.31768e-10 -3.07971e-06 0)
(-4.87374e-10 -3.07888e-06 0)
(-4.42714e-10 -3.07811e-06 0)
(-3.97819e-10 -3.07744e-06 0)
(-3.52716e-10 -3.07676e-06 0)
(-3.07445e-10 -3.07643e-06 0)
(-2.62025e-10 -3.07524e-06 0)
(-2.16557e-10 -3.07718e-06 0)
(-1.70894e-10 -3.06886e-06 0)
(-1.25484e-10 -3.0936e-06 0)
(-7.94849e-11 -3.00081e-06 0)
(-3.34503e-11 -3.2472e-06 0)
(-5.4747e-12 -2.8361e-06 0)
)
;
    }
    bottomWall
    {
        type            calculated;
        value           nonuniform List<vector> 
449
(
(-48.4863 -0.963454 0)
(-19.737 -0.00514925 0)
(-14.3379 -0.00113238 0)
(-12.0363 -0.000542718 0)
(-10.641 -0.000347171 0)
(-9.66585 -0.000248044 0)
(-8.9434 -0.000182354 0)
(-8.41482 -0.000124207 0)
(-8.08959 -5.21545e-05 0)
(-8.05689 7.13388e-05 0)
(-8.5869 0.000254491 0)
(-9.82329 0.000335664 0)
(-10.9147 0.000256425 0)
(-11.6035 0.00015388 0)
(-11.9863 8.47515e-05 0)
(-12.1954 4.47346e-05 0)
(-12.2995 2.00298e-05 0)
(-12.3359 3.20494e-06 0)
(-12.3219 -7.83495e-06 0)
(-12.2806 -1.43829e-05 0)
(-12.2201 -1.87372e-05 0)
(-12.1477 -2.12446e-05 0)
(-12.0692 -2.2409e-05 0)
(-11.9881 -2.27876e-05 0)
(-11.9065 -2.27007e-05 0)
(-11.8256 -2.2356e-05 0)
(-11.7461 -2.18482e-05 0)
(-11.6685 -2.12189e-05 0)
(-11.5931 -2.05361e-05 0)
(-11.5201 -1.9835e-05 0)
(-11.4495 -1.91352e-05 0)
(-11.3812 -1.84483e-05 0)
(-11.3152 -1.77828e-05 0)
(-11.2515 -1.71415e-05 0)
(-11.1899 -1.65353e-05 0)
(-11.1303 -1.5967e-05 0)
(-11.0726 -1.542e-05 0)
(-11.0168 -1.48902e-05 0)
(-10.9628 -1.43853e-05 0)
(-10.9104 -1.39061e-05 0)
(-10.8596 -1.34512e-05 0)
(-10.8104 -1.30197e-05 0)
(-10.7626 -1.2612e-05 0)
(-10.7162 -1.22245e-05 0)
(-10.6711 -1.18553e-05 0)
(-10.6273 -1.15042e-05 0)
(-10.5846 -1.11725e-05 0)
(-10.5431 -1.08546e-05 0)
(-10.5026 -1.0559e-05 0)
(-10.4631 -1.02992e-05 0)
(-10.4244 -1.0066e-05 0)
(-10.3865 -9.84646e-06 0)
(-10.3493 -9.63393e-06 0)
(-10.3128 -9.42496e-06 0)
(-10.2771 -9.21957e-06 0)
(-10.242 -9.01645e-06 0)
(-10.2076 -8.8179e-06 0)
(-10.1739 -8.62548e-06 0)
(-10.1409 -8.43779e-06 0)
(-10.1085 -8.25541e-06 0)
(-10.0767 -8.0794e-06 0)
(-10.0455 -7.91045e-06 0)
(-10.0149 -7.74607e-06 0)
(-9.9849 -7.58588e-06 0)
(-9.95541 -7.43029e-06 0)
(-9.92645 -7.28137e-06 0)
(-9.898 -7.13756e-06 0)
(-9.87005 -6.99834e-06 0)
(-9.84257 -6.86207e-06 0)
(-9.81556 -6.73369e-06 0)
(-9.78898 -6.61149e-06 0)
(-9.76282 -6.4893e-06 0)
(-9.73709 -6.36931e-06 0)
(-9.71177 -6.25364e-06 0)
(-9.68684 -6.142e-06 0)
(-9.6623 -6.03196e-06 0)
(-9.63815 -5.92509e-06 0)
(-9.61436 -5.82071e-06 0)
(-9.59094 -5.71926e-06 0)
(-9.56787 -5.62089e-06 0)
(-9.54514 -5.52519e-06 0)
(-9.52274 -5.43212e-06 0)
(-9.50067 -5.34174e-06 0)
(-9.4789 -5.25348e-06 0)
(-9.45745 -5.1675e-06 0)
(-9.43629 -5.08427e-06 0)
(-9.41543 -5.00294e-06 0)
(-9.39485 -4.92508e-06 0)
(-9.37454 -4.84868e-06 0)
(-9.35449 -4.77359e-06 0)
(-9.33471 -4.70091e-06 0)
(-9.31518 -4.62921e-06 0)
(-9.2959 -4.55966e-06 0)
(-9.27687 -4.49173e-06 0)
(-9.25807 -4.42459e-06 0)
(-9.23951 -4.36032e-06 0)
(-9.22118 -4.29692e-06 0)
(-9.20307 -4.23474e-06 0)
(-9.18517 -4.17496e-06 0)
(-9.16749 -4.11552e-06 0)
(-9.15002 -4.06025e-06 0)
(-9.13273 -4.0076e-06 0)
(-9.11562 -3.95339e-06 0)
(-9.09871 -3.90021e-06 0)
(-9.08199 -3.84746e-06 0)
(-9.06546 -3.79537e-06 0)
(-9.04911 -3.74555e-06 0)
(-9.03293 -3.69618e-06 0)
(-9.01694 -3.64725e-06 0)
(-9.00111 -3.6005e-06 0)
(-8.98545 -3.55417e-06 0)
(-8.96995 -3.50806e-06 0)
(-8.95462 -3.4642e-06 0)
(-8.93944 -3.42077e-06 0)
(-8.92442 -3.37738e-06 0)
(-8.90955 -3.33599e-06 0)
(-8.89483 -3.29528e-06 0)
(-8.88025 -3.25443e-06 0)
(-8.86582 -3.2151e-06 0)
(-8.85153 -3.17696e-06 0)
(-8.83737 -3.13857e-06 0)
(-8.82336 -3.10115e-06 0)
(-8.80947 -3.06541e-06 0)
(-8.79572 -3.02942e-06 0)
(-8.78209 -2.99365e-06 0)
(-8.76859 -2.95962e-06 0)
(-8.75521 -2.92602e-06 0)
(-8.74195 -2.89232e-06 0)
(-8.72882 -2.85964e-06 0)
(-8.7158 -2.82813e-06 0)
(-8.70289 -2.7965e-06 0)
(-8.6901 -2.76502e-06 0)
(-8.67742 -2.73499e-06 0)
(-8.66485 -2.70547e-06 0)
(-8.65238 -2.6757e-06 0)
(-8.64002 -2.64668e-06 0)
(-8.62777 -2.61893e-06 0)
(-8.61561 -2.59104e-06 0)
(-8.60356 -2.56303e-06 0)
(-8.59161 -2.53628e-06 0)
(-8.57976 -2.51033e-06 0)
(-8.56799 -2.48402e-06 0)
(-8.55633 -2.45793e-06 0)
(-8.54476 -2.43307e-06 0)
(-8.53327 -2.40865e-06 0)
(-8.52188 -2.38388e-06 0)
(-8.51058 -2.3601e-06 0)
(-8.49936 -2.33846e-06 0)
(-8.48821 -2.31679e-06 0)
(-8.47714 -2.29386e-06 0)
(-8.46616 -2.27113e-06 0)
(-8.45526 -2.24924e-06 0)
(-8.44444 -2.22759e-06 0)
(-8.4337 -2.20577e-06 0)
(-8.42304 -2.1843e-06 0)
(-8.41246 -2.16364e-06 0)
(-8.40195 -2.14333e-06 0)
(-8.39152 -2.12283e-06 0)
(-8.38116 -2.1025e-06 0)
(-8.37088 -2.08298e-06 0)
(-8.36067 -2.06397e-06 0)
(-8.35052 -2.04471e-06 0)
(-8.34045 -2.0254e-06 0)
(-8.33045 -2.00689e-06 0)
(-8.32052 -1.98902e-06 0)
(-8.31065 -1.97095e-06 0)
(-8.30085 -1.95274e-06 0)
(-8.29111 -1.93509e-06 0)
(-8.28144 -1.91824e-06 0)
(-8.27183 -1.90125e-06 0)
(-8.26229 -1.88442e-06 0)
(-8.2528 -1.8674e-06 0)
(-8.24339 -1.84897e-06 0)
(-8.23456 -1.83562e-06 0)
(-8.22624 -1.82406e-06 0)
(-8.2179 -1.80796e-06 0)
(-8.20955 -1.79297e-06 0)
(-8.20117 -1.77922e-06 0)
(-8.19276 -1.76537e-06 0)
(-8.18433 -1.75133e-06 0)
(-8.17588 -1.73696e-06 0)
(-8.1674 -1.72308e-06 0)
(-8.1589 -1.70949e-06 0)
(-8.15038 -1.69602e-06 0)
(-8.14183 -1.68212e-06 0)
(-8.13326 -1.66807e-06 0)
(-8.12467 -1.65453e-06 0)
(-8.11605 -1.64123e-06 0)
(-8.10742 -1.62789e-06 0)
(-8.09876 -1.61425e-06 0)
(-8.09008 -1.60063e-06 0)
(-8.08138 -1.58744e-06 0)
(-8.07265 -1.57442e-06 0)
(-8.06391 -1.56122e-06 0)
(-8.05514 -1.54785e-06 0)
(-8.04636 -1.53469e-06 0)
(-8.03755 -1.52181e-06 0)
(-8.02872 -1.5091e-06 0)
(-8.01987 -1.4961e-06 0)
(-8.01101 -1.48299e-06 0)
(-8.00213 -1.47028e-06 0)
(-7.99322 -1.45779e-06 0)
(-7.9843 -1.44522e-06 0)
(-7.97535 -1.43249e-06 0)
(-7.9664 -1.41986e-06 0)
(-7.95742 -1.40754e-06 0)
(-7.94842 -1.39539e-06 0)
(-7.9394 -1.383e-06 0)
(-7.93037 -1.37051e-06 0)
(-7.92133 -1.35838e-06 0)
(-7.91226 -1.3465e-06 0)
(-7.90317 -1.33445e-06 0)
(-7.89408 -1.32299e-06 0)
(-7.88495 -1.31208e-06 0)
(-7.87581 -1.30075e-06 0)
(-7.86664 -1.28914e-06 0)
(-7.85746 -1.2773e-06 0)
(-7.84827 -1.26551e-06 0)
(-7.83906 -1.25404e-06 0)
(-7.82984 -1.24273e-06 0)
(-7.8206 -1.23121e-06 0)
(-7.81135 -1.21964e-06 0)
(-7.80208 -1.20841e-06 0)
(-7.7928 -1.19742e-06 0)
(-7.78351 -1.18622e-06 0)
(-7.7742 -1.1749e-06 0)
(-7.76488 -1.16393e-06 0)
(-7.75555 -1.15321e-06 0)
(-7.7462 -1.14232e-06 0)
(-7.73684 -1.13132e-06 0)
(-7.72747 -1.12062e-06 0)
(-7.71809 -1.11016e-06 0)
(-7.7087 -1.09957e-06 0)
(-7.69929 -1.08888e-06 0)
(-7.68987 -1.07844e-06 0)
(-7.68045 -1.06827e-06 0)
(-7.67101 -1.05796e-06 0)
(-7.66156 -1.04756e-06 0)
(-7.6521 -1.03742e-06 0)
(-7.64263 -1.02752e-06 0)
(-7.63315 -1.0175e-06 0)
(-7.62366 -1.00738e-06 0)
(-7.61416 -9.97544e-07 0)
(-7.60466 -9.87927e-07 0)
(-7.59514 -9.78169e-07 0)
(-7.58561 -9.68345e-07 0)
(-7.57608 -9.58818e-07 0)
(-7.56654 -9.49487e-07 0)
(-7.55699 -9.39989e-07 0)
(-7.54743 -9.30459e-07 0)
(-7.53787 -9.21243e-07 0)
(-7.52829 -9.12157e-07 0)
(-7.51871 -9.02921e-07 0)
(-7.50913 -8.93721e-07 0)
(-7.49954 -8.8479e-07 0)
(-7.48994 -8.75931e-07 0)
(-7.48033 -8.66967e-07 0)
(-7.47072 -8.58101e-07 0)
(-7.46111 -8.49464e-07 0)
(-7.45148 -8.40832e-07 0)
(-7.44185 -8.32132e-07 0)
(-7.43222 -8.23588e-07 0)
(-7.42259 -8.1524e-07 0)
(-7.41294 -8.0683e-07 0)
(-7.4033 -7.98394e-07 0)
(-7.39365 -7.90167e-07 0)
(-7.38399 -7.82073e-07 0)
(-7.37434 -7.73893e-07 0)
(-7.36468 -7.65761e-07 0)
(-7.35501 -7.57838e-07 0)
(-7.34534 -7.49952e-07 0)
(-7.33567 -7.42018e-07 0)
(-7.326 -7.34234e-07 0)
(-7.31633 -7.271e-07 0)
(-7.30663 -7.19996e-07 0)
(-7.29694 -7.12419e-07 0)
(-7.28724 -7.04939e-07 0)
(-7.27754 -6.9753e-07 0)
(-7.26784 -6.90068e-07 0)
(-7.25814 -6.82669e-07 0)
(-7.24844 -6.75447e-07 0)
(-7.23874 -6.68228e-07 0)
(-7.22903 -6.60979e-07 0)
(-7.21933 -6.53875e-07 0)
(-7.20963 -6.46901e-07 0)
(-7.19992 -6.39875e-07 0)
(-7.19022 -6.32877e-07 0)
(-7.18052 -6.26067e-07 0)
(-7.17082 -6.19289e-07 0)
(-7.16112 -6.12477e-07 0)
(-7.15143 -6.05789e-07 0)
(-7.14173 -5.99238e-07 0)
(-7.13204 -5.92643e-07 0)
(-7.12235 -5.86066e-07 0)
(-7.11266 -5.79666e-07 0)
(-7.10297 -5.73299e-07 0)
(-7.09329 -5.66903e-07 0)
(-7.08361 -5.60623e-07 0)
(-7.07393 -5.54471e-07 0)
(-7.06426 -5.48279e-07 0)
(-7.05459 -5.42118e-07 0)
(-7.04492 -5.36116e-07 0)
(-7.03526 -5.30138e-07 0)
(-7.0256 -5.24141e-07 0)
(-7.01595 -5.18262e-07 0)
(-7.0063 -5.12479e-07 0)
(-6.99666 -5.06668e-07 0)
(-6.98702 -5.00907e-07 0)
(-6.97739 -4.95294e-07 0)
(-6.96776 -4.89678e-07 0)
(-6.95814 -4.84062e-07 0)
(-6.94853 -4.78572e-07 0)
(-6.93892 -4.73147e-07 0)
(-6.92932 -4.67701e-07 0)
(-6.91972 -4.6233e-07 0)
(-6.91013 -4.57075e-07 0)
(-6.90055 -4.51805e-07 0)
(-6.89098 -4.46556e-07 0)
(-6.88141 -4.41444e-07 0)
(-6.87185 -4.3635e-07 0)
(-6.8623 -4.31255e-07 0)
(-6.85276 -4.26262e-07 0)
(-6.84323 -4.21339e-07 0)
(-6.8337 -4.16403e-07 0)
(-6.82418 -4.11528e-07 0)
(-6.81468 -4.06761e-07 0)
(-6.80518 -4.01988e-07 0)
(-6.79569 -3.97233e-07 0)
(-6.78621 -3.92588e-07 0)
(-6.77674 -3.88208e-07 0)
(-6.76727 -3.83886e-07 0)
(-6.7578 -3.79402e-07 0)
(-6.74835 -3.74929e-07 0)
(-6.7389 -3.70453e-07 0)
(-6.72947 -3.66043e-07 0)
(-6.72005 -3.61716e-07 0)
(-6.71064 -3.57393e-07 0)
(-6.70124 -3.5311e-07 0)
(-6.69185 -3.48973e-07 0)
(-6.68247 -3.44829e-07 0)
(-6.67311 -3.40651e-07 0)
(-6.66375 -3.36571e-07 0)
(-6.65441 -3.32526e-07 0)
(-6.64508 -3.28478e-07 0)
(-6.63576 -3.24515e-07 0)
(-6.62646 -3.206e-07 0)
(-6.61717 -3.16692e-07 0)
(-6.60789 -3.12831e-07 0)
(-6.59862 -3.09052e-07 0)
(-6.58937 -3.05251e-07 0)
(-6.58014 -3.01524e-07 0)
(-6.57091 -2.97777e-07 0)
(-6.56171 -2.94182e-07 0)
(-6.5525 -2.90711e-07 0)
(-6.54229 -2.86564e-07 0)
(-6.53117 -2.82119e-07 0)
(-6.52022 -2.78078e-07 0)
(-6.50941 -2.74121e-07 0)
(-6.49877 -2.7016e-07 0)
(-6.48828 -2.6633e-07 0)
(-6.47794 -2.6258e-07 0)
(-6.46774 -2.58901e-07 0)
(-6.45768 -2.55337e-07 0)
(-6.44776 -2.51839e-07 0)
(-6.43798 -2.4841e-07 0)
(-6.42833 -2.45089e-07 0)
(-6.41881 -2.4183e-07 0)
(-6.40941 -2.38624e-07 0)
(-6.40014 -2.35529e-07 0)
(-6.39099 -2.32486e-07 0)
(-6.38196 -2.29496e-07 0)
(-6.37303 -2.266e-07 0)
(-6.36423 -2.23762e-07 0)
(-6.35553 -2.2096e-07 0)
(-6.34695 -2.18245e-07 0)
(-6.33846 -2.15588e-07 0)
(-6.33008 -2.12967e-07 0)
(-6.3218 -2.10409e-07 0)
(-6.31362 -2.07926e-07 0)
(-6.30553 -2.05467e-07 0)
(-6.29755 -2.03053e-07 0)
(-6.28965 -2.00715e-07 0)
(-6.28185 -1.98419e-07 0)
(-6.27413 -1.96185e-07 0)
(-6.2665 -1.94089e-07 0)
(-6.25895 -1.92014e-07 0)
(-6.25148 -1.89895e-07 0)
(-6.24409 -1.87796e-07 0)
(-6.23679 -1.85773e-07 0)
(-6.22956 -1.83789e-07 0)
(-6.22242 -1.81817e-07 0)
(-6.21534 -1.79872e-07 0)
(-6.20835 -1.77988e-07 0)
(-6.20141 -1.7612e-07 0)
(-6.19457 -1.74277e-07 0)
(-6.18778 -1.72474e-07 0)
(-6.18108 -1.70728e-07 0)
(-6.17443 -1.68989e-07 0)
(-6.16786 -1.67276e-07 0)
(-6.16134 -1.656e-07 0)
(-6.15491 -1.63978e-07 0)
(-6.14852 -1.62359e-07 0)
(-6.14221 -1.60767e-07 0)
(-6.13594 -1.59201e-07 0)
(-6.12975 -1.57692e-07 0)
(-6.12361 -1.56181e-07 0)
(-6.11754 -1.54701e-07 0)
(-6.1115 -1.53229e-07 0)
(-6.10555 -1.51824e-07 0)
(-6.09963 -1.50411e-07 0)
(-6.09379 -1.49038e-07 0)
(-6.08797 -1.47649e-07 0)
(-6.08224 -1.46339e-07 0)
(-6.07652 -1.45019e-07 0)
(-6.07089 -1.4375e-07 0)
(-6.06528 -1.42432e-07 0)
(-6.05975 -1.41214e-07 0)
(-6.05423 -1.39961e-07 0)
(-6.0488 -1.388e-07 0)
(-6.04338 -1.37558e-07 0)
(-6.03804 -1.36429e-07 0)
(-6.03271 -1.35229e-07 0)
(-6.02747 -1.34172e-07 0)
(-6.02221 -1.32995e-07 0)
(-6.01706 -1.31965e-07 0)
(-6.01189 -1.30804e-07 0)
(-6.00683 -1.29844e-07 0)
(-6.00173 -1.28725e-07 0)
(-5.99676 -1.27814e-07 0)
(-5.99174 -1.26687e-07 0)
(-5.98686 -1.25831e-07 0)
(-5.98189 -1.24739e-07 0)
(-5.9771 -1.23966e-07 0)
(-5.9722 -1.22885e-07 0)
(-5.96749 -1.22161e-07 0)
(-5.96264 -1.21107e-07 0)
(-5.95801 -1.20462e-07 0)
(-5.95322 -1.19513e-07 0)
(-5.94867 -1.18831e-07 0)
(-5.94393 -1.18252e-07 0)
(-5.93941 -1.16952e-07 0)
(-5.93478 -1.18119e-07 0)
(-5.93017 -1.13702e-07 0)
(-5.9259 -1.21753e-07 0)
(-5.92063 -1.04339e-07 0)
(-5.91778 -1.35178e-07 0)
(-5.90997 -8.2213e-08 0)
(-5.91151 -1.13539e-07 0)
(-5.90081 -1.41912e-07 0)
)
;
    }
    symmetry
    {
        type            symmetryPlane;
    }
    frontAndBack
    {
        type            empty;
    }
}


// ************************************************************************* //
