/*--------------------------------*- C++ -*----------------------------------*\
| =========                 |                                                 |
| \\      /  F ield         | OpenFOAM: The Open Source CFD Toolbox           |
|  \\    /   O peration     | Version:  v2012                                 |
|   \\  /    A nd           | Website:  www.openfoam.com                      |
|    \\/     M anipulation  |                                                 |
\*---------------------------------------------------------------------------*/
FoamFile
{
    version     2.0;
    format      ascii;
    class       volScalarField;
    location    "50";
    object      yPlus;
}
// * * * * * * * * * * * * * * * * * * * * * * * * * * * * * * * * * * * * * //

dimensions      [0 0 0 0 0 0 0];


internalField   uniform 0;

boundaryField
{
    inlet
    {
        type            calculated;
        value           uniform 0;
    }
    outlet
    {
        type            calculated;
        value           uniform 0;
    }
    topWall
    {
        type            calculated;
        value           nonuniform List<scalar> 
545
(
0.111337
0.191978
0.24629
0.289513
0.326107
0.358128
0.38673
0.412643
0.43636
0.458238
0.478542
0.49748
0.515214
0.531878
0.547581
0.562416
0.57646
0.589781
0.602436
0.614478
0.62595
0.636893
0.647343
0.657331
0.666887
0.676037
0.684804
0.693212
0.701279
0.709024
0.716465
0.723617
0.730494
0.737111
0.743481
0.749614
0.755522
0.761215
0.766704
0.771997
0.777102
0.782029
0.786785
0.791376
0.795811
0.800094
0.804233
0.808233
0.8121
0.815839
0.819455
0.822953
0.826337
0.829612
0.832781
0.835849
0.838819
0.841695
0.844481
0.847179
0.849793
0.852325
0.854779
0.857158
0.859463
0.861698
0.863865
0.865966
0.868003
0.869979
0.871896
0.873755
0.875536
0.877258
0.878968
0.880663
0.882346
0.884015
0.885671
0.887314
0.888944
0.890561
0.892166
0.893759
0.895339
0.896907
0.898463
0.900006
0.901538
0.903059
0.904567
0.906065
0.90755
0.909025
0.910488
0.91194
0.913249
0.914419
0.91559
0.91676
0.91793
0.9191
0.92027
0.92144
0.92261
0.92378
0.924949
0.926118
0.927288
0.928457
0.929625
0.930794
0.931962
0.933131
0.934299
0.935466
0.936634
0.937801
0.938969
0.940135
0.941302
0.942468
0.943635
0.944801
0.945966
0.947131
0.948297
0.949461
0.950626
0.95179
0.952954
0.954117
0.95528
0.956443
0.957606
0.958768
0.95993
0.961091
0.962252
0.963413
0.964573
0.965733
0.966892
0.968051
0.96921
0.970368
0.971525
0.972683
0.973839
0.974996
0.976152
0.977307
0.978462
0.979616
0.98077
0.981923
0.983076
0.984228
0.98538
0.986531
0.987682
0.988832
0.989981
0.99113
0.992278
0.993426
0.994573
0.995719
0.996865
0.99801
0.999154
1.0003
1.00144
1.00258
1.00373
1.00487
1.00601
1.00715
1.00828
1.00942
1.01056
1.0117
1.01283
1.01397
1.0151
1.01623
1.01737
1.0185
1.01963
1.02076
1.02189
1.02302
1.02414
1.02527
1.0264
1.02752
1.02865
1.02977
1.03089
1.03201
1.03313
1.03425
1.03537
1.03648
1.0376
1.03872
1.03983
1.04094
1.04205
1.04317
1.04428
1.04538
1.04649
1.0476
1.0487
1.04981
1.05091
1.05201
1.05311
1.05421
1.05531
1.05641
1.0575
1.0586
1.05969
1.06078
1.06187
1.06296
1.06405
1.06514
1.06622
1.06731
1.06839
1.06947
1.07055
1.07163
1.07271
1.07379
1.07486
1.07593
1.07701
1.07808
1.07915
1.08021
1.08128
1.08234
1.08341
1.08447
1.08553
1.08658
1.08764
1.0887
1.08975
1.0908
1.09185
1.0929
1.09395
1.09499
1.09604
1.09708
1.09812
1.09916
1.10019
1.10123
1.10226
1.10329
1.10432
1.10535
1.10638
1.10734
1.10826
1.10918
1.1101
1.11103
1.11197
1.11292
1.11387
1.11483
1.11579
1.11676
1.11774
1.11872
1.11971
1.12071
1.12171
1.12272
1.12374
1.12476
1.12579
1.12683
1.12787
1.12891
1.12997
1.13103
1.13209
1.13317
1.13425
1.13533
1.13642
1.13752
1.13862
1.13973
1.14084
1.14196
1.14309
1.14422
1.14536
1.1465
1.14765
1.1488
1.14996
1.15113
1.1523
1.15347
1.15465
1.15584
1.15703
1.15822
1.15942
1.16063
1.16184
1.16305
1.16427
1.16549
1.16672
1.16795
1.16918
1.17042
1.17166
1.1729
1.17415
1.1754
1.17666
1.17792
1.17918
1.18044
1.18171
1.18298
1.18425
1.18552
1.18679
1.18807
1.18935
1.19063
1.19191
1.19319
1.19447
1.19575
1.19703
1.19832
1.1996
1.20088
1.20216
1.20345
1.20473
1.20601
1.20728
1.20856
1.20984
1.21111
1.21238
1.21365
1.21491
1.21617
1.21743
1.21868
1.21994
1.22118
1.22242
1.22366
1.22489
1.22612
1.22734
1.22855
1.22976
1.23097
1.23216
1.23335
1.23453
1.2357
1.23687
1.23802
1.23917
1.24031
1.24144
1.24256
1.24367
1.24476
1.24585
1.24693
1.24799
1.24905
1.25009
1.25112
1.25213
1.25314
1.25412
1.2551
1.25606
1.25701
1.25794
1.25886
1.25976
1.26065
1.26152
1.26237
1.26321
1.26402
1.26483
1.26561
1.26638
1.26712
1.26785
1.26856
1.26926
1.26993
1.27058
1.27121
1.27182
1.27241
1.27299
1.27353
1.27406
1.27457
1.27506
1.27552
1.27596
1.27638
1.27678
1.27715
1.2775
1.27783
1.27813
1.27842
1.27867
1.27891
1.27912
1.27931
1.27948
1.27962
1.27974
1.27983
1.2799
1.27995
1.27997
1.27997
1.27995
1.2799
1.27983
1.27973
1.2796
1.27942
1.27922
1.27898
1.27871
1.27842
1.27811
1.27777
1.27741
1.27702
1.27662
1.2762
1.27576
1.2753
1.27483
1.27434
1.27384
1.27332
1.2728
1.27226
1.27172
1.27116
1.2706
1.27003
1.26945
1.26887
1.26828
1.26768
1.26709
1.26648
1.26588
1.26528
1.26467
1.26406
1.26345
1.26284
1.26224
1.26163
1.26103
1.26043
1.25983
1.25923
1.25864
1.25805
1.25747
1.25689
1.25632
1.25575
1.25519
1.25464
1.25409
1.25355
1.25302
1.25249
1.25198
1.25147
1.25097
1.25048
1.25
1.24953
1.24907
1.24862
1.24818
1.24776
1.24734
1.24693
1.24654
1.24616
1.24579
1.24543
1.24508
1.24475
1.24443
1.24413
1.24383
1.24355
1.24329
1.24303
1.24279
1.24257
1.24236
1.24216
1.24198
1.24181
1.24166
1.24152
1.24139
1.24129
1.24119
1.24111
1.24105
1.241
1.24096
1.24094
1.24093
)
;
    }
    bottomWall
    {
        type            calculated;
        value           nonuniform List<scalar> 
449
(
0.139387
0.0889291
0.0757958
0.0694462
0.0652971
0.0622332
0.0598623
0.0580663
0.0569332
0.056818
0.0586571
0.062738
0.0661315
0.0681863
0.0693018
0.0699037
0.0702013
0.0703052
0.0702653
0.0701473
0.0699746
0.0697668
0.0695409
0.0693069
0.0690706
0.0688357
0.0686038
0.0683769
0.0681557
0.0679408
0.0677322
0.0675299
0.0673339
0.067144
0.06696
0.0667815
0.0666082
0.06644
0.0662768
0.0661184
0.0659644
0.0658147
0.0656691
0.0655274
0.0653894
0.0652549
0.0651238
0.0649958
0.0648709
0.0647488
0.064629
0.0645113
0.0643958
0.0642822
0.0641706
0.0640611
0.0639535
0.0638478
0.0637441
0.0636422
0.0635421
0.0634437
0.063347
0.0632519
0.0631585
0.0630665
0.0629761
0.0628871
0.0627995
0.0627133
0.0626283
0.0625446
0.0624621
0.0623808
0.0623007
0.0622218
0.062144
0.0620672
0.0619916
0.061917
0.0618434
0.0617708
0.0616991
0.0616284
0.0615587
0.0614898
0.0614217
0.0613546
0.0612882
0.0612226
0.0611579
0.0610939
0.0610306
0.0609681
0.0609063
0.0608452
0.0607848
0.0607251
0.0606661
0.0606076
0.0605498
0.0604926
0.0604359
0.0603799
0.0603243
0.0602694
0.060215
0.0601612
0.0601079
0.0600551
0.0600028
0.0599511
0.0598998
0.059849
0.0597987
0.0597489
0.0596995
0.0596506
0.0596021
0.059554
0.0595064
0.0594592
0.0594124
0.059366
0.05932
0.0592744
0.0592291
0.0591843
0.0591398
0.0590957
0.0590519
0.0590085
0.0589654
0.0589227
0.0588803
0.0588382
0.0587965
0.058755
0.0587139
0.0586731
0.0586326
0.0585924
0.0585525
0.0585129
0.0584736
0.0584346
0.0583958
0.0583573
0.058319
0.058281
0.0582432
0.0582057
0.0581685
0.0581315
0.0580947
0.0580582
0.0580219
0.0579859
0.0579501
0.0579145
0.0578792
0.0578441
0.0578092
0.0577745
0.0577401
0.0577058
0.0576718
0.0576379
0.0576043
0.0575709
0.0575377
0.0575046
0.0574718
0.057441
0.057412
0.0573829
0.0573537
0.0573245
0.0572951
0.0572656
0.057236
0.0572063
0.0571765
0.0571467
0.0571167
0.0570866
0.0570565
0.0570262
0.0569959
0.0569654
0.0569349
0.0569042
0.0568735
0.0568427
0.0568118
0.0567808
0.0567497
0.0567186
0.0566873
0.056656
0.0566245
0.056593
0.0565614
0.0565297
0.056498
0.0564661
0.0564342
0.0564022
0.0563701
0.0563379
0.0563057
0.0562734
0.056241
0.0562084
0.0561758
0.0561431
0.0561104
0.0560776
0.0560446
0.0560117
0.0559786
0.0559455
0.0559123
0.055879
0.0558457
0.0558123
0.0557788
0.0557453
0.0557117
0.055678
0.0556443
0.0556105
0.0555767
0.0555428
0.0555088
0.0554747
0.0554406
0.0554065
0.0553723
0.055338
0.0553037
0.0552693
0.0552348
0.0552003
0.0551658
0.0551312
0.0550965
0.0550618
0.0550271
0.0549923
0.0549574
0.0549225
0.0548875
0.0548525
0.0548175
0.0547824
0.0547473
0.0547121
0.0546769
0.0546416
0.0546063
0.0545709
0.0545355
0.0545001
0.0544646
0.0544291
0.0543936
0.054358
0.0543224
0.0542867
0.054251
0.0542153
0.0541796
0.0541438
0.0541079
0.054072
0.0540361
0.0540001
0.0539641
0.0539281
0.053892
0.0538559
0.0538198
0.0537837
0.0537475
0.0537113
0.0536751
0.0536389
0.0536027
0.0535664
0.0535301
0.0534938
0.0534575
0.0534212
0.0533849
0.0533485
0.0533121
0.0532757
0.0532393
0.0532029
0.0531665
0.05313
0.0530936
0.0530571
0.0530207
0.0529842
0.0529477
0.0529113
0.0528748
0.0528383
0.0528018
0.0527653
0.0527288
0.0526923
0.0526558
0.0526193
0.0525828
0.0525463
0.0525099
0.0524734
0.0524369
0.0524004
0.052364
0.0523275
0.0522911
0.0522546
0.0522182
0.0521818
0.0521454
0.052109
0.0520725
0.0520361
0.0519997
0.0519633
0.0519269
0.0518906
0.0518542
0.0518179
0.0517816
0.0517453
0.051709
0.0516727
0.0516365
0.0516003
0.0515641
0.0515279
0.0514918
0.0514557
0.0514196
0.0513835
0.0513475
0.0513115
0.0512756
0.0512396
0.0511996
0.0511561
0.0511132
0.0510708
0.0510291
0.0509879
0.0509472
0.0509071
0.0508675
0.0508284
0.0507899
0.0507518
0.0507142
0.050677
0.0506404
0.0506041
0.0505684
0.050533
0.0504981
0.0504636
0.0504295
0.0503957
0.0503624
0.0503295
0.0502969
0.0502647
0.0502329
0.0502013
0.0501702
0.0501394
0.0501089
0.0500787
0.0500488
0.0500192
0.0499899
0.049961
0.0499323
0.0499039
0.0498758
0.049848
0.0498204
0.0497931
0.0497662
0.0497394
0.0497129
0.0496866
0.0496607
0.0496349
0.0496094
0.0495841
0.0495591
0.0495343
0.0495097
0.0494853
0.0494612
0.0494372
0.0494135
0.0493899
0.0493667
0.0493435
0.0493206
0.0492978
0.0492753
0.0492529
0.0492308
0.0492087
0.049187
0.0491652
0.0491439
0.0491225
0.0491015
0.0490803
0.0490597
0.0490389
0.0490186
0.048998
0.048978
0.0489577
0.0489381
0.048918
0.0488988
0.0488789
0.0488599
0.0488403
0.0488216
0.0488021
0.0487836
0.0487646
0.0487456
0.0487281
0.0487064
0.0486947
0.0486625
0.0486689
0.0486248
)
;
    }
    symmetry
    {
        type            symmetryPlane;
    }
    frontAndBack
    {
        type            empty;
    }
}


// ************************************************************************* //
