/*--------------------------------*- C++ -*----------------------------------*\
| =========                 |                                                 |
| \\      /  F ield         | OpenFOAM: The Open Source CFD Toolbox           |
|  \\    /   O peration     | Version:  v2012                                 |
|   \\  /    A nd           | Website:  www.openfoam.com                      |
|    \\/     M anipulation  |                                                 |
\*---------------------------------------------------------------------------*/
FoamFile
{
    version     2.0;
    format      ascii;
    class       volScalarField;
    location    "42";
    object      yPlus;
}
// * * * * * * * * * * * * * * * * * * * * * * * * * * * * * * * * * * * * * //

dimensions      [0 0 0 0 0 0 0];


internalField   uniform 0;

boundaryField
{
    inlet
    {
        type            calculated;
        value           uniform 0;
    }
    outlet
    {
        type            calculated;
        value           uniform 0;
    }
    topWall
    {
        type            calculated;
        value           nonuniform List<scalar> 
545
(
0.0708313
0.122134
0.15668
0.184162
0.207416
0.227749
0.245896
0.26232
0.277337
0.291171
0.303995
0.315938
0.327106
0.337584
0.347442
0.356739
0.365525
0.373844
0.381733
0.389226
0.396351
0.403134
0.409599
0.415767
0.421656
0.427283
0.432665
0.437815
0.442747
0.447473
0.452004
0.456351
0.460522
0.464528
0.468376
0.472074
0.475629
0.479049
0.482339
0.485506
0.488555
0.491492
0.494322
0.497049
0.499678
0.502213
0.504658
0.507017
0.509294
0.511491
0.513613
0.515662
0.517641
0.519553
0.521401
0.523187
0.524913
0.526583
0.528197
0.529758
0.531269
0.53273
0.534144
0.535513
0.536838
0.538121
0.539363
0.540566
0.541731
0.54286
0.543954
0.545013
0.546027
0.547006
0.547977
0.548939
0.549893
0.550838
0.551774
0.552702
0.553622
0.554534
0.555438
0.556334
0.557221
0.558101
0.558974
0.559838
0.560695
0.561545
0.562387
0.563222
0.56405
0.56487
0.565683
0.566489
0.567215
0.567864
0.568511
0.569159
0.569805
0.570451
0.571097
0.571741
0.572385
0.573028
0.573671
0.574313
0.574954
0.575594
0.576234
0.576873
0.577511
0.578149
0.578785
0.579421
0.580057
0.580691
0.581325
0.581958
0.58259
0.583221
0.583851
0.584481
0.58511
0.585738
0.586365
0.586991
0.587617
0.588241
0.588865
0.589488
0.59011
0.590731
0.591351
0.59197
0.592589
0.593206
0.593822
0.594438
0.595053
0.595666
0.596279
0.59689
0.597501
0.598111
0.59872
0.599327
0.599934
0.60054
0.601144
0.601748
0.60235
0.602952
0.603552
0.604151
0.60475
0.605347
0.605943
0.606538
0.607132
0.607724
0.608316
0.608906
0.609495
0.610083
0.61067
0.611256
0.61184
0.612424
0.613006
0.613587
0.614166
0.614745
0.615322
0.615898
0.616473
0.617046
0.617618
0.618189
0.618758
0.619327
0.619893
0.620459
0.621023
0.621586
0.622147
0.622708
0.623266
0.623824
0.62438
0.624934
0.625487
0.626039
0.626589
0.627138
0.627685
0.628231
0.628776
0.629319
0.62986
0.6304
0.630938
0.631475
0.63201
0.632544
0.633076
0.633607
0.634136
0.634664
0.63519
0.635714
0.636236
0.636757
0.637277
0.637795
0.638311
0.638825
0.639338
0.639849
0.640358
0.640866
0.641372
0.641876
0.642378
0.642879
0.643378
0.643875
0.64437
0.644864
0.645356
0.645846
0.646334
0.64682
0.647304
0.647787
0.648268
0.648747
0.649223
0.649698
0.650172
0.650643
0.651112
0.651579
0.652045
0.652508
0.652969
0.653429
0.653886
0.654342
0.654795
0.655246
0.655696
0.656143
0.656588
0.657031
0.657473
0.657912
0.658348
0.658783
0.659216
0.659646
0.660075
0.660501
0.660925
0.661347
0.661766
0.662184
0.662599
0.662989
0.663356
0.663724
0.664094
0.664465
0.664837
0.66521
0.665585
0.665961
0.666338
0.666716
0.667095
0.667475
0.667856
0.668238
0.668621
0.669004
0.669388
0.669773
0.670159
0.670545
0.670932
0.671319
0.671707
0.672095
0.672483
0.672871
0.67326
0.673648
0.674037
0.674425
0.674813
0.675201
0.675589
0.675976
0.676363
0.676749
0.677134
0.677519
0.677903
0.678286
0.678667
0.679048
0.679427
0.679805
0.680181
0.680556
0.680929
0.681301
0.68167
0.682037
0.682402
0.682765
0.683125
0.683483
0.683838
0.684191
0.68454
0.684886
0.685229
0.685569
0.685905
0.686237
0.686566
0.68689
0.687211
0.687527
0.687838
0.688145
0.688448
0.688745
0.689037
0.689324
0.689605
0.689881
0.690151
0.690414
0.690672
0.690923
0.691168
0.691406
0.691636
0.69186
0.692076
0.692285
0.692486
0.692678
0.692863
0.693039
0.693207
0.693366
0.693515
0.693656
0.693786
0.693908
0.694019
0.69412
0.694211
0.694291
0.69436
0.694418
0.694465
0.6945
0.694524
0.694536
0.694535
0.694522
0.694496
0.694458
0.694406
0.694341
0.694262
0.69417
0.694063
0.693943
0.693807
0.693658
0.693493
0.693313
0.693117
0.692907
0.69268
0.692437
0.692178
0.691903
0.691611
0.691303
0.690977
0.690634
0.690274
0.689896
0.689501
0.689088
0.688657
0.688207
0.68774
0.687254
0.686749
0.686225
0.685683
0.685122
0.684541
0.683942
0.683323
0.682685
0.682027
0.68135
0.680653
0.679937
0.679201
0.678446
0.67767
0.676875
0.676061
0.675226
0.674372
0.673499
0.672605
0.671693
0.67076
0.669809
0.668838
0.667848
0.666838
0.66581
0.664763
0.663698
0.662614
0.661511
0.660391
0.659252
0.658096
0.656923
0.655732
0.654524
0.653299
0.652059
0.650802
0.649529
0.64824
0.646937
0.645471
0.643849
0.642228
0.640609
0.638992
0.637379
0.635771
0.634167
0.632569
0.630977
0.629393
0.627816
0.626248
0.624689
0.623139
0.621598
0.620069
0.61855
0.617043
0.615547
0.614064
0.612593
0.611136
0.609691
0.608261
0.606844
0.605442
0.604054
0.602681
0.601323
0.599981
0.598655
0.597344
0.59605
0.594772
0.593511
0.592266
0.591039
0.589829
0.588636
0.587461
0.586304
0.585164
0.584043
0.582941
0.581856
0.580791
0.579744
0.578717
0.577708
0.576719
0.575749
0.574799
0.573869
0.572958
0.572068
0.571198
0.570348
0.569518
0.56871
0.567922
0.567154
0.566408
0.565683
0.56498
0.564297
0.563637
0.562997
0.56238
0.561785
0.561211
0.56066
0.560131
0.559624
0.55914
0.558678
0.558239
0.557822
0.557429
0.557058
0.55671
0.556386
0.556084
0.555806
0.555551
0.555319
0.555111
0.554926
0.554765
0.554627
0.554513
0.554422
0.554354
0.554314
0.554284
)
;
    }
    bottomWall
    {
        type            calculated;
        value           nonuniform List<scalar> 
449
(
0.139448
0.0889583
0.0758082
0.0694366
0.0652535
0.0621273
0.0596325
0.0575691
0.0558183
0.0543022
0.0529686
0.0517811
0.0507132
0.0497447
0.0488601
0.0480469
0.0472955
0.0465977
0.0459469
0.0453378
0.0447657
0.0442266
0.0437174
0.043235
0.0427771
0.0423414
0.041926
0.0415294
0.0411499
0.0407863
0.0404374
0.0401022
0.0397796
0.0394689
0.0391693
0.03888
0.0386005
0.0383301
0.0380683
0.0378146
0.0375685
0.0373298
0.0370978
0.0368724
0.0366532
0.0364398
0.036232
0.0360296
0.0358322
0.0356396
0.0354517
0.0352682
0.0350889
0.0349137
0.0347424
0.0345748
0.0344108
0.0342503
0.0340931
0.033939
0.033788
0.03364
0.0334948
0.0333524
0.0332126
0.0330754
0.0329406
0.0328083
0.0326782
0.0325504
0.0324248
0.0323012
0.0321798
0.0320602
0.0319426
0.0318269
0.0317129
0.0316007
0.0314902
0.0313814
0.0312741
0.0311684
0.0310643
0.0309616
0.0308603
0.0307605
0.030662
0.0305649
0.030469
0.0303744
0.0302811
0.0301889
0.0300979
0.0300081
0.0299194
0.0298318
0.0297452
0.0296597
0.0295752
0.0294917
0.0294092
0.0293276
0.0292469
0.0291672
0.0290884
0.0290104
0.0289333
0.028857
0.0287815
0.0287069
0.028633
0.0285599
0.0284876
0.028416
0.0283451
0.0282749
0.0282054
0.0281367
0.0280685
0.0280011
0.0279343
0.0278681
0.0278026
0.0277376
0.0276733
0.0276095
0.0275464
0.0274838
0.0274218
0.0273603
0.0272993
0.0272389
0.027179
0.0271197
0.0270608
0.0270024
0.0269445
0.0268871
0.0268302
0.0267738
0.0267178
0.0266622
0.0266071
0.0265524
0.0264982
0.0264444
0.026391
0.026338
0.0262854
0.0262332
0.0261815
0.0261301
0.026079
0.0260284
0.0259781
0.0259282
0.0258787
0.0258295
0.0257806
0.0257321
0.025684
0.0256362
0.0255887
0.0255415
0.0254947
0.0254482
0.025402
0.0253561
0.0253105
0.0252652
0.0252202
0.0251755
0.0251311
0.0250895
0.0250503
0.025011
0.0249716
0.0249321
0.0248925
0.0248527
0.0248129
0.024773
0.0247329
0.0246927
0.0246525
0.0246121
0.0245716
0.024531
0.0244904
0.0244496
0.0244087
0.0243677
0.0243266
0.0242855
0.0242442
0.0242028
0.0241614
0.0241198
0.0240782
0.0240365
0.0239946
0.0239527
0.0239107
0.0238687
0.0238265
0.0237843
0.023742
0.0236996
0.0236571
0.0236145
0.0235719
0.0235292
0.0234864
0.0234436
0.0234007
0.0233577
0.0233146
0.0232715
0.0232283
0.0231851
0.0231418
0.0230984
0.023055
0.0230115
0.0229679
0.0229243
0.0228806
0.0228369
0.0227932
0.0227493
0.0227055
0.0226615
0.0226176
0.0225736
0.0225295
0.0224854
0.0224412
0.0223971
0.0223528
0.0223086
0.0222643
0.0222199
0.0221755
0.0221311
0.0220867
0.0220422
0.0219977
0.0219532
0.0219086
0.021864
0.0218194
0.0217747
0.0217301
0.0216854
0.0216407
0.021596
0.0215512
0.0215065
0.0214617
0.0214169
0.0213721
0.0213273
0.0212824
0.0212376
0.0211927
0.0211479
0.021103
0.0210581
0.0210133
0.0209684
0.0209235
0.0208786
0.0208337
0.0207888
0.0207439
0.0206991
0.0206542
0.0206093
0.0205644
0.0205196
0.0204747
0.0204299
0.0203851
0.0203402
0.0202954
0.0202506
0.0202058
0.0201611
0.0201163
0.0200716
0.0200269
0.0199822
0.0199375
0.0198928
0.0198482
0.0198036
0.019759
0.0197144
0.0196699
0.0196253
0.0195808
0.0195364
0.0194919
0.0194475
0.0194032
0.0193588
0.0193145
0.0192702
0.019226
0.0191818
0.0191376
0.0190934
0.0190493
0.0190053
0.0189612
0.0189172
0.0188733
0.0188294
0.0187855
0.0187417
0.0186979
0.0186541
0.0186104
0.0185668
0.0185232
0.0184796
0.0184361
0.0183926
0.0183492
0.0183058
0.0182625
0.0182192
0.018176
0.0181328
0.0180897
0.0180467
0.0180036
0.0179607
0.0179178
0.0178749
0.0178321
0.0177894
0.0177467
0.0177041
0.0176615
0.017619
0.0175765
0.0175341
0.0174918
0.0174495
0.0174073
0.0173652
0.0173231
0.017281
0.0172343
0.0171835
0.0171334
0.0170841
0.0170354
0.0169874
0.0169401
0.0168934
0.0168474
0.016802
0.0167573
0.0167131
0.0166695
0.0166265
0.016584
0.0165421
0.0165007
0.0164599
0.0164195
0.0163796
0.0163403
0.0163014
0.0162629
0.016225
0.0161874
0.0161503
0.0161137
0.0160774
0.0160416
0.0160061
0.0159711
0.0159364
0.0159021
0.0158682
0.0158347
0.0158015
0.0157686
0.0157361
0.015704
0.0156722
0.0156407
0.0156095
0.0155786
0.015548
0.0155178
0.0154878
0.0154581
0.0154287
0.0153996
0.0153708
0.0153422
0.0153139
0.0152859
0.0152581
0.0152306
0.0152034
0.0151763
0.0151496
0.015123
0.0150967
0.0150706
0.0150448
0.0150191
0.0149937
0.0149685
0.0149435
0.0149187
0.0148942
0.0148698
0.0148456
0.0148216
0.0147978
0.0147742
0.0147508
0.0147276
0.0147045
0.0146817
0.014659
0.0146364
0.0146141
0.0145918
0.0145698
0.0145479
0.0145261
0.0145045
0.014483
0.0144616
0.0144403
0.0144191
0.0143977
0.0143772
0.0143567
0.0143228
0.0143417
0.014282
)
;
    }
    symmetry
    {
        type            symmetryPlane;
    }
    frontAndBack
    {
        type            empty;
    }
}


// ************************************************************************* //
