/*--------------------------------*- C++ -*----------------------------------*\
| =========                 |                                                 |
| \\      /  F ield         | OpenFOAM: The Open Source CFD Toolbox           |
|  \\    /   O peration     | Version:  v2012                                 |
|   \\  /    A nd           | Website:  www.openfoam.com                      |
|    \\/     M anipulation  |                                                 |
\*---------------------------------------------------------------------------*/
FoamFile
{
    version     2.0;
    format      ascii;
    class       volScalarField;
    location    "24.5";
    object      nut;
}
// * * * * * * * * * * * * * * * * * * * * * * * * * * * * * * * * * * * * * //

dimensions      [0 2 -1 0 0 0 0];


internalField   nonuniform List<scalar> 
209825
(
1.23798e-07
1.2318e-07
1.23302e-07
1.23763e-07
1.24308e-07
1.24825e-07
1.25293e-07
1.257e-07
1.26062e-07
1.26375e-07
1.26656e-07
1.26899e-07
1.27121e-07
1.27313e-07
1.27491e-07
1.27646e-07
1.27791e-07
1.27917e-07
1.28037e-07
1.28141e-07
1.28242e-07
1.28328e-07
1.28414e-07
1.28487e-07
1.28559e-07
1.28621e-07
1.28683e-07
1.28736e-07
1.2879e-07
1.28837e-07
1.28883e-07
1.28924e-07
1.28967e-07
1.29e-07
1.29035e-07
1.29065e-07
1.291e-07
1.29127e-07
1.29156e-07
1.2918e-07
1.2921e-07
1.29229e-07
1.2925e-07
1.29275e-07
1.29295e-07
1.29307e-07
1.29327e-07
1.29341e-07
1.29361e-07
1.29375e-07
1.29388e-07
1.29402e-07
1.2942e-07
1.29427e-07
1.29435e-07
1.29449e-07
1.29456e-07
1.29454e-07
1.2947e-07
1.29484e-07
1.2949e-07
1.29509e-07
1.29521e-07
1.29556e-07
1.29568e-07
1.29596e-07
1.29614e-07
1.29643e-07
1.29658e-07
1.29676e-07
1.2969e-07
1.29708e-07
1.29728e-07
1.29741e-07
1.29757e-07
1.29768e-07
1.29789e-07
1.29806e-07
1.29821e-07
1.2984e-07
1.29858e-07
1.29881e-07
1.29896e-07
1.29923e-07
1.2994e-07
1.29972e-07
1.29993e-07
1.30033e-07
1.3006e-07
1.30111e-07
1.3014e-07
1.30218e-07
1.30255e-07
1.31368e-07
1.35737e-07
1.67e-08
1.23798e-07
1.2318e-07
1.23301e-07
1.23762e-07
1.24308e-07
1.24825e-07
1.25293e-07
1.257e-07
1.26062e-07
1.26375e-07
1.26656e-07
1.26899e-07
1.27121e-07
1.27313e-07
1.27491e-07
1.27646e-07
1.27791e-07
1.27917e-07
1.28037e-07
1.28141e-07
1.28242e-07
1.28328e-07
1.28413e-07
1.28487e-07
1.28559e-07
1.28621e-07
1.28683e-07
1.28736e-07
1.2879e-07
1.28837e-07
1.28883e-07
1.28924e-07
1.28967e-07
1.29e-07
1.29035e-07
1.29065e-07
1.291e-07
1.29128e-07
1.29156e-07
1.29181e-07
1.2921e-07
1.2923e-07
1.2925e-07
1.29275e-07
1.29295e-07
1.29307e-07
1.29327e-07
1.29341e-07
1.29361e-07
1.29375e-07
1.29388e-07
1.29402e-07
1.2942e-07
1.29428e-07
1.29436e-07
1.29449e-07
1.29457e-07
1.29454e-07
1.2947e-07
1.29484e-07
1.2949e-07
1.29509e-07
1.29521e-07
1.29556e-07
1.29568e-07
1.29596e-07
1.29614e-07
1.29643e-07
1.29658e-07
1.29676e-07
1.29691e-07
1.29708e-07
1.29728e-07
1.29741e-07
1.29757e-07
1.29769e-07
1.29789e-07
1.29806e-07
1.29821e-07
1.2984e-07
1.29858e-07
1.29882e-07
1.29896e-07
1.29923e-07
1.2994e-07
1.29972e-07
1.29993e-07
1.30034e-07
1.3006e-07
1.30111e-07
1.3014e-07
1.30218e-07
1.30255e-07
1.31371e-07
1.35739e-07
1.72064e-08
1.23799e-07
1.2318e-07
1.233e-07
1.23761e-07
1.24306e-07
1.24822e-07
1.2529e-07
1.25697e-07
1.26059e-07
1.26372e-07
1.26653e-07
1.26896e-07
1.27118e-07
1.2731e-07
1.27488e-07
1.27643e-07
1.27789e-07
1.27914e-07
1.28034e-07
1.28138e-07
1.28239e-07
1.28326e-07
1.28411e-07
1.28484e-07
1.28557e-07
1.28618e-07
1.2868e-07
1.28734e-07
1.28788e-07
1.28834e-07
1.2888e-07
1.28921e-07
1.28964e-07
1.28997e-07
1.29032e-07
1.29063e-07
1.29098e-07
1.29125e-07
1.29153e-07
1.29178e-07
1.29207e-07
1.29227e-07
1.29247e-07
1.29272e-07
1.29293e-07
1.29305e-07
1.29325e-07
1.29338e-07
1.29359e-07
1.29372e-07
1.29386e-07
1.294e-07
1.29418e-07
1.29425e-07
1.29433e-07
1.29446e-07
1.29454e-07
1.29452e-07
1.29468e-07
1.29481e-07
1.29488e-07
1.29507e-07
1.29518e-07
1.29554e-07
1.29566e-07
1.29594e-07
1.29611e-07
1.29641e-07
1.29656e-07
1.29674e-07
1.29688e-07
1.29705e-07
1.29726e-07
1.29739e-07
1.29755e-07
1.29766e-07
1.29787e-07
1.29804e-07
1.29818e-07
1.29837e-07
1.29856e-07
1.29879e-07
1.29894e-07
1.2992e-07
1.29937e-07
1.29969e-07
1.29991e-07
1.30031e-07
1.30058e-07
1.30108e-07
1.30138e-07
1.30215e-07
1.30253e-07
1.31373e-07
1.3574e-07
1.78349e-08
1.23799e-07
1.23179e-07
1.23298e-07
1.23758e-07
1.24302e-07
1.24819e-07
1.25286e-07
1.25693e-07
1.26055e-07
1.26367e-07
1.26648e-07
1.26891e-07
1.27113e-07
1.27306e-07
1.27484e-07
1.27638e-07
1.27784e-07
1.2791e-07
1.2803e-07
1.28134e-07
1.28235e-07
1.28321e-07
1.28406e-07
1.2848e-07
1.28552e-07
1.28614e-07
1.28676e-07
1.2873e-07
1.28783e-07
1.2883e-07
1.28876e-07
1.28917e-07
1.2896e-07
1.28993e-07
1.29028e-07
1.29059e-07
1.29094e-07
1.29121e-07
1.29149e-07
1.29174e-07
1.29204e-07
1.29223e-07
1.29243e-07
1.29268e-07
1.29289e-07
1.29301e-07
1.29321e-07
1.29334e-07
1.29355e-07
1.29369e-07
1.29382e-07
1.29396e-07
1.29414e-07
1.29421e-07
1.29429e-07
1.29442e-07
1.2945e-07
1.29448e-07
1.29464e-07
1.29477e-07
1.29484e-07
1.29503e-07
1.29514e-07
1.2955e-07
1.29562e-07
1.2959e-07
1.29608e-07
1.29637e-07
1.29652e-07
1.2967e-07
1.29684e-07
1.29702e-07
1.29722e-07
1.29735e-07
1.29751e-07
1.29762e-07
1.29783e-07
1.298e-07
1.29815e-07
1.29834e-07
1.29852e-07
1.29875e-07
1.2989e-07
1.29917e-07
1.29934e-07
1.29966e-07
1.29987e-07
1.30027e-07
1.30054e-07
1.30104e-07
1.30134e-07
1.30212e-07
1.30249e-07
1.31376e-07
1.35741e-07
1.8532e-08
1.23799e-07
1.23178e-07
1.23296e-07
1.23754e-07
1.24297e-07
1.24813e-07
1.25281e-07
1.25687e-07
1.26049e-07
1.26361e-07
1.26642e-07
1.26885e-07
1.27107e-07
1.273e-07
1.27478e-07
1.27632e-07
1.27778e-07
1.27904e-07
1.28024e-07
1.28128e-07
1.28229e-07
1.28316e-07
1.28401e-07
1.28474e-07
1.28547e-07
1.28608e-07
1.28671e-07
1.28724e-07
1.28778e-07
1.28825e-07
1.28871e-07
1.28912e-07
1.28955e-07
1.28988e-07
1.29023e-07
1.29054e-07
1.29089e-07
1.29116e-07
1.29144e-07
1.29169e-07
1.29198e-07
1.29218e-07
1.29238e-07
1.29263e-07
1.29284e-07
1.29296e-07
1.29316e-07
1.29329e-07
1.2935e-07
1.29364e-07
1.29377e-07
1.29391e-07
1.29409e-07
1.29416e-07
1.29424e-07
1.29438e-07
1.29445e-07
1.29443e-07
1.29459e-07
1.29472e-07
1.29479e-07
1.29498e-07
1.2951e-07
1.29545e-07
1.29557e-07
1.29585e-07
1.29603e-07
1.29632e-07
1.29647e-07
1.29665e-07
1.2968e-07
1.29697e-07
1.29717e-07
1.2973e-07
1.29746e-07
1.29758e-07
1.29778e-07
1.29795e-07
1.2981e-07
1.29829e-07
1.29847e-07
1.29871e-07
1.29886e-07
1.29912e-07
1.29929e-07
1.29961e-07
1.29982e-07
1.30023e-07
1.30049e-07
1.301e-07
1.30129e-07
1.30207e-07
1.30244e-07
1.3138e-07
1.35743e-07
1.92876e-08
1.23799e-07
1.23177e-07
1.23293e-07
1.23749e-07
1.24291e-07
1.24806e-07
1.25273e-07
1.2568e-07
1.26041e-07
1.26354e-07
1.26635e-07
1.26878e-07
1.271e-07
1.27292e-07
1.2747e-07
1.27625e-07
1.27771e-07
1.27897e-07
1.28017e-07
1.28121e-07
1.28222e-07
1.28309e-07
1.28394e-07
1.28467e-07
1.2854e-07
1.28602e-07
1.28664e-07
1.28717e-07
1.28771e-07
1.28818e-07
1.28864e-07
1.28905e-07
1.28948e-07
1.28982e-07
1.29017e-07
1.29047e-07
1.29082e-07
1.29109e-07
1.29138e-07
1.29162e-07
1.29192e-07
1.29212e-07
1.29232e-07
1.29257e-07
1.29277e-07
1.2929e-07
1.2931e-07
1.29323e-07
1.29344e-07
1.29357e-07
1.29371e-07
1.29385e-07
1.29403e-07
1.2941e-07
1.29418e-07
1.29432e-07
1.2944e-07
1.29437e-07
1.29453e-07
1.29466e-07
1.29473e-07
1.29492e-07
1.29504e-07
1.29539e-07
1.29551e-07
1.29579e-07
1.29597e-07
1.29626e-07
1.29641e-07
1.29659e-07
1.29674e-07
1.29691e-07
1.29711e-07
1.29724e-07
1.29741e-07
1.29752e-07
1.29772e-07
1.2979e-07
1.29804e-07
1.29823e-07
1.29841e-07
1.29865e-07
1.2988e-07
1.29906e-07
1.29923e-07
1.29955e-07
1.29976e-07
1.30017e-07
1.30043e-07
1.30094e-07
1.30123e-07
1.30201e-07
1.30238e-07
1.31386e-07
1.35746e-07
2.00997e-08
1.238e-07
1.23175e-07
1.23288e-07
1.23742e-07
1.24284e-07
1.24798e-07
1.25265e-07
1.25671e-07
1.26032e-07
1.26345e-07
1.26626e-07
1.26869e-07
1.27091e-07
1.27283e-07
1.27461e-07
1.27616e-07
1.27762e-07
1.27888e-07
1.28008e-07
1.28112e-07
1.28213e-07
1.283e-07
1.28385e-07
1.28459e-07
1.28532e-07
1.28593e-07
1.28656e-07
1.28709e-07
1.28763e-07
1.2881e-07
1.28856e-07
1.28897e-07
1.28941e-07
1.28974e-07
1.29009e-07
1.29039e-07
1.29074e-07
1.29102e-07
1.2913e-07
1.29155e-07
1.29185e-07
1.29204e-07
1.29225e-07
1.29249e-07
1.2927e-07
1.29282e-07
1.29302e-07
1.29316e-07
1.29337e-07
1.2935e-07
1.29363e-07
1.29377e-07
1.29396e-07
1.29403e-07
1.29411e-07
1.29424e-07
1.29432e-07
1.2943e-07
1.29446e-07
1.29459e-07
1.29466e-07
1.29485e-07
1.29496e-07
1.29532e-07
1.29544e-07
1.29572e-07
1.29589e-07
1.29619e-07
1.29634e-07
1.29652e-07
1.29666e-07
1.29684e-07
1.29704e-07
1.29717e-07
1.29734e-07
1.29745e-07
1.29766e-07
1.29783e-07
1.29797e-07
1.29816e-07
1.29834e-07
1.29858e-07
1.29873e-07
1.29899e-07
1.29916e-07
1.29948e-07
1.29969e-07
1.3001e-07
1.30036e-07
1.30087e-07
1.30116e-07
1.30194e-07
1.3023e-07
1.31394e-07
1.35749e-07
2.09686e-08
1.238e-07
1.23174e-07
1.23284e-07
1.23735e-07
1.24275e-07
1.24788e-07
1.25254e-07
1.2566e-07
1.26022e-07
1.26334e-07
1.26615e-07
1.26858e-07
1.2708e-07
1.27272e-07
1.27451e-07
1.27606e-07
1.27752e-07
1.27878e-07
1.27998e-07
1.28102e-07
1.28203e-07
1.2829e-07
1.28376e-07
1.28449e-07
1.28522e-07
1.28584e-07
1.28646e-07
1.287e-07
1.28754e-07
1.288e-07
1.28847e-07
1.28888e-07
1.28931e-07
1.28965e-07
1.29e-07
1.2903e-07
1.29065e-07
1.29093e-07
1.29121e-07
1.29146e-07
1.29176e-07
1.29195e-07
1.29216e-07
1.29241e-07
1.29261e-07
1.29274e-07
1.29294e-07
1.29307e-07
1.29328e-07
1.29342e-07
1.29355e-07
1.29369e-07
1.29387e-07
1.29395e-07
1.29403e-07
1.29416e-07
1.29424e-07
1.29422e-07
1.29437e-07
1.29451e-07
1.29458e-07
1.29477e-07
1.29488e-07
1.29523e-07
1.29536e-07
1.29563e-07
1.29581e-07
1.2961e-07
1.29626e-07
1.29644e-07
1.29658e-07
1.29676e-07
1.29696e-07
1.29709e-07
1.29725e-07
1.29737e-07
1.29757e-07
1.29775e-07
1.29789e-07
1.29808e-07
1.29826e-07
1.2985e-07
1.29865e-07
1.29891e-07
1.29908e-07
1.2994e-07
1.29961e-07
1.30002e-07
1.30028e-07
1.30078e-07
1.30108e-07
1.30185e-07
1.30222e-07
1.31404e-07
1.35754e-07
2.18952e-08
1.23801e-07
1.23172e-07
1.23278e-07
1.23727e-07
1.24265e-07
1.24777e-07
1.25242e-07
1.25648e-07
1.26009e-07
1.26321e-07
1.26602e-07
1.26845e-07
1.27068e-07
1.2726e-07
1.27439e-07
1.27594e-07
1.2774e-07
1.27866e-07
1.27986e-07
1.28091e-07
1.28192e-07
1.28279e-07
1.28364e-07
1.28438e-07
1.28511e-07
1.28573e-07
1.28635e-07
1.28689e-07
1.28743e-07
1.2879e-07
1.28836e-07
1.28878e-07
1.28921e-07
1.28954e-07
1.28989e-07
1.2902e-07
1.29055e-07
1.29082e-07
1.29111e-07
1.29136e-07
1.29166e-07
1.29185e-07
1.29206e-07
1.29231e-07
1.29251e-07
1.29264e-07
1.29284e-07
1.29297e-07
1.29318e-07
1.29332e-07
1.29345e-07
1.29359e-07
1.29377e-07
1.29385e-07
1.29393e-07
1.29407e-07
1.29415e-07
1.29412e-07
1.29428e-07
1.29441e-07
1.29448e-07
1.29467e-07
1.29478e-07
1.29514e-07
1.29526e-07
1.29554e-07
1.29571e-07
1.29601e-07
1.29616e-07
1.29635e-07
1.29649e-07
1.29666e-07
1.29687e-07
1.297e-07
1.29716e-07
1.29728e-07
1.29748e-07
1.29765e-07
1.2978e-07
1.29799e-07
1.29817e-07
1.29841e-07
1.29856e-07
1.29882e-07
1.29899e-07
1.29931e-07
1.29952e-07
1.29992e-07
1.30019e-07
1.30069e-07
1.30098e-07
1.30176e-07
1.30212e-07
1.31417e-07
1.3576e-07
2.288e-08
1.23801e-07
1.23169e-07
1.23272e-07
1.23717e-07
1.24253e-07
1.24764e-07
1.25229e-07
1.25634e-07
1.25995e-07
1.26307e-07
1.26588e-07
1.26831e-07
1.27054e-07
1.27246e-07
1.27425e-07
1.2758e-07
1.27726e-07
1.27852e-07
1.27973e-07
1.28077e-07
1.28179e-07
1.28266e-07
1.28352e-07
1.28425e-07
1.28498e-07
1.2856e-07
1.28623e-07
1.28677e-07
1.28731e-07
1.28778e-07
1.28824e-07
1.28866e-07
1.28909e-07
1.28942e-07
1.28978e-07
1.29008e-07
1.29043e-07
1.29071e-07
1.29099e-07
1.29124e-07
1.29154e-07
1.29174e-07
1.29195e-07
1.29219e-07
1.2924e-07
1.29253e-07
1.29273e-07
1.29286e-07
1.29307e-07
1.29321e-07
1.29334e-07
1.29348e-07
1.29367e-07
1.29374e-07
1.29383e-07
1.29396e-07
1.29404e-07
1.29402e-07
1.29417e-07
1.29431e-07
1.29437e-07
1.29456e-07
1.29467e-07
1.29503e-07
1.29515e-07
1.29543e-07
1.2956e-07
1.2959e-07
1.29606e-07
1.29624e-07
1.29638e-07
1.29656e-07
1.29676e-07
1.29689e-07
1.29706e-07
1.29717e-07
1.29738e-07
1.29755e-07
1.2977e-07
1.29789e-07
1.29807e-07
1.2983e-07
1.29845e-07
1.29872e-07
1.29889e-07
1.2992e-07
1.29942e-07
1.29982e-07
1.30008e-07
1.30058e-07
1.30088e-07
1.30165e-07
1.30202e-07
1.31431e-07
1.35767e-07
2.3923e-08
1.23802e-07
1.23167e-07
1.23264e-07
1.23706e-07
1.2424e-07
1.2475e-07
1.25214e-07
1.25618e-07
1.25979e-07
1.26291e-07
1.26572e-07
1.26815e-07
1.27038e-07
1.27231e-07
1.2741e-07
1.27565e-07
1.27711e-07
1.27837e-07
1.27958e-07
1.28063e-07
1.28164e-07
1.28251e-07
1.28337e-07
1.28411e-07
1.28484e-07
1.28546e-07
1.28609e-07
1.28663e-07
1.28717e-07
1.28764e-07
1.28811e-07
1.28852e-07
1.28896e-07
1.28929e-07
1.28965e-07
1.28995e-07
1.2903e-07
1.29058e-07
1.29086e-07
1.29111e-07
1.29141e-07
1.29161e-07
1.29182e-07
1.29207e-07
1.29228e-07
1.2924e-07
1.2926e-07
1.29274e-07
1.29295e-07
1.29309e-07
1.29322e-07
1.29336e-07
1.29354e-07
1.29362e-07
1.29371e-07
1.29384e-07
1.29392e-07
1.2939e-07
1.29405e-07
1.29419e-07
1.29425e-07
1.29444e-07
1.29455e-07
1.29491e-07
1.29503e-07
1.29531e-07
1.29548e-07
1.29578e-07
1.29594e-07
1.29612e-07
1.29626e-07
1.29644e-07
1.29664e-07
1.29678e-07
1.29694e-07
1.29706e-07
1.29726e-07
1.29743e-07
1.29758e-07
1.29777e-07
1.29795e-07
1.29819e-07
1.29834e-07
1.2986e-07
1.29877e-07
1.29909e-07
1.2993e-07
1.2997e-07
1.29996e-07
1.30047e-07
1.30076e-07
1.30153e-07
1.30189e-07
1.31448e-07
1.35775e-07
2.50226e-08
1.23803e-07
1.23164e-07
1.23257e-07
1.23694e-07
1.24225e-07
1.24734e-07
1.25197e-07
1.25601e-07
1.25962e-07
1.26273e-07
1.26555e-07
1.26798e-07
1.27021e-07
1.27213e-07
1.27392e-07
1.27548e-07
1.27694e-07
1.27821e-07
1.27942e-07
1.28046e-07
1.28148e-07
1.28235e-07
1.28321e-07
1.28395e-07
1.28469e-07
1.28531e-07
1.28594e-07
1.28648e-07
1.28702e-07
1.28749e-07
1.28796e-07
1.28837e-07
1.28881e-07
1.28915e-07
1.2895e-07
1.28981e-07
1.29016e-07
1.29043e-07
1.29072e-07
1.29097e-07
1.29127e-07
1.29147e-07
1.29168e-07
1.29193e-07
1.29214e-07
1.29226e-07
1.29247e-07
1.2926e-07
1.29281e-07
1.29295e-07
1.29309e-07
1.29323e-07
1.29341e-07
1.29349e-07
1.29358e-07
1.29371e-07
1.29379e-07
1.29377e-07
1.29392e-07
1.29405e-07
1.29412e-07
1.29431e-07
1.29442e-07
1.29477e-07
1.2949e-07
1.29517e-07
1.29535e-07
1.29565e-07
1.29581e-07
1.29599e-07
1.29613e-07
1.29631e-07
1.29651e-07
1.29665e-07
1.29681e-07
1.29693e-07
1.29713e-07
1.2973e-07
1.29746e-07
1.29764e-07
1.29783e-07
1.29806e-07
1.29821e-07
1.29847e-07
1.29865e-07
1.29896e-07
1.29917e-07
1.29957e-07
1.29983e-07
1.30033e-07
1.30062e-07
1.3014e-07
1.30176e-07
1.31467e-07
1.35785e-07
2.61768e-08
1.23804e-07
1.23161e-07
1.23248e-07
1.23681e-07
1.24209e-07
1.24716e-07
1.25178e-07
1.25582e-07
1.25942e-07
1.26254e-07
1.26535e-07
1.26778e-07
1.27001e-07
1.27194e-07
1.27374e-07
1.27529e-07
1.27676e-07
1.27802e-07
1.27923e-07
1.28028e-07
1.2813e-07
1.28218e-07
1.28304e-07
1.28378e-07
1.28452e-07
1.28514e-07
1.28577e-07
1.28631e-07
1.28685e-07
1.28732e-07
1.28779e-07
1.28821e-07
1.28865e-07
1.28898e-07
1.28934e-07
1.28965e-07
1.29e-07
1.29028e-07
1.29057e-07
1.29082e-07
1.29112e-07
1.29132e-07
1.29153e-07
1.29177e-07
1.29199e-07
1.29211e-07
1.29231e-07
1.29245e-07
1.29266e-07
1.2928e-07
1.29294e-07
1.29308e-07
1.29326e-07
1.29335e-07
1.29343e-07
1.29356e-07
1.29365e-07
1.29362e-07
1.29377e-07
1.29391e-07
1.29398e-07
1.29417e-07
1.29427e-07
1.29463e-07
1.29476e-07
1.29503e-07
1.2952e-07
1.2955e-07
1.29566e-07
1.29585e-07
1.29599e-07
1.29617e-07
1.29637e-07
1.2965e-07
1.29667e-07
1.29679e-07
1.29699e-07
1.29716e-07
1.29732e-07
1.2975e-07
1.29769e-07
1.29792e-07
1.29807e-07
1.29833e-07
1.29851e-07
1.29882e-07
1.29903e-07
1.29943e-07
1.29969e-07
1.30019e-07
1.30048e-07
1.30126e-07
1.30162e-07
1.31489e-07
1.35796e-07
2.73886e-08
1.23805e-07
1.23158e-07
1.23239e-07
1.23667e-07
1.24192e-07
1.24697e-07
1.25158e-07
1.25561e-07
1.25921e-07
1.26233e-07
1.26514e-07
1.26757e-07
1.2698e-07
1.27173e-07
1.27353e-07
1.27508e-07
1.27656e-07
1.27782e-07
1.27904e-07
1.28009e-07
1.28111e-07
1.28198e-07
1.28285e-07
1.28359e-07
1.28433e-07
1.28495e-07
1.28558e-07
1.28612e-07
1.28667e-07
1.28714e-07
1.28761e-07
1.28803e-07
1.28847e-07
1.28881e-07
1.28917e-07
1.28947e-07
1.28983e-07
1.2901e-07
1.29039e-07
1.29065e-07
1.29095e-07
1.29115e-07
1.29136e-07
1.29161e-07
1.29182e-07
1.29195e-07
1.29215e-07
1.29229e-07
1.2925e-07
1.29264e-07
1.29278e-07
1.29292e-07
1.2931e-07
1.29319e-07
1.29327e-07
1.2934e-07
1.29349e-07
1.29346e-07
1.29361e-07
1.29375e-07
1.29382e-07
1.29401e-07
1.29411e-07
1.29447e-07
1.2946e-07
1.29487e-07
1.29504e-07
1.29534e-07
1.2955e-07
1.29569e-07
1.29583e-07
1.29601e-07
1.29621e-07
1.29635e-07
1.29652e-07
1.29664e-07
1.29684e-07
1.29701e-07
1.29716e-07
1.29735e-07
1.29753e-07
1.29777e-07
1.29792e-07
1.29818e-07
1.29835e-07
1.29867e-07
1.29888e-07
1.29927e-07
1.29954e-07
1.30003e-07
1.30032e-07
1.3011e-07
1.30146e-07
1.31514e-07
1.35808e-07
2.86612e-08
1.23806e-07
1.23154e-07
1.23228e-07
1.23652e-07
1.24173e-07
1.24676e-07
1.25136e-07
1.25538e-07
1.25898e-07
1.26209e-07
1.26491e-07
1.26734e-07
1.26957e-07
1.27151e-07
1.2733e-07
1.27486e-07
1.27634e-07
1.2776e-07
1.27882e-07
1.27987e-07
1.2809e-07
1.28177e-07
1.28264e-07
1.28338e-07
1.28412e-07
1.28475e-07
1.28538e-07
1.28592e-07
1.28647e-07
1.28695e-07
1.28742e-07
1.28784e-07
1.28828e-07
1.28862e-07
1.28898e-07
1.28928e-07
1.28964e-07
1.28992e-07
1.29021e-07
1.29046e-07
1.29076e-07
1.29097e-07
1.29118e-07
1.29142e-07
1.29164e-07
1.29177e-07
1.29197e-07
1.29211e-07
1.29232e-07
1.29246e-07
1.2926e-07
1.29274e-07
1.29293e-07
1.29301e-07
1.2931e-07
1.29323e-07
1.29332e-07
1.29329e-07
1.29344e-07
1.29358e-07
1.29365e-07
1.29384e-07
1.29394e-07
1.29429e-07
1.29442e-07
1.29469e-07
1.29486e-07
1.29517e-07
1.29533e-07
1.29552e-07
1.29566e-07
1.29584e-07
1.29604e-07
1.29618e-07
1.29635e-07
1.29647e-07
1.29667e-07
1.29684e-07
1.297e-07
1.29718e-07
1.29737e-07
1.2976e-07
1.29776e-07
1.29801e-07
1.29819e-07
1.2985e-07
1.29871e-07
1.29911e-07
1.29937e-07
1.29986e-07
1.30015e-07
1.30093e-07
1.30128e-07
1.31542e-07
1.35822e-07
2.99983e-08
1.23807e-07
1.2315e-07
1.23218e-07
1.23635e-07
1.24153e-07
1.24653e-07
1.25112e-07
1.25513e-07
1.25873e-07
1.26184e-07
1.26466e-07
1.26709e-07
1.26933e-07
1.27126e-07
1.27306e-07
1.27462e-07
1.2761e-07
1.27737e-07
1.27859e-07
1.27964e-07
1.28067e-07
1.28155e-07
1.28241e-07
1.28316e-07
1.2839e-07
1.28453e-07
1.28516e-07
1.28571e-07
1.28626e-07
1.28673e-07
1.28721e-07
1.28763e-07
1.28807e-07
1.28841e-07
1.28877e-07
1.28908e-07
1.28944e-07
1.28972e-07
1.29001e-07
1.29026e-07
1.29056e-07
1.29077e-07
1.29098e-07
1.29123e-07
1.29144e-07
1.29157e-07
1.29178e-07
1.29192e-07
1.29213e-07
1.29227e-07
1.29241e-07
1.29255e-07
1.29274e-07
1.29282e-07
1.29291e-07
1.29304e-07
1.29313e-07
1.29311e-07
1.29325e-07
1.29339e-07
1.29346e-07
1.29365e-07
1.29375e-07
1.2941e-07
1.29424e-07
1.2945e-07
1.29468e-07
1.29498e-07
1.29514e-07
1.29534e-07
1.29547e-07
1.29566e-07
1.29586e-07
1.296e-07
1.29617e-07
1.29629e-07
1.29649e-07
1.29666e-07
1.29682e-07
1.297e-07
1.29719e-07
1.29742e-07
1.29758e-07
1.29783e-07
1.29801e-07
1.29832e-07
1.29853e-07
1.29892e-07
1.29918e-07
1.29968e-07
1.29997e-07
1.30074e-07
1.3011e-07
1.31572e-07
1.35837e-07
3.14036e-08
1.23808e-07
1.23146e-07
1.23206e-07
1.23617e-07
1.24131e-07
1.24629e-07
1.25086e-07
1.25487e-07
1.25846e-07
1.26157e-07
1.26439e-07
1.26682e-07
1.26906e-07
1.271e-07
1.2728e-07
1.27436e-07
1.27584e-07
1.27711e-07
1.27833e-07
1.27939e-07
1.28042e-07
1.2813e-07
1.28217e-07
1.28292e-07
1.28366e-07
1.28429e-07
1.28493e-07
1.28548e-07
1.28603e-07
1.2865e-07
1.28698e-07
1.2874e-07
1.28784e-07
1.28819e-07
1.28855e-07
1.28886e-07
1.28922e-07
1.2895e-07
1.28979e-07
1.29004e-07
1.29035e-07
1.29055e-07
1.29077e-07
1.29101e-07
1.29123e-07
1.29136e-07
1.29157e-07
1.29171e-07
1.29192e-07
1.29207e-07
1.29221e-07
1.29235e-07
1.29253e-07
1.29262e-07
1.29271e-07
1.29284e-07
1.29294e-07
1.29291e-07
1.29305e-07
1.29319e-07
1.29326e-07
1.29345e-07
1.29355e-07
1.2939e-07
1.29403e-07
1.2943e-07
1.29447e-07
1.29478e-07
1.29494e-07
1.29514e-07
1.29527e-07
1.29546e-07
1.29566e-07
1.2958e-07
1.29597e-07
1.2961e-07
1.2963e-07
1.29647e-07
1.29663e-07
1.29681e-07
1.297e-07
1.29723e-07
1.29738e-07
1.29764e-07
1.29782e-07
1.29813e-07
1.29834e-07
1.29873e-07
1.29899e-07
1.29948e-07
1.29977e-07
1.30054e-07
1.3009e-07
1.31606e-07
1.35854e-07
3.28809e-08
1.23809e-07
1.23142e-07
1.23193e-07
1.23598e-07
1.24107e-07
1.24603e-07
1.25058e-07
1.25458e-07
1.25817e-07
1.26128e-07
1.2641e-07
1.26653e-07
1.26877e-07
1.27071e-07
1.27252e-07
1.27408e-07
1.27556e-07
1.27684e-07
1.27806e-07
1.27912e-07
1.28015e-07
1.28104e-07
1.28191e-07
1.28266e-07
1.28341e-07
1.28404e-07
1.28468e-07
1.28523e-07
1.28578e-07
1.28626e-07
1.28674e-07
1.28716e-07
1.2876e-07
1.28795e-07
1.28831e-07
1.28862e-07
1.28898e-07
1.28926e-07
1.28956e-07
1.28981e-07
1.29012e-07
1.29033e-07
1.29054e-07
1.29079e-07
1.29101e-07
1.29114e-07
1.29135e-07
1.29149e-07
1.2917e-07
1.29184e-07
1.29199e-07
1.29213e-07
1.29231e-07
1.29241e-07
1.2925e-07
1.29263e-07
1.29272e-07
1.2927e-07
1.29284e-07
1.29298e-07
1.29305e-07
1.29324e-07
1.29333e-07
1.29368e-07
1.29382e-07
1.29408e-07
1.29426e-07
1.29457e-07
1.29473e-07
1.29493e-07
1.29506e-07
1.29525e-07
1.29544e-07
1.29559e-07
1.29576e-07
1.29589e-07
1.29609e-07
1.29626e-07
1.29642e-07
1.2966e-07
1.29679e-07
1.29702e-07
1.29718e-07
1.29743e-07
1.29761e-07
1.29792e-07
1.29813e-07
1.29852e-07
1.29878e-07
1.29927e-07
1.29955e-07
1.30033e-07
1.30069e-07
1.31642e-07
1.35872e-07
3.44342e-08
1.2381e-07
1.23138e-07
1.2318e-07
1.23578e-07
1.24082e-07
1.24575e-07
1.25029e-07
1.25428e-07
1.25786e-07
1.26097e-07
1.26379e-07
1.26622e-07
1.26846e-07
1.27041e-07
1.27221e-07
1.27378e-07
1.27527e-07
1.27654e-07
1.27777e-07
1.27883e-07
1.27987e-07
1.28076e-07
1.28163e-07
1.28238e-07
1.28313e-07
1.28377e-07
1.28441e-07
1.28496e-07
1.28552e-07
1.28599e-07
1.28647e-07
1.2869e-07
1.28734e-07
1.28769e-07
1.28806e-07
1.28837e-07
1.28873e-07
1.28901e-07
1.28931e-07
1.28956e-07
1.28987e-07
1.29008e-07
1.29029e-07
1.29054e-07
1.29077e-07
1.2909e-07
1.29111e-07
1.29125e-07
1.29146e-07
1.29161e-07
1.29175e-07
1.29189e-07
1.29208e-07
1.29217e-07
1.29226e-07
1.2924e-07
1.29249e-07
1.29247e-07
1.29261e-07
1.29275e-07
1.29282e-07
1.29301e-07
1.2931e-07
1.29345e-07
1.29359e-07
1.29385e-07
1.29402e-07
1.29433e-07
1.2945e-07
1.2947e-07
1.29483e-07
1.29502e-07
1.29522e-07
1.29536e-07
1.29554e-07
1.29567e-07
1.29586e-07
1.29603e-07
1.2962e-07
1.29638e-07
1.29657e-07
1.2968e-07
1.29696e-07
1.29721e-07
1.29739e-07
1.2977e-07
1.29791e-07
1.2983e-07
1.29855e-07
1.29904e-07
1.29933e-07
1.3001e-07
1.30046e-07
1.31681e-07
1.35891e-07
3.60677e-08
1.23812e-07
1.23133e-07
1.23167e-07
1.23556e-07
1.24056e-07
1.24545e-07
1.24998e-07
1.25396e-07
1.25754e-07
1.26064e-07
1.26346e-07
1.26589e-07
1.26814e-07
1.27008e-07
1.27189e-07
1.27346e-07
1.27495e-07
1.27623e-07
1.27746e-07
1.27853e-07
1.27957e-07
1.28046e-07
1.28133e-07
1.28209e-07
1.28284e-07
1.28348e-07
1.28412e-07
1.28467e-07
1.28523e-07
1.28571e-07
1.28619e-07
1.28662e-07
1.28707e-07
1.28742e-07
1.28778e-07
1.2881e-07
1.28846e-07
1.28875e-07
1.28904e-07
1.2893e-07
1.28961e-07
1.28982e-07
1.29003e-07
1.29028e-07
1.29051e-07
1.29064e-07
1.29085e-07
1.29099e-07
1.29121e-07
1.29136e-07
1.2915e-07
1.29164e-07
1.29183e-07
1.29193e-07
1.29202e-07
1.29215e-07
1.29225e-07
1.29223e-07
1.29236e-07
1.29251e-07
1.29257e-07
1.29276e-07
1.29285e-07
1.2932e-07
1.29334e-07
1.2936e-07
1.29377e-07
1.29409e-07
1.29425e-07
1.29445e-07
1.29459e-07
1.29478e-07
1.29497e-07
1.29512e-07
1.2953e-07
1.29543e-07
1.29563e-07
1.29579e-07
1.29596e-07
1.29614e-07
1.29633e-07
1.29656e-07
1.29672e-07
1.29698e-07
1.29715e-07
1.29746e-07
1.29767e-07
1.29806e-07
1.29831e-07
1.2988e-07
1.29908e-07
1.29986e-07
1.30022e-07
1.31723e-07
1.35911e-07
3.77853e-08
1.23813e-07
1.23129e-07
1.23152e-07
1.23533e-07
1.24028e-07
1.24514e-07
1.24964e-07
1.25361e-07
1.25719e-07
1.26029e-07
1.2631e-07
1.26554e-07
1.26779e-07
1.26973e-07
1.27155e-07
1.27312e-07
1.27462e-07
1.2759e-07
1.27713e-07
1.2782e-07
1.27924e-07
1.28014e-07
1.28102e-07
1.28177e-07
1.28253e-07
1.28317e-07
1.28381e-07
1.28437e-07
1.28493e-07
1.28541e-07
1.2859e-07
1.28632e-07
1.28678e-07
1.28713e-07
1.2875e-07
1.28781e-07
1.28817e-07
1.28846e-07
1.28876e-07
1.28902e-07
1.28933e-07
1.28954e-07
1.28976e-07
1.29001e-07
1.29024e-07
1.29037e-07
1.29058e-07
1.29072e-07
1.29094e-07
1.29109e-07
1.29123e-07
1.29138e-07
1.29157e-07
1.29166e-07
1.29176e-07
1.29189e-07
1.29199e-07
1.29197e-07
1.2921e-07
1.29225e-07
1.29231e-07
1.2925e-07
1.29259e-07
1.29293e-07
1.29307e-07
1.29333e-07
1.29351e-07
1.29382e-07
1.29399e-07
1.29419e-07
1.29433e-07
1.29452e-07
1.29471e-07
1.29487e-07
1.29504e-07
1.29518e-07
1.29537e-07
1.29554e-07
1.29571e-07
1.29589e-07
1.29608e-07
1.29631e-07
1.29647e-07
1.29673e-07
1.2969e-07
1.29721e-07
1.29742e-07
1.2978e-07
1.29806e-07
1.29855e-07
1.29882e-07
1.2996e-07
1.29996e-07
1.31768e-07
1.35932e-07
3.95911e-08
1.23815e-07
1.23124e-07
1.23137e-07
1.23509e-07
1.23998e-07
1.24481e-07
1.24929e-07
1.25325e-07
1.25682e-07
1.25992e-07
1.26273e-07
1.26517e-07
1.26742e-07
1.26937e-07
1.27119e-07
1.27276e-07
1.27426e-07
1.27555e-07
1.27678e-07
1.27785e-07
1.2789e-07
1.2798e-07
1.28068e-07
1.28144e-07
1.2822e-07
1.28284e-07
1.28349e-07
1.28405e-07
1.28461e-07
1.2851e-07
1.28558e-07
1.28601e-07
1.28646e-07
1.28682e-07
1.28719e-07
1.2875e-07
1.28787e-07
1.28816e-07
1.28846e-07
1.28872e-07
1.28903e-07
1.28925e-07
1.28946e-07
1.28971e-07
1.28994e-07
1.29008e-07
1.29029e-07
1.29044e-07
1.29065e-07
1.2908e-07
1.29095e-07
1.29109e-07
1.29128e-07
1.29139e-07
1.29148e-07
1.29161e-07
1.29172e-07
1.2917e-07
1.29183e-07
1.29197e-07
1.29204e-07
1.29223e-07
1.29231e-07
1.29265e-07
1.29279e-07
1.29305e-07
1.29323e-07
1.29355e-07
1.29371e-07
1.29392e-07
1.29405e-07
1.29425e-07
1.29444e-07
1.29459e-07
1.29477e-07
1.29491e-07
1.2951e-07
1.29527e-07
1.29544e-07
1.29562e-07
1.29581e-07
1.29604e-07
1.2962e-07
1.29646e-07
1.29664e-07
1.29694e-07
1.29715e-07
1.29753e-07
1.29779e-07
1.29827e-07
1.29855e-07
1.29933e-07
1.29969e-07
1.31815e-07
1.35953e-07
4.14888e-08
1.23817e-07
1.23119e-07
1.23121e-07
1.23484e-07
1.23967e-07
1.24446e-07
1.24892e-07
1.25286e-07
1.25642e-07
1.25952e-07
1.26234e-07
1.26478e-07
1.26703e-07
1.26898e-07
1.2708e-07
1.27238e-07
1.27388e-07
1.27517e-07
1.27641e-07
1.27749e-07
1.27854e-07
1.27943e-07
1.28032e-07
1.28109e-07
1.28185e-07
1.28249e-07
1.28314e-07
1.2837e-07
1.28427e-07
1.28476e-07
1.28525e-07
1.28568e-07
1.28613e-07
1.28649e-07
1.28686e-07
1.28718e-07
1.28755e-07
1.28784e-07
1.28814e-07
1.2884e-07
1.28871e-07
1.28893e-07
1.28915e-07
1.2894e-07
1.28964e-07
1.28977e-07
1.28999e-07
1.29013e-07
1.29035e-07
1.2905e-07
1.29065e-07
1.29079e-07
1.29098e-07
1.29109e-07
1.29118e-07
1.29132e-07
1.29143e-07
1.29141e-07
1.29153e-07
1.29168e-07
1.29175e-07
1.29193e-07
1.29202e-07
1.29235e-07
1.2925e-07
1.29276e-07
1.29294e-07
1.29325e-07
1.29342e-07
1.29362e-07
1.29376e-07
1.29396e-07
1.29415e-07
1.29431e-07
1.29449e-07
1.29462e-07
1.29482e-07
1.29499e-07
1.29516e-07
1.29534e-07
1.29553e-07
1.29576e-07
1.29592e-07
1.29618e-07
1.29635e-07
1.29666e-07
1.29687e-07
1.29725e-07
1.2975e-07
1.29799e-07
1.29826e-07
1.29904e-07
1.2994e-07
1.31864e-07
1.35974e-07
4.34817e-08
1.23819e-07
1.23113e-07
1.23104e-07
1.23458e-07
1.23934e-07
1.24409e-07
1.24853e-07
1.25246e-07
1.25601e-07
1.2591e-07
1.26192e-07
1.26436e-07
1.26661e-07
1.26857e-07
1.27039e-07
1.27197e-07
1.27348e-07
1.27477e-07
1.27602e-07
1.2771e-07
1.27815e-07
1.27905e-07
1.27995e-07
1.28071e-07
1.28148e-07
1.28212e-07
1.28278e-07
1.28334e-07
1.28391e-07
1.2844e-07
1.2849e-07
1.28533e-07
1.28579e-07
1.28614e-07
1.28652e-07
1.28684e-07
1.28721e-07
1.2875e-07
1.28781e-07
1.28807e-07
1.28838e-07
1.2886e-07
1.28882e-07
1.28907e-07
1.28931e-07
1.28945e-07
1.28966e-07
1.28981e-07
1.29003e-07
1.29018e-07
1.29033e-07
1.29048e-07
1.29067e-07
1.29078e-07
1.29087e-07
1.29101e-07
1.29112e-07
1.2911e-07
1.29123e-07
1.29137e-07
1.29144e-07
1.29162e-07
1.2917e-07
1.29204e-07
1.29219e-07
1.29244e-07
1.29262e-07
1.29294e-07
1.2931e-07
1.29331e-07
1.29345e-07
1.29365e-07
1.29384e-07
1.294e-07
1.29418e-07
1.29432e-07
1.29452e-07
1.29468e-07
1.29486e-07
1.29503e-07
1.29523e-07
1.29546e-07
1.29562e-07
1.29588e-07
1.29605e-07
1.29636e-07
1.29657e-07
1.29694e-07
1.2972e-07
1.29768e-07
1.29795e-07
1.29873e-07
1.2991e-07
1.31916e-07
1.35994e-07
4.55724e-08
1.23821e-07
1.23108e-07
1.23087e-07
1.23431e-07
1.239e-07
1.2437e-07
1.24812e-07
1.25203e-07
1.25558e-07
1.25866e-07
1.26148e-07
1.26392e-07
1.26618e-07
1.26813e-07
1.26996e-07
1.27155e-07
1.27306e-07
1.27436e-07
1.27561e-07
1.27669e-07
1.27775e-07
1.27865e-07
1.27955e-07
1.28032e-07
1.28109e-07
1.28173e-07
1.2824e-07
1.28296e-07
1.28353e-07
1.28403e-07
1.28452e-07
1.28495e-07
1.28542e-07
1.28578e-07
1.28616e-07
1.28648e-07
1.28685e-07
1.28714e-07
1.28745e-07
1.28771e-07
1.28803e-07
1.28825e-07
1.28848e-07
1.28873e-07
1.28897e-07
1.28911e-07
1.28932e-07
1.28947e-07
1.28969e-07
1.28985e-07
1.29e-07
1.29014e-07
1.29034e-07
1.29045e-07
1.29054e-07
1.29068e-07
1.29079e-07
1.29078e-07
1.2909e-07
1.29105e-07
1.29111e-07
1.2913e-07
1.29138e-07
1.29171e-07
1.29185e-07
1.29211e-07
1.2923e-07
1.29261e-07
1.29277e-07
1.29299e-07
1.29312e-07
1.29333e-07
1.29352e-07
1.29368e-07
1.29386e-07
1.294e-07
1.2942e-07
1.29436e-07
1.29454e-07
1.29472e-07
1.29492e-07
1.29514e-07
1.29531e-07
1.29556e-07
1.29574e-07
1.29604e-07
1.29625e-07
1.29663e-07
1.29688e-07
1.29736e-07
1.29763e-07
1.2984e-07
1.29878e-07
1.31969e-07
1.36012e-07
4.77625e-08
1.23823e-07
1.23102e-07
1.23069e-07
1.23402e-07
1.23864e-07
1.2433e-07
1.24768e-07
1.25158e-07
1.25512e-07
1.2582e-07
1.26102e-07
1.26346e-07
1.26572e-07
1.26768e-07
1.26951e-07
1.2711e-07
1.27261e-07
1.27392e-07
1.27517e-07
1.27626e-07
1.27732e-07
1.27823e-07
1.27913e-07
1.2799e-07
1.28067e-07
1.28133e-07
1.28199e-07
1.28256e-07
1.28314e-07
1.28363e-07
1.28413e-07
1.28456e-07
1.28503e-07
1.28539e-07
1.28577e-07
1.2861e-07
1.28647e-07
1.28677e-07
1.28708e-07
1.28734e-07
1.28766e-07
1.28788e-07
1.28811e-07
1.28836e-07
1.2886e-07
1.28875e-07
1.28896e-07
1.28911e-07
1.28933e-07
1.28949e-07
1.28965e-07
1.28979e-07