/*--------------------------------*- C++ -*----------------------------------*\
| =========                 |                                                 |
| \\      /  F ield         | OpenFOAM: The Open Source CFD Toolbox           |
|  \\    /   O peration     | Version:  v2012                                 |
|   \\  /    A nd           | Website:  www.openfoam.com                      |
|    \\/     M anipulation  |                                                 |
\*---------------------------------------------------------------------------*/
FoamFile
{
    version     2.0;
    format      ascii;
    class       volScalarField;
    location    "24.5";
    object      omega;
}
// * * * * * * * * * * * * * * * * * * * * * * * * * * * * * * * * * * * * * //

dimensions      [0 0 -1 0 0 0 0];


internalField   nonuniform List<scalar> 
209825
(
8250
7558.06
7047.91
6684.21
6422.26
6228.93
6081.64
5966.88
5875.06
5800.68
5739.07
5687.81
5644.24
5607.32
5575.28
5547.77
5523.48
5502.44
5483.56
5467.12
5452.16
5439.09
5427.01
5416.46
5406.62
5398.01
5389.84
5382.73
5375.94
5370.04
5364.28
5359.36
5354.46
5350.33
5346.19
5342.72
5339.12
5336.17
5333.12
5330.66
5327.94
5325.85
5323.64
5321.77
5319.74
5318.23
5316.55
5315.41
5314
5313.09
5311.88
5310.8
5309.72
5309.13
5308.15
5307.43
5306.96
5306.62
5306.34
5305.79
5305.48
5305.33
5305.12
5304.51
5304.71
5304.71
5304.7
5304.75
5304.71
5304.98
5304.98
5305.58
5305.58
5306.49
5306.64
5307.79
5307.79
5308.83
5309.16
5310.35
5310.69
5311.91
5312.46
5313.81
5314.43
5315.91
5316.59
5318.24
5318.94
5320.97
5321.6
5324.73
5325.28
5361.92
5505.78
114264
8250
7558.06
7047.89
6684.18
6422.21
6228.85
6081.55
5966.77
5874.95
5800.56
5738.93
5687.67
5644.1
5607.17
5575.13
5547.62
5523.32
5502.27
5483.4
5466.95
5451.99
5438.91
5426.83
5416.28
5406.44
5397.83
5389.65
5382.55
5375.75
5369.85
5364.1
5359.17
5354.27
5350.14
5346
5342.53
5338.93
5335.98
5332.93
5330.47
5327.74
5325.66
5323.45
5321.57
5319.54
5318.03
5316.36
5315.21
5313.81
5312.89
5311.68
5310.6
5309.53
5308.93
5307.95
5307.23
5306.76
5306.42
5306.15
5305.59
5305.28
5305.14
5304.92
5304.31
5304.51
5304.51
5304.5
5304.55
5304.51
5304.78
5304.77
5305.38
5305.38
5306.28
5306.44
5307.59
5307.59
5308.63
5308.95
5310.15
5310.49
5311.71
5312.26
5313.6
5314.22
5315.71
5316.38
5318.03
5318.74
5320.76
5321.4
5324.53
5325.08
5361.78
5505.6
110967
8250.01
7558.06
7047.83
6684.05
6422
6228.58
6081.23
5966.41
5874.55
5800.13
5738.48
5687.2
5643.61
5606.66
5574.6
5547.08
5522.77
5501.72
5482.83
5466.38
5451.41
5438.33
5426.24
5415.69
5405.84
5397.23
5389.05
5381.94
5375.14
5369.23
5363.48
5358.55
5353.65
5349.51
5345.37
5341.9
5338.29
5335.35
5332.29
5329.83
5327.1
5325.02
5322.81
5320.93
5318.9
5317.39
5315.71
5314.57
5313.16
5312.24
5311.03
5309.95
5308.88
5308.28
5307.3
5306.58
5306.1
5305.77
5305.49
5304.94
5304.63
5304.48
5304.26
5303.66
5303.85
5303.85
5303.84
5303.89
5303.85
5304.11
5304.11
5304.72
5304.72
5305.62
5305.78
5306.92
5306.92
5307.96
5308.29
5309.48
5309.82
5311.04
5311.59
5312.93
5313.55
5315.04
5315.71
5317.36
5318.07
5320.09
5320.72
5323.85
5324.4
5361.25
5504.98
107183
8250.04
7558.06
7047.73
6683.81
6421.65
6228.12
6080.68
5965.79
5873.87
5799.4
5737.71
5686.39
5642.76
5605.79
5573.71
5546.17
5521.84
5500.77
5481.87
5465.4
5450.42
5437.33
5425.23
5414.67
5404.82
5396.2
5388.01
5380.89
5374.09
5368.18
5362.41
5357.48
5352.58
5348.44
5344.29
5340.82
5337.21
5334.26
5331.2
5328.74
5326.01
5323.92
5321.71
5319.83
5317.79
5316.28
5314.6
5313.46
5312.05
5311.13
5309.91
5308.84
5307.76
5307.16
5306.18
5305.46
5304.98
5304.64
5304.37
5303.81
5303.5
5303.35
5303.14
5302.53
5302.72
5302.72
5302.71
5302.76
5302.71
5302.98
5302.98
5303.58
5303.58
5304.48
5304.64
5305.78
5305.78
5306.82
5307.14
5308.34
5308.67
5309.9
5310.44
5311.79
5312.41
5313.89
5314.56
5316.21
5316.91
5318.94
5319.57
5322.7
5323.25
5360.32
5503.89
103292
8250.07
7558.06
7047.58
6683.48
6421.14
6227.46
6079.9
5964.9
5872.89
5798.35
5736.6
5685.23
5641.56
5604.55
5572.43
5544.86
5520.51
5499.42
5480.49
5464.01
5449.01
5435.9
5423.79
5413.22
5403.35
5394.72
5386.52
5379.4
5372.59
5366.67
5360.9
5355.96
5351.05
5346.91
5342.76
5339.28
5335.66
5332.71
5329.65
5327.18
5324.45
5322.35
5320.14
5318.26
5316.22
5314.71
5313.02
5311.88
5310.46
5309.55
5308.33
5307.25
5306.17
5305.57
5304.58
5303.86
5303.38
5303.04
5302.76
5302.21
5301.9
5301.75
5301.53
5300.92
5301.11
5301.11
5301.1
5301.14
5301.1
5301.36
5301.36
5301.96
5301.96
5302.86
5303.01
5304.16
5304.16
5305.19
5305.52
5306.71
5307.04
5308.26
5308.81
5310.15
5310.77
5312.25
5312.92
5314.57
5315.27
5317.29
5317.92
5321.06
5321.6
5358.99
5502.34
99399.2
8250.11
7558.05
7047.38
6683.04
6420.47
6226.6
6078.87
5963.74
5871.62
5796.99
5735.16
5683.72
5639.99
5602.93
5570.77
5543.16
5518.77
5497.65
5478.7
5462.19
5447.17
5434.05
5421.92
5411.33
5401.45
5392.8
5384.59
5377.46
5370.63
5364.7
5358.93
5353.98
5349.06
5344.91
5340.75
5337.27
5333.65
5330.69
5327.62
5325.15
5322.41
5320.31
5318.09
5316.21
5314.17
5312.65
5310.96
5309.81
5308.4
5307.48
5306.26
5305.18
5304.09
5303.49
5302.51
5301.78
5301.3
5300.96
5300.68
5300.12
5299.81
5299.65
5299.44
5298.83
5299.01
5299.01
5299
5299.04
5298.99
5299.26
5299.25
5299.85
5299.85
5300.75
5300.9
5302.04
5302.04
5303.07
5303.39
5304.59
5304.92
5306.13
5306.68
5308.02
5308.64
5310.12
5310.79
5312.43
5313.13
5315.15
5315.78
5318.91
5319.45
5357.24
5500.32
95544.1
8250.16
7558.05
7047.14
6682.5
6419.65
6225.54
6077.61
5962.31
5870.05
5795.3
5733.37
5681.85
5638.05
5600.93
5568.71
5541.05
5516.62
5495.46
5476.48
5459.94
5444.9
5431.74
5419.59
5408.98
5399.08
5390.43
5382.2
5375.05
5368.21
5362.27
5356.48
5351.52
5346.6
5342.44
5338.27
5334.78
5331.15
5328.19
5325.11
5322.63
5319.89
5317.79
5315.56
5313.67
5311.63
5310.11
5308.42
5307.26
5305.84
5304.92
5303.69
5302.61
5301.52
5300.92
5299.93
5299.21
5298.72
5298.37
5298.09
5297.54
5297.22
5297.06
5296.84
5296.23
5296.42
5296.41
5296.4
5296.44
5296.39
5296.65
5296.64
5297.24
5297.24
5298.13
5298.28
5299.41
5299.41
5300.44
5300.76
5301.96
5302.28
5303.5
5304.04
5305.38
5306
5307.47
5308.14
5309.79
5310.48
5312.5
5313.12
5316.26
5316.79
5355.08
5497.81
91745.8
8250.21
7558.04
7046.86
6681.86
6418.67
6224.26
6076.1
5960.59
5868.17
5793.28
5731.23
5679.61
5635.72
5598.53
5566.25
5538.53
5514.05
5492.85
5473.83
5457.25
5442.17
5428.99
5416.81
5406.18
5396.26
5387.58
5379.34
5372.17
5365.32
5359.36
5353.56
5348.59
5343.65
5339.48
5335.3
5331.8
5328.17
5325.19
5322.11
5319.63
5316.88
5314.77
5312.53
5310.64
5308.59
5307.06
5305.37
5304.21
5302.78
5301.85
5300.63
5299.55
5298.45
5297.84
5296.85
5296.12
5295.63
5295.28
5295
5294.44
5294.12
5293.96
5293.74
5293.13
5293.31
5293.3
5293.29
5293.33
5293.27
5293.52
5293.52
5294.11
5294.11
5295
5295.14
5296.27
5296.27
5297.3
5297.62
5298.81
5299.13
5300.35
5300.89
5302.22
5302.84
5304.31
5304.98
5306.62
5307.31
5309.33
5309.95
5313.08
5313.6
5352.51
5494.82
88013
8250.28
7558.03
7046.52
6681.12
6417.53
6222.79
6074.33
5958.6
5865.98
5790.93
5728.74
5677.01
5633.02
5595.74
5563.38
5535.6
5511.05
5489.8
5470.73
5454.11
5439
5425.78
5413.57
5402.91
5392.96
5384.26
5376
5368.81
5361.94
5355.97
5350.15
5345.16
5340.21
5336.03
5331.84
5328.33
5324.68
5321.7
5318.61
5316.11
5313.36
5311.24
5309
5307.1
5305.05
5303.51
5301.81
5300.64
5299.21
5298.28
5297.05
5295.96
5294.87
5294.25
5293.26
5292.53
5292.03
5291.67
5291.39
5290.83
5290.5
5290.34
5290.12
5289.51
5289.68
5289.68
5289.66
5289.69
5289.63
5289.88
5289.88
5290.46
5290.46
5291.35
5291.48
5292.61
5292.61
5293.64
5293.94
5295.13
5295.46
5296.67
5297.21
5298.54
5299.15
5300.62
5301.28
5302.92
5303.61
5305.62
5306.24
5309.37
5309.89
5349.51
5491.34
84348.5
8250.36
7558.03
7046.15
6680.27
6416.23
6221.1
6072.32
5956.32
5863.48
5788.24
5725.9
5674.02
5629.92
5592.54
5560.09
5532.23
5507.62
5486.31
5467.18
5450.52
5435.36
5422.11
5409.86
5399.17
5389.19
5380.46
5372.17
5364.96
5358.07
5352.08
5346.24
5341.24
5336.27
5332.08
5327.87
5324.35
5320.69
5317.7
5314.59
5312.09
5309.33
5307.2
5304.95
5303.05
5300.98
5299.44
5297.73
5296.56
5295.12
5294.18
5292.95
5291.86
5290.76
5290.14
5289.14
5288.4
5287.9
5287.54
5287.25
5286.69
5286.36
5286.19
5285.97
5285.36
5285.52
5285.52
5285.51
5285.53
5285.46
5285.7
5285.7
5286.27
5286.27
5287.16
5287.29
5288.41
5288.41
5289.43
5289.74
5290.92
5291.24
5292.45
5292.99
5294.31
5294.92
5296.39
5297.05
5298.68
5299.37
5301.38
5301.99
5305.13
5305.63
5346.08
5487.35
80750.4
8250.45
7558.02
7045.73
6679.31
6414.77
6219.2
6070.06
5953.75
5860.66
5785.2
5722.68
5670.66
5626.42
5588.93
5556.38
5528.43
5503.75
5482.36
5463.18
5446.46
5431.25
5417.95
5405.67
5394.94
5384.93
5376.17
5367.85
5360.61
5353.69
5347.69
5341.83
5336.81
5331.82
5327.61
5323.39
5319.85
5316.18
5313.18
5310.06
5307.55
5304.77
5302.63
5300.38
5298.46
5296.39
5294.84
5293.12
5291.94
5290.5
5289.55
5288.32
5287.22
5286.11
5285.49
5284.49
5283.75
5283.24
5282.87
5282.58
5282.02
5281.68
5281.51
5281.28
5280.67
5280.82
5280.82
5280.81
5280.82
5280.75
5280.98
5280.98
5281.55
5281.55
5282.42
5282.55
5283.66
5283.66
5284.69
5284.98
5286.17
5286.48
5287.68
5288.22
5289.54
5290.14
5291.61
5292.27
5293.9
5294.58
5296.58
5297.19
5300.33
5300.82
5342.22
5482.86
77213.1
8250.54
7558.02
7045.26
6678.26
6413.14
6217.08
6067.53
5950.89
5857.51
5781.82
5719.1
5666.9
5622.52
5584.9
5552.24
5524.2
5499.42
5477.96
5458.71
5441.93
5426.66
5413.32
5400.98
5390.22
5380.17
5371.37
5363.02
5355.76
5348.81
5342.78
5336.9
5331.86
5326.85
5322.62
5318.38
5314.83
5311.14
5308.13
5304.99
5302.47
5299.68
5297.53
5295.27
5293.35
5291.26
5289.71
5287.98
5286.79
5285.34
5284.38
5283.14
5282.04
5280.92
5280.29
5279.29
5278.54
5278.03
5277.65
5277.36
5276.79
5276.45
5276.27
5276.05
5275.43
5275.57
5275.57
5275.56
5275.57
5275.49
5275.71
5275.71
5276.27
5276.27
5277.14
5277.25
5278.36
5278.36
5279.38
5279.67
5280.85
5281.16
5282.36
5282.89
5284.21
5284.81
5286.26
5286.92
5288.55
5289.23
5291.22
5291.83
5294.96
5295.45
5337.93
5477.86
73730.7
8250.65
7558.01
7044.75
6677.09
6411.36
6214.75
6064.75
5947.73
5854.04
5778.09
5715.14
5662.76
5618.21
5580.44
5547.66
5519.51
5494.64
5473.1
5453.76
5436.92
5421.59
5408.19
5395.81
5384.99
5374.9
5366.07
5357.68
5350.39
5343.41
5337.35
5331.44
5326.38
5321.36
5317.1
5312.85
5309.28
5305.57
5302.54
5299.39
5296.85
5294.05
5291.89
5289.61
5287.68
5285.59
5284.02
5282.28
5281.09
5279.63
5278.66
5277.41
5276.31
5275.18
5274.55
5273.54
5272.79
5272.26
5271.88
5271.58
5271.01
5270.66
5270.48
5270.25
5269.63
5269.76
5269.76
5269.75
5269.75
5269.66
5269.88
5269.88
5270.42
5270.42
5271.29
5271.4
5272.49
5272.5
5273.51
5273.79
5274.97
5275.27
5276.47
5276.99
5278.31
5278.9
5280.35
5281.01
5282.63
5283.31
5285.29
5285.89
5289.03
5289.51
5333.19
5472.33
70309.5
8250.76
7558.01
7044.2
6675.83
6409.4
6212.21
6061.7
5944.27
5850.24
5774
5710.8
5658.21
5613.48
5575.56
5542.64
5514.37
5489.4
5467.76
5448.34
5431.42
5416.02
5402.56
5390.12
5379.26
5369.12
5360.25
5351.82
5344.5
5337.48
5331.4
5325.46
5320.37
5315.32
5311.05
5306.76
5303.18
5299.45
5296.4
5293.24
5290.69
5287.87
5285.7
5283.4
5281.46
5279.36
5277.78
5276.03
5274.82
5273.36
5272.38
5271.13
5270.02
5268.88
5268.23
5267.23
5266.46
5265.93
5265.54
5265.23
5264.67
5264.31
5264.12
5263.89
5263.27
5263.39
5263.39
5263.38
5263.36
5263.26
5263.48
5263.48
5264.01
5264.01
5264.86
5264.96
5266.05
5266.06
5267.07
5267.34
5268.51
5268.81
5270
5270.52
5271.83
5272.42
5273.86
5274.52
5276.13
5276.8
5278.78
5279.37
5282.51
5282.98
5328
5466.26
66955.7
8250.89
7558.01
7043.6
6674.46
6407.29
6209.44
6058.4
5940.51
5846.1
5769.54
5706.08
5653.26
5608.33
5570.24
5537.17
5508.77
5483.68
5461.94
5442.43
5425.43
5409.96
5396.43
5383.93
5373.01
5362.82
5353.91
5345.44
5338.07
5331.02
5324.9
5318.93
5313.82
5308.74
5304.44
5300.13
5296.53
5292.78
5289.71
5286.53
5283.96
5281.13
5278.94
5276.63
5274.68
5272.57
5270.98
5269.21
5267.99
5266.51
5265.53
5264.27
5263.15
5262.01
5261.35
5260.34
5259.57
5259.02
5258.62
5258.31
5257.74
5257.38
5257.18
5256.95
5256.32
5256.43
5256.43
5256.42
5256.4
5256.29
5256.49
5256.49
5257.01
5257.01
5257.86
5257.95
5259.02
5259.03
5260.03
5260.3
5261.47
5261.76
5262.94
5263.46
5264.76
5265.35
5266.78
5267.43
5269.04
5269.71
5271.68
5272.26
5275.4
5275.86
5322.35
5459.66
63674.9
8251.02
7558.01
7042.96
6672.99
6405.01
6206.46
6054.82
5936.45
5841.63
5764.73
5700.97
5647.9
5602.76
5564.49
5531.25
5502.71
5477.49
5455.64
5436.03
5418.94
5403.38
5389.78
5377.22
5366.24
5355.99
5347.03
5338.51
5331.1
5324.01
5317.86
5311.85
5306.71
5301.6
5297.28
5292.94
5289.31
5285.55
5282.46
5279.25
5276.67
5273.82
5271.62
5269.29
5267.33
5265.2
5263.59
5261.82
5260.59
5259.09
5258.1
5256.83
5255.71
5254.55
5253.88
5252.87
5252.09
5251.53
5251.12
5250.8
5250.23
5249.86
5249.66
5249.42
5248.79
5248.88
5248.88
5248.87
5248.84
5248.72
5248.92
5248.91
5249.41
5249.41
5250.25
5250.33
5251.4
5251.4
5252.41
5252.66
5253.82
5254.11
5255.29
5255.79
5257.09
5257.67
5259.1
5259.75
5261.34
5262.01
5263.98
5264.55
5267.69
5268.14
5316.25
5452.51
60472.2
8251.16
7558.02
7042.29
6671.42
6402.57
6203.26
6050.98
5932.08
5836.81
5759.54
5695.47
5642.13
5596.76
5558.28
5524.87
5496.17
5470.81
5448.84
5429.12
5411.93
5396.29
5382.62
5369.98
5358.93
5348.62
5339.61
5331.04
5323.59
5316.45
5310.26
5304.22
5299.04
5293.9
5289.55
5285.19
5281.53
5277.74
5274.63
5271.4
5268.8
5265.94
5263.71
5261.37
5259.39
5257.24
5255.63
5253.84
5252.59
5251.09
5250.08
5248.8
5247.67
5246.5
5245.83
5244.81
5244.01
5243.45
5243.03
5242.7
5242.13
5241.75
5241.53
5241.29
5240.67
5240.74
5240.74
5240.72
5240.69
5240.55
5240.74
5240.73
5241.22
5241.22
5242.05
5242.12
5243.18
5243.18
5244.17
5244.42
5245.57
5245.85
5247.03
5247.52
5248.82
5249.39
5250.81
5251.45
5253.04
5253.7
5255.66
5256.22
5259.37
5259.8
5309.67
5444.8
57352.6
8251.31
7558.03
7041.57
6669.74
6399.96
6199.84
6046.88
5927.4
5831.66
5753.98
5689.58
5635.94
5590.32
5551.62
5518.02
5489.16
5463.65
5441.55
5421.71
5404.42
5388.68
5374.92
5362.2
5351.09
5340.71
5331.64
5323.01
5315.51
5308.33
5302.1
5296.02
5290.8
5285.63
5281.24
5276.85
5273.17
5269.35
5266.22
5262.97
5260.34
5257.46
5255.21
5252.85
5250.86
5248.7
5247.07
5245.26
5244
5242.48
5241.46
5240.17
5239.04
5237.86
5237.17
5236.14
5235.34
5234.76
5234.33
5233.99
5233.42
5233.03
5232.8
5232.56
5231.93
5231.99
5231.99
5231.97
5231.92
5231.77
5231.95
5231.94
5232.41
5232.41
5233.23
5233.29
5234.33
5234.33
5235.33
5235.56
5236.71
5236.98
5238.15
5238.64
5239.92
5240.49
5241.9
5242.54
5244.12
5244.77
5246.72
5247.28
5250.42
5250.85
5302.61
5436.51
54320.6
8251.47
7558.05
7040.82
6667.97
6397.19
6196.2
6042.5
5922.41
5826.16
5748.05
5683.28
5629.33
5583.43
5544.51
5510.7
5481.66
5455.99
5433.75
5413.78
5396.38
5380.54
5366.68
5353.88
5342.69
5332.25
5323.11
5314.43
5306.87
5299.64
5293.36
5287.24
5281.99
5276.77
5272.36
5267.93
5264.22
5260.37
5257.21
5253.94
5251.29
5248.39
5246.12
5243.74
5241.73
5239.55
5237.9
5236.08
5234.8
5233.27
5232.23
5230.93
5229.79
5228.6
5227.9
5226.87
5226.05
5225.46
5225.01
5224.67
5224.09
5223.69
5223.46
5223.21
5222.58
5222.62
5222.62
5222.59
5222.54
5222.38
5222.55
5222.53
5222.98
5222.98
5223.79
5223.84
5224.87
5224.87
5225.85
5226.07
5227.22
5227.48
5228.64
5229.12
5230.4
5230.96
5232.36
5232.99
5234.56
5235.21
5237.15
5237.7
5240.84
5241.26
5295.06
5427.63
51380.2
8251.64
7558.07
7040.03
6666.1
6394.26
6192.34
6037.86
5917.12
5820.31
5741.75
5676.58
5622.3
5576.11
5536.93
5502.91
5473.67
5447.83
5425.44
5405.34
5387.81
5371.86
5357.91
5345.01
5333.74
5323.22
5314.02
5305.27
5297.66
5290.38
5284.05
5277.88
5272.58
5267.33
5262.88
5258.42
5254.68
5250.8
5247.61
5244.31
5241.64
5238.71
5236.42
5234.02
5232
5229.8
5228.13
5226.29
5224.99
5223.45
5222.39
5221.08
5219.93
5218.72
5218.01
5216.97
5216.15
5215.54
5215.08
5214.73
5214.14
5213.73
5213.48
5213.23
5212.61
5212.63
5212.62
5212.59
5212.53
5212.35
5212.51
5212.49
5212.92
5212.92
5213.71
5213.76
5214.76
5214.77
5215.75
5215.95
5217.09
5217.34
5218.5
5218.97
5220.24
5220.79
5222.18
5222.81
5224.37
5225.01
5226.94
5227.47
5230.62
5231.03
5287.02
5418.15
48535.3
8251.82
7558.09
7039.2
6664.13
6391.17
6188.26
6032.95
5911.51
5814.12
5735.06
5669.47
5614.84
5568.34
5528.89
5494.63
5465.19
5439.17
5416.61
5396.36
5378.71
5362.64
5348.58
5335.59
5324.23
5313.63
5304.36
5295.54
5287.87
5280.53
5274.15
5267.93
5262.59
5257.29
5252.8
5248.3
5244.53
5240.62
5237.4
5234.07
5231.38
5228.42
5226.11
5223.68
5221.64
5219.42
5217.74
5215.87
5214.56
5213
5211.93
5210.6
5209.45
5208.22
5207.49
5206.44
5205.61
5204.98
5204.51
5204.15
5203.56
5203.14
5202.88
5202.62
5202.01
5202
5201.99
5201.95
5201.88
5201.69
5201.84
5201.81
5202.22
5202.23
5203
5203.03
5204.02
5204.03
5205
5205.19
5206.32
5206.56
5207.71
5208.17
5209.43
5209.97
5211.36
5211.97
5213.52
5214.16
5216.08
5216.6
5219.75
5220.16
5278.46
5408.05
45789.2
8252
7558.12
7038.34
6662.07
6387.92
6183.97
6027.77
5905.58
5807.57
5727.99
5661.96
5606.94
5560.11
5520.38
5485.87
5456.21
5429.99
5407.26
5386.86
5369.06
5352.87
5338.7
5325.61
5314.16
5303.47
5294.12
5285.23
5277.49
5270.09
5263.65
5257.38
5251.99
5246.65
5242.12
5237.58
5233.77
5229.83
5226.58
5223.21
5220.49
5217.51
5215.17
5212.72
5210.66
5208.42
5206.71
5204.83
5203.5
5201.92
5200.83
5199.49
5198.32
5197.08
5196.34
5195.28
5194.43
5193.79
5193.31
5192.93
5192.34
5191.9
5191.63
5191.37
5190.76
5190.73
5190.71
5190.66
5190.59
5190.38
5190.52
5190.48
5190.88
5190.88
5191.63
5191.66
5192.63
5192.63
5193.59
5193.77
5194.89
5195.13
5196.26
5196.71
5197.96
5198.5
5199.87
5200.48
5202.02
5202.65
5204.56
5205.07
5208.22
5208.62
5269.39
5397.3
43145
8252.19
7558.16
7037.45
6659.92
6384.52
6179.46
6022.32
5899.35
5800.68
5720.54
5654.03
5598.61
5551.43
5511.4
5476.61
5446.72
5420.29
5397.38
5376.81
5358.87
5342.54
5328.26
5315.05
5303.51
5292.73
5283.29
5274.33
5266.52
5259.05
5252.56
5246.23
5240.79
5235.4
5230.82
5226.24
5222.39
5218.41
5215.13
5211.73
5208.98
5205.97
5203.61
5201.13
5199.05
5196.78
5195.06
5193.15
5191.8
5190.19
5189.09
5187.74
5186.56
5185.3
5184.54
5183.47
5182.61
5181.95
5181.45
5181.06
5180.46
5180.01
5179.73
5179.47
5178.86
5178.81
5178.78
5178.72
5178.64
5178.42
5178.54
5178.5
5178.87
5178.87
5179.61
5179.62
5180.57
5180.58
5181.53
5181.69
5182.81
5183.03
5184.16
5184.59
5185.84
5186.36
5187.72
5188.32
5189.85
5190.47
5192.37
5192.87
5196.02
5196.42
5259.77
5385.88
40605.4
8252.39
7558.21
7036.53
6657.68
6380.96
6174.73
6016.6
5892.8
5793.43
5712.71
5645.7
5589.84
5542.29
5501.94
5466.87
5436.73
5410.08
5386.98
5366.23
5348.13
5331.66
5317.25
5303.93
5292.28
5281.4
5271.88
5262.83
5254.95
5247.41
5240.85
5234.46
5228.97
5223.53
5218.91
5214.28
5210.39
5206.37
5203.05
5199.62
5196.84
5193.8
5191.4
5188.89
5186.79
5184.5
5182.75
5180.82
5179.45
5177.83
5176.7
5175.33
5174.14
5172.86
5172.09
5171.01
5170.13
5169.46
5168.94
5168.54
5167.93
5167.47
5167.17
5166.9
5166.29
5166.22
5166.18
5166.11
5166.03
5165.8
5165.9
5165.85
5166.2
5166.2
5166.91
5166.92
5167.85
5167.86
5168.8
5168.95
5170.05
5170.26
5171.38
5171.8
5173.03
5173.55
5174.9
5175.49
5177.01
5177.62
5179.5
5179.99
5183.15
5183.54
5249.61
5373.77
38172.8
8252.6
7558.26
7035.58
6655.35
6377.25
6169.8
6010.62
5885.95
5785.84
5704.49
5636.94
5580.64
5532.69
5492
5456.63
5426.23
5399.34
5376.03
5355.1
5336.84
5320.21
5305.67
5292.22
5280.46
5269.48
5259.86
5250.73
5242.77
5235.15
5228.53
5222.08
5216.53
5211.03
5206.36
5201.68
5197.75
5193.69
5190.34
5186.86
5184.05
5180.98
5178.55
5176.01
5173.89
5171.57
5169.8
5167.84
5166.45
5164.8
5163.65
5162.27
5161.07
5159.77
5158.97
5157.89
5157
5156.3
5155.76
5155.35
5154.74
5154.26
5153.95
5153.67
5153.06
5152.97
5152.92
5152.84
5152.75
5152.51
5152.59
5152.53
5152.86
5152.86
5153.54
5153.55
5154.45
5154.46
5155.39
5155.52
5156.61
5156.81
5157.92
5158.33
5159.55
5160.05
5161.39
5161.97
5163.48
5164.08
5165.95
5166.42
5169.58
5169.97
5238.87
5360.96
35849.1
8252.81
7558.33
7034.6
6652.93
6373.39
6164.65
6004.38
5878.78
5777.89
5695.88
5627.78
5570.99
5522.63
5481.57
5445.89
5415.21
5388.08
5364.55
5343.42
5324.98
5308.2
5293.51
5279.93
5268.05
5256.96
5247.25
5238.02
5229.98
5222.28
5215.59
5209.07
5203.46
5197.91
5193.18
5188.45
5184.48
5180.37
5176.98
5173.46
5170.61
5167.51
5165.05
5162.48
5160.33
5157.98
5156.19
5154.2
5152.78
5151.11
5149.94
5148.54
5147.32
5146.01
5145.19
5144.09
5143.19
5142.47
5141.91
5141.48
5140.86
5140.37
5140.05
5139.76
5139.15
5139.03
5138.97
5138.88
5138.79
5138.54
5138.61
5138.52
5138.83
5138.83
5139.49
5139.49
5140.37
5140.37
5141.29
5141.41
5142.48
5142.67
5143.77
5144.17
5145.37
5145.87
5147.19
5147.77
5149.26
5149.85
5151.7
5152.16
5155.32
5155.71
5227.51
5347.41
33636.2
8253.03
7558.4
7033.6
6650.44
6369.39
6159.3
5997.87
5871.3
5769.59
5686.9
5618.2
5560.91
5512.1
5470.67
5434.65
5403.67
5376.28
5352.52
5331.18
5312.56
5295.61
5280.77
5267.05
5255.05
5243.84
5234.02
5224.7
5216.57
5208.79
5202.03
5195.43
5189.76
5184.14
5179.36
5174.58
5170.55
5166.4
5162.96
5159.4
5156.52
5153.38
5150.89
5148.28
5146.1
5143.73
5141.91
5139.89
5138.45
5136.75
5135.56
5134.14
5132.91
5131.57
5130.73
5129.62
5128.7
5127.96
5127.38
5126.94
5126.31
5125.8
5125.46
5125.17
5124.56
5124.41
5124.34
5124.24
5124.14
5123.88
5123.93
5123.83
5124.12
5124.11
5124.74
5124.74
5125.59
5125.59
5126.5
5126.6
5127.66
5127.83
5128.92
5129.3
5130.5
5130.98
5132.29
5132.86
5134.33
5134.92
5136.76
5137.2
5140.36
5140.75
5215.5
5333.13
31535.5
8253.26
7558.48
7032.58
6647.86
6365.24
6153.74
5991.11
5863.52
5760.95
5677.52
5608.2
5550.38
5501.11
5459.28
5422.9
5391.62
5363.95
5339.95
5318.39
5299.57
5282.44
5267.44
5253.58
5241.44
5230.11
5220.19
5210.76
5202.54
5194.67
5187.83
5181.16
5175.42
5169.73
5164.9
5160.05
5155.98
5151.77
5148.29
5144.69
5141.77
5138.59
5136.06
5133.42
5131.21
5128.8
5126.96
5124.91
5123.44
5121.72
5120.5
5119.06
5117.81
5116.45
5115.59
5114.47
5113.53
5112.76
5112.17
5111.7
5111.07
5110.54
5110.19
5109.88
5109.27
5109.1
5109.02
5108.91
5108.8
5108.53
5108.56
5108.45
5108.7
5108.7
5109.3
5109.3
5110.12
5110.12
5111
5111.09
5112.14
5112.3
5113.37
5113.74
5114.92
5115.39
5116.69
5117.24
5118.7
5119.27
5121.1
5121.53
5124.69
5125.08
5202.8
5318.09
29548.2
8253.49
7558.58
7031.54
6645.22
6360.95
6147.98
5984.08
5855.43
5751.96
5667.77
5597.79
5539.41
5489.66
5447.4
5410.65
5379.04
5351.08
5326.82
5305.03
5286.01
5268.69
5253.53
5239.51
5227.23
5215.77
5205.73
5196.2
5187.88
5179.92
5172.99
5166.24
5160.43
5154.68
5149.78
5144.87
5140.75
5136.49
5132.96
5129.31
5126.34
5123.13
5120.56
5117.88
5115.64
5113.2
5111.33
5109.25
5107.75
5106
5104.75
5103.29
5102.03
5100.64
5099.76
5098.62
5097.66
5096.88
5096.26
5095.78
5095.13
5094.59
5094.21
5093.9
5093.29
5093.09
5093
5092.87
5092.76
5092.48
5092.49
5092.36
5092.59
5092.58
5093.15
5093.14
5093.93
5093.93
5094.8
5094.87
5095.9
5096.05
5097.11
5097.46
5098.63
5099.08
5100.37
5100.91
5102.35
5102.92
5104.73
5105.14
5108.3
5108.69
5189.35
5302.27
27675.3
8253.72
7558.69
7030.48
6642.5
6356.54
6142.03
5976.81
5847.04
5742.62
5657.63
5586.97
5528
5477.73
5435.03
5397.89
5365.95
5337.68
5313.15
5291.11
5271.88
5254.36
5239.02
5224.83
5212.42
5200.82
5190.66
5181.01
5172.59
5164.53
5157.52
5150.68
5144.8
5138.97
5134
5129.03
5124.85
5120.54
5116.96
5113.26
5110.25
5106.99
5104.38
5101.66
5099.39
5096.92
5095.01
5092.9
5091.37
5089.59
5088.32
5086.83
5085.55
5084.14
5083.24
5082.08
5081.1
5080.29
5079.65
5079.15
5078.49
5077.93
5077.54
5077.22
5076.6
5076.38
5076.27
5076.13
5076.01
5075.73
5075.71
5075.56
5075.77
5075.75
5076.28
5076.28
5077.04
5077.04
5077.88
5077.94
5078.95
5079.08
5080.13
5080.47
5081.62
5082.06
5083.33
5083.85
5085.29
5085.83
5087.63
5088.03
5091.18
5091.58
5175.11
5285.65
25917.8
8253.97
7558.8
7029.41
6639.71
6351.99
6135.89
5969.29
5838.35
5732.94
5647.11
5575.73
5516.15
5465.34
5422.18
5384.63
5352.32
5323.73
5298.92
5276.63
5257.17
5239.44
5223.91
5209.56
5196.99
5185.24
5174.96
5165.19
5156.66
5148.49
5141.39
5134.47
5128.51
5122.6
5117.57
5112.53
5108.29
5103.92
5100.29
5096.53
5093.48
5090.17
5087.52
5084.76
5082.46
5079.95
5078
5075.86
5074.3
5072.49
5071.19
5069.67
5068.37
5066.94
5066.01
5064.84
5063.84
5063
5062.34
5061.81
5061.15
5060.57
5060.15
5059.82
5059.2
5058.95
5058.83
5058.67
5058.54
5058.26
5058.22
5058.04
5058.23
5058.21
5058.7
5058.7
5059.42
5059.42
5060.24
5060.29
5061.28
5061.4
5062.43
5062.74
5063.89
5064.31
5065.56
5066.07
5067.49
5068.02
5069.8
5070.18
5073.34
5073.74
5160.03
5268.2
24276.5
8254.21
7558.93
7028.33
6636.87
6347.32
6129.56
5961.53
5829.37
5722.93
5636.22
5564.09
5503.86
5452.49
5408.84
5370.86
5338.18
5309.25
5284.14
5261.58
5241.88
5223.93
5208.21
5193.68
5180.95
5169.05
5158.63
5148.73
5140.09
5131.82
5124.62
5117.6
5111.56
5105.57
5100.47
5095.36
5091.05
5086.62
5082.94
5079.12
5076.02
5072.67
5069.97
5067.17
5064.83
5062.28
5060.3
5058.12
5056.53
5054.68
5053.35
5051.81
5050.49
5049.03
5048.07
5046.88
5045.87
5045
5044.31
5043.76
5043.09
5042.49
5042.05
5041.7
5041.09
5040.81
5040.67
5040.49
5040.36
5040.07
5040.01
5039.81
5039.98
5039.94
5040.4
5040.39
5041.08
5041.08
5041.87
5041.91
5042.88
5042.98
5044
5044.29
5045.42
5045.82
5047.06
5047.56
5048.95
5049.48
5051.24
5051.6
5054.75
5055.16
5144.05
5249.92
22750.2
8254.46
7559.08
7027.24
6633.96
6342.52
6123.05
5953.52
5820.1
5712.58
5624.96
5552.04
5491.13
5439.18
5395.01
5356.58
5323.51
5294.23
5268.81
5245.96
5226.01
5207.83
5191.91
5177.19
5164.29
5152.23
5141.67
5131.64
5122.88
5114.49
5107.2
5100.08
5093.95
5087.88
5082.7
5077.51
5073.14
5068.64
5064.9
5061.03
5057.88
5054.47
5051.73
5048.88
5046.51
5043.92
5041.9
5039.68
5038.05
5036.18
5034.81
5033.24
5031.9
5030.42
5029.43
5028.22
5027.18
5026.29
5025.57
5025
5024.31
5023.69
5023.23
5022.87
5022.25
5021.94
5021.78
5021.59
5021.45
5021.15
5021.08
5020.85
5020.99
5020.94
5021.36
5021.36
5022
5022
5022.77
5022.79
5023.74
5023.83
5024.83
5025.1
5026.21
5026.6
5027.82
5028.3
5029.68
5030.19
5031.93
5032.28
5035.42
5035.84
5127.1
5230.77
21333.9
8254.71
7559.24
7026.15
6631
6337.62
6116.36
5945.29
5810.54
5701.9
5613.32
5539.58
5477.97
5425.4
5380.7
5341.8
5308.31
5278.66
5252.92
5229.78
5209.56
5191.14
5175.01
5160.09
5147.01
5134.79
5124.08
5113.91
5105.03
5096.52
5089.12
5081.89
5075.68
5069.51
5064.26
5058.99
5054.55
5049.99
5046.19
5042.25
5039.04
5035.59
5032.8
5029.9
5027.48
5024.85
5022.8
5020.54
5018.87
5016.96
5015.56
5013.96
5012.6
5011.09
5010.07
5008.84
5007.77
5006.85
5006.11
5005.51
5004.81
5004.17
5003.69
5003.31
5002.68
5002.35
5002.17
5001.96
5001.81
5001.5
5001.41
5001.16
5001.28
5001.21
5001.6
5001.59
5002.19
5002.19
5002.93
5002.94
5003.87
5003.94
5004.92
5005.17
5006.27
5006.63
5007.83
5008.3
5009.66
5010.16
5011.88
5012.21
5015.34
5015.77
5109.13
5210.73
20022.8
8254.97
7559.41
7025.05
6628
6332.61
6109.51
5936.83
5800.71
5690.9
5601.32
5526.73
5464.38
5411.17
5365.91
5326.52
5292.6
5262.56
5236.47
5213.02
5192.54
5173.87
5157.51
5142.38
5129.12
5116.72
5105.86
5095.54
5086.53
5077.89
5070.38
5063.05
5056.74
5050.48
5045.14
5039.79
5035.28
5030.64
5026.78
5022.78
5019.52
5016.01
5013.17
5010.21
5007.76
5005.08
5002.99
5000.69
4998.98
4997.03
4995.6
4993.96
4992.58
4991.04
4989.99
4988.73
4987.65
4986.69
4985.93
4985.29
4984.58
4983.92
4983.42
4983.01
4982.39
4982.02
4981.83
4981.59
4981.44
4981.12
4981.01
4980.74
4980.83
4980.75
4981.09
4981.09
4981.65
4981.64
4982.35
4982.35
4983.25
4983.3
4984.27
4984.5
4985.57
4985.92
4987.1
4987.55
4988.89
4989.37
4991.07
4991.39
4994.51
4994.94
5090.13
5189.76
18811.8
8255.22
7559.6
7023.95
6624.95
6327.5
6102.49
5928.15
5790.61
5679.58
5588.97
5513.48
5450.36
5396.48
5350.65
5310.74
5276.36
5245.92
5219.48
5195.7
5174.93
5156
5139.4
5124.06
5110.6
5098.03
5087
5076.53
5067.38
5058.62
5050.98
5043.54
5037.13
5030.77
5025.35
5019.91
5015.33
5010.61
5006.68
5002.62
4999.29
4995.73
4992.83
4989.82
4987.33
4984.6
4982.47
4980.12
4978.38
4976.39
4974.91
4973.25
4971.84
4970.26
4969.18
4967.9
4966.8
4965.81
4965.01
4964.35
4963.63
4962.94
4962.41
4961.99
4961.36
4960.96
4960.75
4960.49
4960.33
4959.99
4959.88
4959.58
4959.65
4959.54
4959.84
4959.84
4960.36
4960.35
4961.02
4961.02
4961.88
4961.92
4962.87
4963.07
4964.13
4964.46
4965.62
4966.05
4967.37
4967.83
4969.51
4969.81
4972.92
4973.35
5070.07
5167.82
17695.5
8255.48
7559.8
7022.86
6621.87
6322.29
6095.32
5919.26
5780.24
5667.94
5576.26
5499.84
5435.92
5381.35
5334.9
5294.46
5259.61
5228.75
5201.93
5177.82
5156.75
5137.54
5120.7
5105.13
5091.47
5078.7
5067.51
5056.88
5047.59
5038.68
5030.93
5023.37
5016.85
5010.4
5004.88
4999.35
4994.69
4989.9
4985.9
4981.76
4978.37
4974.75
4971.8
4968.73
4966.19
4963.41
4961.24
4958.85
4957.06
4955.02
4953.51
4951.81
4950.38
4948.77
4947.65
4946.35
4945.22
4944.2
4943.37
4942.68
4941.94
4941.22
4940.67
4940.22
4939.59
4939.16
4938.93
4938.65
4938.47
4938.13
4938
4937.69
4937.72
4937.59
4937.85
4937.84
4938.32
4938.31
4938.93
4938.94
4939.76
4939.79
4940.71
4940.89
4941.93
4942.23
4943.37
4943.79
4945.09
4945.54
4947.19
4947.47
4950.57
4951
5048.93
5144.88
16668.2
8255.74
7560.02
7021.77
6618.75
6317
6088.01
5910.16
5769.61
5656.01
5563.2
5485.82
5421.07
5365.77
5318.69
5277.69
5242.35
5211.05
5183.84
5159.38
5137.99
5118.49
5101.4
5085.59
5071.72
5058.76
5047.39
5036.59
5027.15
5018.1
5010.22
5002.53
4995.91
4989.34
4983.73
4978.11
4973.36
4968.49
4964.42
4960.2
4956.76
4953.06
4950.06
4946.93
4944.34
4941.51
4939.29
4936.85
4935.02
4932.94
4931.39
4929.65
4928.19
4926.55
4925.39
4924.06
4922.9
4921.85
4920.99
4920.27
4919.51
4918.77
4918.19
4917.72
4917.08
4916.62
4916.37
4916.06
4915.88
4915.51
4915.37
4915.05
4915.05
4914.89
4915.12
4915.1
4915.53
4915.52
4916.1
4916.1
4916.89
4916.91
4917.81
4917.96
4918.98
4919.26
4920.37
4920.77
4922.04
4922.48
4924.11
4924.37
4927.45
4927.88
5026.71
5120.88
15724.2
8256
7560.25
7020.69
6615.61
6311.63
6080.56
5900.87
5758.74
5643.78
5549.81
5471.42
5405.81
5349.75
5302.02
5260.43
5224.58
5192.82
5165.21
5140.37
5118.66
5098.87
5081.51
5065.45
5051.36
5038.19
5026.63
5015.66
5006.06
4996.86
4988.85
4981.03
4974.29
4967.62
4961.9
4956.18
4951.35
4946.39
4942.24
4937.95
4934.44
4930.68
4927.61
4924.42
4921.78
4918.9
4916.63
4914.14
4912.26
4910.14