/*--------------------------------*- C++ -*----------------------------------*\
| =========                 |                                                 |
| \\      /  F ield         | OpenFOAM: The Open Source CFD Toolbox           |
|  \\    /   O peration     | Version:  v2012                                 |
|   \\  /    A nd           | Website:  www.openfoam.com                      |
|    \\/     M anipulation  |                                                 |
\*---------------------------------------------------------------------------*/
FoamFile
{
    version     2.0;
    format      ascii;
    class       volVectorField;
    location    "24.5";
    object      wallShearStress;
}
// * * * * * * * * * * * * * * * * * * * * * * * * * * * * * * * * * * * * * //

dimensions      [0 2 -2 0 0 0 0];


internalField   uniform (0 0 0);

boundaryField
{
    inlet
    {
        type            calculated;
        value           uniform (0 0 0);
    }
    outlet
    {
        type            calculated;
        value           uniform (0 0 0);
    }
    topWall
    {
        type            calculated;
        value           nonuniform List<vector> 
545
(
(3.59903e-08 -2.53312e-08 0)
(3.59851e-08 -7.08779e-08 0)
(3.59603e-08 -1.18234e-07 0)
(3.59268e-08 -1.64214e-07 0)
(3.58876e-08 -2.08231e-07 0)
(3.58415e-08 -2.50852e-07 0)
(3.5789e-08 -2.92437e-07 0)
(3.57305e-08 -3.3297e-07 0)
(3.56665e-08 -3.72359e-07 0)
(3.55975e-08 -4.10604e-07 0)
(3.55239e-08 -4.47756e-07 0)
(3.54463e-08 -4.83857e-07 0)
(3.53649e-08 -5.18932e-07 0)
(3.52803e-08 -5.53001e-07 0)
(3.51927e-08 -5.8609e-07 0)
(3.51025e-08 -6.18224e-07 0)
(3.501e-08 -6.49429e-07 0)
(3.49155e-08 -6.79731e-07 0)
(3.48193e-08 -7.09152e-07 0)
(3.47217e-08 -7.37719e-07 0)
(3.46228e-08 -7.65453e-07 0)
(3.45229e-08 -7.92378e-07 0)
(3.44223e-08 -8.18517e-07 0)
(3.43211e-08 -8.43892e-07 0)
(3.42195e-08 -8.68526e-07 0)
(3.41177e-08 -8.92438e-07 0)
(3.40158e-08 -9.15651e-07 0)
(3.3914e-08 -9.38183e-07 0)
(3.38124e-08 -9.60056e-07 0)
(3.37111e-08 -9.81288e-07 0)
(3.36103e-08 -1.0019e-06 0)
(3.351e-08 -1.02191e-06 0)
(3.34104e-08 -1.04133e-06 0)
(3.33116e-08 -1.06018e-06 0)
(3.32135e-08 -1.07848e-06 0)
(3.31163e-08 -1.09625e-06 0)
(3.30201e-08 -1.1135e-06 0)
(3.2925e-08 -1.13024e-06 0)
(3.28308e-08 -1.1465e-06 0)
(3.27378e-08 -1.16228e-06 0)
(3.2646e-08 -1.1776e-06 0)
(3.25554e-08 -1.19248e-06 0)
(3.2466e-08 -1.20693e-06 0)
(3.23778e-08 -1.22095e-06 0)
(3.22909e-08 -1.23457e-06 0)
(3.22054e-08 -1.2478e-06 0)
(3.21211e-08 -1.26064e-06 0)
(3.20382e-08 -1.27311e-06 0)
(3.19566e-08 -1.28522e-06 0)
(3.18764e-08 -1.29698e-06 0)
(3.17975e-08 -1.3084e-06 0)
(3.172e-08 -1.3195e-06 0)
(3.16439e-08 -1.33027e-06 0)
(3.15691e-08 -1.34074e-06 0)
(3.14957e-08 -1.35091e-06 0)
(3.14236e-08 -1.36078e-06 0)
(3.13528e-08 -1.37038e-06 0)
(3.12834e-08 -1.3797e-06 0)
(3.12153e-08 -1.38875e-06 0)
(3.11485e-08 -1.39755e-06 0)
(3.10831e-08 -1.40609e-06 0)
(3.10189e-08 -1.4144e-06 0)
(3.09559e-08 -1.42247e-06 0)
(3.08943e-08 -1.43031e-06 0)
(3.08338e-08 -1.43792e-06 0)
(3.07746e-08 -1.44533e-06 0)
(3.07166e-08 -1.45252e-06 0)
(3.06598e-08 -1.45951e-06 0)
(3.06042e-08 -1.46631e-06 0)
(3.05497e-08 -1.47291e-06 0)
(3.04964e-08 -1.47933e-06 0)
(3.04437e-08 -1.48556e-06 0)
(3.03928e-08 -1.49155e-06 0)
(3.03441e-08 -1.49736e-06 0)
(3.02958e-08 -1.50312e-06 0)
(3.02476e-08 -1.50884e-06 0)
(3.01995e-08 -1.51453e-06 0)
(3.01514e-08 -1.52019e-06 0)
(3.01033e-08 -1.52582e-06 0)
(3.00553e-08 -1.53141e-06 0)
(3.00074e-08 -1.53696e-06 0)
(2.99595e-08 -1.54248e-06 0)
(2.99116e-08 -1.54797e-06 0)
(2.98638e-08 -1.55342e-06 0)
(2.9816e-08 -1.55884e-06 0)
(2.97683e-08 -1.56423e-06 0)
(2.97206e-08 -1.56958e-06 0)
(2.9673e-08 -1.5749e-06 0)
(2.96254e-08 -1.58019e-06 0)
(2.95779e-08 -1.58544e-06 0)
(2.95305e-08 -1.59067e-06 0)
(2.94831e-08 -1.59586e-06 0)
(2.94359e-08 -1.60102e-06 0)
(2.93884e-08 -1.60613e-06 0)
(2.93424e-08 -1.61125e-06 0)
(2.92913e-08 -1.61626e-06 0)
(2.92407e-08 -1.62084e-06 0)
(2.92e-08 -1.62502e-06 0)
(2.91615e-08 -1.62908e-06 0)
(2.91229e-08 -1.63313e-06 0)
(2.90843e-08 -1.63724e-06 0)
(2.90456e-08 -1.64136e-06 0)
(2.90067e-08 -1.64547e-06 0)
(2.89675e-08 -1.64958e-06 0)
(2.89282e-08 -1.6537e-06 0)
(2.88887e-08 -1.65782e-06 0)
(2.8849e-08 -1.66195e-06 0)
(2.88092e-08 -1.66608e-06 0)
(2.87691e-08 -1.67022e-06 0)
(2.87288e-08 -1.67436e-06 0)
(2.86884e-08 -1.6785e-06 0)
(2.86478e-08 -1.68265e-06 0)
(2.86069e-08 -1.6868e-06 0)
(2.85659e-08 -1.69095e-06 0)
(2.85247e-08 -1.69511e-06 0)
(2.84833e-08 -1.69927e-06 0)
(2.84417e-08 -1.70344e-06 0)
(2.83999e-08 -1.70761e-06 0)
(2.83579e-08 -1.71178e-06 0)
(2.83157e-08 -1.71596e-06 0)
(2.82734e-08 -1.72014e-06 0)
(2.82308e-08 -1.72433e-06 0)
(2.8188e-08 -1.72851e-06 0)
(2.81451e-08 -1.7327e-06 0)
(2.81019e-08 -1.7369e-06 0)
(2.80585e-08 -1.7411e-06 0)
(2.8015e-08 -1.7453e-06 0)
(2.79712e-08 -1.7495e-06 0)
(2.79272e-08 -1.75371e-06 0)
(2.78831e-08 -1.75792e-06 0)
(2.78387e-08 -1.76214e-06 0)
(2.77942e-08 -1.76636e-06 0)
(2.77494e-08 -1.77058e-06 0)
(2.77044e-08 -1.7748e-06 0)
(2.76593e-08 -1.77903e-06 0)
(2.76139e-08 -1.78326e-06 0)
(2.75683e-08 -1.78749e-06 0)
(2.75225e-08 -1.79173e-06 0)
(2.74765e-08 -1.79597e-06 0)
(2.74303e-08 -1.80021e-06 0)
(2.73839e-08 -1.80446e-06 0)
(2.73373e-08 -1.8087e-06 0)
(2.72905e-08 -1.81295e-06 0)
(2.72435e-08 -1.81721e-06 0)
(2.71963e-08 -1.82146e-06 0)
(2.71488e-08 -1.82572e-06 0)
(2.71012e-08 -1.82998e-06 0)
(2.70533e-08 -1.83425e-06 0)
(2.70053e-08 -1.83851e-06 0)
(2.6957e-08 -1.84278e-06 0)
(2.69085e-08 -1.84705e-06 0)
(2.68598e-08 -1.85133e-06 0)
(2.68109e-08 -1.8556e-06 0)
(2.67618e-08 -1.85988e-06 0)
(2.67124e-08 -1.86416e-06 0)
(2.66629e-08 -1.86844e-06 0)
(2.66131e-08 -1.87273e-06 0)
(2.65632e-08 -1.87701e-06 0)
(2.6513e-08 -1.8813e-06 0)
(2.64626e-08 -1.88559e-06 0)
(2.64119e-08 -1.88988e-06 0)
(2.63611e-08 -1.89418e-06 0)
(2.63101e-08 -1.89847e-06 0)
(2.62588e-08 -1.90277e-06 0)
(2.62073e-08 -1.90707e-06 0)
(2.61556e-08 -1.91137e-06 0)
(2.61037e-08 -1.91568e-06 0)
(2.60516e-08 -1.91998e-06 0)
(2.59992e-08 -1.92429e-06 0)
(2.59467e-08 -1.92859e-06 0)
(2.58939e-08 -1.9329e-06 0)
(2.58409e-08 -1.93721e-06 0)
(2.57877e-08 -1.94152e-06 0)
(2.57342e-08 -1.94584e-06 0)
(2.56805e-08 -1.95015e-06 0)
(2.56267e-08 -1.95446e-06 0)
(2.55726e-08 -1.95878e-06 0)
(2.55182e-08 -1.9631e-06 0)
(2.54637e-08 -1.96741e-06 0)
(2.54089e-08 -1.97173e-06 0)
(2.53539e-08 -1.97605e-06 0)
(2.52987e-08 -1.98037e-06 0)
(2.52433e-08 -1.9847e-06 0)
(2.51877e-08 -1.98902e-06 0)
(2.51318e-08 -1.99334e-06 0)
(2.50757e-08 -1.99766e-06 0)
(2.50194e-08 -2.00199e-06 0)
(2.49628e-08 -2.00631e-06 0)
(2.49061e-08 -2.01063e-06 0)
(2.48491e-08 -2.01496e-06 0)
(2.47919e-08 -2.01928e-06 0)
(2.47344e-08 -2.02361e-06 0)
(2.46768e-08 -2.02793e-06 0)
(2.46189e-08 -2.03226e-06 0)
(2.45608e-08 -2.03658e-06 0)
(2.45025e-08 -2.04091e-06 0)
(2.44439e-08 -2.04523e-06 0)
(2.43851e-08 -2.04956e-06 0)
(2.43261e-08 -2.05388e-06 0)
(2.42669e-08 -2.05821e-06 0)
(2.42075e-08 -2.06253e-06 0)
(2.41478e-08 -2.06686e-06 0)
(2.40879e-08 -2.07118e-06 0)
(2.40278e-08 -2.0755e-06 0)
(2.39674e-08 -2.07982e-06 0)
(2.39069e-08 -2.08414e-06 0)
(2.38461e-08 -2.08846e-06 0)
(2.3785e-08 -2.09278e-06 0)
(2.37238e-08 -2.0971e-06 0)
(2.36623e-08 -2.10142e-06 0)
(2.36006e-08 -2.10573e-06 0)
(2.35387e-08 -2.11005e-06 0)
(2.34766e-08 -2.11436e-06 0)
(2.34142e-08 -2.11868e-06 0)
(2.33516e-08 -2.12299e-06 0)
(2.32888e-08 -2.1273e-06 0)
(2.32258e-08 -2.13161e-06 0)
(2.31625e-08 -2.13591e-06 0)
(2.3099e-08 -2.14022e-06 0)
(2.30353e-08 -2.14452e-06 0)
(2.29714e-08 -2.14882e-06 0)
(2.29072e-08 -2.15312e-06 0)
(2.28428e-08 -2.15742e-06 0)
(2.27782e-08 -2.16172e-06 0)
(2.27134e-08 -2.16601e-06 0)
(2.26484e-08 -2.1703e-06 0)
(2.25831e-08 -2.17459e-06 0)
(2.25176e-08 -2.17888e-06 0)
(2.24519e-08 -2.18316e-06 0)
(2.2386e-08 -2.18744e-06 0)
(2.23198e-08 -2.19172e-06 0)
(2.22535e-08 -2.196e-06 0)
(2.21869e-08 -2.20027e-06 0)
(2.212e-08 -2.20455e-06 0)
(2.2053e-08 -2.20881e-06 0)
(2.19858e-08 -2.21308e-06 0)
(2.19183e-08 -2.21734e-06 0)
(2.18506e-08 -2.2216e-06 0)
(2.17827e-08 -2.22586e-06 0)
(2.17146e-08 -2.23011e-06 0)
(2.16462e-08 -2.23436e-06 0)
(2.15777e-08 -2.23861e-06 0)
(2.15089e-08 -2.24285e-06 0)
(2.14399e-08 -2.24709e-06 0)
(2.13707e-08 -2.25132e-06 0)
(2.13013e-08 -2.25556e-06 0)
(2.12317e-08 -2.25978e-06 0)
(2.11618e-08 -2.26401e-06 0)
(2.10918e-08 -2.26823e-06 0)
(2.10215e-08 -2.27244e-06 0)
(2.0951e-08 -2.27665e-06 0)
(2.08803e-08 -2.28086e-06 0)
(2.08094e-08 -2.28506e-06 0)
(2.07383e-08 -2.28926e-06 0)
(2.0667e-08 -2.29346e-06 0)
(2.05954e-08 -2.29765e-06 0)
(2.05237e-08 -2.30183e-06 0)
(2.04517e-08 -2.30601e-06 0)
(2.03796e-08 -2.31019e-06 0)
(2.03072e-08 -2.31436e-06 0)
(2.02347e-08 -2.31852e-06 0)
(2.01619e-08 -2.32268e-06 0)
(2.00889e-08 -2.32683e-06 0)
(2.00158e-08 -2.33098e-06 0)
(1.99424e-08 -2.33513e-06 0)
(1.98689e-08 -2.33927e-06 0)
(1.9795e-08 -2.34339e-06 0)
(1.97223e-08 -2.34754e-06 0)
(1.96468e-08 -2.35163e-06 0)
(1.9569e-08 -2.3555e-06 0)
(1.94985e-08 -2.35923e-06 0)
(1.94324e-08 -2.36291e-06 0)
(1.93652e-08 -2.3666e-06 0)
(1.92974e-08 -2.37035e-06 0)
(1.92288e-08 -2.37413e-06 0)
(1.91595e-08 -2.37794e-06 0)
(1.90893e-08 -2.38177e-06 0)
(1.90184e-08 -2.38562e-06 0)
(1.89466e-08 -2.3895e-06 0)
(1.8874e-08 -2.39342e-06 0)
(1.88007e-08 -2.39736e-06 0)
(1.87265e-08 -2.40132e-06 0)
(1.86514e-08 -2.40531e-06 0)
(1.85755e-08 -2.40933e-06 0)
(1.84988e-08 -2.41338e-06 0)
(1.84213e-08 -2.41746e-06 0)
(1.83428e-08 -2.42156e-06 0)
(1.82635e-08 -2.42569e-06 0)
(1.81834e-08 -2.42984e-06 0)
(1.81023e-08 -2.43402e-06 0)
(1.80204e-08 -2.43823e-06 0)
(1.79376e-08 -2.44246e-06 0)
(1.78539e-08 -2.44672e-06 0)
(1.77692e-08 -2.45101e-06 0)
(1.76837e-08 -2.45532e-06 0)
(1.75972e-08 -2.45966e-06 0)
(1.75098e-08 -2.46402e-06 0)
(1.74215e-08 -2.46841e-06 0)
(1.73322e-08 -2.47282e-06 0)
(1.7242e-08 -2.47726e-06 0)
(1.71508e-08 -2.48172e-06 0)
(1.70587e-08 -2.48621e-06 0)
(1.69656e-08 -2.49072e-06 0)
(1.68715e-08 -2.49526e-06 0)
(1.67764e-08 -2.49982e-06 0)
(1.66804e-08 -2.5044e-06 0)
(1.65833e-08 -2.50901e-06 0)
(1.64853e-08 -2.51363e-06 0)
(1.63862e-08 -2.51828e-06 0)
(1.62862e-08 -2.52296e-06 0)
(1.61851e-08 -2.52765e-06 0)
(1.6083e-08 -2.53237e-06 0)
(1.59798e-08 -2.5371e-06 0)
(1.58757e-08 -2.54186e-06 0)
(1.57704e-08 -2.54664e-06 0)
(1.56642e-08 -2.55143e-06 0)
(1.55569e-08 -2.55625e-06 0)
(1.54485e-08 -2.56108e-06 0)
(1.53391e-08 -2.56594e-06 0)
(1.52286e-08 -2.57081e-06 0)
(1.51171e-08 -2.57569e-06 0)
(1.50045e-08 -2.5806e-06 0)
(1.48908e-08 -2.58552e-06 0)
(1.4776e-08 -2.59045e-06 0)
(1.46602e-08 -2.5954e-06 0)
(1.45433e-08 -2.60037e-06 0)
(1.44253e-08 -2.60535e-06 0)
(1.43062e-08 -2.61034e-06 0)
(1.4186e-08 -2.61534e-06 0)
(1.40647e-08 -2.62035e-06 0)
(1.39424e-08 -2.62538e-06 0)
(1.38189e-08 -2.63041e-06 0)
(1.36944e-08 -2.63546e-06 0)
(1.35688e-08 -2.64051e-06 0)
(1.34421e-08 -2.64557e-06 0)
(1.33143e-08 -2.65064e-06 0)
(1.31854e-08 -2.65571e-06 0)
(1.30554e-08 -2.66079e-06 0)
(1.29244e-08 -2.66587e-06 0)
(1.27923e-08 -2.67096e-06 0)
(1.26591e-08 -2.67604e-06 0)
(1.25248e-08 -2.68113e-06 0)
(1.23895e-08 -2.68622e-06 0)
(1.22531e-08 -2.69131e-06 0)
(1.21156e-08 -2.69639e-06 0)
(1.19771e-08 -2.70148e-06 0)
(1.18376e-08 -2.70655e-06 0)
(1.1697e-08 -2.71163e-06 0)
(1.15553e-08 -2.71669e-06 0)
(1.14127e-08 -2.72175e-06 0)
(1.12691e-08 -2.7268e-06 0)
(1.11244e-08 -2.73184e-06 0)
(1.09788e-08 -2.73687e-06 0)
(1.08321e-08 -2.74189e-06 0)
(1.06845e-08 -2.74689e-06 0)
(1.0536e-08 -2.75188e-06 0)
(1.03865e-08 -2.75685e-06 0)
(1.02361e-08 -2.7618e-06 0)
(1.00847e-08 -2.76673e-06 0)
(9.93251e-09 -2.77164e-06 0)
(9.77939e-09 -2.77653e-06 0)
(9.62541e-09 -2.78139e-06 0)
(9.47059e-09 -2.78623e-06 0)
(9.31493e-09 -2.79105e-06 0)
(9.15847e-09 -2.79583e-06 0)
(9.00122e-09 -2.80058e-06 0)
(8.84321e-09 -2.8053e-06 0)
(8.68445e-09 -2.80999e-06 0)
(8.52497e-09 -2.81464e-06 0)
(8.36479e-09 -2.81926e-06 0)
(8.20395e-09 -2.82384e-06 0)
(8.04246e-09 -2.82837e-06 0)
(7.88035e-09 -2.83287e-06 0)
(7.71765e-09 -2.83731e-06 0)
(7.5544e-09 -2.84172e-06 0)
(7.39061e-09 -2.84607e-06 0)
(7.22632e-09 -2.85038e-06 0)
(7.06156e-09 -2.85464e-06 0)
(6.89637e-09 -2.85884e-06 0)
(6.73078e-09 -2.86299e-06 0)
(6.56482e-09 -2.86707e-06 0)
(6.39853e-09 -2.87111e-06 0)
(6.23195e-09 -2.87507e-06 0)
(6.06511e-09 -2.87898e-06 0)
(5.89805e-09 -2.88282e-06 0)
(5.73082e-09 -2.8866e-06 0)
(5.56345e-09 -2.8903e-06 0)
(5.39598e-09 -2.89393e-06 0)
(5.22846e-09 -2.8975e-06 0)
(5.06093e-09 -2.90098e-06 0)
(4.89344e-09 -2.90439e-06 0)
(4.72602e-09 -2.90772e-06 0)
(4.55873e-09 -2.91097e-06 0)
(4.39161e-09 -2.91413e-06 0)
(4.22472e-09 -2.91721e-06 0)
(4.05809e-09 -2.9202e-06 0)
(3.89178e-09 -2.9231e-06 0)
(3.72584e-09 -2.92591e-06 0)
(3.56032e-09 -2.92863e-06 0)
(3.39527e-09 -2.93125e-06 0)
(3.23075e-09 -2.93377e-06 0)
(3.0668e-09 -2.9362e-06 0)
(2.90348e-09 -2.93852e-06 0)
(2.74085e-09 -2.94074e-06 0)
(2.57896e-09 -2.94285e-06 0)
(2.41786e-09 -2.94485e-06 0)
(2.25761e-09 -2.94675e-06 0)
(2.09828e-09 -2.94853e-06 0)
(1.93991e-09 -2.95021e-06 0)
(1.78256e-09 -2.95176e-06 0)
(1.6263e-09 -2.9532e-06 0)
(1.47118e-09 -2.95452e-06 0)
(1.31725e-09 -2.95572e-06 0)
(1.16459e-09 -2.9568e-06 0)
(1.01325e-09 -2.95776e-06 0)
(8.63281e-10 -2.95859e-06 0)
(7.14753e-10 -2.95929e-06 0)
(5.67723e-10 -2.95986e-06 0)
(4.22251e-10 -2.96031e-06 0)
(2.78396e-10 -2.96062e-06 0)
(1.36217e-10 -2.9608e-06 0)
(-4.22838e-12 -2.96085e-06 0)
(-1.42881e-10 -2.96076e-06 0)
(-2.79684e-10 -2.96054e-06 0)
(-4.1458e-10 -2.96018e-06 0)
(-5.47515e-10 -2.95968e-06 0)
(-6.78434e-10 -2.95904e-06 0)
(-8.07284e-10 -2.95826e-06 0)
(-9.34012e-10 -2.95734e-06 0)
(-1.05857e-09 -2.95628e-06 0)
(-1.1809e-09 -2.95508e-06 0)
(-1.30096e-09 -2.95373e-06 0)
(-1.41871e-09 -2.95225e-06 0)
(-1.53409e-09 -2.95061e-06 0)
(-1.64706e-09 -2.94884e-06 0)
(-1.75759e-09 -2.94692e-06 0)
(-1.86562e-09 -2.94485e-06 0)
(-1.97112e-09 -2.94265e-06 0)
(-2.07405e-09 -2.94029e-06 0)
(-2.17437e-09 -2.9378e-06 0)
(-2.27204e-09 -2.93516e-06 0)
(-2.36703e-09 -2.93237e-06 0)
(-2.4593e-09 -2.92944e-06 0)
(-2.54881e-09 -2.92637e-06 0)
(-2.63553e-09 -2.92316e-06 0)
(-2.7194e-09 -2.91981e-06 0)
(-2.80043e-09 -2.91631e-06 0)
(-2.87851e-09 -2.9127e-06 0)
(-2.95415e-09 -2.90889e-06 0)
(-3.02639e-09 -2.90498e-06 0)
(-3.09911e-09 -2.90056e-06 0)
(-3.17577e-09 -2.89543e-06 0)
(-3.25058e-09 -2.89019e-06 0)
(-3.32022e-09 -2.88488e-06 0)
(-3.38506e-09 -2.87944e-06 0)
(-3.44512e-09 -2.87389e-06 0)
(-3.50054e-09 -2.86825e-06 0)
(-3.55143e-09 -2.86253e-06 0)
(-3.59793e-09 -2.85673e-06 0)
(-3.64017e-09 -2.85086e-06 0)
(-3.67831e-09 -2.84492e-06 0)
(-3.71247e-09 -2.83892e-06 0)
(-3.74278e-09 -2.83288e-06 0)
(-3.76937e-09 -2.82678e-06 0)
(-3.79238e-09 -2.82065e-06 0)
(-3.81193e-09 -2.81448e-06 0)
(-3.82813e-09 -2.80829e-06 0)
(-3.8411e-09 -2.80207e-06 0)
(-3.85096e-09 -2.79583e-06 0)
(-3.8578e-09 -2.78958e-06 0)
(-3.86173e-09 -2.78332e-06 0)
(-3.86286e-09 -2.77706e-06 0)
(-3.86128e-09 -2.7708e-06 0)
(-3.85708e-09 -2.76454e-06 0)
(-3.85034e-09 -2.75829e-06 0)
(-3.84116e-09 -2.75205e-06 0)
(-3.82961e-09 -2.74584e-06 0)
(-3.81578e-09 -2.73964e-06 0)
(-3.79973e-09 -2.73346e-06 0)
(-3.78154e-09 -2.72732e-06 0)
(-3.76129e-09 -2.7212e-06 0)
(-3.73903e-09 -2.71513e-06 0)
(-3.71483e-09 -2.70908e-06 0)
(-3.68876e-09 -2.70308e-06 0)
(-3.66086e-09 -2.69713e-06 0)
(-3.63121e-09 -2.69121e-06 0)
(-3.59985e-09 -2.68535e-06 0)
(-3.56684e-09 -2.67955e-06 0)
(-3.53222e-09 -2.67379e-06 0)
(-3.49606e-09 -2.66809e-06 0)
(-3.45839e-09 -2.66246e-06 0)
(-3.41925e-09 -2.65688e-06 0)
(-3.3787e-09 -2.65137e-06 0)
(-3.33678e-09 -2.64593e-06 0)
(-3.29352e-09 -2.64056e-06 0)
(-3.24897e-09 -2.63526e-06 0)
(-3.20315e-09 -2.63003e-06 0)
(-3.15611e-09 -2.62487e-06 0)
(-3.10788e-09 -2.61979e-06 0)
(-3.0585e-09 -2.6148e-06 0)
(-3.00799e-09 -2.60988e-06 0)
(-2.95639e-09 -2.60505e-06 0)
(-2.90372e-09 -2.6003e-06 0)
(-2.85001e-09 -2.59563e-06 0)
(-2.7953e-09 -2.59106e-06 0)
(-2.7396e-09 -2.58657e-06 0)
(-2.68295e-09 -2.58218e-06 0)
(-2.62536e-09 -2.57787e-06 0)
(-2.56687e-09 -2.57366e-06 0)
(-2.5075e-09 -2.56955e-06 0)
(-2.44726e-09 -2.56553e-06 0)
(-2.3862e-09 -2.56162e-06 0)
(-2.32432e-09 -2.5578e-06 0)
(-2.26165e-09 -2.55408e-06 0)
(-2.19821e-09 -2.55046e-06 0)
(-2.13403e-09 -2.54695e-06 0)
(-2.06913e-09 -2.54354e-06 0)
(-2.00354e-09 -2.54024e-06 0)
(-1.93726e-09 -2.53704e-06 0)
(-1.87033e-09 -2.53396e-06 0)
(-1.80277e-09 -2.53098e-06 0)
(-1.73459e-09 -2.52811e-06 0)
(-1.66583e-09 -2.52535e-06 0)
(-1.5965e-09 -2.5227e-06 0)
(-1.52662e-09 -2.52017e-06 0)
(-1.45621e-09 -2.51775e-06 0)
(-1.3853e-09 -2.51544e-06 0)
(-1.3139e-09 -2.51325e-06 0)
(-1.24203e-09 -2.51117e-06 0)
(-1.16971e-09 -2.50922e-06 0)
(-1.09696e-09 -2.50737e-06 0)
(-1.0238e-09 -2.50565e-06 0)
(-9.50252e-10 -2.50404e-06 0)
(-8.7635e-10 -2.50256e-06 0)
(-8.02127e-10 -2.50119e-06 0)
(-7.2764e-10 -2.49996e-06 0)
(-6.52954e-10 -2.49879e-06 0)
(-5.78193e-10 -2.49796e-06 0)
(-5.03419e-10 -2.49649e-06 0)
(-4.28994e-10 -2.49763e-06 0)
(-3.54236e-10 -2.4905e-06 0)
(-2.81627e-10 -2.51025e-06 0)
(-2.01505e-10 -2.43472e-06 0)
(-1.4669e-10 -2.6344e-06 0)
(-6.85556e-11 -2.30073e-06 0)
)
;
    }
    bottomWall
    {
        type            calculated;
        value           nonuniform List<vector> 
449
(
(-48.5369 -0.964156 0)
(-19.7564 -0.00515468 0)
(-14.3526 -0.00113325 0)
(-12.0497 -0.000542789 0)
(-10.6552 -0.000346473 0)
(-9.68402 -0.000245967 0)
(-8.97182 -0.000176707 0)
(-8.47187 -0.000110466 0)
(-8.21283 -2.40819e-05 0)
(-8.30841 0.000146014 0)
(-9.22746 0.000312836 0)
(-10.4766 0.000310792 0)
(-11.3808 0.000204435 0)
(-11.896 0.000113668 0)
(-12.1723 6.02567e-05 0)
(-12.3167 2.9508e-05 0)
(-12.3788 9.66951e-06 0)
(-12.3844 -3.87659e-06 0)
(-12.3514 -1.25021e-05 0)
(-12.2961 -1.78039e-05 0)
(-12.2254 -2.11129e-05 0)
(-12.1464 -2.27739e-05 0)
(-12.0635 -2.34324e-05 0)
(-11.9795 -2.34798e-05 0)
(-11.8959 -2.31656e-05 0)
(-11.8137 -2.26611e-05 0)
(-11.7333 -2.20383e-05 0)
(-11.6552 -2.13272e-05 0)
(-11.5796 -2.0584e-05 0)
(-11.5065 -1.98368e-05 0)
(-11.4359 -1.91023e-05 0)
(-11.3678 -1.83894e-05 0)
(-11.3021 -1.77028e-05 0)
(-11.2387 -1.70429e-05 0)
(-11.1775 -1.64234e-05 0)
(-11.1184 -1.58413e-05 0)
(-11.0612 -1.52776e-05 0)
(-11.0059 -1.47347e-05 0)
(-10.9525 -1.42186e-05 0)
(-10.9007 -1.37278e-05 0)
(-10.8507 -1.3262e-05 0)
(-10.8022 -1.28208e-05 0)
(-10.7552 -1.24029e-05 0)
(-10.7096 -1.2007e-05 0)
(-10.6653 -1.16339e-05 0)
(-10.6223 -1.12795e-05 0)
(-10.5805 -1.09376e-05 0)
(-10.5399 -1.06253e-05 0)
(-10.5002 -1.0368e-05 0)
(-10.4614 -1.01461e-05 0)
(-10.4232 -9.93168e-06 0)
(-10.3858 -9.7207e-06 0)
(-10.3491 -9.51029e-06 0)
(-10.313 -9.30443e-06 0)
(-10.2777 -9.10409e-06 0)
(-10.2431 -8.90927e-06 0)
(-10.2091 -8.72169e-06 0)
(-10.1758 -8.54014e-06 0)
(-10.143 -8.36375e-06 0)
(-10.1109 -8.1945e-06 0)
(-10.0793 -8.0307e-06 0)
(-10.0483 -7.87253e-06 0)
(-10.0178 -7.71859e-06 0)
(-9.98783 -7.56971e-06 0)
(-9.95837 -7.42611e-06 0)
(-9.9294 -7.28711e-06 0)
(-9.90089 -7.15262e-06 0)
(-9.87285 -7.02491e-06 0)
(-9.84522 -6.90529e-06 0)
(-9.81799 -6.7868e-06 0)
(-9.79118 -6.66817e-06 0)
(-9.76477 -6.5523e-06 0)
(-9.73875 -6.44001e-06 0)
(-9.71312 -6.33016e-06 0)
(-9.68787 -6.22344e-06 0)
(-9.66298 -6.11946e-06 0)
(-9.63844 -6.01843e-06 0)
(-9.61425 -5.92018e-06 0)
(-9.5904 -5.82504e-06 0)
(-9.56687 -5.73252e-06 0)
(-9.54366 -5.64244e-06 0)
(-9.52075 -5.55476e-06 0)
(-9.49816 -5.46953e-06 0)
(-9.47584 -5.38615e-06 0)
(-9.45382 -5.3048e-06 0)
(-9.43207 -5.22553e-06 0)
(-9.41061 -5.14767e-06 0)
(-9.3894 -5.07225e-06 0)
(-9.36846 -4.99806e-06 0)
(-9.34778 -4.92599e-06 0)
(-9.32734 -4.85549e-06 0)
(-9.30715 -4.78627e-06 0)
(-9.28719 -4.71948e-06 0)
(-9.26747 -4.6538e-06 0)
(-9.24797 -4.59011e-06 0)
(-9.22869 -4.52946e-06 0)
(-9.20962 -4.47113e-06 0)
(-9.19075 -4.41364e-06 0)
(-9.17207 -4.35454e-06 0)
(-9.15361 -4.29573e-06 0)
(-9.13536 -4.23941e-06 0)
(-9.11729 -4.18377e-06 0)
(-9.09943 -4.12867e-06 0)
(-9.08176 -4.0762e-06 0)
(-9.06426 -4.02364e-06 0)
(-9.04696 -3.97209e-06 0)
(-9.02983 -3.92243e-06 0)
(-9.01288 -3.87294e-06 0)
(-8.9961 -3.82441e-06 0)
(-8.97949 -3.77773e-06 0)
(-8.96304 -3.73077e-06 0)
(-8.94676 -3.68506e-06 0)
(-8.93064 -3.64091e-06 0)
(-8.91468 -3.59677e-06 0)
(-8.89887 -3.5533e-06 0)
(-8.88322 -3.51177e-06 0)
(-8.8677 -3.47003e-06 0)
(-8.85235 -3.42874e-06 0)
(-8.83713 -3.38937e-06 0)
(-8.82205 -3.35014e-06 0)
(-8.80711 -3.31079e-06 0)
(-8.79232 -3.27331e-06 0)
(-8.77765 -3.23635e-06 0)
(-8.76312 -3.19919e-06 0)
(-8.74872 -3.16315e-06 0)
(-8.73445 -3.12846e-06 0)
(-8.72029 -3.09324e-06 0)
(-8.70628 -3.05865e-06 0)
(-8.69237 -3.02572e-06 0)
(-8.67859 -2.99272e-06 0)
(-8.66492 -2.95951e-06 0)
(-8.65138 -2.92782e-06 0)
(-8.63794 -2.89688e-06 0)
(-8.62463 -2.8655e-06 0)
(-8.61141 -2.83494e-06 0)
(-8.59832 -2.80576e-06 0)
(-8.58531 -2.77702e-06 0)
(-8.57242 -2.74829e-06 0)
(-8.55962 -2.72125e-06 0)
(-8.54693 -2.69433e-06 0)
(-8.53432 -2.66636e-06 0)
(-8.52183 -2.63817e-06 0)
(-8.50943 -2.61148e-06 0)
(-8.49714 -2.58517e-06 0)
(-8.48493 -2.55879e-06 0)
(-8.47283 -2.53248e-06 0)
(-8.46081 -2.50741e-06 0)
(-8.44889 -2.48256e-06 0)
(-8.43706 -2.45764e-06 0)
(-8.42532 -2.43283e-06 0)
(-8.41367 -2.40916e-06 0)
(-8.40211 -2.38565e-06 0)
(-8.39063 -2.36205e-06 0)
(-8.37924 -2.33856e-06 0)
(-8.36794 -2.31618e-06 0)
(-8.35671 -2.29395e-06 0)
(-8.34557 -2.2716e-06 0)
(-8.33451 -2.24927e-06 0)
(-8.32354 -2.22811e-06 0)
(-8.31263 -2.20716e-06 0)
(-8.30182 -2.18605e-06 0)
(-8.29107 -2.16496e-06 0)
(-8.28041 -2.14494e-06 0)
(-8.26981 -2.12546e-06 0)
(-8.25929 -2.10561e-06 0)
(-8.24884 -2.0857e-06 0)
(-8.23847 -2.06672e-06 0)
(-8.22816 -2.04829e-06 0)
(-8.21793 -2.02979e-06 0)
(-8.20776 -2.0108e-06 0)
(-8.19767 -1.99295e-06 0)
(-8.18763 -1.97518e-06 0)
(-8.17768 -1.95511e-06 0)
(-8.16834 -1.94051e-06 0)
(-8.15955 -1.92872e-06 0)
(-8.15073 -1.91259e-06 0)
(-8.14189 -1.89706e-06 0)
(-8.13302 -1.88211e-06 0)
(-8.12413 -1.8663e-06 0)
(-8.11522 -1.85066e-06 0)
(-8.10629 -1.83532e-06 0)
(-8.09733 -1.82021e-06 0)
(-8.08836 -1.80485e-06 0)
(-8.07936 -1.78914e-06 0)
(-8.07035 -1.77362e-06 0)
(-8.06131 -1.75853e-06 0)
(-8.05225 -1.74361e-06 0)
(-8.04317 -1.72844e-06 0)
(-8.03409 -1.71294e-06 0)
(-8.02497 -1.6978e-06 0)
(-8.01585 -1.683e-06 0)
(-8.0067 -1.66833e-06 0)
(-7.99754 -1.65323e-06 0)
(-7.98836 -1.63816e-06 0)
(-7.97916 -1.6235e-06 0)
(-7.96995 -1.60918e-06 0)
(-7.96072 -1.59464e-06 0)
(-7.95148 -1.57993e-06 0)
(-7.94222 -1.56529e-06 0)
(-7.93295 -1.55105e-06 0)
(-7.92366 -1.53705e-06 0)
(-7.91435 -1.52325e-06 0)
(-7.90503 -1.50957e-06 0)
(-7.89569 -1.4958e-06 0)
(-7.88634 -1.48173e-06 0)
(-7.87698 -1.46741e-06 0)
(-7.86761 -1.453e-06 0)
(-7.85823 -1.43863e-06 0)
(-7.84884 -1.42464e-06 0)
(-7.83944 -1.41067e-06 0)
(-7.83004 -1.39643e-06 0)
(-7.82062 -1.38212e-06 0)
(-7.81121 -1.36829e-06 0)
(-7.80178 -1.35447e-06 0)
(-7.79236 -1.34053e-06 0)
(-7.78292 -1.32639e-06 0)
(-7.77349 -1.31254e-06 0)
(-7.76405 -1.29907e-06 0)
(-7.75461 -1.28535e-06 0)
(-7.74517 -1.27166e-06 0)
(-7.73573 -1.25805e-06 0)
(-7.72628 -1.24484e-06 0)
(-7.71684 -1.23148e-06 0)
(-7.70739 -1.21803e-06 0)
(-7.69795 -1.20461e-06 0)
(-7.68851 -1.19162e-06 0)
(-7.67908 -1.17856e-06 0)
(-7.66964 -1.1655e-06 0)
(-7.66021 -1.15245e-06 0)
(-7.65078 -1.13979e-06 0)
(-7.64135 -1.12724e-06 0)
(-7.63193 -1.11455e-06 0)
(-7.62251 -1.10184e-06 0)
(-7.6131 -1.0895e-06 0)
(-7.60369 -1.07719e-06 0)
(-7.5943 -1.06472e-06 0)
(-7.5849 -1.05224e-06 0)
(-7.57552 -1.03997e-06 0)
(-7.56615 -1.02782e-06 0)
(-7.55679 -1.01562e-06 0)
(-7.54743 -1.0034e-06 0)
(-7.5381 -9.91583e-07 0)
(-7.52876 -9.79885e-07 0)
(-7.51944 -9.68113e-07 0)
(-7.51014 -9.56345e-07 0)
(-7.50084 -9.44945e-07 0)
(-7.49156 -9.33586e-07 0)
(-7.48229 -9.22234e-07 0)
(-7.47303 -9.10877e-07 0)
(-7.46379 -8.99854e-07 0)
(-7.45456 -8.88827e-07 0)
(-7.44535 -8.77708e-07 0)
(-7.43615 -8.66725e-07 0)
(-7.42697 -8.5596e-07 0)
(-7.4178 -8.45297e-07 0)
(-7.40866 -8.34516e-07 0)
(-7.39953 -8.24042e-07 0)
(-7.39042 -8.13669e-07 0)
(-7.38132 -8.03378e-07 0)
(-7.37224 -7.93005e-07 0)
(-7.36318 -7.82862e-07 0)
(-7.35415 -7.72878e-07 0)
(-7.34512 -7.6281e-07 0)
(-7.33613 -7.52587e-07 0)
(-7.32716 -7.42733e-07 0)
(-7.3182 -7.32861e-07 0)
(-7.30928 -7.23056e-07 0)
(-7.30037 -7.13398e-07 0)
(-7.29149 -7.04e-07 0)
(-7.28263 -6.94737e-07 0)
(-7.2738 -6.85461e-07 0)
(-7.26498 -6.76355e-07 0)
(-7.25619 -6.67589e-07 0)
(-7.24742 -6.58843e-07 0)
(-7.23867 -6.50056e-07 0)
(-7.22994 -6.41383e-07 0)
(-7.22124 -6.32987e-07 0)
(-7.21255 -6.2446e-07 0)
(-7.2039 -6.15931e-07 0)
(-7.19526 -6.07704e-07 0)
(-7.18665 -5.99365e-07 0)
(-7.17807 -5.91089e-07 0)
(-7.16952 -5.82997e-07 0)
(-7.16098 -5.75069e-07 0)
(-7.15248 -5.67164e-07 0)
(-7.144 -5.5942e-07 0)
(-7.13554 -5.51714e-07 0)
(-7.12711 -5.44237e-07 0)
(-7.11871 -5.36691e-07 0)
(-7.11033 -5.2921e-07 0)
(-7.10198 -5.21968e-07 0)
(-7.09365 -5.14702e-07 0)
(-7.08535 -5.07508e-07 0)
(-7.07708 -5.0042e-07 0)
(-7.06883 -4.935e-07 0)
(-7.06061 -4.86606e-07 0)
(-7.05242 -4.79766e-07 0)
(-7.04426 -4.73147e-07 0)
(-7.03612 -4.66513e-07 0)
(-7.02801 -4.59986e-07 0)
(-7.01992 -4.53474e-07 0)
(-7.01186 -4.47107e-07 0)
(-7.00383 -4.40824e-07 0)
(-6.99583 -4.34626e-07 0)
(-6.98785 -4.28523e-07 0)
(-6.9799 -4.22609e-07 0)
(-6.97197 -4.16649e-07 0)
(-6.96408 -4.10805e-07 0)
(-6.9562 -4.05103e-07 0)
(-6.94835 -3.99416e-07 0)
(-6.94053 -3.93769e-07 0)
(-6.93274 -3.88339e-07 0)
(-6.92496 -3.82897e-07 0)
(-6.91722 -3.77509e-07 0)
(-6.90949 -3.72168e-07 0)
(-6.90181 -3.66912e-07 0)
(-6.89414 -3.61701e-07 0)
(-6.88651 -3.56554e-07 0)
(-6.87889 -3.51504e-07 0)
(-6.87131 -3.46548e-07 0)
(-6.86374 -3.41646e-07 0)
(-6.85621 -3.36791e-07 0)
(-6.8487 -3.32022e-07 0)
(-6.84122 -3.27265e-07 0)
(-6.83376 -3.22519e-07 0)
(-6.82635 -3.17863e-07 0)
(-6.81894 -3.1331e-07 0)
(-6.81158 -3.0874e-07 0)
(-6.80423 -3.04301e-07 0)
(-6.79692 -2.99956e-07 0)
(-6.78962 -2.95616e-07 0)
(-6.78237 -2.91387e-07 0)
(-6.77512 -2.87209e-07 0)
(-6.76792 -2.83081e-07 0)
(-6.76073 -2.78979e-07 0)
(-6.75358 -2.7497e-07 0)
(-6.74644 -2.71036e-07 0)
(-6.73935 -2.67112e-07 0)
(-6.73226 -2.63297e-07 0)
(-6.72522 -2.59498e-07 0)
(-6.71819 -2.55832e-07 0)
(-6.71119 -2.52121e-07 0)
(-6.70421 -2.4856e-07 0)
(-6.69726 -2.44985e-07 0)
(-6.69033 -2.41435e-07 0)
(-6.68344 -2.3787e-07 0)
(-6.67656 -2.34535e-07 0)
(-6.66972 -2.3117e-07 0)
(-6.66289 -2.28032e-07 0)
(-6.65608 -2.24785e-07 0)
(-6.64931 -2.21723e-07 0)
(-6.64254 -2.18405e-07 0)
(-6.63582 -2.15384e-07 0)
(-6.62909 -2.12235e-07 0)
(-6.62167 -2.07975e-07 0)
(-6.61364 -2.03594e-07 0)
(-6.60578 -1.99842e-07 0)
(-6.59804 -1.96318e-07 0)
(-6.59046 -1.92796e-07 0)
(-6.58299 -1.8937e-07 0)
(-6.57568 -1.86041e-07 0)
(-6.56847 -1.82932e-07 0)
(-6.5614 -1.79941e-07 0)
(-6.55443 -1.77145e-07 0)
(-6.54758 -1.74486e-07 0)
(-6.54081 -1.71857e-07 0)
(-6.53416 -1.69213e-07 0)
(-6.5276 -1.66673e-07 0)
(-6.52115 -1.64197e-07 0)
(-6.51479 -1.61813e-07 0)
(-6.50852 -1.59479e-07 0)
(-6.50234 -1.572e-07 0)
(-6.49625 -1.55061e-07 0)
(-6.49024 -1.52941e-07 0)
(-6.48432 -1.50945e-07 0)
(-6.47846 -1.48964e-07 0)
(-6.47269 -1.47029e-07 0)
(-6.46698 -1.45125e-07 0)
(-6.46136 -1.43252e-07 0)
(-6.4558 -1.41361e-07 0)
(-6.45033 -1.39525e-07 0)
(-6.44491 -1.37823e-07 0)
(-6.43957 -1.36115e-07 0)
(-6.43428 -1.34495e-07 0)
(-6.42907 -1.32859e-07 0)
(-6.42391 -1.31288e-07 0)
(-6.41882 -1.29669e-07 0)
(-6.41379 -1.28089e-07 0)
(-6.40883 -1.26605e-07 0)
(-6.40391 -1.25099e-07 0)
(-6.39906 -1.23726e-07 0)
(-6.39425 -1.22315e-07 0)
(-6.38951 -1.20999e-07 0)
(-6.38481 -1.1965e-07 0)
(-6.38017 -1.18291e-07 0)
(-6.37557 -1.16981e-07 0)
(-6.37104 -1.15681e-07 0)
(-6.36654 -1.14432e-07 0)
(-6.36211 -1.13199e-07 0)
(-6.35771 -1.11961e-07 0)
(-6.35337 -1.10795e-07 0)
(-6.34906 -1.09537e-07 0)
(-6.34482 -1.08429e-07 0)
(-6.3406 -1.07344e-07 0)
(-6.33645 -1.0636e-07 0)
(-6.3323 -1.05428e-07 0)
(-6.32822 -1.04421e-07 0)
(-6.32415 -1.03518e-07 0)
(-6.32014 -1.02578e-07 0)
(-6.31614 -1.01746e-07 0)
(-6.31219 -1.00835e-07 0)
(-6.30827 -9.99907e-08 0)
(-6.30439 -9.91238e-08 0)
(-6.30053 -9.82588e-08 0)
(-6.29672 -9.73729e-08 0)
(-6.29293 -9.65072e-08 0)
(-6.28918 -9.55837e-08 0)
(-6.28547 -9.47074e-08 0)
(-6.28179 -9.3865e-08 0)
(-6.27814 -9.30248e-08 0)
(-6.27453 -9.21963e-08 0)
(-6.27094 -9.13786e-08 0)
(-6.2674 -9.05999e-08 0)
(-6.26387 -8.98164e-08 0)
(-6.26039 -8.90677e-08 0)
(-6.25692 -8.82314e-08 0)
(-6.2535 -8.75887e-08 0)
(-6.25008 -8.67964e-08 0)
(-6.24672 -8.62176e-08 0)
(-6.24335 -8.54624e-08 0)
(-6.24005 -8.49275e-08 0)
(-6.23672 -8.42231e-08 0)
(-6.23348 -8.37118e-08 0)
(-6.23019 -8.31019e-08 0)
(-6.22699 -8.26871e-08 0)
(-6.22373 -8.20396e-08 0)
(-6.22059 -8.15549e-08 0)
(-6.21737 -8.10047e-08 0)
(-6.21426 -8.04328e-08 0)
(-6.21109 -8.02266e-08 0)
(-6.208 -7.91581e-08 0)
(-6.20491 -8.02572e-08 0)
(-6.20173 -7.69338e-08 0)
(-6.19891 -8.30359e-08 0)
(-6.19524 -7.0418e-08 0)
(-6.19345 -9.27832e-08 0)
(-6.18793 -5.45973e-08 0)
(-6.1893 -7.36875e-08 0)
(-6.18197 -9.76486e-08 0)
)
;
    }
    symmetry
    {
        type            symmetryPlane;
    }
    frontAndBack
    {
        type            empty;
    }
}


// ************************************************************************* //
