/*--------------------------------*- C++ -*----------------------------------*\
| =========                 |                                                 |
| \\      /  F ield         | OpenFOAM: The Open Source CFD Toolbox           |
|  \\    /   O peration     | Version:  v2012                                 |
|   \\  /    A nd           | Website:  www.openfoam.com                      |
|    \\/     M anipulation  |                                                 |
\*---------------------------------------------------------------------------*/
FoamFile
{
    version     2.0;
    format      ascii;
    class       volScalarField;
    location    "27.5";
    object      k;
}
// * * * * * * * * * * * * * * * * * * * * * * * * * * * * * * * * * * * * * //

dimensions      [0 2 -2 0 0 0 0];


internalField   nonuniform List<scalar> 
209825
(
0.00102369
0.00092872
0.000855108
0.000800369
0.000759539
0.000728572
0.000704352
0.000685086
0.000669299
0.000656285
0.000645252
0.000635929
0.000627826
0.000620862
0.000614676
0.00060931
0.000604461
0.000600227
0.000596342
0.000592933
0.000589761
0.000586974
0.00058434
0.000582031
0.000579826
0.000577897
0.000576031
0.000574398
0.000572818
0.000571432
0.000570065
0.000568887
0.000567718
0.000566715
0.000565709
0.000564848
0.000563962
0.000563218
0.000562447
0.000561803
0.000561135
0.000560581
0.000559993
0.00055951
0.000558992
0.00055858
0.000558122
0.000557773
0.00055738
0.000557074
0.000556734
0.000556485
0.000556183
0.000555962
0.000555714
0.000555537
0.000555319
0.000555169
0.000555006
0.000554873
0.000554718
0.00055464
0.000554499
0.000554393
0.000554309
0.000554255
0.000554123
0.000554107
0.000554071
0.00055416
0.0005542
0.000554351
0.00055442
0.000554588
0.000554656
0.000554832
0.000554928
0.000555147
0.000555274
0.000555557
0.000555722
0.000556068
0.00055626
0.000556662
0.000556889
0.000557368
0.000557644
0.000558229
0.000558561
0.000559296
0.000559664
0.000560807
0.000561034
0.000567254
0.0104032
0.0109432
0.00102369
0.00092872
0.000855107
0.000800367
0.000759534
0.000728565
0.000704343
0.000685075
0.000669286
0.000656271
0.000645237
0.000635913
0.00062781
0.000620845
0.000614658
0.000609291
0.000604442
0.000600208
0.000596321
0.000592912
0.00058974
0.000586953
0.000584318
0.000582009
0.000579804
0.000577875
0.000576008
0.000574375
0.000572795
0.000571409
0.000570042
0.000568864
0.000567695
0.000566691
0.000565685
0.000564824
0.000563938
0.000563194
0.000562423
0.000561779
0.00056111
0.000560556
0.000559969
0.000559485
0.000558967
0.000558556
0.000558097
0.000557749
0.000557355
0.000557049
0.000556709
0.00055646
0.000556157
0.000555936
0.000555688
0.000555512
0.000555294
0.000555144
0.000554981
0.000554847
0.000554693
0.000554614
0.000554473
0.000554367
0.000554284
0.000554229
0.000554098
0.000554082
0.000554046
0.000554134
0.000554174
0.000554325
0.000554395
0.000554562
0.00055463
0.000554806
0.000554902
0.000555121
0.000555248
0.000555531
0.000555696
0.000556042
0.000556234
0.000556636
0.000556863
0.000557342
0.000557617
0.000558203
0.000558535
0.00055927
0.000559638
0.00056078
0.000561007
0.000567237
0.0104131
0.0109553
0.00102369
0.000928722
0.000855103
0.000800352
0.000759509
0.00072853
0.000704301
0.000685026
0.000669231
0.000656211
0.000645173
0.000635845
0.000627738
0.00062077
0.000614581
0.000609212
0.00060436
0.000600125
0.000596237
0.000592826
0.000589652
0.000586864
0.000584228
0.000581918
0.000579712
0.000577782
0.000575915
0.000574281
0.0005727
0.000571313
0.000569946
0.000568767
0.000567597
0.000566593
0.000565587
0.000564725
0.000563839
0.000563094
0.000562323
0.000561678
0.00056101
0.000560455
0.000559867
0.000559384
0.000558866
0.000558454
0.000557995
0.000557646
0.000557252
0.000556946
0.000556606
0.000556356
0.000556054
0.000555833
0.000555584
0.000555408
0.00055519
0.000555039
0.000554876
0.000554743
0.000554588
0.00055451
0.000554368
0.000554262
0.000554179
0.000554124
0.000553993
0.000553977
0.00055394
0.000554028
0.000554068
0.000554219
0.000554288
0.000554455
0.000554523
0.000554699
0.000554795
0.000555014
0.000555141
0.000555424
0.000555589
0.000555934
0.000556126
0.000556528
0.000556755
0.000557233
0.000557509
0.000558094
0.000558426
0.00055916
0.000559528
0.00056067
0.000560895
0.000567144
0.0104352
0.0109818
0.0010237
0.000928725
0.000855095
0.000800327
0.000759466
0.000728472
0.000704229
0.000684942
0.000669138
0.000656109
0.000645064
0.000635729
0.000627617
0.000620645
0.000614451
0.000609078
0.000604224
0.000599985
0.000596094
0.000592681
0.000589505
0.000586714
0.000584077
0.000581765
0.000579558
0.000577626
0.000575757
0.000574122
0.00057254
0.000571152
0.000569783
0.000568604
0.000567433
0.000566428
0.000565421
0.000564559
0.000563672
0.000562926
0.000562155
0.00056151
0.00056084
0.000560285
0.000559697
0.000559213
0.000558694
0.000558282
0.000557823
0.000557473
0.000557079
0.000556772
0.000556432
0.000556183
0.00055588
0.000555658
0.00055541
0.000555233
0.000555015
0.000554864
0.0005547
0.000554567
0.000554412
0.000554333
0.000554192
0.000554086
0.000554002
0.000553947
0.000553816
0.000553799
0.000553762
0.00055385
0.00055389
0.00055404
0.000554109
0.000554276
0.000554344
0.00055452
0.000554616
0.000554834
0.000554961
0.000555243
0.000555408
0.000555753
0.000555945
0.000556346
0.000556573
0.000557051
0.000557326
0.000557911
0.000558242
0.000558976
0.000559343
0.000560485
0.000560708
0.000566987
0.01047
0.0110232
0.0010237
0.00092873
0.000855083
0.000800292
0.000759406
0.000728389
0.000704127
0.000684824
0.000669006
0.000655965
0.00064491
0.000635566
0.000627447
0.000620467
0.000614268
0.00060889
0.00060403
0.000599787
0.000595893
0.000592476
0.000589297
0.000586503
0.000583863
0.000581549
0.00057934
0.000577406
0.000575535
0.000573898
0.000572315
0.000570925
0.000569555
0.000568374
0.000567202
0.000566196
0.000565187
0.000564324
0.000563436
0.00056269
0.000561917
0.000561271
0.000560601
0.000560046
0.000559456
0.000558972
0.000558452
0.00055804
0.00055758
0.00055723
0.000556835
0.000556528
0.000556187
0.000555937
0.000555634
0.000555412
0.000555163
0.000554986
0.000554768
0.000554616
0.000554452
0.000554319
0.000554163
0.000554085
0.000553943
0.000553837
0.000553753
0.000553698
0.000553566
0.00055355
0.000553512
0.000553599
0.000553638
0.000553788
0.000553857
0.000554023
0.000554091
0.000554266
0.000554362
0.00055458
0.000554706
0.000554988
0.000555153
0.000555497
0.000555689
0.00055609
0.000556316
0.000556794
0.000557068
0.000557652
0.000557983
0.000558716
0.000559083
0.000560224
0.000560444
0.000566763
0.0105184
0.0110806
0.0010237
0.000928736
0.000855068
0.000800246
0.000759328
0.000728282
0.000703995
0.000684671
0.000668834
0.000655779
0.00064471
0.000635355
0.000627226
0.000620238
0.00061403
0.000608645
0.00060378
0.000599531
0.000595632
0.000592211
0.000589027
0.00058623
0.000583587
0.000581269
0.000579057
0.00057712
0.000575247
0.000573608
0.000572022
0.000570631
0.000569259
0.000568076
0.000566902
0.000565895
0.000564885
0.00056402
0.000563131
0.000562383
0.000561609
0.000560963
0.000560291
0.000559735
0.000559145
0.000558659
0.000558139
0.000557725
0.000557265
0.000556915
0.000556519
0.000556211
0.00055587
0.000555619
0.000555315
0.000555093
0.000554844
0.000554666
0.000554447
0.000554295
0.000554131
0.000553997
0.000553841
0.000553762
0.00055362
0.000553514
0.000553429
0.000553374
0.000553243
0.000553226
0.000553187
0.000553273
0.000553311
0.000553461
0.000553529
0.000553695
0.000553763
0.000553938
0.000554033
0.000554251
0.000554377
0.000554658
0.000554822
0.000555166
0.000555357
0.000555757
0.000555983
0.00055646
0.000556734
0.000557317
0.000557647
0.000558379
0.000558745
0.000559885
0.000560102
0.000566473
0.010581
0.0111547
0.00102371
0.000928743
0.00085505
0.00080019
0.000759232
0.000728151
0.000703833
0.000684482
0.000668624
0.000655549
0.000644464
0.000635096
0.000626954
0.000619955
0.000613738
0.000608345
0.000603471
0.000599216
0.00059531
0.000591884
0.000588695
0.000585894
0.000583246
0.000580924
0.000578708
0.000576769
0.000574892
0.00057325
0.000571662
0.000570268
0.000568894
0.000567709
0.000566533
0.000565524
0.000564512
0.000563645
0.000562755
0.000562006
0.00056123
0.000560582
0.00055991
0.000559352
0.000558761
0.000558274
0.000557753
0.000557339
0.000556877
0.000556526
0.000556129
0.000555821
0.000555479
0.000555227
0.000554923
0.0005547
0.00055445
0.000554272
0.000554052
0.0005539
0.000553735
0.000553601
0.000553445
0.000553365
0.000553223
0.000553116
0.000553031
0.000552976
0.000552845
0.000552827
0.000552786
0.000552872
0.000552909
0.000553058
0.000553126
0.000553291
0.000553358
0.000553533
0.000553628
0.000553845
0.00055397
0.000554251
0.000554415
0.000554758
0.000554948
0.000555347
0.000555573
0.000556049
0.000556322
0.000556904
0.000557233
0.000557964
0.000558328
0.000559467
0.00055968
0.000566115
0.0106587
0.0112462
0.00102372
0.000928751
0.000855029
0.000800123
0.000759119
0.000727994
0.00070364
0.000684259
0.000668374
0.000655276
0.000644172
0.000634787
0.00062663
0.000619618
0.00061339
0.000607986
0.000603104
0.000598841
0.000594928
0.000591494
0.0005883
0.000585493
0.00058284
0.000580514
0.000578293
0.00057635
0.00057447
0.000572824
0.000571233
0.000569836
0.000568459
0.000567271
0.000566093
0.000565081
0.000564067
0.000563199
0.000562307
0.000561556
0.000560779
0.000560129
0.000559455
0.000558896
0.000558303
0.000557816
0.000557293
0.000556877
0.000556415
0.000556063
0.000555665
0.000555356
0.000555013
0.000554761
0.000554455
0.000554232
0.000553981
0.000553802
0.000553582
0.000553429
0.000553263
0.000553129
0.000552972
0.000552892
0.000552749
0.000552642
0.000552556
0.000552501
0.00055237
0.000552351
0.000552309
0.000552394
0.00055243
0.000552578
0.000552645
0.00055281
0.000552877
0.000553051
0.000553145
0.000553361
0.000553486
0.000553766
0.000553929
0.000554271
0.000554461
0.000554859
0.000555084
0.000555558
0.000555831
0.000556411
0.00055674
0.000557468
0.000557832
0.00055897
0.000559178
0.00056569
0.0107519
0.0113561
0.00102372
0.000928761
0.000855005
0.000800046
0.000758987
0.000727813
0.000703416
0.000683999
0.000668083
0.000654959
0.000643832
0.000634427
0.000626254
0.000619227
0.000612985
0.00060757
0.000602677
0.000598404
0.000594483
0.000591042
0.00058784
0.000585026
0.000582368
0.000580036
0.000577811
0.000575862
0.000573978
0.000572329
0.000570733
0.000569334
0.000567953
0.000566762
0.000565581
0.000564567
0.00056355
0.00056268
0.000561785
0.000561032
0.000560253
0.000559602
0.000558926
0.000558365
0.000557771
0.000557282
0.000556758
0.000556341
0.000555877
0.000555523
0.000555125
0.000554815
0.00055447
0.000554217
0.000553911
0.000553687
0.000553434
0.000553255
0.000553034
0.000552881
0.000552714
0.000552579
0.000552421
0.000552341
0.000552198
0.000552091
0.000552004
0.000551948
0.000551817
0.000551797
0.000551753
0.000551837
0.000551872
0.000552019
0.000552085
0.00055225
0.000552316
0.000552489
0.000552583
0.000552798
0.000552923
0.000553201
0.000553363
0.000553704
0.000553894
0.000554291
0.000554515
0.000554988
0.00055526
0.000555838
0.000556166
0.000556892
0.000557254
0.00055839
0.000558593
0.000565195
0.0108615
0.011485
0.00102373
0.000928772
0.000854978
0.000799959
0.000758838
0.000727608
0.000703161
0.000683703
0.000667752
0.000654598
0.000643445
0.000634018
0.000625824
0.00061878
0.000612524
0.000607095
0.00060219
0.000597906
0.000593974
0.000590524
0.000587315
0.000584494
0.000581828
0.00057949
0.000577259
0.000575306
0.000573417
0.000571763
0.000570163
0.000568759
0.000567375
0.000566181
0.000564997
0.000563979
0.000562959
0.000562086
0.000561189
0.000560434
0.000559652
0.000558999
0.000558321
0.000557758
0.000557162
0.000556672
0.000556146
0.000555728
0.000555262
0.000554907
0.000554507
0.000554196
0.00055385
0.000553596
0.000553289
0.000553064
0.00055281
0.00055263
0.000552408
0.000552254
0.000552086
0.000551951
0.000551792
0.000551711
0.000551568
0.00055146
0.000551372
0.000551316
0.000551185
0.000551165
0.000551118
0.000551201
0.000551234
0.00055138
0.000551446
0.000551609
0.000551675
0.000551847
0.000551941
0.000552155
0.000552278
0.000552555
0.000552717
0.000553057
0.000553246
0.000553641
0.000553865
0.000554336
0.000554607
0.000555183
0.000555509
0.000556234
0.000556594
0.000557728
0.000557924
0.000564632
0.0109876
0.0116337
0.00102374
0.000928786
0.000854948
0.000799862
0.000758671
0.000727377
0.000702876
0.00068337
0.000667379
0.000654192
0.000643009
0.000633557
0.000625341
0.000618278
0.000612004
0.00060656
0.000601641
0.000597345
0.000593402
0.000589942
0.000586723
0.000583894
0.000581221
0.000578876
0.000576638
0.000574679
0.000572784
0.000571125
0.00056952
0.000568112
0.000566723
0.000565526
0.000564338
0.000563317
0.000562294
0.000561418
0.000560517
0.00055976
0.000558975
0.00055832
0.000557639
0.000557075
0.000556476
0.000555984
0.000555456
0.000555037
0.00055457
0.000554213
0.000553811
0.000553499
0.000553152
0.000552896
0.000552588
0.000552361
0.000552107
0.000551926
0.000551703
0.000551547
0.000551379
0.000551243
0.000551083
0.000551001
0.000550858
0.00055075
0.00055066
0.000550604
0.000550473
0.000550451
0.000550402
0.000550484
0.000550515
0.00055066
0.000550725
0.000550887
0.000550952
0.000551124
0.000551216
0.00055143
0.000551552
0.000551828
0.000551989
0.000552327
0.000552515
0.000552908
0.000553131
0.0005536
0.00055387
0.000554444
0.000554769
0.000555491
0.000555849
0.000556982
0.000557171
0.000563997
0.0111308
0.0118029
0.00102375
0.0009288
0.000854915
0.000799755
0.000758486
0.000727121
0.000702559
0.000683001
0.000666966
0.00065374
0.000642525
0.000633044
0.000624804
0.000617719
0.000611425
0.000605964
0.00060103
0.00059672
0.000592765
0.000589294
0.000586064
0.000583226
0.000580544
0.000578191
0.000575946
0.00057398
0.000572079
0.000570414
0.000568804
0.000567391
0.000565998
0.000564796
0.000563603
0.000562579
0.000561552
0.000560673
0.000559769
0.000559008
0.000558221
0.000557563
0.00055688
0.000556313
0.000555712
0.000555218
0.000554688
0.000554266
0.000553797
0.000553439
0.000553036
0.000552722
0.000552373
0.000552116
0.000551806
0.000551579
0.000551323
0.000551141
0.000550916
0.00055076
0.00055059
0.000550454
0.000550293
0.00055021
0.000550066
0.000549957
0.000549867
0.00054981
0.000549679
0.000549656
0.000549605
0.000549685
0.000549714
0.000549858
0.000549921
0.000550083
0.000550147
0.000550317
0.000550409
0.000550621
0.000550743
0.000551016
0.000551177
0.000551513
0.0005517
0.000552092
0.000552314
0.000552781
0.00055305
0.000553621
0.000553944
0.000554663
0.00055502
0.00055615
0.000556331
0.000563292
0.011291
0.0119932
0.00102377
0.000928817
0.00085488
0.000799638
0.000758283
0.00072684
0.00070221
0.000682595
0.00066651
0.000653243
0.000641992
0.000632479
0.000624211
0.000617102
0.000610788
0.000605307
0.000600356
0.000596031
0.000592062
0.000588578
0.000585337
0.000582489
0.000579797
0.000577436
0.000575183
0.000573209
0.000571301
0.00056963
0.000568014
0.000566596
0.000565197
0.00056399
0.000562793
0.000561764
0.000560733
0.00055985
0.000558943
0.000558179
0.000557389
0.000556727
0.000556041
0.000555472
0.000554868
0.000554372
0.00055384
0.000553416
0.000552945
0.000552585
0.000552179
0.000551864
0.000551513
0.000551255
0.000550943
0.000550715
0.000550457
0.000550274
0.000550048
0.000549891
0.000549719
0.000549583
0.00054942
0.000549336
0.000549192
0.000549083
0.00054899
0.000548933
0.000548802
0.000548778
0.000548724
0.000548802
0.000548829
0.000548971
0.000549033
0.000549194
0.000549257
0.000549426
0.000549518
0.000549728
0.000549849
0.00055012
0.00055028
0.000550614
0.0005508
0.00055119
0.000551411
0.000551875
0.000552143
0.000552711
0.000553033
0.000553749
0.000554103
0.000555231
0.000555404
0.000562514
0.0114683
0.0122052
0.00102378
0.000928835
0.000854842
0.000799512
0.000758063
0.000726534
0.00070183
0.000682151
0.000666013
0.000652699
0.000641409
0.000631862
0.000623564
0.000616428
0.00061009
0.000604589
0.000599619
0.000595277
0.000591293
0.000587795
0.000584542
0.000581682
0.00057898
0.000576609
0.000574347
0.000572365
0.00057045
0.000568771
0.000567149
0.000565724
0.00056432
0.000563108
0.000561905
0.000560872
0.000559836
0.000558949
0.000558038
0.00055727
0.000556476
0.000555812
0.000555122
0.00055455
0.000553944
0.000553445
0.00055291
0.000552484
0.000552011
0.000551649
0.000551241
0.000550924
0.000550571
0.000550311
0.000549998
0.000549768
0.000549508
0.000549324
0.000549097
0.000548938
0.000548765
0.000548627
0.000548463
0.000548379
0.000548234
0.000548124
0.00054803
0.000547972
0.000547841
0.000547816
0.000547758
0.000547835
0.000547859
0.000548
0.000548061
0.00054822
0.000548282
0.00054845
0.00054854
0.000548749
0.000548869
0.000549139
0.000549297
0.000549629
0.000549814
0.000550202
0.000550421
0.000550883
0.000551149
0.000551715
0.000552035
0.000552747
0.000553099
0.000554224
0.000554387
0.000561663
0.0116622
0.0124395
0.00102379
0.000928855
0.000854802
0.000799375
0.000757825
0.000726204
0.000701419
0.000681671
0.000665474
0.00065211
0.000640776
0.000631191
0.00062286
0.000615696
0.000609332
0.000603808
0.000598817
0.000594457
0.000590456
0.000586944
0.000583677
0.000580804
0.000578091
0.00057571
0.000573438
0.000571447
0.000569523
0.000567837
0.000566207
0.000564776
0.000563365
0.000562147
0.000560939
0.000559901
0.00055886
0.000557969
0.000557053
0.000556281
0.000555483
0.000554816
0.000554122
0.000553547
0.000552938
0.000552436
0.000551898
0.00055147
0.000550994
0.000550629
0.000550219
0.0005499
0.000549545
0.000549284
0.000548968
0.000548737
0.000548475
0.000548289
0.000548061
0.0005479
0.000547726
0.000547588
0.000547422
0.000547336
0.00054719
0.00054708
0.000546984
0.000546926
0.000546795
0.000546768
0.000546707
0.000546781
0.000546803
0.000546942
0.000547001
0.00054716
0.00054722
0.000547387
0.000547476
0.000547683
0.000547802
0.000548069
0.000548226
0.000548556
0.00054874
0.000549126
0.000549344
0.000549803
0.000550068
0.000550629
0.000550948
0.000551656
0.000552005
0.000553128
0.000553281
0.000560737
0.0118722
0.0126966
0.00102381
0.000928877
0.00085476
0.00079923
0.00075757
0.000725848
0.000700976
0.000681153
0.000664893
0.000651474
0.000640092
0.000630467
0.0006221
0.000614904
0.000608513
0.000602964
0.000597951
0.000593571
0.000589552
0.000586023
0.000582741
0.000579855
0.000577129
0.000574737
0.000572454
0.000570454
0.000568521
0.000566826
0.000565188
0.00056375
0.000562332
0.000561108
0.000559894
0.00055885
0.000557803
0.000556907
0.000555987
0.000555211
0.000554409
0.000553737
0.00055304
0.000552462
0.000551849
0.000551344
0.000550803
0.000550372
0.000549893
0.000549526
0.000549114
0.000548792
0.000548435
0.000548171
0.000547854
0.000547621
0.000547357
0.00054717
0.000546939
0.000546777
0.000546601
0.000546462
0.000546294
0.000546208
0.000546061
0.00054595
0.000545852
0.000545794
0.000545662
0.000545634
0.000545569
0.000545641
0.00054566
0.000545797
0.000545855
0.000546011
0.000546071
0.000546236
0.000546324
0.00054653
0.000546647
0.000546912
0.000547067
0.000547395
0.000547578
0.00054796
0.000548177
0.000548633
0.000548896
0.000549454
0.000549771
0.000550475
0.000550821
0.00055194
0.000552083
0.000559735
0.0120973
0.0129769
0.00102382
0.000928901
0.000854716
0.000799076
0.000757299
0.000725469
0.000700502
0.000680599
0.000664269
0.000650791
0.000639359
0.000629689
0.000621284
0.000614054
0.000607632
0.000602056
0.00059702
0.000592618
0.000588579
0.000585033
0.000581734
0.000578834
0.000576094
0.000573689
0.000571395
0.000569384
0.000567441
0.000565738
0.000564091
0.000562646
0.00056122
0.000559989
0.000558768
0.000557718
0.000556666
0.000555765
0.000554839
0.000554059
0.000553252
0.000552576
0.000551875
0.000551293
0.000550676
0.000550168
0.000549623
0.00054919
0.000548708
0.000548338
0.000547923
0.000547599
0.000547239
0.000546973
0.000546654
0.000546418
0.000546152
0.000545963
0.000545731
0.000545568
0.00054539
0.000545249
0.00054508
0.000544992
0.000544844
0.000544732
0.000544632
0.000544573
0.000544441
0.000544411
0.000544343
0.000544412
0.000544429
0.000544564
0.000544619
0.000544774
0.000544832
0.000544996
0.000545083
0.000545286
0.000545402
0.000545664
0.000545819
0.000546143
0.000546325
0.000546705
0.00054692
0.000547373
0.000547634
0.000548188
0.000548502
0.000549202
0.000549545
0.000550661
0.000550793
0.000558656
0.0123361
0.0132807
0.00102384
0.000928927
0.00085467
0.000798913
0.00075701
0.000725064
0.000699997
0.000680007
0.000663603
0.000650062
0.000638575
0.000628857
0.00062041
0.000613144
0.000606689
0.000601085
0.000596022
0.000591597
0.000587537
0.000583972
0.000580656
0.000577739
0.000574985
0.000572567
0.000570261
0.000568238
0.000566285
0.000564572
0.000562916
0.000561462
0.000560028
0.00055879
0.000557562
0.000556505
0.000555446
0.00055454
0.000553608
0.000552823
0.000552011
0.000551331
0.000550625
0.000550039
0.000549418
0.000548907
0.000548358
0.000547922
0.000547436
0.000547064
0.000546645
0.000546319
0.000545956
0.000545688
0.000545367
0.000545129
0.00054486
0.00054467
0.000544435
0.00054427
0.00054409
0.000543948
0.000543777
0.000543687
0.000543539
0.000543426
0.000543324
0.000543265
0.000543132
0.0005431
0.000543029
0.000543095
0.000543108
0.00054324
0.000543294
0.000543447
0.000543504
0.000543666
0.000543751
0.000543953
0.000544067
0.000544326
0.000544479
0.000544801
0.000544981
0.000545358
0.000545572
0.000546021
0.00054628
0.00054683
0.000547142
0.000547837
0.000548176
0.000549289
0.000549409
0.000557498
0.012587
0.013608
0.00102386
0.000928955
0.000854623
0.000798741
0.000756705
0.000724636
0.00069946
0.000679378
0.000662895
0.000649286
0.00063774
0.000627971
0.000619479
0.000612174
0.000605685
0.000600049
0.000594958
0.000590508
0.000586426
0.00058284
0.000579505
0.000576572
0.000573802
0.00057137
0.00056905
0.000567015
0.00056505
0.000563327
0.000561661
0.000560198
0.000558756
0.000557509
0.000556273
0.00055521
0.000554144
0.000553231
0.000552294
0.000551503
0.000550686
0.000550001
0.00054929
0.0005487
0.000548074
0.00054756
0.000547007
0.000546567
0.000546078
0.000545703
0.000545281
0.000544952
0.000544586
0.000544316
0.000543991
0.000543751
0.00054348
0.000543287
0.000543051
0.000542884
0.000542701
0.000542559
0.000542385
0.000542294
0.000542144
0.00054203
0.000541926
0.000541866
0.000541733
0.000541699
0.000541624
0.000541686
0.000541697
0.000541827
0.000541878
0.000542029
0.000542084
0.000542245
0.000542328
0.000542527
0.00054264
0.000542897
0.000543048
0.000543366
0.000543545
0.000543918
0.00054413
0.000544576
0.000544833
0.000545378
0.000545688
0.000546378
0.000546714
0.000547822
0.00054793
0.00055626
0.0128477
0.013959
0.00102388
0.000928985
0.000854575
0.000798562
0.000756384
0.000724184
0.000698893
0.000678712
0.000662145
0.000648463
0.000636854
0.000627031
0.000618491
0.000611144
0.000604617
0.000598948
0.000593828
0.000589351
0.000585244
0.000581637
0.000578282
0.00057533
0.000572544
0.000570096
0.000567761
0.000565714
0.000563737
0.000562002
0.000560325
0.000558853
0.000557401
0.000556147
0.000554902
0.000553831
0.000552758
0.000551839
0.000550895
0.000550099
0.000549275
0.000548586
0.000547869
0.000547275
0.000546644
0.000546126
0.000545569
0.000545125
0.000544632
0.000544253
0.000543828
0.000543497
0.000543127
0.000542854
0.000542527
0.000542285
0.000542011
0.000541816
0.000541577
0.000541408
0.000541222
0.000541079
0.000540903
0.00054081
0.000540659
0.000540544
0.000540437
0.000540376
0.000540243
0.000540207
0.000540128
0.000540186
0.000540194
0.000540321
0.00054037
0.000540519
0.000540572
0.000540731
0.000540813
0.000541009
0.000541121
0.000541374
0.000541523
0.000541838
0.000542015
0.000542385
0.000542596
0.000543037
0.000543292
0.000543832
0.000544139
0.000544824
0.000545156
0.00054626
0.000546355
0.000554939
0.0131156
0.0143331
0.0010239
0.000929018
0.000854525
0.000798375
0.000756048
0.000723708
0.000698295
0.000678009
0.000661352
0.000647593
0.000635917
0.000626036
0.000617445
0.000610053
0.000603487
0.000597783
0.00059263
0.000588125
0.000583992
0.000580361
0.000576985
0.000574014
0.000571209
0.000568745
0.000566396
0.000564334
0.000562344
0.000560598
0.000558909
0.000557426
0.000555965
0.000554701
0.000553448
0.000552369
0.000551288
0.000550362
0.000549411
0.000548608
0.000547779
0.000547084
0.000546361
0.000545762
0.000545127
0.000544604
0.000544042
0.000543595
0.000543098
0.000542716
0.000542286
0.000541952
0.000541578
0.000541303
0.000540973
0.000540728
0.000540451
0.000540254
0.000540012
0.000539841
0.000539653
0.000539508
0.000539329
0.000539235
0.000539082
0.000538966
0.000538857
0.000538795
0.000538661
0.000538624
0.00053854
0.000538594
0.000538599
0.000538723
0.000538769
0.000538916
0.000538967
0.000539124
0.000539204
0.000539398
0.000539508
0.000539757
0.000539905
0.000540216
0.000540391
0.000540758
0.000540966
0.000541403
0.000541655
0.000542191
0.000542495
0.000543175
0.000543502
0.000544601
0.000544684
0.000553534
0.0133876
0.0147299
0.00102392
0.000929052
0.000854475
0.00079818
0.000755696
0.000723209
0.000697668
0.000677271
0.000660518
0.000646676
0.00063493
0.000624987
0.000616342
0.000608902
0.000602293
0.000596552
0.000591365
0.000586829
0.000582669
0.000579013
0.000575614
0.000572623
0.000569799
0.000567317
0.000564951
0.000562875
0.000560871
0.000559112
0.000557411
0.000555918
0.000554446
0.000553172
0.000551909
0.000550822
0.000549732
0.000548799
0.000547841
0.000547032
0.000546195
0.000545494
0.000544766
0.000544162
0.000543521
0.000542994
0.000542427
0.000541976
0.000541474
0.000541088
0.000540655
0.000540317
0.00053994
0.000539661
0.000539328
0.00053908
0.0005388
0.0005386
0.000538356
0.000538182
0.000537992
0.000537845
0.000537664
0.000537567
0.000537413
0.000537296
0.000537184
0.000537121
0.000536986
0.000536947
0.00053686
0.000536909
0.000536911
0.000537031
0.000537074
0.000537219
0.000537268
0.000537422
0.000537501
0.000537692
0.0005378
0.000538046
0.000538191
0.000538499
0.000538672
0.000539035
0.000539241
0.000539673
0.000539923
0.000540453
0.000540754
0.000541428
0.000541751
0.000542845
0.000542915
0.000552043
0.0136599
0.0151482
0.00102394
0.000929089
0.000854425
0.000797979
0.000755329
0.000722688
0.00069701
0.000676496
0.000659642
0.000645714
0.000633892
0.000623884
0.000615181
0.000607691
0.000601037
0.000595255
0.000590033
0.000585465
0.000581275
0.000577593
0.000574169
0.000571156
0.000568312
0.000565812
0.000563429
0.000561337
0.000559318
0.000557545
0.000555831
0.000554326
0.000552843
0.000551559
0.000550286
0.00054919
0.000548091
0.00054715
0.000546184
0.000545368
0.000544525
0.000543817
0.000543082
0.000542473
0.000541826
0.000541294
0.000540722
0.000540267
0.00053976
0.00053937
0.000538933
0.000538591
0.00053821
0.000537928
0.000537591
0.000537341
0.000537057
0.000536855
0.000536608
0.000536431
0.000536238
0.000536089
0.000535906
0.000535807
0.000535651
0.000535533
0.000535418
0.000535354
0.000535218
0.000535177
0.000535085
0.000535129
0.000535128
0.000535245
0.000535285
0.000535427
0.000535474
0.000535626
0.000535702
0.000535891
0.000535996
0.000536238
0.000536382
0.000536686
0.000536857
0.000537215
0.000537419
0.000537847
0.000538094
0.000538618
0.000538916
0.000539584
0.000539902
0.00054099
0.000541047
0.000550463
0.0139283
0.0155867
0.00102396
0.000929129
0.000854374
0.000797771
0.000754949
0.000722145
0.000696324
0.000675685
0.000658725
0.000644705
0.000632803
0.000622726
0.000613962
0.000606419
0.000599717
0.000593893
0.000588633
0.00058403
0.00057981
0.0005761
0.00057265
0.000569614
0.000566748
0.000564229
0.000561827
0.000559718
0.000557684
0.000555897
0.000554169
0.000552652
0.000551156
0.000549861
0.000548578
0.000547472
0.000546363
0.000545414
0.00054444
0.000543616
0.000542766
0.000542052
0.00054131
0.000540694
0.000540042
0.000539505
0.000538927
0.000538467
0.000537956
0.000537561
0.000537119
0.000536774
0.000536388
0.000536103
0.000535762
0.000535509
0.000535221
0.000535017
0.000534766
0.000534587
0.00053439
0.00053424
0.000534054
0.000533953
0.000533795
0.000533676
0.000533558
0.000533493
0.000533355
0.000533312
0.000533217
0.000533255
0.000533251
0.000533363
0.0005334
0.000533539
0.000533584
0.000533734
0.000533808
0.000533993
0.000534096
0.000534335
0.000534476
0.000534775
0.000534944
0.000535298
0.000535499
0.000535923
0.000536167
0.000536685
0.000536979
0.000537641
0.000537955
0.000539036
0.00053908
0.000548791
0.0141881
0.0160432
0.00102398
0.000929171
0.000854324
0.000797558
0.000754554
0.00072158
0.000695608
0.000674839
0.000657767
0.00064365
0.000631665
0.000621514
0.000612686
0.000605086
0.000598335
0.000592466
0.000587165
0.000582527
0.000578273
0.000574533
0.000571057
0.000567995
0.000565107
0.000562567
0.000560146
0.000558019
0.000555968
0.000554166
0.000552423
0.000550893
0.000549385
0.000548079
0.000546784
0.000545668
0.000544549
0.000543591
0.000542608
0.000541777
0.000540918
0.000540197
0.000539448
0.000538826
0.000538167
0.000537625
0.000537041
0.000536576
0.00053606
0.000535661
0.000535214
0.000534865
0.000534474
0.000534185
0.000533841
0.000533585
0.000533293
0.000533085
0.000532831
0.00053265
0.000532449
0.000532297
0.000532107
0.000532004
0.000531845
0.000531724
0.000531602
0.000531536
0.000531398
0.000531352
0.000531253
0.000531285
0.000531278
0.000531386
0.000531419
0.000531555
0.000531598
0.000531744
0.000531816
0.000531998
0.000532099
0.000532333
0.000532472
0.000532767
0.000532934
0.000533283
0.000533482
0.0005339
0.000534141
0.000534653
0.000534944
0.000535598
0.000535907
0.000536982
0.000537013
0.000547025
0.014434
0.0165151
0.001024
0.000929215
0.000854274
0.000797339
0.000754147
0.000720995
0.000694865
0.000673959
0.000656768
0.00064255
0.000630476
0.000620249
0.000611353
0.000603693
0.000596889
0.000590973
0.000585629
0.000580953
0.000576665
0.000572894
0.000569388
0.000566301
0.000563389
0.000560826
0.000558385
0.00055624
0.000554171
0.000552353
0.000550595
0.000549051
0.000547529
0.000546211
0.000544904
0.000543777
0.000542648
0.00054168
0.000540688
0.000539848
0.000538981
0.000538253
0.000537496
0.000536868
0.000536202
0.000535654
0.000535064
0.000534594
0.000534072
0.000533668
0.000533216
0.000532863
0.000532467
0.000532175
0.000531826
0.000531566
0.00053127
0.000531059
0.000530802
0.000530617
0.000530413
0.000530259
0.000530066
0.00052996
0.000529799