/*--------------------------------*- C++ -*----------------------------------*\
| =========                 |                                                 |
| \\      /  F ield         | OpenFOAM: The Open Source CFD Toolbox           |
|  \\    /   O peration     | Version:  v2012                                 |
|   \\  /    A nd           | Website:  www.openfoam.com                      |
|    \\/     M anipulation  |                                                 |
\*---------------------------------------------------------------------------*/
FoamFile
{
    version     2.0;
    format      ascii;
    class       volScalarField;
    location    "27.5";
    object      nut;
}
// * * * * * * * * * * * * * * * * * * * * * * * * * * * * * * * * * * * * * //

dimensions      [0 2 -1 0 0 0 0];


internalField   nonuniform List<scalar> 
209825
(
1.24945e-07
1.19565e-07
1.11506e-07
1.03819e-07
9.74042e-08
9.22523e-08
8.80803e-08
8.46872e-08
8.18611e-08
7.95051e-08
7.74898e-08
7.57755e-08
7.4278e-08
7.29864e-08
7.18346e-08
7.0833e-08
6.9926e-08
6.91328e-08
6.8404e-08
6.77636e-08
6.71674e-08
6.66433e-08
6.61473e-08
6.57117e-08
6.5296e-08
6.49317e-08
6.45792e-08
6.42694e-08
6.39707e-08
6.37082e-08
6.34486e-08
6.32236e-08
6.3001e-08
6.28093e-08
6.26174e-08
6.2451e-08
6.22816e-08
6.21384e-08
6.19898e-08
6.18646e-08
6.17345e-08
6.16244e-08
6.15104e-08
6.14158e-08
6.1313e-08
6.12295e-08
6.11405e-08
6.10709e-08
6.09897e-08
6.09276e-08
6.0866e-08
6.08102e-08
6.07442e-08
6.0697e-08
6.06421e-08
6.06047e-08
6.05491e-08
6.05017e-08
6.04615e-08
6.04129e-08
6.03752e-08
6.03581e-08
6.03166e-08
6.02822e-08
6.02461e-08
6.02129e-08
6.0169e-08
6.01523e-08
6.01248e-08
6.01228e-08
6.01122e-08
6.01184e-08
6.01108e-08
6.01197e-08
6.01114e-08
6.01182e-08
6.01161e-08
6.01233e-08
6.01255e-08
6.01393e-08
6.01459e-08
6.01648e-08
6.01744e-08
6.01953e-08
6.02074e-08
6.02331e-08
6.02478e-08
6.02799e-08
6.02966e-08
6.03344e-08
6.03492e-08
6.03963e-08
6.03927e-08
6.08585e-08
3.3161e-06
1.99763e-08
1.24945e-07
1.19566e-07
1.11508e-07
1.03821e-07
9.74063e-08
9.22543e-08
8.80821e-08
8.46888e-08
8.18625e-08
7.95063e-08
7.74908e-08
7.57763e-08
7.42787e-08
7.29869e-08
7.1835e-08
7.08333e-08
6.99262e-08
6.9133e-08
6.8404e-08
6.77636e-08
6.71673e-08
6.66431e-08
6.61471e-08
6.57114e-08
6.52956e-08
6.49313e-08
6.45788e-08
6.42689e-08
6.39702e-08
6.37076e-08
6.3448e-08
6.32229e-08
6.30003e-08
6.28086e-08
6.26167e-08
6.24502e-08
6.22808e-08
6.21376e-08
6.19891e-08
6.18638e-08
6.17337e-08
6.16236e-08
6.15096e-08
6.14149e-08
6.13121e-08
6.12286e-08
6.11396e-08
6.107e-08
6.09888e-08
6.09266e-08
6.0865e-08
6.08092e-08
6.07432e-08
6.0696e-08
6.06411e-08
6.06037e-08
6.05481e-08
6.05006e-08
6.04604e-08
6.04118e-08
6.03741e-08
6.03571e-08
6.03156e-08
6.02812e-08
6.0245e-08
6.02118e-08
6.01679e-08
6.01512e-08
6.01237e-08
6.01217e-08
6.01111e-08
6.01173e-08
6.01096e-08
6.01186e-08
6.01103e-08
6.0117e-08
6.01149e-08
6.01222e-08
6.01243e-08
6.01381e-08
6.01447e-08
6.01636e-08
6.01732e-08
6.01941e-08
6.02062e-08
6.02319e-08
6.02466e-08
6.02787e-08
6.02953e-08
6.03332e-08
6.03479e-08
6.03951e-08
6.03914e-08
6.08578e-08
3.31692e-06
2.01445e-08
1.24945e-07
1.1957e-07
1.11516e-07
1.0383e-07
9.7415e-08
9.22623e-08
8.80892e-08
8.4695e-08
8.18678e-08
7.95107e-08
7.74945e-08
7.57794e-08
7.42812e-08
7.29889e-08
7.18365e-08
7.08344e-08
6.99269e-08
6.91333e-08
6.8404e-08
6.77633e-08
6.71668e-08
6.66423e-08
6.61461e-08
6.57101e-08
6.52942e-08
6.49297e-08
6.45771e-08
6.4267e-08
6.39681e-08
6.37054e-08
6.34457e-08
6.32205e-08
6.29978e-08
6.2806e-08
6.2614e-08
6.24474e-08
6.22779e-08
6.21346e-08
6.1986e-08
6.18607e-08
6.17305e-08
6.16203e-08
6.15062e-08
6.14116e-08
6.13087e-08
6.12251e-08
6.11361e-08
6.10664e-08
6.09851e-08
6.09229e-08
6.08613e-08
6.08055e-08
6.07394e-08
6.06922e-08
6.06372e-08
6.05998e-08
6.05442e-08
6.04967e-08
6.04565e-08
6.04079e-08
6.03701e-08
6.0353e-08
6.03115e-08
6.02771e-08
6.02409e-08
6.02077e-08
6.01638e-08
6.0147e-08
6.01195e-08
6.01175e-08
6.01068e-08
6.01129e-08
6.01053e-08
6.01142e-08
6.01059e-08
6.01126e-08
6.01105e-08
6.01177e-08
6.01199e-08
6.01336e-08
6.01402e-08
6.01591e-08
6.01686e-08
6.01896e-08
6.02016e-08
6.02273e-08
6.02419e-08
6.0274e-08
6.02906e-08
6.03284e-08
6.03432e-08
6.03904e-08
6.03866e-08
6.08543e-08
3.31919e-06
2.03903e-08
1.24945e-07
1.19578e-07
1.11529e-07
1.03845e-07
9.74298e-08
9.22757e-08
8.81011e-08
8.47053e-08
8.18766e-08
7.95183e-08
7.75008e-08
7.57846e-08
7.42854e-08
7.29922e-08
7.18391e-08
7.08362e-08
6.99281e-08
6.91339e-08
6.84041e-08
6.77629e-08
6.71659e-08
6.6641e-08
6.61444e-08
6.57082e-08
6.52919e-08
6.49271e-08
6.45742e-08
6.42639e-08
6.39647e-08
6.37018e-08
6.34419e-08
6.32165e-08
6.29936e-08
6.28017e-08
6.26095e-08
6.24428e-08
6.22731e-08
6.21297e-08
6.19809e-08
6.18555e-08
6.17252e-08
6.16149e-08
6.15007e-08
6.1406e-08
6.1303e-08
6.12193e-08
6.11302e-08
6.10604e-08
6.09791e-08
6.09168e-08
6.08551e-08
6.07993e-08
6.07331e-08
6.06859e-08
6.06308e-08
6.05934e-08
6.05377e-08
6.04902e-08
6.04499e-08
6.04013e-08
6.03635e-08
6.03464e-08
6.03048e-08
6.02704e-08
6.02341e-08
6.02009e-08
6.01571e-08
6.01402e-08
6.01126e-08
6.01105e-08
6.00997e-08
6.01058e-08
6.00981e-08
6.0107e-08
6.00986e-08
6.01053e-08
6.01032e-08
6.01103e-08
6.01125e-08
6.01261e-08
6.01327e-08
6.01515e-08
6.01611e-08
6.0182e-08
6.0194e-08
6.02196e-08
6.02342e-08
6.02662e-08
6.02829e-08
6.03206e-08
6.03353e-08
6.03825e-08
6.03786e-08
6.08484e-08
3.32288e-06
2.06886e-08
1.24945e-07
1.19588e-07
1.11548e-07
1.03866e-07
9.74506e-08
9.22948e-08
8.8118e-08
8.472e-08
8.18892e-08
7.95289e-08
7.75098e-08
7.5792e-08
7.42914e-08
7.2997e-08
7.18427e-08
7.08389e-08
6.99298e-08
6.91348e-08
6.84043e-08
6.77624e-08
6.71648e-08
6.66393e-08
6.61422e-08
6.57054e-08
6.52887e-08
6.49235e-08
6.45702e-08
6.42596e-08
6.39601e-08
6.36969e-08
6.34366e-08
6.3211e-08
6.29878e-08
6.27956e-08
6.26032e-08
6.24363e-08
6.22664e-08
6.21228e-08
6.19739e-08
6.18483e-08
6.17178e-08
6.16074e-08
6.1493e-08
6.13982e-08
6.1295e-08
6.12113e-08
6.1122e-08
6.10521e-08
6.09707e-08
6.09083e-08
6.08465e-08
6.07906e-08
6.07244e-08
6.0677e-08
6.06219e-08
6.05844e-08
6.05287e-08
6.04811e-08
6.04408e-08
6.03921e-08
6.03542e-08
6.0337e-08
6.02955e-08
6.0261e-08
6.02247e-08
6.01915e-08
6.01476e-08
6.01306e-08
6.01028e-08
6.01006e-08
6.00897e-08
6.00958e-08
6.0088e-08
6.00968e-08
6.00884e-08
6.00951e-08
6.0093e-08
6.01e-08
6.01021e-08
6.01157e-08
6.01223e-08
6.0141e-08
6.01505e-08
6.01713e-08
6.01833e-08
6.02089e-08
6.02234e-08
6.02554e-08
6.0272e-08
6.03096e-08
6.03243e-08
6.03714e-08
6.03674e-08
6.084e-08
3.32801e-06
2.10304e-08
1.24945e-07
1.19602e-07
1.11572e-07
1.03894e-07
9.74777e-08
9.23196e-08
8.81399e-08
8.47391e-08
8.19056e-08
7.95429e-08
7.75215e-08
7.58017e-08
7.42993e-08
7.30033e-08
7.18476e-08
7.08424e-08
6.99322e-08
6.91361e-08
6.84046e-08
6.77618e-08
6.71634e-08
6.66372e-08
6.61393e-08
6.5702e-08
6.52847e-08
6.49189e-08
6.45651e-08
6.4254e-08
6.39541e-08
6.36905e-08
6.34298e-08
6.32039e-08
6.29804e-08
6.27878e-08
6.25951e-08
6.24279e-08
6.22578e-08
6.2114e-08
6.19648e-08
6.1839e-08
6.17083e-08
6.15977e-08
6.14831e-08
6.13881e-08
6.12848e-08
6.12009e-08
6.11114e-08
6.10415e-08
6.09599e-08
6.08974e-08
6.08353e-08
6.07794e-08
6.0713e-08
6.06656e-08
6.06104e-08
6.05729e-08
6.0517e-08
6.04694e-08
6.0429e-08
6.03803e-08
6.03423e-08
6.0325e-08
6.02834e-08
6.02489e-08
6.02125e-08
6.01792e-08
6.01353e-08
6.01182e-08
6.00902e-08
6.00879e-08
6.00769e-08
6.00828e-08
6.0075e-08
6.00837e-08
6.00753e-08
6.00818e-08
6.00797e-08
6.00867e-08
6.00888e-08
6.01022e-08
6.01088e-08
6.01274e-08
6.01368e-08
6.01576e-08
6.01696e-08
6.0195e-08
6.02095e-08
6.02413e-08
6.02579e-08
6.02955e-08
6.03101e-08
6.03572e-08
6.03529e-08
6.08292e-08
3.33465e-06
2.14127e-08
1.24945e-07
1.19619e-07
1.11602e-07
1.03928e-07
9.75112e-08
9.23502e-08
8.81671e-08
8.47627e-08
8.19259e-08
7.95601e-08
7.7536e-08
7.58138e-08
7.43092e-08
7.30112e-08
7.18536e-08
7.08469e-08
6.99352e-08
6.91377e-08
6.8405e-08
6.77611e-08
6.71617e-08
6.66346e-08
6.61359e-08
6.56978e-08
6.52797e-08
6.49133e-08
6.45589e-08
6.42472e-08
6.39467e-08
6.36827e-08
6.34216e-08
6.31951e-08
6.29712e-08
6.27783e-08
6.25852e-08
6.24177e-08
6.22473e-08
6.21031e-08
6.19536e-08
6.18276e-08
6.16966e-08
6.15858e-08
6.1471e-08
6.13757e-08
6.12722e-08
6.11881e-08
6.10985e-08
6.10283e-08
6.09466e-08
6.08839e-08
6.08217e-08
6.07656e-08
6.06991e-08
6.06516e-08
6.05962e-08
6.05586e-08
6.05026e-08
6.04549e-08
6.04145e-08
6.03658e-08
6.03276e-08
6.03102e-08
6.02685e-08
6.02339e-08
6.01975e-08
6.01642e-08
6.01203e-08
6.0103e-08
6.00747e-08
6.00723e-08
6.0061e-08
6.00669e-08
6.0059e-08
6.00676e-08
6.00592e-08
6.00656e-08
6.00634e-08
6.00703e-08
6.00723e-08
6.00857e-08
6.00921e-08
6.01106e-08
6.01201e-08
6.01407e-08
6.01526e-08
6.01779e-08
6.01924e-08
6.02241e-08
6.02406e-08
6.0278e-08
6.02926e-08
6.03396e-08
6.03351e-08
6.0816e-08
3.3428e-06
2.18366e-08
1.24945e-07
1.1964e-07
1.11637e-07
1.03969e-07
9.75511e-08
9.23868e-08
8.81995e-08
8.4791e-08
8.19503e-08
7.95808e-08
7.75534e-08
7.58283e-08
7.4321e-08
7.30207e-08
7.1861e-08
7.08523e-08
6.99388e-08
6.91398e-08
6.84056e-08
6.77604e-08
6.71598e-08
6.66316e-08
6.61319e-08
6.56928e-08
6.52739e-08
6.49067e-08
6.45515e-08
6.42392e-08
6.3938e-08
6.36734e-08
6.34117e-08
6.31848e-08
6.29603e-08
6.2767e-08
6.25734e-08
6.24056e-08
6.22347e-08
6.20902e-08
6.19404e-08
6.1814e-08
6.16827e-08
6.15716e-08
6.14565e-08
6.13611e-08
6.12573e-08
6.11729e-08
6.1083e-08
6.10127e-08
6.09307e-08
6.08679e-08
6.08054e-08
6.07493e-08
6.06825e-08
6.06349e-08
6.05794e-08
6.05417e-08
6.04855e-08
6.04378e-08
6.03972e-08
6.03484e-08
6.03101e-08
6.02926e-08
6.02508e-08
6.02162e-08
6.01796e-08
6.01463e-08
6.01024e-08
6.00849e-08
6.00563e-08
6.00537e-08
6.00422e-08
6.0048e-08
6.004e-08
6.00485e-08
6.00399e-08
6.00462e-08
6.0044e-08
6.00508e-08
6.00528e-08
6.00659e-08
6.00723e-08
6.00907e-08
6.01e-08
6.01205e-08
6.01324e-08
6.01576e-08
6.01719e-08
6.02035e-08
6.02199e-08
6.02573e-08
6.02717e-08
6.03187e-08
6.03139e-08
6.08002e-08
3.35251e-06
2.2306e-08
1.24946e-07
1.19663e-07
1.11679e-07
1.04016e-07
9.75976e-08
9.24295e-08
8.82374e-08
8.4824e-08
8.19787e-08
7.96051e-08
7.75738e-08
7.58453e-08
7.43349e-08
7.30318e-08
7.18696e-08
7.08586e-08
6.99431e-08
6.91423e-08
6.84064e-08
6.77597e-08
6.71576e-08
6.66282e-08
6.61273e-08
6.56871e-08
6.52672e-08
6.48991e-08
6.4543e-08
6.42299e-08
6.3928e-08
6.36626e-08
6.34003e-08
6.31728e-08
6.29477e-08
6.27539e-08
6.25598e-08
6.23914e-08
6.22201e-08
6.20752e-08
6.1925e-08
6.17982e-08
6.16666e-08
6.15552e-08
6.14397e-08
6.1344e-08
6.12399e-08
6.11553e-08
6.10651e-08
6.09945e-08
6.09123e-08
6.08493e-08
6.07865e-08
6.07302e-08
6.06633e-08
6.06154e-08
6.05597e-08
6.0522e-08
6.04657e-08
6.04178e-08
6.03771e-08
6.03283e-08
6.02897e-08
6.02721e-08
6.02302e-08
6.01955e-08
6.01588e-08
6.01255e-08
6.00815e-08
6.00638e-08
6.00349e-08
6.00321e-08
6.00203e-08
6.00259e-08
6.00178e-08
6.00262e-08
6.00176e-08
6.00237e-08
6.00215e-08
6.00281e-08
6.003e-08
6.00429e-08
6.00493e-08
6.00675e-08
6.00768e-08
6.00971e-08
6.01089e-08
6.01339e-08
6.01482e-08
6.01796e-08
6.01959e-08
6.02331e-08
6.02475e-08
6.02943e-08
6.02893e-08
6.07819e-08
3.36376e-06
2.28269e-08
1.24946e-07
1.1969e-07
1.11726e-07
1.0407e-07
9.76509e-08
9.24784e-08
8.82809e-08
8.48619e-08
8.20114e-08
7.96329e-08
7.75973e-08
7.58648e-08
7.43509e-08
7.30446e-08
7.18796e-08
7.08661e-08
6.99482e-08
6.91452e-08
6.84074e-08
6.7759e-08
6.71553e-08
6.66243e-08
6.61221e-08
6.56807e-08
6.52596e-08
6.48904e-08
6.45334e-08
6.42193e-08
6.39165e-08
6.36504e-08
6.33873e-08
6.31591e-08
6.29334e-08
6.27389e-08
6.25442e-08
6.23753e-08
6.22035e-08
6.20581e-08
6.19074e-08
6.17802e-08
6.16482e-08
6.15364e-08
6.14205e-08
6.13245e-08
6.122e-08
6.11351e-08
6.10446e-08
6.09738e-08
6.08913e-08
6.0828e-08
6.07649e-08
6.07084e-08
6.06412e-08
6.05932e-08
6.05373e-08
6.04995e-08
6.04429e-08
6.03949e-08
6.03542e-08
6.03052e-08
6.02664e-08
6.02487e-08
6.02067e-08
6.01719e-08
6.0135e-08
6.01017e-08
6.00576e-08
6.00397e-08
6.00104e-08
6.00073e-08
5.99953e-08
6.00007e-08
5.99924e-08
6.00007e-08
5.9992e-08
5.9998e-08
5.99957e-08
6.00021e-08
6.00039e-08
6.00166e-08
6.00229e-08
6.00409e-08
6.00501e-08
6.00703e-08
6.0082e-08
6.01068e-08
6.0121e-08
6.01522e-08
6.01684e-08
6.02054e-08
6.02197e-08
6.02664e-08
6.0261e-08
6.0761e-08
3.37654e-06
2.34072e-08
1.24946e-07
1.19719e-07
1.11778e-07
1.04131e-07
9.7711e-08
9.25337e-08
8.83301e-08
8.49049e-08
8.20484e-08
7.96646e-08
7.7624e-08
7.58871e-08
7.43691e-08
7.30593e-08
7.1891e-08
7.08746e-08
6.9954e-08
6.91487e-08
6.84087e-08
6.77582e-08
6.71527e-08
6.66201e-08
6.61163e-08
6.56735e-08
6.52511e-08
6.48807e-08
6.45226e-08
6.42075e-08
6.39037e-08
6.36367e-08
6.33727e-08
6.31437e-08
6.29172e-08
6.2722e-08
6.25267e-08
6.23572e-08
6.21848e-08
6.20389e-08
6.18876e-08
6.176e-08
6.16274e-08
6.15152e-08
6.13989e-08
6.13025e-08
6.11977e-08
6.11124e-08
6.10215e-08
6.09504e-08
6.08676e-08
6.08039e-08
6.07405e-08
6.06839e-08
6.06164e-08
6.05681e-08
6.0512e-08
6.04741e-08
6.04173e-08
6.03692e-08
6.03283e-08
6.02792e-08
6.02401e-08
6.02222e-08
6.01801e-08
6.01453e-08
6.01082e-08
6.00748e-08
6.00307e-08
6.00126e-08
5.99827e-08
5.99794e-08
5.9967e-08
5.99722e-08
5.99638e-08
5.99719e-08
5.99631e-08
5.99689e-08
5.99665e-08
5.99728e-08
5.99745e-08
5.9987e-08
5.99932e-08
6.00109e-08
6.00201e-08
6.00401e-08
6.00516e-08
6.00763e-08
6.00903e-08
6.01213e-08
6.01374e-08
6.01742e-08
6.01884e-08
6.0235e-08
6.02292e-08
6.07375e-08
3.3908e-06
2.40562e-08
1.24946e-07
1.19752e-07
1.11837e-07
1.04199e-07
9.77781e-08
9.25955e-08
8.83851e-08
8.4953e-08
8.209e-08
7.97e-08
7.7654e-08
7.59121e-08
7.43897e-08
7.30758e-08
7.19039e-08
7.08842e-08
6.99607e-08
6.91527e-08
6.84102e-08
6.77575e-08
6.715e-08
6.66155e-08
6.611e-08
6.56656e-08
6.52417e-08
6.487e-08
6.45106e-08
6.41943e-08
6.38894e-08
6.36214e-08
6.33565e-08
6.31266e-08
6.28993e-08
6.27033e-08
6.25071e-08
6.23371e-08
6.21639e-08
6.20174e-08
6.18655e-08
6.17374e-08
6.16043e-08
6.14916e-08
6.13748e-08
6.1278e-08
6.11727e-08
6.10871e-08
6.09958e-08
6.09243e-08
6.08411e-08
6.07772e-08
6.07133e-08
6.06565e-08
6.05887e-08
6.05401e-08
6.04838e-08
6.04458e-08
6.03887e-08
6.03404e-08
6.02994e-08
6.02503e-08
6.02108e-08
6.01927e-08
6.01504e-08
6.01155e-08
6.00783e-08
6.00448e-08
6.00007e-08
5.99822e-08
5.99519e-08
5.99483e-08
5.99355e-08
5.99405e-08
5.99319e-08
5.99398e-08
5.99309e-08
5.99365e-08
5.9934e-08
5.994e-08
5.99417e-08
5.99539e-08
5.996e-08
5.99775e-08
5.99865e-08
6.00063e-08
6.00177e-08
6.00422e-08
6.00561e-08
6.00868e-08
6.01028e-08
6.01394e-08
6.01534e-08
6.01999e-08
6.01936e-08
6.07113e-08
3.40648e-06
2.47847e-08
1.24946e-07
1.19788e-07
1.11902e-07
1.04275e-07
9.78523e-08
9.26639e-08
8.84462e-08
8.50064e-08
8.21361e-08
7.97395e-08
7.76873e-08
7.594e-08
7.44126e-08
7.30943e-08
7.19183e-08
7.08951e-08
6.99682e-08
6.91573e-08
6.8412e-08
6.77569e-08
6.71471e-08
6.66106e-08
6.61031e-08
6.5657e-08
6.52315e-08
6.48583e-08
6.44974e-08
6.41799e-08
6.38737e-08
6.36046e-08
6.33386e-08
6.31078e-08
6.28795e-08
6.26826e-08
6.24856e-08
6.23148e-08
6.21409e-08
6.19938e-08
6.18412e-08
6.17125e-08
6.15788e-08
6.14656e-08
6.13482e-08
6.12509e-08
6.11452e-08
6.10591e-08
6.09673e-08
6.08954e-08
6.08119e-08
6.07476e-08
6.06832e-08
6.06262e-08
6.05581e-08
6.05092e-08
6.04526e-08
6.04145e-08
6.03571e-08
6.03086e-08
6.02674e-08
6.02182e-08
6.01784e-08
6.01601e-08
6.01176e-08
6.00826e-08
6.00452e-08
6.00117e-08
5.99674e-08
5.99487e-08
5.99178e-08
5.99139e-08
5.99007e-08
5.99054e-08
5.98966e-08
5.99043e-08
5.98952e-08
5.99006e-08
5.98981e-08
5.99039e-08
5.99054e-08
5.99173e-08
5.99233e-08
5.99405e-08
5.99494e-08
5.9969e-08
5.99803e-08
6.00044e-08
6.00182e-08
6.00486e-08
6.00645e-08
6.01009e-08
6.01147e-08
6.0161e-08
6.01543e-08
6.06824e-08
3.42344e-06
2.56045e-08
1.24946e-07
1.19827e-07
1.11972e-07
1.04357e-07
9.79338e-08
9.27392e-08
8.85134e-08
8.50653e-08
8.2187e-08
7.9783e-08
7.77242e-08
7.59708e-08
7.4438e-08
7.31148e-08
7.19344e-08
7.09072e-08
6.99767e-08
6.91625e-08
6.84143e-08
6.77564e-08
6.71441e-08
6.66053e-08
6.60957e-08
6.56477e-08
6.52203e-08
6.48455e-08
6.44831e-08
6.41642e-08
6.38566e-08
6.35863e-08
6.33191e-08
6.30872e-08
6.28578e-08
6.26601e-08
6.24621e-08
6.22905e-08
6.21157e-08
6.19679e-08
6.18146e-08
6.16852e-08
6.15508e-08
6.14371e-08
6.13191e-08
6.12213e-08
6.1115e-08
6.10285e-08
6.09361e-08
6.08638e-08
6.07799e-08
6.07152e-08
6.06502e-08
6.0593e-08
6.05245e-08
6.04753e-08
6.04184e-08
6.03802e-08
6.03225e-08
6.02738e-08
6.02323e-08
6.0183e-08
6.01429e-08
6.01243e-08
6.00817e-08
6.00465e-08
6.00088e-08
5.99753e-08
5.9931e-08
5.99119e-08
5.98804e-08
5.98761e-08
5.98625e-08
5.98669e-08
5.98579e-08
5.98653e-08
5.98561e-08
5.98612e-08
5.98586e-08
5.98641e-08
5.98655e-08
5.98771e-08
5.9883e-08
5.98998e-08
5.99087e-08
5.9928e-08
5.99391e-08
5.9963e-08
5.99766e-08
6.00067e-08
6.00225e-08
6.00586e-08
6.00722e-08
6.01183e-08
6.01111e-08
6.06507e-08
3.44154e-06
2.65285e-08
1.24946e-07
1.1987e-07
1.12049e-07
1.04446e-07
9.80227e-08
9.28215e-08
8.85869e-08
8.51298e-08
8.22428e-08
7.98309e-08
7.77647e-08
7.60048e-08
7.4466e-08
7.31375e-08
7.19523e-08
7.09207e-08
6.99862e-08
6.91684e-08
6.84169e-08
6.77561e-08
6.7141e-08
6.65997e-08
6.60879e-08
6.56377e-08
6.52084e-08
6.48317e-08
6.44676e-08
6.41471e-08
6.38381e-08
6.35665e-08
6.3298e-08
6.30649e-08
6.28343e-08
6.26355e-08
6.24365e-08
6.2264e-08
6.20884e-08
6.19397e-08
6.17856e-08
6.16555e-08
6.15204e-08
6.1406e-08
6.12873e-08
6.1189e-08
6.10821e-08
6.09951e-08
6.09022e-08
6.08294e-08
6.0745e-08
6.06798e-08
6.06143e-08
6.05569e-08
6.04879e-08
6.04383e-08
6.03811e-08
6.03427e-08
6.02847e-08
6.02358e-08
6.01941e-08
6.01447e-08
6.01041e-08
6.00853e-08
6.00425e-08
6.00072e-08
5.99692e-08
5.99356e-08
5.98912e-08
5.98717e-08
5.98397e-08
5.98349e-08
5.98209e-08
5.9825e-08
5.98157e-08
5.98228e-08
5.98135e-08
5.98183e-08
5.98156e-08
5.98208e-08
5.98221e-08
5.98333e-08
5.98391e-08
5.98556e-08
5.98643e-08
5.98833e-08
5.98943e-08
5.99178e-08
5.99313e-08
5.99611e-08
5.99766e-08
6.00124e-08
6.00259e-08
6.00718e-08
6.00641e-08
6.06162e-08
3.46056e-06
2.75702e-08
1.24945e-07
1.19915e-07
1.12131e-07
1.04543e-07
9.81191e-08
9.29108e-08
8.86669e-08
8.52e-08
8.23037e-08
7.98831e-08
7.7809e-08
7.6042e-08
7.44967e-08
7.31624e-08
7.19719e-08
7.09356e-08
6.99968e-08
6.91751e-08
6.842e-08
6.7756e-08
6.71379e-08
6.65939e-08
6.60795e-08
6.56271e-08
6.51956e-08
6.48169e-08
6.4451e-08
6.41288e-08
6.38181e-08
6.35451e-08
6.32752e-08
6.30408e-08
6.2809e-08
6.2609e-08
6.24089e-08
6.22354e-08
6.20588e-08
6.19093e-08
6.17543e-08
6.16234e-08
6.14875e-08
6.13725e-08
6.1253e-08
6.11541e-08
6.10465e-08
6.0959e-08
6.08654e-08
6.07922e-08
6.07073e-08
6.06416e-08
6.05754e-08
6.05177e-08
6.04483e-08
6.03983e-08
6.03407e-08
6.03022e-08
6.02437e-08
6.01947e-08
6.01527e-08
6.01031e-08
6.00622e-08
6.00431e-08
5.99999e-08
5.99646e-08
5.99263e-08
5.98926e-08
5.98481e-08
5.98282e-08
5.97956e-08
5.97902e-08
5.97757e-08
5.97795e-08
5.97699e-08
5.97767e-08
5.97673e-08
5.97718e-08
5.97689e-08
5.97739e-08
5.9775e-08
5.97858e-08
5.97914e-08
5.98075e-08
5.98161e-08
5.98348e-08
5.98456e-08
5.98689e-08
5.98821e-08
5.99115e-08
5.99269e-08
5.99624e-08
5.99757e-08
6.00213e-08
6.0013e-08
6.05787e-08
3.48021e-06
2.87443e-08
1.24945e-07
1.19963e-07
1.1222e-07
1.04647e-07
9.82232e-08
9.30075e-08
8.87535e-08
8.52762e-08
8.23698e-08
7.99399e-08
7.78573e-08
7.60825e-08
7.45302e-08
7.31897e-08
7.19935e-08
7.0952e-08
7.00086e-08
6.91826e-08
6.84237e-08
6.77562e-08
6.71348e-08
6.65879e-08
6.60708e-08
6.56158e-08
6.5182e-08
6.48012e-08
6.44333e-08
6.41093e-08
6.37968e-08
6.35221e-08
6.32507e-08
6.3015e-08
6.27817e-08
6.25806e-08
6.23793e-08
6.22047e-08
6.2027e-08
6.18765e-08
6.17206e-08
6.15889e-08
6.14521e-08
6.13363e-08
6.1216e-08
6.11165e-08
6.10082e-08
6.09201e-08
6.08258e-08
6.07521e-08
6.06666e-08
6.06003e-08
6.05335e-08
6.04754e-08
6.04056e-08
6.03552e-08
6.02972e-08
6.02585e-08
6.01996e-08
6.01503e-08
6.01081e-08
6.00583e-08
6.00169e-08
5.99975e-08
5.99541e-08
5.99186e-08
5.988e-08
5.98463e-08
5.98015e-08
5.97813e-08
5.9748e-08
5.97421e-08
5.97271e-08
5.97304e-08
5.97205e-08
5.9727e-08
5.97174e-08
5.97216e-08
5.97186e-08
5.97232e-08
5.97241e-08
5.97345e-08
5.974e-08
5.97557e-08
5.97642e-08
5.97825e-08
5.97931e-08
5.9816e-08
5.98291e-08
5.98581e-08
5.98733e-08
5.99084e-08
5.99215e-08
5.99668e-08
5.99579e-08
6.05382e-08
3.50016e-06
3.00661e-08
1.24944e-07
1.20015e-07
1.12315e-07
1.04759e-07
9.83351e-08
9.31116e-08
8.8847e-08
8.53586e-08
8.24413e-08
8.00013e-08
7.79096e-08
7.61265e-08
7.45667e-08
7.32194e-08
7.20171e-08
7.09701e-08
7.00216e-08
6.91911e-08
6.84279e-08
6.77567e-08
6.71317e-08
6.65817e-08
6.60616e-08
6.5604e-08
6.51676e-08
6.47845e-08
6.44144e-08
6.40885e-08
6.3774e-08
6.34977e-08
6.32246e-08
6.29874e-08
6.27527e-08
6.25502e-08
6.23475e-08
6.21719e-08
6.1993e-08
6.18415e-08
6.16845e-08
6.15519e-08
6.14141e-08
6.12976e-08
6.11764e-08
6.10761e-08
6.09672e-08
6.08784e-08
6.07834e-08
6.0709e-08
6.06229e-08
6.05561e-08
6.04885e-08
6.04301e-08
6.03597e-08
6.0309e-08
6.02504e-08
6.02116e-08
6.01522e-08
6.01027e-08
6.00601e-08
6.00102e-08
5.99683e-08
5.99485e-08
5.99048e-08
5.98692e-08
5.98302e-08
5.97964e-08
5.97515e-08
5.97309e-08
5.96969e-08
5.96903e-08
5.96748e-08
5.96778e-08
5.96675e-08
5.96737e-08
5.96638e-08
5.96677e-08
5.96645e-08
5.96688e-08
5.96695e-08
5.96795e-08
5.96848e-08
5.97001e-08
5.97083e-08
5.97263e-08
5.97367e-08
5.97592e-08
5.97721e-08
5.98007e-08
5.98156e-08
5.98504e-08
5.98632e-08
5.99082e-08
5.98987e-08
6.04946e-08
3.52e-06
3.15515e-08
1.24943e-07
1.20069e-07
1.12415e-07
1.04879e-07
9.84549e-08
9.32233e-08
8.89475e-08
8.54472e-08
8.25184e-08
8.00677e-08
7.79661e-08
7.61741e-08
7.46062e-08
7.32517e-08
7.20428e-08
7.09899e-08
7.0036e-08
6.92006e-08
6.84329e-08
6.77576e-08
6.71289e-08
6.65754e-08
6.60522e-08
6.55917e-08
6.51525e-08
6.4767e-08
6.43945e-08
6.40664e-08
6.37499e-08
6.34718e-08
6.31969e-08
6.29581e-08
6.27217e-08
6.25178e-08
6.23138e-08
6.21369e-08
6.19567e-08
6.18041e-08
6.1646e-08
6.15124e-08
6.13737e-08
6.12562e-08
6.11342e-08
6.10331e-08
6.09233e-08
6.08338e-08
6.0738e-08
6.0663e-08
6.05763e-08
6.05089e-08
6.04404e-08
6.03817e-08
6.03108e-08
6.02595e-08
6.02004e-08
6.01614e-08
6.01015e-08
6.00518e-08
6.00088e-08
5.99588e-08
5.99163e-08
5.98961e-08
5.98522e-08
5.98164e-08
5.9777e-08
5.97432e-08
5.96981e-08
5.96769e-08
5.96423e-08
5.9635e-08
5.96189e-08
5.96214e-08
5.96108e-08
5.96166e-08
5.96065e-08
5.961e-08
5.96066e-08
5.96106e-08
5.96111e-08
5.96206e-08
5.96257e-08
5.96405e-08
5.96486e-08
5.96662e-08
5.96764e-08
5.96984e-08
5.97111e-08
5.97392e-08
5.97539e-08
5.97883e-08
5.98009e-08
5.98454e-08
5.98353e-08
6.04478e-08
3.53923e-06
3.32171e-08
1.24942e-07
1.20126e-07
1.12522e-07
1.05006e-07
9.85828e-08
9.33429e-08
8.90552e-08
8.55423e-08
8.26013e-08
8.01392e-08
7.80271e-08
7.62256e-08
7.4649e-08
7.32868e-08
7.20708e-08
7.10115e-08
7.00518e-08
6.92112e-08
6.84387e-08
6.7759e-08
6.71262e-08
6.65691e-08
6.60424e-08
6.55788e-08
6.51368e-08
6.47486e-08
6.43736e-08
6.40432e-08
6.37245e-08
6.34444e-08
6.31676e-08
6.2927e-08
6.2689e-08
6.24835e-08
6.22779e-08
6.20997e-08
6.19182e-08
6.17644e-08
6.16051e-08
6.14705e-08
6.13306e-08
6.12123e-08
6.10892e-08
6.09873e-08
6.08767e-08
6.07865e-08
6.06898e-08
6.06141e-08
6.05266e-08
6.04586e-08
6.03893e-08
6.03302e-08
6.02586e-08
6.02069e-08
6.01472e-08
6.01079e-08
6.00475e-08
5.99975e-08
5.99542e-08
5.99039e-08
5.98609e-08
5.98403e-08
5.9796e-08
5.97601e-08
5.97203e-08
5.96864e-08
5.9641e-08
5.96195e-08
5.95841e-08
5.9576e-08
5.95594e-08
5.95614e-08
5.95503e-08
5.95557e-08
5.95454e-08
5.95485e-08
5.95449e-08
5.95485e-08
5.95488e-08
5.95577e-08
5.95627e-08
5.9577e-08
5.95849e-08
5.9602e-08
5.9612e-08
5.96336e-08
5.9646e-08
5.96736e-08
5.96881e-08
5.9722e-08
5.97344e-08
5.97784e-08
5.97677e-08
6.03977e-08
3.55728e-06
3.50802e-08
1.2494e-07
1.20185e-07
1.12634e-07
1.05141e-07
9.87189e-08
9.34704e-08
8.91703e-08
8.56441e-08
8.26901e-08
8.02159e-08
7.80926e-08
7.6281e-08
7.46953e-08
7.33247e-08
7.21012e-08
7.10352e-08
7.00692e-08
6.9223e-08
6.84453e-08
6.77609e-08
6.71239e-08
6.65628e-08
6.60325e-08
6.55656e-08
6.51204e-08
6.47294e-08
6.43517e-08
6.40189e-08
6.36978e-08
6.34156e-08
6.31367e-08
6.28943e-08
6.26544e-08
6.24473e-08
6.22401e-08
6.20605e-08
6.18775e-08
6.17224e-08
6.15618e-08
6.14261e-08
6.12851e-08
6.11658e-08
6.10416e-08
6.09388e-08
6.08272e-08
6.07362e-08
6.06386e-08
6.05622e-08
6.0474e-08
6.04052e-08
6.0335e-08
6.02754e-08
6.02033e-08
6.0151e-08
6.00907e-08
6.00512e-08
5.99902e-08
5.99399e-08
5.98962e-08
5.98457e-08
5.9802e-08
5.97811e-08
5.97364e-08
5.97002e-08
5.966e-08
5.9626e-08
5.95804e-08
5.95584e-08
5.95223e-08
5.95132e-08
5.94962e-08
5.94976e-08
5.94861e-08
5.9491e-08
5.94804e-08
5.94831e-08
5.94794e-08
5.94825e-08
5.94826e-08
5.9491e-08
5.94957e-08
5.95095e-08
5.95171e-08
5.95338e-08
5.95436e-08
5.95647e-08
5.95768e-08
5.96039e-08
5.96182e-08
5.96516e-08
5.96636e-08
5.97072e-08
5.96958e-08
6.03441e-08
3.5735e-06
3.71582e-08
1.24938e-07
1.20248e-07
1.12753e-07
1.05283e-07
9.88634e-08
9.3606e-08
8.9293e-08
8.57528e-08
8.27852e-08
8.0298e-08
7.8163e-08
7.63406e-08
7.47451e-08
7.33657e-08
7.21342e-08
7.10609e-08
7.00883e-08
6.92361e-08
6.84529e-08
6.77636e-08
6.71219e-08
6.65567e-08
6.60225e-08
6.5552e-08
6.51035e-08
6.47094e-08
6.43289e-08
6.39934e-08
6.36698e-08
6.33853e-08
6.31043e-08
6.28599e-08
6.2618e-08
6.24092e-08
6.22002e-08
6.20191e-08
6.18345e-08
6.16781e-08
6.15162e-08
6.13792e-08
6.1237e-08
6.11166e-08
6.09912e-08
6.08876e-08
6.07749e-08
6.06831e-08
6.05845e-08
6.05073e-08
6.04183e-08
6.03487e-08
6.02776e-08
6.02176e-08
6.01447e-08
6.00918e-08
6.00308e-08
5.99911e-08
5.99294e-08
5.98789e-08
5.98347e-08
5.9784e-08
5.97397e-08
5.97183e-08
5.96732e-08
5.96369e-08
5.95962e-08
5.95621e-08
5.95162e-08
5.94937e-08
5.94568e-08
5.94468e-08
5.94292e-08
5.943e-08
5.9418e-08
5.94225e-08
5.94116e-08
5.94138e-08
5.94098e-08
5.94125e-08
5.94124e-08
5.94202e-08
5.94247e-08
5.94379e-08
5.94453e-08
5.94616e-08
5.9471e-08
5.94916e-08
5.95035e-08
5.953e-08
5.9544e-08
5.95769e-08
5.95886e-08
5.96316e-08
5.96196e-08
6.02869e-08
3.58716e-06
3.94683e-08
1.24936e-07
1.20313e-07
1.12877e-07
1.05434e-07
9.90163e-08
9.375e-08
8.94235e-08
8.58687e-08
8.28866e-08
8.03859e-08
7.82383e-08
7.64046e-08
7.47986e-08
7.34099e-08
7.21699e-08
7.10889e-08
7.01093e-08
6.92507e-08
6.84617e-08
6.77671e-08
6.71204e-08
6.65508e-08
6.60124e-08
6.55382e-08
6.5086e-08
6.46888e-08
6.43052e-08
6.3967e-08
6.36406e-08
6.33538e-08
6.30704e-08
6.28239e-08
6.25799e-08
6.23692e-08
6.21583e-08
6.19756e-08
6.17894e-08
6.16316e-08
6.14681e-08
6.13299e-08
6.11863e-08
6.10648e-08
6.09382e-08
6.08336e-08
6.07198e-08
6.06271e-08
6.05275e-08
6.04494e-08
6.03596e-08
6.02892e-08
6.02171e-08
6.01565e-08
6.00829e-08
6.00294e-08
5.99677e-08
5.99277e-08
5.98653e-08
5.98146e-08
5.97698e-08
5.97189e-08
5.96739e-08
5.9652e-08
5.96064e-08
5.95699e-08
5.95287e-08
5.94945e-08
5.94484e-08
5.94253e-08
5.93877e-08
5.93765e-08
5.93585e-08
5.93586e-08
5.93461e-08
5.93501e-08
5.93388e-08
5.93406e-08
5.93364e-08
5.93386e-08
5.93382e-08
5.93454e-08
5.93496e-08
5.93623e-08
5.93694e-08
5.93851e-08
5.93943e-08
5.94144e-08
5.9426e-08
5.94519e-08
5.94656e-08
5.9498e-08
5.95093e-08
5.95516e-08
5.9539e-08
6.0226e-08
3.59746e-06
4.20272e-08
1.24934e-07
1.2038e-07
1.13008e-07
1.05592e-07
9.91779e-08
9.39025e-08
8.95621e-08
8.59919e-08
8.29946e-08
8.04796e-08
7.83188e-08
7.64731e-08
7.48561e-08
7.34575e-08
7.22084e-08
7.11193e-08
7.01322e-08
6.92669e-08
6.84717e-08
6.77714e-08
6.71196e-08
6.65452e-08
6.60024e-08
6.55242e-08
6.50682e-08
6.46675e-08
6.42807e-08
6.39395e-08
6.36102e-08
6.33209e-08
6.3035e-08
6.27862e-08
6.254e-08
6.23273e-08
6.21145e-08
6.19301e-08
6.17421e-08
6.15827e-08
6.14177e-08
6.12782e-08
6.11331e-08
6.10104e-08
6.08825e-08
6.07768e-08
6.06619e-08
6.05682e-08
6.04675e-08
6.03886e-08
6.02978e-08
6.02266e-08
6.01534e-08
6.00922e-08
6.00178e-08
5.99637e-08
5.99012e-08
5.98608e-08
5.97978e-08
5.97468e-08
5.97014e-08
5.96502e-08
5.96046e-08
5.95821e-08
5.9536e-08
5.94994e-08
5.94576e-08
5.94233e-08
5.93768e-08
5.93532e-08
5.9315e-08
5.93026e-08
5.9284e-08
5.92834e-08
5.92703e-08
5.92737e-08
5.92622e-08
5.92635e-08
5.92589e-08
5.92606e-08
5.92599e-08
5.92665e-08
5.92705e-08
5.92825e-08
5.92894e-08
5.93045e-08
5.93134e-08
5.93329e-08
5.93442e-08
5.93695e-08
5.93828e-08
5.94147e-08
5.94257e-08
5.94672e-08
5.9454e-08
6.01611e-08
3.60353e-06
4.48503e-08
1.24931e-07
1.2045e-07
1.13144e-07
1.05758e-07
9.93481e-08
9.40638e-08
8.97088e-08
8.61227e-08
8.31095e-08
8.05795e-08
7.84047e-08
7.65463e-08
7.49177e-08
7.35087e-08
7.22501e-08
7.11523e-08
7.01573e-08
6.92849e-08
6.8483e-08
6.77768e-08
6.71194e-08
6.65401e-08
6.59926e-08
6.55101e-08
6.50501e-08
6.46457e-08
6.42554e-08
6.39111e-08
6.35788e-08
6.32867e-08
6.29983e-08
6.27471e-08
6.24985e-08
6.22837e-08
6.20687e-08
6.18825e-08
6.16927e-08
6.15317e-08
6.1365e-08
6.1224e-08
6.10775e-08
6.09535e-08
6.08242e-08
6.07173e-08
6.06012e-08
6.05065e-08
6.04046e-08
6.03247e-08
6.02329e-08
6.01608e-08
6.00865e-08
6.00247e-08
5.99495e-08
5.98947e-08
5.98313e-08
5.97906e-08
5.97269e-08
5.96756e-08
5.96296e-08
5.95781e-08
5.95317e-08
5.95086e-08
5.94621e-08
5.94252e-08
5.93829e-08
5.93484e-08
5.93016e-08
5.92775e-08
5.92385e-08
5.92249e-08
5.92058e-08
5.92043e-08
5.91907e-08
5.91934e-08
5.91815e-08
5.91823e-08
5.91774e-08
5.91786e-08
5.91776e-08
5.91836e-08
5.91872e-08
5.91986e-08
5.92052e-08
5.92197e-08
5.92283e-08
5.92472e-08
5.92581e-08
5.92828e-08
5.92958e-08
5.9327e-08
5.93377e-08
5.93783e-08
5.93645e-08
6.00921e-08
3.60443e-06
4.7951e-08
1.24927e-07
1.20521e-07
1.13285e-07
1.05933e-07
9.95273e-08
9.42339e-08
8.98641e-08
8.62613e-08
8.32315e-08
8.06857e-08
7.84963e-08
7.66245e-08
7.49837e-08
7.35637e-08
7.22949e-08
7.11881e-08
7.01848e-08
6.93047e-08
6.84959e-08
6.77834e-08
6.71201e-08
6.65355e-08
6.5983e-08
6.5496e-08
6.50318e-08
6.46235e-08
6.42296e-08
6.3882e-08
6.35464e-08
6.32514e-08
6.29602e-08
6.27065e-08
6.24554e-08
6.22383e-08
6.20211e-08
6.1833e-08
6.16412e-08
6.14784e-08
6.131e-08
6.11674e-08
6.10193e-08
6.0894e-08
6.07632e-08
6.06551e-08
6.05378e-08
6.04419e-08
6.03387e-08
6.02579e-08
6.01651e-08
6.0092e-08
6.00165e-08
5.99541e-08