/*--------------------------------*- C++ -*----------------------------------*\
| =========                 |                                                 |
| \\      /  F ield         | OpenFOAM: The Open Source CFD Toolbox           |
|  \\    /   O peration     | Version:  v2012                                 |
|   \\  /    A nd           | Website:  www.openfoam.com                      |
|    \\/     M anipulation  |                                                 |
\*---------------------------------------------------------------------------*/
FoamFile
{
    version     2.0;
    format      ascii;
    class       volVectorField;
    location    "27.5";
    object      wallShearStress;
}
// * * * * * * * * * * * * * * * * * * * * * * * * * * * * * * * * * * * * * //

dimensions      [0 2 -2 0 0 0 0];


internalField   uniform (0 0 0);

boundaryField
{
    inlet
    {
        type            calculated;
        value           uniform (0 0 0);
    }
    outlet
    {
        type            calculated;
        value           uniform (0 0 0);
    }
    topWall
    {
        type            calculated;
        value           nonuniform List<vector> 
545
(
(5.84333e-08 -4.11177e-08 0)
(5.84446e-08 -1.15115e-07 0)
(5.83775e-08 -1.92011e-07 0)
(5.83003e-08 -2.66641e-07 0)
(5.82188e-08 -3.38063e-07 0)
(5.81243e-08 -4.07193e-07 0)
(5.80176e-08 -4.74621e-07 0)
(5.7899e-08 -5.40316e-07 0)
(5.77696e-08 -6.04132e-07 0)
(5.76303e-08 -6.66066e-07 0)
(5.74821e-08 -7.26199e-07 0)
(5.73258e-08 -7.84602e-07 0)
(5.71623e-08 -8.41313e-07 0)
(5.69924e-08 -8.96367e-07 0)
(5.68167e-08 -9.49805e-07 0)
(5.6636e-08 -1.00167e-06 0)
(5.64508e-08 -1.052e-06 0)
(5.62619e-08 -1.10085e-06 0)
(5.60697e-08 -1.14824e-06 0)
(5.58748e-08 -1.19423e-06 0)
(5.56776e-08 -1.23885e-06 0)
(5.54787e-08 -1.28213e-06 0)
(5.52783e-08 -1.32412e-06 0)
(5.5077e-08 -1.36486e-06 0)
(5.48751e-08 -1.40438e-06 0)
(5.46729e-08 -1.44271e-06 0)
(5.44707e-08 -1.4799e-06 0)
(5.42688e-08 -1.51597e-06 0)
(5.40675e-08 -1.55096e-06 0)
(5.38669e-08 -1.5849e-06 0)
(5.36674e-08 -1.61782e-06 0)
(5.34692e-08 -1.64976e-06 0)
(5.32723e-08 -1.68073e-06 0)
(5.3077e-08 -1.71079e-06 0)
(5.28834e-08 -1.73994e-06 0)
(5.26917e-08 -1.76822e-06 0)
(5.25019e-08 -1.79565e-06 0)
(5.23143e-08 -1.82227e-06 0)
(5.21288e-08 -1.84809e-06 0)
(5.19456e-08 -1.87314e-06 0)
(5.17648e-08 -1.89745e-06 0)
(5.15863e-08 -1.92103e-06 0)
(5.14103e-08 -1.94391e-06 0)
(5.12369e-08 -1.96611e-06 0)
(5.10659e-08 -1.98766e-06 0)
(5.08976e-08 -2.00857e-06 0)
(5.07319e-08 -2.02886e-06 0)
(5.05688e-08 -2.04855e-06 0)
(5.04083e-08 -2.06766e-06 0)
(5.02505e-08 -2.0862e-06 0)
(5.00953e-08 -2.10421e-06 0)
(4.99428e-08 -2.12168e-06 0)
(4.97929e-08 -2.13864e-06 0)
(4.96457e-08 -2.15511e-06 0)
(4.9501e-08 -2.17109e-06 0)
(4.9359e-08 -2.18661e-06 0)
(4.92195e-08 -2.20167e-06 0)
(4.90826e-08 -2.2163e-06 0)
(4.89482e-08 -2.2305e-06 0)
(4.88163e-08 -2.24429e-06 0)
(4.86868e-08 -2.25768e-06 0)
(4.85598e-08 -2.27068e-06 0)
(4.84352e-08 -2.28331e-06 0)
(4.8313e-08 -2.29557e-06 0)
(4.81931e-08 -2.30748e-06 0)
(4.80754e-08 -2.31905e-06 0)
(4.79601e-08 -2.33029e-06 0)
(4.78469e-08 -2.3412e-06 0)
(4.77359e-08 -2.3518e-06 0)
(4.76269e-08 -2.36209e-06 0)
(4.75208e-08 -2.37211e-06 0)
(4.74127e-08 -2.3818e-06 0)
(4.73091e-08 -2.39112e-06 0)
(4.72149e-08 -2.40019e-06 0)
(4.71212e-08 -2.40914e-06 0)
(4.70278e-08 -2.41802e-06 0)
(4.69345e-08 -2.42688e-06 0)
(4.68413e-08 -2.43568e-06 0)
(4.67482e-08 -2.44442e-06 0)
(4.66552e-08 -2.45309e-06 0)
(4.65624e-08 -2.46172e-06 0)
(4.64696e-08 -2.47028e-06 0)
(4.6377e-08 -2.47879e-06 0)
(4.62844e-08 -2.48724e-06 0)
(4.6192e-08 -2.49564e-06 0)
(4.60998e-08 -2.50398e-06 0)
(4.60076e-08 -2.51227e-06 0)
(4.59156e-08 -2.52051e-06 0)
(4.58237e-08 -2.52869e-06 0)
(4.5732e-08 -2.53681e-06 0)
(4.56404e-08 -2.54488e-06 0)
(4.55488e-08 -2.5529e-06 0)
(4.54579e-08 -2.56088e-06 0)
(4.53651e-08 -2.56876e-06 0)
(4.52808e-08 -2.5767e-06 0)
(4.51614e-08 -2.5844e-06 0)
(4.50375e-08 -2.59137e-06 0)
(4.4959e-08 -2.59791e-06 0)
(4.4885e-08 -2.60418e-06 0)
(4.48119e-08 -2.61037e-06 0)
(4.47387e-08 -2.61668e-06 0)
(4.46653e-08 -2.62302e-06 0)
(4.45916e-08 -2.62936e-06 0)
(4.45176e-08 -2.63568e-06 0)
(4.44432e-08 -2.642e-06 0)
(4.43685e-08 -2.64833e-06 0)
(4.42935e-08 -2.65467e-06 0)
(4.42181e-08 -2.66102e-06 0)
(4.41424e-08 -2.66736e-06 0)
(4.40664e-08 -2.67371e-06 0)
(4.399e-08 -2.68006e-06 0)
(4.39134e-08 -2.68642e-06 0)
(4.38363e-08 -2.69278e-06 0)
(4.3759e-08 -2.69915e-06 0)
(4.36813e-08 -2.70552e-06 0)
(4.36032e-08 -2.71189e-06 0)
(4.35248e-08 -2.71827e-06 0)
(4.34461e-08 -2.72465e-06 0)
(4.33671e-08 -2.73103e-06 0)
(4.32877e-08 -2.73742e-06 0)
(4.32079e-08 -2.74381e-06 0)
(4.31279e-08 -2.7502e-06 0)
(4.30474e-08 -2.7566e-06 0)
(4.29667e-08 -2.763e-06 0)
(4.28855e-08 -2.7694e-06 0)
(4.28041e-08 -2.77581e-06 0)
(4.27223e-08 -2.78221e-06 0)
(4.26401e-08 -2.78863e-06 0)
(4.25576e-08 -2.79504e-06 0)
(4.24748e-08 -2.80146e-06 0)
(4.23916e-08 -2.80788e-06 0)
(4.23081e-08 -2.8143e-06 0)
(4.22242e-08 -2.82072e-06 0)
(4.21399e-08 -2.82715e-06 0)
(4.20553e-08 -2.83358e-06 0)
(4.19704e-08 -2.84001e-06 0)
(4.18851e-08 -2.84644e-06 0)
(4.17995e-08 -2.85288e-06 0)
(4.17135e-08 -2.85931e-06 0)
(4.16271e-08 -2.86575e-06 0)
(4.15404e-08 -2.87219e-06 0)
(4.14533e-08 -2.87863e-06 0)
(4.13659e-08 -2.88508e-06 0)
(4.12781e-08 -2.89152e-06 0)
(4.119e-08 -2.89797e-06 0)
(4.11015e-08 -2.90442e-06 0)
(4.10127e-08 -2.91087e-06 0)
(4.09235e-08 -2.91732e-06 0)
(4.08339e-08 -2.92377e-06 0)
(4.0744e-08 -2.93022e-06 0)
(4.06537e-08 -2.93668e-06 0)
(4.05631e-08 -2.94313e-06 0)
(4.04721e-08 -2.94959e-06 0)
(4.03807e-08 -2.95604e-06 0)
(4.0289e-08 -2.9625e-06 0)
(4.01969e-08 -2.96896e-06 0)
(4.01045e-08 -2.97541e-06 0)
(4.00117e-08 -2.98187e-06 0)
(3.99185e-08 -2.98833e-06 0)
(3.9825e-08 -2.99479e-06 0)
(3.97311e-08 -3.00125e-06 0)
(3.96368e-08 -3.0077e-06 0)
(3.95422e-08 -3.01416e-06 0)
(3.94472e-08 -3.02062e-06 0)
(3.93519e-08 -3.02708e-06 0)
(3.92562e-08 -3.03353e-06 0)
(3.91601e-08 -3.03999e-06 0)
(3.90636e-08 -3.04645e-06 0)
(3.89668e-08 -3.0529e-06 0)
(3.88697e-08 -3.05935e-06 0)
(3.87721e-08 -3.06581e-06 0)
(3.86742e-08 -3.07226e-06 0)
(3.8576e-08 -3.07871e-06 0)
(3.84773e-08 -3.08516e-06 0)
(3.83783e-08 -3.09161e-06 0)
(3.8279e-08 -3.09805e-06 0)
(3.81792e-08 -3.1045e-06 0)
(3.80792e-08 -3.11094e-06 0)
(3.79787e-08 -3.11738e-06 0)
(3.78779e-08 -3.12382e-06 0)
(3.77767e-08 -3.13026e-06 0)
(3.76751e-08 -3.13669e-06 0)
(3.75732e-08 -3.14313e-06 0)
(3.74709e-08 -3.14956e-06 0)
(3.73682e-08 -3.15599e-06 0)
(3.72652e-08 -3.16241e-06 0)
(3.71618e-08 -3.16884e-06 0)
(3.70581e-08 -3.17526e-06 0)
(3.6954e-08 -3.18167e-06 0)
(3.68495e-08 -3.18809e-06 0)
(3.67446e-08 -3.1945e-06 0)
(3.66394e-08 -3.20091e-06 0)
(3.65338e-08 -3.20731e-06 0)
(3.64279e-08 -3.21371e-06 0)
(3.63216e-08 -3.22011e-06 0)
(3.62149e-08 -3.22651e-06 0)
(3.61079e-08 -3.2329e-06 0)
(3.60005e-08 -3.23928e-06 0)
(3.58927e-08 -3.24566e-06 0)
(3.57846e-08 -3.25204e-06 0)
(3.56761e-08 -3.25842e-06 0)
(3.55673e-08 -3.26479e-06 0)
(3.54581e-08 -3.27115e-06 0)
(3.53485e-08 -3.27751e-06 0)
(3.52386e-08 -3.28387e-06 0)
(3.51283e-08 -3.29022e-06 0)
(3.50176e-08 -3.29656e-06 0)
(3.49066e-08 -3.3029e-06 0)
(3.47953e-08 -3.30924e-06 0)
(3.46835e-08 -3.31557e-06 0)
(3.45715e-08 -3.32189e-06 0)
(3.4459e-08 -3.32821e-06 0)
(3.43462e-08 -3.33452e-06 0)
(3.42331e-08 -3.34083e-06 0)
(3.41196e-08 -3.34713e-06 0)
(3.40057e-08 -3.35342e-06 0)
(3.38915e-08 -3.35971e-06 0)
(3.3777e-08 -3.36599e-06 0)
(3.3662e-08 -3.37227e-06 0)
(3.35468e-08 -3.37854e-06 0)
(3.34312e-08 -3.3848e-06 0)
(3.33152e-08 -3.39106e-06 0)
(3.31989e-08 -3.3973e-06 0)
(3.30822e-08 -3.40354e-06 0)
(3.29652e-08 -3.40978e-06 0)
(3.28479e-08 -3.416e-06 0)
(3.27302e-08 -3.42222e-06 0)
(3.26122e-08 -3.42843e-06 0)
(3.24938e-08 -3.43463e-06 0)
(3.23751e-08 -3.44083e-06 0)
(3.2256e-08 -3.44701e-06 0)
(3.21366e-08 -3.45319e-06 0)
(3.20169e-08 -3.45936e-06 0)
(3.18968e-08 -3.46552e-06 0)
(3.17764e-08 -3.47167e-06 0)
(3.16557e-08 -3.47782e-06 0)
(3.15346e-08 -3.48395e-06 0)
(3.14132e-08 -3.49008e-06 0)
(3.12915e-08 -3.49619e-06 0)
(3.11694e-08 -3.5023e-06 0)
(3.1047e-08 -3.5084e-06 0)
(3.09243e-08 -3.51448e-06 0)
(3.08013e-08 -3.52056e-06 0)
(3.06779e-08 -3.52663e-06 0)
(3.05543e-08 -3.53269e-06 0)
(3.04303e-08 -3.53873e-06 0)
(3.03059e-08 -3.54477e-06 0)
(3.01813e-08 -3.5508e-06 0)
(3.00564e-08 -3.55681e-06 0)
(2.99311e-08 -3.56281e-06 0)
(2.98055e-08 -3.56881e-06 0)
(2.96796e-08 -3.57479e-06 0)
(2.95534e-08 -3.58076e-06 0)
(2.9427e-08 -3.58672e-06 0)
(2.93001e-08 -3.59267e-06 0)
(2.9173e-08 -3.5986e-06 0)
(2.90456e-08 -3.60453e-06 0)
(2.89179e-08 -3.61044e-06 0)
(2.87899e-08 -3.61634e-06 0)
(2.86616e-08 -3.62223e-06 0)
(2.8533e-08 -3.6281e-06 0)
(2.84042e-08 -3.63396e-06 0)
(2.8275e-08 -3.63981e-06 0)
(2.81456e-08 -3.64565e-06 0)
(2.80158e-08 -3.65147e-06 0)
(2.7886e-08 -3.65729e-06 0)
(2.77548e-08 -3.66305e-06 0)
(2.76293e-08 -3.66893e-06 0)
(2.74839e-08 -3.67459e-06 0)
(2.73296e-08 -3.67992e-06 0)
(2.72048e-08 -3.68526e-06 0)
(2.709e-08 -3.6904e-06 0)
(2.69737e-08 -3.69549e-06 0)
(2.68568e-08 -3.7007e-06 0)
(2.67385e-08 -3.70597e-06 0)
(2.66189e-08 -3.71126e-06 0)
(2.64979e-08 -3.71658e-06 0)
(2.63756e-08 -3.72192e-06 0)
(2.62519e-08 -3.72731e-06 0)
(2.61268e-08 -3.73272e-06 0)
(2.60003e-08 -3.73817e-06 0)
(2.58725e-08 -3.74365e-06 0)
(2.57433e-08 -3.74917e-06 0)
(2.56126e-08 -3.75471e-06 0)
(2.54805e-08 -3.76029e-06 0)
(2.5347e-08 -3.76589e-06 0)
(2.52121e-08 -3.77153e-06 0)
(2.50757e-08 -3.7772e-06 0)
(2.49379e-08 -3.7829e-06 0)
(2.47986e-08 -3.78863e-06 0)
(2.46578e-08 -3.79439e-06 0)
(2.45156e-08 -3.80018e-06 0)
(2.43718e-08 -3.806e-06 0)
(2.42266e-08 -3.81184e-06 0)
(2.40798e-08 -3.81772e-06 0)
(2.39315e-08 -3.82362e-06 0)
(2.37817e-08 -3.82954e-06 0)
(2.36304e-08 -3.8355e-06 0)
(2.34775e-08 -3.84148e-06 0)
(2.33231e-08 -3.84749e-06 0)
(2.31671e-08 -3.85352e-06 0)
(2.30096e-08 -3.85957e-06 0)
(2.28505e-08 -3.86565e-06 0)
(2.26898e-08 -3.87176e-06 0)
(2.25275e-08 -3.87788e-06 0)
(2.23636e-08 -3.88403e-06 0)
(2.21981e-08 -3.8902e-06 0)
(2.2031e-08 -3.89639e-06 0)
(2.18623e-08 -3.90259e-06 0)
(2.1692e-08 -3.90882e-06 0)
(2.15201e-08 -3.91507e-06 0)
(2.13465e-08 -3.92133e-06 0)
(2.11713e-08 -3.92761e-06 0)
(2.09945e-08 -3.9339e-06 0)
(2.0816e-08 -3.94021e-06 0)
(2.06359e-08 -3.94654e-06 0)
(2.04542e-08 -3.95287e-06 0)
(2.02708e-08 -3.95922e-06 0)
(2.00857e-08 -3.96558e-06 0)
(1.9899e-08 -3.97195e-06 0)
(1.97107e-08 -3.97832e-06 0)
(1.95207e-08 -3.98471e-06 0)
(1.9329e-08 -3.9911e-06 0)
(1.91358e-08 -3.9975e-06 0)
(1.89408e-08 -4.0039e-06 0)
(1.87442e-08 -4.0103e-06 0)
(1.8546e-08 -4.01671e-06 0)
(1.83461e-08 -4.02311e-06 0)
(1.81446e-08 -4.02952e-06 0)
(1.79415e-08 -4.03592e-06 0)
(1.77367e-08 -4.04232e-06 0)
(1.75304e-08 -4.04871e-06 0)
(1.73224e-08 -4.0551e-06 0)
(1.71128e-08 -4.06148e-06 0)
(1.69016e-08 -4.06785e-06 0)
(1.66888e-08 -4.07421e-06 0)
(1.64745e-08 -4.08055e-06 0)
(1.62585e-08 -4.08688e-06 0)
(1.60411e-08 -4.0932e-06 0)
(1.5822e-08 -4.0995e-06 0)
(1.56015e-08 -4.10577e-06 0)
(1.53794e-08 -4.11203e-06 0)
(1.51559e-08 -4.11826e-06 0)
(1.49308e-08 -4.12447e-06 0)
(1.47043e-08 -4.13065e-06 0)
(1.44764e-08 -4.1368e-06 0)
(1.4247e-08 -4.14292e-06 0)
(1.40162e-08 -4.14901e-06 0)
(1.37841e-08 -4.15507e-06 0)
(1.35505e-08 -4.16109e-06 0)
(1.33157e-08 -4.16706e-06 0)
(1.30795e-08 -4.173e-06 0)
(1.28421e-08 -4.17889e-06 0)
(1.26034e-08 -4.18474e-06 0)
(1.23634e-08 -4.19054e-06 0)
(1.21223e-08 -4.19629e-06 0)
(1.188e-08 -4.20198e-06 0)
(1.16366e-08 -4.20763e-06 0)
(1.13921e-08 -4.21321e-06 0)
(1.11465e-08 -4.21874e-06 0)
(1.08999e-08 -4.2242e-06 0)
(1.06523e-08 -4.2296e-06 0)
(1.04038e-08 -4.23493e-06 0)
(1.01543e-08 -4.24019e-06 0)
(9.90404e-09 -4.24537e-06 0)
(9.65293e-09 -4.25049e-06 0)
(9.40103e-09 -4.25552e-06 0)
(9.14843e-09 -4.26048e-06 0)
(8.89514e-09 -4.26535e-06 0)
(8.64123e-09 -4.27014e-06 0)
(8.38674e-09 -4.27483e-06 0)
(8.13174e-09 -4.27944e-06 0)
(7.87626e-09 -4.28395e-06 0)
(7.62039e-09 -4.28836e-06 0)
(7.36415e-09 -4.29268e-06 0)
(7.10762e-09 -4.29689e-06 0)
(6.85085e-09 -4.30099e-06 0)
(6.59392e-09 -4.30499e-06 0)
(6.33688e-09 -4.30887e-06 0)
(6.0798e-09 -4.31265e-06 0)
(5.82273e-09 -4.31629e-06 0)
(5.56576e-09 -4.31983e-06 0)
(5.30894e-09 -4.32323e-06 0)
(5.05236e-09 -4.32652e-06 0)
(4.79607e-09 -4.32967e-06 0)
(4.54016e-09 -4.33269e-06 0)
(4.28469e-09 -4.33557e-06 0)
(4.02976e-09 -4.33832e-06 0)
(3.77541e-09 -4.34092e-06 0)
(3.52175e-09 -4.34339e-06 0)
(3.26884e-09 -4.3457e-06 0)
(3.01677e-09 -4.34787e-06 0)
(2.76561e-09 -4.34987e-06 0)
(2.51546e-09 -4.35173e-06 0)
(2.26638e-09 -4.35342e-06 0)
(2.01846e-09 -4.35496e-06 0)
(1.7718e-09 -4.35632e-06 0)
(1.52647e-09 -4.35753e-06 0)
(1.28255e-09 -4.35855e-06 0)
(1.04015e-09 -4.35942e-06 0)
(7.99334e-10 -4.36009e-06 0)
(5.60203e-10 -4.3606e-06 0)
(3.2284e-10 -4.36092e-06 0)
(8.73368e-11 -4.36107e-06 0)
(-1.46219e-10 -4.36102e-06 0)
(-3.77737e-10 -4.36079e-06 0)
(-6.07126e-10 -4.36036e-06 0)
(-8.34297e-10 -4.35974e-06 0)
(-1.05916e-09 -4.35893e-06 0)
(-1.28162e-09 -4.35792e-06 0)
(-1.50158e-09 -4.3567e-06 0)
(-1.71897e-09 -4.3553e-06 0)
(-1.93368e-09 -4.35368e-06 0)
(-2.14562e-09 -4.35186e-06 0)
(-2.35471e-09 -4.34983e-06 0)
(-2.56085e-09 -4.34759e-06 0)
(-2.76395e-09 -4.34514e-06 0)
(-2.96393e-09 -4.34249e-06 0)
(-3.16069e-09 -4.33961e-06 0)
(-3.35416e-09 -4.33653e-06 0)
(-3.54424e-09 -4.33321e-06 0)
(-3.73086e-09 -4.3297e-06 0)
(-3.91391e-09 -4.32596e-06 0)
(-4.09335e-09 -4.32201e-06 0)
(-4.26907e-09 -4.31782e-06 0)
(-4.44102e-09 -4.31344e-06 0)
(-4.60911e-09 -4.30881e-06 0)
(-4.7733e-09 -4.30399e-06 0)
(-4.93348e-09 -4.29892e-06 0)
(-5.08964e-09 -4.29365e-06 0)
(-5.24167e-09 -4.28815e-06 0)
(-5.38956e-09 -4.28244e-06 0)
(-5.53322e-09 -4.2765e-06 0)
(-5.67264e-09 -4.27035e-06 0)
(-5.80773e-09 -4.26397e-06 0)
(-5.9385e-09 -4.25738e-06 0)
(-6.06484e-09 -4.25057e-06 0)
(-6.18678e-09 -4.24355e-06 0)
(-6.30423e-09 -4.23631e-06 0)
(-6.4172e-09 -4.22886e-06 0)
(-6.52561e-09 -4.22119e-06 0)
(-6.62948e-09 -4.21333e-06 0)
(-6.72872e-09 -4.20524e-06 0)
(-6.82335e-09 -4.19697e-06 0)
(-6.91327e-09 -4.18847e-06 0)
(-6.99848e-09 -4.17979e-06 0)
(-7.07898e-09 -4.17088e-06 0)
(-7.15439e-09 -4.16185e-06 0)
(-7.22664e-09 -4.15242e-06 0)
(-7.28907e-09 -4.14303e-06 0)
(-7.34611e-09 -4.13249e-06 0)
(-7.40899e-09 -4.12038e-06 0)
(-7.46949e-09 -4.10827e-06 0)
(-7.52289e-09 -4.09619e-06 0)
(-7.5695e-09 -4.08395e-06 0)
(-7.60947e-09 -4.07165e-06 0)
(-7.64291e-09 -4.05926e-06 0)
(-7.67011e-09 -4.04687e-06 0)
(-7.69118e-09 -4.03441e-06 0)
(-7.70647e-09 -4.02194e-06 0)
(-7.7161e-09 -4.00943e-06 0)
(-7.7204e-09 -3.99694e-06 0)
(-7.71946e-09 -3.98441e-06 0)
(-7.71363e-09 -3.97192e-06 0)
(-7.70299e-09 -3.95941e-06 0)
(-7.68785e-09 -3.94696e-06 0)
(-7.66828e-09 -3.9345e-06 0)
(-7.6446e-09 -3.92211e-06 0)
(-7.61684e-09 -3.90972e-06 0)
(-7.58531e-09 -3.89742e-06 0)
(-7.55004e-09 -3.88514e-06 0)
(-7.5113e-09 -3.87296e-06 0)
(-7.4691e-09 -3.86081e-06 0)
(-7.42372e-09 -3.84876e-06 0)
(-7.37516e-09 -3.83675e-06 0)
(-7.32366e-09 -3.82486e-06 0)
(-7.26922e-09 -3.81302e-06 0)
(-7.21208e-09 -3.8013e-06 0)
(-7.15221e-09 -3.78965e-06 0)
(-7.08983e-09 -3.77813e-06 0)
(-7.02494e-09 -3.76668e-06 0)
(-6.95772e-09 -3.75537e-06 0)
(-6.88816e-09 -3.74414e-06 0)
(-6.81646e-09 -3.73305e-06 0)
(-6.74257e-09 -3.72205e-06 0)
(-6.66669e-09 -3.7112e-06 0)
(-6.58878e-09 -3.70045e-06 0)
(-6.50902e-09 -3.68986e-06 0)
(-6.42737e-09 -3.67936e-06 0)
(-6.34399e-09 -3.66903e-06 0)
(-6.25884e-09 -3.65881e-06 0)
(-6.17209e-09 -3.64875e-06 0)
(-6.08368e-09 -3.63881e-06 0)
(-5.99377e-09 -3.62904e-06 0)
(-5.90231e-09 -3.61939e-06 0)
(-5.80944e-09 -3.60992e-06 0)
(-5.71511e-09 -3.60057e-06 0)
(-5.61946e-09 -3.5914e-06 0)
(-5.52244e-09 -3.58236e-06 0)
(-5.42416e-09 -3.57351e-06 0)
(-5.32459e-09 -3.56479e-06 0)
(-5.22384e-09 -3.55626e-06 0)
(-5.12186e-09 -3.54786e-06 0)
(-5.01876e-09 -3.53966e-06 0)
(-4.91449e-09 -3.5316e-06 0)
(-4.80915e-09 -3.52374e-06 0)
(-4.7027e-09 -3.51602e-06 0)
(-4.59524e-09 -3.5085e-06 0)
(-4.48672e-09 -3.50113e-06 0)
(-4.37723e-09 -3.49396e-06 0)
(-4.26674e-09 -3.48695e-06 0)
(-4.15532e-09 -3.48013e-06 0)
(-4.04294e-09 -3.47348e-06 0)
(-3.92968e-09 -3.46703e-06 0)
(-3.81552e-09 -3.46075e-06 0)
(-3.70051e-09 -3.45467e-06 0)
(-3.58465e-09 -3.44875e-06 0)
(-3.46799e-09 -3.44305e-06 0)
(-3.35051e-09 -3.43751e-06 0)
(-3.23228e-09 -3.43219e-06 0)
(-3.11329e-09 -3.42703e-06 0)
(-2.99359e-09 -3.42209e-06 0)
(-2.87317e-09 -3.41733e-06 0)
(-2.75207e-09 -3.41277e-06 0)
(-2.63031e-09 -3.4084e-06 0)
(-2.50791e-09 -3.40424e-06 0)
(-2.38487e-09 -3.40027e-06 0)
(-2.26124e-09 -3.39651e-06 0)
(-2.13701e-09 -3.39293e-06 0)
(-2.01222e-09 -3.38957e-06 0)
(-1.88687e-09 -3.3864e-06 0)
(-1.76099e-09 -3.38344e-06 0)
(-1.6346e-09 -3.38068e-06 0)
(-1.50774e-09 -3.37813e-06 0)
(-1.38046e-09 -3.37578e-06 0)
(-1.25284e-09 -3.37366e-06 0)
(-1.12499e-09 -3.37166e-06 0)
(-9.97115e-10 -3.37017e-06 0)
(-8.69319e-10 -3.36786e-06 0)
(-7.4224e-10 -3.36911e-06 0)
(-6.1466e-10 -3.35925e-06 0)
(-4.91097e-10 -3.38568e-06 0)
(-3.53763e-10 -3.28366e-06 0)
(-2.64001e-10 -3.55284e-06 0)
(-1.26194e-10 -3.10275e-06 0)
)
;
    }
    bottomWall
    {
        type            calculated;
        value           nonuniform List<vector> 
449
(
(-52.82 -0.956966 0)
(-34.8164 -0.00280498 0)
(-34.4198 -0.000256938 0)
(-33.0485 -0.000365844 0)
(-31.9151 -0.000317196 0)
(-30.873 -0.000285672 0)
(-29.9518 -0.000250458 0)
(-29.148 -0.000218494 0)
(-28.4436 -0.000191743 0)
(-27.8215 -0.000169688 0)
(-27.2671 -0.000151431 0)
(-26.7692 -0.000136255 0)
(-26.3181 -0.000123686 0)
(-25.9058 -0.000113111 0)
(-25.5267 -0.000103979 0)
(-25.1766 -9.59806e-05 0)
(-24.8521 -8.89426e-05 0)
(-24.5501 -8.26957e-05 0)
(-24.2682 -7.7148e-05 0)
(-24.0041 -7.22158e-05 0)
(-23.756 -6.78091e-05 0)
(-23.522 -6.38558e-05 0)
(-23.3009 -6.02969e-05 0)
(-23.0913 -5.70976e-05 0)
(-22.8921 -5.41938e-05 0)
(-22.7025 -5.15448e-05 0)
(-22.5214 -4.913e-05 0)
(-22.3482 -4.69205e-05 0)
(-22.1823 -4.48928e-05 0)
(-22.0231 -4.30187e-05 0)
(-21.87 -4.12805e-05 0)
(-21.7227 -3.96673e-05 0)
(-21.5806 -3.81692e-05 0)
(-21.4436 -3.67708e-05 0)
(-21.3111 -3.5469e-05 0)
(-21.183 -3.42453e-05 0)
(-21.059 -3.31005e-05 0)
(-20.9387 -3.20221e-05 0)
(-20.8221 -3.10092e-05 0)
(-20.7088 -3.00507e-05 0)
(-20.5987 -2.91443e-05 0)
(-20.4917 -2.82851e-05 0)
(-20.3875 -2.747e-05 0)
(-20.2861 -2.66883e-05 0)
(-20.1873 -2.59402e-05 0)
(-20.091 -2.52238e-05 0)
(-19.9972 -2.45365e-05 0)
(-19.9056 -2.38753e-05 0)
(-19.8164 -2.32398e-05 0)
(-19.7292 -2.26328e-05 0)
(-19.6442 -2.20454e-05 0)
(-19.5611 -2.14888e-05 0)
(-19.4799 -2.09529e-05 0)
(-19.4006 -2.04396e-05 0)
(-19.323 -1.99467e-05 0)
(-19.247 -1.94758e-05 0)
(-19.1727 -1.90244e-05 0)
(-19.0999 -1.85909e-05 0)
(-19.0286 -1.81728e-05 0)
(-18.9587 -1.77733e-05 0)
(-18.8901 -1.73866e-05 0)
(-18.823 -1.70167e-05 0)
(-18.757 -1.66588e-05 0)
(-18.6923 -1.63128e-05 0)
(-18.6287 -1.59791e-05 0)
(-18.5664 -1.5658e-05 0)
(-18.5051 -1.5349e-05 0)
(-18.4449 -1.50469e-05 0)
(-18.3857 -1.47571e-05 0)
(-18.3275 -1.4474e-05 0)
(-18.2703 -1.4202e-05 0)
(-18.214 -1.39327e-05 0)
(-18.1586 -1.36749e-05 0)
(-18.1042 -1.34236e-05 0)
(-18.0506 -1.31815e-05 0)
(-17.9978 -1.29438e-05 0)
(-17.9459 -1.27152e-05 0)
(-17.8948 -1.24897e-05 0)
(-17.8445 -1.22728e-05 0)
(-17.7948 -1.20572e-05 0)
(-17.7461 -1.18526e-05 0)
(-17.6979 -1.16506e-05 0)
(-17.6505 -1.14585e-05 0)
(-17.6037 -1.12667e-05 0)
(-17.5577 -1.10822e-05 0)
(-17.5122 -1.08986e-05 0)
(-17.4675 -1.07204e-05 0)
(-17.4232 -1.05499e-05 0)
(-17.3797 -1.03836e-05 0)
(-17.3367 -1.02206e-05 0)
(-17.2943 -1.00607e-05 0)
(-17.2524 -9.90251e-06 0)
(-17.2112 -9.74968e-06 0)
(-17.1704 -9.60096e-06 0)
(-17.1302 -9.45499e-06 0)
(-17.0904 -9.31305e-06 0)
(-17.0513 -9.17581e-06 0)
(-17.0125 -9.04137e-06 0)
(-16.9743 -8.9095e-06 0)
(-16.9364 -8.77977e-06 0)
(-16.8992 -8.65187e-06 0)
(-16.8623 -8.52842e-06 0)
(-16.8259 -8.40762e-06 0)
(-16.7898 -8.28849e-06 0)
(-16.7544 -8.17181e-06 0)
(-16.7191 -8.0602e-06 0)
(-16.6844 -7.9478e-06 0)
(-16.65 -7.84206e-06 0)
(-16.6161 -7.73514e-06 0)
(-16.5824 -7.63246e-06 0)
(-16.5492 -7.52916e-06 0)
(-16.5163 -7.42835e-06 0)
(-16.4839 -7.3286e-06 0)
(-16.4517 -7.23213e-06 0)
(-16.4199 -7.13706e-06 0)
(-16.3884 -7.04497e-06 0)
(-16.3574 -6.95598e-06 0)
(-16.3265 -6.86982e-06 0)
(-16.2961 -6.7828e-06 0)
(-16.2658 -6.69665e-06 0)
(-16.236 -6.61421e-06 0)
(-16.2064 -6.53249e-06 0)
(-16.1772 -6.45144e-06 0)
(-16.1481 -6.37113e-06 0)
(-16.1195 -6.29221e-06 0)
(-16.0911 -6.21433e-06 0)
(-16.063 -6.13865e-06 0)
(-16.0351 -6.06531e-06 0)
(-16.0076 -5.99325e-06 0)
(-15.9802 -5.92465e-06 0)
(-15.9532 -5.85557e-06 0)
(-15.9264 -5.78886e-06 0)
(-15.8998 -5.72104e-06 0)
(-15.8735 -5.65371e-06 0)
(-15.8475 -5.58797e-06 0)
(-15.8216 -5.52327e-06 0)
(-15.796 -5.45915e-06 0)
(-15.7706 -5.39713e-06 0)
(-15.7456 -5.3352e-06 0)
(-15.7206 -5.27732e-06 0)
(-15.696 -5.21836e-06 0)
(-15.6715 -5.16219e-06 0)
(-15.6472 -5.10625e-06 0)
(-15.6231 -5.05303e-06 0)
(-15.5993 -4.99959e-06 0)
(-15.5756 -4.94701e-06 0)
(-15.5521 -4.89551e-06 0)
(-15.5288 -4.84279e-06 0)
(-15.5058 -4.79099e-06 0)
(-15.4828 -4.739e-06 0)
(-15.4602 -4.69039e-06 0)
(-15.4376 -4.63927e-06 0)
(-15.4153 -4.59127e-06 0)
(-15.3931 -4.54322e-06 0)
(-15.3712 -4.49595e-06 0)
(-15.3494 -4.44965e-06 0)
(-15.3278 -4.40498e-06 0)
(-15.3063 -4.3613e-06 0)
(-15.285 -4.31675e-06 0)
(-15.2639 -4.27521e-06 0)
(-15.2429 -4.23276e-06 0)
(-15.2221 -4.19088e-06 0)
(-15.2015 -4.14964e-06 0)
(-15.1809 -4.10885e-06 0)
(-15.1606 -4.06583e-06 0)
(-15.1404 -4.02595e-06 0)
(-15.1204 -3.98785e-06 0)
(-15.1005 -3.9501e-06 0)
(-15.0807 -3.91297e-06 0)
(-15.0611 -3.87665e-06 0)
(-15.0416 -3.84028e-06 0)
(-15.0223 -3.80422e-06 0)
(-15.0031 -3.77387e-06 0)
(-14.985 -3.75252e-06 0)
(-14.968 -3.72478e-06 0)
(-14.951 -3.68903e-06 0)
(-14.9339 -3.65395e-06 0)
(-14.9168 -3.62099e-06 0)
(-14.8997 -3.58554e-06 0)
(-14.8826 -3.55313e-06 0)
(-14.8654 -3.52189e-06 0)
(-14.8482 -3.48994e-06 0)
(-14.831 -3.45836e-06 0)
(-14.8138 -3.42838e-06 0)
(-14.7965 -3.39655e-06 0)
(-14.7792 -3.36604e-06 0)
(-14.7618 -3.33498e-06 0)
(-14.7445 -3.30718e-06 0)
(-14.727 -3.27815e-06 0)
(-14.7096 -3.25023e-06 0)
(-14.6921 -3.21792e-06 0)
(-14.6746 -3.18804e-06 0)
(-14.6571 -3.16019e-06 0)
(-14.6395 -3.12915e-06 0)
(-14.6219 -3.09909e-06 0)
(-14.6044 -3.06928e-06 0)
(-14.5867 -3.04262e-06 0)
(-14.5691 -3.01412e-06 0)
(-14.5514 -2.98685e-06 0)
(-14.5337 -2.95847e-06 0)
(-14.516 -2.9296e-06 0)
(-14.4982 -2.90163e-06 0)
(-14.4804 -2.87302e-06 0)
(-14.4627 -2.84615e-06 0)
(-14.4448 -2.81678e-06 0)
(-14.427 -2.79041e-06 0)
(-14.4092 -2.76075e-06 0)
(-14.3914 -2.73223e-06 0)
(-14.3735 -2.70383e-06 0)
(-14.3557 -2.67714e-06 0)
(-14.3378 -2.65055e-06 0)
(-14.3199 -2.62333e-06 0)
(-14.302 -2.5982e-06 0)
(-14.2841 -2.57389e-06 0)
(-14.2661 -2.55007e-06 0)
(-14.2482 -2.52366e-06 0)
(-14.2302 -2.499e-06 0)
(-14.2122 -2.47274e-06 0)
(-14.1942 -2.44987e-06 0)
(-14.1762 -2.42459e-06 0)
(-14.1582 -2.39965e-06 0)
(-14.1401 -2.37429e-06 0)
(-14.1221 -2.348e-06 0)
(-14.1041 -2.32368e-06 0)
(-14.086 -2.29846e-06 0)
(-14.068 -2.2733e-06 0)
(-14.05 -2.25155e-06 0)
(-14.0319 -2.22549e-06 0)
(-14.0139 -2.20332e-06 0)
(-13.9958 -2.18049e-06 0)
(-13.9778 -2.15649e-06 0)
(-13.9597 -2.13433e-06 0)
(-13.9416 -2.1112e-06 0)
(-13.9236 -2.08838e-06 0)
(-13.9055 -2.06577e-06 0)
(-13.8874 -2.04258e-06 0)
(-13.8694 -2.01927e-06 0)
(-13.8514 -1.99582e-06 0)
(-13.8334 -1.9751e-06 0)
(-13.8153 -1.95488e-06 0)
(-13.7973 -1.93407e-06 0)
(-13.7792 -1.91409e-06 0)
(-13.7612 -1.89426e-06 0)
(-13.7431 -1.87248e-06 0)
(-13.7251 -1.85071e-06 0)
(-13.7071 -1.8312e-06 0)
(-13.6891 -1.80979e-06 0)
(-13.671 -1.78863e-06 0)
(-13.6531 -1.76872e-06 0)
(-13.6351 -1.74925e-06 0)
(-13.6171 -1.73009e-06 0)
(-13.5991 -1.71134e-06 0)
(-13.5812 -1.69078e-06 0)
(-13.5632 -1.67235e-06 0)
(-13.5453 -1.65338e-06 0)
(-13.5273 -1.63598e-06 0)
(-13.5094 -1.61598e-06 0)
(-13.4915 -1.59774e-06 0)
(-13.4736 -1.57969e-06 0)
(-13.4557 -1.56109e-06 0)
(-13.4378 -1.5435e-06 0)
(-13.4199 -1.52548e-06 0)
(-13.4021 -1.50739e-06 0)
(-13.3843 -1.48854e-06 0)
(-13.3665 -1.47116e-06 0)
(-13.3487 -1.45358e-06 0)
(-13.331 -1.43619e-06 0)
(-13.3132 -1.4207e-06 0)
(-13.2955 -1.40479e-06 0)
(-13.2778 -1.38751e-06 0)
(-13.2601 -1.36931e-06 0)
(-13.2424 -1.35293e-06 0)
(-13.2248 -1.33767e-06 0)
(-13.2072 -1.32356e-06 0)
(-13.1895 -1.30701e-06 0)
(-13.172 -1.29056e-06 0)
(-13.1544 -1.27609e-06 0)
(-13.1368 -1.25938e-06 0)
(-13.1193 -1.24513e-06 0)
(-13.1018 -1.23001e-06 0)
(-13.0844 -1.2167e-06 0)
(-13.0669 -1.20175e-06 0)
(-13.0494 -1.18644e-06 0)
(-13.032 -1.17187e-06 0)
(-13.0147 -1.15752e-06 0)
(-12.9973 -1.14344e-06 0)
(-12.98 -1.12778e-06 0)
(-12.9627 -1.11298e-06 0)
(-12.9455 -1.10008e-06 0)
(-12.9282 -1.08727e-06 0)
(-12.911 -1.07544e-06 0)
(-12.8938 -1.06162e-06 0)
(-12.8767 -1.04785e-06 0)
(-12.8595 -1.03554e-06 0)
(-12.8424 -1.02226e-06 0)
(-12.8253 -1.00901e-06 0)
(-12.8083 -9.9758e-07 0)
(-12.7912 -9.84751e-07 0)
(-12.7743 -9.73084e-07 0)
(-12.7572 -9.61963e-07 0)
(-12.7403 -9.49106e-07 0)
(-12.7234 -9.39077e-07 0)
(-12.7065 -9.27226e-07 0)
(-12.6896 -9.14584e-07 0)
(-12.6728 -9.00769e-07 0)
(-12.656 -8.89006e-07 0)
(-12.6393 -8.7945e-07 0)
(-12.6225 -8.69215e-07 0)
(-12.6058 -8.57924e-07 0)
(-12.5892 -8.47007e-07 0)
(-12.5725 -8.35663e-07 0)
(-12.556 -8.25613e-07 0)
(-12.5394 -8.15484e-07 0)
(-12.5228 -8.03586e-07 0)
(-12.5064 -7.92614e-07 0)
(-12.4899 -7.83218e-07 0)
(-12.4735 -7.73179e-07 0)
(-12.4571 -7.63501e-07 0)
(-12.4408 -7.53171e-07 0)
(-12.4245 -7.44012e-07 0)
(-12.4082 -7.34711e-07 0)
(-12.392 -7.25421e-07 0)
(-12.3757 -7.15002e-07 0)
(-12.3596 -7.05715e-07 0)
(-12.3434 -6.96912e-07 0)
(-12.3274 -6.88325e-07 0)
(-12.3113 -6.7926e-07 0)
(-12.2953 -6.70007e-07 0)
(-12.2793 -6.6109e-07 0)
(-12.2634 -6.53056e-07 0)
(-12.2474 -6.44245e-07 0)
(-12.2316 -6.34629e-07 0)
(-12.2157 -6.27067e-07 0)
(-12.2 -6.19279e-07 0)
(-12.1842 -6.10589e-07 0)
(-12.1685 -6.01095e-07 0)
(-12.1529 -5.93292e-07 0)
(-12.1373 -5.86102e-07 0)
(-12.1217 -5.78275e-07 0)
(-12.1062 -5.70883e-07 0)
(-12.0906 -5.6367e-07 0)
(-12.0752 -5.55498e-07 0)
(-12.0598 -5.4796e-07 0)
(-12.0444 -5.40649e-07 0)
(-12.0291 -5.33366e-07 0)
(-12.0138 -5.2644e-07 0)
(-11.9985 -5.19732e-07 0)
(-11.9833 -5.12162e-07 0)
(-11.9682 -5.05736e-07 0)
(-11.953 -4.98825e-07 0)
(-11.9379 -4.91912e-07 0)
(-11.9229 -4.85305e-07 0)
(-11.9079 -4.79105e-07 0)
(-11.8929 -4.70324e-07 0)
(-11.8765 -4.61369e-07 0)
(-11.8585 -4.53408e-07 0)
(-11.841 -4.46973e-07 0)
(-11.8236 -4.40513e-07 0)
(-11.8065 -4.33856e-07 0)
(-11.7896 -4.27432e-07 0)
(-11.7731 -4.21031e-07 0)
(-11.7567 -4.14566e-07 0)
(-11.7407 -4.08989e-07 0)
(-11.7247 -4.03066e-07 0)
(-11.7091 -3.96643e-07 0)
(-11.6936 -3.9089e-07 0)
(-11.6785 -3.8524e-07 0)
(-11.6635 -3.79739e-07 0)
(-11.6488 -3.74498e-07 0)
(-11.6342 -3.69792e-07 0)
(-11.6199 -3.64247e-07 0)
(-11.6057 -3.59654e-07 0)
(-11.5917 -3.54319e-07 0)
(-11.578 -3.4968e-07 0)
(-11.5644 -3.45671e-07 0)
(-11.5509 -3.41385e-07 0)
(-11.5377 -3.36048e-07 0)
(-11.5246 -3.31638e-07 0)
(-11.5117 -3.27509e-07 0)
(-11.499 -3.23753e-07 0)
(-11.4864 -3.20553e-07 0)
(-11.4739 -3.1576e-07 0)
(-11.4617 -3.12521e-07 0)
(-11.4495 -3.08999e-07 0)
(-11.4375 -3.04694e-07 0)
(-11.4256 -3.00651e-07 0)
(-11.414 -2.97915e-07 0)
(-11.4023 -2.94831e-07 0)
(-11.3909 -2.91864e-07 0)
(-11.3795 -2.8849e-07 0)
(-11.3683 -2.8522e-07 0)
(-11.3572 -2.82041e-07 0)
(-11.3463 -2.78514e-07 0)
(-11.3354 -2.75595e-07 0)
(-11.3247 -2.72374e-07 0)
(-11.3141 -2.69526e-07 0)
(-11.3036 -2.66871e-07 0)
(-11.2932 -2.63634e-07 0)
(-11.283 -2.60967e-07 0)
(-11.2728 -2.58509e-07 0)
(-11.2628 -2.55249e-07 0)
(-11.2528 -2.52783e-07 0)
(-11.243 -2.49967e-07 0)
(-11.2333 -2.47565e-07 0)
(-11.2236 -2.44961e-07 0)
(-11.2141 -2.43298e-07 0)
(-11.2046 -2.40422e-07 0)
(-11.1953 -2.38008e-07 0)
(-11.186 -2.35842e-07 0)
(-11.1768 -2.33268e-07 0)
(-11.1677 -2.30989e-07 0)
(-11.1588 -2.28608e-07 0)
(-11.1498 -2.26007e-07 0)
(-11.1411 -2.23795e-07 0)
(-11.1323 -2.22104e-07 0)
(-11.1237 -2.20107e-07 0)
(-11.1151 -2.18048e-07 0)
(-11.1066 -2.15927e-07 0)
(-11.0982 -2.1412e-07 0)
(-11.0899 -2.1193e-07 0)
(-11.0816 -2.09848e-07 0)
(-11.0735 -2.08159e-07 0)
(-11.0653 -2.07523e-07 0)
(-11.0572 -2.04678e-07 0)
(-11.0493 -2.03399e-07 0)
(-11.0413 -2.01503e-07 0)
(-11.0336 -2.00387e-07 0)
(-11.0256 -1.98525e-07 0)
(-11.018 -1.97348e-07 0)
(-11.0102 -1.95147e-07 0)
(-11.0028 -1.94825e-07 0)
(-10.995 -1.92347e-07 0)
(-10.9877 -1.91807e-07 0)
(-10.9799 -1.89532e-07 0)
(-10.9729 -1.89155e-07 0)
(-10.9651 -1.87703e-07 0)
(-10.9582 -1.86791e-07 0)
(-10.9505 -1.85788e-07 0)
(-10.9437 -1.83586e-07 0)
(-10.9362 -1.83108e-07 0)
(-10.9293 -1.79119e-07 0)
(-10.9222 -1.82604e-07 0)
(-10.915 -1.72586e-07 0)
(-10.9087 -1.862e-07 0)
(-10.9005 -1.60041e-07 0)
(-10.8962 -1.99378e-07 0)
(-10.8848 -1.36804e-07 0)
(-10.8857 -1.73591e-07 0)
(-10.8709 -1.93099e-07 0)
)
;
    }
    symmetry
    {
        type            symmetryPlane;
    }
    frontAndBack
    {
        type            empty;
    }
}


// ************************************************************************* //
