/*--------------------------------*- C++ -*----------------------------------*\
| =========                 |                                                 |
| \\      /  F ield         | OpenFOAM: The Open Source CFD Toolbox           |
|  \\    /   O peration     | Version:  v2012                                 |
|   \\  /    A nd           | Website:  www.openfoam.com                      |
|    \\/     M anipulation  |                                                 |
\*---------------------------------------------------------------------------*/
FoamFile
{
    version     2.0;
    format      ascii;
    class       volScalarField;
    location    "27.5";
    object      yPlus;
}
// * * * * * * * * * * * * * * * * * * * * * * * * * * * * * * * * * * * * * //

dimensions      [0 0 0 0 0 0 0];


internalField   uniform 0;

boundaryField
{
    inlet
    {
        type            calculated;
        value           uniform 0;
    }
    outlet
    {
        type            calculated;
        value           uniform 0;
    }
    topWall
    {
        type            calculated;
        value           nonuniform List<scalar> 
545
(
0.140347
0.242121
0.310619
0.365096
0.411203
0.451534
0.487547
0.520158
0.549991
0.577497
0.60301
0.626791
0.649047
0.669946
0.689627
0.708206
0.725781
0.742439
0.758253
0.773288
0.787601
0.801242
0.814257
0.826688
0.83857
0.849938
0.860822
0.87125
0.881247
0.890837
0.900042
0.908882
0.917375
0.92554
0.933393
0.940947
0.948219
0.95522
0.961964
0.968462
0.974725
0.980764
0.986588
0.992206
0.997628
1.00286
1.00791
1.01279
1.01751
1.02206
1.02646
1.03071
1.03482
1.0388
1.04265
1.04637
1.04996
1.05345
1.05682
1.06008
1.06323
1.06629
1.06925
1.07212
1.0749
1.07759
1.0802
1.08272
1.08517
1.08754
1.08984
1.09207
1.09421
1.09627
1.09832
1.10035
1.10236
1.10435
1.10633
1.1083
1.11024
1.11217
1.11409
1.11598
1.11787
1.11973
1.12158
1.12342
1.12524
1.12705
1.12884
1.13062
1.13238
1.13413
1.13586
1.13758
1.13913
1.14052
1.1419
1.14328
1.14466
1.14604
1.14742
1.1488
1.15018
1.15156
1.15293
1.15431
1.15569
1.15706
1.15844
1.15981
1.16118
1.16255
1.16392
1.16529
1.16666
1.16803
1.1694
1.17077
1.17213
1.1735
1.17486
1.17622
1.17759
1.17895
1.18031
1.18167
1.18302
1.18438
1.18574
1.18709
1.18845
1.1898
1.19115
1.1925
1.19385
1.1952
1.19655
1.1979
1.19924
1.20059
1.20193
1.20327
1.20461
1.20595
1.20729
1.20863
1.20996
1.2113
1.21263
1.21396
1.21529
1.21662
1.21795
1.21928
1.2206
1.22193
1.22325
1.22457
1.22589
1.22721
1.22852
1.22984
1.23115
1.23247
1.23378
1.23509
1.23639
1.2377
1.23901
1.24031
1.24161
1.24291
1.24421
1.24551
1.2468
1.24809
1.24939
1.25068
1.25196
1.25325
1.25453
1.25582
1.2571
1.25838
1.25965
1.26093
1.2622
1.26348
1.26475
1.26601
1.26728
1.26854
1.26981
1.27107
1.27232
1.27358
1.27484
1.27609
1.27734
1.27859
1.27983
1.28107
1.28232
1.28356
1.28479
1.28603
1.28726
1.28849
1.28972
1.29095
1.29217
1.29339
1.29461
1.29583
1.29704
1.29826
1.29946
1.30067
1.30188
1.30308
1.30428
1.30548
1.30667
1.30786
1.30905
1.31024
1.31143
1.31261
1.31379
1.31497
1.31614
1.31731
1.31848
1.31965
1.32081
1.32197
1.32313
1.32429
1.32544
1.32659
1.32773
1.32888
1.33002
1.33116
1.33229
1.33342
1.33455
1.33568
1.3368
1.33792
1.33904
1.34015
1.34126
1.34237
1.34348
1.34458
1.34568
1.34677
1.34786
1.34895
1.35004
1.35112
1.3522
1.35327
1.35435
1.35542
1.35648
1.35748
1.35843
1.35938
1.36033
1.36129
1.36226
1.36323
1.3642
1.36519
1.36617
1.36717
1.36816
1.36917
1.37017
1.37119
1.37221
1.37323
1.37426
1.37529
1.37633
1.37737
1.37842
1.37947
1.38052
1.38158
1.38265
1.38372
1.38479
1.38587
1.38695
1.38803
1.38912
1.39021
1.3913
1.3924
1.3935
1.39461
1.39572
1.39683
1.39794
1.39905
1.40017
1.40129
1.40241
1.40354
1.40466
1.40579
1.40692
1.40805
1.40918
1.41031
1.41144
1.41258
1.41371
1.41484
1.41598
1.41711
1.41824
1.41937
1.4205
1.42163
1.42276
1.42388
1.42501
1.42613
1.42724
1.42836
1.42947
1.43058
1.43169
1.43279
1.43389
1.43498
1.43607
1.43715
1.43823
1.4393
1.44036
1.44142
1.44248
1.44352
1.44456
1.44559
1.44661
1.44762
1.44862
1.44962
1.4506
1.45158
1.45254
1.45349
1.45444
1.45537
1.45628
1.45719
1.45808
1.45896
1.45982
1.46068
1.46151
1.46233
1.46314
1.46393
1.4647
1.46545
1.46619
1.46691
1.46761
1.4683
1.46896
1.4696
1.47023
1.47083
1.47141
1.47197
1.47251
1.47302
1.47351
1.47398
1.47442
1.47484
1.47524
1.47561
1.47595
1.47626
1.47655
1.47681
1.47705
1.47725
1.47743
1.47757
1.47769
1.47778
1.47783
1.47786
1.47785
1.47781
1.47774
1.47764
1.4775
1.47733
1.47713
1.47689
1.47662
1.47631
1.47597
1.47559
1.47517
1.47472
1.47424
1.47372
1.47315
1.47256
1.47192
1.47125
1.47054
1.46979
1.46901
1.46819
1.46732
1.46643
1.46549
1.46451
1.4635
1.46245
1.46135
1.46023
1.45906
1.45786
1.45661
1.45533
1.45401
1.45266
1.45127
1.44984
1.44837
1.44687
1.44533
1.44376
1.44215
1.44051
1.43864
1.43656
1.43445
1.43233
1.43019
1.42804
1.42587
1.42369
1.4215
1.4193
1.41709
1.41488
1.41266
1.41045
1.40823
1.40601
1.40379
1.40158
1.39936
1.39716
1.39496
1.39277
1.39059
1.38841
1.38625
1.3841
1.38196
1.37983
1.37771
1.37562
1.37353
1.37147
1.36942
1.36739
1.36537
1.36338
1.36141
1.35946
1.35752
1.35562
1.35373
1.35187
1.35002
1.34821
1.34642
1.34465
1.34291
1.3412
1.33951
1.33786
1.33622
1.33462
1.33305
1.33151
1.32999
1.32851
1.32705
1.32563
1.32424
1.32288
1.32156
1.32026
1.319
1.31778
1.31658
1.31542
1.3143
1.31321
1.31215
1.31114
1.31015
1.30921
1.3083
1.30743
1.30659
1.30579
1.30503
1.30431
1.30362
1.30297
1.30237
1.3018
1.30127
1.30078
1.30032
1.29991
1.29954
1.29921
1.29891
1.29866
1.29845
1.29827
1.29814
1.29805
1.29796
)
;
    }
    bottomWall
    {
        type            calculated;
        value           nonuniform List<scalar> 
449
(
0.00274305
0.00481015
0.00538365
0.00533536
0.00526328
0.00516651
0.00506858
0.00497682
0.00489257
0.0048157
0.00474548
0.00468118
0.00462191
0.00456693
0.0045157
0.00446788
0.00442313
0.00438115
0.00434168
0.00430446
0.00426929
0.00423594
0.00420427
0.0041741
0.00414529
0.00411773
0.00409131
0.00406595
0.00404154
0.00401802
0.00399533
0.00397342
0.00395221
0.00393169
0.00391178
0.00389247
0.00387371
0.00385547
0.00383773
0.00382045
0.00380362
0.00378721
0.0037712
0.00375557
0.00374032
0.00372542
0.00371087
0.00369664
0.00368275
0.00366915
0.00365587
0.00364286
0.00363013
0.00361766
0.00360545
0.00359349
0.00358175
0.00357025
0.00355896
0.00354788
0.003537
0.00352632
0.00351582
0.00350551
0.00349537
0.00348541
0.0034756
0.00346596
0.00345646
0.00344713
0.00343793
0.00342887
0.00341996
0.00341118
0.00340254
0.00339401
0.00338562
0.00337734
0.00336919
0.00336114
0.00335323
0.0033454
0.0033377
0.00333007
0.00332259
0.00331516
0.00330788
0.00330065
0.00329355
0.0032865
0.00327958
0.00327271
0.00326597
0.00325926
0.00325268
0.00324614
0.00323972
0.00323333
0.00322706
0.00322081
0.00321469
0.00320859
0.0032026
0.00319664
0.00319079
0.00318495
0.00317923
0.00317352
0.00316792
0.00316233
0.00315684
0.00315137
0.003146
0.00314065
0.00313539
0.00313015
0.00312499
0.00311985
0.00311479
0.00310975
0.00310479
0.00309985
0.00309498
0.00309013
0.00308536
0.0030806
0.00307593
0.00307126
0.00306667
0.00306208
0.00305757
0.00305307
0.00304863
0.00304421
0.00303985
0.00303551
0.00303123
0.00302696
0.00302276
0.00301857
0.00301443
0.00301031
0.00300623
0.00300218
0.00299817
0.00299418
0.00299023
0.0029863
0.00298241
0.00297854
0.00297472
0.00297091
0.00296716
0.0029634
0.0029597
0.00295601
0.00295237
0.00294872
0.00294514
0.00294155
0.00293801
0.00293447
0.00293098
0.0029275
0.00292406
0.00292063
0.00291724
0.00291386
0.00291051
0.00290717
0.00290387
0.00290058
0.00289733
0.00289425
0.00289136
0.00288846
0.00288556
0.00288265
0.00287975
0.00287683
0.00287391
0.00287098
0.00286805
0.0028651
0.00286216
0.0028592
0.00285624
0.00285328
0.0028503
0.00284732
0.00284433
0.00284135
0.00283834
0.00283534
0.00283233
0.00282933
0.00282631
0.00282328
0.00282025
0.00281722
0.00281418
0.00281114
0.00280809
0.00280504
0.00280198
0.00279893
0.00279586
0.0027928
0.00278973
0.00278667
0.00278359
0.00278052
0.00277744
0.00277436
0.00277126
0.00276818
0.00276507
0.00276198
0.00275887
0.00275576
0.00275266
0.00274954
0.00274643
0.00274332
0.00274021
0.00273709
0.00273398
0.00273085
0.00272774
0.00272461
0.0027215
0.00271836
0.00271524
0.00271211
0.00270899
0.00270585
0.00270273
0.0026996
0.00269649
0.00269335
0.00269022
0.00268708
0.00268395
0.00268081
0.00267768
0.00267454
0.00267141
0.00266828
0.00266515
0.00266201
0.00265889
0.00265575
0.00265263
0.00264949
0.00264637
0.00264324
0.0026401
0.00263698
0.00263385
0.00263073
0.00262761
0.00262449
0.00262137
0.00261825
0.00261514
0.00261203
0.00260893
0.00260582
0.00260272
0.00259961
0.00259652
0.00259343
0.00259033
0.00258725
0.00258415
0.00258107
0.00257798
0.0025749
0.00257183
0.00256875
0.00256568
0.00256261
0.00255955
0.00255648
0.00255343
0.00255037
0.00254732
0.00254428
0.00254125
0.00253821
0.00253518
0.00253213
0.00252912
0.00252609
0.00252308
0.00252006
0.00251706
0.00251404
0.00251105
0.00250804
0.00250505
0.00250205
0.00249906
0.00249607
0.0024931
0.00249014
0.00248717
0.00248421
0.00248125
0.00247829
0.00247535
0.00247241
0.00246947
0.00246653
0.00246361
0.0024607
0.00245778
0.00245487
0.00245196
0.00244907
0.00244617
0.00244329
0.0024404
0.00243754
0.00243465
0.0024318
0.00242893
0.00242609
0.00242323
0.00242041
0.00241755
0.00241474
0.00241191
0.00240911
0.00240628
0.0024035
0.0024007
0.00239792
0.00239513
0.00239237
0.00238959
0.00238683
0.00238407
0.00238133
0.00237858
0.00237585
0.00237311
0.00237039
0.00236767
0.00236496
0.00236226
0.00235956
0.00235687
0.00235419
0.00235124
0.00234802
0.00234487
0.00234173
0.00233868
0.00233564
0.00233267
0.00232972
0.00232684
0.00232397
0.00232118
0.00231839
0.00231567
0.00231297
0.00231033
0.00230769
0.00230512
0.00230256
0.00230005
0.00229757
0.00229511
0.00229268
0.00229029
0.00228794
0.00228561
0.00228332
0.00228103
0.00227878
0.00227657
0.00227436
0.0022722
0.00227005
0.00226794
0.00226582
0.00226375
0.00226168
0.00225966
0.00225763
0.00225566
0.00225368
0.00225175
0.00224982
0.00224792
0.00224603
0.00224419
0.00224233
0.00224052
0.00223871
0.00223693
0.00223516
0.00223341
0.00223167
0.00222994
0.00222825
0.00222656
0.00222489
0.00222324
0.00222161
0.00221998
0.00221839
0.00221679
0.00221522
0.00221365
0.00221211
0.00221057
0.00220906
0.00220755
0.00220607
0.00220458
0.0022031
0.00220166
0.00220019
0.00219878
0.00219733
0.00219594
0.0021945
0.00219315
0.00219171
0.0021904
0.00218897
0.00218768
0.00218625
0.00218499
0.00218357
0.00218232
0.00218093
0.0021797
0.00217837
0.00217709
0.00217589
0.00217447
0.00217356
0.0021717
0.00217149
0.00216913
)
;
    }
    symmetry
    {
        type            symmetryPlane;
    }
    frontAndBack
    {
        type            empty;
    }
}


// ************************************************************************* //
