/*--------------------------------*- C++ -*----------------------------------*\
| =========                 |                                                 |
| \\      /  F ield         | OpenFOAM: The Open Source CFD Toolbox           |
|  \\    /   O peration     | Version:  v2012                                 |
|   \\  /    A nd           | Website:  www.openfoam.com                      |
|    \\/     M anipulation  |                                                 |
\*---------------------------------------------------------------------------*/
FoamFile
{
    version     2.0;
    format      ascii;
    class       volVectorField;
    location    "42.5";
    object      wallShearStress;
}
// * * * * * * * * * * * * * * * * * * * * * * * * * * * * * * * * * * * * * //

dimensions      [0 2 -2 0 0 0 0];


internalField   uniform (0 0 0);

boundaryField
{
    inlet
    {
        type            calculated;
        value           uniform (0 0 0);
    }
    outlet
    {
        type            calculated;
        value           uniform (0 0 0);
    }
    topWall
    {
        type            calculated;
        value           nonuniform List<vector> 
545
(
(1.48715e-08 -1.04682e-08 0)
(1.48647e-08 -2.92862e-08 0)
(1.48509e-08 -4.88525e-08 0)
(1.48304e-08 -6.7845e-08 0)
(1.48043e-08 -8.60164e-08 0)
(1.4773e-08 -1.03598e-07 0)
(1.47371e-08 -1.20738e-07 0)
(1.46968e-08 -1.37427e-07 0)
(1.46527e-08 -1.53627e-07 0)
(1.46049e-08 -1.69337e-07 0)
(1.45541e-08 -1.84577e-07 0)
(1.45004e-08 -1.99364e-07 0)
(1.44441e-08 -2.13709e-07 0)
(1.43857e-08 -2.2762e-07 0)
(1.43252e-08 -2.41108e-07 0)
(1.42631e-08 -2.54184e-07 0)
(1.41995e-08 -2.66859e-07 0)
(1.41346e-08 -2.79144e-07 0)
(1.40687e-08 -2.9105e-07 0)
(1.40019e-08 -3.02588e-07 0)
(1.39345e-08 -3.13768e-07 0)
(1.38665e-08 -3.246e-07 0)
(1.37982e-08 -3.35094e-07 0)
(1.37296e-08 -3.45262e-07 0)
(1.3661e-08 -3.55112e-07 0)
(1.35923e-08 -3.64654e-07 0)
(1.35238e-08 -3.73898e-07 0)
(1.34555e-08 -3.82852e-07 0)
(1.33875e-08 -3.91527e-07 0)
(1.33199e-08 -3.9993e-07 0)
(1.32528e-08 -4.0807e-07 0)
(1.31862e-08 -4.15956e-07 0)
(1.31202e-08 -4.23595e-07 0)
(1.30548e-08 -4.30996e-07 0)
(1.29902e-08 -4.38165e-07 0)
(1.29263e-08 -4.45111e-07 0)
(1.28631e-08 -4.51841e-07 0)
(1.28008e-08 -4.58362e-07 0)
(1.27394e-08 -4.6468e-07 0)
(1.26788e-08 -4.70802e-07 0)
(1.26191e-08 -4.76734e-07 0)
(1.25604e-08 -4.82483e-07 0)
(1.25025e-08 -4.88055e-07 0)
(1.24456e-08 -4.93454e-07 0)
(1.23897e-08 -4.98688e-07 0)
(1.23347e-08 -5.03761e-07 0)
(1.22808e-08 -5.08678e-07 0)
(1.22277e-08 -5.13445e-07 0)
(1.21757e-08 -5.18066e-07 0)
(1.21246e-08 -5.22546e-07 0)
(1.20745e-08 -5.2689e-07 0)
(1.20254e-08 -5.31103e-07 0)
(1.19772e-08 -5.35187e-07 0)
(1.193e-08 -5.39148e-07 0)
(1.18838e-08 -5.4299e-07 0)
(1.18385e-08 -5.46715e-07 0)
(1.17942e-08 -5.50329e-07 0)
(1.17507e-08 -5.53835e-07 0)
(1.17082e-08 -5.57236e-07 0)
(1.16666e-08 -5.60535e-07 0)
(1.16259e-08 -5.63735e-07 0)
(1.15861e-08 -5.66841e-07 0)
(1.15472e-08 -5.69855e-07 0)
(1.15091e-08 -5.72779e-07 0)
(1.14719e-08 -5.75617e-07 0)
(1.14355e-08 -5.78371e-07 0)
(1.13999e-08 -5.81044e-07 0)
(1.13652e-08 -5.83639e-07 0)
(1.13312e-08 -5.86157e-07 0)
(1.1298e-08 -5.88602e-07 0)
(1.12655e-08 -5.90976e-07 0)
(1.12341e-08 -5.93278e-07 0)
(1.12035e-08 -5.9549e-07 0)
(1.11735e-08 -5.97633e-07 0)
(1.11437e-08 -5.99751e-07 0)
(1.11141e-08 -6.01856e-07 0)
(1.10845e-08 -6.03949e-07 0)
(1.1055e-08 -6.06027e-07 0)
(1.10256e-08 -6.0809e-07 0)
(1.09962e-08 -6.10137e-07 0)
(1.09669e-08 -6.1217e-07 0)
(1.09376e-08 -6.14188e-07 0)
(1.09084e-08 -6.16191e-07 0)
(1.08793e-08 -6.1818e-07 0)
(1.08502e-08 -6.20155e-07 0)
(1.08212e-08 -6.22115e-07 0)
(1.07922e-08 -6.24061e-07 0)
(1.07633e-08 -6.25993e-07 0)
(1.07345e-08 -6.27911e-07 0)
(1.07057e-08 -6.29815e-07 0)
(1.0677e-08 -6.31705e-07 0)
(1.06484e-08 -6.33582e-07 0)
(1.06198e-08 -6.35445e-07 0)
(1.05914e-08 -6.37294e-07 0)
(1.05627e-08 -6.39133e-07 0)
(1.05355e-08 -6.4094e-07 0)
(1.05104e-08 -6.42593e-07 0)
(1.04861e-08 -6.44088e-07 0)
(1.04627e-08 -6.45543e-07 0)
(1.04394e-08 -6.47003e-07 0)
(1.0416e-08 -6.48476e-07 0)
(1.03926e-08 -6.4995e-07 0)
(1.03691e-08 -6.51422e-07 0)
(1.03455e-08 -6.52893e-07 0)
(1.03218e-08 -6.54363e-07 0)
(1.0298e-08 -6.55835e-07 0)
(1.02741e-08 -6.57306e-07 0)
(1.02501e-08 -6.58778e-07 0)
(1.0226e-08 -6.6025e-07 0)
(1.02018e-08 -6.61721e-07 0)
(1.01776e-08 -6.63193e-07 0)
(1.01532e-08 -6.64664e-07 0)
(1.01288e-08 -6.66135e-07 0)
(1.01042e-08 -6.67607e-07 0)
(1.00796e-08 -6.69078e-07 0)
(1.00548e-08 -6.70549e-07 0)
(1.003e-08 -6.7202e-07 0)
(1.00051e-08 -6.7349e-07 0)
(9.98007e-09 -6.74961e-07 0)
(9.95496e-09 -6.76431e-07 0)
(9.92975e-09 -6.77901e-07 0)
(9.90445e-09 -6.79371e-07 0)
(9.87905e-09 -6.8084e-07 0)
(9.85356e-09 -6.8231e-07 0)
(9.82798e-09 -6.83778e-07 0)
(9.8023e-09 -6.85247e-07 0)
(9.77652e-09 -6.86715e-07 0)
(9.75065e-09 -6.88182e-07 0)
(9.72469e-09 -6.89649e-07 0)
(9.69863e-09 -6.91116e-07 0)
(9.67248e-09 -6.92582e-07 0)
(9.64623e-09 -6.94048e-07 0)
(9.61988e-09 -6.95513e-07 0)
(9.59345e-09 -6.96978e-07 0)
(9.56691e-09 -6.98442e-07 0)
(9.54029e-09 -6.99905e-07 0)
(9.51356e-09 -7.01368e-07 0)
(9.48674e-09 -7.0283e-07 0)
(9.45983e-09 -7.04291e-07 0)
(9.43282e-09 -7.05752e-07 0)
(9.40572e-09 -7.07211e-07 0)
(9.37852e-09 -7.0867e-07 0)
(9.35123e-09 -7.10129e-07 0)
(9.32384e-09 -7.11586e-07 0)
(9.29636e-09 -7.13043e-07 0)
(9.26879e-09 -7.14499e-07 0)
(9.24111e-09 -7.15953e-07 0)
(9.21335e-09 -7.17407e-07 0)
(9.18549e-09 -7.1886e-07 0)
(9.15753e-09 -7.20312e-07 0)
(9.12948e-09 -7.21763e-07 0)
(9.10134e-09 -7.23213e-07 0)
(9.0731e-09 -7.24662e-07 0)
(9.04477e-09 -7.26109e-07 0)
(9.01634e-09 -7.27556e-07 0)
(8.98782e-09 -7.29001e-07 0)
(8.9592e-09 -7.30445e-07 0)
(8.93049e-09 -7.31888e-07 0)
(8.90169e-09 -7.3333e-07 0)
(8.8728e-09 -7.3477e-07 0)
(8.8438e-09 -7.3621e-07 0)
(8.81472e-09 -7.37647e-07 0)
(8.78554e-09 -7.39084e-07 0)
(8.75627e-09 -7.40519e-07 0)
(8.72691e-09 -7.41952e-07 0)
(8.69745e-09 -7.43385e-07 0)
(8.6679e-09 -7.44815e-07 0)
(8.63826e-09 -7.46244e-07 0)
(8.60853e-09 -7.47672e-07 0)
(8.5787e-09 -7.49098e-07 0)
(8.54878e-09 -7.50523e-07 0)
(8.51877e-09 -7.51945e-07 0)
(8.48867e-09 -7.53366e-07 0)
(8.45847e-09 -7.54786e-07 0)
(8.42819e-09 -7.56204e-07 0)
(8.39781e-09 -7.5762e-07 0)
(8.36734e-09 -7.59034e-07 0)
(8.33678e-09 -7.60446e-07 0)
(8.30613e-09 -7.61856e-07 0)
(8.27539e-09 -7.63265e-07 0)
(8.24456e-09 -7.64672e-07 0)
(8.21364e-09 -7.66076e-07 0)
(8.18263e-09 -7.67479e-07 0)
(8.15153e-09 -7.6888e-07 0)
(8.12034e-09 -7.70278e-07 0)
(8.08906e-09 -7.71675e-07 0)
(8.05769e-09 -7.73069e-07 0)
(8.02624e-09 -7.74462e-07 0)
(7.99469e-09 -7.75852e-07 0)
(7.96306e-09 -7.7724e-07 0)
(7.93134e-09 -7.78625e-07 0)
(7.89953e-09 -7.80009e-07 0)
(7.86764e-09 -7.8139e-07 0)
(7.83566e-09 -7.82768e-07 0)
(7.80359e-09 -7.84145e-07 0)
(7.77144e-09 -7.85518e-07 0)
(7.7392e-09 -7.8689e-07 0)
(7.70688e-09 -7.88259e-07 0)
(7.67447e-09 -7.89625e-07 0)
(7.64198e-09 -7.90989e-07 0)
(7.6094e-09 -7.9235e-07 0)
(7.57674e-09 -7.93709e-07 0)
(7.54399e-09 -7.95065e-07 0)
(7.51116e-09 -7.96418e-07 0)
(7.47825e-09 -7.97769e-07 0)
(7.44526e-09 -7.99116e-07 0)
(7.41218e-09 -8.00461e-07 0)
(7.37903e-09 -8.01803e-07 0)
(7.34579e-09 -8.03143e-07 0)
(7.31247e-09 -8.04479e-07 0)
(7.27907e-09 -8.05812e-07 0)
(7.24559e-09 -8.07143e-07 0)
(7.21203e-09 -8.0847e-07 0)
(7.17839e-09 -8.09794e-07 0)
(7.14468e-09 -8.11116e-07 0)
(7.11088e-09 -8.12434e-07 0)
(7.07701e-09 -8.13749e-07 0)
(7.04306e-09 -8.1506e-07 0)
(7.00903e-09 -8.16369e-07 0)
(6.97493e-09 -8.17674e-07 0)
(6.94076e-09 -8.18976e-07 0)
(6.9065e-09 -8.20275e-07 0)
(6.87218e-09 -8.2157e-07 0)
(6.83778e-09 -8.22861e-07 0)
(6.8033e-09 -8.2415e-07 0)
(6.76875e-09 -8.25435e-07 0)
(6.73413e-09 -8.26716e-07 0)
(6.69944e-09 -8.27993e-07 0)
(6.66468e-09 -8.29268e-07 0)
(6.62985e-09 -8.30538e-07 0)
(6.59495e-09 -8.31805e-07 0)
(6.55997e-09 -8.33068e-07 0)
(6.52493e-09 -8.34327e-07 0)
(6.48982e-09 -8.35582e-07 0)
(6.45464e-09 -8.36834e-07 0)
(6.4194e-09 -8.38082e-07 0)
(6.38409e-09 -8.39325e-07 0)
(6.34871e-09 -8.40565e-07 0)
(6.31327e-09 -8.41801e-07 0)
(6.27777e-09 -8.43033e-07 0)
(6.2422e-09 -8.44261e-07 0)
(6.20657e-09 -8.45484e-07 0)
(6.17087e-09 -8.46704e-07 0)
(6.13512e-09 -8.47919e-07 0)
(6.0993e-09 -8.4913e-07 0)
(6.06342e-09 -8.50337e-07 0)
(6.02749e-09 -8.5154e-07 0)
(5.99149e-09 -8.52738e-07 0)
(5.95544e-09 -8.53932e-07 0)
(5.91933e-09 -8.55121e-07 0)
(5.88316e-09 -8.56306e-07 0)
(5.84694e-09 -8.57487e-07 0)
(5.81066e-09 -8.58663e-07 0)
(5.77433e-09 -8.59834e-07 0)
(5.73794e-09 -8.61001e-07 0)
(5.70151e-09 -8.62163e-07 0)
(5.66502e-09 -8.6332e-07 0)
(5.62848e-09 -8.64473e-07 0)
(5.59188e-09 -8.65621e-07 0)
(5.55524e-09 -8.66764e-07 0)
(5.51856e-09 -8.67902e-07 0)
(5.48182e-09 -8.69035e-07 0)
(5.44504e-09 -8.70164e-07 0)
(5.40821e-09 -8.71287e-07 0)
(5.37134e-09 -8.72406e-07 0)
(5.33441e-09 -8.73519e-07 0)
(5.2975e-09 -8.74627e-07 0)
(5.26028e-09 -8.75732e-07 0)
(5.22413e-09 -8.76824e-07 0)
(5.18951e-09 -8.7786e-07 0)
(5.15541e-09 -8.7884e-07 0)
(5.12173e-09 -8.7981e-07 0)
(5.08791e-09 -8.80785e-07 0)
(5.0538e-09 -8.8177e-07 0)
(5.01937e-09 -8.82758e-07 0)
(4.98462e-09 -8.8375e-07 0)
(4.94953e-09 -8.84745e-07 0)
(4.91412e-09 -8.85744e-07 0)
(4.87837e-09 -8.86746e-07 0)
(4.84228e-09 -8.87752e-07 0)
(4.80586e-09 -8.88761e-07 0)
(4.76909e-09 -8.89774e-07 0)
(4.73199e-09 -8.90789e-07 0)
(4.69454e-09 -8.91808e-07 0)
(4.65675e-09 -8.92829e-07 0)
(4.61861e-09 -8.93853e-07 0)
(4.58012e-09 -8.9488e-07 0)
(4.54128e-09 -8.95909e-07 0)
(4.5021e-09 -8.96941e-07 0)
(4.46256e-09 -8.97974e-07 0)
(4.42267e-09 -8.99009e-07 0)
(4.38242e-09 -9.00047e-07 0)
(4.34182e-09 -9.01086e-07 0)
(4.30086e-09 -9.02126e-07 0)
(4.25955e-09 -9.03168e-07 0)
(4.21787e-09 -9.0421e-07 0)
(4.17584e-09 -9.05254e-07 0)
(4.13345e-09 -9.06298e-07 0)
(4.09069e-09 -9.07343e-07 0)
(4.04758e-09 -9.08389e-07 0)
(4.0041e-09 -9.09434e-07 0)
(3.96026e-09 -9.10479e-07 0)
(3.91606e-09 -9.11524e-07 0)
(3.8715e-09 -9.12568e-07 0)
(3.82658e-09 -9.13612e-07 0)
(3.78129e-09 -9.14654e-07 0)
(3.73564e-09 -9.15696e-07 0)
(3.68963e-09 -9.16735e-07 0)
(3.64325e-09 -9.17773e-07 0)
(3.59652e-09 -9.18809e-07 0)
(3.54943e-09 -9.19843e-07 0)
(3.50197e-09 -9.20874e-07 0)
(3.45416e-09 -9.21902e-07 0)
(3.40599e-09 -9.22926e-07 0)
(3.35747e-09 -9.23948e-07 0)
(3.30859e-09 -9.24965e-07 0)
(3.25935e-09 -9.25979e-07 0)
(3.20977e-09 -9.26988e-07 0)
(3.15984e-09 -9.27992e-07 0)
(3.10955e-09 -9.28992e-07 0)
(3.05893e-09 -9.29985e-07 0)
(3.00796e-09 -9.30973e-07 0)
(2.95665e-09 -9.31955e-07 0)
(2.905e-09 -9.32931e-07 0)
(2.85302e-09 -9.339e-07 0)
(2.80071e-09 -9.34861e-07 0)
(2.74807e-09 -9.35815e-07 0)
(2.69511e-09 -9.3676e-07 0)
(2.64183e-09 -9.37698e-07 0)
(2.58823e-09 -9.38626e-07 0)
(2.53432e-09 -9.39546e-07 0)
(2.4801e-09 -9.40455e-07 0)
(2.42558e-09 -9.41355e-07 0)
(2.37076e-09 -9.42244e-07 0)
(2.31565e-09 -9.43122e-07 0)
(2.26026e-09 -9.43989e-07 0)
(2.20458e-09 -9.44843e-07 0)
(2.14863e-09 -9.45686e-07 0)
(2.09241e-09 -9.46515e-07 0)
(2.03593e-09 -9.47332e-07 0)
(1.9792e-09 -9.48134e-07 0)
(1.92221e-09 -9.48922e-07 0)
(1.86499e-09 -9.49696e-07 0)
(1.80753e-09 -9.50454e-07 0)
(1.74985e-09 -9.51196e-07 0)
(1.69196e-09 -9.51922e-07 0)
(1.63385e-09 -9.52631e-07 0)
(1.57555e-09 -9.53323e-07 0)
(1.51706e-09 -9.53996e-07 0)
(1.45839e-09 -9.54651e-07 0)
(1.39955e-09 -9.55287e-07 0)
(1.34054e-09 -9.55904e-07 0)
(1.2814e-09 -9.565e-07 0)
(1.22211e-09 -9.57075e-07 0)
(1.16269e-09 -9.57629e-07 0)
(1.10316e-09 -9.58161e-07 0)
(1.04353e-09 -9.5867e-07 0)
(9.83807e-10 -9.59156e-07 0)
(9.24005e-10 -9.59619e-07 0)
(8.64136e-10 -9.60057e-07 0)
(8.04215e-10 -9.60469e-07 0)
(7.44255e-10 -9.60857e-07 0)
(6.8427e-10 -9.61218e-07 0)
(6.24275e-10 -9.61552e-07 0)
(5.64283e-10 -9.61859e-07 0)
(5.0431e-10 -9.62137e-07 0)
(4.44371e-10 -9.62387e-07 0)
(3.84481e-10 -9.62607e-07 0)
(3.24658e-10 -9.62798e-07 0)
(2.64916e-10 -9.62957e-07 0)
(2.05272e-10 -9.63086e-07 0)
(1.45744e-10 -9.63182e-07 0)
(8.63477e-11 -9.63246e-07 0)
(2.71018e-11 -9.63276e-07 0)
(-3.19763e-11 -9.63273e-07 0)
(-9.08686e-11 -9.63235e-07 0)
(-1.49557e-10 -9.63162e-07 0)
(-2.08022e-10 -9.63053e-07 0)
(-2.66245e-10 -9.62908e-07 0)
(-3.24207e-10 -9.62726e-07 0)
(-3.81889e-10 -9.62506e-07 0)
(-4.3927e-10 -9.62248e-07 0)
(-4.96332e-10 -9.61951e-07 0)
(-5.53053e-10 -9.61615e-07 0)
(-6.09414e-10 -9.61238e-07 0)
(-6.65394e-10 -9.60821e-07 0)
(-7.20973e-10 -9.60363e-07 0)
(-7.76129e-10 -9.59862e-07 0)
(-8.30842e-10 -9.5932e-07 0)
(-8.8509e-10 -9.58734e-07 0)
(-9.38853e-10 -9.58105e-07 0)
(-9.92108e-10 -9.57432e-07 0)
(-1.04484e-09 -9.56715e-07 0)
(-1.09701e-09 -9.55952e-07 0)
(-1.14862e-09 -9.55144e-07 0)
(-1.19963e-09 -9.5429e-07 0)
(-1.25004e-09 -9.53389e-07 0)
(-1.2998e-09 -9.52442e-07 0)
(-1.34891e-09 -9.51447e-07 0)
(-1.39734e-09 -9.50404e-07 0)
(-1.44507e-09 -9.49314e-07 0)
(-1.49208e-09 -9.48174e-07 0)
(-1.53836e-09 -9.46986e-07 0)
(-1.58387e-09 -9.45749e-07 0)
(-1.62859e-09 -9.44462e-07 0)
(-1.67252e-09 -9.43126e-07 0)
(-1.71562e-09 -9.41739e-07 0)
(-1.75789e-09 -9.40302e-07 0)
(-1.79929e-09 -9.38815e-07 0)
(-1.83981e-09 -9.37277e-07 0)
(-1.87943e-09 -9.35688e-07 0)
(-1.91813e-09 -9.34048e-07 0)
(-1.95591e-09 -9.32357e-07 0)
(-1.99272e-09 -9.30614e-07 0)
(-2.02857e-09 -9.2882e-07 0)
(-2.06343e-09 -9.26975e-07 0)
(-2.0973e-09 -9.25079e-07 0)
(-2.13014e-09 -9.23132e-07 0)
(-2.16195e-09 -9.21133e-07 0)
(-2.19272e-09 -9.19083e-07 0)
(-2.22243e-09 -9.16982e-07 0)
(-2.25106e-09 -9.1483e-07 0)
(-2.27861e-09 -9.12628e-07 0)
(-2.30507e-09 -9.10375e-07 0)
(-2.33042e-09 -9.08072e-07 0)
(-2.35465e-09 -9.0572e-07 0)
(-2.37775e-09 -9.03317e-07 0)
(-2.39972e-09 -9.00866e-07 0)
(-2.42055e-09 -8.98365e-07 0)
(-2.44022e-09 -8.95817e-07 0)
(-2.45874e-09 -8.9322e-07 0)
(-2.4761e-09 -8.90576e-07 0)
(-2.4923e-09 -8.87886e-07 0)
(-2.50732e-09 -8.85149e-07 0)
(-2.52118e-09 -8.82366e-07 0)
(-2.53386e-09 -8.79538e-07 0)
(-2.54536e-09 -8.76666e-07 0)
(-2.55569e-09 -8.7375e-07 0)
(-2.56485e-09 -8.70792e-07 0)
(-2.57283e-09 -8.67791e-07 0)
(-2.57964e-09 -8.64749e-07 0)
(-2.58528e-09 -8.61667e-07 0)
(-2.58977e-09 -8.58545e-07 0)
(-2.59309e-09 -8.55384e-07 0)
(-2.59526e-09 -8.52186e-07 0)
(-2.59629e-09 -8.4895e-07 0)
(-2.59618e-09 -8.4568e-07 0)
(-2.59493e-09 -8.42372e-07 0)
(-2.59261e-09 -8.39038e-07 0)
(-2.58895e-09 -8.3563e-07 0)
(-2.58369e-09 -8.31867e-07 0)
(-2.57679e-09 -8.27747e-07 0)
(-2.56825e-09 -8.23553e-07 0)
(-2.55825e-09 -8.19384e-07 0)
(-2.54693e-09 -8.15256e-07 0)
(-2.53439e-09 -8.11151e-07 0)
(-2.52069e-09 -8.07063e-07 0)
(-2.5059e-09 -8.02995e-07 0)
(-2.49006e-09 -7.98952e-07 0)
(-2.47326e-09 -7.94937e-07 0)
(-2.45553e-09 -7.9095e-07 0)
(-2.43695e-09 -7.86992e-07 0)
(-2.41756e-09 -7.83065e-07 0)
(-2.39741e-09 -7.79169e-07 0)
(-2.37655e-09 -7.75307e-07 0)
(-2.35502e-09 -7.7148e-07 0)
(-2.33287e-09 -7.67688e-07 0)
(-2.31014e-09 -7.63932e-07 0)
(-2.28686e-09 -7.60213e-07 0)
(-2.26307e-09 -7.56533e-07 0)
(-2.2388e-09 -7.52891e-07 0)
(-2.21409e-09 -7.49289e-07 0)
(-2.18897e-09 -7.45727e-07 0)
(-2.16347e-09 -7.42207e-07 0)
(-2.1376e-09 -7.38728e-07 0)
(-2.1114e-09 -7.35291e-07 0)
(-2.08489e-09 -7.31897e-07 0)
(-2.0581e-09 -7.28546e-07 0)
(-2.03103e-09 -7.25238e-07 0)
(-2.00372e-09 -7.21975e-07 0)
(-1.97617e-09 -7.18755e-07 0)
(-1.94841e-09 -7.15581e-07 0)
(-1.92045e-09 -7.12452e-07 0)
(-1.89231e-09 -7.09368e-07 0)
(-1.86399e-09 -7.0633e-07 0)
(-1.8355e-09 -7.03337e-07 0)
(-1.80687e-09 -7.00391e-07 0)
(-1.7781e-09 -6.97492e-07 0)
(-1.7492e-09 -6.94639e-07 0)
(-1.72017e-09 -6.91833e-07 0)
(-1.69102e-09 -6.89074e-07 0)
(-1.66177e-09 -6.86362e-07 0)
(-1.63241e-09 -6.83698e-07 0)
(-1.60295e-09 -6.81081e-07 0)
(-1.5734e-09 -6.78512e-07 0)
(-1.54377e-09 -6.75991e-07 0)
(-1.51404e-09 -6.73517e-07 0)
(-1.48423e-09 -6.71092e-07 0)
(-1.45435e-09 -6.68716e-07 0)
(-1.42438e-09 -6.66387e-07 0)
(-1.39435e-09 -6.64107e-07 0)
(-1.36423e-09 -6.61876e-07 0)
(-1.33405e-09 -6.59694e-07 0)
(-1.30379e-09 -6.5756e-07 0)
(-1.27347e-09 -6.55476e-07 0)
(-1.24307e-09 -6.53441e-07 0)
(-1.21261e-09 -6.51454e-07 0)
(-1.18208e-09 -6.49518e-07 0)
(-1.15148e-09 -6.4763e-07 0)
(-1.12081e-09 -6.45792e-07 0)
(-1.09008e-09 -6.44004e-07 0)
(-1.05928e-09 -6.42266e-07 0)
(-1.02841e-09 -6.40577e-07 0)
(-9.97474e-10 -6.38939e-07 0)
(-9.66473e-10 -6.3735e-07 0)
(-9.35406e-10 -6.35812e-07 0)
(-9.04273e-10 -6.34324e-07 0)
(-8.73074e-10 -6.32886e-07 0)
(-8.4181e-10 -6.31499e-07 0)
(-8.10482e-10 -6.30163e-07 0)
(-7.7909e-10 -6.28877e-07 0)
(-7.47635e-10 -6.27642e-07 0)
(-7.16119e-10 -6.26458e-07 0)
(-6.84542e-10 -6.25326e-07 0)
(-6.52905e-10 -6.24244e-07 0)
(-6.2121e-10 -6.23213e-07 0)
(-5.89459e-10 -6.22234e-07 0)
(-5.57653e-10 -6.21306e-07 0)
(-5.25794e-10 -6.2043e-07 0)
(-4.93884e-10 -6.19605e-07 0)
(-4.61926e-10 -6.18832e-07 0)
(-4.29921e-10 -6.18111e-07 0)
(-3.97873e-10 -6.17441e-07 0)
(-3.65783e-10 -6.16824e-07 0)
(-3.33655e-10 -6.16257e-07 0)
(-3.01491e-10 -6.15747e-07 0)
(-2.69294e-10 -6.15272e-07 0)
(-2.37072e-10 -6.14905e-07 0)
(-2.04806e-10 -6.14405e-07 0)
(-1.7258e-10 -6.14566e-07 0)
(-1.40128e-10 -6.12717e-07 0)
(-1.08351e-10 -6.17501e-07 0)
(-7.4378e-11 -5.98875e-07 0)
(-4.80723e-11 -6.47955e-07 0)
(-2.01705e-11 -5.65891e-07 0)
)
;
    }
    bottomWall
    {
        type            calculated;
        value           nonuniform List<vector> 
449
(
(-48.5281 -0.964045 0)
(-19.7499 -0.00515488 0)
(-14.3425 -0.00113478 0)
(-12.0329 -0.000545495 0)
(-10.6268 -0.000351511 0)
(-9.63292 -0.000256006 0)
(-8.87481 -0.000198495 0)
(-8.27127 -0.000159824 0)
(-7.77582 -0.000132332 0)
(-7.35916 -0.000111984 0)
(-7.00214 -9.63831e-05 0)
(-6.6917 -8.40756e-05 0)
(-6.41853 -7.41572e-05 0)
(-6.17572 -6.60292e-05 0)
(-5.95802 -5.92719e-05 0)
(-5.76136 -5.35822e-05 0)
(-5.58255 -4.87377e-05 0)
(-5.41903 -4.45726e-05 0)
(-5.26873 -4.09609e-05 0)
(-5.12996 -3.78051e-05 0)
(-5.00131 -3.50287e-05 0)
(-4.88159 -3.25708e-05 0)
(-4.76982 -3.03827e-05 0)
(-4.66514 -2.84247e-05 0)
(-4.56684 -2.66644e-05 0)
(-4.47429 -2.5075e-05 0)
(-4.38694 -2.36342e-05 0)
(-4.30432 -2.23233e-05 0)
(-4.22602 -2.11266e-05 0)
(-4.15167 -2.00307e-05 0)
(-4.08094 -1.9024e-05 0)
(-4.01356 -1.80968e-05 0)
(-3.94925 -1.72406e-05 0)
(-3.8878 -1.64481e-05 0)
(-3.829 -1.57128e-05 0)
(-3.77265 -1.50291e-05 0)
(-3.7186 -1.43921e-05 0)
(-3.66668 -1.37976e-05 0)
(-3.61676 -1.32416e-05 0)
(-3.56872 -1.27208e-05 0)
(-3.52243 -1.22321e-05 0)
(-3.4778 -1.17729e-05 0)
(-3.43472 -1.13407e-05 0)
(-3.3931 -1.09334e-05 0)
(-3.35287 -1.0549e-05 0)
(-3.31395 -1.01858e-05 0)
(-3.27626 -9.84215e-06 0)
(-3.23975 -9.51667e-06 0)
(-3.20435 -9.20803e-06 0)
(-3.17001 -8.91504e-06 0)
(-3.13666 -8.63663e-06 0)
(-3.10428 -8.3718e-06 0)
(-3.0728 -8.11966e-06 0)
(-3.04219 -7.87936e-06 0)
(-3.01241 -7.65016e-06 0)
(-2.98342 -7.43136e-06 0)
(-2.95519 -7.22231e-06 0)
(-2.92767 -7.02241e-06 0)
(-2.90085 -6.83113e-06 0)
(-2.8747 -6.64795e-06 0)
(-2.84918 -6.47241e-06 0)
(-2.82427 -6.30408e-06 0)
(-2.79994 -6.14254e-06 0)
(-2.77618 -5.98742e-06 0)
(-2.75296 -5.83838e-06 0)
(-2.73025 -5.6951e-06 0)
(-2.70805 -5.55725e-06 0)
(-2.68634 -5.42458e-06 0)
(-2.66508 -5.2968e-06 0)
(-2.64428 -5.17368e-06 0)
(-2.62391 -5.05498e-06 0)
(-2.60395 -4.94048e-06 0)
(-2.5844 -4.82999e-06 0)
(-2.56524 -4.72331e-06 0)
(-2.54645 -4.62026e-06 0)
(-2.52803 -4.52067e-06 0)
(-2.50996 -4.42438e-06 0)
(-2.49223 -4.33125e-06 0)
(-2.47483 -4.24113e-06 0)
(-2.45775 -4.15389e-06 0)
(-2.44098 -4.06941e-06 0)
(-2.42451 -3.98756e-06 0)
(-2.40833 -3.90823e-06 0)
(-2.39244 -3.83132e-06 0)
(-2.37682 -3.75673e-06 0)
(-2.36146 -3.68436e-06 0)
(-2.34637 -3.61412e-06 0)
(-2.33152 -3.54593e-06 0)
(-2.31692 -3.47969e-06 0)
(-2.30256 -3.41535e-06 0)
(-2.28843 -3.35282e-06 0)
(-2.27452 -3.29203e-06 0)
(-2.26083 -3.23292e-06 0)
(-2.24735 -3.17543e-06 0)
(-2.23409 -3.11949e-06 0)
(-2.22102 -3.06504e-06 0)
(-2.20815 -3.01204e-06 0)
(-2.19547 -2.96043e-06 0)
(-2.18298 -2.91016e-06 0)
(-2.17067 -2.86118e-06 0)
(-2.15854 -2.81345e-06 0)
(-2.14658 -2.76692e-06 0)
(-2.13479 -2.72155e-06 0)
(-2.12317 -2.67731e-06 0)
(-2.1117 -2.63416e-06 0)
(-2.1004 -2.59205e-06 0)
(-2.08925 -2.55096e-06 0)
(-2.07824 -2.51085e-06 0)
(-2.06739 -2.47168e-06 0)
(-2.05668 -2.43344e-06 0)
(-2.04611 -2.39608e-06 0)
(-2.03567 -2.35959e-06 0)
(-2.02537 -2.32393e-06 0)
(-2.0152 -2.28908e-06 0)
(-2.00516 -2.25501e-06 0)
(-1.99525 -2.2217e-06 0)
(-1.98545 -2.18912e-06 0)
(-1.97578 -2.15726e-06 0)
(-1.96623 -2.1261e-06 0)
(-1.95679 -2.0956e-06 0)
(-1.94746 -2.06576e-06 0)
(-1.93825 -2.03655e-06 0)
(-1.92914 -2.00795e-06 0)
(-1.92014 -1.97996e-06 0)
(-1.91124 -1.95254e-06 0)
(-1.90245 -1.92569e-06 0)
(-1.89375 -1.89939e-06 0)
(-1.88516 -1.87362e-06 0)
(-1.87666 -1.84837e-06 0)
(-1.86825 -1.82362e-06 0)
(-1.85994 -1.79936e-06 0)
(-1.85171 -1.77558e-06 0)
(-1.84358 -1.75227e-06 0)
(-1.83553 -1.72941e-06 0)
(-1.82758 -1.70699e-06 0)
(-1.8197 -1.685e-06 0)
(-1.81191 -1.66342e-06 0)
(-1.8042 -1.64225e-06 0)
(-1.79656 -1.62148e-06 0)
(-1.78901 -1.6011e-06 0)
(-1.78153 -1.58109e-06 0)
(-1.77413 -1.56145e-06 0)
(-1.76681 -1.54217e-06 0)
(-1.75955 -1.52324e-06 0)
(-1.75237 -1.50464e-06 0)
(-1.74526 -1.48639e-06 0)
(-1.73822 -1.46845e-06 0)
(-1.73125 -1.45083e-06 0)
(-1.72434 -1.43352e-06 0)
(-1.7175 -1.41652e-06 0)
(-1.71073 -1.3998e-06 0)
(-1.70402 -1.38338e-06 0)
(-1.69737 -1.36723e-06 0)
(-1.69079 -1.35136e-06 0)
(-1.68426 -1.33576e-06 0)
(-1.6778 -1.32042e-06 0)
(-1.67139 -1.30534e-06 0)
(-1.66504 -1.29051e-06 0)
(-1.65875 -1.27592e-06 0)
(-1.65252 -1.26157e-06 0)
(-1.64634 -1.24745e-06 0)
(-1.64021 -1.23357e-06 0)
(-1.63414 -1.21991e-06 0)
(-1.62812 -1.20646e-06 0)
(-1.62216 -1.19324e-06 0)
(-1.61624 -1.18022e-06 0)
(-1.61038 -1.16741e-06 0)
(-1.60456 -1.1548e-06 0)
(-1.5988 -1.14241e-06 0)
(-1.59308 -1.13008e-06 0)
(-1.58741 -1.11839e-06 0)
(-1.58179 -1.10629e-06 0)
(-1.57621 -1.09315e-06 0)
(-1.571 -1.08297e-06 0)
(-1.5661 -1.07475e-06 0)
(-1.56119 -1.06439e-06 0)
(-1.55627 -1.0537e-06 0)
(-1.55135 -1.04369e-06 0)
(-1.54643 -1.03365e-06 0)
(-1.54149 -1.02374e-06 0)
(-1.53656 -1.01388e-06 0)
(-1.53161 -1.00409e-06 0)
(-1.52666 -9.94361e-07 0)
(-1.52171 -9.84688e-07 0)
(-1.51675 -9.75073e-07 0)
(-1.51179 -9.65512e-07 0)
(-1.50682 -9.56008e-07 0)
(-1.50185 -9.46558e-07 0)
(-1.49687 -9.37163e-07 0)
(-1.49189 -9.27824e-07 0)
(-1.4869 -9.1854e-07 0)
(-1.48191 -9.09311e-07 0)
(-1.47692 -9.00139e-07 0)
(-1.47192 -8.91022e-07 0)
(-1.46693 -8.81962e-07 0)
(-1.46192 -8.72958e-07 0)
(-1.45692 -8.64011e-07 0)
(-1.45191 -8.5512e-07 0)
(-1.4469 -8.46287e-07 0)
(-1.44189 -8.37512e-07 0)
(-1.43688 -8.28793e-07 0)
(-1.43187 -8.20133e-07 0)
(-1.42685 -8.11531e-07 0)
(-1.42183 -8.02987e-07 0)
(-1.41682 -7.94501e-07 0)
(-1.4118 -7.86073e-07 0)
(-1.40678 -7.77705e-07 0)
(-1.40176 -7.69395e-07 0)
(-1.39674 -7.61144e-07 0)
(-1.39172 -7.52952e-07 0)
(-1.3867 -7.44819e-07 0)
(-1.38168 -7.36745e-07 0)
(-1.37666 -7.2873e-07 0)
(-1.37164 -7.20775e-07 0)
(-1.36662 -7.1288e-07 0)
(-1.36161 -7.05044e-07 0)
(-1.35659 -6.97267e-07 0)
(-1.35158 -6.8955e-07 0)
(-1.34657 -6.81893e-07 0)
(-1.34156 -6.74295e-07 0)
(-1.33655 -6.66757e-07 0)
(-1.33154 -6.59279e-07 0)
(-1.32654 -6.5186e-07 0)
(-1.32154 -6.44501e-07 0)
(-1.31654 -6.37201e-07 0)
(-1.31155 -6.29961e-07 0)
(-1.30655 -6.2278e-07 0)
(-1.30157 -6.15659e-07 0)
(-1.29658 -6.08597e-07 0)
(-1.2916 -6.01595e-07 0)
(-1.28662 -5.94651e-07 0)
(-1.28165 -5.87767e-07 0)
(-1.27668 -5.80942e-07 0)
(-1.27172 -5.74176e-07 0)
(-1.26676 -5.67468e-07 0)
(-1.2618 -5.60819e-07 0)
(-1.25685 -5.54229e-07 0)
(-1.25191 -5.47697e-07 0)
(-1.24697 -5.41224e-07 0)
(-1.24203 -5.34808e-07 0)
(-1.2371 -5.2845e-07 0)
(-1.23218 -5.22151e-07 0)
(-1.22726 -5.15908e-07 0)
(-1.22235 -5.09724e-07 0)
(-1.21745 -5.03596e-07 0)
(-1.21255 -4.97526e-07 0)
(-1.20766 -4.91512e-07 0)
(-1.20277 -4.85555e-07 0)
(-1.19789 -4.79655e-07 0)
(-1.19302 -4.7381e-07 0)
(-1.18816 -4.68022e-07 0)
(-1.1833 -4.6229e-07 0)
(-1.17845 -4.56613e-07 0)
(-1.17361 -4.50991e-07 0)
(-1.16877 -4.45424e-07 0)
(-1.16395 -4.39912e-07 0)
(-1.15913 -4.34455e-07 0)
(-1.15432 -4.29052e-07 0)
(-1.14951 -4.23703e-07 0)
(-1.14472 -4.18408e-07 0)
(-1.13994 -4.13166e-07 0)
(-1.13516 -4.07978e-07 0)
(-1.13039 -4.02842e-07 0)
(-1.12563 -3.97759e-07 0)
(-1.12088 -3.92728e-07 0)
(-1.11614 -3.8775e-07 0)
(-1.11141 -3.82823e-07 0)
(-1.10669 -3.77948e-07 0)
(-1.10198 -3.73124e-07 0)
(-1.09727 -3.6835e-07 0)
(-1.09258 -3.63628e-07 0)
(-1.0879 -3.58955e-07 0)
(-1.08322 -3.54333e-07 0)
(-1.07856 -3.4976e-07 0)
(-1.07391 -3.45236e-07 0)
(-1.06926 -3.40761e-07 0)
(-1.06463 -3.36335e-07 0)
(-1.06001 -3.31957e-07 0)
(-1.0554 -3.27627e-07 0)
(-1.0508 -3.23345e-07 0)
(-1.04621 -3.1911e-07 0)
(-1.04163 -3.14923e-07 0)
(-1.03707 -3.10781e-07 0)
(-1.03251 -3.06686e-07 0)
(-1.02796 -3.02637e-07 0)
(-1.02343 -2.98634e-07 0)
(-1.01891 -2.94676e-07 0)
(-1.0144 -2.90763e-07 0)
(-1.0099 -2.86894e-07 0)
(-1.00541 -2.8307e-07 0)
(-1.00094 -2.7929e-07 0)
(-0.996471 -2.75553e-07 0)
(-0.992019 -2.71859e-07 0)
(-0.987579 -2.68208e-07 0)
(-0.983151 -2.646e-07 0)
(-0.978735 -2.61034e-07 0)
(-0.974332 -2.57509e-07 0)
(-0.96994 -2.54027e-07 0)
(-0.965562 -2.50585e-07 0)
(-0.961195 -2.47184e-07 0)
(-0.956841 -2.43823e-07 0)
(-0.9525 -2.40503e-07 0)
(-0.948171 -2.37222e-07 0)
(-0.943855 -2.3398e-07 0)
(-0.939551 -2.30778e-07 0)
(-0.935261 -2.27614e-07 0)
(-0.930983 -2.24488e-07 0)
(-0.926719 -2.214e-07 0)
(-0.922467 -2.1835e-07 0)
(-0.918228 -2.15338e-07 0)
(-0.914003 -2.12362e-07 0)
(-0.90979 -2.09422e-07 0)
(-0.905591 -2.06519e-07 0)
(-0.901405 -2.03652e-07 0)
(-0.897232 -2.0082e-07 0)
(-0.893073 -1.98024e-07 0)
(-0.888927 -1.95262e-07 0)
(-0.884794 -1.92535e-07 0)
(-0.880675 -1.89842e-07 0)
(-0.87657 -1.87183e-07 0)
(-0.872478 -1.84557e-07 0)
(-0.868399 -1.81965e-07 0)
(-0.864334 -1.79405e-07 0)
(-0.860283 -1.76878e-07 0)
(-0.856246 -1.74383e-07 0)
(-0.852222 -1.7192e-07 0)
(-0.848212 -1.69488e-07 0)
(-0.844216 -1.67088e-07 0)
(-0.840234 -1.64718e-07 0)
(-0.836265 -1.62379e-07 0)
(-0.832311 -1.6007e-07 0)
(-0.82837 -1.57791e-07 0)
(-0.824443 -1.55542e-07 0)
(-0.82053 -1.53322e-07 0)
(-0.816631 -1.5113e-07 0)
(-0.812746 -1.48968e-07 0)
(-0.808875 -1.46834e-07 0)
(-0.805019 -1.44727e-07 0)
(-0.801176 -1.42649e-07 0)
(-0.797347 -1.40598e-07 0)
(-0.793532 -1.38573e-07 0)
(-0.789732 -1.36576e-07 0)
(-0.785945 -1.34605e-07 0)
(-0.782173 -1.3266e-07 0)
(-0.778414 -1.30741e-07 0)
(-0.77467 -1.28848e-07 0)
(-0.77094 -1.2698e-07 0)
(-0.767224 -1.25136e-07 0)
(-0.763523 -1.23315e-07 0)
(-0.759835 -1.21522e-07 0)
(-0.756162 -1.19746e-07 0)
(-0.752503 -1.17959e-07 0)
(-0.748861 -1.16321e-07 0)
(-0.745225 -1.14694e-07 0)
(-0.7412 -1.12708e-07 0)
(-0.736834 -1.10599e-07 0)
(-0.732548 -1.08699e-07 0)
(-0.72833 -1.06901e-07 0)
(-0.724184 -1.05091e-07 0)
(-0.720109 -1.03317e-07 0)
(-0.716102 -1.01588e-07 0)
(-0.712161 -9.9905e-08 0)
(-0.708286 -9.82674e-08 0)
(-0.704474 -9.66734e-08 0)
(-0.700723 -9.51217e-08 0)
(-0.697032 -9.36109e-08 0)
(-0.693399 -9.21396e-08 0)
(-0.689824 -9.07065e-08 0)
(-0.686303 -8.93101e-08 0)
(-0.682837 -8.79491e-08 0)
(-0.679423 -8.66223e-08 0)
(-0.67606 -8.53285e-08 0)
(-0.672747 -8.40666e-08 0)
(-0.669483 -8.28355e-08 0)
(-0.666267 -8.16342e-08 0)
(-0.663097 -8.04616e-08 0)
(-0.659972 -7.93168e-08 0)
(-0.656892 -7.81988e-08 0)
(-0.653855 -7.71069e-08 0)
(-0.65086 -7.60402e-08 0)
(-0.647906 -7.49979e-08 0)
(-0.644992 -7.39792e-08 0)
(-0.642118 -7.29833e-08 0)
(-0.639283 -7.20096e-08 0)
(-0.636485 -7.10574e-08 0)
(-0.633724 -7.0126e-08 0)
(-0.630999 -6.92148e-08 0)
(-0.628309 -6.83232e-08 0)
(-0.625654 -6.74506e-08 0)
(-0.623032 -6.65964e-08 0)
(-0.620444 -6.57602e-08 0)
(-0.617888 -6.49414e-08 0)
(-0.615363 -6.41394e-08 0)
(-0.61287 -6.33539e-08 0)
(-0.610407 -6.25844e-08 0)
(-0.607974 -6.18304e-08 0)
(-0.60557 -6.10915e-08 0)
(-0.603194 -6.03672e-08 0)
(-0.600847 -5.96572e-08 0)
(-0.598527 -5.89612e-08 0)
(-0.596235 -5.82786e-08 0)
(-0.593968 -5.76092e-08 0)
(-0.591728 -5.69527e-08 0)
(-0.589513 -5.63086e-08 0)
(-0.587323 -5.56768e-08 0)
(-0.585157 -5.50568e-08 0)
(-0.583015 -5.44483e-08 0)
(-0.580897 -5.38512e-08 0)
(-0.578803 -5.3265e-08 0)
(-0.57673 -5.26896e-08 0)
(-0.574681 -5.21247e-08 0)
(-0.572653 -5.157e-08 0)
(-0.570646 -5.10254e-08 0)
(-0.568661 -5.04905e-08 0)
(-0.566696 -4.99651e-08 0)
(-0.564752 -4.94492e-08 0)
(-0.562828 -4.89423e-08 0)
(-0.560923 -4.84445e-08 0)
(-0.559038 -4.79554e-08 0)
(-0.557172 -4.74749e-08 0)
(-0.555324 -4.70029e-08 0)
(-0.553495 -4.65392e-08 0)
(-0.551683 -4.60837e-08 0)
(-0.549889 -4.56363e-08 0)
(-0.548113 -4.51969e-08 0)
(-0.546354 -4.47653e-08 0)
(-0.544611 -4.43416e-08 0)
(-0.542885 -4.39256e-08 0)
(-0.541175 -4.35175e-08 0)
(-0.53948 -4.31173e-08 0)
(-0.537802 -4.2725e-08 0)
(-0.536138 -4.23409e-08 0)
(-0.534489 -4.19652e-08 0)
(-0.532855 -4.15985e-08 0)
(-0.531235 -4.12412e-08 0)
(-0.529629 -4.08943e-08 0)
(-0.528036 -4.05593e-08 0)
(-0.526456 -4.02373e-08 0)
(-0.524888 -3.99316e-08 0)
(-0.523332 -3.96546e-08 0)
(-0.521786 -3.93762e-08 0)
(-0.520252 -3.91553e-08 0)
(-0.518723 -3.92147e-08 0)
(-0.517184 -3.85385e-08 0)
(-0.515708 -3.76686e-08 0)
(-0.514237 -4.97964e-08 0)
(-0.511812 -1.38999e-08 0)
(-0.513161 -3.67325e-08 0)
(-0.508895 -5.54511e-08 0)
)
;
    }
    symmetry
    {
        type            symmetryPlane;
    }
    frontAndBack
    {
        type            empty;
    }
}


// ************************************************************************* //
