/*--------------------------------*- C++ -*----------------------------------*\
| =========                 |                                                 |
| \\      /  F ield         | OpenFOAM: The Open Source CFD Toolbox           |
|  \\    /   O peration     | Version:  v2012                                 |
|   \\  /    A nd           | Website:  www.openfoam.com                      |
|    \\/     M anipulation  |                                                 |
\*---------------------------------------------------------------------------*/
FoamFile
{
    version     2.0;
    format      ascii;
    class       volScalarField;
    location    "42.5";
    object      yPlus;
}
// * * * * * * * * * * * * * * * * * * * * * * * * * * * * * * * * * * * * * //

dimensions      [0 0 0 0 0 0 0];


internalField   uniform 0;

boundaryField
{
    inlet
    {
        type            calculated;
        value           uniform 0;
    }
    outlet
    {
        type            calculated;
        value           uniform 0;
    }
    topWall
    {
        type            calculated;
        value           nonuniform List<scalar> 
545
(
0.0708317
0.122134
0.156681
0.184163
0.207417
0.22775
0.245897
0.262322
0.277338
0.291173
0.303997
0.31594
0.327108
0.337586
0.347444
0.356741
0.365527
0.373846
0.381735
0.389228
0.396353
0.403137
0.409602
0.415769
0.421658
0.427286
0.432668
0.437818
0.44275
0.447476
0.452007
0.456354
0.460525
0.464531
0.468379
0.472077
0.475632
0.479052
0.482342
0.485509
0.488558
0.491495
0.494325
0.497052
0.499681
0.502216
0.504661
0.507021
0.509297
0.511495
0.513617
0.515666
0.517645
0.519557
0.521405
0.52319
0.524917
0.526586
0.5282
0.529762
0.531272
0.532734
0.534148
0.535517
0.536842
0.538125
0.539367
0.54057
0.541735
0.542864
0.543957
0.545017
0.54603
0.54701
0.547981
0.548943
0.549896
0.550841
0.551778
0.552706
0.553626
0.554538
0.555442
0.556337
0.557225
0.558105
0.558978
0.559842
0.560699
0.561549
0.562391
0.563226
0.564053
0.564874
0.565687
0.566493
0.567219
0.567868
0.568515
0.569163
0.569809
0.570455
0.571101
0.571745
0.572389
0.573032
0.573675
0.574317
0.574958
0.575598
0.576238
0.576877
0.577515
0.578153
0.57879
0.579426
0.580061
0.580695
0.581329
0.581962
0.582594
0.583225
0.583856
0.584485
0.585114
0.585742
0.586369
0.586996
0.587621
0.588246
0.588869
0.589492
0.590114
0.590735
0.591355
0.591975
0.592593
0.59321
0.593827
0.594442
0.595057
0.595671
0.596283
0.596895
0.597506
0.598115
0.598724
0.599332
0.599938
0.600544
0.601149
0.601752
0.602355
0.602956
0.603557
0.604156
0.604754
0.605351
0.605947
0.606542
0.607136
0.607729
0.60832
0.608911
0.6095
0.610088
0.610675
0.611261
0.611845
0.612429
0.613011
0.613592
0.614171
0.61475
0.615327
0.615903
0.616477
0.617051
0.617623
0.618194
0.618763
0.619331
0.619898
0.620464
0.621028
0.621591
0.622152
0.622713
0.623271
0.623829
0.624385
0.624939
0.625492
0.626044
0.626594
0.627143
0.62769
0.628236
0.628781
0.629324
0.629865
0.630405
0.630943
0.63148
0.632016
0.632549
0.633082
0.633612
0.634141
0.634669
0.635195
0.635719
0.636242
0.636763
0.637282
0.6378
0.638316
0.63883
0.639343
0.639854
0.640364
0.640871
0.641377
0.641881
0.642384
0.642884
0.643383
0.643881
0.644376
0.644869
0.645361
0.645851
0.646339
0.646826
0.64731
0.647793
0.648273
0.648752
0.649229
0.649704
0.650177
0.650648
0.651118
0.651585
0.65205
0.652514
0.652975
0.653435
0.653892
0.654347
0.654801
0.655252
0.655702
0.656149
0.656594
0.657037
0.657478
0.657917
0.658354
0.658789
0.659222
0.659652
0.660081
0.660507
0.660931
0.661353
0.661772
0.66219
0.662605
0.662995
0.663362
0.66373
0.6641
0.664471
0.664843
0.665216
0.665591
0.665967
0.666344
0.666722
0.667101
0.667481
0.667862
0.668244
0.668627
0.66901
0.669395
0.66978
0.670165
0.670552
0.670938
0.671326
0.671713
0.672101
0.672489
0.672878
0.673266
0.673655
0.674043
0.674432
0.67482
0.675208
0.675596
0.675983
0.67637
0.676756
0.677141
0.677526
0.67791
0.678292
0.678674
0.679055
0.679434
0.679812
0.680188
0.680563
0.680936
0.681308
0.681677
0.682044
0.682409
0.682772
0.683132
0.68349
0.683845
0.684198
0.684547
0.684893
0.685236
0.685576
0.685912
0.686245
0.686573
0.686898
0.687218
0.687534
0.687846
0.688153
0.688455
0.688753
0.689045
0.689332
0.689613
0.689889
0.690159
0.690422
0.69068
0.690931
0.691176
0.691414
0.691644
0.691868
0.692084
0.692293
0.692494
0.692687
0.692871
0.693048
0.693215
0.693374
0.693524
0.693664
0.693795
0.693916
0.694028
0.694129
0.694219
0.6943
0.694369
0.694427
0.694474
0.694509
0.694533
0.694545
0.694544
0.694531
0.694506
0.694467
0.694416
0.694351
0.694272
0.69418
0.694073
0.693953
0.693817
0.693668
0.693503
0.693323
0.693128
0.692917
0.69269
0.692448
0.692189
0.691914
0.691622
0.691313
0.690988
0.690645
0.690285
0.689907
0.689512
0.689099
0.688668
0.688219
0.687751
0.687265
0.686761
0.686237
0.685695
0.685134
0.684553
0.683954
0.683335
0.682697
0.68204
0.681363
0.680666
0.67995
0.679214
0.678459
0.677683
0.676889
0.676074
0.67524
0.674386
0.673512
0.672619
0.671707
0.670774
0.669823
0.668852
0.667862
0.666853
0.665825
0.664778
0.663713
0.662629
0.661526
0.660406
0.659268
0.658112
0.656938
0.655748
0.65454
0.653316
0.652075
0.650818
0.649545
0.648257
0.646954
0.645488
0.643866
0.642246
0.640627
0.63901
0.637398
0.635789
0.634186
0.632588
0.630997
0.629412
0.627836
0.626268
0.624708
0.623159
0.621619
0.620089
0.618571
0.617064
0.615568
0.614085
0.612615
0.611157
0.609713
0.608283
0.606866
0.605464
0.604076
0.602704
0.601346
0.600004
0.598678
0.597368
0.596074
0.594796
0.593535
0.59229
0.591063
0.589853
0.588661
0.587486
0.586329
0.58519
0.584069
0.582966
0.581882
0.580817
0.579771
0.578743
0.577735
0.576746
0.575776
0.574826
0.573896
0.572986
0.572095
0.571225
0.570376
0.569546
0.568738
0.56795
0.567183
0.566437
0.565712
0.565008
0.564326
0.563665
0.563026
0.562409
0.561814
0.56124
0.560689
0.56016
0.559654
0.559169
0.558708
0.558269
0.557852
0.557459
0.557088
0.55674
0.556416
0.556114
0.555836
0.555581
0.55535
0.555142
0.554957
0.554795
0.554658
0.554543
0.554453
0.554385
0.554344
0.554315
)
;
    }
    bottomWall
    {
        type            calculated;
        value           nonuniform List<scalar> 
449
(
0.139447
0.0889579
0.0758079
0.0694363
0.0652533
0.0621271
0.0596323
0.0575689
0.0558181
0.0543021
0.0529685
0.051781
0.0507131
0.0497446
0.0488599
0.0480468
0.0472953
0.0465975
0.0459468
0.0453377
0.0447655
0.0442265
0.0437173
0.0432349
0.042777
0.0423413
0.0419259
0.0415293
0.0411498
0.0407862
0.0404373
0.0401021
0.0397795
0.0394688
0.0391692
0.0388799
0.0386004
0.03833
0.0380682
0.0378145
0.0375685
0.0373297
0.0370977
0.0368723
0.0366531
0.0364397
0.0362319
0.0360295
0.0358321
0.0356395
0.0354516
0.0352681
0.0350889
0.0349137
0.0347424
0.0345748
0.0344108
0.0342502
0.034093
0.0339389
0.0337879
0.0336399
0.0334947
0.0333523
0.0332125
0.0330753
0.0329405
0.0328082
0.0326781
0.0325503
0.0324247
0.0323012
0.0321797
0.0320602
0.0319426
0.0318268
0.0317128
0.0316006
0.0314901
0.0313813
0.0312741
0.0311684
0.0310642
0.0309615
0.0308603
0.0307604
0.030662
0.0305648
0.030469
0.0303744
0.030281
0.0301889
0.0300979
0.030008
0.0299193
0.0298317
0.0297452
0.0296596
0.0295751
0.0294916
0.0294091
0.0293275
0.0292469
0.0291672
0.0290883
0.0290103
0.0289332
0.0288569
0.0287815
0.0287068
0.028633
0.0285599
0.0284875
0.0284159
0.028345
0.0282749
0.0282054
0.0281366
0.0280685
0.028001
0.0279342
0.0278681
0.0278025
0.0277376
0.0276732
0.0276095
0.0275463
0.0274837
0.0274217
0.0273602
0.0272993
0.0272389
0.027179
0.0271196
0.0270607
0.0270024
0.0269445
0.0268871
0.0268302
0.0267737
0.0267177
0.0266622
0.026607
0.0265524
0.0264981
0.0264443
0.0263909
0.0263379
0.0262854
0.0262332
0.0261814
0.02613
0.026079
0.0260283
0.0259781
0.0259282
0.0258786
0.0258294
0.0257806
0.0257321
0.0256839
0.0256361
0.0255886
0.0255415
0.0254946
0.0254481
0.0254019
0.025356
0.0253104
0.0252651
0.0252201
0.0251754
0.025131
0.0250894
0.0250502
0.0250109
0.0249715
0.024932
0.0248924
0.0248527
0.0248128
0.0247729
0.0247328
0.0246927
0.0246524
0.024612
0.0245715
0.024531
0.0244903
0.0244495
0.0244086
0.0243676
0.0243266
0.0242854
0.0242441
0.0242027
0.0241613
0.0241197
0.0240781
0.0240364
0.0239945
0.0239526
0.0239107
0.0238686
0.0238264
0.0237842
0.0237419
0.0236995
0.023657
0.0236144
0.0235718
0.0235291
0.0234863
0.0234435
0.0234006
0.0233576
0.0233145
0.0232714
0.0232282
0.023185
0.0231416
0.0230983
0.0230548
0.0230113
0.0229678
0.0229242
0.0228805
0.0228368
0.022793
0.0227492
0.0227053
0.0226614
0.0226174
0.0225734
0.0225293
0.0224852
0.0224411
0.0223969
0.0223527
0.0223084
0.0222641
0.0222197
0.0221754
0.0221309
0.0220865
0.022042
0.0219975
0.021953
0.0219084
0.0218638
0.0218192
0.0217745
0.0217299
0.0216852
0.0216405
0.0215958
0.021551
0.0215062
0.0214615
0.0214167
0.0213718
0.021327
0.0212822
0.0212373
0.0211925
0.0211476
0.0211028
0.0210579
0.021013
0.0209681
0.0209232
0.0208783
0.0208334
0.0207886
0.0207437
0.0206988
0.0206539
0.020609
0.0205641
0.0205193
0.0204744
0.0204296
0.0203847
0.0203399
0.0202951
0.0202503
0.0202055
0.0201607
0.020116
0.0200712
0.0200265
0.0199818
0.0199371
0.0198924
0.0198478
0.0198032
0.0197586
0.019714
0.0196694
0.0196249
0.0195804
0.0195359
0.0194915
0.0194471
0.0194027
0.0193584
0.019314
0.0192697
0.0192255
0.0191813
0.0191371
0.0190929
0.0190488
0.0190047
0.0189607
0.0189167
0.0188727
0.0188288
0.0187849
0.0187411
0.0186973
0.0186536
0.0186099
0.0185662
0.0185226
0.018479
0.0184355
0.018392
0.0183486
0.0183052
0.0182618
0.0182186
0.0181753
0.0181322
0.018089
0.0180459
0.0180029
0.0179599
0.017917
0.0178742
0.0178314
0.0177886
0.0177459
0.0177033
0.0176607
0.0176182
0.0175757
0.0175333
0.0174909
0.0174486
0.0174064
0.0173643
0.0173222
0.0172801
0.0172334
0.0171825
0.0171325
0.0170831
0.0170344
0.0169864
0.0169391
0.0168924
0.0168464
0.016801
0.0167562
0.016712
0.0166684
0.0166254
0.0165829
0.016541
0.0164995
0.0164587
0.0164183
0.0163784
0.016339
0.0163001
0.0162617
0.0162237
0.0161861
0.016149
0.0161123
0.016076
0.0160402
0.0160047
0.0159697
0.015935
0.0159007
0.0158668
0.0158332
0.0158
0.0157672
0.0157346
0.0157025
0.0156706
0.0156391
0.0156079
0.015577
0.0155464
0.0155162
0.0154862
0.0154565
0.0154271
0.015398
0.0153691
0.0153405
0.0153122
0.0152842
0.0152564
0.0152289
0.0152016
0.0151745
0.0151477
0.0151212
0.0150948
0.0150687
0.0150429
0.0150172
0.0149918
0.0149666
0.0149416
0.0149168
0.0148922
0.0148678
0.0148436
0.0148196
0.0147958
0.0147722
0.0147488
0.0147255
0.0147025
0.0146796
0.0146568
0.0146343
0.0146119
0.0145897
0.0145676
0.0145457
0.0145239
0.0145022
0.0144807
0.0144593
0.0144381
0.0144168
0.0143954
0.0143749
0.0143543
0.0143205
0.0143393
0.0142796
)
;
    }
    symmetry
    {
        type            symmetryPlane;
    }
    frontAndBack
    {
        type            empty;
    }
}


// ************************************************************************* //
