/*--------------------------------*- C++ -*----------------------------------*\
| =========                 |                                                 |
| \\      /  F ield         | OpenFOAM: The Open Source CFD Toolbox           |
|  \\    /   O peration     | Version:  v2012                                 |
|   \\  /    A nd           | Website:  www.openfoam.com                      |
|    \\/     M anipulation  |                                                 |
\*---------------------------------------------------------------------------*/
FoamFile
{
    version     2.0;
    format      ascii;
    class       volScalarField;
    location    "58";
    object      yPlus;
}
// * * * * * * * * * * * * * * * * * * * * * * * * * * * * * * * * * * * * * //

dimensions      [0 0 0 0 0 0 0];


internalField   uniform 0;

boundaryField
{
    inlet
    {
        type            calculated;
        value           uniform 0;
    }
    outlet
    {
        type            calculated;
        value           uniform 0;
    }
    topWall
    {
        type            calculated;
        value           nonuniform List<scalar> 
545
(
0.0708353
0.12214
0.156689
0.184172
0.207427
0.227761
0.24591
0.262335
0.277352
0.291188
0.304012
0.315956
0.327125
0.337603
0.347461
0.356759
0.365546
0.373865
0.381755
0.389248
0.396373
0.403157
0.409623
0.415791
0.42168
0.427308
0.43269
0.437841
0.442773
0.4475
0.452031
0.456378
0.460549
0.464555
0.468403
0.472102
0.475657
0.479077
0.482368
0.485535
0.488585
0.491522
0.494352
0.497079
0.499708
0.502243
0.504689
0.507048
0.509325
0.511523
0.513645
0.515694
0.517673
0.519585
0.521433
0.523219
0.524946
0.526615
0.52823
0.529791
0.531302
0.532763
0.534178
0.535547
0.536872
0.538155
0.539397
0.5406
0.541765
0.542894
0.543988
0.545048
0.546061
0.547041
0.548012
0.548974
0.549927
0.550873
0.551809
0.552738
0.553658
0.554569
0.555473
0.556369
0.557257
0.558137
0.55901
0.559874
0.560731
0.561581
0.562423
0.563258
0.564086
0.564906
0.56572
0.566526
0.567252
0.5679
0.568548
0.569196
0.569842
0.570488
0.571134
0.571779
0.572423
0.573066
0.573708
0.57435
0.574992
0.575632
0.576272
0.576911
0.577549
0.578187
0.578824
0.57946
0.580095
0.58073
0.581363
0.581996
0.582628
0.58326
0.58389
0.58452
0.585149
0.585777
0.586404
0.587031
0.587656
0.588281
0.588905
0.589528
0.59015
0.590771
0.591391
0.59201
0.592629
0.593246
0.593863
0.594478
0.595093
0.595707
0.596319
0.596931
0.597542
0.598152
0.598761
0.599368
0.599975
0.600581
0.601186
0.601789
0.602392
0.602993
0.603594
0.604193
0.604792
0.605389
0.605985
0.60658
0.607174
0.607767
0.608358
0.608949
0.609538
0.610126
0.610713
0.611299
0.611884
0.612467
0.613049
0.61363
0.61421
0.614788
0.615366
0.615942
0.616516
0.61709
0.617662
0.618233
0.618803
0.619371
0.619938
0.620503
0.621068
0.621631
0.622192
0.622753
0.623311
0.623869
0.624425
0.624979
0.625533
0.626084
0.626635
0.627184
0.627731
0.628277
0.628822
0.629365
0.629906
0.630446
0.630985
0.631522
0.632057
0.632591
0.633123
0.633654
0.634183
0.634711
0.635237
0.635761
0.636284
0.636805
0.637325
0.637843
0.638359
0.638873
0.639386
0.639897
0.640407
0.640915
0.641421
0.641925
0.642427
0.642928
0.643427
0.643924
0.64442
0.644914
0.645405
0.645896
0.646384
0.64687
0.647355
0.647837
0.648318
0.648797
0.649274
0.649749
0.650223
0.650694
0.651163
0.651631
0.652096
0.65256
0.653021
0.653481
0.653938
0.654394
0.654847
0.655299
0.655748
0.656196
0.656641
0.657084
0.657526
0.657965
0.658402
0.658837
0.659269
0.6597
0.660128
0.660555
0.660979
0.661401
0.661821
0.662238
0.662654
0.663044
0.663411
0.663779
0.664149
0.66452
0.664892
0.665266
0.665641
0.666017
0.666394
0.666772
0.667151
0.667531
0.667913
0.668295
0.668678
0.669061
0.669446
0.669831
0.670217
0.670603
0.67099
0.671377
0.671765
0.672153
0.672542
0.67293
0.673319
0.673708
0.674096
0.674485
0.674873
0.675261
0.675649
0.676037
0.676423
0.67681
0.677195
0.67758
0.677964
0.678347
0.678729
0.67911
0.679489
0.679867
0.680244
0.680619
0.680992
0.681364
0.681733
0.682101
0.682466
0.682829
0.68319
0.683548
0.683903
0.684256
0.684605
0.684952
0.685295
0.685635
0.685971
0.686304
0.686633
0.686958
0.687278
0.687595
0.687907
0.688214
0.688517
0.688814
0.689107
0.689394
0.689676
0.689952
0.690222
0.690486
0.690744
0.690995
0.69124
0.691478
0.691709
0.691933
0.69215
0.692359
0.69256
0.692753
0.692939
0.693115
0.693283
0.693442
0.693592
0.693733
0.693864
0.693986
0.694098
0.694199
0.694291
0.694371
0.694441
0.694499
0.694547
0.694583
0.694607
0.694619
0.694619
0.694606
0.694581
0.694543
0.694492
0.694428
0.69435
0.694258
0.694152
0.694032
0.693897
0.693748
0.693584
0.693404
0.69321
0.693
0.692774
0.692532
0.692273
0.691999
0.691708
0.6914
0.691075
0.690733
0.690374
0.689997
0.689602
0.68919
0.68876
0.688311
0.687844
0.687359
0.686855
0.686333
0.685791
0.685231
0.684651
0.684053
0.683435
0.682798
0.682141
0.681465
0.68077
0.680054
0.679319
0.678565
0.677791
0.676997
0.676183
0.67535
0.674497
0.673625
0.672733
0.671821
0.67089
0.66994
0.66897
0.667981
0.666973
0.665947
0.664901
0.663837
0.662754
0.661653
0.660534
0.659397
0.658242
0.65707
0.655881
0.654675
0.653452
0.652213
0.650957
0.649686
0.648399
0.647098
0.645633
0.644014
0.642395
0.640778
0.639163
0.637552
0.635946
0.634344
0.632748
0.631159
0.629577
0.628002
0.626436
0.624879
0.623331
0.621793
0.620265
0.618749
0.617244
0.61575
0.614269
0.6128
0.611345
0.609902
0.608474
0.607059
0.605659
0.604273
0.602902
0.601547
0.600207
0.598882
0.597574
0.596281
0.595005
0.593746
0.592504
0.591278
0.59007
0.588879
0.587706
0.586551
0.585413
0.584294
0.583193
0.582111
0.581047
0.580002
0.578976
0.57797
0.576982
0.576014
0.575066
0.574137
0.573228
0.572339
0.571471
0.570622
0.569794
0.568987
0.5682
0.567435
0.56669
0.565966
0.565264
0.564583
0.563923
0.563285
0.562669
0.562075
0.561503
0.560952
0.560424
0.559919
0.559435
0.558974
0.558536
0.55812
0.557728
0.557358
0.557011
0.556687
0.556386
0.556108
0.555854
0.555623
0.555415
0.555231
0.55507
0.554932
0.554818
0.554728
0.55466
0.55462
0.55459
)
;
    }
    bottomWall
    {
        type            calculated;
        value           nonuniform List<scalar> 
449
(
0.139436
0.0889514
0.0758023
0.0694314
0.0652487
0.0621228
0.0596283
0.0575651
0.0558144
0.0542985
0.0529651
0.0517777
0.0507099
0.0497416
0.048857
0.048044
0.0472926
0.0465948
0.0459442
0.0453351
0.044763
0.0442241
0.0437149
0.0432326
0.0427747
0.042339
0.0419237
0.0415271
0.0411477
0.0407841
0.0404353
0.0401001
0.0397776
0.0394669
0.0391673
0.038878
0.0385985
0.0383282
0.0380664
0.0378127
0.0375667
0.037328
0.0370961
0.0368707
0.0366515
0.0364381
0.0362303
0.0360279
0.0358305
0.035638
0.0354501
0.0352666
0.0350874
0.0349122
0.0347409
0.0345733
0.0344094
0.0342488
0.0340916
0.0339376
0.0337866
0.0336386
0.0334934
0.033351
0.0332112
0.033074
0.0329393
0.0328069
0.0326769
0.0325491
0.0324235
0.0323
0.0321785
0.032059
0.0319414
0.0318256
0.0317117
0.0315995
0.031489
0.0313802
0.0312729
0.0311673
0.0310631
0.0309604
0.0308592
0.0307594
0.0306609
0.0305638
0.0304679
0.0303733
0.03028
0.0301878
0.0300969
0.030007
0.0299183
0.0298307
0.0297442
0.0296587
0.0295742
0.0294907
0.0294082
0.0293266
0.0292459
0.0291662
0.0290874
0.0290094
0.0289323
0.028856
0.0287806
0.0287059
0.0286321
0.028559
0.0284866
0.028415
0.0283441
0.028274
0.0282045
0.0281357
0.0280676
0.0280002
0.0279334
0.0278672
0.0278017
0.0277367
0.0276724
0.0276087
0.0275455
0.0274829
0.0274209
0.0273594
0.0272985
0.027238
0.0271782
0.0271188
0.0270599
0.0270016
0.0269437
0.0268863
0.0268294
0.0267729
0.0267169
0.0266613
0.0266062
0.0265516
0.0264973
0.0264435
0.0263901
0.0263371
0.0262846
0.0262324
0.0261806
0.0261292
0.0260782
0.0260275
0.0259773
0.0259274
0.0258778
0.0258286
0.0257798
0.0257313
0.0256831
0.0256353
0.0255878
0.0255407
0.0254938
0.0254473
0.0254011
0.0253552
0.0253096
0.0252643
0.0252193
0.0251746
0.0251302
0.0250886
0.0250494
0.0250101
0.0249707
0.0249312
0.0248916
0.0248518
0.024812
0.0247721
0.024732
0.0246918
0.0246516
0.0246112
0.0245707
0.0245301
0.0244894
0.0244486
0.0244078
0.0243668
0.0243257
0.0242845
0.0242432
0.0242019
0.0241604
0.0241188
0.0240772
0.0240355
0.0239936
0.0239517
0.0239097
0.0238677
0.0238255
0.0237832
0.0237409
0.0236985
0.023656
0.0236135
0.0235708
0.0235281
0.0234853
0.0234425
0.0233996
0.0233566
0.0233135
0.0232704
0.0232272
0.0231839
0.0231406
0.0230972
0.0230538
0.0230103
0.0229667
0.0229231
0.0228794
0.0228357
0.0227919
0.022748
0.0227042
0.0226602
0.0226162
0.0225722
0.0225281
0.022484
0.0224398
0.0223956
0.0223514
0.0223071
0.0222628
0.0222184
0.022174
0.0221296
0.0220851
0.0220406
0.0219961
0.0219515
0.021907
0.0218623
0.0218177
0.021773
0.0217284
0.0216836
0.0216389
0.0215942
0.0215494
0.0215046
0.0214598
0.021415
0.0213701
0.0213253
0.0212804
0.0212356
0.0211907
0.0211458
0.0211009
0.021056
0.0210111
0.0209662
0.0209213
0.0208763
0.0208314
0.0207865
0.0207416
0.0206967
0.0206517
0.0206068
0.0205619
0.020517
0.0204721
0.0204272
0.0203824
0.0203375
0.0202927
0.0202478
0.020203
0.0201582
0.0201134
0.0200686
0.0200238
0.0199791
0.0199343
0.0198896
0.0198449
0.0198003
0.0197556
0.019711
0.0196664
0.0196218
0.0195773
0.0195328
0.0194883
0.0194438
0.0193994
0.019355
0.0193106
0.0192662
0.0192219
0.0191776
0.0191334
0.0190892
0.019045
0.0190009
0.0189568
0.0189127
0.0188687
0.0188247
0.0187808
0.0187369
0.018693
0.0186492
0.0186054
0.0185617
0.018518
0.0184743
0.0184307
0.0183872
0.0183437
0.0183002
0.0182568
0.0182134
0.0181701
0.0181268
0.0180836
0.0180405
0.0179974
0.0179543
0.0179113
0.0178683
0.0178254
0.0177826
0.0177398
0.0176971
0.0176544
0.0176118
0.0175692
0.0175267
0.0174842
0.0174418
0.0173995
0.0173573
0.0173151
0.0172729
0.017226
0.017175
0.0171249
0.0170753
0.0170265
0.0169784
0.0169309
0.0168841
0.0168379
0.0167924
0.0167475
0.0167032
0.0166594
0.0166162
0.0165736
0.0165315
0.01649
0.016449
0.0164085
0.0163685
0.0163289
0.0162899
0.0162513
0.0162131
0.0161754
0.0161382
0.0161014
0.016065
0.016029
0.0159934
0.0159582
0.0159233
0.0158889
0.0158548
0.0158211
0.0157878
0.0157548
0.0157221
0.0156898
0.0156578
0.0156261
0.0155948
0.0155638
0.015533
0.0155026
0.0154725
0.0154427
0.0154131
0.0153838
0.0153548
0.0153261
0.0152977
0.0152695
0.0152415
0.0152139
0.0151864
0.0151593
0.0151323
0.0151056
0.0150791
0.0150529
0.0150269
0.0150011
0.0149755
0.0149501
0.014925
0.0149
0.0148753
0.0148508
0.0148264
0.0148023
0.0147783
0.0147546
0.014731
0.0147076
0.0146844
0.0146614
0.0146385
0.0146158
0.0145932
0.0145709
0.0145486
0.0145266
0.0145046
0.0144829
0.0144612
0.0144396
0.0144182
0.0143968
0.0143753
0.0143546
0.0143339
0.0142998
0.0143187
0.0142587
)
;
    }
    symmetry
    {
        type            symmetryPlane;
    }
    frontAndBack
    {
        type            empty;
    }
}


// ************************************************************************* //
