/*--------------------------------*- C++ -*----------------------------------*\
| =========                 |                                                 |
| \\      /  F ield         | OpenFOAM: The Open Source CFD Toolbox           |
|  \\    /   O peration     | Version:  v2012                                 |
|   \\  /    A nd           | Website:  www.openfoam.com                      |
|    \\/     M anipulation  |                                                 |
\*---------------------------------------------------------------------------*/
FoamFile
{
    version     2.0;
    format      ascii;
    class       volScalarField;
    location    "51";
    object      nut;
}
// * * * * * * * * * * * * * * * * * * * * * * * * * * * * * * * * * * * * * //

dimensions      [0 2 -1 0 0 0 0];


internalField   nonuniform List<scalar> 
209825
(
1.24254e-07
1.23662e-07
1.21613e-07
1.1745e-07
1.11716e-07
1.05311e-07
9.88937e-08
9.28623e-08
8.73569e-08
8.2435e-08
7.80491e-08
7.41751e-08
7.07284e-08
6.7684e-08
6.49608e-08
6.2546e-08
6.03681e-08
5.84283e-08
5.66629e-08
5.50849e-08
5.36355e-08
5.23361e-08
5.11317e-08
5.00501e-08
4.90378e-08
4.81282e-08
4.72683e-08
4.64973e-08
4.57601e-08
4.51005e-08
4.44637e-08
4.38965e-08
4.3342e-08
4.28505e-08
4.23643e-08
4.19366e-08
4.15078e-08
4.11338e-08
4.07539e-08
4.04259e-08
4.00874e-08
3.97987e-08
3.94955e-08
3.92395e-08
3.89671e-08
3.87408e-08
3.84948e-08
3.82932e-08
3.80706e-08
3.78922e-08
3.76884e-08
3.75298e-08
3.73446e-08
3.72038e-08
3.70348e-08
3.69063e-08
3.67536e-08
3.66399e-08
3.64976e-08
3.63985e-08
3.62665e-08
3.61759e-08
3.6055e-08
3.59731e-08
3.58618e-08
3.57871e-08
3.56869e-08
3.56148e-08
3.55226e-08
3.54574e-08
3.53738e-08
3.53146e-08
3.52387e-08
3.51851e-08
3.5111e-08
3.50573e-08
3.49838e-08
3.49294e-08
3.48583e-08
3.48035e-08
3.47351e-08
3.46817e-08
3.46147e-08
3.45628e-08
3.44978e-08
3.44468e-08
3.43837e-08
3.43342e-08
3.42717e-08
3.4224e-08
3.4162e-08
3.4109e-08
3.40418e-08
3.43348e-08
3.15055e-06
2.34192e-08
1.24254e-07
1.23662e-07
1.21613e-07
1.17451e-07
1.11717e-07
1.05313e-07
9.88959e-08
9.28647e-08
8.73594e-08
8.24375e-08
7.80515e-08
7.41774e-08
7.07306e-08
6.7686e-08
6.49628e-08
6.25479e-08
6.03698e-08
5.84299e-08
5.66644e-08
5.50863e-08
5.36368e-08
5.23373e-08
5.11329e-08
5.00512e-08
4.90388e-08
4.81292e-08
4.72692e-08
4.64981e-08
4.57609e-08
4.51013e-08
4.44644e-08
4.38971e-08
4.33426e-08
4.28511e-08
4.23649e-08
4.19371e-08
4.15082e-08
4.11343e-08
4.07543e-08
4.04263e-08
4.00878e-08
3.9799e-08
3.94958e-08
3.92398e-08
3.89673e-08
3.8741e-08
3.8495e-08
3.82934e-08
3.80708e-08
3.78924e-08
3.76886e-08
3.75299e-08
3.73448e-08
3.72039e-08
3.70349e-08
3.69064e-08
3.67537e-08
3.66399e-08
3.64976e-08
3.63985e-08
3.62665e-08
3.61759e-08
3.6055e-08
3.59731e-08
3.58618e-08
3.5787e-08
3.56869e-08
3.56148e-08
3.55226e-08
3.54573e-08
3.53737e-08
3.53146e-08
3.52386e-08
3.5185e-08
3.51109e-08
3.50572e-08
3.49837e-08
3.49293e-08
3.48581e-08
3.48034e-08
3.4735e-08
3.46816e-08
3.46146e-08
3.45627e-08
3.44977e-08
3.44467e-08
3.43836e-08
3.4334e-08
3.42715e-08
3.42238e-08
3.41618e-08
3.41089e-08
3.40416e-08
3.43349e-08
3.1509e-06
2.35967e-08
1.24254e-07
1.23662e-07
1.21615e-07
1.17455e-07
1.11724e-07
1.05321e-07
9.89053e-08
9.28746e-08
8.73694e-08
8.24473e-08
7.8061e-08
7.41864e-08
7.07392e-08
6.76941e-08
6.49703e-08
6.25549e-08
6.03764e-08
5.8436e-08
5.66701e-08
5.50917e-08
5.36418e-08
5.2342e-08
5.11372e-08
5.00553e-08
4.90426e-08
4.81327e-08
4.72725e-08
4.65012e-08
4.57638e-08
4.51039e-08
4.44669e-08
4.38995e-08
4.33448e-08
4.28531e-08
4.23667e-08
4.19389e-08
4.15099e-08
4.11358e-08
4.07557e-08
4.04276e-08
4.0089e-08
3.98001e-08
3.94968e-08
3.92407e-08
3.89682e-08
3.87418e-08
3.84957e-08
3.8294e-08
3.80713e-08
3.78929e-08
3.7689e-08
3.75303e-08
3.73451e-08
3.72042e-08
3.70351e-08
3.69065e-08
3.67538e-08
3.664e-08
3.64976e-08
3.63985e-08
3.62664e-08
3.61758e-08
3.60549e-08
3.59729e-08
3.58616e-08
3.57868e-08
3.56866e-08
3.56145e-08
3.55223e-08
3.5457e-08
3.53733e-08
3.53142e-08
3.52382e-08
3.51846e-08
3.51104e-08
3.50567e-08
3.49832e-08
3.49288e-08
3.48576e-08
3.48029e-08
3.47345e-08
3.46811e-08
3.4614e-08
3.45621e-08
3.44971e-08
3.44461e-08
3.43829e-08
3.43333e-08
3.42709e-08
3.42231e-08
3.41611e-08
3.41082e-08
3.40408e-08
3.43347e-08
3.15138e-06
2.38353e-08
1.24254e-07
1.23661e-07
1.21617e-07
1.17462e-07
1.11735e-07
1.05335e-07
9.89211e-08
9.28913e-08
8.73863e-08
8.24638e-08
7.80769e-08
7.42016e-08
7.07535e-08
6.77076e-08
6.4983e-08
6.25668e-08
6.03875e-08
5.84464e-08
5.66798e-08
5.51007e-08
5.36502e-08
5.23498e-08
5.11445e-08
5.00621e-08
4.9049e-08
4.81386e-08
4.7278e-08
4.65064e-08
4.57686e-08
4.51085e-08
4.44711e-08
4.39034e-08
4.33484e-08
4.28565e-08
4.23699e-08
4.19418e-08
4.15126e-08
4.11383e-08
4.07581e-08
4.04298e-08
4.0091e-08
3.9802e-08
3.94985e-08
3.92423e-08
3.89696e-08
3.87431e-08
3.84969e-08
3.82951e-08
3.80723e-08
3.78937e-08
3.76898e-08
3.7531e-08
3.73457e-08
3.72047e-08
3.70355e-08
3.69069e-08
3.67541e-08
3.66402e-08
3.64978e-08
3.63986e-08
3.62664e-08
3.61757e-08
3.60547e-08
3.59728e-08
3.58614e-08
3.57865e-08
3.56863e-08
3.56141e-08
3.55219e-08
3.54565e-08
3.53728e-08
3.53136e-08
3.52376e-08
3.51839e-08
3.51098e-08
3.5056e-08
3.49825e-08
3.49281e-08
3.48568e-08
3.48021e-08
3.47336e-08
3.46802e-08
3.46131e-08
3.45612e-08
3.44961e-08
3.44451e-08
3.43819e-08
3.43323e-08
3.42697e-08
3.4222e-08
3.416e-08
3.4107e-08
3.40397e-08
3.43343e-08
3.15209e-06
2.41095e-08
1.24253e-07
1.23661e-07
1.2162e-07
1.17471e-07
1.1175e-07
1.05354e-07
9.89435e-08
9.29149e-08
8.74101e-08
8.24872e-08
7.80995e-08
7.42231e-08
7.07739e-08
6.77267e-08
6.50009e-08
6.25835e-08
6.04031e-08
5.8461e-08
5.66934e-08
5.51134e-08
5.36621e-08
5.23609e-08
5.11549e-08
5.00717e-08
4.9058e-08
4.81471e-08
4.72859e-08
4.65137e-08
4.57755e-08
4.51149e-08
4.44771e-08
4.3909e-08
4.33537e-08
4.28614e-08
4.23745e-08
4.19461e-08
4.15165e-08
4.1142e-08
4.07615e-08
4.0433e-08
4.00939e-08
3.98047e-08
3.9501e-08
3.92446e-08
3.89717e-08
3.8745e-08
3.84986e-08
3.82967e-08
3.80737e-08
3.7895e-08
3.76909e-08
3.7532e-08
3.73465e-08
3.72054e-08
3.70362e-08
3.69074e-08
3.67545e-08
3.66405e-08
3.64979e-08
3.63987e-08
3.62664e-08
3.61757e-08
3.60546e-08
3.59725e-08
3.58611e-08
3.57861e-08
3.56858e-08
3.56136e-08
3.55213e-08
3.54559e-08
3.53721e-08
3.53129e-08
3.52367e-08
3.5183e-08
3.51088e-08
3.50551e-08
3.49815e-08
3.49271e-08
3.48558e-08
3.4801e-08
3.47325e-08
3.4679e-08
3.46119e-08
3.45599e-08
3.44947e-08
3.44437e-08
3.43804e-08
3.43309e-08
3.42682e-08
3.42205e-08
3.41584e-08
3.41054e-08
3.4038e-08
3.43338e-08
3.15307e-06
2.44086e-08
1.24252e-07
1.2366e-07
1.21625e-07
1.17483e-07
1.1177e-07
1.0538e-07
9.89725e-08
9.29455e-08
8.7441e-08
8.25176e-08
7.81287e-08
7.4251e-08
7.08003e-08
6.77515e-08
6.50242e-08
6.26053e-08
6.04235e-08
5.848e-08
5.67112e-08
5.513e-08
5.36775e-08
5.23753e-08
5.11684e-08
5.00843e-08
4.90698e-08
4.8158e-08
4.72961e-08
4.65233e-08
4.57844e-08
4.51232e-08
4.44849e-08
4.39163e-08
4.33605e-08
4.28677e-08
4.23804e-08
4.19516e-08
4.15217e-08
4.11468e-08
4.07659e-08
4.04371e-08
4.00977e-08
3.98082e-08
3.95043e-08
3.92476e-08
3.89745e-08
3.87476e-08
3.85009e-08
3.82988e-08
3.80756e-08
3.78967e-08
3.76925e-08
3.75334e-08
3.73477e-08
3.72064e-08
3.7037e-08
3.69081e-08
3.6755e-08
3.6641e-08
3.64982e-08
3.63989e-08
3.62665e-08
3.61756e-08
3.60544e-08
3.59723e-08
3.58607e-08
3.57857e-08
3.56853e-08
3.5613e-08
3.55205e-08
3.54551e-08
3.53712e-08
3.53119e-08
3.52356e-08
3.51819e-08
3.51077e-08
3.50539e-08
3.49802e-08
3.49258e-08
3.48544e-08
3.47996e-08
3.4731e-08
3.46775e-08
3.46103e-08
3.45583e-08
3.4493e-08
3.4442e-08
3.43786e-08
3.4329e-08
3.42663e-08
3.42185e-08
3.41563e-08
3.41034e-08
3.40359e-08
3.43332e-08
3.15438e-06
2.47285e-08
1.24251e-07
1.23659e-07
1.2163e-07
1.17498e-07
1.11794e-07
1.05411e-07
9.90082e-08
9.29832e-08
8.74791e-08
8.2555e-08
7.81649e-08
7.42854e-08
7.08329e-08
6.77822e-08
6.5053e-08
6.26323e-08
6.04487e-08
5.85036e-08
5.67332e-08
5.51505e-08
5.36967e-08
5.23932e-08
5.1185e-08
5.00999e-08
4.90843e-08
4.81716e-08
4.73088e-08
4.65351e-08
4.57955e-08
4.51336e-08
4.44946e-08
4.39253e-08
4.33689e-08
4.28756e-08
4.23877e-08
4.19584e-08
4.15281e-08
4.11527e-08
4.07714e-08
4.04422e-08
4.01025e-08
3.98126e-08
3.95083e-08
3.92514e-08
3.89779e-08
3.87507e-08
3.85038e-08
3.83015e-08
3.8078e-08
3.78989e-08
3.76944e-08
3.75351e-08
3.73492e-08
3.72077e-08
3.70381e-08
3.69091e-08
3.67558e-08
3.66416e-08
3.64987e-08
3.63992e-08
3.62666e-08
3.61756e-08
3.60542e-08
3.5972e-08
3.58603e-08
3.57851e-08
3.56846e-08
3.56123e-08
3.55197e-08
3.54541e-08
3.53701e-08
3.53107e-08
3.52344e-08
3.51806e-08
3.51063e-08
3.50525e-08
3.49787e-08
3.49243e-08
3.48527e-08
3.47979e-08
3.47292e-08
3.46757e-08
3.46084e-08
3.45563e-08
3.4491e-08
3.44399e-08
3.43764e-08
3.43268e-08
3.42639e-08
3.42162e-08
3.41538e-08
3.41009e-08
3.40334e-08
3.43325e-08
3.15609e-06
2.50696e-08
1.2425e-07
1.23658e-07
1.21636e-07
1.17516e-07
1.11823e-07
1.05449e-07
9.90509e-08
9.30283e-08
8.75247e-08
8.25997e-08
7.82081e-08
7.43266e-08
7.08719e-08
6.78189e-08
6.50875e-08
6.26645e-08
6.04789e-08
5.85317e-08
5.67595e-08
5.51751e-08
5.37196e-08
5.24146e-08
5.1205e-08
5.01186e-08
4.91018e-08
4.81879e-08
4.73241e-08
4.65494e-08
4.58088e-08
4.5146e-08
4.45062e-08
4.39362e-08
4.33791e-08
4.28851e-08
4.23966e-08
4.19667e-08
4.15358e-08
4.11599e-08
4.07781e-08
4.04484e-08
4.01082e-08
3.98179e-08
3.95132e-08
3.92559e-08
3.89821e-08
3.87546e-08
3.85073e-08
3.83047e-08
3.80809e-08
3.79015e-08
3.76967e-08
3.75372e-08
3.7351e-08
3.72093e-08
3.70395e-08
3.69102e-08
3.67567e-08
3.66423e-08
3.64992e-08
3.63995e-08
3.62668e-08
3.61756e-08
3.60541e-08
3.59717e-08
3.58599e-08
3.57846e-08
3.56839e-08
3.56114e-08
3.55187e-08
3.54531e-08
3.53689e-08
3.53094e-08
3.52329e-08
3.51791e-08
3.51047e-08
3.50508e-08
3.49769e-08
3.49225e-08
3.48508e-08
3.4796e-08
3.47271e-08
3.46735e-08
3.46061e-08
3.4554e-08
3.44885e-08
3.44374e-08
3.43738e-08
3.43242e-08
3.42612e-08
3.42134e-08
3.41509e-08
3.4098e-08
3.40304e-08
3.43317e-08
3.15825e-06
2.5435e-08
1.24249e-07
1.23657e-07
1.21643e-07
1.17536e-07
1.11857e-07
1.05492e-07
9.91005e-08
9.30807e-08
8.75777e-08
8.26519e-08
7.82585e-08
7.43746e-08
7.09174e-08
6.78618e-08
6.51277e-08
6.27022e-08
6.05141e-08
5.85646e-08
5.67902e-08
5.52038e-08
5.37464e-08
5.24396e-08
5.12284e-08
5.01404e-08
4.91222e-08
4.8207e-08
4.73419e-08
4.6566e-08
4.58244e-08
4.51606e-08
4.45198e-08
4.39489e-08
4.3391e-08
4.28962e-08
4.2407e-08
4.19764e-08
4.15448e-08
4.11683e-08
4.07859e-08
4.04557e-08
4.0115e-08
3.98242e-08
3.9519e-08
3.92613e-08
3.8987e-08
3.87591e-08
3.85114e-08
3.83085e-08
3.80843e-08
3.79046e-08
3.76995e-08
3.75397e-08
3.73532e-08
3.72112e-08
3.70411e-08
3.69117e-08
3.67578e-08
3.66433e-08
3.64999e-08
3.64e-08
3.62671e-08
3.61757e-08
3.6054e-08
3.59714e-08
3.58594e-08
3.57839e-08
3.56831e-08
3.56105e-08
3.55176e-08
3.54518e-08
3.53675e-08
3.53079e-08
3.52312e-08
3.51773e-08
3.51028e-08
3.50489e-08
3.49749e-08
3.49205e-08
3.48486e-08
3.47938e-08
3.47247e-08
3.46711e-08
3.46035e-08
3.45514e-08
3.44858e-08
3.44346e-08
3.43708e-08
3.43212e-08
3.4258e-08
3.42102e-08
3.41475e-08
3.40947e-08
3.4027e-08
3.43309e-08
3.16091e-06
2.58302e-08
1.24248e-07
1.23656e-07
1.21651e-07
1.1756e-07
1.11895e-07
1.05542e-07
9.91571e-08
9.31407e-08
8.76385e-08
8.27116e-08
7.83162e-08
7.44297e-08
7.09696e-08
6.79109e-08
6.51739e-08
6.27454e-08
6.05545e-08
5.86024e-08
5.68255e-08
5.52367e-08
5.37772e-08
5.24684e-08
5.12553e-08
5.01655e-08
4.91457e-08
4.82289e-08
4.73624e-08
4.65852e-08
4.58424e-08
4.51774e-08
4.45355e-08
4.39636e-08
4.34047e-08
4.2909e-08
4.24189e-08
4.19876e-08
4.15552e-08
4.1178e-08
4.07949e-08
4.04641e-08
4.01228e-08
3.98314e-08
3.95257e-08
3.92675e-08
3.89927e-08
3.87644e-08
3.85162e-08
3.83129e-08
3.80882e-08
3.79082e-08
3.77027e-08
3.75426e-08
3.73557e-08
3.72135e-08
3.70431e-08
3.69133e-08
3.67592e-08
3.66444e-08
3.65007e-08
3.64006e-08
3.62674e-08
3.61759e-08
3.60539e-08
3.59711e-08
3.58589e-08
3.57832e-08
3.56822e-08
3.56095e-08
3.55164e-08
3.54505e-08
3.53659e-08
3.53062e-08
3.52293e-08
3.51753e-08
3.51007e-08
3.50468e-08
3.49726e-08
3.49182e-08
3.48461e-08
3.47912e-08
3.4722e-08
3.46683e-08
3.46006e-08
3.45484e-08
3.44826e-08
3.44314e-08
3.43674e-08
3.43178e-08
3.42544e-08
3.42065e-08
3.41437e-08
3.40909e-08
3.40231e-08
3.43301e-08
3.16413e-06
2.62625e-08
1.24246e-07
1.23654e-07
1.2166e-07
1.17586e-07
1.11938e-07
1.05598e-07
9.9221e-08
9.32083e-08
8.7707e-08
8.27791e-08
7.83814e-08
7.4492e-08
7.10286e-08
6.79665e-08
6.52261e-08
6.27943e-08
6.06003e-08
5.86452e-08
5.68655e-08
5.52741e-08
5.38121e-08
5.2501e-08
5.12858e-08
5.0194e-08
4.91723e-08
4.82538e-08
4.73857e-08
4.6607e-08
4.58627e-08
4.51964e-08
4.45533e-08
4.39803e-08
4.34202e-08
4.29236e-08
4.24325e-08
4.20003e-08
4.1567e-08
4.11891e-08
4.08052e-08
4.04737e-08
4.01317e-08
3.98397e-08
3.95334e-08
3.92745e-08
3.89992e-08
3.87704e-08
3.85217e-08
3.83179e-08
3.80928e-08
3.79124e-08
3.77064e-08
3.75459e-08
3.73587e-08
3.72161e-08
3.70453e-08
3.69153e-08
3.67607e-08
3.66457e-08
3.65017e-08
3.64013e-08
3.62679e-08
3.61761e-08
3.60538e-08
3.59709e-08
3.58584e-08
3.57825e-08
3.56813e-08
3.56084e-08
3.55151e-08
3.5449e-08
3.53642e-08
3.53044e-08
3.52273e-08
3.51732e-08
3.50984e-08
3.50444e-08
3.49701e-08
3.49157e-08
3.48433e-08
3.47885e-08
3.4719e-08
3.46653e-08
3.45974e-08
3.45451e-08
3.44791e-08
3.44279e-08
3.43636e-08
3.4314e-08
3.42504e-08
3.42025e-08
3.41394e-08
3.40867e-08
3.40187e-08
3.43293e-08
3.16793e-06
2.67404e-08
1.24244e-07
1.23652e-07
1.2167e-07
1.17615e-07
1.11986e-07
1.0566e-07
9.92922e-08
9.32838e-08
8.77835e-08
8.28544e-08
7.84543e-08
7.45616e-08
7.10946e-08
6.80287e-08
6.52846e-08
6.28491e-08
6.06516e-08
5.86931e-08
5.69104e-08
5.53159e-08
5.38513e-08
5.25375e-08
5.132e-08
5.02259e-08
4.92022e-08
4.82818e-08
4.74118e-08
4.66314e-08
4.58856e-08
4.52178e-08
4.45734e-08
4.3999e-08
4.34378e-08
4.294e-08
4.24478e-08
4.20146e-08
4.15804e-08
4.12015e-08
4.08168e-08
4.04845e-08
4.01417e-08
3.9849e-08
3.9542e-08
3.92826e-08
3.90065e-08
3.87772e-08
3.85279e-08
3.83236e-08
3.8098e-08
3.79171e-08
3.77107e-08
3.75498e-08
3.73621e-08
3.72191e-08
3.70479e-08
3.69175e-08
3.67626e-08
3.66473e-08
3.65029e-08
3.64022e-08
3.62685e-08
3.61764e-08
3.60539e-08
3.59707e-08
3.58579e-08
3.57818e-08
3.56803e-08
3.56073e-08
3.55137e-08
3.54474e-08
3.53624e-08
3.53024e-08
3.52251e-08
3.51708e-08
3.50959e-08
3.50419e-08
3.49673e-08
3.49129e-08
3.48403e-08
3.47854e-08
3.47157e-08
3.46619e-08
3.45938e-08
3.45415e-08
3.44752e-08
3.44239e-08
3.43595e-08
3.43098e-08
3.42459e-08
3.4198e-08
3.41346e-08
3.4082e-08
3.40139e-08
3.43284e-08
3.17234e-06
2.72737e-08
1.24242e-07
1.2365e-07
1.21681e-07
1.17646e-07
1.12039e-07
1.05729e-07
9.93708e-08
9.33672e-08
8.78682e-08
8.29378e-08
7.8535e-08
7.46387e-08
7.11678e-08
6.80977e-08
6.53494e-08
6.29099e-08
6.07086e-08
5.87464e-08
5.69602e-08
5.53625e-08
5.38948e-08
5.25782e-08
5.1358e-08
5.02615e-08
4.92354e-08
4.83129e-08
4.74409e-08
4.66587e-08
4.59111e-08
4.52417e-08
4.45957e-08
4.40199e-08
4.34573e-08
4.29582e-08
4.24649e-08
4.20305e-08
4.15953e-08
4.12155e-08
4.08298e-08
4.04966e-08
4.01529e-08
3.98595e-08
3.95516e-08
3.92915e-08
3.90148e-08
3.87848e-08
3.85349e-08
3.83301e-08
3.81038e-08
3.79225e-08
3.77155e-08
3.75541e-08
3.73659e-08
3.72225e-08
3.70509e-08
3.69201e-08
3.67647e-08
3.66491e-08
3.65043e-08
3.64033e-08
3.62692e-08
3.61769e-08
3.6054e-08
3.59705e-08
3.58575e-08
3.57811e-08
3.56793e-08
3.56061e-08
3.55122e-08
3.54458e-08
3.53604e-08
3.53003e-08
3.52227e-08
3.51683e-08
3.50932e-08
3.50391e-08
3.49643e-08
3.49099e-08
3.4837e-08
3.47822e-08
3.47121e-08
3.46582e-08
3.45899e-08
3.45375e-08
3.4471e-08
3.44197e-08
3.43549e-08
3.43052e-08
3.42411e-08
3.41931e-08
3.41295e-08
3.40769e-08
3.40086e-08
3.43276e-08
3.17736e-06
2.78727e-08
1.2424e-07
1.23648e-07
1.21692e-07
1.17681e-07
1.12096e-07
1.05804e-07
9.94568e-08
9.34587e-08
8.79611e-08
8.30294e-08
7.86238e-08
7.47236e-08
7.12483e-08
6.81737e-08
6.54209e-08
6.29769e-08
6.07713e-08
5.88051e-08
5.70151e-08
5.54138e-08
5.39428e-08
5.2623e-08
5.13999e-08
5.03007e-08
4.92721e-08
4.83472e-08
4.74731e-08
4.66888e-08
4.59393e-08
4.52681e-08
4.46204e-08
4.4043e-08
4.34789e-08
4.29785e-08
4.24838e-08
4.20482e-08
4.16118e-08
4.12309e-08
4.08441e-08
4.051e-08
4.01654e-08
3.98711e-08
3.95624e-08
3.93015e-08
3.9024e-08
3.87933e-08
3.85427e-08
3.83372e-08
3.81103e-08
3.79285e-08
3.77208e-08
3.7559e-08
3.73702e-08
3.72264e-08
3.70542e-08
3.69231e-08
3.67672e-08
3.66512e-08
3.65059e-08
3.64046e-08
3.62701e-08
3.61775e-08
3.60542e-08
3.59704e-08
3.58571e-08
3.57804e-08
3.56783e-08
3.56049e-08
3.55107e-08
3.5444e-08
3.53584e-08
3.5298e-08
3.52201e-08
3.51656e-08
3.50903e-08
3.50361e-08
3.49611e-08
3.49067e-08
3.48335e-08
3.47786e-08
3.47083e-08
3.46543e-08
3.45857e-08
3.45332e-08
3.44665e-08
3.44151e-08
3.435e-08
3.43003e-08
3.42358e-08
3.41878e-08
3.41239e-08
3.40713e-08
3.40029e-08
3.43269e-08
3.18292e-06
2.85484e-08
1.24238e-07
1.23646e-07
1.21705e-07
1.17718e-07
1.12159e-07
1.05885e-07
9.95505e-08
9.35583e-08
8.80624e-08
8.31295e-08
7.87207e-08
7.48164e-08
7.13364e-08
6.82568e-08
6.54991e-08
6.30502e-08
6.08401e-08
5.88694e-08
5.70753e-08
5.547e-08
5.39954e-08
5.26722e-08
5.1446e-08
5.03438e-08
4.93124e-08
4.83849e-08
4.75084e-08
4.67218e-08
4.59702e-08
4.52971e-08
4.46475e-08
4.40684e-08
4.35027e-08
4.30008e-08
4.25046e-08
4.20677e-08
4.163e-08
4.12479e-08
4.086e-08
4.05248e-08
4.01791e-08
3.98839e-08
3.95743e-08
3.93126e-08
3.90342e-08
3.88028e-08
3.85514e-08
3.83453e-08
3.81176e-08
3.79351e-08
3.77269e-08
3.75644e-08
3.73751e-08
3.72307e-08
3.7058e-08
3.69265e-08
3.677e-08
3.66536e-08
3.65078e-08
3.64062e-08
3.62712e-08
3.61782e-08
3.60546e-08
3.59705e-08
3.58567e-08
3.57798e-08
3.56774e-08
3.56037e-08
3.55091e-08
3.54422e-08
3.53563e-08
3.52957e-08
3.52175e-08
3.51628e-08
3.50873e-08
3.5033e-08
3.49577e-08
3.49033e-08
3.48297e-08
3.47749e-08
3.47042e-08
3.46501e-08
3.45813e-08
3.45286e-08
3.44616e-08
3.44101e-08
3.43447e-08
3.4295e-08
3.42302e-08
3.41821e-08
3.41178e-08
3.40654e-08
3.39968e-08
3.43262e-08
3.18897e-06
2.9312e-08
1.24236e-07
1.23643e-07
1.21718e-07
1.17759e-07
1.12226e-07
1.05974e-07
9.96519e-08
9.36663e-08
8.81724e-08
8.32381e-08
7.88261e-08
7.49172e-08
7.14322e-08
6.83472e-08
6.55842e-08
6.31301e-08
6.0915e-08
5.89395e-08
5.71409e-08
5.55314e-08
5.40528e-08
5.27259e-08
5.14962e-08
5.03908e-08
4.93564e-08
4.84261e-08
4.7547e-08
4.67579e-08
4.60041e-08
4.53288e-08
4.46772e-08
4.40962e-08
4.35288e-08
4.30252e-08
4.25275e-08
4.20891e-08
4.165e-08
4.12666e-08
4.08774e-08
4.05411e-08
4.01943e-08
3.9898e-08
3.95874e-08
3.93248e-08
3.90454e-08
3.88132e-08
3.85609e-08
3.83541e-08
3.81257e-08
3.79425e-08
3.77336e-08
3.75705e-08
3.73805e-08
3.72356e-08
3.70623e-08
3.69303e-08
3.67732e-08
3.66564e-08
3.65101e-08
3.6408e-08
3.62726e-08
3.61792e-08
3.60551e-08
3.59707e-08
3.58565e-08
3.57792e-08
3.56765e-08
3.56025e-08
3.55076e-08
3.54404e-08
3.53541e-08
3.52933e-08
3.52147e-08
3.51598e-08
3.5084e-08
3.50297e-08
3.49542e-08
3.48997e-08
3.48257e-08
3.47709e-08
3.46998e-08
3.46457e-08
3.45765e-08
3.45238e-08
3.44564e-08
3.44049e-08
3.43391e-08
3.42893e-08
3.42242e-08
3.41761e-08
3.41114e-08
3.4059e-08
3.39903e-08
3.43256e-08
3.19536e-06
3.01753e-08
1.24233e-07
1.2364e-07
1.21733e-07
1.17801e-07
1.12298e-07
1.06068e-07
9.9761e-08
9.37828e-08
8.82911e-08
8.33554e-08
7.894e-08
7.50263e-08
7.1536e-08
6.84452e-08
6.56765e-08
6.32167e-08
6.09962e-08
5.90155e-08
5.72121e-08
5.5598e-08
5.41152e-08
5.27843e-08
5.15508e-08
5.04419e-08
4.94043e-08
4.84709e-08
4.7589e-08
4.67973e-08
4.60409e-08
4.53633e-08
4.47096e-08
4.41266e-08
4.35572e-08
4.30518e-08
4.25524e-08
4.21125e-08
4.16718e-08
4.1287e-08
4.08965e-08
4.05589e-08
4.02108e-08
3.99135e-08
3.96017e-08
3.93381e-08
3.90578e-08
3.88247e-08
3.85715e-08
3.83639e-08
3.81346e-08
3.79507e-08
3.7741e-08
3.75773e-08
3.73865e-08
3.72411e-08
3.70671e-08
3.69345e-08
3.67768e-08
3.66596e-08
3.65127e-08
3.64101e-08
3.62742e-08
3.61804e-08
3.60558e-08
3.5971e-08
3.58565e-08
3.57788e-08
3.56756e-08
3.56014e-08
3.55061e-08
3.54386e-08
3.53519e-08
3.52909e-08
3.52119e-08
3.51568e-08
3.50807e-08
3.50262e-08
3.49504e-08
3.48959e-08
3.48216e-08
3.47668e-08
3.46952e-08
3.4641e-08
3.45715e-08
3.45187e-08
3.4451e-08
3.43993e-08
3.43332e-08
3.42834e-08
3.42178e-08
3.41696e-08
3.41045e-08
3.40522e-08
3.39834e-08
3.43251e-08
3.20191e-06
3.11501e-08
1.2423e-07
1.23637e-07
1.21747e-07
1.17847e-07
1.12375e-07
1.0617e-07
9.98781e-08
9.39078e-08
8.84187e-08
8.34817e-08
7.90627e-08
7.51439e-08
7.16479e-08
6.8551e-08
6.57761e-08
6.33103e-08
6.1084e-08
5.90977e-08
5.72891e-08
5.56701e-08
5.41827e-08
5.28474e-08
5.161e-08
5.04972e-08
4.94562e-08
4.85195e-08
4.76345e-08
4.68399e-08
4.60809e-08
4.54008e-08
4.47447e-08
4.41595e-08
4.3588e-08
4.30807e-08
4.25795e-08
4.21379e-08
4.16956e-08
4.13093e-08
4.09173e-08
4.05783e-08
4.02289e-08
3.99304e-08
3.96174e-08
3.93528e-08
3.90713e-08
3.88373e-08
3.85831e-08
3.83746e-08
3.81444e-08
3.79598e-08
3.77492e-08
3.75848e-08
3.73933e-08
3.72471e-08
3.70725e-08
3.69394e-08
3.67809e-08
3.66632e-08
3.65156e-08
3.64126e-08
3.62762e-08
3.61819e-08
3.60568e-08
3.59716e-08
3.58566e-08
3.57785e-08
3.56749e-08
3.56003e-08
3.55046e-08
3.54369e-08
3.53497e-08
3.52884e-08
3.5209e-08
3.51537e-08
3.50772e-08
3.50227e-08
3.49466e-08
3.48919e-08
3.48173e-08
3.47625e-08
3.46904e-08
3.46361e-08
3.45663e-08
3.45133e-08
3.44453e-08
3.43935e-08
3.4327e-08
3.42771e-08
3.42111e-08
3.41629e-08
3.40973e-08
3.40451e-08
3.3976e-08
3.43247e-08
3.20838e-06
3.22484e-08
1.24227e-07
1.23633e-07
1.21763e-07
1.17895e-07
1.12457e-07
1.06278e-07
1.00003e-07
9.40416e-08
8.85553e-08
8.36171e-08
7.91944e-08
7.52702e-08
7.17681e-08
6.86646e-08
6.58833e-08
6.34109e-08
6.11785e-08
5.91863e-08
5.73721e-08
5.57477e-08
5.42554e-08
5.29155e-08
5.16738e-08
5.0557e-08
4.95122e-08
4.8572e-08
4.76837e-08
4.68861e-08
4.61242e-08
4.54414e-08
4.47828e-08
4.41952e-08
4.36215e-08
4.31121e-08
4.26089e-08
4.21654e-08
4.17214e-08
4.13334e-08
4.09398e-08
4.05994e-08
4.02486e-08
3.99488e-08
3.96346e-08
3.93687e-08
3.90861e-08
3.8851e-08
3.85958e-08
3.83864e-08
3.81551e-08
3.79697e-08
3.77582e-08
3.75931e-08
3.74007e-08
3.72539e-08
3.70785e-08
3.69447e-08
3.67856e-08
3.66673e-08
3.6519e-08
3.64155e-08
3.62785e-08
3.61838e-08
3.60581e-08
3.59724e-08
3.58569e-08
3.57783e-08
3.56743e-08
3.55994e-08
3.55032e-08
3.54352e-08
3.53475e-08
3.52859e-08
3.52061e-08
3.51506e-08
3.50737e-08
3.5019e-08
3.49426e-08
3.48879e-08
3.48128e-08
3.47581e-08
3.46855e-08
3.46311e-08
3.45609e-08
3.45077e-08
3.44393e-08
3.43874e-08
3.43205e-08
3.42705e-08
3.42041e-08
3.41558e-08
3.40898e-08
3.40376e-08
3.39684e-08
3.43244e-08
3.21446e-06
3.34823e-08
1.24224e-07
1.2363e-07
1.21779e-07
1.17946e-07
1.12544e-07
1.06392e-07
1.00136e-07
9.41842e-08
8.87012e-08
8.37618e-08
7.93352e-08
7.54054e-08
7.18969e-08
6.87865e-08
6.59982e-08
6.35189e-08
6.12799e-08
5.92814e-08
5.74612e-08
5.58312e-08
5.43337e-08
5.29888e-08
5.17424e-08
5.06213e-08
4.95725e-08
4.86285e-08
4.77367e-08
4.69358e-08
4.61708e-08
4.54851e-08
4.48238e-08
4.42337e-08
4.36576e-08
4.3146e-08
4.26407e-08
4.21952e-08
4.17493e-08
4.13596e-08
4.09643e-08
4.06223e-08
4.027e-08
3.99688e-08
3.96532e-08
3.93861e-08
3.91022e-08
3.8866e-08
3.86096e-08
3.83992e-08
3.81669e-08
3.79806e-08
3.77682e-08
3.76022e-08
3.7409e-08
3.72614e-08
3.70852e-08
3.69508e-08
3.67908e-08
3.6672e-08
3.6523e-08
3.64188e-08
3.62812e-08
3.6186e-08
3.60597e-08
3.59735e-08
3.58575e-08
3.57785e-08
3.56739e-08
3.55987e-08
3.5502e-08
3.54336e-08
3.53455e-08
3.52836e-08
3.52032e-08
3.51475e-08
3.50701e-08
3.50153e-08
3.49386e-08
3.48838e-08
3.48083e-08
3.47535e-08
3.46804e-08
3.46259e-08
3.45553e-08
3.4502e-08
3.44331e-08
3.43812e-08
3.43137e-08
3.42637e-08
3.41968e-08
3.41484e-08
3.40819e-08
3.40298e-08
3.39604e-08
3.43242e-08
3.21974e-06
3.48637e-08
1.24221e-07
1.23626e-07
1.21796e-07
1.18e-07
1.12635e-07
1.06514e-07
1.00277e-07
9.43357e-08
8.88565e-08
8.39159e-08
7.94854e-08
7.55497e-08
7.20344e-08
6.89167e-08
6.61211e-08
6.36345e-08
6.13885e-08
5.93832e-08
5.75567e-08
5.59207e-08
5.44175e-08
5.30673e-08
5.18161e-08
5.06903e-08
4.96372e-08
4.86892e-08
4.77937e-08
4.69892e-08
4.6221e-08
4.55322e-08
4.4868e-08
4.42752e-08
4.36965e-08
4.31826e-08
4.2675e-08
4.22274e-08
4.17794e-08
4.13879e-08
4.09908e-08
4.06472e-08
4.02932e-08
3.99905e-08
3.96734e-08
3.9405e-08
3.91198e-08
3.88824e-08
3.86247e-08
3.84133e-08
3.81798e-08
3.79926e-08
3.77791e-08
3.76123e-08
3.7418e-08
3.72697e-08
3.70926e-08
3.69575e-08
3.67967e-08
3.66772e-08
3.65274e-08
3.64227e-08
3.62844e-08
3.61886e-08
3.60617e-08
3.5975e-08
3.58584e-08
3.57789e-08
3.56738e-08
3.55982e-08
3.5501e-08
3.54322e-08
3.53435e-08
3.52813e-08
3.52005e-08
3.51444e-08
3.50666e-08
3.50116e-08
3.49345e-08
3.48796e-08
3.48036e-08
3.47489e-08
3.46752e-08
3.46207e-08
3.45495e-08
3.44961e-08
3.44268e-08
3.43747e-08
3.43067e-08
3.42567e-08
3.41892e-08
3.41407e-08
3.40737e-08
3.40217e-08
3.39521e-08
3.43241e-08
3.22378e-06
3.64045e-08
1.24218e-07
1.23621e-07
1.21814e-07
1.18056e-07
1.12732e-07
1.06642e-07
1.00427e-07
9.44964e-08
8.90213e-08
8.40798e-08
7.96452e-08
7.57034e-08
7.2181e-08
6.90555e-08
6.62523e-08
6.37579e-08
6.15045e-08
5.9492e-08
5.76589e-08
5.60164e-08
5.45073e-08
5.31514e-08
5.1895e-08
5.07643e-08
4.97066e-08
4.87543e-08
4.78548e-08
4.70466e-08
4.62748e-08
4.55828e-08
4.49155e-08
4.43198e-08
4.37384e-08
4.32219e-08
4.27119e-08
4.22621e-08
4.18119e-08
4.14184e-08
4.10193e-08
4.06739e-08
4.03182e-08
4.00139e-08
3.96952e-08
3.94255e-08
3.91388e-08
3.89001e-08
3.86412e-08
3.84286e-08
3.81939e-08
3.80057e-08
3.77911e-08
3.76233e-08
3.74281e-08
3.72788e-08
3.71009e-08
3.6965e-08
3.68032e-08
3.66831e-08
3.65325e-08
3.64271e-08
3.62881e-08
3.61917e-08
3.60641e-08
3.59769e-08
3.58597e-08
3.57796e-08
3.5674e-08
3.5598e-08
3.55002e-08
3.5431e-08
3.53417e-08
3.52792e-08
3.51978e-08
3.51414e-08
3.50632e-08
3.5008e-08
3.49305e-08
3.48755e-08
3.4799e-08
3.47442e-08
3.46699e-08
3.46153e-08
3.45437e-08
3.44901e-08
3.44203e-08
3.43681e-08
3.42996e-08
3.42494e-08
3.41814e-08
3.41329e-08
3.40652e-08
3.40134e-08
3.39435e-08
3.4324e-08
3.22604e-06
3.81159e-08
1.24215e-07
1.23617e-07
1.21832e-07
1.18114e-07
1.12833e-07
1.06777e-07
1.00584e-07
9.46662e-08
8.91958e-08
8.42534e-08
7.98148e-08
7.58666e-08
7.23369e-08
6.92033e-08
6.63918e-08
6.38893e-08
6.16281e-08
5.9608e-08
5.77678e-08
5.61185e-08
5.46031e-08
5.32413e-08
5.19793e-08
5.08433e-08
4.97808e-08
4.8824e-08
4.79202e-08
4.7108e-08
4.63325e-08
4.5637e-08
4.49664e-08
4.43676e-08
4.37834e-08
4.32642e-08
4.27515e-08
4.22994e-08
4.18469e-08
4.14513e-08
4.10501e-08
4.07028e-08
4.03452e-08
4.00393e-08
3.97189e-08
3.94477e-08
3.91594e-08
3.89194e-08
3.86591e-08
3.84453e-08
3.82093e-08
3.802e-08
3.78042e-08
3.76355e-08
3.74391e-08
3.7289e-08
3.711e-08
3.69733e-08
3.68106e-08
3.66898e-08
3.65383e-08
3.64322e-08
3.62924e-08
3.61954e-08
3.60671e-08
3.59793e-08
3.58614e-08
3.57808e-08
3.56745e-08
3.55981e-08
3.54996e-08
3.54301e-08
3.53402e-08
3.52773e-08
3.51953e-08
3.51386e-08
3.50598e-08
3.50044e-08
3.49265e-08
3.48714e-08
3.47944e-08
3.47395e-08
3.46646e-08
3.461e-08
3.45378e-08
3.4484e-08
3.44137e-08
3.43614e-08
3.42923e-08
3.42421e-08
3.41735e-08
3.41248e-08
3.40566e-08
3.40048e-08
3.39347e-08
3.4324e-08
3.22591e-06
4.00085e-08
1.24211e-07
1.23612e-07
1.21851e-07
1.18175e-07
1.12938e-07
1.06919e-07
1.0075e-07
9.48453e-08
8.93801e-08
8.44372e-08
7.99944e-08
7.60396e-08
7.25022e-08
6.93601e-08
6.65401e-08
6.4029e-08
6.17596e-08
5.97315e-08
5.78838e-08
5.62273e-08
5.47053e-08
5.33371e-08
5.20692e-08
5.09277e-08
4.98601e-08
4.88984e-08
4.79901e-08
4.71736e-08
4.63943e-08
4.5695e-08
4.50209e-08
4.44189e-08
4.38316e-08
4.33095e-08
4.27941e-08
4.23394e-08
4.18845e-08
4.14866e-08
4.10832e-08
4.0734e-08
4.03744e-08
4.00666e-08
3.97445e-08
3.94716e-08
3.91818e-08
3.89403e-08
3.86785e-08
3.84634e-08
3.8226e-08
3.80356e-08
3.78186e-08
3.76488e-08
3.74512e-08
3.73001e-08
3.71201e-08
3.69826e-08
3.68188e-08
3.66973e-08
3.65448e-08
3.6438e-08
3.62974e-08
3.61997e-08
3.60706e-08
3.59822e-08
3.58636e-08
3.57824e-08
3.56755e-08
3.55986e-08
3.54995e-08
3.54295e-08
3.5339e-08
3.52756e-08
3.51931e-08
3.5136e-08
3.50567e-08
3.5001e-08
3.49226e-08
3.48674e-08
3.47898e-08
3.47349e-08
3.46594e-08
3.46047e-08
3.45318e-08
3.4478e-08
3.44071e-08
3.43546e-08
3.42849e-08
3.42346e-08
3.41654e-08
3.41166e-08
3.40477e-08
3.39961e-08
3.39257e-08
3.43241e-08
3.2227e-06
4.20916e-08
1.24208e-07
1.23606e-07
1.2187e-07
1.18239e-07
1.13049e-07
1.07067e-07
1.00924e-07
9.50338e-08
8.95745e-08
8.46311e-08
8.01842e-08
7.62227e-08
7.26773e-08
6.95263e-08
6.66974e-08
6.41772e-08
6.18992e-08
5.98627e-08
5.8007e-08
5.6343e-08
5.48139e-08
5.3439e-08
5.2165e-08
5.10176e-08
4.99445e-08
4.89777e-08
4.80647e-08
4.72437e-08
4.64602e-08
4.5757e-08
4.50792e-08
4.44737e-08
4.38831e-08
4.3358e-08
4.28397e-08
4.23823e-08
4.19248e-08
4.15245e-08
4.11189e-08
4.07674e-08
4.04058e-08
4.00961e-08
3.97721e-08
3.94975e-08
3.92059e-08
3.89629e-08
3.86995e-08
3.84831e-08
3.82443e-08
3.80526e-08
3.78342e-08
3.76633e-08
3.74646e-08
3.73124e-08
3.71313e-08
3.69929e-08
3.6828e-08
3.67056e-08
3.65522e-08
3.64446e-08
3.63031e-08
3.62047e-08
3.60748e-08
3.59857e-08
3.58664e-08
3.57845e-08
3.56769e-08
3.55996e-08
3.54998e-08
3.54293e-08
3.53381e-08
3.52743e-08
3.51911e-08
3.51337e-08
3.50538e-08
3.49978e-08
3.49189e-08
3.48635e-08
3.47854e-08
3.47304e-08
3.46543e-08
3.45995e-08
3.4526e-08
3.4472e-08
3.44005e-08
3.43478e-08
3.42775e-08
3.42271e-08
3.41572e-08
3.41083e-08
3.40387e-08
3.39872e-08
3.39166e-08
3.43241e-08
3.21568e-06
4.43728e-08
1.24204e-07
1.23601e-07
1.2189e-07
1.18304e-07
1.13164e-07
1.07222e-07
1.01107e-07
9.52318e-08
8.9779e-08
8.48355e-08
8.03845e-08
7.6416e-08
7.28623e-08
6.97022e-08
6.68639e-08
6.43343e-08
6.20472e-08
6.00018e-08
5.81379e-08
5.64658e-08
5.49294e-08
5.35474e-08
5.22668e-08
5.11132e-08
5.00345e-08
4.90622e-08
4.81441e-08
4.73184e-08
4.65305e-08
4.58231e-08
4.51415e-08
4.45323e-08
4.39382e-08
4.34099e-08
4.28886e-08
4.24283e-08
4.19681e-08
4.15652e-08
4.11571e-08
4.08034e-08
4.04395e-08
4.01278e-08
3.98018e-08
3.95254e-08
3.9232e-08
3.89874e-08
3.87223e-08
3.85045e-08
3.82641e-08
3.80711e-08