/*--------------------------------*- C++ -*----------------------------------*\
| =========                 |                                                 |
| \\      /  F ield         | OpenFOAM: The Open Source CFD Toolbox           |
|  \\    /   O peration     | Version:  v2012                                 |
|   \\  /    A nd           | Website:  www.openfoam.com                      |
|    \\/     M anipulation  |                                                 |
\*---------------------------------------------------------------------------*/
FoamFile
{
    version     2.0;
    format      ascii;
    class       volScalarField;
    location    "6.5";
    object      k;
}
// * * * * * * * * * * * * * * * * * * * * * * * * * * * * * * * * * * * * * //

dimensions      [0 2 -2 0 0 0 0];


internalField   nonuniform List<scalar> 
209825
(
0.00103713
0.00101525
0.00100784
0.00100449
0.00100265
0.00100158
0.00100088
0.00100043
0.0010001
0.000999884
0.000999714
0.000999601
0.000999505
0.000999443
0.000999389
0.000999353
0.000999309
0.000999292
0.000999278
0.000999265
0.000999238
0.000999235
0.000999232
0.000999226
0.000999203
0.000999217
0.000999217
0.000999223
0.000999221
0.000999237
0.000999237
0.000999255
0.000999254
0.000999317
0.000999317
0.000999321
0.000999319
0.000999356
0.000999356
0.000999368
0.000999368
0.00099942
0.00099942
0.000999427
0.000999427
0.000999479
0.000999479
0.000999519
0.000999519
0.000999534
0.000999534
0.000999628
0.000999628
0.000999628
0.000999614
0.000999638
0.000999638
0.00099975
0.000999784
0.000999784
0.000999782
0.000999888
0.00099989
0.00099989
0.000999887
0.000999993
0.0010001
0.00100012
0.00100012
0.00100012
0.00100029
0.00100037
0.00100037
0.00100049
0.00100067
0.00100069
0.00100069
0.00100083
0.00100105
0.00100121
0.00100137
0.00100158
0.00100177
0.00100197
0.00100232
0.00100268
0.00100309
0.0010036
0.00100437
0.00100511
0.00100658
0.00100807
0.00101037
0.00102372
0.00108609
0.00223061
0.00103713
0.00101524
0.00100781
0.00100447
0.00100262
0.00100155
0.00100084
0.0010004
0.00100007
0.00099985
0.000999679
0.000999566
0.00099947
0.000999408
0.000999354
0.000999318
0.000999274
0.000999256
0.000999243
0.000999229
0.000999202
0.0009992
0.000999197
0.00099919
0.000999167
0.000999181
0.000999181
0.000999187
0.000999185
0.000999201
0.000999201
0.00099922
0.000999218
0.000999281
0.000999281
0.000999285
0.000999283
0.00099932
0.00099932
0.000999332
0.000999332
0.000999384
0.000999384
0.000999391
0.000999391
0.000999443
0.000999443
0.000999484
0.000999483
0.000999499
0.000999499
0.000999592
0.000999592
0.000999592
0.000999578
0.000999602
0.000999602
0.000999714
0.000999748
0.000999748
0.000999746
0.000999852
0.000999855
0.000999855
0.000999851
0.000999957
0.00100006
0.00100009
0.00100009
0.00100009
0.00100026
0.00100034
0.00100034
0.00100046
0.00100064
0.00100066
0.00100066
0.0010008
0.00100101
0.00100117
0.00100133
0.00100154
0.00100173
0.00100194
0.00100229
0.00100264
0.00100306
0.00100357
0.00100434
0.00100508
0.00100654
0.00100804
0.00101034
0.00102372
0.00108613
0.002232
0.0010371
0.00101516
0.00100771
0.00100435
0.0010025
0.00100142
0.00100071
0.00100026
0.000999925
0.000999707
0.000999535
0.000999421
0.000999324
0.000999261
0.000999206
0.00099917
0.000999126
0.000999108
0.000999094
0.000999081
0.000999053
0.000999051
0.000999048
0.000999041
0.000999017
0.000999032
0.000999032
0.000999038
0.000999035
0.000999051
0.000999051
0.00099907
0.000999068
0.000999132
0.000999132
0.000999135
0.000999134
0.000999171
0.000999171
0.000999183
0.000999183
0.000999235
0.000999235
0.000999241
0.000999241
0.000999294
0.000999294
0.000999334
0.000999334
0.00099935
0.000999349
0.000999443
0.000999443
0.000999443
0.000999429
0.000999454
0.000999453
0.000999566
0.0009996
0.0009996
0.000999598
0.000999704
0.000999707
0.000999707
0.000999703
0.000999809
0.000999913
0.000999942
0.000999942
0.000999939
0.00100011
0.00100019
0.00100019
0.00100031
0.00100049
0.00100051
0.00100051
0.00100065
0.00100087
0.00100103
0.00100119
0.0010014
0.00100159
0.00100179
0.00100215
0.0010025
0.00100292
0.00100343
0.0010042
0.00100494
0.00100641
0.00100791
0.0010102
0.00102365
0.00108619
0.0022354
0.00103705
0.00101503
0.00100754
0.00100415
0.00100229
0.0010012
0.00100048
0.00100002
0.000999686
0.000999465
0.000999291
0.000999176
0.000999078
0.000999014
0.000998958
0.000998921
0.000998876
0.000998858
0.000998844
0.00099883
0.000998803
0.0009988
0.000998797
0.00099879
0.000998766
0.00099878
0.00099878
0.000998786
0.000998784
0.000998799
0.000998799
0.000998818
0.000998816
0.00099888
0.00099888
0.000998883
0.000998882
0.000998919
0.000998919
0.000998931
0.000998931
0.000998983
0.000998983
0.00099899
0.00099899
0.000999043
0.000999043
0.000999083
0.000999083
0.000999098
0.000999098
0.000999193
0.000999193
0.000999192
0.000999178
0.000999203
0.000999203
0.000999316
0.00099935
0.00099935
0.000999348
0.000999455
0.000999458
0.000999458
0.000999454
0.00099956
0.000999664
0.000999694
0.000999694
0.000999691
0.000999863
0.000999944
0.000999944
0.00100006
0.00100025
0.00100027
0.00100027
0.00100041
0.00100062
0.00100079
0.00100095
0.00100116
0.00100135
0.00100155
0.00100191
0.00100227
0.00100268
0.0010032
0.00100396
0.00100471
0.00100617
0.00100769
0.00100997
0.00102352
0.00108627
0.00223996
0.00103697
0.00101485
0.00100729
0.00100387
0.00100198
0.00100088
0.00100015
0.000999689
0.000999349
0.000999125
0.000998947
0.000998829
0.00099873
0.000998665
0.000998607
0.00099857
0.000998524
0.000998506
0.000998491
0.000998477
0.000998449
0.000998446
0.000998443
0.000998436
0.000998411
0.000998425
0.000998425
0.000998431
0.000998428
0.000998444
0.000998444
0.000998462
0.000998461
0.000998524
0.000998524
0.000998528
0.000998526
0.000998564
0.000998564
0.000998576
0.000998576
0.000998628
0.000998628
0.000998635
0.000998635
0.000998689
0.000998689
0.000998729
0.000998729
0.000998744
0.000998744
0.000998838
0.000998839
0.000998838
0.000998824
0.000998849
0.000998849
0.000998962
0.000998997
0.000998997
0.000998995
0.000999102
0.000999106
0.000999106
0.000999102
0.000999209
0.000999313
0.000999344
0.000999344
0.000999341
0.000999513
0.000999595
0.000999595
0.000999713
0.000999899
0.000999919
0.000999919
0.00100006
0.00100028
0.00100044
0.0010006
0.00100081
0.00100101
0.00100121
0.00100157
0.00100193
0.00100235
0.00100286
0.00100363
0.00100438
0.00100585
0.00100737
0.00100963
0.00102334
0.00108638
0.00224564
0.00103688
0.00101461
0.00100697
0.00100351
0.00100159
0.00100047
0.000999732
0.000999259
0.000998912
0.000998683
0.000998501
0.000998381
0.000998279
0.000998212
0.000998153
0.000998114
0.000998068
0.000998049
0.000998033
0.000998019
0.00099799
0.000997987
0.000997983
0.000997976
0.000997951
0.000997965
0.000997965
0.00099797
0.000997967
0.000997983
0.000997983
0.000998001
0.000997999
0.000998063
0.000998063
0.000998067
0.000998065
0.000998103
0.000998103
0.000998115
0.000998115
0.000998168
0.000998168
0.000998174
0.000998174
0.000998229
0.000998229
0.000998269
0.000998269
0.000998284
0.000998284
0.000998379
0.00099838
0.000998379
0.000998365
0.000998391
0.000998391
0.000998504
0.00099854
0.00099854
0.000998538
0.000998645
0.000998649
0.000998649
0.000998646
0.000998753
0.000998858
0.00099889
0.00099889
0.000998887
0.000999059
0.000999143
0.000999143
0.000999261
0.000999448
0.00099947
0.00099947
0.000999613
0.000999831
0.000999995
0.00100016
0.00100037
0.00100057
0.00100077
0.00100113
0.00100149
0.00100191
0.00100243
0.0010032
0.00100396
0.00100542
0.00100696
0.0010092
0.0010231
0.00108651
0.00225236
0.00103677
0.00101431
0.00100658
0.00100306
0.00100111
0.00099997
0.000999213
0.000998728
0.000998373
0.000998138
0.000997952
0.000997828
0.000997723
0.000997654
0.000997593
0.000997553
0.000997505
0.000997485
0.000997469
0.000997454
0.000997425
0.000997421
0.000997417
0.000997409
0.000997383
0.000997397
0.000997397
0.000997403
0.000997399
0.000997415
0.000997415
0.000997433
0.000997431
0.000997495
0.000997495
0.000997498
0.000997496
0.000997534
0.000997534
0.000997546
0.000997546
0.0009976
0.0009976
0.000997606
0.000997606
0.000997663
0.000997663
0.000997703
0.000997703
0.000997717
0.000997717
0.000997813
0.000997814
0.000997813
0.000997799
0.000997825
0.000997825
0.000997939
0.000997976
0.000997976
0.000997973
0.000998082
0.000998087
0.000998087
0.000998083
0.000998191
0.000998296
0.00099833
0.00099833
0.000998328
0.000998499
0.000998585
0.000998586
0.000998704
0.000998891
0.000998915
0.000998915
0.000999059
0.000999279
0.000999444
0.000999609
0.000999823
0.00100002
0.00100023
0.00100059
0.00100095
0.00100137
0.0010019
0.00100267
0.00100343
0.00100489
0.00100646
0.00100866
0.0010228
0.00108666
0.00225994
0.00103664
0.00101396
0.00100612
0.00100253
0.00100054
0.00099937
0.000998594
0.000998096
0.000997731
0.000997488
0.000997297
0.000997168
0.00099706
0.000996988
0.000996925
0.000996883
0.000996835
0.000996813
0.000996796
0.00099678
0.000996751
0.000996746
0.000996742
0.000996734
0.000996707
0.00099672
0.00099672
0.000996725
0.000996722
0.000996737
0.000996737
0.000996755
0.000996752
0.000996817
0.000996817
0.00099682
0.000996818
0.000996857
0.000996857
0.000996869
0.000996869
0.000996923
0.000996923
0.000996929
0.000996929
0.000996987
0.000996988
0.000997027
0.000997027
0.000997041
0.000997041
0.000997138
0.000997139
0.000997138
0.000997124
0.000997151
0.000997151
0.000997265
0.000997303
0.000997303
0.000997301
0.00099741
0.000997416
0.000997416
0.000997412
0.00099752
0.000997626
0.000997662
0.000997662
0.00099766
0.000997832
0.00099792
0.000997921
0.000998039
0.000998228
0.000998254
0.000998254
0.000998398
0.00099862
0.000998787
0.000998954
0.000999171
0.000999372
0.000999582
0.000999941
0.00100031
0.00100073
0.00100126
0.00100204
0.00100281
0.00100426
0.00100585
0.00100802
0.00102244
0.00108681
0.00226812
0.00103648
0.00101356
0.00100558
0.00100191
0.000999876
0.000998673
0.000997875
0.000997361
0.000996984
0.000996733
0.000996534
0.000996401
0.000996288
0.000996213
0.000996148
0.000996104
0.000996053
0.00099603
0.000996012
0.000995996
0.000995966
0.00099596
0.000995955
0.000995947
0.000995919
0.000995932
0.000995932
0.000995937
0.000995933
0.000995948
0.000995948
0.000995966
0.000995963
0.000996028
0.000996028
0.000996031
0.000996029
0.000996068
0.000996068
0.000996079
0.000996079
0.000996134
0.000996134
0.00099614
0.00099614
0.0009962
0.000996201
0.00099624
0.00099624
0.000996254
0.000996254
0.000996352
0.000996353
0.000996352
0.000996338
0.000996366
0.000996366
0.000996481
0.00099652
0.00099652
0.000996517
0.000996627
0.000996634
0.000996634
0.000996631
0.00099674
0.000996846
0.000996885
0.000996884
0.000996883
0.000997055
0.000997146
0.000997146
0.000997264
0.000997455
0.000997484
0.000997484
0.000997629
0.000997852
0.000998022
0.000998191
0.00099841
0.000998614
0.000998826
0.000999187
0.000999558
0.000999986
0.00100052
0.0010013
0.00100207
0.00100352
0.00100515
0.00100727
0.00102203
0.00108693
0.00227646
0.00103631
0.0010131
0.00100496
0.00100121
0.000999116
0.000997877
0.000997053
0.000996521
0.00099613
0.000995869
0.000995662
0.000995523
0.000995406
0.000995327
0.000995259
0.000995213
0.00099516
0.000995135
0.000995116
0.000995098
0.000995068
0.000995062
0.000995056
0.000995047
0.000995018
0.00099503
0.00099503
0.000995035
0.00099503
0.000995045
0.000995045
0.000995063
0.000995059
0.000995125
0.000995125
0.000995128
0.000995126
0.000995165
0.000995165
0.000995177
0.000995177
0.000995233
0.000995232
0.000995238
0.000995238
0.000995299
0.000995301
0.00099534
0.00099534
0.000995354
0.000995354
0.000995453
0.000995453
0.000995453
0.000995439
0.000995468
0.000995467
0.000995583
0.000995623
0.000995624
0.000995621
0.000995732
0.00099574
0.00099574
0.000995737
0.000995846
0.000995954
0.000995995
0.000995995
0.000995993
0.000996166
0.00099626
0.00099626
0.000996378
0.000996571
0.000996603
0.000996603
0.000996748
0.000996974
0.000997146
0.000997318
0.00099754
0.000997747
0.000997962
0.000998324
0.000998699
0.000999131
0.000999668
0.00100045
0.00100124
0.00100268
0.00100434
0.00100641
0.00102155
0.00108699
0.00228437
0.00103611
0.00101258
0.00100427
0.00100042
0.000998261
0.00099698
0.000996126
0.000995573
0.000995167
0.000994894
0.000994679
0.000994533
0.00099441
0.000994328
0.000994256
0.000994207
0.000994152
0.000994126
0.000994105
0.000994086
0.000994055
0.000994048
0.000994042
0.000994032
0.000994002
0.000994013
0.000994013
0.000994017
0.000994012
0.000994027
0.000994027
0.000994044
0.00099404
0.000994106
0.000994106
0.000994109
0.000994107
0.000994147
0.000994147
0.000994158
0.000994158
0.000994215
0.000994215
0.000994221
0.00099422
0.000994284
0.000994287
0.000994324
0.000994324
0.000994338
0.000994338
0.000994439
0.000994439
0.000994438
0.000994425
0.000994454
0.000994454
0.000994571
0.000994612
0.000994612
0.00099461
0.000994722
0.000994732
0.000994732
0.000994729
0.000994839
0.000994947
0.000994992
0.000994991
0.00099499
0.000995163
0.000995261
0.000995261
0.000995379
0.000995574
0.000995609
0.000995609
0.000995755
0.000995982
0.000996158
0.000996332
0.000996558
0.000996768
0.000996986
0.00099735
0.00099773
0.000998165
0.000998708
0.000999494
0.00100029
0.00100173
0.00100343
0.00100543
0.00102102
0.00108697
0.00229103
0.0010359
0.00101201
0.0010035
0.000999538
0.000997309
0.00099598
0.000995094
0.000994518
0.000994094
0.000993808
0.000993583
0.000993429
0.000993301
0.000993213
0.000993138
0.000993086
0.000993029
0.000993
0.000992977
0.000992958
0.000992925
0.000992917
0.00099291
0.000992899
0.000992868
0.000992879
0.000992879
0.000992882
0.000992877
0.000992891
0.000992891
0.000992908
0.000992903
0.00099297
0.00099297
0.000992973
0.00099297
0.00099301
0.00099301
0.000993022
0.000993022
0.00099308
0.00099308
0.000993085
0.000993085
0.00099315
0.000993154
0.000993191
0.000993191
0.000993205
0.000993205
0.000993307
0.000993307
0.000993306
0.000993293
0.000993323
0.000993323
0.000993441
0.000993484
0.000993484
0.000993482
0.000993595
0.000993607
0.000993607
0.000993603
0.000993714
0.000993824
0.000993872
0.000993872
0.00099387
0.000994043
0.000994146
0.000994145
0.000994263
0.00099446
0.0009945
0.0009945
0.000994646
0.000994876
0.000995055
0.000995232
0.000995461
0.000995676
0.000995897
0.000996262
0.000996648
0.000997088
0.000997636
0.000998426
0.000999232
0.00100067
0.00100241
0.00100435
0.00102042
0.00108685
0.00229541
0.00103567
0.00101138
0.00100266
0.000998567
0.000996259
0.000994878
0.000993954
0.000993352
0.000992909
0.000992609
0.000992372
0.00099221
0.000992074
0.000991981
0.000991901
0.000991846
0.000991786
0.000991755
0.00099173
0.00099171
0.000991675
0.000991666
0.000991658
0.000991647
0.000991614
0.000991625
0.000991624
0.000991628
0.000991621
0.000991635
0.000991635
0.000991651
0.000991646
0.000991713
0.000991713
0.000991716
0.000991713
0.000991754
0.000991754
0.000991765
0.000991765
0.000991825
0.000991824
0.00099183
0.000991829
0.000991897
0.000991902
0.000991938
0.000991938
0.000991952
0.000991952
0.000992055
0.000992055
0.000992055
0.000992042
0.000992073
0.000992073
0.000992192
0.000992237
0.000992237
0.000992235
0.000992348
0.000992363
0.000992363
0.000992359
0.000992471
0.000992582
0.000992633
0.000992633
0.000992632
0.000992805
0.000992912
0.000992912
0.00099303
0.000993229
0.000993274
0.000993274
0.000993419
0.000993652
0.000993835
0.000994016
0.000994249
0.000994467
0.000994692
0.000995059
0.000995451
0.000995895
0.00099645
0.000997243
0.000998061
0.000999488
0.00100128
0.00100314
0.00101976
0.00108664
0.00229751
0.00103542
0.00101069
0.00100174
0.000997505
0.000995109
0.00099367
0.000992706
0.000992074
0.00099161
0.000991293
0.000991044
0.000990872
0.000990729
0.00099063
0.000990545
0.000990487
0.000990423
0.00099039
0.000990363
0.00099034
0.000990305
0.000990294
0.000990286
0.000990273
0.000990239
0.000990248
0.000990248
0.000990251
0.000990243
0.000990257
0.000990257
0.000990273
0.000990266
0.000990335
0.000990335
0.000990337
0.000990334
0.000990376
0.000990376
0.000990387
0.000990387
0.000990447
0.000990447
0.000990452
0.000990452
0.000990521
0.000990529
0.000990564
0.000990563
0.000990577
0.000990577
0.000990682
0.000990682
0.000990681
0.000990668
0.000990701
0.000990701
0.000990821
0.000990868
0.000990868
0.000990866
0.000990981
0.000990997
0.000990997
0.000990994
0.000991106
0.000991219
0.000991274
0.000991274
0.000991273
0.000991447
0.000991559
0.000991559
0.000991676
0.000991877
0.000991927
0.000991927
0.000992074
0.000992309
0.000992496
0.00099268
0.000992917
0.00099314
0.000993369
0.000993738
0.000994136
0.000994585
0.000995148
0.000995944
0.000996775
0.000998193
0.00100003
0.00100182
0.00101903
0.00108632
0.00229731
0.00103515
0.00100995
0.00100073
0.000996351
0.00099386
0.000992356
0.000991347
0.000990683
0.000990195
0.00098986
0.000989598
0.000989415
0.000989263
0.000989158
0.000989068
0.000989005
0.000988938
0.000988901
0.000988872
0.000988848
0.000988811
0.000988799
0.000988789
0.000988776
0.00098874
0.000988748
0.000988748
0.00098875
0.000988741
0.000988755
0.000988755
0.00098877
0.000988763
0.000988832
0.000988831
0.000988834
0.00098883
0.000988873
0.000988873
0.000988884
0.000988883
0.000988946
0.000988945
0.000988951
0.00098895
0.000989021
0.000989031
0.000989065
0.000989064
0.000989078
0.000989077
0.000989184
0.000989184
0.000989184
0.000989171
0.000989205
0.000989205
0.000989326
0.000989376
0.000989376
0.000989373
0.000989489
0.000989509
0.000989508
0.000989505
0.000989619
0.000989732
0.000989793
0.000989793
0.000989792
0.000989965
0.000990083
0.000990083
0.000990201
0.000990404
0.000990459
0.000990459
0.000990606
0.000990845
0.000991036
0.000991223
0.000991465
0.000991693
0.000991926
0.000992297
0.000992701
0.000993156
0.000993726
0.000994526
0.00099537
0.000996779
0.000998675
0.00100038
0.00101822
0.00108591
0.00229486
0.00103486
0.00100916
0.000999654
0.000995106
0.000992509
0.000990935
0.000989876
0.000989177
0.000988662
0.000988308
0.00098803
0.000987836
0.000987675
0.000987562
0.000987466
0.000987398
0.000987328
0.000987288
0.000987256
0.00098723
0.000987191
0.000987178
0.000987166
0.000987152
0.000987114
0.000987122
0.000987122
0.000987123
0.000987113
0.000987127
0.000987126
0.00098714
0.000987132
0.000987202
0.000987202
0.000987204
0.0009872
0.000987243
0.000987243
0.000987254
0.000987254
0.000987317
0.000987317
0.000987322
0.000987321
0.000987395
0.000987407
0.00098744
0.000987439
0.000987452
0.000987452
0.00098756
0.000987561
0.00098756
0.000987548
0.000987583
0.000987583
0.000987705
0.000987757
0.000987758
0.000987755
0.000987872
0.000987894
0.000987894
0.000987891
0.000988005
0.00098812
0.000988186
0.000988186
0.000988185
0.000988359
0.000988482
0.000988483
0.0009886
0.000988805
0.000988867
0.000988867
0.000989014
0.000989256
0.000989451
0.000989643
0.00098989
0.000990122
0.00099036
0.000990734
0.000991145
0.000991604
0.000992182
0.000992986
0.000993845
0.000995242
0.000997198
0.000998808
0.00101735
0.00108538
0.00229013
0.00103456
0.00100831
0.000998496
0.000993767
0.000991055
0.000989404
0.000988292
0.000987554
0.000987011
0.000986635
0.000986341
0.000986134
0.000985962
0.000985842
0.000985739
0.000985666
0.000985591
0.000985548
0.000985513
0.000985485
0.000985444
0.000985429
0.000985416
0.000985401
0.000985361
0.000985367
0.000985367
0.000985367
0.000985356
0.000985369
0.000985369
0.000985382
0.000985373
0.000985443
0.000985443
0.000985445
0.00098544
0.000985485
0.000985485
0.000985496
0.000985495
0.00098556
0.00098556
0.000985565
0.000985564
0.00098564
0.000985655
0.000985686
0.000985685
0.000985698
0.000985697
0.000985808
0.000985808
0.000985808
0.000985796
0.000985833
0.000985833
0.000985956
0.000986011
0.000986011
0.000986008
0.000986127
0.000986152
0.000986152
0.000986149
0.000986264
0.000986381
0.000986451
0.000986452
0.000986452
0.000986625
0.000986755
0.000986756
0.000986872
0.00098708
0.000987148
0.000987148
0.000987296
0.000987541
0.000987741
0.000987937
0.000988189
0.000988427
0.00098867
0.000989045
0.000989464
0.000989929
0.000990515
0.000991323
0.000992197
0.000993582
0.0009956
0.000997113
0.0010164
0.00108474
0.00228317
0.00103424
0.0010074
0.00099726
0.000992335
0.000989499
0.000987765
0.000986594
0.000985814
0.000985239
0.00098484
0.000984527
0.000984306
0.000984123
0.000983994
0.000983884
0.000983805
0.000983725
0.000983678
0.00098364
0.00098361
0.000983566
0.000983549
0.000983535
0.000983519
0.000983477
0.000983482
0.000983482
0.000983481
0.000983468
0.000983481
0.000983481
0.000983493
0.000983482
0.000983554
0.000983554
0.000983555
0.00098355
0.000983596
0.000983596
0.000983606
0.000983605
0.000983672
0.000983672
0.000983676
0.000983675
0.000983754
0.000983772
0.000983801
0.000983801
0.000983813
0.000983812
0.000983925
0.000983925
0.000983925
0.000983913
0.000983952
0.000983952
0.000984076
0.000984134
0.000984134
0.000984131
0.000984251
0.00098428
0.000984279
0.000984276
0.000984393
0.000984511
0.000984587
0.000984588
0.000984588
0.000984762
0.000984898
0.000984901
0.000985016
0.000985225
0.0009853
0.000985301
0.000985449
0.000985697
0.000985902
0.000986103
0.00098636
0.000986604
0.000986852
0.00098723
0.000987656
0.000988126
0.000988722
0.000989533
0.000990423
0.000991795
0.000993878
0.000995289
0.00101536
0.00108398
0.00227401
0.00103391
0.00100645
0.000995944
0.000990809
0.000987838
0.000986014
0.000984779
0.000983953
0.000983344
0.00098292
0.000982587
0.00098235
0.000982156
0.000982016
0.000981899
0.000981814
0.000981729
0.000981677
0.000981636
0.000981603
0.000981557
0.000981538
0.000981522
0.000981504
0.000981461
0.000981464
0.000981464
0.000981461
0.000981448
0.00098146
0.00098146
0.000981471
0.000981459
0.000981531
0.000981531
0.000981532
0.000981526
0.000981573
0.000981573
0.000981583
0.000981582
0.000981651
0.00098165
0.000981655
0.000981653
0.000981735
0.000981756
0.000981784
0.000981783
0.000981795
0.000981794
0.000981909
0.000981909
0.000981909
0.000981897
0.000981939
0.000981939
0.000982064
0.000982125
0.000982125
0.000982122
0.000982243
0.000982275
0.000982275
0.000982272
0.000982389
0.000982509
0.00098259
0.000982594
0.000982593
0.000982766
0.000982909
0.000982914
0.000983028
0.000983238
0.000983322
0.000983322
0.000983471
0.000983723
0.000983933
0.000984139
0.000984401
0.00098465
0.000984905
0.000985285
0.000985718
0.000986194
0.000986799
0.000987613
0.000988521
0.000989877
0.00099203
0.000993334
0.00101424
0.00108309
0.00226271
0.00103356
0.00100543
0.000994551
0.000989189
0.000986073
0.000984151
0.000982848
0.000981972
0.000981326
0.000980873
0.000980519
0.000980266
0.000980058
0.000979908
0.000979782
0.00097969
0.0009796
0.000979543
0.000979498
0.000979462
0.000979413
0.000979392
0.000979374
0.000979355
0.000979309
0.000979312
0.000979311
0.000979307
0.000979292
0.000979303
0.000979303
0.000979313
0.000979299
0.000979372
0.000979372
0.000979373
0.000979367
0.000979415
0.000979414
0.000979424
0.000979423
0.000979494
0.000979493
0.000979497
0.000979495
0.00097958
0.000979604
0.000979631
0.00097963
0.000979641
0.00097964
0.000979758
0.000979758
0.000979758
0.000979746
0.00097979
0.00097979
0.000979916
0.00097998
0.00097998
0.000979977
0.0009801
0.000980136
0.000980135
0.000980132
0.000980251
0.000980373
0.000980459
0.000980464
0.000980464
0.000980637
0.000980787
0.000980794
0.000980906
0.000981118
0.00098121
0.000981211
0.00098136
0.000981615
0.000981831
0.000982041
0.000982309
0.000982565
0.000982825
0.000983208
0.000983649
0.000984131
0.000984746
0.000985562
0.000986488
0.000987828
0.000990051
0.000991245
0.00101302
0.00108207
0.00224932
0.0010332
0.00100437
0.000993079
0.000987474
0.000984203
0.000982175
0.000980798
0.000979869
0.000979182
0.0009787
0.000978322
0.000978051
0.000977828
0.000977667
0.000977531
0.000977432
0.000977335
0.000977274
0.000977224
0.000977185
0.000977134
0.00097711
0.000977089
0.000977069
0.000977021
0.000977022
0.00097702
0.000977016
0.000976999
0.000977009
0.000977009
0.000977018
0.000977003
0.000977076
0.000977076
0.000977077
0.000977069
0.000977118
0.000977118
0.000977128
0.000977126
0.000977199
0.000977199
0.000977202
0.0009772
0.000977287
0.000977315
0.00097734
0.000977339
0.00097735
0.000977349
0.000977469
0.000977469
0.000977469
0.000977457
0.000977504
0.000977504
0.000977631
0.000977698
0.000977699
0.000977696
0.000977819
0.00097786
0.000977859
0.000977856
0.000977976
0.000978099
0.000978192
0.000978199
0.000978198
0.000978371
0.000978528
0.000978538
0.000978648
0.000978862
0.000978963
0.000978964
0.000979114
0.000979372
0.000979593
0.000979809
0.000980083
0.000980345
0.000980611
0.000980996
0.000981446
0.000981933
0.000982558
0.000983377
0.000984321
0.000985644
0.000987939
0.000989019
0.0010117
0.00108092
0.0022339
0.00103282
0.00100325
0.00099153
0.000985665
0.000982226
0.000980086
0.000978628
0.000977642
0.000976912
0.000976397
0.000975993
0.000975702
0.000975464
0.000975291
0.000975144
0.000975038
0.000974934
0.000974867
0.000974812
0.00097477
0.000974716
0.000974689
0.000974666
0.000974644
0.000974595
0.000974594
0.000974591
0.000974585
0.000974566
0.000974576
0.000974576
0.000974583
0.000974566
0.00097464
0.00097464
0.00097464
0.000974632
0.000974682
0.000974682
0.000974691
0.000974689
0.000974764
0.000974764
0.000974767
0.000974764
0.000974854
0.000974887
0.00097491
0.000974909
0.000974919
0.000974918
0.00097504
0.000975041
0.00097504
0.000975029
0.000975078
0.000975078
0.000975206
0.000975277
0.000975277
0.000975274
0.000975399
0.000975445
0.000975444
0.000975441
0.000975562
0.000975687
0.000975785
0.000975795
0.000975794
0.000975966
0.00097613
0.000976145
0.000976252
0.000976467
0.000976579
0.000976579
0.000976729
0.000976991
0.000977218
0.000977438
0.000977719
0.000977987
0.000978261
0.000978648
0.000979106
0.000979599
0.000980234
0.000981055
0.000982018
0.000983323
0.000985691
0.000986654
0.00101028
0.00107962
0.00221653
0.00103244
0.00100209
0.000989903
0.000983762
0.000980144
0.000977882
0.000976339
0.00097529
0.000974513
0.000973963
0.000973532
0.00097322
0.000972965
0.000972778
0.00097262
0.000972505
0.000972394
0.000972321
0.000972261
0.000972215
0.000972157
0.000972127
0.000972102
0.000972078
0.000972027
0.000972024
0.000972019
0.000972013
0.000971992
0.000972001
0.000972001
0.000972007
0.000971987
0.000972061
0.000972062
0.000972062
0.000972052
0.000972104
0.000972104
0.000972112
0.00097211
0.000972187
0.000972187
0.00097219
0.000972187
0.000972279
0.000972316
0.000972337
0.000972337
0.000972347
0.000972344
0.00097247
0.00097247
0.00097247
0.000972459
0.000972511
0.000972511
0.00097264
0.000972714
0.000972715
0.000972712
0.000972838
0.000972888
0.000972887
0.000972884
0.000973007
0.000973133
0.000973237
0.00097325
0.000973249
0.000973421
0.000973592
0.000973611
0.000973715
0.000973931
0.000974054
0.000974054
0.000974205
0.00097447
0.000974703
0.000974928
0.000975215
0.00097549
0.000975771
0.00097616
0.000976627
0.000977125
0.000977771
0.000978593
0.000979576
0.000980862
0.000983303
0.000984147
0.00100874
0.00107816
0.00219729
0.00103204
0.00100087
0.0009882
0.000981764
0.000977955
0.000975563
0.000973928
0.000972812
0.000971985
0.000971397
0.000970937
0.000970602
0.000970328
0.000970126
0.000969957
0.000969832
0.000969713
0.000969634
0.000969568
0.000969518
0.000969456
0.000969423
0.000969395
0.00096937
0.000969315
0.00096931
0.000969305
0.000969297
0.000969274
0.000969282
0.000969282
0.000969286
0.000969264
0.000969339
0.000969339
0.000969339
0.000969328
0.000969381
0.000969381
0.000969389
0.000969386
0.000969466
0.000969466
0.000969468
0.000969464
0.00096956
0.000969601
0.00096962
0.00096962
0.000969629
0.000969627
0.000969755
0.000969755
0.000969755
0.000969744
0.0009698
0.000969799
0.000969929
0.000970008
0.000970008
0.000970005
0.000970132
0.000970187
0.000970187
0.000970184
0.000970308
0.000970436
0.000970546
0.000970562
0.000970561
0.000970732
0.00097091
0.000970935
0.000971036
0.000971251
0.000971386
0.000971386
0.000971538
0.000971806
0.000972045
0.000972276
0.00097257
0.000972851
0.00097314
0.000973531
0.000974006
0.00097451
0.000975167
0.000975989
0.000976993
0.000978258
0.000980772
0.000981497
0.00100707
0.00107654
0.00217627
0.00103163
0.000999608
0.000986422
0.000979671
0.000975659
0.000973129
0.000971394
0.000970207
0.000969327
0.000968698
0.000968206
0.000967846
0.000967552
0.000967335
0.000967153
0.000967017
0.00096689
0.000966803
0.000966731
0.000966677
0.000966611
0.000966574
0.000966543
0.000966516
0.000966458
0.000966451
0.000966444
0.000966435
0.000966411
0.000966417
0.000966417
0.00096642
0.000966394
0.00096647
0.00096647
0.00096647
0.000966458
0.000966512
0.000966512
0.00096652
0.000966516
0.000966598
0.000966598
0.0009666
0.000966596
0.000966694
0.000966739
0.000966758
0.000966757
0.000966766
0.000966763
0.000966894
0.000966894
0.000966894
0.000966883
0.000966942
0.000966942
0.000967072
0.000967155
0.000967155
0.000967152
0.000967281
0.000967341
0.00096734
0.000967338
0.000967463
0.000967592
0.000967709
0.000967729
0.000967728
0.000967898
0.000968083
0.000968115
0.000968212
0.000968427
0.000968573
0.000968574
0.000968727
0.000968998
0.000969243
0.000969479
0.000969779
0.000970068
0.000970364
0.000970757
0.000971242
0.000971751
0.000972418
0.000973241
0.000974265
0.00097551
0.000978095
0.0009787
0.00100528
0.00107475
0.00215356
0.00103122
0.000998298
0.000984568
0.000977486
0.000973256
0.000970578
0.000968739
0.000967475
0.000966536
0.000965864
0.000965337
0.000964951
0.000964636
0.000964401
0.000964205
0.000964059
0.000963922
0.000963827
0.000963749
0.000963689
0.000963619
0.000963578
0.000963544
0.000963514
0.000963454
0.000963445
0.000963436
0.000963426
0.000963399
0.000963405
0.000963405
0.000963405
0.000963377
0.000963452
0.000963453
0.000963452
0.000963439
0.000963494
0.000963494
0.000963501
0.000963497
0.000963582
0.000963581
0.000963583
0.000963578
0.000963679
0.000963729
0.000963746
0.000963746
0.000963754
0.00096375
0.000963884
0.000963884
0.000963884
0.000963874
0.000963936
0.000963936
0.000964067
0.000964154
0.000964154
0.000964151
0.000964281
0.000964347
0.000964346
0.000964344
0.00096447
0.000964601
0.000964723
0.000964749
0.000964748
0.000964916
0.000965109
0.000965148
0.00096524
0.000965455
0.000965613
0.000965616
0.000965769
0.000966042
0.000966294