/*--------------------------------*- C++ -*----------------------------------*\
| =========                 |                                                 |
| \\      /  F ield         | OpenFOAM: The Open Source CFD Toolbox           |
|  \\    /   O peration     | Version:  v2012                                 |
|   \\  /    A nd           | Website:  www.openfoam.com                      |
|    \\/     M anipulation  |                                                 |
\*---------------------------------------------------------------------------*/
FoamFile
{
    version     2.0;
    format      ascii;
    class       volScalarField;
    location    "6.5";
    object      nut;
}
// * * * * * * * * * * * * * * * * * * * * * * * * * * * * * * * * * * * * * //

dimensions      [0 2 -1 0 0 0 0];


internalField   nonuniform List<scalar> 
209825
(
1.24873e-07
1.25899e-07
1.26498e-07
1.26862e-07
1.27107e-07
1.27282e-07
1.27412e-07
1.2751e-07
1.27588e-07
1.27648e-07
1.27698e-07
1.27738e-07
1.27771e-07
1.27798e-07
1.27822e-07
1.2784e-07
1.27856e-07
1.2787e-07
1.27883e-07
1.27892e-07
1.27901e-07
1.27907e-07
1.27913e-07
1.27918e-07
1.27923e-07
1.27927e-07
1.2793e-07
1.27933e-07
1.27938e-07
1.27939e-07
1.2794e-07
1.27942e-07
1.27942e-07
1.27949e-07
1.2795e-07
1.27947e-07
1.27947e-07
1.27948e-07
1.27948e-07
1.27943e-07
1.27943e-07
1.27942e-07
1.27942e-07
1.27924e-07
1.2792e-07
1.27927e-07
1.27927e-07
1.27921e-07
1.27921e-07
1.27907e-07
1.27907e-07
1.27899e-07
1.27888e-07
1.27878e-07
1.27876e-07
1.27866e-07
1.27855e-07
1.27861e-07
1.27862e-07
1.27862e-07
1.27862e-07
1.2786e-07
1.2786e-07
1.27841e-07
1.27832e-07
1.27845e-07
1.27859e-07
1.27842e-07
1.27842e-07
1.27817e-07
1.27825e-07
1.27822e-07
1.27806e-07
1.27821e-07
1.27844e-07
1.27822e-07
1.27814e-07
1.27809e-07
1.27829e-07
1.2785e-07
1.27844e-07
1.27868e-07
1.2787e-07
1.27861e-07
1.27895e-07
1.27913e-07
1.27928e-07
1.27959e-07
1.28002e-07
1.28047e-07
1.28142e-07
1.28235e-07
1.28404e-07
1.29311e-07
1.33576e-07
1.90152e-08
1.24873e-07
1.25899e-07
1.26498e-07
1.26862e-07
1.27108e-07
1.27282e-07
1.27412e-07
1.27511e-07
1.27588e-07
1.27649e-07
1.27699e-07
1.27738e-07
1.27772e-07
1.27799e-07
1.27823e-07
1.27841e-07
1.27857e-07
1.2787e-07
1.27884e-07
1.27893e-07
1.27901e-07
1.27908e-07
1.27914e-07
1.27919e-07
1.27924e-07
1.27928e-07
1.27931e-07
1.27934e-07
1.27939e-07
1.2794e-07
1.27941e-07
1.27943e-07
1.27943e-07
1.2795e-07
1.27951e-07
1.27948e-07
1.27948e-07
1.27949e-07
1.27949e-07
1.27944e-07
1.27944e-07
1.27943e-07
1.27943e-07
1.27925e-07
1.27921e-07
1.27928e-07
1.27928e-07
1.27922e-07
1.27922e-07
1.27908e-07
1.27908e-07
1.279e-07
1.27889e-07
1.27879e-07
1.27877e-07
1.27867e-07
1.27856e-07
1.27862e-07
1.27863e-07
1.27863e-07
1.27863e-07
1.27861e-07
1.27861e-07
1.27842e-07
1.27833e-07
1.27846e-07
1.2786e-07
1.27843e-07
1.27843e-07
1.27818e-07
1.27826e-07
1.27823e-07
1.27807e-07
1.27822e-07
1.27845e-07
1.27823e-07
1.27815e-07
1.2781e-07
1.27831e-07
1.27851e-07
1.27845e-07
1.27869e-07
1.27871e-07
1.27862e-07
1.27897e-07
1.27914e-07
1.27929e-07
1.2796e-07
1.28003e-07
1.28048e-07
1.28144e-07
1.28236e-07
1.28405e-07
1.29314e-07
1.33583e-07
1.95766e-08
1.24871e-07
1.25896e-07
1.26495e-07
1.26859e-07
1.27105e-07
1.2728e-07
1.2741e-07
1.27509e-07
1.27586e-07
1.27648e-07
1.27697e-07
1.27737e-07
1.27771e-07
1.27798e-07
1.27822e-07
1.2784e-07
1.27856e-07
1.2787e-07
1.27883e-07
1.27892e-07
1.27901e-07
1.27908e-07
1.27914e-07
1.27918e-07
1.27924e-07
1.27928e-07
1.2793e-07
1.27933e-07
1.27938e-07
1.2794e-07
1.27941e-07
1.27942e-07
1.27942e-07
1.27949e-07
1.27951e-07
1.27948e-07
1.27947e-07
1.27948e-07
1.27948e-07
1.27944e-07
1.27944e-07
1.27943e-07
1.27943e-07
1.27925e-07
1.27921e-07
1.27928e-07
1.27928e-07
1.27922e-07
1.27922e-07
1.27907e-07
1.27907e-07
1.279e-07
1.27889e-07
1.27879e-07
1.27877e-07
1.27867e-07
1.27855e-07
1.27861e-07
1.27863e-07
1.27863e-07
1.27862e-07
1.27861e-07
1.27861e-07
1.27842e-07
1.27833e-07
1.27846e-07
1.27859e-07
1.27843e-07
1.27843e-07
1.27818e-07
1.27826e-07
1.27823e-07
1.27806e-07
1.27821e-07
1.27845e-07
1.27823e-07
1.27815e-07
1.2781e-07
1.2783e-07
1.27851e-07
1.27845e-07
1.27869e-07
1.27871e-07
1.27862e-07
1.27897e-07
1.27914e-07
1.27929e-07
1.2796e-07
1.28004e-07
1.28049e-07
1.28144e-07
1.28237e-07
1.28406e-07
1.2932e-07
1.33598e-07
2.02785e-08
1.24869e-07
1.25892e-07
1.26491e-07
1.26855e-07
1.27102e-07
1.27277e-07
1.27408e-07
1.27507e-07
1.27584e-07
1.27646e-07
1.27696e-07
1.27736e-07
1.27769e-07
1.27797e-07
1.27821e-07
1.27839e-07
1.27855e-07
1.27869e-07
1.27883e-07
1.27892e-07
1.279e-07
1.27907e-07
1.27913e-07
1.27918e-07
1.27923e-07
1.27927e-07
1.2793e-07
1.27933e-07
1.27938e-07
1.2794e-07
1.27941e-07
1.27942e-07
1.27942e-07
1.27949e-07
1.27951e-07
1.27948e-07
1.27947e-07
1.27948e-07
1.27948e-07
1.27944e-07
1.27944e-07
1.27943e-07
1.27943e-07
1.27925e-07
1.27921e-07
1.27928e-07
1.27928e-07
1.27922e-07
1.27922e-07
1.27908e-07
1.27908e-07
1.279e-07
1.27889e-07
1.27879e-07
1.27877e-07
1.27867e-07
1.27856e-07
1.27862e-07
1.27863e-07
1.27863e-07
1.27863e-07
1.27861e-07
1.27861e-07
1.27842e-07
1.27833e-07
1.27846e-07
1.2786e-07
1.27843e-07
1.27843e-07
1.27818e-07
1.27827e-07
1.27823e-07
1.27807e-07
1.27822e-07
1.27845e-07
1.27824e-07
1.27815e-07
1.2781e-07
1.27831e-07
1.27851e-07
1.27846e-07
1.2787e-07
1.27871e-07
1.27863e-07
1.27897e-07
1.27915e-07
1.2793e-07
1.27962e-07
1.28005e-07
1.2805e-07
1.28146e-07
1.28239e-07
1.28407e-07
1.29329e-07
1.33624e-07
2.10616e-08
1.24865e-07
1.25887e-07
1.26486e-07
1.26851e-07
1.27098e-07
1.27274e-07
1.27404e-07
1.27504e-07
1.27582e-07
1.27644e-07
1.27694e-07
1.27734e-07
1.27768e-07
1.27796e-07
1.2782e-07
1.27839e-07
1.27855e-07
1.27868e-07
1.27882e-07
1.27891e-07
1.279e-07
1.27907e-07
1.27913e-07
1.27918e-07
1.27923e-07
1.27927e-07
1.2793e-07
1.27933e-07
1.27938e-07
1.2794e-07
1.27941e-07
1.27942e-07
1.27942e-07
1.2795e-07
1.27951e-07
1.27948e-07
1.27948e-07
1.27949e-07
1.27949e-07
1.27944e-07
1.27944e-07
1.27944e-07
1.27944e-07
1.27925e-07
1.27921e-07
1.27928e-07
1.27928e-07
1.27922e-07
1.27922e-07
1.27908e-07
1.27908e-07
1.279e-07
1.2789e-07
1.27879e-07
1.27878e-07
1.27868e-07
1.27856e-07
1.27862e-07
1.27864e-07
1.27863e-07
1.27863e-07
1.27861e-07
1.27862e-07
1.27843e-07
1.27833e-07
1.27847e-07
1.2786e-07
1.27844e-07
1.27844e-07
1.27819e-07
1.27827e-07
1.27824e-07
1.27807e-07
1.27822e-07
1.27846e-07
1.27825e-07
1.27816e-07
1.27811e-07
1.27832e-07
1.27852e-07
1.27847e-07
1.27871e-07
1.27873e-07
1.27865e-07
1.27899e-07
1.27917e-07
1.27932e-07
1.27963e-07
1.28007e-07
1.28052e-07
1.28148e-07
1.28242e-07
1.28409e-07
1.29342e-07
1.3366e-07
2.19152e-08
1.24861e-07
1.2588e-07
1.26479e-07
1.26845e-07
1.27093e-07
1.27269e-07
1.274e-07
1.27501e-07
1.27579e-07
1.27641e-07
1.27692e-07
1.27733e-07
1.27767e-07
1.27794e-07
1.27819e-07
1.27838e-07
1.27854e-07
1.27868e-07
1.27882e-07
1.27891e-07
1.279e-07
1.27907e-07
1.27913e-07
1.27918e-07
1.27924e-07
1.27928e-07
1.2793e-07
1.27934e-07
1.27939e-07
1.2794e-07
1.27942e-07
1.27943e-07
1.27943e-07
1.2795e-07
1.27952e-07
1.27949e-07
1.27949e-07
1.2795e-07
1.2795e-07
1.27945e-07
1.27945e-07
1.27945e-07
1.27945e-07
1.27926e-07
1.27922e-07
1.2793e-07
1.2793e-07
1.27924e-07
1.27924e-07
1.27909e-07
1.27909e-07
1.27902e-07
1.27891e-07
1.2788e-07
1.27879e-07
1.27869e-07
1.27857e-07
1.27863e-07
1.27865e-07
1.27865e-07
1.27865e-07
1.27863e-07
1.27863e-07
1.27844e-07
1.27835e-07
1.27848e-07
1.27862e-07
1.27846e-07
1.27846e-07
1.2782e-07
1.27829e-07
1.27826e-07
1.27809e-07
1.27824e-07
1.27848e-07
1.27827e-07
1.27818e-07
1.27813e-07
1.27833e-07
1.27854e-07
1.27849e-07
1.27873e-07
1.27875e-07
1.27867e-07
1.27901e-07
1.27919e-07
1.27935e-07
1.27966e-07
1.2801e-07
1.28056e-07
1.28151e-07
1.28247e-07
1.28412e-07
1.29359e-07
1.33707e-07
2.28373e-08
1.24856e-07
1.25872e-07
1.26471e-07
1.26838e-07
1.27086e-07
1.27264e-07
1.27396e-07
1.27497e-07
1.27576e-07
1.27639e-07
1.2769e-07
1.27731e-07
1.27765e-07
1.27793e-07
1.27818e-07
1.27837e-07
1.27854e-07
1.27868e-07
1.27882e-07
1.27892e-07
1.279e-07
1.27907e-07
1.27914e-07
1.27919e-07
1.27924e-07
1.27929e-07
1.27931e-07
1.27935e-07
1.2794e-07
1.27941e-07
1.27943e-07
1.27944e-07
1.27944e-07
1.27952e-07
1.27953e-07
1.2795e-07
1.2795e-07
1.27951e-07
1.27951e-07
1.27947e-07
1.27947e-07
1.27946e-07
1.27946e-07
1.27928e-07
1.27924e-07
1.27931e-07
1.27931e-07
1.27925e-07
1.27925e-07
1.27911e-07
1.27911e-07
1.27904e-07
1.27893e-07
1.27882e-07
1.2788e-07
1.27871e-07
1.27859e-07
1.27865e-07
1.27867e-07
1.27867e-07
1.27866e-07
1.27864e-07
1.27865e-07
1.27846e-07
1.27836e-07
1.2785e-07
1.27864e-07
1.27848e-07
1.27848e-07
1.27822e-07
1.27831e-07
1.27828e-07
1.27811e-07
1.27826e-07
1.2785e-07
1.27829e-07
1.2782e-07
1.27815e-07
1.27836e-07
1.27857e-07
1.27852e-07
1.27876e-07
1.27878e-07
1.2787e-07
1.27904e-07
1.27922e-07
1.27938e-07
1.2797e-07
1.28014e-07
1.2806e-07
1.28156e-07
1.28253e-07
1.28415e-07
1.29381e-07
1.33764e-07
2.38287e-08
1.24849e-07
1.25863e-07
1.26462e-07
1.26829e-07
1.27079e-07
1.27257e-07
1.27391e-07
1.27492e-07
1.27572e-07
1.27636e-07
1.27687e-07
1.27729e-07
1.27764e-07
1.27792e-07
1.27817e-07
1.27837e-07
1.27853e-07
1.27868e-07
1.27882e-07
1.27892e-07
1.27901e-07
1.27908e-07
1.27915e-07
1.2792e-07
1.27925e-07
1.2793e-07
1.27933e-07
1.27936e-07
1.27941e-07
1.27943e-07
1.27944e-07
1.27946e-07
1.27946e-07
1.27953e-07
1.27955e-07
1.27952e-07
1.27952e-07
1.27953e-07
1.27953e-07
1.27949e-07
1.27949e-07
1.27949e-07
1.27949e-07
1.2793e-07
1.27926e-07
1.27934e-07
1.27934e-07
1.27928e-07
1.27928e-07
1.27913e-07
1.27913e-07
1.27906e-07
1.27895e-07
1.27885e-07
1.27883e-07
1.27874e-07
1.27862e-07
1.27868e-07
1.27869e-07
1.27869e-07
1.27869e-07
1.27867e-07
1.27868e-07
1.27849e-07
1.27839e-07
1.27853e-07
1.27866e-07
1.27851e-07
1.27851e-07
1.27825e-07
1.27833e-07
1.27831e-07
1.27814e-07
1.27829e-07
1.27853e-07
1.27832e-07
1.27823e-07
1.27818e-07
1.27839e-07
1.2786e-07
1.27855e-07
1.27879e-07
1.27882e-07
1.27874e-07
1.27908e-07
1.27927e-07
1.27943e-07
1.27975e-07
1.28019e-07
1.28066e-07
1.28161e-07
1.2826e-07
1.2842e-07
1.29406e-07
1.33831e-07
2.48906e-08
1.24842e-07
1.25852e-07
1.26451e-07
1.2682e-07
1.27071e-07
1.2725e-07
1.27385e-07
1.27487e-07
1.27568e-07
1.27632e-07
1.27685e-07
1.27727e-07
1.27762e-07
1.27791e-07
1.27816e-07
1.27837e-07
1.27853e-07
1.27868e-07
1.27883e-07
1.27893e-07
1.27902e-07
1.27909e-07
1.27916e-07
1.27921e-07
1.27927e-07
1.27931e-07
1.27934e-07
1.27938e-07
1.27943e-07
1.27945e-07
1.27946e-07
1.27948e-07
1.27948e-07
1.27956e-07
1.27957e-07
1.27954e-07
1.27954e-07
1.27956e-07
1.27956e-07
1.27951e-07
1.27951e-07
1.27951e-07
1.27951e-07
1.27933e-07
1.27929e-07
1.27937e-07
1.27937e-07
1.27931e-07
1.27931e-07
1.27916e-07
1.27916e-07
1.27909e-07
1.27899e-07
1.27888e-07
1.27886e-07
1.27877e-07
1.27865e-07
1.27871e-07
1.27872e-07
1.27872e-07
1.27872e-07
1.2787e-07
1.27871e-07
1.27852e-07
1.27842e-07
1.27856e-07
1.2787e-07
1.27854e-07
1.27854e-07
1.27828e-07
1.27837e-07
1.27835e-07
1.27817e-07
1.27832e-07
1.27857e-07
1.27836e-07
1.27827e-07
1.27822e-07
1.27842e-07
1.27864e-07
1.27859e-07
1.27883e-07
1.27886e-07
1.27879e-07
1.27913e-07
1.27932e-07
1.27948e-07
1.2798e-07
1.28025e-07
1.28072e-07
1.28167e-07
1.28269e-07
1.28426e-07
1.29436e-07
1.33905e-07
2.60242e-08
1.24834e-07
1.25839e-07
1.26439e-07
1.26809e-07
1.27061e-07
1.27242e-07
1.27378e-07
1.27482e-07
1.27564e-07
1.27629e-07
1.27682e-07
1.27725e-07
1.27761e-07
1.2779e-07
1.27816e-07
1.27836e-07
1.27854e-07
1.27869e-07
1.27883e-07
1.27894e-07
1.27903e-07
1.27911e-07
1.27918e-07
1.27923e-07
1.27929e-07
1.27933e-07
1.27937e-07
1.2794e-07
1.27945e-07
1.27947e-07
1.27949e-07
1.2795e-07
1.27951e-07
1.27958e-07
1.2796e-07
1.27957e-07
1.27957e-07
1.27959e-07
1.27959e-07
1.27955e-07
1.27955e-07
1.27955e-07
1.27955e-07
1.27936e-07
1.27932e-07
1.2794e-07
1.27941e-07
1.27935e-07
1.27935e-07
1.2792e-07
1.2792e-07
1.27913e-07
1.27902e-07
1.27891e-07
1.2789e-07
1.27881e-07
1.27868e-07
1.27875e-07
1.27876e-07
1.27876e-07
1.27876e-07
1.27874e-07
1.27875e-07
1.27856e-07
1.27846e-07
1.2786e-07
1.27874e-07
1.27858e-07
1.27858e-07
1.27832e-07
1.27841e-07
1.27839e-07
1.27821e-07
1.27836e-07
1.27861e-07
1.27841e-07
1.27832e-07
1.27827e-07
1.27847e-07
1.27869e-07
1.27864e-07
1.27888e-07
1.27892e-07
1.27884e-07
1.27918e-07
1.27938e-07
1.27954e-07
1.27987e-07
1.28032e-07
1.2808e-07
1.28175e-07
1.28279e-07
1.28432e-07
1.29471e-07
1.33984e-07
2.72296e-08
1.24825e-07
1.25825e-07
1.26425e-07
1.26797e-07
1.27051e-07
1.27234e-07
1.27371e-07
1.27476e-07
1.27559e-07
1.27625e-07
1.27679e-07
1.27722e-07
1.27759e-07
1.27789e-07
1.27815e-07
1.27836e-07
1.27854e-07
1.27869e-07
1.27884e-07
1.27895e-07
1.27905e-07
1.27913e-07
1.2792e-07
1.27925e-07
1.27931e-07
1.27936e-07
1.27939e-07
1.27943e-07
1.27948e-07
1.2795e-07
1.27952e-07
1.27954e-07
1.27954e-07
1.27962e-07
1.27964e-07
1.27961e-07
1.27961e-07
1.27962e-07
1.27963e-07
1.27958e-07
1.27958e-07
1.27959e-07
1.27959e-07
1.2794e-07
1.27936e-07
1.27945e-07
1.27945e-07
1.27939e-07
1.27939e-07
1.27924e-07
1.27924e-07
1.27917e-07
1.27907e-07
1.27895e-07
1.27894e-07
1.27885e-07
1.27873e-07
1.27879e-07
1.2788e-07
1.2788e-07
1.2788e-07
1.27878e-07
1.27879e-07
1.2786e-07
1.2785e-07
1.27864e-07
1.27878e-07
1.27863e-07
1.27863e-07
1.27837e-07
1.27846e-07
1.27845e-07
1.27826e-07
1.27841e-07
1.27866e-07
1.27846e-07
1.27837e-07
1.27832e-07
1.27852e-07
1.27874e-07
1.2787e-07
1.27894e-07
1.27898e-07
1.27891e-07
1.27925e-07
1.27945e-07
1.27962e-07
1.27995e-07
1.2804e-07
1.28088e-07
1.28183e-07
1.2829e-07
1.28439e-07
1.29511e-07
1.34067e-07
2.85053e-08
1.24815e-07
1.2581e-07
1.2641e-07
1.26783e-07
1.27039e-07
1.27224e-07
1.27362e-07
1.27469e-07
1.27553e-07
1.2762e-07
1.27675e-07
1.2772e-07
1.27757e-07
1.27788e-07
1.27815e-07
1.27836e-07
1.27854e-07
1.2787e-07
1.27886e-07
1.27897e-07
1.27907e-07
1.27915e-07
1.27922e-07
1.27928e-07
1.27934e-07
1.27939e-07
1.27942e-07
1.27946e-07
1.27951e-07
1.27954e-07
1.27955e-07
1.27957e-07
1.27957e-07
1.27966e-07
1.27968e-07
1.27965e-07
1.27965e-07
1.27967e-07
1.27967e-07
1.27963e-07
1.27963e-07
1.27964e-07
1.27964e-07
1.27945e-07
1.27941e-07
1.2795e-07
1.2795e-07
1.27944e-07
1.27944e-07
1.27929e-07
1.27929e-07
1.27922e-07
1.27912e-07
1.279e-07
1.27899e-07
1.2789e-07
1.27878e-07
1.27884e-07
1.27886e-07
1.27885e-07
1.27885e-07
1.27883e-07
1.27884e-07
1.27866e-07
1.27855e-07
1.27869e-07
1.27884e-07
1.27869e-07
1.27869e-07
1.27842e-07
1.27851e-07
1.27851e-07
1.27832e-07
1.27846e-07
1.27872e-07
1.27852e-07
1.27843e-07
1.27838e-07
1.27858e-07
1.27881e-07
1.27877e-07
1.27901e-07
1.27906e-07
1.27898e-07
1.27932e-07
1.27952e-07
1.2797e-07
1.28003e-07
1.28049e-07
1.28098e-07
1.28193e-07
1.28303e-07
1.28447e-07
1.29555e-07
1.34154e-07
2.98483e-08
1.24805e-07
1.25793e-07
1.26394e-07
1.26768e-07
1.27027e-07
1.27213e-07
1.27353e-07
1.27462e-07
1.27547e-07
1.27616e-07
1.27672e-07
1.27717e-07
1.27755e-07
1.27787e-07
1.27814e-07
1.27836e-07
1.27855e-07
1.27871e-07
1.27887e-07
1.27899e-07
1.27909e-07
1.27917e-07
1.27925e-07
1.27931e-07
1.27937e-07
1.27942e-07
1.27946e-07
1.2795e-07
1.27955e-07
1.27957e-07
1.27959e-07
1.27961e-07
1.27961e-07
1.2797e-07
1.27972e-07
1.2797e-07
1.27969e-07
1.27971e-07
1.27972e-07
1.27968e-07
1.27968e-07
1.27969e-07
1.27969e-07
1.2795e-07
1.27946e-07
1.27955e-07
1.27956e-07
1.2795e-07
1.2795e-07
1.27935e-07
1.27935e-07
1.27928e-07
1.27917e-07
1.27906e-07
1.27904e-07
1.27896e-07
1.27883e-07
1.2789e-07
1.27891e-07
1.27891e-07
1.27891e-07
1.27889e-07
1.2789e-07
1.27872e-07
1.27861e-07
1.27875e-07
1.2789e-07
1.27875e-07
1.27875e-07
1.27849e-07
1.27857e-07
1.27857e-07
1.27838e-07
1.27853e-07
1.27878e-07
1.2786e-07
1.27849e-07
1.27845e-07
1.27864e-07
1.27888e-07
1.27884e-07
1.27908e-07
1.27914e-07
1.27907e-07
1.2794e-07
1.27961e-07
1.27979e-07
1.28013e-07
1.28059e-07
1.28109e-07
1.28203e-07
1.28317e-07
1.28456e-07
1.29603e-07
1.34244e-07
3.12622e-08
1.24793e-07
1.25774e-07
1.26376e-07
1.26752e-07
1.27013e-07
1.27201e-07
1.27344e-07
1.27454e-07
1.27541e-07
1.2761e-07
1.27668e-07
1.27714e-07
1.27753e-07
1.27785e-07
1.27814e-07
1.27837e-07
1.27856e-07
1.27872e-07
1.27889e-07
1.27901e-07
1.27911e-07
1.2792e-07
1.27928e-07
1.27934e-07
1.2794e-07
1.27946e-07
1.2795e-07
1.27954e-07
1.27959e-07
1.27962e-07
1.27964e-07
1.27966e-07
1.27966e-07
1.27975e-07
1.27977e-07
1.27975e-07
1.27974e-07
1.27977e-07
1.27978e-07
1.27973e-07
1.27973e-07
1.27975e-07
1.27975e-07
1.27956e-07
1.27952e-07
1.27961e-07
1.27962e-07
1.27956e-07
1.27956e-07
1.27941e-07
1.27941e-07
1.27935e-07
1.27924e-07
1.27912e-07
1.2791e-07
1.27902e-07
1.27889e-07
1.27896e-07
1.27898e-07
1.27898e-07
1.27897e-07
1.27895e-07
1.27897e-07
1.27879e-07
1.27867e-07
1.27882e-07
1.27896e-07
1.27882e-07
1.27882e-07
1.27856e-07
1.27864e-07
1.27865e-07
1.27845e-07
1.2786e-07
1.27885e-07
1.27867e-07
1.27857e-07
1.27852e-07
1.27872e-07
1.27896e-07
1.27893e-07
1.27916e-07
1.27923e-07
1.27916e-07
1.27949e-07
1.27971e-07
1.27989e-07
1.28023e-07
1.2807e-07
1.2812e-07
1.28215e-07
1.28332e-07
1.28466e-07
1.29657e-07
1.34338e-07
3.27513e-08
1.2478e-07
1.25754e-07
1.26356e-07
1.26735e-07
1.26997e-07
1.27188e-07
1.27333e-07
1.27445e-07
1.27534e-07
1.27605e-07
1.27663e-07
1.27711e-07
1.27751e-07
1.27784e-07
1.27813e-07
1.27837e-07
1.27857e-07
1.27874e-07
1.27891e-07
1.27903e-07
1.27914e-07
1.27923e-07
1.27932e-07
1.27938e-07
1.27944e-07
1.2795e-07
1.27954e-07
1.27958e-07
1.27964e-07
1.27967e-07
1.27969e-07
1.27971e-07
1.27971e-07
1.2798e-07
1.27983e-07
1.2798e-07
1.2798e-07
1.27983e-07
1.27984e-07
1.27979e-07
1.27979e-07
1.27981e-07
1.27981e-07
1.27962e-07
1.27959e-07
1.27968e-07
1.27969e-07
1.27963e-07
1.27963e-07
1.27948e-07
1.27948e-07
1.27942e-07
1.27931e-07
1.27919e-07
1.27917e-07
1.27909e-07
1.27896e-07
1.27903e-07
1.27905e-07
1.27905e-07
1.27905e-07
1.27902e-07
1.27904e-07
1.27886e-07
1.27874e-07
1.27889e-07
1.27904e-07
1.2789e-07
1.2789e-07
1.27863e-07
1.27872e-07
1.27873e-07
1.27853e-07
1.27867e-07
1.27893e-07
1.27876e-07
1.27865e-07
1.2786e-07
1.2788e-07
1.27904e-07
1.27902e-07
1.27925e-07
1.27932e-07
1.27926e-07
1.27959e-07
1.27981e-07
1.28e-07
1.28035e-07
1.28082e-07
1.28133e-07
1.28227e-07
1.28348e-07
1.28477e-07
1.29715e-07
1.34435e-07
3.43198e-08
1.24767e-07
1.25733e-07
1.26334e-07
1.26715e-07
1.26981e-07
1.27174e-07
1.27321e-07
1.27435e-07
1.27526e-07
1.27599e-07
1.27658e-07
1.27707e-07
1.27749e-07
1.27783e-07
1.27813e-07
1.27837e-07
1.27857e-07
1.27875e-07
1.27893e-07
1.27906e-07
1.27917e-07
1.27927e-07
1.27935e-07
1.27942e-07
1.27948e-07
1.27954e-07
1.27959e-07
1.27963e-07
1.27969e-07
1.27972e-07
1.27974e-07
1.27976e-07
1.27976e-07
1.27986e-07
1.27989e-07
1.27986e-07
1.27986e-07
1.27989e-07
1.2799e-07
1.27986e-07
1.27986e-07
1.27988e-07
1.27988e-07
1.27969e-07
1.27966e-07
1.27975e-07
1.27977e-07
1.2797e-07
1.2797e-07
1.27955e-07
1.27955e-07
1.27949e-07
1.27938e-07
1.27927e-07
1.27925e-07
1.27917e-07
1.27904e-07
1.27911e-07
1.27913e-07
1.27913e-07
1.27912e-07
1.27909e-07
1.27912e-07
1.27894e-07
1.27882e-07
1.27897e-07
1.27912e-07
1.27899e-07
1.27899e-07
1.27871e-07
1.2788e-07
1.27882e-07
1.27862e-07
1.27876e-07
1.27902e-07
1.27885e-07
1.27874e-07
1.27869e-07
1.27889e-07
1.27914e-07
1.27911e-07
1.27935e-07
1.27943e-07
1.27937e-07
1.2797e-07
1.27993e-07
1.28012e-07
1.28047e-07
1.28095e-07
1.28147e-07
1.28241e-07
1.28366e-07
1.28489e-07
1.29777e-07
1.34535e-07
3.59719e-08
1.24753e-07
1.2571e-07
1.26312e-07
1.26695e-07
1.26963e-07
1.27159e-07
1.27308e-07
1.27425e-07
1.27517e-07
1.27592e-07
1.27653e-07
1.27703e-07
1.27746e-07
1.27781e-07
1.27812e-07
1.27837e-07
1.27858e-07
1.27877e-07
1.27895e-07
1.27908e-07
1.2792e-07
1.2793e-07
1.27939e-07
1.27946e-07
1.27953e-07
1.27959e-07
1.27964e-07
1.27968e-07
1.27974e-07
1.27977e-07
1.2798e-07
1.27982e-07
1.27982e-07
1.27992e-07
1.27995e-07
1.27993e-07
1.27993e-07
1.27996e-07
1.27997e-07
1.27993e-07
1.27993e-07
1.27996e-07
1.27996e-07
1.27977e-07
1.27973e-07
1.27983e-07
1.27985e-07
1.27979e-07
1.27979e-07
1.27963e-07
1.27963e-07
1.27958e-07
1.27947e-07
1.27935e-07
1.27933e-07
1.27926e-07
1.27912e-07
1.27919e-07
1.27921e-07
1.27921e-07
1.27921e-07
1.27918e-07
1.27921e-07
1.27903e-07
1.27891e-07
1.27905e-07
1.27921e-07
1.27908e-07
1.27908e-07
1.27881e-07
1.27889e-07
1.27892e-07
1.27871e-07
1.27885e-07
1.27911e-07
1.27895e-07
1.27884e-07
1.27879e-07
1.27898e-07
1.27924e-07
1.27922e-07
1.27946e-07
1.27955e-07
1.27949e-07
1.27981e-07
1.28005e-07
1.28025e-07
1.28061e-07
1.28109e-07
1.28162e-07
1.28255e-07
1.28385e-07
1.28501e-07
1.29845e-07
1.34638e-07
3.77123e-08
1.24738e-07
1.25685e-07
1.26287e-07
1.26673e-07
1.26944e-07
1.27143e-07
1.27295e-07
1.27413e-07
1.27508e-07
1.27584e-07
1.27647e-07
1.27699e-07
1.27743e-07
1.27779e-07
1.27811e-07
1.27837e-07
1.27859e-07
1.27878e-07
1.27897e-07
1.27911e-07
1.27924e-07
1.27934e-07
1.27944e-07
1.27951e-07
1.27958e-07
1.27964e-07
1.2797e-07
1.27974e-07
1.2798e-07
1.27984e-07
1.27987e-07
1.27989e-07
1.27989e-07
1.27999e-07
1.28002e-07
1.28e-07
1.28e-07
1.28004e-07
1.28005e-07
1.28001e-07
1.28001e-07
1.28004e-07
1.28004e-07
1.27985e-07
1.27982e-07
1.27992e-07
1.27994e-07
1.27988e-07
1.27988e-07
1.27972e-07
1.27972e-07
1.27967e-07
1.27956e-07
1.27943e-07
1.27942e-07
1.27935e-07
1.27921e-07
1.27929e-07
1.2793e-07
1.2793e-07
1.2793e-07
1.27926e-07
1.2793e-07
1.27913e-07
1.279e-07
1.27915e-07
1.2793e-07
1.27918e-07
1.27918e-07
1.2789e-07
1.27899e-07
1.27902e-07
1.27881e-07
1.27894e-07
1.27922e-07
1.27906e-07
1.27895e-07
1.2789e-07
1.27908e-07
1.27935e-07
1.27934e-07
1.27957e-07
1.27967e-07
1.27962e-07
1.27994e-07
1.28018e-07
1.28039e-07
1.28075e-07
1.28124e-07
1.28178e-07
1.2827e-07
1.28405e-07
1.28514e-07
1.29916e-07
1.34744e-07
3.95458e-08
1.24722e-07
1.25659e-07
1.26261e-07
1.26649e-07
1.26923e-07
1.27125e-07
1.2728e-07
1.27401e-07
1.27498e-07
1.27576e-07
1.27641e-07
1.27695e-07
1.2774e-07
1.27777e-07
1.2781e-07
1.27837e-07
1.2786e-07
1.2788e-07
1.27899e-07
1.27914e-07
1.27927e-07
1.27938e-07
1.27948e-07
1.27956e-07
1.27963e-07
1.2797e-07
1.27976e-07
1.2798e-07
1.27986e-07
1.2799e-07
1.27993e-07
1.27996e-07
1.27996e-07
1.28006e-07
1.2801e-07
1.28008e-07
1.28007e-07
1.28012e-07
1.28013e-07
1.28009e-07
1.28009e-07
1.28013e-07
1.28013e-07
1.27994e-07
1.2799e-07
1.28001e-07
1.28004e-07
1.27997e-07
1.27997e-07
1.27981e-07
1.27981e-07
1.27976e-07
1.27965e-07
1.27953e-07
1.27951e-07
1.27945e-07
1.27931e-07
1.27938e-07
1.2794e-07
1.2794e-07
1.2794e-07
1.27936e-07
1.2794e-07
1.27923e-07
1.27909e-07
1.27925e-07
1.2794e-07
1.27928e-07
1.27929e-07
1.27901e-07
1.27909e-07
1.27914e-07
1.27892e-07
1.27905e-07
1.27932e-07
1.27918e-07
1.27906e-07
1.27901e-07
1.27919e-07
1.27947e-07
1.27946e-07
1.27969e-07
1.2798e-07
1.27976e-07
1.28007e-07
1.28032e-07
1.28054e-07
1.28091e-07
1.2814e-07
1.28195e-07
1.28287e-07
1.28427e-07
1.28528e-07
1.29992e-07
1.34853e-07
4.14771e-08
1.24705e-07
1.25631e-07
1.26233e-07
1.26623e-07
1.26901e-07
1.27106e-07
1.27264e-07
1.27388e-07
1.27487e-07
1.27568e-07
1.27634e-07
1.27689e-07
1.27736e-07
1.27775e-07
1.27809e-07
1.27837e-07
1.27861e-07
1.27882e-07
1.27902e-07
1.27917e-07
1.27931e-07
1.27942e-07
1.27953e-07
1.27961e-07
1.27968e-07
1.27976e-07
1.27982e-07
1.27987e-07
1.27993e-07
1.27997e-07
1.28001e-07
1.28003e-07
1.28003e-07
1.28014e-07
1.28018e-07
1.28016e-07
1.28015e-07
1.2802e-07
1.28022e-07
1.28018e-07
1.28018e-07
1.28022e-07
1.28022e-07
1.28003e-07
1.28e-07
1.28011e-07
1.28014e-07
1.28007e-07
1.28007e-07
1.27991e-07
1.27991e-07
1.27987e-07
1.27976e-07
1.27963e-07
1.27961e-07
1.27955e-07
1.27941e-07
1.27949e-07
1.2795e-07
1.2795e-07
1.2795e-07
1.27946e-07
1.2795e-07
1.27934e-07
1.2792e-07
1.27935e-07
1.27951e-07
1.2794e-07
1.2794e-07
1.27912e-07
1.27921e-07
1.27926e-07
1.27904e-07
1.27916e-07
1.27944e-07
1.27931e-07
1.27918e-07
1.27913e-07
1.27931e-07
1.27959e-07
1.27959e-07
1.27982e-07
1.27994e-07
1.2799e-07
1.28022e-07
1.28047e-07
1.28069e-07
1.28107e-07
1.28156e-07
1.28213e-07
1.28304e-07
1.28449e-07
1.28543e-07
1.30071e-07
1.34964e-07
4.3511e-08
1.24688e-07
1.25602e-07
1.26203e-07
1.26596e-07
1.26877e-07
1.27086e-07
1.27247e-07
1.27374e-07
1.27475e-07
1.27558e-07
1.27627e-07
1.27684e-07
1.27732e-07
1.27772e-07
1.27807e-07
1.27837e-07
1.27862e-07
1.27883e-07
1.27904e-07
1.2792e-07
1.27935e-07
1.27947e-07
1.27958e-07
1.27966e-07
1.27974e-07
1.27982e-07
1.27988e-07
1.27993e-07
1.28e-07
1.28004e-07
1.28008e-07
1.28011e-07
1.28011e-07
1.28022e-07
1.28026e-07
1.28024e-07
1.28024e-07
1.28029e-07
1.28031e-07
1.28027e-07
1.28027e-07
1.28032e-07
1.28032e-07
1.28013e-07
1.2801e-07
1.28021e-07
1.28025e-07
1.28018e-07
1.28018e-07
1.28002e-07
1.28002e-07
1.27998e-07
1.27986e-07
1.27973e-07
1.27972e-07
1.27966e-07
1.27952e-07
1.2796e-07
1.27961e-07
1.27961e-07
1.27961e-07
1.27957e-07
1.27962e-07
1.27945e-07
1.27931e-07
1.27946e-07
1.27962e-07
1.27952e-07
1.27952e-07
1.27924e-07
1.27932e-07
1.27938e-07
1.27917e-07
1.27928e-07
1.27956e-07
1.27944e-07
1.27931e-07
1.27926e-07
1.27944e-07
1.27972e-07
1.27973e-07
1.27996e-07
1.28009e-07
1.28006e-07
1.28037e-07
1.28063e-07
1.28086e-07
1.28124e-07
1.28174e-07
1.28232e-07
1.28322e-07
1.28473e-07
1.28559e-07
1.30154e-07
1.35076e-07
4.56522e-08
1.2467e-07
1.25571e-07
1.26171e-07
1.26568e-07
1.26852e-07
1.27064e-07
1.27228e-07
1.27358e-07
1.27463e-07
1.27548e-07
1.27619e-07
1.27677e-07
1.27727e-07
1.27769e-07
1.27806e-07
1.27836e-07
1.27862e-07
1.27885e-07
1.27906e-07
1.27923e-07
1.27938e-07
1.27951e-07
1.27963e-07
1.27972e-07
1.2798e-07
1.27988e-07
1.27995e-07
1.28e-07
1.28007e-07
1.28012e-07
1.28016e-07
1.28019e-07
1.28019e-07
1.2803e-07
1.28035e-07
1.28033e-07
1.28033e-07
1.28038e-07
1.28041e-07
1.28037e-07
1.28037e-07
1.28042e-07
1.28043e-07
1.28023e-07
1.2802e-07
1.28032e-07
1.28036e-07
1.28029e-07
1.28029e-07
1.28013e-07
1.28013e-07
1.28009e-07
1.27998e-07
1.27985e-07
1.27983e-07
1.27978e-07
1.27963e-07
1.27972e-07
1.27973e-07
1.27973e-07
1.27973e-07
1.27968e-07
1.27973e-07
1.27958e-07
1.27942e-07
1.27958e-07
1.27975e-07
1.27964e-07
1.27965e-07
1.27936e-07
1.27945e-07
1.27952e-07
1.2793e-07
1.27941e-07
1.27969e-07
1.27958e-07
1.27945e-07
1.2794e-07
1.27957e-07
1.27986e-07
1.27987e-07
1.28011e-07
1.28024e-07
1.28022e-07
1.28053e-07
1.2808e-07
1.28103e-07
1.28142e-07
1.28192e-07
1.28252e-07
1.28341e-07
1.28497e-07
1.28575e-07
1.30241e-07
1.35191e-07
4.7905e-08
1.24651e-07
1.25538e-07
1.26138e-07
1.26537e-07
1.26825e-07
1.27041e-07
1.27208e-07
1.27342e-07
1.27449e-07
1.27537e-07
1.2761e-07
1.27671e-07
1.27722e-07
1.27766e-07
1.27804e-07
1.27835e-07
1.27862e-07
1.27886e-07
1.27909e-07
1.27926e-07
1.27942e-07
1.27956e-07
1.27968e-07
1.27977e-07
1.27986e-07
1.27995e-07
1.28002e-07
1.28008e-07
1.28015e-07
1.28019e-07
1.28024e-07
1.28027e-07
1.28027e-07
1.28039e-07
1.28044e-07
1.28043e-07
1.28042e-07
1.28048e-07
1.28051e-07
1.28047e-07
1.28047e-07
1.28053e-07
1.28054e-07
1.28034e-07
1.28031e-07
1.28043e-07
1.28048e-07
1.28041e-07
1.28041e-07
1.28025e-07
1.28024e-07
1.28021e-07
1.2801e-07
1.27996e-07
1.27995e-07
1.2799e-07
1.27975e-07
1.27984e-07
1.27985e-07
1.27985e-07
1.27985e-07
1.27981e-07
1.27986e-07
1.27971e-07
1.27955e-07
1.27971e-07
1.27987e-07
1.27977e-07
1.27979e-07
1.2795e-07
1.27958e-07
1.27966e-07
1.27944e-07
1.27954e-07
1.27982e-07
1.27973e-07
1.27959e-07
1.27954e-07
1.27971e-07
1.28001e-07
1.28002e-07
1.28026e-07
1.28041e-07
1.28039e-07
1.28069e-07
1.28097e-07
1.28121e-07
1.28161e-07
1.28211e-07
1.28272e-07
1.2836e-07
1.28523e-07
1.28592e-07
1.3033e-07
1.35307e-07
5.02735e-08
1.24632e-07
1.25504e-07
1.26103e-07
1.26505e-07
1.26796e-07
1.27016e-07
1.27187e-07
1.27324e-07
1.27434e-07
1.27525e-07
1.276e-07
1.27663e-07
1.27716e-07
1.27761e-07
1.27801e-07
1.27834e-07
1.27862e-07
1.27887e-07
1.27911e-07
1.27929e-07
1.27946e-07
1.2796e-07
1.27973e-07
1.27983e-07
1.27992e-07
1.28001e-07
1.28009e-07
1.28015e-07
1.28022e-07
1.28028e-07
1.28033e-07
1.28036e-07
1.28036e-07
1.28048e-07
1.28053e-07
1.28052e-07
1.28052e-07
1.28058e-07
1.28061e-07
1.28058e-07
1.28057e-07
1.28064e-07
1.28065e-07
1.28045e-07
1.28042e-07
1.28055e-07
1.28061e-07
1.28053e-07
1.28053e-07
1.28037e-07
1.28037e-07
1.28034e-07
1.28022e-07
1.28009e-07
1.28007e-07
1.28003e-07
1.27988e-07
1.27997e-07
1.27998e-07
1.27998e-07
1.27998e-07
1.27993e-07
1.27999e-07
1.27984e-07
1.27967e-07
1.27984e-07
1.28001e-07
1.27991e-07
1.27993e-07
1.27964e-07
1.27972e-07
1.27981e-07
1.27959e-07
1.27968e-07
1.27996e-07
1.27988e-07
1.27974e-07
1.27969e-07
1.27986e-07
1.28016e-07
1.28018e-07
1.28042e-07
1.28058e-07
1.28057e-07
1.28087e-07
1.28116e-07
1.2814e-07
1.2818e-07
1.28231e-07
1.28294e-07
1.2838e-07
1.28549e-07
1.2861e-07
1.30421e-07
1.35424e-07
5.2761e-08
1.24612e-07
1.25469e-07
1.26066e-07
1.2647e-07
1.26765e-07
1.26989e-07
1.27164e-07
1.27304e-07
1.27418e-07
1.27511e-07
1.27589e-07
1.27654e-07
1.2771e-07
1.27757e-07
1.27798e-07
1.27832e-07
1.27862e-07
1.27888e-07
1.27913e-07
1.27932e-07
1.2795e-07
1.27965e-07
1.27978e-07
1.27989e-07
1.27998e-07
1.28008e-07
1.28017e-07
1.28023e-07
1.2803e-07
1.28036e-07
1.28042e-07
1.28045e-07
1.28045e-07
1.28057e-07
1.28063e-07
1.28062e-07
1.28061e-07
1.28069e-07
1.28072e-07
1.28069e-07
1.28068e-07
1.28075e-07
1.28077e-07
1.28057e-07
1.28054e-07
1.28067e-07
1.28073e-07
1.28066e-07
1.28066e-07
1.2805e-07
1.28049e-07
1.28047e-07
1.28035e-07
1.28022e-07
1.2802e-07
1.28017e-07
1.28001e-07
1.2801e-07
1.28012e-07
1.28012e-07
1.28011e-07
1.28006e-07
1.28012e-07
1.27998e-07
1.27981e-07
1.27997e-07
1.28015e-07
1.28005e-07
1.28008e-07
1.27978e-07
1.27986e-07
1.27996e-07
1.27975e-07
1.27983e-07
1.28011e-07
1.28004e-07
1.2799e-07
1.27985e-07
1.28001e-07
1.28032e-07
1.28035e-07
1.28058e-07
1.28076e-07
1.28075e-07
1.28105e-07
1.28135e-07
1.2816e-07
1.28201e-07
1.28252e-07
1.28316e-07
1.28402e-07
1.28576e-07
1.28628e-07
1.30514e-07
1.35541e-07
5.53697e-08
1.24591e-07
1.25432e-07
1.26027e-07
1.26434e-07
1.26733e-07
1.26961e-07
1.2714e-07
1.27284e-07
1.27401e-07
1.27497e-07
1.27578e-07
1.27645e-07
1.27703e-07
1.27751e-07
1.27794e-07
1.2783e-07
1.27861e-07
1.27888e-07
1.27914e-07
1.27935e-07
1.27953e-07
1.27969e-07
1.27983e-07
1.27995e-07
1.28005e-07
1.28015e-07
1.28024e-07
1.28031e-07
1.28038e-07
1.28044e-07
1.28051e-07
1.28054e-07
1.28054e-07
1.28067e-07
1.28073e-07
1.28072e-07
1.28071e-07
1.28079e-07
1.28083e-07
1.2808e-07
1.28079e-07
1.28087e-07
1.28089e-07
1.28069e-07
1.28066e-07
1.2808e-07
1.28087e-07
1.2808e-07
1.2808e-07