/*--------------------------------*- C++ -*----------------------------------*\
| =========                 |                                                 |
| \\      /  F ield         | OpenFOAM: The Open Source CFD Toolbox           |
|  \\    /   O peration     | Version:  v2012                                 |
|   \\  /    A nd           | Website:  www.openfoam.com                      |
|    \\/     M anipulation  |                                                 |
\*---------------------------------------------------------------------------*/
FoamFile
{
    version     2.0;
    format      ascii;
    class       volScalarField;
    location    "6.5";
    object      omega;
}
// * * * * * * * * * * * * * * * * * * * * * * * * * * * * * * * * * * * * * //

dimensions      [0 0 -1 0 0 0 0];


internalField   nonuniform List<scalar> 
209825
(
8305.5
8064.04
7967.22
7918.02
7888.24
7869.01
7855.46
7845.87
7838.54
7833.11
7828.73
7825.41
7822.62
7820.48
7818.61
7817.19
7815.89
7814.93
7814
7813.33
7812.62
7812.18
7811.8
7811.48
7810.95
7810.81
7810.67
7810.53
7810.19
7810.24
7810.17
7810.24
7810.21
7810.29
7810.21
7810.42
7810.42
7810.66
7810.65
7811.04
7811.04
7811.48
7811.48
7812.65
7812.9
7812.89
7812.89
7813.57
7813.57
7814.55
7814.55
7815.76
7816.41
7817.05
7817.05
7817.83
7818.54
7819.06
7819.24
7819.25
7819.24
7820.19
7820.18
7821.37
7821.89
7821.89
7821.88
7823.11
7823.11
7824.65
7825.46
7826.29
7827.3
7827.3
7827.3
7828.77
7829.27
7830.7
7831.13
7831.13
7832.71
7832.88
7834.31
7836.39
7837.06
7838.77
7841.07
7843.17
7846.5
7849.56
7855.13
7861.13
7868.72
7916.75
8130.87
117307
8305.47
8063.92
7967.04
7917.81
7887.99
7868.75
7855.19
7845.58
7838.24
7832.81
7828.42
7825.1
7822.3
7820.16
7818.29
7816.86
7815.57
7814.6
7813.67
7813
7812.28
7811.85
7811.46
7811.14
7810.62
7810.47
7810.33
7810.19
7809.85
7809.9
7809.83
7809.9
7809.88
7809.95
7809.87
7810.08
7810.08
7810.32
7810.31
7810.7
7810.7
7811.14
7811.14
7812.31
7812.56
7812.56
7812.55
7813.23
7813.23
7814.21
7814.21
7815.42
7816.07
7816.71
7816.71
7817.49
7818.2
7818.72
7818.91
7818.91
7818.9
7819.85
7819.85
7821.03
7821.55
7821.55
7821.54
7822.77
7822.77
7824.31
7825.12
7825.95
7826.97
7826.97
7826.97
7828.43
7828.94
7830.37
7830.8
7830.8
7832.38
7832.55
7833.97
7836.06
7836.73
7838.44
7840.75
7842.84
7846.18
7849.24
7854.81
7860.82
7868.4
7916.53
8130.8
114014
8305.33
8063.47
7966.39
7917.04
7887.14
7867.84
7854.23
7844.59
7837.23
7831.77
7827.37
7824.03
7821.23
7819.08
7817.19
7815.76
7814.46
7813.49
7812.55
7811.89
7811.16
7810.73
7810.34
7810.01
7809.48
7809.34
7809.2
7809.05
7808.72
7808.77
7808.69
7808.76
7808.74
7808.81
7808.73
7808.94
7808.94
7809.18
7809.17
7809.56
7809.55
7809.99
7809.99
7811.17
7811.41
7811.41
7811.4
7812.08
7812.08
7813.07
7813.07
7814.28
7814.92
7815.56
7815.56
7816.34
7817.06
7817.57
7817.76
7817.76
7817.76
7818.71
7818.71
7819.88
7820.41
7820.41
7820.4
7821.64
7821.64
7823.18
7823.98
7824.81
7825.83
7825.83
7825.83
7827.3
7827.81
7829.24
7829.67
7829.67
7831.25
7831.42
7832.85
7834.94
7835.62
7837.32
7839.63
7841.73
7845.07
7848.14
7853.7
7859.74
7867.29
7915.65
8130.27
110235
8305.09
8062.68
7965.27
7915.7
7885.67
7866.27
7852.58
7842.89
7835.48
7829.99
7825.56
7822.2
7819.37
7817.21
7815.31
7813.87
7812.56
7811.58
7810.64
7809.96
7809.23
7808.79
7808.4
7808.07
7807.54
7807.39
7807.25
7807.1
7806.76
7806.81
7806.74
7806.8
7806.78
7806.84
7806.77
7806.98
7806.97
7807.21
7807.2
7807.59
7807.59
7808.03
7808.03
7809.2
7809.44
7809.44
7809.43
7810.11
7810.11
7811.1
7811.1
7812.31
7812.95
7813.6
7813.6
7814.37
7815.09
7815.61
7815.8
7815.8
7815.79
7816.75
7816.75
7817.92
7818.45
7818.45
7818.45
7819.68
7819.68
7821.22
7822.03
7822.86
7823.88
7823.89
7823.88
7825.35
7825.86
7827.3
7827.73
7827.73
7829.32
7829.5
7830.92
7833.01
7833.7
7835.41
7837.72
7839.83
7843.17
7846.25
7851.81
7857.87
7865.38
7914.1
8129.31
106352
8304.75
8061.55
7963.66
7913.8
7883.56
7864.02
7850.23
7840.46
7832.99
7827.45
7822.98
7819.59
7816.73
7814.55
7812.63
7811.17
7809.85
7808.86
7807.9
7807.22
7806.48
7806.04
7805.64
7805.31
7804.77
7804.62
7804.47
7804.32
7803.98
7804.02
7803.95
7804.01
7803.98
7804.05
7803.97
7804.17
7804.17
7804.41
7804.4
7804.78
7804.78
7805.22
7805.22
7806.39
7806.63
7806.63
7806.62
7807.3
7807.3
7808.29
7808.29
7809.5
7810.14
7810.79
7810.79
7811.56
7812.28
7812.8
7813
7813
7812.99
7813.95
7813.95
7815.12
7815.66
7815.66
7815.65
7816.89
7816.89
7818.43
7819.24
7820.07
7821.11
7821.11
7821.11
7822.57
7823.09
7824.52
7824.97
7824.97
7826.56
7826.75
7828.17
7830.27
7830.96
7832.67
7834.99
7837.11
7840.45
7843.54
7849.1
7855.22
7862.65
7911.87
8127.9
102469
8304.3
8060.08
7961.57
7911.32
7880.82
7861.09
7847.17
7837.29
7829.74
7824.14
7819.62
7816.18
7813.29
7811.07
7809.13
7807.65
7806.31
7805.3
7804.34
7803.64
7802.9
7802.44
7802.03
7801.7
7801.15
7800.99
7800.84
7800.69
7800.34
7800.38
7800.3
7800.36
7800.33
7800.4
7800.31
7800.52
7800.52
7800.75
7800.73
7801.12
7801.12
7801.55
7801.55
7802.72
7802.96
7802.96
7802.96
7803.64
7803.63
7804.62
7804.62
7805.83
7806.48
7807.13
7807.13
7807.9
7808.62
7809.14
7809.34
7809.34
7809.34
7810.3
7810.3
7811.47
7812.01
7812.01
7812.01
7813.25
7813.25
7814.8
7815.61
7816.44
7817.48
7817.48
7817.48
7818.95
7819.48
7820.91
7821.37
7821.37
7822.95
7823.16
7824.58
7826.68
7827.38
7829.1
7831.42
7833.55
7836.9
7840.01
7845.56
7851.74
7859.08
7908.96
8126.03
98626.1
8303.74
8058.26
7958.98
7908.25
7877.43
7857.47
7843.37
7833.37
7825.72
7820.03
7815.45
7811.96
7809.03
7806.77
7804.8
7803.3
7801.93
7800.91
7799.92
7799.21
7798.46
7797.99
7797.57
7797.22
7796.67
7796.51
7796.35
7796.19
7795.84
7795.88
7795.79
7795.85
7795.82
7795.88
7795.79
7795.99
7795.99
7796.22
7796.2
7796.58
7796.58
7797.01
7797.01
7798.19
7798.42
7798.42
7798.42
7799.09
7799.09
7800.08
7800.08
7801.29
7801.94
7802.59
7802.59
7803.36
7804.09
7804.61
7804.82
7804.82
7804.81
7805.78
7805.78
7806.95
7807.5
7807.5
7807.49
7808.74
7808.74
7810.29
7811.1
7811.94
7812.99
7812.99
7813
7814.46
7815
7816.43
7816.91
7816.91
7818.5
7818.72
7820.13
7822.24
7822.96
7824.68
7827.01
7829.15
7832.5
7835.64
7841.17
7847.44
7854.66
7905.35
8123.67
94841.3
8303.09
8056.1
7955.89
7904.58
7873.37
7853.14
7838.84
7828.68
7820.91
7815.13
7810.47
7806.91
7803.93
7801.63
7799.63
7798.09
7796.7
7795.65
7794.64
7793.92
7793.14
7792.66
7792.23
7791.88
7791.32
7791.15
7790.98
7790.82
7790.46
7790.49
7790.4
7790.45
7790.42
7790.47
7790.38
7790.58
7790.58
7790.8
7790.78
7791.16
7791.16
7791.58
7791.58
7792.76
7793
7792.99
7792.99
7793.66
7793.66
7794.66
7794.66
7795.86
7796.51
7797.17
7797.17
7797.94
7798.67
7799.19
7799.4
7799.41
7799.4
7800.38
7800.38
7801.54
7802.1
7802.1
7802.09
7803.34
7803.34
7804.9
7805.72
7806.55
7807.62
7807.63
7807.63
7809.1
7809.64
7811.08
7811.57
7811.57
7813.16
7813.4
7814.81
7816.93
7817.66
7819.39
7821.73
7823.89
7827.24
7830.41
7835.93
7842.28
7849.37
7901.03
8120.76
91123.3
8302.33
8053.58
7952.3
7900.32
7868.65
7848.1
7833.56
7823.21
7815.3
7809.41
7804.66
7801.03
7797.98
7795.64
7793.58
7792.01
7790.59
7789.51
7788.48
7787.74
7786.95
7786.45
7786
7785.64
7785.07
7784.89
7784.71
7784.54
7784.18
7784.2
7784.11
7784.15
7784.12
7784.16
7784.07
7784.26
7784.26
7784.48
7784.46
7784.83
7784.83
7785.25
7785.25
7786.43
7786.66
7786.66
7786.65
7787.33
7787.33
7788.32
7788.32
7789.53
7790.18
7790.84
7790.84
7791.61
7792.35
7792.87
7793.09
7793.09
7793.08
7794.07
7794.07
7795.23
7795.8
7795.8
7795.79
7797.05
7797.05
7798.62
7799.43
7800.27
7801.35
7801.36
7801.36
7802.84
7803.39
7804.83
7805.34
7805.34
7806.94
7807.2
7808.6
7810.73
7811.48
7813.22
7815.56
7817.74
7821.1
7824.3
7829.8
7836.27
7843.19
7895.98
8117.2
87474.7
8301.47
8050.72
7948.2
7895.44
7863.26
7842.33
7827.51
7816.96
7808.88
7802.86
7798
7794.29
7791.17
7788.77
7786.67
7785.05
7783.59
7782.48
7781.43
7780.66
7779.85
7779.33
7778.87
7778.49
7777.91
7777.72
7777.53
7777.36
7776.99
7777
7776.9
7776.94
7776.9
7776.94
7776.83
7777.02
7777.02
7777.24
7777.21
7777.58
7777.58
7777.99
7777.99
7779.17
7779.4
7779.4
7779.4
7780.06
7780.07
7781.06
7781.06
7782.27
7782.92
7783.59
7783.59
7784.35
7785.1
7785.62
7785.85
7785.85
7785.85
7786.85
7786.85
7788
7788.58
7788.58
7788.58
7789.84
7789.84
7791.41
7792.23
7793.07
7794.16
7794.18
7794.18
7795.66
7796.23
7797.66
7798.2
7798.2
7799.8
7800.09
7801.48
7803.62
7804.39
7806.14
7808.49
7810.69
7814.06
7817.3
7822.77
7829.36
7836.1
7890.2
8112.86
83893
8300.52
8047.51
7943.59
7889.95
7857.17
7835.82
7820.69
7809.9
7801.64
7795.47
7790.49
7786.69
7783.49
7781.01
7778.85
7777.19
7775.69
7774.55
7773.46
7772.67
7771.83
7771.3
7770.81
7770.42
7769.83
7769.62
7769.42
7769.24
7768.87
7768.86
7768.75
7768.79
7768.75
7768.78
7768.67
7768.85
7768.85
7769.06
7769.02
7769.39
7769.39
7769.8
7769.8
7770.97
7771.2
7771.2
7771.2
7771.86
7771.86
7772.87
7772.86
7774.07
7774.72
7775.4
7775.4
7776.16
7776.91
7777.44
7777.67
7777.68
7777.67
7778.68
7778.68
7779.83
7780.42
7780.43
7780.42
7781.69
7781.69
7783.27
7784.09
7784.93
7786.05
7786.07
7786.07
7787.55
7788.13
7789.57
7790.13
7790.13
7791.74
7792.05
7793.44
7795.59
7796.39
7798.15
7800.5
7802.73
7806.11
7809.38
7814.83
7821.56
7828.08
7883.67
8107.64
80372.1
8299.47
8043.95
7938.46
7883.84
7850.39
7828.57
7813.09
7802.03
7793.56
7787.23
7782.12
7778.2
7774.91
7772.36
7770.14
7768.42
7766.87
7765.69
7764.57
7763.74
7762.88
7762.32
7761.82
7761.41
7760.8
7760.58
7760.36
7760.17
7759.79
7759.78
7759.66
7759.69
7759.64
7759.66
7759.54
7759.72
7759.72
7759.92
7759.88
7760.25
7760.24
7760.64
7760.64
7761.82
7762.05
7762.05
7762.04
7762.7
7762.7
7763.71
7763.71
7764.91
7765.57
7766.25
7766.25
7767.01
7767.77
7768.29
7768.54
7768.55
7768.54
7769.57
7769.57
7770.7
7771.32
7771.32
7771.31
7772.59
7772.59
7774.18
7775
7775.84
7776.98
7777.01
7777.02
7778.5
7779.09
7780.53
7781.12
7781.12
7782.74
7783.08
7784.46
7786.62
7787.44
7789.21
7791.58
7793.83
7797.22
7800.53
7805.95
7812.84
7819.12
7876.37
8101.52
76902.7
8298.33
8040.04
7932.82
7877.1
7842.92
7820.56
7804.7
7793.34
7784.64
7778.12
7772.85
7768.81
7765.42
7762.79
7760.5
7758.72
7757.12
7755.89
7754.73
7753.87
7752.98
7752.4
7751.87
7751.44
7750.82
7750.58
7750.35
7750.15
7749.76
7749.73
7749.6
7749.62
7749.57
7749.58
7749.45
7749.63
7749.62
7749.81
7749.77
7750.13
7750.13
7750.52
7750.51
7751.69
7751.92
7751.92
7751.91
7752.57
7752.57
7753.58
7753.58
7754.78
7755.44
7756.13
7756.13
7756.88
7757.65
7758.18
7758.44
7758.44
7758.44
7759.48
7759.48
7760.6
7761.24
7761.24
7761.23
7762.52
7762.52
7764.12
7764.95
7765.79
7766.95
7766.99
7766.99
7768.48
7769.09
7770.53
7771.15
7771.15
7772.77
7773.15
7774.52
7776.69
7777.54
7779.33
7781.7
7783.99
7787.37
7790.74
7796.12
7803.18
7809.21
7868.29
8094.49
73491.5
8297.1
8035.78
7926.65
7869.73
7834.73
7811.8
7795.5
7783.81
7774.85
7768.12
7762.7
7758.52
7755.02
7752.29
7749.92
7748.07
7746.41
7745.14
7743.93
7743.04
7742.12
7741.5
7740.95
7740.5
7739.86
7739.6
7739.35
7739.14
7738.74
7738.7
7738.56
7738.57
7738.52
7738.52
7738.38
7738.54
7738.54
7738.72
7738.67
7739.02
7739.02
7739.4
7739.4
7740.58
7740.8
7740.79
7740.79
7741.44
7741.44
7742.46
7742.46
7743.66
7744.32
7745.01
7745.01
7745.76
7746.54
7747.07
7747.35
7747.35
7747.34
7748.41
7748.41
7749.52
7750.17
7750.18
7750.17
7751.46
7751.47
7753.07
7753.9
7754.75
7755.93
7755.98
7755.99
7757.47
7758.1
7759.55
7760.2
7760.2
7761.83
7762.24
7763.6
7765.79
7766.67
7768.47
7770.85
7773.17
7776.56
7779.98
7785.32
7792.57
7798.31
7859.42
8086.51
70144.3
8295.78
8031.17
7919.97
7861.72
7825.83
7802.26
7785.48
7773.43
7764.19
7757.24
7751.63
7747.31
7743.68
7740.85
7738.39
7736.47
7734.75
7733.42
7732.16
7731.23
7730.27
7729.62
7729.04
7728.57
7727.91
7727.63
7727.36
7727.14
7726.73
7726.67
7726.52
7726.52
7726.46
7726.45
7726.3
7726.46
7726.45
7726.62
7726.56
7726.91
7726.9
7727.28
7727.27
7728.45
7728.67
7728.67
7728.66
7729.31
7729.31
7730.33
7730.33
7731.53
7732.19
7732.89
7732.89
7733.64
7734.43
7734.95
7735.25
7735.25
7735.24
7736.33
7736.33
7737.43
7738.1
7738.11
7738.1
7739.4
7739.41
7741.03
7741.86
7742.7
7743.91
7743.98
7743.98
7745.47
7746.12
7747.56
7748.25
7748.26
7749.89
7750.34
7751.7
7753.89
7754.81
7756.62
7759.01
7761.36
7764.76
7768.24
7773.54
7780.97
7786.42
7849.72
8077.56
66866.9
8294.38
8026.22
7912.76
7853.07
7816.21
7791.94
7774.65
7762.2
7752.65
7745.45
7739.64
7735.16
7731.39
7728.45
7725.89
7723.89
7722.1
7720.71
7719.41
7718.43
7717.43
7716.75
7716.13
7715.64
7714.95
7714.65
7714.36
7714.12
7713.7
7713.63
7713.47
7713.45
7713.39
7713.36
7713.2
7713.35
7713.34
7713.5
7713.43
7713.77
7713.77
7714.13
7714.12
7715.3
7715.51
7715.51
7715.5
7716.15
7716.15
7717.17
7717.17
7718.37
7719.03
7719.75
7719.75
7720.48
7721.29
7721.81
7722.13
7722.13
7722.12
7723.22
7723.23
7724.31
7725.01
7725.02
7725.01
7726.32
7726.33
7727.96
7728.79
7729.64
7730.87
7730.95
7730.96
7732.45
7733.12
7734.56
7735.3
7735.3
7736.94
7737.43
7738.78
7740.99
7741.93
7743.76
7746.17
7748.55
7751.96
7755.49
7760.74
7768.39
7773.51
7839.19
8067.63
63664.4
8292.9
8020.93
7905.03
7843.79
7805.86
7780.84
7762.98
7750.1
7740.21
7732.75
7726.72
7722.06
7718.15
7715.08
7712.42
7710.33
7708.46
7707.01
7705.65
7704.62
7703.58
7702.86
7702.21
7701.69
7700.97
7700.64
7700.34
7700.08
7699.64
7699.55
7699.38
7699.35
7699.28
7699.24
7699.06
7699.2
7699.2
7699.34
7699.26
7699.59
7699.59
7699.95
7699.93
7701.11
7701.32
7701.32
7701.31
7701.95
7701.95
7702.98
7702.97
7704.17
7704.84
7705.56
7705.56
7706.29
7707.11
7707.63
7707.96
7707.96
7707.96
7709.08
7709.09
7710.15
7710.88
7710.89
7710.88
7712.21
7712.21
7713.85
7714.69
7715.54
7716.8
7716.89
7716.9
7718.4
7719.09
7720.53
7721.31
7721.32
7722.96
7723.49
7724.83
7727.05
7728.03
7729.88
7732.3
7734.72
7738.13
7741.73
7746.92
7754.79
7759.57
7827.79
8056.69
60541.7
8291.34
8015.31
7896.78
7833.85
7794.79
7768.94
7750.47
7737.13
7726.87
7719.12
7712.86
7708
7703.93
7700.73
7697.95
7695.77
7693.82
7692.29
7690.87
7689.79
7688.7
7687.94
7687.25
7686.7
7685.96
7685.6
7685.27
7685
7684.54
7684.43
7684.25
7684.21
7684.12
7684.07
7683.87
7684.01
7684
7684.13
7684.04
7684.36
7684.36
7684.7
7684.68
7685.87
7686.06
7686.07
7686.05
7686.69
7686.69
7687.72
7687.72
7688.91
7689.58
7690.31
7690.31
7691.04
7691.87
7692.39
7692.74
7692.74
7692.74
7693.88
7693.89
7694.94
7695.69
7695.7
7695.69
7697.03
7697.04
7698.69
7699.53
7700.39
7701.67
7701.79
7701.79
7703.29
7704
7705.45
7706.28
7706.28
7707.93
7708.51
7709.83
7712.07
7713.09
7714.96
7717.38
7719.85
7723.26
7726.92
7732.06
7740.16
7744.57
7815.52
8044.71
57503.3
8289.72
8009.35
7888.01
7823.28
7782.97
7756.24
7737.12
7723.27
7712.62
7704.55
7698.04
7692.97
7688.72
7685.38
7682.48
7680.19
7678.15
7676.55
7675.06
7673.92
7672.78
7671.97
7671.24
7670.66
7669.89
7669.5
7669.14
7668.85
7668.38
7668.25
7668.05
7668
7667.9
7667.83
7667.62
7667.75
7667.73
7667.85
7667.75
7668.06
7668.06
7668.39
7668.36
7669.55
7669.74
7669.74
7669.73
7670.36
7670.35
7671.39
7671.39
7672.58
7673.25
7673.99
7673.99
7674.71
7675.55
7676.07
7676.45
7676.45
7676.44
7677.61
7677.63
7678.65
7679.44
7679.44
7679.44
7680.79
7680.79
7682.46
7683.3
7684.16
7685.48
7685.61
7685.61
7687.12
7687.85
7689.3
7690.18
7690.18
7691.84
7692.47
7693.78
7696.03
7697.09
7698.98
7701.41
7703.91
7707.33
7711.06
7716.14
7724.47
7728.51
7802.33
8031.67
54553.2
8288.03
8003.06
7878.72
7812.05
7770.43
7742.74
7722.91
7708.52
7697.45
7689.04
7682.25
7676.95
7672.52
7669.02
7665.99
7663.59
7661.45
7659.76
7658.2
7657
7655.8
7654.95
7654.17
7653.55
7652.75
7652.33
7651.95
7651.64
7651.14
7650.99
7650.77
7650.71
7650.59
7650.52
7650.29
7650.4
7650.38
7650.48
7650.37
7650.67
7650.67
7650.99
7650.95
7652.13
7652.32
7652.32
7652.31
7652.93
7652.93
7653.97
7653.96
7655.15
7655.82
7656.58
7656.58
7657.29
7658.14
7658.66
7659.07
7659.06
7659.06
7660.25
7660.28
7661.27
7662.09
7662.09
7662.09
7663.45
7663.46
7665.15
7665.98
7666.85
7668.19
7668.35
7668.35
7669.86
7670.62
7672.07
7673
7673
7674.66
7675.35
7676.64
7678.91
7680.01
7681.92
7684.36
7686.91
7690.32
7694.13
7699.14
7707.72
7711.37
7788.21
8017.53
51695.4
8286.28
7996.46
7868.91
7800.18
7757.14
7728.44
7707.84
7692.87
7681.34
7672.57
7665.48
7659.95
7655.31
7651.64
7648.47
7645.94
7643.7
7641.92
7640.28
7639.01
7637.76
7636.85
7636.03
7635.37
7634.53
7634.08
7633.66
7633.33
7632.81
7632.64
7632.4
7632.32
7632.19
7632.1
7631.85
7631.95
7631.93
7632.01
7631.88
7632.18
7632.18
7632.48
7632.44
7633.62
7633.8
7633.8
7633.78
7634.4
7634.4
7635.44
7635.43
7636.62
7637.29
7638.06
7638.06
7638.76
7639.63
7640.14
7640.57
7640.57
7640.56
7641.78
7641.82
7642.79
7643.64
7643.64
7643.64
7645.02
7645.02
7646.72
7647.56
7648.43
7649.8
7649.98
7649.99
7651.5
7652.28
7653.73
7654.71
7654.73
7656.39
7657.13
7658.41
7660.69
7661.83
7663.76
7666.21
7668.8
7672.22
7676.1
7681.04
7689.86
7693.12
7773.12
8002.27
48933
8284.47
7989.54
7858.6
7787.66
7743.11
7713.32
7691.91
7676.32
7664.29
7655.13
7647.72
7641.93
7637.08
7633.23
7629.9
7627.25
7624.89
7623.02
7621.29
7619.95
7618.63
7617.66
7616.79
7616.09
7615.22
7614.73
7614.27
7613.92
7613.38
7613.18
7612.92
7612.82
7612.67
7612.57
7612.3
7612.39
7612.36
7612.43
7612.28
7612.57
7612.57
7612.85
7612.8
7613.98
7614.15
7614.15
7614.14
7614.74
7614.74
7615.78
7615.78
7616.96
7617.64
7618.41
7618.41
7619.1
7619.99
7620.49
7620.96
7620.95
7620.95
7622.18
7622.24
7623.17
7624.06
7624.07
7624.07
7625.46
7625.47
7627.18
7628.02
7628.89
7630.29
7630.5
7630.51
7632.02
7632.83
7634.28
7635.31
7635.34
7637
7637.79
7639.07
7641.36
7642.53
7644.49
7646.95
7649.59
7653
7656.97
7661.83
7670.9
7673.75
7757.03
7985.85
46269.3
8282.61
7982.32
7847.78
7774.5
7728.34
7697.39
7675.11
7658.85
7646.3
7636.72
7628.97
7622.9
7617.82
7613.77
7610.28
7607.49
7605.01
7603.03
7601.21
7599.79
7598.4
7597.38
7596.45
7595.7
7594.79
7594.26
7593.77
7593.39
7592.82
7592.6
7592.32
7592.2
7592.03
7591.92
7591.63
7591.7
7591.67
7591.71
7591.55
7591.83
7591.83
7592.09
7592.03
7593.21
7593.37
7593.37
7593.35
7593.95
7593.95
7594.99
7594.99
7596.17
7596.84
7597.63
7597.63
7598.31
7599.21
7599.71
7600.2
7600.2
7600.19
7601.45
7601.53
7602.42
7603.35
7603.36
7603.36
7604.76
7604.77
7606.5
7607.34
7608.22
7609.65
7609.88
7609.89
7611.41
7612.24
7613.7
7614.78
7614.82
7616.49
7617.33
7618.59
7620.9
7622.11
7624.1
7626.56
7629.25
7632.65
7636.7
7641.49
7650.8
7653.24
7739.91
7968.24
43706.8
8280.72
7974.79
7836.47
7760.7
7712.82
7680.64
7657.43
7640.46
7627.36
7617.33
7609.22
7602.85
7597.52
7593.26
7589.59
7586.65
7584.04
7581.95
7580.04
7578.53
7577.07
7575.98
7574.99
7574.2
7573.24
7572.67
7572.14
7571.72
7571.13
7570.88
7570.58
7570.44
7570.25
7570.12
7569.81
7569.87
7569.83
7569.85
7569.67
7569.93
7569.93
7570.18
7570.1
7571.28
7571.44
7571.44
7571.42
7572
7572
7573.05
7573.04
7574.22
7574.89
7575.69
7575.69
7576.36
7577.28
7577.76
7578.29
7578.29
7578.29
7579.56
7579.67
7580.52
7581.49
7581.49
7581.49
7582.91
7582.92
7584.67
7585.51
7586.39
7587.85
7588.12
7588.12
7589.64
7590.5
7591.96
7593.09
7593.15
7594.82
7595.71
7596.97
7599.29
7600.54
7602.56
7605.03
7607.76
7611.16
7615.29
7619.99
7629.56
7631.58
7721.72
7949.41
41247.7
8278.78
7966.99
7824.66
7746.26
7696.57
7663.07
7638.88
7621.15
7607.45
7596.95
7588.45
7581.76
7576.16
7571.69
7567.83
7564.73
7561.98
7559.77
7557.75
7556.16
7554.62
7553.45
7552.4
7551.56
7550.55
7549.93
7549.36
7548.92
7548.3
7548.02
7547.68
7547.52
7547.31
7547.17
7546.84
7546.88
7546.83
7546.83
7546.63
7546.88
7546.88
7547.11
7547.02
7548.19
7548.34
7548.34
7548.32
7548.89
7548.89
7549.93
7549.93
7551.1
7551.77
7552.59
7552.58
7553.24
7554.18
7554.65
7555.22
7555.22
7555.21
7556.51
7556.64
7557.44
7558.46
7558.46
7558.46
7559.9
7559.91
7561.67
7562.51
7563.39
7564.88
7565.18
7565.19
7566.71
7567.6
7569.06
7570.24
7570.33
7571.99
7572.94
7574.19
7576.52
7577.81
7579.85
7582.33
7585.12
7588.5
7592.72
7597.34
7607.13
7608.75
7702.43
7929.31
38894.1
8276.82
7958.9
7812.37
7731.19
7679.58
7644.68
7619.45
7600.92
7586.58
7575.57
7566.66
7559.64
7553.76
7549.04
7544.98
7541.71
7538.81
7536.48
7534.35
7532.66
7531.03
7529.79
7528.67
7527.77
7526.71
7526.05
7525.43
7524.95
7524.3
7523.99
7523.63
7523.44
7523.21
7523.05
7522.7
7522.72
7522.66
7522.64
7522.42
7522.65
7522.65
7522.86
7522.75
7523.92
7524.06
7524.06
7524.04
7524.59
7524.59
7525.63
7525.63
7526.79
7527.47
7528.3
7528.29
7528.93
7529.89
7530.35
7530.95
7530.96
7530.94
7532.27
7532.43
7533.18
7534.24
7534.24
7534.24
7535.7
7535.71
7537.49
7538.32
7539.21
7540.73
7541.07
7541.08
7542.61
7543.52
7544.98
7546.21
7546.32
7547.98
7548.99
7550.23
7552.57
7553.9
7555.97
7558.45
7561.29
7564.66
7568.97
7573.5
7583.52
7584.73
7682
7907.9
36647.5
8274.83
7950.55
7799.6
7715.5
7661.85
7625.48
7599.14
7579.76
7564.75
7553.2
7543.85
7536.46
7530.28
7525.32
7521.04
7517.58
7514.53
7512.06
7509.81
7508.02
7506.3
7504.98
7503.78
7502.82
7501.71
7500.99
7500.33
7499.82
7499.13
7498.78
7498.39
7498.18
7497.93
7497.75
7497.38
7497.37
7497.31
7497.26
7497.01
7497.24
7497.23
7497.42
7497.29
7498.45
7498.58
7498.58
7498.56
7499.1
7499.1
7500.14
7500.14
7501.29
7501.97
7502.81
7502.8
7503.42
7504.4
7504.85
7505.49
7505.5
7505.48
7506.83
7507.02
7507.71
7508.83
7508.83
7508.83
7510.31
7510.31
7512.12
7512.94
7513.84
7515.38
7515.76
7515.77
7517.3
7518.24
7519.7
7520.98
7521.13
7522.78
7523.84
7525.07
7527.43
7528.8
7530.9
7533.38
7536.27
7539.62
7544.02
7548.46
7558.69
7559.51
7660.38
7885.13
34509.1
8272.82
7941.94
7786.37
7699.18
7643.39
7605.47
7577.95
7557.66
7541.94
7529.82
7520.01
7512.24
7505.73
7500.5
7496
7492.35
7489.12
7486.51
7484.13
7482.23
7480.41
7479.01
7477.73
7476.71
7475.54
7474.77
7474.05
7473.5
7472.77
7472.39
7471.97
7471.73
7471.45
7471.25
7470.86
7470.83
7470.75
7470.68
7470.41
7470.62
7470.61
7470.77
7470.63
7471.78
7471.9
7471.9
7471.88
7472.4
7472.4
7473.43
7473.44
7474.58
7475.26
7476.11
7476.1
7476.71
7477.71
7478.13
7478.82
7478.82
7478.81
7480.17
7480.4
7481.04
7482.2
7482.21
7482.21
7483.71
7483.7
7485.53
7486.35
7487.25
7488.82
7489.25
7489.24
7490.78
7491.75
7493.21
7494.54
7494.72
7496.37
7497.49
7498.71
7501.08
7502.48
7504.62
7507.1
7510.04
7513.37
7517.86
7522.21
7532.64
7533.08
7637.54
7860.96
32479.9
8270.8
7933.09
7772.69
7682.26
7624.21
7584.64
7555.89
7534.64
7518.16
7505.44
7495.13
7486.95
7480.11
7474.59
7469.84
7465.99
7462.58
7459.82
7457.3
7455.28
7453.36
7451.87
7450.51
7449.42
7448.18
7447.35
7446.59
7445.99
7445.22
7444.8
7444.34
7444.07
7443.76
7443.55
7443.14
7443.08
7442.98
7442.9
7442.6
7442.78
7442.78
7442.91
7442.74
7443.89
7444
7444
7443.98
7444.48
7444.47
7445.51
7445.51
7446.65
7447.32
7448.18
7448.18
7448.76
7449.78
7450.18
7450.92
7450.93
7450.92
7452.29
7452.56
7453.13
7454.35
7454.36
7454.36
7455.87
7455.87
7457.71
7458.53
7459.44
7461.03
7461.51
7461.5
7463.04
7464.03
7465.5
7466.87
7467.1
7468.73
7469.91
7471.12
7473.5
7474.94
7477.11
7479.59
7482.58
7485.89
7490.47
7494.73
7505.34
7505.41
7613.43
7835.34
30560.5
8268.78
7924.01
7758.56
7664.74
7604.31
7563.01
7532.95
7510.69
7493.41
7480.04
7469.21
7460.6
7453.4
7447.58
7442.58
7438.5
7434.91
7431.98
7429.32
7427.17
7425.14
7423.55
7422.1
7420.93
7419.64
7418.74
7417.92
7417.27
7416.46
7416
7415.51
7415.2
7414.87
7414.63
7414.19
7414.12
7413.99
7413.89
7413.56
7413.73
7413.72
7413.83
7413.63
7414.77
7414.87
7414.87
7414.84
7415.32
7415.32
7416.35
7416.35
7417.47
7418.15
7419.02
7419.02
7419.58
7420.62
7421
7421.79
7421.79
7421.78
7423.18
7423.48
7423.99
7425.25
7425.27
7425.27
7426.8
7426.81
7428.66
7429.47
7430.39
7432.01
7432.53
7432.52
7434.07
7435.08
7436.55
7437.96
7438.24
7439.86
7441.09
7442.3
7444.69
7446.17
7448.37
7450.84
7453.89
7457.17
7461.84
7466.01
7476.77
7476.5
7588.02
7808.2
28751.3
8266.77
7914.71
7744.01
7646.63
7583.7
7540.57
7509.13
7485.81
7467.68
7453.64
7442.26
7433.19
7425.61
7419.47
7414.19
7409.88
7406.08
7402.98
7400.17
7397.89
7395.74
7394.04
7392.5
7391.26
7389.89
7388.93
7388.04
7387.35
7386.49
7385.98
7385.45
7385.11
7384.74
7384.48
7384.02
7383.92
7383.77
7383.65
7383.29
7383.44
7383.43
7383.51
7383.28
7384.41
7384.5
7384.5
7384.47
7384.93
7384.92
7385.94
7385.94
7387.06
7387.74
7388.61
7388.61
7389.15
7390.21
7390.56
7391.4
7391.4
7391.4
7392.81
7393.15
7393.59
7394.91
7394.94
7394.93
7396.48
7396.49
7398.37
7399.16
7400.09
7401.73
7402.3
7402.29
7403.84
7404.88
7406.35
7407.81
7408.14
7409.74
7411.03
7412.23
7414.62
7416.14
7418.37
7420.84
7423.94
7427.2
7431.95
7436.03
7446.93
7446.32
7561.25
7779.49
27052.7
8264.77
7905.22
7729.05
7627.94
7562.4
7517.34
7484.45
7460
7440.99
7426.23
7414.26
7404.71
7396.72
7390.24
7384.67
7380.11
7376.1
7372.82
7369.84
7367.43
7365.15
7363.34
7361.7
7360.37
7358.93
7357.9
7356.94
7356.2
7355.3
7354.74
7354.16
7353.79
7353.38
7353.1
7352.61
7352.48
7352.31
7352.17
7351.78
7351.9
7351.9
7351.94
7351.68
7352.8
7352.88
7352.88
7352.85
7353.28
7353.27
7354.28
7354.28
7355.38
7356.06
7356.94
7356.94
7357.46
7358.54
7358.86
7359.76
7359.76
7359.75
7361.18
7361.56
7361.94
7363.3
7363.34
7363.34
7364.9
7364.91
7366.81
7367.58
7368.52
7370.19
7370.81
7370.8
7372.36
7373.42
7374.89
7376.38
7376.78
7378.36
7379.7
7380.9
7383.3
7384.84
7387.11
7389.57
7392.73
7395.95
7400.79
7404.77
7415.81
7414.87
7533.05
7749.17
25464.8
8262.78
7895.54
7713.69
7608.69
7540.4
7493.33
7458.91
7433.28
7413.32
7397.81
7385.22
7375.16
7366.74
7359.9
7354.03
7349.21
7344.97
7341.49
7338.34
7335.78
7333.37
7331.44
7329.7
7328.28
7326.75
7325.65
7324.62
7323.82
7322.87
7322.26
7321.64
7321.23
7320.78
7320.47
7319.95
7319.79
7319.59
7319.43
7319.01
7319.11
7319.11
7319.11
7318.82
7319.92
7319.99
7319.99
7319.96
7320.36
7320.35
7321.35
7321.35
7322.44
7323.12
7324
7324.01
7324.5
7325.6
7325.89
7326.84
7326.84
7326.84
7328.28
7328.69
7329.01
7330.42
7330.47
7330.47
7332.05
7332.06
7333.97
7334.74
7335.69
7337.37
7338.04
7338.04
7339.6
7340.68
7342.16
7343.68
7344.14
7345.7
7347.1
7348.29
7350.7
7352.27
7354.58
7357.03
7360.23
7363.42
7368.34
7372.23
7383.38
7382.14
7503.36
7717.22
23987.7
8260.83
7885.7
7697.95
7588.89
7517.72
7468.54
7432.52
7405.63
7384.69
7368.38
7355.14
7344.54
7335.67
7328.46
7322.25
7317.16
7312.68
7308.99
7305.66
7302.94
7300.39
7298.34
7296.48
7294.96
7293.36
7292.17
7291.07
7290.21
7289.2
7288.54
7287.87
7287.42
7286.93
7286.59
7286.04
7285.85
7285.62
7285.44
7284.99
7285.07
7285.05
7285.03
7284.7
7285.78
7285.84
7285.84
7285.8
7286.18
7286.16
7287.15
7287.15
7288.22
7288.9
7289.79
7289.8
7290.26
7291.39
7291.63
7292.65
7292.65
7292.64
7294.1
7294.54
7294.8
7296.26
7296.33
7296.32
7297.92
7297.93
7299.86
7300.6
7301.57
7303.27
7304
7303.99
7305.56
7306.66
7308.14
7309.7
7310.22
7311.76
7313.21
7314.4
7316.81
7318.42
7320.76
7323.2
7326.45
7329.6
7334.6
7338.4
7349.65
7348.1
7472.1
7683.58
22617.7
8258.9
7875.71
7681.86
7568.56
7494.39
7442.98
7405.28
7377.09
7355.1
7337.95
7324.02
7312.86
7303.51
7295.89
7289.35
7283.96
7279.23
7275.32
7271.8
7268.9
7266.21
7264.03
7262.04
7260.43
7258.73
7257.46
7256.28
7255.36
7254.29
7253.57
7252.85
7252.35
7251.82
7251.45
7250.87
7250.64
7250.39
7250.19
7249.71
7249.75
7249.73
7249.67
7249.3
7250.36
7250.41
7250.41
7250.37
7250.72
7250.69
7251.67
7251.66
7252.72
7253.4
7254.29
7254.3
7254.73
7255.88
7256.09
7257.16
7257.16
7257.16
7258.63
7259.1
7259.31
7260.81
7260.89
7260.88
7262.5
7262.51
7264.46
7265.18
7266.16
7267.87
7268.66
7268.65
7270.22
7271.35
7272.83
7274.42
7275.01
7276.53
7278.03
7279.22
7281.63
7283.26
7285.64
7288.06
7291.36
7294.48
7299.55
7303.25
7314.58
7312.77
7439.19
7648.22
21349.7
8257.02
7865.58
7665.42
7547.72
7470.41
7416.68
7377.21
7347.64
7324.56
7306.53
7291.88
7280.11
7270.26
7262.22
7255.31
7249.62
7244.61
7240.47
7236.75
7233.68
7230.82
7228.5
7226.39
7224.67
7222.87
7221.51
7220.25
7219.26
7218.12
7217.35
7216.57
7216.03
7215.45
7215.04
7214.43
7214.17
7213.88
7213.66
7213.15
7213.16
7213.13
7213.04
7212.62
7213.66
7213.69
7213.7
7213.66
7213.98
7213.93
7214.9
7214.89
7215.93
7216.61
7217.5
7217.51
7217.91
7219.07
7219.25
7220.38
7220.38
7220.38
7221.87
7222.36
7222.52
7224.06
7224.15
7224.14
7225.78
7225.79
7227.76
7228.45
7229.45
7231.17
7232.01
7232.02
7233.59
7234.73
7236.22
7237.83
7238.5
7239.99
7241.55
7242.73
7245.14
7246.8
7249.21
7251.62
7254.97
7258.04
7263.19
7266.79
7278.19
7276.11
7404.57
7611.1
20178.1
8255.19
7855.35
7648.67
7526.39
7445.79
7389.64
7348.31
7317.3
7293.08
7274.12
7258.7
7246.31
7235.93
7227.44
7220.15
7214.13
7208.84
7204.45
7200.51
7197.25
7194.23
7191.76
7189.52
7187.68
7185.78
7184.33
7182.98
7181.91
7180.71
7179.87
7179.03
7178.44
7177.82
7177.37
7176.72
7176.42
7176.09
7175.85
7175.32
7175.3
7175.24
7175.12
7174.65
7175.67
7175.69
7175.7
7175.65
7175.95
7175.88
7176.83
7176.82
7177.84
7178.52
7179.41
7179.42
7179.79
7180.97
7181.12
7182.3
7182.3
7182.3
7183.8
7184.31
7184.42
7186
7186.11
7186.1
7187.75
7187.77
7189.75
7190.42
7191.44
7193.17
7194.06
7194.07
7195.65
7196.81
7198.3
7199.93
7200.67
7202.14
7203.75
7204.93
7207.34
7209.02
7211.46
7213.86
7217.25
7220.27
7225.49
7229
7240.44
7238.13
7368.17
7572.19
19097.4
8253.41
7845.02
7631.62
7504.58
7420.57
7361.88
7318.62
7286.09
7260.66
7240.72
7224.51
7211.45
7200.51
7191.55
7183.86
7177.49
7171.91
7167.26
7163.09
7159.63
7156.44
7153.81
7151.42
7149.46
7147.46
7145.9
7144.46
7143.31
7142.04
7141.13
7140.23
7139.58
7138.91
7138.42
7137.73
7137.39
7137.03
7136.76
7136.21
7136.15
7136.06
7135.92
7135.4
7136.38
7136.4
7136.4
7136.36
7136.62
7136.54
7137.46
7137.45
7138.45
7139.13
7140.02
7140.02
7140.37
7141.56
7141.67
7142.91
7142.91
7142.91
7144.42
7144.95
7145.02
7146.63
7146.76
7146.75
7148.41
7148.44
7150.44
7151.07
7152.11
7153.85
7154.81
7154.81
7156.39
7157.57
7159.06
7160.71
7161.53
7162.97
7164.63
7165.81
7168.22
7169.92
7172.4
7174.77
7178.21
7181.18
7186.46
7189.88
7201.35
7198.83
7329.92
7531.45
18101.9
8251.7
7834.62
7614.29
7482.33
7394.76
7333.42
7288.13
7254.02
7227.32
7206.36
7189.3
7175.55
7164.03
7154.57
7146.45
7139.72
7133.82
7128.9
7124.48
7120.82
7117.44
7114.64
7112.1
7110.02
7107.9
7106.23
7104.69
7103.46
7102.11
7101.13
7100.17
7099.46
7098.73
7098.2
7097.47
7097.09
7096.69
7096.39
7095.81
7095.71
7095.6
7095.43
7094.85
7095.8
7095.81
7095.81
7095.77
7095.99
7095.89
7096.79
7096.78
7097.75
7098.43
7099.32