/*--------------------------------*- C++ -*----------------------------------*\
| =========                 |                                                 |
| \\      /  F ield         | OpenFOAM: The Open Source CFD Toolbox           |
|  \\    /   O peration     | Version:  v2012                                 |
|   \\  /    A nd           | Website:  www.openfoam.com                      |
|    \\/     M anipulation  |                                                 |
\*---------------------------------------------------------------------------*/
FoamFile
{
    version     2.0;
    format      ascii;
    class       volVectorField;
    location    "6.5";
    object      wallShearStress;
}
// * * * * * * * * * * * * * * * * * * * * * * * * * * * * * * * * * * * * * //

dimensions      [0 2 -2 0 0 0 0];


internalField   uniform (0 0 0);

boundaryField
{
    inlet
    {
        type            calculated;
        value           uniform (0 0 0);
    }
    outlet
    {
        type            calculated;
        value           uniform (0 0 0);
    }
    topWall
    {
        type            calculated;
        value           nonuniform List<vector> 
545
(
(1.28313e-08 -8.9913e-09 0)
(1.28626e-08 -2.53672e-08 0)
(1.27474e-08 -4.2186e-08 0)
(1.26969e-08 -5.84698e-08 0)
(1.26578e-08 -7.40181e-08 0)
(1.26179e-08 -8.90377e-08 0)
(1.25742e-08 -1.03663e-07 0)
(1.25262e-08 -1.17889e-07 0)
(1.24743e-08 -1.31685e-07 0)
(1.24188e-08 -1.45048e-07 0)
(1.23599e-08 -1.57994e-07 0)
(1.22981e-08 -1.70539e-07 0)
(1.22337e-08 -1.82693e-07 0)
(1.21669e-08 -1.94462e-07 0)
(1.2098e-08 -2.05857e-07 0)
(1.20273e-08 -2.16888e-07 0)
(1.19551e-08 -2.27563e-07 0)
(1.18815e-08 -2.37894e-07 0)
(1.18068e-08 -2.4789e-07 0)
(1.17311e-08 -2.57561e-07 0)
(1.16547e-08 -2.66915e-07 0)
(1.15777e-08 -2.75963e-07 0)
(1.15002e-08 -2.84714e-07 0)
(1.14225e-08 -2.93177e-07 0)
(1.13445e-08 -3.0136e-07 0)
(1.12666e-08 -3.09273e-07 0)
(1.11886e-08 -3.16925e-07 0)
(1.11109e-08 -3.24322e-07 0)
(1.10333e-08 -3.31475e-07 0)
(1.09561e-08 -3.3839e-07 0)
(1.08793e-08 -3.45076e-07 0)
(1.08029e-08 -3.5154e-07 0)
(1.0727e-08 -3.57789e-07 0)
(1.06517e-08 -3.6383e-07 0)
(1.05769e-08 -3.69671e-07 0)
(1.05029e-08 -3.75318e-07 0)
(1.04295e-08 -3.80778e-07 0)
(1.03568e-08 -3.86056e-07 0)
(1.02848e-08 -3.9116e-07 0)
(1.02136e-08 -3.96094e-07 0)
(1.01431e-08 -4.00865e-07 0)
(1.00734e-08 -4.05478e-07 0)
(1.00045e-08 -4.09939e-07 0)
(9.9364e-09 -4.14253e-07 0)
(9.86908e-09 -4.18424e-07 0)
(9.80256e-09 -4.22458e-07 0)
(9.73684e-09 -4.26359e-07 0)
(9.6719e-09 -4.30132e-07 0)
(9.60774e-09 -4.33781e-07 0)
(9.54436e-09 -4.3731e-07 0)
(9.48174e-09 -4.40723e-07 0)
(9.41987e-09 -4.44025e-07 0)
(9.35875e-09 -4.47218e-07 0)
(9.29834e-09 -4.50308e-07 0)
(9.23865e-09 -4.53296e-07 0)
(9.17964e-09 -4.56187e-07 0)
(9.12131e-09 -4.58984e-07 0)
(9.06363e-09 -4.6169e-07 0)
(9.00658e-09 -4.64308e-07 0)
(8.95015e-09 -4.66841e-07 0)
(8.8943e-09 -4.69291e-07 0)
(8.83903e-09 -4.71662e-07 0)
(8.7843e-09 -4.73957e-07 0)
(8.73008e-09 -4.76177e-07 0)
(8.67637e-09 -4.78325e-07 0)
(8.62313e-09 -4.80403e-07 0)
(8.57034e-09 -4.82415e-07 0)
(8.51793e-09 -4.8436e-07 0)
(8.46607e-09 -4.86246e-07 0)
(8.41396e-09 -4.88062e-07 0)
(8.36477e-09 -4.89855e-07 0)
(8.30489e-09 -4.91505e-07 0)
(8.2496e-09 -4.93129e-07 0)
(8.21324e-09 -4.94785e-07 0)
(8.17707e-09 -4.96312e-07 0)
(8.14099e-09 -4.9783e-07 0)
(8.10499e-09 -4.99361e-07 0)
(8.06903e-09 -5.00885e-07 0)
(8.03312e-09 -5.02391e-07 0)
(7.99726e-09 -5.03879e-07 0)
(7.96146e-09 -5.05354e-07 0)
(7.9257e-09 -5.06816e-07 0)
(7.89e-09 -5.08266e-07 0)
(7.85436e-09 -5.09702e-07 0)
(7.81877e-09 -5.11126e-07 0)
(7.78323e-09 -5.12536e-07 0)
(7.74775e-09 -5.13933e-07 0)
(7.71232e-09 -5.15318e-07 0)
(7.67696e-09 -5.1669e-07 0)
(7.64163e-09 -5.18049e-07 0)
(7.60643e-09 -5.19398e-07 0)
(7.57102e-09 -5.20727e-07 0)
(7.53682e-09 -5.22069e-07 0)
(7.49778e-09 -5.23327e-07 0)
(7.47961e-09 -5.24881e-07 0)
(7.37299e-09 -5.25801e-07 0)
(7.24132e-09 -5.26749e-07 0)
(7.20674e-09 -5.28307e-07 0)
(7.18014e-09 -5.29237e-07 0)
(7.15545e-09 -5.30094e-07 0)
(7.13115e-09 -5.31075e-07 0)
(7.10688e-09 -5.32115e-07 0)
(7.08254e-09 -5.33139e-07 0)
(7.05812e-09 -5.3414e-07 0)
(7.03362e-09 -5.35136e-07 0)
(7.00904e-09 -5.36135e-07 0)
(6.98437e-09 -5.37137e-07 0)
(6.95962e-09 -5.38137e-07 0)
(6.93477e-09 -5.39135e-07 0)
(6.90985e-09 -5.40131e-07 0)
(6.88483e-09 -5.41126e-07 0)
(6.85973e-09 -5.4212e-07 0)
(6.83455e-09 -5.43113e-07 0)
(6.80927e-09 -5.44104e-07 0)
(6.78391e-09 -5.45094e-07 0)
(6.75847e-09 -5.46083e-07 0)
(6.73294e-09 -5.4707e-07 0)
(6.70732e-09 -5.48056e-07 0)
(6.68161e-09 -5.4904e-07 0)
(6.65582e-09 -5.50023e-07 0)
(6.62994e-09 -5.51004e-07 0)
(6.60398e-09 -5.51984e-07 0)
(6.57793e-09 -5.52962e-07 0)
(6.55179e-09 -5.53939e-07 0)
(6.52557e-09 -5.54914e-07 0)
(6.49926e-09 -5.55887e-07 0)
(6.47286e-09 -5.56859e-07 0)
(6.44638e-09 -5.57829e-07 0)
(6.41981e-09 -5.58798e-07 0)
(6.39316e-09 -5.59764e-07 0)
(6.36642e-09 -5.60729e-07 0)
(6.33959e-09 -5.61692e-07 0)
(6.31268e-09 -5.62654e-07 0)
(6.28568e-09 -5.63613e-07 0)
(6.2586e-09 -5.64571e-07 0)
(6.23144e-09 -5.65527e-07 0)
(6.20419e-09 -5.6648e-07 0)
(6.17685e-09 -5.67432e-07 0)
(6.14943e-09 -5.68382e-07 0)
(6.12193e-09 -5.6933e-07 0)
(6.09434e-09 -5.70276e-07 0)
(6.06667e-09 -5.71219e-07 0)
(6.03891e-09 -5.72161e-07 0)
(6.01107e-09 -5.73101e-07 0)
(5.98315e-09 -5.74038e-07 0)
(5.95514e-09 -5.74973e-07 0)
(5.92705e-09 -5.75906e-07 0)
(5.89888e-09 -5.76837e-07 0)
(5.87063e-09 -5.77765e-07 0)
(5.8423e-09 -5.78692e-07 0)
(5.81388e-09 -5.79615e-07 0)
(5.78538e-09 -5.80537e-07 0)
(5.7568e-09 -5.81456e-07 0)
(5.72814e-09 -5.82373e-07 0)
(5.6994e-09 -5.83287e-07 0)
(5.67058e-09 -5.84199e-07 0)
(5.64168e-09 -5.85109e-07 0)
(5.6127e-09 -5.86015e-07 0)
(5.58364e-09 -5.8692e-07 0)
(5.5545e-09 -5.87821e-07 0)
(5.52529e-09 -5.8872e-07 0)
(5.49599e-09 -5.89617e-07 0)
(5.46662e-09 -5.90511e-07 0)
(5.43717e-09 -5.91402e-07 0)
(5.40764e-09 -5.9229e-07 0)
(5.37803e-09 -5.93176e-07 0)
(5.34835e-09 -5.94058e-07 0)
(5.31859e-09 -5.94938e-07 0)
(5.28875e-09 -5.95815e-07 0)
(5.25884e-09 -5.9669e-07 0)
(5.22885e-09 -5.97561e-07 0)
(5.19879e-09 -5.98429e-07 0)
(5.16865e-09 -5.99294e-07 0)
(5.13844e-09 -6.00157e-07 0)
(5.10815e-09 -6.01016e-07 0)
(5.07779e-09 -6.01872e-07 0)
(5.04736e-09 -6.02725e-07 0)
(5.01685e-09 -6.03575e-07 0)
(4.98627e-09 -6.04422e-07 0)
(4.95562e-09 -6.05266e-07 0)
(4.9249e-09 -6.06106e-07 0)
(4.89411e-09 -6.06943e-07 0)
(4.86324e-09 -6.07777e-07 0)
(4.83231e-09 -6.08607e-07 0)
(4.8013e-09 -6.09434e-07 0)
(4.77023e-09 -6.10258e-07 0)
(4.73908e-09 -6.11078e-07 0)
(4.70787e-09 -6.11895e-07 0)
(4.67659e-09 -6.12708e-07 0)
(4.64524e-09 -6.13518e-07 0)
(4.61382e-09 -6.14324e-07 0)
(4.58234e-09 -6.15126e-07 0)
(4.55079e-09 -6.15925e-07 0)
(4.51917e-09 -6.16721e-07 0)
(4.48749e-09 -6.17512e-07 0)
(4.45574e-09 -6.183e-07 0)
(4.42393e-09 -6.19084e-07 0)
(4.39205e-09 -6.19864e-07 0)
(4.36011e-09 -6.20641e-07 0)
(4.32811e-09 -6.21413e-07 0)
(4.29604e-09 -6.22182e-07 0)
(4.26392e-09 -6.22947e-07 0)
(4.23173e-09 -6.23708e-07 0)
(4.19948e-09 -6.24464e-07 0)
(4.16717e-09 -6.25217e-07 0)
(4.1348e-09 -6.25966e-07 0)
(4.10237e-09 -6.2671e-07 0)
(4.06988e-09 -6.27451e-07 0)
(4.03734e-09 -6.28187e-07 0)
(4.00474e-09 -6.28919e-07 0)
(3.97208e-09 -6.29647e-07 0)
(3.93936e-09 -6.3037e-07 0)
(3.90659e-09 -6.3109e-07 0)
(3.87376e-09 -6.31805e-07 0)
(3.84088e-09 -6.32515e-07 0)
(3.80795e-09 -6.33221e-07 0)
(3.77496e-09 -6.33923e-07 0)
(3.74192e-09 -6.3462e-07 0)
(3.70883e-09 -6.35313e-07 0)
(3.67569e-09 -6.36001e-07 0)
(3.6425e-09 -6.36684e-07 0)
(3.60925e-09 -6.37363e-07 0)
(3.57596e-09 -6.38038e-07 0)
(3.54262e-09 -6.38707e-07 0)
(3.50924e-09 -6.39372e-07 0)
(3.47581e-09 -6.40032e-07 0)
(3.44233e-09 -6.40687e-07 0)
(3.4088e-09 -6.41338e-07 0)
(3.37523e-09 -6.41983e-07 0)
(3.34162e-09 -6.42624e-07 0)
(3.30797e-09 -6.4326e-07 0)
(3.27427e-09 -6.43891e-07 0)
(3.24053e-09 -6.44516e-07 0)
(3.20675e-09 -6.45137e-07 0)
(3.17293e-09 -6.45753e-07 0)
(3.13908e-09 -6.46363e-07 0)
(3.10518e-09 -6.46969e-07 0)
(3.07125e-09 -6.47569e-07 0)
(3.03728e-09 -6.48164e-07 0)
(3.00328e-09 -6.48754e-07 0)
(2.96924e-09 -6.49338e-07 0)
(2.93516e-09 -6.49917e-07 0)
(2.90106e-09 -6.50491e-07 0)
(2.86692e-09 -6.5106e-07 0)
(2.83275e-09 -6.51622e-07 0)
(2.79855e-09 -6.5218e-07 0)
(2.76432e-09 -6.52732e-07 0)
(2.73007e-09 -6.53279e-07 0)
(2.69578e-09 -6.53819e-07 0)
(2.66147e-09 -6.54355e-07 0)
(2.62713e-09 -6.54885e-07 0)
(2.59277e-09 -6.55409e-07 0)
(2.55839e-09 -6.55927e-07 0)
(2.52398e-09 -6.56439e-07 0)
(2.48955e-09 -6.56946e-07 0)
(2.4551e-09 -6.57447e-07 0)
(2.42063e-09 -6.57942e-07 0)
(2.38614e-09 -6.58432e-07 0)
(2.35163e-09 -6.58915e-07 0)
(2.31711e-09 -6.59393e-07 0)
(2.28256e-09 -6.59864e-07 0)
(2.24801e-09 -6.6033e-07 0)
(2.21344e-09 -6.60789e-07 0)
(2.17888e-09 -6.61244e-07 0)
(2.14416e-09 -6.61686e-07 0)
(2.11009e-09 -6.62146e-07 0)
(2.07322e-09 -6.62529e-07 0)
(2.04821e-09 -6.63209e-07 0)
(1.97289e-09 -6.63288e-07 0)
(1.88137e-09 -6.63458e-07 0)
(1.84673e-09 -6.64325e-07 0)
(1.82091e-09 -6.64627e-07 0)
(1.79691e-09 -6.64829e-07 0)
(1.77307e-09 -6.65139e-07 0)
(1.74898e-09 -6.65513e-07 0)
(1.72456e-09 -6.65876e-07 0)
(1.69977e-09 -6.66216e-07 0)
(1.67462e-09 -6.6655e-07 0)
(1.6491e-09 -6.66887e-07 0)
(1.62323e-09 -6.67226e-07 0)
(1.59698e-09 -6.67562e-07 0)
(1.57038e-09 -6.67896e-07 0)
(1.54341e-09 -6.68227e-07 0)
(1.51607e-09 -6.68556e-07 0)
(1.48838e-09 -6.68883e-07 0)
(1.46032e-09 -6.69207e-07 0)
(1.43191e-09 -6.69528e-07 0)
(1.40313e-09 -6.69847e-07 0)
(1.37399e-09 -6.70162e-07 0)
(1.3445e-09 -6.70474e-07 0)
(1.31464e-09 -6.70782e-07 0)
(1.28443e-09 -6.71087e-07 0)
(1.25387e-09 -6.71388e-07 0)
(1.22295e-09 -6.71684e-07 0)
(1.19168e-09 -6.71976e-07 0)
(1.16006e-09 -6.72264e-07 0)
(1.12808e-09 -6.72547e-07 0)
(1.09576e-09 -6.72825e-07 0)
(1.06309e-09 -6.73097e-07 0)
(1.03008e-09 -6.73364e-07 0)
(9.96726e-10 -6.73626e-07 0)
(9.63029e-10 -6.73881e-07 0)
(9.28992e-10 -6.7413e-07 0)
(8.9462e-10 -6.74373e-07 0)
(8.59913e-10 -6.74609e-07 0)
(8.24873e-10 -6.74838e-07 0)
(7.89505e-10 -6.7506e-07 0)
(7.5381e-10 -6.75274e-07 0)
(7.17792e-10 -6.7548e-07 0)
(6.81453e-10 -6.75679e-07 0)
(6.44797e-10 -6.75868e-07 0)
(6.07826e-10 -6.7605e-07 0)
(5.70545e-10 -6.76222e-07 0)
(5.32957e-10 -6.76384e-07 0)
(4.95066e-10 -6.76538e-07 0)
(4.56876e-10 -6.76681e-07 0)
(4.18391e-10 -6.76814e-07 0)
(3.79616e-10 -6.76936e-07 0)
(3.40554e-10 -6.77047e-07 0)
(3.01211e-10 -6.77147e-07 0)
(2.61592e-10 -6.77236e-07 0)
(2.21701e-10 -6.77312e-07 0)
(1.81544e-10 -6.77376e-07 0)
(1.41127e-10 -6.77427e-07 0)
(1.00454e-10 -6.77465e-07 0)
(5.95329e-11 -6.7749e-07 0)
(1.83688e-11 -6.77501e-07 0)
(-2.30319e-11 -6.77498e-07 0)
(-6.46625e-11 -6.7748e-07 0)
(-1.06516e-10 -6.77447e-07 0)
(-1.48586e-10 -6.77398e-07 0)
(-1.90864e-10 -6.77334e-07 0)
(-2.33344e-10 -6.77253e-07 0)
(-2.76018e-10 -6.77156e-07 0)
(-3.18877e-10 -6.77042e-07 0)
(-3.61913e-10 -6.7691e-07 0)
(-4.05118e-10 -6.7676e-07 0)
(-4.48483e-10 -6.76591e-07 0)
(-4.91999e-10 -6.76404e-07 0)
(-5.35657e-10 -6.76198e-07 0)
(-5.79446e-10 -6.75972e-07 0)
(-6.23358e-10 -6.75725e-07 0)
(-6.67382e-10 -6.75458e-07 0)
(-7.11508e-10 -6.7517e-07 0)
(-7.55725e-10 -6.7486e-07 0)
(-8.00022e-10 -6.74529e-07 0)
(-8.44388e-10 -6.74174e-07 0)
(-8.88812e-10 -6.73797e-07 0)
(-9.33281e-10 -6.73396e-07 0)
(-9.77783e-10 -6.72971e-07 0)
(-1.02231e-09 -6.72522e-07 0)
(-1.06684e-09 -6.72048e-07 0)
(-1.11137e-09 -6.71548e-07 0)
(-1.15588e-09 -6.71022e-07 0)
(-1.20036e-09 -6.7047e-07 0)
(-1.24479e-09 -6.69891e-07 0)
(-1.28916e-09 -6.69285e-07 0)
(-1.33346e-09 -6.6865e-07 0)
(-1.37768e-09 -6.67988e-07 0)
(-1.42179e-09 -6.67296e-07 0)
(-1.46578e-09 -6.66575e-07 0)
(-1.50963e-09 -6.65824e-07 0)
(-1.55334e-09 -6.65043e-07 0)
(-1.59688e-09 -6.64231e-07 0)
(-1.64024e-09 -6.63387e-07 0)
(-1.68341e-09 -6.62512e-07 0)
(-1.72635e-09 -6.61604e-07 0)
(-1.76907e-09 -6.60663e-07 0)
(-1.81153e-09 -6.59689e-07 0)
(-1.85373e-09 -6.58682e-07 0)
(-1.89564e-09 -6.5764e-07 0)
(-1.93725e-09 -6.56564e-07 0)
(-1.97854e-09 -6.55452e-07 0)
(-2.0195e-09 -6.54305e-07 0)
(-2.06009e-09 -6.53121e-07 0)
(-2.10031e-09 -6.51902e-07 0)
(-2.14013e-09 -6.50645e-07 0)
(-2.17954e-09 -6.49351e-07 0)
(-2.21852e-09 -6.4802e-07 0)
(-2.25705e-09 -6.4665e-07 0)
(-2.2951e-09 -6.45242e-07 0)
(-2.33267e-09 -6.43795e-07 0)
(-2.36973e-09 -6.42309e-07 0)
(-2.40625e-09 -6.40783e-07 0)
(-2.44223e-09 -6.39217e-07 0)
(-2.47765e-09 -6.37611e-07 0)
(-2.51247e-09 -6.35965e-07 0)
(-2.5467e-09 -6.34277e-07 0)
(-2.58029e-09 -6.32549e-07 0)
(-2.61324e-09 -6.30779e-07 0)
(-2.64553e-09 -6.28968e-07 0)
(-2.67714e-09 -6.27115e-07 0)
(-2.70805e-09 -6.25219e-07 0)
(-2.73824e-09 -6.23282e-07 0)
(-2.76769e-09 -6.21302e-07 0)
(-2.79639e-09 -6.19279e-07 0)
(-2.82431e-09 -6.17214e-07 0)
(-2.85145e-09 -6.15106e-07 0)
(-2.87778e-09 -6.12955e-07 0)
(-2.90328e-09 -6.10761e-07 0)
(-2.92795e-09 -6.08524e-07 0)
(-2.95176e-09 -6.06245e-07 0)
(-2.97469e-09 -6.03922e-07 0)
(-2.99675e-09 -6.01556e-07 0)
(-3.0179e-09 -5.99147e-07 0)
(-3.03813e-09 -5.96695e-07 0)
(-3.05744e-09 -5.94201e-07 0)
(-3.0758e-09 -5.91663e-07 0)
(-3.0932e-09 -5.89084e-07 0)
(-3.10964e-09 -5.86462e-07 0)
(-3.1251e-09 -5.83798e-07 0)
(-3.13956e-09 -5.81092e-07 0)
(-3.15303e-09 -5.78345e-07 0)
(-3.16547e-09 -5.75556e-07 0)
(-3.1769e-09 -5.72727e-07 0)
(-3.18729e-09 -5.69857e-07 0)
(-3.19664e-09 -5.66947e-07 0)
(-3.20494e-09 -5.63997e-07 0)
(-3.21218e-09 -5.61007e-07 0)
(-3.21836e-09 -5.57979e-07 0)
(-3.22346e-09 -5.54913e-07 0)
(-3.22749e-09 -5.51809e-07 0)
(-3.23044e-09 -5.48668e-07 0)
(-3.23231e-09 -5.45491e-07 0)
(-3.2331e-09 -5.42278e-07 0)
(-3.2328e-09 -5.3903e-07 0)
(-3.23142e-09 -5.35747e-07 0)
(-3.22895e-09 -5.32431e-07 0)
(-3.22541e-09 -5.29082e-07 0)
(-3.2208e-09 -5.25701e-07 0)
(-3.21512e-09 -5.22288e-07 0)
(-3.20838e-09 -5.18846e-07 0)
(-3.20058e-09 -5.15373e-07 0)
(-3.19175e-09 -5.11873e-07 0)
(-3.18187e-09 -5.08345e-07 0)
(-3.17097e-09 -5.0479e-07 0)
(-3.15906e-09 -5.01209e-07 0)
(-3.14615e-09 -4.97604e-07 0)
(-3.13225e-09 -4.93975e-07 0)
(-3.11738e-09 -4.90324e-07 0)
(-3.10155e-09 -4.86651e-07 0)
(-3.08477e-09 -4.82959e-07 0)
(-3.06706e-09 -4.79246e-07 0)
(-3.04844e-09 -4.75516e-07 0)
(-3.02892e-09 -4.71767e-07 0)
(-3.00851e-09 -4.68009e-07 0)
(-2.98731e-09 -4.64212e-07 0)
(-2.96489e-09 -4.60473e-07 0)
(-2.9432e-09 -4.56413e-07 0)
(-2.91413e-09 -4.52928e-07 0)
(-2.8752e-09 -4.4889e-07 0)
(-2.83895e-09 -4.43775e-07 0)
(-2.80679e-09 -4.39278e-07 0)
(-2.77517e-09 -4.34893e-07 0)
(-2.74331e-09 -4.30447e-07 0)
(-2.71105e-09 -4.26002e-07 0)
(-2.67836e-09 -4.21623e-07 0)
(-2.6453e-09 -4.17319e-07 0)
(-2.61191e-09 -4.1307e-07 0)
(-2.57824e-09 -4.08872e-07 0)
(-2.54434e-09 -4.04725e-07 0)
(-2.51026e-09 -4.00635e-07 0)
(-2.47601e-09 -3.966e-07 0)
(-2.44166e-09 -3.92622e-07 0)
(-2.40721e-09 -3.88698e-07 0)
(-2.37272e-09 -3.84831e-07 0)
(-2.3382e-09 -3.81019e-07 0)
(-2.30369e-09 -3.77263e-07 0)
(-2.26921e-09 -3.73563e-07 0)
(-2.23478e-09 -3.69919e-07 0)
(-2.20042e-09 -3.6633e-07 0)
(-2.16615e-09 -3.62797e-07 0)
(-2.13199e-09 -3.59319e-07 0)
(-2.09796e-09 -3.55897e-07 0)
(-2.06406e-09 -3.52529e-07 0)
(-2.0303e-09 -3.49217e-07 0)
(-1.99671e-09 -3.45959e-07 0)
(-1.96329e-09 -3.42755e-07 0)
(-1.93004e-09 -3.39604e-07 0)
(-1.89698e-09 -3.36508e-07 0)
(-1.86411e-09 -3.33465e-07 0)
(-1.83143e-09 -3.30475e-07 0)
(-1.79895e-09 -3.27538e-07 0)
(-1.76668e-09 -3.24653e-07 0)
(-1.73461e-09 -3.2182e-07 0)
(-1.70275e-09 -3.19039e-07 0)
(-1.6711e-09 -3.1631e-07 0)
(-1.63966e-09 -3.13631e-07 0)
(-1.60842e-09 -3.11004e-07 0)
(-1.5774e-09 -3.08426e-07 0)
(-1.54659e-09 -3.05899e-07 0)
(-1.51598e-09 -3.03421e-07 0)
(-1.48557e-09 -3.00993e-07 0)
(-1.45537e-09 -2.98614e-07 0)
(-1.42538e-09 -2.96284e-07 0)
(-1.39557e-09 -2.94002e-07 0)
(-1.36597e-09 -2.91768e-07 0)
(-1.33655e-09 -2.89582e-07 0)
(-1.30732e-09 -2.87444e-07 0)
(-1.27827e-09 -2.85352e-07 0)
(-1.24941e-09 -2.83308e-07 0)
(-1.22071e-09 -2.81309e-07 0)
(-1.19219e-09 -2.79358e-07 0)
(-1.16383e-09 -2.77452e-07 0)
(-1.13563e-09 -2.75593e-07 0)
(-1.10757e-09 -2.73778e-07 0)
(-1.07968e-09 -2.72009e-07 0)
(-1.05191e-09 -2.70284e-07 0)
(-1.02429e-09 -2.68606e-07 0)
(-9.96799e-10 -2.6697e-07 0)
(-9.69436e-10 -2.65381e-07 0)
(-9.42187e-10 -2.63834e-07 0)
(-9.15059e-10 -2.62332e-07 0)
(-8.88033e-10 -2.60873e-07 0)
(-8.61118e-10 -2.59459e-07 0)
(-8.34295e-10 -2.58087e-07 0)
(-8.0757e-10 -2.56759e-07 0)
(-7.80929e-10 -2.55473e-07 0)
(-7.54375e-10 -2.54232e-07 0)
(-7.27894e-10 -2.53032e-07 0)
(-7.01491e-10 -2.51876e-07 0)
(-6.75152e-10 -2.50761e-07 0)
(-6.48879e-10 -2.4969e-07 0)
(-6.22661e-10 -2.4866e-07 0)
(-5.96497e-10 -2.47674e-07 0)
(-5.70379e-10 -2.46728e-07 0)
(-5.44304e-10 -2.45826e-07 0)
(-5.18263e-10 -2.44965e-07 0)
(-4.92254e-10 -2.44146e-07 0)
(-4.6627e-10 -2.43369e-07 0)
(-4.40306e-10 -2.42634e-07 0)
(-4.14358e-10 -2.4194e-07 0)
(-3.8842e-10 -2.41289e-07 0)
(-3.62494e-10 -2.4068e-07 0)
(-3.36578e-10 -2.40111e-07 0)
(-3.10679e-10 -2.39587e-07 0)
(-2.84803e-10 -2.39097e-07 0)
(-2.58981e-10 -2.38672e-07 0)
(-2.33188e-10 -2.38215e-07 0)
(-2.07621e-10 -2.38036e-07 0)
(-1.81635e-10 -2.37102e-07 0)
(-1.57742e-10 -2.38746e-07 0)
(-1.25737e-10 -2.31381e-07 0)
(-1.25898e-10 -2.50171e-07 0)
(-7.37418e-11 -2.1832e-07 0)
)
;
    }
    bottomWall
    {
        type            calculated;
        value           nonuniform List<vector> 
449
(
(-48.7786 -0.967525 0)
(-19.8478 -0.00518074 0)
(-14.4217 -0.00113737 0)
(-12.1136 -0.00054328 0)
(-10.7222 -0.000345161 0)
(-9.75856 -0.000244179 0)
(-9.05293 -0.000178065 0)
(-8.53822 -0.000124042 0)
(-8.19903 -6.2933e-05 0)
(-8.09809 1.74348e-05 0)
(-8.30091 0.000118688 0)
(-8.88494 0.000176451 0)
(-9.48936 0.000147384 0)
(-9.89035 8.59446e-05 0)
(-10.0818 3.65121e-05 0)
(-10.1438 7.51362e-06 0)
(-10.1342 -8.62869e-06 0)
(-10.0837 -1.74606e-05 0)
(-10.0123 -2.2252e-05 0)
(-9.92806 -2.50605e-05 0)
(-9.83679 -2.64367e-05 0)
(-9.74253 -2.68802e-05 0)
(-9.64771 -2.6727e-05 0)
(-9.5541 -2.61738e-05 0)
(-9.46273 -2.54869e-05 0)
(-9.37353 -2.45905e-05 0)
(-9.28809 -2.37207e-05 0)
(-9.20463 -2.27632e-05 0)
(-9.12562 -2.1833e-05 0)
(-9.04841 -2.09266e-05 0)
(-8.97552 -2.00605e-05 0)
(-8.90416 -1.91606e-05 0)
(-8.83743 -1.83671e-05 0)
(-8.77141 -1.76846e-05 0)
(-8.70931 -1.68163e-05 0)
(-8.64931 -1.62488e-05 0)
(-8.59096 -1.56514e-05 0)
(-8.53506 -1.49836e-05 0)
(-8.48133 -1.44433e-05 0)
(-8.42911 -1.38377e-05 0)
(-8.37962 -1.32467e-05 0)
(-8.33147 -1.29154e-05 0)
(-8.28416 -1.23296e-05 0)
(-8.24019 -1.18788e-05 0)
(-8.19596 -1.15943e-05 0)
(-8.15387 -1.11461e-05 0)
(-8.11281 -1.07918e-05 0)
(-8.07316 -1.04499e-05 0)
(-8.03446 -1.00893e-05 0)
(-7.99736 -9.6652e-06 0)
(-7.96167 -9.37627e-06 0)
(-7.92661 -8.86248e-06 0)
(-7.89472 -8.64069e-06 0)
(-7.86107 -8.53358e-06 0)
(-7.82978 -8.30374e-06 0)
(-7.79775 -8.02718e-06 0)
(-7.76847 -7.78374e-06 0)
(-7.73815 -7.57491e-06 0)
(-7.71032 -7.25901e-06 0)
(-7.6823 -7.16493e-06 0)
(-7.655 -7.04648e-06 0)
(-7.62776 -6.81741e-06 0)
(-7.6022 -6.53168e-06 0)
(-7.57708 -6.36254e-06 0)
(-7.55267 -6.12887e-06 0)
(-7.52929 -5.85229e-06 0)
(-7.50694 -5.695e-06 0)
(-7.48466 -5.58647e-06 0)
(-7.46303 -5.62845e-06 0)
(-7.44027 -5.49176e-06 0)
(-7.41966 -5.32668e-06 0)
(-7.39811 -5.18272e-06 0)
(-7.37855 -4.93639e-06 0)
(-7.35888 -4.86527e-06 0)
(-7.33976 -4.76716e-06 0)
(-7.32077 -4.7176e-06 0)
(-7.30198 -4.54328e-06 0)
(-7.28435 -4.38344e-06 0)
(-7.26671 -4.42708e-06 0)
(-7.2486 -4.23809e-06 0)
(-7.23249 -3.95403e-06 0)
(-7.21661 -4.02235e-06 0)
(-7.19979 -4.09769e-06 0)
(-7.1832 -3.96987e-06 0)
(-7.16738 -3.81882e-06 0)
(-7.15192 -3.86852e-06 0)
(-7.13562 -3.6231e-06 0)
(-7.12222 -3.40762e-06 0)
(-7.10759 -3.46584e-06 0)
(-7.0936 -3.48594e-06 0)
(-7.07873 -3.50163e-06 0)
(-7.06452 -3.4013e-06 0)
(-7.05041 -3.32694e-06 0)
(-7.03681 -3.05674e-06 0)
(-7.02496 -3.09498e-06 0)
(-7.01087 -3.26362e-06 0)
(-6.99753 -3.11494e-06 0)
(-6.98471 -2.9832e-06 0)
(-6.97239 -2.98421e-06 0)
(-6.95947 -2.78916e-06 0)
(-6.94881 -2.55369e-06 0)
(-6.93781 -2.62881e-06 0)
(-6.9264 -2.65535e-06 0)
(-6.91513 -2.67227e-06 0)
(-6.90351 -2.57387e-06 0)
(-6.89306 -2.42801e-06 0)
(-6.88268 -2.43882e-06 0)
(-6.8721 -2.37261e-06 0)
(-6.8623 -2.06858e-06 0)
(-6.85433 -2.05242e-06 0)
(-6.84455 -2.16314e-06 0)
(-6.83555 -2.09437e-06 0)
(-6.82629 -2.10468e-06 0)
(-6.81718 -2.03653e-06 0)
(-6.80852 -1.98778e-06 0)
(-6.7997 -1.9858e-06 0)
(-6.791 -1.91056e-06 0)
(-6.78291 -1.87992e-06 0)
(-6.77441 -1.90451e-06 0)
(-6.76598 -1.95983e-06 0)
(-6.757 -1.9012e-06 0)
(-6.74909 -1.77831e-06 0)
(-6.74114 -1.7666e-06 0)
(-6.73328 -1.74797e-06 0)
(-6.72551 -1.55065e-06 0)
(-6.71946 -1.41651e-06 0)
(-6.71285 -1.4566e-06 0)
(-6.70635 -1.51827e-06 0)
(-6.69907 -1.69912e-06 0)
(-6.69092 -1.62986e-06 0)
(-6.68432 -1.45409e-06 0)
(-6.67767 -1.53074e-06 0)
(-6.67031 -1.46544e-06 0)
(-6.66432 -1.32626e-06 0)
(-6.65817 -1.40821e-06 0)
(-6.65135 -1.3762e-06 0)
(-6.64554 -1.28912e-06 0)
(-6.63948 -1.3342e-06 0)
(-6.63316 -1.33402e-06 0)
(-6.62712 -1.23223e-06 0)
(-6.62174 -1.24913e-06 0)
(-6.61545 -1.25593e-06 0)
(-6.60999 -1.16433e-06 0)
(-6.60456 -1.09873e-06 0)
(-6.59969 -1.18632e-06 0)
(-6.59336 -1.39731e-06 0)
(-6.58646 -1.31298e-06 0)
(-6.58098 -1.15281e-06 0)
(-6.57557 -1.15611e-06 0)
(-6.56997 -1.06551e-06 0)
(-6.56541 -9.75124e-07 0)
(-6.56069 -1.01215e-06 0)
(-6.55574 -9.56207e-07 0)
(-6.5515 -1.0159e-06 0)
(-6.54591 -1.09198e-06 0)
(-6.54094 -1.04228e-06 0)
(-6.53583 -1.01097e-06 0)
(-6.53112 -9.27579e-07 0)
(-6.52684 -8.9785e-07 0)
(-6.52242 -8.49889e-07 0)
(-6.51855 -8.6739e-07 0)
(-6.51391 -9.32795e-07 0)
(-6.50942 -8.13264e-07 0)
(-6.50598 -7.80933e-07 0)
(-6.50174 -8.87358e-07 0)
(-6.4972 -8.11909e-07 0)
(-6.49372 -7.68725e-07 0)
(-6.48957 -8.79841e-07 0)
(-6.48494 -8.27046e-07 0)
(-6.48133 -7.43153e-07 0)
(-6.4775 -8.51031e-07 0)
(-6.47276 -8.96802e-07 0)
(-6.46848 -7.79482e-07 0)
(-6.46514 -7.57498e-07 0)
(-6.46148 -8.65663e-07 0)
(-6.45723 -9.27305e-07 0)
(-6.4529 -9.72497e-07 0)
(-6.44818 -9.94269e-07 0)
(-6.44359 -9.25254e-07 0)
(-6.43939 -9.97333e-07 0)
(-6.43398 -1.05183e-06 0)
(-6.42918 -9.03411e-07 0)
(-6.42513 -8.58175e-07 0)
(-6.42068 -8.01771e-07 0)
(-6.41713 -6.80198e-07 0)
(-6.41381 -6.76815e-07 0)
(-6.41021 -6.28227e-07 0)
(-6.40733 -5.70544e-07 0)
(-6.40426 -6.00978e-07 0)
(-6.401 -5.50654e-07 0)
(-6.3984 -5.2166e-07 0)
(-6.39538 -5.54087e-07 0)
(-6.39238 -4.93552e-07 0)
(-6.38997 -4.82616e-07 0)
(-6.38702 -5.03163e-07 0)
(-6.38434 -4.59571e-07 0)
(-6.38181 -4.75491e-07 0)
(-6.37887 -4.75716e-07 0)
(-6.37631 -4.3037e-07 0)
(-6.37383 -4.63644e-07 0)
(-6.3708 -4.7162e-07 0)
(-6.3682 -4.26915e-07 0)
(-6.36564 -4.46538e-07 0)
(-6.36273 -4.36952e-07 0)
(-6.36026 -3.95572e-07 0)
(-6.35779 -4.19398e-07 0)
(-6.35495 -4.13003e-07 0)
(-6.35253 -3.80357e-07 0)
(-6.35004 -4.07228e-07 0)
(-6.34722 -3.92028e-07 0)
(-6.34489 -3.735e-07 0)
(-6.34223 -4.01928e-07 0)
(-6.33947 -3.70304e-07 0)
(-6.3372 -3.67453e-07 0)
(-6.33441 -3.93072e-07 0)
(-6.33173 -3.53419e-07 0)
(-6.32945 -3.61635e-07 0)
(-6.3266 -3.73512e-07 0)
(-6.32409 -3.36032e-07 0)
(-6.32171 -3.5059e-07 0)
(-6.31893 -3.46908e-07 0)
(-6.31658 -3.17222e-07 0)
(-6.31418 -3.37755e-07 0)
(-6.31146 -3.27235e-07 0)
(-6.30918 -3.04236e-07 0)
(-6.30675 -3.21259e-07 0)
(-6.30415 -3.05534e-07 0)
(-6.30192 -2.93898e-07 0)
(-6.29946 -3.10529e-07 0)
(-6.2969 -2.95562e-07 0)
(-6.29464 -3.01174e-07 0)
(-6.29194 -3.15036e-07 0)
(-6.28939 -2.84324e-07 0)
(-6.28716 -2.86689e-07 0)
(-6.2845 -2.94773e-07 0)
(-6.28207 -2.74165e-07 0)
(-6.27972 -2.90936e-07 0)
(-6.27695 -2.90854e-07 0)
(-6.27455 -2.71456e-07 0)
(-6.27206 -2.88606e-07 0)
(-6.2693 -2.75745e-07 0)
(-6.267 -2.60222e-07 0)
(-6.26445 -2.88497e-07 0)
(-6.26156 -2.76391e-07 0)
(-6.2592 -2.55651e-07 0)
(-6.25664 -2.79747e-07 0)
(-6.25376 -2.67938e-07 0)
(-6.25139 -2.45197e-07 0)
(-6.24889 -2.66788e-07 0)
(-6.24602 -2.57436e-07 0)
(-6.24366 -2.49084e-07 0)
(-6.24091 -2.46298e-07 0)
(-6.23855 -2.4794e-07 0)
(-6.2357 -2.53356e-07 0)
(-6.23318 -2.53791e-07 0)
(-6.23025 -2.53483e-07 0)
(-6.22769 -2.40511e-07 0)
(-6.22498 -2.5899e-07 0)
(-6.22195 -2.49913e-07 0)
(-6.21941 -2.29194e-07 0)
(-6.21678 -2.47608e-07 0)
(-6.21375 -2.41961e-07 0)
(-6.2112 -2.21745e-07 0)
(-6.20857 -2.39415e-07 0)
(-6.20554 -2.34434e-07 0)
(-6.20299 -2.15787e-07 0)
(-6.20034 -2.31632e-07 0)
(-6.19733 -2.2426e-07 0)
(-6.19482 -2.08799e-07 0)
(-6.19214 -2.23717e-07 0)
(-6.18918 -2.13347e-07 0)
(-6.18671 -2.07118e-07 0)
(-6.18385 -2.06757e-07 0)
(-6.18133 -2.05449e-07 0)
(-6.17846 -2.00838e-07 0)
(-6.17601 -1.8799e-07 0)
(-6.17341 -2.02617e-07 0)
(-6.17051 -1.93268e-07 0)
(-6.16812 -1.73157e-07 0)
(-6.16571 -1.82753e-07 0)
(-6.163 -1.77403e-07 0)
(-6.1607 -1.63246e-07 0)
(-6.15833 -1.75092e-07 0)
(-6.15563 -1.70454e-07 0)
(-6.15336 -1.57807e-07 0)
(-6.15097 -1.71625e-07 0)
(-6.14822 -1.67145e-07 0)
(-6.14593 -1.5372e-07 0)
(-6.14353 -1.66962e-07 0)
(-6.14077 -1.62449e-07 0)
(-6.13846 -1.48245e-07 0)
(-6.13609 -1.57021e-07 0)
(-6.13345 -1.51596e-07 0)
(-6.13121 -1.40566e-07 0)
(-6.12887 -1.50664e-07 0)
(-6.12625 -1.44329e-07 0)
(-6.12408 -1.33147e-07 0)
(-6.12176 -1.46951e-07 0)
(-6.11907 -1.42705e-07 0)
(-6.11686 -1.30582e-07 0)
(-6.11453 -1.41979e-07 0)
(-6.11186 -1.36849e-07 0)
(-6.10967 -1.23805e-07 0)
(-6.10742 -1.32754e-07 0)
(-6.10485 -1.28059e-07 0)
(-6.10273 -1.17677e-07 0)
(-6.10048 -1.26321e-07 0)
(-6.09799 -1.20645e-07 0)
(-6.09592 -1.10378e-07 0)
(-6.09376 -1.17232e-07 0)
(-6.09138 -1.12329e-07 0)
(-6.08937 -1.08222e-07 0)
(-6.08709 -1.1601e-07 0)
(-6.08472 -1.07665e-07 0)
(-6.08274 -1.01443e-07 0)
(-6.08058 -1.09029e-07 0)
(-6.07823 -1.03774e-07 0)
(-6.07624 -1.00468e-07 0)
(-6.07399 -1.02589e-07 0)
(-6.07186 -9.48965e-08 0)
(-6.0699 -9.70671e-08 0)
(-6.06763 -1.00897e-07 0)
(-6.06545 -9.31563e-08 0)
(-6.06348 -9.01427e-08 0)
(-6.06139 -8.95552e-08 0)
(-6.0594 -8.56215e-08 0)
(-6.05745 -8.73912e-08 0)
(-6.05534 -8.49956e-08 0)
(-6.05346 -8.11471e-08 0)
(-6.05148 -8.64745e-08 0)
(-6.0493 -8.34949e-08 0)
(-6.04744 -7.62373e-08 0)
(-6.04556 -7.92913e-08 0)
(-6.0435 -7.62858e-08 0)
(-6.04175 -7.20495e-08 0)
(-6.03985 -7.45484e-08 0)
(-6.03793 -7.20957e-08 0)
(-6.03612 -7.07336e-08 0)
(-6.03422 -7.30901e-08 0)
(-6.03225 -6.79237e-08 0)
(-6.03059 -6.23576e-08 0)
(-6.02888 -6.59933e-08 0)
(-6.02699 -6.39476e-08 0)
(-6.02536 -6.12617e-08 0)
(-6.02357 -6.44082e-08 0)
(-6.02172 -6.00795e-08 0)
(-6.02014 -5.6067e-08 0)
(-6.01849 -5.97434e-08 0)
(-6.01666 -5.98083e-08 0)
(-6.01496 -5.8342e-08 0)
(-6.01318 -5.64302e-08 0)
(-6.01156 -5.21118e-08 0)
(-6.01001 -5.7947e-08 0)
(-6.00798 -6.21795e-08 0)
(-6.00591 -5.29576e-08 0)
(-6.00412 -4.35121e-08 0)
(-6.00257 -4.31486e-08 0)
(-6.0008 -4.43669e-08 0)
(-5.99915 -4.34694e-08 0)
(-5.99746 -4.24823e-08 0)
(-5.99589 -4.12559e-08 0)
(-5.9943 -4.10334e-08 0)
(-5.99275 -3.98932e-08 0)
(-5.99123 -3.97535e-08 0)
(-5.98969 -3.821e-08 0)
(-5.9883 -4.20076e-08 0)
(-5.98646 -4.38343e-08 0)
(-5.98492 -3.87091e-08 0)
(-5.98349 -3.85125e-08 0)
(-5.98197 -3.69837e-08 0)
(-5.98065 -3.72332e-08 0)
(-5.9791 -4.10293e-08 0)
(-5.97749 -3.82516e-08 0)
(-5.97616 -3.65522e-08 0)
(-5.97468 -3.70482e-08 0)
(-5.97331 -3.65008e-08 0)
(-5.97187 -3.43503e-08 0)
(-5.97067 -3.19071e-08 0)
(-5.96942 -3.37824e-08 0)
(-5.96807 -3.43346e-08 0)
(-5.96677 -3.40217e-08 0)
(-5.96545 -3.26232e-08 0)
(-5.96426 -3.06416e-08 0)
(-5.9631 -2.91193e-08 0)
(-5.96203 -2.80538e-08 0)
(-5.96095 -2.86916e-08 0)
(-5.95983 -2.77184e-08 0)
(-5.95882 -3.25064e-08 0)
(-5.95733 -3.36728e-08 0)
(-5.95623 -2.76447e-08 0)
(-5.95521 -2.81105e-08 0)
(-5.95407 -2.73837e-08 0)
(-5.95311 -2.35811e-08 0)
(-5.95226 -2.75027e-08 0)
(-5.95099 -2.89008e-08 0)
(-5.95004 -2.34675e-08 0)
(-5.94919 -2.91707e-08 0)
(-5.94779 -2.82286e-08 0)
(-5.94702 -1.85975e-08 0)
(-5.94637 -2.52599e-08 0)
(-5.94507 -2.53183e-08 0)
(-5.94442 -1.49583e-08 0)
(-5.94394 -1.3379e-08 0)
(-5.94341 -1.39847e-08 0)
(-5.94288 -1.4148e-08 0)
(-5.94234 -1.47841e-08 0)
(-5.94175 -2.31147e-08 0)
(-5.94056 -2.28394e-08 0)
(-5.94 -1.34085e-08 0)
(-5.93954 -1.18914e-08 0)
(-5.9391 -1.22655e-08 0)
(-5.93862 -1.23424e-08 0)
(-5.93817 -1.32825e-08 0)
(-5.93761 -2.45663e-08 0)
(-5.93627 -2.33019e-08 0)
(-5.93581 -9.10203e-09 0)
(-5.93559 -9.81192e-09 0)
(-5.93507 -1.27771e-08 0)
(-5.93462 -1.92657e-08 0)
(-5.93359 -1.73955e-08 0)
(-5.93328 -7.33445e-09 0)
(-5.93305 -7.05871e-09 0)
(-5.93276 -8.85935e-09 0)
(-5.93238 -1.72664e-08 0)
(-5.93143 -1.56881e-08 0)
(-5.93118 -6.70931e-09 0)
(-5.93094 -1.64408e-08 0)
(-5.92992 -1.67258e-08 0)
(-5.92965 -6.24891e-09 0)
(-5.92946 -1.48872e-08 0)
(-5.92851 -1.75121e-08 0)
(-5.92811 -8.09644e-09 0)
(-5.9279 -8.35337e-09 0)
(-5.92748 -1.0275e-08 0)
(-5.92712 -5.59818e-09 0)
(-5.92707 -2.12171e-09 0)
(-5.92698 -3.57674e-09 0)
(-5.92681 -5.74692e-09 0)
(-5.92656 -1.07002e-08 0)
(-5.92599 -1.0832e-08 0)
(-5.92573 -6.18731e-09 0)
(-5.92553 -5.58276e-09 0)
(-5.92532 -6.94674e-09 0)
(-5.92501 -1.61808e-08 0)
(-5.92407 -1.28866e-08 0)
(-5.92403 -9.35432e-10 0)
(-5.92403 -2.32625e-10 0)
(-5.92403 -1.77373e-08 0)
(-5.92265 -1.84571e-08 0)
)
;
    }
    symmetry
    {
        type            symmetryPlane;
    }
    frontAndBack
    {
        type            empty;
    }
}


// ************************************************************************* //
