/*--------------------------------*- C++ -*----------------------------------*\
| =========                 |                                                 |
| \\      /  F ield         | OpenFOAM: The Open Source CFD Toolbox           |
|  \\    /   O peration     | Version:  v2012                                 |
|   \\  /    A nd           | Website:  www.openfoam.com                      |
|    \\/     M anipulation  |                                                 |
\*---------------------------------------------------------------------------*/
FoamFile
{
    version     2.0;
    format      ascii;
    class       volScalarField;
    location    "6.5";
    object      yPlus;
}
// * * * * * * * * * * * * * * * * * * * * * * * * * * * * * * * * * * * * * //

dimensions      [0 0 0 0 0 0 0];


internalField   uniform 0;

boundaryField
{
    inlet
    {
        type            calculated;
        value           uniform 0;
    }
    outlet
    {
        type            calculated;
        value           uniform 0;
    }
    topWall
    {
        type            calculated;
        value           nonuniform List<scalar> 
545
(
0.0654907
0.113615
0.145568
0.170923
0.192361
0.211098
0.227812
0.242929
0.25674
0.269454
0.281227
0.292182
0.302415
0.312005
0.321017
0.329507
0.33752
0.345097
0.352273
0.35908
0.365543
0.371687
0.377535
0.383105
0.388416
0.393483
0.398321
0.402943
0.407362
0.41159
0.415636
0.419511
0.423224
0.426782
0.430195
0.433468
0.43661
0.439626
0.442522
0.445305
0.447979
0.45055
0.453021
0.455399
0.457686
0.459887
0.462006
0.464045
0.46601
0.467902
0.469724
0.471481
0.473173
0.474805
0.476378
0.477895
0.479358
0.480769
0.48213
0.483443
0.484711
0.485934
0.487114
0.488254
0.489354
0.490416
0.491442
0.492433
0.493389
0.494313
0.495205
0.496068
0.496888
0.49768
0.498463
0.499238
0.500004
0.500763
0.501514
0.502257
0.502992
0.50372
0.504439
0.505152
0.505857
0.506554
0.507244
0.507927
0.508603
0.509272
0.509933
0.510588
0.511236
0.511878
0.512511
0.513142
0.513695
0.514187
0.514678
0.515168
0.515657
0.516145
0.516632
0.517118
0.517603
0.518088
0.518571
0.519053
0.519534
0.520014
0.520493
0.52097
0.521447
0.521923
0.522398
0.522871
0.523344
0.523815
0.524285
0.524755
0.525223
0.525689
0.526155
0.52662
0.527083
0.527545
0.528006
0.528466
0.528925
0.529382
0.529838
0.530293
0.530747
0.531199
0.531651
0.5321
0.532549
0.532996
0.533442
0.533887
0.53433
0.534772
0.535213
0.535653
0.536091
0.536527
0.536962
0.537396
0.537829
0.53826
0.538689
0.539118
0.539544
0.53997
0.540393
0.540816
0.541237
0.541656
0.542074
0.54249
0.542905
0.543318
0.54373
0.54414
0.544549
0.544956
0.545362
0.545765
0.546168
0.546568
0.546967
0.547365
0.54776
0.548155
0.548547
0.548938
0.549327
0.549714
0.5501
0.550484
0.550866
0.551246
0.551625
0.552002
0.552377
0.55275
0.553121
0.553491
0.553859
0.554225
0.554589
0.554951
0.555312
0.55567
0.556027
0.556382
0.556735
0.557085
0.557434
0.557781
0.558126
0.55847
0.558811
0.55915
0.559487
0.559822
0.560155
0.560486
0.560815
0.561142
0.561466
0.561789
0.56211
0.562428
0.562745
0.563059
0.563371
0.563681
0.563988
0.564294
0.564597
0.564898
0.565197
0.565494
0.565789
0.566081
0.566371
0.566658
0.566944
0.567227
0.567507
0.567786
0.568062
0.568336
0.568607
0.568876
0.569142
0.569407
0.569668
0.569928
0.570184
0.570439
0.570691
0.57094
0.571187
0.571432
0.571674
0.571914
0.57215
0.572385
0.572617
0.572846
0.573073
0.573297
0.573518
0.573737
0.573954
0.574167
0.574378
0.574587
0.574792
0.574995
0.575195
0.575393
0.575588
0.57578
0.575969
0.576155
0.576341
0.576504
0.576656
0.576807
0.576957
0.577107
0.577256
0.577405
0.577554
0.577701
0.577849
0.577995
0.57814
0.578285
0.578429
0.578572
0.578713
0.578854
0.578993
0.579131
0.579267
0.579403
0.579536
0.579668
0.579798
0.579927
0.580053
0.580177
0.5803
0.58042
0.580538
0.580653
0.580766
0.580877
0.580985
0.58109
0.581192
0.581291
0.581387
0.581479
0.581568
0.581654
0.581736
0.581815
0.581889
0.58196
0.582026
0.582088
0.582145
0.582198
0.582247
0.58229
0.582329
0.582362
0.58239
0.582412
0.582429
0.58244
0.582446
0.582445
0.582437
0.582424
0.582403
0.582376
0.582342
0.582301
0.582252
0.582196
0.582132
0.58206
0.58198
0.581892
0.581795
0.58169
0.581576
0.581452
0.581319
0.581177
0.581025
0.580863
0.580691
0.580508
0.580315
0.580111
0.579896
0.57967
0.579432
0.579182
0.578921
0.578647
0.578361
0.578062
0.57775
0.577426
0.577087
0.576736
0.57637
0.57599
0.575596
0.575188
0.574765
0.574326
0.573873
0.573403
0.572919
0.572418
0.571901
0.571367
0.570817
0.57025
0.569666
0.569064
0.568445
0.567808
0.567153
0.56648
0.565788
0.565078
0.564349
0.5636
0.562833
0.562046
0.561239
0.560412
0.559566
0.558699
0.557811
0.556904
0.555975
0.555026
0.554055
0.553063
0.552051
0.551016
0.54996
0.548883
0.547783
0.546662
0.545519
0.544354
0.543167
0.541958
0.540726
0.539472
0.538196
0.536898
0.535578
0.534235
0.53287
0.531482
0.530073
0.528642
0.527188
0.525712
0.524215
0.522696
0.521155
0.519593
0.518009
0.516404
0.514778
0.513132
0.511464
0.509777
0.508069
0.506341
0.504594
0.502827
0.501042
0.499237
0.497414
0.495573
0.493714
0.491838
0.489944
0.488034
0.486108
0.484166
0.482208
0.480236
0.478249
0.476246
0.474013
0.471566
0.469133
0.466716
0.464314
0.461927
0.459557
0.457204
0.454867
0.452549
0.45025
0.447969
0.445708
0.443467
0.441246
0.439045
0.436865
0.434707
0.43257
0.430455
0.428363
0.426292
0.424244
0.422219
0.420217
0.418238
0.416283
0.414351
0.412442
0.410558
0.408698
0.406862
0.40505
0.403262
0.401499
0.399761
0.398047
0.396358
0.394695
0.393056
0.391442
0.389854
0.388291
0.386753
0.385242
0.383755
0.382294
0.380859
0.379451
0.378067
0.376711
0.37538
0.374076
0.372797
0.371546
0.37032
0.369122
0.36795
0.366806
0.365687
0.364597
0.363533
0.362497
0.361487
0.360506
0.359551
0.358625
0.357726
0.356856
0.356012
0.355198
0.354411
0.353654
0.352924
0.352223
0.35155
0.350907
0.350291
0.349706
0.349149
0.348621
0.348123
0.347654
0.347215
0.346805
0.346426
0.346075
0.345755
0.345464
0.345204
0.344972
0.344773
0.344596
0.344472
0.344295
)
;
    }
    bottomWall
    {
        type            calculated;
        value           nonuniform List<scalar> 
449
(
0.139807
0.0891783
0.076017
0.0696688
0.0655456
0.0625309
0.0602278
0.0584906
0.057317
0.0569631
0.057672
0.0596663
0.0616624
0.0629517
0.0635581
0.0637532
0.0637231
0.0635642
0.0633387
0.0630717
0.0627811
0.0624795
0.0621748
0.0618724
0.0615758
0.0612849
0.061005
0.0607303
0.0604691
0.0602127
0.0599697
0.0597308
0.0595066
0.0592839
0.0590737
0.0588698
0.0586709
0.0584797
0.0582953
0.0581156
0.0579448
0.057778
0.0576138
0.0574607
0.0573062
0.0571589
0.0570148
0.0568753
0.0567388
0.0566077
0.0564812
0.0563567
0.0562432
0.0561232
0.0560114
0.0558968
0.0557917
0.0556827
0.0555825
0.0554814
0.0553828
0.0552841
0.0551914
0.0551002
0.0550113
0.0549262
0.0548445
0.0547631
0.0546839
0.0546005
0.0545248
0.0544456
0.0543735
0.054301
0.0542304
0.0541602
0.0540907
0.0540253
0.0539599
0.0538926
0.0538327
0.0537736
0.0537108
0.0536489
0.0535898
0.053532
0.053471
0.0534207
0.0533658
0.0533133
0.0532574
0.0532039
0.0531507
0.0530994
0.0530547
0.0530015
0.052951
0.0529025
0.0528558
0.0528068
0.0527664
0.0527246
0.0526812
0.0526383
0.0525941
0.0525543
0.0525147
0.0524743
0.0524369
0.0524064
0.052369
0.0523346
0.0522991
0.0522642
0.052231
0.0521972
0.0521638
0.0521327
0.0521
0.0520676
0.052033
0.0520026
0.0519719
0.0519416
0.0519116
0.0518883
0.0518627
0.0518376
0.0518095
0.051778
0.0517524
0.0517267
0.0516982
0.0516749
0.0516511
0.0516246
0.0516021
0.0515785
0.051554
0.0515305
0.0515096
0.0514851
0.0514639
0.0514427
0.0514237
0.0513991
0.0513722
0.0513508
0.0513297
0.0513078
0.05129
0.0512716
0.0512523
0.0512357
0.0512138
0.0511944
0.0511744
0.0511559
0.0511391
0.0511218
0.0511067
0.0510885
0.0510709
0.0510574
0.0510407
0.0510229
0.0510093
0.0509929
0.0509748
0.0509606
0.0509455
0.0509268
0.05091
0.0508968
0.0508825
0.0508657
0.0508487
0.0508301
0.0508119
0.0507954
0.050774
0.0507551
0.0507391
0.0507216
0.0507075
0.0506944
0.0506802
0.0506688
0.0506566
0.0506438
0.0506335
0.0506215
0.0506097
0.0506001
0.0505884
0.0505778
0.0505678
0.0505561
0.050546
0.0505362
0.0505242
0.0505138
0.0505037
0.0504921
0.0504823
0.0504725
0.0504613
0.0504517
0.0504418
0.0504305
0.0504213
0.0504107
0.0503998
0.0503907
0.0503796
0.050369
0.0503599
0.0503486
0.0503386
0.0503291
0.0503181
0.0503087
0.0502991
0.0502883
0.0502792
0.0502695
0.0502592
0.0502503
0.0502405
0.0502303
0.0502212
0.0502105
0.0502003
0.0501914
0.0501808
0.0501711
0.0501617
0.0501506
0.0501411
0.0501311
0.05012
0.0501108
0.0501007
0.0500891
0.0500797
0.0500694
0.0500579
0.0500484
0.0500384
0.0500269
0.0500175
0.0500064
0.049997
0.0499856
0.0499755
0.0499637
0.0499535
0.0499426
0.0499304
0.0499202
0.0499097
0.0498975
0.0498873
0.0498767
0.0498645
0.0498543
0.0498436
0.0498316
0.0498215
0.0498107
0.0497988
0.0497888
0.0497773
0.0497672
0.0497556
0.0497458
0.0497353
0.0497236
0.049714
0.0497043
0.0496933
0.0496841
0.0496745
0.0496636
0.0496545
0.0496448
0.0496337
0.0496245
0.0496148
0.0496036
0.0495943
0.0495847
0.0495741
0.049565
0.0495556
0.0495449
0.0495362
0.0495268
0.0495159
0.049507
0.0494975
0.0494867
0.0494779
0.0494687
0.0494583
0.0494497
0.0494407
0.0494305
0.0494222
0.0494134
0.0494037
0.0493956
0.0493864
0.0493767
0.0493687
0.0493599
0.0493504
0.0493423
0.0493332
0.0493245
0.0493166
0.0493073
0.0492985
0.0492905
0.049282
0.0492739
0.049266
0.0492574
0.0492497
0.0492417
0.0492328
0.0492252
0.0492176
0.0492092
0.0492021
0.0491943
0.0491865
0.0491791
0.0491714
0.0491634
0.0491566
0.0491497
0.0491419
0.0491353
0.049128
0.0491204
0.049114
0.0491073
0.0490998
0.0490929
0.0490856
0.049079
0.0490727
0.0490644
0.0490559
0.0490486
0.0490423
0.049035
0.0490283
0.0490214
0.049015
0.0490085
0.0490021
0.0489959
0.0489897
0.048984
0.0489764
0.0489701
0.0489643
0.048958
0.0489527
0.0489463
0.0489397
0.0489343
0.0489282
0.0489226
0.0489167
0.0489118
0.0489067
0.0489011
0.0488958
0.0488904
0.0488855
0.0488808
0.0488764
0.048872
0.0488674
0.0488632
0.0488571
0.0488526
0.0488484
0.0488437
0.0488398
0.0488363
0.0488311
0.0488272
0.0488237
0.048818
0.0488148
0.0488122
0.0488068
0.0488042
0.0488022
0.0488
0.0487978
0.0487956
0.0487932
0.0487883
0.048786
0.0487841
0.0487823
0.0487803
0.0487785
0.0487762
0.0487707
0.0487688
0.0487679
0.0487658
0.0487639
0.0487597
0.0487584
0.0487575
0.0487563
0.0487547
0.0487508
0.0487498
0.0487488
0.0487446
0.0487435
0.0487427
0.0487388
0.0487371
0.0487363
0.0487346
0.0487331
0.0487329
0.0487325
0.0487318
0.0487308
0.0487285
0.0487274
0.0487266
0.0487257
0.0487244
0.0487206
0.0487204
0.0487204
0.0487204
0.0487147
)
;
    }
    symmetry
    {
        type            symmetryPlane;
    }
    frontAndBack
    {
        type            empty;
    }
}


// ************************************************************************* //
