/*--------------------------------*- C++ -*----------------------------------*\
| =========                 |                                                 |
| \\      /  F ield         | OpenFOAM: The Open Source CFD Toolbox           |
|  \\    /   O peration     | Version:  v2012                                 |
|   \\  /    A nd           | Website:  www.openfoam.com                      |
|    \\/     M anipulation  |                                                 |
\*---------------------------------------------------------------------------*/
FoamFile
{
    version     2.0;
    format      ascii;
    class       volScalarField;
    location    "23.5";
    object      epsilon;
}
// * * * * * * * * * * * * * * * * * * * * * * * * * * * * * * * * * * * * * //

dimensions      [0 2 -3 0 0 0 0];


internalField   nonuniform List<scalar> 
209825
(
0.755068
0.660118
0.610735
0.582673
0.565046
0.553145
0.544629
0.538323
0.533464
0.529669
0.526597
0.524113
0.522028
0.520296
0.518807
0.517555
0.51645
0.515511
0.514662
0.513939
0.513272
0.5127
0.512168
0.511716
0.511284
0.510918
0.510565
0.510273
0.509982
0.509735
0.509499
0.50931
0.509114
0.508955
0.508796
0.508676
0.508534
0.508427
0.508319
0.50824
0.508161
0.508108
0.508024
0.507972
0.507931
0.507898
0.50783
0.507812
0.507803
0.507786
0.507739
0.50781
0.50781
0.507809
0.507855
0.507855
0.507938
0.508073
0.508165
0.508328
0.508346
0.508346
0.508431
0.508553
0.508749
0.508904
0.508995
0.509123
0.509326
0.509489
0.509681
0.509905
0.510097
0.510317
0.510529
0.510778
0.511016
0.51135
0.511595
0.512002
0.512282
0.512753
0.513066
0.51364
0.513994
0.514714
0.515135
0.516035
0.51657
0.517738
0.518391
0.520441
0.520945
0.529074
2.96208
545.587
0.755069
0.660111
0.610722
0.582655
0.565023
0.55312
0.544601
0.538294
0.533433
0.529637
0.526564
0.52408
0.521995
0.520262
0.518773
0.51752
0.516414
0.515475
0.514627
0.513903
0.513236
0.512664
0.512131
0.51168
0.511248
0.510881
0.510528
0.510236
0.509945
0.509698
0.509462
0.509273
0.509077
0.508917
0.508758
0.508639
0.508496
0.508389
0.508282
0.508203
0.508124
0.508071
0.507986
0.507935
0.507894
0.507861
0.507792
0.507775
0.507765
0.507748
0.507701
0.507772
0.507772
0.507772
0.507817
0.507817
0.5079
0.508035
0.508127
0.508291
0.508308
0.508308
0.508393
0.508515
0.508711
0.508866
0.508957
0.509085
0.509288
0.509451
0.509643
0.509867
0.510059
0.510279
0.510491
0.51074
0.510978
0.511312
0.511557
0.511964
0.512244
0.512715
0.513028
0.513602
0.513956
0.514676
0.515098
0.515997
0.516532
0.5177
0.518353
0.520403
0.520906
0.529049
2.96673
542.253
0.755068
0.660078
0.610659
0.58257
0.564923
0.553008
0.544482
0.538168
0.533303
0.529503
0.526427
0.52394
0.521853
0.520118
0.518627
0.517374
0.516267
0.515327
0.514477
0.513753
0.513085
0.512512
0.511979
0.511527
0.511094
0.510727
0.510374
0.510082
0.50979
0.509543
0.509307
0.509118
0.508921
0.508761
0.508602
0.508482
0.50834
0.508233
0.508125
0.508046
0.507967
0.507914
0.507829
0.507777
0.507736
0.507703
0.507634
0.507617
0.507607
0.50759
0.507543
0.507614
0.507614
0.507613
0.507658
0.507658
0.507742
0.507876
0.507969
0.508132
0.50815
0.50815
0.508234
0.508356
0.508552
0.508707
0.508799
0.508926
0.509129
0.509292
0.509485
0.509709
0.5099
0.510121
0.510332
0.510581
0.510819
0.511153
0.511399
0.511805
0.512085
0.512556
0.512869
0.513443
0.513797
0.514517
0.514938
0.515837
0.516372
0.51754
0.518192
0.520241
0.520742
0.52891
2.97649
538.345
0.755067
0.660022
0.610551
0.582425
0.564753
0.55282
0.54428
0.537956
0.533083
0.529277
0.526195
0.523704
0.521613
0.519876
0.518382
0.517126
0.516017
0.515076
0.514225
0.513499
0.51283
0.512256
0.511722
0.511269
0.510836
0.510468
0.510114
0.509821
0.509529
0.509281
0.509045
0.508855
0.508658
0.508498
0.508338
0.508219
0.508076
0.507968
0.50786
0.507781
0.507702
0.507648
0.507564
0.507512
0.50747
0.507437
0.507368
0.507351
0.507341
0.507324
0.507276
0.507347
0.507347
0.507347
0.507392
0.507392
0.507475
0.507609
0.507701
0.507865
0.507883
0.507883
0.507967
0.508089
0.508285
0.50844
0.508532
0.508659
0.508862
0.509025
0.509217
0.509441
0.509632
0.509853
0.510065
0.510313
0.510551
0.510885
0.51113
0.511537
0.511816
0.512287
0.512601
0.513174
0.513528
0.514247
0.514668
0.515566
0.516101
0.517268
0.51792
0.519968
0.520466
0.528672
2.99176
534.637
0.755065
0.659942
0.610399
0.582221
0.564513
0.552554
0.543995
0.537656
0.532772
0.528957
0.525868
0.52337
0.521275
0.519533
0.518036
0.516777
0.515665
0.514721
0.513868
0.513141
0.51247
0.511895
0.511359
0.510905
0.51047
0.510101
0.509747
0.509453
0.50916
0.508911
0.508675
0.508484
0.508287
0.508126
0.507966
0.507846
0.507702
0.507595
0.507486
0.507406
0.507327
0.507273
0.507189
0.507136
0.507095
0.507061
0.506992
0.506975
0.506965
0.506948
0.5069
0.50697
0.50697
0.50697
0.507014
0.507014
0.507098
0.507232
0.507324
0.507487
0.507505
0.507505
0.50759
0.507711
0.507907
0.508062
0.508154
0.508281
0.508483
0.508647
0.508839
0.509063
0.509254
0.509475
0.509686
0.509935
0.510172
0.510506
0.510751
0.511158
0.511437
0.511908
0.512221
0.512794
0.513148
0.513866
0.514287
0.515184
0.515718
0.516884
0.517535
0.519582
0.520075
0.528335
3.01296
531.474
0.755063
0.659838
0.610201
0.581957
0.564202
0.552209
0.543625
0.537268
0.532368
0.528541
0.525443
0.522938
0.520836
0.519088
0.517586
0.516323
0.515208
0.514261
0.513405
0.512675
0.512003
0.511425
0.510888
0.510432
0.509997
0.509626
0.50927
0.508976
0.508681
0.508432
0.508194
0.508003
0.507805
0.507644
0.507483
0.507362
0.507218
0.50711
0.507001
0.506921
0.506841
0.506787
0.506702
0.50665
0.506608
0.506574
0.506505
0.506487
0.506477
0.50646
0.506411
0.506481
0.506481
0.506481
0.506525
0.506525
0.506608
0.506742
0.506834
0.506997
0.507015
0.507015
0.5071
0.507221
0.507416
0.507572
0.507664
0.507791
0.507993
0.508156
0.508348
0.508572
0.508763
0.508984
0.509195
0.509444
0.509681
0.510015
0.51026
0.510666
0.510945
0.511416
0.511728
0.512301
0.512654
0.513372
0.513792
0.514689
0.515222
0.516387
0.517036
0.519081
0.519567
0.527896
3.04051
529.018
0.75506
0.659711
0.609959
0.581631
0.563818
0.551784
0.54317
0.536789
0.531871
0.52803
0.52492
0.522405
0.520295
0.518541
0.517033
0.515765
0.514645
0.513694
0.512835
0.512102
0.511427
0.510847
0.510308
0.50985
0.509412
0.509041
0.508683
0.508387
0.508092
0.507841
0.507603
0.50741
0.507211
0.507049
0.506888
0.506766
0.506622
0.506513
0.506404
0.506323
0.506242
0.506188
0.506103
0.50605
0.506007
0.505974
0.505905
0.505886
0.505876
0.505858
0.505809
0.505879
0.505879
0.505878
0.505922
0.505922
0.506005
0.506139
0.50623
0.506393
0.506411
0.506411
0.506496
0.506617
0.506812
0.506967
0.50706
0.507187
0.507388
0.507552
0.507743
0.507967
0.508158
0.508379
0.50859
0.508839
0.509076
0.509409
0.509654
0.51006
0.510338
0.510809
0.511121
0.511693
0.512046
0.512763
0.513183
0.514078
0.51461
0.515773
0.51642
0.518463
0.518942
0.527355
3.07484
527.325
0.755057
0.65956
0.609671
0.581244
0.563362
0.551279
0.542628
0.536219
0.53128
0.527421
0.524297
0.52177
0.51965
0.517888
0.516373
0.515099
0.513974
0.513019
0.512156
0.511419
0.510741
0.510158
0.509616
0.509156
0.508717
0.508343
0.507983
0.507686
0.507389
0.507137
0.506897
0.506704
0.506504
0.506341
0.506178
0.506056
0.505911
0.505802
0.505691
0.50561
0.505529
0.505474
0.505388
0.505335
0.505292
0.505258
0.505189
0.50517
0.505159
0.505142
0.505092
0.505161
0.505161
0.50516
0.505204
0.505204
0.505286
0.50542
0.50551
0.505673
0.505692
0.505692
0.505777
0.505897
0.506091
0.506247
0.50634
0.506467
0.506668
0.506831
0.507022
0.507246
0.507437
0.507658
0.507869
0.508118
0.508354
0.508687
0.508931
0.509337
0.509615
0.510086
0.510397
0.510969
0.511321
0.512037
0.512456
0.513349
0.513881
0.515041
0.515687
0.517727
0.518197
0.526711
3.11634
526.381
0.755054
0.659386
0.609337
0.580795
0.562832
0.550692
0.541998
0.535556
0.530592
0.526713
0.523573
0.521032
0.518901
0.51713
0.515606
0.514326
0.513194
0.512234
0.511366
0.510625
0.509943
0.509357
0.508812
0.50835
0.507907
0.507531
0.50717
0.506871
0.506572
0.506319
0.506077
0.505882
0.505681
0.505517
0.505353
0.50523
0.505084
0.504974
0.504863
0.504781
0.504699
0.504644
0.504558
0.504504
0.50446
0.504426
0.504356
0.504337
0.504326
0.504308
0.504258
0.504325
0.504325
0.504325
0.504368
0.504368
0.50445
0.504583
0.504673
0.504836
0.504855
0.504855
0.50494
0.50506
0.505253
0.50541
0.505503
0.505629
0.50583
0.505994
0.506184
0.506408
0.506599
0.50682
0.50703
0.507279
0.507514
0.507848
0.508091
0.508497
0.508774
0.509244
0.509555
0.510126
0.510478
0.511193
0.511611
0.512502
0.513032
0.51419
0.514834
0.516871
0.51733
0.525963
3.16541
526.119
0.75505
0.659188
0.608957
0.580283
0.562229
0.550022
0.541279
0.5348
0.529807
0.525905
0.522746
0.52019
0.518046
0.516263
0.514731
0.513442
0.512304
0.511337
0.510463
0.509718
0.509032
0.508442
0.507893
0.507428
0.506983
0.506604
0.506241
0.505939
0.505639
0.505384
0.50514
0.504944
0.504741
0.504576
0.504411
0.504287
0.50414
0.504029
0.503917
0.503834
0.503751
0.503695
0.503608
0.503554
0.50351
0.503476
0.503405
0.503386
0.503374
0.503356
0.503305
0.503371
0.503371
0.503371
0.503413
0.503413
0.503495
0.503628
0.503717
0.503879
0.503899
0.503899
0.503984
0.504103
0.504296
0.504453
0.504547
0.504673
0.504872
0.505036
0.505226
0.50545
0.505641
0.505862
0.506071
0.506321
0.506555
0.506888
0.507131
0.507537
0.507813
0.508283
0.508593
0.509164
0.509514
0.510228
0.510645
0.511534
0.512063
0.513218
0.513859
0.515892
0.516341
0.525111
3.22242
526.438
0.755047
0.658967
0.608531
0.579709
0.56155
0.549269
0.54047
0.53395
0.528923
0.524995
0.521815
0.519241
0.517083
0.515288
0.513745
0.512447
0.511301
0.510327
0.509448
0.508697
0.508006
0.507412
0.506859
0.50639
0.505942
0.505561
0.505194
0.50489
0.504588
0.50433
0.504085
0.503887
0.503683
0.503516
0.50335
0.503224
0.503076
0.502964
0.502851
0.502767
0.502683
0.502627
0.50254
0.502484
0.502439
0.502405
0.502334
0.502314
0.502302
0.502283
0.502231
0.502297
0.502297
0.502296
0.502338
0.502338
0.502419
0.502552
0.50264
0.502802
0.502822
0.502822
0.502907
0.503026
0.503218
0.503375
0.503469
0.503595
0.503794
0.503958
0.504147
0.504371
0.504562
0.504782
0.504992
0.505241
0.505475
0.505808
0.50605
0.506455
0.506731
0.5072
0.507509
0.508079
0.508429
0.509141
0.509557
0.510444
0.510971
0.512123
0.51276
0.51479
0.515226
0.524152
3.2877
527.214
0.755044
0.658722
0.608059
0.579071
0.560796
0.548431
0.539571
0.533004
0.52794
0.523983
0.520779
0.518186
0.516011
0.514202
0.512647
0.511339
0.510184
0.509203
0.508317
0.50756
0.506863
0.506265
0.505708
0.505235
0.504783
0.504398
0.504029
0.503723
0.503417
0.503158
0.50291
0.502711
0.502505
0.502336
0.502168
0.502041
0.501892
0.501778
0.501664
0.501579
0.501495
0.501437
0.501349
0.501293
0.501247
0.501213
0.501142
0.501121
0.501108
0.501089
0.501036
0.5011
0.5011
0.5011
0.50114
0.50114
0.501221
0.501354
0.50144
0.501602
0.501623
0.501623
0.501708
0.501826
0.502017
0.502174
0.502269
0.502395
0.502593
0.502757
0.502946
0.503169
0.50336
0.50358
0.503789
0.504039
0.504271
0.504604
0.504846
0.50525
0.505526
0.505994
0.506302
0.506872
0.50722
0.50793
0.508346
0.509229
0.509755
0.510903
0.511537
0.513563
0.513984
0.523086
3.36154
528.304
0.755042
0.658455
0.607541
0.578371
0.559967
0.54751
0.538581
0.531961
0.526857
0.522867
0.519637
0.517022
0.514829
0.513005
0.511437
0.510118
0.508953
0.507963
0.507069
0.506306
0.505603
0.504999
0.504437
0.50396
0.503505
0.503116
0.502744
0.502434
0.502126
0.501864
0.501614
0.501413
0.501205
0.501034
0.500864
0.500736
0.500585
0.500471
0.500355
0.500269
0.500183
0.500125
0.500036
0.499979
0.499932
0.499897
0.499826
0.499804
0.499791
0.499771
0.499717
0.49978
0.49978
0.49978
0.499819
0.499819
0.4999
0.500031
0.500117
0.500279
0.5003
0.5003
0.500385
0.500503
0.500692
0.50085
0.500946
0.501071
0.501268
0.501432
0.50162
0.501843
0.502033
0.502254
0.502463
0.502712
0.502944
0.503276
0.503517
0.503921
0.504195
0.504664
0.504971
0.505539
0.505886
0.506595
0.507009
0.507889
0.508413
0.509557
0.510188
0.512209
0.512614
0.521912
3.44416
529.561
0.75504
0.658166
0.606977
0.577606
0.559062
0.546503
0.537499
0.530822
0.525673
0.521647
0.518387
0.515749
0.513536
0.511695
0.510113
0.508781
0.507606
0.506606
0.505704
0.504934
0.504224
0.503615
0.503047
0.502565
0.502105
0.501713
0.501337
0.501024
0.500713
0.500449
0.500196
0.499992
0.499781
0.499609
0.499437
0.499307
0.499155
0.499039
0.498922
0.498835
0.498747
0.498688
0.498599
0.498541
0.498493
0.498457
0.498385
0.498363
0.498349
0.498329
0.498274
0.498335
0.498335
0.498334
0.498373
0.498373
0.498453
0.498584
0.498668
0.498829
0.498851
0.498851
0.498936
0.499053
0.499242
0.4994
0.499496
0.499621
0.499817
0.499982
0.500168
0.500391
0.500582
0.500802
0.50101
0.50126
0.50149
0.501823
0.502062
0.502465
0.502739
0.503207
0.503512
0.50408
0.504426
0.505132
0.505545
0.506422
0.506943
0.508083
0.50871
0.510726
0.511114
0.520628
3.53569
530.837
0.755039
0.657854
0.606367
0.576779
0.55808
0.54541
0.536324
0.529584
0.524386
0.520321
0.51703
0.514366
0.512131
0.510272
0.508674
0.507328
0.506141
0.505131
0.50422
0.503442
0.502725
0.502109
0.501536
0.501049
0.500584
0.500188
0.499807
0.499491
0.499177
0.498909
0.498654
0.498447
0.498234
0.49806
0.497886
0.497754
0.4976
0.497482
0.497364
0.497275
0.497186
0.497126
0.497035
0.496977
0.496928
0.496891
0.496819
0.496796
0.496781
0.49676
0.496704
0.496764
0.496764
0.496763
0.4968
0.4968
0.49688
0.49701
0.497093
0.497254
0.497276
0.497276
0.497361
0.497477
0.497664
0.497823
0.49792
0.498044
0.498239
0.498404
0.49859
0.498813
0.499002
0.499223
0.49943
0.49968
0.499909
0.500241
0.50048
0.500882
0.501155
0.501622
0.501926
0.502493
0.502837
0.503541
0.503953
0.504826
0.505345
0.50648
0.507103
0.509114
0.509484
0.519233
3.6362
531.988
0.755039
0.657521
0.605712
0.575887
0.557022
0.544232
0.535056
0.528248
0.522997
0.518889
0.515564
0.512871
0.510612
0.508733
0.507118
0.505758
0.504558
0.503537
0.502616
0.501829
0.501104
0.500482
0.499902
0.499409
0.498939
0.498538
0.498154
0.497834
0.497516
0.497245
0.496986
0.496777
0.496561
0.496384
0.496208
0.496074
0.495919
0.495799
0.495679
0.495589
0.495498
0.495437
0.495345
0.495286
0.495235
0.495198
0.495126
0.495101
0.495085
0.495064
0.495006
0.495065
0.495065
0.495063
0.495099
0.495099
0.495178
0.495308
0.495389
0.49555
0.495573
0.495573
0.495658
0.495773
0.495959
0.496118
0.496216
0.496339
0.496533
0.496698
0.496883
0.497105
0.497295
0.497515
0.497722
0.497972
0.498199
0.498531
0.498769
0.49917
0.499442
0.499908
0.500211
0.500776
0.501119
0.501821
0.502231
0.5031
0.503617
0.504746
0.505364
0.50737
0.507721
0.517726
3.74561
532.88
0.75504
0.657167
0.605012
0.574933
0.555887
0.542967
0.533695
0.526813
0.521504
0.517351
0.513988
0.511264
0.50898
0.507079
0.505446
0.50407
0.502856
0.501823
0.500891
0.500094
0.499361
0.498731
0.498145
0.497646
0.49717
0.496765
0.496375
0.496051
0.495729
0.495455
0.495193
0.49498
0.494762
0.494582
0.494404
0.494267
0.49411
0.493989
0.493867
0.493775
0.493683
0.49362
0.493527
0.493466
0.493414
0.493377
0.493303
0.493278
0.493261
0.49324
0.49318
0.493237
0.493237
0.493235
0.49327
0.49327
0.493348
0.493477
0.493556
0.493716
0.49374
0.49374
0.493825
0.49394
0.494124
0.494283
0.494382
0.494505
0.494697
0.494862
0.495046
0.495268
0.495457
0.495678
0.495884
0.496133
0.496359
0.496691
0.496927
0.497328
0.497598
0.498064
0.498365
0.498929
0.499271
0.499969
0.500377
0.501242
0.501757
0.502881
0.503494
0.505494
0.505824
0.516105
3.86372
533.392
0.755042
0.656791
0.604268
0.573916
0.554676
0.541616
0.532239
0.525278
0.519907
0.515704
0.512301
0.509545
0.507233
0.505309
0.503655
0.502262
0.501033
0.499987
0.499044
0.498237
0.497495
0.496857
0.496263
0.495758
0.495276
0.494865
0.49447
0.494141
0.493815
0.493538
0.493272
0.493056
0.492835
0.492653
0.492471
0.492332
0.492173
0.49205
0.491925
0.491832
0.491738
0.491674
0.49158
0.491518
0.491464
0.491426
0.491352
0.491325
0.491307
0.491285
0.491225
0.491279
0.491279
0.491277
0.49131
0.49131
0.491388
0.491515
0.491593
0.491752
0.491777
0.491777
0.491862
0.491976
0.492158
0.492317
0.492417
0.49254
0.49273
0.492896
0.493078
0.4933
0.493489
0.493709
0.493914
0.494164
0.494388
0.49472
0.494955
0.495355
0.495623
0.496088
0.496388
0.49695
0.49729
0.497986
0.498392
0.499252
0.499764
0.500882
0.50149
0.503484
0.503792
0.514367
3.99015
533.414
0.755046
0.656396
0.60348
0.572836
0.553388
0.540178
0.53069
0.523644
0.518206
0.51395
0.510504
0.507712
0.50537
0.503421
0.501746
0.500335
0.49909
0.49803
0.497074
0.496257
0.495505
0.494858
0.494256
0.493744
0.493256
0.492839
0.492439
0.492105
0.491774
0.491492
0.491223
0.491003
0.490779
0.490594
0.490409
0.490268
0.490106
0.489981
0.489854
0.489759
0.489663
0.489597
0.489502
0.489439
0.489384
0.489345
0.48927
0.489242
0.489223
0.4892
0.489138
0.48919
0.48919
0.489188
0.48922
0.489219
0.489296
0.489423
0.489498
0.489657
0.489682
0.489682
0.489767
0.48988
0.49006
0.49022
0.490321
0.490443
0.490632
0.490798
0.490979
0.4912
0.491388
0.491609
0.491813
0.492062
0.492285
0.492616
0.49285
0.493248
0.493516
0.49398
0.494278
0.494839
0.495176
0.495869
0.496273
0.497129
0.497637
0.498749
0.499352
0.501339
0.501624
0.512512
4.12435
532.86
0.755051
0.655981
0.602648
0.571693
0.552024
0.538654
0.529047
0.521909
0.5164
0.512087
0.508595
0.505765
0.503391
0.501416
0.499718
0.498287
0.497025
0.49595
0.494981
0.494152
0.493389
0.492733
0.492123
0.491603
0.491108
0.490685
0.490279
0.48994
0.489605
0.489319
0.489044
0.488821
0.488593
0.488405
0.488217
0.488074
0.487909
0.487782
0.487653
0.487556
0.487457
0.48739
0.487293
0.487228
0.487172
0.487132
0.487056
0.487027
0.487007
0.486983
0.48692
0.486969
0.486969
0.486967
0.486997
0.486996
0.487072
0.487197
0.487271
0.487429
0.487455
0.487455
0.48754
0.487652
0.48783
0.48799
0.488092
0.488213
0.488401
0.488567
0.488746
0.488967
0.489155
0.489375
0.489578
0.489828
0.490048
0.490379
0.490611
0.491009
0.491275
0.491737
0.492033
0.492593
0.492928
0.493617
0.49402
0.49487
0.495375
0.496481
0.497077
0.499058
0.499319
0.510537
4.26555
531.641
0.755058
0.655548
0.601774
0.570489
0.550585
0.537043
0.527309
0.520074
0.514489
0.510116
0.506574
0.503703
0.501296
0.499292
0.49757
0.496118
0.494837
0.493746
0.492763
0.491922
0.491148
0.490482
0.489863
0.489335
0.488833
0.488403
0.487991
0.487646
0.487306
0.487015
0.486736
0.486509
0.486277
0.486086
0.485895
0.485748
0.485581
0.485451
0.48532
0.48522
0.48512
0.485051
0.484953
0.484886
0.484828
0.484787
0.48471
0.48468
0.484658
0.484634
0.484568
0.484616
0.484616
0.484613
0.484641
0.48464
0.484715
0.484839
0.48491
0.485067
0.485094
0.485094
0.485179
0.48529
0.485466
0.485626
0.485729
0.48585
0.486036
0.486202
0.48638
0.4866
0.486787
0.487007
0.487209
0.487459
0.487677
0.488007
0.488238
0.488634
0.488899
0.48936
0.489654
0.490212
0.490545
0.491231
0.491631
0.492476
0.492978
0.494076
0.494666
0.496639
0.496877
0.50844
4.41276
529.697
0.755068
0.655096
0.600858
0.569224
0.54907
0.535347
0.525477
0.518139
0.512473
0.508035
0.504441
0.501528
0.499084
0.49705
0.495301
0.493827
0.492527
0.491419
0.490421
0.489566
0.488781
0.488105
0.487476
0.486939
0.486429
0.485992
0.485573
0.485223
0.484877
0.484581
0.484298
0.484066
0.483831
0.483636
0.483441
0.483291
0.483121
0.482989
0.482855
0.482753
0.48265
0.482579
0.48248
0.482411
0.482351
0.482309
0.482231
0.482199
0.482176
0.482151
0.482084
0.482129
0.482129
0.482125
0.482152
0.48215
0.482224
0.482347
0.482416
0.482572
0.4826
0.4826
0.482684
0.482794
0.482968
0.483128
0.483232
0.483352
0.483536
0.483702
0.483879
0.484098
0.484285
0.484504
0.484705
0.484955
0.485172
0.4855
0.48573
0.486125
0.486387
0.486848
0.487139
0.487695
0.488026
0.488708
0.489106
0.489945
0.490443
0.491534
0.492118
0.494083
0.494296
0.506218
4.5647
526.978
0.75508
0.654627
0.599902
0.567899
0.54748
0.533565
0.523552
0.516104
0.510353
0.505846
0.502196
0.499237
0.496755
0.494689
0.492912
0.491414
0.490094
0.488968
0.487954
0.487085
0.486287
0.4856
0.484961
0.484415
0.483896
0.483452
0.483026
0.482669
0.482318
0.482017
0.481728
0.481492
0.481252
0.481054
0.480855
0.480702
0.480529
0.480394
0.480257
0.480153
0.480047
0.479974
0.479873
0.479803
0.47974
0.479697
0.479619
0.479585
0.47956
0.479535
0.479466
0.479508
0.479508
0.479504
0.479529
0.479526
0.479599
0.47972
0.479786
0.479941
0.47997
0.47997
0.480055
0.480163
0.480335
0.480495
0.4806
0.48072
0.480901
0.481067
0.481242
0.481461
0.481647
0.481866
0.482065
0.482315
0.48253
0.482858
0.483085
0.483479
0.48374
0.484199
0.484488
0.485041
0.485371
0.486048
0.486443
0.487276
0.487771
0.488854
0.489431
0.491387
0.491575
0.503868
4.71984
523.446
0.755095
0.654142
0.598905
0.566515
0.545817
0.531699
0.521534
0.51397
0.508127
0.503548
0.499839
0.496831
0.494309
0.492209
0.490403
0.48888
0.487537
0.486392
0.485361
0.484478
0.483666
0.482967
0.482317
0.481762
0.481234
0.480782
0.480349
0.479986
0.479628
0.479322
0.479027
0.478787
0.478542
0.478339
0.478137
0.47798
0.477804
0.477666
0.477526
0.477419
0.477311
0.477236
0.477133
0.477061
0.476996
0.476952
0.476872
0.476837
0.47681
0.476784
0.476714
0.476752
0.476752
0.476748
0.476771
0.476767
0.476839
0.476959
0.477022
0.477176
0.477205
0.477205
0.47729
0.477397
0.477566
0.477727
0.477832
0.477951
0.478131
0.478297
0.47847
0.478688
0.478873
0.479092
0.47929
0.47954
0.479752
0.480079
0.480305
0.480697
0.480955
0.481413
0.4817
0.482251
0.482578
0.48325
0.483643
0.48447
0.48496
0.486036
0.486606
0.488552
0.488715
0.501388
4.87634
519.072
0.755112
0.653642
0.597871
0.565073
0.54408
0.529748
0.519422
0.511736
0.505797
0.501141
0.49737
0.494311
0.491746
0.489609
0.487773
0.486223
0.484857
0.483692
0.482643
0.481744
0.480919
0.480207
0.479546
0.47898
0.478443
0.477983
0.477542
0.477171
0.476807
0.476495
0.476195
0.475949
0.4757
0.475493
0.475286
0.475126
0.474946
0.474805
0.474662
0.474553
0.474441
0.474364
0.474259
0.474185
0.474117
0.474072
0.473991
0.473954
0.473926
0.473899
0.473826
0.473862
0.473862
0.473857
0.473878
0.473873
0.473944
0.474062
0.474122
0.474274
0.474305
0.474305
0.474389
0.474495
0.474662
0.474822
0.474928
0.475047
0.475224
0.47539
0.475561
0.475778
0.475962
0.476181
0.476378
0.476627
0.476837
0.477163
0.477387
0.477777
0.478034
0.478489
0.478774
0.479322
0.479647
0.480315
0.480705
0.481525
0.482011
0.483078
0.48364
0.485577
0.485715
0.498774
5.03206
513.834
0.755133
0.653127
0.596798
0.563573
0.542272
0.527713
0.517219
0.509403
0.503363
0.498626
0.494789
0.491676
0.489066
0.486891
0.485022
0.483444
0.482054
0.480868
0.4798
0.478884
0.478044
0.477319
0.476645
0.476069
0.475522
0.475053
0.474604
0.474226
0.473855
0.473537
0.473231
0.472979
0.472725
0.472514
0.472303
0.472138
0.471955
0.471811
0.471664
0.471552
0.471437
0.471358
0.47125
0.471174
0.471104
0.471058
0.470975
0.470937
0.470906
0.470878
0.470804
0.470836
0.470836
0.47083
0.470849
0.470843
0.470913
0.471029
0.471086
0.471237
0.471268
0.471269
0.471353
0.471457
0.471621
0.471781
0.471888
0.472006
0.472181
0.472347
0.472516
0.472732
0.472915
0.473134
0.473328
0.473578
0.473785
0.47411
0.474332
0.474721
0.474975
0.475428
0.475711
0.476256
0.476578
0.477241
0.477628
0.478441
0.478923
0.479981
0.480536
0.482461
0.482574
0.496023
5.18457
507.717
0.755156
0.652599
0.59569
0.562018
0.540392
0.525596
0.514924
0.506972
0.500825
0.496003
0.492097
0.488927
0.486269
0.484054
0.482151
0.480543
0.479127
0.477919
0.476831
0.475898
0.475042
0.474303
0.473617
0.473029
0.472472
0.471994
0.471536
0.47115
0.470772
0.470447
0.470135
0.469878
0.469618
0.469402
0.469186
0.469018
0.468831
0.468683
0.468533
0.468417
0.4683
0.468217
0.468108
0.46803
0.467957
0.467909
0.467825
0.467784
0.467752
0.467723
0.467647
0.467676
0.467676
0.467669
0.467686
0.467678
0.467747
0.467861
0.467915
0.468064
0.468096
0.468096
0.46818
0.468283
0.468444
0.468604
0.468711
0.468829
0.469001
0.469167
0.469335
0.469549
0.469731
0.469949
0.470142
0.470391
0.470596
0.47092
0.471139
0.471526
0.471778
0.47223
0.472509
0.473051
0.47337
0.474028
0.474412
0.475218
0.475696
0.476744
0.477291
0.479205
0.479293
0.493131
5.33111
500.705
0.755184
0.652059
0.594547
0.560408
0.538442
0.523398
0.51254
0.504444
0.498185
0.493274
0.489295
0.486064
0.483356
0.481099
0.479159
0.477521
0.476078
0.474846
0.473737
0.472786
0.471913
0.47116
0.470461
0.469861
0.469293
0.468805
0.468338
0.467944
0.467558
0.467226
0.466907
0.466644
0.466379
0.466158
0.465937
0.465764
0.465574
0.465422
0.465268
0.465149
0.465028
0.464943
0.464831
0.464751
0.464675
0.464625
0.46454
0.464497
0.464463
0.464433
0.464356
0.464381
0.46438
0.464372
0.464387
0.464377
0.464445
0.464557
0.464607
0.464755
0.464788
0.464788
0.464872
0.464973
0.465131
0.46529
0.465398
0.465516
0.465685
0.465851
0.466016
0.46623
0.46641
0.466627
0.466819
0.467068
0.46727
0.467592
0.467809
0.468194
0.468443
0.468893
0.46917
0.469708
0.470025
0.470677
0.471058
0.471856
0.472329
0.473367
0.473906
0.475807
0.475871
0.490093
5.46867
492.785
0.755214
0.651508
0.593371
0.558746
0.536425
0.52112
0.510065
0.50182
0.495443
0.490437
0.486382
0.483089
0.480328
0.478027
0.476049
0.474378
0.472906
0.471649
0.470519
0.469548
0.468659
0.46789
0.467176
0.466564
0.465985
0.465486
0.46501
0.464607
0.464213
0.463874
0.463548
0.463279
0.463008
0.462782
0.462556
0.462378
0.462183
0.462028
0.46187
0.461748
0.461623
0.461535
0.461421
0.461338
0.461259
0.461207
0.461121
0.461076
0.461039
0.461008
0.460929
0.460951
0.46095
0.460941
0.460953
0.460942
0.461008
0.461117
0.461165
0.46131
0.461343
0.461344
0.461427
0.461527
0.461682
0.46184
0.461949
0.462066
0.462233
0.462398
0.462561
0.462773
0.462952
0.463169
0.463358
0.463607
0.463806
0.464127
0.464342
0.464724
0.464971
0.465418
0.465692
0.466227
0.46654
0.467187
0.467564
0.468355
0.468822
0.469851
0.470381
0.472268
0.472309
0.486907
5.594
483.943
0.755249
0.650947
0.592164
0.557033
0.534341
0.518763
0.507504
0.499101
0.4926
0.487496
0.483361
0.480001
0.477185
0.474838
0.47282
0.471114
0.469613
0.46833
0.467177
0.466185
0.465278
0.464493
0.463765
0.46314
0.462548
0.462039
0.461553
0.461141
0.460738
0.460392
0.460059
0.459783
0.459506
0.459274
0.459042
0.45886
0.458661
0.458501
0.458339
0.458214
0.458085
0.457994
0.457877
0.457791
0.45771
0.457656
0.457568
0.45752
0.457481
0.457449
0.457369
0.457386
0.457385
0.457375
0.457385
0.457371
0.457436
0.457542
0.457586
0.45773
0.457764
0.457764
0.457847
0.457945
0.458097
0.458254
0.458364
0.45848
0.458644
0.458808
0.458969
0.45918
0.459357
0.459574
0.459761
0.460009
0.460206
0.460525
0.460737
0.461117
0.461361
0.461805
0.462076
0.462608
0.462918
0.463558
0.463932
0.464715
0.465177
0.466195
0.466717
0.468588
0.468607
0.483567
5.70365
474.163
0.755288
0.650378
0.590927
0.55527
0.532192
0.516329
0.504855
0.496288
0.489658
0.484451
0.480231
0.476802
0.473929
0.471532
0.469473
0.467731
0.466199
0.464889
0.463711
0.462699
0.461772
0.460971
0.460227
0.459588
0.458984
0.458464
0.457967
0.457545
0.457134
0.45678
0.456439
0.456156
0.455872
0.455635
0.455398
0.45521
0.455007
0.454843
0.454677
0.454547
0.454414
0.45432
0.4542
0.454112
0.454027
0.453971
0.453881
0.453831
0.45379
0.453757
0.453675
0.453688
0.453687
0.453675
0.453682
0.453666
0.45373
0.453833
0.453873
0.454015
0.454049
0.454049
0.454132
0.454229
0.454377
0.454533
0.454643
0.454759
0.45492
0.455084
0.455242
0.455451
0.455627
0.455843
0.456028
0.456275
0.456469
0.456786
0.456996
0.457373
0.457614
0.458055
0.458323
0.458851
0.459158
0.459792
0.460162
0.460936
0.461392
0.4624
0.462912
0.464767
0.464765
0.480069
5.79408
463.429
0.755331
0.649801
0.589663
0.553461
0.529979
0.513819
0.502122
0.493383
0.486618
0.481302
0.476995
0.473494
0.47056
0.468112
0.466009
0.46423
0.462665
0.461326
0.460124
0.459089
0.458143
0.457324
0.456564
0.455911
0.455294
0.454761
0.454253
0.453822
0.453402
0.453039
0.45269
0.4524
0.452109
0.451866
0.451623
0.45143
0.451221
0.451053
0.450882
0.450749
0.450612
0.450514
0.450391
0.4503
0.450212
0.450154
0.450062
0.45001
0.449965
0.449931
0.449848
0.449857
0.449855
0.449842
0.449846
0.449828
0.44989
0.44999
0.450026
0.450166
0.4502
0.4502
0.450283
0.450377
0.450522
0.450677
0.450788
0.450903
0.451061
0.451224
0.45138
0.451587
0.451761
0.451976
0.452158
0.452405
0.452596
0.452911
0.453118
0.453492
0.453731
0.454169
0.454434
0.454957
0.45526
0.455888
0.456254
0.457019
0.45747
0.458466
0.45897
0.460806
0.460784
0.476409
5.86169
451.722
0.755378
0.649218
0.588372
0.551606
0.527706
0.511237
0.499306
0.490387
0.483481
0.478053
0.473653
0.470076
0.467079
0.464579
0.46243
0.460612
0.459012
0.457644
0.456415
0.455358
0.45439
0.453553
0.452776
0.452108
0.451477
0.450933
0.450413
0.449971
0.449541
0.44917
0.448813
0.448515
0.448217
0.447968
0.447718
0.44752
0.447306
0.447133
0.446958
0.44682
0.446679
0.446577
0.446451
0.446357
0.446265
0.446205
0.446111
0.446056
0.446009
0.445973
0.445889
0.445894
0.445891
0.445877
0.445878
0.445857
0.445917
0.446013
0.446046
0.446183
0.446218
0.446218
0.4463
0.446393
0.446534
0.446688
0.446798
0.446913
0.447067
0.447229
0.447383
0.447588
0.44776
0.447974
0.448154
0.4484
0.448588
0.448901
0.449105
0.449476
0.449711
0.450146
0.450408
0.450926
0.451227
0.451847
0.452209
0.452965
0.45341
0.454394
0.454889
0.456707
0.456664
0.472581
5.90294
439.027
0.75543
0.648631
0.587058
0.549708
0.525374
0.508583
0.49641
0.487303
0.48025
0.474703
0.470208
0.466552
0.463489
0.460933
0.458736
0.456878
0.455242
0.453843
0.452587
0.451505
0.450516
0.449659
0.448866
0.448182
0.447536
0.446979
0.446447
0.445994
0.445555
0.445175
0.444808
0.444503
0.444198
0.443941
0.443685
0.443481
0.443262
0.443084
0.442904
0.442762
0.442616
0.442511
0.442381
0.442284
0.442189
0.442125
0.442029
0.441972
0.441922
0.441885
0.441799
0.441801
0.441796
0.441781
0.441779
0.441754
0.441813
0.441905
0.441934
0.442068
0.442103
0.442103
0.442185
0.442275
0.442413
0.442565
0.442675
0.44279
0.442941
0.443102
0.443253
0.443456
0.443626
0.443839
0.444016
0.444261
0.444446
0.444756
0.444958
0.445326
0.445558
0.445989
0.446247
0.44676
0.447057
0.44767
0.448028
0.448775
0.449214
0.450185
0.450671
0.45247
0.452408
0.468582
5.91462
425.33
0.755486
0.648041
0.585723
0.54777
0.522986
0.50586
0.493434
0.484133
0.476926
0.471256
0.466662
0.462923
0.459791
0.457177
0.454931
0.453029
0.451357
0.449925
0.44864
0.447533
0.446522
0.445645
0.444833
0.444133
0.443472