/*--------------------------------*- C++ -*----------------------------------*\
| =========                 |                                                 |
| \\      /  F ield         | OpenFOAM: The Open Source CFD Toolbox           |
|  \\    /   O peration     | Version:  v2012                                 |
|   \\  /    A nd           | Website:  www.openfoam.com                      |
|    \\/     M anipulation  |                                                 |
\*---------------------------------------------------------------------------*/
FoamFile
{
    version     2.0;
    format      ascii;
    class       volVectorField;
    location    "23.5";
    object      wallShearStress;
}
// * * * * * * * * * * * * * * * * * * * * * * * * * * * * * * * * * * * * * //

dimensions      [0 2 -2 0 0 0 0];


internalField   uniform (0 0 0);

boundaryField
{
    inlet
    {
        type            calculated;
        value           uniform (0 0 0);
    }
    outlet
    {
        type            calculated;
        value           uniform (0 0 0);
    }
    topWall
    {
        type            calculated;
        value           nonuniform List<vector> 
545
(
(5.3543e-08 -3.76582e-08 0)
(5.35968e-08 -1.05525e-07 0)
(5.35174e-08 -1.76039e-07 0)
(5.34221e-08 -2.44436e-07 0)
(5.33398e-08 -3.09878e-07 0)
(5.32449e-08 -3.7321e-07 0)
(5.31379e-08 -4.34973e-07 0)
(5.30196e-08 -4.95138e-07 0)
(5.28908e-08 -5.53572e-07 0)
(5.27524e-08 -6.1027e-07 0)
(5.26054e-08 -6.65309e-07 0)
(5.24507e-08 -7.18752e-07 0)
(5.22889e-08 -7.70635e-07 0)
(5.21209e-08 -8.20991e-07 0)
(5.19474e-08 -8.69855e-07 0)
(5.17691e-08 -9.1727e-07 0)
(5.15865e-08 -9.63273e-07 0)
(5.14002e-08 -1.0079e-06 0)
(5.12109e-08 -1.0512e-06 0)
(5.1019e-08 -1.09319e-06 0)
(5.08249e-08 -1.13393e-06 0)
(5.06292e-08 -1.17344e-06 0)
(5.04322e-08 -1.21175e-06 0)
(5.02343e-08 -1.24891e-06 0)
(5.00358e-08 -1.28495e-06 0)
(4.98371e-08 -1.3199e-06 0)
(4.96385e-08 -1.35379e-06 0)
(4.94402e-08 -1.38666e-06 0)
(4.92426e-08 -1.41853e-06 0)
(4.90457e-08 -1.44944e-06 0)
(4.88499e-08 -1.47941e-06 0)
(4.86553e-08 -1.50847e-06 0)
(4.84622e-08 -1.53666e-06 0)
(4.82706e-08 -1.56399e-06 0)
(4.80807e-08 -1.5905e-06 0)
(4.78926e-08 -1.61621e-06 0)
(4.77065e-08 -1.64114e-06 0)
(4.75224e-08 -1.66532e-06 0)
(4.73405e-08 -1.68878e-06 0)
(4.71608e-08 -1.71152e-06 0)
(4.69834e-08 -1.73359e-06 0)
(4.68084e-08 -1.75499e-06 0)
(4.66358e-08 -1.77575e-06 0)
(4.64656e-08 -1.79589e-06 0)
(4.62979e-08 -1.81542e-06 0)
(4.61327e-08 -1.83437e-06 0)
(4.597e-08 -1.85276e-06 0)
(4.58099e-08 -1.8706e-06 0)
(4.56523e-08 -1.88791e-06 0)
(4.54973e-08 -1.90471e-06 0)
(4.53449e-08 -1.921e-06 0)
(4.5195e-08 -1.93682e-06 0)
(4.50476e-08 -1.95216e-06 0)
(4.49028e-08 -1.96706e-06 0)
(4.47605e-08 -1.98151e-06 0)
(4.46207e-08 -1.99554e-06 0)
(4.44834e-08 -2.00916e-06 0)
(4.43485e-08 -2.02238e-06 0)
(4.42161e-08 -2.03521e-06 0)
(4.4086e-08 -2.04766e-06 0)
(4.39583e-08 -2.05975e-06 0)
(4.38329e-08 -2.07149e-06 0)
(4.37098e-08 -2.08289e-06 0)
(4.35889e-08 -2.09395e-06 0)
(4.34703e-08 -2.1047e-06 0)
(4.33538e-08 -2.11513e-06 0)
(4.32394e-08 -2.12526e-06 0)
(4.31272e-08 -2.1351e-06 0)
(4.3017e-08 -2.14465e-06 0)
(4.29086e-08 -2.15392e-06 0)
(4.28034e-08 -2.16295e-06 0)
(4.26939e-08 -2.17169e-06 0)
(4.25902e-08 -2.18006e-06 0)
(4.2499e-08 -2.18823e-06 0)
(4.24074e-08 -2.19629e-06 0)
(4.2316e-08 -2.20428e-06 0)
(4.22247e-08 -2.21225e-06 0)
(4.21335e-08 -2.22017e-06 0)
(4.20424e-08 -2.22803e-06 0)
(4.19514e-08 -2.23583e-06 0)
(4.18606e-08 -2.24358e-06 0)
(4.17698e-08 -2.25128e-06 0)
(4.16792e-08 -2.25893e-06 0)
(4.15886e-08 -2.26652e-06 0)
(4.14983e-08 -2.27407e-06 0)
(4.1408e-08 -2.28156e-06 0)
(4.13179e-08 -2.28901e-06 0)
(4.12279e-08 -2.2964e-06 0)
(4.1138e-08 -2.30374e-06 0)
(4.10483e-08 -2.31104e-06 0)
(4.09588e-08 -2.31828e-06 0)
(4.08692e-08 -2.32548e-06 0)
(4.07805e-08 -2.33265e-06 0)
(4.06894e-08 -2.33967e-06 0)
(4.06098e-08 -2.34683e-06 0)
(4.04782e-08 -2.35381e-06 0)
(4.03416e-08 -2.35992e-06 0)
(4.02685e-08 -2.36581e-06 0)
(4.01972e-08 -2.3715e-06 0)
(4.01262e-08 -2.37698e-06 0)
(4.00555e-08 -2.38263e-06 0)
(3.99845e-08 -2.38832e-06 0)
(3.99133e-08 -2.39399e-06 0)
(3.98417e-08 -2.39965e-06 0)
(3.97698e-08 -2.40531e-06 0)
(3.96976e-08 -2.41097e-06 0)
(3.9625e-08 -2.41664e-06 0)
(3.95522e-08 -2.42232e-06 0)
(3.9479e-08 -2.42799e-06 0)
(3.94055e-08 -2.43367e-06 0)
(3.93317e-08 -2.43935e-06 0)
(3.92576e-08 -2.44504e-06 0)
(3.91832e-08 -2.45072e-06 0)
(3.91084e-08 -2.45641e-06 0)
(3.90334e-08 -2.46211e-06 0)
(3.8958e-08 -2.4678e-06 0)
(3.88822e-08 -2.4735e-06 0)
(3.88062e-08 -2.4792e-06 0)
(3.87298e-08 -2.4849e-06 0)
(3.86532e-08 -2.4906e-06 0)
(3.85762e-08 -2.49631e-06 0)
(3.84988e-08 -2.50201e-06 0)
(3.84212e-08 -2.50772e-06 0)
(3.83432e-08 -2.51343e-06 0)
(3.82649e-08 -2.51915e-06 0)
(3.81862e-08 -2.52486e-06 0)
(3.81073e-08 -2.53058e-06 0)
(3.8028e-08 -2.5363e-06 0)
(3.79484e-08 -2.54202e-06 0)
(3.78684e-08 -2.54774e-06 0)
(3.77881e-08 -2.55346e-06 0)
(3.77075e-08 -2.55918e-06 0)
(3.76266e-08 -2.56491e-06 0)
(3.75453e-08 -2.57064e-06 0)
(3.74637e-08 -2.57636e-06 0)
(3.73817e-08 -2.58209e-06 0)
(3.72995e-08 -2.58782e-06 0)
(3.72169e-08 -2.59355e-06 0)
(3.71339e-08 -2.59928e-06 0)
(3.70507e-08 -2.60501e-06 0)
(3.69671e-08 -2.61074e-06 0)
(3.68831e-08 -2.61648e-06 0)
(3.67988e-08 -2.62221e-06 0)
(3.67142e-08 -2.62794e-06 0)
(3.66293e-08 -2.63368e-06 0)
(3.6544e-08 -2.63941e-06 0)
(3.64584e-08 -2.64514e-06 0)
(3.63725e-08 -2.65088e-06 0)
(3.62862e-08 -2.65661e-06 0)
(3.61996e-08 -2.66235e-06 0)
(3.61126e-08 -2.66808e-06 0)
(3.60253e-08 -2.67381e-06 0)
(3.59377e-08 -2.67954e-06 0)
(3.58497e-08 -2.68528e-06 0)
(3.57614e-08 -2.69101e-06 0)
(3.56728e-08 -2.69674e-06 0)
(3.55838e-08 -2.70247e-06 0)
(3.54945e-08 -2.7082e-06 0)
(3.54049e-08 -2.71393e-06 0)
(3.53149e-08 -2.71965e-06 0)
(3.52246e-08 -2.72538e-06 0)
(3.51339e-08 -2.7311e-06 0)
(3.50429e-08 -2.73683e-06 0)
(3.49516e-08 -2.74255e-06 0)
(3.48599e-08 -2.74827e-06 0)
(3.47679e-08 -2.75399e-06 0)
(3.46756e-08 -2.75971e-06 0)
(3.45829e-08 -2.76542e-06 0)
(3.44899e-08 -2.77113e-06 0)
(3.43966e-08 -2.77685e-06 0)
(3.43029e-08 -2.78256e-06 0)
(3.42089e-08 -2.78826e-06 0)
(3.41145e-08 -2.79397e-06 0)
(3.40198e-08 -2.79967e-06 0)
(3.39248e-08 -2.80537e-06 0)
(3.38294e-08 -2.81107e-06 0)
(3.37337e-08 -2.81676e-06 0)
(3.36377e-08 -2.82246e-06 0)
(3.35413e-08 -2.82815e-06 0)
(3.34446e-08 -2.83383e-06 0)
(3.33475e-08 -2.83952e-06 0)
(3.32502e-08 -2.8452e-06 0)
(3.31524e-08 -2.85087e-06 0)
(3.30544e-08 -2.85655e-06 0)
(3.2956e-08 -2.86222e-06 0)
(3.28573e-08 -2.86788e-06 0)
(3.27582e-08 -2.87354e-06 0)
(3.26588e-08 -2.8792e-06 0)
(3.25591e-08 -2.88486e-06 0)
(3.2459e-08 -2.89051e-06 0)
(3.23586e-08 -2.89615e-06 0)
(3.22579e-08 -2.9018e-06 0)
(3.21568e-08 -2.90744e-06 0)
(3.20554e-08 -2.91307e-06 0)
(3.19537e-08 -2.9187e-06 0)
(3.18517e-08 -2.92432e-06 0)
(3.17493e-08 -2.92994e-06 0)
(3.16466e-08 -2.93556e-06 0)
(3.15435e-08 -2.94117e-06 0)
(3.14401e-08 -2.94677e-06 0)
(3.13364e-08 -2.95237e-06 0)
(3.12324e-08 -2.95796e-06 0)
(3.1128e-08 -2.96355e-06 0)
(3.10233e-08 -2.96913e-06 0)
(3.09183e-08 -2.97471e-06 0)
(3.08129e-08 -2.98028e-06 0)
(3.07072e-08 -2.98585e-06 0)
(3.06012e-08 -2.9914e-06 0)
(3.04949e-08 -2.99696e-06 0)
(3.03882e-08 -3.0025e-06 0)
(3.02812e-08 -3.00804e-06 0)
(3.01739e-08 -3.01358e-06 0)
(3.00663e-08 -3.0191e-06 0)
(2.99584e-08 -3.02462e-06 0)
(2.98501e-08 -3.03014e-06 0)
(2.97415e-08 -3.03564e-06 0)
(2.96326e-08 -3.04114e-06 0)
(2.95234e-08 -3.04663e-06 0)
(2.94138e-08 -3.05212e-06 0)
(2.93039e-08 -3.05759e-06 0)
(2.91938e-08 -3.06306e-06 0)
(2.90833e-08 -3.06852e-06 0)
(2.89725e-08 -3.07398e-06 0)
(2.88613e-08 -3.07942e-06 0)
(2.87499e-08 -3.08486e-06 0)
(2.86382e-08 -3.09029e-06 0)
(2.85261e-08 -3.09571e-06 0)
(2.84137e-08 -3.10112e-06 0)
(2.83011e-08 -3.10652e-06 0)
(2.81881e-08 -3.11191e-06 0)
(2.80748e-08 -3.1173e-06 0)
(2.79612e-08 -3.12268e-06 0)
(2.78473e-08 -3.12804e-06 0)
(2.77331e-08 -3.1334e-06 0)
(2.76186e-08 -3.13875e-06 0)
(2.75038e-08 -3.14409e-06 0)
(2.73888e-08 -3.14941e-06 0)
(2.72734e-08 -3.15473e-06 0)
(2.71577e-08 -3.16004e-06 0)
(2.70417e-08 -3.16534e-06 0)
(2.69255e-08 -3.17063e-06 0)
(2.68089e-08 -3.17591e-06 0)
(2.66921e-08 -3.18117e-06 0)
(2.65749e-08 -3.18643e-06 0)
(2.64575e-08 -3.19168e-06 0)
(2.63398e-08 -3.19691e-06 0)
(2.62218e-08 -3.20213e-06 0)
(2.61036e-08 -3.20735e-06 0)
(2.5985e-08 -3.21255e-06 0)
(2.58662e-08 -3.21774e-06 0)
(2.57471e-08 -3.22291e-06 0)
(2.56278e-08 -3.22808e-06 0)
(2.55081e-08 -3.23323e-06 0)
(2.53882e-08 -3.23838e-06 0)
(2.5268e-08 -3.24351e-06 0)
(2.51476e-08 -3.24862e-06 0)
(2.50269e-08 -3.25373e-06 0)
(2.49059e-08 -3.25882e-06 0)
(2.47847e-08 -3.2639e-06 0)
(2.46632e-08 -3.26897e-06 0)
(2.45415e-08 -3.27402e-06 0)
(2.44195e-08 -3.27906e-06 0)
(2.42972e-08 -3.28409e-06 0)
(2.41748e-08 -3.2891e-06 0)
(2.40519e-08 -3.2941e-06 0)
(2.39293e-08 -3.2991e-06 0)
(2.38049e-08 -3.30402e-06 0)
(2.36879e-08 -3.3091e-06 0)
(2.35402e-08 -3.31396e-06 0)
(2.33843e-08 -3.31843e-06 0)
(2.32691e-08 -3.32306e-06 0)
(2.31616e-08 -3.3275e-06 0)
(2.30531e-08 -3.3318e-06 0)
(2.29439e-08 -3.33625e-06 0)
(2.28336e-08 -3.34075e-06 0)
(2.2722e-08 -3.34528e-06 0)
(2.26092e-08 -3.34981e-06 0)
(2.24951e-08 -3.35437e-06 0)
(2.23797e-08 -3.35896e-06 0)
(2.2263e-08 -3.36358e-06 0)
(2.2145e-08 -3.36822e-06 0)
(2.20257e-08 -3.37289e-06 0)
(2.19051e-08 -3.37758e-06 0)
(2.17832e-08 -3.38229e-06 0)
(2.166e-08 -3.38703e-06 0)
(2.15355e-08 -3.3918e-06 0)
(2.14096e-08 -3.39659e-06 0)
(2.12823e-08 -3.4014e-06 0)
(2.11537e-08 -3.40624e-06 0)
(2.10238e-08 -3.4111e-06 0)
(2.08925e-08 -3.41598e-06 0)
(2.07598e-08 -3.42088e-06 0)
(2.06257e-08 -3.4258e-06 0)
(2.04902e-08 -3.43075e-06 0)
(2.03533e-08 -3.43571e-06 0)
(2.0215e-08 -3.4407e-06 0)
(2.00754e-08 -3.4457e-06 0)
(1.99342e-08 -3.45073e-06 0)
(1.97917e-08 -3.45577e-06 0)
(1.96477e-08 -3.46083e-06 0)
(1.95023e-08 -3.46591e-06 0)
(1.93555e-08 -3.47101e-06 0)
(1.92072e-08 -3.47612e-06 0)
(1.90574e-08 -3.48124e-06 0)
(1.89062e-08 -3.48639e-06 0)
(1.87536e-08 -3.49154e-06 0)
(1.85994e-08 -3.49671e-06 0)
(1.84438e-08 -3.50189e-06 0)
(1.82867e-08 -3.50709e-06 0)
(1.81281e-08 -3.51229e-06 0)
(1.79681e-08 -3.51751e-06 0)
(1.78065e-08 -3.52274e-06 0)
(1.76435e-08 -3.52797e-06 0)
(1.74789e-08 -3.53321e-06 0)
(1.73129e-08 -3.53846e-06 0)
(1.71454e-08 -3.54372e-06 0)
(1.69764e-08 -3.54898e-06 0)
(1.68059e-08 -3.55424e-06 0)
(1.66339e-08 -3.55951e-06 0)
(1.64604e-08 -3.56478e-06 0)
(1.62854e-08 -3.57005e-06 0)
(1.61089e-08 -3.57532e-06 0)
(1.59309e-08 -3.58059e-06 0)
(1.57515e-08 -3.58586e-06 0)
(1.55705e-08 -3.59112e-06 0)
(1.53881e-08 -3.59638e-06 0)
(1.52042e-08 -3.60164e-06 0)
(1.50189e-08 -3.60689e-06 0)
(1.4832e-08 -3.61212e-06 0)
(1.46437e-08 -3.61735e-06 0)
(1.4454e-08 -3.62257e-06 0)
(1.42628e-08 -3.62777e-06 0)
(1.40702e-08 -3.63296e-06 0)
(1.38762e-08 -3.63814e-06 0)
(1.36807e-08 -3.6433e-06 0)
(1.34838e-08 -3.64844e-06 0)
(1.32856e-08 -3.65356e-06 0)
(1.3086e-08 -3.65866e-06 0)
(1.2885e-08 -3.66373e-06 0)
(1.26826e-08 -3.66879e-06 0)
(1.24789e-08 -3.67381e-06 0)
(1.22739e-08 -3.67881e-06 0)
(1.20676e-08 -3.68378e-06 0)
(1.186e-08 -3.68871e-06 0)
(1.16511e-08 -3.69361e-06 0)
(1.1441e-08 -3.69848e-06 0)
(1.12297e-08 -3.70331e-06 0)
(1.10172e-08 -3.7081e-06 0)
(1.08035e-08 -3.71285e-06 0)
(1.05886e-08 -3.71756e-06 0)
(1.03726e-08 -3.72222e-06 0)
(1.01555e-08 -3.72683e-06 0)
(9.93733e-09 -3.7314e-06 0)
(9.71811e-09 -3.73592e-06 0)
(9.49787e-09 -3.74037e-06 0)
(9.27665e-09 -3.74478e-06 0)
(9.05447e-09 -3.74913e-06 0)
(8.83138e-09 -3.75342e-06 0)
(8.6074e-09 -3.75764e-06 0)
(8.38258e-09 -3.76181e-06 0)
(8.15694e-09 -3.7659e-06 0)
(7.93054e-09 -3.76993e-06 0)
(7.7034e-09 -3.77388e-06 0)
(7.47558e-09 -3.77777e-06 0)
(7.2471e-09 -3.78157e-06 0)
(7.01803e-09 -3.7853e-06 0)
(6.78839e-09 -3.78894e-06 0)
(6.55826e-09 -3.7925e-06 0)
(6.32765e-09 -3.79598e-06 0)
(6.09664e-09 -3.79937e-06 0)
(5.86525e-09 -3.80266e-06 0)
(5.63357e-09 -3.80586e-06 0)
(5.40162e-09 -3.80897e-06 0)
(5.16948e-09 -3.81198e-06 0)
(4.93719e-09 -3.81488e-06 0)
(4.70482e-09 -3.81768e-06 0)
(4.47241e-09 -3.82037e-06 0)
(4.24005e-09 -3.82296e-06 0)
(4.00776e-09 -3.82543e-06 0)
(3.77565e-09 -3.82779e-06 0)
(3.54374e-09 -3.83003e-06 0)
(3.31213e-09 -3.83215e-06 0)
(3.08086e-09 -3.83415e-06 0)
(2.85002e-09 -3.83602e-06 0)
(2.61966e-09 -3.83776e-06 0)
(2.38986e-09 -3.83938e-06 0)
(2.16069e-09 -3.84086e-06 0)
(1.93222e-09 -3.8422e-06 0)
(1.70452e-09 -3.8434e-06 0)
(1.47767e-09 -3.84447e-06 0)
(1.25174e-09 -3.84539e-06 0)
(1.02681e-09 -3.84616e-06 0)
(8.02942e-10 -3.84678e-06 0)
(5.8023e-10 -3.84726e-06 0)
(3.58743e-10 -3.84757e-06 0)
(1.38562e-10 -3.84774e-06 0)
(-8.02352e-11 -3.84774e-06 0)
(-2.97569e-10 -3.84758e-06 0)
(-5.13359e-10 -3.84725e-06 0)
(-7.27525e-10 -3.84677e-06 0)
(-9.39985e-10 -3.84611e-06 0)
(-1.15066e-09 -3.84528e-06 0)
(-1.35947e-09 -3.84427e-06 0)
(-1.56632e-09 -3.8431e-06 0)
(-1.77114e-09 -3.84174e-06 0)
(-1.97385e-09 -3.84021e-06 0)
(-2.17436e-09 -3.83849e-06 0)
(-2.37259e-09 -3.8366e-06 0)
(-2.56844e-09 -3.83451e-06 0)
(-2.76186e-09 -3.83225e-06 0)
(-2.95273e-09 -3.82978e-06 0)
(-3.141e-09 -3.82714e-06 0)
(-3.32656e-09 -3.82429e-06 0)
(-3.50935e-09 -3.82126e-06 0)
(-3.68926e-09 -3.81803e-06 0)
(-3.86624e-09 -3.81461e-06 0)
(-4.04018e-09 -3.81099e-06 0)
(-4.21102e-09 -3.80717e-06 0)
(-4.37867e-09 -3.80315e-06 0)
(-4.54306e-09 -3.79894e-06 0)
(-4.70411e-09 -3.79451e-06 0)
(-4.86175e-09 -3.7899e-06 0)
(-5.0159e-09 -3.78508e-06 0)
(-5.16651e-09 -3.78006e-06 0)
(-5.31348e-09 -3.77483e-06 0)
(-5.45679e-09 -3.76941e-06 0)
(-5.59633e-09 -3.76378e-06 0)
(-5.73209e-09 -3.75795e-06 0)
(-5.86398e-09 -3.75191e-06 0)
(-5.99198e-09 -3.74569e-06 0)
(-6.116e-09 -3.73924e-06 0)
(-6.23605e-09 -3.73262e-06 0)
(-6.35204e-09 -3.72577e-06 0)
(-6.46398e-09 -3.71875e-06 0)
(-6.57177e-09 -3.71151e-06 0)
(-6.67546e-09 -3.70409e-06 0)
(-6.77495e-09 -3.69646e-06 0)
(-6.87027e-09 -3.68865e-06 0)
(-6.96133e-09 -3.68063e-06 0)
(-7.04819e-09 -3.67244e-06 0)
(-7.13074e-09 -3.66405e-06 0)
(-7.20904e-09 -3.65548e-06 0)
(-7.28298e-09 -3.64671e-06 0)
(-7.35262e-09 -3.63778e-06 0)
(-7.41785e-09 -3.62864e-06 0)
(-7.47868e-09 -3.61936e-06 0)
(-7.53513e-09 -3.60985e-06 0)
(-7.58674e-09 -3.60028e-06 0)
(-7.63735e-09 -3.59028e-06 0)
(-7.67707e-09 -3.58038e-06 0)
(-7.70275e-09 -3.56935e-06 0)
(-7.7357e-09 -3.55664e-06 0)
(-7.77207e-09 -3.54401e-06 0)
(-7.80063e-09 -3.5315e-06 0)
(-7.82328e-09 -3.51883e-06 0)
(-7.84019e-09 -3.50614e-06 0)
(-7.85137e-09 -3.4934e-06 0)
(-7.85712e-09 -3.48069e-06 0)
(-7.85755e-09 -3.46795e-06 0)
(-7.85298e-09 -3.45523e-06 0)
(-7.84349e-09 -3.4425e-06 0)
(-7.82943e-09 -3.42982e-06 0)
(-7.81086e-09 -3.41713e-06 0)
(-7.78811e-09 -3.40451e-06 0)
(-7.76124e-09 -3.3919e-06 0)
(-7.73056e-09 -3.37936e-06 0)
(-7.69612e-09 -3.36685e-06 0)
(-7.65822e-09 -3.35443e-06 0)
(-7.61689e-09 -3.34204e-06 0)
(-7.57241e-09 -3.32975e-06 0)
(-7.52479e-09 -3.31751e-06 0)
(-7.47431e-09 -3.30537e-06 0)
(-7.42096e-09 -3.2933e-06 0)
(-7.365e-09 -3.28133e-06 0)
(-7.30641e-09 -3.26944e-06 0)
(-7.24543e-09 -3.25766e-06 0)
(-7.18204e-09 -3.24596e-06 0)
(-7.11646e-09 -3.2344e-06 0)
(-7.04866e-09 -3.22291e-06 0)
(-6.97885e-09 -3.21156e-06 0)
(-6.907e-09 -3.2003e-06 0)
(-6.8333e-09 -3.18919e-06 0)
(-6.75771e-09 -3.17817e-06 0)
(-6.68041e-09 -3.1673e-06 0)
(-6.60137e-09 -3.15653e-06 0)
(-6.52076e-09 -3.14591e-06 0)
(-6.43853e-09 -3.1354e-06 0)
(-6.35485e-09 -3.12505e-06 0)
(-6.26966e-09 -3.11482e-06 0)
(-6.18313e-09 -3.10474e-06 0)
(-6.0952e-09 -3.09479e-06 0)
(-6.00602e-09 -3.085e-06 0)
(-5.91554e-09 -3.07533e-06 0)
(-5.82389e-09 -3.06584e-06 0)
(-5.73103e-09 -3.05647e-06 0)
(-5.63708e-09 -3.04727e-06 0)
(-5.54199e-09 -3.03821e-06 0)
(-5.44588e-09 -3.02932e-06 0)
(-5.3487e-09 -3.02057e-06 0)
(-5.25056e-09 -3.012e-06 0)
(-5.1514e-09 -3.00356e-06 0)
(-5.05133e-09 -2.99531e-06 0)
(-4.95031e-09 -2.9872e-06 0)
(-4.84842e-09 -2.97927e-06 0)
(-4.74562e-09 -2.97149e-06 0)
(-4.64199e-09 -2.9639e-06 0)
(-4.5375e-09 -2.95646e-06 0)
(-4.43222e-09 -2.9492e-06 0)
(-4.3261e-09 -2.9421e-06 0)
(-4.21924e-09 -2.93519e-06 0)
(-4.11158e-09 -2.92843e-06 0)
(-4.0032e-09 -2.92187e-06 0)
(-3.89406e-09 -2.91546e-06 0)
(-3.78423e-09 -2.90925e-06 0)
(-3.67368e-09 -2.9032e-06 0)
(-3.56247e-09 -2.89735e-06 0)
(-3.45057e-09 -2.89166e-06 0)
(-3.33805e-09 -2.88617e-06 0)
(-3.22487e-09 -2.88084e-06 0)
(-3.11109e-09 -2.87571e-06 0)
(-2.9967e-09 -2.87076e-06 0)
(-2.88175e-09 -2.866e-06 0)
(-2.76621e-09 -2.86142e-06 0)
(-2.65013e-09 -2.85703e-06 0)
(-2.5335e-09 -2.85282e-06 0)
(-2.41636e-09 -2.84882e-06 0)
(-2.29869e-09 -2.84499e-06 0)
(-2.18054e-09 -2.84136e-06 0)
(-2.06189e-09 -2.83792e-06 0)
(-1.94277e-09 -2.83467e-06 0)
(-1.82318e-09 -2.83161e-06 0)
(-1.70314e-09 -2.82875e-06 0)
(-1.58266e-09 -2.82608e-06 0)
(-1.46177e-09 -2.82362e-06 0)
(-1.34051e-09 -2.82133e-06 0)
(-1.21895e-09 -2.81927e-06 0)
(-1.09718e-09 -2.81733e-06 0)
(-9.75375e-10 -2.81585e-06 0)
(-8.53623e-10 -2.8137e-06 0)
(-7.32559e-10 -2.81455e-06 0)
(-6.10836e-10 -2.80615e-06 0)
(-4.93618e-10 -2.82807e-06 0)
(-3.60529e-10 -2.74274e-06 0)
(-2.81934e-10 -2.96748e-06 0)
(-1.40366e-10 -2.59146e-06 0)
)
;
    }
    bottomWall
    {
        type            calculated;
        value           nonuniform List<vector> 
449
(
(-52.8696 -0.957542 0)
(-34.8508 -0.0028083 0)
(-34.4472 -0.000258381 0)
(-33.0731 -0.00036638 0)
(-31.9388 -0.000317694 0)
(-30.894 -0.000286612 0)
(-29.9689 -0.000251123 0)
(-29.1645 -0.000218356 0)
(-28.4618 -0.000191428 0)
(-27.8402 -0.000169968 0)
(-27.2832 -0.000152398 0)
(-26.781 -0.000137464 0)
(-26.3257 -0.000124599 0)
(-25.9112 -0.000113477 0)
(-25.5319 -0.000103847 0)
(-25.1832 -9.54966e-05 0)
(-24.8608 -8.82983e-05 0)
(-24.5612 -8.20629e-05 0)
(-24.2814 -7.66378e-05 0)
(-24.0189 -7.1904e-05 0)
(-23.7713 -6.77055e-05 0)
(-23.5374 -6.39681e-05 0)
(-23.3154 -6.06121e-05 0)
(-23.1043 -5.75708e-05 0)
(-22.9031 -5.48134e-05 0)
(-22.7109 -5.22934e-05 0)
(-22.5268 -4.99689e-05 0)
(-22.3505 -4.78324e-05 0)
(-22.181 -4.58478e-05 0)
(-22.0183 -4.39962e-05 0)
(-21.8615 -4.22763e-05 0)
(-21.7105 -4.06771e-05 0)
(-21.5646 -3.91772e-05 0)
(-21.4239 -3.77752e-05 0)
(-21.2877 -3.64467e-05 0)
(-21.1561 -3.52007e-05 0)
(-21.0284 -3.40313e-05 0)
(-20.9049 -3.29284e-05 0)
(-20.7848 -3.18854e-05 0)
(-20.6684 -3.08927e-05 0)
(-20.5551 -2.99493e-05 0)
(-20.4453 -2.90496e-05 0)
(-20.3382 -2.81838e-05 0)
(-20.2343 -2.7352e-05 0)
(-20.133 -2.6557e-05 0)
(-20.0346 -2.57935e-05 0)
(-19.9385 -2.50643e-05 0)
(-19.8452 -2.43622e-05 0)
(-19.754 -2.36933e-05 0)
(-19.6654 -2.30526e-05 0)
(-19.5786 -2.24442e-05 0)
(-19.4942 -2.18588e-05 0)
(-19.4116 -2.12923e-05 0)
(-19.3311 -2.07567e-05 0)
(-19.2522 -2.02439e-05 0)
(-19.1752 -1.97534e-05 0)
(-19.0997 -1.92776e-05 0)
(-19.0262 -1.88229e-05 0)
(-18.9538 -1.83879e-05 0)
(-18.8833 -1.79682e-05 0)
(-18.8139 -1.75657e-05 0)
(-18.7462 -1.71768e-05 0)
(-18.6795 -1.67997e-05 0)
(-18.6144 -1.64403e-05 0)
(-18.5503 -1.60956e-05 0)
(-18.4876 -1.57603e-05 0)
(-18.4258 -1.54305e-05 0)
(-18.3655 -1.51153e-05 0)
(-18.3059 -1.48091e-05 0)
(-18.2477 -1.45108e-05 0)
(-18.1902 -1.42189e-05 0)
(-18.1341 -1.39408e-05 0)
(-18.0786 -1.36761e-05 0)
(-18.0243 -1.34118e-05 0)
(-17.9706 -1.31575e-05 0)
(-17.9182 -1.29077e-05 0)
(-17.8663 -1.26667e-05 0)
(-17.8155 -1.24306e-05 0)
(-17.7653 -1.22042e-05 0)
(-17.7162 -1.19871e-05 0)
(-17.6675 -1.17782e-05 0)
(-17.6198 -1.15695e-05 0)
(-17.5727 -1.13653e-05 0)
(-17.5264 -1.11625e-05 0)
(-17.4807 -1.09704e-05 0)
(-17.4359 -1.07803e-05 0)
(-17.3915 -1.06079e-05 0)
(-17.3479 -1.04298e-05 0)
(-17.3048 -1.0254e-05 0)
(-17.2624 -1.00802e-05 0)
(-17.2206 -9.91347e-06 0)
(-17.1794 -9.7532e-06 0)
(-17.1388 -9.60077e-06 0)
(-17.0987 -9.44696e-06 0)
(-17.0591 -9.30153e-06 0)
(-17.0201 -9.15803e-06 0)
(-16.9815 -9.01798e-06 0)
(-16.9435 -8.87494e-06 0)
(-16.906 -8.73902e-06 0)
(-16.8689 -8.60352e-06 0)
(-16.8324 -8.47824e-06 0)
(-16.7963 -8.35039e-06 0)
(-16.7607 -8.2279e-06 0)
(-16.7254 -8.10627e-06 0)
(-16.6907 -7.99405e-06 0)
(-16.6562 -7.87632e-06 0)
(-16.6224 -7.76765e-06 0)
(-16.5887 -7.65533e-06 0)
(-16.5557 -7.54442e-06 0)
(-16.5228 -7.43755e-06 0)
(-16.4906 -7.32944e-06 0)
(-16.4585 -7.23045e-06 0)
(-16.427 -7.13284e-06 0)
(-16.3956 -7.03941e-06 0)
(-16.3648 -6.94678e-06 0)
(-16.3341 -6.85978e-06 0)
(-16.3039 -6.76924e-06 0)
(-16.2739 -6.67633e-06 0)
(-16.2443 -6.58507e-06 0)
(-16.215 -6.50301e-06 0)
(-16.186 -6.41686e-06 0)
(-16.1573 -6.32996e-06 0)
(-16.1291 -6.24677e-06 0)
(-16.101 -6.16667e-06 0)
(-16.0733 -6.08946e-06 0)
(-16.0457 -6.01535e-06 0)
(-16.0186 -5.94552e-06 0)
(-15.9916 -5.87428e-06 0)
(-15.9649 -5.80692e-06 0)
(-15.9384 -5.7346e-06 0)
(-15.9123 -5.66397e-06 0)
(-15.8863 -5.59203e-06 0)
(-15.8608 -5.52067e-06 0)
(-15.8353 -5.45514e-06 0)
(-15.8103 -5.39022e-06 0)
(-15.7853 -5.32672e-06 0)
(-15.7607 -5.2673e-06 0)
(-15.7361 -5.20822e-06 0)
(-15.712 -5.15315e-06 0)
(-15.6879 -5.09675e-06 0)
(-15.6641 -5.04047e-06 0)
(-15.6404 -4.98786e-06 0)
(-15.617 -4.93279e-06 0)
(-15.5937 -4.87909e-06 0)
(-15.5708 -4.82107e-06 0)
(-15.5479 -4.76752e-06 0)
(-15.5254 -4.70811e-06 0)
(-15.503 -4.6544e-06 0)
(-15.4808 -4.60239e-06 0)
(-15.4588 -4.55482e-06 0)
(-15.437 -4.50341e-06 0)
(-15.4154 -4.45519e-06 0)
(-15.394 -4.41135e-06 0)
(-15.3727 -4.36298e-06 0)
(-15.3516 -4.32013e-06 0)
(-15.3306 -4.27713e-06 0)
(-15.3099 -4.23566e-06 0)
(-15.2892 -4.1907e-06 0)
(-15.2688 -4.15052e-06 0)
(-15.2485 -4.10777e-06 0)
(-15.2284 -4.06304e-06 0)
(-15.2084 -4.02174e-06 0)
(-15.1886 -3.9789e-06 0)
(-15.1689 -3.93469e-06 0)
(-15.1495 -3.89731e-06 0)
(-15.1301 -3.86465e-06 0)
(-15.1109 -3.82717e-06 0)
(-15.0918 -3.79019e-06 0)
(-15.0729 -3.75402e-06 0)
(-15.054 -3.71538e-06 0)
(-15.0354 -3.68043e-06 0)
(-15.0168 -3.64227e-06 0)
(-14.9986 -3.61286e-06 0)
(-14.9812 -3.59444e-06 0)
(-14.965 -3.56357e-06 0)
(-14.9486 -3.52726e-06 0)
(-14.9324 -3.4933e-06 0)
(-14.916 -3.45615e-06 0)
(-14.8998 -3.42335e-06 0)
(-14.8833 -3.39479e-06 0)
(-14.867 -3.35937e-06 0)
(-14.8506 -3.32751e-06 0)
(-14.8342 -3.29646e-06 0)
(-14.8177 -3.26352e-06 0)
(-14.8014 -3.23185e-06 0)
(-14.7848 -3.2042e-06 0)
(-14.7684 -3.17842e-06 0)
(-14.7518 -3.15048e-06 0)
(-14.7353 -3.11818e-06 0)
(-14.7186 -3.08345e-06 0)
(-14.7021 -3.05152e-06 0)
(-14.6855 -3.02696e-06 0)
(-14.6689 -2.99199e-06 0)
(-14.6523 -2.96379e-06 0)
(-14.6356 -2.94005e-06 0)
(-14.6189 -2.91632e-06 0)
(-14.6022 -2.88814e-06 0)
(-14.5855 -2.85806e-06 0)
(-14.5687 -2.82884e-06 0)
(-14.552 -2.79898e-06 0)
(-14.5352 -2.77105e-06 0)
(-14.5184 -2.74304e-06 0)
(-14.5017 -2.71303e-06 0)
(-14.4849 -2.68371e-06 0)
(-14.4681 -2.65603e-06 0)
(-14.4513 -2.62814e-06 0)
(-14.4346 -2.5983e-06 0)
(-14.4178 -2.57619e-06 0)
(-14.4009 -2.55262e-06 0)
(-14.3841 -2.53002e-06 0)
(-14.3672 -2.50475e-06 0)
(-14.3504 -2.48275e-06 0)
(-14.3334 -2.46102e-06 0)
(-14.3164 -2.4345e-06 0)
(-14.2995 -2.40574e-06 0)
(-14.2826 -2.37929e-06 0)
(-14.2656 -2.35454e-06 0)
(-14.2487 -2.32986e-06 0)
(-14.2317 -2.30457e-06 0)
(-14.2148 -2.27487e-06 0)
(-14.1979 -2.2509e-06 0)
(-14.181 -2.22348e-06 0)
(-14.1642 -2.20027e-06 0)
(-14.1473 -2.17634e-06 0)
(-14.1304 -2.1515e-06 0)
(-14.1135 -2.13222e-06 0)
(-14.0966 -2.10541e-06 0)
(-14.0798 -2.0802e-06 0)
(-14.0629 -2.06065e-06 0)
(-14.0461 -2.03267e-06 0)
(-14.0293 -2.01174e-06 0)
(-14.0124 -1.98789e-06 0)
(-13.9957 -1.96248e-06 0)
(-13.9789 -1.94234e-06 0)
(-13.9621 -1.92105e-06 0)
(-13.9453 -1.89949e-06 0)
(-13.9285 -1.87752e-06 0)
(-13.9118 -1.86055e-06 0)
(-13.895 -1.84421e-06 0)
(-13.8781 -1.82381e-06 0)
(-13.8613 -1.80442e-06 0)
(-13.8445 -1.78386e-06 0)
(-13.8277 -1.7606e-06 0)
(-13.811 -1.73812e-06 0)
(-13.7943 -1.72004e-06 0)
(-13.7775 -1.69869e-06 0)
(-13.7608 -1.67629e-06 0)
(-13.7441 -1.66032e-06 0)
(-13.7275 -1.6416e-06 0)
(-13.7108 -1.62187e-06 0)
(-13.6941 -1.60168e-06 0)
(-13.6775 -1.58062e-06 0)
(-13.661 -1.56241e-06 0)
(-13.6444 -1.54503e-06 0)
(-13.6278 -1.52602e-06 0)
(-13.6113 -1.50578e-06 0)
(-13.5948 -1.48768e-06 0)
(-13.5783 -1.4727e-06 0)
(-13.5618 -1.45383e-06 0)
(-13.5454 -1.43756e-06 0)
(-13.5289 -1.42095e-06 0)
(-13.5125 -1.40298e-06 0)
(-13.4961 -1.38512e-06 0)
(-13.4798 -1.3688e-06 0)
(-13.4634 -1.35443e-06 0)
(-13.4471 -1.33754e-06 0)
(-13.4307 -1.32417e-06 0)
(-13.4144 -1.3082e-06 0)
(-13.3981 -1.29025e-06 0)
(-13.3818 -1.27226e-06 0)
(-13.3657 -1.25843e-06 0)
(-13.3494 -1.24624e-06 0)
(-13.3332 -1.23425e-06 0)
(-13.3169 -1.21729e-06 0)
(-13.3008 -1.19996e-06 0)
(-13.2846 -1.1882e-06 0)
(-13.2685 -1.17285e-06 0)
(-13.2523 -1.15931e-06 0)
(-13.2362 -1.14739e-06 0)
(-13.2201 -1.13419e-06 0)
(-13.204 -1.121e-06 0)
(-13.1879 -1.10416e-06 0)
(-13.1719 -1.09113e-06 0)
(-13.1559 -1.078e-06 0)
(-13.14 -1.06439e-06 0)
(-13.1239 -1.04921e-06 0)
(-13.1082 -1.03505e-06 0)
(-13.0922 -1.02645e-06 0)
(-13.0764 -1.01506e-06 0)
(-13.0604 -1.00353e-06 0)
(-13.0446 -9.88801e-07 0)
(-13.0288 -9.73246e-07 0)
(-13.0131 -9.62299e-07 0)
(-12.9973 -9.49766e-07 0)
(-12.9817 -9.36072e-07 0)
(-12.9661 -9.267e-07 0)
(-12.9504 -9.15209e-07 0)
(-12.9348 -9.0256e-07 0)
(-12.9193 -8.93434e-07 0)
(-12.9037 -8.79845e-07 0)
(-12.8883 -8.69648e-07 0)
(-12.8727 -8.5847e-07 0)
(-12.8574 -8.42739e-07 0)
(-12.842 -8.29866e-07 0)
(-12.8268 -8.20025e-07 0)
(-12.8115 -8.15296e-07 0)
(-12.7961 -8.05934e-07 0)
(-12.7808 -7.93745e-07 0)
(-12.7656 -7.82359e-07 0)
(-12.7504 -7.70381e-07 0)
(-12.7353 -7.59793e-07 0)
(-12.7202 -7.5104e-07 0)
(-12.7052 -7.38694e-07 0)
(-12.6903 -7.2929e-07 0)
(-12.6753 -7.22348e-07 0)
(-12.6603 -7.14379e-07 0)
(-12.6453 -7.04091e-07 0)
(-12.6305 -6.94137e-07 0)
(-12.6156 -6.85605e-07 0)
(-12.6008 -6.77541e-07 0)
(-12.5859 -6.67774e-07 0)
(-12.5712 -6.57209e-07 0)
(-12.5566 -6.48932e-07 0)
(-12.5419 -6.41657e-07 0)
(-12.5272 -6.32967e-07 0)
(-12.5127 -6.24053e-07 0)
(-12.4981 -6.14685e-07 0)
(-12.4836 -6.06539e-07 0)
(-12.4691 -5.99232e-07 0)
(-12.4547 -5.91555e-07 0)
(-12.4403 -5.81288e-07 0)
(-12.4261 -5.7565e-07 0)
(-12.4116 -5.69538e-07 0)
(-12.3974 -5.59992e-07 0)
(-12.3831 -5.50179e-07 0)
(-12.3691 -5.43856e-07 0)
(-12.3548 -5.40032e-07 0)
(-12.3407 -5.3239e-07 0)
(-12.3265 -5.25099e-07 0)
(-12.3124 -5.18717e-07 0)
(-12.2983 -5.10668e-07 0)
(-12.2844 -5.02937e-07 0)
(-12.2704 -4.9766e-07 0)
(-12.2565 -4.90928e-07 0)
(-12.2425 -4.8484e-07 0)
(-12.2287 -4.78541e-07 0)
(-12.2148 -4.70485e-07 0)
(-12.2011 -4.632e-07 0)
(-12.1874 -4.57322e-07 0)
(-12.1737 -4.49768e-07 0)
(-12.1601 -4.43411e-07 0)
(-12.1466 -4.37937e-07 0)
(-12.1331 -4.31714e-07 0)
(-12.1196 -4.2361e-07 0)
(-12.1048 -4.14343e-07 0)
(-12.0888 -4.06892e-07 0)
(-12.073 -4.01518e-07 0)
(-12.0574 -3.95039e-07 0)
(-12.0421 -3.89248e-07 0)
(-12.027 -3.83701e-07 0)
(-12.0121 -3.78021e-07 0)
(-11.9974 -3.73424e-07 0)
(-11.9829 -3.6828e-07 0)
(-11.9686 -3.61547e-07 0)
(-11.9547 -3.56523e-07 0)
(-11.9408 -3.52441e-07 0)
(-11.9271 -3.48011e-07 0)
(-11.9135 -3.43328e-07 0)
(-11.9003 -3.39305e-07 0)
(-11.887 -3.3358e-07 0)
(-11.8742 -3.29184e-07 0)
(-11.8613 -3.25483e-07 0)
(-11.8487 -3.20587e-07 0)
(-11.8362 -3.17321e-07 0)
(-11.8239 -3.1227e-07 0)
(-11.8118 -3.06139e-07 0)
(-11.8 -3.01189e-07 0)
(-11.7883 -2.9909e-07 0)
(-11.7766 -2.95979e-07 0)
(-11.7651 -2.93599e-07 0)
(-11.7537 -2.88254e-07 0)
(-11.7426 -2.84741e-07 0)
(-11.7314 -2.82271e-07 0)
(-11.7205 -2.77204e-07 0)
(-11.7097 -2.74902e-07 0)
(-11.699 -2.74937e-07 0)
(-11.6882 -2.73897e-07 0)
(-11.6776 -2.69998e-07 0)
(-11.6671 -2.65897e-07 0)
(-11.6568 -2.61109e-07 0)
(-11.6467 -2.56793e-07 0)
(-11.6368 -2.52187e-07 0)
(-11.627 -2.48906e-07 0)
(-11.6173 -2.46112e-07 0)
(-11.6078 -2.42607e-07 0)
(-11.5984 -2.39639e-07 0)
(-11.5891 -2.36303e-07 0)
(-11.5799 -2.33604e-07 0)
(-11.5708 -2.32199e-07 0)
(-11.5618 -2.29299e-07 0)
(-11.5529 -2.27079e-07 0)
(-11.544 -2.24875e-07 0)
(-11.5353 -2.22449e-07 0)
(-11.5266 -2.21051e-07 0)
(-11.518 -2.20411e-07 0)
(-11.5094 -2.18759e-07 0)
(-11.5009 -2.15039e-07 0)
(-11.4926 -2.1401e-07 0)
(-11.4842 -2.10875e-07 0)
(-11.4761 -2.07924e-07 0)
(-11.468 -2.05519e-07 0)
(-11.46 -2.02445e-07 0)
(-11.4521 -2.00765e-07 0)
(-11.4444 -1.99527e-07 0)
(-11.4365 -1.9822e-07 0)
(-11.4289 -1.96313e-07 0)
(-11.4212 -1.94203e-07 0)
(-11.4137 -1.9218e-07 0)
(-11.4062 -1.89769e-07 0)
(-11.3989 -1.86832e-07 0)
(-11.3916 -1.85811e-07 0)
(-11.3843 -1.86006e-07 0)
(-11.3771 -1.83196e-07 0)
(-11.37 -1.80881e-07 0)
(-11.3629 -1.81983e-07 0)
(-11.3558 -1.81256e-07 0)
(-11.3488 -1.80048e-07 0)
(-11.3417 -1.78001e-07 0)
(-11.3349 -1.75392e-07 0)
(-11.328 -1.73379e-07 0)
(-11.3213 -1.71143e-07 0)
(-11.3147 -1.6785e-07 0)
(-11.3082 -1.66651e-07 0)
(-11.3017 -1.63392e-07 0)
(-11.2954 -1.64283e-07 0)
(-11.2888 -1.62734e-07 0)
(-11.2827 -1.62972e-07 0)
(-11.2761 -1.60095e-07 0)
(-11.2702 -1.58114e-07 0)
(-11.2638 -1.56198e-07 0)
(-11.258 -1.54286e-07 0)
(-11.2517 -1.5534e-07 0)
(-11.2459 -1.48222e-07 0)
(-11.2401 -1.59486e-07 0)
(-11.2334 -1.38261e-07 0)
(-11.2294 -1.72781e-07 0)
(-11.2198 -1.18775e-07 0)
(-11.2202 -1.52763e-07 0)
(-11.2077 -1.64344e-07 0)
)
;
    }
    symmetry
    {
        type            symmetryPlane;
    }
    frontAndBack
    {
        type            empty;
    }
}


// ************************************************************************* //
