/*--------------------------------*- C++ -*----------------------------------*\
| =========                 |                                                 |
| \\      /  F ield         | OpenFOAM: The Open Source CFD Toolbox           |
|  \\    /   O peration     | Version:  v2012                                 |
|   \\  /    A nd           | Website:  www.openfoam.com                      |
|    \\/     M anipulation  |                                                 |
\*---------------------------------------------------------------------------*/
FoamFile
{
    version     2.0;
    format      ascii;
    class       volScalarField;
    location    "23.5";
    object      yPlus;
}
// * * * * * * * * * * * * * * * * * * * * * * * * * * * * * * * * * * * * * //

dimensions      [0 0 0 0 0 0 0];


internalField   uniform 0;

boundaryField
{
    inlet
    {
        type            calculated;
        value           uniform 0;
    }
    outlet
    {
        type            calculated;
        value           uniform 0;
    }
    topWall
    {
        type            calculated;
        value           nonuniform List<scalar> 
545
(
0.134295
0.231797
0.297409
0.349551
0.393677
0.432271
0.466729
0.497927
0.526464
0.55277
0.577166
0.599902
0.621176
0.641149
0.659954
0.677703
0.69449
0.710396
0.725494
0.739844
0.753502
0.766516
0.778931
0.790784
0.802113
0.812948
0.823319
0.833253
0.842775
0.851907
0.86067
0.869083
0.877165
0.884933
0.892401
0.899584
0.906496
0.91315
0.919558
0.92573
0.931678
0.937411
0.94294
0.948271
0.953415
0.958379
0.963171
0.967797
0.972264
0.97658
0.980749
0.984778
0.988671
0.992436
0.996076
0.999596
1.003
1.00629
1.00948
1.01257
1.01555
1.01844
1.02124
1.02395
1.02657
1.02911
1.03157
1.03396
1.03627
1.03851
1.04068
1.04278
1.04479
1.04674
1.04867
1.05058
1.05248
1.05436
1.05622
1.05807
1.0599
1.06172
1.06352
1.06531
1.06708
1.06884
1.07058
1.07231
1.07402
1.07572
1.0774
1.07908
1.08073
1.08238
1.08401
1.08562
1.08707
1.08837
1.08967
1.09097
1.09226
1.09356
1.09485
1.09615
1.09744
1.09873
1.10002
1.10131
1.1026
1.10389
1.10518
1.10647
1.10775
1.10904
1.11032
1.11161
1.11289
1.11417
1.11545
1.11673
1.11801
1.11929
1.12056
1.12184
1.12311
1.12439
1.12566
1.12693
1.1282
1.12947
1.13074
1.132
1.13327
1.13453
1.1358
1.13706
1.13832
1.13958
1.14084
1.14209
1.14335
1.1446
1.14586
1.14711
1.14836
1.14961
1.15086
1.1521
1.15335
1.15459
1.15584
1.15708
1.15832
1.15956
1.16079
1.16203
1.16326
1.16449
1.16573
1.16696
1.16818
1.16941
1.17063
1.17186
1.17308
1.1743
1.17552
1.17673
1.17795
1.17916
1.18037
1.18158
1.18279
1.184
1.1852
1.18641
1.18761
1.18881
1.19001
1.1912
1.1924
1.19359
1.19478
1.19597
1.19715
1.19834
1.19952
1.2007
1.20188
1.20306
1.20423
1.2054
1.20657
1.20774
1.20891
1.21007
1.21124
1.2124
1.21355
1.21471
1.21586
1.21701
1.21816
1.21931
1.22046
1.2216
1.22274
1.22388
1.22501
1.22615
1.22728
1.2284
1.22953
1.23065
1.23178
1.23289
1.23401
1.23512
1.23624
1.23734
1.23845
1.23955
1.24066
1.24175
1.24285
1.24394
1.24503
1.24612
1.24721
1.24829
1.24937
1.25045
1.25152
1.25259
1.25366
1.25473
1.25579
1.25685
1.25791
1.25896
1.26001
1.26106
1.26211
1.26315
1.26419
1.26523
1.26626
1.26729
1.26832
1.26934
1.27036
1.27138
1.2724
1.27341
1.27442
1.27542
1.27642
1.27742
1.27842
1.27941
1.2804
1.28138
1.28237
1.28334
1.28432
1.28529
1.28626
1.28722
1.28819
1.28909
1.28994
1.29079
1.29165
1.29252
1.29339
1.29426
1.29514
1.29602
1.29691
1.2978
1.29869
1.29959
1.3005
1.3014
1.30232
1.30323
1.30415
1.30508
1.306
1.30694
1.30787
1.30881
1.30975
1.3107
1.31164
1.3126
1.31355
1.31451
1.31547
1.31643
1.3174
1.31837
1.31934
1.32031
1.32129
1.32226
1.32324
1.32422
1.32521
1.32619
1.32717
1.32816
1.32915
1.33013
1.33112
1.33211
1.3331
1.33409
1.33508
1.33607
1.33705
1.33804
1.33903
1.34001
1.341
1.34198
1.34296
1.34394
1.34491
1.34589
1.34686
1.34783
1.34879
1.34975
1.35071
1.35166
1.35261
1.35356
1.3545
1.35543
1.35636
1.35728
1.3582
1.35911
1.36001
1.36091
1.3618
1.36268
1.36355
1.36442
1.36527
1.36612
1.36696
1.36779
1.3686
1.36941
1.37021
1.37099
1.37176
1.37252
1.37327
1.37401
1.37473
1.37544
1.37613
1.37681
1.37747
1.37812
1.37875
1.37937
1.37997
1.38055
1.38111
1.38166
1.38219
1.3827
1.38318
1.38365
1.3841
1.38453
1.38494
1.38532
1.38568
1.38602
1.38634
1.38663
1.3869
1.38714
1.38736
1.38755
1.38772
1.38786
1.38797
1.38806
1.38812
1.38815
1.38815
1.38812
1.38807
1.38798
1.38786
1.38771
1.38753
1.38732
1.38708
1.3868
1.38649
1.38615
1.38578
1.38537
1.38493
1.38445
1.38394
1.38339
1.3828
1.38219
1.38153
1.38084
1.38011
1.37935
1.37855
1.37771
1.37683
1.37592
1.37497
1.37399
1.37296
1.3719
1.3708
1.36966
1.36848
1.36727
1.36602
1.36473
1.3634
1.36204
1.36064
1.3592
1.35773
1.35621
1.35466
1.35308
1.35146
1.3498
1.34811
1.34638
1.34462
1.34282
1.34099
1.33913
1.33702
1.33468
1.33232
1.32995
1.32756
1.32516
1.32276
1.32035
1.31793
1.31551
1.31309
1.31067
1.30824
1.30582
1.3034
1.30099
1.29858
1.29619
1.29379
1.29141
1.28904
1.28668
1.28433
1.28199
1.27967
1.27736
1.27506
1.27279
1.27053
1.26829
1.26607
1.26387
1.26168
1.25952
1.25738
1.25526
1.25317
1.2511
1.24905
1.24703
1.24503
1.24306
1.24111
1.23919
1.23729
1.23543
1.23359
1.23179
1.23001
1.22826
1.22654
1.22485
1.22319
1.22157
1.21998
1.21842
1.21688
1.21539
1.21393
1.2125
1.2111
1.20975
1.20842
1.20713
1.20588
1.20466
1.20348
1.20233
1.20122
1.20015
1.19912
1.19813
1.19717
1.19625
1.19537
1.19453
1.19373
1.19297
1.19224
1.19156
1.19092
1.19032
1.18976
1.18924
1.18876
1.18832
1.18792
1.18757
1.18725
1.18698
1.18675
1.18656
1.18641
1.18632
1.1862
)
;
    }
    bottomWall
    {
        type            calculated;
        value           nonuniform List<scalar> 
449
(
0.0027463
0.00481469
0.00538707
0.00533846
0.00526632
0.00516906
0.00507043
0.00497861
0.00489468
0.00481781
0.00474698
0.00468173
0.00462154
0.00456602
0.00451462
0.00446693
0.00442246
0.00438081
0.0043416
0.00430452
0.00426931
0.00423581
0.00420379
0.00417317
0.00414378
0.00411555
0.00408837
0.00406221
0.00403692
0.00401254
0.00398894
0.00396613
0.00394399
0.00392257
0.00390173
0.00388157
0.0038619
0.00384285
0.00382424
0.00380618
0.00378853
0.00377139
0.00375462
0.00373835
0.00372241
0.00370693
0.00369176
0.00367702
0.00366257
0.00364851
0.00363472
0.00362129
0.0036081
0.00359525
0.00358262
0.00357031
0.00355819
0.00354638
0.00353474
0.00352339
0.00351219
0.00350126
0.00349047
0.00347995
0.00346954
0.00345938
0.00344933
0.00343953
0.00342982
0.00342035
0.00341096
0.00340181
0.00339273
0.00338386
0.00337507
0.00336648
0.00335796
0.00334964
0.00334138
0.00333331
0.00332529
0.00331745
0.00330967
0.00330205
0.0032945
0.0032871
0.00327976
0.00327255
0.00326541
0.0032584
0.00325146
0.00324464
0.00323788
0.00323123
0.00322465
0.00321816
0.00321174
0.00320541
0.00319916
0.00319299
0.0031869
0.00318087
0.00317493
0.00316904
0.00316323
0.00315747
0.00315181
0.00314616
0.00314064
0.00313512
0.00312972
0.00312434
0.00311905
0.00311378
0.00310861
0.00310344
0.00309836
0.00309331
0.00308834
0.0030834
0.00307853
0.00307369
0.00306892
0.00306418
0.00305951
0.00305487
0.00305028
0.00304571
0.00304122
0.00303672
0.00303231
0.00302791
0.00302359
0.00301927
0.00301503
0.00301079
0.00300663
0.00300246
0.00299836
0.00299426
0.00299023
0.00298619
0.00298222
0.00297825
0.00297435
0.00297045
0.00296661
0.00296279
0.00295902
0.00295527
0.00295155
0.00294787
0.00294421
0.00294057
0.00293698
0.00293339
0.00292985
0.00292631
0.00292282
0.00291933
0.0029159
0.00291247
0.00290909
0.00290571
0.00290239
0.00289905
0.00289577
0.00289248
0.00288924
0.002886
0.00288281
0.00287961
0.00287648
0.00287349
0.00287071
0.0028679
0.00286511
0.00286229
0.0028595
0.00285667
0.00285387
0.00285104
0.00284822
0.00284538
0.00284256
0.00283971
0.00283688
0.00283401
0.00283116
0.00282828
0.00282544
0.00282256
0.0028197
0.00281683
0.00281395
0.00281106
0.00280816
0.00280527
0.00280237
0.00279947
0.00279657
0.00279367
0.00279077
0.00278786
0.00278496
0.00278205
0.00277914
0.00277624
0.00277331
0.00277039
0.00276745
0.00276452
0.00276156
0.00275862
0.00275566
0.00275273
0.00274977
0.00274684
0.00274388
0.00274094
0.002738
0.00273506
0.00273212
0.00272918
0.00272624
0.0027233
0.00272035
0.00271743
0.00271448
0.00271154
0.00270862
0.00270567
0.00270276
0.00269982
0.0026969
0.00269397
0.00269104
0.00268811
0.00268517
0.00268222
0.00267927
0.00267632
0.00267338
0.00267045
0.00266752
0.00266458
0.00266167
0.00265874
0.00265581
0.00265288
0.00264996
0.00264705
0.00264414
0.00264123
0.00263832
0.00263542
0.00263253
0.00262963
0.00262673
0.00262384
0.00262094
0.00261806
0.00261517
0.00261229
0.00260941
0.00260653
0.00260365
0.00260076
0.0025979
0.00259503
0.00259218
0.0025893
0.00258644
0.00258356
0.00258072
0.00257785
0.002575
0.00257215
0.00256929
0.00256643
0.00256358
0.00256073
0.00255791
0.00255505
0.00255224
0.00254939
0.0025466
0.00254377
0.00254095
0.00253811
0.0025353
0.00253249
0.00252971
0.0025269
0.00252413
0.00252134
0.00251856
0.00251578
0.00251301
0.00251023
0.00250749
0.00250471
0.00250199
0.00249925
0.00249655
0.00249381
0.00249107
0.00248834
0.00248563
0.00248291
0.00248023
0.00247754
0.00247486
0.00247219
0.00246951
0.00246683
0.00246415
0.00246149
0.00245883
0.00245618
0.00245352
0.00245089
0.00244827
0.00244564
0.00244302
0.00244041
0.0024378
0.00243522
0.00243262
0.00243004
0.00242745
0.00242491
0.00242231
0.00241976
0.00241719
0.00241468
0.00241211
0.00240957
0.00240702
0.0024045
0.00240195
0.00239945
0.00239692
0.00239441
0.0023919
0.00238939
0.00238689
0.00238442
0.00238194
0.00237949
0.00237704
0.0023746
0.00237215
0.00236973
0.00236705
0.00236416
0.0023613
0.00235848
0.00235573
0.00235299
0.00235032
0.00234766
0.00234504
0.00234246
0.00233994
0.00233742
0.00233495
0.00233249
0.00233008
0.00232767
0.00232535
0.002323
0.00232073
0.00231845
0.00231621
0.00231401
0.00231187
0.00230973
0.00230761
0.00230552
0.00230343
0.00230143
0.00229938
0.0022974
0.00229543
0.00229347
0.00229148
0.00228953
0.0022876
0.00228571
0.00228386
0.00228204
0.00228026
0.0022785
0.00227676
0.00227504
0.00227335
0.00227169
0.00227003
0.00226839
0.00226677
0.00226515
0.00226357
0.00226198
0.0022604
0.00225882
0.00225726
0.00225574
0.0022542
0.00225272
0.00225122
0.00224978
0.00224833
0.00224691
0.00224547
0.00224406
0.00224265
0.00224127
0.0022399
0.00223856
0.00223723
0.0022359
0.00223455
0.00223327
0.00223196
0.00223065
0.00222934
0.00222805
0.00222678
0.00222552
0.00222428
0.00222307
0.00222188
0.00222069
0.00221955
0.00221833
0.00221721
0.00221598
0.00221491
0.00221372
0.00221268
0.00221152
0.00221048
0.0022094
0.00220824
0.0022074
0.00220584
0.00220561
0.00220359
)
;
    }
    symmetry
    {
        type            symmetryPlane;
    }
    frontAndBack
    {
        type            empty;
    }
}


// ************************************************************************* //
