/*--------------------------------*- C++ -*----------------------------------*\
| =========                 |                                                 |
| \\      /  F ield         | OpenFOAM: The Open Source CFD Toolbox           |
|  \\    /   O peration     | Version:  v2012                                 |
|   \\  /    A nd           | Website:  www.openfoam.com                      |
|    \\/     M anipulation  |                                                 |
\*---------------------------------------------------------------------------*/
FoamFile
{
    version     2.0;
    format      ascii;
    class       volScalarField;
    location    "34.5";
    object      yPlus;
}
// * * * * * * * * * * * * * * * * * * * * * * * * * * * * * * * * * * * * * //

dimensions      [0 0 0 0 0 0 0];


internalField   uniform 0;

boundaryField
{
    inlet
    {
        type            calculated;
        value           uniform 0;
    }
    outlet
    {
        type            calculated;
        value           uniform 0;
    }
    topWall
    {
        type            calculated;
        value           nonuniform List<scalar> 
545
(
0.0708132
0.122103
0.15664
0.184115
0.207363
0.227691
0.245833
0.262253
0.277266
0.291097
0.303917
0.315857
0.327022
0.337497
0.347352
0.356646
0.36543
0.373746
0.381633
0.389124
0.396247
0.403028
0.409491
0.415657
0.421544
0.42717
0.43255
0.437698
0.442629
0.447353
0.451883
0.456228
0.460398
0.464402
0.468248
0.471945
0.475499
0.478918
0.482207
0.485373
0.488421
0.491357
0.494185
0.496911
0.499539
0.502073
0.504517
0.506875
0.509151
0.511348
0.513469
0.515517
0.517495
0.519406
0.521253
0.523038
0.524764
0.526433
0.528046
0.529607
0.531117
0.532577
0.533991
0.535359
0.536684
0.537966
0.539207
0.54041
0.541574
0.542703
0.543796
0.544855
0.545868
0.546847
0.547817
0.548779
0.549732
0.550676
0.551612
0.55254
0.553459
0.554371
0.555274
0.556169
0.557057
0.557936
0.558808
0.559672
0.560529
0.561378
0.562219
0.563054
0.563881
0.564701
0.565514
0.566319
0.567045
0.567693
0.56834
0.568987
0.569633
0.570279
0.570924
0.571568
0.572212
0.572855
0.573497
0.574138
0.574779
0.575419
0.576058
0.576697
0.577335
0.577972
0.578608
0.579244
0.579878
0.580513
0.581146
0.581778
0.58241
0.583041
0.583671
0.5843
0.584929
0.585556
0.586183
0.586809
0.587434
0.588058
0.588681
0.589304
0.589925
0.590546
0.591166
0.591784
0.592402
0.593019
0.593635
0.59425
0.594865
0.595478
0.59609
0.596701
0.597311
0.597921
0.598529
0.599136
0.599742
0.600348
0.600952
0.601555
0.602157
0.602758
0.603358
0.603957
0.604555
0.605151
0.605747
0.606341
0.606935
0.607527
0.608118
0.608708
0.609297
0.609884
0.610471
0.611056
0.61164
0.612223
0.612805
0.613385
0.613964
0.614542
0.615119
0.615694
0.616268
0.616841
0.617413
0.617983
0.618552
0.61912
0.619686
0.620251
0.620815
0.621377
0.621938
0.622498
0.623056
0.623613
0.624169
0.624723
0.625275
0.625826
0.626376
0.626924
0.627471
0.628017
0.628561
0.629103
0.629644
0.630183
0.630721
0.631257
0.631792
0.632326
0.632857
0.633387
0.633916
0.634443
0.634968
0.635492
0.636014
0.636535
0.637053
0.637571
0.638086
0.6386
0.639112
0.639623
0.640131
0.640639
0.641144
0.641647
0.642149
0.642649
0.643148
0.643644
0.644139
0.644632
0.645123
0.645613
0.6461
0.646586
0.64707
0.647552
0.648032
0.64851
0.648986
0.649461
0.649933
0.650404
0.650873
0.651339
0.651804
0.652267
0.652728
0.653186
0.653643
0.654098
0.654551
0.655002
0.65545
0.655897
0.656342
0.656784
0.657224
0.657663
0.658099
0.658533
0.658965
0.659395
0.659823
0.660248
0.660672
0.661093
0.661512
0.661929
0.662343
0.662733
0.663099
0.663466
0.663835
0.664206
0.664577
0.66495
0.665324
0.665699
0.666076
0.666453
0.666831
0.667211
0.667591
0.667972
0.668354
0.668737
0.669121
0.669505
0.66989
0.670276
0.670662
0.671048
0.671435
0.671822
0.672209
0.672597
0.672985
0.673372
0.67376
0.674148
0.674535
0.674922
0.675309
0.675695
0.676081
0.676466
0.676851
0.677234
0.677617
0.677999
0.67838
0.678759
0.679138
0.679514
0.67989
0.680264
0.680636
0.681006
0.681374
0.68174
0.682104
0.682466
0.682825
0.683182
0.683536
0.683887
0.684235
0.68458
0.684922
0.68526
0.685595
0.685926
0.686254
0.686577
0.686896
0.687211
0.687521
0.687827
0.688128
0.688424
0.688714
0.689
0.68928
0.689554
0.689822
0.690085
0.690341
0.69059
0.690833
0.69107
0.691299
0.691521
0.691735
0.691942
0.692141
0.692333
0.692515
0.69269
0.692856
0.693013
0.69316
0.693299
0.693428
0.693547
0.693657
0.693756
0.693845
0.693923
0.69399
0.694046
0.694091
0.694124
0.694145
0.694155
0.694152
0.694137
0.694109
0.694068
0.694014
0.693947
0.693866
0.693771
0.693662
0.693539
0.693401
0.693248
0.693081
0.692898
0.6927
0.692487
0.692257
0.692012
0.69175
0.691472
0.691178
0.690866
0.690537
0.690192
0.689829
0.689448
0.689049
0.688633
0.688199
0.687746
0.687275
0.686786
0.686277
0.685751
0.685205
0.68464
0.684056
0.683453
0.68283
0.682188
0.681527
0.680846
0.680146
0.679425
0.678686
0.677926
0.677147
0.676348
0.675529
0.67469
0.673832
0.672954
0.672056
0.671139
0.670202
0.669246
0.66827
0.667276
0.666262
0.665229
0.664177
0.663107
0.662018
0.66091
0.659785
0.658641
0.65748
0.656301
0.655105
0.653892
0.652662
0.651416
0.650153
0.648875
0.647581
0.646272
0.644799
0.64317
0.641542
0.639916
0.638293
0.636673
0.635057
0.633446
0.631842
0.630243
0.628652
0.627068
0.625493
0.623927
0.62237
0.620823
0.619287
0.617762
0.616248
0.614745
0.613256
0.611778
0.610314
0.608863
0.607426
0.606003
0.604594
0.6032
0.601821
0.600457
0.599109
0.597776
0.596459
0.595159
0.593875
0.592608
0.591357
0.590124
0.588908
0.58771
0.586529
0.585366
0.584221
0.583095
0.581987
0.580897
0.579826
0.578774
0.577742
0.576728
0.575734
0.574759
0.573804
0.572869
0.571954
0.571059
0.570184
0.56933
0.568496
0.567683
0.566891
0.56612
0.565369
0.56464
0.563933
0.563247
0.562583
0.56194
0.561319
0.56072
0.560144
0.559589
0.559057
0.558547
0.55806
0.557596
0.557154
0.556735
0.55634
0.555967
0.555617
0.55529
0.554987
0.554707
0.55445
0.554217
0.554008
0.553822
0.553659
0.55352
0.553405
0.553314
0.553245
0.553204
0.553174
)
;
    }
    bottomWall
    {
        type            calculated;
        value           nonuniform List<scalar> 
449
(
0.13946
0.0889651
0.0758139
0.0694417
0.0652583
0.0621317
0.0596367
0.0575731
0.0558221
0.0543059
0.0529721
0.0517845
0.0507165
0.0497479
0.0488631
0.0480499
0.0472983
0.0466004
0.0459496
0.0453404
0.0447683
0.0442292
0.0437199
0.0432374
0.0427795
0.0423437
0.0419283
0.0415316
0.0411521
0.0407885
0.0404395
0.0401043
0.0397817
0.0394709
0.0391713
0.038882
0.0386024
0.038332
0.0380701
0.0378164
0.0375704
0.0373316
0.0370996
0.0368742
0.0366549
0.0364415
0.0362337
0.0360312
0.0358338
0.0356412
0.0354533
0.0352698
0.0350905
0.0349153
0.034744
0.0345764
0.0344124
0.0342518
0.0340945
0.0339405
0.0337895
0.0336414
0.0334962
0.0333538
0.033214
0.0330768
0.032942
0.0328097
0.0326796
0.0325518
0.0324262
0.0323026
0.0321811
0.0320616
0.031944
0.0318282
0.0317143
0.0316021
0.0314916
0.0313827
0.0312755
0.0311698
0.0310656
0.0309629
0.0308617
0.0307619
0.0306634
0.0305662
0.0304704
0.0303758
0.0302824
0.0301903
0.0300993
0.0300095
0.0299208
0.0298332
0.0297466
0.0296611
0.0295766
0.0294931
0.0294106
0.029329
0.0292484
0.0291687
0.0290899
0.0290119
0.0289348
0.0288585
0.0287831
0.0287084
0.0286346
0.0285615
0.0284892
0.0284176
0.0283467
0.0282766
0.0282071
0.0281383
0.0280702
0.0280028
0.027936
0.0278699
0.0278043
0.0277394
0.0276751
0.0276114
0.0275482
0.0274857
0.0274237
0.0273622
0.0273013
0.0272409
0.027181
0.0271217
0.0270629
0.0270045
0.0269467
0.0268893
0.0268324
0.026776
0.02672
0.0266645
0.0266094
0.0265548
0.0265006
0.0264468
0.0263934
0.0263405
0.0262879
0.0262358
0.026184
0.0261327
0.0260817
0.0260311
0.0259808
0.025931
0.0258815
0.0258323
0.0257835
0.0257351
0.025687
0.0256392
0.0255917
0.0255446
0.0254978
0.0254513
0.0254052
0.0253593
0.0253138
0.0252685
0.0252236
0.0251789
0.0251346
0.025093
0.0250539
0.0250146
0.0249753
0.0249358
0.0248962
0.0248565
0.0248168
0.0247769
0.0247369
0.0246967
0.0246565
0.0246162
0.0245758
0.0245353
0.0244946
0.0244539
0.0244131
0.0243722
0.0243311
0.02429
0.0242488
0.0242075
0.0241661
0.0241246
0.0240831
0.0240414
0.0239996
0.0239578
0.0239159
0.0238739
0.0238318
0.0237896
0.0237474
0.0237051
0.0236627
0.0236202
0.0235777
0.023535
0.0234923
0.0234496
0.0234067
0.0233638
0.0233209
0.0232778
0.0232348
0.0231916
0.0231484
0.0231051
0.0230618
0.0230184
0.0229749
0.0229314
0.0228878
0.0228442
0.0228005
0.0227568
0.0227131
0.0226693
0.0226254
0.0225815
0.0225375
0.0224936
0.0224495
0.0224055
0.0223614
0.0223172
0.022273
0.0222288
0.0221846
0.0221403
0.022096
0.0220516
0.0220072
0.0219628
0.0219184
0.021874
0.0218295
0.021785
0.0217405
0.0216959
0.0216514
0.0216068
0.0215622
0.0215176
0.021473
0.0214284
0.0213837
0.0213391
0.0212944
0.0212497
0.0212051
0.0211604
0.0211157
0.021071
0.0210263
0.0209816
0.0209369
0.0208922
0.0208475
0.0208028
0.0207581
0.0207134
0.0206688
0.0206241
0.0205794
0.0205348
0.0204901
0.0204455
0.0204009
0.0203563
0.0203117
0.0202671
0.0202226
0.020178
0.0201335
0.020089
0.0200445
0.0200001
0.0199556
0.0199112
0.0198668
0.0198225
0.0197781
0.0197338
0.0196895
0.0196453
0.0196011
0.0195569
0.0195127
0.0194686
0.0194245
0.0193804
0.0193364
0.0192924
0.0192485
0.0192045
0.0191607
0.0191168
0.019073
0.0190293
0.0189855
0.0189419
0.0188982
0.0188547
0.0188111
0.0187676
0.0187242
0.0186808
0.0186374
0.0185941
0.0185508
0.0185076
0.0184645
0.0184213
0.0183783
0.0183353
0.0182923
0.0182494
0.0182066
0.0181638
0.0181211
0.0180784
0.0180358
0.0179932
0.0179507
0.0179082
0.0178659
0.0178235
0.0177813
0.0177391
0.0176969
0.0176548
0.0176128
0.0175708
0.0175289
0.0174871
0.0174454
0.0174037
0.0173621
0.0173204
0.0172742
0.017224
0.0171745
0.0171257
0.0170776
0.0170302
0.0169834
0.0169373
0.0168919
0.0168471
0.0168029
0.0167592
0.0167162
0.0166738
0.0166318
0.0165905
0.0165497
0.0165093
0.0164695
0.0164302
0.0163914
0.0163531
0.0163152
0.0162777
0.0162407
0.0162042
0.0161681
0.0161324
0.0160971
0.0160622
0.0160277
0.0159935
0.0159598
0.0159264
0.0158934
0.0158608
0.0158285
0.0157965
0.0157649
0.0157336
0.0157026
0.015672
0.0156416
0.0156116
0.0155818
0.0155524
0.0155233
0.0154944
0.0154658
0.0154375
0.0154095
0.0153817
0.0153542
0.0153269
0.0152999
0.0152732
0.0152467
0.0152204
0.0151944
0.0151686
0.015143
0.0151177
0.0150926
0.0150676
0.015043
0.0150185
0.0149942
0.0149701
0.0149463
0.0149226
0.0148991
0.0148758
0.0148527
0.0148298
0.0148071
0.0147845
0.0147622
0.01474
0.0147179
0.014696
0.0146743
0.0146528
0.0146313
0.0146101
0.014589
0.0145679
0.0145471
0.0145263
0.0145056
0.0144847
0.0144646
0.0144446
0.0144115
0.0144301
0.0143717
)
;
    }
    symmetry
    {
        type            symmetryPlane;
    }
    frontAndBack
    {
        type            empty;
    }
}


// ************************************************************************* //
