/*--------------------------------*- C++ -*----------------------------------*\
| =========                 |                                                 |
| \\      /  F ield         | OpenFOAM: The Open Source CFD Toolbox           |
|  \\    /   O peration     | Version:  v2012                                 |
|   \\  /    A nd           | Website:  www.openfoam.com                      |
|    \\/     M anipulation  |                                                 |
\*---------------------------------------------------------------------------*/
FoamFile
{
    version     2.0;
    format      ascii;
    class       volScalarField;
    location    "13.5";
    object      nut;
}
// * * * * * * * * * * * * * * * * * * * * * * * * * * * * * * * * * * * * * //

dimensions      [0 2 -1 0 0 0 0];


internalField   nonuniform List<scalar> 
209825
(
1.24013e-07
1.24557e-07
1.25307e-07
1.25916e-07
1.26386e-07
1.26755e-07
1.27052e-07
1.27296e-07
1.27501e-07
1.27673e-07
1.27821e-07
1.27948e-07
1.2806e-07
1.28157e-07
1.28243e-07
1.28319e-07
1.28387e-07
1.28445e-07
1.28501e-07
1.2855e-07
1.28594e-07
1.28633e-07
1.2867e-07
1.28702e-07
1.28731e-07
1.28758e-07
1.28784e-07
1.28806e-07
1.28827e-07
1.28846e-07
1.28865e-07
1.28882e-07
1.28891e-07
1.28903e-07
1.28921e-07
1.28935e-07
1.28943e-07
1.28951e-07
1.28966e-07
1.28974e-07
1.28972e-07
1.28981e-07
1.29003e-07
1.29002e-07
1.28993e-07
1.29011e-07
1.29015e-07
1.29019e-07
1.29029e-07
1.2903e-07
1.29031e-07
1.29036e-07
1.2903e-07
1.2903e-07
1.2903e-07
1.29032e-07
1.2903e-07
1.29029e-07
1.29053e-07
1.29053e-07
1.29035e-07
1.29039e-07
1.29072e-07
1.29083e-07
1.29058e-07
1.29072e-07
1.29092e-07
1.29102e-07
1.29131e-07
1.2914e-07
1.29128e-07
1.2913e-07
1.29134e-07
1.29135e-07
1.29157e-07
1.29176e-07
1.29183e-07
1.292e-07
1.29197e-07
1.29209e-07
1.29233e-07
1.29254e-07
1.29278e-07
1.29315e-07
1.29339e-07
1.29378e-07
1.29412e-07
1.29469e-07
1.29508e-07
1.29591e-07
1.29642e-07
1.2981e-07
1.29843e-07
1.30908e-07
1.35834e-07
2.07903e-08
1.24013e-07
1.24557e-07
1.25307e-07
1.25916e-07
1.26386e-07
1.26755e-07
1.27052e-07
1.27296e-07
1.27501e-07
1.27673e-07
1.27821e-07
1.27948e-07
1.2806e-07
1.28157e-07
1.28243e-07
1.28319e-07
1.28387e-07
1.28446e-07
1.28501e-07
1.2855e-07
1.28594e-07
1.28633e-07
1.2867e-07
1.28702e-07
1.28732e-07
1.28758e-07
1.28784e-07
1.28806e-07
1.28827e-07
1.28846e-07
1.28866e-07
1.28883e-07
1.28891e-07
1.28903e-07
1.28921e-07
1.28935e-07
1.28943e-07
1.28951e-07
1.28966e-07
1.28974e-07
1.28972e-07
1.28981e-07
1.29003e-07
1.29003e-07
1.28994e-07
1.29011e-07
1.29015e-07
1.29019e-07
1.29029e-07
1.2903e-07
1.29032e-07
1.29036e-07
1.2903e-07
1.2903e-07
1.2903e-07
1.29033e-07
1.2903e-07
1.29029e-07
1.29053e-07
1.29054e-07
1.29036e-07
1.29039e-07
1.29072e-07
1.29083e-07
1.29059e-07
1.29073e-07
1.29092e-07
1.29102e-07
1.29132e-07
1.2914e-07
1.29128e-07
1.2913e-07
1.29135e-07
1.29135e-07
1.29158e-07
1.29176e-07
1.29184e-07
1.292e-07
1.29197e-07
1.2921e-07
1.29233e-07
1.29254e-07
1.29278e-07
1.29316e-07
1.29339e-07
1.29379e-07
1.29412e-07
1.29469e-07
1.29508e-07
1.29591e-07
1.29642e-07
1.29811e-07
1.29843e-07
1.3091e-07
1.35839e-07
2.14119e-08
1.24013e-07
1.24555e-07
1.25304e-07
1.25913e-07
1.26383e-07
1.26752e-07
1.27049e-07
1.27293e-07
1.27498e-07
1.2767e-07
1.27818e-07
1.27945e-07
1.28057e-07
1.28154e-07
1.2824e-07
1.28316e-07
1.28384e-07
1.28443e-07
1.28498e-07
1.28547e-07
1.28591e-07
1.2863e-07
1.28667e-07
1.28699e-07
1.28729e-07
1.28755e-07
1.28781e-07
1.28803e-07
1.28825e-07
1.28844e-07
1.28863e-07
1.2888e-07
1.28888e-07
1.289e-07
1.28918e-07
1.28932e-07
1.2894e-07
1.28948e-07
1.28964e-07
1.28971e-07
1.28969e-07
1.28979e-07
1.29001e-07
1.29e-07
1.28991e-07
1.29009e-07
1.29013e-07
1.29017e-07
1.29027e-07
1.29027e-07
1.29029e-07
1.29034e-07
1.29028e-07
1.29028e-07
1.29028e-07
1.2903e-07
1.29028e-07
1.29027e-07
1.29051e-07
1.29051e-07
1.29033e-07
1.29037e-07
1.2907e-07
1.2908e-07
1.29056e-07
1.2907e-07
1.2909e-07
1.291e-07
1.29129e-07
1.29138e-07
1.29126e-07
1.29128e-07
1.29132e-07
1.29133e-07
1.29155e-07
1.29174e-07
1.29181e-07
1.29198e-07
1.29195e-07
1.29208e-07
1.29231e-07
1.29252e-07
1.29276e-07
1.29313e-07
1.29337e-07
1.29377e-07
1.2941e-07
1.29467e-07
1.29506e-07
1.29589e-07
1.2964e-07
1.29809e-07
1.29841e-07
1.30912e-07
1.35847e-07
2.21828e-08
1.24012e-07
1.24553e-07
1.253e-07
1.25909e-07
1.26379e-07
1.26747e-07
1.27045e-07
1.27288e-07
1.27493e-07
1.27665e-07
1.27814e-07
1.27941e-07
1.28053e-07
1.28149e-07
1.28236e-07
1.28312e-07
1.2838e-07
1.28439e-07
1.28494e-07
1.28543e-07
1.28587e-07
1.28626e-07
1.28663e-07
1.28695e-07
1.28725e-07
1.28751e-07
1.28777e-07
1.28799e-07
1.28821e-07
1.2884e-07
1.28859e-07
1.28876e-07
1.28884e-07
1.28896e-07
1.28915e-07
1.28929e-07
1.28937e-07
1.28944e-07
1.2896e-07
1.28968e-07
1.28966e-07
1.28975e-07
1.28997e-07
1.28996e-07
1.28987e-07
1.29005e-07
1.29009e-07
1.29013e-07
1.29023e-07
1.29024e-07
1.29026e-07
1.2903e-07
1.29024e-07
1.29024e-07
1.29024e-07
1.29027e-07
1.29024e-07
1.29023e-07
1.29047e-07
1.29048e-07
1.2903e-07
1.29033e-07
1.29067e-07
1.29077e-07
1.29053e-07
1.29067e-07
1.29087e-07
1.29097e-07
1.29126e-07
1.29134e-07
1.29123e-07
1.29124e-07
1.29129e-07
1.2913e-07
1.29152e-07
1.29171e-07
1.29178e-07
1.29195e-07
1.29192e-07
1.29204e-07
1.29228e-07
1.29249e-07
1.29273e-07
1.2931e-07
1.29334e-07
1.29374e-07
1.29407e-07
1.29464e-07
1.29503e-07
1.29586e-07
1.29637e-07
1.29806e-07
1.29838e-07
1.30915e-07
1.35858e-07
2.30381e-08
1.24011e-07
1.24549e-07
1.25295e-07
1.25903e-07
1.26373e-07
1.26741e-07
1.27039e-07
1.27282e-07
1.27487e-07
1.27659e-07
1.27808e-07
1.27935e-07
1.28047e-07
1.28144e-07
1.2823e-07
1.28306e-07
1.28374e-07
1.28433e-07
1.28489e-07
1.28537e-07
1.28582e-07
1.28621e-07
1.28658e-07
1.2869e-07
1.2872e-07
1.28746e-07
1.28772e-07
1.28794e-07
1.28816e-07
1.28835e-07
1.28854e-07
1.28871e-07
1.2888e-07
1.28891e-07
1.2891e-07
1.28924e-07
1.28932e-07
1.2894e-07
1.28955e-07
1.28963e-07
1.28961e-07
1.2897e-07
1.28992e-07
1.28992e-07
1.28983e-07
1.29e-07
1.29004e-07
1.29008e-07
1.29018e-07
1.29019e-07
1.29021e-07
1.29026e-07
1.2902e-07
1.2902e-07
1.2902e-07
1.29022e-07
1.2902e-07
1.29019e-07
1.29043e-07
1.29043e-07
1.29026e-07
1.29029e-07
1.29062e-07
1.29073e-07
1.29049e-07
1.29063e-07
1.29082e-07
1.29093e-07
1.29122e-07
1.2913e-07
1.29119e-07
1.2912e-07
1.29125e-07
1.29126e-07
1.29148e-07
1.29167e-07
1.29174e-07
1.29191e-07
1.29188e-07
1.29201e-07
1.29224e-07
1.29245e-07
1.29269e-07
1.29307e-07
1.2933e-07
1.2937e-07
1.29404e-07
1.29461e-07
1.29499e-07
1.29583e-07
1.29634e-07
1.29802e-07
1.29834e-07
1.3092e-07
1.35872e-07
2.39653e-08
1.2401e-07
1.24544e-07
1.25289e-07
1.25896e-07
1.26366e-07
1.26734e-07
1.27031e-07
1.27275e-07
1.2748e-07
1.27652e-07
1.27801e-07
1.27928e-07
1.2804e-07
1.28137e-07
1.28223e-07
1.28299e-07
1.28367e-07
1.28426e-07
1.28482e-07
1.28531e-07
1.28575e-07
1.28614e-07
1.28652e-07
1.28683e-07
1.28713e-07
1.2874e-07
1.28766e-07
1.28788e-07
1.28809e-07
1.28828e-07
1.28848e-07
1.28865e-07
1.28874e-07
1.28885e-07
1.28904e-07
1.28918e-07
1.28926e-07
1.28934e-07
1.28949e-07
1.28957e-07
1.28955e-07
1.28964e-07
1.28987e-07
1.28986e-07
1.28977e-07
1.28995e-07
1.28998e-07
1.29003e-07
1.29013e-07
1.29013e-07
1.29016e-07
1.2902e-07
1.29014e-07
1.29014e-07
1.29014e-07
1.29017e-07
1.29014e-07
1.29013e-07
1.29038e-07
1.29038e-07
1.2902e-07
1.29023e-07
1.29057e-07
1.29068e-07
1.29044e-07
1.29058e-07
1.29077e-07
1.29087e-07
1.29117e-07
1.29125e-07
1.29114e-07
1.29116e-07
1.29121e-07
1.29121e-07
1.29144e-07
1.29162e-07
1.29169e-07
1.29186e-07
1.29184e-07
1.29196e-07
1.2922e-07
1.29241e-07
1.29264e-07
1.29302e-07
1.29326e-07
1.29365e-07
1.29399e-07
1.29456e-07
1.29495e-07
1.29578e-07
1.29629e-07
1.29798e-07
1.29829e-07
1.30927e-07
1.3589e-07
2.49618e-08
1.24009e-07
1.24539e-07
1.25281e-07
1.25887e-07
1.26356e-07
1.26725e-07
1.27022e-07
1.27266e-07
1.2747e-07
1.27643e-07
1.27792e-07
1.27919e-07
1.28031e-07
1.28128e-07
1.28215e-07
1.28291e-07
1.28359e-07
1.28418e-07
1.28474e-07
1.28523e-07
1.28567e-07
1.28607e-07
1.28644e-07
1.28676e-07
1.28706e-07
1.28732e-07
1.28758e-07
1.2878e-07
1.28802e-07
1.28821e-07
1.2884e-07
1.28858e-07
1.28866e-07
1.28878e-07
1.28897e-07
1.28911e-07
1.28919e-07
1.28927e-07
1.28942e-07
1.2895e-07
1.28949e-07
1.28958e-07
1.2898e-07
1.28979e-07
1.2897e-07
1.28988e-07
1.28992e-07
1.28996e-07
1.29006e-07
1.29007e-07
1.29009e-07
1.29013e-07
1.29008e-07
1.29008e-07
1.29008e-07
1.29011e-07
1.29008e-07
1.29007e-07
1.29031e-07
1.29032e-07
1.29014e-07
1.29017e-07
1.29051e-07
1.29062e-07
1.29038e-07
1.29052e-07
1.29071e-07
1.29081e-07
1.29111e-07
1.29119e-07
1.29108e-07
1.2911e-07
1.29115e-07
1.29115e-07
1.29138e-07
1.29156e-07
1.29164e-07
1.29181e-07
1.29178e-07
1.29191e-07
1.29214e-07
1.29235e-07
1.29259e-07
1.29297e-07
1.29321e-07
1.2936e-07
1.29394e-07
1.29451e-07
1.2949e-07
1.29573e-07
1.29624e-07
1.29793e-07
1.29823e-07
1.30936e-07
1.35907e-07
2.6028e-08
1.24007e-07
1.24532e-07
1.25272e-07
1.25877e-07
1.26346e-07
1.26714e-07
1.27011e-07
1.27255e-07
1.2746e-07
1.27632e-07
1.27781e-07
1.27909e-07
1.28021e-07
1.28118e-07
1.28205e-07
1.28281e-07
1.28349e-07
1.28409e-07
1.28465e-07
1.28513e-07
1.28558e-07
1.28598e-07
1.28635e-07
1.28667e-07
1.28697e-07
1.28723e-07
1.2875e-07
1.28772e-07
1.28793e-07
1.28813e-07
1.28832e-07
1.28849e-07
1.28858e-07
1.2887e-07
1.28888e-07
1.28902e-07
1.28911e-07
1.28919e-07
1.28934e-07
1.28942e-07
1.28941e-07
1.2895e-07
1.28972e-07
1.28971e-07
1.28962e-07
1.2898e-07
1.28984e-07
1.28988e-07
1.28998e-07
1.28999e-07
1.29002e-07
1.29006e-07
1.29001e-07
1.29001e-07
1.29e-07
1.29003e-07
1.29001e-07
1.29e-07
1.29024e-07
1.29025e-07
1.29007e-07
1.2901e-07
1.29044e-07
1.29055e-07
1.29031e-07
1.29045e-07
1.29064e-07
1.29074e-07
1.29104e-07
1.29112e-07
1.29101e-07
1.29103e-07
1.29108e-07
1.29109e-07
1.29131e-07
1.2915e-07
1.29158e-07
1.29175e-07
1.29172e-07
1.29185e-07
1.29208e-07
1.29229e-07
1.29253e-07
1.29291e-07
1.29315e-07
1.29354e-07
1.29388e-07
1.29445e-07
1.29484e-07
1.29567e-07
1.29618e-07
1.29787e-07
1.29816e-07
1.30946e-07
1.35926e-07
2.71647e-08
1.24005e-07
1.24524e-07
1.25261e-07
1.25865e-07
1.26333e-07
1.26701e-07
1.26999e-07
1.27243e-07
1.27448e-07
1.2762e-07
1.2777e-07
1.27897e-07
1.2801e-07
1.28107e-07
1.28194e-07
1.2827e-07
1.28338e-07
1.28398e-07
1.28454e-07
1.28503e-07
1.28548e-07
1.28587e-07
1.28624e-07
1.28657e-07
1.28687e-07
1.28713e-07
1.2874e-07
1.28762e-07
1.28784e-07
1.28803e-07
1.28822e-07
1.2884e-07
1.28849e-07
1.28861e-07
1.28879e-07
1.28893e-07
1.28902e-07
1.28909e-07
1.28925e-07
1.28933e-07
1.28932e-07
1.28941e-07
1.28963e-07
1.28962e-07
1.28953e-07
1.28971e-07
1.28975e-07
1.28979e-07
1.28989e-07
1.28991e-07
1.28993e-07
1.28997e-07
1.28992e-07
1.28992e-07
1.28992e-07
1.28995e-07
1.28992e-07
1.28991e-07
1.29016e-07
1.29016e-07
1.28999e-07
1.29002e-07
1.29035e-07
1.29047e-07
1.29024e-07
1.29037e-07
1.29057e-07
1.29067e-07
1.29096e-07
1.29105e-07
1.29094e-07
1.29096e-07
1.29101e-07
1.29102e-07
1.29124e-07
1.29143e-07
1.2915e-07
1.29167e-07
1.29165e-07
1.29178e-07
1.29201e-07
1.29222e-07
1.29246e-07
1.29284e-07
1.29308e-07
1.29348e-07
1.29381e-07
1.29439e-07
1.29477e-07
1.29561e-07
1.29611e-07
1.29781e-07
1.29809e-07
1.30959e-07
1.35945e-07
2.83727e-08
1.24003e-07
1.24515e-07
1.25249e-07
1.25852e-07
1.2632e-07
1.26687e-07
1.26985e-07
1.27229e-07
1.27434e-07
1.27607e-07
1.27756e-07
1.27884e-07
1.27997e-07
1.28094e-07
1.28181e-07
1.28257e-07
1.28326e-07
1.28385e-07
1.28442e-07
1.28491e-07
1.28536e-07
1.28575e-07
1.28613e-07
1.28645e-07
1.28675e-07
1.28702e-07
1.28729e-07
1.28751e-07
1.28773e-07
1.28792e-07
1.28812e-07
1.28829e-07
1.28838e-07
1.2885e-07
1.28868e-07
1.28883e-07
1.28891e-07
1.28899e-07
1.28915e-07
1.28923e-07
1.28922e-07
1.28931e-07
1.28953e-07
1.28953e-07
1.28943e-07
1.28961e-07
1.28965e-07
1.2897e-07
1.28979e-07
1.28981e-07
1.28983e-07
1.28988e-07
1.28983e-07
1.28983e-07
1.28983e-07
1.28985e-07
1.28983e-07
1.28982e-07
1.29007e-07
1.29007e-07
1.28989e-07
1.28993e-07
1.29026e-07
1.29038e-07
1.29015e-07
1.29029e-07
1.29048e-07
1.29058e-07
1.29087e-07
1.29096e-07
1.29086e-07
1.29087e-07
1.29093e-07
1.29093e-07
1.29116e-07
1.29135e-07
1.29142e-07
1.29159e-07
1.29157e-07
1.2917e-07
1.29193e-07
1.29215e-07
1.29238e-07
1.29276e-07
1.293e-07
1.2934e-07
1.29374e-07
1.29431e-07
1.2947e-07
1.29553e-07
1.29604e-07
1.29774e-07
1.29801e-07
1.30974e-07
1.35965e-07
2.96517e-08
1.24001e-07
1.24505e-07
1.25235e-07
1.25837e-07
1.26304e-07
1.26672e-07
1.26969e-07
1.27213e-07
1.27419e-07
1.27592e-07
1.27741e-07
1.27869e-07
1.27982e-07
1.28079e-07
1.28167e-07
1.28243e-07
1.28312e-07
1.28372e-07
1.28428e-07
1.28477e-07
1.28523e-07
1.28562e-07
1.286e-07
1.28632e-07
1.28663e-07
1.28689e-07
1.28716e-07
1.28738e-07
1.2876e-07
1.2878e-07
1.28799e-07
1.28817e-07
1.28826e-07
1.28838e-07
1.28857e-07
1.28871e-07
1.2888e-07
1.28888e-07
1.28903e-07
1.28912e-07
1.28911e-07
1.2892e-07
1.28942e-07
1.28941e-07
1.28932e-07
1.2895e-07
1.28954e-07
1.28959e-07
1.28969e-07
1.2897e-07
1.28973e-07
1.28977e-07
1.28972e-07
1.28972e-07
1.28972e-07
1.28975e-07
1.28973e-07
1.28972e-07
1.28996e-07
1.28997e-07
1.28979e-07
1.28983e-07
1.29016e-07
1.29028e-07
1.29006e-07
1.29019e-07
1.29038e-07
1.29048e-07
1.29077e-07
1.29087e-07
1.29076e-07
1.29078e-07
1.29084e-07
1.29084e-07
1.29107e-07
1.29126e-07
1.29133e-07
1.29151e-07
1.29149e-07
1.29161e-07
1.29185e-07
1.29206e-07
1.2923e-07
1.29268e-07
1.29292e-07
1.29332e-07
1.29365e-07
1.29423e-07
1.29462e-07
1.29545e-07
1.29596e-07
1.29766e-07
1.29791e-07
1.30992e-07
1.35986e-07
3.09994e-08
1.23998e-07
1.24494e-07
1.2522e-07
1.2582e-07
1.26287e-07
1.26654e-07
1.26951e-07
1.27196e-07
1.27401e-07
1.27575e-07
1.27725e-07
1.27853e-07
1.27966e-07
1.28063e-07
1.28151e-07
1.28228e-07
1.28297e-07
1.28357e-07
1.28413e-07
1.28463e-07
1.28508e-07
1.28548e-07
1.28586e-07
1.28618e-07
1.28649e-07
1.28676e-07
1.28702e-07
1.28725e-07
1.28747e-07
1.28766e-07
1.28786e-07
1.28804e-07
1.28813e-07
1.28825e-07
1.28844e-07
1.28858e-07
1.28867e-07
1.28875e-07
1.28891e-07
1.28899e-07
1.28898e-07
1.28907e-07
1.28929e-07
1.28929e-07
1.2892e-07
1.28938e-07
1.28942e-07
1.28946e-07
1.28956e-07
1.28958e-07
1.28961e-07
1.28965e-07
1.28961e-07
1.28961e-07
1.28961e-07
1.28963e-07
1.28961e-07
1.2896e-07
1.28985e-07
1.28986e-07
1.28968e-07
1.28972e-07
1.29005e-07
1.29017e-07
1.28995e-07
1.29008e-07
1.29027e-07
1.29037e-07
1.29067e-07
1.29076e-07
1.29066e-07
1.29068e-07
1.29074e-07
1.29074e-07
1.29097e-07
1.29116e-07
1.29123e-07
1.29141e-07
1.29139e-07
1.29152e-07
1.29175e-07
1.29197e-07
1.2922e-07
1.29258e-07
1.29282e-07
1.29323e-07
1.29356e-07
1.29414e-07
1.29453e-07
1.29536e-07
1.29586e-07
1.29757e-07
1.29781e-07
1.31011e-07
1.36008e-07
3.24119e-08
1.23995e-07
1.24482e-07
1.25203e-07
1.25801e-07
1.26267e-07
1.26635e-07
1.26932e-07
1.27177e-07
1.27383e-07
1.27556e-07
1.27706e-07
1.27835e-07
1.27948e-07
1.28046e-07
1.28134e-07
1.28211e-07
1.2828e-07
1.2834e-07
1.28397e-07
1.28446e-07
1.28492e-07
1.28532e-07
1.2857e-07
1.28603e-07
1.28633e-07
1.2866e-07
1.28687e-07
1.2871e-07
1.28732e-07
1.28752e-07
1.28772e-07
1.28789e-07
1.28799e-07
1.28811e-07
1.2883e-07
1.28844e-07
1.28853e-07
1.28861e-07
1.28877e-07
1.28885e-07
1.28885e-07
1.28894e-07
1.28916e-07
1.28916e-07
1.28907e-07
1.28924e-07
1.28929e-07
1.28933e-07
1.28943e-07
1.28945e-07
1.28948e-07
1.28952e-07
1.28948e-07
1.28948e-07
1.28948e-07
1.28951e-07
1.28949e-07
1.28948e-07
1.28972e-07
1.28974e-07
1.28956e-07
1.2896e-07
1.28993e-07
1.29005e-07
1.28984e-07
1.28997e-07
1.29016e-07
1.29026e-07
1.29055e-07
1.29065e-07
1.29055e-07
1.29057e-07
1.29063e-07
1.29063e-07
1.29086e-07
1.29105e-07
1.29113e-07
1.2913e-07
1.29129e-07
1.29141e-07
1.29164e-07
1.29186e-07
1.2921e-07
1.29248e-07
1.29272e-07
1.29313e-07
1.29346e-07
1.29404e-07
1.29443e-07
1.29526e-07
1.29576e-07
1.29747e-07
1.2977e-07
1.31034e-07
1.36031e-07
3.38925e-08
1.23992e-07
1.24469e-07
1.25185e-07
1.25781e-07
1.26247e-07
1.26614e-07
1.26911e-07
1.27156e-07
1.27362e-07
1.27536e-07
1.27686e-07
1.27815e-07
1.27929e-07
1.28027e-07
1.28115e-07
1.28192e-07
1.28262e-07
1.28322e-07
1.28379e-07
1.28429e-07
1.28475e-07
1.28515e-07
1.28553e-07
1.28586e-07
1.28616e-07
1.28644e-07
1.28671e-07
1.28694e-07
1.28716e-07
1.28736e-07
1.28756e-07
1.28774e-07
1.28783e-07
1.28795e-07
1.28814e-07
1.28829e-07
1.28838e-07
1.28846e-07
1.28862e-07
1.2887e-07
1.2887e-07
1.28879e-07
1.28901e-07
1.28901e-07
1.28892e-07
1.2891e-07
1.28914e-07
1.28919e-07
1.28929e-07
1.28931e-07
1.28934e-07
1.28938e-07
1.28934e-07
1.28934e-07
1.28934e-07
1.28937e-07
1.28935e-07
1.28934e-07
1.28959e-07
1.2896e-07
1.28942e-07
1.28946e-07
1.2898e-07
1.28992e-07
1.28971e-07
1.28984e-07
1.29003e-07
1.29013e-07
1.29042e-07
1.29052e-07
1.29043e-07
1.29045e-07
1.29051e-07
1.29051e-07
1.29074e-07
1.29093e-07
1.29101e-07
1.29119e-07
1.29118e-07
1.2913e-07
1.29153e-07
1.29175e-07
1.29198e-07
1.29237e-07
1.29261e-07
1.29302e-07
1.29335e-07
1.29393e-07
1.29432e-07
1.29515e-07
1.29566e-07
1.29737e-07
1.29758e-07
1.31058e-07
1.36054e-07
3.54446e-08
1.23989e-07
1.24455e-07
1.25165e-07
1.25759e-07
1.26224e-07
1.26591e-07
1.26889e-07
1.27133e-07
1.2734e-07
1.27514e-07
1.27665e-07
1.27794e-07
1.27908e-07
1.28006e-07
1.28095e-07
1.28172e-07
1.28242e-07
1.28302e-07
1.2836e-07
1.2841e-07
1.28456e-07
1.28496e-07
1.28534e-07
1.28567e-07
1.28598e-07
1.28626e-07
1.28653e-07
1.28676e-07
1.28698e-07
1.28718e-07
1.28738e-07
1.28756e-07
1.28766e-07
1.28778e-07
1.28797e-07
1.28812e-07
1.28821e-07
1.2883e-07
1.28845e-07
1.28854e-07
1.28854e-07
1.28863e-07
1.28885e-07
1.28885e-07
1.28876e-07
1.28894e-07
1.28899e-07
1.28903e-07
1.28913e-07
1.28915e-07
1.28919e-07
1.28923e-07
1.28919e-07
1.28919e-07
1.28919e-07
1.28922e-07
1.28921e-07
1.28919e-07
1.28944e-07
1.28946e-07
1.28928e-07
1.28932e-07
1.28965e-07
1.28978e-07
1.28957e-07
1.28971e-07
1.28989e-07
1.28999e-07
1.29028e-07
1.29038e-07
1.2903e-07
1.29032e-07
1.29038e-07
1.29039e-07
1.29062e-07
1.2908e-07
1.29088e-07
1.29106e-07
1.29105e-07
1.29118e-07
1.29141e-07
1.29163e-07
1.29186e-07
1.29225e-07
1.29249e-07
1.2929e-07
1.29323e-07
1.29382e-07
1.2942e-07
1.29504e-07
1.29554e-07
1.29726e-07
1.29744e-07
1.31086e-07
1.36079e-07
3.7072e-08
1.23985e-07
1.2444e-07
1.25144e-07
1.25736e-07
1.26199e-07
1.26566e-07
1.26864e-07
1.27109e-07
1.27316e-07
1.2749e-07
1.27641e-07
1.2777e-07
1.27885e-07
1.27984e-07
1.28073e-07
1.2815e-07
1.2822e-07
1.28281e-07
1.28339e-07
1.28389e-07
1.28435e-07
1.28476e-07
1.28514e-07
1.28548e-07
1.28579e-07
1.28606e-07
1.28634e-07
1.28657e-07
1.28679e-07
1.28699e-07
1.2872e-07
1.28738e-07
1.28748e-07
1.2876e-07
1.28779e-07
1.28794e-07
1.28803e-07
1.28812e-07
1.28828e-07
1.28837e-07
1.28837e-07
1.28846e-07
1.28868e-07
1.28868e-07
1.28859e-07
1.28877e-07
1.28882e-07
1.28886e-07
1.28896e-07
1.28899e-07
1.28902e-07
1.28907e-07
1.28903e-07
1.28903e-07
1.28903e-07
1.28906e-07
1.28905e-07
1.28903e-07
1.28929e-07
1.2893e-07
1.28912e-07
1.28916e-07
1.2895e-07
1.28962e-07
1.28943e-07
1.28956e-07
1.28974e-07
1.28984e-07
1.29013e-07
1.29024e-07
1.29016e-07
1.29017e-07
1.29024e-07
1.29025e-07
1.29048e-07
1.29066e-07
1.29074e-07
1.29093e-07
1.29092e-07
1.29105e-07
1.29127e-07
1.2915e-07
1.29173e-07
1.29212e-07
1.29236e-07
1.29277e-07
1.2931e-07
1.29369e-07
1.29408e-07
1.29491e-07
1.29541e-07
1.29714e-07
1.2973e-07
1.31116e-07
1.36105e-07
3.87788e-08
1.23982e-07
1.24424e-07
1.25121e-07
1.2571e-07
1.26173e-07
1.2654e-07
1.26837e-07
1.27083e-07
1.2729e-07
1.27464e-07
1.27616e-07
1.27745e-07
1.2786e-07
1.27959e-07
1.28049e-07
1.28127e-07
1.28197e-07
1.28258e-07
1.28316e-07
1.28366e-07
1.28413e-07
1.28454e-07
1.28493e-07
1.28526e-07
1.28557e-07
1.28585e-07
1.28613e-07
1.28636e-07
1.28659e-07
1.28679e-07
1.287e-07
1.28718e-07
1.28728e-07
1.28741e-07
1.2876e-07
1.28775e-07
1.28784e-07
1.28793e-07
1.28809e-07
1.28818e-07
1.28819e-07
1.28827e-07
1.28849e-07
1.2885e-07
1.28841e-07
1.28858e-07
1.28863e-07
1.28868e-07
1.28878e-07
1.28881e-07
1.28885e-07
1.28889e-07
1.28885e-07
1.28885e-07
1.28886e-07
1.28889e-07
1.28888e-07
1.28886e-07
1.28912e-07
1.28913e-07
1.28895e-07
1.289e-07
1.28933e-07
1.28946e-07
1.28927e-07
1.2894e-07
1.28958e-07
1.28968e-07
1.28997e-07
1.29008e-07
1.29e-07
1.29002e-07
1.29009e-07
1.2901e-07
1.29033e-07
1.29051e-07
1.2906e-07
1.29078e-07
1.29078e-07
1.2909e-07
1.29113e-07
1.29136e-07
1.29159e-07
1.29198e-07
1.29222e-07
1.29264e-07
1.29297e-07
1.29355e-07
1.29394e-07
1.29477e-07
1.29527e-07
1.297e-07
1.29715e-07
1.31148e-07
1.36132e-07
4.05689e-08
1.23978e-07
1.24406e-07
1.25097e-07
1.25683e-07
1.26145e-07
1.26511e-07
1.26809e-07
1.27054e-07
1.27262e-07
1.27437e-07
1.27589e-07
1.27719e-07
1.27834e-07
1.27933e-07
1.28023e-07
1.28101e-07
1.28172e-07
1.28233e-07
1.28292e-07
1.28342e-07
1.28389e-07
1.2843e-07
1.28469e-07
1.28503e-07
1.28535e-07
1.28563e-07
1.28591e-07
1.28614e-07
1.28637e-07
1.28657e-07
1.28678e-07
1.28697e-07
1.28707e-07
1.2872e-07
1.28739e-07
1.28754e-07
1.28764e-07
1.28772e-07
1.28788e-07
1.28798e-07
1.28799e-07
1.28807e-07
1.28829e-07
1.2883e-07
1.28821e-07
1.28839e-07
1.28844e-07
1.28849e-07
1.28859e-07
1.28862e-07
1.28866e-07
1.2887e-07
1.28867e-07
1.28867e-07
1.28867e-07
1.28871e-07
1.28869e-07
1.28868e-07
1.28893e-07
1.28895e-07
1.28877e-07
1.28882e-07
1.28915e-07
1.28928e-07
1.2891e-07
1.28923e-07
1.28941e-07
1.28951e-07
1.2898e-07
1.28991e-07
1.28984e-07
1.28986e-07
1.28993e-07
1.28994e-07
1.29017e-07
1.29036e-07
1.29044e-07
1.29062e-07
1.29063e-07
1.29075e-07
1.29098e-07
1.29121e-07
1.29144e-07
1.29183e-07
1.29208e-07
1.29249e-07
1.29282e-07
1.29341e-07
1.2938e-07
1.29463e-07
1.29512e-07
1.29686e-07
1.29698e-07
1.31182e-07
1.36159e-07
4.24464e-08
1.23974e-07
1.24388e-07
1.25071e-07
1.25654e-07
1.26115e-07
1.26481e-07
1.26778e-07
1.27024e-07
1.27232e-07
1.27407e-07
1.2756e-07
1.2769e-07
1.27806e-07
1.27905e-07
1.27996e-07
1.28074e-07
1.28146e-07
1.28207e-07
1.28266e-07
1.28317e-07
1.28364e-07
1.28405e-07
1.28445e-07
1.28479e-07
1.28511e-07
1.28539e-07
1.28567e-07
1.2859e-07
1.28614e-07
1.28634e-07
1.28655e-07
1.28674e-07
1.28685e-07
1.28697e-07
1.28716e-07
1.28732e-07
1.28742e-07
1.2875e-07
1.28767e-07
1.28776e-07
1.28778e-07
1.28786e-07
1.28808e-07
1.28809e-07
1.288e-07
1.28818e-07
1.28823e-07
1.28828e-07
1.28838e-07
1.28841e-07
1.28846e-07
1.2885e-07
1.28847e-07
1.28847e-07
1.28848e-07
1.28851e-07
1.2885e-07
1.28849e-07
1.28874e-07
1.28876e-07
1.28858e-07
1.28863e-07
1.28896e-07
1.2891e-07
1.28892e-07
1.28905e-07
1.28922e-07
1.28932e-07
1.28962e-07
1.28973e-07
1.28967e-07
1.28968e-07
1.28976e-07
1.28976e-07
1.29e-07
1.29018e-07
1.29027e-07
1.29046e-07
1.29047e-07
1.29059e-07
1.29081e-07
1.29105e-07
1.29127e-07
1.29166e-07
1.29192e-07
1.29233e-07
1.29266e-07
1.29325e-07
1.29364e-07
1.29447e-07
1.29497e-07
1.29671e-07
1.29681e-07
1.31219e-07
1.36188e-07
4.44153e-08
1.2397e-07
1.24369e-07
1.25044e-07
1.25623e-07
1.26083e-07
1.26448e-07
1.26746e-07
1.26992e-07
1.272e-07
1.27376e-07
1.27529e-07
1.27659e-07
1.27776e-07
1.27876e-07
1.27966e-07
1.28045e-07
1.28117e-07
1.28179e-07
1.28238e-07
1.28289e-07
1.28337e-07
1.28379e-07
1.28418e-07
1.28453e-07
1.28485e-07
1.28513e-07
1.28541e-07
1.28565e-07
1.28589e-07
1.2861e-07
1.2863e-07
1.2865e-07
1.28661e-07
1.28673e-07
1.28692e-07
1.28708e-07
1.28718e-07
1.28727e-07
1.28743e-07
1.28753e-07
1.28755e-07
1.28763e-07
1.28785e-07
1.28787e-07
1.28778e-07
1.28795e-07
1.28801e-07
1.28806e-07
1.28816e-07
1.28819e-07
1.28824e-07
1.28828e-07
1.28826e-07
1.28826e-07
1.28827e-07
1.2883e-07
1.28829e-07
1.28828e-07
1.28853e-07
1.28855e-07
1.28837e-07
1.28843e-07
1.28876e-07
1.2889e-07
1.28873e-07
1.28885e-07
1.28903e-07
1.28913e-07
1.28942e-07
1.28954e-07
1.28948e-07
1.2895e-07
1.28958e-07
1.28958e-07
1.28982e-07
1.29e-07
1.29009e-07
1.29028e-07
1.29029e-07
1.29042e-07
1.29064e-07
1.29088e-07
1.2911e-07
1.29149e-07
1.29174e-07
1.29216e-07
1.29249e-07
1.29309e-07
1.29347e-07
1.2943e-07
1.2948e-07
1.29655e-07
1.29662e-07
1.31258e-07
1.36217e-07
4.64797e-08
1.23965e-07
1.24349e-07
1.25015e-07
1.25591e-07
1.26049e-07
1.26414e-07
1.26712e-07
1.26958e-07
1.27166e-07
1.27342e-07
1.27496e-07
1.27627e-07
1.27744e-07
1.27844e-07
1.27935e-07
1.28015e-07
1.28087e-07
1.28149e-07
1.28209e-07
1.2826e-07
1.28308e-07
1.2835e-07
1.2839e-07
1.28425e-07
1.28457e-07
1.28486e-07
1.28514e-07
1.28539e-07
1.28562e-07
1.28583e-07
1.28604e-07
1.28624e-07
1.28635e-07
1.28648e-07
1.28667e-07
1.28683e-07
1.28694e-07
1.28702e-07
1.28719e-07
1.28729e-07
1.28731e-07
1.28739e-07
1.28761e-07
1.28763e-07
1.28754e-07
1.28771e-07
1.28777e-07
1.28782e-07
1.28793e-07
1.28796e-07
1.28801e-07
1.28806e-07
1.28803e-07
1.28803e-07
1.28804e-07
1.28808e-07
1.28807e-07
1.28806e-07
1.28831e-07
1.28833e-07
1.28815e-07
1.28821e-07
1.28854e-07
1.28868e-07
1.28852e-07
1.28865e-07
1.28882e-07
1.28892e-07
1.28921e-07
1.28933e-07
1.28928e-07
1.2893e-07
1.28938e-07
1.28939e-07
1.28962e-07
1.28981e-07
1.2899e-07
1.29009e-07
1.29011e-07
1.29023e-07
1.29045e-07
1.29069e-07
1.29092e-07
1.29131e-07
1.29156e-07
1.29198e-07
1.29231e-07
1.29291e-07
1.2933e-07
1.29413e-07
1.29462e-07
1.29637e-07
1.29642e-07
1.31299e-07
1.36246e-07
4.86434e-08
1.23961e-07
1.24327e-07
1.24984e-07
1.25556e-07
1.26013e-07
1.26377e-07
1.26675e-07
1.26922e-07
1.2713e-07
1.27307e-07
1.27461e-07
1.27593e-07
1.2771e-07
1.27811e-07
1.27902e-07
1.27982e-07
1.28055e-07
1.28118e-07
1.28177e-07
1.28229e-07
1.28278e-07
1.2832e-07
1.2836e-07
1.28395e-07
1.28428e-07
1.28457e-07
1.28486e-07
1.2851e-07
1.28534e-07
1.28555e-07
1.28577e-07
1.28596e-07
1.28608e-07
1.28621e-07
1.2864e-07
1.28656e-07
1.28667e-07
1.28676e-07
1.28693e-07
1.28703e-07
1.28705e-07
1.28714e-07
1.28736e-07
1.28738e-07
1.28729e-07
1.28746e-07
1.28752e-07
1.28758e-07
1.28768e-07
1.28772e-07
1.28777e-07
1.28781e-07
1.28779e-07
1.28779e-07
1.2878e-07
1.28784e-07
1.28783e-07
1.28782e-07
1.28808e-07
1.2881e-07
1.28792e-07
1.28798e-07
1.28831e-07
1.28846e-07
1.2883e-07
1.28843e-07
1.2886e-07
1.2887e-07
1.28899e-07
1.28911e-07
1.28907e-07
1.28909e-07
1.28917e-07
1.28918e-07
1.28942e-07
1.28961e-07
1.28969e-07
1.28989e-07
1.28991e-07
1.29004e-07
1.29026e-07
1.2905e-07
1.29072e-07
1.29111e-07
1.29137e-07
1.29179e-07
1.29212e-07
1.29272e-07
1.29311e-07
1.29394e-07
1.29443e-07
1.29619e-07
1.29621e-07
1.31341e-07
1.36276e-07
5.09096e-08
1.23956e-07
1.24305e-07
1.24952e-07
1.2552e-07
1.25975e-07
1.26339e-07
1.26637e-07
1.26883e-07
1.27092e-07
1.2727e-07
1.27424e-07
1.27556e-07
1.27674e-07
1.27775e-07
1.27868e-07
1.27948e-07
1.28021e-07
1.28084e-07
1.28144e-07
1.28197e-07
1.28245e-07
1.28288e-07
1.28329e-07
1.28364e-07
1.28397e-07
1.28426e-07
1.28455e-07
1.2848e-07
1.28504e-07
1.28526e-07
1.28547e-07
1.28567e-07
1.28579e-07
1.28592e-07
1.28612e-07
1.28628e-07
1.28639e-07
1.28648e-07
1.28665e-07
1.28676e-07
1.28678e-07
1.28686e-07
1.28708e-07
1.28711e-07
1.28702e-07
1.28719e-07
1.28726e-07
1.28731e-07
1.28742e-07
1.28746e-07
1.28751e-07
1.28756e-07
1.28754e-07
1.28754e-07
1.28755e-07
1.28759e-07
1.28758e-07
1.28757e-07
1.28783e-07
1.28786e-07
1.28768e-07
1.28774e-07
1.28807e-07
1.28822e-07
1.28807e-07
1.2882e-07
1.28836e-07
1.28847e-07
1.28876e-07
1.28888e-07
1.28885e-07
1.28886e-07
1.28895e-07
1.28896e-07
1.2892e-07
1.28939e-07
1.28948e-07
1.28967e-07
1.2897e-07
1.28983e-07
1.29005e-07
1.29029e-07
1.29051e-07
1.29091e-07
1.29116e-07
1.29159e-07
1.29192e-07
1.29252e-07
1.29291e-07
1.29374e-07
1.29422e-07
1.29599e-07
1.29599e-07
1.31385e-07
1.36307e-07
5.32814e-08
1.23952e-07
1.24282e-07
1.24919e-07
1.25482e-07
1.25935e-07
1.26298e-07
1.26596e-07
1.26843e-07
1.27052e-07
1.2723e-07
1.27385e-07
1.27518e-07
1.27636e-07
1.27738e-07
1.27831e-07
1.27911e-07
1.27985e-07
1.28049e-07
1.28109e-07
1.28162e-07
1.28211e-07
1.28254e-07
1.28295e-07
1.28331e-07
1.28364e-07
1.28394e-07
1.28423e-07
1.28448e-07
1.28473e-07
1.28494e-07
1.28516e-07
1.28536e-07
1.28549e-07
1.28562e-07
1.28582e-07
1.28598e-07
1.2861e-07
1.28619e-07
1.28636e-07
1.28647e-07
1.2865e-07
1.28658e-07
1.2868e-07
1.28683e-07
1.28674e-07
1.28691e-07
1.28698e-07
1.28703e-07
1.28715e-07
1.28718e-07
1.28724e-07
1.28729e-07
1.28727e-07
1.28727e-07
1.28729e-07
1.28733e-07
1.28732e-07
1.28731e-07
1.28757e-07
1.2876e-07
1.28742e-07
1.28749e-07
1.28781e-07
1.28796e-07
1.28783e-07
1.28795e-07
1.28811e-07
1.28822e-07
1.28851e-07
1.28864e-07
1.28861e-07
1.28863e-07
1.28872e-07
1.28873e-07
1.28897e-07
1.28916e-07
1.28925e-07
1.28944e-07
1.28948e-07
1.28961e-07
1.28982e-07
1.29007e-07
1.29029e-07
1.29069e-07
1.29095e-07
1.29138e-07
1.2917e-07
1.2923e-07
1.29269e-07
1.29352e-07
1.294e-07
1.29577e-07
1.29576e-07
1.3143e-07
1.36337e-07
5.57605e-08
1.23947e-07
1.24258e-07
1.24884e-07
1.25442e-07
1.25893e-07
1.26255e-07
1.26553e-07
1.268e-07
1.2701e-07
1.27188e-07
1.27344e-07
1.27477e-07
1.27596e-07
1.27698e-07
1.27792e-07
1.27873e-07
1.27947e-07
1.28011e-07
1.28072e-07
1.28126e-07
1.28175e-07
1.28219e-07
1.2826e-07
1.28296e-07
1.2833e-07
1.2836e-07
1.2839e-07
1.28415e-07
1.2844e-07
1.28461e-07
1.28484e-07
1.28504e-07
1.28517e-07
1.2853e-07
1.2855e-07
1.28567e-07
1.28578e-07
1.28588e-07
1.28605e-07
1.28616e-07
1.2862e-07
1.28628e-07
1.2865e-07
1.28653e-07
1.28644e-07
1.28661e-07
1.28668e-07
1.28674e-07
1.28685e-07
1.28689e-07
1.28695e-07
1.287e-07
1.28699e-07
1.28699e-07
1.28701e-07
1.28705e-07
1.28704e-07
1.28704e-07
1.28729e-07
1.28732e-07
1.28715e-07
1.28722e-07
1.28754e-07
1.28769e-07
1.28757e-07
1.28769e-07
1.28785e-07
1.28796e-07
1.28825e-07
1.28838e-07
1.28836e-07
1.28838e-07
1.28848e-07
1.28848e-07
1.28873e-07
1.28892e-07
1.289e-07
1.28921e-07
1.28925e-07
1.28937e-07
1.28959e-07
1.28984e-07
1.29006e-07
1.29046e-07
1.29072e-07
1.29115e-07
1.29147e-07
1.29208e-07
1.29247e-07
1.29329e-07
1.29378e-07
1.29555e-07
1.29551e-07
1.31475e-07
1.36366e-07
5.83477e-08
1.23942e-07
1.24233e-07
1.24847e-07
1.254e-07
1.25849e-07
1.2621e-07
1.26508e-07
1.26755e-07
1.26966e-07
1.27144e-07
1.273e-07
1.27434e-07
1.27554e-07
1.27657e-07
1.27751e-07
1.27832e-07
1.27907e-07
1.27972e-07
1.28033e-07
1.28087e-07
1.28137e-07
1.28181e-07
1.28223e-07
1.28259e-07
1.28293e-07
1.28324e-07
1.28354e-07
1.28379e-07
1.28405e-07
1.28427e-07
1.28449e-07
1.2847e-07
1.28483e-07
1.28497e-07
1.28517e-07
1.28533e-07
1.28546e-07
1.28555e-07
1.28572e-07
1.28584e-07
1.28588e-07
1.28596e-07
1.28618e-07
1.28622e-07
1.28613e-07
1.2863e-07
1.28637e-07
1.28643e-07
1.28655e-07
1.28659e-07
1.28665e-07