/*--------------------------------*- C++ -*----------------------------------*\
| =========                 |                                                 |
| \\      /  F ield         | OpenFOAM: The Open Source CFD Toolbox           |
|  \\    /   O peration     | Version:  v2012                                 |
|   \\  /    A nd           | Website:  www.openfoam.com                      |
|    \\/     M anipulation  |                                                 |
\*---------------------------------------------------------------------------*/
FoamFile
{
    version     2.0;
    format      ascii;
    class       volScalarField;
    location    "13.5";
    object      omega;
}
// * * * * * * * * * * * * * * * * * * * * * * * * * * * * * * * * * * * * * //

dimensions      [0 0 -1 0 0 0 0];


internalField   nonuniform List<scalar> 
209825
(
8223.66
7685.96
7384.93
7203.87
7084.38
7000.35
6938.03
6890.52
6853.04
6823.16
6798.65
6778.56
6761.6
6747.44
6735.21
6724.87
6715.78
6708.03
6701.08
6695.15
6689.73
6685.07
6680.82
6677.23
6673.76
6670.79
6668.03
6665.76
6663.45
6661.53
6659.69
6658.17
6656.68
6655.54
6654.2
6653.16
6652.18
6651.5
6650.49
6649.83
6649.26
6648.79
6647.62
6647.59
6647.56
6647.5
6647.38
6647.17
6646.65
6646.61
6646.39
6647.28
6647.58
6647.58
6647.57
6648.53
6649.4
6649.54
6649.54
6649.53
6650.46
6651.1
6651.1
6651.76
6653.21
6653.21
6653.21
6654.27
6654.28
6655.38
6656.7
6657.95
6659.21
6660.83
6660.83
6661.97
6663.38
6664.44
6666.02
6667.74
6668.65
6670.53
6671.8
6673.66
6675.19
6677.76
6679.35
6682.69
6684.48
6688.9
6691.04
6698.72
6699.46
6744.13
6944.11
115921
8223.66
7685.93
7384.84
7203.74
7084.23
7000.18
6937.84
6890.32
6852.83
6822.94
6798.42
6778.32
6761.36
6747.19
6734.96
6724.62
6715.52
6707.76
6700.81
6694.88
6689.46
6684.8
6680.54
6676.96
6673.49
6670.52
6667.76
6665.48
6663.17
6661.25
6659.41
6657.89
6656.4
6655.25
6653.91
6652.88
6651.9
6651.21
6650.2
6649.55
6648.97
6648.5
6647.34
6647.3
6647.27
6647.21
6647.09
6646.88
6646.37
6646.32
6646.1
6647
6647.29
6647.29
6647.28
6648.24
6649.11
6649.25
6649.25
6649.24
6650.16
6650.81
6650.81
6651.46
6652.92
6652.92
6652.92
6653.98
6653.99
6655.08
6656.41
6657.66
6658.91
6660.54
6660.54
6661.68
6663.09
6664.15
6665.73
6667.45
6668.36
6670.24
6671.51
6673.37
6674.9
6677.47
6679.06
6682.4
6684.19
6688.61
6690.75
6698.43
6699.17
6743.92
6943.98
112626
8223.67
7685.78
7384.53
7203.31
7083.7
6999.58
6937.19
6889.62
6852.09
6822.18
6797.64
6777.51
6760.54
6746.35
6734.11
6723.75
6714.65
6706.88
6699.93
6693.99
6688.56
6683.9
6679.63
6676.04
6672.57
6669.6
6666.83
6664.55
6662.24
6660.32
6658.47
6656.95
6655.46
6654.31
6652.97
6651.93
6650.95
6650.26
6649.25
6648.6
6648.02
6647.55
6646.38
6646.34
6646.31
6646.25
6646.13
6645.92
6645.41
6645.36
6645.14
6646.03
6646.33
6646.33
6646.32
6647.27
6648.15
6648.29
6648.29
6648.28
6649.2
6649.84
6649.84
6650.5
6651.95
6651.95
6651.95
6653.02
6653.02
6654.12
6655.44
6656.69
6657.94
6659.57
6659.57
6660.71
6662.12
6663.18
6664.76
6666.48
6667.39
6669.27
6670.54
6672.4
6673.93
6676.5
6678.09
6681.43
6683.23
6687.64
6689.78
6697.46
6698.19
6743.12
6943.32
108845
8223.67
7685.51
7383.99
7202.55
7082.78
6998.55
6936.06
6888.42
6850.83
6820.87
6796.29
6776.13
6759.12
6744.91
6732.65
6722.28
6713.15
6705.38
6698.41
6692.45
6687.02
6682.35
6678.07
6674.47
6670.99
6668.01
6665.24
6662.96
6660.64
6658.72
6656.87
6655.34
6653.85
6652.7
6651.35
6650.31
6649.32
6648.64
6647.63
6646.97
6646.39
6645.91
6644.75
6644.71
6644.67
6644.61
6644.49
6644.28
6643.76
6643.71
6643.49
6644.38
6644.68
6644.68
6644.67
6645.62
6646.49
6646.63
6646.63
6646.62
6647.54
6648.18
6648.18
6648.84
6650.29
6650.29
6650.29
6651.36
6651.36
6652.46
6653.78
6655.03
6656.28
6657.91
6657.91
6659.05
6660.46
6661.52
6663.1
6664.82
6665.73
6667.61
6668.88
6670.74
6672.27
6674.84
6676.43
6679.77
6681.56
6685.98
6688.11
6695.79
6696.51
6741.71
6942.11
104958
8223.69
7685.13
7383.21
7201.46
7081.47
6997.07
6934.45
6886.71
6849.03
6819
6794.36
6774.16
6757.11
6742.87
6730.57
6720.17
6711.02
6703.23
6696.24
6690.27
6684.82
6680.13
6675.85
6672.24
6668.75
6665.76
6662.98
6660.69
6658.37
6656.43
6654.58
6653.05
6651.55
6650.39
6649.04
6648
6647.01
6646.32
6645.3
6644.64
6644.06
6643.58
6642.42
6642.37
6642.34
6642.27
6642.15
6641.94
6641.42
6641.37
6641.14
6642.03
6642.32
6642.32
6642.31
6643.26
6644.13
6644.27
6644.27
6644.26
6645.18
6645.82
6645.82
6646.48
6647.93
6647.93
6647.93
6649
6648.99
6650.09
6651.42
6652.67
6653.91
6655.54
6655.54
6656.68
6658.09
6659.16
6660.73
6662.46
6663.37
6665.25
6666.52
6668.38
6669.91
6672.48
6674.07
6677.4
6679.2
6683.61
6685.74
6693.42
6694.12
6739.7
6940.32
101071
8223.7
7684.64
7382.2
7200.05
7079.76
6995.14
6932.35
6884.47
6846.69
6816.57
6791.85
6771.59
6754.48
6740.19
6727.86
6717.42
6708.24
6700.42
6693.41
6687.42
6681.95
6677.25
6672.94
6669.32
6665.82
6662.82
6660.03
6657.73
6655.4
6653.45
6651.59
6650.06
6648.55
6647.39
6646.03
6644.98
6643.99
6643.29
6642.27
6641.61
6641.02
6640.54
6639.38
6639.33
6639.29
6639.22
6639.09
6638.88
6638.37
6638.31
6638.07
6638.96
6639.25
6639.25
6639.24
6640.19
6641.06
6641.19
6641.19
6641.19
6642.11
6642.74
6642.74
6643.39
6644.85
6644.85
6644.85
6645.91
6645.91
6647.01
6648.33
6649.58
6650.82
6652.46
6652.46
6653.6
6655
6656.07
6657.64
6659.37
6660.28
6662.16
6663.43
6665.29
6666.82
6669.39
6670.98
6674.31
6676.11
6680.52
6682.65
6690.32
6691
6737.06
6937.88
97221.7
8223.72
7684.03
7380.94
7198.3
7077.65
6992.75
6929.75
6881.71
6843.79
6813.56
6788.75
6768.4
6751.23
6736.89
6724.5
6714.02
6704.81
6696.95
6689.91
6683.89
6678.4
6673.67
6669.35
6665.71
6662.19
6659.18
6656.37
6654.06
6651.72
6649.77
6647.89
6646.35
6644.83
6643.67
6642.3
6641.25
6640.25
6639.55
6638.53
6637.85
6637.26
6636.78
6635.62
6635.56
6635.51
6635.44
6635.31
6635.1
6634.59
6634.52
6634.28
6635.17
6635.45
6635.45
6635.43
6636.38
6637.25
6637.38
6637.38
6637.37
6638.3
6638.93
6638.93
6639.58
6641.03
6641.03
6641.03
6642.09
6642.09
6643.19
6644.51
6645.76
6647
6648.64
6648.64
6649.78
6651.18
6652.25
6653.82
6655.55
6656.46
6658.34
6659.61
6661.47
6663
6665.57
6667.16
6670.49
6672.28
6676.69
6678.82
6686.49
6687.14
6733.8
6934.72
93430.6
8223.74
7683.3
7379.45
7196.22
7075.13
6989.9
6926.65
6878.4
6840.32
6809.96
6785.04
6764.6
6747.35
6732.93
6720.49
6709.96
6700.7
6692.8
6685.72
6679.67
6674.15
6669.4
6665.05
6661.39
6657.85
6654.83
6652.01
6649.68
6647.32
6645.36
6643.47
6641.92
6640.39
6639.22
6637.85
6636.79
6635.77
6635.07
6634.04
6633.36
6632.77
6632.28
6631.12
6631.05
6631
6630.93
6630.79
6630.58
6630.06
6629.99
6629.74
6630.63
6630.9
6630.9
6630.89
6631.83
6632.7
6632.83
6632.83
6632.82
6633.74
6634.37
6634.36
6635.02
6636.47
6636.47
6636.47
6637.53
6637.53
6638.63
6639.94
6641.19
6642.42
6644.07
6644.06
6645.21
6646.61
6647.68
6649.25
6650.98
6651.89
6653.77
6655.04
6656.91
6658.43
6661
6662.59
6665.92
6667.71
6672.11
6674.23
6681.9
6682.52
6729.9
6930.82
89705.9
8223.77
7682.46
7377.71
7193.79
7072.19
6986.58
6923.03
6874.55
6836.28
6805.76
6780.71
6760.16
6742.82
6728.32
6715.81
6705.22
6695.9
6687.96
6680.83
6674.75
6669.19
6664.42
6660.04
6656.36
6652.8
6649.75
6646.91
6644.57
6642.19
6640.22
6638.32
6636.75
6635.21
6634.02
6632.65
6631.58
6630.55
6629.84
6628.81
6628.13
6627.52
6627.03
6625.87
6625.79
6625.73
6625.65
6625.51
6625.3
6624.79
6624.71
6624.44
6625.33
6625.6
6625.6
6625.58
6626.52
6627.38
6627.51
6627.51
6627.5
6628.42
6629.04
6629.04
6629.69
6631.14
6631.14
6631.14
6632.2
6632.2
6633.3
6634.6
6635.86
6637.08
6638.73
6638.73
6639.87
6641.28
6642.35
6643.91
6645.64
6646.56
6648.43
6649.71
6651.57
6653.09
6655.67
6657.25
6660.58
6662.37
6666.77
6668.88
6676.55
6677.12
6725.35
6926.17
86050.4
8223.81
7681.51
7375.74
7191.02
7068.84
6982.79
6918.9
6870.15
6831.66
6800.96
6775.76
6755.08
6737.63
6723.04
6710.45
6699.79
6690.41
6682.41
6675.24
6669.11
6663.52
6658.71
6654.3
6650.59
6647
6643.93
6641.07
6638.71
6636.32
6634.32
6632.41
6630.83
6629.28
6628.08
6626.69
6625.61
6624.58
6623.86
6622.82
6622.12
6621.51
6621.02
6619.85
6619.76
6619.69
6619.61
6619.47
6619.25
6618.74
6618.66
6618.38
6619.26
6619.52
6619.52
6619.5
6620.44
6621.29
6621.42
6621.42
6621.41
6622.33
6622.94
6622.94
6623.59
6625.04
6625.04
6625.04
6626.1
6626.1
6627.19
6628.49
6629.75
6630.97
6632.62
6632.62
6633.76
6635.16
6636.24
6637.79
6639.53
6640.45
6642.32
6643.6
6645.47
6646.98
6649.55
6651.14
6654.46
6656.25
6660.65
6662.75
6670.41
6670.94
6720.15
6920.75
82462.3
8223.85
7680.44
7373.51
7187.91
7065.06
6978.51
6914.24
6865.18
6826.44
6795.54
6770.17
6749.35
6731.78
6717.08
6704.4
6693.66
6684.21
6676.15
6668.93
6662.75
6657.11
6652.26
6647.82
6644.07
6640.46
6637.36
6634.47
6632.09
6629.68
6627.67
6625.74
6624.14
6622.57
6621.36
6619.96
6618.87
6617.82
6617.09
6616.05
6615.35
6614.72
6614.22
6613.06
6612.95
6612.88
6612.79
6612.64
6612.42
6611.91
6611.82
6611.53
6612.4
6612.66
6612.66
6612.63
6613.56
6614.42
6614.54
6614.54
6614.53
6615.45
6616.05
6616.05
6616.7
6618.15
6618.15
6618.15
6619.2
6619.2
6620.3
6621.59
6622.85
6624.06
6625.72
6625.72
6626.85
6628.26
6629.34
6630.88
6632.63
6633.55
6635.42
6636.69
6638.56
6640.07
6642.65
6644.23
6647.55
6649.34
6653.73
6655.83
6663.48
6663.96
6714.28
6914.55
78935.7
8223.9
7679.26
7371.05
7184.44
7060.86
6973.75
6909.04
6859.64
6820.63
6789.49
6763.93
6742.96
6725.25
6710.43
6697.65
6686.82
6677.29
6669.16
6661.88
6655.65
6649.96
6645.06
6640.58
6636.8
6633.15
6630.03
6627.11
6624.7
6622.27
6620.24
6618.29
6616.67
6615.09
6613.86
6612.45
6611.34
6610.29
6609.55
6608.49
6607.78
6607.14
6606.64
6605.47
6605.35
6605.27
6605.17
6605.02
6604.79
6604.28
6604.18
6603.87
6604.74
6604.99
6604.99
6604.96
6605.89
6606.74
6606.85
6606.85
6606.84
6607.76
6608.36
6608.36
6609
6610.45
6610.45
6610.45
6611.5
6611.5
6612.6
6613.88
6615.15
6616.34
6618.01
6618.01
6619.14
6620.55
6621.63
6623.16
6624.91
6625.84
6627.71
6628.98
6630.86
6632.36
6634.94
6636.51
6639.83
6641.62
6646
6648.09
6655.74
6656.17
6707.73
6907.56
75461.9
8223.96
7677.97
7368.34
7180.63
7056.22
6968.49
6903.31
6853.53
6814.2
6782.82
6757.05
6735.89
6718.03
6703.09
6690.19
6679.26
6669.64
6661.44
6654.08
6647.79
6642.05
6637.11
6632.58
6628.76
6625.08
6621.92
6618.97
6616.54
6614.08
6612.02
6610.05
6608.42
6606.81
6605.57
6604.14
6603.02
6601.95
6601.19
6600.13
6599.4
6598.76
6598.25
6597.08
6596.94
6596.85
6596.75
6596.58
6596.36
6595.84
6595.74
6595.41
6596.27
6596.51
6596.51
6596.48
6597.4
6598.24
6598.35
6598.35
6598.34
6599.26
6599.85
6599.85
6600.49
6601.93
6601.93
6601.93
6602.98
6602.98
6604.08
6605.35
6606.62
6607.8
6609.48
6609.48
6610.61
6612.01
6613.1
6614.63
6616.38
6617.31
6619.18
6620.45
6622.33
6623.83
6626.4
6627.98
6631.29
6633.08
6637.45
6639.54
6647.18
6647.54
6700.5
6899.77
72047.4
8224.03
7676.57
7365.38
7176.46
7051.15
6962.74
6897.03
6846.83
6807.17
6775.5
6749.49
6728.14
6710.11
6695.03
6682
6670.96
6661.25
6652.96
6645.53
6639.18
6633.37
6628.38
6623.8
6619.94
6616.21
6613.02
6610.04
6607.57
6605.08
6603
6601
6599.35
6597.72
6596.46
6595.02
6593.88
6592.79
6592.03
6590.95
6590.22
6589.55
6589.04
6587.86
6587.71
6587.61
6587.5
6587.32
6587.1
6586.58
6586.46
6586.12
6586.98
6587.2
6587.2
6587.16
6588.08
6588.92
6589.02
6589.02
6589.01
6589.93
6590.51
6590.51
6591.14
6592.58
6592.58
6592.59
6593.63
6593.63
6594.73
6595.99
6597.26
6598.43
6600.11
6600.11
6601.25
6602.65
6603.74
6605.25
6607.01
6607.94
6609.81
6611.09
6612.97
6614.46
6617.04
6618.6
6621.92
6623.7
6628.07
6630.14
6637.77
6638.07
6692.58
6891.17
68698.2
8224.1
7675.06
7362.19
7171.94
7045.65
6956.49
6890.2
6839.54
6799.5
6767.53
6741.27
6719.7
6701.49
6686.25
6673.08
6661.93
6652.11
6643.73
6636.22
6629.78
6623.92
6618.86
6614.23
6610.32
6606.55
6603.32
6600.3
6597.8
6595.28
6593.17
6591.15
6589.47
6587.82
6586.54
6585.07
6583.92
6582.82
6582.04
6580.94
6580.2
6579.52
6579
6577.82
6577.65
6577.53
6577.41
6577.23
6577
6576.48
6576.36
6575.99
6576.84
6577.05
6577.05
6577.01
6577.92
6578.75
6578.85
6578.85
6578.83
6579.75
6580.32
6580.32
6580.95
6582.39
6582.39
6582.39
6583.43
6583.43
6584.53
6585.78
6587.06
6588.21
6589.9
6589.9
6591.04
6592.43
6593.53
6595.03
6596.8
6597.73
6599.59
6600.87
6602.76
6604.24
6606.82
6608.38
6611.69
6613.47
6617.83
6619.89
6627.51
6627.75
6683.94
6881.74
65419.9
8224.19
7673.44
7358.75
7167.07
7039.7
6949.74
6882.81
6831.65
6791.21
6758.91
6732.37
6710.57
6692.15
6676.74
6663.42
6652.14
6642.2
6633.72
6626.12
6619.61
6613.67
6608.55
6603.86
6599.89
6596.08
6592.8
6589.74
6587.2
6584.65
6582.52
6580.46
6578.76
6577.08
6575.78
6574.29
6573.13
6572
6571.2
6570.1
6569.33
6568.64
6568.11
6566.93
6566.74
6566.6
6566.48
6566.28
6566.05
6565.53
6565.39
6565.01
6565.85
6566.05
6566.05
6566
6566.9
6567.72
6567.81
6567.81
6567.8
6568.71
6569.27
6569.27
6569.9
6571.34
6571.34
6571.34
6572.37
6572.37
6573.47
6574.71
6575.99
6577.13
6578.83
6578.83
6579.96
6581.35
6582.46
6583.95
6585.72
6586.65
6588.52
6589.79
6591.68
6593.16
6595.74
6597.3
6600.6
6602.38
6606.73
6608.78
6616.38
6616.55
6674.57
6871.48
62217.7
8224.29
7671.72
7355.07
7161.84
7033.32
6942.47
6874.87
6823.17
6782.29
6749.62
6722.78
6700.72
6682.09
6666.49
6653.01
6641.58
6631.53
6622.93
6615.23
6608.64
6602.62
6597.43
6592.67
6588.65
6584.78
6581.46
6578.35
6575.78
6573.19
6571.02
6568.93
6567.2
6565.5
6564.17
6562.67
6561.48
6560.33
6559.52
6558.39
6557.62
6556.91
6556.37
6555.18
6554.97
6554.82
6554.68
6554.48
6554.24
6553.72
6553.57
6553.16
6553.99
6554.18
6554.17
6554.12
6555.01
6555.82
6555.91
6555.91
6555.89
6556.81
6557.35
6557.35
6557.98
6559.41
6559.41
6559.41
6560.44
6560.44
6561.54
6562.76
6564.05
6565.17
6566.88
6566.88
6568.01
6569.4
6570.52
6571.99
6573.76
6574.7
6576.56
6577.84
6579.73
6581.2
6583.78
6585.33
6588.63
6590.41
6594.75
6596.78
6604.37
6604.47
6664.47
6860.36
59096.5
8224.41
7669.89
7351.15
7156.26
7026.49
6934.7
6866.36
6814.07
6772.72
6739.66
6712.49
6690.16
6671.29
6655.49
6641.84
6630.26
6620.06
6611.35
6603.55
6596.86
6590.75
6585.49
6580.66
6576.58
6572.66
6569.28
6566.13
6563.51
6560.88
6558.68
6556.56
6554.8
6553.06
6551.71
6550.18
6548.97
6547.79
6546.96
6545.82
6545.03
6544.3
6543.76
6542.56
6542.33
6542.16
6542.01
6541.79
6541.55
6541.02
6540.87
6540.43
6541.25
6541.42
6541.42
6541.36
6542.25
6543.05
6543.13
6543.12
6543.1
6544.02
6544.55
6544.55
6545.17
6546.6
6546.6
6546.6
6547.62
6547.62
6548.72
6549.93
6551.22
6552.32
6554.04
6554.04
6555.17
6556.56
6557.68
6559.14
6560.92
6561.86
6563.72
6565
6566.89
6568.35
6570.93
6572.48
6575.77
6577.54
6581.87
6583.89
6591.47
6591.49
6653.62
6848.37
56060.8
8224.53
7667.97
7346.99
7150.33
7019.22
6926.41
6857.28
6804.37
6762.5
6729.03
6701.51
6678.88
6659.75
6643.73
6629.89
6618.15
6607.81
6598.97
6591.05
6584.26
6578.06
6572.72
6567.82
6563.67
6559.68
6556.25
6553.05
6550.39
6547.72
6545.47
6543.31
6541.52
6539.75
6538.37
6536.82
6535.58
6534.38
6533.53
6532.38
6531.57
6530.81
6530.26
6529.05
6528.8
6528.61
6528.45
6528.22
6527.98
6527.44
6527.27
6526.81
6527.62
6527.78
6527.78
6527.7
6528.58
6529.37
6529.44
6529.44
6529.42
6530.33
6530.85
6530.85
6531.46
6532.88
6532.89
6532.89
6533.91
6533.91
6535
6536.19
6537.49
6538.57
6540.3
6540.3
6541.43
6542.81
6543.95
6545.38
6547.17
6548.12
6549.97
6551.25
6553.15
6554.6
6557.18
6558.72
6562.01
6563.77
6568.09
6570.1
6577.65
6577.6
6642
6835.49
53114.7
8224.67
7665.95
7342.6
7144.04
7011.51
6917.61
6847.64
6794.05
6751.63
6717.71
6689.81
6666.86
6647.47
6631.21
6617.17
6605.25
6594.76
6585.78
6577.74
6570.83
6564.54
6559.11
6554.13
6549.91
6545.86
6542.37
6539.11
6536.4
6533.68
6531.4
6529.2
6527.37
6525.57
6524.16
6522.57
6521.31
6520.09
6519.22
6518.04
6517.21
6516.43
6515.87
6514.65
6514.38
6514.17
6514
6513.75
6513.5
6512.96
6512.78
6512.29
6513.08
6513.23
6513.23
6513.14
6514.01
6514.79
6514.85
6514.85
6514.83
6515.74
6516.24
6516.24
6516.84
6518.26
6518.26
6518.27
6519.28
6519.28
6520.37
6521.54
6522.85
6523.91
6525.65
6525.65
6526.78
6528.15
6529.29
6530.72
6532.51
6533.46
6535.31
6536.59
6538.49
6539.93
6542.51
6544.05
6547.32
6549.09
6553.4
6555.38
6562.92
6562.79
6629.59
6821.71
50261.9
8224.83
7663.84
7337.98
7137.41
7003.35
6908.3
6837.41
6783.11
6740.11
6705.7
6677.4
6654.11
6634.43
6617.92
6603.66
6591.55
6580.89
6571.77
6563.59
6556.57
6550.18
6544.65
6539.58
6535.28
6531.17
6527.62
6524.3
6521.53
6518.77
6516.44
6514.19
6512.33
6510.49
6509.05
6507.43
6506.15
6504.89
6504
6502.8
6501.95
6501.15
6500.57
6499.35
6499.04
6498.81
6498.63
6498.37
6498.11
6497.57
6497.37
6496.86
6497.63
6497.76
6497.76
6497.66
6498.52
6499.28
6499.34
6499.34
6499.31
6500.22
6500.7
6500.71
6501.3
6502.72
6502.72
6502.72
6503.73
6503.72
6504.82
6505.97
6507.28
6508.32
6510.07
6510.07
6511.2
6512.57
6513.72
6515.12
6516.92
6517.87
6519.72
6520.99
6522.9
6524.33
6526.91
6528.44
6531.71
6533.47
6537.77
6539.74
6547.25
6547.03
6616.38
6807.01
47505.9
8225
7661.65
7333.14
7130.43
6994.75
6898.47
6826.62
6771.54
6727.92
6693
6664.27
6640.62
6620.62
6603.85
6589.36
6577.04
6566.2
6556.93
6548.61
6541.47
6534.96
6529.33
6524.17
6519.79
6515.6
6511.98
6508.6
6505.77
6502.96
6500.58
6498.29
6496.39
6494.51
6493.03
6491.39
6490.07
6488.79
6487.86
6486.65
6485.77
6484.95
6484.36
6483.12
6482.79
6482.54
6482.34
6482.06
6481.8
6481.25
6481.04
6480.5
6481.25
6481.36
6481.36
6481.25
6482.1
6482.85
6482.9
6482.9
6482.87
6483.77
6484.24
6484.24
6484.83
6486.23
6486.23
6486.24
6487.24
6487.23
6488.33
6489.46
6490.78
6491.79
6493.55
6493.55
6494.68
6496.04
6497.2
6498.58
6500.38
6501.34
6503.19
6504.46
6506.37
6507.79
6510.37
6511.89
6515.15
6516.91
6521.19
6523.14
6530.64
6530.33
6602.34
6791.36
44849.8
8225.2
7659.37
7328.07
7123.1
6985.72
6888.12
6815.25
6759.35
6715.07
6679.6
6650.41
6626.38
6606.05
6588.99
6574.25
6561.72
6550.69
6541.25
6532.78
6525.51
6518.88
6513.15
6507.89
6503.42
6499.15
6495.46
6492.01
6489.12
6486.25
6483.83
6481.49
6479.54
6477.62
6476.11
6474.43
6473.08
6471.76
6470.81
6469.57
6468.67
6467.82
6467.22
6465.97
6465.61
6465.33
6465.12
6464.82
6464.55
6463.99
6463.77
6463.2
6463.93
6464.03
6464.03
6463.9
6464.74
6465.47
6465.51
6465.51
6465.47
6466.38
6466.83
6466.83
6467.41
6468.8
6468.81
6468.81
6469.8
6469.8
6470.89
6472
6473.32
6474.31
6476.08
6476.08
6477.21
6478.56
6479.73
6481.1
6482.9
6483.86
6485.71
6486.98
6488.89
6490.3
6492.88
6494.39
6497.64
6499.39
6503.66
6505.59
6513.07
6512.67
6587.45
6774.74
42296.1
8225.41
7657
7322.78
7115.44
6976.24
6877.25
6803.3
6746.54
6701.55
6665.5
6635.82
6611.38
6590.7
6573.34
6558.34
6545.58
6534.35
6524.73
6516.1
6508.69
6501.93
6496.09
6490.72
6486.16
6481.8
6478.04
6474.51
6471.57
6468.64
6466.16
6463.77
6461.77
6459.81
6458.25
6456.54
6455.16
6453.8
6452.83
6451.56
6450.64
6449.75
6449.14
6447.87
6447.48
6447.18
6446.95
6446.64
6446.36
6445.79
6445.56
6444.96
6445.66
6445.75
6445.74
6445.6
6446.43
6447.14
6447.17
6447.17
6447.13
6448.03
6448.46
6448.46
6449.03
6450.42
6450.42
6450.42
6451.4
6451.4
6452.49
6453.58
6454.91
6455.87
6457.65
6457.65
6458.78
6460.12
6461.3
6462.65
6464.45
6465.42
6467.26
6468.52
6470.45
6471.84
6474.42
6475.92
6479.16
6480.9
6485.16
6487.07
6494.53
6494.03
6571.69
6757.13
39847.3
8225.63
7654.57
7317.29
7107.44
6966.33
6865.88
6790.77
6733.1
6687.36
6650.69
6620.51
6595.62
6574.57
6556.9
6541.61
6528.61
6517.17
6507.35
6498.56
6491
6484.1
6478.14
6472.67
6468
6463.56
6459.71
6456.11
6453.09
6450.1
6447.56
6445.12
6443.08
6441.06
6439.47
6437.71
6436.3
6434.91
6433.9
6432.6
6431.65
6430.74
6430.11
6428.83
6428.41
6428.08
6427.83
6427.49
6427.21
6426.63
6426.39
6425.75
6426.43
6426.5
6426.5
6426.34
6427.15
6427.84
6427.87
6427.86
6427.82
6428.71
6429.12
6429.12
6429.68
6431.06
6431.06
6431.06
6432.04
6432.04
6433.13
6434.19
6435.52
6436.46
6438.24
6438.24
6439.37
6440.71
6441.9
6443.22
6445.03
6446
6447.83
6449.1
6451.02
6452.41
6454.98
6456.48
6459.7
6461.44
6465.68
6467.57
6475.01
6474.41
6555.04
6738.5
37505.3
8225.88
7652.06
7311.58
7099.11
6955.99
6853.99
6777.67
6719.03
6672.5
6635.18
6604.45
6579.11
6557.66
6539.65
6524.07
6510.81
6499.14
6489.12
6480.15
6472.43
6465.39
6459.3
6453.71
6448.94
6444.4
6440.47
6436.79
6433.7
6430.64
6428.04
6425.54
6423.44
6421.38
6419.74
6417.94
6416.49
6415.06
6414.02
6412.69
6411.72
6410.77
6410.12
6408.82
6408.37
6408.02
6407.75
6407.39
6407.1
6406.51
6406.25
6405.58
6406.23
6406.29
6406.28
6406.1
6406.9
6407.56
6407.59
6407.58
6407.53
6408.42
6408.81
6408.81
6409.36
6410.72
6410.73
6410.73
6411.69
6411.69
6412.78
6413.81
6415.15
6416.06
6417.85
6417.85
6418.98
6420.31
6421.51
6422.81
6424.62
6425.59
6427.42
6428.68
6430.61
6431.98
6434.55
6436.04
6439.26
6440.98
6445.21
6447.07
6454.5
6453.8
6537.47
6718.8
35271.6
8226.16
7649.49
7305.68
7090.46
6945.22
6841.59
6763.99
6704.33
6656.97
6618.97
6587.65
6561.83
6539.96
6521.59
6505.7
6492.17
6480.25
6470.03
6460.87
6452.98
6445.79
6439.57
6433.85
6428.97
6424.33
6420.31
6416.54
6413.37
6410.24
6407.58
6405.01
6402.86
6400.74
6399.06
6397.22
6395.73
6394.25
6393.18
6391.82
6390.82
6389.84
6389.17
6387.85
6387.37
6386.98
6386.69
6386.31
6386.01
6385.4
6385.13
6384.43
6385.05
6385.09
6385.09
6384.88
6385.67
6386.31
6386.32
6386.32
6386.26
6387.14
6387.51
6387.51
6388.05
6389.4
6389.41
6389.4
6390.35
6390.35
6391.44
6392.45
6393.79
6394.67
6396.47
6396.47
6397.6
6398.91
6400.12
6401.4
6403.21
6404.19
6406.02
6407.27
6409.21
6410.56
6413.12
6414.61
6417.81
6419.53
6423.73
6425.57
6432.98
6432.18
6518.95
6698.02
33147.8
8226.45
7646.86
7299.59
7081.49
6934.03
6828.68
6749.74
6689
6640.77
6602.04
6570.12
6543.78
6521.47
6502.72
6486.5
6472.69
6460.52
6450.07
6440.71
6432.64
6425.29
6418.93
6413.08
6408.08
6403.33
6399.22
6395.35
6392.11
6388.9
6386.17
6383.54
6381.33
6379.16
6377.42
6375.54
6374
6372.48
6371.37
6369.98
6368.95
6367.93
6367.24
6365.9
6365.38
6364.96
6364.65
6364.25
6363.94
6363.32
6363.03
6362.3
6362.88
6362.91
6362.9
6362.68
6363.45
6364.05
6364.06
6364.06
6363.99
6364.87
6365.21
6365.21
6365.74
6367.07
6367.08
6367.08
6368.02
6368.02
6369.11
6370.08
6371.43
6372.27
6374.08
6374.08
6375.21
6376.52
6377.74
6378.99
6380.8
6381.78
6383.6
6384.85
6386.79
6388.13
6390.69
6392.16
6395.35
6397.06
6401.25
6403.06
6410.45
6409.55
6499.47
6676.1
31134.7
8226.77
7644.17
7293.31
7072.2
6922.42
6815.28
6734.93
6673.05
6623.9
6584.4
6551.84
6524.96
6502.19
6483.04
6466.47
6452.36
6439.92
6429.24
6419.66
6411.41
6403.89
6397.37
6391.39
6386.27
6381.41
6377.19
6373.23
6369.9
6366.61
6363.81
6361.11
6358.84
6356.6
6354.82
6352.88
6351.31
6349.74
6348.59
6347.17
6346.1
6345.04
6344.32
6342.97
6342.42
6341.96
6341.63
6341.2
6340.87
6340.24
6339.94
6339.17
6339.72
6339.73
6339.72
6339.47
6340.22
6340.8
6340.81
6340.81
6340.73
6341.59
6341.91
6341.91
6342.42
6343.74
6343.75
6343.75
6344.67
6344.68
6345.76
6346.7
6348.06
6348.87
6350.69
6350.68
6351.81
6353.1
6354.33
6355.57
6357.38
6358.35
6360.17
6361.42
6363.36
6364.69
6367.24
6368.7
6371.87
6373.57
6377.74
6379.53
6386.89
6385.89
6478.98
6653.01
29233.4
8227.11
7641.44
7286.86
7062.62
6910.41
6801.38
6719.54
6656.48
6606.35
6566.06
6532.83
6505.37
6482.12
6462.55
6445.61
6431.18
6418.45
6407.53
6397.73
6389.28
6381.59
6374.91
6368.77
6363.53
6358.54
6354.22
6350.16
6346.73
6343.37
6340.49
6337.72
6335.38
6333.08
6331.24
6329.26
6327.63
6326.02
6324.82
6323.36
6322.26
6321.16
6320.42
6319.05
6318.45
6317.96
6317.6
6317.15
6316.81
6316.16
6315.84
6315.05
6315.55
6315.55
6315.54
6315.25
6315.99
6316.53
6316.54
6316.54
6316.45
6317.3
6317.6
6317.6
6318.09
6319.4
6319.41
6319.4
6320.31
6320.32
6321.4
6322.31
6323.67
6324.45
6326.27
6326.27
6327.39
6328.67
6329.91
6331.12
6332.93
6333.9
6335.72
6336.96
6338.9
6340.21
6342.76
6344.21
6347.36
6349.05
6353.2
6354.96
6362.31
6361.21
6457.44
6628.73
27444.3
8227.48
7638.66
7280.23
7052.74
6897.99
6786.99
6703.6
6639.29
6588.15
6547.01
6513.07
6485.02
6461.25
6441.24
6423.91
6409.14
6396.13
6384.94
6374.91
6366.25
6358.37
6351.52
6345.23
6339.85
6334.74
6330.31
6326.14
6322.62
6319.16
6316.21
6313.35
6310.96
6308.59
6306.68
6304.65
6302.97
6301.3
6300.07
6298.57
6297.43
6296.29
6295.52
6294.13
6293.49
6292.96
6292.58
6292.09
6291.74
6291.07
6290.74
6289.91
6290.37
6290.37
6290.34
6290.03
6290.75
6291.25
6291.26
6291.26
6291.15
6291.99
6292.27
6292.27
6292.74
6294.03
6294.04
6294.03
6294.93
6294.94
6296.02
6296.89
6298.25
6298.99
6300.82
6300.82
6301.94
6303.21
6304.46
6305.64
6307.44
6308.42
6310.23
6311.46
6313.41
6314.71
6317.24
6318.68
6321.82
6323.5
6327.62
6329.36
6336.68
6335.48
6434.78
6603.22
25768.1
8227.87
7635.85
7273.45
7042.58
6885.18
6772.12
6687.11
6621.49
6569.28
6527.26
6492.57
6463.89
6439.58
6419.11
6401.38
6386.26
6372.93
6361.47
6351.19
6342.32
6334.24
6327.22
6320.77
6315.24
6310
6305.44
6301.16
6297.54
6293.99
6290.95
6288.02
6285.55
6283.11
6281.15
6279.05
6277.33
6275.6
6274.32
6272.78
6271.6
6270.41
6269.62
6268.2
6267.52
6266.95
6266.54
6266.03
6265.66
6264.97
6264.62
6263.76
6264.17
6264.17
6264.13
6263.78
6264.48
6264.95
6264.96
6264.95
6264.83
6265.66
6265.91
6265.91
6266.37
6267.63
6267.64
6267.64
6268.52
6268.52
6269.6
6270.43
6271.8
6272.51
6274.33
6274.33
6275.46
6276.71
6277.97
6279.13
6280.92
6281.9
6283.7
6284.93
6286.88
6288.16
6290.68
6292.11
6295.23
6296.9
6301
6302.7
6310
6308.71
6410.97
6576.47
24205.2
8228.29
7633.01
7266.52
7032.14
6871.99
6756.78
6670.07
6603.08
6549.75
6506.8
6471.34
6442
6417.13
6396.17
6378.02
6362.53
6348.87
6337.12
6326.58
6317.48
6309.19
6301.99
6295.36
6289.68
6284.3
6279.63
6275.23
6271.5
6267.85
6264.73
6261.71
6259.16
6256.65
6254.62
6252.46
6250.68
6248.9
6247.58
6245.99
6244.77
6243.53
6242.71
6241.26
6240.54
6239.93
6239.49
6238.95
6238.56
6237.85
6237.49
6236.6
6236.95
6236.94
6236.89
6236.51
6237.19
6237.62
6237.62
6237.62
6237.48
6238.29
6238.52
6238.52
6238.95
6240.2
6240.21
6240.2
6241.06
6241.07
6242.15
6242.94
6244.31
6244.98
6246.8
6246.81
6247.93
6249.16
6250.43
6251.57
6253.36
6254.34
6256.13
6257.34
6259.29
6260.56
6263.07
6264.49
6267.58
6269.24
6273.32
6275
6282.26
6280.88
6385.92
6548.45
22753.5
8228.73
7630.15
7259.46
7021.44
6858.42
6740.98
6652.48
6584.07
6529.57
6485.65
6449.38
6419.35
6393.88
6372.41
6353.82
6337.94
6323.93
6311.88
6301.07
6291.73
6283.23
6275.83
6269.03
6263.19
6257.66
6252.86
6248.33
6244.49
6240.74
6237.52
6234.42
6231.79
6229.2
6227.1
6224.88
6223.05
6221.2
6219.83
6218.19
6216.93
6215.64
6214.78
6213.31
6212.55
6211.9
6211.43
6210.84
6210.44
6209.71
6209.33
6208.41
6208.7
6208.7
6208.62
6208.2
6208.86
6209.26
6209.25
6209.25
6209.09
6209.89
6210.1
6210.1
6210.5
6211.72
6211.74
6211.73
6212.57
6212.58
6213.65
6214.4
6215.77
6216.41
6218.23
6218.24
6219.36
6220.57
6221.85
6222.96
6224.74
6225.72
6227.5
6228.71
6230.66
6231.91
6234.4
6235.81
6238.88
6240.53
6244.58
6246.23
6253.46
6252
6359.59
6519.13
21407.8
8229.2
7627.28
7252.27
7010.5
6844.5
6724.72
6634.37
6564.47
6508.74
6463.82
6426.69
6395.94
6369.85
6347.85
6328.78
6312.5
6298.14
6285.77
6274.67
6265.08
6256.35
6248.75
6241.76
6235.75
6230.07
6225.13
6220.47
6216.52
6212.66
6209.34
6206.14
6203.43
6200.76
6198.59
6196.3
6194.41
6192.5
6191.07
6189.39
6188.08
6186.74
6185.85
6184.35
6183.54
6182.84
6182.34
6181.72
6181.29
6180.54
6180.14
6179.19
6179.43
6179.42
6179.32
6178.87
6179.5
6179.86
6179.85
6179.85
6179.67
6180.45
6180.63
6180.63
6181.01
6182.21
6182.22
6182.21
6183.03
6183.04
6184.11
6184.81
6186.19
6186.79
6188.6
6188.61
6189.73
6190.92
6192.21
6193.29
6195.06
6196.04
6197.82
6199.01
6200.96
6202.2
6204.68
6206.07
6209.12
6210.75
6214.77
6216.39
6223.59
6222.05
6331.92
6488.48
20163.1
8229.7
7624.4
7244.96
6999.31
6830.23
6708.02
6615.74
6544.28
6487.28
6441.3
6403.28
6371.77
6345.04
6322.48
6302.92
6286.21
6271.47
6258.77
6247.38
6237.52
6228.55
6220.74
6213.55
6207.37
6201.53
6196.44
6191.65
6187.58
6183.6
6180.18
6176.88
6174.09
6171.33
6169.08
6166.73
6164.77
6162.8
6161.31
6159.57
6158.22
6156.83
6155.89
6154.36
6153.51
6152.76
6152.22
6151.56
6151.12
6150.34
6149.92
6148.95
6149.13
6149.1
6148.99
6148.5
6149.1
6149.42
6149.41
6149.4
6149.2
6149.96
6150.12
6150.12
6150.47
6151.64
6151.66
6151.65
6152.45
6152.46
6153.52
6154.17
6155.55
6156.12
6157.92
6157.93
6159.05
6160.22
6161.52
6162.57
6164.33
6165.3
6167.07
6168.25
6170.2
6171.42
6173.88
6175.27
6178.29
6179.9
6183.89
6185.48
6192.65
6191.02
6302.83
6456.48
19014
8230.23
7621.52
7237.55
6987.9
6815.62
6690.89
6596.61
6523.53
6465.19
6418.1
6379.15
6346.86
6319.45
6296.3
6276.24
6259.08
6243.95
6230.9
6219.2
6209.06
6199.84
6191.81
6184.41
6178.05
6172.04
6166.8
6161.87
6157.66
6153.57
6150.05
6146.64
6143.76
6140.91
6138.58
6136.15
6134.13
6132.08
6130.53
6128.74
6127.34
6125.89
6124.92
6123.36
6122.45
6121.65
6121.08
6120.38
6119.91
6119.11
6118.67
6117.67
6117.8
6117.75
6117.61
6117.09
6117.66
6117.93
6117.93
6117.92
6117.68
6118.43
6118.56
6118.56
6118.88
6120.02
6120.04
6120.03
6120.8
6120.81
6121.87
6122.48
6123.85
6124.38
6126.17
6126.19
6127.31
6128.45
6129.76
6130.78
6132.53
6133.5
6135.26
6136.43
6138.37
6139.57
6142.02
6143.39
6146.38
6147.98
6151.94
6153.5
6160.62
6158.93
6272.29
6423.08
17954.9
8230.79
7618.65
7230.05
6976.28
6800.69
6673.34
6576.97
6502.2
6442.49
6394.24
6354.32
6321.21
6293.08
6269.33
6248.73
6231.11
6215.56
6202.16
6190.13
6179.71
6170.22
6161.95
6154.35
6147.79
6141.6
6136.21
6131.12
6126.78
6122.57
6118.93
6115.42
6112.44
6109.49
6107.08
6104.57
6102.48
6100.37
6098.75
6096.91
6095.45
6093.94
6092.92
6091.33
6090.38
6089.52
6088.91
6088.17
6087.68
6086.84
6086.39
6085.36
6085.43
6085.37
6085.2
6084.64
6085.18
6085.4
6085.41
6085.38
6085.12
6085.85
6085.95
6085.95
6086.24
6087.35
6087.37
6087.36
6088.11
6088.12
6089.17
6089.73
6091.1
6091.59
6093.37
6093.39
6094.5
6095.62
6096.94
6097.93
6099.66
6100.63
6102.38
6103.53
6105.47
6106.66
6109.08
6110.44
6113.41
6114.99
6118.92
6120.44
6127.52
6125.76
6240.23
6388.28
16980.1
8231.37
7615.79
7222.47
6964.46
6785.45
6655.4
6556.86
6480.33
6419.17
6369.73
6328.8
6294.82
6265.96
6241.57
6220.42
6202.31
6186.33
6172.54
6160.17
6149.45
6139.69
6131.18
6123.35
6116.59
6110.22
6104.66
6099.41
6094.94
6090.59
6086.84
6083.21
6080.13
6077.08
6074.59
6072
6069.83
6067.64
6065.96
6064.06
6062.55
6060.98
6059.91
6058.28
6057.27
6056.36
6055.71
6054.93
6054.41
6053.54
6053.07