/*--------------------------------*- C++ -*----------------------------------*\
| =========                 |                                                 |
| \\      /  F ield         | OpenFOAM: The Open Source CFD Toolbox           |
|  \\    /   O peration     | Version:  v2012                                 |
|   \\  /    A nd           | Website:  www.openfoam.com                      |
|    \\/     M anipulation  |                                                 |
\*---------------------------------------------------------------------------*/
FoamFile
{
    version     2.0;
    format      ascii;
    class       volVectorField;
    location    "13.5";
    object      wallShearStress;
}
// * * * * * * * * * * * * * * * * * * * * * * * * * * * * * * * * * * * * * //

dimensions      [0 2 -2 0 0 0 0];


internalField   uniform (0 0 0);

boundaryField
{
    inlet
    {
        type            calculated;
        value           uniform (0 0 0);
    }
    outlet
    {
        type            calculated;
        value           uniform (0 0 0);
    }
    topWall
    {
        type            calculated;
        value           nonuniform List<vector> 
545
(
(2.84438e-08 -1.99858e-08 0)
(2.85363e-08 -5.61054e-08 0)
(2.84932e-08 -9.36697e-08 0)
(2.84124e-08 -1.30059e-07 0)
(2.83604e-08 -1.64858e-07 0)
(2.8304e-08 -1.98529e-07 0)
(2.82405e-08 -2.31357e-07 0)
(2.81711e-08 -2.63329e-07 0)
(2.8096e-08 -2.94374e-07 0)
(2.80157e-08 -3.2449e-07 0)
(2.79307e-08 -3.53717e-07 0)
(2.78415e-08 -3.82089e-07 0)
(2.77484e-08 -4.09626e-07 0)
(2.76519e-08 -4.36346e-07 0)
(2.75524e-08 -4.62267e-07 0)
(2.74503e-08 -4.87412e-07 0)
(2.73458e-08 -5.11802e-07 0)
(2.72393e-08 -5.35457e-07 0)
(2.71311e-08 -5.58398e-07 0)
(2.70215e-08 -5.80644e-07 0)
(2.69108e-08 -6.02215e-07 0)
(2.67991e-08 -6.2313e-07 0)
(2.66868e-08 -6.43409e-07 0)
(2.65739e-08 -6.6307e-07 0)
(2.64608e-08 -6.82132e-07 0)
(2.63475e-08 -7.00611e-07 0)
(2.62343e-08 -7.18526e-07 0)
(2.61213e-08 -7.35893e-07 0)
(2.60086e-08 -7.52729e-07 0)
(2.58963e-08 -7.69051e-07 0)
(2.57847e-08 -7.84873e-07 0)
(2.56736e-08 -8.00212e-07 0)
(2.55634e-08 -8.15083e-07 0)
(2.5454e-08 -8.29499e-07 0)
(2.53456e-08 -8.43475e-07 0)
(2.52381e-08 -8.57024e-07 0)
(2.51317e-08 -8.7016e-07 0)
(2.50264e-08 -8.82897e-07 0)
(2.49222e-08 -8.95245e-07 0)
(2.48193e-08 -9.07218e-07 0)
(2.47176e-08 -9.18828e-07 0)
(2.46171e-08 -9.30085e-07 0)
(2.45179e-08 -9.41001e-07 0)
(2.442e-08 -9.51586e-07 0)
(2.43235e-08 -9.61852e-07 0)
(2.42283e-08 -9.71807e-07 0)
(2.41344e-08 -9.81462e-07 0)
(2.40419e-08 -9.90826e-07 0)
(2.39507e-08 -9.99909e-07 0)
(2.38608e-08 -1.00872e-06 0)
(2.37723e-08 -1.01726e-06 0)
(2.36852e-08 -1.02555e-06 0)
(2.35993e-08 -1.03359e-06 0)
(2.35148e-08 -1.0414e-06 0)
(2.34316e-08 -1.04896e-06 0)
(2.33497e-08 -1.05631e-06 0)
(2.3269e-08 -1.06343e-06 0)
(2.31896e-08 -1.07034e-06 0)
(2.31114e-08 -1.07705e-06 0)
(2.30345e-08 -1.08356e-06 0)
(2.29587e-08 -1.08988e-06 0)
(2.28841e-08 -1.09601e-06 0)
(2.28107e-08 -1.10195e-06 0)
(2.27384e-08 -1.10773e-06 0)
(2.26672e-08 -1.11333e-06 0)
(2.2597e-08 -1.11877e-06 0)
(2.25279e-08 -1.12405e-06 0)
(2.24598e-08 -1.12917e-06 0)
(2.23928e-08 -1.13415e-06 0)
(2.23264e-08 -1.13897e-06 0)
(2.22624e-08 -1.14367e-06 0)
(2.2192e-08 -1.14822e-06 0)
(2.21271e-08 -1.15255e-06 0)
(2.20751e-08 -1.1568e-06 0)
(2.20216e-08 -1.161e-06 0)
(2.19684e-08 -1.16514e-06 0)
(2.19153e-08 -1.16927e-06 0)
(2.18623e-08 -1.17339e-06 0)
(2.18092e-08 -1.17746e-06 0)
(2.17563e-08 -1.18151e-06 0)
(2.17034e-08 -1.18553e-06 0)
(2.16506e-08 -1.18952e-06 0)
(2.15978e-08 -1.19348e-06 0)
(2.15451e-08 -1.19742e-06 0)
(2.14925e-08 -1.20133e-06 0)
(2.14399e-08 -1.20521e-06 0)
(2.13875e-08 -1.20906e-06 0)
(2.13351e-08 -1.21289e-06 0)
(2.12827e-08 -1.21669e-06 0)
(2.12305e-08 -1.22046e-06 0)
(2.11784e-08 -1.22421e-06 0)
(2.11261e-08 -1.22793e-06 0)
(2.10747e-08 -1.23164e-06 0)
(2.10203e-08 -1.23523e-06 0)
(2.0978e-08 -1.23896e-06 0)
(2.08747e-08 -1.24263e-06 0)
(2.07678e-08 -1.24564e-06 0)
(2.07287e-08 -1.24872e-06 0)
(2.0686e-08 -1.25174e-06 0)
(2.06458e-08 -1.25448e-06 0)
(2.06057e-08 -1.25739e-06 0)
(2.05656e-08 -1.26032e-06 0)
(2.05253e-08 -1.26325e-06 0)
(2.04849e-08 -1.26615e-06 0)
(2.04444e-08 -1.26906e-06 0)
(2.04037e-08 -1.27197e-06 0)
(2.03628e-08 -1.27489e-06 0)
(2.03218e-08 -1.2778e-06 0)
(2.02806e-08 -1.28072e-06 0)
(2.02392e-08 -1.28363e-06 0)
(2.01977e-08 -1.28655e-06 0)
(2.0156e-08 -1.28947e-06 0)
(2.01142e-08 -1.29239e-06 0)
(2.00722e-08 -1.29531e-06 0)
(2.003e-08 -1.29823e-06 0)
(1.99876e-08 -1.30115e-06 0)
(1.99451e-08 -1.30408e-06 0)
(1.99024e-08 -1.307e-06 0)
(1.98595e-08 -1.30992e-06 0)
(1.98165e-08 -1.31285e-06 0)
(1.97732e-08 -1.31577e-06 0)
(1.97298e-08 -1.3187e-06 0)
(1.96862e-08 -1.32162e-06 0)
(1.96424e-08 -1.32455e-06 0)
(1.95985e-08 -1.32748e-06 0)
(1.95544e-08 -1.3304e-06 0)
(1.951e-08 -1.33333e-06 0)
(1.94655e-08 -1.33626e-06 0)
(1.94208e-08 -1.33918e-06 0)
(1.9376e-08 -1.34211e-06 0)
(1.93309e-08 -1.34504e-06 0)
(1.92857e-08 -1.34797e-06 0)
(1.92403e-08 -1.35089e-06 0)
(1.91947e-08 -1.35382e-06 0)
(1.91489e-08 -1.35675e-06 0)
(1.91029e-08 -1.35968e-06 0)
(1.90567e-08 -1.3626e-06 0)
(1.90104e-08 -1.36553e-06 0)
(1.89638e-08 -1.36846e-06 0)
(1.89171e-08 -1.37139e-06 0)
(1.88702e-08 -1.37431e-06 0)
(1.88231e-08 -1.37724e-06 0)
(1.87758e-08 -1.38016e-06 0)
(1.87283e-08 -1.38309e-06 0)
(1.86806e-08 -1.38601e-06 0)
(1.86328e-08 -1.38894e-06 0)
(1.85848e-08 -1.39186e-06 0)
(1.85365e-08 -1.39478e-06 0)
(1.84881e-08 -1.3977e-06 0)
(1.84395e-08 -1.40062e-06 0)
(1.83907e-08 -1.40354e-06 0)
(1.83418e-08 -1.40646e-06 0)
(1.82926e-08 -1.40938e-06 0)
(1.82432e-08 -1.4123e-06 0)
(1.81937e-08 -1.41521e-06 0)
(1.8144e-08 -1.41813e-06 0)
(1.80941e-08 -1.42104e-06 0)
(1.8044e-08 -1.42396e-06 0)
(1.79937e-08 -1.42687e-06 0)
(1.79432e-08 -1.42978e-06 0)
(1.78926e-08 -1.43269e-06 0)
(1.78417e-08 -1.4356e-06 0)
(1.77907e-08 -1.4385e-06 0)
(1.77394e-08 -1.44141e-06 0)
(1.7688e-08 -1.44431e-06 0)
(1.76364e-08 -1.44721e-06 0)
(1.75847e-08 -1.45011e-06 0)
(1.75327e-08 -1.45301e-06 0)
(1.74805e-08 -1.4559e-06 0)
(1.74282e-08 -1.4588e-06 0)
(1.73757e-08 -1.46169e-06 0)
(1.73229e-08 -1.46458e-06 0)
(1.727e-08 -1.46747e-06 0)
(1.72169e-08 -1.47036e-06 0)
(1.71637e-08 -1.47324e-06 0)
(1.71102e-08 -1.47612e-06 0)
(1.70565e-08 -1.479e-06 0)
(1.70027e-08 -1.48188e-06 0)
(1.69487e-08 -1.48476e-06 0)
(1.68945e-08 -1.48763e-06 0)
(1.68401e-08 -1.4905e-06 0)
(1.67855e-08 -1.49337e-06 0)
(1.67307e-08 -1.49623e-06 0)
(1.66757e-08 -1.49909e-06 0)
(1.66206e-08 -1.50195e-06 0)
(1.65653e-08 -1.50481e-06 0)
(1.65098e-08 -1.50767e-06 0)
(1.64541e-08 -1.51052e-06 0)
(1.63982e-08 -1.51337e-06 0)
(1.63421e-08 -1.51621e-06 0)
(1.62858e-08 -1.51905e-06 0)
(1.62294e-08 -1.52189e-06 0)
(1.61728e-08 -1.52473e-06 0)
(1.6116e-08 -1.52756e-06 0)
(1.6059e-08 -1.53039e-06 0)
(1.60018e-08 -1.53322e-06 0)
(1.59444e-08 -1.53604e-06 0)
(1.58869e-08 -1.53886e-06 0)
(1.58291e-08 -1.54167e-06 0)
(1.57712e-08 -1.54449e-06 0)
(1.57131e-08 -1.54729e-06 0)
(1.56548e-08 -1.5501e-06 0)
(1.55964e-08 -1.5529e-06 0)
(1.55377e-08 -1.55569e-06 0)
(1.54789e-08 -1.55849e-06 0)
(1.54199e-08 -1.56127e-06 0)
(1.53607e-08 -1.56406e-06 0)
(1.53013e-08 -1.56684e-06 0)
(1.52418e-08 -1.56962e-06 0)
(1.51821e-08 -1.57239e-06 0)
(1.51222e-08 -1.57515e-06 0)
(1.50621e-08 -1.57792e-06 0)
(1.50018e-08 -1.58067e-06 0)
(1.49414e-08 -1.58343e-06 0)
(1.48807e-08 -1.58618e-06 0)
(1.48199e-08 -1.58892e-06 0)
(1.4759e-08 -1.59166e-06 0)
(1.46978e-08 -1.59439e-06 0)
(1.46365e-08 -1.59712e-06 0)
(1.4575e-08 -1.59985e-06 0)
(1.45133e-08 -1.60257e-06 0)
(1.44514e-08 -1.60528e-06 0)
(1.43894e-08 -1.60799e-06 0)
(1.43272e-08 -1.61069e-06 0)
(1.42649e-08 -1.61339e-06 0)
(1.42023e-08 -1.61608e-06 0)
(1.41396e-08 -1.61877e-06 0)
(1.40767e-08 -1.62145e-06 0)
(1.40137e-08 -1.62413e-06 0)
(1.39505e-08 -1.6268e-06 0)
(1.38871e-08 -1.62946e-06 0)
(1.38235e-08 -1.63212e-06 0)
(1.37598e-08 -1.63477e-06 0)
(1.36959e-08 -1.63742e-06 0)
(1.36319e-08 -1.64006e-06 0)
(1.35677e-08 -1.64269e-06 0)
(1.35033e-08 -1.64532e-06 0)
(1.34388e-08 -1.64794e-06 0)
(1.33741e-08 -1.65056e-06 0)
(1.33092e-08 -1.65317e-06 0)
(1.32442e-08 -1.65577e-06 0)
(1.3179e-08 -1.65836e-06 0)
(1.31137e-08 -1.66095e-06 0)
(1.30482e-08 -1.66353e-06 0)
(1.29825e-08 -1.66611e-06 0)
(1.29167e-08 -1.66868e-06 0)
(1.28508e-08 -1.67124e-06 0)
(1.27847e-08 -1.67379e-06 0)
(1.27184e-08 -1.67634e-06 0)
(1.2652e-08 -1.67888e-06 0)
(1.25854e-08 -1.68141e-06 0)
(1.25187e-08 -1.68393e-06 0)
(1.24519e-08 -1.68645e-06 0)
(1.23849e-08 -1.68896e-06 0)
(1.23177e-08 -1.69146e-06 0)
(1.22505e-08 -1.69395e-06 0)
(1.2183e-08 -1.69644e-06 0)
(1.21155e-08 -1.69892e-06 0)
(1.20477e-08 -1.70139e-06 0)
(1.19799e-08 -1.70385e-06 0)
(1.19119e-08 -1.7063e-06 0)
(1.18438e-08 -1.70875e-06 0)
(1.17755e-08 -1.71118e-06 0)
(1.17071e-08 -1.71361e-06 0)
(1.16385e-08 -1.71603e-06 0)
(1.15702e-08 -1.71846e-06 0)
(1.14998e-08 -1.7208e-06 0)
(1.14367e-08 -1.72331e-06 0)
(1.13354e-08 -1.72564e-06 0)
(1.12315e-08 -1.72768e-06 0)
(1.11709e-08 -1.73001e-06 0)
(1.11107e-08 -1.73219e-06 0)
(1.10528e-08 -1.73418e-06 0)
(1.09944e-08 -1.7363e-06 0)
(1.09355e-08 -1.73847e-06 0)
(1.08759e-08 -1.74065e-06 0)
(1.08156e-08 -1.74281e-06 0)
(1.07547e-08 -1.74499e-06 0)
(1.0693e-08 -1.74718e-06 0)
(1.06306e-08 -1.74939e-06 0)
(1.05674e-08 -1.75161e-06 0)
(1.05036e-08 -1.75383e-06 0)
(1.0439e-08 -1.75607e-06 0)
(1.03736e-08 -1.75831e-06 0)
(1.03076e-08 -1.76057e-06 0)
(1.02407e-08 -1.76284e-06 0)
(1.01732e-08 -1.76511e-06 0)
(1.01048e-08 -1.7674e-06 0)
(1.00357e-08 -1.76969e-06 0)
(9.96584e-09 -1.772e-06 0)
(9.8952e-09 -1.77431e-06 0)
(9.82378e-09 -1.77663e-06 0)
(9.75158e-09 -1.77896e-06 0)
(9.6786e-09 -1.78129e-06 0)
(9.60483e-09 -1.78364e-06 0)
(9.53027e-09 -1.78599e-06 0)
(9.45491e-09 -1.78835e-06 0)
(9.37875e-09 -1.79071e-06 0)
(9.30178e-09 -1.79308e-06 0)
(9.22401e-09 -1.79546e-06 0)
(9.14543e-09 -1.79784e-06 0)
(9.06604e-09 -1.80023e-06 0)
(8.98583e-09 -1.80262e-06 0)
(8.9048e-09 -1.80502e-06 0)
(8.82295e-09 -1.80742e-06 0)
(8.74027e-09 -1.80982e-06 0)
(8.65677e-09 -1.81223e-06 0)
(8.57244e-09 -1.81464e-06 0)
(8.48728e-09 -1.81705e-06 0)
(8.4013e-09 -1.81946e-06 0)
(8.31448e-09 -1.82188e-06 0)
(8.22682e-09 -1.82429e-06 0)
(8.13833e-09 -1.82671e-06 0)
(8.04901e-09 -1.82913e-06 0)
(7.95885e-09 -1.83154e-06 0)
(7.86786e-09 -1.83395e-06 0)
(7.77604e-09 -1.83636e-06 0)
(7.68338e-09 -1.83877e-06 0)
(7.58988e-09 -1.84118e-06 0)
(7.49556e-09 -1.84358e-06 0)
(7.40041e-09 -1.84598e-06 0)
(7.30442e-09 -1.84837e-06 0)
(7.20761e-09 -1.85075e-06 0)
(7.10998e-09 -1.85313e-06 0)
(7.01153e-09 -1.85551e-06 0)
(6.91226e-09 -1.85787e-06 0)
(6.81217e-09 -1.86023e-06 0)
(6.71128e-09 -1.86257e-06 0)
(6.60958e-09 -1.86491e-06 0)
(6.50707e-09 -1.86724e-06 0)
(6.40378e-09 -1.86955e-06 0)
(6.29969e-09 -1.87185e-06 0)
(6.19481e-09 -1.87414e-06 0)
(6.08916e-09 -1.87641e-06 0)
(5.98274e-09 -1.87867e-06 0)
(5.87555e-09 -1.88092e-06 0)
(5.76761e-09 -1.88314e-06 0)
(5.65892e-09 -1.88535e-06 0)
(5.54949e-09 -1.88754e-06 0)
(5.43934e-09 -1.88971e-06 0)
(5.32846e-09 -1.89186e-06 0)
(5.21687e-09 -1.89399e-06 0)
(5.10459e-09 -1.89609e-06 0)
(4.99162e-09 -1.89817e-06 0)
(4.87797e-09 -1.90023e-06 0)
(4.76366e-09 -1.90226e-06 0)
(4.6487e-09 -1.90426e-06 0)
(4.53311e-09 -1.90624e-06 0)
(4.4169e-09 -1.90818e-06 0)
(4.30009e-09 -1.9101e-06 0)
(4.18268e-09 -1.91199e-06 0)
(4.0647e-09 -1.91384e-06 0)
(3.94617e-09 -1.91566e-06 0)
(3.8271e-09 -1.91744e-06 0)
(3.7075e-09 -1.91919e-06 0)
(3.58741e-09 -1.9209e-06 0)
(3.46684e-09 -1.92257e-06 0)
(3.34581e-09 -1.9242e-06 0)
(3.22434e-09 -1.92579e-06 0)
(3.10246e-09 -1.92734e-06 0)
(2.98018e-09 -1.92884e-06 0)
(2.85753e-09 -1.9303e-06 0)
(2.73453e-09 -1.93171e-06 0)
(2.61122e-09 -1.93308e-06 0)
(2.48761e-09 -1.93439e-06 0)
(2.36373e-09 -1.93565e-06 0)
(2.23962e-09 -1.93687e-06 0)
(2.11529e-09 -1.93803e-06 0)
(1.99078e-09 -1.93913e-06 0)
(1.86611e-09 -1.94018e-06 0)
(1.74132e-09 -1.94117e-06 0)
(1.61644e-09 -1.9421e-06 0)
(1.4915e-09 -1.94297e-06 0)
(1.36653e-09 -1.94378e-06 0)
(1.24157e-09 -1.94452e-06 0)
(1.11665e-09 -1.9452e-06 0)
(9.91809e-10 -1.94582e-06 0)
(8.67077e-10 -1.94636e-06 0)
(7.42493e-10 -1.94684e-06 0)
(6.18095e-10 -1.94725e-06 0)
(4.9392e-10 -1.94758e-06 0)
(3.70006e-10 -1.94784e-06 0)
(2.46393e-10 -1.94802e-06 0)
(1.23121e-10 -1.94813e-06 0)
(2.28957e-13 -1.94816e-06 0)
(-1.22241e-10 -1.94811e-06 0)
(-2.44248e-10 -1.94798e-06 0)
(-3.65749e-10 -1.94777e-06 0)
(-4.86703e-10 -1.94747e-06 0)
(-6.07067e-10 -1.94709e-06 0)
(-7.26796e-10 -1.94662e-06 0)
(-8.45848e-10 -1.94607e-06 0)
(-9.64179e-10 -1.94542e-06 0)
(-1.08174e-09 -1.94469e-06 0)
(-1.1985e-09 -1.94386e-06 0)
(-1.31439e-09 -1.94294e-06 0)
(-1.42939e-09 -1.94192e-06 0)
(-1.54343e-09 -1.94081e-06 0)
(-1.65649e-09 -1.9396e-06 0)
(-1.7685e-09 -1.93829e-06 0)
(-1.87943e-09 -1.93688e-06 0)
(-1.98922e-09 -1.93538e-06 0)
(-2.09783e-09 -1.93377e-06 0)
(-2.20521e-09 -1.93205e-06 0)
(-2.31132e-09 -1.93024e-06 0)
(-2.4161e-09 -1.92832e-06 0)
(-2.51951e-09 -1.92629e-06 0)
(-2.6215e-09 -1.92415e-06 0)
(-2.72202e-09 -1.92191e-06 0)
(-2.82102e-09 -1.91956e-06 0)
(-2.91846e-09 -1.9171e-06 0)
(-3.01428e-09 -1.91453e-06 0)
(-3.10845e-09 -1.91185e-06 0)
(-3.2009e-09 -1.90906e-06 0)
(-3.29159e-09 -1.90616e-06 0)
(-3.38048e-09 -1.90314e-06 0)
(-3.46752e-09 -1.90001e-06 0)
(-3.55266e-09 -1.89677e-06 0)
(-3.63585e-09 -1.89342e-06 0)
(-3.71706e-09 -1.88995e-06 0)
(-3.79624e-09 -1.88636e-06 0)
(-3.87335e-09 -1.88267e-06 0)
(-3.94835e-09 -1.87886e-06 0)
(-4.02119e-09 -1.87493e-06 0)
(-4.09186e-09 -1.87089e-06 0)
(-4.1603e-09 -1.86674e-06 0)
(-4.2265e-09 -1.86248e-06 0)
(-4.29041e-09 -1.8581e-06 0)
(-4.35202e-09 -1.85361e-06 0)
(-4.4113e-09 -1.849e-06 0)
(-4.46823e-09 -1.84429e-06 0)
(-4.52278e-09 -1.83947e-06 0)
(-4.57495e-09 -1.83453e-06 0)
(-4.62471e-09 -1.82949e-06 0)
(-4.67206e-09 -1.82434e-06 0)
(-4.71698e-09 -1.81908e-06 0)
(-4.75946e-09 -1.81371e-06 0)
(-4.79949e-09 -1.80824e-06 0)
(-4.83707e-09 -1.80266e-06 0)
(-4.87219e-09 -1.79698e-06 0)
(-4.90483e-09 -1.7912e-06 0)
(-4.93499e-09 -1.78532e-06 0)
(-4.96264e-09 -1.77934e-06 0)
(-4.98777e-09 -1.77327e-06 0)
(-5.01036e-09 -1.76709e-06 0)
(-5.03031e-09 -1.76083e-06 0)
(-5.04773e-09 -1.75445e-06 0)
(-5.062e-09 -1.74808e-06 0)
(-5.07918e-09 -1.74136e-06 0)
(-5.08903e-09 -1.73484e-06 0)
(-5.0737e-09 -1.72764e-06 0)
(-5.06495e-09 -1.71915e-06 0)
(-5.07126e-09 -1.71091e-06 0)
(-5.07127e-09 -1.70283e-06 0)
(-5.06808e-09 -1.69463e-06 0)
(-5.06208e-09 -1.68639e-06 0)
(-5.05313e-09 -1.67819e-06 0)
(-5.04131e-09 -1.67002e-06 0)
(-5.02674e-09 -1.66187e-06 0)
(-5.00953e-09 -1.65374e-06 0)
(-4.9898e-09 -1.64564e-06 0)
(-4.96764e-09 -1.63758e-06 0)
(-4.94319e-09 -1.62955e-06 0)
(-4.91656e-09 -1.62157e-06 0)
(-4.88786e-09 -1.61363e-06 0)
(-4.85719e-09 -1.60574e-06 0)
(-4.82467e-09 -1.59789e-06 0)
(-4.79039e-09 -1.59011e-06 0)
(-4.75445e-09 -1.58238e-06 0)
(-4.71693e-09 -1.57471e-06 0)
(-4.67792e-09 -1.5671e-06 0)
(-4.6375e-09 -1.55956e-06 0)
(-4.59574e-09 -1.55208e-06 0)
(-4.55272e-09 -1.54467e-06 0)
(-4.50848e-09 -1.53734e-06 0)
(-4.4631e-09 -1.53007e-06 0)
(-4.41663e-09 -1.52288e-06 0)
(-4.36913e-09 -1.51577e-06 0)
(-4.32064e-09 -1.50873e-06 0)
(-4.27121e-09 -1.50177e-06 0)
(-4.2209e-09 -1.4949e-06 0)
(-4.16973e-09 -1.4881e-06 0)
(-4.11776e-09 -1.48139e-06 0)
(-4.06501e-09 -1.47477e-06 0)
(-4.01154e-09 -1.46823e-06 0)
(-3.95736e-09 -1.46178e-06 0)
(-3.90252e-09 -1.45541e-06 0)
(-3.84705e-09 -1.44914e-06 0)
(-3.79097e-09 -1.44295e-06 0)
(-3.73432e-09 -1.43686e-06 0)
(-3.67712e-09 -1.43086e-06 0)
(-3.61941e-09 -1.42496e-06 0)
(-3.56119e-09 -1.41914e-06 0)
(-3.50251e-09 -1.41342e-06 0)
(-3.44337e-09 -1.4078e-06 0)
(-3.3838e-09 -1.40227e-06 0)
(-3.32382e-09 -1.39684e-06 0)
(-3.26344e-09 -1.39151e-06 0)
(-3.20268e-09 -1.38628e-06 0)
(-3.14156e-09 -1.38114e-06 0)
(-3.08008e-09 -1.37611e-06 0)
(-3.01827e-09 -1.37117e-06 0)
(-2.95612e-09 -1.36633e-06 0)
(-2.89365e-09 -1.3616e-06 0)
(-2.83087e-09 -1.35696e-06 0)
(-2.76779e-09 -1.35243e-06 0)
(-2.70441e-09 -1.348e-06 0)
(-2.64074e-09 -1.34367e-06 0)
(-2.57678e-09 -1.33945e-06 0)
(-2.51255e-09 -1.33533e-06 0)
(-2.44804e-09 -1.33131e-06 0)
(-2.38327e-09 -1.3274e-06 0)
(-2.31823e-09 -1.3236e-06 0)
(-2.25294e-09 -1.3199e-06 0)
(-2.18739e-09 -1.3163e-06 0)
(-2.1216e-09 -1.31281e-06 0)
(-2.05556e-09 -1.30943e-06 0)
(-1.98929e-09 -1.30615e-06 0)
(-1.92279e-09 -1.30298e-06 0)
(-1.85606e-09 -1.29992e-06 0)
(-1.7891e-09 -1.29697e-06 0)
(-1.72193e-09 -1.29413e-06 0)
(-1.65454e-09 -1.29139e-06 0)
(-1.58694e-09 -1.28877e-06 0)
(-1.51912e-09 -1.28625e-06 0)
(-1.4511e-09 -1.28384e-06 0)
(-1.38286e-09 -1.28154e-06 0)
(-1.31441e-09 -1.27936e-06 0)
(-1.24575e-09 -1.27728e-06 0)
(-1.17686e-09 -1.27532e-06 0)
(-1.10776e-09 -1.27346e-06 0)
(-1.03843e-09 -1.27173e-06 0)
(-9.68879e-10 -1.2701e-06 0)
(-8.99129e-10 -1.26858e-06 0)
(-8.29206e-10 -1.26718e-06 0)
(-7.59175e-10 -1.2659e-06 0)
(-6.89127e-10 -1.26469e-06 0)
(-6.19247e-10 -1.26372e-06 0)
(-5.49663e-10 -1.26248e-06 0)
(-4.80961e-10 -1.2626e-06 0)
(-4.12044e-10 -1.2586e-06 0)
(-3.47344e-10 -1.26822e-06 0)
(-2.67791e-10 -1.22977e-06 0)
(-2.38081e-10 -1.33035e-06 0)
(-1.29073e-10 -1.16163e-06 0)
)
;
    }
    bottomWall
    {
        type            calculated;
        value           nonuniform List<vector> 
449
(
(-48.6174 -0.965283 0)
(-19.7864 -0.00516354 0)
(-14.3744 -0.00113496 0)
(-12.068 -0.000543508 0)
(-10.6721 -0.000346622 0)
(-9.70127 -0.000245372 0)
(-8.99263 -0.000174583 0)
(-8.50359 -0.000103913 0)
(-8.27856 -1.05042e-05 0)
(-8.43322 0.000167335 0)
(-9.43886 0.000321146 0)
(-10.657 0.000296963 0)
(-11.4962 0.000187752 0)
(-11.9614 0.000102333 0)
(-12.2094 5.39627e-05 0)
(-12.3386 2.60575e-05 0)
(-12.392 7.76676e-06 0)
(-12.3931 -4.95937e-06 0)
(-12.357 -1.32141e-05 0)
(-12.2997 -1.82659e-05 0)
(-12.2277 -2.14772e-05 0)
(-12.1472 -2.32109e-05 0)
(-12.0624 -2.40621e-05 0)
(-11.9754 -2.44023e-05 0)
(-11.8876 -2.4431e-05 0)
(-11.8 -2.42293e-05 0)
(-11.7132 -2.3886e-05 0)
(-11.6276 -2.34598e-05 0)
(-11.5435 -2.29751e-05 0)
(-11.461 -2.24533e-05 0)
(-11.3804 -2.19071e-05 0)
(-11.3015 -2.13638e-05 0)
(-11.2244 -2.08155e-05 0)
(-11.1492 -2.02431e-05 0)
(-11.076 -1.9668e-05 0)
(-11.0047 -1.90993e-05 0)
(-10.9353 -1.85426e-05 0)
(-10.8678 -1.79929e-05 0)
(-10.8023 -1.74648e-05 0)
(-10.7384 -1.69406e-05 0)
(-10.6764 -1.6443e-05 0)
(-10.6159 -1.59544e-05 0)
(-10.5574 -1.54971e-05 0)
(-10.5 -1.5052e-05 0)
(-10.4446 -1.46173e-05 0)
(-10.3902 -1.41924e-05 0)
(-10.3377 -1.37838e-05 0)
(-10.2862 -1.33911e-05 0)
(-10.2364 -1.30102e-05 0)
(-10.1876 -1.26484e-05 0)
(-10.1403 -1.22948e-05 0)
(-10.094 -1.19578e-05 0)
(-10.0491 -1.16309e-05 0)
(-10.0051 -1.13207e-05 0)
(-9.96231 -1.10176e-05 0)
(-9.9204 -1.07296e-05 0)
(-9.87968 -1.04519e-05 0)
(-9.83972 -1.01821e-05 0)
(-9.80091 -9.92705e-06 0)
(-9.76275 -9.68377e-06 0)
(-9.72565 -9.44614e-06 0)
(-9.68917 -9.21399e-06 0)
(-9.65371 -8.98782e-06 0)
(-9.61883 -8.77354e-06 0)
(-9.5849 -8.56251e-06 0)
(-9.55151 -8.36469e-06 0)
(-9.51898 -8.16712e-06 0)
(-9.48701 -7.98404e-06 0)
(-9.45577 -7.79928e-06 0)
(-9.42512 -7.62661e-06 0)
(-9.39512 -7.45533e-06 0)
(-9.36569 -7.29102e-06 0)
(-9.33686 -7.13074e-06 0)
(-9.30858 -6.97807e-06 0)
(-9.28085 -6.82676e-06 0)
(-9.25366 -6.68504e-06 0)
(-9.22694 -6.54209e-06 0)
(-9.20078 -6.40709e-06 0)
(-9.17502 -6.27742e-06 0)
(-9.1498 -6.1478e-06 0)
(-9.12498 -6.02754e-06 0)
(-9.10062 -5.90475e-06 0)
(-9.07669 -5.79269e-06 0)
(-9.05314 -5.67056e-06 0)
(-9.03011 -5.56538e-06 0)
(-9.0073 -5.45887e-06 0)
(-8.98505 -5.35961e-06 0)
(-8.96296 -5.25654e-06 0)
(-8.94146 -5.15917e-06 0)
(-8.92008 -5.06676e-06 0)
(-8.89925 -4.97069e-06 0)
(-8.87857 -4.88453e-06 0)
(-8.85836 -4.79039e-06 0)
(-8.83838 -4.7114e-06 0)
(-8.81874 -4.62751e-06 0)
(-8.79937 -4.54816e-06 0)
(-8.78031 -4.46562e-06 0)
(-8.76155 -4.39319e-06 0)
(-8.74302 -4.31695e-06 0)
(-8.72482 -4.24214e-06 0)
(-8.70684 -4.17153e-06 0)
(-8.68916 -4.10414e-06 0)
(-8.67167 -4.03089e-06 0)
(-8.65455 -3.9612e-06 0)
(-8.63758 -3.89354e-06 0)
(-8.62095 -3.82824e-06 0)
(-8.60447 -3.77055e-06 0)
(-8.58827 -3.70542e-06 0)
(-8.57228 -3.64749e-06 0)
(-8.5565 -3.59165e-06 0)
(-8.54092 -3.5341e-06 0)
(-8.52558 -3.47631e-06 0)
(-8.51044 -3.42264e-06 0)
(-8.49549 -3.3707e-06 0)
(-8.48073 -3.31818e-06 0)
(-8.46619 -3.2674e-06 0)
(-8.45181 -3.22039e-06 0)
(-8.43761 -3.16689e-06 0)
(-8.42364 -3.11363e-06 0)
(-8.40986 -3.06461e-06 0)
(-8.39626 -3.01464e-06 0)
(-8.38286 -2.96591e-06 0)
(-8.36964 -2.92537e-06 0)
(-8.35654 -2.88205e-06 0)
(-8.34365 -2.83769e-06 0)
(-8.33089 -2.79764e-06 0)
(-8.3183 -2.75939e-06 0)
(-8.30583 -2.71967e-06 0)
(-8.29354 -2.68155e-06 0)
(-8.28136 -2.64233e-06 0)
(-8.26938 -2.60924e-06 0)
(-8.25744 -2.57114e-06 0)
(-8.24575 -2.53108e-06 0)
(-8.23413 -2.49576e-06 0)
(-8.22272 -2.45408e-06 0)
(-8.21142 -2.41902e-06 0)
(-8.20028 -2.38353e-06 0)
(-8.18927 -2.35064e-06 0)
(-8.17838 -2.31766e-06 0)
(-8.16763 -2.2911e-06 0)
(-8.15693 -2.25728e-06 0)
(-8.14644 -2.23371e-06 0)
(-8.13592 -2.20401e-06 0)
(-8.12566 -2.17917e-06 0)
(-8.11533 -2.1571e-06 0)
(-8.10523 -2.13063e-06 0)
(-8.09509 -2.10545e-06 0)
(-8.08519 -2.08035e-06 0)
(-8.07524 -2.06078e-06 0)
(-8.06548 -2.03848e-06 0)
(-8.0557 -2.02196e-06 0)
(-8.04604 -1.99434e-06 0)
(-8.03649 -1.96602e-06 0)
(-8.02706 -1.93271e-06 0)
(-8.01779 -1.89761e-06 0)
(-8.00867 -1.86112e-06 0)
(-7.99971 -1.82693e-06 0)
(-7.99088 -1.80014e-06 0)
(-7.98215 -1.77549e-06 0)
(-7.97351 -1.7547e-06 0)
(-7.96494 -1.73875e-06 0)
(-7.95642 -1.72165e-06 0)
(-7.94797 -1.69763e-06 0)
(-7.93965 -1.68195e-06 0)
(-7.93131 -1.65943e-06 0)
(-7.92318 -1.6275e-06 0)
(-7.91513 -1.60697e-06 0)
(-7.90716 -1.58727e-06 0)
(-7.89927 -1.57056e-06 0)
(-7.89143 -1.55869e-06 0)
(-7.88361 -1.55425e-06 0)
(-7.87577 -1.54141e-06 0)
(-7.86805 -1.52246e-06 0)
(-7.8608 -1.52061e-06 0)
(-7.8539 -1.51353e-06 0)
(-7.84702 -1.50205e-06 0)
(-7.84007 -1.48871e-06 0)
(-7.83317 -1.46222e-06 0)
(-7.82632 -1.4404e-06 0)
(-7.81948 -1.4191e-06 0)
(-7.81269 -1.40195e-06 0)
(-7.80587 -1.39507e-06 0)
(-7.79899 -1.38158e-06 0)
(-7.79215 -1.35986e-06 0)
(-7.78535 -1.33559e-06 0)
(-7.77861 -1.30239e-06 0)
(-7.77201 -1.2707e-06 0)
(-7.76545 -1.24779e-06 0)
(-7.75895 -1.22184e-06 0)
(-7.75253 -1.19874e-06 0)
(-7.74613 -1.18225e-06 0)
(-7.73975 -1.16182e-06 0)
(-7.73343 -1.145e-06 0)
(-7.7271 -1.13301e-06 0)
(-7.72078 -1.11629e-06 0)
(-7.7145 -1.10172e-06 0)
(-7.70821 -1.09048e-06 0)
(-7.70192 -1.07458e-06 0)
(-7.69568 -1.06208e-06 0)
(-7.6894 -1.05162e-06 0)
(-7.68314 -1.03693e-06 0)
(-7.67691 -1.02453e-06 0)
(-7.67067 -1.01469e-06 0)
(-7.66442 -9.98289e-07 0)
(-7.65825 -9.87586e-07 0)
(-7.652 -9.73808e-07 0)
(-7.64588 -9.5947e-07 0)
(-7.63967 -9.49566e-07 0)
(-7.63354 -9.35714e-07 0)
(-7.62739 -9.3218e-07 0)
(-7.62117 -9.24821e-07 0)
(-7.61498 -9.09595e-07 0)
(-7.60883 -8.99652e-07 0)
(-7.60264 -8.78279e-07 0)
(-7.59667 -8.53788e-07 0)
(-7.59069 -8.47943e-07 0)
(-7.58466 -8.30161e-07 0)
(-7.57881 -8.25083e-07 0)
(-7.57272 -8.27984e-07 0)
(-7.5667 -8.1172e-07 0)
(-7.56072 -7.9919e-07 0)
(-7.55475 -7.81915e-07 0)
(-7.54891 -7.66945e-07 0)
(-7.54304 -7.49049e-07 0)
(-7.53736 -7.23586e-07 0)
(-7.53177 -7.05382e-07 0)
(-7.52624 -6.89424e-07 0)
(-7.52079 -6.77104e-07 0)
(-7.51533 -6.71861e-07 0)
(-7.50985 -6.56371e-07 0)
(-7.50454 -6.44249e-07 0)
(-7.49913 -6.42898e-07 0)
(-7.49372 -6.38152e-07 0)
(-7.48827 -6.34821e-07 0)
(-7.4828 -6.34425e-07 0)
(-7.47724 -6.2239e-07 0)
(-7.47187 -6.02046e-07 0)
(-7.46655 -5.90997e-07 0)
(-7.46126 -5.69304e-07 0)
(-7.45623 -5.62667e-07 0)
(-7.45094 -5.60744e-07 0)
(-7.44583 -5.44202e-07 0)
(-7.44075 -5.30632e-07 0)
(-7.43579 -5.20178e-07 0)
(-7.43079 -5.08221e-07 0)
(-7.42596 -4.93643e-07 0)
(-7.42114 -4.90256e-07 0)
(-7.41626 -4.82198e-07 0)
(-7.4115 -4.74861e-07 0)
(-7.40666 -4.65574e-07 0)
(-7.40199 -4.57831e-07 0)
(-7.39721 -4.4741e-07 0)
(-7.39265 -4.31925e-07 0)
(-7.3881 -4.30544e-07 0)
(-7.38347 -4.22033e-07 0)
(-7.37901 -4.06965e-07 0)
(-7.37461 -3.93678e-07 0)
(-7.37034 -3.87706e-07 0)
(-7.36598 -3.82551e-07 0)
(-7.36173 -3.79661e-07 0)
(-7.35733 -3.82797e-07 0)
(-7.35292 -3.80438e-07 0)
(-7.34848 -3.84451e-07 0)
(-7.34387 -3.75882e-07 0)
(-7.33954 -3.58008e-07 0)
(-7.33527 -3.51929e-07 0)
(-7.331 -3.42927e-07 0)
(-7.32685 -3.34671e-07 0)
(-7.32269 -3.3409e-07 0)
(-7.31847 -3.30885e-07 0)
(-7.3143 -3.28004e-07 0)
(-7.31005 -3.21796e-07 0)
(-7.30595 -3.04801e-07 0)
(-7.30206 -2.92243e-07 0)
(-7.29821 -2.96128e-07 0)
(-7.29412 -2.94461e-07 0)
(-7.29024 -2.83733e-07 0)
(-7.28636 -2.91608e-07 0)
(-7.28215 -2.92834e-07 0)
(-7.27816 -2.77277e-07 0)
(-7.27431 -2.76359e-07 0)
(-7.27026 -2.7529e-07 0)
(-7.26636 -2.65202e-07 0)
(-7.26251 -2.65742e-07 0)
(-7.2585 -2.61452e-07 0)
(-7.2547 -2.54567e-07 0)
(-7.25082 -2.58051e-07 0)
(-7.24682 -2.529e-07 0)
(-7.24301 -2.49579e-07 0)
(-7.23903 -2.51046e-07 0)
(-7.23509 -2.41449e-07 0)
(-7.23134 -2.40615e-07 0)
(-7.22733 -2.37993e-07 0)
(-7.22358 -2.27557e-07 0)
(-7.21984 -2.25998e-07 0)
(-7.21605 -2.28162e-07 0)
(-7.21215 -2.22449e-07 0)
(-7.20849 -2.17585e-07 0)
(-7.20467 -2.26178e-07 0)
(-7.20061 -2.2608e-07 0)
(-7.19672 -2.13466e-07 0)
(-7.19303 -2.12669e-07 0)
(-7.18907 -2.12414e-07 0)
(-7.18531 -2.07886e-07 0)
(-7.18144 -2.0775e-07 0)
(-7.1776 -2.01786e-07 0)
(-7.17387 -2.0567e-07 0)
(-7.1698 -2.06866e-07 0)
(-7.16594 -1.93775e-07 0)
(-7.1623 -1.91863e-07 0)
(-7.15842 -1.90884e-07 0)
(-7.15474 -1.82421e-07 0)
(-7.15113 -1.85874e-07 0)
(-7.14721 -1.86527e-07 0)
(-7.1435 -1.77791e-07 0)
(-7.13986 -1.79719e-07 0)
(-7.13598 -1.78167e-07 0)
(-7.13233 -1.68188e-07 0)
(-7.1288 -1.69152e-07 0)
(-7.12502 -1.68325e-07 0)
(-7.12145 -1.60529e-07 0)
(-7.11794 -1.6277e-07 0)
(-7.11418 -1.62386e-07 0)
(-7.11062 -1.55104e-07 0)
(-7.10712 -1.57405e-07 0)
(-7.10336 -1.56662e-07 0)
(-7.09982 -1.49519e-07 0)
(-7.09633 -1.51833e-07 0)
(-7.09259 -1.50884e-07 0)
(-7.08907 -1.43988e-07 0)
(-7.08559 -1.46449e-07 0)
(-7.08186 -1.45186e-07 0)
(-7.07837 -1.38598e-07 0)
(-7.0749 -1.40857e-07 0)
(-7.07121 -1.39416e-07 0)
(-7.06775 -1.335e-07 0)
(-7.06429 -1.3422e-07 0)
(-7.0607 -1.34724e-07 0)
(-7.05714 -1.30152e-07 0)
(-7.05373 -1.28981e-07 0)
(-7.05016 -1.26738e-07 0)
(-7.04679 -1.25113e-07 0)
(-7.04323 -1.2542e-07 0)
(-7.03977 -1.26017e-07 0)
(-7.03609 -1.31249e-07 0)
(-7.03226 -1.24775e-07 0)
(-7.02889 -1.127e-07 0)
(-7.02568 -1.13655e-07 0)
(-7.02218 -1.10338e-07 0)
(-7.0191 -1.07182e-07 0)
(-7.01571 -1.07544e-07 0)
(-7.01254 -1.05422e-07 0)
(-7.0092 -1.05834e-07 0)
(-7.00594 -1.01013e-07 0)
(-7.00249 -9.73991e-08 0)
(-6.99871 -9.22692e-08 0)
(-6.9953 -8.94381e-08 0)
(-6.99174 -8.93577e-08 0)
(-6.98833 -9.30057e-08 0)
(-6.98448 -9.67875e-08 0)
(-6.98078 -9.42806e-08 0)
(-6.97714 -9.30429e-08 0)
(-6.97353 -9.08699e-08 0)
(-6.97006 -8.43696e-08 0)
(-6.96697 -8.05018e-08 0)
(-6.96379 -8.45684e-08 0)
(-6.96036 -8.55206e-08 0)
(-6.95711 -8.13359e-08 0)
(-6.95402 -8.31854e-08 0)
(-6.95063 -8.27636e-08 0)
(-6.94757 -7.98831e-08 0)
(-6.9444 -7.9507e-08 0)
(-6.94138 -7.42763e-08 0)
(-6.93862 -7.26494e-08 0)
(-6.93572 -7.02527e-08 0)
(-6.93315 -6.76785e-08 0)
(-6.93045 -6.76062e-08 0)
(-6.92788 -6.66925e-08 0)
(-6.92525 -6.90514e-08 0)
(-6.92249 -7.18344e-08 0)
(-6.91965 -6.81802e-08 0)
(-6.91719 -6.37636e-08 0)
(-6.91468 -6.61018e-08 0)
(-6.91203 -6.28992e-08 0)
(-6.90979 -6.08598e-08 0)
(-6.90729 -6.19058e-08 0)
(-6.90496 -6.15872e-08 0)
(-6.90249 -6.05356e-08 0)
(-6.90025 -5.84249e-08 0)
(-6.89794 -6.04194e-08 0)
(-6.89554 -5.638e-08 0)
(-6.89355 -5.52148e-08 0)
(-6.89124 -5.61521e-08 0)
(-6.88918 -5.62428e-08 0)
(-6.88685 -5.78916e-08 0)
(-6.88466 -5.37065e-08 0)
(-6.88267 -5.41118e-08 0)
(-6.88044 -5.33152e-08 0)
(-6.87851 -5.12982e-08 0)
(-6.87645 -5.20266e-08 0)
(-6.87446 -5.29102e-08 0)
(-6.87232 -5.66853e-08 0)
(-6.87004 -5.36965e-08 0)
(-6.86814 -5.17231e-08 0)
(-6.86601 -5.26061e-08 0)
(-6.86405 -5.13203e-08 0)
(-6.86202 -5.34198e-08 0)
(-6.85989 -4.93589e-08 0)
(-6.85818 -4.69255e-08 0)
(-6.85624 -4.79454e-08 0)
(-6.85445 -4.76481e-08 0)
(-6.85253 -4.60416e-08 0)
(-6.85087 -4.47236e-08 0)
(-6.84905 -4.72777e-08 0)
(-6.84719 -4.31986e-08 0)
(-6.8457 -4.08732e-08 0)
(-6.84401 -4.4535e-08 0)
(-6.84223 -4.1996e-08 0)
(-6.84075 -4.18807e-08 0)
(-6.83897 -4.53374e-08 0)
(-6.83721 -4.19858e-08 0)
(-6.8357 -4.17783e-08 0)
(-6.83396 -4.35319e-08 0)
(-6.83231 -4.03278e-08 0)
(-6.83082 -4.07335e-08 0)
(-6.82914 -4.1679e-08 0)
(-6.82758 -3.80176e-08 0)
(-6.82618 -3.89535e-08 0)
(-6.82455 -3.85381e-08 0)
(-6.82319 -3.83785e-08 0)
(-6.82157 -3.78945e-08 0)
(-6.82024 -3.50504e-08 0)
(-6.81884 -3.45628e-08 0)
(-6.81756 -3.12582e-08 0)
(-6.81642 -3.3925e-08 0)
(-6.81492 -3.81743e-08 0)
(-6.81344 -3.53146e-08 0)
(-6.81217 -3.5984e-08 0)
(-6.81065 -3.78833e-08 0)
(-6.80923 -3.43127e-08 0)
(-6.80798 -3.45467e-08 0)
(-6.80654 -3.57908e-08 0)
(-6.8052 -3.05979e-08 0)
(-6.80417 -3.42359e-08 0)
(-6.80253 -3.22538e-08 0)
(-6.80167 -3.8538e-08 0)
(-6.79952 -1.8062e-08 0)
(-6.80031 -3.36946e-08 0)
(-6.79679 -4.69711e-08 0)
)
;
    }
    symmetry
    {
        type            symmetryPlane;
    }
    frontAndBack
    {
        type            empty;
    }
}


// ************************************************************************* //
