/*--------------------------------*- C++ -*----------------------------------*\
| =========                 |                                                 |
| \\      /  F ield         | OpenFOAM: The Open Source CFD Toolbox           |
|  \\    /   O peration     | Version:  v2012                                 |
|   \\  /    A nd           | Website:  www.openfoam.com                      |
|    \\/     M anipulation  |                                                 |
\*---------------------------------------------------------------------------*/
FoamFile
{
    version     2.0;
    format      ascii;
    class       volScalarField;
    location    "13.5";
    object      yPlus;
}
// * * * * * * * * * * * * * * * * * * * * * * * * * * * * * * * * * * * * * //

dimensions      [0 0 0 0 0 0 0];


internalField   uniform 0;

boundaryField
{
    inlet
    {
        type            calculated;
        value           uniform 0;
    }
    outlet
    {
        type            calculated;
        value           uniform 0;
    }
    topWall
    {
        type            calculated;
        value           nonuniform List<scalar> 
545
(
0.0978127
0.168987
0.216932
0.254959
0.28713
0.315264
0.340377
0.363111
0.383902
0.403063
0.42083
0.437385
0.452872
0.467409
0.481093
0.494005
0.506215
0.517782
0.528758
0.539188
0.549113
0.558567
0.567584
0.576191
0.584414
0.592278
0.599803
0.607009
0.613913
0.620534
0.626885
0.632981
0.638836
0.644461
0.649867
0.655067
0.660068
0.664881
0.669515
0.673977
0.678276
0.682419
0.686412
0.690262
0.693975
0.697557
0.701014
0.704351
0.707572
0.710682
0.713686
0.716588
0.719392
0.722102
0.724721
0.727253
0.729702
0.73207
0.73436
0.736576
0.73872
0.740794
0.742802
0.744745
0.746627
0.748448
0.750212
0.75192
0.753575
0.755177
0.756729
0.758234
0.759671
0.761061
0.762439
0.763805
0.765159
0.766501
0.767831
0.76915
0.770457
0.771753
0.773038
0.774311
0.775574
0.776826
0.778067
0.779297
0.780517
0.781726
0.782925
0.784114
0.785293
0.786462
0.78762
0.78877
0.789799
0.790719
0.791638
0.792557
0.793475
0.794392
0.795308
0.796224
0.797139
0.798054
0.798967
0.79988
0.800792
0.801704
0.802615
0.803524
0.804434
0.805342
0.80625
0.807156
0.808062
0.808968
0.809872
0.810775
0.811678
0.81258
0.813481
0.814381
0.81528
0.816178
0.817076
0.817972
0.818868
0.819763
0.820656
0.821549
0.822441
0.823332
0.824221
0.82511
0.825998
0.826885
0.827771
0.828655
0.829539
0.830422
0.831303
0.832184
0.833063
0.833941
0.834818
0.835694
0.836569
0.837443
0.838316
0.839187
0.840057
0.840926
0.841794
0.842661
0.843526
0.84439
0.845253
0.846115
0.846975
0.847834
0.848692
0.849548
0.850404
0.851257
0.85211
0.852961
0.853811
0.854659
0.855506
0.856352
0.857196
0.858038
0.85888
0.859719
0.860558
0.861395
0.86223
0.863064
0.863896
0.864727
0.865556
0.866384
0.86721
0.868035
0.868858
0.869679
0.870499
0.871317
0.872133
0.872948
0.873761
0.874572
0.875382
0.87619
0.876996
0.877801
0.878603
0.879404
0.880203
0.881001
0.881796
0.88259
0.883382
0.884172
0.88496
0.885746
0.886531
0.887313
0.888094
0.888872
0.889649
0.890424
0.891196
0.891967
0.892736
0.893502
0.894267
0.895029
0.89579
0.896548
0.897305
0.898059
0.898811
0.899561
0.900308
0.901054
0.901797
0.902538
0.903277
0.904014
0.904748
0.905481
0.90621
0.906938
0.907663
0.908386
0.909107
0.909825
0.910541
0.911254
0.911965
0.912674
0.91338
0.914084
0.914785
0.915484
0.91618
0.916874
0.917565
0.918254
0.91894
0.919623
0.920304
0.920983
0.921658
0.922331
0.923002
0.92367
0.924335
0.924997
0.925656
0.926313
0.926967
0.927619
0.928267
0.928913
0.929557
0.930157
0.930723
0.931291
0.931862
0.932436
0.933013
0.933593
0.934175
0.93476
0.935347
0.935938
0.93653
0.937125
0.937723
0.938323
0.938925
0.939529
0.940136
0.940745
0.941355
0.941968
0.942583
0.943199
0.943817
0.944437
0.945059
0.945682
0.946306
0.946932
0.947559
0.948187
0.948816
0.949447
0.950077
0.950709
0.951342
0.951974
0.952608
0.953241
0.953875
0.954509
0.955142
0.955776
0.956409
0.957041
0.957673
0.958304
0.958934
0.959563
0.960191
0.960818
0.961443
0.962066
0.962687
0.963306
0.963923
0.964538
0.965149
0.965759
0.966365
0.966968
0.967567
0.968163
0.968755
0.969343
0.969927
0.970506
0.971081
0.971651
0.972215
0.972775
0.973328
0.973876
0.974417
0.974953
0.975481
0.976003
0.976517
0.977025
0.977524
0.978015
0.978498
0.978973
0.979439
0.979895
0.980342
0.98078
0.981207
0.981624
0.98203
0.982425
0.982809
0.983181
0.983542
0.98389
0.984225
0.984547
0.984856
0.985152
0.985433
0.9857
0.985952
0.98619
0.986412
0.986618
0.986808
0.986981
0.987138
0.987277
0.987399
0.987503
0.987588
0.987655
0.987703
0.987731
0.987739
0.987728
0.987696
0.987643
0.987568
0.987473
0.987355
0.987215
0.987052
0.986866
0.986656
0.986423
0.986166
0.985885
0.985579
0.985247
0.98489
0.984508
0.984099
0.983664
0.983203
0.982714
0.982198
0.981655
0.981084
0.980485
0.979858
0.979202
0.978517
0.977803
0.97706
0.976288
0.975486
0.974655
0.973794
0.972902
0.97198
0.971029
0.970046
0.969034
0.967991
0.966917
0.965813
0.964678
0.963512
0.962316
0.96109
0.959833
0.958545
0.957228
0.95588
0.954502
0.953094
0.951656
0.950188
0.948691
0.947165
0.94561
0.944026
0.942414
0.940774
0.939105
0.93741
0.935687
0.933938
0.932159
0.930156
0.927947
0.925729
0.923504
0.921276
0.919043
0.916809
0.914573
0.912339
0.910105
0.907875
0.905648
0.903427
0.901212
0.899003
0.896803
0.894611
0.89243
0.890259
0.888099
0.885952
0.883818
0.881697
0.879591
0.8775
0.875425
0.873366
0.871325
0.8693
0.867294
0.865307
0.863339
0.861391
0.859463
0.857556
0.85567
0.853806
0.851964
0.850144
0.848348
0.846575
0.844826
0.843101
0.841401
0.839725
0.838076
0.836451
0.834853
0.833282
0.831737
0.830219
0.828728
0.827265
0.82583
0.824424
0.823046
0.821697
0.820377
0.819086
0.817825
0.816594
0.815394
0.814224
0.813085
0.811976
0.8109
0.809854
0.808841
0.807859
0.80691
0.805993
0.805109
0.804258
0.80344
0.802655
0.801905
0.801187
0.800504
0.799854
0.79924
0.798659
0.798114
0.797603
0.797127
0.796687
0.796282
0.795912
0.795578
0.795279
0.795016
0.794787
0.794594
0.79443
0.794321
0.794182
)
;
    }
    bottomWall
    {
        type            calculated;
        value           nonuniform List<scalar> 
449
(
0.139575
0.0890403
0.0758921
0.0695377
0.0653922
0.0623471
0.0600268
0.0583718
0.0575943
0.0581298
0.0614981
0.0653461
0.0678702
0.0692297
0.0699439
0.0703128
0.070465
0.070468
0.0703654
0.070202
0.0699961
0.0697654
0.0695213
0.0692702
0.0690159
0.068761
0.0685078
0.068257
0.0680098
0.0677663
0.0675274
0.0672929
0.0670631
0.066838
0.0666183
0.0664034
0.066194
0.0659893
0.0657899
0.0655951
0.0654056
0.0652201
0.0650399
0.0648631
0.0646915
0.064523
0.0643597
0.0641993
0.0640437
0.0638908
0.0637424
0.0635966
0.063455
0.0633157
0.0631804
0.0630473
0.0629178
0.0627904
0.0626665
0.0625443
0.0624254
0.0623082
0.0621941
0.0620816
0.061972
0.061864
0.0617586
0.0616548
0.0615532
0.0614533
0.0613555
0.0612593
0.0611649
0.0610722
0.0609812
0.0608918
0.0608038
0.0607176
0.0606325
0.0605491
0.0604669
0.0603862
0.0603067
0.0602284
0.0601518
0.0600758
0.0600015
0.0599277
0.0598558
0.0597842
0.0597143
0.0596449
0.059577
0.0595098
0.0594436
0.0593783
0.059314
0.0592506
0.0591879
0.0591263
0.0590653
0.0590053
0.0589459
0.0588876
0.0588299
0.0587732
0.058717
0.0586617
0.0586071
0.0585531
0.0584998
0.0584472
0.0583953
0.058344
0.0582933
0.0582433
0.0581938
0.0581449
0.0580968
0.0580492
0.0580023
0.057956
0.0579103
0.0578649
0.0578203
0.057776
0.0577324
0.0576891
0.0576464
0.057604
0.0575623
0.0575208
0.0574801
0.0574395
0.0573997
0.0573603
0.0573214
0.0572828
0.0572448
0.0572071
0.0571696
0.0571329
0.057096
0.05706
0.0570237
0.0569882
0.0569525
0.0569177
0.0568827
0.0568482
0.0568138
0.0567797
0.056746
0.0567127
0.0566799
0.0566477
0.056616
0.0565848
0.0565538
0.0565232
0.0564928
0.0564626
0.0564326
0.0564031
0.0563734
0.0563445
0.0563159
0.0562875
0.0562594
0.0562315
0.0562037
0.0561757
0.0561482
0.0561223
0.0560976
0.0560731
0.0560482
0.0560236
0.0559991
0.0559746
0.0559503
0.0559259
0.0559012
0.0558767
0.0558523
0.0558281
0.0558044
0.0557809
0.0557575
0.0557345
0.0557114
0.0556885
0.0556658
0.055643
0.0556202
0.0555976
0.0555749
0.0555522
0.0555297
0.0555071
0.0554845
0.055462
0.0554394
0.0554168
0.0553945
0.0553719
0.0553497
0.0553273
0.0553051
0.0552828
0.0552602
0.0552378
0.0552155
0.055193
0.0551713
0.0551496
0.0551277
0.0551065
0.0550843
0.0550624
0.0550406
0.0550189
0.0549976
0.0549763
0.0549555
0.0549352
0.054915
0.0548951
0.0548752
0.0548552
0.0548358
0.054816
0.0547962
0.0547763
0.0547563
0.0547359
0.0547163
0.0546968
0.0546774
0.054659
0.0546396
0.0546209
0.0546022
0.054584
0.0545657
0.0545479
0.0545302
0.0545123
0.0544948
0.054477
0.0544598
0.0544422
0.0544255
0.0544087
0.0543917
0.0543752
0.054359
0.0543433
0.0543272
0.0543115
0.0542953
0.054279
0.0542626
0.0542456
0.0542296
0.0542138
0.054198
0.0541827
0.0541673
0.0541517
0.0541363
0.0541206
0.0541054
0.054091
0.0540767
0.0540616
0.0540471
0.0540328
0.0540172
0.0540024
0.0539881
0.053973
0.0539586
0.0539443
0.0539294
0.0539153
0.0539008
0.053886
0.0538718
0.053857
0.0538424
0.0538284
0.0538135
0.0537995
0.0537856
0.0537715
0.0537569
0.0537433
0.053729
0.0537139
0.0536994
0.0536856
0.0536709
0.0536568
0.0536424
0.053628
0.0536141
0.0535988
0.0535844
0.0535708
0.0535563
0.0535425
0.053529
0.0535143
0.0535004
0.0534868
0.0534723
0.0534586
0.0534454
0.0534312
0.0534178
0.0534047
0.0533906
0.0533772
0.053364
0.0533499
0.0533366
0.0533235
0.0533095
0.0532962
0.0532832
0.0532691
0.053256
0.053243
0.0532291
0.053216
0.053203
0.0531895
0.0531761
0.0531632
0.0531498
0.0531371
0.0531236
0.0531106
0.0530967
0.0530823
0.0530696
0.0530574
0.0530442
0.0530326
0.0530198
0.0530078
0.0529952
0.0529828
0.0529698
0.0529555
0.0529426
0.0529291
0.0529162
0.0529016
0.0528876
0.0528738
0.0528602
0.052847
0.0528353
0.0528232
0.0528102
0.0527979
0.0527862
0.0527733
0.0527617
0.0527496
0.0527381
0.0527277
0.0527166
0.0527069
0.0526966
0.0526869
0.0526769
0.0526664
0.0526555
0.0526462
0.0526366
0.0526266
0.052618
0.0526085
0.0525996
0.0525902
0.0525817
0.0525729
0.0525637
0.0525562
0.0525473
0.0525395
0.0525306
0.0525222
0.0525146
0.0525062
0.0524988
0.0524909
0.0524833
0.0524752
0.0524664
0.0524592
0.0524511
0.0524436
0.0524358
0.0524277
0.0524211
0.0524137
0.0524069
0.0523995
0.0523932
0.0523862
0.0523791
0.0523734
0.052367
0.0523601
0.0523545
0.0523477
0.0523409
0.0523352
0.0523285
0.0523222
0.0523165
0.05231
0.0523041
0.0522987
0.0522925
0.0522872
0.052281
0.052276
0.0522706
0.0522657
0.0522613
0.0522555
0.0522499
0.052245
0.0522392
0.0522337
0.0522289
0.0522234
0.0522183
0.0522143
0.052208
0.0522047
0.0521965
0.0521995
0.052186
)
;
    }
    symmetry
    {
        type            symmetryPlane;
    }
    frontAndBack
    {
        type            empty;
    }
}


// ************************************************************************* //
