/*--------------------------------*- C++ -*----------------------------------*\
| =========                 |                                                 |
| \\      /  F ield         | OpenFOAM: The Open Source CFD Toolbox           |
|  \\    /   O peration     | Version:  v2012                                 |
|   \\  /    A nd           | Website:  www.openfoam.com                      |
|    \\/     M anipulation  |                                                 |
\*---------------------------------------------------------------------------*/
FoamFile
{
    version     2.0;
    format      ascii;
    class       volScalarField;
    location    "44";
    object      omega;
}
// * * * * * * * * * * * * * * * * * * * * * * * * * * * * * * * * * * * * * //

dimensions      [0 0 -1 0 0 0 0];


internalField   nonuniform List<scalar> 
209825
(
8261.66
7568.52
6999.41
6544.34
6185.78
5904.31
5681.11
5502.46
5356.93
5237.4
5137.39
5053.47
4981.65
4920.4
4866.97
4820.86
4779.98
4744.38
4712.36
4684.32
4658.74
4636.28
4615.51
4597.24
4580.14
4565.11
4550.86
4538.36
4526.36
4515.88
4505.68
4496.82
4488.08
4480.55
4473.01
4466.57
4460.04
4454.51
4448.81
4444.03
4439.08
4434.92
4430.55
4426.97
4423.14
4420
4416.61
4413.85
4410.9
4408.48
4405.9
4403.83
4401.61
4399.71
4397.76
4396.11
4394.39
4392.94
4391.39
4390.16
4388.89
4387.87
4386.69
4385.89
4384.88
4384.18
4383.25
4382.69
4381.92
4381.51
4380.86
4380.53
4379.96
4379.67
4379.11
4378.79
4378.28
4378.02
4377.59
4377.4
4377.03
4376.89
4376.57
4376.6
4376.55
4376.71
4376.71
4377.12
4377.12
4377.68
4377.68
4378.54
4379.24
4408.18
4518.7
113173
8261.66
7568.52
6999.41
6544.33
6185.77
5904.28
5681.08
5502.42
5356.88
5237.34
5137.32
5053.39
4981.57
4920.31
4866.88
4820.76
4779.88
4744.28
4712.25
4684.21
4658.63
4636.16
4615.4
4597.12
4580.02
4564.99
4550.74
4538.24
4526.23
4515.76
4505.55
4496.7
4487.96
4480.42
4472.88
4466.44
4459.91
4454.38
4448.68
4443.89
4438.95
4434.79
4430.41
4426.84
4423
4419.87
4416.48
4413.71
4410.76
4408.35
4405.76
4403.7
4401.48
4399.57
4397.62
4395.97
4394.25
4392.8
4391.25
4390.02
4388.75
4387.73
4386.55
4385.75
4384.74
4384.04
4383.11
4382.55
4381.78
4381.37
4380.72
4380.38
4379.82
4379.52
4378.97
4378.65
4378.14
4377.88
4377.45
4377.25
4376.89
4376.75
4376.43
4376.46
4376.4
4376.57
4376.57
4376.97
4376.97
4377.54
4377.54
4378.4
4379.09
4408.09
4518.59
109875
8261.66
7568.52
6999.41
6544.31
6185.71
5904.19
5680.95
5502.25
5356.68
5237.12
5137.07
5053.13
4981.28
4920.01
4866.57
4820.44
4779.54
4743.93
4711.9
4683.85
4658.26
4635.78
4615.01
4596.73
4579.62
4564.59
4550.34
4537.83
4525.82
4515.34
4505.13
4496.28
4487.53
4480
4472.45
4466.01
4459.48
4453.94
4448.24
4443.46
4438.5
4434.35
4429.97
4426.39
4422.55
4419.42
4416.03
4413.26
4410.31
4407.9
4405.31
4403.24
4401.02
4399.12
4397.16
4395.52
4393.79
4392.34
4390.79
4389.56
4388.29
4387.27
4386.09
4385.28
4384.28
4383.57
4382.65
4382.08
4381.32
4380.91
4380.25
4379.92
4379.35
4379.06
4378.5
4378.18
4377.67
4377.41
4376.98
4376.78
4376.42
4376.28
4375.95
4375.99
4375.93
4376.09
4376.09
4376.5
4376.5
4377.06
4377.06
4377.92
4378.62
4407.72
4518.19
106088
8261.66
7568.54
6999.41
6544.27
6185.62
5904.03
5680.72
5501.97
5356.34
5236.73
5136.65
5052.67
4980.79
4919.49
4866.03
4819.88
4778.96
4743.34
4711.29
4683.22
4657.62
4635.13
4614.35
4596.06
4578.94
4563.9
4549.65
4537.13
4525.12
4514.63
4504.42
4495.55
4486.81
4479.27
4471.71
4465.27
4458.74
4453.2
4447.49
4442.7
4437.75
4433.59
4429.21
4425.63
4421.79
4418.65
4415.26
4412.49
4409.54
4407.12
4404.53
4402.46
4400.24
4398.34
4396.38
4394.73
4393.01
4391.55
4390
4388.77
4387.5
4386.47
4385.3
4384.49
4383.48
4382.78
4381.85
4381.28
4380.52
4380.11
4379.45
4379.12
4378.55
4378.25
4377.7
4377.38
4376.87
4376.61
4376.17
4375.98
4375.61
4375.47
4375.15
4375.18
4375.12
4375.28
4375.28
4375.68
4375.68
4376.24
4376.24
4377.1
4377.8
4407.06
4517.5
102194
8261.66
7568.56
6999.42
6544.22
6185.48
5903.79
5680.39
5501.56
5355.86
5236.19
5136.05
5052.01
4980.1
4918.76
4865.26
4819.08
4778.13
4742.49
4710.41
4682.33
4656.71
4634.21
4613.41
4595.11
4577.98
4562.93
4548.66
4536.14
4524.11
4513.62
4503.39
4494.52
4485.77
4478.22
4470.67
4464.22
4457.68
4452.14
4446.43
4441.63
4436.67
4432.51
4428.13
4424.54
4420.7
4417.56
4414.17
4411.4
4408.44
4406.02
4403.43
4401.36
4399.13
4397.23
4395.26
4393.62
4391.89
4390.43
4388.88
4387.65
4386.38
4385.35
4384.17
4383.36
4382.35
4381.64
4380.72
4380.15
4379.38
4378.97
4378.32
4377.98
4377.41
4377.11
4376.56
4376.23
4375.72
4375.46
4375.03
4374.83
4374.46
4374.32
4374
4374.03
4373.96
4374.12
4374.12
4374.52
4374.52
4375.08
4375.08
4375.94
4376.64
4406.12
4516.51
98297.7
8261.66
7568.58
6999.42
6544.14
6185.29
5903.49
5679.97
5501.03
5355.23
5235.47
5135.26
5051.16
4979.19
4917.8
4864.25
4818.03
4777.05
4741.38
4709.27
4681.17
4655.52
4633
4612.18
4593.86
4576.72
4561.65
4547.37
4534.84
4522.8
4512.29
4502.06
4493.18
4484.42
4476.87
4469.3
4462.85
4456.3
4450.75
4445.04
4440.24
4435.27
4431.1
4426.72
4423.13
4419.28
4416.14
4412.74
4409.96
4407
4404.58
4401.98
4399.91
4397.68
4395.77
4393.81
4392.16
4390.43
4388.97
4387.42
4386.19
4384.91
4383.88
4382.7
4381.89
4380.88
4380.17
4379.24
4378.67
4377.9
4377.49
4376.83
4376.49
4375.92
4375.62
4375.07
4374.74
4374.23
4373.97
4373.53
4373.34
4372.97
4372.83
4372.5
4372.52
4372.46
4372.61
4372.61
4373.01
4373.01
4373.56
4373.56
4374.42
4375.13
4404.89
4515.21
94438.3
8261.66
7568.61
6999.43
6544.06
6185.07
5903.11
5679.45
5500.37
5354.45
5234.59
5134.28
5050.11
4978.06
4916.61
4863.01
4816.74
4775.72
4740
4707.87
4679.73
4654.05
4631.51
4610.66
4592.32
4575.16
4560.07
4545.78
4533.23
4521.17
4510.66
4500.41
4491.52
4482.75
4475.18
4467.61
4461.15
4454.59
4449.03
4443.31
4438.51
4433.54
4429.36
4424.97
4421.37
4417.52
4414.37
4410.97
4408.19
4405.22
4402.8
4400.2
4398.12
4395.89
4393.98
4392.01
4390.36
4388.62
4387.16
4385.61
4384.37
4383.09
4382.06
4380.88
4380.07
4379.05
4378.34
4377.41
4376.84
4376.06
4375.65
4374.99
4374.65
4374.08
4373.78
4373.22
4372.9
4372.38
4372.12
4371.68
4371.48
4371.11
4370.97
4370.65
4370.66
4370.59
4370.75
4370.74
4371.13
4371.13
4371.68
4371.68
4372.53
4373.25
4403.36
4513.62
90635
8261.66
7568.65
6999.43
6543.95
6184.8
5902.66
5678.82
5499.58
5353.52
5233.54
5133.12
5048.85
4976.72
4915.19
4861.52
4815.2
4774.12
4738.36
4706.18
4678
4652.3
4629.72
4608.85
4590.48
4573.29
4558.19
4543.87
4531.3
4519.23
4508.7
4498.44
4489.54
4480.75
4473.17
4465.59
4459.11
4452.55
4446.98
4441.25
4436.44
4431.46
4427.28
4422.88
4419.28
4415.42
4412.26
4408.85
4406.07
4403.1
4400.67
4398.06
4395.98
4393.75
4391.83
4389.86
4388.2
4386.46
4385
4383.44
4382.2
4380.92
4379.88
4378.7
4377.88
4376.87
4376.15
4375.22
4374.64
4373.87
4373.45
4372.79
4372.45
4371.88
4371.58
4371.02
4370.69
4370.18
4369.91
4369.47
4369.27
4368.89
4368.75
4368.43
4368.44
4368.36
4368.51
4368.51
4368.89
4368.89
4369.43
4369.43
4370.28
4371.01
4401.55
4511.72
86896.5
8261.67
7568.69
6999.44
6543.83
6184.49
5902.14
5678.09
5498.67
5352.44
5232.31
5131.76
5047.38
4975.15
4913.53
4859.79
4813.4
4772.26
4736.44
4704.22
4676
4650.25
4627.63
4606.73
4588.33
4571.11
4555.99
4541.64
4529.05
4516.96
4506.41
4496.14
4487.22
4478.41
4470.82
4463.22
4456.74
4450.16
4444.59
4438.85
4434.02
4429.03
4424.84
4420.44
4416.83
4412.96
4409.8
4406.38
4403.59
4400.61
4398.18
4395.57
4393.48
4391.24
4389.32
4387.35
4385.69
4383.94
4382.48
4380.91
4379.67
4378.38
4377.34
4376.15
4375.34
4374.31
4373.6
4372.66
4372.09
4371.31
4370.89
4370.22
4369.88
4369.31
4369
4368.44
4368.11
4367.6
4367.33
4366.89
4366.68
4366.31
4366.16
4365.84
4365.84
4365.76
4365.9
4365.9
4366.27
4366.27
4366.81
4366.81
4367.65
4368.39
4399.43
4509.52
83225.7
8261.67
7568.74
6999.45
6543.69
6184.13
5901.54
5677.26
5497.62
5351.21
5230.9
5130.21
5045.7
4973.35
4911.64
4857.81
4811.34
4770.13
4734.25
4701.97
4673.69
4647.9
4625.25
4604.3
4585.87
4568.62
4553.46
4539.09
4526.48
4514.36
4503.79
4493.5
4484.56
4475.74
4468.13
4460.52
4454.02
4447.43
4441.84
4436.09
4431.25
4426.26
4422.06
4417.64
4414.02
4410.14
4406.98
4403.55
4400.76
4397.77
4395.33
4392.71
4390.62
4388.37
4386.45
4384.46
4382.8
4381.05
4379.58
4378.01
4376.77
4375.47
4374.43
4373.24
4372.42
4371.39
4370.67
4369.73
4369.15
4368.37
4367.95
4367.28
4366.93
4366.36
4366.05
4365.49
4365.16
4364.64
4364.37
4363.92
4363.72
4363.34
4363.19
4362.87
4362.86
4362.77
4362.91
4362.9
4363.27
4363.27
4363.8
4363.8
4364.64
4365.39
4397.01
4507.01
79620.8
8261.67
7568.79
6999.46
6543.54
6183.73
5900.87
5676.33
5496.45
5349.81
5229.32
5128.46
5043.8
4971.33
4909.5
4855.57
4809.01
4767.72
4731.77
4699.42
4671.1
4645.25
4622.55
4601.56
4583.09
4565.8
4550.61
4536.21
4523.57
4511.43
4500.84
4490.52
4481.56
4472.72
4465.1
4457.46
4450.95
4444.34
4438.74
4432.97
4428.13
4423.12
4418.91
4414.48
4410.85
4406.96
4403.79
4400.36
4397.55
4394.56
4392.11
4389.48
4387.38
4385.13
4383.2
4381.21
4379.54
4377.79
4376.31
4374.74
4373.49
4372.18
4371.14
4369.94
4369.12
4368.09
4367.36
4366.42
4365.84
4365.05
4364.62
4363.95
4363.6
4363.02
4362.72
4362.15
4361.82
4361.3
4361.03
4360.58
4360.37
4359.98
4359.84
4359.51
4359.5
4359.4
4359.53
4359.52
4359.88
4359.88
4360.4
4360.4
4361.24
4362
4394.28
4504.2
76076
8261.67
7568.85
6999.48
6543.37
6183.29
5900.13
5675.29
5495.14
5348.26
5227.56
5126.51
5041.69
4969.07
4907.12
4853.08
4806.42
4765.04
4729.01
4696.59
4668.2
4642.29
4619.54
4598.5
4579.99
4562.66
4547.43
4533
4520.33
4508.15
4497.53
4487.19
4478.21
4469.34
4461.7
4454.05
4447.52
4440.89
4435.28
4429.5
4424.63
4419.61
4415.39
4410.95
4407.31
4403.41
4400.23
4396.78
4393.97
4390.97
4388.51
4385.88
4383.77
4381.51
4379.57
4377.57
4375.9
4374.14
4372.66
4371.08
4369.82
4368.51
4367.47
4366.26
4365.43
4364.39
4363.67
4362.72
4362.13
4361.34
4360.91
4360.24
4359.88
4359.3
4358.99
4358.42
4358.09
4357.56
4357.29
4356.84
4356.62
4356.24
4356.09
4355.76
4355.74
4355.63
4355.76
4355.74
4356.09
4356.09
4356.6
4356.6
4357.43
4358.22
4391.24
4501.09
72587.4
8261.67
7568.92
6999.49
6543.18
6182.8
5899.31
5674.15
5493.7
5346.55
5225.61
5124.36
5039.36
4966.58
4904.49
4850.32
4803.55
4762.07
4725.96
4693.45
4664.99
4639.02
4616.21
4595.12
4576.56
4559.18
4543.91
4529.44
4516.73
4504.53
4493.88
4483.5
4474.5
4465.61
4457.95
4450.27
4443.72
4437.08
4431.44
4425.65
4420.77
4415.73
4411.5
4407.04
4403.39
4399.48
4396.28
4392.83
4390.01
4386.99
4384.53
4381.88
4379.77
4377.5
4375.56
4373.55
4371.87
4370.1
4368.62
4367.02
4365.77
4364.45
4363.4
4362.18
4361.35
4360.31
4359.58
4358.62
4358.03
4357.23
4356.8
4356.12
4355.76
4355.18
4354.87
4354.3
4353.96
4353.43
4353.15
4352.7
4352.48
4352.09
4351.94
4351.61
4351.58
4351.46
4351.58
4351.56
4351.9
4351.9
4352.4
4352.4
4353.22
4354.03
4387.88
4497.68
69161.6
8261.68
7568.99
6999.51
6542.98
6182.28
5898.42
5672.9
5492.12
5344.68
5223.48
5122
5036.8
4963.85
4901.6
4847.29
4800.4
4758.82
4722.61
4690.02
4661.48
4635.43
4612.55
4591.4
4572.79
4555.37
4540.05
4525.53
4512.79
4500.55
4489.87
4479.46
4470.43
4461.51
4453.82
4446.12
4439.55
4432.89
4427.24
4421.42
4416.53
4411.47
4407.22
4402.75
4399.08
4395.16
4391.95
4388.49
4385.65
4382.63
4380.15
4377.5
4375.37
4373.09
4371.14
4369.13
4367.44
4365.66
4364.17
4362.58
4361.31
4359.98
4358.93
4357.71
4356.87
4355.82
4355.09
4354.12
4353.53
4352.73
4352.29
4351.6
4351.24
4350.65
4350.34
4349.76
4349.42
4348.89
4348.61
4348.15
4347.93
4347.53
4347.38
4347.05
4347.01
4346.88
4346.99
4346.97
4347.3
4347.3
4347.78
4347.78
4348.6
4349.43
4384.19
4493.97
65804.6
8261.68
7569.07
6999.53
6542.77
6181.71
5897.45
5671.54
5490.41
5342.65
5221.17
5119.44
5034.02
4960.87
4898.46
4844
4796.98
4755.27
4718.96
4686.27
4657.64
4631.52
4608.57
4587.36
4568.69
4551.2
4535.84
4521.28
4508.49
4496.21
4485.49
4475.05
4465.99
4457.04
4449.33
4441.6
4435.01
4428.32
4422.65
4416.81
4411.9
4406.82
4402.56
4398.07
4394.39
4390.45
4387.23
4383.75
4380.91
4377.87
4375.38
4372.72
4370.58
4368.29
4366.33
4364.31
4362.61
4360.82
4359.33
4357.72
4356.45
4355.11
4354.05
4352.82
4351.98
4350.92
4350.18
4349.22
4348.62
4347.81
4347.36
4346.67
4346.31
4345.71
4345.4
4344.82
4344.47
4343.94
4343.65
4343.19
4342.96
4342.56
4342.4
4342.07
4342.02
4341.88
4341.99
4341.96
4342.27
4342.27
4342.74
4342.74
4343.55
4344.4
4380.17
4489.96
62522.1
8261.68
7569.15
6999.56
6542.54
6181.09
5896.41
5670.08
5488.56
5340.45
5218.66
5116.67
5031.01
4957.66
4895.06
4840.44
4793.27
4751.43
4715
4682.21
4653.49
4627.28
4604.26
4582.97
4564.23
4546.69
4531.28
4516.66
4503.83
4491.51
4480.75
4470.27
4461.17
4452.19
4444.45
4436.7
4430.08
4423.36
4417.67
4411.81
4406.87
4401.78
4397.5
4392.99
4389.3
4385.34
4382.11
4378.61
4375.76
4372.7
4370.21
4367.53
4365.38
4363.08
4361.11
4359.07
4357.37
4355.57
4354.07
4352.45
4351.17
4349.83
4348.76
4347.52
4346.67
4345.61
4344.87
4343.89
4343.29
4342.47
4342.02
4341.32
4340.95
4340.35
4340.03
4339.45
4339.1
4338.56
4338.27
4337.8
4337.57
4337.17
4337
4336.67
4336.61
4336.46
4336.56
4336.52
4336.82
4336.82
4337.27
4337.27
4338.08
4338.96
4375.81
4485.66
59319.2
8261.68
7569.24
6999.58
6542.29
6180.44
5895.3
5668.52
5486.57
5338.09
5215.97
5113.68
5027.77
4954.19
4891.4
4836.6
4789.27
4747.3
4710.74
4677.83
4649.01
4622.71
4599.6
4578.24
4559.43
4541.83
4526.35
4511.68
4498.8
4486.43
4475.63
4465.11
4455.98
4446.96
4439.19
4431.4
4424.75
4418.01
4412.29
4406.41
4401.46
4396.34
4392.04
4387.51
4383.8
4379.83
4376.58
4373.07
4370.2
4367.13
4364.62
4361.93
4359.76
4357.45
4355.48
4353.43
4351.72
4349.91
4348.4
4346.77
4345.48
4344.12
4343.05
4341.8
4340.94
4339.87
4339.12
4338.14
4337.53
4336.7
4336.25
4335.55
4335.17
4334.57
4334.24
4333.66
4333.31
4332.76
4332.46
4331.99
4331.75
4331.34
4331.18
4330.84
4330.77
4330.61
4330.69
4330.65
4330.93
4330.94
4331.37
4331.37
4332.17
4333.08
4371.09
4481.07
56200.9
8261.68
7569.33
6999.61
6542.03
6179.74
5894.11
5666.84
5484.45
5335.56
5213.09
5110.49
5024.3
4950.48
4887.47
4832.48
4784.99
4742.86
4706.16
4673.14
4644.21
4617.8
4594.61
4573.16
4554.28
4536.6
4521.07
4506.33
4493.4
4480.98
4470.13
4459.57
4450.4
4441.34
4433.53
4425.71
4419.04
4412.26
4406.52
4400.61
4395.63
4390.49
4386.17
4381.62
4377.89
4373.9
4370.63
4367.11
4364.22
4361.13
4358.61
4355.9
4353.73
4351.4
4349.42
4347.36
4345.64
4343.81
4342.3
4340.66
4339.36
4337.99
4336.91
4335.65
4334.79
4333.7
4332.95
4331.96
4331.34
4330.51
4330.05
4329.34
4328.96
4328.35
4328.02
4327.43
4327.07
4326.52
4326.22
4325.74
4325.5
4325.08
4324.91
4324.57
4324.5
4324.31
4324.39
4324.33
4324.61
4324.61
4325.02
4325.02
4325.81
4326.76
4366.01
4476.19
53171.6
8261.68
7569.43
6999.65
6541.76
6179.01
5892.85
5665.06
5482.19
5332.87
5210.02
5107.08
5020.59
4946.51
4883.27
4828.07
4780.4
4738.11
4701.27
4668.11
4639.07
4612.55
4589.26
4567.72
4548.76
4531.01
4515.41
4500.61
4487.62
4475.14
4464.25
4453.64
4444.42
4435.33
4427.48
4419.63
4412.92
4406.11
4400.34
4394.4
4389.4
4384.23
4379.89
4375.32
4371.57
4367.55
4364.27
4360.72
4357.82
4354.72
4352.18
4349.46
4347.27
4344.93
4342.93
4340.86
4339.13
4337.29
4335.76
4334.11
4332.81
4331.43
4330.34
4329.07
4328.19
4327.1
4326.34
4325.34
4324.72
4323.87
4323.41
4322.69
4322.3
4321.69
4321.35
4320.76
4320.4
4319.84
4319.53
4319.05
4318.8
4318.38
4318.2
4317.85
4317.77
4317.58
4317.64
4317.58
4317.83
4317.83
4318.23
4318.23
4319.01
4319.99
4360.55
4471.02
50235.4
8261.68
7569.54
6999.69
6541.48
6178.23
5891.52
5663.18
5479.8
5330.02
5206.76
5103.45
5016.65
4942.29
4878.81
4823.39
4775.52
4733.06
4696.07
4662.76
4633.59
4606.96
4583.57
4561.93
4542.89
4525.05
4509.38
4494.51
4481.46
4468.92
4457.98
4447.31
4438.05
4428.91
4421.03
4413.13
4406.39
4399.55
4393.75
4387.77
4382.75
4377.55
4373.19
4368.59
4364.82
4360.78
4357.48
4353.91
4351
4347.87
4345.32
4342.58
4340.38
4338.02
4336.01
4333.92
4332.18
4330.33
4328.79
4327.13
4325.81
4324.42
4323.32
4322.04
4321.16
4320.05
4319.29
4318.28
4317.65
4316.79
4316.32
4315.59
4315.2
4314.58
4314.24
4313.64
4313.27
4312.71
4312.4
4311.9
4311.65
4311.22
4311.04
4310.68
4310.6
4310.39
4310.44
4310.36
4310.6
4310.6
4310.98
4310.98
4311.75
4312.77
4354.7
4465.51
47396.2
8261.68
7569.65
6999.73
6541.18
6177.42
5890.12
5661.19
5477.26
5326.99
5203.3
5099.61
5012.48
4937.81
4874.07
4818.42
4770.35
4727.69
4690.53
4657.08
4627.77
4601.02
4577.51
4555.77
4536.64
4518.72
4502.96
4488.03
4474.91
4462.31
4451.31
4440.59
4431.28
4422.09
4414.17
4406.23
4399.45
4392.57
4386.74
4380.73
4375.67
4370.45
4366.06
4361.43
4357.64
4353.58
4350.26
4346.67
4343.73
4340.59
4338.02
4335.26
4333.04
4330.67
4328.65
4326.54
4324.79
4322.92
4321.38
4319.7
4318.37
4316.96
4315.86
4314.57
4313.67
4312.56
4311.79
4310.76
4310.13
4309.26
4308.78
4308.04
4307.64
4307.01
4306.67
4306.06
4305.69
4305.12
4304.81
4304.3
4304.05
4303.61
4303.42
4303.06
4302.96
4302.74
4302.78
4302.69
4302.91
4302.91
4303.27
4303.26
4304.02
4305.09
4348.44
4459.66
44657.3
8261.68
7569.77
6999.77
6540.88
6176.57
5888.64
5659.1
5474.59
5323.8
5199.65
5095.55
5008.06
4933.08
4869.06
4813.16
4764.87
4722.01
4684.68
4651.06
4621.61
4594.73
4571.1
4549.25
4530.02
4512.01
4496.17
4481.15
4467.97
4455.3
4444.24
4433.46
4424.1
4414.86
4406.89
4398.91
4392.09
4385.17
4379.3
4373.26
4368.17
4362.91
4358.5
4353.85
4350.03
4345.94
4342.6
4338.99
4336.03
4332.87
4330.28
4327.5
4325.27
4322.87
4320.84
4318.71
4316.95
4315.07
4313.51
4311.82
4310.48
4309.06
4307.94
4306.63
4305.73
4304.6
4303.82
4302.79
4302.14
4301.27
4300.78
4300.03
4299.63
4298.99
4298.64
4298.02
4297.65
4297.07
4296.75
4296.24
4295.98
4295.53
4295.33
4294.97
4294.86
4294.63
4294.65
4294.55
4294.75
4294.75
4295.08
4295.08
4295.83
4296.94
4341.74
4453.43
42021.8
8261.68
7569.9
6999.83
6540.56
6175.68
5887.1
5656.9
5471.79
5320.45
5195.81
5091.28
5003.41
4928.09
4863.77
4807.61
4759.08
4716.01
4678.49
4644.71
4615.1
4588.08
4564.33
4542.36
4523.02
4504.91
4488.99
4473.89
4460.63
4447.88
4436.76
4425.92
4416.51
4407.21
4399.19
4391.16
4384.3
4377.34
4371.44
4365.36
4360.24
4354.95
4350.5
4345.82
4341.97
4337.86
4334.49
4330.86
4327.88
4324.7
4322.09
4319.29
4317.04
4314.62
4312.58
4310.43
4308.65
4306.75
4305.19
4303.48
4302.13
4300.69
4299.56
4298.24
4297.33
4296.19
4295.4
4294.36
4293.7
4292.81
4292.31
4291.55
4291.14
4290.5
4290.14
4289.52
4289.14
4288.55
4288.22
4287.7
4287.43
4286.98
4286.77
4286.4
4286.29
4286.04
4286.05
4285.93
4286.12
4286.11
4286.42
4286.41
4287.15
4288.31
4334.59
4446.79
39492.5
8261.68
7570.03
6999.88
6540.24
6174.75
5885.49
5654.6
5468.85
5316.93
5191.77
5086.79
4998.52
4922.84
4858.21
4801.76
4752.99
4709.7
4671.98
4638.01
4608.24
4581.07
4557.18
4535.09
4515.65
4497.43
4481.41
4466.22
4452.88
4440.07
4428.87
4417.97
4408.49
4399.14
4391.07
4382.99
4376.09
4369.08
4363.14
4357.02
4351.87
4346.54
4342.06
4337.35
4333.47
4329.33
4325.94
4322.28
4319.28
4316.07
4313.45
4310.62
4308.35
4305.92
4303.85
4301.69
4299.89
4297.98
4296.4
4294.67
4293.31
4291.85
4290.72
4289.38
4288.45
4287.3
4286.5
4285.45
4284.78
4283.88
4283.37
4282.6
4282.18
4281.53
4281.17
4280.54
4280.15
4279.56
4279.22
4278.69
4278.41
4277.95
4277.74
4277.36
4277.23
4276.98
4276.97
4276.83
4277
4276.99
4277.28
4277.26
4278
4279.2
4326.95
4439.71
37071.7
8261.67
7570.16
6999.94
6539.9
6173.79
5883.81
5652.2
5465.78
5313.25
5187.55
5082.08
4993.38
4917.33
4852.37
4795.62
4746.59
4703.06
4665.13
4630.97
4601.03
4573.7
4549.67
4527.45
4507.88
4489.56
4473.44
4458.16
4444.74
4431.84
4420.57
4409.59
4400.06
4390.65
4382.53
4374.39
4367.44
4360.38
4354.4
4348.24
4343.05
4337.68
4333.17
4328.42
4324.52
4320.35
4316.93
4313.25
4310.22
4306.99
4304.34
4301.49
4299.2
4296.74
4294.66
4292.48
4290.67
4288.73
4287.14
4285.4
4284.02
4282.54
4281.4
4280.05
4279.11
4277.94
4277.13
4276.06
4275.39
4274.47
4273.95
4273.17
4272.74
4272.08
4271.71
4271.07
4270.68
4270.08
4269.74
4269.19
4268.91
4268.44
4268.22
4267.83
4267.7
4267.43
4267.4
4267.25
4267.4
4267.39
4267.65
4267.63
4268.35
4269.6
4318.8
4432.15
34761.5
8261.67
7570.3
7000.01
6539.56
6172.8
5882.07
5649.71
5462.57
5309.4
5183.13
5077.15
4988.01
4911.56
4846.25
4789.19
4739.88
4696.1
4657.94
4623.58
4593.46
4565.96
4541.79
4519.43
4499.74
4481.29
4465.07
4449.69
4436.18
4423.19
4411.85
4400.8
4391.2
4381.72
4373.54
4365.35
4358.35
4351.24
4345.21
4339.01
4333.78
4328.37
4323.83
4319.05
4315.11
4310.91
4307.46
4303.75
4300.7
4297.44
4294.77
4291.89
4289.58
4287.1
4285
4282.79
4280.97
4279.01
4277.41
4275.65
4274.26
4272.76
4271.6
4270.23
4269.28
4268.1
4267.28
4266.2
4265.51
4264.58
4264.05
4263.26
4262.82
4262.15
4261.77
4261.12
4260.73
4260.11
4259.76
4259.21
4258.92
4258.43
4258.21
4257.81
4257.67
4257.39
4257.34
4257.17
4257.31
4257.28
4257.53
4257.49
4258.2
4259.51
4310.11
4424.08
32563.7
8261.67
7570.44
7000.08
6539.21
6171.78
5880.27
5647.11
5459.24
5305.39
5178.52
5072.01
4982.4
4905.53
4839.85
4782.46
4732.85
4688.81
4650.42
4615.84
4585.54
4557.86
4533.53
4511.02
4491.2
4472.63
4456.3
4440.81
4427.2
4414.13
4402.71
4391.58
4381.91
4372.36
4364.12
4355.87
4348.81
4341.66
4335.58
4329.33
4324.06
4318.61
4314.03
4309.21
4305.24
4301
4297.53
4293.78
4290.71
4287.42
4284.72
4281.82
4279.48
4276.98
4274.87
4272.63
4270.79
4268.82
4267.19
4265.41
4264.01
4262.49
4261.32
4259.93
4258.97
4257.77
4256.94
4255.84
4255.14
4254.2
4253.66
4252.85
4252.4
4251.72
4251.33
4250.68
4250.28
4249.65
4249.29
4248.73
4248.43
4247.93
4247.7
4247.29
4247.14
4246.85
4246.79
4246.59
4246.71
4246.68
4246.9
4246.85
4247.55
4248.92
4300.83
4415.46
30479.8
8261.66
7570.59
7000.16
6538.85
6170.72
5878.4
5644.42
5455.77
5301.22
5173.72
5066.65
4976.54
4899.23
4833.17
4775.43
4725.52
4681.2
4642.56
4607.75
4577.25
4549.38
4524.89
4502.22
4482.26
4463.56
4447.12
4431.51
4417.81
4404.64
4393.14
4381.92
4372.18
4362.56
4354.26
4345.95
4338.83
4331.62
4325.49
4319.19
4313.88
4308.38
4303.77
4298.91
4294.9
4290.63
4287.12
4283.34
4280.24
4276.92
4274.2
4271.27
4268.91
4266.38
4264.25
4261.99
4260.13
4258.13
4256.49
4254.69
4253.27
4251.73
4250.55
4249.14
4248.16
4246.94
4246.1
4244.99
4244.28
4243.32
4242.77
4241.95
4241.49
4240.79
4240.4
4239.74
4239.33
4238.69
4238.32
4237.75
4237.44
4236.93
4236.69
4236.26
4236.1
4235.8
4235.73
4235.51
4235.61
4235.57
4235.77
4235.71
4236.4
4237.82
4290.92
4406.25
28511.2
8261.65
7570.75
7000.24
6538.49
6169.64
5876.47
5641.63
5452.18
5296.88
5168.73
5061.07
4970.45
4892.68
4826.21
4768.1
4717.87
4673.25
4634.36
4599.32
4568.6
4540.54
4515.87
4493.04
4472.94
4454.1
4437.53
4421.81
4408
4394.73
4383.14
4371.84
4362.02
4352.32
4343.95
4335.57
4328.4
4321.13
4314.95
4308.6
4303.24
4297.69
4293.04
4288.13
4284.09
4279.78
4276.24
4272.43
4269.3
4265.94
4263.2
4260.24
4257.85
4255.29
4253.14
4250.86
4248.98
4246.95
4245.3
4243.48
4242.04
4240.48
4239.28
4237.85
4236.86
4235.62
4234.77
4233.64
4232.92
4231.94
4231.38
4230.54
4230.07
4229.36
4228.96
4228.29
4227.87
4227.22
4226.85
4226.26
4225.94
4225.42
4225.17
4224.73
4224.56
4224.25
4224.16
4223.92
4224
4223.95
4224.13
4224.05
4224.73
4226.2
4280.38
4396.41
26659
8261.64
7570.9
7000.34
6538.13
6168.53
5874.49
5638.76
5448.46
5292.4
5163.55
5055.28
4964.12
4885.87
4818.97
4760.48
4709.91
4664.99
4625.82
4590.53
4559.58
4531.32
4506.46
4483.46
4463.21
4444.23
4427.53
4411.68
4397.77
4384.39
4372.7
4361.31
4351.41
4341.64
4333.2
4324.74
4317.51
4310.18
4303.94
4297.54
4292.13
4286.53
4281.84
4276.88
4272.81
4268.45
4264.88
4261.03
4257.87
4254.48
4251.71
4248.72
4246.3
4243.72
4241.54
4239.23
4237.33
4235.28
4233.61
4231.77
4230.31
4228.72
4227.51
4226.06
4225.05
4223.8
4222.93
4221.79
4221.05
4220.06
4219.48
4218.63
4218.15
4217.43
4217.02
4216.33
4215.9
4215.24
4214.86
4214.26
4213.93
4213.4
4213.13
4212.69
4212.5
4212.17
4212.07
4211.82
4211.88
4211.81
4211.96
4211.87
4212.54
4214.07
4269.2
4385.91
24924.4
8261.63
7571.07
7000.43
6537.76
6167.4
5872.45
5635.8
5444.62
5287.76
5158.19
5049.28
4957.55
4878.79
4811.45
4752.56
4701.63
4656.39
4616.94
4581.38
4550.21
4521.72
4496.68
4473.5
4453.08
4433.95
4417.11
4401.14
4387.11
4373.62
4361.83
4350.35
4340.36
4330.5
4321.99
4313.46
4306.16
4298.76
4292.47
4286.01
4280.55
4274.9
4270.16
4265.16
4261.04
4256.65
4253.04
4249.15
4245.95
4242.53
4239.73
4236.71
4234.26
4231.65
4229.45
4227.11
4225.19
4223.11
4221.43
4219.55
4218.08
4216.47
4215.24
4213.77
4212.74
4211.47
4210.59
4209.42
4208.67
4207.66
4207.07
4206.2
4205.71
4204.97
4204.55
4203.86
4203.42
4202.75
4202.35
4201.74
4201.4
4200.86
4200.58
4200.12
4199.93
4199.58
4199.47
4199.19
4199.23
4199.15
4199.28
4199.17
4199.82
4201.4
4257.38
4374.7
23308.2
8261.62
7571.23
7000.54
6537.4
6166.24
5870.36
5632.75
5440.66
5282.96
5152.65
5043.07
4950.75
4871.46
4803.65
4744.35
4693.05
4647.46
4607.71
4571.88
4540.46
4511.75
4486.51
4463.14
4442.55
4423.26
4406.28
4390.17
4376.02
4362.42
4350.53
4338.94
4328.86
4318.91
4310.32
4301.72
4294.35
4286.88
4280.53
4274
4268.49
4262.79
4258
4252.95
4248.79
4244.35
4240.7
4236.78
4233.55
4230.09
4227.25
4224.2
4221.72
4219.08
4216.85
4214.49
4212.54
4210.44
4208.73
4206.83
4205.34
4203.7
4202.46
4200.97
4199.92
4198.62
4197.73
4196.55
4195.78
4194.75
4194.14
4193.26
4192.75
4192
4191.57
4190.86
4190.42
4189.73
4189.33
4188.7
4188.35
4187.79
4187.51
4187.03
4186.83
4186.46
4186.34
4186.05
4186.06
4185.97
4186.07
4185.93
4186.58
4188.21
4244.91
4362.75
21806.3
8261.61
7571.4
7000.65
6537.03
6165.06
5868.22
5629.61
5436.59
5278.02
5146.93
5036.65
4943.72
4863.88
4795.58
4735.83
4684.15
4638.21
4598.15
4562.03
4530.36
4501.41
4475.95
4452.38
4431.62
4412.16
4395.04
4378.78
4364.51
4350.78
4338.78
4327.08
4316.91
4306.87
4298.2
4289.51
4282.07
4274.53
4268.12
4261.53
4255.96
4250.2
4245.36
4240.26
4236.06
4231.57
4227.88
4223.91
4220.65
4217.15
4214.28
4211.19
4208.68
4206
4203.76
4201.36
4199.39
4197.26
4195.53
4193.6
4192.1
4190.43
4189.16
4187.65
4186.58
4185.26
4184.35
4183.15
4182.37
4181.32
4180.7
4179.8
4179.28
4178.51
4178.07
4177.35
4176.89
4176.19
4175.78
4175.14
4174.78
4174.2
4173.9
4173.41
4173.19
4172.82
4172.68
4172.37
4172.36
4172.25
4172.33
4172.17
4172.8
4174.48
4231.81
4350.02
20414.1
8261.6
7571.58
7000.77
6536.66
6163.87
5866.03
5626.4
5432.4
5272.93
5141.04
5030.03
4936.45
4856.04
4787.23
4727.03
4674.94
4628.63
4588.24
4551.82
4519.88
4490.69
4465.01
4441.23
4420.29
4400.65
4383.37
4366.97
4352.56
4338.7
4326.59
4314.78
4304.51
4294.38
4285.62
4276.85
4269.33
4261.71
4255.24
4248.58
4242.95
4237.13
4232.24
4227.08
4222.83
4218.3
4214.57
4210.55
4207.25
4203.71
4200.81
4197.68
4195.14
4192.42
4190.15
4187.72
4185.73
4183.56
4181.81
4179.86
4178.33
4176.63
4175.35
4173.81
4172.73
4171.38
4170.46
4169.23
4168.44
4167.37
4166.73
4165.81
4165.27
4164.49
4164.04
4163.3
4162.84
4162.12
4161.7
4161.04
4160.67
4160.08
4159.77
4159.26
4159.03
4158.64
4158.48
4158.16
4158.13
4158
4158.05
4157.86
4158.49
4160.21
4218.06
4336.48
19126.5
8261.58
7571.75
7000.89
6536.29
6162.66
5863.8
5623.11
5428.11
5267.7
5134.97
5023.21
4928.96
4847.95
4778.61
4717.93
4665.42
4618.73
4578
4541.26
4509.04
4479.59
4453.68
4429.69
4408.55
4388.73
4371.29
4354.73
4340.18
4326.19
4313.95
4302.03
4291.66
4281.42
4272.57
4263.71
4256.12
4248.42
4241.87
4235.14
4229.46
4223.57
4218.63
4213.42
4209.11
4204.53
4200.75
4196.69
4193.35
4189.77
4186.83
4183.66
4181.09
4178.34
4176.04
4173.57
4171.55
4169.35
4167.58
4165.6
4164.05
4162.32
4161.02
4159.45
4158.35
4156.98
4156.04
4154.79
4153.98
4152.89
4152.23
4151.29
4150.74
4149.94
4149.48
4148.72
4148.25
4147.52
4147.08
4146.41
4146.03
4145.42
4145.1
4144.57
4144.33
4143.92
4143.75
4143.41
4143.36
4143.21
4143.24
4143.02
4143.63
4145.4
4203.67
4322.09
17938.5
8261.56
7571.93
7001.03
6535.93
6161.43
5861.53
5619.76
5423.7
5262.33
5128.73
5016.19
4921.25
4839.61
4769.73
4708.55
4655.59
4608.5
4567.42
4530.35
4497.84
4468.12
4441.96
4417.75
4396.41
4376.39
4358.78
4342.06
4327.37
4313.23
4300.88
4288.83
4278.36
4268.01
4259.07
4250.11
4242.44
4234.65
4228.03
4221.23
4215.48
4209.52
4204.53
4199.26
4194.9
4190.26
4186.44
4182.33
4178.95
4175.32
4172.35
4169.14
4166.53
4163.74
4161.41
4158.9
4156.86
4154.63
4152.83
4150.82
4149.25
4147.49
4146.17
4144.57
4143.45
4142.05
4141.09
4139.82
4138.99
4137.88
4137.2
4136.24
4135.68
4134.86
4134.38
4133.61
4133.13
4132.38
4131.93
4131.24
4130.85
4130.22
4129.89
4129.35
4129.09
4128.66
4128.48
4128.12
4128.05
4127.88
4127.88
4127.62
4128.23
4130.03
4188.63
4306.82
16844.4
8261.54
7572.11
7001.17
6535.57
6160.19
5859.22
5616.33
5419.2
5256.83
5122.33
5008.97
4913.31
4831.03
4760.57
4698.88
4645.46
4597.96
4556.5
4519.09
4486.28
4456.27
4429.87
4405.41
4383.86
4363.65
4345.86
4328.96
4314.12
4299.84
4287.36
4275.18
4264.59
4254.13
4245.1
4236.04
4228.28
4220.41
4213.72
4206.84
4201.02
4194.99
4189.93
4184.6
4180.19
4175.5
4171.63
4167.47
4164.04
4160.37
4157.36
4154.1
4151.46
4148.62
4146.26
4143.72
4141.65
4139.38
4137.56
4135.52
4133.92
4132.13
4130.78
4129.16
4128.01
4126.59
4125.61
4124.32
4123.47
4122.34
4121.64
4120.66
4120.08
4119.24
4118.75
4117.96
4117.47
4116.7
4116.24
4115.54
4115.13
4114.48
4114.13
4113.58
4113.3
4112.85
4112.66
4112.28
4112.19
4112.01
4111.97
4111.68
4112.29
4114.11
4172.95
4290.63
15838.7
8261.52
7572.29
7001.32
6535.22
6158.94
5856.88
5612.84
5414.6
5251.2
5115.76
5001.57
4905.16
4822.21
4751.15
4688.92
4635.03
4587.09
4545.25
4507.48
4474.35
4444.05
4417.38
4392.68
4370.91
4350.49
4332.52
4315.45
4300.45
4286.01
4273.39
4261.08
4250.38
4239.8
4230.66
4221.5
4213.65
4205.69
4198.92
4191.96
4186.07
4179.97
4174.85
4169.45
4164.99
4160.23
4156.31
4152.1
4148.63
4144.9
4141.85
4138.55
4135.87
4132.99
4130.6
4128.02
4125.92
4123.61
4121.77
4119.69
4118.07
4116.24
4114.87
4113.22
4112.05
4110.6
4109.6
4108.28
4107.42
4106.26
4105.54
4104.54
4103.94
4103.08
4102.58
4101.77
4101.27
4100.48
4100.01
4099.28
4098.86
4098.2
4097.84
4097.26
4096.97
4096.5
4096.29
4095.9
4095.79
4095.59
4095.52
4095.19
4095.79
4097.63
4156.63
4273.51
14915.4
8261.5
7572.48
7001.48
6534.87
6157.69
5854.51
5609.29
5409.91
5245.45
5109.05
4993.98
4896.8
4813.15
4741.48
4678.69
4624.3
4575.91
4533.66
4495.53
4462.07
4431.46
4404.52
4379.56
4357.57
4336.93
4318.76
4301.5
4286.34
4271.74
4258.98
4246.53
4235.71
4225.01
4215.76
4206.5
4198.55
4190.5
4183.64
4176.59
4170.63
4164.46
4159.27
4153.81
4149.29
4144.47
4140.5
4136.23