/*--------------------------------*- C++ -*----------------------------------*\
| =========                 |                                                 |
| \\      /  F ield         | OpenFOAM: The Open Source CFD Toolbox           |
|  \\    /   O peration     | Version:  v2012                                 |
|   \\  /    A nd           | Website:  www.openfoam.com                      |
|    \\/     M anipulation  |                                                 |
\*---------------------------------------------------------------------------*/
FoamFile
{
    version     2.0;
    format      ascii;
    class       volVectorField;
    location    "44";
    object      wallShearStress;
}
// * * * * * * * * * * * * * * * * * * * * * * * * * * * * * * * * * * * * * //

dimensions      [0 2 -2 0 0 0 0];


internalField   uniform (0 0 0);

boundaryField
{
    inlet
    {
        type            calculated;
        value           uniform (0 0 0);
    }
    outlet
    {
        type            calculated;
        value           uniform (0 0 0);
    }
    topWall
    {
        type            calculated;
        value           nonuniform List<vector> 
545
(
(3.67462e-08 -2.58662e-08 0)
(3.67349e-08 -7.23579e-08 0)
(3.67148e-08 -1.20703e-07 0)
(3.66863e-08 -1.67651e-07 0)
(3.66504e-08 -2.126e-07 0)
(3.6608e-08 -2.56128e-07 0)
(3.65596e-08 -2.98606e-07 0)
(3.65056e-08 -3.40013e-07 0)
(3.64465e-08 -3.80259e-07 0)
(3.63827e-08 -4.19343e-07 0)
(3.63147e-08 -4.57318e-07 0)
(3.62429e-08 -4.94225e-07 0)
(3.61676e-08 -5.30092e-07 0)
(3.60893e-08 -5.64938e-07 0)
(3.60082e-08 -5.98788e-07 0)
(3.59248e-08 -6.3167e-07 0)
(3.58391e-08 -6.6361e-07 0)
(3.57517e-08 -6.94633e-07 0)
(3.56626e-08 -7.24762e-07 0)
(3.55722e-08 -7.54024e-07 0)
(3.54807e-08 -7.82441e-07 0)
(3.53882e-08 -8.10036e-07 0)
(3.5295e-08 -8.36834e-07 0)
(3.52013e-08 -8.62856e-07 0)
(3.51072e-08 -8.88124e-07 0)
(3.50129e-08 -9.1266e-07 0)
(3.49186e-08 -9.36484e-07 0)
(3.48243e-08 -9.59618e-07 0)
(3.47302e-08 -9.82081e-07 0)
(3.46364e-08 -1.00389e-06 0)
(3.45431e-08 -1.02507e-06 0)
(3.44502e-08 -1.04564e-06 0)
(3.4358e-08 -1.06561e-06 0)
(3.42665e-08 -1.085e-06 0)
(3.41757e-08 -1.10382e-06 0)
(3.40858e-08 -1.12211e-06 0)
(3.39968e-08 -1.13986e-06 0)
(3.39087e-08 -1.15711e-06 0)
(3.38216e-08 -1.17385e-06 0)
(3.37356e-08 -1.19011e-06 0)
(3.36506e-08 -1.2059e-06 0)
(3.35668e-08 -1.22124e-06 0)
(3.34842e-08 -1.23614e-06 0)
(3.34027e-08 -1.2506e-06 0)
(3.33224e-08 -1.26466e-06 0)
(3.32434e-08 -1.2783e-06 0)
(3.31656e-08 -1.29156e-06 0)
(3.3089e-08 -1.30444e-06 0)
(3.30137e-08 -1.31695e-06 0)
(3.29397e-08 -1.3291e-06 0)
(3.2867e-08 -1.34091e-06 0)
(3.27955e-08 -1.35238e-06 0)
(3.27254e-08 -1.36352e-06 0)
(3.26565e-08 -1.37434e-06 0)
(3.25889e-08 -1.38486e-06 0)
(3.25226e-08 -1.39508e-06 0)
(3.24575e-08 -1.40501e-06 0)
(3.23937e-08 -1.41466e-06 0)
(3.23312e-08 -1.42404e-06 0)
(3.22699e-08 -1.43315e-06 0)
(3.22098e-08 -1.44201e-06 0)
(3.2151e-08 -1.45061e-06 0)
(3.20933e-08 -1.45897e-06 0)
(3.20369e-08 -1.4671e-06 0)
(3.19817e-08 -1.475e-06 0)
(3.19276e-08 -1.48268e-06 0)
(3.18747e-08 -1.49015e-06 0)
(3.18229e-08 -1.4974e-06 0)
(3.17722e-08 -1.50445e-06 0)
(3.17226e-08 -1.51131e-06 0)
(3.16741e-08 -1.51798e-06 0)
(3.1627e-08 -1.52445e-06 0)
(3.15812e-08 -1.53067e-06 0)
(3.15361e-08 -1.53672e-06 0)
(3.14914e-08 -1.54269e-06 0)
(3.14469e-08 -1.54864e-06 0)
(3.14024e-08 -1.55456e-06 0)
(3.1358e-08 -1.56045e-06 0)
(3.13136e-08 -1.5663e-06 0)
(3.12692e-08 -1.57212e-06 0)
(3.12249e-08 -1.5779e-06 0)
(3.11806e-08 -1.58364e-06 0)
(3.11364e-08 -1.58935e-06 0)
(3.10922e-08 -1.59503e-06 0)
(3.10481e-08 -1.60067e-06 0)
(3.1004e-08 -1.60628e-06 0)
(3.096e-08 -1.61186e-06 0)
(3.0916e-08 -1.6174e-06 0)
(3.0872e-08 -1.62291e-06 0)
(3.08282e-08 -1.62838e-06 0)
(3.07844e-08 -1.63383e-06 0)
(3.07406e-08 -1.63924e-06 0)
(3.06969e-08 -1.64462e-06 0)
(3.06534e-08 -1.64996e-06 0)
(3.06094e-08 -1.65528e-06 0)
(3.05677e-08 -1.66052e-06 0)
(3.05289e-08 -1.66531e-06 0)
(3.04916e-08 -1.66966e-06 0)
(3.04555e-08 -1.67389e-06 0)
(3.04197e-08 -1.67814e-06 0)
(3.03837e-08 -1.68243e-06 0)
(3.03475e-08 -1.68673e-06 0)
(3.03112e-08 -1.69102e-06 0)
(3.02747e-08 -1.69532e-06 0)
(3.02381e-08 -1.69963e-06 0)
(3.02012e-08 -1.70394e-06 0)
(3.01642e-08 -1.70825e-06 0)
(3.01271e-08 -1.71257e-06 0)
(3.00897e-08 -1.7169e-06 0)
(3.00521e-08 -1.72123e-06 0)
(3.00144e-08 -1.72556e-06 0)
(2.99765e-08 -1.7299e-06 0)
(2.99385e-08 -1.73424e-06 0)
(2.99002e-08 -1.73859e-06 0)
(2.98618e-08 -1.74295e-06 0)
(2.98232e-08 -1.7473e-06 0)
(2.97844e-08 -1.75167e-06 0)
(2.97454e-08 -1.75603e-06 0)
(2.97062e-08 -1.7604e-06 0)
(2.96669e-08 -1.76478e-06 0)
(2.96273e-08 -1.76916e-06 0)
(2.95876e-08 -1.77355e-06 0)
(2.95477e-08 -1.77794e-06 0)
(2.95077e-08 -1.78233e-06 0)
(2.94674e-08 -1.78673e-06 0)
(2.94269e-08 -1.79113e-06 0)
(2.93863e-08 -1.79554e-06 0)
(2.93455e-08 -1.79995e-06 0)
(2.93045e-08 -1.80436e-06 0)
(2.92633e-08 -1.80878e-06 0)
(2.92219e-08 -1.81321e-06 0)
(2.91803e-08 -1.81764e-06 0)
(2.91385e-08 -1.82207e-06 0)
(2.90966e-08 -1.8265e-06 0)
(2.90544e-08 -1.83094e-06 0)
(2.90121e-08 -1.83539e-06 0)
(2.89695e-08 -1.83984e-06 0)
(2.89268e-08 -1.84429e-06 0)
(2.88839e-08 -1.84874e-06 0)
(2.88408e-08 -1.8532e-06 0)
(2.87975e-08 -1.85767e-06 0)
(2.8754e-08 -1.86213e-06 0)
(2.87103e-08 -1.86661e-06 0)
(2.86664e-08 -1.87108e-06 0)
(2.86223e-08 -1.87556e-06 0)
(2.8578e-08 -1.88004e-06 0)
(2.85336e-08 -1.88453e-06 0)
(2.84889e-08 -1.88902e-06 0)
(2.8444e-08 -1.89351e-06 0)
(2.8399e-08 -1.89801e-06 0)
(2.83537e-08 -1.90251e-06 0)
(2.83082e-08 -1.90701e-06 0)
(2.82626e-08 -1.91152e-06 0)
(2.82167e-08 -1.91603e-06 0)
(2.81707e-08 -1.92054e-06 0)
(2.81244e-08 -1.92506e-06 0)
(2.80779e-08 -1.92958e-06 0)
(2.80313e-08 -1.9341e-06 0)
(2.79844e-08 -1.93862e-06 0)
(2.79373e-08 -1.94315e-06 0)
(2.78901e-08 -1.94769e-06 0)
(2.78426e-08 -1.95222e-06 0)
(2.77949e-08 -1.95676e-06 0)
(2.77471e-08 -1.9613e-06 0)
(2.7699e-08 -1.96584e-06 0)
(2.76507e-08 -1.97039e-06 0)
(2.76022e-08 -1.97494e-06 0)
(2.75535e-08 -1.97949e-06 0)
(2.75046e-08 -1.98405e-06 0)
(2.74555e-08 -1.9886e-06 0)
(2.74062e-08 -1.99316e-06 0)
(2.73567e-08 -1.99772e-06 0)
(2.7307e-08 -2.00229e-06 0)
(2.72571e-08 -2.00686e-06 0)
(2.7207e-08 -2.01143e-06 0)
(2.71566e-08 -2.016e-06 0)
(2.71061e-08 -2.02057e-06 0)
(2.70553e-08 -2.02515e-06 0)
(2.70044e-08 -2.02973e-06 0)
(2.69532e-08 -2.03431e-06 0)
(2.69018e-08 -2.03889e-06 0)
(2.68502e-08 -2.04348e-06 0)
(2.67984e-08 -2.04806e-06 0)
(2.67464e-08 -2.05265e-06 0)
(2.66942e-08 -2.05724e-06 0)
(2.66418e-08 -2.06183e-06 0)
(2.65892e-08 -2.06643e-06 0)
(2.65363e-08 -2.07102e-06 0)
(2.64833e-08 -2.07562e-06 0)
(2.643e-08 -2.08022e-06 0)
(2.63766e-08 -2.08482e-06 0)
(2.63229e-08 -2.08942e-06 0)
(2.6269e-08 -2.09403e-06 0)
(2.62149e-08 -2.09863e-06 0)
(2.61606e-08 -2.10324e-06 0)
(2.6106e-08 -2.10785e-06 0)
(2.60513e-08 -2.11246e-06 0)
(2.59964e-08 -2.11706e-06 0)
(2.59412e-08 -2.12168e-06 0)
(2.58858e-08 -2.12629e-06 0)
(2.58302e-08 -2.1309e-06 0)
(2.57744e-08 -2.13552e-06 0)
(2.57184e-08 -2.14013e-06 0)
(2.56622e-08 -2.14475e-06 0)
(2.56058e-08 -2.14936e-06 0)
(2.55492e-08 -2.15398e-06 0)
(2.54923e-08 -2.1586e-06 0)
(2.54352e-08 -2.16321e-06 0)
(2.5378e-08 -2.16783e-06 0)
(2.53205e-08 -2.17245e-06 0)
(2.52628e-08 -2.17707e-06 0)
(2.52049e-08 -2.18169e-06 0)
(2.51467e-08 -2.18631e-06 0)
(2.50884e-08 -2.19093e-06 0)
(2.50298e-08 -2.19555e-06 0)
(2.49711e-08 -2.20017e-06 0)
(2.49121e-08 -2.20479e-06 0)
(2.48529e-08 -2.20941e-06 0)
(2.47935e-08 -2.21403e-06 0)
(2.47339e-08 -2.21865e-06 0)
(2.46741e-08 -2.22327e-06 0)
(2.46141e-08 -2.22789e-06 0)
(2.45539e-08 -2.23251e-06 0)
(2.44934e-08 -2.23713e-06 0)
(2.44327e-08 -2.24175e-06 0)
(2.43719e-08 -2.24637e-06 0)
(2.43108e-08 -2.25098e-06 0)
(2.42495e-08 -2.2556e-06 0)
(2.4188e-08 -2.26021e-06 0)
(2.41263e-08 -2.26483e-06 0)
(2.40644e-08 -2.26944e-06 0)
(2.40023e-08 -2.27405e-06 0)
(2.39399e-08 -2.27866e-06 0)
(2.38774e-08 -2.28327e-06 0)
(2.38146e-08 -2.28788e-06 0)
(2.37517e-08 -2.29249e-06 0)
(2.36885e-08 -2.2971e-06 0)
(2.36251e-08 -2.3017e-06 0)
(2.35615e-08 -2.3063e-06 0)
(2.34978e-08 -2.3109e-06 0)
(2.34338e-08 -2.3155e-06 0)
(2.33696e-08 -2.3201e-06 0)
(2.33052e-08 -2.3247e-06 0)
(2.32406e-08 -2.32929e-06 0)
(2.31757e-08 -2.33389e-06 0)
(2.31107e-08 -2.33848e-06 0)
(2.30455e-08 -2.34306e-06 0)
(2.29801e-08 -2.34765e-06 0)
(2.29145e-08 -2.35223e-06 0)
(2.28486e-08 -2.35681e-06 0)
(2.27826e-08 -2.36139e-06 0)
(2.27164e-08 -2.36597e-06 0)
(2.26499e-08 -2.37054e-06 0)
(2.25833e-08 -2.37511e-06 0)
(2.25165e-08 -2.37968e-06 0)
(2.24495e-08 -2.38425e-06 0)
(2.23822e-08 -2.38881e-06 0)
(2.23148e-08 -2.39337e-06 0)
(2.22472e-08 -2.39793e-06 0)
(2.21794e-08 -2.40248e-06 0)
(2.21114e-08 -2.40703e-06 0)
(2.20432e-08 -2.41158e-06 0)
(2.19748e-08 -2.41612e-06 0)
(2.19062e-08 -2.42066e-06 0)
(2.18374e-08 -2.4252e-06 0)
(2.17684e-08 -2.42973e-06 0)
(2.16993e-08 -2.43426e-06 0)
(2.16296e-08 -2.43879e-06 0)
(2.15618e-08 -2.44328e-06 0)
(2.14964e-08 -2.44756e-06 0)
(2.14321e-08 -2.45163e-06 0)
(2.13687e-08 -2.45567e-06 0)
(2.13048e-08 -2.45974e-06 0)
(2.12403e-08 -2.46387e-06 0)
(2.11751e-08 -2.46803e-06 0)
(2.11092e-08 -2.47222e-06 0)
(2.10425e-08 -2.47644e-06 0)
(2.09752e-08 -2.48069e-06 0)
(2.0907e-08 -2.48498e-06 0)
(2.08381e-08 -2.4893e-06 0)
(2.07685e-08 -2.49365e-06 0)
(2.06981e-08 -2.49803e-06 0)
(2.06269e-08 -2.50244e-06 0)
(2.05549e-08 -2.50689e-06 0)
(2.04822e-08 -2.51137e-06 0)
(2.04087e-08 -2.51589e-06 0)
(2.03343e-08 -2.52043e-06 0)
(2.02591e-08 -2.52501e-06 0)
(2.01832e-08 -2.52962e-06 0)
(2.01064e-08 -2.53426e-06 0)
(2.00288e-08 -2.53894e-06 0)
(1.99503e-08 -2.54364e-06 0)
(1.9871e-08 -2.54838e-06 0)
(1.97908e-08 -2.55316e-06 0)
(1.97098e-08 -2.55796e-06 0)
(1.96279e-08 -2.5628e-06 0)
(1.95452e-08 -2.56767e-06 0)
(1.94615e-08 -2.57257e-06 0)
(1.9377e-08 -2.5775e-06 0)
(1.92916e-08 -2.58246e-06 0)
(1.92053e-08 -2.58746e-06 0)
(1.91181e-08 -2.59249e-06 0)
(1.90299e-08 -2.59755e-06 0)
(1.89409e-08 -2.60264e-06 0)
(1.88509e-08 -2.60776e-06 0)
(1.876e-08 -2.61291e-06 0)
(1.86682e-08 -2.61809e-06 0)
(1.85754e-08 -2.6233e-06 0)
(1.84816e-08 -2.62855e-06 0)
(1.83869e-08 -2.63382e-06 0)
(1.82913e-08 -2.63912e-06 0)
(1.81947e-08 -2.64446e-06 0)
(1.80971e-08 -2.64982e-06 0)
(1.79985e-08 -2.65521e-06 0)
(1.78989e-08 -2.66063e-06 0)
(1.77984e-08 -2.66608e-06 0)
(1.76968e-08 -2.67155e-06 0)
(1.75943e-08 -2.67705e-06 0)
(1.74908e-08 -2.68259e-06 0)
(1.73862e-08 -2.68814e-06 0)
(1.72806e-08 -2.69373e-06 0)
(1.71741e-08 -2.69934e-06 0)
(1.70665e-08 -2.70497e-06 0)
(1.69578e-08 -2.71063e-06 0)
(1.68482e-08 -2.71632e-06 0)
(1.67375e-08 -2.72203e-06 0)
(1.66258e-08 -2.72776e-06 0)
(1.6513e-08 -2.73352e-06 0)
(1.63993e-08 -2.7393e-06 0)
(1.62844e-08 -2.7451e-06 0)
(1.61686e-08 -2.75093e-06 0)
(1.60517e-08 -2.75677e-06 0)
(1.59337e-08 -2.76264e-06 0)
(1.58147e-08 -2.76852e-06 0)
(1.56947e-08 -2.77443e-06 0)
(1.55736e-08 -2.78035e-06 0)
(1.54515e-08 -2.78629e-06 0)
(1.53283e-08 -2.79225e-06 0)
(1.52041e-08 -2.79822e-06 0)
(1.50789e-08 -2.80421e-06 0)
(1.49526e-08 -2.81021e-06 0)
(1.48252e-08 -2.81623e-06 0)
(1.46969e-08 -2.82226e-06 0)
(1.45675e-08 -2.8283e-06 0)
(1.44371e-08 -2.83436e-06 0)
(1.43057e-08 -2.84042e-06 0)
(1.41732e-08 -2.8465e-06 0)
(1.40397e-08 -2.85258e-06 0)
(1.39053e-08 -2.85867e-06 0)
(1.37698e-08 -2.86477e-06 0)
(1.36334e-08 -2.87087e-06 0)
(1.34959e-08 -2.87698e-06 0)
(1.33575e-08 -2.88309e-06 0)
(1.32181e-08 -2.8892e-06 0)
(1.30778e-08 -2.89532e-06 0)
(1.29365e-08 -2.90143e-06 0)
(1.27943e-08 -2.90755e-06 0)
(1.26511e-08 -2.91366e-06 0)
(1.2507e-08 -2.91977e-06 0)
(1.23621e-08 -2.92587e-06 0)
(1.22162e-08 -2.93197e-06 0)
(1.20695e-08 -2.93806e-06 0)
(1.19219e-08 -2.94414e-06 0)
(1.17735e-08 -2.95021e-06 0)
(1.16242e-08 -2.95627e-06 0)
(1.14742e-08 -2.96232e-06 0)
(1.13233e-08 -2.96836e-06 0)
(1.11717e-08 -2.97437e-06 0)
(1.10193e-08 -2.98038e-06 0)
(1.08662e-08 -2.98636e-06 0)
(1.07124e-08 -2.99232e-06 0)
(1.05579e-08 -2.99826e-06 0)
(1.04027e-08 -3.00418e-06 0)
(1.02469e-08 -3.01008e-06 0)
(1.00905e-08 -3.01595e-06 0)
(9.93342e-09 -3.02179e-06 0)
(9.77582e-09 -3.0276e-06 0)
(9.61768e-09 -3.03338e-06 0)
(9.45903e-09 -3.03912e-06 0)
(9.29989e-09 -3.04484e-06 0)
(9.1403e-09 -3.05051e-06 0)
(8.98029e-09 -3.05615e-06 0)
(8.81988e-09 -3.06175e-06 0)
(8.65912e-09 -3.06731e-06 0)
(8.49802e-09 -3.07282e-06 0)
(8.33664e-09 -3.07829e-06 0)
(8.17499e-09 -3.08371e-06 0)
(8.01312e-09 -3.08908e-06 0)
(7.85107e-09 -3.09441e-06 0)
(7.68887e-09 -3.09968e-06 0)
(7.52655e-09 -3.10489e-06 0)
(7.36416e-09 -3.11005e-06 0)
(7.20175e-09 -3.11515e-06 0)
(7.03933e-09 -3.1202e-06 0)
(6.87697e-09 -3.12518e-06 0)
(6.7147e-09 -3.13009e-06 0)
(6.55256e-09 -3.13494e-06 0)
(6.3906e-09 -3.13973e-06 0)
(6.22885e-09 -3.14444e-06 0)
(6.06738e-09 -3.14909e-06 0)
(5.90621e-09 -3.15366e-06 0)
(5.7454e-09 -3.15815e-06 0)
(5.58499e-09 -3.16257e-06 0)
(5.42504e-09 -3.16691e-06 0)
(5.26558e-09 -3.17117e-06 0)
(5.10666e-09 -3.17535e-06 0)
(4.94834e-09 -3.17944e-06 0)
(4.79066e-09 -3.18345e-06 0)
(4.63367e-09 -3.18737e-06 0)
(4.47742e-09 -3.1912e-06 0)
(4.32196e-09 -3.19494e-06 0)
(4.16735e-09 -3.19858e-06 0)
(4.01362e-09 -3.20213e-06 0)
(3.86084e-09 -3.20559e-06 0)
(3.70904e-09 -3.20895e-06 0)
(3.55829e-09 -3.2122e-06 0)
(3.40863e-09 -3.21536e-06 0)
(3.26012e-09 -3.21841e-06 0)
(3.1128e-09 -3.22136e-06 0)
(2.96672e-09 -3.2242e-06 0)
(2.82194e-09 -3.22694e-06 0)
(2.6785e-09 -3.22956e-06 0)
(2.53646e-09 -3.23208e-06 0)
(2.39585e-09 -3.23448e-06 0)
(2.25675e-09 -3.23678e-06 0)
(2.11918e-09 -3.23896e-06 0)
(1.98319e-09 -3.24102e-06 0)
(1.84885e-09 -3.24297e-06 0)
(1.71618e-09 -3.2448e-06 0)
(1.58524e-09 -3.24651e-06 0)
(1.45608e-09 -3.2481e-06 0)
(1.32873e-09 -3.24958e-06 0)
(1.20324e-09 -3.25093e-06 0)
(1.07965e-09 -3.25216e-06 0)
(9.58006e-10 -3.25327e-06 0)
(8.38345e-10 -3.25426e-06 0)
(7.20707e-10 -3.25512e-06 0)
(6.05131e-10 -3.25586e-06 0)
(4.91654e-10 -3.25648e-06 0)
(3.80312e-10 -3.25697e-06 0)
(2.7114e-10 -3.25734e-06 0)
(1.64172e-10 -3.25758e-06 0)
(5.94414e-11 -3.2577e-06 0)
(-4.30216e-11 -3.25769e-06 0)
(-1.43182e-10 -3.25756e-06 0)
(-2.41028e-10 -3.2573e-06 0)
(-3.36462e-10 -3.25692e-06 0)
(-4.29762e-10 -3.25641e-06 0)
(-5.19693e-10 -3.25578e-06 0)
(-6.11697e-10 -3.25502e-06 0)
(-7.08017e-10 -3.25405e-06 0)
(-8.0457e-10 -3.25281e-06 0)
(-8.99516e-10 -3.25141e-06 0)
(-9.90159e-10 -3.24986e-06 0)
(-1.07636e-09 -3.24816e-06 0)
(-1.15814e-09 -3.24634e-06 0)
(-1.2356e-09 -3.24438e-06 0)
(-1.30884e-09 -3.2423e-06 0)
(-1.37798e-09 -3.24011e-06 0)
(-1.44315e-09 -3.2378e-06 0)
(-1.50448e-09 -3.2354e-06 0)
(-1.56208e-09 -3.2329e-06 0)
(-1.61607e-09 -3.23031e-06 0)
(-1.66656e-09 -3.22764e-06 0)
(-1.71365e-09 -3.22489e-06 0)
(-1.75746e-09 -3.22206e-06 0)
(-1.79809e-09 -3.21917e-06 0)
(-1.83564e-09 -3.21621e-06 0)
(-1.8702e-09 -3.21319e-06 0)
(-1.90187e-09 -3.21013e-06 0)
(-1.93073e-09 -3.20701e-06 0)
(-1.95689e-09 -3.20385e-06 0)
(-1.98042e-09 -3.20065e-06 0)
(-2.0014e-09 -3.19741e-06 0)
(-2.01992e-09 -3.19414e-06 0)
(-2.03604e-09 -3.19084e-06 0)
(-2.04985e-09 -3.18752e-06 0)
(-2.06141e-09 -3.18418e-06 0)
(-2.0708e-09 -3.18082e-06 0)
(-2.07808e-09 -3.17745e-06 0)
(-2.08331e-09 -3.17407e-06 0)
(-2.08656e-09 -3.17068e-06 0)
(-2.08789e-09 -3.16729e-06 0)
(-2.08734e-09 -3.1639e-06 0)
(-2.08499e-09 -3.16051e-06 0)
(-2.08087e-09 -3.15713e-06 0)
(-2.07505e-09 -3.15375e-06 0)
(-2.06757e-09 -3.15039e-06 0)
(-2.05848e-09 -3.14704e-06 0)
(-2.04782e-09 -3.1437e-06 0)
(-2.03565e-09 -3.14039e-06 0)
(-2.02199e-09 -3.13709e-06 0)
(-2.0069e-09 -3.13382e-06 0)
(-1.99042e-09 -3.13057e-06 0)
(-1.97258e-09 -3.12736e-06 0)
(-1.95341e-09 -3.12417e-06 0)
(-1.93297e-09 -3.12101e-06 0)
(-1.91127e-09 -3.11789e-06 0)
(-1.88836e-09 -3.1148e-06 0)
(-1.86427e-09 -3.11176e-06 0)
(-1.83903e-09 -3.10875e-06 0)
(-1.81267e-09 -3.10578e-06 0)
(-1.78522e-09 -3.10286e-06 0)
(-1.75671e-09 -3.09999e-06 0)
(-1.72717e-09 -3.09716e-06 0)
(-1.69663e-09 -3.09438e-06 0)
(-1.66512e-09 -3.09164e-06 0)
(-1.63266e-09 -3.08897e-06 0)
(-1.59928e-09 -3.08634e-06 0)
(-1.56501e-09 -3.08377e-06 0)
(-1.52987e-09 -3.08126e-06 0)
(-1.49388e-09 -3.0788e-06 0)
(-1.45708e-09 -3.0764e-06 0)
(-1.41948e-09 -3.07407e-06 0)
(-1.38112e-09 -3.07179e-06 0)
(-1.34201e-09 -3.06958e-06 0)
(-1.30218e-09 -3.06743e-06 0)
(-1.26166e-09 -3.06534e-06 0)
(-1.22046e-09 -3.06332e-06 0)
(-1.17862e-09 -3.06138e-06 0)
(-1.13616e-09 -3.05949e-06 0)
(-1.09309e-09 -3.05768e-06 0)
(-1.04945e-09 -3.05594e-06 0)
(-1.00525e-09 -3.05427e-06 0)
(-9.60531e-10 -3.05266e-06 0)
(-9.15303e-10 -3.05114e-06 0)
(-8.69594e-10 -3.04968e-06 0)
(-8.23427e-10 -3.04831e-06 0)
(-7.76827e-10 -3.047e-06 0)
(-7.29817e-10 -3.04577e-06 0)
(-6.82421e-10 -3.04462e-06 0)
(-6.34663e-10 -3.04355e-06 0)
(-5.86567e-10 -3.04255e-06 0)
(-5.38158e-10 -3.04163e-06 0)
(-4.89459e-10 -3.04079e-06 0)
(-4.40497e-10 -3.04005e-06 0)
(-3.91291e-10 -3.0393e-06 0)
(-3.41878e-10 -3.03891e-06 0)
(-2.92254e-10 -3.03768e-06 0)
(-2.42526e-10 -3.03955e-06 0)
(-1.9249e-10 -3.03128e-06 0)
(-1.42858e-10 -3.05568e-06 0)
(-9.2042e-11 -2.96401e-06 0)
(-4.38433e-11 -3.20735e-06 0)
(-1.10023e-11 -2.80129e-06 0)
)
;
    }
    bottomWall
    {
        type            calculated;
        value           nonuniform List<vector> 
449
(
(-48.4921 -0.963533 0)
(-19.7393 -0.00514985 0)
(-14.3397 -0.00113246 0)
(-12.038 -0.000542691 0)
(-10.643 -0.000347019 0)
(-9.6686 -0.000247656 0)
(-8.94801 -0.000181335 0)
(-8.42457 -0.000121812 0)
(-8.11069 -4.71547e-05 0)
(-8.10124 8.71326e-05 0)
(-8.71734 0.000268155 0)
(-9.96167 0.000331013 0)
(-11.0125 0.000245142 0)
(-11.6637 0.000145229 0)
(-12.0239 7.95844e-05 0)
(-12.2195 4.15499e-05 0)
(-12.3148 1.78771e-05 0)
(-12.3449 1.71116e-06 0)
(-12.3267 -8.83165e-06 0)
(-12.2826 -1.50857e-05 0)
(-12.22 -1.9231e-05 0)
(-12.1462 -2.15567e-05 0)
(-12.0668 -2.26139e-05 0)
(-11.9851 -2.29206e-05 0)
(-11.9031 -2.27856e-05 0)
(-11.822 -2.24081e-05 0)
(-11.7424 -2.18764e-05 0)
(-11.6647 -2.12309e-05 0)
(-11.5893 -2.05367e-05 0)
(-11.5163 -1.98268e-05 0)
(-11.4458 -1.91207e-05 0)
(-11.3775 -1.843e-05 0)
(-11.3116 -1.7762e-05 0)
(-11.248 -1.71189e-05 0)
(-11.1865 -1.65126e-05 0)
(-11.127 -1.5944e-05 0)
(-11.0694 -1.53962e-05 0)
(-11.0136 -1.48665e-05 0)
(-10.9597 -1.43625e-05 0)
(-10.9074 -1.38841e-05 0)
(-10.8567 -1.34298e-05 0)
(-10.8076 -1.29991e-05 0)
(-10.7599 -1.25922e-05 0)
(-10.7135 -1.22054e-05 0)
(-10.6685 -1.18371e-05 0)
(-10.6247 -1.14866e-05 0)
(-10.5821 -1.11553e-05 0)
(-10.5406 -1.08378e-05 0)
(-10.5002 -1.0544e-05 0)
(-10.4608 -1.02857e-05 0)
(-10.4221 -1.00529e-05 0)
(-10.3842 -9.83398e-06 0)
(-10.3471 -9.62171e-06 0)
(-10.3107 -9.41283e-06 0)
(-10.275 -9.20781e-06 0)
(-10.2399 -9.00493e-06 0)
(-10.2056 -8.80667e-06 0)
(-10.172 -8.61473e-06 0)
(-10.139 -8.42728e-06 0)
(-10.1066 -8.24533e-06 0)
(-10.0749 -8.06986e-06 0)
(-10.0437 -7.90126e-06 0)
(-10.0132 -7.73723e-06 0)
(-9.98317 -7.5773e-06 0)
(-9.95372 -7.42214e-06 0)
(-9.92479 -7.27354e-06 0)
(-9.89637 -7.12992e-06 0)
(-9.86844 -6.99081e-06 0)
(-9.84099 -6.85482e-06 0)
(-9.81401 -6.72705e-06 0)
(-9.78745 -6.6051e-06 0)
(-9.76132 -6.48288e-06 0)
(-9.73561 -6.36307e-06 0)
(-9.71032 -6.24759e-06 0)
(-9.68542 -6.13606e-06 0)
(-9.66091 -6.02613e-06 0)
(-9.63678 -5.91942e-06 0)
(-9.61301 -5.81518e-06 0)
(-9.58961 -5.71388e-06 0)
(-9.56656 -5.61565e-06 0)
(-9.54385 -5.51999e-06 0)
(-9.52147 -5.42703e-06 0)
(-9.49942 -5.33676e-06 0)
(-9.47768 -5.2485e-06 0)
(-9.45625 -5.16258e-06 0)
(-9.43511 -5.07943e-06 0)
(-9.41427 -4.99819e-06 0)
(-9.3937 -4.92035e-06 0)
(-9.37341 -4.84397e-06 0)
(-9.35338 -4.76899e-06 0)
(-9.33362 -4.69628e-06 0)
(-9.31411 -4.62456e-06 0)
(-9.29486 -4.5551e-06 0)
(-9.27584 -4.48713e-06 0)
(-9.25706 -4.41997e-06 0)
(-9.23852 -4.35573e-06 0)
(-9.22021 -4.29231e-06 0)
(-9.20212 -4.23019e-06 0)
(-9.18424 -4.17038e-06 0)
(-9.16658 -4.11089e-06 0)
(-9.14913 -4.05583e-06 0)
(-9.13185 -4.00321e-06 0)
(-9.11477 -3.94888e-06 0)
(-9.09788 -3.89572e-06 0)
(-9.08118 -3.84294e-06 0)
(-9.06466 -3.79084e-06 0)
(-9.04833 -3.74105e-06 0)
(-9.03218 -3.69169e-06 0)
(-9.0162 -3.64274e-06 0)
(-9.00039 -3.59607e-06 0)
(-8.98475 -3.5497e-06 0)
(-8.96927 -3.5036e-06 0)
(-8.95396 -3.45981e-06 0)
(-8.9388 -3.41637e-06 0)
(-8.9238 -3.37299e-06 0)
(-8.90895 -3.33166e-06 0)
(-8.89425 -3.29096e-06 0)
(-8.87969 -3.25011e-06 0)
(-8.86528 -3.21086e-06 0)
(-8.85101 -3.17271e-06 0)
(-8.83687 -3.13437e-06 0)
(-8.82287 -3.09702e-06 0)
(-8.80901 -3.06129e-06 0)
(-8.79527 -3.02534e-06 0)
(-8.78166 -2.98965e-06 0)
(-8.76818 -2.95567e-06 0)
(-8.75482 -2.92208e-06 0)
(-8.74158 -2.88843e-06 0)
(-8.72846 -2.85583e-06 0)
(-8.71546 -2.82437e-06 0)
(-8.70257 -2.79277e-06 0)
(-8.68979 -2.76139e-06 0)
(-8.67713 -2.73144e-06 0)
(-8.66457 -2.70195e-06 0)
(-8.65212 -2.67223e-06 0)
(-8.63978 -2.64332e-06 0)
(-8.62754 -2.61566e-06 0)
(-8.6154 -2.5878e-06 0)
(-8.60337 -2.55985e-06 0)
(-8.59143 -2.5332e-06 0)
(-8.57959 -2.50732e-06 0)
(-8.56784 -2.48105e-06 0)
(-8.55619 -2.45507e-06 0)
(-8.54463 -2.4303e-06 0)
(-8.53316 -2.40595e-06 0)
(-8.52178 -2.38122e-06 0)
(-8.51049 -2.35769e-06 0)
(-8.49928 -2.33626e-06 0)
(-8.48814 -2.31455e-06 0)
(-8.47709 -2.29163e-06 0)
(-8.46612 -2.26897e-06 0)
(-8.45523 -2.24716e-06 0)
(-8.44442 -2.22557e-06 0)
(-8.43369 -2.20383e-06 0)
(-8.42304 -2.18246e-06 0)
(-8.41246 -2.16188e-06 0)
(-8.40196 -2.14164e-06 0)
(-8.39154 -2.12122e-06 0)
(-8.38119 -2.101e-06 0)
(-8.37091 -2.08155e-06 0)
(-8.36071 -2.06261e-06 0)
(-8.35057 -2.04343e-06 0)
(-8.3405 -2.02423e-06 0)
(-8.33051 -2.00581e-06 0)
(-8.32058 -1.98802e-06 0)
(-8.31072 -1.97002e-06 0)
(-8.30092 -1.95189e-06 0)
(-8.29119 -1.93434e-06 0)
(-8.28152 -1.91758e-06 0)
(-8.27191 -1.90066e-06 0)
(-8.26237 -1.8839e-06 0)
(-8.25289 -1.86699e-06 0)
(-8.24348 -1.84864e-06 0)
(-8.23465 -1.83533e-06 0)
(-8.22634 -1.82379e-06 0)
(-8.218 -1.80774e-06 0)
(-8.20964 -1.79286e-06 0)
(-8.20126 -1.7792e-06 0)
(-8.19286 -1.76543e-06 0)
(-8.18442 -1.75146e-06 0)
(-8.17597 -1.73717e-06 0)
(-8.16749 -1.72338e-06 0)
(-8.15899 -1.70988e-06 0)
(-8.15046 -1.69648e-06 0)
(-8.14191 -1.68265e-06 0)
(-8.13334 -1.66869e-06 0)
(-8.12475 -1.65523e-06 0)
(-8.11613 -1.64201e-06 0)
(-8.10748 -1.62875e-06 0)
(-8.09882 -1.61518e-06 0)
(-8.09013 -1.60164e-06 0)
(-8.08143 -1.58853e-06 0)
(-8.0727 -1.57559e-06 0)
(-8.06394 -1.56246e-06 0)
(-8.05517 -1.54918e-06 0)
(-8.04638 -1.53609e-06 0)
(-8.03756 -1.52329e-06 0)
(-8.02873 -1.51066e-06 0)
(-8.01987 -1.49774e-06 0)
(-8.011 -1.4847e-06 0)
(-8.0021 -1.47206e-06 0)
(-7.99319 -1.45964e-06 0)
(-7.98425 -1.44715e-06 0)
(-7.97529 -1.43449e-06 0)
(-7.96632 -1.42194e-06 0)
(-7.95733 -1.40968e-06 0)
(-7.94832 -1.3976e-06 0)
(-7.93929 -1.38529e-06 0)
(-7.93024 -1.37287e-06 0)
(-7.92118 -1.36082e-06 0)
(-7.9121 -1.34899e-06 0)
(-7.90299 -1.33722e-06 0)
(-7.89387 -1.32612e-06 0)
(-7.88473 -1.31513e-06 0)
(-7.87556 -1.30362e-06 0)
(-7.86638 -1.29201e-06 0)
(-7.85718 -1.28023e-06 0)
(-7.84796 -1.2685e-06 0)
(-7.83873 -1.25709e-06 0)
(-7.82949 -1.24584e-06 0)
(-7.82022 -1.23437e-06 0)
(-7.81095 -1.22285e-06 0)
(-7.80166 -1.21169e-06 0)
(-7.79235 -1.20076e-06 0)
(-7.78303 -1.1896e-06 0)
(-7.7737 -1.17833e-06 0)
(-7.76435 -1.16742e-06 0)
(-7.75499 -1.15676e-06 0)
(-7.74561 -1.14591e-06 0)
(-7.73622 -1.13495e-06 0)
(-7.72682 -1.12429e-06 0)
(-7.71741 -1.11389e-06 0)
(-7.70798 -1.10334e-06 0)
(-7.69854 -1.09267e-06 0)
(-7.68909 -1.08228e-06 0)
(-7.67963 -1.07216e-06 0)
(-7.67015 -1.06189e-06 0)
(-7.66067 -1.05151e-06 0)
(-7.65118 -1.0414e-06 0)
(-7.64167 -1.03154e-06 0)
(-7.63215 -1.02155e-06 0)
(-7.62262 -1.01146e-06 0)
(-7.61309 -1.00164e-06 0)
(-7.60354 -9.92056e-07 0)
(-7.59398 -9.82321e-07 0)
(-7.58442 -9.72512e-07 0)
(-7.57484 -9.62997e-07 0)
(-7.56526 -9.53673e-07 0)
(-7.55566 -9.44184e-07 0)
(-7.54606 -9.34667e-07 0)
(-7.53646 -9.25447e-07 0)
(-7.52684 -9.16354e-07 0)
(-7.51721 -9.07121e-07 0)
(-7.50758 -8.97929e-07 0)
(-7.49795 -8.88995e-07 0)
(-7.4883 -8.80125e-07 0)
(-7.47865 -8.71152e-07 0)
(-7.46899 -8.62279e-07 0)
(-7.45933 -8.53625e-07 0)
(-7.44966 -8.44967e-07 0)
(-7.43998 -8.36243e-07 0)
(-7.4303 -8.27679e-07 0)
(-7.42062 -8.19305e-07 0)
(-7.41093 -8.10865e-07 0)
(-7.40123 -8.02398e-07 0)
(-7.39153 -7.94146e-07 0)
(-7.38183 -7.8601e-07 0)
(-7.37212 -7.77792e-07 0)
(-7.36241 -7.69615e-07 0)
(-7.3527 -7.61643e-07 0)
(-7.34299 -7.53713e-07 0)
(-7.33327 -7.45738e-07 0)
(-7.32355 -7.38224e-07 0)
(-7.31381 -7.31088e-07 0)
(-7.30407 -7.23563e-07 0)
(-7.29433 -7.1579e-07 0)
(-7.28459 -7.082e-07 0)
(-7.27485 -7.00755e-07 0)
(-7.2651 -6.93317e-07 0)
(-7.25535 -6.85908e-07 0)
(-7.2456 -6.78617e-07 0)
(-7.23586 -6.71317e-07 0)
(-7.22611 -6.63983e-07 0)
(-7.21636 -6.56792e-07 0)
(-7.20662 -6.49734e-07 0)
(-7.19687 -6.42626e-07 0)
(-7.18713 -6.35545e-07 0)
(-7.17739 -6.28641e-07 0)
(-7.16765 -6.21775e-07 0)
(-7.15791 -6.1487e-07 0)
(-7.14818 -6.08087e-07 0)
(-7.13844 -6.01436e-07 0)
(-7.12872 -5.94745e-07 0)
(-7.11899 -5.88071e-07 0)
(-7.10927 -5.81573e-07 0)
(-7.09955 -5.75107e-07 0)
(-7.08984 -5.68613e-07 0)
(-7.08013 -5.62228e-07 0)
(-7.07043 -5.55968e-07 0)
(-7.06073 -5.4967e-07 0)
(-7.05104 -5.43407e-07 0)
(-7.04135 -5.373e-07 0)
(-7.03167 -5.31214e-07 0)
(-7.02199 -5.25107e-07 0)
(-7.01232 -5.19125e-07 0)
(-7.00266 -5.13235e-07 0)
(-6.993 -5.07318e-07 0)
(-6.98335 -5.01448e-07 0)
(-6.97371 -4.95732e-07 0)
(-6.96408 -4.90005e-07 0)
(-6.95445 -4.84274e-07 0)
(-6.94483 -4.7868e-07 0)
(-6.93522 -4.73145e-07 0)
(-6.92562 -4.67585e-07 0)
(-6.91603 -4.62112e-07 0)
(-6.90645 -4.56752e-07 0)
(-6.89688 -4.51371e-07 0)
(-6.88731 -4.46016e-07 0)
(-6.87776 -4.4081e-07 0)
(-6.86822 -4.35607e-07 0)
(-6.85868 -4.304e-07 0)
(-6.84916 -4.25315e-07 0)
(-6.83965 -4.20289e-07 0)
(-6.83015 -4.15243e-07 0)
(-6.82066 -4.10278e-07 0)
(-6.81119 -4.05412e-07 0)
(-6.80172 -4.00534e-07 0)
(-6.79227 -3.9569e-07 0)
(-6.78283 -3.90974e-07 0)
(-6.77339 -3.86505e-07 0)
(-6.76397 -3.82065e-07 0)
(-6.75455 -3.7749e-07 0)
(-6.74515 -3.72934e-07 0)
(-6.73575 -3.68373e-07 0)
(-6.72638 -3.63914e-07 0)
(-6.71701 -3.59537e-07 0)
(-6.70766 -3.55138e-07 0)
(-6.69832 -3.50769e-07 0)
(-6.689 -3.46499e-07 0)
(-6.67969 -3.42221e-07 0)
(-6.6704 -3.37972e-07 0)
(-6.66112 -3.33828e-07 0)
(-6.65186 -3.29702e-07 0)
(-6.6426 -3.25582e-07 0)
(-6.63337 -3.21559e-07 0)
(-6.62415 -3.17567e-07 0)
(-6.61496 -3.13587e-07 0)
(-6.60577 -3.09672e-07 0)
(-6.5966 -3.05822e-07 0)
(-6.58744 -3.01952e-07 0)
(-6.57831 -2.98175e-07 0)
(-6.56919 -2.94361e-07 0)
(-6.5601 -2.90706e-07 0)
(-6.551 -2.8718e-07 0)
(-6.54092 -2.82938e-07 0)
(-6.52994 -2.78407e-07 0)
(-6.51914 -2.74305e-07 0)
(-6.50848 -2.70288e-07 0)
(-6.498 -2.66277e-07 0)
(-6.48765 -2.62404e-07 0)
(-6.47747 -2.58603e-07 0)
(-6.46743 -2.54883e-07 0)
(-6.45753 -2.51277e-07 0)
(-6.44777 -2.47737e-07 0)
(-6.43816 -2.44272e-07 0)
(-6.42866 -2.40917e-07 0)
(-6.41931 -2.37621e-07 0)
(-6.41008 -2.34387e-07 0)
(-6.40098 -2.31263e-07 0)
(-6.39199 -2.2819e-07 0)
(-6.38313 -2.25176e-07 0)
(-6.37438 -2.22258e-07 0)
(-6.36574 -2.19393e-07 0)
(-6.35721 -2.16573e-07 0)
(-6.3488 -2.13839e-07 0)
(-6.34049 -2.11162e-07 0)
(-6.33229 -2.08526e-07 0)
(-6.32418 -2.05959e-07 0)
(-6.31618 -2.03463e-07 0)
(-6.30826 -2.00999e-07 0)
(-6.30046 -1.98592e-07 0)
(-6.29273 -1.96261e-07 0)
(-6.28511 -1.9396e-07 0)
(-6.27756 -1.91677e-07 0)
(-6.27011 -1.89461e-07 0)
(-6.26274 -1.87359e-07 0)
(-6.25546 -1.85316e-07 0)
(-6.24825 -1.83253e-07 0)
(-6.24113 -1.8123e-07 0)
(-6.23407 -1.79231e-07 0)
(-6.22711 -1.77256e-07 0)
(-6.22021 -1.75317e-07 0)
(-6.2134 -1.73437e-07 0)
(-6.20664 -1.71573e-07 0)
(-6.19998 -1.69738e-07 0)
(-6.19337 -1.67942e-07 0)
(-6.18684 -1.66202e-07 0)
(-6.18037 -1.64468e-07 0)
(-6.17398 -1.62767e-07 0)
(-6.16764 -1.61098e-07 0)
(-6.16138 -1.59485e-07 0)
(-6.15516 -1.57873e-07 0)
(-6.14903 -1.56295e-07 0)
(-6.14294 -1.54739e-07 0)
(-6.13693 -1.53241e-07 0)
(-6.13096 -1.51737e-07 0)
(-6.12506 -1.50273e-07 0)
(-6.1192 -1.48811e-07 0)
(-6.11342 -1.47418e-07 0)
(-6.10767 -1.46013e-07 0)
(-6.102 -1.44658e-07 0)
(-6.09636 -1.43279e-07 0)
(-6.0908 -1.41984e-07 0)
(-6.08525 -1.40671e-07 0)
(-6.07979 -1.39421e-07 0)
(-6.07435 -1.38116e-07 0)
(-6.06899 -1.36919e-07 0)
(-6.06364 -1.35676e-07 0)
(-6.05838 -1.34535e-07 0)
(-6.05312 -1.3331e-07 0)
(-6.04795 -1.32201e-07 0)
(-6.04278 -1.31015e-07 0)
(-6.03771 -1.29973e-07 0)
(-6.03261 -1.28815e-07 0)
(-6.02763 -1.27804e-07 0)
(-6.02262 -1.26666e-07 0)
(-6.01773 -1.25716e-07 0)
(-6.01279 -1.24621e-07 0)
(-6.00798 -1.23719e-07 0)
(-6.00311 -1.22628e-07 0)
(-5.99839 -1.21772e-07 0)
(-5.99359 -1.2072e-07 0)
(-5.98895 -1.19934e-07 0)
(-5.98421 -1.18906e-07 0)
(-5.97965 -1.18163e-07 0)
(-5.97497 -1.17174e-07 0)
(-5.97048 -1.1649e-07 0)
(-5.96585 -1.15623e-07 0)
(-5.96144 -1.14887e-07 0)
(-5.95687 -1.14412e-07 0)
(-5.95249 -1.13055e-07 0)
(-5.94803 -1.14277e-07 0)
(-5.94355 -1.0989e-07 0)
(-5.93945 -1.17782e-07 0)
(-5.93432 -1.00857e-07 0)
(-5.9316 -1.30871e-07 0)
(-5.924 -7.93964e-08 0)
(-5.92555 -1.09407e-07 0)
(-5.91517 -1.37683e-07 0)
)
;
    }
    symmetry
    {
        type            symmetryPlane;
    }
    frontAndBack
    {
        type            empty;
    }
}


// ************************************************************************* //
