/*--------------------------------*- C++ -*----------------------------------*\
| =========                 |                                                 |
| \\      /  F ield         | OpenFOAM: The Open Source CFD Toolbox           |
|  \\    /   O peration     | Version:  v2012                                 |
|   \\  /    A nd           | Website:  www.openfoam.com                      |
|    \\/     M anipulation  |                                                 |
\*---------------------------------------------------------------------------*/
FoamFile
{
    version     2.0;
    format      ascii;
    class       volVectorField;
    location    "20";
    object      wallShearStress;
}
// * * * * * * * * * * * * * * * * * * * * * * * * * * * * * * * * * * * * * //

dimensions      [0 2 -2 0 0 0 0];


internalField   uniform (0 0 0);

boundaryField
{
    inlet
    {
        type            calculated;
        value           uniform (0 0 0);
    }
    outlet
    {
        type            calculated;
        value           uniform (0 0 0);
    }
    topWall
    {
        type            calculated;
        value           nonuniform List<vector> 
545
(
(1.46048e-08 -1.02792e-08 0)
(1.45989e-08 -2.87627e-08 0)
(1.45828e-08 -4.79767e-08 0)
(1.45617e-08 -6.6626e-08 0)
(1.45353e-08 -8.44681e-08 0)
(1.45038e-08 -1.0173e-07 0)
(1.44677e-08 -1.18557e-07 0)
(1.44272e-08 -1.34941e-07 0)
(1.43828e-08 -1.50843e-07 0)
(1.43349e-08 -1.66263e-07 0)
(1.42838e-08 -1.81221e-07 0)
(1.42298e-08 -1.95733e-07 0)
(1.41733e-08 -2.09809e-07 0)
(1.41146e-08 -2.23459e-07 0)
(1.40539e-08 -2.36692e-07 0)
(1.39915e-08 -2.4952e-07 0)
(1.39276e-08 -2.61953e-07 0)
(1.38625e-08 -2.74003e-07 0)
(1.37963e-08 -2.85679e-07 0)
(1.37293e-08 -2.96993e-07 0)
(1.36616e-08 -3.07954e-07 0)
(1.35933e-08 -3.18574e-07 0)
(1.35247e-08 -3.28861e-07 0)
(1.34559e-08 -3.38827e-07 0)
(1.33869e-08 -3.4848e-07 0)
(1.3318e-08 -3.5783e-07 0)
(1.32492e-08 -3.66887e-07 0)
(1.31806e-08 -3.75659e-07 0)
(1.31123e-08 -3.84156e-07 0)
(1.30444e-08 -3.92386e-07 0)
(1.2977e-08 -4.00357e-07 0)
(1.29101e-08 -4.08078e-07 0)
(1.28439e-08 -4.15557e-07 0)
(1.27782e-08 -4.22801e-07 0)
(1.27133e-08 -4.29819e-07 0)
(1.26491e-08 -4.36617e-07 0)
(1.25857e-08 -4.43202e-07 0)
(1.25231e-08 -4.49581e-07 0)
(1.24614e-08 -4.55762e-07 0)
(1.24005e-08 -4.6175e-07 0)
(1.23405e-08 -4.67552e-07 0)
(1.22815e-08 -4.73174e-07 0)
(1.22234e-08 -4.78621e-07 0)
(1.21662e-08 -4.839e-07 0)
(1.21099e-08 -4.89015e-07 0)
(1.20547e-08 -4.93973e-07 0)
(1.20004e-08 -4.98779e-07 0)
(1.19471e-08 -5.03436e-07 0)
(1.18947e-08 -5.07951e-07 0)
(1.18433e-08 -5.12328e-07 0)
(1.17929e-08 -5.16571e-07 0)
(1.17434e-08 -5.20685e-07 0)
(1.1695e-08 -5.24673e-07 0)
(1.16474e-08 -5.28541e-07 0)
(1.16009e-08 -5.32291e-07 0)
(1.15552e-08 -5.35928e-07 0)
(1.15105e-08 -5.39455e-07 0)
(1.14667e-08 -5.42876e-07 0)
(1.14239e-08 -5.46194e-07 0)
(1.13819e-08 -5.49413e-07 0)
(1.13408e-08 -5.52536e-07 0)
(1.13006e-08 -5.55565e-07 0)
(1.12613e-08 -5.58504e-07 0)
(1.12228e-08 -5.61356e-07 0)
(1.11852e-08 -5.64123e-07 0)
(1.11483e-08 -5.66808e-07 0)
(1.11123e-08 -5.69414e-07 0)
(1.10771e-08 -5.71943e-07 0)
(1.10427e-08 -5.74398e-07 0)
(1.10091e-08 -5.7678e-07 0)
(1.09762e-08 -5.79094e-07 0)
(1.0944e-08 -5.81335e-07 0)
(1.09128e-08 -5.83489e-07 0)
(1.08826e-08 -5.85579e-07 0)
(1.08527e-08 -5.87641e-07 0)
(1.08229e-08 -5.8969e-07 0)
(1.07932e-08 -5.91729e-07 0)
(1.07636e-08 -5.93753e-07 0)
(1.0734e-08 -5.95761e-07 0)
(1.07044e-08 -5.97754e-07 0)
(1.06749e-08 -5.99732e-07 0)
(1.06455e-08 -6.01696e-07 0)
(1.06161e-08 -6.03646e-07 0)
(1.05868e-08 -6.05582e-07 0)
(1.05576e-08 -6.07503e-07 0)
(1.05284e-08 -6.09411e-07 0)
(1.04993e-08 -6.11304e-07 0)
(1.04702e-08 -6.13183e-07 0)
(1.04413e-08 -6.15049e-07 0)
(1.04123e-08 -6.16901e-07 0)
(1.03835e-08 -6.1874e-07 0)
(1.03547e-08 -6.20564e-07 0)
(1.0326e-08 -6.22377e-07 0)
(1.02973e-08 -6.24173e-07 0)
(1.02689e-08 -6.25967e-07 0)
(1.02396e-08 -6.27715e-07 0)
(1.02117e-08 -6.29316e-07 0)
(1.01872e-08 -6.30782e-07 0)
(1.01637e-08 -6.32194e-07 0)
(1.01404e-08 -6.33609e-07 0)
(1.0117e-08 -6.35038e-07 0)
(1.00936e-08 -6.36471e-07 0)
(1.00701e-08 -6.37901e-07 0)
(1.00464e-08 -6.39329e-07 0)
(1.00227e-08 -6.40757e-07 0)
(9.9989e-09 -6.42186e-07 0)
(9.97499e-09 -6.43615e-07 0)
(9.951e-09 -6.45043e-07 0)
(9.92691e-09 -6.46472e-07 0)
(9.90272e-09 -6.479e-07 0)
(9.87845e-09 -6.49329e-07 0)
(9.85408e-09 -6.50757e-07 0)
(9.82962e-09 -6.52185e-07 0)
(9.80506e-09 -6.53613e-07 0)
(9.78041e-09 -6.5504e-07 0)
(9.75567e-09 -6.56468e-07 0)
(9.73083e-09 -6.57895e-07 0)
(9.7059e-09 -6.59321e-07 0)
(9.68088e-09 -6.60748e-07 0)
(9.65576e-09 -6.62174e-07 0)
(9.63055e-09 -6.636e-07 0)
(9.60524e-09 -6.65025e-07 0)
(9.57984e-09 -6.6645e-07 0)
(9.55435e-09 -6.67875e-07 0)
(9.52876e-09 -6.69299e-07 0)
(9.50308e-09 -6.70722e-07 0)
(9.4773e-09 -6.72146e-07 0)
(9.45143e-09 -6.73568e-07 0)
(9.42547e-09 -6.7499e-07 0)
(9.39941e-09 -6.76412e-07 0)
(9.37326e-09 -6.77833e-07 0)
(9.34701e-09 -6.79253e-07 0)
(9.32067e-09 -6.80673e-07 0)
(9.29424e-09 -6.82091e-07 0)
(9.26771e-09 -6.8351e-07 0)
(9.24108e-09 -6.84927e-07 0)
(9.21436e-09 -6.86344e-07 0)
(9.18755e-09 -6.8776e-07 0)
(9.16065e-09 -6.89175e-07 0)
(9.13364e-09 -6.90589e-07 0)
(9.10655e-09 -6.92003e-07 0)
(9.07936e-09 -6.93416e-07 0)
(9.05208e-09 -6.94827e-07 0)
(9.0247e-09 -6.96238e-07 0)
(8.99723e-09 -6.97648e-07 0)
(8.96966e-09 -6.99057e-07 0)
(8.942e-09 -7.00464e-07 0)
(8.91425e-09 -7.01871e-07 0)
(8.8864e-09 -7.03277e-07 0)
(8.85846e-09 -7.04681e-07 0)
(8.83043e-09 -7.06085e-07 0)
(8.8023e-09 -7.07487e-07 0)
(8.77408e-09 -7.08888e-07 0)
(8.74576e-09 -7.10288e-07 0)
(8.71735e-09 -7.11687e-07 0)
(8.68885e-09 -7.13084e-07 0)
(8.66025e-09 -7.1448e-07 0)
(8.63157e-09 -7.15875e-07 0)
(8.60278e-09 -7.17268e-07 0)
(8.57391e-09 -7.1866e-07 0)
(8.54494e-09 -7.20051e-07 0)
(8.51588e-09 -7.2144e-07 0)
(8.48673e-09 -7.22828e-07 0)
(8.45748e-09 -7.24214e-07 0)
(8.42815e-09 -7.25598e-07 0)
(8.39872e-09 -7.26982e-07 0)
(8.3692e-09 -7.28363e-07 0)
(8.33958e-09 -7.29743e-07 0)
(8.30988e-09 -7.31121e-07 0)
(8.28008e-09 -7.32497e-07 0)
(8.2502e-09 -7.33872e-07 0)
(8.22022e-09 -7.35245e-07 0)
(8.19015e-09 -7.36617e-07 0)
(8.15999e-09 -7.37986e-07 0)
(8.12974e-09 -7.39354e-07 0)
(8.0994e-09 -7.40719e-07 0)
(8.06896e-09 -7.42083e-07 0)
(8.03844e-09 -7.43445e-07 0)
(8.00783e-09 -7.44805e-07 0)
(7.97713e-09 -7.46163e-07 0)
(7.94634e-09 -7.47519e-07 0)
(7.91546e-09 -7.48872e-07 0)
(7.8845e-09 -7.50224e-07 0)
(7.85344e-09 -7.51574e-07 0)
(7.8223e-09 -7.52921e-07 0)
(7.79107e-09 -7.54266e-07 0)
(7.75975e-09 -7.55609e-07 0)
(7.72834e-09 -7.5695e-07 0)
(7.69685e-09 -7.58288e-07 0)
(7.66526e-09 -7.59624e-07 0)
(7.6336e-09 -7.60958e-07 0)
(7.60184e-09 -7.62289e-07 0)
(7.57e-09 -7.63618e-07 0)
(7.53808e-09 -7.64945e-07 0)
(7.50607e-09 -7.66269e-07 0)
(7.47397e-09 -7.6759e-07 0)
(7.44179e-09 -7.68909e-07 0)
(7.40953e-09 -7.70225e-07 0)
(7.37718e-09 -7.71539e-07 0)
(7.34475e-09 -7.72849e-07 0)
(7.31224e-09 -7.74158e-07 0)
(7.27964e-09 -7.75463e-07 0)
(7.24696e-09 -7.76766e-07 0)
(7.2142e-09 -7.78066e-07 0)
(7.18136e-09 -7.79363e-07 0)
(7.14843e-09 -7.80657e-07 0)
(7.11543e-09 -7.81948e-07 0)
(7.08234e-09 -7.83236e-07 0)
(7.04917e-09 -7.84521e-07 0)
(7.01593e-09 -7.85804e-07 0)
(6.98261e-09 -7.87083e-07 0)
(6.9492e-09 -7.88359e-07 0)
(6.91572e-09 -7.89632e-07 0)
(6.88216e-09 -7.90902e-07 0)
(6.84853e-09 -7.92168e-07 0)
(6.81482e-09 -7.93432e-07 0)
(6.78103e-09 -7.94692e-07 0)
(6.74716e-09 -7.95948e-07 0)
(6.71323e-09 -7.97202e-07 0)
(6.67921e-09 -7.98452e-07 0)
(6.64512e-09 -7.99698e-07 0)
(6.61096e-09 -8.00941e-07 0)
(6.57673e-09 -8.02181e-07 0)
(6.54242e-09 -8.03417e-07 0)
(6.50804e-09 -8.0465e-07 0)
(6.47359e-09 -8.05878e-07 0)
(6.43907e-09 -8.07104e-07 0)
(6.40447e-09 -8.08325e-07 0)
(6.36981e-09 -8.09543e-07 0)
(6.33508e-09 -8.10757e-07 0)
(6.30028e-09 -8.11967e-07 0)
(6.26541e-09 -8.13174e-07 0)
(6.23048e-09 -8.14376e-07 0)
(6.19548e-09 -8.15575e-07 0)
(6.16041e-09 -8.1677e-07 0)
(6.12528e-09 -8.1796e-07 0)
(6.09008e-09 -8.19147e-07 0)
(6.05482e-09 -8.2033e-07 0)
(6.01949e-09 -8.21508e-07 0)
(5.9841e-09 -8.22682e-07 0)
(5.94865e-09 -8.23853e-07 0)
(5.91314e-09 -8.25018e-07 0)
(5.87757e-09 -8.2618e-07 0)
(5.84193e-09 -8.27338e-07 0)
(5.80624e-09 -8.28491e-07 0)
(5.77049e-09 -8.29639e-07 0)
(5.73468e-09 -8.30784e-07 0)
(5.69882e-09 -8.31923e-07 0)
(5.6629e-09 -8.33059e-07 0)
(5.62692e-09 -8.3419e-07 0)
(5.59089e-09 -8.35316e-07 0)
(5.5548e-09 -8.36437e-07 0)
(5.51866e-09 -8.37554e-07 0)
(5.48247e-09 -8.38667e-07 0)
(5.44623e-09 -8.39774e-07 0)
(5.40993e-09 -8.40877e-07 0)
(5.37359e-09 -8.41975e-07 0)
(5.3372e-09 -8.43068e-07 0)
(5.30076e-09 -8.44157e-07 0)
(5.26427e-09 -8.4524e-07 0)
(5.22773e-09 -8.46318e-07 0)
(5.19115e-09 -8.47392e-07 0)
(5.15452e-09 -8.4846e-07 0)
(5.11785e-09 -8.49524e-07 0)
(5.08114e-09 -8.50582e-07 0)
(5.04439e-09 -8.51635e-07 0)
(5.00756e-09 -8.52681e-07 0)
(4.97084e-09 -8.53732e-07 0)
(4.93349e-09 -8.54754e-07 0)
(4.89718e-09 -8.55727e-07 0)
(4.86327e-09 -8.56666e-07 0)
(4.82994e-09 -8.57579e-07 0)
(4.79651e-09 -8.58495e-07 0)
(4.76281e-09 -8.59422e-07 0)
(4.72878e-09 -8.60354e-07 0)
(4.69444e-09 -8.61289e-07 0)
(4.65977e-09 -8.62226e-07 0)
(4.62476e-09 -8.63165e-07 0)
(4.58942e-09 -8.64109e-07 0)
(4.55374e-09 -8.65055e-07 0)
(4.51773e-09 -8.66004e-07 0)
(4.48138e-09 -8.66955e-07 0)
(4.44469e-09 -8.67909e-07 0)
(4.40766e-09 -8.68866e-07 0)
(4.37029e-09 -8.69824e-07 0)
(4.33257e-09 -8.70785e-07 0)
(4.2945e-09 -8.71748e-07 0)
(4.25609e-09 -8.72713e-07 0)
(4.21733e-09 -8.73679e-07 0)
(4.17822e-09 -8.74647e-07 0)
(4.13875e-09 -8.75616e-07 0)
(4.09894e-09 -8.76587e-07 0)
(4.05877e-09 -8.77558e-07 0)
(4.01825e-09 -8.7853e-07 0)
(3.97737e-09 -8.79503e-07 0)
(3.93614e-09 -8.80476e-07 0)
(3.89455e-09 -8.8145e-07 0)
(3.85261e-09 -8.82424e-07 0)
(3.8103e-09 -8.83397e-07 0)
(3.76764e-09 -8.84371e-07 0)
(3.72462e-09 -8.85343e-07 0)
(3.68124e-09 -8.86315e-07 0)
(3.63751e-09 -8.87286e-07 0)
(3.59341e-09 -8.88256e-07 0)
(3.54896e-09 -8.89224e-07 0)
(3.50414e-09 -8.9019e-07 0)
(3.45897e-09 -8.91155e-07 0)
(3.41344e-09 -8.92117e-07 0)
(3.36755e-09 -8.93077e-07 0)
(3.32131e-09 -8.94034e-07 0)
(3.27471e-09 -8.94988e-07 0)
(3.22776e-09 -8.95938e-07 0)
(3.18045e-09 -8.96885e-07 0)
(3.13279e-09 -8.97828e-07 0)
(3.08478e-09 -8.98767e-07 0)
(3.03641e-09 -8.99701e-07 0)
(2.98771e-09 -9.00631e-07 0)
(2.93865e-09 -9.01555e-07 0)
(2.88925e-09 -9.02474e-07 0)
(2.83951e-09 -9.03387e-07 0)
(2.78943e-09 -9.04294e-07 0)
(2.73901e-09 -9.05194e-07 0)
(2.68826e-09 -9.06088e-07 0)
(2.63718e-09 -9.06974e-07 0)
(2.58577e-09 -9.07852e-07 0)
(2.53403e-09 -9.08723e-07 0)
(2.48198e-09 -9.09585e-07 0)
(2.42961e-09 -9.10438e-07 0)
(2.37692e-09 -9.11282e-07 0)
(2.32393e-09 -9.12117e-07 0)
(2.27063e-09 -9.12941e-07 0)
(2.21703e-09 -9.13755e-07 0)
(2.16314e-09 -9.14558e-07 0)
(2.10895e-09 -9.1535e-07 0)
(2.05449e-09 -9.1613e-07 0)
(1.99974e-09 -9.16898e-07 0)
(1.94473e-09 -9.17653e-07 0)
(1.88944e-09 -9.18394e-07 0)
(1.8339e-09 -9.19123e-07 0)
(1.7781e-09 -9.19837e-07 0)
(1.72206e-09 -9.20536e-07 0)
(1.66578e-09 -9.2122e-07 0)
(1.60927e-09 -9.21889e-07 0)
(1.55253e-09 -9.22541e-07 0)
(1.49558e-09 -9.23177e-07 0)
(1.43843e-09 -9.23796e-07 0)
(1.38107e-09 -9.24397e-07 0)
(1.32353e-09 -9.24979e-07 0)
(1.26581e-09 -9.25543e-07 0)
(1.20792e-09 -9.26087e-07 0)
(1.14987e-09 -9.26612e-07 0)
(1.09167e-09 -9.27116e-07 0)
(1.03334e-09 -9.27599e-07 0)
(9.74875e-10 -9.2806e-07 0)
(9.16297e-10 -9.28499e-07 0)
(8.57615e-10 -9.28915e-07 0)
(7.98841e-10 -9.29307e-07 0)
(7.39988e-10 -9.29676e-07 0)
(6.81069e-10 -9.3002e-07 0)
(6.22095e-10 -9.30339e-07 0)
(5.63082e-10 -9.30632e-07 0)
(5.04042e-10 -9.30898e-07 0)
(4.4499e-10 -9.31137e-07 0)
(3.85939e-10 -9.31349e-07 0)
(3.26906e-10 -9.31532e-07 0)
(2.67904e-10 -9.31686e-07 0)
(2.0895e-10 -9.31811e-07 0)
(1.50059e-10 -9.31905e-07 0)
(9.12473e-11 -9.31969e-07 0)
(3.25308e-11 -9.32001e-07 0)
(-2.60733e-11 -9.32001e-07 0)
(-8.45482e-11 -9.31968e-07 0)
(-1.42876e-10 -9.31902e-07 0)
(-2.0104e-10 -9.31802e-07 0)
(-2.59022e-10 -9.31667e-07 0)
(-3.16804e-10 -9.31496e-07 0)
(-3.74366e-10 -9.3129e-07 0)
(-4.31691e-10 -9.31048e-07 0)
(-4.88759e-10 -9.30768e-07 0)
(-5.45551e-10 -9.3045e-07 0)
(-6.02048e-10 -9.30094e-07 0)
(-6.58229e-10 -9.29699e-07 0)
(-7.14076e-10 -9.29264e-07 0)
(-7.69566e-10 -9.2879e-07 0)
(-8.24681e-10 -9.28274e-07 0)
(-8.794e-10 -9.27717e-07 0)
(-9.33701e-10 -9.27118e-07 0)
(-9.87565e-10 -9.26477e-07 0)
(-1.04097e-09 -9.25792e-07 0)
(-1.09389e-09 -9.25064e-07 0)
(-1.14632e-09 -9.24292e-07 0)
(-1.19822e-09 -9.23476e-07 0)
(-1.24958e-09 -9.22614e-07 0)
(-1.30037e-09 -9.21706e-07 0)
(-1.35057e-09 -9.20753e-07 0)
(-1.40017e-09 -9.19753e-07 0)
(-1.44914e-09 -9.18705e-07 0)
(-1.49745e-09 -9.17611e-07 0)
(-1.5451e-09 -9.16468e-07 0)
(-1.59205e-09 -9.15278e-07 0)
(-1.63829e-09 -9.14039e-07 0)
(-1.68379e-09 -9.1275e-07 0)
(-1.72854e-09 -9.11413e-07 0)
(-1.77251e-09 -9.10026e-07 0)
(-1.81569e-09 -9.08589e-07 0)
(-1.85804e-09 -9.07102e-07 0)
(-1.89956e-09 -9.05564e-07 0)
(-1.94023e-09 -9.03976e-07 0)
(-1.98002e-09 -9.02337e-07 0)
(-2.01892e-09 -9.00647e-07 0)
(-2.0569e-09 -8.98906e-07 0)
(-2.09395e-09 -8.97114e-07 0)
(-2.13006e-09 -8.9527e-07 0)
(-2.1652e-09 -8.93375e-07 0)
(-2.19936e-09 -8.91428e-07 0)
(-2.23252e-09 -8.8943e-07 0)
(-2.26467e-09 -8.87381e-07 0)
(-2.29578e-09 -8.8528e-07 0)
(-2.32586e-09 -8.83128e-07 0)
(-2.35488e-09 -8.80924e-07 0)
(-2.38283e-09 -8.7867e-07 0)
(-2.40969e-09 -8.76365e-07 0)
(-2.43547e-09 -8.7401e-07 0)
(-2.46013e-09 -8.71604e-07 0)
(-2.48368e-09 -8.69148e-07 0)
(-2.50611e-09 -8.66642e-07 0)
(-2.5274e-09 -8.64087e-07 0)
(-2.54754e-09 -8.61483e-07 0)
(-2.56654e-09 -8.58831e-07 0)
(-2.58439e-09 -8.5613e-07 0)
(-2.60107e-09 -8.53382e-07 0)
(-2.61658e-09 -8.50587e-07 0)
(-2.63092e-09 -8.47745e-07 0)
(-2.64409e-09 -8.44857e-07 0)
(-2.65609e-09 -8.41924e-07 0)
(-2.6669e-09 -8.38947e-07 0)
(-2.67654e-09 -8.35925e-07 0)
(-2.685e-09 -8.32861e-07 0)
(-2.69229e-09 -8.29754e-07 0)
(-2.6984e-09 -8.26606e-07 0)
(-2.70334e-09 -8.23416e-07 0)
(-2.70712e-09 -8.20188e-07 0)
(-2.70973e-09 -8.1692e-07 0)
(-2.71119e-09 -8.13614e-07 0)
(-2.7115e-09 -8.10271e-07 0)
(-2.71066e-09 -8.06893e-07 0)
(-2.7087e-09 -8.03479e-07 0)
(-2.70556e-09 -8.00031e-07 0)
(-2.70155e-09 -7.96544e-07 0)
(-2.6954e-09 -7.93011e-07 0)
(-2.68731e-09 -7.89103e-07 0)
(-2.67829e-09 -7.84793e-07 0)
(-2.66764e-09 -7.80443e-07 0)
(-2.65558e-09 -7.76121e-07 0)
(-2.64223e-09 -7.71837e-07 0)
(-2.6277e-09 -7.67578e-07 0)
(-2.61205e-09 -7.6334e-07 0)
(-2.59534e-09 -7.59126e-07 0)
(-2.57763e-09 -7.54941e-07 0)
(-2.55898e-09 -7.50785e-07 0)
(-2.53946e-09 -7.46661e-07 0)
(-2.51911e-09 -7.42569e-07 0)
(-2.49799e-09 -7.3851e-07 0)
(-2.47614e-09 -7.34486e-07 0)
(-2.45362e-09 -7.30498e-07 0)
(-2.43047e-09 -7.26547e-07 0)
(-2.40673e-09 -7.22634e-07 0)
(-2.38243e-09 -7.1876e-07 0)
(-2.35763e-09 -7.14926e-07 0)
(-2.33234e-09 -7.11132e-07 0)
(-2.30661e-09 -7.0738e-07 0)
(-2.28047e-09 -7.03669e-07 0)
(-2.25395e-09 -7.00002e-07 0)
(-2.22707e-09 -6.96377e-07 0)
(-2.19986e-09 -6.92796e-07 0)
(-2.17235e-09 -6.8926e-07 0)
(-2.14456e-09 -6.85768e-07 0)
(-2.1165e-09 -6.82321e-07 0)
(-2.0882e-09 -6.7892e-07 0)
(-2.05968e-09 -6.75565e-07 0)
(-2.03095e-09 -6.72257e-07 0)
(-2.00204e-09 -6.68995e-07 0)
(-1.97294e-09 -6.6578e-07 0)
(-1.94368e-09 -6.62612e-07 0)
(-1.91428e-09 -6.59491e-07 0)
(-1.88473e-09 -6.56419e-07 0)
(-1.85505e-09 -6.53394e-07 0)
(-1.82525e-09 -6.50417e-07 0)
(-1.79534e-09 -6.47489e-07 0)
(-1.76533e-09 -6.44609e-07 0)
(-1.73522e-09 -6.41778e-07 0)
(-1.70502e-09 -6.38995e-07 0)
(-1.67473e-09 -6.36262e-07 0)
(-1.64436e-09 -6.33577e-07 0)
(-1.61392e-09 -6.30942e-07 0)
(-1.5834e-09 -6.28356e-07 0)
(-1.55281e-09 -6.25819e-07 0)
(-1.52215e-09 -6.23332e-07 0)
(-1.49143e-09 -6.20895e-07 0)
(-1.46064e-09 -6.18507e-07 0)
(-1.4298e-09 -6.16169e-07 0)
(-1.39889e-09 -6.13882e-07 0)
(-1.36792e-09 -6.11644e-07 0)
(-1.33689e-09 -6.09456e-07 0)
(-1.3058e-09 -6.07319e-07 0)
(-1.27466e-09 -6.05232e-07 0)
(-1.24345e-09 -6.03195e-07 0)
(-1.21219e-09 -6.01209e-07 0)
(-1.18087e-09 -5.99273e-07 0)
(-1.14949e-09 -5.97389e-07 0)
(-1.11805e-09 -5.95555e-07 0)
(-1.08656e-09 -5.93772e-07 0)
(-1.055e-09 -5.92039e-07 0)
(-1.02338e-09 -5.90358e-07 0)
(-9.91704e-10 -5.88729e-07 0)
(-9.59967e-10 -5.8715e-07 0)
(-9.2817e-10 -5.85623e-07 0)
(-8.96313e-10 -5.84147e-07 0)
(-8.64396e-10 -5.82723e-07 0)
(-8.3242e-10 -5.81351e-07 0)
(-8.00384e-10 -5.8003e-07 0)
(-7.6829e-10 -5.78761e-07 0)
(-7.36137e-10 -5.77545e-07 0)
(-7.03928e-10 -5.7638e-07 0)
(-6.71662e-10 -5.75267e-07 0)
(-6.39341e-10 -5.74207e-07 0)
(-6.06966e-10 -5.73199e-07 0)
(-5.7454e-10 -5.72243e-07 0)
(-5.42063e-10 -5.7134e-07 0)
(-5.09537e-10 -5.70489e-07 0)
(-4.76965e-10 -5.69692e-07 0)
(-4.44349e-10 -5.68946e-07 0)
(-4.11691e-10 -5.68254e-07 0)
(-3.78994e-10 -5.67615e-07 0)
(-3.46259e-10 -5.67027e-07 0)
(-3.13492e-10 -5.66497e-07 0)
(-2.8069e-10 -5.66004e-07 0)
(-2.47865e-10 -5.65616e-07 0)
(-2.14991e-10 -5.6511e-07 0)
(-1.82164e-10 -5.65218e-07 0)
(-1.49073e-10 -5.63482e-07 0)
(-1.16797e-10 -5.67851e-07 0)
(-8.17416e-11 -5.507e-07 0)
(-5.68046e-11 -5.95809e-07 0)
(-2.56844e-11 -5.20332e-07 0)
)
;
    }
    bottomWall
    {
        type            calculated;
        value           nonuniform List<vector> 
449
(
(-48.5762 -0.964719 0)
(-19.7675 -0.00516023 0)
(-14.3552 -0.00113584 0)
(-12.0433 -0.000546026 0)
(-10.6358 -0.000351855 0)
(-9.64097 -0.000256259 0)
(-8.88211 -0.000198692 0)
(-8.27797 -0.000159982 0)
(-7.78203 -0.000132463 0)
(-7.36496 -0.000112094 0)
(-7.00759 -9.64765e-05 0)
(-6.69685 -8.4156e-05 0)
(-6.42342 -7.42271e-05 0)
(-6.18038 -6.60903e-05 0)
(-5.96248 -5.93256e-05 0)
(-5.76565 -5.36294e-05 0)
(-5.58668 -4.87792e-05 0)
(-5.42302 -4.46091e-05 0)
(-5.27261 -4.09929e-05 0)
(-5.13373 -3.7833e-05 0)
(-5.00499 -3.50527e-05 0)
(-4.88519 -3.25912e-05 0)
(-4.77335 -3.03997e-05 0)
(-4.66862 -2.84385e-05 0)
(-4.57028 -2.66751e-05 0)
(-4.47769 -2.50828e-05 0)
(-4.39032 -2.36392e-05 0)
(-4.30769 -2.23257e-05 0)
(-4.22939 -2.11263e-05 0)
(-4.15505 -2.00279e-05 0)
(-4.08434 -1.90188e-05 0)
(-4.01698 -1.80892e-05 0)
(-3.95271 -1.72307e-05 0)
(-3.8913 -1.6436e-05 0)
(-3.83255 -1.56985e-05 0)
(-3.77626 -1.50128e-05 0)
(-3.72227 -1.43738e-05 0)
(-3.67043 -1.37773e-05 0)
(-3.62059 -1.32194e-05 0)
(-3.57264 -1.26968e-05 0)
(-3.52644 -1.22063e-05 0)
(-3.48191 -1.17454e-05 0)
(-3.43894 -1.13116e-05 0)
(-3.39744 -1.09027e-05 0)
(-3.35733 -1.05168e-05 0)
(-3.31854 -1.01521e-05 0)
(-3.28099 -9.80704e-06 0)
(-3.24461 -9.48019e-06 0)
(-3.20935 -9.17022e-06 0)
(-3.17516 -8.87597e-06 0)
(-3.14197 -8.59633e-06 0)
(-3.10975 -8.33032e-06 0)
(-3.07843 -8.07704e-06 0)
(-3.04799 -7.83566e-06 0)
(-3.01839 -7.60541e-06 0)
(-2.98958 -7.3856e-06 0)
(-2.96152 -7.17558e-06 0)
(-2.9342 -6.97475e-06 0)
(-2.90757 -6.78258e-06 0)
(-2.88161 -6.59855e-06 0)
(-2.85628 -6.42219e-06 0)
(-2.83157 -6.25307e-06 0)
(-2.80745 -6.09077e-06 0)
(-2.7839 -5.93494e-06 0)
(-2.76089 -5.78521e-06 0)
(-2.7384 -5.64126e-06 0)
(-2.71642 -5.50279e-06 0)
(-2.69492 -5.36951e-06 0)
(-2.6739 -5.24115e-06 0)
(-2.65332 -5.11748e-06 0)
(-2.63317 -4.99825e-06 0)
(-2.61345 -4.88326e-06 0)
(-2.59413 -4.77229e-06 0)
(-2.57521 -4.66515e-06 0)
(-2.55666 -4.56166e-06 0)
(-2.53848 -4.46166e-06 0)
(-2.52065 -4.36499e-06 0)
(-2.50317 -4.27148e-06 0)
(-2.48602 -4.18101e-06 0)
(-2.46919 -4.09344e-06 0)
(-2.45267 -4.00864e-06 0)
(-2.43646 -3.9265e-06 0)
(-2.42053 -3.84689e-06 0)
(-2.4049 -3.76971e-06 0)
(-2.38953 -3.69487e-06 0)
(-2.37444 -3.62227e-06 0)
(-2.3596 -3.55181e-06 0)
(-2.34502 -3.48341e-06 0)
(-2.33069 -3.41698e-06 0)
(-2.31659 -3.35246e-06 0)
(-2.30273 -3.28977e-06 0)
(-2.28909 -3.22882e-06 0)
(-2.27567 -3.16957e-06 0)
(-2.26247 -3.11195e-06 0)
(-2.24947 -3.05589e-06 0)
(-2.23668 -3.00133e-06 0)
(-2.22408 -2.94823e-06 0)
(-2.21168 -2.89653e-06 0)
(-2.19946 -2.84618e-06 0)
(-2.18743 -2.79713e-06 0)
(-2.17558 -2.74934e-06 0)
(-2.1639 -2.70276e-06 0)
(-2.15239 -2.65736e-06 0)
(-2.14105 -2.61308e-06 0)
(-2.12987 -2.5699e-06 0)
(-2.11884 -2.52777e-06 0)
(-2.10798 -2.48667e-06 0)
(-2.09726 -2.44655e-06 0)
(-2.08669 -2.40739e-06 0)
(-2.07626 -2.36915e-06 0)
(-2.06598 -2.33181e-06 0)
(-2.05583 -2.29534e-06 0)
(-2.04582 -2.2597e-06 0)
(-2.03593 -2.22489e-06 0)
(-2.02618 -2.19085e-06 0)
(-2.01655 -2.15759e-06 0)
(-2.00705 -2.12506e-06 0)
(-1.99767 -2.09326e-06 0)
(-1.9884 -2.06215e-06 0)
(-1.97925 -2.03172e-06 0)
(-1.97022 -2.00194e-06 0)
(-1.96129 -1.9728e-06 0)
(-1.95248 -1.94429e-06 0)
(-1.94377 -1.91637e-06 0)
(-1.93516 -1.88904e-06 0)
(-1.92666 -1.86227e-06 0)
(-1.91826 -1.83606e-06 0)
(-1.90995 -1.81039e-06 0)
(-1.90175 -1.78523e-06 0)
(-1.89363 -1.76059e-06 0)
(-1.88561 -1.73644e-06 0)
(-1.87768 -1.71277e-06 0)
(-1.86985 -1.68956e-06 0)
(-1.86209 -1.66681e-06 0)
(-1.85443 -1.64451e-06 0)
(-1.84685 -1.62264e-06 0)
(-1.83935 -1.60118e-06 0)
(-1.83193 -1.58014e-06 0)
(-1.82459 -1.55949e-06 0)
(-1.81733 -1.53924e-06 0)
(-1.81015 -1.51936e-06 0)
(-1.80305 -1.49985e-06 0)
(-1.79601 -1.48071e-06 0)
(-1.78906 -1.46191e-06 0)
(-1.78217 -1.44346e-06 0)
(-1.77535 -1.42534e-06 0)
(-1.76861 -1.40754e-06 0)
(-1.76193 -1.39007e-06 0)
(-1.75532 -1.37291e-06 0)
(-1.74877 -1.35604e-06 0)
(-1.74229 -1.33948e-06 0)
(-1.73588 -1.3232e-06 0)
(-1.72952 -1.30721e-06 0)
(-1.72323 -1.29149e-06 0)
(-1.717 -1.27604e-06 0)
(-1.71083 -1.26085e-06 0)
(-1.70472 -1.24592e-06 0)
(-1.69867 -1.23125e-06 0)
(-1.69267 -1.21681e-06 0)
(-1.68673 -1.20262e-06 0)
(-1.68084 -1.18866e-06 0)
(-1.67501 -1.17494e-06 0)
(-1.66923 -1.16143e-06 0)
(-1.66351 -1.14815e-06 0)
(-1.65784 -1.13508e-06 0)
(-1.65222 -1.12222e-06 0)
(-1.64664 -1.10956e-06 0)
(-1.64112 -1.09711e-06 0)
(-1.63565 -1.08486e-06 0)
(-1.63023 -1.0727e-06 0)
(-1.62485 -1.06109e-06 0)
(-1.61952 -1.04913e-06 0)
(-1.61424 -1.0365e-06 0)
(-1.6093 -1.02669e-06 0)
(-1.60466 -1.01835e-06 0)
(-1.60001 -1.00789e-06 0)
(-1.59536 -9.97274e-07 0)
(-1.59071 -9.87359e-07 0)
(-1.58605 -9.77453e-07 0)
(-1.58139 -9.67685e-07 0)
(-1.57673 -9.57996e-07 0)
(-1.57206 -9.48385e-07 0)
(-1.56739 -9.38843e-07 0)
(-1.56272 -9.29368e-07 0)
(-1.55804 -9.19956e-07 0)
(-1.55336 -9.10605e-07 0)
(-1.54868 -9.01316e-07 0)
(-1.544 -8.92086e-07 0)
(-1.53931 -8.82915e-07 0)
(-1.53462 -8.73803e-07 0)
(-1.52993 -8.64751e-07 0)
(-1.52524 -8.55756e-07 0)
(-1.52054 -8.4682e-07 0)
(-1.51585 -8.37943e-07 0)
(-1.51115 -8.29124e-07 0)
(-1.50646 -8.20363e-07 0)
(-1.50176 -8.11661e-07 0)
(-1.49706 -8.03018e-07 0)
(-1.49236 -7.94433e-07 0)
(-1.48766 -7.85907e-07 0)
(-1.48296 -7.77439e-07 0)
(-1.47826 -7.6903e-07 0)
(-1.47356 -7.6068e-07 0)
(-1.46887 -7.52389e-07 0)
(-1.46417 -7.44157e-07 0)
(-1.45947 -7.35984e-07 0)
(-1.45478 -7.27871e-07 0)
(-1.45008 -7.19816e-07 0)
(-1.44539 -7.11821e-07 0)
(-1.4407 -7.03885e-07 0)
(-1.43601 -6.96009e-07 0)
(-1.43133 -6.88192e-07 0)
(-1.42665 -6.80434e-07 0)
(-1.42196 -6.72736e-07 0)
(-1.41729 -6.65098e-07 0)
(-1.41261 -6.5752e-07 0)
(-1.40794 -6.50001e-07 0)
(-1.40327 -6.42541e-07 0)
(-1.3986 -6.35141e-07 0)
(-1.39394 -6.27801e-07 0)
(-1.38929 -6.20521e-07 0)
(-1.38463 -6.133e-07 0)
(-1.37998 -6.06138e-07 0)
(-1.37534 -5.99036e-07 0)
(-1.3707 -5.91994e-07 0)
(-1.36606 -5.8501e-07 0)
(-1.36143 -5.78087e-07 0)
(-1.35681 -5.71222e-07 0)
(-1.35219 -5.64417e-07 0)
(-1.34757 -5.5767e-07 0)
(-1.34296 -5.50983e-07 0)
(-1.33836 -5.44355e-07 0)
(-1.33376 -5.37785e-07 0)
(-1.32917 -5.31274e-07 0)
(-1.32459 -5.24821e-07 0)
(-1.32001 -5.18427e-07 0)
(-1.31544 -5.12091e-07 0)
(-1.31088 -5.05813e-07 0)
(-1.30632 -4.99593e-07 0)
(-1.30177 -4.93431e-07 0)
(-1.29723 -4.87327e-07 0)
(-1.29269 -4.8128e-07 0)
(-1.28817 -4.7529e-07 0)
(-1.28365 -4.69357e-07 0)
(-1.27914 -4.63481e-07 0)
(-1.27463 -4.57662e-07 0)
(-1.27014 -4.51899e-07 0)
(-1.26565 -4.46192e-07 0)
(-1.26118 -4.40541e-07 0)
(-1.25671 -4.34947e-07 0)
(-1.25225 -4.29407e-07 0)
(-1.2478 -4.23923e-07 0)
(-1.24335 -4.18494e-07 0)
(-1.23892 -4.1312e-07 0)
(-1.2345 -4.078e-07 0)
(-1.23009 -4.02535e-07 0)
(-1.22568 -3.97323e-07 0)
(-1.22129 -3.92166e-07 0)
(-1.2169 -3.87062e-07 0)
(-1.21253 -3.82011e-07 0)
(-1.20817 -3.77013e-07 0)
(-1.20381 -3.72068e-07 0)
(-1.19947 -3.67175e-07 0)
(-1.19514 -3.62334e-07 0)
(-1.19082 -3.57545e-07 0)
(-1.18651 -3.52807e-07 0)
(-1.18221 -3.48121e-07 0)
(-1.17792 -3.43485e-07 0)
(-1.17364 -3.389e-07 0)
(-1.16938 -3.34365e-07 0)
(-1.16512 -3.2988e-07 0)
(-1.16088 -3.25444e-07 0)
(-1.15665 -3.21058e-07 0)
(-1.15243 -3.16721e-07 0)
(-1.14822 -3.12432e-07 0)
(-1.14403 -3.08192e-07 0)
(-1.13985 -3.03999e-07 0)
(-1.13567 -2.99855e-07 0)
(-1.13151 -2.95757e-07 0)
(-1.12737 -2.91706e-07 0)
(-1.12323 -2.87702e-07 0)
(-1.11911 -2.83744e-07 0)
(-1.115 -2.79832e-07 0)
(-1.11091 -2.75966e-07 0)
(-1.10682 -2.72145e-07 0)
(-1.10275 -2.68368e-07 0)
(-1.09869 -2.64636e-07 0)
(-1.09465 -2.60948e-07 0)
(-1.09062 -2.57305e-07 0)
(-1.0866 -2.53704e-07 0)
(-1.08259 -2.50147e-07 0)
(-1.0786 -2.46632e-07 0)
(-1.07462 -2.43159e-07 0)
(-1.07066 -2.39729e-07 0)
(-1.0667 -2.3634e-07 0)
(-1.06277 -2.32993e-07 0)
(-1.05884 -2.29687e-07 0)
(-1.05493 -2.26421e-07 0)
(-1.05103 -2.23195e-07 0)
(-1.04715 -2.20009e-07 0)
(-1.04328 -2.16863e-07 0)
(-1.03943 -2.13756e-07 0)
(-1.03558 -2.10688e-07 0)
(-1.03176 -2.07658e-07 0)
(-1.02794 -2.04666e-07 0)
(-1.02415 -2.01712e-07 0)
(-1.02036 -1.98795e-07 0)
(-1.01659 -1.95916e-07 0)
(-1.01283 -1.93073e-07 0)
(-1.00909 -1.90266e-07 0)
(-1.00536 -1.87495e-07 0)
(-1.00165 -1.8476e-07 0)
(-0.997953 -1.82061e-07 0)
(-0.994269 -1.79396e-07 0)
(-0.990599 -1.76765e-07 0)
(-0.986944 -1.74169e-07 0)
(-0.983304 -1.71607e-07 0)
(-0.979678 -1.69078e-07 0)
(-0.976067 -1.66583e-07 0)
(-0.972471 -1.6412e-07 0)
(-0.968889 -1.6169e-07 0)
(-0.965322 -1.59292e-07 0)
(-0.96177 -1.56925e-07 0)
(-0.958233 -1.54591e-07 0)
(-0.95471 -1.52287e-07 0)
(-0.951202 -1.50014e-07 0)
(-0.94771 -1.47772e-07 0)
(-0.944232 -1.4556e-07 0)
(-0.940768 -1.43378e-07 0)
(-0.93732 -1.41225e-07 0)
(-0.933887 -1.39101e-07 0)
(-0.930469 -1.37007e-07 0)
(-0.927065 -1.34941e-07 0)
(-0.923677 -1.32903e-07 0)
(-0.920303 -1.30893e-07 0)
(-0.916945 -1.2891e-07 0)
(-0.913601 -1.26955e-07 0)
(-0.910273 -1.25027e-07 0)
(-0.906959 -1.23126e-07 0)
(-0.90366 -1.21251e-07 0)
(-0.900377 -1.19402e-07 0)
(-0.897108 -1.17579e-07 0)
(-0.893854 -1.15781e-07 0)
(-0.890616 -1.14009e-07 0)
(-0.887392 -1.12262e-07 0)
(-0.884183 -1.1054e-07 0)
(-0.880989 -1.08842e-07 0)
(-0.87781 -1.07169e-07 0)
(-0.874646 -1.0552e-07 0)
(-0.871497 -1.03897e-07 0)
(-0.868362 -1.02297e-07 0)
(-0.865243 -1.00713e-07 0)
(-0.862138 -9.92094e-08 0)
(-0.859045 -9.7719e-08 0)
(-0.855621 -9.60006e-08 0)
(-0.851909 -9.42008e-08 0)
(-0.848263 -9.25531e-08 0)
(-0.844679 -9.09332e-08 0)
(-0.84116 -8.92822e-08 0)
(-0.837705 -8.76562e-08 0)
(-0.834313 -8.60698e-08 0)
(-0.830982 -8.45262e-08 0)
(-0.82771 -8.3025e-08 0)
(-0.824497 -8.15652e-08 0)
(-0.821339 -8.0146e-08 0)
(-0.818237 -7.87661e-08 0)
(-0.815187 -7.74241e-08 0)
(-0.812189 -7.61185e-08 0)
(-0.809242 -7.4848e-08 0)
(-0.806343 -7.36114e-08 0)
(-0.803493 -7.24073e-08 0)
(-0.800688 -7.12346e-08 0)
(-0.797929 -7.00922e-08 0)
(-0.795214 -6.8979e-08 0)
(-0.792542 -6.78939e-08 0)
(-0.789912 -6.6836e-08 0)
(-0.787322 -6.58043e-08 0)
(-0.784772 -6.4798e-08 0)
(-0.782262 -6.38161e-08 0)
(-0.779789 -6.28579e-08 0)
(-0.777353 -6.19226e-08 0)
(-0.774953 -6.10095e-08 0)
(-0.772588 -6.01177e-08 0)
(-0.770258 -5.92467e-08 0)
(-0.767962 -5.83958e-08 0)
(-0.765698 -5.75642e-08 0)
(-0.763466 -5.67515e-08 0)
(-0.761266 -5.59571e-08 0)
(-0.759097 -5.51803e-08 0)
(-0.756957 -5.44207e-08 0)
(-0.754847 -5.36777e-08 0)
(-0.752766 -5.29508e-08 0)
(-0.750712 -5.22396e-08 0)
(-0.748686 -5.15436e-08 0)
(-0.746688 -5.08624e-08 0)
(-0.744715 -5.01955e-08 0)
(-0.742768 -4.95425e-08 0)
(-0.740846 -4.8903e-08 0)
(-0.73895 -4.82767e-08 0)
(-0.737077 -4.76632e-08 0)
(-0.735228 -4.70621e-08 0)
(-0.733402 -4.64731e-08 0)
(-0.731599 -4.58958e-08 0)
(-0.729819 -4.533e-08 0)
(-0.72806 -4.47754e-08 0)
(-0.726323 -4.42316e-08 0)
(-0.724607 -4.36984e-08 0)
(-0.722911 -4.31755e-08 0)
(-0.721236 -4.26626e-08 0)
(-0.71958 -4.21595e-08 0)
(-0.717944 -4.16659e-08 0)
(-0.716327 -4.11817e-08 0)
(-0.714729 -4.07065e-08 0)
(-0.713149 -4.02402e-08 0)
(-0.711587 -3.97826e-08 0)
(-0.710043 -3.93334e-08 0)
(-0.708516 -3.88925e-08 0)
(-0.707007 -3.84597e-08 0)
(-0.705514 -3.80348e-08 0)
(-0.704037 -3.76177e-08 0)
(-0.702577 -3.72081e-08 0)
(-0.701132 -3.6806e-08 0)
(-0.699704 -3.64112e-08 0)
(-0.69829 -3.60236e-08 0)
(-0.696891 -3.56431e-08 0)
(-0.695507 -3.52696e-08 0)
(-0.694138 -3.4903e-08 0)
(-0.692783 -3.45433e-08 0)
(-0.691441 -3.41904e-08 0)
(-0.690114 -3.38443e-08 0)
(-0.688799 -3.35052e-08 0)
(-0.687498 -3.31731e-08 0)
(-0.68621 -3.28482e-08 0)
(-0.684934 -3.25308e-08 0)
(-0.68367 -3.22213e-08 0)
(-0.682419 -3.19206e-08 0)
(-0.681179 -3.16295e-08 0)
(-0.67995 -3.13497e-08 0)
(-0.678732 -3.1083e-08 0)
(-0.677524 -3.08374e-08 0)
(-0.676325 -3.06044e-08 0)
(-0.675135 -3.04085e-08 0)
(-0.673951 -3.03736e-08 0)
(-0.672764 -3.00656e-08 0)
(-0.671604 -2.92716e-08 0)
(-0.670479 -3.84357e-08 0)
(-0.668604 -1.04463e-08 0)
(-0.669674 -2.83002e-08 0)
(-0.666356 -4.33477e-08 0)
)
;
    }
    symmetry
    {
        type            symmetryPlane;
    }
    frontAndBack
    {
        type            empty;
    }
}


// ************************************************************************* //
