/*--------------------------------*- C++ -*----------------------------------*\
| =========                 |                                                 |
| \\      /  F ield         | OpenFOAM: The Open Source CFD Toolbox           |
|  \\    /   O peration     | Version:  v2012                                 |
|   \\  /    A nd           | Website:  www.openfoam.com                      |
|    \\/     M anipulation  |                                                 |
\*---------------------------------------------------------------------------*/
FoamFile
{
    version     2.0;
    format      ascii;
    class       volScalarField;
    location    "16";
    object      k;
}
// * * * * * * * * * * * * * * * * * * * * * * * * * * * * * * * * * * * * * //

dimensions      [0 2 -2 0 0 0 0];


internalField   nonuniform List<scalar> 
209825
(
0.00101902
0.000946549
0.000906271
0.000882274
0.000866631
0.000855748
0.000847776
0.000841756
0.000837068
0.00083336
0.00083036
0.000827915
0.000825883
0.00082419
0.000822755
0.000821543
0.000820494
0.000819595
0.000818811
0.00081814
0.000817539
0.000817018
0.00081655
0.000816155
0.000815779
0.000815453
0.00081516
0.000814915
0.000814675
0.000814474
0.000814284
0.000814144
0.00081396
0.000813824
0.000813712
0.00081363
0.000813523
0.000813443
0.000813376
0.000813327
0.00081323
0.000813184
0.000813156
0.000813115
0.000812995
0.000813058
0.000813058
0.000813058
0.000813057
0.000813051
0.000813
0.000813103
0.000813103
0.000813103
0.000813096
0.000813219
0.0008133
0.0008133
0.000813464
0.000813485
0.000813485
0.000813572
0.000813759
0.000813965
0.000814083
0.000814194
0.000814279
0.000814437
0.000814602
0.000814838
0.000814988
0.000815164
0.000815325
0.000815565
0.000815723
0.000815965
0.000816179
0.000816477
0.000816673
0.000816974
0.000817205
0.000817592
0.000817856
0.000818346
0.000818653
0.000819245
0.000819592
0.000820336
0.000820767
0.000821731
0.000822235
0.000823974
0.000824269
0.000836388
0.00089203
0.00230863
0.00101902
0.000946545
0.000906262
0.00088226
0.000866614
0.000855729
0.000847754
0.000841733
0.000837043
0.000833334
0.000830334
0.000827888
0.000825855
0.000824162
0.000822726
0.000821514
0.000820465
0.000819565
0.000818781
0.00081811
0.000817509
0.000816987
0.000816519
0.000816124
0.000815748
0.000815422
0.000815128
0.000814884
0.000814644
0.000814442
0.000814252
0.000814112
0.000813928
0.000813792
0.00081368
0.000813598
0.000813491
0.000813411
0.000813344
0.000813294
0.000813198
0.000813152
0.000813124
0.000813083
0.000812963
0.000813025
0.000813025
0.000813025
0.000813025
0.000813018
0.000812967
0.00081307
0.000813071
0.00081307
0.000813063
0.000813187
0.000813267
0.000813267
0.000813431
0.000813452
0.000813452
0.000813539
0.000813727
0.000813933
0.000814051
0.000814162
0.000814246
0.000814405
0.000814569
0.000814806
0.000814955
0.000815131
0.000815293
0.000815532
0.000815691
0.000815932
0.000816147
0.000816444
0.00081664
0.000816941
0.000817172
0.00081756
0.000817824
0.000818313
0.00081862
0.000819213
0.00081956
0.000820304
0.000820735
0.000821699
0.000822203
0.000823942
0.000824236
0.000836378
0.00089204
0.00231007
0.00101902
0.000946524
0.000906218
0.000882199
0.00086654
0.000855645
0.000847664
0.000841637
0.000836942
0.000833229
0.000830226
0.000827777
0.000825743
0.000824047
0.00082261
0.000821396
0.000820346
0.000819445
0.00081866
0.000817988
0.000817386
0.000816864
0.000816395
0.000815999
0.000815623
0.000815296
0.000815002
0.000814758
0.000814517
0.000814315
0.000814125
0.000813985
0.000813801
0.000813664
0.000813551
0.00081347
0.000813362
0.000813283
0.000813215
0.000813166
0.000813069
0.000813023
0.000812994
0.000812953
0.000812833
0.000812896
0.000812896
0.000812896
0.000812895
0.000812889
0.000812837
0.00081294
0.000812941
0.00081294
0.000812933
0.000813057
0.000813137
0.000813137
0.000813301
0.000813322
0.000813322
0.000813409
0.000813596
0.000813802
0.000813921
0.000814032
0.000814116
0.000814275
0.000814439
0.000814676
0.000814825
0.000815001
0.000815163
0.000815402
0.000815561
0.000815802
0.000816017
0.000816314
0.00081651
0.000816812
0.000817042
0.00081743
0.000817694
0.000818183
0.00081849
0.000819083
0.000819429
0.000820173
0.000820604
0.000821568
0.000822072
0.000823811
0.000824103
0.000836293
0.000891989
0.00231287
0.00101902
0.000946488
0.000906144
0.000882096
0.000866415
0.000855505
0.000847511
0.000841474
0.000836772
0.000833053
0.000830044
0.000827591
0.000825553
0.000823855
0.000822414
0.000821198
0.000820146
0.000819243
0.000818456
0.000817783
0.00081718
0.000816656
0.000816187
0.00081579
0.000815413
0.000815086
0.000814791
0.000814546
0.000814305
0.000814102
0.000813911
0.000813771
0.000813586
0.00081345
0.000813336
0.000813255
0.000813146
0.000813067
0.000812999
0.000812949
0.000812852
0.000812806
0.000812778
0.000812737
0.000812616
0.000812678
0.000812678
0.000812678
0.000812678
0.000812671
0.00081262
0.000812722
0.000812722
0.000812722
0.000812715
0.000812838
0.000812919
0.000812919
0.000813082
0.000813104
0.000813104
0.000813191
0.000813378
0.000813584
0.000813702
0.000813814
0.000813898
0.000814056
0.000814221
0.000814457
0.000814607
0.000814783
0.000814945
0.000815184
0.000815342
0.000815584
0.000815798
0.000816096
0.000816292
0.000816593
0.000816824
0.000817212
0.000817475
0.000817965
0.000818272
0.000818864
0.000819211
0.000819954
0.000820385
0.000821349
0.000821852
0.000823591
0.00082388
0.000836143
0.000891884
0.00231619
0.00101903
0.000946436
0.000906039
0.00088195
0.000866239
0.000855306
0.000847295
0.000841245
0.000836532
0.000832804
0.000829788
0.000827329
0.000825285
0.000823583
0.000822139
0.000820919
0.000819864
0.000818958
0.00081817
0.000817495
0.000816889
0.000816364
0.000815893
0.000815495
0.000815117
0.000814788
0.000814493
0.000814247
0.000814005
0.000813801
0.00081361
0.000813469
0.000813284
0.000813147
0.000813033
0.000812951
0.000812842
0.000812762
0.000812694
0.000812644
0.000812547
0.000812501
0.000812472
0.000812431
0.00081231
0.000812372
0.000812372
0.000812372
0.000812371
0.000812364
0.000812312
0.000812415
0.000812415
0.000812415
0.000812408
0.000812531
0.000812611
0.000812611
0.000812774
0.000812796
0.000812796
0.000812883
0.00081307
0.000813276
0.000813394
0.000813506
0.00081359
0.000813749
0.000813913
0.000814149
0.000814299
0.000814475
0.000814637
0.000814876
0.000815035
0.000815276
0.00081549
0.000815788
0.000815984
0.000816286
0.000816516
0.000816904
0.000817167
0.000817657
0.000817963
0.000818556
0.000818902
0.000819645
0.000820076
0.000821039
0.000821542
0.00082328
0.000823565
0.00083593
0.000891716
0.00232001
0.00101903
0.00094637
0.000905903
0.00088176
0.000866011
0.000855049
0.000847016
0.000840948
0.000836221
0.000832482
0.000829456
0.000826989
0.000824939
0.00082323
0.000821781
0.000820557
0.000819498
0.000818589
0.000817798
0.00081712
0.000816513
0.000815985
0.000815513
0.000815113
0.000814733
0.000814403
0.000814106
0.000813859
0.000813616
0.000813412
0.00081322
0.000813078
0.000812892
0.000812754
0.00081264
0.000812557
0.000812448
0.000812368
0.000812299
0.000812249
0.000812152
0.000812105
0.000812076
0.000812034
0.000811913
0.000811974
0.000811974
0.000811974
0.000811973
0.000811967
0.000811914
0.000812016
0.000812016
0.000812016
0.000812009
0.000812132
0.000812211
0.000812211
0.000812375
0.000812396
0.000812396
0.000812484
0.00081267
0.000812876
0.000812995
0.000813107
0.000813192
0.00081335
0.000813513
0.000813749
0.000813899
0.000814076
0.000814237
0.000814477
0.000814636
0.000814877
0.000815091
0.000815389
0.000815585
0.000815887
0.000816117
0.000816505
0.000816768
0.000817258
0.000817564
0.000818156
0.000818502
0.000819245
0.000819675
0.000820638
0.000821139
0.000822878
0.000823157
0.000835652
0.000891467
0.00232425
0.00101903
0.000946289
0.000905736
0.000881528
0.00086573
0.000854732
0.000846672
0.000840583
0.000835838
0.000832085
0.000829047
0.00082657
0.000824511
0.000822796
0.000821341
0.000820111
0.000819048
0.000818135
0.000817339
0.000816659
0.000816048
0.000815519
0.000815044
0.000814642
0.00081426
0.000813929
0.00081363
0.000813381
0.000813137
0.000812932
0.000812739
0.000812596
0.00081241
0.000812271
0.000812156
0.000812072
0.000811963
0.000811881
0.000811812
0.000811762
0.000811664
0.000811617
0.000811587
0.000811545
0.000811424
0.000811484
0.000811484
0.000811484
0.000811483
0.000811476
0.000811424
0.000811525
0.000811525
0.000811525
0.000811517
0.00081164
0.000811719
0.000811719
0.000811883
0.000811904
0.000811904
0.000811991
0.000812177
0.000812383
0.000812503
0.000812615
0.0008127
0.000812858
0.000813021
0.000813257
0.000813407
0.000813585
0.000813745
0.000813985
0.000814144
0.000814385
0.000814599
0.000814897
0.000815093
0.000815395
0.000815625
0.000816013
0.000816276
0.000816765
0.000817071
0.000817663
0.000818009
0.000818751
0.000819181
0.000820143
0.000820643
0.000822381
0.000822653
0.00083531
0.000891132
0.00232874
0.00101903
0.000946193
0.000905538
0.000881251
0.000865396
0.000854356
0.000846262
0.000840147
0.000835382
0.000831611
0.00082856
0.000826071
0.000824002
0.000822278
0.000820815
0.00081958
0.000818511
0.000817593
0.000816793
0.000816108
0.000815495
0.000814962
0.000814484
0.00081408
0.000813696
0.000813363
0.000813062
0.000812812
0.000812566
0.00081236
0.000812165
0.000812021
0.000811834
0.000811694
0.000811578
0.000811493
0.000811383
0.000811301
0.000811231
0.000811181
0.000811083
0.000811035
0.000811004
0.000810963
0.000810841
0.0008109
0.0008109
0.0008109
0.000810899
0.000810892
0.000810838
0.000810939
0.000810939
0.000810939
0.000810931
0.000811054
0.000811132
0.000811132
0.000811296
0.000811317
0.000811317
0.000811404
0.00081159
0.000811796
0.000811916
0.000812029
0.000812113
0.000812271
0.000812433
0.000812669
0.00081282
0.000812998
0.000813158
0.000813398
0.000813557
0.000813799
0.000814012
0.00081431
0.000814507
0.000814809
0.000815038
0.000815426
0.000815689
0.000816178
0.000816483
0.000817076
0.000817421
0.000818162
0.000818592
0.000819552
0.000820051
0.000821789
0.000822053
0.000834905
0.00089071
0.0023332
0.00101904
0.000946082
0.000905308
0.00088093
0.000865008
0.000853918
0.000845786
0.000839641
0.000834851
0.000831061
0.000827993
0.00082549
0.00082341
0.000821675
0.000820204
0.000818961
0.000817886
0.000816962
0.000816157
0.000815468
0.00081485
0.000814314
0.000813833
0.000813426
0.000813039
0.000812704
0.000812401
0.000812149
0.000811902
0.000811693
0.000811497
0.000811352
0.000811163
0.000811022
0.000810905
0.00081082
0.000810709
0.000810626
0.000810555
0.000810504
0.000810406
0.000810357
0.000810326
0.000810284
0.000810162
0.000810219
0.000810219
0.000810219
0.000810218
0.000810211
0.000810157
0.000810257
0.000810257
0.000810257
0.000810249
0.000810371
0.000810449
0.000810449
0.000810612
0.000810634
0.000810634
0.000810721
0.000810906
0.000811112
0.000811232
0.000811346
0.000811431
0.000811588
0.00081175
0.000811985
0.000812136
0.000812315
0.000812475
0.000812715
0.000812874
0.000813115
0.000813328
0.000813626
0.000813823
0.000814126
0.000814355
0.000814743
0.000815005
0.000815494
0.000815799
0.000816391
0.000816736
0.000817476
0.000817905
0.000818864
0.000819362
0.000821099
0.000821354
0.000834434
0.0008902
0.00233724
0.00101904
0.000945956
0.000905046
0.000880564
0.000864565
0.000853418
0.000845242
0.000839062
0.000834245
0.000830431
0.000827345
0.000824826
0.000822733
0.000820987
0.000819506
0.000818254
0.000817171
0.000816241
0.00081543
0.000814736
0.000814114
0.000813573
0.000813088
0.000812678
0.000812288
0.00081195
0.000811645
0.00081139
0.000811141
0.000810931
0.000810733
0.000810586
0.000810397
0.000810254
0.000810136
0.000810049
0.000809937
0.000809854
0.000809782
0.00080973
0.000809631
0.000809582
0.00080955
0.000809508
0.000809385
0.000809441
0.000809441
0.000809441
0.00080944
0.000809432
0.000809377
0.000809476
0.000809476
0.000809476
0.000809468
0.00080959
0.000809667
0.000809667
0.00080983
0.000809852
0.000809852
0.000809939
0.000810124
0.000810329
0.00081045
0.000810565
0.000810649
0.000810806
0.000810967
0.000811203
0.000811354
0.000811533
0.000811693
0.000811933
0.000812092
0.000812334
0.000812546
0.000812844
0.000813042
0.000813344
0.000813573
0.000813961
0.000814222
0.000814711
0.000815016
0.000815607
0.000815952
0.000816691
0.000817119
0.000818077
0.000818573
0.00082031
0.000820555
0.000833899
0.000889602
0.00234026
0.00101905
0.000945815
0.000904752
0.000880153
0.000864068
0.000852855
0.00084463
0.00083841
0.000833562
0.000829723
0.000826615
0.000824078
0.000821969
0.00082021
0.000818718
0.000817457
0.000816365
0.000815427
0.00081461
0.00081391
0.000813283
0.000812738
0.000812249
0.000811834
0.000811442
0.0008111
0.000810792
0.000810535
0.000810284
0.000810071
0.000809871
0.000809723
0.000809532
0.000809388
0.000809268
0.00080918
0.000809067
0.000808983
0.00080891
0.000808857
0.000808758
0.000808707
0.000808675
0.000808632
0.000808509
0.000808563
0.000808563
0.000808563
0.000808562
0.000808553
0.000808498
0.000808596
0.000808596
0.000808596
0.000808587
0.000808709
0.000808785
0.000808785
0.000808948
0.00080897
0.00080897
0.000809057
0.000809241
0.000809446
0.000809567
0.000809683
0.000809768
0.000809924
0.000810085
0.00081032
0.000810472
0.000810651
0.000810811
0.000811051
0.00081121
0.000811452
0.000811663
0.000811962
0.000812159
0.000812463
0.000812691
0.000813079
0.00081334
0.000813828
0.000814132
0.000814724
0.000815068
0.000815805
0.000816233
0.00081719
0.000817683
0.00081942
0.000819653
0.000833298
0.000888913
0.00234145
0.00101906
0.000945659
0.000904427
0.000879696
0.000863514
0.000852229
0.000843948
0.000837685
0.000832801
0.000828933
0.000825801
0.000823244
0.000821118
0.000819345
0.00081784
0.000816568
0.000815467
0.000814521
0.000813696
0.000812989
0.000812356
0.000811806
0.000811312
0.000810894
0.000810497
0.000810152
0.000809841
0.000809581
0.000809327
0.000809113
0.00080891
0.00080876
0.000808568
0.000808422
0.0008083
0.000808211
0.000808097
0.000808011
0.000807937
0.000807883
0.000807783
0.000807732
0.000807698
0.000807655
0.000807531
0.000807584
0.000807584
0.000807584
0.000807582
0.000807573
0.000807517
0.000807614
0.000807614
0.000807614
0.000807605
0.000807726
0.000807801
0.000807801
0.000807963
0.000807986
0.000807986
0.000808073
0.000808256
0.000808461
0.000808583
0.0008087
0.000808785
0.000808941
0.0008091
0.000809335
0.000809488
0.000809667
0.000809827
0.000810066
0.000810226
0.000810468
0.000810679
0.000810978
0.000811175
0.000811479
0.000811707
0.000812095
0.000812355
0.000812843
0.000813146
0.000813737
0.000814081
0.000814817
0.000815244
0.000816199
0.000816691
0.000818427
0.000818648
0.000832631
0.000888134
0.00233983
0.00101906
0.000945489
0.00090407
0.000879193
0.000862905
0.000851539
0.000843196
0.000836884
0.000831961
0.000828061
0.000824903
0.000822323
0.000820179
0.000818389
0.000816871
0.000815586
0.000814474
0.000813519
0.000812686
0.000811972
0.000811333
0.000810777
0.000810278
0.000809854
0.000809454
0.000809105
0.00080879
0.000808527
0.00080827
0.000808053
0.000807848
0.000807696
0.000807502
0.000807354
0.00080723
0.00080714
0.000807024
0.000806937
0.000806861
0.000806807
0.000806706
0.000806654
0.000806619
0.000806576
0.000806451
0.000806502
0.000806502
0.000806501
0.0008065
0.00080649
0.000806433
0.000806528
0.000806528
0.000806528
0.000806519
0.000806639
0.000806714
0.000806714
0.000806876
0.000806898
0.000806898
0.000806985
0.000807168
0.000807373
0.000807495
0.000807613
0.000807698
0.000807853
0.000808012
0.000808246
0.000808399
0.00080858
0.000808739
0.000808979
0.000809138
0.00080938
0.00080959
0.00080989
0.000810088
0.000810391
0.000810619
0.000811007
0.000811266
0.000811754
0.000812056
0.000812647
0.00081299
0.000813724
0.000814151
0.000815104
0.000815593
0.000817329
0.000817536
0.000831897
0.000887262
0.00233539
0.00101907
0.000945304
0.00090368
0.000878645
0.000862239
0.000850785
0.000842374
0.000836008
0.000831042
0.000827106
0.000823919
0.000821315
0.000819149
0.000817342
0.000815808
0.00081451
0.000813387
0.000812421
0.000811579
0.000810857
0.00081021
0.000809648
0.000809143
0.000808715
0.00080831
0.000807957
0.000807638
0.000807371
0.000807111
0.000806891
0.000806684
0.000806529
0.000806333
0.000806183
0.000806057
0.000805965
0.000805848
0.000805759
0.000805682
0.000805627
0.000805525
0.000805472
0.000805436
0.000805392
0.000805266
0.000805315
0.000805315
0.000805314
0.000805312
0.000805302
0.000805244
0.000805338
0.000805338
0.000805337
0.000805328
0.000805448
0.000805521
0.000805521
0.000805682
0.000805705
0.000805705
0.000805792
0.000805974
0.000806178
0.000806301
0.000806421
0.000806506
0.000806661
0.000806818
0.000807052
0.000807206
0.000807387
0.000807545
0.000807785
0.000807945
0.000808187
0.000808396
0.000808696
0.000808894
0.000809198
0.000809425
0.000809813
0.000810071
0.000810559
0.000810861
0.000811451
0.000811793
0.000812526
0.000812951
0.000813902
0.000814389
0.000816124
0.000816316
0.000831095
0.000886298
0.00232816
0.00101908
0.000945106
0.000903259
0.00087805
0.000861516
0.000849965
0.00084148
0.000835055
0.000830042
0.000826067
0.000822848
0.000820217
0.000818029
0.000816202
0.000814651
0.000813338
0.000812202
0.000811225
0.000810373
0.000809642
0.000808988
0.000808418
0.000807907
0.000807473
0.000807063
0.000806706
0.000806383
0.000806112
0.000805849
0.000805625
0.000805415
0.000805257
0.000805059
0.000804907
0.000804778
0.000804684
0.000804566
0.000804476
0.000804397
0.000804341
0.000804238
0.000804183
0.000804146
0.000804102
0.000803975
0.000804021
0.000804021
0.000804021
0.000804019
0.000804008
0.000803948
0.00080404
0.00080404
0.00080404
0.00080403
0.000804149
0.000804221
0.000804221
0.000804382
0.000804405
0.000804405
0.000804492
0.000804673
0.000804877
0.000805
0.000805121
0.000805207
0.00080536
0.000805516
0.00080575
0.000805905
0.000806086
0.000806244
0.000806484
0.000806644
0.000806886
0.000807095
0.000807395
0.000807593
0.000807898
0.000808124
0.000808512
0.000808769
0.000809257
0.000809557
0.000810147
0.000810489
0.000811219
0.000811643
0.000812592
0.000813076
0.00081481
0.000814988
0.000830224
0.000885238
0.0023182
0.0010191
0.000944893
0.000902807
0.000877409
0.000860735
0.000849079
0.000840513
0.000834025
0.00082896
0.000824943
0.000821689
0.000819028
0.000816815
0.000814967
0.000813398
0.000812069
0.000810919
0.00080993
0.000809067
0.000808327
0.000807664
0.000807087
0.000806569
0.000806128
0.000805713
0.00080535
0.000805023
0.000804748
0.000804481
0.000804254
0.00080404
0.000803879
0.000803679
0.000803524
0.000803393
0.000803297
0.000803177
0.000803085
0.000803004
0.000802947
0.000802843
0.000802787
0.000802749
0.000802703
0.000802576
0.000802619
0.000802619
0.000802619
0.000802616
0.000802605
0.000802544
0.000802634
0.000802634
0.000802634
0.000802623
0.000802742
0.000802812
0.000802812
0.000802972
0.000802995
0.000802996
0.000803083
0.000803263
0.000803466
0.00080359
0.000803712
0.000803798
0.000803951
0.000804106
0.00080434
0.000804494
0.000804677
0.000804834
0.000805074
0.000805235
0.000805476
0.000805684
0.000805984
0.000806183
0.000806488
0.000806713
0.000807101
0.000807358
0.000807845
0.000808144
0.000808733
0.000809074
0.000809803
0.000810226
0.000811173
0.000811653
0.000813387
0.000813548
0.000829281
0.000884082
0.00230554
0.00101911
0.000944667
0.000902323
0.000876722
0.000859897
0.000848128
0.000839474
0.000832916
0.000827796
0.000823733
0.000820441
0.000817749
0.000815509
0.000813637
0.000812048
0.000810702
0.000809537
0.000808534
0.00080766
0.000806909
0.000806236
0.000805651
0.000805125
0.000804678
0.000804257
0.000803889
0.000803556
0.000803277
0.000803006
0.000802775
0.000802557
0.000802394
0.000802191
0.000802034
0.0008019
0.000801801
0.000801679
0.000801586
0.000801503
0.000801444
0.000801339
0.000801282
0.000801241
0.000801196
0.000801068
0.000801108
0.000801108
0.000801107
0.000801104
0.000801092
0.000801029
0.000801118
0.000801118
0.000801118
0.000801106
0.000801224
0.000801293
0.000801293
0.000801453
0.000801476
0.000801476
0.000801563
0.000801742
0.000801945
0.00080207
0.000802193
0.000802279
0.000802432
0.000802585
0.000802818
0.000802973
0.000803156
0.000803313
0.000803553
0.000803714
0.000803956
0.000804163
0.000804463
0.000804662
0.000804968
0.000805192
0.00080558
0.000805835
0.000806322
0.00080662
0.000807209
0.000807549
0.000808275
0.000808697
0.000809641
0.000810118
0.000811851
0.000811995
0.000828266
0.000882827
0.00229026
0.00101913
0.000944428
0.000901807
0.000875989
0.000859002
0.000847109
0.000838361
0.000831729
0.000826548
0.000822436
0.000819103
0.000816376
0.000814107
0.00081221
0.0008106
0.000809235
0.000808054
0.000807037
0.00080615
0.000805387
0.000804705
0.00080411
0.000803577
0.000803122
0.000802694
0.00080232
0.000801982
0.000801698
0.000801422
0.000801188
0.000800966
0.000800799
0.000800593
0.000800433
0.000800296
0.000800195
0.000800071
0.000799976
0.00079989
0.00079983
0.000799724
0.000799665
0.000799623
0.000799577
0.000799448
0.000799485
0.000799485
0.000799484
0.000799481
0.000799467
0.000799403
0.00079949
0.00079949
0.000799489
0.000799477
0.000799594
0.000799662
0.000799662
0.00079982
0.000799844
0.000799844
0.000799931
0.000800109
0.000800312
0.000800436
0.000800561
0.000800648
0.0008008
0.000800952
0.000801184
0.00080134
0.000801524
0.00080168
0.00080192
0.000802081
0.000802323
0.000802529
0.000802829
0.000803028
0.000803334
0.000803558
0.000803946
0.0008042
0.000804686
0.000804984
0.000805571
0.00080591
0.000806634
0.000807054
0.000807996
0.000808469
0.000810201
0.000810327
0.000827176
0.000881472
0.00227243
0.00101914
0.000944176
0.000901261
0.00087521
0.000858048
0.000846024
0.000837175
0.000830462
0.000825216
0.000821051
0.000817674
0.00081491
0.00081261
0.000810686
0.000809052
0.000807667
0.000806468
0.000805436
0.000804535
0.00080376
0.000803067
0.000802463
0.000801921
0.000801458
0.000801023
0.000800643
0.000800299
0.00080001
0.000799729
0.00079949
0.000799264
0.000799094
0.000798885
0.000798722
0.000798581
0.000798478
0.000798351
0.000798254
0.000798166
0.000798104
0.000797997
0.000797936
0.000797893
0.000797845
0.000797715
0.000797749
0.000797749
0.000797748
0.000797744
0.000797729
0.000797664
0.000797748
0.000797748
0.000797748
0.000797734
0.000797851
0.000797916
0.000797917
0.000798075
0.000798098
0.000798098
0.000798186
0.000798362
0.000798564
0.000798689
0.000798816
0.000798903
0.000799054
0.000799204
0.000799435
0.000799592
0.000799777
0.000799933
0.000800172
0.000800333
0.000800575
0.00080078
0.000801081
0.00080128
0.000801587
0.000801809
0.000802197
0.000802451
0.000802936
0.000803232
0.000803818
0.000804156
0.000804878
0.000805297
0.000806235
0.000806704
0.000808435
0.000808544
0.000826008
0.000880012
0.00225214
0.00101916
0.000943911
0.000900684
0.000874384
0.000857037
0.000844872
0.000835914
0.000829114
0.0008238
0.000819578
0.000816153
0.00081335
0.000811016
0.000809063
0.000807404
0.000805998
0.00080478
0.000803731
0.000802815
0.000802027
0.000801322
0.000800708
0.000800156
0.000799685
0.000799243
0.000798856
0.000798506
0.00079821
0.000797924
0.000797681
0.00079745
0.000797276
0.000797064
0.000796897
0.000796754
0.000796647
0.000796518
0.000796418
0.000796328
0.000796265
0.000796156
0.000796093
0.000796048
0.000796
0.000795869
0.000795899
0.000795899
0.000795898
0.000795892
0.000795877
0.00079581
0.000795891
0.000795892
0.000795891
0.000795877
0.000795992
0.000796056
0.000796056
0.000796213
0.000796237
0.000796237
0.000796324
0.000796499
0.000796701
0.000796826
0.000796955
0.000797042
0.000797193
0.000797341
0.000797571
0.000797728
0.000797914
0.000798069
0.000798309
0.00079847
0.000798712
0.000798916
0.000799217
0.000799416
0.000799723
0.000799945
0.000800333
0.000800585
0.000801069
0.000801364
0.000801949
0.000802286
0.000803005
0.000803422
0.000804358
0.000804823
0.000806552
0.000806643
0.000824759
0.000878446
0.00222947
0.00101918
0.000943634
0.000900077
0.000873513
0.000855968
0.000843653
0.000834578
0.000827687
0.000822298
0.000818015
0.00081454
0.000811694
0.000809324
0.00080734
0.000805655
0.000804225
0.000802987
0.00080192
0.000800989
0.000800187
0.000799469
0.000798844
0.000798282
0.000797802
0.000797352
0.000796957
0.0007966
0.000796299
0.000796007
0.000795759
0.000795523
0.000795344
0.000795129
0.000794959
0.000794811
0.000794702
0.00079457
0.000794468
0.000794375
0.00079431
0.000794199
0.000794135
0.000794087
0.000794038
0.000793906
0.000793933
0.000793933
0.000793931
0.000793925
0.000793908
0.000793839
0.000793918
0.000793919
0.000793918
0.000793903
0.000794017
0.000794079
0.000794079
0.000794235
0.000794258
0.000794259
0.000794346
0.000794519
0.00079472
0.000794846
0.000794976
0.000795064
0.000795214
0.000795361
0.00079559
0.000795747
0.000795934
0.000796089
0.000796328
0.000796489
0.000796731
0.000796934
0.000797235
0.000797434
0.000797742
0.000797962
0.00079835
0.000798601
0.000799084
0.000799378
0.000799962
0.000800298
0.000801014
0.00080143
0.000802362
0.000802822
0.00080455
0.000804622
0.000823425
0.000876769
0.00220454
0.00101921
0.000943346
0.00089944
0.000872597
0.000854841
0.000842366
0.000833168
0.000826178
0.00082071
0.000816362
0.000812833
0.000809942
0.000807533
0.000805517
0.000803803
0.000802348
0.000801088
0.000800003
0.000799054
0.000798237
0.000797507
0.000796869
0.000796297
0.000795807
0.000795348
0.000794946
0.000794581
0.000794273
0.000793976
0.000793722
0.000793482
0.000793298
0.000793079
0.000792905
0.000792754
0.000792641
0.000792506
0.000792401
0.000792305
0.000792238
0.000792126
0.000792059
0.000792009
0.00079196
0.000791827
0.000791849
0.000791849
0.000791846
0.000791839
0.000791822
0.000791751
0.000791827
0.000791828
0.000791827
0.00079181
0.000791924
0.000791983
0.000791983
0.000792138
0.000792162
0.000792162
0.000792249
0.000792421
0.000792621
0.000792748
0.000792879
0.000792967
0.000793117
0.000793261
0.00079349
0.000793648
0.000793835
0.000793989
0.000794228
0.00079439
0.000794632
0.000794833
0.000795134
0.000795333
0.000795642
0.000795861
0.000796249
0.000796498
0.00079698
0.000797273
0.000797855
0.00079819
0.000798903
0.000799317
0.000800246
0.000800701
0.000802426
0.00080248
0.000822004
0.000874978
0.00217746
0.00101923
0.000943047
0.000898775
0.000871635
0.000853656
0.000841012
0.000831682
0.000824588
0.000819036
0.000814619
0.000811033
0.000808093
0.000805643
0.000803591
0.000801847
0.000800366
0.000799084
0.000797977
0.000797011
0.000796178
0.000795434
0.000794783
0.000794199
0.000793699
0.000793231
0.000792821
0.000792448
0.000792133
0.00079183
0.00079157
0.000791324
0.000791135
0.000790913
0.000790734
0.000790578
0.000790462
0.000790325
0.000790216
0.000790118
0.000790048
0.000789935
0.000789865
0.000789813
0.000789762
0.000789629
0.000789647
0.000789646
0.000789643
0.000789635
0.000789616
0.000789544
0.000789617
0.000789617
0.000789616
0.000789598
0.00078971
0.000789768
0.000789767
0.000789922
0.000789945
0.000789945
0.000790033
0.000790203
0.000790402
0.000790528
0.000790661
0.00079075
0.000790899
0.000791042
0.000791269
0.000791427
0.000791616
0.000791769
0.000792007
0.000792169
0.000792411
0.000792611
0.000792912
0.000793111
0.000793421
0.000793639
0.000794026
0.000794274
0.000794755
0.000795046
0.000795627
0.000795961
0.000796671
0.000797082
0.000798007
0.000798458
0.00080018
0.000800216
0.000820489
0.000873066
0.00214835
0.00101926
0.000942737
0.00089808
0.000870629
0.000852414
0.00083959
0.000830122
0.000822917
0.000817275
0.000812785
0.000809138
0.000806146
0.000803653
0.000801564
0.000799788
0.000798278
0.000796971
0.000795844
0.000794858
0.000794008
0.000793248
0.000792585
0.000791988
0.000791477
0.000791
0.00079058
0.000790199
0.000789877
0.000789567
0.000789301
0.000789049
0.000788855
0.000788628
0.000788445
0.000788285
0.000788165
0.000788024
0.000787913
0.000787811
0.000787739
0.000787623
0.000787552
0.000787497
0.000787445
0.000787311
0.000787325
0.000787324
0.000787319
0.00078731
0.00078729
0.000787215
0.000787286
0.000787286
0.000787285
0.000787265
0.000787376
0.000787431
0.000787431
0.000787584
0.000787607
0.000787607
0.000787694
0.000787863
0.000788061
0.000788188
0.000788322
0.000788412
0.00078856
0.0007887
0.000788926
0.000789085
0.000789274
0.000789427
0.000789665
0.000789827
0.000790069
0.000790267
0.000790568
0.000790767
0.000791078
0.000791294
0.000791682
0.000791928
0.000792408
0.000792697
0.000793277
0.000793609
0.000794315
0.000794725
0.000795646
0.000796091
0.00079781
0.000797828
0.000818877
0.000871029
0.00211734
0.00101929
0.000942417
0.000897358
0.000869579
0.000851116
0.000838102
0.000828485
0.000821163
0.000815428
0.000810859
0.000807148
0.000804102
0.000801562
0.000799433
0.000797623
0.000796084
0.000794751
0.0007936
0.000792594
0.000791726
0.000790951
0.000790273
0.000789663
0.00078914
0.000788652
0.000788224
0.000787834
0.000787503
0.000787186
0.000786914
0.000786655
0.000786456
0.000786224
0.000786037
0.000785872
0.000785748
0.000785604
0.000785489
0.000785383
0.000785309
0.000785191
0.000785117
0.000785059
0.000785007
0.000784872
0.000784882
0.000784879
0.000784873
0.000784863
0.000784842
0.000784765
0.000784832
0.000784832
0.000784831
0.00078481
0.00078492
0.000784972
0.000784971
0.000785123
0.000785146
0.000785146
0.000785233
0.0007854
0.000785597
0.000785724
0.00078586
0.00078595
0.000786098
0.000786236
0.00078646
0.000786619
0.00078681
0.000786962
0.000787199
0.000787361
0.000787603
0.0007878
0.000788101
0.0007883
0.000788611
0.000788826
0.000789213
0.000789458
0.000789936
0.000790224
0.000790801
0.000791132
0.000791835
0.000792242
0.000793159
0.0007936
0.000795314
0.000795315
0.000817161
0.00086886
0.00208455
0.00101933
0.000942089
0.000896609
0.000868486
0.00084976
0.000836546
0.000826774
0.000819328
0.000813493
0.000808842
0.000805062
0.000801958
0.00079937
0.000797199
0.000795352
0.000793782
0.000792421
0.000791246
0.000790219
0.000789332
0.000788539
0.000787846
0.000787223
0.000786687
0.000786188
0.00078575
0.00078535
0.000785012
0.000784686
0.000784407
0.000784142
0.000783937
0.000783701
0.000783508
0.000783338
0.00078321
0.000783062
0.000782944
0.000782834
0.000782757
0.000782637
0.000782561
0.000782499
0.000782446
0.00078231
0.000782316
0.000782312
0.000782305
0.000782293
0.000782271
0.000782192
0.000782255
0.000782256
0.000782254
0.000782232