/*--------------------------------*- C++ -*----------------------------------*\
| =========                 |                                                 |
| \\      /  F ield         | OpenFOAM: The Open Source CFD Toolbox           |
|  \\    /   O peration     | Version:  v2012                                 |
|   \\  /    A nd           | Website:  www.openfoam.com                      |
|    \\/     M anipulation  |                                                 |
\*---------------------------------------------------------------------------*/
FoamFile
{
    version     2.0;
    format      ascii;
    class       volScalarField;
    location    "16";
    object      omega;
}
// * * * * * * * * * * * * * * * * * * * * * * * * * * * * * * * * * * * * * //

dimensions      [0 0 -1 0 0 0 0];


internalField   nonuniform List<scalar> 
209825
(
8225.96
7625.49
7261.28
7032.99
6879.62
6770.64
6689.32
6626.92
6577.49
6537.86
6505.25
6478.36
6455.62
6436.51
6419.99
6405.93
6393.55
6382.92
6373.4
6365.21
6357.74
6351.27
6345.32
6340.25
6335.44
6331.26
6327.33
6324.03
6320.79
6318.02
6315.35
6313.11
6310.88
6309.13
6307.24
6305.68
6304.11
6303
6301.62
6300.55
6299.49
6298.83
6297.55
6296.87
6296.4
6296.1
6295.72
6295.44
6294.88
6294.5
6293.53
6294.06
6294.06
6294.05
6293.87
6294.62
6295.22
6295.22
6295.22
6295.19
6296.13
6296.32
6296.32
6296.87
6298.26
6298.27
6298.27
6299.15
6299.15
6300.23
6301.05
6302.49
6303.09
6305.06
6305.08
6306.18
6307.43
6308.72
6309.72
6311.57
6312.59
6314.32
6315.51
6317.45
6318.56
6321.01
6322.31
6325.25
6326.81
6330.56
6332.24
6338.44
6339.08
6380.76
6565.45
115478
8225.96
7625.47
7261.22
7032.9
6879.5
6770.49
6689.16
6626.74
6577.3
6537.67
6505.05
6478.15
6455.4
6436.29
6419.76
6405.7
6393.31
6382.69
6373.17
6364.96
6357.5
6351.03
6345.08
6340
6335.19
6331.01
6327.08
6323.78
6320.54
6317.77
6315.09
6312.85
6310.63
6308.87
6306.98
6305.42
6303.85
6302.74
6301.36
6300.29
6299.23
6298.57
6297.29
6296.61
6296.14
6295.83
6295.46
6295.17
6294.61
6294.24
6293.26
6293.8
6293.79
6293.79
6293.6
6294.36
6294.95
6294.96
6294.95
6294.93
6295.87
6296.05
6296.05
6296.61
6298
6298
6298
6298.88
6298.89
6299.96
6300.79
6302.22
6302.82
6304.79
6304.81
6305.91
6307.16
6308.46
6309.45
6311.3
6312.32
6314.05
6315.24
6317.18
6318.3
6320.74
6322.05
6324.98
6326.54
6330.29
6331.97
6338.18
6338.81
6380.57
6565.31
112183
8225.98
7625.38
7260.99
7032.55
6879.06
6769.99
6688.59
6626.14
6576.66
6537
6504.35
6477.44
6454.67
6435.54
6419
6404.93
6392.53
6381.9
6372.37
6364.16
6356.69
6350.21
6344.26
6339.18
6334.36
6330.18
6326.24
6322.94
6319.69
6316.92
6314.24
6312
6309.77
6308.01
6306.12
6304.56
6302.99
6301.87
6300.5
6299.42
6298.36
6297.7
6296.42
6295.74
6295.27
6294.96
6294.58
6294.3
6293.74
6293.36
6292.38
6292.92
6292.92
6292.91
6292.72
6293.47
6294.07
6294.07
6294.07
6294.04
6294.98
6295.17
6295.17
6295.72
6297.11
6297.11
6297.11
6298
6298
6299.07
6299.9
6301.33
6301.93
6303.9
6303.93
6305.03
6306.27
6307.57
6308.57
6310.41
6311.43
6313.16
6314.35
6316.29
6317.41
6319.85
6321.16
6324.09
6325.65
6329.4
6331.08
6337.28
6337.91
6379.83
6564.65
108401
8226.01
7625.22
7260.59
7031.95
6878.3
6769.11
6687.62
6625.1
6575.56
6535.84
6503.16
6476.21
6453.41
6434.26
6417.7
6403.6
6391.19
6380.54
6371
6362.78
6355.3
6348.81
6342.84
6337.76
6332.93
6328.74
6324.8
6321.49
6318.24
6315.46
6312.78
6310.53
6308.3
6306.54
6304.65
6303.08
6301.51
6300.39
6299.01
6297.94
6296.87
6296.21
6294.92
6294.24
6293.77
6293.46
6293.08
6292.8
6292.24
6291.86
6290.88
6291.41
6291.41
6291.4
6291.21
6291.96
6292.56
6292.56
6292.56
6292.53
6293.47
6293.66
6293.66
6294.21
6295.6
6295.6
6295.6
6296.48
6296.48
6297.56
6298.38
6299.81
6300.41
6302.38
6302.41
6303.51
6304.75
6306.05
6307.04
6308.89
6309.91
6311.64
6312.82
6314.77
6315.88
6318.32
6319.63
6322.57
6324.12
6327.87
6329.55
6335.75
6336.37
6378.55
6563.47
104513
8226.05
7624.99
7260.02
7031.09
6877.22
6767.86
6686.24
6623.61
6573.99
6534.2
6501.46
6474.46
6451.62
6432.43
6415.84
6401.71
6389.28
6378.6
6369.04
6360.81
6353.31
6346.81
6340.83
6335.73
6330.9
6326.7
6322.75
6319.43
6316.18
6313.39
6310.7
6308.45
6306.21
6304.45
6302.55
6300.98
6299.4
6298.28
6296.9
6295.82
6294.75
6294.08
6292.8
6292.11
6291.64
6291.33
6290.95
6290.66
6290.1
6289.72
6288.74
6289.26
6289.26
6289.25
6289.06
6289.81
6290.41
6290.41
6290.41
6290.37
6291.31
6291.5
6291.5
6292.04
6293.43
6293.43
6293.43
6294.32
6294.32
6295.39
6296.21
6297.65
6298.24
6300.21
6300.24
6301.34
6302.58
6303.88
6304.87
6306.72
6307.74
6309.46
6310.65
6312.6
6313.71
6316.15
6317.46
6320.39
6321.94
6325.69
6327.36
6333.57
6334.17
6376.71
6561.71
100624
8226.1
7624.69
7259.27
7029.97
6875.81
6766.23
6684.44
6621.67
6571.94
6532.06
6499.24
6472.17
6449.28
6430.04
6413.41
6399.25
6386.78
6376.08
6366.49
6358.23
6350.72
6344.2
6338.21
6333.09
6328.25
6324.04
6320.07
6316.75
6313.48
6310.68
6307.99
6305.73
6303.49
6301.71
6299.81
6298.24
6296.65
6295.52
6294.14
6293.06
6291.98
6291.31
6290.03
6289.34
6288.86
6288.55
6288.16
6287.87
6287.31
6286.93
6285.94
6286.46
6286.46
6286.45
6286.26
6287.01
6287.59
6287.59
6287.59
6287.56
6288.5
6288.68
6288.68
6289.23
6290.61
6290.61
6290.61
6291.5
6291.5
6292.57
6293.39
6294.82
6295.42
6297.38
6297.41
6298.51
6299.75
6301.05
6302.04
6303.88
6304.91
6306.63
6307.82
6309.76
6310.88
6313.31
6314.62
6317.55
6319.1
6322.85
6324.52
6330.72
6331.31
6374.3
6559.32
96773.6
8226.17
7624.32
7258.35
7028.58
6874.07
6764.21
6682.21
6619.27
6569.4
6529.41
6496.49
6469.35
6446.38
6427.09
6410.4
6396.2
6383.69
6372.96
6363.34
6355.05
6347.51
6340.97
6334.96
6329.82
6324.96
6320.74
6316.76
6313.42
6310.14
6307.34
6304.63
6302.36
6300.11
6298.33
6296.42
6294.84
6293.25
6292.11
6290.72
6289.64
6288.56
6287.88
6286.59
6285.9
6285.41
6285.1
6284.71
6284.42
6283.85
6283.47
6282.49
6282.99
6282.99
6282.99
6282.78
6283.53
6284.11
6284.11
6284.11
6284.08
6285.02
6285.2
6285.19
6285.74
6287.12
6287.12
6287.12
6288.01
6288.01
6289.08
6289.89
6291.33
6291.91
6293.88
6293.91
6295.01
6296.25
6297.55
6298.54
6300.38
6301.4
6303.13
6304.31
6306.25
6307.37
6309.8
6311.11
6314.03
6315.59
6319.33
6320.99
6327.19
6327.76
6371.31
6556.26
92980.5
8226.25
7623.88
7257.26
7026.93
6871.99
6761.81
6679.55
6616.4
6566.37
6526.24
6493.21
6465.97
6442.92
6423.55
6406.81
6392.55
6380
6369.22
6359.57
6351.25
6343.68
6337.11
6331.07
6325.92
6321.03
6316.79
6312.8
6309.44
6306.15
6303.33
6300.61
6298.33
6296.07
6294.28
6292.36
6290.78
6289.18
6288.04
6286.64
6285.55
6284.46
6283.78
6282.49
6281.79
6281.3
6280.98
6280.58
6280.29
6279.72
6279.34
6278.35
6278.85
6278.85
6278.84
6278.63
6279.37
6279.95
6279.95
6279.95
6279.92
6280.85
6281.03
6281.02
6281.56
6282.95
6282.95
6282.95
6283.83
6283.83
6284.9
6285.71
6287.14
6287.73
6289.68
6289.72
6290.82
6292.06
6293.36
6294.34
6296.18
6297.2
6298.93
6300.11
6302.06
6303.17
6305.6
6306.9
6309.83
6311.38
6315.12
6316.78
6322.97
6323.51
6367.75
6552.53
89253.8
8226.34
7623.38
7255.98
7025.01
6869.57
6759
6676.44
6613.06
6562.83
6522.54
6489.38
6462.03
6438.89
6419.44
6402.62
6388.3
6375.69
6364.87
6355.17
6346.81
6339.2
6332.61
6326.54
6321.36
6316.45
6312.19
6308.17
6304.8
6301.49
6298.66
6295.93
6293.64
6291.36
6289.56
6287.63
6286.03
6284.43
6283.28
6281.87
6280.78
6279.68
6279
6277.7
6276.99
6276.49
6276.17
6275.77
6275.48
6274.9
6274.52
6273.52
6274.01
6274.01
6274
6273.78
6274.52
6275.09
6275.09
6275.09
6275.06
6275.99
6276.16
6276.16
6276.69
6278.07
6278.08
6278.08
6278.95
6278.95
6280.03
6280.82
6282.26
6282.84
6284.79
6284.83
6285.93
6287.16
6288.47
6289.45
6291.29
6292.31
6294.03
6295.22
6297.16
6298.27
6300.7
6302
6304.92
6306.47
6310.21
6311.86
6318.05
6318.56
6363.6
6548.12
85596
8226.44
7622.8
7254.53
7022.82
6866.8
6755.8
6672.89
6609.24
6558.79
6518.32
6485
6457.52
6434.27
6414.72
6397.82
6383.43
6370.76
6359.88
6350.13
6341.72
6334.08
6327.45
6321.34
6316.14
6311.2
6306.92
6302.88
6299.49
6296.16
6293.31
6290.56
6288.25
6285.96
6284.15
6282.21
6280.6
6278.98
6277.82
6276.41
6275.31
6274.2
6273.51
6272.21
6271.5
6270.99
6270.66
6270.25
6269.96
6269.38
6268.99
6267.99
6268.46
6268.46
6268.45
6268.23
6268.97
6269.53
6269.53
6269.53
6269.49
6270.42
6270.58
6270.58
6271.12
6272.49
6272.49
6272.49
6273.37
6273.37
6274.44
6275.23
6276.67
6277.24
6279.19
6279.23
6280.33
6281.56
6282.87
6283.84
6285.68
6286.7
6288.42
6289.6
6291.55
6292.66
6295.08
6296.38
6299.3
6300.84
6304.57
6306.22
6312.4
6312.88
6358.85
6543.01
82005.4
8226.56
7622.16
7252.9
7020.35
6863.69
6752.19
6668.89
6604.93
6554.22
6513.55
6480.06
6452.43
6429.05
6409.4
6392.41
6377.93
6365.19
6354.24
6344.44
6335.98
6328.29
6321.62
6315.48
6310.24
6305.28
6300.96
6296.9
6293.48
6290.13
6287.27
6284.5
6282.17
6279.87
6278.04
6276.09
6274.47
6272.84
6271.67
6270.24
6269.13
6268.02
6267.32
6266.01
6265.29
6264.77
6264.43
6264.02
6263.72
6263.14
6262.75
6261.74
6262.2
6262.2
6262.19
6261.95
6262.69
6263.24
6263.24
6263.24
6263.2
6264.12
6264.28
6264.29
6264.81
6266.18
6266.19
6266.18
6267.05
6267.05
6268.13
6268.91
6270.35
6270.91
6272.86
6272.91
6274
6275.23
6276.54
6277.51
6279.34
6280.36
6282.09
6283.26
6285.21
6286.31
6288.73
6290.03
6292.94
6294.49
6298.21
6299.85
6306.03
6306.47
6353.49
6537.2
78476.3
8226.7
7621.44
7251.1
7017.61
6860.23
6748.17
6664.44
6600.12
6549.14
6508.23
6474.54
6446.75
6423.23
6403.46
6386.36
6371.8
6358.97
6347.96
6338.09
6329.58
6321.83
6315.12
6308.93
6303.66
6298.66
6294.31
6290.22
6286.78
6283.41
6280.52
6277.73
6275.39
6273.06
6271.22
6269.25
6267.62
6265.97
6264.79
6263.36
6262.23
6261.11
6260.4
6259.09
6258.36
6257.83
6257.48
6257.06
6256.76
6256.17
6255.78
6254.76
6255.21
6255.21
6255.19
6254.95
6255.68
6256.22
6256.22
6256.22
6256.17
6257.1
6257.25
6257.25
6257.77
6259.14
6259.14
6259.14
6260.01
6260.01
6261.08
6261.85
6263.29
6263.84
6265.79
6265.84
6266.94
6268.16
6269.47
6270.44
6272.26
6273.29
6275.01
6276.18
6278.13
6279.23
6281.65
6282.94
6285.85
6287.39
6291.11
6292.74
6298.91
6299.31
6347.53
6530.68
75000.4
8226.85
7620.67
7249.12
7014.6
6856.41
6743.73
6659.52
6594.82
6543.52
6502.35
6468.45
6440.48
6416.8
6396.9
6379.68
6365.01
6352.1
6341
6331.06
6322.49
6314.69
6307.92
6301.7
6296.37
6291.34
6286.96
6282.83
6279.37
6275.97
6273.05
6270.24
6267.88
6265.53
6263.67
6261.69
6260.04
6258.38
6257.18
6255.74
6254.61
6253.47
6252.75
6251.43
6250.69
6250.15
6249.79
6249.36
6249.06
6248.46
6248.07
6247.04
6247.47
6247.47
6247.45
6247.2
6247.92
6248.46
6248.46
6248.45
6248.4
6249.32
6249.47
6249.47
6249.98
6251.35
6251.35
6251.35
6252.21
6252.21
6253.28
6254.04
6255.48
6256.02
6257.97
6258.03
6259.12
6260.33
6261.65
6262.61
6264.43
6265.45
6267.18
6268.34
6270.29
6271.39
6273.8
6275.1
6278
6279.53
6283.24
6284.86
6291.03
6291.38
6340.93
6523.43
71584.4
8227.01
7619.83
7246.96
7011.31
6852.24
6738.88
6654.14
6589.01
6537.37
6495.91
6461.77
6433.6
6409.75
6389.7
6372.35
6357.57
6344.56
6333.38
6323.36
6314.72
6306.86
6300.03
6293.75
6288.39
6283.31
6278.89
6274.73
6271.23
6267.8
6264.86
6262.02
6259.64
6257.27
6255.39
6253.38
6251.72
6250.04
6248.83
6247.38
6246.23
6245.08
6244.35
6243.03
6242.27
6241.72
6241.35
6240.91
6240.6
6240
6239.6
6238.57
6238.98
6238.98
6238.96
6238.69
6239.41
6239.93
6239.93
6239.93
6239.87
6240.78
6240.93
6240.93
6241.44
6242.79
6242.79
6242.79
6243.65
6243.65
6244.72
6245.46
6246.91
6247.44
6249.38
6249.44
6250.54
6251.74
6253.06
6254.02
6255.83
6256.86
6258.58
6259.74
6261.69
6262.79
6265.19
6266.48
6269.37
6270.9
6274.61
6276.22
6282.38
6282.69
6333.71
6515.45
68234.2
8227.19
7618.92
7244.62
7007.74
6847.71
6733.61
6648.28
6582.69
6530.67
6488.9
6454.5
6426.11
6402.07
6381.86
6364.37
6349.47
6336.34
6325.07
6314.96
6306.25
6298.31
6291.43
6285.09
6279.68
6274.55
6270.1
6265.9
6262.36
6258.9
6255.93
6253.06
6250.65
6248.26
6246.36
6244.33
6242.66
6240.96
6239.73
6238.26
6237.1
6235.93
6235.19
6233.86
6233.09
6232.52
6232.15
6231.7
6231.38
6230.77
6230.37
6229.33
6229.72
6229.72
6229.69
6229.41
6230.13
6230.63
6230.63
6230.63
6230.57
6231.47
6231.61
6231.61
6232.11
6233.46
6233.46
6233.46
6234.31
6234.31
6235.39
6236.11
6237.56
6238.08
6240.01
6240.08
6241.18
6242.37
6243.7
6244.64
6246.46
6247.48
6249.2
6250.36
6252.31
6253.4
6255.8
6257.09
6259.97
6261.5
6265.19
6266.79
6272.94
6273.2
6325.84
6506.72
64955.4
8227.39
7617.96
7242.11
7003.89
6842.82
6727.91
6641.95
6575.86
6523.42
6481.32
6446.63
6418
6393.76
6373.36
6355.72
6340.69
6327.44
6316.06
6305.86
6297.06
6289.06
6282.11
6275.71
6270.24
6265.06
6260.56
6256.32
6252.74
6249.25
6246.25
6243.35
6240.91
6238.5
6236.57
6234.52
6232.82
6231.1
6229.86
6228.37
6227.2
6226.01
6225.27
6223.92
6223.14
6222.55
6222.17
6221.71
6221.38
6220.77
6220.36
6219.31
6219.68
6219.68
6219.65
6219.35
6220.06
6220.55
6220.55
6220.55
6220.48
6221.38
6221.51
6221.51
6222
6223.34
6223.34
6223.34
6224.19
6224.19
6225.26
6225.97
6227.42
6227.93
6229.85
6229.93
6231.02
6232.21
6233.54
6234.48
6236.29
6237.31
6239.03
6240.18
6242.13
6243.22
6245.61
6246.9
6249.77
6251.29
6254.98
6256.57
6262.7
6262.92
6317.31
6497.23
61753.3
8227.61
7616.93
7239.43
6999.77
6837.57
6721.79
6635.14
6568.5
6515.62
6473.15
6438.15
6409.26
6384.79
6364.21
6346.4
6331.22
6317.85
6306.35
6296.05
6287.16
6279.08
6272.05
6265.59
6260.06
6254.83
6250.28
6245.99
6242.37
6238.84
6235.8
6232.87
6230.41
6227.96
6226.01
6223.93
6222.22
6220.48
6219.21
6217.71
6216.52
6215.31
6214.55
6213.2
6212.4
6211.8
6211.4
6210.93
6210.6
6209.97
6209.56
6208.5
6208.85
6208.85
6208.81
6208.49
6209.2
6209.67
6209.67
6209.67
6209.59
6210.49
6210.61
6210.61
6211.09
6212.42
6212.42
6212.42
6213.26
6213.26
6214.34
6215.03
6216.47
6216.97
6218.89
6218.98
6220.07
6221.25
6222.58
6223.51
6225.31
6226.33
6228.05
6229.2
6231.15
6232.24
6234.62
6235.9
6238.77
6240.28
6243.96
6245.54
6251.65
6251.82
6308.12
6486.97
58632.7
8227.84
7615.85
7236.57
6995.37
6831.96
6715.23
6627.85
6560.62
6507.26
6464.39
6429.06
6399.88
6375.18
6354.39
6336.4
6321.06
6307.55
6295.93
6285.52
6276.54
6268.36
6261.26
6254.72
6249.13
6243.84
6239.24
6234.9
6231.23
6227.66
6224.59
6221.62
6219.12
6216.64
6214.66
6212.56
6210.82
6209.06
6207.77
6206.25
6205.04
6203.82
6203.04
6201.68
6200.87
6200.24
6199.84
6199.35
6199.01
6198.37
6197.96
6196.89
6197.21
6197.21
6197.17
6196.83
6197.53
6197.98
6197.98
6197.98
6197.9
6198.79
6198.9
6198.9
6199.37
6200.69
6200.69
6200.69
6201.52
6201.53
6202.6
6203.27
6204.72
6205.2
6207.11
6207.21
6208.3
6209.46
6210.81
6211.73
6213.52
6214.54
6216.26
6217.4
6219.35
6220.43
6222.81
6224.09
6226.94
6228.45
6232.12
6233.68
6239.78
6239.89
6298.24
6475.92
55598.1
8228.09
7614.71
7233.55
6990.7
6825.98
6708.25
6620.08
6552.21
6498.33
6455.03
6419.35
6389.87
6364.9
6343.89
6325.7
6310.2
6296.53
6284.79
6274.26
6265.17
6256.9
6249.71
6243.1
6237.43
6232.08
6227.43
6223.03
6219.32
6215.7
6212.59
6209.58
6207.05
6204.54
6202.52
6200.4
6198.63
6196.84
6195.53
6193.99
6192.77
6191.52
6190.73
6189.36
6188.52
6187.88
6187.46
6186.95
6186.61
6185.96
6185.54
6184.47
6184.76
6184.75
6184.7
6184.35
6185.04
6185.48
6185.48
6185.47
6185.38
6186.26
6186.36
6186.36
6186.83
6188.13
6188.14
6188.14
6188.96
6188.96
6190.04
6190.69
6192.13
6192.61
6194.51
6194.61
6195.7
6196.86
6198.2
6199.11
6200.9
6201.92
6203.63
6204.77
6206.72
6207.8
6210.16
6211.44
6214.28
6215.79
6219.44
6220.99
6227.07
6227.13
6287.67
6464.07
52653.7
8228.36
7613.52
7230.36
6985.75
6819.65
6700.84
6611.82
6543.27
6488.83
6445.08
6409.01
6379.2
6353.96
6332.71
6314.31
6298.63
6284.8
6272.92
6262.26
6253.06
6244.68
6237.41
6230.71
6224.97
6219.55
6214.83
6210.38
6206.62
6202.95
6199.79
6196.74
6194.18
6191.63
6189.58
6187.43
6185.64
6183.82
6182.49
6180.92
6179.68
6178.4
6177.6
6176.21
6175.36
6174.7
6174.26
6173.74
6173.38
6172.73
6172.3
6171.22
6171.48
6171.47
6171.42
6171.04
6171.72
6172.14
6172.14
6172.13
6172.03
6172.9
6173
6173
6173.45
6174.74
6174.75
6174.75
6175.56
6175.57
6176.64
6177.26
6178.71
6179.17
6181.06
6181.17
6182.26
6183.41
6184.76
6185.66
6187.43
6188.45
6190.16
6191.3
6193.25
6194.32
6196.68
6197.95
6200.78
6202.28
6205.92
6207.45
6213.52
6213.53
6276.39
6451.4
49803.1
8228.65
7612.28
7227.01
6980.53
6812.96
6693
6603.07
6533.79
6478.76
6434.52
6398.04
6367.89
6342.35
6320.84
6302.22
6286.34
6272.34
6260.3
6249.51
6240.19
6231.71
6224.34
6217.55
6211.73
6206.24
6201.45
6196.94
6193.12
6189.4
6186.2
6183.1
6180.49
6177.91
6175.83
6173.64
6171.82
6169.97
6168.61
6167.02
6165.76
6164.46
6163.64
6162.24
6161.37
6160.68
6160.23
6159.69
6159.32
6158.66
6158.22
6157.13
6157.36
6157.36
6157.29
6156.89
6157.56
6157.96
6157.96
6157.95
6157.84
6158.7
6158.79
6158.79
6159.22
6160.51
6160.51
6160.51
6161.31
6161.32
6162.39
6162.99
6164.44
6164.89
6166.77
6166.88
6167.97
6169.1
6170.46
6171.35
6173.12
6174.13
6175.84
6176.97
6178.92
6179.99
6182.33
6183.6
6186.42
6187.91
6191.54
6193.06
6199.09
6199.06
6264.39
6437.9
47049.9
8228.95
7610.99
7223.49
6975.04
6805.9
6684.72
6593.83
6523.78
6468.12
6423.35
6386.43
6355.91
6330.05
6308.27
6289.42
6273.33
6259.15
6246.95
6236.01
6226.56
6217.96
6210.49
6203.6
6197.7
6192.13
6187.27
6182.69
6178.81
6175.04
6171.79
6168.64
6165.99
6163.36
6161.25
6159.03
6157.18
6155.29
6153.91
6152.29
6151.01
6149.68
6148.84
6147.43
6146.53
6145.82
6145.35
6144.79
6144.42
6143.74
6143.3
6142.2
6142.4
6142.39
6142.31
6141.89
6142.55
6142.92
6142.92
6142.92
6142.79
6143.64
6143.72
6143.72
6144.14
6145.41
6145.41
6145.41
6146.21
6146.21
6147.28
6147.86
6149.31
6149.74
6151.61
6151.73
6152.82
6153.94
6155.3
6156.18
6157.94
6158.95
6160.66
6161.78
6163.73
6164.79
6167.12
6168.39
6171.2
6172.68
6176.29
6177.79
6183.81
6183.71
6251.64
6423.53
44397
8229.28
7609.65
7219.82
6969.29
6798.49
6676.02
6584.1
6513.23
6456.89
6411.57
6374.19
6343.27
6317.08
6295
6275.89
6259.58
6245.21
6232.84
6221.74
6212.16
6203.43
6195.85
6188.86
6182.87
6177.21
6172.29
6167.63
6163.69
6159.86
6156.55
6153.36
6150.66
6147.99
6145.84
6143.58
6141.7
6139.78
6138.36
6136.72
6135.41
6134.06
6133.2
6131.77
6130.85
6130.11
6129.62
6129.04
6128.66
6127.97
6127.52
6126.41
6126.58
6126.56
6126.47
6126.03
6126.67
6127.02
6127.02
6127.02
6126.88
6127.72
6127.79
6127.78
6128.19
6129.45
6129.45
6129.45
6130.23
6130.24
6131.31
6131.86
6133.31
6133.72
6135.58
6135.71
6136.8
6137.9
6139.27
6140.14
6141.88
6142.89
6144.6
6145.71
6147.66
6148.71
6151.04
6152.29
6155.09
6156.56
6160.16
6161.65
6167.64
6167.49
6238.12
6408.28
41847.1
8229.62
7608.28
7216
6963.28
6790.73
6666.88
6573.88
6502.13
6445.09
6399.18
6361.3
6329.97
6303.41
6281.03
6261.65
6245.1
6230.52
6217.96
6206.71
6196.98
6188.12
6180.42
6173.33
6167.23
6161.49
6156.48
6151.75
6147.75
6143.85
6140.49
6137.24
6134.5
6131.78
6129.58
6127.28
6125.37
6123.41
6121.96
6120.29
6118.96
6117.58
6116.69
6115.25
6114.3
6113.54
6113.03
6112.43
6112.03
6111.32
6110.87
6109.75
6109.88
6109.86
6109.76
6109.3
6109.92
6110.25
6110.25
6110.24
6110.09
6110.92
6110.97
6110.97
6111.36
6112.6
6112.6
6112.6
6113.38
6113.38
6114.45
6114.97
6116.42
6116.82
6118.66
6118.8
6119.89
6120.98
6122.35
6123.21
6124.94
6125.95
6127.65
6128.75
6130.7
6131.75
6134.06
6135.31
6138.09
6139.55
6143.14
6144.6
6150.58
6150.37
6223.82
6392.13
39402.6
8229.99
7606.87
7212.03
6957.01
6782.61
6657.32
6563.16
6490.5
6432.7
6386.17
6347.77
6315.99
6289.05
6266.34
6246.68
6229.88
6215.08
6202.33
6190.9
6181.01
6172.02
6164.19
6156.98
6150.78
6144.95
6139.86
6135.05
6130.97
6127
6123.59
6120.28
6117.49
6114.71
6112.47
6110.13
6108.18
6106.19
6104.71
6103
6101.64
6100.23
6099.32
6097.86
6096.89
6096.1
6095.57
6094.94
6094.53
6093.81
6093.34
6092.22
6092.32
6092.28
6092.16
6091.68
6092.29
6092.59
6092.59
6092.58
6092.42
6093.23
6093.27
6093.27
6093.64
6094.87
6094.87
6094.87
6095.63
6095.64
6096.7
6097.2
6098.64
6099.02
6100.85
6101
6102.09
6103.16
6104.53
6105.38
6107.1
6108.1
6109.8
6110.9
6112.84
6113.88
6116.18
6117.43
6120.19
6121.65
6125.22
6126.66
6132.61
6132.34
6208.72
6375.03
37065.4
8230.37
7605.42
7207.92
6950.48
6774.15
6647.33
6551.97
6478.33
6419.73
6372.54
6333.58
6301.34
6273.99
6250.94
6230.97
6213.91
6198.87
6185.92
6174.3
6164.25
6155.11
6147.15
6139.82
6133.52
6127.58
6122.4
6117.5
6113.35
6109.31
6105.83
6102.46
6099.62
6096.79
6094.5
6092.12
6090.13
6088.09
6086.58
6084.84
6083.45
6082
6081.07
6079.59
6078.6
6077.77
6077.22
6076.57
6076.14
6075.4
6074.93
6073.8
6073.86
6073.82
6073.68
6073.17
6073.77
6074.04
6074.04
6074.03
6073.85
6074.64
6074.68
6074.68
6075.03
6076.23
6076.24
6076.24
6076.99
6076.99
6078.05
6078.52
6079.96
6080.32
6082.13
6082.3
6083.38
6084.43
6085.81
6086.64
6088.35
6089.35
6091.05
6092.13
6094.07
6095.11
6097.4
6098.64
6101.38
6102.83
6106.38
6107.8
6113.73
6113.4
6192.79
6356.97
34837.2
8230.78
7603.94
7203.67
6943.71
6765.34
6636.92
6540.28
6465.62
6406.18
6358.29
6318.75
6286
6258.24
6234.81
6214.53
6197.19
6181.9
6168.73
6156.92
6146.7
6137.4
6129.3
6121.84
6115.42
6109.38
6104.1
6099.12
6094.89
6090.77
6087.23
6083.79
6080.89
6078.01
6075.67
6073.24
6071.21
6069.13
6067.57
6065.8
6064.38
6062.9
6061.94
6060.43
6059.41
6058.56
6057.98
6057.31
6056.86
6056.11
6055.62
6054.49
6054.51
6054.45
6054.3
6053.76
6054.34
6054.59
6054.59
6054.58
6054.38
6055.15
6055.18
6055.18
6055.51
6056.69
6056.7
6056.69
6057.43
6057.44
6058.49
6058.93
6060.36
6060.71
6062.51
6062.68
6063.76
6064.79
6066.18
6066.99
6068.69
6069.68
6071.38
6072.45
6074.39
6075.42
6077.69
6078.92
6081.65
6083.09
6086.62
6088.02
6093.93
6093.54
6176.02
6337.9
32719.4
8231.21
7602.43
7199.29
6936.69
6756.2
6626.09
6528.11
6452.36
6392.04
6343.42
6303.26
6269.99
6241.78
6217.97
6197.34
6179.71
6164.16
6150.76
6138.75
6128.34
6118.87
6110.63
6103.03
6096.49
6090.34
6084.97
6079.89
6075.57
6071.37
6067.76
6064.25
6061.29
6058.35
6055.96
6053.48
6051.4
6049.28
6047.68
6045.87
6044.42
6042.9
6041.91
6040.39
6039.34
6038.45
6037.84
6037.14
6036.68
6035.9
6035.41
6034.28
6034.26
6034.18
6034.01
6033.45
6034.01
6034.22
6034.23
6034.21
6033.99
6034.74
6034.77
6034.77
6035.07
6036.23
6036.24
6036.24
6036.96
6036.96
6038.01
6038.42
6039.85
6040.18
6041.96
6042.13
6043.22
6044.23
6045.62
6046.42
6048.1
6049.09
6050.78
6051.84
6053.77
6054.8
6057.05
6058.28
6060.99
6062.41
6065.93
6067.31
6073.2
6072.74
6158.37
6317.79
30713.1
8231.65
7600.9
7194.78
6929.45
6746.72
6614.84
6515.46
6438.58
6377.33
6327.93
6287.12
6253.3
6224.61
6200.4
6179.42
6161.48
6145.65
6132.01
6119.77
6109.18
6099.53
6091.14
6083.4
6076.73
6070.45
6064.98
6059.8
6055.39
6051.11
6047.42
6043.84
6040.82
6037.81
6035.37
6032.83
6030.71
6028.54
6026.9
6025.05
6023.57
6022.01
6020.98
6019.44
6018.36
6017.43
6016.8
6016.07
6015.59
6014.79
6014.29
6013.15
6013.09
6012.99
6012.81
6012.22
6012.75
6012.94
6012.95
6012.93
6012.69
6013.42
6013.43
6013.43
6013.71
6014.85
6014.86
6014.85
6015.56
6015.56
6016.6
6016.98
6018.4
6018.72
6020.48
6020.66
6021.74
6022.74
6024.12
6024.91
6026.58
6027.56
6029.24
6030.3
6032.22
6033.24
6035.48
6036.7
6039.39
6040.8
6044.3
6045.65
6051.52
6051
6139.79
6296.62
28819.1
8232.12
7599.35
7190.16
6921.97
6736.91
6603.19
6502.33
6424.26
6362.03
6311.82
6270.33
6235.93
6206.74
6182.1
6160.74
6142.48
6126.36
6112.47
6100
6089.2
6079.37
6070.81
6062.92
6056.12
6049.72
6044.13
6038.85
6034.34
6029.98
6026.21
6022.56
6019.46
6016.39
6013.88
6011.29
6009.12
6006.9
6005.22
6003.33
6001.81
6000.2
5999.15
5997.58
5996.47
5995.5
5994.84
5994.08
5993.58
5992.77
5992.25
5991.11
5991.01
5990.88
5990.68
5990.07
5990.57
5990.73
5990.74
5990.71
5990.45
5991.16
5991.17
5991.17
5991.42
5992.53
5992.54
5992.53
5993.22
5993.23
5994.26
5994.6
5996.02
5996.32
5998.06
5998.25
5999.33
6000.3
6001.69
6002.46
6004.11
6005.09
6006.77
6007.81
6009.73
6010.74
6012.96
6014.17
6016.85
6018.24
6021.71
6023.05
6028.9
6028.31
6120.24
6274.36
27038.2
8232.61
7597.79
7185.43
6914.27
6726.79
6591.13
6488.73
6409.41
6346.15
6295.1
6252.88
6217.88
6188.17
6163.08
6141.32
6122.72
6106.29
6092.13
6079.42
6068.41
6058.39
6049.66
6041.61
6034.66
6028.13
6022.43
6017.03
6012.43
6007.97
6004.12
6000.38
5997.22
5994.08
5991.51
5988.86
5986.64
5984.36
5982.63
5980.7
5979.14
5977.49
5976.4
5974.8
5973.66
5972.66
5971.97
5971.17
5970.65
5969.81
5969.29
5968.14
5967.99
5967.84
5967.63
5966.99
5967.46
5967.6
5967.6
5967.57
5967.29
5967.96
5967.97
5967.97
5968.19
5969.28
5969.28
5969.28
5969.95
5969.95
5970.98
5971.29
5972.69
5972.97
5974.69
5974.89
5975.97
5976.92
5978.31
5979.06
5980.7
5981.67
5983.34
5984.37
5986.28
5987.28
5989.49
5990.69
5993.34
5994.72
5998.17
5999.49
6005.31
6004.66
6099.67
6250.99
25371.1
8233.12
7596.21
7180.59
6906.36
6716.35
6578.68
6474.66
6394.04
6329.7
6277.76
6234.79
6199.15
6168.89
6143.32
6121.16
6102.19
6085.45
6071
6058.04
6046.81
6036.58
6027.67
6019.45
6012.35
6005.68
5999.86
5994.34
5989.64
5985.08
5981.14
5977.32
5974.09
5970.87
5968.24
5965.52
5963.25
5960.92
5959.14
5957.16
5955.56
5953.87
5952.74
5951.11
5949.93
5948.89
5948.17
5947.34
5946.8
5945.93
5945.4
5944.23
5944.05
5943.87
5943.64
5942.97
5943.41
5943.52
5943.52
5943.48
5943.18
5943.82
5943.82
5943.82
5944.01
5945.07
5945.07
5945.07
5945.73
5945.73
5946.75
5947.02
5948.42
5948.68
5950.37
5950.57
5951.65
5952.58
5953.97
5954.71
5956.32
5957.29
5958.95
5959.97
5961.87
5962.86
5965.05
5966.24
5968.88
5970.24
5973.67
5974.96
5980.76
5980.05
6078.02
6226.48
23818
8233.65
7594.63
7175.65
6898.25
6705.61
6565.84
6460.13
6378.14
6312.69
6259.8
6216.05
6179.74
6148.91
6122.85
6100.25
6080.9
6063.82
6049.08
6035.85
6024.38
6013.94
6004.84
5996.44
5989.19
5982.38
5976.42
5970.79
5965.97
5961.31
5957.28
5953.37
5950.06
5946.76
5944.06
5941.28
5938.95
5936.56
5934.73
5932.7
5931.06
5929.32
5928.15
5926.49
5925.28
5924.19
5923.43
5922.57
5922
5921.11
5920.56
5919.39
5919.16
5918.95
5918.71
5918.01
5918.42
5918.5
5918.5
5918.45
5918.12
5918.73
5918.73
5918.73
5918.88
5919.91
5919.92
5919.92
5920.55
5920.55
5921.56
5921.8
5923.18
5923.43
5925.1
5925.3
5926.38
5927.28
5928.67
5929.39
5930.99
5931.94
5933.6
5934.6
5936.49
5937.48
5939.65
5940.83
5943.44
5944.79
5948.19
5949.46
5955.24
5954.46
6055.22
6200.81
22375.7
8234.2
7593.05
7170.63
6889.94
6694.58
6552.62
6445.16
6361.74
6295.11
6241.25
6196.67
6159.66
6128.22
6101.64
6078.59
6058.84
6041.41
6026.36
6012.86
6001.14
5990.47
5981.17
5972.59
5965.17
5958.21
5952.12
5946.35
5941.42
5936.65
5932.53
5928.53
5925.13
5921.75
5918.98
5916.13
5913.74
5911.29
5909.4
5907.32
5905.63
5903.84
5902.63
5900.94
5899.69
5898.56
5897.77
5896.87
5896.27
5895.36
5894.79
5893.61
5893.33
5893.09
5892.83
5892.11
5892.48
5892.53
5892.53
5892.47
5892.11
5892.69
5892.69
5892.69
5892.8
5893.8
5893.81
5893.81
5894.41
5894.41
5895.41
5895.62
5896.99
5897.21
5898.86
5899.06
5900.14
5901.01
5902.4
5903.11
5904.68
5905.63
5907.28
5908.26
5910.15
5911.12
5913.28
5914.44
5917.03
5918.37
5921.74
5922.98
5928.73
5927.9
6031.23
6173.95
21039.2
8234.77
7591.48
7165.53
6881.45
6683.26
6539.03
6429.73
6344.83
6276.97
6222.09
6176.65
6138.91
6106.84
6079.72
6056.18
6036.03
6018.23
6002.85
5989.05
5977.08
5966.18
5956.67
5947.89
5940.3
5933.17
5926.95
5921.04
5915.99
5911.11
5906.88
5902.78
5899.3
5895.84
5892.99
5890.07
5887.62
5885.09
5883.15
5881.01
5879.28
5877.44
5876.19
5874.46
5873.17
5871.99
5871.16
5870.22
5869.6
5868.66
5868.08
5866.88
5866.56
5866.28
5866.01
5865.26
5865.58
5865.61
5865.61
5865.53
5865.15
5865.69
5865.69
5865.69
5865.76
5866.73
5866.73
5866.73
5867.31
5867.31
5868.29
5868.47
5869.82
5870.03
5871.65
5871.85
5872.93
5873.77
5875.16
5875.85
5877.41
5878.34
5879.98
5880.95
5882.82
5883.79
5885.92
5887.08
5889.64
5890.96
5894.31
5895.52
5901.24
5900.36
6005.98
6145.87
19803.4
8235.35
7589.91
7160.36
6872.79
6671.67
6525.08
6413.88
6327.42
6258.28
6202.34
6156
6117.49
6084.76
6057.07
6033.04
6012.45
5994.26
5978.55
5964.45
5952.2
5941.05
5931.32
5922.34
5914.57
5907.28
5900.9
5894.86
5889.68
5884.68
5880.34
5876.14
5872.56
5869.01
5866.09
5863.09
5860.57
5857.98
5855.98
5853.78
5852.01
5850.1
5848.8
5847.05
5845.71
5844.48
5843.62
5842.63
5841.99
5841.01
5840.41
5839.2
5838.84
5838.52
5838.23
5837.45
5837.73
5837.74
5837.73
5837.64
5837.22
5837.73
5837.73
5837.73
5837.75
5838.69
5838.7
5838.69
5839.25
5839.25
5840.21
5840.35
5841.69
5841.87
5843.47
5843.67
5844.75
5845.56
5846.94
5847.62
5849.15
5850.07
5851.7
5852.66
5854.51
5855.47
5857.58
5858.73
5861.26
5862.56
5865.88
5867.07
5872.76
5871.83
5979.42
6116.54
18663
8235.96
7588.35
7155.13
6863.96
6659.83
6510.78
6397.6
6309.53
6239.06
6182
6134.72
6095.42
6062
6033.71
6009.16
5988.12
5969.53
5953.46
5939.03
5926.5
5915.1
5905.14
5895.95
5887.99
5880.52
5873.98
5867.79
5862.48
5857.35
5852.91
5848.6
5844.93
5841.28
5838.27
5835.2
5832.61
5829.95
5827.88
5825.62
5823.8
5821.84
5820.49
5818.69
5817.32
5816.03
5815.13
5814.1
5813.42
5812.41
5811.79
5810.57
5810.16
5809.81
5809.5
5808.7
5808.92
5808.92
5808.89
5808.78
5808.34
5808.81
5808.8
5808.8
5808.78
5809.68
5809.69
5809.68
5810.22
5810.21
5811.15
5811.26
5812.58
5812.75
5814.31
5814.51
5815.59
5816.37
5817.75
5818.4
5819.92
5820.82
5822.44
5823.38
5825.22
5826.17
5828.26
5829.39
5831.9
5833.18
5836.47
5837.63
5843.29
5842.3
5951.49
6085.94
17612.3
8236.59
7586.81
7149.85
6854.99
6647.73
6496.15
6380.91
6291.16
6219.3
6161.08
6112.82
6072.69
6038.55
6009.65
5984.55
5963.03
5944.02
5927.58
5912.82
5899.99
5888.32
5878.12
5868.71
5860.55
5852.89
5846.2
5839.85
5834.4
5829.14
5824.59
5820.16
5816.39
5812.65
5809.55
5806.39
5803.73
5800.99
5798.86
5796.54
5794.66
5792.64
5791.24
5789.4
5787.98
5786.64
5785.7
5784.62
5783.91
5782.87
5782.23
5780.98
5780.53
5780.14
5779.81
5778.99
5779.15
5779.14
5779.09
5778.96
5778.49
5778.92
5778.91
5778.91
5778.84
5779.69
5779.71
5779.7
5780.21
5780.2
5781.11
5781.2
5782.5
5782.64
5784.18
5784.37
5785.45
5786.2
5787.57
5788.2
5789.7
5790.58
5792.19
5793.12
5794.94
5795.88
5797.94
5799.06
5801.54
5802.81
5806.06
5807.2
5812.82
5811.78
5922.13
6054.02
16645.6
8237.23
7585.3
7144.52
6845.88
6635.4
6481.19
6363.81
6272.32
6199.02
6139.6
6090.32
6049.32
6014.43
5984.88
5959.22
5937.2
5917.75
5900.92
5885.81
5872.67
5860.72
5850.27
5840.62
5832.26
5824.41
5817.55
5811.04
5805.44
5800.05
5795.37
5790.82
5786.95
5783.1
5779.91
5776.66
5773.93
5771.12
5768.91
5766.53
5764.59
5762.51
5761.05
5759.17
5757.71
5756.31
5755.32
5754.2
5753.45
5752.37
5751.71
5750.44
5749.95