/*--------------------------------*- C++ -*----------------------------------*\
| =========                 |                                                 |
| \\      /  F ield         | OpenFOAM: The Open Source CFD Toolbox           |
|  \\    /   O peration     | Version:  v2012                                 |
|   \\  /    A nd           | Website:  www.openfoam.com                      |
|    \\/     M anipulation  |                                                 |
\*---------------------------------------------------------------------------*/
FoamFile
{
    version     2.0;
    format      ascii;
    class       volVectorField;
    location    "16";
    object      wallShearStress;
}
// * * * * * * * * * * * * * * * * * * * * * * * * * * * * * * * * * * * * * //

dimensions      [0 2 -2 0 0 0 0];


internalField   uniform (0 0 0);

boundaryField
{
    inlet
    {
        type            calculated;
        value           uniform (0 0 0);
    }
    outlet
    {
        type            calculated;
        value           uniform (0 0 0);
    }
    topWall
    {
        type            calculated;
        value           nonuniform List<vector> 
545
(
(3.17433e-08 -2.23451e-08 0)
(3.17305e-08 -6.25529e-08 0)
(3.16734e-08 -1.04269e-07 0)
(3.16368e-08 -1.44771e-07 0)
(3.15895e-08 -1.83527e-07 0)
(3.15367e-08 -2.21036e-07 0)
(3.14783e-08 -2.5762e-07 0)
(3.14129e-08 -2.93263e-07 0)
(3.13415e-08 -3.27886e-07 0)
(3.12646e-08 -3.61486e-07 0)
(3.11828e-08 -3.94108e-07 0)
(3.10965e-08 -4.25789e-07 0)
(3.10062e-08 -4.56551e-07 0)
(3.09123e-08 -4.86413e-07 0)
(3.08151e-08 -5.15397e-07 0)
(3.07152e-08 -5.43525e-07 0)
(3.06128e-08 -5.70821e-07 0)
(3.05082e-08 -5.97309e-07 0)
(3.04018e-08 -6.23008e-07 0)
(3.02938e-08 -6.47941e-07 0)
(3.01846e-08 -6.72131e-07 0)
(3.00743e-08 -6.95596e-07 0)
(2.99632e-08 -7.18359e-07 0)
(2.98515e-08 -7.40439e-07 0)
(2.97394e-08 -7.61857e-07 0)
(2.96271e-08 -7.82631e-07 0)
(2.95147e-08 -8.02781e-07 0)
(2.94025e-08 -8.22325e-07 0)
(2.92905e-08 -8.41281e-07 0)
(2.91789e-08 -8.59667e-07 0)
(2.90677e-08 -8.775e-07 0)
(2.89572e-08 -8.94797e-07 0)
(2.88474e-08 -9.11573e-07 0)
(2.87384e-08 -9.27846e-07 0)
(2.86303e-08 -9.43629e-07 0)
(2.85231e-08 -9.58939e-07 0)
(2.8417e-08 -9.73789e-07 0)
(2.83119e-08 -9.88194e-07 0)
(2.8208e-08 -1.00217e-06 0)
(2.81052e-08 -1.01572e-06 0)
(2.80037e-08 -1.02887e-06 0)
(2.79035e-08 -1.04163e-06 0)
(2.78045e-08 -1.05401e-06 0)
(2.77069e-08 -1.06601e-06 0)
(2.76106e-08 -1.07766e-06 0)
(2.75156e-08 -1.08897e-06 0)
(2.74221e-08 -1.09994e-06 0)
(2.73299e-08 -1.11058e-06 0)
(2.72391e-08 -1.12091e-06 0)
(2.71497e-08 -1.13093e-06 0)
(2.70617e-08 -1.14065e-06 0)
(2.69751e-08 -1.15009e-06 0)
(2.68898e-08 -1.15925e-06 0)
(2.6806e-08 -1.16814e-06 0)
(2.67235e-08 -1.17677e-06 0)
(2.66424e-08 -1.18515e-06 0)
(2.65626e-08 -1.19328e-06 0)
(2.64842e-08 -1.20117e-06 0)
(2.64071e-08 -1.20884e-06 0)
(2.63313e-08 -1.21627e-06 0)
(2.62568e-08 -1.2235e-06 0)
(2.61836e-08 -1.23051e-06 0)
(2.61116e-08 -1.23732e-06 0)
(2.60408e-08 -1.24393e-06 0)
(2.59713e-08 -1.25034e-06 0)
(2.59029e-08 -1.25658e-06 0)
(2.58357e-08 -1.26263e-06 0)
(2.57696e-08 -1.26851e-06 0)
(2.57046e-08 -1.27422e-06 0)
(2.56405e-08 -1.27976e-06 0)
(2.55786e-08 -1.28515e-06 0)
(2.55129e-08 -1.29035e-06 0)
(2.54507e-08 -1.29538e-06 0)
(2.53976e-08 -1.30027e-06 0)
(2.53445e-08 -1.30507e-06 0)
(2.52915e-08 -1.30985e-06 0)
(2.52385e-08 -1.31461e-06 0)
(2.51856e-08 -1.31935e-06 0)
(2.51328e-08 -1.32404e-06 0)
(2.508e-08 -1.32871e-06 0)
(2.50272e-08 -1.33334e-06 0)
(2.49745e-08 -1.33795e-06 0)
(2.49219e-08 -1.34252e-06 0)
(2.48693e-08 -1.34706e-06 0)
(2.48168e-08 -1.35157e-06 0)
(2.47643e-08 -1.35605e-06 0)
(2.47119e-08 -1.36051e-06 0)
(2.46595e-08 -1.36493e-06 0)
(2.46073e-08 -1.36932e-06 0)
(2.45551e-08 -1.37368e-06 0)
(2.4503e-08 -1.37802e-06 0)
(2.44508e-08 -1.38232e-06 0)
(2.43992e-08 -1.3866e-06 0)
(2.43454e-08 -1.39084e-06 0)
(2.4301e-08 -1.39516e-06 0)
(2.42168e-08 -1.39916e-06 0)
(2.41261e-08 -1.40289e-06 0)
(2.40821e-08 -1.40654e-06 0)
(2.40403e-08 -1.40984e-06 0)
(2.39997e-08 -1.41314e-06 0)
(2.39589e-08 -1.41651e-06 0)
(2.3918e-08 -1.41991e-06 0)
(2.38769e-08 -1.42331e-06 0)
(2.38357e-08 -1.42669e-06 0)
(2.37942e-08 -1.43007e-06 0)
(2.37526e-08 -1.43347e-06 0)
(2.37109e-08 -1.43686e-06 0)
(2.36689e-08 -1.44025e-06 0)
(2.36267e-08 -1.44365e-06 0)
(2.35844e-08 -1.44705e-06 0)
(2.35419e-08 -1.45045e-06 0)
(2.34992e-08 -1.45385e-06 0)
(2.34563e-08 -1.45726e-06 0)
(2.34132e-08 -1.46066e-06 0)
(2.33699e-08 -1.46407e-06 0)
(2.33265e-08 -1.46748e-06 0)
(2.32828e-08 -1.47089e-06 0)
(2.3239e-08 -1.4743e-06 0)
(2.3195e-08 -1.47772e-06 0)
(2.31507e-08 -1.48113e-06 0)
(2.31063e-08 -1.48455e-06 0)
(2.30617e-08 -1.48797e-06 0)
(2.30169e-08 -1.49139e-06 0)
(2.29719e-08 -1.49481e-06 0)
(2.29268e-08 -1.49823e-06 0)
(2.28814e-08 -1.50166e-06 0)
(2.28358e-08 -1.50508e-06 0)
(2.27901e-08 -1.50851e-06 0)
(2.27441e-08 -1.51194e-06 0)
(2.2698e-08 -1.51537e-06 0)
(2.26516e-08 -1.5188e-06 0)
(2.26051e-08 -1.52223e-06 0)
(2.25583e-08 -1.52566e-06 0)
(2.25114e-08 -1.52909e-06 0)
(2.24642e-08 -1.53253e-06 0)
(2.24169e-08 -1.53596e-06 0)
(2.23693e-08 -1.5394e-06 0)
(2.23216e-08 -1.54284e-06 0)
(2.22737e-08 -1.54627e-06 0)
(2.22255e-08 -1.54971e-06 0)
(2.21772e-08 -1.55315e-06 0)
(2.21286e-08 -1.55659e-06 0)
(2.20799e-08 -1.56003e-06 0)
(2.20309e-08 -1.56347e-06 0)
(2.19818e-08 -1.56691e-06 0)
(2.19324e-08 -1.57035e-06 0)
(2.18829e-08 -1.57379e-06 0)
(2.18331e-08 -1.57723e-06 0)
(2.17832e-08 -1.58067e-06 0)
(2.1733e-08 -1.58412e-06 0)
(2.16826e-08 -1.58756e-06 0)
(2.16321e-08 -1.591e-06 0)
(2.15813e-08 -1.59444e-06 0)
(2.15303e-08 -1.59789e-06 0)
(2.14791e-08 -1.60133e-06 0)
(2.14277e-08 -1.60477e-06 0)
(2.13761e-08 -1.60821e-06 0)
(2.13243e-08 -1.61165e-06 0)
(2.12723e-08 -1.6151e-06 0)
(2.12201e-08 -1.61854e-06 0)
(2.11676e-08 -1.62198e-06 0)
(2.1115e-08 -1.62542e-06 0)
(2.10622e-08 -1.62886e-06 0)
(2.10091e-08 -1.6323e-06 0)
(2.09559e-08 -1.63574e-06 0)
(2.09024e-08 -1.63917e-06 0)
(2.08487e-08 -1.64261e-06 0)
(2.07948e-08 -1.64605e-06 0)
(2.07408e-08 -1.64948e-06 0)
(2.06865e-08 -1.65292e-06 0)
(2.0632e-08 -1.65635e-06 0)
(2.05773e-08 -1.65979e-06 0)
(2.05224e-08 -1.66322e-06 0)
(2.04672e-08 -1.66665e-06 0)
(2.04119e-08 -1.67008e-06 0)
(2.03564e-08 -1.67351e-06 0)
(2.03006e-08 -1.67693e-06 0)
(2.02447e-08 -1.68036e-06 0)
(2.01885e-08 -1.68378e-06 0)
(2.01321e-08 -1.68721e-06 0)
(2.00756e-08 -1.69063e-06 0)
(2.00188e-08 -1.69405e-06 0)
(1.99618e-08 -1.69747e-06 0)
(1.99046e-08 -1.70088e-06 0)
(1.98472e-08 -1.7043e-06 0)
(1.97896e-08 -1.70771e-06 0)
(1.97317e-08 -1.71112e-06 0)
(1.96737e-08 -1.71453e-06 0)
(1.96155e-08 -1.71794e-06 0)
(1.9557e-08 -1.72134e-06 0)
(1.94984e-08 -1.72474e-06 0)
(1.94395e-08 -1.72814e-06 0)
(1.93804e-08 -1.73154e-06 0)
(1.93212e-08 -1.73494e-06 0)
(1.92617e-08 -1.73833e-06 0)
(1.9202e-08 -1.74172e-06 0)
(1.91421e-08 -1.74511e-06 0)
(1.9082e-08 -1.74849e-06 0)
(1.90217e-08 -1.75188e-06 0)
(1.89612e-08 -1.75526e-06 0)
(1.89005e-08 -1.75863e-06 0)
(1.88396e-08 -1.76201e-06 0)
(1.87784e-08 -1.76538e-06 0)
(1.87171e-08 -1.76875e-06 0)
(1.86556e-08 -1.77211e-06 0)
(1.85938e-08 -1.77547e-06 0)
(1.85319e-08 -1.77883e-06 0)
(1.84697e-08 -1.78219e-06 0)
(1.84074e-08 -1.78554e-06 0)
(1.83448e-08 -1.78888e-06 0)
(1.82821e-08 -1.79223e-06 0)
(1.82191e-08 -1.79557e-06 0)
(1.81559e-08 -1.79891e-06 0)
(1.80926e-08 -1.80224e-06 0)
(1.8029e-08 -1.80557e-06 0)
(1.79652e-08 -1.8089e-06 0)
(1.79013e-08 -1.81222e-06 0)
(1.78371e-08 -1.81554e-06 0)
(1.77727e-08 -1.81885e-06 0)
(1.77081e-08 -1.82216e-06 0)
(1.76434e-08 -1.82546e-06 0)
(1.75784e-08 -1.82876e-06 0)
(1.75132e-08 -1.83206e-06 0)
(1.74478e-08 -1.83535e-06 0)
(1.73823e-08 -1.83864e-06 0)
(1.73165e-08 -1.84192e-06 0)
(1.72506e-08 -1.8452e-06 0)
(1.71844e-08 -1.84847e-06 0)
(1.71181e-08 -1.85174e-06 0)
(1.70515e-08 -1.855e-06 0)
(1.69848e-08 -1.85826e-06 0)
(1.69178e-08 -1.86151e-06 0)
(1.68507e-08 -1.86476e-06 0)
(1.67834e-08 -1.868e-06 0)
(1.67159e-08 -1.87124e-06 0)
(1.66482e-08 -1.87447e-06 0)
(1.65803e-08 -1.8777e-06 0)
(1.65122e-08 -1.88092e-06 0)
(1.64439e-08 -1.88413e-06 0)
(1.63755e-08 -1.88734e-06 0)
(1.63068e-08 -1.89054e-06 0)
(1.6238e-08 -1.89374e-06 0)
(1.61689e-08 -1.89693e-06 0)
(1.60997e-08 -1.90011e-06 0)
(1.60303e-08 -1.90329e-06 0)
(1.59608e-08 -1.90646e-06 0)
(1.5891e-08 -1.90963e-06 0)
(1.58211e-08 -1.91279e-06 0)
(1.5751e-08 -1.91594e-06 0)
(1.56807e-08 -1.91909e-06 0)
(1.56102e-08 -1.92223e-06 0)
(1.55395e-08 -1.92536e-06 0)
(1.54687e-08 -1.92848e-06 0)
(1.53977e-08 -1.9316e-06 0)
(1.53265e-08 -1.93471e-06 0)
(1.52551e-08 -1.93782e-06 0)
(1.51836e-08 -1.94092e-06 0)
(1.51119e-08 -1.94401e-06 0)
(1.504e-08 -1.94709e-06 0)
(1.4968e-08 -1.95016e-06 0)
(1.48957e-08 -1.95323e-06 0)
(1.48234e-08 -1.95629e-06 0)
(1.47508e-08 -1.95934e-06 0)
(1.46781e-08 -1.96239e-06 0)
(1.46052e-08 -1.96542e-06 0)
(1.45325e-08 -1.96846e-06 0)
(1.44581e-08 -1.97146e-06 0)
(1.43895e-08 -1.97459e-06 0)
(1.42954e-08 -1.9774e-06 0)
(1.41956e-08 -1.98015e-06 0)
(1.41274e-08 -1.98308e-06 0)
(1.40632e-08 -1.9857e-06 0)
(1.39996e-08 -1.98832e-06 0)
(1.39359e-08 -1.99101e-06 0)
(1.38713e-08 -1.99375e-06 0)
(1.3806e-08 -1.9965e-06 0)
(1.37399e-08 -1.99926e-06 0)
(1.3673e-08 -2.00203e-06 0)
(1.36054e-08 -2.00482e-06 0)
(1.3537e-08 -2.00763e-06 0)
(1.34678e-08 -2.01045e-06 0)
(1.33978e-08 -2.01329e-06 0)
(1.3327e-08 -2.01614e-06 0)
(1.32554e-08 -2.01901e-06 0)
(1.3183e-08 -2.0219e-06 0)
(1.31097e-08 -2.0248e-06 0)
(1.30357e-08 -2.02771e-06 0)
(1.29608e-08 -2.03064e-06 0)
(1.28851e-08 -2.03359e-06 0)
(1.28085e-08 -2.03655e-06 0)
(1.27311e-08 -2.03952e-06 0)
(1.26528e-08 -2.04251e-06 0)
(1.25736e-08 -2.04551e-06 0)
(1.24936e-08 -2.04853e-06 0)
(1.24127e-08 -2.05155e-06 0)
(1.2331e-08 -2.0546e-06 0)
(1.22484e-08 -2.05765e-06 0)
(1.21648e-08 -2.06072e-06 0)
(1.20804e-08 -2.06379e-06 0)
(1.19951e-08 -2.06688e-06 0)
(1.19089e-08 -2.06998e-06 0)
(1.18218e-08 -2.0731e-06 0)
(1.17338e-08 -2.07622e-06 0)
(1.16449e-08 -2.07935e-06 0)
(1.15551e-08 -2.08249e-06 0)
(1.14643e-08 -2.08564e-06 0)
(1.13726e-08 -2.08881e-06 0)
(1.128e-08 -2.09197e-06 0)
(1.11865e-08 -2.09515e-06 0)
(1.10921e-08 -2.09834e-06 0)
(1.09967e-08 -2.10153e-06 0)
(1.09004e-08 -2.10473e-06 0)
(1.08031e-08 -2.10793e-06 0)
(1.07049e-08 -2.11114e-06 0)
(1.06058e-08 -2.11436e-06 0)
(1.05057e-08 -2.11758e-06 0)
(1.04047e-08 -2.1208e-06 0)
(1.03027e-08 -2.12403e-06 0)
(1.01998e-08 -2.12726e-06 0)
(1.00959e-08 -2.13049e-06 0)
(9.99113e-09 -2.13373e-06 0)
(9.88538e-09 -2.13696e-06 0)
(9.77867e-09 -2.1402e-06 0)
(9.67102e-09 -2.14343e-06 0)
(9.56243e-09 -2.14666e-06 0)
(9.45289e-09 -2.14989e-06 0)
(9.34241e-09 -2.15312e-06 0)
(9.23099e-09 -2.15635e-06 0)
(9.11863e-09 -2.15957e-06 0)
(9.00534e-09 -2.16278e-06 0)
(8.89111e-09 -2.16599e-06 0)
(8.77596e-09 -2.16919e-06 0)
(8.65988e-09 -2.17239e-06 0)
(8.54288e-09 -2.17557e-06 0)
(8.42497e-09 -2.17875e-06 0)
(8.30615e-09 -2.18192e-06 0)
(8.18643e-09 -2.18507e-06 0)
(8.0658e-09 -2.18822e-06 0)
(7.94429e-09 -2.19135e-06 0)
(7.8219e-09 -2.19446e-06 0)
(7.69863e-09 -2.19756e-06 0)
(7.57449e-09 -2.20064e-06 0)
(7.4495e-09 -2.20371e-06 0)
(7.32366e-09 -2.20676e-06 0)
(7.19699e-09 -2.20979e-06 0)
(7.06949e-09 -2.21279e-06 0)
(6.94117e-09 -2.21578e-06 0)
(6.81206e-09 -2.21874e-06 0)
(6.68215e-09 -2.22168e-06 0)
(6.55147e-09 -2.22459e-06 0)
(6.42003e-09 -2.22748e-06 0)
(6.28784e-09 -2.23033e-06 0)
(6.15492e-09 -2.23316e-06 0)
(6.02129e-09 -2.23596e-06 0)
(5.88696e-09 -2.23872e-06 0)
(5.75195e-09 -2.24146e-06 0)
(5.61628e-09 -2.24415e-06 0)
(5.47997e-09 -2.24681e-06 0)
(5.34304e-09 -2.24944e-06 0)
(5.20551e-09 -2.25202e-06 0)
(5.0674e-09 -2.25457e-06 0)
(4.92874e-09 -2.25707e-06 0)
(4.78954e-09 -2.25953e-06 0)
(4.64984e-09 -2.26194e-06 0)
(4.50965e-09 -2.26431e-06 0)
(4.36901e-09 -2.26663e-06 0)
(4.22794e-09 -2.2689e-06 0)
(4.08647e-09 -2.27112e-06 0)
(3.94462e-09 -2.27329e-06 0)
(3.80243e-09 -2.2754e-06 0)
(3.65993e-09 -2.27745e-06 0)
(3.51715e-09 -2.27945e-06 0)
(3.37411e-09 -2.28139e-06 0)
(3.23086e-09 -2.28327e-06 0)
(3.08743e-09 -2.28509e-06 0)
(2.94385e-09 -2.28684e-06 0)
(2.80015e-09 -2.28853e-06 0)
(2.65638e-09 -2.29015e-06 0)
(2.51257e-09 -2.2917e-06 0)
(2.36876e-09 -2.29318e-06 0)
(2.22499e-09 -2.29458e-06 0)
(2.08129e-09 -2.29592e-06 0)
(1.93771e-09 -2.29717e-06 0)
(1.79429e-09 -2.29835e-06 0)
(1.65107e-09 -2.29945e-06 0)
(1.5081e-09 -2.30047e-06 0)
(1.36541e-09 -2.3014e-06 0)
(1.22305e-09 -2.30225e-06 0)
(1.08106e-09 -2.30302e-06 0)
(9.39498e-10 -2.30369e-06 0)
(7.98397e-10 -2.30428e-06 0)
(6.57808e-10 -2.30478e-06 0)
(5.17776e-10 -2.30518e-06 0)
(3.78349e-10 -2.30549e-06 0)
(2.39574e-10 -2.3057e-06 0)
(1.015e-10 -2.30581e-06 0)
(-3.58251e-11 -2.30582e-06 0)
(-1.72352e-10 -2.30573e-06 0)
(-3.08031e-10 -2.30554e-06 0)
(-4.42813e-10 -2.30525e-06 0)
(-5.76646e-10 -2.30485e-06 0)
(-7.09479e-10 -2.30434e-06 0)
(-8.4126e-10 -2.30372e-06 0)
(-9.71938e-10 -2.30299e-06 0)
(-1.10146e-09 -2.30215e-06 0)
(-1.22977e-09 -2.3012e-06 0)
(-1.35681e-09 -2.30013e-06 0)
(-1.48254e-09 -2.29895e-06 0)
(-1.60689e-09 -2.29764e-06 0)
(-1.72981e-09 -2.29622e-06 0)
(-1.85124e-09 -2.29468e-06 0)
(-1.97112e-09 -2.29302e-06 0)
(-2.0894e-09 -2.29124e-06 0)
(-2.20602e-09 -2.28934e-06 0)
(-2.32092e-09 -2.28731e-06 0)
(-2.43404e-09 -2.28515e-06 0)
(-2.54532e-09 -2.28287e-06 0)
(-2.6547e-09 -2.28047e-06 0)
(-2.76212e-09 -2.27793e-06 0)
(-2.86753e-09 -2.27527e-06 0)
(-2.97087e-09 -2.27248e-06 0)
(-3.07209e-09 -2.26956e-06 0)
(-3.17113e-09 -2.26652e-06 0)
(-3.26794e-09 -2.26334e-06 0)
(-3.36248e-09 -2.26004e-06 0)
(-3.4547e-09 -2.2566e-06 0)
(-3.54456e-09 -2.25304e-06 0)
(-3.63201e-09 -2.24934e-06 0)
(-3.71704e-09 -2.24552e-06 0)
(-3.7996e-09 -2.24156e-06 0)
(-3.87966e-09 -2.23748e-06 0)
(-3.9572e-09 -2.23327e-06 0)
(-4.0322e-09 -2.22893e-06 0)
(-4.10463e-09 -2.22447e-06 0)
(-4.17448e-09 -2.21987e-06 0)
(-4.24173e-09 -2.21515e-06 0)
(-4.30637e-09 -2.21031e-06 0)
(-4.36837e-09 -2.20534e-06 0)
(-4.42772e-09 -2.20025e-06 0)
(-4.48442e-09 -2.19503e-06 0)
(-4.53844e-09 -2.18969e-06 0)
(-4.58976e-09 -2.18423e-06 0)
(-4.63837e-09 -2.17866e-06 0)
(-4.68424e-09 -2.17296e-06 0)
(-4.72733e-09 -2.16714e-06 0)
(-4.76762e-09 -2.16122e-06 0)
(-4.80516e-09 -2.15517e-06 0)
(-4.83893e-09 -2.14905e-06 0)
(-4.87103e-09 -2.14259e-06 0)
(-4.8904e-09 -2.13648e-06 0)
(-4.91027e-09 -2.12945e-06 0)
(-4.93814e-09 -2.12112e-06 0)
(-4.95999e-09 -2.11317e-06 0)
(-4.98023e-09 -2.1052e-06 0)
(-4.99672e-09 -2.09713e-06 0)
(-5.00931e-09 -2.089e-06 0)
(-5.01838e-09 -2.08087e-06 0)
(-5.02399e-09 -2.07274e-06 0)
(-5.02623e-09 -2.0646e-06 0)
(-5.02523e-09 -2.05646e-06 0)
(-5.0211e-09 -2.04832e-06 0)
(-5.01397e-09 -2.04019e-06 0)
(-5.00397e-09 -2.03208e-06 0)
(-4.9912e-09 -2.02398e-06 0)
(-4.9758e-09 -2.01591e-06 0)
(-4.95787e-09 -2.00786e-06 0)
(-4.93754e-09 -1.99985e-06 0)
(-4.9149e-09 -1.99187e-06 0)
(-4.89005e-09 -1.98393e-06 0)
(-4.8631e-09 -1.97603e-06 0)
(-4.83414e-09 -1.96817e-06 0)
(-4.80324e-09 -1.96037e-06 0)
(-4.77048e-09 -1.95261e-06 0)
(-4.73595e-09 -1.94491e-06 0)
(-4.69972e-09 -1.93727e-06 0)
(-4.66184e-09 -1.92969e-06 0)
(-4.62239e-09 -1.92217e-06 0)
(-4.58142e-09 -1.91471e-06 0)
(-4.53898e-09 -1.90733e-06 0)
(-4.49514e-09 -1.90001e-06 0)
(-4.44994e-09 -1.89276e-06 0)
(-4.40344e-09 -1.88559e-06 0)
(-4.35567e-09 -1.8785e-06 0)
(-4.30669e-09 -1.87148e-06 0)
(-4.25654e-09 -1.86454e-06 0)
(-4.20527e-09 -1.85769e-06 0)
(-4.15291e-09 -1.85092e-06 0)
(-4.09951e-09 -1.84424e-06 0)
(-4.04511e-09 -1.83764e-06 0)
(-3.98975e-09 -1.83113e-06 0)
(-3.93347e-09 -1.82472e-06 0)
(-3.87631e-09 -1.81839e-06 0)
(-3.8183e-09 -1.81216e-06 0)
(-3.75947e-09 -1.80602e-06 0)
(-3.69986e-09 -1.79998e-06 0)
(-3.63951e-09 -1.79404e-06 0)
(-3.57843e-09 -1.78819e-06 0)
(-3.51667e-09 -1.78245e-06 0)
(-3.45423e-09 -1.7768e-06 0)
(-3.39116e-09 -1.77126e-06 0)
(-3.32748e-09 -1.76582e-06 0)
(-3.26319e-09 -1.76048e-06 0)
(-3.19833e-09 -1.75525e-06 0)
(-3.13292e-09 -1.75013e-06 0)
(-3.06696e-09 -1.74511e-06 0)
(-3.00048e-09 -1.74019e-06 0)
(-2.93349e-09 -1.73539e-06 0)
(-2.86601e-09 -1.73069e-06 0)
(-2.79804e-09 -1.72611e-06 0)
(-2.7296e-09 -1.72163e-06 0)
(-2.66071e-09 -1.71727e-06 0)
(-2.59137e-09 -1.71302e-06 0)
(-2.52159e-09 -1.70887e-06 0)
(-2.45139e-09 -1.70485e-06 0)
(-2.38078e-09 -1.70094e-06 0)
(-2.30977e-09 -1.69714e-06 0)
(-2.23836e-09 -1.69345e-06 0)
(-2.16657e-09 -1.68989e-06 0)
(-2.09441e-09 -1.68644e-06 0)
(-2.02189e-09 -1.6831e-06 0)
(-1.94901e-09 -1.67989e-06 0)
(-1.87578e-09 -1.67679e-06 0)
(-1.80221e-09 -1.67381e-06 0)
(-1.72831e-09 -1.67095e-06 0)
(-1.65407e-09 -1.66821e-06 0)
(-1.5795e-09 -1.66559e-06 0)
(-1.50459e-09 -1.66309e-06 0)
(-1.42934e-09 -1.66071e-06 0)
(-1.35375e-09 -1.65845e-06 0)
(-1.2778e-09 -1.65632e-06 0)
(-1.2015e-09 -1.6543e-06 0)
(-1.12483e-09 -1.65242e-06 0)
(-1.0478e-09 -1.65065e-06 0)
(-9.70437e-10 -1.64901e-06 0)
(-8.92803e-10 -1.6475e-06 0)
(-8.15017e-10 -1.64612e-06 0)
(-7.37256e-10 -1.64483e-06 0)
(-6.59848e-10 -1.64381e-06 0)
(-5.83083e-10 -1.64242e-06 0)
(-5.07708e-10 -1.64278e-06 0)
(-4.32746e-10 -1.63775e-06 0)
(-3.62038e-10 -1.65042e-06 0)
(-2.76973e-10 -1.60052e-06 0)
(-2.42773e-10 -1.73153e-06 0)
(-1.30354e-10 -1.51201e-06 0)
)
;
    }
    bottomWall
    {
        type            calculated;
        value           nonuniform List<vector> 
449
(
(-48.5905 -0.964905 0)
(-19.7765 -0.00516056 0)
(-14.3672 -0.00113436 0)
(-12.0622 -0.000543208 0)
(-10.6669 -0.000346443 0)
(-9.69663 -0.000245289 0)
(-8.98814 -0.000174625 0)
(-8.49874 -0.0001044 0)
(-8.27092 -1.14725e-05 0)
(-8.42221 0.000166909 0)
(-9.4291 0.00032248 0)
(-10.6557 0.000299168 0)
(-11.5016 0.000189264 0)
(-11.9703 0.000102963 0)
(-12.219 5.39657e-05 0)
(-12.3474 2.57977e-05 0)
(-12.3997 7.39924e-06 0)
(-12.3994 -5.17722e-06 0)
(-12.3633 -1.32049e-05 0)
(-12.3063 -1.8145e-05 0)
(-12.235 -2.11408e-05 0)
(-12.1564 -2.25886e-05 0)
(-12.0745 -2.31127e-05 0)
(-11.9918 -2.30867e-05 0)
(-11.9097 -2.27746e-05 0)
(-11.8288 -2.23061e-05 0)
(-11.7496 -2.17293e-05 0)
(-11.6724 -2.11103e-05 0)
(-11.5973 -2.04912e-05 0)
(-11.5241 -1.98898e-05 0)
(-11.453 -1.93133e-05 0)
(-11.3837 -1.87639e-05 0)
(-11.3162 -1.8255e-05 0)
(-11.2502 -1.7781e-05 0)
(-11.1859 -1.73184e-05 0)
(-11.123 -1.68591e-05 0)
(-11.0617 -1.64198e-05 0)
(-11.0018 -1.59942e-05 0)
(-10.9434 -1.55886e-05 0)
(-10.8862 -1.51933e-05 0)
(-10.8305 -1.48146e-05 0)
(-10.7758 -1.44445e-05 0)
(-10.7226 -1.4088e-05 0)
(-10.6704 -1.37465e-05 0)
(-10.6195 -1.34253e-05 0)
(-10.5694 -1.31117e-05 0)
(-10.5206 -1.2798e-05 0)
(-10.4728 -1.24942e-05 0)
(-10.4261 -1.22014e-05 0)
(-10.3802 -1.19188e-05 0)
(-10.3354 -1.16418e-05 0)
(-10.2915 -1.13739e-05 0)
(-10.2485 -1.11128e-05 0)
(-10.2064 -1.08581e-05 0)
(-10.1652 -1.06113e-05 0)
(-10.1248 -1.0371e-05 0)
(-10.0853 -1.01377e-05 0)
(-10.0464 -9.91207e-06 0)
(-10.0085 -9.69151e-06 0)
(-9.9712 -9.47913e-06 0)
(-9.93475 -9.27633e-06 0)
(-9.89886 -9.08309e-06 0)
(-9.86375 -8.88911e-06 0)
(-9.82922 -8.70002e-06 0)
(-9.79544 -8.51302e-06 0)
(-9.76223 -8.33544e-06 0)
(-9.72969 -8.15956e-06 0)
(-9.69772 -7.99205e-06 0)
(-9.66636 -7.82708e-06 0)
(-9.63555 -7.6686e-06 0)
(-9.60531 -7.51372e-06 0)
(-9.57559 -7.36437e-06 0)
(-9.5464 -7.21791e-06 0)
(-9.51772 -7.07692e-06 0)
(-9.48954 -6.93846e-06 0)
(-9.46184 -6.80447e-06 0)
(-9.43461 -6.67458e-06 0)
(-9.40783 -6.54672e-06 0)
(-9.38151 -6.4247e-06 0)
(-9.35561 -6.30351e-06 0)
(-9.33015 -6.18847e-06 0)
(-9.30506 -6.07341e-06 0)
(-9.28043 -5.96465e-06 0)
(-9.25612 -5.8561e-06 0)
(-9.23227 -5.75171e-06 0)
(-9.20871 -5.64964e-06 0)
(-9.18559 -5.55364e-06 0)
(-9.16272 -5.46106e-06 0)
(-9.14026 -5.3652e-06 0)
(-9.11808 -5.27501e-06 0)
(-9.09627 -5.18257e-06 0)
(-9.07475 -5.09769e-06 0)
(-9.05356 -5.01111e-06 0)
(-9.03267 -4.92832e-06 0)
(-9.01207 -4.84697e-06 0)
(-8.99177 -4.76836e-06 0)
(-8.97174 -4.69101e-06 0)
(-8.95201 -4.61508e-06 0)
(-8.93253 -4.54091e-06 0)
(-8.91333 -4.46976e-06 0)
(-8.89437 -4.39812e-06 0)
(-8.8757 -4.32893e-06 0)
(-8.85725 -4.26271e-06 0)
(-8.83906 -4.19488e-06 0)
(-8.8211 -4.13159e-06 0)
(-8.80338 -4.06701e-06 0)
(-8.78589 -4.00669e-06 0)
(-8.76861 -3.9466e-06 0)
(-8.75157 -3.88815e-06 0)
(-8.73471 -3.83067e-06 0)
(-8.7181 -3.77455e-06 0)
(-8.70165 -3.71945e-06 0)
(-8.68544 -3.66446e-06 0)
(-8.66941 -3.6111e-06 0)
(-8.65359 -3.55996e-06 0)
(-8.63794 -3.50869e-06 0)
(-8.6225 -3.45886e-06 0)
(-8.60722 -3.41144e-06 0)
(-8.59213 -3.36244e-06 0)
(-8.57721 -3.31414e-06 0)
(-8.56249 -3.26776e-06 0)
(-8.54792 -3.22192e-06 0)
(-8.53354 -3.17668e-06 0)
(-8.5193 -3.13389e-06 0)
(-8.50525 -3.09125e-06 0)
(-8.49133 -3.04844e-06 0)
(-8.4776 -3.00704e-06 0)
(-8.46399 -2.96702e-06 0)
(-8.45056 -2.92897e-06 0)
(-8.43724 -2.89151e-06 0)
(-8.42409 -2.85312e-06 0)
(-8.41106 -2.81781e-06 0)
(-8.39817 -2.77975e-06 0)
(-8.38543 -2.7443e-06 0)
(-8.37281 -2.70729e-06 0)
(-8.36036 -2.67218e-06 0)
(-8.348 -2.63609e-06 0)
(-8.33582 -2.6028e-06 0)
(-8.32372 -2.56808e-06 0)
(-8.31182 -2.53698e-06 0)
(-8.29995 -2.50408e-06 0)
(-8.2883 -2.47273e-06 0)
(-8.27667 -2.44284e-06 0)
(-8.26524 -2.41199e-06 0)
(-8.25385 -2.38375e-06 0)
(-8.24264 -2.35516e-06 0)
(-8.23147 -2.3291e-06 0)
(-8.22045 -2.30112e-06 0)
(-8.20949 -2.27488e-06 0)
(-8.19868 -2.24675e-06 0)
(-8.18794 -2.22172e-06 0)
(-8.17731 -2.19664e-06 0)
(-8.16676 -2.17169e-06 0)
(-8.15633 -2.14706e-06 0)
(-8.14597 -2.12214e-06 0)
(-8.13573 -2.09664e-06 0)
(-8.12557 -2.06948e-06 0)
(-8.11555 -2.04299e-06 0)
(-8.1056 -2.01743e-06 0)
(-8.09578 -1.99316e-06 0)
(-8.08603 -1.96912e-06 0)
(-8.0764 -1.94764e-06 0)
(-8.06682 -1.9254e-06 0)
(-8.05736 -1.90255e-06 0)
(-8.04796 -1.88298e-06 0)
(-8.03865 -1.85944e-06 0)
(-8.02944 -1.83598e-06 0)
(-8.02033 -1.81334e-06 0)
(-8.0113 -1.79291e-06 0)
(-8.00235 -1.77222e-06 0)
(-7.99349 -1.7535e-06 0)
(-7.98468 -1.73786e-06 0)
(-7.97594 -1.72038e-06 0)
(-7.96775 -1.71025e-06 0)
(-7.96 -1.70272e-06 0)
(-7.95223 -1.68826e-06 0)
(-7.94444 -1.67583e-06 0)
(-7.93662 -1.66103e-06 0)
(-7.92881 -1.64359e-06 0)
(-7.92098 -1.62637e-06 0)
(-7.91316 -1.60688e-06 0)
(-7.90536 -1.58824e-06 0)
(-7.89755 -1.57208e-06 0)
(-7.88974 -1.55444e-06 0)
(-7.88194 -1.53632e-06 0)
(-7.87414 -1.51714e-06 0)
(-7.86637 -1.49456e-06 0)
(-7.85864 -1.47234e-06 0)
(-7.85093 -1.4519e-06 0)
(-7.84325 -1.43008e-06 0)
(-7.83562 -1.41029e-06 0)
(-7.82799 -1.39137e-06 0)
(-7.8204 -1.37153e-06 0)
(-7.81282 -1.35332e-06 0)
(-7.80527 -1.33627e-06 0)
(-7.79772 -1.31774e-06 0)
(-7.79021 -1.30103e-06 0)
(-7.78269 -1.28469e-06 0)
(-7.77522 -1.26755e-06 0)
(-7.76774 -1.25217e-06 0)
(-7.76028 -1.23717e-06 0)
(-7.75282 -1.22146e-06 0)
(-7.74539 -1.20769e-06 0)
(-7.73794 -1.19328e-06 0)
(-7.73053 -1.17846e-06 0)
(-7.7231 -1.16501e-06 0)
(-7.7157 -1.14998e-06 0)
(-7.7083 -1.13766e-06 0)
(-7.7009 -1.12283e-06 0)
(-7.69354 -1.10958e-06 0)
(-7.68615 -1.09885e-06 0)
(-7.67877 -1.08578e-06 0)
(-7.6714 -1.07242e-06 0)
(-7.66404 -1.0606e-06 0)
(-7.65668 -1.04231e-06 0)
(-7.64942 -1.02776e-06 0)
(-7.64211 -1.01432e-06 0)
(-7.63488 -9.97868e-07 0)
(-7.62765 -9.88867e-07 0)
(-7.6204 -9.76726e-07 0)
(-7.61319 -9.64241e-07 0)
(-7.60597 -9.49949e-07 0)
(-7.59881 -9.35437e-07 0)
(-7.59166 -9.21888e-07 0)
(-7.58456 -9.05632e-07 0)
(-7.57751 -8.89065e-07 0)
(-7.57052 -8.73527e-07 0)
(-7.56357 -8.56882e-07 0)
(-7.5567 -8.44109e-07 0)
(-7.54981 -8.32708e-07 0)
(-7.54298 -8.18282e-07 0)
(-7.53617 -8.072e-07 0)
(-7.52938 -7.96411e-07 0)
(-7.52261 -7.85622e-07 0)
(-7.51586 -7.76034e-07 0)
(-7.5091 -7.67188e-07 0)
(-7.50236 -7.52701e-07 0)
(-7.49572 -7.41781e-07 0)
(-7.48903 -7.2827e-07 0)
(-7.48249 -7.13749e-07 0)
(-7.47592 -7.05874e-07 0)
(-7.46939 -6.94188e-07 0)
(-7.46289 -6.81788e-07 0)
(-7.45646 -6.69615e-07 0)
(-7.45006 -6.58415e-07 0)
(-7.4437 -6.44682e-07 0)
(-7.43743 -6.33172e-07 0)
(-7.43117 -6.21956e-07 0)
(-7.42499 -6.11378e-07 0)
(-7.4188 -6.00345e-07 0)
(-7.41271 -5.89902e-07 0)
(-7.40661 -5.82e-07 0)
(-7.40055 -5.70279e-07 0)
(-7.39457 -5.61533e-07 0)
(-7.38857 -5.53256e-07 0)
(-7.38263 -5.43622e-07 0)
(-7.37671 -5.31424e-07 0)
(-7.37091 -5.20301e-07 0)
(-7.36512 -5.11264e-07 0)
(-7.3594 -5.0107e-07 0)
(-7.35371 -4.95445e-07 0)
(-7.34799 -4.88305e-07 0)
(-7.34235 -4.8335e-07 0)
(-7.33662 -4.79191e-07 0)
(-7.33095 -4.68982e-07 0)
(-7.32534 -4.60666e-07 0)
(-7.31975 -4.53859e-07 0)
(-7.31419 -4.44951e-07 0)
(-7.3087 -4.38484e-07 0)
(-7.30319 -4.32585e-07 0)
(-7.29773 -4.24866e-07 0)
(-7.29229 -4.179e-07 0)
(-7.28689 -4.07408e-07 0)
(-7.28162 -3.95325e-07 0)
(-7.27643 -3.87453e-07 0)
(-7.27125 -3.83232e-07 0)
(-7.26606 -3.75194e-07 0)
(-7.26099 -3.69839e-07 0)
(-7.25583 -3.68815e-07 0)
(-7.25067 -3.61072e-07 0)
(-7.24562 -3.54865e-07 0)
(-7.24053 -3.52481e-07 0)
(-7.23544 -3.45973e-07 0)
(-7.23043 -3.41849e-07 0)
(-7.22535 -3.37617e-07 0)
(-7.22036 -3.29643e-07 0)
(-7.21541 -3.25656e-07 0)
(-7.21043 -3.21267e-07 0)
(-7.20551 -3.14423e-07 0)
(-7.20063 -3.116e-07 0)
(-7.19569 -3.05285e-07 0)
(-7.19091 -2.99742e-07 0)
(-7.18604 -2.9644e-07 0)
(-7.18127 -2.89929e-07 0)
(-7.17651 -2.84805e-07 0)
(-7.1718 -2.8223e-07 0)
(-7.16702 -2.79593e-07 0)
(-7.1623 -2.74767e-07 0)
(-7.15758 -2.7325e-07 0)
(-7.15281 -2.7189e-07 0)
(-7.14803 -2.66686e-07 0)
(-7.14334 -2.62578e-07 0)
(-7.13861 -2.59487e-07 0)
(-7.13393 -2.54897e-07 0)
(-7.12927 -2.52675e-07 0)
(-7.12457 -2.4859e-07 0)
(-7.11996 -2.46414e-07 0)
(-7.11523 -2.46922e-07 0)
(-7.1105 -2.41693e-07 0)
(-7.10588 -2.36183e-07 0)
(-7.10126 -2.33044e-07 0)
(-7.09666 -2.27354e-07 0)
(-7.09217 -2.23912e-07 0)
(-7.08761 -2.22794e-07 0)
(-7.08307 -2.18355e-07 0)
(-7.07859 -2.16022e-07 0)
(-7.07404 -2.14606e-07 0)
(-7.06953 -2.09173e-07 0)
(-7.06512 -2.05075e-07 0)
(-7.06069 -2.02417e-07 0)
(-7.0563 -1.97461e-07 0)
(-7.05199 -1.94761e-07 0)
(-7.04762 -1.93511e-07 0)
(-7.04327 -1.89705e-07 0)
(-7.03898 -1.87673e-07 0)
(-7.03463 -1.86686e-07 0)
(-7.0303 -1.82966e-07 0)
(-7.02603 -1.80935e-07 0)
(-7.02169 -1.79738e-07 0)
(-7.01739 -1.76134e-07 0)
(-7.01314 -1.74089e-07 0)
(-7.00884 -1.72706e-07 0)
(-7.00456 -1.68929e-07 0)
(-7.00036 -1.67412e-07 0)
(-6.99606 -1.65737e-07 0)
(-6.99186 -1.62441e-07 0)
(-6.98764 -1.60774e-07 0)
(-6.98343 -1.59435e-07 0)
(-6.97919 -1.56522e-07 0)
(-6.97505 -1.54403e-07 0)
(-6.97083 -1.52129e-07 0)
(-6.96672 -1.49911e-07 0)
(-6.96254 -1.48933e-07 0)
(-6.95839 -1.475e-07 0)
(-6.9542 -1.48214e-07 0)
(-6.94991 -1.48633e-07 0)
(-6.9456 -1.43695e-07 0)
(-6.94152 -1.40698e-07 0)
(-6.93729 -1.36966e-07 0)
(-6.93335 -1.32456e-07 0)
(-6.92931 -1.30398e-07 0)
(-6.9254 -1.27445e-07 0)
(-6.92146 -1.26946e-07 0)
(-6.9175 -1.23036e-07 0)
(-6.91329 -1.18187e-07 0)
(-6.90874 -1.14227e-07 0)
(-6.90439 -1.12187e-07 0)
(-6.9 -1.10714e-07 0)
(-6.89577 -1.10233e-07 0)
(-6.89141 -1.11522e-07 0)
(-6.88707 -1.11273e-07 0)
(-6.88274 -1.10263e-07 0)
(-6.87848 -1.09382e-07 0)
(-6.87421 -1.07198e-07 0)
(-6.87013 -1.03342e-07 0)
(-6.86617 -1.01174e-07 0)
(-6.86225 -1.00288e-07 0)
(-6.85835 -9.76189e-08 0)
(-6.85464 -9.68079e-08 0)
(-6.85081 -9.708e-08 0)
(-6.84707 -9.52757e-08 0)
(-6.84338 -9.46859e-08 0)
(-6.83969 -9.21829e-08 0)
(-6.8362 -9.04687e-08 0)
(-6.83265 -8.90711e-08 0)
(-6.82926 -8.671e-08 0)
(-6.8259 -8.57526e-08 0)
(-6.82259 -8.45547e-08 0)
(-6.81931 -8.36078e-08 0)
(-6.81608 -8.34348e-08 0)
(-6.81281 -8.27616e-08 0)
(-6.80963 -7.97099e-08 0)
(-6.80661 -7.90793e-08 0)
(-6.80347 -7.80298e-08 0)
(-6.80053 -7.63062e-08 0)
(-6.79752 -7.60354e-08 0)
(-6.79461 -7.51893e-08 0)
(-6.79167 -7.53297e-08 0)
(-6.78874 -7.33098e-08 0)
(-6.78596 -7.35193e-08 0)
(-6.78301 -7.24115e-08 0)
(-6.78032 -7.02808e-08 0)
(-6.77754 -7.00818e-08 0)
(-6.77486 -6.84226e-08 0)
(-6.77221 -6.83915e-08 0)
(-6.76954 -6.61899e-08 0)
(-6.76706 -6.49846e-08 0)
(-6.76447 -6.45295e-08 0)
(-6.76203 -6.32129e-08 0)
(-6.75955 -6.426e-08 0)
(-6.75702 -6.43873e-08 0)
(-6.75453 -6.61476e-08 0)
(-6.75187 -6.63479e-08 0)
(-6.74936 -6.48229e-08 0)
(-6.74682 -6.5147e-08 0)
(-6.74429 -6.33273e-08 0)
(-6.74188 -6.43648e-08 0)
(-6.73927 -6.39912e-08 0)
(-6.7369 -6.19627e-08 0)
(-6.73445 -6.13115e-08 0)
(-6.73213 -6.05417e-08 0)
(-6.72973 -5.97392e-08 0)
(-6.72748 -5.74531e-08 0)
(-6.72526 -5.77217e-08 0)
(-6.72298 -5.70191e-08 0)
(-6.72082 -5.48277e-08 0)
(-6.71871 -5.57698e-08 0)
(-6.71648 -5.63397e-08 0)
(-6.71433 -5.50764e-08 0)
(-6.71219 -5.46028e-08 0)
(-6.71008 -5.3142e-08 0)
(-6.70806 -5.2003e-08 0)
(-6.70603 -5.2497e-08 0)
(-6.70396 -5.18353e-08 0)
(-6.70199 -5.08107e-08 0)
(-6.70001 -5.20018e-08 0)
(-6.69794 -5.07327e-08 0)
(-6.69606 -5.103e-08 0)
(-6.69397 -5.11985e-08 0)
(-6.69207 -5.03872e-08 0)
(-6.69004 -5.0729e-08 0)
(-6.68813 -4.89011e-08 0)
(-6.68624 -4.83478e-08 0)
(-6.68437 -4.66118e-08 0)
(-6.68262 -4.50868e-08 0)
(-6.68086 -4.66883e-08 0)
(-6.67899 -4.7279e-08 0)
(-6.67718 -4.68141e-08 0)
(-6.67534 -4.76887e-08 0)
(-6.67347 -4.66875e-08 0)
(-6.67171 -4.51724e-08 0)
(-6.66995 -4.64141e-08 0)
(-6.66809 -4.38392e-08 0)
(-6.66655 -4.5263e-08 0)
(-6.66457 -3.98883e-08 0)
(-6.66345 -5.23688e-08 0)
(-6.66046 -2.66943e-08 0)
(-6.66145 -4.03237e-08 0)
(-6.65719 -5.69761e-08 0)
)
;
    }
    symmetry
    {
        type            symmetryPlane;
    }
    frontAndBack
    {
        type            empty;
    }
}


// ************************************************************************* //
