/*--------------------------------*- C++ -*----------------------------------*\
| =========                 |                                                 |
| \\      /  F ield         | OpenFOAM: The Open Source CFD Toolbox           |
|  \\    /   O peration     | Version:  v2012                                 |
|   \\  /    A nd           | Website:  www.openfoam.com                      |
|    \\/     M anipulation  |                                                 |
\*---------------------------------------------------------------------------*/
FoamFile
{
    version     2.0;
    format      ascii;
    class       volVectorField;
    location    "35";
    object      wallShearStress;
}
// * * * * * * * * * * * * * * * * * * * * * * * * * * * * * * * * * * * * * //

dimensions      [0 2 -2 0 0 0 0];


internalField   uniform (0 0 0);

boundaryField
{
    inlet
    {
        type            calculated;
        value           uniform (0 0 0);
    }
    outlet
    {
        type            calculated;
        value           uniform (0 0 0);
    }
    topWall
    {
        type            calculated;
        value           nonuniform List<vector> 
545
(
(1.48648e-08 -1.04635e-08 0)
(1.4858e-08 -2.92731e-08 0)
(1.48442e-08 -4.88306e-08 0)
(1.48237e-08 -6.78145e-08 0)
(1.47975e-08 -8.59776e-08 0)
(1.47663e-08 -1.03551e-07 0)
(1.47303e-08 -1.20684e-07 0)
(1.46901e-08 -1.37365e-07 0)
(1.46459e-08 -1.53557e-07 0)
(1.45981e-08 -1.6926e-07 0)
(1.45473e-08 -1.84492e-07 0)
(1.44935e-08 -1.99273e-07 0)
(1.44373e-08 -2.13611e-07 0)
(1.43788e-08 -2.27515e-07 0)
(1.43183e-08 -2.40997e-07 0)
(1.42562e-08 -2.54066e-07 0)
(1.41926e-08 -2.66735e-07 0)
(1.41277e-08 -2.79015e-07 0)
(1.40618e-08 -2.90915e-07 0)
(1.3995e-08 -3.02447e-07 0)
(1.39275e-08 -3.13621e-07 0)
(1.38595e-08 -3.24448e-07 0)
(1.37912e-08 -3.34937e-07 0)
(1.37226e-08 -3.45099e-07 0)
(1.36539e-08 -3.54944e-07 0)
(1.35852e-08 -3.64481e-07 0)
(1.35167e-08 -3.7372e-07 0)
(1.34484e-08 -3.8267e-07 0)
(1.33804e-08 -3.9134e-07 0)
(1.33128e-08 -3.99739e-07 0)
(1.32456e-08 -4.07875e-07 0)
(1.3179e-08 -4.15756e-07 0)
(1.3113e-08 -4.23391e-07 0)
(1.30476e-08 -4.30788e-07 0)
(1.29829e-08 -4.37953e-07 0)
(1.2919e-08 -4.44896e-07 0)
(1.28559e-08 -4.51622e-07 0)
(1.27936e-08 -4.58139e-07 0)
(1.27321e-08 -4.64453e-07 0)
(1.26715e-08 -4.70572e-07 0)
(1.26118e-08 -4.76501e-07 0)
(1.2553e-08 -4.82246e-07 0)
(1.24952e-08 -4.87814e-07 0)
(1.24383e-08 -4.93211e-07 0)
(1.23823e-08 -4.98441e-07 0)
(1.23273e-08 -5.03511e-07 0)
(1.22733e-08 -5.08425e-07 0)
(1.22203e-08 -5.13189e-07 0)
(1.21682e-08 -5.17808e-07 0)
(1.21171e-08 -5.22285e-07 0)
(1.2067e-08 -5.26627e-07 0)
(1.20179e-08 -5.30836e-07 0)
(1.19697e-08 -5.34918e-07 0)
(1.19225e-08 -5.38877e-07 0)
(1.18762e-08 -5.42716e-07 0)
(1.18309e-08 -5.46439e-07 0)
(1.17866e-08 -5.50051e-07 0)
(1.17431e-08 -5.53554e-07 0)
(1.17006e-08 -5.56952e-07 0)
(1.1659e-08 -5.60249e-07 0)
(1.16183e-08 -5.63448e-07 0)
(1.15784e-08 -5.66552e-07 0)
(1.15395e-08 -5.69563e-07 0)
(1.15014e-08 -5.72485e-07 0)
(1.14641e-08 -5.75321e-07 0)
(1.14277e-08 -5.78074e-07 0)
(1.13921e-08 -5.80745e-07 0)
(1.13574e-08 -5.83338e-07 0)
(1.13234e-08 -5.85855e-07 0)
(1.12902e-08 -5.88298e-07 0)
(1.12577e-08 -5.90671e-07 0)
(1.12262e-08 -5.9297e-07 0)
(1.11956e-08 -5.95181e-07 0)
(1.11656e-08 -5.97323e-07 0)
(1.11358e-08 -5.99439e-07 0)
(1.11062e-08 -6.01542e-07 0)
(1.10766e-08 -6.03634e-07 0)
(1.10471e-08 -6.05711e-07 0)
(1.10176e-08 -6.07772e-07 0)
(1.09883e-08 -6.09818e-07 0)
(1.09589e-08 -6.11849e-07 0)
(1.09296e-08 -6.13865e-07 0)
(1.09004e-08 -6.15867e-07 0)
(1.08713e-08 -6.17855e-07 0)
(1.08422e-08 -6.19828e-07 0)
(1.08131e-08 -6.21787e-07 0)
(1.07842e-08 -6.23731e-07 0)
(1.07553e-08 -6.25662e-07 0)
(1.07264e-08 -6.27578e-07 0)
(1.06977e-08 -6.29481e-07 0)
(1.0669e-08 -6.3137e-07 0)
(1.06403e-08 -6.33245e-07 0)
(1.06118e-08 -6.35107e-07 0)
(1.05833e-08 -6.36954e-07 0)
(1.05546e-08 -6.38792e-07 0)
(1.05274e-08 -6.40597e-07 0)
(1.05022e-08 -6.42249e-07 0)
(1.04779e-08 -6.43744e-07 0)
(1.04545e-08 -6.45197e-07 0)
(1.04311e-08 -6.46656e-07 0)
(1.04078e-08 -6.48127e-07 0)
(1.03844e-08 -6.49601e-07 0)
(1.03608e-08 -6.51071e-07 0)
(1.03372e-08 -6.52541e-07 0)
(1.03135e-08 -6.5401e-07 0)
(1.02897e-08 -6.55481e-07 0)
(1.02658e-08 -6.56951e-07 0)
(1.02418e-08 -6.58421e-07 0)
(1.02177e-08 -6.59892e-07 0)
(1.01935e-08 -6.61362e-07 0)
(1.01693e-08 -6.62832e-07 0)
(1.01449e-08 -6.64303e-07 0)
(1.01204e-08 -6.65773e-07 0)
(1.00959e-08 -6.67243e-07 0)
(1.00713e-08 -6.68713e-07 0)
(1.00465e-08 -6.70183e-07 0)
(1.00217e-08 -6.71652e-07 0)
(9.99675e-09 -6.73122e-07 0)
(9.97172e-09 -6.74591e-07 0)
(9.94661e-09 -6.7606e-07 0)
(9.92139e-09 -6.77529e-07 0)
(9.89609e-09 -6.78997e-07 0)
(9.87069e-09 -6.80466e-07 0)
(9.84519e-09 -6.81933e-07 0)
(9.8196e-09 -6.83401e-07 0)
(9.79391e-09 -6.84868e-07 0)
(9.76814e-09 -6.86335e-07 0)
(9.74226e-09 -6.87801e-07 0)
(9.71629e-09 -6.89267e-07 0)
(9.69023e-09 -6.90732e-07 0)
(9.66407e-09 -6.92197e-07 0)
(9.63781e-09 -6.93662e-07 0)
(9.61147e-09 -6.95126e-07 0)
(9.58502e-09 -6.96589e-07 0)
(9.55848e-09 -6.98052e-07 0)
(9.53185e-09 -6.99514e-07 0)
(9.50512e-09 -7.00975e-07 0)
(9.4783e-09 -7.02436e-07 0)
(9.45138e-09 -7.03896e-07 0)
(9.42437e-09 -7.05355e-07 0)
(9.39726e-09 -7.06814e-07 0)
(9.37006e-09 -7.08271e-07 0)
(9.34276e-09 -7.09728e-07 0)
(9.31537e-09 -7.11184e-07 0)
(9.28788e-09 -7.1264e-07 0)
(9.2603e-09 -7.14094e-07 0)
(9.23262e-09 -7.15548e-07 0)
(9.20485e-09 -7.17e-07 0)
(9.17698e-09 -7.18452e-07 0)
(9.14902e-09 -7.19902e-07 0)
(9.12096e-09 -7.21352e-07 0)
(9.09281e-09 -7.228e-07 0)
(9.06457e-09 -7.24248e-07 0)
(9.03623e-09 -7.25694e-07 0)
(9.0078e-09 -7.27139e-07 0)
(8.97927e-09 -7.28583e-07 0)
(8.95065e-09 -7.30026e-07 0)
(8.92194e-09 -7.31468e-07 0)
(8.89313e-09 -7.32908e-07 0)
(8.86422e-09 -7.34347e-07 0)
(8.83523e-09 -7.35785e-07 0)
(8.80614e-09 -7.37221e-07 0)
(8.77696e-09 -7.38656e-07 0)
(8.74768e-09 -7.4009e-07 0)
(8.71831e-09 -7.41522e-07 0)
(8.68885e-09 -7.42953e-07 0)
(8.65929e-09 -7.44382e-07 0)
(8.62964e-09 -7.4581e-07 0)
(8.5999e-09 -7.47236e-07 0)
(8.57007e-09 -7.48661e-07 0)
(8.54015e-09 -7.50084e-07 0)
(8.51013e-09 -7.51505e-07 0)
(8.48002e-09 -7.52925e-07 0)
(8.44982e-09 -7.54343e-07 0)
(8.41953e-09 -7.55759e-07 0)
(8.38914e-09 -7.57173e-07 0)
(8.35867e-09 -7.58586e-07 0)
(8.3281e-09 -7.59997e-07 0)
(8.29745e-09 -7.61406e-07 0)
(8.2667e-09 -7.62813e-07 0)
(8.23586e-09 -7.64218e-07 0)
(8.20494e-09 -7.65621e-07 0)
(8.17392e-09 -7.67022e-07 0)
(8.14281e-09 -7.68422e-07 0)
(8.11162e-09 -7.69819e-07 0)
(8.08033e-09 -7.71214e-07 0)
(8.04896e-09 -7.72607e-07 0)
(8.0175e-09 -7.73998e-07 0)
(7.98595e-09 -7.75386e-07 0)
(7.95431e-09 -7.76772e-07 0)
(7.92259e-09 -7.78157e-07 0)
(7.89077e-09 -7.79538e-07 0)
(7.85887e-09 -7.80918e-07 0)
(7.82689e-09 -7.82295e-07 0)
(7.79481e-09 -7.8367e-07 0)
(7.76266e-09 -7.85042e-07 0)
(7.73041e-09 -7.86412e-07 0)
(7.69808e-09 -7.87779e-07 0)
(7.66567e-09 -7.89144e-07 0)
(7.63317e-09 -7.90506e-07 0)
(7.60058e-09 -7.91866e-07 0)
(7.56791e-09 -7.93223e-07 0)
(7.53516e-09 -7.94577e-07 0)
(7.50233e-09 -7.95929e-07 0)
(7.46941e-09 -7.97278e-07 0)
(7.43641e-09 -7.98624e-07 0)
(7.40333e-09 -7.99968e-07 0)
(7.37016e-09 -8.01308e-07 0)
(7.33692e-09 -8.02646e-07 0)
(7.30359e-09 -8.0398e-07 0)
(7.27019e-09 -8.05312e-07 0)
(7.2367e-09 -8.06641e-07 0)
(7.20314e-09 -8.07967e-07 0)
(7.16949e-09 -8.09289e-07 0)
(7.13577e-09 -8.10609e-07 0)
(7.10197e-09 -8.11925e-07 0)
(7.06809e-09 -8.13239e-07 0)
(7.03414e-09 -8.14549e-07 0)
(7.0001e-09 -8.15856e-07 0)
(6.966e-09 -8.17159e-07 0)
(6.93181e-09 -8.18459e-07 0)
(6.89755e-09 -8.19756e-07 0)
(6.86322e-09 -8.2105e-07 0)
(6.82881e-09 -8.2234e-07 0)
(6.79433e-09 -8.23626e-07 0)
(6.75978e-09 -8.24909e-07 0)
(6.72515e-09 -8.26189e-07 0)
(6.69046e-09 -8.27465e-07 0)
(6.65569e-09 -8.28737e-07 0)
(6.62085e-09 -8.30006e-07 0)
(6.58594e-09 -8.31271e-07 0)
(6.55096e-09 -8.32532e-07 0)
(6.51591e-09 -8.3379e-07 0)
(6.4808e-09 -8.35043e-07 0)
(6.44561e-09 -8.36293e-07 0)
(6.41036e-09 -8.37539e-07 0)
(6.37505e-09 -8.38781e-07 0)
(6.33966e-09 -8.40019e-07 0)
(6.30422e-09 -8.41253e-07 0)
(6.2687e-09 -8.42484e-07 0)
(6.23313e-09 -8.4371e-07 0)
(6.19749e-09 -8.44931e-07 0)
(6.16179e-09 -8.46149e-07 0)
(6.12603e-09 -8.47363e-07 0)
(6.0902e-09 -8.48572e-07 0)
(6.05432e-09 -8.49777e-07 0)
(6.01838e-09 -8.50978e-07 0)
(5.98238e-09 -8.52174e-07 0)
(5.94632e-09 -8.53366e-07 0)
(5.9102e-09 -8.54554e-07 0)
(5.87403e-09 -8.55737e-07 0)
(5.8378e-09 -8.56915e-07 0)
(5.80151e-09 -8.5809e-07 0)
(5.76517e-09 -8.59259e-07 0)
(5.72878e-09 -8.60424e-07 0)
(5.69234e-09 -8.61584e-07 0)
(5.65584e-09 -8.6274e-07 0)
(5.6193e-09 -8.6389e-07 0)
(5.5827e-09 -8.65036e-07 0)
(5.54605e-09 -8.66178e-07 0)
(5.50936e-09 -8.67314e-07 0)
(5.47262e-09 -8.68446e-07 0)
(5.43583e-09 -8.69572e-07 0)
(5.39899e-09 -8.70694e-07 0)
(5.36211e-09 -8.7181e-07 0)
(5.32518e-09 -8.72922e-07 0)
(5.28826e-09 -8.74028e-07 0)
(5.25104e-09 -8.7513e-07 0)
(5.21485e-09 -8.7622e-07 0)
(5.18017e-09 -8.77254e-07 0)
(5.14607e-09 -8.78233e-07 0)
(5.11239e-09 -8.79201e-07 0)
(5.07856e-09 -8.80175e-07 0)
(5.04446e-09 -8.81157e-07 0)
(5.01003e-09 -8.82144e-07 0)
(4.97528e-09 -8.83134e-07 0)
(4.9402e-09 -8.84127e-07 0)
(4.90478e-09 -8.85124e-07 0)
(4.86903e-09 -8.86125e-07 0)
(4.83295e-09 -8.87129e-07 0)
(4.79652e-09 -8.88136e-07 0)
(4.75976e-09 -8.89146e-07 0)
(4.72265e-09 -8.9016e-07 0)
(4.6852e-09 -8.91176e-07 0)
(4.64741e-09 -8.92196e-07 0)
(4.60927e-09 -8.93218e-07 0)
(4.57078e-09 -8.94242e-07 0)
(4.53195e-09 -8.95269e-07 0)
(4.49276e-09 -8.96299e-07 0)
(4.45322e-09 -8.9733e-07 0)
(4.41333e-09 -8.98363e-07 0)
(4.37308e-09 -8.99398e-07 0)
(4.33248e-09 -9.00435e-07 0)
(4.29152e-09 -9.01473e-07 0)
(4.25021e-09 -9.02512e-07 0)
(4.20853e-09 -9.03553e-07 0)
(4.1665e-09 -9.04594e-07 0)
(4.1241e-09 -9.05636e-07 0)
(4.08135e-09 -9.06679e-07 0)
(4.03823e-09 -9.07722e-07 0)
(3.99476e-09 -9.08765e-07 0)
(3.95092e-09 -9.09807e-07 0)
(3.90671e-09 -9.1085e-07 0)
(3.86215e-09 -9.11892e-07 0)
(3.81722e-09 -9.12933e-07 0)
(3.77193e-09 -9.13972e-07 0)
(3.72628e-09 -9.15011e-07 0)
(3.68027e-09 -9.16048e-07 0)
(3.63389e-09 -9.17083e-07 0)
(3.58716e-09 -9.18117e-07 0)
(3.54006e-09 -9.19147e-07 0)
(3.49261e-09 -9.20176e-07 0)
(3.44479e-09 -9.21201e-07 0)
(3.39662e-09 -9.22223e-07 0)
(3.34809e-09 -9.23241e-07 0)
(3.29921e-09 -9.24256e-07 0)
(3.24998e-09 -9.25267e-07 0)
(3.20039e-09 -9.26273e-07 0)
(3.15045e-09 -9.27274e-07 0)
(3.10017e-09 -9.28271e-07 0)
(3.04954e-09 -9.29261e-07 0)
(2.99857e-09 -9.30246e-07 0)
(2.94726e-09 -9.31225e-07 0)
(2.89561e-09 -9.32198e-07 0)
(2.84362e-09 -9.33163e-07 0)
(2.79131e-09 -9.34121e-07 0)
(2.73867e-09 -9.35072e-07 0)
(2.6857e-09 -9.36014e-07 0)
(2.63242e-09 -9.36948e-07 0)
(2.57881e-09 -9.37873e-07 0)
(2.5249e-09 -9.38789e-07 0)
(2.47068e-09 -9.39696e-07 0)
(2.41616e-09 -9.40592e-07 0)
(2.36134e-09 -9.41477e-07 0)
(2.30623e-09 -9.42352e-07 0)
(2.25083e-09 -9.43215e-07 0)
(2.19515e-09 -9.44066e-07 0)
(2.13919e-09 -9.44905e-07 0)
(2.08297e-09 -9.45731e-07 0)
(2.02649e-09 -9.46543e-07 0)
(1.96975e-09 -9.47342e-07 0)
(1.91276e-09 -9.48126e-07 0)
(1.85554e-09 -9.48896e-07 0)
(1.79808e-09 -9.4965e-07 0)
(1.7404e-09 -9.50388e-07 0)
(1.6825e-09 -9.5111e-07 0)
(1.62439e-09 -9.51815e-07 0)
(1.56608e-09 -9.52503e-07 0)
(1.50759e-09 -9.53172e-07 0)
(1.44892e-09 -9.53823e-07 0)
(1.39007e-09 -9.54455e-07 0)
(1.33107e-09 -9.55067e-07 0)
(1.27192e-09 -9.55659e-07 0)
(1.21263e-09 -9.5623e-07 0)
(1.15321e-09 -9.56779e-07 0)
(1.09368e-09 -9.57307e-07 0)
(1.03405e-09 -9.57811e-07 0)
(9.74323e-10 -9.58293e-07 0)
(9.14518e-10 -9.58751e-07 0)
(8.54649e-10 -9.59184e-07 0)
(7.94726e-10 -9.59592e-07 0)
(7.34765e-10 -9.59975e-07 0)
(6.7478e-10 -9.60331e-07 0)
(6.14783e-10 -9.6066e-07 0)
(5.54791e-10 -9.60962e-07 0)
(4.94818e-10 -9.61236e-07 0)
(4.34878e-10 -9.6148e-07 0)
(3.74989e-10 -9.61696e-07 0)
(3.15165e-10 -9.61881e-07 0)
(2.55424e-10 -9.62035e-07 0)
(1.95781e-10 -9.62158e-07 0)
(1.36253e-10 -9.62249e-07 0)
(7.68586e-11 -9.62308e-07 0)
(1.7614e-11 -9.62333e-07 0)
(-4.14625e-11 -9.62324e-07 0)
(-1.00353e-10 -9.62281e-07 0)
(-1.59039e-10 -9.62202e-07 0)
(-2.17501e-10 -9.62088e-07 0)
(-2.75722e-10 -9.61937e-07 0)
(-3.33681e-10 -9.61749e-07 0)
(-3.91359e-10 -9.61523e-07 0)
(-4.48737e-10 -9.61259e-07 0)
(-5.05795e-10 -9.60956e-07 0)
(-5.62512e-10 -9.60614e-07 0)
(-6.18868e-10 -9.60231e-07 0)
(-6.74843e-10 -9.59808e-07 0)
(-7.30416e-10 -9.59343e-07 0)
(-7.85566e-10 -9.58837e-07 0)
(-8.40273e-10 -9.58288e-07 0)
(-8.94514e-10 -9.57696e-07 0)
(-9.4827e-10 -9.5706e-07 0)
(-1.00152e-09 -9.5638e-07 0)
(-1.05424e-09 -9.55656e-07 0)
(-1.10641e-09 -9.54887e-07 0)
(-1.158e-09 -9.54072e-07 0)
(-1.20901e-09 -9.53211e-07 0)
(-1.2594e-09 -9.52304e-07 0)
(-1.30916e-09 -9.51349e-07 0)
(-1.35825e-09 -9.50348e-07 0)
(-1.40667e-09 -9.49298e-07 0)
(-1.45439e-09 -9.482e-07 0)
(-1.50139e-09 -9.47054e-07 0)
(-1.54765e-09 -9.45858e-07 0)
(-1.59315e-09 -9.44614e-07 0)
(-1.63786e-09 -9.4332e-07 0)
(-1.68177e-09 -9.41976e-07 0)
(-1.72486e-09 -9.40582e-07 0)
(-1.76711e-09 -9.39137e-07 0)
(-1.80849e-09 -9.37642e-07 0)
(-1.84899e-09 -9.36096e-07 0)
(-1.8886e-09 -9.34499e-07 0)
(-1.92728e-09 -9.32851e-07 0)
(-1.96504e-09 -9.31152e-07 0)
(-2.00183e-09 -9.29402e-07 0)
(-2.03766e-09 -9.276e-07 0)
(-2.0725e-09 -9.25747e-07 0)
(-2.10634e-09 -9.23842e-07 0)
(-2.13916e-09 -9.21886e-07 0)
(-2.17095e-09 -9.19879e-07 0)
(-2.20169e-09 -9.17821e-07 0)
(-2.23138e-09 -9.15711e-07 0)
(-2.25999e-09 -9.13551e-07 0)
(-2.28751e-09 -9.1134e-07 0)
(-2.31394e-09 -9.09079e-07 0)
(-2.33926e-09 -9.06767e-07 0)
(-2.36346e-09 -9.04405e-07 0)
(-2.38653e-09 -9.01994e-07 0)
(-2.40847e-09 -8.99533e-07 0)
(-2.42926e-09 -8.97024e-07 0)
(-2.44891e-09 -8.94466e-07 0)
(-2.4674e-09 -8.91861e-07 0)
(-2.48472e-09 -8.89208e-07 0)
(-2.50088e-09 -8.86507e-07 0)
(-2.51587e-09 -8.83761e-07 0)
(-2.52969e-09 -8.80969e-07 0)
(-2.54233e-09 -8.78132e-07 0)
(-2.5538e-09 -8.7525e-07 0)
(-2.56409e-09 -8.72325e-07 0)
(-2.5732e-09 -8.69356e-07 0)
(-2.58114e-09 -8.66346e-07 0)
(-2.58791e-09 -8.63294e-07 0)
(-2.59352e-09 -8.60202e-07 0)
(-2.59795e-09 -8.5707e-07 0)
(-2.60123e-09 -8.53899e-07 0)
(-2.60336e-09 -8.50691e-07 0)
(-2.60434e-09 -8.47446e-07 0)
(-2.60418e-09 -8.44165e-07 0)
(-2.60288e-09 -8.40847e-07 0)
(-2.60053e-09 -8.37503e-07 0)
(-2.59678e-09 -8.34084e-07 0)
(-2.59143e-09 -8.30311e-07 0)
(-2.58448e-09 -8.26177e-07 0)
(-2.57588e-09 -8.21972e-07 0)
(-2.56582e-09 -8.1779e-07 0)
(-2.55444e-09 -8.13649e-07 0)
(-2.54184e-09 -8.09533e-07 0)
(-2.52808e-09 -8.05433e-07 0)
(-2.51322e-09 -8.01353e-07 0)
(-2.49732e-09 -7.97298e-07 0)
(-2.48045e-09 -7.93271e-07 0)
(-2.46267e-09 -7.89273e-07 0)
(-2.44402e-09 -7.85303e-07 0)
(-2.42456e-09 -7.81365e-07 0)
(-2.40435e-09 -7.77458e-07 0)
(-2.38342e-09 -7.73585e-07 0)
(-2.36183e-09 -7.69746e-07 0)
(-2.33962e-09 -7.65943e-07 0)
(-2.31682e-09 -7.62176e-07 0)
(-2.29347e-09 -7.58447e-07 0)
(-2.26961e-09 -7.54756e-07 0)
(-2.24528e-09 -7.51104e-07 0)
(-2.22051e-09 -7.47491e-07 0)
(-2.19532e-09 -7.43919e-07 0)
(-2.16975e-09 -7.40389e-07 0)
(-2.14381e-09 -7.36899e-07 0)
(-2.11755e-09 -7.33453e-07 0)
(-2.09097e-09 -7.30048e-07 0)
(-2.06411e-09 -7.26688e-07 0)
(-2.03697e-09 -7.2337e-07 0)
(-2.00959e-09 -7.20097e-07 0)
(-1.98198e-09 -7.16869e-07 0)
(-1.95415e-09 -7.13685e-07 0)
(-1.92612e-09 -7.10547e-07 0)
(-1.8979e-09 -7.07454e-07 0)
(-1.86951e-09 -7.04406e-07 0)
(-1.84096e-09 -7.01405e-07 0)
(-1.81225e-09 -6.9845e-07 0)
(-1.78341e-09 -6.95542e-07 0)
(-1.75443e-09 -6.92681e-07 0)
(-1.72533e-09 -6.89866e-07 0)
(-1.69612e-09 -6.87099e-07 0)
(-1.66679e-09 -6.84379e-07 0)
(-1.63736e-09 -6.81706e-07 0)
(-1.60783e-09 -6.79082e-07 0)
(-1.5782e-09 -6.76505e-07 0)
(-1.54849e-09 -6.73976e-07 0)
(-1.51869e-09 -6.71495e-07 0)
(-1.48881e-09 -6.69063e-07 0)
(-1.45885e-09 -6.66679e-07 0)
(-1.4288e-09 -6.64343e-07 0)
(-1.39869e-09 -6.62056e-07 0)
(-1.3685e-09 -6.59818e-07 0)
(-1.33823e-09 -6.57629e-07 0)
(-1.3079e-09 -6.55489e-07 0)
(-1.27749e-09 -6.53398e-07 0)
(-1.24702e-09 -6.51356e-07 0)
(-1.21648e-09 -6.49363e-07 0)
(-1.18586e-09 -6.4742e-07 0)
(-1.15518e-09 -6.45527e-07 0)
(-1.12443e-09 -6.43683e-07 0)
(-1.09361e-09 -6.41889e-07 0)
(-1.06273e-09 -6.40145e-07 0)
(-1.03178e-09 -6.38451e-07 0)
(-1.00076e-09 -6.36807e-07 0)
(-9.69669e-10 -6.35213e-07 0)
(-9.38515e-10 -6.3367e-07 0)
(-9.07294e-10 -6.32177e-07 0)
(-8.76007e-10 -6.30735e-07 0)
(-8.44654e-10 -6.29343e-07 0)
(-8.13237e-10 -6.28002e-07 0)
(-7.81755e-10 -6.26712e-07 0)
(-7.50209e-10 -6.25473e-07 0)
(-7.18601e-10 -6.24285e-07 0)
(-6.86932e-10 -6.23148e-07 0)
(-6.55203e-10 -6.22062e-07 0)
(-6.23415e-10 -6.21028e-07 0)
(-5.9157e-10 -6.20045e-07 0)
(-5.59669e-10 -6.19114e-07 0)
(-5.27715e-10 -6.18235e-07 0)
(-4.9571e-10 -6.17407e-07 0)
(-4.63656e-10 -6.16631e-07 0)
(-4.31555e-10 -6.15907e-07 0)
(-3.9941e-10 -6.15235e-07 0)
(-3.67223e-10 -6.14615e-07 0)
(-3.34997e-10 -6.14046e-07 0)
(-3.02736e-10 -6.13534e-07 0)
(-2.7044e-10 -6.13057e-07 0)
(-2.3812e-10 -6.12689e-07 0)
(-2.05754e-10 -6.12187e-07 0)
(-1.73429e-10 -6.12345e-07 0)
(-1.40876e-10 -6.105e-07 0)
(-1.09006e-10 -6.15265e-07 0)
(-7.49062e-11 -5.96706e-07 0)
(-4.86115e-11 -6.45606e-07 0)
(-2.04886e-11 -5.63839e-07 0)
)
;
    }
    bottomWall
    {
        type            calculated;
        value           nonuniform List<vector> 
449
(
(-48.5361 -0.964156 0)
(-19.7528 -0.00515577 0)
(-14.3446 -0.00113496 0)
(-12.0346 -0.000545583 0)
(-10.6283 -0.000351568 0)
(-9.63425 -0.000256048 0)
(-8.87602 -0.000198528 0)
(-8.27237 -0.000159851 0)
(-7.77684 -0.000132354 0)
(-7.36011 -0.000112003 0)
(-7.00303 -9.63992e-05 0)
(-6.69254 -8.40896e-05 0)
(-6.41932 -7.41696e-05 0)
(-6.17647 -6.60402e-05 0)
(-5.95873 -5.92818e-05 0)
(-5.76204 -5.3591e-05 0)
(-5.5832 -4.87457e-05 0)
(-5.41966 -4.45799e-05 0)
(-5.26934 -4.09676e-05 0)
(-5.13054 -3.78113e-05 0)
(-5.00187 -3.50344e-05 0)
(-4.88213 -3.25761e-05 0)
(-4.77034 -3.03875e-05 0)
(-4.66565 -2.84292e-05 0)
(-4.56733 -2.66686e-05 0)
(-4.47476 -2.50789e-05 0)
(-4.3874 -2.36379e-05 0)
(-4.30477 -2.23268e-05 0)
(-4.22645 -2.11299e-05 0)
(-4.15209 -2.00338e-05 0)
(-4.08136 -1.90269e-05 0)
(-4.01396 -1.80996e-05 0)
(-3.94965 -1.72433e-05 0)
(-3.88819 -1.64506e-05 0)
(-3.82937 -1.57151e-05 0)
(-3.77302 -1.50313e-05 0)
(-3.71895 -1.43943e-05 0)
(-3.66703 -1.37996e-05 0)
(-3.6171 -1.32435e-05 0)
(-3.56905 -1.27226e-05 0)
(-3.52276 -1.22339e-05 0)
(-3.47812 -1.17746e-05 0)
(-3.43503 -1.13423e-05 0)
(-3.39341 -1.09349e-05 0)
(-3.35318 -1.05505e-05 0)
(-3.31425 -1.01872e-05 0)
(-3.27656 -9.84352e-06 0)
(-3.24004 -9.51798e-06 0)
(-3.20463 -9.20929e-06 0)
(-3.17028 -8.91625e-06 0)
(-3.13694 -8.63779e-06 0)
(-3.10455 -8.37291e-06 0)
(-3.07307 -8.12072e-06 0)
(-3.04245 -7.88038e-06 0)
(-3.01267 -7.65114e-06 0)
(-2.98368 -7.4323e-06 0)
(-2.95544 -7.22321e-06 0)
(-2.92792 -7.02328e-06 0)
(-2.9011 -6.83196e-06 0)
(-2.87494 -6.64875e-06 0)
(-2.84941 -6.47317e-06 0)
(-2.8245 -6.3048e-06 0)
(-2.80017 -6.14323e-06 0)
(-2.77641 -5.98809e-06 0)
(-2.75318 -5.83902e-06 0)
(-2.73048 -5.6957e-06 0)
(-2.70828 -5.55783e-06 0)
(-2.68656 -5.42513e-06 0)
(-2.6653 -5.29733e-06 0)
(-2.64449 -5.17418e-06 0)
(-2.62412 -5.05545e-06 0)
(-2.60416 -4.94093e-06 0)
(-2.58461 -4.83041e-06 0)
(-2.56545 -4.72371e-06 0)
(-2.54666 -4.62063e-06 0)
(-2.52823 -4.52102e-06 0)
(-2.51016 -4.42471e-06 0)
(-2.49243 -4.33156e-06 0)
(-2.47503 -4.24142e-06 0)
(-2.45795 -4.15416e-06 0)
(-2.44118 -4.06965e-06 0)
(-2.42471 -3.98779e-06 0)
(-2.40853 -3.90844e-06 0)
(-2.39263 -3.83151e-06 0)
(-2.37701 -3.7569e-06 0)
(-2.36166 -3.68451e-06 0)
(-2.34656 -3.61425e-06 0)
(-2.33172 -3.54604e-06 0)
(-2.31711 -3.47979e-06 0)
(-2.30275 -3.41543e-06 0)
(-2.28862 -3.35288e-06 0)
(-2.27471 -3.29207e-06 0)
(-2.26102 -3.23295e-06 0)
(-2.24755 -3.17543e-06 0)
(-2.23428 -3.11948e-06 0)
(-2.22121 -3.06502e-06 0)
(-2.20834 -3.012e-06 0)
(-2.19566 -2.96037e-06 0)
(-2.18317 -2.91008e-06 0)
(-2.17086 -2.86109e-06 0)
(-2.15873 -2.81334e-06 0)
(-2.14678 -2.7668e-06 0)
(-2.13499 -2.72142e-06 0)
(-2.12336 -2.67716e-06 0)
(-2.1119 -2.63399e-06 0)
(-2.1006 -2.59187e-06 0)
(-2.08945 -2.55076e-06 0)
(-2.07845 -2.51064e-06 0)
(-2.06759 -2.47146e-06 0)
(-2.05688 -2.4332e-06 0)
(-2.04631 -2.39583e-06 0)
(-2.03588 -2.35932e-06 0)
(-2.02558 -2.32365e-06 0)
(-2.01541 -2.28879e-06 0)
(-2.00537 -2.2547e-06 0)
(-1.99546 -2.22138e-06 0)
(-1.98567 -2.18879e-06 0)
(-1.976 -2.15692e-06 0)
(-1.96644 -2.12574e-06 0)
(-1.95701 -2.09523e-06 0)
(-1.94768 -2.06538e-06 0)
(-1.93847 -2.03616e-06 0)
(-1.92936 -2.00755e-06 0)
(-1.92036 -1.97954e-06 0)
(-1.91147 -1.95212e-06 0)
(-1.90268 -1.92525e-06 0)
(-1.89398 -1.89894e-06 0)
(-1.88539 -1.87316e-06 0)
(-1.87689 -1.84789e-06 0)
(-1.86849 -1.82314e-06 0)
(-1.86017 -1.79887e-06 0)
(-1.85195 -1.77508e-06 0)
(-1.84382 -1.75176e-06 0)
(-1.83578 -1.72888e-06 0)
(-1.82782 -1.70645e-06 0)
(-1.81995 -1.68445e-06 0)
(-1.81216 -1.66286e-06 0)
(-1.80445 -1.64169e-06 0)
(-1.79682 -1.62091e-06 0)
(-1.78927 -1.60051e-06 0)
(-1.7818 -1.58049e-06 0)
(-1.7744 -1.56085e-06 0)
(-1.76708 -1.54155e-06 0)
(-1.75983 -1.52261e-06 0)
(-1.75265 -1.50401e-06 0)
(-1.74554 -1.48574e-06 0)
(-1.7385 -1.4678e-06 0)
(-1.73153 -1.45017e-06 0)
(-1.72463 -1.43285e-06 0)
(-1.7178 -1.41584e-06 0)
(-1.71103 -1.39911e-06 0)
(-1.70432 -1.38268e-06 0)
(-1.69767 -1.36653e-06 0)
(-1.69109 -1.35065e-06 0)
(-1.68457 -1.33504e-06 0)
(-1.67811 -1.31969e-06 0)
(-1.67171 -1.3046e-06 0)
(-1.66536 -1.28976e-06 0)
(-1.65907 -1.27516e-06 0)
(-1.65284 -1.26081e-06 0)
(-1.64667 -1.24669e-06 0)
(-1.64055 -1.23279e-06 0)
(-1.63448 -1.21912e-06 0)
(-1.62847 -1.20567e-06 0)
(-1.6225 -1.19244e-06 0)
(-1.61659 -1.17942e-06 0)
(-1.61073 -1.16659e-06 0)
(-1.60492 -1.15398e-06 0)
(-1.59916 -1.14159e-06 0)
(-1.59345 -1.12925e-06 0)
(-1.58779 -1.11755e-06 0)
(-1.58216 -1.10544e-06 0)
(-1.5766 -1.0923e-06 0)
(-1.57139 -1.08212e-06 0)
(-1.56649 -1.07388e-06 0)
(-1.56158 -1.06352e-06 0)
(-1.55667 -1.05282e-06 0)
(-1.55175 -1.04281e-06 0)
(-1.54683 -1.03276e-06 0)
(-1.5419 -1.02284e-06 0)
(-1.53697 -1.01298e-06 0)
(-1.53203 -1.00318e-06 0)
(-1.52709 -9.93447e-07 0)
(-1.52214 -9.83769e-07 0)
(-1.51718 -9.74148e-07 0)
(-1.51223 -9.64583e-07 0)
(-1.50726 -9.55073e-07 0)
(-1.50229 -9.45618e-07 0)
(-1.49732 -9.36218e-07 0)
(-1.49234 -9.26874e-07 0)
(-1.48736 -9.17585e-07 0)
(-1.48238 -9.08352e-07 0)
(-1.47739 -8.99175e-07 0)
(-1.4724 -8.90053e-07 0)
(-1.46741 -8.80988e-07 0)
(-1.46242 -8.7198e-07 0)
(-1.45742 -8.63028e-07 0)
(-1.45242 -8.54134e-07 0)
(-1.44741 -8.45296e-07 0)
(-1.44241 -8.36516e-07 0)
(-1.4374 -8.27794e-07 0)
(-1.43239 -8.19129e-07 0)
(-1.42738 -8.10523e-07 0)
(-1.42237 -8.01975e-07 0)
(-1.41736 -7.93485e-07 0)
(-1.41235 -7.85053e-07 0)
(-1.40734 -7.76681e-07 0)
(-1.40232 -7.68367e-07 0)
(-1.39731 -7.60112e-07 0)
(-1.3923 -7.51916e-07 0)
(-1.38728 -7.4378e-07 0)
(-1.38227 -7.35703e-07 0)
(-1.37726 -7.27685e-07 0)
(-1.37225 -7.19726e-07 0)
(-1.36724 -7.11827e-07 0)
(-1.36223 -7.03988e-07 0)
(-1.35722 -6.96208e-07 0)
(-1.35222 -6.88488e-07 0)
(-1.34721 -6.80828e-07 0)
(-1.34221 -6.73227e-07 0)
(-1.33721 -6.65686e-07 0)
(-1.33221 -6.58205e-07 0)
(-1.32722 -6.50783e-07 0)
(-1.32223 -6.43421e-07 0)
(-1.31724 -6.36119e-07 0)
(-1.31225 -6.28876e-07 0)
(-1.30727 -6.21693e-07 0)
(-1.30229 -6.14569e-07 0)
(-1.29731 -6.07505e-07 0)
(-1.29234 -6.005e-07 0)
(-1.28737 -5.93554e-07 0)
(-1.28241 -5.86668e-07 0)
(-1.27745 -5.7984e-07 0)
(-1.27249 -5.73072e-07 0)
(-1.26754 -5.66363e-07 0)
(-1.2626 -5.59712e-07 0)
(-1.25766 -5.5312e-07 0)
(-1.25272 -5.46586e-07 0)
(-1.24779 -5.40111e-07 0)
(-1.24287 -5.33693e-07 0)
(-1.23795 -5.27334e-07 0)
(-1.23304 -5.21033e-07 0)
(-1.22813 -5.14789e-07 0)
(-1.22323 -5.08603e-07 0)
(-1.21834 -5.02474e-07 0)
(-1.21345 -4.96402e-07 0)
(-1.20857 -4.90388e-07 0)
(-1.2037 -4.8443e-07 0)
(-1.19883 -4.78528e-07 0)
(-1.19397 -4.72683e-07 0)
(-1.18912 -4.66894e-07 0)
(-1.18427 -4.6116e-07 0)
(-1.17943 -4.55482e-07 0)
(-1.1746 -4.4986e-07 0)
(-1.16978 -4.44293e-07 0)
(-1.16497 -4.3878e-07 0)
(-1.16016 -4.33322e-07 0)
(-1.15536 -4.27919e-07 0)
(-1.15058 -4.2257e-07 0)
(-1.14579 -4.17274e-07 0)
(-1.14102 -4.12032e-07 0)
(-1.13626 -4.06843e-07 0)
(-1.1315 -4.01708e-07 0)
(-1.12676 -3.96625e-07 0)
(-1.12202 -3.91594e-07 0)
(-1.1173 -3.86616e-07 0)
(-1.11258 -3.81689e-07 0)
(-1.10787 -3.76814e-07 0)
(-1.10317 -3.7199e-07 0)
(-1.09849 -3.67217e-07 0)
(-1.09381 -3.62495e-07 0)
(-1.08914 -3.57823e-07 0)
(-1.08448 -3.53201e-07 0)
(-1.07983 -3.48629e-07 0)
(-1.0752 -3.44106e-07 0)
(-1.07057 -3.39632e-07 0)
(-1.06595 -3.35206e-07 0)
(-1.06135 -3.30829e-07 0)
(-1.05675 -3.26501e-07 0)
(-1.05217 -3.22219e-07 0)
(-1.04759 -3.17986e-07 0)
(-1.04303 -3.13799e-07 0)
(-1.03848 -3.09659e-07 0)
(-1.03394 -3.05565e-07 0)
(-1.02941 -3.01518e-07 0)
(-1.0249 -2.97516e-07 0)
(-1.02039 -2.93559e-07 0)
(-1.0159 -2.89647e-07 0)
(-1.01142 -2.8578e-07 0)
(-1.00695 -2.81958e-07 0)
(-1.00249 -2.78179e-07 0)
(-0.998044 -2.74444e-07 0)
(-0.99361 -2.70752e-07 0)
(-0.989189 -2.67103e-07 0)
(-0.984779 -2.63497e-07 0)
(-0.980382 -2.59932e-07 0)
(-0.975998 -2.5641e-07 0)
(-0.971625 -2.52929e-07 0)
(-0.967266 -2.4949e-07 0)
(-0.962919 -2.46091e-07 0)
(-0.958584 -2.42732e-07 0)
(-0.954263 -2.39414e-07 0)
(-0.949954 -2.36135e-07 0)
(-0.945658 -2.32896e-07 0)
(-0.941375 -2.29696e-07 0)
(-0.937105 -2.26535e-07 0)
(-0.932848 -2.23412e-07 0)
(-0.928604 -2.20327e-07 0)
(-0.924373 -2.17279e-07 0)
(-0.920155 -2.14269e-07 0)
(-0.915951 -2.11296e-07 0)
(-0.91176 -2.0836e-07 0)
(-0.907583 -2.05459e-07 0)
(-0.903418 -2.02595e-07 0)
(-0.899268 -1.99766e-07 0)
(-0.895131 -1.96973e-07 0)
(-0.891007 -1.94214e-07 0)
(-0.886897 -1.9149e-07 0)
(-0.882801 -1.888e-07 0)
(-0.878718 -1.86144e-07 0)
(-0.874649 -1.83522e-07 0)
(-0.870594 -1.80933e-07 0)
(-0.866553 -1.78376e-07 0)
(-0.862525 -1.75853e-07 0)
(-0.858511 -1.73361e-07 0)
(-0.854512 -1.70901e-07 0)
(-0.850526 -1.68473e-07 0)
(-0.846554 -1.66076e-07 0)
(-0.842596 -1.6371e-07 0)
(-0.838652 -1.61375e-07 0)
(-0.834723 -1.59069e-07 0)
(-0.830807 -1.56794e-07 0)
(-0.826905 -1.54548e-07 0)
(-0.823018 -1.52332e-07 0)
(-0.819145 -1.50145e-07 0)
(-0.815285 -1.47986e-07 0)
(-0.81144 -1.45855e-07 0)
(-0.80761 -1.43753e-07 0)
(-0.803793 -1.41678e-07 0)
(-0.799991 -1.39631e-07 0)
(-0.796203 -1.37611e-07 0)
(-0.792429 -1.35618e-07 0)
(-0.788669 -1.33651e-07 0)
(-0.784924 -1.3171e-07 0)
(-0.781193 -1.29795e-07 0)
(-0.777477 -1.27906e-07 0)
(-0.773774 -1.26042e-07 0)
(-0.770086 -1.24202e-07 0)
(-0.766413 -1.22386e-07 0)
(-0.762754 -1.20597e-07 0)
(-0.759109 -1.18826e-07 0)
(-0.755478 -1.17045e-07 0)
(-0.751865 -1.1541e-07 0)
(-0.748258 -1.13787e-07 0)
(-0.744265 -1.11808e-07 0)
(-0.739935 -1.09707e-07 0)
(-0.735683 -1.07815e-07 0)
(-0.731501 -1.06022e-07 0)
(-0.727389 -1.04218e-07 0)
(-0.723348 -1.02448e-07 0)
(-0.719375 -1.00724e-07 0)
(-0.715469 -9.90452e-08 0)
(-0.711627 -9.74118e-08 0)
(-0.707849 -9.58219e-08 0)
(-0.704132 -9.42742e-08 0)
(-0.700474 -9.27674e-08 0)
(-0.696875 -9.13001e-08 0)
(-0.693332 -8.98708e-08 0)
(-0.689845 -8.84782e-08 0)
(-0.686411 -8.7121e-08 0)
(-0.68303 -8.5798e-08 0)
(-0.6797 -8.45079e-08 0)
(-0.676419 -8.32497e-08 0)
(-0.673187 -8.20223e-08 0)
(-0.670003 -8.08246e-08 0)
(-0.666865 -7.96556e-08 0)
(-0.663772 -7.85143e-08 0)
(-0.660723 -7.74e-08 0)
(-0.657717 -7.63116e-08 0)
(-0.654754 -7.52484e-08 0)
(-0.651831 -7.42096e-08 0)
(-0.648949 -7.31943e-08 0)
(-0.646106 -7.22019e-08 0)
(-0.643301 -7.12316e-08 0)
(-0.640534 -7.02828e-08 0)
(-0.637803 -6.93547e-08 0)
(-0.635109 -6.84469e-08 0)
(-0.632449 -6.75586e-08 0)
(-0.629824 -6.66893e-08 0)
(-0.627232 -6.58384e-08 0)
(-0.624674 -6.50054e-08 0)
(-0.622147 -6.41898e-08 0)
(-0.619653 -6.33911e-08 0)
(-0.617189 -6.26088e-08 0)
(-0.614755 -6.18424e-08 0)
(-0.612351 -6.10916e-08 0)
(-0.609976 -6.03558e-08 0)
(-0.60763 -5.96346e-08 0)
(-0.605312 -5.89277e-08 0)
(-0.603021 -5.82347e-08 0)
(-0.600756 -5.75552e-08 0)
(-0.598519 -5.68888e-08 0)
(-0.596307 -5.62352e-08 0)
(-0.59412 -5.55941e-08 0)
(-0.591958 -5.49652e-08 0)
(-0.58982 -5.43481e-08 0)
(-0.587707 -5.37425e-08 0)
(-0.585616 -5.31482e-08 0)
(-0.583549 -5.25649e-08 0)
(-0.581505 -5.19924e-08 0)
(-0.579482 -5.14303e-08 0)
(-0.577482 -5.08784e-08 0)
(-0.575503 -5.03364e-08 0)
(-0.573544 -4.98043e-08 0)
(-0.571607 -4.92817e-08 0)
(-0.56969 -4.87684e-08 0)
(-0.567792 -4.82642e-08 0)
(-0.565914 -4.7769e-08 0)
(-0.564056 -4.72825e-08 0)
(-0.562216 -4.68046e-08 0)
(-0.560395 -4.63352e-08 0)
(-0.558591 -4.58741e-08 0)
(-0.556806 -4.54211e-08 0)
(-0.555039 -4.49761e-08 0)
(-0.553288 -4.45391e-08 0)
(-0.551555 -4.411e-08 0)
(-0.549838 -4.36886e-08 0)
(-0.548137 -4.32751e-08 0)
(-0.546453 -4.28693e-08 0)
(-0.544784 -4.24713e-08 0)
(-0.543131 -4.20813e-08 0)
(-0.541493 -4.16994e-08 0)
(-0.539869 -4.13259e-08 0)
(-0.53826 -4.09612e-08 0)
(-0.536665 -4.06059e-08 0)
(-0.535084 -4.0261e-08 0)
(-0.533516 -3.99277e-08 0)
(-0.531961 -3.96075e-08 0)
(-0.530418 -3.93035e-08 0)
(-0.528887 -3.90276e-08 0)
(-0.527365 -3.87516e-08 0)
(-0.525856 -3.85314e-08 0)
(-0.524351 -3.8584e-08 0)
(-0.522838 -3.79316e-08 0)
(-0.521385 -3.70621e-08 0)
(-0.519938 -4.90261e-08 0)
(-0.51755 -1.3573e-08 0)
(-0.518888 -3.60927e-08 0)
(-0.514684 -5.46782e-08 0)
)
;
    }
    symmetry
    {
        type            symmetryPlane;
    }
    frontAndBack
    {
        type            empty;
    }
}


// ************************************************************************* //
