/*--------------------------------*- C++ -*----------------------------------*\
| =========                 |                                                 |
| \\      /  F ield         | OpenFOAM: The Open Source CFD Toolbox           |
|  \\    /   O peration     | Version:  v2012                                 |
|   \\  /    A nd           | Website:  www.openfoam.com                      |
|    \\/     M anipulation  |                                                 |
\*---------------------------------------------------------------------------*/
FoamFile
{
    version     2.0;
    format      ascii;
    class       volScalarField;
    location    "5.5";
    object      k;
}
// * * * * * * * * * * * * * * * * * * * * * * * * * * * * * * * * * * * * * //

dimensions      [0 2 -2 0 0 0 0];


internalField   nonuniform List<scalar> 
209825
(
0.00104304
0.00102782
0.00102339
0.0010216
0.00102069
0.0010202
0.0010199
0.00101972
0.00101959
0.00101952
0.00101945
0.00101942
0.00101939
0.00101937
0.00101936
0.00101935
0.00101933
0.00101933
0.00101933
0.00101933
0.00101932
0.00101933
0.00101933
0.00101934
0.00101933
0.00101935
0.00101935
0.00101936
0.00101936
0.00101937
0.00101937
0.0010194
0.0010194
0.00101944
0.00101944
0.00101945
0.00101945
0.00101947
0.00101947
0.00101948
0.00101948
0.00101952
0.00101952
0.00101952
0.00101952
0.00101955
0.00101955
0.00101958
0.00101958
0.0010196
0.0010196
0.00101967
0.00101967
0.00101967
0.00101965
0.00101966
0.00101966
0.00101974
0.00101976
0.00101976
0.00101976
0.00101983
0.00101983
0.00101983
0.00101982
0.0010199
0.00101997
0.00101997
0.00101997
0.00101997
0.00102012
0.00102016
0.00102016
0.00102026
0.00102036
0.00102036
0.00102036
0.0010205
0.00102064
0.00102073
0.00102083
0.00102099
0.00102112
0.00102129
0.0010216
0.00102183
0.00102217
0.0010226
0.00102326
0.00102389
0.00102534
0.00102637
0.00102992
0.00103985
0.00109677
0.00207962
0.00104303
0.0010278
0.00102336
0.00102157
0.00102066
0.00102017
0.00101986
0.00101969
0.00101956
0.00101949
0.00101942
0.00101939
0.00101936
0.00101934
0.00101933
0.00101932
0.0010193
0.0010193
0.0010193
0.0010193
0.00101929
0.0010193
0.0010193
0.0010193
0.0010193
0.00101932
0.00101932
0.00101933
0.00101933
0.00101934
0.00101934
0.00101936
0.00101936
0.00101941
0.00101941
0.00101941
0.00101941
0.00101944
0.00101944
0.00101945
0.00101945
0.00101948
0.00101948
0.00101949
0.00101949
0.00101952
0.00101952
0.00101955
0.00101955
0.00101957
0.00101957
0.00101963
0.00101963
0.00101963
0.00101962
0.00101963
0.00101963
0.00101971
0.00101973
0.00101973
0.00101973
0.00101979
0.00101979
0.00101979
0.00101979
0.00101987
0.00101994
0.00101994
0.00101994
0.00101993
0.00102008
0.00102013
0.00102013
0.00102023
0.00102032
0.00102032
0.00102032
0.00102046
0.00102061
0.0010207
0.0010208
0.00102095
0.00102109
0.00102126
0.00102157
0.0010218
0.00102214
0.00102257
0.00102323
0.00102386
0.00102532
0.00102634
0.00102989
0.00103985
0.00109682
0.00208089
0.00104299
0.00102772
0.00102326
0.00102145
0.00102053
0.00102005
0.00101973
0.00101956
0.00101942
0.00101935
0.00101929
0.00101925
0.00101922
0.0010192
0.00101919
0.00101918
0.00101916
0.00101916
0.00101916
0.00101916
0.00101915
0.00101916
0.00101916
0.00101916
0.00101916
0.00101918
0.00101918
0.00101919
0.00101919
0.0010192
0.0010192
0.00101923
0.00101922
0.00101927
0.00101927
0.00101928
0.00101928
0.0010193
0.0010193
0.00101931
0.00101931
0.00101935
0.00101935
0.00101935
0.00101935
0.00101938
0.00101938
0.00101941
0.00101941
0.00101943
0.00101943
0.0010195
0.0010195
0.0010195
0.00101948
0.00101949
0.00101949
0.00101957
0.00101959
0.00101959
0.00101959
0.00101966
0.00101966
0.00101966
0.00101965
0.00101973
0.0010198
0.0010198
0.0010198
0.0010198
0.00101995
0.00101999
0.00101999
0.00102009
0.00102019
0.00102019
0.00102019
0.00102033
0.00102047
0.00102057
0.00102067
0.00102082
0.00102096
0.00102113
0.00102144
0.00102167
0.00102201
0.00102244
0.0010231
0.00102373
0.00102519
0.00102622
0.00102977
0.00103978
0.00109687
0.00208422
0.00104293
0.00102758
0.00102308
0.00102125
0.00102032
0.00101983
0.00101951
0.00101933
0.0010192
0.00101912
0.00101906
0.00101902
0.00101899
0.00101897
0.00101895
0.00101895
0.00101893
0.00101893
0.00101893
0.00101893
0.00101892
0.00101892
0.00101892
0.00101893
0.00101893
0.00101894
0.00101894
0.00101895
0.00101895
0.00101897
0.00101897
0.00101899
0.00101899
0.00101904
0.00101904
0.00101904
0.00101904
0.00101907
0.00101907
0.00101908
0.00101908
0.00101911
0.00101911
0.00101912
0.00101912
0.00101915
0.00101915
0.00101918
0.00101918
0.0010192
0.0010192
0.00101926
0.00101926
0.00101926
0.00101925
0.00101926
0.00101926
0.00101934
0.00101936
0.00101936
0.00101936
0.00101943
0.00101943
0.00101943
0.00101942
0.0010195
0.00101957
0.00101957
0.00101957
0.00101957
0.00101972
0.00101976
0.00101976
0.00101986
0.00101996
0.00101996
0.00101996
0.0010201
0.00102025
0.00102034
0.00102044
0.0010206
0.00102073
0.0010209
0.00102121
0.00102145
0.00102179
0.00102222
0.00102289
0.00102352
0.00102498
0.00102602
0.00102955
0.00103967
0.00109695
0.00208884
0.00104284
0.00102738
0.00102282
0.00102097
0.00102002
0.00101952
0.0010192
0.00101901
0.00101887
0.0010188
0.00101873
0.00101869
0.00101866
0.00101864
0.00101863
0.00101862
0.0010186
0.0010186
0.0010186
0.0010186
0.00101859
0.00101859
0.00101859
0.0010186
0.0010186
0.00101861
0.00101861
0.00101862
0.00101862
0.00101864
0.00101864
0.00101866
0.00101866
0.00101871
0.00101871
0.00101871
0.00101871
0.00101874
0.00101874
0.00101875
0.00101875
0.00101878
0.00101878
0.00101879
0.00101879
0.00101882
0.00101882
0.00101885
0.00101885
0.00101887
0.00101887
0.00101894
0.00101894
0.00101893
0.00101892
0.00101893
0.00101893
0.00101901
0.00101903
0.00101903
0.00101903
0.0010191
0.0010191
0.0010191
0.00101909
0.00101918
0.00101924
0.00101925
0.00101925
0.00101924
0.00101939
0.00101944
0.00101944
0.00101954
0.00101964
0.00101964
0.00101964
0.00101978
0.00101993
0.00102002
0.00102012
0.00102028
0.00102042
0.00102059
0.0010209
0.00102114
0.00102148
0.00102191
0.00102258
0.00102322
0.00102468
0.00102573
0.00102925
0.00103952
0.00109707
0.00209472
0.00104272
0.00102711
0.00102249
0.00102061
0.00101964
0.00101912
0.00101879
0.0010186
0.00101846
0.00101838
0.00101831
0.00101827
0.00101823
0.00101822
0.0010182
0.00101819
0.00101817
0.00101817
0.00101817
0.00101817
0.00101816
0.00101817
0.00101817
0.00101817
0.00101817
0.00101818
0.00101818
0.00101819
0.00101819
0.00101821
0.00101821
0.00101823
0.00101823
0.00101828
0.00101828
0.00101828
0.00101828
0.00101831
0.00101831
0.00101832
0.00101832
0.00101836
0.00101836
0.00101836
0.00101836
0.00101839
0.00101839
0.00101842
0.00101842
0.00101844
0.00101844
0.00101851
0.00101851
0.00101851
0.00101849
0.00101851
0.00101851
0.00101859
0.00101861
0.00101861
0.00101861
0.00101868
0.00101868
0.00101868
0.00101867
0.00101875
0.00101882
0.00101882
0.00101882
0.00101882
0.00101897
0.00101902
0.00101902
0.00101912
0.00101922
0.00101922
0.00101922
0.00101936
0.00101951
0.00101961
0.00101971
0.00101987
0.00102001
0.00102018
0.00102049
0.00102074
0.00102108
0.00102151
0.00102219
0.00102283
0.00102429
0.00102536
0.00102885
0.00103931
0.00109723
0.00210179
0.00104258
0.00102679
0.00102208
0.00102016
0.00101916
0.00101863
0.00101829
0.00101809
0.00101794
0.00101786
0.00101779
0.00101775
0.00101771
0.00101769
0.00101767
0.00101766
0.00101764
0.00101764
0.00101764
0.00101764
0.00101763
0.00101764
0.00101764
0.00101764
0.00101764
0.00101765
0.00101765
0.00101766
0.00101766
0.00101768
0.00101768
0.0010177
0.0010177
0.00101775
0.00101775
0.00101776
0.00101776
0.00101778
0.00101778
0.00101779
0.00101779
0.00101783
0.00101783
0.00101784
0.00101784
0.00101786
0.00101786
0.0010179
0.0010179
0.00101791
0.00101791
0.00101799
0.00101799
0.00101798
0.00101797
0.00101798
0.00101798
0.00101806
0.00101808
0.00101808
0.00101808
0.00101815
0.00101815
0.00101815
0.00101815
0.00101823
0.0010183
0.0010183
0.0010183
0.0010183
0.00101846
0.0010185
0.0010185
0.0010186
0.00101871
0.00101871
0.00101871
0.00101885
0.001019
0.0010191
0.0010192
0.00101936
0.0010195
0.00101968
0.00101999
0.00102024
0.00102058
0.00102102
0.0010217
0.00102235
0.00102381
0.00102489
0.00102835
0.00103905
0.00109744
0.00210989
0.00104241
0.00102641
0.0010216
0.00101962
0.00101859
0.00101804
0.00101769
0.00101748
0.00101733
0.00101724
0.00101717
0.00101713
0.00101709
0.00101707
0.00101705
0.00101704
0.00101701
0.00101702
0.00101701
0.00101701
0.001017
0.00101701
0.00101701
0.00101701
0.00101701
0.00101702
0.00101702
0.00101703
0.00101703
0.00101705
0.00101705
0.00101707
0.00101707
0.00101712
0.00101712
0.00101713
0.00101713
0.00101715
0.00101715
0.00101716
0.00101716
0.0010172
0.0010172
0.00101721
0.00101721
0.00101724
0.00101724
0.00101727
0.00101727
0.00101729
0.00101729
0.00101736
0.00101736
0.00101736
0.00101734
0.00101736
0.00101736
0.00101744
0.00101746
0.00101746
0.00101746
0.00101753
0.00101753
0.00101753
0.00101753
0.00101761
0.00101768
0.00101769
0.00101768
0.00101768
0.00101784
0.00101788
0.00101788
0.00101799
0.00101809
0.00101809
0.00101809
0.00101824
0.00101839
0.00101849
0.0010186
0.00101876
0.0010189
0.00101907
0.00101939
0.00101965
0.00101999
0.00102043
0.00102112
0.00102177
0.00102324
0.00102434
0.00102776
0.00103875
0.0010977
0.00211876
0.00104222
0.00102597
0.00102104
0.001019
0.00101793
0.00101736
0.00101699
0.00101677
0.00101661
0.00101652
0.00101644
0.0010164
0.00101636
0.00101634
0.00101632
0.00101631
0.00101628
0.00101628
0.00101628
0.00101628
0.00101627
0.00101627
0.00101627
0.00101628
0.00101627
0.00101629
0.00101629
0.0010163
0.0010163
0.00101632
0.00101632
0.00101634
0.00101634
0.00101639
0.00101639
0.00101639
0.00101639
0.00101642
0.00101642
0.00101643
0.00101643
0.00101647
0.00101647
0.00101648
0.00101648
0.0010165
0.0010165
0.00101654
0.00101654
0.00101656
0.00101656
0.00101663
0.00101663
0.00101663
0.00101661
0.00101663
0.00101663
0.00101671
0.00101673
0.00101673
0.00101673
0.00101681
0.00101681
0.0010168
0.0010168
0.00101688
0.00101695
0.00101696
0.00101696
0.00101696
0.00101712
0.00101716
0.00101716
0.00101727
0.00101738
0.00101738
0.00101738
0.00101752
0.00101768
0.00101778
0.00101789
0.00101805
0.00101819
0.00101837
0.00101869
0.00101895
0.0010193
0.00101975
0.00102044
0.0010211
0.00102257
0.00102369
0.00102707
0.0010384
0.00109799
0.00212804
0.001042
0.00102546
0.0010204
0.00101828
0.00101718
0.00101658
0.00101619
0.00101597
0.0010158
0.0010157
0.00101562
0.00101557
0.00101553
0.0010155
0.00101548
0.00101547
0.00101545
0.00101545
0.00101544
0.00101544
0.00101543
0.00101543
0.00101543
0.00101544
0.00101543
0.00101545
0.00101545
0.00101546
0.00101546
0.00101548
0.00101548
0.0010155
0.0010155
0.00101555
0.00101555
0.00101555
0.00101555
0.00101558
0.00101558
0.00101559
0.00101559
0.00101563
0.00101563
0.00101564
0.00101564
0.00101567
0.00101567
0.0010157
0.0010157
0.00101572
0.00101572
0.00101579
0.00101579
0.00101579
0.00101578
0.00101579
0.00101579
0.00101588
0.0010159
0.0010159
0.0010159
0.00101597
0.00101598
0.00101597
0.00101597
0.00101606
0.00101613
0.00101614
0.00101614
0.00101613
0.00101629
0.00101634
0.00101634
0.00101644
0.00101656
0.00101656
0.00101656
0.00101671
0.00101686
0.00101697
0.00101708
0.00101725
0.00101739
0.00101757
0.0010179
0.00101816
0.00101851
0.00101897
0.00101966
0.00102033
0.0010218
0.00102295
0.00102628
0.00103799
0.0010983
0.00213715
0.00104175
0.00102489
0.00101968
0.00101748
0.00101633
0.0010157
0.00101529
0.00101505
0.00101488
0.00101477
0.00101468
0.00101463
0.00101459
0.00101456
0.00101454
0.00101453
0.0010145
0.0010145
0.0010145
0.0010145
0.00101448
0.00101449
0.00101449
0.00101449
0.00101448
0.0010145
0.0010145
0.00101451
0.00101451
0.00101453
0.00101453
0.00101455
0.00101455
0.0010146
0.0010146
0.00101461
0.00101461
0.00101463
0.00101463
0.00101465
0.00101465
0.00101469
0.00101469
0.00101469
0.00101469
0.00101472
0.00101472
0.00101476
0.00101476
0.00101478
0.00101478
0.00101485
0.00101485
0.00101485
0.00101484
0.00101485
0.00101485
0.00101494
0.00101496
0.00101496
0.00101496
0.00101504
0.00101504
0.00101504
0.00101503
0.00101512
0.00101519
0.00101521
0.00101521
0.0010152
0.00101536
0.00101541
0.00101541
0.00101552
0.00101564
0.00101564
0.00101564
0.00101578
0.00101594
0.00101605
0.00101617
0.00101634
0.00101648
0.00101666
0.00101699
0.00101726
0.00101762
0.00101808
0.00101878
0.00101945
0.00102094
0.00102212
0.00102538
0.00103754
0.0010986
0.00214535
0.00104148
0.00102427
0.00101888
0.00101659
0.00101538
0.00101472
0.00101429
0.00101404
0.00101385
0.00101374
0.00101364
0.00101359
0.00101354
0.00101351
0.00101349
0.00101347
0.00101345
0.00101345
0.00101344
0.00101344
0.00101343
0.00101343
0.00101343
0.00101343
0.00101342
0.00101344
0.00101344
0.00101345
0.00101345
0.00101347
0.00101347
0.00101349
0.00101349
0.00101355
0.00101355
0.00101355
0.00101355
0.00101358
0.00101358
0.00101359
0.00101359
0.00101363
0.00101363
0.00101364
0.00101364
0.00101367
0.00101367
0.00101371
0.00101371
0.00101373
0.00101373
0.0010138
0.0010138
0.0010138
0.00101378
0.0010138
0.0010138
0.00101389
0.00101392
0.00101392
0.00101391
0.00101399
0.00101399
0.00101399
0.00101399
0.00101407
0.00101415
0.00101417
0.00101417
0.00101416
0.00101432
0.00101437
0.00101437
0.00101448
0.00101461
0.00101461
0.00101461
0.00101475
0.00101492
0.00101503
0.00101515
0.00101532
0.00101547
0.00101565
0.00101599
0.00101626
0.00101662
0.00101709
0.00101779
0.00101848
0.00101996
0.00102118
0.00102438
0.00103703
0.00109883
0.00215161
0.00104119
0.00102358
0.00101799
0.00101561
0.00101434
0.00101364
0.00101319
0.00101291
0.00101272
0.00101259
0.0010125
0.00101244
0.00101238
0.00101235
0.00101233
0.00101231
0.00101228
0.00101228
0.00101228
0.00101227
0.00101226
0.00101226
0.00101226
0.00101226
0.00101225
0.00101227
0.00101227
0.00101228
0.00101228
0.0010123
0.0010123
0.00101232
0.00101232
0.00101238
0.00101238
0.00101238
0.00101238
0.00101241
0.00101241
0.00101242
0.00101242
0.00101247
0.00101247
0.00101247
0.00101247
0.00101251
0.00101251
0.00101255
0.00101255
0.00101256
0.00101256
0.00101264
0.00101264
0.00101264
0.00101262
0.00101264
0.00101264
0.00101273
0.00101276
0.00101276
0.00101276
0.00101284
0.00101284
0.00101284
0.00101283
0.00101292
0.001013
0.00101302
0.00101301
0.00101301
0.00101318
0.00101322
0.00101322
0.00101333
0.00101347
0.00101347
0.00101347
0.00101361
0.00101378
0.0010139
0.00101403
0.0010142
0.00101435
0.00101453
0.00101487
0.00101516
0.00101552
0.00101599
0.0010167
0.0010174
0.00101889
0.00102014
0.00102326
0.00103647
0.00109898
0.00215589
0.00104087
0.00102283
0.00101703
0.00101453
0.0010132
0.00101246
0.00101197
0.00101168
0.00101147
0.00101134
0.00101123
0.00101117
0.00101111
0.00101108
0.00101105
0.00101103
0.00101101
0.001011
0.001011
0.00101099
0.00101097
0.00101098
0.00101098
0.00101098
0.00101097
0.00101099
0.00101099
0.001011
0.001011
0.00101101
0.00101101
0.00101104
0.00101104
0.0010111
0.0010111
0.0010111
0.0010111
0.00101113
0.00101113
0.00101114
0.00101114
0.00101119
0.00101119
0.00101119
0.00101119
0.00101123
0.00101123
0.00101127
0.00101127
0.00101128
0.00101128
0.00101136
0.00101136
0.00101136
0.00101135
0.00101137
0.00101137
0.00101145
0.00101149
0.00101149
0.00101149
0.00101157
0.00101157
0.00101157
0.00101156
0.00101165
0.00101173
0.00101175
0.00101175
0.00101175
0.00101191
0.00101197
0.00101197
0.00101208
0.00101221
0.00101222
0.00101222
0.00101236
0.00101254
0.00101266
0.00101279
0.00101296
0.00101311
0.00101331
0.00101365
0.00101394
0.00101431
0.00101479
0.00101551
0.00101622
0.0010177
0.001019
0.00102204
0.00103586
0.00109904
0.00215818
0.00104053
0.00102201
0.00101598
0.00101336
0.00101195
0.00101116
0.00101065
0.00101034
0.00101011
0.00100997
0.00100986
0.00100979
0.00100973
0.00100969
0.00100966
0.00100964
0.00100961
0.00100961
0.0010096
0.00100959
0.00100958
0.00100958
0.00100958
0.00100958
0.00100957
0.00100959
0.00100959
0.0010096
0.0010096
0.00100961
0.00100961
0.00100964
0.00100964
0.0010097
0.0010097
0.0010097
0.0010097
0.00100973
0.00100973
0.00100974
0.00100974
0.00100979
0.00100979
0.0010098
0.0010098
0.00100983
0.00100983
0.00100987
0.00100987
0.00100989
0.00100989
0.00100997
0.00100997
0.00100997
0.00100996
0.00100998
0.00100998
0.00101007
0.0010101
0.0010101
0.0010101
0.00101018
0.00101018
0.00101018
0.00101018
0.00101027
0.00101035
0.00101038
0.00101037
0.00101037
0.00101054
0.00101059
0.00101059
0.0010107
0.00101085
0.00101085
0.00101085
0.001011
0.00101118
0.0010113
0.00101144
0.00101161
0.00101177
0.00101196
0.00101231
0.00101261
0.00101299
0.00101348
0.0010142
0.00101492
0.00101641
0.00101775
0.0010207
0.00103518
0.00109901
0.00215849
0.00104017
0.00102114
0.00101486
0.00101209
0.00101061
0.00100977
0.00100922
0.00100889
0.00100864
0.00100849
0.00100837
0.00100829
0.00100823
0.00100819
0.00100815
0.00100813
0.0010081
0.00100809
0.00100809
0.00100808
0.00100806
0.00100806
0.00100806
0.00100806
0.00100805
0.00100807
0.00100807
0.00100808
0.00100808
0.00100809
0.00100809
0.00100812
0.00100812
0.00100818
0.00100818
0.00100818
0.00100818
0.00100822
0.00100822
0.00100823
0.00100823
0.00100828
0.00100828
0.00100828
0.00100828
0.00100832
0.00100832
0.00100836
0.00100836
0.00100838
0.00100838
0.00100846
0.00100846
0.00100846
0.00100845
0.00100847
0.00100847
0.00100856
0.0010086
0.0010086
0.00100859
0.00100868
0.00100868
0.00100868
0.00100868
0.00100877
0.00100885
0.00100888
0.00100888
0.00100888
0.00100905
0.0010091
0.0010091
0.00100922
0.00100937
0.00100937
0.00100937
0.00100952
0.0010097
0.00100983
0.00100998
0.00101015
0.00101031
0.00101051
0.00101086
0.00101117
0.00101155
0.00101205
0.00101278
0.00101352
0.001015
0.0010164
0.00101924
0.00103444
0.00109887
0.00215683
0.00103978
0.0010202
0.00101364
0.00101073
0.00100916
0.00100826
0.00100768
0.00100732
0.00100706
0.00100689
0.00100676
0.00100668
0.00100661
0.00100656
0.00100652
0.0010065
0.00100647
0.00100646
0.00100645
0.00100644
0.00100642
0.00100642
0.00100642
0.00100642
0.00100641
0.00100643
0.00100643
0.00100644
0.00100643
0.00100645
0.00100645
0.00100648
0.00100648
0.00100654
0.00100654
0.00100654
0.00100654
0.00100658
0.00100658
0.00100659
0.00100659
0.00100664
0.00100664
0.00100665
0.00100665
0.00100669
0.00100669
0.00100673
0.00100673
0.00100675
0.00100675
0.00100683
0.00100683
0.00100683
0.00100682
0.00100684
0.00100684
0.00100693
0.00100697
0.00100697
0.00100697
0.00100706
0.00100706
0.00100706
0.00100706
0.00100715
0.00100723
0.00100727
0.00100727
0.00100726
0.00100744
0.00100749
0.00100749
0.00100761
0.00100777
0.00100777
0.00100777
0.00100792
0.00100811
0.00100825
0.00100839
0.00100857
0.00100874
0.00100894
0.00100929
0.00100961
0.00101
0.0010105
0.00101124
0.00101199
0.00101348
0.00101493
0.00101766
0.00103364
0.00109864
0.0021532
0.00103937
0.00101921
0.00101235
0.00100928
0.0010076
0.00100665
0.00100602
0.00100564
0.00100535
0.00100518
0.00100503
0.00100494
0.00100486
0.00100482
0.00100477
0.00100475
0.00100471
0.0010047
0.00100469
0.00100468
0.00100466
0.00100466
0.00100466
0.00100466
0.00100464
0.00100466
0.00100466
0.00100467
0.00100467
0.00100469
0.00100469
0.00100471
0.00100471
0.00100478
0.00100478
0.00100478
0.00100478
0.00100482
0.00100482
0.00100483
0.00100483
0.00100488
0.00100488
0.00100489
0.00100489
0.00100493
0.00100493
0.00100498
0.00100498
0.00100499
0.00100499
0.00100508
0.00100508
0.00100508
0.00100506
0.00100509
0.00100509
0.00100518
0.00100523
0.00100523
0.00100522
0.00100531
0.00100532
0.00100532
0.00100531
0.0010054
0.00100549
0.00100553
0.00100553
0.00100553
0.0010057
0.00100576
0.00100576
0.00100588
0.00100604
0.00100605
0.00100605
0.0010062
0.0010064
0.00100654
0.00100669
0.00100688
0.00100704
0.00100724
0.0010076
0.00100793
0.00100833
0.00100884
0.00100959
0.00101036
0.00101183
0.00101335
0.00101596
0.00103277
0.00109829
0.00214763
0.00103895
0.00101815
0.00101097
0.00100772
0.00100595
0.00100492
0.00100425
0.00100384
0.00100353
0.00100334
0.00100318
0.00100308
0.001003
0.00100295
0.0010029
0.00100287
0.00100283
0.00100282
0.00100281
0.0010028
0.00100278
0.00100278
0.00100278
0.00100277
0.00100275
0.00100277
0.00100277
0.00100278
0.00100278
0.0010028
0.0010028
0.00100282
0.00100282
0.00100289
0.00100289
0.00100289
0.00100289
0.00100293
0.00100293
0.00100294
0.00100294
0.001003
0.001003
0.001003
0.001003
0.00100305
0.00100305
0.0010031
0.0010031
0.00100311
0.00100311
0.0010032
0.0010032
0.0010032
0.00100319
0.00100321
0.00100321
0.00100331
0.00100335
0.00100335
0.00100335
0.00100344
0.00100345
0.00100345
0.00100345
0.00100354
0.00100363
0.00100367
0.00100367
0.00100367
0.00100385
0.00100391
0.00100391
0.00100403
0.0010042
0.00100421
0.00100421
0.00100436
0.00100456
0.00100471
0.00100487
0.00100506
0.00100522
0.00100543
0.00100579
0.00100614
0.00100654
0.00100706
0.00100781
0.0010086
0.00101007
0.00101165
0.00101414
0.00103182
0.00109783
0.00214014
0.0010385
0.00101703
0.00100951
0.00100607
0.00100418
0.00100309
0.00100237
0.00100192
0.00100159
0.00100138
0.00100121
0.0010011
0.00100101
0.00100095
0.0010009
0.00100087
0.00100083
0.00100081
0.0010008
0.00100079
0.00100076
0.00100076
0.00100076
0.00100076
0.00100074
0.00100076
0.00100076
0.00100076
0.00100076
0.00100078
0.00100078
0.0010008
0.0010008
0.00100088
0.00100088
0.00100088
0.00100088
0.00100092
0.00100092
0.00100093
0.00100093
0.00100099
0.00100099
0.00100099
0.00100099
0.00100104
0.00100104
0.00100109
0.00100109
0.0010011
0.0010011
0.0010012
0.0010012
0.0010012
0.00100118
0.00100121
0.00100121
0.00100131
0.00100136
0.00100136
0.00100135
0.00100144
0.00100146
0.00100146
0.00100145
0.00100154
0.00100164
0.00100169
0.00100169
0.00100169
0.00100187
0.00100193
0.00100193
0.00100205
0.00100223
0.00100224
0.00100224
0.0010024
0.0010026
0.00100275
0.00100292
0.00100311
0.00100328
0.00100349
0.00100386
0.00100422
0.00100463
0.00100516
0.00100592
0.00100672
0.00100818
0.00100983
0.00101219
0.00103079
0.00109725
0.00213079
0.00103804
0.00101586
0.00100796
0.00100432
0.00100231
0.00100113
0.00100036
0.000999877
0.000999522
0.000999292
0.00099911
0.000998992
0.000998891
0.000998828
0.000998771
0.000998735
0.000998691
0.000998675
0.000998662
0.000998649
0.000998622
0.000998621
0.000998619
0.000998613
0.000998589
0.000998608
0.000998607
0.000998616
0.000998614
0.000998632
0.000998632
0.000998656
0.000998655
0.000998731
0.000998731
0.000998734
0.000998732
0.000998774
0.000998774
0.000998786
0.000998786
0.000998846
0.000998846
0.000998852
0.00099885
0.0009989
0.0009989
0.000998952
0.000998951
0.000998964
0.000998964
0.000999064
0.000999065
0.000999064
0.000999047
0.000999075
0.000999074
0.000999177
0.000999229
0.000999229
0.000999227
0.000999318
0.000999334
0.000999334
0.000999329
0.00099942
0.000999517
0.000999574
0.000999574
0.000999573
0.000999757
0.00099982
0.000999821
0.00099994
0.00100013
0.00100015
0.00100015
0.0010003
0.00100051
0.00100067
0.00100085
0.00100104
0.00100122
0.00100143
0.0010018
0.00100217
0.00100259
0.00100313
0.00100389
0.00100471
0.00100616
0.00100789
0.00101011
0.00102967
0.00109654
0.00211961
0.00103755
0.00101462
0.00100633
0.00100247
0.00100033
0.000999068
0.00099824
0.000997714
0.000997331
0.00099708
0.000996883
0.000996753
0.000996644
0.000996574
0.000996512
0.000996472
0.000996425
0.000996406
0.00099639
0.000996377
0.000996348
0.000996346
0.000996343
0.000996336
0.000996308
0.000996327
0.000996327
0.000996335
0.000996333
0.000996351
0.000996351
0.000996375
0.000996374
0.000996453
0.000996453
0.000996455
0.000996453
0.000996498
0.000996498
0.000996509
0.000996509
0.000996573
0.000996572
0.000996577
0.000996576
0.000996628
0.000996628
0.000996682
0.000996682
0.000996695
0.000996694
0.000996798
0.000996798
0.000996797
0.000996781
0.00099681
0.000996809
0.000996914
0.00099697
0.00099697
0.000996968
0.000997061
0.00099708
0.000997079
0.000997075
0.000997166
0.000997266
0.000997329
0.00099733
0.000997328
0.000997515
0.000997581
0.000997582
0.000997702
0.0009979
0.00099792
0.000997919
0.000998075
0.000998291
0.000998455
0.00099864
0.000998839
0.000999019
0.000999236
0.000999613
0.000999991
0.00100042
0.00100097
0.00100174
0.00100257
0.00100402
0.00100582
0.00100789
0.00102846
0.00109569
0.00210667
0.00103706
0.00101333
0.00100462
0.00100053
0.000998235
0.000996886
0.000995996
0.000995427
0.000995013
0.00099474
0.000994526
0.000994384
0.000994265
0.000994187
0.000994119
0.000994076
0.000994024
0.000994002
0.000993985
0.00099397
0.000993939
0.000993936
0.000993932
0.000993923
0.000993893
0.000993912
0.000993912
0.000993919
0.000993917
0.000993935
0.000993935
0.000993958
0.000993957
0.000994039
0.000994039
0.000994041
0.000994039
0.000994086
0.000994086
0.000994097
0.000994097
0.000994164
0.000994163
0.000994168
0.000994166
0.000994222
0.000994222
0.000994278
0.000994278
0.00099429
0.000994289
0.000994397
0.000994397
0.000994396
0.00099438
0.00099441
0.000994409
0.000994516
0.000994577
0.000994577
0.000994574
0.000994669
0.000994691
0.00099469
0.000994686
0.000994778
0.00099488
0.000994951
0.000994952
0.00099495
0.000995141
0.000995209
0.00099521
0.000995331
0.000995537
0.000995561
0.00099556
0.000995718
0.00099594
0.00099611
0.000996303
0.000996507
0.00099669
0.000996911
0.000997293
0.000997682
0.000998118
0.000998678
0.000999453
0.00100031
0.00100174
0.00100363
0.00100554
0.00102715
0.0010947
0.00209203
0.00103655
0.00101199
0.00100283
0.000998479
0.000996034
0.000994587
0.000993629
0.000993015
0.000992566
0.00099227
0.000992037
0.000991882
0.000991752
0.000991666
0.000991592
0.000991543
0.000991488
0.000991463
0.000991443
0.000991426
0.000991394
0.000991389
0.000991384
0.000991374
0.00099134
0.000991359
0.000991359
0.000991366
0.000991363
0.000991381
0.000991381
0.000991404
0.000991403
0.000991488
0.000991488
0.00099149
0.000991487
0.000991536
0.000991536
0.000991547
0.000991547
0.000991617
0.000991617
0.000991621
0.000991619
0.000991679
0.000991679
0.000991737
0.000991736
0.000991748
0.000991747
0.000991858
0.000991858
0.000991858
0.000991841
0.000991874
0.000991873
0.000991982
0.000992047
0.000992047
0.000992044
0.00099214
0.000992166
0.000992165
0.000992161
0.000992253
0.000992358
0.000992437
0.000992437
0.000992437
0.00099263
0.000992702
0.000992702
0.000992824
0.000993039
0.000993067
0.000993066
0.000993225
0.000993453
0.000993629
0.000993832
0.000994041
0.000994228
0.000994453
0.000994838
0.00099524
0.000995684
0.000996254
0.000997034
0.00099791
0.000999323
0.0010013
0.00100305
0.00102572
0.00109355
0.00207575
0.00103602
0.00101058
0.00100095
0.000996333
0.000993723
0.00099217
0.00099114
0.000990475
0.00098999
0.000989667
0.000989414
0.000989244
0.000989103
0.000989009
0.000988927
0.000988874
0.000988814
0.000988785
0.000988763
0.000988744
0.000988709
0.000988702
0.000988696
0.000988685
0.000988648
0.000988666
0.000988666
0.000988673
0.00098867
0.000988687
0.000988687
0.00098871
0.000988708
0.000988797
0.000988797
0.000988799
0.000988795
0.000988847
0.000988847
0.000988858
0.000988857
0.000988931
0.000988931
0.000988935
0.000988932
0.000988997
0.000988997
0.000989056
0.000989056
0.000989067
0.000989065
0.00098918
0.000989181
0.00098918
0.000989164
0.000989198
0.000989197
0.000989308
0.000989378
0.000989378
0.000989375
0.000989472
0.000989503
0.000989502
0.000989497
0.000989589
0.000989697
0.000989784
0.000989785
0.000989785
0.000989982
0.000990056
0.000990056
0.000990179
0.000990403
0.000990435
0.000990434
0.000990594
0.000990829
0.000991012
0.000991223
0.000991438
0.000991628
0.000991857
0.000992246
0.000992661
0.000993113
0.000993694
0.000994478
0.000995374
0.000996768
0.000998831
0.00100043
0.00102417
0.00109224
0.00205791
0.00103549
0.00100913
0.000998991
0.000994088
0.000991301
0.000989634
0.000988525
0.000987807
0.000987282
0.000986931
0.000986656
0.00098647
0.000986316
0.000986213
0.000986123
0.000986064
0.000985999
0.000985967
0.000985941
0.00098592
0.000985883
0.000985874
0.000985867
0.000985854
0.000985814
0.000985832
0.000985832
0.000985838
0.000985834
0.000985851
0.000985851
0.000985874
0.000985871
0.000985964
0.000985964
0.000985965
0.00098596
0.000986015
0.000986015
0.000986026
0.000986025
0.000986103
0.000986102
0.000986106
0.000986103
0.000986172
0.000986173
0.000986234
0.000986233
0.000986243
0.000986241
0.000986361
0.000986361
0.00098636
0.000986344
0.00098638
0.000986379
0.000986493
0.000986567
0.000986567
0.000986565
0.000986663
0.000986698
0.000986697
0.000986692
0.000986784
0.000986895
0.00098699
0.000986992
0.000986992
0.000987192
0.00098727
0.00098727
0.000987393
0.000987626
0.000987663
0.000987662
0.000987824
0.000988064
0.000988254
0.000988475
0.000988695
0.00098889
0.000989122
0.000989515
0.000989942
0.000990402
0.000990994
0.000991782
0.000992699
0.000994072
0.000996225
0.000997656
0.00102249
0.00109076
0.0020386
0.00103494
0.00100762
0.000996952
0.000991743
0.000988768
0.000986978
0.000985785
0.000985009
0.000984442
0.000984059
0.000983761
0.000983558
0.000983389
0.000983276
0.000983178
0.000983112
0.000983042
0.000983005
0.000982976
0.000982953
0.000982913
0.000982903
0.000982894
0.00098288
0.000982836
0.000982853
0.000982853
0.000982858
0.000982853
0.000982871
0.00098287
0.000982892
0.000982889
0.000982986
0.000982986
0.000982986
0.000982981
0.000983039
0.000983039
0.000983049
0.000983048
0.00098313
0.000983129
0.000983132
0.000983129
0.000983203
0.000983204
0.000983266
0.000983266
0.000983276
0.000983273
0.000983397
0.000983397
0.000983396
0.00098338
0.000983418
0.000983417
0.000983533
0.000983612
0.000983613
0.00098361
0.000983709
0.000983749
0.000983748
0.000983743
0.000983836
0.000983948
0.000984053
0.000984056
0.000984056
0.00098426
0.00098434
0.000984341
0.000984464
0.000984705
0.000984748
0.000984748
0.00098491
0.000985157
0.000985353
0.000985584
0.000985811
0.000986009
0.000986246
0.000986641
0.000987081
0.000987549
0.000988152
0.000988943
0.000989881
0.000991232
0.000993475
0.000994741
0.00102066
0.00108909
0.00201789
0.00103438
0.00100607
0.000994833
0.0009893
0.000986123
0.000984202
0.000982919
0.000982079
0.000981466
0.000981051
0.000980727
0.000980504
0.000980321
0.000980196
0.000980089
0.000980016
0.00097994
0.000979898
0.000979866
0.00097984
0.000979798
0.000979785
0.000979775
0.000979759
0.000979711
0.000979727
0.000979727
0.000979732