/*--------------------------------*- C++ -*----------------------------------*\
| =========                 |                                                 |
| \\      /  F ield         | OpenFOAM: The Open Source CFD Toolbox           |
|  \\    /   O peration     | Version:  v2012                                 |
|   \\  /    A nd           | Website:  www.openfoam.com                      |
|    \\/     M anipulation  |                                                 |
\*---------------------------------------------------------------------------*/
FoamFile
{
    version     2.0;
    format      ascii;
    class       volScalarField;
    location    "5.5";
    object      nut;
}
// * * * * * * * * * * * * * * * * * * * * * * * * * * * * * * * * * * * * * //

dimensions      [0 2 -1 0 0 0 0];


internalField   nonuniform List<scalar> 
209825
(
1.25064e-07
1.2606e-07
1.26576e-07
1.26867e-07
1.27055e-07
1.27182e-07
1.27273e-07
1.2734e-07
1.27391e-07
1.27429e-07
1.2746e-07
1.27484e-07
1.27504e-07
1.27519e-07
1.27533e-07
1.27542e-07
1.2755e-07
1.27558e-07
1.27565e-07
1.27569e-07
1.27574e-07
1.27577e-07
1.27578e-07
1.27581e-07
1.27586e-07
1.27587e-07
1.27587e-07
1.27588e-07
1.27589e-07
1.27589e-07
1.27589e-07
1.27589e-07
1.27589e-07
1.27591e-07
1.27591e-07
1.27587e-07
1.27587e-07
1.27584e-07
1.27584e-07
1.27579e-07
1.27579e-07
1.27575e-07
1.27575e-07
1.27559e-07
1.27556e-07
1.27558e-07
1.27558e-07
1.27551e-07
1.27551e-07
1.2754e-07
1.2754e-07
1.2753e-07
1.27521e-07
1.27512e-07
1.2751e-07
1.275e-07
1.27491e-07
1.27496e-07
1.27496e-07
1.27496e-07
1.27496e-07
1.27493e-07
1.27493e-07
1.27475e-07
1.2747e-07
1.2748e-07
1.27488e-07
1.27472e-07
1.27472e-07
1.27451e-07
1.27458e-07
1.27452e-07
1.27443e-07
1.27455e-07
1.27467e-07
1.27446e-07
1.27441e-07
1.2744e-07
1.27457e-07
1.27468e-07
1.27461e-07
1.27481e-07
1.27473e-07
1.27471e-07
1.27506e-07
1.2751e-07
1.2752e-07
1.27547e-07
1.27581e-07
1.2762e-07
1.2771e-07
1.27774e-07
1.28015e-07
1.28649e-07
1.32428e-07
1.76948e-08
1.25063e-07
1.2606e-07
1.26576e-07
1.26868e-07
1.27056e-07
1.27183e-07
1.27274e-07
1.27341e-07
1.27392e-07
1.2743e-07
1.27461e-07
1.27485e-07
1.27505e-07
1.2752e-07
1.27534e-07
1.27543e-07
1.27551e-07
1.27559e-07
1.27566e-07
1.2757e-07
1.27575e-07
1.27578e-07
1.27579e-07
1.27582e-07
1.27587e-07
1.27588e-07
1.27588e-07
1.27589e-07
1.2759e-07
1.2759e-07
1.2759e-07
1.2759e-07
1.2759e-07
1.27592e-07
1.27592e-07
1.27588e-07
1.27588e-07
1.27586e-07
1.27586e-07
1.2758e-07
1.2758e-07
1.27576e-07
1.27576e-07
1.27561e-07
1.27557e-07
1.27559e-07
1.27559e-07
1.27552e-07
1.27552e-07
1.27541e-07
1.27541e-07
1.27531e-07
1.27522e-07
1.27514e-07
1.27511e-07
1.27502e-07
1.27493e-07
1.27497e-07
1.27498e-07
1.27497e-07
1.27497e-07
1.27494e-07
1.27495e-07
1.27476e-07
1.27471e-07
1.27481e-07
1.2749e-07
1.27473e-07
1.27473e-07
1.27452e-07
1.2746e-07
1.27453e-07
1.27444e-07
1.27456e-07
1.27469e-07
1.27447e-07
1.27443e-07
1.27441e-07
1.27458e-07
1.2747e-07
1.27463e-07
1.27482e-07
1.27475e-07
1.27472e-07
1.27507e-07
1.27511e-07
1.27521e-07
1.27549e-07
1.27582e-07
1.27621e-07
1.27712e-07
1.27776e-07
1.28017e-07
1.28652e-07
1.32435e-07
1.82161e-08
1.25062e-07
1.26058e-07
1.26574e-07
1.26866e-07
1.27054e-07
1.27182e-07
1.27273e-07
1.2734e-07
1.27391e-07
1.2743e-07
1.27461e-07
1.27485e-07
1.27505e-07
1.2752e-07
1.27534e-07
1.27544e-07
1.27552e-07
1.27559e-07
1.27566e-07
1.2757e-07
1.27575e-07
1.27578e-07
1.2758e-07
1.27583e-07
1.27587e-07
1.27588e-07
1.27588e-07
1.27589e-07
1.27591e-07
1.2759e-07
1.2759e-07
1.2759e-07
1.2759e-07
1.27593e-07
1.27593e-07
1.27589e-07
1.27589e-07
1.27586e-07
1.27586e-07
1.27581e-07
1.27581e-07
1.27577e-07
1.27577e-07
1.27561e-07
1.27558e-07
1.2756e-07
1.27559e-07
1.27553e-07
1.27553e-07
1.27541e-07
1.27541e-07
1.27531e-07
1.27523e-07
1.27514e-07
1.27512e-07
1.27502e-07
1.27493e-07
1.27497e-07
1.27498e-07
1.27498e-07
1.27498e-07
1.27495e-07
1.27495e-07
1.27477e-07
1.27472e-07
1.27482e-07
1.2749e-07
1.27473e-07
1.27473e-07
1.27452e-07
1.2746e-07
1.27453e-07
1.27444e-07
1.27457e-07
1.27469e-07
1.27448e-07
1.27443e-07
1.27442e-07
1.27459e-07
1.2747e-07
1.27463e-07
1.27483e-07
1.27475e-07
1.27473e-07
1.27508e-07
1.27512e-07
1.27522e-07
1.2755e-07
1.27584e-07
1.27622e-07
1.27713e-07
1.27777e-07
1.28018e-07
1.28658e-07
1.3245e-07
1.88694e-08
1.25059e-07
1.26054e-07
1.2657e-07
1.26863e-07
1.27052e-07
1.2718e-07
1.27272e-07
1.27339e-07
1.27391e-07
1.2743e-07
1.27461e-07
1.27485e-07
1.27505e-07
1.27521e-07
1.27534e-07
1.27544e-07
1.27552e-07
1.2756e-07
1.27567e-07
1.27571e-07
1.27576e-07
1.27579e-07
1.27581e-07
1.27584e-07
1.27588e-07
1.27589e-07
1.2759e-07
1.27591e-07
1.27592e-07
1.27592e-07
1.27592e-07
1.27592e-07
1.27592e-07
1.27594e-07
1.27594e-07
1.2759e-07
1.2759e-07
1.27588e-07
1.27588e-07
1.27582e-07
1.27582e-07
1.27578e-07
1.27578e-07
1.27563e-07
1.27559e-07
1.27561e-07
1.27561e-07
1.27554e-07
1.27554e-07
1.27543e-07
1.27543e-07
1.27533e-07
1.27524e-07
1.27516e-07
1.27513e-07
1.27504e-07
1.27495e-07
1.27499e-07
1.275e-07
1.27499e-07
1.27499e-07
1.27497e-07
1.27497e-07
1.27478e-07
1.27473e-07
1.27483e-07
1.27492e-07
1.27475e-07
1.27475e-07
1.27454e-07
1.27462e-07
1.27455e-07
1.27446e-07
1.27458e-07
1.27471e-07
1.27449e-07
1.27445e-07
1.27443e-07
1.2746e-07
1.27472e-07
1.27465e-07
1.27485e-07
1.27477e-07
1.27474e-07
1.2751e-07
1.27514e-07
1.27524e-07
1.27552e-07
1.27586e-07
1.27625e-07
1.27716e-07
1.2778e-07
1.28021e-07
1.28668e-07
1.32475e-07
1.96002e-08
1.25055e-07
1.26049e-07
1.26566e-07
1.2686e-07
1.2705e-07
1.27179e-07
1.27271e-07
1.27339e-07
1.27391e-07
1.2743e-07
1.27462e-07
1.27486e-07
1.27506e-07
1.27522e-07
1.27536e-07
1.27546e-07
1.27554e-07
1.27562e-07
1.27569e-07
1.27573e-07
1.27578e-07
1.27581e-07
1.27583e-07
1.27586e-07
1.2759e-07
1.27592e-07
1.27592e-07
1.27593e-07
1.27595e-07
1.27594e-07
1.27594e-07
1.27594e-07
1.27594e-07
1.27597e-07
1.27597e-07
1.27593e-07
1.27593e-07
1.2759e-07
1.2759e-07
1.27585e-07
1.27585e-07
1.27581e-07
1.27581e-07
1.27565e-07
1.27562e-07
1.27564e-07
1.27564e-07
1.27557e-07
1.27557e-07
1.27546e-07
1.27546e-07
1.27536e-07
1.27527e-07
1.27518e-07
1.27516e-07
1.27506e-07
1.27497e-07
1.27501e-07
1.27502e-07
1.27502e-07
1.27502e-07
1.27499e-07
1.27499e-07
1.27481e-07
1.27475e-07
1.27486e-07
1.27494e-07
1.27478e-07
1.27478e-07
1.27456e-07
1.27464e-07
1.27458e-07
1.27448e-07
1.27461e-07
1.27474e-07
1.27452e-07
1.27447e-07
1.27446e-07
1.27463e-07
1.27475e-07
1.27468e-07
1.27487e-07
1.2748e-07
1.27477e-07
1.27513e-07
1.27517e-07
1.27527e-07
1.27555e-07
1.2759e-07
1.27629e-07
1.2772e-07
1.27785e-07
1.28024e-07
1.28682e-07
1.32512e-07
2.03986e-08
1.2505e-07
1.26042e-07
1.26561e-07
1.26856e-07
1.27047e-07
1.27177e-07
1.2727e-07
1.27338e-07
1.27391e-07
1.27431e-07
1.27463e-07
1.27487e-07
1.27508e-07
1.27524e-07
1.27538e-07
1.27548e-07
1.27557e-07
1.27564e-07
1.27572e-07
1.27576e-07
1.27581e-07
1.27584e-07
1.27586e-07
1.27589e-07
1.27594e-07
1.27595e-07
1.27595e-07
1.27596e-07
1.27598e-07
1.27598e-07
1.27598e-07
1.27598e-07
1.27598e-07
1.276e-07
1.27601e-07
1.27596e-07
1.27596e-07
1.27594e-07
1.27594e-07
1.27588e-07
1.27588e-07
1.27585e-07
1.27585e-07
1.27569e-07
1.27565e-07
1.27567e-07
1.27567e-07
1.27561e-07
1.27561e-07
1.27549e-07
1.27549e-07
1.27539e-07
1.2753e-07
1.27522e-07
1.27519e-07
1.2751e-07
1.27501e-07
1.27505e-07
1.27506e-07
1.27506e-07
1.27506e-07
1.27503e-07
1.27503e-07
1.27484e-07
1.27479e-07
1.27489e-07
1.27498e-07
1.27481e-07
1.27481e-07
1.2746e-07
1.27468e-07
1.27461e-07
1.27452e-07
1.27465e-07
1.27478e-07
1.27456e-07
1.27451e-07
1.2745e-07
1.27467e-07
1.27479e-07
1.27472e-07
1.27492e-07
1.27485e-07
1.27482e-07
1.27517e-07
1.27522e-07
1.27532e-07
1.2756e-07
1.27595e-07
1.27634e-07
1.27726e-07
1.27792e-07
1.2803e-07
1.28702e-07
1.3256e-07
2.12632e-08
1.25044e-07
1.26035e-07
1.26554e-07
1.26851e-07
1.27044e-07
1.27175e-07
1.27269e-07
1.27338e-07
1.27391e-07
1.27432e-07
1.27464e-07
1.27489e-07
1.2751e-07
1.27527e-07
1.27541e-07
1.27551e-07
1.2756e-07
1.27568e-07
1.27576e-07
1.2758e-07
1.27585e-07
1.27588e-07
1.2759e-07
1.27593e-07
1.27598e-07
1.27599e-07
1.27599e-07
1.276e-07
1.27602e-07
1.27602e-07
1.27602e-07
1.27602e-07
1.27602e-07
1.27605e-07
1.27605e-07
1.27601e-07
1.27601e-07
1.27599e-07
1.27599e-07
1.27593e-07
1.27593e-07
1.2759e-07
1.2759e-07
1.27574e-07
1.2757e-07
1.27572e-07
1.27572e-07
1.27566e-07
1.27566e-07
1.27554e-07
1.27554e-07
1.27544e-07
1.27535e-07
1.27526e-07
1.27524e-07
1.27515e-07
1.27505e-07
1.2751e-07
1.27511e-07
1.2751e-07
1.2751e-07
1.27507e-07
1.27507e-07
1.27489e-07
1.27484e-07
1.27494e-07
1.27503e-07
1.27486e-07
1.27486e-07
1.27465e-07
1.27473e-07
1.27466e-07
1.27456e-07
1.27469e-07
1.27483e-07
1.27461e-07
1.27456e-07
1.27454e-07
1.27472e-07
1.27484e-07
1.27477e-07
1.27497e-07
1.2749e-07
1.27487e-07
1.27523e-07
1.27528e-07
1.27538e-07
1.27566e-07
1.27601e-07
1.27641e-07
1.27733e-07
1.278e-07
1.28036e-07
1.28725e-07
1.3262e-07
2.21949e-08
1.25037e-07
1.26026e-07
1.26547e-07
1.26846e-07
1.2704e-07
1.27172e-07
1.27268e-07
1.27338e-07
1.27392e-07
1.27433e-07
1.27466e-07
1.27492e-07
1.27513e-07
1.2753e-07
1.27545e-07
1.27555e-07
1.27564e-07
1.27572e-07
1.2758e-07
1.27585e-07
1.2759e-07
1.27593e-07
1.27595e-07
1.27598e-07
1.27603e-07
1.27604e-07
1.27605e-07
1.27606e-07
1.27608e-07
1.27608e-07
1.27608e-07
1.27608e-07
1.27608e-07
1.27611e-07
1.27611e-07
1.27607e-07
1.27607e-07
1.27605e-07
1.27605e-07
1.27599e-07
1.27599e-07
1.27596e-07
1.27596e-07
1.2758e-07
1.27576e-07
1.27578e-07
1.27578e-07
1.27572e-07
1.27572e-07
1.2756e-07
1.2756e-07
1.27551e-07
1.27541e-07
1.27532e-07
1.2753e-07
1.27521e-07
1.27511e-07
1.27516e-07
1.27516e-07
1.27516e-07
1.27516e-07
1.27513e-07
1.27513e-07
1.27495e-07
1.27489e-07
1.275e-07
1.27509e-07
1.27492e-07
1.27492e-07
1.2747e-07
1.27479e-07
1.27472e-07
1.27462e-07
1.27475e-07
1.27489e-07
1.27467e-07
1.27462e-07
1.27461e-07
1.27478e-07
1.27491e-07
1.27484e-07
1.27504e-07
1.27497e-07
1.27494e-07
1.2753e-07
1.27535e-07
1.27546e-07
1.27574e-07
1.27609e-07
1.2765e-07
1.27742e-07
1.2781e-07
1.28044e-07
1.28754e-07
1.32692e-07
2.31952e-08
1.25029e-07
1.26016e-07
1.26538e-07
1.26839e-07
1.27036e-07
1.2717e-07
1.27267e-07
1.27338e-07
1.27393e-07
1.27435e-07
1.27469e-07
1.27495e-07
1.27517e-07
1.27534e-07
1.27549e-07
1.2756e-07
1.27569e-07
1.27578e-07
1.27586e-07
1.27591e-07
1.27596e-07
1.27599e-07
1.27602e-07
1.27605e-07
1.27609e-07
1.27611e-07
1.27611e-07
1.27613e-07
1.27615e-07
1.27614e-07
1.27615e-07
1.27615e-07
1.27615e-07
1.27618e-07
1.27618e-07
1.27614e-07
1.27614e-07
1.27612e-07
1.27612e-07
1.27607e-07
1.27607e-07
1.27603e-07
1.27603e-07
1.27587e-07
1.27583e-07
1.27586e-07
1.27586e-07
1.27579e-07
1.27579e-07
1.27567e-07
1.27567e-07
1.27558e-07
1.27549e-07
1.2754e-07
1.27537e-07
1.27528e-07
1.27519e-07
1.27523e-07
1.27524e-07
1.27524e-07
1.27523e-07
1.27521e-07
1.27521e-07
1.27502e-07
1.27496e-07
1.27507e-07
1.27516e-07
1.27499e-07
1.27499e-07
1.27478e-07
1.27486e-07
1.27479e-07
1.27469e-07
1.27482e-07
1.27497e-07
1.27475e-07
1.27469e-07
1.27468e-07
1.27485e-07
1.27498e-07
1.27492e-07
1.27512e-07
1.27505e-07
1.27502e-07
1.27538e-07
1.27543e-07
1.27555e-07
1.27583e-07
1.27619e-07
1.2766e-07
1.27752e-07
1.27822e-07
1.28053e-07
1.28788e-07
1.32776e-07
2.42654e-08
1.25019e-07
1.26004e-07
1.26529e-07
1.26832e-07
1.27031e-07
1.27167e-07
1.27266e-07
1.27338e-07
1.27395e-07
1.27438e-07
1.27472e-07
1.27499e-07
1.27522e-07
1.27539e-07
1.27555e-07
1.27566e-07
1.27576e-07
1.27584e-07
1.27592e-07
1.27597e-07
1.27603e-07
1.27606e-07
1.27609e-07
1.27612e-07
1.27617e-07
1.27618e-07
1.27619e-07
1.2762e-07
1.27622e-07
1.27622e-07
1.27623e-07
1.27623e-07
1.27623e-07
1.27626e-07
1.27627e-07
1.27623e-07
1.27623e-07
1.27621e-07
1.27621e-07
1.27615e-07
1.27615e-07
1.27612e-07
1.27612e-07
1.27596e-07
1.27592e-07
1.27594e-07
1.27594e-07
1.27588e-07
1.27588e-07
1.27576e-07
1.27576e-07
1.27567e-07
1.27557e-07
1.27548e-07
1.27546e-07
1.27537e-07
1.27527e-07
1.27531e-07
1.27532e-07
1.27532e-07
1.27532e-07
1.27529e-07
1.27529e-07
1.27511e-07
1.27505e-07
1.27515e-07
1.27524e-07
1.27508e-07
1.27508e-07
1.27486e-07
1.27494e-07
1.27488e-07
1.27477e-07
1.27491e-07
1.27505e-07
1.27484e-07
1.27478e-07
1.27476e-07
1.27494e-07
1.27507e-07
1.27501e-07
1.27521e-07
1.27514e-07
1.27511e-07
1.27547e-07
1.27554e-07
1.27565e-07
1.27594e-07
1.2763e-07
1.27671e-07
1.27764e-07
1.27836e-07
1.28064e-07
1.28827e-07
1.32871e-07
2.54063e-08
1.25009e-07
1.25991e-07
1.26518e-07
1.26824e-07
1.27025e-07
1.27164e-07
1.27264e-07
1.27339e-07
1.27396e-07
1.2744e-07
1.27476e-07
1.27504e-07
1.27527e-07
1.27545e-07
1.27561e-07
1.27573e-07
1.27582e-07
1.27591e-07
1.276e-07
1.27605e-07
1.27611e-07
1.27614e-07
1.27617e-07
1.2762e-07
1.27625e-07
1.27627e-07
1.27628e-07
1.27629e-07
1.27631e-07
1.27631e-07
1.27632e-07
1.27632e-07
1.27632e-07
1.27636e-07
1.27636e-07
1.27632e-07
1.27632e-07
1.2763e-07
1.2763e-07
1.27625e-07
1.27625e-07
1.27622e-07
1.27622e-07
1.27606e-07
1.27601e-07
1.27604e-07
1.27604e-07
1.27598e-07
1.27598e-07
1.27586e-07
1.27586e-07
1.27577e-07
1.27567e-07
1.27558e-07
1.27555e-07
1.27547e-07
1.27536e-07
1.27541e-07
1.27542e-07
1.27542e-07
1.27541e-07
1.27539e-07
1.27539e-07
1.2752e-07
1.27514e-07
1.27525e-07
1.27534e-07
1.27518e-07
1.27517e-07
1.27495e-07
1.27504e-07
1.27498e-07
1.27487e-07
1.275e-07
1.27516e-07
1.27494e-07
1.27488e-07
1.27486e-07
1.27504e-07
1.27518e-07
1.27511e-07
1.27532e-07
1.27525e-07
1.27522e-07
1.27558e-07
1.27565e-07
1.27577e-07
1.27606e-07
1.27643e-07
1.27684e-07
1.27778e-07
1.27852e-07
1.28076e-07
1.28871e-07
1.32974e-07
2.66167e-08
1.24998e-07
1.25976e-07
1.26506e-07
1.26815e-07
1.2702e-07
1.2716e-07
1.27263e-07
1.27339e-07
1.27398e-07
1.27443e-07
1.2748e-07
1.27509e-07
1.27532e-07
1.27551e-07
1.27568e-07
1.2758e-07
1.2759e-07
1.27599e-07
1.27609e-07
1.27614e-07
1.2762e-07
1.27624e-07
1.27627e-07
1.2763e-07
1.27635e-07
1.27637e-07
1.27637e-07
1.27639e-07
1.27642e-07
1.27642e-07
1.27642e-07
1.27642e-07
1.27643e-07
1.27647e-07
1.27647e-07
1.27643e-07
1.27643e-07
1.27641e-07
1.27641e-07
1.27636e-07
1.27636e-07
1.27633e-07
1.27633e-07
1.27617e-07
1.27612e-07
1.27616e-07
1.27616e-07
1.27609e-07
1.27609e-07
1.27597e-07
1.27597e-07
1.27588e-07
1.27578e-07
1.27568e-07
1.27566e-07
1.27558e-07
1.27547e-07
1.27552e-07
1.27553e-07
1.27553e-07
1.27552e-07
1.27549e-07
1.2755e-07
1.27531e-07
1.27525e-07
1.27536e-07
1.27545e-07
1.27529e-07
1.27529e-07
1.27506e-07
1.27515e-07
1.27509e-07
1.27498e-07
1.27511e-07
1.27527e-07
1.27505e-07
1.27499e-07
1.27497e-07
1.27515e-07
1.27529e-07
1.27523e-07
1.27543e-07
1.27538e-07
1.27534e-07
1.2757e-07
1.27578e-07
1.2759e-07
1.27619e-07
1.27657e-07
1.27699e-07
1.27793e-07
1.27869e-07
1.28089e-07
1.2892e-07
1.33083e-07
2.78938e-08
1.24985e-07
1.2596e-07
1.26493e-07
1.26806e-07
1.27013e-07
1.27157e-07
1.27262e-07
1.2734e-07
1.274e-07
1.27447e-07
1.27485e-07
1.27514e-07
1.27539e-07
1.27558e-07
1.27576e-07
1.27588e-07
1.27599e-07
1.27609e-07
1.27618e-07
1.27624e-07
1.2763e-07
1.27634e-07
1.27637e-07
1.27641e-07
1.27645e-07
1.27648e-07
1.27648e-07
1.2765e-07
1.27653e-07
1.27653e-07
1.27653e-07
1.27654e-07
1.27654e-07
1.27659e-07
1.27659e-07
1.27655e-07
1.27655e-07
1.27654e-07
1.27654e-07
1.27648e-07
1.27648e-07
1.27646e-07
1.27646e-07
1.27629e-07
1.27625e-07
1.27628e-07
1.27628e-07
1.27622e-07
1.27622e-07
1.27609e-07
1.27609e-07
1.276e-07
1.27591e-07
1.27581e-07
1.27578e-07
1.2757e-07
1.2756e-07
1.27564e-07
1.27565e-07
1.27565e-07
1.27565e-07
1.27561e-07
1.27562e-07
1.27543e-07
1.27537e-07
1.27548e-07
1.27557e-07
1.27541e-07
1.27541e-07
1.27518e-07
1.27528e-07
1.27521e-07
1.27509e-07
1.27523e-07
1.2754e-07
1.27518e-07
1.27511e-07
1.2751e-07
1.27528e-07
1.27542e-07
1.27536e-07
1.27557e-07
1.27551e-07
1.27548e-07
1.27584e-07
1.27592e-07
1.27605e-07
1.27635e-07
1.27673e-07
1.27716e-07
1.2781e-07
1.27888e-07
1.28104e-07
1.28975e-07
1.33196e-07
2.92414e-08
1.24972e-07
1.25943e-07
1.26478e-07
1.26795e-07
1.27006e-07
1.27153e-07
1.2726e-07
1.2734e-07
1.27403e-07
1.27451e-07
1.2749e-07
1.2752e-07
1.27546e-07
1.27566e-07
1.27584e-07
1.27598e-07
1.27609e-07
1.27619e-07
1.27629e-07
1.27635e-07
1.27641e-07
1.27645e-07
1.27649e-07
1.27652e-07
1.27657e-07
1.2766e-07
1.27661e-07
1.27663e-07
1.27666e-07
1.27666e-07
1.27666e-07
1.27667e-07
1.27667e-07
1.27672e-07
1.27672e-07
1.27669e-07
1.27669e-07
1.27667e-07
1.27667e-07
1.27662e-07
1.27662e-07
1.2766e-07
1.2766e-07
1.27643e-07
1.27638e-07
1.27642e-07
1.27642e-07
1.27636e-07
1.27636e-07
1.27623e-07
1.27623e-07
1.27614e-07
1.27605e-07
1.27594e-07
1.27592e-07
1.27584e-07
1.27573e-07
1.27577e-07
1.27578e-07
1.27578e-07
1.27578e-07
1.27575e-07
1.27575e-07
1.27557e-07
1.2755e-07
1.27561e-07
1.27571e-07
1.27555e-07
1.27554e-07
1.27532e-07
1.27541e-07
1.27535e-07
1.27523e-07
1.27537e-07
1.27554e-07
1.27532e-07
1.27525e-07
1.27523e-07
1.27542e-07
1.27557e-07
1.27551e-07
1.27572e-07
1.27566e-07
1.27563e-07
1.27599e-07
1.27608e-07
1.27621e-07
1.27651e-07
1.2769e-07
1.27734e-07
1.27828e-07
1.2791e-07
1.2812e-07
1.29035e-07
1.33313e-07
3.06636e-08
1.24957e-07
1.25924e-07
1.26462e-07
1.26783e-07
1.26998e-07
1.27148e-07
1.27258e-07
1.27341e-07
1.27405e-07
1.27455e-07
1.27495e-07
1.27527e-07
1.27554e-07
1.27575e-07
1.27594e-07
1.27608e-07
1.2762e-07
1.2763e-07
1.2764e-07
1.27647e-07
1.27653e-07
1.27658e-07
1.27662e-07
1.27665e-07
1.2767e-07
1.27673e-07
1.27674e-07
1.27676e-07
1.27679e-07
1.2768e-07
1.2768e-07
1.27681e-07
1.27681e-07
1.27686e-07
1.27687e-07
1.27683e-07
1.27683e-07
1.27682e-07
1.27682e-07
1.27677e-07
1.27677e-07
1.27675e-07
1.27675e-07
1.27658e-07
1.27653e-07
1.27657e-07
1.27657e-07
1.27651e-07
1.27651e-07
1.27638e-07
1.27638e-07
1.2763e-07
1.2762e-07
1.27609e-07
1.27607e-07
1.27599e-07
1.27588e-07
1.27592e-07
1.27593e-07
1.27593e-07
1.27593e-07
1.2759e-07
1.2759e-07
1.27572e-07
1.27564e-07
1.27575e-07
1.27586e-07
1.2757e-07
1.27569e-07
1.27546e-07
1.27556e-07
1.2755e-07
1.27537e-07
1.27551e-07
1.2757e-07
1.27548e-07
1.2754e-07
1.27538e-07
1.27557e-07
1.27573e-07
1.27567e-07
1.27588e-07
1.27583e-07
1.27579e-07
1.27615e-07
1.27625e-07
1.27639e-07
1.27669e-07
1.27709e-07
1.27753e-07
1.27848e-07
1.27933e-07
1.28137e-07
1.29101e-07
1.33434e-07
3.21647e-08
1.24942e-07
1.25904e-07
1.26445e-07
1.26771e-07
1.26989e-07
1.27143e-07
1.27256e-07
1.27341e-07
1.27408e-07
1.27459e-07
1.27501e-07
1.27534e-07
1.27562e-07
1.27584e-07
1.27604e-07
1.27619e-07
1.27631e-07
1.27642e-07
1.27653e-07
1.2766e-07
1.27666e-07
1.27671e-07
1.27676e-07
1.27679e-07
1.27684e-07
1.27687e-07
1.27689e-07
1.27691e-07
1.27694e-07
1.27695e-07
1.27695e-07
1.27696e-07
1.27697e-07
1.27702e-07
1.27703e-07
1.27699e-07
1.27699e-07
1.27699e-07
1.27699e-07
1.27693e-07
1.27693e-07
1.27691e-07
1.27691e-07
1.27674e-07
1.2767e-07
1.27674e-07
1.27674e-07
1.27668e-07
1.27668e-07
1.27654e-07
1.27654e-07
1.27646e-07
1.27636e-07
1.27625e-07
1.27623e-07
1.27615e-07
1.27604e-07
1.27608e-07
1.27609e-07
1.27609e-07
1.27609e-07
1.27606e-07
1.27606e-07
1.27588e-07
1.2758e-07
1.27591e-07
1.27602e-07
1.27586e-07
1.27586e-07
1.27562e-07
1.27573e-07
1.27567e-07
1.27553e-07
1.27567e-07
1.27586e-07
1.27564e-07
1.27556e-07
1.27555e-07
1.27573e-07
1.2759e-07
1.27585e-07
1.27605e-07
1.27601e-07
1.27597e-07
1.27633e-07
1.27644e-07
1.27658e-07
1.27689e-07
1.27729e-07
1.27774e-07
1.27869e-07
1.27958e-07
1.28156e-07
1.29172e-07
1.33559e-07
3.37497e-08
1.24926e-07
1.25882e-07
1.26427e-07
1.26757e-07
1.2698e-07
1.27137e-07
1.27254e-07
1.27342e-07
1.2741e-07
1.27464e-07
1.27508e-07
1.27542e-07
1.27571e-07
1.27594e-07
1.27615e-07
1.2763e-07
1.27643e-07
1.27655e-07
1.27666e-07
1.27674e-07
1.27681e-07
1.27686e-07
1.27691e-07
1.27694e-07
1.27699e-07
1.27703e-07
1.27704e-07
1.27707e-07
1.2771e-07
1.27711e-07
1.27712e-07
1.27713e-07
1.27713e-07
1.27719e-07
1.2772e-07
1.27717e-07
1.27717e-07
1.27716e-07
1.27716e-07
1.27711e-07
1.27711e-07
1.27709e-07
1.27709e-07
1.27692e-07
1.27687e-07
1.27692e-07
1.27692e-07
1.27686e-07
1.27686e-07
1.27672e-07
1.27672e-07
1.27664e-07
1.27654e-07
1.27643e-07
1.2764e-07
1.27633e-07
1.27621e-07
1.27626e-07
1.27627e-07
1.27627e-07
1.27627e-07
1.27623e-07
1.27624e-07
1.27606e-07
1.27597e-07
1.27609e-07
1.2762e-07
1.27604e-07
1.27603e-07
1.2758e-07
1.27591e-07
1.27584e-07
1.2757e-07
1.27585e-07
1.27605e-07
1.27583e-07
1.27574e-07
1.27573e-07
1.27591e-07
1.27608e-07
1.27603e-07
1.27624e-07
1.2762e-07
1.27616e-07
1.27652e-07
1.27665e-07
1.27679e-07
1.2771e-07
1.27751e-07
1.27797e-07
1.27892e-07
1.27984e-07
1.28176e-07
1.29248e-07
1.33687e-07
3.54231e-08
1.24908e-07
1.25859e-07
1.26407e-07
1.26742e-07
1.2697e-07
1.27131e-07
1.27251e-07
1.27342e-07
1.27413e-07
1.27469e-07
1.27514e-07
1.2755e-07
1.27581e-07
1.27605e-07
1.27626e-07
1.27643e-07
1.27657e-07
1.27669e-07
1.27681e-07
1.27689e-07
1.27696e-07
1.27702e-07
1.27707e-07
1.27711e-07
1.27716e-07
1.27719e-07
1.27721e-07
1.27724e-07
1.27728e-07
1.27729e-07
1.27729e-07
1.27731e-07
1.27731e-07
1.27738e-07
1.27739e-07
1.27735e-07
1.27735e-07
1.27735e-07
1.27735e-07
1.2773e-07
1.2773e-07
1.27729e-07
1.27729e-07
1.27711e-07
1.27706e-07
1.27711e-07
1.27711e-07
1.27705e-07
1.27705e-07
1.27691e-07
1.27691e-07
1.27684e-07
1.27674e-07
1.27661e-07
1.27659e-07
1.27653e-07
1.2764e-07
1.27645e-07
1.27646e-07
1.27646e-07
1.27646e-07
1.27642e-07
1.27643e-07
1.27625e-07
1.27616e-07
1.27627e-07
1.27639e-07
1.27623e-07
1.27622e-07
1.27599e-07
1.2761e-07
1.27604e-07
1.27589e-07
1.27603e-07
1.27624e-07
1.27602e-07
1.27594e-07
1.27592e-07
1.27611e-07
1.27628e-07
1.27624e-07
1.27645e-07
1.27641e-07
1.27637e-07
1.27673e-07
1.27686e-07
1.27701e-07
1.27733e-07
1.27774e-07
1.27821e-07
1.27917e-07
1.28013e-07
1.28197e-07
1.29329e-07
1.33819e-07
3.71898e-08
1.2489e-07
1.25834e-07
1.26385e-07
1.26726e-07
1.26958e-07
1.27124e-07
1.27248e-07
1.27342e-07
1.27416e-07
1.27474e-07
1.27521e-07
1.27559e-07
1.27591e-07
1.27616e-07
1.27638e-07
1.27656e-07
1.27671e-07
1.27683e-07
1.27696e-07
1.27705e-07
1.27712e-07
1.27718e-07
1.27724e-07
1.27728e-07
1.27733e-07
1.27737e-07
1.27739e-07
1.27742e-07
1.27746e-07
1.27747e-07
1.27748e-07
1.2775e-07
1.2775e-07
1.27757e-07
1.27758e-07
1.27755e-07
1.27755e-07
1.27755e-07
1.27755e-07
1.2775e-07
1.2775e-07
1.27749e-07
1.27749e-07
1.27732e-07
1.27726e-07
1.27732e-07
1.27732e-07
1.27726e-07
1.27726e-07
1.27711e-07
1.27711e-07
1.27705e-07
1.27694e-07
1.27681e-07
1.27679e-07
1.27673e-07
1.27661e-07
1.27665e-07
1.27666e-07
1.27666e-07
1.27666e-07
1.27662e-07
1.27663e-07
1.27645e-07
1.27636e-07
1.27647e-07
1.27659e-07
1.27644e-07
1.27643e-07
1.27619e-07
1.2763e-07
1.27624e-07
1.27609e-07
1.27623e-07
1.27645e-07
1.27624e-07
1.27614e-07
1.27612e-07
1.27631e-07
1.2765e-07
1.27646e-07
1.27667e-07
1.27664e-07
1.27659e-07
1.27695e-07
1.27709e-07
1.27725e-07
1.27757e-07
1.27799e-07
1.27847e-07
1.27943e-07
1.28043e-07
1.2822e-07
1.29416e-07
1.33955e-07
3.90549e-08
1.24871e-07
1.25807e-07
1.26362e-07
1.26708e-07
1.26946e-07
1.27117e-07
1.27244e-07
1.27342e-07
1.27418e-07
1.27479e-07
1.27528e-07
1.27568e-07
1.27601e-07
1.27628e-07
1.27651e-07
1.2767e-07
1.27685e-07
1.27699e-07
1.27712e-07
1.27721e-07
1.2773e-07
1.27736e-07
1.27742e-07
1.27746e-07
1.27752e-07
1.27756e-07
1.27758e-07
1.27761e-07
1.27766e-07
1.27767e-07
1.27768e-07
1.2777e-07
1.2777e-07
1.27778e-07
1.27779e-07
1.27776e-07
1.27776e-07
1.27777e-07
1.27777e-07
1.27772e-07
1.27772e-07
1.27771e-07
1.27771e-07
1.27753e-07
1.27748e-07
1.27754e-07
1.27754e-07
1.27748e-07
1.27748e-07
1.27733e-07
1.27733e-07
1.27727e-07
1.27716e-07
1.27703e-07
1.27701e-07
1.27695e-07
1.27682e-07
1.27686e-07
1.27688e-07
1.27688e-07
1.27688e-07
1.27683e-07
1.27685e-07
1.27667e-07
1.27657e-07
1.27668e-07
1.27681e-07
1.27666e-07
1.27665e-07
1.2764e-07
1.27652e-07
1.27646e-07
1.2763e-07
1.27645e-07
1.27668e-07
1.27646e-07
1.27636e-07
1.27634e-07
1.27653e-07
1.27672e-07
1.27669e-07
1.2769e-07
1.27687e-07
1.27683e-07
1.27718e-07
1.27734e-07
1.2775e-07
1.27783e-07
1.27826e-07
1.27875e-07
1.2797e-07
1.28076e-07
1.28244e-07
1.29507e-07
1.34093e-07
4.10235e-08
1.24851e-07
1.25779e-07
1.26338e-07
1.26689e-07
1.26933e-07
1.27108e-07
1.2724e-07
1.27341e-07
1.27421e-07
1.27484e-07
1.27536e-07
1.27577e-07
1.27612e-07
1.2764e-07
1.27665e-07
1.27685e-07
1.27701e-07
1.27715e-07
1.27729e-07
1.27739e-07
1.27748e-07
1.27755e-07
1.27761e-07
1.27766e-07
1.27771e-07
1.27776e-07
1.27779e-07
1.27782e-07
1.27787e-07
1.27788e-07
1.27789e-07
1.27791e-07
1.27792e-07
1.278e-07
1.27802e-07
1.27799e-07
1.27798e-07
1.278e-07
1.278e-07
1.27795e-07
1.27795e-07
1.27795e-07
1.27795e-07
1.27776e-07
1.27771e-07
1.27777e-07
1.27777e-07
1.27772e-07
1.27772e-07
1.27756e-07
1.27756e-07
1.2775e-07
1.2774e-07
1.27726e-07
1.27724e-07
1.27719e-07
1.27705e-07
1.27709e-07
1.27711e-07
1.27711e-07
1.27711e-07
1.27706e-07
1.27708e-07
1.2769e-07
1.27679e-07
1.27691e-07
1.27704e-07
1.27689e-07
1.27688e-07
1.27663e-07
1.27676e-07
1.2767e-07
1.27652e-07
1.27667e-07
1.27692e-07
1.2767e-07
1.2766e-07
1.27658e-07
1.27677e-07
1.27697e-07
1.27694e-07
1.27714e-07
1.27713e-07
1.27708e-07
1.27743e-07
1.2776e-07
1.27777e-07
1.2781e-07
1.27854e-07
1.27904e-07
1.27999e-07
1.2811e-07
1.28269e-07
1.29603e-07
1.34235e-07
4.31007e-08
1.2483e-07
1.2575e-07
1.26312e-07
1.26669e-07
1.26918e-07
1.27099e-07
1.27235e-07
1.2734e-07
1.27423e-07
1.27489e-07
1.27543e-07
1.27587e-07
1.27623e-07
1.27653e-07
1.27679e-07
1.277e-07
1.27717e-07
1.27732e-07
1.27747e-07
1.27758e-07
1.27767e-07
1.27775e-07
1.27781e-07
1.27786e-07
1.27792e-07
1.27797e-07
1.278e-07
1.27804e-07
1.27809e-07
1.27811e-07
1.27812e-07
1.27814e-07
1.27814e-07
1.27823e-07
1.27825e-07
1.27822e-07
1.27822e-07
1.27824e-07
1.27824e-07
1.27819e-07
1.27819e-07
1.27819e-07
1.27819e-07
1.27801e-07
1.27795e-07
1.27802e-07
1.27802e-07
1.27797e-07
1.27797e-07
1.27781e-07
1.27781e-07
1.27775e-07
1.27765e-07
1.2775e-07
1.27748e-07
1.27744e-07
1.27729e-07
1.27734e-07
1.27735e-07
1.27735e-07
1.27735e-07
1.2773e-07
1.27732e-07
1.27715e-07
1.27703e-07
1.27715e-07
1.27728e-07
1.27714e-07
1.27712e-07
1.27687e-07
1.27701e-07
1.27695e-07
1.27676e-07
1.27691e-07
1.27717e-07
1.27695e-07
1.27684e-07
1.27682e-07
1.27701e-07
1.27722e-07
1.2772e-07
1.27741e-07
1.27739e-07
1.27735e-07
1.2777e-07
1.27788e-07
1.27806e-07
1.27839e-07
1.27883e-07
1.27935e-07
1.28029e-07
1.28146e-07
1.28295e-07
1.29703e-07
1.34378e-07
4.52913e-08
1.24808e-07
1.25718e-07
1.26284e-07
1.26647e-07
1.26903e-07
1.27089e-07
1.2723e-07
1.27339e-07
1.27425e-07
1.27494e-07
1.27551e-07
1.27596e-07
1.27635e-07
1.27666e-07
1.27694e-07
1.27716e-07
1.27734e-07
1.2775e-07
1.27766e-07
1.27777e-07
1.27787e-07
1.27795e-07
1.27803e-07
1.27808e-07
1.27813e-07
1.27819e-07
1.27823e-07
1.27826e-07
1.27832e-07
1.27834e-07
1.27835e-07
1.27838e-07
1.27838e-07
1.27848e-07
1.2785e-07
1.27847e-07
1.27847e-07
1.27849e-07
1.27849e-07
1.27844e-07
1.27844e-07
1.27845e-07
1.27845e-07
1.27827e-07
1.27821e-07
1.27828e-07
1.27828e-07
1.27823e-07
1.27823e-07
1.27807e-07
1.27806e-07
1.27802e-07
1.27791e-07
1.27776e-07
1.27773e-07
1.2777e-07
1.27755e-07
1.27759e-07
1.27761e-07
1.27761e-07
1.27761e-07
1.27755e-07
1.27758e-07
1.27741e-07
1.27729e-07
1.2774e-07
1.27753e-07
1.2774e-07
1.27738e-07
1.27713e-07
1.27727e-07
1.27721e-07
1.27702e-07
1.27717e-07
1.27743e-07
1.27722e-07
1.27711e-07
1.27708e-07
1.27727e-07
1.27749e-07
1.27748e-07
1.27768e-07
1.27768e-07
1.27763e-07
1.27798e-07
1.27817e-07
1.27835e-07
1.27869e-07
1.27914e-07
1.27967e-07
1.28061e-07
1.28183e-07
1.28322e-07
1.29807e-07
1.34524e-07
4.75998e-08
1.24786e-07
1.25685e-07
1.26254e-07
1.26624e-07
1.26886e-07
1.27078e-07
1.27224e-07
1.27337e-07
1.27427e-07
1.27499e-07
1.27558e-07
1.27606e-07
1.27646e-07
1.2768e-07
1.27709e-07
1.27732e-07
1.27752e-07
1.27769e-07
1.27785e-07
1.27797e-07
1.27808e-07
1.27817e-07
1.27825e-07
1.2783e-07
1.27836e-07
1.27842e-07
1.27846e-07
1.2785e-07
1.27856e-07
1.27858e-07
1.2786e-07
1.27862e-07
1.27863e-07
1.27874e-07
1.27876e-07
1.27873e-07
1.27873e-07
1.27875e-07
1.27876e-07
1.27871e-07
1.27871e-07
1.27873e-07
1.27873e-07
1.27854e-07
1.27848e-07
1.27856e-07
1.27856e-07
1.27851e-07
1.27851e-07
1.27834e-07
1.27834e-07
1.27829e-07
1.27818e-07
1.27802e-07
1.278e-07
1.27797e-07
1.27782e-07
1.27786e-07
1.27788e-07
1.27788e-07
1.27788e-07
1.27781e-07
1.27785e-07
1.27768e-07
1.27755e-07
1.27767e-07
1.2778e-07
1.27768e-07
1.27765e-07
1.27739e-07
1.27754e-07
1.27749e-07
1.27729e-07
1.27743e-07
1.27771e-07
1.2775e-07
1.27738e-07
1.27736e-07
1.27755e-07
1.27777e-07
1.27777e-07
1.27797e-07
1.27797e-07
1.27792e-07
1.27827e-07
1.27848e-07
1.27867e-07
1.27901e-07
1.27947e-07
1.28001e-07
1.28094e-07
1.28222e-07
1.28351e-07
1.29914e-07
1.34671e-07
5.003e-08
1.24763e-07
1.25651e-07
1.26223e-07
1.26599e-07
1.26867e-07
1.27065e-07
1.27216e-07
1.27334e-07
1.27428e-07
1.27503e-07
1.27565e-07
1.27616e-07
1.27658e-07
1.27693e-07
1.27724e-07
1.27749e-07
1.2777e-07
1.27788e-07
1.27806e-07
1.27818e-07
1.2783e-07
1.27839e-07
1.27848e-07
1.27854e-07
1.2786e-07
1.27866e-07
1.27871e-07
1.27875e-07
1.27881e-07
1.27884e-07
1.27886e-07
1.27888e-07
1.27889e-07
1.279e-07
1.27903e-07
1.279e-07
1.279e-07
1.27903e-07
1.27904e-07
1.27899e-07
1.27899e-07
1.27901e-07
1.27901e-07
1.27882e-07
1.27876e-07
1.27884e-07
1.27885e-07
1.2788e-07
1.2788e-07
1.27862e-07
1.27862e-07
1.27858e-07
1.27847e-07
1.27831e-07
1.27828e-07
1.27826e-07
1.2781e-07
1.27815e-07
1.27816e-07
1.27816e-07
1.27816e-07
1.27809e-07
1.27813e-07
1.27797e-07
1.27783e-07
1.27795e-07
1.27809e-07
1.27797e-07
1.27794e-07
1.27768e-07
1.27783e-07
1.27778e-07
1.27757e-07
1.27771e-07
1.278e-07
1.2778e-07
1.27767e-07
1.27765e-07
1.27784e-07
1.27807e-07
1.27807e-07
1.27827e-07
1.27828e-07
1.27823e-07
1.27858e-07
1.27879e-07
1.27899e-07
1.27934e-07
1.2798e-07
1.28036e-07
1.28128e-07
1.28263e-07
1.28381e-07
1.30024e-07
1.3482e-07
5.25852e-08
1.24739e-07
1.25615e-07
1.2619e-07
1.26572e-07
1.26847e-07
1.27052e-07
1.27208e-07
1.27331e-07
1.27429e-07
1.27508e-07
1.27572e-07
1.27626e-07
1.2767e-07
1.27707e-07
1.2774e-07
1.27766e-07
1.27788e-07
1.27808e-07
1.27826e-07
1.2784e-07
1.27852e-07
1.27862e-07
1.27872e-07
1.27878e-07
1.27884e-07
1.27891e-07
1.27896e-07
1.27901e-07
1.27907e-07
1.2791e-07
1.27912e-07
1.27915e-07
1.27916e-07
1.27928e-07
1.27931e-07
1.27928e-07
1.27928e-07
1.27932e-07
1.27933e-07
1.27928e-07
1.27928e-07
1.27931e-07
1.27931e-07
1.27912e-07
1.27906e-07
1.27915e-07
1.27915e-07
1.27911e-07
1.2791e-07
1.27892e-07
1.27892e-07