/*--------------------------------*- C++ -*----------------------------------*\
| =========                 |                                                 |
| \\      /  F ield         | OpenFOAM: The Open Source CFD Toolbox           |
|  \\    /   O peration     | Version:  v2012                                 |
|   \\  /    A nd           | Website:  www.openfoam.com                      |
|    \\/     M anipulation  |                                                 |
\*---------------------------------------------------------------------------*/
FoamFile
{
    version     2.0;
    format      ascii;
    class       volScalarField;
    location    "5.5";
    object      omega;
}
// * * * * * * * * * * * * * * * * * * * * * * * * * * * * * * * * * * * * * //

dimensions      [0 0 -1 0 0 0 0];


internalField   nonuniform List<scalar> 
209825
(
8340.05
8153.44
8085.17
8052.5
8033.4
8021.59
8013.42
8007.85
8003.63
8000.64
7998.21
7996.46
7994.96
7993.89
7992.91
7992.24
7991.59
7991.16
7990.7
7990.43
7990.06
7989.95
7989.83
7989.7
7989.39
7989.47
7989.45
7989.47
7989.38
7989.53
7989.53
7989.7
7989.7
7989.91
7989.9
7990.2
7990.2
7990.56
7990.56
7991
7991
7991.51
7991.51
7992.54
7992.77
7992.85
7992.85
7993.52
7993.52
7994.37
7994.37
7995.53
7996.08
7996.61
7996.6
7997.33
7997.89
7998.23
7998.35
7998.35
7998.35
7999.06
7999.06
8000.21
8000.48
8000.48
8000.48
8001.53
8001.53
8002.83
8003.53
8004.27
8004.84
8004.84
8004.83
8006.18
8006.47
8007.65
8007.71
8007.71
8008.93
8008.93
8010.45
8011.97
8012.15
8013.78
8015.75
8017.38
8020.45
8022.95
8028.67
8032.7
8045.29
8082.87
8282
117527
8340.01
8153.3
8084.98
8052.27
8033.15
8021.32
8013.14
8007.56
8003.34
8000.33
7997.9
7996.15
7994.64
7993.57
7992.59
7991.92
7991.27
7990.84
7990.38
7990.11
7989.74
7989.62
7989.51
7989.38
7989.07
7989.14
7989.12
7989.15
7989.05
7989.2
7989.2
7989.38
7989.38
7989.58
7989.57
7989.87
7989.87
7990.23
7990.23
7990.68
7990.67
7991.18
7991.18
7992.21
7992.44
7992.52
7992.52
7993.19
7993.19
7994.04
7994.04
7995.2
7995.75
7996.28
7996.28
7997
7997.56
7997.9
7998.02
7998.02
7998.02
7998.73
7998.73
7999.89
8000.16
8000.15
8000.15
8001.21
8001.2
8002.51
8003.2
8003.95
8004.52
8004.52
8004.51
8005.86
8006.15
8007.33
8007.39
8007.39
8008.61
8008.61
8010.13
8011.65
8011.83
8013.47
8015.44
8017.07
8020.14
8022.64
8028.37
8032.4
8044.99
8082.65
8281.93
114234
8339.83
8152.79
8084.28
8051.46
8032.26
8020.38
8012.16
8006.56
8002.31
7999.29
7996.85
7995.08
7993.57
7992.49
7991.51
7990.83
7990.17
7989.74
7989.28
7989
7988.63
7988.51
7988.4
7988.27
7987.96
7988.03
7988.01
7988.03
7987.93
7988.09
7988.08
7988.26
7988.26
7988.46
7988.46
7988.75
7988.75
7989.12
7989.12
7989.56
7989.56
7990.06
7990.06
7991.1
7991.32
7991.41
7991.41
7992.07
7992.07
7992.92
7992.92
7994.08
7994.64
7995.16
7995.16
7995.89
7996.45
7996.79
7996.91
7996.92
7996.91
7997.63
7997.63
7998.78
7999.05
7999.05
7999.05
8000.1
8000.1
8001.4
8002.1
8002.85
8003.42
8003.42
8003.41
8004.76
8005.05
8006.24
8006.3
8006.3
8007.53
8007.53
8009.04
8010.57
8010.75
8012.39
8014.37
8016
8019.07
8021.58
8027.31
8031.36
8043.93
8081.79
8281.38
110455
8339.51
8151.89
8083.06
8050.05
8030.72
8018.76
8010.48
8004.83
8000.55
7997.5
7995.03
7993.25
7991.73
7990.63
7989.64
7988.95
7988.29
7987.85
7987.38
7987.11
7986.73
7986.61
7986.49
7986.36
7986.05
7986.11
7986.09
7986.12
7986.01
7986.17
7986.16
7986.34
7986.34
7986.54
7986.53
7986.83
7986.83
7987.19
7987.19
7987.63
7987.63
7988.13
7988.13
7989.17
7989.4
7989.48
7989.48
7990.15
7990.15
7991
7991
7992.16
7992.72
7993.25
7993.25
7993.97
7994.54
7994.88
7995
7995.01
7995
7995.72
7995.72
7996.87
7997.15
7997.15
7997.14
7998.2
7998.2
7999.51
8000.21
8000.95
8001.53
8001.53
8001.53
8002.87
8003.17
8004.36
8004.42
8004.42
8005.66
8005.66
8007.17
8008.71
8008.9
8010.54
8012.52
8014.16
8017.24
8019.76
8025.49
8029.57
8042.09
8080.29
8280.41
106572
8339.05
8150.61
8081.32
8048.03
8028.53
8016.44
8008.07
8002.36
7998.03
7994.94
7992.44
7990.64
7989.09
7987.98
7986.98
7986.28
7985.6
7985.16
7984.68
7984.4
7984.02
7983.89
7983.77
7983.64
7983.32
7983.38
7983.36
7983.38
7983.28
7983.43
7983.42
7983.6
7983.6
7983.8
7983.79
7984.09
7984.08
7984.44
7984.44
7984.88
7984.88
7985.39
7985.38
7986.43
7986.66
7986.74
7986.74
7987.41
7987.41
7988.26
7988.26
7989.42
7989.98
7990.52
7990.52
7991.24
7991.81
7992.16
7992.28
7992.28
7992.28
7993
7993
7994.15
7994.43
7994.43
7994.43
7995.49
7995.49
7996.8
7997.5
7998.25
7998.84
7998.84
7998.83
8000.18
8000.48
8001.67
8001.75
8001.75
8002.99
8002.99
8004.51
8006.05
8006.25
8007.89
8009.88
8011.53
8014.62
8017.15
8022.89
8027
8039.46
8078.15
8279.03
102689
8338.45
8148.95
8079.05
8045.41
8025.67
8013.42
8004.94
7999.14
7994.74
7991.6
7989.06
7987.22
7985.65
7984.52
7983.5
7982.78
7982.1
7981.64
7981.16
7980.87
7980.48
7980.35
7980.22
7980.08
7979.76
7979.82
7979.8
7979.81
7979.7
7979.85
7979.85
7980.02
7980.02
7980.22
7980.21
7980.5
7980.5
7980.86
7980.86
7981.3
7981.3
7981.8
7981.8
7982.84
7983.08
7983.16
7983.16
7983.83
7983.83
7984.69
7984.69
7985.85
7986.41
7986.95
7986.95
7987.67
7988.24
7988.6
7988.72
7988.73
7988.72
7989.45
7989.45
7990.6
7990.89
7990.89
7990.88
7991.96
7991.96
7993.27
7993.97
7994.72
7995.32
7995.32
7995.31
7996.67
7996.98
7998.17
7998.25
7998.25
7999.5
7999.5
8001.02
8002.58
8002.79
8004.44
8006.43
8008.1
8011.19
8013.75
8019.49
8023.65
8036.02
8075.34
8277.25
98846.1
8337.72
8146.88
8076.24
8042.16
8022.13
8009.68
8001.06
7995.15
7990.67
7987.47
7984.88
7983
7981.4
7980.24
7979.19
7978.46
7977.76
7977.29
7976.79
7976.49
7976.1
7975.96
7975.82
7975.68
7975.35
7975.41
7975.39
7975.4
7975.28
7975.43
7975.42
7975.59
7975.59
7975.78
7975.77
7976.07
7976.07
7976.42
7976.42
7976.86
7976.86
7977.36
7977.36
7978.41
7978.65
7978.72
7978.72
7979.4
7979.4
7980.26
7980.26
7981.42
7981.98
7982.53
7982.53
7983.25
7983.83
7984.19
7984.32
7984.32
7984.32
7985.05
7985.05
7986.2
7986.5
7986.5
7986.5
7987.58
7987.58
7988.9
7989.6
7990.35
7990.96
7990.96
7990.96
7992.31
7992.63
7993.83
7993.92
7993.92
7995.19
7995.19
7996.71
7998.28
7998.51
8000.16
8002.17
8003.85
8006.95
8009.53
8015.27
8019.5
8031.75
8071.86
8275.09
95061.9
8336.85
8144.43
8072.89
8038.28
8017.91
8005.22
7996.42
7990.38
7985.81
7982.53
7979.88
7977.95
7976.31
7975.12
7974.04
7973.29
7972.57
7972.08
7971.57
7971.26
7970.85
7970.71
7970.56
7970.42
7970.08
7970.13
7970.11
7970.11
7969.99
7970.13
7970.13
7970.29
7970.29
7970.48
7970.47
7970.76
7970.76
7971.11
7971.11
7971.55
7971.55
7972.05
7972.05
7973.1
7973.34
7973.42
7973.42
7974.09
7974.09
7974.96
7974.97
7976.12
7976.69
7977.25
7977.25
7977.96
7978.55
7978.92
7979.05
7979.06
7979.05
7979.79
7979.8
7980.94
7981.25
7981.25
7981.25
7982.34
7982.34
7983.67
7984.37
7985.13
7985.75
7985.75
7985.74
7987.1
7987.44
7988.64
7988.74
7988.74
7990.02
7990.03
7991.55
7993.14
7993.39
7995.04
7997.06
7998.76
8001.87
8004.48
8010.23
8014.53
8026.64
8067.7
8272.51
91345.1
8335.84
8141.58
8069
8033.76
8012.98
8000.01
7991.01
7984.83
7980.13
7976.77
7974.05
7972.06
7970.37
7969.14
7968.04
7967.25
7966.51
7966.01
7965.48
7965.16
7964.74
7964.58
7964.43
7964.27
7963.93
7963.97
7963.95
7963.94
7963.81
7963.96
7963.95
7964.11
7964.11
7964.29
7964.28
7964.57
7964.57
7964.92
7964.92
7965.35
7965.35
7965.85
7965.85
7966.91
7967.16
7967.22
7967.22
7967.9
7967.9
7968.78
7968.78
7969.94
7970.51
7971.09
7971.09
7971.79
7972.39
7972.76
7972.91
7972.91
7972.9
7973.66
7973.66
7974.8
7975.12
7975.13
7975.12
7976.23
7976.22
7977.56
7978.26
7979.02
7979.67
7979.67
7979.66
7981.03
7981.37
7982.58
7982.7
7982.7
7983.99
7984
7985.53
7987.13
7987.4
7989.07
7991.1
7992.82
7995.95
7998.58
8004.33
8008.73
8020.66
8062.84
8269.49
87698.2
8334.69
8138.33
8064.55
8028.59
8007.35
7994.06
7984.82
7978.46
7973.64
7970.17
7967.36
7965.31
7963.57
7962.3
7961.16
7960.34
7959.57
7959.05
7958.5
7958.16
7957.73
7957.56
7957.4
7957.23
7956.89
7956.92
7956.89
7956.88
7956.74
7956.88
7956.87
7957.02
7957.02
7957.2
7957.19
7957.47
7957.47
7957.82
7957.81
7958.25
7958.25
7958.75
7958.75
7959.81
7960.07
7960.13
7960.13
7960.81
7960.81
7961.7
7961.7
7962.86
7963.44
7964.02
7964.02
7964.72
7965.33
7965.71
7965.86
7965.86
7965.86
7966.62
7966.62
7967.77
7968.1
7968.11
7968.1
7969.22
7969.22
7970.56
7971.26
7972.03
7972.69
7972.7
7972.69
7974.06
7974.42
7975.64
7975.77
7975.77
7977.08
7977.1
7978.62
7980.25
7980.55
7982.22
7984.26
7986.01
7989.15
7991.82
7997.58
8002.07
8013.8
8057.28
8265.95
84119.1
8333.42
8134.68
8059.55
8022.78
8001
7987.34
7977.84
7971.28
7966.31
7962.72
7959.82
7957.7
7955.89
7954.57
7953.38
7952.54
7951.74
7951.19
7950.62
7950.26
7949.81
7949.63
7949.45
7949.28
7948.93
7948.95
7948.92
7948.89
7948.75
7948.88
7948.87
7949.02
7949.02
7949.19
7949.17
7949.45
7949.45
7949.8
7949.79
7950.23
7950.23
7950.73
7950.73
7951.8
7952.06
7952.11
7952.11
7952.8
7952.8
7953.7
7953.7
7954.86
7955.44
7956.04
7956.04
7956.72
7957.35
7957.74
7957.9
7957.9
7957.9
7958.68
7958.68
7959.82
7960.17
7960.17
7960.17
7961.3
7961.3
7962.66
7963.36
7964.13
7964.81
7964.82
7964.81
7966.19
7966.56
7967.79
7967.94
7967.94
7969.27
7969.3
7970.82
7972.47
7972.8
7974.47
7976.53
7978.31
7981.47
7984.17
7989.93
7994.54
8006.05
8051
8261.76
80601.6
8332.02
8130.63
8053.98
8016.3
7993.93
7979.85
7970.05
7963.28
7958.13
7954.41
7951.4
7949.2
7947.32
7945.94
7944.71
7943.82
7942.99
7942.41
7941.82
7941.44
7940.97
7940.77
7940.58
7940.41
7940.04
7940.05
7940.01
7939.98
7939.82
7939.95
7939.94
7940.08
7940.08
7940.25
7940.22
7940.5
7940.5
7940.84
7940.83
7941.27
7941.27
7941.77
7941.77
7942.84
7943.11
7943.16
7943.16
7943.85
7943.85
7944.76
7944.76
7945.92
7946.5
7947.12
7947.12
7947.8
7948.44
7948.84
7949.01
7949.01
7949.01
7949.8
7949.8
7950.94
7951.31
7951.31
7951.3
7952.46
7952.46
7953.83
7954.52
7955.3
7956.01
7956.02
7956.01
7957.39
7957.79
7959.03
7959.2
7959.2
7960.55
7960.58
7962.11
7963.78
7964.14
7965.82
7967.9
7969.71
7972.88
7975.62
7981.38
7986.13
7997.37
8043.99
8256.77
77135.6
8330.49
8126.18
8047.85
8009.15
7986.12
7971.59
7961.45
7954.43
7949.09
7945.22
7942.1
7939.79
7937.84
7936.4
7935.11
7934.18
7933.31
7932.7
7932.08
7931.68
7931.19
7930.97
7930.77
7930.58
7930.2
7930.2
7930.15
7930.11
7929.95
7930.07
7930.05
7930.19
7930.19
7930.35
7930.32
7930.59
7930.59
7930.92
7930.92
7931.36
7931.35
7931.85
7931.85
7932.93
7933.21
7933.25
7933.25
7933.94
7933.94
7934.87
7934.87
7936.03
7936.62
7937.25
7937.25
7937.92
7938.57
7938.99
7939.17
7939.17
7939.17
7939.98
7939.98
7941.11
7941.51
7941.5
7941.5
7942.66
7942.67
7944.05
7944.75
7945.53
7946.27
7946.28
7946.27
7947.66
7948.08
7949.32
7949.52
7949.52
7950.89
7950.93
7952.46
7954.16
7954.55
7956.25
7958.34
7960.18
7963.37
7966.16
7971.92
7976.81
7987.77
8036.23
8250.88
73727.2
8328.84
8121.34
8041.16
8001.34
7977.57
7962.52
7952.02
7944.72
7939.17
7935.14
7931.89
7929.48
7927.44
7925.93
7924.58
7923.6
7922.69
7922.04
7921.39
7920.96
7920.46
7920.22
7919.99
7919.8
7919.4
7919.39
7919.33
7919.28
7919.1
7919.22
7919.2
7919.33
7919.32
7919.48
7919.44
7919.71
7919.71
7920.04
7920.03
7920.47
7920.46
7920.96
7920.96
7922.05
7922.33
7922.37
7922.37
7923.07
7923.07
7924.01
7924.01
7925.17
7925.76
7926.42
7926.42
7927.07
7927.74
7928.17
7928.36
7928.36
7928.36
7929.19
7929.19
7930.32
7930.73
7930.73
7930.73
7931.91
7931.92
7933.32
7934.01
7934.8
7935.57
7935.58
7935.57
7936.97
7937.41
7938.66
7938.88
7938.88
7940.28
7940.34
7941.86
7943.59
7944.02
7945.72
7947.84
7949.71
7952.92
7955.76
7961.51
7966.56
7977.2
8027.7
8244.08
70382.6
8327.07
8116.1
8033.89
7992.84
7968.26
7952.66
7941.75
7934.15
7928.37
7924.16
7920.76
7918.23
7916.1
7914.51
7913.1
7912.06
7911.1
7910.42
7909.73
7909.28
7908.75
7908.49
7908.24
7908.03
7907.63
7907.6
7907.53
7907.47
7907.27
7907.38
7907.36
7907.49
7907.47
7907.62
7907.58
7907.85
7907.84
7908.16
7908.16
7908.59
7908.59
7909.08
7909.08
7910.18
7910.47
7910.5
7910.5
7911.2
7911.2
7912.15
7912.15
7913.31
7913.91
7914.59
7914.59
7915.23
7915.92
7916.36
7916.57
7916.57
7916.57
7917.42
7917.42
7918.54
7918.98
7918.98
7918.97
7920.18
7920.19
7921.6
7922.29
7923.1
7923.9
7923.9
7923.9
7925.3
7925.77
7927.03
7927.28
7927.28
7928.7
7928.77
7930.3
7932.06
7932.52
7934.24
7936.37
7938.29
7941.51
7944.41
7950.14
7955.37
7965.66
8018.39
8236.35
67107.4
8325.18
8110.46
8026.05
7983.67
7958.21
7941.99
7930.64
7922.7
7916.66
7912.26
7908.7
7906.05
7903.81
7902.13
7900.65
7899.55
7898.54
7897.81
7897.09
7896.61
7896.05
7895.76
7895.5
7895.27
7894.85
7894.81
7894.73
7894.66
7894.45
7894.55
7894.52
7894.64
7894.62
7894.76
7894.71
7894.97
7894.97
7895.28
7895.28
7895.7
7895.7
7896.19
7896.19
7897.3
7897.59
7897.62
7897.62
7898.33
7898.33
7899.3
7899.3
7900.46
7901.06
7901.76
7901.76
7902.39
7903.1
7903.55
7903.78
7903.78
7903.77
7904.65
7904.65
7905.77
7906.23
7906.23
7906.22
7907.44
7907.47
7908.89
7909.58
7910.39
7911.23
7911.24
7911.24
7912.64
7913.13
7914.41
7914.69
7914.69
7916.13
7916.23
7917.75
7919.54
7920.04
7921.78
7923.93
7925.88
7929.12
7932.08
7937.8
7943.23
7953.13
8008.28
8227.65
63906.6
8323.18
8104.44
8017.65
7973.8
7947.39
7930.51
7918.66
7910.37
7904.05
7899.42
7895.69
7892.9
7890.55
7888.78
7887.21
7886.06
7884.99
7884.21
7883.45
7882.93
7882.34
7882.03
7881.74
7881.5
7881.06
7881
7880.91
7880.83
7880.6
7880.69
7880.65
7880.77
7880.75
7880.88
7880.82
7881.07
7881.07
7881.37
7881.37
7881.79
7881.79
7882.28
7882.28
7883.4
7883.7
7883.72
7883.72
7884.43
7884.43
7885.42
7885.41
7886.57
7887.19
7887.91
7887.91
7888.52
7889.25
7889.72
7889.97
7889.96
7889.96
7890.86
7890.86
7891.97
7892.46
7892.46
7892.45
7893.69
7893.73
7895.17
7895.85
7896.67
7897.56
7897.56
7897.56
7898.97
7899.49
7900.78
7901.1
7901.1
7902.56
7902.68
7904.2
7906.02
7906.57
7908.32
7910.49
7912.49
7915.74
7918.76
7924.45
7930.1
7939.59
7997.34
8217.96
60785.3
8321.09
8098.02
8008.67
7963.25
7935.8
7918.19
7905.82
7897.13
7890.51
7885.65
7881.73
7878.79
7876.31
7874.44
7872.79
7871.56
7870.43
7869.6
7868.79
7868.24
7867.62
7867.27
7866.96
7866.7
7866.24
7866.16
7866.05
7865.96
7865.72
7865.8
7865.75
7865.86
7865.84
7865.95
7865.89
7866.14
7866.13
7866.43
7866.42
7866.84
7866.84
7867.33
7867.32
7868.45
7868.76
7868.77
7868.77
7869.49
7869.49
7870.5
7870.49
7871.65
7872.27
7873.02
7873.03
7873.61
7874.37
7874.85
7875.11
7875.11
7875.11
7876.04
7876.04
7877.14
7877.66
7877.66
7877.65
7878.91
7878.96
7880.42
7881.09
7881.92
7882.85
7882.85
7882.85
7884.28
7884.82
7886.12
7886.47
7886.48
7887.96
7888.11
7889.62
7891.48
7892.07
7893.84
7896.03
7898.07
7901.34
7904.43
7910.09
7915.97
7925.02
7985.55
8207.27
57747.8
8318.89
8091.23
7999.12
7952.01
7923.43
7905.05
7892.11
7882.99
7876.04
7870.92
7866.8
7863.69
7861.07
7859.09
7857.35
7856.04
7854.84
7853.96
7853.11
7852.51
7851.85
7851.48
7851.13
7850.85
7850.38
7850.28
7850.15
7850.05
7849.78
7849.85
7849.8
7849.9
7849.87
7849.98
7849.9
7850.14
7850.14
7850.42
7850.41
7850.83
7850.83
7851.31
7851.31
7852.44
7852.76
7852.77
7852.77
7853.48
7853.49
7854.51
7854.51
7855.66
7856.29
7857.08
7857.08
7857.65
7858.43
7858.93
7859.21
7859.21
7859.2
7860.16
7860.16
7861.25
7861.8
7861.8
7861.8
7863.07
7863.14
7864.61
7865.28
7866.12
7867.1
7867.1
7867.1
7868.53
7869.11
7870.42
7870.81
7870.82
7872.32
7872.5
7874.01
7875.9
7876.54
7878.32
7880.54
7882.63
7885.91
7889.07
7894.69
7900.82
7909.39
7972.88
8195.53
54798.3
8316.59
8084.06
7989
7940.07
7910.29
7891.06
7877.5
7867.93
7860.62
7855.23
7850.88
7847.59
7844.83
7842.73
7840.88
7839.49
7838.22
7837.28
7836.37
7835.73
7835.03
7834.62
7834.25
7833.95
7833.45
7833.32
7833.18
7833.06
7832.78
7832.84
7832.78
7832.86
7832.83
7832.92
7832.84
7833.07
7833.07
7833.34
7833.32
7833.74
7833.74
7834.22
7834.21
7835.36
7835.68
7835.68
7835.68
7836.41
7836.41
7837.46
7837.45
7838.6
7839.24
7840.05
7840.06
7840.6
7841.41
7841.92
7842.23
7842.23
7842.22
7843.21
7843.21
7844.29
7844.88
7844.88
7844.87
7846.16
7846.25
7847.74
7848.4
7849.25
7850.27
7850.28
7850.28
7851.72
7852.33
7853.66
7854.09
7854.1
7855.63
7855.84
7857.34
7859.26
7859.96
7861.76
7863.99
7866.13
7869.43
7872.66
7878.24
7884.64
7892.71
7959.32
8182.72
51940.6
8314.21
8076.51
7978.32
7927.44
7896.36
7876.23
7862.01
7851.94
7844.25
7838.56
7833.97
7830.49
7827.56
7825.33
7823.38
7821.89
7820.55
7819.54
7818.57
7817.88
7817.14
7816.7
7816.29
7815.96
7815.44
7815.29
7815.13
7815
7814.69
7814.74
7814.67
7814.74
7814.71
7814.78
7814.69
7814.91
7814.91
7815.17
7815.15
7815.56
7815.56
7816.03
7816.02
7817.18
7817.5
7817.51
7817.51
7818.23
7818.23
7819.3
7819.3
7820.45
7821.09
7821.94
7821.94
7822.46
7823.3
7823.83
7824.16
7824.16
7824.15
7825.17
7825.18
7826.23
7826.86
7826.86
7826.86
7828.17
7828.27
7829.78
7830.43
7831.3
7832.37
7832.38
7832.38
7833.83
7834.48
7835.81
7836.29
7836.3
7837.85
7838.11
7839.6
7841.55
7842.3
7844.12
7846.37
7848.56
7851.87
7855.18
7860.71
7867.39
7874.93
7944.82
8168.81
49178.1
8311.75
8068.61
7967.07
7914.11
7881.65
7860.54
7845.62
7835.01
7826.91
7820.9
7816.05
7812.36
7809.27
7806.89
7804.82
7803.24
7801.8
7800.73
7799.7
7798.96
7798.17
7797.68
7797.24
7796.88
7796.34
7796.16
7795.98
7795.83
7795.51
7795.53
7795.45
7795.51
7795.48
7795.54
7795.43
7795.64
7795.64
7795.88
7795.86
7796.26
7796.26
7796.73
7796.72
7797.89
7798.21
7798.22
7798.22
7798.95
7798.95
7800.04
7800.04
7801.18
7801.83
7802.72
7802.72
7803.21
7804.08
7804.63
7804.98
7804.99
7804.98
7806.03
7806.04
7807.07
7807.74
7807.75
7807.74
7809.07
7809.19
7810.73
7811.36
7812.24
7813.36
7813.38
7813.39
7814.84
7815.52
7816.87
7817.4
7817.4
7818.98
7819.28
7820.76
7822.74
7823.55
7825.39
7827.66
7829.9
7833.22
7836.61
7842.09
7849.06
7856.05
7929.35
8153.76
46513.8
8309.22
8060.35
7955.27
7900.1
7866.15
7844.01
7828.32
7817.14
7808.6
7802.24
7797.11
7793.2
7789.92
7787.4
7785.19
7783.51
7781.98
7780.83
7779.73
7778.93
7778.09
7777.56
7777.08
7776.7
7776.12
7775.92
7775.71
7775.55
7775.21
7775.21
7775.12
7775.17
7775.12
7775.17
7775.05
7775.25
7775.24
7775.48
7775.44
7775.84
7775.84
7776.3
7776.29
7777.47
7777.8
7777.8
7777.8
7778.53
7778.53
7779.65
7779.65
7780.78
7781.44
7782.36
7782.37
7782.83
7783.73
7784.29
7784.68
7784.69
7784.67
7785.77
7785.77
7786.79
7787.5
7787.5
7787.5
7788.85
7788.99
7790.55
7791.17
7792.06
7793.23
7793.27
7793.27
7794.73
7795.44
7796.8
7797.39
7797.4
7798.99
7799.34
7800.81
7802.83
7803.69
7805.55
7807.84
7810.14
7813.47
7816.94
7822.35
7829.62
7836.05
7912.88
8137.55
43950.3
8306.61
8051.74
7942.91
7885.38
7849.86
7826.61
7810.11
7798.32
7789.3
7782.57
7777.15
7773
7769.52
7766.83
7764.49
7762.69
7761.06
7759.82
7758.65
7757.8
7756.9
7756.33
7755.8
7755.39
7754.78
7754.55
7754.31
7754.13
7753.77
7753.76
7753.65
7753.68
7753.63
7753.66
7753.52
7753.71
7753.71
7753.93
7753.88
7754.28
7754.28
7754.72
7754.72
7755.91
7756.23
7756.24
7756.23
7756.97
7756.97
7758.11
7758.11
7759.23
7759.9
7760.86
7760.87
7761.3
7762.23
7762.82
7763.23
7763.24
7763.22
7764.36
7764.37
7765.36
7766.12
7766.12
7766.12
7767.49
7767.66
7769.23
7769.83
7770.74
7771.97
7772.01
7772.01
7773.49
7774.23
7775.61
7776.25
7776.26
7777.88
7778.28
7779.73
7781.78
7782.69
7784.58
7786.89
7789.25
7792.58
7796.14
7801.47
7809.07
7814.91
7895.36
8120.14
41490
8303.95
8042.8
7930.01
7869.98
7832.79
7808.35
7790.98
7778.54
7769.02
7761.89
7756.14
7751.74
7748.04
7745.18
7742.69
7740.77
7739.03
7737.71
7736.46
7735.54
7734.59
7733.96
7733.39
7732.94
7732.3
7732.03
7731.77
7731.57
7731.19
7731.15
7731.03
7731.05
7730.99
7731
7730.84
7731.02
7731.01
7731.22
7731.17
7731.55
7731.55
7731.99
7731.99
7733.18
7733.51
7733.52
7733.5
7734.24
7734.25
7735.42
7735.41
7736.53
7737.2
7738.2
7738.21
7738.6
7739.58
7740.18
7740.63
7740.64
7740.62
7741.79
7741.81
7742.77
7743.58
7743.58
7743.58
7744.96
7745.16
7746.76
7747.34
7748.27
7749.55
7749.61
7749.61
7751.09
7751.87
7753.26
7753.96
7753.97
7755.61
7756.06
7757.5
7759.59
7760.56
7762.47
7764.79
7767.21
7770.55
7774.19
7779.45
7787.36
7792.62
7876.77
8101.48
39134.8
8301.24
8033.53
7916.57
7853.9
7814.92
7789.23
7770.93
7757.8
7747.73
7740.18
7734.09
7729.41
7725.49
7722.44
7719.79
7717.73
7715.89
7714.47
7713.13
7712.14
7711.13
7710.44
7709.82
7709.34
7708.66
7708.36
7708.06
7707.85
7707.44
7707.38
7707.24
7707.24
7707.18
7707.16
7706.99
7707.16
7707.15
7707.33
7707.27
7707.65
7707.65
7708.08
7708.07
7709.28
7709.6
7709.61
7709.6
7710.34
7710.34
7711.54
7711.54
7712.64
7713.32
7714.36
7714.38
7714.73
7715.74
7716.36
7716.85
7716.86
7716.84
7718.04
7718.08
7719
7719.86
7719.87
7719.86
7721.27
7721.49
7723.11
7723.68
7724.62
7725.96
7726.03
7726.03
7727.53
7728.34
7729.74
7730.51
7730.52
7732.18
7732.69
7734.11
7736.23
7737.25
7739.2
7741.53
7744.01
7747.35
7751.09
7756.25
7764.49
7769.15
7857.05
8081.53
36886.3
8298.49
8023.94
7902.6
7837.14
7796.27
7769.24
7749.96
7736.09
7725.44
7717.44
7710.99
7706.01
7701.84
7698.59
7695.77
7693.57
7691.61
7690.08
7688.66
7687.59
7686.51
7685.77
7685.09
7684.57
7683.85
7683.51
7683.19
7682.95
7682.51
7682.43
7682.28
7682.26
7682.18
7682.15
7681.95
7682.11
7682.1
7682.26
7682.19
7682.56
7682.56
7682.97
7682.97
7684.18
7684.51
7684.51
7684.5
7685.24
7685.24
7686.47
7686.47
7687.55
7688.25
7689.33
7689.36
7689.66
7690.71
7691.34
7691.87
7691.88
7691.86
7693.11
7693.16
7694.04
7694.95
7694.96
7694.96
7696.38
7696.63
7698.28
7698.82
7699.79
7701.17
7701.27
7701.27
7702.77
7703.62
7705.04
7705.87
7705.88
7707.56
7708.14
7709.54
7711.68
7712.77
7714.74
7717.09
7719.63
7722.96
7726.8
7731.87
7740.43
7744.49
7836.15
8060.25
34745.7
8295.7
8014.06
7888.11
7819.7
7776.84
7748.4
7728.07
7713.4
7702.15
7693.66
7686.82
7681.52
7677.1
7673.63
7670.63
7668.28
7666.18
7664.55
7663.02
7661.87
7660.72
7659.92
7659.18
7658.61
7657.85
7657.48
7657.12
7656.85
7656.39
7656.28
7656.11
7656.08
7655.98
7655.93
7655.72
7655.86
7655.84
7655.99
7655.9
7656.26
7656.26
7656.66
7656.65
7657.88
7658.2
7658.2
7658.19
7658.93
7658.93
7660.19
7660.19
7661.26
7661.96
7663.08
7663.12
7663.37
7664.47
7665.12
7665.69
7665.7
7665.68
7666.96
7667.04
7667.87
7668.84
7668.85
7668.84
7670.29
7670.57
7672.24
7672.75
7673.74
7675.19
7675.3
7675.31
7676.82
7677.7
7679.13
7680.04
7680.05
7681.74
7682.38
7683.77
7685.94
7687.08
7689.08
7691.45
7694.05
7697.38
7701.31
7706.28
7715.16
7718.63
7814.04
8037.6
32713.9
8292.89
8003.89
7873.12
7801.6
7756.63
7726.68
7705.25
7689.74
7677.84
7668.83
7661.58
7655.95
7651.24
7647.55
7644.35
7641.84
7639.6
7637.85
7636.22
7634.98
7633.75
7632.88
7632.09
7631.47
7630.66
7630.24
7629.85
7629.55
7629.06
7628.93
7628.74
7628.68
7628.57
7628.5
7628.26
7628.39
7628.37
7628.5
7628.39
7628.75
7628.74
7629.13
7629.11
7630.35
7630.66
7630.67
7630.65
7631.4
7631.4
7632.68
7632.69
7633.74
7634.45
7635.6
7635.66
7635.87
7637.01
7637.67
7638.28
7638.29
7638.27
7639.59
7639.69
7640.47
7641.5
7641.51
7641.51
7642.97
7643.28
7644.98
7645.46
7646.48
7647.98
7648.12
7648.12
7649.64
7650.56
7652
7652.99
7653
7654.7
7655.41
7656.78
7658.98
7660.17
7662.21
7664.59
7667.25
7670.57
7674.6
7679.46
7688.66
7691.54
7790.67
8013.51
30791.6
8290.06
7993.44
7857.63
7782.84
7735.65
7704.11
7681.51
7665.11
7652.51
7642.96
7635.26
7629.28
7624.27
7620.33
7616.93
7614.24
7611.85
7609.97
7608.24
7606.91
7605.59
7604.65
7603.79
7603.12
7602.26
7601.8
7601.36
7601.04
7600.51
7600.35
7600.14
7600.06
7599.93
7599.85
7599.58
7599.69
7599.67
7599.77
7599.65
7599.99
7599.99
7600.36
7600.34
7601.58
7601.89
7601.9
7601.88
7602.62
7602.62
7603.94
7603.94
7604.97
7605.69
7606.89
7606.95
7607.12
7608.3
7608.97
7609.63
7609.64
7609.62
7610.97
7611.11
7611.83
7612.92
7612.94
7612.93
7614.41
7614.76
7616.48
7616.93
7617.97
7619.53
7619.7
7619.7
7621.23
7622.19
7623.63
7624.7
7624.71
7626.43
7627.21
7628.56
7630.79
7632.04
7634.11
7636.49
7639.22
7642.53
7646.65
7651.41
7660.9
7663.21
7765.97
7987.93
28979.3
8287.22
7982.74
7841.66
7763.44
7713.9
7680.69
7656.84
7639.5
7626.16
7616.03
7607.86
7601.5
7596.18
7591.98
7588.36
7585.48
7582.93
7580.92
7579.06
7577.63
7576.23
7575.2
7574.27
7573.55
7572.64
7572.13
7571.65
7571.29
7570.73
7570.54
7570.3
7570.21
7570.06
7569.95
7569.66
7569.76
7569.73
7569.8
7569.66
7569.99
7569.99
7570.34
7570.31
7571.56
7571.87
7571.87
7571.85
7572.6
7572.59
7573.94
7573.95
7574.95
7575.69
7576.92
7576.99
7577.11
7578.34
7579.02
7579.72
7579.74
7579.72
7581.11
7581.28
7581.93
7583.09
7583.12
7583.11
7584.61
7584.98
7586.73
7587.15
7588.22
7589.83
7590.03
7590.03
7591.56
7592.56
7594.02
7595.16
7595.19
7596.92
7597.77
7599.1
7601.35
7602.65
7604.76
7607.15
7609.94
7613.23
7617.45
7622.1
7631.87
7633.63
7739.91
7960.82
27277.1
8284.38
7971.8
7825.22
7743.41
7691.39
7656.42
7631.25
7612.91
7598.8
7588.05
7579.38
7572.61
7566.96
7562.48
7558.62
7555.55
7552.83
7550.67
7548.69
7547.15
7545.65
7544.54
7543.54
7542.75
7541.79
7541.22
7540.69
7540.31
7539.71
7539.48
7539.22
7539.1
7538.93
7538.81
7538.49
7538.57
7538.53
7538.58
7538.41
7538.73
7538.73
7539.06
7539.02
7540.28
7540.58
7540.58
7540.56
7541.3
7541.3
7542.67
7542.69
7543.66
7544.41
7545.67
7545.76
7545.84
7547.1
7547.8
7548.55
7548.57
7548.55
7549.97
7550.18
7550.77
7551.99
7552.02
7552.01
7553.53
7553.94
7555.72
7556.09
7557.19
7558.86
7559.09
7559.1
7560.64
7561.67
7563.14
7564.35
7564.4
7566.13
7567.06
7568.37
7570.64
7571.99
7574.14
7576.54
7579.39
7582.67
7586.99
7591.52
7601.55
7602.78
7712.43
7932.1
25685.4
8281.56
7960.63
7808.34
7722.75
7668.14
7631.3
7604.75
7585.36
7570.41
7559.01
7549.82
7542.62
7536.61
7531.83
7527.72
7524.44
7521.54
7519.22
7517.11
7515.45
7513.85
7512.65
7511.57
7510.72
7509.7
7509.07
7508.49
7508.07
7507.43
7507.17
7506.88
7506.73
7506.53
7506.4
7506.05
7506.11
7506.06
7506.08
7505.89
7506.2
7506.2
7506.51
7506.46
7507.72
7508.01
7508.02
7507.99
7508.73
7508.72
7510.12
7510.15
7511.08
7511.85
7513.15
7513.24
7513.29
7514.59
7515.29
7516.1
7516.11
7516.11
7517.55
7517.8
7518.31
7519.6
7519.65
7519.64
7521.17
7521.62
7523.42
7523.76
7524.89
7526.61
7526.88
7526.88
7528.43
7529.5
7530.98
7532.26
7532.34
7534.07
7535.07
7536.36
7538.66
7540.06
7542.25
7544.65
7547.56
7550.82
7555.23
7559.65
7569.91
7570.65
7683.48
7901.7
24203.9
8278.76
7949.26
7791.02
7701.49
7644.15
7605.35
7577.34
7556.83
7541.01
7528.92
7519.16
7511.51
7505.12
7500.03
7495.65
7492.15
7489.05
7486.57
7484.31
7482.53
7480.82
7479.53
7478.35
7477.44
7476.35
7475.67
7475.03
7474.57
7473.89
7473.59
7473.27
7473.1
7472.87
7472.71
7472.34
7472.38
7472.32
7472.31
7472.09
7472.38
7472.38
7472.67
7472.61
7473.87
7474.16
7474.16
7474.14
7474.87
7474.86
7476.28
7476.32
7477.22
7477.99
7479.33
7479.42
7479.45
7480.78
7481.49
7482.35
7482.36
7482.36
7483.84
7484.13
7484.57
7485.92
7485.98
7485.97
7487.52
7488
7489.83
7490.13
7491.29
7493.06
7493.37
7493.38
7494.94
7496.03
7497.53
7498.88
7499
7500.72
7501.79
7503.07
7505.38
7506.83
7509.06
7511.46
7514.44
7517.67
7522.18
7526.48
7536.94
7537.22
7652.99
7869.6
22830.1
8275.98
7937.71
7773.29
7679.64
7619.44
7578.57
7549.02
7527.33
7510.59
7497.77
7487.42
7479.28
7472.49
7467.07
7462.41
7458.66
7455.36
7452.71
7450.29
7448.38
7446.56
7445.16
7443.89
7442.91
7441.75
7441
7440.31
7439.8
7439.08
7438.74
7438.38
7438.18
7437.92
7437.75
7437.35
7437.36
7437.29
7437.25
7436.99
7437.28
7437.28
7437.54
7437.46
7438.73
7439
7439.01
7438.98
7439.7
7439.69
7441.14
7441.19
7442.04
7442.84
7444.21
7444.29
7444.3
7445.67
7446.38
7447.29
7447.31
7447.31
7448.83
7449.15
7449.51
7450.93
7451.01
7451
7452.56
7453.08
7454.94
7455.19
7456.39
7458.21
7458.56
7458.57
7460.13
7461.27
7462.77
7464.19
7464.35
7466.07
7467.2
7468.47
7470.8
7472.29
7474.57
7476.96
7480.01
7483.2
7487.81
7491.99
7502.61
7502.48
7620.9
7835.73
21558.4
8273.25
7925.99
7755.17
7657.21
7594.02
7550.99
7519.81
7496.88
7479.17
7465.57
7454.6
7445.94
7438.73
7432.95
7427.99
7423.99
7420.46
7417.63
7415.05
7413
7411.05
7409.54
7408.18
7407.11
7405.88
7405.06
7404.31
7403.75
7402.98
7402.6
7402.2
7401.97
7401.68
7401.49
7401.07
7401.05
7400.96
7400.89
7400.6
7400.87
7400.87
7401.1
7401
7402.27
7402.54
7402.54
7402.51
7403.22
7403.21
7404.68
7404.76
7405.55
7406.36
7407.77
7407.85
7407.85
7409.24
7409.95
7410.91
7410.94
7410.95
7412.49
7412.85
7413.15
7414.62
7414.72
7414.71
7416.29
7416.84
7418.73
7418.94
7420.16
7422.04
7422.44
7422.44
7424.02
7425.18
7426.69
7428.18
7428.4
7430.09
7431.3
7432.55
7434.9
7436.44
7438.75
7441.14
7444.25
7447.41
7452.11
7456.18
7466.94
7466.41
7587.13
7800.07
20383.4
8270.57
7914.12
7736.68
7634.24
7567.91
7522.6
7489.72
7465.48
7446.74
7432.33
7420.69
7411.49
7403.82
7397.67
7392.39
7388.12
7384.36
7381.33
7378.57
7376.37
7374.29
7372.67
7371.2
7370.05
7368.74
7367.85
7367.03
7366.42
7365.6
7365.17
7364.73
7364.47
7364.14
7363.93
7363.49
7363.43
7363.32
7363.23
7362.9
7363.15
7363.15
7363.36
7363.23
7364.51
7364.75
7364.76
7364.73
7365.42
7365.41
7366.9
7367
7367.73
7368.57
7370
7370.07
7370.06
7371.48
7372.19
7373.21
7373.25
7373.26
7374.83
7375.22
7375.45
7376.98
7377.11
7377.1
7378.69
7379.27
7381.19
7381.36
7382.61
7384.53
7384.99
7384.99
7386.57
7387.77
7389.29
7390.83
7391.12
7392.79
7394.07
7395.31
7397.67
7399.24
7401.61
7403.99
7407.16
7410.28
7415.08
7419.02
7429.91
7429
7551.59
7762.57
19299.6
8267.94
7902.13
7717.85
7610.73
7541.12
7493.43
7458.75
7433.14
7413.32
7398.04
7385.7
7375.93
7367.78
7361.23
7355.61
7351.05
7347.05
7343.8
7340.86
7338.51
7336.29
7334.54
7332.96
7331.71
7330.33
7329.35
7328.46
7327.8
7326.93
7326.44
7325.96
7325.66
7325.3
7325.06
7324.59
7324.51
7324.37
7324.26
7323.89
7324.12
7324.12
7324.29
7324.14
7325.41
7325.65
7325.66
7325.62
7326.3
7326.28
7327.78
7327.91
7328.58
7329.44
7330.9
7330.96
7330.95
7332.39
7333.1
7334.16
7334.22
7334.23
7335.84
7336.25
7336.42
7338.01
7338.16
7338.15
7339.75
7340.37
7342.31
7342.45
7343.73
7345.69
7346.21
7346.2
7347.79
7349.02
7350.55
7352.14
7352.5
7354.15
7355.5
7356.73
7359.1
7360.71
7363.12
7365.49
7368.72
7371.8
7376.68
7380.51
7391.49
7390.25
7514.23
7723.19
18301.3
8265.38
7890.05
7698.69
7586.72
7513.68
7463.49
7426.93
7399.87
7378.91
7362.72
7349.64
7339.26
7330.61
7323.64
7317.66
7312.8
7308.53
7305.06
7301.92
7299.4
7297.03
7295.15
7293.45
7292.11
7290.63
7289.57
7288.61
7287.88
7286.96
7286.42
7285.89
7285.55
7285.15
7284.88
7284.38
7284.27
7284.11
7283.97
7283.55
7283.76
7283.76
7283.9
7283.72
7284.99
7285.21
7285.22
7285.17
7285.84
7285.82
7287.33
7287.49