/*--------------------------------*- C++ -*----------------------------------*\
| =========                 |                                                 |
| \\      /  F ield         | OpenFOAM: The Open Source CFD Toolbox           |
|  \\    /   O peration     | Version:  v2012                                 |
|   \\  /    A nd           | Website:  www.openfoam.com                      |
|    \\/     M anipulation  |                                                 |
\*---------------------------------------------------------------------------*/
FoamFile
{
    version     2.0;
    format      ascii;
    class       volScalarField;
    location    "53";
    object      nut;
}
// * * * * * * * * * * * * * * * * * * * * * * * * * * * * * * * * * * * * * //

dimensions      [0 2 -1 0 0 0 0];


internalField   nonuniform List<scalar> 
209825
(
1.24204e-07
1.23625e-07
1.21896e-07
1.18203e-07
1.12883e-07
1.06731e-07
1.00414e-07
9.43643e-08
8.87694e-08
8.3715e-08
7.91799e-08
7.51493e-08
7.15506e-08
6.83587e-08
6.5499e-08
6.29555e-08
6.06605e-08
5.86115e-08
5.67473e-08
5.50772e-08
5.35447e-08
5.21678e-08
5.08934e-08
4.97464e-08
4.86748e-08
4.77098e-08
4.67992e-08
4.59808e-08
4.52003e-08
4.45001e-08
4.38256e-08
4.32232e-08
4.2636e-08
4.2114e-08
4.15991e-08
4.11447e-08
4.06904e-08
4.0293e-08
3.98903e-08
3.95416e-08
3.91828e-08
3.88756e-08
3.85544e-08
3.82821e-08
3.7993e-08
3.77522e-08
3.74912e-08
3.72767e-08
3.704e-08
3.68501e-08
3.66338e-08
3.64645e-08
3.62675e-08
3.61168e-08
3.59376e-08
3.58003e-08
3.5637e-08
3.55158e-08
3.53637e-08
3.52571e-08
3.51171e-08
3.50195e-08
3.48909e-08
3.48025e-08
3.46844e-08
3.46031e-08
3.44968e-08
3.442e-08
3.43211e-08
3.42512e-08
3.41608e-08
3.40976e-08
3.40154e-08
3.39587e-08
3.38802e-08
3.38251e-08
3.37474e-08
3.36924e-08
3.36146e-08
3.35597e-08
3.34842e-08
3.34286e-08
3.33563e-08
3.33019e-08
3.32307e-08
3.31783e-08
3.31078e-08
3.3058e-08
3.29878e-08
3.29393e-08
3.28702e-08
3.28183e-08
3.2743e-08
3.30421e-08
3.85681e-06
2.34082e-08
1.24203e-07
1.23625e-07
1.21897e-07
1.18204e-07
1.12884e-07
1.06733e-07
1.00417e-07
9.43667e-08
8.87718e-08
8.37175e-08
7.91824e-08
7.51516e-08
7.15529e-08
6.83609e-08
6.5501e-08
6.29575e-08
6.06624e-08
5.86132e-08
5.67489e-08
5.50788e-08
5.35461e-08
5.21692e-08
5.08946e-08
4.97476e-08
4.86759e-08
4.77108e-08
4.68001e-08
4.59817e-08
4.52012e-08
4.45009e-08
4.38264e-08
4.32239e-08
4.26367e-08
4.21146e-08
4.15997e-08
4.11453e-08
4.0691e-08
4.02935e-08
3.98908e-08
3.9542e-08
3.91832e-08
3.8876e-08
3.85547e-08
3.82825e-08
3.79934e-08
3.77525e-08
3.74914e-08
3.72769e-08
3.70403e-08
3.68504e-08
3.6634e-08
3.64647e-08
3.62677e-08
3.6117e-08
3.59377e-08
3.58004e-08
3.56371e-08
3.55159e-08
3.53638e-08
3.52572e-08
3.51172e-08
3.50196e-08
3.4891e-08
3.48026e-08
3.46845e-08
3.46032e-08
3.44968e-08
3.442e-08
3.43212e-08
3.42512e-08
3.41608e-08
3.40976e-08
3.40154e-08
3.39587e-08
3.38802e-08
3.38251e-08
3.37474e-08
3.36923e-08
3.36146e-08
3.35597e-08
3.34841e-08
3.34285e-08
3.33562e-08
3.33018e-08
3.32306e-08
3.31782e-08
3.31077e-08
3.30579e-08
3.29877e-08
3.29392e-08
3.28701e-08
3.28182e-08
3.27429e-08
3.30423e-08
3.85844e-06
2.36056e-08
1.24203e-07
1.23625e-07
1.21898e-07
1.18207e-07
1.1289e-07
1.06741e-07
1.00426e-07
9.43765e-08
8.87818e-08
8.37274e-08
7.91921e-08
7.51609e-08
7.15618e-08
6.83693e-08
6.5509e-08
6.29649e-08
6.06693e-08
5.86197e-08
5.6755e-08
5.50845e-08
5.35515e-08
5.21742e-08
5.08994e-08
4.9752e-08
4.868e-08
4.77147e-08
4.68038e-08
4.59851e-08
4.52044e-08
4.45039e-08
4.38292e-08
4.32266e-08
4.26392e-08
4.2117e-08
4.16019e-08
4.11473e-08
4.06929e-08
4.02953e-08
3.98925e-08
3.95436e-08
3.91847e-08
3.88774e-08
3.8556e-08
3.82837e-08
3.79945e-08
3.77535e-08
3.74924e-08
3.72779e-08
3.70411e-08
3.68511e-08
3.66347e-08
3.64653e-08
3.62683e-08
3.61176e-08
3.59382e-08
3.58009e-08
3.56375e-08
3.55163e-08
3.53641e-08
3.52574e-08
3.51175e-08
3.50198e-08
3.48911e-08
3.48027e-08
3.46846e-08
3.46032e-08
3.44968e-08
3.442e-08
3.43211e-08
3.42511e-08
3.41607e-08
3.40975e-08
3.40152e-08
3.39585e-08
3.388e-08
3.38249e-08
3.37472e-08
3.36921e-08
3.36143e-08
3.35594e-08
3.34838e-08
3.34282e-08
3.33559e-08
3.33015e-08
3.32303e-08
3.31779e-08
3.31073e-08
3.30575e-08
3.29873e-08
3.29388e-08
3.28696e-08
3.28178e-08
3.27424e-08
3.30426e-08
3.86423e-06
2.39099e-08
1.24203e-07
1.23625e-07
1.21899e-07
1.18213e-07
1.129e-07
1.06754e-07
1.00441e-07
9.43929e-08
8.87987e-08
8.37442e-08
7.92084e-08
7.51766e-08
7.15767e-08
6.83834e-08
6.55223e-08
6.29774e-08
6.06811e-08
5.86307e-08
5.67653e-08
5.50942e-08
5.35606e-08
5.21827e-08
5.09073e-08
4.97594e-08
4.8687e-08
4.77212e-08
4.681e-08
4.59909e-08
4.52098e-08
4.4509e-08
4.3834e-08
4.32311e-08
4.26434e-08
4.2121e-08
4.16056e-08
4.11508e-08
4.06962e-08
4.02984e-08
3.98954e-08
3.95464e-08
3.91873e-08
3.88798e-08
3.85583e-08
3.82858e-08
3.79964e-08
3.77554e-08
3.74941e-08
3.72794e-08
3.70426e-08
3.68525e-08
3.6636e-08
3.64665e-08
3.62694e-08
3.61185e-08
3.59391e-08
3.58017e-08
3.56382e-08
3.5517e-08
3.53647e-08
3.52579e-08
3.51179e-08
3.50202e-08
3.48914e-08
3.4803e-08
3.46848e-08
3.46034e-08
3.44969e-08
3.44201e-08
3.43211e-08
3.42511e-08
3.41606e-08
3.40973e-08
3.4015e-08
3.39583e-08
3.38797e-08
3.38246e-08
3.37468e-08
3.36917e-08
3.36139e-08
3.3559e-08
3.34834e-08
3.34278e-08
3.33553e-08
3.3301e-08
3.32297e-08
3.31773e-08
3.31067e-08
3.30568e-08
3.29866e-08
3.29381e-08
3.28688e-08
3.2817e-08
3.27417e-08
3.3043e-08
3.87381e-06
2.42919e-08
1.24203e-07
1.23624e-07
1.21902e-07
1.18221e-07
1.12913e-07
1.06773e-07
1.00463e-07
9.44162e-08
8.88226e-08
8.37679e-08
7.92314e-08
7.51987e-08
7.15978e-08
6.84033e-08
6.55411e-08
6.29951e-08
6.06977e-08
5.86463e-08
5.67799e-08
5.51078e-08
5.35734e-08
5.21947e-08
5.09186e-08
4.977e-08
4.86969e-08
4.77305e-08
4.68187e-08
4.59991e-08
4.52175e-08
4.45162e-08
4.38408e-08
4.32375e-08
4.26494e-08
4.21266e-08
4.16109e-08
4.11558e-08
4.07009e-08
4.03028e-08
3.98995e-08
3.95502e-08
3.91909e-08
3.88832e-08
3.85614e-08
3.82888e-08
3.79992e-08
3.7758e-08
3.74965e-08
3.72817e-08
3.70446e-08
3.68544e-08
3.66378e-08
3.64681e-08
3.62709e-08
3.61199e-08
3.59404e-08
3.58029e-08
3.56393e-08
3.55179e-08
3.53655e-08
3.52587e-08
3.51185e-08
3.50207e-08
3.48919e-08
3.48034e-08
3.46851e-08
3.46036e-08
3.44971e-08
3.44202e-08
3.43211e-08
3.4251e-08
3.41605e-08
3.40972e-08
3.40148e-08
3.3958e-08
3.38794e-08
3.38242e-08
3.37464e-08
3.36913e-08
3.36134e-08
3.35585e-08
3.34828e-08
3.34272e-08
3.33547e-08
3.33003e-08
3.32289e-08
3.31765e-08
3.31058e-08
3.3056e-08
3.29857e-08
3.29371e-08
3.28678e-08
3.2816e-08
3.27406e-08
3.30436e-08
3.88721e-06
2.47424e-08
1.24202e-07
1.23623e-07
1.21905e-07
1.18232e-07
1.12931e-07
1.06797e-07
1.00491e-07
9.44464e-08
8.88535e-08
8.37986e-08
7.92614e-08
7.52275e-08
7.16251e-08
6.84292e-08
6.55655e-08
6.30181e-08
6.07193e-08
5.86665e-08
5.67989e-08
5.51256e-08
5.35901e-08
5.22103e-08
5.09332e-08
4.97837e-08
4.87098e-08
4.77426e-08
4.683e-08
4.60097e-08
4.52275e-08
4.45256e-08
4.38496e-08
4.32458e-08
4.26572e-08
4.21339e-08
4.16178e-08
4.11623e-08
4.0707e-08
4.03085e-08
3.99049e-08
3.95553e-08
3.91956e-08
3.88877e-08
3.85656e-08
3.82927e-08
3.80029e-08
3.77614e-08
3.74997e-08
3.72847e-08
3.70474e-08
3.6857e-08
3.66401e-08
3.64703e-08
3.62729e-08
3.61218e-08
3.59421e-08
3.58044e-08
3.56406e-08
3.55192e-08
3.53667e-08
3.52597e-08
3.51194e-08
3.50215e-08
3.48925e-08
3.48039e-08
3.46855e-08
3.46039e-08
3.44973e-08
3.44203e-08
3.43212e-08
3.4251e-08
3.41604e-08
3.4097e-08
3.40145e-08
3.39577e-08
3.3879e-08
3.38237e-08
3.37459e-08
3.36907e-08
3.36128e-08
3.35578e-08
3.3482e-08
3.34265e-08
3.33538e-08
3.32994e-08
3.3228e-08
3.31755e-08
3.31048e-08
3.30549e-08
3.29845e-08
3.29359e-08
3.28665e-08
3.28147e-08
3.27392e-08
3.30444e-08
3.90445e-06
2.52597e-08
1.24201e-07
1.23622e-07
1.21909e-07
1.18244e-07
1.12954e-07
1.06826e-07
1.00525e-07
9.44836e-08
8.88917e-08
8.38365e-08
7.92983e-08
7.5263e-08
7.1659e-08
6.84612e-08
6.55957e-08
6.30465e-08
6.0746e-08
5.86916e-08
5.68224e-08
5.51476e-08
5.36107e-08
5.22296e-08
5.09514e-08
4.98007e-08
4.87258e-08
4.77576e-08
4.68441e-08
4.60229e-08
4.52399e-08
4.45373e-08
4.38606e-08
4.32561e-08
4.26669e-08
4.2143e-08
4.16264e-08
4.11704e-08
4.07145e-08
4.03156e-08
3.99116e-08
3.95616e-08
3.92015e-08
3.88932e-08
3.85708e-08
3.82975e-08
3.80074e-08
3.77656e-08
3.75037e-08
3.72884e-08
3.70508e-08
3.68602e-08
3.66431e-08
3.64731e-08
3.62754e-08
3.61241e-08
3.59442e-08
3.58064e-08
3.56424e-08
3.55208e-08
3.53681e-08
3.5261e-08
3.51205e-08
3.50225e-08
3.48934e-08
3.48046e-08
3.46861e-08
3.46044e-08
3.44976e-08
3.44206e-08
3.43213e-08
3.4251e-08
3.41603e-08
3.40968e-08
3.40142e-08
3.39573e-08
3.38785e-08
3.38232e-08
3.37452e-08
3.36901e-08
3.36121e-08
3.35571e-08
3.34811e-08
3.34256e-08
3.33528e-08
3.32984e-08
3.32268e-08
3.31743e-08
3.31035e-08
3.30536e-08
3.2983e-08
3.29345e-08
3.28649e-08
3.28132e-08
3.27376e-08
3.30455e-08
3.92553e-06
2.58468e-08
1.242e-07
1.23621e-07
1.21914e-07
1.18259e-07
1.1298e-07
1.06862e-07
1.00566e-07
9.4528e-08
8.89373e-08
8.38818e-08
7.93424e-08
7.53054e-08
7.16994e-08
6.84995e-08
6.56319e-08
6.30804e-08
6.07779e-08
5.87215e-08
5.68505e-08
5.51739e-08
5.36354e-08
5.22528e-08
5.09731e-08
4.98211e-08
4.87449e-08
4.77755e-08
4.68609e-08
4.60388e-08
4.52548e-08
4.45513e-08
4.38737e-08
4.32684e-08
4.26786e-08
4.2154e-08
4.16367e-08
4.11801e-08
4.07236e-08
4.03242e-08
3.99196e-08
3.95691e-08
3.92086e-08
3.88999e-08
3.8577e-08
3.83034e-08
3.80129e-08
3.77708e-08
3.75084e-08
3.72928e-08
3.7055e-08
3.68641e-08
3.66467e-08
3.64764e-08
3.62785e-08
3.61269e-08
3.59468e-08
3.58088e-08
3.56445e-08
3.55227e-08
3.53698e-08
3.52625e-08
3.51219e-08
3.50237e-08
3.48944e-08
3.48055e-08
3.46868e-08
3.46049e-08
3.4498e-08
3.44209e-08
3.43215e-08
3.42511e-08
3.41602e-08
3.40966e-08
3.40139e-08
3.39569e-08
3.3878e-08
3.38226e-08
3.37445e-08
3.36893e-08
3.36112e-08
3.35562e-08
3.34801e-08
3.34246e-08
3.33516e-08
3.32972e-08
3.32255e-08
3.3173e-08
3.3102e-08
3.3052e-08
3.29814e-08
3.29328e-08
3.28631e-08
3.28113e-08
3.27357e-08
3.30468e-08
3.95043e-06
2.65101e-08
1.24199e-07
1.23619e-07
1.21919e-07
1.18277e-07
1.13011e-07
1.06903e-07
1.00614e-07
9.45797e-08
8.89904e-08
8.39346e-08
7.93939e-08
7.53549e-08
7.17466e-08
6.85442e-08
6.5674e-08
6.31201e-08
6.08152e-08
5.87565e-08
5.68833e-08
5.52047e-08
5.36643e-08
5.22798e-08
5.09985e-08
4.98449e-08
4.87672e-08
4.77965e-08
4.68807e-08
4.60573e-08
4.52722e-08
4.45676e-08
4.38891e-08
4.32829e-08
4.26922e-08
4.21668e-08
4.16488e-08
4.11914e-08
4.07343e-08
4.03342e-08
3.99291e-08
3.9578e-08
3.92169e-08
3.89077e-08
3.85844e-08
3.83103e-08
3.80193e-08
3.77768e-08
3.75141e-08
3.72981e-08
3.70599e-08
3.68687e-08
3.66509e-08
3.64804e-08
3.62821e-08
3.61303e-08
3.59498e-08
3.58116e-08
3.56471e-08
3.55251e-08
3.53719e-08
3.52644e-08
3.51235e-08
3.50251e-08
3.48957e-08
3.48066e-08
3.46877e-08
3.46057e-08
3.44986e-08
3.44213e-08
3.43217e-08
3.42512e-08
3.41601e-08
3.40964e-08
3.40135e-08
3.39565e-08
3.38774e-08
3.38219e-08
3.37437e-08
3.36885e-08
3.36103e-08
3.35553e-08
3.3479e-08
3.34235e-08
3.33503e-08
3.32958e-08
3.3224e-08
3.31714e-08
3.31003e-08
3.30503e-08
3.29795e-08
3.29309e-08
3.2861e-08
3.28093e-08
3.27335e-08
3.30484e-08
3.97909e-06
2.72587e-08
1.24198e-07
1.23617e-07
1.21925e-07
1.18297e-07
1.13046e-07
1.0695e-07
1.00669e-07
9.46389e-08
8.90511e-08
8.3995e-08
7.94529e-08
7.54116e-08
7.18007e-08
6.85954e-08
6.57224e-08
6.31656e-08
6.0858e-08
5.87966e-08
5.6921e-08
5.524e-08
5.36974e-08
5.23109e-08
5.10276e-08
4.98723e-08
4.87929e-08
4.78207e-08
4.69034e-08
4.60786e-08
4.52923e-08
4.45865e-08
4.39069e-08
4.32996e-08
4.27079e-08
4.21816e-08
4.16626e-08
4.12045e-08
4.07466e-08
4.03458e-08
3.99399e-08
3.95882e-08
3.92265e-08
3.89167e-08
3.85928e-08
3.83182e-08
3.80267e-08
3.77838e-08
3.75206e-08
3.73042e-08
3.70655e-08
3.6874e-08
3.66558e-08
3.64849e-08
3.62863e-08
3.61342e-08
3.59534e-08
3.58149e-08
3.565e-08
3.55278e-08
3.53743e-08
3.52666e-08
3.51255e-08
3.50269e-08
3.48972e-08
3.48079e-08
3.46888e-08
3.46066e-08
3.44993e-08
3.44218e-08
3.4322e-08
3.42514e-08
3.41601e-08
3.40963e-08
3.40132e-08
3.39561e-08
3.38768e-08
3.38212e-08
3.37428e-08
3.36876e-08
3.36092e-08
3.35542e-08
3.34777e-08
3.34223e-08
3.33488e-08
3.32943e-08
3.32223e-08
3.31697e-08
3.30984e-08
3.30484e-08
3.29773e-08
3.29287e-08
3.28586e-08
3.28069e-08
3.27311e-08
3.30504e-08
4.01141e-06
2.81046e-08
1.24197e-07
1.23615e-07
1.21932e-07
1.18319e-07
1.13085e-07
1.07002e-07
1.00731e-07
9.47055e-08
8.91197e-08
8.40633e-08
7.95195e-08
7.54756e-08
7.18618e-08
6.86534e-08
6.57771e-08
6.32171e-08
6.09064e-08
5.88421e-08
5.69637e-08
5.528e-08
5.3735e-08
5.23461e-08
5.10607e-08
4.99033e-08
4.88221e-08
4.7848e-08
4.69291e-08
4.61028e-08
4.5315e-08
4.46079e-08
4.3927e-08
4.33185e-08
4.27257e-08
4.21984e-08
4.16784e-08
4.12194e-08
4.07606e-08
4.0359e-08
3.99523e-08
3.95999e-08
3.92375e-08
3.8927e-08
3.86025e-08
3.83273e-08
3.80352e-08
3.77917e-08
3.7528e-08
3.73112e-08
3.7072e-08
3.688e-08
3.66614e-08
3.64902e-08
3.62911e-08
3.61387e-08
3.59575e-08
3.58187e-08
3.56535e-08
3.5531e-08
3.53771e-08
3.52691e-08
3.51277e-08
3.50289e-08
3.48989e-08
3.48094e-08
3.469e-08
3.46076e-08
3.45001e-08
3.44225e-08
3.43225e-08
3.42517e-08
3.41602e-08
3.40962e-08
3.40129e-08
3.39556e-08
3.38761e-08
3.38204e-08
3.37419e-08
3.36866e-08
3.36081e-08
3.3553e-08
3.34764e-08
3.34209e-08
3.33472e-08
3.32927e-08
3.32205e-08
3.31678e-08
3.30962e-08
3.30462e-08
3.2975e-08
3.29263e-08
3.2856e-08
3.28043e-08
3.27284e-08
3.30526e-08
4.04725e-06
2.90616e-08
1.24196e-07
1.23613e-07
1.21939e-07
1.18344e-07
1.13128e-07
1.07061e-07
1.008e-07
9.47799e-08
8.91962e-08
8.41395e-08
7.95939e-08
7.55473e-08
7.19302e-08
6.87182e-08
6.58384e-08
6.32748e-08
6.09607e-08
5.8893e-08
5.70115e-08
5.53249e-08
5.37771e-08
5.23856e-08
5.10978e-08
4.99381e-08
4.88548e-08
4.78787e-08
4.6958e-08
4.61299e-08
4.53406e-08
4.46319e-08
4.39496e-08
4.33398e-08
4.27457e-08
4.22172e-08
4.16962e-08
4.12361e-08
4.07763e-08
4.03738e-08
3.99662e-08
3.9613e-08
3.92498e-08
3.89386e-08
3.86133e-08
3.83375e-08
3.80448e-08
3.78007e-08
3.75364e-08
3.73191e-08
3.70793e-08
3.68869e-08
3.66678e-08
3.64961e-08
3.62966e-08
3.61437e-08
3.59622e-08
3.5823e-08
3.56574e-08
3.55346e-08
3.53804e-08
3.52721e-08
3.51303e-08
3.50312e-08
3.49009e-08
3.48112e-08
3.46915e-08
3.46089e-08
3.45011e-08
3.44233e-08
3.4323e-08
3.42521e-08
3.41603e-08
3.40962e-08
3.40126e-08
3.39552e-08
3.38755e-08
3.38197e-08
3.37409e-08
3.36856e-08
3.36069e-08
3.35518e-08
3.34749e-08
3.34195e-08
3.33455e-08
3.32909e-08
3.32185e-08
3.31658e-08
3.3094e-08
3.30439e-08
3.29724e-08
3.29237e-08
3.28531e-08
3.28015e-08
3.27254e-08
3.30552e-08
4.08642e-06
3.01457e-08
1.24194e-07
1.23611e-07
1.21947e-07
1.18371e-07
1.13176e-07
1.07125e-07
1.00876e-07
9.4862e-08
8.92808e-08
8.42238e-08
7.96763e-08
7.56267e-08
7.2006e-08
6.87901e-08
6.59064e-08
6.33388e-08
6.10209e-08
5.89496e-08
5.70646e-08
5.53747e-08
5.38239e-08
5.24295e-08
5.1139e-08
4.99768e-08
4.88911e-08
4.79129e-08
4.69901e-08
4.61601e-08
4.5369e-08
4.46586e-08
4.39748e-08
4.33635e-08
4.2768e-08
4.22382e-08
4.1716e-08
4.12547e-08
4.07939e-08
4.03903e-08
3.99818e-08
3.96276e-08
3.92635e-08
3.89516e-08
3.86255e-08
3.8349e-08
3.80555e-08
3.78108e-08
3.75458e-08
3.73279e-08
3.70875e-08
3.68946e-08
3.66749e-08
3.65028e-08
3.63028e-08
3.61495e-08
3.59674e-08
3.58279e-08
3.56618e-08
3.55386e-08
3.5384e-08
3.52754e-08
3.51333e-08
3.50339e-08
3.49033e-08
3.48132e-08
3.46933e-08
3.46104e-08
3.45023e-08
3.44243e-08
3.43237e-08
3.42526e-08
3.41605e-08
3.40962e-08
3.40124e-08
3.39548e-08
3.38748e-08
3.38189e-08
3.37399e-08
3.36845e-08
3.36056e-08
3.35505e-08
3.34733e-08
3.3418e-08
3.33436e-08
3.3289e-08
3.32163e-08
3.31635e-08
3.30915e-08
3.30414e-08
3.29696e-08
3.29209e-08
3.285e-08
3.27984e-08
3.27222e-08
3.30582e-08
4.12865e-06
3.1375e-08
1.24192e-07
1.23608e-07
1.21956e-07
1.18401e-07
1.13228e-07
1.07196e-07
1.00959e-07
9.49521e-08
8.93736e-08
8.43164e-08
7.97669e-08
7.57139e-08
7.20895e-08
6.88692e-08
6.59812e-08
6.34093e-08
6.10872e-08
5.90119e-08
5.71232e-08
5.54296e-08
5.38755e-08
5.24779e-08
5.11845e-08
5.00195e-08
4.89313e-08
4.79506e-08
4.70256e-08
4.61935e-08
4.54004e-08
4.46882e-08
4.40026e-08
4.33897e-08
4.27927e-08
4.22615e-08
4.17379e-08
4.12754e-08
4.08133e-08
4.04086e-08
3.9999e-08
3.96439e-08
3.92788e-08
3.89659e-08
3.8639e-08
3.83617e-08
3.80674e-08
3.7822e-08
3.75563e-08
3.73377e-08
3.70967e-08
3.69032e-08
3.66829e-08
3.65102e-08
3.63097e-08
3.61559e-08
3.59733e-08
3.58334e-08
3.56667e-08
3.55432e-08
3.53882e-08
3.52792e-08
3.51367e-08
3.50369e-08
3.49059e-08
3.48156e-08
3.46953e-08
3.46121e-08
3.45037e-08
3.44255e-08
3.43246e-08
3.42532e-08
3.41608e-08
3.40964e-08
3.40122e-08
3.39545e-08
3.38742e-08
3.38181e-08
3.37389e-08
3.36834e-08
3.36043e-08
3.35492e-08
3.34717e-08
3.34164e-08
3.33416e-08
3.3287e-08
3.3214e-08
3.31612e-08
3.30888e-08
3.30387e-08
3.29667e-08
3.29178e-08
3.28467e-08
3.27951e-08
3.27188e-08
3.30616e-08
4.17363e-06
3.27694e-08
1.24191e-07
1.23605e-07
1.21965e-07
1.18433e-07
1.13285e-07
1.07273e-07
1.01049e-07
9.50501e-08
8.94749e-08
8.44175e-08
7.98659e-08
7.58093e-08
7.21807e-08
6.89558e-08
6.60631e-08
6.34864e-08
6.11599e-08
5.90801e-08
5.71873e-08
5.54899e-08
5.3932e-08
5.2531e-08
5.12344e-08
5.00663e-08
4.89753e-08
4.7992e-08
4.70645e-08
4.62301e-08
4.54349e-08
4.47207e-08
4.40332e-08
4.34185e-08
4.28199e-08
4.22871e-08
4.1762e-08
4.12981e-08
4.08347e-08
4.04288e-08
4.0018e-08
3.96618e-08
3.92956e-08
3.89818e-08
3.86539e-08
3.83757e-08
3.80806e-08
3.78344e-08
3.75678e-08
3.73486e-08
3.71068e-08
3.69127e-08
3.66917e-08
3.65185e-08
3.63173e-08
3.6163e-08
3.59799e-08
3.58395e-08
3.56723e-08
3.55484e-08
3.53928e-08
3.52834e-08
3.51405e-08
3.50404e-08
3.49089e-08
3.48183e-08
3.46976e-08
3.46141e-08
3.45053e-08
3.44269e-08
3.43256e-08
3.4254e-08
3.41613e-08
3.40966e-08
3.40122e-08
3.39543e-08
3.38737e-08
3.38174e-08
3.37378e-08
3.36823e-08
3.3603e-08
3.35478e-08
3.347e-08
3.34147e-08
3.33396e-08
3.32849e-08
3.32116e-08
3.31587e-08
3.30861e-08
3.30358e-08
3.29635e-08
3.29146e-08
3.28431e-08
3.27916e-08
3.27151e-08
3.30654e-08
4.22096e-06
3.43506e-08
1.24189e-07
1.23602e-07
1.21975e-07
1.18467e-07
1.13346e-07
1.07356e-07
1.01147e-07
9.51564e-08
8.95847e-08
8.45272e-08
7.99733e-08
7.5913e-08
7.22798e-08
6.90499e-08
6.61522e-08
6.35704e-08
6.1239e-08
5.91545e-08
5.72572e-08
5.55555e-08
5.39937e-08
5.25889e-08
5.12888e-08
5.01175e-08
4.90234e-08
4.80372e-08
4.71071e-08
4.62702e-08
4.54726e-08
4.47562e-08
4.40666e-08
4.345e-08
4.28495e-08
4.23151e-08
4.17884e-08
4.1323e-08
4.08581e-08
4.04509e-08
4.00388e-08
3.96814e-08
3.93141e-08
3.89992e-08
3.86702e-08
3.83911e-08
3.8095e-08
3.7848e-08
3.75806e-08
3.73606e-08
3.7118e-08
3.69232e-08
3.67015e-08
3.65276e-08
3.63258e-08
3.61709e-08
3.59872e-08
3.58463e-08
3.56785e-08
3.55541e-08
3.5398e-08
3.52881e-08
3.51447e-08
3.50443e-08
3.49124e-08
3.48213e-08
3.47003e-08
3.46164e-08
3.45072e-08
3.44286e-08
3.43269e-08
3.42551e-08
3.41619e-08
3.4097e-08
3.40122e-08
3.39541e-08
3.38732e-08
3.38168e-08
3.37369e-08
3.36813e-08
3.36017e-08
3.35464e-08
3.34683e-08
3.3413e-08
3.33375e-08
3.32827e-08
3.32092e-08
3.31562e-08
3.30831e-08
3.30329e-08
3.29602e-08
3.29112e-08
3.28394e-08
3.27879e-08
3.27112e-08
3.30695e-08
4.27016e-06
3.61424e-08
1.24187e-07
1.23598e-07
1.21985e-07
1.18504e-07
1.13411e-07
1.07445e-07
1.01252e-07
9.52709e-08
8.97032e-08
8.46457e-08
8.00895e-08
7.60251e-08
7.23872e-08
6.91519e-08
6.62488e-08
6.36615e-08
6.13248e-08
5.92352e-08
5.73331e-08
5.56267e-08
5.40607e-08
5.26518e-08
5.13479e-08
5.0173e-08
4.90757e-08
4.80864e-08
4.71534e-08
4.63137e-08
4.55136e-08
4.47948e-08
4.4103e-08
4.34843e-08
4.28819e-08
4.23456e-08
4.18171e-08
4.13501e-08
4.08837e-08
4.04751e-08
4.00615e-08
3.97028e-08
3.93343e-08
3.90182e-08
3.86881e-08
3.8408e-08
3.81108e-08
3.78629e-08
3.75945e-08
3.73737e-08
3.71303e-08
3.69347e-08
3.67123e-08
3.65377e-08
3.63351e-08
3.61796e-08
3.59952e-08
3.58538e-08
3.56853e-08
3.55605e-08
3.54038e-08
3.52934e-08
3.51495e-08
3.50486e-08
3.49163e-08
3.48248e-08
3.47033e-08
3.46191e-08
3.45095e-08
3.44305e-08
3.43285e-08
3.42563e-08
3.41628e-08
3.40976e-08
3.40124e-08
3.39541e-08
3.38728e-08
3.38162e-08
3.37359e-08
3.36802e-08
3.36004e-08
3.35451e-08
3.34666e-08
3.34114e-08
3.33353e-08
3.32805e-08
3.32066e-08
3.31535e-08
3.30801e-08
3.30298e-08
3.29567e-08
3.29077e-08
3.28354e-08
3.27841e-08
3.27072e-08
3.30742e-08
4.32067e-06
3.81702e-08
1.24185e-07
1.23595e-07
1.21996e-07
1.18543e-07
1.13481e-07
1.0754e-07
1.01365e-07
9.53939e-08
8.98305e-08
8.47732e-08
8.02145e-08
7.61459e-08
7.25029e-08
6.92619e-08
6.6353e-08
6.37598e-08
6.14175e-08
5.93223e-08
5.74151e-08
5.57038e-08
5.41331e-08
5.27198e-08
5.14119e-08
5.02332e-08
4.91323e-08
4.81396e-08
4.72035e-08
4.63609e-08
4.55581e-08
4.48367e-08
4.41425e-08
4.35216e-08
4.2917e-08
4.23787e-08
4.18484e-08
4.13796e-08
4.09115e-08
4.05013e-08
4.00863e-08
3.97262e-08
3.93562e-08
3.90389e-08
3.87076e-08
3.84264e-08
3.81281e-08
3.78792e-08
3.76098e-08
3.73881e-08
3.71437e-08
3.69474e-08
3.6724e-08
3.65488e-08
3.63454e-08
3.61892e-08
3.60041e-08
3.58621e-08
3.56929e-08
3.55675e-08
3.54102e-08
3.52994e-08
3.51549e-08
3.50535e-08
3.49206e-08
3.48288e-08
3.47068e-08
3.46221e-08
3.45121e-08
3.44328e-08
3.43303e-08
3.42579e-08
3.41639e-08
3.40985e-08
3.40129e-08
3.39543e-08
3.38726e-08
3.38158e-08
3.37351e-08
3.36793e-08
3.35992e-08
3.35437e-08
3.34649e-08
3.34097e-08
3.33332e-08
3.32783e-08
3.3204e-08
3.31508e-08
3.3077e-08
3.30266e-08
3.29532e-08
3.29041e-08
3.28314e-08
3.27801e-08
3.2703e-08
3.30792e-08
4.37181e-06
4.04614e-08
1.24183e-07
1.23591e-07
1.22007e-07
1.18584e-07
1.13555e-07
1.07641e-07
1.01486e-07
9.55253e-08
8.99668e-08
8.49098e-08
8.03487e-08
7.62756e-08
7.26272e-08
6.93801e-08
6.6465e-08
6.38656e-08
6.15172e-08
5.94162e-08
5.75034e-08
5.57868e-08
5.42112e-08
5.27932e-08
5.1481e-08
5.02981e-08
4.91934e-08
4.81971e-08
4.72576e-08
4.64119e-08
4.56061e-08
4.4882e-08
4.41853e-08
4.35619e-08
4.2955e-08
4.24146e-08
4.18822e-08
4.14115e-08
4.09416e-08
4.05297e-08
4.01131e-08
3.97515e-08
3.93801e-08
3.90615e-08
3.87288e-08
3.84464e-08
3.81469e-08
3.78969e-08
3.76265e-08
3.74038e-08
3.71584e-08
3.69612e-08
3.67369e-08
3.65609e-08
3.63566e-08
3.61997e-08
3.60139e-08
3.58712e-08
3.57013e-08
3.55754e-08
3.54173e-08
3.53059e-08
3.51608e-08
3.5059e-08
3.49255e-08
3.48332e-08
3.47107e-08
3.46256e-08
3.45151e-08
3.44355e-08
3.43325e-08
3.42597e-08
3.41653e-08
3.40996e-08
3.40135e-08
3.39547e-08
3.38726e-08
3.38155e-08
3.37345e-08
3.36785e-08
3.35981e-08
3.35425e-08
3.34633e-08
3.3408e-08
3.33311e-08
3.32761e-08
3.32014e-08
3.31481e-08
3.30739e-08
3.30234e-08
3.29495e-08
3.29004e-08
3.28272e-08
3.27759e-08
3.26986e-08
3.30846e-08
4.42283e-06
4.30453e-08
1.2418e-07
1.23586e-07
1.22019e-07
1.18627e-07
1.13633e-07
1.07749e-07
1.01614e-07
9.56653e-08
9.01122e-08
8.50558e-08
8.04921e-08
7.64144e-08
7.27603e-08
6.95068e-08
6.65851e-08
6.3979e-08
6.16243e-08
5.95169e-08
5.75983e-08
5.58759e-08
5.42951e-08
5.28721e-08
5.15552e-08
5.03679e-08
4.92591e-08
4.8259e-08
4.73159e-08
4.64668e-08
4.56579e-08
4.49308e-08
4.42313e-08
4.36053e-08
4.2996e-08
4.24533e-08
4.19187e-08
4.1446e-08
4.09742e-08
4.05605e-08
4.01421e-08
3.97789e-08
3.94059e-08
3.90859e-08
3.87518e-08
3.84681e-08
3.81674e-08
3.79162e-08
3.76446e-08
3.74209e-08
3.71744e-08
3.69762e-08
3.6751e-08
3.65741e-08
3.6369e-08
3.62113e-08
3.60246e-08
3.58813e-08
3.57105e-08
3.5584e-08
3.54252e-08
3.53132e-08
3.51675e-08
3.50651e-08
3.4931e-08
3.48382e-08
3.47152e-08
3.46296e-08
3.45185e-08
3.44385e-08
3.4335e-08
3.4262e-08
3.4167e-08
3.4101e-08
3.40144e-08
3.39554e-08
3.38728e-08
3.38155e-08
3.3734e-08
3.36778e-08
3.3597e-08
3.35414e-08
3.34618e-08
3.34065e-08
3.3329e-08
3.3274e-08
3.31988e-08
3.31455e-08
3.30708e-08
3.30202e-08
3.29458e-08
3.28966e-08
3.28229e-08
3.27717e-08
3.26942e-08
3.30905e-08
4.47286e-06
4.59526e-08
1.24178e-07
1.23581e-07
1.22032e-07
1.18673e-07
1.13716e-07
1.07863e-07
1.0175e-07
9.58141e-08
9.02669e-08
8.52112e-08
8.0645e-08
7.65625e-08
7.29024e-08
6.96421e-08
6.67135e-08
6.41003e-08
6.17388e-08
5.96247e-08
5.76999e-08
5.59715e-08
5.4385e-08
5.29566e-08
5.16348e-08
5.04428e-08
4.93297e-08
4.83254e-08
4.73786e-08
4.65258e-08
4.57136e-08
4.49833e-08
4.42808e-08
4.3652e-08
4.30402e-08
4.24949e-08
4.19581e-08
4.14832e-08
4.10093e-08
4.05937e-08
4.01734e-08
3.98085e-08
3.94339e-08
3.91123e-08
3.87767e-08
3.84916e-08
3.81895e-08
3.79371e-08
3.76642e-08
3.74394e-08
3.71917e-08
3.69926e-08
3.67663e-08
3.65885e-08
3.63824e-08
3.62239e-08
3.60363e-08
3.58923e-08
3.57206e-08
3.55935e-08
3.54339e-08
3.53213e-08
3.51748e-08
3.50719e-08
3.49372e-08
3.48438e-08
3.47202e-08
3.46341e-08
3.45225e-08
3.44421e-08
3.43381e-08
3.42646e-08
3.41691e-08
3.41027e-08
3.40157e-08
3.39563e-08
3.38733e-08
3.38157e-08
3.37337e-08
3.36773e-08
3.35962e-08
3.35405e-08
3.34604e-08
3.34051e-08
3.3327e-08
3.3272e-08
3.31963e-08
3.31429e-08
3.30677e-08
3.3017e-08
3.29421e-08
3.28928e-08
3.28185e-08
3.27674e-08
3.26897e-08
3.30968e-08
4.52094e-06
4.92153e-08
1.24175e-07
1.23576e-07
1.22045e-07
1.18721e-07
1.13803e-07
1.07983e-07
1.01894e-07
9.59717e-08
9.04311e-08
8.53763e-08
8.08076e-08
7.672e-08
7.30538e-08
6.97863e-08
6.68505e-08
6.42298e-08
6.18611e-08
5.97399e-08
5.78084e-08
5.60736e-08
5.44812e-08
5.30471e-08
5.172e-08
5.0523e-08
4.94053e-08
4.83966e-08
4.74457e-08
4.65891e-08
4.57733e-08
4.50396e-08
4.4334e-08
4.37022e-08
4.30876e-08
4.25397e-08
4.20004e-08
4.15232e-08
4.10471e-08
4.06294e-08
4.02072e-08
3.98404e-08
3.9464e-08
3.91407e-08
3.88035e-08
3.8517e-08
3.82134e-08
3.79597e-08
3.76854e-08
3.74595e-08
3.72106e-08
3.70104e-08
3.6783e-08
3.66042e-08
3.63971e-08
3.62376e-08
3.60491e-08
3.59043e-08
3.57317e-08
3.56039e-08
3.54435e-08
3.53302e-08
3.5183e-08
3.50795e-08
3.4944e-08
3.48501e-08
3.47258e-08
3.46393e-08
3.4527e-08
3.44462e-08
3.43416e-08
3.42677e-08
3.41716e-08
3.41049e-08
3.40173e-08
3.39576e-08
3.38741e-08
3.38162e-08
3.37337e-08
3.36771e-08
3.35955e-08
3.35397e-08
3.34592e-08
3.34038e-08
3.33252e-08
3.32702e-08
3.31938e-08
3.31403e-08
3.30646e-08
3.30139e-08
3.29385e-08
3.2889e-08
3.28142e-08
3.27631e-08
3.26852e-08
3.31034e-08
4.56601e-06
5.28653e-08
1.24173e-07
1.23571e-07
1.22058e-07
1.1877e-07
1.13894e-07
1.08109e-07
1.02045e-07
9.61382e-08
9.06048e-08
8.55513e-08
8.09801e-08
7.68874e-08
7.32147e-08
6.99397e-08
6.69962e-08
6.43676e-08
6.19913e-08
5.98627e-08
5.79241e-08
5.61825e-08
5.45838e-08
5.31437e-08
5.1811e-08
5.06086e-08
4.9486e-08
4.84727e-08
4.75175e-08
4.66568e-08
4.58372e-08
4.50999e-08
4.4391e-08
4.3756e-08
4.31384e-08
4.25878e-08
4.20458e-08
4.15661e-08
4.10877e-08
4.06678e-08
4.02434e-08
3.98747e-08
3.94964e-08
3.91714e-08
3.88325e-08
3.85444e-08
3.82392e-08
3.79841e-08
3.77084e-08
3.74813e-08
3.7231e-08
3.70297e-08
3.68011e-08
3.66213e-08
3.6413e-08
3.62527e-08
3.60631e-08
3.59175e-08
3.57439e-08
3.56153e-08
3.5454e-08
3.534e-08
3.5192e-08
3.50878e-08
3.49517e-08
3.48571e-08
3.47322e-08
3.46451e-08
3.45321e-08
3.44509e-08
3.43456e-08
3.42714e-08
3.41746e-08
3.41076e-08
3.40194e-08
3.39594e-08
3.38753e-08
3.38171e-08
3.37341e-08
3.36773e-08
3.35952e-08
3.35392e-08
3.34582e-08
3.34028e-08
3.33236e-08
3.32685e-08
3.31915e-08
3.3138e-08
3.30617e-08
3.30108e-08
3.29349e-08
3.28853e-08
3.28099e-08
3.27589e-08
3.26807e-08
3.31103e-08
4.60691e-06
5.69354e-08
1.2417e-07
1.23566e-07
1.22071e-07
1.18822e-07
1.1399e-07
1.08242e-07
1.02205e-07
9.63138e-08
9.07882e-08
8.57362e-08
8.11627e-08
7.70647e-08
7.33852e-08
7.01025e-08
6.7151e-08
6.45141e-08
6.21298e-08
5.99933e-08
5.80473e-08
5.62985e-08
5.46931e-08
5.32466e-08
5.1908e-08
5.07e-08
4.95722e-08
4.85539e-08
4.75941e-08
4.67291e-08
4.59055e-08
4.51644e-08
4.44519e-08
4.38136e-08
4.31928e-08
4.26392e-08
4.20945e-08
4.16122e-08
4.11312e-08
4.0709e-08
4.02824e-08
3.99116e-08
3.95312e-08
3.92044e-08
3.88637e-08
3.85739e-08
3.82671e-08
3.80105e-08
3.77333e-08
3.75048e-08
3.72531e-08
3.70506e-08
3.68207e-08
3.66399e-08
3.64304e-08
3.6269e-08
3.60784e-08
3.59319e-08
3.57573e-08
3.56279e-08
3.54656e-08
3.53508e-08
3.5202e-08
3.50971e-08
3.49602e-08
3.4865e-08
3.47394e-08
3.46516e-08
3.45379e-08
3.44563e-08
3.43504e-08
3.42757e-08
3.41782e-08
3.41108e-08
3.40219e-08
3.39616e-08
3.38769e-08
3.38184e-08
3.37349e-08
3.36777e-08
3.35951e-08
3.3539e-08
3.34575e-08
3.3402e-08
3.33222e-08
3.32672e-08
3.31895e-08
3.31358e-08
3.30589e-08
3.3008e-08
3.29314e-08
3.28817e-08
3.28056e-08
3.27547e-08
3.26763e-08
3.31175e-08
4.6424e-06
6.14571e-08
1.24168e-07
1.2356e-07
1.22085e-07
1.18876e-07
1.14089e-07
1.08381e-07
1.02372e-07
9.64984e-08
9.09815e-08
8.59314e-08
8.13555e-08
7.72521e-08
7.35658e-08
7.02749e-08
6.7315e-08
6.46694e-08
6.22768e-08
6.01319e-08
5.81782e-08
5.64217e-08
5.48094e-08
5.33561e-08
5.20113e-08
5.07973e-08
4.9664e-08
4.86405e-08
4.76758e-08
4.68062e-08
4.59783e-08
4.52332e-08
4.45169e-08
4.38751e-08
4.3251e-08
4.26942e-08
4.21465e-08
4.16614e-08
4.11779e-08
4.07532e-08
4.03242e-08
3.99512e-08
3.95686e-08
3.92398e-08
3.88972e-08
3.86057e-08
3.8297e-08
3.80389e-08
3.77601e-08
3.75302e-08
3.7277e-08
3.70732e-08
3.6842e-08
3.66599e-08
3.64492e-08
3.62868e-08
3.6095e-08
3.59476e-08
3.57718e-08
3.56416e-08
3.54784e-08
3.53627e-08
3.5213e-08
3.51074e-08
3.49696e-08
3.48738e-08
3.47474e-08
3.4659e-08
3.45446e-08
3.44624e-08
3.43558e-08
3.42806e-08
3.41825e-08
3.41146e-08
3.40251e-08
3.39644e-08
3.38791e-08
3.38202e-08
3.37361e-08
3.36787e-08
3.35954e-08
3.35392e-08
3.34572e-08
3.34016e-08
3.33211e-08
3.32661e-08
3.31876e-08
3.31339e-08
3.30564e-08
3.30053e-08
3.29281e-08
3.28783e-08
3.28015e-08
3.27507e-08
3.2672e-08
3.3125e-08
4.67117e-06
6.64586e-08
1.24165e-07
1.23553e-07
1.22099e-07
1.18931e-07
1.14193e-07
1.08526e-07
1.02547e-07
9.66923e-08
9.11848e-08
8.6137e-08
8.15589e-08
7.745e-08
7.37565e-08
7.04572e-08
6.74886e-08
6.48339e-08
6.24325e-08
6.02789e-08
5.8317e-08
5.65526e-08
5.49328e-08
5.34724e-08
5.2121e-08
5.09007e-08
4.97616e-08
4.87325e-08
4.77628e-08
4.68883e-08
4.6056e-08
4.53066e-08
4.45863e-08
4.39407e-08
4.33131e-08
4.2753e-08
4.22021e-08
4.17141e-08
4.12277e-08
4.08004e-08
4.03689e-08
3.99936e-08
3.96088e-08
3.92779e-08
3.89331e-08
3.86398e-08
3.83293e-08
3.80694e-08
3.77889e-08
3.75575e-08
3.73028e-08
3.70976e-08