/*--------------------------------*- C++ -*----------------------------------*\
| =========                 |                                                 |
| \\      /  F ield         | OpenFOAM: The Open Source CFD Toolbox           |
|  \\    /   O peration     | Version:  v2012                                 |
|   \\  /    A nd           | Website:  www.openfoam.com                      |
|    \\/     M anipulation  |                                                 |
\*---------------------------------------------------------------------------*/
FoamFile
{
    version     2.0;
    format      ascii;
    class       volVectorField;
    location    "53";
    object      wallShearStress;
}
// * * * * * * * * * * * * * * * * * * * * * * * * * * * * * * * * * * * * * //

dimensions      [0 2 -2 0 0 0 0];


internalField   uniform (0 0 0);

boundaryField
{
    inlet
    {
        type            calculated;
        value           uniform (0 0 0);
    }
    outlet
    {
        type            calculated;
        value           uniform (0 0 0);
    }
    topWall
    {
        type            calculated;
        value           nonuniform List<vector> 
545
(
(6.95348e-08 -4.89453e-08 0)
(6.95154e-08 -1.36928e-07 0)
(6.94711e-08 -2.28412e-07 0)
(6.94096e-08 -3.1724e-07 0)
(6.93343e-08 -4.02278e-07 0)
(6.92457e-08 -4.84619e-07 0)
(6.91446e-08 -5.64961e-07 0)
(6.9032e-08 -6.43268e-07 0)
(6.89087e-08 -7.19368e-07 0)
(6.87759e-08 -7.93258e-07 0)
(6.86343e-08 -8.65036e-07 0)
(6.84848e-08 -9.34784e-07 0)
(6.83283e-08 -1.00255e-06 0)
(6.81654e-08 -1.06838e-06 0)
(6.79969e-08 -1.13231e-06 0)
(6.78234e-08 -1.19439e-06 0)
(6.76455e-08 -1.25469e-06 0)
(6.74638e-08 -1.31323e-06 0)
(6.72789e-08 -1.37008e-06 0)
(6.70912e-08 -1.42528e-06 0)
(6.69013e-08 -1.47887e-06 0)
(6.67095e-08 -1.5309e-06 0)
(6.65162e-08 -1.58141e-06 0)
(6.63219e-08 -1.63044e-06 0)
(6.61269e-08 -1.67804e-06 0)
(6.59315e-08 -1.72425e-06 0)
(6.57361e-08 -1.76911e-06 0)
(6.55408e-08 -1.81265e-06 0)
(6.5346e-08 -1.85492e-06 0)
(6.5152e-08 -1.89596e-06 0)
(6.49588e-08 -1.93579e-06 0)
(6.47667e-08 -1.97446e-06 0)
(6.4576e-08 -2.012e-06 0)
(6.43867e-08 -2.04844e-06 0)
(6.41991e-08 -2.08381e-06 0)
(6.40132e-08 -2.11815e-06 0)
(6.38292e-08 -2.15149e-06 0)
(6.36473e-08 -2.18386e-06 0)
(6.34674e-08 -2.21529e-06 0)
(6.32897e-08 -2.2458e-06 0)
(6.31143e-08 -2.27542e-06 0)
(6.29413e-08 -2.30419e-06 0)
(6.27707e-08 -2.33211e-06 0)
(6.26025e-08 -2.35923e-06 0)
(6.24369e-08 -2.38556e-06 0)
(6.22738e-08 -2.41114e-06 0)
(6.21132e-08 -2.43597e-06 0)
(6.19553e-08 -2.46008e-06 0)
(6.18e-08 -2.4835e-06 0)
(6.16474e-08 -2.50625e-06 0)
(6.14974e-08 -2.52834e-06 0)
(6.135e-08 -2.5498e-06 0)
(6.12054e-08 -2.57064e-06 0)
(6.10633e-08 -2.59089e-06 0)
(6.09239e-08 -2.61055e-06 0)
(6.07871e-08 -2.62966e-06 0)
(6.0653e-08 -2.64821e-06 0)
(6.05214e-08 -2.66624e-06 0)
(6.03925e-08 -2.68376e-06 0)
(6.02661e-08 -2.70078e-06 0)
(6.01422e-08 -2.71732e-06 0)
(6.00208e-08 -2.73338e-06 0)
(5.9902e-08 -2.74899e-06 0)
(5.97856e-08 -2.76416e-06 0)
(5.96716e-08 -2.77891e-06 0)
(5.956e-08 -2.79323e-06 0)
(5.94507e-08 -2.80716e-06 0)
(5.93438e-08 -2.82069e-06 0)
(5.92392e-08 -2.83384e-06 0)
(5.91368e-08 -2.84662e-06 0)
(5.90367e-08 -2.85905e-06 0)
(5.89389e-08 -2.8711e-06 0)
(5.88439e-08 -2.88271e-06 0)
(5.87513e-08 -2.89397e-06 0)
(5.86596e-08 -2.9051e-06 0)
(5.85682e-08 -2.91618e-06 0)
(5.84769e-08 -2.92721e-06 0)
(5.83857e-08 -2.93817e-06 0)
(5.82945e-08 -2.94906e-06 0)
(5.82035e-08 -2.95989e-06 0)
(5.81126e-08 -2.97064e-06 0)
(5.80217e-08 -2.98134e-06 0)
(5.7931e-08 -2.99196e-06 0)
(5.78404e-08 -3.00253e-06 0)
(5.77498e-08 -3.01302e-06 0)
(5.76594e-08 -3.02345e-06 0)
(5.75691e-08 -3.03382e-06 0)
(5.74789e-08 -3.04413e-06 0)
(5.73888e-08 -3.05437e-06 0)
(5.72989e-08 -3.06455e-06 0)
(5.7209e-08 -3.07466e-06 0)
(5.71194e-08 -3.08472e-06 0)
(5.70298e-08 -3.09471e-06 0)
(5.69404e-08 -3.10464e-06 0)
(5.68513e-08 -3.11453e-06 0)
(5.67626e-08 -3.12425e-06 0)
(5.6678e-08 -3.13314e-06 0)
(5.66008e-08 -3.14122e-06 0)
(5.65273e-08 -3.14907e-06 0)
(5.6454e-08 -3.15696e-06 0)
(5.63805e-08 -3.16491e-06 0)
(5.63067e-08 -3.1729e-06 0)
(5.62326e-08 -3.18087e-06 0)
(5.61581e-08 -3.18884e-06 0)
(5.60833e-08 -3.19683e-06 0)
(5.60081e-08 -3.20482e-06 0)
(5.59326e-08 -3.21282e-06 0)
(5.58567e-08 -3.22083e-06 0)
(5.57804e-08 -3.22885e-06 0)
(5.57038e-08 -3.23687e-06 0)
(5.56269e-08 -3.24491e-06 0)
(5.55496e-08 -3.25295e-06 0)
(5.54719e-08 -3.261e-06 0)
(5.53939e-08 -3.26906e-06 0)
(5.53155e-08 -3.27712e-06 0)
(5.52367e-08 -3.28519e-06 0)
(5.51576e-08 -3.29327e-06 0)
(5.50781e-08 -3.30136e-06 0)
(5.49982e-08 -3.30945e-06 0)
(5.4918e-08 -3.31755e-06 0)
(5.48374e-08 -3.32566e-06 0)
(5.47565e-08 -3.33378e-06 0)
(5.46752e-08 -3.3419e-06 0)
(5.45935e-08 -3.35003e-06 0)
(5.45114e-08 -3.35817e-06 0)
(5.4429e-08 -3.36631e-06 0)
(5.43462e-08 -3.37446e-06 0)
(5.42631e-08 -3.38262e-06 0)
(5.41795e-08 -3.39078e-06 0)
(5.40956e-08 -3.39895e-06 0)
(5.40113e-08 -3.40713e-06 0)
(5.39266e-08 -3.41531e-06 0)
(5.38416e-08 -3.4235e-06 0)
(5.37562e-08 -3.4317e-06 0)
(5.36704e-08 -3.4399e-06 0)
(5.35842e-08 -3.44811e-06 0)
(5.34976e-08 -3.45633e-06 0)
(5.34107e-08 -3.46455e-06 0)
(5.33233e-08 -3.47277e-06 0)
(5.32356e-08 -3.48101e-06 0)
(5.31475e-08 -3.48925e-06 0)
(5.3059e-08 -3.49749e-06 0)
(5.29702e-08 -3.50574e-06 0)
(5.28809e-08 -3.514e-06 0)
(5.27913e-08 -3.52226e-06 0)
(5.27012e-08 -3.53052e-06 0)
(5.26108e-08 -3.5388e-06 0)
(5.252e-08 -3.54707e-06 0)
(5.24288e-08 -3.55535e-06 0)
(5.23372e-08 -3.56364e-06 0)
(5.22452e-08 -3.57193e-06 0)
(5.21529e-08 -3.58023e-06 0)
(5.20601e-08 -3.58853e-06 0)
(5.19669e-08 -3.59684e-06 0)
(5.18734e-08 -3.60515e-06 0)
(5.17794e-08 -3.61347e-06 0)
(5.16851e-08 -3.62179e-06 0)
(5.15903e-08 -3.63011e-06 0)
(5.14952e-08 -3.63844e-06 0)
(5.13996e-08 -3.64678e-06 0)
(5.13037e-08 -3.65511e-06 0)
(5.12073e-08 -3.66345e-06 0)
(5.11106e-08 -3.6718e-06 0)
(5.10135e-08 -3.68015e-06 0)
(5.09159e-08 -3.6885e-06 0)
(5.0818e-08 -3.69686e-06 0)
(5.07196e-08 -3.70522e-06 0)
(5.06209e-08 -3.71358e-06 0)
(5.05217e-08 -3.72195e-06 0)
(5.04222e-08 -3.73032e-06 0)
(5.03222e-08 -3.73869e-06 0)
(5.02218e-08 -3.74707e-06 0)
(5.0121e-08 -3.75545e-06 0)
(5.00199e-08 -3.76383e-06 0)
(4.99183e-08 -3.77221e-06 0)
(4.98163e-08 -3.7806e-06 0)
(4.97139e-08 -3.78899e-06 0)
(4.96111e-08 -3.79738e-06 0)
(4.95078e-08 -3.80578e-06 0)
(4.94042e-08 -3.81418e-06 0)
(4.93002e-08 -3.82257e-06 0)
(4.91957e-08 -3.83098e-06 0)
(4.90909e-08 -3.83938e-06 0)
(4.89856e-08 -3.84778e-06 0)
(4.88799e-08 -3.85619e-06 0)
(4.87738e-08 -3.8646e-06 0)
(4.86673e-08 -3.87301e-06 0)
(4.85604e-08 -3.88142e-06 0)
(4.84531e-08 -3.88983e-06 0)
(4.83454e-08 -3.89825e-06 0)
(4.82372e-08 -3.90666e-06 0)
(4.81287e-08 -3.91508e-06 0)
(4.80197e-08 -3.92349e-06 0)
(4.79104e-08 -3.93191e-06 0)
(4.78006e-08 -3.94033e-06 0)
(4.76904e-08 -3.94874e-06 0)
(4.75797e-08 -3.95716e-06 0)
(4.74687e-08 -3.96558e-06 0)
(4.73573e-08 -3.974e-06 0)
(4.72454e-08 -3.98242e-06 0)
(4.71331e-08 -3.99084e-06 0)
(4.70205e-08 -3.99925e-06 0)
(4.69074e-08 -4.00767e-06 0)
(4.67939e-08 -4.01609e-06 0)
(4.668e-08 -4.02451e-06 0)
(4.65656e-08 -4.03292e-06 0)
(4.64509e-08 -4.04134e-06 0)
(4.63357e-08 -4.04975e-06 0)
(4.62202e-08 -4.05816e-06 0)
(4.61042e-08 -4.06657e-06 0)
(4.59878e-08 -4.07498e-06 0)
(4.5871e-08 -4.08339e-06 0)
(4.57538e-08 -4.0918e-06 0)
(4.56362e-08 -4.10021e-06 0)
(4.55182e-08 -4.10861e-06 0)
(4.53997e-08 -4.11701e-06 0)
(4.52809e-08 -4.12541e-06 0)
(4.51616e-08 -4.13381e-06 0)
(4.50419e-08 -4.1422e-06 0)
(4.49219e-08 -4.15059e-06 0)
(4.48014e-08 -4.15898e-06 0)
(4.46805e-08 -4.16737e-06 0)
(4.45592e-08 -4.17575e-06 0)
(4.44375e-08 -4.18413e-06 0)
(4.43154e-08 -4.19251e-06 0)
(4.41928e-08 -4.20088e-06 0)
(4.40699e-08 -4.20925e-06 0)
(4.39466e-08 -4.21762e-06 0)
(4.38229e-08 -4.22598e-06 0)
(4.36987e-08 -4.23434e-06 0)
(4.35742e-08 -4.24269e-06 0)
(4.34493e-08 -4.25104e-06 0)
(4.33239e-08 -4.25939e-06 0)
(4.31982e-08 -4.26773e-06 0)
(4.3072e-08 -4.27606e-06 0)
(4.29455e-08 -4.2844e-06 0)
(4.28186e-08 -4.29272e-06 0)
(4.26912e-08 -4.30105e-06 0)
(4.25635e-08 -4.30936e-06 0)
(4.24354e-08 -4.31767e-06 0)
(4.23069e-08 -4.32598e-06 0)
(4.2178e-08 -4.33428e-06 0)
(4.20487e-08 -4.34257e-06 0)
(4.1919e-08 -4.35086e-06 0)
(4.17889e-08 -4.35914e-06 0)
(4.16584e-08 -4.36741e-06 0)
(4.15275e-08 -4.37568e-06 0)
(4.13963e-08 -4.38395e-06 0)
(4.12647e-08 -4.3922e-06 0)
(4.11327e-08 -4.40045e-06 0)
(4.10003e-08 -4.40869e-06 0)
(4.08675e-08 -4.41692e-06 0)
(4.07343e-08 -4.42515e-06 0)
(4.06008e-08 -4.43337e-06 0)
(4.04669e-08 -4.44158e-06 0)
(4.03326e-08 -4.44978e-06 0)
(4.01979e-08 -4.45798e-06 0)
(4.00629e-08 -4.46617e-06 0)
(3.99275e-08 -4.47435e-06 0)
(3.97917e-08 -4.48252e-06 0)
(3.96556e-08 -4.49068e-06 0)
(3.9519e-08 -4.49883e-06 0)
(3.93822e-08 -4.50697e-06 0)
(3.92449e-08 -4.51511e-06 0)
(3.91073e-08 -4.52323e-06 0)
(3.89694e-08 -4.53135e-06 0)
(3.88311e-08 -4.53945e-06 0)
(3.86926e-08 -4.54757e-06 0)
(3.85556e-08 -4.5556e-06 0)
(3.84206e-08 -4.56324e-06 0)
(3.82907e-08 -4.57052e-06 0)
(3.81648e-08 -4.57774e-06 0)
(3.80376e-08 -4.58501e-06 0)
(3.79093e-08 -4.59237e-06 0)
(3.77796e-08 -4.5998e-06 0)
(3.76485e-08 -4.60727e-06 0)
(3.75159e-08 -4.6148e-06 0)
(3.73819e-08 -4.62238e-06 0)
(3.72464e-08 -4.63001e-06 0)
(3.71094e-08 -4.6377e-06 0)
(3.69709e-08 -4.64545e-06 0)
(3.68309e-08 -4.65325e-06 0)
(3.66893e-08 -4.6611e-06 0)
(3.65463e-08 -4.66901e-06 0)
(3.64017e-08 -4.67697e-06 0)
(3.62555e-08 -4.68499e-06 0)
(3.61077e-08 -4.69306e-06 0)
(3.59584e-08 -4.70119e-06 0)
(3.58074e-08 -4.70937e-06 0)
(3.56549e-08 -4.7176e-06 0)
(3.55007e-08 -4.72589e-06 0)
(3.53449e-08 -4.73423e-06 0)
(3.51874e-08 -4.74263e-06 0)
(3.50283e-08 -4.75108e-06 0)
(3.48674e-08 -4.75958e-06 0)
(3.47049e-08 -4.76813e-06 0)
(3.45407e-08 -4.77674e-06 0)
(3.43748e-08 -4.78539e-06 0)
(3.42071e-08 -4.7941e-06 0)
(3.40377e-08 -4.80286e-06 0)
(3.38666e-08 -4.81168e-06 0)
(3.36936e-08 -4.82054e-06 0)
(3.35189e-08 -4.82945e-06 0)
(3.33425e-08 -4.83841e-06 0)
(3.31642e-08 -4.84742e-06 0)
(3.29841e-08 -4.85649e-06 0)
(3.28022e-08 -4.86559e-06 0)
(3.26185e-08 -4.87475e-06 0)
(3.24329e-08 -4.88395e-06 0)
(3.22454e-08 -4.8932e-06 0)
(3.20561e-08 -4.9025e-06 0)
(3.1865e-08 -4.91184e-06 0)
(3.16719e-08 -4.92123e-06 0)
(3.1477e-08 -4.93066e-06 0)
(3.12802e-08 -4.94013e-06 0)
(3.10814e-08 -4.94965e-06 0)
(3.08808e-08 -4.9592e-06 0)
(3.06782e-08 -4.9688e-06 0)
(3.04737e-08 -4.97844e-06 0)
(3.02673e-08 -4.98812e-06 0)
(3.00589e-08 -4.99784e-06 0)
(2.98486e-08 -5.00759e-06 0)
(2.96363e-08 -5.01738e-06 0)
(2.94221e-08 -5.02721e-06 0)
(2.92059e-08 -5.03706e-06 0)
(2.89877e-08 -5.04696e-06 0)
(2.87676e-08 -5.05688e-06 0)
(2.85455e-08 -5.06684e-06 0)
(2.83214e-08 -5.07682e-06 0)
(2.80954e-08 -5.08684e-06 0)
(2.78673e-08 -5.09688e-06 0)
(2.76373e-08 -5.10695e-06 0)
(2.74054e-08 -5.11704e-06 0)
(2.71714e-08 -5.12716e-06 0)
(2.69355e-08 -5.13729e-06 0)
(2.66976e-08 -5.14745e-06 0)
(2.64578e-08 -5.15762e-06 0)
(2.6216e-08 -5.16782e-06 0)
(2.59722e-08 -5.17803e-06 0)
(2.57265e-08 -5.18825e-06 0)
(2.54788e-08 -5.19848e-06 0)
(2.52293e-08 -5.20873e-06 0)
(2.49778e-08 -5.21898e-06 0)
(2.47243e-08 -5.22925e-06 0)
(2.4469e-08 -5.23951e-06 0)
(2.42118e-08 -5.24979e-06 0)
(2.39527e-08 -5.26006e-06 0)
(2.36918e-08 -5.27033e-06 0)
(2.34289e-08 -5.28059e-06 0)
(2.31643e-08 -5.29086e-06 0)
(2.28979e-08 -5.30111e-06 0)
(2.26296e-08 -5.31136e-06 0)
(2.23596e-08 -5.3216e-06 0)
(2.20878e-08 -5.33182e-06 0)
(2.18143e-08 -5.34203e-06 0)
(2.15391e-08 -5.35222e-06 0)
(2.12622e-08 -5.36238e-06 0)
(2.09837e-08 -5.37253e-06 0)
(2.07035e-08 -5.38265e-06 0)
(2.04217e-08 -5.39274e-06 0)
(2.01384e-08 -5.4028e-06 0)
(1.98535e-08 -5.41283e-06 0)
(1.95671e-08 -5.42282e-06 0)
(1.92793e-08 -5.43277e-06 0)
(1.899e-08 -5.44268e-06 0)
(1.86994e-08 -5.45255e-06 0)
(1.84074e-08 -5.46236e-06 0)
(1.8114e-08 -5.47214e-06 0)
(1.78194e-08 -5.48185e-06 0)
(1.75237e-08 -5.49151e-06 0)
(1.72267e-08 -5.50111e-06 0)
(1.69286e-08 -5.51065e-06 0)
(1.66294e-08 -5.52012e-06 0)
(1.63292e-08 -5.52953e-06 0)
(1.6028e-08 -5.53886e-06 0)
(1.57259e-08 -5.54812e-06 0)
(1.54229e-08 -5.55729e-06 0)
(1.51191e-08 -5.5664e-06 0)
(1.48146e-08 -5.57541e-06 0)
(1.45094e-08 -5.58434e-06 0)
(1.42036e-08 -5.59317e-06 0)
(1.38972e-08 -5.60191e-06 0)
(1.35904e-08 -5.61055e-06 0)
(1.32831e-08 -5.61909e-06 0)
(1.29755e-08 -5.62752e-06 0)
(1.26676e-08 -5.63585e-06 0)
(1.23594e-08 -5.64406e-06 0)
(1.20512e-08 -5.65216e-06 0)
(1.17429e-08 -5.66013e-06 0)
(1.14346e-08 -5.66799e-06 0)
(1.11265e-08 -5.67572e-06 0)
(1.08185e-08 -5.68332e-06 0)
(1.05107e-08 -5.69078e-06 0)
(1.02034e-08 -5.69812e-06 0)
(9.89644e-09 -5.7053e-06 0)
(9.59004e-09 -5.71235e-06 0)
(9.28422e-09 -5.71924e-06 0)
(8.97912e-09 -5.72599e-06 0)
(8.6748e-09 -5.73257e-06 0)
(8.37137e-09 -5.73901e-06 0)
(8.06889e-09 -5.74527e-06 0)
(7.7675e-09 -5.75138e-06 0)
(7.46726e-09 -5.7573e-06 0)
(7.16828e-09 -5.76307e-06 0)
(6.87065e-09 -5.76865e-06 0)
(6.57448e-09 -5.77406e-06 0)
(6.27983e-09 -5.77928e-06 0)
(5.98686e-09 -5.78433e-06 0)
(5.69561e-09 -5.78917e-06 0)
(5.40622e-09 -5.79383e-06 0)
(5.11876e-09 -5.79829e-06 0)
(4.83335e-09 -5.80256e-06 0)
(4.55008e-09 -5.80661e-06 0)
(4.26907e-09 -5.81048e-06 0)
(3.99039e-09 -5.81412e-06 0)
(3.71417e-09 -5.81757e-06 0)
(3.44049e-09 -5.82078e-06 0)
(3.16946e-09 -5.82381e-06 0)
(2.90117e-09 -5.82659e-06 0)
(2.63574e-09 -5.82917e-06 0)
(2.37324e-09 -5.83151e-06 0)
(2.11379e-09 -5.83365e-06 0)
(1.85747e-09 -5.83554e-06 0)
(1.60439e-09 -5.83722e-06 0)
(1.35464e-09 -5.83864e-06 0)
(1.10831e-09 -5.83986e-06 0)
(8.65488e-10 -5.84082e-06 0)
(6.26272e-10 -5.84156e-06 0)
(3.90743e-10 -5.84205e-06 0)
(1.58991e-10 -5.84231e-06 0)
(-6.89011e-11 -5.84232e-06 0)
(-2.92852e-10 -5.84211e-06 0)
(-5.1278e-10 -5.84163e-06 0)
(-7.28611e-10 -5.84093e-06 0)
(-9.40264e-10 -5.83996e-06 0)
(-1.14767e-09 -5.83877e-06 0)
(-1.35076e-09 -5.83732e-06 0)
(-1.54947e-09 -5.83564e-06 0)
(-1.74371e-09 -5.83369e-06 0)
(-1.93345e-09 -5.83153e-06 0)
(-2.1186e-09 -5.82909e-06 0)
(-2.29913e-09 -5.82644e-06 0)
(-2.47495e-09 -5.82351e-06 0)
(-2.64604e-09 -5.82037e-06 0)
(-2.8123e-09 -5.81696e-06 0)
(-2.97374e-09 -5.81334e-06 0)
(-3.13018e-09 -5.80945e-06 0)
(-3.28201e-09 -5.80536e-06 0)
(-3.42771e-09 -5.80098e-06 0)
(-3.57426e-09 -5.79638e-06 0)
(-3.72566e-09 -5.79104e-06 0)
(-3.87754e-09 -5.78491e-06 0)
(-4.02562e-09 -5.77842e-06 0)
(-4.16527e-09 -5.77177e-06 0)
(-4.29638e-09 -5.76487e-06 0)
(-4.41913e-09 -5.75781e-06 0)
(-4.53365e-09 -5.75051e-06 0)
(-4.64022e-09 -5.74307e-06 0)
(-4.73903e-09 -5.73543e-06 0)
(-4.8304e-09 -5.72768e-06 0)
(-4.91451e-09 -5.71974e-06 0)
(-4.99168e-09 -5.71171e-06 0)
(-5.06205e-09 -5.70352e-06 0)
(-5.12595e-09 -5.69527e-06 0)
(-5.1835e-09 -5.68688e-06 0)
(-5.23501e-09 -5.67844e-06 0)
(-5.28059e-09 -5.66988e-06 0)
(-5.32054e-09 -5.6613e-06 0)
(-5.35496e-09 -5.65261e-06 0)
(-5.38413e-09 -5.64392e-06 0)
(-5.40814e-09 -5.63514e-06 0)
(-5.42725e-09 -5.62637e-06 0)
(-5.44153e-09 -5.61752e-06 0)
(-5.45125e-09 -5.60871e-06 0)
(-5.45647e-09 -5.59983e-06 0)
(-5.45743e-09 -5.591e-06 0)
(-5.45417e-09 -5.58212e-06 0)
(-5.44694e-09 -5.5733e-06 0)
(-5.43576e-09 -5.56445e-06 0)
(-5.42087e-09 -5.55567e-06 0)
(-5.40228e-09 -5.54686e-06 0)
(-5.38022e-09 -5.53814e-06 0)
(-5.3547e-09 -5.52941e-06 0)
(-5.32592e-09 -5.52077e-06 0)
(-5.29389e-09 -5.51213e-06 0)
(-5.25881e-09 -5.50359e-06 0)
(-5.22068e-09 -5.49507e-06 0)
(-5.17969e-09 -5.48666e-06 0)
(-5.13583e-09 -5.47827e-06 0)
(-5.08927e-09 -5.47e-06 0)
(-5.04002e-09 -5.46176e-06 0)
(-4.98823e-09 -5.45365e-06 0)
(-4.93389e-09 -5.44557e-06 0)
(-4.87717e-09 -5.43764e-06 0)
(-4.81805e-09 -5.42975e-06 0)
(-4.75668e-09 -5.42201e-06 0)
(-4.69304e-09 -5.41432e-06 0)
(-4.62728e-09 -5.40678e-06 0)
(-4.55937e-09 -5.39931e-06 0)
(-4.48945e-09 -5.39199e-06 0)
(-4.41751e-09 -5.38475e-06 0)
(-4.34367e-09 -5.37766e-06 0)
(-4.26791e-09 -5.37065e-06 0)
(-4.19035e-09 -5.36381e-06 0)
(-4.11098e-09 -5.35706e-06 0)
(-4.02991e-09 -5.35048e-06 0)
(-3.94712e-09 -5.34398e-06 0)
(-3.86272e-09 -5.33767e-06 0)
(-3.7767e-09 -5.33145e-06 0)
(-3.68915e-09 -5.32541e-06 0)
(-3.60007e-09 -5.31948e-06 0)
(-3.50955e-09 -5.31373e-06 0)
(-3.41759e-09 -5.30809e-06 0)
(-3.32427e-09 -5.30264e-06 0)
(-3.22958e-09 -5.2973e-06 0)
(-3.13362e-09 -5.29215e-06 0)
(-3.03639e-09 -5.28713e-06 0)
(-2.93796e-09 -5.28229e-06 0)
(-2.83833e-09 -5.27759e-06 0)
(-2.73758e-09 -5.27308e-06 0)
(-2.63573e-09 -5.2687e-06 0)
(-2.53283e-09 -5.26451e-06 0)
(-2.4289e-09 -5.26047e-06 0)
(-2.32401e-09 -5.25662e-06 0)
(-2.21817e-09 -5.25292e-06 0)
(-2.11145e-09 -5.24941e-06 0)
(-2.00386e-09 -5.24606e-06 0)
(-1.89547e-09 -5.2429e-06 0)
(-1.7863e-09 -5.23989e-06 0)
(-1.6764e-09 -5.23709e-06 0)
(-1.5658e-09 -5.23444e-06 0)
(-1.45455e-09 -5.23199e-06 0)
(-1.34269e-09 -5.2297e-06 0)
(-1.23027e-09 -5.22761e-06 0)
(-1.11732e-09 -5.22569e-06 0)
(-1.0039e-09 -5.22399e-06 0)
(-8.90044e-10 -5.22233e-06 0)
(-7.75823e-10 -5.22133e-06 0)
(-6.61239e-10 -5.21894e-06 0)
(-5.46503e-10 -5.22191e-06 0)
(-4.31247e-10 -5.20753e-06 0)
(-3.16662e-10 -5.2493e-06 0)
(-2.00623e-10 -5.09174e-06 0)
(-8.55262e-11 -5.50971e-06 0)
(-1.4897e-11 -4.81214e-06 0)
)
;
    }
    bottomWall
    {
        type            calculated;
        value           nonuniform List<vector> 
449
(
(-52.6866 -0.955379 0)
(-34.7238 -0.00279679 0)
(-34.3409 -0.000253314 0)
(-32.9808 -0.000362901 0)
(-31.8563 -0.000314956 0)
(-30.8206 -0.000284056 0)
(-29.9041 -0.000249083 0)
(-29.1051 -0.000217171 0)
(-28.4051 -0.000190638 0)
(-27.7863 -0.000168894 0)
(-27.2341 -0.000150896 0)
(-26.7377 -0.000135811 0)
(-26.2882 -0.000123171 0)
(-25.8779 -0.0001125 0)
(-25.5011 -0.000103294 0)
(-25.1536 -9.52962e-05 0)
(-24.8314 -8.83107e-05 0)
(-24.5315 -8.21802e-05 0)
(-24.2511 -7.67787e-05 0)
(-23.9881 -7.19619e-05 0)
(-23.7406 -6.76413e-05 0)
(-23.5072 -6.37545e-05 0)
(-23.2863 -6.02473e-05 0)
(-23.0769 -5.70661e-05 0)
(-22.8778 -5.41707e-05 0)
(-22.6881 -5.15135e-05 0)
(-22.5072 -4.90784e-05 0)
(-22.3343 -4.68391e-05 0)
(-22.1688 -4.47737e-05 0)
(-22.01 -4.28582e-05 0)
(-21.8576 -4.10819e-05 0)
(-21.7111 -3.9429e-05 0)
(-21.57 -3.78913e-05 0)
(-21.434 -3.64503e-05 0)
(-21.3029 -3.51049e-05 0)
(-21.1762 -3.38402e-05 0)
(-21.0537 -3.2657e-05 0)
(-20.9352 -3.15464e-05 0)
(-20.8204 -3.04988e-05 0)
(-20.7091 -2.9512e-05 0)
(-20.6011 -2.85805e-05 0)
(-20.4962 -2.77015e-05 0)
(-20.3943 -2.68663e-05 0)
(-20.2951 -2.60709e-05 0)
(-20.1987 -2.53152e-05 0)
(-20.1048 -2.45899e-05 0)
(-20.0134 -2.38988e-05 0)
(-19.9243 -2.32415e-05 0)
(-19.8374 -2.26048e-05 0)
(-19.7527 -2.20051e-05 0)
(-19.67 -2.14261e-05 0)
(-19.5893 -2.08745e-05 0)
(-19.5104 -2.03496e-05 0)
(-19.4334 -1.98431e-05 0)
(-19.3581 -1.9362e-05 0)
(-19.2844 -1.88983e-05 0)
(-19.2123 -1.84567e-05 0)
(-19.1417 -1.80323e-05 0)
(-19.0725 -1.76251e-05 0)
(-19.0047 -1.72338e-05 0)
(-18.9383 -1.68571e-05 0)
(-18.8731 -1.64959e-05 0)
(-18.8092 -1.61464e-05 0)
(-18.7465 -1.58119e-05 0)
(-18.6849 -1.54874e-05 0)
(-18.6244 -1.51762e-05 0)
(-18.565 -1.48742e-05 0)
(-18.5067 -1.45827e-05 0)
(-18.4493 -1.43022e-05 0)
(-18.3929 -1.40273e-05 0)
(-18.3375 -1.3766e-05 0)
(-18.2829 -1.35078e-05 0)
(-18.2293 -1.32616e-05 0)
(-18.1764 -1.30205e-05 0)
(-18.1245 -1.27865e-05 0)
(-18.0733 -1.25616e-05 0)
(-18.0229 -1.23392e-05 0)
(-17.9733 -1.21273e-05 0)
(-17.9244 -1.19191e-05 0)
(-17.8762 -1.17164e-05 0)
(-17.8287 -1.15215e-05 0)
(-17.7819 -1.13288e-05 0)
(-17.7358 -1.11435e-05 0)
(-17.6903 -1.09631e-05 0)
(-17.6455 -1.07853e-05 0)
(-17.6013 -1.06147e-05 0)
(-17.5576 -1.04473e-05 0)
(-17.5146 -1.02834e-05 0)
(-17.4721 -1.01256e-05 0)
(-17.4302 -9.9701e-06 0)
(-17.3888 -9.81853e-06 0)
(-17.3479 -9.67227e-06 0)
(-17.3076 -9.52779e-06 0)
(-17.2677 -9.38722e-06 0)
(-17.2284 -9.25116e-06 0)
(-17.1895 -9.11682e-06 0)
(-17.1511 -8.98601e-06 0)
(-17.1132 -8.85925e-06 0)
(-17.0757 -8.73417e-06 0)
(-17.0386 -8.61215e-06 0)
(-17.002 -8.49377e-06 0)
(-16.9658 -8.37722e-06 0)
(-16.93 -8.2631e-06 0)
(-16.8946 -8.1523e-06 0)
(-16.8596 -8.04356e-06 0)
(-16.825 -7.93663e-06 0)
(-16.7907 -7.83269e-06 0)
(-16.7569 -7.73101e-06 0)
(-16.7233 -7.63078e-06 0)
(-16.6902 -7.53304e-06 0)
(-16.6574 -7.43767e-06 0)
(-16.6249 -7.34371e-06 0)
(-16.5927 -7.25163e-06 0)
(-16.5609 -7.16188e-06 0)
(-16.5294 -7.07377e-06 0)
(-16.4982 -6.98698e-06 0)
(-16.4673 -6.90227e-06 0)
(-16.4368 -6.81937e-06 0)
(-16.4065 -6.73774e-06 0)
(-16.3765 -6.65761e-06 0)
(-16.3468 -6.57933e-06 0)
(-16.3173 -6.50244e-06 0)
(-16.2882 -6.42673e-06 0)
(-16.2593 -6.35254e-06 0)
(-16.2307 -6.27996e-06 0)
(-16.2023 -6.20849e-06 0)
(-16.1742 -6.1382e-06 0)
(-16.1464 -6.06933e-06 0)
(-16.1188 -6.00179e-06 0)
(-16.0914 -5.93527e-06 0)
(-16.0643 -5.86986e-06 0)
(-16.0374 -5.80573e-06 0)
(-16.0107 -5.74274e-06 0)
(-15.9843 -5.68072e-06 0)
(-15.9581 -5.61971e-06 0)
(-15.9321 -5.55985e-06 0)
(-15.9063 -5.501e-06 0)
(-15.8807 -5.44308e-06 0)
(-15.8554 -5.38606e-06 0)
(-15.8302 -5.33007e-06 0)
(-15.8053 -5.275e-06 0)
(-15.7805 -5.22079e-06 0)
(-15.756 -5.16739e-06 0)
(-15.7316 -5.11492e-06 0)
(-15.7074 -5.06327e-06 0)
(-15.6834 -5.01245e-06 0)
(-15.6596 -4.96235e-06 0)
(-15.636 -4.9131e-06 0)
(-15.6126 -4.86458e-06 0)
(-15.5893 -4.81686e-06 0)
(-15.5662 -4.76979e-06 0)
(-15.5433 -4.72351e-06 0)
(-15.5206 -4.67786e-06 0)
(-15.498 -4.63299e-06 0)
(-15.4755 -4.58869e-06 0)
(-15.4533 -4.54511e-06 0)
(-15.4312 -4.50211e-06 0)
(-15.4092 -4.45981e-06 0)
(-15.3875 -4.41808e-06 0)
(-15.3658 -4.37696e-06 0)
(-15.3443 -4.33642e-06 0)
(-15.323 -4.29645e-06 0)
(-15.3018 -4.2571e-06 0)
(-15.2807 -4.21826e-06 0)
(-15.2598 -4.18e-06 0)
(-15.2391 -4.14221e-06 0)
(-15.2184 -4.10505e-06 0)
(-15.198 -4.06829e-06 0)
(-15.1776 -4.03225e-06 0)
(-15.1574 -3.99636e-06 0)
(-15.1373 -3.96131e-06 0)
(-15.1173 -3.92643e-06 0)
(-15.0975 -3.88999e-06 0)
(-15.0789 -3.85999e-06 0)
(-15.0614 -3.83327e-06 0)
(-15.0438 -3.80223e-06 0)
(-15.0263 -3.77185e-06 0)
(-15.0086 -3.74209e-06 0)
(-14.9909 -3.71223e-06 0)
(-14.9732 -3.68272e-06 0)
(-14.9554 -3.65329e-06 0)
(-14.9375 -3.62401e-06 0)
(-14.9196 -3.59489e-06 0)
(-14.9017 -3.56587e-06 0)
(-14.8837 -3.53696e-06 0)
(-14.8656 -3.50817e-06 0)
(-14.8475 -3.4795e-06 0)
(-14.8294 -3.45096e-06 0)
(-14.8112 -3.42256e-06 0)
(-14.793 -3.39425e-06 0)
(-14.7747 -3.36606e-06 0)
(-14.7564 -3.33798e-06 0)
(-14.738 -3.31005e-06 0)
(-14.7196 -3.28226e-06 0)
(-14.7012 -3.25455e-06 0)
(-14.6827 -3.22699e-06 0)
(-14.6641 -3.19953e-06 0)
(-14.6455 -3.17225e-06 0)
(-14.6269 -3.14506e-06 0)
(-14.6083 -3.11799e-06 0)
(-14.5896 -3.09104e-06 0)
(-14.5708 -3.06425e-06 0)
(-14.552 -3.03759e-06 0)
(-14.5332 -3.01106e-06 0)
(-14.5144 -2.98464e-06 0)
(-14.4955 -2.95837e-06 0)
(-14.4766 -2.93223e-06 0)
(-14.4576 -2.90626e-06 0)
(-14.4386 -2.88036e-06 0)
(-14.4195 -2.85465e-06 0)
(-14.4005 -2.82903e-06 0)
(-14.3814 -2.80361e-06 0)
(-14.3622 -2.77826e-06 0)
(-14.3431 -2.7531e-06 0)
(-14.3239 -2.728e-06 0)
(-14.3046 -2.70315e-06 0)
(-14.2853 -2.67835e-06 0)
(-14.2661 -2.65377e-06 0)
(-14.2467 -2.62924e-06 0)
(-14.2274 -2.60495e-06 0)
(-14.208 -2.58073e-06 0)
(-14.1886 -2.55673e-06 0)
(-14.1691 -2.53276e-06 0)
(-14.1497 -2.50905e-06 0)
(-14.1301 -2.48539e-06 0)
(-14.1106 -2.46198e-06 0)
(-14.0911 -2.4386e-06 0)
(-14.0715 -2.41543e-06 0)
(-14.0519 -2.39238e-06 0)
(-14.0323 -2.36951e-06 0)
(-14.0126 -2.34674e-06 0)
(-13.993 -2.32414e-06 0)
(-13.9733 -2.30168e-06 0)
(-13.9536 -2.2794e-06 0)
(-13.9338 -2.25722e-06 0)
(-13.9141 -2.23521e-06 0)
(-13.8943 -2.21334e-06 0)
(-13.8745 -2.19164e-06 0)
(-13.8547 -2.17007e-06 0)
(-13.8349 -2.14863e-06 0)
(-13.8151 -2.12735e-06 0)
(-13.7952 -2.10623e-06 0)
(-13.7753 -2.08525e-06 0)
(-13.7554 -2.06438e-06 0)
(-13.7355 -2.04372e-06 0)
(-13.7156 -2.02317e-06 0)
(-13.6957 -2.0028e-06 0)
(-13.6757 -1.98253e-06 0)
(-13.6558 -1.96247e-06 0)
(-13.6358 -1.94249e-06 0)
(-13.6158 -1.92273e-06 0)
(-13.5958 -1.90301e-06 0)
(-13.5758 -1.88357e-06 0)
(-13.5558 -1.86415e-06 0)
(-13.5358 -1.845e-06 0)
(-13.5157 -1.82585e-06 0)
(-13.4957 -1.80701e-06 0)
(-13.4756 -1.78817e-06 0)
(-13.4556 -1.7696e-06 0)
(-13.4355 -1.75105e-06 0)
(-13.4155 -1.73279e-06 0)
(-13.3954 -1.71452e-06 0)
(-13.3753 -1.69653e-06 0)
(-13.3552 -1.67856e-06 0)
(-13.3351 -1.66087e-06 0)
(-13.315 -1.64317e-06 0)
(-13.295 -1.62576e-06 0)
(-13.2749 -1.60836e-06 0)
(-13.2548 -1.59124e-06 0)
(-13.2347 -1.5741e-06 0)
(-13.2146 -1.55727e-06 0)
(-13.1945 -1.54043e-06 0)
(-13.1744 -1.52389e-06 0)
(-13.1543 -1.5073e-06 0)
(-13.1342 -1.49102e-06 0)
(-13.1141 -1.47476e-06 0)
(-13.094 -1.45875e-06 0)
(-13.0739 -1.44275e-06 0)
(-13.0539 -1.42701e-06 0)
(-13.0338 -1.41131e-06 0)
(-13.0137 -1.39582e-06 0)
(-12.9936 -1.38037e-06 0)
(-12.9736 -1.36518e-06 0)
(-12.9535 -1.35003e-06 0)
(-12.9335 -1.33507e-06 0)
(-12.9134 -1.32018e-06 0)
(-12.8934 -1.30551e-06 0)
(-12.8734 -1.2909e-06 0)
(-12.8534 -1.27645e-06 0)
(-12.8334 -1.26211e-06 0)
(-12.8134 -1.24793e-06 0)
(-12.7934 -1.23384e-06 0)
(-12.7734 -1.21993e-06 0)
(-12.7534 -1.20612e-06 0)
(-12.7335 -1.19244e-06 0)
(-12.7135 -1.17889e-06 0)
(-12.6936 -1.16545e-06 0)
(-12.6737 -1.15218e-06 0)
(-12.6538 -1.13898e-06 0)
(-12.6339 -1.12594e-06 0)
(-12.6141 -1.11301e-06 0)
(-12.5942 -1.10022e-06 0)
(-12.5744 -1.08751e-06 0)
(-12.5545 -1.07498e-06 0)
(-12.5347 -1.06253e-06 0)
(-12.5149 -1.05025e-06 0)
(-12.4952 -1.038e-06 0)
(-12.4754 -1.02596e-06 0)
(-12.4557 -1.01397e-06 0)
(-12.4359 -1.00215e-06 0)
(-12.4162 -9.90396e-07 0)
(-12.3965 -9.7883e-07 0)
(-12.3769 -9.67289e-07 0)
(-12.3572 -9.55944e-07 0)
(-12.3376 -9.44653e-07 0)
(-12.318 -9.33528e-07 0)
(-12.2984 -9.22443e-07 0)
(-12.2789 -9.11542e-07 0)
(-12.2593 -9.00694e-07 0)
(-12.2398 -8.90011e-07 0)
(-12.2203 -8.79367e-07 0)
(-12.2008 -8.68906e-07 0)
(-12.1814 -8.58491e-07 0)
(-12.162 -8.4824e-07 0)
(-12.1426 -8.38031e-07 0)
(-12.1232 -8.27991e-07 0)
(-12.1039 -8.17996e-07 0)
(-12.0845 -8.08163e-07 0)
(-12.0653 -7.98383e-07 0)
(-12.046 -7.88746e-07 0)
(-12.0267 -7.79162e-07 0)
(-12.0075 -7.6974e-07 0)
(-11.9883 -7.60358e-07 0)
(-11.9692 -7.51116e-07 0)
(-11.95 -7.41938e-07 0)
(-11.9309 -7.32901e-07 0)
(-11.9118 -7.23915e-07 0)
(-11.8928 -7.15052e-07 0)
(-11.8738 -7.06267e-07 0)
(-11.8548 -6.97594e-07 0)
(-11.8358 -6.88995e-07 0)
(-11.8169 -6.8051e-07 0)
(-11.798 -6.72108e-07 0)
(-11.7791 -6.638e-07 0)
(-11.7603 -6.5558e-07 0)
(-11.7415 -6.47447e-07 0)
(-11.7227 -6.3941e-07 0)
(-11.7039 -6.31446e-07 0)
(-11.6852 -6.23592e-07 0)
(-11.6665 -6.15769e-07 0)
(-11.6479 -6.08134e-07 0)
(-11.6293 -6.0037e-07 0)
(-11.6107 -5.92975e-07 0)
(-11.5922 -5.85608e-07 0)
(-11.5716 -5.76809e-07 0)
(-11.5492 -5.67588e-07 0)
(-11.5271 -5.59334e-07 0)
(-11.5054 -5.51245e-07 0)
(-11.484 -5.43207e-07 0)
(-11.4629 -5.35392e-07 0)
(-11.4421 -5.27729e-07 0)
(-11.4215 -5.20256e-07 0)
(-11.4013 -5.12946e-07 0)
(-11.3814 -5.05821e-07 0)
(-11.3617 -4.9886e-07 0)
(-11.3423 -4.92072e-07 0)
(-11.3232 -4.85423e-07 0)
(-11.3043 -4.78949e-07 0)
(-11.2857 -4.72609e-07 0)
(-11.2673 -4.66419e-07 0)
(-11.2492 -4.60365e-07 0)
(-11.2313 -4.54452e-07 0)
(-11.2136 -4.48672e-07 0)
(-11.1962 -4.43005e-07 0)
(-11.179 -4.37477e-07 0)
(-11.1619 -4.32058e-07 0)
(-11.1451 -4.26766e-07 0)
(-11.1285 -4.21564e-07 0)
(-11.1121 -4.16497e-07 0)
(-11.0959 -4.11513e-07 0)
(-11.0799 -4.06639e-07 0)
(-11.0641 -4.01873e-07 0)
(-11.0485 -3.97199e-07 0)
(-11.033 -3.92617e-07 0)
(-11.0177 -3.88135e-07 0)
(-11.0026 -3.83736e-07 0)
(-10.9877 -3.79422e-07 0)
(-10.9729 -3.75192e-07 0)
(-10.9583 -3.71043e-07 0)
(-10.9439 -3.66983e-07 0)
(-10.9296 -3.62997e-07 0)
(-10.9154 -3.59088e-07 0)
(-10.9015 -3.55252e-07 0)
(-10.8876 -3.51489e-07 0)
(-10.874 -3.478e-07 0)
(-10.8604 -3.44179e-07 0)
(-10.847 -3.40614e-07 0)
(-10.8337 -3.37134e-07 0)
(-10.8206 -3.33699e-07 0)
(-10.8076 -3.3034e-07 0)
(-10.7948 -3.27027e-07 0)
(-10.782 -3.23786e-07 0)
(-10.7694 -3.20593e-07 0)
(-10.7569 -3.17467e-07 0)
(-10.7446 -3.14384e-07 0)
(-10.7323 -3.11355e-07 0)
(-10.7202 -3.08392e-07 0)
(-10.7082 -3.05475e-07 0)
(-10.6963 -3.02605e-07 0)
(-10.6845 -2.99782e-07 0)
(-10.6728 -2.9702e-07 0)
(-10.6612 -2.94292e-07 0)
(-10.6498 -2.91632e-07 0)
(-10.6384 -2.88976e-07 0)
(-10.6272 -2.86421e-07 0)
(-10.616 -2.83844e-07 0)
(-10.605 -2.81395e-07 0)
(-10.594 -2.78875e-07 0)
(-10.5831 -2.76537e-07 0)
(-10.5723 -2.74059e-07 0)
(-10.5617 -2.71861e-07 0)
(-10.551 -2.69413e-07 0)
(-10.5406 -2.67339e-07 0)
(-10.5301 -2.64914e-07 0)
(-10.5199 -2.63001e-07 0)
(-10.5095 -2.60554e-07 0)
(-10.4995 -2.5882e-07 0)
(-10.4893 -2.56345e-07 0)
(-10.4794 -2.54807e-07 0)
(-10.4693 -2.52291e-07 0)
(-10.4596 -2.50964e-07 0)
(-10.4497 -2.48408e-07 0)
(-10.4402 -2.47292e-07 0)
(-10.4303 -2.44732e-07 0)
(-10.421 -2.43777e-07 0)
(-10.4112 -2.41321e-07 0)
(-10.4022 -2.40365e-07 0)
(-10.3924 -2.38359e-07 0)
(-10.3835 -2.36865e-07 0)
(-10.3739 -2.36339e-07 0)
(-10.365 -2.32589e-07 0)
(-10.3557 -2.36717e-07 0)
(-10.3464 -2.25206e-07 0)
(-10.3381 -2.43592e-07 0)
(-10.3273 -2.0774e-07 0)
(-10.3219 -2.63935e-07 0)
(-10.3065 -1.72494e-07 0)
(-10.3087 -2.38164e-07 0)
(-10.2874 -2.79391e-07 0)
)
;
    }
    symmetry
    {
        type            symmetryPlane;
    }
    frontAndBack
    {
        type            empty;
    }
}


// ************************************************************************* //
