/*--------------------------------*- C++ -*----------------------------------*\
| =========                 |                                                 |
| \\      /  F ield         | OpenFOAM: The Open Source CFD Toolbox           |
|  \\    /   O peration     | Version:  v2012                                 |
|   \\  /    A nd           | Website:  www.openfoam.com                      |
|    \\/     M anipulation  |                                                 |
\*---------------------------------------------------------------------------*/
FoamFile
{
    version     2.0;
    format      ascii;
    class       volVectorField;
    location    "44.5";
    object      wallShearStress;
}
// * * * * * * * * * * * * * * * * * * * * * * * * * * * * * * * * * * * * * //

dimensions      [0 2 -2 0 0 0 0];


internalField   uniform (0 0 0);

boundaryField
{
    inlet
    {
        type            calculated;
        value           uniform (0 0 0);
    }
    outlet
    {
        type            calculated;
        value           uniform (0 0 0);
    }
    topWall
    {
        type            calculated;
        value           nonuniform List<vector> 
545
(
(6.80617e-08 -4.79085e-08 0)
(6.80362e-08 -1.34032e-07 0)
(6.79804e-08 -2.23555e-07 0)
(6.79182e-08 -3.10479e-07 0)
(6.78412e-08 -3.93688e-07 0)
(6.77512e-08 -4.74254e-07 0)
(6.76486e-08 -5.52861e-07 0)
(6.75342e-08 -6.29472e-07 0)
(6.7409e-08 -7.03918e-07 0)
(6.7274e-08 -7.76198e-07 0)
(6.71302e-08 -8.46406e-07 0)
(6.69784e-08 -9.14624e-07 0)
(6.68194e-08 -9.80898e-07 0)
(6.6654e-08 -1.04527e-06 0)
(6.64829e-08 -1.10778e-06 0)
(6.63067e-08 -1.16848e-06 0)
(6.61261e-08 -1.22742e-06 0)
(6.59417e-08 -1.28465e-06 0)
(6.5754e-08 -1.34021e-06 0)
(6.55634e-08 -1.39416e-06 0)
(6.53706e-08 -1.44652e-06 0)
(6.5176e-08 -1.49736e-06 0)
(6.49798e-08 -1.5467e-06 0)
(6.47826e-08 -1.5946e-06 0)
(6.45847e-08 -1.6411e-06 0)
(6.43865e-08 -1.68623e-06 0)
(6.41881e-08 -1.73003e-06 0)
(6.399e-08 -1.77255e-06 0)
(6.37924e-08 -1.81382e-06 0)
(6.35955e-08 -1.85387e-06 0)
(6.33995e-08 -1.89275e-06 0)
(6.32047e-08 -1.93049e-06 0)
(6.30112e-08 -1.96712e-06 0)
(6.28192e-08 -2.00268e-06 0)
(6.26288e-08 -2.03719e-06 0)
(6.24403e-08 -2.07069e-06 0)
(6.22537e-08 -2.10321e-06 0)
(6.20691e-08 -2.13478e-06 0)
(6.18866e-08 -2.16542e-06 0)
(6.17064e-08 -2.19517e-06 0)
(6.15285e-08 -2.22405e-06 0)
(6.13529e-08 -2.25209e-06 0)
(6.11798e-08 -2.27931e-06 0)
(6.10092e-08 -2.30574e-06 0)
(6.08412e-08 -2.3314e-06 0)
(6.06757e-08 -2.35632e-06 0)
(6.05128e-08 -2.38051e-06 0)
(6.03526e-08 -2.40401e-06 0)
(6.0195e-08 -2.42682e-06 0)
(6.00401e-08 -2.44897e-06 0)
(5.98878e-08 -2.47049e-06 0)
(5.97382e-08 -2.49138e-06 0)
(5.95913e-08 -2.51168e-06 0)
(5.94471e-08 -2.53139e-06 0)
(5.93055e-08 -2.55053e-06 0)
(5.91666e-08 -2.56913e-06 0)
(5.90303e-08 -2.58719e-06 0)
(5.88967e-08 -2.60474e-06 0)
(5.87656e-08 -2.62178e-06 0)
(5.86371e-08 -2.63834e-06 0)
(5.85112e-08 -2.65443e-06 0)
(5.83878e-08 -2.67006e-06 0)
(5.82669e-08 -2.68525e-06 0)
(5.81484e-08 -2.7e-06 0)
(5.80324e-08 -2.71434e-06 0)
(5.79188e-08 -2.72827e-06 0)
(5.78075e-08 -2.74181e-06 0)
(5.76986e-08 -2.75497e-06 0)
(5.75919e-08 -2.76775e-06 0)
(5.74876e-08 -2.78018e-06 0)
(5.73855e-08 -2.79226e-06 0)
(5.72851e-08 -2.80397e-06 0)
(5.7188e-08 -2.81525e-06 0)
(5.70943e-08 -2.8262e-06 0)
(5.70013e-08 -2.83702e-06 0)
(5.69087e-08 -2.84778e-06 0)
(5.68162e-08 -2.8585e-06 0)
(5.67237e-08 -2.86915e-06 0)
(5.66314e-08 -2.87973e-06 0)
(5.65391e-08 -2.89025e-06 0)
(5.6447e-08 -2.9007e-06 0)
(5.63549e-08 -2.91108e-06 0)
(5.6263e-08 -2.9214e-06 0)
(5.61711e-08 -2.93166e-06 0)
(5.60794e-08 -2.94185e-06 0)
(5.59878e-08 -2.95198e-06 0)
(5.58963e-08 -2.96205e-06 0)
(5.58049e-08 -2.97206e-06 0)
(5.57137e-08 -2.982e-06 0)
(5.56225e-08 -2.99188e-06 0)
(5.55315e-08 -3.0017e-06 0)
(5.54407e-08 -3.01146e-06 0)
(5.535e-08 -3.02116e-06 0)
(5.52591e-08 -3.03079e-06 0)
(5.51696e-08 -3.04042e-06 0)
(5.50742e-08 -3.0498e-06 0)
(5.49835e-08 -3.05842e-06 0)
(5.49067e-08 -3.06632e-06 0)
(5.48321e-08 -3.07391e-06 0)
(5.47581e-08 -3.08155e-06 0)
(5.46839e-08 -3.08927e-06 0)
(5.46094e-08 -3.09701e-06 0)
(5.45345e-08 -3.10475e-06 0)
(5.44593e-08 -3.11248e-06 0)
(5.43838e-08 -3.12022e-06 0)
(5.43079e-08 -3.12797e-06 0)
(5.42317e-08 -3.13573e-06 0)
(5.41551e-08 -3.1435e-06 0)
(5.40782e-08 -3.15127e-06 0)
(5.40009e-08 -3.15905e-06 0)
(5.39233e-08 -3.16684e-06 0)
(5.38453e-08 -3.17463e-06 0)
(5.37669e-08 -3.18243e-06 0)
(5.36882e-08 -3.19024e-06 0)
(5.36091e-08 -3.19806e-06 0)
(5.35297e-08 -3.20588e-06 0)
(5.34499e-08 -3.21371e-06 0)
(5.33697e-08 -3.22155e-06 0)
(5.32892e-08 -3.22939e-06 0)
(5.32083e-08 -3.23724e-06 0)
(5.3127e-08 -3.24509e-06 0)
(5.30454e-08 -3.25296e-06 0)
(5.29634e-08 -3.26083e-06 0)
(5.2881e-08 -3.2687e-06 0)
(5.27983e-08 -3.27658e-06 0)
(5.27152e-08 -3.28447e-06 0)
(5.26317e-08 -3.29236e-06 0)
(5.25478e-08 -3.30026e-06 0)
(5.24636e-08 -3.30817e-06 0)
(5.2379e-08 -3.31608e-06 0)
(5.2294e-08 -3.324e-06 0)
(5.22087e-08 -3.33192e-06 0)
(5.21229e-08 -3.33985e-06 0)
(5.20368e-08 -3.34779e-06 0)
(5.19503e-08 -3.35572e-06 0)
(5.18635e-08 -3.36367e-06 0)
(5.17762e-08 -3.37162e-06 0)
(5.16886e-08 -3.37958e-06 0)
(5.16006e-08 -3.38754e-06 0)
(5.15122e-08 -3.39551e-06 0)
(5.14234e-08 -3.40348e-06 0)
(5.13342e-08 -3.41145e-06 0)
(5.12447e-08 -3.41944e-06 0)
(5.11547e-08 -3.42742e-06 0)
(5.10644e-08 -3.43541e-06 0)
(5.09737e-08 -3.44341e-06 0)
(5.08826e-08 -3.45141e-06 0)
(5.07911e-08 -3.45941e-06 0)
(5.06992e-08 -3.46742e-06 0)
(5.0607e-08 -3.47544e-06 0)
(5.05143e-08 -3.48345e-06 0)
(5.04213e-08 -3.49148e-06 0)
(5.03278e-08 -3.4995e-06 0)
(5.0234e-08 -3.50753e-06 0)
(5.01397e-08 -3.51557e-06 0)
(5.00451e-08 -3.5236e-06 0)
(4.99501e-08 -3.53165e-06 0)
(4.98546e-08 -3.53969e-06 0)
(4.97588e-08 -3.54774e-06 0)
(4.96626e-08 -3.55579e-06 0)
(4.9566e-08 -3.56385e-06 0)
(4.9469e-08 -3.5719e-06 0)
(4.93716e-08 -3.57997e-06 0)
(4.92738e-08 -3.58803e-06 0)
(4.91755e-08 -3.5961e-06 0)
(4.90769e-08 -3.60417e-06 0)
(4.89779e-08 -3.61224e-06 0)
(4.88785e-08 -3.62032e-06 0)
(4.87787e-08 -3.6284e-06 0)
(4.86784e-08 -3.63648e-06 0)
(4.85778e-08 -3.64456e-06 0)
(4.84768e-08 -3.65265e-06 0)
(4.83753e-08 -3.66073e-06 0)
(4.82735e-08 -3.66882e-06 0)
(4.81713e-08 -3.67692e-06 0)
(4.80686e-08 -3.68501e-06 0)
(4.79656e-08 -3.6931e-06 0)
(4.78621e-08 -3.7012e-06 0)
(4.77582e-08 -3.7093e-06 0)
(4.76539e-08 -3.7174e-06 0)
(4.75493e-08 -3.7255e-06 0)
(4.74442e-08 -3.7336e-06 0)
(4.73387e-08 -3.74171e-06 0)
(4.72328e-08 -3.74981e-06 0)
(4.71264e-08 -3.75792e-06 0)
(4.70197e-08 -3.76602e-06 0)
(4.69126e-08 -3.77413e-06 0)
(4.6805e-08 -3.78224e-06 0)
(4.66971e-08 -3.79034e-06 0)
(4.65887e-08 -3.79845e-06 0)
(4.648e-08 -3.80656e-06 0)
(4.63708e-08 -3.81467e-06 0)
(4.62612e-08 -3.82278e-06 0)
(4.61512e-08 -3.83089e-06 0)
(4.60408e-08 -3.83899e-06 0)
(4.593e-08 -3.8471e-06 0)
(4.58187e-08 -3.85521e-06 0)
(4.57071e-08 -3.86332e-06 0)
(4.5595e-08 -3.87142e-06 0)
(4.54826e-08 -3.87953e-06 0)
(4.53697e-08 -3.88763e-06 0)
(4.52564e-08 -3.89573e-06 0)
(4.51427e-08 -3.90383e-06 0)
(4.50286e-08 -3.91193e-06 0)
(4.49141e-08 -3.92003e-06 0)
(4.47992e-08 -3.92813e-06 0)
(4.46839e-08 -3.93622e-06 0)
(4.45681e-08 -3.94432e-06 0)
(4.4452e-08 -3.95241e-06 0)
(4.43354e-08 -3.9605e-06 0)
(4.42185e-08 -3.96858e-06 0)
(4.41011e-08 -3.97667e-06 0)
(4.39833e-08 -3.98475e-06 0)
(4.38651e-08 -3.99283e-06 0)
(4.37465e-08 -4.00091e-06 0)
(4.36276e-08 -4.00898e-06 0)
(4.35081e-08 -4.01705e-06 0)
(4.33883e-08 -4.02512e-06 0)
(4.32681e-08 -4.03318e-06 0)
(4.31475e-08 -4.04124e-06 0)
(4.30265e-08 -4.0493e-06 0)
(4.2905e-08 -4.05736e-06 0)
(4.27832e-08 -4.0654e-06 0)
(4.2661e-08 -4.07345e-06 0)
(4.25383e-08 -4.08149e-06 0)
(4.24153e-08 -4.08953e-06 0)
(4.22918e-08 -4.09756e-06 0)
(4.2168e-08 -4.10559e-06 0)
(4.20438e-08 -4.11361e-06 0)
(4.19191e-08 -4.12163e-06 0)
(4.17941e-08 -4.12964e-06 0)
(4.16687e-08 -4.13765e-06 0)
(4.15428e-08 -4.14566e-06 0)
(4.14166e-08 -4.15365e-06 0)
(4.129e-08 -4.16164e-06 0)
(4.1163e-08 -4.16963e-06 0)
(4.10356e-08 -4.17761e-06 0)
(4.09078e-08 -4.18559e-06 0)
(4.07796e-08 -4.19355e-06 0)
(4.0651e-08 -4.20152e-06 0)
(4.0522e-08 -4.20947e-06 0)
(4.03927e-08 -4.21742e-06 0)
(4.02629e-08 -4.22536e-06 0)
(4.01328e-08 -4.2333e-06 0)
(4.00023e-08 -4.24122e-06 0)
(3.98714e-08 -4.24915e-06 0)
(3.97401e-08 -4.25706e-06 0)
(3.96084e-08 -4.26496e-06 0)
(3.94764e-08 -4.27286e-06 0)
(3.9344e-08 -4.28075e-06 0)
(3.92112e-08 -4.28863e-06 0)
(3.9078e-08 -4.29651e-06 0)
(3.89445e-08 -4.30437e-06 0)
(3.88106e-08 -4.31223e-06 0)
(3.86763e-08 -4.32008e-06 0)
(3.85416e-08 -4.32792e-06 0)
(3.84066e-08 -4.33575e-06 0)
(3.82712e-08 -4.34357e-06 0)
(3.81354e-08 -4.35138e-06 0)
(3.79993e-08 -4.35919e-06 0)
(3.78628e-08 -4.36698e-06 0)
(3.7726e-08 -4.37476e-06 0)
(3.75888e-08 -4.38254e-06 0)
(3.74512e-08 -4.3903e-06 0)
(3.73133e-08 -4.39805e-06 0)
(3.71751e-08 -4.4058e-06 0)
(3.70362e-08 -4.41352e-06 0)
(3.68975e-08 -4.42128e-06 0)
(3.67537e-08 -4.4289e-06 0)
(3.66168e-08 -4.43617e-06 0)
(3.64908e-08 -4.44317e-06 0)
(3.63639e-08 -4.45003e-06 0)
(3.62371e-08 -4.45694e-06 0)
(3.6109e-08 -4.46396e-06 0)
(3.59795e-08 -4.47103e-06 0)
(3.58486e-08 -4.47815e-06 0)
(3.57162e-08 -4.48531e-06 0)
(3.55824e-08 -4.49253e-06 0)
(3.54472e-08 -4.4998e-06 0)
(3.53105e-08 -4.50711e-06 0)
(3.51723e-08 -4.51448e-06 0)
(3.50325e-08 -4.5219e-06 0)
(3.48913e-08 -4.52937e-06 0)
(3.47485e-08 -4.53689e-06 0)
(3.46042e-08 -4.54446e-06 0)
(3.44584e-08 -4.55208e-06 0)
(3.43109e-08 -4.55975e-06 0)
(3.41619e-08 -4.56748e-06 0)
(3.40113e-08 -4.57525e-06 0)
(3.38591e-08 -4.58307e-06 0)
(3.37052e-08 -4.59094e-06 0)
(3.35498e-08 -4.59886e-06 0)
(3.33926e-08 -4.60682e-06 0)
(3.32339e-08 -4.61484e-06 0)
(3.30734e-08 -4.6229e-06 0)
(3.29113e-08 -4.63102e-06 0)
(3.27474e-08 -4.63917e-06 0)
(3.25819e-08 -4.64738e-06 0)
(3.24146e-08 -4.65563e-06 0)
(3.22456e-08 -4.66394e-06 0)
(3.20749e-08 -4.67228e-06 0)
(3.19024e-08 -4.68067e-06 0)
(3.17282e-08 -4.68911e-06 0)
(3.15521e-08 -4.69759e-06 0)
(3.13743e-08 -4.70612e-06 0)
(3.11947e-08 -4.71469e-06 0)
(3.10133e-08 -4.7233e-06 0)
(3.083e-08 -4.73196e-06 0)
(3.0645e-08 -4.74065e-06 0)
(3.04581e-08 -4.74939e-06 0)
(3.02693e-08 -4.75817e-06 0)
(3.00787e-08 -4.76699e-06 0)
(2.98862e-08 -4.77585e-06 0)
(2.96919e-08 -4.78475e-06 0)
(2.94957e-08 -4.79368e-06 0)
(2.92975e-08 -4.80265e-06 0)
(2.90975e-08 -4.81166e-06 0)
(2.88956e-08 -4.8207e-06 0)
(2.86918e-08 -4.82978e-06 0)
(2.84861e-08 -4.83889e-06 0)
(2.82784e-08 -4.84803e-06 0)
(2.80689e-08 -4.8572e-06 0)
(2.78574e-08 -4.86641e-06 0)
(2.76439e-08 -4.87564e-06 0)
(2.74286e-08 -4.8849e-06 0)
(2.72113e-08 -4.89419e-06 0)
(2.6992e-08 -4.9035e-06 0)
(2.67708e-08 -4.91284e-06 0)
(2.65477e-08 -4.9222e-06 0)
(2.63226e-08 -4.93159e-06 0)
(2.60956e-08 -4.94099e-06 0)
(2.58666e-08 -4.95042e-06 0)
(2.56357e-08 -4.95986e-06 0)
(2.54029e-08 -4.96932e-06 0)
(2.51681e-08 -4.97879e-06 0)
(2.49314e-08 -4.98828e-06 0)
(2.46927e-08 -4.99778e-06 0)
(2.44522e-08 -5.00729e-06 0)
(2.42097e-08 -5.01681e-06 0)
(2.39653e-08 -5.02633e-06 0)
(2.3719e-08 -5.03586e-06 0)
(2.34708e-08 -5.0454e-06 0)
(2.32208e-08 -5.05493e-06 0)
(2.29689e-08 -5.06447e-06 0)
(2.27151e-08 -5.074e-06 0)
(2.24595e-08 -5.08353e-06 0)
(2.2202e-08 -5.09306e-06 0)
(2.19427e-08 -5.10257e-06 0)
(2.16817e-08 -5.11208e-06 0)
(2.14188e-08 -5.12157e-06 0)
(2.11542e-08 -5.13105e-06 0)
(2.08879e-08 -5.14051e-06 0)
(2.06198e-08 -5.14995e-06 0)
(2.03501e-08 -5.15938e-06 0)
(2.00786e-08 -5.16877e-06 0)
(1.98056e-08 -5.17815e-06 0)
(1.95309e-08 -5.18749e-06 0)
(1.92546e-08 -5.1968e-06 0)
(1.89767e-08 -5.20608e-06 0)
(1.86974e-08 -5.21533e-06 0)
(1.84165e-08 -5.22453e-06 0)
(1.81341e-08 -5.23369e-06 0)
(1.78504e-08 -5.24281e-06 0)
(1.75652e-08 -5.25188e-06 0)
(1.72787e-08 -5.2609e-06 0)
(1.69909e-08 -5.26988e-06 0)
(1.67017e-08 -5.27879e-06 0)
(1.64114e-08 -5.28765e-06 0)
(1.61199e-08 -5.29644e-06 0)
(1.58272e-08 -5.30517e-06 0)
(1.55335e-08 -5.31383e-06 0)
(1.52387e-08 -5.32242e-06 0)
(1.49429e-08 -5.33094e-06 0)
(1.46462e-08 -5.33938e-06 0)
(1.43486e-08 -5.34774e-06 0)
(1.40502e-08 -5.35602e-06 0)
(1.3751e-08 -5.36421e-06 0)
(1.34511e-08 -5.37232e-06 0)
(1.31506e-08 -5.38032e-06 0)
(1.28494e-08 -5.38824e-06 0)
(1.25478e-08 -5.39604e-06 0)
(1.22457e-08 -5.40376e-06 0)
(1.19432e-08 -5.41135e-06 0)
(1.16404e-08 -5.41885e-06 0)
(1.13374e-08 -5.42622e-06 0)
(1.10342e-08 -5.43349e-06 0)
(1.07309e-08 -5.44062e-06 0)
(1.04276e-08 -5.44765e-06 0)
(1.01243e-08 -5.45453e-06 0)
(9.82119e-09 -5.46129e-06 0)
(9.51827e-09 -5.46791e-06 0)
(9.21568e-09 -5.4744e-06 0)
(8.91346e-09 -5.48073e-06 0)
(8.61172e-09 -5.48694e-06 0)
(8.31052e-09 -5.49298e-06 0)
(8.00998e-09 -5.49888e-06 0)
(7.71015e-09 -5.50461e-06 0)
(7.41117e-09 -5.5102e-06 0)
(7.11308e-09 -5.51561e-06 0)
(6.81601e-09 -5.52087e-06 0)
(6.52003e-09 -5.52594e-06 0)
(6.22526e-09 -5.53085e-06 0)
(5.93176e-09 -5.53558e-06 0)
(5.63967e-09 -5.54014e-06 0)
(5.34904e-09 -5.5445e-06 0)
(5.06001e-09 -5.54868e-06 0)
(4.77264e-09 -5.55267e-06 0)
(4.48707e-09 -5.55647e-06 0)
(4.20337e-09 -5.56006e-06 0)
(3.92165e-09 -5.56347e-06 0)
(3.64201e-09 -5.56666e-06 0)
(3.36457e-09 -5.56967e-06 0)
(3.0894e-09 -5.57244e-06 0)
(2.81662e-09 -5.57503e-06 0)
(2.54633e-09 -5.57738e-06 0)
(2.27863e-09 -5.57953e-06 0)
(2.01362e-09 -5.58145e-06 0)
(1.75142e-09 -5.58316e-06 0)
(1.4921e-09 -5.58463e-06 0)
(1.23578e-09 -5.58589e-06 0)
(9.82556e-10 -5.58691e-06 0)
(7.32527e-10 -5.58771e-06 0)
(4.85784e-10 -5.58826e-06 0)
(2.42429e-10 -5.5886e-06 0)
(2.55109e-12 -5.58868e-06 0)
(-2.33755e-10 -5.58854e-06 0)
(-4.664e-10 -5.58815e-06 0)
(-6.95297e-10 -5.58753e-06 0)
(-9.20357e-10 -5.58665e-06 0)
(-1.1415e-09 -5.58555e-06 0)
(-1.35864e-09 -5.58419e-06 0)
(-1.57171e-09 -5.5826e-06 0)
(-1.78061e-09 -5.58074e-06 0)
(-1.98529e-09 -5.57866e-06 0)
(-2.18566e-09 -5.57631e-06 0)
(-2.38167e-09 -5.57374e-06 0)
(-2.57322e-09 -5.5709e-06 0)
(-2.76029e-09 -5.56783e-06 0)
(-2.94277e-09 -5.56449e-06 0)
(-3.12064e-09 -5.56094e-06 0)
(-3.29381e-09 -5.55711e-06 0)
(-3.46226e-09 -5.55306e-06 0)
(-3.62589e-09 -5.54874e-06 0)
(-3.78471e-09 -5.54421e-06 0)
(-3.93861e-09 -5.5394e-06 0)
(-4.08761e-09 -5.53439e-06 0)
(-4.23156e-09 -5.5291e-06 0)
(-4.37066e-09 -5.52362e-06 0)
(-4.50387e-09 -5.5178e-06 0)
(-4.63408e-09 -5.5119e-06 0)
(-4.77005e-09 -5.50503e-06 0)
(-4.90863e-09 -5.49713e-06 0)
(-5.04088e-09 -5.48903e-06 0)
(-5.16522e-09 -5.48075e-06 0)
(-5.28099e-09 -5.47225e-06 0)
(-5.38853e-09 -5.46361e-06 0)
(-5.48795e-09 -5.45475e-06 0)
(-5.57954e-09 -5.44579e-06 0)
(-5.66349e-09 -5.43664e-06 0)
(-5.74015e-09 -5.4274e-06 0)
(-5.80967e-09 -5.41801e-06 0)
(-5.8724e-09 -5.40855e-06 0)
(-5.92847e-09 -5.39895e-06 0)
(-5.97821e-09 -5.38931e-06 0)
(-6.02174e-09 -5.37955e-06 0)
(-6.05938e-09 -5.36977e-06 0)
(-6.09123e-09 -5.35989e-06 0)
(-6.1176e-09 -5.35001e-06 0)
(-6.13857e-09 -5.34004e-06 0)
(-6.15445e-09 -5.33009e-06 0)
(-6.1653e-09 -5.32008e-06 0)
(-6.1714e-09 -5.31009e-06 0)
(-6.17281e-09 -5.30006e-06 0)
(-6.1698e-09 -5.29007e-06 0)
(-6.16243e-09 -5.28005e-06 0)
(-6.15093e-09 -5.27008e-06 0)
(-6.13535e-09 -5.2601e-06 0)
(-6.11593e-09 -5.25018e-06 0)
(-6.0927e-09 -5.24026e-06 0)
(-6.06588e-09 -5.23043e-06 0)
(-6.03549e-09 -5.22059e-06 0)
(-6.00176e-09 -5.21085e-06 0)
(-5.96468e-09 -5.20113e-06 0)
(-5.92447e-09 -5.19151e-06 0)
(-5.88113e-09 -5.18192e-06 0)
(-5.83486e-09 -5.17244e-06 0)
(-5.78564e-09 -5.16299e-06 0)
(-5.73368e-09 -5.15368e-06 0)
(-5.67895e-09 -5.1444e-06 0)
(-5.62165e-09 -5.13526e-06 0)
(-5.56174e-09 -5.12617e-06 0)
(-5.49941e-09 -5.11723e-06 0)
(-5.43463e-09 -5.10834e-06 0)
(-5.36756e-09 -5.0996e-06 0)
(-5.29819e-09 -5.09093e-06 0)
(-5.22666e-09 -5.08242e-06 0)
(-5.15296e-09 -5.07399e-06 0)
(-5.07722e-09 -5.06571e-06 0)
(-4.99942e-09 -5.05752e-06 0)
(-4.9197e-09 -5.0495e-06 0)
(-4.83803e-09 -5.04157e-06 0)
(-4.75454e-09 -5.03381e-06 0)
(-4.66921e-09 -5.02615e-06 0)
(-4.58215e-09 -5.01867e-06 0)
(-4.49334e-09 -5.01129e-06 0)
(-4.4029e-09 -5.00409e-06 0)
(-4.3108e-09 -4.99701e-06 0)
(-4.21716e-09 -4.99011e-06 0)
(-4.12194e-09 -4.98333e-06 0)
(-4.02526e-09 -4.97674e-06 0)
(-3.92708e-09 -4.97028e-06 0)
(-3.82752e-09 -4.964e-06 0)
(-3.72656e-09 -4.95786e-06 0)
(-3.62428e-09 -4.95191e-06 0)
(-3.52067e-09 -4.9461e-06 0)
(-3.41582e-09 -4.94049e-06 0)
(-3.30973e-09 -4.93502e-06 0)
(-3.20247e-09 -4.92975e-06 0)
(-3.09404e-09 -4.92463e-06 0)
(-2.98452e-09 -4.91971e-06 0)
(-2.8739e-09 -4.91494e-06 0)
(-2.76227e-09 -4.91038e-06 0)
(-2.64962e-09 -4.90597e-06 0)
(-2.53602e-09 -4.90177e-06 0)
(-2.42148e-09 -4.89774e-06 0)
(-2.30607e-09 -4.89391e-06 0)
(-2.1898e-09 -4.89025e-06 0)
(-2.07272e-09 -4.88679e-06 0)
(-1.95486e-09 -4.88351e-06 0)
(-1.83626e-09 -4.88044e-06 0)
(-1.71697e-09 -4.87754e-06 0)
(-1.59701e-09 -4.87485e-06 0)
(-1.47644e-09 -4.87235e-06 0)
(-1.35529e-09 -4.87005e-06 0)
(-1.23362e-09 -4.86793e-06 0)
(-1.11147e-09 -4.86605e-06 0)
(-9.88897e-10 -4.86423e-06 0)
(-8.65994e-10 -4.86306e-06 0)
(-7.42761e-10 -4.86061e-06 0)
(-6.19494e-10 -4.86319e-06 0)
(-4.95575e-10 -4.84963e-06 0)
(-3.73151e-10 -4.88839e-06 0)
(-2.4615e-10 -4.74155e-06 0)
(-1.32571e-10 -5.13068e-06 0)
(-4.29665e-11 -4.48103e-06 0)
)
;
    }
    bottomWall
    {
        type            calculated;
        value           nonuniform List<vector> 
449
(
(-52.7123 -0.955673 0)
(-34.7463 -0.00279823 0)
(-34.3565 -0.000254836 0)
(-32.9927 -0.000363777 0)
(-31.8661 -0.000315412 0)
(-30.8295 -0.00028429 0)
(-29.9123 -0.000249305 0)
(-29.1124 -0.000217396 0)
(-28.4117 -0.000190841 0)
(-27.7922 -0.00016907 0)
(-27.2394 -0.000151049 0)
(-26.7426 -0.000135943 0)
(-26.2927 -0.000123286 0)
(-25.882 -0.000112597 0)
(-25.5049 -0.000103376 0)
(-25.1571 -9.53665e-05 0)
(-24.8346 -8.83711e-05 0)
(-24.5345 -8.22337e-05 0)
(-24.254 -7.68275e-05 0)
(-23.9908 -7.20074e-05 0)
(-23.7432 -6.76829e-05 0)
(-23.5096 -6.37925e-05 0)
(-23.2886 -6.02819e-05 0)
(-23.079 -5.70948e-05 0)
(-22.8798 -5.41933e-05 0)
(-22.6901 -5.15324e-05 0)
(-22.5091 -4.90932e-05 0)
(-22.3362 -4.68516e-05 0)
(-22.1706 -4.47843e-05 0)
(-22.0118 -4.28678e-05 0)
(-21.8594 -4.10919e-05 0)
(-21.7128 -3.94386e-05 0)
(-21.5717 -3.79013e-05 0)
(-21.4357 -3.64629e-05 0)
(-21.3045 -3.51185e-05 0)
(-21.1777 -3.38581e-05 0)
(-21.0552 -3.26761e-05 0)
(-20.9366 -3.15661e-05 0)
(-20.8217 -3.05228e-05 0)
(-20.7103 -2.95373e-05 0)
(-20.6022 -2.86067e-05 0)
(-20.4972 -2.77265e-05 0)
(-20.3952 -2.6894e-05 0)
(-20.296 -2.60984e-05 0)
(-20.1994 -2.53378e-05 0)
(-20.1055 -2.46132e-05 0)
(-20.0139 -2.39194e-05 0)
(-19.9248 -2.32576e-05 0)
(-19.8378 -2.26215e-05 0)
(-19.7531 -2.20169e-05 0)
(-19.6703 -2.14388e-05 0)
(-19.5896 -2.08842e-05 0)
(-19.5107 -2.03588e-05 0)
(-19.4336 -1.98514e-05 0)
(-19.3583 -1.93702e-05 0)
(-19.2845 -1.89078e-05 0)
(-19.2124 -1.84662e-05 0)
(-19.1417 -1.80424e-05 0)
(-19.0725 -1.76357e-05 0)
(-19.0047 -1.72444e-05 0)
(-18.9382 -1.6869e-05 0)
(-18.873 -1.65068e-05 0)
(-18.8091 -1.61592e-05 0)
(-18.7463 -1.58232e-05 0)
(-18.6847 -1.55005e-05 0)
(-18.6241 -1.51885e-05 0)
(-18.5647 -1.48871e-05 0)
(-18.5063 -1.45968e-05 0)
(-18.4489 -1.43141e-05 0)
(-18.3924 -1.40434e-05 0)
(-18.3369 -1.37778e-05 0)
(-18.2823 -1.35242e-05 0)
(-18.2286 -1.3275e-05 0)
(-18.1757 -1.30356e-05 0)
(-18.1237 -1.28027e-05 0)
(-18.0724 -1.25754e-05 0)
(-18.022 -1.23575e-05 0)
(-17.9723 -1.21423e-05 0)
(-17.9233 -1.19361e-05 0)
(-17.8751 -1.17342e-05 0)
(-17.8275 -1.15374e-05 0)
(-17.7807 -1.1348e-05 0)
(-17.7345 -1.11612e-05 0)
(-17.6889 -1.09811e-05 0)
(-17.644 -1.08054e-05 0)
(-17.5997 -1.06332e-05 0)
(-17.556 -1.04674e-05 0)
(-17.5128 -1.03042e-05 0)
(-17.4703 -1.01454e-05 0)
(-17.4283 -9.99154e-06 0)
(-17.3868 -9.84021e-06 0)
(-17.3458 -9.69341e-06 0)
(-17.3054 -9.55038e-06 0)
(-17.2655 -9.40984e-06 0)
(-17.226 -9.27349e-06 0)
(-17.187 -9.14027e-06 0)
(-17.1485 -9.00959e-06 0)
(-17.1105 -8.88256e-06 0)
(-17.0729 -8.75837e-06 0)
(-17.0357 -8.6366e-06 0)
(-16.999 -8.51805e-06 0)
(-16.9627 -8.40205e-06 0)
(-16.9268 -8.28828e-06 0)
(-16.8913 -8.17738e-06 0)
(-16.8562 -8.06877e-06 0)
(-16.8214 -7.96239e-06 0)
(-16.7871 -7.85833e-06 0)
(-16.7531 -7.75663e-06 0)
(-16.7194 -7.65682e-06 0)
(-16.6862 -7.55922e-06 0)
(-16.6532 -7.46364e-06 0)
(-16.6206 -7.37e-06 0)
(-16.5884 -7.27813e-06 0)
(-16.5564 -7.18821e-06 0)
(-16.5248 -7.10001e-06 0)
(-16.4935 -7.01352e-06 0)
(-16.4625 -6.92871e-06 0)
(-16.4318 -6.84561e-06 0)
(-16.4014 -6.7641e-06 0)
(-16.3713 -6.68415e-06 0)
(-16.3415 -6.60567e-06 0)
(-16.3119 -6.52872e-06 0)
(-16.2826 -6.45312e-06 0)
(-16.2536 -6.37892e-06 0)
(-16.2249 -6.30607e-06 0)
(-16.1964 -6.23458e-06 0)
(-16.1682 -6.16424e-06 0)
(-16.1402 -6.09522e-06 0)
(-16.1125 -6.02745e-06 0)
(-16.085 -5.96084e-06 0)
(-16.0578 -5.89539e-06 0)
(-16.0308 -5.83107e-06 0)
(-16.004 -5.76801e-06 0)
(-15.9774 -5.70584e-06 0)
(-15.9511 -5.6448e-06 0)
(-15.925 -5.58468e-06 0)
(-15.8991 -5.5257e-06 0)
(-15.8734 -5.4675e-06 0)
(-15.8479 -5.41039e-06 0)
(-15.8227 -5.35409e-06 0)
(-15.7976 -5.29893e-06 0)
(-15.7728 -5.24437e-06 0)
(-15.7481 -5.19098e-06 0)
(-15.7236 -5.13817e-06 0)
(-15.6993 -5.08655e-06 0)
(-15.6752 -5.0353e-06 0)
(-15.6513 -4.98528e-06 0)
(-15.6276 -4.93565e-06 0)
(-15.604 -4.88719e-06 0)
(-15.5807 -4.83895e-06 0)
(-15.5575 -4.79184e-06 0)
(-15.5344 -4.74516e-06 0)
(-15.5116 -4.69945e-06 0)
(-15.4889 -4.65409e-06 0)
(-15.4664 -4.60965e-06 0)
(-15.444 -4.56576e-06 0)
(-15.4218 -4.5226e-06 0)
(-15.3998 -4.47997e-06 0)
(-15.3779 -4.43799e-06 0)
(-15.3561 -4.39666e-06 0)
(-15.3346 -4.35591e-06 0)
(-15.3131 -4.31575e-06 0)
(-15.2918 -4.27602e-06 0)
(-15.2707 -4.23704e-06 0)
(-15.2497 -4.19851e-06 0)
(-15.2288 -4.16055e-06 0)
(-15.2081 -4.12295e-06 0)
(-15.1875 -4.08599e-06 0)
(-15.1671 -4.04963e-06 0)
(-15.1468 -4.0136e-06 0)
(-15.1266 -3.97827e-06 0)
(-15.1066 -3.94307e-06 0)
(-15.0866 -3.90714e-06 0)
(-15.068 -3.87799e-06 0)
(-15.0504 -3.85098e-06 0)
(-15.0327 -3.8195e-06 0)
(-15.0151 -3.78848e-06 0)
(-14.9973 -3.75824e-06 0)
(-14.9796 -3.7279e-06 0)
(-14.9617 -3.69796e-06 0)
(-14.9439 -3.66796e-06 0)
(-14.926 -3.6383e-06 0)
(-14.908 -3.6087e-06 0)
(-14.89 -3.57939e-06 0)
(-14.8719 -3.55005e-06 0)
(-14.8538 -3.52091e-06 0)
(-14.8356 -3.49179e-06 0)
(-14.8174 -3.46294e-06 0)
(-14.7992 -3.43413e-06 0)
(-14.7809 -3.40551e-06 0)
(-14.7626 -3.37701e-06 0)
(-14.7442 -3.34856e-06 0)
(-14.7258 -3.32031e-06 0)
(-14.7073 -3.29214e-06 0)
(-14.6888 -3.26415e-06 0)
(-14.6703 -3.23613e-06 0)
(-14.6517 -3.20838e-06 0)
(-14.633 -3.18072e-06 0)
(-14.6144 -3.1533e-06 0)
(-14.5957 -3.12587e-06 0)
(-14.5769 -3.09865e-06 0)
(-14.5581 -3.0715e-06 0)
(-14.5393 -3.04456e-06 0)
(-14.5204 -3.0177e-06 0)
(-14.5015 -2.99094e-06 0)
(-14.4826 -2.96431e-06 0)
(-14.4636 -2.9379e-06 0)
(-14.4446 -2.91157e-06 0)
(-14.4256 -2.88538e-06 0)
(-14.4065 -2.8592e-06 0)
(-14.3874 -2.83337e-06 0)
(-14.3683 -2.80756e-06 0)
(-14.3491 -2.78204e-06 0)
(-14.3299 -2.75641e-06 0)
(-14.3107 -2.73121e-06 0)
(-14.2915 -2.70594e-06 0)
(-14.2722 -2.68104e-06 0)
(-14.2529 -2.65595e-06 0)
(-14.2335 -2.63122e-06 0)
(-14.2141 -2.60653e-06 0)
(-14.1948 -2.58211e-06 0)
(-14.1753 -2.55769e-06 0)
(-14.1559 -2.53346e-06 0)
(-14.1364 -2.50932e-06 0)
(-14.1169 -2.48549e-06 0)
(-14.0974 -2.46159e-06 0)
(-14.0778 -2.43801e-06 0)
(-14.0583 -2.41449e-06 0)
(-14.0387 -2.39117e-06 0)
(-14.0191 -2.36804e-06 0)
(-13.9995 -2.34492e-06 0)
(-13.9798 -2.32205e-06 0)
(-13.9601 -2.29927e-06 0)
(-13.9404 -2.27674e-06 0)
(-13.9207 -2.25418e-06 0)
(-13.901 -2.23189e-06 0)
(-13.8813 -2.20969e-06 0)
(-13.8615 -2.18773e-06 0)
(-13.8418 -2.16574e-06 0)
(-13.822 -2.14415e-06 0)
(-13.8022 -2.12253e-06 0)
(-13.7823 -2.10126e-06 0)
(-13.7625 -2.07991e-06 0)
(-13.7427 -2.05898e-06 0)
(-13.7228 -2.03785e-06 0)
(-13.703 -2.01722e-06 0)
(-13.6831 -1.99637e-06 0)
(-13.6632 -1.97599e-06 0)
(-13.6433 -1.95545e-06 0)
(-13.6234 -1.93546e-06 0)
(-13.6035 -1.91522e-06 0)
(-13.5836 -1.89552e-06 0)
(-13.5637 -1.87555e-06 0)
(-13.5438 -1.85617e-06 0)
(-13.5238 -1.8365e-06 0)
(-13.5039 -1.81741e-06 0)
(-13.4839 -1.79807e-06 0)
(-13.464 -1.77922e-06 0)
(-13.444 -1.76021e-06 0)
(-13.4241 -1.74161e-06 0)
(-13.4041 -1.72292e-06 0)
(-13.3842 -1.70464e-06 0)
(-13.3642 -1.68627e-06 0)
(-13.3443 -1.6682e-06 0)
(-13.3243 -1.65014e-06 0)
(-13.3044 -1.63241e-06 0)
(-13.2844 -1.61463e-06 0)
(-13.2645 -1.59717e-06 0)
(-13.2445 -1.57975e-06 0)
(-13.2246 -1.5626e-06 0)
(-13.2046 -1.5454e-06 0)
(-13.1847 -1.52847e-06 0)
(-13.1647 -1.51162e-06 0)
(-13.1448 -1.49507e-06 0)
(-13.1249 -1.47851e-06 0)
(-13.105 -1.46209e-06 0)
(-13.085 -1.44588e-06 0)
(-13.0652 -1.42974e-06 0)
(-13.0452 -1.41381e-06 0)
(-13.0254 -1.39795e-06 0)
(-13.0055 -1.38236e-06 0)
(-12.9856 -1.36681e-06 0)
(-12.9657 -1.35142e-06 0)
(-12.9459 -1.33612e-06 0)
(-12.9261 -1.32107e-06 0)
(-12.9063 -1.30604e-06 0)
(-12.8864 -1.29121e-06 0)
(-12.8667 -1.2764e-06 0)
(-12.8468 -1.26194e-06 0)
(-12.8271 -1.2474e-06 0)
(-12.8073 -1.23324e-06 0)
(-12.7876 -1.21897e-06 0)
(-12.7678 -1.205e-06 0)
(-12.7481 -1.19099e-06 0)
(-12.7284 -1.17734e-06 0)
(-12.7088 -1.16355e-06 0)
(-12.6891 -1.15021e-06 0)
(-12.6695 -1.13663e-06 0)
(-12.6498 -1.12352e-06 0)
(-12.6302 -1.11032e-06 0)
(-12.6106 -1.09742e-06 0)
(-12.591 -1.08443e-06 0)
(-12.5715 -1.07184e-06 0)
(-12.552 -1.05905e-06 0)
(-12.5324 -1.04662e-06 0)
(-12.513 -1.03406e-06 0)
(-12.4935 -1.02205e-06 0)
(-12.474 -1.00979e-06 0)
(-12.4546 -9.97904e-07 0)
(-12.4352 -9.8587e-07 0)
(-12.4158 -9.74196e-07 0)
(-12.3965 -9.62406e-07 0)
(-12.3771 -9.51004e-07 0)
(-12.3578 -9.39445e-07 0)
(-12.3386 -9.282e-07 0)
(-12.3193 -9.1692e-07 0)
(-12.3001 -9.05941e-07 0)
(-12.2809 -8.94915e-07 0)
(-12.2617 -8.8414e-07 0)
(-12.2425 -8.73345e-07 0)
(-12.2234 -8.62831e-07 0)
(-12.2043 -8.52274e-07 0)
(-12.1853 -8.41909e-07 0)
(-12.1662 -8.31558e-07 0)
(-12.1472 -8.21434e-07 0)
(-12.1282 -8.11331e-07 0)
(-12.1093 -8.01378e-07 0)
(-12.0903 -7.91479e-07 0)
(-12.0715 -7.81718e-07 0)
(-12.0526 -7.72073e-07 0)
(-12.0338 -7.62517e-07 0)
(-12.0149 -7.53037e-07 0)
(-11.9962 -7.43684e-07 0)
(-11.9774 -7.34498e-07 0)
(-11.9587 -7.2531e-07 0)
(-11.94 -7.16297e-07 0)
(-11.9214 -7.07313e-07 0)
(-11.9028 -6.98576e-07 0)
(-11.8842 -6.89756e-07 0)
(-11.8657 -6.81198e-07 0)
(-11.8472 -6.72589e-07 0)
(-11.8287 -6.64195e-07 0)
(-11.8103 -6.5574e-07 0)
(-11.7918 -6.47557e-07 0)
(-11.7735 -6.39298e-07 0)
(-11.7551 -6.31274e-07 0)
(-11.7369 -6.23223e-07 0)
(-11.7186 -6.1534e-07 0)
(-11.7004 -6.07513e-07 0)
(-11.6821 -5.99741e-07 0)
(-11.664 -5.92114e-07 0)
(-11.6459 -5.84449e-07 0)
(-11.6278 -5.77078e-07 0)
(-11.6097 -5.69429e-07 0)
(-11.5898 -5.60425e-07 0)
(-11.568 -5.51284e-07 0)
(-11.5466 -5.43159e-07 0)
(-11.5255 -5.35237e-07 0)
(-11.5047 -5.27318e-07 0)
(-11.4842 -5.19649e-07 0)
(-11.464 -5.12134e-07 0)
(-11.4441 -5.04755e-07 0)
(-11.4245 -4.97623e-07 0)
(-11.4052 -4.90613e-07 0)
(-11.3861 -4.83752e-07 0)
(-11.3673 -4.77064e-07 0)
(-11.3488 -4.70553e-07 0)
(-11.3305 -4.64147e-07 0)
(-11.3125 -4.57931e-07 0)
(-11.2946 -4.51874e-07 0)
(-11.2771 -4.45884e-07 0)
(-11.2597 -4.40095e-07 0)
(-11.2427 -4.34367e-07 0)
(-11.2257 -4.2884e-07 0)
(-11.2091 -4.23362e-07 0)
(-11.1926 -4.18096e-07 0)
(-11.1764 -4.12818e-07 0)
(-11.1603 -4.07755e-07 0)
(-11.1445 -4.02726e-07 0)
(-11.1288 -3.97892e-07 0)
(-11.1133 -3.93117e-07 0)
(-11.098 -3.88408e-07 0)
(-11.0829 -3.83833e-07 0)
(-11.068 -3.79354e-07 0)
(-11.0532 -3.74921e-07 0)
(-11.0386 -3.70601e-07 0)
(-11.0242 -3.66403e-07 0)
(-11.0099 -3.62284e-07 0)
(-10.9959 -3.5825e-07 0)
(-10.9819 -3.54266e-07 0)
(-10.9681 -3.50369e-07 0)
(-10.9545 -3.46545e-07 0)
(-10.941 -3.42781e-07 0)
(-10.9277 -3.39099e-07 0)
(-10.9145 -3.3547e-07 0)
(-10.9014 -3.31917e-07 0)
(-10.8885 -3.28448e-07 0)
(-10.8757 -3.25009e-07 0)
(-10.8631 -3.21655e-07 0)
(-10.8505 -3.18372e-07 0)
(-10.8381 -3.15131e-07 0)
(-10.8259 -3.11969e-07 0)
(-10.8137 -3.0884e-07 0)
(-10.8017 -3.05794e-07 0)
(-10.7898 -3.02793e-07 0)
(-10.778 -2.99884e-07 0)
(-10.7663 -2.96956e-07 0)
(-10.7547 -2.94121e-07 0)
(-10.7433 -2.91342e-07 0)
(-10.7319 -2.88574e-07 0)
(-10.7207 -2.85878e-07 0)
(-10.7096 -2.83205e-07 0)
(-10.6986 -2.80594e-07 0)
(-10.6876 -2.78011e-07 0)
(-10.6768 -2.75532e-07 0)
(-10.6661 -2.73007e-07 0)
(-10.6554 -2.70612e-07 0)
(-10.6449 -2.68138e-07 0)
(-10.6345 -2.65866e-07 0)
(-10.6241 -2.6344e-07 0)
(-10.6138 -2.61265e-07 0)
(-10.6036 -2.5888e-07 0)
(-10.5936 -2.56858e-07 0)
(-10.5835 -2.54446e-07 0)
(-10.5737 -2.52573e-07 0)
(-10.5638 -2.50229e-07 0)
(-10.5541 -2.48514e-07 0)
(-10.5443 -2.4618e-07 0)
(-10.5348 -2.44616e-07 0)
(-10.5252 -2.42275e-07 0)
(-10.5159 -2.40906e-07 0)
(-10.5063 -2.38567e-07 0)
(-10.4972 -2.37317e-07 0)
(-10.4877 -2.35015e-07 0)
(-10.4788 -2.33834e-07 0)
(-10.4694 -2.3174e-07 0)
(-10.4607 -2.30501e-07 0)
(-10.4514 -2.28886e-07 0)
(-10.4428 -2.27114e-07 0)
(-10.4336 -2.26881e-07 0)
(-10.425 -2.23028e-07 0)
(-10.4162 -2.27119e-07 0)
(-10.4072 -2.15995e-07 0)
(-10.3993 -2.33414e-07 0)
(-10.3889 -1.99556e-07 0)
(-10.3838 -2.52183e-07 0)
(-10.369 -1.67124e-07 0)
(-10.371 -2.26293e-07 0)
(-10.3509 -2.63131e-07 0)
)
;
    }
    symmetry
    {
        type            symmetryPlane;
    }
    frontAndBack
    {
        type            empty;
    }
}


// ************************************************************************* //
