/*--------------------------------*- C++ -*----------------------------------*\
| =========                 |                                                 |
| \\      /  F ield         | OpenFOAM: The Open Source CFD Toolbox           |
|  \\    /   O peration     | Version:  v2012                                 |
|   \\  /    A nd           | Website:  www.openfoam.com                      |
|    \\/     M anipulation  |                                                 |
\*---------------------------------------------------------------------------*/
FoamFile
{
    version     2.0;
    format      ascii;
    class       volScalarField;
    location    "9";
    object      p;
}
// * * * * * * * * * * * * * * * * * * * * * * * * * * * * * * * * * * * * * //

dimensions      [0 2 -2 0 0 0 0];


internalField   nonuniform List<scalar> 
209825
(
6.99704
6.99981
7.00665
7.01698
7.03022
7.04616
7.06473
7.08582
7.10932
7.13511
7.16312
7.19328
7.22551
7.25977
7.29601
7.33418
7.37425
7.4162
7.46
7.50563
7.55309
7.60236
7.65344
7.70632
7.76101
7.81752
7.87585
7.93602
7.99805
8.06194
8.12774
8.19545
8.26511
8.33676
8.41042
8.48613
8.56394
8.64389
8.72604
8.81043
8.89711
8.98616
9.07764
9.17161
9.26815
9.36735
9.46928
9.57403
9.68172
9.79243
9.90628
10.0234
10.1439
10.2679
10.3956
10.5271
10.6627
10.8024
10.9464
11.0951
11.2486
11.4071
11.571
11.7404
11.9158
12.0975
12.2857
12.4811
12.6839
12.8947
13.114
13.3423
13.5774
13.8219
14.0827
14.3621
14.6625
14.9866
15.3379
15.7201
16.1382
16.5983
17.1078
17.6762
18.316
19.0435
19.8806
20.8589
22.02
23.44
25.196
27.5691
30.5813
36.1464
42.4364
75.194
6.99704
6.99981
7.00665
7.01698
7.03022
7.04616
7.06473
7.08582
7.10932
7.13511
7.16312
7.19328
7.22551
7.25977
7.29601
7.33418
7.37425
7.4162
7.46
7.50563
7.55309
7.60236
7.65344
7.70632
7.76101
7.81752
7.87585
7.93602
7.99805
8.06194
8.12774
8.19545
8.26511
8.33676
8.41042
8.48613
8.56394
8.64389
8.72604
8.81043
8.89711
8.98616
9.07764
9.17161
9.26815
9.36735
9.46928
9.57403
9.68172
9.79243
9.90628
10.0234
10.1439
10.2679
10.3956
10.5271
10.6627
10.8024
10.9464
11.0951
11.2486
11.4071
11.571
11.7404
11.9158
12.0975
12.2857
12.4811
12.6839
12.8947
13.114
13.3423
13.5774
13.8218
14.0827
14.3621
14.6625
14.9866
15.3378
15.7201
16.1382
16.5983
17.1078
17.6762
18.316
19.0435
19.8806
20.8589
22.02
23.4399
25.1958
27.5688
30.581
36.1439
42.4156
74.5569
6.99704
6.99981
7.00665
7.01698
7.03022
7.04616
7.06473
7.08582
7.10932
7.13511
7.16312
7.19328
7.22551
7.25977
7.296
7.33418
7.37425
7.4162
7.46
7.50563
7.55309
7.60236
7.65344
7.70632
7.76101
7.81752
7.87585
7.93602
7.99805
8.06194
8.12774
8.19545
8.26511
8.33676
8.41042
8.48613
8.56394
8.64389
8.72604
8.81043
8.89711
8.98616
9.07764
9.17161
9.26815
9.36735
9.46928
9.57403
9.68172
9.79243
9.90628
10.0234
10.1439
10.2679
10.3956
10.5271
10.6627
10.8024
10.9464
11.0951
11.2486
11.4071
11.571
11.7404
11.9158
12.0975
12.2857
12.4811
12.6839
12.8947
13.114
13.3423
13.5774
13.8218
14.0827
14.3621
14.6624
14.9866
15.3378
15.7201
16.1382
16.5983
17.1077
17.6762
18.316
19.0435
19.8805
20.8588
22.0198
23.4398
25.1956
27.5683
30.5802
36.1398
42.3932
73.7871
6.99704
6.99981
7.00665
7.01698
7.03022
7.04616
7.06473
7.08582
7.10932
7.13511
7.16312
7.19328
7.22551
7.25977
7.296
7.33418
7.37425
7.4162
7.46
7.50563
7.55309
7.60236
7.65344
7.70632
7.76101
7.81752
7.87585
7.93602
7.99805
8.06194
8.12774
8.19545
8.26511
8.33676
8.41042
8.48613
8.56394
8.64389
8.72604
8.81043
8.89711
8.98616
9.07764
9.17161
9.26815
9.36735
9.46928
9.57403
9.68172
9.79243
9.90628
10.0234
10.1439
10.2679
10.3956
10.5271
10.6627
10.8024
10.9464
11.0951
11.2486
11.4071
11.5709
11.7404
11.9158
12.0974
12.2857
12.4811
12.6839
12.8947
13.1139
13.3423
13.5774
13.8218
14.0827
14.362
14.6624
14.9866
15.3378
15.7201
16.1382
16.5982
17.1077
17.6761
18.3159
19.0434
19.8804
20.8586
22.0196
23.4395
25.1951
27.5675
30.579
36.1341
42.3732
73.0252
6.99704
6.99981
7.00665
7.01698
7.03022
7.04616
7.06473
7.08582
7.10932
7.13511
7.16312
7.19328
7.22551
7.25977
7.296
7.33418
7.37425
7.4162
7.46
7.50563
7.55309
7.60236
7.65344
7.70632
7.76101
7.81752
7.87585
7.93602
7.99805
8.06194
8.12774
8.19545
8.26511
8.33675
8.41041
8.48613
8.56394
8.64389
8.72604
8.81042
8.89711
8.98616
9.07764
9.17161
9.26815
9.36734
9.46927
9.57403
9.68171
9.79243
9.90628
10.0234
10.1439
10.2679
10.3956
10.5271
10.6627
10.8024
10.9464
11.0951
11.2486
11.4071
11.5709
11.7404
11.9158
12.0974
12.2857
12.4811
12.6839
12.8946
13.1139
13.3423
13.5774
13.8218
14.0826
14.362
14.6624
14.9866
15.3378
15.72
16.1381
16.5982
17.1076
17.6761
18.3158
19.0433
19.8803
20.8584
22.0194
23.4391
25.1946
27.5664
30.5774
36.1265
42.3535
72.2761
6.99704
6.99981
7.00665
7.01698
7.03022
7.04616
7.06473
7.08582
7.10932
7.13511
7.16312
7.19328
7.22551
7.25977
7.296
7.33418
7.37425
7.4162
7.46
7.50563
7.55309
7.60236
7.65344
7.70632
7.76101
7.81752
7.87585
7.93602
7.99805
8.06194
8.12774
8.19545
8.26511
8.33675
8.41041
8.48613
8.56394
8.64389
8.72604
8.81042
8.89711
8.98616
9.07764
9.17161
9.26815
9.36734
9.46927
9.57403
9.68171
9.79242
9.90628
10.0234
10.1439
10.2679
10.3956
10.5271
10.6627
10.8024
10.9464
11.0951
11.2486
11.4071
11.5709
11.7404
11.9158
12.0974
12.2857
12.481
12.6839
12.8946
13.1139
13.3423
13.5774
13.8218
14.0826
14.362
14.6624
14.9865
15.3377
15.72
16.1381
16.5981
17.1076
17.676
18.3157
19.0431
19.8801
20.8582
22.019
23.4386
25.1938
27.565
30.5753
36.117
42.3314
71.5305
6.99704
6.99981
7.00665
7.01697
7.03022
7.04616
7.06473
7.08582
7.10932
7.13511
7.16312
7.19328
7.22551
7.25977
7.296
7.33418
7.37425
7.4162
7.46
7.50563
7.55309
7.60236
7.65344
7.70632
7.76101
7.81752
7.87585
7.93602
7.99805
8.06194
8.12773
8.19545
8.26511
8.33675
8.41041
8.48613
8.56394
8.64389
8.72604
8.81042
8.89711
8.98616
9.07763
9.17161
9.26815
9.36734
9.46927
9.57403
9.68171
9.79242
9.90627
10.0234
10.1439
10.2679
10.3956
10.5271
10.6627
10.8024
10.9464
11.0951
11.2486
11.4071
11.5709
11.7404
11.9158
12.0974
12.2857
12.481
12.6838
12.8946
13.1139
13.3423
13.5773
13.8218
14.0826
14.362
14.6623
14.9865
15.3377
15.7199
16.138
16.598
17.1075
17.6759
18.3156
19.0429
19.8798
20.8579
22.0186
23.438
25.1929
27.5633
30.5728
36.1056
42.3058
70.7858
6.99704
6.99981
7.00665
7.01697
7.03022
7.04616
7.06473
7.08582
7.10932
7.13511
7.16312
7.19328
7.22551
7.25977
7.296
7.33418
7.37425
7.4162
7.46
7.50563
7.55309
7.60236
7.65343
7.70632
7.76101
7.81752
7.87585
7.93602
7.99804
8.06194
8.12773
8.19545
8.26511
8.33675
8.41041
8.48613
8.56394
8.64389
8.72603
8.81042
8.89711
8.98616
9.07763
9.1716
9.26815
9.36734
9.46927
9.57403
9.68171
9.79242
9.90627
10.0234
10.1439
10.2679
10.3956
10.5271
10.6626
10.8023
10.9464
11.0951
11.2485
11.4071
11.5709
11.7404
11.9158
12.0974
12.2857
12.481
12.6838
12.8946
13.1139
13.3422
13.5773
13.8217
14.0826
14.3619
14.6623
14.9864
15.3376
15.7198
16.138
16.598
17.1074
17.6757
18.3154
19.0427
19.8796
20.8575
22.0181
23.4372
25.1919
27.5613
30.5697
36.0921
42.2765
70.0415
6.99704
6.99981
7.00665
7.01697
7.03022
7.04616
7.06473
7.08582
7.10931
7.13511
7.16312
7.19328
7.22551
7.25977
7.296
7.33418
7.37425
7.4162
7.46
7.50563
7.55309
7.60236
7.65343
7.70632
7.76101
7.81752
7.87585
7.93602
7.99804
8.06194
8.12773
8.19545
8.26511
8.33675
8.41041
8.48613
8.56394
8.64389
8.72603
8.81042
8.89711
8.98616
9.07763
9.1716
9.26814
9.36734
9.46927
9.57402
9.6817
9.79242
9.90627
10.0234
10.1439
10.2679
10.3956
10.5271
10.6626
10.8023
10.9464
11.0951
11.2485
11.4071
11.5709
11.7404
11.9158
12.0974
12.2857
12.481
12.6838
12.8946
13.1139
13.3422
13.5773
13.8217
14.0825
14.3619
14.6623
14.9864
15.3376
15.7198
16.1379
16.5978
17.1072
17.6756
18.3152
19.0425
19.8793
20.8571
22.0175
23.4364
25.1906
27.5589
30.5662
36.0765
42.2436
69.2972
6.99704
6.99981
7.00665
7.01697
7.03022
7.04616
7.06473
7.08582
7.10931
7.13511
7.16312
7.19328
7.22551
7.25977
7.296
7.33417
7.37425
7.4162
7.46
7.50563
7.55309
7.60236
7.65343
7.70632
7.76101
7.81752
7.87585
7.93602
7.99804
8.06194
8.12773
8.19545
8.26511
8.33675
8.41041
8.48613
8.56394
8.64389
8.72603
8.81042
8.89711
8.98615
9.07763
9.1716
9.26814
9.36733
9.46926
9.57402
9.6817
9.79241
9.90626
10.0234
10.1439
10.2679
10.3956
10.5271
10.6626
10.8023
10.9464
11.0951
11.2485
11.4071
11.5709
11.7404
11.9157
12.0974
12.2857
12.481
12.6838
12.8945
13.1138
13.3422
13.5773
13.8217
14.0825
14.3618
14.6622
14.9863
15.3375
15.7197
16.1378
16.5977
17.1071
17.6754
18.315
19.0422
19.8789
20.8566
22.0169
23.4354
25.1891
27.5562
30.5621
36.0587
42.2069
68.5532
6.99704
6.99981
7.00665
7.01697
7.03022
7.04616
7.06473
7.08582
7.10931
7.13511
7.16312
7.19328
7.22551
7.25977
7.296
7.33417
7.37425
7.4162
7.46
7.50563
7.55309
7.60236
7.65343
7.70632
7.76101
7.81752
7.87585
7.93602
7.99804
8.06194
8.12773
8.19544
8.26511
8.33675
8.41041
8.48612
8.56393
8.64389
8.72603
8.81042
8.8971
8.98615
9.07763
9.1716
9.26814
9.36733
9.46926
9.57402
9.6817
9.79241
9.90626
10.0234
10.1439
10.2679
10.3956
10.5271
10.6626
10.8023
10.9464
11.095
11.2485
11.407
11.5709
11.7403
11.9157
12.0974
12.2856
12.481
12.6838
12.8945
13.1138
13.3421
13.5772
13.8216
14.0824
14.3618
14.6621
14.9862
15.3374
15.7196
16.1376
16.5976
17.1069
17.6752
18.3147
19.0419
19.8785
20.856
22.0161
23.4342
25.1874
27.5531
30.5573
36.0386
42.1664
67.8097
6.99704
6.99981
7.00665
7.01697
7.03022
7.04616
7.06473
7.08582
7.10931
7.13511
7.16312
7.19328
7.22551
7.25977
7.296
7.33417
7.37425
7.4162
7.46
7.50563
7.55309
7.60236
7.65343
7.70632
7.76101
7.81752
7.87585
7.93602
7.99804
8.06194
8.12773
8.19544
8.26511
8.33675
8.41041
8.48612
8.56393
8.64388
8.72603
8.81041
8.8971
8.98615
9.07762
9.17159
9.26814
9.36733
9.46926
9.57401
9.68169
9.7924
9.90625
10.0234
10.1439
10.2679
10.3956
10.5271
10.6626
10.8023
10.9464
11.095
11.2485
11.407
11.5709
11.7403
11.9157
12.0973
12.2856
12.4809
12.6837
12.8945
13.1138
13.3421
13.5772
13.8216
14.0824
14.3617
14.6621
14.9862
15.3373
15.7195
16.1375
16.5974
17.1067
17.6749
18.3144
19.0415
19.878
20.8554
22.0152
23.433
25.1856
27.5495
30.552
36.0163
42.1221
67.0671
6.99704
6.99981
7.00665
7.01697
7.03022
7.04616
7.06473
7.08582
7.10931
7.13511
7.16312
7.19328
7.22551
7.25977
7.296
7.33417
7.37425
7.4162
7.46
7.50563
7.55309
7.60236
7.65343
7.70631
7.76101
7.81751
7.87585
7.93602
7.99804
8.06194
8.12773
8.19544
8.2651
8.33675
8.41041
8.48612
8.56393
8.64388
8.72603
8.81041
8.8971
8.98615
9.07762
9.17159
9.26813
9.36732
9.46925
9.57401
9.68169
9.7924
9.90625
10.0234
10.1439
10.2679
10.3956
10.5271
10.6626
10.8023
10.9464
11.095
11.2485
11.407
11.5708
11.7403
11.9157
12.0973
12.2856
12.4809
12.6837
12.8944
13.1137
13.3421
13.5771
13.8215
14.0823
14.3616
14.662
14.9861
15.3372
15.7193
16.1373
16.5972
17.1065
17.6747
18.3141
19.0411
19.8774
20.8547
22.0142
23.4315
25.1834
27.5456
30.546
35.9917
42.0737
66.3255
6.99704
6.99981
7.00665
7.01697
7.03022
7.04616
7.06473
7.08582
7.10931
7.13511
7.16312
7.19328
7.22551
7.25977
7.296
7.33417
7.37425
7.4162
7.46
7.50563
7.55309
7.60236
7.65343
7.70631
7.76101
7.81751
7.87585
7.93602
7.99804
8.06194
8.12773
8.19544
8.2651
8.33675
8.4104
8.48612
8.56393
8.64388
8.72602
8.81041
8.8971
8.98614
9.07762
9.17159
9.26813
9.36732
9.46925
9.574
9.68168
9.79239
9.90624
10.0234
10.1438
10.2679
10.3956
10.5271
10.6626
10.8023
10.9464
11.095
11.2485
11.407
11.5708
11.7403
11.9157
12.0973
12.2856
12.4809
12.6837
12.8944
13.1137
13.342
13.5771
13.8214
14.0822
14.3616
14.6619
14.986
15.3371
15.7192
16.1372
16.597
17.1062
17.6744
18.3137
19.0406
19.8768
20.8539
22.0131
23.4299
25.1811
27.5412
30.5394
35.9648
42.0212
65.5854
6.99704
6.99981
7.00665
7.01697
7.03022
7.04616
7.06473
7.08582
7.10931
7.13511
7.16312
7.19328
7.22551
7.25977
7.296
7.33417
7.37425
7.41619
7.46
7.50563
7.55309
7.60235
7.65343
7.70631
7.76101
7.81751
7.87584
7.93601
7.99804
8.06193
8.12773
8.19544
8.2651
8.33674
8.4104
8.48612
8.56393
8.64388
8.72602
8.81041
8.89709
8.98614
9.07761
9.17158
9.26812
9.36731
9.46924
9.574
9.68168
9.79238
9.90623
10.0233
10.1438
10.2679
10.3955
10.5271
10.6626
10.8023
10.9463
11.095
11.2485
11.407
11.5708
11.7403
11.9156
12.0973
12.2855
12.4808
12.6836
12.8944
13.1136
13.342
13.577
13.8214
14.0822
14.3615
14.6618
14.9858
15.3369
15.719
16.137
16.5968
17.106
17.674
18.3133
19.0401
19.8762
20.853
22.0119
23.4281
25.1785
27.5364
30.532
35.9354
41.9644
64.847
6.99704
6.99981
7.00665
7.01697
7.03021
7.04616
7.06473
7.08582
7.10931
7.13511
7.16312
7.19328
7.22551
7.25977
7.296
7.33417
7.37425
7.41619
7.45999
7.50563
7.55309
7.60235
7.65343
7.70631
7.761
7.81751
7.87584
7.93601
7.99804
8.06193
8.12773
8.19544
8.2651
8.33674
8.4104
8.48611
8.56392
8.64388
8.72602
8.8104
8.89709
8.98614
9.07761
9.17158
9.26812
9.36731
9.46924
9.57399
9.68167
9.79238
9.90623
10.0233
10.1438
10.2678
10.3955
10.5271
10.6626
10.8023
10.9463
11.095
11.2484
11.4069
11.5708
11.7402
11.9156
12.0972
12.2855
12.4808
12.6836
12.8943
13.1136
13.3419
13.5769
13.8213
14.0821
14.3614
14.6617
14.9857
15.3368
15.7189
16.1368
16.5966
17.1057
17.6737
18.3129
19.0395
19.8755
20.852
22.0106
23.4262
25.1756
27.5311
30.5238
35.9037
41.9034
64.1105
6.99704
6.99981
7.00665
7.01697
7.03021
7.04616
7.06472
7.08582
7.10931
7.13511
7.16312
7.19328
7.22551
7.25977
7.296
7.33417
7.37424
7.41619
7.45999
7.50563
7.55308
7.60235
7.65343
7.70631
7.761
7.81751
7.87584
7.93601
7.99804
8.06193
8.12772
8.19544
8.2651
8.33674
8.4104
8.48611
8.56392
8.64387
8.72601
8.8104
8.89709
8.98613
9.07761
9.17157
9.26811
9.3673
9.46923
9.57398
9.68166
9.79237
9.90622
10.0233
10.1438
10.2678
10.3955
10.527
10.6626
10.8022
10.9463
11.095
11.2484
11.4069
11.5708
11.7402
11.9156
12.0972
12.2854
12.4807
12.6835
12.8943
13.1135
13.3418
13.5768
13.8212
14.082
14.3613
14.6615
14.9856
15.3366
15.7187
16.1366
16.5963
17.1054
17.6733
18.3124
19.0389
19.8747
20.851
22.0092
23.4241
25.1725
27.5253
30.5149
35.8694
41.8379
63.3762
6.99704
6.9998
7.00665
7.01697
7.03021
7.04616
7.06472
7.08581
7.10931
7.13511
7.16312
7.19327
7.22551
7.25977
7.296
7.33417
7.37424
7.41619
7.45999
7.50563
7.55308
7.60235
7.65343
7.70631
7.761
7.81751
7.87584
7.93601
7.99803
8.06193
8.12772
8.19543
8.26509
8.33674
8.4104
8.48611
8.56392
8.64387
8.72601
8.8104
8.89708
8.98613
9.0776
9.17157
9.26811
9.3673
9.46922
9.57398
9.68165
9.79236
9.90621
10.0233
10.1438
10.2678
10.3955
10.527
10.6625
10.8022
10.9463
11.0949
11.2484
11.4069
11.5707
11.7402
11.9155
12.0971
12.2854
12.4807
12.6835
12.8942
13.1134
13.3417
13.5768
13.8211
14.0819
14.3611
14.6614
14.9854
15.3364
15.7184
16.1363
16.596
17.105
17.6729
18.3118
19.0382
19.8738
20.8498
22.0076
23.4217
25.169
27.519
30.5051
35.8326
41.7678
62.6443
6.99704
6.9998
7.00665
7.01697
7.03021
7.04616
7.06472
7.08581
7.10931
7.13511
7.16312
7.19327
7.22551
7.25976
7.296
7.33417
7.37424
7.41619
7.45999
7.50563
7.55308
7.60235
7.65343
7.70631
7.761
7.81751
7.87584
7.93601
7.99803
8.06193
8.12772
8.19543
8.26509
8.33673
8.41039
8.48611
8.56391
8.64387
8.72601
8.81039
8.89708
8.98612
9.07759
9.17156
9.2681
9.36729
9.46922
9.57397
9.68164
9.79235
9.9062
10.0233
10.1438
10.2678
10.3955
10.527
10.6625
10.8022
10.9463
11.0949
11.2484
11.4069
11.5707
11.7401
11.9155
12.0971
12.2854
12.4806
12.6834
12.8941
13.1134
13.3417
13.5767
13.821
14.0817
14.361
14.6612
14.9852
15.3362
15.7182
16.136
16.5957
17.1046
17.6724
18.3113
19.0375
19.8728
20.8485
22.0058
23.4192
25.1653
27.5121
30.4945
35.7933
41.6932
61.9153
6.99704
6.9998
7.00665
7.01697
7.03021
7.04616
7.06472
7.08581
7.10931
7.13511
7.16312
7.19327
7.22551
7.25976
7.296
7.33417
7.37424
7.41619
7.45999
7.50563
7.55308
7.60235
7.65343
7.70631
7.761
7.81751
7.87584
7.93601
7.99803
8.06193
8.12772
8.19543
8.26509
8.33673
8.41039
8.4861
8.56391
8.64386
8.726
8.81039
8.89707
8.98612
9.07759
9.17156
9.26809
9.36728
9.46921
9.57396
9.68164
9.79234
9.90619
10.0233
10.1438
10.2678
10.3955
10.527
10.6625
10.8022
10.9462
11.0949
11.2483
11.4068
11.5707
11.7401
11.9154
12.0971
12.2853
12.4806
12.6833
12.8941
13.1133
13.3416
13.5766
13.8209
14.0816
14.3609
14.6611
14.9851
15.336
15.718
16.1357
16.5953
17.1042
17.6719
18.3106
19.0367
19.8718
20.8472
22.004
23.4164
25.1613
27.5047
30.4829
35.7513
41.614
61.1892
6.99704
6.9998
7.00664
7.01697
7.03021
7.04616
7.06472
7.08581
7.10931
7.13511
7.16312
7.19327
7.22551
7.25976
7.296
7.33417
7.37424
7.41619
7.45999
7.50562
7.55308
7.60235
7.65342
7.70631
7.761
7.8175
7.87584
7.93601
7.99803
8.06192
8.12771
8.19543
8.26509
8.33673
8.41039
8.4861
8.56391
8.64386
8.726
8.81038
8.89707
8.98611
9.07758
9.17155
9.26809
9.36728
9.4692
9.57395
9.68162
9.79233
9.90617
10.0233
10.1438
10.2678
10.3955
10.527
10.6625
10.8022
10.9462
11.0949
11.2483
11.4068
11.5706
11.7401
11.9154
12.097
12.2852
12.4805
12.6833
12.894
13.1132
13.3415
13.5765
13.8208
14.0815
14.3607
14.6609
14.9849
15.3358
15.7177
16.1354
16.595
17.1038
17.6713
18.3099
19.0359
19.8707
20.8457
22.0019
23.4135
25.1569
27.4967
30.4704
35.7067
41.5299
60.4663
6.99704
6.9998
7.00664
7.01697
7.03021
7.04616
7.06472
7.08581
7.10931
7.13511
7.16312
7.19327
7.22551
7.25976
7.296
7.33417
7.37424
7.41619
7.45999
7.50562
7.55308
7.60235
7.65342
7.7063
7.761
7.8175
7.87583
7.936
7.99803
8.06192
8.12771
8.19542
8.26508
8.33672
8.41038
8.48609
8.5639
8.64385
8.72599
8.81038
8.89706
8.98611
9.07758
9.17154
9.26808
9.36727
9.46919
9.57394
9.68161
9.79232
9.90616
10.0233
10.1438
10.2678
10.3954
10.527
10.6625
10.8021
10.9462
11.0948
11.2483
11.4068
11.5706
11.74
11.9154
12.097
12.2852
12.4805
12.6832
12.8939
13.1131
13.3414
13.5763
13.8207
14.0813
14.3605
14.6607
14.9846
15.3355
15.7174
16.1351
16.5945
17.1033
17.6707
18.3092
19.0349
19.8695
20.8441
21.9998
23.4103
25.1522
27.4881
30.4569
35.6594
41.4411
59.7469
6.99704
6.9998
7.00664
7.01697
7.03021
7.04616
7.06472
7.08581
7.10931
7.13511
7.16312
7.19327
7.2255
7.25976
7.296
7.33417
7.37424
7.41619
7.45999
7.50562
7.55308
7.60235
7.65342
7.7063
7.76099
7.8175
7.87583
7.936
7.99802
8.06192
8.12771
8.19542
8.26508
8.33672
8.41038
8.48609
8.5639
8.64385
8.72599
8.81037
8.89705
8.9861
9.07757
9.17153
9.26807
9.36726
9.46918
9.57393
9.6816
9.7923
9.90615
10.0232
10.1437
10.2677
10.3954
10.5269
10.6624
10.8021
10.9462
11.0948
11.2482
11.4067
11.5705
11.74
11.9153
12.0969
12.2851
12.4804
12.6831
12.8938
13.113
13.3413
13.5762
13.8205
14.0812
14.3604
14.6605
14.9844
15.3353
15.7171
16.1347
16.5941
17.1027
17.6701
18.3084
19.0339
19.8682
20.8424
21.9974
23.4068
25.1471
27.4788
30.4423
35.6094
41.3473
59.0312
6.99704
6.9998
7.00664
7.01697
7.03021
7.04615
7.06472
7.08581
7.10931
7.13511
7.16312
7.19327
7.2255
7.25976
7.29599
7.33417
7.37424
7.41619
7.45999
7.50562
7.55308
7.60234
7.65342
7.7063
7.76099
7.8175
7.87583
7.936
7.99802
8.06192
8.12771
8.19542
8.26508
8.33672
8.41037
8.48609
8.56389
8.64384
8.72598
8.81037
8.89705
8.98609
9.07756
9.17153
9.26806
9.36725
9.46917
9.57392
9.68159
9.79229
9.90613
10.0232
10.1437
10.2677
10.3954
10.5269
10.6624
10.8021
10.9461
11.0948
11.2482
11.4067
11.5705
11.7399
11.9152
12.0968
12.2851
12.4803
12.683
12.8937
13.1129
13.3411
13.5761
13.8204
14.081
14.3602
14.6603
14.9842
15.335
15.7168
16.1343
16.5936
17.1022
17.6694
18.3076
19.0329
19.8668
20.8405
21.9949
23.4032
25.1417
27.469
30.4267
35.5567
41.2486
58.3195
6.99704
6.9998
7.00664
7.01697
7.03021
7.04615
7.06472
7.08581
7.10931
7.1351
7.16312
7.19327
7.2255
7.25976
7.29599
7.33416
7.37424
7.41618
7.45998
7.50562
7.55307
7.60234
7.65342
7.7063
7.76099
7.8175
7.87583
7.936
7.99802
8.06191
8.1277
8.19541
8.26507
8.33671
8.41037
8.48608
8.56389
8.64384
8.72598
8.81036
8.89704
8.98608
9.07755
9.17152
9.26805
9.36724
9.46916
9.5739
9.68157
9.79227
9.90611
10.0232
10.1437
10.2677
10.3954
10.5269
10.6624
10.8021
10.9461
11.0947
11.2482
11.4066
11.5704
11.7399
11.9152
12.0968
12.285
12.4802
12.6829
12.8936
13.1128
13.341
13.5759
13.8202
14.0808
14.36
14.6601
14.9839
15.3347
15.7164
16.1339
16.5931
17.1016
17.6687
18.3067
19.0317
19.8653
20.8386
21.9922
23.3992
25.1358
27.4584
30.4099
35.5011
41.1449
57.612
6.99704
6.9998
7.00664
7.01697
7.03021
7.04615
7.06472
7.08581
7.10931
7.1351
7.16311
7.19327
7.2255
7.25976
7.29599
7.33416
7.37424
7.41618
7.45998
7.50562
7.55307
7.60234
7.65342
7.7063
7.76099
7.81749
7.87582
7.93599
7.99801
8.06191
8.1277
8.19541
8.26507
8.33671
8.41037
8.48608
8.56388
8.64383
8.72597
8.81035
8.89703
8.98608
9.07754
9.17151
9.26804
9.36722
9.46914
9.57389
9.68156
9.79226
9.9061
10.0232
10.1437
10.2677
10.3954
10.5269
10.6623
10.802
10.9461
11.0947
11.2481
11.4066
11.5704
11.7398
11.9151
12.0967
12.2849
12.4801
12.6828
12.8935
13.1127
13.3409
13.5758
13.82
14.0806
14.3598
14.6598
14.9836
15.3343
15.716
16.1334
16.5926
17.1009
17.6679
18.3057
19.0305
19.8637
20.8364
21.9893
23.395
25.1296
27.4471
30.3919
35.4427
41.0362
56.9089
6.99703
6.9998
7.00664
7.01697
7.03021
7.04615
7.06472
7.08581
7.10931
7.1351
7.16311
7.19327
7.2255
7.25976
7.29599
7.33416
7.37423
7.41618
7.45998
7.50562
7.55307
7.60234
7.65341
7.70629
7.76098
7.81749
7.87582
7.93599
7.99801
8.06191
8.1277
8.19541
8.26506
8.3367
8.41036
8.48607
8.56388
8.64382
8.72596
8.81034
8.89702
8.98607
9.07753
9.1715
9.26803
9.36721
9.46913
9.57388
9.68154
9.79224
9.90608
10.0232
10.1437
10.2677
10.3953
10.5268
10.6623
10.802
10.946
11.0946
11.2481
11.4065
11.5703
11.7397
11.915
12.0966
12.2848
12.48
12.6827
12.8934
13.1125
13.3407
13.5756
13.8198
14.0804
14.3595
14.6596
14.9833
15.334
15.7156
16.133
16.592
17.1002
17.667
18.3046
19.0292
19.862
20.8342
21.9862
23.3905
25.1229
27.4351
30.3727
35.3815
40.9223
56.2104
6.99703
6.9998
7.00664
7.01697
7.03021
7.04615
7.06472
7.08581
7.1093
7.1351
7.16311
7.19327
7.2255
7.25976
7.29599
7.33416
7.37423
7.41618
7.45998
7.50561
7.55307
7.60234
7.65341
7.70629
7.76098
7.81749
7.87582
7.93599
7.99801
8.0619
8.12769
8.1954
8.26506
8.3367
8.41035
8.48606
8.56387
8.64382
8.72596
8.81034
8.89702
8.98606
9.07752
9.17149
9.26802
9.3672
9.46912
9.57386
9.68153
9.79222
9.90606
10.0231
10.1436
10.2676
10.3953
10.5268
10.6623
10.8019
10.946
11.0946
11.248
11.4065
11.5703
11.7397
11.915
12.0965
12.2847
12.4799
12.6826
12.8933
13.1124
13.3406
13.5755
13.8197
14.0802
14.3593
14.6593
14.983
15.3336
15.7152
16.1324
16.5914
17.0995
17.6661
18.3035
19.0277
19.8602
20.8318
21.9829
23.3857
25.1158
27.4223
30.3523
35.3174
40.8034
55.5168
6.99703
6.9998
7.00664
7.01696
7.03021
7.04615
7.06472
7.08581
7.1093
7.1351
7.16311
7.19326
7.2255
7.25975
7.29599
7.33416
7.37423
7.41618
7.45998
7.50561
7.55307
7.60233
7.65341
7.70629
7.76098
7.81748
7.87582
7.93598
7.998
8.0619
8.12769
8.1954
8.26505
8.33669
8.41035
8.48606
8.56386
8.64381
8.72595
8.81033
8.89701
8.98605
9.07751
9.17147
9.268
9.36719
9.4691
9.57384
9.68151
9.7922
9.90604
10.0231
10.1436
10.2676
10.3953
10.5268
10.6622
10.8019
10.9459
11.0945
11.248
11.4064
11.5702
11.7396
11.9149
12.0964
12.2846
12.4798
12.6825
12.8931
13.1122
13.3404
13.5753
13.8194
14.08
14.359
14.659
14.9826
15.3332
15.7147
16.1319
16.5908
17.0987
17.6652
18.3023
19.0263
19.8583
20.8292
21.9794
23.3805
25.1083
27.4088
30.3305
35.2504
40.6792
54.8283
6.99703
6.9998
7.00664
7.01696
7.03021
7.04615
7.06472
7.08581
7.1093
7.1351
7.16311
7.19326
7.2255
7.25975
7.29599
7.33416
7.37423
7.41618
7.45998
7.50561
7.55306
7.60233
7.65341
7.70629
7.76098
7.81748
7.87581
7.93598
7.998
8.06189
8.12768
8.19539
8.26505
8.33669
8.41034
8.48605
8.56386
8.6438
8.72594
8.81032
8.897
8.98604
9.0775
9.17146
9.26799
9.36717
9.46908
9.57383
9.68149
9.79218
9.90601
10.0231
10.1436
10.2676
10.3952
10.5267
10.6622
10.8019
10.9459
11.0945
11.2479
11.4064
11.5701
11.7395
11.9148
12.0964
12.2845
12.4797
12.6824
12.893
13.1121
13.3402
13.5751
13.8192
14.0797
14.3587
14.6586
14.9822
15.3328
15.7142
16.1313
16.5901
17.0979
17.6642
18.3011
19.0247
19.8563
20.8265
21.9756
23.3751
25.1002
27.3944
30.3073
35.1804
40.5498
54.145
6.99703
6.9998
7.00664
7.01696
7.0302
7.04615
7.06471
7.0858
7.1093
7.1351
7.16311
7.19326
7.22549
7.25975
7.29599
7.33416
7.37423
7.41617
7.45997
7.50561
7.55306
7.60233
7.6534
7.70628
7.76097
7.81748
7.87581
7.93598
7.998
8.06189
8.12768
8.19539
8.26504
8.33668
8.41034
8.48604
8.56385
8.64379
8.72593
8.81031
8.89699
8.98602
9.07749
9.17145
9.26798
9.36715
9.46907
9.57381
9.68147
9.79216
9.90599
10.0231
10.1435
10.2675
10.3952
10.5267
10.6622
10.8018
10.9458
11.0944
11.2478
11.4063
11.5701
11.7394
11.9147
12.0963
12.2844
12.4796
12.6822
12.8928
13.1119
13.34
13.5749
13.819
14.0795
14.3584
14.6583
14.9819
15.3323
15.7137
16.1307
16.5893
17.097
17.6631
18.2997
19.023
19.8541
20.8236
21.9717
23.3693
25.0917
27.3792
30.2827
35.1074
40.4153
53.4672
6.99703
6.9998
7.00664
7.01696
7.0302
7.04615
7.06471
7.0858
7.1093
7.1351
7.16311
7.19326
7.22549
7.25975
7.29598
7.33415
7.37423
7.41617
7.45997
7.5056
7.55306
7.60233
7.6534
7.70628
7.76097
7.81747
7.8758
7.93597
7.99799
8.06188
8.12767
8.19538
8.26504
8.33668
8.41033
8.48604
8.56384
8.64379
8.72592
8.8103
8.89697
8.98601
9.07747
9.17143
9.26796
9.36714
9.46905
9.57379
9.68145
9.79214
9.90596
10.023
10.1435
10.2675
10.3952
10.5266
10.6621
10.8018
10.9458
11.0944
11.2478
11.4062
11.57
11.7394
11.9146
12.0962
12.2843
12.4795
12.6821
12.8927
13.1117
13.3398
13.5746
13.8187
14.0792
14.3581
14.6579
14.9814
15.3318
15.7131
16.13
16.5885
17.096
17.6619
18.2983
19.0212
19.8517
20.8205
21.9675
23.3632
25.0826
27.3632
30.2566
35.0315
40.2755
52.7951
6.99703
6.9998
7.00663
7.01696
7.0302
7.04615
7.06471
7.0858
7.1093
7.13509
7.16311
7.19326
7.22549
7.25975
7.29598
7.33415
7.37422
7.41617
7.45997
7.5056
7.55306
7.60232
7.6534
7.70628
7.76097
7.81747
7.8758
7.93597
7.99799
8.06188
8.12767
8.19537
8.26503
8.33667
8.41032
8.48603
8.56383
8.64378
8.72591
8.81029
8.89696
8.986
9.07746
9.17142
9.26794
9.36712
9.46903
9.57377
9.68142
9.79211
9.90593
10.023
10.1435
10.2675
10.3951
10.5266
10.6621
10.8017
10.9457
11.0943
11.2477
11.4062
11.5699
11.7393
11.9145
12.096
12.2842
12.4793
12.6819
12.8925
13.1115
13.3396
13.5744
13.8185
14.0789
14.3578
14.6575
14.981
15.3313
15.7125
16.1293
16.5877
17.095
17.6607
18.2968
19.0193
19.8493
20.8172
21.963
23.3567
25.073
27.3462
30.229
34.9526
40.1304
52.1288
6.99703
6.99979
7.00663
7.01696
7.0302
7.04615
7.06471
7.0858
7.1093
7.13509
7.1631
7.19326
7.22549
7.25975
7.29598
7.33415
7.37422
7.41617
7.45997
7.5056
7.55305
7.60232
7.65339
7.70627
7.76096
7.81747
7.8758
7.93596
7.99798
8.06187
8.12766
8.19537
8.26502
8.33666
8.41031
8.48602
8.56382
8.64377
8.7259
8.81028
8.89695
8.98599
9.07745
9.1714
9.26793
9.3671
9.46901
9.57374
9.6814
9.79208
9.90591
10.023
10.1434
10.2674
10.3951
10.5266
10.662
10.8017
10.9457
11.0943
11.2476
11.4061
11.5698
11.7392
11.9144
12.0959
12.284
12.4792
12.6818
12.8923
13.1113
13.3394
13.5741
13.8182
14.0786
14.3574
14.6571
14.9805
15.3308
15.7119
16.1286
16.5868
17.094
17.6594
18.2952
19.0172
19.8467
20.8137
21.9583
23.3498
25.0629
27.3283
30.1999
34.8706
39.9802
51.4684
6.99703
6.99979
7.00663
7.01696
7.0302
7.04614
7.06471
7.0858
7.1093
7.13509
7.1631
7.19326
7.22549
7.25974
7.29598
7.33415
7.37422
7.41617
7.45996
7.5056
7.55305
7.60232
7.65339
7.70627
7.76096
7.81746
7.87579
7.93596
7.99798
8.06187
8.12765
8.19536
8.26502
8.33665
8.41031
8.48601
8.56381
8.64376
8.72589
8.81026
8.89694
8.98597
9.07743
9.17138
9.26791
9.36708
9.46899
9.57372
9.68137
9.79206
9.90587
10.023
10.1434
10.2674
10.395
10.5265
10.662
10.8016
10.9456
11.0942
11.2476
11.406
11.5697
11.7391
11.9143
12.0958
12.2839
12.479
12.6816
12.8921
13.1111
13.3392
13.5739
13.8179
14.0782
14.357
14.6567
14.98
15.3302
15.7112
16.1278
16.5859
17.0929
17.6581
18.2935
19.0151
19.8439
20.8101
21.9533
23.3426
25.0522
27.3094
30.1691
34.7855
39.8247
50.8142
6.99702
6.99979
7.00663
7.01696
7.0302
7.04614
7.06471
7.0858
7.10929
7.13509
7.1631
7.19325
7.22549
7.25974
7.29598
7.33414
7.37422
7.41616
7.45996
7.50559
7.55305
7.60231
7.65339
7.70627
7.76095
7.81746
7.87579
7.93595
7.99797
8.06186
8.12765
8.19535
8.26501
8.33665
8.4103
8.486
8.5638
8.64374
8.72588
8.81025
8.89692
8.98596
9.07741
9.17137
9.26789
9.36706
9.46896
9.57369
9.68135
9.79203
9.90584
10.0229
10.1434
10.2673
10.395
10.5265
10.6619
10.8015
10.9455
11.0941
11.2475
11.4059
11.5696
11.739
11.9142
12.0957
12.2838
12.4789
12.6814
12.8919
13.1109
13.3389
13.5736
13.8176
14.0779
14.3566
14.6562
14.9795
15.3296
15.7105
16.127
16.5849
17.0917
17.6566
18.2917
19.0128
19.841
20.8062
21.948
23.3349
25.0408
27.2896
30.1366
34.6974
39.664
50.1664
6.99702
6.99979
7.00663
7.01696
7.0302
7.04614
7.06471
7.0858
7.10929
7.13509
7.1631
7.19325
7.22548
7.25974
7.29597
7.33414
7.37421
7.41616
7.45996
7.50559
7.55304
7.60231
7.65338
7.70626
7.76095
7.81745
7.87578
7.93595
7.99796
8.06186
8.12764
8.19535
8.265
8.33664
8.41029
8.48599
8.56379
8.64373
8.72586
8.81024
8.89691
8.98594
9.0774
9.17135
9.26787
9.36704
9.46894
9.57367
9.68132
9.79199
9.90581
10.0229
10.1433
10.2673
10.3949
10.5264
10.6619
10.8015
10.9455
11.094
11.2474
11.4058
11.5695
11.7388
11.9141
12.0955
12.2836
12.4787
12.6812
12.8917
13.1107
13.3387
13.5733
13.8172
14.0775
14.3562
14.6558
14.9789
15.329
15.7097
16.1261
16.5838
17.0904
17.6551
18.2898
19.0105
19.8379
20.8021
21.9424
23.3268
25.0288
27.2687
30.1023
34.6062
39.4982
49.5249
6.99702
6.99979
7.00663
7.01695
7.0302
7.04614
7.0647
7.08579
7.10929
7.13509
7.1631
7.19325
7.22548
7.25974
7.29597
7.33414
7.37421
7.41616
7.45996
7.50559
7.55304
7.60231
7.65338
7.70626
7.76095
7.81745
7.87578
7.93594
7.99796
8.06185
8.12763
8.19534
8.26499
8.33663
8.41028
8.48598
8.56378
8.64372
8.72585
8.81022
8.89689
8.98592
9.07738
9.17133
9.26785
9.36701
9.46891
9.57364
9.68129
9.79196
9.90577
10.0228
10.1433
10.2673
10.3949
10.5263
10.6618
10.8014
10.9454
11.0939
11.2473
11.4057
11.5694
11.7387
11.9139
12.0954
12.2834
12.4785
12.681
12.8915
13.1104
13.3384
13.573
13.8169
14.0771
14.3557
14.6552
14.9783
15.3283
15.709
16.1251
16.5827
17.0891
17.6535
18.2878
19.0079
19.8347
20.7978
21.9365
23.3183
25.0162
27.2467
30.0663
34.5119
39.3272
48.8901
6.99702
6.99979
7.00663
7.01695
7.03019
7.04614
7.0647
7.08579
7.10929
7.13508
7.16309
7.19325
7.22548
7.25974
7.29597
7.33414
7.37421
7.41615
7.45995
7.50558
7.55304
7.6023
7.65337
7.70625
7.76094
7.81744
7.87577
7.93593
7.99795
8.06184
8.12763
8.19533
8.26498
8.33662
8.41027
8.48597
8.56377
8.64371
8.72584
8.81021
8.89688
8.9859
9.07736
9.17131
9.26782
9.36699
9.46889
9.57361
9.68125
9.79193
9.90573
10.0228
10.1432
10.2672