/*--------------------------------*- C++ -*----------------------------------*\
| =========                 |                                                 |
| \\      /  F ield         | OpenFOAM: The Open Source CFD Toolbox           |
|  \\    /   O peration     | Version:  v2012                                 |
|   \\  /    A nd           | Website:  www.openfoam.com                      |
|    \\/     M anipulation  |                                                 |
\*---------------------------------------------------------------------------*/
FoamFile
{
    version     2.0;
    format      ascii;
    class       volVectorField;
    location    "46";
    object      wallShearStress;
}
// * * * * * * * * * * * * * * * * * * * * * * * * * * * * * * * * * * * * * //

dimensions      [0 2 -2 0 0 0 0];


internalField   uniform (0 0 0);

boundaryField
{
    inlet
    {
        type            calculated;
        value           uniform (0 0 0);
    }
    outlet
    {
        type            calculated;
        value           uniform (0 0 0);
    }
    topWall
    {
        type            calculated;
        value           nonuniform List<vector> 
545
(
(1.48723e-08 -1.04688e-08 0)
(1.48655e-08 -2.92878e-08 0)
(1.48517e-08 -4.88552e-08 0)
(1.48313e-08 -6.78487e-08 0)
(1.48051e-08 -8.60211e-08 0)
(1.47738e-08 -1.03604e-07 0)
(1.47379e-08 -1.20745e-07 0)
(1.46977e-08 -1.37435e-07 0)
(1.46535e-08 -1.53636e-07 0)
(1.46058e-08 -1.69346e-07 0)
(1.45549e-08 -1.84587e-07 0)
(1.45012e-08 -1.99375e-07 0)
(1.44449e-08 -2.13721e-07 0)
(1.43865e-08 -2.27632e-07 0)
(1.4326e-08 -2.41121e-07 0)
(1.42639e-08 -2.54198e-07 0)
(1.42003e-08 -2.66874e-07 0)
(1.41354e-08 -2.7916e-07 0)
(1.40695e-08 -2.91067e-07 0)
(1.40028e-08 -3.02605e-07 0)
(1.39353e-08 -3.13785e-07 0)
(1.38674e-08 -3.24618e-07 0)
(1.3799e-08 -3.35113e-07 0)
(1.37305e-08 -3.45281e-07 0)
(1.36618e-08 -3.55132e-07 0)
(1.35932e-08 -3.64675e-07 0)
(1.35246e-08 -3.73919e-07 0)
(1.34563e-08 -3.82874e-07 0)
(1.33883e-08 -3.91549e-07 0)
(1.33207e-08 -3.99953e-07 0)
(1.32536e-08 -4.08094e-07 0)
(1.3187e-08 -4.1598e-07 0)
(1.3121e-08 -4.23619e-07 0)
(1.30557e-08 -4.31021e-07 0)
(1.2991e-08 -4.38191e-07 0)
(1.29271e-08 -4.45137e-07 0)
(1.2864e-08 -4.51868e-07 0)
(1.28017e-08 -4.58389e-07 0)
(1.27403e-08 -4.64707e-07 0)
(1.26797e-08 -4.7083e-07 0)
(1.262e-08 -4.76762e-07 0)
(1.25612e-08 -4.82512e-07 0)
(1.25034e-08 -4.88084e-07 0)
(1.24465e-08 -4.93484e-07 0)
(1.23906e-08 -4.98718e-07 0)
(1.23356e-08 -5.03791e-07 0)
(1.22816e-08 -5.08708e-07 0)
(1.22286e-08 -5.13475e-07 0)
(1.21766e-08 -5.18097e-07 0)
(1.21255e-08 -5.22578e-07 0)
(1.20754e-08 -5.26922e-07 0)
(1.20263e-08 -5.31135e-07 0)
(1.19781e-08 -5.35219e-07 0)
(1.19309e-08 -5.39181e-07 0)
(1.18847e-08 -5.43022e-07 0)
(1.18394e-08 -5.46749e-07 0)
(1.17951e-08 -5.50363e-07 0)
(1.17516e-08 -5.53869e-07 0)
(1.17091e-08 -5.5727e-07 0)
(1.16675e-08 -5.60569e-07 0)
(1.16268e-08 -5.6377e-07 0)
(1.1587e-08 -5.66876e-07 0)
(1.15481e-08 -5.6989e-07 0)
(1.151e-08 -5.72814e-07 0)
(1.14728e-08 -5.75652e-07 0)
(1.14364e-08 -5.78407e-07 0)
(1.14008e-08 -5.8108e-07 0)
(1.13661e-08 -5.83675e-07 0)
(1.13321e-08 -5.86194e-07 0)
(1.12989e-08 -5.88639e-07 0)
(1.12665e-08 -5.91013e-07 0)
(1.1235e-08 -5.93314e-07 0)
(1.12045e-08 -5.95527e-07 0)
(1.11744e-08 -5.9767e-07 0)
(1.11447e-08 -5.99788e-07 0)
(1.1115e-08 -6.01893e-07 0)
(1.10855e-08 -6.03987e-07 0)
(1.1056e-08 -6.06065e-07 0)
(1.10265e-08 -6.08128e-07 0)
(1.09972e-08 -6.10176e-07 0)
(1.09678e-08 -6.12208e-07 0)
(1.09386e-08 -6.14226e-07 0)
(1.09094e-08 -6.1623e-07 0)
(1.08802e-08 -6.18219e-07 0)
(1.08511e-08 -6.20194e-07 0)
(1.08221e-08 -6.22154e-07 0)
(1.07932e-08 -6.241e-07 0)
(1.07643e-08 -6.26033e-07 0)
(1.07354e-08 -6.27951e-07 0)
(1.07067e-08 -6.29855e-07 0)
(1.0678e-08 -6.31746e-07 0)
(1.06494e-08 -6.33622e-07 0)
(1.06208e-08 -6.35486e-07 0)
(1.05924e-08 -6.37334e-07 0)
(1.05637e-08 -6.39174e-07 0)
(1.05365e-08 -6.40981e-07 0)
(1.05114e-08 -6.42634e-07 0)
(1.04871e-08 -6.4413e-07 0)
(1.04637e-08 -6.45585e-07 0)
(1.04404e-08 -6.47045e-07 0)
(1.0417e-08 -6.48517e-07 0)
(1.03936e-08 -6.49992e-07 0)
(1.03701e-08 -6.51464e-07 0)
(1.03465e-08 -6.52935e-07 0)
(1.03228e-08 -6.54406e-07 0)
(1.0299e-08 -6.55877e-07 0)
(1.02751e-08 -6.57349e-07 0)
(1.02511e-08 -6.58821e-07 0)
(1.0227e-08 -6.60292e-07 0)
(1.02028e-08 -6.61764e-07 0)
(1.01786e-08 -6.63236e-07 0)
(1.01542e-08 -6.64707e-07 0)
(1.01298e-08 -6.66179e-07 0)
(1.01052e-08 -6.6765e-07 0)
(1.00806e-08 -6.69122e-07 0)
(1.00558e-08 -6.70593e-07 0)
(1.0031e-08 -6.72064e-07 0)
(1.00061e-08 -6.73535e-07 0)
(9.98107e-09 -6.75005e-07 0)
(9.95595e-09 -6.76476e-07 0)
(9.93075e-09 -6.77946e-07 0)
(9.90545e-09 -6.79416e-07 0)
(9.88005e-09 -6.80885e-07 0)
(9.85456e-09 -6.82355e-07 0)
(9.82898e-09 -6.83824e-07 0)
(9.8033e-09 -6.85292e-07 0)
(9.77753e-09 -6.8676e-07 0)
(9.75166e-09 -6.88228e-07 0)
(9.7257e-09 -6.89695e-07 0)
(9.69964e-09 -6.91162e-07 0)
(9.67348e-09 -6.92628e-07 0)
(9.64724e-09 -6.94094e-07 0)
(9.62089e-09 -6.95559e-07 0)
(9.59446e-09 -6.97024e-07 0)
(9.56792e-09 -6.98488e-07 0)
(9.5413e-09 -6.99952e-07 0)
(9.51457e-09 -7.01415e-07 0)
(9.48776e-09 -7.02877e-07 0)
(9.46085e-09 -7.04338e-07 0)
(9.43384e-09 -7.05799e-07 0)
(9.40674e-09 -7.07259e-07 0)
(9.37954e-09 -7.08718e-07 0)
(9.35225e-09 -7.10177e-07 0)
(9.32486e-09 -7.11634e-07 0)
(9.29738e-09 -7.13091e-07 0)
(9.26981e-09 -7.14547e-07 0)
(9.24213e-09 -7.16002e-07 0)
(9.21437e-09 -7.17456e-07 0)
(9.18651e-09 -7.18909e-07 0)
(9.15855e-09 -7.20361e-07 0)
(9.13051e-09 -7.21812e-07 0)
(9.10236e-09 -7.23262e-07 0)
(9.07412e-09 -7.24711e-07 0)
(9.04579e-09 -7.26159e-07 0)
(9.01737e-09 -7.27606e-07 0)
(8.98885e-09 -7.29051e-07 0)
(8.96023e-09 -7.30496e-07 0)
(8.93152e-09 -7.31939e-07 0)
(8.90272e-09 -7.33381e-07 0)
(8.87383e-09 -7.34821e-07 0)
(8.84484e-09 -7.3626e-07 0)
(8.81575e-09 -7.37698e-07 0)
(8.78658e-09 -7.39135e-07 0)
(8.75731e-09 -7.4057e-07 0)
(8.72794e-09 -7.42004e-07 0)
(8.69849e-09 -7.43436e-07 0)
(8.66894e-09 -7.44867e-07 0)
(8.6393e-09 -7.46297e-07 0)
(8.60957e-09 -7.47724e-07 0)
(8.57974e-09 -7.49151e-07 0)
(8.54982e-09 -7.50575e-07 0)
(8.51981e-09 -7.51998e-07 0)
(8.48971e-09 -7.53419e-07 0)
(8.45951e-09 -7.54839e-07 0)
(8.42923e-09 -7.56257e-07 0)
(8.39885e-09 -7.57673e-07 0)
(8.36838e-09 -7.59087e-07 0)
(8.33783e-09 -7.605e-07 0)
(8.30718e-09 -7.61911e-07 0)
(8.27644e-09 -7.63319e-07 0)
(8.24561e-09 -7.64726e-07 0)
(8.21469e-09 -7.66131e-07 0)
(8.18368e-09 -7.67534e-07 0)
(8.15258e-09 -7.68935e-07 0)
(8.12139e-09 -7.70334e-07 0)
(8.09011e-09 -7.7173e-07 0)
(8.05875e-09 -7.73125e-07 0)
(8.02729e-09 -7.74517e-07 0)
(7.99575e-09 -7.75908e-07 0)
(7.96412e-09 -7.77296e-07 0)
(7.9324e-09 -7.78682e-07 0)
(7.90059e-09 -7.80065e-07 0)
(7.8687e-09 -7.81446e-07 0)
(7.83672e-09 -7.82825e-07 0)
(7.80466e-09 -7.84202e-07 0)
(7.7725e-09 -7.85576e-07 0)
(7.74027e-09 -7.86947e-07 0)
(7.70794e-09 -7.88316e-07 0)
(7.67554e-09 -7.89683e-07 0)
(7.64304e-09 -7.91047e-07 0)
(7.61047e-09 -7.92408e-07 0)
(7.57781e-09 -7.93767e-07 0)
(7.54506e-09 -7.95123e-07 0)
(7.51223e-09 -7.96477e-07 0)
(7.47932e-09 -7.97828e-07 0)
(7.44633e-09 -7.99175e-07 0)
(7.41326e-09 -8.00521e-07 0)
(7.3801e-09 -8.01863e-07 0)
(7.34686e-09 -8.03202e-07 0)
(7.31354e-09 -8.04539e-07 0)
(7.28015e-09 -8.05872e-07 0)
(7.24667e-09 -8.07203e-07 0)
(7.21311e-09 -8.08531e-07 0)
(7.17947e-09 -8.09855e-07 0)
(7.14576e-09 -8.11177e-07 0)
(7.11196e-09 -8.12495e-07 0)
(7.07809e-09 -8.1381e-07 0)
(7.04414e-09 -8.15122e-07 0)
(7.01012e-09 -8.16431e-07 0)
(6.97602e-09 -8.17736e-07 0)
(6.94184e-09 -8.19038e-07 0)
(6.90759e-09 -8.20337e-07 0)
(6.87327e-09 -8.21632e-07 0)
(6.83887e-09 -8.22924e-07 0)
(6.80439e-09 -8.24213e-07 0)
(6.76985e-09 -8.25498e-07 0)
(6.73523e-09 -8.26779e-07 0)
(6.70054e-09 -8.28057e-07 0)
(6.66578e-09 -8.29331e-07 0)
(6.63095e-09 -8.30602e-07 0)
(6.59604e-09 -8.31869e-07 0)
(6.56107e-09 -8.33132e-07 0)
(6.52603e-09 -8.34391e-07 0)
(6.49092e-09 -8.35647e-07 0)
(6.45575e-09 -8.36899e-07 0)
(6.4205e-09 -8.38147e-07 0)
(6.3852e-09 -8.39391e-07 0)
(6.34982e-09 -8.40631e-07 0)
(6.31438e-09 -8.41867e-07 0)
(6.27888e-09 -8.43099e-07 0)
(6.24331e-09 -8.44327e-07 0)
(6.20768e-09 -8.45551e-07 0)
(6.17198e-09 -8.46771e-07 0)
(6.13623e-09 -8.47986e-07 0)
(6.10041e-09 -8.49198e-07 0)
(6.06454e-09 -8.50405e-07 0)
(6.0286e-09 -8.51607e-07 0)
(5.99261e-09 -8.52806e-07 0)
(5.95656e-09 -8.54e-07 0)
(5.92045e-09 -8.55189e-07 0)
(5.88428e-09 -8.56375e-07 0)
(5.84806e-09 -8.57555e-07 0)
(5.81178e-09 -8.58731e-07 0)
(5.77545e-09 -8.59903e-07 0)
(5.73907e-09 -8.6107e-07 0)
(5.70263e-09 -8.62232e-07 0)
(5.66614e-09 -8.6339e-07 0)
(5.6296e-09 -8.64543e-07 0)
(5.59301e-09 -8.65691e-07 0)
(5.55638e-09 -8.66834e-07 0)
(5.51969e-09 -8.67973e-07 0)
(5.48295e-09 -8.69106e-07 0)
(5.44617e-09 -8.70235e-07 0)
(5.40934e-09 -8.71359e-07 0)
(5.37247e-09 -8.72477e-07 0)
(5.33555e-09 -8.73591e-07 0)
(5.29864e-09 -8.74699e-07 0)
(5.26142e-09 -8.75804e-07 0)
(5.22528e-09 -8.76896e-07 0)
(5.19066e-09 -8.77932e-07 0)
(5.15656e-09 -8.78913e-07 0)
(5.12289e-09 -8.79883e-07 0)
(5.08906e-09 -8.80859e-07 0)
(5.05495e-09 -8.81843e-07 0)
(5.02052e-09 -8.82832e-07 0)
(4.98577e-09 -8.83824e-07 0)
(4.95069e-09 -8.8482e-07 0)
(4.91527e-09 -8.85818e-07 0)
(4.87952e-09 -8.86821e-07 0)
(4.84344e-09 -8.87827e-07 0)
(4.80701e-09 -8.88837e-07 0)
(4.77025e-09 -8.8985e-07 0)
(4.73315e-09 -8.90865e-07 0)
(4.6957e-09 -8.91884e-07 0)
(4.65791e-09 -8.92906e-07 0)
(4.61977e-09 -8.9393e-07 0)
(4.58128e-09 -8.94957e-07 0)
(4.54244e-09 -8.95986e-07 0)
(4.50326e-09 -8.97018e-07 0)
(4.46372e-09 -8.98052e-07 0)
(4.42383e-09 -8.99087e-07 0)
(4.38358e-09 -9.00125e-07 0)
(4.34298e-09 -9.01164e-07 0)
(4.30203e-09 -9.02205e-07 0)
(4.26071e-09 -9.03247e-07 0)
(4.21904e-09 -9.0429e-07 0)
(4.17701e-09 -9.05334e-07 0)
(4.13461e-09 -9.06378e-07 0)
(4.09186e-09 -9.07424e-07 0)
(4.04875e-09 -9.08469e-07 0)
(4.00527e-09 -9.09515e-07 0)
(3.96143e-09 -9.1056e-07 0)
(3.91724e-09 -9.11606e-07 0)
(3.87267e-09 -9.1265e-07 0)
(3.82775e-09 -9.13694e-07 0)
(3.78246e-09 -9.14737e-07 0)
(3.73681e-09 -9.15778e-07 0)
(3.6908e-09 -9.16819e-07 0)
(3.64443e-09 -9.17857e-07 0)
(3.5977e-09 -9.18893e-07 0)
(3.55061e-09 -9.19927e-07 0)
(3.50315e-09 -9.20958e-07 0)
(3.45534e-09 -9.21986e-07 0)
(3.40718e-09 -9.23012e-07 0)
(3.35865e-09 -9.24033e-07 0)
(3.30977e-09 -9.25051e-07 0)
(3.26054e-09 -9.26065e-07 0)
(3.21096e-09 -9.27075e-07 0)
(3.16102e-09 -9.28079e-07 0)
(3.11074e-09 -9.29079e-07 0)
(3.06012e-09 -9.30073e-07 0)
(3.00915e-09 -9.31062e-07 0)
(2.95784e-09 -9.32044e-07 0)
(2.9062e-09 -9.3302e-07 0)
(2.85422e-09 -9.33989e-07 0)
(2.80191e-09 -9.34951e-07 0)
(2.74927e-09 -9.35905e-07 0)
(2.69631e-09 -9.36851e-07 0)
(2.64303e-09 -9.37789e-07 0)
(2.58943e-09 -9.38718e-07 0)
(2.53552e-09 -9.39637e-07 0)
(2.48131e-09 -9.40548e-07 0)
(2.42679e-09 -9.41448e-07 0)
(2.37197e-09 -9.42337e-07 0)
(2.31686e-09 -9.43216e-07 0)
(2.26147e-09 -9.44083e-07 0)
(2.2058e-09 -9.44938e-07 0)
(2.14985e-09 -9.45781e-07 0)
(2.09363e-09 -9.46611e-07 0)
(2.03715e-09 -9.47428e-07 0)
(1.98042e-09 -9.48231e-07 0)
(1.92343e-09 -9.49019e-07 0)
(1.86621e-09 -9.49793e-07 0)
(1.80876e-09 -9.50552e-07 0)
(1.75108e-09 -9.51295e-07 0)
(1.69318e-09 -9.52021e-07 0)
(1.63508e-09 -9.52731e-07 0)
(1.57678e-09 -9.53423e-07 0)
(1.51829e-09 -9.54097e-07 0)
(1.45962e-09 -9.54753e-07 0)
(1.40078e-09 -9.55389e-07 0)
(1.34178e-09 -9.56006e-07 0)
(1.28264e-09 -9.56603e-07 0)
(1.22335e-09 -9.57179e-07 0)
(1.16394e-09 -9.57733e-07 0)
(1.10441e-09 -9.58265e-07 0)
(1.04478e-09 -9.58775e-07 0)
(9.85057e-10 -9.59262e-07 0)
(9.25256e-10 -9.59725e-07 0)
(8.65389e-10 -9.60164e-07 0)
(8.0547e-10 -9.60577e-07 0)
(7.45512e-10 -9.60965e-07 0)
(6.85529e-10 -9.61327e-07 0)
(6.25535e-10 -9.61662e-07 0)
(5.65545e-10 -9.61969e-07 0)
(5.05574e-10 -9.62248e-07 0)
(4.45637e-10 -9.62499e-07 0)
(3.85749e-10 -9.6272e-07 0)
(3.25927e-10 -9.62911e-07 0)
(2.66187e-10 -9.63071e-07 0)
(2.06545e-10 -9.632e-07 0)
(1.47019e-10 -9.63297e-07 0)
(8.76249e-11 -9.63362e-07 0)
(2.83809e-11 -9.63393e-07 0)
(-3.06954e-11 -9.6339e-07 0)
(-8.95859e-11 -9.63353e-07 0)
(-1.48272e-10 -9.63281e-07 0)
(-2.06735e-10 -9.63173e-07 0)
(-2.64957e-10 -9.63029e-07 0)
(-3.22917e-10 -9.62847e-07 0)
(-3.80597e-10 -9.62628e-07 0)
(-4.37977e-10 -9.62371e-07 0)
(-4.95037e-10 -9.62075e-07 0)
(-5.51757e-10 -9.61739e-07 0)
(-6.08116e-10 -9.61363e-07 0)
(-6.64094e-10 -9.60947e-07 0)
(-7.19671e-10 -9.60489e-07 0)
(-7.74826e-10 -9.5999e-07 0)
(-8.29537e-10 -9.59448e-07 0)
(-8.83783e-10 -9.58864e-07 0)
(-9.37544e-10 -9.58235e-07 0)
(-9.90799e-10 -9.57563e-07 0)
(-1.04352e-09 -9.56847e-07 0)
(-1.0957e-09 -9.56085e-07 0)
(-1.14731e-09 -9.55278e-07 0)
(-1.19832e-09 -9.54425e-07 0)
(-1.24872e-09 -9.53525e-07 0)
(-1.29848e-09 -9.52579e-07 0)
(-1.34759e-09 -9.51585e-07 0)
(-1.39602e-09 -9.50543e-07 0)
(-1.44375e-09 -9.49454e-07 0)
(-1.49076e-09 -9.48315e-07 0)
(-1.53703e-09 -9.47128e-07 0)
(-1.58254e-09 -9.45892e-07 0)
(-1.62727e-09 -9.44607e-07 0)
(-1.67119e-09 -9.43271e-07 0)
(-1.7143e-09 -9.41886e-07 0)
(-1.75656e-09 -9.4045e-07 0)
(-1.79796e-09 -9.38963e-07 0)
(-1.83848e-09 -9.37426e-07 0)
(-1.8781e-09 -9.35839e-07 0)
(-1.91681e-09 -9.342e-07 0)
(-1.95458e-09 -9.3251e-07 0)
(-1.99139e-09 -9.30768e-07 0)
(-2.02724e-09 -9.28976e-07 0)
(-2.0621e-09 -9.27132e-07 0)
(-2.09597e-09 -9.25237e-07 0)
(-2.12881e-09 -9.23291e-07 0)
(-2.16062e-09 -9.21293e-07 0)
(-2.19139e-09 -9.19244e-07 0)
(-2.2211e-09 -9.17145e-07 0)
(-2.24973e-09 -9.14994e-07 0)
(-2.27728e-09 -9.12793e-07 0)
(-2.30374e-09 -9.10542e-07 0)
(-2.32909e-09 -9.0824e-07 0)
(-2.35332e-09 -9.05889e-07 0)
(-2.37642e-09 -9.03488e-07 0)
(-2.39839e-09 -9.01038e-07 0)
(-2.41922e-09 -8.98539e-07 0)
(-2.4389e-09 -8.95992e-07 0)
(-2.45742e-09 -8.93397e-07 0)
(-2.47479e-09 -8.90754e-07 0)
(-2.49098e-09 -8.88065e-07 0)
(-2.50601e-09 -8.85329e-07 0)
(-2.51986e-09 -8.82548e-07 0)
(-2.53255e-09 -8.79722e-07 0)
(-2.54405e-09 -8.76851e-07 0)
(-2.55438e-09 -8.73937e-07 0)
(-2.56354e-09 -8.7098e-07 0)
(-2.57153e-09 -8.6798e-07 0)
(-2.57834e-09 -8.6494e-07 0)
(-2.58399e-09 -8.61859e-07 0)
(-2.58847e-09 -8.58739e-07 0)
(-2.5918e-09 -8.55579e-07 0)
(-2.59398e-09 -8.52383e-07 0)
(-2.59501e-09 -8.49149e-07 0)
(-2.5949e-09 -8.45881e-07 0)
(-2.59366e-09 -8.42574e-07 0)
(-2.59134e-09 -8.39242e-07 0)
(-2.58769e-09 -8.35835e-07 0)
(-2.58243e-09 -8.32074e-07 0)
(-2.57555e-09 -8.27956e-07 0)
(-2.56701e-09 -8.23765e-07 0)
(-2.55701e-09 -8.19597e-07 0)
(-2.5457e-09 -8.15471e-07 0)
(-2.53317e-09 -8.11369e-07 0)
(-2.51947e-09 -8.07282e-07 0)
(-2.50468e-09 -8.03216e-07 0)
(-2.48886e-09 -7.99175e-07 0)
(-2.47205e-09 -7.95162e-07 0)
(-2.45434e-09 -7.91177e-07 0)
(-2.43576e-09 -7.87221e-07 0)
(-2.41638e-09 -7.83295e-07 0)
(-2.39624e-09 -7.79402e-07 0)
(-2.37538e-09 -7.75542e-07 0)
(-2.35386e-09 -7.71716e-07 0)
(-2.33172e-09 -7.67926e-07 0)
(-2.309e-09 -7.64172e-07 0)
(-2.28572e-09 -7.60455e-07 0)
(-2.26194e-09 -7.56776e-07 0)
(-2.23769e-09 -7.53137e-07 0)
(-2.21299e-09 -7.49537e-07 0)
(-2.18787e-09 -7.45977e-07 0)
(-2.16237e-09 -7.42458e-07 0)
(-2.13652e-09 -7.38981e-07 0)
(-2.11033e-09 -7.35545e-07 0)
(-2.08383e-09 -7.32153e-07 0)
(-2.05704e-09 -7.28804e-07 0)
(-2.02999e-09 -7.25498e-07 0)
(-2.00268e-09 -7.22236e-07 0)
(-1.97515e-09 -7.19018e-07 0)
(-1.9474e-09 -7.15846e-07 0)
(-1.91945e-09 -7.12718e-07 0)
(-1.89131e-09 -7.09636e-07 0)
(-1.863e-09 -7.06599e-07 0)
(-1.83453e-09 -7.03609e-07 0)
(-1.80591e-09 -7.00664e-07 0)
(-1.77715e-09 -6.97766e-07 0)
(-1.74825e-09 -6.94915e-07 0)
(-1.71924e-09 -6.9211e-07 0)
(-1.6901e-09 -6.89353e-07 0)
(-1.66086e-09 -6.86642e-07 0)
(-1.63151e-09 -6.83979e-07 0)
(-1.60207e-09 -6.81364e-07 0)
(-1.57253e-09 -6.78796e-07 0)
(-1.54291e-09 -6.76277e-07 0)
(-1.51319e-09 -6.73805e-07 0)
(-1.4834e-09 -6.71381e-07 0)
(-1.45353e-09 -6.69006e-07 0)
(-1.42358e-09 -6.66679e-07 0)
(-1.39355e-09 -6.644e-07 0)
(-1.36345e-09 -6.6217e-07 0)
(-1.33328e-09 -6.59989e-07 0)
(-1.30304e-09 -6.57857e-07 0)
(-1.27273e-09 -6.55774e-07 0)
(-1.24235e-09 -6.53739e-07 0)
(-1.2119e-09 -6.51754e-07 0)
(-1.18138e-09 -6.49819e-07 0)
(-1.15079e-09 -6.47932e-07 0)
(-1.12014e-09 -6.46096e-07 0)
(-1.08942e-09 -6.44309e-07 0)
(-1.05864e-09 -6.42571e-07 0)
(-1.02779e-09 -6.40884e-07 0)
(-9.96866e-10 -6.39246e-07 0)
(-9.65881e-10 -6.37659e-07 0)
(-9.34829e-10 -6.36121e-07 0)
(-9.03712e-10 -6.34634e-07 0)
(-8.7253e-10 -6.33198e-07 0)
(-8.41282e-10 -6.31811e-07 0)
(-8.09971e-10 -6.30476e-07 0)
(-7.78596e-10 -6.29191e-07 0)
(-7.47158e-10 -6.27957e-07 0)
(-7.15659e-10 -6.26774e-07 0)
(-6.84099e-10 -6.25642e-07 0)
(-6.52479e-10 -6.2456e-07 0)
(-6.20802e-10 -6.23531e-07 0)
(-5.89069e-10 -6.22552e-07 0)
(-5.57281e-10 -6.21625e-07 0)
(-5.2544e-10 -6.20749e-07 0)
(-4.93548e-10 -6.19925e-07 0)
(-4.61608e-10 -6.19152e-07 0)
(-4.29622e-10 -6.18432e-07 0)
(-3.97592e-10 -6.17762e-07 0)
(-3.65521e-10 -6.17145e-07 0)
(-3.33411e-10 -6.16579e-07 0)
(-3.01266e-10 -6.16069e-07 0)
(-2.69088e-10 -6.15595e-07 0)
(-2.36885e-10 -6.15229e-07 0)
(-2.04638e-10 -6.14729e-07 0)
(-1.72431e-10 -6.1489e-07 0)
(-1.39999e-10 -6.1304e-07 0)
(-1.0824e-10 -6.17827e-07 0)
(-7.42905e-11 -5.99192e-07 0)
(-4.79864e-11 -6.48297e-07 0)
(-2.01207e-11 -5.6619e-07 0)
)
;
    }
    bottomWall
    {
        type            calculated;
        value           nonuniform List<vector> 
449
(
(-48.5256 -0.96401 0)
(-19.7489 -0.0051546 0)
(-14.3418 -0.00113472 0)
(-12.0323 -0.000545466 0)
(-10.6263 -0.000351492 0)
(-9.63249 -0.000255993 0)
(-8.87442 -0.000198485 0)
(-8.27092 -0.000159815 0)
(-7.77549 -0.000132325 0)
(-7.35886 -0.000111978 0)
(-7.00185 -9.63779e-05 0)
(-6.69143 -8.40711e-05 0)
(-6.41827 -7.41533e-05 0)
(-6.17548 -6.60257e-05 0)
(-5.95779 -5.92688e-05 0)
(-5.76114 -5.35794e-05 0)
(-5.58234 -4.87351e-05 0)
(-5.41883 -4.45703e-05 0)
(-5.26854 -4.09588e-05 0)
(-5.12978 -3.78032e-05 0)
(-5.00113 -3.50269e-05 0)
(-4.88142 -3.25691e-05 0)
(-4.76965 -3.03811e-05 0)
(-4.66498 -2.84232e-05 0)
(-4.56668 -2.6663e-05 0)
(-4.47413 -2.50737e-05 0)
(-4.38679 -2.3633e-05 0)
(-4.30418 -2.23222e-05 0)
(-4.22588 -2.11256e-05 0)
(-4.15153 -2.00297e-05 0)
(-4.08081 -1.90231e-05 0)
(-4.01343 -1.80959e-05 0)
(-3.94913 -1.72398e-05 0)
(-3.88768 -1.64473e-05 0)
(-3.82888 -1.5712e-05 0)
(-3.77253 -1.50284e-05 0)
(-3.71848 -1.43914e-05 0)
(-3.66657 -1.37969e-05 0)
(-3.61665 -1.32409e-05 0)
(-3.56861 -1.27202e-05 0)
(-3.52233 -1.22315e-05 0)
(-3.47769 -1.17723e-05 0)
(-3.43462 -1.13401e-05 0)
(-3.39301 -1.09329e-05 0)
(-3.35278 -1.05485e-05 0)
(-3.31386 -1.01853e-05 0)
(-3.27617 -9.84169e-06 0)
(-3.23966 -9.51623e-06 0)
(-3.20426 -9.2076e-06 0)
(-3.16992 -8.91463e-06 0)
(-3.13658 -8.63624e-06 0)
(-3.10419 -8.37142e-06 0)
(-3.07272 -8.11929e-06 0)
(-3.04211 -7.87901e-06 0)
(-3.01233 -7.64982e-06 0)
(-2.98334 -7.43103e-06 0)
(-2.95511 -7.22199e-06 0)
(-2.9276 -7.0221e-06 0)
(-2.90078 -6.83083e-06 0)
(-2.87462 -6.64766e-06 0)
(-2.8491 -6.47213e-06 0)
(-2.82419 -6.3038e-06 0)
(-2.79987 -6.14227e-06 0)
(-2.77611 -5.98717e-06 0)
(-2.75289 -5.83814e-06 0)
(-2.73019 -5.69486e-06 0)
(-2.70799 -5.55702e-06 0)
(-2.68627 -5.42435e-06 0)
(-2.66502 -5.29658e-06 0)
(-2.64421 -5.17347e-06 0)
(-2.62384 -5.05477e-06 0)
(-2.60389 -4.94028e-06 0)
(-2.58434 -4.82979e-06 0)
(-2.56518 -4.72312e-06 0)
(-2.54639 -4.62007e-06 0)
(-2.52797 -4.52049e-06 0)
(-2.5099 -4.42421e-06 0)
(-2.49217 -4.33108e-06 0)
(-2.47477 -4.24097e-06 0)
(-2.45769 -4.15373e-06 0)
(-2.44092 -4.06925e-06 0)
(-2.42446 -3.98741e-06 0)
(-2.40828 -3.90809e-06 0)
(-2.39238 -3.83118e-06 0)
(-2.37676 -3.75659e-06 0)
(-2.36141 -3.68423e-06 0)
(-2.34631 -3.61399e-06 0)
(-2.33147 -3.5458e-06 0)
(-2.31687 -3.47957e-06 0)
(-2.30251 -3.41523e-06 0)
(-2.28837 -3.3527e-06 0)
(-2.27447 -3.29192e-06 0)
(-2.26078 -3.23281e-06 0)
(-2.2473 -3.17532e-06 0)
(-2.23404 -3.11938e-06 0)
(-2.22097 -3.06494e-06 0)
(-2.2081 -3.01194e-06 0)
(-2.19542 -2.96034e-06 0)
(-2.18293 -2.91007e-06 0)
(-2.17062 -2.86109e-06 0)
(-2.15849 -2.81336e-06 0)
(-2.14653 -2.76684e-06 0)
(-2.13474 -2.72148e-06 0)
(-2.12312 -2.67724e-06 0)
(-2.11166 -2.63408e-06 0)
(-2.10035 -2.59198e-06 0)
(-2.0892 -2.55089e-06 0)
(-2.0782 -2.51078e-06 0)
(-2.06735 -2.47162e-06 0)
(-2.05663 -2.43338e-06 0)
(-2.04606 -2.39602e-06 0)
(-2.03563 -2.35953e-06 0)
(-2.02533 -2.32387e-06 0)
(-2.01516 -2.28902e-06 0)
(-2.00512 -2.25496e-06 0)
(-1.99521 -2.22165e-06 0)
(-1.98541 -2.18908e-06 0)
(-1.97574 -2.15722e-06 0)
(-1.96619 -2.12605e-06 0)
(-1.95675 -2.09556e-06 0)
(-1.94742 -2.06572e-06 0)
(-1.93821 -2.03651e-06 0)
(-1.9291 -2.00792e-06 0)
(-1.9201 -1.97993e-06 0)
(-1.9112 -1.95251e-06 0)
(-1.90241 -1.92566e-06 0)
(-1.89371 -1.89936e-06 0)
(-1.88512 -1.87359e-06 0)
(-1.87662 -1.84834e-06 0)
(-1.86821 -1.8236e-06 0)
(-1.8599 -1.79935e-06 0)
(-1.85167 -1.77557e-06 0)
(-1.84354 -1.75226e-06 0)
(-1.8355 -1.7294e-06 0)
(-1.82754 -1.70698e-06 0)
(-1.81966 -1.68499e-06 0)
(-1.81187 -1.66341e-06 0)
(-1.80416 -1.64225e-06 0)
(-1.79652 -1.62148e-06 0)
(-1.78897 -1.6011e-06 0)
(-1.78149 -1.58109e-06 0)
(-1.77409 -1.56145e-06 0)
(-1.76677 -1.54217e-06 0)
(-1.75951 -1.52324e-06 0)
(-1.75233 -1.50465e-06 0)
(-1.74522 -1.48639e-06 0)
(-1.73818 -1.46846e-06 0)
(-1.73121 -1.45084e-06 0)
(-1.7243 -1.43353e-06 0)
(-1.71746 -1.41653e-06 0)
(-1.71069 -1.39982e-06 0)
(-1.70398 -1.38339e-06 0)
(-1.69733 -1.36725e-06 0)
(-1.69075 -1.35138e-06 0)
(-1.68422 -1.33578e-06 0)
(-1.67776 -1.32044e-06 0)
(-1.67135 -1.30536e-06 0)
(-1.665 -1.29053e-06 0)
(-1.65871 -1.27594e-06 0)
(-1.65248 -1.26159e-06 0)
(-1.6463 -1.24748e-06 0)
(-1.64017 -1.2336e-06 0)
(-1.6341 -1.21994e-06 0)
(-1.62808 -1.2065e-06 0)
(-1.62212 -1.19327e-06 0)
(-1.6162 -1.18026e-06 0)
(-1.61034 -1.16744e-06 0)
(-1.60452 -1.15484e-06 0)
(-1.59876 -1.14245e-06 0)
(-1.59304 -1.13012e-06 0)
(-1.58737 -1.11844e-06 0)
(-1.58174 -1.10634e-06 0)
(-1.57617 -1.09319e-06 0)
(-1.57096 -1.08302e-06 0)
(-1.56606 -1.07479e-06 0)
(-1.56114 -1.06444e-06 0)
(-1.55623 -1.05375e-06 0)
(-1.55131 -1.04374e-06 0)
(-1.54638 -1.0337e-06 0)
(-1.54145 -1.02379e-06 0)
(-1.53651 -1.01393e-06 0)
(-1.53157 -1.00414e-06 0)
(-1.52662 -9.94414e-07 0)
(-1.52166 -9.84743e-07 0)
(-1.5167 -9.75128e-07 0)
(-1.51174 -9.65569e-07 0)
(-1.50677 -9.56065e-07 0)
(-1.5018 -9.46617e-07 0)
(-1.49682 -9.37223e-07 0)
(-1.49184 -9.27885e-07 0)
(-1.48685 -9.18602e-07 0)
(-1.48186 -9.09374e-07 0)
(-1.47687 -9.00203e-07 0)
(-1.47188 -8.91087e-07 0)
(-1.46688 -8.82028e-07 0)
(-1.46187 -8.73025e-07 0)
(-1.45687 -8.64078e-07 0)
(-1.45186 -8.55189e-07 0)
(-1.44685 -8.46357e-07 0)
(-1.44184 -8.37582e-07 0)
(-1.43683 -8.28865e-07 0)
(-1.43181 -8.20206e-07 0)
(-1.4268 -8.11604e-07 0)
(-1.42178 -8.03061e-07 0)
(-1.41676 -7.94576e-07 0)
(-1.41174 -7.8615e-07 0)
(-1.40672 -7.77782e-07 0)
(-1.4017 -7.69473e-07 0)
(-1.39668 -7.61223e-07 0)
(-1.39166 -7.53032e-07 0)
(-1.38664 -7.449e-07 0)
(-1.38162 -7.36827e-07 0)
(-1.3766 -7.28814e-07 0)
(-1.37158 -7.2086e-07 0)
(-1.36656 -7.12965e-07 0)
(-1.36155 -7.0513e-07 0)
(-1.35653 -6.97354e-07 0)
(-1.35152 -6.89638e-07 0)
(-1.3465 -6.81982e-07 0)
(-1.34149 -6.74385e-07 0)
(-1.33648 -6.66848e-07 0)
(-1.33148 -6.5937e-07 0)
(-1.32647 -6.51952e-07 0)
(-1.32147 -6.44594e-07 0)
(-1.31647 -6.37295e-07 0)
(-1.31148 -6.30056e-07 0)
(-1.30649 -6.22876e-07 0)
(-1.3015 -6.15756e-07 0)
(-1.29651 -6.08695e-07 0)
(-1.29153 -6.01693e-07 0)
(-1.28655 -5.94751e-07 0)
(-1.28158 -5.87867e-07 0)
(-1.27661 -5.81043e-07 0)
(-1.27164 -5.74277e-07 0)
(-1.26668 -5.67571e-07 0)
(-1.26173 -5.60922e-07 0)
(-1.25677 -5.54333e-07 0)
(-1.25183 -5.47802e-07 0)
(-1.24689 -5.41329e-07 0)
(-1.24195 -5.34914e-07 0)
(-1.23702 -5.28557e-07 0)
(-1.2321 -5.22258e-07 0)
(-1.22718 -5.16017e-07 0)
(-1.22227 -5.09833e-07 0)
(-1.21736 -5.03706e-07 0)
(-1.21246 -4.97636e-07 0)
(-1.20757 -4.91623e-07 0)
(-1.20268 -4.85667e-07 0)
(-1.1978 -4.79767e-07 0)
(-1.19293 -4.73924e-07 0)
(-1.18806 -4.68136e-07 0)
(-1.18321 -4.62404e-07 0)
(-1.17836 -4.56728e-07 0)
(-1.17351 -4.51107e-07 0)
(-1.16868 -4.45541e-07 0)
(-1.16385 -4.4003e-07 0)
(-1.15903 -4.34573e-07 0)
(-1.15422 -4.29171e-07 0)
(-1.14941 -4.23822e-07 0)
(-1.14462 -4.18528e-07 0)
(-1.13983 -4.13286e-07 0)
(-1.13505 -4.08099e-07 0)
(-1.13028 -4.02964e-07 0)
(-1.12552 -3.97881e-07 0)
(-1.12077 -3.92851e-07 0)
(-1.11603 -3.87873e-07 0)
(-1.1113 -3.82947e-07 0)
(-1.10657 -3.78072e-07 0)
(-1.10186 -3.73248e-07 0)
(-1.09715 -3.68476e-07 0)
(-1.09246 -3.63753e-07 0)
(-1.08778 -3.59081e-07 0)
(-1.0831 -3.54459e-07 0)
(-1.07844 -3.49887e-07 0)
(-1.07378 -3.45364e-07 0)
(-1.06914 -3.40889e-07 0)
(-1.0645 -3.36464e-07 0)
(-1.05988 -3.32086e-07 0)
(-1.05527 -3.27757e-07 0)
(-1.05066 -3.23475e-07 0)
(-1.04607 -3.19241e-07 0)
(-1.04149 -3.15053e-07 0)
(-1.03692 -3.10912e-07 0)
(-1.03237 -3.06818e-07 0)
(-1.02782 -3.02769e-07 0)
(-1.02328 -2.98766e-07 0)
(-1.01876 -2.94809e-07 0)
(-1.01425 -2.90896e-07 0)
(-1.00974 -2.87027e-07 0)
(-1.00526 -2.83203e-07 0)
(-1.00078 -2.79423e-07 0)
(-0.996311 -2.75687e-07 0)
(-0.991857 -2.71993e-07 0)
(-0.987415 -2.68343e-07 0)
(-0.982985 -2.64735e-07 0)
(-0.978567 -2.61169e-07 0)
(-0.974161 -2.57645e-07 0)
(-0.969767 -2.54162e-07 0)
(-0.965386 -2.50721e-07 0)
(-0.961017 -2.4732e-07 0)
(-0.95666 -2.43959e-07 0)
(-0.952316 -2.40639e-07 0)
(-0.947985 -2.37358e-07 0)
(-0.943667 -2.34117e-07 0)
(-0.939361 -2.30915e-07 0)
(-0.935067 -2.27751e-07 0)
(-0.930787 -2.24625e-07 0)
(-0.92652 -2.21538e-07 0)
(-0.922265 -2.18488e-07 0)
(-0.918024 -2.15475e-07 0)
(-0.913796 -2.12499e-07 0)
(-0.90958 -2.0956e-07 0)
(-0.905378 -2.06657e-07 0)
(-0.90119 -2.0379e-07 0)
(-0.897014 -2.00959e-07 0)
(-0.892852 -1.98162e-07 0)
(-0.888703 -1.954e-07 0)
(-0.884567 -1.92673e-07 0)
(-0.880445 -1.8998e-07 0)
(-0.876337 -1.87321e-07 0)
(-0.872241 -1.84696e-07 0)
(-0.86816 -1.82103e-07 0)
(-0.864092 -1.79544e-07 0)
(-0.860038 -1.77016e-07 0)
(-0.855997 -1.74521e-07 0)
(-0.85197 -1.72058e-07 0)
(-0.847957 -1.69627e-07 0)
(-0.843957 -1.67226e-07 0)
(-0.839972 -1.64856e-07 0)
(-0.836 -1.62517e-07 0)
(-0.832042 -1.60208e-07 0)
(-0.828098 -1.57929e-07 0)
(-0.824167 -1.5568e-07 0)
(-0.820251 -1.53459e-07 0)
(-0.816348 -1.51268e-07 0)
(-0.81246 -1.49105e-07 0)
(-0.808585 -1.46971e-07 0)
(-0.804725 -1.44865e-07 0)
(-0.800878 -1.42786e-07 0)
(-0.797046 -1.40734e-07 0)
(-0.793227 -1.3871e-07 0)
(-0.789423 -1.36713e-07 0)
(-0.785632 -1.34742e-07 0)
(-0.781856 -1.32797e-07 0)
(-0.778094 -1.30877e-07 0)
(-0.774346 -1.28984e-07 0)
(-0.770612 -1.27115e-07 0)
(-0.766892 -1.25271e-07 0)
(-0.763186 -1.2345e-07 0)
(-0.759495 -1.21656e-07 0)
(-0.755817 -1.19881e-07 0)
(-0.752154 -1.18093e-07 0)
(-0.748508 -1.16455e-07 0)
(-0.744868 -1.14828e-07 0)
(-0.740838 -1.12841e-07 0)
(-0.736467 -1.10731e-07 0)
(-0.732175 -1.08831e-07 0)
(-0.727952 -1.07032e-07 0)
(-0.723801 -1.05222e-07 0)
(-0.71972 -1.03447e-07 0)
(-0.715708 -1.01718e-07 0)
(-0.711763 -1.00035e-07 0)
(-0.707882 -9.8397e-08 0)
(-0.704065 -9.68027e-08 0)
(-0.700309 -9.52507e-08 0)
(-0.696613 -9.37396e-08 0)
(-0.692975 -9.22681e-08 0)
(-0.689394 -9.08347e-08 0)
(-0.685869 -8.9438e-08 0)
(-0.682397 -8.80767e-08 0)
(-0.678978 -8.67497e-08 0)
(-0.675611 -8.54556e-08 0)
(-0.672293 -8.41934e-08 0)
(-0.669024 -8.2962e-08 0)
(-0.665802 -8.17604e-08 0)
(-0.662627 -8.05875e-08 0)
(-0.659498 -7.94424e-08 0)
(-0.656412 -7.83242e-08 0)
(-0.65337 -7.72321e-08 0)
(-0.65037 -7.61651e-08 0)
(-0.647412 -7.51224e-08 0)
(-0.644493 -7.41034e-08 0)
(-0.641614 -7.31073e-08 0)
(-0.638774 -7.21333e-08 0)
(-0.635971 -7.11807e-08 0)
(-0.633205 -7.0249e-08 0)
(-0.630475 -6.93376e-08 0)
(-0.627781 -6.84457e-08 0)
(-0.62512 -6.75728e-08 0)
(-0.622494 -6.67183e-08 0)
(-0.619901 -6.58818e-08 0)
(-0.61734 -6.50627e-08 0)
(-0.614811 -6.42605e-08 0)
(-0.612313 -6.34747e-08 0)
(-0.609845 -6.27049e-08 0)
(-0.607407 -6.19505e-08 0)
(-0.604998 -6.12113e-08 0)
(-0.602618 -6.04868e-08 0)
(-0.600266 -5.97765e-08 0)
(-0.597942 -5.90801e-08 0)
(-0.595644 -5.83973e-08 0)
(-0.593373 -5.77276e-08 0)
(-0.591128 -5.70708e-08 0)
(-0.588908 -5.64264e-08 0)
(-0.586714 -5.57943e-08 0)
(-0.584543 -5.5174e-08 0)
(-0.582397 -5.45652e-08 0)
(-0.580275 -5.39678e-08 0)
(-0.578175 -5.33814e-08 0)
(-0.576098 -5.28057e-08 0)
(-0.574044 -5.22405e-08 0)
(-0.572012 -5.16855e-08 0)
(-0.570001 -5.11406e-08 0)
(-0.568011 -5.06054e-08 0)
(-0.566042 -5.00798e-08 0)
(-0.564093 -4.95635e-08 0)
(-0.562164 -4.90564e-08 0)
(-0.560255 -4.85582e-08 0)
(-0.558365 -4.80689e-08 0)
(-0.556494 -4.75881e-08 0)
(-0.554642 -4.71159e-08 0)
(-0.552808 -4.66519e-08 0)
(-0.550993 -4.61961e-08 0)
(-0.549194 -4.57484e-08 0)
(-0.547414 -4.53087e-08 0)
(-0.54565 -4.48769e-08 0)
(-0.543903 -4.44529e-08 0)
(-0.542172 -4.40367e-08 0)
(-0.540458 -4.36283e-08 0)
(-0.538759 -4.32278e-08 0)
(-0.537076 -4.28353e-08 0)
(-0.535408 -4.24509e-08 0)
(-0.533755 -4.20751e-08 0)
(-0.532116 -4.17081e-08 0)
(-0.530492 -4.13505e-08 0)
(-0.528881 -4.10034e-08 0)
(-0.527284 -4.06682e-08 0)
(-0.5257 -4.0346e-08 0)
(-0.524128 -4.00402e-08 0)
(-0.522567 -3.97631e-08 0)
(-0.521017 -3.94844e-08 0)
(-0.519478 -3.92634e-08 0)
(-0.517945 -3.93239e-08 0)
(-0.516402 -3.86442e-08 0)
(-0.514922 -3.77746e-08 0)
(-0.513446 -4.99266e-08 0)
(-0.511016 -1.39622e-08 0)
(-0.512366 -3.68469e-08 0)
(-0.50809 -5.55793e-08 0)
)
;
    }
    symmetry
    {
        type            symmetryPlane;
    }
    frontAndBack
    {
        type            empty;
    }
}


// ************************************************************************* //
