/*--------------------------------*- C++ -*----------------------------------*\
| =========                 |                                                 |
| \\      /  F ield         | OpenFOAM: The Open Source CFD Toolbox           |
|  \\    /   O peration     | Version:  v2012                                 |
|   \\  /    A nd           | Website:  www.openfoam.com                      |
|    \\/     M anipulation  |                                                 |
\*---------------------------------------------------------------------------*/
FoamFile
{
    version     2.0;
    format      ascii;
    class       volScalarField;
    location    "24";
    object      k;
}
// * * * * * * * * * * * * * * * * * * * * * * * * * * * * * * * * * * * * * //

dimensions      [0 2 -2 0 0 0 0];


internalField   nonuniform List<scalar> 
209825
(
0.00102248
0.000928765
0.000860318
0.000811784
0.000776629
0.000750416
0.000730094
0.000714026
0.000700893
0.000690106
0.000680962
0.000673258
0.000666559
0.000660812
0.000655703
0.000651287
0.000647289
0.000643813
0.000640611
0.000637816
0.000635206
0.000632923
0.000630756
0.000628872
0.000627064
0.000625493
0.000623962
0.000622641
0.000621355
0.000620227
0.000619118
0.000618175
0.000617235
0.000616435
0.00061563
0.000614939
0.000614227
0.000613638
0.000613023
0.000612518
0.000611992
0.000611556
0.000611091
0.000610711
0.00061031
0.000609989
0.000609635
0.000609374
0.000609068
0.000608839
0.000608588
0.000608399
0.000608165
0.000608013
0.000607839
0.000607707
0.000607553
0.000607466
0.000607347
0.000607242
0.000607161
0.000607098
0.000606941
0.000606917
0.000606905
0.000606876
0.000606892
0.000606999
0.000607062
0.000607207
0.000607347
0.000607547
0.000607665
0.000607873
0.000607993
0.000608244
0.000608391
0.000608717
0.000608912
0.000609314
0.000609532
0.000609985
0.000610242
0.000610776
0.000611085
0.000611737
0.000612116
0.000612908
0.00061336
0.000614349
0.000614867
0.000616445
0.000616784
0.000624002
0.010402
0.0112846
0.00102248
0.000928765
0.000860317
0.000811779
0.000776622
0.000750406
0.000730082
0.000714012
0.000700877
0.000690089
0.000680944
0.000673239
0.000666539
0.000660791
0.000655681
0.000651265
0.000647266
0.00064379
0.000640588
0.000637792
0.000635182
0.000632898
0.000630731
0.000628847
0.000627038
0.000625468
0.000623937
0.000622615
0.000621329
0.000620201
0.000619092
0.000618149
0.000617208
0.000616409
0.000615603
0.000614912
0.0006142
0.00061361
0.000612996
0.000612491
0.000611964
0.000611528
0.000611063
0.000610683
0.000610282
0.000609961
0.000609607
0.000609346
0.00060904
0.000608811
0.00060856
0.000608371
0.000608137
0.000607985
0.000607811
0.000607679
0.000607525
0.000607438
0.000607318
0.000607213
0.000607133
0.00060707
0.000606913
0.000606888
0.000606876
0.000606848
0.000606863
0.00060697
0.000607033
0.000607178
0.000607319
0.000607518
0.000607636
0.000607845
0.000607964
0.000608215
0.000608363
0.000608688
0.000608883
0.000609285
0.000609503
0.000609956
0.000610213
0.000610747
0.000611056
0.000611708
0.000612087
0.000612879
0.000613331
0.00061432
0.000614837
0.000616416
0.000616755
0.000623983
0.0104105
0.011296
0.00102248
0.000928765
0.000860305
0.000811755
0.000776585
0.000750359
0.000730026
0.00071395
0.000700809
0.000690016
0.000680866
0.000673157
0.000666454
0.000660704
0.000655591
0.000651173
0.000647172
0.000643694
0.00064049
0.000637693
0.000635082
0.000632797
0.000630628
0.000628743
0.000626934
0.000625362
0.00062383
0.000622508
0.000621222
0.000620093
0.000618983
0.000618039
0.000617098
0.000616298
0.000615492
0.0006148
0.000614088
0.000613498
0.000612883
0.000612378
0.000611851
0.000611415
0.00061095
0.000610569
0.000610168
0.000609847
0.000609493
0.000609232
0.000608925
0.000608695
0.000608445
0.000608255
0.000608021
0.000607869
0.000607695
0.000607563
0.000607409
0.000607322
0.000607202
0.000607097
0.000607016
0.000606953
0.000606796
0.000606771
0.000606759
0.000606731
0.000606746
0.000606853
0.000606915
0.00060706
0.000607201
0.0006074
0.000607518
0.000607726
0.000607845
0.000608097
0.000608244
0.000608569
0.000608764
0.000609166
0.000609384
0.000609837
0.000610093
0.000610627
0.000610937
0.000611588
0.000611967
0.000612759
0.000613211
0.000614199
0.000614716
0.000616295
0.000616631
0.000623882
0.0104271
0.0113191
0.00102248
0.000928764
0.000860286
0.000811713
0.000776523
0.00075028
0.000729932
0.000713844
0.000700693
0.000689892
0.000680735
0.00067302
0.000666311
0.000660556
0.00065544
0.000651017
0.000647014
0.000643532
0.000640326
0.000637527
0.000634913
0.000632626
0.000630456
0.000628569
0.000626758
0.000625185
0.000623652
0.000622328
0.000621041
0.000619911
0.0006188
0.000617855
0.000616913
0.000616113
0.000615305
0.000614613
0.000613901
0.00061331
0.000612694
0.000612188
0.000611661
0.000611224
0.000610759
0.000610378
0.000609976
0.000609655
0.0006093
0.000609038
0.000608731
0.000608502
0.000608251
0.000608061
0.000607827
0.000607675
0.0006075
0.000607367
0.000607213
0.000607126
0.000607006
0.000606901
0.00060682
0.000606757
0.0006066
0.000606575
0.000606563
0.000606534
0.000606549
0.000606655
0.000606717
0.000606862
0.000607003
0.000607202
0.000607319
0.000607528
0.000607647
0.000607898
0.000608045
0.00060837
0.000608564
0.000608966
0.000609184
0.000609637
0.000609893
0.000610426
0.000610735
0.000611386
0.000611765
0.000612556
0.000613008
0.000613995
0.000614512
0.00061609
0.000616424
0.000623708
0.0104529
0.0113549
0.00102249
0.000928763
0.000860259
0.000811654
0.000776436
0.000750167
0.0007298
0.000713695
0.00070053
0.000689716
0.00068055
0.000672826
0.00066611
0.000660348
0.000655226
0.000650798
0.00064679
0.000643304
0.000640094
0.000637292
0.000634674
0.000632385
0.000630212
0.000628323
0.00062651
0.000624935
0.0006234
0.000622074
0.000620785
0.000619654
0.000618541
0.000617596
0.000616652
0.00061585
0.000615042
0.000614349
0.000613636
0.000613044
0.000612427
0.000611921
0.000611393
0.000610955
0.000610489
0.000610108
0.000609705
0.000609383
0.000609028
0.000608766
0.000608458
0.000608228
0.000607977
0.000607787
0.000607552
0.0006074
0.000607225
0.000607092
0.000606937
0.00060685
0.00060673
0.000606625
0.000606543
0.00060648
0.000606323
0.000606298
0.000606286
0.000606257
0.00060627
0.000606377
0.000606438
0.000606583
0.000606723
0.000606922
0.000607039
0.000607247
0.000607366
0.000607617
0.000607764
0.000608088
0.000608282
0.000608683
0.000608901
0.000609354
0.000609609
0.000610143
0.000610451
0.000611102
0.00061148
0.00061227
0.000612721
0.000613708
0.000614224
0.000615801
0.000616131
0.000623461
0.0104885
0.0114042
0.0010225
0.000928762
0.000860224
0.000811579
0.000776322
0.000750022
0.000729629
0.000713502
0.000700319
0.00068949
0.00068031
0.000672575
0.000665849
0.000660078
0.000654948
0.000650514
0.0006465
0.000643009
0.000639794
0.000636987
0.000634366
0.000632072
0.000629896
0.000628004
0.000626188
0.00062461
0.000623073
0.000621745
0.000620454
0.000619321
0.000618206
0.000617259
0.000616314
0.000615511
0.000614701
0.000614007
0.000613292
0.000612699
0.000612082
0.000611574
0.000611045
0.000610607
0.000610139
0.000609757
0.000609354
0.000609031
0.000608676
0.000608413
0.000608105
0.000607874
0.000607622
0.000607432
0.000607197
0.000607044
0.000606868
0.000606735
0.00060658
0.000606492
0.000606372
0.000606266
0.000606185
0.000606121
0.000605965
0.000605939
0.000605926
0.000605898
0.000605909
0.000606015
0.000606076
0.00060622
0.00060636
0.000606559
0.000606676
0.000606884
0.000607002
0.000607253
0.000607399
0.000607723
0.000607917
0.000608317
0.000608535
0.000608987
0.000609242
0.000609775
0.000610083
0.000610732
0.00061111
0.000611899
0.00061235
0.000613335
0.00061385
0.000615427
0.000615752
0.000623141
0.0105347
0.0114676
0.00102251
0.000928761
0.00086018
0.000811485
0.000776183
0.000749844
0.000729418
0.000713264
0.000700058
0.00068921
0.000680014
0.000672265
0.000665527
0.000659746
0.000654607
0.000650164
0.000646142
0.000642645
0.000639424
0.000636611
0.000633985
0.000631688
0.000629507
0.000627611
0.000625792
0.000624211
0.00062267
0.00062134
0.000620046
0.000618911
0.000617794
0.000616845
0.000615898
0.000615092
0.000614281
0.000613585
0.000612869
0.000612275
0.000611656
0.000611147
0.000610617
0.000610177
0.000609709
0.000609326
0.000608921
0.000608598
0.000608241
0.000607978
0.000607669
0.000607438
0.000607185
0.000606994
0.000606758
0.000606605
0.000606429
0.000606295
0.00060614
0.000606051
0.000605931
0.000605825
0.000605743
0.000605679
0.000605523
0.000605496
0.000605483
0.000605455
0.000605464
0.00060557
0.00060563
0.000605774
0.000605913
0.000606112
0.000606228
0.000606436
0.000606554
0.000606804
0.00060695
0.000607273
0.000607466
0.000607866
0.000608083
0.000608535
0.00060879
0.000609321
0.000609629
0.000610277
0.000610654
0.000611442
0.000611892
0.000612876
0.00061339
0.000614965
0.000615284
0.000622747
0.0105921
0.011546
0.00102252
0.000928759
0.000860129
0.000811375
0.000776018
0.000749632
0.000729167
0.000712982
0.000699749
0.000688878
0.000679663
0.000671897
0.000665144
0.000659351
0.0006542
0.000649748
0.000645717
0.000642211
0.000638983
0.000636164
0.000633532
0.000631229
0.000629044
0.000627143
0.00062532
0.000623735
0.000622191
0.000620857
0.00061956
0.000618422
0.000617302
0.000616351
0.000615401
0.000614594
0.00061378
0.000613082
0.000612364
0.000611769
0.000611148
0.000610637
0.000610106
0.000609665
0.000609196
0.000608811
0.000608406
0.000608082
0.000607724
0.000607459
0.00060715
0.000606918
0.000606664
0.000606472
0.000606236
0.000606082
0.000605905
0.000605771
0.000605615
0.000605526
0.000605405
0.000605299
0.000605216
0.000605152
0.000604996
0.000604969
0.000604955
0.000604927
0.000604934
0.00060504
0.000605099
0.000605242
0.00060538
0.000605578
0.000605694
0.000605902
0.000606019
0.000606269
0.000606414
0.000606737
0.000606929
0.000607328
0.000607545
0.000607996
0.00060825
0.000608781
0.000609088
0.000609735
0.000610111
0.000610898
0.000611346
0.000612328
0.000612841
0.000614414
0.000614727
0.000622278
0.0106612
0.0116399
0.00102253
0.000928758
0.00086007
0.000811247
0.000775826
0.000749386
0.000728876
0.000712653
0.000699389
0.000688492
0.000679254
0.000671469
0.000664699
0.000658891
0.000653727
0.000649263
0.000645222
0.000641707
0.000638471
0.000635644
0.000633005
0.000630696
0.000628505
0.000626599
0.00062477
0.000623181
0.000621633
0.000620296
0.000618995
0.000617853
0.000616731
0.000615776
0.000614823
0.000614014
0.000613197
0.000612498
0.000611777
0.00061118
0.000610557
0.000610045
0.000609512
0.000609069
0.000608598
0.000608213
0.000607806
0.000607481
0.000607122
0.000606856
0.000606545
0.000606312
0.000606057
0.000605865
0.000605628
0.000605473
0.000605295
0.000605161
0.000605004
0.000604914
0.000604793
0.000604687
0.000604603
0.000604539
0.000604384
0.000604355
0.000604341
0.000604312
0.000604317
0.000604422
0.00060448
0.000604622
0.00060476
0.000604958
0.000605073
0.00060528
0.000605397
0.000605646
0.000605791
0.000606112
0.000606305
0.000606702
0.000606919
0.000607368
0.000607622
0.000608152
0.000608458
0.000609103
0.000609479
0.000610263
0.000610711
0.000611691
0.000612201
0.000613774
0.000614078
0.000621733
0.0107426
0.01175
0.00102255
0.000928757
0.000860004
0.000811102
0.000775608
0.000749106
0.000728545
0.000712279
0.000698979
0.000688052
0.000678788
0.00067098
0.000664192
0.000658366
0.000653187
0.00064871
0.000644657
0.000641131
0.000637885
0.00063505
0.000632403
0.000630087
0.000627889
0.000625977
0.000624143
0.000622548
0.000620996
0.000619654
0.000618349
0.000617204
0.000616077
0.000615119
0.000614163
0.000613351
0.000612532
0.000611829
0.000611107
0.000610507
0.000609882
0.000609368
0.000608832
0.000608389
0.000607916
0.000607529
0.00060712
0.000606794
0.000606433
0.000606166
0.000605854
0.00060562
0.000605364
0.000605171
0.000604933
0.000604777
0.000604598
0.000604464
0.000604306
0.000604215
0.000604093
0.000603987
0.000603902
0.000603838
0.000603683
0.000603653
0.000603639
0.00060361
0.000603611
0.000603716
0.000603772
0.000603914
0.000604051
0.000604248
0.000604363
0.00060457
0.000604686
0.000604934
0.000605079
0.000605398
0.00060559
0.000605987
0.000606203
0.000606651
0.000606905
0.000607432
0.000607738
0.000608382
0.000608756
0.000609538
0.000609985
0.000610962
0.000611471
0.000613041
0.000613336
0.000621111
0.0108367
0.0118767
0.00102256
0.000928755
0.00085993
0.00081094
0.000775364
0.000748792
0.000728173
0.000711859
0.000698518
0.000687557
0.000678263
0.000670431
0.00066362
0.000657775
0.00065258
0.000648087
0.00064402
0.000640483
0.000637226
0.000634381
0.000631725
0.0006294
0.000627195
0.000625276
0.000623436
0.000621836
0.000620277
0.00061893
0.000617621
0.000616471
0.000615341
0.000614379
0.00061342
0.000612604
0.000611781
0.000611076
0.000610351
0.000609748
0.000609121
0.000608605
0.000608067
0.000607621
0.000607146
0.000606758
0.000606347
0.000606019
0.000605657
0.000605389
0.000605076
0.00060484
0.000604583
0.000604389
0.00060415
0.000603993
0.000603813
0.000603677
0.000603518
0.000603427
0.000603305
0.000603198
0.000603112
0.000603048
0.000602893
0.000602862
0.000602847
0.000602819
0.000602816
0.00060292
0.000602975
0.000603116
0.000603251
0.000603448
0.000603563
0.000603769
0.000603884
0.000604131
0.000604275
0.000604594
0.000604785
0.00060518
0.000605395
0.000605842
0.000606095
0.000606622
0.000606926
0.000607568
0.000607941
0.000608721
0.000609166
0.000610141
0.000610647
0.000612215
0.0006125
0.000620411
0.0109437
0.0120206
0.00102258
0.000928754
0.000859848
0.00081076
0.000775093
0.000748444
0.000727759
0.000711391
0.000698006
0.000687006
0.00067768
0.000669819
0.000662984
0.000657118
0.000651903
0.000647394
0.000643312
0.000639761
0.000636492
0.000633636
0.000630969
0.000628636
0.000626422
0.000624496
0.000622648
0.000621042
0.000619477
0.000618125
0.00061681
0.000615656
0.00061452
0.000613554
0.000612591
0.000611771
0.000610945
0.000610237
0.000609508
0.000608903
0.000608273
0.000607754
0.000607214
0.000606766
0.000606289
0.000605899
0.000605486
0.000605156
0.000604792
0.000604523
0.000604208
0.000603971
0.000603712
0.000603517
0.000603277
0.000603118
0.000602937
0.000602801
0.000602641
0.000602549
0.000602426
0.000602318
0.000602231
0.000602167
0.000602012
0.00060198
0.000601964
0.000601936
0.000601929
0.000602033
0.000602086
0.000602226
0.00060236
0.000602557
0.00060267
0.000602876
0.000602991
0.000603237
0.00060338
0.000603697
0.000603887
0.00060428
0.000604495
0.000604941
0.000605193
0.000605717
0.000606021
0.00060666
0.000607032
0.00060781
0.000608253
0.000609225
0.000609729
0.000611295
0.000611569
0.000619633
0.0110637
0.0121821
0.0010226
0.000928754
0.00085976
0.000810564
0.000774796
0.00074806
0.000727305
0.000710877
0.000697442
0.000686399
0.000677037
0.000669145
0.000662282
0.000656393
0.000651157
0.000646629
0.00064253
0.000638964
0.000635681
0.000632813
0.000630136
0.000627793
0.000625569
0.000623635
0.000621779
0.000620165
0.000618594
0.000617235
0.000615914
0.000614755
0.000613615
0.000612644
0.000611676
0.000610852
0.000610022
0.000609311
0.000608578
0.00060797
0.000607337
0.000606815
0.000606272
0.000605822
0.000605342
0.00060495
0.000604535
0.000604203
0.000603837
0.000603566
0.000603249
0.000603011
0.00060275
0.000602554
0.000602312
0.000602153
0.00060197
0.000601833
0.000601672
0.000601579
0.000601455
0.000601347
0.000601258
0.000601194
0.00060104
0.000601006
0.000600989
0.000600962
0.00060095
0.000601053
0.000601104
0.000601243
0.000601376
0.000601572
0.000601685
0.000601889
0.000602003
0.000602248
0.000602391
0.000602706
0.000602895
0.000603287
0.000603501
0.000603945
0.000604196
0.000604719
0.000605022
0.000605658
0.000606029
0.000606803
0.000607245
0.000608213
0.000608714
0.000610278
0.000610539
0.000618774
0.0111967
0.0123614
0.00102263
0.000928754
0.000859664
0.00081035
0.000774472
0.000747643
0.000726809
0.000710315
0.000696825
0.000685736
0.000676334
0.000668408
0.000661515
0.000655599
0.00065034
0.000645792
0.000641675
0.000638092
0.000634795
0.000631913
0.000629223
0.000626869
0.000624635
0.000622691
0.000620827
0.000619205
0.000617627
0.000616261
0.000614934
0.000613769
0.000612622
0.000611646
0.000610673
0.000609845
0.000609011
0.000608295
0.000607559
0.000606947
0.000606311
0.000605786
0.00060524
0.000604787
0.000604305
0.00060391
0.000603493
0.000603159
0.000602791
0.000602518
0.000602199
0.000601959
0.000601696
0.000601499
0.000601256
0.000601095
0.000600911
0.000600773
0.00060061
0.000600516
0.000600391
0.000600282
0.000600192
0.000600127
0.000599974
0.000599938
0.00059992
0.000599893
0.000599877
0.000599979
0.000600028
0.000600166
0.000600297
0.000600492
0.000600604
0.000600808
0.000600921
0.000601165
0.000601306
0.000601619
0.000601808
0.000602198
0.000602411
0.000602853
0.000603104
0.000603624
0.000603926
0.000604559
0.000604928
0.0006057
0.00060614
0.000607104
0.000607602
0.000609163
0.000609411
0.000617834
0.0113422
0.0125589
0.00102265
0.000928755
0.000859561
0.00081012
0.000774123
0.000747191
0.000726271
0.000709706
0.000696156
0.000685016
0.000675571
0.000667607
0.000660681
0.000654737
0.000649453
0.000644882
0.000640744
0.000637144
0.00063383
0.000630934
0.000628231
0.000625864
0.000623619
0.000621665
0.000619791
0.000618161
0.000616574
0.000615201
0.000613866
0.000612695
0.000611543
0.000610561
0.000609582
0.000608749
0.00060791
0.00060719
0.00060645
0.000605835
0.000605194
0.000604666
0.000604116
0.000603661
0.000603175
0.000602778
0.000602358
0.000602022
0.000601651
0.000601376
0.000601055
0.000600814
0.000600549
0.00060035
0.000600105
0.000599943
0.000599757
0.000599618
0.000599454
0.000599358
0.000599232
0.000599123
0.000599031
0.000598966
0.000598813
0.000598776
0.000598756
0.000598729
0.000598709
0.000598809
0.000598856
0.000598993
0.000599122
0.000599317
0.000599428
0.00059963
0.000599743
0.000599985
0.000600125
0.000600437
0.000600623
0.000601012
0.000601224
0.000601665
0.000601914
0.000602432
0.000602732
0.000603362
0.00060373
0.000604498
0.000604936
0.000605896
0.000606391
0.000607949
0.000608183
0.000616812
0.0114996
0.0127748
0.00102268
0.000928756
0.000859452
0.000809874
0.000773747
0.000746704
0.000725691
0.000709049
0.000695434
0.000684239
0.000674746
0.000666741
0.00065978
0.000653805
0.000648493
0.000643898
0.000639739
0.000636119
0.000632787
0.000629875
0.000627157
0.000624777
0.00062252
0.000620555
0.00061867
0.000617031
0.000615435
0.000614054
0.000612711
0.000611533
0.000610374
0.000609386
0.000608402
0.000607563
0.000606718
0.000605994
0.000605249
0.00060463
0.000603985
0.000603453
0.0006029
0.000602441
0.000601953
0.000601553
0.00060113
0.000600791
0.000600418
0.00060014
0.000599817
0.000599574
0.000599307
0.000599106
0.000598859
0.000598695
0.000598508
0.000598368
0.000598202
0.000598105
0.000597977
0.000597867
0.000597774
0.000597709
0.000597556
0.000597517
0.000597496
0.000597469
0.000597444
0.000597543
0.000597588
0.000597723
0.000597851
0.000598044
0.000598153
0.000598355
0.000598467
0.000598707
0.000598847
0.000599156
0.000599341
0.000599727
0.000599939
0.000600377
0.000600625
0.000601141
0.000601439
0.000602067
0.000602432
0.000603196
0.000603632
0.000604589
0.00060508
0.000606634
0.000606853
0.000615705
0.0116682
0.0130091
0.0010227
0.000928758
0.000859337
0.000809612
0.000773346
0.000746183
0.00072507
0.000708344
0.000694659
0.000683404
0.00067386
0.000665811
0.000658812
0.000652803
0.000647461
0.000642839
0.000638657
0.000635015
0.000631664
0.000628735
0.000626001
0.000623607
0.000621337
0.00061936
0.000617464
0.000615814
0.000614209
0.000612818
0.000611468
0.000610282
0.000609116
0.000608121
0.00060713
0.000606286
0.000605435
0.000604706
0.000603956
0.000603332
0.000602683
0.000602148
0.00060159
0.000601128
0.000600636
0.000600233
0.000599806
0.000599466
0.000599089
0.000598809
0.000598483
0.000598238
0.000597968
0.000597766
0.000597517
0.000597351
0.000597162
0.000597021
0.000596853
0.000596754
0.000596626
0.000596515
0.00059642
0.000596354
0.000596202
0.00059616
0.000596138
0.000596111
0.000596082
0.000596179
0.00059622
0.000596355
0.00059648
0.000596672
0.00059678
0.000596981
0.000597091
0.00059733
0.000597469
0.000597775
0.00059796
0.000598343
0.000598554
0.00059899
0.000599237
0.000599749
0.000600047
0.00060067
0.000601034
0.000601794
0.000602228
0.000603179
0.000603666
0.000605218
0.00060542
0.000614513
0.0118467
0.0132617
0.00102273
0.000928761
0.000859215
0.000809333
0.000772919
0.000745628
0.000724407
0.000707592
0.00069383
0.000682511
0.000672913
0.000664816
0.000657775
0.00065173
0.000646356
0.000641706
0.000637498
0.000633833
0.000630462
0.000627514
0.000624763
0.000622353
0.000620069
0.000618079
0.000616171
0.00061451
0.000612894
0.000611494
0.000610135
0.000608941
0.000607767
0.000606765
0.000605767
0.000604916
0.000604059
0.000603325
0.00060257
0.000601941
0.000601287
0.000600747
0.000600185
0.000599719
0.000599224
0.000598817
0.000598387
0.000598044
0.000597664
0.000597381
0.000597053
0.000596805
0.000596533
0.000596329
0.000596078
0.00059591
0.000595718
0.000595576
0.000595406
0.000595306
0.000595176
0.000595064
0.000594967
0.000594901
0.000594749
0.000594705
0.000594681
0.000594655
0.00059462
0.000594715
0.000594754
0.000594886
0.00059501
0.000595201
0.000595307
0.000595507
0.000595616
0.000595853
0.00059599
0.000596294
0.000596477
0.000596858
0.000597068
0.000597501
0.000597747
0.000598257
0.000598552
0.000599172
0.000599533
0.000600289
0.00060072
0.000601667
0.00060215
0.000603697
0.000603882
0.000613234
0.0120334
0.0135325
0.00102276
0.000928766
0.000859088
0.00080904
0.000772467
0.000745039
0.000723703
0.000706791
0.000692949
0.000681561
0.000671903
0.000663756
0.00065667
0.000650586
0.000645178
0.000640497
0.000636261
0.000632572
0.000629178
0.00062621
0.000623441
0.000621015
0.000618715
0.000616711
0.00061479
0.000613117
0.00061149
0.00061008
0.000608711
0.000607509
0.000606326
0.000605316
0.00060431
0.000603453
0.00060259
0.00060185
0.000601089
0.000600455
0.000599795
0.000599251
0.000598684
0.000598215
0.000597715
0.000597305
0.000596871
0.000596525
0.000596141
0.000595856
0.000595524
0.000595274
0.000594999
0.000594793
0.00059454
0.00059437
0.000594176
0.000594032
0.00059386
0.000593758
0.000593626
0.000593514
0.000593414
0.000593348
0.000593196
0.00059315
0.000593125
0.000593097
0.000593058
0.00059315
0.000593186
0.000593317
0.000593438
0.000593628
0.000593733
0.000593932
0.000594039
0.000594274
0.00059441
0.000594711
0.000594893
0.000595271
0.000595479
0.00059591
0.000596154
0.000596661
0.000596954
0.00059757
0.000597929
0.00059868
0.000599109
0.00060005
0.000600529
0.000602072
0.00060224
0.000611865
0.0122264
0.013821
0.0010228
0.000928771
0.000858955
0.000808731
0.00077199
0.000744416
0.000722958
0.000705943
0.000692014
0.000680552
0.000670831
0.000662629
0.000655496
0.000649371
0.000643926
0.000639212
0.000634947
0.000631232
0.000627814
0.000624824
0.000622035
0.000619592
0.000617275
0.000615256
0.000613321
0.000611636
0.000609997
0.000608576
0.000607196
0.000605985
0.000604792
0.000603775
0.000602761
0.000601896
0.000601026
0.00060028
0.000599512
0.000598873
0.000598208
0.000597658
0.000597087
0.000596613
0.000596108
0.000595695
0.000595257
0.000594907
0.00059452
0.000594232
0.000593897
0.000593644
0.000593366
0.000593158
0.000592902
0.000592729
0.000592533
0.000592387
0.000592213
0.000592109
0.000591976
0.000591863
0.000591761
0.000591694
0.000591542
0.000591494
0.000591466
0.000591439
0.000591394
0.000591484
0.000591517
0.000591646
0.000591764
0.000591953
0.000592056
0.000592253
0.000592359
0.000592592
0.000592727
0.000593025
0.000593205
0.00059358
0.000593787
0.000594215
0.000594458
0.000594961
0.000595253
0.000595864
0.000596221
0.000596966
0.000597392
0.000598328
0.000598802
0.000600341
0.00060049
0.000610405
0.0124232
0.0141265
0.00102283
0.000928779
0.000858818
0.000808407
0.000771488
0.00074376
0.000722171
0.000705047
0.000691025
0.000679486
0.000669697
0.000661437
0.000654253
0.000648084
0.000642599
0.00063785
0.000633554
0.000629811
0.000626367
0.000623355
0.000620545
0.000618082
0.000615748
0.000613713
0.000611763
0.000610064
0.000608413
0.00060698
0.000605589
0.000604367
0.000603165
0.000602139
0.000601116
0.000600244
0.000599366
0.000598613
0.000597839
0.000597194
0.000596523
0.000595968
0.000595391
0.000594912
0.000594403
0.000593986
0.000593543
0.00059319
0.000592799
0.000592508
0.00059217
0.000591914
0.000591632
0.000591422
0.000591163
0.000590988
0.000590789
0.000590642
0.000590465
0.000590359
0.000590224
0.00059011
0.000590005
0.000589938
0.000589786
0.000589736
0.000589706
0.000589678
0.000589628
0.000589715
0.000589745
0.000589872
0.000589987
0.000590174
0.000590276
0.000590471
0.000590576
0.000590807
0.00059094
0.000591235
0.000591413
0.000591785
0.000591991
0.000592415
0.000592656
0.000593156
0.000593445
0.000594052
0.000594406
0.000595147
0.00059557
0.000596499
0.000596968
0.000598502
0.000598632
0.000608851
0.0126211
0.014448
0.00102286
0.000928787
0.000858675
0.00080807
0.000770962
0.000743071
0.000721344
0.000704103
0.000689984
0.000678361
0.000668501
0.000660179
0.000652941
0.000646724
0.000641198
0.000636412
0.000632082
0.000628309
0.000624838
0.000621801
0.000618969
0.000616486
0.000614134
0.000612081
0.000610115
0.000608402
0.000606737
0.000605291
0.000603888
0.000602657
0.000601444
0.000600408
0.000599376
0.000598496
0.000597609
0.00059685
0.000596068
0.000595417
0.00059474
0.000594179
0.000593596
0.000593113
0.000592599
0.000592177
0.00059173
0.000591373
0.000590978
0.000590683
0.000590341
0.000590082
0.000589797
0.000589584
0.000589323
0.000589145
0.000588943
0.000588794
0.000588615
0.000588507
0.00058837
0.000588254
0.000588147
0.000588079
0.000587927
0.000587874
0.000587842
0.000587813
0.000587758
0.000587843
0.000587868
0.000587994
0.000588106
0.000588291
0.000588391
0.000588584
0.000588687
0.000588916
0.000589047
0.000589339
0.000589515
0.000589884
0.000590088
0.00059051
0.000590749
0.000591244
0.000591532
0.000592133
0.000592485
0.00059322
0.000593639
0.000594562
0.000595027
0.000596554
0.000596666
0.000607201
0.0128166
0.0147843
0.0010229
0.000928798
0.000858529
0.000807718
0.000770413
0.000742349
0.000720476
0.000703113
0.000688889
0.000677178
0.000667242
0.000658855
0.00065156
0.000645293
0.000639721
0.000634896
0.00063053
0.000626726
0.000623226
0.000620163
0.000617307
0.000614803
0.000612431
0.00061036
0.000608377
0.000606648
0.000604969
0.00060351
0.000602095
0.000600852
0.000599628
0.000598582
0.00059754
0.000596651
0.000595756
0.000594989
0.0005942
0.000593542
0.000592858
0.000592291
0.000591702
0.000591214
0.000590694
0.000590268
0.000589816
0.000589455
0.000589055
0.000588756
0.000588411
0.000588148
0.000587859
0.000587644
0.000587379
0.000587199
0.000586994
0.000586843
0.000586661
0.00058655
0.000586411
0.000586295
0.000586185
0.000586116
0.000585964
0.000585908
0.000585873
0.000585844
0.000585784
0.000585865
0.000585887
0.00058601
0.000586119
0.000586302
0.0005864
0.000586592
0.000586693
0.000586919
0.000587049
0.000587337
0.000587511
0.000587876
0.000588078
0.000588497
0.000588734
0.000589225
0.00058951
0.000590107
0.000590456
0.000591184
0.0005916
0.000592517
0.000592975
0.000594497
0.000594589
0.000605451
0.0130061
0.0151335
0.00102294
0.00092881
0.000858378
0.000807354
0.000769841
0.000741595
0.000719568
0.000702075
0.000687742
0.000675937
0.000665922
0.000657465
0.000650109
0.000643789
0.00063817
0.000633303
0.0006289
0.000625061
0.000621531
0.000618441
0.00061556
0.000613033
0.000610639
0.000608549
0.000606548
0.000604803
0.000603109
0.000601636
0.000600207
0.000598952
0.000597717
0.00059666
0.000595607
0.000594709
0.000593805
0.00059303
0.000592233
0.000591567
0.000590876
0.000590303
0.000589708
0.000589214
0.000588688
0.000588258
0.0005878
0.000587435
0.00058703
0.000586727
0.000586378
0.000586112
0.000585819
0.000585601
0.000585333
0.00058515
0.000584941
0.000584788
0.000584603
0.00058449
0.000584349
0.00058423
0.000584117
0.000584048
0.000583896
0.000583837
0.000583799
0.000583769
0.000583705
0.000583781
0.000583799
0.000583921
0.000584026
0.000584206
0.000584302
0.000584492
0.000584591
0.000584815
0.000584943
0.000585228
0.000585399
0.00058576
0.000585961
0.000586375
0.000586611
0.000587098
0.00058738
0.000587971
0.000588317
0.000589039
0.000589452
0.000590361
0.000590814
0.000592329
0.000592401
0.0006036
0.0131852
0.0154933
0.00102298
0.000928825
0.000858224
0.000806977
0.000769247
0.00074081
0.000718621
0.000700992
0.000686543
0.000674639
0.000664539
0.000656009
0.000648589
0.000642212
0.000636544
0.000631633
0.000627189
0.000623315
0.000619753
0.000616634
0.000613725
0.000611174
0.000608758
0.000606648
0.000604628
0.000602866
0.000601155
0.000599667
0.000598224
0.000596957
0.000595709
0.000594641
0.000593577
0.000592669
0.000591755
0.000590972
0.000590166
0.000589493
0.000588794
0.000588215
0.000587612
0.000587112
0.000586581
0.000586145
0.000585682
0.000585312
0.000584902
0.000584595
0.000584241
0.000583972
0.000583674
0.000583453
0.000583182
0.000582995
0.000582783
0.000582627
0.00058244
0.000582324
0.00058218
0.000582061
0.000581944
0.000581874
0.000581721
0.00058166
0.000581619
0.000581588
0.000581519
0.000581591
0.000581605
0.000581724
0.000581825
0.000582003
0.000582096
0.000582284
0.000582382
0.000582602
0.000582729
0.00058301
0.000583179
0.000583536
0.000583735
0.000584145
0.000584378
0.000584861
0.000585141
0.000585726
0.000586068
0.000586784
0.000587193
0.000588094
0.000588542
0.000590049
0.000590102
0.000601643
0.0133492
0.015861
0.00102302
0.000928842
0.000858067
0.000806589
0.000768631
0.000739995
0.000717635
0.000699862
0.000685291
0.000673284
0.000663094
0.000654487
0.000646999
0.000640564
0.000634843
0.000629885
0.000625399
0.000621488
0.000617891
0.000614741
0.000611804
0.000609228
0.000606789
0.000604657
0.000602617
0.000600836
0.000599108
0.000597605
0.000596146
0.000594865
0.000593604
0.000592524
0.000591449
0.00059053
0.000589606
0.000588814
0.000587999
0.000587318
0.000586611
0.000586025
0.000585415
0.000584909
0.000584371
0.00058393
0.00058346
0.000583086
0.000582671
0.000582359
0.000582
0.000581727
0.000581425
0.000581201
0.000580925
0.000580736
0.00058052
0.000580362
0.000580171
0.000580052
0.000579906
0.000579785
0.000579665
0.000579593