/*--------------------------------*- C++ -*----------------------------------*\
| =========                 |                                                 |
| \\      /  F ield         | OpenFOAM: The Open Source CFD Toolbox           |
|  \\    /   O peration     | Version:  v2012                                 |
|   \\  /    A nd           | Website:  www.openfoam.com                      |
|    \\/     M anipulation  |                                                 |
\*---------------------------------------------------------------------------*/
FoamFile
{
    version     2.0;
    format      ascii;
    class       volScalarField;
    location    "24";
    object      nut;
}
// * * * * * * * * * * * * * * * * * * * * * * * * * * * * * * * * * * * * * //

dimensions      [0 2 -1 0 0 0 0];


internalField   nonuniform List<scalar> 
209825
(
1.24629e-07
1.17894e-07
1.09588e-07
1.02447e-07
9.68112e-08
9.24149e-08
8.89064e-08
8.60783e-08
8.37318e-08
8.17838e-08
8.01179e-08
7.87047e-08
7.74696e-08
7.64057e-08
7.54556e-08
7.4632e-08
7.38844e-08
7.3233e-08
7.26322e-08
7.21065e-08
7.16153e-08
7.11849e-08
7.07757e-08
7.0419e-08
7.0077e-08
6.97793e-08
6.94888e-08
6.92366e-08
6.89926e-08
6.87775e-08
6.85653e-08
6.83836e-08
6.82035e-08
6.80497e-08
6.78944e-08
6.77591e-08
6.76224e-08
6.75078e-08
6.73879e-08
6.72882e-08
6.7184e-08
6.70959e-08
6.70056e-08
6.69297e-08
6.68479e-08
6.67822e-08
6.67142e-08
6.66599e-08
6.65945e-08
6.6547e-08
6.64995e-08
6.64496e-08
6.63986e-08
6.63655e-08
6.63221e-08
6.62932e-08
6.6249e-08
6.62126e-08
6.61751e-08
6.61307e-08
6.61106e-08
6.60968e-08
6.60516e-08
6.6031e-08
6.60034e-08
6.59762e-08
6.59672e-08
6.59744e-08
6.59621e-08
6.59721e-08
6.59782e-08
6.59923e-08
6.59929e-08
6.60094e-08
6.6008e-08
6.60302e-08
6.60321e-08
6.60593e-08
6.60702e-08
6.61047e-08
6.61163e-08
6.61537e-08
6.61694e-08
6.62112e-08
6.62333e-08
6.62824e-08
6.63108e-08
6.63682e-08
6.63982e-08
6.64641e-08
6.6494e-08
6.65784e-08
6.65879e-08
6.71193e-08
3.28855e-06
2.09514e-08
1.24629e-07
1.17896e-07
1.0959e-07
1.02449e-07
9.68131e-08
9.24166e-08
8.89079e-08
8.60796e-08
8.37328e-08
8.17846e-08
8.01185e-08
7.87053e-08
7.74699e-08
7.64059e-08
7.54557e-08
7.4632e-08
7.38843e-08
7.32328e-08
7.2632e-08
7.21061e-08
7.16149e-08
7.11845e-08
7.07752e-08
7.04185e-08
7.00764e-08
6.97786e-08
6.94881e-08
6.92359e-08
6.89918e-08
6.87767e-08
6.85644e-08
6.83828e-08
6.82026e-08
6.80487e-08
6.78935e-08
6.77581e-08
6.76214e-08
6.75068e-08
6.73869e-08
6.72872e-08
6.71829e-08
6.70948e-08
6.70045e-08
6.69286e-08
6.68468e-08
6.67811e-08
6.6713e-08
6.66587e-08
6.65933e-08
6.65458e-08
6.64984e-08
6.64484e-08
6.63974e-08
6.63643e-08
6.63209e-08
6.6292e-08
6.62478e-08
6.62114e-08
6.61739e-08
6.61294e-08
6.61093e-08
6.60956e-08
6.60503e-08
6.60297e-08
6.60021e-08
6.5975e-08
6.59659e-08
6.59731e-08
6.59608e-08
6.59708e-08
6.59769e-08
6.59909e-08
6.59916e-08
6.60081e-08
6.60067e-08
6.60289e-08
6.60307e-08
6.60579e-08
6.60688e-08
6.61033e-08
6.61149e-08
6.61523e-08
6.61681e-08
6.62098e-08
6.6232e-08
6.6281e-08
6.63094e-08
6.63668e-08
6.63968e-08
6.64627e-08
6.64926e-08
6.6577e-08
6.65864e-08
6.71185e-08
3.28879e-06
2.11223e-08
1.2463e-07
1.17901e-07
1.09598e-07
1.02458e-07
9.6821e-08
9.24234e-08
8.89137e-08
8.60844e-08
8.37368e-08
8.17878e-08
8.0121e-08
7.87071e-08
7.74712e-08
7.64067e-08
7.5456e-08
7.46319e-08
7.38839e-08
7.32321e-08
7.26309e-08
7.21048e-08
7.16133e-08
7.11826e-08
7.07732e-08
7.04163e-08
7.0074e-08
6.97761e-08
6.94854e-08
6.9233e-08
6.89888e-08
6.87736e-08
6.85612e-08
6.83794e-08
6.81991e-08
6.80452e-08
6.78898e-08
6.77544e-08
6.76176e-08
6.75029e-08
6.7383e-08
6.72832e-08
6.71789e-08
6.70907e-08
6.70003e-08
6.69244e-08
6.68425e-08
6.67768e-08
6.67086e-08
6.66543e-08
6.65889e-08
6.65413e-08
6.64938e-08
6.64439e-08
6.63928e-08
6.63597e-08
6.63162e-08
6.62873e-08
6.62431e-08
6.62066e-08
6.61691e-08
6.61247e-08
6.61045e-08
6.60908e-08
6.60455e-08
6.60249e-08
6.59973e-08
6.59701e-08
6.59609e-08
6.59681e-08
6.59557e-08
6.59657e-08
6.59718e-08
6.59858e-08
6.59864e-08
6.60029e-08
6.60015e-08
6.60237e-08
6.60255e-08
6.60527e-08
6.60636e-08
6.60981e-08
6.61097e-08
6.6147e-08
6.61627e-08
6.62044e-08
6.62266e-08
6.62756e-08
6.6304e-08
6.63613e-08
6.63913e-08
6.64572e-08
6.6487e-08
6.65714e-08
6.65808e-08
6.71143e-08
3.28878e-06
2.13632e-08
1.24631e-07
1.17911e-07
1.09612e-07
1.02472e-07
9.68342e-08
9.2435e-08
8.89235e-08
8.60926e-08
8.37435e-08
8.17932e-08
8.01252e-08
7.87103e-08
7.74734e-08
7.64081e-08
7.54567e-08
7.46319e-08
7.38833e-08
7.32309e-08
7.26292e-08
7.21027e-08
7.16107e-08
7.11797e-08
7.07699e-08
7.04127e-08
7.00701e-08
6.97719e-08
6.94809e-08
6.92283e-08
6.89839e-08
6.87685e-08
6.85559e-08
6.83739e-08
6.81935e-08
6.80394e-08
6.78839e-08
6.77483e-08
6.76114e-08
6.74966e-08
6.73765e-08
6.72766e-08
6.71721e-08
6.70838e-08
6.69934e-08
6.69174e-08
6.68354e-08
6.67696e-08
6.67014e-08
6.6647e-08
6.65815e-08
6.65339e-08
6.64863e-08
6.64363e-08
6.63852e-08
6.6352e-08
6.63085e-08
6.62796e-08
6.62353e-08
6.61988e-08
6.61613e-08
6.61168e-08
6.60966e-08
6.60828e-08
6.60376e-08
6.60168e-08
6.59893e-08
6.59621e-08
6.59526e-08
6.59598e-08
6.59474e-08
6.59573e-08
6.59633e-08
6.59774e-08
6.5978e-08
6.59944e-08
6.5993e-08
6.60151e-08
6.60169e-08
6.6044e-08
6.60549e-08
6.60893e-08
6.61009e-08
6.61381e-08
6.61539e-08
6.61955e-08
6.62177e-08
6.62666e-08
6.6295e-08
6.63523e-08
6.63822e-08
6.6448e-08
6.64778e-08
6.65622e-08
6.65714e-08
6.71072e-08
3.28864e-06
2.16489e-08
1.24633e-07
1.17924e-07
1.09631e-07
1.02492e-07
9.68529e-08
9.24513e-08
8.89374e-08
8.61042e-08
8.3753e-08
8.18008e-08
8.01312e-08
7.87148e-08
7.74767e-08
7.64101e-08
7.54576e-08
7.46319e-08
7.38824e-08
7.32293e-08
7.26269e-08
7.20997e-08
7.16072e-08
7.11756e-08
7.07653e-08
7.04076e-08
7.00647e-08
6.9766e-08
6.94747e-08
6.92218e-08
6.8977e-08
6.87613e-08
6.85485e-08
6.83663e-08
6.81855e-08
6.80312e-08
6.78755e-08
6.77397e-08
6.76026e-08
6.74876e-08
6.73674e-08
6.72673e-08
6.71627e-08
6.70743e-08
6.69837e-08
6.69076e-08
6.68255e-08
6.67596e-08
6.66912e-08
6.66367e-08
6.65711e-08
6.65235e-08
6.64758e-08
6.64258e-08
6.63745e-08
6.63413e-08
6.62977e-08
6.62688e-08
6.62244e-08
6.61878e-08
6.61503e-08
6.61058e-08
6.60854e-08
6.60717e-08
6.60264e-08
6.60056e-08
6.5978e-08
6.59508e-08
6.59411e-08
6.59482e-08
6.59357e-08
6.59456e-08
6.59515e-08
6.59656e-08
6.59661e-08
6.59825e-08
6.59811e-08
6.60031e-08
6.60049e-08
6.60318e-08
6.60427e-08
6.6077e-08
6.60886e-08
6.61258e-08
6.61415e-08
6.6183e-08
6.62052e-08
6.6254e-08
6.62823e-08
6.63395e-08
6.63694e-08
6.64352e-08
6.6465e-08
6.65493e-08
6.65582e-08
6.70972e-08
3.28842e-06
2.19691e-08
1.24635e-07
1.17941e-07
1.09657e-07
1.02519e-07
9.68772e-08
9.24726e-08
8.89555e-08
8.61193e-08
8.37654e-08
8.18108e-08
8.01391e-08
7.87207e-08
7.74809e-08
7.64128e-08
7.5459e-08
7.4632e-08
7.38814e-08
7.32273e-08
7.2624e-08
7.20959e-08
7.16026e-08
7.11704e-08
7.07595e-08
7.04012e-08
7.00576e-08
6.97585e-08
6.94667e-08
6.92134e-08
6.89682e-08
6.87521e-08
6.85389e-08
6.83564e-08
6.81753e-08
6.80207e-08
6.78647e-08
6.77287e-08
6.75913e-08
6.74761e-08
6.73556e-08
6.72554e-08
6.71506e-08
6.7062e-08
6.69712e-08
6.68949e-08
6.68127e-08
6.67466e-08
6.66781e-08
6.66235e-08
6.65578e-08
6.651e-08
6.64622e-08
6.64122e-08
6.63608e-08
6.63275e-08
6.62838e-08
6.62548e-08
6.62103e-08
6.61737e-08
6.61361e-08
6.60915e-08
6.60711e-08
6.60573e-08
6.60121e-08
6.59912e-08
6.59635e-08
6.59363e-08
6.59261e-08
6.59332e-08
6.59207e-08
6.59304e-08
6.59363e-08
6.59503e-08
6.59507e-08
6.59671e-08
6.59656e-08
6.59875e-08
6.59893e-08
6.60161e-08
6.6027e-08
6.60612e-08
6.60728e-08
6.61098e-08
6.61255e-08
6.61669e-08
6.6189e-08
6.62377e-08
6.6266e-08
6.63231e-08
6.6353e-08
6.64186e-08
6.64483e-08
6.65327e-08
6.65413e-08
6.70843e-08
3.28817e-06
2.23203e-08
1.24637e-07
1.17963e-07
1.09688e-07
1.02551e-07
9.69073e-08
9.24989e-08
8.89779e-08
8.6138e-08
8.37808e-08
8.18233e-08
8.01488e-08
7.87281e-08
7.74862e-08
7.64163e-08
7.54607e-08
7.46323e-08
7.38803e-08
7.32249e-08
7.26204e-08
7.20914e-08
7.15971e-08
7.1164e-08
7.07523e-08
7.03933e-08
7.00491e-08
6.97493e-08
6.9457e-08
6.92031e-08
6.89574e-08
6.87409e-08
6.85272e-08
6.83442e-08
6.81628e-08
6.80078e-08
6.78514e-08
6.77152e-08
6.75775e-08
6.7462e-08
6.73412e-08
6.72407e-08
6.71357e-08
6.70469e-08
6.69559e-08
6.68794e-08
6.6797e-08
6.67307e-08
6.6662e-08
6.66073e-08
6.65414e-08
6.64934e-08
6.64456e-08
6.63955e-08
6.63439e-08
6.63105e-08
6.62667e-08
6.62376e-08
6.6193e-08
6.61563e-08
6.61187e-08
6.60741e-08
6.60534e-08
6.60396e-08
6.59944e-08
6.59734e-08
6.59457e-08
6.59184e-08
6.59077e-08
6.59148e-08
6.59021e-08
6.59117e-08
6.59175e-08
6.59315e-08
6.59319e-08
6.59482e-08
6.59466e-08
6.59684e-08
6.59702e-08
6.59968e-08
6.60076e-08
6.60417e-08
6.60532e-08
6.60902e-08
6.61059e-08
6.61471e-08
6.61691e-08
6.62177e-08
6.62459e-08
6.63029e-08
6.63327e-08
6.63982e-08
6.64278e-08
6.65121e-08
6.65204e-08
6.70684e-08
3.28793e-06
2.27029e-08
1.2464e-07
1.17988e-07
1.09726e-07
1.0259e-07
9.69432e-08
9.25303e-08
8.90047e-08
8.61605e-08
8.37993e-08
8.18382e-08
8.01606e-08
7.87371e-08
7.74926e-08
7.64205e-08
7.54629e-08
7.46326e-08
7.3879e-08
7.32221e-08
7.26163e-08
7.2086e-08
7.15906e-08
7.11565e-08
7.07438e-08
7.0384e-08
7.00389e-08
6.97384e-08
6.94454e-08
6.91908e-08
6.89445e-08
6.87275e-08
6.85132e-08
6.83298e-08
6.81479e-08
6.79925e-08
6.78357e-08
6.76991e-08
6.7561e-08
6.74452e-08
6.73241e-08
6.72233e-08
6.7118e-08
6.70289e-08
6.69376e-08
6.68609e-08
6.67783e-08
6.67118e-08
6.66428e-08
6.65879e-08
6.65218e-08
6.64737e-08
6.64257e-08
6.63755e-08
6.63238e-08
6.62902e-08
6.62463e-08
6.62171e-08
6.61723e-08
6.61355e-08
6.60979e-08
6.60532e-08
6.60324e-08
6.60185e-08
6.59734e-08
6.59521e-08
6.59245e-08
6.58971e-08
6.58859e-08
6.58929e-08
6.588e-08
6.58895e-08
6.58952e-08
6.59091e-08
6.59094e-08
6.59256e-08
6.5924e-08
6.59456e-08
6.59473e-08
6.59738e-08
6.59845e-08
6.60185e-08
6.603e-08
6.60667e-08
6.60824e-08
6.61235e-08
6.61455e-08
6.61939e-08
6.6222e-08
6.62788e-08
6.63085e-08
6.63739e-08
6.64034e-08
6.64876e-08
6.64955e-08
6.70494e-08
3.28775e-06
2.31198e-08
1.24644e-07
1.18017e-07
1.09769e-07
1.02636e-07
9.69851e-08
9.2567e-08
8.9036e-08
8.61867e-08
8.3821e-08
8.18557e-08
8.01744e-08
7.87476e-08
7.75002e-08
7.64254e-08
7.54655e-08
7.46331e-08
7.38775e-08
7.32189e-08
7.26115e-08
7.20799e-08
7.15831e-08
7.11478e-08
7.0734e-08
7.03731e-08
7.00271e-08
6.97258e-08
6.94319e-08
6.91766e-08
6.89296e-08
6.87119e-08
6.84971e-08
6.83131e-08
6.81306e-08
6.79747e-08
6.78174e-08
6.76803e-08
6.75418e-08
6.74256e-08
6.73041e-08
6.7203e-08
6.70974e-08
6.7008e-08
6.69164e-08
6.68394e-08
6.67565e-08
6.66898e-08
6.66205e-08
6.65654e-08
6.64991e-08
6.64508e-08
6.64026e-08
6.63524e-08
6.63005e-08
6.62666e-08
6.62226e-08
6.61933e-08
6.61483e-08
6.61114e-08
6.60738e-08
6.6029e-08
6.60079e-08
6.5994e-08
6.59489e-08
6.59275e-08
6.58997e-08
6.58723e-08
6.58604e-08
6.58674e-08
6.58543e-08
6.58636e-08
6.58692e-08
6.5883e-08
6.58832e-08
6.58993e-08
6.58976e-08
6.59191e-08
6.59208e-08
6.5947e-08
6.59577e-08
6.59914e-08
6.60029e-08
6.60395e-08
6.60551e-08
6.6096e-08
6.61179e-08
6.61661e-08
6.61941e-08
6.62507e-08
6.62804e-08
6.63455e-08
6.6375e-08
6.64591e-08
6.64665e-08
6.70274e-08
3.28765e-06
2.35765e-08
1.24648e-07
1.18051e-07
1.09818e-07
1.02688e-07
9.7033e-08
9.26091e-08
8.9072e-08
8.62169e-08
8.38459e-08
8.18759e-08
8.01904e-08
7.87598e-08
7.7509e-08
7.64313e-08
7.54686e-08
7.46338e-08
7.3876e-08
7.32154e-08
7.26062e-08
7.20729e-08
7.15747e-08
7.1138e-08
7.07229e-08
7.03608e-08
7.00137e-08
6.97114e-08
6.94166e-08
6.91604e-08
6.89126e-08
6.86942e-08
6.84786e-08
6.82939e-08
6.81108e-08
6.79543e-08
6.77965e-08
6.7659e-08
6.75199e-08
6.74033e-08
6.72814e-08
6.71799e-08
6.70738e-08
6.69841e-08
6.68921e-08
6.68149e-08
6.67316e-08
6.66646e-08
6.6595e-08
6.65397e-08
6.64731e-08
6.64246e-08
6.63762e-08
6.63259e-08
6.62737e-08
6.62397e-08
6.61955e-08
6.6166e-08
6.61209e-08
6.60838e-08
6.60461e-08
6.60012e-08
6.59799e-08
6.59659e-08
6.59209e-08
6.58992e-08
6.58714e-08
6.5844e-08
6.58313e-08
6.58381e-08
6.58249e-08
6.5834e-08
6.58394e-08
6.58532e-08
6.58532e-08
6.58692e-08
6.58674e-08
6.58887e-08
6.58904e-08
6.59163e-08
6.59269e-08
6.59605e-08
6.59719e-08
6.60083e-08
6.60239e-08
6.60645e-08
6.60863e-08
6.61343e-08
6.61622e-08
6.62186e-08
6.62481e-08
6.63131e-08
6.63424e-08
6.64265e-08
6.64333e-08
6.70024e-08
3.28767e-06
2.40798e-08
1.24652e-07
1.18088e-07
1.09874e-07
1.02746e-07
9.70872e-08
9.26568e-08
8.91127e-08
8.62512e-08
8.38741e-08
8.18988e-08
8.02085e-08
7.87737e-08
7.75191e-08
7.6438e-08
7.54723e-08
7.46347e-08
7.38744e-08
7.32116e-08
7.26003e-08
7.20651e-08
7.15652e-08
7.11269e-08
7.07104e-08
7.0347e-08
6.99987e-08
6.96952e-08
6.93993e-08
6.91422e-08
6.88934e-08
6.86742e-08
6.84578e-08
6.82724e-08
6.80885e-08
6.79314e-08
6.77729e-08
6.76349e-08
6.74953e-08
6.73781e-08
6.72557e-08
6.71538e-08
6.70472e-08
6.69571e-08
6.68647e-08
6.67872e-08
6.67035e-08
6.66362e-08
6.65662e-08
6.65107e-08
6.64438e-08
6.6395e-08
6.63464e-08
6.6296e-08
6.62435e-08
6.62092e-08
6.61649e-08
6.61352e-08
6.60899e-08
6.60526e-08
6.60149e-08
6.59699e-08
6.59482e-08
6.59343e-08
6.58893e-08
6.58673e-08
6.58395e-08
6.58121e-08
6.57984e-08
6.58052e-08
6.57917e-08
6.58006e-08
6.58059e-08
6.58195e-08
6.58194e-08
6.58353e-08
6.58334e-08
6.58544e-08
6.58561e-08
6.58817e-08
6.58922e-08
6.59255e-08
6.5937e-08
6.59731e-08
6.59886e-08
6.6029e-08
6.60507e-08
6.60984e-08
6.61262e-08
6.61824e-08
6.62118e-08
6.62765e-08
6.63057e-08
6.63897e-08
6.63958e-08
6.69741e-08
3.28781e-06
2.46382e-08
1.24656e-07
1.18129e-07
1.09936e-07
1.02811e-07
9.71478e-08
9.27101e-08
8.91584e-08
8.62896e-08
8.39059e-08
8.19246e-08
8.0229e-08
7.87894e-08
7.75306e-08
7.64456e-08
7.54765e-08
7.46359e-08
7.38728e-08
7.32074e-08
7.25938e-08
7.20566e-08
7.15547e-08
7.11147e-08
7.06966e-08
7.03317e-08
6.9982e-08
6.96772e-08
6.93802e-08
6.9122e-08
6.88721e-08
6.8652e-08
6.84347e-08
6.82484e-08
6.80637e-08
6.79059e-08
6.77467e-08
6.7608e-08
6.74678e-08
6.73501e-08
6.72271e-08
6.71246e-08
6.70176e-08
6.69271e-08
6.68342e-08
6.67563e-08
6.66722e-08
6.66045e-08
6.65342e-08
6.64783e-08
6.64111e-08
6.6362e-08
6.63132e-08
6.62626e-08
6.62098e-08
6.61753e-08
6.61308e-08
6.61009e-08
6.60553e-08
6.60179e-08
6.59801e-08
6.5935e-08
6.5913e-08
6.58989e-08
6.58539e-08
6.58318e-08
6.58038e-08
6.57765e-08
6.57618e-08
6.57684e-08
6.57546e-08
6.57633e-08
6.57684e-08
6.57819e-08
6.57817e-08
6.57974e-08
6.57954e-08
6.58162e-08
6.58178e-08
6.58431e-08
6.58535e-08
6.58865e-08
6.58979e-08
6.59338e-08
6.59493e-08
6.59893e-08
6.6011e-08
6.60583e-08
6.60859e-08
6.61419e-08
6.61712e-08
6.62357e-08
6.62647e-08
6.63486e-08
6.6354e-08
6.69426e-08
3.28808e-06
2.52608e-08
1.24661e-07
1.18175e-07
1.10004e-07
1.02883e-07
9.72149e-08
9.27692e-08
8.92091e-08
8.63322e-08
8.39412e-08
8.19534e-08
8.02518e-08
7.8807e-08
7.75434e-08
7.64543e-08
7.54813e-08
7.46373e-08
7.38711e-08
7.3203e-08
7.25868e-08
7.20472e-08
7.15432e-08
7.11013e-08
7.06814e-08
7.03149e-08
6.99636e-08
6.96575e-08
6.93591e-08
6.90996e-08
6.88486e-08
6.86275e-08
6.84091e-08
6.8222e-08
6.80364e-08
6.78777e-08
6.77177e-08
6.75784e-08
6.74374e-08
6.73191e-08
6.71955e-08
6.70925e-08
6.69849e-08
6.68939e-08
6.68005e-08
6.67221e-08
6.66376e-08
6.65695e-08
6.64987e-08
6.64425e-08
6.63749e-08
6.63256e-08
6.62764e-08
6.62257e-08
6.61726e-08
6.61377e-08
6.6093e-08
6.60629e-08
6.60171e-08
6.59794e-08
6.59416e-08
6.58963e-08
6.58739e-08
6.58599e-08
6.58149e-08
6.57924e-08
6.57644e-08
6.5737e-08
6.57213e-08
6.57277e-08
6.57136e-08
6.57221e-08
6.57269e-08
6.57403e-08
6.57399e-08
6.57555e-08
6.57533e-08
6.57738e-08
6.57754e-08
6.58004e-08
6.58107e-08
6.58434e-08
6.58547e-08
6.58903e-08
6.59057e-08
6.59454e-08
6.5967e-08
6.6014e-08
6.60415e-08
6.60971e-08
6.61263e-08
6.61905e-08
6.62193e-08
6.63031e-08
6.63078e-08
6.69078e-08
3.28842e-06
2.5958e-08
1.24666e-07
1.18224e-07
1.10079e-07
1.02962e-07
9.72886e-08
9.28343e-08
8.92649e-08
8.63793e-08
8.39803e-08
8.19852e-08
8.02772e-08
7.88266e-08
7.75578e-08
7.6464e-08
7.54869e-08
7.46391e-08
7.38695e-08
7.31982e-08
7.25793e-08
7.20372e-08
7.15308e-08
7.10868e-08
7.06648e-08
7.02965e-08
6.99435e-08
6.96359e-08
6.9336e-08
6.90752e-08
6.88229e-08
6.86007e-08
6.83812e-08
6.8193e-08
6.80064e-08
6.78469e-08
6.7686e-08
6.75459e-08
6.74041e-08
6.72852e-08
6.71608e-08
6.70572e-08
6.6949e-08
6.68575e-08
6.67635e-08
6.66847e-08
6.65997e-08
6.65311e-08
6.64598e-08
6.64032e-08
6.63353e-08
6.62855e-08
6.62361e-08
6.61853e-08
6.61317e-08
6.60965e-08
6.60516e-08
6.60213e-08
6.59751e-08
6.59372e-08
6.58993e-08
6.58539e-08
6.58311e-08
6.5817e-08
6.5772e-08
6.57492e-08
6.5721e-08
6.56936e-08
6.56768e-08
6.56831e-08
6.56686e-08
6.56768e-08
6.56814e-08
6.56947e-08
6.56941e-08
6.57095e-08
6.57072e-08
6.57274e-08
6.57289e-08
6.57535e-08
6.57636e-08
6.5796e-08
6.58073e-08
6.58425e-08
6.58579e-08
6.58973e-08
6.59186e-08
6.59654e-08
6.59926e-08
6.6048e-08
6.6077e-08
6.61408e-08
6.61694e-08
6.62531e-08
6.6257e-08
6.68696e-08
3.28876e-06
2.67405e-08
1.24672e-07
1.18278e-07
1.1016e-07
1.03049e-07
9.7369e-08
9.29055e-08
8.93261e-08
8.6431e-08
8.40232e-08
8.20202e-08
8.03051e-08
7.88482e-08
7.75737e-08
7.64749e-08
7.54932e-08
7.46413e-08
7.38679e-08
7.31933e-08
7.25712e-08
7.20263e-08
7.15174e-08
7.1071e-08
7.06469e-08
7.02766e-08
6.99218e-08
6.96124e-08
6.9311e-08
6.90487e-08
6.8795e-08
6.85715e-08
6.83508e-08
6.81615e-08
6.79738e-08
6.78133e-08
6.76515e-08
6.75105e-08
6.73679e-08
6.72482e-08
6.71231e-08
6.70188e-08
6.69099e-08
6.68178e-08
6.67232e-08
6.66439e-08
6.65583e-08
6.64893e-08
6.64174e-08
6.63604e-08
6.62921e-08
6.62419e-08
6.61921e-08
6.61411e-08
6.60872e-08
6.60516e-08
6.60064e-08
6.59758e-08
6.59294e-08
6.58912e-08
6.58532e-08
6.58077e-08
6.57844e-08
6.57702e-08
6.57252e-08
6.57021e-08
6.56738e-08
6.56463e-08
6.56284e-08
6.56344e-08
6.56195e-08
6.56275e-08
6.56318e-08
6.56449e-08
6.5644e-08
6.56593e-08
6.56568e-08
6.56767e-08
6.56781e-08
6.57023e-08
6.57123e-08
6.57444e-08
6.57556e-08
6.57904e-08
6.58057e-08
6.58447e-08
6.58659e-08
6.59123e-08
6.59393e-08
6.59943e-08
6.60231e-08
6.60867e-08
6.61151e-08
6.61985e-08
6.62015e-08
6.6828e-08
3.28899e-06
2.76198e-08
1.24677e-07
1.18335e-07
1.10247e-07
1.03142e-07
9.74564e-08
9.29829e-08
8.93928e-08
8.64874e-08
8.407e-08
8.20585e-08
8.03357e-08
7.88719e-08
7.75912e-08
7.64869e-08
7.55003e-08
7.46439e-08
7.38664e-08
7.31882e-08
7.25628e-08
7.20148e-08
7.1503e-08
7.10542e-08
7.06277e-08
7.02552e-08
6.98984e-08
6.95872e-08
6.9284e-08
6.90201e-08
6.87649e-08
6.854e-08
6.8318e-08
6.81275e-08
6.79386e-08
6.7777e-08
6.76141e-08
6.74723e-08
6.73287e-08
6.72082e-08
6.70823e-08
6.69773e-08
6.68676e-08
6.67749e-08
6.66795e-08
6.65997e-08
6.65135e-08
6.6444e-08
6.63715e-08
6.63141e-08
6.62452e-08
6.61947e-08
6.61444e-08
6.60933e-08
6.60388e-08
6.60029e-08
6.59574e-08
6.59266e-08
6.58797e-08
6.58413e-08
6.58033e-08
6.57575e-08
6.57338e-08
6.57194e-08
6.56745e-08
6.5651e-08
6.56225e-08
6.5595e-08
6.55759e-08
6.55816e-08
6.55663e-08
6.55739e-08
6.55779e-08
6.55909e-08
6.55898e-08
6.56048e-08
6.56022e-08
6.56217e-08
6.5623e-08
6.56468e-08
6.56567e-08
6.56883e-08
6.56994e-08
6.57339e-08
6.57491e-08
6.57877e-08
6.58088e-08
6.58547e-08
6.58815e-08
6.59361e-08
6.59648e-08
6.60279e-08
6.60561e-08
6.61393e-08
6.61414e-08
6.67828e-08
3.28895e-06
2.86074e-08
1.24683e-07
1.18396e-07
1.10341e-07
1.03243e-07
9.75509e-08
9.30667e-08
8.94651e-08
8.65486e-08
8.41211e-08
8.21003e-08
8.03692e-08
7.8898e-08
7.76106e-08
7.65003e-08
7.55083e-08
7.46471e-08
7.38652e-08
7.3183e-08
7.25539e-08
7.20027e-08
7.14878e-08
7.10362e-08
7.06071e-08
7.02324e-08
6.98733e-08
6.95601e-08
6.9255e-08
6.89894e-08
6.87325e-08
6.85062e-08
6.82827e-08
6.80909e-08
6.79007e-08
6.77379e-08
6.75739e-08
6.74311e-08
6.72865e-08
6.71651e-08
6.70383e-08
6.69325e-08
6.6822e-08
6.67286e-08
6.66325e-08
6.65521e-08
6.64652e-08
6.63951e-08
6.6322e-08
6.62641e-08
6.61947e-08
6.61437e-08
6.6093e-08
6.60417e-08
6.59867e-08
6.59504e-08
6.59045e-08
6.58734e-08
6.58262e-08
6.57875e-08
6.57493e-08
6.57034e-08
6.56791e-08
6.56647e-08
6.56197e-08
6.55958e-08
6.55672e-08
6.55395e-08
6.55192e-08
6.55246e-08
6.55089e-08
6.55161e-08
6.55198e-08
6.55326e-08
6.55313e-08
6.5546e-08
6.55432e-08
6.55623e-08
6.55636e-08
6.55869e-08
6.55966e-08
6.56278e-08
6.56388e-08
6.56729e-08
6.5688e-08
6.57261e-08
6.5747e-08
6.57925e-08
6.58191e-08
6.58733e-08
6.59017e-08
6.59645e-08
6.59924e-08
6.60754e-08
6.60765e-08
6.6734e-08
3.2884e-06
2.97155e-08
1.24689e-07
1.18462e-07
1.10442e-07
1.03351e-07
9.76525e-08
9.31572e-08
8.95433e-08
8.66149e-08
8.41764e-08
8.21457e-08
8.04056e-08
7.89264e-08
7.76318e-08
7.65152e-08
7.55172e-08
7.46508e-08
7.38642e-08
7.31777e-08
7.25447e-08
7.19899e-08
7.14717e-08
7.10172e-08
7.05853e-08
7.0208e-08
6.98465e-08
6.95312e-08
6.92241e-08
6.89566e-08
6.86979e-08
6.847e-08
6.82449e-08
6.80517e-08
6.78601e-08
6.76961e-08
6.75309e-08
6.7387e-08
6.72413e-08
6.71189e-08
6.69911e-08
6.68845e-08
6.67731e-08
6.66789e-08
6.6582e-08
6.6501e-08
6.64134e-08
6.63427e-08
6.62688e-08
6.62104e-08
6.61405e-08
6.6089e-08
6.60378e-08
6.59863e-08
6.59307e-08
6.58939e-08
6.58477e-08
6.58163e-08
6.57687e-08
6.57297e-08
6.56914e-08
6.56453e-08
6.56204e-08
6.56059e-08
6.55609e-08
6.55366e-08
6.55077e-08
6.548e-08
6.54584e-08
6.54634e-08
6.54472e-08
6.54541e-08
6.54574e-08
6.54699e-08
6.54683e-08
6.54828e-08
6.54798e-08
6.54985e-08
6.54997e-08
6.55225e-08
6.5532e-08
6.55627e-08
6.55737e-08
6.56073e-08
6.56223e-08
6.566e-08
6.56807e-08
6.57256e-08
6.5752e-08
6.58058e-08
6.5834e-08
6.58963e-08
6.59239e-08
6.60066e-08
6.60067e-08
6.66814e-08
3.28708e-06
3.09561e-08
1.24695e-07
1.1853e-07
1.10549e-07
1.03466e-07
9.77616e-08
9.32544e-08
8.96274e-08
8.66864e-08
8.42361e-08
8.21948e-08
8.04451e-08
7.89573e-08
7.7655e-08
7.65315e-08
7.55273e-08
7.46553e-08
7.38635e-08
7.31724e-08
7.25351e-08
7.19766e-08
7.14548e-08
7.09971e-08
7.05622e-08
7.01822e-08
6.98182e-08
6.95005e-08
6.91912e-08
6.89217e-08
6.86611e-08
6.84315e-08
6.82047e-08
6.80099e-08
6.78168e-08
6.76514e-08
6.74849e-08
6.73399e-08
6.7193e-08
6.70696e-08
6.69407e-08
6.68332e-08
6.67209e-08
6.66259e-08
6.65281e-08
6.64463e-08
6.6358e-08
6.62866e-08
6.6212e-08
6.6153e-08
6.60825e-08
6.60304e-08
6.59788e-08
6.5927e-08
6.58709e-08
6.58336e-08
6.57869e-08
6.57552e-08
6.57072e-08
6.56678e-08
6.56294e-08
6.55831e-08
6.55575e-08
6.55429e-08
6.54979e-08
6.54731e-08
6.5444e-08
6.54162e-08
6.53933e-08
6.53979e-08
6.53811e-08
6.53877e-08
6.53906e-08
6.54029e-08
6.5401e-08
6.54152e-08
6.5412e-08
6.54302e-08
6.54313e-08
6.54535e-08
6.54629e-08
6.54931e-08
6.5504e-08
6.55371e-08
6.5552e-08
6.55891e-08
6.56096e-08
6.56541e-08
6.56801e-08
6.57334e-08
6.57614e-08
6.58233e-08
6.58506e-08
6.5933e-08
6.5932e-08
6.66249e-08
3.28462e-06
3.23416e-08
1.24701e-07
1.18603e-07
1.10663e-07
1.03589e-07
9.78782e-08
9.33586e-08
8.97177e-08
8.67632e-08
8.43005e-08
8.22478e-08
8.04879e-08
7.8991e-08
7.76804e-08
7.65494e-08
7.55386e-08
7.46606e-08
7.38633e-08
7.31672e-08
7.25254e-08
7.19627e-08
7.14372e-08
7.0976e-08
7.05379e-08
7.0155e-08
6.97882e-08
6.9468e-08
6.91564e-08
6.88847e-08
6.8622e-08
6.83906e-08
6.8162e-08
6.79656e-08
6.77708e-08
6.7604e-08
6.7436e-08
6.72898e-08
6.71416e-08
6.70171e-08
6.68871e-08
6.67786e-08
6.66653e-08
6.65694e-08
6.64707e-08
6.63882e-08
6.6299e-08
6.62269e-08
6.61515e-08
6.60919e-08
6.60208e-08
6.59681e-08
6.59158e-08
6.58638e-08
6.5807e-08
6.57692e-08
6.57221e-08
6.56901e-08
6.56415e-08
6.56018e-08
6.55633e-08
6.55168e-08
6.54905e-08
6.54757e-08
6.54307e-08
6.54055e-08
6.53761e-08
6.53481e-08
6.5324e-08
6.5328e-08
6.53107e-08
6.53168e-08
6.53193e-08
6.53313e-08
6.53291e-08
6.5343e-08
6.53396e-08
6.53574e-08
6.53583e-08
6.53799e-08
6.53891e-08
6.54188e-08
6.54296e-08
6.54622e-08
6.54769e-08
6.55135e-08
6.55338e-08
6.55777e-08
6.56035e-08
6.56563e-08
6.5684e-08
6.57453e-08
6.57723e-08
6.58543e-08
6.58523e-08
6.65643e-08
3.28062e-06
3.38845e-08
1.24707e-07
1.18679e-07
1.10783e-07
1.0372e-07
9.80024e-08
9.34698e-08
8.98144e-08
8.68457e-08
8.43696e-08
8.23049e-08
8.05341e-08
7.90274e-08
7.7708e-08
7.65692e-08
7.55511e-08
7.46667e-08
7.38635e-08
7.31622e-08
7.25155e-08
7.19485e-08
7.14188e-08
7.0954e-08
7.05125e-08
7.01264e-08
6.97566e-08
6.94338e-08
6.91197e-08
6.88457e-08
6.85807e-08
6.83473e-08
6.81168e-08
6.79186e-08
6.77221e-08
6.75537e-08
6.73842e-08
6.72367e-08
6.70871e-08
6.69614e-08
6.68302e-08
6.67206e-08
6.66063e-08
6.65095e-08
6.64097e-08
6.63264e-08
6.62364e-08
6.61635e-08
6.60872e-08
6.6027e-08
6.59551e-08
6.59018e-08
6.5849e-08
6.57966e-08
6.57391e-08
6.57008e-08
6.56532e-08
6.56209e-08
6.55718e-08
6.55317e-08
6.5493e-08
6.54463e-08
6.54193e-08
6.54044e-08
6.53592e-08
6.53336e-08
6.53039e-08
6.52757e-08
6.52503e-08
6.52537e-08
6.52358e-08
6.52415e-08
6.52435e-08
6.52552e-08
6.52526e-08
6.52662e-08
6.52626e-08
6.52798e-08
6.52807e-08
6.53017e-08
6.53107e-08
6.53397e-08
6.53504e-08
6.53825e-08
6.53971e-08
6.54331e-08
6.54531e-08
6.54964e-08
6.55219e-08
6.55741e-08
6.56016e-08
6.56624e-08
6.5689e-08
6.57706e-08
6.57675e-08
6.64996e-08
3.27459e-06
3.55967e-08
1.24714e-07
1.18759e-07
1.1091e-07
1.03859e-07
9.81345e-08
9.35884e-08
8.99177e-08
8.69339e-08
8.44438e-08
8.23663e-08
8.05839e-08
7.90668e-08
7.7738e-08
7.65908e-08
7.55651e-08
7.46738e-08
7.38644e-08
7.31575e-08
7.25056e-08
7.19338e-08
7.13999e-08
7.09311e-08
7.04859e-08
7.00965e-08
6.97236e-08
6.93979e-08
6.9081e-08
6.88046e-08
6.85372e-08
6.83017e-08
6.80691e-08
6.78691e-08
6.76707e-08
6.75007e-08
6.73296e-08
6.71806e-08
6.70296e-08
6.69026e-08
6.67701e-08
6.66594e-08
6.65439e-08
6.64461e-08
6.63453e-08
6.62611e-08
6.61701e-08
6.60964e-08
6.60192e-08
6.59583e-08
6.58857e-08
6.58316e-08
6.57781e-08
6.57255e-08
6.56673e-08
6.56283e-08
6.55802e-08
6.55476e-08
6.54979e-08
6.54574e-08
6.54185e-08
6.53715e-08
6.53438e-08
6.53287e-08
6.52834e-08
6.52573e-08
6.52273e-08
6.51989e-08
6.51722e-08
6.51749e-08
6.51564e-08
6.51617e-08
6.51631e-08
6.51745e-08
6.51716e-08
6.51848e-08
6.51809e-08
6.51976e-08
6.51984e-08
6.52187e-08
6.52275e-08
6.52559e-08
6.52664e-08
6.52979e-08
6.53124e-08
6.53478e-08
6.53676e-08
6.54103e-08
6.54354e-08
6.5487e-08
6.55142e-08
6.55744e-08
6.56007e-08
6.56817e-08
6.56775e-08
6.64305e-08
3.26598e-06
3.74895e-08
1.2472e-07
1.18843e-07
1.11043e-07
1.04005e-07
9.82745e-08
9.37145e-08
9.00277e-08
8.70282e-08
8.45232e-08
8.24321e-08
8.06375e-08
7.91093e-08
7.77705e-08
7.66144e-08
7.55807e-08
7.46821e-08
7.3866e-08
7.31531e-08
7.24957e-08
7.19189e-08
7.13803e-08
7.09074e-08
7.04583e-08
7.00654e-08
6.96891e-08
6.93604e-08
6.90406e-08
6.87615e-08
6.84916e-08
6.82539e-08
6.80191e-08
6.7817e-08
6.76166e-08
6.74448e-08
6.7272e-08
6.71215e-08
6.69689e-08
6.68406e-08
6.67067e-08
6.65948e-08
6.6478e-08
6.63792e-08
6.62772e-08
6.61921e-08
6.61001e-08
6.60256e-08
6.59473e-08
6.58857e-08
6.58123e-08
6.57575e-08
6.57033e-08
6.56503e-08
6.55913e-08
6.55517e-08
6.55031e-08
6.547e-08
6.54198e-08
6.53788e-08
6.53397e-08
6.52925e-08
6.5264e-08
6.52487e-08
6.52033e-08
6.51767e-08
6.51463e-08
6.51176e-08
6.50896e-08
6.50916e-08
6.50725e-08
6.50773e-08
6.50782e-08
6.50892e-08
6.50859e-08
6.50987e-08
6.50945e-08
6.51107e-08
6.51113e-08
6.5131e-08
6.51394e-08
6.51672e-08
6.51776e-08
6.52085e-08
6.52228e-08
6.52575e-08
6.52771e-08
6.53191e-08
6.53438e-08
6.53949e-08
6.54217e-08
6.54813e-08
6.55072e-08
6.55877e-08
6.55824e-08
6.63569e-08
3.25416e-06
3.95735e-08
1.24726e-07
1.1893e-07
1.11183e-07
1.0416e-07
9.84227e-08
9.38483e-08
9.01448e-08
8.71286e-08
8.4608e-08
8.25027e-08
8.0695e-08
7.91552e-08
7.78058e-08
7.66403e-08
7.55979e-08
7.46916e-08
7.38685e-08
7.31491e-08
7.24859e-08
7.19039e-08
7.13603e-08
7.0883e-08
7.04297e-08
7.0033e-08
6.96531e-08
6.93212e-08
6.89984e-08
6.87165e-08
6.84438e-08
6.82038e-08
6.79666e-08
6.77624e-08
6.75598e-08
6.73862e-08
6.72115e-08
6.70595e-08
6.69052e-08
6.67754e-08
6.66401e-08
6.65269e-08
6.64088e-08
6.63088e-08
6.62056e-08
6.61195e-08
6.60265e-08
6.5951e-08
6.58717e-08
6.58092e-08
6.5735e-08
6.56795e-08
6.56244e-08
6.55711e-08
6.55112e-08
6.5471e-08
6.54218e-08
6.53883e-08
6.53374e-08
6.5296e-08
6.52567e-08
6.52092e-08
6.51798e-08
6.51643e-08
6.51187e-08
6.50916e-08
6.50608e-08
6.50319e-08
6.50027e-08
6.50038e-08
6.4984e-08
6.49882e-08
6.49885e-08
6.49992e-08
6.49954e-08
6.50078e-08
6.50034e-08
6.50189e-08
6.50194e-08
6.50384e-08
6.50466e-08
6.50737e-08
6.50839e-08
6.51141e-08
6.51282e-08
6.51623e-08
6.51815e-08
6.52229e-08
6.52472e-08
6.52976e-08
6.53241e-08
6.53831e-08
6.54085e-08
6.54883e-08
6.54819e-08
6.62785e-08
3.23846e-06
4.18576e-08
1.24731e-07
1.1902e-07
1.1133e-07
1.04322e-07
9.85792e-08
9.399e-08
9.0269e-08
8.72355e-08
8.46985e-08
8.25781e-08
8.07567e-08
7.92046e-08
7.7844e-08
7.66685e-08
7.56171e-08
7.47026e-08
7.38719e-08
7.31458e-08
7.24764e-08
7.18887e-08
7.134e-08
7.08579e-08
7.04002e-08
6.99995e-08
6.96158e-08
6.92805e-08
6.89544e-08
6.86695e-08
6.8394e-08
6.81514e-08
6.79117e-08
6.77052e-08
6.75005e-08
6.73248e-08
6.71481e-08
6.69945e-08
6.68384e-08
6.67071e-08
6.65702e-08
6.64556e-08
6.63361e-08
6.6235e-08
6.61304e-08
6.60433e-08
6.59491e-08
6.58726e-08
6.57922e-08
6.57289e-08
6.56538e-08
6.55974e-08
6.55415e-08
6.54878e-08
6.5427e-08
6.53861e-08
6.53362e-08
6.53024e-08
6.52508e-08
6.52089e-08
6.51693e-08
6.51216e-08
6.50913e-08
6.50756e-08
6.50298e-08
6.50021e-08
6.49709e-08
6.49417e-08
6.49112e-08
6.49113e-08
6.48909e-08
6.48946e-08
6.48942e-08
6.49044e-08
6.49002e-08
6.49122e-08
6.49074e-08
6.49224e-08
6.49227e-08
6.49409e-08
6.49488e-08
6.49751e-08
6.49852e-08
6.50147e-08
6.50286e-08
6.5062e-08
6.50809e-08
6.51215e-08
6.51455e-08
6.51951e-08
6.52213e-08
6.52796e-08
6.53046e-08
6.53836e-08
6.53761e-08
6.61952e-08
3.21817e-06
4.43486e-08
1.24737e-07
1.19113e-07
1.11483e-07
1.04493e-07
9.87442e-08
9.41398e-08
9.04008e-08
8.7349e-08
8.47948e-08
8.26586e-08
8.08228e-08
7.92577e-08
7.78854e-08
7.66993e-08
7.56382e-08
7.47151e-08
7.38765e-08
7.31433e-08
7.24672e-08
7.18736e-08
7.13193e-08
7.08323e-08
7.03699e-08
6.9965e-08
6.95773e-08
6.92383e-08
6.89087e-08
6.86207e-08
6.83421e-08
6.80969e-08
6.78545e-08
6.76457e-08
6.74385e-08
6.72607e-08
6.7082e-08
6.69265e-08
6.67686e-08
6.66356e-08
6.64971e-08
6.6381e-08
6.626e-08
6.61576e-08
6.60517e-08
6.59635e-08
6.5868e-08
6.57905e-08
6.57089e-08
6.56447e-08
6.55687e-08