/*--------------------------------*- C++ -*----------------------------------*\
| =========                 |                                                 |
| \\      /  F ield         | OpenFOAM: The Open Source CFD Toolbox           |
|  \\    /   O peration     | Version:  v2012                                 |
|   \\  /    A nd           | Website:  www.openfoam.com                      |
|    \\/     M anipulation  |                                                 |
\*---------------------------------------------------------------------------*/
FoamFile
{
    version     2.0;
    format      ascii;
    class       volScalarField;
    location    "10.5";
    object      k;
}
// * * * * * * * * * * * * * * * * * * * * * * * * * * * * * * * * * * * * * //

dimensions      [0 2 -2 0 0 0 0];


internalField   nonuniform List<scalar> 
209825
(
0.00102141
0.000966324
0.000939048
0.000923239
0.000912768
0.000905343
0.000899721
0.000895399
0.00089189
0.000889092
0.000886701
0.000884763
0.000883041
0.000881615
0.000880355
0.000879309
0.000878337
0.000877537
0.000876766
0.000876141
0.000875518
0.000875019
0.000874534
0.000874155
0.000873747
0.000873444
0.000873132
0.000872906
0.000872618
0.00087245
0.0008723
0.000872163
0.000872007
0.000871888
0.000871729
0.000871629
0.000871538
0.000871463
0.000871378
0.000871311
0.0008712
0.000871131
0.00087107
0.000871024
0.000870957
0.000870909
0.000870868
0.000870795
0.000870761
0.000870721
0.000870612
0.000870632
0.000870632
0.000870629
0.000870574
0.000870655
0.000870655
0.000870654
0.000870638
0.000870718
0.000870717
0.000870715
0.000870877
0.000871088
0.000871088
0.000871087
0.000871226
0.000871538
0.000871579
0.000871579
0.000871733
0.000871995
0.000872281
0.000872546
0.000872867
0.000872982
0.000873175
0.000873441
0.000873828
0.000874201
0.000874632
0.000875136
0.000875546
0.00087607
0.000876679
0.0008775
0.000878316
0.000879473
0.000880572
0.000882458
0.000883787
0.000887854
0.000888892
0.000903777
0.00272882
0.00158813
0.00102141
0.000966316
0.000939033
0.000923219
0.000912744
0.000905316
0.000899692
0.000895368
0.000891858
0.000889058
0.000886667
0.000884727
0.000883005
0.000881578
0.000880318
0.000879271
0.000878299
0.000877497
0.000876726
0.000876101
0.000875477
0.000874978
0.000874493
0.000874113
0.000873705
0.000873403
0.00087309
0.000872864
0.000872576
0.000872407
0.000872258
0.00087212
0.000871964
0.000871845
0.000871686
0.000871586
0.000871495
0.00087142
0.000871335
0.000871268
0.000871157
0.000871087
0.000871026
0.000870981
0.000870914
0.000870865
0.000870824
0.000870751
0.000870717
0.000870678
0.000870568
0.000870589
0.000870589
0.000870585
0.00087053
0.000870611
0.000870611
0.00087061
0.000870594
0.000870674
0.000870674
0.000870671
0.000870833
0.000871044
0.000871044
0.000871043
0.000871182
0.000871494
0.000871535
0.000871535
0.000871689
0.000871952
0.000872238
0.000872503
0.000872823
0.000872938
0.000873132
0.000873397
0.000873784
0.000874158
0.000874589
0.000875094
0.000875504
0.000876027
0.000876636
0.000877458
0.000878274
0.000879432
0.000880531
0.000882417
0.000883747
0.000887816
0.000888851
0.000903764
0.00273176
0.00159294
0.00102141
0.000966273
0.000938962
0.000923128
0.000912639
0.0009052
0.000899568
0.000895237
0.000891721
0.000888917
0.000886521
0.000884579
0.000882853
0.000881424
0.000880161
0.000879112
0.000878139
0.000877336
0.000876563
0.000875937
0.000875312
0.000874812
0.000874325
0.000873945
0.000873536
0.000873233
0.000872919
0.000872693
0.000872404
0.000872235
0.000872084
0.000871947
0.000871791
0.00087167
0.000871512
0.000871411
0.00087132
0.000871244
0.000871159
0.000871091
0.000870981
0.000870911
0.000870849
0.000870804
0.000870737
0.000870688
0.000870647
0.000870573
0.00087054
0.0008705
0.000870391
0.000870411
0.000870411
0.000870407
0.000870352
0.000870433
0.000870433
0.000870432
0.000870416
0.000870495
0.000870495
0.000870493
0.000870655
0.000870866
0.000870866
0.000870865
0.000871004
0.000871316
0.000871357
0.000871357
0.000871512
0.000871774
0.00087206
0.000872325
0.000872646
0.000872762
0.000872956
0.000873221
0.000873608
0.000873982
0.000874413
0.000874919
0.000875329
0.000875853
0.000876463
0.000877285
0.000878102
0.00087926
0.00088036
0.000882247
0.000883577
0.000887648
0.000888679
0.000903644
0.00273931
0.00160377
0.00102139
0.000966201
0.000938841
0.000922975
0.000912461
0.000905005
0.000899358
0.000895016
0.000891491
0.00088868
0.000886277
0.000884329
0.000882599
0.000881165
0.000879899
0.000878846
0.00087787
0.000877064
0.000876289
0.00087566
0.000875034
0.000874532
0.000874044
0.000873662
0.000873252
0.000872947
0.000872632
0.000872405
0.000872115
0.000871945
0.000871794
0.000871655
0.000871498
0.000871378
0.000871218
0.000871117
0.000871025
0.000870949
0.000870864
0.000870796
0.000870685
0.000870614
0.000870552
0.000870507
0.000870439
0.000870391
0.000870349
0.000870276
0.000870241
0.000870202
0.000870092
0.000870112
0.000870112
0.000870108
0.000870053
0.000870133
0.000870133
0.000870133
0.000870117
0.000870196
0.000870196
0.000870194
0.000870356
0.000870566
0.000870566
0.000870566
0.000870705
0.000871016
0.000871059
0.000871059
0.000871213
0.000871476
0.000871762
0.000872027
0.000872348
0.000872465
0.00087266
0.000872925
0.000873312
0.000873687
0.000874118
0.000874624
0.000875036
0.000875561
0.000876171
0.000876994
0.000877811
0.000878971
0.000880071
0.00088196
0.00088329
0.000887365
0.000888387
0.000903433
0.00275147
0.00162057
0.00102138
0.000966098
0.000938671
0.000922758
0.000912211
0.000904729
0.000899063
0.000894705
0.000891167
0.000888344
0.000885932
0.000883976
0.000882239
0.0008808
0.000879528
0.000878471
0.00087749
0.000876681
0.000875902
0.000875271
0.000874641
0.000874137
0.000873647
0.000873263
0.00087285
0.000872544
0.000872228
0.000871999
0.000871707
0.000871536
0.000871384
0.000871244
0.000871086
0.000870965
0.000870804
0.000870702
0.00087061
0.000870533
0.000870447
0.000870378
0.000870267
0.000870196
0.000870133
0.000870087
0.00087002
0.000869971
0.000869929
0.000869855
0.000869821
0.000869781
0.000869671
0.00086969
0.00086969
0.000869687
0.000869631
0.000869711
0.000869711
0.00086971
0.000869694
0.000869773
0.000869773
0.000869771
0.000869933
0.000870144
0.000870144
0.000870144
0.000870282
0.000870594
0.000870638
0.000870638
0.000870792
0.000871055
0.000871341
0.000871607
0.000871928
0.000872047
0.000872242
0.000872508
0.000872895
0.00087327
0.000873701
0.000874209
0.000874622
0.000875148
0.000875758
0.000876583
0.000877401
0.000878563
0.000879662
0.000881555
0.000882885
0.000886964
0.000887975
0.00090313
0.00276849
0.00164342
0.00102136
0.000965966
0.000938451
0.000922477
0.000911886
0.000904372
0.00089868
0.000894301
0.000890746
0.000887909
0.000885486
0.000883519
0.000881773
0.000880326
0.000879047
0.000877984
0.000876998
0.000876184
0.000875401
0.000874766
0.000874133
0.000873625
0.000873132
0.000872745
0.00087233
0.000872022
0.000871703
0.000871473
0.000871179
0.000871006
0.000870852
0.000870711
0.000870552
0.000870429
0.000870268
0.000870164
0.000870071
0.000869994
0.000869907
0.000869837
0.000869725
0.000869654
0.000869591
0.000869544
0.000869476
0.000869426
0.000869384
0.00086931
0.000869275
0.000869235
0.000869126
0.000869144
0.000869144
0.00086914
0.000869084
0.000869164
0.000869163
0.000869163
0.000869147
0.000869226
0.000869226
0.000869223
0.000869385
0.000869597
0.000869597
0.000869597
0.000869735
0.000870046
0.000870092
0.000870091
0.000870246
0.000870509
0.000870795
0.000871061
0.000871384
0.000871504
0.0008717
0.000871966
0.000872353
0.00087273
0.000873161
0.00087367
0.000874084
0.000874612
0.000875223
0.00087605
0.000876868
0.000878033
0.000879132
0.000881028
0.000882358
0.000886443
0.00088744
0.000902734
0.00279065
0.00167234
0.00102134
0.000965803
0.00093818
0.000922131
0.000911487
0.000903932
0.000898208
0.000893804
0.000890228
0.000887374
0.000884936
0.000882956
0.0008812
0.000879743
0.000878455
0.000877385
0.000876392
0.000875572
0.000874784
0.000874144
0.000873506
0.000872994
0.000872498
0.000872108
0.00087169
0.000871378
0.000871057
0.000870824
0.000870529
0.000870353
0.000870197
0.000870055
0.000869893
0.000869769
0.000869607
0.000869502
0.000869407
0.000869329
0.000869241
0.000869171
0.000869058
0.000868986
0.000868922
0.000868874
0.000868806
0.000868756
0.000868713
0.000868639
0.000868603
0.000868563
0.000868453
0.000868471
0.000868471
0.000868466
0.000868409
0.000868489
0.000868489
0.000868488
0.000868472
0.00086855
0.000868551
0.000868548
0.000868709
0.000868922
0.000868922
0.000868922
0.000869059
0.000869371
0.000869418
0.000869418
0.000869572
0.000869836
0.000870123
0.000870389
0.000870712
0.000870835
0.000871031
0.000871298
0.000871685
0.000872063
0.000872495
0.000873006
0.000873422
0.000873952
0.000874563
0.000875392
0.000876211
0.000877379
0.000878477
0.000880379
0.000881708
0.0008858
0.000886779
0.000902245
0.00281824
0.00170732
0.00102131
0.00096561
0.000937858
0.00092172
0.000911011
0.000903409
0.000897647
0.000893213
0.000889612
0.000886737
0.00088428
0.000882286
0.000880516
0.000879048
0.00087775
0.000876671
0.00087567
0.000874843
0.000874048
0.000873402
0.000872759
0.000872243
0.000871741
0.000871348
0.000870926
0.000870611
0.000870287
0.000870051
0.000869753
0.000869575
0.000869416
0.000869272
0.000869109
0.000868983
0.000868818
0.000868712
0.000868616
0.000868536
0.000868447
0.000868376
0.000868262
0.000868189
0.000868124
0.000868076
0.000868007
0.000867956
0.000867912
0.000867838
0.000867802
0.000867761
0.000867651
0.000867668
0.000867668
0.000867663
0.000867605
0.000867684
0.000867684
0.000867683
0.000867667
0.000867746
0.000867746
0.000867743
0.000867904
0.000868118
0.000868118
0.000868117
0.000868254
0.000868567
0.000868616
0.000868615
0.00086877
0.000869033
0.00086932
0.000869587
0.000869912
0.000870037
0.000870234
0.000870501
0.000870889
0.000871268
0.000871701
0.000872213
0.000872631
0.000873164
0.000873776
0.000874607
0.000875427
0.000876599
0.000877696
0.000879603
0.000880933
0.000885032
0.00088599
0.000901659
0.00285153
0.00174829
0.00102128
0.000965387
0.000937485
0.000921243
0.00091046
0.0009028
0.000896994
0.000892525
0.000888894
0.000885995
0.000883518
0.000881506
0.000879721
0.000878239
0.000876929
0.00087584
0.000874829
0.000873994
0.000873192
0.000872539
0.00087189
0.000871368
0.000870862
0.000870463
0.000870037
0.000869719
0.00086939
0.000869151
0.00086885
0.000868669
0.000868507
0.00086836
0.000868195
0.000868067
0.000867901
0.000867793
0.000867695
0.000867614
0.000867523
0.000867451
0.000867336
0.000867262
0.000867195
0.000867147
0.000867077
0.000867025
0.000866981
0.000866906
0.000866869
0.000866828
0.000866718
0.000866733
0.000866733
0.000866728
0.000866669
0.000866748
0.000866748
0.000866747
0.00086673
0.000866809
0.000866809
0.000866806
0.000866967
0.000867181
0.000867181
0.000867181
0.000867317
0.000867629
0.000867681
0.000867681
0.000867835
0.000868098
0.000868386
0.000868654
0.000868979
0.000869107
0.000869306
0.000869574
0.000869961
0.000870342
0.000870775
0.00087129
0.000871711
0.000872246
0.000872858
0.000873693
0.000874513
0.00087569
0.000876786
0.000878699
0.000880028
0.000884136
0.00088507
0.000900976
0.00289083
0.00179516
0.00102124
0.000965134
0.000937061
0.0009207
0.00090983
0.000902106
0.00089625
0.000891739
0.000888076
0.000885148
0.000882648
0.000880615
0.000878812
0.000877315
0.000875992
0.00087489
0.000873869
0.000873024
0.000872213
0.000871553
0.000870897
0.000870369
0.000869856
0.000869452
0.000869021
0.000868698
0.000868365
0.000868123
0.000867818
0.000867633
0.000867468
0.000867319
0.000867151
0.000867021
0.000866852
0.000866742
0.000866642
0.000866559
0.000866466
0.000866393
0.000866277
0.000866201
0.000866134
0.000866084
0.000866013
0.000865961
0.000865916
0.000865841
0.000865803
0.000865762
0.000865651
0.000865665
0.000865665
0.000865659
0.000865599
0.000865677
0.000865677
0.000865676
0.000865659
0.000865737
0.000865737
0.000865735
0.000865895
0.00086611
0.00086611
0.00086611
0.000866245
0.000866558
0.000866612
0.000866612
0.000866766
0.00086703
0.000867318
0.000867586
0.000867913
0.000868045
0.000868244
0.000868513
0.0008689
0.000869283
0.000869717
0.000870234
0.000870657
0.000871196
0.000871809
0.000872647
0.000873468
0.000874649
0.000875745
0.000877664
0.000878993
0.000883111
0.000884017
0.000900194
0.0029364
0.00184779
0.0010212
0.000964851
0.000936585
0.000920089
0.000909123
0.000901326
0.000895412
0.000890855
0.000887154
0.000884195
0.000881667
0.000879612
0.000877789
0.000876274
0.000874935
0.00087382
0.000872787
0.000871931
0.00087111
0.000870441
0.000869778
0.000869242
0.000868722
0.000868313
0.000867876
0.000867548
0.00086721
0.000866963
0.000866655
0.000866466
0.000866297
0.000866144
0.000865973
0.000865841
0.00086567
0.000865557
0.000865455
0.00086537
0.000865275
0.000865201
0.000865083
0.000865006
0.000864937
0.000864886
0.000864814
0.00086476
0.000864715
0.000864639
0.0008646
0.000864559
0.000864447
0.00086446
0.00086446
0.000864453
0.000864393
0.000864469
0.000864469
0.000864468
0.000864451
0.000864529
0.000864529
0.000864526
0.000864686
0.000864902
0.000864902
0.000864902
0.000865037
0.000865349
0.000865406
0.000865406
0.00086556
0.000865824
0.000866114
0.000866382
0.00086671
0.000866846
0.000867047
0.000867316
0.000867704
0.000868088
0.000868523
0.000869043
0.000869469
0.000870011
0.000870625
0.000871466
0.000872288
0.000873475
0.000874569
0.000876496
0.000877824
0.000881952
0.000882827
0.00089931
0.00298852
0.00190603
0.00102116
0.000964538
0.000936057
0.000919411
0.000908336
0.000900458
0.000894479
0.000889872
0.000886127
0.000883133
0.000880575
0.000878494
0.000876649
0.000875115
0.000873758
0.000872628
0.000871581
0.000870713
0.000869882
0.000869203
0.00086853
0.000867986
0.000867459
0.000867042
0.0008666
0.000866266
0.000865922
0.000865671
0.000865358
0.000865164
0.000864991
0.000864835
0.000864661
0.000864525
0.000864352
0.000864236
0.000864131
0.000864044
0.000863947
0.000863871
0.000863752
0.000863673
0.000863602
0.00086355
0.000863477
0.000863422
0.000863375
0.000863299
0.000863259
0.000863217
0.000863106
0.000863117
0.000863116
0.000863109
0.000863047
0.000863122
0.000863123
0.000863122
0.000863104
0.000863181
0.000863181
0.000863179
0.000863337
0.000863555
0.000863555
0.000863555
0.000863689
0.000864001
0.000864062
0.000864061
0.000864216
0.00086448
0.00086477
0.000865039
0.000865369
0.000865508
0.000865711
0.000865981
0.000866368
0.000866755
0.00086719
0.000867714
0.000868143
0.000868689
0.000869303
0.000870149
0.000870972
0.000872164
0.000873257
0.000875191
0.000876519
0.000880659
0.000881498
0.000898322
0.00304745
0.00196969
0.00102111
0.000964195
0.000935478
0.000918665
0.00090747
0.000899501
0.000893451
0.000888787
0.000884995
0.000881961
0.00087937
0.00087726
0.00087539
0.000873835
0.000872459
0.000871312
0.000870249
0.000869369
0.000868525
0.000867835
0.000867152
0.000866599
0.000866064
0.00086564
0.00086519
0.00086485
0.0008645
0.000864243
0.000863925
0.000863727
0.000863549
0.000863389
0.000863211
0.000863072
0.000862895
0.000862777
0.000862669
0.00086258
0.00086248
0.000862402
0.000862281
0.000862201
0.000862128
0.000862074
0.000862
0.000861944
0.000861896
0.000861819
0.000861777
0.000861735
0.000861623
0.000861633
0.000861632
0.000861624
0.00086156
0.000861635
0.000861635
0.000861634
0.000861616
0.000861693
0.000861693
0.00086169
0.000861848
0.000862067
0.000862067
0.000862067
0.0008622
0.000862512
0.000862576
0.000862576
0.00086273
0.000862994
0.000863285
0.000863554
0.000863886
0.00086403
0.000864234
0.000864505
0.000864893
0.000865282
0.000865718
0.000866244
0.000866677
0.000867227
0.000867842
0.000868692
0.000869515
0.000870714
0.000871805
0.000873748
0.000875074
0.000879227
0.000880028
0.000897227
0.00311339
0.0020386
0.00102107
0.000963823
0.000934847
0.000917851
0.000906524
0.000898455
0.000892327
0.0008876
0.000883756
0.000880679
0.000878051
0.000875909
0.000874012
0.000872433
0.000871036
0.00086987
0.000868791
0.000867895
0.000867038
0.000866336
0.000865642
0.00086508
0.000864535
0.000864102
0.000863645
0.000863297
0.000862941
0.000862678
0.000862355
0.000862151
0.000861968
0.000861804
0.000861621
0.000861479
0.000861299
0.000861178
0.000861066
0.000860974
0.000860872
0.000860792
0.000860669
0.000860586
0.000860511
0.000860456
0.00086038
0.000860323
0.000860274
0.000860196
0.000860153
0.00086011
0.000859998
0.000860006
0.000860005
0.000859996
0.00085993
0.000860003
0.000860004
0.000860003
0.000859984
0.00086006
0.00086006
0.000860057
0.000860214
0.000860435
0.000860435
0.000860435
0.000860566
0.000860878
0.000860946
0.000860946
0.0008611
0.000861365
0.000861656
0.000861926
0.00086226
0.000862408
0.000862614
0.000862886
0.000863274
0.000863666
0.000864102
0.000864632
0.000865069
0.000865623
0.000866239
0.000867093
0.000867917
0.000869122
0.000870211
0.000872163
0.000873488
0.000877654
0.000878414
0.000896022
0.00318654
0.00211256
0.00102101
0.000963422
0.000934164
0.000916969
0.000905497
0.000897319
0.000891106
0.000886309
0.000882409
0.000879284
0.000876616
0.00087444
0.000872513
0.000870908
0.000869487
0.000868301
0.000867203
0.000866292
0.000865419
0.000864705
0.000863999
0.000863425
0.00086287
0.000862429
0.000861963
0.000861607
0.000861244
0.000860974
0.000860645
0.000860435
0.000860246
0.000860078
0.00085989
0.000859745
0.000859561
0.000859435
0.00085932
0.000859225
0.00085912
0.000859038
0.000858912
0.000858828
0.000858751
0.000858694
0.000858616
0.000858557
0.000858507
0.000858429
0.000858384
0.00085834
0.000858228
0.000858234
0.000858232
0.000858222
0.000858155
0.000858226
0.000858227
0.000858226
0.000858207
0.000858282
0.000858282
0.000858279
0.000858435
0.000858657
0.000858657
0.000858657
0.000858787
0.000859099
0.000859171
0.000859171
0.000859325
0.00085959
0.000859882
0.000860152
0.000860488
0.000860641
0.000860849
0.000861122
0.00086151
0.000861904
0.000862342
0.000862875
0.000863315
0.000863874
0.000864491
0.00086535
0.000866175
0.000867387
0.000868473
0.000870434
0.000871758
0.000875937
0.000876652
0.000894704
0.00326702
0.00219141
0.00102096
0.000962993
0.000933429
0.000916018
0.00090439
0.000896093
0.000889786
0.000884915
0.000880953
0.000877777
0.000875064
0.000872851
0.000870891
0.000869257
0.000867811
0.000866603
0.000865485
0.000864556
0.000863668
0.000862939
0.00086222
0.000861634
0.000861068
0.000860617
0.000860141
0.000859778
0.000859406
0.00085913
0.000858794
0.000858577
0.000858382
0.000858208
0.000858016
0.000857866
0.000857678
0.000857549
0.000857429
0.000857332
0.000857223
0.000857138
0.000857011
0.000856924
0.000856844
0.000856785
0.000856705
0.000856645
0.000856593
0.000856514
0.000856467
0.000856423
0.000856311
0.000856315
0.000856312
0.000856301
0.000856232
0.000856302
0.000856302
0.000856301
0.000856281
0.000856355
0.000856355
0.000856352
0.000856507
0.00085673
0.000856731
0.000856731
0.00085686
0.00085717
0.000857248
0.000857247
0.000857401
0.000857666
0.000857959
0.00085823
0.000858567
0.000858726
0.000858937
0.000859211
0.000859598
0.000859995
0.000860433
0.000860971
0.000861415
0.000861979
0.000862596
0.00086346
0.000864286
0.000865504
0.000866589
0.000868559
0.00086988
0.000874074
0.000874741
0.000893268
0.00335488
0.00227497
0.00102091
0.000962536
0.000932643
0.000914999
0.000903201
0.000894776
0.000888368
0.000883416
0.000879386
0.000876154
0.000873394
0.00087114
0.000869145
0.000867481
0.000866007
0.000864775
0.000863635
0.000862687
0.000861781
0.000861036
0.000860303
0.000859705
0.000859126
0.000858664
0.000858179
0.000857806
0.000857426
0.000857142
0.000856799
0.000856575
0.000856373
0.000856194
0.000855996
0.000855842
0.000855649
0.000855516
0.000855392
0.000855291
0.000855179
0.000855091
0.000854961
0.000854871
0.000854789
0.000854728
0.000854646
0.000854584
0.00085453
0.00085445
0.000854402
0.000854357
0.000854245
0.000854246
0.000854243
0.00085423
0.000854159
0.000854227
0.000854227
0.000854226
0.000854206
0.000854279
0.000854279
0.000854275
0.000854429
0.000854654
0.000854654
0.000854654
0.000854782
0.000855092
0.000855174
0.000855173
0.000855327
0.000855593
0.000855886
0.000856158
0.000856497
0.000856662
0.000856874
0.000857149
0.000857537
0.000857937
0.000858375
0.000858916
0.000859365
0.000859934
0.000860552
0.000861421
0.000862247
0.000863473
0.000864554
0.000866534
0.000867853
0.000872062
0.000872677
0.000891712
0.00345011
0.00236309
0.00102085
0.000962051
0.000931806
0.000913912
0.000901931
0.000893368
0.000886851
0.000881811
0.000877709
0.000874417
0.000871605
0.000869307
0.000867274
0.000865576
0.000864073
0.000862815
0.000861652
0.000860683
0.000859758
0.000858997
0.000858248
0.000857636
0.000857044
0.000856571
0.000856074
0.000855692
0.000855302
0.000855009
0.000854659
0.000854427
0.000854218
0.000854033
0.000853829
0.00085367
0.000853473
0.000853334
0.000853206
0.000853101
0.000852985
0.000852895
0.000852761
0.000852669
0.000852583
0.00085252
0.000852436
0.000852372
0.000852316
0.000852235
0.000852185
0.000852139
0.000852028
0.000852026
0.000852022
0.000852007
0.000851934
0.000852001
0.000852
0.000851999
0.000851978
0.00085205
0.00085205
0.000852046
0.000852199
0.000852425
0.000852425
0.000852425
0.000852551
0.00085286
0.000852948
0.000852947
0.000853101
0.000853366
0.00085366
0.000853933
0.000854273
0.000854444
0.000854659
0.000854936
0.000855323
0.000855726
0.000856165
0.00085671
0.000857162
0.000857737
0.000858356
0.00085923
0.000860056
0.00086129
0.000862368
0.000864357
0.000865674
0.000869897
0.000870459
0.000890029
0.00355257
0.00245563
0.00102079
0.00096154
0.000930919
0.000912756
0.000900579
0.000891868
0.000885234
0.0008801
0.00087592
0.000872563
0.000869696
0.000867351
0.000865276
0.000863543
0.000862008
0.000860721
0.000859533
0.000858542
0.000857597
0.000856817
0.000856052
0.000855425
0.000854819
0.000854333
0.000853826
0.000853432
0.000853032
0.000852731
0.000852372
0.000852132
0.000851914
0.000851723
0.000851513
0.000851348
0.000851146
0.000851003
0.000850869
0.00085076
0.00085064
0.000850546
0.00085041
0.000850315
0.000850226
0.00085016
0.000850074
0.000850008
0.00084995
0.000849868
0.000849815
0.000849769
0.000849657
0.000849653
0.000849647
0.000849631
0.000849555
0.00084962
0.00084962
0.000849619
0.000849596
0.000849668
0.000849667
0.000849663
0.000849814
0.000850041
0.000850042
0.000850042
0.000850166
0.000850474
0.000850567
0.000850567
0.00085072
0.000850986
0.00085128
0.000851553
0.000851895
0.000852073
0.00085229
0.000852568
0.000852955
0.000853361
0.0008538
0.000854349
0.000854806
0.000855386
0.000856006
0.000856885
0.000857712
0.000858953
0.000860028
0.000862026
0.00086334
0.000867577
0.000868082
0.000888216
0.003662
0.00255247
0.00102073
0.000961002
0.000929982
0.000911532
0.000899146
0.000890276
0.000883517
0.000878282
0.000874019
0.000870592
0.000867666
0.00086527
0.000863151
0.00086138
0.00085981
0.000858494
0.000857278
0.000856263
0.000855296
0.000854498
0.000853715
0.000853071
0.00085245
0.000851951
0.000851431
0.000851026
0.000850615
0.000850304
0.000849936
0.000849687
0.000849461
0.000849263
0.000849046
0.000848876
0.000848668
0.000848519
0.00084838
0.000848267
0.000848142
0.000848045
0.000847905
0.000847807
0.000847714
0.000847646
0.000847557
0.000847488
0.000847428
0.000847345
0.000847289
0.000847243
0.000847131
0.000847125
0.000847117
0.000847099
0.000847021
0.000847083
0.000847083
0.000847082
0.000847058
0.000847128
0.000847128
0.000847123
0.000847273
0.000847501
0.000847502
0.000847502
0.000847624
0.000847931
0.00084803
0.000848029
0.000848182
0.000848448
0.000848743
0.000849017
0.000849361
0.000849544
0.000849764
0.000850044
0.00085043
0.000850839
0.000851279
0.000851832
0.000852293
0.00085288
0.000853499
0.000854384
0.00085521
0.00085646
0.00085753
0.000859538
0.000860848
0.0008651
0.000865546
0.000886267
0.00377802
0.00265348
0.00102067
0.00096044
0.000928996
0.000910241
0.000897632
0.000888592
0.000881699
0.000876356
0.000872004
0.000868503
0.000865514
0.000863064
0.000860898
0.000859085
0.000857479
0.00085613
0.000854886
0.000853845
0.000852855
0.000852036
0.000851234
0.000850573
0.000849936
0.000849422
0.000848889
0.000848472
0.000848049
0.000847727
0.00084735
0.000847091
0.000846857
0.000846651
0.000846427
0.00084625
0.000846036
0.000845882
0.000845737
0.000845619
0.000845489
0.000845389
0.000845245
0.000845143
0.000845047
0.000844976
0.000844884
0.000844813
0.00084475
0.000844666
0.000844607
0.00084456
0.000844448
0.000844439
0.00084443
0.00084441
0.000844329
0.000844389
0.000844389
0.000844388
0.000844362
0.000844431
0.00084443
0.000844425
0.000844573
0.000844803
0.000844803
0.000844803
0.000844924
0.00084523
0.000845334
0.000845333
0.000845486
0.000845752
0.000846048
0.000846322
0.000846667
0.000846857
0.00084708
0.000847361
0.000847747
0.000848159
0.000848599
0.000849157
0.000849622
0.000850214
0.000850834
0.000851725
0.00085255
0.000853808
0.000854874
0.00085689
0.000858196
0.000862462
0.000862848
0.000884176
0.00390005
0.00275855
0.00102061
0.000959852
0.000927962
0.000908883
0.000896036
0.000886816
0.00087978
0.000874323
0.000869876
0.000866296
0.000863239
0.000860731
0.000858515
0.000856659
0.000855013
0.00085363
0.000852355
0.000851287
0.000850272
0.00084943
0.000848608
0.000847929
0.000847275
0.000846746
0.000846198
0.000845768
0.000845332
0.000845
0.000844612
0.000844343
0.000844099
0.000843886
0.000843654
0.00084347
0.000843249
0.000843089
0.000842938
0.000842815
0.00084268
0.000842575
0.000842428
0.000842322
0.000842222
0.000842148
0.000842053
0.000841979
0.000841914
0.000841828
0.000841767
0.000841718
0.000841606
0.000841594
0.000841583
0.000841561
0.000841478
0.000841535
0.000841535
0.000841534
0.000841507
0.000841574
0.000841573
0.000841567
0.000841714
0.000841944
0.000841945
0.000841944
0.000842064
0.000842367
0.000842477
0.000842477
0.00084263
0.000842895
0.000843191
0.000843466
0.000843813
0.00084401
0.000844235
0.000844518
0.000844903
0.000845319
0.000845759
0.00084632
0.000846789
0.000847388
0.000848008
0.000848905
0.000849729
0.000850994
0.000852055
0.00085408
0.000855382
0.00085966
0.000859984
0.000881937
0.00402734
0.00286756
0.00102056
0.000959242
0.000926879
0.000907458
0.00089436
0.000884948
0.000877761
0.000872182
0.000867634
0.00086397
0.000860841
0.000858271
0.000856002
0.000854099
0.000852411
0.000850993
0.000849685
0.000848588
0.000847546
0.000846681
0.000845837
0.000845138
0.000844465
0.00084392
0.000843357
0.000842913
0.000842464
0.00084212
0.000841721
0.000841442
0.000841187
0.000840965
0.000840725
0.000840534
0.000840306
0.000840139
0.000839982
0.000839853
0.000839713
0.000839604
0.000839452
0.000839342
0.000839238
0.00083916
0.000839062
0.000838986
0.000838917
0.00083883
0.000838766
0.000838716
0.000838603
0.000838588
0.000838575
0.000838552
0.000838466
0.00083852
0.00083852
0.000838518
0.00083849
0.000838555
0.000838554
0.000838547
0.000838692
0.000838923
0.000838924
0.000838924
0.000839041
0.000839342
0.000839459
0.000839458
0.000839611
0.000839876
0.000840172
0.000840448
0.000840795
0.000840999
0.000841228
0.000841513
0.000841897
0.000842315
0.000842756
0.000843321
0.000843794
0.0008444
0.000845019
0.000845921
0.000846744
0.000848018
0.000849073
0.000851106
0.000852403
0.000856693
0.000856953
0.000879542
0.00415893
0.00298038
0.0010205
0.000958608
0.000925751
0.000905968
0.000892603
0.000882988
0.000875641
0.000869933
0.000865278
0.000861525
0.000858319
0.000855684
0.000853359
0.000851406
0.000849674
0.000848216
0.000846873
0.000845746
0.000844676
0.000843785
0.000842918
0.000842199
0.000841506
0.000840944
0.000840364
0.000839906
0.000839442
0.000839086
0.000838676
0.000838385
0.000838119
0.000837888
0.000837639
0.00083744
0.000837205
0.000837031
0.000836867
0.000836733
0.000836586
0.000836473
0.000836316
0.000836202
0.000836093
0.000836012
0.000835911
0.000835831
0.00083576
0.00083567
0.000835603
0.000835552
0.000835438
0.00083542
0.000835405
0.00083538
0.000835291
0.000835343
0.000835342
0.00083534
0.00083531
0.000835373
0.000835372
0.000835364
0.000835507
0.000835739
0.00083574
0.000835739
0.000835854
0.000836153
0.000836276
0.000836276
0.000836428
0.000836693
0.000836989
0.000837265
0.000837614
0.000837825
0.000838056
0.000838343
0.000838726
0.000839148
0.000839588
0.000840157
0.000840634
0.000841246
0.000841865
0.000842773
0.000843594
0.000844875
0.000845926
0.000847965
0.000849256
0.000853556
0.000853753
0.000876986
0.00429361
0.00309685
0.00102044
0.000957954
0.000924576
0.000904413
0.000890767
0.000880937
0.000873421
0.000867576
0.000862808
0.00085896
0.000855674
0.00085297
0.000850584
0.000848578
0.000846799
0.000845301
0.000843921
0.00084276
0.000841661
0.000840744
0.000839852
0.000839111
0.000838397
0.000837816
0.00083722
0.000836745
0.000836267
0.000835897
0.000835475
0.000835172
0.000834894
0.000834653
0.000834394
0.000834188
0.000833945
0.000833764
0.000833591
0.000833451
0.000833299
0.00083318
0.000833019
0.000832901
0.000832786
0.000832701
0.000832596
0.000832513
0.000832439
0.000832347
0.000832276
0.000832224
0.000832109
0.000832088
0.000832071
0.000832044
0.000831953
0.000832
0.000832
0.000831997
0.000831965
0.000832026
0.000832025
0.000832016
0.000832157
0.000832389
0.00083239
0.000832389
0.000832502
0.000832798
0.000832927
0.000832928
0.000833079
0.000833344
0.00083364
0.000833917
0.000834266
0.000834484
0.000834718
0.000835007
0.000835389
0.000835814
0.000836253
0.000836826
0.000837308
0.000837926
0.000838544
0.000839457
0.000840276
0.000841565
0.000842609
0.000844655
0.00084594
0.000850248
0.000850381
0.000874259
0.00442995
0.00321677
0.00102038
0.000957279
0.000923357
0.000902794
0.000888851
0.000878796
0.000871101
0.000865111
0.000860223
0.000856275
0.000852904
0.000850126
0.000847677
0.000845616
0.000843788
0.000842245
0.000840826
0.000839631
0.0008385
0.000837555
0.000836637
0.000835873
0.000835137
0.000834537
0.000833921
0.00083343
0.000832936
0.000832552
0.000832117
0.000831801
0.000831511
0.00083126
0.000830991
0.000830776
0.000830525
0.000830336
0.000830155
0.000830009
0.000829849
0.000829725
0.000829559
0.000829436
0.000829316
0.000829227
0.000829118
0.000829032
0.000828953
0.00082886
0.000828785
0.000828731
0.000828616
0.000828591
0.000828571
0.000828542
0.000828449
0.000828492
0.000828492