/*--------------------------------*- C++ -*----------------------------------*\
| =========                 |                                                 |
| \\      /  F ield         | OpenFOAM: The Open Source CFD Toolbox           |
|  \\    /   O peration     | Version:  v2012                                 |
|   \\  /    A nd           | Website:  www.openfoam.com                      |
|    \\/     M anipulation  |                                                 |
\*---------------------------------------------------------------------------*/
FoamFile
{
    version     2.0;
    format      ascii;
    class       volScalarField;
    location    "10.5";
    object      nut;
}
// * * * * * * * * * * * * * * * * * * * * * * * * * * * * * * * * * * * * * //

dimensions      [0 2 -1 0 0 0 0];


internalField   nonuniform List<scalar> 
209825
(
1.20992e-07
1.13738e-07
1.09363e-07
1.06627e-07
1.04737e-07
1.0336e-07
1.02297e-07
1.01467e-07
1.00787e-07
1.00239e-07
9.97692e-08
9.93852e-08
9.90442e-08
9.87594e-08
9.8507e-08
9.82963e-08
9.81009e-08
9.7939e-08
9.77835e-08
9.76565e-08
9.75309e-08
9.74288e-08
9.73298e-08
9.72519e-08
9.71693e-08
9.71065e-08
9.70418e-08
9.6995e-08
9.6937e-08
9.69006e-08
9.68683e-08
9.68393e-08
9.68081e-08
9.67811e-08
9.6746e-08
9.67241e-08
9.67065e-08
9.66865e-08
9.66678e-08
9.66505e-08
9.6626e-08
9.66082e-08
9.65947e-08
9.65798e-08
9.6565e-08
9.65486e-08
9.65394e-08
9.65164e-08
9.65089e-08
9.64943e-08
9.64701e-08
9.64616e-08
9.64616e-08
9.64609e-08
9.64438e-08
9.64618e-08
9.64448e-08
9.64341e-08
9.64217e-08
9.64388e-08
9.64388e-08
9.64384e-08
9.6456e-08
9.64843e-08
9.64842e-08
9.64841e-08
9.64949e-08
9.65437e-08
9.65527e-08
9.6531e-08
9.65445e-08
9.66026e-08
9.66419e-08
9.66835e-08
9.67307e-08
9.67254e-08
9.67421e-08
9.67794e-08
9.68253e-08
9.68854e-08
9.69447e-08
9.70116e-08
9.70606e-08
9.71156e-08
9.71884e-08
9.72887e-08
9.73805e-08
9.75238e-08
9.76277e-08
9.78635e-08
9.79721e-08
9.84118e-08
9.85119e-08
9.94987e-08
5.12107e-07
8.90007e-10
1.20993e-07
1.13739e-07
1.09364e-07
1.06627e-07
1.04738e-07
1.0336e-07
1.02296e-07
1.01466e-07
1.00786e-07
1.00238e-07
9.97679e-08
9.93838e-08
9.90426e-08
9.87577e-08
9.85051e-08
9.82944e-08
9.80989e-08
9.79369e-08
9.77813e-08
9.76543e-08
9.75286e-08
9.74265e-08
9.73274e-08
9.72495e-08
9.71668e-08
9.7104e-08
9.70392e-08
9.69924e-08
9.69344e-08
9.6898e-08
9.68656e-08
9.68366e-08
9.68054e-08
9.67783e-08
9.67432e-08
9.67213e-08
9.67037e-08
9.66837e-08
9.66649e-08
9.66476e-08
9.66231e-08
9.66054e-08
9.65918e-08
9.65769e-08
9.65621e-08
9.65456e-08
9.65364e-08
9.65135e-08
9.6506e-08
9.64914e-08
9.64672e-08
9.64587e-08
9.64587e-08
9.64579e-08
9.64408e-08
9.64588e-08
9.64419e-08
9.64311e-08
9.64187e-08
9.64358e-08
9.64358e-08
9.64354e-08
9.6453e-08
9.64813e-08
9.64812e-08
9.6481e-08
9.64919e-08
9.65406e-08
9.65497e-08
9.6528e-08
9.65414e-08
9.65995e-08
9.66388e-08
9.66805e-08
9.67277e-08
9.67224e-08
9.67391e-08
9.67764e-08
9.68223e-08
9.68824e-08
9.69417e-08
9.70085e-08
9.70576e-08
9.71126e-08
9.71854e-08
9.72857e-08
9.73775e-08
9.75208e-08
9.76248e-08
9.78606e-08
9.79692e-08
9.84089e-08
9.85089e-08
9.94973e-08
5.12615e-07
9.06744e-10
1.20997e-07
1.13745e-07
1.09368e-07
1.0663e-07
1.04738e-07
1.03359e-07
1.02294e-07
1.01464e-07
1.00782e-07
1.00234e-07
9.97629e-08
9.93782e-08
9.90365e-08
9.87512e-08
9.84982e-08
9.82871e-08
9.80913e-08
9.7929e-08
9.77732e-08
9.76459e-08
9.752e-08
9.74177e-08
9.73185e-08
9.72403e-08
9.71575e-08
9.70946e-08
9.70296e-08
9.69827e-08
9.69246e-08
9.68881e-08
9.68556e-08
9.68264e-08
9.67952e-08
9.67681e-08
9.67329e-08
9.67109e-08
9.66932e-08
9.66732e-08
9.66544e-08
9.6637e-08
9.66124e-08
9.65947e-08
9.6581e-08
9.65661e-08
9.65512e-08
9.65348e-08
9.65256e-08
9.65026e-08
9.64951e-08
9.64804e-08
9.64562e-08
9.64476e-08
9.64476e-08
9.64469e-08
9.64297e-08
9.64477e-08
9.64307e-08
9.64199e-08
9.64075e-08
9.64246e-08
9.64246e-08
9.64242e-08
9.64418e-08
9.64701e-08
9.64699e-08
9.64698e-08
9.64806e-08
9.65293e-08
9.65384e-08
9.65167e-08
9.65301e-08
9.65882e-08
9.66275e-08
9.66691e-08
9.67164e-08
9.67112e-08
9.67279e-08
9.67651e-08
9.6811e-08
9.68711e-08
9.69303e-08
9.69972e-08
9.70464e-08
9.71014e-08
9.71741e-08
9.72745e-08
9.73662e-08
9.75096e-08
9.76135e-08
9.78493e-08
9.79579e-08
9.83975e-08
9.84973e-08
9.9489e-08
5.14022e-07
9.32153e-10
1.21004e-07
1.13755e-07
1.09375e-07
1.06634e-07
1.0474e-07
1.03358e-07
1.02291e-07
1.01459e-07
1.00776e-07
1.00227e-07
9.97546e-08
9.93689e-08
9.90264e-08
9.87404e-08
9.84867e-08
9.8275e-08
9.80788e-08
9.79159e-08
9.77597e-08
9.7632e-08
9.75058e-08
9.74032e-08
9.73036e-08
9.72252e-08
9.71421e-08
9.70789e-08
9.70138e-08
9.69667e-08
9.69084e-08
9.68716e-08
9.6839e-08
9.68097e-08
9.67783e-08
9.67511e-08
9.67157e-08
9.66936e-08
9.66759e-08
9.66558e-08
9.66369e-08
9.66194e-08
9.65948e-08
9.65769e-08
9.65632e-08
9.65482e-08
9.65333e-08
9.65168e-08
9.65076e-08
9.64846e-08
9.6477e-08
9.64623e-08
9.64381e-08
9.64294e-08
9.64294e-08
9.64286e-08
9.64114e-08
9.64292e-08
9.64123e-08
9.64014e-08
9.63889e-08
9.6406e-08
9.6406e-08
9.64056e-08
9.64232e-08
9.64514e-08
9.64512e-08
9.64511e-08
9.64619e-08
9.65105e-08
9.65198e-08
9.6498e-08
9.65113e-08
9.65694e-08
9.66087e-08
9.66503e-08
9.66976e-08
9.66925e-08
9.67092e-08
9.67465e-08
9.67923e-08
9.68524e-08
9.69116e-08
9.69785e-08
9.70277e-08
9.70828e-08
9.71554e-08
9.72558e-08
9.73475e-08
9.74909e-08
9.75947e-08
9.78306e-08
9.79393e-08
9.83785e-08
9.8478e-08
9.94745e-08
5.16305e-07
9.63928e-10
1.21014e-07
1.13768e-07
1.09385e-07
1.06639e-07
1.04741e-07
1.03357e-07
1.02287e-07
1.01453e-07
1.00768e-07
1.00217e-07
9.9743e-08
9.9356e-08
9.90124e-08
9.87253e-08
9.84707e-08
9.82582e-08
9.80612e-08
9.78977e-08
9.77408e-08
9.76126e-08
9.74859e-08
9.73828e-08
9.72828e-08
9.7204e-08
9.71205e-08
9.7057e-08
9.69916e-08
9.69442e-08
9.68856e-08
9.68486e-08
9.68157e-08
9.67862e-08
9.67546e-08
9.67272e-08
9.66917e-08
9.66695e-08
9.66516e-08
9.66314e-08
9.66123e-08
9.65947e-08
9.657e-08
9.65521e-08
9.65382e-08
9.65232e-08
9.65082e-08
9.64917e-08
9.64823e-08
9.64593e-08
9.64516e-08
9.64368e-08
9.64126e-08
9.64037e-08
9.64037e-08
9.64029e-08
9.63856e-08
9.64034e-08
9.63864e-08
9.63755e-08
9.63629e-08
9.63799e-08
9.63799e-08
9.63795e-08
9.63971e-08
9.64253e-08
9.6425e-08
9.64249e-08
9.64356e-08
9.64841e-08
9.64936e-08
9.64718e-08
9.64849e-08
9.6543e-08
9.65824e-08
9.66239e-08
9.66712e-08
9.66664e-08
9.6683e-08
9.67202e-08
9.6766e-08
9.6826e-08
9.68852e-08
9.69522e-08
9.70015e-08
9.70566e-08
9.71292e-08
9.72296e-08
9.73212e-08
9.74647e-08
9.75683e-08
9.78042e-08
9.7913e-08
9.83517e-08
9.84508e-08
9.9454e-08
5.19501e-07
1.00121e-09
1.21028e-07
1.13786e-07
1.09398e-07
1.06647e-07
1.04744e-07
1.03355e-07
1.02282e-07
1.01445e-07
1.00757e-07
1.00204e-07
9.97281e-08
9.93394e-08
9.89942e-08
9.87058e-08
9.845e-08
9.82364e-08
9.80384e-08
9.78741e-08
9.77164e-08
9.75875e-08
9.74601e-08
9.73565e-08
9.72559e-08
9.71766e-08
9.70927e-08
9.70287e-08
9.69629e-08
9.69151e-08
9.68562e-08
9.68189e-08
9.67857e-08
9.67559e-08
9.6724e-08
9.66964e-08
9.66606e-08
9.66382e-08
9.66202e-08
9.65998e-08
9.65805e-08
9.65629e-08
9.6538e-08
9.65199e-08
9.6506e-08
9.64908e-08
9.64757e-08
9.64591e-08
9.64497e-08
9.64265e-08
9.64188e-08
9.6404e-08
9.63797e-08
9.63706e-08
9.63706e-08
9.63697e-08
9.63522e-08
9.637e-08
9.63529e-08
9.63419e-08
9.63292e-08
9.63462e-08
9.63462e-08
9.63458e-08
9.63633e-08
9.63915e-08
9.63911e-08
9.6391e-08
9.64017e-08
9.64499e-08
9.64597e-08
9.64379e-08
9.64508e-08
9.65088e-08
9.65483e-08
9.65897e-08
9.66371e-08
9.66326e-08
9.66492e-08
9.66863e-08
9.67319e-08
9.67919e-08
9.68511e-08
9.69181e-08
9.69675e-08
9.70228e-08
9.70952e-08
9.71957e-08
9.72872e-08
9.74308e-08
9.75342e-08
9.777e-08
9.78789e-08
9.83169e-08
9.84156e-08
9.94273e-08
5.23651e-07
1.04367e-09
1.21044e-07
1.13807e-07
1.09414e-07
1.06656e-07
1.04747e-07
1.03354e-07
1.02276e-07
1.01435e-07
1.00744e-07
1.00188e-07
9.97098e-08
9.9319e-08
9.8972e-08
9.86819e-08
9.84246e-08
9.82097e-08
9.80105e-08
9.78451e-08
9.76865e-08
9.75567e-08
9.74285e-08
9.73241e-08
9.72228e-08
9.71429e-08
9.70584e-08
9.69939e-08
9.69275e-08
9.68793e-08
9.682e-08
9.67822e-08
9.67486e-08
9.67185e-08
9.66863e-08
9.66585e-08
9.66224e-08
9.65998e-08
9.65815e-08
9.6561e-08
9.65414e-08
9.65236e-08
9.64985e-08
9.64804e-08
9.64662e-08
9.6451e-08
9.64357e-08
9.6419e-08
9.64095e-08
9.63863e-08
9.63784e-08
9.63635e-08
9.63391e-08
9.63298e-08
9.63298e-08
9.63288e-08
9.63112e-08
9.63288e-08
9.63117e-08
9.63006e-08
9.62878e-08
9.63046e-08
9.63047e-08
9.63042e-08
9.63217e-08
9.63499e-08
9.63493e-08
9.63493e-08
9.63598e-08
9.64079e-08
9.6418e-08
9.63962e-08
9.64088e-08
9.64668e-08
9.65062e-08
9.65476e-08
9.65951e-08
9.6591e-08
9.66075e-08
9.66445e-08
9.669e-08
9.675e-08
9.6809e-08
9.68762e-08
9.69257e-08
9.69811e-08
9.70534e-08
9.71539e-08
9.72452e-08
9.73889e-08
9.7492e-08
9.77279e-08
9.7837e-08
9.82741e-08
9.83722e-08
9.93943e-08
5.28797e-07
1.09127e-09
1.21063e-07
1.13833e-07
1.09433e-07
1.06667e-07
1.04751e-07
1.03352e-07
1.02269e-07
1.01423e-07
1.00729e-07
1.00169e-07
9.96882e-08
9.92948e-08
9.89456e-08
9.86535e-08
9.83944e-08
9.81779e-08
9.79773e-08
9.78106e-08
9.76508e-08
9.752e-08
9.73908e-08
9.72855e-08
9.71834e-08
9.71028e-08
9.70176e-08
9.69525e-08
9.68855e-08
9.68367e-08
9.67769e-08
9.67386e-08
9.67046e-08
9.6674e-08
9.66414e-08
9.66133e-08
9.65769e-08
9.65539e-08
9.65355e-08
9.65147e-08
9.64949e-08
9.64769e-08
9.64516e-08
9.64332e-08
9.64189e-08
9.64035e-08
9.63881e-08
9.63712e-08
9.63616e-08
9.63383e-08
9.63302e-08
9.63153e-08
9.62908e-08
9.62812e-08
9.62812e-08
9.62801e-08
9.62622e-08
9.62797e-08
9.62626e-08
9.62513e-08
9.62384e-08
9.62552e-08
9.62552e-08
9.62547e-08
9.62721e-08
9.63002e-08
9.62996e-08
9.62995e-08
9.631e-08
9.63578e-08
9.63682e-08
9.63464e-08
9.63587e-08
9.64167e-08
9.64562e-08
9.64974e-08
9.6545e-08
9.65413e-08
9.65578e-08
9.65947e-08
9.664e-08
9.66999e-08
9.67589e-08
9.68262e-08
9.68759e-08
9.69314e-08
9.70035e-08
9.71041e-08
9.71951e-08
9.7339e-08
9.74418e-08
9.76776e-08
9.77868e-08
9.8223e-08
9.83204e-08
9.93549e-08
5.34979e-07
1.1442e-09
1.21086e-07
1.13863e-07
1.09455e-07
1.0668e-07
1.04756e-07
1.03349e-07
1.02261e-07
1.0141e-07
1.00711e-07
1.00147e-07
9.96631e-08
9.92668e-08
9.89149e-08
9.86205e-08
9.83594e-08
9.8141e-08
9.79387e-08
9.77705e-08
9.76093e-08
9.74773e-08
9.7347e-08
9.72407e-08
9.71376e-08
9.70561e-08
9.69701e-08
9.69043e-08
9.68366e-08
9.67872e-08
9.67268e-08
9.66879e-08
9.66532e-08
9.66223e-08
9.65892e-08
9.65607e-08
9.65239e-08
9.65006e-08
9.64818e-08
9.64608e-08
9.64407e-08
9.64224e-08
9.63969e-08
9.63783e-08
9.63637e-08
9.63482e-08
9.63326e-08
9.63156e-08
9.63058e-08
9.62824e-08
9.62741e-08
9.62591e-08
9.62345e-08
9.62246e-08
9.62246e-08
9.62234e-08
9.62052e-08
9.62226e-08
9.62055e-08
9.6194e-08
9.61809e-08
9.61975e-08
9.61975e-08
9.61971e-08
9.62144e-08
9.62424e-08
9.62416e-08
9.62416e-08
9.62519e-08
9.62995e-08
9.63102e-08
9.62885e-08
9.63004e-08
9.63583e-08
9.63978e-08
9.64389e-08
9.64867e-08
9.64835e-08
9.64998e-08
9.65366e-08
9.65818e-08
9.66416e-08
9.67005e-08
9.67679e-08
9.68178e-08
9.68734e-08
9.69453e-08
9.7046e-08
9.71368e-08
9.72808e-08
9.73832e-08
9.7619e-08
9.77284e-08
9.81635e-08
9.82599e-08
9.93089e-08
5.42239e-07
1.20284e-09
1.21111e-07
1.13898e-07
1.09481e-07
1.06695e-07
1.04762e-07
1.03347e-07
1.02251e-07
1.01395e-07
1.00691e-07
1.00123e-07
9.96344e-08
9.92348e-08
9.88799e-08
9.85829e-08
9.83193e-08
9.80989e-08
9.78946e-08
9.77248e-08
9.7562e-08
9.74285e-08
9.72969e-08
9.71895e-08
9.70853e-08
9.70028e-08
9.69158e-08
9.68491e-08
9.67806e-08
9.67305e-08
9.66694e-08
9.66299e-08
9.65946e-08
9.65631e-08
9.65294e-08
9.65005e-08
9.64633e-08
9.64396e-08
9.64205e-08
9.63991e-08
9.63786e-08
9.63602e-08
9.63343e-08
9.63155e-08
9.63006e-08
9.62849e-08
9.62691e-08
9.6252e-08
9.6242e-08
9.62184e-08
9.621e-08
9.61948e-08
9.61702e-08
9.61599e-08
9.61598e-08
9.61586e-08
9.614e-08
9.61573e-08
9.61401e-08
9.61284e-08
9.61151e-08
9.61315e-08
9.61316e-08
9.61311e-08
9.61483e-08
9.61763e-08
9.61753e-08
9.61753e-08
9.61855e-08
9.62327e-08
9.62439e-08
9.62221e-08
9.62337e-08
9.62914e-08
9.63311e-08
9.6372e-08
9.64199e-08
9.64173e-08
9.64335e-08
9.64702e-08
9.65151e-08
9.65748e-08
9.66336e-08
9.67011e-08
9.67512e-08
9.68071e-08
9.68787e-08
9.69795e-08
9.707e-08
9.72142e-08
9.73162e-08
9.75519e-08
9.76615e-08
9.80953e-08
9.81907e-08
9.92563e-08
5.50614e-07
1.26771e-09
1.21139e-07
1.13937e-07
1.0951e-07
1.06712e-07
1.04769e-07
1.03345e-07
1.02241e-07
1.01378e-07
1.00668e-07
1.00095e-07
9.96023e-08
9.91988e-08
9.88405e-08
9.85406e-08
9.82743e-08
9.80514e-08
9.7845e-08
9.76732e-08
9.75086e-08
9.73736e-08
9.72405e-08
9.71317e-08
9.70263e-08
9.69426e-08
9.68547e-08
9.6787e-08
9.67175e-08
9.66666e-08
9.66047e-08
9.65644e-08
9.65284e-08
9.64963e-08
9.6462e-08
9.64326e-08
9.63949e-08
9.63708e-08
9.63513e-08
9.63295e-08
9.63086e-08
9.62899e-08
9.62637e-08
9.62446e-08
9.62294e-08
9.62135e-08
9.61975e-08
9.61802e-08
9.617e-08
9.61463e-08
9.61376e-08
9.61223e-08
9.60976e-08
9.60868e-08
9.60868e-08
9.60853e-08
9.60665e-08
9.60835e-08
9.60662e-08
9.60543e-08
9.60408e-08
9.60571e-08
9.60571e-08
9.60566e-08
9.60737e-08
9.61016e-08
9.61005e-08
9.61005e-08
9.61105e-08
9.61573e-08
9.61689e-08
9.61472e-08
9.61584e-08
9.6216e-08
9.62557e-08
9.62964e-08
9.63445e-08
9.63425e-08
9.63586e-08
9.63952e-08
9.64399e-08
9.64994e-08
9.65581e-08
9.66258e-08
9.66761e-08
9.67321e-08
9.68034e-08
9.69043e-08
9.69945e-08
9.71389e-08
9.72404e-08
9.74761e-08
9.75858e-08
9.80183e-08
9.81124e-08
9.91968e-08
5.60137e-07
1.33952e-09
1.21171e-07
1.1398e-07
1.09543e-07
1.06732e-07
1.04776e-07
1.03342e-07
1.0223e-07
1.01359e-07
1.00643e-07
1.00064e-07
9.95667e-08
9.91589e-08
9.87968e-08
9.84935e-08
9.82241e-08
9.79986e-08
9.77898e-08
9.76158e-08
9.74492e-08
9.73124e-08
9.71777e-08
9.70674e-08
9.69605e-08
9.68756e-08
9.67864e-08
9.67177e-08
9.66472e-08
9.65953e-08
9.65326e-08
9.64914e-08
9.64546e-08
9.64218e-08
9.63868e-08
9.63569e-08
9.63187e-08
9.6294e-08
9.6274e-08
9.62519e-08
9.62306e-08
9.62115e-08
9.61849e-08
9.61655e-08
9.615e-08
9.61339e-08
9.61175e-08
9.61e-08
9.60896e-08
9.60658e-08
9.60568e-08
9.60413e-08
9.60165e-08
9.60053e-08
9.60052e-08
9.60036e-08
9.59843e-08
9.60011e-08
9.59839e-08
9.59717e-08
9.5958e-08
9.5974e-08
9.59741e-08
9.59735e-08
9.59905e-08
9.60183e-08
9.60169e-08
9.6017e-08
9.60268e-08
9.60732e-08
9.60853e-08
9.60636e-08
9.60743e-08
9.61317e-08
9.61715e-08
9.6212e-08
9.62603e-08
9.6259e-08
9.6275e-08
9.63114e-08
9.63558e-08
9.64153e-08
9.64738e-08
9.65416e-08
9.65921e-08
9.66484e-08
9.67194e-08
9.68204e-08
9.69102e-08
9.70548e-08
9.71558e-08
9.73913e-08
9.75012e-08
9.79322e-08
9.8025e-08
9.91303e-08
5.7084e-07
1.4191e-09
1.21205e-07
1.14028e-07
1.09579e-07
1.06754e-07
1.04785e-07
1.0334e-07
1.02218e-07
1.01339e-07
1.00615e-07
1.0003e-07
9.95275e-08
9.91149e-08
9.87486e-08
9.84416e-08
9.81689e-08
9.79404e-08
9.77288e-08
9.75524e-08
9.73836e-08
9.72448e-08
9.71083e-08
9.69963e-08
9.68879e-08
9.68016e-08
9.67111e-08
9.66411e-08
9.65695e-08
9.65166e-08
9.64529e-08
9.64108e-08
9.6373e-08
9.63395e-08
9.63038e-08
9.62732e-08
9.62344e-08
9.62091e-08
9.61886e-08
9.61661e-08
9.61442e-08
9.61248e-08
9.60978e-08
9.60781e-08
9.60622e-08
9.60458e-08
9.60291e-08
9.60114e-08
9.60007e-08
9.59767e-08
9.59674e-08
9.59518e-08
9.59269e-08
9.59152e-08
9.5915e-08
9.59132e-08
9.58935e-08
9.59101e-08
9.58927e-08
9.58803e-08
9.58663e-08
9.58821e-08
9.58822e-08
9.58816e-08
9.58984e-08
9.59261e-08
9.59246e-08
9.59245e-08
9.59342e-08
9.59801e-08
9.59927e-08
9.59711e-08
9.59813e-08
9.60385e-08
9.60784e-08
9.61187e-08
9.61671e-08
9.61665e-08
9.61824e-08
9.62187e-08
9.62628e-08
9.63221e-08
9.63805e-08
9.64484e-08
9.64992e-08
9.65558e-08
9.66264e-08
9.67274e-08
9.68169e-08
9.69617e-08
9.70621e-08
9.72974e-08
9.74075e-08
9.7837e-08
9.79281e-08
9.90566e-08
5.82745e-07
1.50745e-09
1.21242e-07
1.1408e-07
1.09619e-07
1.06778e-07
1.04795e-07
1.03337e-07
1.02205e-07
1.01317e-07
1.00585e-07
9.99936e-08
9.94847e-08
9.90669e-08
9.8696e-08
9.83849e-08
9.81084e-08
9.78766e-08
9.76621e-08
9.7483e-08
9.73118e-08
9.71708e-08
9.70322e-08
9.69184e-08
9.68083e-08
9.67204e-08
9.66285e-08
9.65572e-08
9.64843e-08
9.64302e-08
9.63655e-08
9.63223e-08
9.62836e-08
9.62492e-08
9.62126e-08
9.61814e-08
9.61419e-08
9.6116e-08
9.6095e-08
9.6072e-08
9.60495e-08
9.60297e-08
9.60022e-08
9.59821e-08
9.59658e-08
9.59491e-08
9.59321e-08
9.59141e-08
9.59031e-08
9.5879e-08
9.58693e-08
9.58535e-08
9.58286e-08
9.58164e-08
9.58161e-08
9.5814e-08
9.57939e-08
9.58102e-08
9.57927e-08
9.578e-08
9.57657e-08
9.57813e-08
9.57813e-08
9.57807e-08
9.57973e-08
9.58249e-08
9.58231e-08
9.58231e-08
9.58326e-08
9.58779e-08
9.5891e-08
9.58695e-08
9.58792e-08
9.59362e-08
9.59761e-08
9.60162e-08
9.60648e-08
9.6065e-08
9.60808e-08
9.61168e-08
9.61607e-08
9.62198e-08
9.6278e-08
9.63461e-08
9.63971e-08
9.6454e-08
9.65242e-08
9.66253e-08
9.67144e-08
9.68594e-08
9.69591e-08
9.71943e-08
9.73046e-08
9.77323e-08
9.78216e-08
9.89754e-08
5.95867e-07
1.60569e-09
1.21282e-07
1.14137e-07
1.09663e-07
1.06805e-07
1.04806e-07
1.03335e-07
1.02191e-07
1.01293e-07
1.00553e-07
9.99539e-08
9.94384e-08
9.90149e-08
9.86389e-08
9.83233e-08
9.80427e-08
9.78074e-08
9.75895e-08
9.74076e-08
9.72337e-08
9.70902e-08
9.69495e-08
9.68337e-08
9.67216e-08
9.66321e-08
9.65386e-08
9.64658e-08
9.63915e-08
9.63362e-08
9.62703e-08
9.6226e-08
9.61861e-08
9.61508e-08
9.61133e-08
9.60814e-08
9.60411e-08
9.60145e-08
9.59929e-08
9.59693e-08
9.59463e-08
9.5926e-08
9.5898e-08
9.58775e-08
9.58607e-08
9.58437e-08
9.58263e-08
9.58081e-08
9.57968e-08
9.57724e-08
9.57624e-08
9.57464e-08
9.57215e-08
9.57086e-08
9.57082e-08
9.57059e-08
9.56852e-08
9.57012e-08
9.56837e-08
9.56706e-08
9.5656e-08
9.56713e-08
9.56713e-08
9.56706e-08
9.56871e-08
9.57145e-08
9.57126e-08
9.57125e-08
9.57217e-08
9.57665e-08
9.57801e-08
9.57587e-08
9.57679e-08
9.58245e-08
9.58645e-08
9.59044e-08
9.59531e-08
9.59543e-08
9.59699e-08
9.60057e-08
9.60492e-08
9.61082e-08
9.61662e-08
9.62344e-08
9.62857e-08
9.63429e-08
9.64126e-08
9.65139e-08
9.66024e-08
9.67476e-08
9.68467e-08
9.70816e-08
9.71921e-08
9.76181e-08
9.77053e-08
9.88866e-08
6.1021e-07
1.71511e-09
1.21325e-07
1.14198e-07
1.0971e-07
1.06834e-07
1.04819e-07
1.03333e-07
1.02177e-07
1.01268e-07
1.00518e-07
9.99112e-08
9.93886e-08
9.89588e-08
9.85773e-08
9.82568e-08
9.79718e-08
9.77326e-08
9.75111e-08
9.7326e-08
9.71492e-08
9.70031e-08
9.686e-08
9.6742e-08
9.66278e-08
9.65364e-08
9.64412e-08
9.63669e-08
9.6291e-08
9.62344e-08
9.61672e-08
9.61216e-08
9.60806e-08
9.60443e-08
9.60058e-08
9.5973e-08
9.5932e-08
9.59046e-08
9.58822e-08
9.58581e-08
9.58344e-08
9.58136e-08
9.5785e-08
9.57641e-08
9.57468e-08
9.57294e-08
9.57116e-08
9.56931e-08
9.56815e-08
9.56569e-08
9.56464e-08
9.56303e-08
9.56053e-08
9.55918e-08
9.55913e-08
9.55886e-08
9.55674e-08
9.55831e-08
9.55654e-08
9.55521e-08
9.55371e-08
9.5552e-08
9.5552e-08
9.55513e-08
9.55676e-08
9.55948e-08
9.55926e-08
9.55925e-08
9.56015e-08
9.56457e-08
9.56598e-08
9.56385e-08
9.56471e-08
9.57035e-08
9.57435e-08
9.57831e-08
9.5832e-08
9.5834e-08
9.58496e-08
9.58852e-08
9.59283e-08
9.59871e-08
9.60449e-08
9.61132e-08
9.61648e-08
9.62223e-08
9.62916e-08
9.63929e-08
9.64809e-08
9.66264e-08
9.67247e-08
9.69593e-08
9.70699e-08
9.74941e-08
9.75791e-08
9.87899e-08
6.25768e-07
1.83716e-09
1.21371e-07
1.14265e-07
1.09762e-07
1.06866e-07
1.04833e-07
1.03332e-07
1.02162e-07
1.01241e-07
1.00482e-07
9.98656e-08
9.93353e-08
9.88988e-08
9.85113e-08
9.81854e-08
9.78957e-08
9.76521e-08
9.74268e-08
9.72383e-08
9.70583e-08
9.69094e-08
9.67636e-08
9.66433e-08
9.65268e-08
9.64334e-08
9.63363e-08
9.62603e-08
9.61828e-08
9.61247e-08
9.60561e-08
9.60091e-08
9.59668e-08
9.59294e-08
9.58898e-08
9.58562e-08
9.58143e-08
9.5786e-08
9.57629e-08
9.57382e-08
9.57137e-08
9.56924e-08
9.56632e-08
9.56418e-08
9.56239e-08
9.56062e-08
9.55879e-08
9.55691e-08
9.55571e-08
9.55322e-08
9.55214e-08
9.5505e-08
9.548e-08
9.54658e-08
9.54651e-08
9.54621e-08
9.54403e-08
9.54557e-08
9.54379e-08
9.54242e-08
9.54088e-08
9.54234e-08
9.54233e-08
9.54225e-08
9.54387e-08
9.54657e-08
9.5463e-08
9.5463e-08
9.54717e-08
9.55153e-08
9.553e-08
9.55088e-08
9.55168e-08
9.55728e-08
9.56129e-08
9.56523e-08
9.57013e-08
9.57043e-08
9.57197e-08
9.57551e-08
9.57978e-08
9.58564e-08
9.59139e-08
9.59823e-08
9.60342e-08
9.6092e-08
9.61608e-08
9.62623e-08
9.63497e-08
9.64953e-08
9.65929e-08
9.68271e-08
9.69378e-08
9.73601e-08
9.74427e-08
9.8685e-08
6.42517e-07
1.9735e-09
1.21419e-07
1.14336e-07
1.09818e-07
1.06901e-07
1.04849e-07
1.03331e-07
1.02146e-07
1.01213e-07
1.00443e-07
9.98172e-08
9.92786e-08
9.88347e-08
9.84407e-08
9.81092e-08
9.78142e-08
9.75661e-08
9.73366e-08
9.71443e-08
9.69609e-08
9.6809e-08
9.66604e-08
9.65374e-08
9.64186e-08
9.6323e-08
9.62239e-08
9.6146e-08
9.60666e-08
9.60069e-08
9.5937e-08
9.58885e-08
9.58447e-08
9.58061e-08
9.57654e-08
9.57308e-08
9.5688e-08
9.56587e-08
9.56348e-08
9.56094e-08
9.55841e-08
9.55622e-08
9.55324e-08
9.55104e-08
9.5492e-08
9.54739e-08
9.54551e-08
9.54359e-08
9.54234e-08
9.53984e-08
9.5387e-08
9.53704e-08
9.53455e-08
9.53306e-08
9.53295e-08
9.53262e-08
9.53038e-08
9.53187e-08
9.53009e-08
9.52868e-08
9.5271e-08
9.52851e-08
9.52851e-08
9.52842e-08
9.53001e-08
9.5327e-08
9.53239e-08
9.53239e-08
9.53324e-08
9.53751e-08
9.53904e-08
9.53694e-08
9.53768e-08
9.54323e-08
9.54725e-08
9.55116e-08
9.55607e-08
9.55647e-08
9.55801e-08
9.56152e-08
9.56575e-08
9.57158e-08
9.57731e-08
9.58416e-08
9.58937e-08
9.5952e-08
9.60202e-08
9.61218e-08
9.62086e-08
9.63544e-08
9.64512e-08
9.66848e-08
9.67957e-08
9.72161e-08
9.72959e-08
9.85717e-08
6.60417e-07
2.12599e-09
1.2147e-07
1.14411e-07
1.09878e-07
1.06939e-07
1.04866e-07
1.03331e-07
1.0213e-07
1.01184e-07
1.00402e-07
9.9766e-08
9.92184e-08
9.87667e-08
9.83658e-08
9.80281e-08
9.77275e-08
9.74745e-08
9.72405e-08
9.70442e-08
9.68571e-08
9.67018e-08
9.65502e-08
9.64245e-08
9.6303e-08
9.62051e-08
9.61037e-08
9.60239e-08
9.59426e-08
9.58812e-08
9.58096e-08
9.57595e-08
9.57143e-08
9.56744e-08
9.56324e-08
9.55968e-08
9.55529e-08
9.55227e-08
9.54978e-08
9.54717e-08
9.54455e-08
9.5423e-08
9.53924e-08
9.53699e-08
9.53508e-08
9.53323e-08
9.53129e-08
9.52934e-08
9.52805e-08
9.52551e-08
9.52432e-08
9.52265e-08
9.52015e-08
9.51859e-08
9.51845e-08
9.51808e-08
9.51577e-08
9.51722e-08
9.51543e-08
9.51398e-08
9.51235e-08
9.51372e-08
9.51372e-08
9.51362e-08
9.51519e-08
9.51785e-08
9.5175e-08
9.5175e-08
9.51832e-08
9.52252e-08
9.5241e-08
9.52201e-08
9.52269e-08
9.52819e-08
9.53222e-08
9.5361e-08
9.54102e-08
9.54153e-08
9.54305e-08
9.54654e-08
9.55073e-08
9.55653e-08
9.56223e-08
9.56909e-08
9.57433e-08
9.58019e-08
9.58696e-08
9.59712e-08
9.60574e-08
9.62033e-08
9.62994e-08
9.65324e-08
9.66434e-08
9.70617e-08
9.71387e-08
9.84496e-08
6.79407e-07
2.29677e-09
1.21524e-07
1.14492e-07
1.09942e-07
1.06981e-07
1.04886e-07
1.03331e-07
1.02114e-07
1.01153e-07
1.00359e-07
9.97121e-08
9.91549e-08
9.86948e-08
9.82864e-08
9.79421e-08
9.76356e-08
9.73772e-08
9.71384e-08
9.69378e-08
9.67468e-08
9.6588e-08
9.6433e-08
9.63044e-08
9.61801e-08
9.60796e-08
9.59759e-08
9.58939e-08
9.58105e-08
9.57473e-08
9.5674e-08
9.56222e-08
9.55753e-08
9.55341e-08
9.54907e-08
9.5454e-08
9.5409e-08
9.53777e-08
9.53519e-08
9.53249e-08
9.52978e-08
9.52747e-08
9.52433e-08
9.52202e-08
9.52004e-08
9.51813e-08
9.51614e-08
9.51415e-08
9.51281e-08
9.51024e-08
9.509e-08
9.5073e-08
9.5048e-08
9.50316e-08
9.50298e-08
9.50258e-08
9.5002e-08
9.5016e-08
9.4998e-08
9.49831e-08
9.49663e-08
9.49795e-08
9.49794e-08
9.49783e-08
9.49938e-08
9.50201e-08
9.50162e-08
9.50162e-08
9.5024e-08
9.50652e-08
9.50816e-08
9.50608e-08
9.50671e-08
9.51215e-08
9.51618e-08
9.52003e-08
9.52496e-08
9.52558e-08
9.5271e-08
9.53056e-08
9.5347e-08
9.54047e-08
9.54613e-08
9.553e-08
9.55827e-08
9.56417e-08
9.57088e-08
9.58105e-08
9.58959e-08
9.6042e-08
9.61372e-08
9.63695e-08
9.64806e-08
9.68968e-08
9.69707e-08
9.83183e-08
6.99402e-07
2.48816e-09
1.2158e-07
1.14577e-07
1.10011e-07
1.07025e-07
1.04908e-07
1.03332e-07
1.02098e-07
1.01122e-07
1.00314e-07
9.96555e-08
9.90882e-08
9.86191e-08
9.82027e-08
9.78514e-08
9.75384e-08
9.72744e-08
9.70304e-08
9.68252e-08
9.66299e-08
9.64673e-08
9.63088e-08
9.6177e-08
9.60497e-08
9.59466e-08
9.58403e-08
9.5756e-08
9.56704e-08
9.56052e-08
9.55301e-08
9.54764e-08
9.54278e-08
9.53851e-08
9.53403e-08
9.53024e-08
9.52562e-08
9.52237e-08
9.51968e-08
9.5169e-08
9.51409e-08
9.5117e-08
9.50848e-08
9.50611e-08
9.50405e-08
9.5021e-08
9.50004e-08
9.49801e-08
9.49661e-08
9.49402e-08
9.49271e-08
9.49098e-08
9.48847e-08
9.48675e-08
9.48654e-08
9.4861e-08
9.48365e-08
9.485e-08
9.48319e-08
9.48165e-08
9.47992e-08
9.48118e-08
9.48117e-08
9.48105e-08
9.48257e-08
9.48517e-08
9.48473e-08
9.48473e-08
9.48549e-08
9.48952e-08
9.49121e-08
9.48915e-08
9.48971e-08
9.4951e-08
9.49913e-08
9.50294e-08
9.50788e-08
9.50861e-08
9.51012e-08
9.51356e-08
9.51764e-08
9.52338e-08
9.52901e-08
9.53589e-08
9.54117e-08
9.54713e-08
9.55377e-08
9.56394e-08
9.57241e-08
9.58702e-08
9.59646e-08
9.61961e-08
9.63072e-08
9.67214e-08
9.67919e-08
9.81775e-08
7.2029e-07
2.70301e-09
1.21638e-07
1.14668e-07
1.10084e-07
1.07073e-07
1.04932e-07
1.03335e-07
1.02082e-07
1.01089e-07
1.00267e-07
9.95965e-08
9.90182e-08
9.85396e-08
9.81147e-08
9.77559e-08
9.7436e-08
9.7166e-08
9.69165e-08
9.67064e-08
9.65066e-08
9.63399e-08
9.61777e-08
9.60425e-08
9.59119e-08
9.58059e-08
9.5697e-08
9.56102e-08
9.55222e-08
9.54549e-08
9.53778e-08
9.53222e-08
9.52717e-08
9.52274e-08
9.51811e-08
9.51419e-08
9.50944e-08
9.50607e-08
9.50326e-08
9.50039e-08
9.49747e-08
9.49501e-08
9.49169e-08
9.48925e-08
9.48712e-08
9.4851e-08
9.48297e-08
9.4809e-08
9.47945e-08
9.47682e-08
9.47544e-08
9.47369e-08
9.47117e-08
9.46937e-08
9.46912e-08
9.46863e-08
9.46611e-08
9.46741e-08
9.46558e-08
9.464e-08
9.46221e-08
9.46341e-08
9.46339e-08
9.46326e-08
9.46475e-08
9.46731e-08
9.46683e-08
9.46683e-08
9.46755e-08
9.47149e-08
9.47323e-08
9.47119e-08
9.47169e-08
9.47701e-08
9.48104e-08
9.48482e-08
9.48976e-08
9.49061e-08
9.49211e-08
9.49552e-08
9.49955e-08
9.50526e-08
9.51084e-08
9.51773e-08
9.52303e-08
9.52903e-08
9.53561e-08
9.54578e-08
9.55417e-08
9.56879e-08
9.57814e-08
9.6012e-08
9.6123e-08
9.65351e-08
9.66021e-08
9.80269e-08
7.4193e-07
2.94433e-09
1.21699e-07
1.14763e-07
1.10163e-07
1.07125e-07
1.04958e-07
1.03339e-07
1.02066e-07
1.01056e-07
1.00219e-07
9.95351e-08
9.89452e-08
9.84564e-08
9.80225e-08
9.76557e-08
9.73286e-08
9.70521e-08
9.67967e-08
9.65813e-08
9.63767e-08
9.62057e-08
9.60395e-08
9.59007e-08
9.57667e-08
9.56576e-08
9.55458e-08
9.54564e-08
9.53659e-08
9.52963e-08
9.52171e-08
9.51594e-08
9.51069e-08
9.5061e-08
9.5013e-08
9.49724e-08
9.49236e-08
9.48885e-08
9.48591e-08
9.48295e-08
9.47991e-08
9.47736e-08
9.47395e-08
9.47143e-08
9.46922e-08
9.46715e-08
9.46494e-08
9.46282e-08
9.46131e-08
9.45865e-08
9.4572e-08
9.45542e-08
9.45288e-08
9.45099e-08
9.4507e-08
9.45017e-08
9.44758e-08
9.44881e-08
9.44697e-08
9.44534e-08
9.44349e-08
9.44463e-08
9.44461e-08
9.44445e-08
9.44591e-08
9.44843e-08
9.4479e-08
9.4479e-08
9.44858e-08
9.45242e-08
9.45421e-08
9.45219e-08
9.45264e-08
9.45788e-08
9.46191e-08
9.46566e-08
9.47058e-08
9.47156e-08
9.47305e-08
9.47644e-08
9.48041e-08
9.48608e-08
9.49162e-08
9.49851e-08
9.50383e-08
9.50988e-08
9.51638e-08
9.52656e-08
9.53486e-08
9.54948e-08
9.55875e-08
9.58169e-08
9.59279e-08
9.63378e-08
9.64011e-08
9.78658e-08
7.64149e-07
3.21558e-09
1.21762e-07
1.14863e-07
1.10246e-07
1.07181e-07
1.04987e-07
1.03344e-07
1.0205e-07
1.01022e-07
1.00169e-07
9.94714e-08
9.88693e-08
9.83697e-08
9.79262e-08
9.75509e-08
9.7216e-08
9.69327e-08
9.6671e-08
9.64501e-08
9.62404e-08
9.60648e-08
9.58943e-08
9.57516e-08
9.5614e-08
9.55017e-08
9.53868e-08
9.52945e-08
9.52014e-08
9.51294e-08
9.50479e-08
9.4988e-08
9.49334e-08
9.48857e-08
9.48359e-08
9.47939e-08
9.47437e-08
9.47071e-08
9.46763e-08
9.46456e-08
9.46141e-08
9.45877e-08
9.45525e-08
9.45266e-08
9.45036e-08
9.44822e-08
9.44593e-08
9.44376e-08
9.44218e-08
9.43948e-08
9.43796e-08
9.43615e-08
9.43359e-08
9.43161e-08
9.43128e-08
9.4307e-08
9.42804e-08
9.42919e-08
9.42735e-08
9.42566e-08
9.42375e-08
9.42481e-08
9.42479e-08
9.42461e-08
9.42604e-08
9.42852e-08
9.42793e-08
9.42793e-08
9.42857e-08
9.43231e-08
9.43415e-08
9.43215e-08
9.43254e-08
9.43769e-08
9.44172e-08
9.44543e-08
9.45035e-08
9.45144e-08
9.45294e-08
9.45629e-08
9.46021e-08
9.46584e-08
9.47133e-08
9.47821e-08
9.48356e-08
9.48965e-08
9.49608e-08
9.50626e-08
9.51446e-08
9.52908e-08
9.53826e-08
9.56108e-08
9.57217e-08
9.61292e-08
9.61889e-08
9.7694e-08
7.86738e-07
3.52062e-09
1.21827e-07
1.14968e-07
1.10334e-07
1.07241e-07
1.05019e-07
1.03351e-07
1.02035e-07
1.00988e-07
1.00118e-07
9.94056e-08
9.87905e-08
9.82795e-08
9.78259e-08
9.74415e-08
9.70985e-08
9.68079e-08
9.65396e-08
9.63128e-08
9.60976e-08
9.59171e-08
9.57421e-08
9.55954e-08
9.54539e-08
9.53381e-08
9.52199e-08
9.51247e-08
9.50287e-08
9.49541e-08
9.48703e-08
9.48081e-08
9.47512e-08
9.47016e-08
9.46499e-08
9.46063e-08
9.45546e-08
9.45164e-08
9.44841e-08
9.44524e-08
9.44196e-08
9.43922e-08
9.43558e-08
9.43291e-08
9.43052e-08
9.42831e-08
9.42593e-08
9.42371e-08
9.42206e-08
9.41933e-08
9.41772e-08
9.41588e-08
9.41329e-08
9.41122e-08
9.41083e-08
9.41022e-08
9.40748e-08
9.40856e-08
9.4067e-08
9.40496e-08
9.40298e-08
9.40396e-08
9.40395e-08
9.40374e-08
9.40513e-08
9.40756e-08
9.40692e-08
9.40691e-08
9.40752e-08
9.41115e-08
9.41302e-08
9.41105e-08
9.41138e-08
9.41644e-08
9.42046e-08
9.42414e-08
9.42905e-08
9.43026e-08
9.43175e-08
9.43508e-08
9.43893e-08
9.44452e-08
9.44995e-08
9.45684e-08
9.4622e-08
9.46834e-08
9.47469e-08
9.48486e-08
9.49297e-08
9.50758e-08
9.51667e-08
9.53935e-08
9.55042e-08
9.59092e-08
9.59652e-08
9.75109e-08
8.09452e-07
3.86375e-09
1.21893e-07
1.15078e-07
1.10427e-07
1.07305e-07
1.05054e-07
1.0336e-07
1.02021e-07
1.00953e-07
1.00066e-07
9.93379e-08
9.87091e-08
9.8186e-08
9.77216e-08
9.73278e-08
9.6976e-08
9.66778e-08
9.64025e-08
9.61694e-08
9.59485e-08
9.57628e-08
9.5583e-08
9.54319e-08
9.52863e-08
9.51669e-08
9.50452e-08
9.49469e-08
9.48478e-08
9.47705e-08
9.46842e-08
9.46195e-08
9.45602e-08
9.45086e-08
9.44549e-08
9.44097e-08
9.43563e-08
9.43165e-08
9.42826e-08
9.42497e-08
9.42155e-08
9.41871e-08
9.41495e-08
9.41219e-08
9.40971e-08
9.40742e-08
9.40495e-08
9.40266e-08
9.40094e-08
9.39817e-08
9.39647e-08