/*--------------------------------*- C++ -*----------------------------------*\
| =========                 |                                                 |
| \\      /  F ield         | OpenFOAM: The Open Source CFD Toolbox           |
|  \\    /   O peration     | Version:  v2012                                 |
|   \\  /    A nd           | Website:  www.openfoam.com                      |
|    \\/     M anipulation  |                                                 |
\*---------------------------------------------------------------------------*/
FoamFile
{
    version     2.0;
    format      ascii;
    class       volVectorField;
    location    "10.5";
    object      wallShearStress;
}
// * * * * * * * * * * * * * * * * * * * * * * * * * * * * * * * * * * * * * //

dimensions      [0 2 -2 0 0 0 0];


internalField   uniform (0 0 0);

boundaryField
{
    inlet
    {
        type            calculated;
        value           uniform (0 0 0);
    }
    outlet
    {
        type            calculated;
        value           uniform (0 0 0);
    }
    topWall
    {
        type            calculated;
        value           nonuniform List<vector> 
545
(
(2.51083e-08 -1.76346e-08 0)
(2.51957e-08 -4.96005e-08 0)
(2.50964e-08 -8.2702e-08 0)
(2.50088e-08 -1.14749e-07 0)
(2.49448e-08 -1.45375e-07 0)
(2.4874e-08 -1.74977e-07 0)
(2.47968e-08 -2.03814e-07 0)
(2.47122e-08 -2.31875e-07 0)
(2.46208e-08 -2.59096e-07 0)
(2.45232e-08 -2.85474e-07 0)
(2.44198e-08 -3.11044e-07 0)
(2.43114e-08 -3.35836e-07 0)
(2.41984e-08 -3.59868e-07 0)
(2.40812e-08 -3.83155e-07 0)
(2.39605e-08 -4.05714e-07 0)
(2.38367e-08 -4.27567e-07 0)
(2.37101e-08 -4.48731e-07 0)
(2.35812e-08 -4.69227e-07 0)
(2.34503e-08 -4.89073e-07 0)
(2.33178e-08 -5.08286e-07 0)
(2.31841e-08 -5.26887e-07 0)
(2.30493e-08 -5.44892e-07 0)
(2.29138e-08 -5.6232e-07 0)
(2.27778e-08 -5.79188e-07 0)
(2.26415e-08 -5.95513e-07 0)
(2.25052e-08 -6.11313e-07 0)
(2.23691e-08 -6.26602e-07 0)
(2.22333e-08 -6.41399e-07 0)
(2.2098e-08 -6.55717e-07 0)
(2.19633e-08 -6.69573e-07 0)
(2.18294e-08 -6.82982e-07 0)
(2.16964e-08 -6.95957e-07 0)
(2.15643e-08 -7.08513e-07 0)
(2.14334e-08 -7.20663e-07 0)
(2.13036e-08 -7.32422e-07 0)
(2.11751e-08 -7.43801e-07 0)
(2.10479e-08 -7.54813e-07 0)
(2.0922e-08 -7.6547e-07 0)
(2.07976e-08 -7.75785e-07 0)
(2.06747e-08 -7.85768e-07 0)
(2.05532e-08 -7.9543e-07 0)
(2.04332e-08 -8.04783e-07 0)
(2.03148e-08 -8.13836e-07 0)
(2.0198e-08 -8.22599e-07 0)
(2.00827e-08 -8.31082e-07 0)
(1.9969e-08 -8.39295e-07 0)
(1.98569e-08 -8.47246e-07 0)
(1.97463e-08 -8.54943e-07 0)
(1.96373e-08 -8.62397e-07 0)
(1.95299e-08 -8.69614e-07 0)
(1.94241e-08 -8.76602e-07 0)
(1.93197e-08 -8.83369e-07 0)
(1.92169e-08 -8.89923e-07 0)
(1.91156e-08 -8.96269e-07 0)
(1.90158e-08 -9.02417e-07 0)
(1.89174e-08 -9.0837e-07 0)
(1.88205e-08 -9.14137e-07 0)
(1.87249e-08 -9.19723e-07 0)
(1.86307e-08 -9.25135e-07 0)
(1.85378e-08 -9.30377e-07 0)
(1.84463e-08 -9.35456e-07 0)
(1.8356e-08 -9.40376e-07 0)
(1.82669e-08 -9.45144e-07 0)
(1.81791e-08 -9.49763e-07 0)
(1.80924e-08 -9.54238e-07 0)
(1.80068e-08 -9.58575e-07 0)
(1.79223e-08 -9.62778e-07 0)
(1.78389e-08 -9.66851e-07 0)
(1.77565e-08 -9.708e-07 0)
(1.76745e-08 -9.74614e-07 0)
(1.75963e-08 -9.78346e-07 0)
(1.75063e-08 -9.8192e-07 0)
(1.7423e-08 -9.85326e-07 0)
(1.73617e-08 -9.88709e-07 0)
(1.73e-08 -9.91998e-07 0)
(1.72384e-08 -9.95228e-07 0)
(1.7177e-08 -9.98474e-07 0)
(1.71156e-08 -1.0017e-06 0)
(1.70543e-08 -1.00489e-06 0)
(1.69931e-08 -1.00805e-06 0)
(1.6932e-08 -1.01119e-06 0)
(1.6871e-08 -1.0143e-06 0)
(1.68101e-08 -1.01739e-06 0)
(1.67492e-08 -1.02045e-06 0)
(1.66885e-08 -1.02349e-06 0)
(1.66278e-08 -1.0265e-06 0)
(1.65673e-08 -1.02948e-06 0)
(1.65068e-08 -1.03245e-06 0)
(1.64465e-08 -1.03538e-06 0)
(1.63862e-08 -1.0383e-06 0)
(1.63261e-08 -1.04119e-06 0)
(1.62658e-08 -1.04405e-06 0)
(1.62069e-08 -1.04692e-06 0)
(1.61428e-08 -1.04964e-06 0)
(1.61021e-08 -1.05263e-06 0)
(1.59589e-08 -1.0553e-06 0)
(1.57925e-08 -1.05747e-06 0)
(1.57403e-08 -1.06006e-06 0)
(1.5694e-08 -1.06234e-06 0)
(1.56495e-08 -1.06433e-06 0)
(1.56053e-08 -1.06652e-06 0)
(1.55613e-08 -1.06876e-06 0)
(1.5517e-08 -1.07098e-06 0)
(1.54726e-08 -1.07318e-06 0)
(1.54281e-08 -1.07537e-06 0)
(1.53833e-08 -1.07757e-06 0)
(1.53384e-08 -1.07976e-06 0)
(1.52934e-08 -1.08196e-06 0)
(1.52481e-08 -1.08415e-06 0)
(1.52028e-08 -1.08634e-06 0)
(1.51572e-08 -1.08853e-06 0)
(1.51115e-08 -1.09072e-06 0)
(1.50656e-08 -1.09291e-06 0)
(1.50195e-08 -1.0951e-06 0)
(1.49733e-08 -1.09728e-06 0)
(1.4927e-08 -1.09946e-06 0)
(1.48804e-08 -1.10164e-06 0)
(1.48337e-08 -1.10382e-06 0)
(1.47868e-08 -1.106e-06 0)
(1.47398e-08 -1.10818e-06 0)
(1.46926e-08 -1.11035e-06 0)
(1.46452e-08 -1.11252e-06 0)
(1.45977e-08 -1.11469e-06 0)
(1.455e-08 -1.11686e-06 0)
(1.45022e-08 -1.11903e-06 0)
(1.44542e-08 -1.12119e-06 0)
(1.4406e-08 -1.12335e-06 0)
(1.43576e-08 -1.12551e-06 0)
(1.43091e-08 -1.12767e-06 0)
(1.42604e-08 -1.12983e-06 0)
(1.42116e-08 -1.13198e-06 0)
(1.41626e-08 -1.13413e-06 0)
(1.41134e-08 -1.13628e-06 0)
(1.40641e-08 -1.13843e-06 0)
(1.40146e-08 -1.14057e-06 0)
(1.39649e-08 -1.14271e-06 0)
(1.39151e-08 -1.14485e-06 0)
(1.38651e-08 -1.14699e-06 0)
(1.3815e-08 -1.14912e-06 0)
(1.37646e-08 -1.15125e-06 0)
(1.37142e-08 -1.15338e-06 0)
(1.36635e-08 -1.1555e-06 0)
(1.36127e-08 -1.15762e-06 0)
(1.35617e-08 -1.15974e-06 0)
(1.35106e-08 -1.16186e-06 0)
(1.34593e-08 -1.16397e-06 0)
(1.34078e-08 -1.16608e-06 0)
(1.33562e-08 -1.16819e-06 0)
(1.33044e-08 -1.17029e-06 0)
(1.32525e-08 -1.17239e-06 0)
(1.32004e-08 -1.17449e-06 0)
(1.31481e-08 -1.17658e-06 0)
(1.30956e-08 -1.17867e-06 0)
(1.3043e-08 -1.18076e-06 0)
(1.29903e-08 -1.18284e-06 0)
(1.29374e-08 -1.18492e-06 0)
(1.28843e-08 -1.187e-06 0)
(1.28311e-08 -1.18907e-06 0)
(1.27777e-08 -1.19114e-06 0)
(1.27241e-08 -1.1932e-06 0)
(1.26704e-08 -1.19526e-06 0)
(1.26165e-08 -1.19732e-06 0)
(1.25625e-08 -1.19937e-06 0)
(1.25083e-08 -1.20142e-06 0)
(1.24539e-08 -1.20347e-06 0)
(1.23994e-08 -1.20551e-06 0)
(1.23447e-08 -1.20755e-06 0)
(1.22899e-08 -1.20958e-06 0)
(1.22349e-08 -1.21161e-06 0)
(1.21798e-08 -1.21363e-06 0)
(1.21245e-08 -1.21565e-06 0)
(1.20691e-08 -1.21766e-06 0)
(1.20135e-08 -1.21967e-06 0)
(1.19577e-08 -1.22168e-06 0)
(1.19018e-08 -1.22368e-06 0)
(1.18458e-08 -1.22568e-06 0)
(1.17896e-08 -1.22767e-06 0)
(1.17332e-08 -1.22966e-06 0)
(1.16767e-08 -1.23164e-06 0)
(1.162e-08 -1.23362e-06 0)
(1.15632e-08 -1.23559e-06 0)
(1.15062e-08 -1.23755e-06 0)
(1.14491e-08 -1.23952e-06 0)
(1.13919e-08 -1.24147e-06 0)
(1.13344e-08 -1.24342e-06 0)
(1.12769e-08 -1.24537e-06 0)
(1.12192e-08 -1.24731e-06 0)
(1.11613e-08 -1.24925e-06 0)
(1.11033e-08 -1.25118e-06 0)
(1.10452e-08 -1.2531e-06 0)
(1.09869e-08 -1.25502e-06 0)
(1.09285e-08 -1.25693e-06 0)
(1.08699e-08 -1.25884e-06 0)
(1.08112e-08 -1.26074e-06 0)
(1.07523e-08 -1.26264e-06 0)
(1.06933e-08 -1.26453e-06 0)
(1.06342e-08 -1.26641e-06 0)
(1.05749e-08 -1.26829e-06 0)
(1.05155e-08 -1.27016e-06 0)
(1.0456e-08 -1.27202e-06 0)
(1.03963e-08 -1.27388e-06 0)
(1.03365e-08 -1.27574e-06 0)
(1.02765e-08 -1.27758e-06 0)
(1.02164e-08 -1.27942e-06 0)
(1.01562e-08 -1.28126e-06 0)
(1.00959e-08 -1.28308e-06 0)
(1.00354e-08 -1.2849e-06 0)
(9.97475e-09 -1.28672e-06 0)
(9.914e-09 -1.28852e-06 0)
(9.85313e-09 -1.29032e-06 0)
(9.79213e-09 -1.29212e-06 0)
(9.731e-09 -1.2939e-06 0)
(9.66974e-09 -1.29568e-06 0)
(9.60836e-09 -1.29745e-06 0)
(9.54686e-09 -1.29922e-06 0)
(9.48523e-09 -1.30098e-06 0)
(9.42349e-09 -1.30273e-06 0)
(9.36162e-09 -1.30447e-06 0)
(9.29963e-09 -1.30621e-06 0)
(9.23752e-09 -1.30793e-06 0)
(9.1753e-09 -1.30965e-06 0)
(9.11296e-09 -1.31137e-06 0)
(9.0505e-09 -1.31307e-06 0)
(8.98793e-09 -1.31477e-06 0)
(8.92525e-09 -1.31646e-06 0)
(8.86246e-09 -1.31814e-06 0)
(8.79955e-09 -1.31981e-06 0)
(8.73654e-09 -1.32148e-06 0)
(8.67342e-09 -1.32314e-06 0)
(8.61019e-09 -1.32479e-06 0)
(8.54685e-09 -1.32643e-06 0)
(8.48341e-09 -1.32806e-06 0)
(8.41987e-09 -1.32969e-06 0)
(8.35623e-09 -1.3313e-06 0)
(8.29248e-09 -1.33291e-06 0)
(8.22864e-09 -1.33451e-06 0)
(8.1647e-09 -1.3361e-06 0)
(8.10066e-09 -1.33768e-06 0)
(8.03653e-09 -1.33925e-06 0)
(7.9723e-09 -1.34082e-06 0)
(7.90798e-09 -1.34237e-06 0)
(7.84357e-09 -1.34392e-06 0)
(7.77907e-09 -1.34545e-06 0)
(7.71449e-09 -1.34698e-06 0)
(7.64981e-09 -1.3485e-06 0)
(7.58505e-09 -1.35001e-06 0)
(7.52021e-09 -1.35151e-06 0)
(7.45529e-09 -1.353e-06 0)
(7.39028e-09 -1.35448e-06 0)
(7.3252e-09 -1.35595e-06 0)
(7.26004e-09 -1.35742e-06 0)
(7.1948e-09 -1.35887e-06 0)
(7.12949e-09 -1.36031e-06 0)
(7.0641e-09 -1.36174e-06 0)
(6.99865e-09 -1.36317e-06 0)
(6.93313e-09 -1.36458e-06 0)
(6.86753e-09 -1.36598e-06 0)
(6.80188e-09 -1.36737e-06 0)
(6.73616e-09 -1.36876e-06 0)
(6.67037e-09 -1.37013e-06 0)
(6.60453e-09 -1.37149e-06 0)
(6.53863e-09 -1.37284e-06 0)
(6.47266e-09 -1.37418e-06 0)
(6.40668e-09 -1.37552e-06 0)
(6.34046e-09 -1.37683e-06 0)
(6.27499e-09 -1.37816e-06 0)
(6.20648e-09 -1.37938e-06 0)
(6.15203e-09 -1.3809e-06 0)
(6.03918e-09 -1.38198e-06 0)
(5.90639e-09 -1.38286e-06 0)
(5.8424e-09 -1.3844e-06 0)
(5.79025e-09 -1.38556e-06 0)
(5.73832e-09 -1.38648e-06 0)
(5.68673e-09 -1.38755e-06 0)
(5.63457e-09 -1.38869e-06 0)
(5.58175e-09 -1.38982e-06 0)
(5.52826e-09 -1.39093e-06 0)
(5.47408e-09 -1.39204e-06 0)
(5.41924e-09 -1.39315e-06 0)
(5.36372e-09 -1.39426e-06 0)
(5.30753e-09 -1.39538e-06 0)
(5.25066e-09 -1.39649e-06 0)
(5.19313e-09 -1.3976e-06 0)
(5.13493e-09 -1.39872e-06 0)
(5.07605e-09 -1.39983e-06 0)
(5.01651e-09 -1.40094e-06 0)
(4.95629e-09 -1.40205e-06 0)
(4.89541e-09 -1.40316e-06 0)
(4.83385e-09 -1.40427e-06 0)
(4.77163e-09 -1.40537e-06 0)
(4.70873e-09 -1.40647e-06 0)
(4.64516e-09 -1.40757e-06 0)
(4.58093e-09 -1.40867e-06 0)
(4.51602e-09 -1.40976e-06 0)
(4.45044e-09 -1.41085e-06 0)
(4.38419e-09 -1.41193e-06 0)
(4.31728e-09 -1.41301e-06 0)
(4.24969e-09 -1.41408e-06 0)
(4.18144e-09 -1.41515e-06 0)
(4.11253e-09 -1.41621e-06 0)
(4.04294e-09 -1.41727e-06 0)
(3.9727e-09 -1.41832e-06 0)
(3.90179e-09 -1.41936e-06 0)
(3.83023e-09 -1.42039e-06 0)
(3.758e-09 -1.42142e-06 0)
(3.68513e-09 -1.42243e-06 0)
(3.61159e-09 -1.42344e-06 0)
(3.53741e-09 -1.42444e-06 0)
(3.46259e-09 -1.42543e-06 0)
(3.38712e-09 -1.4264e-06 0)
(3.31101e-09 -1.42737e-06 0)
(3.23426e-09 -1.42832e-06 0)
(3.15689e-09 -1.42926e-06 0)
(3.07888e-09 -1.43019e-06 0)
(3.00026e-09 -1.4311e-06 0)
(2.92101e-09 -1.432e-06 0)
(2.84116e-09 -1.43289e-06 0)
(2.7607e-09 -1.43376e-06 0)
(2.67964e-09 -1.43461e-06 0)
(2.59798e-09 -1.43545e-06 0)
(2.51574e-09 -1.43627e-06 0)
(2.43292e-09 -1.43707e-06 0)
(2.34953e-09 -1.43786e-06 0)
(2.26557e-09 -1.43862e-06 0)
(2.18105e-09 -1.43936e-06 0)
(2.09599e-09 -1.44009e-06 0)
(2.01039e-09 -1.44079e-06 0)
(1.92425e-09 -1.44147e-06 0)
(1.8376e-09 -1.44212e-06 0)
(1.75044e-09 -1.44276e-06 0)
(1.66278e-09 -1.44336e-06 0)
(1.57463e-09 -1.44395e-06 0)
(1.486e-09 -1.4445e-06 0)
(1.39692e-09 -1.44503e-06 0)
(1.30737e-09 -1.44553e-06 0)
(1.21739e-09 -1.44601e-06 0)
(1.12698e-09 -1.44645e-06 0)
(1.03617e-09 -1.44687e-06 0)
(9.44949e-10 -1.44725e-06 0)
(8.5335e-10 -1.4476e-06 0)
(7.61384e-10 -1.44792e-06 0)
(6.69067e-10 -1.4482e-06 0)
(5.76415e-10 -1.44845e-06 0)
(4.83445e-10 -1.44866e-06 0)
(3.90175e-10 -1.44884e-06 0)
(2.96623e-10 -1.44898e-06 0)
(2.02807e-10 -1.44908e-06 0)
(1.08747e-10 -1.44914e-06 0)
(1.44627e-11 -1.44916e-06 0)
(-8.0026e-11 -1.44914e-06 0)
(-1.74698e-10 -1.44908e-06 0)
(-2.69532e-10 -1.44897e-06 0)
(-3.64505e-10 -1.44882e-06 0)
(-4.59596e-10 -1.44862e-06 0)
(-5.5478e-10 -1.44838e-06 0)
(-6.50035e-10 -1.44809e-06 0)
(-7.45334e-10 -1.44775e-06 0)
(-8.40655e-10 -1.44736e-06 0)
(-9.35971e-10 -1.44692e-06 0)
(-1.03126e-09 -1.44643e-06 0)
(-1.12648e-09 -1.44589e-06 0)
(-1.22162e-09 -1.44529e-06 0)
(-1.31665e-09 -1.44464e-06 0)
(-1.41154e-09 -1.44393e-06 0)
(-1.50625e-09 -1.44317e-06 0)
(-1.60077e-09 -1.44235e-06 0)
(-1.69506e-09 -1.44147e-06 0)
(-1.78908e-09 -1.44053e-06 0)
(-1.88281e-09 -1.43952e-06 0)
(-1.97622e-09 -1.43846e-06 0)
(-2.06927e-09 -1.43733e-06 0)
(-2.16193e-09 -1.43614e-06 0)
(-2.25417e-09 -1.43488e-06 0)
(-2.34596e-09 -1.43356e-06 0)
(-2.43725e-09 -1.43217e-06 0)
(-2.52802e-09 -1.43071e-06 0)
(-2.61822e-09 -1.42918e-06 0)
(-2.70784e-09 -1.42758e-06 0)
(-2.79682e-09 -1.42591e-06 0)
(-2.88514e-09 -1.42417e-06 0)
(-2.97275e-09 -1.42236e-06 0)
(-3.05962e-09 -1.42047e-06 0)
(-3.14571e-09 -1.41851e-06 0)
(-3.231e-09 -1.41647e-06 0)
(-3.31543e-09 -1.41435e-06 0)
(-3.39897e-09 -1.41216e-06 0)
(-3.48159e-09 -1.40988e-06 0)
(-3.56325e-09 -1.40753e-06 0)
(-3.6439e-09 -1.4051e-06 0)
(-3.72352e-09 -1.40259e-06 0)
(-3.80206e-09 -1.39999e-06 0)
(-3.8795e-09 -1.39732e-06 0)
(-3.95578e-09 -1.39455e-06 0)
(-4.03088e-09 -1.39171e-06 0)
(-4.10475e-09 -1.38878e-06 0)
(-4.17737e-09 -1.38577e-06 0)
(-4.24868e-09 -1.38267e-06 0)
(-4.31867e-09 -1.37949e-06 0)
(-4.38728e-09 -1.37622e-06 0)
(-4.4545e-09 -1.37286e-06 0)
(-4.52027e-09 -1.36942e-06 0)
(-4.58458e-09 -1.36589e-06 0)
(-4.64737e-09 -1.36227e-06 0)
(-4.70862e-09 -1.35856e-06 0)
(-4.76828e-09 -1.35476e-06 0)
(-4.82635e-09 -1.35088e-06 0)
(-4.88276e-09 -1.3469e-06 0)
(-4.9375e-09 -1.34284e-06 0)
(-4.99052e-09 -1.33868e-06 0)
(-5.0418e-09 -1.33444e-06 0)
(-5.0913e-09 -1.33011e-06 0)
(-5.139e-09 -1.32569e-06 0)
(-5.18486e-09 -1.32118e-06 0)
(-5.22885e-09 -1.31659e-06 0)
(-5.27094e-09 -1.3119e-06 0)
(-5.31112e-09 -1.30713e-06 0)
(-5.34932e-09 -1.30226e-06 0)
(-5.38557e-09 -1.29732e-06 0)
(-5.41979e-09 -1.29228e-06 0)
(-5.452e-09 -1.28716e-06 0)
(-5.48214e-09 -1.28195e-06 0)
(-5.51023e-09 -1.27666e-06 0)
(-5.53621e-09 -1.27129e-06 0)
(-5.5601e-09 -1.26583e-06 0)
(-5.58186e-09 -1.26029e-06 0)
(-5.60151e-09 -1.25467e-06 0)
(-5.61901e-09 -1.24897e-06 0)
(-5.63438e-09 -1.2432e-06 0)
(-5.64759e-09 -1.23734e-06 0)
(-5.65869e-09 -1.23141e-06 0)
(-5.66761e-09 -1.2254e-06 0)
(-5.67443e-09 -1.21932e-06 0)
(-5.6791e-09 -1.21317e-06 0)
(-5.68169e-09 -1.20695e-06 0)
(-5.68214e-09 -1.20065e-06 0)
(-5.68053e-09 -1.1943e-06 0)
(-5.67682e-09 -1.18787e-06 0)
(-5.67109e-09 -1.18138e-06 0)
(-5.66329e-09 -1.17483e-06 0)
(-5.65349e-09 -1.16822e-06 0)
(-5.64167e-09 -1.16154e-06 0)
(-5.62787e-09 -1.15481e-06 0)
(-5.61206e-09 -1.14803e-06 0)
(-5.5943e-09 -1.14119e-06 0)
(-5.57454e-09 -1.1343e-06 0)
(-5.55277e-09 -1.12737e-06 0)
(-5.52908e-09 -1.12035e-06 0)
(-5.50269e-09 -1.11341e-06 0)
(-5.47754e-09 -1.10607e-06 0)
(-5.44355e-09 -1.09918e-06 0)
(-5.39057e-09 -1.09156e-06 0)
(-5.3398e-09 -1.08243e-06 0)
(-5.29777e-09 -1.0738e-06 0)
(-5.25477e-09 -1.06544e-06 0)
(-5.21033e-09 -1.05698e-06 0)
(-5.16454e-09 -1.04856e-06 0)
(-5.11736e-09 -1.04021e-06 0)
(-5.0689e-09 -1.03198e-06 0)
(-5.01915e-09 -1.02381e-06 0)
(-4.96829e-09 -1.01574e-06 0)
(-4.91631e-09 -1.00773e-06 0)
(-4.86337e-09 -9.99817e-07 0)
(-4.80949e-09 -9.91985e-07 0)
(-4.75482e-09 -9.84248e-07 0)
(-4.69936e-09 -9.76592e-07 0)
(-4.64328e-09 -9.69034e-07 0)
(-4.58657e-09 -9.6156e-07 0)
(-4.52938e-09 -9.54186e-07 0)
(-4.47168e-09 -9.46897e-07 0)
(-4.41363e-09 -9.39709e-07 0)
(-4.35518e-09 -9.32608e-07 0)
(-4.29648e-09 -9.2561e-07 0)
(-4.23749e-09 -9.18699e-07 0)
(-4.17832e-09 -9.11892e-07 0)
(-4.11893e-09 -9.05173e-07 0)
(-4.05944e-09 -8.98558e-07 0)
(-3.9998e-09 -8.92031e-07 0)
(-3.94011e-09 -8.85609e-07 0)
(-3.88032e-09 -8.79276e-07 0)
(-3.82053e-09 -8.73047e-07 0)
(-3.76069e-09 -8.66908e-07 0)
(-3.70088e-09 -8.60873e-07 0)
(-3.64105e-09 -8.54928e-07 0)
(-3.58129e-09 -8.49086e-07 0)
(-3.52155e-09 -8.43335e-07 0)
(-3.4619e-09 -8.37687e-07 0)
(-3.40229e-09 -8.32129e-07 0)
(-3.3428e-09 -8.26674e-07 0)
(-3.28338e-09 -8.21308e-07 0)
(-3.2241e-09 -8.16046e-07 0)
(-3.1649e-09 -8.10873e-07 0)
(-3.10585e-09 -8.05802e-07 0)
(-3.04691e-09 -8.0082e-07 0)
(-2.98813e-09 -7.9594e-07 0)
(-2.92947e-09 -7.91149e-07 0)
(-2.87097e-09 -7.86459e-07 0)
(-2.81261e-09 -7.81857e-07 0)
(-2.75442e-09 -7.77356e-07 0)
(-2.69636e-09 -7.72943e-07 0)
(-2.63847e-09 -7.6863e-07 0)
(-2.58072e-09 -7.64404e-07 0)
(-2.52314e-09 -7.60277e-07 0)
(-2.46568e-09 -7.56238e-07 0)
(-2.40839e-09 -7.52297e-07 0)
(-2.35123e-09 -7.48444e-07 0)
(-2.29421e-09 -7.44688e-07 0)
(-2.23731e-09 -7.41018e-07 0)
(-2.18055e-09 -7.37446e-07 0)
(-2.1239e-09 -7.33961e-07 0)
(-2.06737e-09 -7.30572e-07 0)
(-2.01092e-09 -7.27269e-07 0)
(-1.95459e-09 -7.24062e-07 0)
(-1.89834e-09 -7.20942e-07 0)
(-1.84218e-09 -7.17917e-07 0)
(-1.78608e-09 -7.14978e-07 0)
(-1.73007e-09 -7.12134e-07 0)
(-1.6741e-09 -7.09377e-07 0)
(-1.6182e-09 -7.06714e-07 0)
(-1.56233e-09 -7.04138e-07 0)
(-1.50651e-09 -7.01655e-07 0)
(-1.45072e-09 -6.99259e-07 0)
(-1.39497e-09 -6.96957e-07 0)
(-1.33923e-09 -6.94742e-07 0)
(-1.28351e-09 -6.9262e-07 0)
(-1.2278e-09 -6.90586e-07 0)
(-1.17209e-09 -6.88644e-07 0)
(-1.11639e-09 -6.8679e-07 0)
(-1.06068e-09 -6.85029e-07 0)
(-1.00496e-09 -6.83355e-07 0)
(-9.49229e-10 -6.81774e-07 0)
(-8.93469e-10 -6.80281e-07 0)
(-8.3768e-10 -6.7888e-07 0)
(-7.81838e-10 -6.77568e-07 0)
(-7.25922e-10 -6.76347e-07 0)
(-6.69882e-10 -6.75214e-07 0)
(-6.13649e-10 -6.74178e-07 0)
(-5.57103e-10 -6.73213e-07 0)
(-5.00105e-10 -6.724e-07 0)
(-4.42395e-10 -6.71477e-07 0)
(-3.84106e-10 -6.71311e-07 0)
(-3.24233e-10 -6.68995e-07 0)
(-2.67097e-10 -6.73941e-07 0)
(-1.9702e-10 -6.53415e-07 0)
(-1.85281e-10 -7.06768e-07 0)
(-1.08574e-10 -6.17028e-07 0)
)
;
    }
    bottomWall
    {
        type            calculated;
        value           nonuniform List<vector> 
449
(
(-53.1809 -0.960933 0)
(-35.085 -0.00282957 0)
(-34.6153 -0.000270729 0)
(-33.2259 -0.000360811 0)
(-32.1509 -0.000298635 0)
(-31.179 -0.000276393 0)
(-30.2453 -0.000263516 0)
(-29.3555 -0.000247042 0)
(-28.5333 -0.000225692 0)
(-27.7899 -0.000203093 0)
(-27.1229 -0.000181772 0)
(-26.5259 -0.000162674 0)
(-25.9898 -0.000146292 0)
(-25.505 -0.000132238 0)
(-25.0653 -0.000119533 0)
(-24.6677 -0.000108688 0)
(-24.3024 -9.94137e-05 0)
(-23.9685 -9.0965e-05 0)
(-23.6612 -8.39616e-05 0)
(-23.3753 -7.77222e-05 0)
(-23.1109 -7.21179e-05 0)
(-22.8636 -6.72067e-05 0)
(-22.633 -6.25263e-05 0)
(-22.418 -5.85544e-05 0)
(-22.2147 -5.52574e-05 0)
(-22.0224 -5.1931e-05 0)
(-21.8421 -4.88329e-05 0)
(-21.6712 -4.60253e-05 0)
(-21.5104 -4.32815e-05 0)
(-21.3586 -4.11105e-05 0)
(-21.2127 -3.93274e-05 0)
(-21.0731 -3.73536e-05 0)
(-20.941 -3.54224e-05 0)
(-20.815 -3.36089e-05 0)
(-20.6955 -3.1977e-05 0)
(-20.5808 -3.0748e-05 0)
(-20.4698 -2.94549e-05 0)
(-20.3641 -2.81911e-05 0)
(-20.2619 -2.71723e-05 0)
(-20.1632 -2.61471e-05 0)
(-20.0682 -2.51181e-05 0)
(-19.9767 -2.40063e-05 0)
(-19.8896 -2.30413e-05 0)
(-19.8049 -2.22284e-05 0)
(-19.7234 -2.13275e-05 0)
(-19.6451 -2.0503e-05 0)
(-19.5694 -1.97958e-05 0)
(-19.4961 -1.90993e-05 0)
(-19.4253 -1.85534e-05 0)
(-19.3558 -1.8095e-05 0)
(-19.2882 -1.74516e-05 0)
(-19.2232 -1.67588e-05 0)
(-19.1606 -1.63372e-05 0)
(-19.0985 -1.60241e-05 0)
(-19.0379 -1.54269e-05 0)
(-18.9802 -1.4917e-05 0)
(-18.9233 -1.44513e-05 0)
(-18.8689 -1.41283e-05 0)
(-18.8142 -1.37182e-05 0)
(-18.7627 -1.32348e-05 0)
(-18.7116 -1.28776e-05 0)
(-18.6626 -1.24498e-05 0)
(-18.6146 -1.22581e-05 0)
(-18.5669 -1.21218e-05 0)
(-18.5196 -1.1784e-05 0)
(-18.4744 -1.14128e-05 0)
(-18.4299 -1.11605e-05 0)
(-18.3864 -1.09205e-05 0)
(-18.3437 -1.04814e-05 0)
(-18.3035 -1.01352e-05 0)
(-18.2632 -1.00269e-05 0)
(-18.2237 -9.88273e-06 0)
(-18.1844 -9.55167e-06 0)
(-18.1475 -9.14805e-06 0)
(-18.1112 -8.92293e-06 0)
(-18.0759 -8.60795e-06 0)
(-18.042 -8.32888e-06 0)
(-18.0087 -8.22271e-06 0)
(-17.9756 -8.21094e-06 0)
(-17.9422 -8.11913e-06 0)
(-17.9096 -7.86155e-06 0)
(-17.8782 -7.5623e-06 0)
(-17.8479 -7.33207e-06 0)
(-17.8182 -7.24714e-06 0)
(-17.7885 -7.24551e-06 0)
(-17.7586 -7.30588e-06 0)
(-17.7282 -7.1467e-06 0)
(-17.6996 -6.72257e-06 0)
(-17.6727 -6.51357e-06 0)
(-17.6456 -6.44053e-06 0)
(-17.6191 -6.33015e-06 0)
(-17.5929 -6.28607e-06 0)
(-17.5666 -6.16889e-06 0)
(-17.5412 -6.07646e-06 0)
(-17.5155 -6.10308e-06 0)
(-17.4897 -5.94952e-06 0)
(-17.4653 -5.68169e-06 0)
(-17.4417 -5.53634e-06 0)
(-17.4184 -5.43439e-06 0)
(-17.3956 -5.33064e-06 0)
(-17.373 -5.18493e-06 0)
(-17.3514 -5.01373e-06 0)
(-17.3302 -5.02211e-06 0)
(-17.3083 -5.08234e-06 0)
(-17.2865 -5.05566e-06 0)
(-17.2647 -5.04812e-06 0)
(-17.2428 -5.01831e-06 0)
(-17.2213 -4.7366e-06 0)
(-17.2018 -4.57314e-06 0)
(-17.1815 -4.44961e-06 0)
(-17.163 -4.37685e-06 0)
(-17.1432 -4.44768e-06 0)
(-17.124 -4.40214e-06 0)
(-17.1045 -4.48476e-06 0)
(-17.0844 -4.55651e-06 0)
(-17.0642 -4.47378e-06 0)
(-17.0447 -4.28099e-06 0)
(-17.0262 -4.17252e-06 0)
(-17.0077 -4.1791e-06 0)
(-16.989 -4.00017e-06 0)
(-16.972 -3.72703e-06 0)
(-16.9557 -3.6672e-06 0)
(-16.9392 -3.62082e-06 0)
(-16.9231 -3.59673e-06 0)
(-16.9067 -3.67768e-06 0)
(-16.8898 -3.73633e-06 0)
(-16.8727 -3.73721e-06 0)
(-16.8558 -3.78457e-06 0)
(-16.8383 -3.72456e-06 0)
(-16.8219 -3.46374e-06 0)
(-16.8067 -3.17808e-06 0)
(-16.7929 -2.98889e-06 0)
(-16.7793 -3.00956e-06 0)
(-16.7652 -2.99508e-06 0)
(-16.7517 -2.89162e-06 0)
(-16.7384 -2.99214e-06 0)
(-16.7238 -3.12418e-06 0)
(-16.7092 -3.17085e-06 0)
(-16.6942 -3.24862e-06 0)
(-16.6788 -3.32292e-06 0)
(-16.6629 -3.41367e-06 0)
(-16.6466 -3.32212e-06 0)
(-16.6316 -3.22066e-06 0)
(-16.6163 -3.09119e-06 0)
(-16.6026 -2.86492e-06 0)
(-16.5894 -2.66476e-06 0)
(-16.5775 -2.531e-06 0)
(-16.5654 -2.62012e-06 0)
(-16.5525 -2.64873e-06 0)
(-16.54 -2.58011e-06 0)
(-16.5277 -2.51118e-06 0)
(-16.5158 -2.53701e-06 0)
(-16.5032 -2.55326e-06 0)
(-16.4911 -2.63589e-06 0)
(-16.4776 -2.8299e-06 0)
(-16.4636 -2.70975e-06 0)
(-16.4513 -2.58377e-06 0)
(-16.4385 -2.59794e-06 0)
(-16.426 -2.56027e-06 0)
(-16.4135 -2.40219e-06 0)
(-16.4024 -2.32275e-06 0)
(-16.3906 -2.2868e-06 0)
(-16.3799 -2.1797e-06 0)
(-16.3691 -2.35855e-06 0)
(-16.3564 -2.5322e-06 0)
(-16.3439 -2.42564e-06 0)
(-16.3323 -2.32165e-06 0)
(-16.3208 -2.44636e-06 0)
(-16.3078 -2.40502e-06 0)
(-16.2967 -2.28375e-06 0)
(-16.285 -2.21223e-06 0)
(-16.2745 -2.08935e-06 0)
(-16.264 -2.10104e-06 0)
(-16.2539 -2.07236e-06 0)
(-16.2447 -2.06309e-06 0)
(-16.2352 -2.11176e-06 0)
(-16.2254 -1.96527e-06 0)
(-16.2169 -1.99274e-06 0)
(-16.2066 -2.05696e-06 0)
(-16.1975 -1.72675e-06 0)
(-16.1902 -1.6074e-06 0)
(-16.182 -1.76393e-06 0)
(-16.173 -1.79448e-06 0)
(-16.1643 -1.85561e-06 0)
(-16.1543 -2.04493e-06 0)
(-16.1434 -2.10054e-06 0)
(-16.1328 -1.92474e-06 0)
(-16.1236 -1.73783e-06 0)
(-16.1147 -1.5916e-06 0)
(-16.1068 -1.51186e-06 0)
(-16.0986 -1.63031e-06 0)
(-16.0892 -1.57589e-06 0)
(-16.0814 -1.55759e-06 0)
(-16.072 -1.80974e-06 0)
(-16.0611 -1.81975e-06 0)
(-16.0515 -1.71487e-06 0)
(-16.0416 -1.72546e-06 0)
(-16.0316 -1.6765e-06 0)
(-16.0222 -1.51728e-06 0)
(-16.0139 -1.45595e-06 0)
(-16.0049 -1.45636e-06 0)
(-15.9964 -1.35084e-06 0)
(-15.9886 -1.33422e-06 0)
(-15.98 -1.44379e-06 0)
(-15.9705 -1.49745e-06 0)
(-15.9612 -1.40266e-06 0)
(-15.9527 -1.40725e-06 0)
(-15.9431 -1.43513e-06 0)
(-15.9341 -1.37831e-06 0)
(-15.925 -1.37041e-06 0)
(-15.9159 -1.34967e-06 0)
(-15.9069 -1.38551e-06 0)
(-15.8971 -1.39386e-06 0)
(-15.8878 -1.29616e-06 0)
(-15.8792 -1.33576e-06 0)
(-15.8691 -1.42085e-06 0)
(-15.859 -1.44301e-06 0)
(-15.8484 -1.4444e-06 0)
(-15.8382 -1.27571e-06 0)
(-15.8298 -1.24601e-06 0)
(-15.8197 -1.29733e-06 0)
(-15.8104 -1.20564e-06 0)
(-15.8016 -1.20454e-06 0)
(-15.7921 -1.15657e-06 0)
(-15.7838 -1.16919e-06 0)
(-15.7738 -1.12102e-06 0)
(-15.7661 -1.04537e-06 0)
(-15.7571 -1.14873e-06 0)
(-15.7476 -1.08353e-06 0)
(-15.7396 -1.01853e-06 0)
(-15.7308 -1.0816e-06 0)
(-15.7216 -1.01916e-06 0)
(-15.7138 -1.05404e-06 0)
(-15.7037 -1.07561e-06 0)
(-15.6954 -8.8164e-07 0)
(-15.6885 -7.60311e-07 0)
(-15.6822 -8.45092e-07 0)
(-15.6735 -1.01197e-06 0)
(-15.664 -1.0102e-06 0)
(-15.6553 -9.91409e-07 0)
(-15.6459 -9.48636e-07 0)
(-15.6378 -8.14856e-07 0)
(-15.6308 -7.19902e-07 0)
(-15.6243 -7.68085e-07 0)
(-15.6161 -8.74237e-07 0)
(-15.6074 -8.19848e-07 0)
(-15.6001 -8.71908e-07 0)
(-15.5901 -9.20209e-07 0)
(-15.5817 -7.74966e-07 0)
(-15.5746 -7.05126e-07 0)
(-15.5675 -6.56756e-07 0)
(-15.5612 -6.32309e-07 0)
(-15.5544 -7.01822e-07 0)
(-15.5464 -7.38806e-07 0)
(-15.5386 -6.87408e-07 0)
(-15.5316 -6.78995e-07 0)
(-15.5238 -7.36958e-07 0)
(-15.5154 -6.86483e-07 0)
(-15.5086 -6.08686e-07 0)
(-15.5017 -6.72348e-07 0)
(-15.4933 -7.13028e-07 0)
(-15.4853 -6.27011e-07 0)
(-15.4789 -5.528e-07 0)
(-15.4725 -5.70603e-07 0)
(-15.4653 -5.74647e-07 0)
(-15.4587 -5.93213e-07 0)
(-15.451 -6.94782e-07 0)
(-15.4417 -6.51386e-07 0)
(-15.435 -5.16662e-07 0)
(-15.4289 -4.68752e-07 0)
(-15.4232 -5.13463e-07 0)
(-15.4158 -5.91149e-07 0)
(-15.4079 -5.50477e-07 0)
(-15.4015 -4.65902e-07 0)
(-15.3957 -4.81818e-07 0)
(-15.3886 -5.13958e-07 0)
(-15.3818 -4.29008e-07 0)
(-15.377 -4.27407e-07 0)
(-15.3701 -4.86646e-07 0)
(-15.3635 -4.94832e-07 0)
(-15.3562 -4.61051e-07 0)
(-15.3504 -3.96104e-07 0)
(-15.3448 -4.3111e-07 0)
(-15.3378 -4.82629e-07 0)
(-15.3306 -4.28714e-07 0)
(-15.3252 -3.34401e-07 0)
(-15.3206 -3.58774e-07 0)
(-15.3141 -4.44975e-07 0)
(-15.3068 -4.3152e-07 0)
(-15.3008 -4.08479e-07 0)
(-15.294 -3.74152e-07 0)
(-15.2889 -3.42781e-07 0)
(-15.2831 -3.59211e-07 0)
(-15.2773 -3.29587e-07 0)
(-15.2722 -3.52263e-07 0)
(-15.2655 -4.15226e-07 0)
(-15.2583 -3.77538e-07 0)
(-15.2528 -3.75877e-07 0)
(-15.2454 -4.08494e-07 0)
(-15.2387 -3.78972e-07 0)
(-15.2322 -3.91107e-07 0)
(-15.2249 -3.46071e-07 0)
(-15.2199 -2.54174e-07 0)
(-15.2158 -2.03389e-07 0)
(-15.2125 -2.51238e-07 0)
(-15.2064 -3.41203e-07 0)
(-15.1997 -3.35237e-07 0)
(-15.1938 -3.3019e-07 0)
(-15.1871 -3.24916e-07 0)
(-15.1812 -3.10453e-07 0)
(-15.1749 -3.51541e-07 0)
(-15.1673 -3.27087e-07 0)
(-15.162 -2.45037e-07 0)
(-15.1575 -2.15442e-07 0)
(-15.1532 -2.40078e-07 0)
(-15.1476 -2.55548e-07 0)
(-15.1426 -2.46807e-07 0)
(-15.1372 -2.80467e-07 0)
(-15.1306 -3.05464e-07 0)
(-15.124 -2.77325e-07 0)
(-15.1186 -2.19521e-07 0)
(-15.1145 -2.06898e-07 0)
(-15.1093 -2.57739e-07 0)
(-15.1028 -2.98409e-07 0)
(-15.0958 -2.7344e-07 0)
(-15.0904 -2.1978e-07 0)
(-15.0857 -2.03479e-07 0)
(-15.0809 -2.33399e-07 0)
(-15.0747 -2.34884e-07 0)
(-15.0697 -1.78021e-07 0)
(-15.0661 -1.76037e-07 0)
(-15.061 -2.38898e-07 0)
(-15.0542 -2.37445e-07 0)
(-15.0491 -1.6633e-07 0)
(-15.0458 -1.48977e-07 0)
(-15.0415 -2.10373e-07 0)
(-15.0349 -2.26395e-07 0)
(-15.0297 -1.84805e-07 0)
(-15.0252 -1.85333e-07 0)
(-15.0198 -1.79085e-07 0)
(-15.0156 -1.36982e-07 0)
(-15.0124 -1.48275e-07 0)
(-15.0073 -1.64281e-07 0)
(-15.0032 -1.43065e-07 0)
(-14.9993 -1.74747e-07 0)
(-14.9932 -1.8497e-07 0)
(-14.9887 -1.45854e-07 0)
(-14.9847 -1.65932e-07 0)
(-14.9788 -1.71261e-07 0)
(-14.9746 -1.34017e-07 0)
(-14.9709 -1.48074e-07 0)
(-14.9656 -1.51747e-07 0)
(-14.9616 -1.27314e-07 0)
(-14.9577 -1.25848e-07 0)
(-14.9533 -1.17686e-07 0)
(-14.9491 -1.27527e-07 0)
(-14.9433 -1.49296e-07 0)
(-14.9375 -1.55307e-07 0)
(-14.9313 -1.56903e-07 0)
(-14.9253 -1.69826e-07 0)
(-14.918 -1.96107e-07 0)
(-14.9099 -2.00183e-07 0)
(-14.9024 -1.64611e-07 0)
(-14.8972 -1.24611e-07 0)
(-14.8928 -1.32773e-07 0)
(-14.8869 -1.36256e-07 0)
(-14.8822 -1.21127e-07 0)
(-14.8775 -1.13709e-07 0)
(-14.8735 -9.53892e-08 0)
(-14.8702 -1.00491e-07 0)
(-14.8657 -1.27124e-07 0)
(-14.8603 -1.15485e-07 0)
(-14.8567 -9.24153e-08 0)
(-14.8532 -1.04234e-07 0)
(-14.8487 -9.50064e-08 0)
(-14.8459 -6.18254e-08 0)
(-14.844 -6.34734e-08 0)
(-14.841 -1.00835e-07 0)
(-14.8361 -1.18281e-07 0)
(-14.8318 -1.13347e-07 0)
(-14.8274 -9.46828e-08 0)
(-14.8245 -7.13302e-08 0)
(-14.8219 -8.02051e-08 0)
(-14.8183 -8.08231e-08 0)
(-14.8156 -6.67805e-08 0)
(-14.8131 -8.07878e-08 0)
(-14.8094 -8.60955e-08 0)
(-14.8065 -7.75097e-08 0)
(-14.8033 -8.64194e-08 0)
(-14.7998 -7.518e-08 0)
(-14.7976 -5.69378e-08 0)
(-14.7955 -5.32837e-08 0)
(-14.7935 -6.83061e-08 0)
(-14.7902 -8.33334e-08 0)
(-14.787 -8.18964e-08 0)
(-14.7838 -9.10086e-08 0)
(-14.78 -8.37099e-08 0)
(-14.7774 -7.54217e-08 0)
(-14.7743 -8.35235e-08 0)
(-14.771 -6.42717e-08 0)
(-14.7693 -4.82336e-08 0)
(-14.7674 -4.88699e-08 0)
(-14.7656 -5.23582e-08 0)
(-14.7633 -7.55228e-08 0)
(-14.7598 -8.14904e-08 0)
(-14.757 -6.59259e-08 0)
(-14.7546 -6.92912e-08 0)
(-14.7516 -8.26072e-08 0)
(-14.7483 -6.97483e-08 0)
(-14.7463 -5.6978e-08 0)
(-14.7439 -5.09375e-08 0)
(-14.7423 -4.78005e-08 0)
(-14.7402 -5.26778e-08 0)
(-14.7383 -6.23856e-08 0)
(-14.7354 -5.89149e-08 0)
(-14.7338 -4.56532e-08 0)
(-14.732 -4.28863e-08 0)
(-14.7306 -2.6518e-08 0)
(-14.73 -1.72532e-08 0)
(-14.7293 -3.35793e-08 0)
(-14.7274 -5.44911e-08 0)
(-14.725 -5.84681e-08 0)
(-14.7229 -4.44794e-08 0)
(-14.7216 -3.9015e-08 0)
(-14.7199 -4.38448e-08 0)
(-14.7182 -4.23552e-08 0)
(-14.7166 -5.65127e-08 0)
(-14.7139 -5.85526e-08 0)
(-14.7121 -4.74166e-08 0)
(-14.7102 -5.23997e-08 0)
(-14.7081 -4.40892e-08 0)
(-14.7069 -3.36741e-08 0)
(-14.7055 -5.01378e-08 0)
(-14.7029 -6.85642e-08 0)
(-14.7002 -5.54742e-08 0)
(-14.6987 -3.89407e-08 0)
(-14.6972 -3.68622e-08 0)
(-14.6959 -2.91584e-08 0)
(-14.695 -3.44328e-08 0)
(-14.6932 -5.17075e-08 0)
(-14.691 -4.60079e-08 0)
(-14.6897 -3.62558e-08 0)
(-14.6882 -3.94185e-08 0)
(-14.6867 -4.38529e-08 0)
(-14.6848 -3.30562e-08 0)
(-14.6842 -3.55374e-08 0)
(-14.6821 -3.04313e-08 0)
(-14.6819 -3.59056e-08 0)
(-14.6793 -3.38151e-08 0)
)
;
    }
    symmetry
    {
        type            symmetryPlane;
    }
    frontAndBack
    {
        type            empty;
    }
}


// ************************************************************************* //
