/*--------------------------------*- C++ -*----------------------------------*\
| =========                 |                                                 |
| \\      /  F ield         | OpenFOAM: The Open Source CFD Toolbox           |
|  \\    /   O peration     | Version:  v2012                                 |
|   \\  /    A nd           | Website:  www.openfoam.com                      |
|    \\/     M anipulation  |                                                 |
\*---------------------------------------------------------------------------*/
FoamFile
{
    version     2.0;
    format      ascii;
    class       volScalarField;
    location    "1.5";
    object      nut;
}
// * * * * * * * * * * * * * * * * * * * * * * * * * * * * * * * * * * * * * //

dimensions      [0 2 -1 0 0 0 0];


internalField   nonuniform List<scalar> 
209825
(
1.25137e-07
1.25224e-07
1.25232e-07
1.25231e-07
1.25232e-07
1.25232e-07
1.25232e-07
1.25231e-07
1.25231e-07
1.25231e-07
1.25231e-07
1.25231e-07
1.25231e-07
1.25231e-07
1.25231e-07
1.25231e-07
1.25231e-07
1.2523e-07
1.2523e-07
1.2523e-07
1.2523e-07
1.2523e-07
1.2523e-07
1.2523e-07
1.2523e-07
1.2523e-07
1.2523e-07
1.25229e-07
1.25229e-07
1.25229e-07
1.25229e-07
1.25229e-07
1.25229e-07
1.25228e-07
1.25228e-07
1.25228e-07
1.25228e-07
1.25227e-07
1.25227e-07
1.25227e-07
1.25227e-07
1.25227e-07
1.25227e-07
1.25226e-07
1.25226e-07
1.25226e-07
1.25226e-07
1.25225e-07
1.25225e-07
1.25225e-07
1.25225e-07
1.25224e-07
1.25224e-07
1.25223e-07
1.25223e-07
1.25223e-07
1.25223e-07
1.25222e-07
1.25222e-07
1.25222e-07
1.25222e-07
1.25221e-07
1.25221e-07
1.25221e-07
1.25221e-07
1.25221e-07
1.25221e-07
1.2522e-07
1.2522e-07
1.2522e-07
1.2522e-07
1.25218e-07
1.25218e-07
1.25218e-07
1.25218e-07
1.25218e-07
1.25218e-07
1.25218e-07
1.25218e-07
1.25218e-07
1.25218e-07
1.25217e-07
1.25218e-07
1.25217e-07
1.25217e-07
1.25217e-07
1.25218e-07
1.25216e-07
1.25217e-07
1.25219e-07
1.25215e-07
1.25219e-07
1.25225e-07
1.25217e-07
1.25019e-07
8.42527e-09
1.25139e-07
1.25226e-07
1.25234e-07
1.25234e-07
1.25234e-07
1.25234e-07
1.25234e-07
1.25233e-07
1.25233e-07
1.25233e-07
1.25233e-07
1.25233e-07
1.25233e-07
1.25233e-07
1.25233e-07
1.25233e-07
1.25233e-07
1.25233e-07
1.25233e-07
1.25232e-07
1.25232e-07
1.25232e-07
1.25232e-07
1.25232e-07
1.25232e-07
1.25232e-07
1.25232e-07
1.25231e-07
1.25231e-07
1.25231e-07
1.25231e-07
1.25231e-07
1.25231e-07
1.2523e-07
1.2523e-07
1.2523e-07
1.2523e-07
1.2523e-07
1.2523e-07
1.25229e-07
1.25229e-07
1.25229e-07
1.25229e-07
1.25228e-07
1.25228e-07
1.25228e-07
1.25228e-07
1.25227e-07
1.25227e-07
1.25227e-07
1.25227e-07
1.25226e-07
1.25226e-07
1.25225e-07
1.25225e-07
1.25225e-07
1.25225e-07
1.25224e-07
1.25224e-07
1.25224e-07
1.25224e-07
1.25223e-07
1.25223e-07
1.25223e-07
1.25223e-07
1.25223e-07
1.25223e-07
1.25223e-07
1.25223e-07
1.25222e-07
1.25222e-07
1.2522e-07
1.25221e-07
1.2522e-07
1.2522e-07
1.2522e-07
1.2522e-07
1.2522e-07
1.2522e-07
1.2522e-07
1.2522e-07
1.25219e-07
1.2522e-07
1.25219e-07
1.25219e-07
1.25219e-07
1.2522e-07
1.25218e-07
1.25219e-07
1.25221e-07
1.25217e-07
1.25221e-07
1.25227e-07
1.25219e-07
1.25015e-07
8.61608e-09
1.2514e-07
1.25228e-07
1.25235e-07
1.25235e-07
1.25235e-07
1.25235e-07
1.25235e-07
1.25235e-07
1.25235e-07
1.25235e-07
1.25235e-07
1.25235e-07
1.25235e-07
1.25234e-07
1.25234e-07
1.25234e-07
1.25234e-07
1.25234e-07
1.25234e-07
1.25234e-07
1.25234e-07
1.25234e-07
1.25234e-07
1.25233e-07
1.25233e-07
1.25233e-07
1.25233e-07
1.25233e-07
1.25233e-07
1.25233e-07
1.25233e-07
1.25232e-07
1.25232e-07
1.25232e-07
1.25232e-07
1.25231e-07
1.25231e-07
1.25231e-07
1.25231e-07
1.25231e-07
1.25231e-07
1.2523e-07
1.2523e-07
1.2523e-07
1.2523e-07
1.25229e-07
1.25229e-07
1.25229e-07
1.25229e-07
1.25228e-07
1.25228e-07
1.25227e-07
1.25227e-07
1.25227e-07
1.25227e-07
1.25226e-07
1.25226e-07
1.25226e-07
1.25226e-07
1.25225e-07
1.25225e-07
1.25225e-07
1.25225e-07
1.25225e-07
1.25225e-07
1.25224e-07
1.25224e-07
1.25224e-07
1.25224e-07
1.25223e-07
1.25223e-07
1.25222e-07
1.25222e-07
1.25221e-07
1.25222e-07
1.25221e-07
1.25221e-07
1.25221e-07
1.25221e-07
1.25221e-07
1.25221e-07
1.25221e-07
1.25221e-07
1.2522e-07
1.25221e-07
1.2522e-07
1.25222e-07
1.25219e-07
1.25221e-07
1.25222e-07
1.25218e-07
1.25222e-07
1.25229e-07
1.25221e-07
1.2503e-07
8.85602e-09
1.25141e-07
1.25231e-07
1.25238e-07
1.25238e-07
1.25239e-07
1.25238e-07
1.25238e-07
1.25238e-07
1.25238e-07
1.25238e-07
1.25238e-07
1.25238e-07
1.25238e-07
1.25238e-07
1.25238e-07
1.25238e-07
1.25238e-07
1.25237e-07
1.25237e-07
1.25237e-07
1.25237e-07
1.25237e-07
1.25237e-07
1.25237e-07
1.25237e-07
1.25236e-07
1.25236e-07
1.25236e-07
1.25236e-07
1.25236e-07
1.25236e-07
1.25235e-07
1.25235e-07
1.25235e-07
1.25235e-07
1.25235e-07
1.25235e-07
1.25234e-07
1.25234e-07
1.25234e-07
1.25234e-07
1.25233e-07
1.25233e-07
1.25233e-07
1.25233e-07
1.25232e-07
1.25232e-07
1.25232e-07
1.25232e-07
1.25231e-07
1.25231e-07
1.25231e-07
1.2523e-07
1.2523e-07
1.2523e-07
1.25229e-07
1.25229e-07
1.25229e-07
1.25229e-07
1.25228e-07
1.25228e-07
1.25228e-07
1.25228e-07
1.25228e-07
1.25228e-07
1.25227e-07
1.25227e-07
1.25227e-07
1.25227e-07
1.25226e-07
1.25226e-07
1.25225e-07
1.25225e-07
1.25225e-07
1.25225e-07
1.25224e-07
1.25225e-07
1.25224e-07
1.25224e-07
1.25224e-07
1.25224e-07
1.25224e-07
1.25224e-07
1.25223e-07
1.25224e-07
1.25223e-07
1.25225e-07
1.25222e-07
1.25224e-07
1.25226e-07
1.25222e-07
1.25226e-07
1.25234e-07
1.25225e-07
1.25057e-07
9.12329e-09
1.25143e-07
1.25235e-07
1.25243e-07
1.25243e-07
1.25244e-07
1.25244e-07
1.25244e-07
1.25243e-07
1.25243e-07
1.25243e-07
1.25243e-07
1.25243e-07
1.25243e-07
1.25243e-07
1.25243e-07
1.25243e-07
1.25243e-07
1.25243e-07
1.25243e-07
1.25242e-07
1.25242e-07
1.25242e-07
1.25242e-07
1.25242e-07
1.25242e-07
1.25241e-07
1.25241e-07
1.25241e-07
1.25241e-07
1.25241e-07
1.25241e-07
1.25241e-07
1.25241e-07
1.2524e-07
1.2524e-07
1.2524e-07
1.2524e-07
1.25239e-07
1.25239e-07
1.25239e-07
1.25239e-07
1.25238e-07
1.25238e-07
1.25238e-07
1.25238e-07
1.25237e-07
1.25237e-07
1.25237e-07
1.25237e-07
1.25236e-07
1.25236e-07
1.25235e-07
1.25235e-07
1.25235e-07
1.25235e-07
1.25234e-07
1.25234e-07
1.25234e-07
1.25234e-07
1.25233e-07
1.25233e-07
1.25233e-07
1.25233e-07
1.25233e-07
1.25233e-07
1.25232e-07
1.25232e-07
1.25232e-07
1.25232e-07
1.25231e-07
1.25231e-07
1.25229e-07
1.2523e-07
1.25229e-07
1.2523e-07
1.25229e-07
1.25229e-07
1.25229e-07
1.25229e-07
1.25229e-07
1.25229e-07
1.25229e-07
1.25229e-07
1.25228e-07
1.25229e-07
1.25228e-07
1.2523e-07
1.25227e-07
1.25229e-07
1.25231e-07
1.25227e-07
1.25231e-07
1.25241e-07
1.25231e-07
1.25095e-07
9.41386e-09
1.25147e-07
1.25242e-07
1.2525e-07
1.25251e-07
1.25251e-07
1.25251e-07
1.25251e-07
1.25251e-07
1.25251e-07
1.2525e-07
1.2525e-07
1.2525e-07
1.2525e-07
1.2525e-07
1.2525e-07
1.2525e-07
1.2525e-07
1.2525e-07
1.2525e-07
1.25249e-07
1.25249e-07
1.25249e-07
1.25249e-07
1.25249e-07
1.25249e-07
1.25248e-07
1.25249e-07
1.25248e-07
1.25248e-07
1.25248e-07
1.25248e-07
1.25247e-07
1.25247e-07
1.25247e-07
1.25247e-07
1.25247e-07
1.25247e-07
1.25246e-07
1.25246e-07
1.25246e-07
1.25246e-07
1.25245e-07
1.25245e-07
1.25245e-07
1.25245e-07
1.25244e-07
1.25244e-07
1.25244e-07
1.25244e-07
1.25243e-07
1.25243e-07
1.25242e-07
1.25242e-07
1.25242e-07
1.25242e-07
1.25241e-07
1.25241e-07
1.2524e-07
1.2524e-07
1.2524e-07
1.2524e-07
1.25239e-07
1.25239e-07
1.25239e-07
1.25239e-07
1.25239e-07
1.25239e-07
1.25239e-07
1.25239e-07
1.25238e-07
1.25238e-07
1.25236e-07
1.25237e-07
1.25236e-07
1.25236e-07
1.25236e-07
1.25236e-07
1.25236e-07
1.25236e-07
1.25236e-07
1.25236e-07
1.25235e-07
1.25236e-07
1.25234e-07
1.25235e-07
1.25235e-07
1.25236e-07
1.25234e-07
1.25235e-07
1.25237e-07
1.25234e-07
1.25238e-07
1.25249e-07
1.25239e-07
1.25143e-07
9.72763e-09
1.25151e-07
1.2525e-07
1.25259e-07
1.2526e-07
1.2526e-07
1.2526e-07
1.2526e-07
1.2526e-07
1.2526e-07
1.25259e-07
1.25259e-07
1.25259e-07
1.25259e-07
1.25259e-07
1.25259e-07
1.25259e-07
1.25259e-07
1.25259e-07
1.25259e-07
1.25258e-07
1.25258e-07
1.25258e-07
1.25258e-07
1.25258e-07
1.25258e-07
1.25257e-07
1.25257e-07
1.25257e-07
1.25257e-07
1.25257e-07
1.25257e-07
1.25256e-07
1.25256e-07
1.25256e-07
1.25256e-07
1.25256e-07
1.25256e-07
1.25255e-07
1.25255e-07
1.25255e-07
1.25255e-07
1.25254e-07
1.25254e-07
1.25254e-07
1.25254e-07
1.25253e-07
1.25253e-07
1.25252e-07
1.25252e-07
1.25252e-07
1.25252e-07
1.25251e-07
1.25251e-07
1.2525e-07
1.2525e-07
1.2525e-07
1.2525e-07
1.25249e-07
1.25249e-07
1.25249e-07
1.25249e-07
1.25248e-07
1.25248e-07
1.25248e-07
1.25248e-07
1.25248e-07
1.25248e-07
1.25247e-07
1.25247e-07
1.25246e-07
1.25246e-07
1.25245e-07
1.25245e-07
1.25245e-07
1.25245e-07
1.25244e-07
1.25244e-07
1.25244e-07
1.25244e-07
1.25244e-07
1.25244e-07
1.25244e-07
1.25244e-07
1.25243e-07
1.25244e-07
1.25243e-07
1.25245e-07
1.25242e-07
1.25244e-07
1.25246e-07
1.25242e-07
1.25247e-07
1.2526e-07
1.25249e-07
1.252e-07
1.00659e-08
1.25157e-07
1.2526e-07
1.2527e-07
1.25271e-07
1.25271e-07
1.25271e-07
1.25271e-07
1.25271e-07
1.25271e-07
1.25271e-07
1.25271e-07
1.2527e-07
1.2527e-07
1.2527e-07
1.2527e-07
1.2527e-07
1.2527e-07
1.2527e-07
1.2527e-07
1.25269e-07
1.25269e-07
1.25269e-07
1.25269e-07
1.25269e-07
1.25269e-07
1.25268e-07
1.25269e-07
1.25268e-07
1.25268e-07
1.25268e-07
1.25268e-07
1.25267e-07
1.25267e-07
1.25267e-07
1.25267e-07
1.25267e-07
1.25267e-07
1.25266e-07
1.25266e-07
1.25266e-07
1.25266e-07
1.25265e-07
1.25265e-07
1.25264e-07
1.25264e-07
1.25264e-07
1.25264e-07
1.25263e-07
1.25263e-07
1.25263e-07
1.25263e-07
1.25262e-07
1.25262e-07
1.25261e-07
1.25261e-07
1.2526e-07
1.2526e-07
1.2526e-07
1.2526e-07
1.25259e-07
1.25259e-07
1.25259e-07
1.25259e-07
1.25259e-07
1.25259e-07
1.25258e-07
1.25258e-07
1.25258e-07
1.25258e-07
1.25257e-07
1.25257e-07
1.25255e-07
1.25256e-07
1.25255e-07
1.25255e-07
1.25255e-07
1.25255e-07
1.25255e-07
1.25255e-07
1.25255e-07
1.25255e-07
1.25254e-07
1.25255e-07
1.25253e-07
1.25254e-07
1.25254e-07
1.25255e-07
1.25253e-07
1.25254e-07
1.25257e-07
1.25253e-07
1.25258e-07
1.25274e-07
1.25261e-07
1.25267e-07
1.04306e-08
1.25164e-07
1.25272e-07
1.25283e-07
1.25284e-07
1.25284e-07
1.25284e-07
1.25284e-07
1.25284e-07
1.25284e-07
1.25284e-07
1.25284e-07
1.25284e-07
1.25284e-07
1.25283e-07
1.25283e-07
1.25283e-07
1.25283e-07
1.25283e-07
1.25283e-07
1.25283e-07
1.25283e-07
1.25282e-07
1.25282e-07
1.25282e-07
1.25282e-07
1.25282e-07
1.25282e-07
1.25281e-07
1.25281e-07
1.25281e-07
1.25281e-07
1.2528e-07
1.2528e-07
1.2528e-07
1.2528e-07
1.2528e-07
1.2528e-07
1.25279e-07
1.25279e-07
1.25278e-07
1.25278e-07
1.25278e-07
1.25278e-07
1.25277e-07
1.25277e-07
1.25277e-07
1.25277e-07
1.25276e-07
1.25276e-07
1.25275e-07
1.25275e-07
1.25274e-07
1.25274e-07
1.25274e-07
1.25274e-07
1.25273e-07
1.25273e-07
1.25272e-07
1.25272e-07
1.25272e-07
1.25272e-07
1.25271e-07
1.25271e-07
1.25271e-07
1.25271e-07
1.25271e-07
1.25271e-07
1.2527e-07
1.2527e-07
1.25269e-07
1.25269e-07
1.25267e-07
1.25268e-07
1.25267e-07
1.25267e-07
1.25267e-07
1.25267e-07
1.25267e-07
1.25267e-07
1.25267e-07
1.25267e-07
1.25267e-07
1.25267e-07
1.25266e-07
1.25267e-07
1.25266e-07
1.25268e-07
1.25265e-07
1.25267e-07
1.25269e-07
1.25266e-07
1.2527e-07
1.25289e-07
1.25275e-07
1.25342e-07
1.08247e-08
1.25171e-07
1.25287e-07
1.25299e-07
1.25299e-07
1.253e-07
1.253e-07
1.253e-07
1.25299e-07
1.25299e-07
1.25299e-07
1.25299e-07
1.25299e-07
1.25299e-07
1.25299e-07
1.25299e-07
1.25298e-07
1.25298e-07
1.25298e-07
1.25298e-07
1.25298e-07
1.25298e-07
1.25298e-07
1.25298e-07
1.25297e-07
1.25297e-07
1.25297e-07
1.25297e-07
1.25297e-07
1.25297e-07
1.25296e-07
1.25296e-07
1.25296e-07
1.25296e-07
1.25295e-07
1.25295e-07
1.25295e-07
1.25295e-07
1.25294e-07
1.25294e-07
1.25294e-07
1.25294e-07
1.25293e-07
1.25293e-07
1.25292e-07
1.25292e-07
1.25292e-07
1.25292e-07
1.25291e-07
1.25291e-07
1.2529e-07
1.2529e-07
1.25289e-07
1.25289e-07
1.25288e-07
1.25288e-07
1.25288e-07
1.25288e-07
1.25287e-07
1.25287e-07
1.25286e-07
1.25286e-07
1.25286e-07
1.25286e-07
1.25286e-07
1.25286e-07
1.25285e-07
1.25285e-07
1.25285e-07
1.25285e-07
1.25284e-07
1.25284e-07
1.25282e-07
1.25283e-07
1.25282e-07
1.25282e-07
1.25282e-07
1.25281e-07
1.25281e-07
1.25281e-07
1.25281e-07
1.25281e-07
1.25281e-07
1.25281e-07
1.2528e-07
1.25281e-07
1.2528e-07
1.25282e-07
1.2528e-07
1.25281e-07
1.25284e-07
1.2528e-07
1.25285e-07
1.25307e-07
1.25291e-07
1.25424e-07
1.12514e-08
1.2518e-07
1.25303e-07
1.25316e-07
1.25317e-07
1.25318e-07
1.25317e-07
1.25317e-07
1.25317e-07
1.25317e-07
1.25317e-07
1.25317e-07
1.25317e-07
1.25317e-07
1.25316e-07
1.25316e-07
1.25316e-07
1.25316e-07
1.25316e-07
1.25316e-07
1.25315e-07
1.25315e-07
1.25315e-07
1.25315e-07
1.25315e-07
1.25315e-07
1.25314e-07
1.25314e-07
1.25314e-07
1.25314e-07
1.25314e-07
1.25314e-07
1.25313e-07
1.25313e-07
1.25313e-07
1.25313e-07
1.25312e-07
1.25312e-07
1.25311e-07
1.25311e-07
1.25311e-07
1.25311e-07
1.2531e-07
1.2531e-07
1.25309e-07
1.25309e-07
1.25309e-07
1.25309e-07
1.25308e-07
1.25308e-07
1.25307e-07
1.25307e-07
1.25306e-07
1.25306e-07
1.25305e-07
1.25305e-07
1.25304e-07
1.25304e-07
1.25304e-07
1.25304e-07
1.25303e-07
1.25303e-07
1.25302e-07
1.25302e-07
1.25302e-07
1.25303e-07
1.25302e-07
1.25302e-07
1.25301e-07
1.25302e-07
1.25301e-07
1.25301e-07
1.25299e-07
1.25299e-07
1.25298e-07
1.25298e-07
1.25298e-07
1.25298e-07
1.25298e-07
1.25298e-07
1.25298e-07
1.25298e-07
1.25298e-07
1.25298e-07
1.25297e-07
1.25298e-07
1.25297e-07
1.25299e-07
1.25296e-07
1.25298e-07
1.25301e-07
1.25297e-07
1.25302e-07
1.25326e-07
1.25309e-07
1.25514e-07
1.17146e-08
1.2519e-07
1.25321e-07
1.25336e-07
1.25337e-07
1.25338e-07
1.25337e-07
1.25337e-07
1.25337e-07
1.25337e-07
1.25337e-07
1.25337e-07
1.25337e-07
1.25337e-07
1.25336e-07
1.25336e-07
1.25336e-07
1.25336e-07
1.25336e-07
1.25336e-07
1.25335e-07
1.25335e-07
1.25335e-07
1.25335e-07
1.25335e-07
1.25335e-07
1.25334e-07
1.25334e-07
1.25334e-07
1.25334e-07
1.25333e-07
1.25333e-07
1.25333e-07
1.25333e-07
1.25332e-07
1.25332e-07
1.25332e-07
1.25332e-07
1.25331e-07
1.25331e-07
1.2533e-07
1.2533e-07
1.2533e-07
1.2533e-07
1.25329e-07
1.25329e-07
1.25328e-07
1.25328e-07
1.25327e-07
1.25327e-07
1.25327e-07
1.25327e-07
1.25326e-07
1.25326e-07
1.25325e-07
1.25324e-07
1.25323e-07
1.25323e-07
1.25323e-07
1.25323e-07
1.25322e-07
1.25322e-07
1.25321e-07
1.25321e-07
1.25321e-07
1.25322e-07
1.25321e-07
1.25321e-07
1.2532e-07
1.25321e-07
1.2532e-07
1.2532e-07
1.25317e-07
1.25318e-07
1.25317e-07
1.25317e-07
1.25317e-07
1.25317e-07
1.25317e-07
1.25317e-07
1.25317e-07
1.25316e-07
1.25316e-07
1.25317e-07
1.25315e-07
1.25317e-07
1.25315e-07
1.25318e-07
1.25315e-07
1.25316e-07
1.2532e-07
1.25316e-07
1.25322e-07
1.25349e-07
1.25328e-07
1.25609e-07
1.22191e-08
1.25201e-07
1.25341e-07
1.25358e-07
1.25359e-07
1.2536e-07
1.2536e-07
1.2536e-07
1.2536e-07
1.2536e-07
1.25359e-07
1.25359e-07
1.25359e-07
1.25359e-07
1.25359e-07
1.25359e-07
1.25358e-07
1.25358e-07
1.25358e-07
1.25358e-07
1.25358e-07
1.25358e-07
1.25357e-07
1.25357e-07
1.25357e-07
1.25357e-07
1.25356e-07
1.25356e-07
1.25356e-07
1.25356e-07
1.25356e-07
1.25356e-07
1.25355e-07
1.25355e-07
1.25354e-07
1.25354e-07
1.25354e-07
1.25354e-07
1.25353e-07
1.25353e-07
1.25352e-07
1.25352e-07
1.25352e-07
1.25352e-07
1.25351e-07
1.25351e-07
1.2535e-07
1.2535e-07
1.25349e-07
1.25349e-07
1.25348e-07
1.25348e-07
1.25347e-07
1.25347e-07
1.25346e-07
1.25346e-07
1.25345e-07
1.25345e-07
1.25344e-07
1.25344e-07
1.25343e-07
1.25343e-07
1.25343e-07
1.25343e-07
1.25343e-07
1.25343e-07
1.25342e-07
1.25342e-07
1.25341e-07
1.25342e-07
1.25341e-07
1.25341e-07
1.25338e-07
1.25339e-07
1.25338e-07
1.25338e-07
1.25338e-07
1.25337e-07
1.25338e-07
1.25338e-07
1.25338e-07
1.25337e-07
1.25337e-07
1.25338e-07
1.25336e-07
1.25338e-07
1.25336e-07
1.25339e-07
1.25336e-07
1.25337e-07
1.25341e-07
1.25338e-07
1.25343e-07
1.25373e-07
1.2535e-07
1.2571e-07
1.27701e-08
1.25213e-07
1.25364e-07
1.25382e-07
1.25384e-07
1.25385e-07
1.25385e-07
1.25385e-07
1.25384e-07
1.25384e-07
1.25384e-07
1.25384e-07
1.25384e-07
1.25384e-07
1.25384e-07
1.25384e-07
1.25383e-07
1.25383e-07
1.25383e-07
1.25383e-07
1.25383e-07
1.25383e-07
1.25382e-07
1.25382e-07
1.25382e-07
1.25382e-07
1.25381e-07
1.25381e-07
1.25381e-07
1.25381e-07
1.2538e-07
1.2538e-07
1.2538e-07
1.2538e-07
1.25379e-07
1.25379e-07
1.25378e-07
1.25378e-07
1.25378e-07
1.25378e-07
1.25377e-07
1.25377e-07
1.25376e-07
1.25376e-07
1.25375e-07
1.25375e-07
1.25374e-07
1.25374e-07
1.25373e-07
1.25373e-07
1.25372e-07
1.25372e-07
1.25371e-07
1.25371e-07
1.2537e-07
1.2537e-07
1.25369e-07
1.25369e-07
1.25368e-07
1.25368e-07
1.25367e-07
1.25367e-07
1.25366e-07
1.25366e-07
1.25366e-07
1.25366e-07
1.25366e-07
1.25366e-07
1.25365e-07
1.25365e-07
1.25364e-07
1.25364e-07
1.25362e-07
1.25363e-07
1.25361e-07
1.25361e-07
1.25361e-07
1.25361e-07
1.25361e-07
1.25361e-07
1.25361e-07
1.2536e-07
1.2536e-07
1.25361e-07
1.25359e-07
1.25361e-07
1.25359e-07
1.25362e-07
1.25359e-07
1.25361e-07
1.25364e-07
1.25361e-07
1.25367e-07
1.254e-07
1.25374e-07
1.25814e-07
1.33734e-08
1.25226e-07
1.25388e-07
1.25409e-07
1.25411e-07
1.25413e-07
1.25412e-07
1.25412e-07
1.25412e-07
1.25412e-07
1.25412e-07
1.25412e-07
1.25411e-07
1.25411e-07
1.25411e-07
1.25411e-07
1.25411e-07
1.25411e-07
1.2541e-07
1.2541e-07
1.2541e-07
1.2541e-07
1.25409e-07
1.25409e-07
1.25409e-07
1.25409e-07
1.25408e-07
1.25408e-07
1.25408e-07
1.25408e-07
1.25407e-07
1.25407e-07
1.25407e-07
1.25407e-07
1.25406e-07
1.25406e-07
1.25405e-07
1.25405e-07
1.25404e-07
1.25404e-07
1.25404e-07
1.25404e-07
1.25403e-07
1.25403e-07
1.25402e-07
1.25402e-07
1.25401e-07
1.25401e-07
1.254e-07
1.254e-07
1.25399e-07
1.25399e-07
1.25397e-07
1.25397e-07
1.25396e-07
1.25396e-07
1.25395e-07
1.25395e-07
1.25394e-07
1.25394e-07
1.25393e-07
1.25393e-07
1.25392e-07
1.25392e-07
1.25392e-07
1.25393e-07
1.25392e-07
1.25392e-07
1.25391e-07
1.25391e-07
1.2539e-07
1.2539e-07
1.25388e-07
1.25389e-07
1.25387e-07
1.25387e-07
1.25387e-07
1.25386e-07
1.25387e-07
1.25386e-07
1.25387e-07
1.25386e-07
1.25386e-07
1.25386e-07
1.25385e-07
1.25387e-07
1.25385e-07
1.25388e-07
1.25385e-07
1.25386e-07
1.2539e-07
1.25387e-07
1.25393e-07
1.2543e-07
1.25401e-07
1.25922e-07
1.40361e-08
1.2524e-07
1.25415e-07
1.25438e-07
1.25441e-07
1.25443e-07
1.25442e-07
1.25442e-07
1.25442e-07
1.25442e-07
1.25442e-07
1.25442e-07
1.25442e-07
1.25442e-07
1.25441e-07
1.25441e-07
1.25441e-07
1.25441e-07
1.2544e-07
1.2544e-07
1.2544e-07
1.2544e-07
1.25439e-07
1.25439e-07
1.25439e-07
1.25439e-07
1.25438e-07
1.25438e-07
1.25438e-07
1.25438e-07
1.25437e-07
1.25437e-07
1.25436e-07
1.25436e-07
1.25436e-07
1.25436e-07
1.25435e-07
1.25435e-07
1.25434e-07
1.25434e-07
1.25433e-07
1.25433e-07
1.25432e-07
1.25432e-07
1.25431e-07
1.25431e-07
1.2543e-07
1.2543e-07
1.25429e-07
1.25429e-07
1.25428e-07
1.25428e-07
1.25426e-07
1.25426e-07
1.25425e-07
1.25425e-07
1.25424e-07
1.25424e-07
1.25423e-07
1.25423e-07
1.25422e-07
1.25422e-07
1.25421e-07
1.25421e-07
1.25421e-07
1.25421e-07
1.2542e-07
1.2542e-07
1.25419e-07
1.2542e-07
1.25418e-07
1.25418e-07
1.25416e-07
1.25417e-07
1.25415e-07
1.25415e-07
1.25415e-07
1.25414e-07
1.25415e-07
1.25414e-07
1.25415e-07
1.25414e-07
1.25414e-07
1.25415e-07
1.25413e-07
1.25415e-07
1.25413e-07
1.25416e-07
1.25413e-07
1.25415e-07
1.25419e-07
1.25416e-07
1.25422e-07
1.25462e-07
1.25429e-07
1.26031e-07
1.4765e-08
1.25254e-07
1.25444e-07
1.2547e-07
1.25473e-07
1.25476e-07
1.25475e-07
1.25475e-07
1.25475e-07
1.25475e-07
1.25475e-07
1.25475e-07
1.25474e-07
1.25474e-07
1.25474e-07
1.25474e-07
1.25474e-07
1.25474e-07
1.25473e-07
1.25473e-07
1.25473e-07
1.25473e-07
1.25472e-07
1.25472e-07
1.25472e-07
1.25472e-07
1.25471e-07
1.25471e-07
1.2547e-07
1.2547e-07
1.2547e-07
1.2547e-07
1.25469e-07
1.25469e-07
1.25468e-07
1.25468e-07
1.25467e-07
1.25467e-07
1.25466e-07
1.25466e-07
1.25465e-07
1.25465e-07
1.25464e-07
1.25464e-07
1.25463e-07
1.25463e-07
1.25462e-07
1.25462e-07
1.25461e-07
1.25461e-07
1.2546e-07
1.2546e-07
1.25458e-07
1.25458e-07
1.25456e-07
1.25456e-07
1.25455e-07
1.25455e-07
1.25454e-07
1.25454e-07
1.25453e-07
1.25453e-07
1.25452e-07
1.25452e-07
1.25452e-07
1.25452e-07
1.25451e-07
1.25451e-07
1.2545e-07
1.25451e-07
1.25449e-07
1.25449e-07
1.25447e-07
1.25448e-07
1.25446e-07
1.25446e-07
1.25445e-07
1.25445e-07
1.25446e-07
1.25445e-07
1.25445e-07
1.25444e-07
1.25445e-07
1.25445e-07
1.25443e-07
1.25446e-07
1.25443e-07
1.25446e-07
1.25444e-07
1.25445e-07
1.2545e-07
1.25447e-07
1.25453e-07
1.25497e-07
1.2546e-07
1.26141e-07
1.55678e-08
1.2527e-07
1.25476e-07
1.25505e-07
1.25509e-07
1.25511e-07
1.25511e-07
1.25511e-07
1.25511e-07
1.25511e-07
1.25511e-07
1.25511e-07
1.2551e-07
1.2551e-07
1.2551e-07
1.2551e-07
1.25509e-07
1.25509e-07
1.25509e-07
1.25509e-07
1.25508e-07
1.25508e-07
1.25508e-07
1.25508e-07
1.25507e-07
1.25507e-07
1.25506e-07
1.25506e-07
1.25506e-07
1.25506e-07
1.25505e-07
1.25505e-07
1.25504e-07
1.25504e-07
1.25503e-07
1.25503e-07
1.25502e-07
1.25502e-07
1.25501e-07
1.25501e-07
1.255e-07
1.255e-07
1.25499e-07
1.25499e-07
1.25498e-07
1.25498e-07
1.25497e-07
1.25497e-07
1.25495e-07
1.25495e-07
1.25494e-07
1.25494e-07
1.25492e-07
1.25492e-07
1.25491e-07
1.2549e-07
1.25489e-07
1.25489e-07
1.25488e-07
1.25488e-07
1.25487e-07
1.25487e-07
1.25485e-07
1.25485e-07
1.25486e-07
1.25486e-07
1.25485e-07
1.25485e-07
1.25484e-07
1.25485e-07
1.25483e-07
1.25483e-07
1.2548e-07
1.25481e-07
1.25479e-07
1.25479e-07
1.25479e-07
1.25478e-07
1.25479e-07
1.25478e-07
1.25478e-07
1.25477e-07
1.25478e-07
1.25478e-07
1.25477e-07
1.25479e-07
1.25476e-07
1.2548e-07
1.25477e-07
1.25478e-07
1.25483e-07
1.25481e-07
1.25487e-07
1.25534e-07
1.25493e-07
1.26251e-07
1.64522e-08
1.25287e-07
1.2551e-07
1.25543e-07
1.25547e-07
1.2555e-07
1.2555e-07
1.2555e-07
1.2555e-07
1.2555e-07
1.25549e-07
1.25549e-07
1.25549e-07
1.25549e-07
1.25549e-07
1.25549e-07
1.25548e-07
1.25548e-07
1.25547e-07
1.25547e-07
1.25547e-07
1.25547e-07
1.25546e-07
1.25546e-07
1.25546e-07
1.25546e-07
1.25545e-07
1.25545e-07
1.25544e-07
1.25544e-07
1.25543e-07
1.25543e-07
1.25542e-07
1.25542e-07
1.25541e-07
1.25541e-07
1.2554e-07
1.2554e-07
1.25539e-07
1.25539e-07
1.25538e-07
1.25538e-07
1.25537e-07
1.25537e-07
1.25536e-07
1.25536e-07
1.25534e-07
1.25534e-07
1.25533e-07
1.25533e-07
1.25531e-07
1.25531e-07
1.25529e-07
1.25529e-07
1.25528e-07
1.25527e-07
1.25526e-07
1.25526e-07
1.25525e-07
1.25525e-07
1.25523e-07
1.25523e-07
1.25522e-07
1.25522e-07
1.25522e-07
1.25523e-07
1.25522e-07
1.25522e-07
1.2552e-07
1.25521e-07
1.25519e-07
1.25519e-07
1.25516e-07
1.25518e-07
1.25515e-07
1.25515e-07
1.25514e-07
1.25514e-07
1.25515e-07
1.25514e-07
1.25514e-07
1.25513e-07
1.25514e-07
1.25514e-07
1.25512e-07
1.25515e-07
1.25512e-07
1.25516e-07
1.25513e-07
1.25514e-07
1.25519e-07
1.25517e-07
1.25523e-07
1.25574e-07
1.25528e-07
1.26359e-07
1.74254e-08
1.25304e-07
1.25546e-07
1.25583e-07
1.25589e-07
1.25592e-07
1.25592e-07
1.25592e-07
1.25592e-07
1.25592e-07
1.25591e-07
1.25591e-07
1.25591e-07
1.25591e-07
1.2559e-07
1.2559e-07
1.2559e-07
1.2559e-07
1.25589e-07
1.25589e-07
1.25589e-07
1.25589e-07
1.25588e-07
1.25588e-07
1.25587e-07
1.25587e-07
1.25586e-07
1.25586e-07
1.25585e-07
1.25585e-07
1.25585e-07
1.25585e-07
1.25584e-07
1.25584e-07
1.25583e-07
1.25583e-07
1.25581e-07
1.25581e-07
1.2558e-07
1.2558e-07
1.25579e-07
1.25579e-07
1.25578e-07
1.25578e-07
1.25576e-07
1.25576e-07
1.25575e-07
1.25575e-07
1.25573e-07
1.25573e-07
1.25571e-07
1.25571e-07
1.25569e-07
1.25569e-07
1.25567e-07
1.25567e-07
1.25565e-07
1.25565e-07
1.25564e-07
1.25564e-07
1.25563e-07
1.25563e-07
1.25561e-07
1.25561e-07
1.25561e-07
1.25562e-07
1.25561e-07
1.25561e-07
1.25559e-07
1.2556e-07
1.25558e-07
1.25558e-07
1.25555e-07
1.25557e-07
1.25554e-07
1.25554e-07
1.25553e-07
1.25552e-07
1.25554e-07
1.25552e-07
1.25553e-07
1.25551e-07
1.25552e-07
1.25553e-07
1.25551e-07
1.25554e-07
1.25551e-07
1.25554e-07
1.25552e-07
1.25553e-07
1.25558e-07
1.25556e-07
1.25563e-07
1.25616e-07
1.25566e-07
1.26463e-07
1.84939e-08
1.25322e-07
1.25584e-07
1.25627e-07
1.25633e-07
1.25637e-07
1.25637e-07
1.25637e-07
1.25637e-07
1.25637e-07
1.25636e-07
1.25636e-07
1.25636e-07
1.25636e-07
1.25635e-07
1.25635e-07
1.25635e-07
1.25635e-07
1.25634e-07
1.25634e-07
1.25633e-07
1.25633e-07
1.25633e-07
1.25633e-07
1.25632e-07
1.25632e-07
1.25631e-07
1.25631e-07
1.2563e-07
1.2563e-07
1.25629e-07
1.25629e-07
1.25628e-07
1.25628e-07
1.25627e-07
1.25627e-07
1.25626e-07
1.25626e-07
1.25624e-07
1.25624e-07
1.25623e-07
1.25623e-07
1.25621e-07
1.25621e-07
1.2562e-07
1.2562e-07
1.25618e-07
1.25618e-07
1.25616e-07
1.25616e-07
1.25615e-07
1.25615e-07
1.25612e-07
1.25612e-07
1.2561e-07
1.2561e-07
1.25608e-07
1.25608e-07
1.25607e-07
1.25607e-07
1.25605e-07
1.25605e-07
1.25603e-07
1.25604e-07
1.25604e-07
1.25604e-07
1.25603e-07
1.25603e-07
1.25601e-07
1.25602e-07
1.256e-07
1.256e-07
1.25597e-07
1.25599e-07
1.25596e-07
1.25596e-07
1.25595e-07
1.25594e-07
1.25595e-07
1.25594e-07
1.25595e-07
1.25593e-07
1.25594e-07
1.25594e-07
1.25592e-07
1.25595e-07
1.25592e-07
1.25596e-07
1.25593e-07
1.25595e-07
1.256e-07
1.25598e-07
1.25605e-07
1.25662e-07
1.25607e-07
1.26562e-07
1.96622e-08
1.25341e-07
1.25625e-07
1.25673e-07
1.25681e-07
1.25685e-07
1.25685e-07
1.25685e-07
1.25685e-07
1.25685e-07
1.25685e-07
1.25685e-07
1.25684e-07
1.25684e-07
1.25683e-07
1.25683e-07
1.25683e-07
1.25683e-07
1.25682e-07
1.25682e-07
1.25681e-07
1.25681e-07
1.25681e-07
1.25681e-07
1.2568e-07
1.2568e-07
1.25679e-07
1.25679e-07
1.25678e-07
1.25678e-07
1.25677e-07
1.25677e-07
1.25675e-07
1.25675e-07
1.25674e-07
1.25674e-07
1.25673e-07
1.25673e-07
1.25672e-07
1.25672e-07
1.2567e-07
1.2567e-07
1.25668e-07
1.25668e-07
1.25667e-07
1.25667e-07
1.25665e-07
1.25665e-07
1.25663e-07
1.25663e-07
1.25661e-07
1.25661e-07
1.25658e-07
1.25658e-07
1.25656e-07
1.25656e-07
1.25654e-07
1.25654e-07
1.25652e-07
1.25652e-07
1.25651e-07
1.25651e-07
1.25649e-07
1.25649e-07
1.25649e-07
1.2565e-07
1.25648e-07
1.25648e-07
1.25646e-07
1.25648e-07
1.25645e-07
1.25645e-07
1.25642e-07
1.25643e-07
1.2564e-07
1.2564e-07
1.25639e-07
1.25638e-07
1.2564e-07
1.25638e-07
1.25639e-07
1.25637e-07
1.25638e-07
1.25639e-07
1.25637e-07
1.2564e-07
1.25636e-07
1.2564e-07
1.25638e-07
1.25639e-07
1.25645e-07
1.25643e-07
1.2565e-07
1.2571e-07
1.25651e-07
1.26654e-07
2.09321e-08
1.2536e-07
1.25669e-07
1.25722e-07
1.25731e-07
1.25737e-07
1.25737e-07
1.25737e-07
1.25737e-07
1.25737e-07
1.25736e-07
1.25736e-07
1.25736e-07
1.25736e-07
1.25735e-07
1.25735e-07
1.25734e-07
1.25734e-07
1.25734e-07
1.25734e-07
1.25733e-07
1.25733e-07
1.25732e-07
1.25732e-07
1.25731e-07
1.25731e-07
1.2573e-07
1.2573e-07
1.25729e-07
1.25729e-07
1.25728e-07
1.25728e-07
1.25726e-07
1.25726e-07
1.25725e-07
1.25725e-07
1.25724e-07
1.25724e-07
1.25722e-07
1.25722e-07
1.2572e-07
1.2572e-07
1.25719e-07
1.25719e-07
1.25717e-07
1.25717e-07
1.25715e-07
1.25715e-07
1.25713e-07
1.25713e-07
1.25711e-07
1.2571e-07
1.25708e-07
1.25708e-07
1.25705e-07
1.25705e-07
1.25702e-07
1.25702e-07
1.25701e-07
1.25701e-07
1.25699e-07
1.257e-07
1.25697e-07
1.25697e-07
1.25698e-07
1.25698e-07
1.25697e-07
1.25697e-07
1.25695e-07
1.25696e-07
1.25693e-07
1.25693e-07
1.2569e-07
1.25691e-07
1.25688e-07
1.25688e-07
1.25687e-07
1.25686e-07
1.25687e-07
1.25686e-07
1.25687e-07
1.25684e-07
1.25686e-07
1.25686e-07
1.25684e-07
1.25688e-07
1.25683e-07
1.25688e-07
1.25685e-07
1.25687e-07
1.25693e-07
1.25691e-07
1.25698e-07
1.25761e-07
1.25697e-07
1.26737e-07
2.23006e-08
1.25379e-07
1.25714e-07
1.25775e-07
1.25786e-07
1.25792e-07
1.25792e-07
1.25793e-07
1.25792e-07
1.25792e-07
1.25792e-07
1.25792e-07
1.25791e-07
1.25791e-07
1.2579e-07
1.2579e-07
1.25789e-07
1.25789e-07
1.25789e-07
1.25789e-07
1.25788e-07
1.25788e-07
1.25787e-07
1.25787e-07
1.25786e-07
1.25786e-07
1.25785e-07
1.25785e-07
1.25783e-07
1.25783e-07
1.25782e-07
1.25782e-07
1.25781e-07
1.25781e-07
1.25779e-07
1.25779e-07
1.25778e-07
1.25778e-07
1.25776e-07
1.25776e-07
1.25774e-07
1.25774e-07
1.25772e-07
1.25772e-07
1.2577e-07
1.2577e-07
1.25768e-07
1.25768e-07
1.25766e-07
1.25766e-07
1.25763e-07
1.25763e-07
1.2576e-07
1.2576e-07
1.25757e-07
1.25757e-07
1.25754e-07
1.25754e-07
1.25753e-07
1.25753e-07
1.25751e-07
1.25751e-07
1.25749e-07
1.25749e-07
1.25749e-07
1.2575e-07
1.25748e-07
1.25748e-07
1.25746e-07
1.25747e-07
1.25744e-07
1.25744e-07
1.25742e-07
1.25743e-07
1.25739e-07
1.25739e-07
1.25737e-07
1.25736e-07
1.25738e-07
1.25736e-07
1.25737e-07
1.25735e-07
1.25736e-07
1.25737e-07
1.25735e-07
1.25738e-07
1.25734e-07
1.25738e-07
1.25736e-07
1.25737e-07
1.25744e-07
1.25742e-07
1.25749e-07
1.25815e-07
1.25748e-07
1.26808e-07
2.37726e-08
1.25399e-07
1.25763e-07
1.25831e-07
1.25843e-07
1.2585e-07
1.2585e-07
1.25852e-07
1.25851e-07
1.25851e-07
1.25851e-07
1.25851e-07
1.2585e-07
1.2585e-07
1.25849e-07
1.25849e-07
1.25848e-07
1.25848e-07
1.25847e-07
1.25847e-07
1.25846e-07
1.25846e-07
1.25845e-07
1.25845e-07
1.25844e-07
1.25844e-07
1.25843e-07
1.25843e-07
1.25842e-07
1.25842e-07
1.2584e-07
1.2584e-07
1.25839e-07
1.25839e-07
1.25837e-07
1.25837e-07
1.25835e-07
1.25835e-07
1.25833e-07
1.25833e-07
1.25831e-07
1.25831e-07
1.25829e-07
1.25829e-07
1.25827e-07
1.25827e-07
1.25825e-07
1.25825e-07
1.25822e-07
1.25822e-07
1.2582e-07
1.2582e-07
1.25816e-07
1.25816e-07
1.25813e-07
1.25813e-07
1.2581e-07
1.2581e-07
1.25808e-07
1.25808e-07
1.25806e-07
1.25807e-07
1.25804e-07
1.25804e-07
1.25804e-07
1.25805e-07
1.25803e-07
1.25803e-07
1.25801e-07
1.25802e-07
1.25798e-07
1.25799e-07
1.25796e-07
1.25797e-07
1.25793e-07
1.25793e-07
1.25791e-07
1.2579e-07
1.25792e-07
1.2579e-07
1.25791e-07
1.25788e-07
1.2579e-07
1.2579e-07
1.25788e-07
1.25792e-07
1.25787e-07
1.25792e-07
1.2579e-07
1.25791e-07
1.25798e-07
1.25796e-07
1.25803e-07
1.25871e-07
1.25802e-07
1.26866e-07
2.53554e-08
1.25418e-07
1.25813e-07
1.2589e-07
1.25905e-07
1.25913e-07
1.25913e-07
1.25914e-07
1.25914e-07
1.25914e-07
1.25913e-07
1.25913e-07
1.25913e-07
1.25913e-07
1.25912e-07
1.25912e-07
1.25911e-07
1.25911e-07
1.2591e-07
1.2591e-07
1.25909e-07
1.25909e-07
1.25907e-07
1.25908e-07
1.25906e-07
1.25906e-07
1.25905e-07
1.25905e-07
1.25903e-07
1.25903e-07
1.25902e-07
1.25902e-07
1.259e-07
1.259e-07
1.25899e-07
1.25899e-07
1.25897e-07
1.25897e-07
1.25895e-07
1.25895e-07
1.25892e-07
1.25892e-07
1.2589e-07
1.2589e-07
1.25888e-07
1.25888e-07
1.25885e-07
1.25885e-07
1.25882e-07
1.25882e-07
1.25879e-07