/*--------------------------------*- C++ -*----------------------------------*\
| =========                 |                                                 |
| \\      /  F ield         | OpenFOAM: The Open Source CFD Toolbox           |
|  \\    /   O peration     | Version:  v2012                                 |
|   \\  /    A nd           | Website:  www.openfoam.com                      |
|    \\/     M anipulation  |                                                 |
\*---------------------------------------------------------------------------*/
FoamFile
{
    version     2.0;
    format      ascii;
    class       volScalarField;
    location    "1.5";
    object      omega;
}
// * * * * * * * * * * * * * * * * * * * * * * * * * * * * * * * * * * * * * //

dimensions      [0 0 -1 0 0 0 0];


internalField   nonuniform List<scalar> 
209825
(
8586.55
8579.29
8578.75
8578.77
8578.75
8578.77
8578.77
8578.78
8578.78
8578.79
8578.79
8578.8
8578.8
8578.81
8578.81
8578.83
8578.83
8578.84
8578.84
8578.86
8578.86
8578.88
8578.88
8578.9
8578.9
8578.92
8578.92
8578.94
8578.94
8578.96
8578.96
8578.99
8578.99
8579.02
8579.02
8579.05
8579.04
8579.08
8579.08
8579.11
8579.11
8579.15
8579.15
8579.19
8579.19
8579.23
8579.23
8579.27
8579.27
8579.3
8579.3
8579.35
8579.35
8579.39
8579.39
8579.44
8579.43
8579.47
8579.47
8579.5
8579.5
8579.54
8579.53
8579.55
8579.54
8579.58
8579.58
8579.62
8579.62
8579.67
8579.67
8579.78
8579.78
8579.81
8579.79
8579.8
8579.8
8579.83
8579.83
8579.83
8579.82
8579.87
8579.86
8579.94
8579.95
8579.96
8579.96
8580.14
8580.24
8580.24
8580.99
8581.18
8585.37
8583.62
8818.87
148636
8586.48
8579.2
8578.66
8578.68
8578.66
8578.67
8578.67
8578.68
8578.68
8578.7
8578.7
8578.71
8578.71
8578.72
8578.72
8578.74
8578.74
8578.75
8578.75
8578.77
8578.77
8578.78
8578.78
8578.8
8578.8
8578.82
8578.82
8578.85
8578.85
8578.87
8578.87
8578.9
8578.9
8578.92
8578.92
8578.95
8578.95
8578.98
8578.98
8579.02
8579.02
8579.05
8579.05
8579.09
8579.09
8579.14
8579.14
8579.17
8579.17
8579.21
8579.21
8579.26
8579.26
8579.3
8579.3
8579.34
8579.34
8579.38
8579.38
8579.41
8579.41
8579.45
8579.44
8579.46
8579.45
8579.49
8579.49
8579.53
8579.53
8579.58
8579.58
8579.69
8579.69
8579.71
8579.7
8579.71
8579.71
8579.74
8579.74
8579.74
8579.73
8579.78
8579.77
8579.85
8579.86
8579.87
8579.87
8580.05
8580.16
8580.16
8580.91
8581.09
8585.31
8583.55
8818.69
145326
8586.16
8578.8
8578.24
8578.26
8578.24
8578.25
8578.25
8578.26
8578.26
8578.28
8578.28
8578.29
8578.29
8578.3
8578.3
8578.32
8578.32
8578.33
8578.33
8578.35
8578.35
8578.37
8578.37
8578.39
8578.39
8578.41
8578.41
8578.43
8578.43
8578.45
8578.45
8578.48
8578.48
8578.51
8578.51
8578.54
8578.54
8578.57
8578.57
8578.6
8578.6
8578.64
8578.64
8578.68
8578.68
8578.72
8578.72
8578.76
8578.76
8578.8
8578.8
8578.85
8578.85
8578.89
8578.88
8578.93
8578.93
8578.97
8578.97
8579
8579
8579.04
8579.03
8579.05
8579.04
8579.08
8579.08
8579.12
8579.12
8579.17
8579.17
8579.28
8579.28
8579.31
8579.29
8579.3
8579.3
8579.33
8579.33
8579.33
8579.33
8579.37
8579.37
8579.45
8579.46
8579.46
8579.47
8579.65
8579.76
8579.76
8580.51
8580.7
8584.98
8583.2
8818.1
141381
8585.58
8578.07
8577.5
8577.51
8577.49
8577.51
8577.51
8577.52
8577.52
8577.53
8577.53
8577.54
8577.54
8577.56
8577.56
8577.57
8577.57
8577.59
8577.59
8577.6
8577.6
8577.62
8577.62
8577.64
8577.64
8577.66
8577.66
8577.68
8577.68
8577.71
8577.71
8577.73
8577.73
8577.76
8577.76
8577.79
8577.79
8577.83
8577.83
8577.86
8577.86
8577.9
8577.9
8577.94
8577.94
8577.98
8577.98
8578.02
8578.02
8578.06
8578.06
8578.11
8578.11
8578.15
8578.15
8578.2
8578.2
8578.24
8578.24
8578.27
8578.27
8578.3
8578.3
8578.31
8578.31
8578.35
8578.35
8578.39
8578.39
8578.44
8578.44
8578.55
8578.55
8578.58
8578.57
8578.58
8578.58
8578.61
8578.61
8578.61
8578.6
8578.64
8578.64
8578.72
8578.73
8578.74
8578.74
8578.93
8579.04
8579.04
8579.81
8580
8584.36
8582.56
8817.09
137187
8584.75
8577.02
8576.43
8576.43
8576.41
8576.43
8576.43
8576.44
8576.44
8576.45
8576.45
8576.46
8576.46
8576.48
8576.48
8576.49
8576.49
8576.51
8576.51
8576.53
8576.53
8576.55
8576.55
8576.57
8576.57
8576.59
8576.59
8576.61
8576.61
8576.64
8576.64
8576.66
8576.66
8576.69
8576.69
8576.72
8576.72
8576.76
8576.76
8576.79
8576.79
8576.83
8576.83
8576.87
8576.87
8576.92
8576.92
8576.96
8576.96
8577
8577
8577.05
8577.05
8577.09
8577.09
8577.14
8577.14
8577.18
8577.18
8577.21
8577.21
8577.25
8577.25
8577.26
8577.25
8577.3
8577.3
8577.34
8577.34
8577.38
8577.38
8577.5
8577.5
8577.53
8577.52
8577.53
8577.53
8577.56
8577.56
8577.56
8577.56
8577.6
8577.59
8577.67
8577.68
8577.7
8577.7
8577.89
8578
8578.01
8578.79
8578.99
8583.46
8581.62
8815.66
132855
8583.66
8575.65
8575.02
8575.02
8575
8575.01
8575.01
8575.02
8575.02
8575.04
8575.04
8575.05
8575.05
8575.07
8575.07
8575.08
8575.08
8575.1
8575.1
8575.12
8575.12
8575.14
8575.14
8575.16
8575.16
8575.18
8575.18
8575.2
8575.2
8575.23
8575.23
8575.26
8575.26
8575.29
8575.29
8575.32
8575.32
8575.35
8575.35
8575.39
8575.39
8575.43
8575.43
8575.48
8575.48
8575.52
8575.52
8575.56
8575.56
8575.6
8575.6
8575.66
8575.66
8575.7
8575.7
8575.75
8575.75
8575.79
8575.79
8575.83
8575.83
8575.86
8575.86
8575.88
8575.87
8575.91
8575.91
8575.96
8575.96
8576
8576
8576.12
8576.12
8576.15
8576.14
8576.15
8576.15
8576.18
8576.18
8576.18
8576.18
8576.22
8576.22
8576.3
8576.31
8576.33
8576.33
8576.53
8576.65
8576.65
8577.45
8577.66
8582.27
8580.39
8813.79
128435
8582.31
8573.96
8573.28
8573.27
8573.24
8573.26
8573.26
8573.27
8573.27
8573.29
8573.29
8573.3
8573.3
8573.32
8573.32
8573.33
8573.33
8573.35
8573.35
8573.37
8573.37
8573.39
8573.39
8573.41
8573.41
8573.43
8573.43
8573.46
8573.46
8573.49
8573.49
8573.51
8573.51
8573.55
8573.55
8573.58
8573.58
8573.62
8573.62
8573.65
8573.65
8573.7
8573.7
8573.74
8573.74
8573.79
8573.79
8573.84
8573.83
8573.88
8573.88
8573.93
8573.93
8573.98
8573.98
8574.03
8574.03
8574.08
8574.07
8574.11
8574.11
8574.15
8574.15
8574.16
8574.16
8574.2
8574.2
8574.24
8574.24
8574.29
8574.29
8574.41
8574.41
8574.45
8574.44
8574.45
8574.45
8574.48
8574.48
8574.48
8574.49
8574.52
8574.52
8574.6
8574.61
8574.64
8574.64
8574.83
8574.96
8574.97
8575.79
8576
8580.79
8578.85
8811.47
123958
8580.7
8571.93
8571.19
8571.18
8571.15
8571.16
8571.16
8571.18
8571.18
8571.19
8571.19
8571.2
8571.2
8571.22
8571.22
8571.24
8571.24
8571.26
8571.26
8571.28
8571.28
8571.3
8571.3
8571.32
8571.32
8571.34
8571.34
8571.37
8571.37
8571.4
8571.4
8571.43
8571.43
8571.46
8571.46
8571.5
8571.5
8571.54
8571.54
8571.58
8571.58
8571.62
8571.62
8571.67
8571.67
8571.72
8571.72
8571.77
8571.77
8571.81
8571.81
8571.87
8571.87
8571.92
8571.92
8571.98
8571.98
8572.02
8572.02
8572.06
8572.06
8572.1
8572.1
8572.11
8572.1
8572.15
8572.15
8572.2
8572.19
8572.25
8572.25
8572.37
8572.37
8572.41
8572.4
8572.41
8572.41
8572.44
8572.44
8572.44
8572.45
8572.48
8572.48
8572.57
8572.57
8572.61
8572.61
8572.81
8572.95
8572.96
8573.81
8574.03
8578.99
8576.99
8808.69
119448
8578.83
8569.56
8568.76
8568.74
8568.7
8568.72
8568.72
8568.73
8568.73
8568.74
8568.74
8568.76
8568.76
8568.78
8568.78
8568.8
8568.79
8568.81
8568.81
8568.84
8568.83
8568.86
8568.86
8568.88
8568.88
8568.91
8568.91
8568.94
8568.94
8568.97
8568.97
8569
8569
8569.03
8569.03
8569.07
8569.07
8569.11
8569.11
8569.15
8569.15
8569.2
8569.2
8569.25
8569.25
8569.3
8569.3
8569.35
8569.35
8569.4
8569.4
8569.47
8569.47
8569.52
8569.52
8569.58
8569.58
8569.62
8569.62
8569.66
8569.66
8569.71
8569.71
8569.72
8569.71
8569.76
8569.76
8569.81
8569.81
8569.86
8569.86
8569.99
8569.98
8570.03
8570.02
8570.04
8570.04
8570.06
8570.07
8570.07
8570.09
8570.11
8570.11
8570.2
8570.2
8570.25
8570.25
8570.45
8570.6
8570.61
8571.49
8571.72
8576.89
8574.82
8805.43
114926
8576.71
8566.86
8565.97
8565.94
8565.89
8565.91
8565.91
8565.93
8565.93
8565.94
8565.94
8565.96
8565.96
8565.98
8565.98
8566
8566
8566.02
8566.02
8566.04
8566.04
8566.06
8566.06
8566.09
8566.09
8566.12
8566.12
8566.15
8566.14
8566.18
8566.18
8566.21
8566.21
8566.25
8566.25
8566.29
8566.29
8566.33
8566.33
8566.38
8566.38
8566.43
8566.43
8566.48
8566.48
8566.54
8566.54
8566.59
8566.59
8566.64
8566.64
8566.71
8566.71
8566.77
8566.77
8566.83
8566.83
8566.88
8566.88
8566.92
8566.92
8566.97
8566.97
8566.98
8566.97
8567.02
8567.02
8567.07
8567.07
8567.13
8567.13
8567.26
8567.25
8567.31
8567.3
8567.32
8567.32
8567.34
8567.35
8567.35
8567.37
8567.39
8567.39
8567.48
8567.48
8567.54
8567.54
8567.75
8567.91
8567.92
8568.83
8569.07
8574.47
8572.3
8801.69
110411
8574.32
8563.81
8562.83
8562.78
8562.72
8562.75
8562.74
8562.76
8562.76
8562.78
8562.78
8562.79
8562.79
8562.81
8562.81
8562.83
8562.83
8562.86
8562.86
8562.88
8562.88
8562.9
8562.9
8562.93
8562.93
8562.96
8562.96
8562.99
8562.99
8563.03
8563.03
8563.06
8563.06
8563.1
8563.1
8563.15
8563.15
8563.19
8563.19
8563.24
8563.24
8563.29
8563.29
8563.35
8563.35
8563.41
8563.41
8563.47
8563.47
8563.53
8563.53
8563.6
8563.6
8563.66
8563.66
8563.73
8563.73
8563.78
8563.78
8563.83
8563.82
8563.88
8563.88
8563.88
8563.87
8563.93
8563.93
8563.98
8563.98
8564.04
8564.04
8564.17
8564.17
8564.23
8564.23
8564.24
8564.24
8564.26
8564.28
8564.28
8564.31
8564.32
8564.32
8564.41
8564.41
8564.48
8564.48
8564.7
8564.88
8564.89
8565.83
8566.08
8571.72
8569.45
8797.44
105922
8571.68
8560.4
8559.31
8559.25
8559.18
8559.21
8559.2
8559.22
8559.22
8559.24
8559.24
8559.26
8559.26
8559.28
8559.28
8559.3
8559.3
8559.32
8559.32
8559.35
8559.35
8559.38
8559.38
8559.41
8559.41
8559.44
8559.44
8559.47
8559.47
8559.51
8559.51
8559.55
8559.55
8559.59
8559.59
8559.64
8559.63
8559.68
8559.68
8559.74
8559.74
8559.79
8559.79
8559.86
8559.86
8559.92
8559.92
8559.98
8559.98
8560.05
8560.05
8560.13
8560.12
8560.19
8560.19
8560.26
8560.26
8560.32
8560.32
8560.37
8560.37
8560.42
8560.42
8560.43
8560.42
8560.47
8560.47
8560.53
8560.53
8560.6
8560.6
8560.73
8560.73
8560.8
8560.8
8560.81
8560.81
8560.82
8560.85
8560.85
8560.89
8560.89
8560.89
8560.99
8560.99
8561.07
8561.07
8561.29
8561.48
8561.49
8562.48
8562.74
8568.62
8566.24
8792.67
101477
8568.77
8556.64
8555.42
8555.35
8555.26
8555.29
8555.28
8555.3
8555.3
8555.32
8555.32
8555.34
8555.34
8555.36
8555.36
8555.39
8555.39
8555.41
8555.41
8555.44
8555.44
8555.47
8555.47
8555.5
8555.5
8555.54
8555.53
8555.57
8555.57
8555.61
8555.61
8555.65
8555.65
8555.7
8555.7
8555.75
8555.75
8555.8
8555.8
8555.86
8555.86
8555.92
8555.92
8555.98
8555.98
8556.06
8556.06
8556.12
8556.12
8556.19
8556.19
8556.28
8556.28
8556.35
8556.35
8556.43
8556.43
8556.48
8556.48
8556.54
8556.54
8556.6
8556.6
8556.6
8556.59
8556.65
8556.65
8556.71
8556.71
8556.79
8556.79
8556.92
8556.92
8557
8557
8557.02
8557.02
8557.02
8557.05
8557.05
8557.1
8557.1
8557.1
8557.2
8557.2
8557.29
8557.29
8557.52
8557.73
8557.74
8558.77
8559.04
8565.18
8562.68
8787.36
97094.1
8565.6
8552.51
8551.15
8551.05
8550.95
8550.98
8550.97
8550.99
8550.99
8551.01
8551.01
8551.04
8551.04
8551.06
8551.06
8551.09
8551.08
8551.11
8551.11
8551.14
8551.14
8551.17
8551.17
8551.21
8551.21
8551.24
8551.24
8551.28
8551.28
8551.33
8551.33
8551.37
8551.37
8551.42
8551.42
8551.48
8551.47
8551.53
8551.53
8551.59
8551.59
8551.66
8551.66
8551.73
8551.73
8551.81
8551.81
8551.88
8551.88
8551.96
8551.96
8552.05
8552.05
8552.13
8552.13
8552.21
8552.21
8552.27
8552.27
8552.33
8552.33
8552.4
8552.4
8552.4
8552.38
8552.45
8552.45
8552.51
8552.51
8552.6
8552.6
8552.74
8552.74
8552.82
8552.82
8552.85
8552.84
8552.84
8552.88
8552.88
8552.93
8552.93
8552.93
8553.03
8553.03
8553.14
8553.14
8553.37
8553.6
8553.62
8554.69
8554.97
8561.38
8558.73
8781.48
92788.7
8562.17
8548.01
8546.48
8546.36
8546.24
8546.27
8546.26
8546.28
8546.28
8546.3
8546.3
8546.33
8546.33
8546.36
8546.35
8546.38
8546.38
8546.41
8546.41
8546.44
8546.44
8546.48
8546.48
8546.52
8546.52
8546.56
8546.56
8546.6
8546.6
8546.64
8546.64
8546.69
8546.69
8546.75
8546.75
8546.81
8546.8
8546.87
8546.87
8546.93
8546.93
8547.01
8547.01
8547.08
8547.08
8547.17
8547.16
8547.25
8547.25
8547.33
8547.33
8547.43
8547.43
8547.52
8547.52
8547.61
8547.61
8547.67
8547.67
8547.73
8547.73
8547.81
8547.81
8547.81
8547.79
8547.86
8547.86
8547.93
8547.93
8548.02
8548.02
8548.17
8548.17
8548.26
8548.26
8548.29
8548.29
8548.27
8548.33
8548.33
8548.39
8548.39
8548.38
8548.48
8548.48
8548.6
8548.6
8548.84
8549.1
8549.11
8550.23
8550.52
8557.2
8554.41
8775
88575.8
8558.48
8543.13
8541.41
8541.25
8541.12
8541.15
8541.14
8541.16
8541.16
8541.18
8541.18
8541.21
8541.21
8541.24
8541.24
8541.27
8541.27
8541.3
8541.3
8541.34
8541.34
8541.37
8541.37
8541.41
8541.41
8541.46
8541.46
8541.5
8541.5
8541.55
8541.55
8541.61
8541.61
8541.67
8541.67
8541.73
8541.73
8541.8
8541.8
8541.87
8541.87
8541.95
8541.95
8542.03
8542.03
8542.12
8542.12
8542.21
8542.21
8542.3
8542.3
8542.41
8542.41
8542.5
8542.5
8542.6
8542.6
8542.67
8542.67
8542.74
8542.74
8542.83
8542.83
8542.82
8542.8
8542.87
8542.87
8542.95
8542.95
8543.05
8543.05
8543.2
8543.2
8543.31
8543.31
8543.34
8543.34
8543.32
8543.38
8543.38
8543.44
8543.45
8543.43
8543.54
8543.54
8543.68
8543.68
8543.92
8544.2
8544.21
8545.38
8545.69
8552.63
8549.69
8767.91
84468.2
8554.53
8537.86
8535.92
8535.73
8535.58
8535.61
8535.59
8535.62
8535.61
8535.64
8535.64
8535.67
8535.67
8535.7
8535.7
8535.73
8535.73
8535.77
8535.77
8535.81
8535.81
8535.85
8535.85
8535.89
8535.89
8535.94
8535.94
8535.99
8535.99
8536.04
8536.04
8536.1
8536.1
8536.16
8536.16
8536.23
8536.23
8536.31
8536.31
8536.38
8536.38
8536.47
8536.47
8536.56
8536.56
8536.66
8536.66
8536.76
8536.76
8536.86
8536.86
8536.98
8536.97
8537.08
8537.08
8537.19
8537.19
8537.26
8537.26
8537.34
8537.33
8537.43
8537.43
8537.43
8537.4
8537.48
8537.48
8537.56
8537.56
8537.67
8537.67
8537.83
8537.83
8537.95
8537.95
8537.98
8537.98
8537.95
8538.02
8538.02
8538.1
8538.1
8538.08
8538.2
8538.2
8538.35
8538.35
8538.59
8538.9
8538.91
8540.14
8540.45
8547.66
8544.56
8760.17
80476.2
8550.32
8532.19
8530.01
8529.77
8529.6
8529.62
8529.61
8529.63
8529.63
8529.66
8529.66
8529.69
8529.69
8529.72
8529.72
8529.76
8529.76
8529.8
8529.8
8529.84
8529.84
8529.88
8529.88
8529.93
8529.93
8529.98
8529.98
8530.04
8530.04
8530.1
8530.1
8530.16
8530.16
8530.23
8530.23
8530.3
8530.3
8530.38
8530.38
8530.47
8530.47
8530.56
8530.56
8530.66
8530.66
8530.77
8530.77
8530.88
8530.88
8530.99
8530.99
8531.12
8531.12
8531.23
8531.23
8531.35
8531.35
8531.43
8531.43
8531.51
8531.51
8531.61
8531.61
8531.61
8531.57
8531.66
8531.66
8531.75
8531.75
8531.87
8531.87
8532.03
8532.03
8532.17
8532.17
8532.21
8532.21
8532.18
8532.25
8532.25
8532.34
8532.34
8532.32
8532.44
8532.44
8532.6
8532.61
8532.85
8533.19
8533.2
8534.48
8534.8
8542.27
8539.03
8751.74
76606.8
8545.85
8526.12
8523.66
8523.37
8523.16
8523.19
8523.17
8523.2
8523.2
8523.23
8523.23
8523.26
8523.26
8523.3
8523.3
8523.34
8523.34
8523.38
8523.38
8523.42
8523.42
8523.47
8523.47
8523.52
8523.52
8523.58
8523.58
8523.64
8523.64
8523.71
8523.7
8523.77
8523.77
8523.85
8523.85
8523.93
8523.93
8524.02
8524.02
8524.11
8524.11
8524.21
8524.21
8524.32
8524.32
8524.44
8524.44
8524.56
8524.56
8524.68
8524.68
8524.82
8524.82
8524.95
8524.95
8525.07
8525.07
8525.16
8525.16
8525.25
8525.25
8525.36
8525.36
8525.35
8525.31
8525.41
8525.41
8525.51
8525.51
8525.64
8525.64
8525.81
8525.81
8525.96
8525.96
8526.01
8526.01
8525.97
8526.05
8526.05
8526.15
8526.15
8526.12
8526.25
8526.25
8526.43
8526.44
8526.68
8527.05
8527.06
8528.4
8528.73
8536.45
8533.06
8742.57
72863.4
8541.12
8519.63
8516.85
8516.5
8516.27
8516.3
8516.27
8516.3
8516.3
8516.33
8516.33
8516.37
8516.37
8516.41
8516.41
8516.45
8516.45
8516.5
8516.49
8516.54
8516.54
8516.6
8516.6
8516.65
8516.65
8516.71
8516.71
8516.78
8516.78
8516.85
8516.85
8516.93
8516.93
8517.01
8517.01
8517.1
8517.1
8517.19
8517.19
8517.29
8517.29
8517.4
8517.4
8517.52
8517.52
8517.65
8517.65
8517.78
8517.78
8517.91
8517.91
8518.07
8518.07
8518.21
8518.21
8518.35
8518.35
8518.44
8518.44
8518.54
8518.53
8518.66
8518.66
8518.65
8518.61
8518.71
8518.71
8518.82
8518.82
8518.96
8518.96
8519.15
8519.14
8519.31
8519.31
8519.37
8519.37
8519.32
8519.41
8519.41
8519.52
8519.52
8519.49
8519.62
8519.62
8519.83
8519.83
8520.07
8520.47
8520.49
8521.88
8522.23
8530.18
8526.66
8732.63
69245.1
8536.13
8512.72
8509.59
8509.17
8508.89
8508.92
8508.89
8508.92
8508.91
8508.95
8508.95
8508.99
8508.99
8509.03
8509.03
8509.08
8509.08
8509.13
8509.13
8509.18
8509.18
8509.24
8509.24
8509.3
8509.3
8509.37
8509.37
8509.44
8509.44
8509.52
8509.52
8509.6
8509.6
8509.69
8509.69
8509.79
8509.79
8509.89
8509.89
8510
8510
8510.12
8510.12
8510.25
8510.25
8510.39
8510.39
8510.54
8510.54
8510.68
8510.68
8510.85
8510.85
8511.01
8511.01
8511.16
8511.16
8511.26
8511.26
8511.36
8511.36
8511.5
8511.49
8511.49
8511.44
8511.55
8511.55
8511.67
8511.67
8511.83
8511.83
8512.02
8512.02
8512.2
8512.2
8512.27
8512.27
8512.21
8512.31
8512.31
8512.43
8512.43
8512.4
8512.53
8512.53
8512.76
8512.76
8513
8513.45
8513.46
8514.91
8515.27
8523.44
8519.82
8721.85
65745.6
8530.89
8505.38
8501.84
8501.33
8501.02
8501.04
8501
8501.03
8501.03
8501.07
8501.07
8501.11
8501.11
8501.16
8501.16
8501.21
8501.21
8501.27
8501.27
8501.33
8501.32
8501.39
8501.39
8501.46
8501.46
8501.53
8501.53
8501.61
8501.61
8501.69
8501.69
8501.79
8501.78
8501.88
8501.88
8501.99
8501.99
8502.1
8502.1
8502.22
8502.22
8502.36
8502.36
8502.5
8502.5
8502.65
8502.65
8502.81
8502.81
8502.97
8502.97
8503.16
8503.16
8503.33
8503.33
8503.49
8503.49
8503.6
8503.6
8503.71
8503.71
8503.86
8503.85
8503.84
8503.8
8503.92
8503.92
8504.04
8504.04
8504.22
8504.22
8504.42
8504.42
8504.62
8504.62
8504.7
8504.7
8504.63
8504.74
8504.74
8504.87
8504.87
8504.84
8504.98
8504.98
8505.23
8505.23
8505.47
8505.95
8505.96
8507.47
8507.85
8516.21
8512.53
8710.18
62352.8
8525.39
8497.59
8493.59
8493
8492.64
8492.65
8492.6
8492.64
8492.63
8492.67
8492.67
8492.72
8492.72
8492.77
8492.77
8492.83
8492.83
8492.89
8492.89
8492.95
8492.95
8493.02
8493.02
8493.1
8493.1
8493.18
8493.18
8493.26
8493.26
8493.35
8493.35
8493.46
8493.45
8493.56
8493.56
8493.68
8493.68
8493.8
8493.8
8493.94
8493.93
8494.08
8494.08
8494.24
8494.23
8494.4
8494.4
8494.58
8494.58
8494.75
8494.75
8494.96
8494.96
8495.15
8495.15
8495.33
8495.33
8495.44
8495.44
8495.56
8495.56
8495.72
8495.71
8495.71
8495.66
8495.79
8495.79
8495.92
8495.92
8496.12
8496.12
8496.33
8496.33
8496.55
8496.55
8496.65
8496.64
8496.57
8496.68
8496.68
8496.83
8496.83
8496.8
8496.94
8496.94
8497.22
8497.22
8497.44
8497.97
8497.98
8499.56
8499.94
8508.48
8504.78
8697.54
59047.9
8519.65
8489.34
8484.84
8484.13
8483.72
8483.73
8483.67
8483.7
8483.7
8483.74
8483.74
8483.79
8483.79
8483.85
8483.85
8483.91
8483.91
8483.98
8483.98
8484.05
8484.05
8484.12
8484.12
8484.2
8484.2
8484.29
8484.29
8484.39
8484.38
8484.49
8484.49
8484.6
8484.59
8484.71
8484.71
8484.84
8484.84
8484.98
8484.97
8485.12
8485.12
8485.28
8485.28
8485.45
8485.45
8485.63
8485.63
8485.83
8485.82
8486.02
8486.02
8486.25
8486.25
8486.45
8486.45
8486.65
8486.65
8486.77
8486.77
8486.9
8486.9
8487.07
8487.06
8487.06
8487.01
8487.15
8487.15
8487.29
8487.29
8487.52
8487.51
8487.74
8487.73
8487.98
8487.97
8488.09
8488.08
8488
8488.12
8488.11
8488.29
8488.29
8488.26
8488.4
8488.4
8488.7
8488.7
8488.91
8489.49
8489.5
8491.14
8491.54
8500.23
8496.56
8683.85
55832.9
8513.67
8480.63
8475.56
8474.73
8474.25
8474.25
8474.18
8474.21
8474.21
8474.25
8474.25
8474.31
8474.31
8474.37
8474.37
8474.44
8474.44
8474.51
8474.51
8474.59
8474.59
8474.67
8474.67
8474.76
8474.76
8474.86
8474.85
8474.96
8474.96
8475.07
8475.07
8475.19
8475.19
8475.32
8475.31
8475.46
8475.45
8475.6
8475.6
8475.76
8475.76
8475.94
8475.94
8476.12
8476.12
8476.32
8476.32
8476.53
8476.53
8476.75
8476.75
8477
8477
8477.22
8477.22
8477.44
8477.44
8477.57
8477.56
8477.71
8477.7
8477.89
8477.88
8477.88
8477.83
8477.98
8477.98
8478.14
8478.13
8478.39
8478.38
8478.62
8478.61
8478.88
8478.88
8479.01
8479
8478.91
8479.03
8479.03
8479.23
8479.23
8479.2
8479.34
8479.33
8479.67
8479.67
8479.87
8480.5
8480.51
8482.21
8482.62
8491.43
8487.87
8669.01
52714.7
8507.44
8471.45
8465.74
8464.76
8464.22
8464.2
8464.11
8464.15
8464.14
8464.19
8464.19
8464.25
8464.25
8464.32
8464.32
8464.39
8464.39
8464.47
8464.47
8464.55
8464.55
8464.64
8464.64
8464.74
8464.74
8464.85
8464.84
8464.96
8464.96
8465.08
8465.08
8465.21
8465.21
8465.35
8465.35
8465.5
8465.5
8465.67
8465.66
8465.84
8465.84
8466.03
8466.03
8466.24
8466.23
8466.45
8466.45
8466.69
8466.68
8466.93
8466.92
8467.2
8467.2
8467.44
8467.44
8467.68
8467.68
8467.81
8467.81
8467.97
8467.96
8468.16
8468.15
8468.15
8468.11
8468.26
8468.26
8468.44
8468.43
8468.72
8468.71
8468.95
8468.95
8469.24
8469.24
8469.39
8469.39
8469.29
8469.41
8469.41
8469.63
8469.63
8469.6
8469.74
8469.74
8470.11
8470.11
8470.28
8470.97
8470.98
8472.74
8473.17
8482.06
8478.7
8652.92
49699.7
8500.97
8461.79
8455.36
8454.21
8453.59
8453.55
8453.44
8453.49
8453.47
8453.52
8453.52
8453.59
8453.59
8453.66
8453.66
8453.74
8453.74
8453.83
8453.83
8453.92
8453.92
8454.02
8454.02
8454.13
8454.13
8454.25
8454.24
8454.37
8454.37
8454.5
8454.5
8454.65
8454.64
8454.8
8454.79
8454.96
8454.96
8455.14
8455.14
8455.33
8455.33
8455.54
8455.54
8455.77
8455.76
8456.01
8456
8456.26
8456.26
8456.52
8456.52
8456.82
8456.82
8457.09
8457.09
8457.34
8457.34
8457.49
8457.49
8457.66
8457.65
8457.85
8457.85
8457.86
8457.81
8457.98
8457.98
8458.18
8458.16
8458.48
8458.47
8458.73
8458.73
8459.04
8459.04
8459.22
8459.21
8459.1
8459.23
8459.23
8459.47
8459.47
8459.45
8459.58
8459.58
8459.99
8459.99
8460.14
8460.88
8460.89
8462.72
8463.17
8472.1
8469.03
8636.17
46793.5
8494.28
8451.63
8444.4
8443.05
8442.35
8442.29
8442.16
8442.2
8442.18
8442.24
8442.24
8442.31
8442.31
8442.39
8442.39
8442.48
8442.48
8442.57
8442.57
8442.67
8442.67
8442.78
8442.78
8442.9
8442.9
8443.03
8443.02
8443.16
8443.16
8443.31
8443.3
8443.47
8443.46
8443.63
8443.63
8443.81
8443.81
8444.01
8444.01
8444.22
8444.22
8444.44
8444.44
8444.69
8444.69
8444.95
8444.95
8445.23
8445.23
8445.52
8445.52
8445.85
8445.85
8446.15
8446.14
8446.42
8446.42
8446.58
8446.58
8446.76
8446.75
8446.96
8446.96
8446.97
8446.93
8447.11
8447.11
8447.32
8447.31
8447.67
8447.66
8447.93
8447.92
8448.26
8448.26
8448.46
8448.46
8448.34
8448.47
8448.47
8448.73
8448.74
8448.74
8448.85
8448.85
8449.29
8449.29
8449.42
8450.22
8450.23
8452.13
8452.59
8461.53
8458.88
8619.42
44001.1
8487.37
8440.97
8432.85
8431.28
8430.47
8430.39
8430.23
8430.27
8430.25
8430.31
8430.31
8430.39
8430.38
8430.47
8430.47
8430.57
8430.57
8430.67
8430.67
8430.78
8430.78
8430.9
8430.9
8431.03
8431.03
8431.17
8431.16
8431.32
8431.31
8431.47
8431.47
8431.65
8431.64
8431.83
8431.83
8432.03
8432.02
8432.24
8432.24
8432.47
8432.47
8432.72
8432.72
8432.99
8432.98
8433.28
8433.27
8433.58
8433.58
8433.9
8433.9
8434.26
8434.26
8434.59
8434.58
8434.88
8434.88
8435.05
8435.05
8435.25
8435.23
8435.46
8435.45
8435.48
8435.44
8435.63
8435.63
8435.86
8435.85
8436.25
8436.24
8436.52
8436.51
8436.89
8436.88
8437.11
8437.11
8436.98
8437.11
8437.11
8437.4
8437.4
8437.43
8437.53
8437.52
8438.01
8438.01
8438.11
8438.97
8438.98
8440.94
8441.43
8450.33
8448.21
8603.26
41326.8
8480.24
8429.8
8420.68
8418.86
8417.93
8417.83
8417.63
8417.68
8417.64
8417.71
8417.71
8417.79
8417.79
8417.89
8417.89
8417.99
8417.99
8418.1
8418.1
8418.22
8418.22
8418.36
8418.35
8418.49
8418.49
8418.65
8418.64
8418.81
8418.8
8418.98
8418.98
8419.17
8419.16
8419.37
8419.36
8419.58
8419.58
8419.82
8419.82
8420.07
8420.07
8420.34
8420.34
8420.64
8420.63
8420.95
8420.94
8421.28
8421.28
8421.64
8421.63
8422.03
8422.03
8422.39
8422.38
8422.71
8422.71
8422.89
8422.88
8423.1
8423.08
8423.32
8423.32
8423.35
8423.32
8423.52
8423.52
8423.77
8423.76
8424.21
8424.2
8424.49
8424.48
8424.89
8424.88
8425.14
8425.14
8425
8425.13
8425.13
8425.45
8425.44
8425.52
8425.58
8425.57
8426.1
8426.11
8426.18
8427.1
8427.1
8429.13
8429.64
8438.48
8437.02
8588.11
38774.3
8472.91
8418.12
8407.89
8405.77
8404.71
8404.57
8404.34
8404.38
8404.34
8404.41
8404.41
8404.5
8404.5
8404.6
8404.6
8404.72
8404.72
8404.84
8404.84
8404.97
8404.97
8405.11
8405.11
8405.26
8405.26
8405.43
8405.43
8405.61
8405.6
8405.8
8405.79
8406
8405.99
8406.22
8406.22
8406.46
8406.45
8406.71
8406.71
8406.99
8406.99
8407.28
8407.28
8407.61
8407.6
8407.95
8407.94
8408.32
8408.31
8408.7
8408.7
8409.14
8409.13
8409.53
8409.52
8409.87
8409.87
8410.06
8410.06
8410.29
8410.27
8410.52
8410.52
8410.57
8410.54
8410.76
8410.75
8411.02
8411.02
8411.52
8411.51
8411.82
8411.8
8412.25
8412.23
8412.53
8412.52
8412.38
8412.51
8412.51
8412.86
8412.84
8412.96
8413
8412.99
8413.56
8413.57
8413.62
8414.59
8414.59
8416.69
8417.23
8425.94
8425.3
8574.3
36346.5
8465.38
8405.91
8394.45
8391.99
8390.78
8390.61
8390.33
8390.37
8390.32
8390.39
8390.39
8390.48
8390.48
8390.6
8390.59
8390.72
8390.72
8390.86
8390.85
8391
8391
8391.15
8391.15
8391.32
8391.32
8391.5
8391.49
8391.69
8391.69
8391.9
8391.9
8392.12
8392.12
8392.36
8392.36
8392.62
8392.62
8392.9
8392.9
8393.2
8393.2
8393.53
8393.53
8393.88
8393.87
8394.26
8394.25
8394.65
8394.65
8395.08
8395.07
8395.56
8395.55
8395.98
8395.97
8396.36
8396.36
8396.56
8396.56
8396.8
8396.78
8397.05
8397.05
8397.11
8397.08
8397.31
8397.31
8397.6
8397.6
8398.17
8398.16
8398.47
8398.45
8398.93
8398.92
8399.25
8399.25
8399.09
8399.22
8399.22
8399.6
8399.58
8399.74
8399.75
8399.74
8400.36
8400.37
8400.39
8401.42
8401.42
8403.59
8404.15
8412.7
8413.02
8561.95
34045.4
8457.67
8393.17
8380.35
8377.51
8376.12
8375.9
8375.57
8375.61
8375.54
8375.62
8375.61
8375.72
8375.71
8375.84
8375.84
8375.97
8375.97
8376.12
8376.11
8376.27
8376.27
8376.45
8376.44
8376.63
8376.62
8376.82
8376.82
8377.03
8377.03
8377.26
8377.26
8377.51
8377.5
8377.76
8377.76
8378.05
8378.04
8378.35
8378.35
8378.68
8378.68
8379.04
8379.04
8379.42
8379.42
8379.83
8379.82
8380.27
8380.27
8380.74
8380.73
8381.26
8381.25
8381.72
8381.71
8382.13
8382.13
8382.34
8382.34
8382.6
8382.58
8382.86
8382.87
8382.94
8382.92
8383.17
8383.16
8383.48
8383.48
8384.12
8384.11
8384.43
8384.41
8384.93
8384.91
8385.28
8385.28
8385.12
8385.25
8385.24
8385.65
8385.62
8385.83
8385.83
8385.8
8386.47
8386.49
8386.48
8387.56
8387.57
8389.8
8390.4
8398.71
8400.17
8551.02
31872.7
8449.79
8379.9
8365.57
8362.28
8360.7
8360.42
8360.04
8360.07
8359.99
8360.07
8360.06
8360.17
8360.17
8360.3
8360.3
8360.44
8360.44
8360.61
8360.6
8360.77
8360.77
8360.96
8360.96
8361.16
8361.16
8361.37
8361.37
8361.6
8361.6
8361.85
8361.85
8362.12
8362.11
8362.4
8362.4
8362.71
8362.71
8363.04
8363.04
8363.41
8363.4
8363.79
8363.79
8364.2
8364.2
8364.66
8364.65
8365.13
8365.13
8365.65
8365.64
8366.22
8366.21
8366.72
8366.71
8367.17
8367.17
8367.39
8367.39
8367.67
8367.64
8367.95
8367.95
8368.04
8368.02
8368.29
8368.29
8368.63
8368.63
8369.35
8369.35
8369.67
8369.64
8370.2
8370.18
8370.61
8370.6
8370.44
8370.56
8370.55
8370.99
8370.96
8371.2
8371.21
8371.15
8371.87
8371.89
8371.86
8373
8373
8375.3
8375.93
8383.96
8386.72
8541.29
29829.1
8441.75
8366.08
8350.08
8346.3
8344.5
8344.14
8343.71
8343.72
8343.62
8343.7
8343.69
8343.81
8343.81
8343.95
8343.95
8344.11
8344.11
8344.28
8344.28
8344.47
8344.46
8344.67
8344.66
8344.88
8344.88
8345.12
8345.12
8345.37
8345.37
8345.64
8345.63
8345.93
8345.92
8346.24
8346.24
8346.58
8346.57
8346.94
8346.94
8347.34
8347.33
8347.75
8347.76
8348.21
8348.21
8348.71
8348.69
8349.22
8349.22
8349.78
8349.77
8350.41
8350.4
8350.95
8350.94
8351.44
8351.44
8351.68
8351.68
8351.97
8351.95
8352.27
8352.27
8352.39
8352.37
8352.66
8352.66
8353.02
8353.03
8353.84
8353.84
8354.16
8354.14
8354.73
8354.71
8355.19
8355.19
8355.02
8355.13
8355.11
8355.58
8355.55
8355.85
8355.85
8355.77
8356.53
8356.56
8356.51
8357.7
8357.69
8360.07
8360.74
8368.42
8372.64
8532.29
27914.8
8433.57
8351.73
8333.89
8329.54
8327.48
8327.05
8326.55
8326.54
8326.41
8326.5
8326.48
8326.61
8326.6
8326.76
8326.76
8326.93
8326.93
8327.12
8327.11
8327.32
8327.32
8327.54
8327.54
8327.78
8327.77
8328.03
8328.03
8328.31
8328.3
8328.6
8328.59
8328.91
8328.91
8329.25
8329.25
8329.62
8329.62
8330.02
8330.01
8330.45
8330.44
8330.9
8330.91
8331.4
8331.4
8331.94
8331.93
8332.51
8332.5
8333.12
8333.11
8333.81
8333.8
8334.39
8334.38
8334.93
8334.92
8335.18
8335.17
8335.48
8335.46
8335.81
8335.81
8335.95
8335.94
8336.25
8336.24
8336.64
8336.64
8337.56
8337.57
8337.87
8337.86
8338.5
8338.47
8339.01
8339.01
8338.84
8338.94
8338.91
8339.42
8339.38
8339.73
8339.73
8339.62
8340.44
8340.47
8340.4
8341.63
8341.63
8344.07
8344.8
8352.08
8357.89
8523.39
26129.5
8425.27
8336.84
8316.96
8311.97
8309.63
8309.09
8308.52
8308.49
8308.34
8308.43
8308.4
8308.53
8308.53
8308.69
8308.69
8308.88
8308.88
8309.09
8309.08
8309.3
8309.3
8309.54
8309.54
8309.8
8309.8
8310.08
8310.07
8310.38
8310.37
8310.69
8310.69
8311.03
8311.03
8311.4
8311.4
8311.81
8311.8
8312.25
8312.24
8312.71
8312.7
8313.21
8313.21
8313.75
8313.75
8314.34
8314.33
8314.95
8314.95
8315.63
8315.62
8316.39
8316.37
8317
8317
8317.59
8317.58
8317.87
8317.85
8318.18
8318.15
8318.53
8318.52
8318.7
8318.69
8319.02
8319.02
8319.46
8319.45
8320.49
8320.51
8320.79
8320.79
8321.46
8321.44
8322.04
8322.04
8321.87
8321.96
8321.92
8322.46
8322.42
8322.82
8322.83
8322.69
8323.56
8323.59
8323.5
8324.78
8324.78
8327.29
8328.07
8334.91
8342.45
8513.73
24472.6
8416.85
8321.41
8299.29
8293.58
8290.91
8290.26
8289.6
8289.55
8289.35
8289.45
8289.41
8289.55
8289.55
8289.72
8289.72
8289.92
8289.92
8290.15
8290.14
8290.38
8290.38
8290.64
8290.64
8290.92
8290.92
8291.23
8291.22
8291.55
8291.54
8291.9
8291.89
8292.27
8292.27
8292.67
8292.67
8293.12
8293.1
8293.59
8293.58
8294.1
8294.08
8294.63
8294.64
8295.23
8295.23
8295.86
8295.85
8296.54
8296.54
8297.27
8297.26
8298.1
8298.09
8298.76
8298.77
8299.42
8299.4
8299.7
8299.67
8300.03
8300
8300.41
8300.39
8300.61
8300.6
8300.96
8300.95
8301.43
8301.42
8302.6
8302.63
8302.89
8302.88
8303.6
8303.58
8304.26
8304.25
8304.1
8304.16
8304.1
8304.68
8304.63
8305.1
8305.1
8304.94
8305.87
8305.9
8305.8
8307.12
8307.11
8309.69
8310.53
8316.89
8326.25
8502.78
22943.1
8408.35
8305.44
8280.87
8274.34
8271.29
8270.51
8269.76
8269.68
8269.43
8269.53
8269.48
8269.63
8269.62
8269.81
8269.81
8270.03
8270.03
8270.27
8270.27
8270.53
8270.53
8270.81
8270.81
8271.11
8271.11
8271.44
8271.44
8271.8
8271.79
8272.17
8272.17
8272.58
8272.57
8273.01
8273.01
8273.5
8273.49
8274.01
8274
8274.57
8274.55
8275.15
8275.16
8275.8
8275.8
8276.49
8276.48
8277.22
8277.23
8278.02
8278.02
8278.94
8278.93
8279.65
8279.65