/*--------------------------------*- C++ -*----------------------------------*\
| =========                 |                                                 |
| \\      /  F ield         | OpenFOAM: The Open Source CFD Toolbox           |
|  \\    /   O peration     | Version:  v2012                                 |
|   \\  /    A nd           | Website:  www.openfoam.com                      |
|    \\/     M anipulation  |                                                 |
\*---------------------------------------------------------------------------*/
FoamFile
{
    version     2.0;
    format      ascii;
    class       volVectorField;
    location    "1.5";
    object      wallShearStress;
}
// * * * * * * * * * * * * * * * * * * * * * * * * * * * * * * * * * * * * * //

dimensions      [0 2 -2 0 0 0 0];


internalField   uniform (0 0 0);

boundaryField
{
    inlet
    {
        type            calculated;
        value           uniform (0 0 0);
    }
    outlet
    {
        type            calculated;
        value           uniform (0 0 0);
    }
    topWall
    {
        type            calculated;
        value           nonuniform List<vector> 
545
(
(1.86508e-09 -1.29939e-09 0)
(1.88661e-09 -3.71651e-09 0)
(1.85012e-09 -6.16428e-09 0)
(1.83076e-09 -8.52165e-09 0)
(1.81898e-09 -1.07606e-08 0)
(1.80905e-09 -1.29159e-08 0)
(1.79859e-09 -1.50092e-08 0)
(1.78741e-09 -1.70412e-08 0)
(1.77546e-09 -1.90072e-08 0)
(1.76282e-09 -2.09066e-08 0)
(1.74954e-09 -2.27418e-08 0)
(1.73569e-09 -2.45148e-08 0)
(1.72132e-09 -2.62274e-08 0)
(1.70651e-09 -2.78806e-08 0)
(1.69129e-09 -2.94762e-08 0)
(1.67573e-09 -3.10156e-08 0)
(1.65987e-09 -3.25003e-08 0)
(1.64376e-09 -3.39321e-08 0)
(1.62743e-09 -3.53124e-08 0)
(1.61093e-09 -3.66428e-08 0)
(1.59428e-09 -3.79248e-08 0)
(1.57753e-09 -3.91601e-08 0)
(1.56069e-09 -4.03499e-08 0)
(1.54381e-09 -4.14961e-08 0)
(1.52688e-09 -4.25996e-08 0)
(1.50995e-09 -4.36626e-08 0)
(1.49302e-09 -4.46855e-08 0)
(1.47612e-09 -4.56707e-08 0)
(1.45925e-09 -4.66185e-08 0)
(1.44245e-09 -4.75313e-08 0)
(1.4257e-09 -4.84091e-08 0)
(1.40904e-09 -4.92545e-08 0)
(1.39245e-09 -5.00672e-08 0)
(1.37597e-09 -5.08499e-08 0)
(1.35956e-09 -5.16021e-08 0)
(1.34328e-09 -5.23265e-08 0)
(1.32708e-09 -5.30225e-08 0)
(1.31102e-09 -5.36928e-08 0)
(1.29505e-09 -5.43366e-08 0)
(1.27921e-09 -5.49567e-08 0)
(1.26347e-09 -5.55521e-08 0)
(1.24787e-09 -5.61256e-08 0)
(1.23236e-09 -5.66761e-08 0)
(1.21698e-09 -5.72063e-08 0)
(1.20169e-09 -5.77152e-08 0)
(1.18654e-09 -5.82053e-08 0)
(1.17146e-09 -5.86755e-08 0)
(1.15652e-09 -5.91285e-08 0)
(1.14165e-09 -5.95628e-08 0)
(1.12689e-09 -5.99813e-08 0)
(1.11221e-09 -6.03824e-08 0)
(1.09763e-09 -6.07689e-08 0)
(1.08311e-09 -6.11391e-08 0)
(1.06868e-09 -6.1496e-08 0)
(1.0543e-09 -6.18375e-08 0)
(1.04001e-09 -6.21668e-08 0)
(1.02575e-09 -6.24818e-08 0)
(1.01156e-09 -6.27855e-08 0)
(9.97385e-10 -6.30758e-08 0)
(9.83269e-10 -6.33557e-08 0)
(9.69162e-10 -6.36232e-08 0)
(9.55093e-10 -6.3881e-08 0)
(9.41019e-10 -6.41272e-08 0)
(9.26965e-10 -6.43644e-08 0)
(9.12892e-10 -6.45909e-08 0)
(8.98821e-10 -6.48089e-08 0)
(8.8472e-10 -6.50171e-08 0)
(8.70587e-10 -6.5217e-08 0)
(8.56466e-10 -6.54093e-08 0)
(8.42035e-10 -6.55904e-08 0)
(8.28699e-10 -6.57747e-08 0)
(8.1077e-10 -6.59257e-08 0)
(7.93829e-10 -6.60794e-08 0)
(7.84757e-10 -6.62587e-08 0)
(7.76635e-10 -6.63991e-08 0)
(7.68668e-10 -6.65347e-08 0)
(7.60676e-10 -6.66777e-08 0)
(7.52711e-10 -6.68235e-08 0)
(7.44742e-10 -6.6964e-08 0)
(7.36788e-10 -6.71015e-08 0)
(7.28831e-10 -6.72361e-08 0)
(7.20886e-10 -6.73697e-08 0)
(7.12939e-10 -6.75009e-08 0)
(7.05003e-10 -6.76305e-08 0)
(6.97067e-10 -6.77575e-08 0)
(6.8914e-10 -6.78829e-08 0)
(6.81215e-10 -6.8006e-08 0)
(6.73298e-10 -6.81273e-08 0)
(6.65388e-10 -6.82466e-08 0)
(6.57477e-10 -6.83637e-08 0)
(6.49601e-10 -6.84798e-08 0)
(6.41612e-10 -6.859e-08 0)
(6.34118e-10 -6.87122e-08 0)
(6.2444e-10 -6.88019e-08 0)
(6.23839e-10 -6.89919e-08 0)
(5.87278e-10 -6.89867e-08 0)
(5.35638e-10 -6.89924e-08 0)
(5.22422e-10 -6.92486e-08 0)
(5.16331e-10 -6.93195e-08 0)
(5.11722e-10 -6.93302e-08 0)
(5.07218e-10 -6.93842e-08 0)
(5.02808e-10 -6.94711e-08 0)
(4.98399e-10 -6.95505e-08 0)
(4.93989e-10 -6.96205e-08 0)
(4.89573e-10 -6.96878e-08 0)
(4.85151e-10 -6.97568e-08 0)
(4.80721e-10 -6.98263e-08 0)
(4.76285e-10 -6.98956e-08 0)
(4.71838e-10 -6.99637e-08 0)
(4.67387e-10 -7.00317e-08 0)
(4.62925e-10 -7.00989e-08 0)
(4.58458e-10 -7.01662e-08 0)
(4.53981e-10 -7.02325e-08 0)
(4.49499e-10 -7.02987e-08 0)
(4.45008e-10 -7.03641e-08 0)
(4.40511e-10 -7.04292e-08 0)
(4.36006e-10 -7.04937e-08 0)
(4.31495e-10 -7.05577e-08 0)
(4.26976e-10 -7.06212e-08 0)
(4.22451e-10 -7.0684e-08 0)
(4.1792e-10 -7.07464e-08 0)
(4.13381e-10 -7.0808e-08 0)
(4.08836e-10 -7.08692e-08 0)
(4.04285e-10 -7.09296e-08 0)
(3.99727e-10 -7.09895e-08 0)
(3.95163e-10 -7.10486e-08 0)
(3.90593e-10 -7.11072e-08 0)
(3.86015e-10 -7.11649e-08 0)
(3.81433e-10 -7.12221e-08 0)
(3.76843e-10 -7.12783e-08 0)
(3.72249e-10 -7.13342e-08 0)
(3.67647e-10 -7.13889e-08 0)
(3.63041e-10 -7.14433e-08 0)
(3.58427e-10 -7.14967e-08 0)
(3.53809e-10 -7.15496e-08 0)
(3.49183e-10 -7.16015e-08 0)
(3.44554e-10 -7.16529e-08 0)
(3.39917e-10 -7.17034e-08 0)
(3.35277e-10 -7.17535e-08 0)
(3.3063e-10 -7.18024e-08 0)
(3.25979e-10 -7.18512e-08 0)
(3.21321e-10 -7.18988e-08 0)
(3.16659e-10 -7.19461e-08 0)
(3.11991e-10 -7.19925e-08 0)
(3.07319e-10 -7.20383e-08 0)
(3.02642e-10 -7.20835e-08 0)
(2.97959e-10 -7.21279e-08 0)
(2.93272e-10 -7.21718e-08 0)
(2.8858e-10 -7.22149e-08 0)
(2.83883e-10 -7.22575e-08 0)
(2.79182e-10 -7.22994e-08 0)
(2.74476e-10 -7.23407e-08 0)
(2.69765e-10 -7.23812e-08 0)
(2.6505e-10 -7.24212e-08 0)
(2.6033e-10 -7.24605e-08 0)
(2.55606e-10 -7.24994e-08 0)
(2.50877e-10 -7.25373e-08 0)
(2.46145e-10 -7.2575e-08 0)
(2.41406e-10 -7.26114e-08 0)
(2.36665e-10 -7.26479e-08 0)
(2.31917e-10 -7.26829e-08 0)
(2.27167e-10 -7.27179e-08 0)
(2.22411e-10 -7.27517e-08 0)
(2.17652e-10 -7.27853e-08 0)
(2.12889e-10 -7.2818e-08 0)
(2.08122e-10 -7.28501e-08 0)
(2.03351e-10 -7.28814e-08 0)
(1.98577e-10 -7.29128e-08 0)
(1.93798e-10 -7.29428e-08 0)
(1.89016e-10 -7.29725e-08 0)
(1.84229e-10 -7.30009e-08 0)
(1.79439e-10 -7.30291e-08 0)
(1.74645e-10 -7.30563e-08 0)
(1.69847e-10 -7.30827e-08 0)
(1.65048e-10 -7.31092e-08 0)
(1.60244e-10 -7.31345e-08 0)
(1.55434e-10 -7.31576e-08 0)
(1.50625e-10 -7.31818e-08 0)
(1.45811e-10 -7.32045e-08 0)
(1.40993e-10 -7.32261e-08 0)
(1.36169e-10 -7.3245e-08 0)
(1.31348e-10 -7.32664e-08 0)
(1.26522e-10 -7.32856e-08 0)
(1.21691e-10 -7.33022e-08 0)
(1.16862e-10 -7.33211e-08 0)
(1.1203e-10 -7.33386e-08 0)
(1.07195e-10 -7.33549e-08 0)
(1.02358e-10 -7.33705e-08 0)
(9.75196e-11 -7.33854e-08 0)
(9.26789e-11 -7.33994e-08 0)
(8.78346e-11 -7.34109e-08 0)
(8.299e-11 -7.34226e-08 0)
(7.81457e-11 -7.34351e-08 0)
(7.32999e-11 -7.34467e-08 0)
(6.84518e-11 -7.34563e-08 0)
(6.3603e-11 -7.34654e-08 0)
(5.87531e-11 -7.34735e-08 0)
(5.39038e-11 -7.34825e-08 0)
(4.90518e-11 -7.34879e-08 0)
(4.42008e-11 -7.34946e-08 0)
(3.9349e-11 -7.34999e-08 0)
(3.44962e-11 -7.35028e-08 0)
(2.96438e-11 -7.35053e-08 0)
(2.47924e-11 -7.35094e-08 0)
(1.99404e-11 -7.35104e-08 0)
(1.50893e-11 -7.35127e-08 0)
(1.02385e-11 -7.3513e-08 0)
(5.38812e-12 -7.35109e-08 0)
(5.38803e-13 -7.35088e-08 0)
(-4.30954e-12 -7.35069e-08 0)
(-9.15687e-12 -7.35046e-08 0)
(-1.40029e-11 -7.35006e-08 0)
(-1.88475e-11 -7.34959e-08 0)
(-2.36904e-11 -7.34899e-08 0)
(-2.85311e-11 -7.34817e-08 0)
(-3.33698e-11 -7.3473e-08 0)
(-3.82077e-11 -7.3466e-08 0)
(-4.30429e-11 -7.34571e-08 0)
(-4.78757e-11 -7.34472e-08 0)
(-5.27057e-11 -7.3436e-08 0)
(-5.75331e-11 -7.3424e-08 0)
(-6.23556e-11 -7.34089e-08 0)
(-6.71778e-11 -7.3396e-08 0)
(-7.19947e-11 -7.33802e-08 0)
(-7.68107e-11 -7.33658e-08 0)
(-8.16218e-11 -7.33492e-08 0)
(-8.64294e-11 -7.33318e-08 0)
(-9.12328e-11 -7.33134e-08 0)
(-9.60322e-11 -7.3294e-08 0)
(-1.00828e-10 -7.32738e-08 0)
(-1.05618e-10 -7.32524e-08 0)
(-1.10404e-10 -7.32303e-08 0)
(-1.15183e-10 -7.32058e-08 0)
(-1.19962e-10 -7.3183e-08 0)
(-1.24733e-10 -7.31577e-08 0)
(-1.29499e-10 -7.3132e-08 0)
(-1.34259e-10 -7.31046e-08 0)
(-1.39013e-10 -7.30767e-08 0)
(-1.43761e-10 -7.30473e-08 0)
(-1.48504e-10 -7.30173e-08 0)
(-1.53239e-10 -7.29859e-08 0)
(-1.57969e-10 -7.29538e-08 0)
(-1.62691e-10 -7.29205e-08 0)
(-1.67404e-10 -7.2885e-08 0)
(-1.72112e-10 -7.28495e-08 0)
(-1.76812e-10 -7.28128e-08 0)
(-1.81509e-10 -7.2777e-08 0)
(-1.86197e-10 -7.27393e-08 0)
(-1.90876e-10 -7.27003e-08 0)
(-1.95546e-10 -7.266e-08 0)
(-2.00204e-10 -7.2617e-08 0)
(-2.04853e-10 -7.2573e-08 0)
(-2.09501e-10 -7.25307e-08 0)
(-2.1414e-10 -7.24869e-08 0)
(-2.18768e-10 -7.24418e-08 0)
(-2.23387e-10 -7.23954e-08 0)
(-2.2799e-10 -7.23463e-08 0)
(-2.32594e-10 -7.2299e-08 0)
(-2.37184e-10 -7.22497e-08 0)
(-2.41765e-10 -7.21994e-08 0)
(-2.46337e-10 -7.21482e-08 0)
(-2.50891e-10 -7.20943e-08 0)
(-2.55447e-10 -7.20418e-08 0)
(-2.59978e-10 -7.19881e-08 0)
(-2.64546e-10 -7.193e-08 0)
(-2.68891e-10 -7.18822e-08 0)
(-2.741e-10 -7.18041e-08 0)
(-2.75498e-10 -7.18307e-08 0)
(-2.93351e-10 -7.16597e-08 0)
(-3.18142e-10 -7.15109e-08 0)
(-3.24898e-10 -7.16273e-08 0)
(-3.27345e-10 -7.15678e-08 0)
(-3.28812e-10 -7.14496e-08 0)
(-3.30048e-10 -7.13664e-08 0)
(-3.31291e-10 -7.13106e-08 0)
(-3.32594e-10 -7.1253e-08 0)
(-3.33948e-10 -7.11853e-08 0)
(-3.35363e-10 -7.1115e-08 0)
(-3.36829e-10 -7.10434e-08 0)
(-3.38356e-10 -7.09727e-08 0)
(-3.39947e-10 -7.09022e-08 0)
(-3.41604e-10 -7.08323e-08 0)
(-3.43292e-10 -7.0756e-08 0)
(-3.45044e-10 -7.06809e-08 0)
(-3.46863e-10 -7.06071e-08 0)
(-3.4873e-10 -7.05313e-08 0)
(-3.50643e-10 -7.04529e-08 0)
(-3.52607e-10 -7.03731e-08 0)
(-3.5464e-10 -7.02957e-08 0)
(-3.56715e-10 -7.02155e-08 0)
(-3.58829e-10 -7.0132e-08 0)
(-3.60997e-10 -7.00483e-08 0)
(-3.63223e-10 -6.99653e-08 0)
(-3.65462e-10 -6.98745e-08 0)
(-3.67762e-10 -6.97853e-08 0)
(-3.7011e-10 -6.96953e-08 0)
(-3.72498e-10 -6.96031e-08 0)
(-3.74938e-10 -6.95112e-08 0)
(-3.77409e-10 -6.94158e-08 0)
(-3.79928e-10 -6.932e-08 0)
(-3.82476e-10 -6.92207e-08 0)
(-3.85062e-10 -6.91197e-08 0)
(-3.87687e-10 -6.90173e-08 0)
(-3.90344e-10 -6.89123e-08 0)
(-3.93043e-10 -6.88067e-08 0)
(-3.95769e-10 -6.86981e-08 0)
(-3.98542e-10 -6.85901e-08 0)
(-4.01351e-10 -6.84808e-08 0)
(-4.04162e-10 -6.83647e-08 0)
(-4.07016e-10 -6.8249e-08 0)
(-4.09896e-10 -6.81308e-08 0)
(-4.12804e-10 -6.80109e-08 0)
(-4.15746e-10 -6.78901e-08 0)
(-4.18706e-10 -6.77662e-08 0)
(-4.21661e-10 -6.76356e-08 0)
(-4.24666e-10 -6.75074e-08 0)
(-4.27699e-10 -6.73781e-08 0)
(-4.30726e-10 -6.72424e-08 0)
(-4.33787e-10 -6.71072e-08 0)
(-4.36835e-10 -6.6965e-08 0)
(-4.3993e-10 -6.68254e-08 0)
(-4.43038e-10 -6.66834e-08 0)
(-4.46124e-10 -6.65337e-08 0)
(-4.49235e-10 -6.63838e-08 0)
(-4.52367e-10 -6.62331e-08 0)
(-4.55501e-10 -6.6079e-08 0)
(-4.58634e-10 -6.59214e-08 0)
(-4.61774e-10 -6.57615e-08 0)
(-4.64924e-10 -6.56001e-08 0)
(-4.68047e-10 -6.5432e-08 0)
(-4.71199e-10 -6.52653e-08 0)
(-4.74332e-10 -6.50935e-08 0)
(-4.77459e-10 -6.49186e-08 0)
(-4.80552e-10 -6.47372e-08 0)
(-4.83658e-10 -6.45556e-08 0)
(-4.86786e-10 -6.43753e-08 0)
(-4.89883e-10 -6.41895e-08 0)
(-4.92956e-10 -6.39991e-08 0)
(-4.96014e-10 -6.38058e-08 0)
(-4.99044e-10 -6.36079e-08 0)
(-5.02031e-10 -6.3404e-08 0)
(-5.05033e-10 -6.32014e-08 0)
(-5.07989e-10 -6.29928e-08 0)
(-5.10917e-10 -6.27805e-08 0)
(-5.13818e-10 -6.25651e-08 0)
(-5.16724e-10 -6.23504e-08 0)
(-5.19549e-10 -6.21264e-08 0)
(-5.2238e-10 -6.19038e-08 0)
(-5.25162e-10 -6.16762e-08 0)
(-5.27906e-10 -6.1445e-08 0)
(-5.306e-10 -6.1209e-08 0)
(-5.33259e-10 -6.09704e-08 0)
(-5.35846e-10 -6.07251e-08 0)
(-5.38399e-10 -6.04776e-08 0)
(-5.40891e-10 -6.0225e-08 0)
(-5.43334e-10 -5.99691e-08 0)
(-5.45724e-10 -5.97096e-08 0)
(-5.48056e-10 -5.9446e-08 0)
(-5.50314e-10 -5.9177e-08 0)
(-5.52524e-10 -5.89055e-08 0)
(-5.54635e-10 -5.86264e-08 0)
(-5.56718e-10 -5.83473e-08 0)
(-5.58742e-10 -5.80652e-08 0)
(-5.60685e-10 -5.77781e-08 0)
(-5.62559e-10 -5.74873e-08 0)
(-5.64348e-10 -5.71915e-08 0)
(-5.66047e-10 -5.68904e-08 0)
(-5.67698e-10 -5.65884e-08 0)
(-5.69266e-10 -5.62822e-08 0)
(-5.70713e-10 -5.59682e-08 0)
(-5.72103e-10 -5.56531e-08 0)
(-5.73396e-10 -5.53331e-08 0)
(-5.74595e-10 -5.50086e-08 0)
(-5.75691e-10 -5.46792e-08 0)
(-5.7669e-10 -5.43455e-08 0)
(-5.77587e-10 -5.40072e-08 0)
(-5.78384e-10 -5.36648e-08 0)
(-5.79097e-10 -5.332e-08 0)
(-5.79668e-10 -5.29676e-08 0)
(-5.80168e-10 -5.26142e-08 0)
(-5.80561e-10 -5.22568e-08 0)
(-5.80858e-10 -5.18966e-08 0)
(-5.8103e-10 -5.15312e-08 0)
(-5.81095e-10 -5.11622e-08 0)
(-5.81047e-10 -5.07894e-08 0)
(-5.80872e-10 -5.04118e-08 0)
(-5.80606e-10 -5.00325e-08 0)
(-5.80198e-10 -4.96474e-08 0)
(-5.79684e-10 -4.92598e-08 0)
(-5.79004e-10 -4.88646e-08 0)
(-5.78183e-10 -4.84642e-08 0)
(-5.7723e-10 -4.80596e-08 0)
(-5.76176e-10 -4.76533e-08 0)
(-5.74993e-10 -4.72434e-08 0)
(-5.73694e-10 -4.68309e-08 0)
(-5.72261e-10 -4.64145e-08 0)
(-5.70706e-10 -4.59952e-08 0)
(-5.69017e-10 -4.55724e-08 0)
(-5.67193e-10 -4.51458e-08 0)
(-5.65237e-10 -4.47161e-08 0)
(-5.63167e-10 -4.42846e-08 0)
(-5.60948e-10 -4.38487e-08 0)
(-5.58605e-10 -4.34104e-08 0)
(-5.56142e-10 -4.29701e-08 0)
(-5.53534e-10 -4.2526e-08 0)
(-5.50835e-10 -4.20824e-08 0)
(-5.47935e-10 -4.16308e-08 0)
(-5.44981e-10 -4.11826e-08 0)
(-5.41873e-10 -4.07302e-08 0)
(-5.38602e-10 -4.0273e-08 0)
(-5.35193e-10 -3.98129e-08 0)
(-5.31675e-10 -3.93522e-08 0)
(-5.28023e-10 -3.88891e-08 0)
(-5.24256e-10 -3.8425e-08 0)
(-5.20371e-10 -3.79597e-08 0)
(-5.16374e-10 -3.74935e-08 0)
(-5.12209e-10 -3.70227e-08 0)
(-5.07966e-10 -3.65536e-08 0)
(-5.03561e-10 -3.60803e-08 0)
(-4.9906e-10 -3.56074e-08 0)
(-4.94451e-10 -3.51341e-08 0)
(-4.89741e-10 -3.4661e-08 0)
(-4.84918e-10 -3.41871e-08 0)
(-4.79979e-10 -3.37122e-08 0)
(-4.74948e-10 -3.3238e-08 0)
(-4.69808e-10 -3.27632e-08 0)
(-4.6457e-10 -3.22885e-08 0)
(-4.59242e-10 -3.18145e-08 0)
(-4.5383e-10 -3.13414e-08 0)
(-4.4832e-10 -3.08682e-08 0)
(-4.42762e-10 -3.03983e-08 0)
(-4.37072e-10 -2.99258e-08 0)
(-4.31338e-10 -2.94566e-08 0)
(-4.25541e-10 -2.89894e-08 0)
(-4.1966e-10 -2.85225e-08 0)
(-4.13704e-10 -2.80565e-08 0)
(-4.0769e-10 -2.75924e-08 0)
(-4.01685e-10 -2.71347e-08 0)
(-3.95533e-10 -2.66727e-08 0)
(-3.89398e-10 -2.62173e-08 0)
(-3.83213e-10 -2.5764e-08 0)
(-3.76967e-10 -2.53118e-08 0)
(-3.70651e-10 -2.48601e-08 0)
(-3.64324e-10 -2.44128e-08 0)
(-3.57938e-10 -2.3966e-08 0)
(-3.51541e-10 -2.35247e-08 0)
(-3.45115e-10 -2.30812e-08 0)
(-3.38724e-10 -2.26571e-08 0)
(-3.32089e-10 -2.21715e-08 0)
(-3.26322e-10 -2.18087e-08 0)
(-3.18276e-10 -2.1388e-08 0)
(-3.0814e-10 -2.07808e-08 0)
(-2.99779e-10 -2.02916e-08 0)
(-2.91947e-10 -1.98415e-08 0)
(-2.8436e-10 -1.93846e-08 0)
(-2.76931e-10 -1.89264e-08 0)
(-2.69612e-10 -1.84799e-08 0)
(-2.62415e-10 -1.80487e-08 0)
(-2.55343e-10 -1.763e-08 0)
(-2.48412e-10 -1.72224e-08 0)
(-2.41619e-10 -1.68256e-08 0)
(-2.34963e-10 -1.64397e-08 0)
(-2.28443e-10 -1.60647e-08 0)
(-2.22057e-10 -1.57003e-08 0)
(-2.15809e-10 -1.53463e-08 0)
(-2.09695e-10 -1.5002e-08 0)
(-2.03716e-10 -1.46676e-08 0)
(-1.97874e-10 -1.4343e-08 0)
(-1.92157e-10 -1.4027e-08 0)
(-1.86576e-10 -1.37206e-08 0)
(-1.81125e-10 -1.34229e-08 0)
(-1.75806e-10 -1.31342e-08 0)
(-1.70614e-10 -1.2854e-08 0)
(-1.65553e-10 -1.25823e-08 0)
(-1.60609e-10 -1.23183e-08 0)
(-1.55795e-10 -1.20627e-08 0)
(-1.51101e-10 -1.18149e-08 0)
(-1.46524e-10 -1.15744e-08 0)
(-1.42061e-10 -1.13412e-08 0)
(-1.37713e-10 -1.11151e-08 0)
(-1.33474e-10 -1.08958e-08 0)
(-1.29345e-10 -1.06834e-08 0)
(-1.25322e-10 -1.04775e-08 0)
(-1.21405e-10 -1.02781e-08 0)
(-1.17589e-10 -1.00848e-08 0)
(-1.13874e-10 -9.89772e-09 0)
(-1.10256e-10 -9.71646e-09 0)
(-1.06736e-10 -9.54108e-09 0)
(-1.03307e-10 -9.37117e-09 0)
(-9.99726e-11 -9.20691e-09 0)
(-9.67258e-11 -9.04783e-09 0)
(-9.35674e-11 -8.894e-09 0)
(-9.04943e-11 -8.74521e-09 0)
(-8.7504e-11 -8.60125e-09 0)
(-8.45964e-11 -8.46219e-09 0)
(-8.17671e-11 -8.32767e-09 0)
(-7.90158e-11 -8.19771e-09 0)
(-7.63402e-11 -8.07218e-09 0)
(-7.37369e-11 -7.9508e-09 0)
(-7.12061e-11 -7.8337e-09 0)
(-6.87437e-11 -7.7205e-09 0)
(-6.63483e-11 -7.61117e-09 0)
(-6.4021e-11 -7.50596e-09 0)
(-6.17556e-11 -7.40425e-09 0)
(-5.95481e-11 -7.3057e-09 0)
(-5.7406e-11 -7.21133e-09 0)
(-5.53217e-11 -7.12038e-09 0)
(-5.32948e-11 -7.03294e-09 0)
(-5.13215e-11 -6.94867e-09 0)
(-4.9406e-11 -6.86831e-09 0)
(-4.75315e-11 -6.78971e-09 0)
(-4.57128e-11 -6.71511e-09 0)
(-4.39386e-11 -6.64308e-09 0)
(-4.22069e-11 -6.57345e-09 0)
(-4.05202e-11 -6.50679e-09 0)
(-3.88719e-11 -6.44223e-09 0)
(-3.72669e-11 -6.38077e-09 0)
(-3.56981e-11 -6.32142e-09 0)
(-3.41678e-11 -6.26478e-09 0)
(-3.26734e-11 -6.21062e-09 0)
(-3.12137e-11 -6.15896e-09 0)
(-2.97861e-11 -6.10955e-09 0)
(-2.83901e-11 -6.06253e-09 0)
(-2.7023e-11 -6.01766e-09 0)
(-2.5684e-11 -5.97502e-09 0)
(-2.43712e-11 -5.9345e-09 0)
(-2.30831e-11 -5.8961e-09 0)
(-2.1818e-11 -5.85974e-09 0)
(-2.05742e-11 -5.82538e-09 0)
(-1.93502e-11 -5.79303e-09 0)
(-1.81445e-11 -5.76267e-09 0)
(-1.69551e-11 -5.73411e-09 0)
(-1.57817e-11 -5.70769e-09 0)
(-1.46218e-11 -5.68275e-09 0)
(-1.34767e-11 -5.66004e-09 0)
(-1.23454e-11 -5.63888e-09 0)
(-1.12302e-11 -5.61958e-09 0)
(-1.01346e-11 -5.60258e-09 0)
(-9.06072e-12 -5.58576e-09 0)
(-8.02241e-12 -5.57611e-09 0)
(-6.98953e-12 -5.54954e-09 0)
(-6.06565e-12 -5.58389e-09 0)
(-4.8175e-12 -5.40811e-09 0)
(-4.54257e-12 -5.84443e-09 0)
(-2.5591e-12 -5.09923e-09 0)
)
;
    }
    bottomWall
    {
        type            calculated;
        value           nonuniform List<vector> 
449
(
(-47.7697 -0.937911 0)
(-22.6649 -0.00424871 0)
(-20.1618 -0.000428513 0)
(-20.0013 -3.00867e-05 0)
(-20.0592 5.75466e-06 0)
(-20.0766 -9.3145e-07 0)
(-20.0677 -4.18466e-06 0)
(-20.0568 -3.466e-06 0)
(-20.0501 -2.11796e-06 0)
(-20.0465 -1.20792e-06 0)
(-20.0447 -6.83889e-07 0)
(-20.0438 -3.69862e-07 0)
(-20.0435 -1.76534e-07 0)
(-20.0435 -6.12383e-08 0)
(-20.0437 4.67835e-09 0)
(-20.044 4.13073e-08 0)
(-20.0444 6.06902e-08 0)
(-20.0447 6.96749e-08 0)
(-20.045 7.21729e-08 0)
(-20.0453 7.06448e-08 0)
(-20.0456 6.69082e-08 0)
(-20.0458 6.19688e-08 0)
(-20.0461 5.64362e-08 0)
(-20.0463 5.07985e-08 0)
(-20.0464 4.52912e-08 0)
(-20.0466 3.99439e-08 0)
(-20.0467 3.49413e-08 0)
(-20.0468 3.03667e-08 0)
(-20.0469 2.60348e-08 0)
(-20.047 2.2124e-08 0)
(-20.0471 1.85643e-08 0)
(-20.0472 1.52647e-08 0)
(-20.0472 1.22649e-08 0)
(-20.0472 9.59447e-09 0)
(-20.0473 7.08633e-09 0)
(-20.0473 4.86827e-09 0)
(-20.0473 2.86403e-09 0)
(-20.0473 1.01249e-09 0)
(-20.0473 -6.72768e-10 0)
(-20.0473 -2.21012e-09 0)
(-20.0473 -3.67721e-09 0)
(-20.0472 -4.94247e-09 0)
(-20.0472 -6.04721e-09 0)
(-20.0472 -7.03444e-09 0)
(-20.0472 -7.98494e-09 0)
(-20.0471 -8.9212e-09 0)
(-20.0471 -9.72168e-09 0)
(-20.047 -1.03911e-08 0)
(-20.047 -1.10151e-08 0)
(-20.047 -1.16271e-08 0)
(-20.0469 -1.22466e-08 0)
(-20.0469 -1.27646e-08 0)
(-20.0468 -1.31783e-08 0)
(-20.0468 -1.35429e-08 0)
(-20.0467 -1.39251e-08 0)
(-20.0466 -1.43278e-08 0)
(-20.0466 -1.4653e-08 0)
(-20.0465 -1.49536e-08 0)
(-20.0465 -1.52135e-08 0)
(-20.0464 -1.54331e-08 0)
(-20.0463 -1.56579e-08 0)
(-20.0463 -1.58356e-08 0)
(-20.0462 -1.60126e-08 0)
(-20.0462 -1.61876e-08 0)
(-20.0461 -1.63474e-08 0)
(-20.046 -1.65216e-08 0)
(-20.046 -1.66151e-08 0)
(-20.0459 -1.66671e-08 0)
(-20.0458 -1.6764e-08 0)
(-20.0458 -1.68445e-08 0)
(-20.0457 -1.69258e-08 0)
(-20.0456 -1.70525e-08 0)
(-20.0456 -1.71002e-08 0)
(-20.0455 -1.70969e-08 0)
(-20.0454 -1.71382e-08 0)
(-20.0454 -1.71649e-08 0)
(-20.0453 -1.72085e-08 0)
(-20.0452 -1.72956e-08 0)
(-20.0451 -1.73033e-08 0)
(-20.0451 -1.72607e-08 0)
(-20.045 -1.72961e-08 0)
(-20.0449 -1.72841e-08 0)
(-20.0449 -1.72463e-08 0)
(-20.0448 -1.72666e-08 0)
(-20.0447 -1.72864e-08 0)
(-20.0446 -1.72832e-08 0)
(-20.0446 -1.72554e-08 0)
(-20.0445 -1.71821e-08 0)
(-20.0444 -1.71446e-08 0)
(-20.0444 -1.7187e-08 0)
(-20.0443 -1.71552e-08 0)
(-20.0442 -1.70897e-08 0)
(-20.0441 -1.70965e-08 0)
(-20.0441 -1.70468e-08 0)
(-20.044 -1.69728e-08 0)
(-20.0439 -1.69676e-08 0)
(-20.0439 -1.69138e-08 0)
(-20.0438 -1.68449e-08 0)
(-20.0437 -1.6845e-08 0)
(-20.0436 -1.67837e-08 0)
(-20.0436 -1.66986e-08 0)
(-20.0435 -1.66868e-08 0)
(-20.0434 -1.66547e-08 0)
(-20.0434 -1.6598e-08 0)
(-20.0433 -1.65532e-08 0)
(-20.0432 -1.64929e-08 0)
(-20.0431 -1.64296e-08 0)
(-20.0431 -1.63645e-08 0)
(-20.043 -1.6322e-08 0)
(-20.0429 -1.62863e-08 0)
(-20.0429 -1.61991e-08 0)
(-20.0428 -1.61388e-08 0)
(-20.0427 -1.614e-08 0)
(-20.0427 -1.60761e-08 0)
(-20.0426 -1.59766e-08 0)
(-20.0425 -1.59449e-08 0)
(-20.0424 -1.58903e-08 0)
(-20.0424 -1.57991e-08 0)
(-20.0423 -1.57197e-08 0)
(-20.0422 -1.5675e-08 0)
(-20.0422 -1.56554e-08 0)
(-20.0421 -1.55808e-08 0)
(-20.042 -1.55099e-08 0)
(-20.042 -1.54848e-08 0)
(-20.0419 -1.54238e-08 0)
(-20.0418 -1.53432e-08 0)
(-20.0417 -1.52779e-08 0)
(-20.0417 -1.522e-08 0)
(-20.0416 -1.51663e-08 0)
(-20.0415 -1.50864e-08 0)
(-20.0415 -1.50216e-08 0)
(-20.0414 -1.49877e-08 0)
(-20.0413 -1.49093e-08 0)
(-20.0413 -1.48336e-08 0)
(-20.0412 -1.48089e-08 0)
(-20.0411 -1.47396e-08 0)
(-20.0411 -1.4666e-08 0)
(-20.041 -1.46289e-08 0)
(-20.0409 -1.45746e-08 0)
(-20.0409 -1.44962e-08 0)
(-20.0408 -1.4409e-08 0)
(-20.0407 -1.4355e-08 0)
(-20.0407 -1.43196e-08 0)
(-20.0406 -1.42571e-08 0)
(-20.0405 -1.41615e-08 0)
(-20.0405 -1.40941e-08 0)
(-20.0404 -1.40761e-08 0)
(-20.0403 -1.39988e-08 0)
(-20.0403 -1.39078e-08 0)
(-20.0402 -1.38771e-08 0)
(-20.0401 -1.38236e-08 0)
(-20.0401 -1.37599e-08 0)
(-20.04 -1.3706e-08 0)
(-20.0399 -1.36422e-08 0)
(-20.0399 -1.35755e-08 0)
(-20.0398 -1.34965e-08 0)
(-20.0397 -1.34043e-08 0)
(-20.0397 -1.33535e-08 0)
(-20.0396 -1.33477e-08 0)
(-20.0395 -1.32664e-08 0)
(-20.0395 -1.31684e-08 0)
(-20.0394 -1.31101e-08 0)
(-20.0393 -1.30158e-08 0)
(-20.0393 -1.29375e-08 0)
(-20.0392 -1.28611e-08 0)
(-20.0392 -1.27319e-08 0)
(-20.0391 -1.25548e-08 0)
(-20.039 -1.23508e-08 0)
(-20.039 -1.1871e-08 0)
(-20.0389 -1.13488e-08 0)
(-20.0389 -6.36887e-09 0)
(-20.0388 -1.63674e-08 0)
(-20.0387 9.97472e-08 0)
(-20.0399 2.07751e-07 0)
(-20.0407 1.37021e-07 0)
(-20.0411 4.68648e-08 0)
(-20.0411 -1.52974e-08 0)
(-20.0409 -4.33894e-08 0)
(-20.0406 -5.40978e-08 0)
(-20.0404 -5.80423e-08 0)
(-20.0401 -5.94794e-08 0)
(-20.0398 -5.98503e-08 0)
(-20.0395 -5.95679e-08 0)
(-20.0392 -5.89051e-08 0)
(-20.0389 -5.80515e-08 0)
(-20.0386 -5.70507e-08 0)
(-20.0383 -5.59965e-08 0)
(-20.038 -5.49314e-08 0)
(-20.0377 -5.38278e-08 0)
(-20.0375 -5.27253e-08 0)
(-20.0372 -5.16459e-08 0)
(-20.0369 -5.05497e-08 0)
(-20.0366 -4.94592e-08 0)
(-20.0364 -4.84123e-08 0)
(-20.0361 -4.73776e-08 0)
(-20.0358 -4.63492e-08 0)
(-20.0356 -4.53618e-08 0)
(-20.0353 -4.44156e-08 0)
(-20.0351 -4.34462e-08 0)
(-20.0348 -4.2492e-08 0)
(-20.0346 -4.16035e-08 0)
(-20.0343 -4.07023e-08 0)
(-20.0341 -3.9799e-08 0)
(-20.0338 -3.89525e-08 0)
(-20.0336 -3.81341e-08 0)
(-20.0333 -3.72939e-08 0)
(-20.0331 -3.6475e-08 0)
(-20.0329 -3.57024e-08 0)
(-20.0326 -3.49376e-08 0)
(-20.0324 -3.41857e-08 0)
(-20.0322 -3.34457e-08 0)
(-20.032 -3.271e-08 0)
(-20.0318 -3.19988e-08 0)
(-20.0315 -3.13209e-08 0)
(-20.0313 -3.06726e-08 0)
(-20.0311 -2.99983e-08 0)
(-20.0309 -2.93287e-08 0)
(-20.0307 -2.87226e-08 0)
(-20.0305 -2.80999e-08 0)
(-20.0303 -2.7476e-08 0)
(-20.0301 -2.68991e-08 0)
(-20.0299 -2.63162e-08 0)
(-20.0297 -2.57467e-08 0)
(-20.0295 -2.52073e-08 0)
(-20.0293 -2.46466e-08 0)
(-20.0291 -2.41086e-08 0)
(-20.0289 -2.36162e-08 0)
(-20.0287 -2.31061e-08 0)
(-20.0286 -2.25842e-08 0)
(-20.0284 -2.20873e-08 0)
(-20.0282 -2.16307e-08 0)
(-20.028 -2.11846e-08 0)
(-20.0278 -2.0712e-08 0)
(-20.0277 -2.02626e-08 0)
(-20.0275 -1.98391e-08 0)
(-20.0273 -1.93968e-08 0)
(-20.0272 -1.89798e-08 0)
(-20.027 -1.85904e-08 0)
(-20.0268 -1.81805e-08 0)
(-20.0267 -1.77839e-08 0)
(-20.0265 -1.74113e-08 0)
(-20.0263 -1.70289e-08 0)
(-20.0262 -1.66557e-08 0)
(-20.026 -1.62983e-08 0)
(-20.0259 -1.59423e-08 0)
(-20.0257 -1.56131e-08 0)
(-20.0256 -1.52969e-08 0)
(-20.0254 -1.49647e-08 0)
(-20.0253 -1.46313e-08 0)
(-20.0251 -1.43059e-08 0)
(-20.025 -1.39972e-08 0)
(-20.0248 -1.37022e-08 0)
(-20.0247 -1.34066e-08 0)
(-20.0246 -1.31218e-08 0)
(-20.0244 -1.28476e-08 0)
(-20.0243 -1.2558e-08 0)
(-20.0241 -1.22875e-08 0)
(-20.024 -1.20418e-08 0)
(-20.0239 -1.17692e-08 0)
(-20.0237 -1.15088e-08 0)
(-20.0236 -1.12773e-08 0)
(-20.0235 -1.1026e-08 0)
(-20.0234 -1.07856e-08 0)
(-20.0232 -1.0569e-08 0)
(-20.0231 -1.03317e-08 0)
(-20.023 -1.0104e-08 0)
(-20.0229 -9.89379e-09 0)
(-20.0227 -9.67099e-09 0)
(-20.0226 -9.47281e-09 0)
(-20.0225 -9.2876e-09 0)
(-20.0224 -9.07269e-09 0)
(-20.0223 -8.87115e-09 0)
(-20.0222 -8.69373e-09 0)
(-20.0221 -8.50256e-09 0)
(-20.0219 -8.31182e-09 0)
(-20.0218 -8.13645e-09 0)
(-20.0217 -7.96742e-09 0)
(-20.0216 -7.79367e-09 0)
(-20.0215 -7.62082e-09 0)
(-20.0214 -7.46204e-09 0)
(-20.0213 -7.30629e-09 0)
(-20.0212 -7.14164e-09 0)
(-20.0211 -6.98565e-09 0)
(-20.021 -6.83879e-09 0)
(-20.0209 -6.68781e-09 0)
(-20.0208 -6.55141e-09 0)
(-20.0207 -6.42265e-09 0)
(-20.0206 -6.27344e-09 0)
(-20.0205 -6.13483e-09 0)
(-20.0204 -6.01101e-09 0)
(-20.0203 -5.88045e-09 0)
(-20.0202 -5.75261e-09 0)
(-20.0201 -5.62352e-09 0)
(-20.02 -5.50797e-09 0)
(-20.02 -5.39383e-09 0)
(-20.0199 -5.27106e-09 0)
(-20.0198 -5.15785e-09 0)
(-20.0197 -5.04716e-09 0)
(-20.0196 -4.94343e-09 0)
(-20.0195 -4.84445e-09 0)
(-20.0194 -4.73171e-09 0)
(-20.0194 -4.62744e-09 0)
(-20.0193 -4.5325e-09 0)
(-20.0192 -4.42934e-09 0)
(-20.0191 -4.33954e-09 0)
(-20.019 -4.25411e-09 0)
(-20.0189 -4.15696e-09 0)
(-20.0189 -4.06499e-09 0)
(-20.0188 -3.9789e-09 0)
(-20.0187 -3.89244e-09 0)
(-20.0186 -3.81014e-09 0)
(-20.0186 -3.72657e-09 0)
(-20.0185 -3.64894e-09 0)
(-20.0184 -3.5754e-09 0)
(-20.0183 -3.49144e-09 0)
(-20.0183 -3.41696e-09 0)
(-20.0182 -3.35099e-09 0)
(-20.0181 -3.27254e-09 0)
(-20.0181 -3.20054e-09 0)
(-20.018 -3.13544e-09 0)
(-20.0179 -3.06431e-09 0)
(-20.0179 -3.00289e-09 0)
(-20.0178 -2.94476e-09 0)
(-20.0177 -2.87468e-09 0)
(-20.0177 -2.81078e-09 0)
(-20.0176 -2.75341e-09 0)
(-20.0175 -2.6909e-09 0)
(-20.0175 -2.63668e-09 0)
(-20.0174 -2.58518e-09 0)
(-20.0174 -2.52366e-09 0)
(-20.0173 -2.46983e-09 0)
(-20.0172 -2.4219e-09 0)
(-20.0172 -2.36525e-09 0)
(-20.0171 -2.31144e-09 0)
(-20.0171 -2.26335e-09 0)
(-20.017 -2.21892e-09 0)
(-20.0169 -2.17336e-09 0)
(-20.0169 -2.12224e-09 0)
(-20.0168 -2.07632e-09 0)
(-20.0168 -2.03483e-09 0)
(-20.0167 -1.98931e-09 0)
(-20.0167 -1.9462e-09 0)
(-20.0166 -1.90627e-09 0)
(-20.0166 -1.86534e-09 0)
(-20.0165 -1.82435e-09 0)
(-20.0165 -1.78671e-09 0)
(-20.0164 -1.75016e-09 0)
(-20.0164 -1.70914e-09 0)
(-20.0163 -1.67345e-09 0)
(-20.0163 -1.64192e-09 0)
(-20.0162 -1.60813e-09 0)
(-20.0162 -1.60124e-09 0)
(-20.0161 -1.29296e-09 0)
(-20.0161 -1.0692e-08 0)
(-20.0154 -1.20894e-08 0)
(-20.0152 -1.8801e-09 0)
(-20.0152 6.85024e-11 0)
(-20.0152 8.21093e-11 0)
(-20.0152 1.82531e-11 0)
(-20.0152 2.43451e-12 0)
(-20.0152 2.59353e-12 0)
(-20.0152 1.03818e-12 0)
(-20.0152 2.583e-13 0)
(-20.0152 2.57675e-12 0)
(-20.0152 6.21784e-13 0)
(-20.0152 -1.14921e-12 0)
(-20.0152 7.40669e-13 0)
(-20.0152 1.32833e-12 0)
(-20.0152 2.41979e-12 0)
(-20.0152 1.24184e-12 0)
(-20.0152 -8.2268e-13 0)
(-20.0152 1.94145e-12 0)
(-20.0152 1.26893e-12 0)
(-20.0152 -8.03622e-13 0)
(-20.0152 1.8155e-12 0)
(-20.0152 4.98431e-13 0)
(-20.0152 -1.11222e-12 0)
(-20.0152 1.05156e-12 0)
(-20.0152 1.45262e-12 0)
(-20.0152 1.91587e-12 0)
(-20.0152 6.18508e-13 0)
(-20.0152 -9.68409e-13 0)
(-20.0152 1.57329e-12 0)
(-20.0152 8.3254e-13 0)
(-20.0152 -1.39993e-12 0)
(-20.0152 1.50436e-12 0)
(-20.0152 1.11449e-12 0)
(-20.0152 -1.31112e-12 0)
(-20.0152 1.37854e-12 0)
(-20.0152 8.92068e-13 0)
(-20.0152 -1.40456e-12 0)
(-20.0152 1.09312e-12 0)
(-20.0152 1.05348e-12 0)
(-20.0152 -5.53098e-13 0)
(-20.0152 3.88387e-13 0)
(-20.0152 9.54009e-13 0)
(-20.0152 4.60903e-13 0)
(-20.0152 9.33912e-13 0)
(-20.0152 -1.00062e-13 0)
(-20.0152 -1.41549e-12 0)
(-20.0152 1.35206e-12 0)
(-20.0152 6.76093e-13 0)
(-20.0152 -1.76272e-12 0)
(-20.0152 8.19137e-13 0)
(-20.0152 1.12066e-12 0)
(-20.0152 -4.18951e-13 0)
(-20.0152 -4.86888e-13 0)
(-20.0152 3.18199e-13 0)
(-20.0152 4.55852e-13 0)
(-20.0152 -2.75551e-13 0)
(-20.0152 -2.04002e-13 0)
(-20.0152 2.84392e-13 0)
(-20.0152 2.00657e-12 0)
(-20.0152 5.81508e-13 0)
(-20.0152 -1.40763e-12 0)
(-20.0152 1.12478e-12 0)
(-20.0152 4.17606e-13 0)
(-20.0152 -1.71882e-12 0)
(-20.0152 1.02631e-12 0)
(-20.0152 7.76145e-13 0)
(-20.0152 -9.08577e-13 0)
(-20.0152 2.5579e-13 0)
(-20.0152 9.69841e-13 0)
(-20.0152 9.41797e-13 0)
(-20.0152 9.01314e-13 0)
(-20.0152 -8.94965e-13 0)
(-20.0152 -1.90408e-12 0)
(-20.0152 1.18754e-12 0)
(-20.0152 5.02131e-13 0)
(-20.0152 -1.96511e-12 0)
(-20.0152 7.85421e-13 0)
(-20.0152 8.79528e-13 0)
(-20.0152 -7.90795e-13 0)
(-20.0152 -5.30215e-13 0)
(-20.0152 2.3588e-13 0)
(-20.0152 3.89082e-13 0)
(-20.0152 -5.61385e-13 0)
(-20.0152 9.63076e-13 0)
(-20.0152 9.24008e-13 0)
(-20.0152 -7.49106e-13 0)
(-20.0152 -7.84798e-13 0)
(-20.0152 3.60547e-13 0)
(-20.0152 4.10361e-13 0)
(-20.0152 -7.25264e-13 0)
(-20.0152 5.20607e-13 0)
(-20.0152 1.11161e-12 0)
(-20.0152 1.22125e-12 0)
(-20.0152 -3.74624e-13 0)
(-20.0152 -1.75043e-12 0)
)
;
    }
    symmetry
    {
        type            symmetryPlane;
    }
    frontAndBack
    {
        type            empty;
    }
}


// ************************************************************************* //
