/*--------------------------------*- C++ -*----------------------------------*\
| =========                 |                                                 |
| \\      /  F ield         | OpenFOAM: The Open Source CFD Toolbox           |
|  \\    /   O peration     | Version:  v2012                                 |
|   \\  /    A nd           | Website:  www.openfoam.com                      |
|    \\/     M anipulation  |                                                 |
\*---------------------------------------------------------------------------*/
FoamFile
{
    version     2.0;
    format      ascii;
    class       volScalarField;
    location    "1.5";
    object      yPlus;
}
// * * * * * * * * * * * * * * * * * * * * * * * * * * * * * * * * * * * * * //

dimensions      [0 0 0 0 0 0 0];


internalField   uniform 0;

boundaryField
{
    inlet
    {
        type            calculated;
        value           uniform 0;
    }
    outlet
    {
        type            calculated;
        value           uniform 0;
    }
    topWall
    {
        type            calculated;
        value           nonuniform List<scalar> 
545
(
0.0247738
0.0434247
0.0556137
0.065211
0.0733004
0.0803618
0.086652
0.0923324
0.0975129
0.102272
0.106671
0.110755
0.11456
0.118118
0.121452
0.124585
0.127534
0.130314
0.132939
0.135421
0.137771
0.139997
0.142109
0.144114
0.146018
0.147829
0.149552
0.151192
0.152753
0.154242
0.15566
0.157013
0.158304
0.159537
0.160713
0.161837
0.16291
0.163937
0.164917
0.165856
0.166752
0.167611
0.168431
0.169217
0.169969
0.170689
0.171377
0.172038
0.172669
0.173274
0.173853
0.174409
0.174939
0.175449
0.175936
0.176404
0.17685
0.17728
0.177689
0.178083
0.178459
0.17882
0.179165
0.179496
0.179812
0.180115
0.180404
0.180682
0.180946
0.181201
0.181442
0.181675
0.181891
0.182098
0.182302
0.182503
0.1827
0.182895
0.183085
0.183274
0.183458
0.183641
0.183819
0.183996
0.184169
0.184339
0.184506
0.184671
0.184832
0.184991
0.185147
0.185301
0.185452
0.1856
0.185744
0.185891
0.186005
0.186104
0.186202
0.186299
0.186396
0.186492
0.186587
0.186681
0.186775
0.186869
0.186961
0.187054
0.187145
0.187236
0.187326
0.187416
0.187505
0.187593
0.18768
0.187767
0.187853
0.187939
0.188023
0.188107
0.18819
0.188272
0.188353
0.188434
0.188513
0.188592
0.18867
0.188746
0.188822
0.188897
0.188971
0.189044
0.189116
0.189186
0.189257
0.189325
0.189393
0.18946
0.189526
0.189591
0.189656
0.189719
0.189781
0.189842
0.189903
0.189962
0.190021
0.190079
0.190136
0.190192
0.190247
0.190302
0.190355
0.190408
0.190459
0.190511
0.190561
0.19061
0.190658
0.190706
0.190752
0.190798
0.190843
0.190887
0.19093
0.190972
0.191013
0.191054
0.191094
0.191133
0.19117
0.191207
0.191243
0.191277
0.191312
0.191345
0.191376
0.191407
0.191437
0.191466
0.19149
0.191519
0.191544
0.191566
0.19159
0.191613
0.191635
0.191655
0.191675
0.191693
0.191708
0.191724
0.19174
0.191755
0.191768
0.19178
0.191791
0.191803
0.19181
0.191819
0.191826
0.19183
0.191833
0.191838
0.19184
0.191843
0.191843
0.191841
0.191838
0.191836
0.191833
0.191828
0.191822
0.191814
0.191804
0.191792
0.191783
0.191772
0.191759
0.191744
0.191729
0.191709
0.191693
0.191672
0.191653
0.191632
0.191609
0.191585
0.19156
0.191534
0.191506
0.191477
0.191445
0.191416
0.191383
0.191349
0.191314
0.191277
0.191239
0.1912
0.191159
0.191117
0.191073
0.191027
0.190981
0.190933
0.190886
0.190837
0.190785
0.190733
0.190677
0.190619
0.190563
0.190506
0.190447
0.190386
0.190322
0.19026
0.190195
0.190129
0.190061
0.189991
0.189922
0.18985
0.189777
0.189703
0.189625
0.189546
0.18947
0.189387
0.189305
0.189223
0.189139
0.189052
0.188964
0.188878
0.188788
0.188698
0.188604
0.18851
0.188416
0.188323
0.188222
0.188123
0.188024
0.187924
0.187819
0.187713
0.18761
0.187503
0.187392
0.18728
0.187169
0.187048
0.186929
0.186808
0.186685
0.186562
0.186434
0.186306
0.186172
0.186037
0.185899
0.185758
0.185616
0.185469
0.185324
0.185176
0.185019
0.184863
0.184703
0.184541
0.184377
0.184209
0.184031
0.183857
0.183681
0.183497
0.183312
0.183118
0.182927
0.182733
0.182528
0.182323
0.182116
0.181904
0.181688
0.181467
0.181245
0.181013
0.180782
0.180544
0.180302
0.18005
0.179798
0.179547
0.179288
0.179022
0.178752
0.178475
0.178189
0.177904
0.17761
0.177311
0.177007
0.176704
0.176386
0.17607
0.175747
0.175417
0.17508
0.174739
0.174387
0.174032
0.173669
0.1733
0.172925
0.172543
0.172152
0.171757
0.17135
0.170942
0.170529
0.170107
0.169679
0.169242
0.168796
0.168348
0.167892
0.167424
0.166952
0.166472
0.165984
0.165486
0.164981
0.164467
0.163945
0.163418
0.162877
0.162334
0.161782
0.161224
0.160655
0.16008
0.159496
0.158902
0.158304
0.157694
0.157077
0.156446
0.155804
0.155153
0.154496
0.153831
0.153158
0.152476
0.151786
0.151087
0.150379
0.149662
0.148938
0.148204
0.147462
0.146712
0.145953
0.14519
0.144409
0.14363
0.142839
0.142036
0.141223
0.140404
0.139575
0.13874
0.137898
0.13705
0.136187
0.135322
0.134443
0.13356
0.13267
0.131774
0.130871
0.129959
0.129042
0.128118
0.127187
0.12625
0.125309
0.124359
0.12341
0.122447
0.121484
0.120517
0.119543
0.118563
0.117578
0.116599
0.115603
0.114612
0.113617
0.112616
0.111607
0.110598
0.109582
0.108566
0.107548
0.10653
0.10551
0.10449
0.103349
0.102116
0.100905
0.0997106
0.0985337
0.0973748
0.0962299
0.095101
0.0939884
0.0928945
0.0918186
0.0907604
0.0897197
0.088696
0.0876903
0.0867012
0.0857295
0.0847757
0.0838369
0.0829162
0.082012
0.0811253
0.0802552
0.0794028
0.0785655
0.0777462
0.0769436
0.0761567
0.0753857
0.0746306
0.073891
0.0731675
0.0724589
0.0717663
0.0710885
0.0704261
0.0697783
0.0691458
0.0685274
0.0679242
0.0673349
0.0667601
0.0661993
0.0656521
0.0651192
0.0645995
0.0640934
0.0636007
0.0631207
0.062654
0.0621996
0.0617575
0.061329
0.0609119
0.060505
0.0601128
0.0597324
0.0593644
0.0590075
0.0586651
0.0583283
0.0580068
0.0576947
0.0573914
0.0570995
0.0568154
0.0565436
0.0562799
0.056027
0.0557842
0.0555516
0.0553283
0.0551149
0.0549105
0.0547156
0.0545297
0.054353
0.0541852
0.0540261
0.0538759
0.0537347
0.0536014
0.0534778
0.053361
0.0532543
0.0531545
0.0530641
0.052982
0.0529084
0.0528429
0.0527851
0.0527353
0.0526916
0.0526608
0.0526213
)
;
    }
    bottomWall
    {
        type            calculated;
        value           nonuniform List<scalar> 
449
(
0.138353
0.0952972
0.0898808
0.0895223
0.0896518
0.0896907
0.0896707
0.0896463
0.0896313
0.0896234
0.0896193
0.0896173
0.0896167
0.0896167
0.0896172
0.0896179
0.0896186
0.0896193
0.0896201
0.0896207
0.0896214
0.0896219
0.0896224
0.0896229
0.0896233
0.0896236
0.0896239
0.0896242
0.0896244
0.0896246
0.0896247
0.0896248
0.0896249
0.089625
0.0896251
0.0896251
0.0896251
0.0896251
0.0896251
0.0896251
0.0896251
0.089625
0.089625
0.0896249
0.0896249
0.0896248
0.0896247
0.0896246
0.0896245
0.0896244
0.0896243
0.0896242
0.0896241
0.089624
0.0896238
0.0896237
0.0896236
0.0896234
0.0896233
0.0896232
0.089623
0.0896229
0.0896228
0.0896226
0.0896225
0.0896223
0.0896222
0.089622
0.0896219
0.0896217
0.0896216
0.0896214
0.0896213
0.0896211
0.089621
0.0896208
0.0896207
0.0896205
0.0896203
0.0896202
0.08962
0.0896199
0.0896197
0.0896196
0.0896194
0.0896192
0.0896191
0.0896189
0.0896188
0.0896186
0.0896184
0.0896183
0.0896181
0.089618
0.0896178
0.0896176
0.0896175
0.0896173
0.0896172
0.089617
0.0896168
0.0896167
0.0896165
0.0896164
0.0896162
0.089616
0.0896159
0.0896157
0.0896156
0.0896154
0.0896153
0.0896151
0.0896149
0.0896148
0.0896146
0.0896145
0.0896143
0.0896142
0.089614
0.0896138
0.0896137
0.0896135
0.0896134
0.0896132
0.0896131
0.0896129
0.0896128
0.0896126
0.0896124
0.0896123
0.0896121
0.089612
0.0896118
0.0896117
0.0896115
0.0896114
0.0896112
0.0896111
0.0896109
0.0896108
0.0896106
0.0896105
0.0896103
0.0896102
0.08961
0.0896099
0.0896097
0.0896096
0.0896094
0.0896093
0.0896091
0.089609
0.0896088
0.0896087
0.0896085
0.0896084
0.0896083
0.0896081
0.089608
0.0896078
0.0896077
0.0896075
0.0896074
0.0896072
0.0896071
0.089607
0.0896068
0.0896067
0.0896065
0.0896064
0.0896063
0.0896063
0.0896059
0.0896085
0.0896104
0.0896113
0.0896113
0.0896108
0.0896103
0.0896097
0.089609
0.0896084
0.0896077
0.089607
0.0896064
0.0896057
0.0896051
0.0896044
0.0896038
0.0896032
0.0896025
0.0896019
0.0896013
0.0896007
0.0896001
0.0895995
0.0895989
0.0895984
0.0895978
0.0895972
0.0895967
0.0895961
0.0895956
0.089595
0.0895945
0.089594
0.0895934
0.0895929
0.0895924
0.0895919
0.0895914
0.0895909
0.0895904
0.0895899
0.0895895
0.089589
0.0895885
0.089588
0.0895876
0.0895871
0.0895867
0.0895862
0.0895858
0.0895854
0.0895849
0.0895845
0.0895841
0.0895837
0.0895833
0.0895829
0.0895825
0.0895821
0.0895817
0.0895813
0.0895809
0.0895805
0.0895801
0.0895798
0.0895794
0.089579
0.0895787
0.0895783
0.089578
0.0895776
0.0895773
0.0895769
0.0895766
0.0895762
0.0895759
0.0895756
0.0895753
0.0895749
0.0895746
0.0895743
0.089574
0.0895737
0.0895734
0.0895731
0.0895728
0.0895725
0.0895722
0.0895719
0.0895716
0.0895714
0.0895711
0.0895708
0.0895705
0.0895703
0.08957
0.0895697
0.0895695
0.0895692
0.089569
0.0895687
0.0895685
0.0895682
0.089568
0.0895677
0.0895675
0.0895673
0.089567
0.0895668
0.0895666
0.0895663
0.0895661
0.0895659
0.0895657
0.0895655
0.0895652
0.089565
0.0895648
0.0895646
0.0895644
0.0895642
0.089564
0.0895638
0.0895636
0.0895634
0.0895632
0.089563
0.0895629
0.0895627
0.0895625
0.0895623
0.0895621
0.0895619
0.0895618
0.0895616
0.0895614
0.0895613
0.0895611
0.0895609
0.0895608
0.0895606
0.0895604
0.0895603
0.0895601
0.08956
0.0895598
0.0895596
0.0895595
0.0895593
0.0895592
0.0895591
0.0895589
0.0895588
0.0895586
0.0895585
0.0895583
0.0895582
0.0895581
0.0895579
0.0895578
0.0895577
0.0895575
0.0895574
0.0895573
0.0895572
0.089557
0.0895569
0.0895568
0.0895567
0.0895566
0.0895564
0.0895563
0.0895562
0.0895561
0.089556
0.0895559
0.0895558
0.0895556
0.0895555
0.0895554
0.0895554
0.0895537
0.0895534
0.0895534
0.0895534
0.0895535
0.0895535
0.0895535
0.0895535
0.0895535
0.0895535
0.0895535
0.0895535
0.0895535
0.0895535
0.0895535
0.0895535
0.0895535
0.0895535
0.0895535
0.0895535
0.0895535
0.0895535
0.0895535
0.0895535
0.0895535
0.0895535
0.0895535
0.0895535
0.0895535
0.0895535
0.0895535
0.0895535
0.0895535
0.0895535
0.0895535
0.0895535
0.0895535
0.0895535
0.0895535
0.0895535
0.0895535
0.0895535
0.0895535
0.0895535
0.0895535
0.0895535
0.0895535
0.0895535
0.0895535
0.0895535
0.0895535
0.0895535
0.0895535
0.0895535
0.0895535
0.0895535
0.0895535
0.0895535
0.0895535
0.0895535
0.0895535
0.0895535
0.0895535
0.0895535
0.0895535
0.0895535
0.0895535
0.0895535
0.0895535
0.0895535
0.0895535
0.0895535
0.0895535
0.0895535
0.0895535
0.0895535
0.0895535
0.0895535
0.0895535
0.0895535
0.0895535
0.0895535
0.0895535
0.0895535
0.0895535
0.0895535
0.0895535
0.0895535
0.0895535
0.0895535
0.0895535
0.0895535
0.0895535
0.0895535
0.0895535
)
;
    }
    symmetry
    {
        type            symmetryPlane;
    }
    frontAndBack
    {
        type            empty;
    }
}


// ************************************************************************* //
