/*--------------------------------*- C++ -*----------------------------------*\
| =========                 |                                                 |
| \\      /  F ield         | OpenFOAM: The Open Source CFD Toolbox           |
|  \\    /   O peration     | Version:  v2012                                 |
|   \\  /    A nd           | Website:  www.openfoam.com                      |
|    \\/     M anipulation  |                                                 |
\*---------------------------------------------------------------------------*/
FoamFile
{
    version     2.0;
    format      ascii;
    class       volScalarField;
    location    "34.5";
    object      k;
}
// * * * * * * * * * * * * * * * * * * * * * * * * * * * * * * * * * * * * * //

dimensions      [0 2 -2 0 0 0 0];


internalField   nonuniform List<scalar> 
209825
(
0.00102471
0.000930846
0.000852677
0.000789836
0.000740119
0.000700901
0.000669496
0.000644105
0.000623119
0.000605671
0.000590836
0.000578228
0.00056726
0.000557795
0.000549395
0.000542068
0.000535462
0.000529658
0.000524351
0.000519666
0.000515323
0.000511482
0.000507876
0.000504681
0.00050165
0.000498968
0.000496399
0.000494123
0.000491922
0.000489987
0.000488087
0.000486423
0.000484775
0.000483344
0.000481911
0.000480678
0.000479422
0.000478349
0.000477244
0.000476308
0.000475333
0.000474518
0.000473656
0.000472946
0.000472178
0.000471558
0.000470876
0.000470332
0.00046973
0.000469257
0.00046872
0.000468311
0.000467841
0.000467482
0.000467062
0.000466752
0.000466392
0.00046612
0.000465796
0.000465575
0.000465288
0.000465092
0.000464851
0.000464695
0.000464463
0.000464336
0.000464136
0.000464033
0.00046385
0.00046376
0.000463591
0.000463519
0.000463396
0.000463358
0.000463278
0.000463285
0.000463273
0.000463332
0.000463332
0.000463427
0.000463454
0.000463574
0.000463637
0.000463798
0.000463888
0.000464092
0.000464205
0.000464461
0.000464599
0.000464935
0.000465084
0.000465619
0.0004657
0.000470571
0.0109674
0.0118203
0.00102471
0.000930847
0.000852677
0.000789836
0.000740117
0.000700898
0.000669491
0.0006441
0.000623112
0.000605663
0.000590827
0.000578218
0.000567249
0.000557783
0.000549383
0.000542055
0.000535449
0.000529644
0.000524337
0.000519651
0.000515308
0.000511467
0.00050786
0.000504665
0.000501634
0.000498952
0.000496382
0.000494105
0.000491905
0.00048997
0.000488069
0.000486405
0.000484757
0.000483326
0.000481892
0.00048066
0.000479404
0.00047833
0.000477225
0.000476289
0.000475314
0.000474499
0.000473636
0.000472927
0.000472159
0.000471539
0.000470857
0.000470312
0.000469711
0.000469237
0.000468701
0.000468291
0.000467821
0.000467462
0.000467042
0.000466732
0.000466372
0.000466099
0.000465776
0.000465555
0.000465268
0.000465071
0.000464831
0.000464675
0.000464443
0.000464316
0.000464116
0.000464013
0.00046383
0.00046374
0.000463571
0.000463499
0.000463375
0.000463338
0.000463257
0.000463264
0.000463252
0.000463312
0.000463311
0.000463406
0.000463433
0.000463553
0.000463616
0.000463777
0.000463866
0.000464071
0.000464184
0.00046444
0.000464578
0.000464914
0.000465062
0.000465598
0.000465678
0.000470557
0.010978
0.0118331
0.00102471
0.000930849
0.000852679
0.000789833
0.000740108
0.000700882
0.000669469
0.000644071
0.000623078
0.000605625
0.000590784
0.000578172
0.0005672
0.000557731
0.000549328
0.000541998
0.00053539
0.000529583
0.000524274
0.000519587
0.000515243
0.0005114
0.000507792
0.000504596
0.000501564
0.000498881
0.00049631
0.000494033
0.000491832
0.000489896
0.000487995
0.000486329
0.000484682
0.000483249
0.000481815
0.000480582
0.000479326
0.000478252
0.000477147
0.00047621
0.000475234
0.000474419
0.000473557
0.000472847
0.000472078
0.000471458
0.000470776
0.000470231
0.000469629
0.000469156
0.000468619
0.000468208
0.000467739
0.00046738
0.00046696
0.000466649
0.000466288
0.000466016
0.000465693
0.000465471
0.000465184
0.000464987
0.000464747
0.00046459
0.000464358
0.000464231
0.000464031
0.000463928
0.000463745
0.000463655
0.000463486
0.000463414
0.00046329
0.000463252
0.000463172
0.000463178
0.000463166
0.000463225
0.000463225
0.000463319
0.000463346
0.000463467
0.000463529
0.00046369
0.000463779
0.000463983
0.000464096
0.000464352
0.00046449
0.000464826
0.000464974
0.000465509
0.000465589
0.000470481
0.0110013
0.0118618
0.00102471
0.000930853
0.000852681
0.000789828
0.000740093
0.000700855
0.000669431
0.000644023
0.000623021
0.00060556
0.000590712
0.000578094
0.000567116
0.000557642
0.000549236
0.000541902
0.00053529
0.000529481
0.000524169
0.000519479
0.000515132
0.000511287
0.000507678
0.00050448
0.000501446
0.000498762
0.00049619
0.000493911
0.000491708
0.000489771
0.000487869
0.000486203
0.000484554
0.000483121
0.000481686
0.000480452
0.000479195
0.000478121
0.000477015
0.000476077
0.000475101
0.000474286
0.000473422
0.000472712
0.000471943
0.000471322
0.000470639
0.000470094
0.000469492
0.000469018
0.000468481
0.00046807
0.0004676
0.000467241
0.00046682
0.00046651
0.000466149
0.000465876
0.000465552
0.00046533
0.000465043
0.000464846
0.000464605
0.000464449
0.000464217
0.000464089
0.000463889
0.000463786
0.000463603
0.000463512
0.000463343
0.000463271
0.000463147
0.000463109
0.000463028
0.000463034
0.000463022
0.00046308
0.00046308
0.000463174
0.0004632
0.00046332
0.000463383
0.000463543
0.000463632
0.000463836
0.000463949
0.000464204
0.000464341
0.000464677
0.000464824
0.000465359
0.000465438
0.000470353
0.011038
0.0119069
0.00102471
0.000930858
0.000852685
0.000789821
0.000740071
0.000700816
0.000669377
0.000643954
0.00062294
0.000605468
0.000590611
0.000577983
0.000566998
0.000557518
0.000549105
0.000541766
0.000535149
0.000529336
0.00052402
0.000519326
0.000514977
0.000511129
0.000507516
0.000504316
0.00050128
0.000498593
0.000496019
0.000493738
0.000491534
0.000489596
0.000487692
0.000486024
0.000484374
0.00048294
0.000481504
0.000480269
0.000479011
0.000477935
0.000476828
0.00047589
0.000474913
0.000474097
0.000473232
0.000472521
0.000471752
0.00047113
0.000470447
0.000469901
0.000469298
0.000468824
0.000468286
0.000467875
0.000467404
0.000467045
0.000466624
0.000466313
0.000465951
0.000465678
0.000465354
0.000465132
0.000464844
0.000464647
0.000464406
0.000464249
0.000464016
0.000463889
0.000463688
0.000463585
0.000463401
0.000463311
0.000463142
0.000463069
0.000462945
0.000462907
0.000462826
0.000462831
0.000462818
0.000462875
0.000462875
0.000462968
0.000462995
0.000463114
0.000463176
0.000463336
0.000463425
0.000463628
0.000463741
0.000463995
0.000464132
0.000464467
0.000464614
0.000465148
0.000465226
0.000470171
0.0110888
0.0119693
0.00102471
0.000930865
0.00085269
0.000789813
0.000740042
0.000700767
0.000669307
0.000643866
0.000622835
0.000605348
0.000590479
0.000577841
0.000566846
0.000557357
0.000548936
0.00054159
0.000534967
0.000529148
0.000523827
0.000519129
0.000514775
0.000510923
0.000507307
0.000504104
0.000501064
0.000498375
0.000495798
0.000493515
0.000491309
0.000489368
0.000487463
0.000485793
0.000484141
0.000482705
0.000481268
0.000480031
0.000478772
0.000477695
0.000476587
0.000475647
0.000474669
0.000473852
0.000472987
0.000472275
0.000471504
0.000470882
0.000470198
0.000469651
0.000469048
0.000468573
0.000468034
0.000467622
0.000467151
0.000466791
0.000466369
0.000466058
0.000465695
0.000465422
0.000465097
0.000464875
0.000464586
0.000464389
0.000464147
0.00046399
0.000463757
0.000463629
0.000463428
0.000463324
0.000463141
0.00046305
0.00046288
0.000462807
0.000462683
0.000462644
0.000462563
0.000462567
0.000462553
0.00046261
0.00046261
0.000462702
0.000462728
0.000462847
0.000462908
0.000463068
0.000463156
0.000463358
0.000463471
0.000463724
0.000463861
0.000464195
0.000464341
0.000464875
0.000464951
0.000469936
0.0111547
0.01205
0.00102471
0.000930873
0.000852695
0.000789802
0.000740007
0.000700706
0.000669221
0.000643757
0.000622706
0.000605202
0.000590317
0.000577665
0.000566658
0.000557158
0.000548728
0.000541373
0.000534743
0.000528917
0.000523589
0.000518885
0.000514526
0.00051067
0.000507049
0.000503842
0.000500799
0.000498106
0.000495526
0.00049324
0.000491031
0.000489088
0.00048718
0.000485508
0.000483854
0.000482416
0.000480977
0.000479739
0.000478477
0.000477399
0.000476289
0.000475349
0.000474369
0.00047355
0.000472684
0.000471971
0.000471199
0.000470576
0.000469891
0.000469343
0.000468739
0.000468263
0.000467723
0.000467311
0.000466839
0.000466478
0.000466055
0.000465743
0.00046538
0.000465106
0.000464781
0.000464558
0.000464269
0.000464071
0.000463828
0.000463671
0.000463438
0.000463309
0.000463108
0.000463004
0.000462819
0.000462728
0.000462558
0.000462485
0.00046236
0.000462321
0.000462239
0.000462243
0.000462228
0.000462282
0.000462282
0.000462374
0.000462399
0.000462518
0.000462578
0.000462737
0.000462825
0.000463026
0.000463138
0.000463391
0.000463527
0.00046386
0.000464005
0.000464538
0.000464612
0.000469645
0.0112362
0.0121498
0.00102471
0.000930883
0.000852702
0.000789789
0.000739966
0.000700633
0.000669119
0.000643628
0.000622553
0.000605028
0.000590124
0.000577456
0.000566434
0.000556922
0.00054848
0.000541116
0.000534476
0.000528641
0.000523306
0.000518596
0.00051423
0.000510368
0.000506742
0.00050353
0.000500483
0.000497786
0.000495202
0.000492913
0.0004907
0.000488754
0.000486843
0.000485169
0.000483512
0.000482072
0.00048063
0.00047939
0.000478127
0.000477046
0.000475935
0.000474992
0.000474011
0.000473191
0.000472323
0.000471609
0.000470835
0.000470211
0.000469525
0.000468976
0.00046837
0.000467894
0.000467353
0.00046694
0.000466466
0.000466105
0.000465681
0.000465368
0.000465005
0.00046473
0.000464404
0.00046418
0.000463891
0.000463692
0.000463448
0.000463291
0.000463057
0.000462928
0.000462726
0.000462621
0.000462437
0.000462345
0.000462175
0.000462101
0.000461975
0.000461936
0.000461854
0.000461856
0.000461839
0.000461893
0.000461892
0.000461983
0.000462007
0.000462125
0.000462185
0.000462343
0.00046243
0.00046263
0.000462741
0.000462993
0.000463129
0.00046346
0.000463605
0.000464136
0.000464208
0.0004693
0.0113341
0.0122697
0.00102471
0.000930895
0.00085271
0.000789775
0.000739919
0.00070055
0.000669
0.000643479
0.000622376
0.000604826
0.0005899
0.000577213
0.000566175
0.000556647
0.000548192
0.000540816
0.000534165
0.000528321
0.000522978
0.000518259
0.000513886
0.000510018
0.000506386
0.000503168
0.000500115
0.000497414
0.000494825
0.000492532
0.000490316
0.000488366
0.000486451
0.000484774
0.000483114
0.000481671
0.000480227
0.000478984
0.000477718
0.000476636
0.000475522
0.000474578
0.000473595
0.000472773
0.000471903
0.000471187
0.000470412
0.000469787
0.000469099
0.000468549
0.000467942
0.000467464
0.000466922
0.000466508
0.000466033
0.000465671
0.000465246
0.000464933
0.000464568
0.000464293
0.000463965
0.000463741
0.00046345
0.000463251
0.000463007
0.000462848
0.000462614
0.000462484
0.000462281
0.000462176
0.000461991
0.000461899
0.000461728
0.000461654
0.000461528
0.000461488
0.000461405
0.000461405
0.000461388
0.000461439
0.000461439
0.000461529
0.000461552
0.000461669
0.000461727
0.000461884
0.00046197
0.00046217
0.00046228
0.000462531
0.000462665
0.000462995
0.000463139
0.000463669
0.000463738
0.000468899
0.0114488
0.0124104
0.00102471
0.000930908
0.00085272
0.000789759
0.000739865
0.000700455
0.000668866
0.000643309
0.000622174
0.000604595
0.000589645
0.000576936
0.000565879
0.000556334
0.000547864
0.000540474
0.000533811
0.000527956
0.000522602
0.000517874
0.000513494
0.000509617
0.000505978
0.000502754
0.000499696
0.000496988
0.000494395
0.000492097
0.000489876
0.000487922
0.000486004
0.000484323
0.00048266
0.000481214
0.000479766
0.000478521
0.000477252
0.000476167
0.000475051
0.000474105
0.000473119
0.000472295
0.000471423
0.000470706
0.000469929
0.000469302
0.000468612
0.000468061
0.000467452
0.000466973
0.00046643
0.000466014
0.000465538
0.000465175
0.000464749
0.000464434
0.000464068
0.000463792
0.000463464
0.000463239
0.000462947
0.000462747
0.000462501
0.000462343
0.000462107
0.000461977
0.000461773
0.000461668
0.000461482
0.000461389
0.000461218
0.000461143
0.000461016
0.000460975
0.000460892
0.000460891
0.000460871
0.000460921
0.00046092
0.000461009
0.000461031
0.000461147
0.000461205
0.00046136
0.000461445
0.000461643
0.000461753
0.000462002
0.000462135
0.000462464
0.000462606
0.000463134
0.000463201
0.000468442
0.0115809
0.0125727
0.00102471
0.000930923
0.000852731
0.000789742
0.000739805
0.000700349
0.000668716
0.000643118
0.000621947
0.000604337
0.000589359
0.000576625
0.000565546
0.000555982
0.000547495
0.000540089
0.000533413
0.000527545
0.00052218
0.000517442
0.000513051
0.000509167
0.00050552
0.000502288
0.000499223
0.00049651
0.000493911
0.000491607
0.000489381
0.000487423
0.0004855
0.000483815
0.000482148
0.000480698
0.000479247
0.000477998
0.000476727
0.000475639
0.00047452
0.000473571
0.000472583
0.000471757
0.000470883
0.000470164
0.000469385
0.000468756
0.000468064
0.000467512
0.000466901
0.00046642
0.000465875
0.000465458
0.000464981
0.000464616
0.000464189
0.000463873
0.000463506
0.000463229
0.000462899
0.000462673
0.00046238
0.000462179
0.000461932
0.000461773
0.000461536
0.000461405
0.000461201
0.000461094
0.000460908
0.000460815
0.000460643
0.000460567
0.00046044
0.000460398
0.000460314
0.000460311
0.00046029
0.000460337
0.000460336
0.000460423
0.000460444
0.000460559
0.000460615
0.000460769
0.000460854
0.00046105
0.000461159
0.000461406
0.000461539
0.000461865
0.000462006
0.000462532
0.000462596
0.000467928
0.0117305
0.0127575
0.00102471
0.000930939
0.000852743
0.000789723
0.000739739
0.000700232
0.00066855
0.000642906
0.000621696
0.00060405
0.000589041
0.00057628
0.000565176
0.000555591
0.000547084
0.000539662
0.000532969
0.000527088
0.00052171
0.00051696
0.000512559
0.000508665
0.000505009
0.00050177
0.000498697
0.000495977
0.000493371
0.000491062
0.00048883
0.000486866
0.000484939
0.000483249
0.000481578
0.000480124
0.000478669
0.000477417
0.000476142
0.000475051
0.000473929
0.000472977
0.000471986
0.000471158
0.000470281
0.000469559
0.000468778
0.000468147
0.000467453
0.000466899
0.000466286
0.000465804
0.000465257
0.000464839
0.00046436
0.000463993
0.000463565
0.000463248
0.000462879
0.000462601
0.000462269
0.000462042
0.000461748
0.000461547
0.000461298
0.000461138
0.0004609
0.000460768
0.000460563
0.000460456
0.000460269
0.000460175
0.000460002
0.000459926
0.000459797
0.000459754
0.00045967
0.000459666
0.000459641
0.000459687
0.000459685
0.00045977
0.00045979
0.000459903
0.000459959
0.000460111
0.000460194
0.000460389
0.000460497
0.000460742
0.000460873
0.000461198
0.000461337
0.000461861
0.000461921
0.000467356
0.0118977
0.0129654
0.00102471
0.000930957
0.000852757
0.000789702
0.000739668
0.000700104
0.000668367
0.000642674
0.000621419
0.000603734
0.000588691
0.0005759
0.000564769
0.00055516
0.000546632
0.00053919
0.000532481
0.000526584
0.000521192
0.00051643
0.000512017
0.000508112
0.000504446
0.000501198
0.000498117
0.000495389
0.000492776
0.00049046
0.000488222
0.000486252
0.000484319
0.000482625
0.000480948
0.000479491
0.000478031
0.000476775
0.000475496
0.000474402
0.000473276
0.000472322
0.000471327
0.000470496
0.000469616
0.000468892
0.000468109
0.000467475
0.000466779
0.000466223
0.000465608
0.000465124
0.000464575
0.000464155
0.000463674
0.000463306
0.000462876
0.000462557
0.000462186
0.000461907
0.000461574
0.000461346
0.000461051
0.000460848
0.000460598
0.000460437
0.000460198
0.000460065
0.000459859
0.000459751
0.000459563
0.000459468
0.000459295
0.000459217
0.000459088
0.000459044
0.000458959
0.000458952
0.000458926
0.000458968
0.000458966
0.000459049
0.000459067
0.000459179
0.000459233
0.000459384
0.000459466
0.000459659
0.000459765
0.000460009
0.000460139
0.000460461
0.000460599
0.000461121
0.000461177
0.000466726
0.0120824
0.0131971
0.00102471
0.000930977
0.000852772
0.000789681
0.000739591
0.000699966
0.000668169
0.000642421
0.000621118
0.00060339
0.000588309
0.000575484
0.000564324
0.000554689
0.000546138
0.000538675
0.000531947
0.000526032
0.000520625
0.000515849
0.000511423
0.000507506
0.00050383
0.000500572
0.000497481
0.000494745
0.000492124
0.000489801
0.000487556
0.00048558
0.000483641
0.000481941
0.000480259
0.000478797
0.000477332
0.000476072
0.000474789
0.000473691
0.000472561
0.000471603
0.000470606
0.000469772
0.000468889
0.000468162
0.000467375
0.000466739
0.000466041
0.000465482
0.000464865
0.000464379
0.000463827
0.000463405
0.000462922
0.000462553
0.000462121
0.0004618
0.000461428
0.000461148
0.000460813
0.000460583
0.000460286
0.000460082
0.000459831
0.000459669
0.000459429
0.000459295
0.000459087
0.000458978
0.000458789
0.000458693
0.00045852
0.000458441
0.000458311
0.000458265
0.00045818
0.000458171
0.000458141
0.000458182
0.000458178
0.00045826
0.000458276
0.000458386
0.000458439
0.000458588
0.000458668
0.000458859
0.000458964
0.000459205
0.000459334
0.000459654
0.000459789
0.000460309
0.000460361
0.000466037
0.0122841
0.0134533
0.00102471
0.000930998
0.000852789
0.000789659
0.000739508
0.000699816
0.000667955
0.000642148
0.000620792
0.000603017
0.000587895
0.000575034
0.000563841
0.000554177
0.000545601
0.000538115
0.000531366
0.000525433
0.000520009
0.000515218
0.000510778
0.000506848
0.00050316
0.000499891
0.000496791
0.000494045
0.000491416
0.000489085
0.000486832
0.000484849
0.000482904
0.000481198
0.00047951
0.000478042
0.000476572
0.000475307
0.000474019
0.000472917
0.000471784
0.000470822
0.00046982
0.000468983
0.000468097
0.000467367
0.000466577
0.000465939
0.000465237
0.000464676
0.000464056
0.000463568
0.000463014
0.00046259
0.000462104
0.000461733
0.000461299
0.000460977
0.000460602
0.000460321
0.000459984
0.000459753
0.000459454
0.000459249
0.000458996
0.000458833
0.000458591
0.000458456
0.000458247
0.000458137
0.000457947
0.00045785
0.000457676
0.000457596
0.000457464
0.000457418
0.000457331
0.000457321
0.000457288
0.000457325
0.000457321
0.0004574
0.000457415
0.000457523
0.000457574
0.000457721
0.0004578
0.000457988
0.000458092
0.00045833
0.000458458
0.000458775
0.000458909
0.000459425
0.000459473
0.000465288
0.012502
0.0137344
0.00102471
0.000931021
0.000852808
0.000789635
0.00073942
0.000699656
0.000667725
0.000641854
0.000620441
0.000602616
0.000587448
0.000574548
0.00056332
0.000553625
0.000545021
0.000537511
0.000530739
0.000524787
0.000519344
0.000514536
0.000510081
0.000506137
0.000502436
0.000499156
0.000496044
0.000493288
0.000490649
0.00048831
0.000486049
0.000484059
0.000482106
0.000480394
0.000478699
0.000477226
0.00047575
0.00047448
0.000473187
0.000472081
0.000470942
0.000469977
0.000468971
0.00046813
0.00046724
0.000466507
0.000465713
0.000465072
0.000464367
0.000463804
0.000463181
0.00046269
0.000462134
0.000461707
0.000461219
0.000460846
0.00046041
0.000460086
0.000459709
0.000459426
0.000459087
0.000458854
0.000458554
0.000458347
0.000458092
0.000457928
0.000457685
0.000457548
0.000457338
0.000457226
0.000457035
0.000456938
0.000456762
0.000456681
0.000456549
0.000456501
0.000456413
0.0004564
0.000456364
0.000456399
0.000456393
0.000456469
0.000456482
0.000456589
0.000456638
0.000456782
0.00045686
0.000457046
0.000457148
0.000457384
0.000457509
0.000457823
0.000457955
0.000458469
0.000458512
0.000464478
0.0127352
0.014041
0.0010247
0.000931045
0.000852829
0.000789611
0.000739327
0.000699486
0.00066748
0.00064154
0.000620065
0.000602185
0.00058697
0.000574027
0.000562762
0.000553033
0.000544399
0.000536861
0.000530066
0.000524091
0.000518629
0.000513802
0.000509331
0.000505372
0.000501658
0.000498364
0.000495241
0.000492474
0.000489825
0.000487476
0.000485206
0.000483208
0.000481248
0.000479528
0.000477827
0.000476347
0.000474865
0.00047359
0.000472291
0.00047118
0.000470036
0.000469067
0.000468056
0.000467212
0.000466317
0.000465581
0.000464784
0.000464139
0.000463431
0.000462865
0.000462238
0.000461745
0.000461186
0.000460757
0.000460266
0.000459891
0.000459452
0.000459126
0.000458747
0.000458462
0.000458121
0.000457886
0.000457584
0.000457376
0.000457118
0.000456953
0.000456708
0.00045657
0.000456358
0.000456246
0.000456053
0.000455955
0.000455778
0.000455696
0.000455562
0.000455512
0.000455423
0.000455409
0.000455369
0.000455401
0.000455393
0.000455467
0.000455478
0.000455583
0.000455629
0.000455771
0.000455847
0.000456031
0.000456131
0.000456364
0.000456488
0.000456799
0.000456928
0.000457439
0.000457478
0.000463606
0.012982
0.0143732
0.0010247
0.000931071
0.000852851
0.000789587
0.000739229
0.000699306
0.000667219
0.000641206
0.000619664
0.000601726
0.000586459
0.00057347
0.000562164
0.0005524
0.000543733
0.000536167
0.000529345
0.000523347
0.000517863
0.000513018
0.000508528
0.000504554
0.000500824
0.000497517
0.00049438
0.000491602
0.000488942
0.000486583
0.000484304
0.000482297
0.000480328
0.000478601
0.000476892
0.000475406
0.000473917
0.000472635
0.000471331
0.000470214
0.000469066
0.000468091
0.000467076
0.000466227
0.000465328
0.000464588
0.000463787
0.000463139
0.000462427
0.000461858
0.000461228
0.000460732
0.000460169
0.000459738
0.000459245
0.000458867
0.000458425
0.000458097
0.000457715
0.000457429
0.000457085
0.000456849
0.000456544
0.000456335
0.000456074
0.000455908
0.000455661
0.000455522
0.000455308
0.000455194
0.000455001
0.000454901
0.000454723
0.000454639
0.000454504
0.000454453
0.000454362
0.000454345
0.000454303
0.000454331
0.000454322
0.000454392
0.000454401
0.000454504
0.000454548
0.000454687
0.000454762
0.000454942
0.000455041
0.00045527
0.000455393
0.0004557
0.000455827
0.000456334
0.000456368
0.000462671
0.0132407
0.0147312
0.0010247
0.000931099
0.000852876
0.000789562
0.000739126
0.000699116
0.000666944
0.000640851
0.000619239
0.000601238
0.000585916
0.000572878
0.000561529
0.000551725
0.000543024
0.000535427
0.000528578
0.000522554
0.000517047
0.000512181
0.000507672
0.00050368
0.000499934
0.000496613
0.000493463
0.000490672
0.000488
0.000485631
0.00048334
0.000481324
0.000479346
0.000477611
0.000475894
0.0004744
0.000472905
0.000471617
0.000470306
0.000469184
0.000468029
0.00046705
0.000466029
0.000465176
0.000464272
0.000463528
0.000462722
0.000462071
0.000461355
0.000460782
0.000460149
0.00045965
0.000459084
0.00045865
0.000458153
0.000457774
0.000457329
0.000456998
0.000456614
0.000456325
0.000455978
0.00045574
0.000455434
0.000455222
0.00045496
0.000454791
0.000454543
0.000454402
0.000454186
0.000454071
0.000453876
0.000453775
0.000453596
0.000453511
0.000453374
0.000453321
0.000453229
0.00045321
0.000453163
0.000453188
0.000453177
0.000453244
0.000453251
0.000453351
0.000453393
0.000453529
0.000453602
0.000453779
0.000453876
0.000454102
0.000454222
0.000454526
0.00045465
0.000455153
0.000455183
0.000461672
0.0135088
0.0151149
0.0010247
0.000931128
0.000852902
0.000789537
0.000739019
0.000698917
0.000666654
0.000640478
0.00061879
0.000600722
0.000585341
0.000572251
0.000560855
0.00055101
0.000542272
0.000534642
0.000527763
0.000521712
0.000516181
0.000511292
0.000506763
0.000502752
0.000498989
0.000495652
0.000492487
0.000489683
0.000486998
0.000484617
0.000482316
0.00048029
0.000478302
0.000476558
0.000474833
0.000473331
0.000471828
0.000470533
0.000469215
0.000468087
0.000466926
0.000465942
0.000464915
0.000464057
0.000463148
0.0004624
0.00046159
0.000460934
0.000460214
0.000459638
0.000459001
0.000458498
0.000457929
0.000457492
0.000456992
0.000456609
0.000456162
0.000455829
0.000455441
0.00045515
0.000454801
0.00045456
0.000454251
0.000454038
0.000453773
0.000453603
0.000453352
0.00045321
0.000452992
0.000452875
0.000452678
0.000452576
0.000452396
0.000452309
0.000452171
0.000452116
0.000452022
0.000452
0.00045195
0.000451971
0.000451958
0.000452021
0.000452026
0.000452124
0.000452163
0.000452297
0.000452367
0.000452541
0.000452636
0.000452858
0.000452976
0.000453276
0.000453398
0.000453897
0.000453921
0.000460607
0.0137836
0.0155238
0.0010247
0.000931159
0.000852931
0.000789512
0.000738908
0.000698708
0.000666349
0.000640084
0.000618317
0.000600178
0.000584734
0.000571588
0.000560143
0.000550254
0.000541477
0.000533811
0.0005269
0.000520821
0.000515263
0.000510351
0.0005058
0.000501769
0.000497988
0.000494634
0.000491453
0.000488635
0.000485937
0.000483543
0.00048123
0.000479194
0.000477195
0.000475442
0.000473708
0.000472198
0.000470686
0.000469384
0.000468059
0.000466924
0.000465757
0.000464766
0.000463734
0.000462871
0.000461956
0.000461203
0.000460388
0.000459729
0.000459004
0.000458424
0.000457782
0.000457277
0.000456703
0.000456263
0.000455759
0.000455374
0.000454923
0.000454587
0.000454197
0.000453903
0.000453551
0.000453308
0.000452997
0.000452782
0.000452513
0.000452342
0.000452089
0.000451945
0.000451725
0.000451606
0.000451408
0.000451304
0.000451122
0.000451034
0.000450894
0.000450837
0.000450741
0.000450717
0.000450663
0.000450681
0.000450665
0.000450724
0.000450727
0.000450821
0.000450857
0.000450989
0.000451056
0.000451227
0.000451319
0.000451538
0.000451654
0.00045195
0.000452068
0.000452563
0.000452583
0.000459475
0.0140615
0.0159573
0.0010247
0.000931191
0.000852962
0.000789488
0.000738794
0.000698491
0.000666031
0.000639672
0.00061782
0.000599606
0.000584095
0.00057089
0.000559393
0.000549457
0.000540638
0.000532935
0.00052599
0.00051988
0.000514295
0.000509357
0.000504783
0.000500731
0.00049693
0.000493558
0.000490361
0.000487527
0.000484815
0.000482408
0.000480083
0.000478034
0.000476025
0.000474262
0.000472518
0.000470999
0.000469479
0.000468169
0.000466836
0.000465694
0.00046452
0.000463523
0.000462485
0.000461616
0.000460696
0.000459938
0.000459117
0.000458453
0.000457724
0.00045714
0.000456494
0.000455985
0.000455407
0.000454963
0.000454456
0.000454068
0.000453613
0.000453274
0.00045288
0.000452585
0.000452229
0.000451984
0.000451669
0.000451452
0.000451181
0.000451007
0.000450752
0.000450606
0.000450384
0.000450263
0.000450063
0.000449958
0.000449775
0.000449684
0.000449542
0.000449483
0.000449385
0.000449359
0.000449302
0.000449315
0.000449297
0.000449351
0.000449352
0.000449443
0.000449476
0.000449604
0.000449669
0.000449836
0.000449926
0.000450141
0.000450255
0.000450546
0.000450661
0.000451151
0.000451166
0.000458275
0.0143387
0.0164141
0.00102469
0.000931225
0.000852996
0.000789464
0.000738676
0.000698265
0.000665699
0.000639241
0.0006173
0.000599007
0.000583425
0.000570158
0.000558604
0.00054862
0.000539756
0.000532013
0.000525032
0.00051889
0.000513275
0.00050831
0.000503712
0.000499638
0.000495816
0.000492425
0.00048921
0.00048636
0.000483632
0.000481212
0.000478873
0.000476813
0.000474792
0.000473018
0.000471263
0.000469735
0.000468205
0.000466887
0.000465546
0.000464397
0.000463215
0.000462212
0.000461167
0.000460292
0.000459366
0.000458603
0.000457777
0.000457108
0.000456373
0.000455785
0.000455134
0.000454621
0.000454039
0.000453592
0.00045308
0.000452689
0.00045223
0.000451889
0.000451491
0.000451193
0.000450834
0.000450586
0.000450268
0.000450049
0.000449774
0.000449599
0.000449341
0.000449193
0.000448968
0.000448846
0.000448644
0.000448537
0.000448352
0.00044826
0.000448116
0.000448055
0.000447954
0.000447926
0.000447865
0.000447874
0.000447852
0.000447901
0.000447901
0.000447988
0.000448018
0.000448143
0.000448205
0.000448368
0.000448456
0.000448667
0.000448778
0.000449065
0.000449176
0.000449661
0.000449672
0.000457004
0.0146108
0.0168925
0.00102469
0.00093126
0.000853031
0.000789441
0.000738554
0.000698032
0.000665354
0.000638791
0.000616757
0.00059838
0.000582724
0.00056939
0.000557778
0.000547741
0.000538831
0.000531046
0.000524027
0.000517851
0.000512204
0.000507211
0.000502587
0.000498489
0.000494645
0.000491234
0.000488
0.000485133
0.000482389
0.000479954
0.000477601
0.000475528
0.000473494
0.00047171
0.000469944
0.000468406
0.000466866
0.000465539
0.000464189
0.000463032
0.000461843
0.000460833
0.00045978
0.000458899
0.000457966
0.000457197
0.000456366
0.000455692
0.000454952
0.000454359
0.000453703
0.000453186
0.000452599
0.000452148
0.000451632
0.000451237
0.000450775
0.00045043
0.000450028
0.000449727
0.000449365
0.000449114
0.000448793
0.000448571
0.000448293
0.000448116
0.000447856
0.000447705
0.000447478
0.000447354
0.000447149
0.00044704
0.000446854
0.00044676
0.000446614
0.00044655
0.000446448
0.000446417
0.000446352
0.000446357
0.000446332
0.000446376
0.000446373
0.000446457
0.000446483
0.000446604
0.000446663
0.000446823
0.000446908
0.000447114
0.000447222
0.000447505
0.000447613
0.000448091
0.000448098
0.00045566
0.0148727
0.01739
0.00102469
0.000931296
0.00085307
0.000789419
0.000738431
0.000697791
0.000664996
0.000638324
0.000616191
0.000597726
0.000581992
0.000568589
0.000556915
0.000546823
0.000537863
0.000530034
0.000522975
0.000516762
0.000511082
0.000506059
0.000501407
0.000497284
0.000493417
0.000489985
0.000486731
0.000483846
0.000481085
0.000478634
0.000476266
0.000474179
0.000472133
0.000470336
0.000468559
0.000467011
0.00046546
0.000464124
0.000462765
0.0004616
0.000460402
0.000459384
0.000458324
0.000457437
0.000456497
0.000455722
0.000454884
0.000454205
0.000453459
0.000452861
0.0004522
0.000451678
0.000451087
0.000450632
0.000450111
0.000449712
0.000449246
0.000448898
0.000448492
0.000448188
0.000447822
0.000447568
0.000447244
0.000447019
0.000446738
0.000446558
0.000446295
0.000446142
0.000445912
0.000445786
0.000445579
0.000445468
0.00044528
0.000445184
0.000445036
0.00044497
0.000444864
0.000444831
0.000444763
0.000444763
0.000444734
0.000444773
0.000444768
0.000444848
0.00044487
0.000444987
0.000445043
0.000445199
0.000445281
0.000445483
0.000445588
0.000445865
0.00044597
0.000446442
0.000446444
0.000454242
0.015119
0.0179037
0.00102468
0.000931334
0.00085311
0.000789398
0.000738305
0.000697543
0.000664626
0.00063784
0.000615604
0.000597046
0.000581229
0.000567754
0.000556014
0.000545864
0.000536852
0.000528976
0.000521875
0.000515624
0.000509909
0.000504855
0.000500174
0.000496024
0.000492133
0.000488678
0.000485404
0.000482499
0.00047972
0.000477253
0.000474869
0.000472767
0.000470707
0.000468898
0.000467108
0.000465549
0.000463988
0.000462642
0.000461272
0.000460099
0.000458892
0.000457867
0.000456798
0.000455904
0.000454957
0.000454176
0.000453331
0.000452646
0.000451895
0.000451292
0.000450625
0.000450098
0.000449502
0.000449042
0.000448516
0.000448114
0.000447643
0.000447291
0.000446881
0.000446574
0.000446204
0.000445947