/*--------------------------------*- C++ -*----------------------------------*\
| =========                 |                                                 |
| \\      /  F ield         | OpenFOAM: The Open Source CFD Toolbox           |
|  \\    /   O peration     | Version:  v2012                                 |
|   \\  /    A nd           | Website:  www.openfoam.com                      |
|    \\/     M anipulation  |                                                 |
\*---------------------------------------------------------------------------*/
FoamFile
{
    version     2.0;
    format      ascii;
    class       volVectorField;
    location    "34.5";
    object      wallShearStress;
}
// * * * * * * * * * * * * * * * * * * * * * * * * * * * * * * * * * * * * * //

dimensions      [0 2 -2 0 0 0 0];


internalField   uniform (0 0 0);

boundaryField
{
    inlet
    {
        type            calculated;
        value           uniform (0 0 0);
    }
    outlet
    {
        type            calculated;
        value           uniform (0 0 0);
    }
    topWall
    {
        type            calculated;
        value           nonuniform List<vector> 
545
(
(6.40481e-08 -4.5076e-08 0)
(6.40441e-08 -1.26148e-07 0)
(6.39872e-08 -2.10421e-07 0)
(6.39167e-08 -2.92231e-07 0)
(6.38371e-08 -3.70536e-07 0)
(6.3744e-08 -4.46343e-07 0)
(6.36384e-08 -5.20296e-07 0)
(6.35208e-08 -5.92361e-07 0)
(6.33924e-08 -6.62379e-07 0)
(6.3254e-08 -7.30347e-07 0)
(6.31066e-08 -7.96355e-07 0)
(6.29512e-08 -8.60479e-07 0)
(6.27884e-08 -9.22762e-07 0)
(6.26191e-08 -9.83243e-07 0)
(6.24441e-08 -1.04196e-06 0)
(6.2264e-08 -1.09897e-06 0)
(6.20793e-08 -1.15431e-06 0)
(6.18909e-08 -1.20804e-06 0)
(6.16991e-08 -1.26018e-06 0)
(6.15045e-08 -1.31079e-06 0)
(6.13076e-08 -1.35991e-06 0)
(6.11089e-08 -1.40758e-06 0)
(6.09088e-08 -1.45384e-06 0)
(6.07076e-08 -1.49873e-06 0)
(6.05057e-08 -1.5423e-06 0)
(6.03035e-08 -1.58457e-06 0)
(6.01013e-08 -1.62559e-06 0)
(5.98993e-08 -1.6654e-06 0)
(5.96979e-08 -1.70403e-06 0)
(5.94972e-08 -1.74151e-06 0)
(5.92975e-08 -1.77788e-06 0)
(5.9099e-08 -1.81317e-06 0)
(5.89019e-08 -1.84741e-06 0)
(5.87063e-08 -1.88065e-06 0)
(5.85124e-08 -1.91289e-06 0)
(5.83204e-08 -1.94419e-06 0)
(5.81304e-08 -1.97456e-06 0)
(5.79424e-08 -2.00403e-06 0)
(5.77566e-08 -2.03264e-06 0)
(5.75731e-08 -2.0604e-06 0)
(5.73919e-08 -2.08734e-06 0)
(5.72131e-08 -2.11349e-06 0)
(5.70369e-08 -2.13887e-06 0)
(5.68631e-08 -2.16351e-06 0)
(5.6692e-08 -2.18742e-06 0)
(5.65234e-08 -2.21064e-06 0)
(5.63575e-08 -2.23317e-06 0)
(5.61942e-08 -2.25505e-06 0)
(5.60336e-08 -2.27629e-06 0)
(5.58757e-08 -2.29691e-06 0)
(5.57205e-08 -2.31693e-06 0)
(5.5568e-08 -2.33637e-06 0)
(5.54182e-08 -2.35524e-06 0)
(5.5271e-08 -2.37357e-06 0)
(5.51266e-08 -2.39137e-06 0)
(5.49848e-08 -2.40865e-06 0)
(5.48456e-08 -2.42544e-06 0)
(5.4709e-08 -2.44174e-06 0)
(5.4575e-08 -2.45757e-06 0)
(5.44437e-08 -2.47295e-06 0)
(5.43148e-08 -2.48788e-06 0)
(5.41885e-08 -2.50239e-06 0)
(5.40646e-08 -2.51648e-06 0)
(5.39432e-08 -2.53017e-06 0)
(5.38242e-08 -2.54347e-06 0)
(5.37076e-08 -2.55639e-06 0)
(5.35933e-08 -2.56895e-06 0)
(5.34813e-08 -2.58114e-06 0)
(5.33716e-08 -2.59299e-06 0)
(5.32641e-08 -2.6045e-06 0)
(5.31591e-08 -2.6157e-06 0)
(5.30543e-08 -2.62655e-06 0)
(5.29533e-08 -2.63699e-06 0)
(5.28584e-08 -2.64713e-06 0)
(5.27641e-08 -2.65715e-06 0)
(5.267e-08 -2.66711e-06 0)
(5.25761e-08 -2.67702e-06 0)
(5.24823e-08 -2.68688e-06 0)
(5.23886e-08 -2.69667e-06 0)
(5.22951e-08 -2.7064e-06 0)
(5.22016e-08 -2.71606e-06 0)
(5.21082e-08 -2.72567e-06 0)
(5.20149e-08 -2.73521e-06 0)
(5.19217e-08 -2.74469e-06 0)
(5.18287e-08 -2.75411e-06 0)
(5.17358e-08 -2.76347e-06 0)
(5.1643e-08 -2.77278e-06 0)
(5.15503e-08 -2.78202e-06 0)
(5.14577e-08 -2.7912e-06 0)
(5.13653e-08 -2.80033e-06 0)
(5.1273e-08 -2.8094e-06 0)
(5.11809e-08 -2.81841e-06 0)
(5.1089e-08 -2.82737e-06 0)
(5.09963e-08 -2.83624e-06 0)
(5.09082e-08 -2.84513e-06 0)
(5.08013e-08 -2.85381e-06 0)
(5.0695e-08 -2.86172e-06 0)
(5.06165e-08 -2.86901e-06 0)
(5.05414e-08 -2.87604e-06 0)
(5.0467e-08 -2.88306e-06 0)
(5.03924e-08 -2.89017e-06 0)
(5.03175e-08 -2.89731e-06 0)
(5.02423e-08 -2.90443e-06 0)
(5.01668e-08 -2.91156e-06 0)
(5.00909e-08 -2.91869e-06 0)
(5.00147e-08 -2.92583e-06 0)
(4.99382e-08 -2.93297e-06 0)
(4.98613e-08 -2.94012e-06 0)
(4.9784e-08 -2.94728e-06 0)
(4.97064e-08 -2.95444e-06 0)
(4.96284e-08 -2.96161e-06 0)
(4.95501e-08 -2.96878e-06 0)
(4.94715e-08 -2.97596e-06 0)
(4.93925e-08 -2.98315e-06 0)
(4.93131e-08 -2.99034e-06 0)
(4.92334e-08 -2.99753e-06 0)
(4.91533e-08 -3.00473e-06 0)
(4.90729e-08 -3.01194e-06 0)
(4.89921e-08 -3.01915e-06 0)
(4.89109e-08 -3.02636e-06 0)
(4.88294e-08 -3.03358e-06 0)
(4.87476e-08 -3.04081e-06 0)
(4.86653e-08 -3.04804e-06 0)
(4.85827e-08 -3.05528e-06 0)
(4.84998e-08 -3.06252e-06 0)
(4.84165e-08 -3.06976e-06 0)
(4.83328e-08 -3.07701e-06 0)
(4.82487e-08 -3.08426e-06 0)
(4.81643e-08 -3.09152e-06 0)
(4.80796e-08 -3.09879e-06 0)
(4.79944e-08 -3.10605e-06 0)
(4.79089e-08 -3.11332e-06 0)
(4.7823e-08 -3.1206e-06 0)
(4.77368e-08 -3.12788e-06 0)
(4.76501e-08 -3.13516e-06 0)
(4.75631e-08 -3.14245e-06 0)
(4.74758e-08 -3.14974e-06 0)
(4.7388e-08 -3.15704e-06 0)
(4.72999e-08 -3.16433e-06 0)
(4.72114e-08 -3.17164e-06 0)
(4.71225e-08 -3.17894e-06 0)
(4.70333e-08 -3.18625e-06 0)
(4.69437e-08 -3.19356e-06 0)
(4.68537e-08 -3.20088e-06 0)
(4.67633e-08 -3.2082e-06 0)
(4.66725e-08 -3.21552e-06 0)
(4.65814e-08 -3.22284e-06 0)
(4.64899e-08 -3.23017e-06 0)
(4.6398e-08 -3.2375e-06 0)
(4.63057e-08 -3.24483e-06 0)
(4.62131e-08 -3.25217e-06 0)
(4.612e-08 -3.25951e-06 0)
(4.60266e-08 -3.26685e-06 0)
(4.59328e-08 -3.27419e-06 0)
(4.58386e-08 -3.28154e-06 0)
(4.5744e-08 -3.28888e-06 0)
(4.56491e-08 -3.29623e-06 0)
(4.55537e-08 -3.30358e-06 0)
(4.5458e-08 -3.31094e-06 0)
(4.53619e-08 -3.31829e-06 0)
(4.52654e-08 -3.32565e-06 0)
(4.51685e-08 -3.33301e-06 0)
(4.50712e-08 -3.34037e-06 0)
(4.49735e-08 -3.34773e-06 0)
(4.48755e-08 -3.35509e-06 0)
(4.4777e-08 -3.36246e-06 0)
(4.46782e-08 -3.36982e-06 0)
(4.4579e-08 -3.37719e-06 0)
(4.44793e-08 -3.38455e-06 0)
(4.43793e-08 -3.39192e-06 0)
(4.42789e-08 -3.39929e-06 0)
(4.41781e-08 -3.40666e-06 0)
(4.4077e-08 -3.41403e-06 0)
(4.39754e-08 -3.4214e-06 0)
(4.38734e-08 -3.42877e-06 0)
(4.37711e-08 -3.43614e-06 0)
(4.36683e-08 -3.44351e-06 0)
(4.35652e-08 -3.45088e-06 0)
(4.34616e-08 -3.45825e-06 0)
(4.33577e-08 -3.46562e-06 0)
(4.32533e-08 -3.47299e-06 0)
(4.31486e-08 -3.48036e-06 0)
(4.30435e-08 -3.48773e-06 0)
(4.2938e-08 -3.4951e-06 0)
(4.28321e-08 -3.50247e-06 0)
(4.27258e-08 -3.50983e-06 0)
(4.26191e-08 -3.5172e-06 0)
(4.2512e-08 -3.52456e-06 0)
(4.24045e-08 -3.53193e-06 0)
(4.22966e-08 -3.53929e-06 0)
(4.21884e-08 -3.54665e-06 0)
(4.20797e-08 -3.55401e-06 0)
(4.19706e-08 -3.56137e-06 0)
(4.18612e-08 -3.56872e-06 0)
(4.17513e-08 -3.57607e-06 0)
(4.16411e-08 -3.58343e-06 0)
(4.15305e-08 -3.59077e-06 0)
(4.14194e-08 -3.59812e-06 0)
(4.1308e-08 -3.60546e-06 0)
(4.11962e-08 -3.61281e-06 0)
(4.1084e-08 -3.62015e-06 0)
(4.09714e-08 -3.62748e-06 0)
(4.08584e-08 -3.63481e-06 0)
(4.0745e-08 -3.64215e-06 0)
(4.06312e-08 -3.64947e-06 0)
(4.0517e-08 -3.6568e-06 0)
(4.04024e-08 -3.66412e-06 0)
(4.02875e-08 -3.67143e-06 0)
(4.01721e-08 -3.67875e-06 0)
(4.00564e-08 -3.68606e-06 0)
(3.99402e-08 -3.69336e-06 0)
(3.98237e-08 -3.70066e-06 0)
(3.97068e-08 -3.70796e-06 0)
(3.95895e-08 -3.71525e-06 0)
(3.94718e-08 -3.72254e-06 0)
(3.93537e-08 -3.72982e-06 0)
(3.92353e-08 -3.7371e-06 0)
(3.91164e-08 -3.74438e-06 0)
(3.89972e-08 -3.75165e-06 0)
(3.88776e-08 -3.75891e-06 0)
(3.87576e-08 -3.76617e-06 0)
(3.86372e-08 -3.77342e-06 0)
(3.85164e-08 -3.78067e-06 0)
(3.83952e-08 -3.78791e-06 0)
(3.82737e-08 -3.79515e-06 0)
(3.81518e-08 -3.80238e-06 0)
(3.80295e-08 -3.8096e-06 0)
(3.79068e-08 -3.81682e-06 0)
(3.77838e-08 -3.82403e-06 0)
(3.76603e-08 -3.83123e-06 0)
(3.75365e-08 -3.83843e-06 0)
(3.74123e-08 -3.84562e-06 0)
(3.72878e-08 -3.85281e-06 0)
(3.71628e-08 -3.85998e-06 0)
(3.70375e-08 -3.86715e-06 0)
(3.69118e-08 -3.87432e-06 0)
(3.67858e-08 -3.88147e-06 0)
(3.66594e-08 -3.88862e-06 0)
(3.65326e-08 -3.89576e-06 0)
(3.64054e-08 -3.90289e-06 0)
(3.62779e-08 -3.91001e-06 0)
(3.615e-08 -3.91713e-06 0)
(3.60218e-08 -3.92423e-06 0)
(3.58932e-08 -3.93133e-06 0)
(3.57642e-08 -3.93842e-06 0)
(3.56349e-08 -3.9455e-06 0)
(3.55052e-08 -3.95257e-06 0)
(3.53751e-08 -3.95963e-06 0)
(3.52447e-08 -3.96668e-06 0)
(3.5114e-08 -3.97373e-06 0)
(3.49829e-08 -3.98076e-06 0)
(3.48514e-08 -3.98778e-06 0)
(3.47196e-08 -3.9948e-06 0)
(3.45875e-08 -4.0018e-06 0)
(3.44549e-08 -4.00879e-06 0)
(3.43221e-08 -4.01577e-06 0)
(3.41889e-08 -4.02275e-06 0)
(3.40554e-08 -4.02971e-06 0)
(3.39215e-08 -4.03666e-06 0)
(3.37873e-08 -4.0436e-06 0)
(3.36528e-08 -4.05052e-06 0)
(3.35179e-08 -4.05744e-06 0)
(3.33827e-08 -4.06434e-06 0)
(3.32472e-08 -4.07124e-06 0)
(3.31113e-08 -4.07812e-06 0)
(3.29753e-08 -4.08499e-06 0)
(3.28383e-08 -4.09183e-06 0)
(3.27042e-08 -4.09873e-06 0)
(3.25593e-08 -4.10548e-06 0)
(3.2412e-08 -4.11187e-06 0)
(3.22835e-08 -4.1181e-06 0)
(3.21611e-08 -4.12419e-06 0)
(3.20375e-08 -4.13028e-06 0)
(3.1913e-08 -4.13647e-06 0)
(3.1787e-08 -4.14273e-06 0)
(3.16597e-08 -4.14902e-06 0)
(3.15309e-08 -4.15534e-06 0)
(3.14007e-08 -4.16171e-06 0)
(3.12691e-08 -4.16812e-06 0)
(3.1136e-08 -4.17457e-06 0)
(3.10015e-08 -4.18107e-06 0)
(3.08655e-08 -4.18761e-06 0)
(3.0728e-08 -4.19419e-06 0)
(3.0589e-08 -4.20081e-06 0)
(3.04485e-08 -4.20747e-06 0)
(3.03065e-08 -4.21417e-06 0)
(3.01629e-08 -4.22092e-06 0)
(3.00178e-08 -4.2277e-06 0)
(2.98712e-08 -4.23453e-06 0)
(2.9723e-08 -4.2414e-06 0)
(2.95732e-08 -4.2483e-06 0)
(2.94218e-08 -4.25525e-06 0)
(2.92689e-08 -4.26223e-06 0)
(2.91143e-08 -4.26926e-06 0)
(2.89581e-08 -4.27632e-06 0)
(2.88003e-08 -4.28342e-06 0)
(2.86408e-08 -4.29056e-06 0)
(2.84797e-08 -4.29773e-06 0)
(2.8317e-08 -4.30494e-06 0)
(2.81525e-08 -4.31219e-06 0)
(2.79864e-08 -4.31947e-06 0)
(2.78186e-08 -4.32679e-06 0)
(2.76491e-08 -4.33415e-06 0)
(2.74779e-08 -4.34154e-06 0)
(2.7305e-08 -4.34896e-06 0)
(2.71303e-08 -4.35641e-06 0)
(2.69539e-08 -4.3639e-06 0)
(2.67758e-08 -4.37142e-06 0)
(2.65959e-08 -4.37897e-06 0)
(2.64142e-08 -4.38655e-06 0)
(2.62308e-08 -4.39416e-06 0)
(2.60456e-08 -4.4018e-06 0)
(2.58587e-08 -4.40946e-06 0)
(2.56699e-08 -4.41716e-06 0)
(2.54794e-08 -4.42488e-06 0)
(2.5287e-08 -4.43263e-06 0)
(2.50929e-08 -4.44039e-06 0)
(2.48969e-08 -4.44819e-06 0)
(2.46992e-08 -4.456e-06 0)
(2.44996e-08 -4.46384e-06 0)
(2.42982e-08 -4.4717e-06 0)
(2.40949e-08 -4.47958e-06 0)
(2.38899e-08 -4.48747e-06 0)
(2.3683e-08 -4.49539e-06 0)
(2.34743e-08 -4.50331e-06 0)
(2.32638e-08 -4.51126e-06 0)
(2.30514e-08 -4.51922e-06 0)
(2.28372e-08 -4.52719e-06 0)
(2.26212e-08 -4.53517e-06 0)
(2.24034e-08 -4.54316e-06 0)
(2.21837e-08 -4.55115e-06 0)
(2.19622e-08 -4.55916e-06 0)
(2.17389e-08 -4.56717e-06 0)
(2.15138e-08 -4.57519e-06 0)
(2.12869e-08 -4.5832e-06 0)
(2.10582e-08 -4.59122e-06 0)
(2.08277e-08 -4.59924e-06 0)
(2.05954e-08 -4.60725e-06 0)
(2.03613e-08 -4.61526e-06 0)
(2.01255e-08 -4.62327e-06 0)
(1.98879e-08 -4.63126e-06 0)
(1.96486e-08 -4.63925e-06 0)
(1.94076e-08 -4.64722e-06 0)
(1.91648e-08 -4.65518e-06 0)
(1.89204e-08 -4.66313e-06 0)
(1.86742e-08 -4.67106e-06 0)
(1.84264e-08 -4.67897e-06 0)
(1.8177e-08 -4.68686e-06 0)
(1.79259e-08 -4.69472e-06 0)
(1.76733e-08 -4.70256e-06 0)
(1.7419e-08 -4.71037e-06 0)
(1.71632e-08 -4.71815e-06 0)
(1.69058e-08 -4.7259e-06 0)
(1.66469e-08 -4.73362e-06 0)
(1.63865e-08 -4.74129e-06 0)
(1.61247e-08 -4.74893e-06 0)
(1.58615e-08 -4.75652e-06 0)
(1.55968e-08 -4.76408e-06 0)
(1.53308e-08 -4.77158e-06 0)
(1.50635e-08 -4.77904e-06 0)
(1.47949e-08 -4.78644e-06 0)
(1.4525e-08 -4.79379e-06 0)
(1.42539e-08 -4.80107e-06 0)
(1.39816e-08 -4.80831e-06 0)
(1.37081e-08 -4.81547e-06 0)
(1.34336e-08 -4.82257e-06 0)
(1.3158e-08 -4.8296e-06 0)
(1.28814e-08 -4.83657e-06 0)
(1.26039e-08 -4.84345e-06 0)
(1.23254e-08 -4.85026e-06 0)
(1.20461e-08 -4.85699e-06 0)
(1.1766e-08 -4.86363e-06 0)
(1.14851e-08 -4.87019e-06 0)
(1.12035e-08 -4.87666e-06 0)
(1.09213e-08 -4.88303e-06 0)
(1.06385e-08 -4.88932e-06 0)
(1.03551e-08 -4.8955e-06 0)
(1.00714e-08 -4.90158e-06 0)
(9.78716e-09 -4.90755e-06 0)
(9.50265e-09 -4.91342e-06 0)
(9.21786e-09 -4.91917e-06 0)
(8.93289e-09 -4.92481e-06 0)
(8.64777e-09 -4.93033e-06 0)
(8.36262e-09 -4.93573e-06 0)
(8.07747e-09 -4.941e-06 0)
(7.79242e-09 -4.94615e-06 0)
(7.50753e-09 -4.95116e-06 0)
(7.22289e-09 -4.95604e-06 0)
(6.93857e-09 -4.96078e-06 0)
(6.65466e-09 -4.96538e-06 0)
(6.37122e-09 -4.96983e-06 0)
(6.08837e-09 -4.97414e-06 0)
(5.80615e-09 -4.97829e-06 0)
(5.52468e-09 -4.9823e-06 0)
(5.24403e-09 -4.98613e-06 0)
(4.96429e-09 -4.98982e-06 0)
(4.68555e-09 -4.99333e-06 0)
(4.4079e-09 -4.99668e-06 0)
(4.13143e-09 -4.99985e-06 0)
(3.85623e-09 -5.00286e-06 0)
(3.58239e-09 -5.00567e-06 0)
(3.31002e-09 -5.00832e-06 0)
(3.03919e-09 -5.01078e-06 0)
(2.77002e-09 -5.01306e-06 0)
(2.50258e-09 -5.01513e-06 0)
(2.23699e-09 -5.01703e-06 0)
(1.97332e-09 -5.01872e-06 0)
(1.7117e-09 -5.02022e-06 0)
(1.4522e-09 -5.02151e-06 0)
(1.19494e-09 -5.02261e-06 0)
(9.40003e-10 -5.02349e-06 0)
(6.87496e-10 -5.02417e-06 0)
(4.37514e-10 -5.02463e-06 0)
(1.9016e-10 -5.02489e-06 0)
(-5.44704e-11 -5.02491e-06 0)
(-2.96277e-10 -5.02473e-06 0)
(-5.35161e-10 -5.02432e-06 0)
(-7.71028e-10 -5.0237e-06 0)
(-1.00378e-09 -5.02284e-06 0)
(-1.23331e-09 -5.02177e-06 0)
(-1.45954e-09 -5.02045e-06 0)
(-1.68237e-09 -5.01892e-06 0)
(-1.90171e-09 -5.01715e-06 0)
(-2.11747e-09 -5.01515e-06 0)
(-2.32955e-09 -5.01291e-06 0)
(-2.53789e-09 -5.01045e-06 0)
(-2.74237e-09 -5.00773e-06 0)
(-2.94295e-09 -5.0048e-06 0)
(-3.13952e-09 -5.00161e-06 0)
(-3.33204e-09 -4.9982e-06 0)
(-3.52039e-09 -4.99453e-06 0)
(-3.70454e-09 -4.99065e-06 0)
(-3.8844e-09 -4.9865e-06 0)
(-4.05992e-09 -4.98214e-06 0)
(-4.23103e-09 -4.97751e-06 0)
(-4.39768e-09 -4.97267e-06 0)
(-4.55979e-09 -4.96757e-06 0)
(-4.71735e-09 -4.96225e-06 0)
(-4.87026e-09 -4.95668e-06 0)
(-5.01851e-09 -4.95089e-06 0)
(-5.16202e-09 -4.94484e-06 0)
(-5.30078e-09 -4.93858e-06 0)
(-5.43469e-09 -4.93207e-06 0)
(-5.56377e-09 -4.92535e-06 0)
(-5.68791e-09 -4.91838e-06 0)
(-5.8071e-09 -4.9112e-06 0)
(-5.92129e-09 -4.90377e-06 0)
(-6.03038e-09 -4.89617e-06 0)
(-6.13503e-09 -4.88822e-06 0)
(-6.2339e-09 -4.88018e-06 0)
(-6.3312e-09 -4.87108e-06 0)
(-6.4324e-09 -4.86068e-06 0)
(-6.53053e-09 -4.8501e-06 0)
(-6.62054e-09 -4.83948e-06 0)
(-6.70276e-09 -4.82866e-06 0)
(-6.77734e-09 -4.81774e-06 0)
(-6.8444e-09 -4.80667e-06 0)
(-6.90426e-09 -4.79553e-06 0)
(-6.95705e-09 -4.78428e-06 0)
(-7.00313e-09 -4.77297e-06 0)
(-7.04264e-09 -4.76157e-06 0)
(-7.07593e-09 -4.75014e-06 0)
(-7.10312e-09 -4.73862e-06 0)
(-7.12454e-09 -4.7271e-06 0)
(-7.1403e-09 -4.71552e-06 0)
(-7.15073e-09 -4.70395e-06 0)
(-7.15592e-09 -4.69234e-06 0)
(-7.15618e-09 -4.68075e-06 0)
(-7.15159e-09 -4.66914e-06 0)
(-7.14244e-09 -4.65757e-06 0)
(-7.12878e-09 -4.64598e-06 0)
(-7.11091e-09 -4.63446e-06 0)
(-7.08887e-09 -4.62293e-06 0)
(-7.06292e-09 -4.61148e-06 0)
(-7.03309e-09 -4.60003e-06 0)
(-6.99964e-09 -4.58868e-06 0)
(-6.96259e-09 -4.57734e-06 0)
(-6.92218e-09 -4.56611e-06 0)
(-6.87841e-09 -4.55491e-06 0)
(-6.83151e-09 -4.54382e-06 0)
(-6.78149e-09 -4.53276e-06 0)
(-6.72856e-09 -4.52183e-06 0)
(-6.67271e-09 -4.51096e-06 0)
(-6.61415e-09 -4.50021e-06 0)
(-6.55286e-09 -4.48952e-06 0)
(-6.48904e-09 -4.47897e-06 0)
(-6.42267e-09 -4.46849e-06 0)
(-6.35394e-09 -4.45815e-06 0)
(-6.28282e-09 -4.44789e-06 0)
(-6.20949e-09 -4.43779e-06 0)
(-6.13391e-09 -4.42777e-06 0)
(-6.05626e-09 -4.41791e-06 0)
(-5.97651e-09 -4.40814e-06 0)
(-5.89481e-09 -4.39854e-06 0)
(-5.81113e-09 -4.38903e-06 0)
(-5.72563e-09 -4.3797e-06 0)
(-5.63825e-09 -4.37048e-06 0)
(-5.54915e-09 -4.36143e-06 0)
(-5.45829e-09 -4.35249e-06 0)
(-5.36579e-09 -4.34374e-06 0)
(-5.27163e-09 -4.3351e-06 0)
(-5.17593e-09 -4.32665e-06 0)
(-5.07865e-09 -4.31832e-06 0)
(-4.97991e-09 -4.31019e-06 0)
(-4.87967e-09 -4.30218e-06 0)
(-4.77804e-09 -4.29437e-06 0)
(-4.67499e-09 -4.28669e-06 0)
(-4.57063e-09 -4.27922e-06 0)
(-4.46491e-09 -4.27188e-06 0)
(-4.35794e-09 -4.26474e-06 0)
(-4.24968e-09 -4.25775e-06 0)
(-4.14024e-09 -4.25097e-06 0)
(-4.02958e-09 -4.24433e-06 0)
(-3.9178e-09 -4.2379e-06 0)
(-3.80486e-09 -4.23163e-06 0)
(-3.69086e-09 -4.22556e-06 0)
(-3.57577e-09 -4.21966e-06 0)
(-3.45968e-09 -4.21397e-06 0)
(-3.34256e-09 -4.20844e-06 0)
(-3.2245e-09 -4.20313e-06 0)
(-3.10548e-09 -4.19798e-06 0)
(-2.98557e-09 -4.19305e-06 0)
(-2.86477e-09 -4.1883e-06 0)
(-2.74313e-09 -4.18376e-06 0)
(-2.62067e-09 -4.1794e-06 0)
(-2.49743e-09 -4.17525e-06 0)
(-2.37342e-09 -4.17129e-06 0)
(-2.24869e-09 -4.16755e-06 0)
(-2.12324e-09 -4.16399e-06 0)
(-1.99713e-09 -4.16065e-06 0)
(-1.87036e-09 -4.1575e-06 0)
(-1.74297e-09 -4.15457e-06 0)
(-1.615e-09 -4.15184e-06 0)
(-1.48648e-09 -4.14932e-06 0)
(-1.35747e-09 -4.147e-06 0)
(-1.22805e-09 -4.14492e-06 0)
(-1.0983e-09 -4.14294e-06 0)
(-9.68396e-10 -4.14155e-06 0)
(-8.38414e-10 -4.13911e-06 0)
(-7.08872e-10 -4.14099e-06 0)
(-5.78811e-10 -4.12918e-06 0)
(-4.51714e-10 -4.16194e-06 0)
(-3.14789e-10 -4.03674e-06 0)
(-2.1009e-10 -4.36785e-06 0)
(-9.03746e-11 -3.81466e-06 0)
)
;
    }
    bottomWall
    {
        type            calculated;
        value           nonuniform List<vector> 
449
(
(-52.7632 -0.956279 0)
(-34.7773 -0.0028017 0)
(-34.3847 -0.000255692 0)
(-33.018 -0.000364563 0)
(-31.8887 -0.000316204 0)
(-30.8493 -0.000285022 0)
(-29.9298 -0.000249929 0)
(-29.1279 -0.000217912 0)
(-28.4257 -0.000191233 0)
(-27.805 -0.000169383 0)
(-27.2513 -0.000151321 0)
(-26.7534 -0.000136195 0)
(-26.3027 -0.000123519 0)
(-25.8912 -0.000112792 0)
(-25.5136 -0.000103518 0)
(-25.1653 -9.54662e-05 0)
(-24.8426 -8.84453e-05 0)
(-24.5423 -8.2294e-05 0)
(-24.2615 -7.68926e-05 0)
(-23.9981 -7.20897e-05 0)
(-23.7502 -6.77801e-05 0)
(-23.5161 -6.39082e-05 0)
(-23.2947 -6.04052e-05 0)
(-23.0847 -5.7226e-05 0)
(-22.885 -5.43226e-05 0)
(-22.6948 -5.16562e-05 0)
(-22.5134 -4.92106e-05 0)
(-22.34 -4.69573e-05 0)
(-22.1741 -4.4876e-05 0)
(-22.015 -4.29459e-05 0)
(-21.8623 -4.11579e-05 0)
(-21.7155 -3.94948e-05 0)
(-21.5742 -3.79494e-05 0)
(-21.4381 -3.65041e-05 0)
(-21.3067 -3.5152e-05 0)
(-21.1799 -3.38876e-05 0)
(-21.0573 -3.27033e-05 0)
(-20.9386 -3.15896e-05 0)
(-20.8236 -3.05471e-05 0)
(-20.7121 -2.95656e-05 0)
(-20.6039 -2.864e-05 0)
(-20.4987 -2.77628e-05 0)
(-20.3966 -2.69312e-05 0)
(-20.2972 -2.61424e-05 0)
(-20.2005 -2.53886e-05 0)
(-20.1063 -2.46686e-05 0)
(-20.0146 -2.39842e-05 0)
(-19.9251 -2.33272e-05 0)
(-19.8379 -2.26978e-05 0)
(-19.7528 -2.20994e-05 0)
(-19.6698 -2.1525e-05 0)
(-19.5887 -2.09749e-05 0)
(-19.5095 -2.04523e-05 0)
(-19.432 -1.9949e-05 0)
(-19.3563 -1.947e-05 0)
(-19.2821 -1.90109e-05 0)
(-19.2096 -1.85712e-05 0)
(-19.1385 -1.81509e-05 0)
(-19.0689 -1.7747e-05 0)
(-19.0006 -1.73596e-05 0)
(-18.9337 -1.69875e-05 0)
(-18.868 -1.66291e-05 0)
(-18.8035 -1.62843e-05 0)
(-18.7402 -1.59516e-05 0)
(-18.6781 -1.56316e-05 0)
(-18.617 -1.5322e-05 0)
(-18.5571 -1.50228e-05 0)
(-18.4981 -1.47336e-05 0)
(-18.4401 -1.44536e-05 0)
(-18.3831 -1.41828e-05 0)
(-18.3271 -1.39198e-05 0)
(-18.2718 -1.36658e-05 0)
(-18.2176 -1.34189e-05 0)
(-18.1641 -1.31796e-05 0)
(-18.1115 -1.29468e-05 0)
(-18.0596 -1.27209e-05 0)
(-18.0086 -1.25012e-05 0)
(-17.9583 -1.22878e-05 0)
(-17.9088 -1.20801e-05 0)
(-17.8599 -1.18786e-05 0)
(-17.8118 -1.16821e-05 0)
(-17.7643 -1.1491e-05 0)
(-17.7176 -1.1304e-05 0)
(-17.6714 -1.11225e-05 0)
(-17.6259 -1.09452e-05 0)
(-17.581 -1.07729e-05 0)
(-17.5367 -1.06054e-05 0)
(-17.493 -1.04414e-05 0)
(-17.4499 -1.02814e-05 0)
(-17.4073 -1.0125e-05 0)
(-17.3652 -9.97271e-06 0)
(-17.3237 -9.82438e-06 0)
(-17.2828 -9.67951e-06 0)
(-17.2423 -9.53803e-06 0)
(-17.2023 -9.39963e-06 0)
(-17.1628 -9.26463e-06 0)
(-17.1238 -9.13235e-06 0)
(-17.0852 -9.0029e-06 0)
(-17.0471 -8.87649e-06 0)
(-17.0094 -8.75309e-06 0)
(-16.9722 -8.63234e-06 0)
(-16.9354 -8.5145e-06 0)
(-16.899 -8.39884e-06 0)
(-16.863 -8.28569e-06 0)
(-16.8275 -8.17524e-06 0)
(-16.7922 -8.06657e-06 0)
(-16.7575 -7.96063e-06 0)
(-16.723 -7.85614e-06 0)
(-16.689 -7.75461e-06 0)
(-16.6552 -7.65428e-06 0)
(-16.6219 -7.55677e-06 0)
(-16.5889 -7.46109e-06 0)
(-16.5563 -7.36761e-06 0)
(-16.5239 -7.27549e-06 0)
(-16.4919 -7.18555e-06 0)
(-16.4602 -7.097e-06 0)
(-16.4289 -7.00988e-06 0)
(-16.3978 -6.92416e-06 0)
(-16.3671 -6.84033e-06 0)
(-16.3366 -6.75844e-06 0)
(-16.3065 -6.67764e-06 0)
(-16.2766 -6.59873e-06 0)
(-16.247 -6.52094e-06 0)
(-16.2177 -6.44496e-06 0)
(-16.1887 -6.37015e-06 0)
(-16.1599 -6.29719e-06 0)
(-16.1314 -6.22493e-06 0)
(-16.1031 -6.15399e-06 0)
(-16.0752 -6.0842e-06 0)
(-16.0474 -6.01539e-06 0)
(-16.0199 -5.94772e-06 0)
(-15.9927 -5.88119e-06 0)
(-15.9657 -5.81605e-06 0)
(-15.9389 -5.75241e-06 0)
(-15.9124 -5.68952e-06 0)
(-15.8861 -5.62793e-06 0)
(-15.86 -5.56727e-06 0)
(-15.8341 -5.50749e-06 0)
(-15.8085 -5.44874e-06 0)
(-15.783 -5.39054e-06 0)
(-15.7578 -5.33347e-06 0)
(-15.7328 -5.27713e-06 0)
(-15.708 -5.22172e-06 0)
(-15.6833 -5.16704e-06 0)
(-15.6589 -5.1132e-06 0)
(-15.6347 -5.06052e-06 0)
(-15.6107 -5.00824e-06 0)
(-15.5868 -4.95753e-06 0)
(-15.5632 -4.90714e-06 0)
(-15.5397 -4.85845e-06 0)
(-15.5165 -4.80914e-06 0)
(-15.4934 -4.76185e-06 0)
(-15.4704 -4.7141e-06 0)
(-15.4477 -4.66813e-06 0)
(-15.4251 -4.6217e-06 0)
(-15.4027 -4.57699e-06 0)
(-15.3804 -4.53182e-06 0)
(-15.3583 -4.48817e-06 0)
(-15.3364 -4.44454e-06 0)
(-15.3147 -4.402e-06 0)
(-15.293 -4.35927e-06 0)
(-15.2716 -4.3183e-06 0)
(-15.2503 -4.27697e-06 0)
(-15.2292 -4.23692e-06 0)
(-15.2082 -4.19715e-06 0)
(-15.1873 -4.15854e-06 0)
(-15.1666 -4.1196e-06 0)
(-15.1461 -4.0815e-06 0)
(-15.1256 -4.04372e-06 0)
(-15.1054 -4.0063e-06 0)
(-15.0852 -3.97004e-06 0)
(-15.0653 -3.93356e-06 0)
(-15.0454 -3.89926e-06 0)
(-15.0267 -3.87231e-06 0)
(-15.0092 -3.84437e-06 0)
(-14.9916 -3.81134e-06 0)
(-14.9739 -3.7789e-06 0)
(-14.9563 -3.74665e-06 0)
(-14.9386 -3.71507e-06 0)
(-14.9208 -3.68355e-06 0)
(-14.903 -3.6522e-06 0)
(-14.8852 -3.62098e-06 0)
(-14.8673 -3.5903e-06 0)
(-14.8494 -3.5592e-06 0)
(-14.8314 -3.52892e-06 0)
(-14.8134 -3.49841e-06 0)
(-14.7954 -3.46871e-06 0)
(-14.7773 -3.43807e-06 0)
(-14.7592 -3.40828e-06 0)
(-14.7411 -3.37763e-06 0)
(-14.7229 -3.34874e-06 0)
(-14.7047 -3.31929e-06 0)
(-14.6864 -3.2901e-06 0)
(-14.6681 -3.26077e-06 0)
(-14.6498 -3.23212e-06 0)
(-14.6315 -3.20328e-06 0)
(-14.6131 -3.17448e-06 0)
(-14.5946 -3.14556e-06 0)
(-14.5762 -3.11704e-06 0)
(-14.5577 -3.08845e-06 0)
(-14.5392 -3.06078e-06 0)
(-14.5206 -3.03258e-06 0)
(-14.5021 -3.00515e-06 0)
(-14.4834 -2.97697e-06 0)
(-14.4648 -2.95001e-06 0)
(-14.4461 -2.92212e-06 0)
(-14.4275 -2.89549e-06 0)
(-14.4087 -2.86833e-06 0)
(-14.39 -2.84177e-06 0)
(-14.3712 -2.81471e-06 0)
(-14.3524 -2.78806e-06 0)
(-14.3336 -2.76151e-06 0)
(-14.3148 -2.73495e-06 0)
(-14.2959 -2.70846e-06 0)
(-14.277 -2.68208e-06 0)
(-14.2581 -2.65652e-06 0)
(-14.2392 -2.63056e-06 0)
(-14.2202 -2.60547e-06 0)
(-14.2013 -2.57956e-06 0)
(-14.1823 -2.55472e-06 0)
(-14.1633 -2.52945e-06 0)
(-14.1443 -2.50477e-06 0)
(-14.1253 -2.48011e-06 0)
(-14.1062 -2.45569e-06 0)
(-14.0871 -2.43118e-06 0)
(-14.068 -2.40728e-06 0)
(-14.0489 -2.38229e-06 0)
(-14.0298 -2.35918e-06 0)
(-14.0107 -2.33484e-06 0)
(-13.9916 -2.31145e-06 0)
(-13.9724 -2.28789e-06 0)
(-13.9532 -2.26476e-06 0)
(-13.9341 -2.24161e-06 0)
(-13.9149 -2.21894e-06 0)
(-13.8957 -2.19599e-06 0)
(-13.8765 -2.17363e-06 0)
(-13.8573 -2.15109e-06 0)
(-13.8381 -2.12913e-06 0)
(-13.8188 -2.10652e-06 0)
(-13.7996 -2.08435e-06 0)
(-13.7803 -2.06237e-06 0)
(-13.7611 -2.0406e-06 0)
(-13.7418 -2.01885e-06 0)
(-13.7226 -1.9977e-06 0)
(-13.7034 -1.9769e-06 0)
(-13.6841 -1.95559e-06 0)
(-13.6648 -1.93502e-06 0)
(-13.6456 -1.91432e-06 0)
(-13.6263 -1.89388e-06 0)
(-13.6071 -1.87327e-06 0)
(-13.5878 -1.85316e-06 0)
(-13.5686 -1.83277e-06 0)
(-13.5493 -1.81342e-06 0)
(-13.53 -1.79331e-06 0)
(-13.5108 -1.77418e-06 0)
(-13.4915 -1.75426e-06 0)
(-13.4723 -1.73559e-06 0)
(-13.453 -1.71614e-06 0)
(-13.4338 -1.69755e-06 0)
(-13.4146 -1.67866e-06 0)
(-13.3954 -1.66016e-06 0)
(-13.3761 -1.64155e-06 0)
(-13.3569 -1.62349e-06 0)
(-13.3377 -1.60545e-06 0)
(-13.3185 -1.58742e-06 0)
(-13.2993 -1.56957e-06 0)
(-13.2802 -1.55212e-06 0)
(-13.261 -1.53431e-06 0)
(-13.2419 -1.51686e-06 0)
(-13.2227 -1.49978e-06 0)
(-13.2036 -1.48319e-06 0)
(-13.1844 -1.46619e-06 0)
(-13.1653 -1.44923e-06 0)
(-13.1462 -1.43224e-06 0)
(-13.1272 -1.41622e-06 0)
(-13.1081 -1.40002e-06 0)
(-13.089 -1.38365e-06 0)
(-13.07 -1.36799e-06 0)
(-13.051 -1.35193e-06 0)
(-13.0319 -1.33626e-06 0)
(-13.013 -1.3203e-06 0)
(-12.994 -1.30513e-06 0)
(-12.9751 -1.28987e-06 0)
(-12.9561 -1.27467e-06 0)
(-12.9372 -1.25958e-06 0)
(-12.9183 -1.24484e-06 0)
(-12.8995 -1.23039e-06 0)
(-12.8806 -1.21592e-06 0)
(-12.8618 -1.20123e-06 0)
(-12.8429 -1.18703e-06 0)
(-12.8242 -1.17248e-06 0)
(-12.8054 -1.15886e-06 0)
(-12.7866 -1.14506e-06 0)
(-12.7679 -1.13134e-06 0)
(-12.7492 -1.1177e-06 0)
(-12.7305 -1.10447e-06 0)
(-12.7119 -1.09075e-06 0)
(-12.6933 -1.07799e-06 0)
(-12.6747 -1.06448e-06 0)
(-12.6561 -1.0517e-06 0)
(-12.6375 -1.03901e-06 0)
(-12.619 -1.02623e-06 0)
(-12.6005 -1.01365e-06 0)
(-12.5821 -1.00165e-06 0)
(-12.5636 -9.89639e-07 0)
(-12.5452 -9.77631e-07 0)
(-12.5268 -9.64938e-07 0)
(-12.5085 -9.53309e-07 0)
(-12.4901 -9.41587e-07 0)
(-12.4718 -9.30154e-07 0)
(-12.4535 -9.18711e-07 0)
(-12.4353 -9.07411e-07 0)
(-12.4171 -8.96119e-07 0)
(-12.3989 -8.85264e-07 0)
(-12.3807 -8.74272e-07 0)
(-12.3626 -8.63246e-07 0)
(-12.3445 -8.52374e-07 0)
(-12.3265 -8.41635e-07 0)
(-12.3084 -8.31168e-07 0)
(-12.2905 -8.20617e-07 0)
(-12.2725 -8.10071e-07 0)
(-12.2546 -7.99836e-07 0)
(-12.2367 -7.89931e-07 0)
(-12.2189 -7.79902e-07 0)
(-12.201 -7.69938e-07 0)
(-12.1833 -7.60134e-07 0)
(-12.1655 -7.50726e-07 0)
(-12.1478 -7.4118e-07 0)
(-12.1301 -7.31808e-07 0)
(-12.1124 -7.22303e-07 0)
(-12.0948 -7.1337e-07 0)
(-12.0773 -7.04303e-07 0)
(-12.0597 -6.95183e-07 0)
(-12.0422 -6.86167e-07 0)
(-12.0247 -6.77563e-07 0)
(-12.0073 -6.68797e-07 0)
(-11.9899 -6.60135e-07 0)
(-11.9725 -6.51311e-07 0)
(-11.9552 -6.43014e-07 0)
(-11.938 -6.34352e-07 0)
(-11.9207 -6.26315e-07 0)
(-11.9035 -6.18125e-07 0)
(-11.8864 -6.10217e-07 0)
(-11.8693 -6.01999e-07 0)
(-11.8522 -5.94443e-07 0)
(-11.8351 -5.86462e-07 0)
(-11.8182 -5.78986e-07 0)
(-11.8012 -5.71429e-07 0)
(-11.7843 -5.64106e-07 0)
(-11.7674 -5.56717e-07 0)
(-11.7506 -5.49578e-07 0)
(-11.7337 -5.42267e-07 0)
(-11.717 -5.3551e-07 0)
(-11.7002 -5.2765e-07 0)
(-11.6818 -5.18341e-07 0)
(-11.6616 -5.09903e-07 0)
(-11.6419 -5.02184e-07 0)
(-11.6223 -4.9484e-07 0)
(-11.6032 -4.87301e-07 0)
(-11.5842 -4.79945e-07 0)
(-11.5656 -4.72747e-07 0)
(-11.5472 -4.65818e-07 0)
(-11.5292 -4.58629e-07 0)
(-11.5113 -4.52135e-07 0)
(-11.4938 -4.45684e-07 0)
(-11.4764 -4.39422e-07 0)
(-11.4594 -4.33244e-07 0)
(-11.4425 -4.27414e-07 0)
(-11.426 -4.21361e-07 0)
(-11.4096 -4.15641e-07 0)
(-11.3934 -4.1013e-07 0)
(-11.3775 -4.04551e-07 0)
(-11.3618 -3.99343e-07 0)
(-11.3462 -3.94052e-07 0)
(-11.331 -3.89029e-07 0)
(-11.3158 -3.83905e-07 0)
(-11.3009 -3.79361e-07 0)
(-11.2861 -3.74485e-07 0)
(-11.2716 -3.69887e-07 0)
(-11.2572 -3.65068e-07 0)
(-11.2431 -3.60569e-07 0)
(-11.229 -3.56394e-07 0)
(-11.2152 -3.51888e-07 0)
(-11.2014 -3.47722e-07 0)
(-11.188 -3.43729e-07 0)
(-11.1746 -3.39671e-07 0)
(-11.1614 -3.35452e-07 0)
(-11.1483 -3.31527e-07 0)
(-11.1355 -3.27671e-07 0)
(-11.1227 -3.24073e-07 0)
(-11.1101 -3.20398e-07 0)
(-11.0976 -3.16871e-07 0)
(-11.0853 -3.13446e-07 0)
(-11.0731 -3.10032e-07 0)
(-11.0611 -3.06727e-07 0)
(-11.0491 -3.0343e-07 0)
(-11.0373 -3.00147e-07 0)
(-11.0256 -2.97141e-07 0)
(-11.0141 -2.93955e-07 0)
(-11.0026 -2.90843e-07 0)
(-10.9913 -2.87883e-07 0)
(-10.9801 -2.84912e-07 0)
(-10.969 -2.82104e-07 0)
(-10.958 -2.79178e-07 0)
(-10.9472 -2.76342e-07 0)
(-10.9364 -2.73383e-07 0)
(-10.9258 -2.7089e-07 0)
(-10.9152 -2.68095e-07 0)
(-10.9048 -2.65538e-07 0)
(-10.8944 -2.63016e-07 0)
(-10.8843 -2.60555e-07 0)
(-10.8741 -2.58048e-07 0)
(-10.8641 -2.55831e-07 0)
(-10.854 -2.53304e-07 0)
(-10.8443 -2.51072e-07 0)
(-10.8344 -2.48671e-07 0)
(-10.8248 -2.46665e-07 0)
(-10.8151 -2.44334e-07 0)
(-10.8057 -2.42356e-07 0)
(-10.7961 -2.40067e-07 0)
(-10.7869 -2.38245e-07 0)
(-10.7775 -2.35809e-07 0)
(-10.7685 -2.34e-07 0)
(-10.7592 -2.3193e-07 0)
(-10.7503 -2.30077e-07 0)
(-10.7412 -2.27756e-07 0)
(-10.7325 -2.26071e-07 0)
(-10.7235 -2.23884e-07 0)
(-10.715 -2.22299e-07 0)
(-10.7061 -2.20222e-07 0)
(-10.6978 -2.18417e-07 0)
(-10.689 -2.16702e-07 0)
(-10.6808 -2.15001e-07 0)
(-10.6722 -2.13629e-07 0)
(-10.6641 -2.11729e-07 0)
(-10.6557 -2.10449e-07 0)
(-10.6476 -2.08365e-07 0)
(-10.6394 -2.07715e-07 0)
(-10.6314 -2.05142e-07 0)
(-10.6233 -2.05817e-07 0)
(-10.6153 -2.01485e-07 0)
(-10.6076 -2.05766e-07 0)
(-10.5992 -1.95664e-07 0)
(-10.5923 -2.10942e-07 0)
(-10.5826 -1.81766e-07 0)
(-10.5781 -2.26609e-07 0)
(-10.5648 -1.5454e-07 0)
(-10.5662 -2.01225e-07 0)
(-10.5487 -2.29735e-07 0)
)
;
    }
    symmetry
    {
        type            symmetryPlane;
    }
    frontAndBack
    {
        type            empty;
    }
}


// ************************************************************************* //
