/*--------------------------------*- C++ -*----------------------------------*\
| =========                 |                                                 |
| \\      /  F ield         | OpenFOAM: The Open Source CFD Toolbox           |
|  \\    /   O peration     | Version:  v2012                                 |
|   \\  /    A nd           | Website:  www.openfoam.com                      |
|    \\/     M anipulation  |                                                 |
\*---------------------------------------------------------------------------*/
FoamFile
{
    version     2.0;
    format      ascii;
    class       volScalarField;
    location    "34.5";
    object      yPlus;
}
// * * * * * * * * * * * * * * * * * * * * * * * * * * * * * * * * * * * * * //

dimensions      [0 0 0 0 0 0 0];


internalField   uniform 0;

boundaryField
{
    inlet
    {
        type            calculated;
        value           uniform 0;
    }
    outlet
    {
        type            calculated;
        value           uniform 0;
    }
    topWall
    {
        type            calculated;
        value           nonuniform List<scalar> 
545
(
0.146963
0.253471
0.325179
0.382224
0.430511
0.472754
0.510478
0.544644
0.575905
0.604732
0.631476
0.65641
0.67975
0.701671
0.72232
0.741817
0.760266
0.777756
0.794364
0.810159
0.825198
0.839537
0.853221
0.866294
0.878795
0.890757
0.902213
0.913192
0.923721
0.933825
0.943525
0.952844
0.9618
0.970412
0.978697
0.98667
0.994347
1.00174
1.00886
1.01573
1.02235
1.02873
1.03489
1.04084
1.04657
1.05211
1.05746
1.06263
1.06762
1.07244
1.07711
1.08162
1.08598
1.09019
1.09427
1.09822
1.10204
1.10574
1.10932
1.11278
1.11614
1.11939
1.12253
1.12558
1.12854
1.1314
1.13418
1.13686
1.13947
1.142
1.14445
1.14682
1.1491
1.1513
1.15348
1.15564
1.15779
1.15992
1.16203
1.16412
1.1662
1.16826
1.1703
1.17233
1.17434
1.17633
1.17831
1.18027
1.18222
1.18415
1.18607
1.18797
1.18985
1.19172
1.19358
1.19542
1.19708
1.19856
1.20004
1.20152
1.203
1.20448
1.20596
1.20744
1.20892
1.2104
1.21187
1.21335
1.21483
1.2163
1.21778
1.21925
1.22072
1.2222
1.22367
1.22514
1.22661
1.22808
1.22955
1.23102
1.23248
1.23395
1.23542
1.23688
1.23835
1.23981
1.24128
1.24274
1.2442
1.24566
1.24712
1.24858
1.25004
1.25149
1.25295
1.25441
1.25586
1.25731
1.25877
1.26022
1.26167
1.26312
1.26457
1.26601
1.26746
1.26891
1.27035
1.27179
1.27324
1.27468
1.27612
1.27756
1.27899
1.28043
1.28187
1.2833
1.28473
1.28617
1.2876
1.28903
1.29045
1.29188
1.29331
1.29473
1.29615
1.29758
1.299
1.30042
1.30183
1.30325
1.30466
1.30608
1.30749
1.3089
1.31031
1.31172
1.31312
1.31453
1.31593
1.31733
1.31873
1.32013
1.32153
1.32292
1.32432
1.32571
1.3271
1.32849
1.32988
1.33126
1.33265
1.33403
1.33541
1.33679
1.33816
1.33954
1.34091
1.34228
1.34365
1.34502
1.34638
1.34775
1.34911
1.35047
1.35183
1.35318
1.35454
1.35589
1.35724
1.35859
1.35993
1.36128
1.36262
1.36396
1.36529
1.36663
1.36796
1.36929
1.37062
1.37195
1.37327
1.37459
1.37591
1.37723
1.37855
1.37986
1.38117
1.38248
1.38378
1.38509
1.38639
1.38768
1.38898
1.39027
1.39156
1.39285
1.39414
1.39542
1.3967
1.39798
1.39926
1.40053
1.4018
1.40307
1.40433
1.40559
1.40685
1.40811
1.40936
1.41061
1.41186
1.41311
1.41435
1.41559
1.41682
1.41806
1.41929
1.42052
1.42174
1.42296
1.42418
1.4254
1.42661
1.42782
1.42902
1.43023
1.43143
1.43262
1.43382
1.43494
1.436
1.43707
1.43814
1.43922
1.4403
1.4414
1.44249
1.4436
1.44471
1.44583
1.44695
1.44809
1.44922
1.45037
1.45152
1.45267
1.45383
1.455
1.45618
1.45736
1.45854
1.45974
1.46093
1.46214
1.46335
1.46456
1.46578
1.46701
1.46824
1.46947
1.47071
1.47196
1.47321
1.47447
1.47573
1.47699
1.47826
1.47953
1.48081
1.48209
1.48338
1.48467
1.48596
1.48726
1.48856
1.48986
1.49117
1.49247
1.49378
1.4951
1.49641
1.49773
1.49905
1.50037
1.5017
1.50302
1.50435
1.50567
1.507
1.50833
1.50966
1.51098
1.51231
1.51364
1.51496
1.51629
1.51761
1.51894
1.52026
1.52157
1.52289
1.5242
1.52551
1.52682
1.52812
1.52942
1.53072
1.53201
1.53329
1.53458
1.53585
1.53712
1.53838
1.53964
1.54089
1.54213
1.54336
1.54459
1.5458
1.54701
1.54821
1.5494
1.55058
1.55175
1.5529
1.55405
1.55518
1.5563
1.55741
1.55851
1.55959
1.56066
1.56171
1.56275
1.56377
1.56478
1.56576
1.56674
1.56769
1.56863
1.56955
1.57045
1.57133
1.57219
1.57303
1.57385
1.57465
1.57543
1.57618
1.57692
1.57762
1.57831
1.57897
1.5796
1.58021
1.5808
1.58135
1.58189
1.58239
1.58287
1.58331
1.58373
1.58412
1.58448
1.58481
1.58511
1.58538
1.58562
1.58583
1.586
1.58614
1.58625
1.58632
1.58637
1.58637
1.58634
1.58628
1.58618
1.58605
1.58588
1.58567
1.58543
1.58515
1.58484
1.58449
1.5841
1.58367
1.58321
1.58271
1.58217
1.58159
1.58097
1.58032
1.57963
1.5789
1.57813
1.57732
1.57648
1.57559
1.57467
1.57371
1.57272
1.57168
1.57061
1.5695
1.56836
1.56717
1.56596
1.5647
1.56341
1.56193
1.56027
1.55858
1.55687
1.55513
1.55337
1.55159
1.54979
1.54797
1.54614
1.54429
1.54244
1.54057
1.5387
1.53681
1.53493
1.53303
1.53114
1.52924
1.52734
1.52544
1.52355
1.52165
1.51977
1.51788
1.51601
1.51414
1.51228
1.51042
1.50858
1.50675
1.50493
1.50312
1.50133
1.49954
1.49778
1.49603
1.4943
1.49258
1.49088
1.4892
1.48754
1.48589
1.48428
1.48267
1.4811
1.47953
1.478
1.47649
1.475
1.47354
1.4721
1.47068
1.4693
1.46793
1.4666
1.46529
1.46401
1.46275
1.46153
1.46033
1.45917
1.45803
1.45692
1.45585
1.4548
1.45379
1.45281
1.45185
1.45094
1.45005
1.4492
1.44837
1.44759
1.44683
1.44612
1.44543
1.44478
1.44417
1.44359
1.44304
1.44253
1.44206
1.44162
1.44122
1.44085
1.44052
1.44023
1.43998
1.43976
1.43957
1.43943
1.43931
1.43925
1.43918
)
;
    }
    bottomWall
    {
        type            calculated;
        value           nonuniform List<scalar> 
449
(
0.00274011
0.00480523
0.0053791
0.00533141
0.00525993
0.00516354
0.00506586
0.0049744
0.00489052
0.00481389
0.00474379
0.0046795
0.00462033
0.00456554
0.00451467
0.00446727
0.00442295
0.00438137
0.00434222
0.00430521
0.00427018
0.00423692
0.00420528
0.00417511
0.00414631
0.00411877
0.00409239
0.00406709
0.00404278
0.00401941
0.00399691
0.00397521
0.00395427
0.00393404
0.00391447
0.00389552
0.00387716
0.00385935
0.00384206
0.00382525
0.00380891
0.003793
0.00377751
0.00376241
0.00374769
0.00373333
0.00371932
0.00370564
0.00369228
0.00367922
0.00366646
0.00365397
0.00364175
0.00362979
0.00361808
0.00360659
0.00359534
0.0035843
0.00357347
0.00356284
0.0035524
0.00354214
0.00353207
0.00352216
0.00351242
0.00350283
0.00349342
0.00348414
0.00347501
0.00346602
0.00345718
0.00344845
0.00343987
0.0034314
0.00342307
0.00341484
0.00340674
0.00339874
0.00339087
0.00338309
0.00337542
0.00336785
0.00336038
0.003353
0.00334573
0.00333854
0.00333145
0.00332443
0.00331752
0.00331067
0.00330392
0.00329724
0.00329065
0.00328413
0.00327769
0.00327131
0.00326502
0.00325878
0.00325263
0.00324653
0.00324051
0.00323454
0.00322865
0.00322281
0.00321704
0.00321132
0.00320567
0.00320006
0.00319453
0.00318903
0.00318361
0.00317822
0.0031729
0.00316762
0.0031624
0.00315722
0.0031521
0.00314701
0.00314199
0.00313699
0.00313206
0.00312716
0.00312231
0.0031175
0.00311274
0.00310801
0.00310333
0.00309868
0.00309408
0.00308951
0.00308499
0.0030805
0.00307605
0.00307163
0.00306726
0.00306291
0.00305861
0.00305433
0.0030501
0.00304588
0.00304172
0.00303757
0.00303347
0.00302939
0.00302535
0.00302133
0.00301735
0.00301339
0.00300947
0.00300557
0.00300171
0.00299787
0.00299406
0.00299027
0.00298652
0.00298279
0.00297908
0.0029754
0.00297175
0.00296812
0.00296452
0.00296095
0.00295739
0.00295387
0.00295036
0.00294688
0.00294342
0.00293998
0.00293657
0.00293318
0.00292981
0.00292646
0.00292313
0.00292001
0.00291707
0.00291413
0.00291117
0.00290821
0.00290523
0.00290226
0.00289927
0.00289628
0.00289328
0.00289027
0.00288725
0.00288423
0.0028812
0.00287816
0.00287511
0.00287206
0.002869
0.00286593
0.00286286
0.00285978
0.00285669
0.00285359
0.00285049
0.00284738
0.00284427
0.00284115
0.00283802
0.00283489
0.00283175
0.0028286
0.00282545
0.00282229
0.00281913
0.00281596
0.00281279
0.00280961
0.00280643
0.00280323
0.00280004
0.00279684
0.00279364
0.00279042
0.00278722
0.00278399
0.00278078
0.00277755
0.00277432
0.00277108
0.00276785
0.0027646
0.00276136
0.0027581
0.00275485
0.00275159
0.00274833
0.00274507
0.0027418
0.00273853
0.00273526
0.00273198
0.0027287
0.00272542
0.00272214
0.00271885
0.00271556
0.00271227
0.00270897
0.00270568
0.00270238
0.00269909
0.00269578
0.00269249
0.00268918
0.00268588
0.00268257
0.00267926
0.00267595
0.00267265
0.00266933
0.00266602
0.00266271
0.0026594
0.00265609
0.00265277
0.00264946
0.00264614
0.00264283
0.00263952
0.00263621
0.00263289
0.00262958
0.00262626
0.00262296
0.00261964
0.00261633
0.00261302
0.00260971
0.0026064
0.0026031
0.00259978
0.00259649
0.00259318
0.00258988
0.00258657
0.00258328
0.00257998
0.00257669
0.00257339
0.00257011
0.00256681
0.00256353
0.00256024
0.00255697
0.00255368
0.00255041
0.00254713
0.00254387
0.00254059
0.00253733
0.00253407
0.00253081
0.00252755
0.0025243
0.00252105
0.0025178
0.00251456
0.00251132
0.00250809
0.00250486
0.00250163
0.0024984
0.00249518
0.00249196
0.00248876
0.00248554
0.00248234
0.00247913
0.00247595
0.00247275
0.00246956
0.00246637
0.0024632
0.00246001
0.00245685
0.00245368
0.00245052
0.00244736
0.00244422
0.00244107
0.00243793
0.00243479
0.00243167
0.00242854
0.00242542
0.0024223
0.0024192
0.00241609
0.002413
0.0024099
0.00240681
0.00240373
0.00240065
0.00239758
0.00239452
0.00239146
0.0023884
0.00238536
0.00238232
0.00237928
0.00237625
0.00237323
0.00237021
0.00236721
0.0023642
0.00236121
0.0023582
0.00235522
0.00235223
0.00234927
0.00234628
0.00234301
0.00233942
0.00233592
0.00233244
0.00232903
0.00232565
0.00232235
0.00231907
0.00231586
0.00231269
0.00230956
0.00230647
0.00230344
0.00230043
0.00229747
0.00229455
0.00229167
0.00228883
0.00228602
0.00228325
0.00228052
0.00227781
0.00227515
0.0022725
0.00226991
0.00226732
0.0022648
0.00226228
0.00225981
0.00225735
0.00225494
0.00225253
0.00225018
0.00224783
0.00224553
0.00224323
0.00224098
0.00223874
0.00223653
0.00223434
0.00223218
0.00223003
0.00222792
0.00222582
0.00222375
0.00222169
0.00221966
0.00221764
0.00221565
0.00221367
0.00221173
0.00220978
0.00220788
0.00220597
0.00220411
0.00220223
0.0022004
0.00219856
0.00219677
0.00219496
0.0021932
0.00219142
0.00218969
0.00218794
0.00218624
0.00218452
0.00218286
0.00218116
0.00217953
0.00217785
0.00217625
0.0021746
0.00217304
0.00217141
0.00216987
0.00216827
0.00216676
0.00216518
0.0021637
0.00216214
0.00216068
0.00215915
0.00215771
0.00215621
0.00215477
0.0021533
0.00215186
0.00215045
0.00214897
0.00214766
0.00214603
0.00214502
0.00214293
0.00214269
0.00213995
)
;
    }
    symmetry
    {
        type            symmetryPlane;
    }
    frontAndBack
    {
        type            empty;
    }
}


// ************************************************************************* //
