/*--------------------------------*- C++ -*----------------------------------*\
| =========                 |                                                 |
| \\      /  F ield         | OpenFOAM: The Open Source CFD Toolbox           |
|  \\    /   O peration     | Version:  v2012                                 |
|   \\  /    A nd           | Website:  www.openfoam.com                      |
|    \\/     M anipulation  |                                                 |
\*---------------------------------------------------------------------------*/
FoamFile
{
    version     2.0;
    format      ascii;
    class       volScalarField;
    location    "1";
    object      p;
}
// * * * * * * * * * * * * * * * * * * * * * * * * * * * * * * * * * * * * * //

dimensions      [0 2 -2 0 0 0 0];


internalField   nonuniform List<scalar> 
209825
(
4.91589
4.91852
4.92504
4.9349
4.94753
4.96274
4.98046
5.0006
5.02304
5.0477
5.07448
5.10332
5.13417
5.16697
5.20169
5.23828
5.27673
5.31701
5.35909
5.40297
5.44862
5.49606
5.54527
5.59626
5.64904
5.70362
5.76
5.8182
5.87824
5.94014
6.00392
6.06963
6.13727
6.20689
6.27853
6.35222
6.42801
6.50594
6.58608
6.66846
6.75316
6.84022
6.92972
7.02173
7.11633
7.21359
7.3136
7.41645
7.52224
7.63108
7.74309
7.85837
7.97706
8.0993
8.22523
8.35501
8.48881
8.62682
8.76922
8.91623
9.06807
9.225
9.38728
9.55519
9.72906
9.90922
10.096
10.2899
10.4913
10.7007
10.9186
11.1457
11.3795
11.6227
11.8823
12.1604
12.4595
12.7823
13.1323
13.5132
13.93
14.3888
14.8969
15.464
16.1025
16.8286
17.6644
18.6413
19.801
21.2197
22.9743
25.346
28.3569
33.9208
40.2094
72.968
4.91589
4.91852
4.92504
4.9349
4.94753
4.96274
4.98046
5.0006
5.02304
5.0477
5.07448
5.10332
5.13417
5.16697
5.20169
5.23828
5.27673
5.31701
5.35909
5.40297
5.44862
5.49606
5.54527
5.59626
5.64904
5.70362
5.76
5.8182
5.87824
5.94014
6.00392
6.06963
6.13727
6.20689
6.27853
6.35222
6.42801
6.50594
6.58608
6.66846
6.75316
6.84022
6.92972
7.02173
7.11633
7.21359
7.3136
7.41645
7.52224
7.63108
7.74309
7.85837
7.97706
8.0993
8.22523
8.35501
8.48881
8.62681
8.76921
8.91622
9.06807
9.225
9.38728
9.55519
9.72906
9.90922
10.096
10.2899
10.4913
10.7007
10.9186
11.1457
11.3795
11.6227
11.8822
12.1604
12.4595
12.7823
13.1323
13.5132
13.93
14.3888
14.8969
15.464
16.1025
16.8286
17.6643
18.6412
19.801
21.2196
22.9741
25.3457
28.3565
33.9183
40.1886
72.3308
4.91589
4.91852
4.92504
4.9349
4.94753
4.96274
4.98046
5.0006
5.02304
5.0477
5.07448
5.10332
5.13417
5.16697
5.20169
5.23828
5.27673
5.31701
5.35909
5.40297
5.44862
5.49606
5.54527
5.59626
5.64904
5.70362
5.76
5.8182
5.87824
5.94014
6.00392
6.06963
6.13727
6.20689
6.27853
6.35222
6.42801
6.50594
6.58608
6.66846
6.75316
6.84022
6.92972
7.02173
7.11633
7.21359
7.31359
7.41645
7.52224
7.63108
7.74309
7.85837
7.97706
8.0993
8.22523
8.35501
8.48881
8.62681
8.76921
8.91622
9.06807
9.225
9.38727
9.55519
9.72906
9.90921
10.096
10.2899
10.4913
10.7007
10.9186
11.1457
11.3795
11.6227
11.8822
12.1603
12.4594
12.7823
13.1322
13.5132
13.93
14.3887
14.8969
15.464
16.1024
16.8286
17.6643
18.6412
19.8009
21.2194
22.9738
25.3452
28.3558
33.9143
40.1662
71.5609
4.91589
4.91852
4.92504
4.9349
4.94753
4.96274
4.98046
5.0006
5.02304
5.0477
5.07448
5.10332
5.13417
5.16697
5.20169
5.23828
5.27673
5.31701
5.35909
5.40297
5.44862
5.49606
5.54527
5.59626
5.64904
5.70362
5.76
5.8182
5.87824
5.94014
6.00392
6.06963
6.13727
6.20689
6.27853
6.35222
6.42801
6.50594
6.58608
6.66846
6.75315
6.84022
6.92972
7.02173
7.11633
7.21358
7.31359
7.41645
7.52224
7.63108
7.74309
7.85837
7.97706
8.0993
8.22523
8.35501
8.48881
8.62681
8.76921
8.91622
9.06807
9.22499
9.38727
9.55519
9.72905
9.90921
10.096
10.2899
10.4913
10.7007
10.9186
11.1457
11.3795
11.6227
11.8822
12.1603
12.4594
12.7823
13.1322
13.5132
13.93
14.3887
14.8968
15.4639
16.1023
16.8285
17.6641
18.641
19.8007
21.2191
22.9734
25.3444
28.3546
33.9085
40.1462
70.7989
4.91589
4.91852
4.92504
4.9349
4.94753
4.96274
4.98046
5.0006
5.02304
5.0477
5.07448
5.10332
5.13417
5.16697
5.20169
5.23828
5.27673
5.31701
5.35909
5.40297
5.44862
5.49606
5.54527
5.59626
5.64904
5.70362
5.76
5.8182
5.87824
5.94014
6.00392
6.06963
6.13727
6.20689
6.27853
6.35222
6.42801
6.50594
6.58607
6.66846
6.75315
6.84022
6.92972
7.02173
7.11632
7.21358
7.31359
7.41645
7.52224
7.63108
7.74308
7.85837
7.97706
8.0993
8.22523
8.35501
8.48881
8.62681
8.76921
8.91622
9.06806
9.22499
9.38727
9.55518
9.72905
9.9092
10.096
10.2899
10.4913
10.7007
10.9186
11.1457
11.3795
11.6226
11.8822
12.1603
12.4594
12.7823
13.1322
13.5131
13.9299
14.3886
14.8968
15.4639
16.1023
16.8284
17.664
18.6408
19.8004
21.2187
22.9729
25.3433
28.3529
33.9009
40.1265
70.0497
4.91589
4.91852
4.92504
4.9349
4.94753
4.96274
4.98046
5.0006
5.02304
5.04769
5.07448
5.10332
5.13417
5.16697
5.20169
5.23828
5.27673
5.31701
5.35909
5.40297
5.44862
5.49606
5.54527
5.59626
5.64904
5.70361
5.76
5.8182
5.87824
5.94014
6.00392
6.06963
6.13727
6.20689
6.27853
6.35222
6.42801
6.50594
6.58607
6.66846
6.75315
6.84022
6.92972
7.02173
7.11632
7.21358
7.31359
7.41644
7.52224
7.63108
7.74308
7.85836
7.97706
8.09929
8.22522
8.355
8.4888
8.6268
8.7692
8.91621
9.06806
9.22498
9.38726
9.55517
9.72904
9.90919
10.096
10.2899
10.4913
10.7007
10.9186
11.1456
11.3794
11.6226
11.8822
12.1603
12.4594
12.7822
13.1322
13.5131
13.9299
14.3886
14.8967
15.4638
16.1021
16.8282
17.6638
18.6406
19.8001
21.2182
22.9721
25.342
28.3509
33.8915
40.1044
69.304
4.91589
4.91852
4.92504
4.93489
4.94753
4.96274
4.98046
5.0006
5.02304
5.04769
5.07448
5.10332
5.13417
5.16697
5.20169
5.23828
5.27673
5.31701
5.35909
5.40297
5.44862
5.49606
5.54527
5.59626
5.64904
5.70361
5.76
5.81819
5.87823
5.94014
6.00392
6.06962
6.13727
6.20689
6.27853
6.35222
6.428
6.50594
6.58607
6.66846
6.75315
6.84022
6.92972
7.02173
7.11632
7.21358
7.31359
7.41644
7.52224
7.63108
7.74308
7.85836
7.97705
8.09929
8.22522
8.355
8.4888
8.6268
8.7692
8.91621
9.06805
9.22498
9.38725
9.55517
9.72903
9.90918
10.096
10.2899
10.4913
10.7007
10.9186
11.1456
11.3794
11.6226
11.8822
12.1603
12.4593
12.7822
13.1321
13.513
13.9298
14.3885
14.8966
15.4637
16.102
16.828
17.6636
18.6403
19.7996
21.2176
22.9712
25.3403
28.3484
33.88
40.0788
68.5593
4.91589
4.91852
4.92504
4.93489
4.94753
4.96274
4.98046
5.0006
5.02304
5.04769
5.07448
5.10332
5.13417
5.16697
5.20169
5.23828
5.27673
5.31701
5.35909
5.40297
5.44862
5.49606
5.54527
5.59626
5.64904
5.70361
5.75999
5.81819
5.87823
5.94014
6.00392
6.06962
6.13727
6.20689
6.27853
6.35222
6.428
6.50594
6.58607
6.66846
6.75315
6.84021
6.92972
7.02173
7.11632
7.21358
7.31359
7.41644
7.52223
7.63107
7.74308
7.85836
7.97705
8.09929
8.22522
8.355
8.48879
8.62679
8.76919
8.9162
9.06804
9.22497
9.38724
9.55516
9.72902
9.90917
10.096
10.2899
10.4913
10.7006
10.9186
11.1456
11.3794
11.6226
11.8821
12.1602
12.4593
12.7822
13.1321
13.513
13.9297
14.3884
14.8965
15.4635
16.1018
16.8278
17.6633
18.6399
19.7991
21.2169
22.9701
25.3382
28.3453
33.8665
40.0495
67.8149
4.91589
4.91852
4.92504
4.93489
4.94753
4.96274
4.98046
5.0006
5.02304
5.04769
5.07448
5.10332
5.13417
5.16697
5.20169
5.23828
5.27673
5.31701
5.35909
5.40296
5.44862
5.49606
5.54527
5.59626
5.64904
5.70361
5.75999
5.81819
5.87823
5.94013
6.00392
6.06962
6.13727
6.20689
6.27853
6.35222
6.428
6.50594
6.58607
6.66846
6.75315
6.84021
6.92971
7.02172
7.11632
7.21358
7.31359
7.41644
7.52223
7.63107
7.74307
7.85835
7.97705
8.09928
8.22521
8.35499
8.48879
8.62679
8.76918
8.91619
9.06803
9.22496
9.38723
9.55514
9.72901
9.90916
10.096
10.2898
10.4912
10.7006
10.9185
11.1456
11.3794
11.6225
11.8821
12.1602
12.4593
12.7821
13.132
13.5129
13.9297
14.3883
14.8964
15.4634
16.1016
16.8276
17.663
18.6395
19.7986
21.216
22.9689
25.3359
28.3418
33.8509
40.0166
67.0705
4.91589
4.91852
4.92504
4.93489
4.94753
4.96274
4.98046
5.0006
5.02304
5.04769
5.07448
5.10332
5.13417
5.16697
5.20169
5.23828
5.27673
5.31701
5.35909
5.40296
5.44862
5.49606
5.54527
5.59626
5.64904
5.70361
5.75999
5.81819
5.87823
5.94013
6.00392
6.06962
6.13727
6.20689
6.27853
6.35221
6.428
6.50594
6.58607
6.66845
6.75315
6.84021
6.92971
7.02172
7.11632
7.21357
7.31358
7.41643
7.52223
7.63107
7.74307
7.85835
7.97704
8.09928
8.22521
8.35498
8.48878
8.62678
8.76918
8.91618
9.06802
9.22495
9.38722
9.55513
9.72899
9.90914
10.096
10.2898
10.4912
10.7006
10.9185
11.1455
11.3793
11.6225
11.882
12.1601
12.4592
12.782
13.1319
13.5128
13.9295
14.3882
14.8962
15.4632
16.1014
16.8273
17.6626
18.639
19.7979
21.215
22.9674
25.3331
28.3376
33.8331
39.9799
66.3265
4.91589
4.91852
4.92504
4.93489
4.94753
4.96274
4.98046
5.0006
5.02304
5.04769
5.07448
5.10332
5.13417
5.16697
5.20169
5.23828
5.27673
5.31701
5.35909
5.40296
5.44862
5.49606
5.54527
5.59626
5.64904
5.70361
5.75999
5.81819
5.87823
5.94013
6.00392
6.06962
6.13727
6.20689
6.27852
6.35221
6.428
6.50594
6.58607
6.66845
6.75315
6.84021
6.92971
7.02172
7.11631
7.21357
7.31358
7.41643
7.52222
7.63106
7.74306
7.85835
7.97704
8.09927
8.2252
8.35498
8.48877
8.62677
8.76917
8.91617
9.06801
9.22494
9.38721
9.55511
9.72897
9.90912
10.0959
10.2898
10.4912
10.7006
10.9185
11.1455
11.3793
11.6224
11.882
12.1601
12.4591
12.782
13.1318
13.5127
13.9294
14.388
14.896
15.463
16.1012
16.827
17.6622
18.6384
19.7971
21.2139
22.9657
25.33
28.3329
33.813
39.9395
65.5829
4.91589
4.91852
4.92504
4.93489
4.94753
4.96274
4.98046
5.0006
5.02304
5.04769
5.07448
5.10332
5.13417
5.16697
5.20169
5.23828
5.27673
5.31701
5.35909
5.40296
5.44862
5.49606
5.54527
5.59626
5.64904
5.70361
5.75999
5.81819
5.87823
5.94013
6.00392
6.06962
6.13727
6.20689
6.27852
6.35221
6.428
6.50593
6.58607
6.66845
6.75314
6.84021
6.92971
7.02172
7.11631
7.21357
7.31358
7.41643
7.52222
7.63106
7.74306
7.85834
7.97703
8.09926
8.22519
8.35497
8.48876
8.62676
8.76916
8.91616
9.068
9.22492
9.38719
9.5551
9.72895
9.9091
10.0959
10.2898
10.4912
10.7005
10.9184
11.1455
11.3792
11.6224
11.8819
12.16
12.4591
12.7819
13.1317
13.5126
13.9293
14.3879
14.8958
15.4627
16.1009
16.8266
17.6617
18.6378
19.7962
21.2126
22.9638
25.3265
28.3276
33.7907
39.8951
64.8402
4.91589
4.91852
4.92504
4.93489
4.94753
4.96274
4.98046
5.00059
5.02304
5.04769
5.07448
5.10332
5.13417
5.16697
5.20169
5.23828
5.27673
5.317
5.35909
5.40296
5.44862
5.49606
5.54527
5.59626
5.64904
5.70361
5.75999
5.81819
5.87823
5.94013
6.00392
6.06962
6.13726
6.20689
6.27852
6.35221
6.428
6.50593
6.58606
6.66845
6.75314
6.8402
6.9297
7.02171
7.11631
7.21356
7.31357
7.41642
7.52221
7.63105
7.74305
7.85833
7.97702
8.09926
8.22518
8.35496
8.48875
8.62675
8.76914
8.91615
9.06798
9.2249
9.38717
9.55508
9.72893
9.90908
10.0959
10.2897
10.4911
10.7005
10.9184
11.1454
11.3792
11.6223
11.8819
12.1599
12.459
12.7818
13.1316
13.5124
13.9291
14.3877
14.8956
15.4625
16.1005
16.8262
17.6612
18.6371
19.7952
21.2112
22.9617
25.3225
28.3216
33.7661
39.8467
64.0986
4.91589
4.91852
4.92504
4.93489
4.94753
4.96274
4.98046
5.00059
5.02304
5.04769
5.07447
5.10332
5.13417
5.16697
5.20169
5.23828
5.27673
5.317
5.35909
5.40296
5.44862
5.49605
5.54526
5.59626
5.64904
5.70361
5.75999
5.81819
5.87823
5.94013
6.00392
6.06962
6.13726
6.20688
6.27852
6.35221
6.42799
6.50593
6.58606
6.66844
6.75314
6.8402
6.9297
7.02171
7.1163
7.21356
7.31357
7.41642
7.52221
7.63105
7.74305
7.85833
7.97701
8.09925
8.22517
8.35495
8.48874
8.62674
8.76913
8.91613
9.06797
9.22489
9.38715
9.55506
9.72891
9.90905
10.0958
10.2897
10.4911
10.7005
10.9184
11.1454
11.3791
11.6223
11.8818
12.1598
12.4589
12.7817
13.1315
13.5123
13.929
14.3875
14.8954
15.4622
16.1002
16.8257
17.6606
18.6363
19.7942
21.2096
22.9594
25.3182
28.3149
33.7392
39.7942
63.3584
4.91589
4.91852
4.92504
4.93489
4.94753
4.96274
4.98046
5.00059
5.02304
5.04769
5.07447
5.10332
5.13417
5.16697
5.20169
5.23828
5.27673
5.317
5.35909
5.40296
5.44862
5.49605
5.54526
5.59626
5.64904
5.70361
5.75999
5.81819
5.87823
5.94013
6.00391
6.06962
6.13726
6.20688
6.27852
6.35221
6.42799
6.50593
6.58606
6.66844
6.75313
6.8402
6.9297
7.0217
7.1163
7.21355
7.31356
7.41641
7.5222
7.63104
7.74304
7.85832
7.97701
8.09924
8.22516
8.35494
8.48873
8.62672
8.76912
8.91611
9.06795
9.22487
9.38713
9.55503
9.72888
9.90902
10.0958
10.2897
10.491
10.7004
10.9183
11.1453
11.3791
11.6222
11.8817
12.1597
12.4588
12.7816
13.1313
13.5121
13.9288
14.3873
14.8951
15.4618
16.0998
16.8252
17.6599
18.6354
19.7929
21.2078
22.9568
25.3133
28.3076
33.7098
39.7375
62.6199
4.91589
4.91852
4.92504
4.93489
4.94753
4.96274
4.98046
5.00059
5.02304
5.04769
5.07447
5.10332
5.13417
5.16697
5.20169
5.23828
5.27673
5.317
5.35909
5.40296
5.44862
5.49605
5.54526
5.59626
5.64903
5.70361
5.75999
5.81819
5.87823
5.94013
6.00391
6.06961
6.13726
6.20688
6.27852
6.3522
6.42799
6.50592
6.58606
6.66844
6.75313
6.84019
6.92969
7.0217
7.11629
7.21355
7.31356
7.41641
7.5222
7.63103
7.74303
7.85831
7.977
8.09923
8.22515
8.35492
8.48872
8.62671
8.7691
8.9161
9.06793
9.22484
9.38711
9.555
9.72885
9.90899
10.0958
10.2896
10.491
10.7004
10.9183
11.1452
11.379
11.6221
11.8816
12.1596
12.4587
12.7814
13.1312
13.512
13.9286
14.387
14.8948
15.4615
16.0993
16.8246
17.6592
18.6344
19.7916
21.2058
22.9539
25.308
28.2994
33.6781
39.6764
61.8834
4.91589
4.91852
4.92504
4.93489
4.94753
4.96274
4.98046
5.00059
5.02304
5.04769
5.07447
5.10332
5.13417
5.16697
5.20168
5.23828
5.27673
5.317
5.35908
5.40296
5.44862
5.49605
5.54526
5.59625
5.64903
5.70361
5.75999
5.81819
5.87822
5.94013
6.00391
6.06961
6.13726
6.20688
6.27851
6.3522
6.42799
6.50592
6.58605
6.66843
6.75313
6.84019
6.92969
7.0217
7.11629
7.21354
7.31355
7.4164
7.52219
7.63102
7.74302
7.8583
7.97699
8.09922
8.22514
8.35491
8.4887
8.62669
8.76908
8.91608
9.06791
9.22482
9.38708
9.55498
9.72882
9.90895
10.0957
10.2896
10.491
10.7003
10.9182
11.1452
11.3789
11.622
11.8815
12.1595
12.4585
12.7813
13.131
13.5118
13.9283
14.3868
14.8945
15.4611
16.0988
16.824
17.6584
18.6333
19.7902
21.2037
22.9508
25.3022
28.2905
33.6438
39.6109
61.1491
4.91589
4.91852
4.92504
4.93489
4.94753
4.96274
4.98046
5.00059
5.02304
5.04769
5.07447
5.10332
5.13416
5.16697
5.20168
5.23828
5.27673
5.317
5.35908
5.40296
5.44862
5.49605
5.54526
5.59625
5.64903
5.70361
5.75999
5.81818
5.87822
5.94012
6.00391
6.06961
6.13726
6.20688
6.27851
6.3522
6.42798
6.50592
6.58605
6.66843
6.75312
6.84018
6.92968
7.02169
7.11628
7.21354
7.31354
7.41639
7.52218
7.63102
7.74301
7.85829
7.97697
8.0992
8.22513
8.3549
8.48868
8.62667
8.76906
8.91606
9.06788
9.22479
9.38705
9.55494
9.72878
9.90891
10.0957
10.2895
10.4909
10.7002
10.9181
11.1451
11.3788
11.6219
11.8814
12.1594
12.4584
12.7811
13.1308
13.5116
13.9281
14.3865
14.8941
15.4607
16.0983
16.8233
17.6575
18.6322
19.7886
21.2014
22.9473
25.2959
28.2807
33.607
39.5409
60.4172
4.91589
4.91852
4.92504
4.93489
4.94753
4.96274
4.98046
5.00059
5.02304
5.04769
5.07447
5.10332
5.13416
5.16697
5.20168
5.23828
5.27673
5.317
5.35908
5.40296
5.44861
5.49605
5.54526
5.59625
5.64903
5.7036
5.75998
5.81818
5.87822
5.94012
6.00391
6.06961
6.13725
6.20687
6.27851
6.35219
6.42798
6.50591
6.58604
6.66843
6.75312
6.84018
6.92968
7.02168
7.11628
7.21353
7.31353
7.41638
7.52217
7.63101
7.743
7.85828
7.97696
8.09919
8.22511
8.35488
8.48867
8.62665
8.76904
8.91603
9.06786
9.22477
9.38702
9.55491
9.72874
9.90887
10.0956
10.2895
10.4908
10.7002
10.918
11.145
11.3787
11.6218
11.8813
12.1593
12.4582
12.7809
13.1307
13.5113
13.9278
14.3861
14.8938
15.4602
16.0977
16.8226
17.6566
18.6309
19.7869
21.1988
22.9436
25.289
28.27
33.5676
39.4663
59.6881
4.91589
4.91852
4.92504
4.93489
4.94753
4.96274
4.98046
5.00059
5.02304
5.04769
5.07447
5.10332
5.13416
5.16697
5.20168
5.23828
5.27673
5.317
5.35908
5.40296
5.44861
5.49605
5.54526
5.59625
5.64903
5.7036
5.75998
5.81818
5.87822
5.94012
6.00391
6.06961
6.13725
6.20687
6.2785
6.35219
6.42798
6.50591
6.58604
6.66842
6.75311
6.84017
6.92967
7.02168
7.11627
7.21352
7.31353
7.41637
7.52216
7.631
7.74299
7.85827
7.97695
8.09918
8.22509
8.35486
8.48865
8.62663
8.76902
8.91601
9.06783
9.22473
9.38698
9.55487
9.7287
9.90882
10.0956
10.2894
10.4908
10.7001
10.918
11.1449
11.3786
11.6217
11.8812
12.1591
12.4581
12.7808
13.1304
13.5111
13.9275
14.3858
14.8933
15.4597
16.0971
16.8218
17.6556
18.6296
19.785
21.1961
22.9396
25.2816
28.2585
33.5257
39.387
58.9619
4.91589
4.91852
4.92504
4.93489
4.94753
4.96274
4.98046
5.00059
5.02304
5.04769
5.07447
5.10332
5.13416
5.16697
5.20168
5.23828
5.27672
5.317
5.35908
5.40296
5.44861
5.49605
5.54526
5.59625
5.64903
5.7036
5.75998
5.81818
5.87822
5.94012
6.0039
6.0696
6.13725
6.20687
6.2785
6.35219
6.42797
6.50591
6.58604
6.66842
6.75311
6.84017
6.92967
7.02167
7.11626
7.21352
7.31352
7.41636
7.52215
7.63098
7.74298
7.85825
7.97693
8.09916
8.22508
8.35484
8.48863
8.62661
8.76899
8.91598
9.0678
9.2247
9.38695
9.55483
9.72866
9.90877
10.0955
10.2894
10.4907
10.7
10.9179
11.1448
11.3785
11.6216
11.8811
12.159
12.4579
12.7806
13.1302
13.5108
13.9272
14.3854
14.8929
15.4591
16.0964
16.821
17.6544
18.6281
19.783
21.1931
22.9352
25.2736
28.246
33.4811
39.303
58.239
4.91589
4.91852
4.92504
4.93489
4.94753
4.96274
4.98046
5.00059
5.02304
5.04769
5.07447
5.10332
5.13416
5.16697
5.20168
5.23828
5.27672
5.317
5.35908
5.40296
5.44861
5.49605
5.54526
5.59625
5.64903
5.7036
5.75998
5.81818
5.87822
5.94011
6.0039
6.0696
6.13724
6.20686
6.2785
6.35218
6.42797
6.5059
6.58603
6.66841
6.7531
6.84016
6.92966
7.02166
7.11625
7.21351
7.31351
7.41635
7.52214
7.63097
7.74297
7.85824
7.97692
8.09914
8.22506
8.35482
8.4886
8.62659
8.76896
8.91595
9.06777
9.22466
9.38691
9.55479
9.72861
9.90872
10.0955
10.2893
10.4906
10.6999
10.9178
11.1447
11.3784
11.6215
11.8809
12.1588
12.4577
12.7803
13.13
13.5105
13.9269
14.385
14.8924
15.4585
16.0957
16.82
17.6532
18.6265
19.7808
21.1899
22.9305
25.265
28.2325
33.4338
39.2142
57.5195
4.91589
4.91852
4.92504
4.93489
4.94753
4.96274
4.98046
5.00059
5.02304
5.04769
5.07447
5.10331
5.13416
5.16696
5.20168
5.23828
5.27672
5.317
5.35908
5.40295
5.44861
5.49604
5.54525
5.59625
5.64902
5.7036
5.75998
5.81817
5.87821
5.94011
6.0039
6.0696
6.13724
6.20686
6.27849
6.35218
6.42796
6.5059
6.58603
6.66841
6.7531
6.84016
6.92965
7.02166
7.11624
7.2135
7.3135
7.41634
7.52213
7.63096
7.74295
7.85822
7.9769
8.09912
8.22504
8.3548
8.48858
8.62656
8.76893
8.91592
9.06773
9.22463
9.38686
9.55474
9.72856
9.90866
10.0954
10.2892
10.4906
10.6999
10.9177
11.1446
11.3783
11.6213
11.8807
12.1587
12.4575
12.7801
13.1297
13.5102
13.9265
14.3846
14.8919
15.4579
16.0949
16.819
17.652
18.6248
19.7784
21.1865
22.9254
25.2558
28.2179
33.3838
39.1204
56.8038
4.91588
4.91852
4.92504
4.93489
4.94753
4.96274
4.98046
5.00059
5.02303
5.04769
5.07447
5.10331
5.13416
5.16696
5.20168
5.23827
5.27672
5.317
5.35908
5.40295
5.44861
5.49604
5.54525
5.59624
5.64902
5.70359
5.75997
5.81817
5.87821
5.94011
6.00389
6.06959
6.13724
6.20686
6.27849
6.35218
6.42796
6.50589
6.58602
6.6684
6.75309
6.84015
6.92964
7.02165
7.11624
7.21349
7.31349
7.41633
7.52212
7.63095
7.74294
7.85821
7.97688
8.0991
8.22502
8.35478
8.48855
8.62653
8.7689
8.91588
9.06769
9.22458
9.38682
9.55469
9.7285
9.9086
10.0953
10.2892
10.4905
10.6998
10.9176
11.1445
11.3782
11.6212
11.8806
12.1585
12.4573
12.7799
13.1294
13.5099
13.9261
14.3841
14.8913
15.4572
16.094
16.818
17.6506
18.6229
19.7759
21.1828
22.92
25.2459
28.2023
33.331
39.0217
56.0921
4.91588
4.91852
4.92504
4.93489
4.94752
4.96274
4.98046
5.00059
5.02303
5.04769
5.07447
5.10331
5.13416
5.16696
5.20168
5.23827
5.27672
5.31699
5.35908
5.40295
5.44861
5.49604
5.54525
5.59624
5.64902
5.70359
5.75997
5.81817
5.87821
5.94011
6.00389
6.06959
6.13723
6.20685
6.27849
6.35217
6.42795
6.50589
6.58601
6.66839
6.75308
6.84014
6.92964
7.02164
7.11623
7.21348
7.31348
7.41632
7.5221
7.63093
7.74292
7.85819
7.97686
8.09908
8.22499
8.35475
8.48853
8.6265
8.76887
8.91584
9.06765
9.22454
9.38677
9.55463
9.72844
9.90853
10.0953
10.2891
10.4904
10.6997
10.9175
11.1444
11.378
11.621
11.8804
12.1583
12.4571
12.7796
13.1291
13.5095
13.9257
14.3836
14.8907
15.4565
16.0931
16.8168
17.6491
18.6209
19.7732
21.1789
22.9141
25.2353
28.1855
33.2755
38.918
55.3845
4.91588
4.91852
4.92503
4.93489
4.94752
4.96274
4.98045
5.00059
5.02303
5.04769
5.07447
5.10331
5.13416
5.16696
5.20168
5.23827
5.27672
5.31699
5.35907
5.40295
5.4486
5.49604
5.54525
5.59624
5.64902
5.70359
5.75997
5.81817
5.8782
5.9401
6.00389
6.06959
6.13723
6.20685
6.27848
6.35217
6.42795
6.50588
6.58601
6.66839
6.75308
6.84013
6.92963
7.02163
7.11621
7.21346
7.31346
7.41631
7.52209
7.63091
7.7429
7.85817
7.97684
8.09906
8.22497
8.35472
8.4885
8.62647
8.76883
8.9158
9.06761
9.22449
9.38672
9.55457
9.72837
9.90846
10.0952
10.289
10.4903
10.6996
10.9174
11.1442
11.3779
11.6209
11.8802
12.158
12.4568
12.7793
13.1288
13.5091
13.9252
14.3831
14.8901
15.4557
16.0921
16.8156
17.6475
18.6188
19.7703
21.1746
22.9079
25.2241
28.1675
33.2171
38.8093
54.6814
4.91588
4.91852
4.92503
4.93489
4.94752
4.96274
4.98045
5.00059
5.02303
5.04769
5.07447
5.10331
5.13416
5.16696
5.20168
5.23827
5.27672
5.31699
5.35907
5.40295
5.4486
5.49604
5.54525
5.59624
5.64902
5.70359
5.75997
5.81816
5.8782
5.9401
6.00388
6.06958
6.13723
6.20684
6.27848
6.35216
6.42794
6.50587
6.586
6.66838
6.75307
6.84012
6.92962
7.02162
7.1162
7.21345
7.31345
7.41629
7.52207
7.6309
7.74288
7.85815
7.97682
8.09904
8.22494
8.35469
8.48846
8.62643
8.76879
8.91576
9.06756
9.22444
9.38666
9.55451
9.7283
9.90838
10.0951
10.2889
10.4902
10.6994
10.9172
11.1441
11.3777
11.6207
11.88
12.1578
12.4566
12.779
13.1284
13.5087
13.9248
14.3825
14.8894
15.4548
16.0911
16.8143
17.6458
18.6166
19.7672
21.1701
22.9012
25.2121
28.1483
33.1559
38.6954
53.9829
4.91588
4.91851
4.92503
4.93489
4.94752
4.96274
4.98045
5.00059
5.02303
5.04768
5.07447
5.10331
5.13416
5.16696
5.20167
5.23827
5.27672
5.31699
5.35907
5.40295
5.4486
5.49604
5.54524
5.59624
5.64901
5.70358
5.75996
5.81816
5.8782
5.9401
6.00388
6.06958
6.13722
6.20684
6.27847
6.35215
6.42794
6.50587
6.58599
6.66837
6.75306
6.84011
6.92961
7.02161
7.11619
7.21344
7.31344
7.41628
7.52205
7.63088
7.74286
7.85813
7.9768
8.09901
8.22491
8.35466
8.48843
8.62639
8.76875
8.91572
9.06751
9.22438
9.3866
9.55444
9.72823
9.9083
10.095
10.2888
10.4901
10.6993
10.9171
11.1439
11.3775
11.6205
11.8798
12.1576
12.4563
12.7787
13.128
13.5083
13.9242
14.3819
14.8886
15.4539
16.09
16.8129
17.644
18.6141
19.7639
21.1653
22.8941
25.1993
28.1279
33.0918
38.5765
53.2893
4.91588
4.91851
4.92503
4.93489
4.94752
4.96273
4.98045
5.00059
5.02303
5.04768
5.07446
5.10331
5.13415
5.16696
5.20167
5.23827
5.27671
5.31699
5.35907
5.40294
5.4486
5.49603
5.54524
5.59623
5.64901
5.70358
5.75996
5.81816
5.87819
5.94009
6.00388
6.06957
6.13722
6.20683
6.27846
6.35215
6.42793
6.50586
6.58599
6.66836
6.75305
6.8401
6.9296
7.0216
7.11618
7.21343
7.31342
7.41626
7.52204
7.63086
7.74284
7.8581
7.97677
8.09898
8.22488
8.35463
8.48839
8.62635
8.76871
8.91567
9.06746
9.22433
9.38653
9.55437
9.72815
9.90821
10.0949
10.2887
10.4899
10.6992
10.9169
11.1438
11.3773
11.6203
11.8795
12.1573
12.456
12.7783
13.1276
13.5078
13.9237
14.3812
14.8878
15.453
16.0888
16.8114
17.642
18.6116
19.7604
21.1602
22.8866
25.1857
28.1061
33.0247
38.4523
52.6007
4.91588
4.91851
4.92503
4.93488
4.94752
4.96273
4.98045
5.00058
5.02303
5.04768
5.07446
5.10331
5.13415
5.16696
5.20167
5.23827
5.27671
5.31699
5.35907
5.40294
5.4486
5.49603
5.54524
5.59623
5.64901
5.70358
5.75996
5.81815
5.87819
5.94009
6.00387
6.06957
6.13721
6.20683
6.27846
6.35214
6.42792
6.50585
6.58598
6.66835
6.75304
6.84009
6.92959
7.02158
7.11617
7.21341
7.3134
7.41624
7.52202
7.63084
7.74282
7.85808
7.97674
8.09895
8.22485
8.35459
8.48835
8.62631
8.76866
8.91562
9.0674
9.22426
9.38647
9.5543
9.72807
9.90812
10.0948
10.2886
10.4898
10.699
10.9168
11.1436
11.3771
11.62
11.8793
12.157
12.4556
12.778
13.1272
13.5073
13.9231
14.3805
14.887
15.452
16.0875
16.8098
17.64
18.6088
19.7567
21.1547
22.8785
25.1714
28.0829
32.9548
38.3229
51.9174
4.91588
4.91851
4.92503
4.93488
4.94752
4.96273
4.98045
5.00058
5.02303
5.04768
5.07446
5.10331
5.13415
5.16695
5.20167
5.23826
5.27671
5.31698
5.35907
5.40294
5.44859
5.49603
5.54524
5.59623
5.649
5.70358
5.75995
5.81815
5.87819
5.94008
6.00387
6.06956
6.13721
6.20682
6.27845
6.35213
6.42792
6.50584
6.58597
6.66834
6.75303
6.84008
6.92957
7.02157
7.11615
7.2134
7.31339
7.41622
7.522
7.63082
7.74279
7.85805
7.97671
8.09892
8.22481
8.35456
8.48831
8.62627
8.76861
8.91556
9.06734
9.2242
9.38639
9.55422
9.72798
9.90802
10.0947
10.2884
10.4897
10.6989
10.9166
11.1434
11.3769
11.6198
11.879
12.1567
12.4553
12.7776
13.1267
13.5068
13.9225
14.3798
14.8861
15.4509
16.0862
16.8081
17.6378
18.6059
19.7527
21.149
22.87
25.1562
28.0583
32.8818
38.1884
51.2396
4.91588
4.91851
4.92503
4.93488
4.94752
4.96273
4.98045
5.00058
5.02303
5.04768
5.07446
5.1033
5.13415
5.16695
5.20167
5.23826
5.27671
5.31698
5.35906
5.40294
5.44859
5.49603
5.54523
5.59622
5.649
5.70357
5.75995
5.81815
5.87818
5.94008
6.00386
6.06956
6.1372
6.20682
6.27844
6.35213
6.42791
6.50583
6.58596
6.66833
6.75302
6.84007
6.92956
7.02156
7.11614
7.21338
7.31337
7.4162
7.52197
7.63079
7.74277
7.85802
7.97668
8.09889
8.22478
8.35452
8.48827
8.62622
8.76856
8.9155
9.06728
9.22413
9.38631
9.55413
9.72788
9.90792
10.0946
10.2883
10.4895
10.6987
10.9164
11.1432
11.3767
11.6196
11.8787
12.1564
12.4549
12.7772
13.1263
13.5062
13.9218
14.379
14.8852
15.4497
16.0848
16.8063
17.6355
18.6029
19.7485
21.1428
22.8609
25.1401
28.0322
32.8059
38.0486
50.5674
4.91588
4.91851
4.92503
4.93488
4.94752
4.96273
4.98045
5.00058
5.02303
5.04768
5.07446
5.1033
5.13415
5.16695
5.20167
5.23826
5.27671
5.31698
5.35906
5.40293
5.44859
5.49602
5.54523
5.59622
5.649
5.70357
5.75995
5.81814
5.87818
5.94007
6.00386
6.06955
6.13719
6.20681
6.27844
6.35212
6.4279
6.50583
6.58595
6.66832
6.75301
6.84006
6.92955
7.02154
7.11612
7.21336
7.31335
7.41618
7.52195
7.63077
7.74274
7.85799
7.97665
8.09885
8.22474
8.35447
8.48822
8.62617
8.7685
8.91544
9.06721
9.22405
9.38623
9.55404
9.72778
9.9078
10.0945
10.2882
10.4894
10.6986
10.9162
11.143
11.3765
11.6193
11.8784
12.156
12.4545
12.7767
13.1258
13.5056
13.9211
14.3782
14.8842
15.4485
16.0833
16.8044
17.633
18.5996
19.744
21.1363
22.8513
25.1231
28.0046
32.7269
37.9036
49.901
4.91588
4.91851
4.92503
4.93488
4.94752
4.96273
4.98045
5.00058
5.02302
5.04768
5.07446
5.1033
5.13415
5.16695
5.20166
5.23826
5.27671
5.31698
5.35906
5.40293
5.44859
5.49602
5.54523
5.59622
5.64899
5.70356
5.75994
5.81814
5.87817
5.94007
6.00385
6.06955
6.13719
6.2068
6.27843
6.35211
6.42789
6.50582
6.58594
6.66831
6.75299
6.84004
6.92953
7.02152
7.1161
7.21334
7.31333
7.41616
7.52193
7.63074
7.74271
7.85796
7.97662
8.09881
8.2247
8.35443
8.48817
8.62611
8.76844
8.91538
9.06714
9.22397
9.38614
9.55394
9.72768
9.90769
10.0943
10.288
10.4892
10.6984
10.916
11.1428
11.3762
11.619
11.8781
12.1557
12.4541
12.7762
13.1252
13.505
13.9204
14.3773
14.8831
15.4472
16.0816
16.8023
17.6304
18.5961
19.7393
21.1295
22.8412
25.1052
27.9755
32.6449
37.7533
49.2407
4.91587
4.91851
4.92503
4.93488
4.94752
4.96273
4.98045
5.00058
5.02302
5.04768
5.07446
5.1033
5.13415
5.16695
5.20166
5.23826
5.2767
5.31698
5.35906
5.40293
5.44858
5.49602
5.54522
5.59621
5.64899
5.70356
5.75994
5.81813
5.87817
5.94006
6.00384
6.06954
6.13718
6.20679
6.27842
6.3521
6.42788
6.50581
6.58593
6.6683
6.75298
6.84003
6.92952
7.02151
7.11608
7.21332
7.31331
7.41614
7.5219
7.63071
7.74268
7.85793
7.97658
8.09877
8.22465
8.35438
8.48812
8.62605
8.76838
8.91531
9.06706
9.22389
9.38605
9.55384
9.72756
9.90756
10.0942
10.2879
10.4891
10.6982
10.9158
11.1425
11.3759
11.6187
11.8778
12.1553
12.4537
12.7757
13.1246
13.5043
13.9196
14.3764
14.882
15.4459
16.08
16.8002
17.6277
18.5925
19.7343
21.1222
22.8304
25.0864
27.9447
32.5599
37.5978
48.5865
4.91587
4.91851
4.92502
4.93488
4.94751
4.96273
4.98044
5.00058
5.02302
5.04767
5.07445
5.1033
5.13414
5.16695
5.20166
5.23825
5.2767
5.31697
5.35905
5.40293
5.44858
5.49601
5.54522
5.59621
5.64899
5.70356
5.75993
5.81813
5.87816
5.94006
6.00384
6.06953
6.13717
6.20679
6.27841
6.35209
6.42787
6.50579
6.58591
6.66829
6.75297
6.84001
6.9295
7.02149
7.11606
7.2133
7.31328
7.41611
7.52187
7.63068
7.74265
7.85789
7.97654
8.09873
8.22461
8.35433
8.48806
8.62599
8.76831
8.91523
9.06698
9.2238
9.38595
9.55373
9.72744
9.90743
10.0941
10.2877
10.4889
10.698
10.9156
11.1423
11.3757
11.6184
11.8774
12.1549
12.4532
12.7752
13.124
13.5036
13.9188
14.3754
14.8808
15.4444
16.0782
16.7979
17.6248
18.5886
19.729
21.1145
22.8191
25.0665
27.9122
32.4717
37.4371
47.9385
4.91587
4.91851
4.92502
4.93488
4.94751
4.96273
4.98044
5.00057
5.02302
5.04767
5.07445
5.1033
5.13414
5.16694
5.20166
5.23825
5.2767
5.31697
5.35905
5.40292
5.44858
5.49601
5.54522
5.59621
5.64898
5.70355
5.75993
5.81812
5.87816
5.94005
6.00383
6.06953
6.13716
6.20678
6.2784
6.35208
6.42786
6.50578
6.5859
6.66827
6.75295
6.84
6.92948
7.02147
7.11604
7.21328
7.31326
7.41608
7.52185
7.63065
7.74262
7.85786
7.9765
8.09869
8.22456
8.35428
8.48801
8.62593
8.76824
8.91516
9.0669
9.22371
9.38585
9.55362
9.72732
9.90729
10.0939
10.2875
10.4887
10.6978
10.9154
11.142
11.3754
11.6181
11.8771
12.1545
12.4528
12.7747
13.1234
13.5029
13.9179
14.3743
14.8795
15.4429
16.0763
16.7956
17.6217
18.5845
19.7234
21.1065
22.8071
25.0456
27.8779
32.3805
37.2713
47.2971
4.91587
4.9185
4.92502
4.93487
4.94751
4.96272
4.98044
5.00057
5.02302
5.04767
5.07445
5.10329
5.13414
5.16694
5.20166
5.23825
5.2767
5.31697
5.35905
5.40292
5.44857
5.49601
5.54521
5.5962
5.64898
5.70355
5.75992
5.81812
5.87815
5.94004
6.00382
6.06952
6.13716
6.20677
6.27839
6.35207
6.42785
6.50577
6.58589
6.66826
6.75294
6.83998
6.92946
7.02145
7.11602
7.21325
7.31323
7.41606
7.52182
7.63062
7.74258
7.85782
7.97646
8.09864
8.22451
8.35422
8.48794
8.62586
8.76817
8.91508
9.06681
9.22361
9.38574
9.5535
9.72718
9.90714
10.0937
10.2874
10.4885
10.6975
10.9151
11.1417
11.3751
11.6177
11.8767
12.154
12.4522
12.7741
13.1227
13.5021
13.9169
14.3732
14.8782
15.4413
16.0743
16.793
17.6184
18.5802
19.7175
21.0979
22.7945
25.0237
27.8419
32.2862
37.1003
46.6622
4.91587
4.9185
4.92502
4.93487
4.94751
4.96272
4.98044
5.00057
5.02302
5.04767
5.07445
5.10329
5.13414
5.16694
5.20165
5.23825
5.27669
5.31696
5.35904
5.40292
5.44857
5.496
5.54521
5.5962
5.64897
5.70354
5.75992
5.81811
5.87814
5.94004
6.00382
6.06951
6.13715
6.20676
6.27838
6.35206
6.42784
6.50576
6.58587
6.66824
6.75292
6.83996
6.92944
7.02143
7.116
7.21323