/*--------------------------------*- C++ -*----------------------------------*\
| =========                 |                                                 |
| \\      /  F ield         | OpenFOAM: The Open Source CFD Toolbox           |
|  \\    /   O peration     | Version:  v2012                                 |
|   \\  /    A nd           | Website:  www.openfoam.com                      |
|    \\/     M anipulation  |                                                 |
\*---------------------------------------------------------------------------*/
FoamFile
{
    version     2.0;
    format      ascii;
    class       volVectorField;
    location    "1";
    object      wallShearStress;
}
// * * * * * * * * * * * * * * * * * * * * * * * * * * * * * * * * * * * * * //

dimensions      [0 2 -2 0 0 0 0];


internalField   uniform (0 0 0);

boundaryField
{
    inlet
    {
        type            calculated;
        value           uniform (0 0 0);
    }
    outlet
    {
        type            calculated;
        value           uniform (0 0 0);
    }
    topWall
    {
        type            calculated;
        value           nonuniform List<vector> 
545
(
(8.1125e-09 -8.90633e-09 0)
(8.13248e-09 -2.51315e-08 0)
(8.06231e-09 -4.18029e-08 0)
(8.03261e-09 -5.79598e-08 0)
(8.00962e-09 -7.33936e-08 0)
(7.98606e-09 -8.83007e-08 0)
(7.9601e-09 -1.02818e-07 0)
(7.93143e-09 -1.16944e-07 0)
(7.9002e-09 -1.30649e-07 0)
(7.86665e-09 -1.43926e-07 0)
(7.83101e-09 -1.56792e-07 0)
(7.79349e-09 -1.6926e-07 0)
(7.75427e-09 -1.81342e-07 0)
(7.71354e-09 -1.93045e-07 0)
(7.67148e-09 -2.04378e-07 0)
(7.62824e-09 -2.15351e-07 0)
(7.58399e-09 -2.25975e-07 0)
(7.53887e-09 -2.36257e-07 0)
(7.493e-09 -2.46207e-07 0)
(7.44651e-09 -2.55836e-07 0)
(7.39951e-09 -2.65151e-07 0)
(7.3521e-09 -2.74164e-07 0)
(7.30438e-09 -2.82882e-07 0)
(7.25644e-09 -2.91315e-07 0)
(7.20836e-09 -2.99472e-07 0)
(7.16021e-09 -3.0736e-07 0)
(7.11206e-09 -3.14989e-07 0)
(7.06396e-09 -3.22367e-07 0)
(7.01599e-09 -3.29501e-07 0)
(6.96818e-09 -3.364e-07 0)
(6.92058e-09 -3.43072e-07 0)
(6.87324e-09 -3.49523e-07 0)
(6.82619e-09 -3.55761e-07 0)
(6.77946e-09 -3.61793e-07 0)
(6.73307e-09 -3.67625e-07 0)
(6.68707e-09 -3.73265e-07 0)
(6.64146e-09 -3.78719e-07 0)
(6.59626e-09 -3.83993e-07 0)
(6.55149e-09 -3.89092e-07 0)
(6.50715e-09 -3.94024e-07 0)
(6.46327e-09 -3.98793e-07 0)
(6.41985e-09 -4.03406e-07 0)
(6.37688e-09 -4.07866e-07 0)
(6.33438e-09 -4.1218e-07 0)
(6.29234e-09 -4.16352e-07 0)
(6.25076e-09 -4.20388e-07 0)
(6.20965e-09 -4.24291e-07 0)
(6.16899e-09 -4.28066e-07 0)
(6.12878e-09 -4.31717e-07 0)
(6.08902e-09 -4.3525e-07 0)
(6.0497e-09 -4.38666e-07 0)
(6.0108e-09 -4.41972e-07 0)
(5.97232e-09 -4.45169e-07 0)
(5.93424e-09 -4.48262e-07 0)
(5.89656e-09 -4.51255e-07 0)
(5.85926e-09 -4.5415e-07 0)
(5.82233e-09 -4.56951e-07 0)
(5.78576e-09 -4.59661e-07 0)
(5.74952e-09 -4.62283e-07 0)
(5.71361e-09 -4.6482e-07 0)
(5.678e-09 -4.67275e-07 0)
(5.64269e-09 -4.6965e-07 0)
(5.60764e-09 -4.71948e-07 0)
(5.57286e-09 -4.74172e-07 0)
(5.53831e-09 -4.76323e-07 0)
(5.50398e-09 -4.78405e-07 0)
(5.46985e-09 -4.8042e-07 0)
(5.43588e-09 -4.82368e-07 0)
(5.40217e-09 -4.84256e-07 0)
(5.36819e-09 -4.86075e-07 0)
(5.33605e-09 -4.87866e-07 0)
(5.29674e-09 -4.89525e-07 0)
(5.26022e-09 -4.91151e-07 0)
(5.23611e-09 -4.92801e-07 0)
(5.21226e-09 -4.94328e-07 0)
(5.1885e-09 -4.95841e-07 0)
(5.16476e-09 -4.97377e-07 0)
(5.14103e-09 -4.98907e-07 0)
(5.11728e-09 -5.00413e-07 0)
(5.09353e-09 -5.01897e-07 0)
(5.06978e-09 -5.03368e-07 0)
(5.04601e-09 -5.04828e-07 0)
(5.02224e-09 -5.06277e-07 0)
(4.99847e-09 -5.07714e-07 0)
(4.97468e-09 -5.09136e-07 0)
(4.95089e-09 -5.10544e-07 0)
(4.9271e-09 -5.11938e-07 0)
(4.9033e-09 -5.13319e-07 0)
(4.87949e-09 -5.14687e-07 0)
(4.85566e-09 -5.16042e-07 0)
(4.83188e-09 -5.17388e-07 0)
(4.80788e-09 -5.18714e-07 0)
(4.78474e-09 -5.20049e-07 0)
(4.75799e-09 -5.21303e-07 0)
(4.74603e-09 -5.22821e-07 0)
(4.67226e-09 -5.23784e-07 0)
(4.57927e-09 -5.24741e-07 0)
(4.55333e-09 -5.26262e-07 0)
(4.53382e-09 -5.27189e-07 0)
(4.51613e-09 -5.27989e-07 0)
(4.49879e-09 -5.28962e-07 0)
(4.4815e-09 -5.3003e-07 0)
(4.46415e-09 -5.31066e-07 0)
(4.44674e-09 -5.32049e-07 0)
(4.42925e-09 -5.33015e-07 0)
(4.4117e-09 -5.33989e-07 0)
(4.39407e-09 -5.34976e-07 0)
(4.37636e-09 -5.3597e-07 0)
(4.35859e-09 -5.36964e-07 0)
(4.34074e-09 -5.37952e-07 0)
(4.32281e-09 -5.38932e-07 0)
(4.30481e-09 -5.39906e-07 0)
(4.28674e-09 -5.40879e-07 0)
(4.2686e-09 -5.41852e-07 0)
(4.25038e-09 -5.42827e-07 0)
(4.23209e-09 -5.43802e-07 0)
(4.21372e-09 -5.44774e-07 0)
(4.19529e-09 -5.45743e-07 0)
(4.17678e-09 -5.46708e-07 0)
(4.15819e-09 -5.4767e-07 0)
(4.13954e-09 -5.48631e-07 0)
(4.12081e-09 -5.49591e-07 0)
(4.10201e-09 -5.50549e-07 0)
(4.08313e-09 -5.51505e-07 0)
(4.06419e-09 -5.5246e-07 0)
(4.04517e-09 -5.53411e-07 0)
(4.02608e-09 -5.5436e-07 0)
(4.00692e-09 -5.55307e-07 0)
(3.98768e-09 -5.56251e-07 0)
(3.96838e-09 -5.57192e-07 0)
(3.949e-09 -5.58132e-07 0)
(3.92956e-09 -5.59069e-07 0)
(3.91004e-09 -5.60004e-07 0)
(3.89045e-09 -5.60937e-07 0)
(3.87079e-09 -5.61867e-07 0)
(3.85106e-09 -5.62795e-07 0)
(3.83126e-09 -5.6372e-07 0)
(3.81139e-09 -5.64642e-07 0)
(3.79144e-09 -5.65561e-07 0)
(3.77143e-09 -5.66478e-07 0)
(3.75135e-09 -5.67392e-07 0)
(3.7312e-09 -5.68304e-07 0)
(3.71098e-09 -5.69212e-07 0)
(3.6907e-09 -5.70118e-07 0)
(3.67034e-09 -5.71021e-07 0)
(3.64991e-09 -5.71921e-07 0)
(3.62942e-09 -5.72818e-07 0)
(3.60886e-09 -5.73713e-07 0)
(3.58823e-09 -5.74604e-07 0)
(3.56753e-09 -5.75492e-07 0)
(3.54677e-09 -5.76378e-07 0)
(3.52594e-09 -5.7726e-07 0)
(3.50504e-09 -5.78138e-07 0)
(3.48407e-09 -5.79014e-07 0)
(3.46304e-09 -5.79887e-07 0)
(3.44194e-09 -5.80756e-07 0)
(3.42078e-09 -5.81622e-07 0)
(3.39955e-09 -5.82485e-07 0)
(3.37826e-09 -5.83344e-07 0)
(3.3569e-09 -5.842e-07 0)
(3.33547e-09 -5.85052e-07 0)
(3.31398e-09 -5.85902e-07 0)
(3.29243e-09 -5.86747e-07 0)
(3.27081e-09 -5.87589e-07 0)
(3.24913e-09 -5.88428e-07 0)
(3.22739e-09 -5.89262e-07 0)
(3.20558e-09 -5.90094e-07 0)
(3.18371e-09 -5.90921e-07 0)
(3.16178e-09 -5.91745e-07 0)
(3.13979e-09 -5.92565e-07 0)
(3.11773e-09 -5.93381e-07 0)
(3.09561e-09 -5.94193e-07 0)
(3.07344e-09 -5.95001e-07 0)
(3.0512e-09 -5.95806e-07 0)
(3.0289e-09 -5.96606e-07 0)
(3.00654e-09 -5.97403e-07 0)
(2.98412e-09 -5.98195e-07 0)
(2.96165e-09 -5.98984e-07 0)
(2.93911e-09 -5.99768e-07 0)
(2.91652e-09 -6.00548e-07 0)
(2.89387e-09 -6.01324e-07 0)
(2.87116e-09 -6.02095e-07 0)
(2.84839e-09 -6.02863e-07 0)
(2.82557e-09 -6.03626e-07 0)
(2.80269e-09 -6.04385e-07 0)
(2.77976e-09 -6.05139e-07 0)
(2.75677e-09 -6.05889e-07 0)
(2.73372e-09 -6.06634e-07 0)
(2.71062e-09 -6.07375e-07 0)
(2.68747e-09 -6.08111e-07 0)
(2.66426e-09 -6.08843e-07 0)
(2.641e-09 -6.0957e-07 0)
(2.61769e-09 -6.10292e-07 0)
(2.59433e-09 -6.1101e-07 0)
(2.57091e-09 -6.11722e-07 0)
(2.54744e-09 -6.12431e-07 0)
(2.52393e-09 -6.13134e-07 0)
(2.50036e-09 -6.13832e-07 0)
(2.47674e-09 -6.14525e-07 0)
(2.45308e-09 -6.15214e-07 0)
(2.42936e-09 -6.15897e-07 0)
(2.4056e-09 -6.16576e-07 0)
(2.38179e-09 -6.17249e-07 0)
(2.35794e-09 -6.17917e-07 0)
(2.33403e-09 -6.1858e-07 0)
(2.31009e-09 -6.19238e-07 0)
(2.28609e-09 -6.1989e-07 0)
(2.26206e-09 -6.20537e-07 0)
(2.23798e-09 -6.21179e-07 0)
(2.21385e-09 -6.21816e-07 0)
(2.18969e-09 -6.22447e-07 0)
(2.16548e-09 -6.23072e-07 0)
(2.14123e-09 -6.23692e-07 0)
(2.11694e-09 -6.24307e-07 0)
(2.0926e-09 -6.24916e-07 0)
(2.06823e-09 -6.25519e-07 0)
(2.04382e-09 -6.26117e-07 0)
(2.01938e-09 -6.26709e-07 0)
(1.99489e-09 -6.27295e-07 0)
(1.97037e-09 -6.27875e-07 0)
(1.94581e-09 -6.2845e-07 0)
(1.92122e-09 -6.29019e-07 0)
(1.89659e-09 -6.29582e-07 0)
(1.87192e-09 -6.30138e-07 0)
(1.84723e-09 -6.30689e-07 0)
(1.8225e-09 -6.31234e-07 0)
(1.79774e-09 -6.31773e-07 0)
(1.77294e-09 -6.32305e-07 0)
(1.74812e-09 -6.32832e-07 0)
(1.72326e-09 -6.33352e-07 0)
(1.69838e-09 -6.33866e-07 0)
(1.67347e-09 -6.34374e-07 0)
(1.64853e-09 -6.34875e-07 0)
(1.62357e-09 -6.3537e-07 0)
(1.59857e-09 -6.35858e-07 0)
(1.57356e-09 -6.36341e-07 0)
(1.54851e-09 -6.36816e-07 0)
(1.52345e-09 -6.37285e-07 0)
(1.49836e-09 -6.37748e-07 0)
(1.47325e-09 -6.38204e-07 0)
(1.44811e-09 -6.38653e-07 0)
(1.42296e-09 -6.39096e-07 0)
(1.39779e-09 -6.39531e-07 0)
(1.37259e-09 -6.3996e-07 0)
(1.34738e-09 -6.40383e-07 0)
(1.32215e-09 -6.40798e-07 0)
(1.29691e-09 -6.41207e-07 0)
(1.27165e-09 -6.41608e-07 0)
(1.24638e-09 -6.42003e-07 0)
(1.22109e-09 -6.4239e-07 0)
(1.19578e-09 -6.42771e-07 0)
(1.17047e-09 -6.43144e-07 0)
(1.14515e-09 -6.4351e-07 0)
(1.11981e-09 -6.4387e-07 0)
(1.09447e-09 -6.44221e-07 0)
(1.06911e-09 -6.44566e-07 0)
(1.04375e-09 -6.44903e-07 0)
(1.01839e-09 -6.45233e-07 0)
(9.93012e-10 -6.45556e-07 0)
(9.67635e-10 -6.45871e-07 0)
(9.42253e-10 -6.46179e-07 0)
(9.16872e-10 -6.4648e-07 0)
(8.91476e-10 -6.46772e-07 0)
(8.66134e-10 -6.47059e-07 0)
(8.40566e-10 -6.4733e-07 0)
(8.1592e-10 -6.47624e-07 0)
(7.87476e-10 -6.4782e-07 0)
(7.74439e-10 -6.48381e-07 0)
(6.97428e-10 -6.48204e-07 0)
(5.95016e-10 -6.48139e-07 0)
(5.62814e-10 -6.49005e-07 0)
(5.45076e-10 -6.49127e-07 0)
(5.31203e-10 -6.49033e-07 0)
(5.18037e-10 -6.49117e-07 0)
(5.04905e-10 -6.49333e-07 0)
(4.91623e-10 -6.49547e-07 0)
(4.78156e-10 -6.49716e-07 0)
(4.64491e-10 -6.49858e-07 0)
(4.50623e-10 -6.4999e-07 0)
(4.36552e-10 -6.5012e-07 0)
(4.22276e-10 -6.50254e-07 0)
(4.07796e-10 -6.50395e-07 0)
(3.93112e-10 -6.50537e-07 0)
(3.78222e-10 -6.50675e-07 0)
(3.63127e-10 -6.50804e-07 0)
(3.47826e-10 -6.50924e-07 0)
(3.32319e-10 -6.51038e-07 0)
(3.16607e-10 -6.5115e-07 0)
(3.0069e-10 -6.5126e-07 0)
(2.84567e-10 -6.51367e-07 0)
(2.68239e-10 -6.51469e-07 0)
(2.51704e-10 -6.51567e-07 0)
(2.34965e-10 -6.51658e-07 0)
(2.1802e-10 -6.51743e-07 0)
(2.00871e-10 -6.51823e-07 0)
(1.83518e-10 -6.51896e-07 0)
(1.6596e-10 -6.51963e-07 0)
(1.48199e-10 -6.52025e-07 0)
(1.30235e-10 -6.5208e-07 0)
(1.12069e-10 -6.52129e-07 0)
(9.37007e-11 -6.52171e-07 0)
(7.51315e-11 -6.52205e-07 0)
(5.6362e-11 -6.52233e-07 0)
(3.7393e-11 -6.52252e-07 0)
(1.82254e-11 -6.52264e-07 0)
(-1.13971e-12 -6.52267e-07 0)
(-2.07014e-11 -6.52262e-07 0)
(-4.04584e-11 -6.52248e-07 0)
(-6.04094e-11 -6.52226e-07 0)
(-8.05533e-11 -6.52194e-07 0)
(-1.00889e-10 -6.52152e-07 0)
(-1.21414e-10 -6.52101e-07 0)
(-1.42127e-10 -6.5204e-07 0)
(-1.63028e-10 -6.51968e-07 0)
(-1.84113e-10 -6.51885e-07 0)
(-2.05381e-10 -6.51792e-07 0)
(-2.26831e-10 -6.51687e-07 0)
(-2.48459e-10 -6.5157e-07 0)
(-2.70264e-10 -6.51441e-07 0)
(-2.92244e-10 -6.513e-07 0)
(-3.14396e-10 -6.51146e-07 0)
(-3.36717e-10 -6.5098e-07 0)
(-3.59206e-10 -6.50799e-07 0)
(-3.81858e-10 -6.50606e-07 0)
(-4.04673e-10 -6.50397e-07 0)
(-4.27645e-10 -6.50175e-07 0)
(-4.50772e-10 -6.49938e-07 0)
(-4.74052e-10 -6.49685e-07 0)
(-4.9748e-10 -6.49417e-07 0)
(-5.21052e-10 -6.49132e-07 0)
(-5.44766e-10 -6.48832e-07 0)
(-5.68618e-10 -6.48514e-07 0)
(-5.92603e-10 -6.48179e-07 0)
(-6.16717e-10 -6.47827e-07 0)
(-6.40956e-10 -6.47457e-07 0)
(-6.65315e-10 -6.47068e-07 0)
(-6.89791e-10 -6.4666e-07 0)
(-7.14378e-10 -6.46233e-07 0)
(-7.39071e-10 -6.45786e-07 0)
(-7.63865e-10 -6.45319e-07 0)
(-7.88755e-10 -6.44831e-07 0)
(-8.13736e-10 -6.44322e-07 0)
(-8.38802e-10 -6.43791e-07 0)
(-8.63947e-10 -6.43238e-07 0)
(-8.89165e-10 -6.42663e-07 0)
(-9.14451e-10 -6.42065e-07 0)
(-9.39797e-10 -6.41444e-07 0)
(-9.65198e-10 -6.40798e-07 0)
(-9.90647e-10 -6.40128e-07 0)
(-1.01614e-09 -6.39433e-07 0)
(-1.04166e-09 -6.38713e-07 0)
(-1.06721e-09 -6.37967e-07 0)
(-1.09278e-09 -6.37194e-07 0)
(-1.11837e-09 -6.36395e-07 0)
(-1.14395e-09 -6.35568e-07 0)
(-1.16953e-09 -6.34713e-07 0)
(-1.19511e-09 -6.3383e-07 0)
(-1.22066e-09 -6.32918e-07 0)
(-1.24618e-09 -6.31977e-07 0)
(-1.27166e-09 -6.31006e-07 0)
(-1.2971e-09 -6.30004e-07 0)
(-1.32248e-09 -6.28971e-07 0)
(-1.3478e-09 -6.27907e-07 0)
(-1.37305e-09 -6.26812e-07 0)
(-1.39821e-09 -6.25683e-07 0)
(-1.42327e-09 -6.24522e-07 0)
(-1.44823e-09 -6.23327e-07 0)
(-1.47308e-09 -6.22099e-07 0)
(-1.4978e-09 -6.20835e-07 0)
(-1.52239e-09 -6.19537e-07 0)
(-1.54683e-09 -6.18204e-07 0)
(-1.57112e-09 -6.16835e-07 0)
(-1.59523e-09 -6.15429e-07 0)
(-1.61917e-09 -6.13987e-07 0)
(-1.64291e-09 -6.12507e-07 0)
(-1.66645e-09 -6.10989e-07 0)
(-1.68978e-09 -6.09433e-07 0)
(-1.71288e-09 -6.07839e-07 0)
(-1.73574e-09 -6.06205e-07 0)
(-1.75835e-09 -6.04532e-07 0)
(-1.7807e-09 -6.02819e-07 0)
(-1.80278e-09 -6.01066e-07 0)
(-1.82457e-09 -5.99272e-07 0)
(-1.84606e-09 -5.97437e-07 0)
(-1.86725e-09 -5.9556e-07 0)
(-1.88811e-09 -5.93641e-07 0)
(-1.90863e-09 -5.9168e-07 0)
(-1.92881e-09 -5.89677e-07 0)
(-1.94863e-09 -5.87631e-07 0)
(-1.96808e-09 -5.85542e-07 0)
(-1.98715e-09 -5.83409e-07 0)
(-2.00583e-09 -5.81232e-07 0)
(-2.0241e-09 -5.79012e-07 0)
(-2.04196e-09 -5.76747e-07 0)
(-2.05938e-09 -5.74437e-07 0)
(-2.07637e-09 -5.72083e-07 0)
(-2.09291e-09 -5.69685e-07 0)
(-2.10898e-09 -5.67241e-07 0)
(-2.12459e-09 -5.64752e-07 0)
(-2.13971e-09 -5.62218e-07 0)
(-2.15433e-09 -5.59638e-07 0)
(-2.16846e-09 -5.57013e-07 0)
(-2.18206e-09 -5.54342e-07 0)
(-2.19514e-09 -5.51626e-07 0)
(-2.20769e-09 -5.48864e-07 0)
(-2.21969e-09 -5.46056e-07 0)
(-2.23114e-09 -5.43203e-07 0)
(-2.24202e-09 -5.40305e-07 0)
(-2.25233e-09 -5.37361e-07 0)
(-2.26206e-09 -5.34372e-07 0)
(-2.27121e-09 -5.31338e-07 0)
(-2.27975e-09 -5.28259e-07 0)
(-2.28769e-09 -5.25135e-07 0)
(-2.29502e-09 -5.21967e-07 0)
(-2.30173e-09 -5.18754e-07 0)
(-2.30781e-09 -5.15498e-07 0)
(-2.31326e-09 -5.12198e-07 0)
(-2.31808e-09 -5.08854e-07 0)
(-2.32225e-09 -5.05468e-07 0)
(-2.32578e-09 -5.02039e-07 0)
(-2.32866e-09 -4.98569e-07 0)
(-2.33089e-09 -4.95056e-07 0)
(-2.33246e-09 -4.91503e-07 0)
(-2.33336e-09 -4.87909e-07 0)
(-2.33361e-09 -4.84275e-07 0)
(-2.3332e-09 -4.80602e-07 0)
(-2.33212e-09 -4.7689e-07 0)
(-2.33037e-09 -4.7314e-07 0)
(-2.32796e-09 -4.69353e-07 0)
(-2.32489e-09 -4.65529e-07 0)
(-2.32116e-09 -4.61669e-07 0)
(-2.31676e-09 -4.57774e-07 0)
(-2.31171e-09 -4.53845e-07 0)
(-2.306e-09 -4.49883e-07 0)
(-2.29963e-09 -4.45887e-07 0)
(-2.29262e-09 -4.4186e-07 0)
(-2.28497e-09 -4.37803e-07 0)
(-2.27667e-09 -4.33715e-07 0)
(-2.26774e-09 -4.29599e-07 0)
(-2.25819e-09 -4.25455e-07 0)
(-2.24801e-09 -4.21284e-07 0)
(-2.23721e-09 -4.17088e-07 0)
(-2.22581e-09 -4.12866e-07 0)
(-2.21381e-09 -4.08623e-07 0)
(-2.20121e-09 -4.04352e-07 0)
(-2.18802e-09 -4.00076e-07 0)
(-2.17432e-09 -3.95725e-07 0)
(-2.15973e-09 -3.91511e-07 0)
(-2.1459e-09 -3.86615e-07 0)
(-2.12495e-09 -3.82985e-07 0)
(-2.09197e-09 -3.78572e-07 0)
(-2.06208e-09 -3.72222e-07 0)
(-2.04059e-09 -3.67156e-07 0)
(-2.02114e-09 -3.62269e-07 0)
(-2.00174e-09 -3.57229e-07 0)
(-1.98201e-09 -3.52147e-07 0)
(-1.96187e-09 -3.47127e-07 0)
(-1.94137e-09 -3.4217e-07 0)
(-1.92057e-09 -3.37258e-07 0)
(-1.89946e-09 -3.32397e-07 0)
(-1.87807e-09 -3.27601e-07 0)
(-1.85641e-09 -3.22873e-07 0)
(-1.83453e-09 -3.18203e-07 0)
(-1.81245e-09 -3.13584e-07 0)
(-1.79019e-09 -3.09015e-07 0)
(-1.76777e-09 -3.04498e-07 0)
(-1.74522e-09 -3.00037e-07 0)
(-1.72255e-09 -2.95635e-07 0)
(-1.69977e-09 -2.91292e-07 0)
(-1.6769e-09 -2.87008e-07 0)
(-1.65395e-09 -2.82784e-07 0)
(-1.63094e-09 -2.78619e-07 0)
(-1.60788e-09 -2.74513e-07 0)
(-1.58479e-09 -2.70464e-07 0)
(-1.56166e-09 -2.66474e-07 0)
(-1.53852e-09 -2.62542e-07 0)
(-1.51537e-09 -2.58668e-07 0)
(-1.49222e-09 -2.54852e-07 0)
(-1.46907e-09 -2.51095e-07 0)
(-1.44594e-09 -2.47397e-07 0)
(-1.42283e-09 -2.43758e-07 0)
(-1.39974e-09 -2.40178e-07 0)
(-1.37668e-09 -2.36656e-07 0)
(-1.35366e-09 -2.33193e-07 0)
(-1.33067e-09 -2.29789e-07 0)
(-1.30773e-09 -2.26442e-07 0)
(-1.28483e-09 -2.23154e-07 0)
(-1.26198e-09 -2.19924e-07 0)
(-1.23918e-09 -2.16751e-07 0)
(-1.21644e-09 -2.13637e-07 0)
(-1.19375e-09 -2.1058e-07 0)
(-1.17111e-09 -2.0758e-07 0)
(-1.14854e-09 -2.04638e-07 0)
(-1.12602e-09 -2.01753e-07 0)
(-1.10357e-09 -1.98925e-07 0)
(-1.08118e-09 -1.96153e-07 0)
(-1.05885e-09 -1.93439e-07 0)
(-1.03658e-09 -1.90781e-07 0)
(-1.01438e-09 -1.8818e-07 0)
(-9.92242e-10 -1.85635e-07 0)
(-9.70166e-10 -1.83145e-07 0)
(-9.48154e-10 -1.80712e-07 0)
(-9.26205e-10 -1.78335e-07 0)
(-9.04319e-10 -1.76013e-07 0)
(-8.82496e-10 -1.73747e-07 0)
(-8.60733e-10 -1.71536e-07 0)
(-8.39033e-10 -1.6938e-07 0)
(-8.17393e-10 -1.67279e-07 0)
(-7.95812e-10 -1.65232e-07 0)
(-7.74289e-10 -1.63241e-07 0)
(-7.52823e-10 -1.61304e-07 0)
(-7.31412e-10 -1.59421e-07 0)
(-7.10057e-10 -1.57593e-07 0)
(-6.88752e-10 -1.55818e-07 0)
(-6.675e-10 -1.54098e-07 0)
(-6.46295e-10 -1.52431e-07 0)
(-6.2514e-10 -1.50819e-07 0)
(-6.04028e-10 -1.49259e-07 0)
(-5.82963e-10 -1.47754e-07 0)
(-5.61938e-10 -1.46301e-07 0)
(-5.40956e-10 -1.44902e-07 0)
(-5.20011e-10 -1.43557e-07 0)
(-4.99107e-10 -1.42264e-07 0)
(-4.78235e-10 -1.41024e-07 0)
(-4.57403e-10 -1.39838e-07 0)
(-4.366e-10 -1.38704e-07 0)
(-4.15834e-10 -1.37623e-07 0)
(-3.95096e-10 -1.36594e-07 0)
(-3.74391e-10 -1.35619e-07 0)
(-3.53716e-10 -1.34696e-07 0)
(-3.33075e-10 -1.33825e-07 0)
(-3.12469e-10 -1.33007e-07 0)
(-2.91909e-10 -1.32241e-07 0)
(-2.71401e-10 -1.31527e-07 0)
(-2.50962e-10 -1.30866e-07 0)
(-2.30603e-10 -1.30256e-07 0)
(-2.1033e-10 -1.29695e-07 0)
(-1.90121e-10 -1.29195e-07 0)
(-1.69879e-10 -1.28708e-07 0)
(-1.49492e-10 -1.28395e-07 0)
(-1.28445e-10 -1.27715e-07 0)
(-1.07873e-10 -1.28434e-07 0)
(-8.3675e-11 -1.2439e-07 0)
(-7.61352e-11 -1.34362e-07 0)
(-4.14969e-11 -1.17159e-07 0)
)
;
    }
    bottomWall
    {
        type            calculated;
        value           nonuniform List<vector> 
449
(
(-46.5261 -0.879973 0)
(-20.1297 -0.221986 0)
(-14.2562 -0.0269347 0)
(-11.9398 -0.0146404 0)
(-10.575 -0.0106575 0)
(-9.62883 -0.00804082 0)
(-8.88612 -0.00644046 0)
(-8.28511 -0.0052131 0)
(-7.79184 -0.00431893 0)
(-7.37732 -0.00367379 0)
(-7.02133 -0.00317941 0)
(-6.71107 -0.00278293 0)
(-6.43773 -0.00245991 0)
(-6.1946 -0.00219425 0)
(-5.97648 -0.0019729 0)
(-5.77933 -0.00178591 0)
(-5.59999 -0.00162618 0)
(-5.43594 -0.00148855 0)
(-5.28511 -0.00136902 0)
(-5.14582 -0.00126444 0)
(-5.01665 -0.00117228 0)
(-4.89644 -0.00109058 0)
(-4.78418 -0.00101774 0)
(-4.67905 -0.000952493 0)
(-4.58031 -0.000893793 0)
(-4.48734 -0.000840759 0)
(-4.3996 -0.000792662 0)
(-4.31661 -0.000748876 0)
(-4.23794 -0.000708878 0)
(-4.16325 -0.000672225 0)
(-4.0922 -0.000638535 0)
(-4.02451 -0.000607492 0)
(-3.95991 -0.000578812 0)
(-3.89818 -0.000552257 0)
(-3.83911 -0.000527614 0)
(-3.78251 -0.000504697 0)
(-3.72821 -0.000483343 0)
(-3.67607 -0.000463406 0)
(-3.62593 -0.000444758 0)
(-3.57768 -0.000427283 0)
(-3.53119 -0.000410884 0)
(-3.48637 -0.000395468 0)
(-3.44311 -0.000380957 0)
(-3.40132 -0.000367279 0)
(-3.36093 -0.000354369 0)
(-3.32185 -0.000342169 0)
(-3.28402 -0.000330627 0)
(-3.24736 -0.000319692 0)
(-3.21182 -0.000309323 0)
(-3.17735 -0.000299478 0)
(-3.14389 -0.000290122 0)
(-3.11138 -0.000281221 0)
(-3.0798 -0.000272746 0)
(-3.04908 -0.000264667 0)
(-3.0192 -0.00025696 0)
(-2.99011 -0.000249602 0)
(-2.96179 -0.000242571 0)
(-2.93419 -0.000235848 0)
(-2.90729 -0.000229413 0)
(-2.88106 -0.000223251 0)
(-2.85546 -0.000217344 0)
(-2.83049 -0.00021168 0)
(-2.8061 -0.000206244 0)
(-2.78228 -0.000201023 0)
(-2.759 -0.000196006 0)
(-2.73625 -0.000191182 0)
(-2.714 -0.000186541 0)
(-2.69224 -0.000182073 0)
(-2.67095 -0.000177769 0)
(-2.65012 -0.000173622 0)
(-2.62971 -0.000169621 0)
(-2.60974 -0.000165763 0)
(-2.59016 -0.000162038 0)
(-2.57099 -0.000158441 0)
(-2.55219 -0.000154965 0)
(-2.53376 -0.000151606 0)
(-2.51569 -0.000148357 0)
(-2.49796 -0.000145213 0)
(-2.48057 -0.00014217 0)
(-2.46351 -0.000139223 0)
(-2.44676 -0.000136367 0)
(-2.43032 -0.0001336 0)
(-2.41417 -0.000130915 0)
(-2.39831 -0.000128312 0)
(-2.38273 -0.000125784 0)
(-2.36743 -0.000123331 0)
(-2.35239 -0.000120947 0)
(-2.33761 -0.000118632 0)
(-2.32309 -0.000116381 0)
(-2.3088 -0.000114191 0)
(-2.29476 -0.000112061 0)
(-2.28095 -0.000109987 0)
(-2.26737 -0.000107968 0)
(-2.25401 -0.000106 0)
(-2.24087 -0.000104083 0)
(-2.22794 -0.000102213 0)
(-2.21522 -0.000100391 0)
(-2.20271 -9.86101e-05 0)
(-2.19039 -9.68743e-05 0)
(-2.17826 -9.51765e-05 0)
(-2.16633 -9.352e-05 0)
(-2.15458 -9.18987e-05 0)
(-2.14302 -9.03149e-05 0)
(-2.13164 -8.87645e-05 0)
(-2.12043 -8.72479e-05 0)
(-2.1094 -8.57631e-05 0)
(-2.09854 -8.43088e-05 0)
(-2.08784 -8.28841e-05 0)
(-2.07731 -8.1487e-05 0)
(-2.06694 -8.01173e-05 0)
(-2.05673 -7.87731e-05 0)
(-2.04667 -7.74546e-05 0)
(-2.03677 -7.61597e-05 0)
(-2.02702 -7.4889e-05 0)
(-2.01741 -7.36402e-05 0)
(-2.00796 -7.24141e-05 0)
(-1.99865 -7.12084e-05 0)
(-1.98948 -7.00237e-05 0)
(-1.98045 -6.8859e-05 0)
(-1.97156 -6.77124e-05 0)
(-1.9628 -6.65862e-05 0)
(-1.95418 -6.54755e-05 0)
(-1.94569 -6.43851e-05 0)
(-1.93734 -6.33093e-05 0)
(-1.92911 -6.22531e-05 0)
(-1.921 -6.12109e-05 0)
(-1.91302 -6.01877e-05 0)
(-1.90517 -5.91775e-05 0)
(-1.89743 -5.8186e-05 0)
(-1.88982 -5.72062e-05 0)
(-1.88232 -5.62449e-05 0)
(-1.87495 -5.52949e-05 0)
(-1.86768 -5.43618e-05 0)
(-1.86053 -5.34416e-05 0)
(-1.85349 -5.25361e-05 0)
(-1.84656 -5.16452e-05 0)
(-1.83974 -5.0767e-05 0)
(-1.83302 -4.99037e-05 0)
(-1.82641 -4.90519e-05 0)
(-1.81991 -4.82149e-05 0)
(-1.8135 -4.73889e-05 0)
(-1.8072 -4.65775e-05 0)
(-1.801 -4.5777e-05 0)
(-1.79489 -4.49908e-05 0)
(-1.78888 -4.42154e-05 0)
(-1.78297 -4.34538e-05 0)
(-1.77715 -4.27031e-05 0)
(-1.77142 -4.19654e-05 0)
(-1.76578 -4.1239e-05 0)
(-1.76023 -4.05246e-05 0)
(-1.75477 -3.98222e-05 0)
(-1.7494 -3.91303e-05 0)
(-1.74411 -3.84513e-05 0)
(-1.7389 -3.77817e-05 0)
(-1.73378 -3.71251e-05 0)
(-1.72874 -3.64774e-05 0)
(-1.72377 -3.58424e-05 0)
(-1.71889 -3.52162e-05 0)
(-1.71408 -3.46018e-05 0)
(-1.70935 -3.39964e-05 0)
(-1.7047 -3.3402e-05 0)
(-1.70012 -3.28163e-05 0)
(-1.69561 -3.22407e-05 0)
(-1.69117 -3.16736e-05 0)
(-1.68681 -3.11154e-05 0)
(-1.68251 -3.05648e-05 0)
(-1.67828 -3.00205e-05 0)
(-1.67413 -2.94882e-05 0)
(-1.67003 -2.89365e-05 0)
(-1.66602 -2.84362e-05 0)
(-1.66204 -2.79185e-05 0)
(-1.6582 -2.7025e-05 0)
(-1.65437 -2.79241e-05 0)
(-1.65059 -2.83099e-05 0)
(-1.6471 -2.64349e-05 0)
(-1.64379 -2.55724e-05 0)
(-1.64053 -2.5183e-05 0)
(-1.63728 -2.47063e-05 0)
(-1.63407 -2.4256e-05 0)
(-1.63088 -2.38577e-05 0)
(-1.62771 -2.34814e-05 0)
(-1.62456 -2.31175e-05 0)
(-1.62142 -2.27641e-05 0)
(-1.61829 -2.24194e-05 0)
(-1.61518 -2.20825e-05 0)
(-1.61208 -2.17524e-05 0)
(-1.609 -2.14284e-05 0)
(-1.60592 -2.11103e-05 0)
(-1.60286 -2.07977e-05 0)
(-1.59981 -2.04908e-05 0)
(-1.59676 -2.01888e-05 0)
(-1.59373 -1.98922e-05 0)
(-1.59071 -1.96005e-05 0)
(-1.5877 -1.93136e-05 0)
(-1.5847 -1.90319e-05 0)
(-1.58171 -1.87548e-05 0)
(-1.57873 -1.84827e-05 0)
(-1.57576 -1.82152e-05 0)
(-1.5728 -1.79525e-05 0)
(-1.56985 -1.76944e-05 0)
(-1.5669 -1.74408e-05 0)
(-1.56396 -1.71919e-05 0)
(-1.56103 -1.69473e-05 0)
(-1.55811 -1.67071e-05 0)
(-1.5552 -1.64713e-05 0)
(-1.55229 -1.62396e-05 0)
(-1.5494 -1.60123e-05 0)
(-1.5465 -1.57891e-05 0)
(-1.54362 -1.557e-05 0)
(-1.54074 -1.5355e-05 0)
(-1.53786 -1.51437e-05 0)
(-1.535 -1.49363e-05 0)
(-1.53213 -1.47328e-05 0)
(-1.52928 -1.45329e-05 0)
(-1.52643 -1.43367e-05 0)
(-1.52358 -1.41441e-05 0)
(-1.52074 -1.3955e-05 0)
(-1.5179 -1.37693e-05 0)
(-1.51507 -1.35868e-05 0)
(-1.51224 -1.34079e-05 0)
(-1.50941 -1.3232e-05 0)
(-1.50659 -1.30594e-05 0)
(-1.50377 -1.28898e-05 0)
(-1.50096 -1.27232e-05 0)
(-1.49815 -1.25598e-05 0)
(-1.49534 -1.23989e-05 0)
(-1.49253 -1.22412e-05 0)
(-1.48972 -1.2086e-05 0)
(-1.48692 -1.19336e-05 0)
(-1.48412 -1.17839e-05 0)
(-1.48132 -1.16367e-05 0)
(-1.47853 -1.1492e-05 0)
(-1.47573 -1.13499e-05 0)
(-1.47294 -1.12102e-05 0)
(-1.47014 -1.10729e-05 0)
(-1.46735 -1.09379e-05 0)
(-1.46456 -1.08051e-05 0)
(-1.46177 -1.06746e-05 0)
(-1.45898 -1.05461e-05 0)
(-1.45619 -1.042e-05 0)
(-1.4534 -1.02957e-05 0)
(-1.45061 -1.01735e-05 0)
(-1.44782 -1.00532e-05 0)
(-1.44504 -9.93476e-06 0)
(-1.44225 -9.81822e-06 0)
(-1.43946 -9.7033e-06 0)
(-1.43667 -9.59024e-06 0)
(-1.43388 -9.47869e-06 0)
(-1.43109 -9.36878e-06 0)
(-1.4283 -9.26032e-06 0)
(-1.42551 -9.15331e-06 0)
(-1.42272 -9.04764e-06 0)
(-1.41993 -8.94333e-06 0)
(-1.41714 -8.84023e-06 0)
(-1.41435 -8.73839e-06 0)
(-1.41156 -8.63763e-06 0)
(-1.40877 -8.53795e-06 0)
(-1.40598 -8.4393e-06 0)
(-1.40319 -8.34155e-06 0)
(-1.4004 -8.24478e-06 0)
(-1.39762 -8.14879e-06 0)
(-1.39483 -8.05367e-06 0)
(-1.39204 -7.95925e-06 0)
(-1.38926 -7.86556e-06 0)
(-1.38648 -7.77252e-06 0)
(-1.3837 -7.68011e-06 0)
(-1.38092 -7.58829e-06 0)
(-1.37815 -7.49702e-06 0)
(-1.37537 -7.40627e-06 0)
(-1.3726 -7.31603e-06 0)
(-1.36984 -7.22626e-06 0)
(-1.36708 -7.13691e-06 0)
(-1.36432 -7.04801e-06 0)
(-1.36156 -6.95949e-06 0)
(-1.35882 -6.87138e-06 0)
(-1.35607 -6.78362e-06 0)
(-1.35333 -6.69626e-06 0)
(-1.3506 -6.60924e-06 0)
(-1.34788 -6.52258e-06 0)
(-1.34516 -6.43626e-06 0)
(-1.34245 -6.35026e-06 0)
(-1.33974 -6.26464e-06 0)
(-1.33704 -6.17933e-06 0)
(-1.33436 -6.09442e-06 0)
(-1.33168 -6.00984e-06 0)
(-1.329 -5.92563e-06 0)
(-1.32634 -5.84178e-06 0)
(-1.32369 -5.7583e-06 0)
(-1.32105 -5.67521e-06 0)
(-1.31842 -5.59254e-06 0)
(-1.3158 -5.51026e-06 0)
(-1.31319 -5.42841e-06 0)
(-1.31059 -5.34698e-06 0)
(-1.30801 -5.26599e-06 0)
(-1.30543 -5.18548e-06 0)
(-1.30287 -5.10543e-06 0)
(-1.30033 -5.02591e-06 0)
(-1.29779 -4.94689e-06 0)
(-1.29527 -4.86839e-06 0)
(-1.29277 -4.79043e-06 0)
(-1.29027 -4.713e-06 0)
(-1.2878 -4.63614e-06 0)
(-1.28533 -4.55987e-06 0)
(-1.28289 -4.4842e-06 0)
(-1.28045 -4.40915e-06 0)
(-1.27804 -4.33471e-06 0)
(-1.27564 -4.26092e-06 0)
(-1.27326 -4.18776e-06 0)
(-1.27089 -4.11527e-06 0)
(-1.26854 -4.04348e-06 0)
(-1.2662 -3.97236e-06 0)
(-1.26389 -3.90196e-06 0)
(-1.26159 -3.83224e-06 0)
(-1.25931 -3.76324e-06 0)
(-1.25704 -3.69498e-06 0)
(-1.2548 -3.62745e-06 0)
(-1.25257 -3.56069e-06 0)
(-1.25036 -3.49469e-06 0)
(-1.24817 -3.42945e-06 0)
(-1.246 -3.36499e-06 0)
(-1.24384 -3.30129e-06 0)
(-1.24171 -3.23837e-06 0)
(-1.23959 -3.17626e-06 0)
(-1.23749 -3.11493e-06 0)
(-1.23542 -3.05441e-06 0)
(-1.23336 -2.99467e-06 0)
(-1.23132 -2.93573e-06 0)
(-1.2293 -2.8776e-06 0)
(-1.2273 -2.82027e-06 0)
(-1.22531 -2.76378e-06 0)
(-1.22335 -2.70811e-06 0)
(-1.22141 -2.65325e-06 0)
(-1.21949 -2.59921e-06 0)
(-1.21758 -2.54597e-06 0)
(-1.2157 -2.49355e-06 0)
(-1.21384 -2.44197e-06 0)
(-1.21199 -2.3912e-06 0)
(-1.21016 -2.34128e-06 0)
(-1.20836 -2.29219e-06 0)
(-1.20657 -2.24394e-06 0)
(-1.2048 -2.19654e-06 0)
(-1.20306 -2.15001e-06 0)
(-1.20133 -2.10439e-06 0)
(-1.19962 -2.05969e-06 0)
(-1.19792 -2.01601e-06 0)
(-1.19625 -1.97342e-06 0)
(-1.1946 -1.93208e-06 0)
(-1.19296 -1.89231e-06 0)
(-1.19134 -1.85477e-06 0)
(-1.18973 -1.81971e-06 0)
(-1.18814 -1.78808e-06 0)
(-1.18655 -1.78703e-06 0)
(-1.18492 -1.73944e-06 0)
(-1.18342 -1.6042e-06 0)
(-1.18175 -1.63649e-06 0)
(-1.17979 -1.75769e-06 0)
(-1.17772 -1.77216e-06 0)
(-1.1757 -1.7132e-06 0)
(-1.17377 -1.64934e-06 0)
(-1.1719 -1.58881e-06 0)
(-1.17011 -1.53027e-06 0)
(-1.16839 -1.47329e-06 0)
(-1.16674 -1.41825e-06 0)
(-1.16515 -1.36535e-06 0)
(-1.16362 -1.31435e-06 0)
(-1.16215 -1.26501e-06 0)
(-1.16074 -1.21714e-06 0)
(-1.15939 -1.17062e-06 0)
(-1.15809 -1.12537e-06 0)
(-1.15685 -1.0813e-06 0)
(-1.15566 -1.03835e-06 0)
(-1.15452 -9.9648e-07 0)
(-1.15343 -9.5567e-07 0)
(-1.15239 -9.15946e-07 0)
(-1.1514 -8.77305e-07 0)
(-1.15045 -8.39803e-07 0)
(-1.14954 -8.03445e-07 0)
(-1.14868 -7.68283e-07 0)
(-1.14786 -7.34313e-07 0)
(-1.14708 -7.0157e-07 0)
(-1.14633 -6.70032e-07 0)
(-1.14563 -6.39711e-07 0)
(-1.14495 -6.1057e-07 0)
(-1.14431 -5.82607e-07 0)
(-1.1437 -5.55774e-07 0)
(-1.14312 -5.30066e-07 0)
(-1.14257 -5.0543e-07 0)
(-1.14205 -4.81857e-07 0)
(-1.14155 -4.59294e-07 0)
(-1.14108 -4.37727e-07 0)
(-1.14063 -4.17102e-07 0)
(-1.1402 -3.97405e-07 0)
(-1.1398 -3.78581e-07 0)
(-1.13942 -3.60614e-07 0)
(-1.13905 -3.43452e-07 0)
(-1.13871 -3.27078e-07 0)
(-1.13838 -3.11445e-07 0)
(-1.13807 -2.96537e-07 0)
(-1.13777 -2.82313e-07 0)
(-1.13749 -2.68756e-07 0)
(-1.13722 -2.5582e-07 0)
(-1.13697 -2.43496e-07 0)
(-1.13673 -2.31733e-07 0)
(-1.1365 -2.20525e-07 0)
(-1.13629 -2.09831e-07 0)
(-1.13608 -1.99643e-07 0)
(-1.13589 -1.89927e-07 0)
(-1.13571 -1.80674e-07 0)
(-1.13553 -1.71849e-07 0)
(-1.13537 -1.63448e-07 0)
(-1.13521 -1.55433e-07 0)
(-1.13506 -1.47804e-07 0)
(-1.13492 -1.40528e-07 0)
(-1.13479 -1.33603e-07 0)
(-1.13466 -1.27001e-07 0)
(-1.13454 -1.2072e-07 0)
(-1.13443 -1.14733e-07 0)
(-1.13432 -1.09041e-07 0)
(-1.13422 -1.03616e-07 0)
(-1.13413 -9.84601e-08 0)
(-1.13404 -9.35472e-08 0)
(-1.13395 -8.88793e-08 0)
(-1.13387 -8.44344e-08 0)
(-1.13379 -8.02124e-08 0)
(-1.13372 -7.61965e-08 0)
(-1.13365 -7.23834e-08 0)
(-1.13358 -6.87601e-08 0)
(-1.13352 -6.53209e-08 0)
(-1.13346 -6.20565e-08 0)
(-1.13341 -5.89599e-08 0)
(-1.13335 -5.60259e-08 0)
(-1.1333 -5.32458e-08 0)
(-1.13326 -5.06182e-08 0)
(-1.13321 -4.81313e-08 0)
(-1.13317 -4.57898e-08 0)
(-1.13313 -4.35777e-08 0)
(-1.13309 -4.15098e-08 0)
(-1.13305 -3.95723e-08 0)
(-1.13302 -3.77913e-08 0)
(-1.13299 -3.61852e-08 0)
(-1.13296 -3.47645e-08 0)
(-1.13293 -3.36698e-08 0)
(-1.1329 -3.2775e-08 0)
(-1.13287 -3.29004e-08 0)
(-1.13284 -3.10761e-08 0)
(-1.13281 -4.82325e-08 0)
(-1.13274 -4.51634e-09 0)
(-1.13284 2.93652e-08 0)
(-1.13272 -1.27514e-07 0)
)
;
    }
    symmetry
    {
        type            symmetryPlane;
    }
    frontAndBack
    {
        type            empty;
    }
}


// ************************************************************************* //
