/*--------------------------------*- C++ -*----------------------------------*\
| =========                 |                                                 |
| \\      /  F ield         | OpenFOAM: The Open Source CFD Toolbox           |
|  \\    /   O peration     | Version:  v2012                                 |
|   \\  /    A nd           | Website:  www.openfoam.com                      |
|    \\/     M anipulation  |                                                 |
\*---------------------------------------------------------------------------*/
FoamFile
{
    version     2.0;
    format      ascii;
    class       volScalarField;
    location    "20.5";
    object      yPlus;
}
// * * * * * * * * * * * * * * * * * * * * * * * * * * * * * * * * * * * * * //

dimensions      [0 0 0 0 0 0 0];


internalField   uniform 0;

boundaryField
{
    inlet
    {
        type            calculated;
        value           uniform 0;
    }
    outlet
    {
        type            calculated;
        value           uniform 0;
    }
    topWall
    {
        type            calculated;
        value           nonuniform List<scalar> 
545
(
0.0702584
0.121159
0.155426
0.182684
0.205748
0.225914
0.243912
0.2602
0.275092
0.288811
0.301526
0.313368
0.32444
0.334827
0.344599
0.353814
0.362523
0.370768
0.378586
0.38601
0.39307
0.39979
0.406194
0.412304
0.418136
0.42371
0.429039
0.434139
0.439022
0.4437
0.448186
0.452488
0.456616
0.46058
0.464387
0.468046
0.471563
0.474946
0.4782
0.481332
0.484348
0.487252
0.490049
0.492745
0.495344
0.49785
0.500266
0.502597
0.504847
0.507018
0.509114
0.511138
0.513093
0.514981
0.516806
0.518569
0.520274
0.521922
0.523515
0.525056
0.526547
0.527989
0.529385
0.530735
0.532042
0.533308
0.534533
0.53572
0.536869
0.537982
0.53906
0.540104
0.541103
0.542069
0.543026
0.543974
0.544914
0.545845
0.546768
0.547682
0.548589
0.549487
0.550377
0.551259
0.552134
0.553001
0.55386
0.554711
0.555555
0.556391
0.557221
0.558042
0.558857
0.559664
0.560465
0.561258
0.561972
0.56261
0.563247
0.563884
0.56452
0.565155
0.56579
0.566424
0.567057
0.567689
0.568321
0.568952
0.569582
0.570212
0.570841
0.571469
0.572096
0.572723
0.573348
0.573973
0.574597
0.575221
0.575843
0.576465
0.577086
0.577706
0.578325
0.578944
0.579561
0.580178
0.580794
0.581409
0.582023
0.582636
0.583249
0.58386
0.58447
0.58508
0.585689
0.586296
0.586903
0.587509
0.588114
0.588718
0.589321
0.589923
0.590523
0.591123
0.591722
0.59232
0.592917
0.593513
0.594108
0.594701
0.595294
0.595886
0.596476
0.597066
0.597654
0.598241
0.598827
0.599412
0.599996
0.600579
0.60116
0.601741
0.60232
0.602898
0.603475
0.604051
0.604625
0.605199
0.605771
0.606341
0.606911
0.607479
0.608046
0.608612
0.609177
0.60974
0.610302
0.610863
0.611422
0.61198
0.612537
0.613092
0.613646
0.614199
0.61475
0.6153
0.615848
0.616395
0.616941
0.617485
0.618028
0.618569
0.619109
0.619647
0.620184
0.62072
0.621254
0.621786
0.622317
0.622847
0.623375
0.623901
0.624426
0.624949
0.625471
0.625991
0.62651
0.627026
0.627542
0.628055
0.628567
0.629078
0.629587
0.630094
0.630599
0.631103
0.631605
0.632105
0.632604
0.633101
0.633596
0.634089
0.634581
0.635071
0.635559
0.636045
0.63653
0.637012
0.637493
0.637972
0.638449
0.638925
0.639398
0.63987
0.640339
0.640807
0.641273
0.641737
0.642199
0.642659
0.643117
0.643573
0.644028
0.64448
0.64493
0.645378
0.645824
0.646269
0.646711
0.647151
0.647589
0.648025
0.648459
0.64889
0.64932
0.649748
0.650173
0.650596
0.651018
0.651437
0.651853
0.652268
0.652681
0.653091
0.653499
0.653905
0.654308
0.65471
0.655109
0.655483
0.655836
0.656189
0.656544
0.656899
0.657256
0.657614
0.657973
0.658333
0.658694
0.659056
0.659419
0.659783
0.660147
0.660513
0.660878
0.661245
0.661612
0.66198
0.662348
0.662716
0.663085
0.663454
0.663823
0.664193
0.664562
0.664931
0.665301
0.66567
0.666039
0.666408
0.666776
0.667144
0.667511
0.667878
0.668243
0.668609
0.668973
0.669336
0.669698
0.670059
0.670418
0.670777
0.671133
0.671488
0.671842
0.672193
0.672542
0.67289
0.673235
0.673578
0.673918
0.674256
0.674592
0.674924
0.675253
0.67558
0.675903
0.676222
0.676539
0.676851
0.67716
0.677464
0.677765
0.678061
0.678353
0.67864
0.678923
0.6792
0.679473
0.67974
0.680001
0.680257
0.680507
0.680752
0.68099
0.681221
0.681446
0.681664
0.681876
0.68208
0.682277
0.682466
0.682648
0.682821
0.682986
0.683143
0.683292
0.683431
0.683562
0.683683
0.683795
0.683897
0.683989
0.684072
0.684143
0.684204
0.684255
0.684294
0.684322
0.684339
0.684344
0.684336
0.684317
0.684285
0.684241
0.684183
0.684113
0.684029
0.683932
0.68382
0.683695
0.683555
0.683401
0.683232
0.683048
0.682849
0.682635
0.682405
0.682159
0.681896
0.681618
0.681323
0.681011
0.680683
0.680337
0.679974
0.679594
0.679196
0.678779
0.678345
0.677893
0.677422
0.676933
0.676425
0.675898
0.675352
0.674787
0.674202
0.673598
0.672975
0.672332
0.671669
0.670987
0.670284
0.669561
0.668819
0.668056
0.667273
0.66647
0.665647
0.664803
0.663939
0.663055
0.662151
0.661226
0.660282
0.659317
0.658332
0.657327
0.656302
0.655257
0.654192
0.653108
0.652005
0.650882
0.64974
0.648578
0.647399
0.6462
0.644983
0.643748
0.642495
0.641224
0.639935
0.63863
0.637308
0.635969
0.634614
0.633243
0.631856
0.630297
0.628574
0.626853
0.625134
0.623418
0.621707
0.62
0.6183
0.616606
0.614919
0.61324
0.611569
0.609908
0.608256
0.606615
0.604984
0.603365
0.601757
0.600161
0.598578
0.597009
0.595452
0.593909
0.592381
0.590867
0.589368
0.587884
0.586416
0.584963
0.583526
0.582106
0.580702
0.579315
0.577945
0.576593
0.575258
0.573941
0.572641
0.57136
0.570098
0.568853
0.567628
0.566421
0.565234
0.564066
0.562918
0.561789
0.56068
0.55959
0.558522
0.557473
0.556445
0.555437
0.554451
0.553485
0.55254
0.551617
0.550715
0.549835
0.548976
0.548139
0.547324
0.546532
0.545761
0.545013
0.544288
0.543585
0.542905
0.542248
0.541614
0.541004
0.540417
0.539853
0.539312
0.538796
0.538303
0.537834
0.53739
0.536969
0.536572
0.5362
0.535853
0.535529
0.53523
0.534956
0.534707
0.534482
0.534282
0.534107
0.533957
0.533831
0.533731
0.533655
0.533608
0.533569
)
;
    }
    bottomWall
    {
        type            calculated;
        value           nonuniform List<scalar> 
449
(
0.139513
0.0889958
0.0758397
0.0694649
0.0652796
0.0621517
0.0596556
0.0575911
0.0558392
0.0543223
0.052988
0.0517998
0.0507313
0.0497623
0.0488772
0.0480637
0.0473118
0.0466137
0.0459627
0.0453533
0.0447809
0.0442417
0.0437323
0.0432499
0.0427919
0.0423561
0.0419408
0.0415442
0.0411648
0.0408013
0.0404525
0.0401174
0.0397951
0.0394847
0.0391853
0.0388964
0.0386172
0.0383471
0.0380858
0.0378325
0.037587
0.0373487
0.0371174
0.0368926
0.0366739
0.0364612
0.0362541
0.0360524
0.0358558
0.035664
0.0354769
0.0352943
0.0351159
0.0349416
0.0347713
0.0346047
0.0344417
0.0342821
0.0341259
0.033973
0.0338231
0.0336762
0.0335322
0.0333909
0.0332524
0.0331164
0.0329829
0.0328519
0.0327231
0.0325967
0.0324724
0.0323502
0.0322301
0.032112
0.0319959
0.0318816
0.0317691
0.0316584
0.0315495
0.0314422
0.0313365
0.0312324
0.0311298
0.0310288
0.0309292
0.030831
0.0307342
0.0306387
0.0305446
0.0304517
0.0303601
0.0302697
0.0301805
0.0300925
0.0300056
0.0299198
0.029835
0.0297514
0.0296687
0.0295871
0.0295065
0.0294268
0.0293481
0.0292703
0.0291934
0.0291174
0.0290422
0.0289679
0.0288945
0.0288218
0.02875
0.0286789
0.0286086
0.028539
0.0284702
0.0284021
0.0283347
0.0282681
0.0282021
0.0281367
0.028072
0.028008
0.0279446
0.0278818
0.0278196
0.0277581
0.0276971
0.0276367
0.0275769
0.0275176
0.0274589
0.0274007
0.027343
0.0272859
0.0272293
0.0271732
0.0271176
0.0270625
0.0270078
0.0269536
0.0268999
0.0268467
0.0267939
0.0267416
0.0266897
0.0266382
0.0265871
0.0265365
0.0264863
0.0264364
0.026387
0.026338
0.0262894
0.0262411
0.0261932
0.0261457
0.0260986
0.0260518
0.0260054
0.0259593
0.0259136
0.0258682
0.0258232
0.0257784
0.0257341
0.02569
0.0256463
0.0256028
0.0255597
0.0255169
0.0254744
0.0254322
0.0253903
0.025351
0.0253141
0.025277
0.0252399
0.0252027
0.0251654
0.0251281
0.0250906
0.0250531
0.0250155
0.0249778
0.02494
0.0249021
0.0248642
0.0248261
0.024788
0.0247498
0.0247116
0.0246733
0.0246348
0.0245964
0.0245578
0.0245192
0.0244805
0.0244418
0.0244029
0.0243641
0.0243251
0.0242861
0.024247
0.0242079
0.0241687
0.0241295
0.0240902
0.0240508
0.0240114
0.023972
0.0239325
0.0238929
0.0238533
0.0238137
0.023774
0.0237343
0.0236945
0.0236547
0.0236148
0.023575
0.023535
0.0234951
0.0234551
0.0234151
0.023375
0.023335
0.0232949
0.0232547
0.0232146
0.0231744
0.0231342
0.023094
0.0230538
0.0230135
0.0229733
0.022933
0.0228927
0.0228524
0.0228121
0.0227717
0.0227314
0.0226911
0.0226507
0.0226104
0.02257
0.0225297
0.0224894
0.022449
0.0224087
0.0223683
0.022328
0.0222877
0.0222474
0.0222071
0.0221668
0.0221265
0.0220862
0.022046
0.0220057
0.0219655
0.0219253
0.0218852
0.021845
0.0218049
0.0217648
0.0217247
0.0216846
0.0216446
0.0216046
0.0215646
0.0215247
0.0214848
0.0214449
0.0214051
0.0213653
0.0213255
0.0212858
0.0212461
0.0212065
0.0211669
0.0211273
0.0210878
0.0210483
0.0210089
0.0209695
0.0209302
0.0208909
0.0208517
0.0208125
0.0207734
0.0207343
0.0206953
0.0206564
0.0206175
0.0205786
0.0205398
0.0205011
0.0204624
0.0204238
0.0203853
0.0203468
0.0203084
0.0202701
0.0202318
0.0201936
0.0201554
0.0201173
0.0200793
0.0200414
0.0200035
0.0199657
0.019928
0.0198903
0.0198528
0.0198153
0.0197779
0.0197405
0.0197032
0.0196661
0.0196289
0.0195919
0.019555
0.0195181
0.0194813
0.0194446
0.019408
0.0193715
0.019335
0.0192986
0.0192624
0.0192262
0.0191901
0.0191541
0.0191181
0.0190823
0.0190465
0.0190109
0.0189753
0.0189399
0.0189045
0.0188692
0.018834
0.0187989
0.0187639
0.018729
0.0186941
0.0186594
0.0186248
0.0185903
0.0185558
0.0185215
0.0184872
0.0184531
0.018419
0.0183812
0.0183402
0.0182997
0.0182599
0.0182207
0.0181822
0.0181442
0.0181069
0.0180701
0.0180339
0.0179983
0.0179632
0.0179287
0.0178946
0.0178611
0.0178281
0.0177955
0.0177634
0.0177318
0.0177006
0.0176699
0.0176396
0.0176097
0.0175802
0.0175511
0.0175224
0.017494
0.0174661
0.0174385
0.0174113
0.0173844
0.0173579
0.0173316
0.0173058
0.0172802
0.017255
0.01723
0.0172054
0.0171811
0.017157
0.0171333
0.0171098
0.0170866
0.0170636
0.0170409
0.0170185
0.0169964
0.0169744
0.0169528
0.0169313
0.0169101
0.0168892
0.0168684
0.0168479
0.0168276
0.0168075
0.0167876
0.016768
0.0167485
0.0167292
0.0167102
0.0166913
0.0166726
0.0166541
0.0166358
0.0166177
0.0165997
0.016582
0.0165643
0.0165469
0.0165296
0.0165125
0.0164956
0.0164788
0.0164621
0.0164457
0.0164293
0.0164131
0.0163971
0.0163812
0.0163654
0.0163498
0.0163343
0.0163189
0.0163036
0.0162884
0.0162734
0.0162584
0.0162435
0.0162286
0.016214
0.0161998
0.0161761
0.0161896
0.0161476
)
;
    }
    symmetry
    {
        type            symmetryPlane;
    }
    frontAndBack
    {
        type            empty;
    }
}


// ************************************************************************* //
