/*--------------------------------*- C++ -*----------------------------------*\
| =========                 |                                                 |
| \\      /  F ield         | OpenFOAM: The Open Source CFD Toolbox           |
|  \\    /   O peration     | Version:  v2012                                 |
|   \\  /    A nd           | Website:  www.openfoam.com                      |
|    \\/     M anipulation  |                                                 |
\*---------------------------------------------------------------------------*/
FoamFile
{
    version     2.0;
    format      ascii;
    class       volScalarField;
    location    "56";
    object      omega;
}
// * * * * * * * * * * * * * * * * * * * * * * * * * * * * * * * * * * * * * //

dimensions      [0 0 -1 0 0 0 0];


internalField   nonuniform List<scalar> 
209825
(
8261.79
7570.13
6999.5
6539.29
6173.54
5884.39
5653.91
5468.74
5317.5
5193.03
5088.73
5001.11
4926.06
4861.99
4806.07
4757.78
4714.94
4677.63
4644.04
4614.62
4587.77
4564.18
4542.36
4523.16
4505.18
4489.38
4474.4
4461.24
4448.6
4437.57
4426.82
4417.49
4408.28
4400.33
4392.37
4385.57
4378.68
4372.83
4366.81
4361.74
4356.5
4352.1
4347.46
4343.65
4339.59
4336.25
4332.66
4329.71
4326.57
4323.99
4321.22
4318.98
4316.61
4314.58
4312.47
4310.71
4308.84
4307.29
4305.6
4304.26
4302.84
4301.74
4300.43
4299.53
4298.41
4297.64
4296.61
4295.97
4295.09
4294.6
4293.86
4293.46
4292.84
4292.5
4291.89
4291.53
4290.94
4290.62
4290.1
4289.84
4289.39
4289.18
4288.78
4288.63
4288.3
4288.29
4288.21
4288.39
4288.39
4288.7
4288.7
4289.35
4290.09
4318.16
4426.34
113075
8261.79
7570.14
6999.5
6539.28
6173.53
5884.37
5653.88
5468.7
5317.45
5192.97
5088.67
5001.04
4925.98
4861.91
4805.99
4757.69
4714.85
4677.53
4643.94
4614.52
4587.66
4564.07
4542.25
4523.05
4505.07
4489.27
4474.28
4461.12
4448.48
4437.45
4426.7
4417.37
4408.15
4400.21
4392.25
4385.44
4378.55
4372.7
4366.68
4361.61
4356.37
4351.97
4347.33
4343.52
4339.46
4336.12
4332.53
4329.58
4326.43
4323.85
4321.08
4318.85
4316.47
4314.45
4312.33
4310.57
4308.7
4307.16
4305.47
4304.13
4302.7
4301.6
4300.3
4299.39
4298.27
4297.5
4296.48
4295.83
4294.95
4294.46
4293.72
4293.32
4292.7
4292.36
4291.76
4291.39
4290.81
4290.48
4289.97
4289.7
4289.25
4289.04
4288.64
4288.49
4288.16
4288.16
4288.07
4288.25
4288.25
4288.56
4288.56
4289.21
4289.95
4318.07
4426.24
109776
8261.79
7570.14
6999.5
6539.27
6173.48
5884.29
5653.76
5468.55
5317.27
5192.77
5088.44
5000.79
4925.71
4861.62
4805.69
4757.38
4714.53
4677.2
4643.6
4614.17
4587.31
4563.71
4541.89
4522.68
4504.69
4488.88
4473.89
4460.73
4448.09
4437.05
4426.3
4416.96
4407.75
4399.8
4391.84
4385.03
4378.13
4372.28
4366.26
4361.19
4355.94
4351.54
4346.91
4343.1
4339.03
4335.69
4332.1
4329.15
4326
4323.42
4320.65
4318.41
4316.04
4314.01
4311.89
4310.13
4308.26
4306.71
4305.03
4303.69
4302.26
4301.16
4299.85
4298.95
4297.83
4297.06
4296.03
4295.38
4294.5
4294.01
4293.27
4292.87
4292.25
4291.91
4291.31
4290.94
4290.35
4290.03
4289.51
4289.25
4288.8
4288.59
4288.19
4288.04
4287.71
4287.7
4287.61
4287.79
4287.79
4288.1
4288.1
4288.75
4289.49
4317.71
4425.87
105989
8261.79
7570.15
6999.51
6539.24
6173.4
5884.15
5653.56
5468.29
5316.96
5192.41
5088.05
5000.37
4925.25
4861.14
4805.18
4756.85
4713.98
4676.64
4643.02
4613.58
4586.7
4563.09
4541.26
4522.04
4504.05
4488.23
4473.23
4460.07
4447.42
4436.37
4425.62
4416.27
4407.05
4399.1
4391.13
4384.32
4377.42
4371.57
4365.54
4360.47
4355.22
4350.82
4346.18
4342.37
4338.29
4334.96
4331.36
4328.41
4325.26
4322.68
4319.9
4317.66
4315.29
4313.26
4311.14
4309.38
4307.51
4305.96
4304.27
4302.93
4301.5
4300.4
4299.09
4298.18
4297.06
4296.29
4295.27
4294.62
4293.74
4293.24
4292.5
4292.1
4291.48
4291.14
4290.53
4290.16
4289.58
4289.25
4288.74
4288.47
4288.02
4287.81
4287.41
4287.26
4286.93
4286.92
4286.83
4287.01
4287
4287.32
4287.32
4287.96
4288.71
4317.07
4425.21
102094
8261.78
7570.17
6999.51
6539.2
6173.29
5883.94
5653.27
5467.92
5316.52
5191.91
5087.49
4999.76
4924.6
4860.45
4804.46
4756.1
4713.2
4675.83
4642.19
4612.73
4585.84
4562.21
4540.36
4521.13
4503.13
4487.3
4472.29
4459.11
4446.45
4435.4
4424.64
4415.29
4406.06
4398.1
4390.13
4383.31
4376.41
4370.55
4364.52
4359.44
4354.19
4349.78
4345.14
4341.32
4337.25
4333.91
4330.31
4327.36
4324.2
4321.62
4318.84
4316.6
4314.22
4312.19
4310.07
4308.31
4306.43
4304.88
4303.19
4301.85
4300.42
4299.32
4298
4297.1
4295.98
4295.2
4294.17
4293.52
4292.64
4292.15
4291.41
4291
4290.38
4290.04
4289.43
4289.06
4288.48
4288.15
4287.64
4287.37
4286.91
4286.7
4286.3
4286.15
4285.82
4285.81
4285.71
4285.89
4285.89
4286.2
4286.2
4286.84
4287.6
4316.17
4424.28
98197.1
8261.78
7570.19
6999.52
6539.15
6173.13
5883.68
5652.89
5467.44
5315.94
5191.25
5086.76
4998.96
4923.75
4859.55
4803.51
4755.11
4712.18
4674.78
4641.11
4611.62
4584.71
4561.06
4539.19
4519.95
4501.92
4486.08
4471.06
4457.87
4445.2
4434.14
4423.36
4414
4404.77
4396.8
4388.82
4382
4375.09
4369.22
4363.19
4358.1
4352.84
4348.43
4343.78
4339.96
4335.88
4332.54
4328.94
4325.98
4322.82
4320.23
4317.45
4315.21
4312.83
4310.8
4308.67
4306.91
4305.03
4303.48
4301.79
4300.44
4299.01
4297.9
4296.59
4295.68
4294.56
4293.78
4292.75
4292.1
4291.22
4290.72
4289.98
4289.57
4288.95
4288.6
4288
4287.63
4287.04
4286.72
4286.2
4285.93
4285.47
4285.26
4284.86
4284.71
4284.38
4284.36
4284.26
4284.43
4284.43
4284.74
4284.74
4285.38
4286.14
4314.98
4423.07
94337
8261.78
7570.22
6999.54
6539.08
6172.95
5883.35
5652.43
5466.85
5315.23
5190.44
5085.85
4997.98
4922.7
4858.43
4802.34
4753.89
4710.91
4673.48
4639.78
4610.26
4583.31
4559.64
4537.75
4518.48
4500.44
4484.57
4469.54
4456.33
4443.65
4432.57
4421.78
4412.41
4403.17
4395.19
4387.2
4380.37
4373.45
4367.57
4361.53
4356.44
4351.18
4346.76
4342.1
4338.28
4334.2
4330.85
4327.24
4324.28
4321.11
4318.52
4315.74
4313.49
4311.11
4309.07
4306.94
4305.17
4303.29
4301.74
4300.04
4298.7
4297.26
4296.15
4294.84
4293.93
4292.8
4292.02
4290.99
4290.34
4289.45
4288.95
4288.21
4287.8
4287.17
4286.83
4286.22
4285.85
4285.27
4284.94
4284.41
4284.14
4283.69
4283.47
4283.07
4282.92
4282.59
4282.57
4282.46
4282.63
4282.63
4282.93
4282.93
4283.56
4284.34
4313.52
4421.57
90532.9
8261.78
7570.25
6999.55
6539
6172.72
5882.96
5651.87
5466.14
5314.38
5189.47
5084.77
4996.8
4921.44
4857.1
4800.94
4752.44
4709.41
4671.92
4638.18
4608.62
4581.64
4557.94
4536.02
4516.72
4498.66
4482.77
4467.71
4454.49
4441.79
4430.7
4419.9
4410.51
4401.25
4393.26
4385.26
4378.42
4371.49
4365.61
4359.56
4354.45
4349.18
4344.76
4340.1
4336.27
4332.18
4328.82
4325.21
4322.24
4319.07
4316.48
4313.69
4311.43
4309.04
4307.01
4304.87
4303.1
4301.22
4299.66
4297.96
4296.61
4295.17
4294.06
4292.74
4291.83
4290.7
4289.92
4288.88
4288.23
4287.34
4286.84
4286.09
4285.68
4285.05
4284.71
4284.1
4283.73
4283.14
4282.81
4282.28
4282.01
4281.55
4281.34
4280.93
4280.78
4280.45
4280.42
4280.31
4280.47
4280.47
4280.76
4280.76
4281.4
4282.18
4311.77
4419.79
86793.7
8261.78
7570.29
6999.57
6538.91
6172.46
5882.51
5651.22
5465.31
5313.39
5188.33
5083.51
4995.43
4919.97
4855.55
4799.31
4750.74
4707.65
4670.11
4636.32
4606.71
4579.7
4555.95
4534
4514.68
4496.58
4480.67
4465.59
4452.35
4439.62
4428.51
4417.69
4408.29
4399.02
4391.01
4383
4376.15
4369.2
4363.31
4357.25
4352.14
4346.86
4342.43
4337.76
4333.92
4329.82
4326.46
4322.84
4319.86
4316.69
4314.09
4311.29
4309.03
4306.64
4304.6
4302.46
4300.68
4298.79
4297.23
4295.53
4294.17
4292.73
4291.62
4290.29
4289.38
4288.24
4287.46
4286.42
4285.76
4284.87
4284.37
4283.62
4283.21
4282.58
4282.23
4281.62
4281.24
4280.65
4280.32
4279.79
4279.52
4279.06
4278.84
4278.43
4278.28
4277.95
4277.91
4277.79
4277.95
4277.95
4278.24
4278.24
4278.86
4279.66
4309.73
4417.73
83122.1
8261.78
7570.33
6999.59
6538.81
6172.17
5881.99
5650.48
5464.37
5312.26
5187.04
5082.07
4993.87
4918.29
4853.77
4797.45
4748.79
4705.63
4668.03
4634.18
4604.53
4577.46
4553.68
4531.69
4512.33
4494.2
4478.27
4463.15
4449.89
4437.14
4426.01
4415.17
4405.75
4396.46
4388.44
4380.41
4373.54
4366.59
4360.68
4354.61
4349.48
4344.19
4339.75
4335.07
4331.22
4327.12
4323.75
4320.12
4317.14
4313.96
4311.35
4308.55
4306.28
4303.88
4301.83
4299.69
4297.91
4296.01
4294.45
4292.74
4291.38
4289.93
4288.82
4287.49
4286.57
4285.43
4284.65
4283.6
4282.94
4282.05
4281.54
4280.78
4280.37
4279.74
4279.39
4278.78
4278.4
4277.81
4277.47
4276.94
4276.66
4276.2
4275.98
4275.57
4275.41
4275.08
4275.04
4274.91
4275.07
4275.06
4275.34
4275.34
4275.96
4276.78
4307.4
4415.39
79516.4
8261.78
7570.38
6999.61
6538.69
6171.83
5881.41
5649.65
5463.3
5310.99
5185.58
5080.45
4992.1
4916.4
4851.76
4795.34
4746.6
4703.36
4665.69
4631.77
4602.06
4574.95
4551.11
4529.08
4509.68
4491.52
4475.55
4460.4
4447.11
4434.34
4423.18
4412.32
4402.88
4393.56
4385.53
4377.48
4370.6
4363.63
4357.71
4351.62
4346.48
4341.18
4336.73
4332.04
4328.18
4324.06
4320.69
4317.05
4314.06
4310.87
4308.25
4305.44
4303.17
4300.76
4298.71
4296.56
4294.77
4292.87
4291.3
4289.59
4288.23
4286.77
4285.65
4284.32
4283.39
4282.25
4281.46
4280.42
4279.75
4278.85
4278.34
4277.58
4277.17
4276.53
4276.18
4275.56
4275.18
4274.59
4274.25
4273.72
4273.44
4272.97
4272.75
4272.34
4272.17
4271.84
4271.8
4271.66
4271.81
4271.8
4272.07
4272.07
4272.68
4273.52
4304.78
4412.76
75970.8
8261.78
7570.43
6999.64
6538.57
6171.47
5880.76
5648.73
5462.12
5309.57
5183.96
5078.64
4990.13
4914.28
4849.52
4792.99
4744.15
4700.82
4663.07
4629.08
4599.31
4572.13
4548.25
4526.17
4506.73
4488.52
4472.51
4457.33
4444.01
4431.2
4420.02
4409.13
4399.67
4390.33
4382.28
4374.21
4367.31
4360.32
4354.39
4348.28
4343.13
4337.82
4333.35
4328.65
4324.78
4320.65
4317.26
4313.62
4310.62
4307.42
4304.8
4301.98
4299.7
4297.28
4295.22
4293.06
4291.27
4289.36
4287.79
4286.07
4284.7
4283.24
4282.12
4280.78
4279.85
4278.7
4277.91
4276.86
4276.19
4275.28
4274.77
4274.01
4273.59
4272.94
4272.59
4271.97
4271.59
4270.99
4270.65
4270.12
4269.83
4269.36
4269.14
4268.72
4268.56
4268.22
4268.17
4268.02
4268.16
4268.16
4268.41
4268.41
4269.02
4269.88
4301.85
4409.86
72481.6
8261.78
7570.49
6999.67
6538.43
6171.06
5880.05
5647.71
5460.81
5308.01
5182.16
5076.65
4987.96
4911.95
4847.05
4790.39
4741.45
4698.02
4660.18
4626.11
4596.27
4569.02
4545.08
4522.94
4503.45
4485.2
4469.15
4453.94
4440.58
4427.74
4416.53
4405.61
4396.12
4386.76
4378.68
4370.59
4363.67
4356.66
4350.71
4344.59
4339.43
4334.09
4329.62
4324.9
4321.02
4316.88
4313.48
4309.82
4306.81
4303.6
4300.97
4298.14
4295.85
4293.43
4291.36
4289.19
4287.4
4285.48
4283.9
4282.17
4280.8
4279.33
4278.2
4276.85
4275.92
4274.76
4273.97
4272.91
4272.24
4271.33
4270.81
4270.05
4269.62
4268.98
4268.62
4268
4267.61
4267.01
4266.67
4266.13
4265.84
4265.37
4265.14
4264.72
4264.55
4264.21
4264.16
4263.99
4264.13
4264.12
4264.37
4264.36
4264.97
4265.85
4298.62
4406.69
69055.3
8261.77
7570.55
6999.7
6538.28
6170.62
5879.28
5646.6
5459.39
5306.3
5180.2
5074.46
4985.57
4909.39
4844.34
4787.55
4738.48
4694.94
4657.01
4622.85
4592.93
4565.61
4541.61
4519.41
4499.86
4481.56
4465.47
4450.21
4436.81
4423.94
4412.69
4401.74
4392.23
4382.84
4374.73
4366.62
4359.68
4352.65
4346.68
4340.54
4335.36
4330.01
4325.51
4320.78
4316.89
4312.73
4309.32
4305.65
4302.63
4299.41
4296.77
4293.93
4291.63
4289.2
4287.12
4284.95
4283.14
4281.22
4279.63
4277.9
4276.52
4275.04
4273.9
4272.55
4271.61
4270.45
4269.65
4268.59
4267.91
4266.99
4266.47
4265.7
4265.27
4264.62
4264.26
4263.63
4263.25
4262.64
4262.29
4261.75
4261.46
4260.98
4260.75
4260.32
4260.15
4259.81
4259.75
4259.57
4259.7
4259.69
4259.93
4259.91
4260.51
4261.42
4295.07
4403.24
65697.9
8261.77
7570.62
6999.74
6538.13
6170.15
5878.44
5645.4
5457.84
5304.44
5178.07
5072.08
4982.98
4906.61
4841.4
4784.45
4735.25
4691.59
4653.55
4619.3
4589.29
4561.9
4537.82
4515.55
4495.95
4477.59
4461.45
4446.14
4432.7
4419.79
4408.51
4397.52
4387.98
4378.56
4370.43
4362.29
4355.32
4348.27
4342.27
4336.11
4330.92
4325.55
4321.04
4316.29
4312.38
4308.21
4304.79
4301.1
4298.07
4294.84
4292.18
4289.33
4287.03
4284.58
4282.5
4280.31
4278.5
4276.56
4274.97
4273.23
4271.84
4270.35
4269.21
4267.85
4266.9
4265.73
4264.93
4263.86
4263.18
4262.26
4261.73
4260.95
4260.52
4259.86
4259.5
4258.87
4258.48
4257.87
4257.52
4256.97
4256.68
4256.19
4255.96
4255.53
4255.35
4255.01
4254.94
4254.75
4254.87
4254.85
4255.08
4255.06
4255.65
4256.59
4291.2
4399.52
62415.2
8261.77
7570.69
6999.78
6537.96
6169.64
5877.54
5644.1
5456.17
5302.43
5175.76
5069.51
4980.18
4903.6
4838.2
4781.09
4731.75
4687.96
4649.81
4615.45
4585.35
4557.87
4533.71
4511.38
4491.71
4473.29
4457.1
4441.74
4428.25
4415.29
4403.97
4392.95
4383.37
4373.92
4365.76
4357.59
4350.6
4343.52
4337.5
4331.32
4326.1
4320.71
4316.18
4311.41
4307.49
4303.3
4299.87
4296.17
4293.12
4289.87
4287.21
4284.35
4282.03
4279.57
4277.48
4275.28
4273.46
4271.51
4269.92
4268.16
4266.77
4265.27
4264.12
4262.75
4261.8
4260.62
4259.81
4258.74
4258.05
4257.12
4256.59
4255.8
4255.36
4254.7
4254.33
4253.7
4253.31
4252.69
4252.34
4251.78
4251.49
4251
4250.76
4250.32
4250.14
4249.8
4249.72
4249.52
4249.63
4249.61
4249.82
4249.8
4250.38
4251.35
4287
4395.54
59212.2
8261.76
7570.77
6999.82
6537.78
6169.1
5876.57
5642.7
5454.38
5300.27
5173.28
5066.75
4977.16
4900.36
4834.76
4777.48
4727.98
4684.05
4645.77
4611.3
4581.1
4553.52
4529.29
4506.87
4487.14
4468.65
4452.4
4436.98
4423.45
4410.44
4399.08
4388.01
4378.4
4368.91
4360.72
4352.52
4345.5
4338.39
4332.35
4326.14
4320.9
4315.49
4310.94
4306.15
4302.21
4298.01
4294.55
4290.84
4287.78
4284.52
4281.84
4278.96
4276.63
4274.16
4272.06
4269.85
4268.02
4266.06
4264.46
4262.69
4261.29
4259.78
4258.63
4257.25
4256.29
4255.1
4254.29
4253.2
4252.51
4251.57
4251.03
4250.24
4249.8
4249.13
4248.76
4248.12
4247.73
4247.1
4246.74
4246.18
4245.88
4245.39
4245.14
4244.7
4244.52
4244.17
4244.08
4243.87
4243.97
4243.94
4244.14
4244.11
4244.69
4245.7
4282.46
4391.31
56093.8
8261.76
7570.85
6999.87
6537.59
6168.52
5875.54
5641.22
5452.46
5297.97
5170.63
5063.78
4973.93
4896.89
4831.08
4773.6
4723.94
4679.85
4641.44
4606.85
4576.53
4548.86
4524.53
4502.03
4482.22
4463.67
4447.35
4431.88
4418.29
4405.23
4393.82
4382.71
4373.06
4363.53
4355.3
4347.07
4340.02
4332.88
4326.81
4320.58
4315.32
4309.88
4305.31
4300.5
4296.54
4292.32
4288.85
4285.11
4282.04
4278.76
4276.07
4273.18
4270.83
4268.35
4266.24
4264.01
4262.18
4260.21
4258.59
4256.82
4255.41
4253.88
4252.72
4251.33
4250.37
4249.17
4248.35
4247.26
4246.56
4245.61
4245.06
4244.26
4243.82
4243.14
4242.77
4242.12
4241.72
4241.1
4240.73
4240.17
4239.86
4239.36
4239.11
4238.66
4238.47
4238.12
4238.02
4237.79
4237.88
4237.85
4238.04
4238
4238.57
4239.62
4277.57
4386.8
53064.7
8261.75
7570.94
6999.93
6537.39
6167.91
5874.45
5639.64
5450.42
5295.51
5167.8
5060.62
4970.48
4893.18
4827.14
4769.46
4719.62
4675.37
4636.81
4602.09
4571.66
4543.87
4519.45
4496.86
4476.97
4458.34
4441.95
4426.41
4412.77
4399.65
4388.2
4377.04
4367.34
4357.77
4349.51
4341.23
4334.15
4326.98
4320.89
4314.62
4309.34
4303.87
4299.28
4294.45
4290.47
4286.22
4282.74
4278.98
4275.9
4272.6
4269.89
4266.98
4264.63
4262.12
4260
4257.76
4255.92
4253.93
4252.31
4250.52
4249.1
4247.57
4246.4
4245
4244.02
4242.82
4241.99
4240.89
4240.18
4239.23
4238.67
4237.86
4237.41
4236.73
4236.35
4235.7
4235.29
4234.66
4234.29
4233.72
4233.41
4232.9
4232.64
4232.19
4231.99
4231.63
4231.53
4231.29
4231.37
4231.33
4231.5
4231.46
4232.02
4233.11
4272.32
4381.99
50128.8
8261.75
7571.04
6999.98
6537.18
6167.27
5873.3
5637.96
5448.26
5292.9
5164.79
5057.26
4966.81
4889.23
4822.95
4765.05
4715.01
4670.59
4631.88
4597.01
4566.46
4538.56
4514.03
4491.34
4471.37
4452.65
4436.2
4420.59
4406.88
4393.71
4382.2
4370.99
4361.24
4351.63
4343.33
4335.01
4327.9
4320.69
4314.57
4308.27
4302.96
4297.46
4292.85
4287.99
4283.99
4279.72
4276.22
4272.44
4269.34
4266.02
4263.3
4260.37
4258
4255.48
4253.35
4251.1
4249.24
4247.24
4245.61
4243.8
4242.38
4240.83
4239.65
4238.24
4237.25
4236.04
4235.2
4234.09
4233.38
4232.41
4231.85
4231.03
4230.57
4229.88
4229.5
4228.84
4228.43
4227.79
4227.42
4226.84
4226.52
4226
4225.74
4225.28
4225.08
4224.72
4224.61
4224.35
4224.42
4224.37
4224.53
4224.47
4225.02
4226.16
4266.68
4376.87
47289.9
8261.74
7571.13
7000.05
6536.97
6166.6
5872.09
5636.2
5445.98
5290.14
5161.61
5053.71
4962.92
4885.05
4818.51
4760.38
4710.13
4665.52
4626.65
4591.63
4560.94
4532.91
4508.27
4485.48
4465.41
4446.61
4430.08
4414.4
4400.62
4387.38
4375.82
4364.55
4354.76
4345.1
4336.75
4328.4
4321.25
4314
4307.84
4301.52
4296.17
4290.65
4286.01
4281.13
4277.1
4272.81
4269.28
4265.49
4262.36
4259.03
4256.29
4253.34
4250.95
4248.42
4246.27
4244
4242.13
4240.12
4238.47
4236.66
4235.22
4233.66
4232.47
4231.05
4230.05
4228.82
4227.98
4226.86
4226.14
4225.16
4224.59
4223.76
4223.3
4222.6
4222.21
4221.55
4221.13
4220.49
4220.11
4219.52
4219.19
4218.67
4218.4
4217.93
4217.73
4217.35
4217.24
4216.97
4217.02
4216.97
4217.11
4217.04
4217.58
4218.77
4260.64
4371.41
44551.6
8261.73
7571.24
7000.11
6536.75
6165.89
5870.81
5634.34
5443.57
5287.23
5158.25
5049.95
4958.81
4880.62
4813.81
4755.43
4704.96
4660.16
4621.1
4585.92
4555.09
4526.93
4502.17
4479.27
4459.11
4440.21
4423.6
4407.83
4393.99
4380.68
4369.06
4357.73
4347.89
4338.17
4329.78
4321.38
4314.19
4306.91
4300.72
4294.35
4288.98
4283.42
4278.76
4273.84
4269.79
4265.47
4261.92
4258.11
4254.97
4251.61
4248.85
4245.89
4243.48
4240.92
4238.77
4236.48
4234.59
4232.56
4230.91
4229.08
4227.63
4226.05
4224.85
4223.42
4222.41
4221.17
4220.32
4219.18
4218.45
4217.47
4216.89
4216.05
4215.58
4214.87
4214.47
4213.8
4213.39
4212.73
4212.35
4211.75
4211.42
4210.89
4210.61
4210.14
4209.92
4209.54
4209.42
4209.14
4209.18
4209.11
4209.24
4209.16
4209.69
4210.92
4254.19
4365.58
41916.7
8261.72
7571.34
7000.19
6536.52
6165.16
5869.48
5632.39
5441.04
5284.17
5154.72
5045.99
4954.47
4875.95
4808.85
4750.2
4699.51
4654.49
4615.25
4579.9
4548.91
4520.61
4495.73
4472.71
4452.44
4433.45
4416.74
4400.89
4386.98
4373.6
4361.91
4350.52
4340.62
4330.85
4322.41
4313.97
4306.73
4299.4
4293.18
4286.77
4281.37
4275.78
4271.08
4266.14
4262.06
4257.71
4254.14
4250.3
4247.14
4243.75
4240.98
4237.99
4235.57
4232.99
4230.82
4228.51
4226.62
4224.57
4222.9
4221.06
4219.6
4218
4216.79
4215.34
4214.33
4213.07
4212.21
4211.06
4210.32
4209.33
4208.74
4207.89
4207.41
4206.69
4206.29
4205.61
4205.19
4204.53
4204.13
4203.53
4203.19
4202.65
4202.37
4201.89
4201.67
4201.28
4201.14
4200.85
4200.87
4200.8
4200.91
4200.81
4201.33
4202.62
4247.29
4359.35
39388.2
8261.71
7571.46
7000.26
6536.28
6164.4
5868.08
5630.36
5438.39
5280.96
5151
5041.83
4949.92
4871.05
4803.63
4744.71
4693.76
4648.52
4609.08
4573.55
4542.4
4513.95
4488.94
4465.79
4445.41
4426.31
4409.51
4393.58
4379.58
4366.12
4354.37
4342.91
4332.96
4323.13
4314.64
4306.14
4298.86
4291.49
4285.22
4278.78
4273.33
4267.71
4262.99
4258.01
4253.9
4249.53
4245.93
4242.06
4238.88
4235.47
4232.67
4229.66
4227.22
4224.62
4222.43
4220.11
4218.19
4216.13
4214.45
4212.59
4211.12
4209.5
4208.28
4206.82
4205.79
4204.52
4203.65
4202.49
4201.74
4200.73
4200.13
4199.27
4198.78
4198.06
4197.65
4196.96
4196.53
4195.86
4195.46
4194.85
4194.5
4193.95
4193.67
4193.17
4192.94
4192.55
4192.41
4192.1
4192.11
4192.02
4192.11
4192
4192.51
4193.85
4239.92
4352.68
36968.3
8261.7
7571.57
7000.35
6536.04
6163.61
5866.64
5628.23
5435.62
5277.6
5147.12
5037.47
4945.14
4865.9
4798.15
4738.93
4687.73
4642.25
4602.6
4566.88
4535.56
4506.95
4481.79
4458.52
4438.02
4418.81
4401.91
4385.88
4371.8
4358.26
4346.43
4334.9
4324.88
4314.99
4306.45
4297.9
4290.57
4283.15
4276.84
4270.36
4264.88
4259.21
4254.46
4249.44
4245.31
4240.9
4237.28
4233.38
4230.17
4226.74
4223.92
4220.89
4218.42
4215.8
4213.6
4211.25
4209.32
4207.24
4205.55
4203.66
4202.18
4200.55
4199.32
4197.83
4196.79
4195.51
4194.63
4193.46
4192.7
4191.68
4191.07
4190.2
4189.7
4188.96
4188.54
4187.85
4187.41
4186.73
4186.33
4185.7
4185.35
4184.79
4184.49
4183.99
4183.75
4183.35
4183.2
4182.88
4182.87
4182.77
4182.85
4182.72
4183.22
4184.62
4232.05
4345.55
34659.2
8261.69
7571.69
7000.44
6535.8
6162.79
5865.13
5626.01
5432.73
5274.09
5143.05
5032.9
4940.14
4860.5
4792.41
4732.88
4681.4
4635.68
4595.81
4559.87
4528.38
4499.6
4474.29
4450.88
4430.26
4410.93
4393.92
4377.79
4363.62
4350
4338.09
4326.49
4316.4
4306.45
4297.85
4289.24
4281.86
4274.39
4268.03
4261.5
4255.99
4250.28
4245.49
4240.44
4236.27
4231.83
4228.18
4224.26
4221.02
4217.56
4214.72
4211.66
4209.18
4206.53
4204.31
4201.94
4200
4197.89
4196.18
4194.28
4192.79
4191.13
4189.89
4188.39
4187.34
4186.03
4185.14
4183.96
4183.19
4182.15
4181.54
4180.65
4180.14
4179.39
4178.97
4178.26
4177.82
4177.13
4176.72
4176.08
4175.72
4175.15
4174.85
4174.34
4174.09
4173.67
4173.52
4173.19
4173.16
4173.05
4173.11
4172.96
4173.45
4174.9
4223.64
4337.92
32462.6
8261.68
7571.82
7000.53
6535.55
6161.95
5863.57
5623.72
5429.73
5270.43
5138.81
5028.14
4934.92
4854.87
4786.41
4726.55
4674.78
4628.79
4588.69
4552.54
4520.85
4491.9
4466.44
4442.87
4422.12
4402.67
4385.55
4369.31
4355.05
4341.33
4329.35
4317.67
4307.51
4297.49
4288.83
4280.16
4272.73
4265.2
4258.8
4252.22
4246.66
4240.91
4236.08
4231
4226.8
4222.32
4218.64
4214.68
4211.42
4207.93
4205.07
4201.98
4199.48
4196.81
4194.57
4192.17
4190.21
4188.08
4186.36
4184.44
4182.93
4181.25
4180
4178.48
4177.41
4176.09
4175.19
4173.99
4173.21
4172.16
4171.53
4170.63
4170.11
4169.35
4168.92
4168.2
4167.75
4167.05
4166.63
4165.99
4165.62
4165.04
4164.73
4164.2
4163.95
4163.52
4163.35
4163.02
4162.97
4162.85
4162.88
4162.71
4163.19
4164.71
4214.66
4329.74
30380.1
8261.67
7571.95
7000.63
6535.3
6161.08
5861.96
5621.33
5426.61
5266.63
5134.4
5023.18
4929.47
4848.99
4780.15
4719.95
4667.87
4621.6
4581.25
4544.88
4512.99
4483.85
4458.22
4434.5
4413.61
4394.03
4376.79
4360.44
4346.08
4332.27
4320.2
4308.43
4298.21
4288.11
4279.38
4270.65
4263.16
4255.58
4249.13
4242.5
4236.89
4231.1
4226.24
4221.11
4216.87
4212.36
4208.65
4204.66
4201.37
4197.85
4194.96
4191.85
4189.31
4186.62
4184.36
4181.94
4179.96
4177.8
4176.07
4174.13
4172.6
4170.9
4169.63
4168.1
4167.02
4165.68
4164.76
4163.55
4162.76
4161.69
4161.05
4160.13
4159.6
4158.83
4158.39
4157.66
4157.21
4156.49
4156.07
4155.41
4155.03
4154.44
4154.12
4153.58
4153.32
4152.88
4152.7
4152.36
4152.3
4152.16
4152.17
4151.97
4152.45
4154.02
4205.08
4320.99
28413
8261.65
7572.08
7000.74
6535.05
6160.19
5860.3
5618.87
5423.37
5262.69
5129.81
5018.02
4923.8
4842.86
4773.62
4713.06
4660.66
4614.1
4573.49
4536.89
4504.78
4475.45
4449.64
4425.76
4404.72
4385
4367.65
4351.18
4336.71
4322.8
4310.64
4298.78
4288.48
4278.3
4269.51
4260.71
4253.16
4245.52
4239.02
4232.34
4226.69
4220.84
4215.94
4210.77
4206.49
4201.94
4198.2
4194.17
4190.85
4187.3
4184.39
4181.24
4178.68
4175.96
4173.68
4171.23
4169.23
4167.06
4165.3
4163.34
4161.8
4160.08
4158.79
4157.23
4156.14
4154.78
4153.85
4152.62
4151.82
4150.74
4150.08
4149.15
4148.61
4147.82
4147.37
4146.63
4146.17
4145.45
4145.01
4144.34
4143.96
4143.35
4143.02
4142.47
4142.2
4141.75
4141.56
4141.2
4141.13
4140.97
4140.96
4140.74
4141.21
4142.84
4194.88
4311.62
26562.5
8261.63
7572.21
7000.85
6534.79
6159.28
5858.59
5616.32
5420.03
5258.6
5125.06
5012.66
4917.91
4836.5
4766.84
4705.89
4653.16
4606.29
4565.41
4528.56
4496.23
4466.69
4440.7
4416.65
4395.46
4375.59
4358.11
4341.51
4326.94
4312.92
4300.66
4288.72
4278.33
4268.07
4259.21
4250.33
4242.73
4235.02
4228.46
4221.73
4216.03
4210.13
4205.19
4199.97
4195.66
4191.07
4187.28
4183.22
4179.88
4176.29
4173.34
4170.17
4167.58
4164.83
4162.53
4160.05
4158.03
4155.83
4154.06
4152.07
4150.51
4148.77
4147.47
4145.89
4144.78
4143.4
4142.46
4141.21
4140.39
4139.29
4138.63
4137.68
4137.13
4136.33
4135.86
4135.12
4134.64
4133.91
4133.46
4132.78
4132.39
4131.77
4131.43
4130.86
4130.58
4130.12
4129.92
4129.55
4129.46
4129.29
4129.26
4129.01
4129.46
4131.16
4184.06
4301.6
24829.8
8261.62
7572.35
7000.97
6534.54
6158.35
5856.84
5613.7
5416.57
5254.37
5120.13
5007.11
4911.81
4829.89
4759.79
4698.45
4645.37
4598.18
4557.01
4519.89
4487.34
4457.58
4431.4
4407.16
4385.81
4365.79
4348.17
4331.45
4316.75
4302.62
4290.27
4278.23
4267.75
4257.41
4248.47
4239.52
4231.85
4224.08
4217.46
4210.67
4204.92
4198.97
4193.98
4188.71
4184.36
4179.73
4175.91
4171.81
4168.43
4164.8
4161.83
4158.62
4156.01
4153.22
4150.9
4148.39
4146.35
4144.13
4142.33
4140.32
4138.75
4136.98
4135.66
4134.06
4132.93
4131.53
4130.58
4129.31
4128.48
4127.36
4126.68
4125.72
4125.15
4124.34
4123.86
4123.1
4122.62
4121.87
4121.42
4120.72
4120.32
4119.68
4119.33
4118.76
4118.46
4117.99
4117.78
4117.39
4117.29
4117.11
4117.05
4116.77
4117.22
4118.97
4172.62
4290.88
23215.7
8261.6
7572.49
7001.1
6534.28
6157.41
5855.04
5611.01
5413.01
5250.01
5115.04
5001.37
4905.48
4823.05
4752.48
4690.73
4637.27
4589.75
4548.29
4510.89
4478.09
4448.11
4421.73
4397.3
4375.78
4355.6
4337.84
4320.98
4306.17
4291.91
4279.46
4267.31
4256.75
4246.32
4237.3
4228.28
4220.53
4212.69
4206.02
4199.16
4193.36
4187.35
4182.31
4177
4172.6
4167.92
4164.07
4159.93
4156.51
4152.85
4149.84
4146.6
4143.96
4141.14
4138.79
4136.25
4134.19
4131.93
4130.12
4128.09
4126.49
4124.69
4123.36
4121.74
4120.59
4119.17
4118.2
4116.91
4116.07
4114.93
4114.23
4113.26
4112.67
4111.85
4111.36
4110.58
4110.09
4109.33
4108.87
4108.16
4107.74
4107.09
4106.73
4106.15
4105.84
4105.35
4105.13
4104.73
4104.61
4104.41
4104.34
4104.02
4104.46
4106.27
4160.56
4279.44
21716
8261.58
7572.64
7001.23
6534.03
6156.44
5853.2
5608.24
5409.35
5245.51
5109.79
4995.44
4898.95
4815.97
4744.92
4682.73
4628.89
4581.02
4539.24
4501.56
4468.5
4438.28
4411.69
4387.07
4365.37
4345.02
4327.11
4310.1
4295.17
4280.79
4268.22
4255.97
4245.32
4234.79
4225.69
4216.58
4208.77
4200.85
4194.11
4187.19
4181.33
4175.27
4170.18
4164.81
4160.37
4155.65
4151.75
4147.57
4144.12
4140.41
4137.38
4134.1
4131.42
4128.57
4126.2
4123.63
4121.54
4119.25
4117.42
4115.36
4113.74
4111.92
4110.57
4108.92
4107.76
4106.31
4105.32
4104.02
4103.16
4102
4101.29
4100.29
4099.7
4098.85
4098.35
4097.56
4097.06
4096.29
4095.81
4095.09
4094.66
4094
4093.63
4093.02
4092.71
4092.2
4091.97
4091.55
4091.42
4091.21
4091.11
4090.76
4091.19
4093.05
4147.88
4267.23
20325.9
8261.56
7572.78
7001.37
6533.77
6155.47
5851.32
5605.4
5405.59
5240.88
5104.38
4989.31
4892.19
4808.65
4737.1
4674.46
4620.22
4571.98
4529.88
4491.89
4458.57
4428.1
4401.29
4376.46
4354.57
4334.05
4315.98
4298.83
4283.75
4269.25
4256.57
4244.21
4233.45
4222.83
4213.64
4204.45
4196.56
4188.57
4181.76
4174.77
4168.85
4162.73
4157.58
4152.16
4147.68
4142.9
4138.96
4134.73
4131.24
4127.5
4124.43
4121.11
4118.41
4115.51
4113.11
4110.51
4108.4
4106.08
4104.23
4102.14
4100.5
4098.65
4097.28
4095.6
4094.42
4092.95
4091.95
4090.62
4089.74
4088.57
4087.84
4086.82
4086.21
4085.35
4084.84
4084.03
4083.52
4082.73
4082.25
4081.51
4081.07
4080.39
4080.01
4079.39
4079.06
4078.54
4078.29
4077.86
4077.71
4077.48
4077.37
4076.98
4077.4
4079.31
4134.58
4254.23
19040.6
8261.53
7572.93
7001.52
6533.53
6154.48
5849.41
5602.5
5401.73
5236.12
5098.81
4983.01
4885.23
4801.1
4729.03
4665.91
4611.25
4562.63
4520.19
4481.89
4448.29
4417.56
4390.52
4365.47
4343.39
4322.68
4304.45
4287.14
4271.93
4257.29
4244.49
4232.01
4221.15
4210.42
4201.15
4191.87
4183.9
4175.82
4168.95
4161.89
4155.91
4149.72
4144.52
4139.04
4134.5
4129.68
4125.69
4121.42
4117.89
4114.1
4111
4107.64
4104.9
4101.97
4099.54
4096.9
4094.77
4092.42
4090.54
4088.42
4086.76
4084.88
4083.48
4081.78
4080.58
4079.09
4078.06
4076.71
4075.82
4074.62
4073.88
4072.84
4072.22
4071.34
4070.81
4069.99
4069.47
4068.66
4068.17
4067.41
4066.96
4066.27
4065.87
4065.24
4064.89
4064.35
4064.1
4063.65
4063.48
4063.23
4063.11
4062.67
4063.09
4065.04
4120.65
4240.39
17854.7
8261.51
7573.08
7001.67
6533.28
6153.48
5847.46
5599.54
5397.77
5231.24
5093.08
4976.52
4878.07
4793.32
4720.71
4657.1
4602
4552.98
4510.18
4471.56
4437.67
4406.67
4379.38
4354.11
4331.83
4310.93
4292.53
4275.05
4259.7
4244.91
4231.99
4219.38
4208.42
4197.58
4188.22
4178.84
4170.79
4162.63
4155.68
4148.54
4142.5
4136.24
4130.99
4125.45
4120.86
4115.97
4111.95
4107.62
4104.05
4100.22
4097.08
4093.67
4090.9
4087.93
4085.47
4082.8
4080.64
4078.25
4076.35
4074.19
4072.52
4070.6
4069.19
4067.46
4066.24
4064.72
4063.67
4062.3
4061.39
4060.17
4059.41
4058.35
4057.71
4056.81
4056.27
4055.43
4054.9
4054.08
4053.57
4052.8
4052.34
4051.62
4051.21
4050.56
4050.21
4049.65
4049.38
4048.92
4048.73
4048.46
4048.32
4047.85
4048.26
4050.24
4106.09
4225.7
16762.8
8261.48
7573.24
7001.83
6533.04
6152.47
5845.48
5596.52
5393.73
5226.24
5087.21
4969.86
4870.7
4785.31
4712.13
4648.01
4592.46
4543.02
4499.86
4460.9
4426.7
4395.42
4367.88
4342.37
4319.88
4298.78
4280.2
4262.55
4247.05
4232.12
4219.06
4206.33
4195.25
4184.3
4174.84
4165.36
4157.22
4148.97
4141.95
4134.74
4128.62
4122.3
4116.98
4111.38
4106.74
4101.8
4097.72
4093.34
4089.73
4085.85
4082.67
4079.22
4076.41
4073.4
4070.91
4068.2
4066.01
4063.58
4061.66
4059.47
4057.77
4055.82
4054.39
4052.63
4051.39
4049.83
4048.77
4047.38
4046.45
4045.2
4044.42
4043.34
4042.68
4041.76
4041.21
4040.36
4039.81
4038.97
4038.45
4037.66
4037.19
4036.46
4036.03
4035.37
4035
4034.42
4034.14
4033.65
4033.45
4033.17
4033.01
4032.49
4032.89
4034.91
4090.91
4210.12
15759.1
8261.45
7573.39
7002
6532.81
6151.46
5843.47
5593.44
5389.61
5221.13
5081.2
4963.02
4863.13
4777.08
4703.32
4638.66
4582.64
4532.77
4489.22
4449.91
4415.39
4383.82
4356.02
4330.26
4307.55
4286.24
4267.48
4249.65
4233.98
4218.9
4205.71
4192.84
4181.64
4170.58
4161.01
4151.43
4143.2
4134.86
4127.76
4120.46
4114.28
4107.88
4102.51
4096.84
4092.14
4087.14
4083.01
4078.58
4074.92
4070.99
4067.77
4064.27
4061.43
4058.37
4055.85
4053.1
4050.88
4048.42
4046.46
4044.24
4042.52
4040.53
4039.07
4037.29
4036.02
4034.44
4033.36
4031.94
4030.99
4029.72
4028.92
4027.82
4027.14
4026.2
4025.63
4024.76
4024.2
4023.34
4022.81
4022
4021.51
4020.76
4020.33
4019.64
4019.26
4018.66
4018.37
4017.86
4017.64
4017.34
4017.16
4016.61
4017
4019.04
4075.09
4193.63
14837.8
8261.42
7573.54
7002.17
6532.58
6150.45
5841.45
5590.32
5385.4
5215.9
5075.04
4956.02
4855.37
4768.64
4694.26
4629.06
4572.54
4522.22
4478.27
4438.59
4403.75
4371.87
4343.79
4317.78
4294.84
4273.31
4254.36
4236.34
4220.51
4205.27
4191.93
4178.93
4167.61
4156.42
4146.74
4137.05
4128.73
4120.3
4113.11
4105.73
4099.48
4092.99
4087.55
4081.82
4077.06
4071.99
4067.81
4063.33
4059.62
4055.64
4052.37
4048.83