/*--------------------------------*- C++ -*----------------------------------*\
| =========                 |                                                 |
| \\      /  F ield         | OpenFOAM: The Open Source CFD Toolbox           |
|  \\    /   O peration     | Version:  v2012                                 |
|   \\  /    A nd           | Website:  www.openfoam.com                      |
|    \\/     M anipulation  |                                                 |
\*---------------------------------------------------------------------------*/
FoamFile
{
    version     2.0;
    format      ascii;
    class       volScalarField;
    location    "56";
    object      yPlus;
}
// * * * * * * * * * * * * * * * * * * * * * * * * * * * * * * * * * * * * * //

dimensions      [0 0 0 0 0 0 0];


internalField   uniform 0;

boundaryField
{
    inlet
    {
        type            calculated;
        value           uniform 0;
    }
    outlet
    {
        type            calculated;
        value           uniform 0;
    }
    topWall
    {
        type            calculated;
        value           nonuniform List<scalar> 
545
(
0.111332
0.191969
0.246278
0.2895
0.326092
0.358111
0.386712
0.412624
0.43634
0.458217
0.47852
0.497457
0.515191
0.531854
0.547557
0.562391
0.576435
0.589755
0.60241
0.614451
0.625924
0.636866
0.647316
0.657304
0.66686
0.676009
0.684777
0.693184
0.701251
0.708997
0.716437
0.723589
0.730467
0.737084
0.743453
0.749586
0.755494
0.761188
0.766676
0.771969
0.777075
0.782002
0.786758
0.791349
0.795784
0.800068
0.804207
0.808207
0.812074
0.815813
0.819429
0.822927
0.826311
0.829586
0.832755
0.835823
0.838794
0.84167
0.844456
0.847154
0.849768
0.852301
0.854755
0.857134
0.859439
0.861674
0.863841
0.865942
0.86798
0.869956
0.871873
0.873732
0.875513
0.877236
0.878945
0.880641
0.882323
0.883993
0.885649
0.887292
0.888922
0.89054
0.892145
0.893738
0.895318
0.896886
0.898442
0.899986
0.901518
0.903038
0.904547
0.906045
0.90753
0.909005
0.910468
0.911921
0.913229
0.9144
0.915571
0.916741
0.917912
0.919082
0.920252
0.921422
0.922592
0.923762
0.924931
0.926101
0.92727
0.928439
0.929608
0.930777
0.931945
0.933114
0.934282
0.93545
0.936618
0.937785
0.938953
0.94012
0.941287
0.942453
0.943619
0.944785
0.945951
0.947117
0.948282
0.949447
0.950612
0.951776
0.95294
0.954104
0.955267
0.95643
0.957593
0.958755
0.959917
0.961079
0.96224
0.963401
0.964561
0.965721
0.966881
0.96804
0.969199
0.970357
0.971515
0.972672
0.973829
0.974986
0.976142
0.977298
0.978453
0.979607
0.980761
0.981915
0.983068
0.98422
0.985372
0.986524
0.987674
0.988825
0.989974
0.991123
0.992272
0.99342
0.994567
0.995714
0.99686
0.998005
0.99915
1.00029
1.00144
1.00258
1.00372
1.00486
1.006
1.00714
1.00828
1.00942
1.01056
1.0117
1.01283
1.01397
1.0151
1.01623
1.01737
1.0185
1.01963
1.02076
1.02189
1.02302
1.02415
1.02527
1.0264
1.02752
1.02865
1.02977
1.03089
1.03202
1.03314
1.03426
1.03537
1.03649
1.03761
1.03872
1.03984
1.04095
1.04206
1.04317
1.04428
1.04539
1.0465
1.04761
1.04871
1.04982
1.05092
1.05202
1.05312
1.05422
1.05532
1.05642
1.05752
1.05861
1.05971
1.0608
1.06189
1.06298
1.06407
1.06516
1.06624
1.06733
1.06841
1.06949
1.07057
1.07165
1.07273
1.07381
1.07488
1.07596
1.07703
1.0781
1.07917
1.08024
1.0813
1.08237
1.08343
1.08449
1.08555
1.08661
1.08767
1.08873
1.08978
1.09083
1.09188
1.09293
1.09398
1.09503
1.09607
1.09711
1.09815
1.09919
1.10023
1.10127
1.1023
1.10333
1.10436
1.10539
1.10642
1.10738
1.1083
1.10922
1.11014
1.11108
1.11202
1.11296
1.11391
1.11487
1.11584
1.11681
1.11779
1.11877
1.11976
1.12076
1.12176
1.12278
1.12379
1.12482
1.12584
1.12688
1.12792
1.12897
1.13003
1.13109
1.13215
1.13323
1.13431
1.13539
1.13648
1.13758
1.13869
1.13979
1.14091
1.14203
1.14316
1.14429
1.14543
1.14657
1.14772
1.14888
1.15004
1.15121
1.15238
1.15355
1.15473
1.15592
1.15711
1.15831
1.15951
1.16072
1.16193
1.16314
1.16436
1.16558
1.16681
1.16804
1.16928
1.17052
1.17176
1.17301
1.17426
1.17551
1.17677
1.17803
1.17929
1.18056
1.18183
1.1831
1.18437
1.18564
1.18692
1.1882
1.18948
1.19076
1.19204
1.19332
1.19461
1.19589
1.19718
1.19847
1.19975
1.20104
1.20232
1.20361
1.20489
1.20617
1.20745
1.20873
1.21001
1.21129
1.21256
1.21383
1.2151
1.21636
1.21763
1.21889
1.22014
1.22139
1.22264
1.22388
1.22511
1.22634
1.22757
1.22879
1.23
1.23121
1.23241
1.2336
1.23479
1.23597
1.23714
1.2383
1.23945
1.24059
1.24173
1.24285
1.24397
1.24507
1.24617
1.24725
1.24832
1.24938
1.25043
1.25147
1.25249
1.2535
1.2545
1.25548
1.25645
1.2574
1.25834
1.25927
1.26018
1.26108
1.26195
1.26282
1.26366
1.26449
1.2653
1.2661
1.26688
1.26763
1.26837
1.2691
1.2698
1.27048
1.27115
1.27179
1.27242
1.27302
1.2736
1.27417
1.27471
1.27523
1.27573
1.27621
1.27666
1.2771
1.27751
1.2779
1.27827
1.27861
1.27894
1.27924
1.27951
1.27977
1.28
1.28021
1.28039
1.28055
1.28069
1.28081
1.2809
1.28097
1.28101
1.28103
1.28103
1.28101
1.28096
1.28089
1.28079
1.28064
1.28047
1.28026
1.28003
1.27977
1.27949
1.27918
1.27885
1.2785
1.27813
1.27774
1.27734
1.27691
1.27648
1.27602
1.27556
1.27508
1.27459
1.27409
1.27358
1.27306
1.27253
1.27199
1.27145
1.2709
1.27035
1.26979
1.26923
1.26866
1.26809
1.26752
1.26695
1.26637
1.2658
1.26523
1.26466
1.26408
1.26351
1.26295
1.26238
1.26182
1.26126
1.2607
1.26015
1.25961
1.25907
1.25853
1.258
1.25748
1.25696
1.25645
1.25595
1.25546
1.25497
1.25449
1.25402
1.25356
1.2531
1.25266
1.25223
1.2518
1.25139
1.25099
1.25059
1.25021
1.24984
1.24948
1.24913
1.24879
1.24847
1.24815
1.24785
1.24757
1.24729
1.24703
1.24677
1.24654
1.24631
1.2461
1.2459
1.24572
1.24555
1.24539
1.24524
1.24511
1.245
1.2449
1.24481
1.24473
1.24467
1.24463
1.24459
1.24458
1.24457
)
;
    }
    bottomWall
    {
        type            calculated;
        value           nonuniform List<scalar> 
449
(
0.139381
0.0889254
0.0757923
0.0694425
0.0652924
0.0622259
0.0598493
0.0580373
0.0568674
0.0566888
0.0582717
0.0623215
0.0658496
0.0680182
0.0691992
0.0698388
0.070161
0.0702815
0.070254
0.0701434
0.0699764
0.0697724
0.069549
0.0693167
0.0690815
0.0688472
0.0686158
0.068389
0.0681679
0.0679528
0.0677441
0.0675416
0.0673454
0.0671552
0.066971
0.0667922
0.0666186
0.0664502
0.0662867
0.066128
0.0659737
0.0658238
0.065678
0.065536
0.0653978
0.065263
0.0651317
0.0650035
0.0648785
0.0647562
0.0646362
0.0645184
0.0644027
0.0642889
0.0641772
0.0640675
0.0639598
0.063854
0.0637502
0.0636481
0.0635479
0.0634494
0.0633526
0.0632574
0.0631638
0.0630718
0.0629813
0.0628922
0.0628045
0.0627182
0.0626331
0.0625493
0.0624667
0.0623854
0.0623052
0.0622262
0.0621483
0.0620715
0.0619957
0.0619211
0.0618474
0.0617747
0.061703
0.0616323
0.0615624
0.0614935
0.0614254
0.0613582
0.0612918
0.0612261
0.0611613
0.0610973
0.061034
0.0609714
0.0609096
0.0608484
0.060788
0.0607282
0.0606691
0.0606106
0.0605528
0.0604955
0.0604388
0.0603827
0.0603271
0.0602722
0.0602178
0.0601639
0.0601105
0.0600577
0.0600054
0.0599536
0.0599023
0.0598515
0.0598011
0.0597513
0.0597018
0.0596529
0.0596043
0.0595563
0.0595086
0.0594613
0.0594145
0.059368
0.059322
0.0592764
0.0592311
0.0591862
0.0591417
0.0590975
0.0590537
0.0590103
0.0589672
0.0589244
0.058882
0.0588399
0.0587981
0.0587566
0.0587155
0.0586747
0.0586341
0.0585939
0.058554
0.0585143
0.058475
0.0584359
0.0583971
0.0583586
0.0583203
0.0582822
0.0582444
0.0582069
0.0581696
0.0581326
0.0580958
0.0580593
0.058023
0.0579869
0.0579511
0.0579155
0.0578801
0.057845
0.0578101
0.0577754
0.0577409
0.0577066
0.0576725
0.0576387
0.0576051
0.0575716
0.0575384
0.0575053
0.0574725
0.0574417
0.0574126
0.0573835
0.0573543
0.057325
0.0572956
0.0572661
0.0572365
0.0572068
0.057177
0.0571471
0.0571171
0.0570871
0.0570569
0.0570266
0.0569962
0.0569658
0.0569352
0.0569046
0.0568739
0.056843
0.0568121
0.0567811
0.05675
0.0567189
0.0566876
0.0566562
0.0566248
0.0565933
0.0565617
0.05653
0.0564982
0.0564664
0.0564344
0.0564024
0.0563703
0.0563382
0.0563059
0.0562736
0.0562412
0.0562087
0.0561761
0.0561434
0.0561106
0.0560778
0.0560449
0.0560119
0.0559789
0.0559458
0.0559126
0.0558793
0.055846
0.0558126
0.0557792
0.0557457
0.0557121
0.0556784
0.0556447
0.055611
0.0555771
0.0555432
0.0555093
0.0554753
0.0554412
0.0554071
0.0553729
0.0553386
0.0553043
0.05527
0.0552356
0.0552011
0.0551666
0.055132
0.0550974
0.0550628
0.055028
0.0549933
0.0549585
0.0549236
0.0548887
0.0548538
0.0548188
0.0547837
0.0547486
0.0547135
0.0546784
0.0546431
0.0546079
0.0545726
0.0545373
0.0545019
0.0544665
0.0544311
0.0543956
0.0543601
0.0543245
0.054289
0.0542533
0.0542177
0.054182
0.0541463
0.0541105
0.0540747
0.0540388
0.0540029
0.053967
0.0539311
0.0538951
0.0538591
0.0538231
0.053787
0.053751
0.0537149
0.0536788
0.0536426
0.0536065
0.0535703
0.0535341
0.0534979
0.0534617
0.0534254
0.0533892
0.0533529
0.0533166
0.0532803
0.053244
0.0532077
0.0531713
0.053135
0.0530986
0.0530622
0.0530259
0.0529895
0.0529531
0.0529167
0.0528803
0.0528438
0.0528074
0.052771
0.0527346
0.0526981
0.0526617
0.0526253
0.0525888
0.0525524
0.0525159
0.0524795
0.0524431
0.0524066
0.0523702
0.0523338
0.0522974
0.0522609
0.0522245
0.0521881
0.0521517
0.0521153
0.0520789
0.0520425
0.0520061
0.0519697
0.0519333
0.0518969
0.0518605
0.0518242
0.0517879
0.0517515
0.0517152
0.0516789
0.0516426
0.0516063
0.0515701
0.0515338
0.0514976
0.0514614
0.0514253
0.0513891
0.051353
0.0513168
0.0512808
0.0512447
0.0512046
0.0511609
0.0511178
0.0510753
0.0510333
0.0509919
0.0509511
0.0509107
0.0508709
0.0508316
0.0507928
0.0507545
0.0507167
0.0506793
0.0506424
0.0506059
0.0505699
0.0505342
0.0504991
0.0504643
0.0504299
0.0503959
0.0503623
0.050329
0.0502962
0.0502637
0.0502315
0.0501997
0.0501683
0.0501371
0.0501063
0.0500758
0.0500456
0.0500157
0.0499861
0.0499568
0.0499278
0.0498991
0.0498707
0.0498425
0.0498147
0.049787
0.0497597
0.0497326
0.0497058
0.0496792
0.0496528
0.0496267
0.0496009
0.0495752
0.0495499
0.0495247
0.0494998
0.049475
0.0494505
0.0494262
0.0494021
0.0493782
0.0493546
0.049331
0.0493078
0.0492847
0.0492618
0.049239
0.0492166
0.0491941
0.049172
0.04915
0.0491282
0.0491065
0.0490851
0.0490636
0.0490426
0.0490214
0.0490008
0.0489799
0.0489595
0.0489389
0.0489189
0.0488985
0.0488788
0.0488586
0.0488393
0.0488193
0.0488003
0.0487804
0.0487616
0.0487422
0.0487229
0.048705
0.0486829
0.0486709
0.0486383
0.0486446
0.0485998
)
;
    }
    symmetry
    {
        type            symmetryPlane;
    }
    frontAndBack
    {
        type            empty;
    }
}


// ************************************************************************* //
