/*--------------------------------*- C++ -*----------------------------------*\
| =========                 |                                                 |
| \\      /  F ield         | OpenFOAM: The Open Source CFD Toolbox           |
|  \\    /   O peration     | Version:  v2012                                 |
|   \\  /    A nd           | Website:  www.openfoam.com                      |
|    \\/     M anipulation  |                                                 |
\*---------------------------------------------------------------------------*/
FoamFile
{
    version     2.0;
    format      ascii;
    class       volScalarField;
    location    "47";
    object      yPlus;
}
// * * * * * * * * * * * * * * * * * * * * * * * * * * * * * * * * * * * * * //

dimensions      [0 0 0 0 0 0 0];


internalField   uniform 0;

boundaryField
{
    inlet
    {
        type            calculated;
        value           uniform 0;
    }
    outlet
    {
        type            calculated;
        value           uniform 0;
    }
    topWall
    {
        type            calculated;
        value           nonuniform List<scalar> 
545
(
0.070834
0.122138
0.156686
0.184169
0.207423
0.227757
0.245905
0.26233
0.277347
0.291183
0.304006
0.31595
0.327119
0.337597
0.347455
0.356752
0.365539
0.373858
0.381748
0.389241
0.396366
0.40315
0.409615
0.415783
0.421672
0.4273
0.432682
0.437833
0.442765
0.447491
0.452022
0.456369
0.460541
0.464546
0.468395
0.472093
0.475648
0.479068
0.482359
0.485526
0.488575
0.491512
0.494342
0.497069
0.499699
0.502234
0.504679
0.507038
0.509315
0.511513
0.513635
0.515684
0.517663
0.519575
0.521423
0.523209
0.524936
0.526605
0.528219
0.529781
0.531291
0.532753
0.534167
0.535536
0.536861
0.538144
0.539386
0.540589
0.541755
0.542884
0.543977
0.545037
0.54605
0.54703
0.548001
0.548963
0.549917
0.550862
0.551798
0.552726
0.553646
0.554558
0.555462
0.556358
0.557246
0.558126
0.558998
0.559863
0.56072
0.56157
0.562412
0.563247
0.564075
0.564895
0.565708
0.566514
0.56724
0.567889
0.568537
0.569184
0.569831
0.570477
0.571122
0.571767
0.572411
0.573054
0.573697
0.574339
0.57498
0.57562
0.57626
0.576899
0.577537
0.578175
0.578812
0.579448
0.580083
0.580718
0.581351
0.581984
0.582616
0.583248
0.583878
0.584508
0.585137
0.585765
0.586392
0.587018
0.587644
0.588269
0.588892
0.589515
0.590137
0.590758
0.591379
0.591998
0.592616
0.593234
0.59385
0.594466
0.59508
0.595694
0.596307
0.596919
0.597529
0.598139
0.598748
0.599356
0.599962
0.600568
0.601173
0.601776
0.602379
0.60298
0.603581
0.60418
0.604779
0.605376
0.605972
0.606567
0.607161
0.607753
0.608345
0.608935
0.609525
0.610113
0.6107
0.611286
0.61187
0.612454
0.613036
0.613617
0.614196
0.614775
0.615352
0.615928
0.616503
0.617076
0.617649
0.618219
0.618789
0.619357
0.619924
0.62049
0.621054
0.621617
0.622178
0.622739
0.623297
0.623855
0.624411
0.624965
0.625519
0.62607
0.626621
0.62717
0.627717
0.628263
0.628808
0.62935
0.629892
0.630432
0.63097
0.631507
0.632043
0.632577
0.633109
0.63364
0.634169
0.634696
0.635222
0.635747
0.636269
0.636791
0.63731
0.637828
0.638344
0.638859
0.639371
0.639882
0.640392
0.6409
0.641406
0.64191
0.642412
0.642913
0.643412
0.643909
0.644405
0.644898
0.64539
0.64588
0.646368
0.646855
0.647339
0.647822
0.648303
0.648782
0.649259
0.649734
0.650207
0.650678
0.651148
0.651615
0.65208
0.652544
0.653005
0.653465
0.653922
0.654378
0.654831
0.655283
0.655732
0.65618
0.656625
0.657068
0.657509
0.657949
0.658385
0.65882
0.659253
0.659684
0.660112
0.660538
0.660962
0.661384
0.661804
0.662222
0.662637
0.663027
0.663394
0.663762
0.664132
0.664503
0.664875
0.665249
0.665624
0.666
0.666377
0.666755
0.667134
0.667514
0.667895
0.668277
0.66866
0.669044
0.669428
0.669814
0.670199
0.670586
0.670972
0.67136
0.671747
0.672136
0.672524
0.672912
0.673301
0.67369
0.674078
0.674467
0.674855
0.675243
0.675631
0.676018
0.676405
0.676791
0.677177
0.677562
0.677946
0.678328
0.67871
0.679091
0.67947
0.679848
0.680225
0.6806
0.680973
0.681345
0.681714
0.682082
0.682447
0.68281
0.68317
0.683528
0.683884
0.684236
0.684586
0.684932
0.685275
0.685615
0.685951
0.686284
0.686613
0.686937
0.687258
0.687574
0.687886
0.688193
0.688496
0.688793
0.689086
0.689373
0.689654
0.68993
0.6902
0.690464
0.690722
0.690974
0.691218
0.691456
0.691687
0.691911
0.692128
0.692337
0.692538
0.692731
0.692916
0.693092
0.69326
0.693419
0.693569
0.69371
0.693841
0.693962
0.694074
0.694175
0.694266
0.694347
0.694416
0.694475
0.694522
0.694558
0.694582
0.694594
0.694594
0.694581
0.694556
0.694517
0.694466
0.694402
0.694323
0.694231
0.694125
0.694005
0.69387
0.693721
0.693556
0.693377
0.693182
0.692971
0.692745
0.692503
0.692245
0.69197
0.691678
0.69137
0.691045
0.690703
0.690343
0.689966
0.689572
0.689159
0.688728
0.68828
0.687813
0.687327
0.686823
0.6863
0.685758
0.685198
0.684618
0.684019
0.683401
0.682763
0.682106
0.68143
0.680734
0.680018
0.679283
0.678528
0.677754
0.67696
0.676146
0.675312
0.674459
0.673586
0.672694
0.671782
0.67085
0.669899
0.668929
0.66794
0.666932
0.665904
0.664858
0.663794
0.662711
0.661609
0.660489
0.659352
0.658197
0.657024
0.655834
0.654628
0.653404
0.652164
0.650908
0.649637
0.64835
0.647047
0.645582
0.643962
0.642342
0.640724
0.639109
0.637498
0.63589
0.634288
0.632691
0.631101
0.629518
0.627943
0.626376
0.624818
0.623269
0.621731
0.620202
0.618685
0.617179
0.615685
0.614203
0.612734
0.611277
0.609834
0.608405
0.60699
0.605589
0.604202
0.602831
0.601474
0.600133
0.598808
0.597499
0.596206
0.594929
0.593669
0.592426
0.5912
0.589991
0.588799
0.587626
0.58647
0.585332
0.584212
0.58311
0.582027
0.580963
0.579917
0.578891
0.577883
0.576895
0.575927
0.574977
0.574048
0.573139
0.572249
0.57138
0.570531
0.569703
0.568895
0.568108
0.567342
0.566596
0.565872
0.565169
0.564488
0.563828
0.563189
0.562573
0.561978
0.561405
0.560855
0.560326
0.55982
0.559336
0.558875
0.558437
0.558021
0.557628
0.557257
0.55691
0.556586
0.556285
0.556007
0.555752
0.555521
0.555313
0.555129
0.554967
0.55483
0.554716
0.554625
0.554558
0.554517
0.554488
)
;
    }
    bottomWall
    {
        type            calculated;
        value           nonuniform List<scalar> 
449
(
0.139443
0.0889553
0.0758057
0.0694343
0.0652515
0.0621254
0.0596307
0.0575674
0.0558166
0.0543007
0.0529671
0.0517797
0.0507118
0.0497434
0.0488588
0.0480457
0.0472942
0.0465964
0.0459457
0.0453366
0.0447645
0.0442255
0.0437163
0.043234
0.0427761
0.0423404
0.0419251
0.0415284
0.041149
0.0407854
0.0404365
0.0401013
0.0397787
0.039468
0.0391684
0.0388792
0.0385996
0.0383292
0.0380675
0.0378138
0.0375678
0.037329
0.0370971
0.0368717
0.0366524
0.0364391
0.0362313
0.0360288
0.0358315
0.0356389
0.035451
0.0352675
0.0350883
0.0349131
0.0347418
0.0345742
0.0344102
0.0342497
0.0340924
0.0339384
0.0337874
0.0336394
0.0334942
0.0333518
0.033212
0.0330748
0.03294
0.0328077
0.0326776
0.0325499
0.0324242
0.0323007
0.0321792
0.0320597
0.0319421
0.0318263
0.0317124
0.0316002
0.0314897
0.0313808
0.0312736
0.0311679
0.0310638
0.0309611
0.0308598
0.03076
0.0306615
0.0305644
0.0304685
0.0303739
0.0302806
0.0301884
0.0300975
0.0300076
0.0299189
0.0298313
0.0297447
0.0296592
0.0295747
0.0294912
0.0294087
0.0293271
0.0292465
0.0291668
0.0290879
0.02901
0.0289328
0.0288566
0.0287811
0.0287065
0.0286326
0.0285595
0.0284871
0.0284155
0.0283447
0.0282745
0.028205
0.0281362
0.0280681
0.0280007
0.0279339
0.0278677
0.0278021
0.0277372
0.0276729
0.0276091
0.027546
0.0274834
0.0274213
0.0273599
0.0272989
0.0272385
0.0271786
0.0271192
0.0270604
0.027002
0.0269441
0.0268867
0.0268298
0.0267733
0.0267173
0.0266618
0.0266067
0.026552
0.0264978
0.026444
0.0263906
0.0263376
0.026285
0.0262328
0.026181
0.0261296
0.0260786
0.026028
0.0259777
0.0259278
0.0258782
0.025829
0.0257802
0.0257317
0.0256835
0.0256357
0.0255882
0.0255411
0.0254942
0.0254477
0.0254015
0.0253556
0.02531
0.0252647
0.0252197
0.025175
0.0251306
0.025089
0.0250498
0.0250105
0.0249711
0.0249316
0.024892
0.0248522
0.0248124
0.0247724
0.0247324
0.0246922
0.024652
0.0246116
0.0245711
0.0245305
0.0244898
0.024449
0.0244081
0.0243672
0.0243261
0.0242849
0.0242436
0.0242023
0.0241608
0.0241192
0.0240776
0.0240359
0.023994
0.0239521
0.0239101
0.0238681
0.0238259
0.0237836
0.0237413
0.0236989
0.0236564
0.0236139
0.0235712
0.0235285
0.0234858
0.0234429
0.0234
0.023357
0.0233139
0.0232708
0.0232276
0.0231843
0.023141
0.0230976
0.0230542
0.0230107
0.0229671
0.0229235
0.0228798
0.0228361
0.0227923
0.0227485
0.0227046
0.0226607
0.0226167
0.0225727
0.0225286
0.0224845
0.0224403
0.0223961
0.0223519
0.0223076
0.0222633
0.0222189
0.0221745
0.0221301
0.0220856
0.0220411
0.0219966
0.021952
0.0219075
0.0218629
0.0218182
0.0217736
0.0217289
0.0216842
0.0216395
0.0215947
0.0215499
0.0215052
0.0214604
0.0214155
0.0213707
0.0213259
0.021281
0.0212362
0.0211913
0.0211464
0.0211015
0.0210566
0.0210117
0.0209668
0.0209219
0.020877
0.0208321
0.0207872
0.0207423
0.0206973
0.0206524
0.0206075
0.0205626
0.0205178
0.0204729
0.020428
0.0203831
0.0203383
0.0202934
0.0202486
0.0202038
0.020159
0.0201142
0.0200694
0.0200247
0.0199799
0.0199352
0.0198905
0.0198458
0.0198012
0.0197566
0.019712
0.0196674
0.0196228
0.0195783
0.0195338
0.0194893
0.0194448
0.0194004
0.019356
0.0193117
0.0192674
0.0192231
0.0191788
0.0191346
0.0190904
0.0190462
0.0190021
0.018958
0.018914
0.01887
0.018826
0.0187821
0.0187382
0.0186944
0.0186506
0.0186068
0.0185631
0.0185194
0.0184758
0.0184323
0.0183887
0.0183452
0.0183018
0.0182584
0.0182151
0.0181718
0.0181286
0.0180854
0.0180422
0.0179992
0.0179561
0.0179132
0.0178702
0.0178274
0.0177846
0.0177418
0.0176991
0.0176564
0.0176139
0.0175713
0.0175289
0.0174864
0.0174441
0.0174018
0.0173596
0.0173174
0.0172753
0.0172284
0.0171775
0.0171274
0.0170779
0.0170291
0.0169811
0.0169336
0.0168869
0.0168408
0.0167953
0.0167504
0.0167061
0.0166624
0.0166193
0.0165768
0.0165347
0.0164932
0.0164523
0.0164118
0.0163719
0.0163324
0.0162934
0.0162548
0.0162167
0.0161791
0.0161419
0.0161051
0.0160688
0.0160328
0.0159973
0.0159621
0.0159274
0.015893
0.015859
0.0158253
0.015792
0.0157591
0.0157265
0.0156942
0.0156623
0.0156307
0.0155994
0.0155684
0.0155377
0.0155074
0.0154773
0.0154475
0.015418
0.0153888
0.0153599
0.0153312
0.0153028
0.0152747
0.0152468
0.0152192
0.0151918
0.0151647
0.0151378
0.0151111
0.0150847
0.0150585
0.0150326
0.0150068
0.0149813
0.014956
0.0149309
0.014906
0.0148814
0.0148569
0.0148326
0.0148085
0.0147846
0.0147609
0.0147374
0.0147141
0.0146909
0.0146679
0.0146451
0.0146225
0.0146
0.0145777
0.0145555
0.0145335
0.0145116
0.0144899
0.0144683
0.0144468
0.0144254
0.0144041
0.0143826
0.014362
0.0143414
0.0143074
0.0143263
0.0142663
)
;
    }
    symmetry
    {
        type            symmetryPlane;
    }
    frontAndBack
    {
        type            empty;
    }
}


// ************************************************************************* //
