/*--------------------------------*- C++ -*----------------------------------*\
| =========                 |                                                 |
| \\      /  F ield         | OpenFOAM: The Open Source CFD Toolbox           |
|  \\    /   O peration     | Version:  v2012                                 |
|   \\  /    A nd           | Website:  www.openfoam.com                      |
|    \\/     M anipulation  |                                                 |
\*---------------------------------------------------------------------------*/
FoamFile
{
    version     2.0;
    format      ascii;
    class       volScalarField;
    location    "54";
    object      epsilon;
}
// * * * * * * * * * * * * * * * * * * * * * * * * * * * * * * * * * * * * * //

dimensions      [0 2 -3 0 0 0 0];


internalField   nonuniform List<scalar> 
209825
(
0.759785
0.633881
0.542201
0.476529
0.429265
0.394656
0.368671
0.348724
0.333031
0.32048
0.310227
0.301764
0.294643
0.288626
0.283439
0.278978
0.275056
0.271638
0.268582
0.265895
0.263455
0.261296
0.259309
0.257542
0.255898
0.254433
0.253053
0.251823
0.250651
0.249611
0.248606
0.247717
0.246848
0.246086
0.245331
0.244671
0.244011
0.243441
0.242861
0.242364
0.241851
0.241417
0.240964
0.240586
0.240185
0.239851
0.239495
0.239204
0.23889
0.238626
0.238353
0.238121
0.237877
0.23767
0.237448
0.237282
0.237081
0.236924
0.23676
0.236611
0.23647
0.236346
0.236227
0.236119
0.236018
0.235932
0.235832
0.235775
0.235697
0.235654
0.235583
0.235547
0.23549
0.235464
0.235418
0.2354
0.235365
0.235359
0.235342
0.235353
0.23535
0.235381
0.235381
0.235434
0.235441
0.235508
0.235531
0.235616
0.235652
0.235768
0.235809
0.235984
0.236054
0.238864
3.20044
573.184
0.759785
0.633882
0.5422
0.476527
0.429261
0.39465
0.368665
0.348716
0.333022
0.32047
0.310216
0.301753
0.294632
0.288614
0.283426
0.278965
0.275042
0.271625
0.268569
0.265881
0.263441
0.261281
0.259295
0.257528
0.255883
0.254418
0.253038
0.251808
0.250636
0.249596
0.248591
0.247702
0.246833
0.24607
0.245315
0.244655
0.243996
0.243425
0.242845
0.242348
0.241836
0.241401
0.240948
0.24057
0.240169
0.239835
0.239479
0.239188
0.238873
0.23861
0.238337
0.238105
0.237861
0.237654
0.237432
0.237266
0.237065
0.236908
0.236744
0.236595
0.236453
0.23633
0.236211
0.236103
0.236001
0.235916
0.235815
0.235759
0.23568
0.235638
0.235567
0.235531
0.235473
0.235447
0.235401
0.235383
0.235348
0.235342
0.235326
0.235336
0.235333
0.235364
0.235364
0.235417
0.235424
0.235491
0.235514
0.235599
0.235635
0.235751
0.235792
0.235967
0.236038
0.238851
3.2066
569.894
0.759786
0.633883
0.542197
0.476517
0.429244
0.394626
0.368635
0.348681
0.332983
0.320427
0.310171
0.301705
0.294582
0.288563
0.283373
0.278911
0.274987
0.271568
0.268511
0.265822
0.263382
0.261222
0.259234
0.257467
0.255822
0.254356
0.252976
0.251746
0.250573
0.249532
0.248527
0.247638
0.246769
0.246006
0.245251
0.24459
0.243931
0.24336
0.242779
0.242282
0.24177
0.241335
0.240882
0.240503
0.240103
0.239768
0.239412
0.239121
0.238807
0.238543
0.23827
0.238038
0.237794
0.237586
0.237364
0.237198
0.236997
0.23684
0.236676
0.236527
0.236385
0.236261
0.236142
0.236035
0.235933
0.235847
0.235747
0.23569
0.235612
0.235569
0.235498
0.235462
0.235404
0.235378
0.235332
0.235314
0.235279
0.235273
0.235256
0.235267
0.235263
0.235294
0.235294
0.235347
0.235354
0.23542
0.235444
0.235529
0.235564
0.23568
0.235721
0.235896
0.235967
0.238789
3.2206
566.194
0.759787
0.633884
0.542192
0.4765
0.429214
0.394585
0.368583
0.348621
0.332917
0.320355
0.310094
0.301625
0.294498
0.288475
0.283284
0.278819
0.274893
0.271473
0.268414
0.265724
0.263283
0.261121
0.259133
0.257365
0.255718
0.254252
0.252871
0.25164
0.250467
0.249426
0.24842
0.24753
0.24666
0.245897
0.245141
0.244481
0.243821
0.24325
0.242669
0.242172
0.241659
0.241224
0.24077
0.240392
0.239991
0.239656
0.2393
0.239009
0.238693
0.23843
0.238156
0.237924
0.23768
0.237473
0.23725
0.237084
0.236883
0.236725
0.236561
0.236412
0.23627
0.236146
0.236027
0.235919
0.235817
0.235731
0.235631
0.235574
0.235495
0.235453
0.235381
0.235345
0.235288
0.235261
0.235215
0.235197
0.235162
0.235155
0.235139
0.235149
0.235145
0.235176
0.235176
0.235228
0.235235
0.235302
0.235325
0.23541
0.235445
0.235561
0.235601
0.235776
0.235847
0.238683
3.24273
562.835
0.759789
0.633887
0.542184
0.476475
0.429172
0.394526
0.368511
0.348537
0.332823
0.320254
0.309986
0.30151
0.294379
0.288352
0.283157
0.278689
0.27476
0.271338
0.268277
0.265585
0.263142
0.260979
0.258989
0.25722
0.255572
0.254105
0.252722
0.251491
0.250317
0.249275
0.248268
0.247378
0.246508
0.245744
0.244987
0.244326
0.243666
0.243094
0.242513
0.242015
0.241502
0.241066
0.240612
0.240234
0.239832
0.239497
0.239141
0.238849
0.238534
0.23827
0.237996
0.237764
0.237519
0.237312
0.237089
0.236922
0.236721
0.236563
0.236399
0.236249
0.236108
0.235984
0.235864
0.235756
0.235654
0.235568
0.235467
0.23541
0.235331
0.235289
0.235217
0.235181
0.235123
0.235097
0.23505
0.235032
0.234996
0.23499
0.234973
0.234983
0.234979
0.235009
0.235009
0.235061
0.235068
0.235134
0.235157
0.235242
0.235277
0.235392
0.235432
0.235607
0.235677
0.238532
3.27351
560.168
0.759792
0.63389
0.542174
0.476444
0.429118
0.394451
0.368418
0.348429
0.332702
0.320122
0.309845
0.301363
0.294225
0.288193
0.282993
0.278521
0.274589
0.271163
0.268099
0.265405
0.262959
0.260794
0.258803
0.257032
0.255383
0.253914
0.25253
0.251297
0.250122
0.249079
0.248072
0.24718
0.246309
0.245545
0.244788
0.244126
0.243464
0.242892
0.24231
0.241812
0.241298
0.240862
0.240408
0.240029
0.239627
0.239291
0.238934
0.238642
0.238327
0.238062
0.237788
0.237556
0.237311
0.237103
0.23688
0.236713
0.236511
0.236354
0.236189
0.236039
0.235897
0.235773
0.235653
0.235545
0.235442
0.235356
0.235255
0.235198
0.235119
0.235076
0.235004
0.234967
0.234909
0.234883
0.234836
0.234818
0.234782
0.234775
0.234758
0.234767
0.234763
0.234793
0.234793
0.234844
0.234851
0.234917
0.234939
0.235023
0.235058
0.235173
0.235213
0.235387
0.235458
0.238336
3.31345
558.359
0.759795
0.633893
0.542161
0.476405
0.429051
0.394358
0.368302
0.348295
0.332553
0.31996
0.309672
0.30118
0.294035
0.287996
0.282791
0.278313
0.274377
0.270947
0.26788
0.265183
0.262734
0.260567
0.258573
0.2568
0.255149
0.253679
0.252293
0.251059
0.249883
0.248838
0.247829
0.246937
0.246065
0.245299
0.244541
0.243879
0.243217
0.242644
0.242061
0.241562
0.241047
0.240611
0.240156
0.239776
0.239373
0.239038
0.23868
0.238388
0.238072
0.237807
0.237532
0.237299
0.237054
0.236846
0.236622
0.236455
0.236253
0.236095
0.235929
0.23578
0.235637
0.235513
0.235392
0.235284
0.235181
0.235095
0.234993
0.234936
0.234856
0.234813
0.234741
0.234704
0.234646
0.234619
0.234572
0.234554
0.234518
0.234511
0.234492
0.234502
0.234497
0.234526
0.234526
0.234577
0.234583
0.234649
0.234671
0.234755
0.234789
0.234903
0.234943
0.235117
0.235187
0.238095
3.36303
557.475
0.759798
0.633898
0.542147
0.476359
0.428971
0.394247
0.368165
0.348135
0.332375
0.319767
0.309466
0.300963
0.293808
0.287762
0.28255
0.278066
0.274125
0.27069
0.267619
0.264918
0.262467
0.260296
0.258299
0.256524
0.254871
0.253398
0.252011
0.250775
0.249597
0.248551
0.247541
0.246647
0.245774
0.245007
0.244248
0.243584
0.242921
0.242347
0.241764
0.241264
0.240749
0.240311
0.239855
0.239475
0.239072
0.238735
0.238377
0.238084
0.237767
0.237502
0.237227
0.236994
0.236748
0.236539
0.236315
0.236147
0.235945
0.235787
0.235621
0.235471
0.235328
0.235203
0.235082
0.234974
0.23487
0.234784
0.234682
0.234624
0.234544
0.2345
0.234428
0.234391
0.234333
0.234305
0.234258
0.234239
0.234203
0.234195
0.234177
0.234185
0.23418
0.234209
0.234208
0.234259
0.234264
0.234329
0.234351
0.234434
0.234468
0.234582
0.234621
0.234794
0.234865
0.237808
3.42275
557.509
0.759803
0.633903
0.54213
0.476306
0.428879
0.394119
0.368006
0.34795
0.332168
0.319542
0.309226
0.300711
0.293545
0.28749
0.282269
0.277779
0.273832
0.270392
0.267316
0.26461
0.262155
0.259981
0.257981
0.256203
0.254547
0.253072
0.251683
0.250445
0.249265
0.248217
0.247205
0.24631
0.245435
0.244667
0.243907
0.243242
0.242578
0.242003
0.241418
0.240917
0.240401
0.239963
0.239506
0.239125
0.238721
0.238384
0.238025
0.237731
0.237414
0.237148
0.236872
0.236638
0.236392
0.236183
0.235958
0.23579
0.235587
0.235428
0.235262
0.235111
0.234968
0.234843
0.234721
0.234613
0.234508
0.234422
0.234319
0.234261
0.234181
0.234137
0.234064
0.234027
0.233968
0.23394
0.233892
0.233874
0.233837
0.233829
0.233809
0.233817
0.233812
0.233839
0.233839
0.233888
0.233894
0.233958
0.233979
0.234062
0.234095
0.234208
0.234247
0.234419
0.23449
0.237475
3.49307
558.404
0.759807
0.633909
0.542111
0.476246
0.428774
0.393973
0.367825
0.347739
0.331933
0.319286
0.308953
0.300423
0.293245
0.287179
0.28195
0.277451
0.273497
0.270051
0.26697
0.264259
0.261799
0.259621
0.257618
0.255836
0.254178
0.2527
0.251308
0.250068
0.248886
0.247836
0.246822
0.245925
0.245049
0.244279
0.243517
0.242851
0.242185
0.241609
0.241023
0.240521
0.240004
0.239565
0.239107
0.238725
0.23832
0.237982
0.237623
0.237328
0.23701
0.236744
0.236467
0.236232
0.235985
0.235776
0.23555
0.235381
0.235178
0.235019
0.234852
0.234701
0.234557
0.234431
0.234309
0.2342
0.234095
0.234008
0.233905
0.233847
0.233766
0.233721
0.233648
0.233611
0.233551
0.233523
0.233475
0.233456
0.233419
0.23341
0.23339
0.233397
0.233391
0.233417
0.233417
0.233465
0.23347
0.233534
0.233554
0.233636
0.23367
0.233781
0.23382
0.233991
0.234061
0.237096
3.57443
560.073
0.759813
0.633915
0.54209
0.476179
0.428657
0.393809
0.367621
0.347502
0.331668
0.318998
0.308646
0.3001
0.292908
0.286829
0.28159
0.277083
0.27312
0.269667
0.26658
0.263864
0.261399
0.259216
0.257209
0.255424
0.253762
0.252281
0.250886
0.249643
0.248458
0.247406
0.246391
0.245491
0.244613
0.243842
0.243078
0.242411
0.241743
0.241166
0.240579
0.240076
0.239557
0.239117
0.238658
0.238275
0.237869
0.23753
0.237169
0.236874
0.236555
0.236288
0.23601
0.235775
0.235527
0.235317
0.235091
0.234921
0.234718
0.234558
0.23439
0.234239
0.234094
0.233968
0.233845
0.233736
0.23363
0.233543
0.233439
0.23338
0.233298
0.233254
0.23318
0.233142
0.233082
0.233054
0.233005
0.232985
0.232948
0.232939
0.232917
0.232924
0.232917
0.232942
0.232941
0.232989
0.232993
0.233056
0.233076
0.233157
0.23319
0.233301
0.233338
0.233509
0.233579
0.23667
3.66722
562.397
0.759818
0.633923
0.542067
0.476104
0.428526
0.393628
0.367395
0.347239
0.331373
0.318678
0.308304
0.299739
0.292532
0.28644
0.281189
0.276672
0.272701
0.26924
0.266146
0.263423
0.260953
0.258766
0.256754
0.254964
0.253298
0.251814
0.250416
0.24917
0.247983
0.246928
0.24591
0.245009
0.244128
0.243355
0.24259
0.24192
0.241251
0.240672
0.240084
0.239579
0.23906
0.238618
0.238158
0.237773
0.237367
0.237027
0.236665
0.236369
0.236049
0.235781
0.235502
0.235266
0.235017
0.234807
0.23458
0.234409
0.234205
0.234044
0.233876
0.233724
0.233579
0.233452
0.233329
0.233219
0.233112
0.233025
0.23292
0.232861
0.232778
0.232733
0.232659
0.23262
0.23256
0.232531
0.232482
0.232462
0.232423
0.232414
0.232391
0.232397
0.23239
0.232414
0.232412
0.232459
0.232463
0.232525
0.232544
0.232624
0.232656
0.232766
0.232803
0.232972
0.233043
0.236197
3.77177
565.245
0.759825
0.633931
0.542041
0.476022
0.428383
0.393428
0.367146
0.346949
0.331049
0.318325
0.307927
0.299342
0.292118
0.286011
0.280747
0.276219
0.272238
0.268769
0.265667
0.262938
0.260462
0.258269
0.256252
0.254457
0.252788
0.2513
0.249898
0.248649
0.247458
0.246401
0.24538
0.244476
0.243594
0.242818
0.242051
0.24138
0.240709
0.240128
0.239538
0.239032
0.238511
0.238068
0.237606
0.237221
0.236812
0.236472
0.236109
0.235811
0.23549
0.235221
0.234942
0.234705
0.234455
0.234244
0.234016
0.233844
0.23364
0.233478
0.233309
0.233157
0.23301
0.232883
0.232759
0.232648
0.232541
0.232453
0.232348
0.232288
0.232204
0.232159
0.232084
0.232045
0.231984
0.231955
0.231905
0.231884
0.231845
0.231835
0.231811
0.231816
0.231808
0.23183
0.231829
0.231874
0.231877
0.231938
0.231957
0.232036
0.232067
0.232176
0.232212
0.23238
0.232451
0.235675
3.88832
568.479
0.759832
0.63394
0.542014
0.475934
0.428228
0.39321
0.366875
0.346632
0.330695
0.317939
0.307515
0.298908
0.291665
0.285542
0.280264
0.275724
0.271732
0.268253
0.265143
0.262407
0.259924
0.257725
0.255702
0.253903
0.252229
0.250736
0.249331
0.248078
0.246884
0.245824
0.2448
0.243894
0.243009
0.242231
0.241461
0.240788
0.240115
0.239533
0.23894
0.238433
0.23791
0.237465
0.237002
0.236616
0.236206
0.235864
0.2355
0.235201
0.234879
0.234609
0.234328
0.234091
0.23384
0.233628
0.233398
0.233226
0.233021
0.232858
0.232688
0.232535
0.232388
0.23226
0.232135
0.232024
0.231916
0.231827
0.231721
0.23166
0.231576
0.23153
0.231454
0.231415
0.231353
0.231324
0.231273
0.231252
0.231212
0.231201
0.231177
0.23118
0.231171
0.231192
0.23119
0.231234
0.231236
0.231297
0.231314
0.231392
0.231422
0.23153
0.231565
0.231733
0.231803
0.235106
4.01704
571.958
0.759839
0.63395
0.541985
0.475838
0.428059
0.392974
0.366581
0.346289
0.330311
0.317521
0.307068
0.298437
0.291173
0.285033
0.279739
0.275186
0.271182
0.267693
0.264574
0.261829
0.259339
0.257133
0.255105
0.2533
0.251621
0.250124
0.248714
0.247458
0.24626
0.245197
0.24417
0.243261
0.242373
0.241592
0.24082
0.240145
0.23947
0.238885
0.238291
0.237782
0.237257
0.236811
0.236346
0.235958
0.235547
0.235203
0.234838
0.234538
0.234214
0.233943
0.233661
0.233423
0.233171
0.232958
0.232727
0.232554
0.232348
0.232184
0.232014
0.23186
0.231712
0.231583
0.231457
0.231345
0.231236
0.231147
0.23104
0.230978
0.230893
0.230847
0.23077
0.23073
0.230668
0.230637
0.230586
0.230564
0.230524
0.230512
0.230487
0.230489
0.230479
0.230498
0.230496
0.230538
0.23054
0.230599
0.230615
0.230692
0.230722
0.230828
0.230862
0.231029
0.231099
0.234489
4.15796
575.547
0.759847
0.633961
0.541954
0.475735
0.427879
0.39272
0.366264
0.345919
0.329896
0.317069
0.306585
0.297928
0.290642
0.284482
0.279173
0.274604
0.270589
0.267088
0.263959
0.261205
0.258707
0.256494
0.254459
0.252649
0.250964
0.249462
0.248048
0.246787
0.245586
0.244519
0.243489
0.242576
0.241685
0.240902
0.240127
0.239449
0.238772
0.238185
0.237589
0.237078
0.236551
0.236103
0.235637
0.235247
0.234834
0.234489
0.234122
0.233821
0.233496
0.233224
0.23294
0.232701
0.232447
0.232234
0.232002
0.231828
0.231621
0.231456
0.231284
0.23113
0.23098
0.230851
0.230724
0.230612
0.230501
0.230412
0.230304
0.230241
0.230155
0.230108
0.230031
0.22999
0.229927
0.229896
0.229844
0.229821
0.22978
0.229768
0.229741
0.229742
0.22973
0.229749
0.229745
0.229786
0.229787
0.229845
0.22986
0.229936
0.229964
0.230069
0.230102
0.230267
0.230339
0.233822
4.31098
579.116
0.759856
0.633973
0.541921
0.475626
0.427685
0.392448
0.365924
0.345521
0.329451
0.316584
0.306067
0.297381
0.290071
0.283891
0.278563
0.273979
0.26995
0.266438
0.263298
0.260535
0.258028
0.255807
0.253765
0.251949
0.250258
0.248751
0.247332
0.246066
0.244861
0.243789
0.242756
0.24184
0.240946
0.240159
0.239382
0.238701
0.238021
0.237432
0.236834
0.23632
0.235792
0.235342
0.234874
0.234482
0.234067
0.233721
0.233352
0.23305
0.232724
0.23245
0.232165
0.231924
0.23167
0.231455
0.231222
0.231047
0.230838
0.230673
0.2305
0.230345
0.230194
0.230064
0.229936
0.229823
0.229711
0.229621
0.229512
0.229449
0.229362
0.229313
0.229235
0.229194
0.22913
0.229098
0.229045
0.229022
0.22898
0.228967
0.228939
0.228939
0.228926
0.228942
0.228938
0.228977
0.228978
0.229034
0.229048
0.229123
0.22915
0.229253
0.229285
0.229449
0.229521
0.233105
4.47582
582.548
0.759864
0.633986
0.541886
0.47551
0.42748
0.392159
0.365561
0.345097
0.328976
0.316066
0.305513
0.296797
0.28946
0.283258
0.277911
0.273311
0.269267
0.265741
0.26259
0.259817
0.257301
0.255072
0.253022
0.251199
0.249502
0.247989
0.246565
0.245294
0.244084
0.243009
0.241971
0.241052
0.240154
0.239365
0.238584
0.237901
0.237218
0.236626
0.236025
0.23551
0.234979
0.234527
0.234057
0.233663
0.233247
0.232899
0.232528
0.232224
0.231896
0.231621
0.231335
0.231093
0.230837
0.230621
0.230386
0.23021
0.230001
0.229834
0.22966
0.229504
0.229352
0.229221
0.229091
0.228978
0.228865
0.228774
0.228664
0.2286
0.228511
0.228462
0.228383
0.228341
0.228277
0.228244
0.22819
0.228166
0.228123
0.228109
0.228081
0.228079
0.228064
0.228079
0.228074
0.22811
0.228111
0.228165
0.228178
0.228252
0.228278
0.228379
0.22841
0.228573
0.228645
0.232339
4.65201
585.734
0.759874
0.634
0.54185
0.475388
0.427262
0.391851
0.365176
0.344647
0.32847
0.315514
0.304923
0.296174
0.28881
0.282584
0.277216
0.272598
0.268538
0.264999
0.261836
0.259051
0.256525
0.254287
0.25223
0.250399
0.248696
0.247177
0.245747
0.244471
0.243256
0.242176
0.241134
0.240211
0.23931
0.238517
0.237733
0.237047
0.236361
0.235767
0.235163
0.234645
0.234112
0.233658
0.233185
0.23279
0.232371
0.232021
0.231649
0.231343
0.231014
0.230737
0.230449
0.230206
0.229948
0.229731
0.229495
0.229318
0.229107
0.228939
0.228764
0.228607
0.228454
0.228322
0.228191
0.228077
0.227962
0.227871
0.22776
0.227694
0.227605
0.227555
0.227475
0.227432
0.227366
0.227333
0.227278
0.227253
0.227209
0.227194
0.227165
0.227161
0.227145
0.227158
0.227152
0.227186
0.227186
0.227239
0.227251
0.227323
0.227348
0.227447
0.227477
0.227638
0.227711
0.231522
4.83887
588.579
0.759883
0.634015
0.541813
0.475259
0.427032
0.391526
0.364769
0.344169
0.327934
0.314929
0.304296
0.295513
0.288119
0.281868
0.276479
0.271841
0.267765
0.26421
0.261034
0.258238
0.255702
0.253454
0.251388
0.249549
0.247839
0.246313
0.244877
0.243596
0.242376
0.241291
0.240245
0.239318
0.238412
0.237616
0.236829
0.236139
0.23545
0.234853
0.234247
0.233726
0.23319
0.232734
0.232259
0.231861
0.231441
0.231089
0.230715
0.230407
0.230076
0.229798
0.229508
0.229263
0.229004
0.228786
0.228548
0.228369
0.228157
0.227989
0.227812
0.227654
0.227499
0.227366
0.227234
0.227119
0.227003
0.226911
0.226798
0.226732
0.226641
0.22659
0.226509
0.226465
0.226399
0.226365
0.226309
0.226283
0.226238
0.226222
0.226191
0.226187
0.226168
0.22618
0.226173
0.226204
0.226204
0.226255
0.226265
0.226335
0.226359
0.226457
0.226485
0.226645
0.226718
0.230654
5.03543
590.998
0.759894
0.63403
0.541774
0.475124
0.42679
0.391184
0.364339
0.343665
0.327368
0.31431
0.303634
0.294813
0.287389
0.28111
0.275698
0.271039
0.266945
0.263375
0.260185
0.257376
0.254829
0.252572
0.250497
0.248649
0.246931
0.245399
0.243956
0.242669
0.241444
0.240354
0.239303
0.238371
0.237462
0.236661
0.235871
0.235177
0.234485
0.233885
0.233276
0.232752
0.232214
0.231755
0.231278
0.230878
0.230455
0.230102
0.229725
0.229416
0.229083
0.228803
0.228511
0.228265
0.228004
0.227784
0.227545
0.227365
0.227151
0.226981
0.226803
0.226645
0.226488
0.226354
0.22622
0.226104
0.225986
0.225894
0.22578
0.225712
0.22562
0.225568
0.225486
0.225442
0.225374
0.225339
0.225282
0.225255
0.225209
0.225192
0.22516
0.225154
0.225134
0.225143
0.225135
0.225164
0.225163
0.225212
0.225221
0.22529
0.225312
0.225408
0.225434
0.225593
0.225667
0.229733
5.24046
592.918
0.759904
0.634047
0.541734
0.474983
0.426537
0.390824
0.363886
0.343134
0.326771
0.313658
0.302936
0.294076
0.286618
0.28031
0.274873
0.270194
0.266081
0.262494
0.259289
0.256467
0.253908
0.25164
0.249555
0.247699
0.245973
0.244433
0.242984
0.241691
0.240459
0.239364
0.238308
0.237372
0.236458
0.235653
0.234858
0.234162
0.233466
0.232863
0.23225
0.231724
0.231183
0.230721
0.230241
0.229839
0.229414
0.229058
0.22868
0.228368
0.228033
0.227752
0.227458
0.22721
0.226947
0.226726
0.226485
0.226303
0.226089
0.225917
0.225737
0.225578
0.225419
0.225285
0.225149
0.225032
0.224913
0.224819
0.224704
0.224635
0.224542
0.224489
0.224406
0.22436
0.224291
0.224255
0.224197
0.224169
0.224122
0.224104
0.224071
0.224063
0.224041
0.224049
0.224039
0.224065
0.224064
0.224111
0.224118
0.224185
0.224206
0.2243
0.224325
0.224481
0.224557
0.22876
5.4524
594.27
0.759915
0.634065
0.541692
0.474837
0.426272
0.390448
0.363412
0.342576
0.326144
0.312973
0.302202
0.2933
0.285807
0.279469
0.274006
0.269303
0.26517
0.261566
0.258345
0.255509
0.252938
0.250658
0.248564
0.246698
0.244964
0.243416
0.24196
0.24066
0.239422
0.238321
0.23726
0.236318
0.2354
0.234591
0.233792
0.233092
0.232393
0.231786
0.23117
0.230641
0.230096
0.229632
0.22915
0.228745
0.228317
0.227959
0.227578
0.227264
0.226927
0.226644
0.226348
0.226099
0.225834
0.225612
0.225369
0.225185
0.224969
0.224796
0.224614
0.224454
0.224294
0.224158
0.224021
0.223903
0.223782
0.223687
0.223571
0.223501
0.223406
0.223352
0.223267
0.22322
0.22315
0.223114
0.223054
0.223025
0.222976
0.222958
0.222923
0.222914
0.22289
0.222896
0.222884
0.222908
0.222906
0.22295
0.222957
0.223021
0.22304
0.223132
0.223156
0.22331
0.223387
0.227733
5.66936
594.995
0.759926
0.634083
0.54165
0.474685
0.425996
0.390055
0.362916
0.341993
0.325488
0.312255
0.301432
0.292486
0.284956
0.278586
0.273095
0.268368
0.264214
0.260591
0.257354
0.254503
0.251919
0.249627
0.247522
0.245646
0.243903
0.242347
0.240883
0.239576
0.238333
0.237226
0.236159
0.235212
0.234289
0.233475
0.232672
0.231968
0.231264
0.230654
0.230035
0.229502
0.228955
0.228488
0.228002
0.227595
0.227164
0.226804
0.226421
0.226105
0.225765
0.22548
0.225182
0.224931
0.224664
0.22444
0.224195
0.22401
0.223792
0.223618
0.223435
0.223273
0.223111
0.222974
0.222835
0.222716
0.222593
0.222498
0.222379
0.222308
0.222212
0.222156
0.222071
0.222023
0.221952
0.221914
0.221853
0.221823
0.221773
0.221753
0.221716
0.221706
0.22168
0.221684
0.221671
0.221692
0.221689
0.221731
0.221736
0.221798
0.221816
0.221905
0.221927
0.22208
0.222159
0.226651
5.88909
595.033
0.759938
0.634103
0.541607
0.474528
0.42571
0.389645
0.362399
0.341384
0.324801
0.311504
0.300626
0.291634
0.284065
0.277661
0.272141
0.267389
0.263213
0.25957
0.256316
0.253449
0.250851
0.248546
0.24643
0.244544
0.242791
0.241227
0.239755
0.238441
0.23719
0.236077
0.235004
0.234052
0.233124
0.232305
0.231498
0.230789
0.230082
0.229467
0.228844
0.228308
0.227758
0.227288
0.226799
0.226389
0.225956
0.225593
0.225207
0.224889
0.224547
0.22426
0.223959
0.223706
0.223437
0.223212
0.222965
0.222778
0.222558
0.222382
0.222197
0.222035
0.221871
0.221732
0.221591
0.221471
0.221347
0.22125
0.22113
0.221058
0.220959
0.220903
0.220816
0.220767
0.220695
0.220656
0.220593
0.220562
0.220511
0.22049
0.220451
0.22044
0.220412
0.220414
0.220399
0.220417
0.220413
0.220452
0.220456
0.220516
0.220532
0.220619
0.220639
0.22079
0.22087
0.225513
6.10894
594.338
0.75995
0.634124
0.541563
0.474365
0.425413
0.38922
0.361861
0.340749
0.324085
0.31072
0.299785
0.290745
0.283134
0.276694
0.271144
0.266365
0.262166
0.258502
0.25523
0.252347
0.249734
0.247416
0.245288
0.243391
0.241628
0.240055
0.238575
0.237253
0.235995
0.234875
0.233796
0.232838
0.231904
0.231081
0.230269
0.229555
0.228844
0.228226
0.227599
0.22706
0.226505
0.226032
0.22554
0.225127
0.224691
0.224326
0.223937
0.223616
0.223272
0.222983
0.22268
0.222425
0.222153
0.221927
0.221678
0.221488
0.221267
0.22109
0.220903
0.220739
0.220573
0.220433
0.22029
0.220169
0.220042
0.219945
0.219823
0.219749
0.219649
0.219592
0.219503
0.219453
0.219379
0.219339
0.219275
0.219243
0.21919
0.219168
0.219128
0.219115
0.219086
0.219085
0.219068
0.219084
0.219078
0.219114
0.219116
0.219174
0.219189
0.219273
0.219292
0.219441
0.219522
0.224319
6.32588
592.828
0.759962
0.634146
0.541518
0.474198
0.425106
0.388779
0.361302
0.340089
0.323341
0.309904
0.298909
0.289818
0.282163
0.275686
0.270104
0.265297
0.261073
0.257388
0.254096
0.251196
0.248568
0.246236
0.244095
0.242187
0.240414
0.238831
0.237342
0.236012
0.234747
0.23362
0.232535
0.231571
0.230632
0.229803
0.228986
0.228268
0.227552
0.226929
0.226299
0.225755
0.225198
0.224721
0.224226
0.22381
0.223371
0.223003
0.222611
0.222288
0.221941
0.221649
0.221344
0.221087
0.220813
0.220585
0.220333
0.220142
0.219919
0.21974
0.219551
0.219386
0.219218
0.219077
0.218932
0.218809
0.21868
0.218582
0.218459
0.218383
0.218281
0.218222
0.218132
0.218081
0.218006
0.217965
0.217899
0.217866
0.217811
0.217787
0.217746
0.217731
0.2177
0.217697
0.217678
0.217691
0.217684
0.217717
0.217718
0.217774
0.217786
0.217868
0.217885
0.218032
0.218115
0.223066
6.53649
590.441
0.759974
0.634169
0.541473
0.474027
0.424789
0.388323
0.360722
0.339404
0.322567
0.309056
0.297998
0.288853
0.281153
0.274637
0.269021
0.264185
0.259935
0.256227
0.252916
0.249998
0.247353
0.245007
0.242853
0.240933
0.239149
0.237556
0.236058
0.23472
0.233447
0.232313
0.231221
0.230251
0.229305
0.228471
0.227648
0.226926
0.226205
0.225578
0.224943
0.224396
0.223835
0.223355
0.222856
0.222437
0.221994
0.221623
0.221229
0.220903
0.220554
0.22026
0.219951
0.219692
0.219416
0.219186
0.218932
0.218739
0.218514
0.218333
0.218142
0.217975
0.217805
0.217663
0.217515
0.217392
0.217261
0.217162
0.217036
0.216959
0.216856
0.216795
0.216703
0.216651
0.216574
0.216532
0.216465
0.21643
0.216374
0.216349
0.216305
0.216289
0.216257
0.216251
0.21623
0.21624
0.216231
0.216261
0.216261
0.216314
0.216325
0.216403
0.216419
0.216564
0.216649
0.221754
6.737
587.096
0.759986
0.634193
0.541428
0.473851
0.424463
0.387852
0.360123
0.338695
0.321766
0.308176
0.297053
0.287852
0.280105
0.273548
0.267896
0.263029
0.258753
0.255021
0.251688
0.248751
0.24609
0.243729
0.241562
0.239629
0.237834
0.23623
0.234723
0.233375
0.232094
0.230953
0.229853
0.228877
0.227925
0.227085
0.226257
0.225529
0.224804
0.224173
0.223533
0.222982
0.222417
0.221933
0.221431
0.221008
0.220563
0.220189
0.219791
0.219462
0.21911
0.218814
0.218503
0.218241
0.217962
0.21773
0.217474
0.217279
0.217052
0.216869
0.216676
0.216508
0.216335
0.216192
0.216042
0.215918
0.215784
0.215684
0.215556
0.215478
0.215372
0.21531
0.215217
0.215163
0.215085
0.215041
0.214972
0.214936
0.214878
0.214852
0.214806
0.214789
0.214754
0.214747
0.214723
0.214731
0.21472
0.214746
0.214745
0.214795
0.214804
0.21488
0.214893
0.215036
0.215123
0.22038
6.92327
582.707
0.759999
0.634218
0.541383
0.473671
0.424128
0.387367
0.359505
0.337962
0.320936
0.307265
0.296073
0.286814
0.279017
0.272418
0.26673
0.26183
0.257526
0.253769
0.250414
0.247458
0.244779
0.242402
0.24022
0.238275
0.236468
0.234853
0.233336
0.231979
0.23069
0.22954
0.228434
0.22745
0.226492
0.225646
0.224812
0.224079
0.223349
0.222713
0.222069
0.221514
0.220944
0.220457
0.219951
0.219524
0.219075
0.218698
0.218298
0.217966
0.217611
0.217312
0.216998
0.216734
0.216453
0.216219
0.21596
0.215762
0.215534
0.215349
0.215153
0.214984
0.214809
0.214663
0.214512
0.214386
0.21425
0.214148
0.214019
0.213939
0.213831
0.213767
0.213672
0.213617
0.213537
0.213492
0.213422
0.213384
0.213325
0.213297
0.213249
0.21323
0.213194
0.213184
0.213158
0.213163
0.21315
0.213173
0.213171
0.213217
0.213225
0.213297
0.213309
0.21345
0.213538
0.218945
7.09089
577.172
0.760011
0.634244
0.541337
0.473488
0.423785
0.386868
0.358868
0.337206
0.32008
0.306324
0.295061
0.285741
0.277892
0.271248
0.265521
0.260588
0.256255
0.252472
0.249094
0.246117
0.24342
0.241027
0.23883
0.236871
0.235052
0.233426
0.231898
0.230532
0.229233
0.228076
0.226961
0.225971
0.225006
0.224154
0.223314
0.222576
0.22184
0.221199
0.22055
0.219991
0.219417
0.218925
0.218415
0.217985
0.217533
0.217153
0.216749
0.216414
0.216056
0.215754
0.215437
0.215171
0.214887
0.214651
0.21439
0.21419
0.213959
0.213772
0.213574
0.213403
0.213226
0.213079
0.212924
0.212797
0.212659
0.212556
0.212425
0.212342
0.212233
0.212168
0.212071
0.212014
0.211933
0.211886
0.211814
0.211775
0.211714
0.211684
0.211635
0.211614
0.211575
0.211564
0.211536
0.211538
0.211522
0.211542
0.211538
0.211581
0.211587
0.211656
0.211666
0.211804
0.211895
0.217444
7.2352
570.385
0.760024
0.634272
0.541292
0.473302
0.423434
0.386356
0.358213
0.336428
0.319197
0.305352
0.294015
0.284631
0.276729
0.270038
0.264272
0.259303
0.25494
0.25113
0.247729
0.24473
0.242014
0.239603
0.237391
0.235418
0.233586
0.231948
0.230409
0.229033
0.227726
0.226559
0.225437
0.224439
0.223468
0.222609
0.221763
0.221019
0.220277
0.219631
0.218978
0.218414
0.217835
0.21734
0.216826
0.216392
0.215936
0.215552
0.215145
0.214807
0.214446
0.214141
0.213821
0.213553
0.213266
0.213028
0.212763
0.212561
0.212328
0.212139
0.211938
0.211766
0.211586
0.211438
0.211281
0.211152
0.211011
0.210907
0.210774
0.21069
0.210578
0.210511
0.210412
0.210354
0.210271
0.210223
0.210149
0.210109
0.210045
0.210014
0.209963
0.20994
0.209899
0.209886
0.209856
0.209855
0.209837
0.209853
0.209848
0.209887
0.209891
0.209957
0.209965
0.210101
0.210194
0.215878
7.35146
562.231
0.760037
0.6343
0.541247
0.473114
0.423076
0.385832
0.35754
0.335627
0.318288
0.304352
0.292937
0.283488
0.275529
0.26879
0.262982
0.257977
0.253582
0.249744
0.246318
0.243297
0.240561
0.238132
0.235904
0.233916
0.232071
0.230421
0.228871
0.227484
0.226167
0.224992
0.223862
0.222856
0.221877
0.221012
0.220159
0.219409
0.218662
0.218011
0.217352
0.216783
0.2162
0.215701
0.215183
0.214745
0.214285
0.213898
0.213487
0.213146
0.212781
0.212474
0.21215
0.21188
0.211589
0.211349
0.211082
0.210877
0.210642
0.21045
0.210247
0.210073
0.209891
0.209741
0.209581
0.209451
0.209308
0.209202
0.209066
0.208981
0.208867
0.208798
0.208697
0.208638
0.208553
0.208504
0.208428
0.208386
0.20832
0.208287
0.208234
0.20821
0.208166
0.208152
0.208119
0.208115
0.208094
0.208107
0.2081
0.208136
0.208138
0.2082
0.208207
0.20834
0.208434
0.214245
7.43489
552.592
0.76005
0.634329
0.541203
0.472922
0.42271
0.385296
0.356851
0.334805
0.317355
0.303323
0.291828
0.28231
0.274293
0.267503
0.261652
0.25661
0.252181
0.248314
0.244862
0.241818
0.239062
0.236614
0.23437
0.232366
0.230507
0.228844
0.227283
0.225886
0.224559
0.223374
0.222235
0.221221
0.220235
0.219363
0.218504
0.217748
0.216994
0.216338
0.215674
0.2151
0.214512
0.214008
0.213486
0.213044
0.21258
0.212189
0.211775
0.21143
0.211062
0.210752
0.210425
0.210152
0.209858
0.209616
0.209346
0.209138
0.2089
0.208707
0.208501
0.208326
0.208141
0.207989
0.207826
0.207695
0.207549
0.207441
0.207304
0.207216
0.2071
0.207029
0.206927
0.206866
0.206778
0.206728
0.20665
0.206607
0.206539
0.206504
0.206448
0.206423
0.206377
0.206361
0.206326
0.206319
0.206296
0.206305
0.206295
0.206327
0.206328
0.206386
0.206391
0.206522
0.206618
0.212542
7.48077
541.356
0.760062
0.63436
0.541159
0.472729
0.422339
0.384748
0.356146
0.333963
0.316396
0.302266
0.290688
0.281099
0.273022
0.26618
0.260284
0.255201
0.250739
0.246841