/*--------------------------------*- C++ -*----------------------------------*\
| =========                 |                                                 |
| \\      /  F ield         | OpenFOAM: The Open Source CFD Toolbox           |
|  \\    /   O peration     | Version:  v2012                                 |
|   \\  /    A nd           | Website:  www.openfoam.com                      |
|    \\/     M anipulation  |                                                 |
\*---------------------------------------------------------------------------*/
FoamFile
{
    version     2.0;
    format      ascii;
    class       volVectorField;
    location    "54";
    object      wallShearStress;
}
// * * * * * * * * * * * * * * * * * * * * * * * * * * * * * * * * * * * * * //

dimensions      [0 2 -2 0 0 0 0];


internalField   uniform (0 0 0);

boundaryField
{
    inlet
    {
        type            calculated;
        value           uniform (0 0 0);
    }
    outlet
    {
        type            calculated;
        value           uniform (0 0 0);
    }
    topWall
    {
        type            calculated;
        value           nonuniform List<vector> 
545
(
(6.96458e-08 -4.90235e-08 0)
(6.96257e-08 -1.37146e-07 0)
(6.95815e-08 -2.28774e-07 0)
(6.95202e-08 -3.17744e-07 0)
(6.94451e-08 -4.02918e-07 0)
(6.93567e-08 -4.8539e-07 0)
(6.92558e-08 -5.65862e-07 0)
(6.91434e-08 -6.44295e-07 0)
(6.90203e-08 -7.20517e-07 0)
(6.88876e-08 -7.94527e-07 0)
(6.87463e-08 -8.66422e-07 0)
(6.85971e-08 -9.36285e-07 0)
(6.84408e-08 -1.00416e-06 0)
(6.82781e-08 -1.0701e-06 0)
(6.81099e-08 -1.13413e-06 0)
(6.79366e-08 -1.19632e-06 0)
(6.7759e-08 -1.25672e-06 0)
(6.75776e-08 -1.31536e-06 0)
(6.7393e-08 -1.37231e-06 0)
(6.72056e-08 -1.4276e-06 0)
(6.70159e-08 -1.48128e-06 0)
(6.68244e-08 -1.5334e-06 0)
(6.66314e-08 -1.58399e-06 0)
(6.64374e-08 -1.63311e-06 0)
(6.62427e-08 -1.6808e-06 0)
(6.60476e-08 -1.72709e-06 0)
(6.58524e-08 -1.77202e-06 0)
(6.56574e-08 -1.81565e-06 0)
(6.54629e-08 -1.85799e-06 0)
(6.52691e-08 -1.8991e-06 0)
(6.50762e-08 -1.939e-06 0)
(6.48844e-08 -1.97774e-06 0)
(6.46939e-08 -2.01535e-06 0)
(6.45049e-08 -2.05185e-06 0)
(6.43175e-08 -2.0873e-06 0)
(6.41319e-08 -2.1217e-06 0)
(6.39482e-08 -2.1551e-06 0)
(6.37665e-08 -2.18753e-06 0)
(6.35869e-08 -2.21902e-06 0)
(6.34095e-08 -2.24959e-06 0)
(6.32343e-08 -2.27926e-06 0)
(6.30615e-08 -2.30808e-06 0)
(6.28911e-08 -2.33606e-06 0)
(6.27232e-08 -2.36323e-06 0)
(6.25578e-08 -2.38962e-06 0)
(6.23949e-08 -2.41524e-06 0)
(6.22346e-08 -2.44012e-06 0)
(6.20769e-08 -2.46428e-06 0)
(6.19219e-08 -2.48775e-06 0)
(6.17694e-08 -2.51054e-06 0)
(6.16197e-08 -2.53267e-06 0)
(6.14725e-08 -2.55418e-06 0)
(6.1328e-08 -2.57506e-06 0)
(6.11862e-08 -2.59534e-06 0)
(6.1047e-08 -2.61505e-06 0)
(6.09104e-08 -2.63419e-06 0)
(6.07765e-08 -2.65279e-06 0)
(6.06451e-08 -2.67086e-06 0)
(6.05164e-08 -2.68841e-06 0)
(6.03901e-08 -2.70546e-06 0)
(6.02665e-08 -2.72203e-06 0)
(6.01453e-08 -2.73813e-06 0)
(6.00266e-08 -2.75378e-06 0)
(5.99103e-08 -2.76898e-06 0)
(5.97965e-08 -2.78375e-06 0)
(5.96851e-08 -2.79811e-06 0)
(5.9576e-08 -2.81206e-06 0)
(5.94693e-08 -2.82562e-06 0)
(5.93649e-08 -2.8388e-06 0)
(5.92627e-08 -2.8516e-06 0)
(5.91627e-08 -2.86406e-06 0)
(5.90651e-08 -2.87614e-06 0)
(5.89703e-08 -2.88777e-06 0)
(5.88778e-08 -2.89905e-06 0)
(5.87862e-08 -2.91021e-06 0)
(5.86949e-08 -2.92131e-06 0)
(5.86037e-08 -2.93237e-06 0)
(5.85126e-08 -2.94336e-06 0)
(5.84215e-08 -2.95427e-06 0)
(5.83306e-08 -2.96512e-06 0)
(5.82398e-08 -2.9759e-06 0)
(5.8149e-08 -2.98662e-06 0)
(5.80584e-08 -2.99727e-06 0)
(5.79678e-08 -3.00785e-06 0)
(5.78774e-08 -3.01837e-06 0)
(5.77871e-08 -3.02883e-06 0)
(5.76968e-08 -3.03922e-06 0)
(5.76068e-08 -3.04954e-06 0)
(5.75168e-08 -3.05981e-06 0)
(5.74269e-08 -3.07001e-06 0)
(5.73372e-08 -3.08015e-06 0)
(5.72476e-08 -3.09023e-06 0)
(5.71581e-08 -3.10024e-06 0)
(5.70688e-08 -3.11019e-06 0)
(5.69797e-08 -3.12011e-06 0)
(5.68913e-08 -3.12984e-06 0)
(5.68072e-08 -3.13876e-06 0)
(5.67304e-08 -3.14686e-06 0)
(5.66569e-08 -3.15473e-06 0)
(5.65836e-08 -3.16263e-06 0)
(5.65102e-08 -3.1706e-06 0)
(5.64365e-08 -3.1786e-06 0)
(5.63624e-08 -3.1866e-06 0)
(5.6288e-08 -3.19459e-06 0)
(5.62132e-08 -3.20259e-06 0)
(5.61381e-08 -3.2106e-06 0)
(5.60626e-08 -3.21862e-06 0)
(5.59868e-08 -3.22665e-06 0)
(5.59106e-08 -3.23469e-06 0)
(5.58341e-08 -3.24273e-06 0)
(5.57572e-08 -3.25078e-06 0)
(5.568e-08 -3.25884e-06 0)
(5.56023e-08 -3.26691e-06 0)
(5.55244e-08 -3.27499e-06 0)
(5.5446e-08 -3.28307e-06 0)
(5.53674e-08 -3.29116e-06 0)
(5.52883e-08 -3.29926e-06 0)
(5.52089e-08 -3.30737e-06 0)
(5.51291e-08 -3.31548e-06 0)
(5.5049e-08 -3.3236e-06 0)
(5.49685e-08 -3.33173e-06 0)
(5.48876e-08 -3.33986e-06 0)
(5.48064e-08 -3.34801e-06 0)
(5.47248e-08 -3.35616e-06 0)
(5.46428e-08 -3.36431e-06 0)
(5.45604e-08 -3.37248e-06 0)
(5.44777e-08 -3.38065e-06 0)
(5.43946e-08 -3.38882e-06 0)
(5.43111e-08 -3.39701e-06 0)
(5.42273e-08 -3.4052e-06 0)
(5.41431e-08 -3.41339e-06 0)
(5.40585e-08 -3.4216e-06 0)
(5.39735e-08 -3.42981e-06 0)
(5.38882e-08 -3.43802e-06 0)
(5.38024e-08 -3.44625e-06 0)
(5.37163e-08 -3.45448e-06 0)
(5.36299e-08 -3.46271e-06 0)
(5.3543e-08 -3.47095e-06 0)
(5.34557e-08 -3.4792e-06 0)
(5.33681e-08 -3.48745e-06 0)
(5.32801e-08 -3.49571e-06 0)
(5.31917e-08 -3.50398e-06 0)
(5.31029e-08 -3.51225e-06 0)
(5.30137e-08 -3.52052e-06 0)
(5.29242e-08 -3.52881e-06 0)
(5.28342e-08 -3.53709e-06 0)
(5.27439e-08 -3.54539e-06 0)
(5.26531e-08 -3.55368e-06 0)
(5.2562e-08 -3.56199e-06 0)
(5.24705e-08 -3.5703e-06 0)
(5.23786e-08 -3.57861e-06 0)
(5.22863e-08 -3.58693e-06 0)
(5.21936e-08 -3.59525e-06 0)
(5.21005e-08 -3.60358e-06 0)
(5.20071e-08 -3.61191e-06 0)
(5.19132e-08 -3.62025e-06 0)
(5.18189e-08 -3.62859e-06 0)
(5.17243e-08 -3.63694e-06 0)
(5.16292e-08 -3.64529e-06 0)
(5.15337e-08 -3.65364e-06 0)
(5.14379e-08 -3.662e-06 0)
(5.13416e-08 -3.67037e-06 0)
(5.12449e-08 -3.67873e-06 0)
(5.11479e-08 -3.6871e-06 0)
(5.10504e-08 -3.69548e-06 0)
(5.09526e-08 -3.70386e-06 0)
(5.08543e-08 -3.71224e-06 0)
(5.07556e-08 -3.72062e-06 0)
(5.06565e-08 -3.72901e-06 0)
(5.05571e-08 -3.73741e-06 0)
(5.04572e-08 -3.7458e-06 0)
(5.03569e-08 -3.7542e-06 0)
(5.02562e-08 -3.7626e-06 0)
(5.01551e-08 -3.77101e-06 0)
(5.00536e-08 -3.77941e-06 0)
(4.99517e-08 -3.78783e-06 0)
(4.98494e-08 -3.79624e-06 0)
(4.97466e-08 -3.80465e-06 0)
(4.96435e-08 -3.81307e-06 0)
(4.954e-08 -3.82149e-06 0)
(4.9436e-08 -3.82991e-06 0)
(4.93317e-08 -3.83834e-06 0)
(4.92269e-08 -3.84676e-06 0)
(4.91217e-08 -3.85519e-06 0)
(4.90161e-08 -3.86362e-06 0)
(4.89101e-08 -3.87205e-06 0)
(4.88037e-08 -3.88049e-06 0)
(4.86969e-08 -3.88892e-06 0)
(4.85896e-08 -3.89736e-06 0)
(4.8482e-08 -3.9058e-06 0)
(4.83739e-08 -3.91423e-06 0)
(4.82655e-08 -3.92267e-06 0)
(4.81566e-08 -3.93111e-06 0)
(4.80473e-08 -3.93955e-06 0)
(4.79376e-08 -3.948e-06 0)
(4.78275e-08 -3.95644e-06 0)
(4.77169e-08 -3.96488e-06 0)
(4.7606e-08 -3.97332e-06 0)
(4.74946e-08 -3.98177e-06 0)
(4.73829e-08 -3.99021e-06 0)
(4.72707e-08 -3.99865e-06 0)
(4.71581e-08 -4.00709e-06 0)
(4.70451e-08 -4.01554e-06 0)
(4.69317e-08 -4.02398e-06 0)
(4.68178e-08 -4.03242e-06 0)
(4.67036e-08 -4.04086e-06 0)
(4.65889e-08 -4.0493e-06 0)
(4.64739e-08 -4.05774e-06 0)
(4.63584e-08 -4.06618e-06 0)
(4.62425e-08 -4.07461e-06 0)
(4.61262e-08 -4.08305e-06 0)
(4.60095e-08 -4.09148e-06 0)
(4.58924e-08 -4.09992e-06 0)
(4.57748e-08 -4.10835e-06 0)
(4.56569e-08 -4.11678e-06 0)
(4.55385e-08 -4.1252e-06 0)
(4.54198e-08 -4.13363e-06 0)
(4.53006e-08 -4.14205e-06 0)
(4.5181e-08 -4.15047e-06 0)
(4.5061e-08 -4.15889e-06 0)
(4.49406e-08 -4.1673e-06 0)
(4.48198e-08 -4.17572e-06 0)
(4.46986e-08 -4.18412e-06 0)
(4.4577e-08 -4.19253e-06 0)
(4.44549e-08 -4.20093e-06 0)
(4.43325e-08 -4.20933e-06 0)
(4.42096e-08 -4.21773e-06 0)
(4.40864e-08 -4.22612e-06 0)
(4.39628e-08 -4.23451e-06 0)
(4.38387e-08 -4.2429e-06 0)
(4.37142e-08 -4.25128e-06 0)
(4.35894e-08 -4.25966e-06 0)
(4.34641e-08 -4.26803e-06 0)
(4.33385e-08 -4.2764e-06 0)
(4.32124e-08 -4.28476e-06 0)
(4.3086e-08 -4.29312e-06 0)
(4.29591e-08 -4.30147e-06 0)
(4.28319e-08 -4.30982e-06 0)
(4.27042e-08 -4.31817e-06 0)
(4.25762e-08 -4.3265e-06 0)
(4.24477e-08 -4.33484e-06 0)
(4.23189e-08 -4.34316e-06 0)
(4.21897e-08 -4.35149e-06 0)
(4.20601e-08 -4.3598e-06 0)
(4.19301e-08 -4.36811e-06 0)
(4.17997e-08 -4.37641e-06 0)
(4.16689e-08 -4.38471e-06 0)
(4.15377e-08 -4.393e-06 0)
(4.14062e-08 -4.40128e-06 0)
(4.12742e-08 -4.40956e-06 0)
(4.11419e-08 -4.41783e-06 0)
(4.10092e-08 -4.42609e-06 0)
(4.08761e-08 -4.43435e-06 0)
(4.07427e-08 -4.4426e-06 0)
(4.06088e-08 -4.45084e-06 0)
(4.04746e-08 -4.45907e-06 0)
(4.034e-08 -4.46729e-06 0)
(4.0205e-08 -4.47551e-06 0)
(4.00697e-08 -4.48372e-06 0)
(3.9934e-08 -4.49192e-06 0)
(3.97979e-08 -4.50011e-06 0)
(3.96615e-08 -4.50829e-06 0)
(3.95247e-08 -4.51646e-06 0)
(3.93875e-08 -4.52463e-06 0)
(3.925e-08 -4.53278e-06 0)
(3.91121e-08 -4.54093e-06 0)
(3.89739e-08 -4.54906e-06 0)
(3.88354e-08 -4.5572e-06 0)
(3.86984e-08 -4.56526e-06 0)
(3.85639e-08 -4.57293e-06 0)
(3.84344e-08 -4.58025e-06 0)
(3.83084e-08 -4.58749e-06 0)
(3.81813e-08 -4.59478e-06 0)
(3.8053e-08 -4.60218e-06 0)
(3.79233e-08 -4.60963e-06 0)
(3.77922e-08 -4.61713e-06 0)
(3.76596e-08 -4.62469e-06 0)
(3.75256e-08 -4.63229e-06 0)
(3.73901e-08 -4.63996e-06 0)
(3.72531e-08 -4.64768e-06 0)
(3.71146e-08 -4.65545e-06 0)
(3.69747e-08 -4.66329e-06 0)
(3.68331e-08 -4.67117e-06 0)
(3.66901e-08 -4.67911e-06 0)
(3.65455e-08 -4.6871e-06 0)
(3.63993e-08 -4.69515e-06 0)
(3.62516e-08 -4.70326e-06 0)
(3.61023e-08 -4.71142e-06 0)
(3.59514e-08 -4.71963e-06 0)
(3.57988e-08 -4.7279e-06 0)
(3.56447e-08 -4.73622e-06 0)
(3.54889e-08 -4.7446e-06 0)
(3.53314e-08 -4.75302e-06 0)
(3.51723e-08 -4.76151e-06 0)
(3.50115e-08 -4.77004e-06 0)
(3.4849e-08 -4.77863e-06 0)
(3.46848e-08 -4.78727e-06 0)
(3.45189e-08 -4.79597e-06 0)
(3.43512e-08 -4.80471e-06 0)
(3.41819e-08 -4.81351e-06 0)
(3.40107e-08 -4.82236e-06 0)
(3.38378e-08 -4.83126e-06 0)
(3.36632e-08 -4.84021e-06 0)
(3.34867e-08 -4.84921e-06 0)
(3.33084e-08 -4.85826e-06 0)
(3.31284e-08 -4.86736e-06 0)
(3.29465e-08 -4.87651e-06 0)
(3.27628e-08 -4.88571e-06 0)
(3.25772e-08 -4.89495e-06 0)
(3.23898e-08 -4.90424e-06 0)
(3.22005e-08 -4.91358e-06 0)
(3.20094e-08 -4.92297e-06 0)
(3.18164e-08 -4.93239e-06 0)
(3.16215e-08 -4.94187e-06 0)
(3.14246e-08 -4.95138e-06 0)
(3.12259e-08 -4.96095e-06 0)
(3.10253e-08 -4.97055e-06 0)
(3.08227e-08 -4.98019e-06 0)
(3.06182e-08 -4.98988e-06 0)
(3.04118e-08 -4.9996e-06 0)
(3.02035e-08 -5.00936e-06 0)
(2.99931e-08 -5.01916e-06 0)
(2.97809e-08 -5.029e-06 0)
(2.95667e-08 -5.03888e-06 0)
(2.93505e-08 -5.04878e-06 0)
(2.91323e-08 -5.05873e-06 0)
(2.89122e-08 -5.0687e-06 0)
(2.86901e-08 -5.07871e-06 0)
(2.8466e-08 -5.08874e-06 0)
(2.824e-08 -5.09881e-06 0)
(2.8012e-08 -5.1089e-06 0)
(2.7782e-08 -5.11902e-06 0)
(2.755e-08 -5.12916e-06 0)
(2.73161e-08 -5.13934e-06 0)
(2.70801e-08 -5.14952e-06 0)
(2.68423e-08 -5.15974e-06 0)
(2.66024e-08 -5.16997e-06 0)
(2.63606e-08 -5.18022e-06 0)
(2.61168e-08 -5.19048e-06 0)
(2.58711e-08 -5.20077e-06 0)
(2.56234e-08 -5.21106e-06 0)
(2.53738e-08 -5.22136e-06 0)
(2.51223e-08 -5.23167e-06 0)
(2.48689e-08 -5.242e-06 0)
(2.46135e-08 -5.25232e-06 0)
(2.43563e-08 -5.26266e-06 0)
(2.40971e-08 -5.27299e-06 0)
(2.38362e-08 -5.28332e-06 0)
(2.35733e-08 -5.29365e-06 0)
(2.33086e-08 -5.30398e-06 0)
(2.30421e-08 -5.3143e-06 0)
(2.27739e-08 -5.32462e-06 0)
(2.25038e-08 -5.33492e-06 0)
(2.2232e-08 -5.34521e-06 0)
(2.19584e-08 -5.35548e-06 0)
(2.16831e-08 -5.36574e-06 0)
(2.14062e-08 -5.37597e-06 0)
(2.11276e-08 -5.38619e-06 0)
(2.08473e-08 -5.39637e-06 0)
(2.05655e-08 -5.40654e-06 0)
(2.0282e-08 -5.41667e-06 0)
(1.99971e-08 -5.42677e-06 0)
(1.97106e-08 -5.43683e-06 0)
(1.94227e-08 -5.44686e-06 0)
(1.91333e-08 -5.45684e-06 0)
(1.88426e-08 -5.46678e-06 0)
(1.85504e-08 -5.47668e-06 0)
(1.8257e-08 -5.48652e-06 0)
(1.79623e-08 -5.49631e-06 0)
(1.76664e-08 -5.50606e-06 0)
(1.73692e-08 -5.51573e-06 0)
(1.7071e-08 -5.52535e-06 0)
(1.67717e-08 -5.5349e-06 0)
(1.64713e-08 -5.54439e-06 0)
(1.617e-08 -5.5538e-06 0)
(1.58677e-08 -5.56315e-06 0)
(1.55646e-08 -5.57241e-06 0)
(1.52606e-08 -5.58159e-06 0)
(1.49559e-08 -5.59069e-06 0)
(1.46506e-08 -5.5997e-06 0)
(1.43445e-08 -5.60862e-06 0)
(1.4038e-08 -5.61745e-06 0)
(1.37309e-08 -5.62618e-06 0)
(1.34234e-08 -5.63481e-06 0)
(1.31155e-08 -5.64333e-06 0)
(1.28074e-08 -5.65175e-06 0)
(1.2499e-08 -5.66005e-06 0)
(1.21906e-08 -5.66825e-06 0)
(1.1882e-08 -5.67632e-06 0)
(1.15735e-08 -5.68427e-06 0)
(1.1265e-08 -5.69209e-06 0)
(1.09568e-08 -5.69979e-06 0)
(1.06487e-08 -5.70735e-06 0)
(1.03411e-08 -5.71478e-06 0)
(1.00338e-08 -5.72206e-06 0)
(9.72709e-09 -5.72921e-06 0)
(9.42094e-09 -5.7362e-06 0)
(9.1155e-09 -5.74305e-06 0)
(8.81083e-09 -5.74973e-06 0)
(8.50704e-09 -5.75627e-06 0)
(8.20419e-09 -5.76264e-06 0)
(7.90242e-09 -5.76885e-06 0)
(7.60179e-09 -5.77488e-06 0)
(7.30241e-09 -5.78076e-06 0)
(7.00436e-09 -5.78644e-06 0)
(6.70777e-09 -5.79197e-06 0)
(6.41269e-09 -5.79729e-06 0)
(6.11927e-09 -5.80245e-06 0)
(5.82756e-09 -5.8074e-06 0)
(5.5377e-09 -5.81217e-06 0)
(5.24976e-09 -5.81674e-06 0)
(4.96387e-09 -5.82112e-06 0)
(4.6801e-09 -5.82529e-06 0)
(4.39857e-09 -5.82927e-06 0)
(4.11936e-09 -5.83303e-06 0)
(3.8426e-09 -5.83659e-06 0)
(3.56837e-09 -5.83993e-06 0)
(3.29678e-09 -5.84306e-06 0)
(3.02791e-09 -5.84597e-06 0)
(2.76189e-09 -5.84867e-06 0)
(2.49878e-09 -5.85113e-06 0)
(2.23872e-09 -5.85338e-06 0)
(1.98177e-09 -5.85539e-06 0)
(1.72805e-09 -5.85719e-06 0)
(1.47764e-09 -5.85874e-06 0)
(1.23064e-09 -5.86008e-06 0)
(9.87129e-10 -5.86116e-06 0)
(7.47214e-10 -5.86203e-06 0)
(5.10972e-10 -5.86264e-06 0)
(2.78494e-10 -5.86304e-06 0)
(4.98603e-11 -5.86317e-06 0)
(-1.74845e-10 -5.86308e-06 0)
(-3.95543e-10 -5.86273e-06 0)
(-6.12156e-10 -5.86216e-06 0)
(-8.24607e-10 -5.86132e-06 0)
(-1.03283e-09 -5.86026e-06 0)
(-1.23674e-09 -5.85893e-06 0)
(-1.43628e-09 -5.85739e-06 0)
(-1.63138e-09 -5.85557e-06 0)
(-1.82199e-09 -5.85354e-06 0)
(-2.00802e-09 -5.85123e-06 0)
(-2.18944e-09 -5.84871e-06 0)
(-2.36616e-09 -5.84591e-06 0)
(-2.53817e-09 -5.84291e-06 0)
(-2.70537e-09 -5.83963e-06 0)
(-2.86776e-09 -5.83614e-06 0)
(-3.02517e-09 -5.83238e-06 0)
(-3.17798e-09 -5.82842e-06 0)
(-3.32462e-09 -5.82417e-06 0)
(-3.47228e-09 -5.81971e-06 0)
(-3.62505e-09 -5.81452e-06 0)
(-3.77817e-09 -5.80855e-06 0)
(-3.92744e-09 -5.80222e-06 0)
(-4.06831e-09 -5.79573e-06 0)
(-4.20063e-09 -5.78898e-06 0)
(-4.32458e-09 -5.78207e-06 0)
(-4.4403e-09 -5.77493e-06 0)
(-4.54806e-09 -5.76764e-06 0)
(-4.64804e-09 -5.76014e-06 0)
(-4.74059e-09 -5.75254e-06 0)
(-4.82588e-09 -5.74474e-06 0)
(-4.90421e-09 -5.73686e-06 0)
(-4.97575e-09 -5.72881e-06 0)
(-5.04081e-09 -5.7207e-06 0)
(-5.09951e-09 -5.71244e-06 0)
(-5.15217e-09 -5.70414e-06 0)
(-5.1989e-09 -5.69571e-06 0)
(-5.23999e-09 -5.68726e-06 0)
(-5.27555e-09 -5.6787e-06 0)
(-5.30584e-09 -5.67014e-06 0)
(-5.33098e-09 -5.66148e-06 0)
(-5.3512e-09 -5.65283e-06 0)
(-5.36661e-09 -5.64411e-06 0)
(-5.37744e-09 -5.63542e-06 0)
(-5.38376e-09 -5.62666e-06 0)
(-5.38581e-09 -5.61795e-06 0)
(-5.38364e-09 -5.60918e-06 0)
(-5.37749e-09 -5.60048e-06 0)
(-5.3674e-09 -5.59174e-06 0)
(-5.35358e-09 -5.58306e-06 0)
(-5.33606e-09 -5.57436e-06 0)
(-5.31506e-09 -5.56575e-06 0)
(-5.2906e-09 -5.55712e-06 0)
(-5.26287e-09 -5.54858e-06 0)
(-5.23189e-09 -5.54005e-06 0)
(-5.19786e-09 -5.53161e-06 0)
(-5.16077e-09 -5.52318e-06 0)
(-5.1208e-09 -5.51487e-06 0)
(-5.07797e-09 -5.50657e-06 0)
(-5.03244e-09 -5.49839e-06 0)
(-4.9842e-09 -5.49024e-06 0)
(-4.93343e-09 -5.48222e-06 0)
(-4.88011e-09 -5.47424e-06 0)
(-4.82439e-09 -5.46639e-06 0)
(-4.76628e-09 -5.45859e-06 0)
(-4.70591e-09 -5.45093e-06 0)
(-4.64327e-09 -5.44332e-06 0)
(-4.5785e-09 -5.43586e-06 0)
(-4.51158e-09 -5.42847e-06 0)
(-4.44265e-09 -5.42123e-06 0)
(-4.3717e-09 -5.41406e-06 0)
(-4.29884e-09 -5.40704e-06 0)
(-4.22406e-09 -5.40011e-06 0)
(-4.14748e-09 -5.39334e-06 0)
(-4.06909e-09 -5.38665e-06 0)
(-3.98899e-09 -5.38013e-06 0)
(-3.90717e-09 -5.37371e-06 0)
(-3.82374e-09 -5.36746e-06 0)
(-3.73868e-09 -5.3613e-06 0)
(-3.65211e-09 -5.35532e-06 0)
(-3.56399e-09 -5.34945e-06 0)
(-3.47444e-09 -5.34375e-06 0)
(-3.38344e-09 -5.33817e-06 0)
(-3.29108e-09 -5.33277e-06 0)
(-3.19736e-09 -5.32749e-06 0)
(-3.10236e-09 -5.32239e-06 0)
(-3.00609e-09 -5.31742e-06 0)
(-2.90862e-09 -5.31263e-06 0)
(-2.80996e-09 -5.30797e-06 0)
(-2.71018e-09 -5.30351e-06 0)
(-2.60928e-09 -5.29917e-06 0)
(-2.50735e-09 -5.29503e-06 0)
(-2.40439e-09 -5.29103e-06 0)
(-2.30047e-09 -5.28722e-06 0)
(-2.1956e-09 -5.28355e-06 0)
(-2.08985e-09 -5.28008e-06 0)
(-1.98323e-09 -5.27676e-06 0)
(-1.87581e-09 -5.27363e-06 0)
(-1.7676e-09 -5.27066e-06 0)
(-1.65867e-09 -5.26788e-06 0)
(-1.54905e-09 -5.26526e-06 0)
(-1.43877e-09 -5.26284e-06 0)
(-1.32788e-09 -5.26058e-06 0)
(-1.21643e-09 -5.25851e-06 0)
(-1.10445e-09 -5.2566e-06 0)
(-9.91986e-10 -5.25493e-06 0)
(-8.79088e-10 -5.25329e-06 0)
(-7.65821e-10 -5.25231e-06 0)
(-6.52187e-10 -5.24992e-06 0)
(-5.38392e-10 -5.25293e-06 0)
(-4.24094e-10 -5.23849e-06 0)
(-3.104e-10 -5.28052e-06 0)
(-1.95548e-10 -5.12202e-06 0)
(-8.05061e-11 -5.5425e-06 0)
(-1.20202e-11 -4.84078e-06 0)
)
;
    }
    bottomWall
    {
        type            calculated;
        value           nonuniform List<vector> 
449
(
(-52.6912 -0.955379 0)
(-34.7242 -0.002798 0)
(-34.3373 -0.000253838 0)
(-32.9779 -0.000362628 0)
(-31.8547 -0.00031466 0)
(-30.8197 -0.000283904 0)
(-29.9035 -0.000249036 0)
(-29.1045 -0.000217155 0)
(-28.4046 -0.000190626 0)
(-27.7858 -0.000168883 0)
(-27.2337 -0.000150885 0)
(-26.7373 -0.000135802 0)
(-26.2879 -0.000123162 0)
(-25.8776 -0.000112492 0)
(-25.5008 -0.000103288 0)
(-25.1533 -9.52899e-05 0)
(-24.8311 -8.83049e-05 0)
(-24.5312 -8.21749e-05 0)
(-24.2509 -7.6774e-05 0)
(-23.9879 -7.19578e-05 0)
(-23.7404 -6.76374e-05 0)
(-23.507 -6.37516e-05 0)
(-23.2861 -6.02451e-05 0)
(-23.0767 -5.70633e-05 0)
(-22.8776 -5.41677e-05 0)
(-22.688 -5.15111e-05 0)
(-22.5071 -4.90763e-05 0)
(-22.3341 -4.68372e-05 0)
(-22.1686 -4.47719e-05 0)
(-22.0099 -4.28564e-05 0)
(-21.8575 -4.10806e-05 0)
(-21.7109 -3.9428e-05 0)
(-21.5699 -3.78904e-05 0)
(-21.4339 -3.64495e-05 0)
(-21.3028 -3.51042e-05 0)
(-21.1761 -3.38395e-05 0)
(-21.0536 -3.26562e-05 0)
(-20.9351 -3.15457e-05 0)
(-20.8203 -3.04987e-05 0)
(-20.709 -2.95122e-05 0)
(-20.601 -2.85808e-05 0)
(-20.4961 -2.77018e-05 0)
(-20.3941 -2.68664e-05 0)
(-20.295 -2.60706e-05 0)
(-20.1986 -2.53149e-05 0)
(-20.1047 -2.4589e-05 0)
(-20.0133 -2.38977e-05 0)
(-19.9242 -2.32405e-05 0)
(-19.8373 -2.26037e-05 0)
(-19.7526 -2.20041e-05 0)
(-19.6699 -2.14247e-05 0)
(-19.5892 -2.08734e-05 0)
(-19.5104 -2.03481e-05 0)
(-19.4333 -1.98418e-05 0)
(-19.358 -1.93607e-05 0)
(-19.2843 -1.88974e-05 0)
(-19.2122 -1.84559e-05 0)
(-19.1416 -1.80317e-05 0)
(-19.0724 -1.76246e-05 0)
(-19.0047 -1.72334e-05 0)
(-18.9382 -1.68569e-05 0)
(-18.8731 -1.64956e-05 0)
(-18.8091 -1.61462e-05 0)
(-18.7464 -1.58115e-05 0)
(-18.6848 -1.54871e-05 0)
(-18.6244 -1.51755e-05 0)
(-18.565 -1.48739e-05 0)
(-18.5066 -1.45818e-05 0)
(-18.4493 -1.43016e-05 0)
(-18.3929 -1.40264e-05 0)
(-18.3374 -1.3765e-05 0)
(-18.2829 -1.35072e-05 0)
(-18.2292 -1.32602e-05 0)
(-18.1764 -1.30196e-05 0)
(-18.1245 -1.27852e-05 0)
(-18.0733 -1.25604e-05 0)
(-18.0229 -1.23383e-05 0)
(-17.9733 -1.21258e-05 0)
(-17.9244 -1.19182e-05 0)
(-17.8762 -1.17151e-05 0)
(-17.8288 -1.15202e-05 0)
(-17.782 -1.13278e-05 0)
(-17.7359 -1.1142e-05 0)
(-17.6904 -1.09619e-05 0)
(-17.6455 -1.07842e-05 0)
(-17.6013 -1.06133e-05 0)
(-17.5577 -1.04463e-05 0)
(-17.5146 -1.02822e-05 0)
(-17.4722 -1.01242e-05 0)
(-17.4302 -9.9691e-06 0)
(-17.3889 -9.81724e-06 0)
(-17.348 -9.67088e-06 0)
(-17.3077 -9.52679e-06 0)
(-17.2678 -9.38591e-06 0)
(-17.2285 -9.2498e-06 0)
(-17.1896 -9.1158e-06 0)
(-17.1512 -8.98471e-06 0)
(-17.1133 -8.85789e-06 0)
(-17.0758 -8.73312e-06 0)
(-17.0387 -8.61086e-06 0)
(-17.0021 -8.49238e-06 0)
(-16.9659 -8.37612e-06 0)
(-16.9301 -8.26184e-06 0)
(-16.8947 -8.15088e-06 0)
(-16.8597 -8.0424e-06 0)
(-16.8251 -7.93539e-06 0)
(-16.7909 -7.83127e-06 0)
(-16.757 -7.72974e-06 0)
(-16.7235 -7.62957e-06 0)
(-16.6903 -7.53165e-06 0)
(-16.6575 -7.4363e-06 0)
(-16.6251 -7.34251e-06 0)
(-16.5929 -7.25029e-06 0)
(-16.5611 -7.16045e-06 0)
(-16.5296 -7.0725e-06 0)
(-16.4984 -6.98569e-06 0)
(-16.4675 -6.90084e-06 0)
(-16.437 -6.81798e-06 0)
(-16.4067 -6.73646e-06 0)
(-16.3767 -6.65623e-06 0)
(-16.347 -6.57788e-06 0)
(-16.3176 -6.50109e-06 0)
(-16.2884 -6.42541e-06 0)
(-16.2595 -6.35112e-06 0)
(-16.2309 -6.27852e-06 0)
(-16.2026 -6.20716e-06 0)
(-16.1745 -6.13682e-06 0)
(-16.1466 -6.06789e-06 0)
(-16.119 -6.00036e-06 0)
(-16.0917 -5.93391e-06 0)
(-16.0646 -5.86845e-06 0)
(-16.0377 -5.80428e-06 0)
(-16.011 -5.74132e-06 0)
(-15.9846 -5.67934e-06 0)
(-15.9584 -5.61829e-06 0)
(-15.9324 -5.55839e-06 0)
(-15.9066 -5.49958e-06 0)
(-15.8811 -5.44168e-06 0)
(-15.8557 -5.38464e-06 0)
(-15.8306 -5.32862e-06 0)
(-15.8056 -5.27358e-06 0)
(-15.7809 -5.21939e-06 0)
(-15.7563 -5.16598e-06 0)
(-15.732 -5.11349e-06 0)
(-15.7078 -5.06185e-06 0)
(-15.6838 -5.01106e-06 0)
(-15.66 -4.96094e-06 0)
(-15.6364 -4.91169e-06 0)
(-15.613 -4.86317e-06 0)
(-15.5897 -4.81548e-06 0)
(-15.5667 -4.76839e-06 0)
(-15.5437 -4.72211e-06 0)
(-15.521 -4.67646e-06 0)
(-15.4984 -4.63159e-06 0)
(-15.476 -4.58731e-06 0)
(-15.4538 -4.54371e-06 0)
(-15.4317 -4.50074e-06 0)
(-15.4097 -4.45841e-06 0)
(-15.3879 -4.41672e-06 0)
(-15.3663 -4.37558e-06 0)
(-15.3448 -4.33508e-06 0)
(-15.3235 -4.2951e-06 0)
(-15.3023 -4.25575e-06 0)
(-15.2813 -4.21693e-06 0)
(-15.2604 -4.17866e-06 0)
(-15.2396 -4.1409e-06 0)
(-15.219 -4.10373e-06 0)
(-15.1985 -4.06698e-06 0)
(-15.1782 -4.03095e-06 0)
(-15.1579 -3.99506e-06 0)
(-15.1379 -3.96004e-06 0)
(-15.1179 -3.92516e-06 0)
(-15.0981 -3.88868e-06 0)
(-15.0795 -3.85863e-06 0)
(-15.062 -3.8319e-06 0)
(-15.0444 -3.80091e-06 0)
(-15.0269 -3.77055e-06 0)
(-15.0092 -3.7408e-06 0)
(-14.9915 -3.71098e-06 0)
(-14.9738 -3.68149e-06 0)
(-14.956 -3.65209e-06 0)
(-14.9381 -3.62283e-06 0)
(-14.9202 -3.59369e-06 0)
(-14.9023 -3.56471e-06 0)
(-14.8843 -3.53582e-06 0)
(-14.8663 -3.50706e-06 0)
(-14.8482 -3.47841e-06 0)
(-14.8301 -3.44986e-06 0)
(-14.8119 -3.42148e-06 0)
(-14.7937 -3.39318e-06 0)
(-14.7754 -3.36502e-06 0)
(-14.7571 -3.33697e-06 0)
(-14.7387 -3.30902e-06 0)
(-14.7203 -3.28126e-06 0)
(-14.7019 -3.25356e-06 0)
(-14.6834 -3.22603e-06 0)
(-14.6648 -3.19858e-06 0)
(-14.6463 -3.1713e-06 0)
(-14.6277 -3.14414e-06 0)
(-14.609 -3.11709e-06 0)
(-14.5903 -3.09017e-06 0)
(-14.5716 -3.06337e-06 0)
(-14.5528 -3.03672e-06 0)
(-14.534 -3.01022e-06 0)
(-14.5151 -2.98382e-06 0)
(-14.4963 -2.95757e-06 0)
(-14.4773 -2.93143e-06 0)
(-14.4584 -2.90548e-06 0)
(-14.4394 -2.87961e-06 0)
(-14.4203 -2.85392e-06 0)
(-14.4013 -2.82831e-06 0)
(-14.3822 -2.8029e-06 0)
(-14.363 -2.77758e-06 0)
(-14.3439 -2.75245e-06 0)
(-14.3247 -2.72737e-06 0)
(-14.3054 -2.70252e-06 0)
(-14.2862 -2.67774e-06 0)
(-14.2669 -2.65319e-06 0)
(-14.2475 -2.62868e-06 0)
(-14.2282 -2.60438e-06 0)
(-14.2088 -2.58019e-06 0)
(-14.1894 -2.5562e-06 0)
(-14.17 -2.53228e-06 0)
(-14.1505 -2.50855e-06 0)
(-14.131 -2.48493e-06 0)
(-14.1115 -2.46152e-06 0)
(-14.0919 -2.43819e-06 0)
(-14.0724 -2.41502e-06 0)
(-14.0528 -2.39199e-06 0)
(-14.0332 -2.36913e-06 0)
(-14.0135 -2.34641e-06 0)
(-13.9939 -2.32381e-06 0)
(-13.9742 -2.30137e-06 0)
(-13.9545 -2.27909e-06 0)
(-13.9347 -2.25696e-06 0)
(-13.915 -2.23496e-06 0)
(-13.8952 -2.2131e-06 0)
(-13.8754 -2.19141e-06 0)
(-13.8556 -2.16988e-06 0)
(-13.8358 -2.14846e-06 0)
(-13.816 -2.1272e-06 0)
(-13.7961 -2.10607e-06 0)
(-13.7762 -2.08514e-06 0)
(-13.7563 -2.06429e-06 0)
(-13.7364 -2.04364e-06 0)
(-13.7165 -2.0231e-06 0)
(-13.6966 -2.00277e-06 0)
(-13.6766 -1.9825e-06 0)
(-13.6567 -1.96247e-06 0)
(-13.6367 -1.9425e-06 0)
(-13.6167 -1.92277e-06 0)
(-13.5967 -1.90307e-06 0)
(-13.5767 -1.88364e-06 0)
(-13.5567 -1.86424e-06 0)
(-13.5367 -1.84512e-06 0)
(-13.5166 -1.82599e-06 0)
(-13.4966 -1.80715e-06 0)
(-13.4765 -1.78834e-06 0)
(-13.4565 -1.76979e-06 0)
(-13.4364 -1.75126e-06 0)
(-13.4163 -1.733e-06 0)
(-13.3963 -1.71476e-06 0)
(-13.3762 -1.69679e-06 0)
(-13.3561 -1.67884e-06 0)
(-13.336 -1.66116e-06 0)
(-13.3159 -1.64349e-06 0)
(-13.2958 -1.6261e-06 0)
(-13.2757 -1.60871e-06 0)
(-13.2556 -1.5916e-06 0)
(-13.2355 -1.5745e-06 0)
(-13.2154 -1.55767e-06 0)
(-13.1953 -1.54086e-06 0)
(-13.1752 -1.52431e-06 0)
(-13.1551 -1.50778e-06 0)
(-13.135 -1.49149e-06 0)
(-13.1149 -1.47525e-06 0)
(-13.0948 -1.45925e-06 0)
(-13.0747 -1.44329e-06 0)
(-13.0547 -1.42754e-06 0)
(-13.0346 -1.41187e-06 0)
(-13.0145 -1.39639e-06 0)
(-12.9944 -1.38098e-06 0)
(-12.9744 -1.36577e-06 0)
(-12.9543 -1.35066e-06 0)
(-12.9342 -1.3357e-06 0)
(-12.9142 -1.32084e-06 0)
(-12.8941 -1.30616e-06 0)
(-12.8741 -1.29159e-06 0)
(-12.8541 -1.27714e-06 0)
(-12.834 -1.26283e-06 0)
(-12.8141 -1.24865e-06 0)
(-12.794 -1.2346e-06 0)
(-12.7741 -1.22067e-06 0)
(-12.7541 -1.2069e-06 0)
(-12.7341 -1.19321e-06 0)
(-12.7142 -1.1797e-06 0)
(-12.6942 -1.16625e-06 0)
(-12.6743 -1.153e-06 0)
(-12.6544 -1.13982e-06 0)
(-12.6345 -1.12679e-06 0)
(-12.6146 -1.11385e-06 0)
(-12.5947 -1.1011e-06 0)
(-12.5749 -1.08839e-06 0)
(-12.555 -1.07587e-06 0)
(-12.5352 -1.06342e-06 0)
(-12.5154 -1.05117e-06 0)
(-12.4956 -1.03892e-06 0)
(-12.4758 -1.02688e-06 0)
(-12.4561 -1.01491e-06 0)
(-12.4363 -1.00311e-06 0)
(-12.4166 -9.91351e-07 0)
(-12.3969 -9.79791e-07 0)
(-12.3772 -9.68269e-07 0)
(-12.3575 -9.56922e-07 0)
(-12.3379 -9.45639e-07 0)
(-12.3183 -9.34525e-07 0)
(-12.2987 -9.23456e-07 0)
(-12.2791 -9.12551e-07 0)
(-12.2595 -9.01715e-07 0)
(-12.24 -8.91041e-07 0)
(-12.2205 -8.80407e-07 0)
(-12.201 -8.69942e-07 0)
(-12.1815 -8.59544e-07 0)
(-12.1621 -8.49292e-07 0)
(-12.1427 -8.39092e-07 0)
(-12.1232 -8.29052e-07 0)
(-12.1039 -8.19073e-07 0)
(-12.0845 -8.09231e-07 0)
(-12.0652 -7.99464e-07 0)
(-12.0459 -7.8983e-07 0)
(-12.0266 -7.80257e-07 0)
(-12.0074 -7.70825e-07 0)
(-11.9882 -7.61463e-07 0)
(-11.969 -7.52216e-07 0)
(-11.9498 -7.43045e-07 0)
(-11.9307 -7.34004e-07 0)
(-11.9116 -7.25038e-07 0)
(-11.8925 -7.16166e-07 0)
(-11.8734 -7.0739e-07 0)
(-11.8544 -6.98717e-07 0)
(-11.8354 -6.90127e-07 0)
(-11.8165 -6.81633e-07 0)
(-11.7975 -6.73242e-07 0)
(-11.7786 -6.64932e-07 0)
(-11.7598 -6.56714e-07 0)
(-11.7409 -6.4858e-07 0)
(-11.7221 -6.40551e-07 0)
(-11.7033 -6.32582e-07 0)
(-11.6846 -6.24729e-07 0)
(-11.6659 -6.16907e-07 0)
(-11.6472 -6.09271e-07 0)
(-11.6285 -6.01506e-07 0)
(-11.6099 -5.94108e-07 0)
(-11.5913 -5.86772e-07 0)
(-11.5707 -5.77994e-07 0)
(-11.5483 -5.68771e-07 0)
(-11.5262 -5.60506e-07 0)
(-11.5044 -5.52409e-07 0)
(-11.4829 -5.44369e-07 0)
(-11.4618 -5.36543e-07 0)
(-11.4409 -5.28877e-07 0)
(-11.4204 -5.21403e-07 0)
(-11.4001 -5.14088e-07 0)
(-11.3801 -5.06955e-07 0)
(-11.3604 -4.99994e-07 0)
(-11.341 -4.93197e-07 0)
(-11.3218 -4.86548e-07 0)
(-11.3029 -4.80067e-07 0)
(-11.2842 -4.73724e-07 0)
(-11.2658 -4.67527e-07 0)
(-11.2476 -4.61473e-07 0)
(-11.2297 -4.55549e-07 0)
(-11.212 -4.49768e-07 0)
(-11.1945 -4.44097e-07 0)
(-11.1772 -4.38564e-07 0)
(-11.1601 -4.33136e-07 0)
(-11.1433 -4.27843e-07 0)
(-11.1266 -4.22639e-07 0)
(-11.1102 -4.17563e-07 0)
(-11.0939 -4.12577e-07 0)
(-11.0779 -4.07698e-07 0)
(-11.062 -4.02925e-07 0)
(-11.0464 -3.98247e-07 0)
(-11.0309 -3.93659e-07 0)
(-11.0156 -3.89172e-07 0)
(-11.0004 -3.84769e-07 0)
(-10.9854 -3.80451e-07 0)
(-10.9706 -3.76217e-07 0)
(-10.956 -3.72066e-07 0)
(-10.9415 -3.67998e-07 0)
(-10.9272 -3.64008e-07 0)
(-10.913 -3.60092e-07 0)
(-10.899 -3.56253e-07 0)
(-10.8851 -3.52483e-07 0)
(-10.8714 -3.48786e-07 0)
(-10.8578 -3.4516e-07 0)
(-10.8444 -3.41592e-07 0)
(-10.8311 -3.38103e-07 0)
(-10.8179 -3.34664e-07 0)
(-10.8049 -3.31297e-07 0)
(-10.792 -3.27983e-07 0)
(-10.7792 -3.24735e-07 0)
(-10.7666 -3.21538e-07 0)
(-10.754 -3.18404e-07 0)
(-10.7416 -3.15322e-07 0)
(-10.7293 -3.12289e-07 0)
(-10.7172 -3.09317e-07 0)
(-10.7051 -3.06396e-07 0)
(-10.6932 -3.03522e-07 0)
(-10.6814 -3.00695e-07 0)
(-10.6697 -2.97927e-07 0)
(-10.658 -2.95195e-07 0)
(-10.6466 -2.92529e-07 0)
(-10.6351 -2.8987e-07 0)
(-10.6239 -2.87307e-07 0)
(-10.6127 -2.8473e-07 0)
(-10.6016 -2.82271e-07 0)
(-10.5906 -2.79753e-07 0)
(-10.5797 -2.77404e-07 0)
(-10.5688 -2.74928e-07 0)
(-10.5582 -2.72715e-07 0)
(-10.5475 -2.70278e-07 0)
(-10.537 -2.68188e-07 0)
(-10.5265 -2.65768e-07 0)
(-10.5162 -2.63844e-07 0)
(-10.5058 -2.61403e-07 0)
(-10.4957 -2.59657e-07 0)
(-10.4855 -2.57187e-07 0)
(-10.4756 -2.55639e-07 0)
(-10.4655 -2.5312e-07 0)
(-10.4558 -2.51794e-07 0)
(-10.4458 -2.49224e-07 0)
(-10.4363 -2.48122e-07 0)
(-10.4264 -2.45533e-07 0)
(-10.4171 -2.4461e-07 0)
(-10.4072 -2.42104e-07 0)
(-10.3981 -2.41199e-07 0)
(-10.3884 -2.39129e-07 0)
(-10.3794 -2.37694e-07 0)
(-10.3698 -2.37107e-07 0)
(-10.3608 -2.33403e-07 0)
(-10.3515 -2.37499e-07 0)
(-10.3422 -2.25972e-07 0)
(-10.3338 -2.44475e-07 0)
(-10.323 -2.08389e-07 0)
(-10.3176 -2.64888e-07 0)
(-10.3021 -1.72919e-07 0)
(-10.3044 -2.39178e-07 0)
(-10.283 -2.80792e-07 0)
)
;
    }
    symmetry
    {
        type            symmetryPlane;
    }
    frontAndBack
    {
        type            empty;
    }
}


// ************************************************************************* //
