/*--------------------------------*- C++ -*----------------------------------*\
| =========                 |                                                 |
| \\      /  F ield         | OpenFOAM: The Open Source CFD Toolbox           |
|  \\    /   O peration     | Version:  v2012                                 |
|   \\  /    A nd           | Website:  www.openfoam.com                      |
|    \\/     M anipulation  |                                                 |
\*---------------------------------------------------------------------------*/
FoamFile
{
    version     2.0;
    format      ascii;
    class       volScalarField;
    location    "54";
    object      yPlus;
}
// * * * * * * * * * * * * * * * * * * * * * * * * * * * * * * * * * * * * * //

dimensions      [0 0 0 0 0 0 0];


internalField   uniform 0;

boundaryField
{
    inlet
    {
        type            calculated;
        value           uniform 0;
    }
    outlet
    {
        type            calculated;
        value           uniform 0;
    }
    topWall
    {
        type            calculated;
        value           nonuniform List<scalar> 
545
(
0.153276
0.264302
0.339072
0.398571
0.448939
0.49301
0.532372
0.568028
0.600658
0.630754
0.658682
0.684725
0.709109
0.732018
0.753602
0.773988
0.793284
0.811583
0.828964
0.845498
0.861248
0.876268
0.890607
0.90431
0.917417
0.929965
0.941985
0.953509
0.964564
0.975176
0.985368
0.995162
1.00458
1.01364
1.02235
1.03074
1.03883
1.04661
1.05412
1.06135
1.06833
1.07506
1.08156
1.08783
1.09389
1.09974
1.10539
1.11085
1.11612
1.12122
1.12615
1.13092
1.13554
1.14
1.14432
1.1485
1.15255
1.15647
1.16026
1.16394
1.16749
1.17094
1.17428
1.17752
1.18066
1.1837
1.18664
1.1895
1.19227
1.19496
1.19756
1.20009
1.20251
1.20485
1.20718
1.20948
1.21176
1.21403
1.21628
1.21851
1.22072
1.22292
1.2251
1.22726
1.2294
1.23153
1.23364
1.23574
1.23781
1.23988
1.24192
1.24395
1.24597
1.24796
1.24995
1.25192
1.25369
1.25527
1.25686
1.25845
1.26003
1.26161
1.2632
1.26478
1.26637
1.26795
1.26953
1.27111
1.2727
1.27428
1.27586
1.27744
1.27902
1.2806
1.28218
1.28376
1.28534
1.28692
1.28849
1.29007
1.29165
1.29322
1.2948
1.29637
1.29795
1.29952
1.30109
1.30267
1.30424
1.30581
1.30738
1.30895
1.31052
1.31209
1.31366
1.31523
1.31679
1.31836
1.31992
1.32149
1.32305
1.32462
1.32618
1.32774
1.3293
1.33086
1.33242
1.33398
1.33554
1.33709
1.33865
1.3402
1.34176
1.34331
1.34486
1.34641
1.34796
1.34951
1.35106
1.35261
1.35416
1.3557
1.35725
1.35879
1.36033
1.36187
1.36341
1.36495
1.36649
1.36803
1.36956
1.3711
1.37263
1.37416
1.37569
1.37722
1.37875
1.38028
1.38181
1.38333
1.38486
1.38638
1.3879
1.38942
1.39094
1.39245
1.39397
1.39548
1.397
1.39851
1.40002
1.40153
1.40303
1.40454
1.40604
1.40755
1.40905
1.41055
1.41204
1.41354
1.41504
1.41653
1.41802
1.41951
1.421
1.42249
1.42397
1.42545
1.42693
1.42841
1.42989
1.43137
1.43284
1.43432
1.43579
1.43725
1.43872
1.44019
1.44165
1.44311
1.44457
1.44603
1.44748
1.44894
1.45039
1.45184
1.45329
1.45473
1.45617
1.45762
1.45905
1.46049
1.46193
1.46336
1.46479
1.46622
1.46764
1.46907
1.47049
1.47191
1.47333
1.47474
1.47615
1.47756
1.47897
1.48038
1.48178
1.48318
1.48458
1.48597
1.48736
1.48875
1.49014
1.49153
1.49291
1.49429
1.49567
1.49704
1.49842
1.49979
1.50115
1.50252
1.50388
1.50524
1.50659
1.50795
1.5093
1.51065
1.51199
1.51326
1.51445
1.51566
1.51687
1.51809
1.51931
1.52055
1.52179
1.52304
1.5243
1.52557
1.52685
1.52813
1.52942
1.53072
1.53203
1.53335
1.53467
1.536
1.53734
1.53868
1.54004
1.5414
1.54277
1.54414
1.54553
1.54692
1.54832
1.54972
1.55114
1.55256
1.55398
1.55542
1.55686
1.5583
1.55976
1.56122
1.56269
1.56416
1.56564
1.56712
1.56862
1.57011
1.57162
1.57313
1.57464
1.57616
1.57769
1.57922
1.58075
1.58229
1.58384
1.58538
1.58694
1.5885
1.59006
1.59162
1.59319
1.59476
1.59634
1.59792
1.5995
1.60108
1.60267
1.60426
1.60585
1.60744
1.60903
1.61063
1.61222
1.61382
1.61542
1.61701
1.61861
1.62021
1.6218
1.6234
1.62499
1.62658
1.62817
1.62976
1.63135
1.63293
1.63451
1.63609
1.63766
1.63923
1.64079
1.64235
1.6439
1.64545
1.64699
1.64853
1.65006
1.65158
1.65309
1.6546
1.6561
1.65759
1.65906
1.66054
1.66199
1.66344
1.66488
1.66631
1.66772
1.66913
1.67052
1.67189
1.67326
1.67461
1.67594
1.67726
1.67856
1.67985
1.68112
1.68238
1.68361
1.68483
1.68603
1.68722
1.68838
1.68952
1.69064
1.69174
1.69282
1.69388
1.69491
1.69593
1.69691
1.69788
1.69882
1.69974
1.70063
1.70149
1.70233
1.70314
1.70393
1.70468
1.70541
1.70612
1.70679
1.70743
1.70804
1.70863
1.70918
1.7097
1.71019
1.71065
1.71108
1.71148
1.71184
1.71217
1.71246
1.71273
1.71296
1.71315
1.71331
1.71344
1.71353
1.71359
1.71361
1.7136
1.71355
1.71347
1.71334
1.71319
1.713
1.71277
1.71251
1.71221
1.71188
1.71151
1.7111
1.71066
1.71018
1.70967
1.70912
1.70854
1.70792
1.70728
1.70651
1.70563
1.7047
1.70375
1.70276
1.70175
1.70069
1.69962
1.69852
1.6974
1.69625
1.69508
1.6939
1.6927
1.69148
1.69025
1.689
1.68775
1.68648
1.6852
1.68392
1.68263
1.68133
1.68004
1.67873
1.67743
1.67613
1.67483
1.67352
1.67222
1.67092
1.66963
1.66833
1.66705
1.66577
1.6645
1.66323
1.66198
1.66073
1.6595
1.65827
1.65705
1.65585
1.65466
1.65348
1.65232
1.65117
1.65004
1.64891
1.64781
1.64672
1.64566
1.6446
1.64357
1.64255
1.64156
1.64058
1.63962
1.63868
1.63777
1.63687
1.636
1.63514
1.63432
1.63351
1.63273
1.63196
1.63123
1.63051
1.62983
1.62916
1.62853
1.62791
1.62732
1.62676
1.62623
1.62571
1.62523
1.62477
1.62435
1.62394
1.62357
1.62322
1.6229
1.62261
1.62234
1.62211
1.6219
1.62172
1.62157
1.62145
1.62135
1.62129
1.62126
1.62123
)
;
    }
    bottomWall
    {
        type            calculated;
        value           nonuniform List<scalar> 
449
(
0.00273731
0.00479842
0.00537287
0.00532608
0.0052555
0.00515974
0.0050625
0.00497147
0.00488791
0.00481155
0.00474168
0.00467761
0.00461865
0.00456406
0.00451332
0.00446604
0.00442181
0.00438032
0.00434124
0.00430433
0.0042694
0.00423627
0.00420476
0.00417474
0.00414608
0.00411867
0.00409243
0.00406725
0.00404307
0.0040198
0.0039974
0.0039758
0.00395495
0.0039348
0.00391532
0.00389645
0.00387818
0.00386045
0.00384325
0.00382653
0.00381029
0.00379447
0.00377908
0.00376409
0.00374948
0.00373523
0.00372134
0.00370777
0.00369454
0.00368161
0.00366898
0.00365663
0.00364455
0.00363274
0.00362116
0.00360983
0.00359873
0.00358785
0.00357717
0.00356671
0.00355643
0.00354635
0.00353644
0.00352671
0.00351715
0.00350775
0.00349851
0.00348942
0.00348048
0.00347168
0.00346302
0.0034545
0.00344611
0.00343784
0.0034297
0.00342168
0.00341377
0.00340598
0.0033983
0.00339072
0.00338325
0.00337589
0.00336862
0.00336145
0.00335437
0.00334739
0.00334049
0.00333369
0.00332697
0.00332033
0.00331378
0.0033073
0.0033009
0.00329458
0.00328834
0.00328216
0.00327606
0.00327002
0.00326406
0.00325816
0.00325232
0.00324655
0.00324084
0.0032352
0.00322961
0.00322408
0.00321861
0.00321319
0.00320783
0.00320252
0.00319727
0.00319206
0.00318691
0.00318181
0.00317676
0.00317175
0.00316679
0.00316188
0.00315701
0.00315219
0.00314741
0.00314268
0.00313798
0.00313333
0.00312872
0.00312415
0.00311962
0.00311512
0.00311067
0.00310625
0.00310187
0.00309752
0.00309321
0.00308894
0.0030847
0.00308049
0.00307632
0.00307217
0.00306807
0.00306399
0.00305994
0.00305593
0.00305195
0.00304799
0.00304407
0.00304017
0.0030363
0.00303246
0.00302865
0.00302487
0.00302111
0.00301738
0.00301367
0.00300999
0.00300634
0.00300271
0.00299911
0.00299553
0.00299197
0.00298844
0.00298493
0.00298145
0.00297798
0.00297454
0.00297113
0.00296773
0.00296436
0.002961
0.00295767
0.00295436
0.00295107
0.0029478
0.00294455
0.0029415
0.00293863
0.00293575
0.00293286
0.00292997
0.00292706
0.00292415
0.00292122
0.00291829
0.00291535
0.0029124
0.00290944
0.00290647
0.0029035
0.00290051
0.00289752
0.00289452
0.00289151
0.00288849
0.00288546
0.00288243
0.00287938
0.00287633
0.00287328
0.00287021
0.00286714
0.00286405
0.00286096
0.00285787
0.00285476
0.00285165
0.00284853
0.00284541
0.00284227
0.00283913
0.00283599
0.00283283
0.00282967
0.00282651
0.00282333
0.00282015
0.00281697
0.00281377
0.00281057
0.00280737
0.00280416
0.00280094
0.00279772
0.00279449
0.00279126
0.00278802
0.00278477
0.00278152
0.00277827
0.00277501
0.00277174
0.00276847
0.00276519
0.00276191
0.00275862
0.00275534
0.00275204
0.00274874
0.00274544
0.00274213
0.00273882
0.0027355
0.00273218
0.00272886
0.00272553
0.0027222
0.00271886
0.00271552
0.00271218
0.00270883
0.00270548
0.00270213
0.00269878
0.00269542
0.00269206
0.00268869
0.00268533
0.00268196
0.00267859
0.00267521
0.00267184
0.00266846
0.00266508
0.00266169
0.00265831
0.00265492
0.00265153
0.00264814
0.00264475
0.00264136
0.00263796
0.00263456
0.00263117
0.00262777
0.00262437
0.00262097
0.00261757
0.00261416
0.00261076
0.00260735
0.00260395
0.00260054
0.00259714
0.00259373
0.00259033
0.00258692
0.00258352
0.00258011
0.00257671
0.0025733
0.0025699
0.00256649
0.00256309
0.00255968
0.00255628
0.00255287
0.00254947
0.00254607
0.00254267
0.00253927
0.00253587
0.00253247
0.00252908
0.00252568
0.00252229
0.0025189
0.00251551
0.00251212
0.00250874
0.00250535
0.00250197
0.00249858
0.00249521
0.00249183
0.00248846
0.00248508
0.00248171
0.00247834
0.00247498
0.00247161
0.00246826
0.0024649
0.00246154
0.00245819
0.00245484
0.00245149
0.00244815
0.00244481
0.00244147
0.00243814
0.00243481
0.00243148
0.00242816
0.00242483
0.00242152
0.0024182
0.00241489
0.00241159
0.00240828
0.00240498
0.00240169
0.0023984
0.00239511
0.00239183
0.00238855
0.00238527
0.00238201
0.00237874
0.00237548
0.00237222
0.00236897
0.00236572
0.00236247
0.00235923
0.002356
0.00235277
0.00234918
0.00234528
0.00234143
0.00233764
0.0023339
0.00233021
0.00232658
0.00232299
0.00231946
0.00231597
0.00231253
0.00230914
0.00230579
0.00230248
0.00229922
0.002296
0.00229282
0.00228968
0.00228658
0.00228352
0.0022805
0.0022775
0.00227456
0.00227164
0.00226876
0.0022659
0.00226309
0.0022603
0.00225756
0.00225483
0.00225215
0.00224948
0.00224685
0.00224425
0.00224168
0.00223913
0.00223661
0.00223411
0.00223165
0.00222921
0.00222679
0.0022244
0.00222204
0.00221969
0.00221737
0.00221507
0.0022128
0.00221055
0.00220832
0.00220611
0.00220392
0.00220175
0.00219961
0.00219748
0.00219537
0.00219328
0.00219121
0.00218916
0.00218713
0.00218511
0.00218312
0.00218113
0.00217918
0.00217723
0.0021753
0.00217338
0.00217149
0.0021696
0.00216775
0.00216589
0.00216406
0.00216223
0.00216044
0.00215862
0.00215687
0.00215508
0.00215336
0.00215158
0.0021499
0.00214814
0.00214649
0.00214474
0.00214313
0.00214138
0.00213982
0.00213808
0.00213653
0.00213482
0.00213326
0.00213164
0.00212994
0.00212864
0.0021264
0.00212606
0.00212287
)
;
    }
    symmetry
    {
        type            symmetryPlane;
    }
    frontAndBack
    {
        type            empty;
    }
}


// ************************************************************************* //
