/*--------------------------------*- C++ -*----------------------------------*\
| =========                 |                                                 |
| \\      /  F ield         | OpenFOAM: The Open Source CFD Toolbox           |
|  \\    /   O peration     | Version:  v2012                                 |
|   \\  /    A nd           | Website:  www.openfoam.com                      |
|    \\/     M anipulation  |                                                 |
\*---------------------------------------------------------------------------*/
FoamFile
{
    version     2.0;
    format      ascii;
    class       volVectorField;
    location    "45.5";
    object      wallShearStress;
}
// * * * * * * * * * * * * * * * * * * * * * * * * * * * * * * * * * * * * * //

dimensions      [0 2 -2 0 0 0 0];


internalField   uniform (0 0 0);

boundaryField
{
    inlet
    {
        type            calculated;
        value           uniform (0 0 0);
    }
    outlet
    {
        type            calculated;
        value           uniform (0 0 0);
    }
    topWall
    {
        type            calculated;
        value           nonuniform List<vector> 
545
(
(1.48722e-08 -1.04687e-08 0)
(1.48654e-08 -2.92876e-08 0)
(1.48516e-08 -4.88549e-08 0)
(1.48312e-08 -6.78483e-08 0)
(1.4805e-08 -8.60206e-08 0)
(1.47738e-08 -1.03603e-07 0)
(1.47378e-08 -1.20744e-07 0)
(1.46976e-08 -1.37434e-07 0)
(1.46534e-08 -1.53635e-07 0)
(1.46057e-08 -1.69345e-07 0)
(1.45548e-08 -1.84586e-07 0)
(1.45011e-08 -1.99374e-07 0)
(1.44449e-08 -2.13719e-07 0)
(1.43864e-08 -2.27631e-07 0)
(1.4326e-08 -2.4112e-07 0)
(1.42638e-08 -2.54196e-07 0)
(1.42002e-08 -2.66872e-07 0)
(1.41354e-08 -2.79158e-07 0)
(1.40694e-08 -2.91065e-07 0)
(1.40027e-08 -3.02603e-07 0)
(1.39352e-08 -3.13783e-07 0)
(1.38673e-08 -3.24616e-07 0)
(1.37989e-08 -3.35111e-07 0)
(1.37304e-08 -3.45279e-07 0)
(1.36617e-08 -3.5513e-07 0)
(1.35931e-08 -3.64673e-07 0)
(1.35245e-08 -3.73917e-07 0)
(1.34562e-08 -3.82872e-07 0)
(1.33883e-08 -3.91547e-07 0)
(1.33207e-08 -3.99951e-07 0)
(1.32535e-08 -4.08091e-07 0)
(1.31869e-08 -4.15977e-07 0)
(1.31209e-08 -4.23617e-07 0)
(1.30556e-08 -4.31018e-07 0)
(1.29909e-08 -4.38188e-07 0)
(1.2927e-08 -4.45135e-07 0)
(1.28639e-08 -4.51865e-07 0)
(1.28016e-08 -4.58386e-07 0)
(1.27402e-08 -4.64704e-07 0)
(1.26796e-08 -4.70827e-07 0)
(1.26199e-08 -4.7676e-07 0)
(1.25611e-08 -4.82509e-07 0)
(1.25033e-08 -4.88081e-07 0)
(1.24464e-08 -4.93481e-07 0)
(1.23905e-08 -4.98715e-07 0)
(1.23355e-08 -5.03788e-07 0)
(1.22816e-08 -5.08705e-07 0)
(1.22285e-08 -5.13472e-07 0)
(1.21765e-08 -5.18094e-07 0)
(1.21254e-08 -5.22575e-07 0)
(1.20753e-08 -5.26919e-07 0)
(1.20262e-08 -5.31131e-07 0)
(1.19781e-08 -5.35216e-07 0)
(1.19309e-08 -5.39177e-07 0)
(1.18846e-08 -5.43019e-07 0)
(1.18393e-08 -5.46745e-07 0)
(1.1795e-08 -5.50359e-07 0)
(1.17516e-08 -5.53865e-07 0)
(1.1709e-08 -5.57266e-07 0)
(1.16675e-08 -5.60565e-07 0)
(1.16268e-08 -5.63767e-07 0)
(1.15869e-08 -5.66872e-07 0)
(1.1548e-08 -5.69886e-07 0)
(1.15099e-08 -5.72811e-07 0)
(1.14727e-08 -5.75649e-07 0)
(1.14363e-08 -5.78403e-07 0)
(1.14008e-08 -5.81076e-07 0)
(1.1366e-08 -5.83671e-07 0)
(1.1332e-08 -5.8619e-07 0)
(1.12989e-08 -5.88635e-07 0)
(1.12664e-08 -5.91009e-07 0)
(1.12349e-08 -5.93311e-07 0)
(1.12044e-08 -5.95523e-07 0)
(1.11743e-08 -5.97667e-07 0)
(1.11446e-08 -5.99784e-07 0)
(1.11149e-08 -6.0189e-07 0)
(1.10854e-08 -6.03983e-07 0)
(1.10559e-08 -6.06062e-07 0)
(1.10264e-08 -6.08124e-07 0)
(1.09971e-08 -6.10172e-07 0)
(1.09677e-08 -6.12204e-07 0)
(1.09385e-08 -6.14223e-07 0)
(1.09093e-08 -6.16226e-07 0)
(1.08801e-08 -6.18215e-07 0)
(1.0851e-08 -6.2019e-07 0)
(1.0822e-08 -6.2215e-07 0)
(1.07931e-08 -6.24097e-07 0)
(1.07642e-08 -6.26029e-07 0)
(1.07353e-08 -6.27947e-07 0)
(1.07066e-08 -6.29851e-07 0)
(1.06779e-08 -6.31742e-07 0)
(1.06493e-08 -6.33618e-07 0)
(1.06207e-08 -6.35482e-07 0)
(1.05923e-08 -6.3733e-07 0)
(1.05636e-08 -6.3917e-07 0)
(1.05364e-08 -6.40977e-07 0)
(1.05113e-08 -6.4263e-07 0)
(1.0487e-08 -6.44126e-07 0)
(1.04636e-08 -6.45581e-07 0)
(1.04403e-08 -6.47041e-07 0)
(1.04169e-08 -6.48513e-07 0)
(1.03935e-08 -6.49988e-07 0)
(1.037e-08 -6.5146e-07 0)
(1.03464e-08 -6.52931e-07 0)
(1.03227e-08 -6.54402e-07 0)
(1.02989e-08 -6.55873e-07 0)
(1.0275e-08 -6.57345e-07 0)
(1.0251e-08 -6.58817e-07 0)
(1.02269e-08 -6.60288e-07 0)
(1.02027e-08 -6.6176e-07 0)
(1.01785e-08 -6.63231e-07 0)
(1.01541e-08 -6.64703e-07 0)
(1.01297e-08 -6.66175e-07 0)
(1.01051e-08 -6.67646e-07 0)
(1.00805e-08 -6.69117e-07 0)
(1.00557e-08 -6.70588e-07 0)
(1.00309e-08 -6.72059e-07 0)
(1.0006e-08 -6.7353e-07 0)
(9.98097e-09 -6.75001e-07 0)
(9.95586e-09 -6.76471e-07 0)
(9.93065e-09 -6.77941e-07 0)
(9.90535e-09 -6.79411e-07 0)
(9.87995e-09 -6.80881e-07 0)
(9.85446e-09 -6.8235e-07 0)
(9.82888e-09 -6.83819e-07 0)
(9.8032e-09 -6.85288e-07 0)
(9.77743e-09 -6.86756e-07 0)
(9.75156e-09 -6.88223e-07 0)
(9.7256e-09 -6.89691e-07 0)
(9.69954e-09 -6.91158e-07 0)
(9.67339e-09 -6.92624e-07 0)
(9.64714e-09 -6.9409e-07 0)
(9.62079e-09 -6.95555e-07 0)
(9.59436e-09 -6.9702e-07 0)
(9.56782e-09 -6.98484e-07 0)
(9.5412e-09 -6.99947e-07 0)
(9.51448e-09 -7.0141e-07 0)
(9.48766e-09 -7.02872e-07 0)
(9.46075e-09 -7.04334e-07 0)
(9.43374e-09 -7.05794e-07 0)
(9.40664e-09 -7.07254e-07 0)
(9.37944e-09 -7.08714e-07 0)
(9.35215e-09 -7.10172e-07 0)
(9.32476e-09 -7.1163e-07 0)
(9.29728e-09 -7.13086e-07 0)
(9.2697e-09 -7.14542e-07 0)
(9.24203e-09 -7.15997e-07 0)
(9.21427e-09 -7.17451e-07 0)
(9.18641e-09 -7.18904e-07 0)
(9.15845e-09 -7.20356e-07 0)
(9.13041e-09 -7.21807e-07 0)
(9.10226e-09 -7.23257e-07 0)
(9.07402e-09 -7.24706e-07 0)
(9.04569e-09 -7.26154e-07 0)
(9.01727e-09 -7.27601e-07 0)
(8.98875e-09 -7.29046e-07 0)
(8.96013e-09 -7.30491e-07 0)
(8.93142e-09 -7.31934e-07 0)
(8.90262e-09 -7.33376e-07 0)
(8.87372e-09 -7.34816e-07 0)
(8.84473e-09 -7.36255e-07 0)
(8.81565e-09 -7.37693e-07 0)
(8.78648e-09 -7.3913e-07 0)
(8.75721e-09 -7.40565e-07 0)
(8.72784e-09 -7.41999e-07 0)
(8.69839e-09 -7.43431e-07 0)
(8.66884e-09 -7.44862e-07 0)
(8.6392e-09 -7.46291e-07 0)
(8.60946e-09 -7.47719e-07 0)
(8.57964e-09 -7.49145e-07 0)
(8.54972e-09 -7.5057e-07 0)
(8.51971e-09 -7.51993e-07 0)
(8.48961e-09 -7.53414e-07 0)
(8.45941e-09 -7.54834e-07 0)
(8.42913e-09 -7.56252e-07 0)
(8.39875e-09 -7.57668e-07 0)
(8.36828e-09 -7.59082e-07 0)
(8.33772e-09 -7.60495e-07 0)
(8.30707e-09 -7.61905e-07 0)
(8.27633e-09 -7.63314e-07 0)
(8.2455e-09 -7.64721e-07 0)
(8.21458e-09 -7.66126e-07 0)
(8.18357e-09 -7.67528e-07 0)
(8.15247e-09 -7.68929e-07 0)
(8.12129e-09 -7.70328e-07 0)
(8.09001e-09 -7.71725e-07 0)
(8.05864e-09 -7.73119e-07 0)
(8.02719e-09 -7.74512e-07 0)
(7.99564e-09 -7.75902e-07 0)
(7.96401e-09 -7.7729e-07 0)
(7.93229e-09 -7.78676e-07 0)
(7.90049e-09 -7.80059e-07 0)
(7.8686e-09 -7.81441e-07 0)
(7.83662e-09 -7.82819e-07 0)
(7.80455e-09 -7.84196e-07 0)
(7.7724e-09 -7.8557e-07 0)
(7.74016e-09 -7.86942e-07 0)
(7.70784e-09 -7.88311e-07 0)
(7.67543e-09 -7.89677e-07 0)
(7.64294e-09 -7.91041e-07 0)
(7.61036e-09 -7.92403e-07 0)
(7.5777e-09 -7.93761e-07 0)
(7.54496e-09 -7.95118e-07 0)
(7.51213e-09 -7.96471e-07 0)
(7.47922e-09 -7.97822e-07 0)
(7.44623e-09 -7.9917e-07 0)
(7.41315e-09 -8.00515e-07 0)
(7.37999e-09 -8.01857e-07 0)
(7.34676e-09 -8.03196e-07 0)
(7.31344e-09 -8.04533e-07 0)
(7.28004e-09 -8.05866e-07 0)
(7.24656e-09 -8.07197e-07 0)
(7.213e-09 -8.08525e-07 0)
(7.17937e-09 -8.09849e-07 0)
(7.14565e-09 -8.11171e-07 0)
(7.11186e-09 -8.12489e-07 0)
(7.07799e-09 -8.13804e-07 0)
(7.04404e-09 -8.15116e-07 0)
(7.01001e-09 -8.16424e-07 0)
(6.97591e-09 -8.1773e-07 0)
(6.94174e-09 -8.19032e-07 0)
(6.90749e-09 -8.20331e-07 0)
(6.87316e-09 -8.21626e-07 0)
(6.83876e-09 -8.22918e-07 0)
(6.80429e-09 -8.24206e-07 0)
(6.76974e-09 -8.25491e-07 0)
(6.73512e-09 -8.26773e-07 0)
(6.70043e-09 -8.28051e-07 0)
(6.66567e-09 -8.29325e-07 0)
(6.63084e-09 -8.30596e-07 0)
(6.59594e-09 -8.31862e-07 0)
(6.56096e-09 -8.33126e-07 0)
(6.52592e-09 -8.34385e-07 0)
(6.49082e-09 -8.35641e-07 0)
(6.45564e-09 -8.36892e-07 0)
(6.4204e-09 -8.3814e-07 0)
(6.38509e-09 -8.39384e-07 0)
(6.34971e-09 -8.40624e-07 0)
(6.31427e-09 -8.41861e-07 0)
(6.27877e-09 -8.43093e-07 0)
(6.2432e-09 -8.44321e-07 0)
(6.20757e-09 -8.45544e-07 0)
(6.17187e-09 -8.46764e-07 0)
(6.13612e-09 -8.4798e-07 0)
(6.1003e-09 -8.49191e-07 0)
(6.06443e-09 -8.50398e-07 0)
(6.02849e-09 -8.51601e-07 0)
(5.9925e-09 -8.52799e-07 0)
(5.95645e-09 -8.53993e-07 0)
(5.92034e-09 -8.55183e-07 0)
(5.88417e-09 -8.56368e-07 0)
(5.84795e-09 -8.57549e-07 0)
(5.81167e-09 -8.58725e-07 0)
(5.77534e-09 -8.59896e-07 0)
(5.73896e-09 -8.61063e-07 0)
(5.70252e-09 -8.62225e-07 0)
(5.66603e-09 -8.63383e-07 0)
(5.62949e-09 -8.64536e-07 0)
(5.5929e-09 -8.65684e-07 0)
(5.55626e-09 -8.66827e-07 0)
(5.51958e-09 -8.67966e-07 0)
(5.48284e-09 -8.69099e-07 0)
(5.44606e-09 -8.70228e-07 0)
(5.40923e-09 -8.71352e-07 0)
(5.37236e-09 -8.7247e-07 0)
(5.33543e-09 -8.73584e-07 0)
(5.29852e-09 -8.74692e-07 0)
(5.26131e-09 -8.75797e-07 0)
(5.22517e-09 -8.76889e-07 0)
(5.19055e-09 -8.77925e-07 0)
(5.15645e-09 -8.78906e-07 0)
(5.12277e-09 -8.79876e-07 0)
(5.08895e-09 -8.80852e-07 0)
(5.05484e-09 -8.81836e-07 0)
(5.02041e-09 -8.82825e-07 0)
(4.98566e-09 -8.83817e-07 0)
(4.95058e-09 -8.84812e-07 0)
(4.91516e-09 -8.85811e-07 0)
(4.87941e-09 -8.86814e-07 0)
(4.84332e-09 -8.8782e-07 0)
(4.8069e-09 -8.88829e-07 0)
(4.77014e-09 -8.89842e-07 0)
(4.73303e-09 -8.90858e-07 0)
(4.69558e-09 -8.91877e-07 0)
(4.65779e-09 -8.92898e-07 0)
(4.61965e-09 -8.93923e-07 0)
(4.58117e-09 -8.94949e-07 0)
(4.54233e-09 -8.95979e-07 0)
(4.50314e-09 -8.9701e-07 0)
(4.46361e-09 -8.98044e-07 0)
(4.42371e-09 -8.9908e-07 0)
(4.38347e-09 -9.00117e-07 0)
(4.34287e-09 -9.01156e-07 0)
(4.30191e-09 -9.02197e-07 0)
(4.2606e-09 -9.03239e-07 0)
(4.21892e-09 -9.04282e-07 0)
(4.17689e-09 -9.05326e-07 0)
(4.1345e-09 -9.06371e-07 0)
(4.09175e-09 -9.07416e-07 0)
(4.04863e-09 -9.08461e-07 0)
(4.00516e-09 -9.09507e-07 0)
(3.96132e-09 -9.10552e-07 0)
(3.91712e-09 -9.11598e-07 0)
(3.87256e-09 -9.12642e-07 0)
(3.82763e-09 -9.13686e-07 0)
(3.78235e-09 -9.14729e-07 0)
(3.7367e-09 -9.1577e-07 0)
(3.69069e-09 -9.1681e-07 0)
(3.64432e-09 -9.17849e-07 0)
(3.59758e-09 -9.18885e-07 0)
(3.55049e-09 -9.19919e-07 0)
(3.50304e-09 -9.2095e-07 0)
(3.45523e-09 -9.21978e-07 0)
(3.40706e-09 -9.23003e-07 0)
(3.35853e-09 -9.24025e-07 0)
(3.30965e-09 -9.25043e-07 0)
(3.26042e-09 -9.26057e-07 0)
(3.21084e-09 -9.27066e-07 0)
(3.16091e-09 -9.28071e-07 0)
(3.11063e-09 -9.2907e-07 0)
(3.06e-09 -9.30065e-07 0)
(3.00903e-09 -9.31053e-07 0)
(2.95773e-09 -9.32035e-07 0)
(2.90608e-09 -9.33011e-07 0)
(2.8541e-09 -9.3398e-07 0)
(2.80179e-09 -9.34942e-07 0)
(2.74915e-09 -9.35896e-07 0)
(2.69619e-09 -9.36842e-07 0)
(2.64291e-09 -9.3778e-07 0)
(2.58931e-09 -9.38709e-07 0)
(2.5354e-09 -9.39628e-07 0)
(2.48119e-09 -9.40538e-07 0)
(2.42667e-09 -9.41438e-07 0)
(2.37185e-09 -9.42328e-07 0)
(2.31674e-09 -9.43206e-07 0)
(2.26135e-09 -9.44073e-07 0)
(2.20567e-09 -9.44929e-07 0)
(2.14973e-09 -9.45772e-07 0)
(2.09351e-09 -9.46602e-07 0)
(2.03703e-09 -9.47418e-07 0)
(1.98029e-09 -9.48221e-07 0)
(1.92331e-09 -9.4901e-07 0)
(1.86609e-09 -9.49784e-07 0)
(1.80864e-09 -9.50542e-07 0)
(1.75096e-09 -9.51285e-07 0)
(1.69306e-09 -9.52011e-07 0)
(1.63496e-09 -9.52721e-07 0)
(1.57666e-09 -9.53413e-07 0)
(1.51817e-09 -9.54087e-07 0)
(1.4595e-09 -9.54743e-07 0)
(1.40066e-09 -9.55379e-07 0)
(1.34166e-09 -9.55996e-07 0)
(1.28251e-09 -9.56592e-07 0)
(1.22323e-09 -9.57168e-07 0)
(1.16381e-09 -9.57723e-07 0)
(1.10429e-09 -9.58255e-07 0)
(1.04465e-09 -9.58765e-07 0)
(9.84932e-10 -9.59252e-07 0)
(9.25131e-10 -9.59714e-07 0)
(8.65264e-10 -9.60153e-07 0)
(8.05344e-10 -9.60566e-07 0)
(7.45386e-10 -9.60954e-07 0)
(6.85403e-10 -9.61316e-07 0)
(6.25409e-10 -9.61651e-07 0)
(5.65418e-10 -9.61958e-07 0)
(5.05447e-10 -9.62237e-07 0)
(4.4551e-10 -9.62488e-07 0)
(3.85622e-10 -9.62708e-07 0)
(3.258e-10 -9.62899e-07 0)
(2.66059e-10 -9.6306e-07 0)
(2.06417e-10 -9.63189e-07 0)
(1.46891e-10 -9.63286e-07 0)
(8.74962e-11 -9.6335e-07 0)
(2.82519e-11 -9.63381e-07 0)
(-3.08246e-11 -9.63379e-07 0)
(-8.97153e-11 -9.63341e-07 0)
(-1.48402e-10 -9.63269e-07 0)
(-2.06865e-10 -9.63161e-07 0)
(-2.65087e-10 -9.63017e-07 0)
(-3.23048e-10 -9.62835e-07 0)
(-3.80728e-10 -9.62616e-07 0)
(-4.38108e-10 -9.62359e-07 0)
(-4.95168e-10 -9.62062e-07 0)
(-5.51888e-10 -9.61727e-07 0)
(-6.08247e-10 -9.61351e-07 0)
(-6.64226e-10 -9.60935e-07 0)
(-7.19803e-10 -9.60477e-07 0)
(-7.74958e-10 -9.59977e-07 0)
(-8.29669e-10 -9.59436e-07 0)
(-8.83916e-10 -9.58851e-07 0)
(-9.37677e-10 -9.58223e-07 0)
(-9.90932e-10 -9.5755e-07 0)
(-1.04366e-09 -9.56834e-07 0)
(-1.09583e-09 -9.56072e-07 0)
(-1.14744e-09 -9.55265e-07 0)
(-1.19845e-09 -9.54411e-07 0)
(-1.24885e-09 -9.53512e-07 0)
(-1.29862e-09 -9.52565e-07 0)
(-1.34773e-09 -9.51571e-07 0)
(-1.39616e-09 -9.50529e-07 0)
(-1.44389e-09 -9.4944e-07 0)
(-1.4909e-09 -9.48301e-07 0)
(-1.53717e-09 -9.47114e-07 0)
(-1.58268e-09 -9.45878e-07 0)
(-1.6274e-09 -9.44592e-07 0)
(-1.67133e-09 -9.43257e-07 0)
(-1.71443e-09 -9.41871e-07 0)
(-1.75669e-09 -9.40435e-07 0)
(-1.79809e-09 -9.38949e-07 0)
(-1.83862e-09 -9.37411e-07 0)
(-1.87824e-09 -9.35823e-07 0)
(-1.91694e-09 -9.34184e-07 0)
(-1.95471e-09 -9.32494e-07 0)
(-1.99153e-09 -9.30753e-07 0)
(-2.02738e-09 -9.2896e-07 0)
(-2.06224e-09 -9.27116e-07 0)
(-2.0961e-09 -9.25221e-07 0)
(-2.12895e-09 -9.23275e-07 0)
(-2.16076e-09 -9.21277e-07 0)
(-2.19153e-09 -9.19228e-07 0)
(-2.22124e-09 -9.17129e-07 0)
(-2.24987e-09 -9.14978e-07 0)
(-2.27742e-09 -9.12777e-07 0)
(-2.30388e-09 -9.10525e-07 0)
(-2.32923e-09 -9.08224e-07 0)
(-2.35346e-09 -9.05872e-07 0)
(-2.37656e-09 -9.03471e-07 0)
(-2.39853e-09 -9.01021e-07 0)
(-2.41936e-09 -8.98521e-07 0)
(-2.43904e-09 -8.95974e-07 0)
(-2.45756e-09 -8.93379e-07 0)
(-2.47492e-09 -8.90736e-07 0)
(-2.49112e-09 -8.88047e-07 0)
(-2.50615e-09 -8.85311e-07 0)
(-2.52e-09 -8.8253e-07 0)
(-2.53268e-09 -8.79703e-07 0)
(-2.54419e-09 -8.76832e-07 0)
(-2.55452e-09 -8.73918e-07 0)
(-2.56368e-09 -8.70961e-07 0)
(-2.57166e-09 -8.67961e-07 0)
(-2.57848e-09 -8.64921e-07 0)
(-2.58413e-09 -8.6184e-07 0)
(-2.58861e-09 -8.58719e-07 0)
(-2.59194e-09 -8.5556e-07 0)
(-2.59411e-09 -8.52363e-07 0)
(-2.59514e-09 -8.49129e-07 0)
(-2.59504e-09 -8.4586e-07 0)
(-2.59379e-09 -8.42554e-07 0)
(-2.59148e-09 -8.39221e-07 0)
(-2.58782e-09 -8.35814e-07 0)
(-2.58257e-09 -8.32053e-07 0)
(-2.57568e-09 -8.27935e-07 0)
(-2.56714e-09 -8.23743e-07 0)
(-2.55715e-09 -8.19576e-07 0)
(-2.54583e-09 -8.15449e-07 0)
(-2.5333e-09 -8.11347e-07 0)
(-2.5196e-09 -8.0726e-07 0)
(-2.50481e-09 -8.03194e-07 0)
(-2.48898e-09 -7.99153e-07 0)
(-2.47218e-09 -7.95139e-07 0)
(-2.45447e-09 -7.91154e-07 0)
(-2.43589e-09 -7.87198e-07 0)
(-2.41651e-09 -7.83272e-07 0)
(-2.39636e-09 -7.79378e-07 0)
(-2.37551e-09 -7.75518e-07 0)
(-2.35399e-09 -7.71692e-07 0)
(-2.33184e-09 -7.67902e-07 0)
(-2.30912e-09 -7.64147e-07 0)
(-2.28584e-09 -7.60431e-07 0)
(-2.26206e-09 -7.56752e-07 0)
(-2.23781e-09 -7.53112e-07 0)
(-2.2131e-09 -7.49511e-07 0)
(-2.18799e-09 -7.45951e-07 0)
(-2.16249e-09 -7.42432e-07 0)
(-2.13664e-09 -7.38955e-07 0)
(-2.11045e-09 -7.35519e-07 0)
(-2.08395e-09 -7.32127e-07 0)
(-2.05716e-09 -7.28777e-07 0)
(-2.0301e-09 -7.25471e-07 0)
(-2.0028e-09 -7.22209e-07 0)
(-1.97526e-09 -7.18992e-07 0)
(-1.94751e-09 -7.15819e-07 0)
(-1.91956e-09 -7.12691e-07 0)
(-1.89142e-09 -7.09608e-07 0)
(-1.86311e-09 -7.06572e-07 0)
(-1.83464e-09 -7.03581e-07 0)
(-1.80601e-09 -7.00636e-07 0)
(-1.77725e-09 -6.97738e-07 0)
(-1.74836e-09 -6.94886e-07 0)
(-1.71934e-09 -6.92082e-07 0)
(-1.6902e-09 -6.89324e-07 0)
(-1.66096e-09 -6.86613e-07 0)
(-1.63161e-09 -6.8395e-07 0)
(-1.60217e-09 -6.81335e-07 0)
(-1.57263e-09 -6.78767e-07 0)
(-1.543e-09 -6.76247e-07 0)
(-1.51329e-09 -6.73775e-07 0)
(-1.48349e-09 -6.71351e-07 0)
(-1.45362e-09 -6.68976e-07 0)
(-1.42366e-09 -6.66649e-07 0)
(-1.39364e-09 -6.6437e-07 0)
(-1.36354e-09 -6.6214e-07 0)
(-1.33336e-09 -6.59959e-07 0)
(-1.30312e-09 -6.57826e-07 0)
(-1.27281e-09 -6.55743e-07 0)
(-1.24242e-09 -6.53709e-07 0)
(-1.21197e-09 -6.51723e-07 0)
(-1.18146e-09 -6.49788e-07 0)
(-1.15087e-09 -6.47901e-07 0)
(-1.12022e-09 -6.46064e-07 0)
(-1.0895e-09 -6.44277e-07 0)
(-1.05871e-09 -6.4254e-07 0)
(-1.02785e-09 -6.40852e-07 0)
(-9.96933e-10 -6.39214e-07 0)
(-9.65946e-10 -6.37627e-07 0)
(-9.34893e-10 -6.36089e-07 0)
(-9.03774e-10 -6.34602e-07 0)
(-8.72589e-10 -6.33165e-07 0)
(-8.4134e-10 -6.31779e-07 0)
(-8.10027e-10 -6.30443e-07 0)
(-7.7865e-10 -6.29159e-07 0)
(-7.4721e-10 -6.27924e-07 0)
(-7.15709e-10 -6.26741e-07 0)
(-6.84147e-10 -6.25609e-07 0)
(-6.52526e-10 -6.24528e-07 0)
(-6.20847e-10 -6.23498e-07 0)
(-5.89111e-10 -6.22519e-07 0)
(-5.57321e-10 -6.21592e-07 0)
(-5.25478e-10 -6.20716e-07 0)
(-4.93585e-10 -6.19892e-07 0)
(-4.61643e-10 -6.19119e-07 0)
(-4.29654e-10 -6.18398e-07 0)
(-3.97622e-10 -6.17729e-07 0)
(-3.65549e-10 -6.17112e-07 0)
(-3.33438e-10 -6.16546e-07 0)
(-3.01291e-10 -6.16036e-07 0)
(-2.6911e-10 -6.15562e-07 0)
(-2.36906e-10 -6.15195e-07 0)
(-2.04656e-10 -6.14695e-07 0)
(-1.72447e-10 -6.14856e-07 0)
(-1.40013e-10 -6.13007e-07 0)
(-1.08252e-10 -6.17793e-07 0)
(-7.43e-11 -5.99159e-07 0)
(-4.79956e-11 -6.48262e-07 0)
(-2.0126e-11 -5.66159e-07 0)
)
;
    }
    bottomWall
    {
        type            calculated;
        value           nonuniform List<vector> 
449
(
(-48.5259 -0.964015 0)
(-19.749 -0.00515464 0)
(-14.3419 -0.00113473 0)
(-12.0324 -0.00054547 0)
(-10.6263 -0.000351495 0)
(-9.63255 -0.000255994 0)
(-8.87447 -0.000198486 0)
(-8.27096 -0.000159816 0)
(-7.77553 -0.000132326 0)
(-7.3589 -0.000111979 0)
(-7.00189 -9.63786e-05 0)
(-6.69146 -8.40717e-05 0)
(-6.41831 -7.41538e-05 0)
(-6.17551 -6.60262e-05 0)
(-5.95782 -5.92692e-05 0)
(-5.76117 -5.35797e-05 0)
(-5.58236 -4.87354e-05 0)
(-5.41885 -4.45706e-05 0)
(-5.26857 -4.09591e-05 0)
(-5.1298 -3.78034e-05 0)
(-5.00115 -3.50271e-05 0)
(-4.88144 -3.25694e-05 0)
(-4.76967 -3.03813e-05 0)
(-4.665 -2.84234e-05 0)
(-4.5667 -2.66632e-05 0)
(-4.47415 -2.50738e-05 0)
(-4.38681 -2.36331e-05 0)
(-4.30419 -2.23223e-05 0)
(-4.2259 -2.11257e-05 0)
(-4.15155 -2.00298e-05 0)
(-4.08083 -1.90232e-05 0)
(-4.01345 -1.8096e-05 0)
(-3.94914 -1.72399e-05 0)
(-3.8877 -1.64474e-05 0)
(-3.82889 -1.57121e-05 0)
(-3.77255 -1.50284e-05 0)
(-3.7185 -1.43915e-05 0)
(-3.66658 -1.3797e-05 0)
(-3.61667 -1.3241e-05 0)
(-3.56862 -1.27202e-05 0)
(-3.52234 -1.22316e-05 0)
(-3.47771 -1.17724e-05 0)
(-3.43463 -1.13402e-05 0)
(-3.39302 -1.09329e-05 0)
(-3.35279 -1.05486e-05 0)
(-3.31387 -1.01854e-05 0)
(-3.27618 -9.84175e-06 0)
(-3.23967 -9.51628e-06 0)
(-3.20427 -9.20766e-06 0)
(-3.16993 -8.91469e-06 0)
(-3.13659 -8.63629e-06 0)
(-3.1042 -8.37147e-06 0)
(-3.07273 -8.11934e-06 0)
(-3.04212 -7.87905e-06 0)
(-3.01234 -7.64986e-06 0)
(-2.98335 -7.43107e-06 0)
(-2.95512 -7.22203e-06 0)
(-2.92761 -7.02214e-06 0)
(-2.90079 -6.83087e-06 0)
(-2.87463 -6.6477e-06 0)
(-2.84911 -6.47217e-06 0)
(-2.8242 -6.30384e-06 0)
(-2.79988 -6.14231e-06 0)
(-2.77612 -5.9872e-06 0)
(-2.7529 -5.83817e-06 0)
(-2.7302 -5.69489e-06 0)
(-2.708 -5.55705e-06 0)
(-2.68628 -5.42438e-06 0)
(-2.66503 -5.29661e-06 0)
(-2.64422 -5.17349e-06 0)
(-2.62385 -5.0548e-06 0)
(-2.6039 -4.94031e-06 0)
(-2.58435 -4.82982e-06 0)
(-2.56518 -4.72314e-06 0)
(-2.5464 -4.6201e-06 0)
(-2.52798 -4.52051e-06 0)
(-2.50991 -4.42423e-06 0)
(-2.49218 -4.3311e-06 0)
(-2.47478 -4.24099e-06 0)
(-2.4577 -4.15375e-06 0)
(-2.44093 -4.06927e-06 0)
(-2.42446 -3.98743e-06 0)
(-2.40828 -3.90811e-06 0)
(-2.39239 -3.8312e-06 0)
(-2.37677 -3.75661e-06 0)
(-2.36141 -3.68424e-06 0)
(-2.34632 -3.61401e-06 0)
(-2.33148 -3.54582e-06 0)
(-2.31687 -3.47959e-06 0)
(-2.30251 -3.41525e-06 0)
(-2.28838 -3.35272e-06 0)
(-2.27447 -3.29194e-06 0)
(-2.26079 -3.23283e-06 0)
(-2.24731 -3.17534e-06 0)
(-2.23404 -3.1194e-06 0)
(-2.22098 -3.06496e-06 0)
(-2.20811 -3.01196e-06 0)
(-2.19543 -2.96035e-06 0)
(-2.18294 -2.91008e-06 0)
(-2.17063 -2.8611e-06 0)
(-2.1585 -2.81337e-06 0)
(-2.14654 -2.76685e-06 0)
(-2.13475 -2.72149e-06 0)
(-2.12313 -2.67725e-06 0)
(-2.11166 -2.63409e-06 0)
(-2.10036 -2.59199e-06 0)
(-2.08921 -2.5509e-06 0)
(-2.07821 -2.51079e-06 0)
(-2.06735 -2.47163e-06 0)
(-2.05664 -2.43339e-06 0)
(-2.04607 -2.39603e-06 0)
(-2.03563 -2.35954e-06 0)
(-2.02533 -2.32388e-06 0)
(-2.01517 -2.28903e-06 0)
(-2.00513 -2.25497e-06 0)
(-1.99521 -2.22166e-06 0)
(-1.98542 -2.18909e-06 0)
(-1.97575 -2.15723e-06 0)
(-1.96619 -2.12606e-06 0)
(-1.95675 -2.09557e-06 0)
(-1.94743 -2.06573e-06 0)
(-1.93821 -2.03652e-06 0)
(-1.9291 -2.00793e-06 0)
(-1.9201 -1.97993e-06 0)
(-1.91121 -1.95252e-06 0)
(-1.90241 -1.92567e-06 0)
(-1.89372 -1.89937e-06 0)
(-1.88512 -1.8736e-06 0)
(-1.87662 -1.84835e-06 0)
(-1.86821 -1.8236e-06 0)
(-1.8599 -1.79935e-06 0)
(-1.85168 -1.77557e-06 0)
(-1.84355 -1.75226e-06 0)
(-1.8355 -1.7294e-06 0)
(-1.82754 -1.70698e-06 0)
(-1.81966 -1.68499e-06 0)
(-1.81187 -1.66342e-06 0)
(-1.80416 -1.64225e-06 0)
(-1.79653 -1.62148e-06 0)
(-1.78898 -1.6011e-06 0)
(-1.7815 -1.58109e-06 0)
(-1.7741 -1.56145e-06 0)
(-1.76677 -1.54217e-06 0)
(-1.75952 -1.52324e-06 0)
(-1.75234 -1.50465e-06 0)
(-1.74523 -1.48639e-06 0)
(-1.73819 -1.46846e-06 0)
(-1.73121 -1.45084e-06 0)
(-1.72431 -1.43353e-06 0)
(-1.71747 -1.41653e-06 0)
(-1.71069 -1.39982e-06 0)
(-1.70398 -1.38339e-06 0)
(-1.69734 -1.36725e-06 0)
(-1.69075 -1.35138e-06 0)
(-1.68423 -1.33578e-06 0)
(-1.67776 -1.32044e-06 0)
(-1.67135 -1.30536e-06 0)
(-1.66501 -1.29053e-06 0)
(-1.65871 -1.27594e-06 0)
(-1.65248 -1.26159e-06 0)
(-1.6463 -1.24748e-06 0)
(-1.64018 -1.2336e-06 0)
(-1.6341 -1.21994e-06 0)
(-1.62809 -1.20649e-06 0)
(-1.62212 -1.19327e-06 0)
(-1.61621 -1.18025e-06 0)
(-1.61034 -1.16744e-06 0)
(-1.60453 -1.15484e-06 0)
(-1.59876 -1.14245e-06 0)
(-1.59304 -1.13012e-06 0)
(-1.58737 -1.11843e-06 0)
(-1.58175 -1.10633e-06 0)
(-1.57618 -1.09319e-06 0)
(-1.57096 -1.08302e-06 0)
(-1.56606 -1.07479e-06 0)
(-1.56115 -1.06443e-06 0)
(-1.55623 -1.05375e-06 0)
(-1.55131 -1.04374e-06 0)
(-1.54639 -1.0337e-06 0)
(-1.54145 -1.02378e-06 0)
(-1.53652 -1.01393e-06 0)
(-1.53157 -1.00414e-06 0)
(-1.52662 -9.94411e-07 0)
(-1.52167 -9.8474e-07 0)
(-1.51671 -9.75125e-07 0)
(-1.51175 -9.65565e-07 0)
(-1.50678 -9.56061e-07 0)
(-1.5018 -9.46613e-07 0)
(-1.49683 -9.37219e-07 0)
(-1.49184 -9.2788e-07 0)
(-1.48686 -9.18597e-07 0)
(-1.48187 -9.0937e-07 0)
(-1.47688 -9.00198e-07 0)
(-1.47188 -8.91082e-07 0)
(-1.46688 -8.82023e-07 0)
(-1.46188 -8.7302e-07 0)
(-1.45688 -8.64073e-07 0)
(-1.45187 -8.55184e-07 0)
(-1.44686 -8.46352e-07 0)
(-1.44185 -8.37577e-07 0)
(-1.43683 -8.2886e-07 0)
(-1.43182 -8.202e-07 0)
(-1.4268 -8.11599e-07 0)
(-1.42179 -8.03055e-07 0)
(-1.41677 -7.9457e-07 0)
(-1.41175 -7.86144e-07 0)
(-1.40673 -7.77776e-07 0)
(-1.40171 -7.69467e-07 0)
(-1.39669 -7.61217e-07 0)
(-1.39167 -7.53026e-07 0)
(-1.38665 -7.44893e-07 0)
(-1.38163 -7.36821e-07 0)
(-1.37661 -7.28807e-07 0)
(-1.37159 -7.20853e-07 0)
(-1.36657 -7.12958e-07 0)
(-1.36155 -7.05123e-07 0)
(-1.35654 -6.97347e-07 0)
(-1.35152 -6.89631e-07 0)
(-1.34651 -6.81974e-07 0)
(-1.3415 -6.74377e-07 0)
(-1.33649 -6.6684e-07 0)
(-1.33148 -6.59363e-07 0)
(-1.32648 -6.51945e-07 0)
(-1.32148 -6.44586e-07 0)
(-1.31648 -6.37287e-07 0)
(-1.31149 -6.30048e-07 0)
(-1.30649 -6.22868e-07 0)
(-1.3015 -6.15748e-07 0)
(-1.29652 -6.08686e-07 0)
(-1.29154 -6.01685e-07 0)
(-1.28656 -5.94742e-07 0)
(-1.28158 -5.87858e-07 0)
(-1.27662 -5.81034e-07 0)
(-1.27165 -5.74268e-07 0)
(-1.26669 -5.67562e-07 0)
(-1.26173 -5.60913e-07 0)
(-1.25678 -5.54324e-07 0)
(-1.25184 -5.47793e-07 0)
(-1.2469 -5.4132e-07 0)
(-1.24196 -5.34905e-07 0)
(-1.23703 -5.28548e-07 0)
(-1.23211 -5.22249e-07 0)
(-1.22719 -5.16007e-07 0)
(-1.22228 -5.09823e-07 0)
(-1.21737 -5.03696e-07 0)
(-1.21247 -4.97626e-07 0)
(-1.20758 -4.91613e-07 0)
(-1.20269 -4.85657e-07 0)
(-1.19781 -4.79757e-07 0)
(-1.19294 -4.73913e-07 0)
(-1.18807 -4.68126e-07 0)
(-1.18321 -4.62394e-07 0)
(-1.17836 -4.56717e-07 0)
(-1.17352 -4.51096e-07 0)
(-1.16868 -4.4553e-07 0)
(-1.16386 -4.40019e-07 0)
(-1.15904 -4.34562e-07 0)
(-1.15423 -4.2916e-07 0)
(-1.14942 -4.23811e-07 0)
(-1.14463 -4.18517e-07 0)
(-1.13984 -4.13275e-07 0)
(-1.13506 -4.08087e-07 0)
(-1.13029 -4.02952e-07 0)
(-1.12553 -3.9787e-07 0)
(-1.12078 -3.9284e-07 0)
(-1.11604 -3.87862e-07 0)
(-1.11131 -3.82935e-07 0)
(-1.10658 -3.7806e-07 0)
(-1.10187 -3.73237e-07 0)
(-1.09717 -3.68464e-07 0)
(-1.09247 -3.63742e-07 0)
(-1.08779 -3.5907e-07 0)
(-1.08311 -3.54447e-07 0)
(-1.07845 -3.49875e-07 0)
(-1.07379 -3.45351e-07 0)
(-1.06915 -3.40877e-07 0)
(-1.06452 -3.36451e-07 0)
(-1.05989 -3.32074e-07 0)
(-1.05528 -3.27745e-07 0)
(-1.05068 -3.23463e-07 0)
(-1.04609 -3.19228e-07 0)
(-1.04151 -3.15041e-07 0)
(-1.03694 -3.109e-07 0)
(-1.03238 -3.06805e-07 0)
(-1.02783 -3.02757e-07 0)
(-1.0233 -2.98754e-07 0)
(-1.01877 -2.94796e-07 0)
(-1.01426 -2.90883e-07 0)
(-1.00976 -2.87015e-07 0)
(-1.00527 -2.83191e-07 0)
(-1.00079 -2.7941e-07 0)
(-0.996326 -2.75674e-07 0)
(-0.991872 -2.7198e-07 0)
(-0.98743 -2.6833e-07 0)
(-0.983 -2.64722e-07 0)
(-0.978583 -2.61156e-07 0)
(-0.974177 -2.57632e-07 0)
(-0.969783 -2.54149e-07 0)
(-0.965402 -2.50707e-07 0)
(-0.961034 -2.47307e-07 0)
(-0.956678 -2.43946e-07 0)
(-0.952334 -2.40626e-07 0)
(-0.948003 -2.37345e-07 0)
(-0.943684 -2.34103e-07 0)
(-0.939379 -2.30901e-07 0)
(-0.935086 -2.27737e-07 0)
(-0.930806 -2.24612e-07 0)
(-0.926539 -2.21524e-07 0)
(-0.922285 -2.18474e-07 0)
(-0.918043 -2.15462e-07 0)
(-0.913815 -2.12486e-07 0)
(-0.9096 -2.09547e-07 0)
(-0.905399 -2.06644e-07 0)
(-0.90121 -2.03776e-07 0)
(-0.897035 -2.00945e-07 0)
(-0.892873 -1.98148e-07 0)
(-0.888724 -1.95387e-07 0)
(-0.884589 -1.9266e-07 0)
(-0.880467 -1.89967e-07 0)
(-0.876359 -1.87308e-07 0)
(-0.872264 -1.84682e-07 0)
(-0.868183 -1.82089e-07 0)
(-0.864115 -1.7953e-07 0)
(-0.860061 -1.77003e-07 0)
(-0.856021 -1.74507e-07 0)
(-0.851994 -1.72044e-07 0)
(-0.847981 -1.69613e-07 0)
(-0.843982 -1.67212e-07 0)
(-0.839997 -1.64842e-07 0)
(-0.836025 -1.62503e-07 0)
(-0.832068 -1.60194e-07 0)
(-0.828124 -1.57915e-07 0)
(-0.824194 -1.55666e-07 0)
(-0.820278 -1.53445e-07 0)
(-0.816376 -1.51254e-07 0)
(-0.812488 -1.49091e-07 0)
(-0.808613 -1.46957e-07 0)
(-0.804753 -1.44851e-07 0)
(-0.800907 -1.42772e-07 0)
(-0.797075 -1.4072e-07 0)
(-0.793257 -1.38696e-07 0)
(-0.789453 -1.36699e-07 0)
(-0.785663 -1.34728e-07 0)
(-0.781887 -1.32783e-07 0)
(-0.778125 -1.30863e-07 0)
(-0.774377 -1.2897e-07 0)
(-0.770644 -1.27101e-07 0)
(-0.766924 -1.25257e-07 0)
(-0.763219 -1.23436e-07 0)
(-0.759528 -1.21643e-07 0)
(-0.755851 -1.19867e-07 0)
(-0.752188 -1.1808e-07 0)
(-0.748542 -1.16441e-07 0)
(-0.744903 -1.14814e-07 0)
(-0.740873 -1.12827e-07 0)
(-0.736503 -1.10717e-07 0)
(-0.732211 -1.08817e-07 0)
(-0.72799 -1.07019e-07 0)
(-0.723839 -1.05209e-07 0)
(-0.719759 -1.03434e-07 0)
(-0.715747 -1.01704e-07 0)
(-0.711802 -1.00021e-07 0)
(-0.707922 -9.83835e-08 0)
(-0.704105 -9.67893e-08 0)
(-0.70035 -9.52373e-08 0)
(-0.696654 -9.37262e-08 0)
(-0.693017 -9.22547e-08 0)
(-0.689437 -9.08213e-08 0)
(-0.685912 -8.94246e-08 0)
(-0.682441 -8.80634e-08 0)
(-0.679022 -8.67363e-08 0)
(-0.675655 -8.54423e-08 0)
(-0.672338 -8.41802e-08 0)
(-0.669069 -8.29488e-08 0)
(-0.665849 -8.17472e-08 0)
(-0.662674 -8.05743e-08 0)
(-0.659545 -7.94292e-08 0)
(-0.65646 -7.83111e-08 0)
(-0.653418 -7.72189e-08 0)
(-0.650419 -7.61519e-08 0)
(-0.647461 -7.51093e-08 0)
(-0.644543 -7.40903e-08 0)
(-0.641665 -7.30942e-08 0)
(-0.638825 -7.21202e-08 0)
(-0.636022 -7.11677e-08 0)
(-0.633257 -7.02361e-08 0)
(-0.630528 -6.93246e-08 0)
(-0.627833 -6.84327e-08 0)
(-0.625174 -6.75598e-08 0)
(-0.622548 -6.67054e-08 0)
(-0.619955 -6.58689e-08 0)
(-0.617395 -6.50499e-08 0)
(-0.614866 -6.42477e-08 0)
(-0.612369 -6.34619e-08 0)
(-0.609901 -6.26921e-08 0)
(-0.607464 -6.19378e-08 0)
(-0.605056 -6.11986e-08 0)
(-0.602676 -6.04741e-08 0)
(-0.600325 -5.97638e-08 0)
(-0.598001 -5.90675e-08 0)
(-0.595704 -5.83847e-08 0)
(-0.593433 -5.7715e-08 0)
(-0.591188 -5.70582e-08 0)
(-0.588969 -5.64139e-08 0)
(-0.586775 -5.57818e-08 0)
(-0.584605 -5.51615e-08 0)
(-0.58246 -5.45528e-08 0)
(-0.580338 -5.39554e-08 0)
(-0.578239 -5.3369e-08 0)
(-0.576162 -5.27933e-08 0)
(-0.574108 -5.22281e-08 0)
(-0.572076 -5.16732e-08 0)
(-0.570066 -5.11282e-08 0)
(-0.568076 -5.05931e-08 0)
(-0.566108 -5.00675e-08 0)
(-0.56416 -4.95513e-08 0)
(-0.562231 -4.90442e-08 0)
(-0.560323 -4.8546e-08 0)
(-0.558433 -4.80567e-08 0)
(-0.556563 -4.7576e-08 0)
(-0.554711 -4.71038e-08 0)
(-0.552878 -4.66398e-08 0)
(-0.551063 -4.61841e-08 0)
(-0.549265 -4.57364e-08 0)
(-0.547485 -4.52967e-08 0)
(-0.545721 -4.48649e-08 0)
(-0.543975 -4.44409e-08 0)
(-0.542245 -4.40247e-08 0)
(-0.540531 -4.36164e-08 0)
(-0.538832 -4.32159e-08 0)
(-0.53715 -4.28234e-08 0)
(-0.535482 -4.24391e-08 0)
(-0.53383 -4.20632e-08 0)
(-0.532192 -4.16962e-08 0)
(-0.530568 -4.13387e-08 0)
(-0.528957 -4.09917e-08 0)
(-0.527361 -4.06565e-08 0)
(-0.525777 -4.03343e-08 0)
(-0.524205 -4.00285e-08 0)
(-0.522645 -3.97514e-08 0)
(-0.521096 -3.94727e-08 0)
(-0.519557 -3.92518e-08 0)
(-0.518025 -3.93121e-08 0)
(-0.516482 -3.86327e-08 0)
(-0.515003 -3.77631e-08 0)
(-0.513527 -4.99126e-08 0)
(-0.511098 -1.39553e-08 0)
(-0.512447 -3.68344e-08 0)
(-0.508173 -5.55656e-08 0)
)
;
    }
    symmetry
    {
        type            symmetryPlane;
    }
    frontAndBack
    {
        type            empty;
    }
}


// ************************************************************************* //
