/*--------------------------------*- C++ -*----------------------------------*\
| =========                 |                                                 |
| \\      /  F ield         | OpenFOAM: The Open Source CFD Toolbox           |
|  \\    /   O peration     | Version:  v2012                                 |
|   \\  /    A nd           | Website:  www.openfoam.com                      |
|    \\/     M anipulation  |                                                 |
\*---------------------------------------------------------------------------*/
FoamFile
{
    version     2.0;
    format      ascii;
    class       volScalarField;
    location    "54";
    object      nut;
}
// * * * * * * * * * * * * * * * * * * * * * * * * * * * * * * * * * * * * * //

dimensions      [0 2 -1 0 0 0 0];


internalField   nonuniform List<scalar> 
209825
(
1.23939e-07
1.23154e-07
1.22356e-07
1.21257e-07
1.19864e-07
1.18274e-07
1.16658e-07
1.15083e-07
1.13632e-07
1.12296e-07
1.11108e-07
1.1003e-07
1.09082e-07
1.08222e-07
1.07468e-07
1.0678e-07
1.06176e-07
1.0562e-07
1.05132e-07
1.04679e-07
1.04281e-07
1.03908e-07
1.03579e-07
1.0327e-07
1.02996e-07
1.02737e-07
1.02506e-07
1.02288e-07
1.02092e-07
1.01906e-07
1.01738e-07
1.01579e-07
1.01434e-07
1.01297e-07
1.01172e-07
1.01053e-07
1.00943e-07
1.00839e-07
1.00742e-07
1.00652e-07
1.00566e-07
1.00487e-07
1.0041e-07
1.0034e-07
1.00271e-07
1.0021e-07
1.00148e-07
1.00094e-07
1.00037e-07
9.99903e-08
9.99379e-08
9.98959e-08
9.98453e-08
9.98098e-08
9.97642e-08
9.97319e-08
9.96905e-08
9.96616e-08
9.96248e-08
9.95981e-08
9.95632e-08
9.95377e-08
9.95063e-08
9.94827e-08
9.94524e-08
9.94308e-08
9.94042e-08
9.93846e-08
9.93593e-08
9.93395e-08
9.93152e-08
9.92967e-08
9.92751e-08
9.92594e-08
9.92403e-08
9.92271e-08
9.92092e-08
9.91961e-08
9.91781e-08
9.91648e-08
9.91469e-08
9.91337e-08
9.91166e-08
9.91036e-08
9.90871e-08
9.90718e-08
9.9053e-08
9.90341e-08
9.90167e-08
9.89976e-08
9.89707e-08
9.8943e-08
9.8953e-08
9.98874e-08
1.02384e-07
9.69585e-09
1.23939e-07
1.23154e-07
1.22356e-07
1.21257e-07
1.19864e-07
1.18275e-07
1.16659e-07
1.15083e-07
1.13633e-07
1.12297e-07
1.11109e-07
1.10031e-07
1.09083e-07
1.08223e-07
1.07469e-07
1.0678e-07
1.06176e-07
1.05621e-07
1.05132e-07
1.0468e-07
1.04281e-07
1.03909e-07
1.0358e-07
1.03271e-07
1.02997e-07
1.02738e-07
1.02507e-07
1.02288e-07
1.02093e-07
1.01907e-07
1.01739e-07
1.0158e-07
1.01435e-07
1.01298e-07
1.01172e-07
1.01053e-07
1.00943e-07
1.0084e-07
1.00743e-07
1.00653e-07
1.00566e-07
1.00487e-07
1.00411e-07
1.00341e-07
1.00272e-07
1.0021e-07
1.00148e-07
1.00095e-07
1.00038e-07
9.99908e-08
9.99384e-08
9.98964e-08
9.98458e-08
9.98103e-08
9.97647e-08
9.97324e-08
9.9691e-08
9.96621e-08
9.96253e-08
9.95986e-08
9.95636e-08
9.95381e-08
9.95067e-08
9.94831e-08
9.94529e-08
9.94312e-08
9.94046e-08
9.93851e-08
9.93598e-08
9.934e-08
9.93156e-08
9.92971e-08
9.92755e-08
9.92599e-08
9.92407e-08
9.92275e-08
9.92096e-08
9.91965e-08
9.91785e-08
9.91652e-08
9.91473e-08
9.91341e-08
9.9117e-08
9.9104e-08
9.90875e-08
9.90722e-08
9.90534e-08
9.90346e-08
9.90171e-08
9.89981e-08
9.89711e-08
9.89435e-08
9.89535e-08
9.98896e-08
1.02385e-07
9.99277e-09
1.23939e-07
1.23153e-07
1.22356e-07
1.21257e-07
1.19865e-07
1.18276e-07
1.1666e-07
1.15085e-07
1.13635e-07
1.12298e-07
1.11111e-07
1.10033e-07
1.09085e-07
1.08225e-07
1.0747e-07
1.06782e-07
1.06178e-07
1.05622e-07
1.05134e-07
1.04681e-07
1.04282e-07
1.0391e-07
1.0358e-07
1.03272e-07
1.02997e-07
1.02738e-07
1.02507e-07
1.02289e-07
1.02093e-07
1.01907e-07
1.01739e-07
1.0158e-07
1.01435e-07
1.01298e-07
1.01172e-07
1.01054e-07
1.00944e-07
1.0084e-07
1.00743e-07
1.00653e-07
1.00566e-07
1.00487e-07
1.0041e-07
1.00341e-07
1.00272e-07
1.0021e-07
1.00148e-07
1.00095e-07
1.00038e-07
9.99907e-08
9.99382e-08
9.98962e-08
9.98456e-08
9.98101e-08
9.97644e-08
9.97321e-08
9.96907e-08
9.96618e-08
9.9625e-08
9.95983e-08
9.95633e-08
9.95378e-08
9.95064e-08
9.94828e-08
9.94525e-08
9.94309e-08
9.94043e-08
9.93847e-08
9.93594e-08
9.93396e-08
9.93152e-08
9.92967e-08
9.92751e-08
9.92594e-08
9.92403e-08
9.92271e-08
9.92092e-08
9.91961e-08
9.91781e-08
9.91648e-08
9.91469e-08
9.91337e-08
9.91165e-08
9.91035e-08
9.9087e-08
9.90717e-08
9.9053e-08
9.90341e-08
9.90166e-08
9.89976e-08
9.89706e-08
9.8943e-08
9.89531e-08
9.98929e-08
1.02386e-07
1.03615e-08
1.23938e-07
1.23153e-07
1.22356e-07
1.21258e-07
1.19866e-07
1.18278e-07
1.16663e-07
1.15088e-07
1.13638e-07
1.12302e-07
1.11114e-07
1.10036e-07
1.09088e-07
1.08227e-07
1.07473e-07
1.06784e-07
1.0618e-07
1.05624e-07
1.05136e-07
1.04683e-07
1.04284e-07
1.03911e-07
1.03582e-07
1.03273e-07
1.02999e-07
1.0274e-07
1.02509e-07
1.0229e-07
1.02094e-07
1.01908e-07
1.0174e-07
1.01581e-07
1.01436e-07
1.01299e-07
1.01173e-07
1.01054e-07
1.00944e-07
1.0084e-07
1.00743e-07
1.00653e-07
1.00567e-07
1.00487e-07
1.00411e-07
1.00341e-07
1.00272e-07
1.0021e-07
1.00148e-07
1.00095e-07
1.00038e-07
9.99907e-08
9.99382e-08
9.98962e-08
9.98455e-08
9.981e-08
9.97643e-08
9.97321e-08
9.96906e-08
9.96617e-08
9.96248e-08
9.95981e-08
9.95631e-08
9.95376e-08
9.95062e-08
9.94826e-08
9.94523e-08
9.94306e-08
9.9404e-08
9.93844e-08
9.93591e-08
9.93393e-08
9.93149e-08
9.92964e-08
9.92748e-08
9.92591e-08
9.924e-08
9.92267e-08
9.92088e-08
9.91957e-08
9.91777e-08
9.91644e-08
9.91465e-08
9.91333e-08
9.91161e-08
9.91031e-08
9.90865e-08
9.90713e-08
9.90525e-08
9.90337e-08
9.90162e-08
9.89972e-08
9.89702e-08
9.89427e-08
9.89528e-08
9.98983e-08
1.02387e-07
1.07723e-08
1.23938e-07
1.23153e-07
1.22356e-07
1.21259e-07
1.19868e-07
1.18281e-07
1.16667e-07
1.15092e-07
1.13643e-07
1.12306e-07
1.11119e-07
1.1004e-07
1.09092e-07
1.08232e-07
1.07477e-07
1.06788e-07
1.06184e-07
1.05628e-07
1.05139e-07
1.04686e-07
1.04287e-07
1.03914e-07
1.03585e-07
1.03275e-07
1.03001e-07
1.02742e-07
1.0251e-07
1.02292e-07
1.02096e-07
1.01909e-07
1.01742e-07
1.01582e-07
1.01437e-07
1.013e-07
1.01174e-07
1.01055e-07
1.00945e-07
1.00841e-07
1.00744e-07
1.00654e-07
1.00567e-07
1.00488e-07
1.00411e-07
1.00341e-07
1.00272e-07
1.00211e-07
1.00149e-07
1.00095e-07
1.00038e-07
9.9991e-08
9.99385e-08
9.98964e-08
9.98458e-08
9.98102e-08
9.97645e-08
9.97322e-08
9.96907e-08
9.96617e-08
9.96249e-08
9.95981e-08
9.95631e-08
9.95376e-08
9.95061e-08
9.94825e-08
9.94522e-08
9.94305e-08
9.94039e-08
9.93843e-08
9.9359e-08
9.93391e-08
9.93147e-08
9.92962e-08
9.92746e-08
9.92589e-08
9.92397e-08
9.92264e-08
9.92085e-08
9.91954e-08
9.91774e-08
9.9164e-08
9.91461e-08
9.91329e-08
9.91157e-08
9.91027e-08
9.90861e-08
9.9071e-08
9.90522e-08
9.90334e-08
9.90159e-08
9.89969e-08
9.89699e-08
9.89424e-08
9.89526e-08
9.9906e-08
1.02389e-07
1.12181e-08
1.23938e-07
1.23153e-07
1.22356e-07
1.2126e-07
1.19871e-07
1.18285e-07
1.16672e-07
1.15098e-07
1.13649e-07
1.12313e-07
1.11125e-07
1.10046e-07
1.09098e-07
1.08237e-07
1.07483e-07
1.06793e-07
1.06189e-07
1.05632e-07
1.05143e-07
1.0469e-07
1.04291e-07
1.03918e-07
1.03588e-07
1.03279e-07
1.03004e-07
1.02744e-07
1.02513e-07
1.02294e-07
1.02098e-07
1.01912e-07
1.01744e-07
1.01584e-07
1.01439e-07
1.01302e-07
1.01176e-07
1.01057e-07
1.00946e-07
1.00843e-07
1.00746e-07
1.00655e-07
1.00568e-07
1.00489e-07
1.00412e-07
1.00342e-07
1.00273e-07
1.00212e-07
1.00149e-07
1.00096e-07
1.00039e-07
9.99916e-08
9.99391e-08
9.9897e-08
9.98462e-08
9.98107e-08
9.97649e-08
9.97325e-08
9.9691e-08
9.9662e-08
9.96251e-08
9.95984e-08
9.95633e-08
9.95378e-08
9.95063e-08
9.94827e-08
9.94523e-08
9.94306e-08
9.94039e-08
9.93843e-08
9.9359e-08
9.93391e-08
9.93147e-08
9.92962e-08
9.92745e-08
9.92588e-08
9.92396e-08
9.92263e-08
9.92084e-08
9.91952e-08
9.91772e-08
9.91638e-08
9.91459e-08
9.91327e-08
9.91155e-08
9.91025e-08
9.90858e-08
9.90707e-08
9.9052e-08
9.90332e-08
9.90156e-08
9.89968e-08
9.89697e-08
9.89422e-08
9.89527e-08
9.99163e-08
1.02392e-07
1.16977e-08
1.23938e-07
1.23152e-07
1.22357e-07
1.21262e-07
1.19874e-07
1.1829e-07
1.16678e-07
1.15105e-07
1.13656e-07
1.1232e-07
1.11132e-07
1.10054e-07
1.09106e-07
1.08244e-07
1.07489e-07
1.068e-07
1.06195e-07
1.05638e-07
1.05149e-07
1.04695e-07
1.04296e-07
1.03922e-07
1.03592e-07
1.03283e-07
1.03008e-07
1.02748e-07
1.02517e-07
1.02297e-07
1.02101e-07
1.01915e-07
1.01746e-07
1.01587e-07
1.01442e-07
1.01304e-07
1.01178e-07
1.01059e-07
1.00948e-07
1.00845e-07
1.00747e-07
1.00657e-07
1.0057e-07
1.00491e-07
1.00414e-07
1.00344e-07
1.00274e-07
1.00213e-07
1.0015e-07
1.00097e-07
1.0004e-07
9.99926e-08
9.99399e-08
9.98978e-08
9.9847e-08
9.98114e-08
9.97656e-08
9.97332e-08
9.96916e-08
9.96625e-08
9.96256e-08
9.95988e-08
9.95638e-08
9.95382e-08
9.95066e-08
9.9483e-08
9.94526e-08
9.94309e-08
9.94042e-08
9.93845e-08
9.93592e-08
9.93393e-08
9.93149e-08
9.92963e-08
9.92746e-08
9.92589e-08
9.92396e-08
9.92263e-08
9.92083e-08
9.91952e-08
9.91771e-08
9.91638e-08
9.91458e-08
9.91326e-08
9.91154e-08
9.91023e-08
9.90856e-08
9.90706e-08
9.90519e-08
9.90332e-08
9.90155e-08
9.89968e-08
9.89697e-08
9.89422e-08
9.89529e-08
9.99293e-08
1.02395e-07
1.22114e-08
1.23938e-07
1.23152e-07
1.22357e-07
1.21263e-07
1.19878e-07
1.18296e-07
1.16686e-07
1.15114e-07
1.13665e-07
1.1233e-07
1.11142e-07
1.10063e-07
1.09114e-07
1.08253e-07
1.07497e-07
1.06807e-07
1.06202e-07
1.05645e-07
1.05155e-07
1.04702e-07
1.04302e-07
1.03928e-07
1.03598e-07
1.03288e-07
1.03013e-07
1.02753e-07
1.02521e-07
1.02302e-07
1.02105e-07
1.01918e-07
1.0175e-07
1.0159e-07
1.01445e-07
1.01307e-07
1.01181e-07
1.01061e-07
1.00951e-07
1.00847e-07
1.0075e-07
1.00659e-07
1.00572e-07
1.00493e-07
1.00416e-07
1.00345e-07
1.00276e-07
1.00214e-07
1.00152e-07
1.00098e-07
1.00041e-07
9.99938e-08
9.99411e-08
9.98989e-08
9.98481e-08
9.98124e-08
9.97665e-08
9.9734e-08
9.96924e-08
9.96633e-08
9.96263e-08
9.95995e-08
9.95644e-08
9.95388e-08
9.95072e-08
9.94835e-08
9.94531e-08
9.94313e-08
9.94046e-08
9.93849e-08
9.93595e-08
9.93397e-08
9.93152e-08
9.92966e-08
9.92749e-08
9.92591e-08
9.92398e-08
9.92265e-08
9.92085e-08
9.91953e-08
9.91772e-08
9.91638e-08
9.91459e-08
9.91326e-08
9.91153e-08
9.91023e-08
9.90855e-08
9.90705e-08
9.90519e-08
9.90333e-08
9.90154e-08
9.89969e-08
9.89698e-08
9.89423e-08
9.89533e-08
9.99452e-08
1.02399e-07
1.27599e-08
1.23938e-07
1.23151e-07
1.22357e-07
1.21266e-07
1.19883e-07
1.18303e-07
1.16694e-07
1.15124e-07
1.13676e-07
1.1234e-07
1.11153e-07
1.10074e-07
1.09125e-07
1.08263e-07
1.07507e-07
1.06817e-07
1.06211e-07
1.05653e-07
1.05163e-07
1.04709e-07
1.04309e-07
1.03935e-07
1.03604e-07
1.03294e-07
1.03018e-07
1.02758e-07
1.02526e-07
1.02306e-07
1.0211e-07
1.01923e-07
1.01754e-07
1.01594e-07
1.01449e-07
1.01311e-07
1.01184e-07
1.01065e-07
1.00954e-07
1.0085e-07
1.00752e-07
1.00661e-07
1.00575e-07
1.00495e-07
1.00418e-07
1.00347e-07
1.00278e-07
1.00216e-07
1.00154e-07
1.001e-07
1.00043e-07
9.99954e-08
9.99426e-08
9.99003e-08
9.98494e-08
9.98137e-08
9.97677e-08
9.97352e-08
9.96935e-08
9.96644e-08
9.96273e-08
9.96004e-08
9.95653e-08
9.95396e-08
9.9508e-08
9.94843e-08
9.94538e-08
9.9432e-08
9.94052e-08
9.93855e-08
9.93601e-08
9.93402e-08
9.93157e-08
9.92971e-08
9.92753e-08
9.92595e-08
9.92402e-08
9.92268e-08
9.92087e-08
9.91956e-08
9.91774e-08
9.9164e-08
9.9146e-08
9.91328e-08
9.91155e-08
9.91024e-08
9.90855e-08
9.90707e-08
9.90521e-08
9.90335e-08
9.90155e-08
9.89971e-08
9.897e-08
9.89426e-08
9.89539e-08
9.99642e-08
1.02404e-07
1.33437e-08
1.23938e-07
1.23151e-07
1.22357e-07
1.21268e-07
1.19888e-07
1.18311e-07
1.16704e-07
1.15135e-07
1.13688e-07
1.12353e-07
1.11165e-07
1.10086e-07
1.09137e-07
1.08274e-07
1.07518e-07
1.06827e-07
1.06221e-07
1.05663e-07
1.05173e-07
1.04718e-07
1.04317e-07
1.03943e-07
1.03612e-07
1.03301e-07
1.03025e-07
1.02764e-07
1.02532e-07
1.02312e-07
1.02115e-07
1.01928e-07
1.01759e-07
1.01599e-07
1.01453e-07
1.01315e-07
1.01188e-07
1.01068e-07
1.00958e-07
1.00853e-07
1.00756e-07
1.00665e-07
1.00578e-07
1.00498e-07
1.00421e-07
1.0035e-07
1.00281e-07
1.00219e-07
1.00156e-07
1.00102e-07
1.00045e-07
9.99973e-08
9.99444e-08
9.99021e-08
9.98511e-08
9.98153e-08
9.97693e-08
9.97367e-08
9.96949e-08
9.96657e-08
9.96286e-08
9.96016e-08
9.95665e-08
9.95407e-08
9.9509e-08
9.94853e-08
9.94548e-08
9.94329e-08
9.94061e-08
9.93863e-08
9.93609e-08
9.9341e-08
9.93164e-08
9.92978e-08
9.9276e-08
9.92601e-08
9.92407e-08
9.92273e-08
9.92092e-08
9.9196e-08
9.91778e-08
9.91644e-08
9.91463e-08
9.91331e-08
9.91157e-08
9.91026e-08
9.90856e-08
9.90709e-08
9.90524e-08
9.90339e-08
9.90158e-08
9.89975e-08
9.89704e-08
9.8943e-08
9.89547e-08
9.99864e-08
1.0241e-07
1.39628e-08
1.23938e-07
1.2315e-07
1.22357e-07
1.21271e-07
1.19894e-07
1.1832e-07
1.16716e-07
1.15148e-07
1.13702e-07
1.12367e-07
1.11179e-07
1.101e-07
1.0915e-07
1.08288e-07
1.07531e-07
1.06839e-07
1.06232e-07
1.05674e-07
1.05183e-07
1.04728e-07
1.04326e-07
1.03951e-07
1.0362e-07
1.03309e-07
1.03033e-07
1.02772e-07
1.02539e-07
1.02319e-07
1.02121e-07
1.01934e-07
1.01765e-07
1.01604e-07
1.01458e-07
1.0132e-07
1.01193e-07
1.01073e-07
1.00962e-07
1.00857e-07
1.00759e-07
1.00668e-07
1.00581e-07
1.00501e-07
1.00424e-07
1.00353e-07
1.00283e-07
1.00221e-07
1.00159e-07
1.00105e-07
1.00047e-07
9.99996e-08
9.99466e-08
9.99042e-08
9.98531e-08
9.98172e-08
9.97711e-08
9.97384e-08
9.96966e-08
9.96673e-08
9.96301e-08
9.96031e-08
9.95679e-08
9.95421e-08
9.95103e-08
9.94865e-08
9.9456e-08
9.94341e-08
9.94071e-08
9.93874e-08
9.93618e-08
9.93419e-08
9.93173e-08
9.92987e-08
9.92768e-08
9.92609e-08
9.92414e-08
9.9228e-08
9.92098e-08
9.91966e-08
9.91783e-08
9.91649e-08
9.91468e-08
9.91335e-08
9.91161e-08
9.9103e-08
9.90859e-08
9.90712e-08
9.90528e-08
9.90344e-08
9.90162e-08
9.89981e-08
9.89709e-08
9.89436e-08
9.89558e-08
1.00012e-07
1.02415e-07
1.46165e-08
1.23938e-07
1.23149e-07
1.22357e-07
1.21274e-07
1.19901e-07
1.1833e-07
1.16728e-07
1.15162e-07
1.13717e-07
1.12383e-07
1.11195e-07
1.10116e-07
1.09166e-07
1.08302e-07
1.07545e-07
1.06853e-07
1.06245e-07
1.05686e-07
1.05195e-07
1.04739e-07
1.04337e-07
1.03961e-07
1.03629e-07
1.03318e-07
1.03041e-07
1.0278e-07
1.02547e-07
1.02326e-07
1.02128e-07
1.0194e-07
1.01771e-07
1.0161e-07
1.01464e-07
1.01325e-07
1.01198e-07
1.01078e-07
1.00967e-07
1.00862e-07
1.00764e-07
1.00672e-07
1.00585e-07
1.00505e-07
1.00427e-07
1.00357e-07
1.00287e-07
1.00225e-07
1.00162e-07
1.00108e-07
1.0005e-07
1.00002e-07
9.99492e-08
9.99067e-08
9.98555e-08
9.98195e-08
9.97733e-08
9.97405e-08
9.96986e-08
9.96692e-08
9.96319e-08
9.96048e-08
9.95695e-08
9.95437e-08
9.95118e-08
9.9488e-08
9.94574e-08
9.94354e-08
9.94084e-08
9.93886e-08
9.9363e-08
9.93431e-08
9.93185e-08
9.92998e-08
9.92778e-08
9.92619e-08
9.92423e-08
9.92288e-08
9.92106e-08
9.91973e-08
9.9179e-08
9.91656e-08
9.91475e-08
9.91341e-08
9.91167e-08
9.91035e-08
9.90863e-08
9.90717e-08
9.90534e-08
9.90351e-08
9.90167e-08
9.89988e-08
9.89716e-08
9.89444e-08
9.89571e-08
1.00041e-07
1.02422e-07
1.53043e-08
1.23938e-07
1.23148e-07
1.22357e-07
1.21277e-07
1.19908e-07
1.18341e-07
1.16742e-07
1.15178e-07
1.13734e-07
1.124e-07
1.11213e-07
1.10133e-07
1.09183e-07
1.08319e-07
1.07561e-07
1.06868e-07
1.0626e-07
1.057e-07
1.05208e-07
1.04751e-07
1.04349e-07
1.03973e-07
1.0364e-07
1.03328e-07
1.03051e-07
1.02789e-07
1.02555e-07
1.02334e-07
1.02136e-07
1.01948e-07
1.01778e-07
1.01617e-07
1.0147e-07
1.01331e-07
1.01204e-07
1.01083e-07
1.00972e-07
1.00867e-07
1.00769e-07
1.00677e-07
1.00589e-07
1.00509e-07
1.00431e-07
1.0036e-07
1.00291e-07
1.00228e-07
1.00165e-07
1.00111e-07
1.00053e-07
1.00005e-07
9.99521e-08
9.99095e-08
9.98582e-08
9.98221e-08
9.97758e-08
9.97429e-08
9.97009e-08
9.96714e-08
9.9634e-08
9.96069e-08
9.95715e-08
9.95456e-08
9.95136e-08
9.94898e-08
9.94591e-08
9.9437e-08
9.941e-08
9.93901e-08
9.93645e-08
9.93445e-08
9.93198e-08
9.93011e-08
9.9279e-08
9.92631e-08
9.92434e-08
9.92299e-08
9.92116e-08
9.91983e-08
9.91799e-08
9.91665e-08
9.91483e-08
9.91349e-08
9.91174e-08
9.91042e-08
9.90869e-08
9.90724e-08
9.90542e-08
9.90359e-08
9.90174e-08
9.89997e-08
9.89725e-08
9.89453e-08
9.89587e-08
1.00074e-07
1.02428e-07
1.60282e-08
1.23938e-07
1.23147e-07
1.22357e-07
1.2128e-07
1.19916e-07
1.18353e-07
1.16757e-07
1.15195e-07
1.13753e-07
1.1242e-07
1.11232e-07
1.10152e-07
1.09201e-07
1.08337e-07
1.07578e-07
1.06884e-07
1.06276e-07
1.05715e-07
1.05222e-07
1.04765e-07
1.04362e-07
1.03985e-07
1.03652e-07
1.03339e-07
1.03061e-07
1.02799e-07
1.02565e-07
1.02343e-07
1.02145e-07
1.01956e-07
1.01786e-07
1.01624e-07
1.01478e-07
1.01338e-07
1.01211e-07
1.0109e-07
1.00978e-07
1.00873e-07
1.00774e-07
1.00682e-07
1.00595e-07
1.00514e-07
1.00436e-07
1.00365e-07
1.00295e-07
1.00232e-07
1.00169e-07
1.00115e-07
1.00057e-07
1.00009e-07
9.99554e-08
9.99128e-08
9.98613e-08
9.9825e-08
9.97786e-08
9.97456e-08
9.97035e-08
9.96739e-08
9.96364e-08
9.96092e-08
9.95737e-08
9.95477e-08
9.95157e-08
9.94918e-08
9.9461e-08
9.94389e-08
9.94118e-08
9.93918e-08
9.93662e-08
9.93461e-08
9.93214e-08
9.93026e-08
9.92805e-08
9.92645e-08
9.92448e-08
9.92311e-08
9.92127e-08
9.91994e-08
9.9181e-08
9.91675e-08
9.91492e-08
9.91359e-08
9.91183e-08
9.91051e-08
9.90876e-08
9.90732e-08
9.90551e-08
9.9037e-08
9.90183e-08
9.90008e-08
9.89736e-08
9.89465e-08
9.89605e-08
1.00111e-07
1.02434e-07
1.67907e-08
1.23938e-07
1.23146e-07
1.22357e-07
1.21284e-07
1.19924e-07
1.18366e-07
1.16774e-07
1.15214e-07
1.13773e-07
1.1244e-07
1.11253e-07
1.10173e-07
1.09222e-07
1.08356e-07
1.07597e-07
1.06903e-07
1.06293e-07
1.05732e-07
1.05238e-07
1.0478e-07
1.04376e-07
1.03999e-07
1.03665e-07
1.03352e-07
1.03073e-07
1.0281e-07
1.02576e-07
1.02354e-07
1.02155e-07
1.01965e-07
1.01795e-07
1.01633e-07
1.01486e-07
1.01346e-07
1.01218e-07
1.01097e-07
1.00985e-07
1.00879e-07
1.0078e-07
1.00688e-07
1.006e-07
1.00519e-07
1.00441e-07
1.0037e-07
1.003e-07
1.00237e-07
1.00173e-07
1.00119e-07
1.00061e-07
1.00013e-07
9.99592e-08
9.99164e-08
9.98648e-08
9.98284e-08
9.97818e-08
9.97487e-08
9.97065e-08
9.96767e-08
9.96391e-08
9.96118e-08
9.95763e-08
9.95502e-08
9.95181e-08
9.94941e-08
9.94633e-08
9.94411e-08
9.94138e-08
9.93938e-08
9.93681e-08
9.9348e-08
9.93232e-08
9.93044e-08
9.92822e-08
9.92661e-08
9.92463e-08
9.92326e-08
9.92141e-08
9.92007e-08
9.91823e-08
9.91687e-08
9.91504e-08
9.9137e-08
9.91193e-08
9.91061e-08
9.90885e-08
9.90742e-08
9.90562e-08
9.90381e-08
9.90193e-08
9.9002e-08
9.89748e-08
9.89479e-08
9.89626e-08
1.00152e-07
1.0244e-07
1.7594e-08
1.23938e-07
1.23145e-07
1.22357e-07
1.21288e-07
1.19934e-07
1.1838e-07
1.16792e-07
1.15235e-07
1.13795e-07
1.12463e-07
1.11276e-07
1.10195e-07
1.09244e-07
1.08378e-07
1.07618e-07
1.06922e-07
1.06312e-07
1.0575e-07
1.05255e-07
1.04796e-07
1.04392e-07
1.04014e-07
1.03679e-07
1.03365e-07
1.03086e-07
1.02822e-07
1.02587e-07
1.02365e-07
1.02165e-07
1.01975e-07
1.01804e-07
1.01642e-07
1.01494e-07
1.01354e-07
1.01226e-07
1.01104e-07
1.00992e-07
1.00886e-07
1.00787e-07
1.00695e-07
1.00606e-07
1.00525e-07
1.00447e-07
1.00375e-07
1.00305e-07
1.00242e-07
1.00178e-07
1.00124e-07
1.00065e-07
1.00017e-07
9.99633e-08
9.99204e-08
9.98687e-08
9.98321e-08
9.97854e-08
9.97522e-08
9.97098e-08
9.96799e-08
9.96422e-08
9.96148e-08
9.95792e-08
9.9553e-08
9.95208e-08
9.94967e-08
9.94658e-08
9.94435e-08
9.94161e-08
9.93961e-08
9.93703e-08
9.93502e-08
9.93253e-08
9.93065e-08
9.92841e-08
9.9268e-08
9.9248e-08
9.92343e-08
9.92157e-08
9.92023e-08
9.91837e-08
9.91702e-08
9.91518e-08
9.91383e-08
9.91206e-08
9.91073e-08
9.90896e-08
9.90753e-08
9.90575e-08
9.90395e-08
9.90205e-08
9.90034e-08
9.89762e-08
9.89494e-08
9.89651e-08
1.00197e-07
1.02445e-07
1.84409e-08
1.23938e-07
1.23144e-07
1.22358e-07
1.21292e-07
1.19943e-07
1.18395e-07
1.16811e-07
1.15257e-07
1.13819e-07
1.12488e-07
1.11301e-07
1.1022e-07
1.09268e-07
1.08401e-07
1.0764e-07
1.06944e-07
1.06333e-07
1.05769e-07
1.05274e-07
1.04814e-07
1.04409e-07
1.0403e-07
1.03695e-07
1.0338e-07
1.031e-07
1.02836e-07
1.026e-07
1.02377e-07
1.02177e-07
1.01986e-07
1.01815e-07
1.01652e-07
1.01504e-07
1.01363e-07
1.01235e-07
1.01113e-07
1.01e-07
1.00894e-07
1.00795e-07
1.00702e-07
1.00613e-07
1.00532e-07
1.00453e-07
1.00381e-07
1.00311e-07
1.00248e-07
1.00184e-07
1.00129e-07
1.0007e-07
1.00022e-07
9.99679e-08
9.99249e-08
9.9873e-08
9.98362e-08
9.97894e-08
9.9756e-08
9.97135e-08
9.96835e-08
9.96456e-08
9.96181e-08
9.95824e-08
9.95561e-08
9.95238e-08
9.94996e-08
9.94686e-08
9.94462e-08
9.94188e-08
9.93986e-08
9.93727e-08
9.93526e-08
9.93276e-08
9.93088e-08
9.92863e-08
9.92701e-08
9.92501e-08
9.92362e-08
9.92175e-08
9.92041e-08
9.91854e-08
9.91718e-08
9.91534e-08
9.91399e-08
9.9122e-08
9.91087e-08
9.90909e-08
9.90767e-08
9.90589e-08
9.90411e-08
9.90219e-08
9.9005e-08
9.89779e-08
9.89512e-08
9.89678e-08
1.00247e-07
9.77159e-08
1.93342e-08
1.23937e-07
1.23142e-07
1.22358e-07
1.21297e-07
1.19954e-07
1.18412e-07
1.16832e-07
1.15281e-07
1.13844e-07
1.12514e-07
1.11328e-07
1.10246e-07
1.09294e-07
1.08426e-07
1.07664e-07
1.06967e-07
1.06355e-07
1.05791e-07
1.05294e-07
1.04834e-07
1.04427e-07
1.04047e-07
1.03711e-07
1.03396e-07
1.03115e-07
1.0285e-07
1.02614e-07
1.0239e-07
1.02189e-07
1.01998e-07
1.01826e-07
1.01663e-07
1.01514e-07
1.01373e-07
1.01244e-07
1.01122e-07
1.01009e-07
1.00902e-07
1.00803e-07
1.0071e-07
1.00621e-07
1.00539e-07
1.0046e-07
1.00388e-07
1.00317e-07
1.00254e-07
1.00189e-07
1.00134e-07
1.00076e-07
1.00027e-07
9.99729e-08
9.99298e-08
9.98777e-08
9.98407e-08
9.97938e-08
9.97602e-08
9.97176e-08
9.96874e-08
9.96494e-08
9.96218e-08
9.95859e-08
9.95596e-08
9.95271e-08
9.95029e-08
9.94718e-08
9.94493e-08
9.94217e-08
9.94015e-08
9.93755e-08
9.93553e-08
9.93303e-08
9.93113e-08
9.92888e-08
9.92725e-08
9.92523e-08
9.92384e-08
9.92196e-08
9.92061e-08
9.91873e-08
9.91737e-08
9.91551e-08
9.91416e-08
9.91237e-08
9.91103e-08
9.90924e-08
9.90782e-08
9.90605e-08
9.90428e-08
9.90234e-08
9.90069e-08
9.89797e-08
9.89532e-08
9.89709e-08
1.003e-07
9.22226e-08
2.02766e-08
1.23937e-07
1.23141e-07
1.22358e-07
1.21302e-07
1.19965e-07
1.18429e-07
1.16854e-07
1.15306e-07
1.13872e-07
1.12543e-07
1.11356e-07
1.10275e-07
1.09321e-07
1.08453e-07
1.0769e-07
1.06992e-07
1.06379e-07
1.05814e-07
1.05316e-07
1.04854e-07
1.04447e-07
1.04066e-07
1.03729e-07
1.03413e-07
1.03132e-07
1.02866e-07
1.02629e-07
1.02404e-07
1.02203e-07
1.02011e-07
1.01839e-07
1.01675e-07
1.01526e-07
1.01384e-07
1.01255e-07
1.01132e-07
1.01018e-07
1.00911e-07
1.00811e-07
1.00718e-07
1.00629e-07
1.00547e-07
1.00468e-07
1.00395e-07
1.00324e-07
1.0026e-07
1.00196e-07
1.00141e-07
1.00082e-07
1.00033e-07
9.99784e-08
9.99351e-08
9.98828e-08
9.98457e-08
9.97986e-08
9.97649e-08
9.97221e-08
9.96917e-08
9.96536e-08
9.96258e-08
9.95898e-08
9.95634e-08
9.95307e-08
9.95064e-08
9.94752e-08
9.94526e-08
9.94249e-08
9.94046e-08
9.93785e-08
9.93583e-08
9.93332e-08
9.93142e-08
9.92915e-08
9.92752e-08
9.92548e-08
9.92408e-08
9.92219e-08
9.92083e-08
9.91895e-08
9.91758e-08
9.91572e-08
9.91436e-08
9.91256e-08
9.91122e-08
9.90941e-08
9.90799e-08
9.90624e-08
9.90448e-08
9.90252e-08
9.90089e-08
9.89818e-08
9.89555e-08
9.89743e-08
1.00359e-07
8.73244e-08
2.12712e-08
1.23937e-07
1.2314e-07
1.22358e-07
1.21306e-07
1.19977e-07
1.18447e-07
1.16877e-07
1.15333e-07
1.13901e-07
1.12573e-07
1.11387e-07
1.10305e-07
1.09351e-07
1.08482e-07
1.07718e-07
1.07019e-07
1.06405e-07
1.05838e-07
1.0534e-07
1.04877e-07
1.04469e-07
1.04087e-07
1.03749e-07
1.03431e-07
1.03149e-07
1.02883e-07
1.02645e-07
1.02419e-07
1.02218e-07
1.02025e-07
1.01852e-07
1.01688e-07
1.01538e-07
1.01396e-07
1.01266e-07
1.01143e-07
1.01029e-07
1.00921e-07
1.00821e-07
1.00727e-07
1.00638e-07
1.00555e-07
1.00476e-07
1.00403e-07
1.00331e-07
1.00268e-07
1.00203e-07
1.00147e-07
1.00088e-07
1.00039e-07
9.99845e-08
9.9941e-08
9.98885e-08
9.98512e-08
9.98038e-08
9.977e-08
9.9727e-08
9.96965e-08
9.96581e-08
9.96302e-08
9.95941e-08
9.95675e-08
9.95348e-08
9.95104e-08
9.9479e-08
9.94563e-08
9.94285e-08
9.94081e-08
9.93819e-08
9.93616e-08
9.93364e-08
9.93173e-08
9.92945e-08
9.92781e-08
9.92576e-08
9.92435e-08
9.92245e-08
9.92108e-08
9.91919e-08
9.91782e-08
9.91594e-08
9.91458e-08
9.91277e-08
9.91143e-08
9.9096e-08
9.90819e-08
9.90644e-08
9.90469e-08
9.90272e-08
9.90111e-08
9.89841e-08
9.8958e-08
9.89781e-08
1.00421e-07
8.29519e-08
2.23211e-08
1.23937e-07
1.23138e-07
1.22358e-07
1.21312e-07
1.19989e-07
1.18466e-07
1.16902e-07
1.15361e-07
1.13932e-07
1.12605e-07
1.11419e-07
1.10337e-07
1.09383e-07
1.08513e-07
1.07748e-07
1.07047e-07
1.06432e-07
1.05864e-07
1.05365e-07
1.04901e-07
1.04491e-07
1.04108e-07
1.0377e-07
1.03451e-07
1.03168e-07
1.02901e-07
1.02662e-07
1.02436e-07
1.02233e-07
1.0204e-07
1.01867e-07
1.01701e-07
1.01551e-07
1.01409e-07
1.01278e-07
1.01154e-07
1.0104e-07
1.00932e-07
1.00831e-07
1.00737e-07
1.00647e-07
1.00564e-07
1.00484e-07
1.00412e-07
1.0034e-07
1.00275e-07
1.0021e-07
1.00155e-07
1.00095e-07
1.00046e-07
9.9991e-08
9.99473e-08
9.98946e-08
9.98571e-08
9.98095e-08
9.97755e-08
9.97323e-08
9.97016e-08
9.96631e-08
9.96351e-08
9.95988e-08
9.95721e-08
9.95392e-08
9.95147e-08
9.94832e-08
9.94604e-08
9.94324e-08
9.94119e-08
9.93856e-08
9.93653e-08
9.93399e-08
9.93208e-08
9.92979e-08
9.92814e-08
9.92607e-08
9.92465e-08
9.92273e-08
9.92136e-08
9.91946e-08
9.91808e-08
9.91619e-08
9.91483e-08
9.913e-08
9.91166e-08
9.90982e-08
9.9084e-08
9.90666e-08
9.90493e-08
9.90294e-08
9.90135e-08
9.89866e-08
9.89608e-08
9.89822e-08
1.00488e-07
7.9044e-08
2.34294e-08
1.23937e-07
1.23136e-07
1.22358e-07
1.21317e-07
1.20002e-07
1.18486e-07
1.16928e-07
1.15391e-07
1.13965e-07
1.12639e-07
1.11454e-07
1.10371e-07
1.09416e-07
1.08545e-07
1.0778e-07
1.07078e-07
1.06461e-07
1.05892e-07
1.05392e-07
1.04926e-07
1.04516e-07
1.04132e-07
1.03792e-07
1.03472e-07
1.03189e-07
1.0292e-07
1.02681e-07
1.02453e-07
1.0225e-07
1.02057e-07
1.01882e-07
1.01716e-07
1.01565e-07
1.01422e-07
1.01291e-07
1.01167e-07
1.01052e-07
1.00944e-07
1.00842e-07
1.00748e-07
1.00657e-07
1.00574e-07
1.00494e-07
1.00421e-07
1.00348e-07
1.00284e-07
1.00218e-07
1.00162e-07
1.00103e-07
1.00053e-07
9.9998e-08
9.99542e-08
9.99012e-08
9.98635e-08
9.98157e-08
9.97815e-08
9.97381e-08
9.97072e-08
9.96685e-08
9.96403e-08
9.96039e-08
9.9577e-08
9.95439e-08
9.95193e-08
9.94877e-08
9.94648e-08
9.94366e-08
9.9416e-08
9.93896e-08
9.93692e-08
9.93438e-08
9.93246e-08
9.93015e-08
9.92849e-08
9.92641e-08
9.92498e-08
9.92305e-08
9.92167e-08
9.91975e-08
9.91837e-08
9.91647e-08
9.9151e-08
9.91326e-08
9.91191e-08
9.91006e-08
9.90864e-08
9.9069e-08
9.90519e-08
9.90318e-08
9.90162e-08
9.89894e-08
9.89638e-08
9.89867e-08
1.00559e-07
7.55491e-08
2.4599e-08
1.23937e-07
1.23135e-07
1.22357e-07
1.21323e-07
1.20016e-07
1.18508e-07
1.16955e-07
1.15423e-07
1.13999e-07
1.12675e-07
1.1149e-07
1.10408e-07
1.09452e-07
1.0858e-07
1.07813e-07
1.0711e-07
1.06492e-07
1.05922e-07
1.0542e-07
1.04953e-07
1.04542e-07
1.04157e-07
1.03816e-07
1.03495e-07
1.0321e-07
1.02941e-07
1.027e-07
1.02472e-07
1.02268e-07
1.02074e-07
1.01899e-07
1.01732e-07
1.01581e-07
1.01437e-07
1.01305e-07
1.0118e-07
1.01065e-07
1.00956e-07
1.00854e-07
1.00759e-07
1.00668e-07
1.00585e-07
1.00504e-07
1.0043e-07
1.00358e-07
1.00293e-07
1.00227e-07
1.00171e-07
1.00111e-07
1.00061e-07
1.00006e-07
9.99616e-08
9.99084e-08
9.98704e-08
9.98224e-08
9.97879e-08
9.97443e-08
9.97132e-08
9.96743e-08
9.9646e-08
9.96094e-08
9.95824e-08
9.95491e-08
9.95244e-08
9.94927e-08
9.94696e-08
9.94412e-08
9.94206e-08
9.9394e-08
9.93736e-08
9.9348e-08
9.93287e-08
9.93055e-08
9.92888e-08
9.92678e-08
9.92534e-08
9.92339e-08
9.922e-08
9.92008e-08
9.91869e-08
9.91678e-08
9.9154e-08
9.91355e-08
9.9122e-08
9.91033e-08
9.90891e-08
9.90716e-08
9.90547e-08
9.90344e-08
9.90191e-08
9.89925e-08
9.89671e-08
9.89915e-08
1.00633e-07
7.2423e-08
2.58328e-08
1.23937e-07
1.23133e-07
1.22357e-07
1.21329e-07
1.2003e-07
1.1853e-07
1.16984e-07
1.15457e-07
1.14036e-07
1.12713e-07
1.11529e-07
1.10446e-07
1.0949e-07
1.08617e-07
1.07849e-07
1.07145e-07
1.06526e-07
1.05954e-07
1.05451e-07
1.04982e-07
1.0457e-07
1.04183e-07
1.03841e-07
1.03519e-07
1.03233e-07
1.02963e-07
1.02721e-07
1.02492e-07
1.02288e-07
1.02092e-07
1.01916e-07
1.01749e-07
1.01597e-07
1.01452e-07
1.0132e-07
1.01194e-07
1.01078e-07
1.00969e-07
1.00867e-07
1.00771e-07
1.0068e-07
1.00596e-07
1.00515e-07
1.00441e-07
1.00368e-07
1.00303e-07
1.00237e-07
1.0018e-07
1.00119e-07
1.0007e-07
1.00014e-07
9.99695e-08
9.99161e-08
9.98778e-08
9.98296e-08
9.97949e-08
9.97511e-08
9.97198e-08
9.96806e-08
9.96521e-08
9.96154e-08
9.95882e-08
9.95547e-08
9.95299e-08
9.9498e-08
9.94748e-08
9.94463e-08
9.94255e-08
9.93988e-08
9.93783e-08
9.93525e-08
9.93332e-08
9.93098e-08
9.9293e-08
9.92719e-08
9.92573e-08
9.92377e-08
9.92237e-08
9.92043e-08
9.91904e-08
9.91711e-08
9.91573e-08
9.91387e-08
9.91251e-08
9.91063e-08
9.9092e-08
9.90745e-08
9.90578e-08
9.90373e-08
9.90223e-08
9.89958e-08
9.89707e-08
9.89968e-08
1.00709e-07
6.96279e-08
2.71332e-08
1.23937e-07
1.23131e-07
1.22357e-07
1.21335e-07
1.20045e-07
1.18553e-07
1.17015e-07
1.15492e-07
1.14074e-07
1.12753e-07
1.1157e-07
1.10487e-07
1.0953e-07
1.08656e-07
1.07887e-07
1.07181e-07
1.06561e-07
1.05987e-07
1.05483e-07
1.05013e-07
1.04599e-07
1.04211e-07
1.03868e-07
1.03545e-07
1.03258e-07
1.02986e-07
1.02744e-07
1.02514e-07
1.02308e-07
1.02112e-07
1.01935e-07
1.01767e-07
1.01614e-07
1.01469e-07
1.01336e-07
1.0121e-07
1.01093e-07
1.00983e-07
1.0088e-07
1.00784e-07
1.00692e-07
1.00608e-07
1.00527e-07
1.00452e-07
1.00379e-07
1.00313e-07
1.00247e-07
1.0019e-07
1.00129e-07
1.00079e-07
1.00023e-07
9.99781e-08
9.99243e-08
9.98858e-08
9.98373e-08
9.98024e-08
9.97583e-08
9.97268e-08
9.96874e-08
9.96587e-08
9.96218e-08
9.95945e-08
9.95608e-08
9.95358e-08
9.95037e-08
9.94804e-08
9.94517e-08
9.94307e-08
9.94039e-08
9.93833e-08
9.93575e-08
9.9338e-08
9.93145e-08
9.92976e-08
9.92762e-08
9.92616e-08
9.92417e-08
9.92277e-08
9.92082e-08
9.91942e-08
9.91748e-08
9.91609e-08
9.91421e-08
9.91285e-08
9.91095e-08
9.90952e-08
9.90775e-08
9.90611e-08
9.90405e-08
9.90257e-08
9.89994e-08
9.89745e-08
9.90024e-08
1.00787e-07
6.71318e-08
2.85021e-08
1.23937e-07
1.23129e-07
1.22357e-07
1.21341e-07
1.2006e-07
1.18577e-07
1.17046e-07
1.15529e-07
1.14114e-07
1.12795e-07
1.11612e-07
1.10529e-07
1.09572e-07
1.08697e-07
1.07927e-07
1.07219e-07
1.06598e-07
1.06023e-07
1.05517e-07
1.05046e-07
1.0463e-07
1.04241e-07
1.03896e-07
1.03572e-07
1.03284e-07
1.03011e-07
1.02768e-07
1.02536e-07
1.0233e-07
1.02132e-07
1.01955e-07
1.01786e-07
1.01632e-07
1.01486e-07
1.01353e-07
1.01226e-07
1.01109e-07
1.00998e-07
1.00895e-07
1.00798e-07
1.00706e-07
1.00621e-07
1.00539e-07
1.00464e-07
1.0039e-07
1.00324e-07
1.00257e-07
1.002e-07