/*--------------------------------*- C++ -*----------------------------------*\
| =========                 |                                                 |
| \\      /  F ield         | OpenFOAM: The Open Source CFD Toolbox           |
|  \\    /   O peration     | Version:  v2012                                 |
|   \\  /    A nd           | Website:  www.openfoam.com                      |
|    \\/     M anipulation  |                                                 |
\*---------------------------------------------------------------------------*/
FoamFile
{
    version     2.0;
    format      ascii;
    class       volScalarField;
    location    "54";
    object      omega;
}
// * * * * * * * * * * * * * * * * * * * * * * * * * * * * * * * * * * * * * //

dimensions      [0 0 -1 0 0 0 0];


internalField   nonuniform List<scalar> 
209825
(
8261.78
7569.96
6999.47
6539.78
6174.8
5886.47
5656.79
5472.33
5321.71
5197.79
5093.97
5006.76
4932.06
4868.3
4812.66
4764.61
4721.99
4684.87
4651.46
4622.19
4595.48
4572.01
4550.32
4531.22
4513.34
4497.62
4482.72
4469.64
4457.07
4446.1
4435.41
4426.13
4416.97
4409.07
4401.16
4394.4
4387.55
4381.73
4375.75
4370.71
4365.5
4361.13
4356.52
4352.74
4348.7
4345.39
4341.82
4338.89
4335.77
4333.21
4330.46
4328.24
4325.89
4323.87
4321.78
4320.03
4318.18
4316.64
4314.97
4313.64
4312.23
4311.14
4309.85
4308.96
4307.85
4307.09
4306.08
4305.44
4304.57
4304.09
4303.36
4302.97
4302.35
4302.02
4301.42
4301.06
4300.48
4300.17
4299.66
4299.4
4298.96
4298.76
4298.37
4298.23
4297.91
4297.94
4297.88
4298.08
4298.07
4298.42
4298.42
4299.09
4299.83
4327.99
4436.41
113085
8261.78
7569.96
6999.47
6539.78
6174.79
5886.45
5656.75
5472.29
5321.66
5197.73
5093.9
5006.68
4931.98
4868.22
4812.58
4764.52
4721.9
4684.77
4651.35
4622.09
4595.37
4571.9
4550.21
4531.11
4513.23
4497.51
4482.6
4469.52
4456.95
4445.98
4435.29
4426.01
4416.85
4408.95
4401.04
4394.27
4387.42
4381.61
4375.62
4370.58
4365.37
4361
4356.39
4352.61
4348.57
4345.26
4341.69
4338.76
4335.64
4333.07
4330.32
4328.11
4325.75
4323.74
4321.64
4319.9
4318.04
4316.51
4314.83
4313.51
4312.1
4311.01
4309.71
4308.82
4307.72
4306.95
4305.94
4305.3
4304.44
4303.95
4303.22
4302.83
4302.21
4301.88
4301.28
4300.92
4300.35
4300.03
4299.52
4299.26
4298.82
4298.62
4298.23
4298.09
4297.78
4297.8
4297.74
4297.94
4297.93
4298.28
4298.28
4298.95
4299.69
4327.9
4436.31
109786
8261.78
7569.97
6999.47
6539.76
6174.74
5886.37
5656.63
5472.14
5321.48
5197.52
5093.67
5006.43
4931.71
4867.94
4812.28
4764.21
4721.57
4684.44
4651.01
4621.74
4595.02
4571.54
4549.84
4530.73
4512.85
4497.12
4482.22
4469.13
4456.56
4445.58
4434.89
4425.6
4416.44
4408.54
4400.62
4393.86
4387
4381.19
4375.2
4370.16
4364.95
4360.58
4355.97
4352.18
4348.14
4344.83
4341.26
4338.33
4335.2
4332.64
4329.89
4327.67
4325.31
4323.3
4321.2
4319.45
4317.6
4316.06
4314.39
4313.06
4311.65
4310.56
4309.27
4308.37
4307.27
4306.5
4305.49
4304.85
4303.98
4303.5
4302.77
4302.38
4301.76
4301.43
4300.83
4300.47
4299.89
4299.57
4299.07
4298.81
4298.37
4298.16
4297.78
4297.64
4297.32
4297.35
4297.28
4297.48
4297.47
4297.82
4297.82
4298.49
4299.23
4327.53
4435.94
105999
8261.78
7569.98
6999.47
6539.73
6174.66
5886.22
5656.43
5471.88
5321.17
5197.17
5093.27
5006
4931.25
4867.45
4811.77
4763.68
4721.02
4683.87
4650.43
4621.14
4594.41
4570.92
4549.21
4530.09
4512.2
4496.46
4481.55
4468.46
4455.88
4444.9
4434.2
4424.91
4415.74
4407.83
4399.92
4393.15
4386.29
4380.47
4374.48
4369.43
4364.22
4359.85
4355.23
4351.45
4347.4
4344.09
4340.52
4337.59
4334.45
4331.89
4329.14
4326.92
4324.56
4322.55
4320.44
4318.7
4316.84
4315.3
4313.63
4312.3
4310.89
4309.8
4308.5
4307.61
4306.5
4305.74
4304.72
4304.08
4303.21
4302.73
4302
4301.61
4300.99
4300.65
4300.06
4299.69
4299.12
4298.8
4298.29
4298.03
4297.59
4297.38
4297
4296.86
4296.54
4296.56
4296.49
4296.69
4296.69
4297.03
4297.03
4297.7
4298.44
4326.9
4435.28
102105
8261.78
7570
6999.48
6539.69
6174.54
5886.02
5656.14
5471.5
5320.72
5196.66
5092.71
5005.39
4930.59
4866.75
4811.04
4762.92
4720.24
4683.06
4649.6
4620.29
4593.54
4570.03
4548.31
4529.18
4511.27
4495.53
4480.6
4467.5
4454.91
4443.92
4433.22
4423.92
4414.75
4406.83
4398.91
4392.13
4385.27
4379.44
4373.45
4368.4
4363.19
4358.81
4354.19
4350.4
4346.35
4343.04
4339.46
4336.53
4333.39
4330.83
4328.07
4325.85
4323.49
4321.47
4319.37
4317.62
4315.76
4314.22
4312.55
4311.22
4309.8
4308.71
4307.41
4306.52
4305.41
4304.64
4303.63
4302.98
4302.12
4301.63
4300.9
4300.5
4299.89
4299.55
4298.95
4298.59
4298.01
4297.69
4297.18
4296.92
4296.48
4296.27
4295.88
4295.74
4295.43
4295.45
4295.37
4295.57
4295.57
4295.9
4295.9
4296.57
4297.32
4325.99
4434.34
98208
8261.78
7570.02
6999.49
6539.64
6174.38
5885.75
5655.75
5471.01
5320.14
5196
5091.97
5004.59
4929.73
4865.84
4810.08
4761.93
4719.21
4682
4648.51
4619.18
4592.4
4568.88
4547.13
4527.99
4510.06
4494.3
4479.37
4466.25
4453.65
4442.65
4431.94
4422.63
4413.45
4405.52
4397.59
4390.81
4383.94
4378.11
4372.11
4367.06
4361.83
4357.45
4352.83
4349.04
4344.98
4341.66
4338.08
4335.15
4332.01
4329.44
4326.68
4324.45
4322.09
4320.07
4317.97
4316.21
4314.35
4312.81
4311.13
4309.8
4308.39
4307.29
4305.99
4305.09
4303.98
4303.22
4302.2
4301.55
4300.68
4300.2
4299.46
4299.07
4298.45
4298.11
4297.51
4297.14
4296.57
4296.25
4295.74
4295.47
4295.03
4294.82
4294.43
4294.29
4293.97
4293.99
4293.91
4294.11
4294.1
4294.44
4294.44
4295.1
4295.86
4324.8
4433.12
94348
8261.78
7570.05
6999.5
6539.57
6174.19
5885.42
5655.28
5470.41
5319.42
5195.17
5091.06
5003.6
4928.67
4864.72
4808.91
4760.7
4717.94
4680.69
4647.17
4617.8
4591
4567.45
4545.68
4526.51
4508.57
4492.79
4477.84
4464.71
4452.09
4441.08
4430.35
4421.03
4411.84
4403.91
4395.96
4389.18
4382.3
4376.46
4370.45
4365.39
4360.16
4355.77
4351.14
4347.34
4343.29
4339.96
4336.38
4333.43
4330.29
4327.72
4324.96
4322.73
4320.36
4318.34
4316.23
4314.47
4312.61
4311.07
4309.39
4308.05
4306.63
4305.53
4304.23
4303.33
4302.22
4301.45
4300.43
4299.78
4298.91
4298.42
4297.69
4297.29
4296.67
4296.33
4295.73
4295.36
4294.78
4294.46
4293.95
4293.68
4293.24
4293.03
4292.64
4292.5
4292.18
4292.19
4292.1
4292.29
4292.29
4292.62
4292.62
4293.28
4294.05
4323.33
4431.61
90544
8261.78
7570.08
6999.52
6539.49
6173.96
5885.02
5654.72
5469.69
5318.56
5194.19
5089.97
5002.41
4927.4
4863.38
4807.5
4759.24
4716.42
4679.13
4645.56
4616.16
4589.32
4565.74
4543.94
4524.75
4506.78
4490.98
4476
4462.86
4450.22
4439.19
4428.45
4419.12
4409.92
4401.97
4394.02
4387.22
4380.33
4374.48
4368.47
4363.4
4358.16
4353.76
4349.13
4345.32
4341.26
4337.93
4334.34
4331.39
4328.24
4325.66
4322.9
4320.66
4318.29
4316.27
4314.15
4312.39
4310.52
4308.98
4307.29
4305.95
4304.53
4303.43
4302.13
4301.22
4300.11
4299.34
4298.31
4297.66
4296.79
4296.3
4295.56
4295.16
4294.54
4294.2
4293.59
4293.23
4292.65
4292.32
4291.81
4291.54
4291.09
4290.88
4290.49
4290.35
4290.03
4290.03
4289.94
4290.13
4290.13
4290.45
4290.45
4291.1
4291.88
4321.57
4429.82
86804.9
8261.78
7570.12
6999.53
6539.39
6173.7
5884.56
5654.06
5468.86
5317.56
5193.05
5088.7
5001.03
4925.93
4861.81
4805.86
4757.53
4714.65
4677.3
4643.69
4614.24
4587.36
4563.74
4541.91
4522.69
4504.69
4488.87
4473.87
4460.7
4448.05
4437
4426.24
4416.89
4407.67
4399.71
4391.74
4384.93
4378.03
4372.17
4366.15
4361.07
4355.82
4351.42
4346.77
4342.96
4338.89
4335.55
4331.95
4329
4325.85
4323.26
4320.49
4318.25
4315.87
4313.84
4311.72
4309.96
4308.09
4306.54
4304.85
4303.51
4302.08
4300.98
4299.67
4298.76
4297.64
4296.87
4295.84
4295.19
4294.31
4293.82
4293.08
4292.68
4292.05
4291.71
4291.1
4290.73
4290.15
4289.82
4289.31
4289.04
4288.59
4288.38
4287.98
4287.84
4287.52
4287.51
4287.42
4287.6
4287.6
4287.91
4287.91
4288.56
4289.35
4319.53
4427.74
83133.4
8261.77
7570.16
6999.55
6539.29
6173.39
5884.03
5653.31
5467.9
5316.42
5191.74
5087.25
4999.45
4924.23
4860.02
4803.98
4755.57
4712.62
4675.22
4641.54
4612.04
4585.12
4561.46
4539.59
4520.33
4502.3
4486.45
4471.42
4458.23
4445.55
4434.48
4423.7
4414.34
4405.1
4397.12
4389.14
4382.32
4375.4
4369.53
4363.49
4358.4
4353.14
4348.73
4344.08
4340.26
4336.17
4332.83
4329.22
4326.26
4323.1
4320.51
4317.73
4315.49
4313.1
4311.07
4308.94
4307.18
4305.3
4303.74
4302.05
4300.7
4299.27
4298.16
4296.85
4295.94
4294.82
4294.04
4293.01
4292.36
4291.47
4290.98
4290.23
4289.83
4289.2
4288.85
4288.25
4287.88
4287.29
4286.96
4286.44
4286.17
4285.72
4285.51
4285.11
4284.96
4284.64
4284.63
4284.53
4284.7
4284.7
4285
4285
4285.65
4286.46
4317.19
4425.38
79527.8
8261.77
7570.21
6999.57
6539.17
6173.06
5883.44
5652.47
5466.83
5315.14
5190.27
5085.61
4997.67
4922.33
4858
4801.86
4753.36
4710.33
4672.86
4639.12
4609.56
4582.58
4558.88
4536.96
4517.67
4499.6
4483.72
4468.66
4455.44
4442.73
4431.64
4420.84
4411.45
4402.19
4394.2
4386.2
4379.36
4372.43
4366.54
4360.49
4355.39
4350.12
4345.69
4341.03
4337.2
4333.11
4329.75
4326.14
4323.17
4320
4317.4
4314.62
4312.36
4309.97
4307.93
4305.8
4304.03
4302.14
4300.59
4298.89
4297.54
4296.1
4294.99
4293.67
4292.75
4291.62
4290.84
4289.81
4289.15
4288.27
4287.76
4287.02
4286.61
4285.98
4285.63
4285.02
4284.65
4284.06
4283.73
4283.21
4282.93
4282.48
4282.26
4281.86
4281.71
4281.39
4281.37
4281.26
4281.42
4281.42
4281.72
4281.71
4282.36
4283.18
4314.55
4422.73
75982.3
8261.77
7570.26
6999.6
6539.04
6172.68
5882.79
5651.53
5465.63
5313.7
5188.63
5083.79
4995.69
4920.2
4855.75
4799.49
4750.9
4707.78
4670.22
4636.41
4606.79
4579.76
4556
4534.03
4514.69
4496.59
4480.67
4465.57
4452.32
4439.58
4428.47
4417.64
4408.23
4398.94
4390.93
4382.91
4376.06
4369.11
4363.21
4357.14
4352.02
4346.74
4342.3
4337.63
4333.78
4329.68
4326.32
4322.69
4319.72
4316.54
4313.93
4311.13
4308.87
4306.47
4304.43
4302.29
4300.51
4298.62
4297.06
4295.35
4294
4292.55
4291.43
4290.11
4289.19
4288.05
4287.27
4286.23
4285.57
4284.68
4284.18
4283.42
4283.01
4282.38
4282.03
4281.42
4281.04
4280.45
4280.12
4279.59
4279.31
4278.85
4278.63
4278.23
4278.07
4277.75
4277.73
4277.6
4277.76
4277.76
4278.04
4278.04
4278.68
4279.53
4311.61
4419.81
72493.1
8261.77
7570.32
6999.63
6538.9
6172.27
5882.06
5650.5
5464.31
5312.13
5186.82
5081.78
4993.49
4917.85
4853.26
4796.88
4748.17
4704.96
4667.31
4633.42
4603.73
4576.63
4552.81
4530.79
4511.41
4493.25
4477.29
4462.16
4448.87
4436.1
4424.95
4414.1
4404.66
4395.35
4387.32
4379.28
4372.4
4365.43
4359.51
4353.43
4348.3
4343
4338.55
4333.86
4330
4325.89
4322.51
4318.88
4315.89
4312.7
4310.09
4307.28
4305.01
4302.6
4300.55
4298.4
4296.62
4294.72
4293.15
4291.44
4290.08
4288.62
4287.5
4286.17
4285.25
4284.11
4283.32
4282.27
4281.61
4280.71
4280.2
4279.45
4279.03
4278.39
4278.04
4277.43
4277.05
4276.45
4276.12
4275.59
4275.31
4274.84
4274.62
4274.21
4274.05
4273.73
4273.69
4273.56
4273.71
4273.71
4273.98
4273.98
4274.61
4275.48
4308.36
4416.61
69066.9
8261.77
7570.39
6999.66
6538.74
6171.82
5881.28
5649.38
5462.87
5310.4
5184.84
5079.57
4991.09
4915.27
4850.53
4794.01
4745.19
4701.86
4664.12
4630.14
4600.37
4573.2
4549.32
4527.24
4507.8
4489.59
4473.59
4458.41
4445.08
4432.28
4421.1
4410.21
4400.75
4391.41
4383.35
4375.29
4368.39
4361.4
4355.46
4349.36
4344.21
4338.89
4334.43
4329.72
4325.85
4321.72
4318.34
4314.69
4311.69
4308.49
4305.87
4303.05
4300.77
4298.35
4296.3
4294.14
4292.35
4290.44
4288.86
4287.14
4285.77
4284.31
4283.19
4281.85
4280.92
4279.77
4278.98
4277.93
4277.26
4276.36
4275.84
4275.08
4274.66
4274.02
4273.66
4273.04
4272.66
4272.06
4271.72
4271.19
4270.9
4270.44
4270.21
4269.79
4269.64
4269.31
4269.27
4269.12
4269.26
4269.26
4269.52
4269.51
4270.13
4271.03
4304.8
4413.13
65709.6
8261.77
7570.46
6999.7
6538.58
6171.34
5880.43
5648.16
5461.3
5308.52
5182.69
5077.17
4988.48
4912.47
4847.56
4790.89
4741.94
4698.49
4660.65
4626.57
4596.71
4569.46
4545.51
4523.36
4503.86
4485.6
4469.55
4454.32
4440.96
4428.11
4416.89
4405.97
4396.48
4387.11
4379.03
4370.93
4364.01
4356.99
4351.04
4344.91
4339.75
4334.41
4329.93
4325.21
4321.33
4317.18
4313.78
4310.12
4307.11
4303.9
4301.26
4298.43
4296.14
4293.72
4291.65
4289.48
4287.68
4285.76
4284.18
4282.45
4281.08
4279.61
4278.48
4277.13
4276.19
4275.04
4274.24
4273.18
4272.51
4271.6
4271.08
4270.31
4269.89
4269.24
4268.88
4268.26
4267.88
4267.27
4266.93
4266.39
4266.1
4265.63
4265.4
4264.98
4264.81
4264.49
4264.43
4264.27
4264.41
4264.4
4264.65
4264.64
4265.25
4266.18
4300.92
4409.38
62426.8
8261.76
7570.53
6999.74
6538.4
6170.82
5879.51
5646.84
5459.62
5306.49
5180.36
5074.58
4985.66
4909.44
4844.35
4787.52
4738.41
4694.84
4656.88
4622.7
4592.75
4565.41
4541.38
4519.16
4499.6
4481.28
4465.17
4449.89
4436.48
4423.59
4412.34
4401.37
4391.85
4382.45
4374.33
4366.21
4359.26
4352.22
4346.24
4340.1
4334.91
4329.55
4325.05
4320.31
4316.41
4312.25
4308.84
4305.16
4302.14
4298.91
4296.27
4293.42
4291.13
4288.68
4286.61
4284.43
4282.62
4280.69
4279.1
4277.37
4275.98
4274.5
4273.37
4272.01
4271.07
4269.9
4269.1
4268.04
4267.36
4266.44
4265.92
4265.14
4264.71
4264.06
4263.7
4263.07
4262.68
4262.07
4261.73
4261.18
4260.89
4260.41
4260.18
4259.75
4259.58
4259.25
4259.19
4259.02
4259.15
4259.13
4259.37
4259.35
4259.96
4260.92
4296.7
4405.37
59223.9
8261.76
7570.61
6999.78
6538.22
6170.26
5878.53
5645.43
5457.8
5304.32
5177.86
5071.79
4982.61
4906.17
4840.89
4783.88
4734.62
4690.91
4652.82
4618.52
4588.47
4561.04
4536.93
4514.63
4495
4476.61
4460.45
4445.11
4431.65
4418.72
4407.42
4396.41
4386.85
4377.41
4369.27
4361.11
4354.14
4347.07
4341.07
4334.9
4329.69
4324.31
4319.79
4315.03
4311.11
4306.93
4303.5
4299.81
4296.78
4293.53
4290.88
4288.02
4285.71
4283.25
4281.17
4278.97
4277.16
4275.22
4273.62
4271.87
4270.49
4268.99
4267.85
4266.48
4265.53
4264.36
4263.55
4262.48
4261.8
4260.87
4260.34
4259.56
4259.12
4258.46
4258.1
4257.47
4257.08
4256.46
4256.11
4255.56
4255.26
4254.78
4254.54
4254.11
4253.94
4253.6
4253.53
4253.34
4253.46
4253.44
4253.67
4253.64
4254.24
4255.24
4292.14
4401.09
56105.6
8261.75
7570.69
6999.83
6538.02
6169.67
5877.48
5643.92
5455.86
5301.98
5175.18
5068.8
4979.35
4902.67
4837.17
4779.97
4730.55
4686.68
4648.46
4614.04
4583.88
4556.35
4532.15
4509.77
4490.06
4471.6
4455.37
4439.98
4426.47
4413.48
4402.13
4391.09
4381.48
4372.01
4363.83
4355.64
4348.63
4341.54
4335.51
4329.31
4324.08
4318.67
4314.13
4309.35
4305.42
4301.22
4297.77
4294.06
4291.01
4287.75
4285.08
4282.21
4279.88
4277.41
4275.32
4273.11
4271.29
4269.33
4267.73
4265.97
4264.57
4263.07
4261.92
4260.54
4259.58
4258.4
4257.59
4256.51
4255.82
4254.88
4254.35
4253.56
4253.12
4252.45
4252.08
4251.44
4251.05
4250.43
4250.07
4249.51
4249.21
4248.72
4248.48
4248.04
4247.86
4247.52
4247.45
4247.24
4247.35
4247.33
4247.54
4247.51
4248.1
4249.13
4287.23
4396.54
53076.4
8261.75
7570.78
6999.88
6537.82
6169.05
5876.37
5642.32
5453.8
5299.5
5172.33
5065.62
4975.88
4898.93
4833.21
4775.8
4726.2
4682.17
4643.81
4609.25
4578.98
4551.33
4527.04
4504.56
4484.78
4466.24
4449.95
4434.49
4420.92
4407.87
4396.48
4385.38
4375.74
4366.22
4358.01
4349.78
4342.74
4335.61
4329.55
4323.32
4318.07
4312.64
4308.08
4303.27
4299.32
4295.1
4291.63
4287.9
4284.84
4281.56
4278.88
4275.99
4273.65
4271.16
4269.06
4266.84
4265
4263.03
4261.42
4259.65
4258.24
4256.72
4255.57
4254.18
4253.21
4252.02
4251.2
4250.11
4249.41
4248.47
4247.93
4247.13
4246.68
4246.01
4245.63
4244.99
4244.59
4243.97
4243.6
4243.04
4242.74
4242.24
4241.99
4241.54
4241.36
4241.02
4240.93
4240.71
4240.81
4240.78
4240.97
4240.94
4241.52
4242.6
4281.95
4391.7
50140.4
8261.74
7570.88
6999.93
6537.6
6168.4
5875.2
5640.63
5451.61
5296.87
5169.29
5062.23
4972.18
4894.96
4828.99
4771.37
4721.57
4677.36
4638.84
4604.15
4573.75
4545.99
4521.59
4499.02
4479.15
4460.53
4444.16
4428.63
4415
4401.9
4390.45
4379.3
4369.61
4360.05
4351.8
4343.53
4336.46
4329.29
4323.2
4316.94
4311.66
4306.2
4301.62
4296.79
4292.81
4288.57
4285.08
4281.34
4278.25
4274.96
4272.25
4269.35
4266.99
4264.49
4262.38
4260.14
4258.29
4256.31
4254.69
4252.9
4251.49
4249.95
4248.79
4247.39
4246.42
4245.21
4244.38
4243.28
4242.58
4241.63
4241.07
4240.27
4239.82
4239.13
4238.75
4238.11
4237.7
4237.07
4236.7
4236.13
4235.82
4235.31
4235.06
4234.61
4234.42
4234.07
4233.98
4233.74
4233.83
4233.79
4233.97
4233.92
4234.5
4235.62
4276.29
4386.54
47301.6
8261.74
7570.98
6999.99
6537.38
6167.71
5873.97
5638.84
5449.3
5294.08
5166.08
5058.64
4968.26
4890.74
4824.51
4766.66
4716.65
4672.26
4633.58
4598.73
4568.2
4540.31
4515.8
4493.13
4473.16
4454.46
4438.01
4422.41
4408.71
4395.54
4384.04
4372.84
4363.1
4353.49
4345.19
4336.88
4329.77
4322.57
4316.45
4310.16
4304.84
4299.35
4294.75
4289.89
4285.89
4281.62
4278.12
4274.35
4271.25
4267.93
4265.21
4262.29
4259.91
4257.4
4255.27
4253.01
4251.16
4249.16
4247.53
4245.73
4244.3
4242.75
4241.58
4240.17
4239.18
4237.97
4237.13
4236.02
4235.31
4234.35
4233.79
4232.97
4232.51
4231.82
4231.43
4230.78
4230.37
4229.73
4229.36
4228.78
4228.46
4227.95
4227.69
4227.23
4227.04
4226.68
4226.58
4226.33
4226.4
4226.36
4226.52
4226.46
4227.02
4228.19
4270.23
4381.03
44563.2
8261.73
7571.08
7000.06
6537.15
6166.99
5872.67
5636.95
5446.87
5291.14
5162.69
5054.85
4964.11
4886.28
4819.78
4761.67
4711.45
4666.86
4628
4592.99
4562.31
4534.3
4509.67
4486.88
4466.82
4448.02
4431.49
4415.81
4402.05
4388.81
4377.25
4365.98
4356.19
4346.53
4338.19
4329.84
4322.69
4315.44
4309.29
4302.96
4297.62
4292.09
4287.46
4282.57
4278.55
4274.25
4270.73
4266.94
4263.81
4260.48
4257.74
4254.79
4252.41
4249.87
4247.73
4245.45
4243.58
4241.57
4239.93
4238.11
4236.68
4235.11
4233.93
4232.5
4231.51
4230.28
4229.44
4228.32
4227.59
4226.62
4226.05
4225.23
4224.76
4224.06
4223.67
4223.01
4222.59
4221.95
4221.57
4220.98
4220.66
4220.14
4219.87
4219.4
4219.2
4218.84
4218.72
4218.46
4218.52
4218.47
4218.61
4218.54
4219.1
4220.32
4263.75
4375.16
41928.3
8261.72
7571.19
7000.13
6536.91
6166.24
5871.32
5634.98
5444.31
5288.05
5159.12
5050.86
4959.75
4881.58
4814.78
4756.42
4705.96
4661.16
4622.11
4586.93
4556.1
4527.94
4503.19
4480.29
4460.12
4441.22
4424.61
4408.84
4395
4381.69
4370.06
4358.74
4348.89
4339.17
4330.78
4322.38
4315.19
4307.9
4301.71
4295.35
4289.97
4284.41
4279.75
4274.83
4270.78
4266.46
4262.91
4259.09
4255.95
4252.59
4249.83
4246.87
4244.46
4241.91
4239.75
4237.46
4235.57
4233.54
4231.89
4230.06
4228.61
4227.03
4225.83
4224.39
4223.39
4222.15
4221.29
4220.16
4219.43
4218.45
4217.87
4217.03
4216.56
4215.85
4215.45
4214.78
4214.36
4213.71
4213.32
4212.73
4212.4
4211.86
4211.59
4211.12
4210.91
4210.53
4210.41
4210.14
4210.18
4210.12
4210.25
4210.17
4210.71
4211.98
4256.82
4368.88
39399.7
8261.71
7571.31
7000.21
6536.67
6165.46
5869.9
5632.91
5441.63
5284.8
5155.37
5046.66
4955.15
4876.64
4809.53
4750.88
4700.18
4655.15
4615.91
4580.55
4549.55
4521.24
4496.36
4473.33
4453.05
4434.05
4417.34
4401.49
4387.56
4374.18
4362.48
4351.09
4341.19
4331.41
4322.97
4314.52
4307.28
4299.95
4293.72
4287.31
4281.9
4276.31
4271.61
4266.66
4262.58
4258.23
4254.66
4250.82
4247.65
4244.26
4241.49
4238.5
4236.08
4233.5
4231.32
4229.01
4227.11
4225.07
4223.4
4221.55
4220.09
4218.49
4217.29
4215.83
4214.82
4213.56
4212.7
4211.55
4210.81
4209.81
4209.23
4208.38
4207.89
4207.18
4206.77
4206.09
4205.67
4205.01
4204.61
4204.01
4203.67
4203.13
4202.85
4202.37
4202.15
4201.77
4201.64
4201.35
4201.38
4201.3
4201.41
4201.32
4201.85
4203.18
4249.42
4362.17
36979.7
8261.71
7571.42
7000.29
6536.42
6164.65
5868.43
5630.76
5438.82
5281.41
5151.45
5042.26
4950.34
4871.45
4804.01
4745.07
4694.1
4648.84
4609.39
4573.83
4542.67
4514.2
4489.17
4466.01
4445.62
4426.51
4409.7
4393.75
4379.74
4366.27
4354.51
4343.04
4333.08
4323.24
4314.74
4306.24
4298.95
4291.57
4285.3
4278.85
4273.4
4267.77
4263.04
4258.06
4253.95
4249.57
4245.97
4242.1
4238.91
4235.5
4232.7
4229.69
4227.24
4224.64
4222.45
4220.12
4218.21
4216.14
4214.46
4212.59
4211.12
4209.5
4208.28
4206.81
4205.78
4204.51
4203.64
4202.48
4201.73
4200.72
4200.12
4199.26
4198.77
4198.04
4197.63
4196.94
4196.51
4195.84
4195.44
4194.82
4194.48
4193.93
4193.64
4193.15
4192.92
4192.53
4192.39
4192.09
4192.1
4192.02
4192.11
4192
4192.52
4193.9
4241.52
4354.99
34670.5
8261.69
7571.55
7000.37
6536.17
6163.81
5866.9
5628.51
5435.9
5277.86
5147.35
5037.66
4945.3
4866.01
4798.23
4738.97
4687.74
4642.22
4602.55
4566.79
4535.44
4506.81
4481.63
4458.33
4437.81
4418.58
4401.67
4385.62
4371.52
4357.97
4346.13
4334.59
4324.56
4314.65
4306.1
4297.54
4290.2
4282.77
4276.45
4269.96
4264.47
4258.8
4254.04
4249.02
4244.88
4240.46
4236.83
4232.93
4229.72
4226.28
4223.46
4220.42
4217.95
4215.33
4213.12
4210.77
4208.84
4206.75
4205.05
4203.17
4201.68
4200.05
4198.82
4197.33
4196.29
4195
4194.11
4192.94
4192.18
4191.16
4190.55
4189.67
4189.17
4188.43
4188.01
4187.32
4186.88
4186.2
4185.79
4185.17
4184.81
4184.25
4183.96
4183.45
4183.22
4182.82
4182.67
4182.36
4182.35
4182.25
4182.33
4182.19
4182.71
4184.15
4233.08
4347.31
32473.7
8261.68
7571.67
7000.47
6535.91
6162.95
5865.31
5626.18
5432.86
5274.17
5143.07
5032.86
4940.03
4860.33
4792.18
4732.6
4681.07
4635.3
4595.38
4559.41
4527.88
4499.07
4473.73
4450.28
4429.63
4410.28
4393.25
4377.1
4362.91
4349.26
4337.34
4325.72
4315.62
4305.65
4297.03
4288.41
4281.02
4273.54
4267.17
4260.63
4255.1
4249.39
4244.59
4239.53
4235.36
4230.91
4227.25
4223.32
4220.08
4216.61
4213.77
4210.7
4208.21
4205.56
4203.33
4200.96
4199.01
4196.9
4195.19
4193.28
4191.78
4190.12
4188.88
4187.38
4186.32
4185.01
4184.12
4182.93
4182.16
4181.12
4180.5
4179.61
4179.1
4178.35
4177.92
4177.21
4176.77
4176.08
4175.67
4175.03
4174.67
4174.1
4173.79
4173.28
4173.03
4172.62
4172.47
4172.14
4172.12
4172
4172.06
4171.9
4172.41
4173.91
4224.07
4339.09
30391.1
8261.67
7571.8
7000.57
6535.64
6162.07
5863.68
5623.77
5429.7
5270.32
5138.61
5027.85
4934.54
4854.41
4785.88
4725.95
4674.11
4628.06
4587.9
4551.7
4519.97
4490.97
4465.47
4441.87
4421.08
4401.59
4384.45
4368.18
4353.89
4340.15
4328.14
4316.44
4306.27
4296.22
4287.54
4278.86
4271.41
4263.87
4257.46
4250.87
4245.29
4239.53
4234.69
4229.6
4225.39
4220.9
4217.21
4213.25
4209.98
4206.48
4203.61
4200.52
4198
4195.32
4193.08
4190.68
4188.71
4186.58
4184.85
4182.92
4181.41
4179.73
4178.47
4176.95
4175.88
4174.55
4173.65
4172.44
4171.66
4170.61
4169.97
4169.07
4168.55
4167.79
4167.35
4166.63
4166.18
4165.48
4165.05
4164.41
4164.04
4163.45
4163.14
4162.61
4162.36
4161.94
4161.77
4161.44
4161.39
4161.27
4161.3
4161.12
4161.62
4163.17
4214.44
4330.28
28423.8
8261.66
7571.94
7000.67
6535.38
6161.16
5861.99
5621.27
5426.43
5266.34
5133.98
5022.65
4928.83
4848.24
4779.3
4719.01
4666.86
4620.51
4580.1
4543.66
4511.71
4482.52
4456.84
4433.08
4412.14
4392.52
4375.25
4358.87
4344.47
4330.63
4318.53
4306.74
4296.49
4286.37
4277.63
4268.87
4261.37
4253.76
4247.3
4240.65
4235.04
4229.23
4224.35
4219.21
4214.96
4210.44
4206.71
4202.71
4199.42
4195.88
4192.99
4189.87
4187.33
4184.62
4182.35
4179.93
4177.94
4175.78
4174.04
4172.09
4170.56
4168.86
4167.58
4166.04
4164.96
4163.61
4162.69
4161.47
4160.68
4159.61
4158.96
4158.04
4157.51
4156.73
4156.29
4155.56
4155.1
4154.38
4153.95
4153.29
4152.92
4152.32
4152
4151.46
4151.19
4150.76
4150.58
4150.24
4150.18
4150.03
4150.05
4149.85
4150.33
4151.95
4204.2
4320.86
26573.1
8261.64
7572.08
7000.78
6535.11
6160.23
5860.25
5618.69
5423.05
5262.21
5129.18
5017.24
4922.89
4841.83
4772.47
4711.8
4659.31
4612.66
4571.97
4535.28
4503.11
4473.71
4447.85
4423.91
4402.83
4383.06
4365.66
4349.15
4334.65
4320.7
4308.51
4296.63
4286.29
4276.09
4267.27
4258.45
4250.88
4243.22
4236.7
4230
4224.33
4218.47
4213.55
4208.36
4204.08
4199.51
4195.75
4191.72
4188.39
4184.82
4181.9
4178.74
4176.18
4173.44
4171.15
4168.7
4166.69
4164.51
4162.75
4160.78
4159.23
4157.5
4156.21
4154.65
4153.55
4152.18
4151.25
4150.01
4149.21
4148.12
4147.46
4146.53
4145.98
4145.19
4144.73
4143.99
4143.52
4142.8
4142.36
4141.68
4141.3
4140.69
4140.35
4139.8
4139.53
4139.08
4138.9
4138.54
4138.46
4138.31
4138.29
4138.06
4138.54
4140.21
4193.34
4310.79
24840.2
8261.62
7572.22
7000.9
6534.85
6159.28
5858.46
5616.03
5419.55
5257.94
5124.21
5011.64
4916.73
4835.17
4765.37
4704.3
4651.46
4604.49
4563.51
4526.57
4494.16
4464.55
4438.49
4414.38
4393.13
4373.21
4355.67
4339.03
4324.42
4310.36
4298.06
4286.08
4275.67
4265.38
4256.49
4247.59
4239.96
4232.22
4225.65
4218.89
4213.17
4207.25
4202.29
4197.06
4192.73
4188.12
4184.33
4180.25
4176.89
4173.29
4170.34
4167.15
4164.55
4161.79
4159.48
4156.99
4154.96
4152.75
4150.97
4148.98
4147.41
4145.66
4144.35
4142.77
4141.65
4140.26
4139.32
4138.06
4137.24
4136.13
4135.46
4134.51
4133.95
4133.15
4132.68
4131.93
4131.45
4130.71
4130.26
4129.58
4129.18
4128.55
4128.21
4127.65
4127.36
4126.9
4126.7
4126.33
4126.24
4126.07
4126.03
4125.77
4126.24
4127.97
4181.86
4300.02
23225.9
8261.6
7572.36
7001.03
6534.58
6158.31
5856.64
5613.3
5415.95
5253.52
5119.07
5005.85
4910.36
4828.27
4758.01
4696.53
4643.31
4596.01
4554.73
4517.51
4484.87
4455.02
4428.77
4404.46
4383.04
4362.96
4345.29
4328.51
4313.77
4299.59
4287.2
4275.12
4264.61
4254.23
4245.26
4236.28
4228.58
4220.78
4214.14
4207.32
4201.55
4195.58
4190.57
4185.29
4180.92
4176.26
4172.43
4168.31
4164.92
4161.28
4158.3
4155.07
4152.45
4149.65
4147.31
4144.8
4142.75
4140.51
4138.71
4136.69
4135.1
4133.32
4132
4130.39
4129.26
4127.85
4126.89
4125.61
4124.78
4123.65
4122.97
4122
4121.42
4120.6
4120.12
4119.36
4118.87
4118.12
4117.66
4116.96
4116.55
4115.91
4115.56
4114.98
4114.69
4114.21
4114
4113.61
4113.51
4113.32
4113.27
4112.97
4113.44
4115.22
4169.76
4288.52
21726
8261.58
7572.51
7001.16
6534.31
6157.32
5854.76
5610.49
5412.24
5248.98
5113.77
4999.86
4903.77
4821.14
4750.39
4688.47
4634.87
4587.22
4545.63
4508.12
4475.22
4445.14
4418.68
4394.17
4372.58
4352.33
4334.5
4317.58
4302.72
4288.42
4275.91
4263.72
4253.12
4242.65
4233.6
4224.54
4216.77
4208.89
4202.19
4195.3
4189.48
4183.45
4178.38
4173.05
4168.63
4163.93
4160.06
4155.9
4152.47
4148.79
4145.77
4142.51
4139.86
4137.02
4134.67
4132.12
4130.04
4127.77
4125.95
4123.91
4122.3
4120.49
4119.15
4117.52
4116.37
4114.94
4113.96
4112.66
4111.81
4110.67
4109.97
4108.98
4108.39
4107.56
4107.06
4106.28
4105.79
4105.02
4104.55
4103.84
4103.42
4102.76
4102.4
4101.81
4101.5
4101.01
4100.79
4100.38
4100.26
4100.06
4099.98
4099.65
4100.11
4101.95
4157.03
4276.25
20335.7
8261.56
7572.66
7001.3
6534.05
6156.32
5852.85
5607.62
5408.43
5244.3
5108.3
4993.69
4896.96
4813.76
4742.52
4680.14
4626.14
4578.12
4536.21
4498.4
4465.23
4434.9
4408.21
4383.5
4361.72
4341.3
4323.32
4306.25
4291.25
4276.82
4264.2
4251.9
4241.2
4230.63
4221.49
4212.34
4204.5
4196.54
4189.77
4182.82
4176.94
4170.84
4165.73
4160.34
4155.88
4151.13
4147.21
4143.01
4139.54
4135.82
4132.77
4129.47
4126.78
4123.91
4121.53
4118.94
4116.85
4114.55
4112.7
4110.63
4109
4107.17
4105.8
4104.15
4102.98
4101.52
4100.52
4099.21
4098.34
4097.18
4096.46
4095.45
4094.85
4094
4093.49
4092.7
4092.19
4091.41
4090.93
4090.2
4089.77
4089.1
4088.72
4088.12
4087.8
4087.29
4087.06
4086.64
4086.5
4086.28
4086.18
4085.82
4086.26
4088.15
4143.68
4263.19
19050.1
8261.54
7572.81
7001.44
6533.79
6155.31
5850.9
5604.67
5404.52
5239.49
5102.68
4987.33
4889.94
4806.15
4734.39
4671.54
4617.12
4568.71
4526.46
4488.34
4454.89
4424.3
4397.38
4372.45
4350.48
4329.87
4311.73
4294.5
4279.36
4264.8
4252.06
4239.64
4228.84
4218.16
4208.94
4199.7
4191.77
4183.74
4176.9
4169.88
4163.93
4157.78
4152.61
4147.16
4142.65
4137.85
4133.89
4129.63
4126.13
4122.36
4119.28
4115.94
4113.22
4110.31
4107.89
4105.28
4103.15
4100.82
4098.95
4096.85
4095.2
4093.34
4091.95
4090.27
4089.08
4087.6
4086.58
4085.25
4084.36
4083.18
4082.44
4081.41
4080.8
4079.93
4079.41
4078.6
4078.08
4077.28
4076.79
4076.05
4075.6
4074.92
4074.53
4073.91
4073.57
4073.05
4072.8
4072.37
4072.21
4071.98
4071.86
4071.45
4071.89
4073.82
4129.69
4249.3
17864
8261.52
7572.96
7001.59
6533.53
6154.29
5848.92
5601.67
5400.52
5234.56
5096.9
4980.78
4882.71
4798.31
4726
4662.66
4607.8
4558.99
4516.39
4477.94
4444.2
4413.34
4386.18
4361.03
4338.85
4318.05
4299.74
4282.35
4267.07
4252.36
4239.49
4226.95
4216.04
4205.26
4195.94
4186.61
4178.6
4170.48
4163.57
4156.47
4150.46
4144.24
4139.01
4133.5
4128.94
4124.08
4120.08
4115.78
4112.23
4108.42
4105.3
4101.91
4099.16
4096.21
4093.77
4091.11
4088.96
4086.59
4084.7
4082.57
4080.9
4079
4077.6
4075.88
4074.67
4073.17
4072.13
4070.77
4069.87
4068.66
4067.91
4066.86
4066.23
4065.34
4064.81
4063.98
4063.45
4062.64
4062.14
4061.37
4060.92
4060.21
4059.81
4059.17
4058.83
4058.28
4058.02
4057.57
4057.4
4057.14
4057.01
4056.56
4057
4058.96
4115.08
4234.54
16771.8
8261.49
7573.12
7001.75
6533.28
6153.26
5846.91
5598.6
5396.43
5229.51
5090.97
4974.06
4875.28
4790.24
4717.37
4653.51
4598.2
4548.98
4506
4467.21
4433.17
4402.03
4374.62
4349.22
4326.84
4305.84
4287.35
4269.78
4254.35
4239.5
4226.5
4213.83
4202.81
4191.92
4182.5
4173.06
4164.97
4156.77
4149.78
4142.6
4136.52
4130.23
4124.94
4119.37
4114.76
4109.84
4105.79
4101.43
4097.84
4093.98
4090.82
4087.4
4084.61
4081.61
4079.14
4076.45
4074.27
4071.86
4069.95
4067.78
4066.09
4064.16
4062.73
4060.99
4059.76
4058.22
4057.17
4055.78
4054.87
4053.63
4052.86
4051.79
4051.14
4050.23
4049.69
4048.84
4048.3
4047.47
4046.95
4046.17
4045.71
4044.98
4044.57
4043.91
4043.55
4042.99
4042.72
4042.25
4042.06
4041.78
4041.63
4041.15
4041.57
4043.56
4099.84
4218.9
15767.9
8261.46
7573.28
7001.92
6533.04
6152.22
5844.87
5595.48
5392.26
5224.33
5084.9
4967.16
4867.65
4781.95
4708.49
4644.1
4588.31
4538.66
4495.3
4456.15
4421.8
4390.36
4362.69
4337.05
4314.45
4293.23
4274.56
4256.81
4241.22
4226.21
4213.08
4200.28
4189.14
4178.13
4168.61
4159.07
4150.89
4142.59
4135.52
4128.26
4122.12
4115.75
4110.4
4104.76
4100.09
4095.12
4091.01
4086.6
4082.97
4079.06
4075.86
4072.39
4069.56
4066.52
4064.01
4061.28
4059.07
4056.63
4054.69
4052.48
4050.77
4048.8
4047.36
4045.58
4044.33
4042.76
4041.69
4040.28
4039.34
4038.09
4037.3
4036.2
4035.54
4034.6
4034.04
4033.18
4032.62
4031.78
4031.25
4030.45
4029.97
4029.23
4028.8
4028.12
4027.75
4027.17
4026.88
4026.39
4026.18
4025.89
4025.72
4025.19
4025.61
4027.62
4083.96
4202.34
14846.4
8261.43
7573.43
7002.09
6532.8
6151.18
5842.8
5592.31
5388
5219.05
5078.68
4960.09
4859.83
4773.44
4699.36
4634.42
4578.15
4528.04
4484.28
4444.77
4410.08
4378.34
4350.4
4324.5
4301.67
4280.24
4261.37
4243.44
4227.68
4212.51
4199.24
4186.3
4175.03
4163.9
4154.27
4144.63
4136.35
4127.96
4120.81
4113.46
4107.24
4100.79
4095.38
4089.68
4084.94
4079.91
4075.75
4071.29
4067.6
4063.64
4060.4
4056.88
4054.01
4050.93