/*--------------------------------*- C++ -*----------------------------------*\
| =========                 |                                                 |
| \\      /  F ield         | OpenFOAM: The Open Source CFD Toolbox           |
|  \\    /   O peration     | Version:  v2012                                 |
|   \\  /    A nd           | Website:  www.openfoam.com                      |
|    \\/     M anipulation  |                                                 |
\*---------------------------------------------------------------------------*/
FoamFile
{
    version     2.0;
    format      ascii;
    class       volScalarField;
    location    "54";
    object      yPlus;
}
// * * * * * * * * * * * * * * * * * * * * * * * * * * * * * * * * * * * * * //

dimensions      [0 0 0 0 0 0 0];


internalField   uniform 0;

boundaryField
{
    inlet
    {
        type            calculated;
        value           uniform 0;
    }
    outlet
    {
        type            calculated;
        value           uniform 0;
    }
    topWall
    {
        type            calculated;
        value           nonuniform List<scalar> 
545
(
0.111333
0.191972
0.246282
0.289504
0.326097
0.358116
0.386718
0.41263
0.436347
0.458224
0.478528
0.497465
0.515199
0.531862
0.547565
0.562399
0.576443
0.589764
0.602419
0.61446
0.625932
0.636875
0.647325
0.657313
0.666869
0.676019
0.684786
0.693194
0.701261
0.709006
0.716447
0.723599
0.730476
0.737093
0.743463
0.749596
0.755504
0.761197
0.766686
0.771979
0.777085
0.782012
0.786768
0.791359
0.795794
0.800077
0.804217
0.808217
0.812084
0.815823
0.819439
0.822937
0.826321
0.829596
0.832765
0.835833
0.838804
0.84168
0.844466
0.847164
0.849778
0.85231
0.854765
0.857143
0.859449
0.861684
0.863851
0.865952
0.867989
0.869966
0.871882
0.873742
0.875522
0.877245
0.878955
0.88065
0.882333
0.884002
0.885658
0.887301
0.888931
0.890549
0.892154
0.893747
0.895327
0.896895
0.898451
0.899995
0.901527
0.903047
0.904556
0.906053
0.907539
0.909014
0.910477
0.91193
0.913238
0.914409
0.91558
0.91675
0.91792
0.919091
0.920261
0.921431
0.922601
0.92377
0.92494
0.926109
0.927279
0.928448
0.929617
0.930785
0.931954
0.933122
0.93429
0.935458
0.936626
0.937793
0.938961
0.940128
0.941295
0.942461
0.943627
0.944793
0.945959
0.947125
0.94829
0.949455
0.950619
0.951784
0.952948
0.954111
0.955275
0.956438
0.9576
0.958763
0.959924
0.961086
0.962247
0.963408
0.964568
0.965728
0.966888
0.968047
0.969206
0.970364
0.971522
0.972679
0.973836
0.974993
0.976149
0.977304
0.978459
0.979614
0.980768
0.981922
0.983074
0.984227
0.985379
0.98653
0.987681
0.988831
0.989981
0.99113
0.992278
0.993426
0.994573
0.99572
0.996866
0.998011
0.999156
1.0003
1.00144
1.00259
1.00373
1.00487
1.00601
1.00715
1.00829
1.00943
1.01056
1.0117
1.01284
1.01397
1.01511
1.01624
1.01737
1.0185
1.01964
1.02077
1.0219
1.02302
1.02415
1.02528
1.0264
1.02753
1.02865
1.02978
1.0309
1.03202
1.03314
1.03426
1.03538
1.03649
1.03761
1.03873
1.03984
1.04095
1.04207
1.04318
1.04429
1.0454
1.0465
1.04761
1.04872
1.04982
1.05092
1.05203
1.05313
1.05423
1.05533
1.05642
1.05752
1.05861
1.05971
1.0608
1.06189
1.06298
1.06407
1.06516
1.06624
1.06733
1.06841
1.06949
1.07057
1.07165
1.07273
1.07381
1.07488
1.07596
1.07703
1.0781
1.07917
1.08024
1.0813
1.08237
1.08343
1.08449
1.08555
1.08661
1.08767
1.08872
1.08978
1.09083
1.09188
1.09293
1.09398
1.09502
1.09607
1.09711
1.09815
1.09919
1.10023
1.10126
1.1023
1.10333
1.10436
1.10539
1.10641
1.10738
1.10829
1.10921
1.11014
1.11107
1.11201
1.11296
1.11391
1.11487
1.11583
1.1168
1.11778
1.11877
1.11976
1.12075
1.12176
1.12277
1.12379
1.12481
1.12584
1.12687
1.12792
1.12896
1.13002
1.13108
1.13215
1.13322
1.1343
1.13538
1.13648
1.13757
1.13868
1.13979
1.1409
1.14202
1.14315
1.14428
1.14542
1.14656
1.14771
1.14887
1.15003
1.15119
1.15236
1.15354
1.15472
1.15591
1.1571
1.1583
1.1595
1.1607
1.16191
1.16313
1.16435
1.16557
1.1668
1.16803
1.16926
1.1705
1.17174
1.17299
1.17424
1.17549
1.17675
1.17801
1.17927
1.18054
1.1818
1.18307
1.18435
1.18562
1.1869
1.18817
1.18945
1.19073
1.19202
1.1933
1.19458
1.19587
1.19715
1.19844
1.19972
1.20101
1.20229
1.20358
1.20486
1.20614
1.20742
1.2087
1.20998
1.21125
1.21252
1.21379
1.21506
1.21633
1.21759
1.21884
1.2201
1.22135
1.22259
1.22383
1.22507
1.2263
1.22752
1.22874
1.22995
1.23116
1.23236
1.23355
1.23473
1.23591
1.23708
1.23824
1.23939
1.24053
1.24167
1.24279
1.2439
1.24501
1.2461
1.24718
1.24825
1.24931
1.25036
1.25139
1.25241
1.25342
1.25442
1.2554
1.25636
1.25732
1.25826
1.25918
1.26009
1.26098
1.26186
1.26272
1.26356
1.26439
1.2652
1.26599
1.26676
1.26752
1.26826
1.26898
1.26968
1.27036
1.27102
1.27166
1.27228
1.27288
1.27346
1.27402
1.27456
1.27508
1.27558
1.27605
1.2765
1.27693
1.27734
1.27773
1.27809
1.27843
1.27875
1.27905
1.27932
1.27957
1.27979
1.28
1.28018
1.28033
1.28047
1.28058
1.28066
1.28073
1.28077
1.28078
1.28078
1.28075
1.28069
1.28062
1.28051
1.28035
1.28017
1.27996
1.27972
1.27945
1.27916
1.27884
1.2785
1.27815
1.27777
1.27737
1.27696
1.27652
1.27608
1.27562
1.27514
1.27465
1.27415
1.27364
1.27312
1.27259
1.27206
1.27151
1.27096
1.2704
1.26984
1.26927
1.2687
1.26813
1.26755
1.26697
1.26639
1.26581
1.26522
1.26464
1.26406
1.26348
1.2629
1.26232
1.26175
1.26118
1.26061
1.26005
1.25949
1.25893
1.25838
1.25784
1.2573
1.25677
1.25625
1.25573
1.25522
1.25472
1.25422
1.25373
1.25326
1.25279
1.25233
1.25188
1.25144
1.25101
1.25058
1.25017
1.24978
1.24939
1.24901
1.24864
1.24829
1.24795
1.24762
1.2473
1.24699
1.2467
1.24642
1.24615
1.24589
1.24565
1.24542
1.24521
1.24501
1.24482
1.24464
1.24448
1.24434
1.24421
1.24409
1.24398
1.24389
1.24382
1.24376
1.24371
1.24367
1.24366
1.24365
)
;
    }
    bottomWall
    {
        type            calculated;
        value           nonuniform List<scalar> 
449
(
0.139383
0.0889265
0.0757934
0.0694436
0.0652938
0.0622282
0.0598533
0.0580464
0.0568888
0.0567265
0.0583869
0.0624535
0.0659408
0.0680731
0.0692328
0.0698601
0.0701742
0.0702893
0.0702577
0.0701447
0.0699758
0.0697706
0.0695464
0.0693135
0.0690779
0.0688434
0.0686118
0.068385
0.0681639
0.0679488
0.0677401
0.0675377
0.0673416
0.0671515
0.0669673
0.0667886
0.0666151
0.0664468
0.0662834
0.0661247
0.0659706
0.0658208
0.065675
0.0655331
0.065395
0.0652603
0.065129
0.0650009
0.064876
0.0647537
0.0646338
0.064516
0.0644003
0.0642867
0.064175
0.0640654
0.0639577
0.063852
0.0637481
0.0636461
0.063546
0.0634475
0.0633507
0.0632556
0.063162
0.0630701
0.0629796
0.0628905
0.0628028
0.0627165
0.0626315
0.0625477
0.0624652
0.0623839
0.0623037
0.0622247
0.0621468
0.06207
0.0619944
0.0619197
0.0618461
0.0617734
0.0617017
0.061631
0.0615612
0.0614922
0.0614242
0.061357
0.0612906
0.061225
0.0611602
0.0610961
0.0610329
0.0609703
0.0609085
0.0608474
0.0607869
0.0607272
0.0606681
0.0606096
0.0605518
0.0604946
0.0604379
0.0603818
0.0603262
0.0602713
0.0602169
0.060163
0.0601097
0.0600569
0.0600046
0.0599528
0.0599015
0.0598507
0.0598003
0.0597505
0.0597011
0.0596521
0.0596036
0.0595555
0.0595078
0.0594606
0.0594138
0.0593673
0.0593213
0.0592757
0.0592304
0.0591855
0.059141
0.0590969
0.0590531
0.0590096
0.0589666
0.0589238
0.0588814
0.0588393
0.0587975
0.0587561
0.0587149
0.0586741
0.0586336
0.0585934
0.0585535
0.0585138
0.0584745
0.0584354
0.0583966
0.0583581
0.0583198
0.0582817
0.058244
0.0582064
0.0581692
0.0581322
0.0580954
0.0580589
0.0580226
0.0579865
0.0579507
0.0579151
0.0578798
0.0578446
0.0578097
0.057775
0.0577405
0.0577063
0.0576722
0.0576384
0.0576047
0.0575713
0.0575381
0.057505
0.0574722
0.0574414
0.0574124
0.0573832
0.0573541
0.0573248
0.0572954
0.0572659
0.0572363
0.0572066
0.0571768
0.0571469
0.0571169
0.0570868
0.0570567
0.0570264
0.0569961
0.0569656
0.056935
0.0569044
0.0568737
0.0568429
0.056812
0.056781
0.0567499
0.0567187
0.0566874
0.0566561
0.0566247
0.0565931
0.0565615
0.0565299
0.0564981
0.0564662
0.0564343
0.0564023
0.0563702
0.056338
0.0563058
0.0562735
0.0562411
0.0562086
0.056176
0.0561433
0.0561105
0.0560777
0.0560448
0.0560118
0.0559788
0.0559457
0.0559125
0.0558792
0.0558459
0.0558125
0.0557791
0.0557456
0.055712
0.0556783
0.0556446
0.0556108
0.055577
0.0555431
0.0555092
0.0554751
0.0554411
0.0554069
0.0553727
0.0553385
0.0553042
0.0552698
0.0552354
0.055201
0.0551664
0.0551319
0.0550972
0.0550626
0.0550278
0.0549931
0.0549583
0.0549234
0.0548885
0.0548535
0.0548185
0.0547835
0.0547484
0.0547132
0.0546781
0.0546428
0.0546076
0.0545723
0.0545369
0.0545016
0.0544661
0.0544307
0.0543952
0.0543597
0.0543241
0.0542885
0.0542529
0.0542172
0.0541815
0.0541458
0.05411
0.0540741
0.0540383
0.0540023
0.0539664
0.0539304
0.0538945
0.0538584
0.0538224
0.0537863
0.0537502
0.0537141
0.053678
0.0536418
0.0536057
0.0535695
0.0535333
0.053497
0.0534608
0.0534245
0.0533882
0.0533519
0.0533156
0.0532793
0.053243
0.0532066
0.0531702
0.0531339
0.0530975
0.0530611
0.0530247
0.0529883
0.0529518
0.0529154
0.052879
0.0528426
0.0528061
0.0527697
0.0527332
0.0526968
0.0526603
0.0526239
0.0525874
0.0525509
0.0525145
0.052478
0.0524416
0.0524051
0.0523687
0.0523323
0.0522958
0.0522594
0.052223
0.0521866
0.0521502
0.0521138
0.0520773
0.0520409
0.0520045
0.0519681
0.0519317
0.0518953
0.0518589
0.0518226
0.0517862
0.0517499
0.0517136
0.0516773
0.051641
0.0516047
0.0515685
0.0515323
0.0514961
0.0514599
0.0514237
0.0513876
0.0513515
0.0513154
0.0512793
0.0512432
0.0512032
0.0511595
0.0511165
0.051074
0.051032
0.0509907
0.0509499
0.0509096
0.0508698
0.0508306
0.0507918
0.0507535
0.0507158
0.0506784
0.0506416
0.0506052
0.0505692
0.0505336
0.0504985
0.0504638
0.0504295
0.0503955
0.050362
0.0503288
0.050296
0.0502636
0.0502315
0.0501998
0.0501684
0.0501373
0.0501066
0.0500761
0.050046
0.0500162
0.0499867
0.0499574
0.0499285
0.0498999
0.0498716
0.0498435
0.0498157
0.0497881
0.0497609
0.0497339
0.0497071
0.0496806
0.0496544
0.0496283
0.0496026
0.049577
0.0495518
0.0495267
0.0495018
0.0494772
0.0494528
0.0494285
0.0494046
0.0493807
0.0493572
0.0493337
0.0493106
0.0492875
0.0492648
0.0492421
0.0492197
0.0491974
0.0491754
0.0491534
0.0491318
0.0491101
0.0490888
0.0490674
0.0490465
0.0490254
0.0490048
0.048984
0.0489638
0.0489432
0.0489233
0.048903
0.0488835
0.0488633
0.0488441
0.0488242
0.0488052
0.0487855
0.0487668
0.0487474
0.0487283
0.0487104
0.0486885
0.0486766
0.0486441
0.0486504
0.0486057
)
;
    }
    symmetry
    {
        type            symmetryPlane;
    }
    frontAndBack
    {
        type            empty;
    }
}


// ************************************************************************* //
