/*--------------------------------*- C++ -*----------------------------------*\
| =========                 |                                                 |
| \\      /  F ield         | OpenFOAM: The Open Source CFD Toolbox           |
|  \\    /   O peration     | Version:  v2012                                 |
|   \\  /    A nd           | Website:  www.openfoam.com                      |
|    \\/     M anipulation  |                                                 |
\*---------------------------------------------------------------------------*/
FoamFile
{
    version     2.0;
    format      ascii;
    class       volScalarField;
    location    "11";
    object      nut;
}
// * * * * * * * * * * * * * * * * * * * * * * * * * * * * * * * * * * * * * //

dimensions      [0 2 -1 0 0 0 0];


internalField   nonuniform List<scalar> 
209825
(
1.2423e-07
1.25031e-07
1.25788e-07
1.26337e-07
1.26743e-07
1.27055e-07
1.27303e-07
1.27504e-07
1.27671e-07
1.27811e-07
1.27929e-07
1.2803e-07
1.28118e-07
1.28193e-07
1.2826e-07
1.28318e-07
1.28369e-07
1.28414e-07
1.28456e-07
1.28492e-07
1.28525e-07
1.28553e-07
1.2858e-07
1.28602e-07
1.28623e-07
1.28642e-07
1.2866e-07
1.28675e-07
1.28689e-07
1.28702e-07
1.28716e-07
1.28725e-07
1.28726e-07
1.28737e-07
1.28752e-07
1.28759e-07
1.2876e-07
1.28767e-07
1.2878e-07
1.28783e-07
1.2878e-07
1.28792e-07
1.28805e-07
1.28793e-07
1.28789e-07
1.28807e-07
1.28812e-07
1.28811e-07
1.28812e-07
1.28806e-07
1.28806e-07
1.28809e-07
1.28794e-07
1.28794e-07
1.28793e-07
1.28792e-07
1.28778e-07
1.28787e-07
1.28801e-07
1.28801e-07
1.28789e-07
1.28788e-07
1.28816e-07
1.28806e-07
1.28781e-07
1.28798e-07
1.28825e-07
1.28832e-07
1.28853e-07
1.28843e-07
1.28823e-07
1.28833e-07
1.28827e-07
1.28831e-07
1.28856e-07
1.28873e-07
1.28872e-07
1.28875e-07
1.28867e-07
1.28896e-07
1.28916e-07
1.28931e-07
1.28962e-07
1.28987e-07
1.29006e-07
1.29044e-07
1.29081e-07
1.29129e-07
1.29175e-07
1.29256e-07
1.29313e-07
1.295e-07
1.29535e-07
1.30637e-07
1.3567e-07
2.11434e-08
1.2423e-07
1.25031e-07
1.25787e-07
1.26337e-07
1.26743e-07
1.27055e-07
1.27303e-07
1.27504e-07
1.27671e-07
1.27811e-07
1.27929e-07
1.2803e-07
1.28118e-07
1.28193e-07
1.2826e-07
1.28318e-07
1.2837e-07
1.28414e-07
1.28456e-07
1.28492e-07
1.28525e-07
1.28553e-07
1.2858e-07
1.28602e-07
1.28623e-07
1.28642e-07
1.2866e-07
1.28675e-07
1.2869e-07
1.28703e-07
1.28716e-07
1.28725e-07
1.28726e-07
1.28737e-07
1.28752e-07
1.2876e-07
1.2876e-07
1.28768e-07
1.2878e-07
1.28783e-07
1.28781e-07
1.28792e-07
1.28805e-07
1.28793e-07
1.28789e-07
1.28808e-07
1.28812e-07
1.28811e-07
1.28813e-07
1.28807e-07
1.28807e-07
1.28809e-07
1.28794e-07
1.28794e-07
1.28794e-07
1.28792e-07
1.28778e-07
1.28788e-07
1.28802e-07
1.28802e-07
1.28789e-07
1.28788e-07
1.28816e-07
1.28807e-07
1.28782e-07
1.28798e-07
1.28825e-07
1.28832e-07
1.28854e-07
1.28843e-07
1.28824e-07
1.28833e-07
1.28827e-07
1.28832e-07
1.28857e-07
1.28873e-07
1.28872e-07
1.28875e-07
1.28867e-07
1.28897e-07
1.28917e-07
1.28931e-07
1.28963e-07
1.28988e-07
1.29007e-07
1.29045e-07
1.29081e-07
1.29129e-07
1.29176e-07
1.29257e-07
1.29314e-07
1.29501e-07
1.29536e-07
1.3064e-07
1.35677e-07
2.17729e-08
1.24229e-07
1.25029e-07
1.25785e-07
1.26334e-07
1.2674e-07
1.27052e-07
1.273e-07
1.27501e-07
1.27668e-07
1.27808e-07
1.27926e-07
1.28027e-07
1.28115e-07
1.28191e-07
1.28258e-07
1.28316e-07
1.28367e-07
1.28411e-07
1.28453e-07
1.2849e-07
1.28522e-07
1.28551e-07
1.28577e-07
1.286e-07
1.2862e-07
1.28639e-07
1.28658e-07
1.28672e-07
1.28687e-07
1.287e-07
1.28714e-07
1.28723e-07
1.28724e-07
1.28735e-07
1.2875e-07
1.28757e-07
1.28758e-07
1.28765e-07
1.28778e-07
1.28781e-07
1.28778e-07
1.2879e-07
1.28803e-07
1.28791e-07
1.28787e-07
1.28805e-07
1.2881e-07
1.28809e-07
1.2881e-07
1.28804e-07
1.28804e-07
1.28807e-07
1.28792e-07
1.28792e-07
1.28791e-07
1.2879e-07
1.28776e-07
1.28786e-07
1.28799e-07
1.288e-07
1.28787e-07
1.28786e-07
1.28814e-07
1.28805e-07
1.2878e-07
1.28796e-07
1.28823e-07
1.2883e-07
1.28852e-07
1.28841e-07
1.28822e-07
1.28831e-07
1.28825e-07
1.2883e-07
1.28855e-07
1.28871e-07
1.2887e-07
1.28873e-07
1.28865e-07
1.28895e-07
1.28915e-07
1.2893e-07
1.28961e-07
1.28986e-07
1.29005e-07
1.29043e-07
1.2908e-07
1.29128e-07
1.29174e-07
1.29255e-07
1.29312e-07
1.29499e-07
1.29534e-07
1.30642e-07
1.35686e-07
2.25543e-08
1.24228e-07
1.25026e-07
1.25781e-07
1.2633e-07
1.26736e-07
1.27048e-07
1.27296e-07
1.27497e-07
1.27664e-07
1.27803e-07
1.27922e-07
1.28023e-07
1.28111e-07
1.28186e-07
1.28254e-07
1.28312e-07
1.28363e-07
1.28407e-07
1.2845e-07
1.28486e-07
1.28518e-07
1.28547e-07
1.28574e-07
1.28596e-07
1.28617e-07
1.28636e-07
1.28654e-07
1.28669e-07
1.28684e-07
1.28697e-07
1.2871e-07
1.2872e-07
1.28721e-07
1.28731e-07
1.28746e-07
1.28754e-07
1.28755e-07
1.28762e-07
1.28775e-07
1.28778e-07
1.28775e-07
1.28787e-07
1.288e-07
1.28787e-07
1.28784e-07
1.28802e-07
1.28807e-07
1.28806e-07
1.28807e-07
1.28801e-07
1.28801e-07
1.28804e-07
1.28789e-07
1.28789e-07
1.28788e-07
1.28787e-07
1.28773e-07
1.28783e-07
1.28797e-07
1.28797e-07
1.28784e-07
1.28783e-07
1.28811e-07
1.28802e-07
1.28777e-07
1.28793e-07
1.2882e-07
1.28828e-07
1.28849e-07
1.28839e-07
1.28819e-07
1.28828e-07
1.28823e-07
1.28827e-07
1.28852e-07
1.28869e-07
1.28868e-07
1.28871e-07
1.28863e-07
1.28892e-07
1.28912e-07
1.28927e-07
1.28958e-07
1.28984e-07
1.29003e-07
1.29041e-07
1.29077e-07
1.29125e-07
1.29172e-07
1.29253e-07
1.2931e-07
1.29497e-07
1.29531e-07
1.30646e-07
1.357e-07
2.3422e-08
1.24227e-07
1.25021e-07
1.25775e-07
1.26324e-07
1.2673e-07
1.27042e-07
1.2729e-07
1.27491e-07
1.27658e-07
1.27798e-07
1.27917e-07
1.28018e-07
1.28106e-07
1.28181e-07
1.28248e-07
1.28306e-07
1.28358e-07
1.28402e-07
1.28445e-07
1.28481e-07
1.28514e-07
1.28542e-07
1.28569e-07
1.28592e-07
1.28612e-07
1.28631e-07
1.2865e-07
1.28664e-07
1.28679e-07
1.28692e-07
1.28706e-07
1.28715e-07
1.28716e-07
1.28727e-07
1.28742e-07
1.2875e-07
1.28751e-07
1.28758e-07
1.2877e-07
1.28774e-07
1.28771e-07
1.28782e-07
1.28796e-07
1.28783e-07
1.2878e-07
1.28798e-07
1.28803e-07
1.28802e-07
1.28803e-07
1.28797e-07
1.28797e-07
1.288e-07
1.28785e-07
1.28785e-07
1.28785e-07
1.28783e-07
1.28769e-07
1.28779e-07
1.28793e-07
1.28793e-07
1.2878e-07
1.28779e-07
1.28807e-07
1.28799e-07
1.28773e-07
1.2879e-07
1.28817e-07
1.28824e-07
1.28845e-07
1.28835e-07
1.28816e-07
1.28825e-07
1.2882e-07
1.28824e-07
1.28849e-07
1.28865e-07
1.28865e-07
1.28868e-07
1.2886e-07
1.28889e-07
1.28909e-07
1.28924e-07
1.28955e-07
1.28981e-07
1.29e-07
1.29038e-07
1.29075e-07
1.29123e-07
1.2917e-07
1.29251e-07
1.29307e-07
1.29495e-07
1.29528e-07
1.30653e-07
1.3572e-07
2.43634e-08
1.24224e-07
1.25016e-07
1.25768e-07
1.26316e-07
1.26722e-07
1.27034e-07
1.27282e-07
1.27484e-07
1.27651e-07
1.27791e-07
1.2791e-07
1.28011e-07
1.28099e-07
1.28175e-07
1.28242e-07
1.283e-07
1.28352e-07
1.28396e-07
1.28439e-07
1.28475e-07
1.28508e-07
1.28536e-07
1.28563e-07
1.28586e-07
1.28607e-07
1.28626e-07
1.28644e-07
1.28659e-07
1.28674e-07
1.28687e-07
1.28701e-07
1.2871e-07
1.28711e-07
1.28722e-07
1.28737e-07
1.28744e-07
1.28746e-07
1.28753e-07
1.28765e-07
1.28769e-07
1.28766e-07
1.28778e-07
1.28791e-07
1.28779e-07
1.28775e-07
1.28793e-07
1.28798e-07
1.28797e-07
1.28799e-07
1.28793e-07
1.28793e-07
1.28795e-07
1.2878e-07
1.2878e-07
1.2878e-07
1.28779e-07
1.28765e-07
1.28774e-07
1.28788e-07
1.28789e-07
1.28776e-07
1.28775e-07
1.28803e-07
1.28795e-07
1.28769e-07
1.28786e-07
1.28812e-07
1.2882e-07
1.28841e-07
1.28832e-07
1.28812e-07
1.28821e-07
1.28816e-07
1.2882e-07
1.28845e-07
1.28862e-07
1.28861e-07
1.28864e-07
1.28856e-07
1.28886e-07
1.28906e-07
1.28921e-07
1.28952e-07
1.28978e-07
1.28997e-07
1.29035e-07
1.29072e-07
1.2912e-07
1.29166e-07
1.29248e-07
1.29304e-07
1.29492e-07
1.29525e-07
1.30661e-07
1.35744e-07
2.53761e-08
1.24222e-07
1.25009e-07
1.2576e-07
1.26307e-07
1.26713e-07
1.27025e-07
1.27273e-07
1.27475e-07
1.27642e-07
1.27782e-07
1.27901e-07
1.28003e-07
1.28091e-07
1.28167e-07
1.28234e-07
1.28292e-07
1.28344e-07
1.28389e-07
1.28431e-07
1.28468e-07
1.28501e-07
1.28529e-07
1.28556e-07
1.28579e-07
1.286e-07
1.28619e-07
1.28638e-07
1.28653e-07
1.28668e-07
1.28681e-07
1.28694e-07
1.28704e-07
1.28705e-07
1.28716e-07
1.28731e-07
1.28739e-07
1.2874e-07
1.28747e-07
1.2876e-07
1.28763e-07
1.2876e-07
1.28772e-07
1.28785e-07
1.28773e-07
1.28769e-07
1.28788e-07
1.28792e-07
1.28791e-07
1.28793e-07
1.28787e-07
1.28787e-07
1.2879e-07
1.28775e-07
1.28775e-07
1.28775e-07
1.28774e-07
1.2876e-07
1.28769e-07
1.28783e-07
1.28783e-07
1.28771e-07
1.2877e-07
1.28798e-07
1.2879e-07
1.28764e-07
1.28781e-07
1.28807e-07
1.28815e-07
1.28837e-07
1.28827e-07
1.28808e-07
1.28817e-07
1.28811e-07
1.28816e-07
1.2884e-07
1.28857e-07
1.28857e-07
1.2886e-07
1.28852e-07
1.28881e-07
1.28902e-07
1.28917e-07
1.28948e-07
1.28974e-07
1.28993e-07
1.29031e-07
1.29068e-07
1.29116e-07
1.29163e-07
1.29245e-07
1.29301e-07
1.29489e-07
1.29521e-07
1.30672e-07
1.3577e-07
2.64603e-08
1.24219e-07
1.25001e-07
1.2575e-07
1.26297e-07
1.26702e-07
1.27014e-07
1.27263e-07
1.27465e-07
1.27632e-07
1.27772e-07
1.27892e-07
1.27993e-07
1.28082e-07
1.28158e-07
1.28225e-07
1.28284e-07
1.28335e-07
1.2838e-07
1.28423e-07
1.2846e-07
1.28493e-07
1.28521e-07
1.28548e-07
1.28571e-07
1.28592e-07
1.28611e-07
1.2863e-07
1.28645e-07
1.2866e-07
1.28674e-07
1.28687e-07
1.28697e-07
1.28698e-07
1.28709e-07
1.28724e-07
1.28732e-07
1.28733e-07
1.2874e-07
1.28753e-07
1.28756e-07
1.28754e-07
1.28765e-07
1.28778e-07
1.28767e-07
1.28763e-07
1.28781e-07
1.28786e-07
1.28785e-07
1.28787e-07
1.28781e-07
1.28781e-07
1.28784e-07
1.28769e-07
1.28769e-07
1.28769e-07
1.28768e-07
1.28754e-07
1.28763e-07
1.28778e-07
1.28778e-07
1.28765e-07
1.28764e-07
1.28792e-07
1.28784e-07
1.28759e-07
1.28775e-07
1.28802e-07
1.2881e-07
1.28831e-07
1.28822e-07
1.28803e-07
1.28812e-07
1.28806e-07
1.28811e-07
1.28835e-07
1.28852e-07
1.28852e-07
1.28856e-07
1.28848e-07
1.28877e-07
1.28897e-07
1.28912e-07
1.28944e-07
1.2897e-07
1.28989e-07
1.29027e-07
1.29064e-07
1.29113e-07
1.29159e-07
1.29241e-07
1.29297e-07
1.29486e-07
1.29516e-07
1.30685e-07
1.35798e-07
2.7617e-08
1.24216e-07
1.24991e-07
1.25738e-07
1.26285e-07
1.2669e-07
1.27002e-07
1.27251e-07
1.27453e-07
1.2762e-07
1.27761e-07
1.2788e-07
1.27982e-07
1.28071e-07
1.28147e-07
1.28215e-07
1.28274e-07
1.28326e-07
1.28371e-07
1.28413e-07
1.2845e-07
1.28483e-07
1.28512e-07
1.28539e-07
1.28562e-07
1.28584e-07
1.28603e-07
1.28622e-07
1.28637e-07
1.28652e-07
1.28665e-07
1.28679e-07
1.28689e-07
1.2869e-07
1.28701e-07
1.28716e-07
1.28724e-07
1.28725e-07
1.28733e-07
1.28745e-07
1.28749e-07
1.28746e-07
1.28757e-07
1.28771e-07
1.28759e-07
1.28755e-07
1.28774e-07
1.28778e-07
1.28778e-07
1.2878e-07
1.28774e-07
1.28774e-07
1.28777e-07
1.28762e-07
1.28762e-07
1.28762e-07
1.28761e-07
1.28747e-07
1.28757e-07
1.28771e-07
1.28771e-07
1.28758e-07
1.28757e-07
1.28786e-07
1.28778e-07
1.28753e-07
1.28769e-07
1.28796e-07
1.28803e-07
1.28825e-07
1.28816e-07
1.28797e-07
1.28806e-07
1.28801e-07
1.28805e-07
1.2883e-07
1.28847e-07
1.28847e-07
1.2885e-07
1.28843e-07
1.28871e-07
1.28892e-07
1.28907e-07
1.28938e-07
1.28965e-07
1.28984e-07
1.29023e-07
1.29059e-07
1.29108e-07
1.29155e-07
1.29237e-07
1.29293e-07
1.29482e-07
1.29511e-07
1.30701e-07
1.35826e-07
2.8847e-08
1.24212e-07
1.24981e-07
1.25725e-07
1.26271e-07
1.26676e-07
1.26988e-07
1.27237e-07
1.27439e-07
1.27607e-07
1.27748e-07
1.27868e-07
1.2797e-07
1.28059e-07
1.28135e-07
1.28203e-07
1.28262e-07
1.28315e-07
1.2836e-07
1.28403e-07
1.2844e-07
1.28473e-07
1.28502e-07
1.28529e-07
1.28553e-07
1.28574e-07
1.28593e-07
1.28612e-07
1.28627e-07
1.28643e-07
1.28656e-07
1.2867e-07
1.2868e-07
1.28681e-07
1.28692e-07
1.28707e-07
1.28715e-07
1.28717e-07
1.28724e-07
1.28737e-07
1.2874e-07
1.28738e-07
1.28749e-07
1.28763e-07
1.28751e-07
1.28747e-07
1.28766e-07
1.2877e-07
1.2877e-07
1.28772e-07
1.28766e-07
1.28766e-07
1.28769e-07
1.28755e-07
1.28755e-07
1.28754e-07
1.28753e-07
1.2874e-07
1.28749e-07
1.28764e-07
1.28764e-07
1.28751e-07
1.2875e-07
1.28778e-07
1.28772e-07
1.28746e-07
1.28762e-07
1.28789e-07
1.28796e-07
1.28818e-07
1.2881e-07
1.28791e-07
1.288e-07
1.28795e-07
1.28799e-07
1.28824e-07
1.28841e-07
1.28841e-07
1.28845e-07
1.28837e-07
1.28866e-07
1.28886e-07
1.28902e-07
1.28933e-07
1.28959e-07
1.28979e-07
1.29018e-07
1.29054e-07
1.29103e-07
1.2915e-07
1.29232e-07
1.29289e-07
1.29478e-07
1.29506e-07
1.30719e-07
1.35856e-07
3.015e-08
1.24208e-07
1.24969e-07
1.25711e-07
1.26255e-07
1.2666e-07
1.26973e-07
1.27222e-07
1.27424e-07
1.27593e-07
1.27733e-07
1.27854e-07
1.27956e-07
1.28045e-07
1.28122e-07
1.2819e-07
1.2825e-07
1.28302e-07
1.28348e-07
1.28391e-07
1.28428e-07
1.28461e-07
1.28491e-07
1.28518e-07
1.28542e-07
1.28563e-07
1.28582e-07
1.28601e-07
1.28617e-07
1.28632e-07
1.28646e-07
1.2866e-07
1.2867e-07
1.28671e-07
1.28682e-07
1.28698e-07
1.28706e-07
1.28707e-07
1.28714e-07
1.28727e-07
1.28731e-07
1.28728e-07
1.2874e-07
1.28753e-07
1.28742e-07
1.28738e-07
1.28756e-07
1.28761e-07
1.28761e-07
1.28763e-07
1.28758e-07
1.28757e-07
1.2876e-07
1.28746e-07
1.28746e-07
1.28746e-07
1.28745e-07
1.28732e-07
1.28741e-07
1.28756e-07
1.28756e-07
1.28743e-07
1.28742e-07
1.2877e-07
1.28764e-07
1.28739e-07
1.28755e-07
1.28781e-07
1.28789e-07
1.28811e-07
1.28803e-07
1.28784e-07
1.28793e-07
1.28788e-07
1.28792e-07
1.28817e-07
1.28834e-07
1.28834e-07
1.28838e-07
1.28831e-07
1.28859e-07
1.2888e-07
1.28896e-07
1.28927e-07
1.28954e-07
1.28973e-07
1.29012e-07
1.29049e-07
1.29098e-07
1.29145e-07
1.29227e-07
1.29284e-07
1.29474e-07
1.295e-07
1.3074e-07
1.35886e-07
3.1524e-08
1.24203e-07
1.24956e-07
1.25695e-07
1.26238e-07
1.26643e-07
1.26956e-07
1.27205e-07
1.27408e-07
1.27576e-07
1.27718e-07
1.27838e-07
1.27941e-07
1.28031e-07
1.28108e-07
1.28176e-07
1.28236e-07
1.28288e-07
1.28334e-07
1.28378e-07
1.28415e-07
1.28449e-07
1.28478e-07
1.28506e-07
1.28529e-07
1.28551e-07
1.28571e-07
1.2859e-07
1.28605e-07
1.28621e-07
1.28634e-07
1.28649e-07
1.28659e-07
1.28661e-07
1.28672e-07
1.28687e-07
1.28695e-07
1.28697e-07
1.28704e-07
1.28717e-07
1.2872e-07
1.28718e-07
1.28729e-07
1.28743e-07
1.28732e-07
1.28728e-07
1.28746e-07
1.28751e-07
1.28751e-07
1.28753e-07
1.28748e-07
1.28748e-07
1.28751e-07
1.28737e-07
1.28737e-07
1.28736e-07
1.28736e-07
1.28723e-07
1.28732e-07
1.28747e-07
1.28747e-07
1.28734e-07
1.28733e-07
1.28761e-07
1.28756e-07
1.2873e-07
1.28746e-07
1.28772e-07
1.28781e-07
1.28803e-07
1.28795e-07
1.28776e-07
1.28785e-07
1.2878e-07
1.28785e-07
1.28809e-07
1.28827e-07
1.28827e-07
1.28831e-07
1.28824e-07
1.28852e-07
1.28873e-07
1.28889e-07
1.2892e-07
1.28947e-07
1.28967e-07
1.29006e-07
1.29043e-07
1.29092e-07
1.29139e-07
1.29222e-07
1.29278e-07
1.29469e-07
1.29493e-07
1.30764e-07
1.35918e-07
3.29645e-08
1.24198e-07
1.24942e-07
1.25677e-07
1.26219e-07
1.26624e-07
1.26937e-07
1.27186e-07
1.27389e-07
1.27559e-07
1.277e-07
1.27821e-07
1.27924e-07
1.28014e-07
1.28092e-07
1.28161e-07
1.2822e-07
1.28273e-07
1.28319e-07
1.28363e-07
1.28401e-07
1.28435e-07
1.28464e-07
1.28492e-07
1.28516e-07
1.28538e-07
1.28558e-07
1.28577e-07
1.28592e-07
1.28608e-07
1.28622e-07
1.28636e-07
1.28647e-07
1.28649e-07
1.2866e-07
1.28675e-07
1.28683e-07
1.28685e-07
1.28693e-07
1.28706e-07
1.28709e-07
1.28707e-07
1.28718e-07
1.28732e-07
1.28722e-07
1.28717e-07
1.28735e-07
1.2874e-07
1.2874e-07
1.28743e-07
1.28737e-07
1.28737e-07
1.2874e-07
1.28727e-07
1.28727e-07
1.28726e-07
1.28726e-07
1.28714e-07
1.28722e-07
1.28737e-07
1.28737e-07
1.28724e-07
1.28723e-07
1.28752e-07
1.28747e-07
1.28721e-07
1.28737e-07
1.28763e-07
1.28771e-07
1.28794e-07
1.28786e-07
1.28768e-07
1.28777e-07
1.28772e-07
1.28776e-07
1.28801e-07
1.28819e-07
1.28819e-07
1.28824e-07
1.28816e-07
1.28845e-07
1.28866e-07
1.28882e-07
1.28913e-07
1.2894e-07
1.2896e-07
1.28999e-07
1.29036e-07
1.29086e-07
1.29132e-07
1.29216e-07
1.29272e-07
1.29463e-07
1.29485e-07
1.30791e-07
1.3595e-07
3.44752e-08
1.24193e-07
1.24926e-07
1.25657e-07
1.26199e-07
1.26603e-07
1.26916e-07
1.27166e-07
1.2737e-07
1.27539e-07
1.27681e-07
1.27803e-07
1.27906e-07
1.27996e-07
1.28074e-07
1.28143e-07
1.28204e-07
1.28257e-07
1.28303e-07
1.28347e-07
1.28385e-07
1.28419e-07
1.28449e-07
1.28477e-07
1.28501e-07
1.28523e-07
1.28543e-07
1.28563e-07
1.28579e-07
1.28595e-07
1.28609e-07
1.28623e-07
1.28633e-07
1.28636e-07
1.28647e-07
1.28662e-07
1.28671e-07
1.28673e-07
1.2868e-07
1.28693e-07
1.28697e-07
1.28694e-07
1.28706e-07
1.2872e-07
1.2871e-07
1.28705e-07
1.28723e-07
1.28728e-07
1.28728e-07
1.28731e-07
1.28726e-07
1.28726e-07
1.28729e-07
1.28716e-07
1.28716e-07
1.28715e-07
1.28715e-07
1.28703e-07
1.28712e-07
1.28727e-07
1.28727e-07
1.28713e-07
1.28712e-07
1.28741e-07
1.28738e-07
1.28712e-07
1.28727e-07
1.28753e-07
1.28762e-07
1.28784e-07
1.28777e-07
1.28759e-07
1.28768e-07
1.28763e-07
1.28768e-07
1.28792e-07
1.2881e-07
1.28811e-07
1.28816e-07
1.28808e-07
1.28836e-07
1.28858e-07
1.28874e-07
1.28905e-07
1.28933e-07
1.28953e-07
1.28992e-07
1.29029e-07
1.2908e-07
1.29126e-07
1.2921e-07
1.29266e-07
1.29458e-07
1.29477e-07
1.3082e-07
1.35984e-07
3.60593e-08
1.24187e-07
1.24909e-07
1.25636e-07
1.26177e-07
1.26581e-07
1.26894e-07
1.27144e-07
1.27348e-07
1.27518e-07
1.2766e-07
1.27782e-07
1.27886e-07
1.27977e-07
1.28055e-07
1.28125e-07
1.28185e-07
1.28239e-07
1.28286e-07
1.2833e-07
1.28368e-07
1.28403e-07
1.28433e-07
1.28461e-07
1.28486e-07
1.28508e-07
1.28528e-07
1.28548e-07
1.28564e-07
1.2858e-07
1.28594e-07
1.28608e-07
1.28619e-07
1.28622e-07
1.28633e-07
1.28648e-07
1.28657e-07
1.28659e-07
1.28667e-07
1.2868e-07
1.28684e-07
1.28681e-07
1.28692e-07
1.28707e-07
1.28697e-07
1.28692e-07
1.2871e-07
1.28715e-07
1.28716e-07
1.28719e-07
1.28714e-07
1.28714e-07
1.28717e-07
1.28704e-07
1.28704e-07
1.28703e-07
1.28703e-07
1.28692e-07
1.287e-07
1.28715e-07
1.28715e-07
1.28702e-07
1.28701e-07
1.2873e-07
1.28727e-07
1.28701e-07
1.28717e-07
1.28742e-07
1.28751e-07
1.28774e-07
1.28767e-07
1.28749e-07
1.28758e-07
1.28754e-07
1.28758e-07
1.28783e-07
1.288e-07
1.28801e-07
1.28807e-07
1.288e-07
1.28827e-07
1.28849e-07
1.28865e-07
1.28896e-07
1.28925e-07
1.28945e-07
1.28984e-07
1.29021e-07
1.29072e-07
1.29118e-07
1.29203e-07
1.29258e-07
1.29451e-07
1.29468e-07
1.30852e-07
1.36019e-07
3.7721e-08
1.24181e-07
1.24891e-07
1.25614e-07
1.26153e-07
1.26556e-07
1.26869e-07
1.2712e-07
1.27324e-07
1.27495e-07
1.27638e-07
1.2776e-07
1.27865e-07
1.27956e-07
1.28035e-07
1.28105e-07
1.28166e-07
1.2822e-07
1.28267e-07
1.28312e-07
1.2835e-07
1.28385e-07
1.28415e-07
1.28444e-07
1.28468e-07
1.28491e-07
1.28511e-07
1.28531e-07
1.28548e-07
1.28564e-07
1.28578e-07
1.28593e-07
1.28604e-07
1.28607e-07
1.28618e-07
1.28634e-07
1.28642e-07
1.28645e-07
1.28652e-07
1.28666e-07
1.28669e-07
1.28667e-07
1.28678e-07
1.28693e-07
1.28683e-07
1.28678e-07
1.28697e-07
1.28701e-07
1.28702e-07
1.28705e-07
1.28701e-07
1.28701e-07
1.28704e-07
1.28691e-07
1.28691e-07
1.28691e-07
1.2869e-07
1.2868e-07
1.28688e-07
1.28703e-07
1.28703e-07
1.28689e-07
1.28688e-07
1.28718e-07
1.28716e-07
1.2869e-07
1.28705e-07
1.28731e-07
1.28739e-07
1.28763e-07
1.28757e-07
1.28739e-07
1.28747e-07
1.28744e-07
1.28748e-07
1.28772e-07
1.2879e-07
1.28791e-07
1.28798e-07
1.2879e-07
1.28818e-07
1.28839e-07
1.28856e-07
1.28887e-07
1.28916e-07
1.28936e-07
1.28976e-07
1.29013e-07
1.29064e-07
1.2911e-07
1.29195e-07
1.29251e-07
1.29444e-07
1.29459e-07
1.30887e-07
1.36055e-07
3.94642e-08
1.24174e-07
1.24872e-07
1.25589e-07
1.26127e-07
1.2653e-07
1.26843e-07
1.27094e-07
1.27299e-07
1.2747e-07
1.27614e-07
1.27737e-07
1.27842e-07
1.27934e-07
1.28013e-07
1.28083e-07
1.28145e-07
1.28199e-07
1.28247e-07
1.28292e-07
1.2833e-07
1.28366e-07
1.28396e-07
1.28425e-07
1.2845e-07
1.28473e-07
1.28493e-07
1.28514e-07
1.2853e-07
1.28547e-07
1.28561e-07
1.28576e-07
1.28587e-07
1.2859e-07
1.28602e-07
1.28617e-07
1.28626e-07
1.28629e-07
1.28637e-07
1.2865e-07
1.28654e-07
1.28652e-07
1.28663e-07
1.28678e-07
1.28669e-07
1.28663e-07
1.28682e-07
1.28686e-07
1.28687e-07
1.28691e-07
1.28686e-07
1.28686e-07
1.2869e-07
1.28677e-07
1.28677e-07
1.28677e-07
1.28677e-07
1.28667e-07
1.28674e-07
1.2869e-07
1.2869e-07
1.28676e-07
1.28675e-07
1.28704e-07
1.28704e-07
1.28678e-07
1.28693e-07
1.28718e-07
1.28727e-07
1.2875e-07
1.28745e-07
1.28728e-07
1.28736e-07
1.28733e-07
1.28736e-07
1.28761e-07
1.28779e-07
1.28781e-07
1.28787e-07
1.2878e-07
1.28807e-07
1.28829e-07
1.28846e-07
1.28877e-07
1.28906e-07
1.28927e-07
1.28967e-07
1.29004e-07
1.29056e-07
1.29102e-07
1.29187e-07
1.29243e-07
1.29437e-07
1.29449e-07
1.30925e-07
1.36092e-07
4.12931e-08
1.24167e-07
1.24852e-07
1.25564e-07
1.26099e-07
1.26502e-07
1.26815e-07
1.27067e-07
1.27272e-07
1.27443e-07
1.27588e-07
1.27711e-07
1.27817e-07
1.27909e-07
1.27989e-07
1.2806e-07
1.28122e-07
1.28177e-07
1.28225e-07
1.2827e-07
1.28309e-07
1.28345e-07
1.28376e-07
1.28405e-07
1.2843e-07
1.28453e-07
1.28474e-07
1.28495e-07
1.28511e-07
1.28528e-07
1.28543e-07
1.28558e-07
1.2857e-07
1.28573e-07
1.28584e-07
1.286e-07
1.28609e-07
1.28612e-07
1.2862e-07
1.28634e-07
1.28638e-07
1.28635e-07
1.28646e-07
1.28662e-07
1.28653e-07
1.28647e-07
1.28665e-07
1.2867e-07
1.28671e-07
1.28675e-07
1.28671e-07
1.28671e-07
1.28675e-07
1.28662e-07
1.28663e-07
1.28662e-07
1.28662e-07
1.28653e-07
1.2866e-07
1.28676e-07
1.28676e-07
1.28662e-07
1.28661e-07
1.2869e-07
1.28691e-07
1.28665e-07
1.2868e-07
1.28705e-07
1.28714e-07
1.28737e-07
1.28733e-07
1.28716e-07
1.28724e-07
1.28721e-07
1.28725e-07
1.28749e-07
1.28767e-07
1.28769e-07
1.28776e-07
1.2877e-07
1.28796e-07
1.28818e-07
1.28836e-07
1.28866e-07
1.28896e-07
1.28917e-07
1.28957e-07
1.28994e-07
1.29047e-07
1.29092e-07
1.29178e-07
1.29234e-07
1.29429e-07
1.29438e-07
1.30965e-07
1.3613e-07
4.32118e-08
1.2416e-07
1.2483e-07
1.25536e-07
1.26069e-07
1.26472e-07
1.26785e-07
1.27037e-07
1.27243e-07
1.27415e-07
1.2756e-07
1.27684e-07
1.2779e-07
1.27883e-07
1.27963e-07
1.28035e-07
1.28098e-07
1.28153e-07
1.28201e-07
1.28247e-07
1.28287e-07
1.28323e-07
1.28354e-07
1.28384e-07
1.28409e-07
1.28433e-07
1.28454e-07
1.28475e-07
1.28492e-07
1.28509e-07
1.28523e-07
1.28539e-07
1.28551e-07
1.28554e-07
1.28566e-07
1.28582e-07
1.28591e-07
1.28595e-07
1.28602e-07
1.28616e-07
1.2862e-07
1.28618e-07
1.28628e-07
1.28645e-07
1.28636e-07
1.2863e-07
1.28648e-07
1.28653e-07
1.28655e-07
1.28659e-07
1.28655e-07
1.28655e-07
1.28659e-07
1.28647e-07
1.28647e-07
1.28646e-07
1.28647e-07
1.28638e-07
1.28645e-07
1.28661e-07
1.28661e-07
1.28647e-07
1.28646e-07
1.28675e-07
1.28677e-07
1.28651e-07
1.28666e-07
1.2869e-07
1.287e-07
1.28724e-07
1.28719e-07
1.28703e-07
1.28711e-07
1.28708e-07
1.28712e-07
1.28737e-07
1.28755e-07
1.28757e-07
1.28765e-07
1.28758e-07
1.28785e-07
1.28807e-07
1.28824e-07
1.28855e-07
1.28885e-07
1.28906e-07
1.28947e-07
1.28984e-07
1.29037e-07
1.29082e-07
1.29169e-07
1.29224e-07
1.2942e-07
1.29426e-07
1.31008e-07
1.36169e-07
4.52244e-08
1.24152e-07
1.24807e-07
1.25507e-07
1.26038e-07
1.2644e-07
1.26754e-07
1.27006e-07
1.27212e-07
1.27385e-07
1.2753e-07
1.27655e-07
1.27762e-07
1.27856e-07
1.27936e-07
1.28009e-07
1.28072e-07
1.28128e-07
1.28177e-07
1.28223e-07
1.28263e-07
1.28299e-07
1.28331e-07
1.28361e-07
1.28387e-07
1.28411e-07
1.28432e-07
1.28453e-07
1.2847e-07
1.28488e-07
1.28503e-07
1.28518e-07
1.2853e-07
1.28534e-07
1.28546e-07
1.28562e-07
1.28572e-07
1.28575e-07
1.28583e-07
1.28597e-07
1.28601e-07
1.28599e-07
1.2861e-07
1.28626e-07
1.28618e-07
1.28612e-07
1.2863e-07
1.28635e-07
1.28637e-07
1.28641e-07
1.28637e-07
1.28638e-07
1.28641e-07
1.2863e-07
1.2863e-07
1.2863e-07
1.2863e-07
1.28622e-07
1.28628e-07
1.28645e-07
1.28645e-07
1.28631e-07
1.2863e-07
1.28659e-07
1.28662e-07
1.28636e-07
1.28651e-07
1.28675e-07
1.28685e-07
1.28709e-07
1.28705e-07
1.28689e-07
1.28697e-07
1.28695e-07
1.28698e-07
1.28723e-07
1.28741e-07
1.28744e-07
1.28752e-07
1.28746e-07
1.28772e-07
1.28794e-07
1.28812e-07
1.28843e-07
1.28874e-07
1.28895e-07
1.28936e-07
1.28973e-07
1.29026e-07
1.29072e-07
1.29158e-07
1.29214e-07
1.29411e-07
1.29414e-07
1.31052e-07
1.36208e-07
4.73351e-08
1.24144e-07
1.24783e-07
1.25476e-07
1.26005e-07
1.26406e-07
1.2672e-07
1.26972e-07
1.27179e-07
1.27353e-07
1.27499e-07
1.27624e-07
1.27732e-07
1.27826e-07
1.27908e-07
1.27981e-07
1.28044e-07
1.28101e-07
1.2815e-07
1.28197e-07
1.28237e-07
1.28274e-07
1.28306e-07
1.28337e-07
1.28363e-07
1.28387e-07
1.28409e-07
1.2843e-07
1.28448e-07
1.28465e-07
1.28481e-07
1.28496e-07
1.28509e-07
1.28513e-07
1.28525e-07
1.28541e-07
1.28551e-07
1.28555e-07
1.28563e-07
1.28577e-07
1.28581e-07
1.28579e-07
1.2859e-07
1.28607e-07
1.28599e-07
1.28593e-07
1.28611e-07
1.28616e-07
1.28617e-07
1.28622e-07
1.28619e-07
1.28619e-07
1.28623e-07
1.28612e-07
1.28612e-07
1.28612e-07
1.28612e-07
1.28605e-07
1.28611e-07
1.28628e-07
1.28628e-07
1.28613e-07
1.28612e-07
1.28642e-07
1.28646e-07
1.28621e-07
1.28635e-07
1.28659e-07
1.28669e-07
1.28693e-07
1.2869e-07
1.28675e-07
1.28682e-07
1.2868e-07
1.28684e-07
1.28709e-07
1.28727e-07
1.2873e-07
1.28739e-07
1.28733e-07
1.28759e-07
1.28781e-07
1.28799e-07
1.2883e-07
1.28861e-07
1.28883e-07
1.28924e-07
1.28961e-07
1.29015e-07
1.2906e-07
1.29147e-07
1.29202e-07
1.294e-07
1.294e-07
1.31099e-07
1.36249e-07
4.95478e-08
1.24136e-07
1.24757e-07
1.25443e-07
1.2597e-07
1.2637e-07
1.26684e-07
1.26937e-07
1.27144e-07
1.27319e-07
1.27465e-07
1.27592e-07
1.277e-07
1.27795e-07
1.27877e-07
1.27951e-07
1.28015e-07
1.28072e-07
1.28122e-07
1.28169e-07
1.2821e-07
1.28247e-07
1.2828e-07
1.28311e-07
1.28337e-07
1.28362e-07
1.28384e-07
1.28406e-07
1.28424e-07
1.28441e-07
1.28457e-07
1.28473e-07
1.28486e-07
1.28491e-07
1.28502e-07
1.28519e-07
1.28529e-07
1.28533e-07
1.28541e-07
1.28555e-07
1.2856e-07
1.28558e-07
1.28569e-07
1.28586e-07
1.28579e-07
1.28572e-07
1.2859e-07
1.28595e-07
1.28597e-07
1.28603e-07
1.28599e-07
1.286e-07
1.28604e-07
1.28593e-07
1.28593e-07
1.28593e-07
1.28593e-07
1.28587e-07
1.28593e-07
1.28609e-07
1.2861e-07
1.28595e-07
1.28594e-07
1.28624e-07
1.28629e-07
1.28604e-07
1.28618e-07
1.28642e-07
1.28651e-07
1.28676e-07
1.28674e-07
1.28659e-07
1.28667e-07
1.28665e-07
1.28669e-07
1.28693e-07
1.28712e-07
1.28715e-07
1.28724e-07
1.28719e-07
1.28744e-07
1.28767e-07
1.28786e-07
1.28816e-07
1.28848e-07
1.2887e-07
1.28911e-07
1.28948e-07
1.29003e-07
1.29048e-07
1.29136e-07
1.2919e-07
1.29389e-07
1.29386e-07
1.31148e-07
1.36289e-07
5.18657e-08
1.24128e-07
1.24731e-07
1.25408e-07
1.25932e-07
1.26332e-07
1.26646e-07
1.26899e-07
1.27107e-07
1.27282e-07
1.2743e-07
1.27557e-07
1.27666e-07
1.27762e-07
1.27845e-07
1.27919e-07
1.27984e-07
1.28042e-07
1.28092e-07
1.2814e-07
1.28181e-07
1.28219e-07
1.28252e-07
1.28284e-07
1.2831e-07
1.28335e-07
1.28358e-07
1.2838e-07
1.28398e-07
1.28416e-07
1.28432e-07
1.28448e-07
1.28462e-07
1.28467e-07
1.28479e-07
1.28495e-07
1.28506e-07
1.2851e-07
1.28518e-07
1.28533e-07
1.28538e-07
1.28536e-07
1.28546e-07
1.28564e-07
1.28557e-07
1.2855e-07
1.28568e-07
1.28574e-07
1.28576e-07
1.28581e-07
1.28578e-07
1.28579e-07
1.28583e-07
1.28573e-07
1.28573e-07
1.28573e-07
1.28574e-07
1.28567e-07
1.28573e-07
1.2859e-07
1.2859e-07
1.28576e-07
1.28575e-07
1.28605e-07
1.28612e-07
1.28587e-07
1.286e-07
1.28623e-07
1.28633e-07
1.28658e-07
1.28657e-07
1.28642e-07
1.2865e-07
1.28649e-07
1.28652e-07
1.28677e-07
1.28696e-07
1.287e-07
1.28709e-07
1.28704e-07
1.28729e-07
1.28752e-07
1.28771e-07
1.28801e-07
1.28834e-07
1.28856e-07
1.28897e-07
1.28935e-07
1.2899e-07
1.29035e-07
1.29123e-07
1.29178e-07
1.29377e-07
1.29371e-07
1.31198e-07
1.3633e-07
5.4292e-08
1.24119e-07
1.24703e-07
1.25372e-07
1.25893e-07
1.26292e-07
1.26606e-07
1.2686e-07
1.27068e-07
1.27244e-07
1.27392e-07
1.2752e-07
1.2763e-07
1.27727e-07
1.2781e-07
1.27885e-07
1.27951e-07
1.28009e-07
1.2806e-07
1.28109e-07
1.28151e-07
1.28189e-07
1.28223e-07
1.28255e-07
1.28282e-07
1.28307e-07
1.2833e-07
1.28352e-07
1.28371e-07
1.2839e-07
1.28406e-07
1.28422e-07
1.28436e-07
1.28441e-07
1.28453e-07
1.2847e-07
1.28481e-07
1.28486e-07
1.28494e-07
1.28509e-07
1.28514e-07
1.28512e-07
1.28522e-07
1.28541e-07
1.28535e-07
1.28527e-07
1.28545e-07
1.28551e-07
1.28553e-07
1.28559e-07
1.28556e-07
1.28557e-07
1.28562e-07
1.28552e-07
1.28552e-07
1.28552e-07
1.28553e-07
1.28547e-07
1.28553e-07
1.2857e-07
1.2857e-07
1.28556e-07
1.28554e-07
1.28584e-07
1.28593e-07
1.28568e-07
1.28581e-07
1.28604e-07
1.28614e-07
1.2864e-07
1.28639e-07
1.28625e-07
1.28632e-07
1.28632e-07
1.28635e-07
1.2866e-07
1.28679e-07
1.28683e-07
1.28693e-07
1.28688e-07
1.28713e-07
1.28736e-07
1.28756e-07
1.28785e-07
1.28819e-07
1.28841e-07
1.28883e-07
1.2892e-07
1.28976e-07
1.29021e-07
1.29109e-07
1.29164e-07
1.29365e-07
1.29355e-07
1.31249e-07
1.3637e-07
5.68286e-08
1.2411e-07
1.24674e-07
1.25335e-07
1.25852e-07
1.2625e-07
1.26564e-07
1.26818e-07
1.27027e-07
1.27204e-07
1.27353e-07
1.27482e-07
1.27592e-07
1.2769e-07
1.27774e-07
1.2785e-07
1.27916e-07
1.27975e-07
1.28027e-07
1.28076e-07
1.28119e-07
1.28158e-07
1.28192e-07
1.28224e-07
1.28252e-07
1.28278e-07
1.28301e-07
1.28324e-07
1.28343e-07
1.28361e-07
1.28378e-07
1.28395e-07
1.28409e-07
1.28415e-07
1.28427e-07
1.28444e-07
1.28455e-07
1.28461e-07
1.28469e-07
1.28483e-07
1.28489e-07
1.28487e-07
1.28498e-07
1.28516e-07
1.28511e-07
1.28503e-07
1.28521e-07
1.28527e-07
1.28529e-07
1.28536e-07
1.28533e-07
1.28534e-07
1.28539e-07
1.28529e-07
1.28529e-07
1.28529e-07
1.2853e-07
1.28526e-07
1.28531e-07
1.28548e-07
1.28549e-07
1.28534e-07
1.28533e-07
1.28563e-07
1.28572e-07
1.28548e-07
1.28561e-07
1.28584e-07
1.28594e-07
1.2862e-07
1.2862e-07
1.28606e-07
1.28614e-07
1.28614e-07
1.28617e-07
1.28642e-07
1.28661e-07
1.28665e-07
1.28676e-07
1.28672e-07
1.28696e-07
1.28719e-07
1.28739e-07
1.28769e-07
1.28803e-07
1.28825e-07
1.28867e-07
1.28905e-07
1.28961e-07
1.29006e-07
1.29095e-07
1.29149e-07
1.29351e-07
1.29338e-07
1.313e-07
1.3641e-07
5.94763e-08
1.24101e-07
1.24644e-07
1.25295e-07
1.25809e-07
1.26206e-07
1.2652e-07
1.26774e-07
1.26984e-07
1.27161e-07
1.27311e-07
1.27441e-07
1.27552e-07
1.27651e-07
1.27736e-07
1.27813e-07
1.27879e-07
1.2794e-07
1.27992e-07
1.28041e-07
1.28085e-07
1.28124e-07
1.28159e-07
1.28192e-07
1.2822e-07
1.28246e-07
1.2827e-07
1.28293e-07
1.28312e-07
1.28332e-07
1.28349e-07
1.28366e-07
1.2838e-07
1.28387e-07
1.28399e-07
1.28416e-07
1.28428e-07
1.28433e-07
1.28442e-07
1.28456e-07
1.28463e-07
1.28461e-07
1.28471e-07
1.2849e-07
1.28485e-07
1.28477e-07
1.28495e-07
1.28501e-07
1.28504e-07
1.28511e-07
1.28509e-07
1.2851e-07
1.28514e-07
1.28506e-07
1.28506e-07