/*--------------------------------*- C++ -*----------------------------------*\
| =========                 |                                                 |
| \\      /  F ield         | OpenFOAM: The Open Source CFD Toolbox           |
|  \\    /   O peration     | Version:  v2012                                 |
|   \\  /    A nd           | Website:  www.openfoam.com                      |
|    \\/     M anipulation  |                                                 |
\*---------------------------------------------------------------------------*/
FoamFile
{
    version     2.0;
    format      ascii;
    class       volScalarField;
    location    "11";
    object      yPlus;
}
// * * * * * * * * * * * * * * * * * * * * * * * * * * * * * * * * * * * * * //

dimensions      [0 0 0 0 0 0 0];


internalField   uniform 0;

boundaryField
{
    inlet
    {
        type            calculated;
        value           uniform 0;
    }
    outlet
    {
        type            calculated;
        value           uniform 0;
    }
    topWall
    {
        type            calculated;
        value           nonuniform List<scalar> 
545
(
0.0896165
0.154883
0.198708
0.233506
0.262945
0.288682
0.311652
0.332441
0.351448
0.368961
0.385194
0.400314
0.414453
0.42772
0.440202
0.451976
0.463104
0.473641
0.483634
0.493126
0.502154
0.510749
0.518941
0.526757
0.534221
0.541354
0.548176
0.554705
0.560957
0.566948
0.572693
0.578203
0.583492
0.58857
0.593449
0.598137
0.602644
0.606979
0.61115
0.615164
0.619029
0.62275
0.626336
0.62979
0.63312
0.636331
0.639427
0.642414
0.645295
0.648076
0.65076
0.653352
0.655854
0.658271
0.660605
0.662861
0.665041
0.667147
0.669184
0.671153
0.673057
0.674898
0.676679
0.678401
0.680068
0.681681
0.683241
0.684752
0.686214
0.687629
0.688999
0.690326
0.691592
0.692817
0.69403
0.695232
0.696423
0.697603
0.698772
0.699931
0.701079
0.702217
0.703344
0.704462
0.705569
0.706666
0.707753
0.708831
0.709899
0.710957
0.712006
0.713045
0.714075
0.715096
0.716108
0.717112
0.718007
0.718807
0.719606
0.720404
0.721201
0.721997
0.722793
0.723587
0.724381
0.725174
0.725966
0.726757
0.727548
0.728337
0.729126
0.729913
0.7307
0.731486
0.732271
0.733055
0.733838
0.73462
0.735401
0.736181
0.73696
0.737738
0.738515
0.739292
0.740067
0.740841
0.741614
0.742386
0.743157
0.743927
0.744695
0.745463
0.74623
0.746995
0.747759
0.748522
0.749284
0.750045
0.750805
0.751564
0.752321
0.753077
0.753832
0.754586
0.755338
0.756089
0.756839
0.757588
0.758335
0.759082
0.759826
0.76057
0.761312
0.762053
0.762792
0.763531
0.764267
0.765003
0.765737
0.766469
0.767201
0.76793
0.768659
0.769386
0.770111
0.770835
0.771557
0.772278
0.772998
0.773716
0.774432
0.775147
0.77586
0.776572
0.777282
0.777991
0.778697
0.779403
0.780106
0.780808
0.781509
0.782207
0.782904
0.7836
0.784293
0.784985
0.785675
0.786364
0.78705
0.787735
0.788418
0.789099
0.789779
0.790456
0.791132
0.791806
0.792478
0.793148
0.793816
0.794483
0.795147
0.795809
0.79647
0.797129
0.797785
0.79844
0.799092
0.799743
0.800391
0.801038
0.801682
0.802324
0.802965
0.803603
0.804239
0.804873
0.805504
0.806134
0.806761
0.807387
0.80801
0.80863
0.809249
0.809865
0.810479
0.811091
0.811701
0.812308
0.812913
0.813515
0.814115
0.814713
0.815308
0.815901
0.816492
0.81708
0.817666
0.818249
0.81883
0.819408
0.819984
0.820558
0.821128
0.821697
0.822262
0.822826
0.823386
0.823944
0.824499
0.825052
0.825602
0.826149
0.826694
0.827236
0.827775
0.828312
0.828846
0.829377
0.829905
0.830431
0.830954
0.831473
0.831991
0.832505
0.833016
0.833525
0.83403
0.834533
0.835034
0.835499
0.835935
0.836372
0.836812
0.837253
0.837696
0.83814
0.838586
0.839034
0.839483
0.839933
0.840385
0.840838
0.841293
0.841749
0.842205
0.842663
0.843122
0.843582
0.844042
0.844503
0.844965
0.845428
0.845891
0.846354
0.846818
0.847282
0.847747
0.848211
0.848675
0.849139
0.849603
0.850066
0.850529
0.850992
0.851453
0.851914
0.852374
0.852833
0.85329
0.853747
0.854202
0.854655
0.855106
0.855556
0.856004
0.856449
0.856892
0.857333
0.857771
0.858206
0.858639
0.859068
0.859494
0.859916
0.860335
0.86075
0.86116
0.861567
0.861969
0.862367
0.86276
0.863148
0.86353
0.863907
0.864279
0.864645
0.865004
0.865357
0.865704
0.866044
0.866377
0.866703
0.867021
0.867331
0.867633
0.867928
0.868213
0.86849
0.868758
0.869016
0.869265
0.869504
0.869733
0.869951
0.870159
0.870356
0.870541
0.870715
0.870877
0.871026
0.871164
0.871288
0.871399
0.871497
0.871581
0.871651
0.871707
0.871747
0.871773
0.871784
0.871779
0.871757
0.87172
0.871665
0.871594
0.871506
0.871399
0.871275
0.871133
0.870971
0.870791
0.870591
0.870372
0.870133
0.869873
0.869593
0.869292
0.86897
0.868626
0.86826
0.867871
0.86746
0.867027
0.86657
0.866089
0.865585
0.865057
0.864504
0.863927
0.863325
0.862698
0.862045
0.861367
0.860662
0.859931
0.859174
0.85839
0.85758
0.856742
0.855877
0.854985
0.854064
0.853116
0.85214
0.851136
0.850104
0.849043
0.847954
0.846837
0.845691
0.844516
0.843312
0.84208
0.840819
0.83953
0.838211
0.836865
0.835489
0.834086
0.832653
0.831193
0.829705
0.828188
0.826644
0.825072
0.823473
0.821847
0.820193
0.818513
0.816806
0.815073
0.813315
0.81153
0.80972
0.807886
0.806027
0.804144
0.802237
0.800308
0.798354
0.796167
0.793753
0.791339
0.788927
0.786519
0.784114
0.781715
0.779322
0.776936
0.774559
0.772191
0.769832
0.767485
0.76515
0.762827
0.760518
0.758223
0.755943
0.753679
0.75143
0.749199
0.746985
0.744789
0.742612
0.740453
0.738315
0.736196
0.734098
0.732021
0.729965
0.727931
0.72592
0.723931
0.721966
0.720024
0.718106
0.716212
0.714343
0.712498
0.710679
0.708886
0.707118
0.705377
0.703662
0.701974
0.700313
0.698679
0.697073
0.695494
0.693944
0.692422
0.690928
0.689463
0.688027
0.686621
0.685243
0.683896
0.682578
0.68129
0.680032
0.678805
0.677608
0.676442
0.675308
0.674204
0.673131
0.67209
0.671081
0.670103
0.669158
0.668245
0.667364
0.666515
0.665699
0.664916
0.664166
0.663449
0.662765
0.662114
0.661497
0.660914
0.660365
0.659849
0.659369
0.658922
0.65851
0.658132
0.657788
0.657477
0.657199
0.656952
0.656736
0.656544
0.656404
0.656228
)
;
    }
    bottomWall
    {
        type            calculated;
        value           nonuniform List<scalar> 
449
(
0.139629
0.0890716
0.0759184
0.0695608
0.0654123
0.0623634
0.0600369
0.0583696
0.0575578
0.0580213
0.0612692
0.0650578
0.0675716
0.0689373
0.0696579
0.0700222
0.070162
0.0701411
0.0700077
0.069808
0.0695597
0.0692813
0.0689861
0.0686814
0.0683744
0.0680677
0.0677656
0.067468
0.0671781
0.0668948
0.06662
0.0663525
0.0660934
0.0658421
0.0655989
0.0653632
0.0651354
0.0649146
0.0647009
0.0644938
0.0642933
0.0640986
0.0639104
0.0637268
0.0635497
0.0633765
0.0632096
0.0630459
0.0628884
0.0627335
0.0625844
0.0624378
0.0622964
0.0621573
0.062023
0.0618909
0.061763
0.0616374
0.0615154
0.0613956
0.0612794
0.0611649
0.061054
0.0609442
0.0608382
0.060733
0.0606314
0.0605307
0.0604333
0.0603371
0.0602434
0.0601514
0.060061
0.0599725
0.0598855
0.0598004
0.0597168
0.059635
0.0595541
0.0594754
0.0593974
0.0593214
0.0592464
0.0591734
0.0591008
0.0590298
0.0589603
0.0588914
0.0588243
0.0587572
0.058693
0.058628
0.0585655
0.0585024
0.0584412
0.0583804
0.0583209
0.0582618
0.0582037
0.0581467
0.0580898
0.0580343
0.0579797
0.0579266
0.0578738
0.057822
0.0577703
0.0577202
0.0576701
0.0576206
0.057572
0.0575244
0.057477
0.0574304
0.0573844
0.0573392
0.0572942
0.0572507
0.0572077
0.0571654
0.0571239
0.0570829
0.0570419
0.0570017
0.056962
0.0569223
0.0568834
0.0568449
0.056807
0.0567696
0.0567326
0.0566961
0.0566606
0.056625
0.0565909
0.0565565
0.0565228
0.0564892
0.056456
0.0564227
0.0563901
0.0563575
0.0563254
0.0562935
0.0562614
0.0562306
0.0561993
0.0561684
0.0561366
0.0561061
0.0560751
0.0560461
0.0560173
0.0559899
0.0559631
0.0559364
0.0559103
0.0558836
0.0558574
0.0558312
0.055805
0.0557792
0.0557541
0.0557284
0.0557037
0.0556797
0.0556552
0.0556314
0.0556075
0.0555833
0.0555592
0.0555358
0.0555131
0.055491
0.0554705
0.05545
0.0554295
0.0554097
0.0553891
0.0553685
0.0553474
0.0553254
0.0553042
0.0552836
0.0552636
0.0552447
0.0552258
0.0552067
0.0551886
0.0551704
0.055152
0.0551343
0.0551162
0.0550979
0.0550803
0.0550623
0.0550442
0.0550268
0.0550089
0.054991
0.0549738
0.0549561
0.0549384
0.0549214
0.0549038
0.0548864
0.0548698
0.0548521
0.0548353
0.0548177
0.0548002
0.0547831
0.0547656
0.0547491
0.0547332
0.0547161
0.0547001
0.0546833
0.0546652
0.054649
0.0546326
0.054617
0.0546015
0.0545853
0.0545703
0.0545547
0.0545398
0.0545254
0.0545108
0.0544965
0.0544825
0.054467
0.0544517
0.0544361
0.0544201
0.0544052
0.0543918
0.054377
0.0543627
0.0543482
0.0543331
0.0543201
0.0543068
0.0542931
0.0542795
0.0542671
0.0542527
0.0542387
0.054225
0.0542114
0.0541991
0.0541863
0.0541745
0.0541608
0.0541481
0.0541364
0.0541235
0.0541111
0.0540986
0.0540861
0.0540728
0.0540596
0.0540454
0.0540324
0.0540207
0.0540074
0.0539948
0.0539825
0.05397
0.0539566
0.0539429
0.0539298
0.0539173
0.0539059
0.0538932
0.0538804
0.0538689
0.0538552
0.0538416
0.0538301
0.053817
0.0538037
0.0537924
0.0537795
0.0537662
0.0537548
0.0537419
0.0537286
0.0537165
0.0537033
0.0536903
0.0536774
0.0536641
0.053652
0.0536391
0.053626
0.0536136
0.0536019
0.0535879
0.0535744
0.0535626
0.0535491
0.0535353
0.0535237
0.0535104
0.0534978
0.0534854
0.0534724
0.0534608
0.053448
0.0534349
0.0534236
0.0534107
0.0533976
0.0533861
0.0533733
0.0533603
0.0533493
0.0533367
0.0533241
0.0533133
0.0533009
0.0532883
0.0532775
0.0532651
0.0532527
0.0532419
0.0532295
0.0532172
0.0532065
0.0531941
0.0531818
0.0531711
0.0531588
0.0531468
0.053136
0.0531239
0.0531118
0.0531013
0.0530895
0.0530774
0.0530669
0.0530549
0.0530436
0.0530315
0.05302
0.0530101
0.0529989
0.0529876
0.0529778
0.0529663
0.0529556
0.0529448
0.0529341
0.0529225
0.0529105
0.0529001
0.0528882
0.0528769
0.0528643
0.0528532
0.0528417
0.0528308
0.0528205
0.0528102
0.0527989
0.0527876
0.0527776
0.0527678
0.0527569
0.052747
0.0527369
0.0527278
0.052719
0.05271
0.0527023
0.0526933
0.052685
0.0526759
0.0526673
0.0526589
0.0526512
0.0526429
0.052635
0.0526278
0.0526195
0.0526119
0.0526041
0.0525969
0.0525894
0.0525824
0.0525759
0.0525681
0.0525612
0.0525535
0.0525468
0.0525403
0.0525333
0.0525272
0.0525206
0.0525138
0.052507
0.0525009
0.0524955
0.052489
0.0524832
0.0524773
0.0524713
0.0524662
0.0524604
0.0524553
0.0524498
0.0524451
0.0524401
0.0524346
0.05243
0.0524249
0.0524199
0.0524154
0.0524093
0.0524044
0.0523999
0.0523948
0.0523905
0.0523855
0.0523806
0.0523768
0.0523722
0.0523675
0.0523639
0.0523591
0.0523553
0.0523513
0.0523479
0.0523441
0.0523398
0.0523362
0.0523327
0.0523285
0.0523247
0.0523209
0.052317
0.0523136
0.0523104
0.0523053
0.0523026
0.0522971
0.0522989
0.0522877
)
;
    }
    symmetry
    {
        type            symmetryPlane;
    }
    frontAndBack
    {
        type            empty;
    }
}


// ************************************************************************* //
