/*--------------------------------*- C++ -*----------------------------------*\
| =========                 |                                                 |
| \\      /  F ield         | OpenFOAM: The Open Source CFD Toolbox           |
|  \\    /   O peration     | Version:  v2012                                 |
|   \\  /    A nd           | Website:  www.openfoam.com                      |
|    \\/     M anipulation  |                                                 |
\*---------------------------------------------------------------------------*/
FoamFile
{
    version     2.0;
    format      ascii;
    class       volScalarField;
    location    "29.5";
    object      nut;
}
// * * * * * * * * * * * * * * * * * * * * * * * * * * * * * * * * * * * * * //

dimensions      [0 2 -1 0 0 0 0];


internalField   nonuniform List<scalar> 
209825
(
1.2386e-07
1.22962e-07
1.22704e-07
1.22901e-07
1.23321e-07
1.23799e-07
1.2428e-07
1.24721e-07
1.2513e-07
1.25492e-07
1.25826e-07
1.26118e-07
1.2639e-07
1.26626e-07
1.26849e-07
1.27042e-07
1.27227e-07
1.27387e-07
1.27541e-07
1.27674e-07
1.27805e-07
1.27917e-07
1.28029e-07
1.28124e-07
1.2822e-07
1.28301e-07
1.28383e-07
1.28454e-07
1.28526e-07
1.28587e-07
1.2865e-07
1.28703e-07
1.2876e-07
1.28807e-07
1.28856e-07
1.28895e-07
1.28941e-07
1.28978e-07
1.29018e-07
1.2905e-07
1.29087e-07
1.29119e-07
1.29148e-07
1.29175e-07
1.29207e-07
1.29229e-07
1.29256e-07
1.29275e-07
1.29299e-07
1.29321e-07
1.29343e-07
1.29359e-07
1.2938e-07
1.294e-07
1.29415e-07
1.29429e-07
1.29448e-07
1.29457e-07
1.29465e-07
1.29477e-07
1.29483e-07
1.29495e-07
1.29497e-07
1.29523e-07
1.29539e-07
1.29566e-07
1.29589e-07
1.2962e-07
1.29632e-07
1.29661e-07
1.29677e-07
1.29703e-07
1.29727e-07
1.29754e-07
1.29769e-07
1.29794e-07
1.29809e-07
1.29831e-07
1.29849e-07
1.29868e-07
1.29888e-07
1.29906e-07
1.29928e-07
1.2995e-07
1.29969e-07
1.29994e-07
1.30014e-07
1.30044e-07
1.30066e-07
1.30103e-07
1.30128e-07
1.3018e-07
1.30216e-07
1.31395e-07
1.35407e-07
1.50152e-08
1.2386e-07
1.22962e-07
1.22704e-07
1.22901e-07
1.23321e-07
1.23799e-07
1.24279e-07
1.2472e-07
1.2513e-07
1.25492e-07
1.25826e-07
1.26118e-07
1.26389e-07
1.26626e-07
1.26849e-07
1.27042e-07
1.27227e-07
1.27387e-07
1.27541e-07
1.27674e-07
1.27805e-07
1.27917e-07
1.28029e-07
1.28124e-07
1.2822e-07
1.28301e-07
1.28383e-07
1.28454e-07
1.28526e-07
1.28587e-07
1.2865e-07
1.28703e-07
1.2876e-07
1.28807e-07
1.28856e-07
1.28895e-07
1.28941e-07
1.28978e-07
1.29018e-07
1.2905e-07
1.29087e-07
1.29119e-07
1.29148e-07
1.29175e-07
1.29207e-07
1.29229e-07
1.29256e-07
1.29275e-07
1.293e-07
1.29321e-07
1.29343e-07
1.29359e-07
1.2938e-07
1.294e-07
1.29415e-07
1.29429e-07
1.29448e-07
1.29457e-07
1.29465e-07
1.29477e-07
1.29483e-07
1.29496e-07
1.29497e-07
1.29523e-07
1.29539e-07
1.29566e-07
1.29589e-07
1.2962e-07
1.29632e-07
1.29661e-07
1.29677e-07
1.29703e-07
1.29727e-07
1.29754e-07
1.29769e-07
1.29794e-07
1.29809e-07
1.29831e-07
1.29849e-07
1.29868e-07
1.29888e-07
1.29906e-07
1.29929e-07
1.2995e-07
1.2997e-07
1.29994e-07
1.30014e-07
1.30044e-07
1.30066e-07
1.30104e-07
1.30128e-07
1.3018e-07
1.30217e-07
1.31398e-07
1.35409e-07
1.54727e-08
1.2386e-07
1.22962e-07
1.22704e-07
1.229e-07
1.23319e-07
1.23797e-07
1.24277e-07
1.24718e-07
1.25127e-07
1.25489e-07
1.25823e-07
1.26115e-07
1.26387e-07
1.26623e-07
1.26846e-07
1.27039e-07
1.27224e-07
1.27384e-07
1.27538e-07
1.27671e-07
1.27802e-07
1.27914e-07
1.28026e-07
1.28121e-07
1.28217e-07
1.28298e-07
1.28381e-07
1.28451e-07
1.28523e-07
1.28584e-07
1.28647e-07
1.287e-07
1.28758e-07
1.28804e-07
1.28853e-07
1.28893e-07
1.28938e-07
1.28975e-07
1.29015e-07
1.29047e-07
1.29084e-07
1.29116e-07
1.29146e-07
1.29172e-07
1.29205e-07
1.29226e-07
1.29253e-07
1.29273e-07
1.29297e-07
1.29318e-07
1.2934e-07
1.29356e-07
1.29378e-07
1.29397e-07
1.29413e-07
1.29426e-07
1.29445e-07
1.29454e-07
1.29463e-07
1.29474e-07
1.2948e-07
1.29493e-07
1.29494e-07
1.2952e-07
1.29536e-07
1.29564e-07
1.29586e-07
1.29618e-07
1.29629e-07
1.29658e-07
1.29675e-07
1.29701e-07
1.29725e-07
1.29752e-07
1.29767e-07
1.29791e-07
1.29807e-07
1.29829e-07
1.29846e-07
1.29866e-07
1.29885e-07
1.29904e-07
1.29926e-07
1.29947e-07
1.29967e-07
1.29992e-07
1.30012e-07
1.30041e-07
1.30064e-07
1.30101e-07
1.30126e-07
1.30177e-07
1.30214e-07
1.314e-07
1.35409e-07
1.60405e-08
1.2386e-07
1.22961e-07
1.22702e-07
1.22898e-07
1.23316e-07
1.23794e-07
1.24273e-07
1.24714e-07
1.25123e-07
1.25485e-07
1.25819e-07
1.26111e-07
1.26382e-07
1.26619e-07
1.26842e-07
1.27035e-07
1.2722e-07
1.2738e-07
1.27534e-07
1.27667e-07
1.27798e-07
1.2791e-07
1.28022e-07
1.28117e-07
1.28213e-07
1.28294e-07
1.28377e-07
1.28447e-07
1.28519e-07
1.2858e-07
1.28643e-07
1.28696e-07
1.28754e-07
1.288e-07
1.28849e-07
1.28889e-07
1.28934e-07
1.28971e-07
1.29011e-07
1.29043e-07
1.29081e-07
1.29112e-07
1.29142e-07
1.29168e-07
1.29201e-07
1.29222e-07
1.29249e-07
1.29269e-07
1.29293e-07
1.29315e-07
1.29337e-07
1.29353e-07
1.29374e-07
1.29393e-07
1.29409e-07
1.29423e-07
1.29442e-07
1.29451e-07
1.29459e-07
1.29471e-07
1.29477e-07
1.29489e-07
1.2949e-07
1.29516e-07
1.29532e-07
1.2956e-07
1.29583e-07
1.29614e-07
1.29626e-07
1.29654e-07
1.29671e-07
1.29697e-07
1.29721e-07
1.29748e-07
1.29763e-07
1.29787e-07
1.29803e-07
1.29825e-07
1.29843e-07
1.29862e-07
1.29881e-07
1.299e-07
1.29922e-07
1.29943e-07
1.29963e-07
1.29988e-07
1.30008e-07
1.30038e-07
1.3006e-07
1.30097e-07
1.30122e-07
1.30173e-07
1.3021e-07
1.31403e-07
1.35409e-07
1.66704e-08
1.2386e-07
1.22961e-07
1.22701e-07
1.22895e-07
1.23312e-07
1.23789e-07
1.24268e-07
1.24708e-07
1.25118e-07
1.25479e-07
1.25813e-07
1.26105e-07
1.26376e-07
1.26613e-07
1.26836e-07
1.27029e-07
1.27214e-07
1.27374e-07
1.27528e-07
1.27661e-07
1.27792e-07
1.27904e-07
1.28016e-07
1.28111e-07
1.28207e-07
1.28288e-07
1.28371e-07
1.28441e-07
1.28513e-07
1.28575e-07
1.28638e-07
1.2869e-07
1.28748e-07
1.28795e-07
1.28844e-07
1.28884e-07
1.28929e-07
1.28966e-07
1.29006e-07
1.29038e-07
1.29075e-07
1.29107e-07
1.29136e-07
1.29163e-07
1.29196e-07
1.29217e-07
1.29244e-07
1.29264e-07
1.29288e-07
1.2931e-07
1.29332e-07
1.29348e-07
1.29369e-07
1.29388e-07
1.29404e-07
1.29418e-07
1.29437e-07
1.29446e-07
1.29454e-07
1.29466e-07
1.29472e-07
1.29485e-07
1.29486e-07
1.29511e-07
1.29527e-07
1.29555e-07
1.29578e-07
1.29609e-07
1.29621e-07
1.29649e-07
1.29666e-07
1.29692e-07
1.29716e-07
1.29743e-07
1.29758e-07
1.29782e-07
1.29798e-07
1.2982e-07
1.29838e-07
1.29857e-07
1.29877e-07
1.29895e-07
1.29917e-07
1.29939e-07
1.29958e-07
1.29983e-07
1.30003e-07
1.30033e-07
1.30055e-07
1.30092e-07
1.30117e-07
1.30168e-07
1.30205e-07
1.31409e-07
1.3541e-07
1.73535e-08
1.2386e-07
1.22961e-07
1.22699e-07
1.22891e-07
1.23307e-07
1.23783e-07
1.24262e-07
1.24702e-07
1.2511e-07
1.25472e-07
1.25805e-07
1.26097e-07
1.26369e-07
1.26605e-07
1.26828e-07
1.27022e-07
1.27207e-07
1.27366e-07
1.27521e-07
1.27654e-07
1.27785e-07
1.27897e-07
1.28009e-07
1.28104e-07
1.282e-07
1.28282e-07
1.28364e-07
1.28434e-07
1.28506e-07
1.28568e-07
1.28631e-07
1.28684e-07
1.28742e-07
1.28788e-07
1.28837e-07
1.28877e-07
1.28922e-07
1.2896e-07
1.29e-07
1.29031e-07
1.29069e-07
1.291e-07
1.2913e-07
1.29157e-07
1.2919e-07
1.29211e-07
1.29238e-07
1.29258e-07
1.29282e-07
1.29303e-07
1.29325e-07
1.29341e-07
1.29363e-07
1.29382e-07
1.29398e-07
1.29412e-07
1.29431e-07
1.2944e-07
1.29448e-07
1.2946e-07
1.29466e-07
1.29479e-07
1.2948e-07
1.29505e-07
1.29521e-07
1.29549e-07
1.29572e-07
1.29603e-07
1.29615e-07
1.29643e-07
1.2966e-07
1.29686e-07
1.2971e-07
1.29737e-07
1.29752e-07
1.29776e-07
1.29792e-07
1.29814e-07
1.29832e-07
1.29851e-07
1.29871e-07
1.29889e-07
1.29911e-07
1.29933e-07
1.29953e-07
1.29977e-07
1.29997e-07
1.30027e-07
1.30049e-07
1.30086e-07
1.30111e-07
1.30162e-07
1.30199e-07
1.31416e-07
1.35411e-07
1.80879e-08
1.23861e-07
1.2296e-07
1.22697e-07
1.22887e-07
1.23301e-07
1.23776e-07
1.24254e-07
1.24693e-07
1.25102e-07
1.25463e-07
1.25796e-07
1.26088e-07
1.2636e-07
1.26596e-07
1.26819e-07
1.27013e-07
1.27198e-07
1.27358e-07
1.27512e-07
1.27645e-07
1.27776e-07
1.27889e-07
1.28e-07
1.28096e-07
1.28192e-07
1.28273e-07
1.28356e-07
1.28426e-07
1.28498e-07
1.2856e-07
1.28623e-07
1.28676e-07
1.28733e-07
1.2878e-07
1.28829e-07
1.28869e-07
1.28914e-07
1.28952e-07
1.28992e-07
1.29024e-07
1.29061e-07
1.29093e-07
1.29123e-07
1.29149e-07
1.29182e-07
1.29204e-07
1.2923e-07
1.2925e-07
1.29274e-07
1.29296e-07
1.29318e-07
1.29334e-07
1.29356e-07
1.29375e-07
1.2939e-07
1.29404e-07
1.29423e-07
1.29432e-07
1.29441e-07
1.29453e-07
1.29459e-07
1.29472e-07
1.29472e-07
1.29498e-07
1.29514e-07
1.29542e-07
1.29564e-07
1.29596e-07
1.29607e-07
1.29636e-07
1.29652e-07
1.29678e-07
1.29702e-07
1.29729e-07
1.29745e-07
1.29769e-07
1.29785e-07
1.29807e-07
1.29824e-07
1.29844e-07
1.29863e-07
1.29882e-07
1.29904e-07
1.29925e-07
1.29945e-07
1.2997e-07
1.2999e-07
1.3002e-07
1.30042e-07
1.30079e-07
1.30104e-07
1.30155e-07
1.30192e-07
1.31425e-07
1.35413e-07
1.88738e-08
1.23861e-07
1.2296e-07
1.22694e-07
1.22881e-07
1.23294e-07
1.23767e-07
1.24244e-07
1.24683e-07
1.25091e-07
1.25452e-07
1.25786e-07
1.26077e-07
1.26349e-07
1.26586e-07
1.26809e-07
1.27002e-07
1.27187e-07
1.27347e-07
1.27502e-07
1.27635e-07
1.27766e-07
1.27878e-07
1.2799e-07
1.28086e-07
1.28182e-07
1.28263e-07
1.28346e-07
1.28416e-07
1.28489e-07
1.2855e-07
1.28613e-07
1.28666e-07
1.28724e-07
1.28771e-07
1.2882e-07
1.2886e-07
1.28905e-07
1.28943e-07
1.28983e-07
1.29015e-07
1.29052e-07
1.29084e-07
1.29114e-07
1.2914e-07
1.29173e-07
1.29195e-07
1.29222e-07
1.29241e-07
1.29266e-07
1.29287e-07
1.29309e-07
1.29325e-07
1.29347e-07
1.29366e-07
1.29382e-07
1.29396e-07
1.29415e-07
1.29424e-07
1.29433e-07
1.29444e-07
1.2945e-07
1.29463e-07
1.29464e-07
1.29489e-07
1.29506e-07
1.29533e-07
1.29556e-07
1.29587e-07
1.29599e-07
1.29627e-07
1.29644e-07
1.2967e-07
1.29694e-07
1.29721e-07
1.29736e-07
1.29761e-07
1.29776e-07
1.29799e-07
1.29816e-07
1.29836e-07
1.29855e-07
1.29874e-07
1.29896e-07
1.29917e-07
1.29937e-07
1.29962e-07
1.29982e-07
1.30011e-07
1.30033e-07
1.30071e-07
1.30095e-07
1.30146e-07
1.30184e-07
1.31436e-07
1.35415e-07
1.97122e-08
1.23862e-07
1.22959e-07
1.2269e-07
1.22875e-07
1.23285e-07
1.23757e-07
1.24233e-07
1.24671e-07
1.25079e-07
1.2544e-07
1.25773e-07
1.26065e-07
1.26337e-07
1.26573e-07
1.26796e-07
1.2699e-07
1.27175e-07
1.27335e-07
1.2749e-07
1.27623e-07
1.27754e-07
1.27867e-07
1.27979e-07
1.28074e-07
1.28171e-07
1.28252e-07
1.28335e-07
1.28405e-07
1.28478e-07
1.28539e-07
1.28602e-07
1.28655e-07
1.28713e-07
1.2876e-07
1.2881e-07
1.28849e-07
1.28895e-07
1.28932e-07
1.28972e-07
1.29004e-07
1.29042e-07
1.29074e-07
1.29103e-07
1.2913e-07
1.29163e-07
1.29185e-07
1.29211e-07
1.29231e-07
1.29256e-07
1.29277e-07
1.29299e-07
1.29316e-07
1.29337e-07
1.29356e-07
1.29372e-07
1.29386e-07
1.29405e-07
1.29414e-07
1.29423e-07
1.29435e-07
1.29441e-07
1.29454e-07
1.29455e-07
1.2948e-07
1.29496e-07
1.29523e-07
1.29546e-07
1.29577e-07
1.29589e-07
1.29617e-07
1.29634e-07
1.2966e-07
1.29684e-07
1.29711e-07
1.29727e-07
1.29751e-07
1.29767e-07
1.29789e-07
1.29806e-07
1.29826e-07
1.29845e-07
1.29864e-07
1.29886e-07
1.29908e-07
1.29928e-07
1.29952e-07
1.29972e-07
1.30002e-07
1.30024e-07
1.30061e-07
1.30086e-07
1.30137e-07
1.30174e-07
1.3145e-07
1.35418e-07
2.06037e-08
1.23862e-07
1.22959e-07
1.22687e-07
1.22868e-07
1.23276e-07
1.23746e-07
1.24221e-07
1.24658e-07
1.25066e-07
1.25426e-07
1.25759e-07
1.26051e-07
1.26322e-07
1.26559e-07
1.26782e-07
1.26976e-07
1.27161e-07
1.27321e-07
1.27476e-07
1.2761e-07
1.27741e-07
1.27854e-07
1.27966e-07
1.28061e-07
1.28158e-07
1.28239e-07
1.28322e-07
1.28393e-07
1.28465e-07
1.28527e-07
1.2859e-07
1.28643e-07
1.28701e-07
1.28748e-07
1.28798e-07
1.28837e-07
1.28883e-07
1.2892e-07
1.28961e-07
1.28993e-07
1.2903e-07
1.29062e-07
1.29092e-07
1.29119e-07
1.29152e-07
1.29173e-07
1.292e-07
1.2922e-07
1.29244e-07
1.29266e-07
1.29288e-07
1.29304e-07
1.29326e-07
1.29345e-07
1.29361e-07
1.29375e-07
1.29394e-07
1.29404e-07
1.29412e-07
1.29424e-07
1.2943e-07
1.29443e-07
1.29444e-07
1.29468e-07
1.29485e-07
1.29512e-07
1.29535e-07
1.29566e-07
1.29578e-07
1.29606e-07
1.29623e-07
1.29649e-07
1.29673e-07
1.297e-07
1.29716e-07
1.2974e-07
1.29756e-07
1.29778e-07
1.29796e-07
1.29815e-07
1.29835e-07
1.29853e-07
1.29876e-07
1.29897e-07
1.29917e-07
1.29941e-07
1.29962e-07
1.29991e-07
1.30013e-07
1.3005e-07
1.30075e-07
1.30126e-07
1.30163e-07
1.31467e-07
1.35422e-07
2.15482e-08
1.23863e-07
1.22958e-07
1.22682e-07
1.2286e-07
1.23265e-07
1.23733e-07
1.24207e-07
1.24643e-07
1.2505e-07
1.2541e-07
1.25743e-07
1.26035e-07
1.26307e-07
1.26543e-07
1.26767e-07
1.2696e-07
1.27146e-07
1.27306e-07
1.27461e-07
1.27595e-07
1.27726e-07
1.27839e-07
1.27951e-07
1.28046e-07
1.28143e-07
1.28225e-07
1.28308e-07
1.28379e-07
1.28451e-07
1.28513e-07
1.28576e-07
1.28629e-07
1.28687e-07
1.28735e-07
1.28784e-07
1.28824e-07
1.28869e-07
1.28907e-07
1.28947e-07
1.28979e-07
1.29017e-07
1.29049e-07
1.29079e-07
1.29106e-07
1.29139e-07
1.2916e-07
1.29187e-07
1.29207e-07
1.29232e-07
1.29254e-07
1.29276e-07
1.29292e-07
1.29314e-07
1.29333e-07
1.29349e-07
1.29363e-07
1.29382e-07
1.29392e-07
1.294e-07
1.29412e-07
1.29418e-07
1.29431e-07
1.29432e-07
1.29456e-07
1.29473e-07
1.295e-07
1.29523e-07
1.29554e-07
1.29565e-07
1.29594e-07
1.2961e-07
1.29636e-07
1.2966e-07
1.29687e-07
1.29703e-07
1.29728e-07
1.29743e-07
1.29766e-07
1.29783e-07
1.29803e-07
1.29822e-07
1.29841e-07
1.29864e-07
1.29885e-07
1.29905e-07
1.29929e-07
1.2995e-07
1.29979e-07
1.30001e-07
1.30038e-07
1.30063e-07
1.30114e-07
1.30151e-07
1.31486e-07
1.35426e-07
2.25443e-08
1.23864e-07
1.22957e-07
1.22678e-07
1.22852e-07
1.23253e-07
1.23719e-07
1.24191e-07
1.24627e-07
1.25033e-07
1.25393e-07
1.25726e-07
1.26017e-07
1.26289e-07
1.26526e-07
1.26749e-07
1.26943e-07
1.27129e-07
1.27289e-07
1.27444e-07
1.27578e-07
1.2771e-07
1.27822e-07
1.27934e-07
1.2803e-07
1.28127e-07
1.28209e-07
1.28292e-07
1.28363e-07
1.28435e-07
1.28497e-07
1.28561e-07
1.28614e-07
1.28672e-07
1.28719e-07
1.28769e-07
1.28809e-07
1.28855e-07
1.28892e-07
1.28933e-07
1.28965e-07
1.29003e-07
1.29034e-07
1.29065e-07
1.29091e-07
1.29124e-07
1.29146e-07
1.29173e-07
1.29193e-07
1.29218e-07
1.2924e-07
1.29262e-07
1.29278e-07
1.293e-07
1.29319e-07
1.29335e-07
1.29349e-07
1.29368e-07
1.29378e-07
1.29387e-07
1.29399e-07
1.29405e-07
1.29418e-07
1.29419e-07
1.29442e-07
1.29459e-07
1.29486e-07
1.2951e-07
1.2954e-07
1.29552e-07
1.2958e-07
1.29596e-07
1.29622e-07
1.29646e-07
1.29674e-07
1.2969e-07
1.29715e-07
1.2973e-07
1.29753e-07
1.2977e-07
1.2979e-07
1.29809e-07
1.29828e-07
1.2985e-07
1.29871e-07
1.29892e-07
1.29916e-07
1.29936e-07
1.29965e-07
1.29988e-07
1.30025e-07
1.30049e-07
1.301e-07
1.30138e-07
1.31508e-07
1.35432e-07
2.35909e-08
1.23865e-07
1.22956e-07
1.22673e-07
1.22842e-07
1.2324e-07
1.23704e-07
1.24174e-07
1.24609e-07
1.25015e-07
1.25374e-07
1.25707e-07
1.25998e-07
1.2627e-07
1.26506e-07
1.2673e-07
1.26924e-07
1.2711e-07
1.2727e-07
1.27425e-07
1.27559e-07
1.27691e-07
1.27804e-07
1.27916e-07
1.28012e-07
1.28109e-07
1.28191e-07
1.28275e-07
1.28346e-07
1.28418e-07
1.2848e-07
1.28544e-07
1.28597e-07
1.28656e-07
1.28703e-07
1.28753e-07
1.28793e-07
1.28838e-07
1.28876e-07
1.28917e-07
1.28949e-07
1.28987e-07
1.29019e-07
1.29049e-07
1.29076e-07
1.29109e-07
1.29131e-07
1.29158e-07
1.29178e-07
1.29203e-07
1.29224e-07
1.29247e-07
1.29263e-07
1.29285e-07
1.29304e-07
1.2932e-07
1.29334e-07
1.29353e-07
1.29363e-07
1.29372e-07
1.29384e-07
1.2939e-07
1.29403e-07
1.29404e-07
1.29428e-07
1.29444e-07
1.29471e-07
1.29495e-07
1.29525e-07
1.29537e-07
1.29565e-07
1.29581e-07
1.29607e-07
1.29631e-07
1.29659e-07
1.29675e-07
1.297e-07
1.29715e-07
1.29738e-07
1.29755e-07
1.29775e-07
1.29794e-07
1.29814e-07
1.29836e-07
1.29857e-07
1.29877e-07
1.29901e-07
1.29922e-07
1.29951e-07
1.29973e-07
1.3001e-07
1.30034e-07
1.30085e-07
1.30123e-07
1.31533e-07
1.35437e-07
2.46906e-08
1.23865e-07
1.22956e-07
1.22667e-07
1.22832e-07
1.23226e-07
1.23687e-07
1.24156e-07
1.24589e-07
1.24994e-07
1.25353e-07
1.25685e-07
1.25977e-07
1.26248e-07
1.26485e-07
1.26709e-07
1.26903e-07
1.27089e-07
1.27249e-07
1.27405e-07
1.27539e-07
1.27671e-07
1.27784e-07
1.27897e-07
1.27993e-07
1.2809e-07
1.28172e-07
1.28256e-07
1.28327e-07
1.284e-07
1.28462e-07
1.28526e-07
1.28579e-07
1.28637e-07
1.28685e-07
1.28735e-07
1.28775e-07
1.28821e-07
1.28858e-07
1.28899e-07
1.28931e-07
1.28969e-07
1.29001e-07
1.29032e-07
1.29059e-07
1.29092e-07
1.29114e-07
1.29141e-07
1.29161e-07
1.29186e-07
1.29208e-07
1.2923e-07
1.29246e-07
1.29268e-07
1.29288e-07
1.29304e-07
1.29318e-07
1.29337e-07
1.29347e-07
1.29356e-07
1.29368e-07
1.29375e-07
1.29388e-07
1.29388e-07
1.29411e-07
1.29428e-07
1.29455e-07
1.29479e-07
1.29509e-07
1.2952e-07
1.29548e-07
1.29565e-07
1.29591e-07
1.29614e-07
1.29642e-07
1.29658e-07
1.29683e-07
1.29699e-07
1.29722e-07
1.29739e-07
1.29759e-07
1.29778e-07
1.29798e-07
1.2982e-07
1.29841e-07
1.29861e-07
1.29885e-07
1.29906e-07
1.29935e-07
1.29957e-07
1.29994e-07
1.30018e-07
1.30069e-07
1.30107e-07
1.31561e-07
1.35444e-07
2.58468e-08
1.23866e-07
1.22955e-07
1.22661e-07
1.2282e-07
1.2321e-07
1.23668e-07
1.24135e-07
1.24567e-07
1.24972e-07
1.2533e-07
1.25662e-07
1.25953e-07
1.26225e-07
1.26462e-07
1.26686e-07
1.2688e-07
1.27066e-07
1.27227e-07
1.27383e-07
1.27517e-07
1.27649e-07
1.27763e-07
1.27875e-07
1.27972e-07
1.28069e-07
1.28151e-07
1.28235e-07
1.28306e-07
1.28379e-07
1.28441e-07
1.28505e-07
1.28559e-07
1.28618e-07
1.28665e-07
1.28715e-07
1.28755e-07
1.28801e-07
1.28839e-07
1.2888e-07
1.28912e-07
1.2895e-07
1.28982e-07
1.29013e-07
1.2904e-07
1.29073e-07
1.29095e-07
1.29123e-07
1.29143e-07
1.29167e-07
1.29189e-07
1.29212e-07
1.29228e-07
1.2925e-07
1.2927e-07
1.29286e-07
1.293e-07
1.29319e-07
1.2933e-07
1.29339e-07
1.29351e-07
1.29357e-07
1.2937e-07
1.29371e-07
1.29393e-07
1.2941e-07
1.29437e-07
1.29461e-07
1.29491e-07
1.29502e-07
1.2953e-07
1.29546e-07
1.29573e-07
1.29596e-07
1.29624e-07
1.2964e-07
1.29666e-07
1.29681e-07
1.29704e-07
1.29721e-07
1.29742e-07
1.29761e-07
1.2978e-07
1.29802e-07
1.29823e-07
1.29844e-07
1.29868e-07
1.29888e-07
1.29917e-07
1.29939e-07
1.29976e-07
1.3e-07
1.30051e-07
1.3009e-07
1.31592e-07
1.35451e-07
2.70628e-08
1.23867e-07
1.22954e-07
1.22655e-07
1.22808e-07
1.23194e-07
1.23648e-07
1.24113e-07
1.24544e-07
1.24948e-07
1.25305e-07
1.25638e-07
1.25928e-07
1.262e-07
1.26437e-07
1.26661e-07
1.26855e-07
1.27042e-07
1.27203e-07
1.27359e-07
1.27493e-07
1.27626e-07
1.27739e-07
1.27852e-07
1.27948e-07
1.28046e-07
1.28129e-07
1.28212e-07
1.28284e-07
1.28357e-07
1.28419e-07
1.28484e-07
1.28537e-07
1.28596e-07
1.28644e-07
1.28694e-07
1.28734e-07
1.2878e-07
1.28818e-07
1.28859e-07
1.28892e-07
1.2893e-07
1.28962e-07
1.28993e-07
1.2902e-07
1.29053e-07
1.29075e-07
1.29103e-07
1.29123e-07
1.29148e-07
1.2917e-07
1.29192e-07
1.29209e-07
1.29231e-07
1.2925e-07
1.29267e-07
1.29281e-07
1.293e-07
1.29311e-07
1.2932e-07
1.29332e-07
1.29338e-07
1.29352e-07
1.29352e-07
1.29374e-07
1.29391e-07
1.29418e-07
1.29442e-07
1.29472e-07
1.29483e-07
1.29511e-07
1.29527e-07
1.29553e-07
1.29576e-07
1.29605e-07
1.29621e-07
1.29647e-07
1.29662e-07
1.29685e-07
1.29702e-07
1.29723e-07
1.29742e-07
1.29761e-07
1.29783e-07
1.29804e-07
1.29825e-07
1.29849e-07
1.2987e-07
1.29898e-07
1.29921e-07
1.29957e-07
1.29981e-07
1.30032e-07
1.30071e-07
1.31627e-07
1.35458e-07
2.83422e-08
1.23869e-07
1.22953e-07
1.22648e-07
1.22795e-07
1.23176e-07
1.23627e-07
1.2409e-07
1.24519e-07
1.24922e-07
1.25279e-07
1.25611e-07
1.25901e-07
1.26173e-07
1.2641e-07
1.26634e-07
1.26829e-07
1.27016e-07
1.27177e-07
1.27333e-07
1.27467e-07
1.276e-07
1.27714e-07
1.27827e-07
1.27924e-07
1.28022e-07
1.28104e-07
1.28188e-07
1.2826e-07
1.28333e-07
1.28396e-07
1.2846e-07
1.28514e-07
1.28573e-07
1.28621e-07
1.28671e-07
1.28712e-07
1.28758e-07
1.28796e-07
1.28837e-07
1.2887e-07
1.28908e-07
1.2894e-07
1.28971e-07
1.28998e-07
1.29031e-07
1.29054e-07
1.29081e-07
1.29102e-07
1.29126e-07
1.29148e-07
1.29171e-07
1.29188e-07
1.2921e-07
1.29229e-07
1.29246e-07
1.2926e-07
1.2928e-07
1.2929e-07
1.29299e-07
1.29312e-07
1.29318e-07
1.29331e-07
1.29332e-07
1.29354e-07
1.2937e-07
1.29397e-07
1.29421e-07
1.29451e-07
1.29462e-07
1.2949e-07
1.29506e-07
1.29532e-07
1.29555e-07
1.29584e-07
1.296e-07
1.29626e-07
1.29641e-07
1.29665e-07
1.29682e-07
1.29703e-07
1.29721e-07
1.29741e-07
1.29763e-07
1.29784e-07
1.29805e-07
1.29829e-07
1.2985e-07
1.29878e-07
1.299e-07
1.29937e-07
1.29961e-07
1.30011e-07
1.30051e-07
1.31665e-07
1.35465e-07
2.96888e-08
1.2387e-07
1.22952e-07
1.22641e-07
1.22781e-07
1.23157e-07
1.23604e-07
1.24064e-07
1.24492e-07
1.24894e-07
1.2525e-07
1.25582e-07
1.25872e-07
1.26144e-07
1.26381e-07
1.26606e-07
1.268e-07
1.26987e-07
1.27148e-07
1.27305e-07
1.2744e-07
1.27573e-07
1.27687e-07
1.278e-07
1.27897e-07
1.27995e-07
1.28078e-07
1.28162e-07
1.28234e-07
1.28308e-07
1.2837e-07
1.28435e-07
1.28489e-07
1.28548e-07
1.28596e-07
1.28647e-07
1.28687e-07
1.28733e-07
1.28772e-07
1.28813e-07
1.28846e-07
1.28884e-07
1.28916e-07
1.28947e-07
1.28974e-07
1.29008e-07
1.29031e-07
1.29058e-07
1.29079e-07
1.29104e-07
1.29126e-07
1.29149e-07
1.29165e-07
1.29187e-07
1.29207e-07
1.29224e-07
1.29238e-07
1.29257e-07
1.29268e-07
1.29277e-07
1.2929e-07
1.29297e-07
1.2931e-07
1.2931e-07
1.29332e-07
1.29348e-07
1.29375e-07
1.29399e-07
1.29428e-07
1.2944e-07
1.29467e-07
1.29483e-07
1.2951e-07
1.29533e-07
1.29561e-07
1.29578e-07
1.29604e-07
1.29619e-07
1.29643e-07
1.2966e-07
1.29681e-07
1.297e-07
1.2972e-07
1.29741e-07
1.29762e-07
1.29783e-07
1.29807e-07
1.29828e-07
1.29856e-07
1.29878e-07
1.29915e-07
1.29939e-07
1.29989e-07
1.3003e-07
1.31707e-07
1.35471e-07
3.11065e-08
1.23871e-07
1.22951e-07
1.22633e-07
1.22767e-07
1.23136e-07
1.2358e-07
1.24037e-07
1.24463e-07
1.24864e-07
1.2522e-07
1.25551e-07
1.25841e-07
1.26113e-07
1.2635e-07
1.26575e-07
1.2677e-07
1.26957e-07
1.27118e-07
1.27275e-07
1.2741e-07
1.27544e-07
1.27658e-07
1.27771e-07
1.27868e-07
1.27967e-07
1.2805e-07
1.28134e-07
1.28206e-07
1.2828e-07
1.28343e-07
1.28408e-07
1.28462e-07
1.28521e-07
1.28569e-07
1.2862e-07
1.28661e-07
1.28707e-07
1.28746e-07
1.28787e-07
1.2882e-07
1.28858e-07
1.28891e-07
1.28922e-07
1.28949e-07
1.28983e-07
1.29006e-07
1.29033e-07
1.29054e-07
1.29079e-07
1.29101e-07
1.29124e-07
1.29141e-07
1.29163e-07
1.29183e-07
1.292e-07
1.29214e-07
1.29234e-07
1.29245e-07
1.29254e-07
1.29267e-07
1.29273e-07
1.29287e-07
1.29287e-07
1.29308e-07
1.29325e-07
1.29352e-07
1.29376e-07
1.29405e-07
1.29416e-07
1.29443e-07
1.29459e-07
1.29485e-07
1.29508e-07
1.29537e-07
1.29554e-07
1.2958e-07
1.29595e-07
1.29619e-07
1.29636e-07
1.29658e-07
1.29676e-07
1.29696e-07
1.29718e-07
1.29739e-07
1.2976e-07
1.29784e-07
1.29805e-07
1.29833e-07
1.29855e-07
1.29892e-07
1.29915e-07
1.29966e-07
1.30007e-07
1.31752e-07
1.35477e-07
3.25992e-08
1.23872e-07
1.2295e-07
1.22625e-07
1.22751e-07
1.23115e-07
1.23554e-07
1.24009e-07
1.24433e-07
1.24832e-07
1.25187e-07
1.25518e-07
1.25808e-07
1.2608e-07
1.26317e-07
1.26542e-07
1.26737e-07
1.26924e-07
1.27086e-07
1.27243e-07
1.27378e-07
1.27512e-07
1.27626e-07
1.27741e-07
1.27838e-07
1.27937e-07
1.2802e-07
1.28105e-07
1.28177e-07
1.28251e-07
1.28314e-07
1.28379e-07
1.28433e-07
1.28493e-07
1.28541e-07
1.28592e-07
1.28633e-07
1.2868e-07
1.28718e-07
1.2876e-07
1.28793e-07
1.28831e-07
1.28864e-07
1.28895e-07
1.28923e-07
1.28956e-07
1.28979e-07
1.29007e-07
1.29028e-07
1.29053e-07
1.29075e-07
1.29098e-07
1.29115e-07
1.29137e-07
1.29157e-07
1.29174e-07
1.29189e-07
1.29208e-07
1.2922e-07
1.29229e-07
1.29242e-07
1.29249e-07
1.29262e-07
1.29263e-07
1.29283e-07
1.29299e-07
1.29326e-07
1.29351e-07
1.29379e-07
1.2939e-07
1.29418e-07
1.29434e-07
1.2946e-07
1.29482e-07
1.29511e-07
1.29529e-07
1.29555e-07
1.2957e-07
1.29594e-07
1.29611e-07
1.29633e-07
1.29651e-07
1.29672e-07
1.29693e-07
1.29714e-07
1.29735e-07
1.29759e-07
1.2978e-07
1.29808e-07
1.2983e-07
1.29867e-07
1.2989e-07
1.2994e-07
1.29983e-07
1.318e-07
1.35482e-07
3.41712e-08
1.23874e-07
1.22949e-07
1.22617e-07
1.22735e-07
1.23092e-07
1.23527e-07
1.23978e-07
1.244e-07
1.24798e-07
1.25153e-07
1.25483e-07
1.25773e-07
1.26045e-07
1.26282e-07
1.26507e-07
1.26702e-07
1.2689e-07
1.27052e-07
1.27209e-07
1.27345e-07
1.27479e-07
1.27593e-07
1.27708e-07
1.27805e-07
1.27904e-07
1.27988e-07
1.28073e-07
1.28145e-07
1.2822e-07
1.28283e-07
1.28349e-07
1.28403e-07
1.28463e-07
1.28511e-07
1.28562e-07
1.28603e-07
1.2865e-07
1.28689e-07
1.28731e-07
1.28764e-07
1.28802e-07
1.28835e-07
1.28867e-07
1.28894e-07
1.28928e-07
1.28951e-07
1.28979e-07
1.29e-07
1.29025e-07
1.29047e-07
1.29071e-07
1.29088e-07
1.2911e-07
1.2913e-07
1.29147e-07
1.29162e-07
1.29181e-07
1.29193e-07
1.29202e-07
1.29215e-07
1.29222e-07
1.29236e-07
1.29236e-07
1.29256e-07
1.29272e-07
1.29299e-07
1.29324e-07
1.29352e-07
1.29363e-07
1.2939e-07
1.29406e-07
1.29432e-07
1.29455e-07
1.29484e-07
1.29502e-07
1.29528e-07
1.29543e-07
1.29568e-07
1.29584e-07
1.29606e-07
1.29624e-07
1.29645e-07
1.29666e-07
1.29688e-07
1.29709e-07
1.29733e-07
1.29754e-07
1.29782e-07
1.29804e-07
1.2984e-07
1.29863e-07
1.29913e-07
1.29957e-07
1.31852e-07
1.35485e-07
3.58262e-08
1.23875e-07
1.22947e-07
1.22608e-07
1.22718e-07
1.23068e-07
1.23498e-07
1.23946e-07
1.24366e-07
1.24763e-07
1.25116e-07
1.25446e-07
1.25736e-07
1.26008e-07
1.26245e-07
1.2647e-07
1.26665e-07
1.26853e-07
1.27015e-07
1.27173e-07
1.27309e-07
1.27443e-07
1.27558e-07
1.27673e-07
1.27771e-07
1.2787e-07
1.27954e-07
1.28039e-07
1.28112e-07
1.28187e-07
1.2825e-07
1.28316e-07
1.2837e-07
1.2843e-07
1.28479e-07
1.28531e-07
1.28572e-07
1.28619e-07
1.28658e-07
1.287e-07
1.28733e-07
1.28772e-07
1.28805e-07
1.28837e-07
1.28864e-07
1.28898e-07
1.28921e-07
1.28949e-07
1.2897e-07
1.28996e-07
1.29018e-07
1.29041e-07
1.29059e-07
1.29081e-07
1.29101e-07
1.29118e-07
1.29133e-07
1.29153e-07
1.29165e-07
1.29174e-07
1.29187e-07
1.29194e-07
1.29208e-07
1.29209e-07
1.29228e-07
1.29244e-07
1.29271e-07
1.29296e-07
1.29323e-07
1.29334e-07
1.29362e-07
1.29377e-07
1.29403e-07
1.29426e-07
1.29454e-07
1.29473e-07
1.29499e-07
1.29514e-07
1.29539e-07
1.29556e-07
1.29578e-07
1.29596e-07
1.29617e-07
1.29638e-07
1.2966e-07
1.29681e-07
1.29705e-07
1.29726e-07
1.29754e-07
1.29776e-07
1.29812e-07
1.29835e-07
1.29885e-07
1.29929e-07
1.31907e-07
1.35486e-07
3.75682e-08
1.23877e-07
1.22946e-07
1.22599e-07
1.227e-07
1.23043e-07
1.23467e-07
1.23912e-07
1.2433e-07
1.24725e-07
1.25077e-07
1.25407e-07
1.25696e-07
1.25968e-07
1.26205e-07
1.26431e-07
1.26626e-07
1.26815e-07
1.26977e-07
1.27135e-07
1.27271e-07
1.27406e-07
1.27521e-07
1.27636e-07
1.27734e-07
1.27834e-07
1.27918e-07
1.28004e-07
1.28077e-07
1.28152e-07
1.28215e-07
1.28281e-07
1.28336e-07
1.28396e-07
1.28445e-07
1.28497e-07
1.28538e-07
1.28586e-07
1.28625e-07
1.28667e-07
1.287e-07
1.28739e-07
1.28772e-07
1.28804e-07
1.28832e-07
1.28866e-07
1.28889e-07
1.28918e-07
1.28939e-07
1.28964e-07
1.28987e-07
1.2901e-07
1.29028e-07
1.2905e-07
1.2907e-07
1.29088e-07
1.29103e-07
1.29122e-07
1.29134e-07
1.29144e-07
1.29157e-07
1.29165e-07
1.29178e-07
1.29179e-07
1.29198e-07
1.29214e-07
1.29241e-07
1.29266e-07
1.29292e-07
1.29304e-07
1.29331e-07
1.29347e-07
1.29373e-07
1.29395e-07
1.29424e-07
1.29442e-07
1.29469e-07
1.29484e-07
1.29509e-07
1.29525e-07
1.29548e-07
1.29566e-07
1.29588e-07
1.29608e-07
1.2963e-07
1.29651e-07
1.29675e-07
1.29696e-07
1.29724e-07
1.29746e-07
1.29782e-07
1.29805e-07
1.29855e-07
1.299e-07
1.31965e-07
1.35482e-07
3.94005e-08
1.23878e-07
1.22945e-07
1.2259e-07
1.22681e-07
1.23016e-07
1.23435e-07
1.23876e-07
1.24291e-07
1.24685e-07
1.25037e-07
1.25365e-07
1.25655e-07
1.25926e-07
1.26164e-07
1.26389e-07
1.26585e-07
1.26774e-07
1.26936e-07
1.27095e-07
1.27231e-07
1.27366e-07
1.27482e-07
1.27597e-07
1.27696e-07
1.27796e-07
1.2788e-07
1.27966e-07
1.28039e-07
1.28115e-07
1.28178e-07
1.28245e-07
1.283e-07
1.2836e-07
1.28409e-07
1.28461e-07
1.28503e-07
1.2855e-07
1.2859e-07
1.28632e-07
1.28666e-07
1.28705e-07
1.28738e-07
1.2877e-07
1.28798e-07
1.28832e-07
1.28856e-07
1.28884e-07
1.28906e-07
1.28931e-07
1.28954e-07
1.28978e-07
1.28995e-07
1.29017e-07
1.29038e-07
1.29056e-07
1.2907e-07
1.2909e-07
1.29103e-07
1.29112e-07
1.29126e-07
1.29133e-07
1.29147e-07
1.29148e-07
1.29167e-07
1.29182e-07
1.29209e-07
1.29234e-07
1.2926e-07
1.29272e-07
1.29299e-07
1.29314e-07
1.2934e-07
1.29362e-07
1.29391e-07
1.2941e-07
1.29436e-07
1.29452e-07
1.29477e-07
1.29493e-07
1.29517e-07
1.29534e-07
1.29556e-07
1.29577e-07
1.29598e-07
1.2962e-07
1.29643e-07
1.29665e-07
1.29692e-07
1.29715e-07
1.29751e-07
1.29773e-07
1.29823e-07
1.2987e-07
1.32025e-07
1.32091e-07
4.1326e-08
1.2388e-07
1.22944e-07
1.2258e-07
1.22661e-07
1.22989e-07
1.23402e-07
1.23839e-07
1.24251e-07
1.24643e-07
1.24994e-07
1.25322e-07
1.25611e-07
1.25882e-07
1.2612e-07
1.26345e-07
1.26541e-07
1.2673e-07
1.26893e-07
1.27052e-07
1.27189e-07
1.27324e-07
1.2744e-07
1.27556e-07
1.27655e-07
1.27755e-07
1.2784e-07
1.27926e-07
1.28e-07
1.28075e-07
1.2814e-07
1.28206e-07
1.28261e-07
1.28322e-07
1.28371e-07
1.28424e-07
1.28466e-07
1.28513e-07
1.28553e-07
1.28595e-07
1.28629e-07
1.28668e-07
1.28702e-07
1.28735e-07
1.28762e-07
1.28797e-07
1.2882e-07
1.28849e-07
1.28871e-07
1.28896e-07
1.28919e-07
1.28943e-07
1.28961e-07
1.28983e-07
1.29003e-07
1.29021e-07
1.29036e-07
1.29056e-07
1.29069e-07
1.29079e-07
1.29093e-07
1.291e-07
1.29114e-07
1.29115e-07
1.29133e-07
1.29148e-07
1.29175e-07
1.292e-07
1.29226e-07
1.29238e-07
1.29264e-07
1.2928e-07
1.29306e-07
1.29327e-07
1.29356e-07
1.29376e-07
1.29402e-07
1.29418e-07
1.29443e-07
1.2946e-07
1.29483e-07
1.29501e-07
1.29523e-07
1.29543e-07
1.29565e-07
1.29587e-07
1.2961e-07
1.29632e-07
1.29659e-07
1.29681e-07
1.29717e-07
1.2974e-07
1.29789e-07
1.29837e-07
1.32085e-07
1.27151e-07
4.33466e-08
1.23882e-07
1.22943e-07
1.2257e-07
1.22641e-07
1.2296e-07
1.23367e-07
1.238e-07
1.24209e-07
1.24599e-07
1.24948e-07
1.25276e-07
1.25564e-07
1.25836e-07
1.26073e-07
1.26299e-07
1.26495e-07
1.26685e-07
1.26848e-07
1.27007e-07
1.27144e-07
1.2728e-07
1.27396e-07
1.27513e-07
1.27612e-07
1.27712e-07
1.27797e-07
1.27884e-07
1.27958e-07
1.28034e-07
1.28098e-07
1.28165e-07
1.28221e-07
1.28282e-07
1.28331e-07
1.28384e-07
1.28426e-07
1.28474e-07
1.28514e-07
1.28557e-07
1.28591e-07
1.2863e-07
1.28664e-07
1.28697e-07
1.28724e-07
1.28759e-07
1.28783e-07
1.28812e-07
1.28834e-07
1.28859e-07
1.28882e-07
1.28906e-07
1.28924e-07
1.28947e-07
1.28967e-07
1.28986e-07
1.29001e-07