/*--------------------------------*- C++ -*----------------------------------*\
| =========                 |                                                 |
| \\      /  F ield         | OpenFOAM: The Open Source CFD Toolbox           |
|  \\    /   O peration     | Version:  v2012                                 |
|   \\  /    A nd           | Website:  www.openfoam.com                      |
|    \\/     M anipulation  |                                                 |
\*---------------------------------------------------------------------------*/
FoamFile
{
    version     2.0;
    format      ascii;
    class       volVectorField;
    location    "29.5";
    object      wallShearStress;
}
// * * * * * * * * * * * * * * * * * * * * * * * * * * * * * * * * * * * * * //

dimensions      [0 2 -2 0 0 0 0];


internalField   uniform (0 0 0);

boundaryField
{
    inlet
    {
        type            calculated;
        value           uniform (0 0 0);
    }
    outlet
    {
        type            calculated;
        value           uniform (0 0 0);
    }
    topWall
    {
        type            calculated;
        value           nonuniform List<vector> 
545
(
(3.65169e-08 -2.57039e-08 0)
(3.65062e-08 -7.19085e-08 0)
(3.64834e-08 -1.19951e-07 0)
(3.64532e-08 -1.66602e-07 0)
(3.64159e-08 -2.11265e-07 0)
(3.63718e-08 -2.54514e-07 0)
(3.63216e-08 -2.96716e-07 0)
(3.62655e-08 -3.37853e-07 0)
(3.62042e-08 -3.77833e-07 0)
(3.6138e-08 -4.16657e-07 0)
(3.60674e-08 -4.54374e-07 0)
(3.59929e-08 -4.91029e-07 0)
(3.59148e-08 -5.26647e-07 0)
(3.58335e-08 -5.61248e-07 0)
(3.57494e-08 -5.94857e-07 0)
(3.56627e-08 -6.27501e-07 0)
(3.55739e-08 -6.59207e-07 0)
(3.54831e-08 -6.89998e-07 0)
(3.53907e-08 -7.199e-07 0)
(3.52968e-08 -7.48937e-07 0)
(3.52018e-08 -7.77132e-07 0)
(3.51059e-08 -8.0451e-07 0)
(3.50091e-08 -8.31092e-07 0)
(3.49119e-08 -8.56902e-07 0)
(3.48142e-08 -8.81961e-07 0)
(3.47163e-08 -9.06291e-07 0)
(3.46184e-08 -9.29912e-07 0)
(3.45205e-08 -9.52846e-07 0)
(3.44228e-08 -9.75112e-07 0)
(3.43254e-08 -9.96729e-07 0)
(3.42285e-08 -1.01772e-06 0)
(3.41321e-08 -1.03809e-06 0)
(3.40363e-08 -1.05788e-06 0)
(3.39413e-08 -1.07708e-06 0)
(3.3847e-08 -1.09573e-06 0)
(3.37536e-08 -1.11384e-06 0)
(3.36611e-08 -1.13142e-06 0)
(3.35696e-08 -1.14849e-06 0)
(3.34792e-08 -1.16507e-06 0)
(3.33898e-08 -1.18116e-06 0)
(3.33015e-08 -1.19679e-06 0)
(3.32144e-08 -1.21197e-06 0)
(3.31285e-08 -1.22671e-06 0)
(3.30438e-08 -1.24102e-06 0)
(3.29603e-08 -1.25492e-06 0)
(3.28781e-08 -1.26842e-06 0)
(3.27972e-08 -1.28153e-06 0)
(3.27176e-08 -1.29427e-06 0)
(3.26393e-08 -1.30664e-06 0)
(3.25623e-08 -1.31865e-06 0)
(3.24866e-08 -1.33032e-06 0)
(3.24122e-08 -1.34166e-06 0)
(3.23392e-08 -1.35267e-06 0)
(3.22675e-08 -1.36336e-06 0)
(3.21971e-08 -1.37376e-06 0)
(3.2128e-08 -1.38385e-06 0)
(3.20602e-08 -1.39366e-06 0)
(3.19937e-08 -1.40319e-06 0)
(3.19285e-08 -1.41245e-06 0)
(3.18646e-08 -1.42145e-06 0)
(3.1802e-08 -1.43019e-06 0)
(3.17406e-08 -1.43869e-06 0)
(3.16804e-08 -1.44695e-06 0)
(3.16215e-08 -1.45497e-06 0)
(3.15638e-08 -1.46277e-06 0)
(3.15073e-08 -1.47035e-06 0)
(3.1452e-08 -1.47771e-06 0)
(3.13979e-08 -1.48487e-06 0)
(3.13449e-08 -1.49183e-06 0)
(3.1293e-08 -1.49859e-06 0)
(3.12423e-08 -1.50517e-06 0)
(3.11926e-08 -1.51155e-06 0)
(3.11445e-08 -1.51769e-06 0)
(3.10977e-08 -1.52365e-06 0)
(3.10512e-08 -1.52954e-06 0)
(3.10049e-08 -1.53541e-06 0)
(3.09586e-08 -1.54125e-06 0)
(3.09123e-08 -1.54705e-06 0)
(3.08661e-08 -1.55282e-06 0)
(3.082e-08 -1.55855e-06 0)
(3.07739e-08 -1.56425e-06 0)
(3.07278e-08 -1.56991e-06 0)
(3.06818e-08 -1.57554e-06 0)
(3.06358e-08 -1.58113e-06 0)
(3.05898e-08 -1.58669e-06 0)
(3.05439e-08 -1.59222e-06 0)
(3.04981e-08 -1.59771e-06 0)
(3.04523e-08 -1.60317e-06 0)
(3.04066e-08 -1.60859e-06 0)
(3.03609e-08 -1.61399e-06 0)
(3.03153e-08 -1.61935e-06 0)
(3.02698e-08 -1.62468e-06 0)
(3.02243e-08 -1.62997e-06 0)
(3.01788e-08 -1.63523e-06 0)
(3.01336e-08 -1.64048e-06 0)
(3.00877e-08 -1.64562e-06 0)
(3.00445e-08 -1.65034e-06 0)
(3.00059e-08 -1.65463e-06 0)
(2.99685e-08 -1.65879e-06 0)
(2.99312e-08 -1.66297e-06 0)
(2.98939e-08 -1.66719e-06 0)
(2.98564e-08 -1.67142e-06 0)
(2.98187e-08 -1.67565e-06 0)
(2.97808e-08 -1.67987e-06 0)
(2.97428e-08 -1.68411e-06 0)
(2.97046e-08 -1.68835e-06 0)
(2.96662e-08 -1.69259e-06 0)
(2.96276e-08 -1.69684e-06 0)
(2.95888e-08 -1.70109e-06 0)
(2.95498e-08 -1.70535e-06 0)
(2.95107e-08 -1.70961e-06 0)
(2.94714e-08 -1.71388e-06 0)
(2.94319e-08 -1.71815e-06 0)
(2.93922e-08 -1.72242e-06 0)
(2.93523e-08 -1.7267e-06 0)
(2.93122e-08 -1.73099e-06 0)
(2.92719e-08 -1.73527e-06 0)
(2.92315e-08 -1.73957e-06 0)
(2.91908e-08 -1.74386e-06 0)
(2.915e-08 -1.74816e-06 0)
(2.9109e-08 -1.75247e-06 0)
(2.90678e-08 -1.75677e-06 0)
(2.90264e-08 -1.76109e-06 0)
(2.89848e-08 -1.7654e-06 0)
(2.8943e-08 -1.76972e-06 0)
(2.8901e-08 -1.77405e-06 0)
(2.88588e-08 -1.77837e-06 0)
(2.88164e-08 -1.78271e-06 0)
(2.87739e-08 -1.78704e-06 0)
(2.87311e-08 -1.79138e-06 0)
(2.86881e-08 -1.79572e-06 0)
(2.8645e-08 -1.80007e-06 0)
(2.86016e-08 -1.80442e-06 0)
(2.85581e-08 -1.80878e-06 0)
(2.85143e-08 -1.81313e-06 0)
(2.84704e-08 -1.8175e-06 0)
(2.84262e-08 -1.82186e-06 0)
(2.83819e-08 -1.82623e-06 0)
(2.83373e-08 -1.8306e-06 0)
(2.82926e-08 -1.83498e-06 0)
(2.82476e-08 -1.83935e-06 0)
(2.82025e-08 -1.84374e-06 0)
(2.81571e-08 -1.84812e-06 0)
(2.81115e-08 -1.85251e-06 0)
(2.80658e-08 -1.8569e-06 0)
(2.80198e-08 -1.8613e-06 0)
(2.79737e-08 -1.8657e-06 0)
(2.79273e-08 -1.8701e-06 0)
(2.78807e-08 -1.8745e-06 0)
(2.78339e-08 -1.87891e-06 0)
(2.77869e-08 -1.88332e-06 0)
(2.77397e-08 -1.88773e-06 0)
(2.76923e-08 -1.89215e-06 0)
(2.76447e-08 -1.89657e-06 0)
(2.75969e-08 -1.90099e-06 0)
(2.75489e-08 -1.90541e-06 0)
(2.75006e-08 -1.90984e-06 0)
(2.74522e-08 -1.91427e-06 0)
(2.74035e-08 -1.9187e-06 0)
(2.73547e-08 -1.92314e-06 0)
(2.73056e-08 -1.92757e-06 0)
(2.72563e-08 -1.93201e-06 0)
(2.72068e-08 -1.93645e-06 0)
(2.71571e-08 -1.9409e-06 0)
(2.71072e-08 -1.94535e-06 0)
(2.70571e-08 -1.94979e-06 0)
(2.70067e-08 -1.95425e-06 0)
(2.69562e-08 -1.9587e-06 0)
(2.69054e-08 -1.96316e-06 0)
(2.68544e-08 -1.96761e-06 0)
(2.68032e-08 -1.97207e-06 0)
(2.67518e-08 -1.97653e-06 0)
(2.67002e-08 -1.981e-06 0)
(2.66483e-08 -1.98546e-06 0)
(2.65963e-08 -1.98993e-06 0)
(2.6544e-08 -1.9944e-06 0)
(2.64915e-08 -1.99887e-06 0)
(2.64388e-08 -2.00334e-06 0)
(2.63859e-08 -2.00782e-06 0)
(2.63327e-08 -2.01229e-06 0)
(2.62794e-08 -2.01677e-06 0)
(2.62258e-08 -2.02125e-06 0)
(2.6172e-08 -2.02573e-06 0)
(2.6118e-08 -2.03021e-06 0)
(2.60638e-08 -2.03469e-06 0)
(2.60093e-08 -2.03918e-06 0)
(2.59547e-08 -2.04366e-06 0)
(2.58998e-08 -2.04815e-06 0)
(2.58447e-08 -2.05263e-06 0)
(2.57894e-08 -2.05712e-06 0)
(2.57338e-08 -2.06161e-06 0)
(2.56781e-08 -2.0661e-06 0)
(2.56221e-08 -2.07059e-06 0)
(2.55659e-08 -2.07508e-06 0)
(2.55095e-08 -2.07957e-06 0)
(2.54529e-08 -2.08407e-06 0)
(2.5396e-08 -2.08856e-06 0)
(2.53389e-08 -2.09305e-06 0)
(2.52816e-08 -2.09755e-06 0)
(2.52241e-08 -2.10204e-06 0)
(2.51664e-08 -2.10654e-06 0)
(2.51084e-08 -2.11103e-06 0)
(2.50502e-08 -2.11553e-06 0)
(2.49918e-08 -2.12002e-06 0)
(2.49332e-08 -2.12452e-06 0)
(2.48744e-08 -2.12901e-06 0)
(2.48153e-08 -2.13351e-06 0)
(2.4756e-08 -2.138e-06 0)
(2.46965e-08 -2.1425e-06 0)
(2.46368e-08 -2.14699e-06 0)
(2.45768e-08 -2.15149e-06 0)
(2.45167e-08 -2.15598e-06 0)
(2.44563e-08 -2.16047e-06 0)
(2.43957e-08 -2.16497e-06 0)
(2.43348e-08 -2.16946e-06 0)
(2.42738e-08 -2.17395e-06 0)
(2.42125e-08 -2.17844e-06 0)
(2.4151e-08 -2.18293e-06 0)
(2.40893e-08 -2.18742e-06 0)
(2.40273e-08 -2.19191e-06 0)
(2.39652e-08 -2.1964e-06 0)
(2.39028e-08 -2.20088e-06 0)
(2.38402e-08 -2.20537e-06 0)
(2.37774e-08 -2.20985e-06 0)
(2.37144e-08 -2.21434e-06 0)
(2.36511e-08 -2.21882e-06 0)
(2.35876e-08 -2.2233e-06 0)
(2.35239e-08 -2.22777e-06 0)
(2.346e-08 -2.23225e-06 0)
(2.33959e-08 -2.23673e-06 0)
(2.33316e-08 -2.2412e-06 0)
(2.3267e-08 -2.24567e-06 0)
(2.32022e-08 -2.25014e-06 0)
(2.31372e-08 -2.25461e-06 0)
(2.3072e-08 -2.25907e-06 0)
(2.30065e-08 -2.26354e-06 0)
(2.29409e-08 -2.268e-06 0)
(2.2875e-08 -2.27246e-06 0)
(2.28089e-08 -2.27691e-06 0)
(2.27426e-08 -2.28137e-06 0)
(2.26761e-08 -2.28582e-06 0)
(2.26094e-08 -2.29027e-06 0)
(2.25424e-08 -2.29471e-06 0)
(2.24753e-08 -2.29916e-06 0)
(2.24079e-08 -2.3036e-06 0)
(2.23403e-08 -2.30803e-06 0)
(2.22725e-08 -2.31247e-06 0)
(2.22045e-08 -2.3169e-06 0)
(2.21363e-08 -2.32133e-06 0)
(2.20679e-08 -2.32575e-06 0)
(2.19992e-08 -2.33018e-06 0)
(2.19304e-08 -2.33459e-06 0)
(2.18613e-08 -2.33901e-06 0)
(2.1792e-08 -2.34342e-06 0)
(2.17226e-08 -2.34783e-06 0)
(2.16529e-08 -2.35223e-06 0)
(2.1583e-08 -2.35663e-06 0)
(2.15129e-08 -2.36103e-06 0)
(2.14426e-08 -2.36542e-06 0)
(2.13721e-08 -2.36981e-06 0)
(2.13013e-08 -2.37419e-06 0)
(2.12304e-08 -2.37857e-06 0)
(2.11593e-08 -2.38295e-06 0)
(2.1088e-08 -2.38732e-06 0)
(2.10165e-08 -2.39168e-06 0)
(2.09447e-08 -2.39605e-06 0)
(2.08728e-08 -2.4004e-06 0)
(2.08008e-08 -2.40477e-06 0)
(2.07279e-08 -2.40908e-06 0)
(2.06575e-08 -2.41319e-06 0)
(2.05912e-08 -2.41711e-06 0)
(2.05255e-08 -2.42099e-06 0)
(2.04594e-08 -2.4249e-06 0)
(2.03927e-08 -2.42886e-06 0)
(2.03252e-08 -2.43285e-06 0)
(2.0257e-08 -2.43688e-06 0)
(2.0188e-08 -2.44092e-06 0)
(2.01182e-08 -2.445e-06 0)
(2.00477e-08 -2.44911e-06 0)
(1.99763e-08 -2.45325e-06 0)
(1.99042e-08 -2.45742e-06 0)
(1.98313e-08 -2.46162e-06 0)
(1.97576e-08 -2.46585e-06 0)
(1.9683e-08 -2.47011e-06 0)
(1.96077e-08 -2.4744e-06 0)
(1.95315e-08 -2.47872e-06 0)
(1.94544e-08 -2.48307e-06 0)
(1.93765e-08 -2.48745e-06 0)
(1.92978e-08 -2.49186e-06 0)
(1.92182e-08 -2.49629e-06 0)
(1.91377e-08 -2.50076e-06 0)
(1.90564e-08 -2.50526e-06 0)
(1.89742e-08 -2.50979e-06 0)
(1.88911e-08 -2.51434e-06 0)
(1.88071e-08 -2.51893e-06 0)
(1.87222e-08 -2.52354e-06 0)
(1.86363e-08 -2.52818e-06 0)
(1.85496e-08 -2.53286e-06 0)
(1.84619e-08 -2.53756e-06 0)
(1.83733e-08 -2.54228e-06 0)
(1.82838e-08 -2.54704e-06 0)
(1.81933e-08 -2.55183e-06 0)
(1.81019e-08 -2.55664e-06 0)
(1.80095e-08 -2.56148e-06 0)
(1.79161e-08 -2.56635e-06 0)
(1.78218e-08 -2.57124e-06 0)
(1.77265e-08 -2.57617e-06 0)
(1.76302e-08 -2.58111e-06 0)
(1.75329e-08 -2.58609e-06 0)
(1.74346e-08 -2.59109e-06 0)
(1.73353e-08 -2.59612e-06 0)
(1.7235e-08 -2.60117e-06 0)
(1.71336e-08 -2.60625e-06 0)
(1.70313e-08 -2.61135e-06 0)
(1.69279e-08 -2.61648e-06 0)
(1.68235e-08 -2.62163e-06 0)
(1.67181e-08 -2.6268e-06 0)
(1.66116e-08 -2.632e-06 0)
(1.65041e-08 -2.63722e-06 0)
(1.63955e-08 -2.64246e-06 0)
(1.62858e-08 -2.64772e-06 0)
(1.61751e-08 -2.65301e-06 0)
(1.60634e-08 -2.65832e-06 0)
(1.59505e-08 -2.66364e-06 0)
(1.58366e-08 -2.66899e-06 0)
(1.57216e-08 -2.67435e-06 0)
(1.56056e-08 -2.67974e-06 0)
(1.54885e-08 -2.68514e-06 0)
(1.53702e-08 -2.69056e-06 0)
(1.52509e-08 -2.69599e-06 0)
(1.51305e-08 -2.70144e-06 0)
(1.50091e-08 -2.70691e-06 0)
(1.48865e-08 -2.71239e-06 0)
(1.47628e-08 -2.71789e-06 0)
(1.46381e-08 -2.7234e-06 0)
(1.45123e-08 -2.72892e-06 0)
(1.43854e-08 -2.73445e-06 0)
(1.42574e-08 -2.73999e-06 0)
(1.41283e-08 -2.74555e-06 0)
(1.39981e-08 -2.75111e-06 0)
(1.38668e-08 -2.75668e-06 0)
(1.37345e-08 -2.76226e-06 0)
(1.36011e-08 -2.76784e-06 0)
(1.34666e-08 -2.77343e-06 0)
(1.3331e-08 -2.77902e-06 0)
(1.31944e-08 -2.78462e-06 0)
(1.30568e-08 -2.79022e-06 0)
(1.2918e-08 -2.79582e-06 0)
(1.27783e-08 -2.80142e-06 0)
(1.26375e-08 -2.80702e-06 0)
(1.24956e-08 -2.81261e-06 0)
(1.23528e-08 -2.81821e-06 0)
(1.22089e-08 -2.8238e-06 0)
(1.2064e-08 -2.82938e-06 0)
(1.19182e-08 -2.83495e-06 0)
(1.17713e-08 -2.84052e-06 0)
(1.16235e-08 -2.84608e-06 0)
(1.14747e-08 -2.85163e-06 0)
(1.1325e-08 -2.85716e-06 0)
(1.11743e-08 -2.86268e-06 0)
(1.10228e-08 -2.86819e-06 0)
(1.08703e-08 -2.87368e-06 0)
(1.07169e-08 -2.87915e-06 0)
(1.05627e-08 -2.8846e-06 0)
(1.04076e-08 -2.89003e-06 0)
(1.02517e-08 -2.89544e-06 0)
(1.0095e-08 -2.90083e-06 0)
(9.93746e-09 -2.90619e-06 0)
(9.77917e-09 -2.91152e-06 0)
(9.62014e-09 -2.91682e-06 0)
(9.46038e-09 -2.92209e-06 0)
(9.29991e-09 -2.92733e-06 0)
(9.13877e-09 -2.93254e-06 0)
(8.97698e-09 -2.93771e-06 0)
(8.81456e-09 -2.94284e-06 0)
(8.65154e-09 -2.94793e-06 0)
(8.48795e-09 -2.95298e-06 0)
(8.32383e-09 -2.95799e-06 0)
(8.15919e-09 -2.96296e-06 0)
(7.99408e-09 -2.96787e-06 0)
(7.82852e-09 -2.97274e-06 0)
(7.66254e-09 -2.97756e-06 0)
(7.49619e-09 -2.98233e-06 0)
(7.32949e-09 -2.98704e-06 0)
(7.16249e-09 -2.99169e-06 0)
(6.99521e-09 -2.99629e-06 0)
(6.8277e-09 -3.00083e-06 0)
(6.66e-09 -3.0053e-06 0)
(6.49214e-09 -3.00971e-06 0)
(6.32416e-09 -3.01406e-06 0)
(6.15612e-09 -3.01833e-06 0)
(5.98804e-09 -3.02254e-06 0)
(5.81998e-09 -3.02667e-06 0)
(5.65197e-09 -3.03073e-06 0)
(5.48406e-09 -3.03471e-06 0)
(5.3163e-09 -3.03862e-06 0)
(5.14874e-09 -3.04244e-06 0)
(4.98142e-09 -3.04618e-06 0)
(4.81438e-09 -3.04984e-06 0)
(4.64769e-09 -3.05341e-06 0)
(4.48138e-09 -3.05689e-06 0)
(4.31551e-09 -3.06028e-06 0)
(4.15013e-09 -3.06358e-06 0)
(3.98529e-09 -3.06679e-06 0)
(3.82105e-09 -3.06989e-06 0)
(3.65745e-09 -3.0729e-06 0)
(3.49455e-09 -3.07581e-06 0)
(3.3324e-09 -3.07861e-06 0)
(3.17106e-09 -3.08131e-06 0)
(3.01059e-09 -3.08391e-06 0)
(2.85103e-09 -3.08639e-06 0)
(2.69245e-09 -3.08877e-06 0)
(2.53491e-09 -3.09103e-06 0)
(2.37845e-09 -3.09318e-06 0)
(2.22314e-09 -3.09522e-06 0)
(2.06902e-09 -3.09713e-06 0)
(1.91617e-09 -3.09893e-06 0)
(1.76464e-09 -3.10061e-06 0)
(1.61448e-09 -3.10216e-06 0)
(1.46576e-09 -3.1036e-06 0)
(1.31852e-09 -3.1049e-06 0)
(1.17283e-09 -3.10608e-06 0)
(1.02874e-09 -3.10714e-06 0)
(8.86309e-10 -3.10806e-06 0)
(7.4559e-10 -3.10885e-06 0)
(6.06638e-10 -3.10952e-06 0)
(4.69506e-10 -3.11005e-06 0)
(3.34248e-10 -3.11044e-06 0)
(2.00915e-10 -3.1107e-06 0)
(6.9558e-11 -3.11083e-06 0)
(-5.97727e-11 -3.11081e-06 0)
(-1.87028e-10 -3.11066e-06 0)
(-3.1216e-10 -3.11038e-06 0)
(-4.35123e-10 -3.10995e-06 0)
(-5.55869e-10 -3.10939e-06 0)
(-6.74354e-10 -3.10868e-06 0)
(-7.90536e-10 -3.10784e-06 0)
(-9.0437e-10 -3.10685e-06 0)
(-1.01582e-09 -3.10572e-06 0)
(-1.12483e-09 -3.10446e-06 0)
(-1.23138e-09 -3.10305e-06 0)
(-1.33543e-09 -3.1015e-06 0)
(-1.43693e-09 -3.09981e-06 0)
(-1.53586e-09 -3.09798e-06 0)
(-1.63218e-09 -3.09601e-06 0)
(-1.72585e-09 -3.09391e-06 0)
(-1.81684e-09 -3.09166e-06 0)
(-1.9052e-09 -3.08927e-06 0)
(-1.99051e-09 -3.08672e-06 0)
(-2.07441e-09 -3.08408e-06 0)
(-2.16206e-09 -3.081e-06 0)
(-2.2524e-09 -3.07738e-06 0)
(-2.33976e-09 -3.07365e-06 0)
(-2.42236e-09 -3.06978e-06 0)
(-2.50009e-09 -3.06577e-06 0)
(-2.57305e-09 -3.06165e-06 0)
(-2.64134e-09 -3.05741e-06 0)
(-2.70507e-09 -3.05307e-06 0)
(-2.76439e-09 -3.04862e-06 0)
(-2.81943e-09 -3.04409e-06 0)
(-2.87032e-09 -3.03947e-06 0)
(-2.91721e-09 -3.03477e-06 0)
(-2.96021e-09 -3.03e-06 0)
(-2.99945e-09 -3.02516e-06 0)
(-3.03504e-09 -3.02026e-06 0)
(-3.06711e-09 -3.01531e-06 0)
(-3.09576e-09 -3.0103e-06 0)
(-3.12111e-09 -3.00526e-06 0)
(-3.14326e-09 -3.00017e-06 0)
(-3.16232e-09 -2.99506e-06 0)
(-3.17838e-09 -2.98991e-06 0)
(-3.19154e-09 -2.98474e-06 0)
(-3.20189e-09 -2.97956e-06 0)
(-3.20952e-09 -2.97436e-06 0)
(-3.21452e-09 -2.96915e-06 0)
(-3.21698e-09 -2.96393e-06 0)
(-3.21696e-09 -2.95871e-06 0)
(-3.21456e-09 -2.95349e-06 0)
(-3.20984e-09 -2.94828e-06 0)
(-3.20287e-09 -2.94308e-06 0)
(-3.19373e-09 -2.93789e-06 0)
(-3.18248e-09 -2.93272e-06 0)
(-3.16919e-09 -2.92757e-06 0)
(-3.15391e-09 -2.92244e-06 0)
(-3.13671e-09 -2.91734e-06 0)
(-3.11764e-09 -2.91227e-06 0)
(-3.09677e-09 -2.90723e-06 0)
(-3.07413e-09 -2.90222e-06 0)
(-3.04979e-09 -2.89726e-06 0)
(-3.0238e-09 -2.89233e-06 0)
(-2.99619e-09 -2.88745e-06 0)
(-2.96703e-09 -2.88262e-06 0)
(-2.93634e-09 -2.87783e-06 0)
(-2.90418e-09 -2.87309e-06 0)
(-2.87058e-09 -2.86841e-06 0)
(-2.83559e-09 -2.86378e-06 0)
(-2.79924e-09 -2.85921e-06 0)
(-2.76157e-09 -2.85471e-06 0)
(-2.72262e-09 -2.85026e-06 0)
(-2.68242e-09 -2.84588e-06 0)
(-2.641e-09 -2.84156e-06 0)
(-2.5984e-09 -2.83731e-06 0)
(-2.55464e-09 -2.83313e-06 0)
(-2.50977e-09 -2.82902e-06 0)
(-2.46379e-09 -2.82499e-06 0)
(-2.41676e-09 -2.82103e-06 0)
(-2.36869e-09 -2.81715e-06 0)
(-2.3196e-09 -2.81335e-06 0)
(-2.26954e-09 -2.80963e-06 0)
(-2.21852e-09 -2.80599e-06 0)
(-2.16657e-09 -2.80243e-06 0)
(-2.11372e-09 -2.79896e-06 0)
(-2.05998e-09 -2.79557e-06 0)
(-2.0054e-09 -2.79228e-06 0)
(-1.94998e-09 -2.78907e-06 0)
(-1.89376e-09 -2.78595e-06 0)
(-1.83675e-09 -2.78292e-06 0)
(-1.779e-09 -2.77999e-06 0)
(-1.7205e-09 -2.77715e-06 0)
(-1.66131e-09 -2.7744e-06 0)
(-1.60142e-09 -2.77175e-06 0)
(-1.54088e-09 -2.7692e-06 0)
(-1.47971e-09 -2.76675e-06 0)
(-1.41792e-09 -2.7644e-06 0)
(-1.35555e-09 -2.76215e-06 0)
(-1.29262e-09 -2.76e-06 0)
(-1.22915e-09 -2.75795e-06 0)
(-1.16517e-09 -2.756e-06 0)
(-1.1007e-09 -2.75416e-06 0)
(-1.03577e-09 -2.75242e-06 0)
(-9.70411e-10 -2.75079e-06 0)
(-9.04645e-10 -2.74927e-06 0)
(-8.38501e-10 -2.74785e-06 0)
(-7.72008e-10 -2.74654e-06 0)
(-7.05196e-10 -2.74533e-06 0)
(-6.38097e-10 -2.74425e-06 0)
(-5.70738e-10 -2.74321e-06 0)
(-5.03166e-10 -2.74253e-06 0)
(-4.3536e-10 -2.74112e-06 0)
(-3.67518e-10 -2.74254e-06 0)
(-2.99113e-10 -2.73487e-06 0)
(-2.32034e-10 -2.75669e-06 0)
(-1.60151e-10 -2.67385e-06 0)
(-1.04883e-10 -2.89323e-06 0)
(-4.44781e-11 -2.52689e-06 0)
)
;
    }
    bottomWall
    {
        type            calculated;
        value           nonuniform List<vector> 
449
(
(-48.5193 -0.96391 0)
(-19.7498 -0.00515276 0)
(-14.3477 -0.00113292 0)
(-12.0453 -0.000542712 0)
(-10.6508 -0.000346609 0)
(-9.6787 -0.000246464 0)
(-8.96398 -0.000178114 0)
(-8.45686 -0.000113976 0)
(-8.18078 -3.10735e-05 0)
(-8.24503 0.000130196 0)
(-9.08596 0.000301763 0)
(-10.3371 0.000316746 0)
(-11.281 0.000215391 0)
(-11.8325 0.000122124 0)
(-12.1314 6.54705e-05 0)
(-12.2896 3.2754e-05 0)
(-12.3606 1.18672e-05 0)
(-12.3727 -2.38985e-06 0)
(-12.3436 -1.15198e-05 0)
(-12.2914 -1.70763e-05 0)
(-12.2228 -2.06058e-05 0)
(-12.1452 -2.2422e-05 0)
(-12.0634 -2.31869e-05 0)
(-11.9801 -2.33083e-05 0)
(-11.897 -2.30465e-05 0)
(-11.8151 -2.25797e-05 0)
(-11.735 -2.19848e-05 0)
(-11.657 -2.12944e-05 0)
(-11.5815 -2.05673e-05 0)
(-11.5084 -1.98337e-05 0)
(-11.4378 -1.91109e-05 0)
(-11.3697 -1.84087e-05 0)
(-11.3039 -1.77328e-05 0)
(-11.2404 -1.70839e-05 0)
(-11.179 -1.64755e-05 0)
(-11.1196 -1.59056e-05 0)
(-11.0622 -1.53554e-05 0)
(-11.0066 -1.48252e-05 0)
(-10.9527 -1.43215e-05 0)
(-10.9006 -1.38446e-05 0)
(-10.8501 -1.33912e-05 0)
(-10.8011 -1.29606e-05 0)
(-10.7535 -1.25532e-05 0)
(-10.7073 -1.2167e-05 0)
(-10.6625 -1.17986e-05 0)
(-10.6188 -1.14468e-05 0)
(-10.5764 -1.11139e-05 0)
(-10.535 -1.07933e-05 0)
(-10.4948 -1.04995e-05 0)
(-10.4555 -1.02425e-05 0)
(-10.4171 -1.00087e-05 0)
(-10.3794 -9.79045e-06 0)
(-10.3424 -9.57533e-06 0)
(-10.3061 -9.36303e-06 0)
(-10.2706 -9.15428e-06 0)
(-10.2358 -8.94675e-06 0)
(-10.2017 -8.74578e-06 0)
(-10.1683 -8.551e-06 0)
(-10.1356 -8.36095e-06 0)
(-10.1035 -8.17885e-06 0)
(-10.072 -8.00405e-06 0)
(-10.0411 -7.83462e-06 0)
(-10.0108 -7.66925e-06 0)
(-9.98111 -7.51035e-06 0)
(-9.95191 -7.35845e-06 0)
(-9.92323 -7.21094e-06 0)
(-9.89506 -7.06765e-06 0)
(-9.86738 -6.92809e-06 0)
(-9.84018 -6.79421e-06 0)
(-9.81344 -6.6701e-06 0)
(-9.7871 -6.55147e-06 0)
(-9.76117 -6.43253e-06 0)
(-9.73566 -6.31534e-06 0)
(-9.71055 -6.20094e-06 0)
(-9.68584 -6.08956e-06 0)
(-9.66151 -5.98148e-06 0)
(-9.63755 -5.87678e-06 0)
(-9.61396 -5.7754e-06 0)
(-9.59071 -5.67716e-06 0)
(-9.5678 -5.58198e-06 0)
(-9.54522 -5.49005e-06 0)
(-9.52296 -5.40064e-06 0)
(-9.501 -5.31386e-06 0)
(-9.47934 -5.22857e-06 0)
(-9.45799 -5.14497e-06 0)
(-9.43692 -5.06429e-06 0)
(-9.41613 -4.98529e-06 0)
(-9.39561 -4.90904e-06 0)
(-9.37536 -4.83446e-06 0)
(-9.35537 -4.76162e-06 0)
(-9.33562 -4.69128e-06 0)
(-9.31613 -4.62212e-06 0)
(-9.29687 -4.55554e-06 0)
(-9.27784 -4.48998e-06 0)
(-9.25905 -4.42565e-06 0)
(-9.24047 -4.36391e-06 0)
(-9.22211 -4.30296e-06 0)
(-9.20397 -4.24347e-06 0)
(-9.18603 -4.18663e-06 0)
(-9.16828 -4.1335e-06 0)
(-9.15071 -4.08182e-06 0)
(-9.13332 -4.0282e-06 0)
(-9.11613 -3.97445e-06 0)
(-9.09912 -3.92318e-06 0)
(-9.08229 -3.87238e-06 0)
(-9.06564 -3.82199e-06 0)
(-9.04917 -3.77405e-06 0)
(-9.03286 -3.7262e-06 0)
(-9.01672 -3.67883e-06 0)
(-9.00075 -3.634e-06 0)
(-8.98493 -3.58894e-06 0)
(-8.96928 -3.54444e-06 0)
(-8.95378 -3.50232e-06 0)
(-8.93842 -3.45996e-06 0)
(-8.92322 -3.41809e-06 0)
(-8.90817 -3.37833e-06 0)
(-8.89325 -3.33852e-06 0)
(-8.87847 -3.29914e-06 0)
(-8.86383 -3.26138e-06 0)
(-8.84933 -3.22401e-06 0)
(-8.83495 -3.18681e-06 0)
(-8.82072 -3.1508e-06 0)
(-8.8066 -3.1158e-06 0)
(-8.79261 -3.08072e-06 0)
(-8.77874 -3.04618e-06 0)
(-8.765 -3.01322e-06 0)
(-8.75137 -2.9803e-06 0)
(-8.73786 -2.94727e-06 0)
(-8.72446 -2.91572e-06 0)
(-8.71118 -2.88495e-06 0)
(-8.69801 -2.85375e-06 0)
(-8.68495 -2.8232e-06 0)
(-8.67199 -2.79423e-06 0)
(-8.65914 -2.76496e-06 0)
(-8.64639 -2.73559e-06 0)
(-8.63375 -2.70759e-06 0)
(-8.62121 -2.6804e-06 0)
(-8.60876 -2.65263e-06 0)
(-8.59642 -2.62535e-06 0)
(-8.58417 -2.59934e-06 0)
(-8.57201 -2.57369e-06 0)
(-8.55994 -2.54809e-06 0)
(-8.54797 -2.52406e-06 0)
(-8.53607 -2.50148e-06 0)
(-8.52426 -2.47801e-06 0)
(-8.51253 -2.45333e-06 0)
(-8.50089 -2.42934e-06 0)
(-8.48934 -2.40618e-06 0)
(-8.47787 -2.38315e-06 0)
(-8.46648 -2.35997e-06 0)
(-8.45518 -2.33748e-06 0)
(-8.44395 -2.31574e-06 0)
(-8.43281 -2.29407e-06 0)
(-8.42174 -2.27216e-06 0)
(-8.41076 -2.2509e-06 0)
(-8.39985 -2.23044e-06 0)
(-8.38901 -2.21004e-06 0)
(-8.37825 -2.18932e-06 0)
(-8.36756 -2.16914e-06 0)
(-8.35695 -2.1498e-06 0)
(-8.3464 -2.13056e-06 0)
(-8.33592 -2.11098e-06 0)
(-8.32552 -2.09177e-06 0)
(-8.31519 -2.07339e-06 0)
(-8.30492 -2.05529e-06 0)
(-8.29472 -2.0368e-06 0)
(-8.28459 -2.0185e-06 0)
(-8.27452 -2.00096e-06 0)
(-8.26452 -1.98406e-06 0)
(-8.25457 -1.96653e-06 0)
(-8.2447 -1.94936e-06 0)
(-8.23488 -1.93248e-06 0)
(-8.22513 -1.91376e-06 0)
(-8.216 -1.89995e-06 0)
(-8.20739 -1.88826e-06 0)
(-8.19875 -1.87223e-06 0)
(-8.19009 -1.85728e-06 0)
(-8.18141 -1.8434e-06 0)
(-8.1727 -1.82905e-06 0)
(-8.16396 -1.81461e-06 0)
(-8.1552 -1.80019e-06 0)
(-8.14641 -1.78616e-06 0)
(-8.1376 -1.77228e-06 0)
(-8.12875 -1.75821e-06 0)
(-8.11989 -1.74385e-06 0)
(-8.111 -1.7297e-06 0)
(-8.10209 -1.71585e-06 0)
(-8.09315 -1.70218e-06 0)
(-8.08419 -1.68823e-06 0)
(-8.07521 -1.67408e-06 0)
(-8.06621 -1.66023e-06 0)
(-8.05718 -1.64668e-06 0)
(-8.04813 -1.63319e-06 0)
(-8.03905 -1.61941e-06 0)
(-8.02996 -1.60553e-06 0)
(-8.02084 -1.59208e-06 0)
(-8.01171 -1.57886e-06 0)
(-8.00254 -1.56551e-06 0)
(-7.99337 -1.5519e-06 0)
(-7.98417 -1.53849e-06 0)
(-7.97495 -1.52543e-06 0)
(-7.96571 -1.5125e-06 0)
(-7.95645 -1.49927e-06 0)
(-7.94717 -1.48603e-06 0)
(-7.93787 -1.47343e-06 0)
(-7.92855 -1.4615e-06 0)
(-7.91921 -1.44956e-06 0)
(-7.90984 -1.4369e-06 0)
(-7.90045 -1.42392e-06 0)
(-7.89105 -1.41131e-06 0)
(-7.88163 -1.39871e-06 0)
(-7.87219 -1.38586e-06 0)
(-7.86274 -1.37302e-06 0)
(-7.85328 -1.36061e-06 0)
(-7.8438 -1.34828e-06 0)
(-7.8343 -1.33569e-06 0)
(-7.82479 -1.32296e-06 0)
(-7.81527 -1.31069e-06 0)
(-7.80573 -1.29859e-06 0)
(-7.79618 -1.28624e-06 0)
(-7.78662 -1.27371e-06 0)
(-7.77705 -1.26157e-06 0)
(-7.76747 -1.24966e-06 0)
(-7.75787 -1.23758e-06 0)
(-7.74826 -1.2253e-06 0)
(-7.73865 -1.21332e-06 0)
(-7.72903 -1.20161e-06 0)
(-7.7194 -1.18977e-06 0)
(-7.70976 -1.17777e-06 0)
(-7.70011 -1.166e-06 0)
(-7.69046 -1.15452e-06 0)
(-7.68079 -1.14294e-06 0)
(-7.67112 -1.13124e-06 0)
(-7.66145 -1.11973e-06 0)
(-7.65177 -1.10851e-06 0)
(-7.64208 -1.09719e-06 0)
(-7.63239 -1.08578e-06 0)
(-7.6227 -1.07454e-06 0)
(-7.613 -1.06355e-06 0)
(-7.6033 -1.05247e-06 0)
(-7.59359 -1.0413e-06 0)
(-7.58388 -1.0303e-06 0)
(-7.57418 -1.01952e-06 0)
(-7.56446 -1.00866e-06 0)
(-7.55475 -9.9773e-07 0)
(-7.54504 -9.87005e-07 0)
(-7.53533 -9.76489e-07 0)
(-7.52562 -9.65886e-07 0)
(-7.51591 -9.55232e-07 0)
(-7.50621 -9.44814e-07 0)
(-7.4965 -9.34602e-07 0)
(-7.4868 -9.24261e-07 0)
(-7.4771 -9.13924e-07 0)
(-7.46741 -9.03832e-07 0)
(-7.45771 -8.93878e-07 0)
(-7.44802 -8.83804e-07 0)
(-7.43834 -8.73775e-07 0)
(-7.42866 -8.63995e-07 0)
(-7.41899 -8.54269e-07 0)
(-7.40932 -8.44473e-07 0)
(-7.39966 -8.34753e-07 0)
(-7.39001 -8.25262e-07 0)
(-7.38036 -8.15759e-07 0)
(-7.37072 -8.06193e-07 0)
(-7.36109 -7.96773e-07 0)
(-7.35147 -7.87565e-07 0)
(-7.34186 -7.78236e-07 0)
(-7.33226 -7.68901e-07 0)
(-7.32268 -7.5978e-07 0)
(-7.3131 -7.50979e-07 0)
(-7.30353 -7.42309e-07 0)
(-7.29397 -7.33582e-07 0)
(-7.28442 -7.24844e-07 0)
(-7.27488 -7.16117e-07 0)
(-7.26535 -7.07316e-07 0)
(-7.25585 -6.98706e-07 0)
(-7.24635 -6.90264e-07 0)
(-7.23686 -6.81804e-07 0)
(-7.22739 -6.73319e-07 0)
(-7.21794 -6.65115e-07 0)
(-7.2085 -6.56955e-07 0)
(-7.19908 -6.48744e-07 0)
(-7.18967 -6.40627e-07 0)
(-7.18029 -6.32739e-07 0)
(-7.17091 -6.24782e-07 0)
(-7.16156 -6.1684e-07 0)
(-7.15221 -6.09091e-07 0)
(-7.1429 -6.01456e-07 0)
(-7.13359 -5.9378e-07 0)
(-7.12431 -5.862e-07 0)
(-7.11504 -5.78831e-07 0)
(-7.10579 -5.71451e-07 0)
(-7.09656 -5.6407e-07 0)
(-7.08736 -5.56881e-07 0)
(-7.07816 -5.49791e-07 0)
(-7.069 -5.42682e-07 0)
(-7.05984 -5.35653e-07 0)
(-7.05071 -5.28814e-07 0)
(-7.0416 -5.21957e-07 0)
(-7.03251 -5.15101e-07 0)
(-7.02344 -5.08416e-07 0)
(-7.0144 -5.01802e-07 0)
(-7.00536 -4.95174e-07 0)
(-6.99636 -4.88643e-07 0)
(-6.98738 -4.82277e-07 0)
(-6.97842 -4.75903e-07 0)
(-6.96948 -4.69569e-07 0)
(-6.96057 -4.63395e-07 0)
(-6.95167 -4.57296e-07 0)
(-6.9428 -4.51182e-07 0)
(-6.93395 -4.45186e-07 0)
(-6.92513 -4.39318e-07 0)
(-6.91632 -4.33478e-07 0)
(-6.90754 -4.27664e-07 0)
(-6.89878 -4.22035e-07 0)
(-6.89005 -4.16417e-07 0)
(-6.88133 -4.10834e-07 0)
(-6.87265 -4.05337e-07 0)
(-6.86398 -3.99952e-07 0)
(-6.85534 -3.94549e-07 0)
(-6.84671 -3.89243e-07 0)
(-6.83812 -3.84046e-07 0)
(-6.82954 -3.78896e-07 0)
(-6.821 -3.73753e-07 0)
(-6.81247 -3.68752e-07 0)
(-6.80397 -3.63777e-07 0)
(-6.79549 -3.58831e-07 0)
(-6.78703 -3.53947e-07 0)
(-6.7786 -3.49165e-07 0)
(-6.7702 -3.44387e-07 0)
(-6.76182 -3.39669e-07 0)
(-6.75346 -3.35048e-07 0)
(-6.74513 -3.30475e-07 0)
(-6.73682 -3.2591e-07 0)
(-6.72854 -3.21462e-07 0)
(-6.72028 -3.17074e-07 0)
(-6.71205 -3.12794e-07 0)
(-6.70384 -3.0854e-07 0)
(-6.69565 -3.0436e-07 0)
(-6.68749 -3.00151e-07 0)
(-6.67935 -2.96012e-07 0)
(-6.67124 -2.91943e-07 0)
(-6.66315 -2.87926e-07 0)
(-6.65509 -2.83915e-07 0)
(-6.64706 -2.80009e-07 0)
(-6.63904 -2.76103e-07 0)
(-6.63106 -2.7224e-07 0)
(-6.62309 -2.68407e-07 0)
(-6.61517 -2.64706e-07 0)
(-6.60725 -2.61e-07 0)
(-6.59938 -2.57416e-07 0)
(-6.59151 -2.53795e-07 0)
(-6.58369 -2.50367e-07 0)
(-6.57586 -2.46945e-07 0)
(-6.56721 -2.42655e-07 0)
(-6.55782 -2.38153e-07 0)
(-6.5486 -2.34168e-07 0)
(-6.53952 -2.30339e-07 0)
(-6.53061 -2.26515e-07 0)
(-6.52182 -2.2281e-07 0)
(-6.5132 -2.19163e-07 0)
(-6.5047 -2.15611e-07 0)
(-6.49635 -2.12147e-07 0)
(-6.48812 -2.0881e-07 0)
(-6.48004 -2.05586e-07 0)
(-6.47206 -2.02486e-07 0)
(-6.46422 -1.99479e-07 0)
(-6.45647 -1.96534e-07 0)
(-6.44886 -1.93658e-07 0)
(-6.44134 -1.90857e-07 0)
(-6.43395 -1.8812e-07 0)
(-6.42665 -1.85432e-07 0)
(-6.41946 -1.82841e-07 0)
(-6.41236 -1.80313e-07 0)
(-6.40537 -1.77855e-07 0)
(-6.39847 -1.75477e-07 0)
(-6.39166 -1.73162e-07 0)
(-6.38494 -1.7089e-07 0)
(-6.37831 -1.68677e-07 0)
(-6.37176 -1.66517e-07 0)
(-6.3653 -1.64371e-07 0)
(-6.35892 -1.6228e-07 0)
(-6.35263 -1.60251e-07 0)
(-6.3464 -1.58284e-07 0)
(-6.34026 -1.56355e-07 0)
(-6.33418 -1.54476e-07 0)
(-6.32819 -1.52645e-07 0)
(-6.32226 -1.50822e-07 0)
(-6.31641 -1.49043e-07 0)
(-6.31061 -1.47294e-07 0)
(-6.3049 -1.45599e-07 0)
(-6.29924 -1.43932e-07 0)
(-6.29365 -1.4231e-07 0)
(-6.28812 -1.40735e-07 0)
(-6.28266 -1.39188e-07 0)
(-6.27724 -1.37658e-07 0)
(-6.2719 -1.36165e-07 0)
(-6.2666 -1.34706e-07 0)
(-6.26138 -1.33296e-07 0)
(-6.25619 -1.31885e-07 0)
(-6.25108 -1.30516e-07 0)
(-6.24599 -1.29142e-07 0)
(-6.24099 -1.27793e-07 0)
(-6.23601 -1.26456e-07 0)
(-6.23111 -1.25157e-07 0)
(-6.22623 -1.23912e-07 0)
(-6.22143 -1.22705e-07 0)
(-6.21664 -1.21517e-07 0)
(-6.21193 -1.2035e-07 0)
(-6.20724 -1.19207e-07 0)
(-6.20262 -1.18118e-07 0)
(-6.19801 -1.17024e-07 0)
(-6.19347 -1.15976e-07 0)
(-6.18895 -1.14916e-07 0)
(-6.1845 -1.13916e-07 0)
(-6.18005 -1.12898e-07 0)
(-6.17568 -1.11947e-07 0)
(-6.1713 -1.10938e-07 0)
(-6.16701 -1.09998e-07 0)
(-6.16271 -1.09003e-07 0)
(-6.15849 -1.08098e-07 0)
(-6.15427 -1.07134e-07 0)
(-6.15012 -1.06273e-07 0)
(-6.14596 -1.05329e-07 0)
(-6.14189 -1.04516e-07 0)
(-6.1378 -1.03593e-07 0)
(-6.1338 -1.02802e-07 0)
(-6.12976 -1.019e-07 0)
(-6.12584 -1.01136e-07 0)
(-6.12186 -1.00272e-07 0)
(-6.118 -9.95429e-08 0)
(-6.11409 -9.873e-08 0)
(-6.11029 -9.80315e-08 0)
(-6.10643 -9.72675e-08 0)
(-6.10269 -9.66196e-08 0)
(-6.09888 -9.5956e-08 0)
(-6.09519 -9.53036e-08 0)
(-6.09143 -9.47477e-08 0)
(-6.08779 -9.39808e-08 0)
(-6.08409 -9.38003e-08 0)
(-6.08046 -9.25027e-08 0)
(-6.07686 -9.37703e-08 0)
(-6.07313 -8.99365e-08 0)
(-6.06985 -9.67959e-08 0)
(-6.06555 -8.25233e-08 0)
(-6.06343 -1.07892e-07 0)
(-6.05705 -6.4647e-08 0)
(-6.05851 -8.79148e-08 0)
(-6.04994 -1.13947e-07 0)
)
;
    }
    symmetry
    {
        type            symmetryPlane;
    }
    frontAndBack
    {
        type            empty;
    }
}


// ************************************************************************* //
