/*--------------------------------*- C++ -*----------------------------------*\
| =========                 |                                                 |
| \\      /  F ield         | OpenFOAM: The Open Source CFD Toolbox           |
|  \\    /   O peration     | Version:  v2012                                 |
|   \\  /    A nd           | Website:  www.openfoam.com                      |
|    \\/     M anipulation  |                                                 |
\*---------------------------------------------------------------------------*/
FoamFile
{
    version     2.0;
    format      ascii;
    class       volScalarField;
    location    "29.5";
    object      yPlus;
}
// * * * * * * * * * * * * * * * * * * * * * * * * * * * * * * * * * * * * * //

dimensions      [0 0 0 0 0 0 0];


internalField   uniform 0;

boundaryField
{
    inlet
    {
        type            calculated;
        value           uniform 0;
    }
    outlet
    {
        type            calculated;
        value           uniform 0;
    }
    topWall
    {
        type            calculated;
        value           nonuniform List<scalar> 
545
(
0.110987
0.191382
0.245523
0.288608
0.325084
0.357
0.385508
0.411333
0.434969
0.45677
0.477002
0.495871
0.513539
0.53014
0.545782
0.560557
0.574544
0.587809
0.600411
0.6124
0.62382
0.634713
0.645114
0.655054
0.664563
0.673667
0.68239
0.690753
0.698777
0.70648
0.713879
0.72099
0.727828
0.734405
0.740736
0.746831
0.752702
0.758359
0.763812
0.76907
0.774141
0.779035
0.783757
0.788316
0.792719
0.796971
0.801079
0.805049
0.808887
0.812597
0.816185
0.819655
0.823011
0.826259
0.829402
0.832445
0.83539
0.838241
0.841003
0.843677
0.846268
0.848778
0.85121
0.853567
0.855851
0.858065
0.860211
0.862292
0.86431
0.866267
0.868165
0.870006
0.871769
0.873475
0.875167
0.876845
0.87851
0.880162
0.881801
0.883427
0.88504
0.88664
0.888228
0.889803
0.891367
0.892917
0.894456
0.895983
0.897498
0.899001
0.900493
0.901973
0.903442
0.9049
0.906346
0.907781
0.909075
0.910231
0.911388
0.912544
0.9137
0.914856
0.916012
0.917167
0.918323
0.919478
0.920633
0.921787
0.922942
0.924096
0.92525
0.926404
0.927557
0.92871
0.929863
0.931016
0.932168
0.93332
0.934472
0.935623
0.936775
0.937925
0.939076
0.940226
0.941376
0.942525
0.943674
0.944823
0.945971
0.947119
0.948266
0.949413
0.95056
0.951706
0.952852
0.953997
0.955142
0.956287
0.957431
0.958574
0.959717
0.96086
0.962002
0.963143
0.964284
0.965425
0.966565
0.967704
0.968843
0.969981
0.971119
0.972256
0.973393
0.974529
0.975664
0.976799
0.977933
0.979066
0.980199
0.981331
0.982463
0.983594
0.984724
0.985853
0.986982
0.98811
0.989237
0.990364
0.99149
0.992615
0.993739
0.994863
0.995986
0.997108
0.998229
0.999349
1.00047
1.00159
1.00271
1.00382
1.00494
1.00605
1.00717
1.00828
1.00939
1.01051
1.01162
1.01273
1.01383
1.01494
1.01605
1.01715
1.01826
1.01936
1.02047
1.02157
1.02267
1.02377
1.02487
1.02596
1.02706
1.02816
1.02925
1.03034
1.03144
1.03253
1.03362
1.0347
1.03579
1.03688
1.03796
1.03905
1.04013
1.04121
1.04229
1.04337
1.04444
1.04552
1.0466
1.04767
1.04874
1.04981
1.05088
1.05195
1.05301
1.05408
1.05514
1.05621
1.05727
1.05833
1.05938
1.06044
1.06149
1.06255
1.0636
1.06465
1.0657
1.06675
1.06779
1.06884
1.06988
1.07092
1.07196
1.07299
1.07403
1.07506
1.0761
1.07713
1.07816
1.07918
1.08021
1.08123
1.08226
1.08328
1.08429
1.08531
1.08633
1.08734
1.08835
1.08936
1.09037
1.09137
1.09237
1.09338
1.09438
1.09537
1.09637
1.09736
1.09835
1.09929
1.10017
1.10106
1.10195
1.10285
1.10376
1.10467
1.10559
1.10651
1.10744
1.10837
1.10932
1.11026
1.11122
1.11218
1.11314
1.11411
1.11509
1.11607
1.11706
1.11806
1.11906
1.12006
1.12107
1.12209
1.12311
1.12414
1.12518
1.12622
1.12726
1.12831
1.12937
1.13043
1.13149
1.13256
1.13364
1.13472
1.13581
1.1369
1.13799
1.13909
1.1402
1.14131
1.14242
1.14354
1.14466
1.14579
1.14692
1.14805
1.14919
1.15033
1.15148
1.15263
1.15378
1.15493
1.15609
1.15725
1.15842
1.15959
1.16076
1.16193
1.1631
1.16428
1.16546
1.16664
1.16782
1.169
1.17019
1.17138
1.17256
1.17375
1.17494
1.17613
1.17731
1.1785
1.17969
1.18088
1.18207
1.18325
1.18444
1.18562
1.1868
1.18798
1.18916
1.19034
1.19151
1.19268
1.19385
1.19501
1.19617
1.19732
1.19848
1.19962
1.20077
1.2019
1.20303
1.20416
1.20528
1.20639
1.2075
1.2086
1.20969
1.21078
1.21185
1.21292
1.21398
1.21503
1.21607
1.2171
1.21813
1.21914
1.22014
1.22113
1.2221
1.22307
1.22402
1.22496
1.22589
1.22681
1.22771
1.22859
1.22947
1.23032
1.23116
1.23199
1.2328
1.23359
1.23437
1.23513
1.23587
1.2366
1.2373
1.23799
1.23866
1.23931
1.23993
1.24054
1.24113
1.2417
1.24224
1.24276
1.24327
1.24375
1.2442
1.24464
1.24505
1.24543
1.24579
1.24613
1.24645
1.24673
1.247
1.24724
1.24745
1.24764
1.2478
1.24793
1.24804
1.24812
1.24817
1.2482
1.24819
1.24816
1.24811
1.24802
1.24791
1.24777
1.2476
1.2474
1.24718
1.24693
1.24664
1.24633
1.246
1.24563
1.24523
1.24481
1.24436
1.24388
1.24337
1.24284
1.24221
1.24149
1.24073
1.23995
1.23914
1.23831
1.23746
1.23658
1.23568
1.23476
1.23382
1.23287
1.2319
1.23092
1.22992
1.22891
1.22789
1.22686
1.22583
1.22478
1.22373
1.22267
1.22161
1.22054
1.21947
1.2184
1.21733
1.21626
1.21518
1.21411
1.21304
1.21197
1.21091
1.20985
1.20879
1.20774
1.2067
1.20566
1.20463
1.2036
1.20259
1.20158
1.20058
1.19959
1.19862
1.19765
1.19669
1.19575
1.19482
1.1939
1.19299
1.1921
1.19122
1.19036
1.18951
1.18868
1.18786
1.18706
1.18627
1.1855
1.18475
1.18402
1.1833
1.1826
1.18192
1.18126
1.18062
1.18
1.1794
1.17881
1.17825
1.17771
1.17719
1.17669
1.17621
1.17575
1.17531
1.1749
1.17451
1.17414
1.17379
1.17346
1.17316
1.17288
1.17262
1.17239
1.17218
1.17199
1.17183
1.17169
1.17157
1.17148
1.17141
1.17137
1.17133
)
;
    }
    bottomWall
    {
        type            calculated;
        value           nonuniform List<scalar> 
449
(
0.139434
0.0889578
0.0758215
0.0694722
0.0653271
0.0622746
0.0599311
0.0582112
0.0572532
0.0574775
0.0603375
0.0643578
0.0672319
0.0688557
0.0697199
0.0701731
0.0703754
0.0704101
0.0703271
0.0701782
0.069982
0.0697598
0.0695243
0.0692838
0.0690431
0.0688052
0.0685714
0.0683433
0.0681215
0.0679063
0.0676977
0.0674957
0.0673002
0.0671107
0.0669273
0.0667493
0.0665767
0.0664091
0.0662466
0.0660888
0.0659354
0.0657863
0.0656414
0.0655002
0.0653628
0.0652289
0.0650984
0.0649711
0.0648469
0.0647254
0.0646063
0.0644892
0.0643743
0.0642614
0.0641506
0.0640418
0.0639351
0.0638303
0.0637275
0.0636265
0.0635273
0.0634298
0.0633341
0.0632399
0.0631474
0.0630563
0.0629667
0.0628786
0.0627919
0.0627065
0.0626223
0.0625393
0.0624575
0.0623769
0.0622975
0.0622192
0.062142
0.0620659
0.0619908
0.0619167
0.0618436
0.0617715
0.0617002
0.0616299
0.0615604
0.0614918
0.061424
0.0613571
0.0612909
0.0612255
0.0611609
0.061097
0.0610338
0.0609713
0.0609095
0.0608484
0.0607879
0.0607281
0.0606689
0.0606102
0.0605521
0.0604946
0.0604376
0.0603812
0.0603253
0.06027
0.0602152
0.0601609
0.0601072
0.0600539
0.0600011
0.0599488
0.059897
0.0598456
0.0597947
0.0597443
0.0596942
0.0596446
0.0595954
0.0595466
0.0594983
0.0594503
0.0594027
0.0593555
0.0593087
0.0592622
0.0592161
0.0591704
0.059125
0.05908
0.0590353
0.058991
0.058947
0.0589033
0.0588599
0.0588169
0.0587741
0.0587317
0.0586895
0.0586477
0.0586062
0.0585649
0.0585239
0.0584832
0.0584427
0.0584025
0.0583626
0.0583229
0.0582835
0.0582443
0.0582054
0.0581668
0.0581284
0.0580902
0.0580523
0.0580147
0.0579772
0.05794
0.0579031
0.0578663
0.0578298
0.0577935
0.0577574
0.0577216
0.0576859
0.0576505
0.0576153
0.0575802
0.0575454
0.0575108
0.0574764
0.0574422
0.0574081
0.0573763
0.0573462
0.057316
0.0572857
0.0572553
0.0572249
0.0571943
0.0571636
0.0571327
0.0571018
0.0570708
0.0570397
0.0570085
0.0569771
0.0569457
0.0569142
0.0568825
0.0568508
0.056819
0.0567871
0.056755
0.0567229
0.0566907
0.0566584
0.056626
0.0565935
0.056561
0.0565283
0.0564955
0.0564627
0.0564298
0.0563968
0.0563636
0.0563304
0.0562971
0.0562637
0.0562302
0.0561966
0.0561629
0.0561292
0.0560954
0.0560616
0.0560276
0.0559936
0.0559595
0.0559254
0.0558911
0.0558569
0.0558225
0.0557881
0.0557536
0.0557191
0.0556846
0.0556499
0.0556152
0.0555805
0.0555457
0.0555109
0.055476
0.0554411
0.0554061
0.0553711
0.055336
0.0553009
0.0552658
0.0552306
0.0551954
0.0551602
0.0551249
0.0550896
0.0550543
0.0550189
0.0549836
0.0549482
0.0549128
0.0548773
0.0548419
0.0548064
0.0547709
0.0547354
0.0546999
0.0546644
0.0546289
0.0545934
0.0545579
0.0545223
0.0544868
0.0544513
0.0544157
0.0543802
0.0543447
0.0543092
0.0542737
0.0542382
0.0542027
0.0541673
0.0541318
0.0540964
0.054061
0.0540256
0.0539902
0.0539548
0.0539195
0.0538842
0.053849
0.0538137
0.0537785
0.0537433
0.0537082
0.0536731
0.053638
0.053603
0.053568
0.0535331
0.0534982
0.0534633
0.0534286
0.0533938
0.0533591
0.0533244
0.0532898
0.0532552
0.0532207
0.0531863
0.0531519
0.0531175
0.0530832
0.053049
0.0530148
0.0529807
0.0529466
0.0529126
0.0528787
0.0528448
0.052811
0.0527772
0.0527436
0.0527099
0.0526764
0.0526429
0.0526095
0.0525761
0.0525428
0.0525095
0.0524764
0.0524433
0.0524103
0.0523773
0.0523444
0.0523116
0.0522788
0.0522462
0.0522135
0.052181
0.0521485
0.0521161
0.0520838
0.0520516
0.0520194
0.0519873
0.0519553
0.0519233
0.0518914
0.0518597
0.0518279
0.0517963
0.0517647
0.0517332
0.0517018
0.0516704
0.0516391
0.051608
0.0515768
0.0515458
0.0515149
0.051484
0.0514532
0.0514225
0.0513919
0.0513614
0.0513308
0.0512971
0.0512604
0.0512243
0.0511888
0.0511539
0.0511195
0.0510857
0.0510523
0.0510196
0.0509872
0.0509555
0.0509241
0.0508932
0.0508627
0.0508327
0.0508031
0.0507739
0.0507451
0.0507167
0.0506887
0.0506611
0.0506337
0.0506068
0.0505802
0.0505539
0.050528
0.0505024
0.050477
0.050452
0.0504273
0.0504029
0.0503787
0.0503549
0.0503313
0.050308
0.0502849
0.0502622
0.0502396
0.0502173
0.0501952
0.0501734
0.0501518
0.0501305
0.0501093
0.0500884
0.0500676
0.0500472
0.0500268
0.0500068
0.0499868
0.0499672
0.0499476
0.0499283
0.0499091
0.0498902
0.0498714
0.0498528
0.0498343
0.049816
0.0497978
0.0497799
0.049762
0.0497444
0.0497268
0.0497095
0.0496922
0.0496752
0.0496581
0.0496414
0.0496246
0.0496082
0.0495916
0.0495755
0.0495592
0.0495433
0.0495272
0.0495116
0.0494957
0.0494804
0.0494647
0.0494496
0.0494341
0.0494192
0.049404
0.0493892
0.0493742
0.0493594
0.0493448
0.0493297
0.0493163
0.0492989
0.0492903
0.0492643
0.0492703
0.0492354
)
;
    }
    symmetry
    {
        type            symmetryPlane;
    }
    frontAndBack
    {
        type            empty;
    }
}


// ************************************************************************* //
