/*--------------------------------*- C++ -*----------------------------------*\
| =========                 |                                                 |
| \\      /  F ield         | OpenFOAM: The Open Source CFD Toolbox           |
|  \\    /   O peration     | Version:  v2012                                 |
|   \\  /    A nd           | Website:  www.openfoam.com                      |
|    \\/     M anipulation  |                                                 |
\*---------------------------------------------------------------------------*/
FoamFile
{
    version     2.0;
    format      ascii;
    class       volScalarField;
    location    "6.5";
    object      yPlus;
}
// * * * * * * * * * * * * * * * * * * * * * * * * * * * * * * * * * * * * * //

dimensions      [0 0 0 0 0 0 0];


internalField   uniform 0;

boundaryField
{
    inlet
    {
        type            calculated;
        value           uniform 0;
    }
    outlet
    {
        type            calculated;
        value           uniform 0;
    }
    topWall
    {
        type            calculated;
        value           nonuniform List<scalar> 
545
(
0.0564286
0.0976323
0.125162
0.14703
0.165523
0.181686
0.196104
0.209144
0.221058
0.232024
0.242179
0.251628
0.260454
0.268725
0.276497
0.283818
0.290728
0.297262
0.30345
0.309319
0.314891
0.320189
0.32523
0.330032
0.334611
0.338979
0.343149
0.347134
0.350944
0.354589
0.358077
0.361418
0.364619
0.367687
0.37063
0.373453
0.376162
0.378764
0.381262
0.383663
0.385971
0.388189
0.390323
0.392375
0.394351
0.396252
0.398082
0.399845
0.401543
0.403179
0.404756
0.406276
0.407741
0.409154
0.410517
0.411832
0.4131
0.414324
0.415506
0.416646
0.417748
0.418811
0.419838
0.42083
0.421788
0.422714
0.423609
0.424474
0.42531
0.426118
0.426899
0.427654
0.428374
0.429069
0.429756
0.430437
0.431111
0.431778
0.432438
0.433091
0.433737
0.434377
0.435011
0.435638
0.436258
0.436872
0.43748
0.438082
0.438678
0.439268
0.439851
0.440429
0.441001
0.441567
0.442127
0.442683
0.443176
0.443616
0.444054
0.444492
0.444929
0.445365
0.4458
0.446234
0.446668
0.4471
0.447532
0.447962
0.448392
0.448821
0.449249
0.449676
0.450102
0.450527
0.450951
0.451375
0.451797
0.452218
0.452639
0.453058
0.453476
0.453894
0.45431
0.454725
0.45514
0.455553
0.455965
0.456376
0.456786
0.457195
0.457603
0.45801
0.458416
0.458821
0.459224
0.459627
0.460028
0.460428
0.460828
0.461225
0.461622
0.462018
0.462412
0.462806
0.463198
0.463589
0.463979
0.464367
0.464754
0.46514
0.465525
0.465909
0.466291
0.466672
0.467052
0.467431
0.467808
0.468184
0.468558
0.468932
0.469304
0.469674
0.470044
0.470412
0.470778
0.471144
0.471508
0.47187
0.472231
0.472591
0.472949
0.473306
0.473662
0.474016
0.474368
0.474719
0.475069
0.475417
0.475764
0.476109
0.476453
0.476795
0.477136
0.477475
0.477812
0.478148
0.478483
0.478816
0.479147
0.479477
0.479805
0.480132
0.480457
0.48078
0.481102
0.481422
0.48174
0.482057
0.482372
0.482685
0.482997
0.483307
0.483615
0.483922
0.484227
0.48453
0.484831
0.485131
0.485428
0.485724
0.486019
0.486311
0.486602
0.486891
0.487178
0.487463
0.487746
0.488027
0.488307
0.488585
0.488861
0.489134
0.489406
0.489677
0.489945
0.490211
0.490475
0.490738
0.490998
0.491256
0.491513
0.491767
0.492019
0.49227
0.492518
0.492764
0.493009
0.493251
0.493491
0.493729
0.493965
0.494199
0.494431
0.49466
0.494888
0.495113
0.495336
0.495557
0.495776
0.495993
0.496208
0.49642
0.49663
0.496838
0.497044
0.497247
0.497448
0.497647
0.497844
0.498038
0.498231
0.49842
0.498608
0.498793
0.498976
0.499157
0.499335
0.49951
0.499685
0.499843
0.499989
0.500136
0.500282
0.500427
0.500572
0.500717
0.500861
0.501004
0.501147
0.501289
0.50143
0.50157
0.50171
0.501848
0.501986
0.502122
0.502257
0.502392
0.502524
0.502656
0.502786
0.502915
0.503042
0.503167
0.503291
0.503413
0.503533
0.503651
0.503767
0.50388
0.503992
0.504102
0.504209
0.504313
0.504415
0.504514
0.504611
0.504704
0.504795
0.504882
0.504967
0.505048
0.505125
0.505199
0.50527
0.505336
0.505399
0.505458
0.505513
0.505563
0.505609
0.505651
0.505688
0.50572
0.505747
0.505769
0.505786
0.505798
0.505805
0.505805
0.5058
0.505789
0.505772
0.505749
0.505719
0.505683
0.50564
0.50559
0.505534
0.50547
0.505398
0.50532
0.505233
0.505139
0.505036
0.504926
0.504807
0.504679
0.504543
0.504397
0.504243
0.504079
0.503905
0.503722
0.503529
0.503326
0.503113
0.502889
0.502655
0.502409
0.502153
0.501885
0.501606
0.501315
0.501012
0.500698
0.50037
0.500031
0.499679
0.499314
0.498935
0.498544
0.498139
0.49772
0.497288
0.496841
0.49638
0.495905
0.495415
0.49491
0.49439
0.493855
0.493304
0.492738
0.492156
0.491558
0.490944
0.490314
0.489667
0.489004
0.488324
0.487626
0.486912
0.486181
0.485432
0.484665
0.483881
0.483079
0.482259
0.481421
0.480565
0.479691
0.478798
0.477887
0.476957
0.476009
0.475042
0.474056
0.473052
0.472028
0.470986
0.469925
0.468845
0.467746
0.466628
0.465491
0.464335
0.463161
0.461967
0.460755
0.459524
0.458274
0.457006
0.455719
0.454414
0.45309
0.451749
0.450389
0.449011
0.447616
0.446203
0.444773
0.443326
0.441862
0.440381
0.438883
0.43737
0.43584
0.434295
0.432734
0.431158
0.429567
0.427962
0.426342
0.424709
0.423062
0.421402
0.419729
0.418044
0.416346
0.414451
0.41237
0.410301
0.408245
0.406202
0.404172
0.402156
0.400155
0.398168
0.396197
0.394242
0.392303
0.390381
0.388475
0.386588
0.384717
0.382865
0.381031
0.379216
0.377419
0.375641
0.373883
0.372144
0.370424
0.368725
0.367045
0.365385
0.363746
0.362127
0.360529
0.358951
0.357395
0.355859
0.354344
0.35285
0.351377
0.349926
0.348496
0.347088
0.345701
0.344336
0.342993
0.341671
0.340372
0.339094
0.337839
0.336606
0.335394
0.334206
0.333039
0.331895
0.330774
0.329675
0.328599
0.327546
0.326516
0.325509
0.324525
0.323564
0.322626
0.321711
0.32082
0.319953
0.319109
0.318289
0.317493
0.31672
0.315972
0.315248
0.314547
0.313871
0.31322
0.312593
0.31199
0.311413
0.310859
0.310331
0.309828
0.309349
0.308896
0.308468
0.308064
0.307687
0.307334
0.307007
0.306705
0.306429
0.306178
0.305953
0.305754
0.30558
0.305433
0.305308
0.305222
0.305111
)
;
    }
    bottomWall
    {
        type            calculated;
        value           nonuniform List<scalar> 
449
(
0.139808
0.0891748
0.0760084
0.0696501
0.0655087
0.0624544
0.0600621
0.0581285
0.0565295
0.0551814
0.0540266
0.0530246
0.0521458
0.051368
0.0506742
0.050051
0.049488
0.0489765
0.0485097
0.0480819
0.0476882
0.0473248
0.0469882
0.0466755
0.0463842
0.0461122
0.0458577
0.0456189
0.0453945
0.0451833
0.044984
0.0447957
0.0446176
0.0444488
0.0442886
0.0441365
0.0439917
0.0438538
0.0437224
0.0435969
0.0434771
0.0433624
0.0432527
0.0431476
0.0430468
0.0429501
0.0428572
0.0427679
0.0426821
0.0425995
0.0425199
0.0424433
0.0423694
0.0422981
0.0422292
0.0421628
0.0420985
0.0420364
0.0419763
0.0419182
0.0418619
0.0418074
0.0417546
0.0417033
0.0416537
0.0416055
0.0415587
0.0415132
0.0414691
0.0414262
0.0413846
0.041344
0.0413046
0.0412663
0.0412289
0.0411926
0.0411572
0.0411227
0.0410891
0.0410564
0.0410244
0.0409933
0.0409629
0.0409333
0.0409044
0.0408761
0.0408486
0.0408217
0.0407954
0.0407697
0.0407445
0.04072
0.040696
0.0406725
0.0406496
0.0406271
0.0406051
0.0405836
0.0405626
0.040542
0.0405218
0.040502
0.0404827
0.0404637
0.0404451
0.0404269
0.040409
0.0403915
0.0403744
0.0403575
0.040341
0.0403248
0.040309
0.0402934
0.0402781
0.0402631
0.0402483
0.0402338
0.0402196
0.0402057
0.040192
0.0401785
0.0401653
0.0401523
0.0401395
0.040127
0.0401146
0.0401025
0.0400906
0.0400789
0.0400673
0.040056
0.0400449
0.0400339
0.0400231
0.0400125
0.040002
0.0399918
0.0399816
0.0399717
0.0399619
0.0399522
0.0399427
0.0399334
0.0399242
0.0399151
0.0399062
0.0398974
0.0398887
0.0398801
0.0398717
0.0398634
0.0398553
0.0398472
0.0398393
0.0398314
0.0398237
0.0398161
0.0398086
0.0398012
0.0397939
0.0397867
0.0397797
0.0397727
0.0397658
0.039759
0.0397523
0.0397457
0.0397392
0.0397328
0.0397265
0.0397205
0.0397143
0.0397084
0.039703
0.0396982
0.0396935
0.0396887
0.0396839
0.0396791
0.0396742
0.0396692
0.0396641
0.0396589
0.0396537
0.0396485
0.0396432
0.0396378
0.0396324
0.039627
0.0396215
0.039616
0.0396105
0.0396049
0.0395993
0.0395937
0.0395881
0.0395825
0.0395768
0.0395711
0.0395655
0.0395598
0.0395541
0.0395484
0.0395427
0.039537
0.0395313
0.0395255
0.0395198
0.0395141
0.0395084
0.0395027
0.0394971
0.0394914
0.0394857
0.0394801
0.0394744
0.0394688
0.0394632
0.0394576
0.039452
0.0394464
0.0394408
0.0394353
0.0394298
0.0394242
0.0394188
0.0394133
0.0394078
0.0394024
0.039397
0.0393916
0.0393863
0.039381
0.0393756
0.0393704
0.0393651
0.0393599
0.0393547
0.0393495
0.0393443
0.0393392
0.0393341
0.0393291
0.039324
0.039319
0.039314
0.0393091
0.0393042
0.0392993
0.0392944
0.0392896
0.0392848
0.03928
0.0392753
0.0392706
0.0392659
0.0392613
0.0392567
0.0392521
0.0392476
0.039243
0.0392386
0.0392341
0.0392297
0.0392253
0.039221
0.0392167
0.0392124
0.0392082
0.039204
0.0391998
0.0391957
0.0391916
0.0391875
0.0391834
0.0391794
0.0391755
0.0391715
0.0391676
0.0391638
0.0391599
0.0391561
0.0391524
0.0391486
0.0391449
0.0391413
0.0391376
0.039134
0.0391305
0.0391269
0.0391234
0.03912
0.0391165
0.0391131
0.0391098
0.0391064
0.0391031
0.0390998
0.0390966
0.0390934
0.0390902
0.0390871
0.039084
0.0390809
0.0390778
0.0390748
0.0390718
0.0390689
0.039066
0.0390631
0.0390602
0.0390574
0.0390546
0.0390518
0.039049
0.0390463
0.0390436
0.039041
0.0390384
0.0390358
0.0390332
0.0390307
0.0390281
0.0390257
0.0390232
0.0390208
0.0390184
0.039016
0.0390136
0.0390113
0.039009
0.0390068
0.0390045
0.0390023
0.0390001
0.0389979
0.0389958
0.0389937
0.0389916
0.0389895
0.0389875
0.0389855
0.0389835
0.0389815
0.0389795
0.0389776
0.0389757
0.0389738
0.038972
0.0389701
0.0389683
0.0389664
0.0389648
0.0389619
0.0389588
0.0389559
0.0389533
0.038951
0.0389489
0.038947
0.0389452
0.0389435
0.0389419
0.0389404
0.038939
0.0389376
0.0389364
0.0389351
0.038934
0.0389328
0.0389317
0.0389307
0.0389297
0.0389288
0.0389278
0.0389269
0.0389261
0.0389253
0.0389245
0.0389237
0.0389229
0.0389222
0.0389215
0.0389208
0.0389202
0.0389196
0.0389189
0.0389183
0.0389178
0.0389172
0.0389167
0.0389161
0.0389156
0.0389151
0.0389146
0.0389142
0.0389137
0.0389132
0.0389128
0.0389124
0.038912
0.0389116
0.0389112
0.0389108
0.0389104
0.0389101
0.0389097
0.0389094
0.038909
0.0389087
0.0389084
0.0389081
0.0389078
0.0389075
0.0389072
0.0389069
0.0389066
0.0389063
0.0389061
0.0389058
0.0389056
0.0389053
0.0389051
0.0389048
0.0389046
0.0389044
0.0389042
0.0389039
0.0389037
0.0389035
0.0389033
0.0389031
0.0389029
0.0389027
0.0389025
0.0389023
0.0389022
0.038902
0.0389018
0.0389016
0.0389015
0.0389013
0.0389011
0.0389009
0.0389008
0.0389003
0.0389012
0.0389002
)
;
    }
    symmetry
    {
        type            symmetryPlane;
    }
    frontAndBack
    {
        type            empty;
    }
}


// ************************************************************************* //
