/*--------------------------------*- C++ -*----------------------------------*\
| =========                 |                                                 |
| \\      /  F ield         | OpenFOAM: The Open Source CFD Toolbox           |
|  \\    /   O peration     | Version:  v2012                                 |
|   \\  /    A nd           | Website:  www.openfoam.com                      |
|    \\/     M anipulation  |                                                 |
\*---------------------------------------------------------------------------*/
FoamFile
{
    version     2.0;
    format      ascii;
    class       volScalarField;
    location    "53.5";
    object      epsilon;
}
// * * * * * * * * * * * * * * * * * * * * * * * * * * * * * * * * * * * * * //

dimensions      [0 2 -3 0 0 0 0];


internalField   nonuniform List<scalar> 
209825
(
0.759743
0.63385
0.542382
0.477026
0.430084
0.395759
0.370013
0.35026
0.334727
0.322308
0.312165
0.303795
0.296753
0.290803
0.285674
0.281264
0.277386
0.274008
0.270988
0.268332
0.265921
0.263787
0.261824
0.260079
0.258454
0.257007
0.255644
0.25443
0.253272
0.252245
0.251253
0.250376
0.249518
0.248766
0.248021
0.247371
0.24672
0.246158
0.245586
0.245096
0.244591
0.244163
0.243717
0.243345
0.242951
0.242622
0.242272
0.241987
0.241677
0.241418
0.241151
0.240923
0.240684
0.24048
0.240263
0.240101
0.239903
0.23975
0.23959
0.239444
0.239307
0.239186
0.239072
0.238966
0.238869
0.238785
0.238689
0.238637
0.238562
0.238522
0.238454
0.23842
0.238366
0.238343
0.2383
0.238285
0.238253
0.238254
0.238245
0.238262
0.23826
0.2383
0.2383
0.238358
0.23837
0.238441
0.238469
0.23856
0.238599
0.238722
0.238767
0.238952
0.239026
0.241866
3.09798
561.585
0.759743
0.63385
0.542381
0.477024
0.43008
0.395754
0.370006
0.350252
0.334718
0.322298
0.312154
0.303784
0.296741
0.290791
0.285661
0.281251
0.277373
0.273995
0.270974
0.268318
0.265907
0.263773
0.261809
0.260064
0.258439
0.256992
0.255629
0.254414
0.253257
0.25223
0.251238
0.25036
0.249503
0.24875
0.248005
0.247355
0.246704
0.246142
0.24557
0.24508
0.244575
0.244147
0.243701
0.243329
0.242935
0.242606
0.242256
0.24197
0.241661
0.241402
0.241134
0.240906
0.240667
0.240463
0.240247
0.240084
0.239887
0.239734
0.239573
0.239427
0.23929
0.23917
0.239055
0.23895
0.238853
0.238769
0.238673
0.23862
0.238545
0.238505
0.238437
0.238404
0.238349
0.238326
0.238283
0.238269
0.238236
0.238237
0.238228
0.238245
0.238243
0.238283
0.238283
0.238341
0.238353
0.238424
0.238452
0.238542
0.238582
0.238705
0.23875
0.238935
0.239009
0.241853
3.10408
558.293
0.759743
0.633851
0.542378
0.477013
0.430062
0.395729
0.369975
0.350216
0.334678
0.322255
0.312108
0.303735
0.29669
0.290738
0.285607
0.281195
0.277316
0.273937
0.270916
0.268258
0.265847
0.263712
0.261748
0.260002
0.258377
0.25693
0.255565
0.254351
0.253193
0.252166
0.251173
0.250295
0.249438
0.248685
0.24794
0.247289
0.246638
0.246076
0.245503
0.245014
0.244509
0.24408
0.243634
0.243262
0.242867
0.242538
0.242188
0.241903
0.241593
0.241334
0.241066
0.240838
0.240599
0.240395
0.240178
0.240015
0.239818
0.239665
0.239504
0.239358
0.239221
0.239101
0.238986
0.23888
0.238783
0.238699
0.238603
0.23855
0.238475
0.238435
0.238367
0.238334
0.238279
0.238256
0.238213
0.238198
0.238166
0.238167
0.238158
0.238174
0.238173
0.238212
0.238212
0.238269
0.238282
0.238353
0.23838
0.238471
0.238511
0.238633
0.238678
0.238863
0.238937
0.24179
3.11804
554.541
0.759745
0.633852
0.542372
0.476995
0.430031
0.395686
0.369922
0.350155
0.334611
0.322181
0.31203
0.303653
0.296604
0.29065
0.285516
0.281102
0.277221
0.27384
0.270817
0.268158
0.265745
0.26361
0.261645
0.259898
0.258272
0.256824
0.255459
0.254244
0.253085
0.252057
0.251064
0.250186
0.249328
0.248575
0.247829
0.247178
0.246527
0.245964
0.245391
0.244901
0.244396
0.243967
0.24352
0.243148
0.242753
0.242424
0.242074
0.241788
0.241478
0.241219
0.240951
0.240723
0.240484
0.240279
0.240062
0.239899
0.239702
0.239549
0.239388
0.239241
0.239105
0.238984
0.238869
0.238763
0.238666
0.238582
0.238486
0.238433
0.238358
0.238318
0.238249
0.238215
0.238161
0.238137
0.238094
0.23808
0.238047
0.238048
0.238038
0.238055
0.238053
0.238092
0.238092
0.238149
0.238161
0.238232
0.23826
0.23835
0.23839
0.238512
0.238557
0.238741
0.238815
0.241682
3.14015
551.089
0.759747
0.633855
0.542363
0.47697
0.429988
0.395626
0.369848
0.350069
0.334515
0.322078
0.311919
0.303537
0.296483
0.290524
0.285387
0.28097
0.277086
0.273703
0.270678
0.268017
0.265602
0.263465
0.261499
0.259751
0.258123
0.256674
0.255308
0.254092
0.252933
0.251904
0.25091
0.250031
0.249172
0.248419
0.247673
0.247021
0.246369
0.245806
0.245233
0.244742
0.244236
0.243807
0.24336
0.242988
0.242593
0.242263
0.241913
0.241626
0.241316
0.241057
0.240788
0.24056
0.24032
0.240116
0.239898
0.239736
0.239538
0.239384
0.239223
0.239077
0.23894
0.238819
0.238703
0.238598
0.2385
0.238416
0.23832
0.238266
0.238191
0.238151
0.238082
0.238049
0.237994
0.23797
0.237927
0.237912
0.237879
0.23788
0.23787
0.237886
0.237884
0.237923
0.237923
0.23798
0.237991
0.238062
0.238089
0.238179
0.238219
0.238341
0.238385
0.23857
0.238643
0.241529
3.17092
548.284
0.75975
0.633857
0.542352
0.476937
0.429931
0.395548
0.369752
0.349958
0.334391
0.321943
0.311776
0.303386
0.296326
0.290362
0.28522
0.280799
0.276911
0.273525
0.270497
0.267834
0.265417
0.263278
0.261309
0.25956
0.257931
0.25648
0.255113
0.253896
0.252735
0.251705
0.250711
0.249831
0.248971
0.248217
0.24747
0.246817
0.246165
0.245601
0.245027
0.244536
0.24403
0.2436
0.243153
0.24278
0.242384
0.242054
0.241703
0.241416
0.241106
0.240846
0.240577
0.240349
0.240109
0.239904
0.239686
0.239523
0.239325
0.239171
0.23901
0.238863
0.238726
0.238605
0.238489
0.238383
0.238285
0.238201
0.238104
0.238051
0.237975
0.237935
0.237866
0.237832
0.237777
0.237753
0.23771
0.237695
0.237662
0.237662
0.237652
0.237667
0.237665
0.237703
0.237703
0.23776
0.237771
0.237841
0.237868
0.237958
0.237997
0.238119
0.238163
0.238347
0.23842
0.241331
3.21086
546.294
0.759753
0.633861
0.542339
0.476896
0.429862
0.395453
0.369634
0.349821
0.334238
0.321778
0.311599
0.3032
0.296133
0.290162
0.285014
0.280588
0.276696
0.273306
0.270274
0.267608
0.265188
0.263047
0.261076
0.259324
0.257693
0.256241
0.254872
0.253654
0.252492
0.251461
0.250465
0.249584
0.248723
0.247968
0.24722
0.246566
0.245913
0.245349
0.244774
0.244282
0.243775
0.243345
0.242897
0.242523
0.242127
0.241797
0.241445
0.241158
0.240847
0.240587
0.240318
0.240088
0.239848
0.239643
0.239425
0.239261
0.239063
0.238909
0.238747
0.2386
0.238462
0.238341
0.238225
0.238119
0.23802
0.237936
0.237839
0.237785
0.237709
0.237669
0.237599
0.237565
0.23751
0.237486
0.237442
0.237427
0.237394
0.237393
0.237383
0.237398
0.237395
0.237433
0.237433
0.237489
0.2375
0.237569
0.237596
0.237685
0.237724
0.237845
0.237889
0.238072
0.238146
0.241086
3.2605
545.184
0.759757
0.633865
0.542323
0.476849
0.42978
0.395339
0.369493
0.349658
0.334057
0.32158
0.311389
0.302979
0.295902
0.289923
0.284769
0.280337
0.276439
0.273045
0.270009
0.267339
0.264916
0.262771
0.260798
0.259044
0.257411
0.255956
0.254586
0.253365
0.252202
0.251169
0.250172
0.249289
0.248427
0.247671
0.246922
0.246268
0.245613
0.245048
0.244472
0.24398
0.243472
0.243041
0.242592
0.242218
0.241821
0.24149
0.241138
0.24085
0.240538
0.240278
0.240008
0.239778
0.239537
0.239332
0.239113
0.238949
0.238751
0.238596
0.238434
0.238287
0.238148
0.238026
0.23791
0.237804
0.237705
0.23762
0.237523
0.237469
0.237392
0.237351
0.237282
0.237247
0.237192
0.237167
0.237123
0.237108
0.237075
0.237074
0.237062
0.237076
0.237074
0.23711
0.23711
0.237166
0.237176
0.237245
0.237271
0.23736
0.237399
0.237519
0.237562
0.237745
0.237818
0.240796
3.32035
544.95
0.759761
0.63387
0.542305
0.476793
0.429684
0.395207
0.36933
0.349468
0.333845
0.321351
0.311145
0.302722
0.295634
0.289646
0.284484
0.280044
0.276141
0.272741
0.2697
0.267026
0.264599
0.262451
0.260475
0.258718
0.257082
0.255625
0.254252
0.25303
0.251864
0.25083
0.249831
0.248947
0.248084
0.247326
0.246575
0.24592
0.245265
0.244698
0.244121
0.243628
0.243119
0.242687
0.242237
0.241862
0.241465
0.241133
0.24078
0.240492
0.240179
0.239918
0.239648
0.239418
0.239176
0.23897
0.238751
0.238586
0.238387
0.238232
0.23807
0.237922
0.237783
0.237661
0.237544
0.237437
0.237338
0.237253
0.237155
0.2371
0.237024
0.236982
0.236912
0.236878
0.236822
0.236797
0.236753
0.236737
0.236704
0.236702
0.236689
0.236703
0.2367
0.236735
0.236735
0.23679
0.2368
0.236869
0.236894
0.236982
0.23702
0.23714
0.237183
0.237365
0.237438
0.240458
3.39091
545.533
0.759766
0.633876
0.542285
0.47673
0.429576
0.395057
0.369144
0.349252
0.333605
0.32109
0.310866
0.302429
0.295329
0.28933
0.284158
0.279711
0.275801
0.272394
0.269348
0.266669
0.264238
0.262086
0.260106
0.258345
0.256706
0.255247
0.253872
0.252647
0.251479
0.250443
0.249442
0.248556
0.247691
0.246932
0.24618
0.245523
0.244866
0.244298
0.243721
0.243226
0.242716
0.242283
0.241833
0.241457
0.241058
0.240726
0.240372
0.240083
0.239769
0.239508
0.239236
0.239006
0.238763
0.238557
0.238337
0.238172
0.237972
0.237817
0.237654
0.237506
0.237366
0.237243
0.237126
0.237019
0.236919
0.236833
0.236735
0.23668
0.236603
0.236561
0.23649
0.236456
0.236399
0.236374
0.236329
0.236313
0.23628
0.236277
0.236263
0.236276
0.236273
0.236307
0.236307
0.236361
0.23637
0.236438
0.236463
0.236551
0.236588
0.236707
0.236749
0.23693
0.237003
0.240074
3.47265
546.85
0.759772
0.633882
0.542262
0.47666
0.429454
0.394888
0.368935
0.34901
0.333334
0.320796
0.310553
0.302099
0.294985
0.288974
0.283792
0.279336
0.275417
0.272004
0.268952
0.266267
0.263831
0.261674
0.25969
0.257926
0.256284
0.254821
0.253443
0.252215
0.251045
0.250007
0.249003
0.248116
0.247249
0.246488
0.245734
0.245076
0.244418
0.243848
0.243269
0.242774
0.242262
0.241829
0.241377
0.241
0.2406
0.240267
0.239912
0.239622
0.239308
0.239045
0.238773
0.238542
0.238299
0.238092
0.237871
0.237705
0.237505
0.237349
0.237185
0.237037
0.236896
0.236773
0.236655
0.236548
0.236447
0.236361
0.236262
0.236206
0.236129
0.236086
0.236015
0.23598
0.235923
0.235898
0.235852
0.235836
0.235802
0.235798
0.235784
0.235796
0.235792
0.235825
0.235825
0.235878
0.235886
0.235954
0.235978
0.236065
0.236101
0.236219
0.236261
0.236441
0.236514
0.239642
3.56601
548.784
0.759778
0.63389
0.542237
0.476582
0.429319
0.394701
0.368703
0.34874
0.333033
0.320469
0.310204
0.301731
0.294602
0.288578
0.283384
0.278918
0.274991
0.271569
0.26851
0.26582
0.263378
0.261216
0.259227
0.257459
0.255813
0.254347
0.252966
0.251735
0.250562
0.249521
0.248516
0.247626
0.246757
0.245994
0.245238
0.244578
0.243918
0.243348
0.242767
0.24227
0.241757
0.241322
0.240869
0.240491
0.24009
0.239756
0.2394
0.239109
0.238794
0.238531
0.238257
0.238025
0.237781
0.237574
0.237352
0.237186
0.236985
0.236828
0.236663
0.236515
0.236373
0.23625
0.236131
0.236023
0.235921
0.235835
0.235735
0.235679
0.235601
0.235558
0.235487
0.235451
0.235393
0.235367
0.235321
0.235304
0.23527
0.235266
0.23525
0.235261
0.235257
0.235288
0.235288
0.23534
0.235348
0.235415
0.235438
0.235524
0.23556
0.235676
0.235717
0.235897
0.23597
0.239162
3.67135
551.208
0.759785
0.633898
0.54221
0.476496
0.429171
0.394495
0.368447
0.348443
0.332702
0.320108
0.30982
0.301327
0.29418
0.288141
0.282935
0.278457
0.27452
0.27109
0.268024
0.265326
0.262878
0.260711
0.258717
0.256945
0.255294
0.253824
0.252439
0.251206
0.25003
0.248986
0.247977
0.247085
0.246214
0.245449
0.244691
0.244029
0.243367
0.242795
0.242213
0.241714
0.2412
0.240764
0.240309
0.23993
0.239528
0.239192
0.238835
0.238543
0.238227
0.237963
0.237689
0.237456
0.237211
0.237003
0.23678
0.236613
0.236411
0.236253
0.236088
0.235939
0.235797
0.235672
0.235552
0.235444
0.235342
0.235255
0.235155
0.235098
0.235018
0.234975
0.234903
0.234867
0.234809
0.234782
0.234736
0.234718
0.234683
0.234678
0.234661
0.234672
0.234666
0.234696
0.234696
0.234746
0.234754
0.23482
0.234842
0.234927
0.234962
0.235078
0.235118
0.235296
0.235369
0.238633
3.78899
553.986
0.759792
0.633907
0.54218
0.476403
0.42901
0.394271
0.368169
0.348119
0.33234
0.319715
0.3094
0.300885
0.293719
0.287663
0.282443
0.277953
0.274006
0.270566
0.267491
0.264786
0.262331
0.260158
0.258159
0.256381
0.254726
0.253252
0.251863
0.250626
0.249447
0.2484
0.247389
0.246494
0.24562
0.244852
0.244093
0.243428
0.242765
0.24219
0.241606
0.241106
0.24059
0.240152
0.239696
0.239316
0.238912
0.238576
0.238217
0.237924
0.237607
0.237342
0.237066
0.236832
0.236586
0.236377
0.236153
0.235985
0.235783
0.235624
0.235458
0.235308
0.235165
0.23504
0.23492
0.234811
0.234707
0.234621
0.234519
0.234461
0.234381
0.234337
0.234265
0.234228
0.234169
0.234142
0.234095
0.234077
0.234041
0.234035
0.234017
0.234026
0.23402
0.234049
0.234048
0.234097
0.234104
0.234168
0.23419
0.234274
0.234308
0.234422
0.234461
0.234639
0.234712
0.238056
3.91913
556.982
0.7598
0.633917
0.542149
0.476303
0.428836
0.394028
0.367867
0.347767
0.331947
0.319287
0.308943
0.300404
0.293218
0.287144
0.281909
0.277406
0.273447
0.269997
0.266913
0.264199
0.261737
0.259557
0.257552
0.255769
0.254109
0.25263
0.251237
0.249996
0.248813
0.247763
0.246748
0.245851
0.244974
0.244204
0.243442
0.242775
0.242109
0.241533
0.240947
0.240445
0.239927
0.239488
0.23903
0.238648
0.238243
0.237905
0.237545
0.237251
0.236932
0.236666
0.236389
0.236155
0.235907
0.235698
0.235472
0.235303
0.2351
0.234941
0.234774
0.234623
0.234479
0.234353
0.234231
0.234122
0.234018
0.23393
0.233828
0.23377
0.233688
0.233644
0.233571
0.233533
0.233474
0.233446
0.233398
0.233379
0.233343
0.233336
0.233317
0.233325
0.233318
0.233345
0.233343
0.233391
0.233397
0.233461
0.233481
0.233564
0.233597
0.23371
0.233748
0.233924
0.233998
0.23743
4.06188
560.067
0.759808
0.633927
0.542115
0.476196
0.428648
0.393766
0.367542
0.347388
0.331523
0.318826
0.308451
0.299885
0.292677
0.286584
0.281332
0.276814
0.272843
0.269381
0.266287
0.263565
0.261095
0.258908
0.256896
0.255107
0.253442
0.251958
0.250561
0.249315
0.248128
0.247074
0.246057
0.245156
0.244276
0.243503
0.242738
0.242069
0.241401
0.240822
0.240234
0.23973
0.239211
0.23877
0.23831
0.237926
0.23752
0.23718
0.236819
0.236523
0.236203
0.235936
0.235658
0.235422
0.235173
0.234963
0.234736
0.234566
0.234362
0.234202
0.234034
0.233882
0.233737
0.233611
0.233488
0.233378
0.233272
0.233184
0.233081
0.233022
0.23294
0.232894
0.23282
0.232782
0.232722
0.232694
0.232645
0.232625
0.232589
0.232581
0.23256
0.232566
0.232558
0.232583
0.232582
0.232628
0.232633
0.232695
0.232715
0.232796
0.232829
0.23294
0.232977
0.233152
0.233226
0.236753
4.21719
563.117
0.759817
0.633939
0.54208
0.476082
0.428448
0.393486
0.367193
0.346981
0.331068
0.318331
0.307922
0.299328
0.292095
0.285982
0.280712
0.276178
0.272193
0.26872
0.265615
0.262883
0.260405
0.25821
0.256191
0.254395
0.252724
0.251235
0.249833
0.248583
0.247392
0.246334
0.245312
0.244408
0.243525
0.242749
0.241982
0.24131
0.240639
0.240058
0.239468
0.238962
0.23844
0.237997
0.237536
0.23715
0.236742
0.236401
0.236038
0.23574
0.235419
0.23515
0.234871
0.234634
0.234384
0.234172
0.233945
0.233773
0.233568
0.233407
0.233238
0.233086
0.232939
0.232812
0.232688
0.232577
0.23247
0.232382
0.232277
0.232217
0.232134
0.232088
0.232013
0.231974
0.231913
0.231884
0.231835
0.231815
0.231777
0.231768
0.231746
0.231751
0.231742
0.231765
0.231763
0.231808
0.231811
0.231873
0.231891
0.231971
0.232002
0.232112
0.232148
0.232321
0.232396
0.236027
4.38485
566.021
0.759827
0.633951
0.542042
0.475961
0.428235
0.393188
0.366821
0.346547
0.330582
0.317802
0.307357
0.298732
0.291473
0.285337
0.280048
0.275498
0.271498
0.268012
0.264896
0.262153
0.259666
0.257462
0.255436
0.253634
0.251956
0.250461
0.249054
0.247799
0.246603
0.245541
0.244516
0.243608
0.242721
0.241942
0.241171
0.240497
0.239823
0.23924
0.238647
0.238139
0.237615
0.23717
0.236706
0.236319
0.235909
0.235566
0.235201
0.234902
0.23458
0.234309
0.234028
0.23379
0.233539
0.233326
0.233097
0.232924
0.232718
0.232556
0.232385
0.232232
0.232085
0.231957
0.231831
0.23172
0.231612
0.231523
0.231417
0.231356
0.231272
0.231225
0.231149
0.231109
0.231048
0.231018
0.230967
0.230946
0.230908
0.230898
0.230874
0.230878
0.230867
0.230889
0.230886
0.230929
0.230932
0.230991
0.231009
0.231087
0.231117
0.231226
0.23126
0.231432
0.231507
0.235249
4.56447
568.68
0.759837
0.633965
0.542003
0.475832
0.42801
0.392871
0.366426
0.346086
0.330065
0.317239
0.306755
0.298097
0.290811
0.284651
0.279341
0.274773
0.270757
0.267257
0.264128
0.261375
0.258878
0.256665
0.254631
0.252821
0.251137
0.249636
0.248223
0.246962
0.245762
0.244695
0.243666
0.242754
0.241864
0.241081
0.240307
0.23963
0.238953
0.238367
0.237772
0.237261
0.236735
0.236287
0.235822
0.235432
0.23502
0.234676
0.234309
0.234008
0.233684
0.233412
0.233129
0.23289
0.232637
0.232424
0.232193
0.232019
0.231812
0.231648
0.231476
0.231323
0.231173
0.231044
0.230918
0.230806
0.230696
0.230606
0.230499
0.230437
0.230352
0.230304
0.230227
0.230187
0.230124
0.230094
0.230042
0.23002
0.229981
0.22997
0.229944
0.229947
0.229935
0.229954
0.229951
0.229991
0.229994
0.230052
0.230068
0.230145
0.230174
0.23028
0.230313
0.230484
0.230559
0.23442
4.75541
571.006
0.759847
0.633979
0.541963
0.475698
0.427771
0.392537
0.366007
0.345596
0.329517
0.316641
0.306116
0.297423
0.290107
0.283922
0.27859
0.274003
0.26997
0.266455
0.263313
0.260548
0.25804
0.255818
0.253776
0.251958
0.250267
0.248759
0.24734
0.246074
0.244868
0.243797
0.242763
0.241847
0.240953
0.240167
0.239389
0.238709
0.238029
0.23744
0.236841
0.236328
0.235799
0.23535
0.234882
0.23449
0.234076
0.233729
0.233361
0.233058
0.232732
0.232459
0.232174
0.231933
0.231679
0.231464
0.231232
0.231057
0.230848
0.230683
0.23051
0.230355
0.230205
0.230075
0.229947
0.229834
0.229722
0.229632
0.229524
0.229461
0.229374
0.229326
0.229248
0.229206
0.229143
0.229111
0.229058
0.229036
0.228995
0.228983
0.228957
0.228957
0.228944
0.228961
0.228957
0.228995
0.228997
0.229053
0.229068
0.229143
0.229171
0.229275
0.229307
0.229476
0.229552
0.233539
4.95679
572.925
0.759858
0.633995
0.541921
0.475557
0.427521
0.392184
0.365566
0.34508
0.328938
0.31601
0.305441
0.296711
0.289363
0.28315
0.277795
0.273187
0.269137
0.265606
0.26245
0.259673
0.257154
0.254922
0.25287
0.251044
0.249345
0.24783
0.246404
0.245133
0.243922
0.242845
0.241806
0.240886
0.239988
0.239198
0.238416
0.237732
0.237049
0.236457
0.235856
0.23534
0.234808
0.234356
0.233886
0.233492
0.233075
0.232727
0.232356
0.232052
0.231724
0.231449
0.231162
0.23092
0.230664
0.230448
0.230214
0.230037
0.229827
0.229661
0.229486
0.229331
0.229178
0.229048
0.228918
0.228804
0.228691
0.2286
0.22849
0.228426
0.228338
0.228289
0.22821
0.228168
0.228103
0.22807
0.228017
0.227993
0.227951
0.227938
0.22791
0.227909
0.227894
0.227909
0.227904
0.22794
0.22794
0.227995
0.228008
0.228082
0.228108
0.228211
0.228241
0.228408
0.228485
0.232605
5.16746
574.373
0.759869
0.634011
0.541877
0.475409
0.427259
0.391813
0.365101
0.344536
0.328328
0.315344
0.304728
0.295959
0.288577
0.282336
0.276956
0.272326
0.268257
0.26471
0.261539
0.258748
0.256217
0.253974
0.251913
0.250078
0.248371
0.246849
0.245417
0.244138
0.242922
0.24184
0.240796
0.239871
0.238968
0.238174
0.237389
0.236701
0.236015
0.235419
0.234815
0.234296
0.233762
0.233307
0.232834
0.232437
0.232019
0.231668
0.231295
0.230989
0.230659
0.230382
0.230093
0.22985
0.229591
0.229374
0.229138
0.22896
0.228749
0.228581
0.228405
0.228248
0.228094
0.227963
0.227831
0.227717
0.227602
0.22751
0.227399
0.227333
0.227244
0.227193
0.227113
0.22707
0.227004
0.226971
0.226916
0.226891
0.226848
0.226834
0.226805
0.226802
0.226785
0.226798
0.226792
0.226825
0.226825
0.226877
0.226889
0.226961
0.226986
0.227086
0.227115
0.227281
0.227359
0.231617
5.38594
575.296
0.759881
0.634029
0.541832
0.475256
0.426984
0.391426
0.364615
0.343965
0.327687
0.314644
0.30398
0.295168
0.287751
0.281479
0.276073
0.27142
0.267331
0.263766
0.26058
0.257775
0.255231
0.252977
0.250905
0.249061
0.247346
0.245816
0.244376
0.243091
0.241868
0.240781
0.239732
0.238802
0.237894
0.237096
0.236307
0.235615
0.234925
0.234326
0.233718
0.233196
0.232659
0.232202
0.231726
0.231327
0.230905
0.230553
0.230177
0.229869
0.229537
0.229258
0.228967
0.228722
0.228462
0.228243
0.228005
0.227825
0.227613
0.227443
0.227266
0.227108
0.226952
0.226819
0.226686
0.226571
0.226454
0.226362
0.226249
0.226182
0.226091
0.22604
0.225958
0.225914
0.225847
0.225813
0.225756
0.225731
0.225686
0.225671
0.22564
0.225636
0.225617
0.225628
0.22562
0.22565
0.22565
0.2257
0.22571
0.22578
0.225803
0.225902
0.225929
0.226093
0.226172
0.230574
5.6104
575.645
0.759893
0.634047
0.541786
0.475097
0.426699
0.391021
0.364105
0.343368
0.327016
0.313911
0.303194
0.294339
0.286884
0.28058
0.275146
0.270469
0.266359
0.262775
0.259572
0.256752
0.254195
0.251929
0.249847
0.247993
0.246268
0.24473
0.243283
0.241991
0.240762
0.239668
0.238613
0.237678
0.236766
0.235963
0.235169
0.234474
0.233779
0.233177
0.232566
0.23204
0.2315
0.23104
0.230561
0.230159
0.229735
0.22938
0.229003
0.228692
0.228357
0.228077
0.227784
0.227537
0.227274
0.227054
0.226814
0.226633
0.226419
0.226248
0.226068
0.22591
0.225752
0.225618
0.225483
0.225366
0.225248
0.225155
0.22504
0.224972
0.224879
0.224827
0.224744
0.224699
0.224631
0.224595
0.224538
0.224511
0.224465
0.224449
0.224416
0.22441
0.224389
0.224398
0.224389
0.224416
0.224415
0.224463
0.224471
0.224539
0.224561
0.224657
0.224683
0.224844
0.224925
0.229476
5.83867
575.381
0.759905
0.634067
0.54174
0.474932
0.426402
0.390599
0.363574
0.342744
0.326314
0.313144
0.302372
0.29347
0.285976
0.279638
0.274175
0.269473
0.26534
0.261736
0.258516
0.255681
0.25311
0.250831
0.248737
0.246873
0.245139
0.243592
0.242137
0.240838
0.239601
0.238501
0.237441
0.2365
0.235583
0.234775
0.233977
0.233277
0.232578
0.231972
0.231357
0.230829
0.230285
0.229822
0.22934
0.228935
0.228509
0.228151
0.227771
0.227458
0.227121
0.226838
0.226543
0.226294
0.226029
0.225808
0.225566
0.225382
0.225167
0.224994
0.224813
0.224653
0.224493
0.224358
0.224221
0.224104
0.223983
0.223889
0.223773
0.223703
0.223609
0.223555
0.223471
0.223425
0.223355
0.223319
0.22326
0.223232
0.223185
0.223167
0.223133
0.223125
0.223102
0.223109
0.223098
0.223122
0.22312
0.223165
0.223172
0.223238
0.223258
0.223352
0.223376
0.223536
0.223617
0.22832
6.0682
574.459
0.759917
0.634088
0.541692
0.474762
0.426094
0.39016
0.363021
0.342094
0.325582
0.312343
0.301514
0.292563
0.285028
0.278654
0.27316
0.268431
0.264275
0.26065
0.257412
0.25456
0.251975
0.249682
0.247577
0.245701
0.243958
0.242402
0.240938
0.239631
0.238388
0.237281
0.236214
0.235268
0.234345
0.233532
0.232729
0.232025
0.231322
0.230712
0.230093
0.229561
0.229014
0.228547
0.228062
0.227655
0.227225
0.226865
0.226482
0.226166
0.225827
0.225542
0.225245
0.224994
0.224727
0.224504
0.224259
0.224074
0.223857
0.223682
0.223499
0.223338
0.223177
0.22304
0.222901
0.222782
0.22266
0.222565
0.222447
0.222376
0.22228
0.222225
0.222139
0.222092
0.222021
0.221983
0.221923
0.221894
0.221845
0.221826
0.22179
0.221781
0.221756
0.22176
0.221747
0.221769
0.221765
0.221808
0.221814
0.221877
0.221895
0.221986
0.222009
0.222166
0.22225
0.227107
6.29605
572.821
0.75993
0.634109
0.541643
0.474587
0.425776
0.389706
0.362447
0.341418
0.324821
0.31151
0.30062
0.291618
0.284039
0.277628
0.272102
0.267344
0.263164
0.259517
0.25626
0.25339
0.25079
0.248483
0.246365
0.244478
0.242724
0.241159
0.239686
0.238371
0.23712
0.236007
0.234933
0.233981
0.233053
0.232234
0.231426
0.230717
0.23001
0.229396
0.228773
0.228237
0.227686
0.227216
0.226728
0.226318
0.225885
0.225522
0.225136
0.224818
0.224476
0.224189
0.223889
0.223636
0.223367
0.223142
0.222895
0.222708
0.222489
0.222313
0.222128
0.221965
0.221801
0.221663
0.221522
0.221403
0.221278
0.221182
0.221062
0.22099
0.220892
0.220835
0.220748
0.2207
0.220627
0.220589
0.220526
0.220496
0.220446
0.220425
0.220388
0.220377
0.22035
0.220352
0.220337
0.220355
0.220351
0.220391
0.220395
0.220455
0.220472
0.22056
0.220581
0.220737
0.220822
0.225835
6.51888
570.415
0.759943
0.634132
0.541594
0.474407
0.425448
0.389236
0.361852
0.340716
0.32403
0.310644
0.299691
0.290635
0.283011
0.27656
0.271
0.266213
0.262006
0.258337
0.255059
0.252172
0.249555
0.247234
0.245103
0.243204
0.241439
0.239864
0.238382
0.237059
0.2358
0.234679
0.233599
0.23264
0.231706
0.230882
0.230069
0.229355
0.228643
0.228024
0.227397
0.226857
0.226303
0.225829
0.225337
0.224924
0.224488
0.224122
0.223733
0.223412
0.223068
0.222779
0.222476
0.22222
0.221949
0.221722
0.221473
0.221284
0.221063
0.220885
0.220698
0.220534
0.220368
0.220229
0.220085
0.219965
0.219838
0.21974
0.219619
0.219545
0.219445
0.219387
0.219298
0.219249
0.219175
0.219135
0.219071
0.219039
0.218987
0.218965
0.218926
0.218914
0.218885
0.218884
0.218867
0.218883
0.218877
0.218913
0.218916
0.218974
0.218989
0.219074
0.219093
0.219247
0.219333
0.224502
6.733
567.176
0.759957
0.634156
0.541545
0.474223
0.42511
0.38875
0.361237
0.33999
0.32321
0.309745
0.298726
0.289614
0.281942
0.27545
0.269855
0.265037
0.260803
0.25711
0.253811
0.250905
0.248272
0.245936
0.24379
0.241879
0.240103
0.238517
0.237025
0.235693
0.234426
0.233297
0.232211
0.231245
0.230305
0.229475
0.228656
0.227937
0.227221
0.226597
0.225966
0.225422
0.224863
0.224386
0.223891
0.223474
0.223035
0.222666
0.222274
0.22195
0.221603
0.221311
0.221005
0.220748
0.220474
0.220245
0.219994
0.219802
0.219579
0.2194
0.21921
0.219045
0.218877
0.218736
0.21859
0.218468
0.218339
0.218241
0.218117
0.218042
0.21794
0.21788
0.21779
0.217739
0.217663
0.217622
0.217557
0.217524
0.21747
0.217447
0.217405
0.217391
0.21736
0.217357
0.217338
0.217351
0.217343
0.217376
0.217378
0.217433
0.217446
0.217528
0.217545
0.217697
0.217785
0.223106
6.93436
563.026
0.75997
0.634181
0.541496
0.474035
0.424762
0.38825
0.360602
0.339239
0.322362
0.308815
0.297727
0.288556
0.280834
0.274299
0.268667
0.263817
0.259555
0.255837
0.252516
0.24959
0.246939
0.244587
0.242428
0.240503
0.238715
0.237118
0.235617
0.234275
0.233
0.231863
0.230769
0.229796
0.228849
0.228014
0.227189
0.226465
0.225743
0.225115
0.224479
0.223931
0.223368
0.222888
0.222388
0.221968
0.221525
0.221153
0.220758
0.220431
0.220081
0.219787
0.219478
0.219219
0.218942
0.218711
0.218457
0.218263
0.218038
0.217857
0.217665
0.217498
0.217328
0.217185
0.217037
0.216914
0.216782
0.216683
0.216557
0.21648
0.216376
0.216315
0.216223
0.216171
0.216093
0.216051
0.215984
0.215949
0.215894
0.215869
0.215826
0.21581
0.215777
0.215772
0.21575
0.21576
0.21575
0.21578
0.21578
0.215832
0.215843
0.215923
0.215938
0.216087
0.216177
0.221647
7.11861
557.876
0.759984
0.634207
0.541446
0.473843
0.424407
0.387736
0.359948
0.338464
0.321486
0.307854
0.296694
0.287462
0.279688
0.273108
0.267437
0.262553
0.258262
0.254518
0.251174
0.248227
0.245558
0.243189
0.241015
0.239077
0.237276
0.235668
0.234156
0.232805
0.231521
0.230376
0.229274
0.228294
0.22734
0.226498
0.225668
0.224939
0.224211
0.223578
0.222938
0.222385
0.221818
0.221333
0.22083
0.220406
0.21996
0.219585
0.219186
0.218856
0.218503
0.218206
0.217894
0.217632
0.217353
0.21712
0.216863
0.216667
0.21644
0.216256
0.216062
0.215894
0.215721
0.215577
0.215427
0.215302
0.215168
0.215067
0.214939
0.21486
0.214754
0.214692
0.214598
0.214544
0.214465
0.214421
0.214353
0.214317
0.214259
0.214233
0.214187
0.21417
0.214135
0.214127
0.214103
0.21411
0.214099
0.214124
0.214123
0.214172
0.214182
0.214258
0.214271
0.214417
0.214509
0.220123
7.28116
551.623
0.759997
0.634234
0.541396
0.473648
0.424042
0.387208
0.359275
0.337667
0.320583
0.306861
0.295627
0.286331
0.278503
0.271876
0.266165
0.261246
0.256925
0.253153
0.249785
0.246817
0.244129
0.241743
0.239553
0.2376
0.235787
0.234167
0.232644
0.231283
0.229989
0.228836
0.227726
0.226739
0.225778
0.22493
0.224093
0.223358
0.222625
0.221987
0.221341
0.220784
0.220213
0.219724
0.219217
0.218789
0.218339
0.21796
0.217558
0.217226
0.216869
0.216569
0.216254
0.21599
0.215707
0.215473
0.215213
0.215015
0.214785
0.214599
0.214403
0.214233
0.214058
0.213912
0.213759
0.213633
0.213496
0.213394
0.213264
0.213183
0.213075
0.213011
0.212915
0.21286
0.212779
0.212734
0.212663
0.212626
0.212566
0.212538
0.212491
0.212472
0.212434
0.212425
0.212398
0.212402
0.212388
0.21241
0.212408
0.212454
0.212461
0.212533
0.212545
0.212689
0.212783
0.218532
7.41727
544.156
0.760011
0.634263
0.541347
0.47345
0.423671
0.386668
0.358584
0.336846
0.319654
0.30584
0.294527
0.285165
0.27728
0.270605
0.264852
0.259896
0.255543
0.251743
0.248351
0.24536
0.242652
0.240248
0.238042
0.236075
0.234248
0.232615
0.231082
0.22971
0.228407
0.227244
0.226126
0.225131
0.224163
0.223308
0.222465
0.221724
0.220985
0.220342
0.219691
0.219129
0.218553
0.21806
0.217548
0.217117
0.216663
0.216281
0.215875
0.215539
0.21518
0.214877
0.214559
0.214292
0.214006
0.213769
0.213507
0.213306
0.213074
0.212886
0.212687
0.212516
0.212337
0.21219
0.212035
0.211907
0.211768
0.211664
0.211532
0.211449
0.211339
0.211273
0.211175
0.211118
0.211036
0.210989
0.210917
0.210878
0.210816
0.210786
0.210736
0.210716
0.210676
0.210665
0.210636
0.210636
0.21062
0.210639
0.210634
0.210676
0.210682
0.210751
0.21076
0.210902
0.210997
0.216872
7.52212
535.357
0.760025
0.634292
0.541299
0.473249
0.423292
0.386115
0.357876
0.336004
0.318698
0.304788
0.293395
0.283964
0.276021
0.269295
0.263499
0.258505
0.254118
0.250289
0.246871
0.243857
0.241128
0.238705
0.236483
0.2345
0.232659
0.231014
0.229468
0.228086
0.226773
0.225601
0.224474
0.223472
0.222496
0.221634
0.220784
0.220037
0.219292
0.218643
0.217987
0.21742
0.21684
0.216342
0.215826
0.21539
0.214932
0.214547
0.214138
0.213798
0.213435
0.21313
0.212808
0.212538
0.212249
0.21201
0.211745
0.211541
0.211307
0.211117
0.210915
0.210742
0.210561
0.210412
0.210254
0.210125
0.209983
0.209878
0.209743
0.209659
0.209546
0.209478
0.209379
0.20932
0.209236
0.209188
0.209113
0.209072
0.209009
0.208977
0.208925
0.208903
0.208861
0.208847
0.208816
0.208814
0.208795
0.208809
0.208803
0.208842
0.208845
0.20891
0.208918
0.209057
0.209154
0.215142
7.59099
525.105
0.760038
0.634322
0.54125
0.473046
0.422906
0.385551
0.357152
0.335142
0.317718
0.303709
0.292232
0.282729
0.274725
0.267947
0.262106
0.257072
0.252651
0.248791
0.245346
0.242308
0.239558
0.237116
0.234876