/*--------------------------------*- C++ -*----------------------------------*\
| =========                 |                                                 |
| \\      /  F ield         | OpenFOAM: The Open Source CFD Toolbox           |
|  \\    /   O peration     | Version:  v2012                                 |
|   \\  /    A nd           | Website:  www.openfoam.com                      |
|    \\/     M anipulation  |                                                 |
\*---------------------------------------------------------------------------*/
FoamFile
{
    version     2.0;
    format      ascii;
    class       volScalarField;
    location    "53.5";
    object      nut;
}
// * * * * * * * * * * * * * * * * * * * * * * * * * * * * * * * * * * * * * //

dimensions      [0 2 -1 0 0 0 0];


internalField   nonuniform List<scalar> 
209825
(
1.24193e-07
1.23614e-07
1.21956e-07
1.18376e-07
1.13161e-07
1.07079e-07
1.00794e-07
9.47459e-08
8.91337e-08
8.405e-08
7.94804e-08
7.54124e-08
7.17769e-08
6.85489e-08
6.56555e-08
6.30801e-08
6.07559e-08
5.86794e-08
5.67904e-08
5.50972e-08
5.35437e-08
5.21472e-08
5.08551e-08
4.96915e-08
4.86048e-08
4.76257e-08
4.67023e-08
4.58719e-08
4.50804e-08
4.43698e-08
4.36858e-08
4.30744e-08
4.24789e-08
4.19491e-08
4.1427e-08
4.09658e-08
4.0505e-08
4.01016e-08
3.96932e-08
3.93391e-08
3.89752e-08
3.86633e-08
3.83375e-08
3.80611e-08
3.77678e-08
3.75232e-08
3.72584e-08
3.70406e-08
3.68004e-08
3.66076e-08
3.63881e-08
3.6216e-08
3.60162e-08
3.58629e-08
3.56811e-08
3.55416e-08
3.53756e-08
3.52525e-08
3.5098e-08
3.49894e-08
3.48474e-08
3.4748e-08
3.46175e-08
3.45275e-08
3.44077e-08
3.43247e-08
3.42167e-08
3.41388e-08
3.40382e-08
3.39671e-08
3.38751e-08
3.38108e-08
3.3727e-08
3.36695e-08
3.35895e-08
3.35337e-08
3.34553e-08
3.33999e-08
3.33208e-08
3.32658e-08
3.31885e-08
3.3133e-08
3.30587e-08
3.3004e-08
3.29312e-08
3.28785e-08
3.28062e-08
3.27562e-08
3.26843e-08
3.26355e-08
3.25646e-08
3.2513e-08
3.24357e-08
3.27476e-08
4.2467e-06
2.63471e-08
1.24192e-07
1.23613e-07
1.21956e-07
1.18376e-07
1.13162e-07
1.07081e-07
1.00796e-07
9.47482e-08
8.91362e-08
8.40525e-08
7.94828e-08
7.54147e-08
7.17792e-08
6.85511e-08
6.56576e-08
6.3082e-08
6.07577e-08
5.86812e-08
5.67921e-08
5.50987e-08
5.35452e-08
5.21486e-08
5.08564e-08
4.96927e-08
4.8606e-08
4.76268e-08
4.67033e-08
4.58728e-08
4.50813e-08
4.43706e-08
4.36866e-08
4.30752e-08
4.24796e-08
4.19498e-08
4.14276e-08
4.09663e-08
4.05056e-08
4.01021e-08
3.96937e-08
3.93396e-08
3.89757e-08
3.86638e-08
3.83379e-08
3.80614e-08
3.77681e-08
3.75235e-08
3.72587e-08
3.70409e-08
3.68007e-08
3.66078e-08
3.63883e-08
3.62162e-08
3.60164e-08
3.58631e-08
3.56812e-08
3.55417e-08
3.53757e-08
3.52526e-08
3.50981e-08
3.49895e-08
3.48475e-08
3.47481e-08
3.46176e-08
3.45275e-08
3.44077e-08
3.43248e-08
3.42168e-08
3.41388e-08
3.40383e-08
3.39671e-08
3.38751e-08
3.38108e-08
3.3727e-08
3.36695e-08
3.35895e-08
3.35337e-08
3.34552e-08
3.33998e-08
3.33208e-08
3.32658e-08
3.31885e-08
3.3133e-08
3.30587e-08
3.30039e-08
3.29312e-08
3.28784e-08
3.28061e-08
3.27561e-08
3.26842e-08
3.26355e-08
3.25645e-08
3.25129e-08
3.24356e-08
3.27478e-08
4.24793e-06
2.6569e-08
1.24192e-07
1.23613e-07
1.21957e-07
1.1838e-07
1.13167e-07
1.07088e-07
1.00805e-07
9.4758e-08
8.91462e-08
8.40625e-08
7.94925e-08
7.54241e-08
7.17882e-08
6.85595e-08
6.56656e-08
6.30895e-08
6.07648e-08
5.86878e-08
5.67983e-08
5.51046e-08
5.35507e-08
5.21537e-08
5.08612e-08
4.96972e-08
4.86102e-08
4.76308e-08
4.67071e-08
4.58763e-08
4.50846e-08
4.43737e-08
4.36895e-08
4.30779e-08
4.24822e-08
4.19522e-08
4.14299e-08
4.09685e-08
4.05076e-08
4.0104e-08
3.96955e-08
3.93413e-08
3.89772e-08
3.86652e-08
3.83392e-08
3.80627e-08
3.77694e-08
3.75247e-08
3.72598e-08
3.70419e-08
3.68016e-08
3.66087e-08
3.63891e-08
3.6217e-08
3.6017e-08
3.58638e-08
3.56818e-08
3.55423e-08
3.53762e-08
3.52531e-08
3.50985e-08
3.49898e-08
3.48478e-08
3.47484e-08
3.46178e-08
3.45277e-08
3.44079e-08
3.43249e-08
3.42169e-08
3.41389e-08
3.40383e-08
3.39671e-08
3.3875e-08
3.38108e-08
3.37269e-08
3.36694e-08
3.35894e-08
3.35336e-08
3.34551e-08
3.33997e-08
3.33206e-08
3.32656e-08
3.31883e-08
3.31328e-08
3.30584e-08
3.30036e-08
3.29309e-08
3.28781e-08
3.28058e-08
3.27558e-08
3.26838e-08
3.26351e-08
3.25641e-08
3.25124e-08
3.24352e-08
3.27481e-08
4.25239e-06
2.69171e-08
1.24192e-07
1.23613e-07
1.21959e-07
1.18385e-07
1.13177e-07
1.07101e-07
1.0082e-07
9.47744e-08
8.9163e-08
8.40793e-08
7.95089e-08
7.54399e-08
7.18032e-08
6.85738e-08
6.5679e-08
6.31022e-08
6.07767e-08
5.8699e-08
5.68088e-08
5.51144e-08
5.35599e-08
5.21624e-08
5.08693e-08
4.97048e-08
4.86174e-08
4.76375e-08
4.67134e-08
4.58822e-08
4.50902e-08
4.4379e-08
4.36944e-08
4.30825e-08
4.24866e-08
4.19563e-08
4.14337e-08
4.09721e-08
4.0511e-08
4.01072e-08
3.96985e-08
3.93441e-08
3.89799e-08
3.86677e-08
3.83416e-08
3.8065e-08
3.77714e-08
3.75266e-08
3.72616e-08
3.70436e-08
3.68032e-08
3.66102e-08
3.63905e-08
3.62182e-08
3.60182e-08
3.58648e-08
3.56828e-08
3.55432e-08
3.5377e-08
3.52538e-08
3.50992e-08
3.49904e-08
3.48484e-08
3.47489e-08
3.46182e-08
3.45281e-08
3.44082e-08
3.43251e-08
3.4217e-08
3.4139e-08
3.40384e-08
3.39672e-08
3.3875e-08
3.38107e-08
3.37268e-08
3.36693e-08
3.35892e-08
3.35334e-08
3.34548e-08
3.33994e-08
3.33203e-08
3.32653e-08
3.31879e-08
3.31324e-08
3.3058e-08
3.30032e-08
3.29304e-08
3.28776e-08
3.28053e-08
3.27552e-08
3.26832e-08
3.26345e-08
3.25635e-08
3.25118e-08
3.24345e-08
3.27487e-08
4.25975e-06
2.73582e-08
1.24192e-07
1.23612e-07
1.21961e-07
1.18393e-07
1.13191e-07
1.0712e-07
1.00842e-07
9.47975e-08
8.91869e-08
8.4103e-08
7.95321e-08
7.54622e-08
7.18245e-08
6.85939e-08
6.56981e-08
6.31201e-08
6.07935e-08
5.87148e-08
5.68236e-08
5.51283e-08
5.35729e-08
5.21746e-08
5.08808e-08
4.97156e-08
4.86275e-08
4.7647e-08
4.67223e-08
4.58906e-08
4.50981e-08
4.43864e-08
4.37014e-08
4.30891e-08
4.24928e-08
4.19621e-08
4.14392e-08
4.09773e-08
4.05159e-08
4.01118e-08
3.97028e-08
3.93482e-08
3.89837e-08
3.86713e-08
3.83449e-08
3.80681e-08
3.77744e-08
3.75294e-08
3.72642e-08
3.7046e-08
3.68054e-08
3.66123e-08
3.63924e-08
3.62201e-08
3.60199e-08
3.58664e-08
3.56842e-08
3.55445e-08
3.53782e-08
3.52549e-08
3.51002e-08
3.49913e-08
3.48492e-08
3.47496e-08
3.46188e-08
3.45286e-08
3.44086e-08
3.43255e-08
3.42173e-08
3.41393e-08
3.40386e-08
3.39673e-08
3.38751e-08
3.38107e-08
3.37267e-08
3.36691e-08
3.3589e-08
3.35331e-08
3.34545e-08
3.33991e-08
3.33199e-08
3.32649e-08
3.31874e-08
3.3132e-08
3.30574e-08
3.30026e-08
3.29298e-08
3.2877e-08
3.28045e-08
3.27545e-08
3.26824e-08
3.26337e-08
3.25626e-08
3.25109e-08
3.24335e-08
3.27494e-08
4.27003e-06
2.78821e-08
1.24191e-07
1.23611e-07
1.21964e-07
1.18403e-07
1.13208e-07
1.07143e-07
1.0087e-07
9.48276e-08
8.92178e-08
8.41338e-08
7.95622e-08
7.54911e-08
7.18521e-08
6.86201e-08
6.57228e-08
6.31434e-08
6.08154e-08
5.87353e-08
5.68429e-08
5.51464e-08
5.35899e-08
5.21905e-08
5.08957e-08
4.97296e-08
4.86406e-08
4.76594e-08
4.67339e-08
4.59016e-08
4.51083e-08
4.43961e-08
4.37105e-08
4.30977e-08
4.25008e-08
4.19697e-08
4.14463e-08
4.0984e-08
4.05222e-08
4.01177e-08
3.97084e-08
3.93534e-08
3.89887e-08
3.8676e-08
3.83493e-08
3.80722e-08
3.77782e-08
3.7533e-08
3.72675e-08
3.70492e-08
3.68084e-08
3.6615e-08
3.6395e-08
3.62225e-08
3.60221e-08
3.58684e-08
3.56861e-08
3.55463e-08
3.53798e-08
3.52564e-08
3.51015e-08
3.49925e-08
3.48502e-08
3.47505e-08
3.46197e-08
3.45294e-08
3.44092e-08
3.4326e-08
3.42178e-08
3.41396e-08
3.40388e-08
3.39675e-08
3.38751e-08
3.38107e-08
3.37266e-08
3.3669e-08
3.35888e-08
3.35329e-08
3.34541e-08
3.33987e-08
3.33195e-08
3.32644e-08
3.31869e-08
3.31314e-08
3.30568e-08
3.3002e-08
3.2929e-08
3.28762e-08
3.28037e-08
3.27536e-08
3.26814e-08
3.26326e-08
3.25615e-08
3.25098e-08
3.24324e-08
3.27505e-08
4.28321e-06
2.84873e-08
1.2419e-07
1.2361e-07
1.21967e-07
1.18415e-07
1.1323e-07
1.07172e-07
1.00904e-07
9.48646e-08
8.92559e-08
8.41718e-08
7.95993e-08
7.55268e-08
7.18862e-08
6.86524e-08
6.57533e-08
6.31721e-08
6.08425e-08
5.87607e-08
5.68667e-08
5.51687e-08
5.36109e-08
5.22102e-08
5.09142e-08
4.97469e-08
4.86569e-08
4.76747e-08
4.67483e-08
4.59151e-08
4.51211e-08
4.44081e-08
4.37218e-08
4.31083e-08
4.25108e-08
4.19792e-08
4.14552e-08
4.09924e-08
4.05301e-08
4.01252e-08
3.97154e-08
3.936e-08
3.89948e-08
3.86818e-08
3.83548e-08
3.80774e-08
3.7783e-08
3.75375e-08
3.72718e-08
3.70532e-08
3.68121e-08
3.66185e-08
3.63982e-08
3.62255e-08
3.60249e-08
3.5871e-08
3.56885e-08
3.55485e-08
3.53818e-08
3.52583e-08
3.51032e-08
3.4994e-08
3.48516e-08
3.47518e-08
3.46208e-08
3.45303e-08
3.44101e-08
3.43267e-08
3.42183e-08
3.41401e-08
3.40391e-08
3.39677e-08
3.38753e-08
3.38108e-08
3.37266e-08
3.36688e-08
3.35885e-08
3.35325e-08
3.34536e-08
3.33982e-08
3.3319e-08
3.32639e-08
3.31862e-08
3.31308e-08
3.3056e-08
3.30011e-08
3.29281e-08
3.28753e-08
3.28026e-08
3.27525e-08
3.26802e-08
3.26314e-08
3.25601e-08
3.25085e-08
3.2431e-08
3.27518e-08
4.29926e-06
2.91771e-08
1.2419e-07
1.23609e-07
1.21972e-07
1.1843e-07
1.13255e-07
1.07207e-07
1.00945e-07
9.49089e-08
8.93015e-08
8.42172e-08
7.96436e-08
7.55695e-08
7.1927e-08
6.86911e-08
6.57898e-08
6.32065e-08
6.08748e-08
5.87911e-08
5.68953e-08
5.51955e-08
5.3636e-08
5.22337e-08
5.09363e-08
4.97677e-08
4.86765e-08
4.7693e-08
4.67656e-08
4.59313e-08
4.51364e-08
4.44224e-08
4.37353e-08
4.3121e-08
4.25228e-08
4.19905e-08
4.14659e-08
4.10024e-08
4.05395e-08
4.01341e-08
3.97237e-08
3.93679e-08
3.90022e-08
3.86888e-08
3.83614e-08
3.80836e-08
3.77888e-08
3.7543e-08
3.72769e-08
3.70579e-08
3.68165e-08
3.66227e-08
3.64021e-08
3.62291e-08
3.60282e-08
3.58742e-08
3.56914e-08
3.55512e-08
3.53842e-08
3.52605e-08
3.51052e-08
3.49959e-08
3.48533e-08
3.47533e-08
3.46221e-08
3.45315e-08
3.44111e-08
3.43276e-08
3.4219e-08
3.41407e-08
3.40396e-08
3.39681e-08
3.38755e-08
3.38109e-08
3.37265e-08
3.36687e-08
3.35883e-08
3.35322e-08
3.34531e-08
3.33977e-08
3.33184e-08
3.32633e-08
3.31855e-08
3.31301e-08
3.30551e-08
3.30002e-08
3.2927e-08
3.28742e-08
3.28014e-08
3.27513e-08
3.26788e-08
3.263e-08
3.25585e-08
3.25069e-08
3.24293e-08
3.27534e-08
4.31813e-06
2.99586e-08
1.24189e-07
1.23607e-07
1.21977e-07
1.18447e-07
1.13285e-07
1.07248e-07
1.00992e-07
9.49603e-08
8.93545e-08
8.42701e-08
7.96953e-08
7.56193e-08
7.19745e-08
6.87362e-08
6.58325e-08
6.32467e-08
6.09126e-08
5.88265e-08
5.69286e-08
5.52268e-08
5.36654e-08
5.22613e-08
5.09622e-08
4.9792e-08
4.86993e-08
4.77145e-08
4.67858e-08
4.59503e-08
4.51542e-08
4.44392e-08
4.37512e-08
4.3136e-08
4.25369e-08
4.20037e-08
4.14783e-08
4.10142e-08
4.05506e-08
4.01445e-08
3.97336e-08
3.93772e-08
3.9011e-08
3.8697e-08
3.83691e-08
3.80908e-08
3.77956e-08
3.75494e-08
3.72829e-08
3.70636e-08
3.68218e-08
3.66276e-08
3.64067e-08
3.62334e-08
3.60322e-08
3.58779e-08
3.56948e-08
3.55543e-08
3.53871e-08
3.52632e-08
3.51076e-08
3.49981e-08
3.48552e-08
3.47551e-08
3.46237e-08
3.45329e-08
3.44123e-08
3.43287e-08
3.42199e-08
3.41415e-08
3.40402e-08
3.39685e-08
3.38757e-08
3.3811e-08
3.37265e-08
3.36686e-08
3.3588e-08
3.35319e-08
3.34526e-08
3.33972e-08
3.33177e-08
3.32626e-08
3.31847e-08
3.31292e-08
3.30541e-08
3.29992e-08
3.29258e-08
3.28729e-08
3.28e-08
3.27498e-08
3.26772e-08
3.26284e-08
3.25568e-08
3.25052e-08
3.24275e-08
3.27554e-08
4.33972e-06
3.08424e-08
1.24188e-07
1.23605e-07
1.21982e-07
1.18466e-07
1.13319e-07
1.07294e-07
1.01047e-07
9.50192e-08
8.94152e-08
8.43306e-08
7.97546e-08
7.56764e-08
7.20291e-08
6.87879e-08
6.58814e-08
6.32927e-08
6.0956e-08
5.88673e-08
5.69669e-08
5.52627e-08
5.36991e-08
5.22929e-08
5.09919e-08
4.98199e-08
4.87256e-08
4.77392e-08
4.6809e-08
4.59721e-08
4.51748e-08
4.44586e-08
4.37694e-08
4.31531e-08
4.25531e-08
4.2019e-08
4.14927e-08
4.10277e-08
4.05634e-08
4.01566e-08
3.97449e-08
3.93879e-08
3.9021e-08
3.87065e-08
3.8378e-08
3.80992e-08
3.78035e-08
3.75568e-08
3.72898e-08
3.70701e-08
3.68279e-08
3.66333e-08
3.6412e-08
3.62384e-08
3.60368e-08
3.58822e-08
3.56987e-08
3.5558e-08
3.53905e-08
3.52663e-08
3.51104e-08
3.50007e-08
3.48576e-08
3.47572e-08
3.46255e-08
3.45346e-08
3.44138e-08
3.43299e-08
3.4221e-08
3.41424e-08
3.40409e-08
3.39691e-08
3.38761e-08
3.38113e-08
3.37266e-08
3.36686e-08
3.35878e-08
3.35315e-08
3.34521e-08
3.33966e-08
3.33171e-08
3.32619e-08
3.31838e-08
3.31284e-08
3.30529e-08
3.2998e-08
3.29245e-08
3.28716e-08
3.27984e-08
3.27483e-08
3.26755e-08
3.26266e-08
3.25547e-08
3.25032e-08
3.24254e-08
3.27577e-08
4.36391e-06
3.18413e-08
1.24186e-07
1.23603e-07
1.21988e-07
1.18487e-07
1.13358e-07
1.07345e-07
1.01108e-07
9.50855e-08
8.94837e-08
8.4399e-08
7.98215e-08
7.57409e-08
7.20907e-08
6.88464e-08
6.59367e-08
6.33449e-08
6.10051e-08
5.89134e-08
5.70102e-08
5.53033e-08
5.37373e-08
5.23288e-08
5.10257e-08
4.98516e-08
4.87553e-08
4.77672e-08
4.68353e-08
4.59969e-08
4.51981e-08
4.44806e-08
4.37901e-08
4.31726e-08
4.25714e-08
4.20363e-08
4.1509e-08
4.10431e-08
4.05779e-08
4.01702e-08
3.97578e-08
3.94e-08
3.90325e-08
3.87173e-08
3.83881e-08
3.81088e-08
3.78125e-08
3.75652e-08
3.72977e-08
3.70776e-08
3.68348e-08
3.66399e-08
3.64181e-08
3.62441e-08
3.60421e-08
3.58871e-08
3.57033e-08
3.55623e-08
3.53944e-08
3.52699e-08
3.51137e-08
3.50037e-08
3.48603e-08
3.47597e-08
3.46277e-08
3.45365e-08
3.44155e-08
3.43314e-08
3.42222e-08
3.41435e-08
3.40417e-08
3.39698e-08
3.38766e-08
3.38116e-08
3.37267e-08
3.36686e-08
3.35876e-08
3.35312e-08
3.34515e-08
3.3396e-08
3.33163e-08
3.32611e-08
3.31828e-08
3.31274e-08
3.30517e-08
3.29968e-08
3.29231e-08
3.28701e-08
3.27967e-08
3.27465e-08
3.26735e-08
3.26246e-08
3.25525e-08
3.2501e-08
3.24231e-08
3.27603e-08
4.39052e-06
3.2971e-08
1.24185e-07
1.23601e-07
1.21995e-07
1.18511e-07
1.134e-07
1.07403e-07
1.01176e-07
9.51595e-08
8.95601e-08
8.44753e-08
7.98962e-08
7.58129e-08
7.21597e-08
6.89119e-08
6.59987e-08
6.34032e-08
6.106e-08
5.8965e-08
5.70588e-08
5.53489e-08
5.37802e-08
5.2369e-08
5.10635e-08
4.98871e-08
4.87887e-08
4.77985e-08
4.68649e-08
4.60247e-08
4.52243e-08
4.45052e-08
4.38133e-08
4.31945e-08
4.25921e-08
4.20558e-08
4.15274e-08
4.10604e-08
4.05942e-08
4.01856e-08
3.97723e-08
3.94137e-08
3.90453e-08
3.87294e-08
3.83995e-08
3.81196e-08
3.78226e-08
3.75748e-08
3.73066e-08
3.7086e-08
3.68427e-08
3.66473e-08
3.6425e-08
3.62505e-08
3.60481e-08
3.58927e-08
3.57085e-08
3.55671e-08
3.53988e-08
3.5274e-08
3.51174e-08
3.50071e-08
3.48634e-08
3.47625e-08
3.46302e-08
3.45388e-08
3.44174e-08
3.43332e-08
3.42237e-08
3.41448e-08
3.40428e-08
3.39706e-08
3.38772e-08
3.3812e-08
3.37269e-08
3.36686e-08
3.35874e-08
3.35309e-08
3.3451e-08
3.33954e-08
3.33156e-08
3.32603e-08
3.31818e-08
3.31264e-08
3.30504e-08
3.29955e-08
3.29215e-08
3.28685e-08
3.27949e-08
3.27446e-08
3.26714e-08
3.26224e-08
3.25501e-08
3.24986e-08
3.24206e-08
3.27634e-08
4.41933e-06
3.42492e-08
1.24184e-07
1.23599e-07
1.22003e-07
1.18537e-07
1.13447e-07
1.07467e-07
1.01251e-07
9.52412e-08
8.96446e-08
8.45598e-08
7.9979e-08
7.58928e-08
7.22361e-08
6.89844e-08
6.60674e-08
6.3468e-08
6.1121e-08
5.90224e-08
5.71127e-08
5.53995e-08
5.38277e-08
5.24137e-08
5.11055e-08
4.99266e-08
4.88259e-08
4.78335e-08
4.68978e-08
4.60557e-08
4.52535e-08
4.45327e-08
4.38392e-08
4.32189e-08
4.26151e-08
4.20775e-08
4.15479e-08
4.10797e-08
4.06124e-08
4.02028e-08
3.97885e-08
3.9429e-08
3.90597e-08
3.8743e-08
3.84123e-08
3.81316e-08
3.78339e-08
3.75854e-08
3.73166e-08
3.70954e-08
3.68515e-08
3.66555e-08
3.64327e-08
3.62578e-08
3.60548e-08
3.5899e-08
3.57143e-08
3.55725e-08
3.54037e-08
3.52787e-08
3.51216e-08
3.5011e-08
3.48669e-08
3.47657e-08
3.46331e-08
3.45414e-08
3.44197e-08
3.43352e-08
3.42254e-08
3.41463e-08
3.4044e-08
3.39717e-08
3.38779e-08
3.38126e-08
3.37272e-08
3.36688e-08
3.35873e-08
3.35307e-08
3.34505e-08
3.33948e-08
3.33148e-08
3.32595e-08
3.31807e-08
3.31254e-08
3.30491e-08
3.29941e-08
3.29199e-08
3.28668e-08
3.27929e-08
3.27426e-08
3.26691e-08
3.26201e-08
3.25475e-08
3.24961e-08
3.24178e-08
3.27668e-08
4.45005e-06
3.56959e-08
1.24182e-07
1.23596e-07
1.22011e-07
1.18566e-07
1.13498e-07
1.07536e-07
1.01333e-07
9.53308e-08
8.97374e-08
8.46526e-08
8.007e-08
7.59806e-08
7.23202e-08
6.90643e-08
6.6143e-08
6.35393e-08
6.11882e-08
5.90856e-08
5.71721e-08
5.54554e-08
5.38802e-08
5.2463e-08
5.11518e-08
4.99701e-08
4.88669e-08
4.7872e-08
4.69341e-08
4.60898e-08
4.52857e-08
4.4563e-08
4.38678e-08
4.32459e-08
4.26405e-08
4.21015e-08
4.15705e-08
4.11011e-08
4.06326e-08
4.02218e-08
3.98064e-08
3.94459e-08
3.90757e-08
3.8758e-08
3.84265e-08
3.8145e-08
3.78465e-08
3.75973e-08
3.73277e-08
3.71059e-08
3.68613e-08
3.66648e-08
3.64413e-08
3.62659e-08
3.60623e-08
3.5906e-08
3.57208e-08
3.55786e-08
3.54093e-08
3.52839e-08
3.51264e-08
3.50154e-08
3.48709e-08
3.47693e-08
3.46364e-08
3.45444e-08
3.44223e-08
3.43375e-08
3.42274e-08
3.4148e-08
3.40455e-08
3.39729e-08
3.38788e-08
3.38133e-08
3.37276e-08
3.3669e-08
3.35873e-08
3.35305e-08
3.345e-08
3.33942e-08
3.33141e-08
3.32587e-08
3.31796e-08
3.31243e-08
3.30476e-08
3.29926e-08
3.29181e-08
3.2865e-08
3.27908e-08
3.27405e-08
3.26667e-08
3.26176e-08
3.25447e-08
3.24933e-08
3.24149e-08
3.27707e-08
4.48232e-06
3.73328e-08
1.24181e-07
1.23593e-07
1.22019e-07
1.18596e-07
1.13553e-07
1.07612e-07
1.01423e-07
9.54284e-08
8.98385e-08
8.47539e-08
8.01693e-08
7.60766e-08
7.24121e-08
6.91517e-08
6.62257e-08
6.36174e-08
6.12618e-08
5.91548e-08
5.72372e-08
5.55165e-08
5.39377e-08
5.2517e-08
5.12026e-08
5.00179e-08
4.89118e-08
4.79143e-08
4.69739e-08
4.61274e-08
4.5321e-08
4.45964e-08
4.38993e-08
4.32755e-08
4.26685e-08
4.21278e-08
4.15954e-08
4.11246e-08
4.06547e-08
4.02428e-08
3.98262e-08
3.94646e-08
3.90932e-08
3.87746e-08
3.84421e-08
3.81597e-08
3.78603e-08
3.76104e-08
3.734e-08
3.71175e-08
3.68721e-08
3.6675e-08
3.64508e-08
3.62748e-08
3.60707e-08
3.59138e-08
3.5728e-08
3.55854e-08
3.54155e-08
3.52897e-08
3.51317e-08
3.50203e-08
3.48753e-08
3.47734e-08
3.46401e-08
3.45477e-08
3.44253e-08
3.43402e-08
3.42297e-08
3.41501e-08
3.40471e-08
3.39744e-08
3.38799e-08
3.38142e-08
3.37282e-08
3.36694e-08
3.35874e-08
3.35304e-08
3.34496e-08
3.33937e-08
3.33133e-08
3.32579e-08
3.31785e-08
3.31232e-08
3.30462e-08
3.29911e-08
3.29163e-08
3.28631e-08
3.27886e-08
3.27382e-08
3.26641e-08
3.2615e-08
3.25417e-08
3.24904e-08
3.24119e-08
3.2775e-08
4.51572e-06
3.91837e-08
1.24179e-07
1.23589e-07
1.22028e-07
1.18629e-07
1.13612e-07
1.07693e-07
1.0152e-07
9.55341e-08
8.99481e-08
8.48638e-08
8.02772e-08
7.61809e-08
7.2512e-08
6.92467e-08
6.63158e-08
6.37024e-08
6.1342e-08
5.92302e-08
5.73082e-08
5.55832e-08
5.40005e-08
5.2576e-08
5.12581e-08
5.00701e-08
4.89609e-08
4.79605e-08
4.70174e-08
4.61683e-08
4.53597e-08
4.46328e-08
4.39336e-08
4.33079e-08
4.26991e-08
4.21567e-08
4.16227e-08
4.11504e-08
4.0679e-08
4.02657e-08
3.98478e-08
3.9485e-08
3.91125e-08
3.87928e-08
3.84593e-08
3.81759e-08
3.78756e-08
3.76248e-08
3.73535e-08
3.71302e-08
3.6884e-08
3.66862e-08
3.64614e-08
3.62847e-08
3.60799e-08
3.59224e-08
3.57361e-08
3.55929e-08
3.54225e-08
3.52961e-08
3.51376e-08
3.50257e-08
3.48803e-08
3.4778e-08
3.46442e-08
3.45515e-08
3.44287e-08
3.43432e-08
3.42323e-08
3.41525e-08
3.40491e-08
3.39761e-08
3.38813e-08
3.38153e-08
3.37289e-08
3.36699e-08
3.35876e-08
3.35304e-08
3.34493e-08
3.33933e-08
3.33126e-08
3.32571e-08
3.31775e-08
3.31222e-08
3.30447e-08
3.29896e-08
3.29145e-08
3.28612e-08
3.27864e-08
3.27359e-08
3.26615e-08
3.26123e-08
3.25387e-08
3.24873e-08
3.24086e-08
3.27798e-08
4.54975e-06
4.12741e-08
1.24177e-07
1.23586e-07
1.22038e-07
1.18664e-07
1.13676e-07
1.07781e-07
1.01624e-07
9.56481e-08
9.00665e-08
8.49824e-08
8.03938e-08
7.62937e-08
7.26202e-08
6.93496e-08
6.64134e-08
6.37945e-08
6.14289e-08
5.9312e-08
5.73852e-08
5.56556e-08
5.40686e-08
5.264e-08
5.13184e-08
5.01267e-08
4.90143e-08
4.80108e-08
4.70648e-08
4.62129e-08
4.54017e-08
4.46724e-08
4.3971e-08
4.33432e-08
4.27324e-08
4.21882e-08
4.16524e-08
4.11784e-08
4.07055e-08
4.02908e-08
3.98715e-08
3.95074e-08
3.91336e-08
3.88128e-08
3.8478e-08
3.81937e-08
3.78923e-08
3.76405e-08
3.73684e-08
3.71442e-08
3.68972e-08
3.66986e-08
3.64729e-08
3.62956e-08
3.609e-08
3.59319e-08
3.57449e-08
3.56013e-08
3.54301e-08
3.53033e-08
3.51442e-08
3.50318e-08
3.48859e-08
3.47832e-08
3.46489e-08
3.45557e-08
3.44325e-08
3.43466e-08
3.42353e-08
3.41552e-08
3.40514e-08
3.39781e-08
3.38829e-08
3.38167e-08
3.37299e-08
3.36707e-08
3.3588e-08
3.35306e-08
3.34491e-08
3.33929e-08
3.3312e-08
3.32564e-08
3.31765e-08
3.31211e-08
3.30433e-08
3.29882e-08
3.29126e-08
3.28593e-08
3.27841e-08
3.27336e-08
3.26587e-08
3.26095e-08
3.25354e-08
3.24842e-08
3.24053e-08
3.2785e-08
4.5838e-06
4.36315e-08
1.24175e-07
1.23582e-07
1.22048e-07
1.18702e-07
1.13744e-07
1.07874e-07
1.01736e-07
9.57703e-08
9.01936e-08
8.51101e-08
8.05193e-08
7.64152e-08
7.27368e-08
6.94606e-08
6.65187e-08
6.3894e-08
6.15228e-08
5.94003e-08
5.74684e-08
5.57338e-08
5.41422e-08
5.27092e-08
5.13836e-08
5.0188e-08
4.90721e-08
4.80651e-08
4.71161e-08
4.62612e-08
4.54473e-08
4.47154e-08
4.40116e-08
4.33815e-08
4.27686e-08
4.22223e-08
4.16846e-08
4.12089e-08
4.07343e-08
4.0318e-08
3.98972e-08
3.95317e-08
3.91565e-08
3.88344e-08
3.84985e-08
3.8213e-08
3.79105e-08
3.76577e-08
3.73845e-08
3.71595e-08
3.69115e-08
3.67121e-08
3.64856e-08
3.63075e-08
3.61012e-08
3.59424e-08
3.57546e-08
3.56104e-08
3.54385e-08
3.53112e-08
3.51515e-08
3.50386e-08
3.4892e-08
3.47889e-08
3.4654e-08
3.45605e-08
3.44368e-08
3.43505e-08
3.42387e-08
3.41583e-08
3.40541e-08
3.39805e-08
3.38848e-08
3.38183e-08
3.37311e-08
3.36717e-08
3.35885e-08
3.3531e-08
3.34491e-08
3.33928e-08
3.33115e-08
3.32558e-08
3.31755e-08
3.31202e-08
3.30419e-08
3.29868e-08
3.29108e-08
3.28573e-08
3.27818e-08
3.27312e-08
3.26559e-08
3.26066e-08
3.25321e-08
3.24809e-08
3.24018e-08
3.27906e-08
4.61718e-06
4.62847e-08
1.24173e-07
1.23578e-07
1.22058e-07
1.18741e-07
1.13816e-07
1.07974e-07
1.01855e-07
9.59011e-08
9.03297e-08
8.52469e-08
8.0654e-08
7.65456e-08
7.2862e-08
6.95799e-08
6.66319e-08
6.40009e-08
6.16238e-08
5.94954e-08
5.7558e-08
5.58181e-08
5.42216e-08
5.27839e-08
5.14539e-08
5.02542e-08
4.91344e-08
4.81239e-08
4.71714e-08
4.63134e-08
4.54966e-08
4.47619e-08
4.40555e-08
4.34229e-08
4.28077e-08
4.22593e-08
4.17196e-08
4.12419e-08
4.07655e-08
4.03475e-08
3.9925e-08
3.9558e-08
3.91814e-08
3.8858e-08
3.85207e-08
3.8234e-08
3.79303e-08
3.76765e-08
3.74021e-08
3.71761e-08
3.69271e-08
3.67269e-08
3.64994e-08
3.63206e-08
3.61134e-08
3.59539e-08
3.57653e-08
3.56205e-08
3.54478e-08
3.53199e-08
3.51595e-08
3.50461e-08
3.48989e-08
3.47953e-08
3.46598e-08
3.45658e-08
3.44416e-08
3.43549e-08
3.42426e-08
3.41618e-08
3.40571e-08
3.39832e-08
3.3887e-08
3.38203e-08
3.37326e-08
3.36729e-08
3.35894e-08
3.35316e-08
3.34493e-08
3.33927e-08
3.33112e-08
3.32554e-08
3.31747e-08
3.31193e-08
3.30406e-08
3.29854e-08
3.2909e-08
3.28555e-08
3.27795e-08
3.27288e-08
3.26531e-08
3.26037e-08
3.25288e-08
3.24776e-08
3.23983e-08
3.27966e-08
4.64912e-06
4.92641e-08
1.24171e-07
1.23573e-07
1.22069e-07
1.18783e-07
1.13892e-07
1.0808e-07
1.01982e-07
9.60403e-08
9.04748e-08
8.5393e-08
8.07979e-08
7.66852e-08
7.29961e-08
6.97077e-08
6.67532e-08
6.41157e-08
6.17322e-08
5.95976e-08
5.76543e-08
5.59087e-08
5.43069e-08
5.28642e-08
5.15295e-08
5.03254e-08
4.92015e-08
4.81871e-08
4.7231e-08
4.63696e-08
4.55496e-08
4.4812e-08
4.41028e-08
4.34676e-08
4.28499e-08
4.22992e-08
4.17573e-08
4.12776e-08
4.07992e-08
4.03794e-08
3.99552e-08
3.95865e-08
3.92083e-08
3.88835e-08
3.85447e-08
3.82568e-08
3.79518e-08
3.76968e-08
3.74213e-08
3.71942e-08
3.69441e-08
3.6743e-08
3.65145e-08
3.63348e-08
3.61267e-08
3.59664e-08
3.5777e-08
3.56315e-08
3.5458e-08
3.53295e-08
3.51683e-08
3.50543e-08
3.49065e-08
3.48023e-08
3.46663e-08
3.45718e-08
3.4447e-08
3.43598e-08
3.4247e-08
3.41658e-08
3.40606e-08
3.39864e-08
3.38897e-08
3.38226e-08
3.37344e-08
3.36745e-08
3.35905e-08
3.35325e-08
3.34497e-08
3.3393e-08
3.3311e-08
3.32551e-08
3.31741e-08
3.31186e-08
3.30394e-08
3.29842e-08
3.29072e-08
3.28537e-08
3.27772e-08
3.27264e-08
3.26503e-08
3.26008e-08
3.25253e-08
3.24743e-08
3.23948e-08
3.28031e-08
4.67874e-06
5.26011e-08
1.24169e-07
1.23568e-07
1.22081e-07
1.18826e-07
1.13973e-07
1.08192e-07
1.02116e-07
9.61882e-08
9.06293e-08
8.55486e-08
8.09514e-08
7.68341e-08
7.31393e-08
6.98442e-08
6.6883e-08
6.42384e-08
6.18481e-08
5.97069e-08
5.77573e-08
5.60057e-08
5.43983e-08
5.29502e-08
5.16105e-08
5.04017e-08
4.92735e-08
4.82549e-08
4.7295e-08
4.643e-08
4.56066e-08
4.48658e-08
4.41536e-08
4.35157e-08
4.28953e-08
4.23421e-08
4.17979e-08
4.1316e-08
4.08356e-08
4.04138e-08
3.99877e-08
3.96173e-08
3.92374e-08
3.8911e-08
3.85708e-08
3.82814e-08
3.7975e-08
3.77188e-08
3.7442e-08
3.72139e-08
3.69626e-08
3.67604e-08
3.65309e-08
3.63503e-08
3.61412e-08
3.59801e-08
3.57898e-08
3.56435e-08
3.54692e-08
3.534e-08
3.51781e-08
3.50634e-08
3.49149e-08
3.48102e-08
3.46735e-08
3.45784e-08
3.4453e-08
3.43653e-08
3.42519e-08
3.41704e-08
3.40646e-08
3.399e-08
3.38927e-08
3.38253e-08
3.37367e-08
3.36764e-08
3.35919e-08
3.35336e-08
3.34504e-08
3.33935e-08
3.3311e-08
3.3255e-08
3.31736e-08
3.31181e-08
3.30383e-08
3.29832e-08
3.29056e-08
3.2852e-08
3.2775e-08
3.27241e-08
3.26475e-08
3.2598e-08
3.25219e-08
3.24709e-08
3.23912e-08
3.281e-08
4.70507e-06
5.63275e-08
1.24166e-07
1.23563e-07
1.22092e-07
1.18872e-07
1.14057e-07
1.0831e-07
1.02259e-07
9.63449e-08
9.07931e-08
8.57139e-08
8.11146e-08
7.69926e-08
7.32917e-08
6.99897e-08
6.70213e-08
6.43693e-08
6.19719e-08
5.98236e-08
5.78675e-08
5.61094e-08
5.44961e-08
5.30422e-08
5.16973e-08
5.04834e-08
4.93505e-08
4.83276e-08
4.73636e-08
4.64947e-08
4.56678e-08
4.49235e-08
4.42082e-08
4.35672e-08
4.29441e-08
4.23883e-08
4.18415e-08
4.13573e-08
4.08747e-08
4.04508e-08
4.00227e-08
3.96505e-08
3.92688e-08
3.89407e-08
3.85988e-08
3.83081e-08
3.80001e-08
3.77426e-08
3.74645e-08
3.72352e-08
3.69826e-08
3.67794e-08
3.65488e-08
3.63672e-08
3.6157e-08
3.5995e-08
3.58038e-08
3.56567e-08
3.54814e-08
3.53516e-08
3.51888e-08
3.50734e-08
3.49241e-08
3.48188e-08
3.46814e-08
3.45858e-08
3.44597e-08
3.43715e-08
3.42575e-08
3.41755e-08
3.40692e-08
3.39942e-08
3.38963e-08
3.38286e-08
3.37394e-08
3.36788e-08
3.35938e-08
3.35352e-08
3.34515e-08
3.33943e-08
3.33113e-08
3.32552e-08
3.31734e-08
3.31178e-08
3.30375e-08
3.29824e-08
3.29042e-08
3.28505e-08
3.2773e-08
3.2722e-08
3.26449e-08
3.25952e-08
3.25186e-08
3.24676e-08
3.23877e-08
3.28172e-08
4.72705e-06
6.04748e-08
1.24164e-07
1.23558e-07
1.22104e-07
1.1892e-07
1.14146e-07
1.08434e-07
1.02408e-07
9.65105e-08
9.09665e-08
8.5889e-08
8.12876e-08
7.71608e-08
7.34537e-08
7.01444e-08
6.71685e-08
6.45087e-08
6.21038e-08
5.9948e-08
5.79848e-08
5.622e-08
5.46004e-08
5.31404e-08
5.17899e-08
5.05707e-08
4.94329e-08
4.84052e-08
4.7437e-08
4.6564e-08
4.57332e-08
4.49853e-08
4.42666e-08
4.36225e-08
4.29964e-08
4.24378e-08
4.18883e-08
4.14017e-08
4.09166e-08
4.04906e-08
4.00603e-08
3.96861e-08
3.93025e-08
3.89727e-08
3.86291e-08
3.83367e-08
3.80272e-08
3.77683e-08
3.74887e-08
3.72582e-08
3.70043e-08
3.67999e-08
3.65681e-08
3.63855e-08
3.61742e-08
3.60112e-08
3.5819e-08
3.56711e-08
3.54948e-08
3.53642e-08
3.52005e-08
3.50844e-08
3.49343e-08
3.48283e-08
3.46902e-08
3.4594e-08
3.44672e-08
3.43785e-08
3.42638e-08
3.41814e-08
3.40744e-08
3.3999e-08
3.39005e-08
3.38323e-08
3.37425e-08
3.36817e-08
3.35961e-08
3.35372e-08
3.34529e-08
3.33955e-08
3.3312e-08
3.32558e-08
3.31734e-08
3.31178e-08
3.30369e-08
3.29818e-08
3.29029e-08
3.28492e-08
3.27711e-08
3.272e-08
3.26423e-08
3.25926e-08
3.25153e-08
3.24644e-08
3.23842e-08
3.28247e-08
4.74355e-06
6.50731e-08
1.24162e-07
1.23552e-07
1.22117e-07
1.18969e-07
1.14239e-07
1.08564e-07
1.02566e-07
9.66849e-08
9.11495e-08
8.60741e-08
8.14708e-08
7.7339e-08
7.36255e-08
7.03085e-08
6.73247e-08
6.46568e-08
6.22439e-08
6.00803e-08
5.81098e-08
5.63377e-08
5.47114e-08
5.32451e-08
5.18887e-08
5.06638e-08
4.95208e-08
4.84881e-08
4.75153e-08
4.66379e-08
4.58031e-08
4.50514e-08
4.43291e-08
4.36816e-08
4.30523e-08
4.24907e-08
4.19385e-08
4.14492e-08
4.09616e-08
4.05332e-08
4.01007e-08
3.97244e-08
3.93388e-08
3.90071e-08
3.86616e-08
3.83676e-08
3.80564e-08
3.7796e-08
3.75149e-08
3.7283e-08
3.70277e-08
3.68221e-08
3.6589e-08
3.64053e-08
3.61928e-08
3.60288e-08
3.58355e-08
3.56867e-08
3.55094e-08
3.5378e-08
3.52133e-08
3.50964e-08
3.49455e-08
3.48389e-08
3.46999e-08
3.4603e-08
3.44756e-08
3.43862e-08
3.42708e-08
3.41879e-08
3.40803e-08
3.40044e-08
3.39053e-08
3.38367e-08
3.37463e-08
3.36851e-08
3.35989e-08
3.35397e-08
3.34548e-08
3.33971e-08
3.33131e-08
3.32566e-08
3.31738e-08
3.31181e-08
3.30366e-08
3.29816e-08
3.29019e-08
3.28481e-08
3.27695e-08
3.27183e-08
3.264e-08
3.25901e-08
3.25122e-08
3.24614e-08
3.23809e-08
3.28325e-08
4.75337e-06
7.01489e-08
1.24159e-07
1.23546e-07
1.22129e-07
1.19021e-07
1.14336e-07
1.087e-07
1.02732e-07
9.68684e-08
9.13423e-08
8.62694e-08
8.16643e-08
7.75274e-08
7.38073e-08
7.04824e-08
6.74904e-08
6.48138e-08
6.23926e-08
6.02207e-08
5.82425e-08
5.64628e-08
5.48295e-08
5.33564e-08
5.19938e-08
5.07629e-08
4.96144e-08
4.85765e-08
4.75988e-08
4.67167e-08
4.58777e-08
4.51219e-08
4.43959e-08
4.37447e-08
4.31121e-08
4.25474e-08
4.19921e-08
4.15e-08
4.10098e-08
4.05789e-08
4.0144e-08
3.97655e-08
3.93777e-08
3.9044e-08
3.86966e-08
3.84008e-08
3.80879e-08
3.78258e-08
3.75431e-08
3.73098e-08
3.7053e-08
3.68461e-08
3.66116e-08
3.64267e-08
3.6213e-08
3.60479e-08
3.58534e-08
3.57038e-08
3.55253e-08
3.5393e-08
3.52274e-08
3.51097e-08
3.49579e-08
3.48504e-08
3.47107e-08
3.46131e-08
3.44849e-08
3.43949e-08
3.42787e-08
3.41953e-08
3.4087e-08
3.40106e-08
3.39108e-08
3.38418e-08
3.37507e-08
3.36891e-08
3.36023e-08
3.35428e-08
3.34573e-08
3.33992e-08
3.33147e-08
3.3258e-08
3.31747e-08
3.31188e-08
3.30367e-08
3.29817e-08
3.29013e-08
3.28475e-08
3.27681e-08
3.27168e-08
3.26379e-08
3.25879e-08
3.25093e-08
3.24585e-08
3.23778e-08
3.28406e-08
4.75526e-06
7.57251e-08
1.24157e-07
1.2354e-07
1.22142e-07
1.19074e-07
1.14436e-07
1.08843e-07
1.02905e-07
9.7061e-08
9.1545e-08
8.64751e-08
8.18683e-08
7.77263e-08
7.39994e-08
7.06662e-08
6.76656e-08
6.49801e-08
6.25502e-08
6.03696e-08
5.83832e-08
5.65956e-08
5.49549e-08
5.34747e-08
5.21054e-08
5.08682e-08
4.97139e-08
4.86704e-08
4.76876e-08
4.68007e-08
4.59571e-08
4.5197e-08
4.4467e-08
4.38121e-08
4.31759e-08
4.26078e-08
4.20494e-08
4.15543e-08
4.10613e-08
4.06278e-08
4.01903e-08
3.98095e-08
3.94194e-08
3.90836e-08
3.87341e-08
3.84365e-08
3.81216e-08
3.78579e-08
3.75734e-08
3.73386e-08
3.70802e-08