/*--------------------------------*- C++ -*----------------------------------*\
| =========                 |                                                 |
| \\      /  F ield         | OpenFOAM: The Open Source CFD Toolbox           |
|  \\    /   O peration     | Version:  v2012                                 |
|   \\  /    A nd           | Website:  www.openfoam.com                      |
|    \\/     M anipulation  |                                                 |
\*---------------------------------------------------------------------------*/
FoamFile
{
    version     2.0;
    format      ascii;
    class       volVectorField;
    location    "53.5";
    object      wallShearStress;
}
// * * * * * * * * * * * * * * * * * * * * * * * * * * * * * * * * * * * * * //

dimensions      [0 2 -2 0 0 0 0];


internalField   uniform (0 0 0);

boundaryField
{
    inlet
    {
        type            calculated;
        value           uniform (0 0 0);
    }
    outlet
    {
        type            calculated;
        value           uniform (0 0 0);
    }
    topWall
    {
        type            calculated;
        value           nonuniform List<vector> 
545
(
(6.95919e-08 -4.89854e-08 0)
(6.95721e-08 -1.3704e-07 0)
(6.95278e-08 -2.28598e-07 0)
(6.94664e-08 -3.17499e-07 0)
(6.93912e-08 -4.02607e-07 0)
(6.93026e-08 -4.85015e-07 0)
(6.92017e-08 -5.65424e-07 0)
(6.90891e-08 -6.43795e-07 0)
(6.8966e-08 -7.19958e-07 0)
(6.88332e-08 -7.93909e-07 0)
(6.86917e-08 -8.65747e-07 0)
(6.85424e-08 -9.35554e-07 0)
(6.83859e-08 -1.00338e-06 0)
(6.82232e-08 -1.06926e-06 0)
(6.80548e-08 -1.13324e-06 0)
(6.78814e-08 -1.19538e-06 0)
(6.77036e-08 -1.25573e-06 0)
(6.75221e-08 -1.31433e-06 0)
(6.73373e-08 -1.37122e-06 0)
(6.71498e-08 -1.42647e-06 0)
(6.69599e-08 -1.4801e-06 0)
(6.67683e-08 -1.53218e-06 0)
(6.65752e-08 -1.58273e-06 0)
(6.6381e-08 -1.63181e-06 0)
(6.61861e-08 -1.67945e-06 0)
(6.59909e-08 -1.7257e-06 0)
(6.57955e-08 -1.7706e-06 0)
(6.56004e-08 -1.81419e-06 0)
(6.54058e-08 -1.8565e-06 0)
(6.52118e-08 -1.89757e-06 0)
(6.50188e-08 -1.93744e-06 0)
(6.48269e-08 -1.97614e-06 0)
(6.46362e-08 -2.01371e-06 0)
(6.44471e-08 -2.05019e-06 0)
(6.42596e-08 -2.0856e-06 0)
(6.40738e-08 -2.11997e-06 0)
(6.389e-08 -2.15334e-06 0)
(6.37081e-08 -2.18574e-06 0)
(6.35284e-08 -2.2172e-06 0)
(6.33509e-08 -2.24774e-06 0)
(6.31756e-08 -2.27739e-06 0)
(6.30027e-08 -2.30618e-06 0)
(6.28321e-08 -2.33414e-06 0)
(6.26641e-08 -2.36128e-06 0)
(6.24986e-08 -2.38764e-06 0)
(6.23356e-08 -2.41324e-06 0)
(6.21752e-08 -2.43809e-06 0)
(6.20174e-08 -2.46223e-06 0)
(6.18622e-08 -2.48568e-06 0)
(6.17097e-08 -2.50845e-06 0)
(6.15597e-08 -2.53056e-06 0)
(6.14125e-08 -2.55204e-06 0)
(6.12679e-08 -2.5729e-06 0)
(6.1126e-08 -2.59317e-06 0)
(6.09867e-08 -2.61285e-06 0)
(6.085e-08 -2.63198e-06 0)
(6.07159e-08 -2.65056e-06 0)
(6.05845e-08 -2.6686e-06 0)
(6.04556e-08 -2.68614e-06 0)
(6.03293e-08 -2.70318e-06 0)
(6.02055e-08 -2.71973e-06 0)
(6.00842e-08 -2.73581e-06 0)
(5.99654e-08 -2.75144e-06 0)
(5.98491e-08 -2.76663e-06 0)
(5.97352e-08 -2.78139e-06 0)
(5.96237e-08 -2.79573e-06 0)
(5.95145e-08 -2.80966e-06 0)
(5.94077e-08 -2.82321e-06 0)
(5.93031e-08 -2.83638e-06 0)
(5.92008e-08 -2.84917e-06 0)
(5.91007e-08 -2.86161e-06 0)
(5.90031e-08 -2.87368e-06 0)
(5.89082e-08 -2.8853e-06 0)
(5.88156e-08 -2.89657e-06 0)
(5.87239e-08 -2.90771e-06 0)
(5.86325e-08 -2.91881e-06 0)
(5.85413e-08 -2.92985e-06 0)
(5.84501e-08 -2.94082e-06 0)
(5.8359e-08 -2.95173e-06 0)
(5.8268e-08 -2.96256e-06 0)
(5.81771e-08 -2.97333e-06 0)
(5.80863e-08 -2.98404e-06 0)
(5.79956e-08 -2.99467e-06 0)
(5.7905e-08 -3.00525e-06 0)
(5.78145e-08 -3.01576e-06 0)
(5.77241e-08 -3.0262e-06 0)
(5.76338e-08 -3.03658e-06 0)
(5.75437e-08 -3.0469e-06 0)
(5.74536e-08 -3.05715e-06 0)
(5.73637e-08 -3.06734e-06 0)
(5.72739e-08 -3.07747e-06 0)
(5.71843e-08 -3.08753e-06 0)
(5.70948e-08 -3.09754e-06 0)
(5.70054e-08 -3.10747e-06 0)
(5.69163e-08 -3.11738e-06 0)
(5.68277e-08 -3.12711e-06 0)
(5.67433e-08 -3.13601e-06 0)
(5.66663e-08 -3.1441e-06 0)
(5.65927e-08 -3.15196e-06 0)
(5.65194e-08 -3.15985e-06 0)
(5.6446e-08 -3.16782e-06 0)
(5.63722e-08 -3.17581e-06 0)
(5.62981e-08 -3.1838e-06 0)
(5.62237e-08 -3.19178e-06 0)
(5.61489e-08 -3.19977e-06 0)
(5.60737e-08 -3.20777e-06 0)
(5.59982e-08 -3.21579e-06 0)
(5.59223e-08 -3.22381e-06 0)
(5.58461e-08 -3.23183e-06 0)
(5.57696e-08 -3.23987e-06 0)
(5.56926e-08 -3.24791e-06 0)
(5.56153e-08 -3.25596e-06 0)
(5.55377e-08 -3.26402e-06 0)
(5.54597e-08 -3.27209e-06 0)
(5.53814e-08 -3.28016e-06 0)
(5.53026e-08 -3.28824e-06 0)
(5.52236e-08 -3.29633e-06 0)
(5.51441e-08 -3.30443e-06 0)
(5.50643e-08 -3.31253e-06 0)
(5.49841e-08 -3.32064e-06 0)
(5.49036e-08 -3.32876e-06 0)
(5.48227e-08 -3.33689e-06 0)
(5.47414e-08 -3.34502e-06 0)
(5.46598e-08 -3.35316e-06 0)
(5.45778e-08 -3.3613e-06 0)
(5.44954e-08 -3.36946e-06 0)
(5.44127e-08 -3.37762e-06 0)
(5.43296e-08 -3.38579e-06 0)
(5.42461e-08 -3.39396e-06 0)
(5.41622e-08 -3.40214e-06 0)
(5.4078e-08 -3.41033e-06 0)
(5.39933e-08 -3.41852e-06 0)
(5.39083e-08 -3.42672e-06 0)
(5.3823e-08 -3.43493e-06 0)
(5.37372e-08 -3.44314e-06 0)
(5.36511e-08 -3.45136e-06 0)
(5.35646e-08 -3.45959e-06 0)
(5.34777e-08 -3.46782e-06 0)
(5.33904e-08 -3.47605e-06 0)
(5.33028e-08 -3.4843e-06 0)
(5.32147e-08 -3.49255e-06 0)
(5.31263e-08 -3.5008e-06 0)
(5.30375e-08 -3.50906e-06 0)
(5.29483e-08 -3.51733e-06 0)
(5.28587e-08 -3.5256e-06 0)
(5.27687e-08 -3.53388e-06 0)
(5.26784e-08 -3.54216e-06 0)
(5.25876e-08 -3.55045e-06 0)
(5.24965e-08 -3.55874e-06 0)
(5.2405e-08 -3.56704e-06 0)
(5.2313e-08 -3.57534e-06 0)
(5.22207e-08 -3.58365e-06 0)
(5.2128e-08 -3.59196e-06 0)
(5.20349e-08 -3.60028e-06 0)
(5.19414e-08 -3.6086e-06 0)
(5.18475e-08 -3.61693e-06 0)
(5.17532e-08 -3.62526e-06 0)
(5.16585e-08 -3.6336e-06 0)
(5.15634e-08 -3.64193e-06 0)
(5.1468e-08 -3.65028e-06 0)
(5.13721e-08 -3.65863e-06 0)
(5.12758e-08 -3.66698e-06 0)
(5.11791e-08 -3.67534e-06 0)
(5.1082e-08 -3.6837e-06 0)
(5.09845e-08 -3.69206e-06 0)
(5.08867e-08 -3.70043e-06 0)
(5.07884e-08 -3.7088e-06 0)
(5.06897e-08 -3.71718e-06 0)
(5.05906e-08 -3.72555e-06 0)
(5.04911e-08 -3.73393e-06 0)
(5.03912e-08 -3.74232e-06 0)
(5.02909e-08 -3.75071e-06 0)
(5.01901e-08 -3.7591e-06 0)
(5.0089e-08 -3.76749e-06 0)
(4.99875e-08 -3.77589e-06 0)
(4.98855e-08 -3.78429e-06 0)
(4.97832e-08 -3.79269e-06 0)
(4.96804e-08 -3.80109e-06 0)
(4.95773e-08 -3.8095e-06 0)
(4.94737e-08 -3.81791e-06 0)
(4.93697e-08 -3.82632e-06 0)
(4.92653e-08 -3.83473e-06 0)
(4.91605e-08 -3.84315e-06 0)
(4.90553e-08 -3.85156e-06 0)
(4.89497e-08 -3.85998e-06 0)
(4.88437e-08 -3.8684e-06 0)
(4.87372e-08 -3.87683e-06 0)
(4.86304e-08 -3.88525e-06 0)
(4.85231e-08 -3.89367e-06 0)
(4.84155e-08 -3.9021e-06 0)
(4.83074e-08 -3.91053e-06 0)
(4.81989e-08 -3.91895e-06 0)
(4.809e-08 -3.92738e-06 0)
(4.79806e-08 -3.93581e-06 0)
(4.78709e-08 -3.94424e-06 0)
(4.77607e-08 -3.95267e-06 0)
(4.76502e-08 -3.9611e-06 0)
(4.75392e-08 -3.96953e-06 0)
(4.74278e-08 -3.97796e-06 0)
(4.7316e-08 -3.98639e-06 0)
(4.72038e-08 -3.99483e-06 0)
(4.70912e-08 -4.00326e-06 0)
(4.69781e-08 -4.01169e-06 0)
(4.68647e-08 -4.02012e-06 0)
(4.67508e-08 -4.02855e-06 0)
(4.66365e-08 -4.03698e-06 0)
(4.65218e-08 -4.0454e-06 0)
(4.64068e-08 -4.05383e-06 0)
(4.62912e-08 -4.06225e-06 0)
(4.61753e-08 -4.07068e-06 0)
(4.6059e-08 -4.0791e-06 0)
(4.59422e-08 -4.08752e-06 0)
(4.58251e-08 -4.09594e-06 0)
(4.57075e-08 -4.10436e-06 0)
(4.55895e-08 -4.11278e-06 0)
(4.54711e-08 -4.12119e-06 0)
(4.53523e-08 -4.12961e-06 0)
(4.52331e-08 -4.13802e-06 0)
(4.51135e-08 -4.14642e-06 0)
(4.49934e-08 -4.15483e-06 0)
(4.4873e-08 -4.16323e-06 0)
(4.47521e-08 -4.17163e-06 0)
(4.46309e-08 -4.18003e-06 0)
(4.45092e-08 -4.18842e-06 0)
(4.43872e-08 -4.19681e-06 0)
(4.42647e-08 -4.2052e-06 0)
(4.41418e-08 -4.21358e-06 0)
(4.40185e-08 -4.22196e-06 0)
(4.38948e-08 -4.23034e-06 0)
(4.37707e-08 -4.23871e-06 0)
(4.36462e-08 -4.24708e-06 0)
(4.35213e-08 -4.25544e-06 0)
(4.3396e-08 -4.2638e-06 0)
(4.32703e-08 -4.27216e-06 0)
(4.31442e-08 -4.28051e-06 0)
(4.30177e-08 -4.28885e-06 0)
(4.28908e-08 -4.29719e-06 0)
(4.27636e-08 -4.30553e-06 0)
(4.26359e-08 -4.31386e-06 0)
(4.25078e-08 -4.32218e-06 0)
(4.23793e-08 -4.3305e-06 0)
(4.22504e-08 -4.33882e-06 0)
(4.21212e-08 -4.34713e-06 0)
(4.19915e-08 -4.35543e-06 0)
(4.18615e-08 -4.36372e-06 0)
(4.1731e-08 -4.37201e-06 0)
(4.16002e-08 -4.3803e-06 0)
(4.1469e-08 -4.38857e-06 0)
(4.13374e-08 -4.39684e-06 0)
(4.12054e-08 -4.40511e-06 0)
(4.10731e-08 -4.41336e-06 0)
(4.09403e-08 -4.42161e-06 0)
(4.08072e-08 -4.42985e-06 0)
(4.06737e-08 -4.43808e-06 0)
(4.05398e-08 -4.44631e-06 0)
(4.04055e-08 -4.45453e-06 0)
(4.02709e-08 -4.46274e-06 0)
(4.01359e-08 -4.47094e-06 0)
(4.00005e-08 -4.47913e-06 0)
(3.98648e-08 -4.48732e-06 0)
(3.97287e-08 -4.4955e-06 0)
(3.95922e-08 -4.50366e-06 0)
(3.94553e-08 -4.51182e-06 0)
(3.93181e-08 -4.51997e-06 0)
(3.91805e-08 -4.52811e-06 0)
(3.90426e-08 -4.53625e-06 0)
(3.89044e-08 -4.54436e-06 0)
(3.87659e-08 -4.55249e-06 0)
(3.86288e-08 -4.56054e-06 0)
(3.84941e-08 -4.56819e-06 0)
(3.83645e-08 -4.57549e-06 0)
(3.82385e-08 -4.58272e-06 0)
(3.81113e-08 -4.59e-06 0)
(3.7983e-08 -4.59738e-06 0)
(3.78533e-08 -4.60482e-06 0)
(3.77222e-08 -4.61231e-06 0)
(3.75896e-08 -4.61985e-06 0)
(3.74556e-08 -4.62745e-06 0)
(3.732e-08 -4.6351e-06 0)
(3.7183e-08 -4.6428e-06 0)
(3.70445e-08 -4.65056e-06 0)
(3.69045e-08 -4.65838e-06 0)
(3.6763e-08 -4.66625e-06 0)
(3.66199e-08 -4.67417e-06 0)
(3.64753e-08 -4.68215e-06 0)
(3.63291e-08 -4.69019e-06 0)
(3.61814e-08 -4.69827e-06 0)
(3.6032e-08 -4.70642e-06 0)
(3.58811e-08 -4.71461e-06 0)
(3.57285e-08 -4.72287e-06 0)
(3.55744e-08 -4.73117e-06 0)
(3.54185e-08 -4.73953e-06 0)
(3.52611e-08 -4.74794e-06 0)
(3.51019e-08 -4.75641e-06 0)
(3.49411e-08 -4.76493e-06 0)
(3.47786e-08 -4.7735e-06 0)
(3.46144e-08 -4.78212e-06 0)
(3.44484e-08 -4.7908e-06 0)
(3.42808e-08 -4.79953e-06 0)
(3.41114e-08 -4.80831e-06 0)
(3.39402e-08 -4.81714e-06 0)
(3.37673e-08 -4.82602e-06 0)
(3.35926e-08 -4.83495e-06 0)
(3.34162e-08 -4.84393e-06 0)
(3.32379e-08 -4.85296e-06 0)
(3.30578e-08 -4.86205e-06 0)
(3.28759e-08 -4.87117e-06 0)
(3.26922e-08 -4.88035e-06 0)
(3.25066e-08 -4.88958e-06 0)
(3.23191e-08 -4.89885e-06 0)
(3.21298e-08 -4.90816e-06 0)
(3.19387e-08 -4.91753e-06 0)
(3.17456e-08 -4.92694e-06 0)
(3.15507e-08 -4.93639e-06 0)
(3.13539e-08 -4.94588e-06 0)
(3.11551e-08 -4.95542e-06 0)
(3.09545e-08 -4.965e-06 0)
(3.07519e-08 -4.97463e-06 0)
(3.05474e-08 -4.98429e-06 0)
(3.0341e-08 -4.99399e-06 0)
(3.01326e-08 -5.00373e-06 0)
(2.99223e-08 -5.01351e-06 0)
(2.971e-08 -5.02332e-06 0)
(2.94958e-08 -5.03317e-06 0)
(2.92796e-08 -5.04305e-06 0)
(2.90614e-08 -5.05297e-06 0)
(2.88413e-08 -5.06292e-06 0)
(2.86192e-08 -5.07291e-06 0)
(2.83951e-08 -5.08292e-06 0)
(2.81691e-08 -5.09296e-06 0)
(2.7941e-08 -5.10302e-06 0)
(2.7711e-08 -5.11312e-06 0)
(2.7479e-08 -5.12324e-06 0)
(2.72451e-08 -5.13338e-06 0)
(2.70092e-08 -5.14354e-06 0)
(2.67713e-08 -5.15373e-06 0)
(2.65314e-08 -5.16393e-06 0)
(2.62896e-08 -5.17416e-06 0)
(2.60458e-08 -5.18439e-06 0)
(2.58001e-08 -5.19465e-06 0)
(2.55524e-08 -5.20491e-06 0)
(2.53029e-08 -5.21519e-06 0)
(2.50513e-08 -5.22547e-06 0)
(2.47979e-08 -5.23576e-06 0)
(2.45425e-08 -5.24606e-06 0)
(2.42853e-08 -5.25636e-06 0)
(2.40262e-08 -5.26666e-06 0)
(2.37652e-08 -5.27697e-06 0)
(2.35024e-08 -5.28727e-06 0)
(2.32377e-08 -5.29757e-06 0)
(2.29713e-08 -5.30785e-06 0)
(2.2703e-08 -5.31814e-06 0)
(2.24329e-08 -5.3284e-06 0)
(2.21612e-08 -5.33866e-06 0)
(2.18876e-08 -5.3489e-06 0)
(2.16124e-08 -5.35913e-06 0)
(2.13354e-08 -5.36933e-06 0)
(2.10569e-08 -5.37951e-06 0)
(2.07766e-08 -5.38966e-06 0)
(2.04948e-08 -5.39979e-06 0)
(2.02114e-08 -5.40988e-06 0)
(1.99265e-08 -5.41995e-06 0)
(1.96401e-08 -5.42997e-06 0)
(1.93522e-08 -5.43997e-06 0)
(1.90629e-08 -5.44991e-06 0)
(1.87722e-08 -5.45982e-06 0)
(1.84801e-08 -5.46967e-06 0)
(1.81867e-08 -5.47948e-06 0)
(1.7892e-08 -5.48924e-06 0)
(1.75962e-08 -5.49894e-06 0)
(1.72991e-08 -5.50858e-06 0)
(1.7001e-08 -5.51816e-06 0)
(1.67017e-08 -5.52767e-06 0)
(1.64014e-08 -5.53712e-06 0)
(1.61001e-08 -5.54649e-06 0)
(1.57979e-08 -5.55579e-06 0)
(1.54949e-08 -5.56501e-06 0)
(1.5191e-08 -5.57416e-06 0)
(1.48864e-08 -5.58321e-06 0)
(1.45811e-08 -5.59218e-06 0)
(1.42752e-08 -5.60106e-06 0)
(1.39687e-08 -5.60985e-06 0)
(1.36617e-08 -5.61853e-06 0)
(1.33544e-08 -5.62712e-06 0)
(1.30466e-08 -5.63559e-06 0)
(1.27386e-08 -5.64397e-06 0)
(1.24303e-08 -5.65222e-06 0)
(1.2122e-08 -5.66037e-06 0)
(1.18135e-08 -5.66839e-06 0)
(1.15051e-08 -5.6763e-06 0)
(1.11968e-08 -5.68407e-06 0)
(1.08887e-08 -5.69173e-06 0)
(1.05808e-08 -5.69924e-06 0)
(1.02733e-08 -5.70662e-06 0)
(9.96618e-09 -5.71385e-06 0)
(9.65961e-09 -5.72095e-06 0)
(9.35362e-09 -5.72789e-06 0)
(9.04835e-09 -5.73469e-06 0)
(8.74384e-09 -5.74133e-06 0)
(8.44023e-09 -5.74782e-06 0)
(8.13756e-09 -5.75413e-06 0)
(7.83598e-09 -5.76029e-06 0)
(7.53553e-09 -5.76627e-06 0)
(7.23635e-09 -5.7721e-06 0)
(6.93849e-09 -5.77773e-06 0)
(6.6421e-09 -5.7832e-06 0)
(6.34724e-09 -5.78847e-06 0)
(6.05403e-09 -5.79357e-06 0)
(5.76255e-09 -5.79847e-06 0)
(5.47291e-09 -5.80319e-06 0)
(5.18521e-09 -5.8077e-06 0)
(4.89955e-09 -5.81203e-06 0)
(4.61602e-09 -5.81614e-06 0)
(4.33474e-09 -5.82006e-06 0)
(4.05579e-09 -5.82376e-06 0)
(3.7793e-09 -5.82727e-06 0)
(3.50533e-09 -5.83055e-06 0)
(3.23402e-09 -5.83363e-06 0)
(2.96543e-09 -5.83647e-06 0)
(2.69969e-09 -5.83911e-06 0)
(2.43689e-09 -5.84151e-06 0)
(2.17712e-09 -5.84371e-06 0)
(1.92048e-09 -5.84566e-06 0)
(1.66708e-09 -5.8474e-06 0)
(1.41699e-09 -5.84889e-06 0)
(1.17032e-09 -5.85017e-06 0)
(9.27146e-10 -5.85119e-06 0)
(6.87574e-10 -5.852e-06 0)
(4.51682e-10 -5.85255e-06 0)
(2.19561e-10 -5.85288e-06 0)
(-8.70913e-12 -5.85295e-06 0)
(-2.33044e-10 -5.8528e-06 0)
(-4.53364e-10 -5.85238e-06 0)
(-6.69594e-10 -5.85175e-06 0)
(-8.81654e-10 -5.85084e-06 0)
(-1.08948e-09 -5.84972e-06 0)
(-1.29299e-09 -5.84833e-06 0)
(-1.49212e-09 -5.84672e-06 0)
(-1.6868e-09 -5.84484e-06 0)
(-1.87698e-09 -5.84274e-06 0)
(-2.06259e-09 -5.84037e-06 0)
(-2.24357e-09 -5.83779e-06 0)
(-2.41986e-09 -5.83493e-06 0)
(-2.59141e-09 -5.83185e-06 0)
(-2.75816e-09 -5.82851e-06 0)
(-2.92008e-09 -5.82496e-06 0)
(-3.07702e-09 -5.82113e-06 0)
(-3.22936e-09 -5.81711e-06 0)
(-3.37553e-09 -5.81279e-06 0)
(-3.52261e-09 -5.80826e-06 0)
(-3.67473e-09 -5.803e-06 0)
(-3.82729e-09 -5.79695e-06 0)
(-3.97596e-09 -5.79054e-06 0)
(-4.11623e-09 -5.78397e-06 0)
(-4.24796e-09 -5.77715e-06 0)
(-4.37132e-09 -5.77017e-06 0)
(-4.48646e-09 -5.76294e-06 0)
(-4.59364e-09 -5.75558e-06 0)
(-4.69305e-09 -5.74801e-06 0)
(-4.78502e-09 -5.74033e-06 0)
(-4.86973e-09 -5.73247e-06 0)
(-4.9475e-09 -5.72452e-06 0)
(-5.01847e-09 -5.7164e-06 0)
(-5.08296e-09 -5.70822e-06 0)
(-5.1411e-09 -5.69989e-06 0)
(-5.19319e-09 -5.69152e-06 0)
(-5.23936e-09 -5.68303e-06 0)
(-5.27989e-09 -5.67451e-06 0)
(-5.31489e-09 -5.66589e-06 0)
(-5.34463e-09 -5.65726e-06 0)
(-5.36921e-09 -5.64854e-06 0)
(-5.38889e-09 -5.63984e-06 0)
(-5.40374e-09 -5.63105e-06 0)
(-5.41403e-09 -5.6223e-06 0)
(-5.4198e-09 -5.61348e-06 0)
(-5.42131e-09 -5.60471e-06 0)
(-5.41861e-09 -5.59589e-06 0)
(-5.41192e-09 -5.58713e-06 0)
(-5.4013e-09 -5.57833e-06 0)
(-5.38694e-09 -5.5696e-06 0)
(-5.3689e-09 -5.56085e-06 0)
(-5.34737e-09 -5.55218e-06 0)
(-5.32238e-09 -5.5435e-06 0)
(-5.29413e-09 -5.53492e-06 0)
(-5.26263e-09 -5.52633e-06 0)
(-5.22808e-09 -5.51784e-06 0)
(-5.19047e-09 -5.50937e-06 0)
(-5.15e-09 -5.501e-06 0)
(-5.10665e-09 -5.49266e-06 0)
(-5.06061e-09 -5.48444e-06 0)
(-5.01187e-09 -5.47624e-06 0)
(-4.96059e-09 -5.46818e-06 0)
(-4.90676e-09 -5.46015e-06 0)
(-4.85055e-09 -5.45226e-06 0)
(-4.79194e-09 -5.44442e-06 0)
(-4.73107e-09 -5.43671e-06 0)
(-4.66793e-09 -5.42907e-06 0)
(-4.60266e-09 -5.42157e-06 0)
(-4.53526e-09 -5.41414e-06 0)
(-4.46584e-09 -5.40686e-06 0)
(-4.39439e-09 -5.39965e-06 0)
(-4.32105e-09 -5.3926e-06 0)
(-4.24578e-09 -5.38563e-06 0)
(-4.16872e-09 -5.37882e-06 0)
(-4.08984e-09 -5.3721e-06 0)
(-4.00926e-09 -5.36555e-06 0)
(-3.92696e-09 -5.3591e-06 0)
(-3.84305e-09 -5.35281e-06 0)
(-3.75751e-09 -5.34663e-06 0)
(-3.67045e-09 -5.34062e-06 0)
(-3.58186e-09 -5.33471e-06 0)
(-3.49183e-09 -5.32899e-06 0)
(-3.40035e-09 -5.32338e-06 0)
(-3.30751e-09 -5.31796e-06 0)
(-3.21332e-09 -5.31265e-06 0)
(-3.11784e-09 -5.30752e-06 0)
(-3.02109e-09 -5.30252e-06 0)
(-2.92315e-09 -5.29771e-06 0)
(-2.82401e-09 -5.29303e-06 0)
(-2.72375e-09 -5.28854e-06 0)
(-2.62238e-09 -5.28419e-06 0)
(-2.51996e-09 -5.28003e-06 0)
(-2.41652e-09 -5.276e-06 0)
(-2.31212e-09 -5.27217e-06 0)
(-2.20677e-09 -5.26849e-06 0)
(-2.10054e-09 -5.265e-06 0)
(-1.99344e-09 -5.26166e-06 0)
(-1.88553e-09 -5.25852e-06 0)
(-1.77685e-09 -5.25553e-06 0)
(-1.66743e-09 -5.25274e-06 0)
(-1.55732e-09 -5.2501e-06 0)
(-1.44656e-09 -5.24767e-06 0)
(-1.33518e-09 -5.24539e-06 0)
(-1.22324e-09 -5.24332e-06 0)
(-1.11077e-09 -5.2414e-06 0)
(-9.97823e-10 -5.23972e-06 0)
(-8.84445e-10 -5.23806e-06 0)
(-7.70704e-10 -5.23708e-06 0)
(-6.56608e-10 -5.23469e-06 0)
(-5.4237e-10 -5.23768e-06 0)
(-4.27639e-10 -5.22327e-06 0)
(-3.13558e-10 -5.26517e-06 0)
(-1.98179e-10 -5.10713e-06 0)
(-8.31533e-11 -5.52637e-06 0)
(-1.35309e-11 -4.8267e-06 0)
)
;
    }
    bottomWall
    {
        type            calculated;
        value           nonuniform List<vector> 
449
(
(-52.6885 -0.95538 0)
(-34.7233 -0.00279737 0)
(-34.339 -0.000253472 0)
(-32.9794 -0.000362726 0)
(-31.8556 -0.000314804 0)
(-30.8202 -0.000283992 0)
(-29.9038 -0.000249068 0)
(-29.1048 -0.000217166 0)
(-28.4048 -0.000190633 0)
(-27.786 -0.000168889 0)
(-27.2339 -0.000150891 0)
(-26.7375 -0.000135806 0)
(-26.288 -0.000123166 0)
(-25.8778 -0.000112496 0)
(-25.501 -0.000103291 0)
(-25.1534 -9.52928e-05 0)
(-24.8312 -8.83076e-05 0)
(-24.5313 -8.21774e-05 0)
(-24.251 -7.67762e-05 0)
(-23.988 -7.19597e-05 0)
(-23.7405 -6.76393e-05 0)
(-23.5071 -6.3753e-05 0)
(-23.2862 -6.02461e-05 0)
(-23.0768 -5.70646e-05 0)
(-22.8777 -5.41692e-05 0)
(-22.688 -5.15123e-05 0)
(-22.5071 -4.90773e-05 0)
(-22.3342 -4.68382e-05 0)
(-22.1687 -4.47728e-05 0)
(-22.0099 -4.28572e-05 0)
(-21.8575 -4.10812e-05 0)
(-21.711 -3.94289e-05 0)
(-21.5699 -3.78908e-05 0)
(-21.434 -3.64498e-05 0)
(-21.3028 -3.51044e-05 0)
(-21.1761 -3.38399e-05 0)
(-21.0537 -3.26569e-05 0)
(-20.9351 -3.15462e-05 0)
(-20.8203 -3.04988e-05 0)
(-20.709 -2.9512e-05 0)
(-20.601 -2.85805e-05 0)
(-20.4961 -2.77015e-05 0)
(-20.3942 -2.68661e-05 0)
(-20.2951 -2.60705e-05 0)
(-20.1986 -2.53148e-05 0)
(-20.1047 -2.45891e-05 0)
(-20.0133 -2.3898e-05 0)
(-19.9242 -2.3241e-05 0)
(-19.8373 -2.26043e-05 0)
(-19.7527 -2.20046e-05 0)
(-19.6699 -2.14255e-05 0)
(-19.5893 -2.0874e-05 0)
(-19.5104 -2.0349e-05 0)
(-19.4334 -1.98427e-05 0)
(-19.358 -1.93616e-05 0)
(-19.2844 -1.8898e-05 0)
(-19.2122 -1.84564e-05 0)
(-19.1416 -1.80321e-05 0)
(-19.0725 -1.7625e-05 0)
(-19.0047 -1.72337e-05 0)
(-18.9382 -1.6857e-05 0)
(-18.8731 -1.64957e-05 0)
(-18.8092 -1.61463e-05 0)
(-18.7465 -1.58117e-05 0)
(-18.6849 -1.54872e-05 0)
(-18.6244 -1.51758e-05 0)
(-18.565 -1.4874e-05 0)
(-18.5067 -1.45822e-05 0)
(-18.4493 -1.43018e-05 0)
(-18.3929 -1.40268e-05 0)
(-18.3375 -1.37655e-05 0)
(-18.2829 -1.35074e-05 0)
(-18.2293 -1.32608e-05 0)
(-18.1764 -1.302e-05 0)
(-18.1245 -1.27858e-05 0)
(-18.0733 -1.25609e-05 0)
(-18.0229 -1.23387e-05 0)
(-17.9733 -1.21265e-05 0)
(-17.9244 -1.19186e-05 0)
(-17.8762 -1.17157e-05 0)
(-17.8287 -1.15208e-05 0)
(-17.782 -1.13283e-05 0)
(-17.7358 -1.11427e-05 0)
(-17.6904 -1.09625e-05 0)
(-17.6455 -1.07847e-05 0)
(-17.6013 -1.06139e-05 0)
(-17.5577 -1.04468e-05 0)
(-17.5146 -1.02827e-05 0)
(-17.4721 -1.01249e-05 0)
(-17.4302 -9.96957e-06 0)
(-17.3888 -9.81784e-06 0)
(-17.348 -9.67155e-06 0)
(-17.3076 -9.52726e-06 0)
(-17.2678 -9.38652e-06 0)
(-17.2284 -9.25046e-06 0)
(-17.1896 -9.11628e-06 0)
(-17.1512 -8.98532e-06 0)
(-17.1132 -8.85855e-06 0)
(-17.0757 -8.73363e-06 0)
(-17.0387 -8.61148e-06 0)
(-17.0021 -8.49306e-06 0)
(-16.9659 -8.37665e-06 0)
(-16.9301 -8.26244e-06 0)
(-16.8947 -8.15157e-06 0)
(-16.8597 -8.04297e-06 0)
(-16.8251 -7.93599e-06 0)
(-16.7908 -7.83196e-06 0)
(-16.7569 -7.73037e-06 0)
(-16.7234 -7.63016e-06 0)
(-16.6903 -7.53233e-06 0)
(-16.6574 -7.43698e-06 0)
(-16.625 -7.3431e-06 0)
(-16.5928 -7.25094e-06 0)
(-16.561 -7.16115e-06 0)
(-16.5295 -7.07313e-06 0)
(-16.4983 -6.98631e-06 0)
(-16.4674 -6.90154e-06 0)
(-16.4369 -6.81866e-06 0)
(-16.4066 -6.73708e-06 0)
(-16.3766 -6.6569e-06 0)
(-16.3469 -6.57859e-06 0)
(-16.3175 -6.50175e-06 0)
(-16.2883 -6.42605e-06 0)
(-16.2594 -6.35181e-06 0)
(-16.2308 -6.27923e-06 0)
(-16.2025 -6.20781e-06 0)
(-16.1744 -6.13749e-06 0)
(-16.1465 -6.06859e-06 0)
(-16.1189 -6.00106e-06 0)
(-16.0915 -5.93457e-06 0)
(-16.0644 -5.86913e-06 0)
(-16.0375 -5.80499e-06 0)
(-16.0109 -5.74201e-06 0)
(-15.9844 -5.68001e-06 0)
(-15.9582 -5.61898e-06 0)
(-15.9322 -5.5591e-06 0)
(-15.9065 -5.50027e-06 0)
(-15.8809 -5.44236e-06 0)
(-15.8555 -5.38533e-06 0)
(-15.8304 -5.32933e-06 0)
(-15.8055 -5.27427e-06 0)
(-15.7807 -5.22007e-06 0)
(-15.7562 -5.16666e-06 0)
(-15.7318 -5.11418e-06 0)
(-15.7076 -5.06254e-06 0)
(-15.6836 -5.01173e-06 0)
(-15.6599 -4.96162e-06 0)
(-15.6362 -4.91238e-06 0)
(-15.6128 -4.86385e-06 0)
(-15.5895 -4.81615e-06 0)
(-15.5665 -4.76906e-06 0)
(-15.5435 -4.72279e-06 0)
(-15.5208 -4.67714e-06 0)
(-15.4982 -4.63227e-06 0)
(-15.4758 -4.58798e-06 0)
(-15.4535 -4.54439e-06 0)
(-15.4314 -4.5014e-06 0)
(-15.4095 -4.45909e-06 0)
(-15.3877 -4.41738e-06 0)
(-15.3661 -4.37625e-06 0)
(-15.3446 -4.33573e-06 0)
(-15.3233 -4.29576e-06 0)
(-15.3021 -4.2564e-06 0)
(-15.281 -4.21757e-06 0)
(-15.2601 -4.17931e-06 0)
(-15.2394 -4.14154e-06 0)
(-15.2187 -4.10437e-06 0)
(-15.1982 -4.06762e-06 0)
(-15.1779 -4.03158e-06 0)
(-15.1577 -3.99569e-06 0)
(-15.1376 -3.96066e-06 0)
(-15.1176 -3.92577e-06 0)
(-15.0978 -3.88932e-06 0)
(-15.0792 -3.85929e-06 0)
(-15.0617 -3.83257e-06 0)
(-15.0442 -3.80156e-06 0)
(-15.0266 -3.77118e-06 0)
(-15.0089 -3.74143e-06 0)
(-14.9912 -3.71159e-06 0)
(-14.9735 -3.68209e-06 0)
(-14.9557 -3.65268e-06 0)
(-14.9378 -3.62341e-06 0)
(-14.9199 -3.59427e-06 0)
(-14.902 -3.56528e-06 0)
(-14.884 -3.53638e-06 0)
(-14.866 -3.5076e-06 0)
(-14.8479 -3.47894e-06 0)
(-14.8297 -3.4504e-06 0)
(-14.8116 -3.42201e-06 0)
(-14.7933 -3.3937e-06 0)
(-14.7751 -3.36553e-06 0)
(-14.7567 -3.33746e-06 0)
(-14.7384 -3.30952e-06 0)
(-14.72 -3.28175e-06 0)
(-14.7015 -3.25404e-06 0)
(-14.683 -3.2265e-06 0)
(-14.6645 -3.19904e-06 0)
(-14.6459 -3.17176e-06 0)
(-14.6273 -3.14459e-06 0)
(-14.6087 -3.11754e-06 0)
(-14.59 -3.0906e-06 0)
(-14.5712 -3.0638e-06 0)
(-14.5524 -3.03715e-06 0)
(-14.5336 -3.01064e-06 0)
(-14.5148 -2.98423e-06 0)
(-14.4959 -2.95796e-06 0)
(-14.477 -2.93182e-06 0)
(-14.458 -2.90587e-06 0)
(-14.439 -2.87998e-06 0)
(-14.42 -2.85428e-06 0)
(-14.4009 -2.82866e-06 0)
(-14.3818 -2.80325e-06 0)
(-14.3626 -2.77792e-06 0)
(-14.3435 -2.75278e-06 0)
(-14.3243 -2.72768e-06 0)
(-14.305 -2.70283e-06 0)
(-14.2858 -2.67804e-06 0)
(-14.2665 -2.65348e-06 0)
(-14.2471 -2.62896e-06 0)
(-14.2278 -2.60466e-06 0)
(-14.2084 -2.58046e-06 0)
(-14.189 -2.55647e-06 0)
(-14.1696 -2.53252e-06 0)
(-14.1501 -2.5088e-06 0)
(-14.1306 -2.48516e-06 0)
(-14.1111 -2.46176e-06 0)
(-14.0915 -2.4384e-06 0)
(-14.072 -2.41523e-06 0)
(-14.0524 -2.39219e-06 0)
(-14.0327 -2.36933e-06 0)
(-14.0131 -2.34658e-06 0)
(-13.9934 -2.32398e-06 0)
(-13.9737 -2.30153e-06 0)
(-13.954 -2.27925e-06 0)
(-13.9343 -2.2571e-06 0)
(-13.9146 -2.23509e-06 0)
(-13.8948 -2.21322e-06 0)
(-13.875 -2.19153e-06 0)
(-13.8552 -2.16998e-06 0)
(-13.8354 -2.14855e-06 0)
(-13.8155 -2.12728e-06 0)
(-13.7957 -2.10616e-06 0)
(-13.7758 -2.0852e-06 0)
(-13.7559 -2.06434e-06 0)
(-13.736 -2.04369e-06 0)
(-13.7161 -2.02314e-06 0)
(-13.6961 -2.0028e-06 0)
(-13.6762 -1.98252e-06 0)
(-13.6562 -1.96248e-06 0)
(-13.6363 -1.9425e-06 0)
(-13.6163 -1.92276e-06 0)
(-13.5963 -1.90305e-06 0)
(-13.5763 -1.88361e-06 0)
(-13.5563 -1.86421e-06 0)
(-13.5362 -1.84507e-06 0)
(-13.5162 -1.82593e-06 0)
(-13.4961 -1.80709e-06 0)
(-13.4761 -1.78826e-06 0)
(-13.456 -1.76971e-06 0)
(-13.436 -1.75116e-06 0)
(-13.4159 -1.7329e-06 0)
(-13.3958 -1.71465e-06 0)
(-13.3758 -1.69667e-06 0)
(-13.3557 -1.67871e-06 0)
(-13.3356 -1.66103e-06 0)
(-13.3155 -1.64335e-06 0)
(-13.2954 -1.62594e-06 0)
(-13.2753 -1.60855e-06 0)
(-13.2552 -1.59143e-06 0)
(-13.2351 -1.57431e-06 0)
(-13.215 -1.55748e-06 0)
(-13.1949 -1.54066e-06 0)
(-13.1748 -1.52412e-06 0)
(-13.1547 -1.50756e-06 0)
(-13.1346 -1.49127e-06 0)
(-13.1145 -1.47502e-06 0)
(-13.0944 -1.45901e-06 0)
(-13.0743 -1.44304e-06 0)
(-13.0543 -1.42729e-06 0)
(-13.0342 -1.41161e-06 0)
(-13.0141 -1.39612e-06 0)
(-12.994 -1.38069e-06 0)
(-12.974 -1.36549e-06 0)
(-12.9539 -1.35036e-06 0)
(-12.9339 -1.3354e-06 0)
(-12.9138 -1.32053e-06 0)
(-12.8938 -1.30585e-06 0)
(-12.8737 -1.29126e-06 0)
(-12.8537 -1.27681e-06 0)
(-12.8337 -1.26249e-06 0)
(-12.8137 -1.2483e-06 0)
(-12.7937 -1.23424e-06 0)
(-12.7738 -1.22031e-06 0)
(-12.7538 -1.20653e-06 0)
(-12.7338 -1.19284e-06 0)
(-12.7139 -1.17931e-06 0)
(-12.6939 -1.16587e-06 0)
(-12.674 -1.15261e-06 0)
(-12.6541 -1.13942e-06 0)
(-12.6342 -1.12638e-06 0)
(-12.6143 -1.11345e-06 0)
(-12.5945 -1.10068e-06 0)
(-12.5746 -1.08797e-06 0)
(-12.5548 -1.07544e-06 0)
(-12.535 -1.063e-06 0)
(-12.5152 -1.05073e-06 0)
(-12.4954 -1.03848e-06 0)
(-12.4756 -1.02644e-06 0)
(-12.4559 -1.01445e-06 0)
(-12.4361 -1.00265e-06 0)
(-12.4164 -9.9089e-07 0)
(-12.3967 -9.79328e-07 0)
(-12.3771 -9.67796e-07 0)
(-12.3574 -9.56449e-07 0)
(-12.3378 -9.45163e-07 0)
(-12.3181 -9.34045e-07 0)
(-12.2986 -9.22966e-07 0)
(-12.279 -9.12064e-07 0)
(-12.2594 -9.01222e-07 0)
(-12.2399 -8.90543e-07 0)
(-12.2204 -8.79903e-07 0)
(-12.2009 -8.69442e-07 0)
(-12.1815 -8.59035e-07 0)
(-12.162 -8.48783e-07 0)
(-12.1426 -8.38578e-07 0)
(-12.1232 -8.28539e-07 0)
(-12.1039 -8.18551e-07 0)
(-12.0845 -8.08713e-07 0)
(-12.0652 -7.98941e-07 0)
(-12.0459 -7.89306e-07 0)
(-12.0267 -7.79725e-07 0)
(-12.0074 -7.70299e-07 0)
(-11.9882 -7.60927e-07 0)
(-11.9691 -7.51682e-07 0)
(-11.9499 -7.42508e-07 0)
(-11.9308 -7.33469e-07 0)
(-11.9117 -7.24493e-07 0)
(-11.8926 -7.15624e-07 0)
(-11.8736 -7.06845e-07 0)
(-11.8546 -6.98172e-07 0)
(-11.8356 -6.89577e-07 0)
(-11.8167 -6.81088e-07 0)
(-11.7977 -6.72692e-07 0)
(-11.7789 -6.64381e-07 0)
(-11.76 -6.56162e-07 0)
(-11.7412 -6.48029e-07 0)
(-11.7224 -6.39996e-07 0)
(-11.7036 -6.32028e-07 0)
(-11.6849 -6.24176e-07 0)
(-11.6662 -6.16353e-07 0)
(-11.6475 -6.08717e-07 0)
(-11.6289 -6.00953e-07 0)
(-11.6103 -5.93557e-07 0)
(-11.5917 -5.86204e-07 0)
(-11.5711 -5.77417e-07 0)
(-11.5487 -5.68194e-07 0)
(-11.5266 -5.59934e-07 0)
(-11.5049 -5.51842e-07 0)
(-11.4834 -5.43802e-07 0)
(-11.4623 -5.35981e-07 0)
(-11.4415 -5.28317e-07 0)
(-11.4209 -5.20843e-07 0)
(-11.4007 -5.13531e-07 0)
(-11.3807 -5.06402e-07 0)
(-11.3611 -4.9944e-07 0)
(-11.3416 -4.92648e-07 0)
(-11.3225 -4.85999e-07 0)
(-11.3036 -4.79521e-07 0)
(-11.285 -4.73179e-07 0)
(-11.2665 -4.66986e-07 0)
(-11.2484 -4.60932e-07 0)
(-11.2305 -4.55013e-07 0)
(-11.2128 -4.49232e-07 0)
(-11.1953 -4.43563e-07 0)
(-11.1781 -4.38032e-07 0)
(-11.161 -4.32609e-07 0)
(-11.1442 -4.27317e-07 0)
(-11.1275 -4.22114e-07 0)
(-11.1111 -4.17042e-07 0)
(-11.0949 -4.12057e-07 0)
(-11.0789 -4.0718e-07 0)
(-11.063 -4.0241e-07 0)
(-11.0474 -3.97734e-07 0)
(-11.0319 -3.9315e-07 0)
(-11.0166 -3.88665e-07 0)
(-11.0015 -3.84263e-07 0)
(-10.9865 -3.79947e-07 0)
(-10.9717 -3.75716e-07 0)
(-10.9571 -3.71565e-07 0)
(-10.9426 -3.67501e-07 0)
(-10.9283 -3.63513e-07 0)
(-10.9142 -3.596e-07 0)
(-10.9002 -3.55763e-07 0)
(-10.8863 -3.51996e-07 0)
(-10.8726 -3.48302e-07 0)
(-10.8591 -3.44679e-07 0)
(-10.8457 -3.41113e-07 0)
(-10.8324 -3.37628e-07 0)
(-10.8192 -3.34191e-07 0)
(-10.8062 -3.30828e-07 0)
(-10.7933 -3.27515e-07 0)
(-10.7806 -3.2427e-07 0)
(-10.768 -3.21074e-07 0)
(-10.7554 -3.17945e-07 0)
(-10.7431 -3.14862e-07 0)
(-10.7308 -3.11831e-07 0)
(-10.7187 -3.08863e-07 0)
(-10.7066 -3.05944e-07 0)
(-10.6947 -3.03073e-07 0)
(-10.6829 -3.00247e-07 0)
(-10.6712 -2.97482e-07 0)
(-10.6596 -2.94752e-07 0)
(-10.6481 -2.92089e-07 0)
(-10.6367 -2.89431e-07 0)
(-10.6255 -2.86873e-07 0)
(-10.6143 -2.84295e-07 0)
(-10.6032 -2.81841e-07 0)
(-10.5922 -2.79323e-07 0)
(-10.5814 -2.76979e-07 0)
(-10.5705 -2.74501e-07 0)
(-10.5599 -2.72296e-07 0)
(-10.5492 -2.69853e-07 0)
(-10.5387 -2.67771e-07 0)
(-10.5283 -2.65349e-07 0)
(-10.518 -2.63431e-07 0)
(-10.5076 -2.60986e-07 0)
(-10.4975 -2.59246e-07 0)
(-10.4873 -2.56774e-07 0)
(-10.4775 -2.55231e-07 0)
(-10.4674 -2.52713e-07 0)
(-10.4577 -2.51387e-07 0)
(-10.4477 -2.48824e-07 0)
(-10.4382 -2.47715e-07 0)
(-10.4283 -2.4514e-07 0)
(-10.419 -2.44201e-07 0)
(-10.4092 -2.4172e-07 0)
(-10.4001 -2.40789e-07 0)
(-10.3903 -2.38751e-07 0)
(-10.3814 -2.37287e-07 0)
(-10.3718 -2.3673e-07 0)
(-10.3629 -2.33003e-07 0)
(-10.3535 -2.37115e-07 0)
(-10.3443 -2.25597e-07 0)
(-10.3359 -2.44035e-07 0)
(-10.3251 -2.08073e-07 0)
(-10.3197 -2.64426e-07 0)
(-10.3043 -1.72708e-07 0)
(-10.3065 -2.38678e-07 0)
(-10.2851 -2.80103e-07 0)
)
;
    }
    symmetry
    {
        type            symmetryPlane;
    }
    frontAndBack
    {
        type            empty;
    }
}


// ************************************************************************* //
