/*--------------------------------*- C++ -*----------------------------------*\
| =========                 |                                                 |
| \\      /  F ield         | OpenFOAM: The Open Source CFD Toolbox           |
|  \\    /   O peration     | Version:  v2012                                 |
|   \\  /    A nd           | Website:  www.openfoam.com                      |
|    \\/     M anipulation  |                                                 |
\*---------------------------------------------------------------------------*/
FoamFile
{
    version     2.0;
    format      ascii;
    class       volVectorField;
    location    "53";
    object      wallShearStress;
}
// * * * * * * * * * * * * * * * * * * * * * * * * * * * * * * * * * * * * * //

dimensions      [0 2 -2 0 0 0 0];


internalField   uniform (0 0 0);

boundaryField
{
    inlet
    {
        type            calculated;
        value           uniform (0 0 0);
    }
    outlet
    {
        type            calculated;
        value           uniform (0 0 0);
    }
    topWall
    {
        type            calculated;
        value           nonuniform List<vector> 
545
(
(1.48728e-08 -1.04692e-08 0)
(1.4866e-08 -2.92889e-08 0)
(1.48522e-08 -4.8857e-08 0)
(1.48318e-08 -6.78512e-08 0)
(1.48056e-08 -8.60243e-08 0)
(1.47744e-08 -1.03608e-07 0)
(1.47385e-08 -1.20749e-07 0)
(1.46982e-08 -1.3744e-07 0)
(1.4654e-08 -1.53641e-07 0)
(1.46063e-08 -1.69353e-07 0)
(1.45555e-08 -1.84594e-07 0)
(1.45017e-08 -1.99382e-07 0)
(1.44455e-08 -2.13729e-07 0)
(1.4387e-08 -2.27641e-07 0)
(1.43266e-08 -2.4113e-07 0)
(1.42645e-08 -2.54207e-07 0)
(1.42009e-08 -2.66884e-07 0)
(1.4136e-08 -2.7917e-07 0)
(1.40701e-08 -2.91078e-07 0)
(1.40033e-08 -3.02616e-07 0)
(1.39359e-08 -3.13797e-07 0)
(1.38679e-08 -3.2463e-07 0)
(1.37996e-08 -3.35126e-07 0)
(1.3731e-08 -3.45295e-07 0)
(1.36624e-08 -3.55146e-07 0)
(1.35937e-08 -3.64689e-07 0)
(1.35252e-08 -3.73934e-07 0)
(1.34569e-08 -3.82889e-07 0)
(1.33889e-08 -3.91565e-07 0)
(1.33213e-08 -3.99968e-07 0)
(1.32542e-08 -4.0811e-07 0)
(1.31876e-08 -4.15996e-07 0)
(1.31216e-08 -4.23636e-07 0)
(1.30562e-08 -4.31038e-07 0)
(1.29916e-08 -4.38208e-07 0)
(1.29277e-08 -4.45155e-07 0)
(1.28646e-08 -4.51886e-07 0)
(1.28023e-08 -4.58407e-07 0)
(1.27408e-08 -4.64726e-07 0)
(1.26803e-08 -4.70848e-07 0)
(1.26206e-08 -4.76782e-07 0)
(1.25618e-08 -4.82531e-07 0)
(1.2504e-08 -4.88103e-07 0)
(1.24471e-08 -4.93504e-07 0)
(1.23912e-08 -4.98738e-07 0)
(1.23362e-08 -5.03811e-07 0)
(1.22822e-08 -5.08729e-07 0)
(1.22292e-08 -5.13496e-07 0)
(1.21772e-08 -5.18118e-07 0)
(1.21261e-08 -5.22599e-07 0)
(1.2076e-08 -5.26943e-07 0)
(1.20269e-08 -5.31156e-07 0)
(1.19787e-08 -5.35241e-07 0)
(1.19315e-08 -5.39203e-07 0)
(1.18853e-08 -5.43045e-07 0)
(1.184e-08 -5.46771e-07 0)
(1.17957e-08 -5.50385e-07 0)
(1.17522e-08 -5.53891e-07 0)
(1.17097e-08 -5.57292e-07 0)
(1.16681e-08 -5.60592e-07 0)
(1.16274e-08 -5.63793e-07 0)
(1.15876e-08 -5.66899e-07 0)
(1.15487e-08 -5.69913e-07 0)
(1.15106e-08 -5.72838e-07 0)
(1.14734e-08 -5.75676e-07 0)
(1.1437e-08 -5.78431e-07 0)
(1.14014e-08 -5.81104e-07 0)
(1.13667e-08 -5.83699e-07 0)
(1.13327e-08 -5.86218e-07 0)
(1.12996e-08 -5.88663e-07 0)
(1.12671e-08 -5.91038e-07 0)
(1.12356e-08 -5.93339e-07 0)
(1.12051e-08 -5.95552e-07 0)
(1.1175e-08 -5.97695e-07 0)
(1.11453e-08 -5.99813e-07 0)
(1.11156e-08 -6.01919e-07 0)
(1.10861e-08 -6.04012e-07 0)
(1.10566e-08 -6.06091e-07 0)
(1.10272e-08 -6.08154e-07 0)
(1.09978e-08 -6.10201e-07 0)
(1.09684e-08 -6.12234e-07 0)
(1.09392e-08 -6.14252e-07 0)
(1.091e-08 -6.16256e-07 0)
(1.08808e-08 -6.18245e-07 0)
(1.08518e-08 -6.2022e-07 0)
(1.08227e-08 -6.22181e-07 0)
(1.07938e-08 -6.24127e-07 0)
(1.07649e-08 -6.26059e-07 0)
(1.07361e-08 -6.27978e-07 0)
(1.07073e-08 -6.29882e-07 0)
(1.06786e-08 -6.31773e-07 0)
(1.065e-08 -6.33649e-07 0)
(1.06214e-08 -6.35513e-07 0)
(1.0593e-08 -6.37362e-07 0)
(1.05643e-08 -6.39202e-07 0)
(1.05371e-08 -6.41008e-07 0)
(1.0512e-08 -6.42662e-07 0)
(1.04878e-08 -6.44157e-07 0)
(1.04643e-08 -6.45612e-07 0)
(1.0441e-08 -6.47073e-07 0)
(1.04177e-08 -6.48545e-07 0)
(1.03942e-08 -6.5002e-07 0)
(1.03707e-08 -6.51492e-07 0)
(1.03471e-08 -6.52963e-07 0)
(1.03234e-08 -6.54434e-07 0)
(1.02996e-08 -6.55906e-07 0)
(1.02757e-08 -6.57378e-07 0)
(1.02517e-08 -6.58849e-07 0)
(1.02276e-08 -6.60321e-07 0)
(1.02035e-08 -6.61793e-07 0)
(1.01792e-08 -6.63265e-07 0)
(1.01548e-08 -6.64736e-07 0)
(1.01304e-08 -6.66208e-07 0)
(1.01059e-08 -6.67679e-07 0)
(1.00812e-08 -6.69151e-07 0)
(1.00565e-08 -6.70622e-07 0)
(1.00316e-08 -6.72093e-07 0)
(1.00067e-08 -6.73564e-07 0)
(9.98171e-09 -6.75035e-07 0)
(9.9566e-09 -6.76505e-07 0)
(9.93139e-09 -6.77976e-07 0)
(9.90609e-09 -6.79446e-07 0)
(9.8807e-09 -6.80915e-07 0)
(9.85521e-09 -6.82385e-07 0)
(9.82962e-09 -6.83854e-07 0)
(9.80394e-09 -6.85322e-07 0)
(9.77817e-09 -6.86791e-07 0)
(9.7523e-09 -6.88258e-07 0)
(9.72634e-09 -6.89726e-07 0)
(9.70028e-09 -6.91193e-07 0)
(9.67413e-09 -6.92659e-07 0)
(9.64788e-09 -6.94125e-07 0)
(9.62154e-09 -6.9559e-07 0)
(9.5951e-09 -6.97055e-07 0)
(9.56857e-09 -6.9852e-07 0)
(9.54194e-09 -6.99983e-07 0)
(9.51522e-09 -7.01446e-07 0)
(9.48841e-09 -7.02908e-07 0)
(9.46149e-09 -7.0437e-07 0)
(9.43449e-09 -7.05831e-07 0)
(9.40739e-09 -7.07291e-07 0)
(9.38019e-09 -7.0875e-07 0)
(9.3529e-09 -7.10209e-07 0)
(9.32551e-09 -7.11666e-07 0)
(9.29803e-09 -7.13123e-07 0)
(9.27046e-09 -7.14579e-07 0)
(9.24279e-09 -7.16034e-07 0)
(9.21502e-09 -7.17489e-07 0)
(9.18716e-09 -7.18942e-07 0)
(9.15921e-09 -7.20394e-07 0)
(9.13116e-09 -7.21845e-07 0)
(9.10302e-09 -7.23295e-07 0)
(9.07478e-09 -7.24744e-07 0)
(9.04645e-09 -7.26192e-07 0)
(9.01802e-09 -7.27639e-07 0)
(8.9895e-09 -7.29085e-07 0)
(8.96089e-09 -7.30529e-07 0)
(8.93218e-09 -7.31972e-07 0)
(8.90338e-09 -7.33414e-07 0)
(8.87448e-09 -7.34855e-07 0)
(8.84549e-09 -7.36294e-07 0)
(8.81641e-09 -7.37732e-07 0)
(8.78724e-09 -7.39169e-07 0)
(8.75797e-09 -7.40604e-07 0)
(8.7286e-09 -7.42038e-07 0)
(8.69915e-09 -7.43471e-07 0)
(8.6696e-09 -7.44902e-07 0)
(8.63996e-09 -7.46331e-07 0)
(8.61023e-09 -7.47759e-07 0)
(8.5804e-09 -7.49185e-07 0)
(8.55048e-09 -7.5061e-07 0)
(8.52047e-09 -7.52033e-07 0)
(8.49037e-09 -7.53455e-07 0)
(8.46018e-09 -7.54874e-07 0)
(8.42989e-09 -7.56292e-07 0)
(8.39952e-09 -7.57709e-07 0)
(8.36905e-09 -7.59123e-07 0)
(8.33849e-09 -7.60536e-07 0)
(8.30784e-09 -7.61946e-07 0)
(8.2771e-09 -7.63355e-07 0)
(8.24627e-09 -7.64762e-07 0)
(8.21535e-09 -7.66167e-07 0)
(8.18435e-09 -7.6757e-07 0)
(8.15325e-09 -7.68971e-07 0)
(8.12206e-09 -7.7037e-07 0)
(8.09078e-09 -7.71767e-07 0)
(8.05942e-09 -7.73162e-07 0)
(8.02796e-09 -7.74554e-07 0)
(7.99642e-09 -7.75945e-07 0)
(7.96479e-09 -7.77333e-07 0)
(7.93307e-09 -7.78719e-07 0)
(7.90127e-09 -7.80102e-07 0)
(7.86937e-09 -7.81484e-07 0)
(7.8374e-09 -7.82863e-07 0)
(7.80533e-09 -7.84239e-07 0)
(7.77318e-09 -7.85613e-07 0)
(7.74094e-09 -7.86985e-07 0)
(7.70862e-09 -7.88354e-07 0)
(7.67621e-09 -7.89721e-07 0)
(7.64372e-09 -7.91085e-07 0)
(7.61114e-09 -7.92447e-07 0)
(7.57848e-09 -7.93806e-07 0)
(7.54574e-09 -7.95162e-07 0)
(7.51291e-09 -7.96516e-07 0)
(7.48e-09 -7.97866e-07 0)
(7.44701e-09 -7.99214e-07 0)
(7.41394e-09 -8.0056e-07 0)
(7.38078e-09 -8.01902e-07 0)
(7.34755e-09 -8.03242e-07 0)
(7.31423e-09 -8.04578e-07 0)
(7.28083e-09 -8.05912e-07 0)
(7.24735e-09 -8.07243e-07 0)
(7.21379e-09 -8.0857e-07 0)
(7.18016e-09 -8.09895e-07 0)
(7.14644e-09 -8.11217e-07 0)
(7.11265e-09 -8.12535e-07 0)
(7.07878e-09 -8.1385e-07 0)
(7.04483e-09 -8.15162e-07 0)
(7.01081e-09 -8.16471e-07 0)
(6.97671e-09 -8.17777e-07 0)
(6.94253e-09 -8.19079e-07 0)
(6.90828e-09 -8.20378e-07 0)
(6.87396e-09 -8.21673e-07 0)
(6.83956e-09 -8.22965e-07 0)
(6.80509e-09 -8.24254e-07 0)
(6.77054e-09 -8.25539e-07 0)
(6.73592e-09 -8.26821e-07 0)
(6.70123e-09 -8.28099e-07 0)
(6.66647e-09 -8.29373e-07 0)
(6.63164e-09 -8.30644e-07 0)
(6.59674e-09 -8.31911e-07 0)
(6.56177e-09 -8.33174e-07 0)
(6.52673e-09 -8.34434e-07 0)
(6.49162e-09 -8.3569e-07 0)
(6.45645e-09 -8.36942e-07 0)
(6.42121e-09 -8.3819e-07 0)
(6.3859e-09 -8.39434e-07 0)
(6.35052e-09 -8.40674e-07 0)
(6.31508e-09 -8.4191e-07 0)
(6.27958e-09 -8.43143e-07 0)
(6.24401e-09 -8.44371e-07 0)
(6.20838e-09 -8.45595e-07 0)
(6.17269e-09 -8.46815e-07 0)
(6.13694e-09 -8.4803e-07 0)
(6.10112e-09 -8.49242e-07 0)
(6.06525e-09 -8.50449e-07 0)
(6.02931e-09 -8.51652e-07 0)
(5.99332e-09 -8.5285e-07 0)
(5.95727e-09 -8.54045e-07 0)
(5.92116e-09 -8.55234e-07 0)
(5.88499e-09 -8.5642e-07 0)
(5.84877e-09 -8.576e-07 0)
(5.8125e-09 -8.58777e-07 0)
(5.77617e-09 -8.59949e-07 0)
(5.73979e-09 -8.61116e-07 0)
(5.70335e-09 -8.62278e-07 0)
(5.66686e-09 -8.63436e-07 0)
(5.63032e-09 -8.64589e-07 0)
(5.59373e-09 -8.65737e-07 0)
(5.5571e-09 -8.66881e-07 0)
(5.52041e-09 -8.68019e-07 0)
(5.48368e-09 -8.69153e-07 0)
(5.4469e-09 -8.70282e-07 0)
(5.41007e-09 -8.71406e-07 0)
(5.3732e-09 -8.72525e-07 0)
(5.33627e-09 -8.73639e-07 0)
(5.29936e-09 -8.74747e-07 0)
(5.26215e-09 -8.75852e-07 0)
(5.22601e-09 -8.76944e-07 0)
(5.1914e-09 -8.7798e-07 0)
(5.1573e-09 -8.78961e-07 0)
(5.12362e-09 -8.79931e-07 0)
(5.0898e-09 -8.80907e-07 0)
(5.05569e-09 -8.81892e-07 0)
(5.02126e-09 -8.82881e-07 0)
(4.98651e-09 -8.83873e-07 0)
(4.95143e-09 -8.84868e-07 0)
(4.91601e-09 -8.85867e-07 0)
(4.88026e-09 -8.8687e-07 0)
(4.84418e-09 -8.87877e-07 0)
(4.80775e-09 -8.88886e-07 0)
(4.77099e-09 -8.89899e-07 0)
(4.73389e-09 -8.90915e-07 0)
(4.69644e-09 -8.91934e-07 0)
(4.65865e-09 -8.92956e-07 0)
(4.62051e-09 -8.9398e-07 0)
(4.58202e-09 -8.95007e-07 0)
(4.54319e-09 -8.96037e-07 0)
(4.504e-09 -8.97069e-07 0)
(4.46446e-09 -8.98103e-07 0)
(4.42457e-09 -8.99139e-07 0)
(4.38433e-09 -9.00176e-07 0)
(4.34373e-09 -9.01216e-07 0)
(4.30277e-09 -9.02256e-07 0)
(4.26146e-09 -9.03299e-07 0)
(4.21979e-09 -9.04342e-07 0)
(4.17775e-09 -9.05386e-07 0)
(4.13536e-09 -9.06431e-07 0)
(4.09261e-09 -9.07476e-07 0)
(4.0495e-09 -9.08522e-07 0)
(4.00602e-09 -9.09568e-07 0)
(3.96219e-09 -9.10613e-07 0)
(3.91799e-09 -9.11659e-07 0)
(3.87343e-09 -9.12704e-07 0)
(3.8285e-09 -9.13748e-07 0)
(3.78322e-09 -9.14791e-07 0)
(3.73757e-09 -9.15833e-07 0)
(3.69156e-09 -9.16873e-07 0)
(3.64519e-09 -9.17911e-07 0)
(3.59846e-09 -9.18948e-07 0)
(3.55137e-09 -9.19982e-07 0)
(3.50392e-09 -9.21013e-07 0)
(3.45611e-09 -9.22042e-07 0)
(3.40794e-09 -9.23067e-07 0)
(3.35942e-09 -9.24089e-07 0)
(3.31054e-09 -9.25108e-07 0)
(3.26131e-09 -9.26122e-07 0)
(3.21172e-09 -9.27131e-07 0)
(3.16179e-09 -9.28136e-07 0)
(3.11151e-09 -9.29136e-07 0)
(3.06089e-09 -9.30131e-07 0)
(3.00992e-09 -9.31119e-07 0)
(2.95862e-09 -9.32102e-07 0)
(2.90697e-09 -9.33078e-07 0)
(2.855e-09 -9.34047e-07 0)
(2.80269e-09 -9.35009e-07 0)
(2.75005e-09 -9.35964e-07 0)
(2.69709e-09 -9.3691e-07 0)
(2.64381e-09 -9.37848e-07 0)
(2.59021e-09 -9.38778e-07 0)
(2.53631e-09 -9.39698e-07 0)
(2.48209e-09 -9.40608e-07 0)
(2.42757e-09 -9.41508e-07 0)
(2.37276e-09 -9.42398e-07 0)
(2.31765e-09 -9.43277e-07 0)
(2.26226e-09 -9.44144e-07 0)
(2.20659e-09 -9.45e-07 0)
(2.15064e-09 -9.45843e-07 0)
(2.09442e-09 -9.46673e-07 0)
(2.03795e-09 -9.47491e-07 0)
(1.98121e-09 -9.48294e-07 0)
(1.92423e-09 -9.49083e-07 0)
(1.86701e-09 -9.49857e-07 0)
(1.80956e-09 -9.50616e-07 0)
(1.75188e-09 -9.51359e-07 0)
(1.69399e-09 -9.52086e-07 0)
(1.63589e-09 -9.52796e-07 0)
(1.57759e-09 -9.53488e-07 0)
(1.5191e-09 -9.54163e-07 0)
(1.46044e-09 -9.54819e-07 0)
(1.4016e-09 -9.55456e-07 0)
(1.3426e-09 -9.56073e-07 0)
(1.28346e-09 -9.5667e-07 0)
(1.22417e-09 -9.57246e-07 0)
(1.16476e-09 -9.57801e-07 0)
(1.10524e-09 -9.58334e-07 0)
(1.04561e-09 -9.58844e-07 0)
(9.85887e-10 -9.59331e-07 0)
(9.26088e-10 -9.59795e-07 0)
(8.66223e-10 -9.60234e-07 0)
(8.06306e-10 -9.60648e-07 0)
(7.4635e-10 -9.61036e-07 0)
(6.86369e-10 -9.61398e-07 0)
(6.26377e-10 -9.61733e-07 0)
(5.6639e-10 -9.62041e-07 0)
(5.0642e-10 -9.62321e-07 0)
(4.46486e-10 -9.62572e-07 0)
(3.866e-10 -9.62793e-07 0)
(3.2678e-10 -9.62985e-07 0)
(2.67042e-10 -9.63145e-07 0)
(2.07403e-10 -9.63275e-07 0)
(1.47879e-10 -9.63372e-07 0)
(8.84869e-11 -9.63437e-07 0)
(2.92451e-11 -9.63469e-07 0)
(-2.98289e-11 -9.63467e-07 0)
(-8.8717e-11 -9.63431e-07 0)
(-1.47401e-10 -9.63359e-07 0)
(-2.05862e-10 -9.63251e-07 0)
(-2.64081e-10 -9.63107e-07 0)
(-3.22039e-10 -9.62927e-07 0)
(-3.79717e-10 -9.62708e-07 0)
(-4.37094e-10 -9.62451e-07 0)
(-4.94152e-10 -9.62156e-07 0)
(-5.50869e-10 -9.61821e-07 0)
(-6.07226e-10 -9.61446e-07 0)
(-6.63202e-10 -9.6103e-07 0)
(-7.18776e-10 -9.60573e-07 0)
(-7.73928e-10 -9.60074e-07 0)
(-8.28637e-10 -9.59533e-07 0)
(-8.82881e-10 -9.58949e-07 0)
(-9.3664e-10 -9.58321e-07 0)
(-9.89892e-10 -9.5765e-07 0)
(-1.04262e-09 -9.56934e-07 0)
(-1.09479e-09 -9.56173e-07 0)
(-1.14639e-09 -9.55366e-07 0)
(-1.1974e-09 -9.54514e-07 0)
(-1.2478e-09 -9.53615e-07 0)
(-1.29756e-09 -9.52669e-07 0)
(-1.34667e-09 -9.51676e-07 0)
(-1.39509e-09 -9.50635e-07 0)
(-1.44282e-09 -9.49546e-07 0)
(-1.48983e-09 -9.48409e-07 0)
(-1.5361e-09 -9.47222e-07 0)
(-1.58161e-09 -9.45987e-07 0)
(-1.62633e-09 -9.44702e-07 0)
(-1.67025e-09 -9.43367e-07 0)
(-1.71336e-09 -9.41983e-07 0)
(-1.75561e-09 -9.40548e-07 0)
(-1.79701e-09 -9.39062e-07 0)
(-1.83753e-09 -9.37526e-07 0)
(-1.87715e-09 -9.35939e-07 0)
(-1.91585e-09 -9.34301e-07 0)
(-1.95362e-09 -9.32611e-07 0)
(-1.99044e-09 -9.30871e-07 0)
(-2.02628e-09 -9.29079e-07 0)
(-2.06114e-09 -9.27236e-07 0)
(-2.095e-09 -9.25342e-07 0)
(-2.12785e-09 -9.23397e-07 0)
(-2.15966e-09 -9.214e-07 0)
(-2.19042e-09 -9.19352e-07 0)
(-2.22013e-09 -9.17254e-07 0)
(-2.24876e-09 -9.15104e-07 0)
(-2.27631e-09 -9.12904e-07 0)
(-2.30277e-09 -9.10654e-07 0)
(-2.32811e-09 -9.08353e-07 0)
(-2.35234e-09 -9.06003e-07 0)
(-2.37545e-09 -9.03603e-07 0)
(-2.39742e-09 -9.01153e-07 0)
(-2.41824e-09 -8.98655e-07 0)
(-2.43792e-09 -8.96109e-07 0)
(-2.45644e-09 -8.93515e-07 0)
(-2.47381e-09 -8.90874e-07 0)
(-2.49e-09 -8.88185e-07 0)
(-2.50503e-09 -8.85451e-07 0)
(-2.51888e-09 -8.82671e-07 0)
(-2.53156e-09 -8.79846e-07 0)
(-2.54307e-09 -8.76976e-07 0)
(-2.5534e-09 -8.74063e-07 0)
(-2.56256e-09 -8.71107e-07 0)
(-2.57054e-09 -8.68109e-07 0)
(-2.57736e-09 -8.6507e-07 0)
(-2.58301e-09 -8.6199e-07 0)
(-2.58749e-09 -8.58871e-07 0)
(-2.59082e-09 -8.55713e-07 0)
(-2.593e-09 -8.52517e-07 0)
(-2.59403e-09 -8.49285e-07 0)
(-2.59392e-09 -8.46017e-07 0)
(-2.59268e-09 -8.42712e-07 0)
(-2.59037e-09 -8.39381e-07 0)
(-2.58672e-09 -8.35976e-07 0)
(-2.58147e-09 -8.32216e-07 0)
(-2.57458e-09 -8.281e-07 0)
(-2.56604e-09 -8.2391e-07 0)
(-2.55605e-09 -8.19744e-07 0)
(-2.54474e-09 -8.15619e-07 0)
(-2.53221e-09 -8.11518e-07 0)
(-2.51852e-09 -8.07434e-07 0)
(-2.50373e-09 -8.03369e-07 0)
(-2.4879e-09 -7.9933e-07 0)
(-2.47111e-09 -7.95318e-07 0)
(-2.45339e-09 -7.91334e-07 0)
(-2.43482e-09 -7.8738e-07 0)
(-2.41544e-09 -7.83456e-07 0)
(-2.3953e-09 -7.79564e-07 0)
(-2.37445e-09 -7.75706e-07 0)
(-2.35294e-09 -7.71882e-07 0)
(-2.3308e-09 -7.68093e-07 0)
(-2.30808e-09 -7.6434e-07 0)
(-2.28481e-09 -7.60625e-07 0)
(-2.26103e-09 -7.56948e-07 0)
(-2.23678e-09 -7.53309e-07 0)
(-2.21209e-09 -7.49711e-07 0)
(-2.18698e-09 -7.46152e-07 0)
(-2.16149e-09 -7.42635e-07 0)
(-2.13564e-09 -7.39159e-07 0)
(-2.10946e-09 -7.35725e-07 0)
(-2.08296e-09 -7.32334e-07 0)
(-2.05618e-09 -7.28986e-07 0)
(-2.02913e-09 -7.25682e-07 0)
(-2.00184e-09 -7.22421e-07 0)
(-1.97431e-09 -7.19205e-07 0)
(-1.94656e-09 -7.16034e-07 0)
(-1.91862e-09 -7.12908e-07 0)
(-1.89049e-09 -7.09827e-07 0)
(-1.86219e-09 -7.06791e-07 0)
(-1.83373e-09 -7.03802e-07 0)
(-1.80511e-09 -7.00859e-07 0)
(-1.77636e-09 -6.97962e-07 0)
(-1.74747e-09 -6.95112e-07 0)
(-1.71846e-09 -6.92309e-07 0)
(-1.68934e-09 -6.89552e-07 0)
(-1.6601e-09 -6.86843e-07 0)
(-1.63077e-09 -6.84182e-07 0)
(-1.60133e-09 -6.81567e-07 0)
(-1.5718e-09 -6.79001e-07 0)
(-1.54219e-09 -6.76482e-07 0)
(-1.51249e-09 -6.74012e-07 0)
(-1.4827e-09 -6.71589e-07 0)
(-1.45284e-09 -6.69215e-07 0)
(-1.4229e-09 -6.66889e-07 0)
(-1.39288e-09 -6.64612e-07 0)
(-1.36279e-09 -6.62383e-07 0)
(-1.33263e-09 -6.60203e-07 0)
(-1.3024e-09 -6.58071e-07 0)
(-1.2721e-09 -6.55989e-07 0)
(-1.24173e-09 -6.53956e-07 0)
(-1.21129e-09 -6.51972e-07 0)
(-1.18079e-09 -6.50037e-07 0)
(-1.15022e-09 -6.48152e-07 0)
(-1.11958e-09 -6.46316e-07 0)
(-1.08887e-09 -6.4453e-07 0)
(-1.0581e-09 -6.42793e-07 0)
(-1.02726e-09 -6.41107e-07 0)
(-9.96351e-10 -6.3947e-07 0)
(-9.65378e-10 -6.37883e-07 0)
(-9.3434e-10 -6.36347e-07 0)
(-9.03237e-10 -6.3486e-07 0)
(-8.72068e-10 -6.33425e-07 0)
(-8.40834e-10 -6.32039e-07 0)
(-8.09537e-10 -6.30704e-07 0)
(-7.78176e-10 -6.2942e-07 0)
(-7.46752e-10 -6.28187e-07 0)
(-7.15268e-10 -6.27004e-07 0)
(-6.83722e-10 -6.25873e-07 0)
(-6.52118e-10 -6.24792e-07 0)
(-6.20456e-10 -6.23763e-07 0)
(-5.88737e-10 -6.22785e-07 0)
(-5.56964e-10 -6.21858e-07 0)
(-5.25139e-10 -6.20983e-07 0)
(-4.93263e-10 -6.20159e-07 0)
(-4.61338e-10 -6.19387e-07 0)
(-4.29368e-10 -6.18667e-07 0)
(-3.97354e-10 -6.17998e-07 0)
(-3.65299e-10 -6.17381e-07 0)
(-3.33205e-10 -6.16815e-07 0)
(-3.01077e-10 -6.16306e-07 0)
(-2.68914e-10 -6.15832e-07 0)
(-2.36729e-10 -6.15466e-07 0)
(-2.04498e-10 -6.14966e-07 0)
(-1.72307e-10 -6.15128e-07 0)
(-1.39892e-10 -6.13278e-07 0)
(-1.08149e-10 -6.18066e-07 0)
(-7.42189e-11 -5.99424e-07 0)
(-4.7918e-11 -6.48549e-07 0)
(-2.00817e-11 -5.6641e-07 0)
)
;
    }
    bottomWall
    {
        type            calculated;
        value           nonuniform List<vector> 
449
(
(-48.522 -0.963959 0)
(-19.7476 -0.0051542 0)
(-14.3409 -0.00113464 0)
(-12.0315 -0.000545426 0)
(-10.6256 -0.000351466 0)
(-9.63188 -0.000255973 0)
(-8.87387 -0.00019847 0)
(-8.27041 -0.000159803 0)
(-7.77502 -0.000132315 0)
(-7.35842 -0.00011197 0)
(-7.00144 -9.63705e-05 0)
(-6.69104 -8.40646e-05 0)
(-6.41791 -7.41476e-05 0)
(-6.17513 -6.60207e-05 0)
(-5.95746 -5.92643e-05 0)
(-5.76083 -5.35753e-05 0)
(-5.58204 -4.87314e-05 0)
(-5.41854 -4.45669e-05 0)
(-5.26826 -4.09557e-05 0)
(-5.12951 -3.78003e-05 0)
(-5.00087 -3.50243e-05 0)
(-4.88117 -3.25667e-05 0)
(-4.76941 -3.03789e-05 0)
(-4.66475 -2.84211e-05 0)
(-4.56646 -2.6661e-05 0)
(-4.47392 -2.50718e-05 0)
(-4.38658 -2.36313e-05 0)
(-4.30397 -2.23206e-05 0)
(-4.22568 -2.1124e-05 0)
(-4.15134 -2.00282e-05 0)
(-4.08062 -1.90217e-05 0)
(-4.01324 -1.80946e-05 0)
(-3.94895 -1.72385e-05 0)
(-3.88751 -1.64461e-05 0)
(-3.82871 -1.57109e-05 0)
(-3.77237 -1.50273e-05 0)
(-3.71832 -1.43904e-05 0)
(-3.66641 -1.37959e-05 0)
(-3.6165 -1.324e-05 0)
(-3.56846 -1.27193e-05 0)
(-3.52218 -1.22307e-05 0)
(-3.47755 -1.17715e-05 0)
(-3.43447 -1.13394e-05 0)
(-3.39287 -1.09321e-05 0)
(-3.35264 -1.05478e-05 0)
(-3.31372 -1.01846e-05 0)
(-3.27604 -9.84103e-06 0)
(-3.23953 -9.51559e-06 0)
(-3.20413 -9.20699e-06 0)
(-3.16979 -8.91404e-06 0)
(-3.13645 -8.63566e-06 0)
(-3.10407 -8.37087e-06 0)
(-3.0726 -8.11876e-06 0)
(-3.04199 -7.87849e-06 0)
(-3.01222 -7.64932e-06 0)
(-2.98323 -7.43054e-06 0)
(-2.955 -7.22152e-06 0)
(-2.92749 -7.02165e-06 0)
(-2.90067 -6.83039e-06 0)
(-2.87452 -6.64724e-06 0)
(-2.849 -6.47172e-06 0)
(-2.82409 -6.30341e-06 0)
(-2.79977 -6.14189e-06 0)
(-2.77601 -5.98679e-06 0)
(-2.75279 -5.83777e-06 0)
(-2.73009 -5.6945e-06 0)
(-2.70789 -5.55668e-06 0)
(-2.68618 -5.42402e-06 0)
(-2.66492 -5.29626e-06 0)
(-2.64412 -5.17315e-06 0)
(-2.62375 -5.05446e-06 0)
(-2.6038 -4.93998e-06 0)
(-2.58425 -4.8295e-06 0)
(-2.56509 -4.72283e-06 0)
(-2.5463 -4.6198e-06 0)
(-2.52788 -4.52022e-06 0)
(-2.50982 -4.42395e-06 0)
(-2.49209 -4.33083e-06 0)
(-2.47469 -4.24072e-06 0)
(-2.45761 -4.15349e-06 0)
(-2.44084 -4.06902e-06 0)
(-2.42438 -3.98718e-06 0)
(-2.4082 -3.90786e-06 0)
(-2.39231 -3.83096e-06 0)
(-2.37669 -3.75638e-06 0)
(-2.36133 -3.68402e-06 0)
(-2.34624 -3.61379e-06 0)
(-2.3314 -3.5456e-06 0)
(-2.3168 -3.47938e-06 0)
(-2.30243 -3.41504e-06 0)
(-2.2883 -3.35252e-06 0)
(-2.2744 -3.29174e-06 0)
(-2.26071 -3.23264e-06 0)
(-2.24724 -3.17515e-06 0)
(-2.23397 -3.11922e-06 0)
(-2.2209 -3.06478e-06 0)
(-2.20803 -3.01178e-06 0)
(-2.19536 -2.96018e-06 0)
(-2.18287 -2.90991e-06 0)
(-2.17056 -2.86094e-06 0)
(-2.15843 -2.81321e-06 0)
(-2.14647 -2.76669e-06 0)
(-2.13468 -2.72134e-06 0)
(-2.12306 -2.6771e-06 0)
(-2.1116 -2.63395e-06 0)
(-2.10029 -2.59185e-06 0)
(-2.08914 -2.55076e-06 0)
(-2.07814 -2.51065e-06 0)
(-2.06729 -2.4715e-06 0)
(-2.05658 -2.43326e-06 0)
(-2.04601 -2.39591e-06 0)
(-2.03557 -2.35942e-06 0)
(-2.02527 -2.32376e-06 0)
(-2.0151 -2.28892e-06 0)
(-2.00506 -2.25485e-06 0)
(-1.99515 -2.22155e-06 0)
(-1.98536 -2.18898e-06 0)
(-1.97569 -2.15712e-06 0)
(-1.96613 -2.12596e-06 0)
(-1.95669 -2.09547e-06 0)
(-1.94737 -2.06563e-06 0)
(-1.93815 -2.03642e-06 0)
(-1.92905 -2.00783e-06 0)
(-1.92005 -1.97984e-06 0)
(-1.91115 -1.95243e-06 0)
(-1.90236 -1.92558e-06 0)
(-1.89366 -1.89928e-06 0)
(-1.88507 -1.87352e-06 0)
(-1.87657 -1.84827e-06 0)
(-1.86816 -1.82353e-06 0)
(-1.85985 -1.79927e-06 0)
(-1.85162 -1.7755e-06 0)
(-1.84349 -1.75219e-06 0)
(-1.83545 -1.72933e-06 0)
(-1.82749 -1.70691e-06 0)
(-1.81961 -1.68492e-06 0)
(-1.81182 -1.66335e-06 0)
(-1.80411 -1.64219e-06 0)
(-1.79648 -1.62142e-06 0)
(-1.78892 -1.60104e-06 0)
(-1.78145 -1.58103e-06 0)
(-1.77405 -1.5614e-06 0)
(-1.76672 -1.54212e-06 0)
(-1.75947 -1.52319e-06 0)
(-1.75229 -1.5046e-06 0)
(-1.74518 -1.48634e-06 0)
(-1.73814 -1.46841e-06 0)
(-1.73116 -1.4508e-06 0)
(-1.72426 -1.43349e-06 0)
(-1.71742 -1.41649e-06 0)
(-1.71065 -1.39978e-06 0)
(-1.70394 -1.38335e-06 0)
(-1.69729 -1.36721e-06 0)
(-1.6907 -1.35135e-06 0)
(-1.68418 -1.33575e-06 0)
(-1.67771 -1.32041e-06 0)
(-1.67131 -1.30533e-06 0)
(-1.66496 -1.2905e-06 0)
(-1.65867 -1.27591e-06 0)
(-1.65243 -1.26157e-06 0)
(-1.64625 -1.24745e-06 0)
(-1.64013 -1.23357e-06 0)
(-1.63406 -1.21991e-06 0)
(-1.62804 -1.20647e-06 0)
(-1.62207 -1.19325e-06 0)
(-1.61616 -1.18023e-06 0)
(-1.61029 -1.16742e-06 0)
(-1.60448 -1.15482e-06 0)
(-1.59871 -1.14244e-06 0)
(-1.593 -1.13011e-06 0)
(-1.58733 -1.11842e-06 0)
(-1.5817 -1.10632e-06 0)
(-1.57613 -1.09318e-06 0)
(-1.57092 -1.08301e-06 0)
(-1.56602 -1.07478e-06 0)
(-1.5611 -1.06443e-06 0)
(-1.55619 -1.05374e-06 0)
(-1.55127 -1.04373e-06 0)
(-1.54634 -1.0337e-06 0)
(-1.54141 -1.02378e-06 0)
(-1.53647 -1.01393e-06 0)
(-1.53153 -1.00414e-06 0)
(-1.52658 -9.94411e-07 0)
(-1.52162 -9.84741e-07 0)
(-1.51666 -9.75127e-07 0)
(-1.5117 -9.65569e-07 0)
(-1.50673 -9.56066e-07 0)
(-1.50176 -9.46618e-07 0)
(-1.49678 -9.37226e-07 0)
(-1.4918 -9.27888e-07 0)
(-1.48681 -9.18606e-07 0)
(-1.48182 -9.0938e-07 0)
(-1.47683 -9.00209e-07 0)
(-1.47183 -8.91094e-07 0)
(-1.46683 -8.82036e-07 0)
(-1.46183 -8.73034e-07 0)
(-1.45683 -8.64088e-07 0)
(-1.45182 -8.552e-07 0)
(-1.44681 -8.46369e-07 0)
(-1.4418 -8.37595e-07 0)
(-1.43679 -8.28879e-07 0)
(-1.43177 -8.2022e-07 0)
(-1.42676 -8.1162e-07 0)
(-1.42174 -8.03078e-07 0)
(-1.41672 -7.94594e-07 0)
(-1.4117 -7.86168e-07 0)
(-1.40668 -7.77801e-07 0)
(-1.40166 -7.69493e-07 0)
(-1.39664 -7.61244e-07 0)
(-1.39162 -7.53054e-07 0)
(-1.3866 -7.44923e-07 0)
(-1.38158 -7.36851e-07 0)
(-1.37656 -7.28838e-07 0)
(-1.37154 -7.20885e-07 0)
(-1.36652 -7.12991e-07 0)
(-1.3615 -7.05157e-07 0)
(-1.35649 -6.97382e-07 0)
(-1.35147 -6.89667e-07 0)
(-1.34646 -6.82011e-07 0)
(-1.34145 -6.74415e-07 0)
(-1.33644 -6.66879e-07 0)
(-1.33143 -6.59402e-07 0)
(-1.32643 -6.51985e-07 0)
(-1.32143 -6.44628e-07 0)
(-1.31643 -6.3733e-07 0)
(-1.31143 -6.30092e-07 0)
(-1.30644 -6.22913e-07 0)
(-1.30145 -6.15793e-07 0)
(-1.29646 -6.08733e-07 0)
(-1.29148 -6.01732e-07 0)
(-1.2865 -5.9479e-07 0)
(-1.28153 -5.87908e-07 0)
(-1.27656 -5.81084e-07 0)
(-1.27159 -5.74319e-07 0)
(-1.26663 -5.67614e-07 0)
(-1.26168 -5.60966e-07 0)
(-1.25672 -5.54378e-07 0)
(-1.25178 -5.47847e-07 0)
(-1.24684 -5.41375e-07 0)
(-1.2419 -5.34961e-07 0)
(-1.23697 -5.28605e-07 0)
(-1.23205 -5.22307e-07 0)
(-1.22713 -5.16066e-07 0)
(-1.22221 -5.09883e-07 0)
(-1.21731 -5.03757e-07 0)
(-1.21241 -4.97688e-07 0)
(-1.20751 -4.91676e-07 0)
(-1.20263 -4.8572e-07 0)
(-1.19775 -4.79821e-07 0)
(-1.19287 -4.73978e-07 0)
(-1.18801 -4.68191e-07 0)
(-1.18315 -4.6246e-07 0)
(-1.1783 -4.56785e-07 0)
(-1.17345 -4.51164e-07 0)
(-1.16862 -4.45599e-07 0)
(-1.16379 -4.40089e-07 0)
(-1.15897 -4.34633e-07 0)
(-1.15415 -4.29231e-07 0)
(-1.14935 -4.23883e-07 0)
(-1.14455 -4.18589e-07 0)
(-1.13977 -4.13349e-07 0)
(-1.13499 -4.08162e-07 0)
(-1.13022 -4.03027e-07 0)
(-1.12546 -3.97946e-07 0)
(-1.1207 -3.92916e-07 0)
(-1.11596 -3.87939e-07 0)
(-1.11123 -3.83013e-07 0)
(-1.1065 -3.78139e-07 0)
(-1.10179 -3.73316e-07 0)
(-1.09708 -3.68544e-07 0)
(-1.09239 -3.63822e-07 0)
(-1.0877 -3.59151e-07 0)
(-1.08303 -3.54529e-07 0)
(-1.07836 -3.49958e-07 0)
(-1.07371 -3.45435e-07 0)
(-1.06906 -3.40961e-07 0)
(-1.06443 -3.36536e-07 0)
(-1.0598 -3.32159e-07 0)
(-1.05519 -3.27831e-07 0)
(-1.05058 -3.23549e-07 0)
(-1.04599 -3.19315e-07 0)
(-1.04141 -3.15129e-07 0)
(-1.03684 -3.10988e-07 0)
(-1.03228 -3.06894e-07 0)
(-1.02773 -3.02846e-07 0)
(-1.0232 -2.98844e-07 0)
(-1.01867 -2.94886e-07 0)
(-1.01416 -2.90974e-07 0)
(-1.00965 -2.87106e-07 0)
(-1.00516 -2.83283e-07 0)
(-1.00068 -2.79503e-07 0)
(-0.996216 -2.75767e-07 0)
(-0.991761 -2.72074e-07 0)
(-0.987317 -2.68424e-07 0)
(-0.982885 -2.64817e-07 0)
(-0.978466 -2.61251e-07 0)
(-0.974059 -2.57728e-07 0)
(-0.969664 -2.54245e-07 0)
(-0.965281 -2.50804e-07 0)
(-0.96091 -2.47404e-07 0)
(-0.956552 -2.44044e-07 0)
(-0.952207 -2.40724e-07 0)
(-0.947874 -2.37444e-07 0)
(-0.943554 -2.34203e-07 0)
(-0.939246 -2.31001e-07 0)
(-0.934952 -2.27837e-07 0)
(-0.93067 -2.24712e-07 0)
(-0.926401 -2.21625e-07 0)
(-0.922144 -2.18575e-07 0)
(-0.917901 -2.15563e-07 0)
(-0.913671 -2.12588e-07 0)
(-0.909454 -2.09649e-07 0)
(-0.90525 -2.06746e-07 0)
(-0.90106 -2.03879e-07 0)
(-0.896882 -2.01048e-07 0)
(-0.892718 -1.98252e-07 0)
(-0.888567 -1.95491e-07 0)
(-0.88443 -1.92764e-07 0)
(-0.880306 -1.90071e-07 0)
(-0.876195 -1.87412e-07 0)
(-0.872098 -1.84787e-07 0)
(-0.868014 -1.82195e-07 0)
(-0.863944 -1.79635e-07 0)
(-0.859888 -1.77108e-07 0)
(-0.855845 -1.74614e-07 0)
(-0.851816 -1.72151e-07 0)
(-0.847801 -1.69719e-07 0)
(-0.843799 -1.67319e-07 0)
(-0.839811 -1.64949e-07 0)
(-0.835837 -1.6261e-07 0)
(-0.831876 -1.60302e-07 0)
(-0.82793 -1.58023e-07 0)
(-0.823997 -1.55774e-07 0)
(-0.820078 -1.53553e-07 0)
(-0.816173 -1.51362e-07 0)
(-0.812282 -1.492e-07 0)
(-0.808405 -1.47065e-07 0)
(-0.804542 -1.44959e-07 0)
(-0.800693 -1.42881e-07 0)
(-0.796858 -1.40829e-07 0)
(-0.793037 -1.38805e-07 0)
(-0.78923 -1.36808e-07 0)
(-0.785437 -1.34837e-07 0)
(-0.781658 -1.32892e-07 0)
(-0.777893 -1.30973e-07 0)
(-0.774142 -1.29079e-07 0)
(-0.770405 -1.27211e-07 0)
(-0.766682 -1.25367e-07 0)
(-0.762974 -1.23546e-07 0)
(-0.759279 -1.21752e-07 0)
(-0.755599 -1.19977e-07 0)
(-0.751933 -1.18189e-07 0)
(-0.748283 -1.16551e-07 0)
(-0.74464 -1.14924e-07 0)
(-0.740607 -1.12937e-07 0)
(-0.736232 -1.10826e-07 0)
(-0.731937 -1.08926e-07 0)
(-0.72771 -1.07127e-07 0)
(-0.723555 -1.05317e-07 0)
(-0.719471 -1.03543e-07 0)
(-0.715455 -1.01813e-07 0)
(-0.711506 -1.0013e-07 0)
(-0.707621 -9.84922e-08 0)
(-0.7038 -9.68979e-08 0)
(-0.70004 -9.53459e-08 0)
(-0.696341 -9.38348e-08 0)
(-0.692699 -9.23633e-08 0)
(-0.689115 -9.09298e-08 0)
(-0.685585 -8.95331e-08 0)
(-0.68211 -8.81719e-08 0)
(-0.678687 -8.68448e-08 0)
(-0.675316 -8.55507e-08 0)
(-0.671994 -8.42885e-08 0)
(-0.668722 -8.30571e-08 0)
(-0.665496 -8.18554e-08 0)
(-0.662318 -8.06825e-08 0)
(-0.659184 -7.95374e-08 0)
(-0.656095 -7.84191e-08 0)
(-0.653049 -7.73269e-08 0)
(-0.650045 -7.62599e-08 0)
(-0.647083 -7.52172e-08 0)
(-0.644161 -7.41981e-08 0)
(-0.641278 -7.32019e-08 0)
(-0.638434 -7.22278e-08 0)
(-0.635627 -7.12753e-08 0)
(-0.632858 -7.03435e-08 0)
(-0.630124 -6.94319e-08 0)
(-0.627426 -6.854e-08 0)
(-0.624762 -6.7667e-08 0)
(-0.622132 -6.68125e-08 0)
(-0.619535 -6.59759e-08 0)
(-0.61697 -6.51567e-08 0)
(-0.614437 -6.43544e-08 0)
(-0.611936 -6.35685e-08 0)
(-0.609464 -6.27986e-08 0)
(-0.607023 -6.20442e-08 0)
(-0.60461 -6.13049e-08 0)
(-0.602226 -6.05802e-08 0)
(-0.599871 -5.98699e-08 0)
(-0.597543 -5.91734e-08 0)
(-0.595241 -5.84904e-08 0)
(-0.592967 -5.78207e-08 0)
(-0.590718 -5.71637e-08 0)
(-0.588494 -5.65193e-08 0)
(-0.586296 -5.5887e-08 0)
(-0.584122 -5.52666e-08 0)
(-0.581972 -5.46577e-08 0)
(-0.579846 -5.40602e-08 0)
(-0.577743 -5.34736e-08 0)
(-0.575663 -5.28978e-08 0)
(-0.573605 -5.23325e-08 0)
(-0.571568 -5.17774e-08 0)
(-0.569554 -5.12324e-08 0)
(-0.56756 -5.06971e-08 0)
(-0.565588 -5.01713e-08 0)
(-0.563635 -4.96549e-08 0)
(-0.561703 -4.91477e-08 0)
(-0.55979 -4.86494e-08 0)
(-0.557897 -4.816e-08 0)
(-0.556022 -4.76791e-08 0)
(-0.554167 -4.72067e-08 0)
(-0.552329 -4.67426e-08 0)
(-0.55051 -4.62867e-08 0)
(-0.548708 -4.58389e-08 0)
(-0.546924 -4.53991e-08 0)
(-0.545156 -4.49671e-08 0)
(-0.543406 -4.4543e-08 0)
(-0.541671 -4.41267e-08 0)
(-0.539953 -4.37182e-08 0)
(-0.538251 -4.33176e-08 0)
(-0.536564 -4.2925e-08 0)
(-0.534893 -4.25405e-08 0)
(-0.533236 -4.21645e-08 0)
(-0.531594 -4.17974e-08 0)
(-0.529966 -4.14398e-08 0)
(-0.528352 -4.10926e-08 0)
(-0.526752 -4.07572e-08 0)
(-0.525164 -4.0435e-08 0)
(-0.523588 -4.01291e-08 0)
(-0.522024 -3.9852e-08 0)
(-0.52047 -3.95731e-08 0)
(-0.518928 -3.93522e-08 0)
(-0.517392 -3.94135e-08 0)
(-0.515845 -3.87311e-08 0)
(-0.514362 -3.7862e-08 0)
(-0.512882 -5.0032e-08 0)
(-0.510447 -1.40158e-08 0)
(-0.511797 -3.69425e-08 0)
(-0.507514 -5.56819e-08 0)
)
;
    }
    symmetry
    {
        type            symmetryPlane;
    }
    frontAndBack
    {
        type            empty;
    }
}


// ************************************************************************* //
