/*--------------------------------*- C++ -*----------------------------------*\
| =========                 |                                                 |
| \\      /  F ield         | OpenFOAM: The Open Source CFD Toolbox           |
|  \\    /   O peration     | Version:  v2012                                 |
|   \\  /    A nd           | Website:  www.openfoam.com                      |
|    \\/     M anipulation  |                                                 |
\*---------------------------------------------------------------------------*/
FoamFile
{
    version     2.0;
    format      ascii;
    class       volScalarField;
    location    "53";
    object      yPlus;
}
// * * * * * * * * * * * * * * * * * * * * * * * * * * * * * * * * * * * * * //

dimensions      [0 0 0 0 0 0 0];


internalField   uniform 0;

boundaryField
{
    inlet
    {
        type            calculated;
        value           uniform 0;
    }
    outlet
    {
        type            calculated;
        value           uniform 0;
    }
    topWall
    {
        type            calculated;
        value           nonuniform List<scalar> 
545
(
0.070835
0.12214
0.156688
0.184171
0.207426
0.227761
0.245909
0.262334
0.277351
0.291187
0.304011
0.315955
0.327123
0.337602
0.34746
0.356757
0.365544
0.373864
0.381753
0.389246
0.396372
0.403156
0.409621
0.415789
0.421678
0.427306
0.432688
0.437839
0.442771
0.447498
0.452029
0.456376
0.460548
0.464553
0.468401
0.4721
0.475655
0.479075
0.482366
0.485533
0.488583
0.49152
0.49435
0.497077
0.499706
0.502241
0.504687
0.507046
0.509323
0.511521
0.513642
0.515692
0.517671
0.519583
0.521431
0.523217
0.524944
0.526613
0.528227
0.529789
0.5313
0.532761
0.534175
0.535544
0.53687
0.538153
0.539395
0.540598
0.541763
0.542892
0.543986
0.545045
0.546059
0.547039
0.548009
0.548972
0.549925
0.55087
0.551807
0.552735
0.553655
0.554567
0.555471
0.556367
0.557255
0.558135
0.559007
0.559872
0.560729
0.561579
0.562421
0.563256
0.564084
0.564904
0.565717
0.566524
0.567249
0.567898
0.568546
0.569193
0.56984
0.570486
0.571131
0.571776
0.57242
0.573063
0.573706
0.574348
0.574989
0.57563
0.576269
0.576909
0.577547
0.578184
0.578821
0.579457
0.580093
0.580727
0.581361
0.581994
0.582626
0.583257
0.583888
0.584518
0.585146
0.585775
0.586402
0.587028
0.587654
0.588278
0.588902
0.589525
0.590147
0.590768
0.591388
0.592008
0.592626
0.593244
0.59386
0.594476
0.59509
0.595704
0.596317
0.596929
0.597539
0.598149
0.598758
0.599366
0.599972
0.600578
0.601183
0.601787
0.602389
0.602991
0.603591
0.604191
0.604789
0.605386
0.605982
0.606577
0.607171
0.607764
0.608355
0.608946
0.609535
0.610123
0.61071
0.611296
0.611881
0.612464
0.613046
0.613627
0.614207
0.614786
0.615363
0.615939
0.616514
0.617087
0.617659
0.61823
0.6188
0.619368
0.619935
0.620501
0.621065
0.621628
0.62219
0.62275
0.623309
0.623866
0.624422
0.624977
0.62553
0.626082
0.626632
0.627181
0.627728
0.628274
0.628819
0.629362
0.629903
0.630443
0.630982
0.631519
0.632054
0.632588
0.633121
0.633651
0.63418
0.634708
0.635234
0.635758
0.636281
0.636802
0.637322
0.63784
0.638356
0.63887
0.639383
0.639894
0.640404
0.640912
0.641418
0.641922
0.642424
0.642925
0.643424
0.643921
0.644417
0.644911
0.645402
0.645893
0.646381
0.646867
0.647352
0.647834
0.648315
0.648794
0.649271
0.649746
0.65022
0.650691
0.65116
0.651628
0.652093
0.652557
0.653018
0.653478
0.653935
0.654391
0.654844
0.655296
0.655745
0.656193
0.656638
0.657081
0.657522
0.657962
0.658399
0.658833
0.659266
0.659697
0.660125
0.660552
0.660976
0.661398
0.661818
0.662235
0.66265
0.663041
0.663408
0.663776
0.664146
0.664517
0.664889
0.665263
0.665637
0.666013
0.66639
0.666769
0.667148
0.667528
0.667909
0.668291
0.668674
0.669058
0.669442
0.669828
0.670213
0.6706
0.670987
0.671374
0.671762
0.67215
0.672538
0.672927
0.673315
0.673704
0.674093
0.674481
0.67487
0.675258
0.675646
0.676033
0.67642
0.676806
0.677192
0.677577
0.677961
0.678344
0.678725
0.679106
0.679486
0.679864
0.68024
0.680615
0.680989
0.68136
0.68173
0.682097
0.682463
0.682826
0.683186
0.683544
0.6839
0.684252
0.684602
0.684948
0.685291
0.685631
0.685968
0.6863
0.686629
0.686954
0.687275
0.687591
0.687903
0.68821
0.688513
0.68881
0.689103
0.68939
0.689672
0.689948
0.690218
0.690482
0.69074
0.690991
0.691236
0.691474
0.691705
0.691929
0.692146
0.692355
0.692556
0.692749
0.692934
0.693111
0.693279
0.693438
0.693588
0.693729
0.69386
0.693982
0.694093
0.694195
0.694286
0.694367
0.694436
0.694495
0.694542
0.694578
0.694602
0.694614
0.694614
0.694602
0.694577
0.694539
0.694487
0.694423
0.694345
0.694253
0.694147
0.694027
0.693892
0.693743
0.693579
0.693399
0.693205
0.692994
0.692768
0.692526
0.692268
0.691993
0.691702
0.691394
0.69107
0.690727
0.690368
0.689991
0.689597
0.689184
0.688754
0.688305
0.687838
0.687353
0.686849
0.686327
0.685785
0.685225
0.684645
0.684047
0.683429
0.682791
0.682135
0.681459
0.680763
0.680048
0.679313
0.678558
0.677784
0.67699
0.676176
0.675343
0.67449
0.673618
0.672725
0.671814
0.670883
0.669932
0.668962
0.667974
0.666966
0.665939
0.664893
0.663829
0.662746
0.661645
0.660526
0.659389
0.658234
0.657062
0.655872
0.654666
0.653443
0.652203
0.650948
0.649677
0.64839
0.647088
0.645623
0.644004
0.642385
0.640767
0.639153
0.637542
0.635935
0.634333
0.632737
0.631148
0.629565
0.627991
0.626424
0.624867
0.623319
0.621781
0.620253
0.618736
0.617231
0.615737
0.614256
0.612787
0.611331
0.609889
0.60846
0.607045
0.605645
0.604259
0.602888
0.601532
0.600192
0.598867
0.597559
0.596266
0.59499
0.593731
0.592488
0.591262
0.590054
0.588863
0.58769
0.586534
0.585397
0.584278
0.583177
0.582094
0.58103
0.579985
0.578959
0.577952
0.576965
0.575996
0.575048
0.574119
0.57321
0.572321
0.571452
0.570604
0.569776
0.568968
0.568182
0.567416
0.566671
0.565947
0.565245
0.564563
0.563904
0.563266
0.56265
0.562055
0.561483
0.560932
0.560404
0.559898
0.559415
0.558954
0.558516
0.5581
0.557707
0.557337
0.55699
0.556666
0.556365
0.556087
0.555833
0.555602
0.555394
0.55521
0.555049
0.554911
0.554797
0.554707
0.554639
0.554598
0.554569
)
;
    }
    bottomWall
    {
        type            calculated;
        value           nonuniform List<scalar> 
449
(
0.139438
0.0889528
0.0758036
0.0694325
0.0652497
0.0621237
0.0596291
0.0575659
0.0558152
0.0542993
0.0529658
0.0517784
0.0507106
0.0497422
0.0488576
0.0480446
0.0472932
0.0465954
0.0459447
0.0453357
0.0447636
0.0442246
0.0437154
0.0432331
0.0427752
0.0423395
0.0419242
0.0415276
0.0411481
0.0407846
0.0404357
0.0401005
0.039778
0.0394673
0.0391677
0.0388785
0.0385989
0.0383286
0.0380668
0.0378131
0.0375671
0.0373283
0.0370964
0.036871
0.0366518
0.0364385
0.0362307
0.0360282
0.0358309
0.0356383
0.0354504
0.035267
0.0350877
0.0349125
0.0347412
0.0345737
0.0344097
0.0342491
0.0340919
0.0339379
0.0337869
0.0336389
0.0334937
0.0333513
0.0332115
0.0330743
0.0329395
0.0328072
0.0326772
0.0325494
0.0324238
0.0323002
0.0321788
0.0320592
0.0319416
0.0318259
0.0317119
0.0315998
0.0314893
0.0313804
0.0312732
0.0311675
0.0310634
0.0309607
0.0308594
0.0307596
0.0306611
0.030564
0.0304681
0.0303736
0.0302802
0.0301881
0.0300971
0.0300073
0.0299185
0.0298309
0.0297444
0.0296589
0.0295744
0.0294909
0.0294084
0.0293268
0.0292461
0.0291664
0.0290876
0.0290096
0.0289325
0.0288562
0.0287808
0.0287061
0.0286322
0.0285591
0.0284868
0.0284152
0.0283443
0.0282742
0.0282047
0.0281359
0.0280678
0.0280004
0.0279335
0.0278674
0.0278018
0.0277369
0.0276726
0.0276088
0.0275457
0.0274831
0.027421
0.0273596
0.0272986
0.0272382
0.0271783
0.027119
0.0270601
0.0270017
0.0269438
0.0268864
0.0268295
0.0267731
0.0267171
0.0266615
0.0266064
0.0265517
0.0264975
0.0264437
0.0263903
0.0263373
0.0262847
0.0262325
0.0261807
0.0261293
0.0260783
0.0260277
0.0259774
0.0259275
0.025878
0.0258288
0.0257799
0.0257314
0.0256833
0.0256354
0.025588
0.0255408
0.025494
0.0254474
0.0254012
0.0253553
0.0253097
0.0252644
0.0252194
0.0251747
0.0251303
0.0250887
0.0250496
0.0250102
0.0249708
0.0249313
0.0248917
0.024852
0.0248121
0.0247722
0.0247321
0.024692
0.0246517
0.0246113
0.0245708
0.0245302
0.0244896
0.0244488
0.0244079
0.0243669
0.0243258
0.0242846
0.0242433
0.024202
0.0241605
0.024119
0.0240773
0.0240356
0.0239938
0.0239518
0.0239099
0.0238678
0.0238256
0.0237834
0.023741
0.0236986
0.0236562
0.0236136
0.023571
0.0235282
0.0234855
0.0234426
0.0233997
0.0233567
0.0233136
0.0232705
0.0232273
0.023184
0.0231407
0.0230973
0.0230539
0.0230104
0.0229668
0.0229232
0.0228795
0.0228358
0.022792
0.0227482
0.0227043
0.0226603
0.0226164
0.0225723
0.0225282
0.0224841
0.02244
0.0223958
0.0223515
0.0223072
0.0222629
0.0222185
0.0221741
0.0221297
0.0220852
0.0220407
0.0219962
0.0219517
0.0219071
0.0218625
0.0218178
0.0217732
0.0217285
0.0216838
0.021639
0.0215943
0.0215495
0.0215047
0.0214599
0.0214151
0.0213703
0.0213254
0.0212806
0.0212357
0.0211908
0.0211459
0.021101
0.0210561
0.0210112
0.0209663
0.0209214
0.0208765
0.0208315
0.0207866
0.0207417
0.0206968
0.0206519
0.020607
0.0205621
0.0205172
0.0204723
0.0204274
0.0203825
0.0203377
0.0202928
0.020248
0.0202031
0.0201583
0.0201135
0.0200687
0.020024
0.0199792
0.0199345
0.0198898
0.0198451
0.0198004
0.0197558
0.0197112
0.0196666
0.019622
0.0195775
0.0195329
0.0194885
0.019444
0.0193996
0.0193552
0.0193108
0.0192664
0.0192221
0.0191779
0.0191336
0.0190894
0.0190452
0.0190011
0.018957
0.0189129
0.0188689
0.0188249
0.018781
0.0187371
0.0186932
0.0186494
0.0186057
0.0185619
0.0185182
0.0184746
0.018431
0.0183874
0.0183439
0.0183005
0.0182571
0.0182137
0.0181704
0.0181272
0.0180839
0.0180408
0.0179977
0.0179546
0.0179116
0.0178687
0.0178258
0.0177829
0.0177402
0.0176974
0.0176548
0.0176121
0.0175696
0.0175271
0.0174846
0.0174423
0.0173999
0.0173577
0.0173155
0.0172733
0.0172265
0.0171755
0.0171253
0.0170758
0.017027
0.0169789
0.0169314
0.0168846
0.0168385
0.0167929
0.016748
0.0167037
0.01666
0.0166168
0.0165742
0.0165321
0.0164906
0.0164496
0.0164091
0.0163691
0.0163296
0.0162905
0.0162519
0.0162138
0.0161761
0.0161389
0.0161021
0.0160657
0.0160297
0.0159941
0.0159589
0.0159241
0.0158897
0.0158556
0.0158219
0.0157886
0.0157556
0.015723
0.0156906
0.0156587
0.015627
0.0155957
0.0155647
0.015534
0.0155035
0.0154734
0.0154436
0.0154141
0.0153848
0.0153558
0.0153271
0.0152987
0.0152705
0.0152426
0.0152149
0.0151875
0.0151603
0.0151334
0.0151067
0.0150802
0.015054
0.015028
0.0150022
0.0149766
0.0149513
0.0149262
0.0149012
0.0148765
0.014852
0.0148277
0.0148035
0.0147796
0.0147558
0.0147323
0.0147089
0.0146857
0.0146627
0.0146398
0.0146171
0.0145946
0.0145722
0.01455
0.014528
0.0145061
0.0144843
0.0144626
0.0144411
0.0144197
0.0143983
0.0143768
0.0143561
0.0143354
0.0143014
0.0143203
0.0142602
)
;
    }
    symmetry
    {
        type            symmetryPlane;
    }
    frontAndBack
    {
        type            empty;
    }
}


// ************************************************************************* //
