/*--------------------------------*- C++ -*----------------------------------*\
| =========                 |                                                 |
| \\      /  F ield         | OpenFOAM: The Open Source CFD Toolbox           |
|  \\    /   O peration     | Version:  v2012                                 |
|   \\  /    A nd           | Website:  www.openfoam.com                      |
|    \\/     M anipulation  |                                                 |
\*---------------------------------------------------------------------------*/
FoamFile
{
    version     2.0;
    format      ascii;
    class       volVectorField;
    location    "54";
    object      wallShearStress;
}
// * * * * * * * * * * * * * * * * * * * * * * * * * * * * * * * * * * * * * //

dimensions      [0 2 -2 0 0 0 0];


internalField   uniform (0 0 0);

boundaryField
{
    inlet
    {
        type            calculated;
        value           uniform (0 0 0);
    }
    outlet
    {
        type            calculated;
        value           uniform (0 0 0);
    }
    topWall
    {
        type            calculated;
        value           nonuniform List<vector> 
545
(
(1.48729e-08 -1.04692e-08 0)
(1.4866e-08 -2.92889e-08 0)
(1.48523e-08 -4.88571e-08 0)
(1.48318e-08 -6.78514e-08 0)
(1.48057e-08 -8.60245e-08 0)
(1.47744e-08 -1.03608e-07 0)
(1.47385e-08 -1.2075e-07 0)
(1.46982e-08 -1.3744e-07 0)
(1.46541e-08 -1.53642e-07 0)
(1.46064e-08 -1.69353e-07 0)
(1.45555e-08 -1.84594e-07 0)
(1.45018e-08 -1.99383e-07 0)
(1.44455e-08 -2.13729e-07 0)
(1.43871e-08 -2.27642e-07 0)
(1.43266e-08 -2.41131e-07 0)
(1.42645e-08 -2.54208e-07 0)
(1.42009e-08 -2.66884e-07 0)
(1.4136e-08 -2.79171e-07 0)
(1.40701e-08 -2.91078e-07 0)
(1.40034e-08 -3.02617e-07 0)
(1.39359e-08 -3.13798e-07 0)
(1.3868e-08 -3.24631e-07 0)
(1.37996e-08 -3.35127e-07 0)
(1.37311e-08 -3.45295e-07 0)
(1.36624e-08 -3.55147e-07 0)
(1.35938e-08 -3.6469e-07 0)
(1.35252e-08 -3.73934e-07 0)
(1.34569e-08 -3.8289e-07 0)
(1.33889e-08 -3.91565e-07 0)
(1.33213e-08 -3.99969e-07 0)
(1.32542e-08 -4.0811e-07 0)
(1.31876e-08 -4.15997e-07 0)
(1.31216e-08 -4.23637e-07 0)
(1.30563e-08 -4.31039e-07 0)
(1.29916e-08 -4.38209e-07 0)
(1.29277e-08 -4.45156e-07 0)
(1.28646e-08 -4.51887e-07 0)
(1.28023e-08 -4.58408e-07 0)
(1.27409e-08 -4.64727e-07 0)
(1.26803e-08 -4.7085e-07 0)
(1.26206e-08 -4.76783e-07 0)
(1.25618e-08 -4.82532e-07 0)
(1.2504e-08 -4.88104e-07 0)
(1.24471e-08 -4.93505e-07 0)
(1.23912e-08 -4.98739e-07 0)
(1.23362e-08 -5.03812e-07 0)
(1.22823e-08 -5.0873e-07 0)
(1.22292e-08 -5.13497e-07 0)
(1.21772e-08 -5.18119e-07 0)
(1.21261e-08 -5.226e-07 0)
(1.2076e-08 -5.26945e-07 0)
(1.20269e-08 -5.31157e-07 0)
(1.19788e-08 -5.35242e-07 0)
(1.19316e-08 -5.39204e-07 0)
(1.18853e-08 -5.43046e-07 0)
(1.184e-08 -5.46772e-07 0)
(1.17957e-08 -5.50387e-07 0)
(1.17523e-08 -5.53893e-07 0)
(1.17098e-08 -5.57294e-07 0)
(1.16682e-08 -5.60593e-07 0)
(1.16275e-08 -5.63795e-07 0)
(1.15877e-08 -5.66901e-07 0)
(1.15487e-08 -5.69915e-07 0)
(1.15107e-08 -5.72839e-07 0)
(1.14734e-08 -5.75677e-07 0)
(1.1437e-08 -5.78432e-07 0)
(1.14015e-08 -5.81106e-07 0)
(1.13667e-08 -5.83701e-07 0)
(1.13328e-08 -5.8622e-07 0)
(1.12996e-08 -5.88665e-07 0)
(1.12671e-08 -5.91039e-07 0)
(1.12357e-08 -5.93341e-07 0)
(1.12051e-08 -5.95553e-07 0)
(1.1175e-08 -5.97697e-07 0)
(1.11453e-08 -5.99815e-07 0)
(1.11157e-08 -6.0192e-07 0)
(1.10861e-08 -6.04014e-07 0)
(1.10566e-08 -6.06092e-07 0)
(1.10272e-08 -6.08155e-07 0)
(1.09978e-08 -6.10203e-07 0)
(1.09685e-08 -6.12236e-07 0)
(1.09392e-08 -6.14254e-07 0)
(1.091e-08 -6.16258e-07 0)
(1.08809e-08 -6.18247e-07 0)
(1.08518e-08 -6.20222e-07 0)
(1.08228e-08 -6.22182e-07 0)
(1.07938e-08 -6.24129e-07 0)
(1.07649e-08 -6.26061e-07 0)
(1.07361e-08 -6.27979e-07 0)
(1.07073e-08 -6.29883e-07 0)
(1.06786e-08 -6.31774e-07 0)
(1.065e-08 -6.33651e-07 0)
(1.06215e-08 -6.35515e-07 0)
(1.0593e-08 -6.37363e-07 0)
(1.05643e-08 -6.39203e-07 0)
(1.05372e-08 -6.4101e-07 0)
(1.05121e-08 -6.42663e-07 0)
(1.04878e-08 -6.44159e-07 0)
(1.04644e-08 -6.45614e-07 0)
(1.0441e-08 -6.47075e-07 0)
(1.04177e-08 -6.48547e-07 0)
(1.03943e-08 -6.50022e-07 0)
(1.03707e-08 -6.51494e-07 0)
(1.03471e-08 -6.52965e-07 0)
(1.03234e-08 -6.54436e-07 0)
(1.02996e-08 -6.55907e-07 0)
(1.02757e-08 -6.57379e-07 0)
(1.02518e-08 -6.58851e-07 0)
(1.02277e-08 -6.60323e-07 0)
(1.02035e-08 -6.61795e-07 0)
(1.01792e-08 -6.63266e-07 0)
(1.01549e-08 -6.64738e-07 0)
(1.01304e-08 -6.6621e-07 0)
(1.01059e-08 -6.67681e-07 0)
(1.00812e-08 -6.69153e-07 0)
(1.00565e-08 -6.70624e-07 0)
(1.00317e-08 -6.72095e-07 0)
(1.00068e-08 -6.73566e-07 0)
(9.98174e-09 -6.75037e-07 0)
(9.95663e-09 -6.76507e-07 0)
(9.93142e-09 -6.77977e-07 0)
(9.90612e-09 -6.79447e-07 0)
(9.88073e-09 -6.80917e-07 0)
(9.85524e-09 -6.82386e-07 0)
(9.82965e-09 -6.83855e-07 0)
(9.80398e-09 -6.85324e-07 0)
(9.7782e-09 -6.86792e-07 0)
(9.75234e-09 -6.8826e-07 0)
(9.72637e-09 -6.89728e-07 0)
(9.70031e-09 -6.91194e-07 0)
(9.67416e-09 -6.92661e-07 0)
(9.64791e-09 -6.94127e-07 0)
(9.62157e-09 -6.95592e-07 0)
(9.59514e-09 -6.97057e-07 0)
(9.5686e-09 -6.98521e-07 0)
(9.54198e-09 -6.99985e-07 0)
(9.51525e-09 -7.01448e-07 0)
(9.48844e-09 -7.0291e-07 0)
(9.46153e-09 -7.04372e-07 0)
(9.43452e-09 -7.05833e-07 0)
(9.40742e-09 -7.07293e-07 0)
(9.38022e-09 -7.08752e-07 0)
(9.35293e-09 -7.10211e-07 0)
(9.32554e-09 -7.11668e-07 0)
(9.29806e-09 -7.13125e-07 0)
(9.27049e-09 -7.14581e-07 0)
(9.24282e-09 -7.16036e-07 0)
(9.21505e-09 -7.1749e-07 0)
(9.18719e-09 -7.18943e-07 0)
(9.15924e-09 -7.20396e-07 0)
(9.13119e-09 -7.21847e-07 0)
(9.10305e-09 -7.23297e-07 0)
(9.07481e-09 -7.24746e-07 0)
(9.04648e-09 -7.26194e-07 0)
(9.01805e-09 -7.27641e-07 0)
(8.98953e-09 -7.29086e-07 0)
(8.96092e-09 -7.30531e-07 0)
(8.93221e-09 -7.31974e-07 0)
(8.90341e-09 -7.33416e-07 0)
(8.87452e-09 -7.34857e-07 0)
(8.84553e-09 -7.36296e-07 0)
(8.81644e-09 -7.37734e-07 0)
(8.78727e-09 -7.39171e-07 0)
(8.758e-09 -7.40606e-07 0)
(8.72864e-09 -7.4204e-07 0)
(8.69918e-09 -7.43473e-07 0)
(8.66963e-09 -7.44904e-07 0)
(8.63999e-09 -7.46333e-07 0)
(8.61026e-09 -7.47761e-07 0)
(8.58043e-09 -7.49187e-07 0)
(8.55052e-09 -7.50612e-07 0)
(8.52051e-09 -7.52035e-07 0)
(8.4904e-09 -7.53457e-07 0)
(8.46021e-09 -7.54876e-07 0)
(8.42993e-09 -7.56294e-07 0)
(8.39955e-09 -7.57711e-07 0)
(8.36908e-09 -7.59125e-07 0)
(8.33852e-09 -7.60538e-07 0)
(8.30788e-09 -7.61948e-07 0)
(8.27714e-09 -7.63357e-07 0)
(8.24631e-09 -7.64764e-07 0)
(8.21539e-09 -7.66169e-07 0)
(8.18438e-09 -7.67572e-07 0)
(8.15328e-09 -7.68973e-07 0)
(8.12209e-09 -7.70372e-07 0)
(8.09081e-09 -7.71769e-07 0)
(8.05945e-09 -7.73164e-07 0)
(8.02799e-09 -7.74556e-07 0)
(7.99645e-09 -7.75947e-07 0)
(7.96482e-09 -7.77335e-07 0)
(7.9331e-09 -7.78721e-07 0)
(7.9013e-09 -7.80104e-07 0)
(7.86941e-09 -7.81486e-07 0)
(7.83743e-09 -7.82865e-07 0)
(7.80536e-09 -7.84241e-07 0)
(7.77321e-09 -7.85616e-07 0)
(7.74098e-09 -7.86987e-07 0)
(7.70865e-09 -7.88356e-07 0)
(7.67625e-09 -7.89723e-07 0)
(7.64375e-09 -7.91087e-07 0)
(7.61118e-09 -7.92449e-07 0)
(7.57852e-09 -7.93808e-07 0)
(7.54577e-09 -7.95164e-07 0)
(7.51295e-09 -7.96518e-07 0)
(7.48004e-09 -7.97869e-07 0)
(7.44705e-09 -7.99217e-07 0)
(7.41397e-09 -8.00562e-07 0)
(7.38082e-09 -8.01904e-07 0)
(7.34758e-09 -8.03244e-07 0)
(7.31426e-09 -8.04581e-07 0)
(7.28086e-09 -8.05914e-07 0)
(7.24739e-09 -8.07245e-07 0)
(7.21383e-09 -8.08573e-07 0)
(7.18019e-09 -8.09897e-07 0)
(7.14648e-09 -8.11219e-07 0)
(7.11268e-09 -8.12537e-07 0)
(7.07881e-09 -8.13853e-07 0)
(7.04487e-09 -8.15165e-07 0)
(7.01084e-09 -8.16473e-07 0)
(6.97674e-09 -8.17779e-07 0)
(6.94257e-09 -8.19081e-07 0)
(6.90832e-09 -8.2038e-07 0)
(6.87399e-09 -8.21676e-07 0)
(6.83959e-09 -8.22968e-07 0)
(6.80512e-09 -8.24256e-07 0)
(6.77058e-09 -8.25541e-07 0)
(6.73596e-09 -8.26823e-07 0)
(6.70127e-09 -8.28101e-07 0)
(6.66651e-09 -8.29375e-07 0)
(6.63168e-09 -8.30646e-07 0)
(6.59678e-09 -8.31913e-07 0)
(6.5618e-09 -8.33177e-07 0)
(6.52677e-09 -8.34436e-07 0)
(6.49166e-09 -8.35692e-07 0)
(6.45648e-09 -8.36944e-07 0)
(6.42124e-09 -8.38192e-07 0)
(6.38593e-09 -8.39436e-07 0)
(6.35056e-09 -8.40676e-07 0)
(6.31512e-09 -8.41913e-07 0)
(6.27962e-09 -8.43145e-07 0)
(6.24405e-09 -8.44373e-07 0)
(6.20842e-09 -8.45597e-07 0)
(6.17273e-09 -8.46817e-07 0)
(6.13697e-09 -8.48033e-07 0)
(6.10116e-09 -8.49244e-07 0)
(6.06528e-09 -8.50451e-07 0)
(6.02935e-09 -8.51654e-07 0)
(5.99335e-09 -8.52853e-07 0)
(5.9573e-09 -8.54047e-07 0)
(5.92119e-09 -8.55237e-07 0)
(5.88503e-09 -8.56422e-07 0)
(5.84881e-09 -8.57603e-07 0)
(5.81253e-09 -8.58779e-07 0)
(5.7762e-09 -8.59951e-07 0)
(5.73982e-09 -8.61118e-07 0)
(5.70338e-09 -8.62281e-07 0)
(5.6669e-09 -8.63438e-07 0)
(5.63036e-09 -8.64591e-07 0)
(5.59377e-09 -8.6574e-07 0)
(5.55713e-09 -8.66883e-07 0)
(5.52044e-09 -8.68022e-07 0)
(5.48371e-09 -8.69156e-07 0)
(5.44693e-09 -8.70284e-07 0)
(5.4101e-09 -8.71408e-07 0)
(5.37323e-09 -8.72527e-07 0)
(5.33631e-09 -8.73641e-07 0)
(5.2994e-09 -8.74749e-07 0)
(5.26218e-09 -8.75854e-07 0)
(5.22605e-09 -8.76947e-07 0)
(5.19143e-09 -8.77983e-07 0)
(5.15733e-09 -8.78964e-07 0)
(5.12366e-09 -8.79934e-07 0)
(5.08983e-09 -8.8091e-07 0)
(5.05572e-09 -8.81894e-07 0)
(5.0213e-09 -8.82884e-07 0)
(4.98655e-09 -8.83876e-07 0)
(4.95146e-09 -8.84871e-07 0)
(4.91605e-09 -8.8587e-07 0)
(4.8803e-09 -8.86873e-07 0)
(4.84421e-09 -8.87879e-07 0)
(4.80779e-09 -8.88889e-07 0)
(4.77103e-09 -8.89902e-07 0)
(4.73392e-09 -8.90918e-07 0)
(4.69647e-09 -8.91937e-07 0)
(4.65868e-09 -8.92958e-07 0)
(4.62054e-09 -8.93983e-07 0)
(4.58206e-09 -8.9501e-07 0)
(4.54322e-09 -8.9604e-07 0)
(4.50404e-09 -8.97071e-07 0)
(4.4645e-09 -8.98105e-07 0)
(4.42461e-09 -8.99141e-07 0)
(4.38436e-09 -9.00179e-07 0)
(4.34376e-09 -9.01218e-07 0)
(4.30281e-09 -9.02259e-07 0)
(4.26149e-09 -9.03301e-07 0)
(4.21982e-09 -9.04345e-07 0)
(4.17779e-09 -9.05389e-07 0)
(4.1354e-09 -9.06434e-07 0)
(4.09265e-09 -9.07479e-07 0)
(4.04953e-09 -9.08525e-07 0)
(4.00606e-09 -9.09571e-07 0)
(3.96222e-09 -9.10616e-07 0)
(3.91803e-09 -9.11662e-07 0)
(3.87346e-09 -9.12707e-07 0)
(3.82854e-09 -9.13751e-07 0)
(3.78326e-09 -9.14794e-07 0)
(3.73761e-09 -9.15835e-07 0)
(3.6916e-09 -9.16876e-07 0)
(3.64523e-09 -9.17914e-07 0)
(3.5985e-09 -9.18951e-07 0)
(3.5514e-09 -9.19985e-07 0)
(3.50395e-09 -9.21016e-07 0)
(3.45614e-09 -9.22045e-07 0)
(3.40798e-09 -9.2307e-07 0)
(3.35945e-09 -9.24092e-07 0)
(3.31057e-09 -9.2511e-07 0)
(3.26134e-09 -9.26125e-07 0)
(3.21176e-09 -9.27134e-07 0)
(3.16183e-09 -9.28139e-07 0)
(3.11155e-09 -9.29139e-07 0)
(3.06093e-09 -9.30134e-07 0)
(3.00996e-09 -9.31122e-07 0)
(2.95865e-09 -9.32105e-07 0)
(2.90701e-09 -9.33081e-07 0)
(2.85503e-09 -9.3405e-07 0)
(2.80272e-09 -9.35012e-07 0)
(2.75009e-09 -9.35967e-07 0)
(2.69713e-09 -9.36913e-07 0)
(2.64385e-09 -9.37851e-07 0)
(2.59025e-09 -9.38781e-07 0)
(2.53634e-09 -9.39701e-07 0)
(2.48213e-09 -9.40611e-07 0)
(2.42761e-09 -9.41511e-07 0)
(2.3728e-09 -9.42401e-07 0)
(2.31769e-09 -9.4328e-07 0)
(2.2623e-09 -9.44147e-07 0)
(2.20663e-09 -9.45003e-07 0)
(2.15068e-09 -9.45846e-07 0)
(2.09446e-09 -9.46677e-07 0)
(2.03799e-09 -9.47494e-07 0)
(1.98125e-09 -9.48297e-07 0)
(1.92427e-09 -9.49086e-07 0)
(1.86705e-09 -9.4986e-07 0)
(1.8096e-09 -9.50619e-07 0)
(1.75192e-09 -9.51363e-07 0)
(1.69403e-09 -9.52089e-07 0)
(1.63593e-09 -9.52799e-07 0)
(1.57763e-09 -9.53492e-07 0)
(1.51914e-09 -9.54166e-07 0)
(1.46048e-09 -9.54822e-07 0)
(1.40164e-09 -9.55459e-07 0)
(1.34264e-09 -9.56076e-07 0)
(1.2835e-09 -9.56673e-07 0)
(1.22421e-09 -9.5725e-07 0)
(1.1648e-09 -9.57804e-07 0)
(1.10528e-09 -9.58337e-07 0)
(1.04565e-09 -9.58848e-07 0)
(9.85928e-10 -9.59335e-07 0)
(9.2613e-10 -9.59798e-07 0)
(8.66265e-10 -9.60237e-07 0)
(8.06348e-10 -9.60651e-07 0)
(7.46392e-10 -9.6104e-07 0)
(6.86411e-10 -9.61402e-07 0)
(6.2642e-10 -9.61737e-07 0)
(5.66432e-10 -9.62045e-07 0)
(5.06463e-10 -9.62324e-07 0)
(4.46529e-10 -9.62575e-07 0)
(3.86643e-10 -9.62797e-07 0)
(3.26824e-10 -9.62988e-07 0)
(2.67086e-10 -9.63149e-07 0)
(2.07447e-10 -9.63279e-07 0)
(1.47923e-10 -9.63376e-07 0)
(8.8531e-11 -9.63441e-07 0)
(2.92894e-11 -9.63473e-07 0)
(-2.97844e-11 -9.63471e-07 0)
(-8.86723e-11 -9.63435e-07 0)
(-1.47356e-10 -9.63363e-07 0)
(-2.05817e-10 -9.63255e-07 0)
(-2.64036e-10 -9.63112e-07 0)
(-3.21994e-10 -9.62931e-07 0)
(-3.79671e-10 -9.62712e-07 0)
(-4.37048e-10 -9.62456e-07 0)
(-4.94105e-10 -9.6216e-07 0)
(-5.50823e-10 -9.61825e-07 0)
(-6.07179e-10 -9.6145e-07 0)
(-6.63155e-10 -9.61034e-07 0)
(-7.18729e-10 -9.60577e-07 0)
(-7.73881e-10 -9.60078e-07 0)
(-8.2859e-10 -9.59537e-07 0)
(-8.82834e-10 -9.58953e-07 0)
(-9.36592e-10 -9.58326e-07 0)
(-9.89844e-10 -9.57654e-07 0)
(-1.04257e-09 -9.56938e-07 0)
(-1.09474e-09 -9.56177e-07 0)
(-1.14634e-09 -9.55371e-07 0)
(-1.19735e-09 -9.54518e-07 0)
(-1.24775e-09 -9.5362e-07 0)
(-1.29751e-09 -9.52674e-07 0)
(-1.34662e-09 -9.51681e-07 0)
(-1.39504e-09 -9.5064e-07 0)
(-1.44277e-09 -9.49551e-07 0)
(-1.48978e-09 -9.48414e-07 0)
(-1.53605e-09 -9.47227e-07 0)
(-1.58156e-09 -9.45992e-07 0)
(-1.62628e-09 -9.44707e-07 0)
(-1.6702e-09 -9.43372e-07 0)
(-1.7133e-09 -9.41988e-07 0)
(-1.75556e-09 -9.40553e-07 0)
(-1.79696e-09 -9.39067e-07 0)
(-1.83748e-09 -9.37531e-07 0)
(-1.8771e-09 -9.35944e-07 0)
(-1.9158e-09 -9.34306e-07 0)
(-1.95357e-09 -9.32617e-07 0)
(-1.99038e-09 -9.30876e-07 0)
(-2.02623e-09 -9.29085e-07 0)
(-2.06109e-09 -9.27242e-07 0)
(-2.09495e-09 -9.25348e-07 0)
(-2.12779e-09 -9.23402e-07 0)
(-2.1596e-09 -9.21406e-07 0)
(-2.19037e-09 -9.19358e-07 0)
(-2.22008e-09 -9.17259e-07 0)
(-2.24871e-09 -9.1511e-07 0)
(-2.27626e-09 -9.1291e-07 0)
(-2.30271e-09 -9.10659e-07 0)
(-2.32806e-09 -9.08359e-07 0)
(-2.35229e-09 -9.06008e-07 0)
(-2.37539e-09 -9.03609e-07 0)
(-2.39736e-09 -9.01159e-07 0)
(-2.41819e-09 -8.98662e-07 0)
(-2.43787e-09 -8.96115e-07 0)
(-2.45639e-09 -8.93521e-07 0)
(-2.47375e-09 -8.9088e-07 0)
(-2.48994e-09 -8.88192e-07 0)
(-2.50497e-09 -8.85457e-07 0)
(-2.51883e-09 -8.82677e-07 0)
(-2.53151e-09 -8.79852e-07 0)
(-2.54301e-09 -8.76983e-07 0)
(-2.55334e-09 -8.7407e-07 0)
(-2.5625e-09 -8.71114e-07 0)
(-2.57049e-09 -8.68116e-07 0)
(-2.5773e-09 -8.65077e-07 0)
(-2.58295e-09 -8.61997e-07 0)
(-2.58743e-09 -8.58878e-07 0)
(-2.59076e-09 -8.5572e-07 0)
(-2.59294e-09 -8.52524e-07 0)
(-2.59397e-09 -8.49292e-07 0)
(-2.59387e-09 -8.46025e-07 0)
(-2.59262e-09 -8.4272e-07 0)
(-2.59031e-09 -8.39389e-07 0)
(-2.58666e-09 -8.35983e-07 0)
(-2.58141e-09 -8.32224e-07 0)
(-2.57452e-09 -8.28108e-07 0)
(-2.56599e-09 -8.23918e-07 0)
(-2.55599e-09 -8.19752e-07 0)
(-2.54468e-09 -8.15627e-07 0)
(-2.53215e-09 -8.11527e-07 0)
(-2.51846e-09 -8.07442e-07 0)
(-2.50367e-09 -8.03378e-07 0)
(-2.48785e-09 -7.99338e-07 0)
(-2.47105e-09 -7.95327e-07 0)
(-2.45334e-09 -7.91343e-07 0)
(-2.43476e-09 -7.87389e-07 0)
(-2.41538e-09 -7.83465e-07 0)
(-2.39525e-09 -7.79573e-07 0)
(-2.3744e-09 -7.75715e-07 0)
(-2.35288e-09 -7.71891e-07 0)
(-2.33074e-09 -7.68102e-07 0)
(-2.30802e-09 -7.64349e-07 0)
(-2.28475e-09 -7.60634e-07 0)
(-2.26098e-09 -7.56957e-07 0)
(-2.23673e-09 -7.53319e-07 0)
(-2.21203e-09 -7.4972e-07 0)
(-2.18693e-09 -7.46162e-07 0)
(-2.16143e-09 -7.42645e-07 0)
(-2.13558e-09 -7.39169e-07 0)
(-2.1094e-09 -7.35735e-07 0)
(-2.08291e-09 -7.32344e-07 0)
(-2.05613e-09 -7.28996e-07 0)
(-2.02908e-09 -7.25692e-07 0)
(-2.00178e-09 -7.22432e-07 0)
(-1.97425e-09 -7.19216e-07 0)
(-1.94651e-09 -7.16044e-07 0)
(-1.91857e-09 -7.12918e-07 0)
(-1.89044e-09 -7.09837e-07 0)
(-1.86214e-09 -7.06802e-07 0)
(-1.83367e-09 -7.03813e-07 0)
(-1.80506e-09 -7.0087e-07 0)
(-1.77631e-09 -6.97973e-07 0)
(-1.74742e-09 -6.95123e-07 0)
(-1.71841e-09 -6.9232e-07 0)
(-1.68929e-09 -6.89564e-07 0)
(-1.66006e-09 -6.86855e-07 0)
(-1.63072e-09 -6.84193e-07 0)
(-1.60128e-09 -6.81579e-07 0)
(-1.57176e-09 -6.79012e-07 0)
(-1.54214e-09 -6.76494e-07 0)
(-1.51244e-09 -6.74023e-07 0)
(-1.48266e-09 -6.71601e-07 0)
(-1.45279e-09 -6.69227e-07 0)
(-1.42285e-09 -6.66901e-07 0)
(-1.39284e-09 -6.64624e-07 0)
(-1.36275e-09 -6.62395e-07 0)
(-1.33259e-09 -6.60215e-07 0)
(-1.30236e-09 -6.58084e-07 0)
(-1.27206e-09 -6.56001e-07 0)
(-1.24169e-09 -6.53968e-07 0)
(-1.21125e-09 -6.51984e-07 0)
(-1.18075e-09 -6.5005e-07 0)
(-1.15018e-09 -6.48164e-07 0)
(-1.11954e-09 -6.46329e-07 0)
(-1.08883e-09 -6.44542e-07 0)
(-1.05806e-09 -6.42806e-07 0)
(-1.02722e-09 -6.41119e-07 0)
(-9.96317e-10 -6.39483e-07 0)
(-9.65345e-10 -6.37896e-07 0)
(-9.34308e-10 -6.3636e-07 0)
(-9.03205e-10 -6.34873e-07 0)
(-8.72037e-10 -6.33438e-07 0)
(-8.40805e-10 -6.32052e-07 0)
(-8.09508e-10 -6.30717e-07 0)
(-7.78148e-10 -6.29433e-07 0)
(-7.46726e-10 -6.282e-07 0)
(-7.15242e-10 -6.27017e-07 0)
(-6.83697e-10 -6.25886e-07 0)
(-6.52094e-10 -6.24806e-07 0)
(-6.20433e-10 -6.23776e-07 0)
(-5.88715e-10 -6.22798e-07 0)
(-5.56944e-10 -6.21872e-07 0)
(-5.25119e-10 -6.20996e-07 0)
(-4.93244e-10 -6.20173e-07 0)
(-4.61321e-10 -6.19401e-07 0)
(-4.29351e-10 -6.1868e-07 0)
(-3.97338e-10 -6.18012e-07 0)
(-3.65284e-10 -6.17395e-07 0)
(-3.33192e-10 -6.16829e-07 0)
(-3.01064e-10 -6.1632e-07 0)
(-2.68903e-10 -6.15846e-07 0)
(-2.36718e-10 -6.1548e-07 0)
(-2.04488e-10 -6.1498e-07 0)
(-1.72299e-10 -6.15141e-07 0)
(-1.39885e-10 -6.13291e-07 0)
(-1.08143e-10 -6.1808e-07 0)
(-7.42144e-11 -5.99438e-07 0)
(-4.79138e-11 -6.48563e-07 0)
(-2.00793e-11 -5.66423e-07 0)
)
;
    }
    bottomWall
    {
        type            calculated;
        value           nonuniform List<vector> 
449
(
(-48.5216 -0.963954 0)
(-19.7474 -0.00515416 0)
(-14.3408 -0.00113463 0)
(-12.0314 -0.000545422 0)
(-10.6255 -0.000351463 0)
(-9.63181 -0.000255971 0)
(-8.87381 -0.000198468 0)
(-8.27035 -0.000159802 0)
(-7.77497 -0.000132314 0)
(-7.35837 -0.000111969 0)
(-7.0014 -9.63697e-05 0)
(-6.691 -8.40639e-05 0)
(-6.41787 -7.4147e-05 0)
(-6.17509 -6.60201e-05 0)
(-5.95742 -5.92638e-05 0)
(-5.76079 -5.35749e-05 0)
(-5.582 -4.8731e-05 0)
(-5.41851 -4.45665e-05 0)
(-5.26823 -4.09554e-05 0)
(-5.12948 -3.78e-05 0)
(-5.00084 -3.5024e-05 0)
(-4.88114 -3.25665e-05 0)
(-4.76938 -3.03786e-05 0)
(-4.66472 -2.84209e-05 0)
(-4.56643 -2.66608e-05 0)
(-4.47389 -2.50716e-05 0)
(-4.38655 -2.36311e-05 0)
(-4.30395 -2.23204e-05 0)
(-4.22566 -2.11239e-05 0)
(-4.15132 -2.00281e-05 0)
(-4.0806 -1.90215e-05 0)
(-4.01322 -1.80945e-05 0)
(-3.94893 -1.72384e-05 0)
(-3.88749 -1.6446e-05 0)
(-3.82869 -1.57108e-05 0)
(-3.77235 -1.50272e-05 0)
(-3.7183 -1.43903e-05 0)
(-3.66639 -1.37958e-05 0)
(-3.61648 -1.32399e-05 0)
(-3.56844 -1.27192e-05 0)
(-3.52216 -1.22306e-05 0)
(-3.47753 -1.17714e-05 0)
(-3.43446 -1.13393e-05 0)
(-3.39285 -1.0932e-05 0)
(-3.35262 -1.05477e-05 0)
(-3.31371 -1.01845e-05 0)
(-3.27603 -9.84095e-06 0)
(-3.23952 -9.51552e-06 0)
(-3.20412 -9.20692e-06 0)
(-3.16978 -8.91398e-06 0)
(-3.13644 -8.6356e-06 0)
(-3.10406 -8.37081e-06 0)
(-3.07259 -8.1187e-06 0)
(-3.04198 -7.87844e-06 0)
(-3.0122 -7.64927e-06 0)
(-2.98322 -7.43049e-06 0)
(-2.95498 -7.22147e-06 0)
(-2.92748 -7.0216e-06 0)
(-2.90066 -6.83034e-06 0)
(-2.87451 -6.64719e-06 0)
(-2.84899 -6.47168e-06 0)
(-2.82408 -6.30336e-06 0)
(-2.79976 -6.14184e-06 0)
(-2.776 -5.98675e-06 0)
(-2.75278 -5.83773e-06 0)
(-2.73008 -5.69446e-06 0)
(-2.70788 -5.55664e-06 0)
(-2.68617 -5.42398e-06 0)
(-2.66491 -5.29622e-06 0)
(-2.64411 -5.17311e-06 0)
(-2.62374 -5.05443e-06 0)
(-2.60379 -4.93995e-06 0)
(-2.58424 -4.82947e-06 0)
(-2.56508 -4.7228e-06 0)
(-2.54629 -4.61976e-06 0)
(-2.52787 -4.52019e-06 0)
(-2.50981 -4.42392e-06 0)
(-2.49208 -4.3308e-06 0)
(-2.47468 -4.24069e-06 0)
(-2.4576 -4.15346e-06 0)
(-2.44084 -4.06899e-06 0)
(-2.42437 -3.98715e-06 0)
(-2.40819 -3.90784e-06 0)
(-2.3923 -3.83094e-06 0)
(-2.37668 -3.75636e-06 0)
(-2.36133 -3.68399e-06 0)
(-2.34623 -3.61376e-06 0)
(-2.33139 -3.54558e-06 0)
(-2.31679 -3.47936e-06 0)
(-2.30243 -3.41502e-06 0)
(-2.2883 -3.3525e-06 0)
(-2.27439 -3.29172e-06 0)
(-2.2607 -3.23262e-06 0)
(-2.24723 -3.17513e-06 0)
(-2.23396 -3.1192e-06 0)
(-2.2209 -3.06476e-06 0)
(-2.20803 -3.01177e-06 0)
(-2.19535 -2.96016e-06 0)
(-2.18286 -2.9099e-06 0)
(-2.17055 -2.86092e-06 0)
(-2.15842 -2.8132e-06 0)
(-2.14646 -2.76668e-06 0)
(-2.13468 -2.72132e-06 0)
(-2.12305 -2.67708e-06 0)
(-2.11159 -2.63393e-06 0)
(-2.10029 -2.59183e-06 0)
(-2.08914 -2.55075e-06 0)
(-2.07813 -2.51064e-06 0)
(-2.06728 -2.47148e-06 0)
(-2.05657 -2.43324e-06 0)
(-2.046 -2.39589e-06 0)
(-2.03557 -2.3594e-06 0)
(-2.02527 -2.32375e-06 0)
(-2.0151 -2.2889e-06 0)
(-2.00506 -2.25484e-06 0)
(-1.99514 -2.22153e-06 0)
(-1.98535 -2.18896e-06 0)
(-1.97568 -2.15711e-06 0)
(-1.96613 -2.12595e-06 0)
(-1.95669 -2.09546e-06 0)
(-1.94736 -2.06562e-06 0)
(-1.93815 -2.03641e-06 0)
(-1.92904 -2.00782e-06 0)
(-1.92004 -1.97983e-06 0)
(-1.91114 -1.95242e-06 0)
(-1.90235 -1.92557e-06 0)
(-1.89366 -1.89927e-06 0)
(-1.88506 -1.87351e-06 0)
(-1.87656 -1.84826e-06 0)
(-1.86815 -1.82352e-06 0)
(-1.85984 -1.79926e-06 0)
(-1.85162 -1.77549e-06 0)
(-1.84349 -1.75218e-06 0)
(-1.83544 -1.72932e-06 0)
(-1.82748 -1.7069e-06 0)
(-1.81961 -1.68491e-06 0)
(-1.81181 -1.66334e-06 0)
(-1.8041 -1.64218e-06 0)
(-1.79647 -1.62141e-06 0)
(-1.78892 -1.60103e-06 0)
(-1.78144 -1.58103e-06 0)
(-1.77404 -1.56139e-06 0)
(-1.76672 -1.54211e-06 0)
(-1.75946 -1.52318e-06 0)
(-1.75228 -1.50459e-06 0)
(-1.74517 -1.48634e-06 0)
(-1.73813 -1.46841e-06 0)
(-1.73116 -1.45079e-06 0)
(-1.72425 -1.43348e-06 0)
(-1.71742 -1.41648e-06 0)
(-1.71064 -1.39977e-06 0)
(-1.70393 -1.38335e-06 0)
(-1.69728 -1.36721e-06 0)
(-1.6907 -1.35134e-06 0)
(-1.68417 -1.33574e-06 0)
(-1.67771 -1.3204e-06 0)
(-1.6713 -1.30532e-06 0)
(-1.66495 -1.29049e-06 0)
(-1.65866 -1.27591e-06 0)
(-1.65243 -1.26156e-06 0)
(-1.64625 -1.24745e-06 0)
(-1.64012 -1.23357e-06 0)
(-1.63405 -1.21991e-06 0)
(-1.62803 -1.20647e-06 0)
(-1.62207 -1.19324e-06 0)
(-1.61615 -1.18023e-06 0)
(-1.61029 -1.16742e-06 0)
(-1.60448 -1.15482e-06 0)
(-1.59871 -1.14243e-06 0)
(-1.59299 -1.1301e-06 0)
(-1.58732 -1.11842e-06 0)
(-1.5817 -1.10632e-06 0)
(-1.57613 -1.09318e-06 0)
(-1.57091 -1.083e-06 0)
(-1.56601 -1.07478e-06 0)
(-1.5611 -1.06442e-06 0)
(-1.55618 -1.05374e-06 0)
(-1.55126 -1.04373e-06 0)
(-1.54634 -1.03369e-06 0)
(-1.5414 -1.02378e-06 0)
(-1.53647 -1.01392e-06 0)
(-1.53152 -1.00414e-06 0)
(-1.52657 -9.94408e-07 0)
(-1.52162 -9.84738e-07 0)
(-1.51666 -9.75124e-07 0)
(-1.5117 -9.65566e-07 0)
(-1.50673 -9.56063e-07 0)
(-1.50175 -9.46615e-07 0)
(-1.49678 -9.37223e-07 0)
(-1.49179 -9.27885e-07 0)
(-1.48681 -9.18603e-07 0)
(-1.48182 -9.09377e-07 0)
(-1.47683 -9.00206e-07 0)
(-1.47183 -8.91092e-07 0)
(-1.46683 -8.82033e-07 0)
(-1.46183 -8.73031e-07 0)
(-1.45682 -8.64086e-07 0)
(-1.45182 -8.55198e-07 0)
(-1.44681 -8.46367e-07 0)
(-1.4418 -8.37593e-07 0)
(-1.43678 -8.28877e-07 0)
(-1.43177 -8.20218e-07 0)
(-1.42675 -8.11618e-07 0)
(-1.42174 -8.03076e-07 0)
(-1.41672 -7.94592e-07 0)
(-1.4117 -7.86166e-07 0)
(-1.40668 -7.778e-07 0)
(-1.40166 -7.69492e-07 0)
(-1.39664 -7.61242e-07 0)
(-1.39161 -7.53052e-07 0)
(-1.38659 -7.44921e-07 0)
(-1.38157 -7.3685e-07 0)
(-1.37655 -7.28837e-07 0)
(-1.37153 -7.20884e-07 0)
(-1.36652 -7.1299e-07 0)
(-1.3615 -7.05156e-07 0)
(-1.35648 -6.97381e-07 0)
(-1.35147 -6.89666e-07 0)
(-1.34646 -6.82011e-07 0)
(-1.34144 -6.74415e-07 0)
(-1.33644 -6.66879e-07 0)
(-1.33143 -6.59402e-07 0)
(-1.32643 -6.51985e-07 0)
(-1.32142 -6.44628e-07 0)
(-1.31642 -6.3733e-07 0)
(-1.31143 -6.30091e-07 0)
(-1.30644 -6.22912e-07 0)
(-1.30145 -6.15793e-07 0)
(-1.29646 -6.08733e-07 0)
(-1.29148 -6.01732e-07 0)
(-1.2865 -5.9479e-07 0)
(-1.28153 -5.87908e-07 0)
(-1.27656 -5.81084e-07 0)
(-1.27159 -5.7432e-07 0)
(-1.26663 -5.67614e-07 0)
(-1.26167 -5.60967e-07 0)
(-1.25672 -5.54378e-07 0)
(-1.25177 -5.47848e-07 0)
(-1.24683 -5.41376e-07 0)
(-1.2419 -5.34962e-07 0)
(-1.23697 -5.28606e-07 0)
(-1.23204 -5.22308e-07 0)
(-1.22712 -5.16067e-07 0)
(-1.22221 -5.09884e-07 0)
(-1.2173 -5.03758e-07 0)
(-1.2124 -4.97689e-07 0)
(-1.20751 -4.91677e-07 0)
(-1.20262 -4.85721e-07 0)
(-1.19774 -4.79822e-07 0)
(-1.19287 -4.7398e-07 0)
(-1.188 -4.68193e-07 0)
(-1.18314 -4.62462e-07 0)
(-1.17829 -4.56786e-07 0)
(-1.17345 -4.51166e-07 0)
(-1.16861 -4.45601e-07 0)
(-1.16378 -4.4009e-07 0)
(-1.15896 -4.34634e-07 0)
(-1.15415 -4.29233e-07 0)
(-1.14935 -4.23885e-07 0)
(-1.14455 -4.18591e-07 0)
(-1.13976 -4.13351e-07 0)
(-1.13498 -4.08164e-07 0)
(-1.13021 -4.03029e-07 0)
(-1.12545 -3.97948e-07 0)
(-1.1207 -3.92918e-07 0)
(-1.11596 -3.87941e-07 0)
(-1.11122 -3.83015e-07 0)
(-1.1065 -3.78141e-07 0)
(-1.10178 -3.73318e-07 0)
(-1.09708 -3.68546e-07 0)
(-1.09238 -3.63825e-07 0)
(-1.0877 -3.59153e-07 0)
(-1.08302 -3.54532e-07 0)
(-1.07836 -3.4996e-07 0)
(-1.0737 -3.45438e-07 0)
(-1.06906 -3.40964e-07 0)
(-1.06442 -3.36539e-07 0)
(-1.0598 -3.32162e-07 0)
(-1.05518 -3.27833e-07 0)
(-1.05058 -3.23552e-07 0)
(-1.04599 -3.19318e-07 0)
(-1.04141 -3.15131e-07 0)
(-1.03684 -3.10991e-07 0)
(-1.03228 -3.06897e-07 0)
(-1.02773 -3.02849e-07 0)
(-1.02319 -2.98847e-07 0)
(-1.01867 -2.9489e-07 0)
(-1.01415 -2.90977e-07 0)
(-1.00965 -2.8711e-07 0)
(-1.00516 -2.83286e-07 0)
(-1.00068 -2.79507e-07 0)
(-0.996211 -2.75771e-07 0)
(-0.991756 -2.72078e-07 0)
(-0.987312 -2.68428e-07 0)
(-0.98288 -2.6482e-07 0)
(-0.978461 -2.61255e-07 0)
(-0.974054 -2.57731e-07 0)
(-0.969658 -2.54249e-07 0)
(-0.965276 -2.50808e-07 0)
(-0.960905 -2.47408e-07 0)
(-0.956547 -2.44048e-07 0)
(-0.952202 -2.40728e-07 0)
(-0.947869 -2.37447e-07 0)
(-0.943548 -2.34207e-07 0)
(-0.939241 -2.31005e-07 0)
(-0.934946 -2.27841e-07 0)
(-0.930664 -2.24716e-07 0)
(-0.926395 -2.21629e-07 0)
(-0.922138 -2.1858e-07 0)
(-0.917895 -2.15567e-07 0)
(-0.913665 -2.12592e-07 0)
(-0.909448 -2.09653e-07 0)
(-0.905244 -2.0675e-07 0)
(-0.901053 -2.03884e-07 0)
(-0.896876 -2.01052e-07 0)
(-0.892711 -1.98256e-07 0)
(-0.888561 -1.95495e-07 0)
(-0.884423 -1.92768e-07 0)
(-0.880299 -1.90076e-07 0)
(-0.876188 -1.87417e-07 0)
(-0.872091 -1.84791e-07 0)
(-0.868007 -1.82199e-07 0)
(-0.863937 -1.7964e-07 0)
(-0.859881 -1.77113e-07 0)
(-0.855838 -1.74618e-07 0)
(-0.851808 -1.72155e-07 0)
(-0.847793 -1.69724e-07 0)
(-0.843791 -1.67324e-07 0)
(-0.839803 -1.64954e-07 0)
(-0.835829 -1.62615e-07 0)
(-0.831868 -1.60307e-07 0)
(-0.827921 -1.58028e-07 0)
(-0.823989 -1.55778e-07 0)
(-0.82007 -1.53558e-07 0)
(-0.816165 -1.51367e-07 0)
(-0.812274 -1.49205e-07 0)
(-0.808396 -1.4707e-07 0)
(-0.804533 -1.44964e-07 0)
(-0.800684 -1.42886e-07 0)
(-0.796849 -1.40834e-07 0)
(-0.793027 -1.3881e-07 0)
(-0.78922 -1.36813e-07 0)
(-0.785427 -1.34842e-07 0)
(-0.781648 -1.32897e-07 0)
(-0.777883 -1.30978e-07 0)
(-0.774131 -1.29084e-07 0)
(-0.770395 -1.27216e-07 0)
(-0.766672 -1.25372e-07 0)
(-0.762963 -1.23551e-07 0)
(-0.759268 -1.21757e-07 0)
(-0.755588 -1.19982e-07 0)
(-0.751922 -1.18194e-07 0)
(-0.748272 -1.16556e-07 0)
(-0.744629 -1.14929e-07 0)
(-0.740595 -1.12942e-07 0)
(-0.73622 -1.10832e-07 0)
(-0.731924 -1.08931e-07 0)
(-0.727698 -1.07133e-07 0)
(-0.723543 -1.05323e-07 0)
(-0.719458 -1.03548e-07 0)
(-0.715442 -1.01818e-07 0)
(-0.711492 -1.00135e-07 0)
(-0.707608 -9.84976e-08 0)
(-0.703786 -9.69033e-08 0)
(-0.700027 -9.53513e-08 0)
(-0.696327 -9.38403e-08 0)
(-0.692685 -9.23687e-08 0)
(-0.6891 -9.09353e-08 0)
(-0.685571 -8.95386e-08 0)
(-0.682095 -8.81774e-08 0)
(-0.678672 -8.68503e-08 0)
(-0.675301 -8.55562e-08 0)
(-0.671979 -8.4294e-08 0)
(-0.668706 -8.30626e-08 0)
(-0.66548 -8.1861e-08 0)
(-0.662301 -8.06881e-08 0)
(-0.659168 -7.9543e-08 0)
(-0.656078 -7.84247e-08 0)
(-0.653032 -7.73325e-08 0)
(-0.650028 -7.62655e-08 0)
(-0.647066 -7.52228e-08 0)
(-0.644143 -7.42037e-08 0)
(-0.64126 -7.32075e-08 0)
(-0.638416 -7.22335e-08 0)
(-0.635609 -7.12809e-08 0)
(-0.632839 -7.03491e-08 0)
(-0.630106 -6.94376e-08 0)
(-0.627407 -6.85456e-08 0)
(-0.624743 -6.76726e-08 0)
(-0.622113 -6.68181e-08 0)
(-0.619515 -6.59815e-08 0)
(-0.616951 -6.51623e-08 0)
(-0.614417 -6.436e-08 0)
(-0.611915 -6.35742e-08 0)
(-0.609444 -6.28043e-08 0)
(-0.607002 -6.20499e-08 0)
(-0.604589 -6.13105e-08 0)
(-0.602205 -6.05859e-08 0)
(-0.599849 -5.98755e-08 0)
(-0.597521 -5.91791e-08 0)
(-0.59522 -5.84961e-08 0)
(-0.592945 -5.78264e-08 0)
(-0.590696 -5.71694e-08 0)
(-0.588472 -5.6525e-08 0)
(-0.586273 -5.58927e-08 0)
(-0.584099 -5.52723e-08 0)
(-0.581949 -5.46634e-08 0)
(-0.579823 -5.40659e-08 0)
(-0.577719 -5.34793e-08 0)
(-0.575639 -5.29035e-08 0)
(-0.57358 -5.23382e-08 0)
(-0.571544 -5.17831e-08 0)
(-0.569529 -5.12381e-08 0)
(-0.567536 -5.07028e-08 0)
(-0.565563 -5.0177e-08 0)
(-0.56361 -4.96607e-08 0)
(-0.561677 -4.91534e-08 0)
(-0.559764 -4.86552e-08 0)
(-0.557871 -4.81657e-08 0)
(-0.555996 -4.76848e-08 0)
(-0.55414 -4.72124e-08 0)
(-0.552303 -4.67483e-08 0)
(-0.550483 -4.62924e-08 0)
(-0.548681 -4.58446e-08 0)
(-0.546896 -4.54048e-08 0)
(-0.545129 -4.49728e-08 0)
(-0.543378 -4.45487e-08 0)
(-0.541644 -4.41324e-08 0)
(-0.539925 -4.37239e-08 0)
(-0.538223 -4.33233e-08 0)
(-0.536536 -4.29306e-08 0)
(-0.534864 -4.25462e-08 0)
(-0.533207 -4.21702e-08 0)
(-0.531565 -4.18031e-08 0)
(-0.529937 -4.14454e-08 0)
(-0.528323 -4.10983e-08 0)
(-0.526722 -4.07629e-08 0)
(-0.525134 -4.04407e-08 0)
(-0.523558 -4.01348e-08 0)
(-0.521994 -3.98576e-08 0)
(-0.52044 -3.95788e-08 0)
(-0.518897 -3.93579e-08 0)
(-0.517361 -3.94193e-08 0)
(-0.515813 -3.87367e-08 0)
(-0.51433 -3.78677e-08 0)
(-0.51285 -5.00387e-08 0)
(-0.510415 -1.40194e-08 0)
(-0.511765 -3.69487e-08 0)
(-0.507481 -5.56884e-08 0)
)
;
    }
    symmetry
    {
        type            symmetryPlane;
    }
    frontAndBack
    {
        type            empty;
    }
}


// ************************************************************************* //
