/*--------------------------------*- C++ -*----------------------------------*\
| =========                 |                                                 |
| \\      /  F ield         | OpenFOAM: The Open Source CFD Toolbox           |
|  \\    /   O peration     | Version:  v2012                                 |
|   \\  /    A nd           | Website:  www.openfoam.com                      |
|    \\/     M anipulation  |                                                 |
\*---------------------------------------------------------------------------*/
FoamFile
{
    version     2.0;
    format      ascii;
    class       volScalarField;
    location    "54";
    object      yPlus;
}
// * * * * * * * * * * * * * * * * * * * * * * * * * * * * * * * * * * * * * //

dimensions      [0 0 0 0 0 0 0];


internalField   uniform 0;

boundaryField
{
    inlet
    {
        type            calculated;
        value           uniform 0;
    }
    outlet
    {
        type            calculated;
        value           uniform 0;
    }
    topWall
    {
        type            calculated;
        value           nonuniform List<scalar> 
545
(
0.0708351
0.12214
0.156688
0.184172
0.207427
0.227761
0.245909
0.262334
0.277351
0.291187
0.304011
0.315955
0.327124
0.337602
0.34746
0.356758
0.365545
0.373864
0.381754
0.389247
0.396372
0.403156
0.409622
0.415789
0.421679
0.427307
0.432689
0.43784
0.442772
0.447498
0.45203
0.456376
0.460548
0.464554
0.468402
0.4721
0.475656
0.479076
0.482366
0.485534
0.488583
0.49152
0.49435
0.497078
0.499707
0.502242
0.504687
0.507047
0.509323
0.511521
0.513643
0.515692
0.517672
0.519584
0.521432
0.523218
0.524944
0.526614
0.528228
0.52979
0.5313
0.532762
0.534176
0.535545
0.53687
0.538153
0.539395
0.540599
0.541764
0.542893
0.543986
0.545046
0.54606
0.547039
0.54801
0.548972
0.549926
0.550871
0.551808
0.552736
0.553656
0.554568
0.555472
0.556367
0.557255
0.558136
0.559008
0.559873
0.56073
0.561579
0.562422
0.563257
0.564084
0.564905
0.565718
0.566524
0.56725
0.567899
0.568547
0.569194
0.569841
0.570487
0.571132
0.571777
0.572421
0.573064
0.573707
0.574349
0.57499
0.57563
0.57627
0.576909
0.577548
0.578185
0.578822
0.579458
0.580093
0.580728
0.581362
0.581994
0.582627
0.583258
0.583889
0.584518
0.585147
0.585775
0.586402
0.587029
0.587654
0.588279
0.588903
0.589526
0.590148
0.590769
0.591389
0.592008
0.592627
0.593244
0.593861
0.594477
0.595091
0.595705
0.596318
0.596929
0.59754
0.59815
0.598759
0.599366
0.599973
0.600579
0.601184
0.601787
0.60239
0.602991
0.603592
0.604191
0.60479
0.605387
0.605983
0.606578
0.607172
0.607765
0.608356
0.608947
0.609536
0.610124
0.610711
0.611297
0.611882
0.612465
0.613047
0.613628
0.614208
0.614786
0.615364
0.61594
0.616515
0.617088
0.61766
0.618231
0.618801
0.619369
0.619936
0.620502
0.621066
0.621629
0.62219
0.622751
0.623309
0.623867
0.624423
0.624977
0.625531
0.626083
0.626633
0.627182
0.627729
0.628275
0.62882
0.629363
0.629904
0.630444
0.630983
0.63152
0.632055
0.632589
0.633121
0.633652
0.634181
0.634709
0.635235
0.635759
0.636282
0.636803
0.637323
0.637841
0.638357
0.638871
0.639384
0.639895
0.640405
0.640912
0.641418
0.641923
0.642425
0.642926
0.643425
0.643922
0.644418
0.644912
0.645403
0.645893
0.646382
0.646868
0.647353
0.647835
0.648316
0.648795
0.649272
0.649747
0.65022
0.650692
0.651161
0.651629
0.652094
0.652558
0.653019
0.653479
0.653936
0.654392
0.654845
0.655297
0.655746
0.656194
0.656639
0.657082
0.657523
0.657963
0.6584
0.658834
0.659267
0.659698
0.660126
0.660553
0.660977
0.661399
0.661818
0.662236
0.662651
0.663042
0.663409
0.663777
0.664147
0.664518
0.66489
0.665264
0.665638
0.666014
0.666391
0.66677
0.667149
0.667529
0.66791
0.668292
0.668675
0.669059
0.669443
0.669829
0.670214
0.670601
0.670988
0.671375
0.671763
0.672151
0.672539
0.672928
0.673316
0.673705
0.674094
0.674482
0.674871
0.675259
0.675647
0.676034
0.676421
0.676807
0.677193
0.677578
0.677962
0.678345
0.678727
0.679107
0.679487
0.679865
0.680241
0.680616
0.68099
0.681361
0.681731
0.682098
0.682464
0.682827
0.683187
0.683545
0.683901
0.684253
0.684603
0.684949
0.685293
0.685632
0.685969
0.686301
0.68663
0.686955
0.687276
0.687592
0.687904
0.688211
0.688514
0.688812
0.689104
0.689391
0.689673
0.689949
0.690219
0.690483
0.690741
0.690992
0.691237
0.691475
0.691707
0.691931
0.692147
0.692356
0.692557
0.692751
0.692936
0.693112
0.69328
0.693439
0.693589
0.69373
0.693861
0.693983
0.694095
0.694196
0.694287
0.694368
0.694438
0.694496
0.694544
0.694579
0.694604
0.694616
0.694616
0.694603
0.694578
0.69454
0.694489
0.694424
0.694346
0.694254
0.694149
0.694028
0.693894
0.693744
0.69358
0.693401
0.693206
0.692996
0.69277
0.692528
0.69227
0.691995
0.691704
0.691396
0.691071
0.690729
0.69037
0.689993
0.689598
0.689186
0.688756
0.688307
0.68784
0.687355
0.686851
0.686328
0.685787
0.685227
0.684647
0.684048
0.683431
0.682793
0.682137
0.681461
0.680765
0.68005
0.679315
0.67856
0.677786
0.676992
0.676178
0.675345
0.674492
0.67362
0.672728
0.671816
0.670885
0.669935
0.668965
0.667976
0.666968
0.665941
0.664895
0.663831
0.662748
0.661647
0.660528
0.659391
0.658236
0.657064
0.655875
0.654669
0.653446
0.652206
0.650951
0.649679
0.648393
0.647091
0.645626
0.644007
0.642388
0.64077
0.639156
0.637545
0.635938
0.634337
0.632741
0.631151
0.629569
0.627994
0.626428
0.62487
0.623322
0.621784
0.620257
0.61874
0.617235
0.615741
0.61426
0.612791
0.611335
0.609893
0.608464
0.60705
0.605649
0.604263
0.602892
0.601537
0.600196
0.598872
0.597563
0.596271
0.594995
0.593735
0.592493
0.591267
0.590059
0.588868
0.587695
0.586539
0.585402
0.584282
0.583181
0.582099
0.581035
0.57999
0.578964
0.577957
0.57697
0.576002
0.575053
0.574124
0.573215
0.572326
0.571458
0.570609
0.569781
0.568974
0.568187
0.567421
0.566676
0.565953
0.56525
0.564569
0.56391
0.563272
0.562655
0.562061
0.561489
0.560938
0.56041
0.559904
0.559421
0.55896
0.558522
0.558106
0.557713
0.557343
0.556996
0.556672
0.556371
0.556094
0.555839
0.555608
0.5554
0.555216
0.555055
0.554917
0.554803
0.554713
0.554645
0.554605
0.554575
)
;
    }
    bottomWall
    {
        type            calculated;
        value           nonuniform List<scalar> 
449
(
0.139438
0.0889525
0.0758033
0.0694322
0.0652495
0.0621235
0.0596289
0.0575657
0.0558151
0.0542991
0.0529657
0.0517783
0.0507105
0.0497421
0.0488575
0.0480444
0.047293
0.0465953
0.0459446
0.0453355
0.0447635
0.0442245
0.0437153
0.043233
0.0427751
0.0423394
0.0419241
0.0415275
0.041148
0.0407845
0.0404356
0.0401004
0.0397779
0.0394672
0.0391676
0.0388784
0.0385988
0.0383285
0.0380667
0.037813
0.037567
0.0373282
0.0370963
0.036871
0.0366517
0.0364384
0.0362306
0.0360282
0.0358308
0.0356383
0.0354504
0.0352669
0.0350876
0.0349124
0.0347412
0.0345736
0.0344096
0.0342491
0.0340918
0.0339378
0.0337868
0.0336388
0.0334936
0.0333512
0.0332114
0.0330742
0.0329395
0.0328071
0.0326771
0.0325493
0.0324237
0.0323002
0.0321787
0.0320592
0.0319416
0.0318258
0.0317119
0.0315997
0.0314892
0.0313804
0.0312731
0.0311675
0.0310633
0.0309606
0.0308594
0.0307595
0.0306611
0.0305639
0.0304681
0.0303735
0.0302802
0.030188
0.030097
0.0300072
0.0299185
0.0298309
0.0297443
0.0296588
0.0295743
0.0294908
0.0294083
0.0293267
0.0292461
0.0291664
0.0290875
0.0290096
0.0289325
0.0288562
0.0287807
0.0287061
0.0286322
0.0285591
0.0284868
0.0284152
0.0283443
0.0282741
0.0282047
0.0281359
0.0280678
0.0280003
0.0279335
0.0278673
0.0278018
0.0277369
0.0276725
0.0276088
0.0275456
0.027483
0.027421
0.0273595
0.0272986
0.0272382
0.0271783
0.0271189
0.02706
0.0270017
0.0269438
0.0268864
0.0268295
0.026773
0.026717
0.0266615
0.0266064
0.0265517
0.0264975
0.0264436
0.0263902
0.0263373
0.0262847
0.0262325
0.0261807
0.0261293
0.0260783
0.0260277
0.0259774
0.0259275
0.0258779
0.0258287
0.0257799
0.0257314
0.0256832
0.0256354
0.0255879
0.0255408
0.0254939
0.0254474
0.0254012
0.0253553
0.0253097
0.0252644
0.0252194
0.0251747
0.0251303
0.0250887
0.0250495
0.0250102
0.0249708
0.0249313
0.0248917
0.0248519
0.0248121
0.0247721
0.0247321
0.0246919
0.0246517
0.0246113
0.0245708
0.0245302
0.0244895
0.0244487
0.0244078
0.0243669
0.0243258
0.0242846
0.0242433
0.0242019
0.0241605
0.0241189
0.0240773
0.0240356
0.0239937
0.0239518
0.0239098
0.0238677
0.0238256
0.0237833
0.023741
0.0236986
0.0236561
0.0236136
0.0235709
0.0235282
0.0234854
0.0234426
0.0233997
0.0233567
0.0233136
0.0232705
0.0232273
0.023184
0.0231407
0.0230973
0.0230538
0.0230103
0.0229668
0.0229232
0.0228795
0.0228357
0.022792
0.0227481
0.0227042
0.0226603
0.0226163
0.0225723
0.0225282
0.0224841
0.0224399
0.0223957
0.0223515
0.0223072
0.0222629
0.0222185
0.0221741
0.0221297
0.0220852
0.0220407
0.0219962
0.0219516
0.021907
0.0218624
0.0218178
0.0217731
0.0217284
0.0216837
0.021639
0.0215943
0.0215495
0.0215047
0.0214599
0.0214151
0.0213702
0.0213254
0.0212805
0.0212357
0.0211908
0.0211459
0.021101
0.0210561
0.0210112
0.0209663
0.0209214
0.0208764
0.0208315
0.0207866
0.0207417
0.0206968
0.0206518
0.0206069
0.020562
0.0205171
0.0204722
0.0204274
0.0203825
0.0203376
0.0202928
0.0202479
0.0202031
0.0201583
0.0201135
0.0200687
0.0200239
0.0199792
0.0199345
0.0198897
0.0198451
0.0198004
0.0197557
0.0197111
0.0196665
0.019622
0.0195774
0.0195329
0.0194884
0.0194439
0.0193995
0.0193551
0.0193107
0.0192664
0.0192221
0.0191778
0.0191335
0.0190893
0.0190452
0.019001
0.0189569
0.0189129
0.0188689
0.0188249
0.0187809
0.018737
0.0186932
0.0186493
0.0186056
0.0185618
0.0185182
0.0184745
0.0184309
0.0183874
0.0183439
0.0183004
0.018257
0.0182136
0.0181703
0.0181271
0.0180839
0.0180407
0.0179976
0.0179545
0.0179115
0.0178686
0.0178257
0.0177828
0.0177401
0.0176973
0.0176546
0.017612
0.0175695
0.017527
0.0174845
0.0174421
0.0173998
0.0173575
0.0173154
0.0172732
0.0172263
0.0171754
0.0171252
0.0170757
0.0170268
0.0169787
0.0169313
0.0168845
0.0168383
0.0167928
0.0167479
0.0167035
0.0166598
0.0166166
0.016574
0.016532
0.0164904
0.0164494
0.0164089
0.0163689
0.0163294
0.0162903
0.0162517
0.0162136
0.0161759
0.0161387
0.0161019
0.0160655
0.0160295
0.0159939
0.0159587
0.0159239
0.0158894
0.0158554
0.0158217
0.0157883
0.0157554
0.0157227
0.0156904
0.0156584
0.0156268
0.0155954
0.0155644
0.0155337
0.0155033
0.0154731
0.0154433
0.0154138
0.0153845
0.0153555
0.0153268
0.0152984
0.0152702
0.0152423
0.0152146
0.0151872
0.01516
0.0151331
0.0151064
0.0150799
0.0150537
0.0150277
0.0150019
0.0149763
0.014951
0.0149258
0.0149009
0.0148762
0.0148516
0.0148273
0.0148032
0.0147792
0.0147555
0.0147319
0.0147085
0.0146853
0.0146623
0.0146394
0.0146167
0.0145942
0.0145718
0.0145496
0.0145276
0.0145056
0.0144839
0.0144622
0.0144407
0.0144193
0.0143979
0.0143763
0.0143557
0.014335
0.0143009
0.0143198
0.0142598
)
;
    }
    symmetry
    {
        type            symmetryPlane;
    }
    frontAndBack
    {
        type            empty;
    }
}


// ************************************************************************* //
