/*--------------------------------*- C++ -*----------------------------------*\
| =========                 |                                                 |
| \\      /  F ield         | OpenFOAM: The Open Source CFD Toolbox           |
|  \\    /   O peration     | Version:  v2012                                 |
|   \\  /    A nd           | Website:  www.openfoam.com                      |
|    \\/     M anipulation  |                                                 |
\*---------------------------------------------------------------------------*/
FoamFile
{
    version     2.0;
    format      ascii;
    class       volScalarField;
    location    "38";
    object      nut;
}
// * * * * * * * * * * * * * * * * * * * * * * * * * * * * * * * * * * * * * //

dimensions      [0 2 -1 0 0 0 0];


internalField   nonuniform List<scalar> 
209825
(
1.24819e-07
1.22865e-07
1.17481e-07
1.10272e-07
1.02879e-07
9.61573e-08
9.03043e-08
8.53206e-08
8.10606e-08
7.74367e-08
7.43082e-08
7.16193e-08
6.92629e-08
6.7218e-08
6.53984e-08
6.38051e-08
6.2368e-08
6.11019e-08
5.99457e-08
5.89227e-08
5.79766e-08
5.7138e-08
5.63534e-08
5.56561e-08
5.49967e-08
5.4411e-08
5.38524e-08
5.33557e-08
5.28761e-08
5.24533e-08
5.204e-08
5.16756e-08
5.13155e-08
5.10009e-08
5.06867e-08
5.04142e-08
5.01381e-08
4.99007e-08
4.96571e-08
4.94491e-08
4.92327e-08
4.90497e-08
4.8856e-08
4.86961e-08
4.85239e-08
4.83818e-08
4.82267e-08
4.81021e-08
4.79639e-08
4.78521e-08
4.77279e-08
4.76329e-08
4.75199e-08
4.74344e-08
4.73298e-08
4.72594e-08
4.7168e-08
4.70992e-08
4.702e-08
4.69559e-08
4.68774e-08
4.68253e-08
4.67486e-08
4.67031e-08
4.66339e-08
4.65895e-08
4.65248e-08
4.64802e-08
4.64282e-08
4.63877e-08
4.63362e-08
4.62952e-08
4.62495e-08
4.62099e-08
4.61691e-08
4.61317e-08
4.60953e-08
4.60611e-08
4.60286e-08
4.59961e-08
4.59677e-08
4.59407e-08
4.59223e-08
4.59016e-08
4.58842e-08
4.58644e-08
4.58504e-08
4.58306e-08
4.58171e-08
4.57978e-08
4.57814e-08
4.57581e-08
4.57364e-08
4.60968e-08
3.36132e-06
2.35401e-08
1.24819e-07
1.22865e-07
1.17482e-07
1.10274e-07
1.02881e-07
9.61596e-08
9.03066e-08
8.53228e-08
8.10627e-08
7.74386e-08
7.431e-08
7.16209e-08
6.92644e-08
6.72193e-08
6.53996e-08
6.38062e-08
6.2369e-08
6.11028e-08
5.99465e-08
5.89234e-08
5.79772e-08
5.71385e-08
5.63538e-08
5.56565e-08
5.49971e-08
5.44113e-08
5.38526e-08
5.33559e-08
5.28762e-08
5.24533e-08
5.204e-08
5.16756e-08
5.13155e-08
5.10008e-08
5.06866e-08
5.04141e-08
5.01379e-08
4.99006e-08
4.96569e-08
4.94489e-08
4.92324e-08
4.90495e-08
4.88557e-08
4.86958e-08
4.85236e-08
4.83815e-08
4.82263e-08
4.81018e-08
4.79635e-08
4.78517e-08
4.77275e-08
4.76325e-08
4.75195e-08
4.74339e-08
4.73294e-08
4.7259e-08
4.71675e-08
4.70987e-08
4.70195e-08
4.69554e-08
4.68769e-08
4.68248e-08
4.6748e-08
4.67026e-08
4.66333e-08
4.6589e-08
4.65242e-08
4.64796e-08
4.64277e-08
4.63871e-08
4.63356e-08
4.62946e-08
4.62489e-08
4.62093e-08
4.61685e-08
4.61311e-08
4.60946e-08
4.60605e-08
4.6028e-08
4.59955e-08
4.59671e-08
4.594e-08
4.59216e-08
4.5901e-08
4.58835e-08
4.58637e-08
4.58497e-08
4.58299e-08
4.58164e-08
4.57971e-08
4.57807e-08
4.57573e-08
4.57357e-08
4.60965e-08
3.36162e-06
2.37242e-08
1.24818e-07
1.22866e-07
1.17487e-07
1.10281e-07
1.0289e-07
9.61693e-08
9.03161e-08
8.53318e-08
8.10711e-08
7.74463e-08
7.43169e-08
7.16272e-08
6.927e-08
6.72244e-08
6.54041e-08
6.38103e-08
6.23726e-08
6.1106e-08
5.99493e-08
5.89258e-08
5.79794e-08
5.71403e-08
5.63554e-08
5.56578e-08
5.49982e-08
5.44122e-08
5.38533e-08
5.33565e-08
5.28766e-08
5.24536e-08
5.20401e-08
5.16755e-08
5.13153e-08
5.10005e-08
5.06862e-08
5.04136e-08
5.01373e-08
4.98998e-08
4.9656e-08
4.94479e-08
4.92314e-08
4.90484e-08
4.88546e-08
4.86946e-08
4.85223e-08
4.83802e-08
4.82249e-08
4.81003e-08
4.7962e-08
4.78501e-08
4.77259e-08
4.76308e-08
4.75178e-08
4.74322e-08
4.73276e-08
4.72571e-08
4.71657e-08
4.70968e-08
4.70175e-08
4.69534e-08
4.68749e-08
4.68228e-08
4.6746e-08
4.67005e-08
4.66312e-08
4.65869e-08
4.65221e-08
4.64775e-08
4.64255e-08
4.63849e-08
4.63334e-08
4.62924e-08
4.62466e-08
4.6207e-08
4.61662e-08
4.61288e-08
4.60923e-08
4.60581e-08
4.60256e-08
4.59931e-08
4.59646e-08
4.59376e-08
4.59191e-08
4.58984e-08
4.58809e-08
4.58611e-08
4.58471e-08
4.58273e-08
4.58137e-08
4.57944e-08
4.5778e-08
4.57546e-08
4.5733e-08
4.60946e-08
3.36196e-06
2.39808e-08
1.24818e-07
1.22869e-07
1.17495e-07
1.10294e-07
1.02906e-07
9.61857e-08
9.03321e-08
8.5347e-08
8.10851e-08
7.74591e-08
7.43286e-08
7.16378e-08
6.92795e-08
6.7233e-08
6.54118e-08
6.38171e-08
6.23787e-08
6.11114e-08
5.99541e-08
5.893e-08
5.79831e-08
5.71435e-08
5.63582e-08
5.56601e-08
5.50001e-08
5.44138e-08
5.38546e-08
5.33574e-08
5.28773e-08
5.2454e-08
5.20402e-08
5.16755e-08
5.1315e-08
5.1e-08
5.06855e-08
5.04127e-08
5.01362e-08
4.98986e-08
4.96547e-08
4.94465e-08
4.92298e-08
4.90466e-08
4.88527e-08
4.86926e-08
4.85202e-08
4.8378e-08
4.82226e-08
4.80979e-08
4.79595e-08
4.78475e-08
4.77233e-08
4.76281e-08
4.75149e-08
4.74293e-08
4.73246e-08
4.72541e-08
4.71626e-08
4.70937e-08
4.70143e-08
4.69501e-08
4.68716e-08
4.68195e-08
4.67426e-08
4.66971e-08
4.66277e-08
4.65834e-08
4.65185e-08
4.64739e-08
4.64219e-08
4.63812e-08
4.63297e-08
4.62887e-08
4.62429e-08
4.62033e-08
4.61624e-08
4.6125e-08
4.60884e-08
4.60542e-08
4.60217e-08
4.59891e-08
4.59606e-08
4.59335e-08
4.5915e-08
4.58942e-08
4.58767e-08
4.58568e-08
4.58428e-08
4.58229e-08
4.58093e-08
4.579e-08
4.57736e-08
4.57501e-08
4.57285e-08
4.60914e-08
3.36243e-06
2.42826e-08
1.24816e-07
1.22872e-07
1.17507e-07
1.10313e-07
1.02928e-07
9.62088e-08
9.03548e-08
8.53684e-08
8.1105e-08
7.74773e-08
7.43452e-08
7.16527e-08
6.9293e-08
6.72451e-08
6.54227e-08
6.38268e-08
6.23873e-08
6.11191e-08
5.99609e-08
5.8936e-08
5.79883e-08
5.71481e-08
5.63621e-08
5.56635e-08
5.50029e-08
5.44161e-08
5.38564e-08
5.33588e-08
5.28783e-08
5.24546e-08
5.20405e-08
5.16754e-08
5.13147e-08
5.09994e-08
5.06846e-08
5.04116e-08
5.01348e-08
4.9897e-08
4.96529e-08
4.94444e-08
4.92276e-08
4.90442e-08
4.88501e-08
4.86899e-08
4.85173e-08
4.83749e-08
4.82194e-08
4.80946e-08
4.79561e-08
4.7844e-08
4.77195e-08
4.76243e-08
4.7511e-08
4.74253e-08
4.73205e-08
4.72499e-08
4.71583e-08
4.70893e-08
4.70098e-08
4.69456e-08
4.6867e-08
4.68148e-08
4.67379e-08
4.66923e-08
4.66229e-08
4.65785e-08
4.65136e-08
4.64689e-08
4.64168e-08
4.63762e-08
4.63246e-08
4.62835e-08
4.62377e-08
4.6198e-08
4.61571e-08
4.61196e-08
4.60831e-08
4.60488e-08
4.60162e-08
4.59836e-08
4.5955e-08
4.59277e-08
4.59092e-08
4.58883e-08
4.58707e-08
4.58508e-08
4.58367e-08
4.58168e-08
4.58032e-08
4.57838e-08
4.57674e-08
4.57438e-08
4.57222e-08
4.60869e-08
3.36307e-06
2.4619e-08
1.24815e-07
1.22876e-07
1.17522e-07
1.10337e-07
1.02956e-07
9.62388e-08
9.03842e-08
8.53963e-08
8.11308e-08
7.7501e-08
7.43667e-08
7.16722e-08
6.93105e-08
6.72608e-08
6.54368e-08
6.38394e-08
6.23986e-08
6.11291e-08
5.99697e-08
5.89438e-08
5.79951e-08
5.7154e-08
5.63672e-08
5.56679e-08
5.50066e-08
5.44191e-08
5.38589e-08
5.33607e-08
5.28796e-08
5.24555e-08
5.20409e-08
5.16754e-08
5.13143e-08
5.09986e-08
5.06835e-08
5.04101e-08
5.01331e-08
4.9895e-08
4.96505e-08
4.94418e-08
4.92247e-08
4.90412e-08
4.88468e-08
4.86864e-08
4.85136e-08
4.8371e-08
4.82154e-08
4.80904e-08
4.79516e-08
4.78394e-08
4.77148e-08
4.76194e-08
4.7506e-08
4.74202e-08
4.73152e-08
4.72445e-08
4.71527e-08
4.70837e-08
4.70041e-08
4.69398e-08
4.6861e-08
4.68088e-08
4.67318e-08
4.66862e-08
4.66166e-08
4.65722e-08
4.65072e-08
4.64625e-08
4.64103e-08
4.63696e-08
4.6318e-08
4.62769e-08
4.6231e-08
4.61913e-08
4.61503e-08
4.61128e-08
4.60761e-08
4.60418e-08
4.60091e-08
4.59765e-08
4.59477e-08
4.59204e-08
4.59017e-08
4.58808e-08
4.58631e-08
4.58431e-08
4.58289e-08
4.5809e-08
4.57953e-08
4.57758e-08
4.57593e-08
4.57357e-08
4.5714e-08
4.6081e-08
3.36392e-06
2.49861e-08
1.24812e-07
1.22881e-07
1.17541e-07
1.10366e-07
1.02991e-07
9.62757e-08
9.04205e-08
8.54307e-08
8.11627e-08
7.75302e-08
7.43933e-08
7.16963e-08
6.93323e-08
6.72804e-08
6.54543e-08
6.38551e-08
6.24126e-08
6.11415e-08
5.99807e-08
5.89535e-08
5.80037e-08
5.71615e-08
5.63736e-08
5.56733e-08
5.50112e-08
5.4423e-08
5.38619e-08
5.33631e-08
5.28814e-08
5.24566e-08
5.20415e-08
5.16755e-08
5.13138e-08
5.09977e-08
5.06821e-08
5.04084e-08
5.01309e-08
4.98925e-08
4.96477e-08
4.94387e-08
4.92213e-08
4.90374e-08
4.88428e-08
4.86821e-08
4.85091e-08
4.83663e-08
4.82104e-08
4.80852e-08
4.79462e-08
4.78338e-08
4.7709e-08
4.76134e-08
4.74998e-08
4.74139e-08
4.73087e-08
4.72378e-08
4.7146e-08
4.70768e-08
4.6997e-08
4.69327e-08
4.68538e-08
4.68015e-08
4.67243e-08
4.66787e-08
4.6609e-08
4.65645e-08
4.64994e-08
4.64546e-08
4.64024e-08
4.63616e-08
4.63099e-08
4.62687e-08
4.62228e-08
4.6183e-08
4.61419e-08
4.61044e-08
4.60676e-08
4.60332e-08
4.60004e-08
4.59677e-08
4.59388e-08
4.59113e-08
4.58925e-08
4.58714e-08
4.58536e-08
4.58336e-08
4.58193e-08
4.57993e-08
4.57856e-08
4.5766e-08
4.57495e-08
4.57257e-08
4.5704e-08
4.60739e-08
3.36504e-06
2.53844e-08
1.2481e-07
1.22888e-07
1.17563e-07
1.10401e-07
1.03033e-07
9.63199e-08
9.04639e-08
8.54717e-08
8.12009e-08
7.75652e-08
7.44251e-08
7.17251e-08
6.93583e-08
6.73038e-08
6.54753e-08
6.38739e-08
6.24293e-08
6.11564e-08
5.9994e-08
5.89652e-08
5.80139e-08
5.71704e-08
5.63813e-08
5.56799e-08
5.50168e-08
5.44276e-08
5.38657e-08
5.3366e-08
5.28835e-08
5.24581e-08
5.20423e-08
5.16757e-08
5.13134e-08
5.09967e-08
5.06806e-08
5.04064e-08
5.01285e-08
4.98896e-08
4.96444e-08
4.9435e-08
4.92172e-08
4.9033e-08
4.8838e-08
4.8677e-08
4.85037e-08
4.83607e-08
4.82044e-08
4.8079e-08
4.79398e-08
4.78272e-08
4.77021e-08
4.76063e-08
4.74925e-08
4.74064e-08
4.73011e-08
4.723e-08
4.71379e-08
4.70686e-08
4.69886e-08
4.69242e-08
4.68451e-08
4.67928e-08
4.67155e-08
4.66698e-08
4.65999e-08
4.65554e-08
4.64901e-08
4.64452e-08
4.63929e-08
4.6352e-08
4.63003e-08
4.6259e-08
4.6213e-08
4.61732e-08
4.6132e-08
4.60944e-08
4.60575e-08
4.6023e-08
4.59901e-08
4.59573e-08
4.59283e-08
4.59006e-08
4.58816e-08
4.58604e-08
4.58424e-08
4.58223e-08
4.58079e-08
4.57878e-08
4.5774e-08
4.57543e-08
4.57377e-08
4.57139e-08
4.56921e-08
4.60654e-08
3.36647e-06
2.58173e-08
1.24807e-07
1.22895e-07
1.17588e-07
1.10442e-07
1.03082e-07
9.63713e-08
9.05144e-08
8.55197e-08
8.12454e-08
7.76061e-08
7.44623e-08
7.17588e-08
6.93887e-08
6.73311e-08
6.54998e-08
6.38959e-08
6.2449e-08
6.11739e-08
6.00094e-08
5.89789e-08
5.80259e-08
5.71809e-08
5.63904e-08
5.56877e-08
5.50233e-08
5.4433e-08
5.38701e-08
5.33695e-08
5.28861e-08
5.24598e-08
5.20432e-08
5.16759e-08
5.13129e-08
5.09956e-08
5.06789e-08
5.04041e-08
5.01256e-08
4.98863e-08
4.96405e-08
4.94308e-08
4.92125e-08
4.9028e-08
4.88325e-08
4.86712e-08
4.84975e-08
4.83542e-08
4.81976e-08
4.80719e-08
4.79324e-08
4.78195e-08
4.76941e-08
4.75981e-08
4.74841e-08
4.73978e-08
4.72921e-08
4.72208e-08
4.71286e-08
4.70591e-08
4.69789e-08
4.69144e-08
4.68351e-08
4.67827e-08
4.67052e-08
4.66594e-08
4.65893e-08
4.65447e-08
4.64793e-08
4.64343e-08
4.6382e-08
4.63409e-08
4.62891e-08
4.62478e-08
4.62017e-08
4.61618e-08
4.61205e-08
4.60827e-08
4.60457e-08
4.60111e-08
4.59781e-08
4.59453e-08
4.5916e-08
4.58881e-08
4.58689e-08
4.58475e-08
4.58294e-08
4.58092e-08
4.57946e-08
4.57745e-08
4.57606e-08
4.57408e-08
4.57241e-08
4.57001e-08
4.56783e-08
4.60557e-08
3.36823e-06
2.62906e-08
1.24804e-07
1.22903e-07
1.17618e-07
1.10489e-07
1.03138e-07
9.64301e-08
9.05723e-08
8.55746e-08
8.12964e-08
7.76529e-08
7.4505e-08
7.17975e-08
6.94236e-08
6.73625e-08
6.55281e-08
6.39212e-08
6.24715e-08
6.1194e-08
6.00273e-08
5.89947e-08
5.80397e-08
5.7193e-08
5.64009e-08
5.56967e-08
5.5031e-08
5.44394e-08
5.38752e-08
5.33736e-08
5.28891e-08
5.24619e-08
5.20443e-08
5.16762e-08
5.13124e-08
5.09945e-08
5.0677e-08
5.04016e-08
5.01224e-08
4.98825e-08
4.96362e-08
4.9426e-08
4.92072e-08
4.90222e-08
4.88263e-08
4.86646e-08
4.84905e-08
4.83468e-08
4.81898e-08
4.80638e-08
4.79239e-08
4.78108e-08
4.7685e-08
4.75888e-08
4.74744e-08
4.73879e-08
4.7282e-08
4.72104e-08
4.71179e-08
4.70482e-08
4.69678e-08
4.69032e-08
4.68236e-08
4.67711e-08
4.66935e-08
4.66476e-08
4.65772e-08
4.65326e-08
4.6467e-08
4.64219e-08
4.63694e-08
4.63283e-08
4.62764e-08
4.62349e-08
4.61887e-08
4.61487e-08
4.61073e-08
4.60695e-08
4.60323e-08
4.59976e-08
4.59644e-08
4.59315e-08
4.5902e-08
4.58739e-08
4.58544e-08
4.58328e-08
4.58146e-08
4.57943e-08
4.57795e-08
4.57592e-08
4.57452e-08
4.57253e-08
4.57085e-08
4.56843e-08
4.56625e-08
4.60446e-08
3.37036e-06
2.6812e-08
1.248e-07
1.22912e-07
1.1765e-07
1.10541e-07
1.03201e-07
9.64964e-08
9.06376e-08
8.56366e-08
8.13541e-08
7.7706e-08
7.45533e-08
7.18413e-08
6.94631e-08
6.73982e-08
6.55601e-08
6.39499e-08
6.24972e-08
6.12169e-08
6.00476e-08
5.90126e-08
5.80555e-08
5.72068e-08
5.64128e-08
5.5707e-08
5.50396e-08
5.44466e-08
5.38811e-08
5.33782e-08
5.28926e-08
5.24643e-08
5.20457e-08
5.16767e-08
5.1312e-08
5.09932e-08
5.06749e-08
5.03988e-08
5.01189e-08
4.98784e-08
4.96314e-08
4.94206e-08
4.92012e-08
4.90158e-08
4.88194e-08
4.86572e-08
4.84826e-08
4.83385e-08
4.81811e-08
4.80547e-08
4.79144e-08
4.7801e-08
4.76748e-08
4.75783e-08
4.74636e-08
4.73768e-08
4.72706e-08
4.71987e-08
4.7106e-08
4.7036e-08
4.69553e-08
4.68906e-08
4.68107e-08
4.67582e-08
4.66803e-08
4.66343e-08
4.65637e-08
4.6519e-08
4.64531e-08
4.64079e-08
4.63553e-08
4.6314e-08
4.6262e-08
4.62204e-08
4.61741e-08
4.6134e-08
4.60924e-08
4.60545e-08
4.60171e-08
4.59823e-08
4.5949e-08
4.5916e-08
4.58863e-08
4.58579e-08
4.58381e-08
4.58162e-08
4.57978e-08
4.57774e-08
4.57624e-08
4.57421e-08
4.57279e-08
4.57078e-08
4.5691e-08
4.56665e-08
4.56447e-08
4.60321e-08
3.37287e-06
2.73908e-08
1.24796e-07
1.22921e-07
1.17686e-07
1.10599e-07
1.03271e-07
9.65703e-08
9.07106e-08
8.5706e-08
8.14187e-08
7.77653e-08
7.46074e-08
7.18904e-08
6.95075e-08
6.74381e-08
6.5596e-08
6.39821e-08
6.2526e-08
6.12425e-08
6.00703e-08
5.90328e-08
5.80733e-08
5.72223e-08
5.64263e-08
5.57186e-08
5.50495e-08
5.44549e-08
5.38878e-08
5.33836e-08
5.28966e-08
5.24671e-08
5.20474e-08
5.16773e-08
5.13116e-08
5.09919e-08
5.06727e-08
5.03958e-08
5.01151e-08
4.98738e-08
4.96262e-08
4.94147e-08
4.91947e-08
4.90087e-08
4.88117e-08
4.8649e-08
4.84738e-08
4.83293e-08
4.81714e-08
4.80446e-08
4.79039e-08
4.77901e-08
4.76635e-08
4.75666e-08
4.74515e-08
4.73645e-08
4.72579e-08
4.71857e-08
4.70926e-08
4.70225e-08
4.69414e-08
4.68766e-08
4.67964e-08
4.67437e-08
4.66657e-08
4.66195e-08
4.65486e-08
4.65038e-08
4.64377e-08
4.63924e-08
4.63396e-08
4.62982e-08
4.6246e-08
4.62043e-08
4.61579e-08
4.61177e-08
4.60759e-08
4.60379e-08
4.60003e-08
4.59653e-08
4.59318e-08
4.58987e-08
4.58687e-08
4.58401e-08
4.582e-08
4.57977e-08
4.57792e-08
4.57586e-08
4.57434e-08
4.57229e-08
4.57086e-08
4.56884e-08
4.56714e-08
4.56467e-08
4.56248e-08
4.60183e-08
3.37575e-06
2.8037e-08
1.24791e-07
1.22932e-07
1.17726e-07
1.10663e-07
1.03348e-07
9.6652e-08
9.07913e-08
8.57828e-08
8.14902e-08
7.78311e-08
7.46674e-08
7.19449e-08
6.95568e-08
6.74826e-08
6.56359e-08
6.40179e-08
6.2558e-08
6.12711e-08
6.00958e-08
5.90553e-08
5.80931e-08
5.72397e-08
5.64414e-08
5.57316e-08
5.50605e-08
5.44641e-08
5.38954e-08
5.33896e-08
5.29012e-08
5.24703e-08
5.20494e-08
5.16781e-08
5.13113e-08
5.09906e-08
5.06703e-08
5.03926e-08
5.0111e-08
4.98689e-08
4.96204e-08
4.94083e-08
4.91875e-08
4.90009e-08
4.88032e-08
4.864e-08
4.84642e-08
4.83192e-08
4.81608e-08
4.80335e-08
4.78923e-08
4.77781e-08
4.7651e-08
4.75538e-08
4.74383e-08
4.73509e-08
4.72439e-08
4.71713e-08
4.7078e-08
4.70075e-08
4.69261e-08
4.68611e-08
4.67806e-08
4.67278e-08
4.66495e-08
4.66032e-08
4.65319e-08
4.6487e-08
4.64207e-08
4.63752e-08
4.63223e-08
4.62806e-08
4.62284e-08
4.61865e-08
4.614e-08
4.60996e-08
4.60577e-08
4.60195e-08
4.59816e-08
4.59466e-08
4.59128e-08
4.58796e-08
4.58494e-08
4.58204e-08
4.57999e-08
4.57773e-08
4.57586e-08
4.57378e-08
4.57224e-08
4.57018e-08
4.56873e-08
4.56669e-08
4.56498e-08
4.56248e-08
4.56029e-08
4.60031e-08
3.37895e-06
2.87619e-08
1.24786e-07
1.22943e-07
1.17769e-07
1.10733e-07
1.03433e-07
9.67417e-08
9.08799e-08
8.58672e-08
8.1569e-08
7.79035e-08
7.47336e-08
7.20049e-08
6.96111e-08
6.75316e-08
6.568e-08
6.40575e-08
6.25934e-08
6.13027e-08
6.01239e-08
5.90802e-08
5.8115e-08
5.72589e-08
5.64581e-08
5.5746e-08
5.50728e-08
5.44745e-08
5.39039e-08
5.33964e-08
5.29063e-08
5.24741e-08
5.20517e-08
5.16792e-08
5.13111e-08
5.09892e-08
5.06679e-08
5.03891e-08
5.01065e-08
4.98636e-08
4.96143e-08
4.94013e-08
4.91798e-08
4.89925e-08
4.87941e-08
4.86302e-08
4.84538e-08
4.83083e-08
4.81492e-08
4.80214e-08
4.78797e-08
4.77651e-08
4.76374e-08
4.75398e-08
4.74238e-08
4.73361e-08
4.72286e-08
4.71557e-08
4.7062e-08
4.69912e-08
4.69094e-08
4.68442e-08
4.67633e-08
4.67103e-08
4.66318e-08
4.65853e-08
4.65136e-08
4.64687e-08
4.6402e-08
4.63564e-08
4.63033e-08
4.62615e-08
4.6209e-08
4.6167e-08
4.61203e-08
4.60799e-08
4.60377e-08
4.59993e-08
4.59612e-08
4.5926e-08
4.5892e-08
4.58586e-08
4.58283e-08
4.57989e-08
4.5778e-08
4.5755e-08
4.57361e-08
4.57151e-08
4.56994e-08
4.56786e-08
4.5664e-08
4.56434e-08
4.56261e-08
4.56008e-08
4.55789e-08
4.59865e-08
3.38242e-06
2.95772e-08
1.24781e-07
1.22956e-07
1.17816e-07
1.10808e-07
1.03525e-07
9.68393e-08
9.09767e-08
8.59594e-08
8.1655e-08
7.79828e-08
7.4806e-08
7.20707e-08
6.96706e-08
6.75853e-08
6.57284e-08
6.41009e-08
6.26323e-08
6.13375e-08
6.01548e-08
5.91076e-08
5.81392e-08
5.72801e-08
5.64766e-08
5.5762e-08
5.50865e-08
5.4486e-08
5.39133e-08
5.3404e-08
5.29122e-08
5.24783e-08
5.20543e-08
5.16804e-08
5.1311e-08
5.09879e-08
5.06654e-08
5.03855e-08
5.01019e-08
4.9858e-08
4.96076e-08
4.93939e-08
4.91715e-08
4.89834e-08
4.87842e-08
4.86197e-08
4.84425e-08
4.82964e-08
4.81367e-08
4.80084e-08
4.7866e-08
4.77509e-08
4.76227e-08
4.75246e-08
4.74081e-08
4.732e-08
4.72121e-08
4.71387e-08
4.70446e-08
4.69735e-08
4.68911e-08
4.68258e-08
4.67445e-08
4.66914e-08
4.66126e-08
4.65658e-08
4.64938e-08
4.64488e-08
4.63818e-08
4.6336e-08
4.62827e-08
4.62406e-08
4.6188e-08
4.61458e-08
4.60989e-08
4.60583e-08
4.60159e-08
4.59774e-08
4.59391e-08
4.59036e-08
4.58694e-08
4.58359e-08
4.58053e-08
4.57755e-08
4.57541e-08
4.57306e-08
4.57116e-08
4.56904e-08
4.56744e-08
4.56534e-08
4.56386e-08
4.56177e-08
4.56003e-08
4.55746e-08
4.55528e-08
4.59685e-08
3.38602e-06
3.04954e-08
1.24775e-07
1.22969e-07
1.17866e-07
1.1089e-07
1.03624e-07
9.69452e-08
9.10816e-08
8.60596e-08
8.17486e-08
7.80691e-08
7.48849e-08
7.21425e-08
6.97356e-08
6.7644e-08
6.57812e-08
6.41484e-08
6.26749e-08
6.13755e-08
6.01886e-08
5.91377e-08
5.81658e-08
5.73035e-08
5.64969e-08
5.57796e-08
5.51015e-08
5.44986e-08
5.39238e-08
5.34125e-08
5.29187e-08
5.24831e-08
5.20574e-08
5.1682e-08
5.13111e-08
5.09867e-08
5.06628e-08
5.03818e-08
5.00969e-08
4.9852e-08
4.96006e-08
4.9386e-08
4.91626e-08
4.89737e-08
4.87737e-08
4.86084e-08
4.84304e-08
4.82837e-08
4.81232e-08
4.79943e-08
4.78513e-08
4.77357e-08
4.76068e-08
4.75082e-08
4.73911e-08
4.73027e-08
4.71942e-08
4.71203e-08
4.70258e-08
4.69543e-08
4.68715e-08
4.68059e-08
4.67242e-08
4.66709e-08
4.65918e-08
4.65448e-08
4.64724e-08
4.64272e-08
4.63598e-08
4.6314e-08
4.62604e-08
4.6218e-08
4.61653e-08
4.61229e-08
4.60758e-08
4.60351e-08
4.59924e-08
4.59537e-08
4.59151e-08
4.58795e-08
4.58449e-08
4.58113e-08
4.57805e-08
4.57503e-08
4.57283e-08
4.57043e-08
4.56851e-08
4.56636e-08
4.56473e-08
4.56261e-08
4.56111e-08
4.559e-08
4.55724e-08
4.55463e-08
4.55244e-08
4.59491e-08
3.38958e-06
3.15289e-08
1.24769e-07
1.22982e-07
1.17919e-07
1.10978e-07
1.03732e-07
9.70593e-08
9.1195e-08
8.6168e-08
8.18499e-08
7.81625e-08
7.49704e-08
7.22203e-08
6.98061e-08
6.77077e-08
6.58386e-08
6.42e-08
6.27211e-08
6.14169e-08
6.02255e-08
5.91705e-08
5.81947e-08
5.7329e-08
5.65192e-08
5.57989e-08
5.5118e-08
5.45126e-08
5.39353e-08
5.34219e-08
5.2926e-08
5.24885e-08
5.2061e-08
5.1684e-08
5.13114e-08
5.09856e-08
5.06603e-08
5.0378e-08
5.00918e-08
4.98458e-08
4.95932e-08
4.93776e-08
4.91532e-08
4.89634e-08
4.87624e-08
4.85963e-08
4.84175e-08
4.82701e-08
4.81089e-08
4.79793e-08
4.78355e-08
4.77194e-08
4.75898e-08
4.74907e-08
4.7373e-08
4.72841e-08
4.7175e-08
4.71006e-08
4.70056e-08
4.69338e-08
4.68504e-08
4.67846e-08
4.67024e-08
4.66489e-08
4.65695e-08
4.65222e-08
4.64494e-08
4.64041e-08
4.63363e-08
4.62902e-08
4.62363e-08
4.61938e-08
4.61408e-08
4.60982e-08
4.6051e-08
4.60101e-08
4.59671e-08
4.59283e-08
4.58893e-08
4.58534e-08
4.58185e-08
4.57847e-08
4.57537e-08
4.57232e-08
4.57006e-08
4.56759e-08
4.56566e-08
4.56348e-08
4.56182e-08
4.55968e-08
4.55816e-08
4.55601e-08
4.55423e-08
4.55157e-08
4.5494e-08
4.59282e-08
3.39289e-06
3.2691e-08
1.24762e-07
1.22997e-07
1.17976e-07
1.11071e-07
1.03846e-07
9.71818e-08
9.13169e-08
8.62846e-08
8.19591e-08
7.82634e-08
7.50627e-08
7.23044e-08
6.98823e-08
6.77766e-08
6.59008e-08
6.42559e-08
6.27713e-08
6.14619e-08
6.02656e-08
5.92061e-08
5.82263e-08
5.73567e-08
5.65434e-08
5.582e-08
5.51361e-08
5.4528e-08
5.39481e-08
5.34323e-08
5.29341e-08
5.24946e-08
5.20651e-08
5.16863e-08
5.1312e-08
5.09846e-08
5.06577e-08
5.03741e-08
5.00866e-08
4.98393e-08
4.95855e-08
4.93688e-08
4.91432e-08
4.89526e-08
4.87505e-08
4.85836e-08
4.84039e-08
4.82556e-08
4.80936e-08
4.79633e-08
4.78188e-08
4.7702e-08
4.75717e-08
4.7472e-08
4.73536e-08
4.72643e-08
4.71545e-08
4.70796e-08
4.69841e-08
4.69118e-08
4.68278e-08
4.67618e-08
4.66791e-08
4.66254e-08
4.65457e-08
4.6498e-08
4.64247e-08
4.63793e-08
4.63111e-08
4.62648e-08
4.62106e-08
4.61678e-08
4.61146e-08
4.60718e-08
4.60244e-08
4.59832e-08
4.594e-08
4.59009e-08
4.58616e-08
4.58255e-08
4.57903e-08
4.57563e-08
4.5725e-08
4.56941e-08
4.56708e-08
4.56456e-08
4.56261e-08
4.56039e-08
4.5587e-08
4.55653e-08
4.55498e-08
4.55281e-08
4.55101e-08
4.5483e-08
4.54613e-08
4.59057e-08
3.39564e-06
3.39946e-08
1.24755e-07
1.23012e-07
1.18037e-07
1.11171e-07
1.03969e-07
9.73129e-08
9.14475e-08
8.64098e-08
8.20764e-08
7.83718e-08
7.5162e-08
7.23949e-08
6.99645e-08
6.7851e-08
6.59678e-08
6.43164e-08
6.28256e-08
6.15105e-08
6.0309e-08
5.92448e-08
5.82605e-08
5.73869e-08
5.65698e-08
5.5843e-08
5.51558e-08
5.45448e-08
5.39621e-08
5.34438e-08
5.29432e-08
5.25014e-08
5.20698e-08
5.16892e-08
5.1313e-08
5.09839e-08
5.06553e-08
5.03702e-08
5.00812e-08
4.98326e-08
4.95775e-08
4.93596e-08
4.91328e-08
4.89412e-08
4.8738e-08
4.85701e-08
4.83894e-08
4.82404e-08
4.80774e-08
4.79464e-08
4.7801e-08
4.76836e-08
4.75524e-08
4.74521e-08
4.73331e-08
4.72432e-08
4.71328e-08
4.70573e-08
4.69612e-08
4.68885e-08
4.68038e-08
4.67375e-08
4.66543e-08
4.66003e-08
4.65202e-08
4.64722e-08
4.63985e-08
4.63529e-08
4.62842e-08
4.62378e-08
4.61832e-08
4.61401e-08
4.60867e-08
4.60437e-08
4.5996e-08
4.59547e-08
4.59111e-08
4.58718e-08
4.58321e-08
4.57958e-08
4.57602e-08
4.5726e-08
4.56944e-08
4.56631e-08
4.56391e-08
4.56133e-08
4.55936e-08
4.5571e-08
4.55536e-08
4.55317e-08
4.5516e-08
4.54939e-08
4.54756e-08
4.54479e-08
4.54264e-08
4.58817e-08
3.39748e-06
3.54535e-08
1.24747e-07
1.23027e-07
1.181e-07
1.11276e-07
1.04099e-07
9.74526e-08
9.1587e-08
8.65437e-08
8.2202e-08
7.8488e-08
7.52686e-08
7.24921e-08
7.00528e-08
6.79309e-08
6.604e-08
6.43814e-08
6.28841e-08
6.15629e-08
6.03559e-08
5.92865e-08
5.82975e-08
5.74196e-08
5.65985e-08
5.58679e-08
5.51773e-08
5.45631e-08
5.39774e-08
5.34564e-08
5.29532e-08
5.25091e-08
5.20752e-08
5.16925e-08
5.13143e-08
5.09834e-08
5.06531e-08
5.03663e-08
5.00757e-08
4.98257e-08
4.95692e-08
4.935e-08
4.9122e-08
4.89292e-08
4.87249e-08
4.8556e-08
4.83742e-08
4.82243e-08
4.80604e-08
4.79285e-08
4.77823e-08
4.76642e-08
4.75321e-08
4.74311e-08
4.73113e-08
4.72209e-08
4.71098e-08
4.70336e-08
4.6937e-08
4.68637e-08
4.67784e-08
4.67118e-08
4.66279e-08
4.65737e-08
4.64932e-08
4.64448e-08
4.63706e-08
4.63249e-08
4.62557e-08
4.62091e-08
4.61541e-08
4.61107e-08
4.60571e-08
4.60137e-08
4.59658e-08
4.59243e-08
4.58803e-08
4.58409e-08
4.58007e-08
4.57642e-08
4.57282e-08
4.56938e-08
4.56618e-08
4.56302e-08
4.56054e-08
4.5579e-08
4.5559e-08
4.5536e-08
4.55182e-08
4.5496e-08
4.548e-08
4.54575e-08
4.5439e-08
4.54107e-08
4.53893e-08
4.58561e-08
3.39797e-06
3.70808e-08
1.24739e-07
1.23044e-07
1.18167e-07
1.11388e-07
1.04237e-07
9.7601e-08
9.17355e-08
8.66865e-08
8.23361e-08
7.86123e-08
7.53827e-08
7.25962e-08
7.01474e-08
6.80167e-08
6.61175e-08
6.44513e-08
6.29469e-08
6.16194e-08
6.04063e-08
5.93315e-08
5.83374e-08
5.74549e-08
5.66295e-08
5.5895e-08
5.52007e-08
5.45831e-08
5.39942e-08
5.34704e-08
5.29644e-08
5.25177e-08
5.20814e-08
5.16965e-08
5.13161e-08
5.09833e-08
5.0651e-08
5.03626e-08
5.00702e-08
4.98188e-08
4.95606e-08
4.93402e-08
4.91107e-08
4.89168e-08
4.87112e-08
4.85413e-08
4.83583e-08
4.82075e-08
4.80425e-08
4.79098e-08
4.77626e-08
4.76437e-08
4.75107e-08
4.74091e-08
4.72884e-08
4.71974e-08
4.70855e-08
4.70087e-08
4.69114e-08
4.68376e-08
4.67516e-08
4.66846e-08
4.66001e-08
4.65456e-08
4.64647e-08
4.64159e-08
4.63412e-08
4.62953e-08
4.62255e-08
4.61787e-08
4.61233e-08
4.60796e-08
4.60257e-08
4.59821e-08
4.59338e-08
4.58921e-08
4.58478e-08
4.58081e-08
4.57675e-08
4.57307e-08
4.56943e-08
4.56596e-08
4.56273e-08
4.55953e-08
4.55698e-08
4.55427e-08
4.55223e-08
4.54989e-08
4.54806e-08
4.54581e-08
4.54418e-08
4.54189e-08
4.54002e-08
4.53711e-08
4.53499e-08
4.58288e-08
3.39661e-06
3.88894e-08
1.2473e-07
1.2306e-07
1.18237e-07
1.11505e-07
1.04383e-07
9.77584e-08
9.18933e-08
8.68384e-08
8.2479e-08
7.87447e-08
7.55044e-08
7.27075e-08
7.02486e-08
6.81084e-08
6.62005e-08
6.45263e-08
6.30144e-08
6.16799e-08
6.04606e-08
5.938e-08
5.83805e-08
5.7493e-08
5.6663e-08
5.59244e-08
5.52261e-08
5.46049e-08
5.40126e-08
5.34856e-08
5.29767e-08
5.25273e-08
5.20884e-08
5.17011e-08
5.13185e-08
5.09836e-08
5.06493e-08
5.0359e-08
5.00648e-08
4.98118e-08
4.9552e-08
4.93301e-08
4.90992e-08
4.8904e-08
4.86971e-08
4.85259e-08
4.83418e-08
4.819e-08
4.80238e-08
4.78902e-08
4.7742e-08
4.76223e-08
4.74883e-08
4.73859e-08
4.72644e-08
4.71727e-08
4.706e-08
4.69825e-08
4.68845e-08
4.68101e-08
4.67233e-08
4.6656e-08
4.65708e-08
4.6516e-08
4.64346e-08
4.63854e-08
4.63101e-08
4.6264e-08
4.61937e-08
4.61467e-08
4.60908e-08
4.60467e-08
4.59926e-08
4.59486e-08
4.59001e-08
4.58581e-08
4.58134e-08
4.57735e-08
4.57325e-08
4.56953e-08
4.56585e-08
4.56236e-08
4.55908e-08
4.55585e-08
4.55322e-08
4.55044e-08
4.54837e-08
4.54596e-08
4.5441e-08
4.54181e-08
4.54014e-08
4.53781e-08
4.53591e-08
4.53292e-08
4.53083e-08
4.57998e-08
3.39281e-06
4.08918e-08
1.24721e-07
1.23077e-07
1.1831e-07
1.11629e-07
1.04537e-07
9.79247e-08
9.20604e-08
8.69995e-08
8.26308e-08
7.88857e-08
7.56341e-08
7.2826e-08
7.03565e-08
6.82064e-08
6.62892e-08
6.46064e-08
6.30866e-08
6.17449e-08
6.05187e-08
5.9432e-08
5.84268e-08
5.75341e-08
5.66992e-08
5.59561e-08
5.52536e-08
5.46286e-08
5.40326e-08
5.35024e-08
5.29903e-08
5.2538e-08
5.20963e-08
5.17066e-08
5.13215e-08
5.09844e-08
5.06479e-08
5.03557e-08
5.00595e-08
4.98048e-08
4.95432e-08
4.93198e-08
4.90873e-08
4.88908e-08
4.86825e-08
4.85101e-08
4.83247e-08
4.81718e-08
4.80044e-08
4.78698e-08
4.77205e-08
4.76e-08
4.74649e-08
4.73617e-08
4.72392e-08
4.71469e-08
4.70333e-08
4.6955e-08
4.68562e-08
4.67813e-08
4.66937e-08
4.6626e-08
4.65401e-08
4.64848e-08
4.64029e-08
4.63533e-08
4.62775e-08
4.62312e-08
4.61602e-08
4.61131e-08
4.60566e-08
4.60122e-08
4.59577e-08
4.59135e-08
4.58646e-08
4.58224e-08
4.57773e-08
4.5737e-08
4.56956e-08
4.56581e-08
4.56208e-08
4.55856e-08
4.55524e-08
4.55198e-08
4.54926e-08
4.54642e-08
4.54429e-08
4.54183e-08
4.53992e-08
4.5376e-08
4.53589e-08
4.53351e-08
4.53158e-08
4.52852e-08
4.52644e-08
4.57689e-08
3.38593e-06
4.30991e-08
1.24712e-07
1.23095e-07
1.18386e-07
1.11758e-07
1.04698e-07
9.81002e-08
9.2237e-08
8.71702e-08
8.27917e-08
7.90353e-08
7.57719e-08
7.29522e-08
7.04715e-08
6.83109e-08
6.63839e-08
6.4692e-08
6.31638e-08
6.18144e-08
6.05811e-08
5.94878e-08
5.84765e-08
5.75782e-08
5.67382e-08
5.59903e-08
5.52834e-08
5.46543e-08
5.40545e-08
5.35207e-08
5.30052e-08
5.25499e-08
5.21053e-08
5.17129e-08
5.13252e-08
5.09858e-08
5.06469e-08
5.03527e-08
5.00545e-08
4.97978e-08
4.95345e-08
4.93095e-08
4.90753e-08
4.88773e-08
4.86674e-08
4.84938e-08
4.8307e-08
4.81529e-08
4.79843e-08
4.78487e-08
4.76981e-08
4.75768e-08
4.74406e-08
4.73365e-08
4.7213e-08
4.712e-08
4.70055e-08
4.69263e-08
4.68268e-08
4.67512e-08
4.66627e-08
4.65946e-08
4.65079e-08
4.64522e-08
4.63698e-08
4.63197e-08
4.62434e-08
4.61968e-08
4.61251e-08
4.60778e-08
4.60208e-08
4.59759e-08
4.59212e-08
4.58766e-08
4.58274e-08
4.57849e-08
4.57393e-08
4.56988e-08
4.56568e-08
4.56191e-08
4.55812e-08
4.55458e-08
4.55121e-08
4.54791e-08
4.54512e-08
4.54221e-08
4.54002e-08
4.53749e-08
4.53554e-08
4.53317e-08
4.53143e-08
4.52899e-08
4.52704e-08
4.52389e-08
4.52183e-08
4.57361e-08
3.37527e-06
4.55213e-08
1.24702e-07
1.23113e-07
1.18465e-07
1.11893e-07
1.04868e-07
9.82848e-08
9.24234e-08
8.73505e-08
8.29621e-08
7.91939e-08
7.59181e-08
7.30862e-08
7.05937e-08
6.8422e-08
6.64847e-08
6.47832e-08
6.32461e-08
6.18886e-08
6.06477e-08
5.95475e-08
5.85298e-08
5.76257e-08
5.67801e-08
5.60272e-08
5.53156e-08
5.46822e-08
5.40782e-08
5.35408e-08
5.30217e-08
5.25632e-08
5.21154e-08
5.17202e-08
5.13297e-08
5.09879e-08
5.06465e-08
5.03501e-08
5.00497e-08
4.97911e-08
4.95257e-08
4.9299e-08
4.90631e-08
4.88636e-08
4.86521e-08
4.84771e-08
4.82888e-08
4.81335e-08
4.79636e-08
4.78268e-08
4.7675e-08
4.75527e-08
4.74153e-08
4.73103e-08
4.71858e-08
4.7092e-08
4.69765e-08
4.68965e-08
4.67961e-08
4.67198e-08
4.66305e-08
4.65618e-08
4.64743e-08
4.64182e-08
4.63351e-08
4.62846e-08
4.62077e-08
4.61608e-08
4.60885e-08
4.6041e-08
4.59832e-08
4.5938e-08
4.58829e-08
4.5838e-08
4.57884e-08
4.57457e-08
4.56996e-08
4.56588e-08
4.56163e-08
4.55782e-08
4.55398e-08
4.5504e-08
4.54698e-08
4.54365e-08
4.54078e-08
4.5378e-08
4.53555e-08
4.53295e-08
4.53095e-08
4.52854e-08
4.52675e-08
4.52426e-08
4.52227e-08
4.51904e-08
4.517e-08
4.57012e-08
3.36004e-06
4.81658e-08
1.24692e-07
1.23131e-07
1.18546e-07
1.12033e-07
1.05046e-07
9.84787e-08
9.26196e-08
8.75408e-08
8.31421e-08
7.93616e-08
7.60729e-08
7.32282e-08
7.07234e-08
6.85401e-08
6.65919e-08
6.48804e-08
6.33339e-08
6.19678e-08
6.0719e-08
5.96115e-08
5.85869e-08
5.76765e-08
5.68251e-08
5.6067e-08
5.53503e-08
5.47124e-08
5.41041e-08
5.35627e-08
5.30398e-08
5.25779e-08
5.21268e-08
5.17286e-08
5.13352e-08
5.09907e-08
5.06467e-08
5.0348e-08
5.00452e-08
4.97846e-08
4.95172e-08
4.92887e-08
4.90508e-08
4.88498e-08
4.86365e-08
4.846e-08
4.82702e-08
4.81136e-08
4.79423e-08
4.78043e-08
4.76512e-08
4.75279e-08
4.73892e-08
4.72832e-08