/*--------------------------------*- C++ -*----------------------------------*\
| =========                 |                                                 |
| \\      /  F ield         | OpenFOAM: The Open Source CFD Toolbox           |
|  \\    /   O peration     | Version:  v2012                                 |
|   \\  /    A nd           | Website:  www.openfoam.com                      |
|    \\/     M anipulation  |                                                 |
\*---------------------------------------------------------------------------*/
FoamFile
{
    version     2.0;
    format      ascii;
    class       volVectorField;
    location    "38";
    object      wallShearStress;
}
// * * * * * * * * * * * * * * * * * * * * * * * * * * * * * * * * * * * * * //

dimensions      [0 2 -2 0 0 0 0];


internalField   uniform (0 0 0);

boundaryField
{
    inlet
    {
        type            calculated;
        value           uniform (0 0 0);
    }
    outlet
    {
        type            calculated;
        value           uniform (0 0 0);
    }
    topWall
    {
        type            calculated;
        value           nonuniform List<vector> 
545
(
(6.58509e-08 -4.63473e-08 0)
(6.58419e-08 -1.2969e-07 0)
(6.5789e-08 -2.16333e-07 0)
(6.57211e-08 -3.00448e-07 0)
(6.56425e-08 -3.80965e-07 0)
(6.55504e-08 -4.58917e-07 0)
(6.54457e-08 -5.34968e-07 0)
(6.53292e-08 -6.09082e-07 0)
(6.52018e-08 -6.81095e-07 0)
(6.50646e-08 -7.51006e-07 0)
(6.49184e-08 -8.18905e-07 0)
(6.47641e-08 -8.84872e-07 0)
(6.46026e-08 -9.48952e-07 0)
(6.44346e-08 -1.01118e-06 0)
(6.42608e-08 -1.07161e-06 0)
(6.4082e-08 -1.13028e-06 0)
(6.38986e-08 -1.18724e-06 0)
(6.37115e-08 -1.24254e-06 0)
(6.3521e-08 -1.29622e-06 0)
(6.33277e-08 -1.34833e-06 0)
(6.31321e-08 -1.3989e-06 0)
(6.29347e-08 -1.44799e-06 0)
(6.27358e-08 -1.49564e-06 0)
(6.25358e-08 -1.54188e-06 0)
(6.23352e-08 -1.58676e-06 0)
(6.21342e-08 -1.63032e-06 0)
(6.19332e-08 -1.67258e-06 0)
(6.17324e-08 -1.71361e-06 0)
(6.15322e-08 -1.75342e-06 0)
(6.13326e-08 -1.79205e-06 0)
(6.11341e-08 -1.82954e-06 0)
(6.09367e-08 -1.86593e-06 0)
(6.07407e-08 -1.90124e-06 0)
(6.05462e-08 -1.93551e-06 0)
(6.03534e-08 -1.96878e-06 0)
(6.01624e-08 -2.00106e-06 0)
(5.99734e-08 -2.03239e-06 0)
(5.97864e-08 -2.0628e-06 0)
(5.96016e-08 -2.09231e-06 0)
(5.94191e-08 -2.12096e-06 0)
(5.92389e-08 -2.14877e-06 0)
(5.90611e-08 -2.17576e-06 0)
(5.88858e-08 -2.20197e-06 0)
(5.8713e-08 -2.2274e-06 0)
(5.85428e-08 -2.2521e-06 0)
(5.83752e-08 -2.27607e-06 0)
(5.82102e-08 -2.29935e-06 0)
(5.80478e-08 -2.32194e-06 0)
(5.78882e-08 -2.34388e-06 0)
(5.77312e-08 -2.36519e-06 0)
(5.75769e-08 -2.38587e-06 0)
(5.74253e-08 -2.40596e-06 0)
(5.72764e-08 -2.42547e-06 0)
(5.71301e-08 -2.44441e-06 0)
(5.69866e-08 -2.46281e-06 0)
(5.68457e-08 -2.48068e-06 0)
(5.67074e-08 -2.49803e-06 0)
(5.65718e-08 -2.51488e-06 0)
(5.64388e-08 -2.53126e-06 0)
(5.63084e-08 -2.54716e-06 0)
(5.61805e-08 -2.56261e-06 0)
(5.60551e-08 -2.57761e-06 0)
(5.59322e-08 -2.59219e-06 0)
(5.58118e-08 -2.60636e-06 0)
(5.56938e-08 -2.62012e-06 0)
(5.55782e-08 -2.63349e-06 0)
(5.5465e-08 -2.64648e-06 0)
(5.53541e-08 -2.6591e-06 0)
(5.52455e-08 -2.67137e-06 0)
(5.51391e-08 -2.68328e-06 0)
(5.50352e-08 -2.69487e-06 0)
(5.4932e-08 -2.70611e-06 0)
(5.48325e-08 -2.71692e-06 0)
(5.47378e-08 -2.72742e-06 0)
(5.46439e-08 -2.73779e-06 0)
(5.45502e-08 -2.7481e-06 0)
(5.44567e-08 -2.75838e-06 0)
(5.43633e-08 -2.76859e-06 0)
(5.42699e-08 -2.77873e-06 0)
(5.41767e-08 -2.7888e-06 0)
(5.40836e-08 -2.79882e-06 0)
(5.39905e-08 -2.80877e-06 0)
(5.38976e-08 -2.81865e-06 0)
(5.38048e-08 -2.82848e-06 0)
(5.37121e-08 -2.83824e-06 0)
(5.36195e-08 -2.84795e-06 0)
(5.35271e-08 -2.85759e-06 0)
(5.34347e-08 -2.86717e-06 0)
(5.33425e-08 -2.87669e-06 0)
(5.32505e-08 -2.88615e-06 0)
(5.31585e-08 -2.89555e-06 0)
(5.30667e-08 -2.90489e-06 0)
(5.29751e-08 -2.91418e-06 0)
(5.28831e-08 -2.92338e-06 0)
(5.27942e-08 -2.9326e-06 0)
(5.26928e-08 -2.94161e-06 0)
(5.25927e-08 -2.94982e-06 0)
(5.2514e-08 -2.95736e-06 0)
(5.24391e-08 -2.96466e-06 0)
(5.23647e-08 -2.97195e-06 0)
(5.22901e-08 -2.97933e-06 0)
(5.22153e-08 -2.98673e-06 0)
(5.21401e-08 -2.99413e-06 0)
(5.20645e-08 -3.00152e-06 0)
(5.19886e-08 -3.00892e-06 0)
(5.19124e-08 -3.01633e-06 0)
(5.18358e-08 -3.02375e-06 0)
(5.17588e-08 -3.03117e-06 0)
(5.16815e-08 -3.0386e-06 0)
(5.16038e-08 -3.04603e-06 0)
(5.15258e-08 -3.05348e-06 0)
(5.14475e-08 -3.06092e-06 0)
(5.13687e-08 -3.06838e-06 0)
(5.12897e-08 -3.07584e-06 0)
(5.12102e-08 -3.0833e-06 0)
(5.11304e-08 -3.09078e-06 0)
(5.10503e-08 -3.09826e-06 0)
(5.09697e-08 -3.10574e-06 0)
(5.08889e-08 -3.11323e-06 0)
(5.08076e-08 -3.12072e-06 0)
(5.0726e-08 -3.12823e-06 0)
(5.0644e-08 -3.13573e-06 0)
(5.05617e-08 -3.14324e-06 0)
(5.0479e-08 -3.15076e-06 0)
(5.03959e-08 -3.15829e-06 0)
(5.03125e-08 -3.16581e-06 0)
(5.02287e-08 -3.17335e-06 0)
(5.01445e-08 -3.18089e-06 0)
(5.006e-08 -3.18843e-06 0)
(4.99751e-08 -3.19598e-06 0)
(4.98898e-08 -3.20353e-06 0)
(4.98041e-08 -3.21109e-06 0)
(4.97181e-08 -3.21865e-06 0)
(4.96316e-08 -3.22622e-06 0)
(4.95449e-08 -3.2338e-06 0)
(4.94577e-08 -3.24137e-06 0)
(4.93701e-08 -3.24895e-06 0)
(4.92822e-08 -3.25654e-06 0)
(4.91939e-08 -3.26413e-06 0)
(4.91053e-08 -3.27173e-06 0)
(4.90162e-08 -3.27932e-06 0)
(4.89268e-08 -3.28693e-06 0)
(4.88369e-08 -3.29453e-06 0)
(4.87467e-08 -3.30215e-06 0)
(4.86561e-08 -3.30976e-06 0)
(4.85652e-08 -3.31738e-06 0)
(4.84738e-08 -3.325e-06 0)
(4.83821e-08 -3.33263e-06 0)
(4.829e-08 -3.34025e-06 0)
(4.81975e-08 -3.34789e-06 0)
(4.81045e-08 -3.35552e-06 0)
(4.80113e-08 -3.36316e-06 0)
(4.79176e-08 -3.3708e-06 0)
(4.78235e-08 -3.37845e-06 0)
(4.77291e-08 -3.3861e-06 0)
(4.76342e-08 -3.39375e-06 0)
(4.7539e-08 -3.4014e-06 0)
(4.74434e-08 -3.40906e-06 0)
(4.73473e-08 -3.41672e-06 0)
(4.72509e-08 -3.42438e-06 0)
(4.71541e-08 -3.43204e-06 0)
(4.70569e-08 -3.43971e-06 0)
(4.69593e-08 -3.44737e-06 0)
(4.68613e-08 -3.45504e-06 0)
(4.6763e-08 -3.46272e-06 0)
(4.66642e-08 -3.47039e-06 0)
(4.6565e-08 -3.47807e-06 0)
(4.64654e-08 -3.48574e-06 0)
(4.63655e-08 -3.49342e-06 0)
(4.62651e-08 -3.5011e-06 0)
(4.61643e-08 -3.50879e-06 0)
(4.60632e-08 -3.51647e-06 0)
(4.59616e-08 -3.52415e-06 0)
(4.58597e-08 -3.53184e-06 0)
(4.57573e-08 -3.53953e-06 0)
(4.56545e-08 -3.54721e-06 0)
(4.55514e-08 -3.5549e-06 0)
(4.54478e-08 -3.56259e-06 0)
(4.53439e-08 -3.57028e-06 0)
(4.52395e-08 -3.57797e-06 0)
(4.51347e-08 -3.58566e-06 0)
(4.50296e-08 -3.59335e-06 0)
(4.4924e-08 -3.60104e-06 0)
(4.48181e-08 -3.60873e-06 0)
(4.47117e-08 -3.61642e-06 0)
(4.46049e-08 -3.62411e-06 0)
(4.44978e-08 -3.6318e-06 0)
(4.43902e-08 -3.63949e-06 0)
(4.42822e-08 -3.64718e-06 0)
(4.41738e-08 -3.65487e-06 0)
(4.4065e-08 -3.66256e-06 0)
(4.39559e-08 -3.67024e-06 0)
(4.38463e-08 -3.67793e-06 0)
(4.37363e-08 -3.68561e-06 0)
(4.36259e-08 -3.6933e-06 0)
(4.35151e-08 -3.70098e-06 0)
(4.34039e-08 -3.70866e-06 0)
(4.32923e-08 -3.71634e-06 0)
(4.31803e-08 -3.72401e-06 0)
(4.30679e-08 -3.73169e-06 0)
(4.29551e-08 -3.73936e-06 0)
(4.28419e-08 -3.74703e-06 0)
(4.27283e-08 -3.7547e-06 0)
(4.26143e-08 -3.76237e-06 0)
(4.24999e-08 -3.77003e-06 0)
(4.23851e-08 -3.77769e-06 0)
(4.22699e-08 -3.78535e-06 0)
(4.21543e-08 -3.79301e-06 0)
(4.20382e-08 -3.80066e-06 0)
(4.19218e-08 -3.80831e-06 0)
(4.1805e-08 -3.81595e-06 0)
(4.16878e-08 -3.8236e-06 0)
(4.15702e-08 -3.83124e-06 0)
(4.14522e-08 -3.83887e-06 0)
(4.13338e-08 -3.8465e-06 0)
(4.1215e-08 -3.85413e-06 0)
(4.10958e-08 -3.86175e-06 0)
(4.09762e-08 -3.86937e-06 0)
(4.08562e-08 -3.87699e-06 0)
(4.07358e-08 -3.8846e-06 0)
(4.0615e-08 -3.8922e-06 0)
(4.04939e-08 -3.89981e-06 0)
(4.03723e-08 -3.9074e-06 0)
(4.02503e-08 -3.91499e-06 0)
(4.0128e-08 -3.92258e-06 0)
(4.00052e-08 -3.93016e-06 0)
(3.98821e-08 -3.93774e-06 0)
(3.97586e-08 -3.94531e-06 0)
(3.96347e-08 -3.95287e-06 0)
(3.95104e-08 -3.96043e-06 0)
(3.93857e-08 -3.96798e-06 0)
(3.92606e-08 -3.97553e-06 0)
(3.91351e-08 -3.98307e-06 0)
(3.90093e-08 -3.9906e-06 0)
(3.88831e-08 -3.99813e-06 0)
(3.87565e-08 -4.00565e-06 0)
(3.86295e-08 -4.01316e-06 0)
(3.85021e-08 -4.02067e-06 0)
(3.83743e-08 -4.02816e-06 0)
(3.82462e-08 -4.03566e-06 0)
(3.81177e-08 -4.04314e-06 0)
(3.79888e-08 -4.05062e-06 0)
(3.78596e-08 -4.05808e-06 0)
(3.77299e-08 -4.06554e-06 0)
(3.75999e-08 -4.073e-06 0)
(3.74696e-08 -4.08044e-06 0)
(3.73388e-08 -4.08788e-06 0)
(3.72077e-08 -4.0953e-06 0)
(3.70762e-08 -4.10272e-06 0)
(3.69444e-08 -4.11013e-06 0)
(3.68122e-08 -4.11753e-06 0)
(3.66796e-08 -4.12492e-06 0)
(3.65467e-08 -4.1323e-06 0)
(3.64134e-08 -4.13968e-06 0)
(3.62797e-08 -4.14704e-06 0)
(3.61457e-08 -4.15439e-06 0)
(3.60113e-08 -4.16173e-06 0)
(3.58766e-08 -4.16907e-06 0)
(3.57416e-08 -4.17639e-06 0)
(3.56061e-08 -4.1837e-06 0)
(3.54704e-08 -4.191e-06 0)
(3.53343e-08 -4.19829e-06 0)
(3.51978e-08 -4.20557e-06 0)
(3.5061e-08 -4.21284e-06 0)
(3.49239e-08 -4.2201e-06 0)
(3.47865e-08 -4.22735e-06 0)
(3.46484e-08 -4.23457e-06 0)
(3.45123e-08 -4.24184e-06 0)
(3.43697e-08 -4.24897e-06 0)
(3.4225e-08 -4.25574e-06 0)
(3.40948e-08 -4.26229e-06 0)
(3.39708e-08 -4.26872e-06 0)
(3.38454e-08 -4.27516e-06 0)
(3.3719e-08 -4.28171e-06 0)
(3.35912e-08 -4.28832e-06 0)
(3.3462e-08 -4.29496e-06 0)
(3.33314e-08 -4.30165e-06 0)
(3.31993e-08 -4.30838e-06 0)
(3.30658e-08 -4.31516e-06 0)
(3.29308e-08 -4.32199e-06 0)
(3.27942e-08 -4.32886e-06 0)
(3.26562e-08 -4.33577e-06 0)
(3.25167e-08 -4.34273e-06 0)
(3.23757e-08 -4.34974e-06 0)
(3.22332e-08 -4.35679e-06 0)
(3.20891e-08 -4.36389e-06 0)
(3.19434e-08 -4.37103e-06 0)
(3.17962e-08 -4.37822e-06 0)
(3.16474e-08 -4.38545e-06 0)
(3.14971e-08 -4.39273e-06 0)
(3.13451e-08 -4.40005e-06 0)
(3.11915e-08 -4.40741e-06 0)
(3.10363e-08 -4.41481e-06 0)
(3.08794e-08 -4.42226e-06 0)
(3.07209e-08 -4.42975e-06 0)
(3.05608e-08 -4.43729e-06 0)
(3.0399e-08 -4.44486e-06 0)
(3.02355e-08 -4.45248e-06 0)
(3.00703e-08 -4.46014e-06 0)
(2.99034e-08 -4.46784e-06 0)
(2.97348e-08 -4.47558e-06 0)
(2.95645e-08 -4.48335e-06 0)
(2.93924e-08 -4.49117e-06 0)
(2.92186e-08 -4.49903e-06 0)
(2.9043e-08 -4.50692e-06 0)
(2.88657e-08 -4.51485e-06 0)
(2.86866e-08 -4.52282e-06 0)
(2.85058e-08 -4.53082e-06 0)
(2.83231e-08 -4.53886e-06 0)
(2.81386e-08 -4.54694e-06 0)
(2.79524e-08 -4.55504e-06 0)
(2.77643e-08 -4.56319e-06 0)
(2.75744e-08 -4.57136e-06 0)
(2.73827e-08 -4.57957e-06 0)
(2.71891e-08 -4.5878e-06 0)
(2.69937e-08 -4.59607e-06 0)
(2.67964e-08 -4.60437e-06 0)
(2.65973e-08 -4.61269e-06 0)
(2.63963e-08 -4.62104e-06 0)
(2.61935e-08 -4.62942e-06 0)
(2.59888e-08 -4.63782e-06 0)
(2.57822e-08 -4.64625e-06 0)
(2.55737e-08 -4.6547e-06 0)
(2.53634e-08 -4.66318e-06 0)
(2.51512e-08 -4.67167e-06 0)
(2.49371e-08 -4.68019e-06 0)
(2.47211e-08 -4.68872e-06 0)
(2.45033e-08 -4.69727e-06 0)
(2.42835e-08 -4.70583e-06 0)
(2.40619e-08 -4.71441e-06 0)
(2.38384e-08 -4.72301e-06 0)
(2.3613e-08 -4.73161e-06 0)
(2.33857e-08 -4.74023e-06 0)
(2.31566e-08 -4.74885e-06 0)
(2.29256e-08 -4.75748e-06 0)
(2.26927e-08 -4.76612e-06 0)
(2.2458e-08 -4.77476e-06 0)
(2.22214e-08 -4.78341e-06 0)
(2.1983e-08 -4.79205e-06 0)
(2.17428e-08 -4.8007e-06 0)
(2.15007e-08 -4.80934e-06 0)
(2.12568e-08 -4.81798e-06 0)
(2.10112e-08 -4.82661e-06 0)
(2.07637e-08 -4.83524e-06 0)
(2.05145e-08 -4.84385e-06 0)
(2.02635e-08 -4.85245e-06 0)
(2.00107e-08 -4.86104e-06 0)
(1.97563e-08 -4.86961e-06 0)
(1.95001e-08 -4.87816e-06 0)
(1.92423e-08 -4.88669e-06 0)
(1.89828e-08 -4.8952e-06 0)
(1.87216e-08 -4.90369e-06 0)
(1.84588e-08 -4.91214e-06 0)
(1.81945e-08 -4.92057e-06 0)
(1.79285e-08 -4.92897e-06 0)
(1.7661e-08 -4.93733e-06 0)
(1.7392e-08 -4.94565e-06 0)
(1.71215e-08 -4.95394e-06 0)
(1.68496e-08 -4.96218e-06 0)
(1.65762e-08 -4.97038e-06 0)
(1.63015e-08 -4.97853e-06 0)
(1.60254e-08 -4.98664e-06 0)
(1.57479e-08 -4.99469e-06 0)
(1.54693e-08 -5.00268e-06 0)
(1.51893e-08 -5.01062e-06 0)
(1.49082e-08 -5.0185e-06 0)
(1.46259e-08 -5.0263e-06 0)
(1.43425e-08 -5.03405e-06 0)
(1.40581e-08 -5.04173e-06 0)
(1.37726e-08 -5.04933e-06 0)
(1.34862e-08 -5.05686e-06 0)
(1.31989e-08 -5.06431e-06 0)
(1.29107e-08 -5.07167e-06 0)
(1.26217e-08 -5.07896e-06 0)
(1.2332e-08 -5.08615e-06 0)
(1.20416e-08 -5.09325e-06 0)
(1.17505e-08 -5.10026e-06 0)
(1.14589e-08 -5.10717e-06 0)
(1.11668e-08 -5.11397e-06 0)
(1.08742e-08 -5.12068e-06 0)
(1.05812e-08 -5.12728e-06 0)
(1.0288e-08 -5.13377e-06 0)
(9.99452e-09 -5.14013e-06 0)
(9.70088e-09 -5.14639e-06 0)
(9.40713e-09 -5.15252e-06 0)
(9.11337e-09 -5.15853e-06 0)
(8.81966e-09 -5.16441e-06 0)
(8.5261e-09 -5.17016e-06 0)
(8.23273e-09 -5.17577e-06 0)
(7.93967e-09 -5.18125e-06 0)
(7.64697e-09 -5.18658e-06 0)
(7.35474e-09 -5.19177e-06 0)
(7.06305e-09 -5.1968e-06 0)
(6.77199e-09 -5.2017e-06 0)
(6.48163e-09 -5.20642e-06 0)
(6.19209e-09 -5.211e-06 0)
(5.90343e-09 -5.21541e-06 0)
(5.61576e-09 -5.21966e-06 0)
(5.32915e-09 -5.22373e-06 0)
(5.04372e-09 -5.22764e-06 0)
(4.75954e-09 -5.23136e-06 0)
(4.47673e-09 -5.23492e-06 0)
(4.19535e-09 -5.23828e-06 0)
(3.91553e-09 -5.24147e-06 0)
(3.63734e-09 -5.24446e-06 0)
(3.3609e-09 -5.24726e-06 0)
(3.08629e-09 -5.24987e-06 0)
(2.81363e-09 -5.25228e-06 0)
(2.54299e-09 -5.25449e-06 0)
(2.2745e-09 -5.2565e-06 0)
(2.00823e-09 -5.25829e-06 0)
(1.74431e-09 -5.25989e-06 0)
(1.48283e-09 -5.26126e-06 0)
(1.22388e-09 -5.26244e-06 0)
(9.67568e-10 -5.26338e-06 0)
(7.13997e-10 -5.26412e-06 0)
(4.63263e-10 -5.26461e-06 0)
(2.15469e-10 -5.26491e-06 0)
(-2.92901e-11 -5.26496e-06 0)
(-2.70914e-10 -5.2648e-06 0)
(-5.09305e-10 -5.26439e-06 0)
(-7.4437e-10 -5.26377e-06 0)
(-9.76011e-10 -5.26289e-06 0)
(-1.20414e-09 -5.2618e-06 0)
(-1.42866e-09 -5.26046e-06 0)
(-1.64949e-09 -5.25889e-06 0)
(-1.86653e-09 -5.25707e-06 0)
(-2.07972e-09 -5.25503e-06 0)
(-2.28895e-09 -5.25273e-06 0)
(-2.49415e-09 -5.2502e-06 0)
(-2.69525e-09 -5.24741e-06 0)
(-2.89217e-09 -5.2444e-06 0)
(-3.08483e-09 -5.24113e-06 0)
(-3.27319e-09 -5.23763e-06 0)
(-3.45714e-09 -5.23387e-06 0)
(-3.63665e-09 -5.22988e-06 0)
(-3.81164e-09 -5.22563e-06 0)
(-3.98207e-09 -5.22116e-06 0)
(-4.14785e-09 -5.21643e-06 0)
(-4.30896e-09 -5.21147e-06 0)
(-4.46532e-09 -5.20625e-06 0)
(-4.61691e-09 -5.20082e-06 0)
(-4.76364e-09 -5.19512e-06 0)
(-4.90551e-09 -5.18921e-06 0)
(-5.04241e-09 -5.18304e-06 0)
(-5.17434e-09 -5.17666e-06 0)
(-5.30121e-09 -5.17001e-06 0)
(-5.42304e-09 -5.16319e-06 0)
(-5.53991e-09 -5.15603e-06 0)
(-5.65252e-09 -5.14874e-06 0)
(-5.76567e-09 -5.14046e-06 0)
(-5.88198e-09 -5.13099e-06 0)
(-5.99461e-09 -5.12129e-06 0)
(-6.09898e-09 -5.11151e-06 0)
(-6.19522e-09 -5.10151e-06 0)
(-6.28353e-09 -5.09141e-06 0)
(-6.36403e-09 -5.08112e-06 0)
(-6.43702e-09 -5.07075e-06 0)
(-6.50267e-09 -5.06024e-06 0)
(-6.56132e-09 -5.04966e-06 0)
(-6.61313e-09 -5.03895e-06 0)
(-6.65843e-09 -5.02821e-06 0)
(-6.69736e-09 -5.01736e-06 0)
(-6.73025e-09 -5.00649e-06 0)
(-6.75721e-09 -4.99553e-06 0)
(-6.77857e-09 -4.98457e-06 0)
(-6.79444e-09 -4.97354e-06 0)
(-6.80511e-09 -4.96254e-06 0)
(-6.81067e-09 -4.95148e-06 0)
(-6.81142e-09 -4.94045e-06 0)
(-6.80742e-09 -4.92939e-06 0)
(-6.79896e-09 -4.91838e-06 0)
(-6.78608e-09 -4.90735e-06 0)
(-6.76906e-09 -4.89638e-06 0)
(-6.74793e-09 -4.8854e-06 0)
(-6.72296e-09 -4.8745e-06 0)
(-6.69415e-09 -4.8636e-06 0)
(-6.66177e-09 -4.8528e-06 0)
(-6.62582e-09 -4.84201e-06 0)
(-6.58654e-09 -4.83132e-06 0)
(-6.54393e-09 -4.82065e-06 0)
(-6.49821e-09 -4.8101e-06 0)
(-6.44937e-09 -4.79959e-06 0)
(-6.39764e-09 -4.78919e-06 0)
(-6.34299e-09 -4.77885e-06 0)
(-6.28563e-09 -4.76863e-06 0)
(-6.22555e-09 -4.75847e-06 0)
(-6.16292e-09 -4.74845e-06 0)
(-6.09774e-09 -4.73849e-06 0)
(-6.03018e-09 -4.72868e-06 0)
(-5.96021e-09 -4.71894e-06 0)
(-5.88802e-09 -4.70936e-06 0)
(-5.81356e-09 -4.69986e-06 0)
(-5.737e-09 -4.69052e-06 0)
(-5.65832e-09 -4.68126e-06 0)
(-5.57766e-09 -4.67217e-06 0)
(-5.49499e-09 -4.66318e-06 0)
(-5.41045e-09 -4.65436e-06 0)
(-5.32402e-09 -4.64564e-06 0)
(-5.23582e-09 -4.6371e-06 0)
(-5.14583e-09 -4.62867e-06 0)
(-5.05417e-09 -4.62042e-06 0)
(-4.96081e-09 -4.61228e-06 0)
(-4.86587e-09 -4.60434e-06 0)
(-4.76932e-09 -4.59651e-06 0)
(-4.67127e-09 -4.58887e-06 0)
(-4.57168e-09 -4.58136e-06 0)
(-4.47068e-09 -4.57405e-06 0)
(-4.36822e-09 -4.56687e-06 0)
(-4.26441e-09 -4.55989e-06 0)
(-4.15923e-09 -4.55304e-06 0)
(-4.05276e-09 -4.5464e-06 0)
(-3.94499e-09 -4.5399e-06 0)
(-3.83601e-09 -4.53361e-06 0)
(-3.7258e-09 -4.52746e-06 0)
(-3.61445e-09 -4.52152e-06 0)
(-3.50193e-09 -4.51574e-06 0)
(-3.38834e-09 -4.51016e-06 0)
(-3.27365e-09 -4.50475e-06 0)
(-3.15796e-09 -4.49954e-06 0)
(-3.04124e-09 -4.4945e-06 0)
(-2.92358e-09 -4.48968e-06 0)
(-2.80497e-09 -4.48502e-06 0)
(-2.68547e-09 -4.48057e-06 0)
(-2.5651e-09 -4.4763e-06 0)
(-2.4439e-09 -4.47224e-06 0)
(-2.3219e-09 -4.46837e-06 0)
(-2.19913e-09 -4.4647e-06 0)
(-2.07562e-09 -4.46122e-06 0)
(-1.95141e-09 -4.45796e-06 0)
(-1.82652e-09 -4.45488e-06 0)
(-1.70099e-09 -4.45202e-06 0)
(-1.57486e-09 -4.44935e-06 0)
(-1.44817e-09 -4.4469e-06 0)
(-1.32097e-09 -4.44464e-06 0)
(-1.19334e-09 -4.44262e-06 0)
(-1.06536e-09 -4.44069e-06 0)
(-9.3717e-10 -4.43936e-06 0)
(-8.08851e-10 -4.43691e-06 0)
(-6.80852e-10 -4.43906e-06 0)
(-5.5234e-10 -4.42652e-06 0)
(-4.26257e-10 -4.46174e-06 0)
(-2.92248e-10 -4.3276e-06 0)
(-1.82987e-10 -4.68264e-06 0)
(-7.31804e-11 -4.08964e-06 0)
)
;
    }
    bottomWall
    {
        type            calculated;
        value           nonuniform List<vector> 
449
(
(-52.7419 -0.956025 0)
(-34.7656 -0.00280019 0)
(-34.3732 -0.000255547 0)
(-33.0072 -0.000364328 0)
(-31.8789 -0.000315878 0)
(-30.8408 -0.0002847 0)
(-29.9223 -0.00024965 0)
(-29.1213 -0.000217682 0)
(-28.4197 -0.000191073 0)
(-27.7995 -0.000169271 0)
(-27.2461 -0.000151218 0)
(-26.7487 -0.000136081 0)
(-26.2983 -0.000123404 0)
(-25.8873 -0.000112705 0)
(-25.5098 -0.000103476 0)
(-25.1616 -9.54598e-05 0)
(-24.8389 -8.84514e-05 0)
(-24.5385 -8.22928e-05 0)
(-24.2578 -7.68672e-05 0)
(-23.9945 -7.20321e-05 0)
(-23.7469 -6.77003e-05 0)
(-23.5132 -6.38105e-05 0)
(-23.2921 -6.03052e-05 0)
(-23.0824 -5.71263e-05 0)
(-22.8831 -5.42352e-05 0)
(-22.6932 -5.15815e-05 0)
(-22.5121 -4.91486e-05 0)
(-22.3389 -4.69129e-05 0)
(-22.1731 -4.48475e-05 0)
(-22.0141 -4.29285e-05 0)
(-21.8614 -4.11497e-05 0)
(-21.7146 -3.94942e-05 0)
(-21.5733 -3.79523e-05 0)
(-21.4372 -3.65097e-05 0)
(-21.3058 -3.51585e-05 0)
(-21.1789 -3.38946e-05 0)
(-21.0563 -3.2709e-05 0)
(-20.9375 -3.1594e-05 0)
(-20.8226 -3.05493e-05 0)
(-20.7111 -2.95605e-05 0)
(-20.6029 -2.86261e-05 0)
(-20.4978 -2.77436e-05 0)
(-20.3957 -2.69087e-05 0)
(-20.2965 -2.61141e-05 0)
(-20.1998 -2.53527e-05 0)
(-20.1058 -2.46286e-05 0)
(-20.0142 -2.39423e-05 0)
(-19.925 -2.32815e-05 0)
(-19.8379 -2.2652e-05 0)
(-19.753 -2.20519e-05 0)
(-19.6702 -2.14745e-05 0)
(-19.5893 -2.09236e-05 0)
(-19.5103 -2.03961e-05 0)
(-19.433 -1.98901e-05 0)
(-19.3575 -1.94066e-05 0)
(-19.2836 -1.89436e-05 0)
(-19.2114 -1.85007e-05 0)
(-19.1406 -1.80763e-05 0)
(-19.0712 -1.7669e-05 0)
(-19.0033 -1.72781e-05 0)
(-18.9367 -1.69028e-05 0)
(-18.8713 -1.65424e-05 0)
(-18.8072 -1.61952e-05 0)
(-18.7443 -1.58616e-05 0)
(-18.6825 -1.55396e-05 0)
(-18.6219 -1.52299e-05 0)
(-18.5622 -1.49302e-05 0)
(-18.5037 -1.46412e-05 0)
(-18.4461 -1.43612e-05 0)
(-18.3894 -1.40907e-05 0)
(-18.3337 -1.38285e-05 0)
(-18.2789 -1.35744e-05 0)
(-18.225 -1.33282e-05 0)
(-18.1719 -1.30896e-05 0)
(-18.1196 -1.28579e-05 0)
(-18.0681 -1.26332e-05 0)
(-18.0174 -1.24146e-05 0)
(-17.9675 -1.22024e-05 0)
(-17.9183 -1.1996e-05 0)
(-17.8698 -1.17953e-05 0)
(-17.822 -1.16002e-05 0)
(-17.7749 -1.14105e-05 0)
(-17.7284 -1.12254e-05 0)
(-17.6826 -1.10456e-05 0)
(-17.6374 -1.08698e-05 0)
(-17.5928 -1.06988e-05 0)
(-17.5488 -1.05323e-05 0)
(-17.5054 -1.03698e-05 0)
(-17.4626 -1.02118e-05 0)
(-17.4203 -1.00571e-05 0)
(-17.3785 -9.90632e-06 0)
(-17.3373 -9.75936e-06 0)
(-17.2966 -9.61553e-06 0)
(-17.2564 -9.47554e-06 0)
(-17.2167 -9.33895e-06 0)
(-17.1774 -9.205e-06 0)
(-17.1386 -9.07483e-06 0)
(-17.1003 -8.94717e-06 0)
(-17.0624 -8.82231e-06 0)
(-17.025 -8.70031e-06 0)
(-16.988 -8.58114e-06 0)
(-16.9514 -8.46413e-06 0)
(-16.9152 -8.35051e-06 0)
(-16.8795 -8.23851e-06 0)
(-16.8441 -8.12949e-06 0)
(-16.8091 -8.02236e-06 0)
(-16.7745 -7.91801e-06 0)
(-16.7402 -7.8151e-06 0)
(-16.7063 -7.71492e-06 0)
(-16.6728 -7.61637e-06 0)
(-16.6396 -7.51988e-06 0)
(-16.6068 -7.42519e-06 0)
(-16.5743 -7.3328e-06 0)
(-16.5421 -7.24194e-06 0)
(-16.5102 -7.15308e-06 0)
(-16.4787 -7.06595e-06 0)
(-16.4475 -6.98057e-06 0)
(-16.4165 -6.89655e-06 0)
(-16.3859 -6.81408e-06 0)
(-16.3556 -6.73313e-06 0)
(-16.3255 -6.6537e-06 0)
(-16.2958 -6.57572e-06 0)
(-16.2663 -6.49925e-06 0)
(-16.2371 -6.42407e-06 0)
(-16.2081 -6.35024e-06 0)
(-16.1794 -6.27789e-06 0)
(-16.151 -6.20689e-06 0)
(-16.1229 -6.13706e-06 0)
(-16.0949 -6.06846e-06 0)
(-16.0673 -6.00126e-06 0)
(-16.0398 -5.93472e-06 0)
(-16.0126 -5.86965e-06 0)
(-15.9857 -5.80519e-06 0)
(-15.959 -5.74228e-06 0)
(-15.9325 -5.68001e-06 0)
(-15.9062 -5.61934e-06 0)
(-15.8802 -5.55928e-06 0)
(-15.8543 -5.50058e-06 0)
(-15.8287 -5.44251e-06 0)
(-15.8033 -5.38581e-06 0)
(-15.7781 -5.32947e-06 0)
(-15.7531 -5.27453e-06 0)
(-15.7283 -5.21982e-06 0)
(-15.7037 -5.16665e-06 0)
(-15.6792 -5.1135e-06 0)
(-15.655 -5.06186e-06 0)
(-15.631 -5.01023e-06 0)
(-15.6071 -4.96016e-06 0)
(-15.5835 -4.91015e-06 0)
(-15.56 -4.86161e-06 0)
(-15.5367 -4.81333e-06 0)
(-15.5136 -4.76619e-06 0)
(-15.4906 -4.71957e-06 0)
(-15.4678 -4.67365e-06 0)
(-15.4452 -4.6284e-06 0)
(-15.4228 -4.58383e-06 0)
(-15.4005 -4.54014e-06 0)
(-15.3783 -4.49659e-06 0)
(-15.3564 -4.45398e-06 0)
(-15.3346 -4.41181e-06 0)
(-15.3129 -4.3705e-06 0)
(-15.2914 -4.32925e-06 0)
(-15.27 -4.28909e-06 0)
(-15.2488 -4.24892e-06 0)
(-15.2278 -4.20994e-06 0)
(-15.2069 -4.17103e-06 0)
(-15.1861 -4.13334e-06 0)
(-15.1655 -4.09535e-06 0)
(-15.145 -4.05877e-06 0)
(-15.1246 -4.02171e-06 0)
(-15.1044 -3.98599e-06 0)
(-15.0843 -3.94971e-06 0)
(-15.0644 -3.91478e-06 0)
(-15.0457 -3.88657e-06 0)
(-15.028 -3.85935e-06 0)
(-15.0104 -3.82631e-06 0)
(-14.9927 -3.79464e-06 0)
(-14.9749 -3.76307e-06 0)
(-14.9571 -3.73201e-06 0)
(-14.9393 -3.70107e-06 0)
(-14.9214 -3.67055e-06 0)
(-14.9035 -3.63976e-06 0)
(-14.8855 -3.60967e-06 0)
(-14.8675 -3.57927e-06 0)
(-14.8494 -3.54943e-06 0)
(-14.8313 -3.51925e-06 0)
(-14.8132 -3.48971e-06 0)
(-14.795 -3.46005e-06 0)
(-14.7768 -3.43082e-06 0)
(-14.7585 -3.40138e-06 0)
(-14.7402 -3.37184e-06 0)
(-14.7218 -3.34288e-06 0)
(-14.7035 -3.31395e-06 0)
(-14.685 -3.28527e-06 0)
(-14.6666 -3.25656e-06 0)
(-14.6481 -3.22819e-06 0)
(-14.6295 -3.19987e-06 0)
(-14.6109 -3.17173e-06 0)
(-14.5923 -3.14364e-06 0)
(-14.5737 -3.11553e-06 0)
(-14.555 -3.08761e-06 0)
(-14.5363 -3.05995e-06 0)
(-14.5176 -3.03247e-06 0)
(-14.4988 -3.00512e-06 0)
(-14.48 -2.97776e-06 0)
(-14.4611 -2.95077e-06 0)
(-14.4422 -2.92356e-06 0)
(-14.4233 -2.89704e-06 0)
(-14.4044 -2.87022e-06 0)
(-14.3854 -2.8441e-06 0)
(-14.3664 -2.81741e-06 0)
(-14.3474 -2.79154e-06 0)
(-14.3284 -2.7652e-06 0)
(-14.3093 -2.73957e-06 0)
(-14.2902 -2.71322e-06 0)
(-14.2711 -2.68777e-06 0)
(-14.2519 -2.66188e-06 0)
(-14.2327 -2.63676e-06 0)
(-14.2135 -2.61137e-06 0)
(-14.1943 -2.58628e-06 0)
(-14.1751 -2.56136e-06 0)
(-14.1558 -2.53654e-06 0)
(-14.1365 -2.51193e-06 0)
(-14.1172 -2.48758e-06 0)
(-14.0979 -2.46317e-06 0)
(-14.0786 -2.43932e-06 0)
(-14.0592 -2.41521e-06 0)
(-14.0398 -2.3912e-06 0)
(-14.0204 -2.36771e-06 0)
(-14.001 -2.34387e-06 0)
(-13.9816 -2.3207e-06 0)
(-13.9621 -2.29723e-06 0)
(-13.9427 -2.27425e-06 0)
(-13.9232 -2.2512e-06 0)
(-13.9037 -2.22862e-06 0)
(-13.8843 -2.20592e-06 0)
(-13.8647 -2.18361e-06 0)
(-13.8452 -2.16128e-06 0)
(-13.8257 -2.13952e-06 0)
(-13.8062 -2.1173e-06 0)
(-13.7866 -2.09559e-06 0)
(-13.7671 -2.07369e-06 0)
(-13.7475 -2.05235e-06 0)
(-13.7279 -2.03063e-06 0)
(-13.7084 -2.00979e-06 0)
(-13.6888 -1.98854e-06 0)
(-13.6692 -1.96788e-06 0)
(-13.6496 -1.94706e-06 0)
(-13.63 -1.92678e-06 0)
(-13.6104 -1.90614e-06 0)
(-13.5908 -1.88615e-06 0)
(-13.5712 -1.86573e-06 0)
(-13.5516 -1.84601e-06 0)
(-13.532 -1.82604e-06 0)
(-13.5124 -1.8066e-06 0)
(-13.4928 -1.78698e-06 0)
(-13.4732 -1.76765e-06 0)
(-13.4535 -1.74851e-06 0)
(-13.434 -1.72944e-06 0)
(-13.4143 -1.71072e-06 0)
(-13.3948 -1.69195e-06 0)
(-13.3752 -1.67345e-06 0)
(-13.3556 -1.65496e-06 0)
(-13.336 -1.63694e-06 0)
(-13.3165 -1.61888e-06 0)
(-13.2968 -1.60107e-06 0)
(-13.2773 -1.58334e-06 0)
(-13.2577 -1.5659e-06 0)
(-13.2382 -1.54825e-06 0)
(-13.2186 -1.53098e-06 0)
(-13.1991 -1.5138e-06 0)
(-13.1796 -1.49709e-06 0)
(-13.1601 -1.48015e-06 0)
(-13.1405 -1.46345e-06 0)
(-13.1211 -1.44658e-06 0)
(-13.1016 -1.43058e-06 0)
(-13.0821 -1.41403e-06 0)
(-13.0626 -1.39824e-06 0)
(-13.0432 -1.38214e-06 0)
(-13.0237 -1.36659e-06 0)
(-13.0043 -1.35066e-06 0)
(-12.9849 -1.33524e-06 0)
(-12.9655 -1.31982e-06 0)
(-12.9461 -1.30475e-06 0)
(-12.9268 -1.28952e-06 0)
(-12.9074 -1.27471e-06 0)
(-12.8881 -1.2598e-06 0)
(-12.8688 -1.24547e-06 0)
(-12.8495 -1.23079e-06 0)
(-12.8302 -1.21661e-06 0)
(-12.8109 -1.20207e-06 0)
(-12.7917 -1.18799e-06 0)
(-12.7725 -1.17398e-06 0)
(-12.7533 -1.16028e-06 0)
(-12.7341 -1.14634e-06 0)
(-12.715 -1.13303e-06 0)
(-12.6958 -1.11937e-06 0)
(-12.6767 -1.10613e-06 0)
(-12.6576 -1.09289e-06 0)
(-12.6385 -1.0797e-06 0)
(-12.6195 -1.06678e-06 0)
(-12.6005 -1.05393e-06 0)
(-12.5814 -1.04105e-06 0)
(-12.5625 -1.0285e-06 0)
(-12.5435 -1.01612e-06 0)
(-12.5247 -1.0041e-06 0)
(-12.5057 -9.91888e-07 0)
(-12.4869 -9.79668e-07 0)
(-12.468 -9.67766e-07 0)
(-12.4492 -9.55913e-07 0)
(-12.4304 -9.44346e-07 0)
(-12.4117 -9.32724e-07 0)
(-12.3929 -9.21245e-07 0)
(-12.3743 -9.0989e-07 0)
(-12.3556 -8.98932e-07 0)
(-12.337 -8.87805e-07 0)
(-12.3183 -8.76966e-07 0)
(-12.2998 -8.66112e-07 0)
(-12.2812 -8.55504e-07 0)
(-12.2627 -8.44883e-07 0)
(-12.2442 -8.34427e-07 0)
(-12.2257 -8.23918e-07 0)
(-12.2073 -8.13702e-07 0)
(-12.1889 -8.03521e-07 0)
(-12.1705 -7.93551e-07 0)
(-12.1522 -7.83454e-07 0)
(-12.1339 -7.73641e-07 0)
(-12.1156 -7.63863e-07 0)
(-12.0974 -7.54405e-07 0)
(-12.0792 -7.4472e-07 0)
(-12.061 -7.35347e-07 0)
(-12.0429 -7.26098e-07 0)
(-12.0248 -7.1705e-07 0)
(-12.0068 -7.0773e-07 0)
(-11.9887 -6.98949e-07 0)
(-11.9708 -6.90068e-07 0)
(-11.9528 -6.81564e-07 0)
(-11.9349 -6.72662e-07 0)
(-11.917 -6.64284e-07 0)
(-11.8991 -6.5565e-07 0)
(-11.8813 -6.47292e-07 0)
(-11.8635 -6.38855e-07 0)
(-11.8458 -6.30839e-07 0)
(-11.8281 -6.22609e-07 0)
(-11.8105 -6.14633e-07 0)
(-11.7928 -6.06709e-07 0)
(-11.7753 -5.98885e-07 0)
(-11.7577 -5.91111e-07 0)
(-11.7402 -5.83427e-07 0)
(-11.7227 -5.75787e-07 0)
(-11.7053 -5.68393e-07 0)
(-11.6879 -5.60825e-07 0)
(-11.6706 -5.53633e-07 0)
(-11.6533 -5.45983e-07 0)
(-11.6341 -5.3672e-07 0)
(-11.6133 -5.27989e-07 0)
(-11.5928 -5.20136e-07 0)
(-11.5726 -5.12499e-07 0)
(-11.5527 -5.04897e-07 0)
(-11.5331 -4.97488e-07 0)
(-11.5138 -4.90069e-07 0)
(-11.4947 -4.83075e-07 0)
(-11.476 -4.76023e-07 0)
(-11.4575 -4.69118e-07 0)
(-11.4393 -4.62529e-07 0)
(-11.4213 -4.56044e-07 0)
(-11.4036 -4.49673e-07 0)
(-11.3861 -4.43524e-07 0)
(-11.3689 -4.37572e-07 0)
(-11.3518 -4.31523e-07 0)
(-11.3351 -4.25862e-07 0)
(-11.3185 -4.20162e-07 0)
(-11.3022 -4.14703e-07 0)
(-11.2861 -4.09284e-07 0)
(-11.2702 -4.04036e-07 0)
(-11.2544 -3.98822e-07 0)
(-11.239 -3.93799e-07 0)
(-11.2236 -3.88942e-07 0)
(-11.2086 -3.84115e-07 0)
(-11.1936 -3.79473e-07 0)
(-11.1789 -3.7464e-07 0)
(-11.1643 -3.7025e-07 0)
(-11.1499 -3.65797e-07 0)
(-11.1356 -3.61396e-07 0)
(-11.1216 -3.57117e-07 0)
(-11.1077 -3.53108e-07 0)
(-11.094 -3.49007e-07 0)
(-11.0804 -3.45012e-07 0)
(-11.067 -3.41006e-07 0)
(-11.0537 -3.37167e-07 0)
(-11.0406 -3.3341e-07 0)
(-11.0276 -3.2968e-07 0)
(-11.0148 -3.26057e-07 0)
(-11.0021 -3.22502e-07 0)
(-10.9896 -3.19042e-07 0)
(-10.9771 -3.15661e-07 0)
(-10.9649 -3.12247e-07 0)
(-10.9527 -3.08965e-07 0)
(-10.9407 -3.0581e-07 0)
(-10.9288 -3.02587e-07 0)
(-10.917 -2.99547e-07 0)
(-10.9053 -2.96449e-07 0)
(-10.8938 -2.93525e-07 0)
(-10.8824 -2.90566e-07 0)
(-10.8711 -2.87757e-07 0)
(-10.8599 -2.84782e-07 0)
(-10.8488 -2.82052e-07 0)
(-10.8378 -2.7932e-07 0)
(-10.827 -2.76628e-07 0)
(-10.8161 -2.73952e-07 0)
(-10.8055 -2.71423e-07 0)
(-10.7949 -2.68786e-07 0)
(-10.7845 -2.66382e-07 0)
(-10.7741 -2.63841e-07 0)
(-10.7638 -2.61465e-07 0)
(-10.7536 -2.58968e-07 0)
(-10.7436 -2.56733e-07 0)
(-10.7335 -2.54345e-07 0)
(-10.7237 -2.52183e-07 0)
(-10.7138 -2.49815e-07 0)
(-10.7041 -2.47821e-07 0)
(-10.6944 -2.45605e-07 0)
(-10.6849 -2.43575e-07 0)
(-10.6753 -2.41408e-07 0)
(-10.666 -2.39576e-07 0)
(-10.6566 -2.3739e-07 0)
(-10.6475 -2.3561e-07 0)
(-10.6382 -2.33505e-07 0)
(-10.6292 -2.31765e-07 0)
(-10.62 -2.29787e-07 0)
(-10.6112 -2.27978e-07 0)
(-10.6022 -2.2608e-07 0)
(-10.5935 -2.24392e-07 0)
(-10.5846 -2.22655e-07 0)
(-10.5761 -2.21014e-07 0)
(-10.5673 -2.19431e-07 0)
(-10.5589 -2.17692e-07 0)
(-10.5503 -2.16552e-07 0)
(-10.542 -2.14401e-07 0)
(-10.5335 -2.14476e-07 0)
(-10.5252 -2.10569e-07 0)
(-10.5171 -2.14395e-07 0)
(-10.5084 -2.04196e-07 0)
(-10.5011 -2.20102e-07 0)
(-10.4912 -1.8917e-07 0)
(-10.4864 -2.37222e-07 0)
(-10.4725 -1.59619e-07 0)
(-10.4741 -2.11523e-07 0)
(-10.4556 -2.43473e-07 0)
)
;
    }
    symmetry
    {
        type            symmetryPlane;
    }
    frontAndBack
    {
        type            empty;
    }
}


// ************************************************************************* //
