/*--------------------------------*- C++ -*----------------------------------*\
| =========                 |                                                 |
| \\      /  F ield         | OpenFOAM: The Open Source CFD Toolbox           |
|  \\    /   O peration     | Version:  v2012                                 |
|   \\  /    A nd           | Website:  www.openfoam.com                      |
|    \\/     M anipulation  |                                                 |
\*---------------------------------------------------------------------------*/
FoamFile
{
    version     2.0;
    format      ascii;
    class       volScalarField;
    location    "38";
    object      yPlus;
}
// * * * * * * * * * * * * * * * * * * * * * * * * * * * * * * * * * * * * * //

dimensions      [0 0 0 0 0 0 0];


internalField   uniform 0;

boundaryField
{
    inlet
    {
        type            calculated;
        value           uniform 0;
    }
    outlet
    {
        type            calculated;
        value           uniform 0;
    }
    topWall
    {
        type            calculated;
        value           nonuniform List<scalar> 
545
(
0.149025
0.257009
0.329717
0.387564
0.436531
0.47937
0.517628
0.55228
0.583988
0.613228
0.640358
0.665652
0.689332
0.711574
0.732527
0.752312
0.771036
0.788788
0.805646
0.82168
0.836949
0.851508
0.865403
0.87868
0.891376
0.903526
0.915164
0.926318
0.937016
0.947283
0.957141
0.966612
0.975716
0.984471
0.992893
1.001
1.00881
1.01633
1.02357
1.03055
1.03729
1.04378
1.05005
1.0561
1.06193
1.06757
1.07302
1.07828
1.08336
1.08827
1.09302
1.09761
1.10205
1.10635
1.1105
1.11452
1.11842
1.12218
1.12583
1.12936
1.13278
1.13609
1.1393
1.14241
1.14542
1.14834
1.15117
1.15391
1.15657
1.15915
1.16164
1.16407
1.16639
1.16863
1.17086
1.17306
1.17525
1.17743
1.17958
1.18172
1.18384
1.18594
1.18802
1.19009
1.19215
1.19418
1.1962
1.19821
1.20019
1.20216
1.20412
1.20606
1.20799
1.2099
1.21179
1.21367
1.21537
1.21688
1.2184
1.21991
1.22142
1.22293
1.22445
1.22596
1.22747
1.22898
1.23049
1.232
1.23351
1.23502
1.23652
1.23803
1.23954
1.24104
1.24255
1.24405
1.24556
1.24706
1.24856
1.25007
1.25157
1.25307
1.25457
1.25607
1.25757
1.25906
1.26056
1.26206
1.26355
1.26505
1.26654
1.26804
1.26953
1.27102
1.27251
1.274
1.27549
1.27698
1.27847
1.27995
1.28144
1.28292
1.28441
1.28589
1.28737
1.28885
1.29033
1.29181
1.29329
1.29477
1.29624
1.29772
1.29919
1.30066
1.30213
1.3036
1.30507
1.30654
1.30801
1.30947
1.31094
1.3124
1.31386
1.31532
1.31678
1.31824
1.3197
1.32116
1.32261
1.32406
1.32551
1.32697
1.32841
1.32986
1.33131
1.33275
1.3342
1.33564
1.33708
1.33852
1.33996
1.34139
1.34283
1.34426
1.34569
1.34712
1.34855
1.34998
1.3514
1.35283
1.35425
1.35567
1.35709
1.35851
1.35992
1.36134
1.36275
1.36416
1.36557
1.36697
1.36838
1.36978
1.37118
1.37258
1.37398
1.37537
1.37677
1.37816
1.37955
1.38094
1.38232
1.38371
1.38509
1.38647
1.38784
1.38922
1.39059
1.39196
1.39333
1.3947
1.39607
1.39743
1.39879
1.40015
1.4015
1.40286
1.40421
1.40556
1.40691
1.40825
1.40959
1.41093
1.41227
1.4136
1.41494
1.41627
1.4176
1.41892
1.42024
1.42156
1.42288
1.4242
1.42551
1.42682
1.42813
1.42943
1.43073
1.43203
1.43333
1.43462
1.43591
1.4372
1.43849
1.43977
1.44105
1.44233
1.4436
1.44487
1.44614
1.44741
1.44867
1.44993
1.45119
1.45244
1.45369
1.45494
1.45618
1.45743
1.45866
1.45983
1.46093
1.46204
1.46315
1.46427
1.4654
1.46653
1.46767
1.46882
1.46998
1.47114
1.47231
1.47348
1.47467
1.47586
1.47705
1.47826
1.47946
1.48068
1.4819
1.48313
1.48437
1.48561
1.48686
1.48811
1.48937
1.49064
1.49191
1.49319
1.49447
1.49576
1.49706
1.49836
1.49966
1.50098
1.50229
1.50361
1.50494
1.50627
1.50761
1.50895
1.51029
1.51164
1.513
1.51436
1.51572
1.51708
1.51845
1.51982
1.5212
1.52258
1.52396
1.52534
1.52673
1.52812
1.52951
1.53091
1.5323
1.5337
1.5351
1.5365
1.5379
1.5393
1.5407
1.5421
1.5435
1.5449
1.5463
1.5477
1.5491
1.5505
1.5519
1.55329
1.55468
1.55607
1.55746
1.55884
1.56022
1.56159
1.56297
1.56433
1.56569
1.56705
1.5684
1.56975
1.57109
1.57242
1.57375
1.57507
1.57638
1.57768
1.57897
1.58026
1.58153
1.5828
1.58406
1.5853
1.58654
1.58776
1.58897
1.59017
1.59135
1.59253
1.59369
1.59483
1.59596
1.59708
1.59817
1.59926
1.60032
1.60138
1.60241
1.60342
1.60442
1.60539
1.60635
1.60729
1.60821
1.6091
1.60998
1.61083
1.61166
1.61247
1.61325
1.61401
1.61474
1.61545
1.61614
1.6168
1.61743
1.61804
1.61861
1.61916
1.61969
1.62018
1.62064
1.62108
1.62148
1.62186
1.6222
1.62251
1.62279
1.62303
1.62325
1.62343
1.62358
1.62369
1.62377
1.62382
1.62383
1.6238
1.62374
1.62365
1.62351
1.62335
1.62314
1.6229
1.62262
1.62231
1.62195
1.62156
1.62113
1.62067
1.62016
1.61963
1.61904
1.61843
1.61777
1.61708
1.61635
1.61558
1.61478
1.61393
1.61305
1.61213
1.61118
1.61018
1.60915
1.60809
1.60698
1.60585
1.60454
1.60307
1.60156
1.60003
1.59846
1.59688
1.59527
1.59364
1.59199
1.59032
1.58864
1.58694
1.58523
1.58351
1.58178
1.58005
1.5783
1.57655
1.57479
1.57304
1.57128
1.56952
1.56776
1.56601
1.56425
1.56251
1.56076
1.55903
1.55729
1.55558
1.55386
1.55216
1.55046
1.54878
1.54711
1.54545
1.54381
1.54218
1.54056
1.53897
1.53738
1.53582
1.53427
1.53275
1.53123
1.52975
1.52827
1.52683
1.5254
1.524
1.52261
1.52125
1.51991
1.5186
1.51731
1.51605
1.51481
1.5136
1.51241
1.51126
1.51012
1.50902
1.50794
1.5069
1.50587
1.50489
1.50392
1.503
1.50209
1.50122
1.50038
1.49958
1.4988
1.49806
1.49734
1.49666
1.49602
1.4954
1.49482
1.49427
1.49376
1.49328
1.49283
1.49242
1.49204
1.4917
1.49139
1.49111
1.49088
1.49067
1.4905
1.49037
1.49026
1.49021
1.49015
)
;
    }
    bottomWall
    {
        type            calculated;
        value           nonuniform List<scalar> 
449
(
0.00273872
0.00480391
0.00537766
0.00533
0.00525865
0.00516244
0.0050649
0.00497359
0.0048898
0.00481324
0.00474318
0.00467897
0.00461987
0.00456516
0.00451431
0.00446693
0.0044226
0.00438104
0.00434189
0.00430493
0.00426996
0.00423678
0.00420523
0.00417515
0.00414644
0.00411897
0.00409266
0.00406741
0.00404316
0.00401982
0.00399735
0.00397567
0.00395476
0.00393454
0.00391499
0.00389606
0.00387772
0.00385993
0.00384266
0.00382588
0.00380956
0.00379369
0.00377824
0.00376318
0.00374851
0.0037342
0.00372025
0.00370662
0.00369332
0.00368032
0.00366762
0.0036552
0.00364305
0.00363116
0.00361952
0.00360812
0.00359695
0.00358599
0.00357525
0.00356471
0.00355436
0.0035442
0.00353422
0.00352441
0.00351477
0.00350529
0.00349597
0.00348679
0.00347777
0.00346888
0.00346013
0.00345152
0.00344303
0.00343467
0.00342643
0.0034183
0.0034103
0.0034024
0.00339462
0.00338694
0.00337936
0.00337189
0.00336451
0.00335723
0.00335004
0.00334295
0.00333594
0.00332902
0.00332218
0.00331543
0.00330876
0.00330217
0.00329565
0.00328921
0.00328285
0.00327655
0.00327033
0.00326418
0.00325809
0.00325207
0.00324612
0.00324023
0.0032344
0.00322863
0.00322293
0.00321728
0.00321169
0.00320615
0.00320067
0.00319525
0.00318988
0.00318455
0.00317929
0.00317407
0.0031689
0.00316378
0.0031587
0.00315368
0.0031487
0.00314376
0.00313887
0.00313402
0.00312922
0.00312445
0.00311973
0.00311505
0.00311041
0.00310581
0.00310124
0.00309672
0.00309223
0.00308778
0.00308337
0.00307899
0.00307464
0.00307033
0.00306606
0.00306182
0.00305761
0.00305343
0.00304929
0.00304518
0.0030411
0.00303705
0.00303303
0.00302904
0.00302508
0.00302115
0.00301724
0.00301337
0.00300952
0.00300571
0.00300191
0.00299815
0.0029944
0.0029907
0.002987
0.00298335
0.0029797
0.00297609
0.0029725
0.00296894
0.0029654
0.00296188
0.00295838
0.00295492
0.00295146
0.00294804
0.00294463
0.00294125
0.00293789
0.00293455
0.00293123
0.00292811
0.00292518
0.00292223
0.00291928
0.00291633
0.00291336
0.00291039
0.0029074
0.00290441
0.00290141
0.0028984
0.00289539
0.00289236
0.00288933
0.00288629
0.00288325
0.00288019
0.00287713
0.00287405
0.00287098
0.00286789
0.0028648
0.00286169
0.00285859
0.00285547
0.00285235
0.00284922
0.00284608
0.00284294
0.00283979
0.00283663
0.00283347
0.0028303
0.00282713
0.00282394
0.00282076
0.00281756
0.00281436
0.00281116
0.00280795
0.00280473
0.0028015
0.00279828
0.00279504
0.00279181
0.00278856
0.00278532
0.00278206
0.00277881
0.00277554
0.00277228
0.00276901
0.00276573
0.00276245
0.00275917
0.00275588
0.00275259
0.00274929
0.002746
0.00274269
0.00273939
0.00273608
0.00273277
0.00272945
0.00272614
0.00272281
0.00271949
0.00271616
0.00271283
0.0027095
0.00270616
0.00270283
0.00269949
0.00269615
0.0026928
0.00268946
0.00268611
0.00268277
0.00267941
0.00267607
0.00267271
0.00266936
0.002666
0.00266265
0.00265929
0.00265594
0.00265257
0.00264922
0.00264585
0.0026425
0.00263914
0.00263578
0.00263242
0.00262906
0.00262569
0.00262234
0.00261897
0.00261562
0.00261225
0.0026089
0.00260554
0.00260219
0.00259882
0.00259547
0.00259211
0.00258876
0.00258541
0.00258206
0.0025787
0.00257536
0.00257201
0.00256866
0.00256532
0.00256197
0.00255863
0.00255529
0.00255196
0.00254862
0.00254529
0.00254195
0.00253863
0.0025353
0.00253198
0.00252865
0.00252534
0.00252202
0.00251871
0.0025154
0.0025121
0.00250879
0.0025055
0.0025022
0.00249891
0.00249561
0.00249234
0.00248905
0.00248578
0.0024825
0.00247924
0.00247596
0.00247271
0.00246944
0.0024662
0.00246294
0.0024597
0.00245645
0.00245322
0.00244998
0.00244676
0.00244352
0.00244031
0.00243709
0.00243388
0.00243067
0.00242748
0.00242428
0.00242109
0.00241791
0.00241473
0.00241155
0.00240838
0.00240522
0.00240206
0.0023989
0.00239575
0.00239261
0.00238946
0.00238633
0.0023832
0.00238008
0.00237696
0.00237385
0.00237074
0.00236765
0.00236455
0.00236146
0.00235838
0.00235531
0.00235223
0.00234918
0.00234611
0.00234273
0.00233904
0.00233542
0.00233184
0.00232832
0.00232484
0.00232142
0.00231805
0.00231473
0.00231144
0.00230822
0.00230502
0.00230188
0.00229878
0.00229572
0.0022927
0.00228972
0.00228677
0.00228388
0.002281
0.00227818
0.00227538
0.00227263
0.00226989
0.00226721
0.00226454
0.00226192
0.00225932
0.00225676
0.00225421
0.00225172
0.00224923
0.00224679
0.00224436
0.00224197
0.00223959
0.00223725
0.00223493
0.00223265
0.00223037
0.00222814
0.00222591
0.00222372
0.00222154
0.0022194
0.00221726
0.00221516
0.00221307
0.00221101
0.00220896
0.00220694
0.00220493
0.00220295
0.00220097
0.00219903
0.00219709
0.00219519
0.00219328
0.00219142
0.00218954
0.00218771
0.00218587
0.00218408
0.00218227
0.0021805
0.00217872
0.00217699
0.00217524
0.00217354
0.00217182
0.00217015
0.00216845
0.00216681
0.00216513
0.00216352
0.00216187
0.00216029
0.00215866
0.0021571
0.0021555
0.00215397
0.00215239
0.00215088
0.00214932
0.00214783
0.0021463
0.00214482
0.00214332
0.00214182
0.00214042
0.00213877
0.00213768
0.00213554
0.00213528
0.00213241
)
;
    }
    symmetry
    {
        type            symmetryPlane;
    }
    frontAndBack
    {
        type            empty;
    }
}


// ************************************************************************* //
