/*--------------------------------*- C++ -*----------------------------------*\
| =========                 |                                                 |
| \\      /  F ield         | OpenFOAM: The Open Source CFD Toolbox           |
|  \\    /   O peration     | Version:  v2012                                 |
|   \\  /    A nd           | Website:  www.openfoam.com                      |
|    \\/     M anipulation  |                                                 |
\*---------------------------------------------------------------------------*/
FoamFile
{
    version     2.0;
    format      ascii;
    class       volScalarField;
    location    "28.5";
    object      k;
}
// * * * * * * * * * * * * * * * * * * * * * * * * * * * * * * * * * * * * * //

dimensions      [0 2 -2 0 0 0 0];


internalField   nonuniform List<scalar> 
209825
(
0.00102262
0.000929648
0.000861412
0.000813008
0.00077843
0.000753086
0.000733976
0.000719173
0.000707462
0.000698011
0.000690277
0.000683853
0.000678466
0.000673896
0.00066999
0.000666624
0.000663704
0.000661156
0.000658914
0.000656942
0.000655189
0.000653637
0.000652237
0.000650996
0.000649868
0.000648864
0.000647935
0.000647114
0.000646347
0.000645675
0.000645031
0.000644471
0.000643942
0.000643475
0.000643016
0.000642623
0.000642243
0.000641921
0.000641592
0.000641323
0.000641052
0.00064083
0.000640584
0.000640402
0.00064021
0.000640036
0.000639862
0.000639729
0.000639594
0.000639505
0.000639399
0.000639304
0.000639207
0.00063915
0.000639065
0.000638991
0.000638947
0.000638865
0.000638821
0.000638793
0.000638726
0.000638721
0.000638703
0.000638774
0.000638797
0.000638896
0.000638966
0.000639106
0.000639139
0.000639257
0.000639289
0.000639402
0.000639477
0.000639634
0.00063971
0.000639872
0.000639956
0.000640133
0.000640224
0.000640416
0.000640519
0.000640738
0.000640856
0.0006411
0.00064123
0.000641502
0.000641649
0.000641965
0.000642131
0.000642521
0.00064269
0.000643241
0.000643497
0.000653751
0.000691544
0.00174501
0.00102262
0.000929648
0.000861411
0.000813004
0.000778424
0.000753078
0.000733966
0.000719162
0.000707449
0.000697997
0.000690262
0.000683837
0.000678449
0.000673879
0.000669973
0.000666606
0.000663686
0.000661138
0.000658895
0.000656923
0.00065517
0.000653618
0.000652218
0.000650976
0.000649848
0.000648843
0.000647914
0.000647093
0.000646326
0.000645654
0.00064501
0.00064445
0.000643921
0.000643453
0.000642995
0.000642602
0.000642221
0.0006419
0.000641571
0.000641301
0.000641031
0.000640808
0.000640562
0.00064038
0.000640189
0.000640015
0.00063984
0.000639707
0.000639572
0.000639483
0.000639377
0.000639282
0.000639185
0.000639128
0.000639043
0.000638969
0.000638925
0.000638843
0.000638799
0.000638771
0.000638704
0.000638699
0.000638681
0.000638752
0.000638775
0.000638874
0.000638944
0.000639084
0.000639117
0.000639235
0.000639267
0.000639379
0.000639455
0.000639612
0.000639688
0.00063985
0.000639934
0.000640111
0.000640202
0.000640394
0.000640497
0.000640715
0.000640833
0.000641078
0.000641207
0.00064148
0.000641626
0.000641942
0.000642108
0.000642498
0.000642667
0.000643218
0.000643475
0.000653747
0.000691532
0.00174603
0.00102262
0.000929648
0.000861402
0.000812985
0.000778395
0.000753041
0.000733923
0.000719113
0.000707395
0.000697939
0.000690201
0.000683773
0.000678383
0.00067381
0.000669902
0.000666534
0.000663613
0.000661063
0.00065882
0.000656847
0.000655092
0.00065354
0.000652139
0.000650896
0.000649768
0.000648763
0.000647833
0.000647012
0.000646244
0.000645572
0.000644928
0.000644367
0.000643838
0.00064337
0.000642911
0.000642518
0.000642137
0.000641816
0.000641486
0.000641216
0.000640946
0.000640723
0.000640477
0.000640294
0.000640103
0.000639929
0.000639754
0.000639621
0.000639486
0.000639397
0.000639291
0.000639195
0.000639099
0.000639042
0.000638957
0.000638883
0.000638838
0.000638756
0.000638712
0.000638684
0.000638617
0.000638612
0.000638594
0.000638664
0.000638688
0.000638786
0.000638856
0.000638996
0.000639029
0.000639147
0.000639179
0.000639291
0.000639367
0.000639524
0.000639599
0.000639761
0.000639845
0.000640022
0.000640113
0.000640305
0.000640408
0.000640627
0.000640744
0.000640989
0.000641118
0.00064139
0.000641537
0.000641853
0.000642019
0.000642409
0.000642577
0.000643128
0.000643385
0.000653697
0.00069146
0.00174806
0.00102262
0.000929648
0.000861389
0.000812954
0.000778348
0.00075298
0.000733849
0.00071903
0.000707304
0.000697842
0.000690098
0.000683666
0.000678271
0.000673695
0.000669784
0.000666414
0.00066349
0.000660938
0.000658693
0.000656718
0.000654962
0.000653408
0.000652006
0.000650763
0.000649634
0.000648628
0.000647697
0.000646875
0.000646107
0.000645434
0.000644789
0.000644228
0.000643698
0.00064323
0.000642771
0.000642377
0.000641996
0.000641674
0.000641344
0.000641074
0.000640803
0.00064058
0.000640334
0.000640151
0.000639959
0.000639785
0.00063961
0.000639477
0.000639341
0.000639252
0.000639146
0.000639051
0.000638954
0.000638896
0.000638812
0.000638737
0.000638692
0.000638611
0.000638566
0.000638538
0.000638471
0.000638466
0.000638448
0.000638518
0.000638541
0.000638639
0.000638709
0.000638849
0.000638882
0.000638999
0.000639031
0.000639143
0.000639219
0.000639376
0.000639451
0.000639613
0.000639697
0.000639874
0.000639965
0.000640157
0.000640259
0.000640478
0.000640595
0.000640839
0.000640969
0.000641241
0.000641388
0.000641703
0.000641869
0.000642258
0.000642427
0.000642978
0.000643234
0.000653607
0.000691335
0.00175041
0.00102263
0.000929647
0.000861369
0.00081291
0.00077828
0.000752892
0.000733746
0.000718913
0.000707176
0.000697704
0.000689953
0.000683514
0.000678114
0.000673533
0.000669618
0.000666243
0.000663316
0.000660762
0.000658514
0.000656537
0.000654779
0.000653223
0.00065182
0.000650575
0.000649444
0.000648437
0.000647505
0.000646682
0.000645913
0.000645239
0.000644593
0.000644032
0.000643501
0.000643032
0.000642572
0.000642178
0.000641796
0.000641474
0.000641144
0.000640873
0.000640602
0.000640378
0.000640132
0.000639949
0.000639757
0.000639582
0.000639407
0.000639274
0.000639138
0.000639048
0.000638942
0.000638846
0.000638749
0.000638692
0.000638607
0.000638532
0.000638487
0.000638405
0.000638361
0.000638333
0.000638266
0.00063826
0.000638241
0.000638311
0.000638334
0.000638432
0.000638502
0.000638641
0.000638674
0.000638791
0.000638823
0.000638935
0.00063901
0.000639167
0.000639243
0.000639404
0.000639488
0.000639664
0.000639756
0.000639947
0.00064005
0.000640268
0.000640385
0.000640629
0.000640758
0.00064103
0.000641176
0.000641491
0.000641657
0.000642046
0.000642214
0.000642765
0.000643021
0.000653479
0.000691158
0.00175307
0.00102263
0.000929647
0.000861344
0.000812853
0.000778193
0.00075278
0.000733611
0.000718761
0.00070701
0.000697526
0.000689764
0.000683317
0.00067791
0.000673323
0.000669402
0.000666023
0.000663091
0.000660533
0.000658282
0.000656302
0.000654542
0.000652984
0.000651578
0.000650331
0.000649198
0.00064819
0.000647257
0.000646432
0.000645662
0.000644986
0.00064434
0.000643777
0.000643245
0.000642776
0.000642315
0.000641921
0.000641538
0.000641215
0.000640884
0.000640613
0.000640341
0.000640117
0.00063987
0.000639687
0.000639494
0.000639319
0.000639144
0.00063901
0.000638874
0.000638784
0.000638677
0.000638581
0.000638484
0.000638426
0.000638341
0.000638266
0.000638221
0.00063814
0.000638094
0.000638066
0.000637999
0.000637993
0.000637974
0.000638043
0.000638065
0.000638163
0.000638233
0.000638372
0.000638404
0.000638522
0.000638553
0.000638665
0.00063874
0.000638897
0.000638972
0.000639133
0.000639217
0.000639393
0.000639484
0.000639675
0.000639778
0.000639995
0.000640113
0.000640356
0.000640485
0.000640757
0.000640903
0.000641217
0.000641382
0.000641771
0.000641939
0.000642489
0.000642745
0.000653313
0.000690929
0.00175596
0.00102264
0.000929646
0.000861313
0.000812783
0.000778086
0.000752641
0.000733446
0.000718574
0.000706805
0.000697307
0.000689533
0.000683075
0.000677658
0.000673064
0.000669136
0.000665751
0.000662814
0.000660252
0.000657996
0.000656013
0.000654249
0.000652688
0.00065128
0.00065003
0.000648896
0.000647885
0.00064695
0.000646124
0.000645352
0.000644675
0.000644027
0.000643464
0.000642931
0.00064246
0.000641998
0.000641603
0.000641219
0.000640896
0.000640564
0.000640292
0.00064002
0.000639795
0.000639547
0.000639363
0.00063917
0.000638995
0.000638819
0.000638685
0.000638548
0.000638458
0.000638351
0.000638255
0.000638157
0.000638099
0.000638014
0.000637939
0.000637893
0.000637812
0.000637766
0.000637738
0.000637671
0.000637664
0.000637644
0.000637713
0.000637734
0.000637832
0.000637902
0.00063804
0.000638072
0.000638189
0.00063822
0.000638332
0.000638407
0.000638563
0.000638638
0.000638799
0.000638882
0.000639058
0.000639149
0.00063934
0.000639442
0.00063966
0.000639777
0.00064002
0.000640149
0.00064042
0.000640565
0.000640879
0.000641044
0.000641432
0.000641599
0.00064215
0.000642406
0.00065311
0.000690647
0.00175896
0.00102265
0.000929646
0.000861276
0.0008127
0.000777959
0.000752475
0.00073325
0.000718352
0.000706562
0.000697045
0.000689256
0.000682786
0.000677359
0.000672755
0.000668819
0.000665427
0.000662484
0.000659916
0.000657656
0.000655668
0.0006539
0.000652336
0.000650924
0.000649672
0.000648535
0.000647521
0.000646585
0.000645756
0.000644982
0.000644304
0.000643655
0.00064309
0.000642555
0.000642083
0.000641621
0.000641224
0.000640839
0.000640515
0.000640183
0.000639909
0.000639636
0.000639411
0.000639163
0.000638978
0.000638784
0.000638609
0.000638432
0.000638297
0.00063816
0.000638069
0.000637962
0.000637866
0.000637767
0.000637709
0.000637623
0.000637548
0.000637502
0.00063742
0.000637374
0.000637346
0.000637279
0.000637272
0.000637251
0.000637319
0.00063734
0.000637437
0.000637506
0.000637644
0.000637675
0.000637792
0.000637824
0.000637935
0.000638009
0.000638165
0.00063824
0.000638401
0.000638484
0.000638659
0.00063875
0.000638941
0.000639042
0.000639259
0.000639376
0.000639618
0.000639747
0.000640017
0.000640163
0.000640476
0.000640641
0.000641028
0.000641194
0.000641744
0.000642
0.000652869
0.000690312
0.00176186
0.00102266
0.000929646
0.000861233
0.000812603
0.000777811
0.000752283
0.000733021
0.000718093
0.000706279
0.000696742
0.000688935
0.00068245
0.00067701
0.000672395
0.00066845
0.000665049
0.0006621
0.000659525
0.000657259
0.000655266
0.000653494
0.000651925
0.00065051
0.000649254
0.000648114
0.000647098
0.000646159
0.000645328
0.000644552
0.000643872
0.000643221
0.000642654
0.000642118
0.000641645
0.000641181
0.000640783
0.000640397
0.000640071
0.000639738
0.000639464
0.00063919
0.000638964
0.000638714
0.000638529
0.000638335
0.000638159
0.000637981
0.000637846
0.000637708
0.000637617
0.000637508
0.000637412
0.000637313
0.000637254
0.000637169
0.000637093
0.000637047
0.000636965
0.000636918
0.00063689
0.000636823
0.000636815
0.000636793
0.00063686
0.00063688
0.000636977
0.000637046
0.000637183
0.000637214
0.00063733
0.000637361
0.000637473
0.000637546
0.000637702
0.000637777
0.000637937
0.000638019
0.000638194
0.000638285
0.000638475
0.000638576
0.000638793
0.000638909
0.000639151
0.000639279
0.000639549
0.000639694
0.000640007
0.000640171
0.000640557
0.000640722
0.000641272
0.000641528
0.000652592
0.000689924
0.00176433
0.00102267
0.000929646
0.000861185
0.000812493
0.000777643
0.000752065
0.000732761
0.000717798
0.000705955
0.000696394
0.000688568
0.000682066
0.000676612
0.000671984
0.000668028
0.000664618
0.00066166
0.000659078
0.000656806
0.000654807
0.000653029
0.000651456
0.000650037
0.000648777
0.000647633
0.000646614
0.000645672
0.000644838
0.00064406
0.000643377
0.000642724
0.000642155
0.000641618
0.000641143
0.000640677
0.000640278
0.00063989
0.000639564
0.000639229
0.000638954
0.000638679
0.000638452
0.000638202
0.000638015
0.00063782
0.000637644
0.000637466
0.000637329
0.000637191
0.000637098
0.00063699
0.000636893
0.000636794
0.000636734
0.000636648
0.000636572
0.000636525
0.000636444
0.000636396
0.000636368
0.000636301
0.000636292
0.000636268
0.000636335
0.000636354
0.00063645
0.000636519
0.000636656
0.000636686
0.000636802
0.000636832
0.000636943
0.000637017
0.000637171
0.000637246
0.000637406
0.000637488
0.000637663
0.000637753
0.000637942
0.000638043
0.000638259
0.000638375
0.000638616
0.000638744
0.000639013
0.000639158
0.000639469
0.000639633
0.000640018
0.000640183
0.000640732
0.000640988
0.000652278
0.000689482
0.00176592
0.00102268
0.000929645
0.000861131
0.000812371
0.000777454
0.000751819
0.000732468
0.000717466
0.000705591
0.000696003
0.000688155
0.000681633
0.000676163
0.000671521
0.000667553
0.000664132
0.000661164
0.000658574
0.000656294
0.000654289
0.000652505
0.000650927
0.000649502
0.000648239
0.000647091
0.000646068
0.000645122
0.000644286
0.000643505
0.00064282
0.000642164
0.000641593
0.000641053
0.000640576
0.000640109
0.000639708
0.000639319
0.000638991
0.000638655
0.000638379
0.000638102
0.000637874
0.000637623
0.000637436
0.00063724
0.000637062
0.000636883
0.000636747
0.000636607
0.000636514
0.000636405
0.000636307
0.000636207
0.000636147
0.000636061
0.000635984
0.000635937
0.000635855
0.000635807
0.000635778
0.000635711
0.000635702
0.000635677
0.000635742
0.00063576
0.000635856
0.000635925
0.000636061
0.000636089
0.000636205
0.000636235
0.000636346
0.000636419
0.000636573
0.000636647
0.000636806
0.000636888
0.000637062
0.000637152
0.000637341
0.000637442
0.000637656
0.000637772
0.000638013
0.00063814
0.000638408
0.000638552
0.000638863
0.000639026
0.00063941
0.000639573
0.000640122
0.000640379
0.000651927
0.000688986
0.001766
0.00102269
0.000929646
0.000861072
0.000812234
0.000777244
0.000751545
0.000732142
0.000717097
0.000705186
0.000695568
0.000687694
0.000681151
0.000675662
0.000671005
0.000667023
0.00066359
0.000660612
0.000658012
0.000655724
0.000653711
0.000651921
0.000650336
0.000648907
0.000647638
0.000646486
0.000645459
0.00064451
0.00064367
0.000642886
0.000642198
0.000641539
0.000640966
0.000640423
0.000639945
0.000639476
0.000639073
0.000638682
0.000638352
0.000638015
0.000637737
0.000637459
0.00063723
0.000636978
0.000636789
0.000636592
0.000636414
0.000636234
0.000636096
0.000635955
0.000635862
0.000635752
0.000635654
0.000635553
0.000635492
0.000635406
0.000635328
0.000635281
0.000635199
0.00063515
0.000635121
0.000635054
0.000635044
0.000635017
0.000635081
0.000635098
0.000635193
0.000635261
0.000635396
0.000635424
0.00063554
0.000635569
0.000635679
0.000635752
0.000635905
0.000635979
0.000636138
0.000636219
0.000636392
0.000636482
0.00063667
0.00063677
0.000636984
0.0006371
0.000637339
0.000637466
0.000637733
0.000637877
0.000638186
0.000638348
0.000638731
0.000638894
0.000639442
0.000639699
0.000651539
0.000688436
0.00176397
0.0010227
0.000929646
0.000861007
0.000812085
0.000777013
0.000751244
0.000731782
0.000716689
0.000704738
0.000695087
0.000687186
0.000680619
0.00067511
0.000670434
0.000666437
0.000662991
0.000660001
0.000657391
0.000655094
0.000653073
0.000651275
0.000649684
0.000648249
0.000646974
0.000645817
0.000644786
0.000643832
0.000642989
0.000642201
0.00064151
0.000640849
0.000640272
0.000639727
0.000639246
0.000638775
0.00063837
0.000637977
0.000637646
0.000637307
0.000637027
0.000636748
0.000636517
0.000636264
0.000636074
0.000635876
0.000635697
0.000635516
0.000635377
0.000635235
0.00063514
0.00063503
0.000634931
0.000634829
0.000634768
0.000634681
0.000634603
0.000634555
0.000634473
0.000634423
0.000634394
0.000634327
0.000634316
0.000634287
0.00063435
0.000634365
0.00063446
0.000634528
0.000634662
0.000634689
0.000634803
0.000634833
0.000634942
0.000635014
0.000635167
0.00063524
0.000635398
0.000635479
0.000635652
0.000635741
0.000635928
0.000636028
0.000636241
0.000636356
0.000636594
0.000636721
0.000636987
0.00063713
0.000637438
0.000637599
0.000637981
0.000638142
0.00063869
0.000638948
0.000651115
0.000687829
0.00175983
0.00102272
0.000929647
0.000860937
0.000811922
0.000776761
0.000750916
0.00073139
0.000716244
0.000704249
0.000694561
0.000686629
0.000680036
0.000674504
0.00066981
0.000665796
0.000662335
0.000659332
0.000656711
0.000654403
0.000652373
0.000650567
0.000648969
0.000647527
0.000646246
0.000645084
0.000644047
0.000643089
0.000642242
0.00064145
0.000640755
0.000640091
0.000639512
0.000638964
0.00063848
0.000638006
0.000637599
0.000637204
0.000636871
0.00063653
0.000636249
0.000635968
0.000635736
0.000635481
0.000635289
0.00063509
0.00063491
0.000634728
0.000634588
0.000634445
0.000634349
0.000634237
0.000634138
0.000634036
0.000633973
0.000633886
0.000633807
0.000633758
0.000633676
0.000633625
0.000633596
0.000633529
0.000633517
0.000633486
0.000633548
0.000633561
0.000633655
0.000633723
0.000633856
0.000633881
0.000633996
0.000634024
0.000634133
0.000634204
0.000634356
0.000634429
0.000634587
0.000634667
0.000634839
0.000634927
0.000635114
0.000635213
0.000635425
0.000635539
0.000635777
0.000635903
0.000636168
0.00063631
0.000636617
0.000636777
0.000637157
0.000637317
0.000637864
0.000638124
0.000650654
0.000687166
0.00175362
0.00102273
0.000929648
0.000860861
0.000811746
0.000776488
0.000750559
0.000730963
0.00071576
0.000703717
0.000693989
0.000686023
0.000679401
0.000673845
0.00066913
0.000665097
0.00066162
0.000658603
0.000655969
0.000653651
0.000651611
0.000649796
0.000648189
0.00064674
0.000645453
0.000644284
0.000643243
0.00064228
0.000641427
0.000640632
0.000639933
0.000639265
0.000638682
0.000638131
0.000637645
0.000637169
0.000636759
0.000636362
0.000636026
0.000635683
0.0006354
0.000635117
0.000634883
0.000634627
0.000634434
0.000634233
0.000634052
0.000633869
0.000633728
0.000633583
0.000633486
0.000633374
0.000633274
0.00063317
0.000633107
0.000633019
0.00063294
0.00063289
0.000632808
0.000632756
0.000632726
0.000632659
0.000632646
0.000632613
0.000632673
0.000632685
0.000632778
0.000632845
0.000632977
0.000633001
0.000633115
0.000633143
0.000633252
0.000633322
0.000633472
0.000633545
0.000633702
0.000633782
0.000633952
0.000634041
0.000634226
0.000634325
0.000634535
0.000634649
0.000634885
0.000635011
0.000635275
0.000635416
0.000635722
0.000635881
0.00063626
0.000636418
0.000636964
0.000637226
0.000650155
0.000686444
0.00174536
0.00102275
0.000929649
0.00086078
0.000811557
0.000776195
0.000750174
0.000730503
0.000715236
0.000703142
0.000693371
0.000685368
0.000678715
0.000673132
0.000668393
0.000664341
0.000660846
0.000657814
0.000655166
0.000652836
0.000650785
0.00064896
0.000647345
0.000645888
0.000644594
0.000643418
0.000642371
0.000641402
0.000640545
0.000639745
0.000639042
0.00063837
0.000637784
0.000637229
0.00063674
0.000636261
0.000635848
0.000635448
0.00063511
0.000634765
0.00063448
0.000634195
0.00063396
0.000633702
0.000633507
0.000633305
0.000633122
0.000632938
0.000632795
0.000632649
0.000632551
0.000632437
0.000632337
0.000632232
0.000632168
0.000632079
0.000631999
0.000631949
0.000631866
0.000631813
0.000631782
0.000631715
0.000631701
0.000631666
0.000631724
0.000631735
0.000631827
0.000631894
0.000632024
0.000632047
0.00063216
0.000632187
0.000632295
0.000632365
0.000632514
0.000632587
0.000632742
0.000632822
0.000632991
0.000633079
0.000633264
0.000633362
0.000633571
0.000633684
0.000633919
0.000634044
0.000634306
0.000634447
0.000634751
0.000634909
0.000635286
0.000635443
0.000635988
0.000636252
0.000649618
0.000685663
0.00173511
0.00102277
0.000929651
0.000860694
0.000811355
0.00077588
0.000749762
0.000730008
0.000714674
0.000702523
0.000692705
0.000684662
0.000677976
0.000672364
0.0006676
0.000663526
0.000660012
0.000656963
0.000654301
0.000651957
0.000649894
0.000648059
0.000646435
0.000644969
0.000643667
0.000642484
0.000641431
0.000640456
0.000639594
0.000638788
0.000638081
0.000637405
0.000636814
0.000636256
0.000635764
0.000635281
0.000634866
0.000634463
0.000634123
0.000633775
0.000633488
0.0006332
0.000632963
0.000632703
0.000632507
0.000632303
0.000632119
0.000631933
0.000631789
0.000631642
0.000631542
0.000631427
0.000631325
0.00063122
0.000631154
0.000631065
0.000630984
0.000630933
0.00063085
0.000630796
0.000630765
0.000630697
0.000630682
0.000630645
0.000630701
0.00063071
0.000630801
0.000630868
0.000630996
0.000631017
0.00063113
0.000631156
0.000631264
0.000631332
0.000631481
0.000631553
0.000631707
0.000631786
0.000631954
0.000632042
0.000632225
0.000632322
0.00063253
0.000632643
0.000632876
0.000633001
0.000633261
0.000633402
0.000633703
0.000633861
0.000634236
0.000634391
0.000634936
0.000635202
0.000649043
0.000684821
0.00172291
0.00102279
0.000929654
0.000860604
0.00081114
0.000775545
0.000749321
0.00072948
0.000714072
0.000701861
0.000691992
0.000683906
0.000677183
0.00067154
0.000666749
0.000662652
0.000659118
0.000656051
0.000653372
0.000651014
0.000648939
0.000647092
0.000645457
0.000643982
0.000642672
0.000641482
0.000640421
0.00063944
0.000638572
0.000637761
0.000637049
0.000636368
0.000635774
0.000635211
0.000634715
0.00063423
0.000633811
0.000633405
0.000633062
0.000632712
0.000632422
0.000632132
0.000631893
0.000631631
0.000631432
0.000631226
0.000631042
0.000630854
0.000630708
0.000630559
0.000630458
0.000630342
0.000630239
0.000630132
0.000630066
0.000629976
0.000629894
0.000629841
0.000629759
0.000629703
0.000629671
0.000629604
0.000629588
0.000629548
0.000629602
0.000629609
0.000629698
0.000629765
0.000629891
0.000629911
0.000630023
0.000630049
0.000630155
0.000630223
0.00063037
0.000630442
0.000630595
0.000630673
0.00063084
0.000630927
0.000631109
0.000631206
0.000631412
0.000631524
0.000631756
0.00063188
0.000632139
0.000632278
0.000632578
0.000632734
0.000633107
0.00063326
0.000633804
0.000634074
0.000648427
0.000683914
0.00170883
0.00102281
0.000929657
0.000860508
0.000810912
0.000775188
0.000748852
0.000728916
0.00071343
0.000701154
0.00069123
0.000683099
0.000676337
0.000670661
0.000665841
0.000661718
0.000658162
0.000655075
0.000652379
0.000650006
0.000647917
0.000646058
0.000644412
0.000642927
0.000641608
0.00064041
0.000639341
0.000638354
0.000637479
0.000636662
0.000635944
0.000635259
0.00063466
0.000634093
0.000633593
0.000633104
0.000632682
0.000632273
0.000631927
0.000631574
0.000631281
0.000630989
0.000630748
0.000630484
0.000630282
0.000630075
0.000629889
0.000629699
0.000629552
0.000629401
0.000629298
0.00062918
0.000629077
0.000628968
0.000628901
0.00062881
0.000628727
0.000628673
0.000628591
0.000628533
0.000628501
0.000628433
0.000628416
0.000628373
0.000628425
0.000628431
0.000628519
0.000628585
0.000628709
0.000628728
0.000628838
0.000628863
0.000628969
0.000629035
0.000629182
0.000629252
0.000629405
0.000629482
0.000629648
0.000629734
0.000629915
0.000630011
0.000630216
0.000630327
0.000630557
0.00063068
0.000630937
0.000631076
0.000631374
0.000631529
0.0006319
0.00063205
0.000632594
0.000632867
0.000647769
0.00068294
0.00169294
0.00102283
0.000929661
0.000860408
0.000810672
0.000774811
0.000748355
0.000728319
0.000712749
0.000700403
0.000690421
0.000682241
0.000675436
0.000669724
0.000664873
0.000660724
0.000657143
0.000654036
0.000651322
0.000648932
0.000646828
0.000644957
0.000643299
0.000641803
0.000640474
0.000639267
0.00063819
0.000637195
0.000636314
0.000635491
0.000634767
0.000634077
0.000633473
0.000632901
0.000632397
0.000631904
0.000631479
0.000631066
0.000630716
0.000630361
0.000630065
0.00062977
0.000629526
0.00062926
0.000629056
0.000628847
0.000628659
0.000628467
0.000628318
0.000628166
0.00062806
0.000627941
0.000627837
0.000627727
0.000627658
0.000627566
0.000627483
0.000627428
0.000627345
0.000627286
0.000627253
0.000627184
0.000627166
0.000627121
0.00062717
0.000627174
0.000627261
0.000627326
0.000627448
0.000627465
0.000627574
0.000627598
0.000627704
0.000627769
0.000627914
0.000627984
0.000628135
0.000628211
0.000628376
0.000628461
0.000628641
0.000628736
0.000628939
0.00062905
0.000629278
0.0006294
0.000629656
0.000629793
0.000630089
0.000630243
0.000630611
0.00063076
0.000631303
0.00063158
0.000647068
0.000681896
0.0016753
0.00102285
0.000929666
0.000860303
0.00081042
0.000774413
0.000747829
0.000727686
0.000712028
0.000699608
0.000689563
0.00068133
0.000674481
0.000668731
0.000663846
0.000659668
0.000656062
0.000652933
0.000650199
0.000647791
0.000645672
0.000643786
0.000642115
0.000640608
0.000639269
0.000638052
0.000636967
0.000635964
0.000635075
0.000634246
0.000633516
0.00063282
0.000632211
0.000631634
0.000631126
0.000630628
0.000630199
0.000629782
0.00062943
0.000629071
0.000628772
0.000628474
0.000628227
0.000627959
0.000627753
0.000627541
0.000627351
0.000627157
0.000627007
0.000626852
0.000626745
0.000626624
0.000626519
0.000626407
0.000626336
0.000626244
0.00062616
0.000626103
0.00062602
0.000625959
0.000625926
0.000625857
0.000625837
0.00062579
0.000625835
0.000625838
0.000625923
0.000625987
0.000626107
0.000626122
0.000626231
0.000626254
0.000626358
0.000626422
0.000626565
0.000626635
0.000626785
0.00062686
0.000627023
0.000627108
0.000627286
0.00062738
0.000627582
0.000627691
0.000627918
0.000628039
0.000628293
0.000628429
0.000628723
0.000628875
0.000629241
0.000629388
0.000629929
0.000630212
0.00064632
0.000680778
0.00165601
0.00102288
0.000929671
0.000860194
0.000810155
0.000773996
0.000747276
0.00072702
0.000711266
0.000698767
0.000688656
0.000680368
0.000673471
0.000667679
0.000662759
0.00065855
0.000654918
0.000651764
0.000649009
0.000646583
0.000644447
0.000642546
0.000640862
0.000639342
0.000637992
0.000636765
0.000635671
0.00063466
0.000633763
0.000632926
0.00063219
0.000631488
0.000630873
0.000630291
0.000629778
0.000629276
0.000628843
0.000628422
0.000628065
0.000627703
0.000627401
0.0006271
0.000626851
0.00062658
0.000626371
0.000626156
0.000625965
0.000625769
0.000625616
0.000625459
0.00062535
0.000625228
0.000625121
0.000625007
0.000624935
0.000624842
0.000624756
0.000624698
0.000624615
0.000624552
0.000624519
0.000624448
0.000624428
0.000624378
0.00062442
0.000624421
0.000624504
0.000624568
0.000624685
0.000624699
0.000624806
0.000624828
0.000624931
0.000624994
0.000625136
0.000625204
0.000625353
0.000625427
0.000625589
0.000625673
0.000625849
0.000625943
0.000626142
0.000626251
0.000626476
0.000626596
0.000626847
0.000626983
0.000627274
0.000627425
0.000627788
0.000627933
0.000628473
0.000628761
0.000645524
0.000679579
0.00163515
0.0010229
0.000929678
0.000860081
0.000809879
0.000773557
0.000746695
0.000726318
0.000710464
0.000697882
0.000687701
0.000679352
0.000672405
0.00066657
0.000661612
0.00065737
0.000653709
0.00065053
0.000647753
0.000645307
0.000643153
0.000641236
0.000639537
0.000638005
0.000636642
0.000635405
0.000634301
0.000633281
0.000632376
0.000631531
0.000630788
0.000630079
0.000629458
0.000628871
0.000628353
0.000627846
0.000627409
0.000626983
0.000626623
0.000626257
0.000625952
0.000625646
0.000625395
0.000625121
0.000624909
0.000624692
0.000624499
0.0006243
0.000624146
0.000623986
0.000623875
0.00062375
0.000623642
0.000623527
0.000623453
0.000623359
0.000623272
0.000623212
0.000623129
0.000623064
0.00062303
0.000622959
0.000622937
0.000622884
0.000622923
0.000622922
0.000623004
0.000623066
0.00062318
0.000623193
0.000623298
0.000623319
0.000623422
0.000623483
0.000623623
0.000623691
0.000623838
0.000623912
0.000624071
0.000624154
0.000624329
0.000624422
0.000624619
0.000624727
0.00062495
0.000625069
0.000625318
0.000625452
0.000625741
0.000625891
0.000626252
0.000626393
0.000626933
0.000627227
0.000644676
0.000678296
0.00161282
0.00102293
0.000929685
0.000859965
0.000809591
0.0007731
0.000746087
0.000725583
0.000709623
0.000696951
0.000686696
0.000678285
0.000671283
0.000665402
0.000660404
0.000656128
0.000652436
0.00064923
0.000646429
0.000643962
0.000641789
0.000639855
0.000638141
0.000636594
0.00063522
0.00063397
0.000632856
0.000631826
0.000630913
0.00063006
0.00062931
0.000628594
0.000627967
0.000627373
0.00062685
0.000626338
0.000625895
0.000625466
0.000625101
0.000624731
0.000624422
0.000624113
0.000623858
0.000623582
0.000623367
0.000623147
0.000622951
0.000622751
0.000622594
0.000622432
0.000622318
0.000622192
0.000622082
0.000621965
0.000621889
0.000621794
0.000621706
0.000621644
0.000621561
0.000621494
0.000621459
0.000621387
0.000621364
0.000621308
0.000621343
0.00062134
0.00062142
0.000621482
0.000621593
0.000621603
0.000621707
0.000621727
0.000621829
0.000621888
0.000622027
0.000622093
0.000622239
0.000622312
0.00062247
0.000622552
0.000622725
0.000622817
0.000623012
0.000623118
0.000623339
0.000623457
0.000623705
0.000623837
0.000624124
0.000624271
0.00062463
0.000624769
0.000625307
0.000625608
0.00064377
0.000676922
0.00158912
0.00102296
0.000929694
0.000859845
0.000809292
0.000772622
0.000745451
0.000724813
0.000708741
0.000695976
0.000685641
0.000677164
0.000670105
0.000664175
0.000659135
0.000654822
0.000651097
0.000647863
0.000645037
0.000642547
0.000640354
0.000638402
0.000636672
0.000635111
0.000633723
0.000632461
0.000631336
0.000630296
0.000629373
0.000628512
0.000627753
0.000627031
0.000626396
0.000625797
0.000625267
0.00062475
0.000624303
0.000623868
0.000623499
0.000623125
0.000622812
0.000622499
0.000622241
0.000621961
0.000621743
0.00062152
0.000621323
0.000621119
0.00062096
0.000620795
0.000620679
0.00062055
0.000620439
0.00062032
0.000620243
0.000620146
0.000620056
0.000619993
0.000619909
0.00061984
0.000619804
0.000619731
0.000619707
0.000619649
0.00061968
0.000619675
0.000619753
0.000619813
0.000619921
0.00061993
0.000620032
0.00062005
0.000620151
0.000620209
0.000620346
0.000620411
0.000620555
0.000620627
0.000620783
0.000620864
0.000621036
0.000621126
0.00062132
0.000621425
0.000621643
0.00062176
0.000622005
0.000622136
0.00062242
0.000622566
0.000622921
0.000623058
0.000623594
0.000623904
0.000642797
0.000675455
0.00156415
0.00102298
0.000929704
0.000859721
0.000808983
0.000772126
0.000744788
0.00072401
0.000707819
0.000694955
0.000684538
0.00067599
0.000668871
0.000662889
0.000657804
0.000653452
0.000649693
0.000646429
0.000643576
0.000641063
0.000638848
0.000636877
0.00063513
0.000633553
0.000632151
0.000630876
0.000629739
0.000628689
0.000627756
0.000626886
0.000626119
0.000625388
0.000624747
0.00062414
0.000623605
0.000623082
0.000622629
0.000622189
0.000621816
0.000621437
0.00062112
0.000620803
0.000620542
0.000620258
0.000620037
0.000619811
0.000619611
0.000619404
0.000619243
0.000619075
0.000618956
0.000618826
0.000618713
0.000618592