/*--------------------------------*- C++ -*----------------------------------*\
| =========                 |                                                 |
| \\      /  F ield         | OpenFOAM: The Open Source CFD Toolbox           |
|  \\    /   O peration     | Version:  v2012                                 |
|   \\  /    A nd           | Website:  www.openfoam.com                      |
|    \\/     M anipulation  |                                                 |
\*---------------------------------------------------------------------------*/
FoamFile
{
    version     2.0;
    format      ascii;
    class       volScalarField;
    location    "28.5";
    object      yPlus;
}
// * * * * * * * * * * * * * * * * * * * * * * * * * * * * * * * * * * * * * //

dimensions      [0 0 0 0 0 0 0];


internalField   uniform 0;

boundaryField
{
    inlet
    {
        type            calculated;
        value           uniform 0;
    }
    outlet
    {
        type            calculated;
        value           uniform 0;
    }
    topWall
    {
        type            calculated;
        value           nonuniform List<scalar> 
545
(
0.110889
0.191215
0.245308
0.288355
0.324798
0.356685
0.385166
0.410968
0.434581
0.456362
0.476574
0.495425
0.513076
0.529659
0.545286
0.560046
0.574018
0.587269
0.599857
0.611832
0.62324
0.634121
0.644509
0.654438
0.663935
0.673028
0.68174
0.690092
0.698106
0.705799
0.713188
0.72029
0.727118
0.733687
0.740008
0.746095
0.751957
0.757606
0.763051
0.768301
0.773364
0.77825
0.782965
0.787517
0.791912
0.796158
0.800259
0.804223
0.808054
0.811757
0.815339
0.818803
0.822154
0.825396
0.828533
0.83157
0.83451
0.837356
0.840112
0.842782
0.845368
0.847873
0.8503
0.852652
0.854932
0.857142
0.859284
0.861361
0.863374
0.865327
0.867222
0.869059
0.870818
0.87252
0.874208
0.875883
0.877544
0.879193
0.880828
0.88245
0.88406
0.885657
0.887241
0.888813
0.890372
0.89192
0.893455
0.894979
0.89649
0.89799
0.899478
0.900955
0.90242
0.903874
0.905317
0.906749
0.908039
0.909193
0.910347
0.9115
0.912653
0.913806
0.914959
0.916112
0.917264
0.918417
0.919569
0.92072
0.921872
0.923023
0.924174
0.925325
0.926475
0.927625
0.928775
0.929925
0.931074
0.932223
0.933372
0.93452
0.935668
0.936816
0.937963
0.93911
0.940257
0.941403
0.942549
0.943694
0.944839
0.945984
0.947128
0.948272
0.949415
0.950558
0.951701
0.952843
0.953984
0.955126
0.956266
0.957406
0.958546
0.959685
0.960824
0.961962
0.9631
0.964237
0.965373
0.966509
0.967645
0.968779
0.969914
0.971047
0.97218
0.973313
0.974444
0.975576
0.976706
0.977836
0.978965
0.980094
0.981222
0.982349
0.983475
0.984601
0.985726
0.98685
0.987974
0.989097
0.990219
0.99134
0.992461
0.99358
0.994699
0.995817
0.996935
0.998051
0.999167
1.00028
1.0014
1.00251
1.00362
1.00473
1.00584
1.00695
1.00806
1.00917
1.01027
1.01138
1.01248
1.01359
1.01469
1.01579
1.01689
1.01799
1.01909
1.02019
1.02129
1.02238
1.02347
1.02457
1.02566
1.02675
1.02784
1.02893
1.03002
1.0311
1.03219
1.03327
1.03436
1.03544
1.03652
1.0376
1.03867
1.03975
1.04083
1.0419
1.04297
1.04404
1.04511
1.04618
1.04725
1.04831
1.04938
1.05044
1.0515
1.05256
1.05362
1.05468
1.05574
1.05679
1.05784
1.05889
1.05994
1.06099
1.06204
1.06308
1.06413
1.06517
1.06621
1.06725
1.06829
1.06932
1.07036
1.07139
1.07242
1.07345
1.07447
1.0755
1.07652
1.07755
1.07857
1.07958
1.0806
1.08162
1.08263
1.08364
1.08465
1.08566
1.08666
1.08766
1.08867
1.08967
1.09066
1.09166
1.09265
1.09364
1.09463
1.09562
1.09661
1.09754
1.09841
1.09929
1.10018
1.10108
1.10198
1.10288
1.10379
1.10471
1.10564
1.10657
1.1075
1.10844
1.10939
1.11034
1.1113
1.11227
1.11324
1.11421
1.1152
1.11618
1.11718
1.11818
1.11918
1.12019
1.12121
1.12223
1.12326
1.12429
1.12532
1.12637
1.12741
1.12847
1.12952
1.13059
1.13166
1.13273
1.13381
1.13489
1.13597
1.13707
1.13816
1.13926
1.14037
1.14148
1.14259
1.1437
1.14483
1.14595
1.14708
1.14821
1.14935
1.15048
1.15163
1.15277
1.15392
1.15507
1.15622
1.15738
1.15854
1.1597
1.16086
1.16203
1.16319
1.16436
1.16553
1.1667
1.16788
1.16905
1.17022
1.1714
1.17257
1.17375
1.17492
1.1761
1.17727
1.17845
1.17962
1.18079
1.18196
1.18313
1.18429
1.18546
1.18662
1.18778
1.18894
1.19009
1.19124
1.19239
1.19353
1.19467
1.1958
1.19693
1.19806
1.19918
1.20029
1.2014
1.2025
1.20359
1.20468
1.20576
1.20683
1.2079
1.20895
1.21
1.21104
1.21207
1.21309
1.2141
1.2151
1.21608
1.21706
1.21803
1.21898
1.21992
1.22085
1.22177
1.22267
1.22356
1.22444
1.2253
1.22614
1.22697
1.22779
1.22859
1.22937
1.23014
1.23088
1.23162
1.23233
1.23302
1.2337
1.23436
1.23499
1.23561
1.23621
1.23679
1.23734
1.23788
1.23839
1.23888
1.23935
1.23979
1.24021
1.24061
1.24099
1.24134
1.24167
1.24197
1.24225
1.2425
1.24272
1.24292
1.2431
1.24325
1.24337
1.24346
1.24353
1.24357
1.24358
1.24357
1.24353
1.24345
1.24336
1.24323
1.24307
1.24289
1.24268
1.24244
1.24217
1.24187
1.24155
1.24119
1.24081
1.24039
1.23995
1.23948
1.23899
1.23846
1.23791
1.23732
1.23664
1.23586
1.23505
1.23422
1.23335
1.23246
1.23155
1.23062
1.22966
1.22869
1.2277
1.22669
1.22567
1.22464
1.22359
1.22253
1.22146
1.22038
1.21929
1.2182
1.2171
1.21599
1.21488
1.21377
1.21266
1.21154
1.21042
1.2093
1.20819
1.20707
1.20596
1.20485
1.20374
1.20264
1.20154
1.20045
1.19937
1.19829
1.19722
1.19616
1.19511
1.19406
1.19303
1.19201
1.191
1.18999
1.18901
1.18803
1.18707
1.18612
1.18518
1.18426
1.18335
1.18246
1.18158
1.18072
1.17987
1.17905
1.17824
1.17744
1.17667
1.17591
1.17517
1.17445
1.17375
1.17306
1.1724
1.17176
1.17114
1.17054
1.16996
1.1694
1.16886
1.16834
1.16785
1.16737
1.16692
1.1665
1.16609
1.16571
1.16535
1.16501
1.1647
1.16441
1.16414
1.1639
1.16369
1.16349
1.16332
1.16318
1.16305
1.16296
1.16288
1.16284
1.1628
)
;
    }
    bottomWall
    {
        type            calculated;
        value           nonuniform List<scalar> 
449
(
0.139439
0.0889604
0.0758238
0.0694745
0.0653295
0.0622777
0.059936
0.058221
0.0572745
0.05752
0.0604307
0.0644451
0.0672918
0.0688927
0.0697433
0.0701885
0.0703856
0.0704165
0.0703313
0.0701807
0.0699834
0.0697603
0.0695243
0.0692834
0.0690424
0.0688043
0.0685704
0.0683422
0.0681203
0.0679051
0.0676965
0.0674945
0.0672989
0.0671094
0.066926
0.066748
0.0665754
0.0664079
0.0662454
0.0660876
0.0659343
0.0657853
0.0656404
0.0654994
0.0653621
0.0652284
0.065098
0.0649709
0.064847
0.0647257
0.0646068
0.06449
0.0643752
0.0642626
0.064152
0.0640435
0.063937
0.0638324
0.0637298
0.063629
0.06353
0.0634327
0.063337
0.063243
0.0631506
0.0630596
0.0629701
0.062882
0.0627954
0.06271
0.0626257
0.0625427
0.0624609
0.0623802
0.0623008
0.0622224
0.0621451
0.0620689
0.0619937
0.0619195
0.0618462
0.0617739
0.0617025
0.0616319
0.0615623
0.0614935
0.0614256
0.0613584
0.061292
0.0612264
0.0611616
0.0610974
0.061034
0.0609713
0.0609092
0.0608478
0.0607871
0.060727
0.0606675
0.0606085
0.0605501
0.0604922
0.060435
0.0603783
0.0603221
0.0602665
0.0602114
0.0601569
0.0601028
0.0600492
0.0599961
0.0599436
0.0598914
0.0598397
0.0597885
0.0597377
0.0596874
0.0596375
0.059588
0.0595389
0.0594902
0.059442
0.0593941
0.0593466
0.0592994
0.0592527
0.0592063
0.0591603
0.0591146
0.0590693
0.0590243
0.0589797
0.0589354
0.0588914
0.0588478
0.0588044
0.0587614
0.0587187
0.0586763
0.0586342
0.0585923
0.0585508
0.0585095
0.0584685
0.0584277
0.0583873
0.0583471
0.0583072
0.0582675
0.0582281
0.0581889
0.05815
0.0581114
0.058073
0.0580349
0.057997
0.0579593
0.0579219
0.0578847
0.0578477
0.057811
0.0577744
0.0577382
0.0577021
0.0576662
0.0576306
0.0575952
0.0575599
0.0575249
0.0574901
0.0574555
0.0574211
0.0573869
0.0573548
0.0573246
0.0572942
0.0572638
0.0572332
0.0572026
0.0571718
0.0571409
0.0571099
0.0570789
0.0570477
0.0570164
0.056985
0.0569535
0.0569219
0.0568903
0.0568585
0.0568266
0.0567946
0.0567626
0.0567304
0.0566981
0.0566658
0.0566334
0.0566008
0.0565682
0.0565355
0.0565027
0.0564698
0.0564368
0.0564038
0.0563706
0.0563374
0.056304
0.0562705
0.056237
0.0562034
0.0561698
0.056136
0.0561022
0.0560683
0.0560344
0.0560003
0.0559663
0.0559321
0.0558979
0.0558636
0.0558293
0.0557949
0.0557604
0.0557259
0.0556914
0.0556568
0.0556221
0.0555874
0.0555527
0.0555179
0.0554831
0.0554482
0.0554133
0.0553784
0.0553434
0.0553084
0.0552733
0.0552382
0.0552031
0.055168
0.0551328
0.0550976
0.0550624
0.0550272
0.0549919
0.0549567
0.0549214
0.0548861
0.0548508
0.0548155
0.0547802
0.0547449
0.0547095
0.0546742
0.0546389
0.0546035
0.0545682
0.0545329
0.0544976
0.0544622
0.0544269
0.0543917
0.0543564
0.0543211
0.0542859
0.0542507
0.0542154
0.0541803
0.0541451
0.05411
0.0540749
0.0540398
0.0540048
0.0539697
0.0539347
0.0538998
0.0538648
0.0538299
0.0537951
0.0537603
0.0537255
0.0536908
0.0536561
0.0536214
0.0535868
0.0535523
0.0535178
0.0534833
0.0534489
0.0534146
0.0533803
0.0533461
0.0533119
0.0532778
0.0532437
0.0532097
0.0531757
0.0531419
0.053108
0.0530743
0.0530405
0.0530069
0.0529733
0.0529398
0.0529064
0.052873
0.0528397
0.0528065
0.0527733
0.0527402
0.0527072
0.0526742
0.0526413
0.0526085
0.0525757
0.052543
0.0525104
0.0524779
0.0524454
0.052413
0.0523806
0.0523484
0.0523162
0.0522841
0.052252
0.05222
0.0521881
0.0521563
0.0521246
0.0520929
0.0520613
0.0520298
0.0519984
0.051967
0.0519358
0.0519046
0.0518735
0.0518425
0.0518115
0.0517806
0.0517498
0.0517191
0.0516885
0.0516579
0.0516274
0.051597
0.0515667
0.0515365
0.0515064
0.0514763
0.0514463
0.0514164
0.0513866
0.0513568
0.0513238
0.051288
0.0512528
0.0512182
0.0511842
0.0511506
0.0511177
0.0510852
0.0510533
0.0510218
0.0509908
0.0509603
0.0509302
0.0509005
0.0508713
0.0508425
0.0508141
0.050786
0.0507584
0.0507311
0.0507043
0.0506777
0.0506515
0.0506255
0.0506
0.0505747
0.0505498
0.0505252
0.0505009
0.0504768
0.0504531
0.0504296
0.0504064
0.0503834
0.0503607
0.0503383
0.0503161
0.0502942
0.0502725
0.050251
0.0502298
0.0502088
0.050188
0.0501674
0.0501471
0.0501269
0.0501069
0.0500871
0.0500676
0.0500482
0.0500291
0.0500101
0.0499913
0.0499727
0.0499542
0.0499359
0.0499178
0.0498998
0.049882
0.0498643
0.0498469
0.0498294
0.0498123
0.0497952
0.0497783
0.0497614
0.0497449
0.0497283
0.049712
0.0496957
0.0496797
0.0496636
0.0496479
0.049632
0.0496166
0.0496009
0.0495857
0.0495703
0.0495554
0.0495401
0.0495254
0.0495104
0.0494958
0.049481
0.0494666
0.049452
0.0494376
0.0494234
0.0494086
0.0493957
0.0493786
0.0493703
0.049345
0.0493509
0.0493169
)
;
    }
    symmetry
    {
        type            symmetryPlane;
    }
    frontAndBack
    {
        type            empty;
    }
}


// ************************************************************************* //
