/*--------------------------------*- C++ -*----------------------------------*\
| =========                 |                                                 |
| \\      /  F ield         | OpenFOAM: The Open Source CFD Toolbox           |
|  \\    /   O peration     | Version:  v2012                                 |
|   \\  /    A nd           | Website:  www.openfoam.com                      |
|    \\/     M anipulation  |                                                 |
\*---------------------------------------------------------------------------*/
FoamFile
{
    version     2.0;
    format      ascii;
    class       volVectorField;
    location    "55.5";
    object      wallShearStress;
}
// * * * * * * * * * * * * * * * * * * * * * * * * * * * * * * * * * * * * * //

dimensions      [0 2 -2 0 0 0 0];


internalField   uniform (0 0 0);

boundaryField
{
    inlet
    {
        type            calculated;
        value           uniform (0 0 0);
    }
    outlet
    {
        type            calculated;
        value           uniform (0 0 0);
    }
    topWall
    {
        type            calculated;
        value           nonuniform List<vector> 
545
(
(1.48729e-08 -1.04692e-08 0)
(1.48661e-08 -2.9289e-08 0)
(1.48523e-08 -4.88572e-08 0)
(1.48319e-08 -6.78516e-08 0)
(1.48057e-08 -8.60247e-08 0)
(1.47745e-08 -1.03608e-07 0)
(1.47385e-08 -1.2075e-07 0)
(1.46983e-08 -1.37441e-07 0)
(1.46541e-08 -1.53642e-07 0)
(1.46064e-08 -1.69353e-07 0)
(1.45555e-08 -1.84595e-07 0)
(1.45018e-08 -1.99383e-07 0)
(1.44456e-08 -2.1373e-07 0)
(1.43871e-08 -2.27642e-07 0)
(1.43267e-08 -2.41131e-07 0)
(1.42645e-08 -2.54209e-07 0)
(1.42009e-08 -2.66885e-07 0)
(1.41361e-08 -2.79172e-07 0)
(1.40702e-08 -2.91079e-07 0)
(1.40034e-08 -3.02618e-07 0)
(1.3936e-08 -3.13799e-07 0)
(1.3868e-08 -3.24632e-07 0)
(1.37997e-08 -3.35128e-07 0)
(1.37311e-08 -3.45296e-07 0)
(1.36624e-08 -3.55147e-07 0)
(1.35938e-08 -3.64691e-07 0)
(1.35253e-08 -3.73935e-07 0)
(1.3457e-08 -3.82891e-07 0)
(1.3389e-08 -3.91566e-07 0)
(1.33214e-08 -3.9997e-07 0)
(1.32542e-08 -4.08112e-07 0)
(1.31877e-08 -4.15998e-07 0)
(1.31217e-08 -4.23638e-07 0)
(1.30563e-08 -4.3104e-07 0)
(1.29917e-08 -4.3821e-07 0)
(1.29278e-08 -4.45157e-07 0)
(1.28646e-08 -4.51888e-07 0)
(1.28023e-08 -4.58409e-07 0)
(1.27409e-08 -4.64728e-07 0)
(1.26803e-08 -4.70851e-07 0)
(1.26206e-08 -4.76784e-07 0)
(1.25619e-08 -4.82534e-07 0)
(1.25041e-08 -4.88106e-07 0)
(1.24472e-08 -4.93506e-07 0)
(1.23912e-08 -4.9874e-07 0)
(1.23363e-08 -5.03814e-07 0)
(1.22823e-08 -5.08732e-07 0)
(1.22293e-08 -5.13499e-07 0)
(1.21772e-08 -5.18121e-07 0)
(1.21262e-08 -5.22602e-07 0)
(1.20761e-08 -5.26946e-07 0)
(1.2027e-08 -5.31159e-07 0)
(1.19788e-08 -5.35244e-07 0)
(1.19316e-08 -5.39205e-07 0)
(1.18854e-08 -5.43048e-07 0)
(1.18401e-08 -5.46774e-07 0)
(1.17957e-08 -5.50388e-07 0)
(1.17523e-08 -5.53894e-07 0)
(1.17098e-08 -5.57295e-07 0)
(1.16682e-08 -5.60595e-07 0)
(1.16275e-08 -5.63796e-07 0)
(1.15877e-08 -5.66902e-07 0)
(1.15488e-08 -5.69916e-07 0)
(1.15107e-08 -5.72841e-07 0)
(1.14735e-08 -5.75679e-07 0)
(1.14371e-08 -5.78434e-07 0)
(1.14015e-08 -5.81107e-07 0)
(1.13668e-08 -5.83702e-07 0)
(1.13328e-08 -5.86221e-07 0)
(1.12996e-08 -5.88666e-07 0)
(1.12672e-08 -5.91041e-07 0)
(1.12357e-08 -5.93342e-07 0)
(1.12052e-08 -5.95555e-07 0)
(1.11751e-08 -5.97698e-07 0)
(1.11453e-08 -5.99816e-07 0)
(1.11157e-08 -6.01922e-07 0)
(1.10862e-08 -6.04015e-07 0)
(1.10567e-08 -6.06094e-07 0)
(1.10272e-08 -6.08157e-07 0)
(1.09978e-08 -6.10204e-07 0)
(1.09685e-08 -6.12237e-07 0)
(1.09393e-08 -6.14256e-07 0)
(1.091e-08 -6.16259e-07 0)
(1.08809e-08 -6.18249e-07 0)
(1.08518e-08 -6.20223e-07 0)
(1.08228e-08 -6.22184e-07 0)
(1.07938e-08 -6.2413e-07 0)
(1.0765e-08 -6.26063e-07 0)
(1.07361e-08 -6.27981e-07 0)
(1.07074e-08 -6.29885e-07 0)
(1.06787e-08 -6.31776e-07 0)
(1.06501e-08 -6.33653e-07 0)
(1.06215e-08 -6.35516e-07 0)
(1.05931e-08 -6.37365e-07 0)
(1.05644e-08 -6.39205e-07 0)
(1.05372e-08 -6.41012e-07 0)
(1.05121e-08 -6.42665e-07 0)
(1.04878e-08 -6.44161e-07 0)
(1.04644e-08 -6.45616e-07 0)
(1.04411e-08 -6.47076e-07 0)
(1.04177e-08 -6.48549e-07 0)
(1.03943e-08 -6.50024e-07 0)
(1.03708e-08 -6.51496e-07 0)
(1.03472e-08 -6.52966e-07 0)
(1.03235e-08 -6.54438e-07 0)
(1.02997e-08 -6.55909e-07 0)
(1.02758e-08 -6.57381e-07 0)
(1.02518e-08 -6.58853e-07 0)
(1.02277e-08 -6.60325e-07 0)
(1.02035e-08 -6.61796e-07 0)
(1.01793e-08 -6.63268e-07 0)
(1.01549e-08 -6.6474e-07 0)
(1.01305e-08 -6.66212e-07 0)
(1.01059e-08 -6.67683e-07 0)
(1.00813e-08 -6.69154e-07 0)
(1.00565e-08 -6.70626e-07 0)
(1.00317e-08 -6.72097e-07 0)
(1.00068e-08 -6.73568e-07 0)
(9.98178e-09 -6.75039e-07 0)
(9.95667e-09 -6.76509e-07 0)
(9.93146e-09 -6.77979e-07 0)
(9.90616e-09 -6.79449e-07 0)
(9.88076e-09 -6.80919e-07 0)
(9.85528e-09 -6.82388e-07 0)
(9.82969e-09 -6.83857e-07 0)
(9.80401e-09 -6.85326e-07 0)
(9.77824e-09 -6.86794e-07 0)
(9.75237e-09 -6.88262e-07 0)
(9.72641e-09 -6.8973e-07 0)
(9.70035e-09 -6.91197e-07 0)
(9.6742e-09 -6.92663e-07 0)
(9.64795e-09 -6.94129e-07 0)
(9.62161e-09 -6.95594e-07 0)
(9.59517e-09 -6.97059e-07 0)
(9.56864e-09 -6.98523e-07 0)
(9.54201e-09 -6.99987e-07 0)
(9.51529e-09 -7.0145e-07 0)
(9.48847e-09 -7.02912e-07 0)
(9.46156e-09 -7.04374e-07 0)
(9.43456e-09 -7.05835e-07 0)
(9.40745e-09 -7.07295e-07 0)
(9.38026e-09 -7.08754e-07 0)
(9.35297e-09 -7.10213e-07 0)
(9.32558e-09 -7.1167e-07 0)
(9.2981e-09 -7.13127e-07 0)
(9.27053e-09 -7.14583e-07 0)
(9.24285e-09 -7.16038e-07 0)
(9.21509e-09 -7.17492e-07 0)
(9.18723e-09 -7.18946e-07 0)
(9.15928e-09 -7.20398e-07 0)
(9.13123e-09 -7.21849e-07 0)
(9.10309e-09 -7.23299e-07 0)
(9.07485e-09 -7.24748e-07 0)
(9.04652e-09 -7.26196e-07 0)
(9.01809e-09 -7.27643e-07 0)
(8.98957e-09 -7.29089e-07 0)
(8.96096e-09 -7.30533e-07 0)
(8.93225e-09 -7.31976e-07 0)
(8.90345e-09 -7.33418e-07 0)
(8.87455e-09 -7.34859e-07 0)
(8.84556e-09 -7.36298e-07 0)
(8.81648e-09 -7.37736e-07 0)
(8.7873e-09 -7.39173e-07 0)
(8.75804e-09 -7.40609e-07 0)
(8.72867e-09 -7.42042e-07 0)
(8.69922e-09 -7.43475e-07 0)
(8.66967e-09 -7.44906e-07 0)
(8.64003e-09 -7.46335e-07 0)
(8.6103e-09 -7.47763e-07 0)
(8.58047e-09 -7.4919e-07 0)
(8.55055e-09 -7.50614e-07 0)
(8.52054e-09 -7.52037e-07 0)
(8.49044e-09 -7.53459e-07 0)
(8.46025e-09 -7.54879e-07 0)
(8.42996e-09 -7.56297e-07 0)
(8.39959e-09 -7.57713e-07 0)
(8.36912e-09 -7.59127e-07 0)
(8.33856e-09 -7.6054e-07 0)
(8.30791e-09 -7.61951e-07 0)
(8.27717e-09 -7.63359e-07 0)
(8.24634e-09 -7.64766e-07 0)
(8.21542e-09 -7.66171e-07 0)
(8.18441e-09 -7.67574e-07 0)
(8.15332e-09 -7.68975e-07 0)
(8.12213e-09 -7.70374e-07 0)
(8.09085e-09 -7.71771e-07 0)
(8.05949e-09 -7.73166e-07 0)
(8.02803e-09 -7.74559e-07 0)
(7.99649e-09 -7.75949e-07 0)
(7.96486e-09 -7.77337e-07 0)
(7.93314e-09 -7.78723e-07 0)
(7.90134e-09 -7.80107e-07 0)
(7.86944e-09 -7.81488e-07 0)
(7.83747e-09 -7.82867e-07 0)
(7.8054e-09 -7.84244e-07 0)
(7.77325e-09 -7.85618e-07 0)
(7.74101e-09 -7.8699e-07 0)
(7.70869e-09 -7.88359e-07 0)
(7.67628e-09 -7.89726e-07 0)
(7.64379e-09 -7.9109e-07 0)
(7.61121e-09 -7.92451e-07 0)
(7.57855e-09 -7.9381e-07 0)
(7.54581e-09 -7.95167e-07 0)
(7.51298e-09 -7.9652e-07 0)
(7.48007e-09 -7.97871e-07 0)
(7.44708e-09 -7.99219e-07 0)
(7.41401e-09 -8.00564e-07 0)
(7.38085e-09 -8.01907e-07 0)
(7.34762e-09 -8.03246e-07 0)
(7.3143e-09 -8.04583e-07 0)
(7.2809e-09 -8.05917e-07 0)
(7.24742e-09 -8.07247e-07 0)
(7.21386e-09 -8.08575e-07 0)
(7.18023e-09 -8.099e-07 0)
(7.14651e-09 -8.11221e-07 0)
(7.11272e-09 -8.1254e-07 0)
(7.07885e-09 -8.13855e-07 0)
(7.0449e-09 -8.15167e-07 0)
(7.01088e-09 -8.16476e-07 0)
(6.97678e-09 -8.17782e-07 0)
(6.9426e-09 -8.19084e-07 0)
(6.90835e-09 -8.20383e-07 0)
(6.87403e-09 -8.21678e-07 0)
(6.83963e-09 -8.2297e-07 0)
(6.80516e-09 -8.24259e-07 0)
(6.77061e-09 -8.25544e-07 0)
(6.73599e-09 -8.26826e-07 0)
(6.70131e-09 -8.28104e-07 0)
(6.66654e-09 -8.29378e-07 0)
(6.63171e-09 -8.30649e-07 0)
(6.59681e-09 -8.31916e-07 0)
(6.56184e-09 -8.33179e-07 0)
(6.5268e-09 -8.34439e-07 0)
(6.49169e-09 -8.35695e-07 0)
(6.45652e-09 -8.36947e-07 0)
(6.42128e-09 -8.38195e-07 0)
(6.38597e-09 -8.39439e-07 0)
(6.35059e-09 -8.40679e-07 0)
(6.31516e-09 -8.41915e-07 0)
(6.27965e-09 -8.43148e-07 0)
(6.24409e-09 -8.44376e-07 0)
(6.20846e-09 -8.456e-07 0)
(6.17276e-09 -8.4682e-07 0)
(6.13701e-09 -8.48035e-07 0)
(6.10119e-09 -8.49247e-07 0)
(6.06532e-09 -8.50454e-07 0)
(6.02938e-09 -8.51657e-07 0)
(5.99339e-09 -8.52856e-07 0)
(5.95734e-09 -8.5405e-07 0)
(5.92123e-09 -8.5524e-07 0)
(5.88507e-09 -8.56425e-07 0)
(5.84885e-09 -8.57606e-07 0)
(5.81257e-09 -8.58782e-07 0)
(5.77624e-09 -8.59954e-07 0)
(5.73986e-09 -8.61121e-07 0)
(5.70342e-09 -8.62283e-07 0)
(5.66693e-09 -8.63441e-07 0)
(5.6304e-09 -8.64594e-07 0)
(5.59381e-09 -8.65743e-07 0)
(5.55717e-09 -8.66886e-07 0)
(5.52048e-09 -8.68025e-07 0)
(5.48375e-09 -8.69158e-07 0)
(5.44697e-09 -8.70287e-07 0)
(5.41014e-09 -8.71411e-07 0)
(5.37327e-09 -8.7253e-07 0)
(5.33634e-09 -8.73644e-07 0)
(5.29944e-09 -8.74752e-07 0)
(5.26222e-09 -8.75857e-07 0)
(5.22608e-09 -8.76949e-07 0)
(5.19147e-09 -8.77986e-07 0)
(5.15737e-09 -8.78967e-07 0)
(5.1237e-09 -8.79937e-07 0)
(5.08987e-09 -8.80913e-07 0)
(5.05576e-09 -8.81897e-07 0)
(5.02134e-09 -8.82886e-07 0)
(4.98658e-09 -8.83879e-07 0)
(4.9515e-09 -8.84874e-07 0)
(4.91609e-09 -8.85873e-07 0)
(4.88034e-09 -8.86876e-07 0)
(4.84425e-09 -8.87882e-07 0)
(4.80783e-09 -8.88892e-07 0)
(4.77107e-09 -8.89905e-07 0)
(4.73396e-09 -8.90921e-07 0)
(4.69651e-09 -8.9194e-07 0)
(4.65872e-09 -8.92962e-07 0)
(4.62058e-09 -8.93986e-07 0)
(4.5821e-09 -8.95013e-07 0)
(4.54326e-09 -8.96043e-07 0)
(4.50408e-09 -8.97074e-07 0)
(4.46454e-09 -8.98108e-07 0)
(4.42465e-09 -8.99144e-07 0)
(4.3844e-09 -9.00182e-07 0)
(4.3438e-09 -9.01221e-07 0)
(4.30285e-09 -9.02262e-07 0)
(4.26153e-09 -9.03304e-07 0)
(4.21986e-09 -9.04348e-07 0)
(4.17783e-09 -9.05392e-07 0)
(4.13544e-09 -9.06437e-07 0)
(4.09269e-09 -9.07482e-07 0)
(4.04957e-09 -9.08528e-07 0)
(4.0061e-09 -9.09574e-07 0)
(3.96226e-09 -9.1062e-07 0)
(3.91806e-09 -9.11665e-07 0)
(3.8735e-09 -9.1271e-07 0)
(3.82858e-09 -9.13754e-07 0)
(3.7833e-09 -9.14797e-07 0)
(3.73765e-09 -9.15839e-07 0)
(3.69164e-09 -9.16879e-07 0)
(3.64527e-09 -9.17917e-07 0)
(3.59854e-09 -9.18954e-07 0)
(3.55144e-09 -9.19988e-07 0)
(3.50399e-09 -9.2102e-07 0)
(3.45618e-09 -9.22048e-07 0)
(3.40802e-09 -9.23074e-07 0)
(3.35949e-09 -9.24096e-07 0)
(3.31061e-09 -9.25114e-07 0)
(3.26138e-09 -9.26128e-07 0)
(3.2118e-09 -9.27138e-07 0)
(3.16187e-09 -9.28143e-07 0)
(3.11159e-09 -9.29143e-07 0)
(3.06097e-09 -9.30137e-07 0)
(3.01e-09 -9.31126e-07 0)
(2.9587e-09 -9.32108e-07 0)
(2.90705e-09 -9.33085e-07 0)
(2.85507e-09 -9.34054e-07 0)
(2.80277e-09 -9.35016e-07 0)
(2.75013e-09 -9.3597e-07 0)
(2.69717e-09 -9.36917e-07 0)
(2.64389e-09 -9.37855e-07 0)
(2.59029e-09 -9.38784e-07 0)
(2.53639e-09 -9.39704e-07 0)
(2.48217e-09 -9.40615e-07 0)
(2.42766e-09 -9.41515e-07 0)
(2.37284e-09 -9.42405e-07 0)
(2.31774e-09 -9.43284e-07 0)
(2.26234e-09 -9.44151e-07 0)
(2.20667e-09 -9.45007e-07 0)
(2.15072e-09 -9.4585e-07 0)
(2.09451e-09 -9.4668e-07 0)
(2.03803e-09 -9.47498e-07 0)
(1.9813e-09 -9.48301e-07 0)
(1.92432e-09 -9.4909e-07 0)
(1.8671e-09 -9.49864e-07 0)
(1.80964e-09 -9.50623e-07 0)
(1.75197e-09 -9.51366e-07 0)
(1.69407e-09 -9.52093e-07 0)
(1.63597e-09 -9.52803e-07 0)
(1.57768e-09 -9.53496e-07 0)
(1.51919e-09 -9.5417e-07 0)
(1.46052e-09 -9.54826e-07 0)
(1.40168e-09 -9.55463e-07 0)
(1.34269e-09 -9.5608e-07 0)
(1.28354e-09 -9.56677e-07 0)
(1.22426e-09 -9.57254e-07 0)
(1.16485e-09 -9.57808e-07 0)
(1.10532e-09 -9.58341e-07 0)
(1.04569e-09 -9.58852e-07 0)
(9.85974e-10 -9.59339e-07 0)
(9.26176e-10 -9.59802e-07 0)
(8.66311e-10 -9.60241e-07 0)
(8.06395e-10 -9.60655e-07 0)
(7.46439e-10 -9.61044e-07 0)
(6.86458e-10 -9.61406e-07 0)
(6.26467e-10 -9.61741e-07 0)
(5.6648e-10 -9.62049e-07 0)
(5.06511e-10 -9.62329e-07 0)
(4.46576e-10 -9.6258e-07 0)
(3.86691e-10 -9.62801e-07 0)
(3.26872e-10 -9.62993e-07 0)
(2.67134e-10 -9.63154e-07 0)
(2.07495e-10 -9.63283e-07 0)
(1.47971e-10 -9.63381e-07 0)
(8.85801e-11 -9.63446e-07 0)
(2.93387e-11 -9.63478e-07 0)
(-2.97349e-11 -9.63476e-07 0)
(-8.86226e-11 -9.63439e-07 0)
(-1.47306e-10 -9.63367e-07 0)
(-2.05767e-10 -9.6326e-07 0)
(-2.63985e-10 -9.63116e-07 0)
(-3.21943e-10 -9.62935e-07 0)
(-3.7962e-10 -9.62717e-07 0)
(-4.36997e-10 -9.6246e-07 0)
(-4.94054e-10 -9.62165e-07 0)
(-5.50771e-10 -9.6183e-07 0)
(-6.07127e-10 -9.61455e-07 0)
(-6.63103e-10 -9.61039e-07 0)
(-7.18677e-10 -9.60582e-07 0)
(-7.73828e-10 -9.60083e-07 0)
(-8.28537e-10 -9.59542e-07 0)
(-8.82781e-10 -9.58958e-07 0)
(-9.36539e-10 -9.58331e-07 0)
(-9.8979e-10 -9.57659e-07 0)
(-1.04251e-09 -9.56943e-07 0)
(-1.09469e-09 -9.56182e-07 0)
(-1.14629e-09 -9.55376e-07 0)
(-1.1973e-09 -9.54524e-07 0)
(-1.2477e-09 -9.53625e-07 0)
(-1.29746e-09 -9.52679e-07 0)
(-1.34656e-09 -9.51686e-07 0)
(-1.39499e-09 -9.50645e-07 0)
(-1.44272e-09 -9.49556e-07 0)
(-1.48972e-09 -9.48419e-07 0)
(-1.53599e-09 -9.47233e-07 0)
(-1.5815e-09 -9.45997e-07 0)
(-1.62622e-09 -9.44713e-07 0)
(-1.67015e-09 -9.43378e-07 0)
(-1.71325e-09 -9.41993e-07 0)
(-1.7555e-09 -9.40558e-07 0)
(-1.7969e-09 -9.39073e-07 0)
(-1.83742e-09 -9.37537e-07 0)
(-1.87704e-09 -9.3595e-07 0)
(-1.91574e-09 -9.34312e-07 0)
(-1.95351e-09 -9.32623e-07 0)
(-1.99032e-09 -9.30882e-07 0)
(-2.02617e-09 -9.29091e-07 0)
(-2.06103e-09 -9.27248e-07 0)
(-2.09489e-09 -9.25354e-07 0)
(-2.12773e-09 -9.23409e-07 0)
(-2.15954e-09 -9.21412e-07 0)
(-2.19031e-09 -9.19364e-07 0)
(-2.22001e-09 -9.17266e-07 0)
(-2.24865e-09 -9.15116e-07 0)
(-2.2762e-09 -9.12916e-07 0)
(-2.30265e-09 -9.10666e-07 0)
(-2.328e-09 -9.08366e-07 0)
(-2.35223e-09 -9.06015e-07 0)
(-2.37533e-09 -9.03615e-07 0)
(-2.3973e-09 -9.01166e-07 0)
(-2.41812e-09 -8.98669e-07 0)
(-2.4378e-09 -8.96122e-07 0)
(-2.45632e-09 -8.93529e-07 0)
(-2.47368e-09 -8.90887e-07 0)
(-2.48988e-09 -8.88199e-07 0)
(-2.5049e-09 -8.85465e-07 0)
(-2.51876e-09 -8.82685e-07 0)
(-2.53144e-09 -8.7986e-07 0)
(-2.54295e-09 -8.7699e-07 0)
(-2.55328e-09 -8.74077e-07 0)
(-2.56243e-09 -8.71122e-07 0)
(-2.57042e-09 -8.68124e-07 0)
(-2.57723e-09 -8.65084e-07 0)
(-2.58288e-09 -8.62005e-07 0)
(-2.58737e-09 -8.58886e-07 0)
(-2.59069e-09 -8.55728e-07 0)
(-2.59287e-09 -8.52533e-07 0)
(-2.5939e-09 -8.493e-07 0)
(-2.5938e-09 -8.46033e-07 0)
(-2.59255e-09 -8.42728e-07 0)
(-2.59024e-09 -8.39397e-07 0)
(-2.58659e-09 -8.35992e-07 0)
(-2.58134e-09 -8.32233e-07 0)
(-2.57445e-09 -8.28116e-07 0)
(-2.56592e-09 -8.23927e-07 0)
(-2.55592e-09 -8.19761e-07 0)
(-2.54461e-09 -8.15636e-07 0)
(-2.53208e-09 -8.11536e-07 0)
(-2.51839e-09 -8.07452e-07 0)
(-2.5036e-09 -8.03387e-07 0)
(-2.48778e-09 -7.99348e-07 0)
(-2.47098e-09 -7.95336e-07 0)
(-2.45327e-09 -7.91353e-07 0)
(-2.4347e-09 -7.87399e-07 0)
(-2.41532e-09 -7.83475e-07 0)
(-2.39518e-09 -7.79583e-07 0)
(-2.37433e-09 -7.75725e-07 0)
(-2.35281e-09 -7.71901e-07 0)
(-2.33068e-09 -7.68112e-07 0)
(-2.30795e-09 -7.6436e-07 0)
(-2.28469e-09 -7.60645e-07 0)
(-2.26091e-09 -7.56968e-07 0)
(-2.23666e-09 -7.5333e-07 0)
(-2.21197e-09 -7.49731e-07 0)
(-2.18686e-09 -7.46173e-07 0)
(-2.16137e-09 -7.42656e-07 0)
(-2.13552e-09 -7.3918e-07 0)
(-2.10933e-09 -7.35747e-07 0)
(-2.08284e-09 -7.32356e-07 0)
(-2.05606e-09 -7.29008e-07 0)
(-2.02901e-09 -7.25704e-07 0)
(-2.00172e-09 -7.22443e-07 0)
(-1.97419e-09 -7.19228e-07 0)
(-1.94645e-09 -7.16056e-07 0)
(-1.9185e-09 -7.1293e-07 0)
(-1.89038e-09 -7.0985e-07 0)
(-1.86207e-09 -7.06814e-07 0)
(-1.83361e-09 -7.03825e-07 0)
(-1.805e-09 -7.00882e-07 0)
(-1.77625e-09 -6.97986e-07 0)
(-1.74736e-09 -6.95136e-07 0)
(-1.71835e-09 -6.92333e-07 0)
(-1.68923e-09 -6.89577e-07 0)
(-1.66e-09 -6.86868e-07 0)
(-1.63066e-09 -6.84206e-07 0)
(-1.60123e-09 -6.81592e-07 0)
(-1.5717e-09 -6.79026e-07 0)
(-1.54208e-09 -6.76507e-07 0)
(-1.51238e-09 -6.74037e-07 0)
(-1.4826e-09 -6.71615e-07 0)
(-1.45274e-09 -6.6924e-07 0)
(-1.4228e-09 -6.66915e-07 0)
(-1.39278e-09 -6.64637e-07 0)
(-1.3627e-09 -6.62409e-07 0)
(-1.33254e-09 -6.60229e-07 0)
(-1.30231e-09 -6.58098e-07 0)
(-1.27201e-09 -6.56016e-07 0)
(-1.24164e-09 -6.53983e-07 0)
(-1.21121e-09 -6.51999e-07 0)
(-1.1807e-09 -6.50064e-07 0)
(-1.15013e-09 -6.48179e-07 0)
(-1.11949e-09 -6.46343e-07 0)
(-1.08879e-09 -6.44557e-07 0)
(-1.05802e-09 -6.42821e-07 0)
(-1.02718e-09 -6.41134e-07 0)
(-9.96276e-10 -6.39498e-07 0)
(-9.65306e-10 -6.37911e-07 0)
(-9.34269e-10 -6.36375e-07 0)
(-9.03168e-10 -6.34889e-07 0)
(-8.72001e-10 -6.33453e-07 0)
(-8.40769e-10 -6.32067e-07 0)
(-8.09474e-10 -6.30733e-07 0)
(-7.78115e-10 -6.29449e-07 0)
(-7.46694e-10 -6.28215e-07 0)
(-7.15211e-10 -6.27033e-07 0)
(-6.83668e-10 -6.25901e-07 0)
(-6.52065e-10 -6.24821e-07 0)
(-6.20405e-10 -6.23792e-07 0)
(-5.88689e-10 -6.22814e-07 0)
(-5.56919e-10 -6.21887e-07 0)
(-5.25095e-10 -6.21012e-07 0)
(-4.93222e-10 -6.20188e-07 0)
(-4.61299e-10 -6.19416e-07 0)
(-4.29331e-10 -6.18696e-07 0)
(-3.97319e-10 -6.18027e-07 0)
(-3.65267e-10 -6.17411e-07 0)
(-3.33176e-10 -6.16845e-07 0)
(-3.0105e-10 -6.16336e-07 0)
(-2.6889e-10 -6.15862e-07 0)
(-2.36706e-10 -6.15496e-07 0)
(-2.04478e-10 -6.14996e-07 0)
(-1.72289e-10 -6.15157e-07 0)
(-1.39876e-10 -6.13307e-07 0)
(-1.08136e-10 -6.18096e-07 0)
(-7.4209e-11 -5.99453e-07 0)
(-4.79088e-11 -6.4858e-07 0)
(-2.00765e-11 -5.66438e-07 0)
)
;
    }
    bottomWall
    {
        type            calculated;
        value           nonuniform List<vector> 
449
(
(-48.521 -0.963946 0)
(-19.7472 -0.00515409 0)
(-14.3406 -0.00113462 0)
(-12.0313 -0.000545415 0)
(-10.6254 -0.000351459 0)
(-9.63172 -0.000255968 0)
(-8.87373 -0.000198466 0)
(-8.27028 -0.0001598 0)
(-7.7749 -0.000132312 0)
(-7.35831 -0.000111967 0)
(-7.00134 -9.63686e-05 0)
(-6.69094 -8.40629e-05 0)
(-6.41781 -7.41461e-05 0)
(-6.17504 -6.60194e-05 0)
(-5.95737 -5.92631e-05 0)
(-5.76074 -5.35742e-05 0)
(-5.58196 -4.87305e-05 0)
(-5.41846 -4.4566e-05 0)
(-5.26819 -4.09549e-05 0)
(-5.12944 -3.77996e-05 0)
(-5.0008 -3.50236e-05 0)
(-4.8811 -3.25661e-05 0)
(-4.76935 -3.03783e-05 0)
(-4.66469 -2.84206e-05 0)
(-4.5664 -2.66605e-05 0)
(-4.47386 -2.50714e-05 0)
(-4.38652 -2.36308e-05 0)
(-4.30392 -2.23201e-05 0)
(-4.22563 -2.11236e-05 0)
(-4.15129 -2.00278e-05 0)
(-4.08057 -1.90213e-05 0)
(-4.0132 -1.80943e-05 0)
(-3.9489 -1.72382e-05 0)
(-3.88746 -1.64458e-05 0)
(-3.82866 -1.57106e-05 0)
(-3.77232 -1.5027e-05 0)
(-3.71828 -1.43902e-05 0)
(-3.66637 -1.37957e-05 0)
(-3.61646 -1.32398e-05 0)
(-3.56842 -1.2719e-05 0)
(-3.52214 -1.22304e-05 0)
(-3.47751 -1.17713e-05 0)
(-3.43444 -1.13392e-05 0)
(-3.39283 -1.09319e-05 0)
(-3.3526 -1.05476e-05 0)
(-3.31369 -1.01844e-05 0)
(-3.276 -9.84085e-06 0)
(-3.2395 -9.51542e-06 0)
(-3.2041 -9.20683e-06 0)
(-3.16976 -8.91388e-06 0)
(-3.13642 -8.63551e-06 0)
(-3.10404 -8.37072e-06 0)
(-3.07257 -8.11861e-06 0)
(-3.04196 -7.87836e-06 0)
(-3.01219 -7.64919e-06 0)
(-2.9832 -7.43042e-06 0)
(-2.95497 -7.2214e-06 0)
(-2.92746 -7.02153e-06 0)
(-2.90064 -6.83028e-06 0)
(-2.87449 -6.64713e-06 0)
(-2.84897 -6.47161e-06 0)
(-2.82406 -6.3033e-06 0)
(-2.79974 -6.14178e-06 0)
(-2.77598 -5.98669e-06 0)
(-2.75276 -5.83768e-06 0)
(-2.73006 -5.69441e-06 0)
(-2.70787 -5.55659e-06 0)
(-2.68615 -5.42393e-06 0)
(-2.6649 -5.29617e-06 0)
(-2.6441 -5.17307e-06 0)
(-2.62373 -5.05438e-06 0)
(-2.60378 -4.9399e-06 0)
(-2.58423 -4.82943e-06 0)
(-2.56507 -4.72276e-06 0)
(-2.54628 -4.61972e-06 0)
(-2.52786 -4.52015e-06 0)
(-2.50979 -4.42388e-06 0)
(-2.49207 -4.33076e-06 0)
(-2.47467 -4.24065e-06 0)
(-2.45759 -4.15343e-06 0)
(-2.44082 -4.06895e-06 0)
(-2.42436 -3.98712e-06 0)
(-2.40818 -3.9078e-06 0)
(-2.39229 -3.8309e-06 0)
(-2.37667 -3.75632e-06 0)
(-2.36131 -3.68396e-06 0)
(-2.34622 -3.61373e-06 0)
(-2.33138 -3.54555e-06 0)
(-2.31678 -3.47932e-06 0)
(-2.30242 -3.41499e-06 0)
(-2.28829 -3.35247e-06 0)
(-2.27438 -3.29169e-06 0)
(-2.26069 -3.23259e-06 0)
(-2.24722 -3.1751e-06 0)
(-2.23395 -3.11917e-06 0)
(-2.22089 -3.06473e-06 0)
(-2.20802 -3.01174e-06 0)
(-2.19534 -2.96013e-06 0)
(-2.18285 -2.90987e-06 0)
(-2.17054 -2.8609e-06 0)
(-2.15841 -2.81317e-06 0)
(-2.14645 -2.76665e-06 0)
(-2.13467 -2.7213e-06 0)
(-2.12304 -2.67706e-06 0)
(-2.11158 -2.63391e-06 0)
(-2.10028 -2.59181e-06 0)
(-2.08913 -2.55072e-06 0)
(-2.07813 -2.51062e-06 0)
(-2.06727 -2.47146e-06 0)
(-2.05656 -2.43322e-06 0)
(-2.04599 -2.39587e-06 0)
(-2.03556 -2.35939e-06 0)
(-2.02526 -2.32373e-06 0)
(-2.01509 -2.28888e-06 0)
(-2.00505 -2.25482e-06 0)
(-1.99514 -2.22152e-06 0)
(-1.98534 -2.18895e-06 0)
(-1.97567 -2.15709e-06 0)
(-1.96612 -2.12593e-06 0)
(-1.95668 -2.09544e-06 0)
(-1.94735 -2.0656e-06 0)
(-1.93814 -2.0364e-06 0)
(-1.92903 -2.00781e-06 0)
(-1.92003 -1.97982e-06 0)
(-1.91114 -1.9524e-06 0)
(-1.90234 -1.92556e-06 0)
(-1.89365 -1.89926e-06 0)
(-1.88505 -1.87349e-06 0)
(-1.87655 -1.84825e-06 0)
(-1.86815 -1.8235e-06 0)
(-1.85983 -1.79925e-06 0)
(-1.85161 -1.77548e-06 0)
(-1.84348 -1.75217e-06 0)
(-1.83543 -1.72931e-06 0)
(-1.82747 -1.70689e-06 0)
(-1.8196 -1.6849e-06 0)
(-1.81181 -1.66333e-06 0)
(-1.8041 -1.64217e-06 0)
(-1.79646 -1.6214e-06 0)
(-1.78891 -1.60102e-06 0)
(-1.78144 -1.58102e-06 0)
(-1.77404 -1.56138e-06 0)
(-1.76671 -1.5421e-06 0)
(-1.75946 -1.52317e-06 0)
(-1.75228 -1.50458e-06 0)
(-1.74517 -1.48633e-06 0)
(-1.73813 -1.4684e-06 0)
(-1.73115 -1.45078e-06 0)
(-1.72425 -1.43347e-06 0)
(-1.71741 -1.41647e-06 0)
(-1.71063 -1.39976e-06 0)
(-1.70392 -1.38334e-06 0)
(-1.69728 -1.3672e-06 0)
(-1.69069 -1.35133e-06 0)
(-1.68417 -1.33573e-06 0)
(-1.6777 -1.3204e-06 0)
(-1.6713 -1.30531e-06 0)
(-1.66495 -1.29048e-06 0)
(-1.65866 -1.2759e-06 0)
(-1.65242 -1.26155e-06 0)
(-1.64624 -1.24744e-06 0)
(-1.64012 -1.23356e-06 0)
(-1.63405 -1.2199e-06 0)
(-1.62803 -1.20646e-06 0)
(-1.62206 -1.19324e-06 0)
(-1.61615 -1.18022e-06 0)
(-1.61028 -1.16741e-06 0)
(-1.60447 -1.15481e-06 0)
(-1.5987 -1.14242e-06 0)
(-1.59299 -1.1301e-06 0)
(-1.58732 -1.11841e-06 0)
(-1.58169 -1.10631e-06 0)
(-1.57612 -1.09317e-06 0)
(-1.57091 -1.083e-06 0)
(-1.56601 -1.07477e-06 0)
(-1.56109 -1.06442e-06 0)
(-1.55618 -1.05373e-06 0)
(-1.55126 -1.04372e-06 0)
(-1.54633 -1.03369e-06 0)
(-1.5414 -1.02377e-06 0)
(-1.53646 -1.01392e-06 0)
(-1.53152 -1.00413e-06 0)
(-1.52657 -9.94403e-07 0)
(-1.52161 -9.84733e-07 0)
(-1.51665 -9.75119e-07 0)
(-1.51169 -9.65561e-07 0)
(-1.50672 -9.56058e-07 0)
(-1.50175 -9.46611e-07 0)
(-1.49677 -9.37218e-07 0)
(-1.49179 -9.27881e-07 0)
(-1.4868 -9.18599e-07 0)
(-1.48181 -9.09373e-07 0)
(-1.47682 -9.00202e-07 0)
(-1.47183 -8.91088e-07 0)
(-1.46683 -8.82029e-07 0)
(-1.46182 -8.73028e-07 0)
(-1.45682 -8.64082e-07 0)
(-1.45181 -8.55194e-07 0)
(-1.4468 -8.46363e-07 0)
(-1.44179 -8.3759e-07 0)
(-1.43678 -8.28874e-07 0)
(-1.43176 -8.20215e-07 0)
(-1.42675 -8.11615e-07 0)
(-1.42173 -8.03073e-07 0)
(-1.41671 -7.94589e-07 0)
(-1.41169 -7.86164e-07 0)
(-1.40667 -7.77797e-07 0)
(-1.40165 -7.69489e-07 0)
(-1.39663 -7.6124e-07 0)
(-1.39161 -7.5305e-07 0)
(-1.38659 -7.44919e-07 0)
(-1.38157 -7.36847e-07 0)
(-1.37655 -7.28835e-07 0)
(-1.37153 -7.20882e-07 0)
(-1.36651 -7.12988e-07 0)
(-1.36149 -7.05154e-07 0)
(-1.35648 -6.97379e-07 0)
(-1.35146 -6.89664e-07 0)
(-1.34645 -6.82009e-07 0)
(-1.34144 -6.74413e-07 0)
(-1.33643 -6.66877e-07 0)
(-1.33143 -6.59401e-07 0)
(-1.32642 -6.51984e-07 0)
(-1.32142 -6.44626e-07 0)
(-1.31642 -6.37328e-07 0)
(-1.31142 -6.3009e-07 0)
(-1.30643 -6.22911e-07 0)
(-1.30144 -6.15792e-07 0)
(-1.29646 -6.08732e-07 0)
(-1.29147 -6.01731e-07 0)
(-1.2865 -5.9479e-07 0)
(-1.28152 -5.87907e-07 0)
(-1.27655 -5.81084e-07 0)
(-1.27159 -5.74319e-07 0)
(-1.26662 -5.67614e-07 0)
(-1.26167 -5.60966e-07 0)
(-1.25672 -5.54378e-07 0)
(-1.25177 -5.47848e-07 0)
(-1.24683 -5.41376e-07 0)
(-1.24189 -5.34962e-07 0)
(-1.23696 -5.28606e-07 0)
(-1.23204 -5.22308e-07 0)
(-1.22712 -5.16067e-07 0)
(-1.22221 -5.09884e-07 0)
(-1.2173 -5.03758e-07 0)
(-1.2124 -4.9769e-07 0)
(-1.20751 -4.91678e-07 0)
(-1.20262 -4.85722e-07 0)
(-1.19774 -4.79823e-07 0)
(-1.19287 -4.7398e-07 0)
(-1.188 -4.68194e-07 0)
(-1.18314 -4.62463e-07 0)
(-1.17829 -4.56787e-07 0)
(-1.17344 -4.51167e-07 0)
(-1.16861 -4.45602e-07 0)
(-1.16378 -4.40091e-07 0)
(-1.15896 -4.34636e-07 0)
(-1.15415 -4.29234e-07 0)
(-1.14934 -4.23887e-07 0)
(-1.14455 -4.18593e-07 0)
(-1.13976 -4.13352e-07 0)
(-1.13498 -4.08165e-07 0)
(-1.13021 -4.03031e-07 0)
(-1.12545 -3.97949e-07 0)
(-1.1207 -3.9292e-07 0)
(-1.11595 -3.87943e-07 0)
(-1.11122 -3.83017e-07 0)
(-1.1065 -3.78143e-07 0)
(-1.10178 -3.73321e-07 0)
(-1.09707 -3.68549e-07 0)
(-1.09238 -3.63827e-07 0)
(-1.08769 -3.59156e-07 0)
(-1.08302 -3.54534e-07 0)
(-1.07835 -3.49963e-07 0)
(-1.0737 -3.4544e-07 0)
(-1.06905 -3.40966e-07 0)
(-1.06442 -3.36542e-07 0)
(-1.05979 -3.32165e-07 0)
(-1.05518 -3.27836e-07 0)
(-1.05057 -3.23555e-07 0)
(-1.04598 -3.19321e-07 0)
(-1.0414 -3.15134e-07 0)
(-1.03683 -3.10994e-07 0)
(-1.03227 -3.069e-07 0)
(-1.02772 -3.02852e-07 0)
(-1.02319 -2.9885e-07 0)
(-1.01866 -2.94893e-07 0)
(-1.01415 -2.90981e-07 0)
(-1.00964 -2.87113e-07 0)
(-1.00515 -2.8329e-07 0)
(-1.00067 -2.7951e-07 0)
(-0.996206 -2.75774e-07 0)
(-0.99175 -2.72081e-07 0)
(-0.987306 -2.68431e-07 0)
(-0.982875 -2.64824e-07 0)
(-0.978455 -2.61259e-07 0)
(-0.974048 -2.57735e-07 0)
(-0.969652 -2.54253e-07 0)
(-0.965269 -2.50812e-07 0)
(-0.960899 -2.47412e-07 0)
(-0.956541 -2.44052e-07 0)
(-0.952195 -2.40732e-07 0)
(-0.947862 -2.37452e-07 0)
(-0.943542 -2.34211e-07 0)
(-0.939234 -2.31009e-07 0)
(-0.934939 -2.27846e-07 0)
(-0.930657 -2.24721e-07 0)
(-0.926388 -2.21633e-07 0)
(-0.922132 -2.18584e-07 0)
(-0.917888 -2.15572e-07 0)
(-0.913658 -2.12596e-07 0)
(-0.909441 -2.09658e-07 0)
(-0.905237 -2.06755e-07 0)
(-0.901046 -2.03888e-07 0)
(-0.896868 -2.01057e-07 0)
(-0.892704 -1.98261e-07 0)
(-0.888553 -1.955e-07 0)
(-0.884415 -1.92773e-07 0)
(-0.880291 -1.90081e-07 0)
(-0.87618 -1.87422e-07 0)
(-0.872083 -1.84796e-07 0)
(-0.867999 -1.82204e-07 0)
(-0.863929 -1.79645e-07 0)
(-0.859872 -1.77118e-07 0)
(-0.855829 -1.74623e-07 0)
(-0.8518 -1.72161e-07 0)
(-0.847784 -1.69729e-07 0)
(-0.843782 -1.67329e-07 0)
(-0.839794 -1.64959e-07 0)
(-0.835819 -1.62621e-07 0)
(-0.831859 -1.60312e-07 0)
(-0.827912 -1.58033e-07 0)
(-0.823979 -1.55784e-07 0)
(-0.82006 -1.53564e-07 0)
(-0.816155 -1.51373e-07 0)
(-0.812264 -1.4921e-07 0)
(-0.808386 -1.47076e-07 0)
(-0.804523 -1.4497e-07 0)
(-0.800673 -1.42891e-07 0)
(-0.796838 -1.4084e-07 0)
(-0.793017 -1.38816e-07 0)
(-0.789209 -1.36819e-07 0)
(-0.785416 -1.34848e-07 0)
(-0.781636 -1.32903e-07 0)
(-0.777871 -1.30984e-07 0)
(-0.77412 -1.2909e-07 0)
(-0.770383 -1.27222e-07 0)
(-0.76666 -1.25378e-07 0)
(-0.762951 -1.23557e-07 0)
(-0.759256 -1.21763e-07 0)
(-0.755575 -1.19988e-07 0)
(-0.751909 -1.182e-07 0)
(-0.748259 -1.16562e-07 0)
(-0.744616 -1.14935e-07 0)
(-0.740582 -1.12948e-07 0)
(-0.736207 -1.10838e-07 0)
(-0.731911 -1.08937e-07 0)
(-0.727684 -1.07139e-07 0)
(-0.723529 -1.05329e-07 0)
(-0.719444 -1.03554e-07 0)
(-0.715427 -1.01825e-07 0)
(-0.711477 -1.00142e-07 0)
(-0.707593 -9.85038e-08 0)
(-0.703771 -9.69095e-08 0)
(-0.700011 -9.53576e-08 0)
(-0.696311 -9.38465e-08 0)
(-0.692669 -9.2375e-08 0)
(-0.689084 -9.09416e-08 0)
(-0.685554 -8.95449e-08 0)
(-0.682078 -8.81837e-08 0)
(-0.678655 -8.68567e-08 0)
(-0.675283 -8.55626e-08 0)
(-0.671961 -8.43004e-08 0)
(-0.668688 -8.30691e-08 0)
(-0.665462 -8.18674e-08 0)
(-0.662283 -8.06945e-08 0)
(-0.659149 -7.95494e-08 0)
(-0.65606 -7.84312e-08 0)
(-0.653013 -7.7339e-08 0)
(-0.650009 -7.6272e-08 0)
(-0.647046 -7.52293e-08 0)
(-0.644123 -7.42102e-08 0)
(-0.64124 -7.3214e-08 0)
(-0.638396 -7.224e-08 0)
(-0.635589 -7.12874e-08 0)
(-0.632818 -7.03557e-08 0)
(-0.630084 -6.94442e-08 0)
(-0.627385 -6.85522e-08 0)
(-0.624721 -6.76792e-08 0)
(-0.622091 -6.68247e-08 0)
(-0.619493 -6.59882e-08 0)
(-0.616928 -6.5169e-08 0)
(-0.614395 -6.43667e-08 0)
(-0.611892 -6.35808e-08 0)
(-0.60942 -6.28109e-08 0)
(-0.606978 -6.20565e-08 0)
(-0.604565 -6.13172e-08 0)
(-0.602181 -6.05926e-08 0)
(-0.599825 -5.98822e-08 0)
(-0.597496 -5.91858e-08 0)
(-0.595195 -5.85028e-08 0)
(-0.592919 -5.78331e-08 0)
(-0.59067 -5.71761e-08 0)
(-0.588446 -5.65317e-08 0)
(-0.586247 -5.58994e-08 0)
(-0.584073 -5.5279e-08 0)
(-0.581923 -5.46702e-08 0)
(-0.579796 -5.40726e-08 0)
(-0.577692 -5.34861e-08 0)
(-0.575611 -5.29103e-08 0)
(-0.573553 -5.23449e-08 0)
(-0.571516 -5.17899e-08 0)
(-0.569501 -5.12448e-08 0)
(-0.567507 -5.07095e-08 0)
(-0.565534 -5.01838e-08 0)
(-0.563581 -4.96674e-08 0)
(-0.561648 -4.91602e-08 0)
(-0.559735 -4.86619e-08 0)
(-0.557841 -4.81724e-08 0)
(-0.555966 -4.76916e-08 0)
(-0.55411 -4.72192e-08 0)
(-0.552272 -4.67551e-08 0)
(-0.550452 -4.62992e-08 0)
(-0.54865 -4.58514e-08 0)
(-0.546865 -4.54115e-08 0)
(-0.545097 -4.49796e-08 0)
(-0.543346 -4.45554e-08 0)
(-0.541611 -4.41391e-08 0)
(-0.539893 -4.37306e-08 0)
(-0.53819 -4.333e-08 0)
(-0.536503 -4.29374e-08 0)
(-0.534831 -4.25529e-08 0)
(-0.533174 -4.21769e-08 0)
(-0.531531 -4.18098e-08 0)
(-0.529903 -4.14522e-08 0)
(-0.528288 -4.1105e-08 0)
(-0.526687 -4.07697e-08 0)
(-0.525099 -4.04474e-08 0)
(-0.523523 -4.01415e-08 0)
(-0.521958 -3.98644e-08 0)
(-0.520404 -3.95856e-08 0)
(-0.518861 -3.93646e-08 0)
(-0.517324 -3.94261e-08 0)
(-0.515777 -3.87434e-08 0)
(-0.514294 -3.78744e-08 0)
(-0.512814 -5.00467e-08 0)
(-0.510378 -1.40237e-08 0)
(-0.511728 -3.69561e-08 0)
(-0.507443 -5.5696e-08 0)
)
;
    }
    symmetry
    {
        type            symmetryPlane;
    }
    frontAndBack
    {
        type            empty;
    }
}


// ************************************************************************* //
