/*--------------------------------*- C++ -*----------------------------------*\
| =========                 |                                                 |
| \\      /  F ield         | OpenFOAM: The Open Source CFD Toolbox           |
|  \\    /   O peration     | Version:  v2012                                 |
|   \\  /    A nd           | Website:  www.openfoam.com                      |
|    \\/     M anipulation  |                                                 |
\*---------------------------------------------------------------------------*/
FoamFile
{
    version     2.0;
    format      ascii;
    class       volVectorField;
    location    "44.5";
    object      wallShearStress;
}
// * * * * * * * * * * * * * * * * * * * * * * * * * * * * * * * * * * * * * //

dimensions      [0 2 -2 0 0 0 0];


internalField   uniform (0 0 0);

boundaryField
{
    inlet
    {
        type            calculated;
        value           uniform (0 0 0);
    }
    outlet
    {
        type            calculated;
        value           uniform (0 0 0);
    }
    topWall
    {
        type            calculated;
        value           nonuniform List<vector> 
545
(
(1.4872e-08 -1.04686e-08 0)
(1.48652e-08 -2.92872e-08 0)
(1.48514e-08 -4.88543e-08 0)
(1.4831e-08 -6.78474e-08 0)
(1.48048e-08 -8.60195e-08 0)
(1.47736e-08 -1.03602e-07 0)
(1.47376e-08 -1.20743e-07 0)
(1.46974e-08 -1.37432e-07 0)
(1.46532e-08 -1.53633e-07 0)
(1.46055e-08 -1.69343e-07 0)
(1.45546e-08 -1.84583e-07 0)
(1.45009e-08 -1.99371e-07 0)
(1.44447e-08 -2.13717e-07 0)
(1.43862e-08 -2.27628e-07 0)
(1.43258e-08 -2.41117e-07 0)
(1.42636e-08 -2.54193e-07 0)
(1.42e-08 -2.66869e-07 0)
(1.41352e-08 -2.79154e-07 0)
(1.40692e-08 -2.91061e-07 0)
(1.40025e-08 -3.02599e-07 0)
(1.3935e-08 -3.13779e-07 0)
(1.38671e-08 -3.24612e-07 0)
(1.37987e-08 -3.35107e-07 0)
(1.37302e-08 -3.45275e-07 0)
(1.36615e-08 -3.55125e-07 0)
(1.35929e-08 -3.64668e-07 0)
(1.35243e-08 -3.73912e-07 0)
(1.3456e-08 -3.82867e-07 0)
(1.33881e-08 -3.91542e-07 0)
(1.33205e-08 -3.99945e-07 0)
(1.32533e-08 -4.08086e-07 0)
(1.31867e-08 -4.15972e-07 0)
(1.31207e-08 -4.23611e-07 0)
(1.30554e-08 -4.31012e-07 0)
(1.29907e-08 -4.38182e-07 0)
(1.29268e-08 -4.45129e-07 0)
(1.28637e-08 -4.51859e-07 0)
(1.28014e-08 -4.5838e-07 0)
(1.274e-08 -4.64698e-07 0)
(1.26794e-08 -4.7082e-07 0)
(1.26197e-08 -4.76753e-07 0)
(1.25609e-08 -4.82502e-07 0)
(1.25031e-08 -4.88074e-07 0)
(1.24462e-08 -4.93474e-07 0)
(1.23903e-08 -4.98708e-07 0)
(1.23353e-08 -5.03781e-07 0)
(1.22813e-08 -5.08698e-07 0)
(1.22283e-08 -5.13465e-07 0)
(1.21763e-08 -5.18087e-07 0)
(1.21252e-08 -5.22567e-07 0)
(1.20751e-08 -5.26911e-07 0)
(1.2026e-08 -5.31124e-07 0)
(1.19778e-08 -5.35209e-07 0)
(1.19306e-08 -5.3917e-07 0)
(1.18844e-08 -5.43011e-07 0)
(1.18391e-08 -5.46738e-07 0)
(1.17948e-08 -5.50352e-07 0)
(1.17513e-08 -5.53857e-07 0)
(1.17088e-08 -5.57258e-07 0)
(1.16672e-08 -5.60557e-07 0)
(1.16265e-08 -5.63758e-07 0)
(1.15867e-08 -5.66864e-07 0)
(1.15478e-08 -5.69878e-07 0)
(1.15097e-08 -5.72802e-07 0)
(1.14725e-08 -5.7564e-07 0)
(1.14361e-08 -5.78395e-07 0)
(1.14005e-08 -5.81068e-07 0)
(1.13658e-08 -5.83663e-07 0)
(1.13318e-08 -5.86182e-07 0)
(1.12986e-08 -5.88626e-07 0)
(1.12662e-08 -5.91001e-07 0)
(1.12347e-08 -5.93302e-07 0)
(1.12042e-08 -5.95514e-07 0)
(1.11741e-08 -5.97658e-07 0)
(1.11443e-08 -5.99776e-07 0)
(1.11147e-08 -6.01881e-07 0)
(1.10852e-08 -6.03974e-07 0)
(1.10557e-08 -6.06053e-07 0)
(1.10262e-08 -6.08115e-07 0)
(1.09968e-08 -6.10163e-07 0)
(1.09675e-08 -6.12195e-07 0)
(1.09382e-08 -6.14213e-07 0)
(1.0909e-08 -6.16217e-07 0)
(1.08799e-08 -6.18206e-07 0)
(1.08508e-08 -6.20181e-07 0)
(1.08218e-08 -6.22141e-07 0)
(1.07928e-08 -6.24087e-07 0)
(1.07639e-08 -6.26019e-07 0)
(1.07351e-08 -6.27937e-07 0)
(1.07064e-08 -6.29842e-07 0)
(1.06777e-08 -6.31732e-07 0)
(1.06491e-08 -6.33609e-07 0)
(1.06205e-08 -6.35472e-07 0)
(1.05921e-08 -6.37321e-07 0)
(1.05634e-08 -6.39161e-07 0)
(1.05362e-08 -6.40967e-07 0)
(1.05111e-08 -6.4262e-07 0)
(1.04868e-08 -6.44116e-07 0)
(1.04634e-08 -6.45571e-07 0)
(1.044e-08 -6.47031e-07 0)
(1.04167e-08 -6.48503e-07 0)
(1.03933e-08 -6.49978e-07 0)
(1.03697e-08 -6.5145e-07 0)
(1.03461e-08 -6.52921e-07 0)
(1.03224e-08 -6.54392e-07 0)
(1.02986e-08 -6.55863e-07 0)
(1.02747e-08 -6.57335e-07 0)
(1.02508e-08 -6.58807e-07 0)
(1.02267e-08 -6.60278e-07 0)
(1.02025e-08 -6.6175e-07 0)
(1.01782e-08 -6.63221e-07 0)
(1.01539e-08 -6.64693e-07 0)
(1.01294e-08 -6.66164e-07 0)
(1.01049e-08 -6.67636e-07 0)
(1.00802e-08 -6.69107e-07 0)
(1.00555e-08 -6.70578e-07 0)
(1.00307e-08 -6.72049e-07 0)
(1.00058e-08 -6.7352e-07 0)
(9.98073e-09 -6.7499e-07 0)
(9.95562e-09 -6.76461e-07 0)
(9.93042e-09 -6.77931e-07 0)
(9.90512e-09 -6.79401e-07 0)
(9.87972e-09 -6.8087e-07 0)
(9.85423e-09 -6.8234e-07 0)
(9.82865e-09 -6.83808e-07 0)
(9.80297e-09 -6.85277e-07 0)
(9.77719e-09 -6.86745e-07 0)
(9.75132e-09 -6.88213e-07 0)
(9.72536e-09 -6.8968e-07 0)
(9.6993e-09 -6.91147e-07 0)
(9.67315e-09 -6.92613e-07 0)
(9.6469e-09 -6.94079e-07 0)
(9.62056e-09 -6.95544e-07 0)
(9.59412e-09 -6.97009e-07 0)
(9.56759e-09 -6.98473e-07 0)
(9.54096e-09 -6.99936e-07 0)
(9.51424e-09 -7.01399e-07 0)
(9.48742e-09 -7.02861e-07 0)
(9.46051e-09 -7.04322e-07 0)
(9.4335e-09 -7.05783e-07 0)
(9.4064e-09 -7.07243e-07 0)
(9.3792e-09 -7.08702e-07 0)
(9.35191e-09 -7.10161e-07 0)
(9.32452e-09 -7.11618e-07 0)
(9.29704e-09 -7.13075e-07 0)
(9.26947e-09 -7.14531e-07 0)
(9.2418e-09 -7.15986e-07 0)
(9.21403e-09 -7.1744e-07 0)
(9.18617e-09 -7.18893e-07 0)
(9.15821e-09 -7.20345e-07 0)
(9.13017e-09 -7.21796e-07 0)
(9.10202e-09 -7.23246e-07 0)
(9.07378e-09 -7.24695e-07 0)
(9.04545e-09 -7.26142e-07 0)
(9.01703e-09 -7.27589e-07 0)
(8.9885e-09 -7.29034e-07 0)
(8.95989e-09 -7.30479e-07 0)
(8.93118e-09 -7.31922e-07 0)
(8.90238e-09 -7.33364e-07 0)
(8.87348e-09 -7.34804e-07 0)
(8.84449e-09 -7.36243e-07 0)
(8.81541e-09 -7.37681e-07 0)
(8.78623e-09 -7.39118e-07 0)
(8.75696e-09 -7.40553e-07 0)
(8.7276e-09 -7.41987e-07 0)
(8.69814e-09 -7.43419e-07 0)
(8.6686e-09 -7.4485e-07 0)
(8.63895e-09 -7.46279e-07 0)
(8.60922e-09 -7.47707e-07 0)
(8.57939e-09 -7.49133e-07 0)
(8.54947e-09 -7.50558e-07 0)
(8.51946e-09 -7.51981e-07 0)
(8.48936e-09 -7.53402e-07 0)
(8.45917e-09 -7.54821e-07 0)
(8.42888e-09 -7.56239e-07 0)
(8.3985e-09 -7.57655e-07 0)
(8.36804e-09 -7.59069e-07 0)
(8.33748e-09 -7.60482e-07 0)
(8.30683e-09 -7.61892e-07 0)
(8.27609e-09 -7.63301e-07 0)
(8.24526e-09 -7.64708e-07 0)
(8.21434e-09 -7.66113e-07 0)
(8.18333e-09 -7.67516e-07 0)
(8.15223e-09 -7.68916e-07 0)
(8.12104e-09 -7.70315e-07 0)
(8.08976e-09 -7.71712e-07 0)
(8.05839e-09 -7.73106e-07 0)
(8.02694e-09 -7.74499e-07 0)
(7.9954e-09 -7.75889e-07 0)
(7.96377e-09 -7.77277e-07 0)
(7.93205e-09 -7.78663e-07 0)
(7.90024e-09 -7.80046e-07 0)
(7.86835e-09 -7.81427e-07 0)
(7.83637e-09 -7.82806e-07 0)
(7.8043e-09 -7.84183e-07 0)
(7.77215e-09 -7.85557e-07 0)
(7.73991e-09 -7.86928e-07 0)
(7.70759e-09 -7.88297e-07 0)
(7.67518e-09 -7.89664e-07 0)
(7.64269e-09 -7.91028e-07 0)
(7.61011e-09 -7.92389e-07 0)
(7.57745e-09 -7.93748e-07 0)
(7.54471e-09 -7.95104e-07 0)
(7.51188e-09 -7.96457e-07 0)
(7.47897e-09 -7.97808e-07 0)
(7.44597e-09 -7.99156e-07 0)
(7.4129e-09 -8.00501e-07 0)
(7.37974e-09 -8.01843e-07 0)
(7.3465e-09 -8.03182e-07 0)
(7.31319e-09 -8.04519e-07 0)
(7.27979e-09 -8.05852e-07 0)
(7.24631e-09 -8.07183e-07 0)
(7.21275e-09 -8.0851e-07 0)
(7.17911e-09 -8.09835e-07 0)
(7.1454e-09 -8.11156e-07 0)
(7.1116e-09 -8.12474e-07 0)
(7.07773e-09 -8.1379e-07 0)
(7.04378e-09 -8.15101e-07 0)
(7.00976e-09 -8.1641e-07 0)
(6.97566e-09 -8.17715e-07 0)
(6.94148e-09 -8.19017e-07 0)
(6.90723e-09 -8.20316e-07 0)
(6.8729e-09 -8.21611e-07 0)
(6.8385e-09 -8.22903e-07 0)
(6.80403e-09 -8.24192e-07 0)
(6.76948e-09 -8.25477e-07 0)
(6.73486e-09 -8.26758e-07 0)
(6.70017e-09 -8.28036e-07 0)
(6.66541e-09 -8.2931e-07 0)
(6.63058e-09 -8.30581e-07 0)
(6.59568e-09 -8.31847e-07 0)
(6.56071e-09 -8.33111e-07 0)
(6.52567e-09 -8.3437e-07 0)
(6.49056e-09 -8.35625e-07 0)
(6.45538e-09 -8.36877e-07 0)
(6.42014e-09 -8.38125e-07 0)
(6.38483e-09 -8.39369e-07 0)
(6.34945e-09 -8.40609e-07 0)
(6.31401e-09 -8.41845e-07 0)
(6.27851e-09 -8.43077e-07 0)
(6.24294e-09 -8.44305e-07 0)
(6.20731e-09 -8.45529e-07 0)
(6.17161e-09 -8.46748e-07 0)
(6.13586e-09 -8.47964e-07 0)
(6.10004e-09 -8.49175e-07 0)
(6.06417e-09 -8.50382e-07 0)
(6.02823e-09 -8.51585e-07 0)
(5.99224e-09 -8.52783e-07 0)
(5.95618e-09 -8.53977e-07 0)
(5.92007e-09 -8.55167e-07 0)
(5.88391e-09 -8.56352e-07 0)
(5.84769e-09 -8.57532e-07 0)
(5.81141e-09 -8.58708e-07 0)
(5.77508e-09 -8.5988e-07 0)
(5.73869e-09 -8.61047e-07 0)
(5.70226e-09 -8.62209e-07 0)
(5.66577e-09 -8.63367e-07 0)
(5.62923e-09 -8.64519e-07 0)
(5.59264e-09 -8.65668e-07 0)
(5.556e-09 -8.66811e-07 0)
(5.51931e-09 -8.67949e-07 0)
(5.48258e-09 -8.69083e-07 0)
(5.44579e-09 -8.70211e-07 0)
(5.40896e-09 -8.71335e-07 0)
(5.37209e-09 -8.72454e-07 0)
(5.33517e-09 -8.73567e-07 0)
(5.29826e-09 -8.74675e-07 0)
(5.26104e-09 -8.7578e-07 0)
(5.2249e-09 -8.76872e-07 0)
(5.19028e-09 -8.77908e-07 0)
(5.15618e-09 -8.78889e-07 0)
(5.1225e-09 -8.79859e-07 0)
(5.08868e-09 -8.80835e-07 0)
(5.05457e-09 -8.81819e-07 0)
(5.02014e-09 -8.82808e-07 0)
(4.98539e-09 -8.838e-07 0)
(4.9503e-09 -8.84795e-07 0)
(4.91489e-09 -8.85794e-07 0)
(4.87914e-09 -8.86796e-07 0)
(4.84305e-09 -8.87802e-07 0)
(4.80663e-09 -8.88812e-07 0)
(4.76986e-09 -8.89824e-07 0)
(4.73276e-09 -8.9084e-07 0)
(4.69531e-09 -8.91859e-07 0)
(4.65752e-09 -8.9288e-07 0)
(4.61938e-09 -8.93904e-07 0)
(4.58089e-09 -8.94931e-07 0)
(4.54206e-09 -8.95961e-07 0)
(4.50287e-09 -8.96992e-07 0)
(4.46333e-09 -8.98026e-07 0)
(4.42344e-09 -8.99061e-07 0)
(4.38319e-09 -9.00099e-07 0)
(4.34259e-09 -9.01138e-07 0)
(4.30164e-09 -9.02179e-07 0)
(4.26032e-09 -9.0322e-07 0)
(4.21865e-09 -9.04263e-07 0)
(4.17662e-09 -9.05307e-07 0)
(4.13422e-09 -9.06352e-07 0)
(4.09147e-09 -9.07397e-07 0)
(4.04836e-09 -9.08442e-07 0)
(4.00488e-09 -9.09488e-07 0)
(3.96104e-09 -9.10533e-07 0)
(3.91684e-09 -9.11578e-07 0)
(3.87228e-09 -9.12623e-07 0)
(3.82736e-09 -9.13667e-07 0)
(3.78207e-09 -9.14709e-07 0)
(3.73642e-09 -9.15751e-07 0)
(3.69041e-09 -9.16791e-07 0)
(3.64404e-09 -9.17829e-07 0)
(3.59731e-09 -9.18865e-07 0)
(3.55021e-09 -9.19899e-07 0)
(3.50276e-09 -9.2093e-07 0)
(3.45495e-09 -9.21958e-07 0)
(3.40678e-09 -9.22983e-07 0)
(3.35825e-09 -9.24005e-07 0)
(3.30938e-09 -9.25023e-07 0)
(3.26014e-09 -9.26036e-07 0)
(3.21056e-09 -9.27046e-07 0)
(3.16063e-09 -9.2805e-07 0)
(3.11035e-09 -9.2905e-07 0)
(3.05972e-09 -9.30044e-07 0)
(3.00875e-09 -9.31032e-07 0)
(2.95744e-09 -9.32014e-07 0)
(2.9058e-09 -9.3299e-07 0)
(2.85382e-09 -9.33959e-07 0)
(2.80151e-09 -9.34921e-07 0)
(2.74887e-09 -9.35875e-07 0)
(2.69591e-09 -9.36821e-07 0)
(2.64263e-09 -9.37758e-07 0)
(2.58903e-09 -9.38687e-07 0)
(2.53512e-09 -9.39607e-07 0)
(2.4809e-09 -9.40517e-07 0)
(2.42638e-09 -9.41417e-07 0)
(2.37157e-09 -9.42306e-07 0)
(2.31646e-09 -9.43184e-07 0)
(2.26106e-09 -9.44051e-07 0)
(2.20539e-09 -9.44906e-07 0)
(2.14944e-09 -9.45749e-07 0)
(2.09322e-09 -9.46579e-07 0)
(2.03674e-09 -9.47396e-07 0)
(1.98001e-09 -9.48199e-07 0)
(1.92302e-09 -9.48987e-07 0)
(1.8658e-09 -9.49761e-07 0)
(1.80835e-09 -9.50519e-07 0)
(1.75067e-09 -9.51262e-07 0)
(1.69277e-09 -9.51988e-07 0)
(1.63467e-09 -9.52698e-07 0)
(1.57637e-09 -9.53389e-07 0)
(1.51788e-09 -9.54063e-07 0)
(1.45921e-09 -9.54719e-07 0)
(1.40037e-09 -9.55355e-07 0)
(1.34137e-09 -9.55972e-07 0)
(1.28222e-09 -9.56568e-07 0)
(1.22293e-09 -9.57144e-07 0)
(1.16352e-09 -9.57698e-07 0)
(1.10399e-09 -9.5823e-07 0)
(1.04436e-09 -9.5874e-07 0)
(9.84636e-10 -9.59227e-07 0)
(9.24834e-10 -9.59689e-07 0)
(8.64967e-10 -9.60128e-07 0)
(8.05047e-10 -9.60541e-07 0)
(7.45088e-10 -9.60929e-07 0)
(6.85104e-10 -9.6129e-07 0)
(6.2511e-10 -9.61625e-07 0)
(5.65119e-10 -9.61932e-07 0)
(5.05147e-10 -9.62211e-07 0)
(4.45209e-10 -9.62461e-07 0)
(3.85321e-10 -9.62682e-07 0)
(3.25498e-10 -9.62873e-07 0)
(2.65757e-10 -9.63033e-07 0)
(2.06115e-10 -9.63162e-07 0)
(1.46587e-10 -9.63259e-07 0)
(8.71926e-11 -9.63323e-07 0)
(2.79478e-11 -9.63354e-07 0)
(-3.11292e-11 -9.63351e-07 0)
(-9.00204e-11 -9.63314e-07 0)
(-1.48707e-10 -9.63241e-07 0)
(-2.07171e-10 -9.63133e-07 0)
(-2.65394e-10 -9.62988e-07 0)
(-3.23355e-10 -9.62807e-07 0)
(-3.81035e-10 -9.62587e-07 0)
(-4.38416e-10 -9.6233e-07 0)
(-4.95477e-10 -9.62033e-07 0)
(-5.52197e-10 -9.61697e-07 0)
(-6.08557e-10 -9.61321e-07 0)
(-6.64536e-10 -9.60905e-07 0)
(-7.20114e-10 -9.60447e-07 0)
(-7.75269e-10 -9.59947e-07 0)
(-8.29981e-10 -9.59405e-07 0)
(-8.84228e-10 -9.5882e-07 0)
(-9.3799e-10 -9.58192e-07 0)
(-9.91245e-10 -9.57519e-07 0)
(-1.04397e-09 -9.56802e-07 0)
(-1.09615e-09 -9.5604e-07 0)
(-1.14775e-09 -9.55233e-07 0)
(-1.19877e-09 -9.54379e-07 0)
(-1.24917e-09 -9.5348e-07 0)
(-1.29893e-09 -9.52533e-07 0)
(-1.34804e-09 -9.51539e-07 0)
(-1.39647e-09 -9.50497e-07 0)
(-1.4442e-09 -9.49407e-07 0)
(-1.49121e-09 -9.48268e-07 0)
(-1.53748e-09 -9.47081e-07 0)
(-1.58299e-09 -9.45844e-07 0)
(-1.62772e-09 -9.44558e-07 0)
(-1.67165e-09 -9.43222e-07 0)
(-1.71475e-09 -9.41836e-07 0)
(-1.75701e-09 -9.404e-07 0)
(-1.79841e-09 -9.38914e-07 0)
(-1.83893e-09 -9.37376e-07 0)
(-1.87856e-09 -9.35788e-07 0)
(-1.91726e-09 -9.34149e-07 0)
(-1.95503e-09 -9.32458e-07 0)
(-1.99185e-09 -9.30717e-07 0)
(-2.0277e-09 -9.28924e-07 0)
(-2.06256e-09 -9.27079e-07 0)
(-2.09642e-09 -9.25184e-07 0)
(-2.12927e-09 -9.23237e-07 0)
(-2.16108e-09 -9.21239e-07 0)
(-2.19185e-09 -9.1919e-07 0)
(-2.22156e-09 -9.1709e-07 0)
(-2.25019e-09 -9.14939e-07 0)
(-2.27774e-09 -9.12738e-07 0)
(-2.3042e-09 -9.10486e-07 0)
(-2.32955e-09 -9.08184e-07 0)
(-2.35378e-09 -9.05832e-07 0)
(-2.37688e-09 -9.0343e-07 0)
(-2.39885e-09 -9.0098e-07 0)
(-2.41968e-09 -8.9848e-07 0)
(-2.43936e-09 -8.95933e-07 0)
(-2.45788e-09 -8.93337e-07 0)
(-2.47524e-09 -8.90694e-07 0)
(-2.49144e-09 -8.88004e-07 0)
(-2.50646e-09 -8.85268e-07 0)
(-2.52032e-09 -8.82486e-07 0)
(-2.533e-09 -8.7966e-07 0)
(-2.54451e-09 -8.76789e-07 0)
(-2.55484e-09 -8.73874e-07 0)
(-2.564e-09 -8.70916e-07 0)
(-2.57198e-09 -8.67916e-07 0)
(-2.57879e-09 -8.64875e-07 0)
(-2.58444e-09 -8.61794e-07 0)
(-2.58892e-09 -8.58673e-07 0)
(-2.59225e-09 -8.55513e-07 0)
(-2.59443e-09 -8.52316e-07 0)
(-2.59546e-09 -8.49082e-07 0)
(-2.59535e-09 -8.45813e-07 0)
(-2.5941e-09 -8.42506e-07 0)
(-2.59179e-09 -8.39173e-07 0)
(-2.58813e-09 -8.35765e-07 0)
(-2.58287e-09 -8.32004e-07 0)
(-2.57598e-09 -8.27885e-07 0)
(-2.56745e-09 -8.23693e-07 0)
(-2.55745e-09 -8.19525e-07 0)
(-2.54613e-09 -8.15398e-07 0)
(-2.5336e-09 -8.11295e-07 0)
(-2.5199e-09 -8.07208e-07 0)
(-2.50511e-09 -8.03141e-07 0)
(-2.48928e-09 -7.991e-07 0)
(-2.47248e-09 -7.95085e-07 0)
(-2.45476e-09 -7.911e-07 0)
(-2.43618e-09 -7.87143e-07 0)
(-2.4168e-09 -7.83217e-07 0)
(-2.39665e-09 -7.79323e-07 0)
(-2.3758e-09 -7.75462e-07 0)
(-2.35427e-09 -7.71636e-07 0)
(-2.33213e-09 -7.67845e-07 0)
(-2.3094e-09 -7.6409e-07 0)
(-2.28612e-09 -7.60373e-07 0)
(-2.26234e-09 -7.56693e-07 0)
(-2.23808e-09 -7.53053e-07 0)
(-2.21338e-09 -7.49452e-07 0)
(-2.18826e-09 -7.45892e-07 0)
(-2.16276e-09 -7.42372e-07 0)
(-2.1369e-09 -7.38894e-07 0)
(-2.11071e-09 -7.35459e-07 0)
(-2.08421e-09 -7.32065e-07 0)
(-2.05742e-09 -7.28715e-07 0)
(-2.03036e-09 -7.25409e-07 0)
(-2.00305e-09 -7.22147e-07 0)
(-1.97551e-09 -7.18929e-07 0)
(-1.94776e-09 -7.15755e-07 0)
(-1.91981e-09 -7.12627e-07 0)
(-1.89167e-09 -7.09544e-07 0)
(-1.86335e-09 -7.06507e-07 0)
(-1.83488e-09 -7.03516e-07 0)
(-1.80625e-09 -7.00571e-07 0)
(-1.77749e-09 -6.97672e-07 0)
(-1.74859e-09 -6.9482e-07 0)
(-1.71957e-09 -6.92015e-07 0)
(-1.69043e-09 -6.89257e-07 0)
(-1.66118e-09 -6.86546e-07 0)
(-1.63183e-09 -6.83883e-07 0)
(-1.60239e-09 -6.81267e-07 0)
(-1.57284e-09 -6.78699e-07 0)
(-1.54321e-09 -6.76178e-07 0)
(-1.5135e-09 -6.73706e-07 0)
(-1.4837e-09 -6.71282e-07 0)
(-1.45382e-09 -6.68906e-07 0)
(-1.42386e-09 -6.66579e-07 0)
(-1.39383e-09 -6.643e-07 0)
(-1.36373e-09 -6.62069e-07 0)
(-1.33355e-09 -6.59888e-07 0)
(-1.30331e-09 -6.57755e-07 0)
(-1.27299e-09 -6.55671e-07 0)
(-1.24261e-09 -6.53637e-07 0)
(-1.21215e-09 -6.51651e-07 0)
(-1.18163e-09 -6.49715e-07 0)
(-1.15104e-09 -6.47828e-07 0)
(-1.12038e-09 -6.45991e-07 0)
(-1.08966e-09 -6.44204e-07 0)
(-1.05887e-09 -6.42466e-07 0)
(-1.02801e-09 -6.40778e-07 0)
(-9.97084e-10 -6.3914e-07 0)
(-9.66093e-10 -6.37552e-07 0)
(-9.35036e-10 -6.36015e-07 0)
(-9.03913e-10 -6.34527e-07 0)
(-8.72725e-10 -6.3309e-07 0)
(-8.41471e-10 -6.31704e-07 0)
(-8.10154e-10 -6.30368e-07 0)
(-7.78773e-10 -6.29083e-07 0)
(-7.47329e-10 -6.27849e-07 0)
(-7.15824e-10 -6.26665e-07 0)
(-6.84257e-10 -6.25533e-07 0)
(-6.52632e-10 -6.24451e-07 0)
(-6.20948e-10 -6.23421e-07 0)
(-5.89208e-10 -6.22443e-07 0)
(-5.57414e-10 -6.21515e-07 0)
(-5.25567e-10 -6.20639e-07 0)
(-4.93668e-10 -6.19815e-07 0)
(-4.61722e-10 -6.19042e-07 0)
(-4.29729e-10 -6.18321e-07 0)
(-3.97692e-10 -6.17652e-07 0)
(-3.65614e-10 -6.17035e-07 0)
(-3.33498e-10 -6.16468e-07 0)
(-3.01347e-10 -6.15958e-07 0)
(-2.69161e-10 -6.15484e-07 0)
(-2.36952e-10 -6.15117e-07 0)
(-2.04698e-10 -6.14617e-07 0)
(-1.72484e-10 -6.14778e-07 0)
(-1.40045e-10 -6.12929e-07 0)
(-1.0828e-10 -6.17715e-07 0)
(-7.43214e-11 -5.99083e-07 0)
(-4.80164e-11 -6.48179e-07 0)
(-2.0138e-11 -5.66087e-07 0)
)
;
    }
    bottomWall
    {
        type            calculated;
        value           nonuniform List<vector> 
449
(
(-48.5266 -0.964024 0)
(-19.7493 -0.00515472 0)
(-14.3421 -0.00113475 0)
(-12.0325 -0.000545478 0)
(-10.6265 -0.0003515 0)
(-9.63266 -0.000255998 0)
(-8.87458 -0.000198489 0)
(-8.27106 -0.000159819 0)
(-7.77562 -0.000132328 0)
(-7.35898 -0.000111981 0)
(-7.00197 -9.638e-05 0)
(-6.69154 -8.40729e-05 0)
(-6.41838 -7.41549e-05 0)
(-6.17557 -6.60271e-05 0)
(-5.95788 -5.92701e-05 0)
(-5.76123 -5.35805e-05 0)
(-5.58242 -4.87361e-05 0)
(-5.41891 -4.45712e-05 0)
(-5.26862 -4.09596e-05 0)
(-5.12985 -3.7804e-05 0)
(-5.0012 -3.50276e-05 0)
(-4.88149 -3.25698e-05 0)
(-4.76972 -3.03817e-05 0)
(-4.66505 -2.84238e-05 0)
(-4.56675 -2.66635e-05 0)
(-4.47419 -2.50742e-05 0)
(-4.38685 -2.36335e-05 0)
(-4.30423 -2.23227e-05 0)
(-4.22593 -2.1126e-05 0)
(-4.15159 -2.00301e-05 0)
(-4.08086 -1.90234e-05 0)
(-4.01348 -1.80963e-05 0)
(-3.94918 -1.72401e-05 0)
(-3.88773 -1.64476e-05 0)
(-3.82893 -1.57123e-05 0)
(-3.77258 -1.50286e-05 0)
(-3.71853 -1.43917e-05 0)
(-3.66661 -1.37972e-05 0)
(-3.6167 -1.32412e-05 0)
(-3.56865 -1.27204e-05 0)
(-3.52237 -1.22317e-05 0)
(-3.47774 -1.17725e-05 0)
(-3.43466 -1.13404e-05 0)
(-3.39304 -1.09331e-05 0)
(-3.35282 -1.05487e-05 0)
(-3.31389 -1.01855e-05 0)
(-3.27621 -9.84187e-06 0)
(-3.2397 -9.5164e-06 0)
(-3.2043 -9.20777e-06 0)
(-3.16995 -8.9148e-06 0)
(-3.13661 -8.63639e-06 0)
(-3.10423 -8.37157e-06 0)
(-3.07275 -8.11944e-06 0)
(-3.04214 -7.87915e-06 0)
(-3.01236 -7.64996e-06 0)
(-2.98337 -7.43116e-06 0)
(-2.95514 -7.22211e-06 0)
(-2.92763 -7.02223e-06 0)
(-2.90081 -6.83095e-06 0)
(-2.87465 -6.64778e-06 0)
(-2.84913 -6.47225e-06 0)
(-2.82422 -6.30391e-06 0)
(-2.7999 -6.14238e-06 0)
(-2.77614 -5.98727e-06 0)
(-2.75291 -5.83824e-06 0)
(-2.73021 -5.69495e-06 0)
(-2.70801 -5.55712e-06 0)
(-2.6863 -5.42444e-06 0)
(-2.66504 -5.29667e-06 0)
(-2.64424 -5.17355e-06 0)
(-2.62387 -5.05486e-06 0)
(-2.60391 -4.94036e-06 0)
(-2.58436 -4.82987e-06 0)
(-2.5652 -4.72319e-06 0)
(-2.54641 -4.62015e-06 0)
(-2.52799 -4.52056e-06 0)
(-2.50992 -4.42428e-06 0)
(-2.49219 -4.33115e-06 0)
(-2.47479 -4.24103e-06 0)
(-2.45772 -4.1538e-06 0)
(-2.44095 -4.06932e-06 0)
(-2.42448 -3.98747e-06 0)
(-2.4083 -3.90815e-06 0)
(-2.3924 -3.83124e-06 0)
(-2.37678 -3.75665e-06 0)
(-2.36143 -3.68428e-06 0)
(-2.34633 -3.61404e-06 0)
(-2.33149 -3.54585e-06 0)
(-2.31689 -3.47962e-06 0)
(-2.30253 -3.41528e-06 0)
(-2.28839 -3.35275e-06 0)
(-2.27449 -3.29197e-06 0)
(-2.2608 -3.23286e-06 0)
(-2.24732 -3.17537e-06 0)
(-2.23406 -3.11943e-06 0)
(-2.22099 -3.06499e-06 0)
(-2.20812 -3.01199e-06 0)
(-2.19544 -2.96038e-06 0)
(-2.18295 -2.91011e-06 0)
(-2.17064 -2.86113e-06 0)
(-2.15851 -2.8134e-06 0)
(-2.14655 -2.76687e-06 0)
(-2.13476 -2.72151e-06 0)
(-2.12314 -2.67727e-06 0)
(-2.11168 -2.63412e-06 0)
(-2.10037 -2.59201e-06 0)
(-2.08922 -2.55092e-06 0)
(-2.07822 -2.51081e-06 0)
(-2.06736 -2.47165e-06 0)
(-2.05665 -2.4334e-06 0)
(-2.04608 -2.39605e-06 0)
(-2.03565 -2.35956e-06 0)
(-2.02535 -2.3239e-06 0)
(-2.01518 -2.28905e-06 0)
(-2.00514 -2.25498e-06 0)
(-1.99522 -2.22167e-06 0)
(-1.98543 -2.1891e-06 0)
(-1.97576 -2.15724e-06 0)
(-1.9662 -2.12607e-06 0)
(-1.95676 -2.09558e-06 0)
(-1.94744 -2.06574e-06 0)
(-1.93822 -2.03653e-06 0)
(-1.92912 -2.00794e-06 0)
(-1.92011 -1.97994e-06 0)
(-1.91122 -1.95253e-06 0)
(-1.90242 -1.92568e-06 0)
(-1.89373 -1.89938e-06 0)
(-1.88513 -1.87361e-06 0)
(-1.87663 -1.84836e-06 0)
(-1.86823 -1.82361e-06 0)
(-1.85991 -1.79936e-06 0)
(-1.85169 -1.77558e-06 0)
(-1.84356 -1.75227e-06 0)
(-1.83551 -1.72941e-06 0)
(-1.82755 -1.70699e-06 0)
(-1.81967 -1.68499e-06 0)
(-1.81188 -1.66342e-06 0)
(-1.80417 -1.64225e-06 0)
(-1.79654 -1.62149e-06 0)
(-1.78899 -1.6011e-06 0)
(-1.78151 -1.5811e-06 0)
(-1.77411 -1.56146e-06 0)
(-1.76678 -1.54218e-06 0)
(-1.75953 -1.52324e-06 0)
(-1.75235 -1.50465e-06 0)
(-1.74524 -1.48639e-06 0)
(-1.7382 -1.46846e-06 0)
(-1.73122 -1.45084e-06 0)
(-1.72432 -1.43354e-06 0)
(-1.71748 -1.41653e-06 0)
(-1.7107 -1.39982e-06 0)
(-1.70399 -1.38339e-06 0)
(-1.69735 -1.36725e-06 0)
(-1.69076 -1.35138e-06 0)
(-1.68424 -1.33578e-06 0)
(-1.67777 -1.32044e-06 0)
(-1.67136 -1.30536e-06 0)
(-1.66502 -1.29053e-06 0)
(-1.65872 -1.27594e-06 0)
(-1.65249 -1.26159e-06 0)
(-1.64631 -1.24748e-06 0)
(-1.64019 -1.23359e-06 0)
(-1.63411 -1.21993e-06 0)
(-1.6281 -1.20649e-06 0)
(-1.62213 -1.19326e-06 0)
(-1.61622 -1.18025e-06 0)
(-1.61035 -1.16743e-06 0)
(-1.60454 -1.15483e-06 0)
(-1.59877 -1.14244e-06 0)
(-1.59305 -1.13011e-06 0)
(-1.58739 -1.11843e-06 0)
(-1.58176 -1.10633e-06 0)
(-1.57619 -1.09318e-06 0)
(-1.57098 -1.08301e-06 0)
(-1.56607 -1.07478e-06 0)
(-1.56116 -1.06443e-06 0)
(-1.55624 -1.05374e-06 0)
(-1.55132 -1.04373e-06 0)
(-1.5464 -1.03369e-06 0)
(-1.54146 -1.02377e-06 0)
(-1.53653 -1.01392e-06 0)
(-1.53158 -1.00413e-06 0)
(-1.52663 -9.94401e-07 0)
(-1.52168 -9.84729e-07 0)
(-1.51672 -9.75114e-07 0)
(-1.51176 -9.65554e-07 0)
(-1.50679 -9.5605e-07 0)
(-1.50181 -9.46601e-07 0)
(-1.49684 -9.37207e-07 0)
(-1.49186 -9.27868e-07 0)
(-1.48687 -9.18585e-07 0)
(-1.48188 -9.09357e-07 0)
(-1.47689 -9.00185e-07 0)
(-1.47189 -8.91069e-07 0)
(-1.46689 -8.82009e-07 0)
(-1.46189 -8.73006e-07 0)
(-1.45689 -8.6406e-07 0)
(-1.45188 -8.5517e-07 0)
(-1.44687 -8.46337e-07 0)
(-1.44186 -8.37562e-07 0)
(-1.43685 -8.28845e-07 0)
(-1.43183 -8.20185e-07 0)
(-1.42682 -8.11583e-07 0)
(-1.4218 -8.0304e-07 0)
(-1.41678 -7.94555e-07 0)
(-1.41176 -7.86128e-07 0)
(-1.40674 -7.7776e-07 0)
(-1.40172 -7.6945e-07 0)
(-1.3967 -7.612e-07 0)
(-1.39168 -7.53009e-07 0)
(-1.38666 -7.44876e-07 0)
(-1.38164 -7.36803e-07 0)
(-1.37662 -7.28789e-07 0)
(-1.3716 -7.20835e-07 0)
(-1.36658 -7.1294e-07 0)
(-1.36157 -7.05104e-07 0)
(-1.35655 -6.97328e-07 0)
(-1.35154 -6.89612e-07 0)
(-1.34652 -6.81955e-07 0)
(-1.34151 -6.74358e-07 0)
(-1.33651 -6.66821e-07 0)
(-1.3315 -6.59343e-07 0)
(-1.3265 -6.51925e-07 0)
(-1.32149 -6.44566e-07 0)
(-1.3165 -6.37267e-07 0)
(-1.3115 -6.30027e-07 0)
(-1.30651 -6.22847e-07 0)
(-1.30152 -6.15726e-07 0)
(-1.29653 -6.08665e-07 0)
(-1.29155 -6.01663e-07 0)
(-1.28658 -5.9472e-07 0)
(-1.2816 -5.87837e-07 0)
(-1.27663 -5.81012e-07 0)
(-1.27167 -5.74246e-07 0)
(-1.26671 -5.67539e-07 0)
(-1.26175 -5.60891e-07 0)
(-1.2568 -5.54301e-07 0)
(-1.25185 -5.47769e-07 0)
(-1.24691 -5.41296e-07 0)
(-1.24198 -5.34881e-07 0)
(-1.23705 -5.28524e-07 0)
(-1.23212 -5.22225e-07 0)
(-1.22721 -5.15983e-07 0)
(-1.22229 -5.09799e-07 0)
(-1.21739 -5.03672e-07 0)
(-1.21249 -4.97602e-07 0)
(-1.2076 -4.91588e-07 0)
(-1.20271 -4.85632e-07 0)
(-1.19783 -4.79732e-07 0)
(-1.19296 -4.73888e-07 0)
(-1.18809 -4.681e-07 0)
(-1.18324 -4.62368e-07 0)
(-1.17839 -4.56691e-07 0)
(-1.17354 -4.5107e-07 0)
(-1.16871 -4.45504e-07 0)
(-1.16388 -4.39992e-07 0)
(-1.15906 -4.34535e-07 0)
(-1.15425 -4.29133e-07 0)
(-1.14945 -4.23784e-07 0)
(-1.14465 -4.18489e-07 0)
(-1.13986 -4.13248e-07 0)
(-1.13509 -4.0806e-07 0)
(-1.13032 -4.02925e-07 0)
(-1.12556 -3.97842e-07 0)
(-1.12081 -3.92812e-07 0)
(-1.11607 -3.87833e-07 0)
(-1.11133 -3.82907e-07 0)
(-1.10661 -3.78032e-07 0)
(-1.1019 -3.73208e-07 0)
(-1.09719 -3.68435e-07 0)
(-1.0925 -3.63713e-07 0)
(-1.08781 -3.59041e-07 0)
(-1.08314 -3.54418e-07 0)
(-1.07848 -3.49846e-07 0)
(-1.07382 -3.45322e-07 0)
(-1.06918 -3.40848e-07 0)
(-1.06454 -3.36422e-07 0)
(-1.05992 -3.32044e-07 0)
(-1.05531 -3.27715e-07 0)
(-1.05071 -3.23433e-07 0)
(-1.04612 -3.19198e-07 0)
(-1.04154 -3.15011e-07 0)
(-1.03697 -3.10869e-07 0)
(-1.03241 -3.06775e-07 0)
(-1.02787 -3.02726e-07 0)
(-1.02333 -2.98723e-07 0)
(-1.01881 -2.94765e-07 0)
(-1.0143 -2.90852e-07 0)
(-1.00979 -2.86984e-07 0)
(-1.00531 -2.8316e-07 0)
(-1.00083 -2.79379e-07 0)
(-0.996363 -2.75643e-07 0)
(-0.99191 -2.71949e-07 0)
(-0.987468 -2.68298e-07 0)
(-0.983039 -2.6469e-07 0)
(-0.978621 -2.61124e-07 0)
(-0.974216 -2.576e-07 0)
(-0.969823 -2.54117e-07 0)
(-0.965443 -2.50676e-07 0)
(-0.961075 -2.47275e-07 0)
(-0.956719 -2.43914e-07 0)
(-0.952376 -2.40594e-07 0)
(-0.948045 -2.37313e-07 0)
(-0.943728 -2.34071e-07 0)
(-0.939423 -2.30869e-07 0)
(-0.93513 -2.27705e-07 0)
(-0.930851 -2.2458e-07 0)
(-0.926584 -2.21492e-07 0)
(-0.922331 -2.18442e-07 0)
(-0.91809 -2.15429e-07 0)
(-0.913863 -2.12453e-07 0)
(-0.909649 -2.09514e-07 0)
(-0.905448 -2.06611e-07 0)
(-0.90126 -2.03744e-07 0)
(-0.897085 -2.00912e-07 0)
(-0.892924 -1.98116e-07 0)
(-0.888776 -1.95354e-07 0)
(-0.884641 -1.92627e-07 0)
(-0.88052 -1.89934e-07 0)
(-0.876413 -1.87275e-07 0)
(-0.872319 -1.84649e-07 0)
(-0.868238 -1.82057e-07 0)
(-0.864171 -1.79497e-07 0)
(-0.860118 -1.7697e-07 0)
(-0.856079 -1.74475e-07 0)
(-0.852053 -1.72011e-07 0)
(-0.848041 -1.6958e-07 0)
(-0.844042 -1.67179e-07 0)
(-0.840058 -1.6481e-07 0)
(-0.836087 -1.6247e-07 0)
(-0.83213 -1.60161e-07 0)
(-0.828187 -1.57882e-07 0)
(-0.824258 -1.55633e-07 0)
(-0.820343 -1.53413e-07 0)
(-0.816441 -1.51221e-07 0)
(-0.812554 -1.49059e-07 0)
(-0.808681 -1.46924e-07 0)
(-0.804821 -1.44818e-07 0)
(-0.800976 -1.42739e-07 0)
(-0.797145 -1.40688e-07 0)
(-0.793328 -1.38664e-07 0)
(-0.789525 -1.36666e-07 0)
(-0.785735 -1.34695e-07 0)
(-0.78196 -1.3275e-07 0)
(-0.7782 -1.30831e-07 0)
(-0.774453 -1.28937e-07 0)
(-0.77072 -1.27069e-07 0)
(-0.767002 -1.25225e-07 0)
(-0.763297 -1.23404e-07 0)
(-0.759607 -1.2161e-07 0)
(-0.755931 -1.19835e-07 0)
(-0.75227 -1.18047e-07 0)
(-0.748625 -1.16409e-07 0)
(-0.744986 -1.14782e-07 0)
(-0.740958 -1.12795e-07 0)
(-0.736589 -1.10685e-07 0)
(-0.732299 -1.08785e-07 0)
(-0.728078 -1.06987e-07 0)
(-0.723929 -1.05177e-07 0)
(-0.71985 -1.03402e-07 0)
(-0.715839 -1.01673e-07 0)
(-0.711895 -9.999e-08 0)
(-0.708017 -9.83522e-08 0)
(-0.704201 -9.6758e-08 0)
(-0.700447 -9.52061e-08 0)
(-0.696753 -9.36951e-08 0)
(-0.693117 -9.22236e-08 0)
(-0.689538 -9.07903e-08 0)
(-0.686014 -8.93936e-08 0)
(-0.682544 -8.80324e-08 0)
(-0.679127 -8.67055e-08 0)
(-0.675761 -8.54115e-08 0)
(-0.672445 -8.41494e-08 0)
(-0.669178 -8.29181e-08 0)
(-0.665958 -8.17165e-08 0)
(-0.662785 -8.05437e-08 0)
(-0.659657 -7.93987e-08 0)
(-0.656573 -7.82806e-08 0)
(-0.653533 -7.71885e-08 0)
(-0.650534 -7.61216e-08 0)
(-0.647577 -7.5079e-08 0)
(-0.644661 -7.40601e-08 0)
(-0.641784 -7.3064e-08 0)
(-0.638945 -7.20901e-08 0)
(-0.636144 -7.11377e-08 0)
(-0.63338 -7.02061e-08 0)
(-0.630651 -6.92947e-08 0)
(-0.627958 -6.84028e-08 0)
(-0.6253 -6.753e-08 0)
(-0.622675 -6.66757e-08 0)
(-0.620084 -6.58393e-08 0)
(-0.617525 -6.50202e-08 0)
(-0.614997 -6.42181e-08 0)
(-0.612501 -6.34324e-08 0)
(-0.610035 -6.26626e-08 0)
(-0.607598 -6.19084e-08 0)
(-0.605191 -6.11693e-08 0)
(-0.602813 -6.04448e-08 0)
(-0.600463 -5.97347e-08 0)
(-0.59814 -5.90384e-08 0)
(-0.595844 -5.83556e-08 0)
(-0.593574 -5.76861e-08 0)
(-0.591331 -5.70293e-08 0)
(-0.589113 -5.6385e-08 0)
(-0.58692 -5.5753e-08 0)
(-0.584751 -5.51328e-08 0)
(-0.582607 -5.45241e-08 0)
(-0.580486 -5.39268e-08 0)
(-0.578388 -5.33404e-08 0)
(-0.576313 -5.27648e-08 0)
(-0.57426 -5.21997e-08 0)
(-0.572229 -5.16448e-08 0)
(-0.57022 -5.11e-08 0)
(-0.568231 -5.05649e-08 0)
(-0.566264 -5.00393e-08 0)
(-0.564317 -4.95232e-08 0)
(-0.562389 -4.90161e-08 0)
(-0.560482 -4.85181e-08 0)
(-0.558594 -4.80288e-08 0)
(-0.556725 -4.75482e-08 0)
(-0.554874 -4.7076e-08 0)
(-0.553042 -4.66121e-08 0)
(-0.551227 -4.61564e-08 0)
(-0.549431 -4.57088e-08 0)
(-0.547652 -4.52692e-08 0)
(-0.545889 -4.48374e-08 0)
(-0.544144 -4.44135e-08 0)
(-0.542415 -4.39974e-08 0)
(-0.540702 -4.35891e-08 0)
(-0.539005 -4.31887e-08 0)
(-0.537323 -4.27962e-08 0)
(-0.535657 -4.2412e-08 0)
(-0.534005 -4.20361e-08 0)
(-0.532368 -4.16692e-08 0)
(-0.530745 -4.13118e-08 0)
(-0.529136 -4.09647e-08 0)
(-0.527541 -4.06296e-08 0)
(-0.525958 -4.03075e-08 0)
(-0.524387 -4.00017e-08 0)
(-0.522828 -3.97246e-08 0)
(-0.52128 -3.9446e-08 0)
(-0.519742 -3.92251e-08 0)
(-0.518211 -3.92851e-08 0)
(-0.516669 -3.86066e-08 0)
(-0.515191 -3.77369e-08 0)
(-0.513717 -4.98806e-08 0)
(-0.511288 -1.39398e-08 0)
(-0.512638 -3.68061e-08 0)
(-0.508366 -5.55341e-08 0)
)
;
    }
    symmetry
    {
        type            symmetryPlane;
    }
    frontAndBack
    {
        type            empty;
    }
}


// ************************************************************************* //
