/*--------------------------------*- C++ -*----------------------------------*\
| =========                 |                                                 |
| \\      /  F ield         | OpenFOAM: The Open Source CFD Toolbox           |
|  \\    /   O peration     | Version:  v2012                                 |
|   \\  /    A nd           | Website:  www.openfoam.com                      |
|    \\/     M anipulation  |                                                 |
\*---------------------------------------------------------------------------*/
FoamFile
{
    version     2.0;
    format      ascii;
    class       volScalarField;
    location    "20.5";
    object      k;
}
// * * * * * * * * * * * * * * * * * * * * * * * * * * * * * * * * * * * * * //

dimensions      [0 2 -2 0 0 0 0];


internalField   nonuniform List<scalar> 
209825
(
0.00101987
0.0009353
0.000882106
0.000848221
0.000825442
0.000809309
0.000797367
0.000788247
0.000781094
0.000775378
0.000770727
0.000766896
0.000763698
0.000761007
0.000758715
0.000756757
0.000755063
0.000753594
0.000752306
0.000751187
0.000750191
0.000749317
0.000748528
0.000747843
0.000747215
0.000746658
0.000746145
0.000745705
0.00074529
0.00074493
0.000744582
0.000744307
0.000744019
0.000743767
0.00074353
0.000743349
0.000743161
0.000743001
0.000742842
0.000742734
0.000742596
0.000742483
0.000742381
0.000742315
0.000742178
0.000742109
0.00074207
0.000742046
0.000742023
0.000741986
0.00074189
0.000741884
0.000741879
0.000741869
0.000741821
0.000741903
0.000741903
0.000741902
0.000742029
0.000742048
0.000742048
0.000742139
0.000742241
0.000742409
0.000742549
0.000742716
0.000742816
0.000742966
0.000743058
0.000743227
0.000743368
0.000743574
0.000743703
0.000743913
0.00074406
0.000744293
0.000744436
0.000744708
0.000744879
0.000745188
0.000745353
0.000745697
0.000745887
0.000746286
0.000746512
0.00074699
0.00074726
0.000747826
0.00074814
0.000748854
0.000749196
0.000750384
0.000750661
0.000761876
0.000810257
0.00209139
0.00101987
0.000935298
0.000882101
0.000848212
0.00082543
0.000809294
0.000797351
0.000788229
0.000781075
0.000775357
0.000770705
0.000766874
0.000763675
0.000760983
0.000758691
0.000756733
0.000755038
0.000753569
0.00075228
0.000751162
0.000750166
0.000749291
0.000748502
0.000747817
0.000747188
0.000746631
0.000746118
0.000745678
0.000745263
0.000744903
0.000744555
0.000744279
0.000743992
0.000743739
0.000743503
0.000743321
0.000743133
0.000742974
0.000742815
0.000742707
0.000742569
0.000742455
0.000742353
0.000742287
0.00074215
0.000742081
0.000742042
0.000742018
0.000741995
0.000741958
0.000741862
0.000741856
0.000741851
0.000741841
0.000741793
0.000741874
0.000741874
0.000741874
0.000742001
0.00074202
0.00074202
0.00074211
0.000742213
0.00074238
0.00074252
0.000742688
0.000742788
0.000742938
0.00074303
0.000743199
0.00074334
0.000743546
0.000743674
0.000743885
0.000744032
0.000744264
0.000744408
0.000744679
0.00074485
0.00074516
0.000745325
0.000745669
0.000745859
0.000746257
0.000746484
0.000746961
0.000747231
0.000747798
0.000748112
0.000748826
0.000749168
0.000750356
0.000750632
0.000761869
0.000810255
0.00209266
0.00101987
0.000935289
0.000882075
0.00084817
0.000825377
0.000809231
0.00079728
0.000788153
0.000780994
0.000775272
0.000770617
0.000766783
0.000763582
0.000760888
0.000758594
0.000756634
0.000754938
0.000753468
0.000752178
0.000751059
0.000750062
0.000749186
0.000748396
0.000747711
0.000747082
0.000746524
0.000746011
0.000745571
0.000745155
0.000744795
0.000744446
0.000744171
0.000743883
0.00074363
0.000743393
0.000743211
0.000743023
0.000742863
0.000742704
0.000742596
0.000742458
0.000742344
0.000742243
0.000742176
0.000742039
0.00074197
0.000741931
0.000741907
0.000741883
0.000741846
0.00074175
0.000741744
0.00074174
0.000741729
0.000741681
0.000741762
0.000741762
0.000741762
0.000741889
0.000741908
0.000741908
0.000741998
0.000742101
0.000742268
0.000742408
0.000742575
0.000742675
0.000742825
0.000742917
0.000743086
0.000743227
0.000743433
0.000743562
0.000743772
0.000743919
0.000744151
0.000744295
0.000744566
0.000744737
0.000745047
0.000745211
0.000745556
0.000745746
0.000746144
0.00074637
0.000746847
0.000747117
0.000747684
0.000747998
0.000748712
0.000749053
0.000750241
0.000750516
0.000761797
0.000810187
0.00209517
0.00101987
0.000935274
0.00088203
0.0008481
0.000825286
0.000809124
0.000797161
0.000788024
0.000780857
0.000775129
0.000770469
0.00076663
0.000763425
0.000760728
0.000758431
0.000756469
0.000754771
0.000753298
0.000752007
0.000750886
0.000749888
0.000749011
0.00074822
0.000747534
0.000746904
0.000746345
0.000745831
0.00074539
0.000744974
0.000744613
0.000744264
0.000743988
0.0007437
0.000743446
0.000743209
0.000743027
0.000742839
0.000742679
0.000742519
0.000742411
0.000742272
0.000742158
0.000742056
0.00074199
0.000741852
0.000741784
0.000741744
0.00074172
0.000741696
0.000741659
0.000741563
0.000741557
0.000741552
0.000741542
0.000741493
0.000741574
0.000741574
0.000741574
0.0007417
0.00074172
0.000741719
0.00074181
0.000741912
0.000742079
0.000742219
0.000742386
0.000742486
0.000742636
0.000742728
0.000742897
0.000743038
0.000743244
0.000743372
0.000743583
0.000743729
0.000743962
0.000744105
0.000744376
0.000744548
0.000744857
0.000745022
0.000745366
0.000745555
0.000745954
0.00074618
0.000746657
0.000746926
0.000747492
0.000747806
0.00074852
0.000748861
0.000750049
0.000750322
0.000761672
0.000810058
0.00209811
0.00101988
0.000935252
0.000881967
0.000848
0.000825157
0.000808974
0.000796993
0.000787842
0.000780664
0.000774927
0.000770259
0.000766414
0.000763204
0.000760502
0.000758201
0.000756236
0.000754534
0.000753059
0.000751766
0.000750642
0.000749642
0.000748764
0.000747971
0.000747284
0.000746653
0.000746093
0.000745578
0.000745136
0.000744719
0.000744357
0.000744007
0.00074373
0.000743442
0.000743188
0.00074295
0.000742767
0.000742578
0.000742418
0.000742258
0.000742149
0.000742011
0.000741896
0.000741794
0.000741727
0.00074159
0.000741521
0.000741481
0.000741456
0.000741432
0.000741396
0.0007413
0.000741293
0.000741288
0.000741278
0.000741229
0.000741309
0.000741309
0.000741308
0.000741435
0.000741454
0.000741454
0.000741544
0.000741646
0.000741813
0.000741952
0.00074212
0.00074222
0.00074237
0.000742462
0.00074263
0.000742771
0.000742977
0.000743105
0.000743316
0.000743462
0.000743695
0.000743838
0.000744109
0.00074428
0.000744589
0.000744754
0.000745098
0.000745287
0.000745685
0.000745911
0.000746388
0.000746657
0.000747223
0.000747536
0.000748249
0.00074859
0.000749778
0.000750049
0.000761494
0.000809859
0.00210145
0.00101989
0.000935224
0.000881886
0.000847871
0.000824991
0.000808779
0.000796776
0.000787607
0.000780415
0.000774666
0.000769988
0.000766134
0.000762917
0.000760209
0.000757903
0.000755933
0.000754228
0.000752749
0.000751453
0.000750327
0.000749324
0.000748443
0.000747649
0.00074696
0.000746327
0.000745765
0.000745249
0.000744806
0.000744388
0.000744025
0.000743674
0.000743396
0.000743107
0.000742853
0.000742614
0.000742431
0.000742241
0.00074208
0.00074192
0.000741811
0.000741672
0.000741557
0.000741454
0.000741387
0.000741249
0.00074118
0.00074114
0.000741115
0.000741091
0.000741054
0.000740958
0.000740951
0.000740946
0.000740935
0.000740886
0.000740966
0.000740966
0.000740965
0.000741091
0.00074111
0.000741109
0.0007412
0.000741302
0.000741468
0.000741607
0.000741775
0.000741875
0.000742025
0.000742116
0.000742285
0.000742425
0.000742631
0.000742759
0.00074297
0.000743116
0.000743348
0.000743491
0.000743762
0.000743933
0.000744242
0.000744407
0.00074475
0.00074494
0.000745337
0.000745563
0.000746039
0.000746308
0.000746873
0.000747186
0.000747898
0.000748238
0.000749426
0.000749694
0.000761262
0.00080959
0.00210511
0.0010199
0.000935189
0.000881786
0.000847713
0.000824787
0.000808539
0.000796508
0.000787317
0.000780107
0.000774343
0.000769654
0.00076579
0.000762564
0.000759849
0.000757536
0.00075556
0.00075385
0.000752367
0.000751067
0.000749937
0.000748932
0.000748049
0.000747252
0.00074656
0.000745925
0.000745362
0.000744844
0.000744399
0.00074398
0.000743616
0.000743264
0.000742985
0.000742695
0.000742439
0.0007422
0.000742016
0.000741825
0.000741664
0.000741503
0.000741393
0.000741253
0.000741138
0.000741035
0.000740967
0.00074083
0.000740759
0.000740719
0.000740693
0.000740669
0.000740632
0.000740537
0.000740529
0.000740524
0.000740513
0.000740463
0.000740542
0.000740542
0.000740541
0.000740667
0.000740685
0.000740685
0.000740775
0.000740877
0.000741043
0.000741182
0.000741349
0.000741449
0.000741599
0.000741691
0.000741858
0.000741999
0.000742204
0.000742333
0.000742543
0.000742689
0.000742921
0.000743064
0.000743335
0.000743505
0.000743814
0.000743978
0.000744322
0.000744511
0.000744908
0.000745134
0.000745609
0.000745878
0.000746442
0.000746755
0.000747466
0.000747805
0.000748993
0.000749257
0.000760977
0.00080925
0.00210895
0.00101991
0.000935148
0.000881668
0.000847525
0.000824544
0.000808253
0.00079619
0.000786972
0.000779741
0.00077396
0.000769255
0.000765379
0.000762143
0.000759419
0.000757099
0.000755116
0.0007534
0.000751912
0.000750607
0.000749473
0.000748464
0.000747578
0.000746778
0.000746083
0.000745446
0.000744881
0.000744361
0.000743914
0.000743493
0.000743128
0.000742775
0.000742494
0.000742203
0.000741946
0.000741706
0.000741521
0.000741329
0.000741167
0.000741005
0.000740895
0.000740755
0.000740639
0.000740535
0.000740467
0.000740329
0.000740258
0.000740217
0.000740191
0.000740166
0.000740129
0.000740034
0.000740026
0.000740021
0.000740009
0.000739958
0.000740037
0.000740037
0.000740035
0.000740161
0.000740179
0.000740179
0.000740269
0.00074037
0.000740535
0.000740674
0.000740841
0.000740941
0.000741092
0.000741183
0.00074135
0.00074149
0.000741696
0.000741824
0.000742034
0.00074218
0.000742412
0.000742554
0.000742825
0.000742995
0.000743303
0.000743468
0.000743811
0.000744
0.000744396
0.000744621
0.000745096
0.000745364
0.000745928
0.00074624
0.00074695
0.000747288
0.000748476
0.000748736
0.000760639
0.000808839
0.00211271
0.00101993
0.000935101
0.00088153
0.000847307
0.000824262
0.000807922
0.000795819
0.000786571
0.000779315
0.000773513
0.000768792
0.000764901
0.000761653
0.000758919
0.000756589
0.000754599
0.000752876
0.000751382
0.000750072
0.000748933
0.00074792
0.000747029
0.000746226
0.000745529
0.000744889
0.000744321
0.000743799
0.00074335
0.000742927
0.00074256
0.000742205
0.000741923
0.00074163
0.000741372
0.000741131
0.000740944
0.000740752
0.000740589
0.000740426
0.000740315
0.000740174
0.000740057
0.000739953
0.000739884
0.000739746
0.000739675
0.000739633
0.000739606
0.000739581
0.000739544
0.000739449
0.00073944
0.000739434
0.000739422
0.000739371
0.000739448
0.000739448
0.000739446
0.000739571
0.000739589
0.000739589
0.000739679
0.000739779
0.000739944
0.000740083
0.00074025
0.00074035
0.000740501
0.000740591
0.000740758
0.000740898
0.000741103
0.000741231
0.000741441
0.000741586
0.000741819
0.000741961
0.000742231
0.0007424
0.000742709
0.000742873
0.000743215
0.000743404
0.0007438
0.000744025
0.000744498
0.000744766
0.000745329
0.00074564
0.000746349
0.000746685
0.000747874
0.000748129
0.000760248
0.000808357
0.00211602
0.00101994
0.000935048
0.000881374
0.000847058
0.00082394
0.000807543
0.000795396
0.000786113
0.000778828
0.000773003
0.000768262
0.000764355
0.000761093
0.000758347
0.000756007
0.000754008
0.000752277
0.000750776
0.00074946
0.000748316
0.000747297
0.000746403
0.000745595
0.000744894
0.000744251
0.00074368
0.000743156
0.000742704
0.000742279
0.00074191
0.000741553
0.000741269
0.000740975
0.000740716
0.000740473
0.000740285
0.000740091
0.000739927
0.000739763
0.000739651
0.00073951
0.000739392
0.000739287
0.000739218
0.000739079
0.000739007
0.000738964
0.000738937
0.000738911
0.000738874
0.00073878
0.00073877
0.000738764
0.000738751
0.000738699
0.000738775
0.000738775
0.000738773
0.000738897
0.000738915
0.000738914
0.000739005
0.000739104
0.000739269
0.000739406
0.000739573
0.000739673
0.000739824
0.000739915
0.000740081
0.00074022
0.000740425
0.000740553
0.000740763
0.000740908
0.00074114
0.000741282
0.000741551
0.00074172
0.000742029
0.000742193
0.000742534
0.000742723
0.000743118
0.000743342
0.000743815
0.000744082
0.000744643
0.000744954
0.000745661
0.000745996
0.000747185
0.000747435
0.000759804
0.000807803
0.00211834
0.00101996
0.000934989
0.000881199
0.000846779
0.000823578
0.000807117
0.00079492
0.000785597
0.00077828
0.000772428
0.000767665
0.00076374
0.000760462
0.000757702
0.000755351
0.000753341
0.000751602
0.000750093
0.000748769
0.000747619
0.000746595
0.000745696
0.000744884
0.000744179
0.000743532
0.000742958
0.00074243
0.000741976
0.000741548
0.000741177
0.000740818
0.000740532
0.000740236
0.000739975
0.00073973
0.000739541
0.000739346
0.000739181
0.000739016
0.000738902
0.00073876
0.000738642
0.000738535
0.000738466
0.000738327
0.000738254
0.00073821
0.000738182
0.000738156
0.000738119
0.000738024
0.000738013
0.000738007
0.000737994
0.000737941
0.000738015
0.000738015
0.000738013
0.000738137
0.000738153
0.000738153
0.000738244
0.000738342
0.000738506
0.000738643
0.00073881
0.00073891
0.000739061
0.000739151
0.000739317
0.000739455
0.00073966
0.000739788
0.000739997
0.000740142
0.000740374
0.000740515
0.000740785
0.000740953
0.000741261
0.000741425
0.000741766
0.000741954
0.000742348
0.000742572
0.000743043
0.00074331
0.00074387
0.00074418
0.000744885
0.000745219
0.000746407
0.000746652
0.000759306
0.000807175
0.00211893
0.00101998
0.000934923
0.000881006
0.000846469
0.000823176
0.000806643
0.00079439
0.000785022
0.000777669
0.000771788
0.000767
0.000763054
0.000759759
0.000756983
0.000754619
0.000752598
0.000750849
0.000749331
0.000748
0.000746842
0.000745813
0.000744907
0.00074409
0.000743381
0.00074273
0.000742152
0.000741621
0.000741164
0.000740733
0.000740359
0.000739997
0.000739709
0.000739411
0.000739149
0.000738902
0.000738711
0.000738515
0.000738349
0.000738182
0.000738067
0.000737924
0.000737805
0.000737697
0.000737627
0.000737488
0.000737414
0.000737369
0.00073734
0.000737313
0.000737276
0.000737182
0.00073717
0.000737163
0.000737149
0.000737095
0.000737168
0.000737168
0.000737165
0.000737288
0.000737304
0.000737304
0.000737394
0.000737492
0.000737655
0.000737791
0.000737958
0.000738058
0.00073821
0.0007383
0.000738464
0.000738602
0.000738807
0.000738934
0.000739143
0.000739288
0.000739519
0.00073966
0.000739929
0.000740097
0.000740405
0.000740568
0.000740909
0.000741096
0.00074149
0.000741713
0.000742183
0.000742449
0.000743007
0.000743316
0.00074402
0.000744352
0.00074554
0.000745779
0.000758755
0.000806475
0.00211696
0.00102
0.000934852
0.000880793
0.000846128
0.000822733
0.000806121
0.000793806
0.000784389
0.000776996
0.000771081
0.000766266
0.000762297
0.000758982
0.00075619
0.000753811
0.000751777
0.000750017
0.000748489
0.000747149
0.000745984
0.000744948
0.000744036
0.000743214
0.000742499
0.000741844
0.000741262
0.000740727
0.000740266
0.000739832
0.000739455
0.000739091
0.0007388
0.0007385
0.000738236
0.000737987
0.000737794
0.000737596
0.000737428
0.00073726
0.000737144
0.000737
0.00073688
0.000736771
0.0007367
0.00073656
0.000736485
0.000736439
0.000736409
0.000736382
0.000736344
0.00073625
0.000736237
0.00073623
0.000736215
0.00073616
0.000736232
0.000736231
0.000736228
0.00073635
0.000736366
0.000736366
0.000736456
0.000736553
0.000736714
0.00073685
0.000737016
0.000737117
0.000737269
0.000737358
0.000737522
0.000737659
0.000737863
0.000737991
0.000738199
0.000738343
0.000738575
0.000738715
0.000738983
0.000739151
0.000739458
0.000739621
0.000739961
0.000740148
0.00074054
0.000740763
0.000741231
0.000741497
0.000742053
0.000742361
0.000743063
0.000743393
0.000744581
0.000744813
0.000758151
0.000805699
0.00211245
0.00102003
0.000934775
0.000880562
0.000845757
0.00082225
0.00080555
0.000793167
0.000783695
0.000776258
0.000770307
0.000765462
0.000761468
0.000758131
0.00075532
0.000752925
0.000750877
0.000749105
0.000747566
0.000746217
0.000745043
0.000743999
0.000743081
0.000742252
0.000741532
0.000740872
0.000740285
0.000739746
0.000739281
0.000738844
0.000738464
0.000738097
0.000737803
0.000737501
0.000737234
0.000736983
0.000736788
0.000736589
0.000736419
0.000736249
0.000736132
0.000735986
0.000735865
0.000735754
0.000735683
0.000735543
0.000735466
0.000735419
0.000735388
0.000735359
0.000735321
0.000735228
0.000735214
0.000735206
0.000735191
0.000735134
0.000735204
0.000735204
0.0007352
0.000735321
0.000735336
0.000735336
0.000735426
0.000735522
0.000735683
0.000735817
0.000735983
0.000736083
0.000736236
0.000736325
0.000736488
0.000736624
0.000736828
0.000736955
0.000737163
0.000737307
0.000737538
0.000737678
0.000737946
0.000738112
0.000738419
0.000738582
0.000738921
0.000739108
0.000739499
0.000739721
0.000740187
0.000740452
0.000741007
0.000741314
0.000742013
0.00074234
0.00074353
0.000743755
0.000757491
0.000804848
0.00210541
0.00102005
0.000934692
0.000880313
0.000845355
0.000821725
0.000804931
0.000792473
0.000782941
0.000775456
0.000769465
0.000764587
0.000760565
0.000757204
0.000754373
0.000751961
0.000749898
0.000748111
0.000746561
0.000745201
0.000744018
0.000742966
0.00074204
0.000741205
0.000740478
0.000739812
0.000739221
0.000738677
0.000738208
0.000737767
0.000737384
0.000737013
0.000736717
0.000736412
0.000736143
0.000735889
0.000735692
0.00073549
0.000735319
0.000735147
0.000735028
0.000734881
0.000734759
0.000734647
0.000734574
0.000734433
0.000734355
0.000734307
0.000734275
0.000734245
0.000734207
0.000734114
0.000734099
0.00073409
0.000734074
0.000734016
0.000734084
0.000734084
0.00073408
0.000734199
0.000734213
0.000734213
0.000734303
0.000734398
0.000734558
0.000734692
0.000734857
0.000734957
0.00073511
0.000735198
0.000735361
0.000735495
0.0007357
0.000735826
0.000736034
0.000736177
0.000736408
0.000736548
0.000736814
0.00073698
0.000737286
0.000737449
0.000737787
0.000737973
0.000738363
0.000738584
0.000739049
0.000739313
0.000739866
0.000740171
0.000740869
0.000741194
0.000742383
0.000742601
0.000756777
0.00080392
0.00209589
0.00102008
0.000934605
0.000880045
0.000844921
0.00082116
0.000804262
0.000791723
0.000782126
0.000774588
0.000768554
0.000763641
0.000759587
0.000756201
0.000753348
0.000750916
0.000748836
0.000747036
0.000745473
0.000744101
0.000742908
0.000741846
0.000740913
0.00074007
0.000739337
0.000738665
0.000738068
0.000737519
0.000737046
0.0007366
0.000736213
0.000735839
0.000735539
0.000735232
0.00073496
0.000734704
0.000734504
0.0007343
0.000734127
0.000733953
0.000733832
0.000733684
0.00073356
0.000733446
0.000733373
0.000733231
0.000733152
0.000733101
0.000733069
0.000733038
0.000733
0.000732906
0.00073289
0.000732881
0.000732864
0.000732805
0.00073287
0.00073287
0.000732865
0.000732983
0.000732997
0.000732997
0.000733086
0.00073318
0.000733338
0.000733471
0.000733637
0.000733737
0.00073389
0.000733977
0.000734139
0.000734272
0.000734476
0.000734603
0.00073481
0.000734952
0.000735183
0.000735322
0.000735588
0.000735753
0.000736059
0.000736221
0.000736558
0.000736744
0.000737132
0.000737352
0.000737816
0.000738078
0.000738629
0.000738933
0.000739628
0.00073995
0.00074114
0.00074135
0.000756006
0.000802914
0.00208394
0.00102011
0.000934512
0.000879759
0.000844457
0.000820553
0.000803543
0.000790916
0.000781249
0.000773654
0.000767574
0.000762621
0.000758535
0.000755121
0.000752244
0.000749791
0.000747693
0.000745876
0.000744299
0.000742916
0.000741712
0.00074064
0.000739697
0.000738847
0.000738106
0.000737428
0.000736825
0.000736271
0.000735793
0.000735342
0.000734951
0.000734573
0.00073427
0.000733959
0.000733685
0.000733425
0.000733223
0.000733017
0.000732841
0.000732665
0.000732542
0.000732392
0.000732267
0.000732151
0.000732077
0.000731935
0.000731853
0.000731801
0.000731768
0.000731736
0.000731697
0.000731604
0.000731586
0.000731576
0.000731559
0.000731498
0.000731561
0.000731561
0.000731555
0.000731672
0.000731684
0.000731684
0.000731774
0.000731866
0.000732023
0.000732155
0.00073232
0.00073242
0.000732573
0.00073266
0.000732821
0.000732953
0.000733157
0.000733283
0.00073349
0.000733631
0.000733862
0.000734
0.000734265
0.000734429
0.000734734
0.000734896
0.000735232
0.000735417
0.000735804
0.000736024
0.000736485
0.000736746
0.000737295
0.000737598
0.00073829
0.000738609
0.0007398
0.000740002
0.000755177
0.000801827
0.00206962
0.00102015
0.000934414
0.000879455
0.000843963
0.000819905
0.000802774
0.000790053
0.00078031
0.000772654
0.000766523
0.000761528
0.000757407
0.000753962
0.000751059
0.000748584
0.000746466
0.000744633
0.00074304
0.000741643
0.000740427
0.000739345
0.000738393
0.000737534
0.000736785
0.0007361
0.000735491
0.000734931
0.000734447
0.000733992
0.000733597
0.000733214
0.000732907
0.000732592
0.000732315
0.000732053
0.000731847
0.000731638
0.000731461
0.000731282
0.000731157
0.000731006
0.000730879
0.000730761
0.000730685
0.000730542
0.000730459
0.000730406
0.000730371
0.000730337
0.000730298
0.000730205
0.000730186
0.000730175
0.000730157
0.000730094
0.000730155
0.000730155
0.000730148
0.000730263
0.000730275
0.000730275
0.000730364
0.000730455
0.000730611
0.000730742
0.000730906
0.000731006
0.000731159
0.000731246
0.000731405
0.000731536
0.000731739
0.000731865
0.000732072
0.000732212
0.000732442
0.00073258
0.000732844
0.000733007
0.000733312
0.000733473
0.000733808
0.000733992
0.000734378
0.000734596
0.000735055
0.000735316
0.000735862
0.000736163
0.000736852
0.000737168
0.00073836
0.000738554
0.00075429
0.000800658
0.00205301
0.00102018
0.000934311
0.000879133
0.000843437
0.000819215
0.000801956
0.000789133
0.000779309
0.000771587
0.000765401
0.000760361
0.000756201
0.000752725
0.000749793
0.000747294
0.000745155
0.000743303
0.000741695
0.000740283
0.000739054
0.00073796
0.000736998
0.000736129
0.000735373
0.00073468
0.000734064
0.000733497
0.000733008
0.000732547
0.000732147
0.00073176
0.000731449
0.000731131
0.00073085
0.000730584
0.000730376
0.000730164
0.000729984
0.000729803
0.000729675
0.000729522
0.000729394
0.000729273
0.000729197
0.000729053
0.000728968
0.000728912
0.000728876
0.000728841
0.000728801
0.000728709
0.000728688
0.000728676
0.000728657
0.000728593
0.000728651
0.000728651
0.000728643
0.000728756
0.000728767
0.000728767
0.000728856
0.000728945
0.000729099
0.000729229
0.000729393
0.000729493
0.000729646
0.000729732
0.00072989
0.00073002
0.000730223
0.000730348
0.000730554
0.000730694
0.000730923
0.00073106
0.000731324
0.000731486
0.000731789
0.00073195
0.000732284
0.000732467
0.000732851
0.000733069
0.000733526
0.000733785
0.000734328
0.000734628
0.000735314
0.000735627
0.000736819
0.000737005
0.000753341
0.000799404
0.00203417
0.00102022
0.000934204
0.000878794
0.000842882
0.000818484
0.000801087
0.000788155
0.000778244
0.000770452
0.000764208
0.000759119
0.000754918
0.000751407
0.000748445
0.000745921
0.000743759
0.000741887
0.000740261
0.000738834
0.000737591
0.000736485
0.000735512
0.000734633
0.000733867
0.000733166
0.000732543
0.00073197
0.000731474
0.000731008
0.000730603
0.000730211
0.000729894
0.000729573
0.000729288
0.000729019
0.000728807
0.000728592
0.00072841
0.000728226
0.000728096
0.00072794
0.00072781
0.000727688
0.000727609
0.000727464
0.000727378
0.00072732
0.000727282
0.000727245
0.000727206
0.000727113
0.00072709
0.000727078
0.000727057
0.000726992
0.000727047
0.000727047
0.000727038
0.00072715
0.000727159
0.000727159
0.000727248
0.000727335
0.000727488
0.000727616
0.000727779
0.000727879
0.000728033
0.000728118
0.000728274
0.000728403
0.000728605
0.00072873
0.000728936
0.000729075
0.000729304
0.00072944
0.000729702
0.000729863
0.000730166
0.000730326
0.000730658
0.000730841
0.000731223
0.00073144
0.000731894
0.000732152
0.000732693
0.000732991
0.000733673
0.000733983
0.000735175
0.000735354
0.000752329
0.000798062
0.00201321
0.00102026
0.000934092
0.000878438
0.000842296
0.000817712
0.000800168
0.00078712
0.000777116
0.000769248
0.000762942
0.000757802
0.000753557
0.000750008
0.000747015
0.000744462
0.000742276
0.000740383
0.000738739
0.000737295
0.000736037
0.000734918
0.000733933
0.000733044
0.000732268
0.000731558
0.000730927
0.000730347
0.000729844
0.000729372
0.000728961
0.000728564
0.000728243
0.000727917
0.000727629
0.000727356
0.00072714
0.000726922
0.000726736
0.000726549
0.000726417
0.000726259
0.000726127
0.000726002
0.000725922
0.000725776
0.000725687
0.000725627
0.000725588
0.00072555
0.000725509
0.000725417
0.000725392
0.000725378
0.000725357
0.00072529
0.000725342
0.000725342
0.000725332
0.000725441
0.00072545
0.00072545
0.000725538
0.000725623
0.000725775
0.000725901
0.000726064
0.000726163
0.000726318
0.000726402
0.000726557
0.000726685
0.000726886
0.00072701
0.000727215
0.000727353
0.000727581
0.000727717
0.000727978
0.000728138
0.00072844
0.000728599
0.00072893
0.000729112
0.000729493
0.000729708
0.00073016
0.000730416
0.000730954
0.00073125
0.000731929
0.000732235
0.000733428
0.000733599
0.000751251
0.000796627
0.00199021
0.00102031
0.000933977
0.000878065
0.00084168
0.000816899
0.000799198
0.000786028
0.000775925
0.000767977
0.000761604
0.000756408
0.000752117
0.000748528
0.0007455
0.000742918
0.000740707
0.000738791
0.000737126
0.000735665
0.000734392
0.000733258
0.00073226
0.00073136
0.000730574
0.000729855
0.000729215
0.000728627
0.000728117
0.000727638
0.000727222
0.000726819
0.000726492
0.000726162
0.00072587
0.000725593
0.000725373
0.000725151
0.000724963
0.000724773
0.000724637
0.000724477
0.000724343
0.000724215
0.000724134
0.000723987
0.000723896
0.000723833
0.000723792
0.000723752
0.000723711
0.000723618
0.000723592
0.000723577
0.000723555
0.000723486
0.000723535
0.000723535
0.000723523
0.000723631
0.000723638
0.000723638
0.000723726
0.000723808
0.000723958
0.000724084
0.000724245
0.000724345
0.000724499
0.000724582
0.000724736
0.000724862
0.000725063
0.000725187
0.000725391
0.000725528
0.000725756
0.00072589
0.00072615
0.000726309
0.000726609
0.000726768
0.000727098
0.000727279
0.000727658
0.000727872
0.000728321
0.000728575
0.00072911
0.000729404
0.00073008
0.000730382
0.000731576
0.00073174
0.000750104
0.000795096
0.00196529
0.00102035
0.000933858
0.000877676
0.000841036
0.000816045
0.000798179
0.000784878
0.000774669
0.000766636
0.000760193
0.000754938
0.000750597
0.000746966
0.000743902
0.000741288
0.000739049
0.000737109
0.000735424
0.000733943
0.000732653
0.000731505
0.000730493
0.00072958
0.000728783
0.000728054
0.000727406
0.000726809
0.000726292
0.000725806
0.000725383
0.000724975
0.000724642
0.000724307
0.000724011
0.000723729
0.000723505
0.00072328
0.000723088
0.000722895
0.000722756
0.000722594
0.000722457
0.000722327
0.000722243
0.000722095
0.000722002
0.000721936
0.000721893
0.000721851
0.00072181
0.000721717
0.000721689
0.000721672
0.000721649
0.000721579
0.000721624
0.000721624
0.000721611
0.000721716
0.000721722
0.000721722
0.000721809
0.000721889
0.000722038
0.000722161
0.000722322
0.000722421
0.000722576
0.000722658
0.00072281
0.000722935
0.000723135
0.000723258
0.000723462
0.000723597
0.000723825
0.000723959
0.000724217
0.000724374
0.000724674
0.000724832
0.00072516
0.000725341
0.000725717
0.000725929
0.000726376
0.000726629
0.00072716
0.000727452
0.000728124
0.000728422
0.000729616
0.000729773
0.000748886
0.000793464
0.00193856
0.0010204
0.000933736
0.000877272
0.000840362
0.000815151
0.00079711
0.00078367
0.00077335
0.000765226
0.000758708
0.000753391
0.000748997
0.000745322
0.000742218
0.000739571
0.000737303
0.000735338
0.000733629
0.000732129
0.00073082
0.000729656
0.00072863
0.000727705
0.000726896
0.000726156
0.000725498
0.000724893
0.000724367
0.000723874
0.000723444
0.00072303
0.000722691
0.000722351
0.00072205
0.000721763
0.000721535
0.000721306
0.000721111
0.000720914
0.000720772
0.000720607
0.000720468
0.000720334
0.000720249
0.000720099
0.000720004
0.000719936
0.00071989
0.000719846
0.000719804
0.000719711
0.000719681
0.000719663
0.000719639
0.000719567
0.000719608
0.000719608
0.000719594
0.000719696
0.000719701
0.0007197
0.000719787
0.000719865
0.000720011
0.000720133
0.000720293
0.000720392
0.000720547
0.000720628
0.000720779
0.000720902
0.000721101
0.000721224
0.000721426
0.000721561
0.000721787
0.00072192
0.000722178
0.000722333
0.000722631
0.000722789
0.000723115
0.000723295
0.000723669
0.00072388
0.000724323
0.000724575
0.000725103
0.000725393
0.00072606
0.000726355
0.000727549
0.000727699
0.000747591
0.000791724
0.00191012
0.00102045
0.000933611
0.000876852
0.000839659
0.000814216
0.000795991
0.000782404
0.000771967
0.000763747
0.00075715
0.000751767
0.000747317
0.000743593
0.000740449
0.000737767
0.000735467
0.000733475
0.000731742
0.000730221
0.000728893
0.000727712
0.000726671
0.000725732
0.00072491
0.000724159
0.000723492
0.000722876
0.000722342
0.000721841
0.000721405
0.000720983
0.000720639
0.000720293
0.000719987
0.000719695
0.000719462
0.000719229
0.00071903
0.000718829
0.000718684
0.000718516
0.000718374
0.000718237
0.000718149
0.000717998
0.0007179
0.00071783
0.000717782
0.000717736
0.000717693
0.0007176
0.000717568
0.000717548
0.000717523
0.000717449
0.000717487
0.000717486
0.00071747
0.000717569
0.000717573
0.000717573
0.000717659
0.000717734
0.000717878
0.000717999
0.000718157
0.000718256
0.000718411
0.00071849
0.00071864
0.000718761
0.000718959
0.000719081
0.000719283
0.000719416
0.000719642
0.000719774
0.00072003
0.000720184
0.000720481
0.000720638
0.000720962
0.000721141
0.000721513
0.000721722
0.000722162
0.000722412
0.000722936
0.000723224
0.000723887
0.000724177
0.000725372
0.000725516
0.000746216
0.00078987
0.00188012
0.0010205
0.000933483
0.000876417
0.000838929
0.000813242
0.000794822
0.000781082
0.00077052
0.000762199
0.000755518
0.000750065
0.000745555
0.000741782
0.000738594
0.000735874
0.000733542
0.00073152
0.000729762
0.000728219
0.000726871
0.000725672
0.000724614
0.00072366
0.000722826
0.000722063
0.000721384
0.000720759
0.000720216
0.000719707
0.000719262
0.000718834
0.000718483
0.000718131
0.00071782
0.000717523
0.000717285
0.000717047
0.000716844
0.000716639
0.00071649
0.000716319
0.000716175
0.000716035
0.000715944
0.000715792
0.000715691
0.000715617
0.000715568
0.000715519
0.000715476
0.000715381
0.000715347
0.000715325
0.000715299
0.000715224
0.000715258
0.000715258
0.000715239