/*--------------------------------*- C++ -*----------------------------------*\
| =========                 |                                                 |
| \\      /  F ield         | OpenFOAM: The Open Source CFD Toolbox           |
|  \\    /   O peration     | Version:  v2012                                 |
|   \\  /    A nd           | Website:  www.openfoam.com                      |
|    \\/     M anipulation  |                                                 |
\*---------------------------------------------------------------------------*/
FoamFile
{
    version     2.0;
    format      ascii;
    class       volScalarField;
    location    "20.5";
    object      nut;
}
// * * * * * * * * * * * * * * * * * * * * * * * * * * * * * * * * * * * * * //

dimensions      [0 2 -1 0 0 0 0];


internalField   nonuniform List<scalar> 
209825
(
1.23786e-07
1.23525e-07
1.2395e-07
1.24547e-07
1.25118e-07
1.2561e-07
1.26031e-07
1.26387e-07
1.26695e-07
1.26958e-07
1.27191e-07
1.27391e-07
1.27571e-07
1.27727e-07
1.27869e-07
1.27993e-07
1.28109e-07
1.28208e-07
1.28303e-07
1.28385e-07
1.28464e-07
1.28531e-07
1.28597e-07
1.28654e-07
1.2871e-07
1.28757e-07
1.28805e-07
1.28846e-07
1.28887e-07
1.28923e-07
1.28958e-07
1.28991e-07
1.29022e-07
1.29044e-07
1.29071e-07
1.29096e-07
1.29123e-07
1.29141e-07
1.29162e-07
1.29183e-07
1.29204e-07
1.29213e-07
1.29233e-07
1.29253e-07
1.29259e-07
1.29268e-07
1.29284e-07
1.29294e-07
1.29311e-07
1.29317e-07
1.29326e-07
1.2934e-07
1.29348e-07
1.29354e-07
1.29367e-07
1.29378e-07
1.29378e-07
1.29378e-07
1.29401e-07
1.29414e-07
1.29405e-07
1.29421e-07
1.29439e-07
1.29468e-07
1.29472e-07
1.29501e-07
1.29519e-07
1.29533e-07
1.29549e-07
1.29559e-07
1.29583e-07
1.2959e-07
1.29612e-07
1.29619e-07
1.29627e-07
1.29643e-07
1.29659e-07
1.29676e-07
1.29692e-07
1.29715e-07
1.29726e-07
1.29749e-07
1.29765e-07
1.29795e-07
1.29815e-07
1.29855e-07
1.29881e-07
1.2993e-07
1.2996e-07
1.30023e-07
1.30058e-07
1.30168e-07
1.30204e-07
1.31275e-07
1.35833e-07
1.82199e-08
1.23786e-07
1.23525e-07
1.2395e-07
1.24547e-07
1.25118e-07
1.2561e-07
1.26031e-07
1.26387e-07
1.26695e-07
1.26958e-07
1.27191e-07
1.27391e-07
1.27571e-07
1.27727e-07
1.27869e-07
1.27993e-07
1.28109e-07
1.28208e-07
1.28303e-07
1.28385e-07
1.28464e-07
1.28531e-07
1.28597e-07
1.28655e-07
1.2871e-07
1.28757e-07
1.28805e-07
1.28846e-07
1.28887e-07
1.28923e-07
1.28958e-07
1.28991e-07
1.29022e-07
1.29045e-07
1.29071e-07
1.29096e-07
1.29123e-07
1.29141e-07
1.29162e-07
1.29184e-07
1.29204e-07
1.29214e-07
1.29233e-07
1.29253e-07
1.29259e-07
1.29268e-07
1.29284e-07
1.29294e-07
1.29311e-07
1.29317e-07
1.29326e-07
1.2934e-07
1.29348e-07
1.29354e-07
1.29367e-07
1.29378e-07
1.29378e-07
1.29378e-07
1.29402e-07
1.29414e-07
1.29405e-07
1.29421e-07
1.29439e-07
1.29468e-07
1.29472e-07
1.29502e-07
1.29519e-07
1.29534e-07
1.2955e-07
1.29559e-07
1.29584e-07
1.2959e-07
1.29612e-07
1.29619e-07
1.29628e-07
1.29643e-07
1.29659e-07
1.29676e-07
1.29692e-07
1.29715e-07
1.29726e-07
1.2975e-07
1.29765e-07
1.29795e-07
1.29815e-07
1.29856e-07
1.29881e-07
1.2993e-07
1.29961e-07
1.30023e-07
1.30058e-07
1.30168e-07
1.30205e-07
1.31277e-07
1.35836e-07
1.877e-08
1.23786e-07
1.23525e-07
1.23948e-07
1.24545e-07
1.25115e-07
1.25607e-07
1.26028e-07
1.26384e-07
1.26692e-07
1.26955e-07
1.27188e-07
1.27388e-07
1.27568e-07
1.27724e-07
1.27866e-07
1.2799e-07
1.28106e-07
1.28205e-07
1.283e-07
1.28382e-07
1.28461e-07
1.28529e-07
1.28595e-07
1.28652e-07
1.28707e-07
1.28755e-07
1.28802e-07
1.28844e-07
1.28885e-07
1.2892e-07
1.28955e-07
1.28988e-07
1.29019e-07
1.29042e-07
1.29068e-07
1.29093e-07
1.2912e-07
1.29138e-07
1.2916e-07
1.29181e-07
1.29201e-07
1.29211e-07
1.2923e-07
1.2925e-07
1.29257e-07
1.29265e-07
1.29282e-07
1.29292e-07
1.29308e-07
1.29315e-07
1.29323e-07
1.29337e-07
1.29346e-07
1.29352e-07
1.29365e-07
1.29375e-07
1.29375e-07
1.29375e-07
1.29399e-07
1.29412e-07
1.29403e-07
1.29419e-07
1.29437e-07
1.29466e-07
1.2947e-07
1.29499e-07
1.29516e-07
1.29531e-07
1.29547e-07
1.29556e-07
1.29581e-07
1.29588e-07
1.29609e-07
1.29617e-07
1.29625e-07
1.2964e-07
1.29657e-07
1.29673e-07
1.29689e-07
1.29713e-07
1.29723e-07
1.29747e-07
1.29763e-07
1.29793e-07
1.29812e-07
1.29853e-07
1.29879e-07
1.29928e-07
1.29958e-07
1.3002e-07
1.30056e-07
1.30166e-07
1.30202e-07
1.31279e-07
1.35839e-07
1.94526e-08
1.23786e-07
1.23523e-07
1.23945e-07
1.24542e-07
1.25111e-07
1.25603e-07
1.26024e-07
1.2638e-07
1.26688e-07
1.26951e-07
1.27183e-07
1.27383e-07
1.27564e-07
1.27719e-07
1.27862e-07
1.27986e-07
1.28102e-07
1.28201e-07
1.28295e-07
1.28378e-07
1.28456e-07
1.28524e-07
1.2859e-07
1.28647e-07
1.28703e-07
1.2875e-07
1.28798e-07
1.2884e-07
1.2888e-07
1.28916e-07
1.28951e-07
1.28984e-07
1.29015e-07
1.29038e-07
1.29064e-07
1.29089e-07
1.29116e-07
1.29134e-07
1.29156e-07
1.29177e-07
1.29197e-07
1.29207e-07
1.29227e-07
1.29246e-07
1.29253e-07
1.29262e-07
1.29278e-07
1.29288e-07
1.29305e-07
1.29311e-07
1.29319e-07
1.29333e-07
1.29342e-07
1.29348e-07
1.29361e-07
1.29371e-07
1.29371e-07
1.29371e-07
1.29395e-07
1.29408e-07
1.29399e-07
1.29415e-07
1.29433e-07
1.29462e-07
1.29466e-07
1.29495e-07
1.29513e-07
1.29527e-07
1.29543e-07
1.29553e-07
1.29577e-07
1.29584e-07
1.29606e-07
1.29613e-07
1.29622e-07
1.29637e-07
1.29653e-07
1.2967e-07
1.29686e-07
1.29709e-07
1.2972e-07
1.29744e-07
1.29759e-07
1.29789e-07
1.29809e-07
1.2985e-07
1.29875e-07
1.29924e-07
1.29955e-07
1.30017e-07
1.30052e-07
1.30162e-07
1.30198e-07
1.31281e-07
1.35843e-07
2.02097e-08
1.23786e-07
1.23521e-07
1.23942e-07
1.24537e-07
1.25106e-07
1.25597e-07
1.26018e-07
1.26374e-07
1.26682e-07
1.26945e-07
1.27177e-07
1.27377e-07
1.27558e-07
1.27713e-07
1.27856e-07
1.2798e-07
1.28096e-07
1.28195e-07
1.2829e-07
1.28372e-07
1.28451e-07
1.28519e-07
1.28585e-07
1.28642e-07
1.28698e-07
1.28745e-07
1.28793e-07
1.28834e-07
1.28875e-07
1.28911e-07
1.28946e-07
1.28979e-07
1.2901e-07
1.29033e-07
1.29059e-07
1.29084e-07
1.29111e-07
1.29129e-07
1.29151e-07
1.29172e-07
1.29192e-07
1.29202e-07
1.29222e-07
1.29241e-07
1.29248e-07
1.29257e-07
1.29273e-07
1.29283e-07
1.293e-07
1.29306e-07
1.29314e-07
1.29328e-07
1.29337e-07
1.29343e-07
1.29356e-07
1.29366e-07
1.29366e-07
1.29367e-07
1.2939e-07
1.29403e-07
1.29394e-07
1.2941e-07
1.29428e-07
1.29457e-07
1.29461e-07
1.29491e-07
1.29508e-07
1.29523e-07
1.29539e-07
1.29548e-07
1.29573e-07
1.29579e-07
1.29601e-07
1.29609e-07
1.29617e-07
1.29632e-07
1.29649e-07
1.29665e-07
1.29681e-07
1.29704e-07
1.29715e-07
1.29739e-07
1.29755e-07
1.29784e-07
1.29804e-07
1.29845e-07
1.2987e-07
1.2992e-07
1.2995e-07
1.30012e-07
1.30047e-07
1.30157e-07
1.30193e-07
1.31286e-07
1.35848e-07
2.10301e-08
1.23786e-07
1.23519e-07
1.23937e-07
1.24531e-07
1.25099e-07
1.2559e-07
1.26011e-07
1.26366e-07
1.26674e-07
1.26937e-07
1.2717e-07
1.2737e-07
1.2755e-07
1.27706e-07
1.27849e-07
1.27973e-07
1.28089e-07
1.28188e-07
1.28283e-07
1.28365e-07
1.28444e-07
1.28512e-07
1.28578e-07
1.28635e-07
1.28691e-07
1.28738e-07
1.28786e-07
1.28827e-07
1.28868e-07
1.28904e-07
1.28939e-07
1.28972e-07
1.29003e-07
1.29026e-07
1.29053e-07
1.29078e-07
1.29104e-07
1.29123e-07
1.29144e-07
1.29165e-07
1.29186e-07
1.29196e-07
1.29215e-07
1.29235e-07
1.29242e-07
1.2925e-07
1.29267e-07
1.29277e-07
1.29294e-07
1.293e-07
1.29308e-07
1.29322e-07
1.29331e-07
1.29337e-07
1.2935e-07
1.2936e-07
1.2936e-07
1.29361e-07
1.29384e-07
1.29397e-07
1.29388e-07
1.29404e-07
1.29422e-07
1.29451e-07
1.29456e-07
1.29485e-07
1.29502e-07
1.29517e-07
1.29533e-07
1.29542e-07
1.29567e-07
1.29574e-07
1.29595e-07
1.29603e-07
1.29611e-07
1.29626e-07
1.29643e-07
1.2966e-07
1.29676e-07
1.29699e-07
1.2971e-07
1.29733e-07
1.29749e-07
1.29779e-07
1.29799e-07
1.29839e-07
1.29865e-07
1.29914e-07
1.29944e-07
1.30006e-07
1.30042e-07
1.30152e-07
1.30187e-07
1.31292e-07
1.35854e-07
2.19116e-08
1.23787e-07
1.23516e-07
1.23932e-07
1.24523e-07
1.25091e-07
1.25581e-07
1.26002e-07
1.26357e-07
1.26665e-07
1.26928e-07
1.27161e-07
1.27361e-07
1.27541e-07
1.27697e-07
1.2784e-07
1.27964e-07
1.2808e-07
1.28179e-07
1.28274e-07
1.28356e-07
1.28435e-07
1.28503e-07
1.2857e-07
1.28627e-07
1.28683e-07
1.2873e-07
1.28778e-07
1.28819e-07
1.2886e-07
1.28896e-07
1.28931e-07
1.28964e-07
1.28995e-07
1.29018e-07
1.29045e-07
1.2907e-07
1.29097e-07
1.29115e-07
1.29137e-07
1.29158e-07
1.29178e-07
1.29188e-07
1.29208e-07
1.29228e-07
1.29234e-07
1.29243e-07
1.2926e-07
1.2927e-07
1.29286e-07
1.29293e-07
1.29301e-07
1.29315e-07
1.29324e-07
1.2933e-07
1.29343e-07
1.29353e-07
1.29353e-07
1.29353e-07
1.29377e-07
1.2939e-07
1.29381e-07
1.29397e-07
1.29415e-07
1.29444e-07
1.29449e-07
1.29478e-07
1.29495e-07
1.2951e-07
1.29526e-07
1.29536e-07
1.2956e-07
1.29567e-07
1.29589e-07
1.29596e-07
1.29605e-07
1.2962e-07
1.29636e-07
1.29653e-07
1.29669e-07
1.29692e-07
1.29703e-07
1.29727e-07
1.29742e-07
1.29772e-07
1.29792e-07
1.29833e-07
1.29858e-07
1.29907e-07
1.29938e-07
1.29999e-07
1.30035e-07
1.30145e-07
1.3018e-07
1.313e-07
1.3586e-07
2.28546e-08
1.23787e-07
1.23513e-07
1.23925e-07
1.24515e-07
1.25081e-07
1.25571e-07
1.25991e-07
1.26346e-07
1.26654e-07
1.26917e-07
1.2715e-07
1.2735e-07
1.27531e-07
1.27686e-07
1.2783e-07
1.27954e-07
1.2807e-07
1.28169e-07
1.28264e-07
1.28347e-07
1.28426e-07
1.28494e-07
1.2856e-07
1.28617e-07
1.28673e-07
1.28721e-07
1.28769e-07
1.2881e-07
1.28851e-07
1.28887e-07
1.28922e-07
1.28955e-07
1.28986e-07
1.29009e-07
1.29036e-07
1.29061e-07
1.29088e-07
1.29106e-07
1.29128e-07
1.29149e-07
1.2917e-07
1.2918e-07
1.29199e-07
1.29219e-07
1.29226e-07
1.29235e-07
1.29251e-07
1.29261e-07
1.29278e-07
1.29284e-07
1.29293e-07
1.29307e-07
1.29316e-07
1.29322e-07
1.29334e-07
1.29345e-07
1.29345e-07
1.29345e-07
1.29369e-07
1.29382e-07
1.29373e-07
1.29389e-07
1.29407e-07
1.29436e-07
1.29441e-07
1.2947e-07
1.29487e-07
1.29502e-07
1.29518e-07
1.29528e-07
1.29552e-07
1.29559e-07
1.29581e-07
1.29589e-07
1.29597e-07
1.29612e-07
1.29629e-07
1.29645e-07
1.29661e-07
1.29684e-07
1.29695e-07
1.29719e-07
1.29735e-07
1.29764e-07
1.29784e-07
1.29825e-07
1.2985e-07
1.29899e-07
1.2993e-07
1.29992e-07
1.30027e-07
1.30137e-07
1.30172e-07
1.31309e-07
1.35867e-07
2.38599e-08
1.23787e-07
1.23509e-07
1.23917e-07
1.24505e-07
1.2507e-07
1.25559e-07
1.25979e-07
1.26334e-07
1.26642e-07
1.26905e-07
1.27137e-07
1.27338e-07
1.27518e-07
1.27674e-07
1.27818e-07
1.27942e-07
1.28058e-07
1.28158e-07
1.28253e-07
1.28335e-07
1.28414e-07
1.28482e-07
1.28549e-07
1.28606e-07
1.28662e-07
1.2871e-07
1.28758e-07
1.28799e-07
1.28841e-07
1.28876e-07
1.28912e-07
1.28945e-07
1.28976e-07
1.28999e-07
1.29026e-07
1.29051e-07
1.29078e-07
1.29096e-07
1.29118e-07
1.29139e-07
1.2916e-07
1.2917e-07
1.29189e-07
1.29209e-07
1.29216e-07
1.29225e-07
1.29241e-07
1.29252e-07
1.29268e-07
1.29275e-07
1.29284e-07
1.29298e-07
1.29307e-07
1.29312e-07
1.29325e-07
1.29336e-07
1.29336e-07
1.29336e-07
1.2936e-07
1.29372e-07
1.29364e-07
1.2938e-07
1.29397e-07
1.29427e-07
1.29431e-07
1.29461e-07
1.29478e-07
1.29493e-07
1.29509e-07
1.29519e-07
1.29543e-07
1.2955e-07
1.29572e-07
1.2958e-07
1.29588e-07
1.29603e-07
1.2962e-07
1.29636e-07
1.29652e-07
1.29676e-07
1.29687e-07
1.2971e-07
1.29726e-07
1.29756e-07
1.29776e-07
1.29816e-07
1.29841e-07
1.2989e-07
1.29921e-07
1.29983e-07
1.30018e-07
1.30128e-07
1.30163e-07
1.31321e-07
1.35876e-07
2.49281e-08
1.23787e-07
1.23505e-07
1.23909e-07
1.24493e-07
1.25057e-07
1.25545e-07
1.25965e-07
1.26319e-07
1.26628e-07
1.2689e-07
1.27123e-07
1.27324e-07
1.27505e-07
1.27661e-07
1.27804e-07
1.27929e-07
1.28045e-07
1.28145e-07
1.2824e-07
1.28322e-07
1.28402e-07
1.2847e-07
1.28536e-07
1.28594e-07
1.2865e-07
1.28698e-07
1.28746e-07
1.28787e-07
1.28829e-07
1.28864e-07
1.289e-07
1.28933e-07
1.28964e-07
1.28987e-07
1.29014e-07
1.2904e-07
1.29066e-07
1.29085e-07
1.29107e-07
1.29128e-07
1.29149e-07
1.29159e-07
1.29178e-07
1.29198e-07
1.29205e-07
1.29214e-07
1.29231e-07
1.29241e-07
1.29257e-07
1.29264e-07
1.29273e-07
1.29287e-07
1.29296e-07
1.29302e-07
1.29314e-07
1.29325e-07
1.29325e-07
1.29325e-07
1.29349e-07
1.29362e-07
1.29354e-07
1.29369e-07
1.29387e-07
1.29417e-07
1.29421e-07
1.2945e-07
1.29468e-07
1.29483e-07
1.29499e-07
1.29509e-07
1.29533e-07
1.2954e-07
1.29562e-07
1.2957e-07
1.29578e-07
1.29593e-07
1.2961e-07
1.29627e-07
1.29642e-07
1.29666e-07
1.29677e-07
1.29701e-07
1.29716e-07
1.29746e-07
1.29766e-07
1.29806e-07
1.29832e-07
1.2988e-07
1.29911e-07
1.29972e-07
1.30007e-07
1.30118e-07
1.30152e-07
1.31335e-07
1.35885e-07
2.6059e-08
1.23787e-07
1.235e-07
1.23899e-07
1.2448e-07
1.25042e-07
1.2553e-07
1.25949e-07
1.26304e-07
1.26612e-07
1.26875e-07
1.27108e-07
1.27308e-07
1.27489e-07
1.27645e-07
1.27789e-07
1.27914e-07
1.2803e-07
1.2813e-07
1.28225e-07
1.28308e-07
1.28387e-07
1.28456e-07
1.28522e-07
1.2858e-07
1.28636e-07
1.28684e-07
1.28732e-07
1.28774e-07
1.28815e-07
1.28851e-07
1.28886e-07
1.2892e-07
1.28951e-07
1.28975e-07
1.29001e-07
1.29027e-07
1.29054e-07
1.29072e-07
1.29094e-07
1.29115e-07
1.29136e-07
1.29146e-07
1.29166e-07
1.29186e-07
1.29193e-07
1.29202e-07
1.29218e-07
1.29229e-07
1.29245e-07
1.29252e-07
1.29261e-07
1.29275e-07
1.29284e-07
1.2929e-07
1.29302e-07
1.29313e-07
1.29313e-07
1.29313e-07
1.29337e-07
1.2935e-07
1.29342e-07
1.29358e-07
1.29375e-07
1.29405e-07
1.29409e-07
1.29439e-07
1.29456e-07
1.29472e-07
1.29488e-07
1.29497e-07
1.29521e-07
1.29529e-07
1.29551e-07
1.29559e-07
1.29567e-07
1.29582e-07
1.29599e-07
1.29616e-07
1.29631e-07
1.29655e-07
1.29666e-07
1.2969e-07
1.29705e-07
1.29735e-07
1.29755e-07
1.29795e-07
1.2982e-07
1.29869e-07
1.29899e-07
1.29961e-07
1.29996e-07
1.30107e-07
1.3014e-07
1.31351e-07
1.35896e-07
2.72508e-08
1.23788e-07
1.23495e-07
1.23888e-07
1.24466e-07
1.25026e-07
1.25513e-07
1.25931e-07
1.26286e-07
1.26594e-07
1.26857e-07
1.2709e-07
1.27291e-07
1.27472e-07
1.27629e-07
1.27772e-07
1.27897e-07
1.28014e-07
1.28114e-07
1.28209e-07
1.28292e-07
1.28372e-07
1.2844e-07
1.28507e-07
1.28565e-07
1.28621e-07
1.28669e-07
1.28717e-07
1.28759e-07
1.288e-07
1.28836e-07
1.28872e-07
1.28905e-07
1.28937e-07
1.2896e-07
1.28987e-07
1.29012e-07
1.29039e-07
1.29058e-07
1.2908e-07
1.29101e-07
1.29122e-07
1.29133e-07
1.29152e-07
1.29172e-07
1.2918e-07
1.29188e-07
1.29205e-07
1.29215e-07
1.29232e-07
1.29239e-07
1.29248e-07
1.29262e-07
1.29271e-07
1.29277e-07
1.29289e-07
1.293e-07
1.293e-07
1.293e-07
1.29324e-07
1.29337e-07
1.29329e-07
1.29345e-07
1.29362e-07
1.29392e-07
1.29397e-07
1.29426e-07
1.29444e-07
1.29459e-07
1.29475e-07
1.29485e-07
1.29509e-07
1.29516e-07
1.29538e-07
1.29546e-07
1.29555e-07
1.29569e-07
1.29587e-07
1.29603e-07
1.29619e-07
1.29643e-07
1.29654e-07
1.29677e-07
1.29693e-07
1.29723e-07
1.29742e-07
1.29783e-07
1.29808e-07
1.29857e-07
1.29887e-07
1.29949e-07
1.29983e-07
1.30094e-07
1.30127e-07
1.31369e-07
1.35908e-07
2.85009e-08
1.23788e-07
1.23489e-07
1.23876e-07
1.2445e-07
1.25009e-07
1.25494e-07
1.25912e-07
1.26266e-07
1.26575e-07
1.26838e-07
1.27071e-07
1.27272e-07
1.27453e-07
1.2761e-07
1.27754e-07
1.27879e-07
1.27995e-07
1.28096e-07
1.28191e-07
1.28274e-07
1.28354e-07
1.28423e-07
1.2849e-07
1.28548e-07
1.28604e-07
1.28652e-07
1.28701e-07
1.28743e-07
1.28784e-07
1.2882e-07
1.28856e-07
1.28889e-07
1.28921e-07
1.28944e-07
1.28971e-07
1.28997e-07
1.29024e-07
1.29043e-07
1.29065e-07
1.29086e-07
1.29107e-07
1.29117e-07
1.29137e-07
1.29157e-07
1.29165e-07
1.29174e-07
1.2919e-07
1.292e-07
1.29217e-07
1.29224e-07
1.29233e-07
1.29247e-07
1.29257e-07
1.29263e-07
1.29275e-07
1.29286e-07
1.29286e-07
1.29286e-07
1.2931e-07
1.29323e-07
1.29315e-07
1.29331e-07
1.29348e-07
1.29378e-07
1.29383e-07
1.29412e-07
1.2943e-07
1.29445e-07
1.29461e-07
1.29471e-07
1.29495e-07
1.29503e-07
1.29525e-07
1.29533e-07
1.29541e-07
1.29556e-07
1.29573e-07
1.2959e-07
1.29606e-07
1.29629e-07
1.2964e-07
1.29664e-07
1.2968e-07
1.2971e-07
1.29729e-07
1.29769e-07
1.29795e-07
1.29843e-07
1.29874e-07
1.29935e-07
1.2997e-07
1.30081e-07
1.30113e-07
1.31391e-07
1.35921e-07
2.98123e-08
1.23788e-07
1.23483e-07
1.23863e-07
1.24433e-07
1.24989e-07
1.25474e-07
1.25891e-07
1.26245e-07
1.26553e-07
1.26816e-07
1.2705e-07
1.27251e-07
1.27433e-07
1.27589e-07
1.27734e-07
1.27859e-07
1.27976e-07
1.28076e-07
1.28172e-07
1.28255e-07
1.28335e-07
1.28404e-07
1.28471e-07
1.28529e-07
1.28586e-07
1.28634e-07
1.28683e-07
1.28725e-07
1.28766e-07
1.28803e-07
1.28838e-07
1.28872e-07
1.28904e-07
1.28927e-07
1.28954e-07
1.2898e-07
1.29007e-07
1.29026e-07
1.29048e-07
1.29069e-07
1.2909e-07
1.29101e-07
1.2912e-07
1.29141e-07
1.29149e-07
1.29157e-07
1.29174e-07
1.29184e-07
1.29201e-07
1.29208e-07
1.29218e-07
1.29232e-07
1.29241e-07
1.29247e-07
1.29259e-07
1.2927e-07
1.2927e-07
1.2927e-07
1.29294e-07
1.29307e-07
1.293e-07
1.29316e-07
1.29333e-07
1.29363e-07
1.29367e-07
1.29397e-07
1.29414e-07
1.29431e-07
1.29446e-07
1.29456e-07
1.2948e-07
1.29488e-07
1.2951e-07
1.29518e-07
1.29526e-07
1.29541e-07
1.29559e-07
1.29575e-07
1.29591e-07
1.29615e-07
1.29626e-07
1.2965e-07
1.29665e-07
1.29695e-07
1.29715e-07
1.29755e-07
1.2978e-07
1.29829e-07
1.29859e-07
1.2992e-07
1.29955e-07
1.30066e-07
1.30098e-07
1.31414e-07
1.35936e-07
3.11885e-08
1.23789e-07
1.23476e-07
1.23849e-07
1.24415e-07
1.24968e-07
1.25451e-07
1.25868e-07
1.26222e-07
1.2653e-07
1.26793e-07
1.27027e-07
1.27228e-07
1.2741e-07
1.27567e-07
1.27712e-07
1.27837e-07
1.27954e-07
1.28055e-07
1.28151e-07
1.28234e-07
1.28315e-07
1.28384e-07
1.28451e-07
1.28509e-07
1.28566e-07
1.28614e-07
1.28663e-07
1.28705e-07
1.28747e-07
1.28783e-07
1.28819e-07
1.28853e-07
1.28885e-07
1.28909e-07
1.28936e-07
1.28961e-07
1.28989e-07
1.29008e-07
1.2903e-07
1.29051e-07
1.29072e-07
1.29083e-07
1.29103e-07
1.29123e-07
1.29131e-07
1.2914e-07
1.29157e-07
1.29167e-07
1.29184e-07
1.29191e-07
1.29201e-07
1.29214e-07
1.29224e-07
1.2923e-07
1.29242e-07
1.29253e-07
1.29253e-07
1.29253e-07
1.29277e-07
1.2929e-07
1.29283e-07
1.29299e-07
1.29316e-07
1.29346e-07
1.29351e-07
1.2938e-07
1.29398e-07
1.29414e-07
1.2943e-07
1.2944e-07
1.29464e-07
1.29472e-07
1.29494e-07
1.29502e-07
1.29511e-07
1.29525e-07
1.29543e-07
1.2956e-07
1.29575e-07
1.29599e-07
1.2961e-07
1.29634e-07
1.2965e-07
1.29679e-07
1.29699e-07
1.29739e-07
1.29764e-07
1.29813e-07
1.29843e-07
1.29904e-07
1.29938e-07
1.3005e-07
1.30081e-07
1.31441e-07
1.35952e-07
3.2633e-08
1.23789e-07
1.23469e-07
1.23834e-07
1.24395e-07
1.24946e-07
1.25427e-07
1.25844e-07
1.26197e-07
1.26505e-07
1.26768e-07
1.27002e-07
1.27204e-07
1.27386e-07
1.27543e-07
1.27688e-07
1.27813e-07
1.27931e-07
1.28032e-07
1.28128e-07
1.28212e-07
1.28292e-07
1.28361e-07
1.28429e-07
1.28487e-07
1.28544e-07
1.28593e-07
1.28642e-07
1.28684e-07
1.28726e-07
1.28763e-07
1.28799e-07
1.28832e-07
1.28865e-07
1.28888e-07
1.28916e-07
1.28941e-07
1.28969e-07
1.28988e-07
1.2901e-07
1.29031e-07
1.29053e-07
1.29064e-07
1.29083e-07
1.29104e-07
1.29112e-07
1.29121e-07
1.29138e-07
1.29148e-07
1.29165e-07
1.29172e-07
1.29182e-07
1.29196e-07
1.29206e-07
1.29212e-07
1.29223e-07
1.29234e-07
1.29235e-07
1.29235e-07
1.29259e-07
1.29272e-07
1.29265e-07
1.29281e-07
1.29298e-07
1.29328e-07
1.29333e-07
1.29362e-07
1.2938e-07
1.29397e-07
1.29412e-07
1.29422e-07
1.29446e-07
1.29454e-07
1.29476e-07
1.29485e-07
1.29493e-07
1.29508e-07
1.29526e-07
1.29543e-07
1.29558e-07
1.29582e-07
1.29593e-07
1.29617e-07
1.29633e-07
1.29662e-07
1.29682e-07
1.29722e-07
1.29747e-07
1.29795e-07
1.29825e-07
1.29886e-07
1.29921e-07
1.30032e-07
1.30063e-07
1.3147e-07
1.35969e-07
3.41497e-08
1.2379e-07
1.23462e-07
1.23818e-07
1.24374e-07
1.24921e-07
1.25401e-07
1.25817e-07
1.2617e-07
1.26478e-07
1.26741e-07
1.26976e-07
1.27177e-07
1.2736e-07
1.27517e-07
1.27662e-07
1.27788e-07
1.27906e-07
1.28007e-07
1.28104e-07
1.28188e-07
1.28268e-07
1.28338e-07
1.28405e-07
1.28464e-07
1.28521e-07
1.2857e-07
1.28619e-07
1.28661e-07
1.28704e-07
1.2874e-07
1.28776e-07
1.2881e-07
1.28843e-07
1.28867e-07
1.28894e-07
1.2892e-07
1.28947e-07
1.28967e-07
1.28989e-07
1.2901e-07
1.29032e-07
1.29043e-07
1.29062e-07
1.29083e-07
1.29092e-07
1.29101e-07
1.29117e-07
1.29128e-07
1.29145e-07
1.29152e-07
1.29162e-07
1.29176e-07
1.29186e-07
1.29192e-07
1.29203e-07
1.29214e-07
1.29215e-07
1.29215e-07
1.29239e-07
1.29252e-07
1.29246e-07
1.29262e-07
1.29278e-07
1.29309e-07
1.29314e-07
1.29343e-07
1.29361e-07
1.29378e-07
1.29393e-07
1.29403e-07
1.29427e-07
1.29435e-07
1.29457e-07
1.29466e-07
1.29475e-07
1.29489e-07
1.29507e-07
1.29524e-07
1.2954e-07
1.29563e-07
1.29575e-07
1.29599e-07
1.29614e-07
1.29644e-07
1.29664e-07
1.29703e-07
1.29728e-07
1.29777e-07
1.29807e-07
1.29868e-07
1.29902e-07
1.30014e-07
1.30044e-07
1.31501e-07
1.35988e-07
3.57425e-08
1.23791e-07
1.23453e-07
1.23801e-07
1.24351e-07
1.24895e-07
1.25374e-07
1.25789e-07
1.26141e-07
1.26449e-07
1.26713e-07
1.26947e-07
1.27149e-07
1.27331e-07
1.27489e-07
1.27635e-07
1.27761e-07
1.27879e-07
1.2798e-07
1.28077e-07
1.28161e-07
1.28242e-07
1.28312e-07
1.2838e-07
1.28439e-07
1.28496e-07
1.28545e-07
1.28595e-07
1.28637e-07
1.2868e-07
1.28716e-07
1.28753e-07
1.28787e-07
1.28819e-07
1.28843e-07
1.28871e-07
1.28897e-07
1.28924e-07
1.28944e-07
1.28966e-07
1.28988e-07
1.29009e-07
1.29021e-07
1.2904e-07
1.29061e-07
1.2907e-07
1.29079e-07
1.29096e-07
1.29106e-07
1.29123e-07
1.29131e-07
1.29141e-07
1.29155e-07
1.29165e-07
1.29171e-07
1.29182e-07
1.29193e-07
1.29194e-07
1.29194e-07
1.29218e-07
1.29231e-07
1.29225e-07
1.29241e-07
1.29257e-07
1.29288e-07
1.29293e-07
1.29322e-07
1.2934e-07
1.29357e-07
1.29373e-07
1.29383e-07
1.29406e-07
1.29415e-07
1.29437e-07
1.29446e-07
1.29455e-07
1.29469e-07
1.29488e-07
1.29504e-07
1.2952e-07
1.29544e-07
1.29555e-07
1.29579e-07
1.29595e-07
1.29624e-07
1.29644e-07
1.29683e-07
1.29709e-07
1.29757e-07
1.29787e-07
1.29847e-07
1.29881e-07
1.29994e-07
1.30023e-07
1.31536e-07
1.36008e-07
3.74154e-08
1.23791e-07
1.23445e-07
1.23783e-07
1.24326e-07
1.24867e-07
1.25344e-07
1.25758e-07
1.2611e-07
1.26418e-07
1.26682e-07
1.26916e-07
1.27118e-07
1.27301e-07
1.2746e-07
1.27605e-07
1.27732e-07
1.2785e-07
1.27952e-07
1.28049e-07
1.28133e-07
1.28215e-07
1.28285e-07
1.28353e-07
1.28412e-07
1.2847e-07
1.28519e-07
1.28568e-07
1.28611e-07
1.28654e-07
1.28691e-07
1.28727e-07
1.28761e-07
1.28794e-07
1.28818e-07
1.28846e-07
1.28872e-07
1.289e-07
1.28919e-07
1.28942e-07
1.28963e-07
1.28985e-07
1.28997e-07
1.29016e-07
1.29037e-07
1.29046e-07
1.29055e-07
1.29072e-07
1.29083e-07
1.291e-07
1.29108e-07
1.29118e-07
1.29132e-07
1.29143e-07
1.29148e-07
1.29159e-07
1.2917e-07
1.29171e-07
1.29172e-07
1.29195e-07
1.29209e-07
1.29203e-07
1.29219e-07
1.29235e-07
1.29265e-07
1.29271e-07
1.293e-07
1.29318e-07
1.29336e-07
1.29351e-07
1.29362e-07
1.29385e-07
1.29394e-07
1.29416e-07
1.29425e-07
1.29434e-07
1.29448e-07
1.29466e-07
1.29483e-07
1.29499e-07
1.29522e-07
1.29534e-07
1.29558e-07
1.29574e-07
1.29604e-07
1.29623e-07
1.29662e-07
1.29687e-07
1.29735e-07
1.29765e-07
1.29826e-07
1.29859e-07
1.29972e-07
1.30001e-07
1.31573e-07
1.36029e-07
3.91725e-08
1.23792e-07
1.23436e-07
1.23764e-07
1.243e-07
1.24838e-07
1.25313e-07
1.25726e-07
1.26077e-07
1.26385e-07
1.26649e-07
1.26884e-07
1.27086e-07
1.27269e-07
1.27428e-07
1.27574e-07
1.27701e-07
1.27819e-07
1.27921e-07
1.28019e-07
1.28104e-07
1.28185e-07
1.28255e-07
1.28324e-07
1.28383e-07
1.28441e-07
1.2849e-07
1.2854e-07
1.28583e-07
1.28626e-07
1.28663e-07
1.287e-07
1.28734e-07
1.28767e-07
1.28792e-07
1.2882e-07
1.28845e-07
1.28873e-07
1.28893e-07
1.28916e-07
1.28938e-07
1.2896e-07
1.28971e-07
1.28991e-07
1.29012e-07
1.29021e-07
1.2903e-07
1.29047e-07
1.29058e-07
1.29076e-07
1.29083e-07
1.29094e-07
1.29108e-07
1.29118e-07
1.29124e-07
1.29134e-07
1.29146e-07
1.29147e-07
1.29148e-07
1.29171e-07
1.29185e-07
1.29179e-07
1.29195e-07
1.29211e-07
1.29242e-07
1.29248e-07
1.29277e-07
1.29294e-07
1.29313e-07
1.29328e-07
1.29338e-07
1.29361e-07
1.29371e-07
1.29393e-07
1.29402e-07
1.29411e-07
1.29425e-07
1.29444e-07
1.29461e-07
1.29476e-07
1.295e-07
1.29512e-07
1.29536e-07
1.29552e-07
1.29581e-07
1.296e-07
1.2964e-07
1.29665e-07
1.29713e-07
1.29743e-07
1.29803e-07
1.29836e-07
1.2995e-07
1.29977e-07
1.31612e-07
1.36052e-07
4.1018e-08
1.23793e-07
1.23427e-07
1.23744e-07
1.24273e-07
1.24807e-07
1.25279e-07
1.25691e-07
1.26042e-07
1.2635e-07
1.26614e-07
1.26849e-07
1.27051e-07
1.27235e-07
1.27394e-07
1.2754e-07
1.27668e-07
1.27787e-07
1.27889e-07
1.27987e-07
1.28072e-07
1.28154e-07
1.28224e-07
1.28293e-07
1.28353e-07
1.28411e-07
1.2846e-07
1.28511e-07
1.28554e-07
1.28597e-07
1.28634e-07
1.28671e-07
1.28705e-07
1.28739e-07
1.28763e-07
1.28791e-07
1.28817e-07
1.28846e-07
1.28866e-07
1.28888e-07
1.2891e-07
1.28932e-07
1.28944e-07
1.28964e-07
1.28985e-07
1.28995e-07
1.29004e-07
1.29021e-07
1.29032e-07
1.29049e-07
1.29057e-07
1.29068e-07
1.29082e-07
1.29093e-07
1.29098e-07
1.29108e-07
1.2912e-07
1.29122e-07
1.29122e-07
1.29145e-07
1.29159e-07
1.29154e-07
1.2917e-07
1.29185e-07
1.29217e-07
1.29223e-07
1.29252e-07
1.29269e-07
1.29288e-07
1.29303e-07
1.29314e-07
1.29337e-07
1.29346e-07
1.29368e-07
1.29378e-07
1.29387e-07
1.29401e-07
1.2942e-07
1.29437e-07
1.29452e-07
1.29476e-07
1.29488e-07
1.29512e-07
1.29528e-07
1.29557e-07
1.29577e-07
1.29616e-07
1.29641e-07
1.29689e-07
1.29718e-07
1.29779e-07
1.29812e-07
1.29925e-07
1.29953e-07
1.31654e-07
1.36075e-07
4.29555e-08
1.23794e-07
1.23417e-07
1.23723e-07
1.24244e-07
1.24774e-07
1.25244e-07
1.25655e-07
1.26005e-07
1.26313e-07
1.26577e-07
1.26812e-07
1.27015e-07
1.27199e-07
1.27358e-07
1.27505e-07
1.27632e-07
1.27752e-07
1.27855e-07
1.27953e-07
1.28038e-07
1.28121e-07
1.28191e-07
1.2826e-07
1.2832e-07
1.28379e-07
1.28428e-07
1.28479e-07
1.28522e-07
1.28566e-07
1.28603e-07
1.2864e-07
1.28675e-07
1.28708e-07
1.28733e-07
1.28761e-07
1.28788e-07
1.28816e-07
1.28836e-07
1.28859e-07
1.28881e-07
1.28904e-07
1.28916e-07
1.28935e-07
1.28956e-07
1.28966e-07
1.28976e-07
1.28993e-07
1.29004e-07
1.29021e-07
1.29029e-07
1.2904e-07
1.29054e-07
1.29066e-07
1.29071e-07
1.29081e-07
1.29092e-07
1.29095e-07
1.29095e-07
1.29118e-07
1.29132e-07
1.29127e-07
1.29143e-07
1.29158e-07
1.2919e-07
1.29196e-07
1.29225e-07
1.29243e-07
1.29262e-07
1.29277e-07
1.29288e-07
1.2931e-07
1.2932e-07
1.29343e-07
1.29352e-07
1.29361e-07
1.29375e-07
1.29395e-07
1.29412e-07
1.29427e-07
1.29451e-07
1.29463e-07
1.29487e-07
1.29503e-07
1.29532e-07
1.29551e-07
1.2959e-07
1.29615e-07
1.29663e-07
1.29693e-07
1.29753e-07
1.29785e-07
1.299e-07
1.29926e-07
1.31699e-07
1.36099e-07
4.49889e-08
1.23795e-07
1.23407e-07
1.23701e-07
1.24214e-07
1.24739e-07
1.25206e-07
1.25616e-07
1.25966e-07
1.26274e-07
1.26537e-07
1.26773e-07
1.26976e-07
1.27161e-07
1.2732e-07
1.27467e-07
1.27595e-07
1.27715e-07
1.27818e-07
1.27917e-07
1.28003e-07
1.28085e-07
1.28156e-07
1.28226e-07
1.28286e-07
1.28345e-07
1.28395e-07
1.28446e-07
1.28489e-07
1.28533e-07
1.2857e-07
1.28608e-07
1.28643e-07
1.28676e-07
1.28701e-07
1.2873e-07
1.28756e-07
1.28785e-07
1.28805e-07
1.28828e-07
1.2885e-07
1.28873e-07
1.28885e-07
1.28905e-07
1.28926e-07
1.28936e-07
1.28946e-07
1.28963e-07
1.28974e-07
1.28992e-07
1.29e-07
1.29011e-07
1.29025e-07
1.29037e-07
1.29042e-07
1.29052e-07
1.29063e-07
1.29066e-07
1.29066e-07
1.29089e-07
1.29103e-07
1.29099e-07
1.29115e-07
1.2913e-07
1.29161e-07
1.29168e-07
1.29197e-07
1.29215e-07
1.29234e-07
1.29249e-07
1.2926e-07
1.29282e-07
1.29293e-07
1.29315e-07
1.29325e-07
1.29334e-07
1.29348e-07
1.29368e-07
1.29385e-07
1.294e-07
1.29424e-07
1.29436e-07
1.2946e-07
1.29476e-07
1.29505e-07
1.29525e-07
1.29563e-07
1.29588e-07
1.29636e-07
1.29665e-07
1.29725e-07
1.29758e-07
1.29872e-07
1.29898e-07
1.31745e-07
1.36123e-07
4.71211e-08
1.23796e-07
1.23396e-07
1.23677e-07
1.24182e-07
1.24702e-07
1.25167e-07
1.25575e-07
1.25925e-07
1.26232e-07
1.26496e-07
1.26732e-07
1.26935e-07
1.2712e-07
1.2728e-07
1.27428e-07
1.27556e-07
1.27676e-07
1.2778e-07
1.27879e-07
1.27965e-07
1.28048e-07
1.28119e-07
1.28189e-07
1.28249e-07
1.28309e-07
1.28359e-07
1.2841e-07
1.28454e-07
1.28498e-07
1.28536e-07
1.28573e-07
1.28608e-07
1.28642e-07
1.28668e-07
1.28696e-07
1.28723e-07
1.28751e-07
1.28772e-07
1.28795e-07
1.28817e-07
1.2884e-07
1.28853e-07
1.28872e-07
1.28894e-07
1.28905e-07
1.28914e-07
1.28932e-07
1.28943e-07
1.28961e-07
1.28969e-07
1.2898e-07
1.28994e-07
1.29006e-07
1.29012e-07
1.29021e-07
1.29033e-07
1.29036e-07
1.29036e-07
1.29059e-07
1.29073e-07
1.29069e-07
1.29085e-07
1.29099e-07
1.29131e-07
1.29138e-07
1.29167e-07
1.29185e-07
1.29205e-07
1.29219e-07
1.29231e-07
1.29253e-07
1.29264e-07
1.29286e-07
1.29296e-07
1.29306e-07
1.29319e-07
1.29339e-07
1.29356e-07
1.29372e-07
1.29395e-07
1.29408e-07
1.29432e-07
1.29448e-07
1.29477e-07
1.29496e-07
1.29535e-07
1.2956e-07
1.29607e-07
1.29636e-07
1.29696e-07
1.29728e-07
1.29844e-07
1.29869e-07
1.31793e-07
1.36147e-07
4.93546e-08
1.23797e-07
1.23385e-07
1.23653e-07
1.24149e-07
1.24664e-07
1.25126e-07
1.25533e-07
1.25881e-07
1.26188e-07
1.26452e-07
1.26688e-07
1.26892e-07
1.27077e-07
1.27237e-07
1.27386e-07
1.27514e-07
1.27635e-07
1.27739e-07
1.27839e-07
1.27925e-07
1.28009e-07
1.2808e-07
1.28151e-07
1.28211e-07
1.28271e-07
1.28321e-07
1.28373e-07
1.28417e-07
1.28461e-07
1.28499e-07
1.28537e-07
1.28572e-07
1.28607e-07
1.28632e-07
1.28661e-07
1.28687e-07
1.28717e-07
1.28737e-07
1.28761e-07
1.28783e-07
1.28806e-07
1.28819e-07
1.28839e-07
1.2886e-07
1.28871e-07
1.28881e-07
1.28899e-07
1.2891e-07
1.28928e-07
1.28937e-07
1.28948e-07
1.28962e-07
1.28974e-07
1.2898e-07
1.28989e-07
1.29001e-07
1.29004e-07
1.29004e-07
1.29027e-07
1.2904e-07
1.29037e-07
1.29053e-07
1.29068e-07
1.291e-07
1.29107e-07
1.29135e-07
1.29153e-07
1.29174e-07
1.29188e-07
1.292e-07
1.29222e-07
1.29233e-07
1.29255e-07
1.29265e-07
1.29275e-07
1.29289e-07
1.29309e-07
1.29326e-07
1.29342e-07
1.29365e-07
1.29378e-07
1.29402e-07
1.29418e-07
1.29447e-07
1.29466e-07
1.29505e-07
1.2953e-07
1.29577e-07
1.29606e-07
1.29666e-07
1.29697e-07
1.29813e-07
1.29838e-07
1.31842e-07
1.3617e-07
5.16907e-08
1.23798e-07
1.23374e-07
1.23628e-07
1.24114e-07
1.24624e-07
1.25083e-07
1.25488e-07
1.25836e-07
1.26143e-07
1.26406e-07
1.26643e-07
1.26846e-07
1.27032e-07
1.27193e-07
1.27342e-07
1.27471e-07
1.27592e-07
1.27696e-07
1.27796e-07
1.27883e-07
1.27967e-07
1.28039e-07
1.2811e-07
1.28171e-07
1.28231e-07
1.28282e-07
1.28333e-07
1.28378e-07
1.28422e-07
1.28461e-07
1.28499e-07
1.28534e-07
1.28569e-07
1.28595e-07
1.28624e-07
1.2865e-07
1.2868e-07
1.28701e-07
1.28724e-07
1.28747e-07
1.2877e-07
1.28783e-07
1.28803e-07
1.28825e-07
1.28836e-07
1.28846e-07
1.28864e-07
1.28875e-07
1.28893e-07
1.28902e-07
1.28913e-07