/*--------------------------------*- C++ -*----------------------------------*\
| =========                 |                                                 |
| \\      /  F ield         | OpenFOAM: The Open Source CFD Toolbox           |
|  \\    /   O peration     | Version:  v2012                                 |
|   \\  /    A nd           | Website:  www.openfoam.com                      |
|    \\/     M anipulation  |                                                 |
\*---------------------------------------------------------------------------*/
FoamFile
{
    version     2.0;
    format      ascii;
    class       volScalarField;
    location    "20.5";
    object      omega;
}
// * * * * * * * * * * * * * * * * * * * * * * * * * * * * * * * * * * * * * //

dimensions      [0 0 -1 0 0 0 0];


internalField   nonuniform List<scalar> 
209825
(
8238.95
7571.72
7116.64
6810.42
6597.3
6443.02
6326.73
6236.77
6165.13
6107.34
6059.61
6020.03
5986.46
5958.09
5933.51
5912.47
5893.91
5877.89
5863.53
5851.06
5839.72
5829.84
5820.71
5812.81
5805.41
5798.95
5792.82
5787.56
5782.5
5778.12
5773.85
5770.23
5766.63
5763.65
5760.64
5758.11
5755.47
5753.42
5751.23
5749.46
5747.49
5746.17
5744.52
5743.12
5741.78
5740.86
5739.84
5739.2
5738.29
5737.72
5736.61
5735.94
5735.53
5735.18
5734.23
5734.4
5734.4
5734.39
5734.32
5733.91
5734.31
5734.3
5734.3
5734.31
5735.2
5735.2
5735.2
5735.71
5735.71
5736.6
5736.6
5737.9
5737.93
5739.22
5739.99
5741.11
5741.49
5742.85
5743.46
5744.82
5745.61
5747.22
5747.99
5749.74
5750.6
5752.48
5753.42
5755.61
5756.68
5759.42
5760.48
5764.74
5765.25
5803.69
5965.12
114786
8238.95
7571.72
7116.61
6810.36
6597.22
6442.91
6326.61
6236.64
6164.99
6107.19
6059.45
6019.86
5986.28
5957.91
5933.33
5912.28
5893.72
5877.7
5863.33
5850.86
5839.52
5829.63
5820.5
5812.6
5805.2
5798.74
5792.61
5787.34
5782.28
5777.9
5773.64
5770.02
5766.41
5763.43
5760.42
5757.89
5755.25
5753.2
5751.01
5749.24
5747.27
5745.95
5744.29
5742.9
5741.55
5740.64
5739.61
5738.98
5738.06
5737.5
5736.38
5735.71
5735.3
5734.95
5734.01
5734.17
5734.17
5734.17
5734.09
5733.68
5734.08
5734.08
5734.07
5734.08
5734.97
5734.97
5734.97
5735.48
5735.48
5736.37
5736.37
5737.67
5737.7
5738.99
5739.76
5740.88
5741.26
5742.62
5743.23
5744.59
5745.38
5746.99
5747.76
5749.51
5750.37
5752.24
5753.19
5755.38
5756.44
5759.19
5760.24
5764.51
5765.02
5803.53
5964.96
111490
8238.97
7571.69
7116.49
6810.15
6596.92
6442.55
6326.19
6236.17
6164.49
6106.66
6058.89
6019.29
5985.69
5957.3
5932.7
5911.65
5893.08
5877.04
5862.67
5850.19
5838.84
5828.95
5819.81
5811.9
5804.51
5798.04
5791.9
5786.63
5781.57
5777.19
5772.92
5769.3
5765.69
5762.71
5759.69
5757.16
5754.52
5752.47
5750.28
5748.5
5746.53
5745.21
5743.56
5742.16
5740.81
5739.89
5738.87
5738.24
5737.32
5736.75
5735.64
5734.96
5734.55
5734.2
5733.26
5733.42
5733.42
5733.41
5733.34
5732.93
5733.32
5733.32
5733.32
5733.32
5734.22
5734.22
5734.22
5734.73
5734.73
5735.61
5735.61
5736.91
5736.94
5738.23
5739
5740.12
5740.5
5741.86
5742.47
5743.82
5744.62
5746.22
5747
5748.74
5749.61
5751.48
5752.42
5754.61
5755.68
5758.42
5759.48
5763.74
5764.24
5802.91
5964.33
107706
8239
7571.64
7116.28
6809.77
6596.4
6441.91
6325.47
6235.37
6163.63
6105.75
6057.94
6018.3
5984.67
5956.25
5931.63
5910.56
5891.97
5875.92
5861.53
5849.04
5837.68
5827.78
5818.63
5810.71
5803.31
5796.84
5790.69
5785.42
5780.35
5775.96
5771.69
5768.06
5764.45
5761.46
5758.44
5755.91
5753.27
5751.21
5749.02
5747.24
5745.27
5743.94
5742.29
5740.89
5739.54
5738.62
5737.59
5736.96
5736.04
5735.47
5734.36
5733.68
5733.27
5732.92
5731.97
5732.14
5732.14
5732.13
5732.05
5731.64
5732.03
5732.03
5732.03
5732.03
5732.92
5732.92
5732.92
5733.43
5733.43
5734.31
5734.31
5735.61
5735.64
5736.93
5737.7
5738.82
5739.2
5740.55
5741.17
5742.52
5743.31
5744.91
5745.69
5747.43
5748.3
5750.17
5751.11
5753.3
5754.36
5757.1
5758.16
5762.42
5762.92
5801.83
5963.19
103817
8239.05
7571.57
7115.98
6809.23
6595.66
6441.01
6324.43
6234.23
6162.4
6104.45
6056.58
6016.89
5983.21
5954.76
5930.11
5909.01
5890.39
5874.32
5859.91
5847.4
5836.03
5826.11
5816.95
5809.02
5801.6
5795.12
5788.97
5783.68
5778.61
5774.21
5769.93
5766.3
5762.68
5759.69
5756.67
5754.13
5751.48
5749.42
5747.23
5745.45
5743.47
5742.14
5740.48
5739.08
5737.73
5736.81
5735.78
5735.14
5734.22
5733.65
5732.53
5731.86
5731.44
5731.09
5730.15
5730.3
5730.3
5730.29
5730.22
5729.8
5730.19
5730.19
5730.19
5730.18
5731.07
5731.07
5731.07
5731.58
5731.58
5732.46
5732.46
5733.76
5733.79
5735.07
5735.84
5736.96
5737.34
5738.69
5739.31
5740.66
5741.45
5743.05
5743.82
5745.57
5746.43
5748.3
5749.24
5751.43
5752.49
5755.23
5756.28
5760.55
5761.04
5800.27
5961.51
99925.9
8239.1
7571.48
7115.59
6808.53
6594.69
6439.83
6323.08
6232.75
6160.8
6102.76
6054.81
6015.05
5981.32
5952.82
5928.12
5906.98
5888.33
5872.23
5857.79
5845.26
5833.87
5823.93
5814.76
5806.81
5799.38
5792.89
5786.72
5781.42
5776.34
5771.93
5767.65
5764.01
5760.38
5757.38
5754.35
5751.81
5749.15
5747.09
5744.89
5743.1
5741.12
5739.79
5738.13
5736.72
5735.37
5734.44
5733.41
5732.77
5731.85
5731.28
5730.16
5729.48
5729.06
5728.71
5727.76
5727.91
5727.91
5727.9
5727.82
5727.41
5727.79
5727.79
5727.79
5727.78
5728.67
5728.67
5728.67
5729.17
5729.17
5730.05
5730.05
5731.34
5731.37
5732.65
5733.42
5734.54
5734.91
5736.27
5736.88
5738.23
5739.02
5740.62
5741.39
5743.13
5744
5745.86
5746.81
5748.99
5750.05
5752.79
5753.84
5758.1
5758.58
5798.24
5959.28
96072.8
8239.18
7571.37
7115.11
6807.66
6593.5
6438.37
6321.41
6230.9
6158.82
6100.66
6052.61
6012.77
5978.97
5950.41
5925.66
5904.47
5885.78
5869.64
5855.18
5842.61
5831.19
5821.24
5812.04
5804.07
5796.63
5790.12
5783.93
5778.63
5773.53
5769.11
5764.81
5761.16
5757.53
5754.52
5751.48
5748.93
5746.27
5744.2
5741.99
5740.2
5738.22
5736.88
5735.22
5733.81
5732.45
5731.52
5730.48
5729.84
5728.91
5728.34
5727.22
5726.54
5726.11
5725.75
5724.81
5724.95
5724.95
5724.94
5724.86
5724.44
5724.82
5724.82
5724.82
5724.8
5725.68
5725.68
5725.68
5726.19
5726.19
5727.06
5727.06
5728.35
5728.38
5729.65
5730.42
5731.54
5731.91
5733.26
5733.88
5735.22
5736.01
5737.61
5738.38
5740.12
5740.98
5742.85
5743.79
5745.97
5747.03
5749.76
5750.81
5755.07
5755.54
5795.73
5956.5
92276.7
8239.26
7571.24
7114.53
6806.62
6592.07
6436.63
6319.42
6228.71
6156.45
6098.15
6049.99
6010.05
5976.16
5947.53
5922.72
5901.47
5882.73
5866.55
5852.05
5839.45
5828
5818.01
5808.79
5800.8
5793.33
5786.8
5780.6
5775.28
5770.17
5765.74
5761.43
5757.76
5754.12
5751.1
5748.05
5745.49
5742.82
5740.75
5738.53
5736.74
5734.74
5733.4
5731.73
5730.32
5728.95
5728.01
5726.97
5726.32
5725.39
5724.82
5723.7
5723.01
5722.58
5722.22
5721.28
5721.41
5721.41
5721.4
5721.31
5720.89
5721.27
5721.26
5721.26
5721.24
5722.12
5722.12
5722.12
5722.62
5722.62
5723.49
5723.49
5724.77
5724.8
5726.07
5726.84
5727.96
5728.32
5729.67
5730.28
5731.63
5732.42
5734.01
5734.78
5736.52
5737.38
5739.24
5740.18
5742.35
5743.41
5746.14
5747.18
5751.45
5751.9
5792.73
5953.15
88546.5
8239.36
7571.09
7113.86
6805.42
6590.41
6434.6
6317.09
6226.14
6153.7
6095.23
6046.93
6006.88
5972.89
5944.17
5919.28
5897.98
5879.18
5862.95
5848.39
5835.76
5824.27
5814.25
5805
5796.98
5789.49
5782.94
5776.72
5771.38
5766.25
5761.8
5757.47
5753.8
5750.14
5747.11
5744.05
5741.48
5738.8
5736.71
5734.49
5732.69
5730.69
5729.34
5727.66
5726.24
5724.87
5723.93
5722.88
5722.23
5721.29
5720.71
5719.59
5718.9
5718.46
5718.1
5717.15
5717.28
5717.28
5717.26
5717.17
5716.74
5717.12
5717.11
5717.11
5717.08
5717.95
5717.96
5717.96
5718.45
5718.45
5719.31
5719.32
5720.59
5720.62
5721.89
5722.65
5723.77
5724.13
5725.48
5726.09
5727.43
5728.22
5729.81
5730.57
5732.31
5733.17
5735.03
5735.97
5738.13
5739.19
5741.92
5742.95
5747.21
5747.65
5789.24
5949.24
84884.9
8239.48
7570.92
7113.1
6804.05
6588.52
6432.29
6314.44
6223.21
6150.54
6091.89
6043.43
6003.25
5969.14
5940.33
5915.35
5893.97
5875.11
5858.82
5844.21
5831.53
5820
5809.94
5800.66
5792.61
5785.09
5778.51
5772.27
5766.9
5761.75
5757.29
5752.94
5749.25
5745.58
5742.54
5739.46
5736.89
5734.19
5732.09
5729.86
5728.05
5726.04
5724.68
5723
5721.57
5720.19
5719.25
5718.19
5717.53
5716.59
5716.01
5714.88
5714.19
5713.74
5713.38
5712.43
5712.55
5712.54
5712.52
5712.43
5711.99
5712.36
5712.36
5712.36
5712.32
5713.18
5713.19
5713.19
5713.68
5713.68
5714.53
5714.53
5715.81
5715.83
5717.09
5717.85
5718.98
5719.33
5720.67
5721.28
5722.62
5723.4
5724.99
5725.76
5727.49
5728.34
5730.2
5731.14
5733.3
5734.36
5737.07
5738.11
5742.37
5742.78
5785.25
5944.74
81290.2
8239.61
7570.73
7112.25
6802.51
6586.39
6429.68
6311.45
6219.91
6146.98
6088.12
6039.49
5999.15
5964.92
5935.99
5910.92
5889.45
5870.51
5854.16
5839.49
5826.75
5815.18
5805.08
5795.75
5787.67
5780.12
5773.51
5767.24
5761.85
5756.68
5752.19
5747.83
5744.12
5740.43
5737.37
5734.28
5731.69
5728.99
5726.88
5724.63
5722.81
5720.79
5719.42
5717.73
5716.3
5714.91
5713.96
5712.89
5712.23
5711.28
5710.69
5709.57
5708.86
5708.41
5708.05
5707.1
5707.2
5707.2
5707.17
5707.07
5706.63
5706.99
5706.99
5706.98
5706.94
5707.8
5707.8
5707.8
5708.28
5708.28
5709.13
5709.13
5710.4
5710.42
5711.68
5712.43
5713.56
5713.91
5715.25
5715.85
5717.19
5717.97
5719.55
5720.31
5722.04
5722.9
5724.75
5725.68
5727.84
5728.89
5731.6
5732.63
5736.89
5737.29
5780.75
5939.66
77756.5
8239.75
7570.53
7111.3
6800.8
6584.02
6426.78
6308.12
6216.23
6143.02
6083.92
6035.09
5994.58
5960.2
5931.15
5905.97
5884.41
5865.38
5848.95
5834.22
5821.43
5809.79
5799.65
5790.28
5782.16
5774.57
5767.93
5761.63
5756.21
5751.01
5746.5
5742.12
5738.39
5734.68
5731.61
5728.5
5725.89
5723.17
5721.05
5718.79
5716.96
5714.93
5713.55
5711.85
5710.41
5709.01
5708.05
5706.97
5706.3
5705.34
5704.76
5703.63
5702.92
5702.46
5702.09
5701.14
5701.23
5701.22
5701.19
5701.09
5700.64
5700.99
5700.99
5700.98
5700.93
5701.78
5701.78
5701.78
5702.26
5702.26
5703.1
5703.1
5704.36
5704.37
5705.63
5706.38
5707.51
5707.85
5709.18
5709.79
5711.12
5711.89
5713.47
5714.23
5715.95
5716.81
5718.66
5719.59
5721.74
5722.79
5725.49
5726.51
5730.77
5731.15
5775.74
5933.98
74277
8239.91
7570.3
7110.27
6798.92
6581.41
6423.58
6304.44
6212.17
6138.64
6079.28
6030.22
5989.53
5954.99
5925.8
5900.5
5878.83
5859.71
5843.2
5828.39
5815.53
5803.84
5793.64
5784.22
5776.06
5768.43
5761.75
5755.42
5749.97
5744.74
5740.21
5735.8
5732.05
5728.31
5725.22
5722.1
5719.48
5716.74
5714.6
5712.33
5710.49
5708.44
5707.05
5705.35
5703.9
5702.49
5701.51
5700.43
5699.75
5698.78
5698.19
5697.06
5696.34
5695.87
5695.5
5694.54
5694.62
5694.61
5694.58
5694.47
5694.01
5694.35
5694.35
5694.34
5694.28
5695.12
5695.12
5695.12
5695.59
5695.59
5696.42
5696.42
5697.67
5697.69
5698.94
5699.68
5700.82
5701.14
5702.47
5703.07
5704.41
5705.17
5706.75
5707.51
5709.22
5710.07
5711.92
5712.84
5714.99
5716.03
5718.73
5719.74
5724
5724.35
5770.21
5927.7
70858.1
8240.08
7570.06
7109.14
6796.86
6578.56
6420.08
6300.42
6207.72
6133.84
6074.19
6024.89
5983.99
5949.27
5919.93
5894.49
5872.71
5853.49
5836.89
5822
5809.07
5797.31
5787.05
5777.58
5769.37
5761.69
5754.98
5748.6
5743.12
5737.86
5733.3
5728.86
5725.09
5721.33
5718.22
5715.07
5712.43
5709.68
5707.53
5705.24
5703.38
5701.32
5699.92
5698.2
5696.74
5695.32
5694.34
5693.24
5692.55
5691.58
5690.98
5689.84
5689.12
5688.64
5688.26
5687.31
5687.36
5687.35
5687.31
5687.19
5686.73
5687.06
5687.06
5687.06
5686.98
5687.81
5687.81
5687.81
5688.27
5688.27
5689.09
5689.09
5690.33
5690.35
5691.59
5692.33
5693.46
5693.78
5695.1
5695.7
5697.03
5697.79
5699.36
5700.12
5701.83
5702.68
5704.52
5705.44
5707.58
5708.62
5711.3
5712.31
5716.57
5716.89
5764.15
5920.8
67506
8240.26
7569.81
7107.93
6794.64
6575.47
6416.28
6296.04
6202.89
6128.62
6068.66
6019.09
5977.96
5943.05
5913.54
5887.96
5866.05
5846.71
5830.01
5815.03
5802.02
5790.19
5779.87
5770.34
5762.07
5754.34
5747.59
5741.17
5735.66
5730.36
5725.77
5721.3
5717.5
5713.72
5710.58
5707.41
5704.75
5701.98
5699.81
5697.5
5695.64
5693.56
5692.14
5690.41
5688.94
5687.51
5686.51
5685.4
5684.7
5683.72
5683.12
5681.97
5681.24
5680.75
5680.37
5679.41
5679.45
5679.44
5679.39
5679.26
5678.8
5679.12
5679.11
5679.1
5679.02
5679.83
5679.83
5679.83
5680.29
5680.29
5681.1
5681.1
5682.33
5682.34
5683.57
5684.3
5685.44
5685.75
5687.07
5687.66
5688.99
5689.74
5691.31
5692.06
5693.76
5694.61
5696.44
5697.36
5699.49
5700.53
5703.21
5704.2
5708.46
5708.76
5757.56
5913.27
64226.1
8240.47
7569.54
7106.62
6792.25
6572.13
6412.17
6291.32
6197.66
6122.98
6062.67
6012.81
5971.43
5936.31
5906.62
5880.87
5858.82
5839.37
5822.55
5807.48
5794.38
5782.47
5772.08
5762.48
5754.16
5746.38
5739.58
5733.12
5727.56
5722.23
5717.6
5713.1
5709.27
5705.46
5702.3
5699.1
5696.43
5693.63
5691.44
5689.12
5687.23
5685.14
5683.7
5681.96
5680.48
5679.03
5678.02
5676.9
5676.19
5675.2
5674.59
5673.44
5672.7
5672.19
5671.81
5670.85
5670.87
5670.85
5670.8
5670.66
5670.19
5670.49
5670.49
5670.48
5670.38
5671.18
5671.18
5671.18
5671.63
5671.63
5672.43
5672.43
5673.64
5673.65
5674.88
5675.6
5676.74
5677.04
5678.35
5678.94
5680.27
5681.01
5682.57
5683.32
5685.01
5685.86
5687.68
5688.6
5690.72
5691.75
5694.42
5695.41
5699.66
5699.93
5750.42
5905.12
61023.7
8240.68
7569.25
7105.23
6789.69
6568.56
6407.76
6286.24
6192.03
6116.9
6056.22
6006.04
5964.4
5929.05
5899.16
5873.24
5851.04
5831.45
5814.52
5799.34
5786.14
5774.15
5763.68
5754.02
5745.63
5737.79
5730.94
5724.43
5718.83
5713.45
5708.79
5704.26
5700.4
5696.55
5693.36
5690.14
5687.44
5684.62
5682.41
5680.07
5678.17
5676.05
5674.6
5672.85
5671.36
5669.89
5668.86
5667.72
5667
5666
5665.38
5664.23
5663.48
5662.96
5662.57
5661.62
5661.61
5661.58
5661.52
5661.38
5660.9
5661.19
5661.19
5661.18
5661.06
5661.85
5661.85
5661.85
5662.28
5662.28
5663.07
5663.07
5664.27
5664.28
5665.49
5666.21
5667.35
5667.63
5668.94
5669.53
5670.85
5671.59
5673.14
5673.88
5675.57
5676.41
5678.23
5679.14
5681.26
5682.28
5684.94
5685.91
5690.17
5690.41
5742.73
5896.31
57903.8
8240.91
7568.95
7103.76
6786.96
6564.74
6403.05
6280.8
6186
6110.39
6049.3
5998.79
5956.86
5921.26
5891.15
5865.05
5842.69
5822.95
5805.89
5790.6
5777.3
5765.22
5754.67
5744.93
5736.47
5728.57
5721.66
5715.1
5709.45
5704.03
5699.33
5694.75
5690.86
5686.98
5683.77
5680.52
5677.79
5674.95
5672.71
5670.34
5668.43
5666.29
5664.82
5663.05
5661.55
5660.06
5659.02
5657.87
5657.14
5656.12
5655.49
5654.34
5653.57
5653.04
5652.64
5651.69
5651.67
5651.63
5651.56
5651.41
5650.92
5651.19
5651.19
5651.18
5651.05
5651.82
5651.81
5651.82
5652.24
5652.24
5653.01
5653.01
5654.2
5654.2
5655.41
5656.12
5657.26
5657.53
5658.84
5659.42
5660.73
5661.46
5663.01
5663.75
5665.42
5666.26
5668.08
5668.98
5671.08
5672.1
5674.75
5675.71
5679.97
5680.18
5734.48
5886.84
54870.7
8241.16
7568.65
7102.2
6784.06
6560.67
6398.03
6275.01
6179.58
6103.44
6041.92
5991.04
5948.8
5912.93
5882.6
5856.29
5833.75
5813.86
5796.67
5781.25
5767.85
5755.66
5745.02
5735.2
5726.67
5718.7
5711.74
5705.12
5699.42
5693.95
5689.2
5684.59
5680.66
5676.75
5673.5
5670.21
5667.46
5664.59
5662.33
5659.94
5658
5655.85
5654.36
5652.57
5651.05
5649.55
5648.49
5647.32
5646.57
5645.54
5644.91
5643.75
5642.97
5642.42
5642.02
5641.07
5641.02
5640.97
5640.89
5640.74
5640.23
5640.49
5640.49
5640.47
5640.33
5641.08
5641.08
5641.08
5641.49
5641.49
5642.25
5642.25
5643.42
5643.42
5644.62
5645.32
5646.46
5646.72
5648.01
5648.59
5649.9
5650.62
5652.16
5652.89
5654.56
5655.4
5657.2
5658.1
5660.19
5661.2
5663.84
5664.8
5669.04
5669.23
5725.66
5876.7
51928.5
8241.42
7568.33
7100.56
6781
6556.37
6392.71
6268.85
6172.75
6096.05
6034.07
5982.8
5940.22
5904.07
5873.49
5846.97
5824.24
5804.18
5786.84
5771.29
5757.77
5745.47
5734.75
5724.83
5716.23
5708.19
5701.15
5694.47
5688.72
5683.2
5678.41
5673.75
5669.78
5665.83
5662.54
5659.23
5656.45
5653.55
5651.26
5648.84
5646.88
5644.71
5643.19
5641.39
5639.86
5638.33
5637.26
5636.07
5635.31
5634.26
5633.62
5632.45
5631.66
5631.09
5630.69
5629.73
5629.66
5629.6
5629.51
5629.35
5628.84
5629.08
5629.08
5629.06
5628.89
5629.63
5629.63
5629.62
5630.03
5630.02
5630.77
5630.76
5631.92
5631.92
5633.11
5633.79
5634.94
5635.18
5636.47
5637.04
5638.35
5639.05
5640.59
5641.31
5642.98
5643.8
5645.6
5646.5
5648.58
5649.58
5652.21
5653.15
5657.39
5657.55
5716.24
5865.87
49081.2
8241.69
7568
7098.84
6777.78
6551.83
6387.08
6262.34
6165.51
6088.22
6025.74
5974.05
5931.12
5894.66
5863.82
5837.07
5814.14
5793.9
5776.4
5760.71
5747.06
5734.65
5723.82
5713.82
5705.13
5697.01
5689.91
5683.16
5677.35
5671.77
5666.93
5662.23
5658.21
5654.22
5650.9
5647.55
5644.74
5641.81
5639.49
5637.05
5635.07
5632.86
5631.33
5629.5
5627.95
5626.41
5625.32
5624.11
5623.33
5622.27
5621.61
5620.44
5619.64
5619.05
5618.63
5617.68
5617.58
5617.51
5617.41
5617.24
5616.72
5616.94
5616.94
5616.92
5616.73
5617.45
5617.45
5617.44
5617.83
5617.83
5618.55
5618.55
5619.69
5619.69
5620.87
5621.53
5622.69
5622.91
5624.19
5624.76
5626.06
5626.75
5628.28
5629
5630.65
5631.48
5633.26
5634.15
5636.22
5637.22
5639.83
5640.76
5645
5645.13
5706.23
5854.32
46332
8241.98
7567.67
7097.04
6774.4
6547.05
6381.14
6255.46
6157.87
6079.95
6016.94
5964.8
5921.49
5884.71
5853.58
5826.58
5803.44
5783.01
5765.34
5749.5
5735.72
5723.19
5712.25
5702.14
5693.37
5685.16
5677.99
5671.17
5665.3
5659.66
5654.77
5650.01
5645.95
5641.92
5638.56
5635.17
5632.32
5629.36
5627.01
5624.54
5622.53
5620.31
5618.74
5616.9
5615.33
5613.76
5612.66
5611.42
5610.63
5609.55
5608.88
5607.7
5606.89
5606.28
5605.86
5604.9
5604.78
5604.69
5604.58
5604.4
5603.87
5604.07
5604.07
5604.04
5603.84
5604.53
5604.53
5604.53
5604.9
5604.9
5605.6
5605.6
5606.72
5606.72
5607.88
5608.54
5609.69
5609.9
5611.17
5611.73
5613.02
5613.71
5615.22
5615.94
5617.58
5618.4
5620.18
5621.06
5623.12
5624.1
5626.7
5627.62
5631.85
5631.96
5695.61
5842.05
43684
8242.28
7567.32
7095.17
6770.86
6542.03
6374.9
6248.23
6149.82
6071.22
6007.65
5955.04
5911.33
5874.2
5842.77
5815.51
5792.14
5771.51
5753.66
5737.65
5723.73
5711.07
5700.02
5689.81
5680.93
5672.64
5665.39
5658.5
5652.56
5646.86
5641.91
5637.1
5632.99
5628.91
5625.51
5622.08
5619.2
5616.2
5613.82
5611.31
5609.28
5607.03
5605.44
5603.57
5601.99
5600.39
5599.26
5598.01
5597.2
5596.1
5595.42
5594.23
5593.4
5592.77
5592.34
5591.38
5591.23
5591.13
5591.01
5590.82
5590.28
5590.46
5590.46
5590.42
5590.2
5590.87
5590.87
5590.87
5591.22
5591.22
5591.9
5591.9
5593
5593
5594.15
5594.79
5595.94
5596.13
5597.4
5597.95
5599.24
5599.91
5601.42
5602.12
5603.75
5604.57
5606.34
5607.21
5609.25
5610.23
5612.82
5613.72
5617.95
5618.03
5684.37
5829.02
41139.9
8242.6
7566.98
7093.22
6767.16
6536.78
6368.36
6240.63
6141.36
6062.05
5997.89
5944.77
5900.64
5863.13
5831.39
5803.85
5780.24
5759.38
5741.35
5725.17
5711.1
5698.3
5687.13
5676.8
5667.83
5659.44
5652.1
5645.13
5639.12
5633.35
5628.35
5623.48
5619.32
5615.19
5611.74
5608.27
5605.35
5602.31
5599.9
5597.36
5595.3
5593.02
5591.4
5589.51
5587.9
5586.28
5585.13
5583.85
5583.02
5581.91
5581.21
5580.01
5579.17
5578.52
5578.08
5577.12
5576.94
5576.82
5576.69
5576.49
5575.94
5576.09
5576.09
5576.05
5575.81
5576.46
5576.45
5576.45
5576.79
5576.79
5577.45
5577.45
5578.52
5578.52
5579.66
5580.27
5581.43
5581.61
5582.86
5583.4
5584.69
5585.34
5586.84
5587.54
5589.16
5589.97
5591.72
5592.59
5594.62
5595.59
5598.16
5599.05
5603.27
5603.33
5672.48
5815.22
38702
8242.93
7566.63
7091.21
6763.31
6531.29
6361.52
6232.68
6132.5
6052.43
5987.64
5933.99
5889.4
5851.51
5819.43
5791.59
5767.72
5746.64
5728.41
5712.05
5697.82
5684.87
5673.56
5663.12
5654.03
5645.55
5638.12
5631.07
5624.98
5619.14
5614.08
5609.14
5604.93
5600.75
5597.25
5593.73
5590.77
5587.7
5585.25
5582.67
5580.58
5578.27
5576.62
5574.71
5573.08
5571.43
5570.26
5568.95
5568.1
5566.96
5566.25
5565.05
5564.19
5563.51
5563.06
5562.09
5561.89
5561.75
5561.6
5561.4
5560.84
5560.97
5560.97
5560.92
5560.65
5561.28
5561.27
5561.27
5561.59
5561.59
5562.23
5562.22
5563.27
5563.27
5564.39
5564.99
5566.15
5566.31
5567.56
5568.08
5569.36
5570.01
5571.49
5572.19
5573.79
5574.59
5576.34
5577.2
5579.21
5580.17
5582.73
5583.59
5587.81
5587.85
5659.93
5800.6
36372.4
8243.27
7566.28
7089.14
6759.32
6525.58
6354.38
6224.37
6123.22
6042.36
5976.9
5922.69
5877.63
5839.32
5806.88
5778.74
5754.59
5733.27
5714.82
5698.27
5683.87
5670.77
5659.32
5648.75
5639.55
5630.96
5623.44
5616.3
5610.13
5604.22
5599.08
5594.08
5589.82
5585.58
5582.03
5578.46
5575.46
5572.34
5569.85
5567.24
5565.12
5562.77
5561.09
5559.15
5557.5
5555.83
5554.63
5553.29
5552.42
5551.26
5550.53
5549.32
5548.44
5547.74
5547.28
5546.31
5546.07
5545.91
5545.76
5545.55
5544.98
5545.08
5545.07
5545.02
5544.73
5545.32
5545.32
5545.31
5545.61
5545.61
5546.23
5546.23
5547.24
5547.24
5548.36
5548.93
5550.08
5550.23
5551.47
5551.99
5553.26
5553.89
5555.36
5556.05
5557.64
5558.43
5560.17
5561.02
5563.02
5563.97
5566.51
5567.36
5571.55
5571.58
5646.71
5785.14
34152.8
8243.63
7565.94
7087
6755.18
6519.65
6346.95
6215.7
6113.55
6031.85
5965.69
5910.88
5865.31
5826.57
5793.76
5765.28
5740.85
5719.27
5700.6
5683.84
5669.26
5655.99
5644.4
5633.69
5624.38
5615.67
5608.06
5600.82
5594.57
5588.57
5583.37
5578.3
5573.97
5569.67
5566.07
5562.45
5559.41
5556.24
5553.71
5551.06
5548.9
5546.52
5544.81
5542.84
5541.17
5539.46
5538.23
5536.87
5535.98
5534.79
5534.05
5532.82
5531.93
5531.2
5530.73
5529.75
5529.48
5529.3
5529.13
5528.91
5528.34
5528.42
5528.4
5528.33
5528.02
5528.59
5528.59
5528.58
5528.86
5528.86
5529.45
5529.44
5530.43
5530.43
5531.53
5532.09
5533.23
5533.37
5534.59
5535.1
5536.36
5536.98
5538.44
5539.12
5540.69
5541.48
5543.2
5544.05
5546.03
5546.96
5549.49
5550.32
5554.5
5554.52
5632.77
5768.82
32044.5
8244
7565.59
7084.8
6750.9
6513.5
6339.22
6206.68
6103.47
6020.88
5953.99
5898.56
5852.45
5813.25
5780.04
5751.22
5726.48
5704.63
5685.72
5668.75
5653.98
5640.54
5628.8
5617.95
5608.5
5599.68
5591.96
5584.62
5578.28
5572.2
5566.92
5561.78
5557.39
5553.02
5549.37
5545.69
5542.6
5539.39
5536.82
5534.12
5531.93
5529.51
5527.76
5525.76
5524.06
5522.32
5521.07
5519.68
5518.76
5517.55
5516.79
5515.55
5514.64
5513.88
5513.4
5512.41
5512.11
5511.91
5511.72
5511.5
5510.92
5510.97
5510.95
5510.86
5510.53
5511.07
5511.07
5511.05
5511.31
5511.31
5511.87
5511.87
5512.83
5512.83
5513.91
5514.44
5515.59
5515.7
5516.92
5517.41
5518.66
5519.26
5520.71
5521.38
5522.94
5523.72
5525.43
5526.27
5528.23
5529.16
5531.66
5532.48
5536.64
5536.65
5618.07
5751.63
30048.7
8244.38
7565.25
7082.55
6746.49
6507.13
6331.21
6197.32
6092.98
6009.47
5941.8
5885.71
5839.05
5799.36
5765.74
5736.55
5711.49
5689.36
5670.2
5653
5638.03
5624.41
5612.5
5601.5
5591.92
5582.97
5575.14
5567.7
5561.27
5555.1
5549.74
5544.52
5540.06
5535.63
5531.91
5528.18
5525.04
5521.77
5519.16
5516.42
5514.19
5511.73
5509.94
5507.91
5506.19
5504.41
5503.13
5501.71
5500.76
5499.53
5498.75
5497.49
5496.56
5495.78
5495.28
5494.28
5493.96
5493.73
5493.53
5493.29
5492.71
5492.72
5492.7
5492.6
5492.24
5492.75
5492.75
5492.73
5492.97
5492.97
5493.5
5493.5
5494.42
5494.43
5495.49
5496
5497.13
5497.24
5498.44
5498.92
5500.16
5500.75
5502.18
5502.84
5504.39
5505.16
5506.85
5507.68
5509.62
5510.54
5513.02
5513.82
5517.96
5517.97
5602.57
5733.54
28166.3
8244.77
7564.91
7080.25
6741.95
6500.55
6322.91
6187.6
6082.1
5997.62
5929.13
5872.35
5825.1
5784.91
5750.85
5721.27
5695.88
5673.44
5654.02
5636.58
5621.4
5607.59
5595.51
5584.35
5574.63
5565.55
5557.61
5550.05
5543.52
5537.25
5531.81
5526.51
5521.98
5517.48
5513.7
5509.91
5506.72
5503.4
5500.73
5497.94
5495.68
5493.18
5491.35
5489.29
5487.53
5485.72
5484.41
5482.95
5481.98
5480.72
5479.91
5478.65
5477.7
5476.88
5476.37
5475.36
5475
5474.76
5474.53
5474.29
5473.7
5473.69
5473.65
5473.54
5473.15
5473.63
5473.63
5473.61
5473.83
5473.82
5474.32
5474.32
5475.21
5475.21
5476.26
5476.74
5477.87
5477.96
5479.15
5479.61
5480.85
5481.41
5482.83
5483.48
5485.01
5485.77
5487.45
5488.27
5490.2
5491.1
5493.56
5494.34
5498.46
5498.46
5586.21
5714.53
26398.4
8245.17
7564.59
7077.91
6737.29
6493.77
6314.34
6177.55
6070.83
5985.33
5915.99
5858.48
5810.62
5769.89
5735.36
5705.38
5679.64
5656.89
5637.19
5619.5
5604.1
5590.08
5577.82
5566.5
5556.63
5547.41
5539.34
5531.67
5525.04
5518.67
5513.14
5507.76
5503.15
5498.58
5494.73
5490.87
5487.62
5484.25
5481.54
5478.7
5476.39
5473.85
5471.98
5469.87
5468.09
5466.25
5464.9
5463.41
5462.4
5461.12
5460.29
5459
5458.04
5457.19
5456.66
5455.64
5455.25
5454.98
5454.73
5454.48
5453.89
5453.84
5453.79
5453.67
5453.26
5453.7
5453.71
5453.68
5453.87
5453.85
5454.33
5454.33
5455.18
5455.19
5456.22
5456.66
5457.79
5457.86
5459.04
5459.48
5460.71
5461.26
5462.66
5463.3
5464.82
5465.57
5467.23
5468.03
5469.94
5470.83
5473.28
5474.04
5478.13
5478.13
5568.96
5694.57
24745.5
8245.59
7564.27
7075.52
6732.51
6486.79
6305.5
6167.16
6059.17
5972.6
5902.36
5844.1
5795.59
5754.3
5719.29
5688.88
5662.77
5639.69
5619.7
5601.75
5586.11
5571.88
5559.44
5547.94
5537.91
5528.55
5520.35
5512.56
5505.81
5499.34
5493.72
5488.25
5483.56
5478.91
5475
5471.07
5467.76
5464.33
5461.56
5458.67
5456.32
5453.73
5451.82
5449.67
5447.86
5445.98
5444.6
5443.07
5442.03
5440.71
5439.86
5438.56
5437.57
5436.69
5436.15
5435.11
5434.69
5434.39
5434.12
5433.86
5433.26
5433.19
5433.12
5432.98
5432.55
5432.96
5432.96
5432.93
5433.1
5433.07
5433.52
5433.51
5434.34
5434.34
5435.35
5435.77
5436.88
5436.94
5438.11
5438.53
5439.75
5440.28
5441.67
5442.29
5443.79
5444.53
5446.17
5446.97
5448.86
5449.73
5452.16
5452.9
5456.96
5456.96
5550.75
5673.64
23208
8246.01
7563.96
7073.1
6727.62
6479.62
6296.4
6156.45
6047.12
5959.43
5888.27
5829.21
5780.02
5738.14
5702.63
5671.78
5645.28
5621.85
5601.55
5583.32
5567.44
5552.99
5540.35
5528.66
5518.48
5508.96
5500.63
5492.71
5485.84
5479.26
5473.55
5467.98
5463.21
5458.48
5454.49
5450.49
5447.12
5443.63
5440.81
5437.86
5435.46
5432.82
5430.86
5428.68
5426.83
5424.91
5423.49
5421.93
5420.86
5419.51
5418.63
5417.31
5416.3
5415.38
5414.82
5413.78
5413.32
5412.99
5412.7
5412.42
5411.82
5411.71
5411.63
5411.48
5411.02
5411.4
5411.4
5411.36
5411.51
5411.47
5411.88
5411.88
5412.66
5412.66
5413.66
5414.04
5415.14
5415.19
5416.34
5416.75
5417.95
5418.46
5419.83
5420.45
5421.92
5422.65
5424.28
5425.06
5426.93
5427.79
5430.19
5430.91
5434.95
5434.95
5531.53
5651.71
21780.8
8246.45
7563.67
7070.65
6722.63
6472.27
6287.03
6145.41
6034.69
5945.84
5873.7
5813.81
5763.92
5721.43
5685.38
5654.06
5627.15
5603.36
5582.74
5564.23
5548.09
5533.4
5520.56
5508.68
5498.32
5488.64
5480.17
5472.11
5465.13
5458.43
5452.62
5446.95
5442.1
5437.27
5433.21
5429.13
5425.7
5422.15
5419.26
5416.26
5413.81
5411.12
5409.12
5406.89
5405.01
5403.04
5401.59
5399.98
5398.88
5397.49
5396.59
5395.25
5394.21
5393.26
5392.68
5391.62
5391.13
5390.77
5390.45
5390.16
5389.56
5389.42
5389.31
5389.15
5388.67
5389.01
5389.01
5388.97
5389.09
5389.04
5389.42
5389.41
5390.16
5390.16
5391.13
5391.48
5392.57
5392.61
5393.74
5394.12
5395.32
5395.81
5397.16
5397.76
5399.22
5399.93
5401.54
5402.31
5404.16
5405.01
5407.38
5408.08
5412.09
5412.09
5511.24
5628.75
20459
8246.89
7563.39
7068.18
6717.54
6464.75
6277.42
6134.06
6021.89
5931.83
5858.67
5797.92
5747.28
5704.15
5667.55
5635.74
5608.41
5584.23
5563.28
5544.46
5528.06
5513.13
5500.06
5487.99
5477.45
5467.6
5458.97
5450.78
5443.67
5436.85
5430.93
5425.16
5420.21
5415.3
5411.16
5407
5403.5
5399.88
5396.93
5393.86
5391.37
5388.63
5386.57
5384.3
5382.38
5380.37
5378.88
5377.23
5376.09
5374.67
5373.73
5372.37
5371.31
5370.33
5369.72
5368.65
5368.12
5367.73
5367.39
5367.08
5366.47
5366.3
5366.17
5365.99
5365.5
5365.79
5365.79
5365.74
5365.84
5365.77
5366.11
5366.11
5366.81
5366.82
5367.77
5368.08
5369.15
5369.18
5370.3
5370.66
5371.84
5372.31
5373.64
5374.23
5375.67
5376.37
5377.95
5378.72
5380.54
5381.37
5383.73
5384.4
5388.38
5388.38
5489.84
5604.74
19237.6
8247.34
7563.13
7065.68
6712.36
6457.05
6267.57
6122.39
6008.72
5917.41
5843.18
5781.52
5730.12
5686.32
5649.14
5616.82
5589.04
5564.47
5543.17
5524.03
5507.35
5492.16
5478.87
5466.58
5455.85
5445.82
5437.05
5428.7
5421.46
5414.52
5408.48
5402.6
5397.56
5392.55
5388.33
5384.09
5380.52
5376.82
5373.81
5370.68
5368.13
5365.33
5363.22
5360.91
5358.95
5356.89
5355.36
5353.66
5352.48
5351.03
5350.06
5348.68
5347.59
5346.57
5345.94
5344.85
5344.28
5343.86
5343.49
5343.17
5342.55
5342.34
5342.2
5342.01
5341.49
5341.74
5341.74
5341.69
5341.76
5341.67
5341.98
5341.97
5342.63
5342.64
5343.56
5343.84
5344.89
5344.91
5346.01
5346.35
5347.52
5347.96
5349.28
5349.85
5351.26
5351.95
5353.52
5354.27
5356.07
5356.88
5359.21
5359.87
5363.82
5363.81
5467.25
5579.64
18111
8247.8
7562.89
7063.17
6707.1
6449.2
6257.49
6110.44
5995.2
5902.57
5827.25
5764.64
5712.43
5667.93
5630.15
5597.3
5569.05
5544.06
5522.4
5502.93
5485.96
5470.5
5456.97
5444.46
5433.53
5423.32
5414.38
5405.88
5398.5
5391.42
5385.27
5379.28
5374.14
5369.03
5364.72
5360.39
5356.75
5352.98
5349.9
5346.7
5344.09
5341.24
5339.07
5336.7
5334.71
5332.6
5331.02
5329.28
5328.07
5326.57
5325.57
5324.16
5323.05
5321.99
5321.33
5320.23
5319.62
5319.16
5318.77
5318.43
5317.8
5317.56
5317.39
5317.19
5316.65
5316.85
5316.85
5316.79
5316.84
5316.73
5317
5317
5317.61
5317.61
5318.51
5318.75
5319.78
5319.79
5320.88
5321.19
5322.34
5322.76
5324.06
5324.61
5326.01
5326.68
5328.22
5328.96
5330.73
5331.54
5333.84
5334.47
5338.38
5338.37
5443.42
5553.43
17073.8
8248.26
7562.66
7060.64
6701.77
6441.21
6247.18
6098.19
5981.33
5887.34
5810.86
5747.28
5694.23
5649
5610.59
5577.18
5548.45
5523.03
5500.98
5481.17
5463.89
5448.14
5434.37
5421.63
5410.5
5400.09
5390.98
5382.32
5374.79
5367.58
5361.31
5355.19
5349.94
5344.74
5340.33
5335.91
5332.19
5328.34
5325.2
5321.92
5319.26
5316.34
5314.12
5311.7
5309.66
5307.5
5305.88
5304.09
5302.83
5301.29
5300.25
5298.83
5297.69
5296.58
5295.89
5294.77
5294.13
5293.64
5293.21
5292.86
5292.21
5291.94
5291.74
5291.53
5290.97
5291.13
5291.13
5291.06
5291.08
5290.95
5291.19
5291.17
5291.74
5291.74
5292.61
5292.82
5293.82
5293.83
5294.89
5295.18
5296.32
5296.71
5297.99
5298.52
5299.89
5300.55
5302.07
5302.79
5304.54
5305.33
5307.6
5308.22
5312.08
5312.08
5418.31
5526.07
16120.2
8248.73
7562.46
7058.12
6696.37
6433.07
6236.66
6085.66
5967.12
5871.71
5794.04
5729.44
5675.51
5629.53
5590.46
5556.47
5527.24
5501.36
5478.92
5458.74
5441.14
5425.11
5411.07
5398.09
5386.74
5376.14
5366.85
5358.02
5350.34
5342.98
5336.58
5330.34
5324.98
5319.67
5315.17
5310.65
5306.85
5302.92
5299.7
5296.35
5293.62
5290.65
5288.36
5285.88
5283.8
5281.58
5279.92
5278.07
5276.78