/*--------------------------------*- C++ -*----------------------------------*\
| =========                 |                                                 |
| \\      /  F ield         | OpenFOAM: The Open Source CFD Toolbox           |
|  \\    /   O peration     | Version:  v2012                                 |
|   \\  /    A nd           | Website:  www.openfoam.com                      |
|    \\/     M anipulation  |                                                 |
\*---------------------------------------------------------------------------*/
FoamFile
{
    version     2.0;
    format      ascii;
    class       volVectorField;
    location    "20.5";
    object      wallShearStress;
}
// * * * * * * * * * * * * * * * * * * * * * * * * * * * * * * * * * * * * * //

dimensions      [0 2 -2 0 0 0 0];


internalField   uniform (0 0 0);

boundaryField
{
    inlet
    {
        type            calculated;
        value           uniform (0 0 0);
    }
    outlet
    {
        type            calculated;
        value           uniform (0 0 0);
    }
    topWall
    {
        type            calculated;
        value           nonuniform List<vector> 
545
(
(3.48689e-08 -2.45325e-08 0)
(3.48838e-08 -6.86907e-08 0)
(3.48494e-08 -1.14594e-07 0)
(3.4806e-08 -1.59144e-07 0)
(3.47646e-08 -2.01787e-07 0)
(3.47152e-08 -2.43072e-07 0)
(3.46593e-08 -2.83348e-07 0)
(3.45974e-08 -3.22598e-07 0)
(3.45297e-08 -3.60736e-07 0)
(3.44568e-08 -3.9776e-07 0)
(3.43792e-08 -4.33718e-07 0)
(3.42974e-08 -4.68653e-07 0)
(3.42118e-08 -5.02588e-07 0)
(3.41228e-08 -5.35544e-07 0)
(3.40307e-08 -5.67544e-07 0)
(3.39359e-08 -5.98614e-07 0)
(3.38388e-08 -6.28779e-07 0)
(3.37395e-08 -6.58064e-07 0)
(3.36386e-08 -6.86492e-07 0)
(3.35361e-08 -7.14086e-07 0)
(3.34324e-08 -7.4087e-07 0)
(3.33276e-08 -7.66867e-07 0)
(3.32221e-08 -7.92098e-07 0)
(3.3116e-08 -8.16586e-07 0)
(3.30095e-08 -8.40352e-07 0)
(3.29028e-08 -8.63416e-07 0)
(3.2796e-08 -8.85799e-07 0)
(3.26893e-08 -9.07521e-07 0)
(3.25828e-08 -9.28601e-07 0)
(3.24767e-08 -9.49059e-07 0)
(3.23711e-08 -9.68912e-07 0)
(3.2266e-08 -9.88179e-07 0)
(3.21617e-08 -1.00688e-06 0)
(3.20581e-08 -1.02502e-06 0)
(3.19554e-08 -1.04263e-06 0)
(3.18536e-08 -1.05973e-06 0)
(3.17528e-08 -1.07631e-06 0)
(3.16531e-08 -1.09241e-06 0)
(3.15544e-08 -1.10804e-06 0)
(3.1457e-08 -1.12321e-06 0)
(3.13607e-08 -1.13793e-06 0)
(3.12657e-08 -1.15222e-06 0)
(3.1172e-08 -1.16609e-06 0)
(3.10795e-08 -1.17956e-06 0)
(3.09884e-08 -1.19263e-06 0)
(3.08986e-08 -1.20532e-06 0)
(3.08102e-08 -1.21764e-06 0)
(3.07232e-08 -1.2296e-06 0)
(3.06375e-08 -1.24121e-06 0)
(3.05532e-08 -1.25248e-06 0)
(3.04704e-08 -1.26343e-06 0)
(3.03889e-08 -1.27406e-06 0)
(3.03088e-08 -1.28439e-06 0)
(3.02301e-08 -1.29441e-06 0)
(3.01528e-08 -1.30414e-06 0)
(3.00768e-08 -1.3136e-06 0)
(3.00022e-08 -1.32278e-06 0)
(2.9929e-08 -1.3317e-06 0)
(2.98571e-08 -1.34036e-06 0)
(2.97866e-08 -1.34877e-06 0)
(2.97174e-08 -1.35694e-06 0)
(2.96495e-08 -1.36488e-06 0)
(2.95828e-08 -1.37259e-06 0)
(2.95175e-08 -1.38008e-06 0)
(2.94533e-08 -1.38736e-06 0)
(2.93905e-08 -1.39443e-06 0)
(2.93288e-08 -1.4013e-06 0)
(2.92683e-08 -1.40797e-06 0)
(2.9209e-08 -1.41446e-06 0)
(2.91508e-08 -1.42076e-06 0)
(2.90941e-08 -1.42689e-06 0)
(2.90365e-08 -1.43283e-06 0)
(2.89816e-08 -1.43853e-06 0)
(2.89312e-08 -1.44409e-06 0)
(2.88807e-08 -1.44957e-06 0)
(2.88302e-08 -1.45502e-06 0)
(2.87798e-08 -1.46045e-06 0)
(2.87295e-08 -1.46585e-06 0)
(2.86792e-08 -1.47121e-06 0)
(2.86289e-08 -1.47653e-06 0)
(2.85787e-08 -1.48182e-06 0)
(2.85286e-08 -1.48708e-06 0)
(2.84785e-08 -1.4923e-06 0)
(2.84284e-08 -1.4975e-06 0)
(2.83784e-08 -1.50265e-06 0)
(2.83285e-08 -1.50778e-06 0)
(2.82786e-08 -1.51287e-06 0)
(2.82288e-08 -1.51794e-06 0)
(2.8179e-08 -1.52296e-06 0)
(2.81293e-08 -1.52796e-06 0)
(2.80797e-08 -1.53293e-06 0)
(2.80301e-08 -1.53786e-06 0)
(2.79807e-08 -1.54277e-06 0)
(2.79306e-08 -1.54761e-06 0)
(2.78842e-08 -1.55251e-06 0)
(2.7821e-08 -1.55728e-06 0)
(2.7758e-08 -1.56156e-06 0)
(2.77174e-08 -1.56557e-06 0)
(2.76773e-08 -1.56944e-06 0)
(2.76373e-08 -1.57326e-06 0)
(2.75974e-08 -1.57716e-06 0)
(2.75573e-08 -1.58107e-06 0)
(2.7517e-08 -1.58498e-06 0)
(2.74766e-08 -1.58888e-06 0)
(2.74359e-08 -1.59278e-06 0)
(2.73951e-08 -1.59669e-06 0)
(2.73541e-08 -1.60061e-06 0)
(2.73129e-08 -1.60452e-06 0)
(2.72715e-08 -1.60844e-06 0)
(2.72299e-08 -1.61237e-06 0)
(2.71881e-08 -1.61629e-06 0)
(2.71461e-08 -1.62022e-06 0)
(2.71039e-08 -1.62416e-06 0)
(2.70615e-08 -1.62809e-06 0)
(2.7019e-08 -1.63203e-06 0)
(2.69762e-08 -1.63597e-06 0)
(2.69333e-08 -1.63992e-06 0)
(2.68901e-08 -1.64387e-06 0)
(2.68468e-08 -1.64782e-06 0)
(2.68032e-08 -1.65177e-06 0)
(2.67595e-08 -1.65573e-06 0)
(2.67155e-08 -1.65969e-06 0)
(2.66714e-08 -1.66365e-06 0)
(2.6627e-08 -1.66762e-06 0)
(2.65825e-08 -1.67159e-06 0)
(2.65378e-08 -1.67556e-06 0)
(2.64928e-08 -1.67953e-06 0)
(2.64477e-08 -1.68351e-06 0)
(2.64023e-08 -1.68749e-06 0)
(2.63568e-08 -1.69147e-06 0)
(2.6311e-08 -1.69545e-06 0)
(2.62651e-08 -1.69944e-06 0)
(2.62189e-08 -1.70343e-06 0)
(2.61725e-08 -1.70742e-06 0)
(2.6126e-08 -1.71141e-06 0)
(2.60792e-08 -1.71541e-06 0)
(2.60322e-08 -1.71941e-06 0)
(2.5985e-08 -1.72341e-06 0)
(2.59376e-08 -1.72741e-06 0)
(2.589e-08 -1.73141e-06 0)
(2.58422e-08 -1.73542e-06 0)
(2.57942e-08 -1.73943e-06 0)
(2.57459e-08 -1.74344e-06 0)
(2.56975e-08 -1.74745e-06 0)
(2.56488e-08 -1.75146e-06 0)
(2.56e-08 -1.75548e-06 0)
(2.55509e-08 -1.7595e-06 0)
(2.55016e-08 -1.76352e-06 0)
(2.54521e-08 -1.76754e-06 0)
(2.54024e-08 -1.77156e-06 0)
(2.53525e-08 -1.77558e-06 0)
(2.53024e-08 -1.77961e-06 0)
(2.5252e-08 -1.78364e-06 0)
(2.52015e-08 -1.78767e-06 0)
(2.51507e-08 -1.7917e-06 0)
(2.50997e-08 -1.79573e-06 0)
(2.50485e-08 -1.79976e-06 0)
(2.49971e-08 -1.8038e-06 0)
(2.49455e-08 -1.80783e-06 0)
(2.48936e-08 -1.81187e-06 0)
(2.48415e-08 -1.8159e-06 0)
(2.47893e-08 -1.81994e-06 0)
(2.47368e-08 -1.82398e-06 0)
(2.46841e-08 -1.82802e-06 0)
(2.46311e-08 -1.83206e-06 0)
(2.4578e-08 -1.83611e-06 0)
(2.45246e-08 -1.84015e-06 0)
(2.4471e-08 -1.84419e-06 0)
(2.44172e-08 -1.84824e-06 0)
(2.43632e-08 -1.85228e-06 0)
(2.4309e-08 -1.85633e-06 0)
(2.42545e-08 -1.86037e-06 0)
(2.41998e-08 -1.86442e-06 0)
(2.41449e-08 -1.86847e-06 0)
(2.40898e-08 -1.87251e-06 0)
(2.40344e-08 -1.87656e-06 0)
(2.39789e-08 -1.88061e-06 0)
(2.39231e-08 -1.88465e-06 0)
(2.38671e-08 -1.8887e-06 0)
(2.38109e-08 -1.89275e-06 0)
(2.37544e-08 -1.8968e-06 0)
(2.36978e-08 -1.90084e-06 0)
(2.36409e-08 -1.90489e-06 0)
(2.35837e-08 -1.90894e-06 0)
(2.35264e-08 -1.91299e-06 0)
(2.34689e-08 -1.91703e-06 0)
(2.34111e-08 -1.92108e-06 0)
(2.33531e-08 -1.92512e-06 0)
(2.32949e-08 -1.92917e-06 0)
(2.32364e-08 -1.93321e-06 0)
(2.31777e-08 -1.93726e-06 0)
(2.31188e-08 -1.9413e-06 0)
(2.30597e-08 -1.94534e-06 0)
(2.30004e-08 -1.94938e-06 0)
(2.29408e-08 -1.95342e-06 0)
(2.28811e-08 -1.95746e-06 0)
(2.2821e-08 -1.9615e-06 0)
(2.27608e-08 -1.96554e-06 0)
(2.27004e-08 -1.96957e-06 0)
(2.26397e-08 -1.97361e-06 0)
(2.25788e-08 -1.97764e-06 0)
(2.25177e-08 -1.98167e-06 0)
(2.24563e-08 -1.9857e-06 0)
(2.23948e-08 -1.98973e-06 0)
(2.2333e-08 -1.99376e-06 0)
(2.22709e-08 -1.99779e-06 0)
(2.22087e-08 -2.00181e-06 0)
(2.21462e-08 -2.00583e-06 0)
(2.20836e-08 -2.00985e-06 0)
(2.20207e-08 -2.01387e-06 0)
(2.19575e-08 -2.01789e-06 0)
(2.18942e-08 -2.0219e-06 0)
(2.18306e-08 -2.02591e-06 0)
(2.17668e-08 -2.02992e-06 0)
(2.17028e-08 -2.03393e-06 0)
(2.16386e-08 -2.03793e-06 0)
(2.15741e-08 -2.04194e-06 0)
(2.15094e-08 -2.04594e-06 0)
(2.14445e-08 -2.04993e-06 0)
(2.13794e-08 -2.05393e-06 0)
(2.13141e-08 -2.05792e-06 0)
(2.12485e-08 -2.06191e-06 0)
(2.11827e-08 -2.0659e-06 0)
(2.11167e-08 -2.06988e-06 0)
(2.10505e-08 -2.07386e-06 0)
(2.09841e-08 -2.07783e-06 0)
(2.09174e-08 -2.08181e-06 0)
(2.08506e-08 -2.08578e-06 0)
(2.07835e-08 -2.08975e-06 0)
(2.07161e-08 -2.09371e-06 0)
(2.06486e-08 -2.09767e-06 0)
(2.05809e-08 -2.10162e-06 0)
(2.05129e-08 -2.10558e-06 0)
(2.04447e-08 -2.10952e-06 0)
(2.03764e-08 -2.11347e-06 0)
(2.03078e-08 -2.11741e-06 0)
(2.02389e-08 -2.12135e-06 0)
(2.01699e-08 -2.12528e-06 0)
(2.01007e-08 -2.12921e-06 0)
(2.00312e-08 -2.13313e-06 0)
(1.99615e-08 -2.13705e-06 0)
(1.98916e-08 -2.14096e-06 0)
(1.98216e-08 -2.14488e-06 0)
(1.97513e-08 -2.14878e-06 0)
(1.96807e-08 -2.15268e-06 0)
(1.961e-08 -2.15658e-06 0)
(1.95391e-08 -2.16047e-06 0)
(1.94679e-08 -2.16436e-06 0)
(1.93966e-08 -2.16824e-06 0)
(1.93251e-08 -2.17211e-06 0)
(1.92533e-08 -2.17598e-06 0)
(1.91813e-08 -2.17985e-06 0)
(1.91092e-08 -2.18371e-06 0)
(1.90368e-08 -2.18756e-06 0)
(1.89642e-08 -2.19141e-06 0)
(1.88915e-08 -2.19526e-06 0)
(1.88185e-08 -2.19909e-06 0)
(1.87453e-08 -2.20292e-06 0)
(1.86719e-08 -2.20675e-06 0)
(1.85984e-08 -2.21057e-06 0)
(1.85246e-08 -2.21438e-06 0)
(1.84506e-08 -2.21819e-06 0)
(1.83765e-08 -2.22199e-06 0)
(1.83021e-08 -2.22579e-06 0)
(1.82275e-08 -2.22957e-06 0)
(1.81529e-08 -2.23336e-06 0)
(1.80775e-08 -2.23711e-06 0)
(1.80051e-08 -2.24093e-06 0)
(1.79228e-08 -2.24465e-06 0)
(1.78362e-08 -2.24813e-06 0)
(1.77646e-08 -2.25158e-06 0)
(1.76983e-08 -2.25495e-06 0)
(1.76312e-08 -2.25828e-06 0)
(1.75633e-08 -2.26169e-06 0)
(1.74948e-08 -2.26514e-06 0)
(1.74254e-08 -2.2686e-06 0)
(1.73553e-08 -2.27208e-06 0)
(1.72844e-08 -2.27558e-06 0)
(1.72126e-08 -2.27911e-06 0)
(1.714e-08 -2.28267e-06 0)
(1.70666e-08 -2.28624e-06 0)
(1.69923e-08 -2.28984e-06 0)
(1.69172e-08 -2.29346e-06 0)
(1.68413e-08 -2.29711e-06 0)
(1.67645e-08 -2.30078e-06 0)
(1.66869e-08 -2.30447e-06 0)
(1.66084e-08 -2.30818e-06 0)
(1.6529e-08 -2.31192e-06 0)
(1.64487e-08 -2.31568e-06 0)
(1.63676e-08 -2.31946e-06 0)
(1.62855e-08 -2.32326e-06 0)
(1.62026e-08 -2.32709e-06 0)
(1.61188e-08 -2.33093e-06 0)
(1.6034e-08 -2.3348e-06 0)
(1.59483e-08 -2.33869e-06 0)
(1.58618e-08 -2.3426e-06 0)
(1.57742e-08 -2.34653e-06 0)
(1.56858e-08 -2.35048e-06 0)
(1.55964e-08 -2.35446e-06 0)
(1.5506e-08 -2.35845e-06 0)
(1.54147e-08 -2.36246e-06 0)
(1.53225e-08 -2.36649e-06 0)
(1.52293e-08 -2.37054e-06 0)
(1.51351e-08 -2.37461e-06 0)
(1.50399e-08 -2.3787e-06 0)
(1.49437e-08 -2.38281e-06 0)
(1.48466e-08 -2.38693e-06 0)
(1.47484e-08 -2.39107e-06 0)
(1.46493e-08 -2.39523e-06 0)
(1.45492e-08 -2.39941e-06 0)
(1.4448e-08 -2.4036e-06 0)
(1.43458e-08 -2.40781e-06 0)
(1.42427e-08 -2.41203e-06 0)
(1.41384e-08 -2.41627e-06 0)
(1.40332e-08 -2.42052e-06 0)
(1.39269e-08 -2.42479e-06 0)
(1.38196e-08 -2.42907e-06 0)
(1.37113e-08 -2.43336e-06 0)
(1.36019e-08 -2.43766e-06 0)
(1.34915e-08 -2.44198e-06 0)
(1.338e-08 -2.44631e-06 0)
(1.32675e-08 -2.45064e-06 0)
(1.31539e-08 -2.45499e-06 0)
(1.30393e-08 -2.45935e-06 0)
(1.29236e-08 -2.46371e-06 0)
(1.28069e-08 -2.46809e-06 0)
(1.26891e-08 -2.47247e-06 0)
(1.25703e-08 -2.47685e-06 0)
(1.24504e-08 -2.48125e-06 0)
(1.23294e-08 -2.48565e-06 0)
(1.22074e-08 -2.49005e-06 0)
(1.20843e-08 -2.49445e-06 0)
(1.19602e-08 -2.49886e-06 0)
(1.1835e-08 -2.50327e-06 0)
(1.17087e-08 -2.50768e-06 0)
(1.15814e-08 -2.51209e-06 0)
(1.14531e-08 -2.5165e-06 0)
(1.13237e-08 -2.5209e-06 0)
(1.11933e-08 -2.52531e-06 0)
(1.10619e-08 -2.52971e-06 0)
(1.09294e-08 -2.5341e-06 0)
(1.07959e-08 -2.53849e-06 0)
(1.06614e-08 -2.54287e-06 0)
(1.05258e-08 -2.54725e-06 0)
(1.03893e-08 -2.55161e-06 0)
(1.02518e-08 -2.55596e-06 0)
(1.01133e-08 -2.56031e-06 0)
(9.97377e-09 -2.56463e-06 0)
(9.83331e-09 -2.56895e-06 0)
(9.69189e-09 -2.57325e-06 0)
(9.54953e-09 -2.57753e-06 0)
(9.40623e-09 -2.5818e-06 0)
(9.26201e-09 -2.58604e-06 0)
(9.11688e-09 -2.59027e-06 0)
(8.97085e-09 -2.59447e-06 0)
(8.82395e-09 -2.59865e-06 0)
(8.67618e-09 -2.60281e-06 0)
(8.52756e-09 -2.60694e-06 0)
(8.37811e-09 -2.61104e-06 0)
(8.22785e-09 -2.61511e-06 0)
(8.0768e-09 -2.61915e-06 0)
(7.92496e-09 -2.62316e-06 0)
(7.77238e-09 -2.62714e-06 0)
(7.61906e-09 -2.63108e-06 0)
(7.46503e-09 -2.63499e-06 0)
(7.31031e-09 -2.63885e-06 0)
(7.15493e-09 -2.64268e-06 0)
(6.99891e-09 -2.64646e-06 0)
(6.84228e-09 -2.6502e-06 0)
(6.68506e-09 -2.65389e-06 0)
(6.52728e-09 -2.65754e-06 0)
(6.36897e-09 -2.66114e-06 0)
(6.21016e-09 -2.66469e-06 0)
(6.05088e-09 -2.66819e-06 0)
(5.89116e-09 -2.67163e-06 0)
(5.73104e-09 -2.67501e-06 0)
(5.57055e-09 -2.67834e-06 0)
(5.40972e-09 -2.68161e-06 0)
(5.24858e-09 -2.68481e-06 0)
(5.08718e-09 -2.68796e-06 0)
(4.92555e-09 -2.69103e-06 0)
(4.76373e-09 -2.69404e-06 0)
(4.60177e-09 -2.69698e-06 0)
(4.43969e-09 -2.69985e-06 0)
(4.27754e-09 -2.70265e-06 0)
(4.11536e-09 -2.70537e-06 0)
(3.9532e-09 -2.70801e-06 0)
(3.7911e-09 -2.71058e-06 0)
(3.6291e-09 -2.71306e-06 0)
(3.46726e-09 -2.71546e-06 0)
(3.30561e-09 -2.71778e-06 0)
(3.1442e-09 -2.72001e-06 0)
(2.98309e-09 -2.72214e-06 0)
(2.82232e-09 -2.72419e-06 0)
(2.66194e-09 -2.72615e-06 0)
(2.502e-09 -2.72801e-06 0)
(2.34255e-09 -2.72977e-06 0)
(2.18365e-09 -2.73144e-06 0)
(2.02535e-09 -2.733e-06 0)
(1.8677e-09 -2.73446e-06 0)
(1.71075e-09 -2.73582e-06 0)
(1.55456e-09 -2.73707e-06 0)
(1.39918e-09 -2.73821e-06 0)
(1.24467e-09 -2.73924e-06 0)
(1.09109e-09 -2.74016e-06 0)
(9.38496e-10 -2.74097e-06 0)
(7.86938e-10 -2.74166e-06 0)
(6.36478e-10 -2.74223e-06 0)
(4.87173e-10 -2.74269e-06 0)
(3.39083e-10 -2.74302e-06 0)
(1.92265e-10 -2.74324e-06 0)
(4.67804e-11 -2.74332e-06 0)
(-9.73127e-11 -2.74329e-06 0)
(-2.39954e-10 -2.74312e-06 0)
(-3.81085e-10 -2.74283e-06 0)
(-5.20645e-10 -2.74241e-06 0)
(-6.58574e-10 -2.74186e-06 0)
(-7.94812e-10 -2.74118e-06 0)
(-9.29302e-10 -2.74036e-06 0)
(-1.06198e-09 -2.73941e-06 0)
(-1.1928e-09 -2.73832e-06 0)
(-1.32169e-09 -2.7371e-06 0)
(-1.4486e-09 -2.73574e-06 0)
(-1.57347e-09 -2.73424e-06 0)
(-1.69625e-09 -2.7326e-06 0)
(-1.81689e-09 -2.73082e-06 0)
(-1.93533e-09 -2.7289e-06 0)
(-2.05152e-09 -2.72684e-06 0)
(-2.16542e-09 -2.72464e-06 0)
(-2.27697e-09 -2.7223e-06 0)
(-2.38613e-09 -2.71981e-06 0)
(-2.49286e-09 -2.71718e-06 0)
(-2.59711e-09 -2.71441e-06 0)
(-2.69884e-09 -2.7115e-06 0)
(-2.79802e-09 -2.70844e-06 0)
(-2.8946e-09 -2.70525e-06 0)
(-2.98856e-09 -2.70191e-06 0)
(-3.07985e-09 -2.69842e-06 0)
(-3.16844e-09 -2.6948e-06 0)
(-3.2543e-09 -2.69103e-06 0)
(-3.3374e-09 -2.68713e-06 0)
(-3.4177e-09 -2.68308e-06 0)
(-3.49517e-09 -2.6789e-06 0)
(-3.56978e-09 -2.67458e-06 0)
(-3.64149e-09 -2.67012e-06 0)
(-3.71023e-09 -2.66552e-06 0)
(-3.77608e-09 -2.66078e-06 0)
(-3.83886e-09 -2.65595e-06 0)
(-3.90082e-09 -2.65089e-06 0)
(-3.95587e-09 -2.64576e-06 0)
(-4.00491e-09 -2.64006e-06 0)
(-4.06169e-09 -2.63344e-06 0)
(-4.11984e-09 -2.62676e-06 0)
(-4.17125e-09 -2.62009e-06 0)
(-4.2183e-09 -2.61329e-06 0)
(-4.26084e-09 -2.6064e-06 0)
(-4.29893e-09 -2.59946e-06 0)
(-4.3327e-09 -2.59246e-06 0)
(-4.36231e-09 -2.58541e-06 0)
(-4.38788e-09 -2.57832e-06 0)
(-4.40956e-09 -2.57119e-06 0)
(-4.4275e-09 -2.56402e-06 0)
(-4.44182e-09 -2.55683e-06 0)
(-4.45265e-09 -2.54962e-06 0)
(-4.46014e-09 -2.5424e-06 0)
(-4.4644e-09 -2.53517e-06 0)
(-4.46556e-09 -2.52793e-06 0)
(-4.46374e-09 -2.52069e-06 0)
(-4.45905e-09 -2.51346e-06 0)
(-4.4516e-09 -2.50624e-06 0)
(-4.4415e-09 -2.49903e-06 0)
(-4.42884e-09 -2.49184e-06 0)
(-4.41371e-09 -2.48468e-06 0)
(-4.39622e-09 -2.47754e-06 0)
(-4.37645e-09 -2.47043e-06 0)
(-4.35447e-09 -2.46336e-06 0)
(-4.33038e-09 -2.45632e-06 0)
(-4.30425e-09 -2.44932e-06 0)
(-4.27614e-09 -2.44237e-06 0)
(-4.24614e-09 -2.43546e-06 0)
(-4.2143e-09 -2.42861e-06 0)
(-4.1807e-09 -2.42181e-06 0)
(-4.14538e-09 -2.41506e-06 0)
(-4.10842e-09 -2.40837e-06 0)
(-4.06986e-09 -2.40175e-06 0)
(-4.02976e-09 -2.39519e-06 0)
(-3.98818e-09 -2.38869e-06 0)
(-3.94516e-09 -2.38226e-06 0)
(-3.90075e-09 -2.37591e-06 0)
(-3.85499e-09 -2.36962e-06 0)
(-3.80793e-09 -2.36342e-06 0)
(-3.7596e-09 -2.35729e-06 0)
(-3.71006e-09 -2.35123e-06 0)
(-3.65934e-09 -2.34526e-06 0)
(-3.60746e-09 -2.33938e-06 0)
(-3.55448e-09 -2.33358e-06 0)
(-3.50041e-09 -2.32786e-06 0)
(-3.4453e-09 -2.32223e-06 0)
(-3.38917e-09 -2.3167e-06 0)
(-3.33206e-09 -2.31125e-06 0)
(-3.27397e-09 -2.3059e-06 0)
(-3.21496e-09 -2.30064e-06 0)
(-3.15503e-09 -2.29548e-06 0)
(-3.09421e-09 -2.29042e-06 0)
(-3.03253e-09 -2.28545e-06 0)
(-2.97001e-09 -2.28059e-06 0)
(-2.90667e-09 -2.27583e-06 0)
(-2.84253e-09 -2.27117e-06 0)
(-2.77761e-09 -2.26662e-06 0)
(-2.71193e-09 -2.26217e-06 0)
(-2.64551e-09 -2.25783e-06 0)
(-2.57836e-09 -2.2536e-06 0)
(-2.51052e-09 -2.24947e-06 0)
(-2.44199e-09 -2.24546e-06 0)
(-2.37279e-09 -2.24156e-06 0)
(-2.30294e-09 -2.23777e-06 0)
(-2.23247e-09 -2.23409e-06 0)
(-2.16138e-09 -2.23053e-06 0)
(-2.0897e-09 -2.22708e-06 0)
(-2.01745e-09 -2.22376e-06 0)
(-1.94464e-09 -2.22054e-06 0)
(-1.87129e-09 -2.21745e-06 0)
(-1.79741e-09 -2.21448e-06 0)
(-1.72303e-09 -2.21162e-06 0)
(-1.64817e-09 -2.20889e-06 0)
(-1.57283e-09 -2.20628e-06 0)
(-1.49703e-09 -2.20378e-06 0)
(-1.42079e-09 -2.20142e-06 0)
(-1.34413e-09 -2.19917e-06 0)
(-1.26705e-09 -2.19706e-06 0)
(-1.18958e-09 -2.19506e-06 0)
(-1.11172e-09 -2.19319e-06 0)
(-1.03351e-09 -2.19145e-06 0)
(-9.54951e-10 -2.18984e-06 0)
(-8.76084e-10 -2.18834e-06 0)
(-7.96951e-10 -2.187e-06 0)
(-7.17604e-10 -2.18572e-06 0)
(-6.38151e-10 -2.18477e-06 0)
(-5.58627e-10 -2.18329e-06 0)
(-4.79437e-10 -2.1841e-06 0)
(-3.99691e-10 -2.17771e-06 0)
(-3.22791e-10 -2.19484e-06 0)
(-2.35393e-10 -2.12869e-06 0)
(-1.84586e-10 -2.30318e-06 0)
(-9.23087e-11 -2.01139e-06 0)
)
;
    }
    bottomWall
    {
        type            calculated;
        value           nonuniform List<vector> 
449
(
(-48.557 -0.964436 0)
(-19.764 -0.00515689 0)
(-14.3582 -0.00113366 0)
(-12.0545 -0.000542917 0)
(-10.6599 -0.000346399 0)
(-9.68932 -0.000245574 0)
(-8.97916 -0.000175549 0)
(-8.48507 -0.00010743 0)
(-8.24098 -1.79734e-05 0)
(-8.3636 0.000158155 0)
(-9.33889 0.000320155 0)
(-10.5815 0.000305244 0)
(-11.4537 0.000195784 0)
(-11.9414 0.000107251 0)
(-12.201 5.63863e-05 0)
(-12.3353 2.71602e-05 0)
(-12.3911 8.12409e-06 0)
(-12.3923 -4.88722e-06 0)
(-12.3567 -1.31452e-05 0)
(-12.2995 -1.82627e-05 0)
(-12.2275 -2.14058e-05 0)
(-12.1477 -2.2947e-05 0)
(-12.0644 -2.35202e-05 0)
(-11.9802 -2.35034e-05 0)
(-11.8966 -2.31378e-05 0)
(-11.8146 -2.25896e-05 0)
(-11.7346 -2.1926e-05 0)
(-11.6569 -2.11781e-05 0)
(-11.5819 -2.04016e-05 0)
(-11.5096 -1.96245e-05 0)
(-11.4398 -1.88642e-05 0)
(-11.3726 -1.81299e-05 0)
(-11.3079 -1.74271e-05 0)
(-11.2456 -1.67577e-05 0)
(-11.1854 -1.61436e-05 0)
(-11.1273 -1.55719e-05 0)
(-11.0711 -1.50203e-05 0)
(-11.0167 -1.44975e-05 0)
(-10.9641 -1.40091e-05 0)
(-10.913 -1.35537e-05 0)
(-10.8636 -1.31287e-05 0)
(-10.8154 -1.27297e-05 0)
(-10.7687 -1.23586e-05 0)
(-10.7231 -1.20121e-05 0)
(-10.6787 -1.16817e-05 0)
(-10.6354 -1.13822e-05 0)
(-10.5931 -1.11304e-05 0)
(-10.5515 -1.09218e-05 0)
(-10.5105 -1.07262e-05 0)
(-10.4702 -1.05221e-05 0)
(-10.4306 -1.03156e-05 0)
(-10.3916 -1.01122e-05 0)
(-10.3534 -9.91014e-06 0)
(-10.3158 -9.71131e-06 0)
(-10.2789 -9.51923e-06 0)
(-10.2427 -9.33084e-06 0)
(-10.207 -9.14618e-06 0)
(-10.172 -8.9682e-06 0)
(-10.1376 -8.7952e-06 0)
(-10.1038 -8.62761e-06 0)
(-10.0705 -8.46242e-06 0)
(-10.0378 -8.30157e-06 0)
(-10.0056 -8.14484e-06 0)
(-9.974 -7.99553e-06 0)
(-9.94287 -7.85318e-06 0)
(-9.9122 -7.71755e-06 0)
(-9.88199 -7.58279e-06 0)
(-9.85224 -7.44675e-06 0)
(-9.82297 -7.313e-06 0)
(-9.79414 -7.1834e-06 0)
(-9.76576 -7.05717e-06 0)
(-9.73782 -6.93443e-06 0)
(-9.71029 -6.81491e-06 0)
(-9.68317 -6.6983e-06 0)
(-9.65644 -6.58556e-06 0)
(-9.63011 -6.4752e-06 0)
(-9.60415 -6.36787e-06 0)
(-9.57856 -6.26249e-06 0)
(-9.55334 -6.16002e-06 0)
(-9.52846 -6.05933e-06 0)
(-9.50394 -5.96186e-06 0)
(-9.47974 -5.8661e-06 0)
(-9.45589 -5.77297e-06 0)
(-9.43235 -5.6819e-06 0)
(-9.40914 -5.59305e-06 0)
(-9.38621 -5.50633e-06 0)
(-9.36361 -5.42093e-06 0)
(-9.34129 -5.33843e-06 0)
(-9.31927 -5.25716e-06 0)
(-9.29752 -5.17923e-06 0)
(-9.27604 -5.10299e-06 0)
(-9.25483 -5.02942e-06 0)
(-9.23387 -4.9583e-06 0)
(-9.21315 -4.88663e-06 0)
(-9.1927 -4.81584e-06 0)
(-9.17249 -4.74571e-06 0)
(-9.15253 -4.67702e-06 0)
(-9.13281 -4.61083e-06 0)
(-9.11332 -4.54516e-06 0)
(-9.09406 -4.48102e-06 0)
(-9.07504 -4.41875e-06 0)
(-9.05622 -4.35666e-06 0)
(-9.03764 -4.29675e-06 0)
(-9.01925 -4.23788e-06 0)
(-9.00109 -4.17915e-06 0)
(-8.98312 -4.1233e-06 0)
(-8.96536 -4.06741e-06 0)
(-8.94779 -4.01246e-06 0)
(-8.93042 -3.95968e-06 0)
(-8.91324 -3.90763e-06 0)
(-8.89624 -3.85549e-06 0)
(-8.87943 -3.80629e-06 0)
(-8.86279 -3.75687e-06 0)
(-8.84634 -3.70808e-06 0)
(-8.83005 -3.66106e-06 0)
(-8.81394 -3.61489e-06 0)
(-8.79798 -3.56837e-06 0)
(-8.78221 -3.52407e-06 0)
(-8.76657 -3.4803e-06 0)
(-8.75112 -3.43666e-06 0)
(-8.7358 -3.39419e-06 0)
(-8.72065 -3.35318e-06 0)
(-8.70563 -3.31181e-06 0)
(-8.69078 -3.27141e-06 0)
(-8.67606 -3.23274e-06 0)
(-8.66149 -3.19402e-06 0)
(-8.64705 -3.15522e-06 0)
(-8.63277 -3.1185e-06 0)
(-8.61859 -3.08174e-06 0)
(-8.60458 -3.04534e-06 0)
(-8.59067 -3.00988e-06 0)
(-8.57692 -2.97638e-06 0)
(-8.56326 -2.94259e-06 0)
(-8.54975 -2.90942e-06 0)
(-8.53633 -2.87693e-06 0)
(-8.52307 -2.84451e-06 0)
(-8.50989 -2.81152e-06 0)
(-8.49687 -2.77951e-06 0)
(-8.48392 -2.7488e-06 0)
(-8.47113 -2.7179e-06 0)
(-8.45841 -2.68722e-06 0)
(-8.44585 -2.65724e-06 0)
(-8.43335 -2.62866e-06 0)
(-8.421 -2.59933e-06 0)
(-8.40873 -2.57043e-06 0)
(-8.39659 -2.54235e-06 0)
(-8.38452 -2.51533e-06 0)
(-8.37259 -2.4877e-06 0)
(-8.36073 -2.46052e-06 0)
(-8.349 -2.43437e-06 0)
(-8.33734 -2.40879e-06 0)
(-8.3258 -2.38278e-06 0)
(-8.31434 -2.35714e-06 0)
(-8.30299 -2.33233e-06 0)
(-8.29171 -2.30829e-06 0)
(-8.28055 -2.28377e-06 0)
(-8.26946 -2.25984e-06 0)
(-8.25847 -2.23665e-06 0)
(-8.24756 -2.21452e-06 0)
(-8.23674 -2.19171e-06 0)
(-8.226 -2.16964e-06 0)
(-8.21534 -2.14762e-06 0)
(-8.20477 -2.12711e-06 0)
(-8.19427 -2.10558e-06 0)
(-8.18386 -2.08435e-06 0)
(-8.17352 -2.06346e-06 0)
(-8.16327 -2.04342e-06 0)
(-8.15309 -2.02317e-06 0)
(-8.14299 -2.00285e-06 0)
(-8.13296 -1.9828e-06 0)
(-8.12302 -1.96396e-06 0)
(-8.11314 -1.94479e-06 0)
(-8.10334 -1.92348e-06 0)
(-8.09417 -1.90886e-06 0)
(-8.08552 -1.89795e-06 0)
(-8.07684 -1.88216e-06 0)
(-8.06815 -1.86611e-06 0)
(-8.05943 -1.85012e-06 0)
(-8.0507 -1.83321e-06 0)
(-8.04195 -1.81662e-06 0)
(-8.03319 -1.80032e-06 0)
(-8.02441 -1.78395e-06 0)
(-8.01562 -1.76718e-06 0)
(-8.00682 -1.75037e-06 0)
(-7.99801 -1.73385e-06 0)
(-7.98918 -1.71739e-06 0)
(-7.98035 -1.70105e-06 0)
(-7.9715 -1.68408e-06 0)
(-7.96265 -1.66719e-06 0)
(-7.95379 -1.65088e-06 0)
(-7.94493 -1.63472e-06 0)
(-7.93605 -1.61864e-06 0)
(-7.92717 -1.6025e-06 0)
(-7.91827 -1.58641e-06 0)
(-7.90938 -1.5706e-06 0)
(-7.90047 -1.55514e-06 0)
(-7.89157 -1.539e-06 0)
(-7.88265 -1.52303e-06 0)
(-7.87374 -1.50714e-06 0)
(-7.86482 -1.49219e-06 0)
(-7.85589 -1.47713e-06 0)
(-7.84696 -1.46134e-06 0)
(-7.83803 -1.44495e-06 0)
(-7.8291 -1.42934e-06 0)
(-7.82018 -1.41348e-06 0)
(-7.81126 -1.3978e-06 0)
(-7.80234 -1.38176e-06 0)
(-7.79343 -1.36598e-06 0)
(-7.78453 -1.35079e-06 0)
(-7.77563 -1.33521e-06 0)
(-7.76673 -1.31972e-06 0)
(-7.75785 -1.30444e-06 0)
(-7.74897 -1.28925e-06 0)
(-7.74011 -1.27419e-06 0)
(-7.73124 -1.2595e-06 0)
(-7.72239 -1.24395e-06 0)
(-7.71356 -1.22978e-06 0)
(-7.70472 -1.21517e-06 0)
(-7.6959 -1.20079e-06 0)
(-7.68708 -1.18659e-06 0)
(-7.67829 -1.17232e-06 0)
(-7.66949 -1.15857e-06 0)
(-7.66072 -1.14443e-06 0)
(-7.65194 -1.1305e-06 0)
(-7.64319 -1.11657e-06 0)
(-7.63445 -1.10287e-06 0)
(-7.62572 -1.08921e-06 0)
(-7.61701 -1.07573e-06 0)
(-7.60831 -1.06177e-06 0)
(-7.59964 -1.04872e-06 0)
(-7.59097 -1.03564e-06 0)
(-7.58232 -1.02241e-06 0)
(-7.57369 -1.00927e-06 0)
(-7.56508 -9.96338e-07 0)
(-7.55649 -9.83283e-07 0)
(-7.54792 -9.70305e-07 0)
(-7.53937 -9.57284e-07 0)
(-7.53085 -9.44168e-07 0)
(-7.52234 -9.32158e-07 0)
(-7.51386 -9.19525e-07 0)
(-7.5054 -9.07241e-07 0)
(-7.49696 -8.95316e-07 0)
(-7.48855 -8.83498e-07 0)
(-7.48015 -8.71461e-07 0)
(-7.47178 -8.59683e-07 0)
(-7.46343 -8.48036e-07 0)
(-7.45511 -8.36416e-07 0)
(-7.44681 -8.24877e-07 0)
(-7.43854 -8.13053e-07 0)
(-7.4303 -8.01824e-07 0)
(-7.42209 -7.90167e-07 0)
(-7.41391 -7.79101e-07 0)
(-7.40575 -7.68012e-07 0)
(-7.39763 -7.57233e-07 0)
(-7.38952 -7.46598e-07 0)
(-7.38145 -7.36078e-07 0)
(-7.3734 -7.25564e-07 0)
(-7.36539 -7.14828e-07 0)
(-7.35741 -7.04557e-07 0)
(-7.34946 -6.94063e-07 0)
(-7.34154 -6.83716e-07 0)
(-7.33366 -6.73852e-07 0)
(-7.3258 -6.6362e-07 0)
(-7.31798 -6.5403e-07 0)
(-7.31018 -6.44458e-07 0)
(-7.30243 -6.3486e-07 0)
(-7.2947 -6.25939e-07 0)
(-7.287 -6.1689e-07 0)
(-7.27932 -6.07895e-07 0)
(-7.27168 -5.99274e-07 0)
(-7.26406 -5.9054e-07 0)
(-7.25648 -5.81693e-07 0)
(-7.24892 -5.73097e-07 0)
(-7.2414 -5.64554e-07 0)
(-7.2339 -5.55947e-07 0)
(-7.22645 -5.47815e-07 0)
(-7.21901 -5.39896e-07 0)
(-7.21162 -5.31395e-07 0)
(-7.20426 -5.23595e-07 0)
(-7.19692 -5.15818e-07 0)
(-7.18962 -5.07681e-07 0)
(-7.18236 -5.00392e-07 0)
(-7.17511 -4.93073e-07 0)
(-7.16791 -4.85683e-07 0)
(-7.16072 -4.78964e-07 0)
(-7.15356 -4.71891e-07 0)
(-7.14644 -4.647e-07 0)
(-7.13934 -4.58095e-07 0)
(-7.13226 -4.51099e-07 0)
(-7.12524 -4.44433e-07 0)
(-7.11822 -4.37922e-07 0)
(-7.11124 -4.31008e-07 0)
(-7.10429 -4.24685e-07 0)
(-7.09737 -4.18243e-07 0)
(-7.09049 -4.11984e-07 0)
(-7.08363 -4.05719e-07 0)
(-7.0768 -3.99996e-07 0)
(-7.06999 -3.94066e-07 0)
(-7.06322 -3.88227e-07 0)
(-7.05646 -3.82748e-07 0)
(-7.04974 -3.77013e-07 0)
(-7.04304 -3.71419e-07 0)
(-7.03637 -3.66131e-07 0)
(-7.02972 -3.60726e-07 0)
(-7.02311 -3.5559e-07 0)
(-7.0165 -3.50659e-07 0)
(-7.00993 -3.45424e-07 0)
(-7.00338 -3.40861e-07 0)
(-6.99684 -3.36167e-07 0)
(-6.99033 -3.31093e-07 0)
(-6.98385 -3.26302e-07 0)
(-6.97739 -3.21526e-07 0)
(-6.97096 -3.16507e-07 0)
(-6.96456 -3.12025e-07 0)
(-6.95817 -3.07406e-07 0)
(-6.95182 -3.02715e-07 0)
(-6.9455 -2.9839e-07 0)
(-6.9392 -2.93981e-07 0)
(-6.93292 -2.8941e-07 0)
(-6.92668 -2.85233e-07 0)
(-6.92045 -2.80899e-07 0)
(-6.91427 -2.76537e-07 0)
(-6.90809 -2.72449e-07 0)
(-6.90196 -2.68306e-07 0)
(-6.89585 -2.64081e-07 0)
(-6.88978 -2.60299e-07 0)
(-6.8837 -2.56413e-07 0)
(-6.87769 -2.52552e-07 0)
(-6.87167 -2.48997e-07 0)
(-6.86569 -2.45332e-07 0)
(-6.85972 -2.41645e-07 0)
(-6.85379 -2.38285e-07 0)
(-6.84786 -2.34762e-07 0)
(-6.84198 -2.31316e-07 0)
(-6.83609 -2.28092e-07 0)
(-6.83025 -2.24785e-07 0)
(-6.82441 -2.21485e-07 0)
(-6.81861 -2.18431e-07 0)
(-6.81281 -2.1526e-07 0)
(-6.80706 -2.12153e-07 0)
(-6.80129 -2.09096e-07 0)
(-6.79559 -2.0602e-07 0)
(-6.78987 -2.03202e-07 0)
(-6.78419 -2.00392e-07 0)
(-6.77851 -1.97547e-07 0)
(-6.77288 -1.95128e-07 0)
(-6.76721 -1.92582e-07 0)
(-6.7616 -1.89851e-07 0)
(-6.75597 -1.8739e-07 0)
(-6.75039 -1.84373e-07 0)
(-6.74482 -1.8175e-07 0)
(-6.73928 -1.7849e-07 0)
(-6.73379 -1.76039e-07 0)
(-6.72829 -1.72906e-07 0)
(-6.72227 -1.68335e-07 0)
(-6.71578 -1.63882e-07 0)
(-6.70947 -1.60457e-07 0)
(-6.70325 -1.57485e-07 0)
(-6.69718 -1.54554e-07 0)
(-6.69118 -1.5204e-07 0)
(-6.6853 -1.49766e-07 0)
(-6.67948 -1.47661e-07 0)
(-6.67377 -1.45665e-07 0)
(-6.66811 -1.43837e-07 0)
(-6.66254 -1.4178e-07 0)
(-6.65703 -1.39586e-07 0)
(-6.65163 -1.37541e-07 0)
(-6.64629 -1.35505e-07 0)
(-6.64105 -1.33417e-07 0)
(-6.63587 -1.31569e-07 0)
(-6.63077 -1.29529e-07 0)
(-6.62576 -1.27796e-07 0)
(-6.62079 -1.26132e-07 0)
(-6.6159 -1.24408e-07 0)
(-6.61108 -1.22944e-07 0)
(-6.6063 -1.21305e-07 0)
(-6.6016 -1.19748e-07 0)
(-6.59695 -1.18146e-07 0)
(-6.59238 -1.16591e-07 0)
(-6.58784 -1.15018e-07 0)
(-6.58339 -1.13663e-07 0)
(-6.57897 -1.1216e-07 0)
(-6.57463 -1.10601e-07 0)
(-6.57033 -1.09241e-07 0)
(-6.5661 -1.07623e-07 0)
(-6.56193 -1.0633e-07 0)
(-6.5578 -1.04907e-07 0)
(-6.55373 -1.03819e-07 0)
(-6.54969 -1.02628e-07 0)
(-6.54572 -1.01489e-07 0)
(-6.54176 -1.00595e-07 0)
(-6.53786 -9.9267e-08 0)
(-6.53401 -9.82507e-08 0)
(-6.53019 -9.69849e-08 0)
(-6.52644 -9.58776e-08 0)
(-6.5227 -9.46865e-08 0)
(-6.51904 -9.32902e-08 0)
(-6.51542 -9.21729e-08 0)
(-6.51185 -9.08831e-08 0)
(-6.50832 -8.98857e-08 0)
(-6.50483 -8.90629e-08 0)
(-6.50136 -8.82866e-08 0)
(-6.49793 -8.80389e-08 0)
(-6.49449 -8.7284e-08 0)
(-6.49112 -8.68958e-08 0)
(-6.4877 -8.61888e-08 0)
(-6.48438 -8.5544e-08 0)
(-6.48102 -8.51466e-08 0)
(-6.47773 -8.43797e-08 0)
(-6.47443 -8.38017e-08 0)
(-6.47119 -8.30936e-08 0)
(-6.46794 -8.25993e-08 0)
(-6.46473 -8.16866e-08 0)
(-6.46156 -8.07211e-08 0)
(-6.45843 -7.96991e-08 0)
(-6.45533 -7.85838e-08 0)
(-6.45229 -7.76664e-08 0)
(-6.44927 -7.72014e-08 0)
(-6.44626 -7.65898e-08 0)
(-6.44328 -7.60238e-08 0)
(-6.44033 -7.5164e-08 0)
(-6.43741 -7.43263e-08 0)
(-6.43452 -7.34933e-08 0)
(-6.43168 -7.28634e-08 0)
(-6.42883 -7.19301e-08 0)
(-6.42606 -7.14369e-08 0)
(-6.42325 -7.10294e-08 0)
(-6.42051 -7.05019e-08 0)
(-6.41775 -7.03677e-08 0)
(-6.41501 -6.9867e-08 0)
(-6.41229 -6.96463e-08 0)
(-6.40957 -6.91034e-08 0)
(-6.40689 -6.88118e-08 0)
(-6.4042 -6.84382e-08 0)
(-6.40155 -6.79549e-08 0)
(-6.39889 -6.73325e-08 0)
(-6.39629 -6.70822e-08 0)
(-6.39365 -6.65394e-08 0)
(-6.39109 -6.62266e-08 0)
(-6.38848 -6.58093e-08 0)
(-6.38595 -6.49742e-08 0)
(-6.38341 -6.56621e-08 0)
(-6.38082 -6.33205e-08 0)
(-6.37847 -6.75948e-08 0)
(-6.37553 -5.70968e-08 0)
(-6.37403 -7.55037e-08 0)
(-6.36959 -4.23852e-08 0)
(-6.37082 -5.77011e-08 0)
(-6.3649 -7.90184e-08 0)
)
;
    }
    symmetry
    {
        type            symmetryPlane;
    }
    frontAndBack
    {
        type            empty;
    }
}


// ************************************************************************* //
