/*--------------------------------*- C++ -*----------------------------------*\
| =========                 |                                                 |
| \\      /  F ield         | OpenFOAM: The Open Source CFD Toolbox           |
|  \\    /   O peration     | Version:  v2012                                 |
|   \\  /    A nd           | Website:  www.openfoam.com                      |
|    \\/     M anipulation  |                                                 |
\*---------------------------------------------------------------------------*/
FoamFile
{
    version     2.0;
    format      ascii;
    class       volVectorField;
    location    "7";
    object      wallShearStress;
}
// * * * * * * * * * * * * * * * * * * * * * * * * * * * * * * * * * * * * * //

dimensions      [0 2 -2 0 0 0 0];


internalField   uniform (0 0 0);

boundaryField
{
    inlet
    {
        type            calculated;
        value           uniform (0 0 0);
    }
    outlet
    {
        type            calculated;
        value           uniform (0 0 0);
    }
    topWall
    {
        type            calculated;
        value           nonuniform List<vector> 
545
(
(1.41595e-08 -9.92347e-09 0)
(1.41956e-08 -2.79817e-08 0)
(1.40828e-08 -4.65591e-08 0)
(1.40299e-08 -6.45492e-08 0)
(1.3989e-08 -8.17312e-08 0)
(1.39468e-08 -9.83316e-08 0)
(1.39005e-08 -1.14499e-07 0)
(1.38497e-08 -1.30227e-07 0)
(1.37947e-08 -1.45482e-07 0)
(1.37357e-08 -1.6026e-07 0)
(1.36733e-08 -1.74581e-07 0)
(1.36076e-08 -1.8846e-07 0)
(1.35392e-08 -2.01909e-07 0)
(1.34682e-08 -2.14936e-07 0)
(1.3395e-08 -2.27551e-07 0)
(1.33198e-08 -2.39766e-07 0)
(1.3243e-08 -2.5159e-07 0)
(1.31647e-08 -2.63035e-07 0)
(1.30852e-08 -2.74112e-07 0)
(1.30047e-08 -2.84831e-07 0)
(1.29234e-08 -2.95203e-07 0)
(1.28414e-08 -3.05237e-07 0)
(1.2759e-08 -3.14944e-07 0)
(1.26763e-08 -3.24334e-07 0)
(1.25933e-08 -3.33418e-07 0)
(1.25103e-08 -3.42203e-07 0)
(1.24273e-08 -3.507e-07 0)
(1.23445e-08 -3.58918e-07 0)
(1.2262e-08 -3.66866e-07 0)
(1.21798e-08 -3.74553e-07 0)
(1.2098e-08 -3.81986e-07 0)
(1.20167e-08 -3.89175e-07 0)
(1.19359e-08 -3.96127e-07 0)
(1.18558e-08 -4.02851e-07 0)
(1.17763e-08 -4.09353e-07 0)
(1.16974e-08 -4.15641e-07 0)
(1.16193e-08 -4.21723e-07 0)
(1.1542e-08 -4.27604e-07 0)
(1.14655e-08 -4.33293e-07 0)
(1.13897e-08 -4.38795e-07 0)
(1.13148e-08 -4.44116e-07 0)
(1.12407e-08 -4.49263e-07 0)
(1.11675e-08 -4.54242e-07 0)
(1.10951e-08 -4.59057e-07 0)
(1.10236e-08 -4.63716e-07 0)
(1.0953e-08 -4.68222e-07 0)
(1.08832e-08 -4.72582e-07 0)
(1.08143e-08 -4.768e-07 0)
(1.07462e-08 -4.8088e-07 0)
(1.0679e-08 -4.84828e-07 0)
(1.06126e-08 -4.88648e-07 0)
(1.0547e-08 -4.92344e-07 0)
(1.04822e-08 -4.9592e-07 0)
(1.04182e-08 -4.99381e-07 0)
(1.0355e-08 -5.0273e-07 0)
(1.02925e-08 -5.05971e-07 0)
(1.02308e-08 -5.09108e-07 0)
(1.01698e-08 -5.12143e-07 0)
(1.01095e-08 -5.15081e-07 0)
(1.00499e-08 -5.17925e-07 0)
(9.99091e-09 -5.20677e-07 0)
(9.93256e-09 -5.23341e-07 0)
(9.87481e-09 -5.2592e-07 0)
(9.81765e-09 -5.28416e-07 0)
(9.76103e-09 -5.30832e-07 0)
(9.70495e-09 -5.33171e-07 0)
(9.64937e-09 -5.35435e-07 0)
(9.59423e-09 -5.37626e-07 0)
(9.53968e-09 -5.3975e-07 0)
(9.48494e-09 -5.41797e-07 0)
(9.43321e-09 -5.43813e-07 0)
(9.3708e-09 -5.45691e-07 0)
(9.31288e-09 -5.47519e-07 0)
(9.27407e-09 -5.4937e-07 0)
(9.23564e-09 -5.51105e-07 0)
(9.19723e-09 -5.52822e-07 0)
(9.15889e-09 -5.54553e-07 0)
(9.12059e-09 -5.56275e-07 0)
(9.08233e-09 -5.57976e-07 0)
(9.04412e-09 -5.59659e-07 0)
(9.00596e-09 -5.61327e-07 0)
(8.96785e-09 -5.62982e-07 0)
(8.92979e-09 -5.64623e-07 0)
(8.89178e-09 -5.66248e-07 0)
(8.85382e-09 -5.6786e-07 0)
(8.81591e-09 -5.69457e-07 0)
(8.77806e-09 -5.7104e-07 0)
(8.74026e-09 -5.72609e-07 0)
(8.70253e-09 -5.74164e-07 0)
(8.66483e-09 -5.75705e-07 0)
(8.62726e-09 -5.77234e-07 0)
(8.58947e-09 -5.78743e-07 0)
(8.55292e-09 -5.80264e-07 0)
(8.51148e-09 -5.8169e-07 0)
(8.49129e-09 -5.83399e-07 0)
(8.38224e-09 -5.84566e-07 0)
(8.24708e-09 -5.85647e-07 0)
(8.20999e-09 -5.87292e-07 0)
(8.18173e-09 -5.88404e-07 0)
(8.15509e-09 -5.89391e-07 0)
(8.12888e-09 -5.90516e-07 0)
(8.10267e-09 -5.91697e-07 0)
(8.07638e-09 -5.92862e-07 0)
(8.05e-09 -5.94004e-07 0)
(8.02353e-09 -5.9514e-07 0)
(7.99697e-09 -5.96281e-07 0)
(7.97031e-09 -5.97424e-07 0)
(7.94356e-09 -5.98565e-07 0)
(7.91671e-09 -5.99704e-07 0)
(7.88976e-09 -6.00841e-07 0)
(7.86273e-09 -6.01978e-07 0)
(7.83559e-09 -6.03113e-07 0)
(7.80837e-09 -6.04247e-07 0)
(7.78105e-09 -6.0538e-07 0)
(7.75364e-09 -6.06511e-07 0)
(7.72613e-09 -6.07641e-07 0)
(7.69853e-09 -6.0877e-07 0)
(7.67084e-09 -6.09897e-07 0)
(7.64305e-09 -6.11023e-07 0)
(7.61517e-09 -6.12148e-07 0)
(7.5872e-09 -6.13271e-07 0)
(7.55913e-09 -6.14392e-07 0)
(7.53097e-09 -6.15512e-07 0)
(7.50272e-09 -6.1663e-07 0)
(7.47437e-09 -6.17747e-07 0)
(7.44593e-09 -6.18862e-07 0)
(7.4174e-09 -6.19976e-07 0)
(7.38877e-09 -6.21088e-07 0)
(7.36006e-09 -6.22198e-07 0)
(7.33125e-09 -6.23306e-07 0)
(7.30234e-09 -6.24413e-07 0)
(7.27335e-09 -6.25518e-07 0)
(7.24426e-09 -6.26621e-07 0)
(7.21508e-09 -6.27722e-07 0)
(7.18581e-09 -6.28821e-07 0)
(7.15645e-09 -6.29919e-07 0)
(7.12699e-09 -6.31014e-07 0)
(7.09745e-09 -6.32108e-07 0)
(7.06781e-09 -6.332e-07 0)
(7.03808e-09 -6.34289e-07 0)
(7.00826e-09 -6.35377e-07 0)
(6.97834e-09 -6.36462e-07 0)
(6.94834e-09 -6.37545e-07 0)
(6.91825e-09 -6.38627e-07 0)
(6.88806e-09 -6.39706e-07 0)
(6.85778e-09 -6.40783e-07 0)
(6.82742e-09 -6.41857e-07 0)
(6.79696e-09 -6.4293e-07 0)
(6.76642e-09 -6.44e-07 0)
(6.73578e-09 -6.45067e-07 0)
(6.70505e-09 -6.46133e-07 0)
(6.67424e-09 -6.47196e-07 0)
(6.64333e-09 -6.48256e-07 0)
(6.61234e-09 -6.49315e-07 0)
(6.58126e-09 -6.5037e-07 0)
(6.55008e-09 -6.51423e-07 0)
(6.51882e-09 -6.52474e-07 0)
(6.48747e-09 -6.53522e-07 0)
(6.45604e-09 -6.54568e-07 0)
(6.42451e-09 -6.5561e-07 0)
(6.3929e-09 -6.56651e-07 0)
(6.3612e-09 -6.57688e-07 0)
(6.32941e-09 -6.58723e-07 0)
(6.29754e-09 -6.59755e-07 0)
(6.26557e-09 -6.60784e-07 0)
(6.23353e-09 -6.6181e-07 0)
(6.20139e-09 -6.62834e-07 0)
(6.16917e-09 -6.63854e-07 0)
(6.13686e-09 -6.64872e-07 0)
(6.10447e-09 -6.65886e-07 0)
(6.07199e-09 -6.66898e-07 0)
(6.03943e-09 -6.67906e-07 0)
(6.00679e-09 -6.68912e-07 0)
(5.97405e-09 -6.69914e-07 0)
(5.94124e-09 -6.70914e-07 0)
(5.90834e-09 -6.7191e-07 0)
(5.87536e-09 -6.72903e-07 0)
(5.84229e-09 -6.73892e-07 0)
(5.80914e-09 -6.74879e-07 0)
(5.77591e-09 -6.75862e-07 0)
(5.7426e-09 -6.76841e-07 0)
(5.70921e-09 -6.77818e-07 0)
(5.67573e-09 -6.78791e-07 0)
(5.64218e-09 -6.7976e-07 0)
(5.60854e-09 -6.80726e-07 0)
(5.57482e-09 -6.81688e-07 0)
(5.54102e-09 -6.82647e-07 0)
(5.50715e-09 -6.83603e-07 0)
(5.47319e-09 -6.84554e-07 0)
(5.43916e-09 -6.85502e-07 0)
(5.40505e-09 -6.86446e-07 0)
(5.37086e-09 -6.87387e-07 0)
(5.33659e-09 -6.88324e-07 0)
(5.30225e-09 -6.89256e-07 0)
(5.26783e-09 -6.90186e-07 0)
(5.23334e-09 -6.91111e-07 0)
(5.19877e-09 -6.92032e-07 0)
(5.16412e-09 -6.92949e-07 0)
(5.1294e-09 -6.93862e-07 0)
(5.09461e-09 -6.94772e-07 0)
(5.05975e-09 -6.95677e-07 0)
(5.02481e-09 -6.96578e-07 0)
(4.9898e-09 -6.97475e-07 0)
(4.95472e-09 -6.98368e-07 0)
(4.91956e-09 -6.99256e-07 0)
(4.88434e-09 -7.0014e-07 0)
(4.84905e-09 -7.0102e-07 0)
(4.81369e-09 -7.01896e-07 0)
(4.77826e-09 -7.02767e-07 0)
(4.74276e-09 -7.03634e-07 0)
(4.7072e-09 -7.04496e-07 0)
(4.67156e-09 -7.05354e-07 0)
(4.63587e-09 -7.06207e-07 0)
(4.6001e-09 -7.07056e-07 0)
(4.56428e-09 -7.079e-07 0)
(4.52839e-09 -7.0874e-07 0)
(4.49243e-09 -7.09575e-07 0)
(4.45641e-09 -7.10405e-07 0)
(4.42034e-09 -7.1123e-07 0)
(4.3842e-09 -7.12051e-07 0)
(4.348e-09 -7.12866e-07 0)
(4.31174e-09 -7.13677e-07 0)
(4.27542e-09 -7.14483e-07 0)
(4.23904e-09 -7.15284e-07 0)
(4.2026e-09 -7.1608e-07 0)
(4.16611e-09 -7.16871e-07 0)
(4.12957e-09 -7.17657e-07 0)
(4.09296e-09 -7.18438e-07 0)
(4.05631e-09 -7.19213e-07 0)
(4.0196e-09 -7.19984e-07 0)
(3.98283e-09 -7.20749e-07 0)
(3.94602e-09 -7.21509e-07 0)
(3.90916e-09 -7.22264e-07 0)
(3.87224e-09 -7.23013e-07 0)
(3.83527e-09 -7.23757e-07 0)
(3.79826e-09 -7.24495e-07 0)
(3.7612e-09 -7.25229e-07 0)
(3.72409e-09 -7.25956e-07 0)
(3.68694e-09 -7.26678e-07 0)
(3.64974e-09 -7.27395e-07 0)
(3.6125e-09 -7.28105e-07 0)
(3.57522e-09 -7.28811e-07 0)
(3.53789e-09 -7.2951e-07 0)
(3.50052e-09 -7.30204e-07 0)
(3.46311e-09 -7.30892e-07 0)
(3.42566e-09 -7.31574e-07 0)
(3.38818e-09 -7.3225e-07 0)
(3.35065e-09 -7.32921e-07 0)
(3.31309e-09 -7.33585e-07 0)
(3.2755e-09 -7.34244e-07 0)
(3.23787e-09 -7.34897e-07 0)
(3.2002e-09 -7.35543e-07 0)
(3.16251e-09 -7.36184e-07 0)
(3.12478e-09 -7.36818e-07 0)
(3.08702e-09 -7.37446e-07 0)
(3.04924e-09 -7.38068e-07 0)
(3.01142e-09 -7.38684e-07 0)
(2.97358e-09 -7.39293e-07 0)
(2.93571e-09 -7.39896e-07 0)
(2.89782e-09 -7.40493e-07 0)
(2.8599e-09 -7.41084e-07 0)
(2.82196e-09 -7.41668e-07 0)
(2.78399e-09 -7.42245e-07 0)
(2.74604e-09 -7.42817e-07 0)
(2.70791e-09 -7.43377e-07 0)
(2.67045e-09 -7.43954e-07 0)
(2.6301e-09 -7.4445e-07 0)
(2.60203e-09 -7.45236e-07 0)
(2.52279e-09 -7.45466e-07 0)
(2.42627e-09 -7.45729e-07 0)
(2.38806e-09 -7.46675e-07 0)
(2.3595e-09 -7.471e-07 0)
(2.33252e-09 -7.47398e-07 0)
(2.3057e-09 -7.47814e-07 0)
(2.27858e-09 -7.48292e-07 0)
(2.25109e-09 -7.48759e-07 0)
(2.2232e-09 -7.49205e-07 0)
(2.19491e-09 -7.49644e-07 0)
(2.16622e-09 -7.50088e-07 0)
(2.13712e-09 -7.50533e-07 0)
(2.10763e-09 -7.50976e-07 0)
(2.07773e-09 -7.51417e-07 0)
(2.04743e-09 -7.51857e-07 0)
(2.01673e-09 -7.52294e-07 0)
(1.98564e-09 -7.5273e-07 0)
(1.95414e-09 -7.53163e-07 0)
(1.92224e-09 -7.53594e-07 0)
(1.88995e-09 -7.54023e-07 0)
(1.85726e-09 -7.54449e-07 0)
(1.82417e-09 -7.54871e-07 0)
(1.79068e-09 -7.55291e-07 0)
(1.7568e-09 -7.55707e-07 0)
(1.72253e-09 -7.5612e-07 0)
(1.68786e-09 -7.56529e-07 0)
(1.6528e-09 -7.56933e-07 0)
(1.61735e-09 -7.57334e-07 0)
(1.5815e-09 -7.5773e-07 0)
(1.54527e-09 -7.58121e-07 0)
(1.50866e-09 -7.58507e-07 0)
(1.47165e-09 -7.58888e-07 0)
(1.43427e-09 -7.59264e-07 0)
(1.3965e-09 -7.59633e-07 0)
(1.35835e-09 -7.59997e-07 0)
(1.31982e-09 -7.60354e-07 0)
(1.28092e-09 -7.60705e-07 0)
(1.24165e-09 -7.61048e-07 0)
(1.202e-09 -7.61385e-07 0)
(1.16199e-09 -7.61714e-07 0)
(1.12161e-09 -7.62035e-07 0)
(1.08087e-09 -7.62348e-07 0)
(1.03977e-09 -7.62653e-07 0)
(9.9831e-10 -7.62948e-07 0)
(9.565e-10 -7.63235e-07 0)
(9.14342e-10 -7.63512e-07 0)
(8.71837e-10 -7.6378e-07 0)
(8.28992e-10 -7.64037e-07 0)
(7.85809e-10 -7.64284e-07 0)
(7.42293e-10 -7.6452e-07 0)
(6.98448e-10 -7.64745e-07 0)
(6.5428e-10 -7.64958e-07 0)
(6.09793e-10 -7.65159e-07 0)
(5.64993e-10 -7.65348e-07 0)
(5.19884e-10 -7.65524e-07 0)
(4.74472e-10 -7.65687e-07 0)
(4.28763e-10 -7.65837e-07 0)
(3.82763e-10 -7.65972e-07 0)
(3.36479e-10 -7.66093e-07 0)
(2.89916e-10 -7.66199e-07 0)
(2.43082e-10 -7.6629e-07 0)
(1.95983e-10 -7.66365e-07 0)
(1.48627e-10 -7.66424e-07 0)
(1.01021e-10 -7.66466e-07 0)
(5.31735e-11 -7.66492e-07 0)
(5.09179e-12 -7.665e-07 0)
(-4.32156e-11 -7.66489e-07 0)
(-9.174e-11 -7.66461e-07 0)
(-1.40473e-10 -7.66413e-07 0)
(-1.89404e-10 -7.66346e-07 0)
(-2.38526e-10 -7.66259e-07 0)
(-2.87827e-10 -7.66152e-07 0)
(-3.37298e-10 -7.66023e-07 0)
(-3.86928e-10 -7.65873e-07 0)
(-4.36707e-10 -7.65702e-07 0)
(-4.86624e-10 -7.65507e-07 0)
(-5.36668e-10 -7.6529e-07 0)
(-5.86827e-10 -7.65049e-07 0)
(-6.37089e-10 -7.64784e-07 0)
(-6.87442e-10 -7.64495e-07 0)
(-7.37874e-10 -7.6418e-07 0)
(-7.88371e-10 -7.6384e-07 0)
(-8.3892e-10 -7.63474e-07 0)
(-8.89508e-10 -7.6308e-07 0)
(-9.40122e-10 -7.6266e-07 0)
(-9.90746e-10 -7.62211e-07 0)
(-1.04137e-09 -7.61734e-07 0)
(-1.09197e-09 -7.61228e-07 0)
(-1.14254e-09 -7.60693e-07 0)
(-1.19306e-09 -7.60127e-07 0)
(-1.24351e-09 -7.59531e-07 0)
(-1.29389e-09 -7.58903e-07 0)
(-1.34416e-09 -7.58244e-07 0)
(-1.39433e-09 -7.57552e-07 0)
(-1.44436e-09 -7.56827e-07 0)
(-1.49424e-09 -7.56069e-07 0)
(-1.54396e-09 -7.55276e-07 0)
(-1.5935e-09 -7.5445e-07 0)
(-1.64283e-09 -7.53587e-07 0)
(-1.69194e-09 -7.52689e-07 0)
(-1.74081e-09 -7.51755e-07 0)
(-1.78942e-09 -7.50784e-07 0)
(-1.83776e-09 -7.49776e-07 0)
(-1.8858e-09 -7.48729e-07 0)
(-1.93352e-09 -7.47645e-07 0)
(-1.9809e-09 -7.46521e-07 0)
(-2.02793e-09 -7.45358e-07 0)
(-2.07458e-09 -7.44155e-07 0)
(-2.12083e-09 -7.42911e-07 0)
(-2.16666e-09 -7.41626e-07 0)
(-2.21205e-09 -7.403e-07 0)
(-2.25697e-09 -7.38932e-07 0)
(-2.30142e-09 -7.37521e-07 0)
(-2.34536e-09 -7.36068e-07 0)
(-2.38878e-09 -7.34571e-07 0)
(-2.43165e-09 -7.33031e-07 0)
(-2.47395e-09 -7.31446e-07 0)
(-2.51566e-09 -7.29817e-07 0)
(-2.55676e-09 -7.28143e-07 0)
(-2.59722e-09 -7.26424e-07 0)
(-2.63703e-09 -7.24659e-07 0)
(-2.67617e-09 -7.22848e-07 0)
(-2.7146e-09 -7.20991e-07 0)
(-2.75232e-09 -7.19087e-07 0)
(-2.78929e-09 -7.17136e-07 0)
(-2.82551e-09 -7.15138e-07 0)
(-2.86094e-09 -7.13093e-07 0)
(-2.89557e-09 -7.11e-07 0)
(-2.92938e-09 -7.08859e-07 0)
(-2.96234e-09 -7.06671e-07 0)
(-2.99444e-09 -7.04434e-07 0)
(-3.02566e-09 -7.02149e-07 0)
(-3.05598e-09 -6.99815e-07 0)
(-3.08537e-09 -6.97434e-07 0)
(-3.11383e-09 -6.95003e-07 0)
(-3.14133e-09 -6.92525e-07 0)
(-3.16786e-09 -6.89997e-07 0)
(-3.1934e-09 -6.87422e-07 0)
(-3.21793e-09 -6.84797e-07 0)
(-3.24143e-09 -6.82125e-07 0)
(-3.2639e-09 -6.79404e-07 0)
(-3.28531e-09 -6.76636e-07 0)
(-3.30566e-09 -6.73819e-07 0)
(-3.32492e-09 -6.70955e-07 0)
(-3.34308e-09 -6.68043e-07 0)
(-3.36014e-09 -6.65085e-07 0)
(-3.37607e-09 -6.62079e-07 0)
(-3.39088e-09 -6.59027e-07 0)
(-3.40453e-09 -6.55929e-07 0)
(-3.41704e-09 -6.52785e-07 0)
(-3.42838e-09 -6.49596e-07 0)
(-3.43855e-09 -6.46363e-07 0)
(-3.44753e-09 -6.43085e-07 0)
(-3.45534e-09 -6.39763e-07 0)
(-3.46195e-09 -6.36399e-07 0)
(-3.46736e-09 -6.32992e-07 0)
(-3.47157e-09 -6.29543e-07 0)
(-3.47459e-09 -6.26054e-07 0)
(-3.4764e-09 -6.22524e-07 0)
(-3.47701e-09 -6.18954e-07 0)
(-3.47641e-09 -6.15346e-07 0)
(-3.47462e-09 -6.117e-07 0)
(-3.47164e-09 -6.08017e-07 0)
(-3.46747e-09 -6.04298e-07 0)
(-3.46211e-09 -6.00543e-07 0)
(-3.45558e-09 -5.96755e-07 0)
(-3.44788e-09 -5.92933e-07 0)
(-3.43903e-09 -5.89079e-07 0)
(-3.42902e-09 -5.85194e-07 0)
(-3.41788e-09 -5.81279e-07 0)
(-3.40562e-09 -5.77335e-07 0)
(-3.39224e-09 -5.73363e-07 0)
(-3.37777e-09 -5.69365e-07 0)
(-3.36221e-09 -5.65341e-07 0)
(-3.34558e-09 -5.61293e-07 0)
(-3.3279e-09 -5.57222e-07 0)
(-3.30919e-09 -5.53128e-07 0)
(-3.28943e-09 -5.4902e-07 0)
(-3.26878e-09 -5.44867e-07 0)
(-3.24671e-09 -5.40773e-07 0)
(-3.2255e-09 -5.36342e-07 0)
(-3.19591e-09 -5.32488e-07 0)
(-3.15586e-09 -5.28054e-07 0)
(-3.11937e-09 -5.22472e-07 0)
(-3.08699e-09 -5.17518e-07 0)
(-3.05489e-09 -5.12687e-07 0)
(-3.02241e-09 -5.07789e-07 0)
(-2.98933e-09 -5.0289e-07 0)
(-2.95569e-09 -4.98061e-07 0)
(-2.92151e-09 -4.93308e-07 0)
(-2.88688e-09 -4.88614e-07 0)
(-2.85183e-09 -4.83971e-07 0)
(-2.81643e-09 -4.79383e-07 0)
(-2.78071e-09 -4.74852e-07 0)
(-2.74473e-09 -4.70382e-07 0)
(-2.70852e-09 -4.65968e-07 0)
(-2.67214e-09 -4.61615e-07 0)
(-2.6356e-09 -4.57319e-07 0)
(-2.59896e-09 -4.53084e-07 0)
(-2.56223e-09 -4.48907e-07 0)
(-2.52546e-09 -4.44791e-07 0)
(-2.48866e-09 -4.40733e-07 0)
(-2.45187e-09 -4.36736e-07 0)
(-2.41509e-09 -4.32797e-07 0)
(-2.37837e-09 -4.2892e-07 0)
(-2.34171e-09 -4.251e-07 0)
(-2.30515e-09 -4.2134e-07 0)
(-2.26867e-09 -4.17639e-07 0)
(-2.23232e-09 -4.13998e-07 0)
(-2.19609e-09 -4.10414e-07 0)
(-2.16001e-09 -4.0689e-07 0)
(-2.12407e-09 -4.03423e-07 0)
(-2.0883e-09 -4.00015e-07 0)
(-2.05268e-09 -3.96664e-07 0)
(-2.01724e-09 -3.93372e-07 0)
(-1.98198e-09 -3.90136e-07 0)
(-1.9469e-09 -3.86957e-07 0)
(-1.91201e-09 -3.83835e-07 0)
(-1.87731e-09 -3.80769e-07 0)
(-1.84279e-09 -3.77759e-07 0)
(-1.80847e-09 -3.74805e-07 0)
(-1.77435e-09 -3.71907e-07 0)
(-1.74041e-09 -3.69063e-07 0)
(-1.70667e-09 -3.66274e-07 0)
(-1.67312e-09 -3.6354e-07 0)
(-1.63977e-09 -3.6086e-07 0)
(-1.60659e-09 -3.58233e-07 0)
(-1.5736e-09 -3.5566e-07 0)
(-1.5408e-09 -3.5314e-07 0)
(-1.50817e-09 -3.50674e-07 0)
(-1.47571e-09 -3.48259e-07 0)
(-1.44343e-09 -3.45898e-07 0)
(-1.41131e-09 -3.43588e-07 0)
(-1.37936e-09 -3.41331e-07 0)
(-1.34756e-09 -3.39124e-07 0)
(-1.31591e-09 -3.3697e-07 0)
(-1.2844e-09 -3.34865e-07 0)
(-1.25304e-09 -3.32813e-07 0)
(-1.22181e-09 -3.30809e-07 0)
(-1.19072e-09 -3.28858e-07 0)
(-1.15974e-09 -3.26956e-07 0)
(-1.12888e-09 -3.25104e-07 0)
(-1.09813e-09 -3.23302e-07 0)
(-1.06749e-09 -3.2155e-07 0)
(-1.03695e-09 -3.19846e-07 0)
(-1.0065e-09 -3.18193e-07 0)
(-9.76135e-10 -3.16588e-07 0)
(-9.45857e-10 -3.15033e-07 0)
(-9.15653e-10 -3.13526e-07 0)
(-8.85522e-10 -3.12069e-07 0)
(-8.55455e-10 -3.1066e-07 0)
(-8.25451e-10 -3.093e-07 0)
(-7.95501e-10 -3.07988e-07 0)
(-7.65603e-10 -3.06724e-07 0)
(-7.35751e-10 -3.05509e-07 0)
(-7.05944e-10 -3.04343e-07 0)
(-6.76174e-10 -3.03224e-07 0)
(-6.46442e-10 -3.02154e-07 0)
(-6.16741e-10 -3.01131e-07 0)
(-5.87073e-10 -3.00157e-07 0)
(-5.57433e-10 -2.99231e-07 0)
(-5.27823e-10 -2.98353e-07 0)
(-4.9824e-10 -2.97523e-07 0)
(-4.68683e-10 -2.96741e-07 0)
(-4.3915e-10 -2.96006e-07 0)
(-4.09633e-10 -2.9532e-07 0)
(-3.80114e-10 -2.9468e-07 0)
(-3.50566e-10 -2.9409e-07 0)
(-3.20936e-10 -2.9354e-07 0)
(-2.9116e-10 -2.93064e-07 0)
(-2.6109e-10 -2.92548e-07 0)
(-2.30812e-10 -2.92369e-07 0)
(-1.99629e-10 -2.91263e-07 0)
(-1.70649e-10 -2.93324e-07 0)
(-1.33415e-10 -2.84316e-07 0)
(-1.33617e-10 -3.07444e-07 0)
(-7.90568e-11 -2.68331e-07 0)
)
;
    }
    bottomWall
    {
        type            calculated;
        value           nonuniform List<vector> 
449
(
(-48.7606 -0.967274 0)
(-19.8407 -0.005179 0)
(-14.4151 -0.0011376 0)
(-12.1046 -0.000544224 0)
(-10.7084 -0.000346655 0)
(-9.7385 -0.000245832 0)
(-9.02693 -0.000178882 0)
(-8.51167 -0.000121762 0)
(-8.1881 -5.2424e-05 0)
(-8.14411 4.51764e-05 0)
(-8.48223 0.000163666 0)
(-9.24779 0.000215099 0)
(-9.94896 0.000164935 0)
(-10.3824 9.17705e-05 0)
(-10.5843 3.86203e-05 0)
(-10.6504 8.43423e-06 0)
(-10.6424 -8.56349e-06 0)
(-10.5899 -1.81232e-05 0)
(-10.5151 -2.34251e-05 0)
(-10.4253 -2.67368e-05 0)
(-10.3271 -2.84081e-05 0)
(-10.2252 -2.89636e-05 0)
(-10.1227 -2.88582e-05 0)
(-10.0211 -2.82821e-05 0)
(-9.92219 -2.75399e-05 0)
(-9.82546 -2.65806e-05 0)
(-9.73291 -2.56122e-05 0)
(-9.64262 -2.45787e-05 0)
(-9.55703 -2.35499e-05 0)
(-9.47368 -2.25462e-05 0)
(-9.3949 -2.15851e-05 0)
(-9.31807 -2.06292e-05 0)
(-9.24585 -1.97182e-05 0)
(-9.17523 -1.89613e-05 0)
(-9.10814 -1.80683e-05 0)
(-9.04372 -1.73636e-05 0)
(-8.9814 -1.67242e-05 0)
(-8.92136 -1.6021e-05 0)
(-8.86392 -1.54092e-05 0)
(-8.80807 -1.48133e-05 0)
(-8.75479 -1.4152e-05 0)
(-8.70355 -1.37403e-05 0)
(-8.65302 -1.31846e-05 0)
(-8.60572 -1.26641e-05 0)
(-8.5588 -1.23176e-05 0)
(-8.51382 -1.18598e-05 0)
(-8.47012 -1.14734e-05 0)
(-8.42783 -1.10909e-05 0)
(-8.38679 -1.07361e-05 0)
(-8.34698 -1.02889e-05 0)
(-8.30914 -9.98792e-06 0)
(-8.27142 -9.52427e-06 0)
(-8.23698 -9.20637e-06 0)
(-8.20145 -9.02923e-06 0)
(-8.16815 -8.79233e-06 0)
(-8.13427 -8.51932e-06 0)
(-8.10291 -8.26477e-06 0)
(-8.07084 -8.04718e-06 0)
(-8.04102 -7.71862e-06 0)
(-8.01133 -7.56497e-06 0)
(-7.98252 -7.41954e-06 0)
(-7.9538 -7.22959e-06 0)
(-7.92636 -6.96982e-06 0)
(-7.89957 -6.76336e-06 0)
(-7.87359 -6.55262e-06 0)
(-7.84835 -6.27444e-06 0)
(-7.82446 -6.08273e-06 0)
(-7.80059 -5.93286e-06 0)
(-7.77773 -5.92221e-06 0)
(-7.75379 -5.81345e-06 0)
(-7.73171 -5.65856e-06 0)
(-7.7089 -5.51508e-06 0)
(-7.68787 -5.26659e-06 0)
(-7.66695 -5.16802e-06 0)
(-7.64659 -5.04531e-06 0)
(-7.62654 -4.9935e-06 0)
(-7.60648 -4.86988e-06 0)
(-7.58739 -4.6726e-06 0)
(-7.56882 -4.65382e-06 0)
(-7.54973 -4.53059e-06 0)
(-7.53214 -4.25637e-06 0)
(-7.51521 -4.2469e-06 0)
(-7.49754 -4.29273e-06 0)
(-7.48013 -4.20402e-06 0)
(-7.46315 -4.02835e-06 0)
(-7.44709 -4.05021e-06 0)
(-7.4298 -3.89926e-06 0)
(-7.415 -3.66315e-06 0)
(-7.39959 -3.66766e-06 0)
(-7.38463 -3.69102e-06 0)
(-7.36896 -3.69913e-06 0)
(-7.35386 -3.58378e-06 0)
(-7.33907 -3.53846e-06 0)
(-7.32429 -3.30812e-06 0)
(-7.31141 -3.2731e-06 0)
(-7.2968 -3.41467e-06 0)
(-7.28263 -3.3375e-06 0)
(-7.26866 -3.20147e-06 0)
(-7.25559 -3.15903e-06 0)
(-7.24188 -3.00671e-06 0)
(-7.23009 -2.74357e-06 0)
(-7.21856 -2.76372e-06 0)
(-7.20648 -2.80067e-06 0)
(-7.19458 -2.81827e-06 0)
(-7.18229 -2.74101e-06 0)
(-7.17104 -2.60025e-06 0)
(-7.15991 -2.60162e-06 0)
(-7.14856 -2.6047e-06 0)
(-7.13742 -2.33628e-06 0)
(-7.12842 -2.24389e-06 0)
(-7.11796 -2.34774e-06 0)
(-7.108 -2.25062e-06 0)
(-7.09834 -2.21863e-06 0)
(-7.08854 -2.21485e-06 0)
(-7.07892 -2.15049e-06 0)
(-7.06968 -2.07192e-06 0)
(-7.06063 -2.03017e-06 0)
(-7.05171 -2.02912e-06 0)
(-7.04268 -1.99498e-06 0)
(-7.03398 -2.05813e-06 0)
(-7.02432 -2.04894e-06 0)
(-7.01571 -1.91595e-06 0)
(-7.00721 -1.87039e-06 0)
(-6.99894 -1.87942e-06 0)
(-6.99033 -1.74479e-06 0)
(-6.9833 -1.59959e-06 0)
(-6.97596 -1.61908e-06 0)
(-6.96872 -1.62162e-06 0)
(-6.96128 -1.76865e-06 0)
(-6.95259 -1.79624e-06 0)
(-6.94495 -1.60527e-06 0)
(-6.938 -1.59171e-06 0)
(-6.93035 -1.58206e-06 0)
(-6.92348 -1.47903e-06 0)
(-6.91681 -1.50175e-06 0)
(-6.90964 -1.49162e-06 0)
(-6.90303 -1.4351e-06 0)
(-6.8964 -1.41595e-06 0)
(-6.88989 -1.42223e-06 0)
(-6.88316 -1.35782e-06 0)
(-6.87726 -1.32643e-06 0)
(-6.87076 -1.33108e-06 0)
(-6.86478 -1.27292e-06 0)
(-6.85883 -1.20193e-06 0)
(-6.85349 -1.26269e-06 0)
(-6.84691 -1.46577e-06 0)
(-6.83959 -1.41462e-06 0)
(-6.8335 -1.27036e-06 0)
(-6.82756 -1.25521e-06 0)
(-6.82158 -1.14005e-06 0)
(-6.81669 -1.03717e-06 0)
(-6.81164 -1.09859e-06 0)
(-6.80616 -1.0391e-06 0)
(-6.80168 -1.04318e-06 0)
(-6.79606 -1.1186e-06 0)
(-6.79081 -1.11737e-06 0)
(-6.78524 -1.09173e-06 0)
(-6.78023 -9.90022e-07 0)
(-6.77561 -9.72352e-07 0)
(-6.77075 -9.31676e-07 0)
(-6.76654 -9.32033e-07 0)
(-6.76164 -1.00124e-06 0)
(-6.7567 -9.0419e-07 0)
(-6.75277 -8.5603e-07 0)
(-6.74828 -9.41667e-07 0)
(-6.74344 -8.76437e-07 0)
(-6.7396 -8.20381e-07 0)
(-6.73529 -9.1505e-07 0)
(-6.73046 -8.79946e-07 0)
(-6.7265 -7.83109e-07 0)
(-6.72261 -8.74378e-07 0)
(-6.7177 -9.42762e-07 0)
(-6.71311 -8.31851e-07 0)
(-6.70952 -7.93613e-07 0)
(-6.70575 -8.86032e-07 0)
(-6.70145 -9.20481e-07 0)
(-6.69724 -9.76555e-07 0)
(-6.69232 -1.04121e-06 0)
(-6.68746 -9.56039e-07 0)
(-6.68324 -9.87075e-07 0)
(-6.67792 -1.05634e-06 0)
(-6.67294 -9.34567e-07 0)
(-6.66874 -8.82729e-07 0)
(-6.66417 -8.3384e-07 0)
(-6.66038 -7.18171e-07 0)
(-6.65689 -7.01047e-07 0)
(-6.65319 -6.54734e-07 0)
(-6.65012 -6.06374e-07 0)
(-6.64684 -6.34955e-07 0)
(-6.6434 -5.87187e-07 0)
(-6.64058 -5.59612e-07 0)
(-6.63735 -5.9278e-07 0)
(-6.63411 -5.33609e-07 0)
(-6.63149 -5.19998e-07 0)
(-6.62831 -5.44985e-07 0)
(-6.62535 -4.95967e-07 0)
(-6.62267 -5.07117e-07 0)
(-6.6195 -5.19278e-07 0)
(-6.61664 -4.65973e-07 0)
(-6.61403 -4.90088e-07 0)
(-6.61079 -5.10299e-07 0)
(-6.6079 -4.61159e-07 0)
(-6.6052 -4.74761e-07 0)
(-6.60205 -4.77109e-07 0)
(-6.59929 -4.30312e-07 0)
(-6.59667 -4.48479e-07 0)
(-6.59358 -4.51594e-07 0)
(-6.59089 -4.12055e-07 0)
(-6.58825 -4.39412e-07 0)
(-6.58513 -4.3236e-07 0)
(-6.58254 -4.03595e-07 0)
(-6.57972 -4.25979e-07 0)
(-6.57676 -3.99559e-07 0)
(-6.57425 -3.99059e-07 0)
(-6.57124 -4.23803e-07 0)
(-6.56833 -3.85465e-07 0)
(-6.5658 -3.96583e-07 0)
(-6.56266 -4.11208e-07 0)
(-6.55988 -3.67147e-07 0)
(-6.55732 -3.77433e-07 0)
(-6.5543 -3.78295e-07 0)
(-6.55168 -3.45414e-07 0)
(-6.54909 -3.67996e-07 0)
(-6.54607 -3.62523e-07 0)
(-6.54352 -3.3562e-07 0)
(-6.54085 -3.46564e-07 0)
(-6.53806 -3.31912e-07 0)
(-6.53557 -3.22649e-07 0)
(-6.53288 -3.37826e-07 0)
(-6.53007 -3.27357e-07 0)
(-6.5275 -3.37508e-07 0)
(-6.52448 -3.5048e-07 0)
(-6.52163 -3.15495e-07 0)
(-6.51914 -3.16806e-07 0)
(-6.5162 -3.23791e-07 0)
(-6.51353 -3.00009e-07 0)
(-6.51094 -3.20303e-07 0)
(-6.50785 -3.23398e-07 0)
(-6.50517 -2.96446e-07 0)
(-6.50249 -3.1294e-07 0)
(-6.49943 -3.05465e-07 0)
(-6.49684 -2.84974e-07 0)
(-6.4941 -3.10385e-07 0)
(-6.49096 -3.01516e-07 0)
(-6.48834 -2.78145e-07 0)
(-6.48559 -3.03513e-07 0)
(-6.48241 -2.95767e-07 0)
(-6.47976 -2.67361e-07 0)
(-6.47707 -2.8437e-07 0)
(-6.47401 -2.76583e-07 0)
(-6.47143 -2.71393e-07 0)
(-6.46841 -2.68736e-07 0)
(-6.46583 -2.6902e-07 0)
(-6.46274 -2.71709e-07 0)
(-6.46003 -2.7079e-07 0)
(-6.45689 -2.73653e-07 0)
(-6.45407 -2.59042e-07 0)
(-6.45118 -2.79012e-07 0)
(-6.44786 -2.75274e-07 0)
(-6.445 -2.51003e-07 0)
(-6.44216 -2.69241e-07 0)
(-6.43881 -2.68137e-07 0)
(-6.43594 -2.43372e-07 0)
(-6.4331 -2.59444e-07 0)
(-6.42978 -2.59085e-07 0)
(-6.4269 -2.36413e-07 0)
(-6.42405 -2.51163e-07 0)
(-6.42073 -2.48353e-07 0)
(-6.41791 -2.31776e-07 0)
(-6.41494 -2.42272e-07 0)
(-6.41177 -2.31423e-07 0)
(-6.40902 -2.25643e-07 0)
(-6.40593 -2.2429e-07 0)
(-6.40315 -2.26612e-07 0)
(-6.39994 -2.23914e-07 0)
(-6.39718 -2.06742e-07 0)
(-6.39436 -2.21742e-07 0)
(-6.39113 -2.16167e-07 0)
(-6.38841 -1.92806e-07 0)
(-6.38576 -2.02747e-07 0)
(-6.3827 -2.00462e-07 0)
(-6.38006 -1.82469e-07 0)
(-6.37745 -1.94066e-07 0)
(-6.37441 -1.92466e-07 0)
(-6.3718 -1.76094e-07 0)
(-6.36918 -1.89211e-07 0)
(-6.36611 -1.87605e-07 0)
(-6.3635 -1.70946e-07 0)
(-6.36087 -1.83617e-07 0)
(-6.35779 -1.81789e-07 0)
(-6.35517 -1.65144e-07 0)
(-6.35255 -1.74223e-07 0)
(-6.34958 -1.70719e-07 0)
(-6.34703 -1.56807e-07 0)
(-6.34445 -1.67047e-07 0)
(-6.3415 -1.62556e-07 0)
(-6.33902 -1.48786e-07 0)
(-6.33647 -1.62633e-07 0)
(-6.33346 -1.60236e-07 0)
(-6.33094 -1.44885e-07 0)
(-6.32839 -1.55805e-07 0)
(-6.32543 -1.53185e-07 0)
(-6.32293 -1.38007e-07 0)
(-6.32045 -1.46486e-07 0)
(-6.31758 -1.43682e-07 0)
(-6.31515 -1.3125e-07 0)
(-6.31269 -1.39899e-07 0)
(-6.30988 -1.36059e-07 0)
(-6.30751 -1.24886e-07 0)
(-6.30508 -1.30282e-07 0)
(-6.30244 -1.24866e-07 0)
(-6.30016 -1.21436e-07 0)
(-6.29761 -1.28734e-07 0)
(-6.29499 -1.19871e-07 0)
(-6.29274 -1.14471e-07 0)
(-6.29029 -1.2128e-07 0)
(-6.2877 -1.14906e-07 0)
(-6.28546 -1.12425e-07 0)
(-6.28293 -1.14593e-07 0)
(-6.28055 -1.05721e-07 0)
(-6.27835 -1.08131e-07 0)
(-6.27581 -1.12047e-07 0)
(-6.27338 -1.03576e-07 0)
(-6.27117 -1.01721e-07 0)
(-6.26878 -1.01452e-07 0)
(-6.26653 -9.59856e-08 0)
(-6.26434 -9.84055e-08 0)
(-6.26193 -9.67448e-08 0)
(-6.25978 -9.11636e-08 0)
(-6.25758 -9.65359e-08 0)
(-6.25511 -9.45768e-08 0)
(-6.25297 -8.62511e-08 0)
(-6.25086 -8.95342e-08 0)
(-6.24851 -8.72122e-08 0)
(-6.24648 -8.18278e-08 0)
(-6.24434 -8.45966e-08 0)
(-6.24212 -8.20653e-08 0)
(-6.24007 -7.90225e-08 0)
(-6.23796 -8.19882e-08 0)
(-6.23571 -7.7761e-08 0)
(-6.23379 -7.12483e-08 0)
(-6.23184 -7.5007e-08 0)
(-6.22967 -7.32379e-08 0)
(-6.22778 -6.9848e-08 0)
(-6.22575 -7.25487e-08 0)
(-6.22367 -6.80031e-08 0)
(-6.22185 -6.4486e-08 0)
(-6.21993 -6.74204e-08 0)
(-6.2179 -6.64058e-08 0)
(-6.21599 -6.58263e-08 0)
(-6.21396 -6.42988e-08 0)
(-6.2121 -5.94368e-08 0)
(-6.21032 -6.47244e-08 0)
(-6.20809 -6.80187e-08 0)
(-6.20583 -5.88223e-08 0)
(-6.20378 -4.96372e-08 0)
(-6.20199 -4.91775e-08 0)
(-6.19998 -5.03744e-08 0)
(-6.1981 -4.98448e-08 0)
(-6.19613 -4.91457e-08 0)
(-6.19431 -4.80437e-08 0)
(-6.19242 -4.77493e-08 0)
(-6.19062 -4.63166e-08 0)
(-6.18885 -4.61084e-08 0)
(-6.18707 -4.4187e-08 0)
(-6.18544 -4.7531e-08 0)
(-6.18339 -4.90508e-08 0)
(-6.18164 -4.41716e-08 0)
(-6.17998 -4.46223e-08 0)
(-6.1782 -4.30782e-08 0)
(-6.17665 -4.21697e-08 0)
(-6.17494 -4.58041e-08 0)
(-6.17311 -4.34702e-08 0)
(-6.17157 -4.17687e-08 0)
(-6.16988 -4.18163e-08 0)
(-6.16834 -4.10564e-08 0)
(-6.1667 -3.90273e-08 0)
(-6.16532 -3.66081e-08 0)
(-6.16387 -3.80607e-08 0)
(-6.16238 -3.83226e-08 0)
(-6.16091 -3.81295e-08 0)
(-6.15942 -3.68125e-08 0)
(-6.15806 -3.57714e-08 0)
(-6.15667 -3.4448e-08 0)
(-6.1554 -3.29707e-08 0)
(-6.15412 -3.36234e-08 0)
(-6.15281 -3.22854e-08 0)
(-6.15163 -3.63116e-08 0)
(-6.15 -3.74973e-08 0)
(-6.14873 -3.21423e-08 0)
(-6.14752 -3.23065e-08 0)
(-6.14623 -3.16764e-08 0)
(-6.14508 -2.80243e-08 0)
(-6.14408 -3.10763e-08 0)
(-6.14267 -3.26775e-08 0)
(-6.14155 -2.7313e-08 0)
(-6.14056 -3.23671e-08 0)
(-6.13904 -3.18429e-08 0)
(-6.1381 -2.25603e-08 0)
(-6.13731 -2.85034e-08 0)
(-6.1359 -2.86801e-08 0)
(-6.13509 -1.91766e-08 0)
(-6.13443 -1.73473e-08 0)
(-6.13377 -1.78408e-08 0)
(-6.13307 -1.84768e-08 0)
(-6.13236 -1.8613e-08 0)
(-6.13164 -2.60023e-08 0)
(-6.13034 -2.57863e-08 0)
(-6.12965 -1.6955e-08 0)
(-6.12904 -1.54529e-08 0)
(-6.12847 -1.59137e-08 0)
(-6.12783 -1.6081e-08 0)
(-6.12724 -1.65483e-08 0)
(-6.12656 -2.69193e-08 0)
(-6.12515 -2.62068e-08 0)
(-6.12453 -1.30532e-08 0)
(-6.12416 -1.32754e-08 0)
(-6.12352 -1.5798e-08 0)
(-6.12295 -2.18985e-08 0)
(-6.12183 -2.03946e-08 0)
(-6.12138 -1.10314e-08 0)
(-6.121 -1.06857e-08 0)
(-6.12057 -1.2086e-08 0)
(-6.12008 -1.97969e-08 0)
(-6.11904 -1.86801e-08 0)
(-6.11864 -1.02456e-08 0)
(-6.11827 -1.86838e-08 0)
(-6.1172 -1.91451e-08 0)
(-6.11679 -9.81954e-09 0)
(-6.11646 -1.72681e-08 0)
(-6.11546 -1.93961e-08 0)
(-6.11495 -1.10721e-08 0)
(-6.11462 -1.09258e-08 0)
(-6.11412 -1.27155e-08 0)
(-6.11364 -9.24053e-09 0)
(-6.11343 -5.57395e-09 0)
(-6.11323 -6.40815e-09 0)
(-6.11295 -8.72694e-09 0)
(-6.11258 -1.29124e-08 0)
(-6.11196 -1.29818e-08 0)
(-6.11158 -9.14759e-09 0)
(-6.11127 -8.36607e-09 0)
(-6.11095 -9.60395e-09 0)
(-6.11054 -1.85276e-08 0)
(-6.10951 -1.54517e-08 0)
(-6.10935 -4.5647e-09 0)
(-6.10919 -2.26634e-09 0)
(-6.1092 -2.12869e-08 0)
(-6.10753 -2.21966e-08 0)
)
;
    }
    symmetry
    {
        type            symmetryPlane;
    }
    frontAndBack
    {
        type            empty;
    }
}


// ************************************************************************* //
