/*--------------------------------*- C++ -*----------------------------------*\
| =========                 |                                                 |
| \\      /  F ield         | OpenFOAM: The Open Source CFD Toolbox           |
|  \\    /   O peration     | Version:  v2012                                 |
|   \\  /    A nd           | Website:  www.openfoam.com                      |
|    \\/     M anipulation  |                                                 |
\*---------------------------------------------------------------------------*/
FoamFile
{
    version     2.0;
    format      ascii;
    class       volVectorField;
    location    "7";
    object      wallShearStress;
}
// * * * * * * * * * * * * * * * * * * * * * * * * * * * * * * * * * * * * * //

dimensions      [0 2 -2 0 0 0 0];


internalField   uniform (0 0 0);

boundaryField
{
    inlet
    {
        type            calculated;
        value           uniform (0 0 0);
    }
    outlet
    {
        type            calculated;
        value           uniform (0 0 0);
    }
    topWall
    {
        type            calculated;
        value           nonuniform List<vector> 
545
(
(1.00149e-08 -7.02967e-09 0)
(1.00246e-08 -1.97521e-08 0)
(9.97602e-09 -3.29054e-08 0)
(9.94861e-09 -4.56589e-08 0)
(9.92281e-09 -5.78476e-08 0)
(9.89426e-09 -6.96282e-08 0)
(9.86212e-09 -8.1103e-08 0)
(9.82639e-09 -9.22671e-08 0)
(9.78734e-09 -1.03095e-07 0)
(9.7453e-09 -1.13584e-07 0)
(9.70057e-09 -1.23748e-07 0)
(9.65343e-09 -1.33599e-07 0)
(9.60416e-09 -1.43144e-07 0)
(9.55299e-09 -1.52389e-07 0)
(9.50017e-09 -1.61341e-07 0)
(9.4459e-09 -1.70007e-07 0)
(9.3904e-09 -1.78397e-07 0)
(9.33384e-09 -1.86516e-07 0)
(9.27641e-09 -1.94373e-07 0)
(9.21826e-09 -2.01975e-07 0)
(9.15954e-09 -2.0933e-07 0)
(9.10039e-09 -2.16446e-07 0)
(9.04093e-09 -2.23328e-07 0)
(8.98128e-09 -2.29985e-07 0)
(8.92155e-09 -2.36424e-07 0)
(8.86183e-09 -2.42651e-07 0)
(8.80221e-09 -2.48673e-07 0)
(8.74277e-09 -2.54497e-07 0)
(8.68358e-09 -2.60129e-07 0)
(8.62471e-09 -2.65575e-07 0)
(8.56623e-09 -2.70841e-07 0)
(8.50818e-09 -2.75934e-07 0)
(8.4506e-09 -2.80859e-07 0)
(8.39355e-09 -2.85622e-07 0)
(8.33706e-09 -2.90228e-07 0)
(8.28117e-09 -2.94683e-07 0)
(8.2259e-09 -2.98991e-07 0)
(8.17127e-09 -3.03157e-07 0)
(8.11732e-09 -3.07187e-07 0)
(8.06405e-09 -3.11084e-07 0)
(8.01148e-09 -3.14854e-07 0)
(7.95963e-09 -3.18501e-07 0)
(7.9085e-09 -3.22029e-07 0)
(7.8581e-09 -3.25441e-07 0)
(7.80843e-09 -3.28743e-07 0)
(7.7595e-09 -3.31937e-07 0)
(7.71131e-09 -3.35028e-07 0)
(7.66385e-09 -3.38018e-07 0)
(7.61712e-09 -3.40912e-07 0)
(7.57113e-09 -3.43713e-07 0)
(7.52585e-09 -3.46423e-07 0)
(7.4813e-09 -3.49046e-07 0)
(7.43745e-09 -3.51585e-07 0)
(7.3943e-09 -3.54042e-07 0)
(7.35183e-09 -3.56421e-07 0)
(7.31005e-09 -3.58724e-07 0)
(7.26893e-09 -3.60954e-07 0)
(7.22847e-09 -3.63112e-07 0)
(7.18864e-09 -3.65202e-07 0)
(7.14945e-09 -3.67226e-07 0)
(7.11086e-09 -3.69186e-07 0)
(7.07288e-09 -3.71084e-07 0)
(7.03548e-09 -3.72921e-07 0)
(6.99865e-09 -3.74702e-07 0)
(6.96237e-09 -3.76426e-07 0)
(6.92663e-09 -3.78096e-07 0)
(6.89141e-09 -3.79713e-07 0)
(6.85669e-09 -3.8128e-07 0)
(6.8225e-09 -3.82799e-07 0)
(6.78856e-09 -3.84267e-07 0)
(6.75605e-09 -3.85703e-07 0)
(6.71983e-09 -3.87061e-07 0)
(6.68576e-09 -3.8838e-07 0)
(6.65919e-09 -3.89688e-07 0)
(6.63282e-09 -3.9094e-07 0)
(6.60655e-09 -3.92182e-07 0)
(6.58034e-09 -3.93426e-07 0)
(6.55417e-09 -3.94662e-07 0)
(6.52804e-09 -3.95885e-07 0)
(6.50196e-09 -3.97096e-07 0)
(6.47593e-09 -3.98297e-07 0)
(6.44995e-09 -3.99487e-07 0)
(6.42402e-09 -4.00668e-07 0)
(6.39814e-09 -4.01839e-07 0)
(6.3723e-09 -4.02999e-07 0)
(6.34652e-09 -4.0415e-07 0)
(6.32079e-09 -4.0529e-07 0)
(6.29511e-09 -4.06421e-07 0)
(6.26949e-09 -4.07542e-07 0)
(6.24391e-09 -4.08653e-07 0)
(6.21841e-09 -4.09756e-07 0)
(6.19286e-09 -4.10846e-07 0)
(6.16781e-09 -4.11936e-07 0)
(6.14093e-09 -4.12989e-07 0)
(6.12208e-09 -4.1415e-07 0)
(6.06951e-09 -4.15064e-07 0)
(6.00806e-09 -4.15937e-07 0)
(5.98467e-09 -4.1699e-07 0)
(5.96467e-09 -4.17796e-07 0)
(5.94547e-09 -4.18572e-07 0)
(5.9264e-09 -4.194e-07 0)
(5.90731e-09 -4.20251e-07 0)
(5.88816e-09 -4.21095e-07 0)
(5.86895e-09 -4.21928e-07 0)
(5.84967e-09 -4.2276e-07 0)
(5.83032e-09 -4.23593e-07 0)
(5.81091e-09 -4.24426e-07 0)
(5.79143e-09 -4.25258e-07 0)
(5.77189e-09 -4.26089e-07 0)
(5.75228e-09 -4.26919e-07 0)
(5.7326e-09 -4.27748e-07 0)
(5.71285e-09 -4.28577e-07 0)
(5.69304e-09 -4.29404e-07 0)
(5.67316e-09 -4.30231e-07 0)
(5.65322e-09 -4.31056e-07 0)
(5.6332e-09 -4.31881e-07 0)
(5.61313e-09 -4.32705e-07 0)
(5.59298e-09 -4.33527e-07 0)
(5.57277e-09 -4.34349e-07 0)
(5.55249e-09 -4.35169e-07 0)
(5.53215e-09 -4.35989e-07 0)
(5.51173e-09 -4.36807e-07 0)
(5.49126e-09 -4.37624e-07 0)
(5.47071e-09 -4.3844e-07 0)
(5.4501e-09 -4.39255e-07 0)
(5.42943e-09 -4.40069e-07 0)
(5.40868e-09 -4.40882e-07 0)
(5.38788e-09 -4.41693e-07 0)
(5.367e-09 -4.42504e-07 0)
(5.34606e-09 -4.43312e-07 0)
(5.32505e-09 -4.4412e-07 0)
(5.30398e-09 -4.44927e-07 0)
(5.28285e-09 -4.45732e-07 0)
(5.26164e-09 -4.46535e-07 0)
(5.24037e-09 -4.47338e-07 0)
(5.21904e-09 -4.48139e-07 0)
(5.19764e-09 -4.48938e-07 0)
(5.17617e-09 -4.49737e-07 0)
(5.15465e-09 -4.50533e-07 0)
(5.13305e-09 -4.51329e-07 0)
(5.11139e-09 -4.52123e-07 0)
(5.08967e-09 -4.52915e-07 0)
(5.06788e-09 -4.53706e-07 0)
(5.04602e-09 -4.54495e-07 0)
(5.02411e-09 -4.55283e-07 0)
(5.00212e-09 -4.56069e-07 0)
(4.98008e-09 -4.56854e-07 0)
(4.95797e-09 -4.57636e-07 0)
(4.9358e-09 -4.58418e-07 0)
(4.91356e-09 -4.59197e-07 0)
(4.89126e-09 -4.59975e-07 0)
(4.86889e-09 -4.60751e-07 0)
(4.84647e-09 -4.61526e-07 0)
(4.82398e-09 -4.62298e-07 0)
(4.80142e-09 -4.63069e-07 0)
(4.77881e-09 -4.63838e-07 0)
(4.75613e-09 -4.64606e-07 0)
(4.73339e-09 -4.65371e-07 0)
(4.71059e-09 -4.66134e-07 0)
(4.68772e-09 -4.66896e-07 0)
(4.6648e-09 -4.67656e-07 0)
(4.64181e-09 -4.68413e-07 0)
(4.61876e-09 -4.69169e-07 0)
(4.59565e-09 -4.69923e-07 0)
(4.57248e-09 -4.70675e-07 0)
(4.54925e-09 -4.71424e-07 0)
(4.52596e-09 -4.72172e-07 0)
(4.50261e-09 -4.72918e-07 0)
(4.4792e-09 -4.73661e-07 0)
(4.45573e-09 -4.74402e-07 0)
(4.4322e-09 -4.75141e-07 0)
(4.40861e-09 -4.75878e-07 0)
(4.38496e-09 -4.76613e-07 0)
(4.36126e-09 -4.77346e-07 0)
(4.33749e-09 -4.78076e-07 0)
(4.31367e-09 -4.78804e-07 0)
(4.28979e-09 -4.79529e-07 0)
(4.26585e-09 -4.80253e-07 0)
(4.24186e-09 -4.80974e-07 0)
(4.21781e-09 -4.81692e-07 0)
(4.1937e-09 -4.82408e-07 0)
(4.16953e-09 -4.83122e-07 0)
(4.14531e-09 -4.83833e-07 0)
(4.12104e-09 -4.84542e-07 0)
(4.09671e-09 -4.85248e-07 0)
(4.07232e-09 -4.85952e-07 0)
(4.04788e-09 -4.86653e-07 0)
(4.02339e-09 -4.87352e-07 0)
(3.99884e-09 -4.88048e-07 0)
(3.97423e-09 -4.88741e-07 0)
(3.94958e-09 -4.89432e-07 0)
(3.92487e-09 -4.9012e-07 0)
(3.90011e-09 -4.90805e-07 0)
(3.8753e-09 -4.91488e-07 0)
(3.85043e-09 -4.92168e-07 0)
(3.82552e-09 -4.92845e-07 0)
(3.80055e-09 -4.93519e-07 0)
(3.77554e-09 -4.9419e-07 0)
(3.75047e-09 -4.94859e-07 0)
(3.72535e-09 -4.95524e-07 0)
(3.70019e-09 -4.96187e-07 0)
(3.67497e-09 -4.96847e-07 0)
(3.64971e-09 -4.97503e-07 0)
(3.6244e-09 -4.98157e-07 0)
(3.59904e-09 -4.98808e-07 0)
(3.57363e-09 -4.99456e-07 0)
(3.54818e-09 -5.001e-07 0)
(3.52268e-09 -5.00742e-07 0)
(3.49714e-09 -5.0138e-07 0)
(3.47155e-09 -5.02015e-07 0)
(3.44591e-09 -5.02647e-07 0)
(3.42024e-09 -5.03276e-07 0)
(3.39451e-09 -5.03901e-07 0)
(3.36875e-09 -5.04524e-07 0)
(3.34294e-09 -5.05143e-07 0)
(3.31709e-09 -5.05758e-07 0)
(3.2912e-09 -5.06371e-07 0)
(3.26526e-09 -5.0698e-07 0)
(3.23929e-09 -5.07585e-07 0)
(3.21327e-09 -5.08187e-07 0)
(3.18722e-09 -5.08786e-07 0)
(3.16113e-09 -5.09381e-07 0)
(3.135e-09 -5.09973e-07 0)
(3.10883e-09 -5.10561e-07 0)
(3.08262e-09 -5.11146e-07 0)
(3.05637e-09 -5.11727e-07 0)
(3.03009e-09 -5.12304e-07 0)
(3.00378e-09 -5.12878e-07 0)
(2.97743e-09 -5.13448e-07 0)
(2.95104e-09 -5.14014e-07 0)
(2.92462e-09 -5.14577e-07 0)
(2.89817e-09 -5.15136e-07 0)
(2.87168e-09 -5.15691e-07 0)
(2.84516e-09 -5.16242e-07 0)
(2.81862e-09 -5.1679e-07 0)
(2.79204e-09 -5.17333e-07 0)
(2.76543e-09 -5.17873e-07 0)
(2.73879e-09 -5.18409e-07 0)
(2.71212e-09 -5.18941e-07 0)
(2.68542e-09 -5.19468e-07 0)
(2.6587e-09 -5.19992e-07 0)
(2.63194e-09 -5.20512e-07 0)
(2.60517e-09 -5.21028e-07 0)
(2.57836e-09 -5.2154e-07 0)
(2.55154e-09 -5.22047e-07 0)
(2.52468e-09 -5.22551e-07 0)
(2.49781e-09 -5.2305e-07 0)
(2.47091e-09 -5.23545e-07 0)
(2.44399e-09 -5.24036e-07 0)
(2.41705e-09 -5.24523e-07 0)
(2.39009e-09 -5.25005e-07 0)
(2.36311e-09 -5.25483e-07 0)
(2.3361e-09 -5.25957e-07 0)
(2.30908e-09 -5.26427e-07 0)
(2.28205e-09 -5.26892e-07 0)
(2.25499e-09 -5.27353e-07 0)
(2.22792e-09 -5.27809e-07 0)
(2.20084e-09 -5.28261e-07 0)
(2.17374e-09 -5.28708e-07 0)
(2.14663e-09 -5.29151e-07 0)
(2.1195e-09 -5.29589e-07 0)
(2.09236e-09 -5.30023e-07 0)
(2.06521e-09 -5.30452e-07 0)
(2.03806e-09 -5.30877e-07 0)
(2.01084e-09 -5.31295e-07 0)
(1.98387e-09 -5.31717e-07 0)
(1.95578e-09 -5.32108e-07 0)
(1.93242e-09 -5.32611e-07 0)
(1.88897e-09 -5.32878e-07 0)
(1.83955e-09 -5.33166e-07 0)
(1.81351e-09 -5.33712e-07 0)
(1.79111e-09 -5.34036e-07 0)
(1.7694e-09 -5.34319e-07 0)
(1.74765e-09 -5.34647e-07 0)
(1.7257e-09 -5.34999e-07 0)
(1.70351e-09 -5.35347e-07 0)
(1.68107e-09 -5.35685e-07 0)
(1.65838e-09 -5.3602e-07 0)
(1.63543e-09 -5.36356e-07 0)
(1.61224e-09 -5.36693e-07 0)
(1.58878e-09 -5.37028e-07 0)
(1.56508e-09 -5.37361e-07 0)
(1.54112e-09 -5.37693e-07 0)
(1.51691e-09 -5.38023e-07 0)
(1.49245e-09 -5.38351e-07 0)
(1.46773e-09 -5.38678e-07 0)
(1.44276e-09 -5.39002e-07 0)
(1.41753e-09 -5.39324e-07 0)
(1.39206e-09 -5.39645e-07 0)
(1.36633e-09 -5.39962e-07 0)
(1.34035e-09 -5.40277e-07 0)
(1.31411e-09 -5.4059e-07 0)
(1.28763e-09 -5.40899e-07 0)
(1.26089e-09 -5.41205e-07 0)
(1.23391e-09 -5.41509e-07 0)
(1.20667e-09 -5.41809e-07 0)
(1.17919e-09 -5.42105e-07 0)
(1.15146e-09 -5.42397e-07 0)
(1.12348e-09 -5.42686e-07 0)
(1.09526e-09 -5.4297e-07 0)
(1.06679e-09 -5.43251e-07 0)
(1.03808e-09 -5.43527e-07 0)
(1.00912e-09 -5.43798e-07 0)
(9.79929e-10 -5.44064e-07 0)
(9.50495e-10 -5.44325e-07 0)
(9.20824e-10 -5.44581e-07 0)
(8.90917e-10 -5.44832e-07 0)
(8.60776e-10 -5.45076e-07 0)
(8.30403e-10 -5.45315e-07 0)
(7.99799e-10 -5.45548e-07 0)
(7.68967e-10 -5.45774e-07 0)
(7.3791e-10 -5.45994e-07 0)
(7.06629e-10 -5.46207e-07 0)
(6.75127e-10 -5.46413e-07 0)
(6.43407e-10 -5.46611e-07 0)
(6.11471e-10 -5.46802e-07 0)
(5.79323e-10 -5.46986e-07 0)
(5.46965e-10 -5.47161e-07 0)
(5.14401e-10 -5.47327e-07 0)
(4.81634e-10 -5.47485e-07 0)
(4.48667e-10 -5.47635e-07 0)
(4.15504e-10 -5.47775e-07 0)
(3.82149e-10 -5.47905e-07 0)
(3.48606e-10 -5.48026e-07 0)
(3.14879e-10 -5.48137e-07 0)
(2.80972e-10 -5.48237e-07 0)
(2.4689e-10 -5.48327e-07 0)
(2.12637e-10 -5.48406e-07 0)
(1.78218e-10 -5.48474e-07 0)
(1.43639e-10 -5.4853e-07 0)
(1.08903e-10 -5.48575e-07 0)
(7.40167e-11 -5.48607e-07 0)
(3.89855e-11 -5.48627e-07 0)
(3.81513e-12 -5.48634e-07 0)
(-3.14886e-11 -5.48628e-07 0)
(-6.69196e-11 -5.48608e-07 0)
(-1.02471e-10 -5.48575e-07 0)
(-1.38138e-10 -5.48527e-07 0)
(-1.73912e-10 -5.48465e-07 0)
(-2.09787e-10 -5.48388e-07 0)
(-2.45755e-10 -5.48295e-07 0)
(-2.8181e-10 -5.48187e-07 0)
(-3.17944e-10 -5.48064e-07 0)
(-3.54149e-10 -5.47924e-07 0)
(-3.90416e-10 -5.47767e-07 0)
(-4.26739e-10 -5.47593e-07 0)
(-4.63108e-10 -5.47402e-07 0)
(-4.99515e-10 -5.47193e-07 0)
(-5.35951e-10 -5.46965e-07 0)
(-5.72406e-10 -5.4672e-07 0)
(-6.08872e-10 -5.46455e-07 0)
(-6.45339e-10 -5.46171e-07 0)
(-6.81798e-10 -5.45867e-07 0)
(-7.18237e-10 -5.45543e-07 0)
(-7.54648e-10 -5.45199e-07 0)
(-7.91019e-10 -5.44834e-07 0)
(-8.27341e-10 -5.44448e-07 0)
(-8.63601e-10 -5.44039e-07 0)
(-8.99789e-10 -5.43609e-07 0)
(-9.35894e-10 -5.43157e-07 0)
(-9.71904e-10 -5.42681e-07 0)
(-1.00781e-09 -5.42183e-07 0)
(-1.04359e-09 -5.4166e-07 0)
(-1.07925e-09 -5.41114e-07 0)
(-1.11476e-09 -5.40543e-07 0)
(-1.15012e-09 -5.39948e-07 0)
(-1.1853e-09 -5.39327e-07 0)
(-1.22031e-09 -5.38681e-07 0)
(-1.25512e-09 -5.38009e-07 0)
(-1.28973e-09 -5.3731e-07 0)
(-1.32411e-09 -5.36585e-07 0)
(-1.35826e-09 -5.35833e-07 0)
(-1.39216e-09 -5.35053e-07 0)
(-1.4258e-09 -5.34246e-07 0)
(-1.45916e-09 -5.3341e-07 0)
(-1.49223e-09 -5.32546e-07 0)
(-1.525e-09 -5.31653e-07 0)
(-1.55745e-09 -5.30731e-07 0)
(-1.58956e-09 -5.29779e-07 0)
(-1.62133e-09 -5.28798e-07 0)
(-1.65273e-09 -5.27787e-07 0)
(-1.68375e-09 -5.26745e-07 0)
(-1.71439e-09 -5.25672e-07 0)
(-1.74461e-09 -5.24568e-07 0)
(-1.77442e-09 -5.23433e-07 0)
(-1.80378e-09 -5.22266e-07 0)
(-1.8327e-09 -5.21068e-07 0)
(-1.86114e-09 -5.19837e-07 0)
(-1.88911e-09 -5.18574e-07 0)
(-1.91658e-09 -5.17279e-07 0)
(-1.94354e-09 -5.1595e-07 0)
(-1.96997e-09 -5.14589e-07 0)
(-1.99586e-09 -5.13195e-07 0)
(-2.0212e-09 -5.11767e-07 0)
(-2.04597e-09 -5.10305e-07 0)
(-2.07016e-09 -5.08811e-07 0)
(-2.09375e-09 -5.07282e-07 0)
(-2.11673e-09 -5.0572e-07 0)
(-2.13908e-09 -5.04123e-07 0)
(-2.1608e-09 -5.02493e-07 0)
(-2.18187e-09 -5.00828e-07 0)
(-2.20228e-09 -4.99129e-07 0)
(-2.222e-09 -4.97397e-07 0)
(-2.24105e-09 -4.9563e-07 0)
(-2.25939e-09 -4.93829e-07 0)
(-2.27702e-09 -4.91993e-07 0)
(-2.29393e-09 -4.90124e-07 0)
(-2.3101e-09 -4.88221e-07 0)
(-2.32554e-09 -4.86284e-07 0)
(-2.34022e-09 -4.84313e-07 0)
(-2.35413e-09 -4.82309e-07 0)
(-2.36728e-09 -4.80271e-07 0)
(-2.37964e-09 -4.782e-07 0)
(-2.39122e-09 -4.76096e-07 0)
(-2.402e-09 -4.73959e-07 0)
(-2.41197e-09 -4.7179e-07 0)
(-2.42114e-09 -4.69588e-07 0)
(-2.42949e-09 -4.67355e-07 0)
(-2.43702e-09 -4.65089e-07 0)
(-2.44373e-09 -4.62793e-07 0)
(-2.44961e-09 -4.60465e-07 0)
(-2.45465e-09 -4.58107e-07 0)
(-2.45886e-09 -4.55719e-07 0)
(-2.46223e-09 -4.53302e-07 0)
(-2.46476e-09 -4.50855e-07 0)
(-2.46645e-09 -4.48379e-07 0)
(-2.4673e-09 -4.45876e-07 0)
(-2.46732e-09 -4.43344e-07 0)
(-2.46649e-09 -4.40786e-07 0)
(-2.46483e-09 -4.38201e-07 0)
(-2.46234e-09 -4.3559e-07 0)
(-2.45901e-09 -4.32955e-07 0)
(-2.45487e-09 -4.30294e-07 0)
(-2.4499e-09 -4.2761e-07 0)
(-2.44411e-09 -4.24902e-07 0)
(-2.43752e-09 -4.22172e-07 0)
(-2.43012e-09 -4.1942e-07 0)
(-2.42193e-09 -4.16648e-07 0)
(-2.41295e-09 -4.13855e-07 0)
(-2.4032e-09 -4.11043e-07 0)
(-2.39268e-09 -4.08212e-07 0)
(-2.3814e-09 -4.05363e-07 0)
(-2.36937e-09 -4.02498e-07 0)
(-2.3566e-09 -3.99617e-07 0)
(-2.34312e-09 -3.96719e-07 0)
(-2.32891e-09 -3.93811e-07 0)
(-2.31405e-09 -3.90879e-07 0)
(-2.29829e-09 -3.87964e-07 0)
(-2.28279e-09 -3.84908e-07 0)
(-2.26266e-09 -3.82078e-07 0)
(-2.23749e-09 -3.78879e-07 0)
(-2.21371e-09 -3.75085e-07 0)
(-2.19086e-09 -3.71545e-07 0)
(-2.16784e-09 -3.68069e-07 0)
(-2.14444e-09 -3.64589e-07 0)
(-2.12063e-09 -3.61127e-07 0)
(-2.09641e-09 -3.57709e-07 0)
(-2.07185e-09 -3.54339e-07 0)
(-2.04696e-09 -3.5101e-07 0)
(-2.02181e-09 -3.47719e-07 0)
(-1.99641e-09 -3.44468e-07 0)
(-1.97081e-09 -3.41259e-07 0)
(-1.94502e-09 -3.38092e-07 0)
(-1.9191e-09 -3.34967e-07 0)
(-1.89305e-09 -3.31883e-07 0)
(-1.86691e-09 -3.28842e-07 0)
(-1.84069e-09 -3.25844e-07 0)
(-1.81443e-09 -3.22887e-07 0)
(-1.78814e-09 -3.19974e-07 0)
(-1.76184e-09 -3.17103e-07 0)
(-1.73555e-09 -3.14274e-07 0)
(-1.70928e-09 -3.11488e-07 0)
(-1.68305e-09 -3.08744e-07 0)
(-1.65686e-09 -3.06043e-07 0)
(-1.63074e-09 -3.03384e-07 0)
(-1.6047e-09 -3.00768e-07 0)
(-1.57873e-09 -2.98193e-07 0)
(-1.55286e-09 -2.9566e-07 0)
(-1.52709e-09 -2.9317e-07 0)
(-1.50143e-09 -2.9072e-07 0)
(-1.47587e-09 -2.88313e-07 0)
(-1.45044e-09 -2.85946e-07 0)
(-1.42513e-09 -2.8362e-07 0)
(-1.39994e-09 -2.81336e-07 0)
(-1.37488e-09 -2.79092e-07 0)
(-1.34995e-09 -2.76888e-07 0)
(-1.32515e-09 -2.74725e-07 0)
(-1.30049e-09 -2.72601e-07 0)
(-1.27596e-09 -2.70518e-07 0)
(-1.25157e-09 -2.68474e-07 0)
(-1.22731e-09 -2.66469e-07 0)
(-1.20319e-09 -2.64504e-07 0)
(-1.17919e-09 -2.62577e-07 0)
(-1.15533e-09 -2.60689e-07 0)
(-1.1316e-09 -2.5884e-07 0)
(-1.108e-09 -2.57029e-07 0)
(-1.08452e-09 -2.55255e-07 0)
(-1.06117e-09 -2.5352e-07 0)
(-1.03794e-09 -2.51823e-07 0)
(-1.01482e-09 -2.50163e-07 0)
(-9.91823e-10 -2.4854e-07 0)
(-9.68934e-10 -2.46954e-07 0)
(-9.46153e-10 -2.45406e-07 0)
(-9.23477e-10 -2.43894e-07 0)
(-9.00902e-10 -2.42418e-07 0)
(-8.78425e-10 -2.40979e-07 0)
(-8.56042e-10 -2.39577e-07 0)
(-8.33749e-10 -2.3821e-07 0)
(-8.11543e-10 -2.3688e-07 0)
(-7.89419e-10 -2.35585e-07 0)
(-7.67375e-10 -2.34326e-07 0)
(-7.45405e-10 -2.33102e-07 0)
(-7.23507e-10 -2.31914e-07 0)
(-7.01677e-10 -2.30762e-07 0)
(-6.79911e-10 -2.29645e-07 0)
(-6.58206e-10 -2.28562e-07 0)
(-6.36558e-10 -2.27515e-07 0)
(-6.14963e-10 -2.26503e-07 0)
(-5.93419e-10 -2.25526e-07 0)
(-5.71923e-10 -2.24584e-07 0)
(-5.5047e-10 -2.23676e-07 0)
(-5.29059e-10 -2.22803e-07 0)
(-5.07687e-10 -2.21964e-07 0)
(-4.8635e-10 -2.2116e-07 0)
(-4.65047e-10 -2.20391e-07 0)
(-4.43775e-10 -2.19656e-07 0)
(-4.22533e-10 -2.18955e-07 0)
(-4.01318e-10 -2.18289e-07 0)
(-3.8013e-10 -2.17657e-07 0)
(-3.58966e-10 -2.1706e-07 0)
(-3.37828e-10 -2.16496e-07 0)
(-3.16712e-10 -2.15967e-07 0)
(-2.9562e-10 -2.15472e-07 0)
(-2.7455e-10 -2.15011e-07 0)
(-2.53499e-10 -2.14583e-07 0)
(-2.32464e-10 -2.14192e-07 0)
(-2.11436e-10 -2.13828e-07 0)
(-1.9041e-10 -2.13518e-07 0)
(-1.69344e-10 -2.13177e-07 0)
(-1.48325e-10 -2.13081e-07 0)
(-1.26953e-10 -2.12307e-07 0)
(-1.06745e-10 -2.13841e-07 0)
(-8.20554e-11 -2.07296e-07 0)
(-7.55214e-11 -2.24189e-07 0)
(-4.21896e-11 -1.9571e-07 0)
)
;
    }
    bottomWall
    {
        type            calculated;
        value           nonuniform List<vector> 
449
(
(-48.7617 -0.967299 0)
(-19.8389 -0.00517977 0)
(-14.4111 -0.00113851 0)
(-12.0968 -0.000545807 0)
(-10.6939 -0.000349754 0)
(-9.70998 -0.00025247 0)
(-8.96784 -0.000193359 0)
(-8.38557 -0.000153343 0)
(-7.91561 -0.000124818 0)
(-7.52752 -0.000103752 0)
(-7.20106 -8.77065e-05 0)
(-6.92231 -7.51676e-05 0)
(-6.68133 -6.5172e-05 0)
(-6.47077 -5.70725e-05 0)
(-6.2851 -5.0414e-05 0)
(-6.12004 -4.48686e-05 0)
(-5.97228 -4.01975e-05 0)
(-5.8392 -3.62236e-05 0)
(-5.71866 -3.28132e-05 0)
(-5.60896 -2.98636e-05 0)
(-5.50868 -2.72946e-05 0)
(-5.41663 -2.50428e-05 0)
(-5.33183 -2.30576e-05 0)
(-5.25345 -2.12983e-05 0)
(-5.18077 -1.97315e-05 0)
(-5.11319 -1.83299e-05 0)
(-5.0502 -1.70711e-05 0)
(-4.99132 -1.5936e-05 0)
(-4.93618 -1.49089e-05 0)
(-4.88442 -1.39766e-05 0)
(-4.83574 -1.31275e-05 0)
(-4.78987 -1.23521e-05 0)
(-4.74658 -1.1642e-05 0)
(-4.70565 -1.099e-05 0)
(-4.6669 -1.03901e-05 0)
(-4.63016 -9.83674e-06 0)
(-4.59527 -9.32526e-06 0)
(-4.5621 -8.85152e-06 0)
(-4.53053 -8.41191e-06 0)
(-4.50044 -8.00323e-06 0)
(-4.47173 -7.62264e-06 0)
(-4.44431 -7.26763e-06 0)
(-4.41809 -6.93597e-06 0)
(-4.39301 -6.62565e-06 0)
(-4.36898 -6.33489e-06 0)
(-4.34594 -6.06208e-06 0)
(-4.32384 -5.80579e-06 0)
(-4.30262 -5.56471e-06 0)
(-4.28222 -5.33768e-06 0)
(-4.26261 -5.12362e-06 0)
(-4.24373 -4.92157e-06 0)
(-4.22555 -4.73066e-06 0)
(-4.20803 -4.55009e-06 0)
(-4.19114 -4.37913e-06 0)
(-4.17484 -4.21713e-06 0)
(-4.1591 -4.06346e-06 0)
(-4.1439 -3.91758e-06 0)
(-4.1292 -3.77897e-06 0)
(-4.11499 -3.64717e-06 0)
(-4.10125 -3.52173e-06 0)
(-4.08794 -3.40227e-06 0)
(-4.07505 -3.28841e-06 0)
(-4.06256 -3.17982e-06 0)
(-4.05045 -3.07617e-06 0)
(-4.03871 -2.97718e-06 0)
(-4.02732 -2.88258e-06 0)
(-4.01626 -2.79211e-06 0)
(-4.00553 -2.70554e-06 0)
(-3.9951 -2.62266e-06 0)
(-3.98497 -2.54326e-06 0)
(-3.97512 -2.46716e-06 0)
(-3.96554 -2.39417e-06 0)
(-3.95622 -2.32413e-06 0)
(-3.94715 -2.2569e-06 0)
(-3.93832 -2.19232e-06 0)
(-3.92973 -2.13025e-06 0)
(-3.92136 -2.07059e-06 0)
(-3.9132 -2.01319e-06 0)
(-3.90525 -1.95796e-06 0)
(-3.8975 -1.90479e-06 0)
(-3.88994 -1.85358e-06 0)
(-3.88257 -1.80423e-06 0)
(-3.87537 -1.75667e-06 0)
(-3.86835 -1.7108e-06 0)
(-3.8615 -1.66656e-06 0)
(-3.85481 -1.62386e-06 0)
(-3.84827 -1.58263e-06 0)
(-3.84188 -1.54282e-06 0)
(-3.83564 -1.50436e-06 0)
(-3.82954 -1.46719e-06 0)
(-3.82358 -1.43126e-06 0)
(-3.81775 -1.39651e-06 0)
(-3.81205 -1.36289e-06 0)
(-3.80647 -1.33036e-06 0)
(-3.80101 -1.29888e-06 0)
(-3.79567 -1.26839e-06 0)
(-3.79044 -1.23886e-06 0)
(-3.78532 -1.21025e-06 0)
(-3.78031 -1.18252e-06 0)
(-3.7754 -1.15565e-06 0)
(-3.77059 -1.12959e-06 0)
(-3.76588 -1.10431e-06 0)
(-3.76126 -1.07979e-06 0)
(-3.75674 -1.05599e-06 0)
(-3.7523 -1.0329e-06 0)
(-3.74795 -1.01047e-06 0)
(-3.74368 -9.88695e-07 0)
(-3.7395 -9.67542e-07 0)
(-3.7354 -9.4699e-07 0)
(-3.73137 -9.27018e-07 0)
(-3.72742 -9.07605e-07 0)
(-3.72355 -8.88731e-07 0)
(-3.71974 -8.70377e-07 0)
(-3.71601 -8.52525e-07 0)
(-3.71234 -8.35158e-07 0)
(-3.70874 -8.18259e-07 0)
(-3.7052 -8.01812e-07 0)
(-3.70173 -7.85802e-07 0)
(-3.69832 -7.70214e-07 0)
(-3.69497 -7.55035e-07 0)
(-3.69167 -7.4025e-07 0)
(-3.68844 -7.25846e-07 0)
(-3.68525 -7.11812e-07 0)
(-3.68213 -6.98136e-07 0)
(-3.67905 -6.84805e-07 0)
(-3.67603 -6.71809e-07 0)
(-3.67306 -6.59138e-07 0)
(-3.67014 -6.4678e-07 0)
(-3.66726 -6.34728e-07 0)
(-3.66443 -6.2297e-07 0)
(-3.66165 -6.11498e-07 0)
(-3.65891 -6.00303e-07 0)
(-3.65622 -5.89377e-07 0)
(-3.65357 -5.78712e-07 0)
(-3.65096 -5.68299e-07 0)
(-3.64839 -5.58132e-07 0)
(-3.64587 -5.48203e-07 0)
(-3.64338 -5.38504e-07 0)
(-3.64093 -5.29031e-07 0)
(-3.63851 -5.19775e-07 0)
(-3.63614 -5.1073e-07 0)
(-3.6338 -5.01891e-07 0)
(-3.63149 -4.93252e-07 0)
(-3.62922 -4.84806e-07 0)
(-3.62698 -4.76549e-07 0)
(-3.62478 -4.68475e-07 0)
(-3.62261 -4.60579e-07 0)
(-3.62047 -4.52856e-07 0)
(-3.61836 -4.45301e-07 0)
(-3.61628 -4.37909e-07 0)
(-3.61423 -4.30676e-07 0)
(-3.61221 -4.23597e-07 0)
(-3.61022 -4.16668e-07 0)
(-3.60825 -4.09884e-07 0)
(-3.60632 -4.03242e-07 0)
(-3.60441 -3.96736e-07 0)
(-3.60253 -3.90363e-07 0)
(-3.60067 -3.84118e-07 0)
(-3.59884 -3.77997e-07 0)
(-3.59703 -3.71994e-07 0)
(-3.59525 -3.66103e-07 0)
(-3.59349 -3.60318e-07 0)
(-3.59176 -3.54632e-07 0)
(-3.59005 -3.49034e-07 0)
(-3.58836 -3.4351e-07 0)
(-3.58669 -3.3804e-07 0)
(-3.58505 -3.32598e-07 0)
(-3.58343 -3.27137e-07 0)
(-3.58184 -3.21459e-07 0)
(-3.58027 -3.1623e-07 0)
(-3.57872 -3.07792e-07 0)
(-3.57722 -3.03803e-07 0)
(-3.5757 -3.08204e-07 0)
(-3.57425 -3.04781e-07 0)
(-3.57292 -2.87202e-07 0)
(-3.57168 -2.71972e-07 0)
(-3.57047 -2.66761e-07 0)
(-3.56925 -2.64007e-07 0)
(-3.56803 -2.62466e-07 0)
(-3.56681 -2.61509e-07 0)
(-3.56557 -2.60802e-07 0)
(-3.56432 -2.60131e-07 0)
(-3.56306 -2.59384e-07 0)
(-3.56179 -2.58509e-07 0)
(-3.56051 -2.5749e-07 0)
(-3.55923 -2.56327e-07 0)
(-3.55793 -2.55027e-07 0)
(-3.55663 -2.53599e-07 0)
(-3.55532 -2.52055e-07 0)
(-3.554 -2.50404e-07 0)
(-3.55268 -2.48657e-07 0)
(-3.55135 -2.46822e-07 0)
(-3.55002 -2.44909e-07 0)
(-3.54869 -2.42925e-07 0)
(-3.54735 -2.40877e-07 0)
(-3.54601 -2.38771e-07 0)
(-3.54466 -2.36612e-07 0)
(-3.54332 -2.34408e-07 0)
(-3.54197 -2.32161e-07 0)
(-3.54062 -2.29877e-07 0)
(-3.53927 -2.2756e-07 0)
(-3.53791 -2.25213e-07 0)
(-3.53656 -2.22841e-07 0)
(-3.53521 -2.20445e-07 0)
(-3.53386 -2.18031e-07 0)
(-3.5325 -2.15599e-07 0)
(-3.53115 -2.13153e-07 0)
(-3.5298 -2.10695e-07 0)
(-3.52845 -2.08228e-07 0)
(-3.5271 -2.05754e-07 0)
(-3.52576 -2.03274e-07 0)
(-3.52441 -2.00791e-07 0)
(-3.52307 -1.98306e-07 0)
(-3.52173 -1.95822e-07 0)
(-3.52039 -1.93338e-07 0)
(-3.51906 -1.90858e-07 0)
(-3.51772 -1.88382e-07 0)
(-3.51639 -1.85912e-07 0)
(-3.51507 -1.83449e-07 0)
(-3.51375 -1.80993e-07 0)
(-3.51243 -1.78547e-07 0)
(-3.51111 -1.76111e-07 0)
(-3.5098 -1.73686e-07 0)
(-3.50849 -1.71272e-07 0)
(-3.50719 -1.68872e-07 0)
(-3.50589 -1.66485e-07 0)
(-3.5046 -1.64112e-07 0)
(-3.50331 -1.61754e-07 0)
(-3.50203 -1.59412e-07 0)
(-3.50075 -1.57086e-07 0)
(-3.49947 -1.54777e-07 0)
(-3.4982 -1.52485e-07 0)
(-3.49694 -1.5021e-07 0)
(-3.49568 -1.47955e-07 0)
(-3.49443 -1.45717e-07 0)
(-3.49318 -1.43499e-07 0)
(-3.49194 -1.413e-07 0)
(-3.4907 -1.39121e-07 0)
(-3.48947 -1.36962e-07 0)
(-3.48825 -1.34823e-07 0)
(-3.48703 -1.32705e-07 0)
(-3.48582 -1.30608e-07 0)
(-3.48462 -1.28532e-07 0)
(-3.48342 -1.26477e-07 0)
(-3.48223 -1.24444e-07 0)
(-3.48104 -1.22432e-07 0)
(-3.47986 -1.20442e-07 0)
(-3.47869 -1.18474e-07 0)
(-3.47752 -1.16528e-07 0)
(-3.47636 -1.14604e-07 0)
(-3.47521 -1.12702e-07 0)
(-3.47407 -1.10822e-07 0)
(-3.47293 -1.08964e-07 0)
(-3.4718 -1.07129e-07 0)
(-3.47067 -1.05316e-07 0)
(-3.46956 -1.03525e-07 0)
(-3.46845 -1.01757e-07 0)
(-3.46734 -1.00011e-07 0)
(-3.46625 -9.82866e-08 0)
(-3.46516 -9.65848e-08 0)
(-3.46408 -9.49051e-08 0)
(-3.46301 -9.32475e-08 0)
(-3.46194 -9.16119e-08 0)
(-3.46088 -8.99982e-08 0)
(-3.45983 -8.84064e-08 0)
(-3.45879 -8.68363e-08 0)
(-3.45775 -8.52879e-08 0)
(-3.45672 -8.3761e-08 0)
(-3.4557 -8.22555e-08 0)
(-3.45469 -8.07713e-08 0)
(-3.45368 -7.93083e-08 0)
(-3.45268 -7.78664e-08 0)
(-3.45169 -7.64453e-08 0)
(-3.45071 -7.50451e-08 0)
(-3.44973 -7.36654e-08 0)
(-3.44876 -7.23063e-08 0)
(-3.4478 -7.09674e-08 0)
(-3.44685 -6.96487e-08 0)
(-3.44591 -6.835e-08 0)
(-3.44497 -6.70712e-08 0)
(-3.44404 -6.58119e-08 0)
(-3.44312 -6.45722e-08 0)
(-3.4422 -6.33518e-08 0)
(-3.44129 -6.21504e-08 0)
(-3.44039 -6.09681e-08 0)
(-3.4395 -5.98045e-08 0)
(-3.43862 -5.86595e-08 0)
(-3.43774 -5.75328e-08 0)
(-3.43687 -5.64244e-08 0)
(-3.43601 -5.5334e-08 0)
(-3.43516 -5.42614e-08 0)
(-3.43431 -5.32064e-08 0)
(-3.43347 -5.21689e-08 0)
(-3.43264 -5.11486e-08 0)
(-3.43182 -5.01453e-08 0)
(-3.431 -4.91589e-08 0)
(-3.43019 -4.81891e-08 0)
(-3.42939 -4.72358e-08 0)
(-3.4286 -4.62987e-08 0)
(-3.42781 -4.53777e-08 0)
(-3.42703 -4.44725e-08 0)
(-3.42626 -4.3583e-08 0)
(-3.42549 -4.27089e-08 0)
(-3.42473 -4.18501e-08 0)
(-3.42398 -4.10064e-08 0)
(-3.42324 -4.01775e-08 0)
(-3.42251 -3.93633e-08 0)
(-3.42178 -3.85636e-08 0)
(-3.42105 -3.77781e-08 0)
(-3.42034 -3.70067e-08 0)
(-3.41963 -3.62493e-08 0)
(-3.41893 -3.55055e-08 0)
(-3.41824 -3.47752e-08 0)
(-3.41755 -3.40582e-08 0)
(-3.41687 -3.33544e-08 0)
(-3.4162 -3.26634e-08 0)
(-3.41553 -3.19853e-08 0)
(-3.41487 -3.13196e-08 0)
(-3.41422 -3.06664e-08 0)
(-3.41358 -3.00253e-08 0)
(-3.41294 -2.93963e-08 0)
(-3.4123 -2.87791e-08 0)
(-3.41168 -2.81735e-08 0)
(-3.41106 -2.75794e-08 0)
(-3.41045 -2.69966e-08 0)
(-3.40984 -2.64249e-08 0)
(-3.40924 -2.58642e-08 0)
(-3.40865 -2.53142e-08 0)
(-3.40806 -2.47748e-08 0)
(-3.40748 -2.42459e-08 0)
(-3.4069 -2.37273e-08 0)
(-3.40634 -2.32187e-08 0)
(-3.40577 -2.27201e-08 0)
(-3.40522 -2.22313e-08 0)
(-3.40467 -2.17522e-08 0)
(-3.40412 -2.12825e-08 0)
(-3.40359 -2.08222e-08 0)
(-3.40306 -2.03711e-08 0)
(-3.40253 -1.99291e-08 0)
(-3.40201 -1.9496e-08 0)
(-3.40149 -1.90718e-08 0)
(-3.40099 -1.86564e-08 0)
(-3.40048 -1.82497e-08 0)
(-3.39999 -1.78517e-08 0)
(-3.3995 -1.74624e-08 0)
(-3.39901 -1.70822e-08 0)
(-3.39853 -1.67114e-08 0)
(-3.39805 -1.63511e-08 0)
(-3.39758 -1.60035e-08 0)
(-3.39712 -1.56739e-08 0)
(-3.39666 -1.53656e-08 0)
(-3.3962 -1.52241e-08 0)
(-3.39574 -1.46082e-08 0)
(-3.39531 -1.61106e-08 0)
(-3.39467 -1.82452e-08 0)
(-3.39397 -1.78214e-08 0)
(-3.3933 -1.66607e-08 0)
(-3.39269 -1.5268e-08 0)
(-3.39213 -1.40853e-08 0)
(-3.39162 -1.31424e-08 0)
(-3.39113 -1.23677e-08 0)
(-3.39067 -1.17027e-08 0)
(-3.39024 -1.11162e-08 0)
(-3.38983 -1.05915e-08 0)
(-3.38944 -1.01171e-08 0)
(-3.38906 -9.68414e-09 0)
(-3.3887 -9.2858e-09 0)
(-3.38835 -8.91713e-09 0)
(-3.38802 -8.57426e-09 0)
(-3.38771 -8.25409e-09 0)
(-3.3874 -7.95406e-09 0)
(-3.3871 -7.67202e-09 0)
(-3.38682 -7.4062e-09 0)
(-3.38654 -7.15509e-09 0)
(-3.38628 -6.91736e-09 0)
(-3.38602 -6.6919e-09 0)
(-3.38577 -6.47771e-09 0)
(-3.38553 -6.27392e-09 0)
(-3.3853 -6.07977e-09 0)
(-3.38507 -5.89456e-09 0)
(-3.38485 -5.71768e-09 0)
(-3.38464 -5.54857e-09 0)
(-3.38443 -5.38674e-09 0)
(-3.38423 -5.23173e-09 0)
(-3.38404 -5.08312e-09 0)
(-3.38385 -4.94055e-09 0)
(-3.38367 -4.80365e-09 0)
(-3.38349 -4.67212e-09 0)
(-3.38332 -4.54566e-09 0)
(-3.38315 -4.424e-09 0)
(-3.38298 -4.30688e-09 0)
(-3.38282 -4.19407e-09 0)
(-3.38267 -4.08536e-09 0)
(-3.38252 -3.98054e-09 0)
(-3.38237 -3.87943e-09 0)
(-3.38222 -3.78184e-09 0)
(-3.38208 -3.68762e-09 0)
(-3.38195 -3.59661e-09 0)
(-3.38181 -3.50866e-09 0)
(-3.38168 -3.42364e-09 0)
(-3.38156 -3.34142e-09 0)
(-3.38143 -3.26187e-09 0)
(-3.38131 -3.18489e-09 0)
(-3.38119 -3.11036e-09 0)
(-3.38108 -3.03819e-09 0)
(-3.38097 -2.96828e-09 0)
(-3.38086 -2.90053e-09 0)
(-3.38075 -2.83486e-09 0)
(-3.38064 -2.77119e-09 0)
(-3.38054 -2.70945e-09 0)
(-3.38044 -2.64955e-09 0)
(-3.38034 -2.59143e-09 0)
(-3.38025 -2.53503e-09 0)
(-3.38015 -2.48027e-09 0)
(-3.38006 -2.42711e-09 0)
(-3.37997 -2.37547e-09 0)
(-3.37988 -2.32532e-09 0)
(-3.3798 -2.2766e-09 0)
(-3.37971 -2.22926e-09 0)
(-3.37963 -2.18325e-09 0)
(-3.37955 -2.13854e-09 0)
(-3.37947 -2.09507e-09 0)
(-3.37939 -2.05282e-09 0)
(-3.37932 -2.01175e-09 0)
(-3.37924 -1.97181e-09 0)
(-3.37917 -1.933e-09 0)
(-3.3791 -1.89526e-09 0)
(-3.37903 -1.85859e-09 0)
(-3.37896 -1.82295e-09 0)
(-3.37889 -1.78834e-09 0)
(-3.37882 -1.75474e-09 0)
(-3.37876 -1.72214e-09 0)
(-3.3787 -1.69056e-09 0)
(-3.37863 -1.66e-09 0)
(-3.37857 -1.63051e-09 0)
(-3.37851 -1.60215e-09 0)
(-3.37845 -1.57501e-09 0)
(-3.37839 -1.54932e-09 0)
(-3.37834 -1.52522e-09 0)
(-3.37828 -1.50366e-09 0)
(-3.37822 -1.4842e-09 0)
(-3.37817 -1.47326e-09 0)
(-3.37811 -1.45811e-09 0)
(-3.37806 -1.51544e-09 0)
(-3.378 -1.37092e-09 0)
(-3.37796 -2.50768e-09 0)
(-3.37781 8.71245e-10 0)
(-3.37803 -5.76742e-10 0)
(-3.37776 -3.88156e-09 0)
)
;
    }
    symmetry
    {
        type            symmetryPlane;
    }
    frontAndBack
    {
        type            empty;
    }
}


// ************************************************************************* //
