/*--------------------------------*- C++ -*----------------------------------*\
| =========                 |                                                 |
| \\      /  F ield         | OpenFOAM: The Open Source CFD Toolbox           |
|  \\    /   O peration     | Version:  v2012                                 |
|   \\  /    A nd           | Website:  www.openfoam.com                      |
|    \\/     M anipulation  |                                                 |
\*---------------------------------------------------------------------------*/
FoamFile
{
    version     2.0;
    format      ascii;
    class       volScalarField;
    location    "7";
    object      yPlus;
}
// * * * * * * * * * * * * * * * * * * * * * * * * * * * * * * * * * * * * * //

dimensions      [0 0 0 0 0 0 0];


internalField   uniform 0;

boundaryField
{
    inlet
    {
        type            calculated;
        value           uniform 0;
    }
    outlet
    {
        type            calculated;
        value           uniform 0;
    }
    topWall
    {
        type            calculated;
        value           nonuniform List<scalar> 
545
(
0.0579975
0.1003
0.128593
0.151072
0.170083
0.1867
0.201523
0.21493
0.22718
0.238457
0.248901
0.258619
0.267698
0.276206
0.284203
0.291736
0.298848
0.305573
0.311942
0.317984
0.323722
0.329178
0.334371
0.339318
0.344035
0.348536
0.352835
0.356942
0.36087
0.364628
0.368226
0.371672
0.374975
0.378141
0.381178
0.384092
0.386889
0.389576
0.392156
0.394636
0.397021
0.399313
0.401519
0.403641
0.405683
0.407649
0.409543
0.411367
0.413124
0.414818
0.41645
0.418024
0.419541
0.421005
0.422417
0.42378
0.425095
0.426364
0.42759
0.428773
0.429915
0.431019
0.432085
0.433115
0.434111
0.435073
0.436002
0.436901
0.43777
0.43861
0.439423
0.440209
0.440958
0.441682
0.442398
0.443107
0.443808
0.444503
0.445191
0.445872
0.446545
0.447213
0.447873
0.448527
0.449174
0.449815
0.450449
0.451077
0.451699
0.452315
0.452924
0.453527
0.454125
0.454716
0.455301
0.455882
0.456398
0.456859
0.457318
0.457777
0.458234
0.458691
0.459147
0.459602
0.460056
0.46051
0.460962
0.461414
0.461865
0.462314
0.462763
0.463211
0.463658
0.464104
0.46455
0.464994
0.465437
0.465879
0.466321
0.466761
0.4672
0.467639
0.468076
0.468512
0.468948
0.469382
0.469815
0.470247
0.470679
0.471109
0.471538
0.471966
0.472393
0.472819
0.473243
0.473667
0.474089
0.474511
0.474931
0.47535
0.475768
0.476185
0.476601
0.477015
0.477428
0.47784
0.478251
0.478661
0.47907
0.479477
0.479883
0.480288
0.480691
0.481094
0.481495
0.481895
0.482293
0.48269
0.483086
0.483481
0.483874
0.484266
0.484657
0.485046
0.485434
0.48582
0.486206
0.48659
0.486972
0.487353
0.487733
0.488111
0.488488
0.488863
0.489237
0.489609
0.48998
0.49035
0.490718
0.491085
0.49145
0.491813
0.492175
0.492536
0.492895
0.493252
0.493608
0.493962
0.494315
0.494666
0.495016
0.495364
0.49571
0.496055
0.496398
0.496739
0.497079
0.497417
0.497754
0.498089
0.498422
0.498753
0.499083
0.499411
0.499737
0.500061
0.500384
0.500705
0.501024
0.501342
0.501657
0.501971
0.502283
0.502594
0.502902
0.503209
0.503513
0.503816
0.504117
0.504416
0.504713
0.505009
0.505302
0.505594
0.505883
0.506171
0.506456
0.50674
0.507022
0.507302
0.507579
0.507855
0.508129
0.508401
0.50867
0.508938
0.509204
0.509467
0.509729
0.509988
0.510245
0.5105
0.510754
0.511005
0.511253
0.5115
0.511745
0.511987
0.512227
0.512465
0.512701
0.512935
0.513166
0.513395
0.513622
0.513847
0.514069
0.51429
0.514508
0.514723
0.514937
0.515148
0.515356
0.515563
0.515767
0.515969
0.516168
0.516365
0.51656
0.516738
0.516905
0.51707
0.517236
0.517401
0.517566
0.51773
0.517894
0.518058
0.518221
0.518383
0.518545
0.518706
0.518867
0.519026
0.519185
0.519342
0.519499
0.519655
0.519809
0.519962
0.520114
0.520265
0.520414
0.520562
0.520708
0.520852
0.520995
0.521136
0.521275
0.521412
0.521547
0.521679
0.52181
0.521938
0.522063
0.522187
0.522307
0.522425
0.522539
0.522651
0.52276
0.522866
0.522968
0.523067
0.523162
0.523254
0.523342
0.523426
0.523506
0.523582
0.523654
0.523721
0.523784
0.523842
0.523896
0.523944
0.523988
0.524026
0.524059
0.524086
0.524108
0.524124
0.524134
0.524137
0.524135
0.524126
0.524111
0.524088
0.524059
0.524023
0.523979
0.523928
0.52387
0.523803
0.523729
0.523646
0.523555
0.523456
0.523348
0.523231
0.523105
0.522969
0.522824
0.52267
0.522505
0.522331
0.522146
0.521951
0.521745
0.521529
0.521301
0.521062
0.520812
0.52055
0.520276
0.51999
0.519691
0.519381
0.519057
0.518721
0.518371
0.518009
0.517632
0.517242
0.516838
0.51642
0.515988
0.515541
0.515079
0.514603
0.514111
0.513604
0.513081
0.512543
0.511989
0.511419
0.510832
0.510229
0.50961
0.508974
0.50832
0.50765
0.506963
0.506258
0.505535
0.504795
0.504037
0.503261
0.502466
0.501654
0.500823
0.499974
0.499106
0.498219
0.497314
0.49639
0.495447
0.494484
0.493503
0.492503
0.491484
0.490445
0.489387
0.48831
0.487213
0.486098
0.484963
0.483809
0.482636
0.481443
0.480232
0.479001
0.477752
0.476484
0.475196
0.473891
0.472566
0.471224
0.469863
0.468484
0.467087
0.465672
0.464239
0.46279
0.461323
0.459839
0.458338
0.456821
0.455288
0.453739
0.452174
0.450595
0.449
0.44739
0.445766
0.444128
0.442477
0.440812
0.439135
0.437444
0.435556
0.433481
0.431419
0.429367
0.427328
0.425302
0.423289
0.421289
0.419305
0.417334
0.41538
0.413441
0.411518
0.409612
0.407722
0.40585
0.403996
0.402159
0.400341
0.398541
0.396759
0.394997
0.393253
0.391529
0.389825
0.38814
0.386476
0.384831
0.383207
0.381603
0.380019
0.378456
0.376914
0.375393
0.373893
0.372414
0.370957
0.36952
0.368105
0.366712
0.36534
0.363991
0.362663
0.361356
0.360072
0.35881
0.357571
0.356353
0.355158
0.353986
0.352836
0.351708
0.350604
0.349522
0.348463
0.347428
0.346415
0.345426
0.34446
0.343517
0.342598
0.341702
0.340831
0.339983
0.339159
0.338359
0.337583
0.336831
0.336104
0.335401
0.334722
0.334068
0.333439
0.332835
0.332256
0.331701
0.331172
0.330667
0.330188
0.329735
0.329307
0.328904
0.328526
0.328175
0.327849
0.327548
0.327274
0.327025
0.326802
0.326605
0.326434
0.32629
0.326169
0.326086
0.325981
)
;
    }
    bottomWall
    {
        type            calculated;
        value           nonuniform List<scalar> 
449
(
0.139782
0.0891583
0.075989
0.0696204
0.0654592
0.0623751
0.059944
0.0579653
0.0563176
0.0549197
0.0537156
0.0526657
0.0517408
0.050919
0.0501832
0.0495198
0.0489184
0.0483703
0.0478684
0.0474071
0.0469814
0.0465872
0.0462211
0.0458801
0.0455616
0.0452635
0.0449838
0.0447208
0.0444731
0.0442393
0.0440183
0.0438091
0.0436106
0.0434222
0.0432431
0.0430725
0.0429099
0.0427548
0.0426065
0.0424648
0.0423292
0.0421992
0.0420745
0.0419549
0.04184
0.0417296
0.0416233
0.0415211
0.0414225
0.0413276
0.0412359
0.0411475
0.0410621
0.0409796
0.0408999
0.0408227
0.040748
0.0406757
0.0406057
0.0405378
0.040472
0.0404081
0.0403461
0.040286
0.0402275
0.0401708
0.0401156
0.0400619
0.0400098
0.039959
0.0399096
0.0398614
0.0398146
0.0397689
0.0397244
0.0396811
0.0396388
0.0395975
0.0395573
0.039518
0.0394797
0.0394422
0.0394057
0.03937
0.0393351
0.039301
0.0392676
0.039235
0.0392032
0.039172
0.0391415
0.0391116
0.0390824
0.0390538
0.0390258
0.0389984
0.0389715
0.0389452
0.0389194
0.0388941
0.0388693
0.038845
0.0388212
0.0387978
0.0387749
0.0387524
0.0387304
0.0387087
0.0386875
0.0386666
0.0386462
0.0386261
0.0386063
0.0385869
0.0385679
0.0385492
0.0385308
0.0385127
0.038495
0.0384775
0.0384604
0.0384435
0.0384269
0.0384106
0.0383946
0.0383788
0.0383633
0.038348
0.038333
0.0383182
0.0383037
0.0382894
0.0382753
0.0382614
0.0382477
0.0382343
0.038221
0.038208
0.0381951
0.0381825
0.03817
0.0381577
0.0381456
0.0381337
0.0381219
0.0381103
0.0380989
0.0380877
0.0380766
0.0380656
0.0380548
0.0380442
0.0380337
0.0380234
0.0380132
0.0380031
0.0379932
0.0379834
0.0379737
0.0379642
0.0379548
0.0379455
0.0379363
0.0379273
0.0379184
0.0379096
0.0379009
0.0378924
0.0378839
0.0378756
0.0378674
0.0378595
0.0378515
0.0378438
0.0378367
0.0378302
0.0378237
0.0378173
0.0378109
0.0378044
0.0377978
0.0377912
0.0377845
0.0377778
0.037771
0.0377642
0.0377573
0.0377504
0.0377434
0.0377364
0.0377294
0.0377224
0.0377153
0.0377082
0.0377011
0.037694
0.0376868
0.0376797
0.0376725
0.0376653
0.0376581
0.0376509
0.0376437
0.0376365
0.0376293
0.0376221
0.0376149
0.0376077
0.0376005
0.0375934
0.0375862
0.037579
0.0375719
0.0375647
0.0375576
0.0375504
0.0375433
0.0375362
0.0375292
0.0375221
0.0375151
0.037508
0.037501
0.0374941
0.0374871
0.0374802
0.0374732
0.0374663
0.0374595
0.0374526
0.0374458
0.037439
0.0374323
0.0374255
0.0374188
0.0374121
0.0374055
0.0373989
0.0373923
0.0373857
0.0373792
0.0373727
0.0373663
0.0373598
0.0373534
0.0373471
0.0373407
0.0373345
0.0373282
0.037322
0.0373158
0.0373096
0.0373035
0.0372975
0.0372914
0.0372854
0.0372795
0.0372735
0.0372676
0.0372618
0.037256
0.0372502
0.0372445
0.0372388
0.0372331
0.0372275
0.0372219
0.0372164
0.0372109
0.0372054
0.0372
0.0371946
0.0371893
0.037184
0.0371787
0.0371735
0.0371684
0.0371632
0.0371581
0.0371531
0.037148
0.0371431
0.0371381
0.0371332
0.0371284
0.0371236
0.0371188
0.0371141
0.0371094
0.0371047
0.0371001
0.0370956
0.037091
0.0370865
0.0370821
0.0370777
0.0370733
0.037069
0.0370647
0.0370604
0.0370562
0.037052
0.0370479
0.0370438
0.0370397
0.0370357
0.0370317
0.0370278
0.0370239
0.03702
0.0370162
0.0370124
0.0370086
0.0370049
0.0370012
0.0369976
0.036994
0.0369904
0.0369869
0.0369834
0.0369799
0.0369765
0.0369731
0.0369698
0.0369664
0.0369632
0.0369599
0.0369567
0.0369535
0.0369504
0.0369472
0.0369442
0.0369411
0.0369381
0.0369351
0.0369322
0.0369292
0.0369264
0.0369235
0.0369207
0.0369179
0.0369151
0.0369124
0.0369097
0.036907
0.0369044
0.0369018
0.0368992
0.0368967
0.0368941
0.0368916
0.0368892
0.0368866
0.0368843
0.0368809
0.036877
0.0368734
0.0368701
0.0368671
0.0368642
0.0368616
0.0368591
0.0368568
0.0368545
0.0368524
0.0368504
0.0368484
0.0368465
0.0368447
0.036843
0.0368413
0.0368397
0.0368382
0.0368367
0.0368352
0.0368338
0.0368325
0.0368312
0.0368299
0.0368287
0.0368275
0.0368263
0.0368252
0.0368241
0.036823
0.036822
0.036821
0.0368201
0.0368191
0.0368182
0.0368173
0.0368164
0.0368156
0.0368148
0.036814
0.0368132
0.0368124
0.0368117
0.0368109
0.0368102
0.0368095
0.0368089
0.0368082
0.0368076
0.0368069
0.0368063
0.0368057
0.0368051
0.0368046
0.036804
0.0368035
0.0368029
0.0368024
0.0368019
0.0368014
0.0368009
0.0368004
0.0368
0.0367995
0.036799
0.0367986
0.0367982
0.0367978
0.0367973
0.0367969
0.0367965
0.0367961
0.0367958
0.0367954
0.036795
0.0367947
0.0367943
0.036794
0.0367936
0.0367933
0.036793
0.0367926
0.0367923
0.036792
0.0367917
0.0367914
0.0367911
0.0367908
0.0367905
0.0367902
0.0367899
0.0367891
0.0367903
0.0367889
)
;
    }
    symmetry
    {
        type            symmetryPlane;
    }
    frontAndBack
    {
        type            empty;
    }
}


// ************************************************************************* //
