/*--------------------------------*- C++ -*----------------------------------*\
| =========                 |                                                 |
| \\      /  F ield         | OpenFOAM: The Open Source CFD Toolbox           |
|  \\    /   O peration     | Version:  v2012                                 |
|   \\  /    A nd           | Website:  www.openfoam.com                      |
|    \\/     M anipulation  |                                                 |
\*---------------------------------------------------------------------------*/
FoamFile
{
    version     2.0;
    format      ascii;
    class       volVectorField;
    location    "45";
    object      wallShearStress;
}
// * * * * * * * * * * * * * * * * * * * * * * * * * * * * * * * * * * * * * //

dimensions      [0 2 -2 0 0 0 0];


internalField   uniform (0 0 0);

boundaryField
{
    inlet
    {
        type            calculated;
        value           uniform (0 0 0);
    }
    outlet
    {
        type            calculated;
        value           uniform (0 0 0);
    }
    topWall
    {
        type            calculated;
        value           nonuniform List<vector> 
545
(
(1.48721e-08 -1.04687e-08 0)
(1.48653e-08 -2.92874e-08 0)
(1.48515e-08 -4.88546e-08 0)
(1.48311e-08 -6.78479e-08 0)
(1.48049e-08 -8.60201e-08 0)
(1.47737e-08 -1.03603e-07 0)
(1.47377e-08 -1.20743e-07 0)
(1.46975e-08 -1.37433e-07 0)
(1.46533e-08 -1.53634e-07 0)
(1.46056e-08 -1.69344e-07 0)
(1.45547e-08 -1.84585e-07 0)
(1.4501e-08 -1.99373e-07 0)
(1.44448e-08 -2.13718e-07 0)
(1.43863e-08 -2.2763e-07 0)
(1.43259e-08 -2.41118e-07 0)
(1.42637e-08 -2.54195e-07 0)
(1.42001e-08 -2.66871e-07 0)
(1.41353e-08 -2.79156e-07 0)
(1.40694e-08 -2.91063e-07 0)
(1.40026e-08 -3.02601e-07 0)
(1.39351e-08 -3.13781e-07 0)
(1.38672e-08 -3.24614e-07 0)
(1.37988e-08 -3.35109e-07 0)
(1.37303e-08 -3.45277e-07 0)
(1.36616e-08 -3.55128e-07 0)
(1.3593e-08 -3.6467e-07 0)
(1.35245e-08 -3.73915e-07 0)
(1.34561e-08 -3.8287e-07 0)
(1.33882e-08 -3.91544e-07 0)
(1.33206e-08 -3.99948e-07 0)
(1.32534e-08 -4.08089e-07 0)
(1.31868e-08 -4.15975e-07 0)
(1.31208e-08 -4.23614e-07 0)
(1.30555e-08 -4.31015e-07 0)
(1.29908e-08 -4.38185e-07 0)
(1.29269e-08 -4.45132e-07 0)
(1.28638e-08 -4.51862e-07 0)
(1.28015e-08 -4.58383e-07 0)
(1.27401e-08 -4.64701e-07 0)
(1.26795e-08 -4.70824e-07 0)
(1.26198e-08 -4.76757e-07 0)
(1.25611e-08 -4.82506e-07 0)
(1.25032e-08 -4.88078e-07 0)
(1.24463e-08 -4.93478e-07 0)
(1.23904e-08 -4.98711e-07 0)
(1.23354e-08 -5.03784e-07 0)
(1.22815e-08 -5.08702e-07 0)
(1.22284e-08 -5.13469e-07 0)
(1.21764e-08 -5.1809e-07 0)
(1.21253e-08 -5.22571e-07 0)
(1.20752e-08 -5.26915e-07 0)
(1.20261e-08 -5.31128e-07 0)
(1.1978e-08 -5.35213e-07 0)
(1.19308e-08 -5.39174e-07 0)
(1.18845e-08 -5.43016e-07 0)
(1.18392e-08 -5.46742e-07 0)
(1.17949e-08 -5.50356e-07 0)
(1.17515e-08 -5.53862e-07 0)
(1.17089e-08 -5.57262e-07 0)
(1.16674e-08 -5.60562e-07 0)
(1.16267e-08 -5.63763e-07 0)
(1.15868e-08 -5.66869e-07 0)
(1.15479e-08 -5.69882e-07 0)
(1.15098e-08 -5.72807e-07 0)
(1.14726e-08 -5.75645e-07 0)
(1.14362e-08 -5.78399e-07 0)
(1.14006e-08 -5.81072e-07 0)
(1.13659e-08 -5.83667e-07 0)
(1.13319e-08 -5.86186e-07 0)
(1.12988e-08 -5.88631e-07 0)
(1.12663e-08 -5.91005e-07 0)
(1.12348e-08 -5.93307e-07 0)
(1.12043e-08 -5.95519e-07 0)
(1.11742e-08 -5.97662e-07 0)
(1.11445e-08 -5.9978e-07 0)
(1.11148e-08 -6.01885e-07 0)
(1.10853e-08 -6.03979e-07 0)
(1.10558e-08 -6.06057e-07 0)
(1.10263e-08 -6.0812e-07 0)
(1.0997e-08 -6.10167e-07 0)
(1.09676e-08 -6.122e-07 0)
(1.09384e-08 -6.14218e-07 0)
(1.09092e-08 -6.16222e-07 0)
(1.088e-08 -6.18211e-07 0)
(1.08509e-08 -6.20186e-07 0)
(1.08219e-08 -6.22146e-07 0)
(1.0793e-08 -6.24092e-07 0)
(1.07641e-08 -6.26024e-07 0)
(1.07352e-08 -6.27942e-07 0)
(1.07065e-08 -6.29847e-07 0)
(1.06778e-08 -6.31737e-07 0)
(1.06492e-08 -6.33614e-07 0)
(1.06206e-08 -6.35477e-07 0)
(1.05922e-08 -6.37326e-07 0)
(1.05635e-08 -6.39166e-07 0)
(1.05363e-08 -6.40972e-07 0)
(1.05112e-08 -6.42625e-07 0)
(1.04869e-08 -6.44121e-07 0)
(1.04635e-08 -6.45576e-07 0)
(1.04402e-08 -6.47036e-07 0)
(1.04168e-08 -6.48509e-07 0)
(1.03934e-08 -6.49983e-07 0)
(1.03699e-08 -6.51455e-07 0)
(1.03463e-08 -6.52926e-07 0)
(1.03226e-08 -6.54397e-07 0)
(1.02988e-08 -6.55868e-07 0)
(1.02749e-08 -6.5734e-07 0)
(1.02509e-08 -6.58812e-07 0)
(1.02268e-08 -6.60283e-07 0)
(1.02026e-08 -6.61755e-07 0)
(1.01784e-08 -6.63227e-07 0)
(1.0154e-08 -6.64698e-07 0)
(1.01296e-08 -6.6617e-07 0)
(1.0105e-08 -6.67641e-07 0)
(1.00804e-08 -6.69112e-07 0)
(1.00556e-08 -6.70584e-07 0)
(1.00308e-08 -6.72055e-07 0)
(1.00059e-08 -6.73525e-07 0)
(9.98086e-09 -6.74996e-07 0)
(9.95575e-09 -6.76466e-07 0)
(9.93054e-09 -6.77937e-07 0)
(9.90524e-09 -6.79406e-07 0)
(9.87984e-09 -6.80876e-07 0)
(9.85435e-09 -6.82345e-07 0)
(9.82877e-09 -6.83814e-07 0)
(9.80309e-09 -6.85283e-07 0)
(9.77732e-09 -6.86751e-07 0)
(9.75145e-09 -6.88218e-07 0)
(9.72549e-09 -6.89686e-07 0)
(9.69943e-09 -6.91152e-07 0)
(9.67327e-09 -6.92619e-07 0)
(9.64703e-09 -6.94084e-07 0)
(9.62068e-09 -6.9555e-07 0)
(9.59425e-09 -6.97014e-07 0)
(9.56771e-09 -6.98478e-07 0)
(9.54109e-09 -6.99942e-07 0)
(9.51436e-09 -7.01405e-07 0)
(9.48755e-09 -7.02867e-07 0)
(9.46063e-09 -7.04328e-07 0)
(9.43363e-09 -7.05789e-07 0)
(9.40652e-09 -7.07249e-07 0)
(9.37933e-09 -7.08708e-07 0)
(9.35204e-09 -7.10167e-07 0)
(9.32465e-09 -7.11624e-07 0)
(9.29717e-09 -7.13081e-07 0)
(9.26959e-09 -7.14537e-07 0)
(9.24192e-09 -7.15992e-07 0)
(9.21416e-09 -7.17446e-07 0)
(9.1863e-09 -7.18899e-07 0)
(9.15834e-09 -7.20351e-07 0)
(9.13029e-09 -7.21802e-07 0)
(9.10215e-09 -7.23252e-07 0)
(9.07391e-09 -7.24701e-07 0)
(9.04558e-09 -7.26149e-07 0)
(9.01715e-09 -7.27595e-07 0)
(8.98863e-09 -7.29041e-07 0)
(8.96002e-09 -7.30485e-07 0)
(8.93131e-09 -7.31928e-07 0)
(8.90251e-09 -7.3337e-07 0)
(8.87361e-09 -7.34811e-07 0)
(8.84462e-09 -7.3625e-07 0)
(8.81554e-09 -7.37688e-07 0)
(8.78636e-09 -7.39124e-07 0)
(8.75709e-09 -7.40559e-07 0)
(8.72773e-09 -7.41993e-07 0)
(8.69827e-09 -7.43426e-07 0)
(8.66872e-09 -7.44856e-07 0)
(8.63908e-09 -7.46286e-07 0)
(8.60935e-09 -7.47713e-07 0)
(8.57952e-09 -7.4914e-07 0)
(8.5496e-09 -7.50564e-07 0)
(8.51959e-09 -7.51987e-07 0)
(8.48949e-09 -7.53408e-07 0)
(8.4593e-09 -7.54828e-07 0)
(8.42901e-09 -7.56246e-07 0)
(8.39863e-09 -7.57662e-07 0)
(8.36817e-09 -7.59076e-07 0)
(8.33761e-09 -7.60489e-07 0)
(8.30696e-09 -7.61899e-07 0)
(8.27622e-09 -7.63308e-07 0)
(8.24539e-09 -7.64715e-07 0)
(8.21447e-09 -7.6612e-07 0)
(8.18346e-09 -7.67522e-07 0)
(8.15236e-09 -7.68923e-07 0)
(8.12117e-09 -7.70322e-07 0)
(8.08989e-09 -7.71719e-07 0)
(8.05853e-09 -7.73113e-07 0)
(8.02707e-09 -7.74506e-07 0)
(7.99553e-09 -7.75896e-07 0)
(7.9639e-09 -7.77284e-07 0)
(7.93218e-09 -7.7867e-07 0)
(7.90037e-09 -7.80053e-07 0)
(7.86848e-09 -7.81434e-07 0)
(7.8365e-09 -7.82813e-07 0)
(7.80443e-09 -7.8419e-07 0)
(7.77228e-09 -7.85564e-07 0)
(7.74004e-09 -7.86935e-07 0)
(7.70772e-09 -7.88304e-07 0)
(7.67531e-09 -7.89671e-07 0)
(7.64282e-09 -7.91035e-07 0)
(7.61024e-09 -7.92396e-07 0)
(7.57758e-09 -7.93755e-07 0)
(7.54484e-09 -7.95111e-07 0)
(7.51201e-09 -7.96464e-07 0)
(7.4791e-09 -7.97815e-07 0)
(7.44611e-09 -7.99163e-07 0)
(7.41303e-09 -8.00508e-07 0)
(7.37988e-09 -8.0185e-07 0)
(7.34664e-09 -8.0319e-07 0)
(7.31332e-09 -8.04526e-07 0)
(7.27992e-09 -8.0586e-07 0)
(7.24644e-09 -8.0719e-07 0)
(7.21288e-09 -8.08518e-07 0)
(7.17925e-09 -8.09842e-07 0)
(7.14553e-09 -8.11164e-07 0)
(7.11174e-09 -8.12482e-07 0)
(7.07787e-09 -8.13797e-07 0)
(7.04392e-09 -8.15109e-07 0)
(7.00989e-09 -8.16418e-07 0)
(6.97579e-09 -8.17723e-07 0)
(6.94162e-09 -8.19025e-07 0)
(6.90736e-09 -8.20324e-07 0)
(6.87304e-09 -8.21619e-07 0)
(6.83864e-09 -8.22911e-07 0)
(6.80417e-09 -8.24199e-07 0)
(6.76962e-09 -8.25484e-07 0)
(6.735e-09 -8.26766e-07 0)
(6.70031e-09 -8.28044e-07 0)
(6.66555e-09 -8.29318e-07 0)
(6.63072e-09 -8.30588e-07 0)
(6.59581e-09 -8.31855e-07 0)
(6.56084e-09 -8.33119e-07 0)
(6.5258e-09 -8.34378e-07 0)
(6.49069e-09 -8.35634e-07 0)
(6.45552e-09 -8.36885e-07 0)
(6.42027e-09 -8.38133e-07 0)
(6.38496e-09 -8.39377e-07 0)
(6.34959e-09 -8.40617e-07 0)
(6.31415e-09 -8.41853e-07 0)
(6.27864e-09 -8.43085e-07 0)
(6.24308e-09 -8.44313e-07 0)
(6.20745e-09 -8.45537e-07 0)
(6.17175e-09 -8.46757e-07 0)
(6.136e-09 -8.47972e-07 0)
(6.10018e-09 -8.49183e-07 0)
(6.0643e-09 -8.5039e-07 0)
(6.02837e-09 -8.51593e-07 0)
(5.99237e-09 -8.52792e-07 0)
(5.95632e-09 -8.53986e-07 0)
(5.92021e-09 -8.55175e-07 0)
(5.88405e-09 -8.5636e-07 0)
(5.84783e-09 -8.57541e-07 0)
(5.81155e-09 -8.58717e-07 0)
(5.77522e-09 -8.59889e-07 0)
(5.73883e-09 -8.61055e-07 0)
(5.7024e-09 -8.62218e-07 0)
(5.66591e-09 -8.63375e-07 0)
(5.62937e-09 -8.64528e-07 0)
(5.59278e-09 -8.65676e-07 0)
(5.55614e-09 -8.6682e-07 0)
(5.51945e-09 -8.67958e-07 0)
(5.48272e-09 -8.69092e-07 0)
(5.44593e-09 -8.7022e-07 0)
(5.40911e-09 -8.71344e-07 0)
(5.37224e-09 -8.72462e-07 0)
(5.33531e-09 -8.73576e-07 0)
(5.2984e-09 -8.74684e-07 0)
(5.26118e-09 -8.75789e-07 0)
(5.22504e-09 -8.76881e-07 0)
(5.19042e-09 -8.77917e-07 0)
(5.15632e-09 -8.78898e-07 0)
(5.12264e-09 -8.79868e-07 0)
(5.08882e-09 -8.80844e-07 0)
(5.05471e-09 -8.81828e-07 0)
(5.02028e-09 -8.82817e-07 0)
(4.98553e-09 -8.83809e-07 0)
(4.95045e-09 -8.84804e-07 0)
(4.91503e-09 -8.85803e-07 0)
(4.87928e-09 -8.86805e-07 0)
(4.8432e-09 -8.87812e-07 0)
(4.80677e-09 -8.88821e-07 0)
(4.77001e-09 -8.89834e-07 0)
(4.7329e-09 -8.90849e-07 0)
(4.69545e-09 -8.91868e-07 0)
(4.65766e-09 -8.9289e-07 0)
(4.61952e-09 -8.93914e-07 0)
(4.58104e-09 -8.94941e-07 0)
(4.5422e-09 -8.9597e-07 0)
(4.50301e-09 -8.97002e-07 0)
(4.46348e-09 -8.98035e-07 0)
(4.42359e-09 -8.99071e-07 0)
(4.38334e-09 -9.00109e-07 0)
(4.34274e-09 -9.01148e-07 0)
(4.30178e-09 -9.02188e-07 0)
(4.26047e-09 -9.0323e-07 0)
(4.21879e-09 -9.04273e-07 0)
(4.17676e-09 -9.05317e-07 0)
(4.13437e-09 -9.06362e-07 0)
(4.09162e-09 -9.07407e-07 0)
(4.0485e-09 -9.08452e-07 0)
(4.00503e-09 -9.09498e-07 0)
(3.96119e-09 -9.10543e-07 0)
(3.91699e-09 -9.11588e-07 0)
(3.87243e-09 -9.12633e-07 0)
(3.8275e-09 -9.13677e-07 0)
(3.78222e-09 -9.1472e-07 0)
(3.73657e-09 -9.15761e-07 0)
(3.69056e-09 -9.16801e-07 0)
(3.64418e-09 -9.17839e-07 0)
(3.59745e-09 -9.18875e-07 0)
(3.55036e-09 -9.19909e-07 0)
(3.50291e-09 -9.2094e-07 0)
(3.45509e-09 -9.21969e-07 0)
(3.40693e-09 -9.22994e-07 0)
(3.3584e-09 -9.24015e-07 0)
(3.30952e-09 -9.25033e-07 0)
(3.26029e-09 -9.26047e-07 0)
(3.21071e-09 -9.27056e-07 0)
(3.16077e-09 -9.28061e-07 0)
(3.11049e-09 -9.29061e-07 0)
(3.05987e-09 -9.30055e-07 0)
(3.0089e-09 -9.31043e-07 0)
(2.95759e-09 -9.32025e-07 0)
(2.90595e-09 -9.33001e-07 0)
(2.85397e-09 -9.3397e-07 0)
(2.80166e-09 -9.34932e-07 0)
(2.74902e-09 -9.35886e-07 0)
(2.69606e-09 -9.36832e-07 0)
(2.64278e-09 -9.3777e-07 0)
(2.58918e-09 -9.38699e-07 0)
(2.53527e-09 -9.39618e-07 0)
(2.48105e-09 -9.40528e-07 0)
(2.42653e-09 -9.41428e-07 0)
(2.37172e-09 -9.42318e-07 0)
(2.31661e-09 -9.43196e-07 0)
(2.26121e-09 -9.44063e-07 0)
(2.20554e-09 -9.44918e-07 0)
(2.14959e-09 -9.45761e-07 0)
(2.09337e-09 -9.46591e-07 0)
(2.03689e-09 -9.47408e-07 0)
(1.98016e-09 -9.48211e-07 0)
(1.92318e-09 -9.48999e-07 0)
(1.86595e-09 -9.49773e-07 0)
(1.8085e-09 -9.50531e-07 0)
(1.75082e-09 -9.51274e-07 0)
(1.69292e-09 -9.52e-07 0)
(1.63482e-09 -9.5271e-07 0)
(1.57652e-09 -9.53402e-07 0)
(1.51803e-09 -9.54076e-07 0)
(1.45936e-09 -9.54731e-07 0)
(1.40052e-09 -9.55368e-07 0)
(1.34152e-09 -9.55985e-07 0)
(1.28237e-09 -9.56581e-07 0)
(1.22309e-09 -9.57157e-07 0)
(1.16367e-09 -9.57711e-07 0)
(1.10415e-09 -9.58243e-07 0)
(1.04451e-09 -9.58753e-07 0)
(9.84792e-10 -9.5924e-07 0)
(9.2499e-10 -9.59703e-07 0)
(8.65123e-10 -9.60141e-07 0)
(8.05204e-10 -9.60555e-07 0)
(7.45245e-10 -9.60942e-07 0)
(6.85262e-10 -9.61304e-07 0)
(6.25267e-10 -9.61639e-07 0)
(5.65277e-10 -9.61946e-07 0)
(5.05305e-10 -9.62225e-07 0)
(4.45368e-10 -9.62475e-07 0)
(3.8548e-10 -9.62696e-07 0)
(3.25657e-10 -9.62887e-07 0)
(2.65916e-10 -9.63047e-07 0)
(2.06274e-10 -9.63176e-07 0)
(1.46747e-10 -9.63273e-07 0)
(8.73527e-11 -9.63337e-07 0)
(2.81081e-11 -9.63368e-07 0)
(-3.09687e-11 -9.63366e-07 0)
(-8.98596e-11 -9.63328e-07 0)
(-1.48546e-10 -9.63256e-07 0)
(-2.0701e-10 -9.63148e-07 0)
(-2.65232e-10 -9.63003e-07 0)
(-3.23193e-10 -9.62822e-07 0)
(-3.80873e-10 -9.62602e-07 0)
(-4.38254e-10 -9.62345e-07 0)
(-4.95314e-10 -9.62049e-07 0)
(-5.52034e-10 -9.61713e-07 0)
(-6.08394e-10 -9.61337e-07 0)
(-6.64373e-10 -9.60921e-07 0)
(-7.1995e-10 -9.60463e-07 0)
(-7.75105e-10 -9.59963e-07 0)
(-8.29817e-10 -9.59421e-07 0)
(-8.84064e-10 -9.58836e-07 0)
(-9.37825e-10 -9.58208e-07 0)
(-9.9108e-10 -9.57536e-07 0)
(-1.04381e-09 -9.56819e-07 0)
(-1.09598e-09 -9.56057e-07 0)
(-1.14759e-09 -9.5525e-07 0)
(-1.1986e-09 -9.54396e-07 0)
(-1.249e-09 -9.53496e-07 0)
(-1.29877e-09 -9.5255e-07 0)
(-1.34787e-09 -9.51556e-07 0)
(-1.3963e-09 -9.50514e-07 0)
(-1.44404e-09 -9.49424e-07 0)
(-1.49105e-09 -9.48286e-07 0)
(-1.53732e-09 -9.47098e-07 0)
(-1.58283e-09 -9.45862e-07 0)
(-1.62755e-09 -9.44576e-07 0)
(-1.67148e-09 -9.4324e-07 0)
(-1.71458e-09 -9.41855e-07 0)
(-1.75685e-09 -9.40419e-07 0)
(-1.79825e-09 -9.38932e-07 0)
(-1.83877e-09 -9.37395e-07 0)
(-1.87839e-09 -9.35807e-07 0)
(-1.91709e-09 -9.34168e-07 0)
(-1.95486e-09 -9.32477e-07 0)
(-1.99168e-09 -9.30736e-07 0)
(-2.02753e-09 -9.28943e-07 0)
(-2.06239e-09 -9.27099e-07 0)
(-2.09625e-09 -9.25204e-07 0)
(-2.1291e-09 -9.23257e-07 0)
(-2.16091e-09 -9.21259e-07 0)
(-2.19168e-09 -9.1921e-07 0)
(-2.22139e-09 -9.1711e-07 0)
(-2.25002e-09 -9.1496e-07 0)
(-2.27757e-09 -9.12758e-07 0)
(-2.30403e-09 -9.10507e-07 0)
(-2.32938e-09 -9.08205e-07 0)
(-2.35361e-09 -9.05853e-07 0)
(-2.37671e-09 -9.03452e-07 0)
(-2.39868e-09 -9.01001e-07 0)
(-2.41951e-09 -8.98502e-07 0)
(-2.43919e-09 -8.95955e-07 0)
(-2.45771e-09 -8.93359e-07 0)
(-2.47507e-09 -8.90716e-07 0)
(-2.49127e-09 -8.88027e-07 0)
(-2.5063e-09 -8.85291e-07 0)
(-2.52015e-09 -8.82509e-07 0)
(-2.53283e-09 -8.79683e-07 0)
(-2.54434e-09 -8.76812e-07 0)
(-2.55467e-09 -8.73897e-07 0)
(-2.56383e-09 -8.7094e-07 0)
(-2.57181e-09 -8.6794e-07 0)
(-2.57863e-09 -8.64899e-07 0)
(-2.58428e-09 -8.61818e-07 0)
(-2.58876e-09 -8.58697e-07 0)
(-2.59209e-09 -8.55538e-07 0)
(-2.59426e-09 -8.52341e-07 0)
(-2.59529e-09 -8.49107e-07 0)
(-2.59519e-09 -8.45838e-07 0)
(-2.59394e-09 -8.42531e-07 0)
(-2.59163e-09 -8.39198e-07 0)
(-2.58797e-09 -8.35791e-07 0)
(-2.58271e-09 -8.3203e-07 0)
(-2.57582e-09 -8.27911e-07 0)
(-2.56729e-09 -8.2372e-07 0)
(-2.55729e-09 -8.19552e-07 0)
(-2.54598e-09 -8.15425e-07 0)
(-2.53344e-09 -8.11322e-07 0)
(-2.51975e-09 -8.07236e-07 0)
(-2.50495e-09 -8.03169e-07 0)
(-2.48912e-09 -7.99128e-07 0)
(-2.47232e-09 -7.95114e-07 0)
(-2.45461e-09 -7.91128e-07 0)
(-2.43603e-09 -7.87172e-07 0)
(-2.41664e-09 -7.83246e-07 0)
(-2.3965e-09 -7.79352e-07 0)
(-2.37565e-09 -7.75492e-07 0)
(-2.35412e-09 -7.71666e-07 0)
(-2.33198e-09 -7.67875e-07 0)
(-2.30925e-09 -7.6412e-07 0)
(-2.28598e-09 -7.60403e-07 0)
(-2.2622e-09 -7.56724e-07 0)
(-2.23794e-09 -7.53084e-07 0)
(-2.21324e-09 -7.49483e-07 0)
(-2.18812e-09 -7.45923e-07 0)
(-2.16262e-09 -7.42404e-07 0)
(-2.13676e-09 -7.38926e-07 0)
(-2.11057e-09 -7.35491e-07 0)
(-2.08407e-09 -7.32098e-07 0)
(-2.05728e-09 -7.28748e-07 0)
(-2.03022e-09 -7.25442e-07 0)
(-2.00292e-09 -7.2218e-07 0)
(-1.97538e-09 -7.18962e-07 0)
(-1.94763e-09 -7.15789e-07 0)
(-1.91968e-09 -7.12661e-07 0)
(-1.89154e-09 -7.09578e-07 0)
(-1.86322e-09 -7.06541e-07 0)
(-1.83475e-09 -7.0355e-07 0)
(-1.80613e-09 -7.00605e-07 0)
(-1.77736e-09 -6.97707e-07 0)
(-1.74847e-09 -6.94855e-07 0)
(-1.71945e-09 -6.9205e-07 0)
(-1.69031e-09 -6.89292e-07 0)
(-1.66107e-09 -6.86582e-07 0)
(-1.63172e-09 -6.83918e-07 0)
(-1.60227e-09 -6.81303e-07 0)
(-1.57273e-09 -6.78735e-07 0)
(-1.5431e-09 -6.76215e-07 0)
(-1.51339e-09 -6.73742e-07 0)
(-1.48359e-09 -6.71318e-07 0)
(-1.45371e-09 -6.68943e-07 0)
(-1.42376e-09 -6.66615e-07 0)
(-1.39373e-09 -6.64337e-07 0)
(-1.36363e-09 -6.62106e-07 0)
(-1.33345e-09 -6.59925e-07 0)
(-1.30321e-09 -6.57793e-07 0)
(-1.2729e-09 -6.55709e-07 0)
(-1.24251e-09 -6.53674e-07 0)
(-1.21206e-09 -6.51689e-07 0)
(-1.18154e-09 -6.49753e-07 0)
(-1.15095e-09 -6.47867e-07 0)
(-1.1203e-09 -6.4603e-07 0)
(-1.08957e-09 -6.44242e-07 0)
(-1.05878e-09 -6.42505e-07 0)
(-1.02793e-09 -6.40817e-07 0)
(-9.97005e-10 -6.39179e-07 0)
(-9.66016e-10 -6.37591e-07 0)
(-9.34961e-10 -6.36054e-07 0)
(-9.0384e-10 -6.34567e-07 0)
(-8.72654e-10 -6.3313e-07 0)
(-8.41403e-10 -6.31743e-07 0)
(-8.10088e-10 -6.30408e-07 0)
(-7.78709e-10 -6.29123e-07 0)
(-7.47267e-10 -6.27888e-07 0)
(-7.15764e-10 -6.26705e-07 0)
(-6.842e-10 -6.25573e-07 0)
(-6.52577e-10 -6.24492e-07 0)
(-6.20896e-10 -6.23461e-07 0)
(-5.89158e-10 -6.22483e-07 0)
(-5.57366e-10 -6.21555e-07 0)
(-5.25521e-10 -6.2068e-07 0)
(-4.93625e-10 -6.19855e-07 0)
(-4.61681e-10 -6.19083e-07 0)
(-4.2969e-10 -6.18362e-07 0)
(-3.97656e-10 -6.17692e-07 0)
(-3.65581e-10 -6.17075e-07 0)
(-3.33467e-10 -6.16509e-07 0)
(-3.01318e-10 -6.15999e-07 0)
(-2.69135e-10 -6.15525e-07 0)
(-2.36928e-10 -6.15158e-07 0)
(-2.04676e-10 -6.14658e-07 0)
(-1.72465e-10 -6.14819e-07 0)
(-1.40028e-10 -6.1297e-07 0)
(-1.08265e-10 -6.17756e-07 0)
(-7.43104e-11 -5.99123e-07 0)
(-4.80058e-11 -6.48223e-07 0)
(-2.01318e-11 -5.66125e-07 0)
)
;
    }
    bottomWall
    {
        type            calculated;
        value           nonuniform List<vector> 
449
(
(-48.5263 -0.964019 0)
(-19.7492 -0.00515468 0)
(-14.342 -0.00113474 0)
(-12.0325 -0.000545474 0)
(-10.6264 -0.000351497 0)
(-9.6326 -0.000255996 0)
(-8.87453 -0.000198488 0)
(-8.27101 -0.000159818 0)
(-7.77558 -0.000132327 0)
(-7.35894 -0.00011198 0)
(-7.00193 -9.63793e-05 0)
(-6.6915 -8.40723e-05 0)
(-6.41834 -7.41543e-05 0)
(-6.17554 -6.60267e-05 0)
(-5.95785 -5.92696e-05 0)
(-5.7612 -5.35801e-05 0)
(-5.58239 -4.87358e-05 0)
(-5.41888 -4.45709e-05 0)
(-5.26859 -4.09593e-05 0)
(-5.12983 -3.78037e-05 0)
(-5.00118 -3.50274e-05 0)
(-4.88146 -3.25696e-05 0)
(-4.76969 -3.03815e-05 0)
(-4.66502 -2.84236e-05 0)
(-4.56673 -2.66633e-05 0)
(-4.47417 -2.5074e-05 0)
(-4.38683 -2.36333e-05 0)
(-4.30421 -2.23225e-05 0)
(-4.22591 -2.11258e-05 0)
(-4.15157 -2.00299e-05 0)
(-4.08085 -1.90233e-05 0)
(-4.01346 -1.80962e-05 0)
(-3.94916 -1.724e-05 0)
(-3.88771 -1.64475e-05 0)
(-3.82891 -1.57122e-05 0)
(-3.77257 -1.50285e-05 0)
(-3.71851 -1.43916e-05 0)
(-3.6666 -1.37971e-05 0)
(-3.61668 -1.32411e-05 0)
(-3.56864 -1.27203e-05 0)
(-3.52235 -1.22317e-05 0)
(-3.47772 -1.17725e-05 0)
(-3.43464 -1.13403e-05 0)
(-3.39303 -1.0933e-05 0)
(-3.3528 -1.05486e-05 0)
(-3.31388 -1.01854e-05 0)
(-3.2762 -9.84181e-06 0)
(-3.23968 -9.51634e-06 0)
(-3.20428 -9.20772e-06 0)
(-3.16994 -8.91474e-06 0)
(-3.1366 -8.63634e-06 0)
(-3.10422 -8.37152e-06 0)
(-3.07274 -8.11939e-06 0)
(-3.04213 -7.8791e-06 0)
(-3.01235 -7.64991e-06 0)
(-2.98336 -7.43111e-06 0)
(-2.95513 -7.22207e-06 0)
(-2.92762 -7.02218e-06 0)
(-2.9008 -6.83091e-06 0)
(-2.87464 -6.64774e-06 0)
(-2.84912 -6.47221e-06 0)
(-2.82421 -6.30388e-06 0)
(-2.79989 -6.14234e-06 0)
(-2.77613 -5.98724e-06 0)
(-2.7529 -5.8382e-06 0)
(-2.7302 -5.69492e-06 0)
(-2.708 -5.55708e-06 0)
(-2.68629 -5.42441e-06 0)
(-2.66503 -5.29664e-06 0)
(-2.64423 -5.17352e-06 0)
(-2.62386 -5.05483e-06 0)
(-2.6039 -4.94034e-06 0)
(-2.58435 -4.82985e-06 0)
(-2.56519 -4.72317e-06 0)
(-2.54641 -4.62012e-06 0)
(-2.52798 -4.52054e-06 0)
(-2.50991 -4.42425e-06 0)
(-2.49219 -4.33113e-06 0)
(-2.47479 -4.24101e-06 0)
(-2.45771 -4.15378e-06 0)
(-2.44094 -4.06929e-06 0)
(-2.42447 -3.98745e-06 0)
(-2.40829 -3.90813e-06 0)
(-2.3924 -3.83122e-06 0)
(-2.37678 -3.75663e-06 0)
(-2.36142 -3.68426e-06 0)
(-2.34633 -3.61403e-06 0)
(-2.33148 -3.54583e-06 0)
(-2.31688 -3.47961e-06 0)
(-2.30252 -3.41526e-06 0)
(-2.28839 -3.35274e-06 0)
(-2.27448 -3.29195e-06 0)
(-2.26079 -3.23285e-06 0)
(-2.24732 -3.17535e-06 0)
(-2.23405 -3.11941e-06 0)
(-2.22098 -3.06497e-06 0)
(-2.20811 -3.01197e-06 0)
(-2.19543 -2.96036e-06 0)
(-2.18294 -2.91009e-06 0)
(-2.17063 -2.86112e-06 0)
(-2.1585 -2.81339e-06 0)
(-2.14655 -2.76686e-06 0)
(-2.13476 -2.7215e-06 0)
(-2.12313 -2.67726e-06 0)
(-2.11167 -2.63411e-06 0)
(-2.10036 -2.592e-06 0)
(-2.08921 -2.55091e-06 0)
(-2.07821 -2.5108e-06 0)
(-2.06736 -2.47164e-06 0)
(-2.05665 -2.4334e-06 0)
(-2.04607 -2.39604e-06 0)
(-2.03564 -2.35955e-06 0)
(-2.02534 -2.32389e-06 0)
(-2.01517 -2.28904e-06 0)
(-2.00513 -2.25497e-06 0)
(-1.99522 -2.22166e-06 0)
(-1.98542 -2.18909e-06 0)
(-1.97575 -2.15723e-06 0)
(-1.9662 -2.12607e-06 0)
(-1.95676 -2.09557e-06 0)
(-1.94743 -2.06573e-06 0)
(-1.93822 -2.03653e-06 0)
(-1.92911 -2.00793e-06 0)
(-1.92011 -1.97994e-06 0)
(-1.91121 -1.95252e-06 0)
(-1.90242 -1.92567e-06 0)
(-1.89372 -1.89937e-06 0)
(-1.88513 -1.8736e-06 0)
(-1.87663 -1.84835e-06 0)
(-1.86822 -1.82361e-06 0)
(-1.85991 -1.79935e-06 0)
(-1.85168 -1.77558e-06 0)
(-1.84355 -1.75226e-06 0)
(-1.8355 -1.7294e-06 0)
(-1.82754 -1.70698e-06 0)
(-1.81967 -1.68499e-06 0)
(-1.81188 -1.66342e-06 0)
(-1.80416 -1.64225e-06 0)
(-1.79653 -1.62148e-06 0)
(-1.78898 -1.6011e-06 0)
(-1.7815 -1.58109e-06 0)
(-1.7741 -1.56146e-06 0)
(-1.76678 -1.54217e-06 0)
(-1.75952 -1.52324e-06 0)
(-1.75234 -1.50465e-06 0)
(-1.74523 -1.48639e-06 0)
(-1.73819 -1.46846e-06 0)
(-1.73122 -1.45084e-06 0)
(-1.72431 -1.43354e-06 0)
(-1.71747 -1.41653e-06 0)
(-1.7107 -1.39982e-06 0)
(-1.70399 -1.38339e-06 0)
(-1.69734 -1.36725e-06 0)
(-1.69076 -1.35138e-06 0)
(-1.68423 -1.33578e-06 0)
(-1.67777 -1.32044e-06 0)
(-1.67136 -1.30536e-06 0)
(-1.66501 -1.29053e-06 0)
(-1.65872 -1.27594e-06 0)
(-1.65248 -1.26159e-06 0)
(-1.64631 -1.24748e-06 0)
(-1.64018 -1.23359e-06 0)
(-1.63411 -1.21993e-06 0)
(-1.62809 -1.20649e-06 0)
(-1.62212 -1.19327e-06 0)
(-1.61621 -1.18025e-06 0)
(-1.61035 -1.16744e-06 0)
(-1.60453 -1.15483e-06 0)
(-1.59877 -1.14245e-06 0)
(-1.59305 -1.13012e-06 0)
(-1.58738 -1.11843e-06 0)
(-1.58175 -1.10633e-06 0)
(-1.57618 -1.09319e-06 0)
(-1.57097 -1.08301e-06 0)
(-1.56607 -1.07478e-06 0)
(-1.56115 -1.06443e-06 0)
(-1.55624 -1.05374e-06 0)
(-1.55132 -1.04373e-06 0)
(-1.54639 -1.0337e-06 0)
(-1.54146 -1.02378e-06 0)
(-1.53652 -1.01392e-06 0)
(-1.53158 -1.00414e-06 0)
(-1.52663 -9.94406e-07 0)
(-1.52167 -9.84735e-07 0)
(-1.51671 -9.7512e-07 0)
(-1.51175 -9.6556e-07 0)
(-1.50678 -9.56056e-07 0)
(-1.50181 -9.46607e-07 0)
(-1.49683 -9.37214e-07 0)
(-1.49185 -9.27875e-07 0)
(-1.48686 -9.18592e-07 0)
(-1.48187 -9.09364e-07 0)
(-1.47688 -9.00192e-07 0)
(-1.47189 -8.91076e-07 0)
(-1.46689 -8.82017e-07 0)
(-1.46189 -8.73014e-07 0)
(-1.45688 -8.64067e-07 0)
(-1.45187 -8.55178e-07 0)
(-1.44686 -8.46345e-07 0)
(-1.44185 -8.3757e-07 0)
(-1.43684 -8.28853e-07 0)
(-1.43183 -8.20193e-07 0)
(-1.42681 -8.11592e-07 0)
(-1.42179 -8.03048e-07 0)
(-1.41677 -7.94563e-07 0)
(-1.41175 -7.86137e-07 0)
(-1.40673 -7.77769e-07 0)
(-1.40171 -7.69459e-07 0)
(-1.39669 -7.61209e-07 0)
(-1.39167 -7.53018e-07 0)
(-1.38665 -7.44886e-07 0)
(-1.38163 -7.36813e-07 0)
(-1.37661 -7.28799e-07 0)
(-1.37159 -7.20845e-07 0)
(-1.36658 -7.1295e-07 0)
(-1.36156 -7.05114e-07 0)
(-1.35654 -6.97339e-07 0)
(-1.35153 -6.89622e-07 0)
(-1.34652 -6.81966e-07 0)
(-1.34151 -6.74369e-07 0)
(-1.3365 -6.66831e-07 0)
(-1.33149 -6.59353e-07 0)
(-1.32649 -6.51935e-07 0)
(-1.32149 -6.44577e-07 0)
(-1.31649 -6.37278e-07 0)
(-1.31149 -6.30038e-07 0)
(-1.3065 -6.22858e-07 0)
(-1.30151 -6.15738e-07 0)
(-1.29653 -6.08677e-07 0)
(-1.29154 -6.01675e-07 0)
(-1.28657 -5.94732e-07 0)
(-1.28159 -5.87848e-07 0)
(-1.27662 -5.81024e-07 0)
(-1.27166 -5.74258e-07 0)
(-1.2667 -5.67551e-07 0)
(-1.26174 -5.60903e-07 0)
(-1.25679 -5.54313e-07 0)
(-1.25184 -5.47782e-07 0)
(-1.2469 -5.41309e-07 0)
(-1.24197 -5.34894e-07 0)
(-1.23704 -5.28537e-07 0)
(-1.23211 -5.22238e-07 0)
(-1.2272 -5.15996e-07 0)
(-1.22228 -5.09812e-07 0)
(-1.21738 -5.03685e-07 0)
(-1.21248 -4.97615e-07 0)
(-1.20759 -4.91602e-07 0)
(-1.2027 -4.85645e-07 0)
(-1.19782 -4.79745e-07 0)
(-1.19295 -4.73902e-07 0)
(-1.18808 -4.68114e-07 0)
(-1.18322 -4.62382e-07 0)
(-1.17837 -4.56705e-07 0)
(-1.17353 -4.51084e-07 0)
(-1.1687 -4.45518e-07 0)
(-1.16387 -4.40007e-07 0)
(-1.15905 -4.3455e-07 0)
(-1.15424 -4.29147e-07 0)
(-1.14943 -4.23799e-07 0)
(-1.14464 -4.18504e-07 0)
(-1.13985 -4.13263e-07 0)
(-1.13507 -4.08074e-07 0)
(-1.13031 -4.02939e-07 0)
(-1.12554 -3.97857e-07 0)
(-1.12079 -3.92827e-07 0)
(-1.11605 -3.87848e-07 0)
(-1.11132 -3.82922e-07 0)
(-1.1066 -3.78047e-07 0)
(-1.10188 -3.73223e-07 0)
(-1.09718 -3.6845e-07 0)
(-1.09248 -3.63728e-07 0)
(-1.0878 -3.59056e-07 0)
(-1.08313 -3.54434e-07 0)
(-1.07846 -3.49861e-07 0)
(-1.07381 -3.45338e-07 0)
(-1.06916 -3.40863e-07 0)
(-1.06453 -3.36438e-07 0)
(-1.05991 -3.3206e-07 0)
(-1.05529 -3.27731e-07 0)
(-1.05069 -3.23449e-07 0)
(-1.0461 -3.19214e-07 0)
(-1.04152 -3.15027e-07 0)
(-1.03695 -3.10886e-07 0)
(-1.03239 -3.06791e-07 0)
(-1.02785 -3.02742e-07 0)
(-1.02331 -2.98739e-07 0)
(-1.01879 -2.94781e-07 0)
(-1.01428 -2.90868e-07 0)
(-1.00978 -2.87e-07 0)
(-1.00529 -2.83176e-07 0)
(-1.00081 -2.79396e-07 0)
(-0.996344 -2.75659e-07 0)
(-0.99189 -2.71966e-07 0)
(-0.987448 -2.68315e-07 0)
(-0.983018 -2.64707e-07 0)
(-0.978601 -2.61141e-07 0)
(-0.974195 -2.57617e-07 0)
(-0.969802 -2.54134e-07 0)
(-0.965421 -2.50692e-07 0)
(-0.961053 -2.47292e-07 0)
(-0.956697 -2.43931e-07 0)
(-0.952354 -2.40611e-07 0)
(-0.948023 -2.3733e-07 0)
(-0.943705 -2.34088e-07 0)
(-0.939399 -2.30886e-07 0)
(-0.935107 -2.27722e-07 0)
(-0.930827 -2.24597e-07 0)
(-0.92656 -2.21509e-07 0)
(-0.922306 -2.18459e-07 0)
(-0.918066 -2.15446e-07 0)
(-0.913838 -2.12471e-07 0)
(-0.909623 -2.09531e-07 0)
(-0.905422 -2.06628e-07 0)
(-0.901233 -2.03761e-07 0)
(-0.897058 -2.00929e-07 0)
(-0.892897 -1.98133e-07 0)
(-0.888748 -1.95371e-07 0)
(-0.884614 -1.92644e-07 0)
(-0.880492 -1.89951e-07 0)
(-0.876384 -1.87292e-07 0)
(-0.87229 -1.84666e-07 0)
(-0.868209 -1.82074e-07 0)
(-0.864142 -1.79514e-07 0)
(-0.860088 -1.76987e-07 0)
(-0.856048 -1.74492e-07 0)
(-0.852022 -1.72029e-07 0)
(-0.848009 -1.69597e-07 0)
(-0.84401 -1.67197e-07 0)
(-0.840025 -1.64827e-07 0)
(-0.836054 -1.62488e-07 0)
(-0.832097 -1.60179e-07 0)
(-0.828153 -1.579e-07 0)
(-0.824224 -1.5565e-07 0)
(-0.820308 -1.5343e-07 0)
(-0.816407 -1.51239e-07 0)
(-0.812519 -1.49076e-07 0)
(-0.808645 -1.46941e-07 0)
(-0.804785 -1.44835e-07 0)
(-0.800939 -1.42756e-07 0)
(-0.797108 -1.40705e-07 0)
(-0.79329 -1.38681e-07 0)
(-0.789486 -1.36683e-07 0)
(-0.785697 -1.34712e-07 0)
(-0.781921 -1.32767e-07 0)
(-0.77816 -1.30848e-07 0)
(-0.774413 -1.28954e-07 0)
(-0.77068 -1.27086e-07 0)
(-0.766961 -1.25242e-07 0)
(-0.763256 -1.23421e-07 0)
(-0.759565 -1.21627e-07 0)
(-0.755889 -1.19852e-07 0)
(-0.752227 -1.18064e-07 0)
(-0.748581 -1.16426e-07 0)
(-0.744942 -1.14799e-07 0)
(-0.740913 -1.12812e-07 0)
(-0.736543 -1.10702e-07 0)
(-0.732253 -1.08802e-07 0)
(-0.728031 -1.07004e-07 0)
(-0.723881 -1.05194e-07 0)
(-0.719802 -1.03419e-07 0)
(-0.71579 -1.01689e-07 0)
(-0.711846 -1.00007e-07 0)
(-0.707967 -9.83687e-08 0)
(-0.70415 -9.67744e-08 0)
(-0.700396 -9.52224e-08 0)
(-0.696701 -9.37114e-08 0)
(-0.693064 -9.22399e-08 0)
(-0.689484 -9.08065e-08 0)
(-0.68596 -8.94099e-08 0)
(-0.68249 -8.80487e-08 0)
(-0.679072 -8.67217e-08 0)
(-0.675705 -8.54277e-08 0)
(-0.672388 -8.41655e-08 0)
(-0.669121 -8.29342e-08 0)
(-0.6659 -8.17326e-08 0)
(-0.662726 -8.05598e-08 0)
(-0.659598 -7.94147e-08 0)
(-0.656513 -7.82966e-08 0)
(-0.653472 -7.72044e-08 0)
(-0.650474 -7.61375e-08 0)
(-0.647516 -7.50949e-08 0)
(-0.644599 -7.40759e-08 0)
(-0.641721 -7.30798e-08 0)
(-0.638881 -7.21059e-08 0)
(-0.63608 -7.11534e-08 0)
(-0.633315 -7.02218e-08 0)
(-0.630586 -6.93103e-08 0)
(-0.627892 -6.84185e-08 0)
(-0.625233 -6.75456e-08 0)
(-0.622608 -6.66913e-08 0)
(-0.620016 -6.58548e-08 0)
(-0.617456 -6.50357e-08 0)
(-0.614928 -6.42336e-08 0)
(-0.612431 -6.34478e-08 0)
(-0.609964 -6.26781e-08 0)
(-0.607527 -6.19238e-08 0)
(-0.60512 -6.11846e-08 0)
(-0.602741 -6.04601e-08 0)
(-0.60039 -5.97499e-08 0)
(-0.598066 -5.90536e-08 0)
(-0.59577 -5.83708e-08 0)
(-0.5935 -5.77012e-08 0)
(-0.591256 -5.70444e-08 0)
(-0.589037 -5.64001e-08 0)
(-0.586843 -5.5768e-08 0)
(-0.584674 -5.51478e-08 0)
(-0.582529 -5.45391e-08 0)
(-0.580408 -5.39417e-08 0)
(-0.578309 -5.33553e-08 0)
(-0.576233 -5.27797e-08 0)
(-0.57418 -5.22145e-08 0)
(-0.572149 -5.16596e-08 0)
(-0.570139 -5.11147e-08 0)
(-0.56815 -5.05796e-08 0)
(-0.566182 -5.00541e-08 0)
(-0.564234 -4.95378e-08 0)
(-0.562306 -4.90308e-08 0)
(-0.560398 -4.85327e-08 0)
(-0.558509 -4.80434e-08 0)
(-0.55664 -4.75627e-08 0)
(-0.554788 -4.70905e-08 0)
(-0.552956 -4.66266e-08 0)
(-0.551141 -4.61709e-08 0)
(-0.549343 -4.57232e-08 0)
(-0.547564 -4.52835e-08 0)
(-0.545801 -4.48518e-08 0)
(-0.544055 -4.44278e-08 0)
(-0.542325 -4.40117e-08 0)
(-0.540612 -4.36034e-08 0)
(-0.538914 -4.32029e-08 0)
(-0.537232 -4.28104e-08 0)
(-0.535565 -4.24261e-08 0)
(-0.533913 -4.20503e-08 0)
(-0.532275 -4.16833e-08 0)
(-0.530652 -4.13259e-08 0)
(-0.529042 -4.09788e-08 0)
(-0.527446 -4.06436e-08 0)
(-0.525863 -4.03215e-08 0)
(-0.524292 -4.00157e-08 0)
(-0.522732 -3.97386e-08 0)
(-0.521183 -3.94599e-08 0)
(-0.519645 -3.9239e-08 0)
(-0.518113 -3.92992e-08 0)
(-0.516571 -3.86203e-08 0)
(-0.515092 -3.77506e-08 0)
(-0.513617 -4.98973e-08 0)
(-0.511188 -1.39478e-08 0)
(-0.512537 -3.68209e-08 0)
(-0.508264 -5.55506e-08 0)
)
;
    }
    symmetry
    {
        type            symmetryPlane;
    }
    frontAndBack
    {
        type            empty;
    }
}


// ************************************************************************* //
