/*--------------------------------*- C++ -*----------------------------------*\
| =========                 |                                                 |
| \\      /  F ield         | OpenFOAM: The Open Source CFD Toolbox           |
|  \\    /   O peration     | Version:  v2012                                 |
|   \\  /    A nd           | Website:  www.openfoam.com                      |
|    \\/     M anipulation  |                                                 |
\*---------------------------------------------------------------------------*/
FoamFile
{
    version     2.0;
    format      ascii;
    class       volScalarField;
    location    "17.5";
    object      omega;
}
// * * * * * * * * * * * * * * * * * * * * * * * * * * * * * * * * * * * * * //

dimensions      [0 0 -1 0 0 0 0];


internalField   nonuniform List<scalar> 
209825
(
8229.73
7601.14
7203.2
6947.68
6774.07
6649.96
6557.06
6485.56
6428.81
6383.21
6345.63
6314.57
6288.27
6266.12
6246.96
6230.61
6216.21
6203.81
6192.71
6183.11
6174.38
6166.8
6159.8
6153.81
6148.16
6143.23
6138.58
6134.64
6130.81
6127.51
6124.32
6121.63
6118.96
6116.81
6114.56
6112.69
6110.76
6109.35
6107.73
6106.42
6105.05
6104.22
6102.83
6101.87
6101.1
6100.61
6100.04
6099.68
6099.03
6098.56
6097.36
6097.43
6097.43
6097.37
6096.94
6097.6
6097.89
6097.89
6097.89
6097.79
6098.66
6098.66
6098.66
6099.08
6100.35
6100.36
6100.36
6101.13
6101.13
6102.22
6102.66
6104.17
6104.47
6106.3
6106.57
6107.63
6108.66
6110.08
6110.86
6112.55
6113.57
6115.26
6116.31
6118.27
6119.25
6121.48
6122.68
6125.35
6126.74
6130.14
6131.59
6137.03
6137.62
6177.97
6354.38
115233
8229.74
7601.12
7203.15
6947.6
6773.96
6649.83
6556.91
6485.4
6428.64
6383.03
6345.44
6314.37
6288.07
6265.92
6246.75
6230.4
6215.99
6203.59
6192.48
6182.88
6174.16
6166.57
6159.57
6153.57
6147.92
6143
6138.34
6134.4
6130.57
6127.27
6124.08
6121.39
6118.71
6116.56
6114.32
6112.44
6110.52
6109.1
6107.48
6106.18
6104.81
6103.97
6102.58
6101.62
6100.86
6100.36
6099.79
6099.43
6098.78
6098.31
6097.11
6097.18
6097.17
6097.11
6096.69
6097.35
6097.64
6097.64
6097.64
6097.54
6098.41
6098.41
6098.41
6098.83
6100.1
6100.11
6100.1
6100.88
6100.88
6101.96
6102.41
6103.91
6104.22
6106.04
6106.31
6107.38
6108.4
6109.82
6110.6
6112.29
6113.32
6115.01
6116.06
6118.01
6118.99
6121.22
6122.42
6125.1
6126.48
6129.89
6131.33
6136.78
6137.36
6177.79
6354.23
111938
8229.76
7601.06
7202.96
6947.3
6773.57
6649.38
6556.4
6484.84
6428.05
6382.41
6344.79
6313.71
6287.39
6265.22
6246.04
6229.67
6215.25
6202.85
6191.73
6182.13
6173.39
6165.8
6158.8
6152.79
6147.14
6142.21
6137.55
6133.61
6129.77
6126.47
6123.28
6120.58
6117.9
6115.75
6113.5
6111.63
6109.7
6108.29
6106.66
6105.36
6103.98
6103.15
6101.76
6100.8
6100.03
6099.54
6098.96
6098.6
6097.95
6097.48
6096.28
6096.35
6096.34
6096.28
6095.86
6096.51
6096.81
6096.81
6096.81
6096.71
6097.57
6097.57
6097.57
6097.99
6099.26
6099.27
6099.26
6100.04
6100.04
6101.12
6101.56
6103.07
6103.38
6105.2
6105.47
6106.53
6107.56
6108.98
6109.76
6111.45
6112.48
6114.16
6115.21
6117.17
6118.15
6120.38
6121.58
6124.25
6125.64
6129.04
6130.48
6135.93
6136.51
6177.1
6353.59
108155
8229.79
7600.95
7202.64
6946.78
6772.9
6648.59
6555.52
6483.89
6427.04
6381.34
6343.69
6312.57
6286.21
6264.02
6244.82
6228.43
6214
6201.58
6190.45
6180.83
6172.08
6164.47
6157.47
6151.45
6145.79
6140.86
6136.19
6132.24
6128.41
6125.1
6121.9
6119.2
6116.52
6114.36
6112.11
6110.23
6108.3
6106.89
6105.26
6103.95
6102.58
6101.74
6100.35
6099.38
6098.61
6098.12
6097.54
6097.18
6096.53
6096.06
6094.86
6094.92
6094.92
6094.85
6094.43
6095.08
6095.37
6095.37
6095.37
6095.27
6096.14
6096.14
6096.14
6096.55
6097.82
6097.83
6097.83
6098.6
6098.6
6099.68
6100.12
6101.63
6101.93
6103.76
6104.03
6105.09
6106.11
6107.53
6108.31
6110
6111.03
6112.72
6113.76
6115.72
6116.7
6118.93
6120.13
6122.8
6124.19
6127.59
6129.03
6134.47
6135.04
6175.88
6352.42
104267
8229.83
7600.78
7202.17
6946.04
6771.94
6647.46
6554.26
6482.52
6425.59
6379.82
6342.11
6310.94
6284.54
6262.31
6243.08
6226.66
6212.2
6199.76
6188.61
6178.97
6170.21
6162.59
6155.57
6149.55
6143.88
6138.93
6134.25
6130.3
6126.45
6123.14
6119.93
6117.23
6114.54
6112.38
6110.13
6108.24
6106.31
6104.89
6103.26
6101.95
6100.57
6099.73
6098.34
6097.37
6096.6
6096.1
6095.52
6095.16
6094.5
6094.03
6092.83
6092.89
6092.89
6092.82
6092.39
6093.04
6093.33
6093.33
6093.33
6093.23
6094.09
6094.09
6094.09
6094.5
6095.77
6095.78
6095.78
6096.55
6096.55
6097.63
6098.07
6099.57
6099.88
6101.7
6101.97
6103.03
6104.05
6105.48
6106.25
6107.94
6108.97
6110.65
6111.7
6113.66
6114.64
6116.86
6118.06
6120.73
6122.12
6125.52
6126.95
6132.4
6132.95
6174.14
6350.68
100377
8229.89
7600.57
7201.56
6945.07
6770.69
6645.99
6552.62
6480.75
6423.69
6377.84
6340.04
6308.81
6282.36
6260.08
6240.8
6224.35
6209.86
6197.39
6186.22
6176.56
6167.77
6160.14
6153.1
6147.06
6141.38
6136.42
6131.73
6127.76
6123.91
6120.59
6117.37
6114.66
6111.97
6109.8
6107.54
6105.65
6103.71
6102.28
6100.65
6099.33
6097.95
6097.11
6095.71
6094.74
6093.96
6093.47
6092.88
6092.52
6091.86
6091.39
6090.19
6090.24
6090.24
6090.17
6089.73
6090.39
6090.67
6090.67
6090.67
6090.56
6091.42
6091.42
6091.42
6091.83
6093.1
6093.1
6093.1
6093.87
6093.87
6094.96
6095.39
6096.89
6097.19
6099.01
6099.29
6100.35
6101.37
6102.79
6103.57
6105.25
6106.28
6107.96
6109.01
6110.96
6111.94
6114.17
6115.36
6118.03
6119.42
6122.81
6124.25
6129.69
6130.23
6171.86
6348.33
96525.9
8229.97
7600.31
7200.81
6943.88
6769.15
6644.18
6550.59
6478.55
6421.36
6375.38
6337.49
6306.18
6279.66
6257.32
6237.99
6221.5
6206.96
6194.46
6183.25
6173.56
6164.76
6157.1
6150.04
6143.98
6138.28
6133.31
6128.6
6124.62
6120.76
6117.43
6114.2
6111.48
6108.78
6106.6
6104.33
6102.44
6100.49
6099.06
6097.42
6096.1
6094.71
6093.86
6092.46
6091.49
6090.71
6090.2
6089.62
6089.25
6088.59
6088.12
6086.92
6086.96
6086.95
6086.88
6086.44
6087.09
6087.37
6087.37
6087.37
6087.26
6088.12
6088.12
6088.12
6088.52
6089.79
6089.79
6089.79
6090.56
6090.56
6091.64
6092.07
6093.57
6093.87
6095.69
6095.97
6097.03
6098.04
6099.46
6100.24
6101.92
6102.94
6104.63
6105.68
6107.63
6108.61
6110.83
6112.02
6114.69
6116.07
6119.47
6120.9
6126.34
6126.86
6169.05
6345.35
92731.8
8230.06
7600
7199.91
6942.45
6767.31
6642.01
6548.16
6475.92
6418.56
6372.45
6334.45
6303.03
6276.43
6254.02
6234.63
6218.08
6203.5
6190.95
6179.71
6169.99
6161.15
6153.46
6146.38
6140.3
6134.58
6129.59
6124.87
6120.87
6116.99
6113.65
6110.41
6107.68
6104.96
6102.78
6100.5
6098.6
6096.64
6095.2
6093.56
6092.23
6090.84
6089.98
6088.58
6087.6
6086.81
6086.3
6085.71
6085.34
6084.67
6084.2
6083.01
6083.04
6083.03
6082.95
6082.51
6083.16
6083.43
6083.43
6083.43
6083.32
6084.17
6084.17
6084.17
6084.57
6085.83
6085.83
6085.83
6086.59
6086.6
6087.68
6088.1
6089.6
6089.9
6091.71
6091.99
6093.05
6094.06
6095.49
6096.26
6097.94
6098.96
6100.65
6101.69
6103.64
6104.62
6106.84
6108.03
6110.69
6112.07
6115.46
6116.89
6122.32
6122.83
6165.68
6341.74
89003.9
8230.16
7599.64
7198.87
6940.8
6765.16
6639.48
6545.34
6472.85
6415.3
6369.03
6330.89
6299.37
6272.67
6250.17
6230.71
6214.1
6199.46
6186.86
6175.57
6165.81
6156.94
6149.22
6142.11
6136
6130.26
6125.25
6120.51
6116.49
6112.6
6109.24
6105.98
6103.24
6100.51
6098.31
6096.03
6094.11
6092.15
6090.7
6089.05
6087.71
6086.31
6085.45
6084.05
6083.06
6082.26
6081.75
6081.15
6080.78
6080.11
6079.64
6078.44
6078.47
6078.45
6078.37
6077.92
6078.56
6078.83
6078.83
6078.83
6078.71
6079.55
6079.56
6079.55
6079.95
6081.21
6081.21
6081.21
6081.97
6081.97
6083.06
6083.47
6084.97
6085.26
6087.07
6087.36
6088.42
6089.42
6090.84
6091.61
6093.29
6094.31
6096
6097.04
6098.99
6099.96
6102.18
6103.37
6106.03
6107.41
6110.79
6112.21
6117.64
6118.12
6161.75
6337.49
85344.8
8230.28
7599.23
7197.68
6938.91
6762.71
6636.6
6542.11
6469.35
6411.57
6365.12
6326.83
6295.17
6268.36
6245.77
6226.22
6209.53
6194.83
6182.18
6170.84
6161.03
6152.12
6144.37
6137.22
6131.08
6125.31
6120.27
6115.51
6111.48
6107.56
6104.18
6100.91
6098.16
6095.41
6093.2
6090.9
6088.98
6087
6085.55
6083.88
6082.54
6081.13
6080.26
6078.85
6077.86
6077.05
6076.53
6075.93
6075.55
6074.88
6074.4
6073.21
6073.22
6073.2
6073.11
6072.65
6073.3
6073.55
6073.56
6073.55
6073.43
6074.27
6074.27
6074.27
6074.66
6075.91
6075.92
6075.92
6076.67
6076.67
6077.76
6078.16
6079.66
6079.95
6081.75
6082.04
6083.1
6084.1
6085.52
6086.29
6087.96
6088.98
6090.67
6091.7
6093.66
6094.63
6096.84
6098.03
6100.68
6102.06
6105.44
6106.85
6112.28
6112.73
6157.27
6332.58
81752.7
8230.42
7598.78
7196.35
6936.79
6759.96
6633.35
6538.47
6465.4
6407.37
6360.71
6322.24
6290.43
6263.49
6240.79
6221.15
6204.38
6189.61
6176.89
6165.49
6155.64
6146.68
6138.88
6131.7
6125.53
6119.72
6114.66
6109.87
6105.81
6101.87
6098.48
6095.19
6092.41
6089.65
6087.43
6085.11
6083.18
6081.19
6079.72
6078.05
6076.7
6075.28
6074.4
6072.98
6071.98
6071.17
6070.64
6070.03
6069.65
6068.97
6068.49
6067.3
6067.3
6067.28
6067.18
6066.71
6067.35
6067.6
6067.6
6067.6
6067.47
6068.3
6068.3
6068.3
6068.68
6069.93
6069.93
6069.93
6070.69
6070.69
6071.77
6072.16
6073.66
6073.95
6075.74
6076.04
6077.1
6078.09
6079.51
6080.28
6081.94
6082.96
6084.65
6085.68
6087.63
6088.6
6090.81
6092
6094.64
6096.02
6099.39
6100.8
6106.22
6106.64
6152.21
6327.02
78222.1
8230.57
7598.28
7194.88
6934.43
6756.89
6629.73
6534.42
6461
6402.68
6355.79
6317.12
6285.15
6258.07
6235.25
6215.5
6198.64
6183.78
6170.99
6159.53
6149.61
6140.6
6132.76
6125.53
6119.32
6113.48
6108.39
6103.57
6099.49
6095.52
6092.1
6088.79
6086
6083.22
6080.98
6078.65
6076.7
6074.7
6073.22
6071.53
6070.17
6068.74
6067.85
6066.43
6065.42
6064.6
6064.06
6063.44
6063.05
6062.37
6061.89
6060.7
6060.69
6060.66
6060.55
6060.07
6060.71
6060.95
6060.95
6060.94
6060.81
6061.63
6061.63
6061.63
6062.01
6063.25
6063.25
6063.25
6064
6064
6065.08
6065.47
6066.96
6067.24
6069.03
6069.33
6070.39
6071.38
6072.8
6073.56
6075.22
6076.24
6077.92
6078.95
6080.9
6081.87
6084.07
6085.26
6087.9
6089.27
6092.63
6094.03
6099.45
6099.84
6146.58
6320.78
74745
8230.74
7597.73
7193.26
6931.83
6753.51
6625.74
6529.95
6456.14
6397.51
6350.35
6311.47
6279.31
6252.07
6229.11
6209.25
6192.28
6177.33
6164.46
6152.93
6142.95
6133.88
6125.99
6118.71
6112.46
6106.58
6101.46
6096.6
6092.49
6088.5
6085.06
6081.72
6078.91
6076.11
6073.85
6071.5
6069.54
6067.52
6066.02
6064.32
6062.96
6061.51
6060.61
6059.18
6058.16
6057.33
6056.78
6056.15
6055.76
6055.07
6054.58
6053.4
6053.37
6053.33
6053.22
6052.73
6053.36
6053.59
6053.59
6053.58
6053.45
6054.26
6054.26
6054.26
6054.63
6055.86
6055.86
6055.86
6056.6
6056.6
6057.69
6058.06
6059.55
6059.82
6061.6
6061.91
6062.97
6063.95
6065.37
6066.13
6067.78
6068.8
6070.48
6071.51
6073.45
6074.42
6076.62
6077.8
6080.43
6081.8
6085.16
6086.55
6091.96
6092.31
6140.35
6313.86
71328
8230.92
7597.14
7191.5
6929
6749.82
6621.37
6525.05
6450.81
6391.84
6344.39
6305.27
6272.91
6245.49
6222.39
6202.39
6185.31
6170.26
6157.3
6145.69
6135.64
6126.51
6118.56
6111.23
6104.93
6099.01
6093.85
6088.96
6084.81
6080.79
6077.32
6073.96
6071.12
6068.3
6066.02
6063.65
6061.67
6059.64
6058.13
6056.41
6055.03
6053.57
6052.66
6051.22
6050.19
6049.34
6048.79
6048.15
6047.75
6047.05
6046.56
6045.39
6045.34
6045.29
6045.17
6044.67
6045.29
6045.51
6045.51
6045.5
6045.36
6046.16
6046.16
6046.16
6046.52
6047.74
6047.75
6047.74
6048.48
6048.48
6049.56
6049.92
6051.41
6051.68
6053.45
6053.77
6054.82
6055.79
6057.22
6057.97
6059.62
6060.63
6062.31
6063.33
6065.28
6066.24
6068.43
6069.61
6072.24
6073.6
6076.95
6078.33
6083.73
6084.05
6133.53
6306.24
67977.1
8231.12
7596.51
7189.59
6925.93
6745.81
6616.63
6519.72
6445.02
6385.67
6337.91
6298.52
6265.94
6238.33
6215.06
6194.92
6177.72
6162.56
6149.5
6137.8
6127.68
6118.47
6110.46
6103.08
6096.73
6090.76
6085.55
6080.62
6076.44
6072.38
6068.88
6065.49
6062.63
6059.79
6057.48
6055.09
6053.1
6051.04
6049.51
6047.79
6046.39
6044.91
6043.99
6042.55
6041.5
6040.64
6040.07
6039.42
6039.01
6038.31
6037.82
6036.65
6036.58
6036.52
6036.39
6035.88
6036.49
6036.7
6036.7
6036.69
6036.54
6037.33
6037.33
6037.33
6037.68
6038.89
6038.9
6038.89
6039.62
6039.63
6040.7
6041.05
6042.54
6042.8
6044.56
6044.88
6045.94
6046.9
6048.32
6049.07
6050.71
6051.72
6053.4
6054.42
6056.36
6057.32
6059.51
6060.68
6063.3
6064.65
6067.99
6069.37
6074.76
6075.04
6126.11
6297.93
64698
8231.34
7595.83
7187.55
6922.62
6741.49
6611.51
6513.97
6438.76
6378.99
6330.89
6291.21
6258.39
6230.57
6207.13
6186.83
6169.49
6154.21
6141.05
6129.25
6119.04
6109.76
6101.68
6094.24
6087.83
6081.81
6076.56
6071.59
6067.36
6063.27
6059.74
6056.32
6053.43
6050.55
6048.23
6045.82
6043.8
6041.72
6040.18
6038.43
6037.02
6035.53
6034.59
6033.14
6032.08
6031.2
6030.62
6029.96
6029.54
6028.83
6028.34
6027.16
6027.08
6027.01
6026.87
6026.35
6026.95
6027.14
6027.14
6027.14
6026.98
6027.75
6027.75
6027.75
6028.09
6029.29
6029.3
6029.29
6030.02
6030.02
6031.1
6031.43
6032.91
6033.17
6034.91
6035.25
6036.3
6037.25
6038.68
6039.42
6041.05
6042.06
6043.74
6044.75
6046.68
6047.65
6049.82
6051
6053.61
6054.95
6058.28
6059.65
6065.03
6065.27
6118.06
6288.9
61495.8
8231.58
7595.12
7185.36
6919.08
6736.85
6606
6507.78
6432.02
6371.8
6323.33
6283.34
6250.26
6222.22
6198.57
6178.11
6160.62
6145.21
6131.93
6120.03
6109.74
6100.37
6092.22
6084.7
6078.24
6072.16
6066.86
6061.84
6057.57
6053.44
6049.88
6046.42
6043.5
6040.6
6038.24
6035.81
6033.77
6031.67
6030.1
6028.34
6026.92
6025.4
6024.45
6022.99
6021.92
6021.02
6020.43
6019.75
6019.32
6018.6
6018.1
6016.93
6016.83
6016.75
6016.6
6016.06
6016.65
6016.83
6016.83
6016.83
6016.66
6017.42
6017.42
6017.42
6017.74
6018.93
6018.94
6018.94
6019.65
6019.66
6020.73
6021.04
6022.52
6022.77
6024.51
6024.85
6025.9
6026.84
6028.27
6029
6030.63
6031.63
6033.3
6034.31
6036.25
6037.21
6039.38
6040.54
6043.14
6044.48
6047.8
6049.16
6054.53
6054.73
6109.39
6279.14
58375.5
8231.83
7594.37
7183.04
6915.3
6731.89
6600.11
6501.15
6424.8
6364.1
6315.23
6274.91
6241.53
6213.25
6189.4
6168.75
6151.1
6135.55
6122.15
6110.14
6099.74
6090.29
6082.06
6074.47
6067.94
6061.8
6056.44
6051.37
6047.06
6042.89
6039.28
6035.79
6032.84
6029.9
6027.52
6025.06
6023
6020.87
6019.28
6017.5
6016.06
6014.52
6013.56
6012.08
6011
6010.08
6009.48
6008.78
6008.35
6007.61
6007.11
6005.94
6005.82
6005.72
6005.56
6005.01
6005.59
6005.76
6005.76
6005.75
6005.57
6006.32
6006.32
6006.31
6006.62
6007.81
6007.81
6007.81
6008.52
6008.52
6009.59
6009.88
6011.36
6011.6
6013.33
6013.67
6014.73
6015.65
6017.08
6017.81
6019.42
6020.42
6022.1
6023.1
6025.03
6025.99
6028.15
6029.31
6031.9
6033.24
6036.54
6037.88
6043.24
6043.4
6100.08
6268.64
55341.5
8232.1
7593.58
7180.58
6911.28
6726.61
6593.84
6494.09
6417.1
6355.88
6306.58
6265.89
6232.22
6203.67
6179.59
6158.74
6140.93
6125.22
6111.69
6099.56
6089.05
6079.5
6071.19
6063.52
6056.92
6050.71
6045.3
6040.17
6035.81
6031.59
6027.95
6024.42
6021.43
6018.46
6016.05
6013.55
6011.47
6009.32
6007.7
6005.9
6004.44
6002.88
6001.9
6000.41
5999.31
5998.37
5997.75
5997.04
5996.6
5995.85
5995.35
5994.18
5994.03
5993.92
5993.76
5993.19
5993.75
5993.9
5993.9
5993.89
5993.7
5994.43
5994.44
5994.43
5994.73
5995.89
5995.9
5995.9
5996.6
5996.6
5997.66
5997.94
5999.41
5999.65
6001.36
6001.71
6002.77
6003.68
6005.11
6005.83
6007.43
6008.43
6010.1
6011.09
6013.02
6013.98
6016.13
6017.28
6019.86
6021.19
6024.49
6025.82
6031.16
6031.28
6090.12
6257.38
52397.9
8232.39
7592.75
7177.98
6907.03
6721.01
6587.18
6486.58
6408.91
6347.13
6297.37
6256.3
6222.29
6193.47
6169.15
6148.09
6130.09
6114.22
6100.54
6088.28
6077.66
6068.01
6059.6
6051.85
6045.17
6038.9
6033.42
6028.24
6023.82
6019.55
6015.87
6012.29
6009.26
6006.26
6003.81
6001.29
5999.17
5996.99
5995.36
5993.53
5992.05
5990.47
5989.46
5987.96
5986.85
5985.89
5985.25
5984.52
5984.07
5983.31
5982.8
5981.63
5981.46
5981.34
5981.16
5980.57
5981.12
5981.26
5981.26
5981.25
5981.04
5981.76
5981.76
5981.75
5982.03
5983.19
5983.19
5983.19
5983.88
5983.88
5984.95
5985.21
5986.67
5986.9
5988.6
5988.95
5990.01
5990.91
5992.33
5993.05
5994.64
5995.63
5997.3
5998.29
6000.21
6001.16
6003.31
6004.46
6007.03
6008.35
6011.63
6012.94
6018.27
6018.35
6079.49
6245.35
49548.5
8232.7
7591.89
7175.26
6902.56
6715.1
6580.13
6478.63
6400.24
6337.86
6287.61
6246.12
6211.77
6182.64
6158.06
6136.77
6118.58
6102.53
6088.7
6076.3
6065.56
6055.8
6047.29
6039.45
6032.69
6026.34
6020.8
6015.55
6011.08
6006.76
6003.02
5999.4
5996.33
5993.29
5990.81
5988.25
5986.11
5983.89
5982.23
5980.38
5978.88
5977.27
5976.25
5974.73
5973.59
5972.61
5971.96
5971.21
5970.75
5969.97
5969.46
5968.29
5968.09
5967.96
5967.77
5967.16
5967.7
5967.82
5967.82
5967.8
5967.58
5968.28
5968.29
5968.28
5968.54
5969.68
5969.68
5969.68
5970.37
5970.36
5971.42
5971.66
5973.12
5973.34
5975.02
5975.39
5976.44
5977.32
5978.75
5979.46
5981.04
5982.03
5983.69
5984.67
5986.59
5987.54
5989.67
5990.82
5993.37
5994.69
5997.96
5999.25
6004.57
6004.6
6068.18
6232.53
46796.7
8233.02
7591.01
7172.41
6897.85
6708.88
6572.7
6470.24
6391.07
6328.06
6277.28
6235.35
6200.62
6171.17
6146.32
6124.79
6106.39
6090.15
6076.16
6063.61
6052.75
6042.86
6034.25
6026.31
6019.46
6013.03
6007.42
6002.11
5997.58
5993.2
5989.41
5985.74
5982.63
5979.54
5977.02
5974.43
5972.25
5970.01
5968.32
5966.43
5964.91
5963.28
5962.23
5960.7
5959.55
5958.54
5957.87
5957.1
5956.62
5955.84
5955.32
5954.14
5953.92
5953.77
5953.57
5952.95
5953.46
5953.57
5953.57
5953.55
5953.31
5954
5954
5953.99
5954.23
5955.35
5955.36
5955.36
5956.03
5956.03
5957.08
5957.3
5958.75
5958.96
5960.63
5961
5962.06
5962.92
5964.35
5965.04
5966.62
5967.6
5969.26
5970.23
5972.14
5973.09
5975.21
5976.35
5978.89
5980.2
5983.45
5984.74
5990.03
5990.03
6056.17
6218.89
44145.5
8233.36
7590.09
7169.44
6892.92
6702.34
6564.88
6461.4
6381.41
6317.73
6266.39
6223.99
6188.87
6159.07
6133.93
6112.14
6093.51
6077.08
6062.91
6050.21
6039.2
6029.19
6020.47
6012.42
6005.48
5998.97
5993.28
5987.89
5983.3
5978.86
5975.02
5971.3
5968.14
5965
5962.45
5959.81
5957.61
5955.33
5953.6
5951.69
5950.15
5948.49
5947.42
5945.87
5944.69
5943.66
5942.97
5942.18
5941.69
5940.88
5940.36
5939.18
5938.94
5938.77
5938.56
5937.91
5938.41
5938.5
5938.5
5938.48
5938.22
5938.88
5938.89
5938.88
5939.1
5940.2
5940.21
5940.21
5940.87
5940.86
5941.91
5942.11
5943.56
5943.76
5945.41
5945.78
5946.84
5947.69
5949.11
5949.8
5951.37
5952.33
5953.99
5954.96
5956.86
5957.8
5959.91
5961.05
5963.58
5964.87
5968.11
5969.38
5974.64
5974.61
6043.44
6204.42
41597.7
8233.72
7589.15
7166.34
6887.77
6695.49
6556.68
6452.12
6371.26
6306.86
6254.93
6212.03
6176.49
6146.33
6120.87
6098.81
6079.95
6063.3
6048.95
6036.08
6024.93
6014.78
6005.94
5997.78
5990.75
5984.14
5978.37
5972.91
5968.25
5963.74
5959.84
5956.06
5952.86
5949.67
5947.07
5944.4
5942.16
5939.84
5938.09
5936.14
5934.57
5932.88
5931.79
5930.22
5929.02
5927.96
5927.25
5926.44
5925.93
5925.11
5924.58
5923.4
5923.13
5922.94
5922.71
5922.05
5922.52
5922.6
5922.6
5922.57
5922.3
5922.94
5922.94
5922.93
5923.13
5924.22
5924.22
5924.22
5924.87
5924.87
5925.9
5926.09
5927.52
5927.71
5929.35
5929.72
5930.78
5931.61
5933.03
5933.71
5935.27
5936.23
5937.88
5938.84
5940.73
5941.67
5943.77
5944.9
5947.41
5948.7
5951.92
5953.17
5958.41
5958.35
6029.98
6189.09
39155.6
8234.1
7588.19
7163.13
6882.4
6688.33
6548.1
6442.4
6360.62
6295.46
6242.9
6199.48
6163.48
6132.94
6107.15
6084.8
6065.69
6048.82
6034.27
6021.22
6009.91
5999.62
5990.66
5982.38
5975.24
5968.54
5962.69
5957.14
5952.4
5947.83
5943.87
5940.03
5936.78
5933.54
5930.89
5928.18
5925.9
5923.54
5921.75
5919.78
5918.18
5916.46
5915.33
5913.75
5912.53
5911.44
5910.71
5909.87
5909.34
5908.51
5907.96
5906.78
5906.48
5906.27
5906.04
5905.35
5905.8
5905.86
5905.86
5905.82
5905.53
5906.15
5906.16
5906.15
5906.32
5907.39
5907.39
5907.39
5908.02
5908.02
5909.05
5909.21
5910.64
5910.82
5912.43
5912.81
5913.88
5914.68
5916.1
5916.77
5918.32
5919.27
5920.92
5921.86
5923.75
5924.69
5926.77
5927.89
5930.39
5931.67
5934.88
5936.11
5941.33
5941.22
6015.77
6172.87
36821.1
8234.5
7587.21
7159.8
6876.81
6680.87
6539.14
6432.24
6349.48
6283.53
6230.31
6186.32
6149.85
6118.91
6092.77
6070.11
6050.72
6033.62
6018.86
6005.63
5994.15
5983.71
5974.61
5966.21
5958.96
5952.16
5946.22
5940.58
5935.77
5931.12
5927.1
5923.2
5919.89
5916.6
5913.9
5911.14
5908.82
5906.42
5904.59
5902.59
5900.96
5899.2
5898.05
5896.44
5895.2
5894.08
5893.32
5892.46
5891.91
5891.06
5890.51
5889.32
5888.99
5888.76
5888.51
5887.81
5888.23
5888.27
5888.27
5888.23
5887.92
5888.52
5888.52
5888.51
5888.66
5889.7
5889.7
5889.7
5890.32
5890.32
5891.34
5891.48
5892.89
5893.06
5894.66
5895.04
5896.11
5896.89
5898.31
5898.97
5900.5
5901.45
5903.09
5904.03
5905.91
5906.84
5908.91
5910.02
5912.51
5913.77
5916.96
5918.17
5923.37
5923.22
6000.78
6155.73
34596
8234.92
7586.21
7156.37
6871.02
6673.11
6529.8
6421.63
6337.85
6271.06
6217.14
6172.56
6135.59
6104.22
6077.71
6054.73
6035.06
6017.7
6002.73
5989.29
5977.64
5967.04
5957.8
5949.27
5941.9
5934.99
5928.95
5923.23
5918.33
5913.61
5909.52
5905.55
5902.18
5898.83
5896.09
5893.27
5890.91
5888.47
5886.6
5884.56
5882.9
5881.11
5879.93
5878.29
5877.03
5875.88
5875.09
5874.2
5873.64
5872.76
5872.2
5871.01
5870.65
5870.39
5870.14
5869.41
5869.8
5869.83
5869.83
5869.78
5869.45
5870.02
5870.02
5870.01
5870.13
5871.15
5871.15
5871.16
5871.76
5871.76
5872.76
5872.89
5874.28
5874.44
5876.02
5876.4
5877.47
5878.23
5879.65
5880.3
5881.82
5882.75
5884.39
5885.31
5887.18
5888.11
5890.17
5891.27
5893.74
5894.99
5898.17
5899.36
5904.53
5904.35
5985
6137.62
32481.5
8235.35
7585.19
7152.84
6865.03
6665.06
6520.09
6410.59
6325.73
6258.05
6203.39
6158.2
6120.7
6088.87
6061.97
6038.65
6018.69
6001.07
5985.86
5972.21
5960.38
5949.61
5940.22
5931.55
5924.06
5917.03
5910.89
5905.07
5900.09
5895.28
5891.12
5887.08
5883.65
5880.24
5877.44
5874.58
5872.17
5869.69
5867.78
5865.69
5864
5862.17
5860.96
5859.3
5858
5856.82
5856.01
5855.09
5854.51
5853.61
5853.04
5851.84
5851.45
5851.17
5850.9
5850.16
5850.51
5850.52
5850.52
5850.46
5850.11
5850.65
5850.65
5850.65
5850.74
5851.73
5851.73
5851.73
5852.32
5852.32
5853.31
5853.42
5854.8
5854.95
5856.51
5856.89
5857.95
5858.7
5860.11
5860.75
5862.25
5863.17
5864.81
5865.72
5867.58
5868.5
5870.55
5871.64
5874.09
5875.33
5878.48
5879.65
5884.81
5884.58
5968.39
6118.53
30478.9
8235.81
7584.17
7149.21
6858.83
6656.71
6510.01
6399.12
6313.13
6244.51
6189.08
6143.23
6105.18
6072.87
6045.56
6021.88
6001.6
5983.7
5968.25
5954.38
5942.35
5931.41
5921.86
5913.04
5905.42
5898.28
5892.03
5886.1
5881.03
5876.14
5871.9
5867.79
5864.3
5860.82
5857.96
5855.04
5852.59
5850.06
5848.1
5845.97
5844.25
5842.38
5841.13
5839.45
5838.13
5836.91
5836.07
5835.12
5834.51
5833.6
5833.01
5831.8
5831.39
5831.08
5830.79
5830.03
5830.34
5830.35
5830.34
5830.27
5829.89
5830.41
5830.41
5830.41
5830.46
5831.43
5831.43
5831.43
5832
5832
5832.98
5833.06
5834.43
5834.57
5836.1
5836.48
5837.55
5838.27
5839.67
5840.31
5841.79
5842.7
5844.33
5845.23
5847.08
5848
5850.03
5851.11
5853.54
5854.77
5857.9
5859.05
5864.19
5863.92
5950.9
6098.44
28589
8236.28
7583.13
7145.49
6852.45
6648.09
6499.57
6387.22
6300.04
6230.44
6174.2
6127.66
6089.03
6056.22
6028.47
6004.41
5983.8
5965.61
5949.9
5935.8
5923.56
5912.43
5902.72
5893.75
5885.99
5878.72
5872.36
5866.33
5861.16
5856.17
5851.86
5847.67
5844.1
5840.56
5837.64
5834.66
5832.16
5829.58
5827.57
5825.4
5823.64
5821.73
5820.45
5818.74
5817.38
5816.13
5815.26
5814.28
5813.65
5812.71
5812.11
5810.89
5810.44
5810.1
5809.81
5809.03
5809.3
5809.3
5809.28
5809.19
5808.79
5809.29
5809.28
5809.28
5809.3
5810.24
5810.24
5810.25
5810.79
5810.79
5811.75
5811.82
5813.17
5813.29
5814.81
5815.19
5816.26
5816.95
5818.35
5818.97
5820.44
5821.34
5822.96
5823.85
5825.68
5826.6
5828.61
5829.69
5832.1
5833.31
5836.42
5837.55
5842.67
5842.35
5932.47
6077.32
26812.7
8236.76
7582.1
7141.68
6845.89
6639.18
6488.77
6374.89
6286.47
6215.84
6158.74
6111.49
6072.24
6038.9
6010.71
5986.25
5965.29
5946.79
5930.81
5916.47
5904.01
5892.68
5882.79
5873.66
5865.76
5858.35
5851.87
5845.73
5840.46
5835.38
5830.98
5826.71
5823.07
5819.46
5816.47
5813.43
5810.88
5808.24
5806.19
5803.97
5802.17
5800.22
5798.89
5797.15
5795.77
5794.48
5793.58
5792.56
5791.91
5790.94
5790.33
5789.1
5788.62
5788.25
5787.94
5787.14
5787.36
5787.36
5787.33
5787.23
5786.81
5787.27
5787.27
5787.27
5787.25
5788.16
5788.16
5788.16
5788.69
5788.69
5789.63
5789.68
5791.01
5791.12
5792.62
5792.99
5794.06
5794.73
5796.12
5796.73
5798.18
5799.07
5800.68
5801.56
5803.38
5804.28
5806.28
5807.35
5809.74
5810.94
5814.03
5815.13
5820.23
5819.87
5913.07
6055.15
25150.6
8237.27
7581.06
7137.8
6839.14
6630.01
6477.63
6362.14
6272.42
6200.72
6142.73
6094.71
6054.83
6020.94
5992.26
5967.38
5946.06
5927.24
5910.97
5896.37
5883.69
5872.15
5862.08
5852.78
5844.72
5837.17
5830.57
5824.31
5818.93
5813.75
5809.27
5804.9
5801.19
5797.5
5794.45
5791.35
5788.74
5786.04
5783.94
5781.68
5779.83
5777.84
5776.47
5774.7
5773.28
5771.95
5771.02
5769.96
5769.28
5768.29
5767.67
5766.43
5765.91
5765.51
5765.19
5764.37
5764.54
5764.54
5764.49
5764.37
5763.93
5764.36
5764.36
5764.35
5764.3
5765.18
5765.18
5765.18
5765.68
5765.68
5766.6
5766.64
5767.95
5768.04
5769.52
5769.88
5770.95
5771.59
5772.98
5773.57
5775.02
5775.89
5777.49
5778.36
5780.16
5781.06
5783.04
5784.1
5786.46
5787.65
5790.71
5791.8
5796.87
5796.47
5892.63
6031.9
23603
8237.79
7580.03
7133.84
6832.23
6620.58
6466.13
6348.98
6257.9
6185.08
6126.15
6077.34
6036.79
6002.31
5973.14
5947.82
5926.12
5906.95
5890.39
5875.52
5862.6
5850.84
5840.58
5831.1
5822.88
5815.19
5808.45
5802.07
5796.58
5791.29
5786.71
5782.26
5778.47
5774.7
5771.58
5768.41
5765.74
5762.98
5760.83
5758.51
5756.62
5754.58
5753.17
5751.37
5749.92
5748.54
5747.57
5746.48
5745.77
5744.75
5744.11
5742.86
5742.31
5741.88
5741.54
5740.7
5740.83
5740.81
5740.75
5740.62
5740.15
5740.55
5740.54
5740.53
5740.44
5741.29
5741.29
5741.29
5741.77
5741.77
5742.66
5742.69
5743.97
5744.06
5745.5
5745.86
5746.93
5747.55
5748.92
5749.51
5750.93
5751.79
5753.38
5754.23
5756.02
5756.91
5758.88
5759.92
5762.26
5763.44
5766.48
5767.54
5772.59
5772.15
5871.1
6007.55
22166
8238.33
7579
7129.82
6825.17
6610.89
6454.31
6335.42
6242.92
6168.92
6109.01
6059.38
6018.12
5983.04
5953.34
5927.56
5905.46
5885.94
5869.06
5853.91
5840.74
5828.75
5818.29
5808.62
5800.24
5792.38
5785.51
5778.99
5773.39
5767.99
5763.31
5758.77
5754.89
5751.04
5747.85
5744.6
5741.88
5739.05
5736.84
5734.47
5732.54
5730.44
5728.99
5727.15
5725.66
5724.24
5723.24
5722.11
5721.37
5720.32
5719.66
5718.4
5717.81
5717.34
5716.99
5716.13
5716.21
5716.18
5716.11
5715.95
5715.47
5715.83
5715.82
5715.81
5715.68
5716.49
5716.5
5716.49
5716.95
5716.94
5717.81
5717.82
5719.08
5719.15
5720.58
5720.92
5721.99
5722.58
5723.95
5724.51
5725.92
5726.76
5728.34
5729.18
5730.95
5731.84
5733.78
5734.81
5737.13
5738.29
5741.31
5742.34
5747.37
5746.89
5848.42
5982.07
20834.6
8238.88
7577.98
7125.75
6817.95
6600.96
6442.16
6321.46
6227.47
6152.25
6091.32
6040.82
5998.83
5963.11
5932.87
5906.61
5884.09
5864.19
5846.98
5831.54
5818.1
5805.88
5795.2
5785.34
5776.78
5768.76
5761.75
5755.09
5749.37
5743.85
5739.07
5734.42
5730.46
5726.52
5723.25
5719.93
5717.14
5714.25
5711.98
5709.55
5707.57
5705.42
5703.92
5702.04
5700.52
5699.05
5698.01
5696.84
5696.07
5694.99
5694.31
5693.03
5692.41
5691.91
5691.54
5690.67
5690.7
5690.65
5690.55
5690.38
5689.87
5690.2
5690.19
5690.17
5690.01
5690.78
5690.78
5690.78
5691.21
5691.2
5692.03
5692.04
5693.27
5693.33
5694.72
5695.05
5696.13
5696.68
5698.04
5698.6
5699.99
5700.81
5702.38
5703.2
5704.96
5705.83
5707.76
5708.78
5711.07
5712.22
5715.2
5716.22
5721.22
5720.69
5824.53
5955.42
19603.9
8239.45
7576.97
7121.62
6810.59
6590.8
6429.69
6307.11
6211.58
6135.09
6073.09
6021.69
5978.92
5942.54
5911.72
5884.96
5862
5841.72
5824.16
5808.41
5794.7
5782.22
5771.33
5761.26
5752.52
5744.33
5737.16
5730.36
5724.51
5718.87
5713.98
5709.23
5705.17
5701.14
5697.79
5694.39
5691.54
5688.58
5686.24
5683.75
5681.73
5679.52
5677.97
5676.05
5674.49
5672.97
5671.89
5670.68
5669.88
5668.76
5668.06
5666.77
5666.11
5665.56
5665.18
5664.3
5664.27
5664.2
5664.08
5663.9
5663.37
5663.65
5663.64
5663.61
5663.42
5664.15
5664.15
5664.14
5664.54
5664.54
5665.33
5665.33
5666.53
5666.58
5667.95
5668.26
5669.34
5669.86
5671.21
5671.75
5673.12
5673.93
5675.48
5676.29
5678.02
5678.89
5680.8
5681.8
5684.07
5685.2
5688.16
5689.14
5694.12
5693.56
5799.37
5927.59
18468.3
8240.03
7575.98
7117.45
6803.1
6580.41
6416.91
6292.38
6195.25
6117.43
6054.32
6001.97
5958.41
5921.33
5889.92
5862.63
5839.21
5818.52
5800.61
5784.52
5770.53
5757.79
5746.66
5736.38
5727.44
5719.08
5711.75
5704.8
5698.81
5693.05
5688.05
5683.18
5679.03
5674.9
5671.47
5667.99
5665.06
5662.03
5659.63
5657.08
5655
5652.73
5651.13
5649.17
5647.57
5646
5644.88
5643.62
5642.78
5641.63
5640.91
5639.6
5638.9
5638.32
5637.91
5637.02
5636.94
5636.84
5636.7
5636.5
5635.95
5636.19
5636.18
5636.14
5635.91
5636.6
5636.6
5636.59
5636.96
5636.95
5637.7
5637.7
5638.86
5638.9
5640.24
5640.54
5641.62
5642.1
5643.44
5643.96
5645.32
5646.1
5647.64
5648.44
5650.15
5651.01
5652.89
5653.89
5656.13
5657.24
5660.16
5661.13
5666.07
5665.48
5772.89
5898.53
17422.3
8240.63
7575.02
7113.25
6795.49
6569.82
6403.84
6277.28
6178.49
6099.28
6035.02
5981.69
5937.28
5899.49
5867.45
5839.61
5815.72
5794.59
5776.31
5759.89
5745.59
5732.58
5721.21
5710.7
5701.56
5693.01
5685.52
5678.41
5672.28
5666.38
5661.27
5656.29
5652.03
5647.81
5644.28
5640.71
5637.71
5634.6
5632.14
5629.52
5627.38
5625.06
5623.4
5621.39
5619.75
5618.13
5616.96
5615.66
5614.78
5613.59
5612.84
5611.52
5610.79
5610.16
5609.73
5608.82
5608.69
5608.56
5608.4
5608.19
5607.62
5607.81
5607.8
5607.75
5607.48
5608.12
5608.12
5608.11
5608.44
5608.44
5609.15
5609.15
5610.27
5610.29
5611.61
5611.88
5612.96
5613.41
5614.74
5615.24
5616.58
5617.34
5618.87
5619.65
5621.34
5622.19
5624.05
5625.02
5627.24
5628.33
5631.23
5632.17
5637.08
5636.45
5745.04
5868.23
16460.2
8241.24
7574.07
7109.03
6787.78
6559.03
6390.49
6261.83
6161.31
6080.66
6015.19
5960.84
5915.57
5877.02
5844.33
5815.92
5791.53
5769.96
5751.28
5734.5
5719.9
5706.6
5694.97
5684.23
5674.88
5666.13
5658.47
5651.2
5644.92
5638.88
5633.64
5628.54
5624.18
5619.85
5616.23
5612.57
5609.49
5606.3
5603.77
5601.08
5598.88
5596.5
5594.78
5592.73
5591.04
5589.36
5588.15
5586.79
5585.88
5584.65
5583.88
5582.53
5581.76