/*--------------------------------*- C++ -*----------------------------------*\
| =========                 |                                                 |
| \\      /  F ield         | OpenFOAM: The Open Source CFD Toolbox           |
|  \\    /   O peration     | Version:  v2012                                 |
|   \\  /    A nd           | Website:  www.openfoam.com                      |
|    \\/     M anipulation  |                                                 |
\*---------------------------------------------------------------------------*/
FoamFile
{
    version     2.0;
    format      ascii;
    class       volVectorField;
    location    "17.5";
    object      wallShearStress;
}
// * * * * * * * * * * * * * * * * * * * * * * * * * * * * * * * * * * * * * //

dimensions      [0 2 -2 0 0 0 0];


internalField   uniform (0 0 0);

boundaryField
{
    inlet
    {
        type            calculated;
        value           uniform (0 0 0);
    }
    outlet
    {
        type            calculated;
        value           uniform (0 0 0);
    }
    topWall
    {
        type            calculated;
        value           nonuniform List<vector> 
545
(
(3.30885e-08 -2.32704e-08 0)
(3.31224e-08 -6.52065e-08 0)
(3.30779e-08 -1.08787e-07 0)
(3.30248e-08 -1.51063e-07 0)
(3.29808e-08 -1.91522e-07 0)
(3.29284e-08 -2.30685e-07 0)
(3.28694e-08 -2.68886e-07 0)
(3.28043e-08 -3.06106e-07 0)
(3.27333e-08 -3.42264e-07 0)
(3.2657e-08 -3.77358e-07 0)
(3.25759e-08 -4.11435e-07 0)
(3.24904e-08 -4.44534e-07 0)
(3.2401e-08 -4.76678e-07 0)
(3.23081e-08 -5.07886e-07 0)
(3.22121e-08 -5.3818e-07 0)
(3.21134e-08 -5.67586e-07 0)
(3.20122e-08 -5.96128e-07 0)
(3.19089e-08 -6.23828e-07 0)
(3.18038e-08 -6.5071e-07 0)
(3.16972e-08 -6.76796e-07 0)
(3.15893e-08 -7.02108e-07 0)
(3.14804e-08 -7.26667e-07 0)
(3.13706e-08 -7.50497e-07 0)
(3.12603e-08 -7.73616e-07 0)
(3.11497e-08 -7.96047e-07 0)
(3.10388e-08 -8.17808e-07 0)
(3.09278e-08 -8.3892e-07 0)
(3.0817e-08 -8.59402e-07 0)
(3.07064e-08 -8.79272e-07 0)
(3.05962e-08 -8.98548e-07 0)
(3.04865e-08 -9.17249e-07 0)
(3.03774e-08 -9.35392e-07 0)
(3.02691e-08 -9.52993e-07 0)
(3.01615e-08 -9.70068e-07 0)
(3.00548e-08 -9.86635e-07 0)
(2.99491e-08 -1.00271e-06 0)
(2.98444e-08 -1.0183e-06 0)
(2.97408e-08 -1.03343e-06 0)
(2.96384e-08 -1.04811e-06 0)
(2.95371e-08 -1.06236e-06 0)
(2.94371e-08 -1.07618e-06 0)
(2.93383e-08 -1.08959e-06 0)
(2.92409e-08 -1.1026e-06 0)
(2.91447e-08 -1.11523e-06 0)
(2.90499e-08 -1.12749e-06 0)
(2.89565e-08 -1.13938e-06 0)
(2.88645e-08 -1.15092e-06 0)
(2.87738e-08 -1.16213e-06 0)
(2.86846e-08 -1.173e-06 0)
(2.85968e-08 -1.18356e-06 0)
(2.85103e-08 -1.1938e-06 0)
(2.84253e-08 -1.20375e-06 0)
(2.83417e-08 -1.2134e-06 0)
(2.82594e-08 -1.22277e-06 0)
(2.81786e-08 -1.23187e-06 0)
(2.80991e-08 -1.2407e-06 0)
(2.8021e-08 -1.24928e-06 0)
(2.79443e-08 -1.25761e-06 0)
(2.78689e-08 -1.26569e-06 0)
(2.77948e-08 -1.27355e-06 0)
(2.77221e-08 -1.28117e-06 0)
(2.76506e-08 -1.28857e-06 0)
(2.75804e-08 -1.29576e-06 0)
(2.75115e-08 -1.30275e-06 0)
(2.74437e-08 -1.30953e-06 0)
(2.73772e-08 -1.31612e-06 0)
(2.73119e-08 -1.32251e-06 0)
(2.72477e-08 -1.32873e-06 0)
(2.71847e-08 -1.33477e-06 0)
(2.71227e-08 -1.34062e-06 0)
(2.70625e-08 -1.34633e-06 0)
(2.69995e-08 -1.35186e-06 0)
(2.69403e-08 -1.35715e-06 0)
(2.68883e-08 -1.36232e-06 0)
(2.68359e-08 -1.36742e-06 0)
(2.67835e-08 -1.37248e-06 0)
(2.67313e-08 -1.37752e-06 0)
(2.66791e-08 -1.38253e-06 0)
(2.6627e-08 -1.38751e-06 0)
(2.65749e-08 -1.39245e-06 0)
(2.65228e-08 -1.39736e-06 0)
(2.64708e-08 -1.40224e-06 0)
(2.64189e-08 -1.40709e-06 0)
(2.6367e-08 -1.41191e-06 0)
(2.63152e-08 -1.41669e-06 0)
(2.62635e-08 -1.42144e-06 0)
(2.62118e-08 -1.42616e-06 0)
(2.61601e-08 -1.43086e-06 0)
(2.61085e-08 -1.43552e-06 0)
(2.6057e-08 -1.44015e-06 0)
(2.60056e-08 -1.44475e-06 0)
(2.59542e-08 -1.44932e-06 0)
(2.59032e-08 -1.45386e-06 0)
(2.58507e-08 -1.45833e-06 0)
(2.58049e-08 -1.46288e-06 0)
(2.57278e-08 -1.4673e-06 0)
(2.56485e-08 -1.4712e-06 0)
(2.56068e-08 -1.47495e-06 0)
(2.55653e-08 -1.47855e-06 0)
(2.55245e-08 -1.48205e-06 0)
(2.54838e-08 -1.48565e-06 0)
(2.54429e-08 -1.48926e-06 0)
(2.54018e-08 -1.49287e-06 0)
(2.53606e-08 -1.49647e-06 0)
(2.53192e-08 -1.50007e-06 0)
(2.52776e-08 -1.50368e-06 0)
(2.52358e-08 -1.50729e-06 0)
(2.51938e-08 -1.51091e-06 0)
(2.51516e-08 -1.51452e-06 0)
(2.51093e-08 -1.51814e-06 0)
(2.50667e-08 -1.52176e-06 0)
(2.5024e-08 -1.52538e-06 0)
(2.49811e-08 -1.52901e-06 0)
(2.4938e-08 -1.53264e-06 0)
(2.48947e-08 -1.53627e-06 0)
(2.48512e-08 -1.5399e-06 0)
(2.48075e-08 -1.54353e-06 0)
(2.47636e-08 -1.54717e-06 0)
(2.47195e-08 -1.55081e-06 0)
(2.46752e-08 -1.55445e-06 0)
(2.46308e-08 -1.55809e-06 0)
(2.45861e-08 -1.56174e-06 0)
(2.45413e-08 -1.56538e-06 0)
(2.44962e-08 -1.56903e-06 0)
(2.44509e-08 -1.57268e-06 0)
(2.44055e-08 -1.57633e-06 0)
(2.43598e-08 -1.57999e-06 0)
(2.4314e-08 -1.58364e-06 0)
(2.42679e-08 -1.5873e-06 0)
(2.42217e-08 -1.59096e-06 0)
(2.41752e-08 -1.59462e-06 0)
(2.41286e-08 -1.59828e-06 0)
(2.40817e-08 -1.60195e-06 0)
(2.40346e-08 -1.60561e-06 0)
(2.39874e-08 -1.60928e-06 0)
(2.39399e-08 -1.61295e-06 0)
(2.38923e-08 -1.61662e-06 0)
(2.38444e-08 -1.62029e-06 0)
(2.37963e-08 -1.62396e-06 0)
(2.3748e-08 -1.62763e-06 0)
(2.36995e-08 -1.63131e-06 0)
(2.36509e-08 -1.63498e-06 0)
(2.3602e-08 -1.63866e-06 0)
(2.35529e-08 -1.64234e-06 0)
(2.35036e-08 -1.64602e-06 0)
(2.3454e-08 -1.6497e-06 0)
(2.34043e-08 -1.65338e-06 0)
(2.33544e-08 -1.65706e-06 0)
(2.33043e-08 -1.66074e-06 0)
(2.32539e-08 -1.66442e-06 0)
(2.32034e-08 -1.66811e-06 0)
(2.31526e-08 -1.67179e-06 0)
(2.31016e-08 -1.67548e-06 0)
(2.30504e-08 -1.67916e-06 0)
(2.29991e-08 -1.68285e-06 0)
(2.29475e-08 -1.68653e-06 0)
(2.28956e-08 -1.69022e-06 0)
(2.28436e-08 -1.69391e-06 0)
(2.27914e-08 -1.69759e-06 0)
(2.2739e-08 -1.70128e-06 0)
(2.26863e-08 -1.70497e-06 0)
(2.26334e-08 -1.70866e-06 0)
(2.25804e-08 -1.71234e-06 0)
(2.25271e-08 -1.71603e-06 0)
(2.24736e-08 -1.71972e-06 0)
(2.24199e-08 -1.72341e-06 0)
(2.23659e-08 -1.72709e-06 0)
(2.23118e-08 -1.73078e-06 0)
(2.22574e-08 -1.73447e-06 0)
(2.22029e-08 -1.73815e-06 0)
(2.21481e-08 -1.74184e-06 0)
(2.20931e-08 -1.74553e-06 0)
(2.20379e-08 -1.74921e-06 0)
(2.19825e-08 -1.7529e-06 0)
(2.19268e-08 -1.75658e-06 0)
(2.1871e-08 -1.76026e-06 0)
(2.18149e-08 -1.76395e-06 0)
(2.17587e-08 -1.76763e-06 0)
(2.17022e-08 -1.77131e-06 0)
(2.16455e-08 -1.77499e-06 0)
(2.15885e-08 -1.77867e-06 0)
(2.15314e-08 -1.78234e-06 0)
(2.1474e-08 -1.78602e-06 0)
(2.14165e-08 -1.7897e-06 0)
(2.13587e-08 -1.79337e-06 0)
(2.13007e-08 -1.79704e-06 0)
(2.12425e-08 -1.80072e-06 0)
(2.11841e-08 -1.80439e-06 0)
(2.11254e-08 -1.80805e-06 0)
(2.10666e-08 -1.81172e-06 0)
(2.10075e-08 -1.81539e-06 0)
(2.09482e-08 -1.81905e-06 0)
(2.08887e-08 -1.82271e-06 0)
(2.0829e-08 -1.82637e-06 0)
(2.07691e-08 -1.83003e-06 0)
(2.07089e-08 -1.83369e-06 0)
(2.06485e-08 -1.83734e-06 0)
(2.0588e-08 -1.84099e-06 0)
(2.05272e-08 -1.84464e-06 0)
(2.04662e-08 -1.84829e-06 0)
(2.04049e-08 -1.85194e-06 0)
(2.03435e-08 -1.85558e-06 0)
(2.02818e-08 -1.85922e-06 0)
(2.022e-08 -1.86286e-06 0)
(2.01579e-08 -1.86649e-06 0)
(2.00956e-08 -1.87013e-06 0)
(2.00331e-08 -1.87376e-06 0)
(1.99704e-08 -1.87739e-06 0)
(1.99075e-08 -1.88101e-06 0)
(1.98443e-08 -1.88463e-06 0)
(1.97809e-08 -1.88825e-06 0)
(1.97174e-08 -1.89187e-06 0)
(1.96536e-08 -1.89548e-06 0)
(1.95896e-08 -1.89909e-06 0)
(1.95254e-08 -1.90269e-06 0)
(1.9461e-08 -1.9063e-06 0)
(1.93963e-08 -1.90989e-06 0)
(1.93315e-08 -1.91349e-06 0)
(1.92665e-08 -1.91708e-06 0)
(1.92012e-08 -1.92067e-06 0)
(1.91357e-08 -1.92425e-06 0)
(1.90701e-08 -1.92783e-06 0)
(1.90042e-08 -1.93141e-06 0)
(1.89381e-08 -1.93498e-06 0)
(1.88718e-08 -1.93855e-06 0)
(1.88053e-08 -1.94212e-06 0)
(1.87385e-08 -1.94568e-06 0)
(1.86716e-08 -1.94923e-06 0)
(1.86045e-08 -1.95278e-06 0)
(1.85371e-08 -1.95633e-06 0)
(1.84696e-08 -1.95987e-06 0)
(1.84019e-08 -1.96341e-06 0)
(1.83339e-08 -1.96694e-06 0)
(1.82658e-08 -1.97047e-06 0)
(1.81974e-08 -1.97399e-06 0)
(1.81288e-08 -1.97751e-06 0)
(1.80601e-08 -1.98103e-06 0)
(1.79911e-08 -1.98453e-06 0)
(1.7922e-08 -1.98804e-06 0)
(1.78526e-08 -1.99153e-06 0)
(1.77831e-08 -1.99503e-06 0)
(1.77133e-08 -1.99851e-06 0)
(1.76433e-08 -2.00199e-06 0)
(1.75732e-08 -2.00547e-06 0)
(1.75029e-08 -2.00894e-06 0)
(1.74323e-08 -2.0124e-06 0)
(1.73616e-08 -2.01586e-06 0)
(1.72906e-08 -2.01931e-06 0)
(1.72195e-08 -2.02276e-06 0)
(1.71482e-08 -2.0262e-06 0)
(1.70767e-08 -2.02963e-06 0)
(1.7005e-08 -2.03306e-06 0)
(1.69331e-08 -2.03648e-06 0)
(1.68611e-08 -2.0399e-06 0)
(1.67888e-08 -2.0433e-06 0)
(1.67163e-08 -2.04671e-06 0)
(1.66437e-08 -2.0501e-06 0)
(1.65709e-08 -2.05349e-06 0)
(1.64979e-08 -2.05687e-06 0)
(1.64247e-08 -2.06024e-06 0)
(1.63514e-08 -2.06361e-06 0)
(1.62778e-08 -2.06697e-06 0)
(1.62041e-08 -2.07032e-06 0)
(1.61302e-08 -2.07367e-06 0)
(1.60561e-08 -2.077e-06 0)
(1.5982e-08 -2.08034e-06 0)
(1.59066e-08 -2.08363e-06 0)
(1.58363e-08 -2.08702e-06 0)
(1.57475e-08 -2.09027e-06 0)
(1.56515e-08 -2.09327e-06 0)
(1.558e-08 -2.09637e-06 0)
(1.5515e-08 -2.09933e-06 0)
(1.54498e-08 -2.10222e-06 0)
(1.53839e-08 -2.1052e-06 0)
(1.53173e-08 -2.10823e-06 0)
(1.52499e-08 -2.11126e-06 0)
(1.51817e-08 -2.11431e-06 0)
(1.51127e-08 -2.11737e-06 0)
(1.5043e-08 -2.12045e-06 0)
(1.49724e-08 -2.12356e-06 0)
(1.4901e-08 -2.12668e-06 0)
(1.48288e-08 -2.12982e-06 0)
(1.47557e-08 -2.13298e-06 0)
(1.46819e-08 -2.13616e-06 0)
(1.46071e-08 -2.13936e-06 0)
(1.45316e-08 -2.14257e-06 0)
(1.44552e-08 -2.1458e-06 0)
(1.43779e-08 -2.14905e-06 0)
(1.42998e-08 -2.15232e-06 0)
(1.42208e-08 -2.15561e-06 0)
(1.41409e-08 -2.15891e-06 0)
(1.40602e-08 -2.16223e-06 0)
(1.39786e-08 -2.16557e-06 0)
(1.3896e-08 -2.16892e-06 0)
(1.38126e-08 -2.17229e-06 0)
(1.37283e-08 -2.17568e-06 0)
(1.36431e-08 -2.17908e-06 0)
(1.3557e-08 -2.18249e-06 0)
(1.34699e-08 -2.18592e-06 0)
(1.3382e-08 -2.18937e-06 0)
(1.32931e-08 -2.19283e-06 0)
(1.32033e-08 -2.19631e-06 0)
(1.31125e-08 -2.19979e-06 0)
(1.30208e-08 -2.2033e-06 0)
(1.29282e-08 -2.20681e-06 0)
(1.28346e-08 -2.21034e-06 0)
(1.274e-08 -2.21388e-06 0)
(1.26445e-08 -2.21743e-06 0)
(1.25481e-08 -2.221e-06 0)
(1.24506e-08 -2.22457e-06 0)
(1.23522e-08 -2.22815e-06 0)
(1.22528e-08 -2.23175e-06 0)
(1.21525e-08 -2.23535e-06 0)
(1.20512e-08 -2.23897e-06 0)
(1.19488e-08 -2.24259e-06 0)
(1.18456e-08 -2.24622e-06 0)
(1.17413e-08 -2.24986e-06 0)
(1.1636e-08 -2.2535e-06 0)
(1.15297e-08 -2.25715e-06 0)
(1.14225e-08 -2.26081e-06 0)
(1.13142e-08 -2.26447e-06 0)
(1.1205e-08 -2.26813e-06 0)
(1.10947e-08 -2.2718e-06 0)
(1.09835e-08 -2.27547e-06 0)
(1.08713e-08 -2.27915e-06 0)
(1.0758e-08 -2.28282e-06 0)
(1.06438e-08 -2.2865e-06 0)
(1.05286e-08 -2.29017e-06 0)
(1.04124e-08 -2.29385e-06 0)
(1.02952e-08 -2.29752e-06 0)
(1.0177e-08 -2.3012e-06 0)
(1.00578e-08 -2.30487e-06 0)
(9.93768e-09 -2.30853e-06 0)
(9.81654e-09 -2.31219e-06 0)
(9.69443e-09 -2.31584e-06 0)
(9.57134e-09 -2.31949e-06 0)
(9.44729e-09 -2.32313e-06 0)
(9.32228e-09 -2.32676e-06 0)
(9.19631e-09 -2.33038e-06 0)
(9.06939e-09 -2.33399e-06 0)
(8.94153e-09 -2.33759e-06 0)
(8.81274e-09 -2.34117e-06 0)
(8.68302e-09 -2.34475e-06 0)
(8.55238e-09 -2.3483e-06 0)
(8.42083e-09 -2.35184e-06 0)
(8.28839e-09 -2.35536e-06 0)
(8.15505e-09 -2.35887e-06 0)
(8.02084e-09 -2.36235e-06 0)
(7.88576e-09 -2.36582e-06 0)
(7.74983e-09 -2.36926e-06 0)
(7.61306e-09 -2.37268e-06 0)
(7.47547e-09 -2.37607e-06 0)
(7.33706e-09 -2.37944e-06 0)
(7.19785e-09 -2.38278e-06 0)
(7.05787e-09 -2.38609e-06 0)
(6.91712e-09 -2.38937e-06 0)
(6.77563e-09 -2.39262e-06 0)
(6.63341e-09 -2.39584e-06 0)
(6.49049e-09 -2.39902e-06 0)
(6.34687e-09 -2.40217e-06 0)
(6.20259e-09 -2.40528e-06 0)
(6.05766e-09 -2.40835e-06 0)
(5.91211e-09 -2.41138e-06 0)
(5.76596e-09 -2.41437e-06 0)
(5.61923e-09 -2.41731e-06 0)
(5.47195e-09 -2.42021e-06 0)
(5.32415e-09 -2.42307e-06 0)
(5.17586e-09 -2.42587e-06 0)
(5.02709e-09 -2.42862e-06 0)
(4.87788e-09 -2.43133e-06 0)
(4.72826e-09 -2.43398e-06 0)
(4.57826e-09 -2.43657e-06 0)
(4.42792e-09 -2.43911e-06 0)
(4.27725e-09 -2.44159e-06 0)
(4.1263e-09 -2.44401e-06 0)
(3.97511e-09 -2.44637e-06 0)
(3.8237e-09 -2.44866e-06 0)
(3.67211e-09 -2.45089e-06 0)
(3.52038e-09 -2.45305e-06 0)
(3.36855e-09 -2.45514e-06 0)
(3.21665e-09 -2.45716e-06 0)
(3.06473e-09 -2.45911e-06 0)
(2.91283e-09 -2.46098e-06 0)
(2.76098e-09 -2.46278e-06 0)
(2.60924e-09 -2.4645e-06 0)
(2.45763e-09 -2.46613e-06 0)
(2.30622e-09 -2.46769e-06 0)
(2.15503e-09 -2.46916e-06 0)
(2.00412e-09 -2.47055e-06 0)
(1.85354e-09 -2.47185e-06 0)
(1.70332e-09 -2.47306e-06 0)
(1.55353e-09 -2.47418e-06 0)
(1.40419e-09 -2.47521e-06 0)
(1.25538e-09 -2.47614e-06 0)
(1.10712e-09 -2.47698e-06 0)
(9.59485e-10 -2.47771e-06 0)
(8.12512e-10 -2.47835e-06 0)
(6.66256e-10 -2.47889e-06 0)
(5.20768e-10 -2.47932e-06 0)
(3.76101e-10 -2.47965e-06 0)
(2.32308e-10 -2.47987e-06 0)
(8.94424e-11 -2.47998e-06 0)
(-5.24419e-11 -2.47998e-06 0)
(-1.93291e-10 -2.47987e-06 0)
(-3.33049e-10 -2.47965e-06 0)
(-4.71661e-10 -2.47931e-06 0)
(-6.09072e-10 -2.47886e-06 0)
(-7.45224e-10 -2.47828e-06 0)
(-8.80063e-10 -2.47759e-06 0)
(-1.01353e-09 -2.47678e-06 0)
(-1.14557e-09 -2.47584e-06 0)
(-1.27612e-09 -2.47479e-06 0)
(-1.40513e-09 -2.4736e-06 0)
(-1.53254e-09 -2.4723e-06 0)
(-1.65829e-09 -2.47086e-06 0)
(-1.78233e-09 -2.4693e-06 0)
(-1.90459e-09 -2.4676e-06 0)
(-2.02502e-09 -2.46578e-06 0)
(-2.14356e-09 -2.46383e-06 0)
(-2.26016e-09 -2.46174e-06 0)
(-2.37476e-09 -2.45953e-06 0)
(-2.48731e-09 -2.45718e-06 0)
(-2.59775e-09 -2.45469e-06 0)
(-2.70603e-09 -2.45207e-06 0)
(-2.81211e-09 -2.44932e-06 0)
(-2.91593e-09 -2.44643e-06 0)
(-3.01745e-09 -2.44341e-06 0)
(-3.11663e-09 -2.44025e-06 0)
(-3.21341e-09 -2.43695e-06 0)
(-3.30777e-09 -2.43352e-06 0)
(-3.39965e-09 -2.42995e-06 0)
(-3.48904e-09 -2.42625e-06 0)
(-3.57588e-09 -2.42241e-06 0)
(-3.66016e-09 -2.41844e-06 0)
(-3.74183e-09 -2.41433e-06 0)
(-3.82087e-09 -2.41009e-06 0)
(-3.89726e-09 -2.40572e-06 0)
(-3.97097e-09 -2.40121e-06 0)
(-4.04197e-09 -2.39656e-06 0)
(-4.11025e-09 -2.39179e-06 0)
(-4.17577e-09 -2.38689e-06 0)
(-4.23851e-09 -2.38185e-06 0)
(-4.29844e-09 -2.37669e-06 0)
(-4.35554e-09 -2.3714e-06 0)
(-4.40977e-09 -2.36599e-06 0)
(-4.46106e-09 -2.36045e-06 0)
(-4.50953e-09 -2.35477e-06 0)
(-4.55488e-09 -2.34904e-06 0)
(-4.6005e-09 -2.34301e-06 0)
(-4.63605e-09 -2.33703e-06 0)
(-4.66138e-09 -2.3304e-06 0)
(-4.69692e-09 -2.32265e-06 0)
(-4.73564e-09 -2.31497e-06 0)
(-4.76746e-09 -2.30736e-06 0)
(-4.79549e-09 -2.29961e-06 0)
(-4.81948e-09 -2.2918e-06 0)
(-4.83942e-09 -2.28397e-06 0)
(-4.85548e-09 -2.27611e-06 0)
(-4.86778e-09 -2.26824e-06 0)
(-4.87646e-09 -2.26034e-06 0)
(-4.88166e-09 -2.25243e-06 0)
(-4.8835e-09 -2.24452e-06 0)
(-4.88213e-09 -2.23661e-06 0)
(-4.87767e-09 -2.2287e-06 0)
(-4.87026e-09 -2.2208e-06 0)
(-4.86001e-09 -2.21292e-06 0)
(-4.84705e-09 -2.20506e-06 0)
(-4.83149e-09 -2.19721e-06 0)
(-4.81345e-09 -2.1894e-06 0)
(-4.79301e-09 -2.18162e-06 0)
(-4.7703e-09 -2.17387e-06 0)
(-4.74539e-09 -2.16616e-06 0)
(-4.71838e-09 -2.1585e-06 0)
(-4.68935e-09 -2.15088e-06 0)
(-4.65839e-09 -2.1433e-06 0)
(-4.62557e-09 -2.13578e-06 0)
(-4.59097e-09 -2.12832e-06 0)
(-4.55465e-09 -2.12091e-06 0)
(-4.51668e-09 -2.11356e-06 0)
(-4.47712e-09 -2.10628e-06 0)
(-4.43604e-09 -2.09906e-06 0)
(-4.39348e-09 -2.0919e-06 0)
(-4.34951e-09 -2.08482e-06 0)
(-4.30418e-09 -2.07781e-06 0)
(-4.25753e-09 -2.07088e-06 0)
(-4.20961e-09 -2.06402e-06 0)
(-4.16048e-09 -2.05724e-06 0)
(-4.11017e-09 -2.05054e-06 0)
(-4.05873e-09 -2.04393e-06 0)
(-4.00619e-09 -2.0374e-06 0)
(-3.9526e-09 -2.03095e-06 0)
(-3.89798e-09 -2.02459e-06 0)
(-3.84238e-09 -2.01832e-06 0)
(-3.78583e-09 -2.01214e-06 0)
(-3.72836e-09 -2.00606e-06 0)
(-3.67e-09 -2.00007e-06 0)
(-3.61078e-09 -1.99417e-06 0)
(-3.55072e-09 -1.98837e-06 0)
(-3.48985e-09 -1.98267e-06 0)
(-3.4282e-09 -1.97707e-06 0)
(-3.36578e-09 -1.97156e-06 0)
(-3.30262e-09 -1.96616e-06 0)
(-3.23873e-09 -1.96086e-06 0)
(-3.17415e-09 -1.95567e-06 0)
(-3.10888e-09 -1.95058e-06 0)
(-3.04294e-09 -1.9456e-06 0)
(-2.97635e-09 -1.94072e-06 0)
(-2.90913e-09 -1.93596e-06 0)
(-2.84128e-09 -1.9313e-06 0)
(-2.77284e-09 -1.92675e-06 0)
(-2.7038e-09 -1.92232e-06 0)
(-2.63419e-09 -1.91799e-06 0)
(-2.56402e-09 -1.91378e-06 0)
(-2.49331e-09 -1.90969e-06 0)
(-2.42206e-09 -1.9057e-06 0)
(-2.3503e-09 -1.90184e-06 0)
(-2.27803e-09 -1.89809e-06 0)
(-2.20527e-09 -1.89446e-06 0)
(-2.13203e-09 -1.89094e-06 0)
(-2.05834e-09 -1.88755e-06 0)
(-1.98419e-09 -1.88427e-06 0)
(-1.90961e-09 -1.88112e-06 0)
(-1.8346e-09 -1.87808e-06 0)
(-1.75919e-09 -1.87517e-06 0)
(-1.68337e-09 -1.87238e-06 0)
(-1.60717e-09 -1.86971e-06 0)
(-1.53058e-09 -1.86717e-06 0)
(-1.45362e-09 -1.86475e-06 0)
(-1.37629e-09 -1.86245e-06 0)
(-1.29861e-09 -1.86028e-06 0)
(-1.22058e-09 -1.85824e-06 0)
(-1.1422e-09 -1.85632e-06 0)
(-1.0635e-09 -1.85453e-06 0)
(-9.84495e-10 -1.85287e-06 0)
(-9.05219e-10 -1.85133e-06 0)
(-8.25738e-10 -1.84994e-06 0)
(-7.46136e-10 -1.84862e-06 0)
(-6.6658e-10 -1.8476e-06 0)
(-5.87171e-10 -1.84615e-06 0)
(-5.08443e-10 -1.84667e-06 0)
(-4.29367e-10 -1.84111e-06 0)
(-3.53868e-10 -1.85544e-06 0)
(-2.65262e-10 -1.79941e-06 0)
(-2.21809e-10 -1.9468e-06 0)
(-1.15736e-10 -1.70007e-06 0)
)
;
    }
    bottomWall
    {
        type            calculated;
        value           nonuniform List<vector> 
449
(
(-48.5776 -0.964725 0)
(-19.7717 -0.00515914 0)
(-14.3638 -0.00113408 0)
(-12.0593 -0.000543085 0)
(-10.6643 -0.000346402 0)
(-9.69403 -0.000245347 0)
(-8.98515 -0.000174857 0)
(-8.49457 -0.000105256 0)
(-8.26208 -1.33096e-05 0)
(-8.40551 0.000164724 0)
(-9.40547 0.000322263 0)
(-10.6378 0.00030105 0)
(-11.4909 0.000191033 0)
(-11.9645 0.000104027 0)
(-12.2157 5.44862e-05 0)
(-12.3451 2.60236e-05 0)
(-12.3979 7.42978e-06 0)
(-12.3972 -5.25726e-06 0)
(-12.3608 -1.33145e-05 0)
(-12.3033 -1.83033e-05 0)
(-12.2314 -2.13304e-05 0)
(-12.1521 -2.27821e-05 0)
(-12.0696 -2.32875e-05 0)
(-11.9863 -2.32199e-05 0)
(-11.9038 -2.28298e-05 0)
(-11.8229 -2.22736e-05 0)
(-11.7441 -2.16083e-05 0)
(-11.6676 -2.08828e-05 0)
(-11.5936 -2.01506e-05 0)
(-11.522 -1.9437e-05 0)
(-11.4527 -1.87572e-05 0)
(-11.3857 -1.81145e-05 0)
(-11.3208 -1.75136e-05 0)
(-11.2579 -1.69682e-05 0)
(-11.1966 -1.64685e-05 0)
(-11.137 -1.5984e-05 0)
(-11.0791 -1.55227e-05 0)
(-11.0226 -1.50873e-05 0)
(-10.9675 -1.46805e-05 0)
(-10.9138 -1.42944e-05 0)
(-10.8613 -1.39293e-05 0)
(-10.81 -1.35805e-05 0)
(-10.7599 -1.32485e-05 0)
(-10.7109 -1.29295e-05 0)
(-10.663 -1.26298e-05 0)
(-10.6159 -1.23616e-05 0)
(-10.5698 -1.21112e-05 0)
(-10.5244 -1.18635e-05 0)
(-10.48 -1.16188e-05 0)
(-10.4363 -1.13771e-05 0)
(-10.3935 -1.11378e-05 0)
(-10.3514 -1.09044e-05 0)
(-10.3102 -1.06747e-05 0)
(-10.2696 -1.04489e-05 0)
(-10.23 -1.02302e-05 0)
(-10.1909 -1.00156e-05 0)
(-10.1527 -9.80557e-06 0)
(-10.1152 -9.60258e-06 0)
(-10.0784 -9.40372e-06 0)
(-10.0422 -9.21109e-06 0)
(-10.0067 -9.02285e-06 0)
(-9.97177 -8.84392e-06 0)
(-9.93753 -8.6718e-06 0)
(-9.90381 -8.50442e-06 0)
(-9.87073 -8.33465e-06 0)
(-9.8382 -8.17018e-06 0)
(-9.80626 -8.00897e-06 0)
(-9.77485 -7.85342e-06 0)
(-9.744 -7.70117e-06 0)
(-9.71366 -7.55382e-06 0)
(-9.68384 -7.40959e-06 0)
(-9.65451 -7.27029e-06 0)
(-9.62566 -7.13373e-06 0)
(-9.5973 -7.00163e-06 0)
(-9.56938 -6.87262e-06 0)
(-9.54192 -6.74667e-06 0)
(-9.51489 -6.62488e-06 0)
(-9.48829 -6.50485e-06 0)
(-9.46212 -6.38949e-06 0)
(-9.43633 -6.27541e-06 0)
(-9.41096 -6.16603e-06 0)
(-9.38595 -6.05778e-06 0)
(-9.36135 -5.95353e-06 0)
(-9.33708 -5.8508e-06 0)
(-9.31321 -5.75142e-06 0)
(-9.28965 -5.65413e-06 0)
(-9.26647 -5.55979e-06 0)
(-9.24358 -5.47082e-06 0)
(-9.22104 -5.38275e-06 0)
(-9.19877 -5.29742e-06 0)
(-9.17684 -5.20984e-06 0)
(-9.15521 -5.12662e-06 0)
(-9.13387 -5.04403e-06 0)
(-9.11283 -4.96379e-06 0)
(-9.09206 -4.88548e-06 0)
(-9.07159 -4.80878e-06 0)
(-9.05138 -4.73452e-06 0)
(-9.03143 -4.66102e-06 0)
(-9.01176 -4.58882e-06 0)
(-8.99233 -4.51964e-06 0)
(-8.97316 -4.45102e-06 0)
(-8.95423 -4.38282e-06 0)
(-8.93555 -4.31882e-06 0)
(-8.91709 -4.2533e-06 0)
(-8.89888 -4.19112e-06 0)
(-8.88087 -4.12969e-06 0)
(-8.86312 -4.06949e-06 0)
(-8.84555 -4.01133e-06 0)
(-8.82821 -3.95443e-06 0)
(-8.81106 -3.89819e-06 0)
(-8.79413 -3.84322e-06 0)
(-8.77738 -3.7901e-06 0)
(-8.76084 -3.73649e-06 0)
(-8.74448 -3.6845e-06 0)
(-8.72833 -3.63413e-06 0)
(-8.71234 -3.58432e-06 0)
(-8.69655 -3.53477e-06 0)
(-8.68093 -3.48845e-06 0)
(-8.66548 -3.44113e-06 0)
(-8.6502 -3.39444e-06 0)
(-8.6351 -3.34951e-06 0)
(-8.62016 -3.30538e-06 0)
(-8.60539 -3.26094e-06 0)
(-8.59077 -3.21883e-06 0)
(-8.57631 -3.17757e-06 0)
(-8.562 -3.13592e-06 0)
(-8.54785 -3.09496e-06 0)
(-8.53385 -3.05583e-06 0)
(-8.51999 -3.0173e-06 0)
(-8.50627 -2.98062e-06 0)
(-8.49268 -2.94337e-06 0)
(-8.47925 -2.90778e-06 0)
(-8.46592 -2.87055e-06 0)
(-8.45277 -2.83521e-06 0)
(-8.43971 -2.80018e-06 0)
(-8.42681 -2.76593e-06 0)
(-8.41401 -2.73067e-06 0)
(-8.40139 -2.6978e-06 0)
(-8.38883 -2.66472e-06 0)
(-8.37646 -2.63261e-06 0)
(-8.36414 -2.60046e-06 0)
(-8.35202 -2.56906e-06 0)
(-8.33994 -2.53933e-06 0)
(-8.32804 -2.50834e-06 0)
(-8.3162 -2.47874e-06 0)
(-8.30452 -2.44954e-06 0)
(-8.29291 -2.42252e-06 0)
(-8.28143 -2.39416e-06 0)
(-8.27003 -2.367e-06 0)
(-8.25876 -2.33978e-06 0)
(-8.24757 -2.31345e-06 0)
(-8.2365 -2.28712e-06 0)
(-8.22551 -2.26099e-06 0)
(-8.21464 -2.23624e-06 0)
(-8.20384 -2.21198e-06 0)
(-8.19316 -2.18764e-06 0)
(-8.18254 -2.16277e-06 0)
(-8.17205 -2.13858e-06 0)
(-8.16163 -2.11471e-06 0)
(-8.15132 -2.09117e-06 0)
(-8.14108 -2.0674e-06 0)
(-8.13096 -2.04466e-06 0)
(-8.12089 -2.02328e-06 0)
(-8.11094 -2.00029e-06 0)
(-8.10105 -1.97929e-06 0)
(-8.09126 -1.95717e-06 0)
(-8.08155 -1.93559e-06 0)
(-8.07193 -1.91357e-06 0)
(-8.06239 -1.89259e-06 0)
(-8.05294 -1.87158e-06 0)
(-8.04357 -1.85162e-06 0)
(-8.03427 -1.83287e-06 0)
(-8.02504 -1.81356e-06 0)
(-8.01641 -1.8011e-06 0)
(-8.00825 -1.79216e-06 0)
(-8.00006 -1.77701e-06 0)
(-7.99187 -1.76187e-06 0)
(-7.98364 -1.74688e-06 0)
(-7.97541 -1.72984e-06 0)
(-7.96717 -1.71295e-06 0)
(-7.95892 -1.69553e-06 0)
(-7.95067 -1.67741e-06 0)
(-7.94243 -1.66042e-06 0)
(-7.93416 -1.64312e-06 0)
(-7.92591 -1.62537e-06 0)
(-7.91765 -1.60795e-06 0)
(-7.9094 -1.58956e-06 0)
(-7.90115 -1.57031e-06 0)
(-7.89292 -1.552e-06 0)
(-7.88469 -1.53305e-06 0)
(-7.87649 -1.51468e-06 0)
(-7.86828 -1.49728e-06 0)
(-7.86009 -1.47942e-06 0)
(-7.8519 -1.46135e-06 0)
(-7.84374 -1.44413e-06 0)
(-7.83556 -1.42642e-06 0)
(-7.82743 -1.40904e-06 0)
(-7.81928 -1.39219e-06 0)
(-7.81116 -1.37451e-06 0)
(-7.80305 -1.35791e-06 0)
(-7.79495 -1.34195e-06 0)
(-7.78685 -1.32546e-06 0)
(-7.77878 -1.30917e-06 0)
(-7.77071 -1.29346e-06 0)
(-7.76266 -1.27706e-06 0)
(-7.75461 -1.26219e-06 0)
(-7.74658 -1.24618e-06 0)
(-7.73857 -1.23175e-06 0)
(-7.73055 -1.21654e-06 0)
(-7.72256 -1.20133e-06 0)
(-7.71457 -1.18783e-06 0)
(-7.70659 -1.17384e-06 0)
(-7.69861 -1.15895e-06 0)
(-7.69067 -1.14598e-06 0)
(-7.6827 -1.1309e-06 0)
(-7.67479 -1.11562e-06 0)
(-7.66686 -1.10254e-06 0)
(-7.65897 -1.08655e-06 0)
(-7.65111 -1.07415e-06 0)
(-7.64323 -1.0612e-06 0)
(-7.63538 -1.04817e-06 0)
(-7.62753 -1.03439e-06 0)
(-7.61972 -1.01985e-06 0)
(-7.61192 -1.00626e-06 0)
(-7.60416 -9.91739e-07 0)
(-7.59641 -9.7659e-07 0)
(-7.58872 -9.62048e-07 0)
(-7.58104 -9.47075e-07 0)
(-7.57343 -9.32956e-07 0)
(-7.56581 -9.20981e-07 0)
(-7.55823 -9.07219e-07 0)
(-7.55068 -8.94521e-07 0)
(-7.54315 -8.82098e-07 0)
(-7.53565 -8.69632e-07 0)
(-7.52816 -8.57119e-07 0)
(-7.52072 -8.46237e-07 0)
(-7.51326 -8.3299e-07 0)
(-7.50589 -8.20988e-07 0)
(-7.49849 -8.09215e-07 0)
(-7.49118 -7.95077e-07 0)
(-7.48388 -7.84591e-07 0)
(-7.4766 -7.73348e-07 0)
(-7.46935 -7.61502e-07 0)
(-7.46214 -7.49462e-07 0)
(-7.45497 -7.38283e-07 0)
(-7.44782 -7.25703e-07 0)
(-7.44074 -7.13751e-07 0)
(-7.43368 -7.01969e-07 0)
(-7.42668 -6.90714e-07 0)
(-7.41969 -6.7947e-07 0)
(-7.41278 -6.67768e-07 0)
(-7.40587 -6.5837e-07 0)
(-7.39901 -6.47308e-07 0)
(-7.39219 -6.37069e-07 0)
(-7.38539 -6.27333e-07 0)
(-7.37864 -6.17682e-07 0)
(-7.3719 -6.06891e-07 0)
(-7.36524 -5.95862e-07 0)
(-7.35861 -5.86408e-07 0)
(-7.35202 -5.75794e-07 0)
(-7.34548 -5.67375e-07 0)
(-7.33895 -5.58623e-07 0)
(-7.33247 -5.50072e-07 0)
(-7.32599 -5.43456e-07 0)
(-7.31953 -5.3421e-07 0)
(-7.31314 -5.25267e-07 0)
(-7.30676 -5.17687e-07 0)
(-7.30041 -5.09174e-07 0)
(-7.2941 -5.0139e-07 0)
(-7.28781 -4.94511e-07 0)
(-7.28154 -4.86335e-07 0)
(-7.27532 -4.78672e-07 0)
(-7.26912 -4.70077e-07 0)
(-7.26299 -4.60187e-07 0)
(-7.25692 -4.51451e-07 0)
(-7.2509 -4.44826e-07 0)
(-7.24487 -4.36845e-07 0)
(-7.23894 -4.2878e-07 0)
(-7.233 -4.23848e-07 0)
(-7.22708 -4.16698e-07 0)
(-7.22122 -4.09222e-07 0)
(-7.21538 -4.04577e-07 0)
(-7.20952 -3.98275e-07 0)
(-7.20374 -3.92708e-07 0)
(-7.19792 -3.87916e-07 0)
(-7.19215 -3.80849e-07 0)
(-7.18643 -3.75091e-07 0)
(-7.18071 -3.70026e-07 0)
(-7.17501 -3.63151e-07 0)
(-7.16939 -3.58317e-07 0)
(-7.16372 -3.52345e-07 0)
(-7.15817 -3.45882e-07 0)
(-7.15258 -3.41227e-07 0)
(-7.14706 -3.35215e-07 0)
(-7.14155 -3.29494e-07 0)
(-7.1361 -3.24816e-07 0)
(-7.13063 -3.20973e-07 0)
(-7.12519 -3.15863e-07 0)
(-7.11978 -3.12015e-07 0)
(-7.11435 -3.08693e-07 0)
(-7.10893 -3.03826e-07 0)
(-7.10356 -2.99273e-07 0)
(-7.09819 -2.95448e-07 0)
(-7.09284 -2.90831e-07 0)
(-7.08753 -2.87442e-07 0)
(-7.08218 -2.83199e-07 0)
(-7.07691 -2.79247e-07 0)
(-7.0716 -2.77442e-07 0)
(-7.06628 -2.7327e-07 0)
(-7.06102 -2.68175e-07 0)
(-7.05579 -2.64408e-07 0)
(-7.05056 -2.59646e-07 0)
(-7.04541 -2.55211e-07 0)
(-7.04024 -2.52338e-07 0)
(-7.03509 -2.47976e-07 0)
(-7.03 -2.44281e-07 0)
(-7.02489 -2.4172e-07 0)
(-7.01979 -2.37462e-07 0)
(-7.01476 -2.33373e-07 0)
(-7.00973 -2.30165e-07 0)
(-7.00472 -2.25612e-07 0)
(-6.99979 -2.21738e-07 0)
(-6.99484 -2.19024e-07 0)
(-6.98992 -2.15296e-07 0)
(-6.98504 -2.12127e-07 0)
(-6.98016 -2.1003e-07 0)
(-6.97527 -2.06709e-07 0)
(-6.97043 -2.03869e-07 0)
(-6.96557 -2.01666e-07 0)
(-6.96074 -1.98492e-07 0)
(-6.95593 -1.95767e-07 0)
(-6.95112 -1.93692e-07 0)
(-6.94631 -1.9029e-07 0)
(-6.94157 -1.87854e-07 0)
(-6.93678 -1.85728e-07 0)
(-6.93204 -1.82645e-07 0)
(-6.92731 -1.80288e-07 0)
(-6.92259 -1.78344e-07 0)
(-6.91785 -1.75528e-07 0)
(-6.91319 -1.7298e-07 0)
(-6.90849 -1.70494e-07 0)
(-6.90386 -1.68067e-07 0)
(-6.89919 -1.66306e-07 0)
(-6.89456 -1.64345e-07 0)
(-6.88989 -1.62994e-07 0)
(-6.88523 -1.62469e-07 0)
(-6.8805 -1.59617e-07 0)
(-6.87591 -1.57173e-07 0)
(-6.87122 -1.54506e-07 0)
(-6.86669 -1.50652e-07 0)
(-6.86213 -1.47969e-07 0)
(-6.85767 -1.44532e-07 0)
(-6.85322 -1.43013e-07 0)
(-6.84876 -1.39495e-07 0)
(-6.84395 -1.34521e-07 0)
(-6.83879 -1.30191e-07 0)
(-6.83381 -1.27653e-07 0)
(-6.82885 -1.25713e-07 0)
(-6.82402 -1.24134e-07 0)
(-6.81917 -1.23639e-07 0)
(-6.81438 -1.22897e-07 0)
(-6.80959 -1.21838e-07 0)
(-6.80489 -1.20744e-07 0)
(-6.80018 -1.19281e-07 0)
(-6.79559 -1.16699e-07 0)
(-6.79109 -1.1438e-07 0)
(-6.78668 -1.12759e-07 0)
(-6.7823 -1.10391e-07 0)
(-6.77808 -1.08502e-07 0)
(-6.77385 -1.07593e-07 0)
(-6.76969 -1.05856e-07 0)
(-6.7656 -1.04945e-07 0)
(-6.76151 -1.03238e-07 0)
(-6.75755 -1.0165e-07 0)
(-6.75359 -1.00522e-07 0)
(-6.74972 -9.8642e-08 0)
(-6.7459 -9.73159e-08 0)
(-6.74214 -9.59763e-08 0)
(-6.73843 -9.47392e-08 0)
(-6.73476 -9.36808e-08 0)
(-6.73113 -9.28195e-08 0)
(-6.72752 -9.07015e-08 0)
(-6.72406 -8.93045e-08 0)
(-6.72057 -8.81118e-08 0)
(-6.7172 -8.64073e-08 0)
(-6.71383 -8.57295e-08 0)
(-6.71052 -8.46221e-08 0)
(-6.70724 -8.44253e-08 0)
(-6.70394 -8.31629e-08 0)
(-6.70076 -8.2651e-08 0)
(-6.6975 -8.19455e-08 0)
(-6.69438 -8.01416e-08 0)
(-6.69126 -7.95724e-08 0)
(-6.68818 -7.81349e-08 0)
(-6.68517 -7.74314e-08 0)
(-6.68215 -7.56628e-08 0)
(-6.67928 -7.39877e-08 0)
(-6.67639 -7.31686e-08 0)
(-6.67358 -7.17361e-08 0)
(-6.6708 -7.19105e-08 0)
(-6.66798 -7.19208e-08 0)
(-6.66519 -7.26333e-08 0)
(-6.66231 -7.32193e-08 0)
(-6.65948 -7.22364e-08 0)
(-6.65668 -7.24731e-08 0)
(-6.65383 -7.1256e-08 0)
(-6.65113 -7.12262e-08 0)
(-6.64828 -7.11586e-08 0)
(-6.64558 -6.99482e-08 0)
(-6.64283 -6.94327e-08 0)
(-6.64017 -6.87321e-08 0)
(-6.63748 -6.81043e-08 0)
(-6.63487 -6.62236e-08 0)
(-6.63232 -6.52198e-08 0)
(-6.62979 -6.43167e-08 0)
(-6.62731 -6.28229e-08 0)
(-6.62489 -6.27957e-08 0)
(-6.62242 -6.326e-08 0)
(-6.61996 -6.27968e-08 0)
(-6.61752 -6.2191e-08 0)
(-6.61512 -6.08133e-08 0)
(-6.61279 -5.95859e-08 0)
(-6.61048 -5.91184e-08 0)
(-6.60818 -5.86628e-08 0)
(-6.60591 -5.76095e-08 0)
(-6.60369 -5.82062e-08 0)
(-6.60137 -5.77139e-08 0)
(-6.5992 -5.76656e-08 0)
(-6.59688 -5.80721e-08 0)
(-6.59467 -5.74409e-08 0)
(-6.5924 -5.75459e-08 0)
(-6.59019 -5.65791e-08 0)
(-6.588 -5.61655e-08 0)
(-6.58581 -5.53066e-08 0)
(-6.58369 -5.3952e-08 0)
(-6.58162 -5.38713e-08 0)
(-6.5795 -5.40345e-08 0)
(-6.57741 -5.35992e-08 0)
(-6.57533 -5.37394e-08 0)
(-6.57322 -5.31891e-08 0)
(-6.57118 -5.21421e-08 0)
(-6.56916 -5.29088e-08 0)
(-6.56706 -5.08163e-08 0)
(-6.56521 -5.29284e-08 0)
(-6.56293 -4.51661e-08 0)
(-6.56171 -5.9914e-08 0)
(-6.55823 -3.19366e-08 0)
(-6.5593 -4.56283e-08 0)
(-6.55453 -6.39501e-08 0)
)
;
    }
    symmetry
    {
        type            symmetryPlane;
    }
    frontAndBack
    {
        type            empty;
    }
}


// ************************************************************************* //
