/*--------------------------------*- C++ -*----------------------------------*\
| =========                 |                                                 |
| \\      /  F ield         | OpenFOAM: The Open Source CFD Toolbox           |
|  \\    /   O peration     | Version:  v2012                                 |
|   \\  /    A nd           | Website:  www.openfoam.com                      |
|    \\/     M anipulation  |                                                 |
\*---------------------------------------------------------------------------*/
FoamFile
{
    version     2.0;
    format      ascii;
    class       volScalarField;
    location    "17.5";
    object      yPlus;
}
// * * * * * * * * * * * * * * * * * * * * * * * * * * * * * * * * * * * * * //

dimensions      [0 0 0 0 0 0 0];


internalField   uniform 0;

boundaryField
{
    inlet
    {
        type            calculated;
        value           uniform 0;
    }
    outlet
    {
        type            calculated;
        value           uniform 0;
    }
    topWall
    {
        type            calculated;
        value           nonuniform List<scalar> 
545
(
0.105575
0.182218
0.233803
0.274801
0.309503
0.33986
0.366966
0.391513
0.413972
0.434678
0.453887
0.471793
0.488552
0.504291
0.519113
0.533107
0.546347
0.558896
0.570811
0.58214
0.592926
0.603208
0.613018
0.622389
0.631347
0.639919
0.648126
0.65599
0.66353
0.670764
0.677708
0.684378
0.690787
0.696948
0.702874
0.708576
0.714065
0.71935
0.724441
0.729347
0.734076
0.738636
0.743034
0.747277
0.751372
0.755325
0.759142
0.762828
0.766388
0.769829
0.773153
0.776367
0.779474
0.782479
0.785384
0.788195
0.790915
0.793546
0.796093
0.798559
0.800946
0.803257
0.805495
0.807662
0.809762
0.811796
0.813767
0.815676
0.817527
0.819321
0.82106
0.822746
0.824358
0.825918
0.827465
0.828999
0.83052
0.832028
0.833524
0.835008
0.836479
0.837938
0.839385
0.84082
0.842244
0.843655
0.845055
0.846444
0.847821
0.849187
0.850543
0.851887
0.85322
0.854542
0.855854
0.857155
0.858325
0.85937
0.860415
0.86146
0.862504
0.863548
0.864591
0.865634
0.866676
0.867718
0.868759
0.8698
0.87084
0.87188
0.872919
0.873957
0.874995
0.876033
0.877069
0.878106
0.879141
0.880176
0.881211
0.882245
0.883278
0.88431
0.885342
0.886373
0.887404
0.888434
0.889463
0.890491
0.891519
0.892546
0.893572
0.894598
0.895623
0.896647
0.89767
0.898693
0.899714
0.900735
0.901755
0.902775
0.903793
0.904811
0.905828
0.906844
0.907859
0.908873
0.909886
0.910899
0.91191
0.912921
0.91393
0.914939
0.915947
0.916954
0.91796
0.918965
0.919968
0.920971
0.921973
0.922974
0.923974
0.924972
0.92597
0.926967
0.927962
0.928957
0.92995
0.930942
0.931933
0.932923
0.933912
0.9349
0.935886
0.936871
0.937855
0.938838
0.93982
0.9408
0.941779
0.942757
0.943733
0.944709
0.945683
0.946655
0.947627
0.948597
0.949565
0.950533
0.951498
0.952463
0.953426
0.954388
0.955348
0.956307
0.957264
0.95822
0.959175
0.960127
0.961079
0.962029
0.962977
0.963924
0.964869
0.965813
0.966755
0.967695
0.968634
0.969571
0.970507
0.971441
0.972373
0.973304
0.974233
0.97516
0.976085
0.977009
0.977931
0.978851
0.979769
0.980686
0.981601
0.982514
0.983425
0.984334
0.985241
0.986147
0.98705
0.987952
0.988851
0.989749
0.990645
0.991539
0.992431
0.99332
0.994208
0.995094
0.995978
0.996859
0.997739
0.998616
0.999492
1.00036
1.00124
1.0021
1.00297
1.00384
1.0047
1.00556
1.00642
1.00727
1.00812
1.00898
1.00982
1.01067
1.01152
1.01236
1.0132
1.01403
1.01487
1.0157
1.01653
1.01736
1.01818
1.019
1.01982
1.02064
1.02146
1.02227
1.02308
1.02384
1.02456
1.02528
1.026
1.02673
1.02746
1.0282
1.02894
1.02969
1.03044
1.03119
1.03195
1.03271
1.03348
1.03425
1.03502
1.0358
1.03658
1.03737
1.03816
1.03895
1.03974
1.04054
1.04135
1.04215
1.04296
1.04377
1.04459
1.04541
1.04623
1.04706
1.04788
1.04871
1.04955
1.05038
1.05122
1.05206
1.0529
1.05375
1.05459
1.05544
1.05629
1.05714
1.058
1.05885
1.05971
1.06057
1.06143
1.06229
1.06315
1.06401
1.06487
1.06573
1.06659
1.06745
1.06832
1.06918
1.07004
1.0709
1.07176
1.07262
1.07347
1.07433
1.07518
1.07604
1.07689
1.07773
1.07858
1.07942
1.08026
1.0811
1.08193
1.08276
1.08359
1.08441
1.08523
1.08604
1.08685
1.08765
1.08845
1.08924
1.09003
1.09081
1.09158
1.09235
1.09311
1.09386
1.09461
1.09534
1.09607
1.09679
1.0975
1.0982
1.09889
1.09957
1.10024
1.1009
1.10155
1.10219
1.10282
1.10343
1.10403
1.10462
1.1052
1.10576
1.10631
1.10684
1.10736
1.10787
1.10836
1.10883
1.10929
1.10973
1.11015
1.11056
1.11095
1.11132
1.11167
1.112
1.11231
1.11261
1.11288
1.11313
1.11336
1.11358
1.11376
1.11393
1.11407
1.1142
1.11429
1.11437
1.11442
1.11445
1.11445
1.11442
1.11437
1.1143
1.1142
1.11407
1.11392
1.11373
1.11352
1.11329
1.11302
1.11273
1.11241
1.11206
1.11168
1.11127
1.11083
1.11036
1.10986
1.10933
1.10877
1.10818
1.10756
1.10691
1.10622
1.10551
1.10476
1.10399
1.10318
1.10234
1.10147
1.10056
1.09963
1.09866
1.09767
1.09664
1.09558
1.09449
1.09337
1.09221
1.09103
1.08982
1.08857
1.0873
1.086
1.08466
1.0833
1.08191
1.08033
1.07857
1.0768
1.075
1.0732
1.07138
1.06955
1.06771
1.06586
1.064
1.06214
1.06027
1.0584
1.05653
1.05466
1.05279
1.05091
1.04904
1.04718
1.04532
1.04346
1.04161
1.03976
1.03793
1.0361
1.03428
1.03247
1.03067
1.02889
1.02711
1.02535
1.0236
1.02187
1.02015
1.01845
1.01676
1.01509
1.01344
1.0118
1.01018
1.00858
1.007
1.00544
1.0039
1.00239
1.00089
0.999411
0.997957
0.996525
0.995116
0.993731
0.992369
0.991031
0.989718
0.98843
0.987167
0.985929
0.984718
0.983532
0.982374
0.981242
0.980138
0.979062
0.978014
0.976993
0.976002
0.975039
0.974106
0.973202
0.972328
0.971484
0.970671
0.969887
0.969135
0.968414
0.967724
0.967065
0.966439
0.965844
0.965282
0.964751
0.964254
0.963789
0.963357
0.962958
0.962593
0.96226
0.961962
0.961696
0.961465
0.961265
0.9611
0.960964
0.960877
0.96077
)
;
    }
    bottomWall
    {
        type            calculated;
        value           nonuniform List<scalar> 
449
(
0.139518
0.0890071
0.0758641
0.0695124
0.0653686
0.0623239
0.0600019
0.0583409
0.057537
0.0580342
0.0613892
0.0652871
0.0678547
0.0692387
0.0699617
0.0703314
0.0704816
0.0704797
0.0703762
0.0702122
0.0700068
0.0697795
0.0695421
0.0693017
0.069063
0.0688279
0.068598
0.0683742
0.068157
0.0679462
0.0677418
0.0675433
0.0673506
0.067163
0.0669801
0.0668016
0.0666275
0.0664574
0.0662913
0.0661286
0.0659695
0.0658135
0.0656609
0.0655111
0.0653644
0.06522
0.0650782
0.0649384
0.0648011
0.0646658
0.0645331
0.0644023
0.0642739
0.0641475
0.0640235
0.0639012
0.0637814
0.0636632
0.0635473
0.063433
0.0633209
0.0632103
0.0631017
0.0629946
0.0628893
0.0627856
0.0626836
0.0625831
0.0624843
0.0623869
0.0622911
0.0621967
0.0621037
0.0620121
0.0619219
0.0618329
0.0617453
0.0616589
0.0615738
0.0614899
0.0614072
0.0613255
0.0612451
0.0611656
0.0610874
0.0610101
0.0609339
0.0608586
0.0607844
0.0607109
0.0606385
0.060567
0.0604964
0.0604267
0.0603578
0.0602898
0.0602226
0.0601562
0.0600906
0.0600258
0.0599618
0.0598985
0.059836
0.0597742
0.0597131
0.0596527
0.059593
0.0595339
0.0594755
0.0594177
0.0593606
0.0593041
0.0592482
0.0591928
0.0591381
0.0590839
0.0590304
0.0589773
0.0589248
0.0588729
0.0588215
0.0587705
0.0587202
0.0586703
0.0586209
0.058572
0.0585235
0.0584756
0.0584281
0.058381
0.0583344
0.0582882
0.0582424
0.0581971
0.0581521
0.0581077
0.0580635
0.05802
0.0579766
0.0579338
0.0578912
0.0578493
0.0578074
0.0577661
0.0577251
0.0576845
0.0576442
0.0576043
0.0575646
0.0575254
0.0574864
0.0574478
0.0574095
0.0573715
0.0573338
0.0572965
0.0572593
0.0572226
0.0571861
0.05715
0.0571141
0.0570786
0.0570432
0.0570082
0.0569735
0.056939
0.0569049
0.056871
0.0568374
0.056804
0.056771
0.0567381
0.0567056
0.056675
0.0566462
0.0566172
0.0565882
0.0565591
0.05653
0.0565007
0.0564715
0.0564422
0.0564129
0.0563836
0.0563542
0.0563249
0.0562955
0.0562662
0.0562368
0.0562075
0.0561783
0.056149
0.0561198
0.0560905
0.0560613
0.0560321
0.056003
0.0559739
0.0559448
0.0559157
0.0558867
0.0558577
0.0558287
0.0557998
0.0557708
0.0557419
0.0557131
0.0556842
0.0556554
0.0556266
0.0555978
0.0555691
0.0555403
0.0555116
0.0554829
0.0554543
0.0554257
0.0553971
0.0553687
0.0553402
0.0553118
0.0552833
0.055255
0.0552267
0.0551985
0.0551704
0.0551425
0.0551146
0.0550869
0.0550592
0.0550316
0.0550041
0.0549766
0.0549493
0.054922
0.0548949
0.0548676
0.0548407
0.0548137
0.0547869
0.0547602
0.0547336
0.0547071
0.0546807
0.0546544
0.0546282
0.0546022
0.0545763
0.0545506
0.0545249
0.0544995
0.0544741
0.0544488
0.0544238
0.0543987
0.0543739
0.054349
0.0543245
0.0543
0.0542757
0.0542516
0.0542274
0.0542035
0.0541795
0.0541556
0.054132
0.0541084
0.0540848
0.0540615
0.0540382
0.0540149
0.0539919
0.0539688
0.0539461
0.0539235
0.0539011
0.0538787
0.0538567
0.0538346
0.0538125
0.0537907
0.0537689
0.0537471
0.0537256
0.0537039
0.0536824
0.053661
0.0536396
0.0536183
0.0535973
0.0535761
0.0535554
0.0535345
0.0535138
0.0534932
0.0534727
0.0534522
0.0534318
0.0534116
0.0533912
0.0533709
0.0533507
0.0533305
0.0533104
0.0532904
0.0532704
0.0532505
0.0532305
0.0532105
0.0531907
0.053171
0.0531513
0.0531319
0.0531124
0.053093
0.0530737
0.0530545
0.0530352
0.0530162
0.0529972
0.0529782
0.0529596
0.0529409
0.0529222
0.0529038
0.0528853
0.0528667
0.0528484
0.05283
0.0528116
0.0527934
0.0527752
0.0527569
0.0527389
0.0527207
0.0527027
0.0526847
0.0526667
0.0526487
0.052631
0.0526131
0.0525954
0.0525776
0.05256
0.0525422
0.0525244
0.0525064
0.0524889
0.0524709
0.0524536
0.0524362
0.0524192
0.0524022
0.0523851
0.0523667
0.052347
0.0523279
0.0523089
0.0522904
0.0522719
0.0522535
0.0522351
0.0522171
0.052199
0.0521814
0.0521641
0.0521471
0.0521303
0.0521141
0.0520978
0.0520819
0.0520661
0.0520504
0.0520351
0.0520199
0.052005
0.0519903
0.0519758
0.0519615
0.0519473
0.0519333
0.0519194
0.051906
0.0518925
0.0518795
0.0518665
0.0518537
0.0518411
0.0518283
0.051816
0.0518034
0.0517913
0.0517793
0.0517674
0.0517557
0.051744
0.0517329
0.0517217
0.0517108
0.0517
0.0516891
0.0516783
0.0516672
0.0516562
0.0516453
0.0516343
0.0516238
0.0516127
0.0516022
0.0515916
0.0515812
0.0515708
0.0515606
0.0515507
0.0515409
0.0515312
0.0515219
0.0515122
0.0515027
0.0514932
0.0514838
0.0514748
0.0514658
0.0514568
0.051448
0.0514394
0.0514303
0.0514218
0.0514128
0.0514042
0.0513954
0.0513867
0.0513782
0.0513697
0.0513614
0.0513533
0.051345
0.0513369
0.0513287
0.0513205
0.0513126
0.0513047
0.0512965
0.0512893
0.0512804
0.0512756
0.051262
0.0512662
0.0512475
)
;
    }
    symmetry
    {
        type            symmetryPlane;
    }
    frontAndBack
    {
        type            empty;
    }
}


// ************************************************************************* //
