/*--------------------------------*- C++ -*----------------------------------*\
| =========                 |                                                 |
| \\      /  F ield         | OpenFOAM: The Open Source CFD Toolbox           |
|  \\    /   O peration     | Version:  v2012                                 |
|   \\  /    A nd           | Website:  www.openfoam.com                      |
|    \\/     M anipulation  |                                                 |
\*---------------------------------------------------------------------------*/
FoamFile
{
    version     2.0;
    format      ascii;
    class       volScalarField;
    location    "15.5";
    object      epsilon;
}
// * * * * * * * * * * * * * * * * * * * * * * * * * * * * * * * * * * * * * //

dimensions      [0 2 -3 0 0 0 0];


internalField   nonuniform List<scalar> 
209825
(
0.762123
0.698734
0.671425
0.657209
0.648641
0.643021
0.639073
0.636206
0.634017
0.632336
0.630977
0.629898
0.628985
0.628241
0.627603
0.627077
0.626608
0.626219
0.62586
0.625566
0.625283
0.625053
0.624836
0.624661
0.624483
0.624343
0.624207
0.624103
0.623981
0.623896
0.62382
0.62376
0.623685
0.623637
0.623592
0.623556
0.62349
0.623468
0.62344
0.62343
0.623419
0.623403
0.623359
0.623372
0.623372
0.623382
0.623377
0.623415
0.623415
0.623453
0.623453
0.623577
0.623577
0.623577
0.62364
0.62364
0.623761
0.623901
0.624032
0.62409
0.62409
0.62409
0.624196
0.624408
0.624538
0.624537
0.624649
0.624893
0.62504
0.62517
0.625426
0.625553
0.625732
0.625947
0.626164
0.626423
0.62673
0.626994
0.627325
0.62769
0.628008
0.628471
0.628871
0.629445
0.629962
0.630719
0.631388
0.632436
0.633236
0.634903
0.635908
0.639224
0.639849
0.652545
2.23987
417.906
0.762121
0.69872
0.671402
0.65718
0.648609
0.642986
0.639036
0.636167
0.633977
0.632295
0.630935
0.629856
0.628943
0.628198
0.627559
0.627034
0.626563
0.626174
0.625816
0.625521
0.625238
0.625008
0.624791
0.624616
0.624437
0.624298
0.624161
0.624057
0.623935
0.62385
0.623774
0.623714
0.623639
0.623591
0.623546
0.62351
0.623444
0.623422
0.623394
0.623384
0.623373
0.623357
0.623313
0.623326
0.623326
0.623336
0.623331
0.623369
0.623369
0.623406
0.623406
0.623531
0.623531
0.623531
0.623594
0.623594
0.623715
0.623855
0.623986
0.624044
0.624044
0.624044
0.62415
0.624362
0.624491
0.624491
0.624603
0.624847
0.624994
0.625124
0.62538
0.625507
0.625686
0.625901
0.626118
0.626377
0.626685
0.626948
0.62728
0.627645
0.627962
0.628426
0.628826
0.6294
0.629917
0.630674
0.631343
0.632392
0.633192
0.634859
0.635864
0.639181
0.639804
0.652523
2.24424
414.583
0.762106
0.698651
0.671297
0.657053
0.648466
0.642833
0.638876
0.636002
0.633807
0.632122
0.630759
0.629678
0.628762
0.628016
0.627376
0.626849
0.626378
0.625988
0.625629
0.625333
0.62505
0.624819
0.624602
0.624426
0.624247
0.624107
0.623971
0.623866
0.623744
0.623659
0.623582
0.623522
0.623447
0.623399
0.623353
0.623317
0.623252
0.623229
0.623201
0.623191
0.62318
0.623164
0.62312
0.623133
0.623133
0.623143
0.623137
0.623175
0.623175
0.623213
0.623213
0.623337
0.623337
0.623337
0.6234
0.6234
0.623521
0.623661
0.623792
0.623851
0.623851
0.623851
0.623957
0.624169
0.624299
0.624299
0.62441
0.624655
0.624802
0.624932
0.625188
0.625315
0.625495
0.625709
0.625927
0.626186
0.626494
0.626757
0.627089
0.627454
0.627772
0.628236
0.628636
0.629211
0.629728
0.630486
0.631154
0.632203
0.633004
0.634671
0.635676
0.638993
0.639612
0.652372
2.25527
410.987
0.762079
0.698534
0.671119
0.656837
0.648226
0.642575
0.638606
0.635722
0.63352
0.631829
0.630462
0.629377
0.628458
0.627709
0.627067
0.626538
0.626065
0.625674
0.625313
0.625017
0.624733
0.624501
0.624282
0.624106
0.623927
0.623786
0.623649
0.623544
0.623421
0.623336
0.623259
0.623199
0.623123
0.623075
0.623029
0.622992
0.622927
0.622904
0.622876
0.622865
0.622855
0.622838
0.622794
0.622807
0.622807
0.622817
0.622811
0.622849
0.622849
0.622887
0.622887
0.623011
0.623011
0.623011
0.623074
0.623074
0.623195
0.623335
0.623466
0.623525
0.623525
0.623525
0.623631
0.623843
0.623974
0.623974
0.624085
0.62433
0.624477
0.624608
0.624864
0.624992
0.625171
0.625386
0.625604
0.625863
0.626171
0.626435
0.626767
0.627133
0.627451
0.627915
0.628316
0.628891
0.629408
0.630166
0.630835
0.631885
0.632685
0.634352
0.635357
0.638674
0.639287
0.652108
2.27301
407.833
0.762041
0.698367
0.670867
0.656531
0.647885
0.642211
0.638223
0.635326
0.633114
0.631415
0.630041
0.628951
0.628028
0.627275
0.62663
0.626099
0.625624
0.62523
0.624868
0.624569
0.624284
0.624051
0.623831
0.623654
0.623474
0.623332
0.623194
0.623089
0.622966
0.622879
0.622802
0.622741
0.622665
0.622616
0.62257
0.622534
0.622468
0.622445
0.622416
0.622406
0.622395
0.622378
0.622334
0.622346
0.622346
0.622356
0.62235
0.622388
0.622388
0.622425
0.622425
0.62255
0.62255
0.62255
0.622613
0.622613
0.622734
0.622874
0.623005
0.623065
0.623065
0.623065
0.623171
0.623383
0.623515
0.623515
0.623626
0.62387
0.624019
0.624149
0.624406
0.624534
0.624714
0.624929
0.625147
0.625406
0.625715
0.625979
0.626311
0.626678
0.626996
0.627462
0.627862
0.628438
0.628956
0.629715
0.630383
0.631434
0.632234
0.633901
0.634905
0.638224
0.638828
0.651733
2.29783
405.45
0.761992
0.698151
0.67054
0.656136
0.647444
0.641738
0.637728
0.634814
0.632588
0.630879
0.629497
0.628399
0.627471
0.626713
0.626064
0.625529
0.625051
0.624655
0.62429
0.623989
0.623702
0.623467
0.623246
0.623068
0.622886
0.622744
0.622605
0.622498
0.622374
0.622287
0.622209
0.622148
0.622071
0.622022
0.621976
0.621939
0.621872
0.621849
0.62182
0.621809
0.621798
0.621781
0.621737
0.621749
0.621749
0.621758
0.621752
0.62179
0.62179
0.621827
0.621827
0.621952
0.621952
0.621952
0.622015
0.622015
0.622136
0.622276
0.622408
0.622468
0.622468
0.622468
0.622574
0.622785
0.622919
0.622919
0.62303
0.623274
0.623424
0.623555
0.623811
0.62394
0.62412
0.624336
0.624555
0.624814
0.625123
0.625388
0.62572
0.626088
0.626407
0.626873
0.627274
0.627851
0.628368
0.629129
0.629797
0.630849
0.631648
0.633316
0.63432
0.637638
0.638232
0.651243
2.33009
403.983
0.761932
0.697886
0.670138
0.655649
0.646901
0.641156
0.637117
0.634182
0.63194
0.630218
0.628825
0.627719
0.626784
0.62602
0.625366
0.624826
0.624344
0.623945
0.623577
0.623275
0.622985
0.622748
0.622525
0.622346
0.622162
0.622018
0.621878
0.621771
0.621646
0.621558
0.621479
0.621417
0.62134
0.62129
0.621243
0.621205
0.621139
0.621115
0.621086
0.621074
0.621063
0.621046
0.621001
0.621013
0.621013
0.621022
0.621015
0.621053
0.621053
0.62109
0.62109
0.621214
0.621214
0.621214
0.621278
0.621278
0.621399
0.621539
0.621671
0.621733
0.621733
0.621732
0.621838
0.622049
0.622185
0.622185
0.622296
0.62254
0.62269
0.622821
0.623078
0.623209
0.623389
0.623605
0.623824
0.624084
0.624393
0.62466
0.624992
0.625361
0.62568
0.626147
0.626549
0.627127
0.627644
0.628406
0.629074
0.630128
0.630926
0.632594
0.633597
0.636916
0.637496
0.650639
2.37019
403.476
0.761862
0.697571
0.66966
0.655069
0.646255
0.640463
0.636391
0.63343
0.631168
0.62943
0.628025
0.626909
0.625965
0.625194
0.624534
0.623989
0.623503
0.6231
0.622729
0.622423
0.622131
0.621891
0.621666
0.621485
0.6213
0.621154
0.621013
0.620904
0.620778
0.620689
0.620608
0.620546
0.620468
0.620417
0.620369
0.620331
0.620264
0.62024
0.62021
0.620198
0.620186
0.620169
0.620124
0.620136
0.620136
0.620144
0.620137
0.620174
0.620174
0.620211
0.620211
0.620336
0.620336
0.620336
0.6204
0.620399
0.62052
0.62066
0.620792
0.620856
0.620856
0.620856
0.620962
0.621172
0.621309
0.62131
0.621421
0.621665
0.621816
0.621948
0.622205
0.622337
0.622517
0.622734
0.622953
0.623214
0.623523
0.623791
0.624123
0.624494
0.624814
0.625282
0.625684
0.626263
0.626781
0.627544
0.628212
0.629268
0.630065
0.631733
0.632735
0.636055
0.636619
0.649919
2.41851
403.897
0.76178
0.697207
0.669106
0.654396
0.645504
0.639658
0.635546
0.632555
0.630271
0.628515
0.627095
0.625967
0.625013
0.624234
0.623567
0.623016
0.622524
0.622117
0.621741
0.621432
0.621137
0.620895
0.620667
0.620483
0.620296
0.620149
0.620006
0.619895
0.619768
0.619677
0.619596
0.619532
0.619453
0.619402
0.619353
0.619314
0.619247
0.619222
0.619192
0.619179
0.619167
0.61915
0.619104
0.619115
0.619115
0.619123
0.619116
0.619153
0.619153
0.619189
0.619189
0.619313
0.619314
0.619313
0.619378
0.619378
0.619498
0.619638
0.619771
0.619836
0.619836
0.619835
0.619942
0.620152
0.620291
0.620292
0.620403
0.620646
0.620799
0.620931
0.621188
0.621322
0.621503
0.62172
0.62194
0.622201
0.622511
0.62278
0.623113
0.623485
0.623805
0.624275
0.624678
0.625258
0.625777
0.626541
0.627209
0.628266
0.629063
0.630731
0.631732
0.635053
0.635599
0.649081
2.47544
405.172
0.761689
0.696793
0.668476
0.653629
0.644647
0.638739
0.634581
0.631557
0.629246
0.62747
0.626033
0.624892
0.623926
0.623138
0.622462
0.621905
0.621407
0.620994
0.620614
0.620301
0.620002
0.619756
0.619526
0.619339
0.61915
0.619001
0.618855
0.618743
0.618614
0.618522
0.618439
0.618375
0.618294
0.618242
0.618192
0.618153
0.618085
0.618059
0.618028
0.618015
0.618002
0.617985
0.617939
0.617949
0.617949
0.617956
0.617949
0.617985
0.617985
0.618021
0.618021
0.618146
0.618146
0.618146
0.61821
0.61821
0.61833
0.618471
0.618603
0.61867
0.61867
0.61867
0.618776
0.618986
0.619127
0.619129
0.619239
0.619482
0.619637
0.61977
0.620027
0.620162
0.620344
0.620562
0.620783
0.621044
0.621354
0.621625
0.621958
0.622332
0.622653
0.623124
0.623527
0.62411
0.624629
0.625395
0.626062
0.627122
0.627917
0.629586
0.630585
0.633907
0.634432
0.648125
2.54133
407.189
0.761588
0.69633
0.667768
0.652768
0.643684
0.637705
0.633497
0.630434
0.628093
0.626293
0.624838
0.623681
0.622702
0.621903
0.621218
0.620653
0.620148
0.619729
0.619344
0.619026
0.618723
0.618474
0.61824
0.618051
0.617859
0.617707
0.61756
0.617446
0.617315
0.617221
0.617137
0.617071
0.616989
0.616936
0.616885
0.616845
0.616776
0.616749
0.616718
0.616704
0.616691
0.616673
0.616626
0.616636
0.616636
0.616643
0.616634
0.61667
0.61667
0.616706
0.616706
0.61683
0.61683
0.61683
0.616895
0.616895
0.617015
0.617156
0.617289
0.617357
0.617357
0.617357
0.617463
0.617672
0.617816
0.617818
0.617929
0.618171
0.618328
0.618461
0.618718
0.618856
0.619038
0.619257
0.619478
0.61974
0.620051
0.620324
0.620656
0.621032
0.621355
0.621827
0.622232
0.622816
0.623335
0.624103
0.624769
0.625832
0.626626
0.628295
0.629292
0.632615
0.633116
0.647048
2.61651
409.81
0.761477
0.695817
0.666982
0.651811
0.642614
0.636556
0.63229
0.629184
0.62681
0.624984
0.623507
0.622333
0.62134
0.620529
0.619833
0.619259
0.618747
0.618321
0.61793
0.617607
0.6173
0.617047
0.616809
0.616616
0.616421
0.616267
0.616117
0.616001
0.615868
0.615772
0.615686
0.615619
0.615536
0.615481
0.615429
0.615388
0.615318
0.615291
0.615258
0.615244
0.61523
0.615212
0.615164
0.615174
0.615174
0.615179
0.61517
0.615206
0.615206
0.615241
0.615241
0.615365
0.615365
0.615365
0.61543
0.61543
0.61555
0.615691
0.615824
0.615895
0.615895
0.615895
0.616001
0.616209
0.616356
0.616359
0.616469
0.616711
0.616869
0.617003
0.617261
0.617401
0.617584
0.617803
0.618025
0.618288
0.618599
0.618874
0.619207
0.619585
0.619908
0.620382
0.620788
0.621374
0.621893
0.622664
0.623329
0.624395
0.625187
0.626856
0.627851
0.631175
0.631651
0.645848
2.70129
412.887
0.761357
0.695256
0.66612
0.650758
0.641435
0.63529
0.63096
0.627806
0.625395
0.62354
0.622039
0.620846
0.619837
0.619013
0.618306
0.617722
0.617201
0.616768
0.616371
0.616042
0.615729
0.615472
0.61523
0.615034
0.614835
0.614678
0.614525
0.614406
0.614271
0.614174
0.614085
0.614016
0.613932
0.613876
0.613822
0.61378
0.61371
0.613681
0.613648
0.613633
0.613618
0.613599
0.613551
0.61356
0.61356
0.613565
0.613555
0.61359
0.61359
0.613624
0.613624
0.613748
0.613748
0.613749
0.613814
0.613814
0.613933
0.614074
0.614208
0.614281
0.614281
0.614281
0.614387
0.614594
0.614744
0.614748
0.614858
0.6151
0.61526
0.615395
0.615652
0.615794
0.615978
0.616199
0.616422
0.616685
0.616997
0.617274
0.617607
0.617987
0.618311
0.618787
0.619194
0.619782
0.620301
0.621075
0.621739
0.622808
0.623599
0.625267
0.62626
0.629585
0.630032
0.644524
2.79591
416.268
0.761228
0.694645
0.665179
0.649609
0.640148
0.633906
0.629506
0.6263
0.623847
0.62196
0.620434
0.619219
0.618193
0.617354
0.616634
0.616039
0.615509
0.615068
0.614663
0.614328
0.61401
0.613748
0.613501
0.613301
0.613099
0.612938
0.612782
0.612661
0.612524
0.612424
0.612333
0.612262
0.612177
0.612119
0.612064
0.612021
0.611949
0.611919
0.611885
0.611869
0.611853
0.611834
0.611786
0.611793
0.611793
0.611797
0.611786
0.611821
0.611821
0.611854
0.611854
0.611978
0.611978
0.611978
0.612044
0.612044
0.612163
0.612304
0.612438
0.612514
0.612514
0.612514
0.61262
0.612826
0.612979
0.612985
0.613095
0.613335
0.613497
0.613633
0.613891
0.614035
0.61422
0.614441
0.614665
0.614929
0.615242
0.615521
0.615854
0.616237
0.616562
0.61704
0.617447
0.618038
0.618558
0.619334
0.619997
0.621069
0.621858
0.623526
0.624517
0.627842
0.628259
0.643074
2.90054
419.801
0.76109
0.693987
0.664162
0.648363
0.638751
0.632404
0.627927
0.624663
0.622166
0.620244
0.618689
0.617451
0.616406
0.61555
0.614817
0.61421
0.61367
0.61322
0.612807
0.612465
0.612141
0.611873
0.611622
0.611417
0.611211
0.611047
0.610887
0.610763
0.610623
0.610521
0.610428
0.610355
0.610267
0.610208
0.610151
0.610107
0.610034
0.610003
0.609968
0.609951
0.609934
0.609914
0.609865
0.609872
0.609872
0.609875
0.609862
0.609897
0.609897
0.609929
0.609929
0.610053
0.610053
0.610053
0.610119
0.610119
0.610238
0.610379
0.610513
0.610592
0.610592
0.610592
0.610698
0.610903
0.611059
0.611067
0.611176
0.611416
0.61158
0.611717
0.611975
0.612122
0.612307
0.61253
0.612755
0.613019
0.613333
0.613614
0.613947
0.614333
0.614659
0.615139
0.615547
0.616141
0.61666
0.617439
0.618101
0.619176
0.619964
0.621631
0.622619
0.625946
0.626329
0.641494
3.01529
423.34
0.760945
0.693281
0.663067
0.64702
0.637244
0.630782
0.626222
0.622895
0.62035
0.618389
0.616803
0.61554
0.614474
0.613601
0.612852
0.612233
0.611681
0.611222
0.610801
0.610451
0.61012
0.609846
0.60959
0.60938
0.60917
0.609002
0.608838
0.608711
0.608568
0.608463
0.608367
0.608292
0.608203
0.608141
0.608082
0.608037
0.607963
0.607931
0.607894
0.607876
0.607858
0.607838
0.607788
0.607794
0.607794
0.607796
0.607782
0.607816
0.607816
0.607848
0.607848
0.607971
0.607971
0.607971
0.608038
0.608038
0.608156
0.608297
0.608431
0.608513
0.608513
0.608513
0.608619
0.608823
0.608983
0.608992
0.609101
0.60934
0.609506
0.609644
0.609902
0.610052
0.610238
0.610462
0.610688
0.610953
0.611267
0.611551
0.611884
0.612272
0.6126
0.613083
0.613492
0.614088
0.614607
0.615389
0.61605
0.617128
0.617913
0.61958
0.620565
0.623892
0.62424
0.639784
3.14013
426.752
0.760793
0.692528
0.661895
0.645581
0.635627
0.629041
0.62439
0.620996
0.618398
0.616395
0.614776
0.613486
0.612397
0.611504
0.61074
0.610106
0.609542
0.609073
0.608642
0.608285
0.607946
0.607666
0.607403
0.607189
0.606973
0.606801
0.606634
0.606503
0.606357
0.606249
0.60615
0.606073
0.605981
0.605918
0.605857
0.60581
0.605735
0.605701
0.605663
0.605644
0.605625
0.605604
0.605554
0.605559
0.605558
0.605558
0.605544
0.605577
0.605577
0.605608
0.605607
0.605731
0.605731
0.605731
0.605797
0.605797
0.605915
0.606057
0.606191
0.606276
0.606276
0.606276
0.606382
0.606585
0.606748
0.606759
0.606867
0.607105
0.607274
0.607413
0.607671
0.607824
0.608011
0.608236
0.608463
0.608729
0.609044
0.609331
0.609664
0.610055
0.610384
0.610868
0.611278
0.611877
0.612397
0.613181
0.613841
0.614922
0.615705
0.617371
0.618352
0.62168
0.62199
0.637938
3.27492
429.917
0.760634
0.691729
0.660647
0.644046
0.6339
0.62718
0.622432
0.618963
0.616309
0.614261
0.612606
0.611286
0.610173
0.60926
0.608477
0.607829
0.607252
0.606771
0.60633
0.605964
0.605618
0.605331
0.605062
0.604841
0.604621
0.604444
0.604273
0.604138
0.603989
0.603878
0.603776
0.603696
0.603602
0.603536
0.603473
0.603425
0.603348
0.603312
0.603273
0.603253
0.603232
0.603211
0.60316
0.603164
0.603163
0.603162
0.603146
0.603178
0.603178
0.603208
0.603207
0.60333
0.60333
0.60333
0.603397
0.603397
0.603515
0.603656
0.603791
0.603879
0.603879
0.603879
0.603985
0.604187
0.604353
0.604367
0.604474
0.604711
0.604882
0.605022
0.60528
0.605437
0.605625
0.605851
0.606079
0.606346
0.606661
0.606951
0.607283
0.607677
0.608008
0.608495
0.608906
0.609507
0.610027
0.610814
0.611472
0.612557
0.613338
0.615002
0.615979
0.619308
0.619578
0.635956
3.41936
432.727
0.760468
0.690885
0.659324
0.642413
0.632062
0.625199
0.620345
0.616798
0.614082
0.611987
0.610293
0.608941
0.607801
0.606866
0.606064
0.6054
0.604809
0.604315
0.603864
0.603489
0.603134
0.602839
0.602563
0.602337
0.602111
0.60193
0.601753
0.601615
0.601462
0.601347
0.601242
0.601159
0.601063
0.600995
0.600929
0.600879
0.600801
0.600764
0.600723
0.600701
0.600679
0.600657
0.600606
0.600608
0.600607
0.600605
0.600587
0.600619
0.600619
0.600647
0.600646
0.600768
0.600768
0.600768
0.600836
0.600836
0.600953
0.601094
0.601229
0.60132
0.601321
0.601321
0.601427
0.601627
0.601797
0.601813
0.60192
0.602155
0.602329
0.60247
0.602728
0.602888
0.603077
0.603304
0.603533
0.603802
0.604117
0.60441
0.604742
0.605139
0.605471
0.605961
0.606372
0.606977
0.607496
0.608286
0.608942
0.610031
0.610809
0.612471
0.613445
0.616773
0.617002
0.633832
3.57297
435.095
0.760297
0.689997
0.657925
0.640685
0.630114
0.623096
0.618131
0.614499
0.611717
0.60957
0.607835
0.606449
0.60528
0.604322
0.6035
0.602818
0.602212
0.601706
0.601243
0.600857
0.600493
0.600191
0.599907
0.599675
0.599443
0.599256
0.599075
0.598932
0.598775
0.598657
0.598548
0.598462
0.598363
0.598292
0.598224
0.598172
0.598092
0.598053
0.598011
0.597987
0.597964
0.597942
0.59789
0.597891
0.597889
0.597885
0.597865
0.597897
0.597897
0.597924
0.597923
0.598044
0.598044
0.598044
0.598112
0.598112
0.598228
0.598369
0.598504
0.598599
0.5986
0.5986
0.598706
0.598904
0.599078
0.599097
0.599203
0.599437
0.599614
0.599756
0.600014
0.600177
0.600367
0.600596
0.600826
0.601095
0.60141
0.601706
0.602039
0.602439
0.602772
0.603264
0.603677
0.604284
0.604803
0.605596
0.60625
0.607342
0.608117
0.609778
0.610747
0.614074
0.614261
0.631564
3.73508
436.947
0.760121
0.689066
0.656452
0.638862
0.628056
0.620874
0.615788
0.612066
0.609214
0.607012
0.605232
0.603809
0.602611
0.601627
0.600783
0.600083
0.59946
0.59894
0.598465
0.598068
0.597695
0.597384
0.597093
0.596853
0.596615
0.596423
0.596236
0.596089
0.595928
0.595805
0.595693
0.595604
0.595501
0.595428
0.595357
0.595304
0.595221
0.595181
0.595136
0.595111
0.595087
0.595063
0.595011
0.59501
0.595008
0.595003
0.594981
0.595011
0.595011
0.595037
0.595036
0.595156
0.595156
0.595156
0.595224
0.595224
0.59534
0.595481
0.595616
0.595714
0.595715
0.595715
0.595821
0.596018
0.596195
0.596218
0.596323
0.596555
0.596734
0.596878
0.597135
0.597302
0.597494
0.597723
0.597954
0.598225
0.59854
0.598839
0.599172
0.599575
0.599909
0.600404
0.600817
0.601427
0.601946
0.602743
0.603394
0.604489
0.605262
0.606919
0.607883
0.611208
0.611352
0.629147
3.90478
438.225
0.759942
0.688093
0.654906
0.636943
0.625888
0.618531
0.613317
0.609499
0.606573
0.604311
0.602483
0.601022
0.599791
0.59878
0.597913
0.597193
0.596554
0.596019
0.59553
0.595122
0.594738
0.594418
0.594119
0.593872
0.593627
0.593428
0.593236
0.593084
0.592918
0.592792
0.592675
0.592583
0.592477
0.592401
0.592327
0.592271
0.592187
0.592144
0.592098
0.592071
0.592045
0.592021
0.591968
0.591966
0.591962
0.591956
0.591932
0.591961
0.591961
0.591986
0.591984
0.592104
0.592104
0.592104
0.592172
0.592172
0.592287
0.592427
0.592563
0.592664
0.592666
0.592666
0.592772
0.592967
0.593147
0.593174
0.593278
0.593509
0.59369
0.593835
0.594092
0.594262
0.594455
0.594686
0.594918
0.595189
0.595505
0.595808
0.59614
0.596546
0.596882
0.597379
0.597793
0.598406
0.598924
0.599723
0.600372
0.60147
0.60224
0.603895
0.604853
0.608176
0.608275
0.626578
4.0809
438.885
0.759758
0.687079
0.653288
0.634931
0.623611
0.616068
0.610718
0.606797
0.603792
0.601468
0.599589
0.598087
0.596822
0.595782
0.59489
0.594149
0.593491
0.59294
0.592438
0.592018
0.591623
0.591293
0.590984
0.59073
0.590478
0.590273
0.590075
0.589917
0.589747
0.589615
0.589494
0.589399
0.58929
0.589211
0.589134
0.589075
0.588989
0.588944
0.588895
0.588867
0.588839
0.588814
0.58876
0.588756
0.588752
0.588744
0.588718
0.588746
0.588746
0.58877
0.588767
0.588885
0.588885
0.588885
0.588954
0.588954
0.589068
0.589208
0.589343
0.589449
0.589451
0.589451
0.589557
0.58975
0.589933
0.589964
0.590067
0.590296
0.59048
0.590627
0.590883
0.591057
0.591251
0.591483
0.591716
0.591988
0.592305
0.59261
0.592942
0.593351
0.593688
0.594187
0.594602
0.595218
0.595735
0.596538
0.597184
0.598285
0.599051
0.600702
0.601655
0.604974
0.605027
0.623851
4.262
438.893
0.759572
0.686027
0.6516
0.632826
0.621226
0.613485
0.607991
0.603962
0.600872
0.598482
0.596549
0.595003
0.593701
0.592631
0.591713
0.59095
0.590272
0.589705
0.589187
0.588754
0.588348
0.588007
0.587689
0.587426
0.587167
0.586955
0.58675
0.586587
0.586412
0.586276
0.58615
0.586051
0.585938
0.585856
0.585775
0.585715
0.585626
0.585578
0.585528
0.585497
0.585467
0.585441
0.585387
0.585381
0.585376
0.585367
0.585338
0.585365
0.585365
0.585387
0.585383
0.585501
0.585501
0.585501
0.58557
0.58557
0.585683
0.585823
0.585957
0.586067
0.586069
0.586069
0.586175
0.586366
0.586552
0.586588
0.58669
0.586917
0.587103
0.587251
0.587507
0.587685
0.58788
0.588113
0.588347
0.588621
0.588937
0.589246
0.589577
0.589989
0.590327
0.590829
0.591244
0.591863
0.592379
0.593185
0.593828
0.594931
0.595694
0.597341
0.598288
0.601602
0.601609
0.620962
4.44636
438.239
0.759384
0.684937
0.649842
0.63063
0.618733
0.610784
0.605137
0.600992
0.597814
0.595353
0.593364
0.591771
0.590431
0.589328
0.588382
0.587595
0.586897
0.586311
0.585778
0.585331
0.584913
0.584561
0.584233
0.583962
0.583694
0.583475
0.583263
0.583094
0.582913
0.582772
0.582642
0.582538
0.582422
0.582336
0.582252
0.582189
0.582098
0.582048
0.581994
0.581962
0.58193
0.581903
0.581848
0.58184
0.581833
0.581823
0.581792
0.581818
0.581818
0.581838
0.581833
0.581949
0.58195
0.58195
0.582018
0.582018
0.58213
0.58227
0.582404
0.582517
0.58252
0.58252
0.582626
0.582815
0.583004
0.583045
0.583146
0.58337
0.583559
0.583708
0.583964
0.584145
0.584341
0.584576
0.584811
0.585086
0.585401
0.585714
0.586044
0.58646
0.586798
0.587303
0.587718
0.58834
0.588855
0.589664
0.590303
0.591409
0.592168
0.593811
0.594751
0.598057
0.59802
0.617906
4.63194
436.889
0.759195
0.683811
0.648018
0.628343
0.616133
0.607964
0.602156
0.59789
0.594617
0.592081
0.590032
0.58839
0.587009
0.585872
0.584897
0.584085
0.583365
0.582761
0.582211
0.581749
0.581317
0.580955
0.580616
0.580335
0.580059
0.579832
0.579613
0.579438
0.579251
0.579105
0.578969
0.578861
0.578741
0.578651
0.578564
0.578497
0.578404
0.578351
0.578295
0.578261
0.578226
0.578198
0.578142
0.578133
0.578124
0.578113
0.578079
0.578104
0.578104
0.578123
0.578116
0.578231
0.578231
0.578231
0.5783
0.5783
0.578411
0.578549
0.578684
0.5788
0.578804
0.578804
0.57891
0.579096
0.579289
0.579334
0.579434
0.579656
0.579847
0.579998
0.580253
0.580437
0.580634
0.580871
0.581107
0.581382
0.581698
0.582013
0.582343
0.582762
0.583101
0.583608
0.584023
0.584649
0.585162
0.585973
0.586609
0.587717
0.588472
0.590109
0.591042
0.59434
0.594257
0.614676
4.8164
434.833
0.759006
0.682652
0.646127
0.625967
0.613429
0.605028
0.59905
0.594655
0.591282
0.588668
0.586555
0.584861
0.583437
0.582264
0.581258
0.580419
0.579676
0.579052
0.578485
0.578008
0.577562
0.577187
0.576837
0.576546
0.576261
0.576027
0.5758
0.575618
0.575425
0.575273
0.575132
0.575019
0.574895
0.574801
0.57471
0.574641
0.574544
0.574489
0.57443
0.574393
0.574356
0.574327
0.574269
0.574258
0.574248
0.574236
0.5742
0.574223
0.574223
0.574239
0.574232
0.574345
0.574345
0.574345
0.574413
0.574413
0.574524
0.574661
0.574795
0.574915
0.57492
0.57492
0.575026
0.575209
0.575404
0.575455
0.575554
0.575774
0.575967
0.576119
0.576373
0.576561
0.57676
0.576997
0.577234
0.57751
0.577825
0.578144
0.578473
0.578895
0.579235
0.579744
0.580159
0.580787
0.581299
0.582113
0.582744
0.583854
0.584605
0.586236
0.587161
0.590451
0.590321
0.611267
4.99708
432.058
0.758817
0.681461
0.644174
0.623505
0.610621
0.601976
0.595818
0.591288
0.587811
0.585114
0.582934
0.581185
0.579715
0.578504
0.577465
0.576599
0.575831
0.575186
0.5746
0.574107
0.573647
0.573259
0.572897
0.572596
0.572301
0.572058
0.571824
0.571635
0.571436
0.571278
0.57113
0.571013
0.570884
0.570786
0.570691
0.570618
0.570519
0.57046
0.570398
0.570359
0.570319
0.570289
0.57023
0.570217
0.570205
0.570191
0.570153
0.570175
0.570174
0.570189
0.57018
0.570291
0.570291
0.570291
0.57036
0.570359
0.570469
0.570605
0.570738
0.570862
0.570868
0.570868
0.570973
0.571154
0.571352
0.571408
0.571506
0.571723
0.571918
0.572072
0.572324
0.572517
0.572716
0.572954
0.573192
0.57347
0.573784
0.574106
0.574434
0.574859
0.575199
0.575711
0.576126
0.576756
0.577265
0.578082
0.578709
0.57982
0.580566
0.582191
0.583108
0.586387
0.586211
0.607673
5.17104
428.545
0.75863
0.68024
0.642159
0.620957
0.607711
0.598809
0.592463
0.587791
0.584203
0.581419
0.579168
0.577362
0.575844
0.574592
0.573519
0.572624
0.571831
0.571164
0.570558
0.570048
0.569572
0.569171
0.568796
0.568484
0.56818
0.567927
0.567684
0.567488
0.567282
0.567118
0.566965
0.566842
0.566708
0.566606
0.566506
0.56643
0.566328
0.566266
0.566201
0.566159
0.566117
0.566085
0.566025
0.566009
0.565995
0.565981
0.56594
0.565959
0.565959
0.565972
0.565961
0.56607
0.56607
0.56607
0.566138
0.566138
0.566246
0.566381
0.566513
0.566641
0.566647
0.566647
0.566753
0.566931
0.567131
0.567192
0.56729
0.567504
0.5677
0.567856
0.568107
0.568303
0.568503
0.568743
0.568982
0.56926
0.569573
0.569899
0.570225
0.570653
0.570994
0.571508
0.571922
0.572555
0.573062
0.57388
0.574503
0.575614
0.576356
0.577973
0.578882
0.582148
0.581928
0.603888
5.33508
424.273
0.758445
0.678991
0.640085
0.618327
0.6047
0.59553
0.588986
0.584164
0.58046
0.577584
0.57526
0.573393
0.571825
0.570531
0.569421
0.568495
0.567675
0.566985
0.566358
0.56583
0.565338
0.564923
0.564535
0.564212
0.563896
0.563635
0.563383
0.563179
0.562966
0.562795
0.562635
0.562507
0.562368
0.562261
0.562157
0.562077
0.561972
0.561906
0.561838
0.561793
0.561748
0.561715
0.561653
0.561635
0.561619
0.561603
0.56156
0.561577
0.561577
0.561588
0.561575
0.561681
0.561681
0.561681
0.561749
0.561749
0.561856
0.56199
0.562121
0.562252
0.562259
0.56226
0.562365
0.56254
0.562742
0.562808
0.562905
0.563117
0.563315
0.563472
0.563722
0.563921
0.564122
0.564363
0.564602
0.564881
0.565193
0.565522
0.565847
0.566277
0.566619
0.567135
0.567548
0.568183
0.568687
0.569508
0.570125
0.571237
0.571973
0.573582
0.574482
0.577735
0.57747
0.599904
5.48575
419.211
0.758263
0.677717
0.637954
0.615616
0.601592
0.592139
0.585388
0.58041
0.576584
0.573611
0.571209
0.569279
0.567658
0.566319
0.565172
0.564213
0.563365
0.56265
0.562002
0.561455
0.560946
0.560516
0.560114
0.559779
0.559452
0.559181
0.55892
0.558707
0.558487
0.558309
0.558142
0.558009
0.557864
0.557753
0.557643
0.55756
0.557451
0.557382
0.55731
0.557263
0.557214
0.557179
0.557115
0.557095
0.557077
0.55706
0.557015
0.55703
0.557029
0.557038
0.557023
0.557126
0.557126
0.557126
0.557193
0.557193
0.557299
0.557431
0.557561
0.557696
0.557704
0.557704
0.55781
0.557981
0.558185
0.558257
0.558354
0.558562
0.558761
0.55892
0.559168
0.559371
0.559573
0.559815
0.560054
0.560334
0.560645
0.560977
0.5613
0.561733
0.562074
0.562592
0.563004
0.563641
0.564143
0.564965
0.565576
0.566688
0.567419
0.569019
0.569909
0.573147
0.572839
0.595715
5.61944
413.323
0.758085
0.676419
0.63577
0.612827
0.598388
0.588641
0.581672
0.576529
0.572576
0.569502
0.567018
0.565021
0.563344
0.561959
0.560772
0.559779
0.558901
0.558161
0.55749
0.556923
0.556397
0.555951
0.555535
0.555186
0.554849
0.554567
0.554296
0.554075
0.553846
0.553661
0.553487
0.553348
0.553197
0.553081
0.552966
0.552879
0.552766
0.552693
0.552618
0.552567
0.552516
0.552479
0.552413
0.552391
0.55237
0.552352
0.552304
0.552317
0.552316
0.552322
0.552305
0.552405
0.552405
0.552405
0.552471
0.552472
0.552575
0.552706
0.552835
0.552973
0.552982
0.552982
0.553087
0.553256
0.553461
0.553538
0.553635
0.55384
0.55404
0.5542
0.554447
0.554653
0.554856
0.555099
0.555338
0.555619
0.555928
0.556263
0.556585
0.557019
0.55736
0.55788
0.558291
0.55893
0.559428
0.560251
0.560857
0.561968
0.562693
0.564283
0.565162
0.568383
0.568035
0.591315
5.73244
406.563
0.757912
0.675102
0.633535
0.609963
0.595091
0.585035
0.57784
0.572525
0.568437
0.565258
0.562688
0.560621
0.558886
0.557453
0.556223
0.555195
0.554286
0.553519
0.552824
0.552236
0.551691
0.551229
0.550798
0.550436
0.550086
0.549793
0.549512
0.549282
0.549045
0.548853
0.548671
0.548525
0.548369
0.548247
0.548127
0.548035
0.547919
0.547842
0.547763
0.547709
0.547654
0.547614
0.547547
0.547522
0.547499
0.547479
0.547429
0.547439
0.547439
0.547442
0.547422
0.547519
0.547519
0.547519
0.547584
0.547585
0.547687
0.547816
0.547943
0.548084
0.548095
0.548094
0.548199
0.548364
0.54857
0.548653
0.54875
0.548952
0.549152
0.549314
0.549559
0.549768
0.549971
0.550215
0.550455
0.550737
0.551044
0.551382
0.551701
0.552138
0.552478
0.552999
0.553408
0.554049
0.554543
0.555367
0.555967
0.557076
0.557795
0.559374
0.560243
0.563445
0.563058
0.586696
5.82102
398.878
0.757744
0.673766
0.631252
0.607027
0.591704
0.581326
0.573893
0.568398
0.564171
0.56088
0.558221
0.556081
0.554285
0.5528
0.551527
0.550461
0.54952
0.548725
0.548005
0.547396
0.546831
0.546351
0.545905
0.545529
0.545166
0.544862
0.54457
0.54433
0.544085
0.543884
0.543695
0.543543
0.54338
0.543253
0.543127
0.543031
0.54291
0.542829
0.542746
0.542688
0.54263
0.542588
0.542518
0.54249
0.542465
0.542444
0.542392
0.542399
0.542398
0.542399
0.542375
0.542469
0.542469
0.542469
0.542533
0.542533
0.542634
0.542761
0.542887
0.54303
0.543042
0.543042
0.543147
0.543308
0.543514
0.543603
0.543699
0.543898
0.544099
0.544262
0.544505
0.544717
0.544921
0.545166
0.545405
0.545688
0.545993
0.546333
0.54665
0.547089
0.547429
0.547951
0.548358
0.548999
0.54949
0.550314
0.550908
0.552014
0.552727
0.554294
0.555152
0.558332
0.557909
0.581853
5.88157
390.214
0.757583
0.672415
0.628925
0.604022
0.588229
0.577516
0.569835
0.564152
0.559778
0.556372
0.553619
0.551402
0.549543
0.548005
0.546686
0.545581
0.544606