/*--------------------------------*- C++ -*----------------------------------*\
| =========                 |                                                 |
| \\      /  F ield         | OpenFOAM: The Open Source CFD Toolbox           |
|  \\    /   O peration     | Version:  v2012                                 |
|   \\  /    A nd           | Website:  www.openfoam.com                      |
|    \\/     M anipulation  |                                                 |
\*---------------------------------------------------------------------------*/
FoamFile
{
    version     2.0;
    format      ascii;
    class       volVectorField;
    location    "15.5";
    object      wallShearStress;
}
// * * * * * * * * * * * * * * * * * * * * * * * * * * * * * * * * * * * * * //

dimensions      [0 2 -2 0 0 0 0];


internalField   uniform (0 0 0);

boundaryField
{
    inlet
    {
        type            calculated;
        value           uniform (0 0 0);
    }
    outlet
    {
        type            calculated;
        value           uniform (0 0 0);
    }
    topWall
    {
        type            calculated;
        value           nonuniform List<vector> 
545
(
(3.85914e-08 -2.71921e-08 0)
(3.85866e-08 -7.6068e-08 0)
(3.85299e-08 -1.2683e-07 0)
(3.84554e-08 -1.76087e-07 0)
(3.83732e-08 -2.2318e-07 0)
(3.82902e-08 -2.68734e-07 0)
(3.81956e-08 -3.1314e-07 0)
(3.80909e-08 -3.56376e-07 0)
(3.79771e-08 -3.98347e-07 0)
(3.78547e-08 -4.39048e-07 0)
(3.77248e-08 -4.78532e-07 0)
(3.75881e-08 -5.16846e-07 0)
(3.74453e-08 -5.54015e-07 0)
(3.7297e-08 -5.90064e-07 0)
(3.71439e-08 -6.25019e-07 0)
(3.69866e-08 -6.5891e-07 0)
(3.68256e-08 -6.91764e-07 0)
(3.66616e-08 -7.23612e-07 0)
(3.64949e-08 -7.54481e-07 0)
(3.6326e-08 -7.84397e-07 0)
(3.61553e-08 -8.13388e-07 0)
(3.59832e-08 -8.41481e-07 0)
(3.58101e-08 -8.68703e-07 0)
(3.56364e-08 -8.95078e-07 0)
(3.54622e-08 -9.20633e-07 0)
(3.52878e-08 -9.45392e-07 0)
(3.51137e-08 -9.69379e-07 0)
(3.49398e-08 -9.92619e-07 0)
(3.47666e-08 -1.01513e-06 0)
(3.45941e-08 -1.03694e-06 0)
(3.44226e-08 -1.05808e-06 0)
(3.42522e-08 -1.07855e-06 0)
(3.40831e-08 -1.09838e-06 0)
(3.39154e-08 -1.1176e-06 0)
(3.37491e-08 -1.13621e-06 0)
(3.35845e-08 -1.15425e-06 0)
(3.34216e-08 -1.17173e-06 0)
(3.32605e-08 -1.18866e-06 0)
(3.31012e-08 -1.20507e-06 0)
(3.29439e-08 -1.22096e-06 0)
(3.27885e-08 -1.23637e-06 0)
(3.26352e-08 -1.2513e-06 0)
(3.24839e-08 -1.26577e-06 0)
(3.23347e-08 -1.27979e-06 0)
(3.21875e-08 -1.29338e-06 0)
(3.20426e-08 -1.30655e-06 0)
(3.18997e-08 -1.31931e-06 0)
(3.17591e-08 -1.33169e-06 0)
(3.16205e-08 -1.34368e-06 0)
(3.14841e-08 -1.35531e-06 0)
(3.13498e-08 -1.36658e-06 0)
(3.12177e-08 -1.37751e-06 0)
(3.10876e-08 -1.38811e-06 0)
(3.09597e-08 -1.39838e-06 0)
(3.08338e-08 -1.40834e-06 0)
(3.07099e-08 -1.418e-06 0)
(3.05881e-08 -1.42737e-06 0)
(3.04682e-08 -1.43645e-06 0)
(3.03503e-08 -1.44526e-06 0)
(3.02343e-08 -1.45381e-06 0)
(3.01202e-08 -1.4621e-06 0)
(3.0008e-08 -1.47014e-06 0)
(2.98976e-08 -1.47793e-06 0)
(2.97889e-08 -1.4855e-06 0)
(2.9682e-08 -1.49284e-06 0)
(2.95768e-08 -1.49996e-06 0)
(2.94732e-08 -1.50687e-06 0)
(2.93712e-08 -1.51357e-06 0)
(2.92709e-08 -1.52007e-06 0)
(2.91716e-08 -1.52638e-06 0)
(2.90763e-08 -1.53251e-06 0)
(2.89732e-08 -1.53843e-06 0)
(2.8873e-08 -1.54412e-06 0)
(2.87914e-08 -1.54968e-06 0)
(2.87128e-08 -1.55512e-06 0)
(2.86339e-08 -1.56052e-06 0)
(2.8555e-08 -1.56591e-06 0)
(2.84763e-08 -1.57127e-06 0)
(2.83976e-08 -1.57658e-06 0)
(2.83189e-08 -1.58185e-06 0)
(2.82404e-08 -1.58708e-06 0)
(2.8162e-08 -1.59227e-06 0)
(2.80836e-08 -1.59742e-06 0)
(2.80054e-08 -1.60254e-06 0)
(2.79272e-08 -1.60762e-06 0)
(2.78492e-08 -1.61266e-06 0)
(2.77713e-08 -1.61767e-06 0)
(2.76934e-08 -1.62263e-06 0)
(2.76157e-08 -1.62756e-06 0)
(2.75382e-08 -1.63246e-06 0)
(2.74608e-08 -1.63732e-06 0)
(2.73832e-08 -1.64213e-06 0)
(2.73068e-08 -1.64694e-06 0)
(2.72263e-08 -1.65167e-06 0)
(2.7167e-08 -1.65648e-06 0)
(2.70334e-08 -1.66099e-06 0)
(2.68648e-08 -1.66511e-06 0)
(2.67853e-08 -1.66916e-06 0)
(2.67274e-08 -1.67291e-06 0)
(2.66683e-08 -1.67653e-06 0)
(2.66093e-08 -1.68024e-06 0)
(2.65504e-08 -1.68405e-06 0)
(2.64911e-08 -1.68782e-06 0)
(2.64316e-08 -1.69157e-06 0)
(2.63718e-08 -1.69532e-06 0)
(2.63118e-08 -1.69908e-06 0)
(2.62515e-08 -1.70283e-06 0)
(2.61909e-08 -1.70659e-06 0)
(2.61301e-08 -1.71035e-06 0)
(2.6069e-08 -1.71411e-06 0)
(2.60076e-08 -1.71786e-06 0)
(2.5946e-08 -1.72162e-06 0)
(2.58842e-08 -1.72538e-06 0)
(2.58221e-08 -1.72914e-06 0)
(2.57597e-08 -1.73289e-06 0)
(2.56971e-08 -1.73665e-06 0)
(2.56342e-08 -1.74041e-06 0)
(2.55711e-08 -1.74416e-06 0)
(2.55078e-08 -1.74792e-06 0)
(2.54442e-08 -1.75167e-06 0)
(2.53803e-08 -1.75543e-06 0)
(2.53162e-08 -1.75918e-06 0)
(2.52519e-08 -1.76293e-06 0)
(2.51873e-08 -1.76669e-06 0)
(2.51225e-08 -1.77044e-06 0)
(2.50574e-08 -1.77419e-06 0)
(2.49921e-08 -1.77794e-06 0)
(2.49265e-08 -1.78169e-06 0)
(2.48606e-08 -1.78544e-06 0)
(2.47946e-08 -1.78918e-06 0)
(2.47282e-08 -1.79293e-06 0)
(2.46617e-08 -1.79667e-06 0)
(2.45949e-08 -1.80042e-06 0)
(2.45278e-08 -1.80416e-06 0)
(2.44605e-08 -1.8079e-06 0)
(2.43929e-08 -1.81164e-06 0)
(2.43251e-08 -1.81537e-06 0)
(2.4257e-08 -1.81911e-06 0)
(2.41887e-08 -1.82284e-06 0)
(2.41202e-08 -1.82657e-06 0)
(2.40513e-08 -1.8303e-06 0)
(2.39823e-08 -1.83403e-06 0)
(2.3913e-08 -1.83776e-06 0)
(2.38434e-08 -1.84148e-06 0)
(2.37736e-08 -1.8452e-06 0)
(2.37035e-08 -1.84892e-06 0)
(2.36332e-08 -1.85264e-06 0)
(2.35627e-08 -1.85636e-06 0)
(2.34918e-08 -1.86007e-06 0)
(2.34208e-08 -1.86378e-06 0)
(2.33495e-08 -1.86749e-06 0)
(2.32779e-08 -1.87119e-06 0)
(2.32061e-08 -1.8749e-06 0)
(2.3134e-08 -1.8786e-06 0)
(2.30617e-08 -1.88229e-06 0)
(2.29891e-08 -1.88599e-06 0)
(2.29163e-08 -1.88968e-06 0)
(2.28432e-08 -1.89337e-06 0)
(2.27699e-08 -1.89705e-06 0)
(2.26964e-08 -1.90073e-06 0)
(2.26225e-08 -1.90441e-06 0)
(2.25485e-08 -1.90809e-06 0)
(2.24742e-08 -1.91176e-06 0)
(2.23996e-08 -1.91543e-06 0)
(2.23248e-08 -1.91909e-06 0)
(2.22497e-08 -1.92275e-06 0)
(2.21744e-08 -1.92641e-06 0)
(2.20988e-08 -1.93006e-06 0)
(2.2023e-08 -1.93371e-06 0)
(2.1947e-08 -1.93736e-06 0)
(2.18707e-08 -1.941e-06 0)
(2.17941e-08 -1.94463e-06 0)
(2.17173e-08 -1.94827e-06 0)
(2.16403e-08 -1.9519e-06 0)
(2.1563e-08 -1.95552e-06 0)
(2.14855e-08 -1.95914e-06 0)
(2.14077e-08 -1.96275e-06 0)
(2.13297e-08 -1.96637e-06 0)
(2.12514e-08 -1.96997e-06 0)
(2.11729e-08 -1.97357e-06 0)
(2.10942e-08 -1.97717e-06 0)
(2.10152e-08 -1.98076e-06 0)
(2.0936e-08 -1.98434e-06 0)
(2.08565e-08 -1.98793e-06 0)
(2.07768e-08 -1.9915e-06 0)
(2.06968e-08 -1.99507e-06 0)
(2.06166e-08 -1.99864e-06 0)
(2.05362e-08 -2.0022e-06 0)
(2.04556e-08 -2.00575e-06 0)
(2.03747e-08 -2.0093e-06 0)
(2.02935e-08 -2.01284e-06 0)
(2.02122e-08 -2.01638e-06 0)
(2.01305e-08 -2.01991e-06 0)
(2.00487e-08 -2.02343e-06 0)
(1.99666e-08 -2.02695e-06 0)
(1.98843e-08 -2.03046e-06 0)
(1.98018e-08 -2.03397e-06 0)
(1.9719e-08 -2.03747e-06 0)
(1.9636e-08 -2.04096e-06 0)
(1.95528e-08 -2.04445e-06 0)
(1.94693e-08 -2.04793e-06 0)
(1.93857e-08 -2.0514e-06 0)
(1.93017e-08 -2.05487e-06 0)
(1.92176e-08 -2.05833e-06 0)
(1.91332e-08 -2.06178e-06 0)
(1.90487e-08 -2.06522e-06 0)
(1.89639e-08 -2.06866e-06 0)
(1.88788e-08 -2.07209e-06 0)
(1.87936e-08 -2.07552e-06 0)
(1.87081e-08 -2.07893e-06 0)
(1.86224e-08 -2.08234e-06 0)
(1.85365e-08 -2.08574e-06 0)
(1.84504e-08 -2.08913e-06 0)
(1.83641e-08 -2.09252e-06 0)
(1.82775e-08 -2.09589e-06 0)
(1.81907e-08 -2.09926e-06 0)
(1.81037e-08 -2.10262e-06 0)
(1.80166e-08 -2.10598e-06 0)
(1.79291e-08 -2.10932e-06 0)
(1.78415e-08 -2.11266e-06 0)
(1.77537e-08 -2.11598e-06 0)
(1.76657e-08 -2.1193e-06 0)
(1.75774e-08 -2.12261e-06 0)
(1.7489e-08 -2.12591e-06 0)
(1.74004e-08 -2.1292e-06 0)
(1.73115e-08 -2.13249e-06 0)
(1.72225e-08 -2.13576e-06 0)
(1.71332e-08 -2.13902e-06 0)
(1.70438e-08 -2.14228e-06 0)
(1.69541e-08 -2.14553e-06 0)
(1.68643e-08 -2.14876e-06 0)
(1.67742e-08 -2.15199e-06 0)
(1.6684e-08 -2.1552e-06 0)
(1.65936e-08 -2.15841e-06 0)
(1.6503e-08 -2.16161e-06 0)
(1.64122e-08 -2.1648e-06 0)
(1.63212e-08 -2.16797e-06 0)
(1.623e-08 -2.17114e-06 0)
(1.61386e-08 -2.17429e-06 0)
(1.60471e-08 -2.17744e-06 0)
(1.59553e-08 -2.18058e-06 0)
(1.58634e-08 -2.1837e-06 0)
(1.57713e-08 -2.18681e-06 0)
(1.56791e-08 -2.18992e-06 0)
(1.55866e-08 -2.19301e-06 0)
(1.5494e-08 -2.19609e-06 0)
(1.54012e-08 -2.19916e-06 0)
(1.53082e-08 -2.20222e-06 0)
(1.52151e-08 -2.20526e-06 0)
(1.51218e-08 -2.2083e-06 0)
(1.50283e-08 -2.21132e-06 0)
(1.49347e-08 -2.21433e-06 0)
(1.48409e-08 -2.21733e-06 0)
(1.47469e-08 -2.22032e-06 0)
(1.46528e-08 -2.2233e-06 0)
(1.45586e-08 -2.22626e-06 0)
(1.44641e-08 -2.22922e-06 0)
(1.43696e-08 -2.23216e-06 0)
(1.42748e-08 -2.23508e-06 0)
(1.41799e-08 -2.238e-06 0)
(1.40849e-08 -2.2409e-06 0)
(1.39897e-08 -2.24379e-06 0)
(1.38944e-08 -2.24666e-06 0)
(1.3799e-08 -2.24953e-06 0)
(1.37033e-08 -2.25237e-06 0)
(1.3608e-08 -2.25523e-06 0)
(1.351e-08 -2.25802e-06 0)
(1.34252e-08 -2.26099e-06 0)
(1.32967e-08 -2.26354e-06 0)
(1.31423e-08 -2.26602e-06 0)
(1.30432e-08 -2.26886e-06 0)
(1.29642e-08 -2.27131e-06 0)
(1.28843e-08 -2.27365e-06 0)
(1.28038e-08 -2.2761e-06 0)
(1.27226e-08 -2.27864e-06 0)
(1.26403e-08 -2.28117e-06 0)
(1.25571e-08 -2.28368e-06 0)
(1.24729e-08 -2.28621e-06 0)
(1.23876e-08 -2.28875e-06 0)
(1.23014e-08 -2.2913e-06 0)
(1.22142e-08 -2.29386e-06 0)
(1.2126e-08 -2.29643e-06 0)
(1.20368e-08 -2.29901e-06 0)
(1.19465e-08 -2.3016e-06 0)
(1.18553e-08 -2.3042e-06 0)
(1.17631e-08 -2.3068e-06 0)
(1.16698e-08 -2.30941e-06 0)
(1.15755e-08 -2.31203e-06 0)
(1.14802e-08 -2.31466e-06 0)
(1.13839e-08 -2.31729e-06 0)
(1.12866e-08 -2.31993e-06 0)
(1.11883e-08 -2.32257e-06 0)
(1.10889e-08 -2.32522e-06 0)
(1.09885e-08 -2.32787e-06 0)
(1.0887e-08 -2.33053e-06 0)
(1.07846e-08 -2.33319e-06 0)
(1.06811e-08 -2.33586e-06 0)
(1.05765e-08 -2.33853e-06 0)
(1.04709e-08 -2.3412e-06 0)
(1.03643e-08 -2.34387e-06 0)
(1.02567e-08 -2.34654e-06 0)
(1.0148e-08 -2.34922e-06 0)
(1.00382e-08 -2.35189e-06 0)
(9.92742e-09 -2.35456e-06 0)
(9.81559e-09 -2.35723e-06 0)
(9.70271e-09 -2.3599e-06 0)
(9.58878e-09 -2.36257e-06 0)
(9.47382e-09 -2.36524e-06 0)
(9.35781e-09 -2.3679e-06 0)
(9.24076e-09 -2.37056e-06 0)
(9.12266e-09 -2.37321e-06 0)
(9.00353e-09 -2.37585e-06 0)
(8.88336e-09 -2.37849e-06 0)
(8.76216e-09 -2.38112e-06 0)
(8.63992e-09 -2.38375e-06 0)
(8.51666e-09 -2.38636e-06 0)
(8.39236e-09 -2.38896e-06 0)
(8.26705e-09 -2.39156e-06 0)
(8.14072e-09 -2.39414e-06 0)
(8.01338e-09 -2.39671e-06 0)
(7.88503e-09 -2.39927e-06 0)
(7.75568e-09 -2.40181e-06 0)
(7.62533e-09 -2.40434e-06 0)
(7.49399e-09 -2.40685e-06 0)
(7.36167e-09 -2.40934e-06 0)
(7.22838e-09 -2.41182e-06 0)
(7.09412e-09 -2.41428e-06 0)
(6.9589e-09 -2.41671e-06 0)
(6.82273e-09 -2.41913e-06 0)
(6.68563e-09 -2.42152e-06 0)
(6.5476e-09 -2.42389e-06 0)
(6.40865e-09 -2.42624e-06 0)
(6.2688e-09 -2.42856e-06 0)
(6.12806e-09 -2.43085e-06 0)
(5.98643e-09 -2.43311e-06 0)
(5.84394e-09 -2.43535e-06 0)
(5.70059e-09 -2.43755e-06 0)
(5.55641e-09 -2.43973e-06 0)
(5.41141e-09 -2.44187e-06 0)
(5.2656e-09 -2.44397e-06 0)
(5.119e-09 -2.44604e-06 0)
(4.97164e-09 -2.44808e-06 0)
(4.82352e-09 -2.45007e-06 0)
(4.67467e-09 -2.45203e-06 0)
(4.52511e-09 -2.45394e-06 0)
(4.37486e-09 -2.45581e-06 0)
(4.22393e-09 -2.45764e-06 0)
(4.07237e-09 -2.45942e-06 0)
(3.92018e-09 -2.46116e-06 0)
(3.76739e-09 -2.46284e-06 0)
(3.61403e-09 -2.46448e-06 0)
(3.46012e-09 -2.46606e-06 0)
(3.30569e-09 -2.4676e-06 0)
(3.15077e-09 -2.46907e-06 0)
(2.99538e-09 -2.47049e-06 0)
(2.83956e-09 -2.47186e-06 0)
(2.68334e-09 -2.47316e-06 0)
(2.52674e-09 -2.47441e-06 0)
(2.36981e-09 -2.47559e-06 0)
(2.21257e-09 -2.4767e-06 0)
(2.05506e-09 -2.47775e-06 0)
(1.89731e-09 -2.47874e-06 0)
(1.73936e-09 -2.47965e-06 0)
(1.58125e-09 -2.48049e-06 0)
(1.42301e-09 -2.48126e-06 0)
(1.26469e-09 -2.48195e-06 0)
(1.10632e-09 -2.48257e-06 0)
(9.47941e-10 -2.48311e-06 0)
(7.89603e-10 -2.48357e-06 0)
(6.31345e-10 -2.48395e-06 0)
(4.73209e-10 -2.48424e-06 0)
(3.15241e-10 -2.48445e-06 0)
(1.57486e-10 -2.48457e-06 0)
(-9.39275e-15 -2.48461e-06 0)
(-1.57198e-10 -2.48455e-06 0)
(-3.14033e-10 -2.4844e-06 0)
(-4.70464e-10 -2.48415e-06 0)
(-6.26443e-10 -2.48382e-06 0)
(-7.81917e-10 -2.48338e-06 0)
(-9.36839e-10 -2.48284e-06 0)
(-1.09115e-09 -2.4822e-06 0)
(-1.24481e-09 -2.48146e-06 0)
(-1.39776e-09 -2.48061e-06 0)
(-1.54994e-09 -2.47967e-06 0)
(-1.7013e-09 -2.4786e-06 0)
(-1.85179e-09 -2.47744e-06 0)
(-2.00135e-09 -2.47615e-06 0)
(-2.14993e-09 -2.47476e-06 0)
(-2.29747e-09 -2.47325e-06 0)
(-2.44391e-09 -2.47163e-06 0)
(-2.5892e-09 -2.46988e-06 0)
(-2.73329e-09 -2.46802e-06 0)
(-2.8761e-09 -2.46604e-06 0)
(-3.01761e-09 -2.46394e-06 0)
(-3.15772e-09 -2.4617e-06 0)
(-3.29641e-09 -2.45935e-06 0)
(-3.4336e-09 -2.45687e-06 0)
(-3.56924e-09 -2.45426e-06 0)
(-3.70327e-09 -2.45152e-06 0)
(-3.83565e-09 -2.44866e-06 0)
(-3.96629e-09 -2.44565e-06 0)
(-4.09516e-09 -2.44252e-06 0)
(-4.22218e-09 -2.43925e-06 0)
(-4.34732e-09 -2.43585e-06 0)
(-4.4705e-09 -2.43231e-06 0)
(-4.59167e-09 -2.42864e-06 0)
(-4.71076e-09 -2.42482e-06 0)
(-4.82774e-09 -2.42087e-06 0)
(-4.94251e-09 -2.41678e-06 0)
(-5.05506e-09 -2.41255e-06 0)
(-5.16529e-09 -2.40817e-06 0)
(-5.27318e-09 -2.40366e-06 0)
(-5.37863e-09 -2.399e-06 0)
(-5.48163e-09 -2.3942e-06 0)
(-5.58207e-09 -2.38925e-06 0)
(-5.67995e-09 -2.38417e-06 0)
(-5.77517e-09 -2.37894e-06 0)
(-5.8677e-09 -2.37357e-06 0)
(-5.95747e-09 -2.36805e-06 0)
(-6.04445e-09 -2.3624e-06 0)
(-6.12856e-09 -2.35659e-06 0)
(-6.20979e-09 -2.35065e-06 0)
(-6.28806e-09 -2.34456e-06 0)
(-6.36337e-09 -2.33834e-06 0)
(-6.43564e-09 -2.33196e-06 0)
(-6.50487e-09 -2.32546e-06 0)
(-6.571e-09 -2.31881e-06 0)
(-6.63406e-09 -2.31203e-06 0)
(-6.69396e-09 -2.3051e-06 0)
(-6.75074e-09 -2.29804e-06 0)
(-6.80434e-09 -2.29085e-06 0)
(-6.8548e-09 -2.28352e-06 0)
(-6.90207e-09 -2.27606e-06 0)
(-6.94619e-09 -2.26847e-06 0)
(-6.98711e-09 -2.26075e-06 0)
(-7.02489e-09 -2.2529e-06 0)
(-7.05947e-09 -2.24493e-06 0)
(-7.09092e-09 -2.23683e-06 0)
(-7.11918e-09 -2.22861e-06 0)
(-7.14432e-09 -2.22027e-06 0)
(-7.16628e-09 -2.21181e-06 0)
(-7.18513e-09 -2.20324e-06 0)
(-7.20079e-09 -2.19455e-06 0)
(-7.21332e-09 -2.18575e-06 0)
(-7.22263e-09 -2.17684e-06 0)
(-7.22872e-09 -2.16783e-06 0)
(-7.23158e-09 -2.15868e-06 0)
(-7.23006e-09 -2.14952e-06 0)
(-7.2274e-09 -2.13996e-06 0)
(-7.21308e-09 -2.13085e-06 0)
(-7.18859e-09 -2.12052e-06 0)
(-7.16605e-09 -2.10847e-06 0)
(-7.14419e-09 -2.09692e-06 0)
(-7.12217e-09 -2.08549e-06 0)
(-7.09604e-09 -2.074e-06 0)
(-7.06682e-09 -2.06251e-06 0)
(-7.03443e-09 -2.05107e-06 0)
(-6.99902e-09 -2.03972e-06 0)
(-6.96065e-09 -2.02842e-06 0)
(-6.91956e-09 -2.01719e-06 0)
(-6.87576e-09 -2.00601e-06 0)
(-6.8295e-09 -1.99492e-06 0)
(-6.78081e-09 -1.9839e-06 0)
(-6.72994e-09 -1.97297e-06 0)
(-6.6769e-09 -1.9621e-06 0)
(-6.62193e-09 -1.95135e-06 0)
(-6.56504e-09 -1.94066e-06 0)
(-6.50645e-09 -1.93009e-06 0)
(-6.44616e-09 -1.91959e-06 0)
(-6.38437e-09 -1.90921e-06 0)
(-6.32108e-09 -1.89892e-06 0)
(-6.25647e-09 -1.88874e-06 0)
(-6.19052e-09 -1.87866e-06 0)
(-6.1234e-09 -1.8687e-06 0)
(-6.05507e-09 -1.85883e-06 0)
(-5.98571e-09 -1.84909e-06 0)
(-5.91527e-09 -1.83945e-06 0)
(-5.8439e-09 -1.82993e-06 0)
(-5.77155e-09 -1.82052e-06 0)
(-5.69838e-09 -1.81124e-06 0)
(-5.62432e-09 -1.80207e-06 0)
(-5.54951e-09 -1.79303e-06 0)
(-5.4739e-09 -1.78409e-06 0)
(-5.39763e-09 -1.7753e-06 0)
(-5.32063e-09 -1.76661e-06 0)
(-5.24303e-09 -1.75807e-06 0)
(-5.16478e-09 -1.74963e-06 0)
(-5.08601e-09 -1.74134e-06 0)
(-5.00664e-09 -1.73316e-06 0)
(-4.92682e-09 -1.72513e-06 0)
(-4.84646e-09 -1.71721e-06 0)
(-4.7657e-09 -1.70943e-06 0)
(-4.68448e-09 -1.70178e-06 0)
(-4.6029e-09 -1.69427e-06 0)
(-4.5209e-09 -1.68687e-06 0)
(-4.4386e-09 -1.67963e-06 0)
(-4.35592e-09 -1.6725e-06 0)
(-4.27297e-09 -1.66552e-06 0)
(-4.1897e-09 -1.65867e-06 0)
(-4.10617e-09 -1.65196e-06 0)
(-4.02235e-09 -1.64537e-06 0)
(-3.93831e-09 -1.63894e-06 0)
(-3.85399e-09 -1.63262e-06 0)
(-3.76947e-09 -1.62646e-06 0)
(-3.6847e-09 -1.62042e-06 0)
(-3.59973e-09 -1.61453e-06 0)
(-3.51452e-09 -1.60876e-06 0)
(-3.42913e-09 -1.60315e-06 0)
(-3.34351e-09 -1.59766e-06 0)
(-3.25772e-09 -1.59233e-06 0)
(-3.1717e-09 -1.58712e-06 0)
(-3.08551e-09 -1.58206e-06 0)
(-2.99911e-09 -1.57713e-06 0)
(-2.91255e-09 -1.57235e-06 0)
(-2.82578e-09 -1.5677e-06 0)
(-2.73885e-09 -1.5632e-06 0)
(-2.65172e-09 -1.55883e-06 0)
(-2.56443e-09 -1.55461e-06 0)
(-2.47696e-09 -1.55053e-06 0)
(-2.38933e-09 -1.54659e-06 0)
(-2.30151e-09 -1.54279e-06 0)
(-2.21354e-09 -1.53914e-06 0)
(-2.12539e-09 -1.53562e-06 0)
(-2.03707e-09 -1.53225e-06 0)
(-1.94855e-09 -1.52902e-06 0)
(-1.85986e-09 -1.52594e-06 0)
(-1.77096e-09 -1.52299e-06 0)
(-1.68185e-09 -1.5202e-06 0)
(-1.5925e-09 -1.51754e-06 0)
(-1.50291e-09 -1.51503e-06 0)
(-1.41304e-09 -1.51266e-06 0)
(-1.3229e-09 -1.51045e-06 0)
(-1.23248e-09 -1.50837e-06 0)
(-1.14183e-09 -1.50645e-06 0)
(-1.05102e-09 -1.50466e-06 0)
(-9.60225e-10 -1.50304e-06 0)
(-8.69727e-10 -1.50153e-06 0)
(-7.79999e-10 -1.5003e-06 0)
(-6.91515e-10 -1.49876e-06 0)
(-6.05335e-10 -1.49884e-06 0)
(-5.20242e-10 -1.49405e-06 0)
(-4.40522e-10 -1.50541e-06 0)
(-3.42956e-10 -1.45973e-06 0)
(-3.00472e-10 -1.57908e-06 0)
(-1.59309e-10 -1.37878e-06 0)
)
;
    }
    bottomWall
    {
        type            calculated;
        value           nonuniform List<vector> 
449
(
(-53.0086 -0.959207 0)
(-34.9441 -0.00281567 0)
(-34.5383 -0.000258183 0)
(-33.1684 -0.000366815 0)
(-32.026 -0.000322307 0)
(-30.9561 -0.000293121 0)
(-30.0113 -0.000253989 0)
(-29.2084 -0.000215985 0)
(-28.5222 -0.000186598 0)
(-27.9183 -0.000165791 0)
(-27.3722 -0.000150599 0)
(-26.8705 -0.000138569 0)
(-26.4057 -0.000128282 0)
(-25.9736 -0.000119137 0)
(-25.5708 -0.000110975 0)
(-25.1942 -0.000103528 0)
(-24.8422 -9.67326e-05 0)
(-24.512 -9.05778e-05 0)
(-24.202 -8.48831e-05 0)
(-23.9108 -7.97213e-05 0)
(-23.6362 -7.50136e-05 0)
(-23.3773 -7.06605e-05 0)
(-23.1325 -6.67563e-05 0)
(-22.9004 -6.31041e-05 0)
(-22.6807 -5.9685e-05 0)
(-22.4721 -5.65948e-05 0)
(-22.2737 -5.37821e-05 0)
(-22.0845 -5.11498e-05 0)
(-21.9042 -4.87784e-05 0)
(-21.7313 -4.6488e-05 0)
(-21.5669 -4.43046e-05 0)
(-21.4091 -4.23222e-05 0)
(-21.2584 -4.05159e-05 0)
(-21.1132 -3.88341e-05 0)
(-20.9741 -3.72721e-05 0)
(-20.8396 -3.57285e-05 0)
(-20.7113 -3.43037e-05 0)
(-20.5868 -3.29907e-05 0)
(-20.4675 -3.17256e-05 0)
(-20.3518 -3.05564e-05 0)
(-20.2407 -2.94418e-05 0)
(-20.1328 -2.84467e-05 0)
(-20.0286 -2.74684e-05 0)
(-19.9275 -2.65375e-05 0)
(-19.8298 -2.56482e-05 0)
(-19.7349 -2.48285e-05 0)
(-19.6429 -2.40009e-05 0)
(-19.5538 -2.32497e-05 0)
(-19.4671 -2.25034e-05 0)
(-19.3833 -2.17983e-05 0)
(-19.3015 -2.11395e-05 0)
(-19.2223 -2.05693e-05 0)
(-19.1445 -1.99598e-05 0)
(-19.0696 -1.93641e-05 0)
(-18.9961 -1.88358e-05 0)
(-18.9249 -1.83377e-05 0)
(-18.8548 -1.78683e-05 0)
(-18.7869 -1.7374e-05 0)
(-18.7204 -1.69276e-05 0)
(-18.6556 -1.64997e-05 0)
(-18.5921 -1.60879e-05 0)
(-18.5302 -1.56972e-05 0)
(-18.4694 -1.52968e-05 0)
(-18.4105 -1.48868e-05 0)
(-18.3526 -1.45341e-05 0)
(-18.2961 -1.42156e-05 0)
(-18.2405 -1.38928e-05 0)
(-18.1863 -1.35639e-05 0)
(-18.1331 -1.3288e-05 0)
(-18.0808 -1.30146e-05 0)
(-18.0295 -1.27124e-05 0)
(-17.9794 -1.23983e-05 0)
(-17.9304 -1.21446e-05 0)
(-17.8821 -1.19223e-05 0)
(-17.8346 -1.16757e-05 0)
(-17.788 -1.1451e-05 0)
(-17.7421 -1.1223e-05 0)
(-17.6972 -1.0986e-05 0)
(-17.6531 -1.07285e-05 0)
(-17.6101 -1.04816e-05 0)
(-17.5677 -1.02901e-05 0)
(-17.526 -1.01201e-05 0)
(-17.4848 -9.95747e-06 0)
(-17.4443 -9.76562e-06 0)
(-17.4045 -9.56373e-06 0)
(-17.3655 -9.34643e-06 0)
(-17.3273 -9.16222e-06 0)
(-17.2896 -9.06026e-06 0)
(-17.2521 -8.92586e-06 0)
(-17.2154 -8.75612e-06 0)
(-17.1791 -8.58934e-06 0)
(-17.1436 -8.40776e-06 0)
(-17.1086 -8.25627e-06 0)
(-17.0742 -8.10546e-06 0)
(-17.0404 -7.94327e-06 0)
(-17.0072 -7.80926e-06 0)
(-16.9744 -7.71423e-06 0)
(-16.9418 -7.59436e-06 0)
(-16.9098 -7.4667e-06 0)
(-16.8782 -7.33179e-06 0)
(-16.8473 -7.20828e-06 0)
(-16.8166 -7.10781e-06 0)
(-16.7863 -6.98512e-06 0)
(-16.7565 -6.8541e-06 0)
(-16.7272 -6.74838e-06 0)
(-16.6982 -6.65497e-06 0)
(-16.6696 -6.54234e-06 0)
(-16.6414 -6.48438e-06 0)
(-16.6132 -6.39697e-06 0)
(-16.5857 -6.30702e-06 0)
(-16.5581 -6.20648e-06 0)
(-16.5313 -6.07304e-06 0)
(-16.5048 -5.96789e-06 0)
(-16.4788 -5.85016e-06 0)
(-16.4532 -5.7399e-06 0)
(-16.4281 -5.65639e-06 0)
(-16.4031 -5.60896e-06 0)
(-16.3782 -5.54359e-06 0)
(-16.3537 -5.44202e-06 0)
(-16.3297 -5.37407e-06 0)
(-16.3056 -5.34441e-06 0)
(-16.2817 -5.28045e-06 0)
(-16.2582 -5.19968e-06 0)
(-16.2349 -5.1262e-06 0)
(-16.2119 -5.02698e-06 0)
(-16.1894 -4.92698e-06 0)
(-16.1672 -4.84486e-06 0)
(-16.1454 -4.77033e-06 0)
(-16.1238 -4.71268e-06 0)
(-16.1023 -4.67808e-06 0)
(-16.0809 -4.65115e-06 0)
(-16.0596 -4.62189e-06 0)
(-16.0384 -4.55963e-06 0)
(-16.0176 -4.49885e-06 0)
(-15.9968 -4.45498e-06 0)
(-15.9763 -4.38756e-06 0)
(-15.9561 -4.2989e-06 0)
(-15.9363 -4.22905e-06 0)
(-15.9166 -4.1495e-06 0)
(-15.8975 -4.08634e-06 0)
(-15.8784 -3.99557e-06 0)
(-15.86 -3.92674e-06 0)
(-15.8414 -3.89086e-06 0)
(-15.8233 -3.85306e-06 0)
(-15.8049 -3.82287e-06 0)
(-15.7871 -3.79825e-06 0)
(-15.7688 -3.79133e-06 0)
(-15.7509 -3.72275e-06 0)
(-15.7333 -3.66986e-06 0)
(-15.7158 -3.62869e-06 0)
(-15.6985 -3.60226e-06 0)
(-15.6812 -3.53762e-06 0)
(-15.6644 -3.49315e-06 0)
(-15.6474 -3.44125e-06 0)
(-15.631 -3.35937e-06 0)
(-15.6148 -3.32042e-06 0)
(-15.5988 -3.28459e-06 0)
(-15.5828 -3.24322e-06 0)
(-15.5671 -3.19517e-06 0)
(-15.5515 -3.19084e-06 0)
(-15.5357 -3.16826e-06 0)
(-15.5203 -3.14335e-06 0)
(-15.5047 -3.13554e-06 0)
(-15.4893 -3.07371e-06 0)
(-15.4742 -2.98714e-06 0)
(-15.4596 -2.9489e-06 0)
(-15.4449 -2.92896e-06 0)
(-15.4304 -2.87903e-06 0)
(-15.416 -2.85094e-06 0)
(-15.4018 -2.83437e-06 0)
(-15.3875 -2.80986e-06 0)
(-15.3734 -2.80779e-06 0)
(-15.3591 -2.81121e-06 0)
(-15.3457 -2.82961e-06 0)
(-15.3327 -2.82279e-06 0)
(-15.32 -2.77244e-06 0)
(-15.3072 -2.73748e-06 0)
(-15.2944 -2.7034e-06 0)
(-15.2817 -2.63697e-06 0)
(-15.2693 -2.63595e-06 0)
(-15.2563 -2.64052e-06 0)
(-15.2436 -2.59252e-06 0)
(-15.2308 -2.56879e-06 0)
(-15.2181 -2.5319e-06 0)
(-15.2054 -2.4648e-06 0)
(-15.1931 -2.40832e-06 0)
(-15.1806 -2.3788e-06 0)
(-15.1684 -2.39043e-06 0)
(-15.1555 -2.39881e-06 0)
(-15.1429 -2.38827e-06 0)
(-15.1299 -2.33395e-06 0)
(-15.1176 -2.31553e-06 0)
(-15.1045 -2.31872e-06 0)
(-15.0919 -2.246e-06 0)
(-15.0794 -2.2059e-06 0)
(-15.0669 -2.18778e-06 0)
(-15.0543 -2.18321e-06 0)
(-15.0416 -2.15631e-06 0)
(-15.0291 -2.14126e-06 0)
(-15.0163 -2.13332e-06 0)
(-15.0036 -2.11902e-06 0)
(-14.9907 -2.11102e-06 0)
(-14.9778 -2.10605e-06 0)
(-14.9647 -2.08389e-06 0)
(-14.9517 -2.05628e-06 0)
(-14.9387 -2.03803e-06 0)
(-14.9257 -1.98899e-06 0)
(-14.9131 -1.91866e-06 0)
(-14.9008 -1.871e-06 0)
(-14.8885 -1.82736e-06 0)
(-14.8765 -1.79459e-06 0)
(-14.8644 -1.76339e-06 0)
(-14.8526 -1.7524e-06 0)
(-14.8403 -1.76581e-06 0)
(-14.828 -1.75453e-06 0)
(-14.8156 -1.72871e-06 0)
(-14.8034 -1.71557e-06 0)
(-14.7909 -1.71084e-06 0)
(-14.7785 -1.72556e-06 0)
(-14.7656 -1.72585e-06 0)
(-14.7529 -1.70068e-06 0)
(-14.74 -1.70058e-06 0)
(-14.7271 -1.67798e-06 0)
(-14.7143 -1.6682e-06 0)
(-14.7012 -1.64772e-06 0)
(-14.6885 -1.61244e-06 0)
(-14.6757 -1.62564e-06 0)
(-14.6625 -1.58435e-06 0)
(-14.6501 -1.56672e-06 0)
(-14.6368 -1.58099e-06 0)
(-14.6239 -1.54239e-06 0)
(-14.611 -1.55054e-06 0)
(-14.5977 -1.54234e-06 0)
(-14.5847 -1.48688e-06 0)
(-14.572 -1.46222e-06 0)
(-14.5592 -1.44589e-06 0)
(-14.5466 -1.42027e-06 0)
(-14.5339 -1.36346e-06 0)
(-14.522 -1.32575e-06 0)
(-14.5098 -1.30362e-06 0)
(-14.4981 -1.27538e-06 0)
(-14.486 -1.28109e-06 0)
(-14.4739 -1.29885e-06 0)
(-14.4613 -1.30255e-06 0)
(-14.4488 -1.28905e-06 0)
(-14.4362 -1.29876e-06 0)
(-14.4233 -1.27657e-06 0)
(-14.4108 -1.23164e-06 0)
(-14.3985 -1.22632e-06 0)
(-14.3859 -1.21966e-06 0)
(-14.3735 -1.21476e-06 0)
(-14.3607 -1.20415e-06 0)
(-14.3483 -1.17215e-06 0)
(-14.3359 -1.15446e-06 0)
(-14.3235 -1.15151e-06 0)
(-14.3109 -1.1452e-06 0)
(-14.2985 -1.12112e-06 0)
(-14.2861 -1.09611e-06 0)
(-14.2739 -1.09095e-06 0)
(-14.2615 -1.06843e-06 0)
(-14.2495 -1.06218e-06 0)
(-14.2369 -1.06342e-06 0)
(-14.2247 -1.04711e-06 0)
(-14.2122 -1.02372e-06 0)
(-14.2003 -9.98765e-07 0)
(-14.1881 -9.89934e-07 0)
(-14.1762 -9.6015e-07 0)
(-14.1645 -9.56765e-07 0)
(-14.1523 -9.64e-07 0)
(-14.1402 -9.54919e-07 0)
(-14.128 -9.26027e-07 0)
(-14.1164 -8.90616e-07 0)
(-14.1049 -8.78826e-07 0)
(-14.0933 -8.88522e-07 0)
(-14.0813 -8.76801e-07 0)
(-14.0697 -8.50174e-07 0)
(-14.0582 -8.4356e-07 0)
(-14.0466 -8.20313e-07 0)
(-14.0354 -7.9958e-07 0)
(-14.0241 -7.96544e-07 0)
(-14.0128 -7.98156e-07 0)
(-14.0012 -8.12091e-07 0)
(-13.9892 -7.95337e-07 0)
(-13.9779 -7.89518e-07 0)
(-13.9658 -7.8413e-07 0)
(-13.9544 -7.782e-07 0)
(-13.9423 -7.50328e-07 0)
(-13.9315 -7.0471e-07 0)
(-13.9206 -6.88461e-07 0)
(-13.9101 -6.80212e-07 0)
(-13.8991 -7.01807e-07 0)
(-13.8876 -7.04835e-07 0)
(-13.8763 -6.84696e-07 0)
(-13.8653 -6.83782e-07 0)
(-13.8538 -6.79159e-07 0)
(-13.8427 -6.44809e-07 0)
(-13.8321 -6.46159e-07 0)
(-13.8207 -6.37383e-07 0)
(-13.8101 -6.22717e-07 0)
(-13.799 -6.33346e-07 0)
(-13.7878 -6.13947e-07 0)
(-13.7771 -6.28435e-07 0)
(-13.7651 -6.55307e-07 0)
(-13.7532 -6.42231e-07 0)
(-13.7415 -5.98847e-07 0)
(-13.731 -5.4638e-07 0)
(-13.7211 -5.41119e-07 0)
(-13.7105 -5.46964e-07 0)
(-13.7001 -5.4777e-07 0)
(-13.6893 -5.58855e-07 0)
(-13.6782 -5.43969e-07 0)
(-13.6677 -5.26623e-07 0)
(-13.6571 -5.26223e-07 0)
(-13.6464 -5.06752e-07 0)
(-13.6364 -4.82759e-07 0)
(-13.6265 -4.75963e-07 0)
(-13.6166 -4.86422e-07 0)
(-13.606 -4.84508e-07 0)
(-13.5959 -4.73709e-07 0)
(-13.5855 -4.63423e-07 0)
(-13.5756 -4.68696e-07 0)
(-13.5648 -4.77459e-07 0)
(-13.5543 -4.64798e-07 0)
(-13.5438 -4.51868e-07 0)
(-13.5337 -4.45654e-07 0)
(-13.5233 -4.46939e-07 0)
(-13.5129 -4.42067e-07 0)
(-13.5024 -4.3498e-07 0)
(-13.4922 -4.16467e-07 0)
(-13.4824 -4.18384e-07 0)
(-13.4718 -4.25309e-07 0)
(-13.4615 -4.00574e-07 0)
(-13.4519 -3.93934e-07 0)
(-13.4417 -4.07906e-07 0)
(-13.4312 -4.11229e-07 0)
(-13.4206 -3.78959e-07 0)
(-13.4116 -3.46652e-07 0)
(-13.4025 -3.48198e-07 0)
(-13.3931 -3.44896e-07 0)
(-13.384 -3.42786e-07 0)
(-13.3745 -3.57536e-07 0)
(-13.3643 -3.58403e-07 0)
(-13.3547 -3.41772e-07 0)
(-13.3452 -3.34515e-07 0)
(-13.3357 -3.25089e-07 0)
(-13.3267 -3.19419e-07 0)
(-13.3173 -3.272e-07 0)
(-13.3075 -3.24609e-07 0)
(-13.2981 -3.1799e-07 0)
(-13.2885 -3.2192e-07 0)
(-13.2786 -3.12701e-07 0)
(-13.2694 -3.00991e-07 0)
(-13.2601 -2.98636e-07 0)
(-13.2508 -2.8701e-07 0)
(-13.241 -2.77604e-07 0)
(-13.2303 -2.73445e-07 0)
(-13.2197 -2.69718e-07 0)
(-13.2092 -2.7134e-07 0)
(-13.1986 -2.63634e-07 0)
(-13.1887 -2.56682e-07 0)
(-13.1786 -2.50583e-07 0)
(-13.1692 -2.3837e-07 0)
(-13.16 -2.39195e-07 0)
(-13.1505 -2.47323e-07 0)
(-13.1407 -2.41601e-07 0)
(-13.1317 -2.24387e-07 0)
(-13.1233 -2.1773e-07 0)
(-13.1148 -2.13248e-07 0)
(-13.1067 -2.14725e-07 0)
(-13.098 -2.27521e-07 0)
(-13.0889 -2.1829e-07 0)
(-13.081 -2.07716e-07 0)
(-13.0727 -2.05227e-07 0)
(-13.065 -1.99003e-07 0)
(-13.0573 -2.06616e-07 0)
(-13.0489 -2.2022e-07 0)
(-13.0401 -2.11623e-07 0)
(-13.0324 -1.91872e-07 0)
(-13.0251 -1.77534e-07 0)
(-13.0186 -1.74077e-07 0)
(-13.0116 -1.90509e-07 0)
(-13.0037 -1.87819e-07 0)
(-12.9969 -1.88239e-07 0)
(-12.989 -1.90017e-07 0)
(-12.9821 -1.66324e-07 0)
(-12.9761 -1.38915e-07 0)
(-12.9713 -1.33686e-07 0)
(-12.9657 -1.46746e-07 0)
(-12.9599 -1.58326e-07 0)
(-12.9534 -1.67703e-07 0)
(-12.9468 -1.7195e-07 0)
(-12.94 -1.75293e-07 0)
(-12.9331 -1.69376e-07 0)
(-12.9268 -1.64473e-07 0)
(-12.9203 -1.65344e-07 0)
(-12.9139 -1.62052e-07 0)
(-12.9077 -1.63291e-07 0)
(-12.9012 -1.60677e-07 0)
(-12.8952 -1.54055e-07 0)
(-12.8891 -1.55424e-07 0)
(-12.883 -1.54783e-07 0)
(-12.8771 -1.53322e-07 0)
(-12.8711 -1.51842e-07 0)
(-12.8652 -1.39399e-07 0)
(-12.8602 -1.24245e-07 0)
(-12.8556 -1.31462e-07 0)
(-12.85 -1.39511e-07 0)
(-12.8447 -1.27528e-07 0)
(-12.8401 -1.30866e-07 0)
(-12.8345 -1.32714e-07 0)
(-12.8297 -1.32804e-07 0)
(-12.8242 -1.34042e-07 0)
(-12.8193 -1.27404e-07 0)
(-12.8143 -1.19725e-07 0)
(-12.81 -1.14962e-07 0)
(-12.8053 -1.18925e-07 0)
(-12.8007 -1.21766e-07 0)
(-12.7958 -1.25379e-07 0)
(-12.7909 -1.31798e-07 0)
(-12.7855 -1.35777e-07 0)
(-12.7803 -1.18784e-07 0)
(-12.7763 -1.14128e-07 0)
(-12.7714 -1.30931e-07 0)
(-12.7661 -1.22428e-07 0)
(-12.7619 -1.04085e-07 0)
(-12.7579 -1.03783e-07 0)
(-12.7538 -1.00271e-07 0)
(-12.7502 -9.66219e-08 0)
(-12.7463 -1.00292e-07 0)
(-12.7423 -1.02659e-07 0)
(-12.7383 -1.0721e-07 0)
(-12.734 -1.13239e-07 0)
(-12.7295 -1.15762e-07 0)
(-12.725 -1.04125e-07 0)
(-12.7214 -9.28222e-08 0)
(-12.7177 -9.43945e-08 0)
(-12.714 -9.4368e-08 0)
(-12.7104 -1.00821e-07 0)
(-12.7061 -1.09425e-07 0)
(-12.7018 -1.03841e-07 0)
(-12.6981 -1.00108e-07 0)
(-12.6941 -1.07209e-07 0)
(-12.6897 -1.05586e-07 0)
(-12.6859 -1.03043e-07 0)
(-12.6817 -1.01267e-07 0)
(-12.678 -1.1839e-07 0)
(-12.6724 -8.33215e-08 0)
(-12.6715 -1.12794e-07 0)
(-12.6635 -1.04788e-07 0)
)
;
    }
    symmetry
    {
        type            symmetryPlane;
    }
    frontAndBack
    {
        type            empty;
    }
}


// ************************************************************************* //
