/*--------------------------------*- C++ -*----------------------------------*\
| =========                 |                                                 |
| \\      /  F ield         | OpenFOAM: The Open Source CFD Toolbox           |
|  \\    /   O peration     | Version:  v2012                                 |
|   \\  /    A nd           | Website:  www.openfoam.com                      |
|    \\/     M anipulation  |                                                 |
\*---------------------------------------------------------------------------*/
FoamFile
{
    version     2.0;
    format      ascii;
    class       volScalarField;
    location    "14";
    object      epsilon;
}
// * * * * * * * * * * * * * * * * * * * * * * * * * * * * * * * * * * * * * //

dimensions      [0 2 -3 0 0 0 0];


internalField   nonuniform List<scalar> 
209825
(
0.765225
0.70927
0.686264
0.674552
0.667578
0.663048
0.659887
0.657606
0.655869
0.654545
0.653473
0.652629
0.65191
0.651329
0.650833
0.650426
0.650061
0.649762
0.649483
0.649257
0.649038
0.648862
0.648697
0.648566
0.648427
0.648324
0.648223
0.648147
0.648052
0.647993
0.647941
0.6479
0.647842
0.647812
0.647783
0.647757
0.647702
0.647692
0.647675
0.647673
0.647671
0.647665
0.647641
0.647662
0.647662
0.647683
0.647682
0.647725
0.647725
0.647769
0.647769
0.647889
0.647889
0.647889
0.647946
0.647946
0.648073
0.648203
0.648319
0.648351
0.648351
0.648351
0.648465
0.648677
0.648755
0.648755
0.648877
0.649117
0.649216
0.649349
0.649595
0.649675
0.649854
0.650057
0.650263
0.650519
0.65081
0.651043
0.651377
0.651699
0.652006
0.652445
0.652833
0.653382
0.653903
0.654633
0.655328
0.656333
0.657222
0.65887
0.659951
0.663468
0.6641
0.678052
1.79514
346.122
0.765222
0.709255
0.686239
0.674521
0.667544
0.663011
0.659847
0.657565
0.655828
0.654502
0.65343
0.652585
0.651866
0.651285
0.650787
0.650381
0.650015
0.649715
0.649437
0.649211
0.648991
0.648816
0.64865
0.648519
0.64838
0.648277
0.648176
0.6481
0.648004
0.647945
0.647893
0.647852
0.647795
0.647764
0.647736
0.647709
0.647654
0.647644
0.647627
0.647626
0.647623
0.647617
0.647594
0.647614
0.647614
0.647635
0.647634
0.647677
0.647677
0.647721
0.647721
0.647841
0.647841
0.647841
0.647898
0.647898
0.648025
0.648155
0.648271
0.648304
0.648304
0.648303
0.648417
0.648629
0.648708
0.648708
0.64883
0.649069
0.649168
0.649302
0.649548
0.649628
0.649807
0.65001
0.650216
0.650472
0.650763
0.650996
0.651331
0.651652
0.65196
0.652399
0.652787
0.653336
0.653857
0.654587
0.655283
0.656288
0.657177
0.658826
0.659906
0.663425
0.664055
0.678031
1.79845
342.839
0.765201
0.709177
0.686125
0.674385
0.667393
0.66285
0.659679
0.657392
0.65565
0.654321
0.653246
0.652399
0.651678
0.651096
0.650597
0.650189
0.649823
0.649523
0.649243
0.649017
0.648796
0.64862
0.648454
0.648323
0.648184
0.64808
0.647978
0.647902
0.647807
0.647748
0.647695
0.647654
0.647596
0.647566
0.647537
0.64751
0.647455
0.647446
0.647428
0.647427
0.647424
0.647418
0.647394
0.647415
0.647415
0.647435
0.647435
0.647478
0.647478
0.647521
0.647521
0.647642
0.647642
0.647642
0.647699
0.647699
0.647825
0.647956
0.648072
0.648105
0.648105
0.648104
0.648218
0.64843
0.648509
0.648509
0.648631
0.648871
0.64897
0.649104
0.64935
0.64943
0.64961
0.649813
0.650019
0.650275
0.650566
0.6508
0.651135
0.651457
0.651764
0.652204
0.652592
0.653142
0.653663
0.654393
0.65509
0.656095
0.656985
0.658634
0.659714
0.663234
0.663859
0.677882
1.80688
339.26
0.765166
0.709044
0.685931
0.674154
0.667138
0.662578
0.659395
0.657099
0.65535
0.654016
0.652936
0.652086
0.651362
0.650777
0.650276
0.649867
0.649498
0.649197
0.648916
0.648689
0.648467
0.648291
0.648124
0.647992
0.647852
0.647748
0.647646
0.647569
0.647473
0.647414
0.647361
0.647319
0.647262
0.647231
0.647202
0.647175
0.647119
0.64711
0.647092
0.647091
0.647088
0.647082
0.647058
0.647078
0.647078
0.647098
0.647098
0.647141
0.647141
0.647184
0.647184
0.647305
0.647305
0.647305
0.647362
0.647362
0.647489
0.647619
0.647735
0.647769
0.647769
0.647768
0.647882
0.648094
0.648174
0.648174
0.648296
0.648536
0.648636
0.64877
0.649016
0.649097
0.649276
0.64948
0.649687
0.649943
0.650234
0.650468
0.650803
0.651126
0.651434
0.651874
0.652263
0.652813
0.653335
0.654066
0.654763
0.655769
0.656659
0.658309
0.659389
0.66291
0.663529
0.677622
1.82046
336.102
0.765116
0.708856
0.685656
0.673827
0.666777
0.662194
0.658994
0.656685
0.654926
0.653584
0.652499
0.651643
0.650915
0.650327
0.649823
0.649411
0.64904
0.648737
0.648454
0.648226
0.648003
0.647825
0.647657
0.647524
0.647384
0.647279
0.647176
0.647098
0.647002
0.646942
0.646889
0.646847
0.646789
0.646757
0.646728
0.646701
0.646645
0.646635
0.646617
0.646616
0.646613
0.646606
0.646582
0.646603
0.646603
0.646623
0.646622
0.646665
0.646665
0.646708
0.646708
0.646829
0.646829
0.646829
0.646886
0.646886
0.647013
0.647144
0.64726
0.647294
0.647294
0.647293
0.647407
0.647619
0.6477
0.6477
0.647822
0.648062
0.648163
0.648297
0.648544
0.648626
0.648805
0.649009
0.649216
0.649473
0.649764
0.65
0.650335
0.650658
0.650967
0.651408
0.651797
0.652349
0.652871
0.653603
0.6543
0.655308
0.656197
0.657849
0.658929
0.662452
0.663061
0.677249
1.83949
333.683
0.765051
0.708612
0.685301
0.673403
0.666309
0.661695
0.658473
0.656148
0.654376
0.653025
0.651931
0.651069
0.650336
0.649742
0.649235
0.648819
0.648446
0.64814
0.647856
0.647625
0.6474
0.647221
0.647052
0.646917
0.646776
0.64667
0.646566
0.646488
0.646391
0.64633
0.646276
0.646234
0.646175
0.646143
0.646113
0.646086
0.64603
0.64602
0.646002
0.646
0.645997
0.64599
0.645965
0.645986
0.645986
0.646005
0.646005
0.646047
0.646047
0.64609
0.64609
0.646211
0.646212
0.646211
0.646269
0.646269
0.646395
0.646527
0.646643
0.646678
0.646678
0.646677
0.646791
0.647004
0.647086
0.647086
0.647208
0.647448
0.64755
0.647684
0.647931
0.648014
0.648194
0.648398
0.648606
0.648863
0.649155
0.649391
0.649727
0.650052
0.650361
0.650803
0.651193
0.651746
0.652269
0.653003
0.6537
0.65471
0.655598
0.657252
0.658331
0.661857
0.662453
0.676762
1.86431
332.141
0.764972
0.708313
0.684863
0.672882
0.665732
0.661081
0.657832
0.655486
0.653699
0.652335
0.651231
0.650361
0.649621
0.649022
0.64851
0.648091
0.647714
0.647405
0.647117
0.646884
0.646658
0.646476
0.646305
0.646169
0.646027
0.64592
0.645814
0.645735
0.645637
0.645576
0.645521
0.645478
0.645419
0.645387
0.645356
0.645328
0.645272
0.645262
0.645243
0.645241
0.645238
0.64523
0.645205
0.645225
0.645225
0.645245
0.645244
0.645286
0.645286
0.645329
0.645329
0.64545
0.645451
0.64545
0.645508
0.645508
0.645634
0.645766
0.645883
0.645919
0.645919
0.645918
0.646032
0.646244
0.646328
0.646328
0.64645
0.646691
0.646794
0.646929
0.647176
0.647261
0.647441
0.647645
0.647854
0.648111
0.648404
0.648641
0.648977
0.649304
0.649614
0.650057
0.650448
0.651002
0.651526
0.652262
0.652959
0.653972
0.654859
0.656516
0.657594
0.661122
0.661704
0.676161
1.89525
331.509
0.764878
0.707957
0.684343
0.672261
0.665046
0.66035
0.657069
0.654698
0.652892
0.651514
0.650398
0.649518
0.64877
0.648165
0.647647
0.647222
0.646841
0.646528
0.646238
0.646002
0.645773
0.645589
0.645416
0.645278
0.645134
0.645026
0.644919
0.644839
0.644739
0.644677
0.644621
0.644577
0.644517
0.644485
0.644453
0.644425
0.644369
0.644358
0.644339
0.644336
0.644333
0.644325
0.644299
0.644319
0.644319
0.644338
0.644337
0.644379
0.644379
0.644422
0.644422
0.644543
0.644543
0.644543
0.644601
0.644601
0.644728
0.64486
0.644977
0.645014
0.645014
0.645013
0.645127
0.645339
0.645425
0.645425
0.645547
0.645788
0.645893
0.646028
0.646276
0.646362
0.646543
0.646748
0.646957
0.647215
0.647509
0.647747
0.648083
0.648412
0.648723
0.649168
0.64956
0.650116
0.65064
0.651378
0.652076
0.653092
0.653978
0.655638
0.656715
0.660246
0.66081
0.675445
1.93267
331.75
0.764771
0.707546
0.68374
0.671541
0.66425
0.659501
0.656181
0.653782
0.651954
0.650558
0.649429
0.648538
0.647781
0.647167
0.646642
0.646212
0.645826
0.645509
0.645215
0.644976
0.644743
0.644557
0.644382
0.644242
0.644096
0.643986
0.643877
0.643796
0.643695
0.643631
0.643575
0.64353
0.643469
0.643435
0.643403
0.643375
0.643318
0.643306
0.643287
0.643284
0.64328
0.643272
0.643245
0.643265
0.643265
0.643283
0.643282
0.643324
0.643324
0.643366
0.643366
0.643488
0.643488
0.643488
0.643547
0.643547
0.643673
0.643805
0.643923
0.643961
0.643961
0.643961
0.644075
0.644287
0.644375
0.644375
0.644497
0.644738
0.644845
0.64498
0.645228
0.645317
0.645497
0.645703
0.645913
0.646172
0.646466
0.646707
0.647043
0.647374
0.647687
0.648133
0.648526
0.649084
0.649609
0.65035
0.651048
0.652067
0.652952
0.654615
0.655691
0.659225
0.659769
0.674611
1.97693
332.778
0.764649
0.707078
0.683053
0.670719
0.663341
0.658532
0.655168
0.652737
0.650884
0.649468
0.648322
0.647418
0.64665
0.646028
0.645495
0.645059
0.644667
0.644345
0.644046
0.643803
0.643568
0.643378
0.6432
0.643058
0.64291
0.642797
0.642687
0.642604
0.642502
0.642437
0.642379
0.642333
0.642271
0.642237
0.642204
0.642175
0.642117
0.642105
0.642085
0.642082
0.642077
0.642069
0.642041
0.64206
0.64206
0.642078
0.642077
0.642119
0.642119
0.642161
0.642161
0.642283
0.642283
0.642283
0.642341
0.642341
0.642467
0.6426
0.642719
0.642758
0.642758
0.642758
0.642872
0.643084
0.643174
0.643174
0.643296
0.643538
0.643647
0.643782
0.644031
0.644122
0.644303
0.64451
0.644721
0.64498
0.645276
0.645518
0.645855
0.646188
0.646502
0.64695
0.647345
0.647905
0.648431
0.649174
0.649872
0.650895
0.651778
0.653446
0.65452
0.658059
0.658579
0.673658
2.02839
334.479
0.764514
0.706555
0.682282
0.669796
0.662319
0.657441
0.654028
0.65156
0.649678
0.64824
0.647077
0.646158
0.645378
0.644745
0.644204
0.64376
0.643361
0.643034
0.64273
0.642483
0.642243
0.642051
0.641869
0.641724
0.641574
0.641459
0.641347
0.641262
0.641158
0.641092
0.641032
0.640985
0.640922
0.640887
0.640853
0.640823
0.640765
0.640752
0.640732
0.640728
0.640723
0.640714
0.640685
0.640704
0.640704
0.640721
0.640719
0.640761
0.640761
0.640802
0.640802
0.640924
0.640924
0.640924
0.640984
0.640984
0.641109
0.641243
0.641362
0.641403
0.641403
0.641403
0.641517
0.641729
0.641822
0.641822
0.641944
0.642186
0.642297
0.642433
0.642682
0.642776
0.642958
0.643165
0.643377
0.643637
0.643934
0.644178
0.644516
0.644852
0.645167
0.645617
0.646013
0.646576
0.647103
0.647849
0.648548
0.649575
0.650456
0.652127
0.6532
0.656743
0.657236
0.672584
2.08741
336.71
0.764367
0.705975
0.681426
0.668771
0.661183
0.656228
0.65276
0.65025
0.648337
0.646873
0.64569
0.644755
0.643961
0.643317
0.642765
0.642313
0.641907
0.641574
0.641265
0.641012
0.640769
0.640572
0.640387
0.640239
0.640086
0.639969
0.639854
0.639767
0.639662
0.639593
0.639532
0.639484
0.63942
0.639383
0.639348
0.639317
0.639258
0.639245
0.639224
0.639219
0.639214
0.639204
0.639175
0.639193
0.639193
0.639209
0.639207
0.639248
0.639248
0.639289
0.639289
0.639412
0.639412
0.639412
0.639471
0.639471
0.639597
0.639731
0.639851
0.639894
0.639894
0.639894
0.640007
0.640219
0.640316
0.640316
0.640437
0.640679
0.640793
0.64093
0.64118
0.641276
0.641459
0.641667
0.64188
0.642141
0.642439
0.642686
0.643024
0.643363
0.643679
0.644132
0.64453
0.645095
0.645623
0.646372
0.647071
0.648103
0.648982
0.650657
0.651728
0.655276
0.65574
0.671388
2.15433
339.322
0.764206
0.70534
0.680486
0.667643
0.659932
0.654892
0.651362
0.648806
0.646858
0.645366
0.64416
0.643207
0.642398
0.641741
0.641179
0.640717
0.640304
0.639963
0.639648
0.63939
0.639142
0.638941
0.638752
0.638601
0.638444
0.638325
0.638207
0.638118
0.638011
0.63794
0.637877
0.637827
0.637762
0.637724
0.637687
0.637656
0.637596
0.637582
0.63756
0.637555
0.637549
0.637538
0.637508
0.637525
0.637525
0.637541
0.637538
0.637579
0.637579
0.63762
0.63762
0.637742
0.637742
0.637742
0.637802
0.637802
0.637928
0.638062
0.638183
0.638228
0.638228
0.638228
0.638341
0.638553
0.638653
0.638653
0.638775
0.639017
0.639134
0.639271
0.639522
0.639621
0.639804
0.640014
0.640228
0.640489
0.640789
0.641038
0.641376
0.641719
0.642036
0.642492
0.642891
0.64346
0.643989
0.644742
0.645441
0.646477
0.647354
0.649034
0.650102
0.653655
0.654088
0.670067
2.22945
342.157
0.764034
0.70465
0.679462
0.666411
0.658565
0.653432
0.649834
0.647228
0.64524
0.643718
0.642487
0.641513
0.640688
0.640017
0.639443
0.638971
0.638548
0.6382
0.637878
0.637615
0.637361
0.637155
0.636962
0.636807
0.636647
0.636524
0.636404
0.636313
0.636203
0.63613
0.636065
0.636014
0.635947
0.635907
0.635869
0.635837
0.635777
0.635761
0.635738
0.635732
0.635725
0.635715
0.635683
0.6357
0.6357
0.635715
0.635711
0.635752
0.635752
0.635792
0.635792
0.635915
0.635915
0.635915
0.635975
0.635975
0.6361
0.636235
0.636357
0.636404
0.636404
0.636404
0.636517
0.636729
0.636833
0.636832
0.636954
0.637197
0.637316
0.637454
0.637706
0.637808
0.637992
0.638203
0.638418
0.638681
0.638981
0.639233
0.639572
0.639918
0.640237
0.640696
0.641097
0.641668
0.642199
0.642955
0.643654
0.644695
0.645571
0.647255
0.64832
0.651878
0.652276
0.668618
2.31304
345.065
0.76385
0.703905
0.678352
0.665076
0.657082
0.651846
0.648174
0.645512
0.643481
0.641926
0.640668
0.639672
0.638828
0.638142
0.637555
0.637072
0.63664
0.636283
0.635953
0.635684
0.635424
0.635214
0.635016
0.634857
0.634693
0.634567
0.634443
0.634349
0.634237
0.634162
0.634094
0.634041
0.633972
0.633931
0.633892
0.633859
0.633797
0.63378
0.633757
0.63375
0.633742
0.633731
0.633698
0.633714
0.633714
0.633728
0.633724
0.633764
0.633764
0.633803
0.633803
0.633926
0.633926
0.633926
0.633987
0.633987
0.634112
0.634248
0.63437
0.63442
0.63442
0.63442
0.634533
0.634744
0.634852
0.634852
0.634973
0.635216
0.635339
0.635478
0.63573
0.635836
0.636021
0.636233
0.636449
0.636712
0.637014
0.637269
0.637609
0.637958
0.638279
0.638741
0.639144
0.639718
0.64025
0.64101
0.64171
0.642756
0.643629
0.645318
0.64638
0.649943
0.650304
0.667039
2.40531
347.901
0.763655
0.703105
0.677158
0.663637
0.655482
0.650135
0.646382
0.643659
0.641582
0.63999
0.638702
0.637683
0.636819
0.636116
0.635514
0.635019
0.634576
0.63421
0.633873
0.633596
0.63333
0.633114
0.632911
0.632747
0.632579
0.63245
0.632323
0.632225
0.632111
0.632033
0.631963
0.631908
0.631837
0.631794
0.631753
0.631719
0.631657
0.631638
0.631614
0.631606
0.631598
0.631585
0.631551
0.631566
0.631566
0.63158
0.631574
0.631614
0.631614
0.631653
0.631652
0.631776
0.631776
0.631776
0.631837
0.631837
0.631962
0.632098
0.632222
0.632274
0.632274
0.632274
0.632386
0.632597
0.632709
0.632709
0.63283
0.633074
0.6332
0.633339
0.633592
0.633702
0.633888
0.634101
0.634319
0.634583
0.634887
0.635144
0.635485
0.635838
0.636161
0.636625
0.63703
0.637608
0.638141
0.638905
0.639605
0.640657
0.641527
0.64322
0.64428
0.647848
0.648169
0.665327
2.5064
350.532
0.763449
0.702253
0.67588
0.662094
0.653764
0.648297
0.644456
0.641668
0.63954
0.637908
0.636589
0.635543
0.634657
0.633936
0.633319
0.632811
0.632356
0.631981
0.631634
0.63135
0.631077
0.630855
0.630646
0.630478
0.630305
0.630172
0.630041
0.629941
0.629823
0.629742
0.62967
0.629613
0.62954
0.629495
0.629452
0.629417
0.629353
0.629334
0.629308
0.629299
0.62929
0.629277
0.629241
0.629255
0.629255
0.629267
0.629261
0.6293
0.6293
0.629338
0.629338
0.629461
0.629461
0.629461
0.629523
0.629523
0.629647
0.629784
0.629909
0.629964
0.629964
0.629964
0.630076
0.630286
0.630403
0.630403
0.630524
0.630768
0.630898
0.631038
0.631291
0.631405
0.631591
0.631806
0.632025
0.632291
0.632596
0.632857
0.633198
0.633555
0.633879
0.634347
0.634754
0.635336
0.63587
0.636638
0.637337
0.638395
0.639262
0.64096
0.642016
0.64559
0.645869
0.663478
2.61633
352.84
0.763234
0.701348
0.674519
0.660447
0.651929
0.646331
0.642396
0.639537
0.637355
0.63568
0.634326
0.633252
0.632343
0.631602
0.630968
0.630446
0.629979
0.629593
0.629237
0.628944
0.628664
0.628435
0.62822
0.628047
0.627869
0.627731
0.627597
0.627493
0.627372
0.627288
0.627213
0.627153
0.627079
0.627032
0.626987
0.62695
0.626885
0.626864
0.626837
0.626827
0.626817
0.626803
0.626766
0.626779
0.626779
0.62679
0.626783
0.626822
0.626821
0.626858
0.626858
0.626981
0.626982
0.626982
0.627043
0.627044
0.627167
0.627305
0.627431
0.627488
0.627488
0.627488
0.627601
0.62781
0.627932
0.627932
0.628053
0.628296
0.62843
0.628571
0.628825
0.628943
0.62913
0.629347
0.629567
0.629834
0.63014
0.630405
0.630746
0.631107
0.631434
0.631905
0.632314
0.6329
0.633434
0.634208
0.634906
0.63597
0.636834
0.638536
0.639588
0.643166
0.643402
0.661489
2.73502
354.722
0.76301
0.700391
0.673074
0.658696
0.649977
0.644239
0.640202
0.637267
0.635025
0.633304
0.631913
0.630809
0.629874
0.629113
0.628461
0.627923
0.627443
0.627045
0.626679
0.626377
0.626089
0.625853
0.625632
0.625453
0.62527
0.625128
0.624989
0.624881
0.624757
0.62467
0.624591
0.624529
0.624452
0.624403
0.624356
0.624318
0.624251
0.624229
0.624201
0.624189
0.624177
0.624163
0.624125
0.624137
0.624137
0.624146
0.624138
0.624176
0.624176
0.624211
0.624211
0.624335
0.624335
0.624335
0.624397
0.624397
0.624521
0.624659
0.624785
0.624846
0.624846
0.624846
0.624958
0.625167
0.625294
0.625294
0.625415
0.625658
0.625796
0.625938
0.626192
0.626314
0.626503
0.626721
0.626943
0.627211
0.627518
0.627786
0.628128
0.628494
0.628822
0.629296
0.629708
0.630297
0.630833
0.631611
0.632309
0.633379
0.634239
0.635946
0.636994
0.640576
0.640766
0.659356
2.86223
356.095
0.762777
0.699383
0.671547
0.656842
0.647906
0.642018
0.637872
0.634856
0.632551
0.630781
0.629349
0.628212
0.627251
0.626467
0.625795
0.625241
0.624746
0.624336
0.623959
0.623648
0.623351
0.623108
0.62288
0.622695
0.622507
0.622359
0.622215
0.622104
0.621976
0.621885
0.621803
0.621739
0.621659
0.621608
0.621558
0.621518
0.62145
0.621426
0.621396
0.621384
0.621371
0.621356
0.621316
0.621327
0.621326
0.621335
0.621325
0.621362
0.621362
0.621397
0.621396
0.62152
0.62152
0.62152
0.621582
0.621582
0.621705
0.621845
0.621972
0.622036
0.622036
0.622036
0.622148
0.622355
0.622488
0.622488
0.622608
0.622852
0.622993
0.623137
0.623392
0.623518
0.623708
0.623927
0.624151
0.624419
0.624729
0.625
0.625342
0.625712
0.626043
0.626521
0.626934
0.627528
0.628064
0.628847
0.629544
0.63062
0.631477
0.633187
0.634231
0.637817
0.637959
0.657075
2.99755
356.892
0.762538
0.698327
0.669938
0.654885
0.645719
0.63967
0.635408
0.632304
0.629932
0.628108
0.626634
0.625462
0.624472
0.623664
0.622971
0.6224
0.62189
0.621466
0.621077
0.620756
0.62045
0.620199
0.619963
0.619771
0.619577
0.619424
0.619275
0.61916
0.619028
0.618934
0.618848
0.61878
0.618698
0.618644
0.618592
0.618551
0.618481
0.618455
0.618424
0.61841
0.618395
0.618379
0.618338
0.618348
0.618347
0.618354
0.618343
0.618379
0.618379
0.618412
0.618412
0.618535
0.618535
0.618535
0.618598
0.618598
0.618721
0.61886
0.618988
0.619056
0.619056
0.619056
0.619168
0.619374
0.619512
0.619512
0.619632
0.619876
0.620021
0.620166
0.620421
0.620552
0.620743
0.620964
0.621189
0.621459
0.62177
0.622045
0.622388
0.622762
0.623095
0.623576
0.623991
0.624589
0.625126
0.625914
0.62661
0.627692
0.628545
0.630259
0.631298
0.634886
0.63498
0.65464
3.14037
357.063
0.762291
0.697222
0.668249
0.652825
0.643414
0.637194
0.632807
0.629611
0.627167
0.625286
0.623767
0.622558
0.621537
0.620703
0.619988
0.619397
0.618871
0.618434
0.618032
0.6177
0.617384
0.617124
0.61688
0.616682
0.616481
0.616323
0.616169
0.616048
0.615912
0.615814
0.615724
0.615654
0.615568
0.615512
0.615457
0.615414
0.615343
0.615315
0.615281
0.615266
0.61525
0.615233
0.615191
0.615199
0.615198
0.615203
0.615191
0.615226
0.615226
0.615258
0.615257
0.61538
0.61538
0.61538
0.615443
0.615443
0.615565
0.615705
0.615834
0.615905
0.615905
0.615905
0.616017
0.616222
0.616366
0.616366
0.616486
0.616729
0.616879
0.617025
0.61728
0.617416
0.617608
0.617831
0.618057
0.618328
0.61864
0.618919
0.619262
0.619641
0.619976
0.620461
0.620878
0.62148
0.622018
0.62281
0.623505
0.624593
0.625442
0.627158
0.628192
0.631782
0.631827
0.652048
3.28987
356.582
0.762039
0.696071
0.666481
0.650664
0.640993
0.634591
0.630072
0.626776
0.624256
0.622315
0.620747
0.619498
0.618445
0.617583
0.616845
0.616234
0.61569
0.615238
0.614823
0.614479
0.614153
0.613884
0.613631
0.613425
0.613218
0.613054
0.612894
0.612768
0.612628
0.612525
0.612432
0.612358
0.612269
0.61221
0.612152
0.612107
0.612034
0.612004
0.611968
0.611951
0.611934
0.611916
0.611872
0.611879
0.611878
0.611881
0.611867
0.611901
0.611901
0.611932
0.611931
0.612053
0.612053
0.612053
0.612117
0.612117
0.612238
0.612379
0.612508
0.612583
0.612583
0.612583
0.612694
0.612898
0.613048
0.613048
0.613168
0.613411
0.613565
0.613712
0.613968
0.614108
0.614301
0.614526
0.614754
0.615026
0.615339
0.615622
0.615965
0.616349
0.616685
0.617174
0.617593
0.618199
0.618737
0.619534
0.620227
0.621322
0.622167
0.623885
0.624914
0.628504
0.628498
0.649291
3.44495
355.424
0.761782
0.694874
0.664635
0.648403
0.638455
0.631861
0.627202
0.623801
0.621199
0.619194
0.617574
0.616284
0.615195
0.614304
0.613541
0.612909
0.612346
0.611878
0.611449
0.611093
0.610755
0.610476
0.610215
0.610001
0.609787
0.609616
0.60945
0.609319
0.609174
0.609067
0.608969
0.608891
0.6088
0.608737
0.608676
0.608629
0.608554
0.608521
0.608484
0.608465
0.608446
0.608427
0.608382
0.608387
0.608386
0.608387
0.608371
0.608404
0.608404
0.608433
0.608432
0.608554
0.608554
0.608554
0.608618
0.608618
0.608738
0.608879
0.60901
0.609088
0.609088
0.609088
0.609199
0.609401
0.609557
0.609558
0.609677
0.60992
0.610077
0.610226
0.610482
0.610627
0.610822
0.611048
0.611277
0.611551
0.611865
0.612152
0.612495
0.612884
0.613222
0.613714
0.614135
0.614745
0.615284
0.616085
0.616777
0.617877
0.618717
0.620437
0.62146
0.625049
0.624993
0.646366
3.60428
353.581
0.761522
0.693635
0.662713
0.646043
0.635803
0.629005
0.624197
0.620684
0.617996
0.615923
0.614249
0.612914
0.611788
0.610866
0.610076
0.609422
0.608839
0.608354
0.60791
0.607541
0.607192
0.606902
0.606631
0.606409
0.606187
0.606009
0.605837
0.605701
0.60555
0.605438
0.605336
0.605255
0.605159
0.605093
0.605029
0.60498
0.604902
0.604868
0.604828
0.604807
0.604786
0.604766
0.60472
0.604723
0.604722
0.604721
0.604703
0.604735
0.604735
0.604762
0.60476
0.604881
0.604882
0.604882
0.604945
0.604945
0.605065
0.605207
0.605338
0.60542
0.60542
0.60542
0.60553
0.605731
0.605893
0.605894
0.606013
0.606255
0.606417
0.606567
0.606823
0.606973
0.607169
0.607397
0.607628
0.607903
0.608217
0.608509
0.608852
0.609245
0.609585
0.610081
0.610503
0.611117
0.611656
0.612462
0.613151
0.614258
0.615093
0.616814
0.61783
0.621418
0.621309
0.643265
3.76622
351.059
0.761258
0.692354
0.660717
0.643585
0.633037
0.626023
0.621058
0.617427
0.614648
0.612503
0.610771
0.609389
0.608224
0.607269
0.606451
0.605772
0.605169
0.604666
0.604206
0.603823
0.603461
0.603161
0.60288
0.602649
0.602419
0.602234
0.602054
0.601912
0.601756
0.601639
0.601532
0.601446
0.601347
0.601278
0.601211
0.601158
0.601079
0.601041
0.601
0.600977
0.600953
0.600933
0.600885
0.600886
0.600884
0.600881
0.600861
0.600892
0.600892
0.600918
0.600915
0.601035
0.601036
0.601036
0.601099
0.6011
0.601218
0.60136
0.601492
0.601578
0.601578
0.601578
0.601688
0.601886
0.602055
0.602057
0.602175
0.602416
0.602582
0.602733
0.60299
0.603145
0.603342
0.603571
0.603804
0.60408
0.604395
0.604691
0.605034
0.605431
0.605773
0.606272
0.606696
0.607315
0.607853
0.608664
0.60935
0.610462
0.611293
0.613013
0.614023
0.617607
0.617447
0.639981
3.92883
347.869
0.760993
0.691034
0.658648
0.641031
0.630158
0.622917
0.617786
0.61403
0.611154
0.608934
0.60714
0.605708
0.604502
0.603512
0.602664
0.601961
0.601336
0.600813
0.600336
0.599938
0.599564
0.599252
0.59896
0.59872
0.598481
0.598288
0.598102
0.597953
0.597792
0.59767
0.597557
0.597467
0.597364
0.597291
0.59722
0.597165
0.597083
0.597043
0.596998
0.596973
0.596948
0.596926
0.596878
0.596877
0.596873
0.596869
0.596846
0.596876
0.596876
0.5969
0.596896
0.597015
0.597016
0.597016
0.597079
0.59708
0.597197
0.597339
0.597471
0.597561
0.597562
0.597561
0.597672
0.597868
0.598042
0.598045
0.598163
0.598403
0.598573
0.598726
0.598982
0.599142
0.59934
0.599571
0.599805
0.600082
0.600398
0.600698
0.601041
0.601443
0.601786
0.602289
0.602714
0.603337
0.603875
0.60469
0.605373
0.60649
0.607315
0.609035
0.610037
0.613617
0.613405
0.636509
4.0899
344.029
0.760726
0.689677
0.656508
0.638383
0.627169
0.619688
0.614381
0.610495
0.607517
0.605217
0.603358
0.601873
0.600623
0.599597
0.598718
0.597987
0.597339
0.596797
0.596302
0.595888
0.5955
0.595176
0.594873
0.594622
0.594375
0.594174
0.593979
0.593825
0.593657
0.593529
0.593411
0.593316
0.593209
0.593132
0.593057
0.592999
0.592915
0.592872
0.592825
0.592797
0.592769
0.592746
0.592697
0.592694
0.592689
0.592683
0.592658
0.592686
0.592686
0.592708
0.592703
0.592821
0.592822
0.592822
0.592885
0.592885
0.593002
0.593144
0.593277
0.59337
0.593371
0.593371
0.59348
0.593674
0.593854
0.593859
0.593976
0.594214
0.594388
0.594543
0.594799
0.594964
0.595163
0.595396
0.595631
0.59591
0.596226
0.59653
0.596872
0.597278
0.597623
0.59813
0.598555
0.599182
0.599719
0.600539
0.601219
0.60234
0.60316
0.604878
0.605873
0.609446
0.609183
0.63284
4.24692
339.556
0.76046
0.688284
0.654301
0.635642
0.624069
0.616337
0.610846
0.606821
0.603736
0.601351
0.599425
0.597884
0.596588
0.595523
0.594611
0.593852
0.593179
0.592616
0.592102
0.591673
0.591269
0.590932
0.590617
0.590357
0.590099
0.58989
0.589687
0.589526
0.589352
0.589218
0.589094
0.588995
0.588883
0.588802
0.588722
0.588662
0.588574
0.588528
0.588478
0.588448
0.588418
0.588394
0.588343
0.588338
0.588332
0.588324
0.588296
0.588322
0.588322
0.588343
0.588336
0.588453
0.588454
0.588454
0.588517
0.588517
0.588632
0.588774
0.588907
0.589005
0.589005
0.589005
0.589115
0.589306
0.589492
0.589498
0.589614
0.589851
0.590029
0.590185
0.590441
0.59061
0.590811
0.591046
0.591282
0.591562
0.591878
0.592186
0.592527
0.592938
0.593284
0.593794
0.59422
0.594851
0.595387
0.596211
0.596887
0.598013
0.598827
0.600541
0.601528
0.605093
0.60478
0.628967
4.39714
334.467
0.760195
0.686859
0.652027
0.632812
0.620862
0.612865
0.607181
0.60301
0.599813
0.597339
0.595341
0.593742
0.592398
0.591292
0.590345
0.589557
0.588858
0.588272
0.587739
0.587292
0.586873
0.586522
0.586195
0.585923
0.585656
0.585437
0.585226
0.585057
0.584876
0.584736
0.584606
0.584502
0.584385
0.5843
0.584216
0.584152
0.584062
0.584012
0.583959
0.583927
0.583894
0.583868
0.583816
0.583809
0.583801
0.583792
0.583761
0.583786
0.583786
0.583804
0.583796
0.583911
0.583912
0.583912
0.583975
0.583975
0.584088
0.58423
0.584364
0.584465
0.584466
0.584466
0.584575
0.584763
0.584954
0.584963
0.585078
0.585313
0.585495
0.585653
0.585908
0.586082
0.586284
0.58652
0.586757
0.587038
0.587355
0.587667
0.588007
0.588422
0.588769
0.589282
0.589709
0.590344
0.590878
0.591705
0.592377
0.593506
0.594315
0.596025
0.597003
0.600559
0.600196
0.624884
4.53757
328.774
0.759932
0.685404
0.649691
0.629893
0.61755
0.609276
0.603389
0.599065
0.595749
0.593182
0.591108
0.589448
0.588052
0.586904
0.58592
0.585101
0.584375
0.583766
0.583212
0.582747
0.582312
0.581947
0.581606
0.581323
0.581045
0.580817
0.580597
0.58042
0.580232
0.580085
0.579948
0.579839
0.579717
0.579627
0.579539
0.579471
0.579378
0.579325
0.579269
0.579234
0.579198
0.579171
0.579117
0.579108
0.579097
0.579087
0.579053
0.579076
0.579076
0.579092
0.579083
0.579196
0.579196
0.579196
0.579259
0.579259
0.579371
0.579512
0.579646
0.579751
0.579752
0.579752
0.579861
0.580045
0.580243
0.580253
0.580367
0.580601
0.580786
0.580945
0.5812
0.581379
0.581581
0.58182
0.582058
0.58234
0.582656
0.582972
0.583311
0.58373
0.584078
0.584594
0.585021
0.585659
0.586192
0.587022
0.587689
0.588822
0.589624
0.591329
0.592298
0.595841
0.595432
0.620581
4.66507
322.488
0.759673
0.683921
0.647295
0.62689
0.614135
0.60557
0.59947
0.594986
0.591546
0.588881
0.586728
0.585003
0.583554
0.582361
0.581338
0.580486
0.579732
0.579098
0.578522
0.578038
0.577586
0.577206
0.576851
0.576556
0.576267
0.576029
0.5758
0.575614
0.575419
0.575265
0.575121
0.575007
0.57488
0.574785
0.574691
0.57462
0.574523
0.574467
0.574407
0.574369
0.57433
0.574301
0.574246
0.574234
0.574222
0.57421
0.574174
0.574194
0.574194
0.574208
0.574197
0.574308
0.574308
0.574308
0.57437
0.57437
0.57448
0.574621
0.574755
0.574864
0.574865
0.574865
0.574974
0.575154
0.575357
0.57537
0.575483
0.575714
0.575902
0.576064
0.576318
0.576501
0.576705
0.576944
0.577183
0.577466
0.577782
0.578102
0.57844
0.578863
0.579212
0.57973
0.580157
0.580798
0.581328
0.582162
0.582823
0.583959
0.584754
0.586452
0.587412
0.590941
0.590486
0.616053
4.77637
315.61
0.759418
0.682414
0.644841
0.623804
0.610619
0.60175
0.595428
0.590775
0.587205
0.584437
0.582201
0.580409
0.578903
0.577663
0.5766
0.575714
0.574929
0.57427
0.573671
0.573167
0.572697
0.572301
0.571932
0.571624
0.571323
0.571075
0.570836
0.570642
0.570439
0.570277
0.570127
0.570006
0.569873
0.569773
0.569675
0.5696
0.569499
0.569439
0.569376
0.569334
0.569293
0.569262
0.569204
0.56919
0.569176
0.569162
0.569123
0.569141
0.569141
0.569153
0.569139
0.569248
0.569248
0.569248
0.569309
0.569309
0.569417
0.569558
0.569691
0.569804
0.569805
0.569805
0.569914
0.570091
0.570298
0.570314
0.570426
0.570655
0.570846
0.571009
0.571262
0.571449
0.571654
0.571895
0.572135
0.572419
0.572734
0.573058
0.573394
0.57382
0.574169
0.574691
0.575117
0.575761
0.576288
0.577125
0.57778
0.578917
0.579706
0.581397
0.582346
0.585858
0.585361
0.611291
4.86818
308.134
0.759169
0.680884
0.642334
0.62064
0.607006
0.59782
0.591264
0.586436
0.582729
0.579853
0.577531
0.575667
0.574103
0.572813
0.571708
0.570785
0.569969
0.569283
0.56866
0.568135
0.567647
0.567234
0.56685
0.566528
0.566215
0.565956
0.565706
0.565503
0.565292
0.565123
0.564965
0.564837
0.564699
0.564594
0.56449
0.564411
0.564306
0.564242
0.564175
0.564131
0.564085
0.564052
0.563993
0.563976
0.56396
0.563944
0.563903
0.563918
0.563918
0.563927
0.563911
0.564017
0.564017
0.564017
0.564078
0.564077
0.564183
0.564323
0.564456
0.564572
0.564574
0.564574
0.564682
0.564855
0.565067
0.565087
0.565197
0.565423
0.565617
0.565782
0.566033
0.566225
0.566431
0.566673
0.566913
0.567198
0.567512
0.567839
0.568174
0.568603
0.568953
0.569476
0.569901
0.570548
0.571072
0.571911
0.57256
0.573698
0.57448
0.576161
0.5771
0.580593
0.580057
0.606288
4.93731
300.05
0.758926
0.679336
0.639776
0.6174
0.603299
0.59378
0.586981
0.581969
0.578119
0.575131
0.572717
0.57078
0.569153
0.567812
0.566663
0.565703
0.564854