/*--------------------------------*- C++ -*----------------------------------*\
| =========                 |                                                 |
| \\      /  F ield         | OpenFOAM: The Open Source CFD Toolbox           |
|  \\    /   O peration     | Version:  v2012                                 |
|   \\  /    A nd           | Website:  www.openfoam.com                      |
|    \\/     M anipulation  |                                                 |
\*---------------------------------------------------------------------------*/
FoamFile
{
    version     2.0;
    format      ascii;
    class       volScalarField;
    location    "14";
    object      k;
}
// * * * * * * * * * * * * * * * * * * * * * * * * * * * * * * * * * * * * * //

dimensions      [0 2 -2 0 0 0 0];


internalField   nonuniform List<scalar> 
209825
(
0.00101901
0.000946865
0.000906275
0.000881446
0.000864651
0.000852555
0.000843317
0.000836121
0.000830255
0.000825504
0.000821457
0.000818106
0.000815164
0.000812673
0.000810461
0.000808586
0.000806868
0.00080541
0.000804039
0.000802881
0.000801769
0.000800827
0.000799923
0.000799176
0.000798424
0.000797806
0.000797189
0.000796702
0.000796171
0.000795748
0.000795361
0.000795038
0.000794696
0.000794421
0.000794112
0.000793861
0.000793619
0.000793426
0.000793218
0.000793061
0.000792864
0.000792705
0.000792546
0.00079243
0.000792298
0.000792187
0.000792089
0.000791989
0.000791888
0.000791828
0.00079171
0.000791646
0.000791609
0.000791562
0.000791429
0.000791435
0.000791435
0.000791431
0.000791384
0.000791456
0.000791456
0.000791455
0.000791522
0.000791785
0.000791843
0.000791843
0.000791945
0.000792178
0.000792472
0.000792487
0.000792616
0.000792851
0.000793157
0.000793427
0.00079379
0.000794133
0.000794424
0.00079473
0.000795061
0.000795519
0.000795925
0.000796528
0.000797048
0.000797753
0.000798298
0.000799243
0.000799927
0.000801266
0.000802119
0.000804007
0.000805152
0.000808666
0.000809485
0.00082153
0.00557126
0.00378533
0.00101901
0.000946861
0.000906265
0.000881432
0.000864632
0.000852534
0.000843293
0.000836095
0.000830228
0.000825475
0.000821428
0.000818075
0.000815133
0.000812641
0.000810428
0.000808553
0.000806834
0.000805376
0.000804005
0.000802846
0.000801733
0.000800791
0.000799887
0.000799139
0.000798387
0.000797769
0.000797152
0.000796665
0.000796134
0.000795711
0.000795324
0.000795001
0.000794658
0.000794384
0.000794074
0.000793823
0.000793581
0.000793388
0.000793179
0.000793022
0.000792826
0.000792667
0.000792508
0.000792391
0.000792259
0.000792148
0.00079205
0.00079195
0.000791849
0.000791789
0.000791671
0.000791607
0.00079157
0.000791523
0.00079139
0.000791396
0.000791396
0.000791392
0.000791345
0.000791417
0.000791417
0.000791416
0.000791483
0.000791745
0.000791804
0.000791804
0.000791906
0.000792139
0.000792433
0.000792448
0.000792577
0.000792812
0.000793118
0.000793388
0.000793751
0.000794094
0.000794385
0.000794691
0.000795022
0.000795481
0.000795886
0.000796489
0.000797009
0.000797715
0.00079826
0.000799205
0.000799889
0.000801228
0.000802081
0.000803969
0.000805115
0.000808629
0.000809446
0.000821513
0.00557974
0.00379376
0.00101901
0.000946837
0.000906215
0.000881363
0.000864549
0.000852439
0.00084319
0.000835985
0.000830112
0.000825355
0.000821303
0.000817947
0.000815002
0.000812508
0.000810293
0.000808415
0.000806695
0.000805235
0.000803862
0.000802702
0.000801588
0.000800645
0.000799739
0.000798991
0.000798238
0.000797619
0.000797001
0.000796513
0.000795982
0.000795558
0.00079517
0.000794847
0.000794504
0.000794229
0.000793919
0.000793667
0.000793425
0.000793231
0.000793023
0.000792865
0.000792669
0.000792509
0.00079235
0.000792233
0.000792101
0.00079199
0.000791892
0.000791791
0.000791691
0.00079163
0.000791512
0.000791448
0.000791411
0.000791363
0.00079123
0.000791237
0.000791237
0.000791233
0.000791185
0.000791258
0.000791258
0.000791256
0.000791323
0.000791585
0.000791644
0.000791644
0.000791747
0.000791979
0.000792273
0.000792289
0.000792418
0.000792652
0.000792958
0.000793229
0.000793592
0.000793934
0.000794226
0.000794532
0.000794863
0.000795322
0.000795728
0.000796331
0.000796851
0.000797557
0.000798102
0.000799048
0.000799732
0.000801071
0.000801924
0.000803812
0.000804957
0.000808473
0.000809285
0.000821394
0.00560291
0.003816
0.00101901
0.000946795
0.000906131
0.000881246
0.000864408
0.00085228
0.000843017
0.0008358
0.000829917
0.000825152
0.000821094
0.000817732
0.000814782
0.000812283
0.000810064
0.000808183
0.000806459
0.000804997
0.000803621
0.000802459
0.000801343
0.000800398
0.000799491
0.000798741
0.000797986
0.000797367
0.000796747
0.000796258
0.000795726
0.000795301
0.000794912
0.000794588
0.000794244
0.000793968
0.000793657
0.000793405
0.000793162
0.000792969
0.000792759
0.000792602
0.000792404
0.000792245
0.000792085
0.000791968
0.000791835
0.000791724
0.000791625
0.000791525
0.000791424
0.000791363
0.000791245
0.00079118
0.000791143
0.000791096
0.000790963
0.000790969
0.000790969
0.000790965
0.000790917
0.000790989
0.000790989
0.000790988
0.000791055
0.000791317
0.000791376
0.000791375
0.000791478
0.00079171
0.000792005
0.000792021
0.00079215
0.000792384
0.00079269
0.000792961
0.000793323
0.000793667
0.000793959
0.000794265
0.000794596
0.000795055
0.000795461
0.000796065
0.000796584
0.000797291
0.000797836
0.000798782
0.000799467
0.000800806
0.000801659
0.000803547
0.000804692
0.000808208
0.000809015
0.000821186
0.00564049
0.00385163
0.00101901
0.000946736
0.000906012
0.000881081
0.000864209
0.000852055
0.000842771
0.000835538
0.000829642
0.000824866
0.000820798
0.000817428
0.000814471
0.000811966
0.000809741
0.000807856
0.000806128
0.000804661
0.000803282
0.000802117
0.000800998
0.00080005
0.00079914
0.000798388
0.000797632
0.00079701
0.000796389
0.000795898
0.000795364
0.000794938
0.000794548
0.000794223
0.000793878
0.000793601
0.000793289
0.000793036
0.000792792
0.000792598
0.000792387
0.000792229
0.000792031
0.000791871
0.000791711
0.000791594
0.000791461
0.000791348
0.00079125
0.000791149
0.000791047
0.000790987
0.000790868
0.000790803
0.000790766
0.000790719
0.000790586
0.000790592
0.000790591
0.000790587
0.000790538
0.000790611
0.000790611
0.00079061
0.000790676
0.000790937
0.000790997
0.000790997
0.0007911
0.000791331
0.000791626
0.000791644
0.000791772
0.000792006
0.000792312
0.000792583
0.000792945
0.000793289
0.000793581
0.000793888
0.000794219
0.000794679
0.000795085
0.000795688
0.000796208
0.000796916
0.000797461
0.000798408
0.000799092
0.000800432
0.000801285
0.000803172
0.000804317
0.000807834
0.000808632
0.000820889
0.00569314
0.00390104
0.00101901
0.00094666
0.000905858
0.000880867
0.000863951
0.000851764
0.000842454
0.0008352
0.000829286
0.000824495
0.000820415
0.000817034
0.000814068
0.000811555
0.000809323
0.000807431
0.000805698
0.000804226
0.000802842
0.000801673
0.00080055
0.0007996
0.000798686
0.000797932
0.000797172
0.000796548
0.000795924
0.000795432
0.000794896
0.000794468
0.000794076
0.000793749
0.000793403
0.000793125
0.000792812
0.000792558
0.000792312
0.000792117
0.000791906
0.000791747
0.000791548
0.000791387
0.000791226
0.000791108
0.000790975
0.000790862
0.000790763
0.000790662
0.00079056
0.000790499
0.00079038
0.000790315
0.000790277
0.00079023
0.000790097
0.000790102
0.000790102
0.000790097
0.000790048
0.00079012
0.000790121
0.000790119
0.000790185
0.000790446
0.000790506
0.000790506
0.000790609
0.00079084
0.000791135
0.000791154
0.000791283
0.000791516
0.000791822
0.000792092
0.000792455
0.000792799
0.000793092
0.0007934
0.000793731
0.000794191
0.000794597
0.000795201
0.000795721
0.00079643
0.000796975
0.000797922
0.000798606
0.000799946
0.0008008
0.000802686
0.000803831
0.000807349
0.000808135
0.000820503
0.00576155
0.00396462
0.00101902
0.000946567
0.000905669
0.000880605
0.000863634
0.000851405
0.000842063
0.000834782
0.000828847
0.000824039
0.000819943
0.000816549
0.000813571
0.000811049
0.000808808
0.000806908
0.000805168
0.00080369
0.000802301
0.000801126
0.000799999
0.000799044
0.000798127
0.000797369
0.000796606
0.000795979
0.000795352
0.000794857
0.000794319
0.000793889
0.000793495
0.000793166
0.000792818
0.000792538
0.000792224
0.000791968
0.000791721
0.000791525
0.000791312
0.000791152
0.000790953
0.000790791
0.000790629
0.00079051
0.000790376
0.000790262
0.000790163
0.000790061
0.000789959
0.000789897
0.000789778
0.000789713
0.000789674
0.000789627
0.000789495
0.000789499
0.000789499
0.000789493
0.000789444
0.000789516
0.000789516
0.000789515
0.00078958
0.00078984
0.000789901
0.000789901
0.000790005
0.000790235
0.00079053
0.000790551
0.000790679
0.000790912
0.000791217
0.000791488
0.00079185
0.000792195
0.000792489
0.000792798
0.000793129
0.000793589
0.000793995
0.000794599
0.000795119
0.00079583
0.000796375
0.000797323
0.000798007
0.000799348
0.000800201
0.000802087
0.00080323
0.00080675
0.000807523
0.000820026
0.00584644
0.00404277
0.00101902
0.000946457
0.000905444
0.000880293
0.000863257
0.000850979
0.000841597
0.000834286
0.000828325
0.000823495
0.000819381
0.000815972
0.00081298
0.000810446
0.000808194
0.000806286
0.000804537
0.000803051
0.000801655
0.000800475
0.000799342
0.000798382
0.00079746
0.000796698
0.000795931
0.000795301
0.000794671
0.000794172
0.000793632
0.000793199
0.000792802
0.000792471
0.00079212
0.000791838
0.000791522
0.000791265
0.000791017
0.000790819
0.000790605
0.000790443
0.000790243
0.00079008
0.000789917
0.000789797
0.000789662
0.000789548
0.000789447
0.000789345
0.000789242
0.00078918
0.000789061
0.000788995
0.000788956
0.000788908
0.000788777
0.00078878
0.00078878
0.000788774
0.000788723
0.000788795
0.000788795
0.000788794
0.000788858
0.000789118
0.000789179
0.000789179
0.000789284
0.000789513
0.000789808
0.000789832
0.000789959
0.000790191
0.000790496
0.000790767
0.000791129
0.000791475
0.00079177
0.000792079
0.00079241
0.000792871
0.000793277
0.000793882
0.000794402
0.000795114
0.000795659
0.000796609
0.000797292
0.000798634
0.000799487
0.000801372
0.000802514
0.000806036
0.000806792
0.000819456
0.00594852
0.00413588
0.00101902
0.000946329
0.000905184
0.000879931
0.000862819
0.000850483
0.000841057
0.000833709
0.000827718
0.000822863
0.000818727
0.0008153
0.000812293
0.000809745
0.000807481
0.000805561
0.000803802
0.000802308
0.000800904
0.000799717
0.000798578
0.000797612
0.000796685
0.000795917
0.000795146
0.000794512
0.000793877
0.000793376
0.000792832
0.000792396
0.000791995
0.000791661
0.000791308
0.000791025
0.000790706
0.000790447
0.000790197
0.000789997
0.000789781
0.000789619
0.000789417
0.000789253
0.000789088
0.000788968
0.000788831
0.000788716
0.000788615
0.000788512
0.000788408
0.000788346
0.000788226
0.000788159
0.000788119
0.000788072
0.000787941
0.000787943
0.000787943
0.000787936
0.000787885
0.000787956
0.000787956
0.000787955
0.000788018
0.000788277
0.00078834
0.000788339
0.000788444
0.000788672
0.000788969
0.000788994
0.000789122
0.000789352
0.000789657
0.000789929
0.00079029
0.000790636
0.000790932
0.000791243
0.000791574
0.000792036
0.000792442
0.000793047
0.000793567
0.000794281
0.000794826
0.000795777
0.000796459
0.000797802
0.000798655
0.000800539
0.00080168
0.000805204
0.000805941
0.000818793
0.00606848
0.00424437
0.00101903
0.000946185
0.000904888
0.000879519
0.00086232
0.000849918
0.00084044
0.00083305
0.000827025
0.000822141
0.000817981
0.000814533
0.000811507
0.000808943
0.000806665
0.000804733
0.000802963
0.000801459
0.000800047
0.000798851
0.000797704
0.000796732
0.000795798
0.000795025
0.000794249
0.000793609
0.000792971
0.000792465
0.000791917
0.000791477
0.000791073
0.000790737
0.000790381
0.000790094
0.000789774
0.000789512
0.000789259
0.000789058
0.00078884
0.000788676
0.000788472
0.000788307
0.000788141
0.000788019
0.000787882
0.000787766
0.000787663
0.00078756
0.000787454
0.000787392
0.000787272
0.000787204
0.000787163
0.000787116
0.000786985
0.000786987
0.000786986
0.000786978
0.000786926
0.000786997
0.000786997
0.000786996
0.000787058
0.000787316
0.000787379
0.000787379
0.000787485
0.000787711
0.000788008
0.000788037
0.000788164
0.000788393
0.000788698
0.000788969
0.00078933
0.000789678
0.000789974
0.000790287
0.000790618
0.00079108
0.000791486
0.000792092
0.000792612
0.000793328
0.000793873
0.000794825
0.000795507
0.00079685
0.000797703
0.000799587
0.000800726
0.000804251
0.000804967
0.000818035
0.00620696
0.00436862
0.00101903
0.000946024
0.000904557
0.000879056
0.000861759
0.000849283
0.000839746
0.000832309
0.000826245
0.000821328
0.000817141
0.000813669
0.000810623
0.000808041
0.000805747
0.000803801
0.000802018
0.000800503
0.00079908
0.000797875
0.00079672
0.00079574
0.000794799
0.00079402
0.000793238
0.000792593
0.000791949
0.000791438
0.000790886
0.000790442
0.000790034
0.000789694
0.000789335
0.000789046
0.000788722
0.000788458
0.000788203
0.000787999
0.000787779
0.000787613
0.000787408
0.000787241
0.000787073
0.00078695
0.000786811
0.000786694
0.00078659
0.000786486
0.000786379
0.000786316
0.000786195
0.000786127
0.000786085
0.000786038
0.000785908
0.000785908
0.000785907
0.000785898
0.000785845
0.000785916
0.000785916
0.000785915
0.000785976
0.000786232
0.000786297
0.000786296
0.000786403
0.000786627
0.000786925
0.000786957
0.000787083
0.000787312
0.000787616
0.000787888
0.000788247
0.000788596
0.000788894
0.000789208
0.000789539
0.000790002
0.000790408
0.000791015
0.000791535
0.000792253
0.000792798
0.000793752
0.000794433
0.000795776
0.000796629
0.000798511
0.000799649
0.000803177
0.000803868
0.00081718
0.00636456
0.00450907
0.00101904
0.000945846
0.00090419
0.000878543
0.000861137
0.000848577
0.000838974
0.000831484
0.000825376
0.000820423
0.000816205
0.000812707
0.000809637
0.000807036
0.000804724
0.000802762
0.000800965
0.000799437
0.000798003
0.000796788
0.000795623
0.000794635
0.000793686
0.0007929
0.000792111
0.00079146
0.00079081
0.000790294
0.000789737
0.000789289
0.000788876
0.000788532
0.000788169
0.000787877
0.00078755
0.000787283
0.000787025
0.000786819
0.000786596
0.000786428
0.000786221
0.000786052
0.000785883
0.000785758
0.000785617
0.000785499
0.000785393
0.000785289
0.000785181
0.000785117
0.000784996
0.000784927
0.000784884
0.000784836
0.000784707
0.000784706
0.000784704
0.000784694
0.000784639
0.00078471
0.00078471
0.000784709
0.000784768
0.000785023
0.000785089
0.000785089
0.000785196
0.000785419
0.000785717
0.000785753
0.000785878
0.000786105
0.000786409
0.000786681
0.00078704
0.00078739
0.000787689
0.000788006
0.000788336
0.0007888
0.000789206
0.000789813
0.000790333
0.000791053
0.000791598
0.000792554
0.000793234
0.000794578
0.000795431
0.000797312
0.000798447
0.000801977
0.000802642
0.000816226
0.00654176
0.00466616
0.00101905
0.000945652
0.000903788
0.000877979
0.000860451
0.000847799
0.000838123
0.000830575
0.000824419
0.000819426
0.000815173
0.000811645
0.00080855
0.000805926
0.000803595
0.000801615
0.000799803
0.000798261
0.000796814
0.000795587
0.000794413
0.000793415
0.000792457
0.000791662
0.000790866
0.000790208
0.000789552
0.000789031
0.000788469
0.000788015
0.000787597
0.000787249
0.000786882
0.000786586
0.000786256
0.000785986
0.000785724
0.000785515
0.00078529
0.000785119
0.00078491
0.000784739
0.000784567
0.000784441
0.000784299
0.000784179
0.000784072
0.000783966
0.000783857
0.000783793
0.00078367
0.0007836
0.000783556
0.000783508
0.000783381
0.000783378
0.000783375
0.000783365
0.000783308
0.000783378
0.000783378
0.000783377
0.000783435
0.000783688
0.000783756
0.000783755
0.000783863
0.000784084
0.000784383
0.000784423
0.000784547
0.000784773
0.000785076
0.000785348
0.000785706
0.000786058
0.000786358
0.000786676
0.000787006
0.000787472
0.000787877
0.000788485
0.000789005
0.000789728
0.000790273
0.00079123
0.000791909
0.000793254
0.000794107
0.000795986
0.000797118
0.000800651
0.000801286
0.000815171
0.00673895
0.00484037
0.00101905
0.000945442
0.00090335
0.000877364
0.000859703
0.000846949
0.000837193
0.000829581
0.000823371
0.000818334
0.000814043
0.000810483
0.00080736
0.000804712
0.000802358
0.000800359
0.000798529
0.000796973
0.000795511
0.000794272
0.000793086
0.000792078
0.00079111
0.000790307
0.000789503
0.000788838
0.000788174
0.000787646
0.000787078
0.000786619
0.000786196
0.000785843
0.000785471
0.000785171
0.000784837
0.000784563
0.000784298
0.000784086
0.000783858
0.000783685
0.000783473
0.0007833
0.000783126
0.000782998
0.000782853
0.000782732
0.000782623
0.000782517
0.000782406
0.00078234
0.000782218
0.000782146
0.000782101
0.000782052
0.000781926
0.000781922
0.000781918
0.000781906
0.000781848
0.000781918
0.000781918
0.000781917
0.000781973
0.000782224
0.000782293
0.000782293
0.000782402
0.000782621
0.00078292
0.000782964
0.000783088
0.000783312
0.000783614
0.000783887
0.000784244
0.000784596
0.000784898
0.000785218
0.000785548
0.000786015
0.00078642
0.000787029
0.000787548
0.000788274
0.000788819
0.000789778
0.000790456
0.000791801
0.000792654
0.00079453
0.00079566
0.000799196
0.000799799
0.000814013
0.00695635
0.00503222
0.00101906
0.000945216
0.000902877
0.000876698
0.000858892
0.000846027
0.000836184
0.000828501
0.000822233
0.000817147
0.000812815
0.00080922
0.000806066
0.000803391
0.000801013
0.000798993
0.000797144
0.00079557
0.000794094
0.000792841
0.000791642
0.000790623
0.000789645
0.000788832
0.000788018
0.000787345
0.000786674
0.000786139
0.000785565
0.000785099
0.00078467
0.000784311
0.000783934
0.00078363
0.000783292
0.000783015
0.000782745
0.00078253
0.000782298
0.000782123
0.000781908
0.000781733
0.000781556
0.000781426
0.00078128
0.000781156
0.000781045
0.000780938
0.000780825
0.000780759
0.000780635
0.000780563
0.000780516
0.000780467
0.000780342
0.000780336
0.000780331
0.000780319
0.000780258
0.000780327
0.000780328
0.000780326
0.00078038
0.00078063
0.0007807
0.0007807
0.00078081
0.000781026
0.000781326
0.000781375
0.000781498
0.00078172
0.000782021
0.000782294
0.00078265
0.000783005
0.000783307
0.00078363
0.00078396
0.000784427
0.000784832
0.000785442
0.000785961
0.000786689
0.000787234
0.000788195
0.000788872
0.000790218
0.00079107
0.000792944
0.000794071
0.000797609
0.000798178
0.000812749
0.007194
0.00524224
0.00101908
0.000944975
0.000902369
0.000875981
0.000858018
0.000845032
0.000835093
0.000827334
0.000821003
0.000815864
0.000811487
0.000807853
0.000804666
0.000801962
0.000799558
0.000797515
0.000795645
0.000794053
0.00079256
0.000791293
0.00079008
0.000789048
0.000788058
0.000787235
0.000786412
0.00078573
0.00078505
0.000784507
0.000783926
0.000783454
0.000783018
0.000782654
0.000782271
0.000781962
0.00078162
0.000781338
0.000781065
0.000780846
0.00078061
0.000780431
0.000780214
0.000780037
0.000779857
0.000779724
0.000779575
0.00077945
0.000779337
0.000779228
0.000779114
0.000779046
0.000778922
0.000778848
0.000778799
0.00077875
0.000778626
0.000778618
0.000778613
0.000778599
0.000778536
0.000778605
0.000778605
0.000778604
0.000778656
0.000778903
0.000778975
0.000778974
0.000779086
0.000779299
0.000779599
0.000779653
0.000779775
0.000779996
0.000780296
0.00078057
0.000780924
0.00078128
0.000781584
0.000781909
0.000782239
0.000782707
0.000783112
0.000783722
0.000784241
0.000784972
0.000785516
0.00078648
0.000787155
0.000788501
0.000789353
0.000791225
0.000792348
0.000795889
0.000796421
0.000811377
0.00745168
0.00547103
0.00101909
0.000944718
0.000901827
0.000875213
0.00085708
0.000843964
0.000833922
0.00082608
0.000819681
0.000814485
0.000810059
0.000806383
0.00080316
0.000800424
0.000797991
0.000795924
0.000794032
0.00079242
0.000790908
0.000789625
0.000788397
0.000787352
0.00078635
0.000785515
0.000784681
0.00078399
0.0007833
0.00078275
0.000782161
0.000781682
0.000781238
0.000780868
0.00078048
0.000780165
0.000779818
0.000779532
0.000779253
0.000779031
0.000778791
0.000778609
0.000778388
0.000778208
0.000778025
0.00077789
0.000777739
0.000777612
0.000777496
0.000777386
0.00077727
0.000777201
0.000777075
0.000777
0.000776949
0.0007769
0.000776776
0.000776767
0.000776761
0.000776745
0.000776681
0.000776748
0.000776749
0.000776747
0.000776797
0.000777042
0.000777115
0.000777115
0.000777227
0.000777438
0.000777738
0.000777798
0.000777919
0.000778137
0.000778437
0.00077871
0.000779063
0.000779421
0.000779726
0.000780054
0.000780383
0.000780853
0.000781257
0.000781868
0.000782386
0.000783121
0.000783664
0.00078463
0.000785304
0.00078665
0.000787501
0.00078937
0.000790489
0.000794033
0.000794525
0.000809893
0.00772892
0.0057192
0.00101911
0.000944448
0.00090125
0.000874395
0.000856079
0.000842823
0.00083267
0.000824738
0.000818265
0.000813007
0.000808529
0.000804808
0.000801546
0.000798776
0.000796313
0.000794219
0.000792302
0.000790669
0.000789138
0.000787837
0.000786593
0.000785534
0.000784517
0.000783671
0.000782825
0.000782124
0.000781424
0.000780865
0.000780268
0.000779781
0.000779329
0.000778953
0.000778558
0.000778238
0.000777885
0.000777594
0.000777311
0.000777084
0.00077684
0.000776654
0.00077643
0.000776247
0.000776061
0.000775922
0.000775769
0.000775639
0.000775521
0.00077541
0.000775291
0.000775221
0.000775094
0.000775017
0.000774965
0.000774915
0.000774792
0.000774781
0.000774773
0.000774757
0.00077469
0.000774756
0.000774757
0.000774755
0.000774802
0.000775044
0.00077512
0.000775119
0.000775232
0.000775441
0.000775741
0.000775806
0.000775926
0.000776142
0.000776441
0.000776715
0.000777066
0.000777425
0.000777732
0.000778062
0.000778391
0.000778862
0.000779265
0.000779877
0.000780395
0.000781132
0.000781676
0.000782643
0.000783315
0.000784661
0.000785511
0.000787378
0.000788492
0.000792038
0.00079249
0.000808293
0.00802491
0.00598736
0.00101912
0.000944163
0.00090064
0.000873526
0.000855014
0.000841608
0.000831336
0.000823309
0.000816756
0.000811432
0.000806897
0.000803128
0.000799823
0.000797017
0.000794521
0.000792398
0.000790456
0.000788799
0.000787247
0.000785927
0.000784666
0.000783591
0.00078256
0.0007817
0.000780843
0.00078013
0.00077942
0.000778851
0.000778245
0.00077775
0.000777289
0.000776906
0.000776504
0.000776178
0.00077582
0.000775524
0.000775235
0.000775003
0.000774754
0.000774564
0.000774337
0.000774151
0.000773961
0.00077382
0.000773663
0.000773531
0.00077341
0.000773297
0.000773176
0.000773104
0.000772976
0.000772898
0.000772843
0.000772793
0.000772671
0.000772657
0.000772649
0.000772631
0.000772562
0.000772627
0.000772627
0.000772626
0.00077267
0.000772909
0.000772986
0.000772986
0.0007731
0.000773305
0.000773605
0.000773676
0.000773795
0.000774009
0.000774306
0.000774581
0.000774931
0.000775291
0.000775599
0.000775932
0.000776261
0.000776733
0.000777136
0.000777748
0.000778265
0.000779006
0.000779548
0.000780518
0.000781188
0.000782534
0.000783383
0.000785246
0.000786355
0.000789904
0.000790312
0.000806575
0.00833848
0.00627613
0.00101914
0.000943865
0.000899996
0.000872607
0.000853887
0.00084032
0.000829921
0.00082179
0.000815153
0.000809758
0.000805163
0.000801342
0.000797992
0.000795146
0.000792615
0.000790461
0.000788491
0.00078681
0.000785235
0.000783895
0.000782616
0.000781524
0.000780477
0.000779603
0.000778733
0.000778008
0.000777286
0.000776707
0.000776092
0.000775587
0.000775118
0.000774727
0.000774317
0.000773985
0.00077362
0.000773319
0.000773024
0.000772787
0.000772533
0.000772339
0.000772108
0.000771918
0.000771724
0.00077158
0.00077142
0.000771286
0.000771162
0.000771047
0.000770923
0.00077085
0.00077072
0.00077064
0.000770583
0.000770533
0.000770411
0.000770395
0.000770386
0.000770366
0.000770295
0.000770358
0.000770359
0.000770357
0.000770398
0.000770635
0.000770713
0.000770713
0.000770828
0.00077103
0.00077133
0.000771407
0.000771525
0.000771737
0.000772032
0.000772307
0.000772655
0.000773016
0.000773326
0.000773662
0.00077399
0.000774463
0.000774866
0.000775479
0.000775994
0.000776738
0.00077728
0.000778252
0.00077892
0.000780265
0.000781113
0.000782972
0.000784076
0.000787626
0.00078799
0.000804733
0.008668
0.00658611
0.00101917
0.000943554
0.000899321
0.00087164
0.000852696
0.000838958
0.000828423
0.000820183
0.000813455
0.000807984
0.000803325
0.000799448
0.00079605
0.000793162
0.000790594
0.000788407
0.000786407
0.0007847
0.000783101
0.000781739
0.00078044
0.00077933
0.000778267
0.000777378
0.000776493
0.000775756
0.000775022
0.000774431
0.000773806
0.000773292
0.000772813
0.000772413
0.000771996
0.000771657
0.000771286
0.000770978
0.000770676
0.000770435
0.000770175
0.000769977
0.000769741
0.000769548
0.00076935
0.000769202
0.000769038
0.000768902
0.000768774
0.000768658
0.000768531
0.000768456
0.000768325
0.000768243
0.000768183
0.000768132
0.000768011
0.000767993
0.000767982
0.000767961
0.000767887
0.000767949
0.00076795
0.000767948
0.000767986
0.000768219
0.000768299
0.000768298
0.000768415
0.000768614
0.000768913
0.000768996
0.000769114
0.000769323
0.000769617
0.000769891
0.000770238
0.0007706
0.000770912
0.00077125
0.000771578
0.000772052
0.000772453
0.000773068
0.000773582
0.000774329
0.00077487
0.000775843
0.00077651
0.000777854
0.0007787
0.000780555
0.000781654
0.000785204
0.000785521
0.000802764
0.00901139
0.00691779
0.00101919
0.000943231
0.000898613
0.000870623
0.000851443
0.000837523
0.000826844
0.000818487
0.000811663
0.000806111
0.000801383
0.000797447
0.000793998
0.000791065
0.000788457
0.000786235
0.000784203
0.000782467
0.000780843
0.000779458
0.000778138
0.00077701
0.000775928
0.000775023
0.000774123
0.000773372
0.000772625
0.000772023
0.000771387
0.000770862
0.000770373
0.000769965
0.000769539
0.000769192
0.000768814
0.0007685
0.000768192
0.000767944
0.000767679
0.000767476
0.000767235
0.000767038
0.000766836
0.000766684
0.000766517
0.000766377
0.000766246
0.000766128
0.000765998
0.000765921
0.000765788
0.000765705
0.000765642
0.00076559
0.000765469
0.000765449
0.000765437
0.000765414
0.000765337
0.000765398
0.000765398
0.000765397
0.000765431
0.000765661
0.000765741
0.000765741
0.000765859
0.000766054
0.000766352
0.000766442
0.000766559
0.000766766
0.000767058
0.000767333
0.000767677
0.00076804
0.000768353
0.000768695
0.000769022
0.000769497
0.000769898
0.000770512
0.000771025
0.000771775
0.000772315
0.00077329
0.000773955
0.000775297
0.000776142
0.000777992
0.000779084
0.000782635
0.000782905
0.000800663
0.00936605
0.00727159
0.00101922
0.000942897
0.000897874
0.000869558
0.000850128
0.000836015
0.000825183
0.000816702
0.000809775
0.000804138
0.000799336
0.000795338
0.000791834
0.000788854
0.000786203
0.000783944
0.000781878
0.000780113
0.000778461
0.000777052
0.000775709
0.00077456
0.00077346
0.000772537
0.000771622
0.000770856
0.000770095
0.000769481
0.000768833
0.000768298
0.000767797
0.00076738
0.000766945
0.00076659
0.000766204
0.000765884
0.000765568
0.000765315
0.000765043
0.000764835
0.00076459
0.000764388
0.000764181
0.000764025
0.000763854
0.000763711
0.000763577
0.000763456
0.000763323
0.000763244
0.000763109
0.000763023
0.000762958
0.000762906
0.000762784
0.000762762
0.000762748
0.000762724
0.000762645
0.000762703
0.000762703
0.000762702
0.000762732
0.000762959
0.00076304
0.00076304
0.000763159
0.00076335
0.000763647
0.000763744
0.00076386
0.000764064
0.000764354
0.000764629
0.000764971
0.000765336
0.000765649
0.000765994
0.00076632
0.000766797
0.000767196
0.000767811
0.000768322
0.000769076
0.000769615
0.000770591
0.000771253
0.000772594
0.000773437
0.000775282
0.000776367
0.000779917
0.000780138
0.000798424
0.00972881
0.00764771
0.00101925
0.000942551
0.000897106
0.000868445
0.000848752
0.000834434
0.00082344
0.000814829
0.000807793
0.000802065
0.000797186
0.000793121
0.000789559
0.000786528
0.000783832
0.000781533
0.000779432
0.000777634
0.000775954
0.000774519
0.000773152
0.000771982
0.000770861
0.000769921
0.000768988
0.000768207
0.000767431
0.000766803
0.000766144
0.000765597
0.000765084
0.000764657
0.000764213
0.00076385
0.000763456
0.000763128
0.000762804
0.000762545
0.000762267
0.000762053
0.000761802
0.000761596
0.000761384
0.000761224
0.000761049
0.000760902
0.000760764
0.000760641
0.000760504
0.000760423
0.000760286
0.000760198
0.00076013
0.000760077
0.000759955
0.00075993
0.000759914
0.000759889
0.000759807
0.000759862
0.000759863
0.000759862
0.000759888
0.000760111
0.000760193
0.000760193
0.000760313
0.000760501
0.000760796
0.000760899
0.000761015
0.000761216
0.000761504
0.000761779
0.000762118
0.000762484
0.000762799
0.000763147
0.000763472
0.00076395
0.000764348
0.000764963
0.000765472
0.000766229
0.000766766
0.000767744
0.000768404
0.000769742
0.000770583
0.000772423
0.000773501
0.000777047
0.00077722
0.000796042
0.0100959
0.00804614
0.00101929
0.000942196
0.000896308
0.000867286
0.000847315
0.000832782
0.000821616
0.000812866
0.000805715
0.000799891
0.00079493
0.000790795
0.000787172
0.000784088
0.000781344
0.000779003
0.000776863
0.000775032
0.000773321
0.000771859
0.000770466
0.000769274
0.000768131
0.000767172
0.000766221
0.000765424
0.000764633
0.00076399
0.000763317
0.000762758
0.000762234
0.000761796
0.000761341
0.000760969
0.000760567
0.000760231
0.0007599
0.000759633
0.000759348
0.000759129
0.000758872
0.000758661
0.000758444
0.000758279
0.0007581
0.00075795
0.000757807
0.000757681
0.000757541
0.000757457
0.000757319
0.000757228
0.000757156
0.000757102
0.00075698
0.000756953
0.000756935
0.000756908
0.000756823
0.000756876
0.000756877
0.000756876
0.000756897
0.000757116
0.000757199
0.000757199
0.00075732
0.000757504
0.000757797
0.000757907
0.000758022
0.000758221
0.000758506
0.000758781
0.000759118
0.000759484
0.0007598
0.000760151
0.000760476
0.000760954
0.000761351
0.000761967
0.000762473
0.000763232
0.000763769
0.000764747
0.000765405
0.00076674
0.000767579
0.000769412
0.000770482
0.000774025
0.000774149
0.000793511
0.010463
0.00846652
0.00101932
0.000941831
0.000895482
0.000866082
0.000845818
0.000831058
0.000819711
0.000810815
0.000803543
0.000797617
0.00079257
0.00078836
0.000784672
0.000781532
0.000778737
0.000776352
0.000774172
0.000772306
0.000770562
0.00076907
0.000767651
0.000766435
0.00076527
0.00076429
0.00076332
0.000762506
0.000761698
0.000761041
0.000760354
0.000759782
0.000759244
0.000758796
0.00075833
0.000757948
0.000757537
0.000757193
0.000756853
0.000756579
0.000756287
0.000756061
0.000755799
0.000755583
0.000755359
0.00075519
0.000755006
0.000754852
0.000754704
0.000754576
0.000754431
0.000754345
0.000754204
0.000754112
0.000754036
0.000753981
0.000753859
0.000753828
0.000753808