/*--------------------------------*- C++ -*----------------------------------*\
| =========                 |                                                 |
| \\      /  F ield         | OpenFOAM: The Open Source CFD Toolbox           |
|  \\    /   O peration     | Version:  v2012                                 |
|   \\  /    A nd           | Website:  www.openfoam.com                      |
|    \\/     M anipulation  |                                                 |
\*---------------------------------------------------------------------------*/
FoamFile
{
    version     2.0;
    format      ascii;
    class       volScalarField;
    location    "14";
    object      nut;
}
// * * * * * * * * * * * * * * * * * * * * * * * * * * * * * * * * * * * * * //

dimensions      [0 2 -1 0 0 0 0];


internalField   nonuniform List<scalar> 
209825
(
1.22126e-07
1.13765e-07
1.07714e-07
1.03662e-07
1.00791e-07
9.86602e-08
9.69962e-08
9.56786e-08
9.45906e-08
9.37004e-08
9.29361e-08
9.22986e-08
9.17371e-08
9.12586e-08
9.08317e-08
9.04685e-08
9.01351e-08
8.9851e-08
8.95837e-08
8.93569e-08
8.91396e-08
8.89544e-08
8.87763e-08
8.86284e-08
8.84806e-08
8.83578e-08
8.82349e-08
8.81375e-08
8.80331e-08
8.79476e-08
8.78691e-08
8.78033e-08
8.77355e-08
8.7679e-08
8.76145e-08
8.75627e-08
8.75168e-08
8.74756e-08
8.7432e-08
8.73976e-08
8.73546e-08
8.73204e-08
8.72885e-08
8.72602e-08
8.72311e-08
8.72038e-08
8.71824e-08
8.71545e-08
8.71324e-08
8.71133e-08
8.70873e-08
8.70569e-08
8.70488e-08
8.70385e-08
8.70015e-08
8.7003e-08
8.6986e-08
8.69676e-08
8.69417e-08
8.69533e-08
8.69533e-08
8.69531e-08
8.69525e-08
8.69818e-08
8.6984e-08
8.6984e-08
8.69902e-08
8.70092e-08
8.70605e-08
8.70459e-08
8.70413e-08
8.70821e-08
8.71254e-08
8.71576e-08
8.72096e-08
8.72506e-08
8.72757e-08
8.73115e-08
8.73394e-08
8.73971e-08
8.7445e-08
8.75186e-08
8.75808e-08
8.76623e-08
8.77121e-08
8.78219e-08
8.78789e-08
8.80384e-08
8.81064e-08
8.83002e-08
8.84071e-08
8.87076e-08
8.88027e-08
8.95833e-08
1.55615e-06
3.72582e-09
1.22127e-07
1.13766e-07
1.07715e-07
1.03663e-07
1.00792e-07
9.86608e-08
9.69965e-08
9.56786e-08
9.45905e-08
9.37e-08
9.29356e-08
9.2298e-08
9.17363e-08
9.12577e-08
9.08307e-08
9.04674e-08
9.01339e-08
8.98497e-08
8.95824e-08
8.93555e-08
8.91382e-08
8.89529e-08
8.87747e-08
8.86268e-08
8.84789e-08
8.83561e-08
8.82332e-08
8.81357e-08
8.80313e-08
8.79458e-08
8.78672e-08
8.78014e-08
8.77336e-08
8.7677e-08
8.76126e-08
8.75608e-08
8.75148e-08
8.74736e-08
8.743e-08
8.73956e-08
8.73526e-08
8.73183e-08
8.72864e-08
8.72581e-08
8.7229e-08
8.72017e-08
8.71803e-08
8.71523e-08
8.71302e-08
8.71111e-08
8.70851e-08
8.70548e-08
8.70467e-08
8.70363e-08
8.69994e-08
8.70008e-08
8.69838e-08
8.69654e-08
8.69395e-08
8.69511e-08
8.69511e-08
8.69509e-08
8.69503e-08
8.69795e-08
8.69818e-08
8.69818e-08
8.69879e-08
8.7007e-08
8.70583e-08
8.70437e-08
8.70391e-08
8.70799e-08
8.71231e-08
8.71553e-08
8.72073e-08
8.72483e-08
8.72734e-08
8.73093e-08
8.73372e-08
8.73948e-08
8.74427e-08
8.75163e-08
8.75786e-08
8.766e-08
8.77098e-08
8.78196e-08
8.78766e-08
8.80361e-08
8.81042e-08
8.82979e-08
8.84048e-08
8.87053e-08
8.88003e-08
8.95822e-08
1.55801e-06
3.77827e-09
1.2213e-07
1.13773e-07
1.07721e-07
1.03668e-07
1.00795e-07
9.86629e-08
9.69976e-08
9.56787e-08
9.45898e-08
9.36986e-08
9.29336e-08
9.22954e-08
9.17332e-08
9.12542e-08
9.08268e-08
9.04631e-08
9.01293e-08
8.98448e-08
8.95773e-08
8.93501e-08
8.91326e-08
8.89471e-08
8.87687e-08
8.86206e-08
8.84726e-08
8.83496e-08
8.82266e-08
8.8129e-08
8.80245e-08
8.79388e-08
8.78601e-08
8.77943e-08
8.77263e-08
8.76697e-08
8.76052e-08
8.75533e-08
8.75073e-08
8.7466e-08
8.74223e-08
8.73878e-08
8.73448e-08
8.73105e-08
8.72786e-08
8.72502e-08
8.7221e-08
8.71937e-08
8.71722e-08
8.71443e-08
8.71221e-08
8.7103e-08
8.7077e-08
8.70466e-08
8.70385e-08
8.70281e-08
8.69912e-08
8.69926e-08
8.69756e-08
8.69571e-08
8.69311e-08
8.69427e-08
8.69427e-08
8.69425e-08
8.69419e-08
8.69711e-08
8.69733e-08
8.69733e-08
8.69795e-08
8.69985e-08
8.70497e-08
8.70352e-08
8.70306e-08
8.70713e-08
8.71146e-08
8.71468e-08
8.71987e-08
8.72398e-08
8.72649e-08
8.73007e-08
8.73286e-08
8.73862e-08
8.74341e-08
8.75077e-08
8.75699e-08
8.76514e-08
8.77012e-08
8.7811e-08
8.7868e-08
8.80274e-08
8.80955e-08
8.82891e-08
8.8396e-08
8.86965e-08
8.87912e-08
8.95759e-08
1.56366e-06
3.86302e-09
1.22136e-07
1.13784e-07
1.07732e-07
1.03676e-07
1.00801e-07
9.86666e-08
9.69994e-08
9.5679e-08
9.45886e-08
9.36963e-08
9.29302e-08
9.22911e-08
9.17281e-08
9.12484e-08
9.08203e-08
9.04561e-08
9.01217e-08
8.98368e-08
8.95688e-08
8.93412e-08
8.91233e-08
8.89375e-08
8.87588e-08
8.86105e-08
8.84622e-08
8.8339e-08
8.82156e-08
8.81179e-08
8.80131e-08
8.79273e-08
8.78485e-08
8.77824e-08
8.77143e-08
8.76576e-08
8.75929e-08
8.75409e-08
8.74948e-08
8.74533e-08
8.74096e-08
8.7375e-08
8.73319e-08
8.72976e-08
8.72656e-08
8.72371e-08
8.72079e-08
8.71805e-08
8.7159e-08
8.7131e-08
8.71088e-08
8.70896e-08
8.70636e-08
8.70331e-08
8.70249e-08
8.70145e-08
8.69776e-08
8.6979e-08
8.6962e-08
8.69434e-08
8.69173e-08
8.69288e-08
8.69289e-08
8.69287e-08
8.6928e-08
8.69571e-08
8.69593e-08
8.69593e-08
8.69655e-08
8.69844e-08
8.70356e-08
8.70213e-08
8.70166e-08
8.70572e-08
8.71004e-08
8.71325e-08
8.71845e-08
8.72255e-08
8.72507e-08
8.72865e-08
8.73144e-08
8.7372e-08
8.74198e-08
8.74934e-08
8.75555e-08
8.7637e-08
8.76868e-08
8.77966e-08
8.78535e-08
8.80128e-08
8.8081e-08
8.82744e-08
8.83812e-08
8.86817e-08
8.8776e-08
8.9565e-08
1.57288e-06
3.97248e-09
1.22144e-07
1.138e-07
1.07747e-07
1.03687e-07
1.00809e-07
9.86717e-08
9.7002e-08
9.56794e-08
9.45871e-08
9.36931e-08
9.29256e-08
9.22852e-08
9.1721e-08
9.12403e-08
9.08113e-08
9.04462e-08
9.01111e-08
8.98255e-08
8.95569e-08
8.93288e-08
8.91104e-08
8.89241e-08
8.8745e-08
8.85962e-08
8.84475e-08
8.8324e-08
8.82004e-08
8.81023e-08
8.79973e-08
8.79112e-08
8.78321e-08
8.77658e-08
8.76975e-08
8.76406e-08
8.75758e-08
8.75236e-08
8.74772e-08
8.74357e-08
8.73917e-08
8.73571e-08
8.73138e-08
8.72794e-08
8.72473e-08
8.72187e-08
8.71894e-08
8.7162e-08
8.71403e-08
8.71123e-08
8.709e-08
8.70709e-08
8.70447e-08
8.70142e-08
8.70059e-08
8.69955e-08
8.69586e-08
8.69599e-08
8.69429e-08
8.69242e-08
8.6898e-08
8.69094e-08
8.69094e-08
8.69092e-08
8.69084e-08
8.69374e-08
8.69396e-08
8.69396e-08
8.69459e-08
8.69646e-08
8.70158e-08
8.70017e-08
8.69969e-08
8.70373e-08
8.70805e-08
8.71126e-08
8.71644e-08
8.72056e-08
8.72307e-08
8.72667e-08
8.72944e-08
8.7352e-08
8.73997e-08
8.74733e-08
8.75354e-08
8.76169e-08
8.76666e-08
8.77764e-08
8.78333e-08
8.79925e-08
8.80607e-08
8.82538e-08
8.83606e-08
8.8661e-08
8.87546e-08
8.95496e-08
1.5858e-06
4.10458e-09
1.22155e-07
1.13821e-07
1.07766e-07
1.03702e-07
1.0082e-07
9.86786e-08
9.70055e-08
9.56801e-08
9.45853e-08
9.36891e-08
9.29197e-08
9.22776e-08
9.1712e-08
9.12299e-08
9.07997e-08
9.04336e-08
9.00975e-08
8.9811e-08
8.95416e-08
8.93128e-08
8.90937e-08
8.89068e-08
8.87271e-08
8.85779e-08
8.84287e-08
8.83047e-08
8.81806e-08
8.80822e-08
8.79768e-08
8.78904e-08
8.78109e-08
8.77444e-08
8.76758e-08
8.76186e-08
8.75536e-08
8.75011e-08
8.74546e-08
8.74128e-08
8.73687e-08
8.73339e-08
8.72905e-08
8.72559e-08
8.72237e-08
8.7195e-08
8.71656e-08
8.7138e-08
8.71163e-08
8.70882e-08
8.70658e-08
8.70466e-08
8.70204e-08
8.69898e-08
8.69814e-08
8.6971e-08
8.69341e-08
8.69352e-08
8.69182e-08
8.68994e-08
8.6873e-08
8.68842e-08
8.68843e-08
8.68841e-08
8.68832e-08
8.69121e-08
8.69142e-08
8.69142e-08
8.69206e-08
8.69391e-08
8.69902e-08
8.69764e-08
8.69715e-08
8.70116e-08
8.70547e-08
8.70868e-08
8.71385e-08
8.71797e-08
8.7205e-08
8.72409e-08
8.72687e-08
8.73261e-08
8.73738e-08
8.74473e-08
8.75093e-08
8.75909e-08
8.76405e-08
8.77503e-08
8.78071e-08
8.79661e-08
8.80344e-08
8.82271e-08
8.83338e-08
8.86342e-08
8.87269e-08
8.95296e-08
1.60252e-06
4.25914e-09
1.22168e-07
1.13847e-07
1.0779e-07
1.03721e-07
1.00833e-07
9.86871e-08
9.70099e-08
9.5681e-08
9.45832e-08
9.36843e-08
9.29125e-08
9.22684e-08
9.17009e-08
9.12172e-08
9.07855e-08
9.04181e-08
9.00808e-08
8.97932e-08
8.95228e-08
8.92931e-08
8.90732e-08
8.88856e-08
8.87052e-08
8.85553e-08
8.84055e-08
8.8281e-08
8.81564e-08
8.80575e-08
8.79517e-08
8.78648e-08
8.77849e-08
8.77181e-08
8.76491e-08
8.75916e-08
8.75263e-08
8.74736e-08
8.74267e-08
8.73848e-08
8.73403e-08
8.73053e-08
8.72617e-08
8.7227e-08
8.71947e-08
8.71658e-08
8.71362e-08
8.71086e-08
8.70867e-08
8.70585e-08
8.7036e-08
8.70167e-08
8.69905e-08
8.69597e-08
8.69512e-08
8.69407e-08
8.69039e-08
8.69048e-08
8.68878e-08
8.68689e-08
8.68422e-08
8.68533e-08
8.68533e-08
8.68531e-08
8.68521e-08
8.68808e-08
8.68829e-08
8.68829e-08
8.68894e-08
8.69076e-08
8.69587e-08
8.69452e-08
8.69402e-08
8.698e-08
8.7023e-08
8.70551e-08
8.71066e-08
8.7148e-08
8.71732e-08
8.72092e-08
8.72369e-08
8.72943e-08
8.73419e-08
8.74152e-08
8.74771e-08
8.75589e-08
8.76084e-08
8.77182e-08
8.77748e-08
8.79336e-08
8.80021e-08
8.81943e-08
8.83008e-08
8.86011e-08
8.86928e-08
8.95049e-08
1.62315e-06
4.43715e-09
1.22184e-07
1.13877e-07
1.07818e-07
1.03743e-07
1.00849e-07
9.86974e-08
9.70154e-08
9.56822e-08
9.45807e-08
9.36787e-08
9.29041e-08
9.22575e-08
9.16878e-08
9.12022e-08
9.07687e-08
9.03997e-08
9.00609e-08
8.97721e-08
8.95005e-08
8.92697e-08
8.90489e-08
8.88604e-08
8.86791e-08
8.85284e-08
8.83779e-08
8.82528e-08
8.81275e-08
8.8028e-08
8.79217e-08
8.78344e-08
8.7754e-08
8.76867e-08
8.76173e-08
8.75595e-08
8.74938e-08
8.74407e-08
8.73935e-08
8.73513e-08
8.73066e-08
8.72713e-08
8.72275e-08
8.71926e-08
8.71601e-08
8.7131e-08
8.71012e-08
8.70735e-08
8.70514e-08
8.70232e-08
8.70004e-08
8.69811e-08
8.69548e-08
8.69238e-08
8.69152e-08
8.69047e-08
8.68679e-08
8.68687e-08
8.68515e-08
8.68325e-08
8.68055e-08
8.68164e-08
8.68165e-08
8.68163e-08
8.6815e-08
8.68436e-08
8.68456e-08
8.68456e-08
8.68522e-08
8.68702e-08
8.69212e-08
8.69081e-08
8.69029e-08
8.69422e-08
8.69852e-08
8.70172e-08
8.70686e-08
8.71101e-08
8.71354e-08
8.71715e-08
8.71991e-08
8.72563e-08
8.73038e-08
8.7377e-08
8.74388e-08
8.75207e-08
8.75701e-08
8.76799e-08
8.77363e-08
8.78949e-08
8.79634e-08
8.8155e-08
8.82615e-08
8.85616e-08
8.86522e-08
8.94755e-08
1.6478e-06
4.64054e-09
1.22202e-07
1.13913e-07
1.07851e-07
1.03769e-07
1.00867e-07
9.87095e-08
9.70218e-08
9.56837e-08
9.4578e-08
9.36722e-08
9.28943e-08
9.22448e-08
9.16726e-08
9.11847e-08
9.07492e-08
9.03783e-08
9.00379e-08
8.97476e-08
8.94746e-08
8.92425e-08
8.90205e-08
8.8831e-08
8.86487e-08
8.84972e-08
8.83459e-08
8.82199e-08
8.8094e-08
8.79938e-08
8.78869e-08
8.7799e-08
8.7718e-08
8.76502e-08
8.75803e-08
8.75221e-08
8.7456e-08
8.74025e-08
8.73549e-08
8.73123e-08
8.72673e-08
8.72317e-08
8.71877e-08
8.71526e-08
8.71198e-08
8.70906e-08
8.70605e-08
8.70326e-08
8.70104e-08
8.6982e-08
8.6959e-08
8.69396e-08
8.69132e-08
8.68821e-08
8.68732e-08
8.68628e-08
8.6826e-08
8.68266e-08
8.68094e-08
8.67901e-08
8.67628e-08
8.67735e-08
8.67735e-08
8.67733e-08
8.67719e-08
8.68002e-08
8.68022e-08
8.68021e-08
8.68089e-08
8.68265e-08
8.68774e-08
8.68649e-08
8.68594e-08
8.68983e-08
8.69411e-08
8.69731e-08
8.70243e-08
8.70659e-08
8.70913e-08
8.71274e-08
8.7155e-08
8.72121e-08
8.72594e-08
8.73326e-08
8.73942e-08
8.74762e-08
8.75255e-08
8.76352e-08
8.76914e-08
8.78497e-08
8.79184e-08
8.81094e-08
8.82157e-08
8.85156e-08
8.86048e-08
8.94412e-08
1.67653e-06
4.87207e-09
1.22222e-07
1.13953e-07
1.07889e-07
1.03799e-07
1.00889e-07
9.87235e-08
9.70293e-08
9.56856e-08
9.4575e-08
9.3665e-08
9.28833e-08
9.22305e-08
9.16553e-08
9.11649e-08
9.07269e-08
9.0354e-08
9.00116e-08
8.97196e-08
8.9445e-08
8.92115e-08
8.89882e-08
8.87975e-08
8.8614e-08
8.84615e-08
8.83092e-08
8.81824e-08
8.80556e-08
8.79547e-08
8.78471e-08
8.77585e-08
8.76768e-08
8.76084e-08
8.7538e-08
8.74793e-08
8.74127e-08
8.73588e-08
8.73107e-08
8.72678e-08
8.72223e-08
8.71865e-08
8.71421e-08
8.71067e-08
8.70737e-08
8.70442e-08
8.70139e-08
8.69858e-08
8.69634e-08
8.69349e-08
8.69117e-08
8.68922e-08
8.68656e-08
8.68343e-08
8.68253e-08
8.68147e-08
8.67781e-08
8.67784e-08
8.67611e-08
8.67415e-08
8.67139e-08
8.67243e-08
8.67244e-08
8.67242e-08
8.67225e-08
8.67506e-08
8.67525e-08
8.67524e-08
8.67593e-08
8.67766e-08
8.68273e-08
8.68153e-08
8.68097e-08
8.6848e-08
8.68907e-08
8.69227e-08
8.69736e-08
8.70154e-08
8.70408e-08
8.70771e-08
8.71045e-08
8.71614e-08
8.72086e-08
8.72816e-08
8.7343e-08
8.74252e-08
8.74743e-08
8.7584e-08
8.764e-08
8.7798e-08
8.78669e-08
8.8057e-08
8.81632e-08
8.8463e-08
8.85505e-08
8.94019e-08
1.70942e-06
5.13526e-09
1.22245e-07
1.13999e-07
1.07932e-07
1.03832e-07
1.00913e-07
9.87394e-08
9.70379e-08
9.5688e-08
9.45718e-08
9.3657e-08
9.28711e-08
9.22145e-08
9.1636e-08
9.11426e-08
9.07019e-08
9.03266e-08
8.99821e-08
8.96881e-08
8.94117e-08
8.91766e-08
8.89518e-08
8.87597e-08
8.8575e-08
8.84213e-08
8.82679e-08
8.81401e-08
8.80123e-08
8.79105e-08
8.78022e-08
8.77128e-08
8.76304e-08
8.75613e-08
8.74903e-08
8.7431e-08
8.7364e-08
8.73095e-08
8.72609e-08
8.72176e-08
8.71716e-08
8.71354e-08
8.70907e-08
8.7055e-08
8.70218e-08
8.6992e-08
8.69613e-08
8.6933e-08
8.69103e-08
8.68817e-08
8.68582e-08
8.68387e-08
8.6812e-08
8.67803e-08
8.67711e-08
8.67605e-08
8.6724e-08
8.67241e-08
8.67066e-08
8.66868e-08
8.66587e-08
8.66689e-08
8.66689e-08
8.66687e-08
8.66668e-08
8.66946e-08
8.66963e-08
8.66963e-08
8.67033e-08
8.67202e-08
8.67708e-08
8.67594e-08
8.67535e-08
8.67913e-08
8.68338e-08
8.68657e-08
8.69164e-08
8.69583e-08
8.69838e-08
8.70201e-08
8.70474e-08
8.71043e-08
8.71512e-08
8.72241e-08
8.72853e-08
8.73676e-08
8.74166e-08
8.75262e-08
8.7582e-08
8.77396e-08
8.78086e-08
8.79979e-08
8.81039e-08
8.84035e-08
8.84893e-08
8.93575e-08
1.74651e-06
5.4345e-09
1.2227e-07
1.1405e-07
1.0798e-07
1.0387e-07
1.0094e-07
9.87575e-08
9.70478e-08
9.56907e-08
9.45684e-08
9.36482e-08
9.28575e-08
9.21968e-08
9.16145e-08
9.11178e-08
9.06742e-08
9.02961e-08
8.99492e-08
8.9653e-08
8.93746e-08
8.91377e-08
8.89112e-08
8.87176e-08
8.85314e-08
8.83764e-08
8.82218e-08
8.8093e-08
8.79641e-08
8.78614e-08
8.77521e-08
8.76618e-08
8.75786e-08
8.75088e-08
8.7437e-08
8.73772e-08
8.73095e-08
8.72545e-08
8.72053e-08
8.71615e-08
8.7115e-08
8.70784e-08
8.70333e-08
8.69973e-08
8.69637e-08
8.69337e-08
8.69026e-08
8.68741e-08
8.68511e-08
8.68224e-08
8.67986e-08
8.67789e-08
8.6752e-08
8.67201e-08
8.67107e-08
8.67e-08
8.66637e-08
8.66634e-08
8.66458e-08
8.66256e-08
8.65972e-08
8.66069e-08
8.6607e-08
8.66068e-08
8.66045e-08
8.66321e-08
8.66336e-08
8.66336e-08
8.66408e-08
8.66572e-08
8.67076e-08
8.6697e-08
8.66908e-08
8.67279e-08
8.67702e-08
8.68021e-08
8.68525e-08
8.68945e-08
8.69202e-08
8.69566e-08
8.69837e-08
8.70404e-08
8.70871e-08
8.71598e-08
8.72208e-08
8.73033e-08
8.73521e-08
8.74617e-08
8.75172e-08
8.76743e-08
8.77435e-08
8.79319e-08
8.80376e-08
8.8337e-08
8.84208e-08
8.93078e-08
1.78781e-06
5.77498e-09
1.22298e-07
1.14105e-07
1.08033e-07
1.03912e-07
1.00971e-07
9.87776e-08
9.70589e-08
9.56941e-08
9.45648e-08
9.36387e-08
9.28427e-08
9.21774e-08
9.1591e-08
9.10906e-08
9.06436e-08
9.02626e-08
8.99129e-08
8.96143e-08
8.93337e-08
8.90948e-08
8.88664e-08
8.86711e-08
8.84834e-08
8.83269e-08
8.8171e-08
8.80409e-08
8.79108e-08
8.7807e-08
8.76967e-08
8.76056e-08
8.75213e-08
8.74508e-08
8.73782e-08
8.73176e-08
8.72494e-08
8.71937e-08
8.71438e-08
8.70995e-08
8.70525e-08
8.70154e-08
8.69698e-08
8.69335e-08
8.68995e-08
8.68691e-08
8.68377e-08
8.68089e-08
8.67856e-08
8.67567e-08
8.67326e-08
8.67128e-08
8.66857e-08
8.66536e-08
8.66438e-08
8.66331e-08
8.65969e-08
8.65963e-08
8.65785e-08
8.6558e-08
8.6529e-08
8.65384e-08
8.65385e-08
8.65383e-08
8.65357e-08
8.65629e-08
8.65643e-08
8.65642e-08
8.65716e-08
8.65875e-08
8.66377e-08
8.66279e-08
8.66214e-08
8.66578e-08
8.66999e-08
8.67316e-08
8.67817e-08
8.68239e-08
8.68497e-08
8.68862e-08
8.69132e-08
8.69697e-08
8.70161e-08
8.70887e-08
8.71494e-08
8.7232e-08
8.72807e-08
8.73902e-08
8.74454e-08
8.7602e-08
8.76715e-08
8.78588e-08
8.79643e-08
8.82634e-08
8.8345e-08
8.92528e-08
1.83329e-06
6.16275e-09
1.22328e-07
1.14166e-07
1.08091e-07
1.03958e-07
1.01005e-07
9.88e-08
9.70715e-08
9.5698e-08
9.45612e-08
9.36285e-08
9.28268e-08
9.21563e-08
9.15653e-08
9.10609e-08
9.06102e-08
9.0226e-08
8.98733e-08
8.9572e-08
8.92889e-08
8.90478e-08
8.88173e-08
8.86202e-08
8.84307e-08
8.82727e-08
8.81152e-08
8.79838e-08
8.78524e-08
8.77474e-08
8.7636e-08
8.75438e-08
8.74585e-08
8.73871e-08
8.73136e-08
8.72523e-08
8.71833e-08
8.7127e-08
8.70763e-08
8.70315e-08
8.69838e-08
8.69463e-08
8.69002e-08
8.68635e-08
8.68291e-08
8.67983e-08
8.67664e-08
8.67374e-08
8.67138e-08
8.66846e-08
8.66601e-08
8.66402e-08
8.66129e-08
8.65804e-08
8.65703e-08
8.65596e-08
8.65235e-08
8.65226e-08
8.65046e-08
8.64837e-08
8.64542e-08
8.64632e-08
8.64633e-08
8.64631e-08
8.64601e-08
8.64869e-08
8.64881e-08
8.6488e-08
8.64957e-08
8.6511e-08
8.65609e-08
8.6552e-08
8.65452e-08
8.65808e-08
8.66226e-08
8.66543e-08
8.6704e-08
8.67464e-08
8.67723e-08
8.68089e-08
8.68358e-08
8.6892e-08
8.69382e-08
8.70105e-08
8.70709e-08
8.71538e-08
8.72022e-08
8.73116e-08
8.73665e-08
8.75226e-08
8.75923e-08
8.77785e-08
8.78836e-08
8.81825e-08
8.82618e-08
8.91923e-08
1.88288e-06
6.6048e-09
1.2236e-07
1.14233e-07
1.08154e-07
1.04009e-07
1.01042e-07
9.88248e-08
9.70854e-08
9.57026e-08
9.45576e-08
9.36177e-08
9.28096e-08
9.21335e-08
9.15376e-08
9.10288e-08
9.05741e-08
9.01862e-08
8.98302e-08
8.9526e-08
8.92402e-08
8.89967e-08
8.8764e-08
8.85649e-08
8.83734e-08
8.82136e-08
8.80545e-08
8.79216e-08
8.77888e-08
8.76825e-08
8.75699e-08
8.74766e-08
8.73901e-08
8.73177e-08
8.72432e-08
8.71812e-08
8.71114e-08
8.70543e-08
8.70028e-08
8.69573e-08
8.6909e-08
8.68709e-08
8.68243e-08
8.67871e-08
8.67523e-08
8.67211e-08
8.66886e-08
8.66594e-08
8.66354e-08
8.6606e-08
8.65811e-08
8.6561e-08
8.65335e-08
8.65007e-08
8.64902e-08
8.64794e-08
8.64434e-08
8.64422e-08
8.6424e-08
8.64027e-08
8.63726e-08
8.63812e-08
8.63813e-08
8.6381e-08
8.63776e-08
8.6404e-08
8.6405e-08
8.64049e-08
8.64128e-08
8.64276e-08
8.64771e-08
8.64691e-08
8.6462e-08
8.64967e-08
8.65383e-08
8.65699e-08
8.66192e-08
8.66618e-08
8.66878e-08
8.67245e-08
8.67512e-08
8.68072e-08
8.68531e-08
8.69253e-08
8.69853e-08
8.70683e-08
8.71165e-08
8.72258e-08
8.72804e-08
8.74359e-08
8.75057e-08
8.76909e-08
8.77956e-08
8.80942e-08
8.81709e-08
8.9126e-08
1.93647e-06
7.1092e-09
1.22394e-07
1.14304e-07
1.08223e-07
1.04064e-07
1.01082e-07
9.88521e-08
9.7101e-08
9.5708e-08
9.4554e-08
9.36063e-08
9.27913e-08
9.21092e-08
9.15078e-08
9.09942e-08
9.05351e-08
9.01433e-08
8.97838e-08
8.94764e-08
8.91877e-08
8.89415e-08
8.87063e-08
8.85049e-08
8.83113e-08
8.81497e-08
8.79888e-08
8.78543e-08
8.77199e-08
8.76122e-08
8.74983e-08
8.74037e-08
8.7316e-08
8.72425e-08
8.7167e-08
8.7104e-08
8.70334e-08
8.69755e-08
8.69231e-08
8.68769e-08
8.68278e-08
8.67892e-08
8.6742e-08
8.67043e-08
8.6669e-08
8.66373e-08
8.66043e-08
8.65748e-08
8.65503e-08
8.65207e-08
8.64953e-08
8.64751e-08
8.64474e-08
8.64142e-08
8.64033e-08
8.63925e-08
8.63565e-08
8.63549e-08
8.63366e-08
8.63148e-08
8.62842e-08
8.62922e-08
8.62923e-08
8.6292e-08
8.62881e-08
8.63141e-08
8.63148e-08
8.63147e-08
8.63228e-08
8.6337e-08
8.63862e-08
8.63792e-08
8.63717e-08
8.64056e-08
8.64469e-08
8.64783e-08
8.65272e-08
8.657e-08
8.6596e-08
8.66329e-08
8.66595e-08
8.67151e-08
8.67607e-08
8.68327e-08
8.68924e-08
8.69755e-08
8.70235e-08
8.71327e-08
8.7187e-08
8.73418e-08
8.74118e-08
8.75957e-08
8.77e-08
8.79983e-08
8.80723e-08
8.90539e-08
1.99389e-06
7.68517e-09
1.2243e-07
1.14381e-07
1.08298e-07
1.04124e-07
1.01126e-07
9.88819e-08
9.71182e-08
9.57142e-08
9.45506e-08
9.35945e-08
9.2772e-08
9.20832e-08
9.1476e-08
9.09571e-08
9.04933e-08
9.00973e-08
8.97339e-08
8.94231e-08
8.91311e-08
8.88821e-08
8.86442e-08
8.84405e-08
8.82446e-08
8.80809e-08
8.7918e-08
8.77818e-08
8.76457e-08
8.75364e-08
8.74211e-08
8.73252e-08
8.72361e-08
8.71615e-08
8.70848e-08
8.70209e-08
8.69493e-08
8.68905e-08
8.68372e-08
8.67902e-08
8.67403e-08
8.6701e-08
8.66532e-08
8.66149e-08
8.65791e-08
8.6547e-08
8.65134e-08
8.64834e-08
8.64586e-08
8.64287e-08
8.64028e-08
8.63824e-08
8.63544e-08
8.63208e-08
8.63096e-08
8.62986e-08
8.62627e-08
8.62607e-08
8.62422e-08
8.622e-08
8.61887e-08
8.61961e-08
8.61962e-08
8.61959e-08
8.61915e-08
8.62171e-08
8.62174e-08
8.62173e-08
8.62257e-08
8.62392e-08
8.6288e-08
8.6282e-08
8.62743e-08
8.63071e-08
8.63481e-08
8.63794e-08
8.64278e-08
8.64708e-08
8.64969e-08
8.65339e-08
8.65603e-08
8.66157e-08
8.6661e-08
8.67327e-08
8.67919e-08
8.68753e-08
8.6923e-08
8.7032e-08
8.7086e-08
8.724e-08
8.73103e-08
8.74929e-08
8.75967e-08
8.78947e-08
8.79657e-08
8.89756e-08
2.05488e-06
8.34325e-09
1.22468e-07
1.14463e-07
1.08378e-07
1.04188e-07
1.01174e-07
9.89145e-08
9.71372e-08
9.57214e-08
9.45474e-08
9.35822e-08
9.27516e-08
9.20558e-08
9.14422e-08
9.09177e-08
9.04487e-08
9.00482e-08
8.96806e-08
8.9366e-08
8.90706e-08
8.88185e-08
8.85777e-08
8.83714e-08
8.8173e-08
8.80071e-08
8.78422e-08
8.7704e-08
8.75661e-08
8.74551e-08
8.73383e-08
8.72409e-08
8.71504e-08
8.70745e-08
8.69966e-08
8.69316e-08
8.6859e-08
8.67992e-08
8.67449e-08
8.66971e-08
8.66463e-08
8.66063e-08
8.65579e-08
8.65189e-08
8.64825e-08
8.64499e-08
8.64156e-08
8.63853e-08
8.636e-08
8.63298e-08
8.63034e-08
8.62828e-08
8.62545e-08
8.62205e-08
8.62088e-08
8.61977e-08
8.61619e-08
8.61594e-08
8.61407e-08
8.6118e-08
8.6086e-08
8.60928e-08
8.6093e-08
8.60926e-08
8.60876e-08
8.61127e-08
8.61128e-08
8.61126e-08
8.61212e-08
8.61341e-08
8.61825e-08
8.61776e-08
8.61694e-08
8.62013e-08
8.62419e-08
8.62731e-08
8.6321e-08
8.63641e-08
8.63904e-08
8.64275e-08
8.64537e-08
8.65088e-08
8.65537e-08
8.66251e-08
8.66839e-08
8.67675e-08
8.68149e-08
8.69238e-08
8.69774e-08
8.71305e-08
8.7201e-08
8.73823e-08
8.74856e-08
8.77832e-08
8.78511e-08
8.8891e-08
2.11916e-06
9.09546e-09
1.22509e-07
1.1455e-07
1.08463e-07
1.04258e-07
1.01226e-07
9.89499e-08
9.71581e-08
9.57297e-08
9.45445e-08
9.35695e-08
9.27303e-08
9.20268e-08
9.14064e-08
9.08759e-08
9.04014e-08
8.99959e-08
8.96238e-08
8.93052e-08
8.90061e-08
8.87507e-08
8.85068e-08
8.82977e-08
8.80966e-08
8.79283e-08
8.77611e-08
8.76209e-08
8.7481e-08
8.73683e-08
8.72498e-08
8.71509e-08
8.70587e-08
8.69815e-08
8.69022e-08
8.68361e-08
8.67625e-08
8.67016e-08
8.66461e-08
8.65975e-08
8.65458e-08
8.6505e-08
8.64558e-08
8.64163e-08
8.63791e-08
8.6346e-08
8.6311e-08
8.62803e-08
8.62545e-08
8.6224e-08
8.6197e-08
8.61761e-08
8.61476e-08
8.61131e-08
8.61009e-08
8.60897e-08
8.60539e-08
8.60509e-08
8.6032e-08
8.60089e-08
8.59761e-08
8.59822e-08
8.59824e-08
8.5982e-08
8.59764e-08
8.6001e-08
8.60006e-08
8.60005e-08
8.60094e-08
8.60216e-08
8.60694e-08
8.60656e-08
8.60572e-08
8.6088e-08
8.61281e-08
8.61592e-08
8.62066e-08
8.62498e-08
8.62762e-08
8.63134e-08
8.63395e-08
8.63943e-08
8.64387e-08
8.65098e-08
8.65682e-08
8.66519e-08
8.6699e-08
8.68077e-08
8.6861e-08
8.70132e-08
8.70839e-08
8.72637e-08
8.73665e-08
8.76637e-08
8.77284e-08
8.87997e-08
2.18631e-06
9.95545e-09
1.22551e-07
1.14643e-07
1.08555e-07
1.04333e-07
1.01282e-07
9.89883e-08
9.71811e-08
9.57391e-08
9.45421e-08
9.35566e-08
9.27082e-08
9.19965e-08
9.13688e-08
9.08318e-08
9.03513e-08
8.99406e-08
8.95637e-08
8.92408e-08
8.89377e-08
8.86786e-08
8.84314e-08
8.82193e-08
8.80154e-08
8.78445e-08
8.76749e-08
8.75325e-08
8.73905e-08
8.72758e-08
8.71556e-08
8.7055e-08
8.69611e-08
8.68824e-08
8.68017e-08
8.67344e-08
8.66596e-08
8.65976e-08
8.65409e-08
8.64914e-08
8.64386e-08
8.63971e-08
8.63471e-08
8.63068e-08
8.62689e-08
8.62351e-08
8.61994e-08
8.61683e-08
8.61419e-08
8.61111e-08
8.60834e-08
8.60624e-08
8.60335e-08
8.59986e-08
8.59857e-08
8.59745e-08
8.59386e-08
8.59352e-08
8.5916e-08
8.58924e-08
8.58589e-08
8.58643e-08
8.58645e-08
8.58641e-08
8.58578e-08
8.58819e-08
8.5881e-08
8.58809e-08
8.589e-08
8.59014e-08
8.59487e-08
8.59461e-08
8.59373e-08
8.5967e-08
8.60067e-08
8.60376e-08
8.60844e-08
8.61278e-08
8.61543e-08
8.61917e-08
8.62175e-08
8.62719e-08
8.6316e-08
8.63868e-08
8.64446e-08
8.65285e-08
8.65753e-08
8.66837e-08
8.67367e-08
8.68879e-08
8.69587e-08
8.71371e-08
8.72393e-08
8.7536e-08
8.75973e-08
8.87016e-08
2.25587e-06
1.09386e-08
1.22595e-07
1.14741e-07
1.08652e-07
1.04412e-07
1.01342e-07
9.903e-08
9.72063e-08
9.575e-08
9.45402e-08
9.35436e-08
9.26853e-08
9.19648e-08
9.13293e-08
9.07854e-08
9.02986e-08
8.98823e-08
8.95002e-08
8.91727e-08
8.88653e-08
8.86024e-08
8.83516e-08
8.81363e-08
8.79293e-08
8.77557e-08
8.75835e-08
8.74388e-08
8.72944e-08
8.71777e-08
8.70556e-08
8.69531e-08
8.68574e-08
8.67772e-08
8.6695e-08
8.66264e-08
8.65503e-08
8.64871e-08
8.64291e-08
8.63786e-08
8.63248e-08
8.62823e-08
8.62315e-08
8.61904e-08
8.61518e-08
8.61173e-08
8.60808e-08
8.60492e-08
8.60222e-08
8.59911e-08
8.59627e-08
8.59414e-08
8.59121e-08
8.58768e-08
8.58633e-08
8.58519e-08
8.5816e-08
8.58121e-08
8.57926e-08
8.57686e-08
8.57343e-08
8.57388e-08
8.5739e-08
8.57386e-08
8.57316e-08
8.57551e-08
8.57537e-08
8.57536e-08
8.5763e-08
8.57737e-08
8.58202e-08
8.58188e-08
8.58098e-08
8.58383e-08
8.58775e-08
8.59082e-08
8.59544e-08
8.59979e-08
8.60245e-08
8.6062e-08
8.60877e-08
8.61417e-08
8.61853e-08
8.62558e-08
8.63131e-08
8.63971e-08
8.64435e-08
8.65517e-08
8.66043e-08
8.67544e-08
8.68254e-08
8.70024e-08
8.71038e-08
8.74001e-08
8.74577e-08
8.85964e-08
2.32726e-06
1.20624e-08
1.22641e-07
1.14844e-07
1.08755e-07
1.04497e-07
1.01406e-07
9.90749e-08
9.72339e-08
9.57623e-08
9.4539e-08
9.35306e-08
9.26617e-08
9.1932e-08
9.12881e-08
9.07368e-08
9.02433e-08
8.98209e-08
8.94333e-08
8.91009e-08
8.87889e-08
8.8522e-08
8.82674e-08
8.80486e-08
8.78384e-08
8.76618e-08
8.74868e-08
8.73396e-08
8.71928e-08
8.70739e-08
8.69497e-08
8.68454e-08
8.67477e-08
8.66658e-08
8.6582e-08
8.65119e-08
8.64345e-08
8.637e-08
8.63107e-08
8.62591e-08
8.62041e-08
8.61607e-08
8.6109e-08
8.60671e-08
8.60276e-08
8.59924e-08
8.5955e-08
8.5923e-08
8.58953e-08
8.58638e-08
8.58347e-08
8.58131e-08
8.57834e-08
8.57476e-08
8.57335e-08
8.57219e-08
8.56859e-08
8.56815e-08
8.56617e-08
8.56372e-08
8.56021e-08
8.56057e-08
8.56059e-08
8.56055e-08
8.55977e-08
8.56206e-08
8.56186e-08
8.56186e-08
8.56282e-08
8.56381e-08
8.5684e-08
8.56838e-08
8.56744e-08
8.57018e-08
8.57404e-08
8.57709e-08
8.58164e-08
8.58601e-08
8.58867e-08
8.59244e-08
8.59498e-08
8.60035e-08
8.60466e-08
8.61167e-08
8.61734e-08
8.62575e-08
8.63036e-08
8.64116e-08
8.64637e-08
8.66127e-08
8.66838e-08
8.68593e-08
8.69599e-08
8.72556e-08
8.73096e-08
8.84836e-08
2.39981e-06
1.33457e-08
1.22688e-07
1.14952e-07
1.08864e-07
1.04588e-07
1.01475e-07
9.91234e-08
9.72641e-08
9.57762e-08
9.45386e-08
9.35176e-08
9.26376e-08
9.1898e-08
9.12452e-08
9.06861e-08
9.01854e-08
8.97566e-08
8.93631e-08
8.90255e-08
8.87087e-08
8.84373e-08
8.81787e-08
8.79563e-08
8.77426e-08
8.75629e-08
8.73849e-08
8.7235e-08
8.70856e-08
8.69644e-08
8.6838e-08
8.67316e-08
8.66319e-08
8.65482e-08
8.64626e-08
8.63911e-08
8.63123e-08
8.62464e-08
8.61856e-08
8.61328e-08
8.60767e-08
8.60322e-08
8.59795e-08
8.59367e-08
8.58962e-08
8.58604e-08
8.5822e-08
8.57895e-08
8.57612e-08
8.57292e-08
8.56993e-08
8.56774e-08
8.56473e-08
8.5611e-08
8.55962e-08
8.55845e-08
8.55483e-08
8.55433e-08
8.55233e-08
8.54982e-08
8.54624e-08
8.54649e-08
8.54652e-08
8.54648e-08
8.54561e-08
8.54784e-08
8.54757e-08
8.54757e-08
8.54856e-08
8.54946e-08
8.55397e-08
8.55408e-08
8.55312e-08
8.55573e-08
8.55953e-08
8.56256e-08
8.56704e-08
8.57142e-08
8.57409e-08
8.57787e-08
8.58039e-08
8.58572e-08
8.58998e-08
8.59695e-08
8.60255e-08
8.61097e-08
8.61555e-08
8.62631e-08
8.63149e-08
8.64625e-08
8.65338e-08
8.67077e-08
8.68075e-08
8.71026e-08
8.71528e-08
8.8363e-08
2.47274e-06
1.48101e-08
1.22737e-07
1.15066e-07
1.0898e-07
1.04684e-07
1.01549e-07
9.91756e-08
9.72969e-08
9.5792e-08
9.45392e-08
9.35049e-08
9.26131e-08
9.1863e-08
9.12008e-08
9.06333e-08
9.0125e-08
8.96894e-08
8.92897e-08
8.89465e-08
8.86245e-08
8.83486e-08
8.80856e-08
8.78593e-08
8.76419e-08
8.74588e-08
8.72777e-08
8.7125e-08
8.69729e-08
8.68492e-08
8.67205e-08
8.66119e-08
8.65099e-08
8.64244e-08
8.63369e-08
8.62638e-08
8.61834e-08
8.61161e-08
8.60538e-08
8.59998e-08
8.59423e-08
8.58968e-08
8.5843e-08
8.57993e-08
8.57578e-08
8.57211e-08
8.56818e-08
8.56486e-08
8.56197e-08
8.55873e-08
8.55565e-08
8.55342e-08
8.55037e-08
8.54668e-08
8.54513e-08
8.54394e-08
8.54031e-08
8.53975e-08
8.53771e-08
8.53516e-08
8.53149e-08
8.53164e-08
8.53166e-08
8.53162e-08
8.53066e-08
8.53283e-08
8.53249e-08
8.53248e-08
8.53351e-08
8.53432e-08
8.53874e-08
8.53898e-08
8.53799e-08
8.54048e-08
8.54422e-08
8.54722e-08
8.55163e-08
8.55601e-08
8.55869e-08
8.56248e-08
8.56498e-08
8.57026e-08
8.57447e-08
8.58139e-08
8.58693e-08
8.59536e-08
8.59989e-08
8.61062e-08
8.61576e-08
8.63039e-08
8.63752e-08
8.65476e-08
8.66464e-08
8.69407e-08
8.69873e-08
8.82341e-08
2.54517e-06
1.64789e-08
1.22787e-07
1.15184e-07
1.09102e-07
1.04787e-07
1.01627e-07
9.92318e-08
9.73327e-08
9.58098e-08
9.4541e-08
9.34927e-08
9.25883e-08
9.18271e-08
9.1155e-08
9.05786e-08
9.00622e-08
8.96195e-08
8.92131e-08
8.8864e-08
8.85366e-08
8.82557e-08
8.79881e-08
8.77578e-08
8.75364e-08
8.73498e-08
8.71653e-08
8.70096e-08
8.68545e-08
8.67282e-08
8.6597e-08
8.64861e-08
8.63818e-08
8.62943e-08
8.62048e-08
8.613e-08
8.6048e-08
8.59791e-08
8.59151e-08
8.58599e-08
8.5801e-08
8.57544e-08
8.56995e-08
8.56547e-08
8.56121e-08
8.55745e-08
8.55342e-08
8.55005e-08
8.54707e-08
8.54378e-08
8.54062e-08
8.53835e-08
8.53525e-08
8.53151e-08
8.52988e-08
8.52866e-08
8.52502e-08
8.5244e-08
8.52232e-08
8.51972e-08
8.51596e-08
8.516e-08
8.51602e-08
8.51598e-08
8.51492e-08
8.51702e-08
8.51661e-08
8.5166e-08
8.51765e-08
8.51838e-08
8.5227e-08
8.52307e-08
8.52205e-08
8.52441e-08
8.52808e-08
8.53106e-08
8.53539e-08
8.53977e-08
8.54245e-08
8.54625e-08
8.54873e-08
8.55397e-08
8.55812e-08
8.565e-08
8.57046e-08
8.5789e-08
8.58339e-08
8.59407e-08
8.59918e-08
8.61366e-08
8.6208e-08
8.63787e-08
8.64766e-08
8.67699e-08
8.68128e-08
8.80966e-08
2.61609e-06
1.83769e-08
1.22838e-07
1.15308e-07
1.0923e-07
1.04895e-07
1.01711e-07
9.9292e-08
9.73716e-08
9.58298e-08
9.45442e-08
9.3481e-08
9.25634e-08
9.17904e-08
9.11078e-08
9.05221e-08
8.99971e-08
8.95468e-08
8.91335e-08
8.87781e-08
8.84449e-08
8.81588e-08
8.78863e-08
8.76516e-08
8.7426e-08
8.72357e-08
8.70477e-08
8.68888e-08
8.67306e-08
8.66014e-08
8.64677e-08
8.63544e-08
8.62476e-08
8.61579e-08
8.60663e-08
8.59897e-08
8.5906e-08
8.58355e-08
8.57697e-08
8.57131e-08
8.56527e-08
8.56049e-08
8.55488e-08
8.55029e-08
8.54591e-08
8.54207e-08
8.53792e-08
8.53448e-08
8.53143e-08
8.52809e-08
8.52483e-08
8.52252e-08
8.51937e-08
8.51557e-08