/*--------------------------------*- C++ -*----------------------------------*\
| =========                 |                                                 |
| \\      /  F ield         | OpenFOAM: The Open Source CFD Toolbox           |
|  \\    /   O peration     | Version:  v2012                                 |
|   \\  /    A nd           | Website:  www.openfoam.com                      |
|    \\/     M anipulation  |                                                 |
\*---------------------------------------------------------------------------*/
FoamFile
{
    version     2.0;
    format      ascii;
    class       volVectorField;
    location    "14";
    object      wallShearStress;
}
// * * * * * * * * * * * * * * * * * * * * * * * * * * * * * * * * * * * * * //

dimensions      [0 2 -2 0 0 0 0];


internalField   uniform (0 0 0);

boundaryField
{
    inlet
    {
        type            calculated;
        value           uniform (0 0 0);
    }
    outlet
    {
        type            calculated;
        value           uniform (0 0 0);
    }
    topWall
    {
        type            calculated;
        value           nonuniform List<vector> 
545
(
(3.48499e-08 -2.45048e-08 0)
(3.491e-08 -6.87505e-08 0)
(3.48232e-08 -1.1465e-07 0)
(3.47377e-08 -1.59146e-07 0)
(3.46634e-08 -2.01692e-07 0)
(3.45808e-08 -2.42837e-07 0)
(3.44898e-08 -2.82938e-07 0)
(3.43894e-08 -3.21977e-07 0)
(3.42805e-08 -3.59866e-07 0)
(3.41636e-08 -3.96603e-07 0)
(3.40398e-08 -4.32234e-07 0)
(3.39095e-08 -4.66802e-07 0)
(3.37735e-08 -5.00332e-07 0)
(3.36325e-08 -5.32843e-07 0)
(3.34869e-08 -5.6436e-07 0)
(3.33374e-08 -5.9491e-07 0)
(3.31845e-08 -6.24521e-07 0)
(3.30287e-08 -6.53216e-07 0)
(3.28704e-08 -6.81023e-07 0)
(3.27101e-08 -7.07965e-07 0)
(3.25481e-08 -7.34067e-07 0)
(3.23848e-08 -7.59354e-07 0)
(3.22206e-08 -7.8385e-07 0)
(3.20557e-08 -8.07579e-07 0)
(3.18905e-08 -8.30563e-07 0)
(3.17252e-08 -8.52825e-07 0)
(3.15601e-08 -8.74387e-07 0)
(3.13953e-08 -8.95272e-07 0)
(3.1231e-08 -9.15499e-07 0)
(3.10676e-08 -9.3509e-07 0)
(3.0905e-08 -9.54064e-07 0)
(3.07435e-08 -9.72442e-07 0)
(3.05833e-08 -9.90241e-07 0)
(3.04243e-08 -1.00748e-06 0)
(3.02668e-08 -1.02418e-06 0)
(3.01108e-08 -1.04035e-06 0)
(2.99565e-08 -1.05602e-06 0)
(2.98038e-08 -1.07119e-06 0)
(2.96529e-08 -1.08589e-06 0)
(2.95038e-08 -1.10013e-06 0)
(2.93566e-08 -1.11393e-06 0)
(2.92112e-08 -1.12729e-06 0)
(2.90678e-08 -1.14024e-06 0)
(2.89264e-08 -1.15279e-06 0)
(2.87869e-08 -1.16494e-06 0)
(2.86495e-08 -1.17672e-06 0)
(2.8514e-08 -1.18813e-06 0)
(2.83806e-08 -1.19919e-06 0)
(2.82491e-08 -1.20991e-06 0)
(2.81197e-08 -1.22029e-06 0)
(2.79922e-08 -1.23036e-06 0)
(2.78667e-08 -1.24012e-06 0)
(2.77432e-08 -1.24957e-06 0)
(2.76216e-08 -1.25874e-06 0)
(2.75019e-08 -1.26763e-06 0)
(2.73841e-08 -1.27624e-06 0)
(2.72682e-08 -1.28459e-06 0)
(2.71541e-08 -1.29269e-06 0)
(2.70418e-08 -1.30054e-06 0)
(2.69313e-08 -1.30816e-06 0)
(2.68225e-08 -1.31554e-06 0)
(2.67154e-08 -1.3227e-06 0)
(2.661e-08 -1.32964e-06 0)
(2.65062e-08 -1.33637e-06 0)
(2.6404e-08 -1.3429e-06 0)
(2.63033e-08 -1.34923e-06 0)
(2.62041e-08 -1.35537e-06 0)
(2.61064e-08 -1.36133e-06 0)
(2.60102e-08 -1.36711e-06 0)
(2.59147e-08 -1.37271e-06 0)
(2.58231e-08 -1.37817e-06 0)
(2.57225e-08 -1.38342e-06 0)
(2.56278e-08 -1.38846e-06 0)
(2.55517e-08 -1.3934e-06 0)
(2.5476e-08 -1.39824e-06 0)
(2.54011e-08 -1.40302e-06 0)
(2.53262e-08 -1.4078e-06 0)
(2.52515e-08 -1.41255e-06 0)
(2.51768e-08 -1.41726e-06 0)
(2.51023e-08 -1.42193e-06 0)
(2.50279e-08 -1.42657e-06 0)
(2.49536e-08 -1.43117e-06 0)
(2.48794e-08 -1.43574e-06 0)
(2.48053e-08 -1.44027e-06 0)
(2.47314e-08 -1.44477e-06 0)
(2.46575e-08 -1.44923e-06 0)
(2.45838e-08 -1.45366e-06 0)
(2.45102e-08 -1.45806e-06 0)
(2.44367e-08 -1.46242e-06 0)
(2.43633e-08 -1.46675e-06 0)
(2.42901e-08 -1.47106e-06 0)
(2.42168e-08 -1.47532e-06 0)
(2.41447e-08 -1.47957e-06 0)
(2.40674e-08 -1.48371e-06 0)
(2.40101e-08 -1.48804e-06 0)
(2.38699e-08 -1.49202e-06 0)
(2.37085e-08 -1.49552e-06 0)
(2.36396e-08 -1.49921e-06 0)
(2.35795e-08 -1.50254e-06 0)
(2.35242e-08 -1.50567e-06 0)
(2.34686e-08 -1.50897e-06 0)
(2.34129e-08 -1.51232e-06 0)
(2.33571e-08 -1.51565e-06 0)
(2.33011e-08 -1.51896e-06 0)
(2.32449e-08 -1.52226e-06 0)
(2.31885e-08 -1.52557e-06 0)
(2.31319e-08 -1.52888e-06 0)
(2.30751e-08 -1.5322e-06 0)
(2.30181e-08 -1.53551e-06 0)
(2.29609e-08 -1.53882e-06 0)
(2.29035e-08 -1.54212e-06 0)
(2.28458e-08 -1.54543e-06 0)
(2.27879e-08 -1.54874e-06 0)
(2.27298e-08 -1.55205e-06 0)
(2.26715e-08 -1.55536e-06 0)
(2.2613e-08 -1.55866e-06 0)
(2.25542e-08 -1.56197e-06 0)
(2.24952e-08 -1.56527e-06 0)
(2.2436e-08 -1.56858e-06 0)
(2.23765e-08 -1.57188e-06 0)
(2.23169e-08 -1.57518e-06 0)
(2.2257e-08 -1.57848e-06 0)
(2.21968e-08 -1.58178e-06 0)
(2.21365e-08 -1.58508e-06 0)
(2.20759e-08 -1.58837e-06 0)
(2.20151e-08 -1.59167e-06 0)
(2.19541e-08 -1.59496e-06 0)
(2.18928e-08 -1.59826e-06 0)
(2.18313e-08 -1.60155e-06 0)
(2.17696e-08 -1.60484e-06 0)
(2.17077e-08 -1.60813e-06 0)
(2.16455e-08 -1.61141e-06 0)
(2.15831e-08 -1.6147e-06 0)
(2.15205e-08 -1.61798e-06 0)
(2.14576e-08 -1.62126e-06 0)
(2.13946e-08 -1.62454e-06 0)
(2.13313e-08 -1.62782e-06 0)
(2.12677e-08 -1.63109e-06 0)
(2.1204e-08 -1.63437e-06 0)
(2.114e-08 -1.63764e-06 0)
(2.10758e-08 -1.64091e-06 0)
(2.10114e-08 -1.64417e-06 0)
(2.09467e-08 -1.64744e-06 0)
(2.08818e-08 -1.6507e-06 0)
(2.08167e-08 -1.65396e-06 0)
(2.07514e-08 -1.65722e-06 0)
(2.06858e-08 -1.66047e-06 0)
(2.062e-08 -1.66372e-06 0)
(2.0554e-08 -1.66697e-06 0)
(2.04878e-08 -1.67022e-06 0)
(2.04213e-08 -1.67346e-06 0)
(2.03546e-08 -1.6767e-06 0)
(2.02877e-08 -1.67994e-06 0)
(2.02205e-08 -1.68317e-06 0)
(2.01532e-08 -1.6864e-06 0)
(2.00856e-08 -1.68963e-06 0)
(2.00177e-08 -1.69286e-06 0)
(1.99497e-08 -1.69608e-06 0)
(1.98814e-08 -1.69929e-06 0)
(1.98129e-08 -1.70251e-06 0)
(1.97442e-08 -1.70572e-06 0)
(1.96753e-08 -1.70893e-06 0)
(1.96061e-08 -1.71213e-06 0)
(1.95367e-08 -1.71533e-06 0)
(1.94671e-08 -1.71853e-06 0)
(1.93973e-08 -1.72172e-06 0)
(1.93272e-08 -1.7249e-06 0)
(1.92569e-08 -1.72809e-06 0)
(1.91864e-08 -1.73127e-06 0)
(1.91157e-08 -1.73444e-06 0)
(1.90447e-08 -1.73761e-06 0)
(1.89736e-08 -1.74078e-06 0)
(1.89022e-08 -1.74394e-06 0)
(1.88306e-08 -1.7471e-06 0)
(1.87587e-08 -1.75025e-06 0)
(1.86867e-08 -1.7534e-06 0)
(1.86144e-08 -1.75655e-06 0)
(1.85419e-08 -1.75969e-06 0)
(1.84692e-08 -1.76282e-06 0)
(1.83963e-08 -1.76595e-06 0)
(1.83232e-08 -1.76907e-06 0)
(1.82498e-08 -1.77219e-06 0)
(1.81762e-08 -1.7753e-06 0)
(1.81025e-08 -1.77841e-06 0)
(1.80285e-08 -1.78152e-06 0)
(1.79542e-08 -1.78461e-06 0)
(1.78798e-08 -1.78771e-06 0)
(1.78052e-08 -1.79079e-06 0)
(1.77303e-08 -1.79387e-06 0)
(1.76552e-08 -1.79695e-06 0)
(1.758e-08 -1.80002e-06 0)
(1.75045e-08 -1.80308e-06 0)
(1.74288e-08 -1.80614e-06 0)
(1.73529e-08 -1.80919e-06 0)
(1.72767e-08 -1.81223e-06 0)
(1.72004e-08 -1.81527e-06 0)
(1.71239e-08 -1.8183e-06 0)
(1.70471e-08 -1.82133e-06 0)
(1.69702e-08 -1.82435e-06 0)
(1.68931e-08 -1.82736e-06 0)
(1.68157e-08 -1.83037e-06 0)
(1.67381e-08 -1.83337e-06 0)
(1.66604e-08 -1.83636e-06 0)
(1.65824e-08 -1.83934e-06 0)
(1.65043e-08 -1.84232e-06 0)
(1.64259e-08 -1.84529e-06 0)
(1.63473e-08 -1.84826e-06 0)
(1.62686e-08 -1.85121e-06 0)
(1.61896e-08 -1.85416e-06 0)
(1.61105e-08 -1.8571e-06 0)
(1.60311e-08 -1.86004e-06 0)
(1.59516e-08 -1.86297e-06 0)
(1.58718e-08 -1.86588e-06 0)
(1.57919e-08 -1.8688e-06 0)
(1.57118e-08 -1.8717e-06 0)
(1.56315e-08 -1.87459e-06 0)
(1.5551e-08 -1.87748e-06 0)
(1.54703e-08 -1.88036e-06 0)
(1.53894e-08 -1.88323e-06 0)
(1.53084e-08 -1.88609e-06 0)
(1.52272e-08 -1.88895e-06 0)
(1.51457e-08 -1.89179e-06 0)
(1.50641e-08 -1.89463e-06 0)
(1.49823e-08 -1.89746e-06 0)
(1.49004e-08 -1.90028e-06 0)
(1.48182e-08 -1.90309e-06 0)
(1.47359e-08 -1.90589e-06 0)
(1.46534e-08 -1.90868e-06 0)
(1.45708e-08 -1.91146e-06 0)
(1.44879e-08 -1.91424e-06 0)
(1.44049e-08 -1.917e-06 0)
(1.43217e-08 -1.91976e-06 0)
(1.42384e-08 -1.9225e-06 0)
(1.41549e-08 -1.92524e-06 0)
(1.40712e-08 -1.92797e-06 0)
(1.39873e-08 -1.93068e-06 0)
(1.39033e-08 -1.93339e-06 0)
(1.38191e-08 -1.93609e-06 0)
(1.37348e-08 -1.93877e-06 0)
(1.36503e-08 -1.94145e-06 0)
(1.35657e-08 -1.94411e-06 0)
(1.34809e-08 -1.94677e-06 0)
(1.33959e-08 -1.94941e-06 0)
(1.33108e-08 -1.95205e-06 0)
(1.32255e-08 -1.95467e-06 0)
(1.31401e-08 -1.95729e-06 0)
(1.30546e-08 -1.95989e-06 0)
(1.29689e-08 -1.96248e-06 0)
(1.2883e-08 -1.96506e-06 0)
(1.2797e-08 -1.96763e-06 0)
(1.27109e-08 -1.97019e-06 0)
(1.26247e-08 -1.97273e-06 0)
(1.25383e-08 -1.97527e-06 0)
(1.24517e-08 -1.97779e-06 0)
(1.23651e-08 -1.9803e-06 0)
(1.22783e-08 -1.98281e-06 0)
(1.21913e-08 -1.98529e-06 0)
(1.21043e-08 -1.98777e-06 0)
(1.20171e-08 -1.99024e-06 0)
(1.19298e-08 -1.99269e-06 0)
(1.18424e-08 -1.99513e-06 0)
(1.17548e-08 -1.99756e-06 0)
(1.16672e-08 -1.99997e-06 0)
(1.15794e-08 -2.00238e-06 0)
(1.14915e-08 -2.00476e-06 0)
(1.14041e-08 -2.00716e-06 0)
(1.13131e-08 -2.00947e-06 0)
(1.12342e-08 -2.01202e-06 0)
(1.11107e-08 -2.01414e-06 0)
(1.09673e-08 -2.01609e-06 0)
(1.08761e-08 -2.01856e-06 0)
(1.08001e-08 -2.02063e-06 0)
(1.07279e-08 -2.02253e-06 0)
(1.0655e-08 -2.02458e-06 0)
(1.05812e-08 -2.02669e-06 0)
(1.05066e-08 -2.02879e-06 0)
(1.04312e-08 -2.03089e-06 0)
(1.03549e-08 -2.03298e-06 0)
(1.02778e-08 -2.03509e-06 0)
(1.01998e-08 -2.03721e-06 0)
(1.01208e-08 -2.03933e-06 0)
(1.0041e-08 -2.04146e-06 0)
(9.96033e-09 -2.04359e-06 0)
(9.87872e-09 -2.04573e-06 0)
(9.7962e-09 -2.04788e-06 0)
(9.71277e-09 -2.05003e-06 0)
(9.62842e-09 -2.05218e-06 0)
(9.54316e-09 -2.05434e-06 0)
(9.45697e-09 -2.05651e-06 0)
(9.36986e-09 -2.05867e-06 0)
(9.28182e-09 -2.06084e-06 0)
(9.19285e-09 -2.06302e-06 0)
(9.10295e-09 -2.06519e-06 0)
(9.01212e-09 -2.06737e-06 0)
(8.92036e-09 -2.06955e-06 0)
(8.82766e-09 -2.07173e-06 0)
(8.73402e-09 -2.07391e-06 0)
(8.63945e-09 -2.07609e-06 0)
(8.54394e-09 -2.07826e-06 0)
(8.44749e-09 -2.08044e-06 0)
(8.35009e-09 -2.08262e-06 0)
(8.25177e-09 -2.0848e-06 0)
(8.1525e-09 -2.08697e-06 0)
(8.05229e-09 -2.08914e-06 0)
(7.95115e-09 -2.0913e-06 0)
(7.84907e-09 -2.09346e-06 0)
(7.74605e-09 -2.09562e-06 0)
(7.6421e-09 -2.09777e-06 0)
(7.53721e-09 -2.09991e-06 0)
(7.43139e-09 -2.10205e-06 0)
(7.32464e-09 -2.10418e-06 0)
(7.21697e-09 -2.1063e-06 0)
(7.10837e-09 -2.10842e-06 0)
(6.99885e-09 -2.11052e-06 0)
(6.88841e-09 -2.11261e-06 0)
(6.77706e-09 -2.11469e-06 0)
(6.6648e-09 -2.11676e-06 0)
(6.55164e-09 -2.11882e-06 0)
(6.43757e-09 -2.12086e-06 0)
(6.32262e-09 -2.12289e-06 0)
(6.20677e-09 -2.12491e-06 0)
(6.09004e-09 -2.12691e-06 0)
(5.97243e-09 -2.12889e-06 0)
(5.85396e-09 -2.13085e-06 0)
(5.73462e-09 -2.13279e-06 0)
(5.61444e-09 -2.13472e-06 0)
(5.4934e-09 -2.13662e-06 0)
(5.37154e-09 -2.13851e-06 0)
(5.24885e-09 -2.14037e-06 0)
(5.12534e-09 -2.14221e-06 0)
(5.00103e-09 -2.14402e-06 0)
(4.87592e-09 -2.1458e-06 0)
(4.75004e-09 -2.14756e-06 0)
(4.62339e-09 -2.1493e-06 0)
(4.49597e-09 -2.151e-06 0)
(4.36782e-09 -2.15267e-06 0)
(4.23894e-09 -2.15432e-06 0)
(4.10935e-09 -2.15593e-06 0)
(3.97906e-09 -2.1575e-06 0)
(3.84809e-09 -2.15905e-06 0)
(3.71646e-09 -2.16055e-06 0)
(3.58418e-09 -2.16202e-06 0)
(3.45127e-09 -2.16345e-06 0)
(3.31776e-09 -2.16484e-06 0)
(3.18365e-09 -2.16619e-06 0)
(3.04898e-09 -2.1675e-06 0)
(2.91376e-09 -2.16877e-06 0)
(2.77802e-09 -2.16999e-06 0)
(2.64177e-09 -2.17116e-06 0)
(2.50505e-09 -2.17229e-06 0)
(2.36786e-09 -2.17337e-06 0)
(2.23026e-09 -2.1744e-06 0)
(2.09224e-09 -2.17537e-06 0)
(1.95386e-09 -2.17629e-06 0)
(1.81512e-09 -2.17716e-06 0)
(1.67606e-09 -2.17798e-06 0)
(1.53671e-09 -2.17873e-06 0)
(1.3971e-09 -2.17943e-06 0)
(1.25726e-09 -2.18006e-06 0)
(1.11722e-09 -2.18064e-06 0)
(9.77015e-10 -2.18115e-06 0)
(8.36678e-10 -2.1816e-06 0)
(6.96242e-10 -2.18197e-06 0)
(5.55743e-10 -2.18229e-06 0)
(4.15217e-10 -2.18253e-06 0)
(2.74701e-10 -2.1827e-06 0)
(1.34232e-10 -2.1828e-06 0)
(-6.15145e-12 -2.18282e-06 0)
(-1.4641e-10 -2.18277e-06 0)
(-2.86503e-10 -2.18264e-06 0)
(-4.26391e-10 -2.18243e-06 0)
(-5.66031e-10 -2.18215e-06 0)
(-7.0538e-10 -2.18177e-06 0)
(-8.44398e-10 -2.18132e-06 0)
(-9.83037e-10 -2.18078e-06 0)
(-1.12126e-09 -2.18016e-06 0)
(-1.25901e-09 -2.17944e-06 0)
(-1.39624e-09 -2.17864e-06 0)
(-1.53292e-09 -2.17774e-06 0)
(-1.66899e-09 -2.17675e-06 0)
(-1.80441e-09 -2.17567e-06 0)
(-1.93912e-09 -2.17449e-06 0)
(-2.07308e-09 -2.17322e-06 0)
(-2.20624e-09 -2.17184e-06 0)
(-2.33855e-09 -2.17037e-06 0)
(-2.46996e-09 -2.16879e-06 0)
(-2.60041e-09 -2.16711e-06 0)
(-2.72986e-09 -2.16533e-06 0)
(-2.85825e-09 -2.16343e-06 0)
(-2.98555e-09 -2.16144e-06 0)
(-3.11168e-09 -2.15933e-06 0)
(-3.23661e-09 -2.15711e-06 0)
(-3.36027e-09 -2.15478e-06 0)
(-3.48262e-09 -2.15234e-06 0)
(-3.6036e-09 -2.14979e-06 0)
(-3.72318e-09 -2.14712e-06 0)
(-3.84128e-09 -2.14433e-06 0)
(-3.95786e-09 -2.14143e-06 0)
(-4.07286e-09 -2.13841e-06 0)
(-4.18625e-09 -2.13527e-06 0)
(-4.29795e-09 -2.13201e-06 0)
(-4.40794e-09 -2.12863e-06 0)
(-4.51613e-09 -2.12512e-06 0)
(-4.62251e-09 -2.1215e-06 0)
(-4.72699e-09 -2.11774e-06 0)
(-4.82955e-09 -2.11387e-06 0)
(-4.93011e-09 -2.10987e-06 0)
(-5.02865e-09 -2.10575e-06 0)
(-5.12509e-09 -2.10149e-06 0)
(-5.2194e-09 -2.09712e-06 0)
(-5.31152e-09 -2.09261e-06 0)
(-5.40141e-09 -2.08798e-06 0)
(-5.48901e-09 -2.08322e-06 0)
(-5.57429e-09 -2.07833e-06 0)
(-5.65717e-09 -2.07332e-06 0)
(-5.73764e-09 -2.06817e-06 0)
(-5.81562e-09 -2.0629e-06 0)
(-5.89109e-09 -2.0575e-06 0)
(-5.96399e-09 -2.05197e-06 0)
(-6.03431e-09 -2.04632e-06 0)
(-6.10196e-09 -2.04053e-06 0)
(-6.16695e-09 -2.03463e-06 0)
(-6.2292e-09 -2.02859e-06 0)
(-6.28873e-09 -2.02244e-06 0)
(-6.34545e-09 -2.01615e-06 0)
(-6.3994e-09 -2.00974e-06 0)
(-6.4505e-09 -2.00321e-06 0)
(-6.49877e-09 -1.99656e-06 0)
(-6.54416e-09 -1.98978e-06 0)
(-6.5867e-09 -1.98289e-06 0)
(-6.62634e-09 -1.97588e-06 0)
(-6.66311e-09 -1.96876e-06 0)
(-6.69696e-09 -1.96151e-06 0)
(-6.72794e-09 -1.95416e-06 0)
(-6.75601e-09 -1.94668e-06 0)
(-6.78122e-09 -1.93911e-06 0)
(-6.80351e-09 -1.93141e-06 0)
(-6.82297e-09 -1.92362e-06 0)
(-6.83952e-09 -1.91572e-06 0)
(-6.85325e-09 -1.90772e-06 0)
(-6.8641e-09 -1.8996e-06 0)
(-6.87213e-09 -1.8914e-06 0)
(-6.87728e-09 -1.8831e-06 0)
(-6.87961e-09 -1.8747e-06 0)
(-6.87903e-09 -1.86621e-06 0)
(-6.87554e-09 -1.85764e-06 0)
(-6.8693e-09 -1.84894e-06 0)
(-6.8597e-09 -1.84027e-06 0)
(-6.85007e-09 -1.83117e-06 0)
(-6.82417e-09 -1.82251e-06 0)
(-6.78615e-09 -1.81282e-06 0)
(-6.75794e-09 -1.80143e-06 0)
(-6.73027e-09 -1.79051e-06 0)
(-6.69927e-09 -1.7798e-06 0)
(-6.6661e-09 -1.76899e-06 0)
(-6.63023e-09 -1.7582e-06 0)
(-6.59164e-09 -1.74747e-06 0)
(-6.55053e-09 -1.73684e-06 0)
(-6.50693e-09 -1.72627e-06 0)
(-6.46106e-09 -1.71578e-06 0)
(-6.41294e-09 -1.70535e-06 0)
(-6.36279e-09 -1.69501e-06 0)
(-6.31065e-09 -1.68475e-06 0)
(-6.25673e-09 -1.67458e-06 0)
(-6.20105e-09 -1.66449e-06 0)
(-6.14382e-09 -1.6545e-06 0)
(-6.08507e-09 -1.6446e-06 0)
(-6.02497e-09 -1.6348e-06 0)
(-5.96355e-09 -1.62509e-06 0)
(-5.90097e-09 -1.61549e-06 0)
(-5.83722e-09 -1.60598e-06 0)
(-5.77249e-09 -1.59659e-06 0)
(-5.70673e-09 -1.58729e-06 0)
(-5.64011e-09 -1.57811e-06 0)
(-5.5726e-09 -1.56903e-06 0)
(-5.50434e-09 -1.56007e-06 0)
(-5.43529e-09 -1.5512e-06 0)
(-5.36559e-09 -1.54247e-06 0)
(-5.2952e-09 -1.53383e-06 0)
(-5.22424e-09 -1.52532e-06 0)
(-5.15266e-09 -1.51691e-06 0)
(-5.08059e-09 -1.50863e-06 0)
(-5.00797e-09 -1.50046e-06 0)
(-4.93492e-09 -1.49242e-06 0)
(-4.8614e-09 -1.48448e-06 0)
(-4.7875e-09 -1.47667e-06 0)
(-4.71318e-09 -1.46898e-06 0)
(-4.63855e-09 -1.46141e-06 0)
(-4.56355e-09 -1.45396e-06 0)
(-4.48829e-09 -1.44663e-06 0)
(-4.4127e-09 -1.43942e-06 0)
(-4.33689e-09 -1.43235e-06 0)
(-4.26081e-09 -1.42538e-06 0)
(-4.18455e-09 -1.41855e-06 0)
(-4.10805e-09 -1.41183e-06 0)
(-4.0314e-09 -1.40525e-06 0)
(-3.95454e-09 -1.39878e-06 0)
(-3.87756e-09 -1.39245e-06 0)
(-3.80041e-09 -1.38623e-06 0)
(-3.72315e-09 -1.38014e-06 0)
(-3.64573e-09 -1.37417e-06 0)
(-3.56822e-09 -1.36834e-06 0)
(-3.49058e-09 -1.36262e-06 0)
(-3.41285e-09 -1.35704e-06 0)
(-3.335e-09 -1.35157e-06 0)
(-3.25707e-09 -1.34624e-06 0)
(-3.17902e-09 -1.34103e-06 0)
(-3.1009e-09 -1.33595e-06 0)
(-3.02267e-09 -1.33099e-06 0)
(-2.94437e-09 -1.32616e-06 0)
(-2.86595e-09 -1.32146e-06 0)
(-2.78747e-09 -1.31689e-06 0)
(-2.70889e-09 -1.31243e-06 0)
(-2.63024e-09 -1.30812e-06 0)
(-2.55148e-09 -1.30392e-06 0)
(-2.47266e-09 -1.29986e-06 0)
(-2.39375e-09 -1.29591e-06 0)
(-2.31476e-09 -1.29211e-06 0)
(-2.23568e-09 -1.28842e-06 0)
(-2.15654e-09 -1.28487e-06 0)
(-2.0773e-09 -1.28144e-06 0)
(-1.99799e-09 -1.27814e-06 0)
(-1.91858e-09 -1.27497e-06 0)
(-1.8391e-09 -1.27193e-06 0)
(-1.75951e-09 -1.26901e-06 0)
(-1.67983e-09 -1.26622e-06 0)
(-1.60002e-09 -1.26356e-06 0)
(-1.5201e-09 -1.26104e-06 0)
(-1.44004e-09 -1.25864e-06 0)
(-1.35982e-09 -1.25637e-06 0)
(-1.27943e-09 -1.25422e-06 0)
(-1.19887e-09 -1.25222e-06 0)
(-1.11815e-09 -1.25033e-06 0)
(-1.0373e-09 -1.24859e-06 0)
(-9.56409e-10 -1.24697e-06 0)
(-8.75647e-10 -1.24549e-06 0)
(-7.95277e-10 -1.24411e-06 0)
(-7.1576e-10 -1.24298e-06 0)
(-6.37543e-10 -1.2416e-06 0)
(-5.61588e-10 -1.24157e-06 0)
(-4.86676e-10 -1.2375e-06 0)
(-4.17167e-10 -1.24683e-06 0)
(-3.31569e-10 -1.20892e-06 0)
(-2.96316e-10 -1.30767e-06 0)
(-1.57418e-10 -1.14174e-06 0)
)
;
    }
    bottomWall
    {
        type            calculated;
        value           nonuniform List<vector> 
449
(
(-53.0443 -0.959597 0)
(-34.9709 -0.00281476 0)
(-34.5806 -0.00025781 0)
(-33.196 -0.000373149 0)
(-32.0238 -0.000327279 0)
(-30.9514 -0.000289172 0)
(-30.0391 -0.000245035 0)
(-29.2662 -0.00021048 0)
(-28.5865 -0.000187365 0)
(-27.9684 -0.000171184 0)
(-27.3972 -0.000158041 0)
(-26.8677 -0.000146169 0)
(-26.3771 -0.000135058 0)
(-25.9232 -0.000124926 0)
(-25.5017 -0.00011578 0)
(-25.1104 -0.000107337 0)
(-24.7466 -9.97349e-05 0)
(-24.4073 -9.28299e-05 0)
(-24.0909 -8.6498e-05 0)
(-23.795 -8.08654e-05 0)
(-23.5173 -7.57313e-05 0)
(-23.2567 -7.10726e-05 0)
(-23.0109 -6.69094e-05 0)
(-22.779 -6.29499e-05 0)
(-22.5605 -5.93638e-05 0)
(-22.3533 -5.62005e-05 0)
(-22.1566 -5.32788e-05 0)
(-21.9695 -5.05723e-05 0)
(-21.7915 -4.80927e-05 0)
(-21.6215 -4.56302e-05 0)
(-21.4606 -4.34055e-05 0)
(-21.3061 -4.14545e-05 0)
(-21.1586 -3.9636e-05 0)
(-21.0167 -3.79366e-05 0)
(-20.881 -3.62957e-05 0)
(-20.7505 -3.47005e-05 0)
(-20.6259 -3.32985e-05 0)
(-20.5051 -3.19723e-05 0)
(-20.3898 -3.0715e-05 0)
(-20.2778 -2.95616e-05 0)
(-20.1705 -2.84962e-05 0)
(-20.0659 -2.75245e-05 0)
(-19.9653 -2.65371e-05 0)
(-19.8676 -2.56031e-05 0)
(-19.7736 -2.47366e-05 0)
(-19.6819 -2.39004e-05 0)
(-19.5938 -2.30782e-05 0)
(-19.5079 -2.23326e-05 0)
(-19.425 -2.1577e-05 0)
(-19.3445 -2.09052e-05 0)
(-19.2663 -2.03077e-05 0)
(-19.1899 -1.97497e-05 0)
(-19.1156 -1.90971e-05 0)
(-19.0439 -1.85509e-05 0)
(-18.9735 -1.80604e-05 0)
(-18.9052 -1.75846e-05 0)
(-18.8381 -1.70971e-05 0)
(-18.7733 -1.66039e-05 0)
(-18.7096 -1.61867e-05 0)
(-18.6478 -1.57607e-05 0)
(-18.5872 -1.53585e-05 0)
(-18.5281 -1.49603e-05 0)
(-18.4704 -1.45402e-05 0)
(-18.4143 -1.41701e-05 0)
(-18.3592 -1.38783e-05 0)
(-18.3052 -1.35776e-05 0)
(-18.2522 -1.32464e-05 0)
(-18.2006 -1.29483e-05 0)
(-18.1496 -1.27052e-05 0)
(-18.0997 -1.23999e-05 0)
(-18.051 -1.20715e-05 0)
(-18.0034 -1.17875e-05 0)
(-17.9568 -1.15913e-05 0)
(-17.9106 -1.13605e-05 0)
(-17.8655 -1.1105e-05 0)
(-17.8212 -1.08839e-05 0)
(-17.7777 -1.06283e-05 0)
(-17.7353 -1.03702e-05 0)
(-17.6937 -1.01071e-05 0)
(-17.6532 -9.91309e-06 0)
(-17.613 -9.76485e-06 0)
(-17.5735 -9.61057e-06 0)
(-17.5344 -9.42452e-06 0)
(-17.4962 -9.20009e-06 0)
(-17.4588 -8.98921e-06 0)
(-17.4222 -8.79103e-06 0)
(-17.3862 -8.69639e-06 0)
(-17.3502 -8.62492e-06 0)
(-17.3146 -8.43589e-06 0)
(-17.28 -8.23815e-06 0)
(-17.246 -8.05209e-06 0)
(-17.2128 -7.86911e-06 0)
(-17.1801 -7.73433e-06 0)
(-17.1479 -7.57537e-06 0)
(-17.1164 -7.43088e-06 0)
(-17.0852 -7.34973e-06 0)
(-17.0542 -7.26611e-06 0)
(-17.0237 -7.12608e-06 0)
(-16.9937 -6.99359e-06 0)
(-16.9641 -6.85951e-06 0)
(-16.9352 -6.75847e-06 0)
(-16.9063 -6.65469e-06 0)
(-16.8782 -6.51947e-06 0)
(-16.8503 -6.40956e-06 0)
(-16.823 -6.34047e-06 0)
(-16.7956 -6.24965e-06 0)
(-16.7689 -6.16732e-06 0)
(-16.7421 -6.12711e-06 0)
(-16.7156 -6.00301e-06 0)
(-16.6898 -5.89666e-06 0)
(-16.6642 -5.74492e-06 0)
(-16.6395 -5.60529e-06 0)
(-16.615 -5.50705e-06 0)
(-16.5911 -5.38151e-06 0)
(-16.5676 -5.30163e-06 0)
(-16.5443 -5.26668e-06 0)
(-16.5209 -5.23512e-06 0)
(-16.4978 -5.14868e-06 0)
(-16.4751 -5.05079e-06 0)
(-16.4528 -5.03562e-06 0)
(-16.4301 -5.00193e-06 0)
(-16.4079 -4.90071e-06 0)
(-16.3861 -4.80559e-06 0)
(-16.3647 -4.70501e-06 0)
(-16.3437 -4.57921e-06 0)
(-16.3233 -4.49502e-06 0)
(-16.3029 -4.44318e-06 0)
(-16.2829 -4.39221e-06 0)
(-16.2629 -4.37498e-06 0)
(-16.243 -4.36507e-06 0)
(-16.223 -4.34468e-06 0)
(-16.2031 -4.28308e-06 0)
(-16.1836 -4.19743e-06 0)
(-16.1645 -4.14089e-06 0)
(-16.1453 -4.08288e-06 0)
(-16.1267 -3.97496e-06 0)
(-16.1085 -3.8836e-06 0)
(-16.0906 -3.81037e-06 0)
(-16.073 -3.73696e-06 0)
(-16.0557 -3.6736e-06 0)
(-16.0386 -3.57938e-06 0)
(-16.0221 -3.56975e-06 0)
(-16.005 -3.56792e-06 0)
(-15.9884 -3.56501e-06 0)
(-15.9713 -3.55319e-06 0)
(-15.9547 -3.55524e-06 0)
(-15.9375 -3.52344e-06 0)
(-15.9212 -3.43707e-06 0)
(-15.9047 -3.39527e-06 0)
(-15.8887 -3.34891e-06 0)
(-15.8725 -3.28732e-06 0)
(-15.8571 -3.2054e-06 0)
(-15.8417 -3.17685e-06 0)
(-15.8264 -3.08146e-06 0)
(-15.8119 -3.015e-06 0)
(-15.7972 -3.00468e-06 0)
(-15.7826 -2.98264e-06 0)
(-15.7681 -2.94335e-06 0)
(-15.7539 -2.93588e-06 0)
(-15.7393 -2.96718e-06 0)
(-15.7247 -2.93214e-06 0)
(-15.7104 -2.90878e-06 0)
(-15.696 -2.86011e-06 0)
(-15.6821 -2.739e-06 0)
(-15.6689 -2.67997e-06 0)
(-15.6555 -2.70649e-06 0)
(-15.6419 -2.69607e-06 0)
(-15.6286 -2.65733e-06 0)
(-15.6153 -2.6652e-06 0)
(-15.6018 -2.65968e-06 0)
(-15.5885 -2.65063e-06 0)
(-15.5751 -2.66483e-06 0)
(-15.5615 -2.66388e-06 0)
(-15.5488 -2.69526e-06 0)
(-15.5364 -2.6639e-06 0)
(-15.5245 -2.57692e-06 0)
(-15.5126 -2.53342e-06 0)
(-15.5009 -2.46459e-06 0)
(-15.4894 -2.42121e-06 0)
(-15.4778 -2.47574e-06 0)
(-15.4656 -2.4624e-06 0)
(-15.4539 -2.42435e-06 0)
(-15.4417 -2.42871e-06 0)
(-15.4297 -2.37163e-06 0)
(-15.4179 -2.29454e-06 0)
(-15.4064 -2.25632e-06 0)
(-15.3947 -2.26294e-06 0)
(-15.3828 -2.29268e-06 0)
(-15.3706 -2.27747e-06 0)
(-15.3587 -2.22588e-06 0)
(-15.3467 -2.16095e-06 0)
(-15.3352 -2.18448e-06 0)
(-15.3227 -2.15415e-06 0)
(-15.3114 -2.06526e-06 0)
(-15.2996 -2.06718e-06 0)
(-15.288 -2.07612e-06 0)
(-15.2758 -2.08094e-06 0)
(-15.2639 -2.05731e-06 0)
(-15.2517 -2.07378e-06 0)
(-15.2393 -2.06508e-06 0)
(-15.227 -2.0514e-06 0)
(-15.2145 -2.04692e-06 0)
(-15.202 -2.03339e-06 0)
(-15.1894 -1.97938e-06 0)
(-15.1773 -1.92129e-06 0)
(-15.1651 -1.84988e-06 0)
(-15.1538 -1.7391e-06 0)
(-15.1428 -1.65449e-06 0)
(-15.1323 -1.62523e-06 0)
(-15.1214 -1.61008e-06 0)
(-15.1108 -1.61326e-06 0)
(-15.0997 -1.63342e-06 0)
(-15.0886 -1.68946e-06 0)
(-15.0764 -1.72687e-06 0)
(-15.0645 -1.69907e-06 0)
(-15.0525 -1.67796e-06 0)
(-15.0406 -1.67704e-06 0)
(-15.0284 -1.68506e-06 0)
(-15.0161 -1.69954e-06 0)
(-15.0034 -1.66159e-06 0)
(-14.9915 -1.62231e-06 0)
(-14.979 -1.60594e-06 0)
(-14.9671 -1.56755e-06 0)
(-14.955 -1.56214e-06 0)
(-14.943 -1.51141e-06 0)
(-14.9314 -1.50904e-06 0)
(-14.9191 -1.53067e-06 0)
(-14.9069 -1.46646e-06 0)
(-14.8954 -1.50193e-06 0)
(-14.8823 -1.50083e-06 0)
(-14.8706 -1.4594e-06 0)
(-14.8579 -1.50181e-06 0)
(-14.8452 -1.44366e-06 0)
(-14.8333 -1.35104e-06 0)
(-14.8219 -1.30601e-06 0)
(-14.8106 -1.27329e-06 0)
(-14.7995 -1.2363e-06 0)
(-14.7886 -1.19238e-06 0)
(-14.7781 -1.21268e-06 0)
(-14.7665 -1.22182e-06 0)
(-14.7555 -1.22443e-06 0)
(-14.7436 -1.27331e-06 0)
(-14.7315 -1.29355e-06 0)
(-14.719 -1.28133e-06 0)
(-14.7068 -1.25675e-06 0)
(-14.6946 -1.2344e-06 0)
(-14.6826 -1.15895e-06 0)
(-14.6716 -1.10743e-06 0)
(-14.6604 -1.11986e-06 0)
(-14.6489 -1.12761e-06 0)
(-14.6373 -1.1379e-06 0)
(-14.6253 -1.10982e-06 0)
(-14.6141 -1.08086e-06 0)
(-14.6024 -1.07827e-06 0)
(-14.591 -1.07548e-06 0)
(-14.5791 -1.0519e-06 0)
(-14.568 -1.00371e-06 0)
(-14.557 -1.00228e-06 0)
(-14.5456 -1.00103e-06 0)
(-14.5344 -9.71693e-07 0)
(-14.5234 -9.69727e-07 0)
(-14.512 -9.52562e-07 0)
(-14.5012 -9.29918e-07 0)
(-14.4901 -9.04323e-07 0)
(-14.4797 -8.98177e-07 0)
(-14.4684 -9.00101e-07 0)
(-14.4578 -8.84453e-07 0)
(-14.4466 -9.03421e-07 0)
(-14.4352 -8.90334e-07 0)
(-14.4242 -8.42871e-07 0)
(-14.4138 -7.98584e-07 0)
(-14.4038 -7.86173e-07 0)
(-14.3934 -8.11311e-07 0)
(-14.3824 -8.35432e-07 0)
(-14.3712 -7.94214e-07 0)
(-14.3611 -7.61325e-07 0)
(-14.3505 -7.61945e-07 0)
(-14.3402 -7.50765e-07 0)
(-14.3297 -7.58723e-07 0)
(-14.3188 -7.69658e-07 0)
(-14.3078 -7.74495e-07 0)
(-14.2966 -7.60642e-07 0)
(-14.2858 -7.23271e-07 0)
(-14.2755 -7.20835e-07 0)
(-14.2645 -7.02306e-07 0)
(-14.2545 -6.74065e-07 0)
(-14.2442 -6.12117e-07 0)
(-14.2359 -5.75843e-07 0)
(-14.2264 -5.98762e-07 0)
(-14.2172 -6.23632e-07 0)
(-14.2067 -6.44874e-07 0)
(-14.1966 -6.19868e-07 0)
(-14.1868 -5.98161e-07 0)
(-14.1772 -6.04501e-07 0)
(-14.1669 -5.83787e-07 0)
(-14.1578 -5.61878e-07 0)
(-14.1479 -5.90002e-07 0)
(-14.1377 -5.79236e-07 0)
(-14.128 -5.93932e-07 0)
(-14.117 -5.99635e-07 0)
(-14.1069 -5.88237e-07 0)
(-14.096 -6.24986e-07 0)
(-14.0844 -5.97996e-07 0)
(-14.0743 -5.27588e-07 0)
(-14.0651 -4.55331e-07 0)
(-14.0576 -4.30593e-07 0)
(-14.049 -4.78106e-07 0)
(-14.0394 -4.87963e-07 0)
(-14.0303 -4.94823e-07 0)
(-14.0202 -5.01289e-07 0)
(-14.0107 -4.74773e-07 0)
(-14.0015 -4.70376e-07 0)
(-13.9919 -4.64103e-07 0)
(-13.9827 -4.24162e-07 0)
(-13.9746 -4.03774e-07 0)
(-13.966 -4.19715e-07 0)
(-13.957 -4.30914e-07 0)
(-13.9478 -4.20594e-07 0)
(-13.9391 -4.04889e-07 0)
(-13.9304 -4.08503e-07 0)
(-13.9213 -4.34269e-07 0)
(-13.9112 -4.26454e-07 0)
(-13.9023 -3.93202e-07 0)
(-13.8936 -3.85223e-07 0)
(-13.8848 -4.02517e-07 0)
(-13.875 -4.16035e-07 0)
(-13.8654 -4.07326e-07 0)
(-13.8558 -3.85637e-07 0)
(-13.8471 -3.66258e-07 0)
(-13.8382 -3.8469e-07 0)
(-13.8283 -3.68677e-07 0)
(-13.8201 -3.30692e-07 0)
(-13.812 -3.47408e-07 0)
(-13.8027 -3.65211e-07 0)
(-13.7934 -3.39404e-07 0)
(-13.7854 -2.83861e-07 0)
(-13.7788 -2.78104e-07 0)
(-13.7708 -3.07824e-07 0)
(-13.7625 -3.11434e-07 0)
(-13.7541 -3.20823e-07 0)
(-13.7451 -3.31843e-07 0)
(-13.736 -3.07193e-07 0)
(-13.7282 -2.78367e-07 0)
(-13.7205 -2.74382e-07 0)
(-13.7127 -2.69162e-07 0)
(-13.7051 -2.7818e-07 0)
(-13.6966 -2.93591e-07 0)
(-13.688 -2.85209e-07 0)
(-13.6798 -2.81715e-07 0)
(-13.6712 -2.86137e-07 0)
(-13.6626 -2.68785e-07 0)
(-13.6548 -2.60046e-07 0)
(-13.6466 -2.53118e-07 0)
(-13.6391 -2.35829e-07 0)
(-13.6309 -2.31114e-07 0)
(-13.622 -2.26913e-07 0)
(-13.6133 -2.28835e-07 0)
(-13.6042 -2.3156e-07 0)
(-13.5953 -2.25633e-07 0)
(-13.5866 -2.27037e-07 0)
(-13.5776 -2.14343e-07 0)
(-13.5699 -2.03112e-07 0)
(-13.5618 -2.18052e-07 0)
(-13.5529 -2.19881e-07 0)
(-13.5446 -1.95773e-07 0)
(-13.5377 -1.79959e-07 0)
(-13.5306 -1.85258e-07 0)
(-13.5232 -1.89003e-07 0)
(-13.5159 -2.04598e-07 0)
(-13.5072 -2.08967e-07 0)
(-13.4996 -1.81173e-07 0)
(-13.4932 -1.73677e-07 0)
(-13.4861 -1.69889e-07 0)
(-13.48 -1.72135e-07 0)
(-13.4727 -1.94133e-07 0)
(-13.4648 -1.91546e-07 0)
(-13.4578 -1.6517e-07 0)
(-13.4521 -1.4901e-07 0)
(-13.4463 -1.47192e-07 0)
(-13.4406 -1.68481e-07 0)
(-13.433 -1.8771e-07 0)
(-13.4259 -1.68168e-07 0)
(-13.42 -1.66489e-07 0)
(-13.413 -1.60437e-07 0)
(-13.4075 -1.22419e-07 0)
(-13.4035 -9.88305e-08 0)
(-13.3998 -1.13455e-07 0)
(-13.3946 -1.32535e-07 0)
(-13.3895 -1.43735e-07 0)
(-13.3834 -1.45192e-07 0)
(-13.3782 -1.45097e-07 0)
(-13.3722 -1.45209e-07 0)
(-13.367 -1.33174e-07 0)
(-13.3618 -1.32681e-07 0)
(-13.3567 -1.34593e-07 0)
(-13.3514 -1.41793e-07 0)
(-13.3456 -1.51935e-07 0)
(-13.3395 -1.48715e-07 0)
(-13.334 -1.47429e-07 0)
(-13.328 -1.45981e-07 0)
(-13.3226 -1.3297e-07 0)
(-13.3177 -1.29265e-07 0)
(-13.3126 -1.24489e-07 0)
(-13.308 -1.09495e-07 0)
(-13.3041 -1.07225e-07 0)
(-13.2996 -1.19817e-07 0)
(-13.2947 -1.12048e-07 0)
(-13.291 -1.05724e-07 0)
(-13.2865 -1.18523e-07 0)
(-13.2817 -1.12884e-07 0)
(-13.2777 -1.11486e-07 0)
(-13.273 -1.13112e-07 0)
(-13.2689 -1.00932e-07 0)
(-13.2652 -9.69896e-08 0)
(-13.2614 -1.0413e-07 0)
(-13.2571 -1.07148e-07 0)
(-13.253 -1.05439e-07 0)
(-13.2489 -1.09925e-07 0)
(-13.2445 -1.16928e-07 0)
(-13.2398 -1.07959e-07 0)
(-13.2361 -8.62259e-08 0)
(-13.2331 -1.0136e-07 0)
(-13.2282 -1.1781e-07 0)
(-13.224 -1.01279e-07 0)
(-13.2204 -9.46096e-08 0)
(-13.2166 -8.93728e-08 0)
(-13.2134 -8.07773e-08 0)
(-13.2103 -8.48809e-08 0)
(-13.2068 -9.02854e-08 0)
(-13.2033 -9.10853e-08 0)
(-13.1997 -9.72635e-08 0)
(-13.1957 -1.00816e-07 0)
(-13.1918 -8.72943e-08 0)
(-13.1889 -7.90892e-08 0)
(-13.1857 -8.63361e-08 0)
(-13.1822 -8.65193e-08 0)
(-13.179 -8.74225e-08 0)
(-13.1753 -9.56137e-08 0)
(-13.1715 -9.03624e-08 0)
(-13.1683 -8.05607e-08 0)
(-13.1652 -8.64321e-08 0)
(-13.1616 -9.22613e-08 0)
(-13.1581 -8.29701e-08 0)
(-13.1552 -8.98859e-08 0)
(-13.1511 -9.33341e-08 0)
(-13.1479 -9.56582e-08 0)
(-13.1436 -6.90246e-08 0)
(-13.1426 -9.65771e-08 0)
(-13.136 -8.63082e-08 0)
)
;
    }
    symmetry
    {
        type            symmetryPlane;
    }
    frontAndBack
    {
        type            empty;
    }
}


// ************************************************************************* //
