/*--------------------------------*- C++ -*----------------------------------*\
| =========                 |                                                 |
| \\      /  F ield         | OpenFOAM: The Open Source CFD Toolbox           |
|  \\    /   O peration     | Version:  v2012                                 |
|   \\  /    A nd           | Website:  www.openfoam.com                      |
|    \\/     M anipulation  |                                                 |
\*---------------------------------------------------------------------------*/
FoamFile
{
    version     2.0;
    format      ascii;
    class       volScalarField;
    location    "14";
    object      yPlus;
}
// * * * * * * * * * * * * * * * * * * * * * * * * * * * * * * * * * * * * * //

dimensions      [0 0 0 0 0 0 0];


internalField   uniform 0;

boundaryField
{
    inlet
    {
        type            calculated;
        value           uniform 0;
    }
    outlet
    {
        type            calculated;
        value           uniform 0;
    }
    topWall
    {
        type            calculated;
        value           nonuniform List<scalar> 
545
(
0.108273
0.187047
0.239978
0.282012
0.317569
0.348653
0.376393
0.401496
0.424445
0.445586
0.46518
0.483427
0.500488
0.516494
0.531551
0.545749
0.559167
0.57187
0.583916
0.595355
0.606231
0.616585
0.626452
0.635864
0.644849
0.653435
0.661644
0.6695
0.677021
0.684227
0.691134
0.697759
0.704116
0.710219
0.716081
0.721713
0.727127
0.732333
0.737341
0.742161
0.746799
0.751266
0.755568
0.759714
0.763709
0.76756
0.771273
0.774854
0.778309
0.781643
0.784861
0.787967
0.790966
0.793862
0.79666
0.799363
0.801974
0.804498
0.806938
0.809296
0.811577
0.813782
0.815915
0.817978
0.819974
0.821906
0.823775
0.825583
0.827334
0.829029
0.83067
0.832259
0.833776
0.835243
0.836695
0.838135
0.839561
0.840974
0.842374
0.843762
0.845136
0.846498
0.847848
0.849185
0.85051
0.851824
0.853125
0.854414
0.855692
0.856958
0.858213
0.859457
0.860689
0.86191
0.86312
0.864321
0.865394
0.866352
0.867308
0.868264
0.869218
0.870172
0.871124
0.872075
0.873025
0.873975
0.874922
0.875869
0.876815
0.87776
0.878703
0.879645
0.880586
0.881526
0.882465
0.883403
0.884339
0.885274
0.886208
0.88714
0.888072
0.889002
0.88993
0.890858
0.891784
0.892709
0.893632
0.894554
0.895475
0.896395
0.897313
0.898229
0.899144
0.900058
0.90097
0.901881
0.902791
0.903699
0.904605
0.90551
0.906414
0.907315
0.908216
0.909115
0.910012
0.910908
0.911802
0.912694
0.913585
0.914474
0.915362
0.916248
0.917132
0.918014
0.918895
0.919774
0.920652
0.921527
0.922401
0.923273
0.924144
0.925012
0.925879
0.926744
0.927607
0.928468
0.929327
0.930185
0.93104
0.931894
0.932745
0.933595
0.934443
0.935289
0.936132
0.936974
0.937814
0.938652
0.939487
0.940321
0.941152
0.941982
0.942809
0.943634
0.944457
0.945278
0.946097
0.946914
0.947728
0.94854
0.94935
0.950157
0.950963
0.951766
0.952566
0.953365
0.954161
0.954955
0.955746
0.956535
0.957322
0.958106
0.958888
0.959667
0.960444
0.961218
0.96199
0.96276
0.963526
0.964291
0.965052
0.965812
0.966568
0.967322
0.968073
0.968822
0.969568
0.970311
0.971052
0.97179
0.972525
0.973258
0.973987
0.974714
0.975438
0.97616
0.976878
0.977594
0.978306
0.979016
0.979723
0.980427
0.981128
0.981827
0.982522
0.983214
0.983903
0.984589
0.985272
0.985952
0.986629
0.987303
0.987974
0.988642
0.989306
0.989968
0.990626
0.991281
0.991933
0.992581
0.993226
0.993868
0.994507
0.995143
0.995775
0.996403
0.997029
0.997651
0.998269
0.998885
0.999496
1.0001
1.00071
1.00131
1.00191
1.0025
1.00309
1.00368
1.00427
1.00481
1.00532
1.00583
1.00635
1.00686
1.00738
1.0079
1.00842
1.00894
1.00946
1.00999
1.01051
1.01104
1.01157
1.0121
1.01263
1.01316
1.0137
1.01423
1.01476
1.0153
1.01584
1.01637
1.01691
1.01744
1.01798
1.01852
1.01905
1.01959
1.02012
1.02066
1.02119
1.02173
1.02226
1.02279
1.02332
1.02385
1.02438
1.0249
1.02543
1.02595
1.02647
1.02699
1.0275
1.02802
1.02853
1.02903
1.02954
1.03004
1.03054
1.03103
1.03152
1.03201
1.03249
1.03296
1.03343
1.0339
1.03436
1.03482
1.03527
1.03572
1.03615
1.03659
1.03701
1.03743
1.03784
1.03825
1.03864
1.03903
1.03941
1.03979
1.04015
1.0405
1.04085
1.04118
1.04151
1.04182
1.04213
1.04242
1.04271
1.04298
1.04324
1.04349
1.04372
1.04394
1.04415
1.04435
1.04453
1.0447
1.04485
1.04499
1.04511
1.04522
1.04531
1.04539
1.04545
1.04549
1.04551
1.04552
1.04551
1.04548
1.04543
1.04536
1.04527
1.04517
1.04504
1.04489
1.04472
1.04453
1.04431
1.04408
1.04382
1.04354
1.04323
1.0429
1.04255
1.04217
1.04177
1.04134
1.04089
1.04041
1.0399
1.03937
1.03881
1.03822
1.03761
1.03696
1.03629
1.03559
1.03486
1.0341
1.03331
1.03249
1.03165
1.03077
1.02986
1.02891
1.02794
1.02694
1.0259
1.02483
1.02373
1.0226
1.02143
1.02024
1.01901
1.01774
1.01644
1.01512
1.01375
1.01236
1.01092
1.00946
1.00796
1.00643
1.00487
1.00327
1.00164
0.999981
0.998284
0.996556
0.994792
0.992999
0.991171
0.989312
0.98742
0.985498
0.983542
0.981557
0.979539
0.977492
0.975413
0.973306
0.971168
0.969002
0.966805
0.964583
0.96233
0.960053
0.957746
0.955415
0.9528
0.949916
0.947031
0.944154
0.941278
0.938412
0.935549
0.932699
0.929855
0.927026
0.924204
0.9214
0.918606
0.91583
0.913067
0.910324
0.907595
0.904888
0.902197
0.899529
0.896878
0.894253
0.891645
0.889064
0.886502
0.883967
0.881454
0.878968
0.876505
0.87407
0.871659
0.869278
0.866921
0.864595
0.862293
0.860024
0.85778
0.855569
0.853385
0.851234
0.84911
0.84702
0.844959
0.842932
0.840934
0.838971
0.837038
0.835141
0.833274
0.831443
0.829643
0.82788
0.826148
0.824454
0.822792
0.821168
0.819576
0.818023
0.816502
0.815021
0.813573
0.812164
0.81079
0.809455
0.808155
0.806895
0.80567
0.804485
0.803336
0.802228
0.801156
0.800125
0.799131
0.798177
0.797262
0.796387
0.79555
0.794755
0.793999
0.793284
0.792608
0.791973
0.791379
0.790826
0.790314
0.789844
0.789414
0.789025
0.788677
0.788368
0.788098
0.787866
0.787666
0.787526
0.787354
)
;
    }
    bottomWall
    {
        type            calculated;
        value           nonuniform List<scalar> 
449
(
0.00275478
0.00482837
0.0054042
0.00535372
0.00527369
0.0051704
0.00507334
0.00498605
0.00490462
0.00482637
0.00475068
0.00467801
0.00460884
0.00454355
0.00448181
0.00442373
0.00436912
0.00431767
0.00426931
0.00422378
0.00418074
0.00414016
0.00410166
0.00406518
0.0040307
0.00399784
0.00396654
0.00393666
0.00390815
0.00388085
0.00385498
0.00383003
0.00380619
0.00378316
0.00376111
0.00373987
0.00371958
0.00369982
0.00368098
0.0036626
0.003645
0.00362777
0.00361122
0.00359509
0.00357957
0.0035644
0.00354983
0.00353558
0.00352184
0.00350847
0.00349547
0.00348275
0.00347037
0.00345842
0.00344664
0.00343524
0.00342398
0.00341314
0.00340246
0.00339208
0.0033819
0.00337198
0.00336226
0.00335285
0.00334354
0.00333443
0.00332546
0.00331673
0.00330809
0.00329962
0.00329136
0.0032833
0.00327538
0.00326751
0.00325986
0.00325231
0.00324492
0.00323769
0.00323063
0.00322373
0.00321687
0.00321011
0.00320341
0.00319689
0.00319049
0.00318424
0.00317808
0.00317188
0.00316577
0.00315983
0.00315399
0.0031483
0.0031427
0.00313717
0.00313178
0.00312643
0.00312109
0.00311582
0.00311067
0.00310557
0.00310059
0.0030956
0.00309075
0.00308593
0.00308121
0.00307645
0.00307184
0.00306716
0.00306258
0.0030581
0.00305365
0.00304942
0.00304518
0.00304109
0.00303704
0.00303303
0.00302899
0.00302499
0.00302107
0.0030172
0.00301324
0.0030094
0.00300559
0.00300188
0.00299824
0.00299475
0.00299122
0.00298777
0.00298429
0.00298083
0.00297732
0.00297385
0.00297043
0.00296709
0.00296373
0.00296048
0.00295732
0.0029542
0.00295116
0.00294817
0.00294524
0.00294241
0.00293944
0.00293657
0.00293356
0.00293067
0.00292762
0.00292477
0.00292187
0.00291908
0.00291625
0.00291357
0.00291088
0.00290823
0.00290572
0.00290317
0.00290065
0.00289811
0.00289565
0.00289308
0.00289051
0.00288801
0.00288547
0.00288306
0.00288077
0.00287845
0.00287607
0.00287376
0.00287144
0.00286908
0.00286675
0.00286437
0.00286198
0.00285973
0.00285751
0.00285542
0.00285333
0.00285127
0.00284926
0.0028472
0.002845
0.00284291
0.00284072
0.00283857
0.00283647
0.00283446
0.00283239
0.0028303
0.0028281
0.00282599
0.00282386
0.00282184
0.00281958
0.00281759
0.0028155
0.00281345
0.00281129
0.00280917
0.002807
0.00280478
0.00280259
0.00280034
0.00279809
0.00279582
0.00279368
0.00279151
0.0027895
0.00278759
0.00278575
0.00278384
0.00278199
0.00278002
0.00277805
0.00277585
0.00277373
0.0027716
0.0027695
0.00276732
0.00276514
0.00276285
0.00276074
0.00275851
0.00275639
0.00275421
0.00275205
0.00275001
0.00274778
0.00274562
0.00274357
0.0027412
0.00273911
0.00273681
0.00273449
0.00273239
0.00273036
0.00272833
0.00272633
0.00272438
0.00272251
0.00272043
0.0027185
0.00271635
0.00271413
0.00271183
0.00270963
0.0027074
0.00270525
0.0027033
0.0027013
0.00269921
0.0026971
0.00269491
0.0026929
0.00269079
0.00268873
0.00268656
0.00268456
0.00268259
0.00268053
0.00267851
0.00267654
0.00267446
0.00267251
0.00267049
0.00266862
0.00266656
0.00266464
0.00266263
0.00266054
0.00265855
0.00265667
0.00265485
0.00265299
0.00265096
0.00264891
0.00264709
0.00264516
0.00264326
0.00264135
0.00263937
0.00263736
0.0026353
0.00263332
0.00263145
0.00262944
0.00262763
0.00262573
0.00262428
0.00262256
0.0026209
0.00261898
0.00261715
0.00261535
0.00261361
0.00261171
0.00261009
0.00260829
0.0026064
0.00260464
0.0026026
0.00260077
0.00259876
0.0025966
0.00259475
0.00259306
0.00259174
0.00259021
0.00258847
0.00258684
0.00258499
0.00258327
0.00258161
0.00257984
0.00257815
0.00257667
0.00257512
0.00257346
0.00257177
0.0025702
0.00256865
0.00256697
0.00256509
0.00256346
0.00256188
0.00256028
0.00255847
0.0025567
0.00255493
0.00255335
0.00255172
0.00254987
0.00254839
0.00254691
0.00254519
0.00254346
0.002542
0.00254087
0.0025394
0.00253786
0.00253631
0.00253462
0.0025329
0.0025315
0.00253009
0.00252866
0.00252728
0.0025257
0.00252407
0.00252259
0.00252097
0.00251937
0.00251795
0.00251641
0.00251503
0.00251352
0.00251186
0.00251029
0.00250861
0.00250701
0.00250543
0.0025038
0.00250246
0.00250099
0.00249933
0.00249781
0.00249656
0.00249527
0.0024939
0.00249253
0.00249089
0.00248949
0.00248834
0.00248702
0.00248589
0.00248451
0.00248302
0.0024817
0.00248064
0.00247961
0.00247856
0.00247714
0.00247579
0.00247468
0.00247337
0.00247236
0.00247163
0.00247099
0.00247001
0.00246906
0.00246792
0.00246694
0.00246579
0.00246482
0.00246388
0.00246293
0.00246195
0.00246088
0.00245973
0.00245869
0.00245755
0.00245652
0.00245559
0.00245461
0.00245377
0.00245306
0.00245224
0.00245132
0.00245064
0.00244982
0.00244892
0.00244819
0.00244729
0.00244652
0.00244583
0.0024451
0.00244427
0.0024435
0.0024427
0.00244185
0.00244095
0.00244028
0.00243975
0.00243882
0.00243802
0.00243734
0.0024366
0.00243601
0.00243545
0.00243479
0.00243414
0.00243348
0.00243271
0.00243199
0.00243146
0.00243087
0.00243019
0.00242959
0.00242889
0.00242815
0.00242757
0.00242699
0.0024263
0.00242564
0.00242509
0.00242432
0.0024237
0.00242296
0.00242263
0.00242148
)
;
    }
    symmetry
    {
        type            symmetryPlane;
    }
    frontAndBack
    {
        type            empty;
    }
}


// ************************************************************************* //
