/*--------------------------------*- C++ -*----------------------------------*\
| =========                 |                                                 |
| \\      /  F ield         | OpenFOAM: The Open Source CFD Toolbox           |
|  \\    /   O peration     | Version:  v2012                                 |
|   \\  /    A nd           | Website:  www.openfoam.com                      |
|    \\/     M anipulation  |                                                 |
\*---------------------------------------------------------------------------*/
FoamFile
{
    version     2.0;
    format      ascii;
    class       volScalarField;
    location    "23.5";
    object      k;
}
// * * * * * * * * * * * * * * * * * * * * * * * * * * * * * * * * * * * * * //

dimensions      [0 2 -2 0 0 0 0];


internalField   nonuniform List<scalar> 
209825
(
0.00102097
0.000931726
0.000871694
0.000831795
0.000804379
0.000784728
0.000770091
0.000758852
0.000750007
0.00074291
0.000737121
0.000732335
0.000728332
0.00072495
0.000722066
0.000719591
0.000717448
0.000715584
0.000713946
0.000712515
0.000711243
0.000710121
0.000709109
0.000708221
0.000707412
0.000706692
0.000706027
0.000705448
0.000704906
0.000704434
0.000703977
0.000703598
0.000703228
0.000702898
0.000702579
0.00070232
0.000702065
0.000701849
0.000701627
0.000701462
0.000701284
0.000701131
0.000700973
0.000700877
0.000700729
0.00070061
0.000700517
0.000700455
0.000700398
0.000700356
0.000700271
0.000700217
0.000700185
0.00070015
0.000700056
0.000700054
0.000700048
0.000700019
0.000700094
0.000700094
0.000700093
0.000700179
0.000700233
0.000700355
0.000700458
0.000700615
0.000700713
0.000700874
0.000700953
0.000701087
0.00070118
0.000701364
0.000701478
0.00070167
0.000701785
0.000702003
0.00070212
0.000702357
0.000702487
0.000702762
0.000702908
0.000703206
0.000703366
0.0007037
0.000703884
0.000704272
0.00070449
0.000704953
0.000705204
0.000705778
0.00070604
0.000706943
0.000707217
0.00071808
0.000762348
0.00195221
0.00102097
0.000931725
0.000871691
0.000831788
0.000804369
0.000784716
0.000770077
0.000758836
0.00074999
0.000742892
0.000737102
0.000732316
0.000728312
0.00072493
0.000722044
0.000719569
0.000717426
0.000715561
0.000713923
0.000712492
0.00071122
0.000710098
0.000709085
0.000708197
0.000707388
0.000706668
0.000706003
0.000705424
0.000704882
0.000704409
0.000703952
0.000703574
0.000703203
0.000702873
0.000702554
0.000702295
0.00070204
0.000701824
0.000701602
0.000701437
0.000701259
0.000701106
0.000700947
0.000700851
0.000700703
0.000700584
0.000700492
0.000700429
0.000700372
0.00070033
0.000700245
0.000700191
0.000700159
0.000700124
0.000700031
0.000700028
0.000700023
0.000699994
0.000700069
0.000700069
0.000700067
0.000700153
0.000700208
0.000700329
0.000700432
0.000700589
0.000700687
0.000700848
0.000700927
0.000701062
0.000701154
0.000701338
0.000701452
0.000701645
0.00070176
0.000701977
0.000702094
0.000702331
0.000702461
0.000702736
0.000702882
0.00070318
0.00070334
0.000703674
0.000703858
0.000704246
0.000704464
0.000704927
0.000705178
0.000705752
0.000706014
0.000706917
0.000707191
0.000718075
0.000762338
0.00195338
0.00102097
0.000931721
0.000871673
0.000831757
0.000804327
0.000784664
0.000770018
0.000758771
0.000749921
0.000742818
0.000737025
0.000732236
0.00072823
0.000724845
0.000721959
0.000719482
0.000717337
0.000715471
0.000713832
0.0007124
0.000711127
0.000710004
0.000708991
0.000708102
0.000707292
0.000706572
0.000705907
0.000705327
0.000704784
0.000704312
0.000703854
0.000703475
0.000703105
0.000702775
0.000702455
0.000702196
0.000701941
0.000701725
0.000701502
0.000701337
0.000701159
0.000701005
0.000700847
0.000700751
0.000700603
0.000700484
0.000700391
0.000700328
0.000700271
0.000700229
0.000700144
0.00070009
0.000700058
0.000700023
0.00069993
0.000699927
0.000699921
0.000699892
0.000699967
0.000699967
0.000699965
0.000700051
0.000700105
0.000700227
0.00070033
0.000700487
0.000700584
0.000700745
0.000700824
0.000700959
0.000701051
0.000701235
0.00070135
0.000701542
0.000701657
0.000701874
0.000701991
0.000702228
0.000702358
0.000702633
0.000702779
0.000703077
0.000703237
0.000703571
0.000703755
0.000704143
0.00070436
0.000704823
0.000705074
0.000705647
0.000705909
0.000706813
0.000707086
0.000718012
0.00076226
0.00195569
0.00102098
0.000931714
0.000871643
0.000831704
0.000804254
0.000784577
0.000769918
0.000758661
0.000749803
0.000742694
0.000736896
0.000732101
0.000728091
0.000724704
0.000721814
0.000719335
0.000717188
0.00071532
0.000713679
0.000712246
0.000710971
0.000709847
0.000708833
0.000707943
0.000707132
0.000706411
0.000705745
0.000705164
0.000704621
0.000704148
0.00070369
0.000703311
0.00070294
0.000702609
0.000702289
0.000702029
0.000701774
0.000701558
0.000701335
0.000701169
0.000700991
0.000700837
0.000700679
0.000700582
0.000700434
0.000700315
0.000700222
0.000700159
0.000700102
0.00070006
0.000699975
0.00069992
0.000699888
0.000699853
0.00069976
0.000699757
0.000699751
0.000699721
0.000699796
0.000699796
0.000699794
0.00069988
0.000699934
0.000700055
0.000700158
0.000700315
0.000700413
0.000700574
0.000700652
0.000700787
0.000700879
0.000701063
0.000701177
0.000701369
0.000701484
0.000701702
0.000701818
0.000702055
0.000702185
0.00070246
0.000702606
0.000702904
0.000703063
0.000703397
0.000703581
0.000703969
0.000704186
0.000704648
0.000704899
0.000705472
0.000705734
0.000706637
0.000706909
0.000717902
0.000762121
0.00195838
0.00102098
0.000931704
0.000871601
0.000831629
0.000804152
0.000784453
0.000769777
0.000758507
0.000749637
0.000742519
0.000736713
0.000731912
0.000727897
0.000724504
0.00072161
0.000719128
0.000716978
0.000715107
0.000713464
0.000712028
0.000710751
0.000709626
0.00070861
0.000707718
0.000706906
0.000706184
0.000705517
0.000704935
0.000704391
0.000703918
0.000703459
0.000703078
0.000702707
0.000702376
0.000702055
0.000701795
0.000701539
0.000701322
0.000701099
0.000700933
0.000700754
0.0007006
0.000700441
0.000700345
0.000700196
0.000700077
0.000699983
0.000699921
0.000699863
0.000699821
0.000699736
0.000699681
0.000699649
0.000699613
0.00069952
0.000699517
0.000699511
0.000699481
0.000699555
0.000699555
0.000699553
0.000699639
0.000699693
0.000699814
0.000699916
0.000700073
0.00070017
0.000700331
0.00070041
0.000700545
0.000700636
0.00070082
0.000700934
0.000701126
0.000701241
0.000701459
0.000701575
0.000701812
0.000701941
0.000702216
0.000702362
0.000702659
0.000702819
0.000703152
0.000703336
0.000703723
0.00070394
0.000704402
0.000704653
0.000705226
0.000705487
0.00070639
0.00070666
0.000717744
0.000761919
0.00196143
0.00102099
0.00093169
0.000871546
0.000831532
0.00080402
0.000784292
0.000769594
0.000758306
0.000749422
0.000742292
0.000736476
0.000731667
0.000727644
0.000724246
0.000721346
0.000718859
0.000716705
0.000714831
0.000713184
0.000711746
0.000710466
0.000709339
0.000708321
0.000707427
0.000706614
0.00070589
0.000705221
0.000704639
0.000704093
0.000703619
0.000703159
0.000702777
0.000702405
0.000702073
0.000701751
0.000701491
0.000701234
0.000701017
0.000700793
0.000700627
0.000700447
0.000700293
0.000700134
0.000700036
0.000699888
0.000699768
0.000699674
0.000699611
0.000699553
0.000699511
0.000699426
0.000699371
0.000699338
0.000699303
0.00069921
0.000699206
0.0006992
0.000699169
0.000699243
0.000699243
0.000699241
0.000699326
0.00069938
0.0006995
0.000699603
0.000699759
0.000699856
0.000700017
0.000700096
0.00070023
0.000700322
0.000700505
0.000700619
0.000700811
0.000700926
0.000701143
0.000701259
0.000701496
0.000701625
0.000701899
0.000702045
0.000702342
0.000702502
0.000702835
0.000703018
0.000703405
0.000703622
0.000704083
0.000704334
0.000704906
0.000705166
0.000706069
0.000706338
0.00071754
0.000761656
0.00196477
0.001021
0.000931674
0.000871478
0.000831413
0.000803858
0.000784095
0.000769369
0.000758059
0.000749157
0.000742012
0.000736184
0.000731365
0.000727333
0.000723927
0.000721021
0.000718528
0.000716369
0.00071449
0.00071284
0.000711398
0.000710115
0.000708985
0.000707964
0.000707069
0.000706253
0.000705527
0.000704857
0.000704273
0.000703726
0.00070325
0.000702789
0.000702406
0.000702033
0.0007017
0.000701377
0.000701116
0.000700859
0.000700641
0.000700416
0.000700249
0.000700069
0.000699914
0.000699754
0.000699657
0.000699508
0.000699388
0.000699293
0.00069923
0.000699171
0.000699129
0.000699043
0.000698988
0.000698955
0.00069892
0.000698827
0.000698823
0.000698816
0.000698785
0.000698858
0.000698858
0.000698856
0.000698941
0.000698994
0.000699114
0.000699216
0.000699372
0.000699469
0.00069963
0.000699708
0.000699843
0.000699934
0.000700117
0.000700231
0.000700423
0.000700537
0.000700754
0.00070087
0.000701106
0.000701235
0.000701509
0.000701655
0.000701952
0.000702111
0.000702444
0.000702627
0.000703013
0.00070323
0.00070369
0.00070394
0.000704511
0.000704771
0.000705673
0.00070594
0.000717289
0.00076133
0.00196825
0.00102101
0.000931655
0.000871398
0.000831271
0.000803664
0.00078386
0.000769102
0.000757765
0.000748842
0.000741679
0.000735836
0.000731004
0.000726962
0.000723547
0.000720633
0.000718134
0.000715968
0.000714084
0.000712429
0.000710983
0.000709697
0.000708563
0.000707539
0.000706641
0.000705823
0.000705095
0.000704422
0.000703836
0.000703288
0.00070281
0.000702348
0.000701964
0.000701589
0.000701255
0.000700931
0.000700669
0.000700411
0.000700192
0.000699966
0.000699799
0.000699618
0.000699463
0.000699302
0.000699204
0.000699055
0.000698934
0.000698839
0.000698775
0.000698716
0.000698673
0.000698587
0.000698532
0.000698499
0.000698463
0.000698371
0.000698366
0.000698359
0.000698327
0.000698398
0.000698398
0.000698396
0.000698481
0.000698533
0.000698653
0.000698755
0.000698911
0.000699008
0.000699168
0.000699246
0.00069938
0.000699471
0.000699654
0.000699768
0.000699959
0.000700073
0.00070029
0.000700406
0.000700642
0.000700771
0.000701044
0.000701189
0.000701486
0.000701645
0.000701977
0.00070216
0.000702545
0.000702761
0.000703221
0.00070347
0.00070404
0.000704299
0.000705202
0.000705466
0.000716992
0.000760941
0.00197164
0.00102103
0.000931633
0.000871306
0.000831107
0.00080344
0.000783588
0.000768791
0.000757424
0.000748475
0.000741292
0.000735432
0.000730585
0.000726531
0.000723105
0.000720182
0.000717674
0.000715502
0.000713612
0.000711951
0.0007105
0.00070921
0.000708072
0.000707044
0.000706143
0.000705322
0.000704591
0.000703917
0.000703328
0.000702778
0.000702298
0.000701834
0.000701448
0.000701072
0.000700737
0.000700412
0.000700148
0.000699889
0.000699669
0.000699443
0.000699274
0.000699093
0.000698937
0.000698775
0.000698676
0.000698527
0.000698406
0.00069831
0.000698245
0.000698186
0.000698142
0.000698056
0.000698
0.000697967
0.000697931
0.000697839
0.000697834
0.000697826
0.000697793
0.000697864
0.000697864
0.000697861
0.000697946
0.000697997
0.000698116
0.000698218
0.000698373
0.00069847
0.00069863
0.000698708
0.000698842
0.000698932
0.000699114
0.000699228
0.000699419
0.000699533
0.000699749
0.000699865
0.000700101
0.000700229
0.000700502
0.000700647
0.000700943
0.000701102
0.000701433
0.000701616
0.000702
0.000702216
0.000702675
0.000702923
0.000703492
0.00070375
0.000704652
0.000704914
0.000716649
0.000760489
0.00197458
0.00102104
0.000931608
0.0008712
0.00083092
0.000803184
0.000783277
0.000768436
0.000757033
0.000748056
0.000740849
0.000734969
0.000730106
0.000726038
0.000722599
0.000719666
0.000717149
0.000714969
0.000713072
0.000711405
0.000709948
0.000708652
0.00070751
0.000706479
0.000705573
0.000704749
0.000704016
0.000703338
0.000702747
0.000702194
0.000701713
0.000701246
0.000700859
0.000700481
0.000700145
0.000699818
0.000699553
0.000699292
0.000699072
0.000698844
0.000698674
0.000698492
0.000698335
0.000698173
0.000698073
0.000697923
0.000697801
0.000697705
0.000697639
0.000697579
0.000697535
0.000697449
0.000697393
0.000697358
0.000697322
0.000697231
0.000697224
0.000697216
0.000697182
0.000697252
0.000697252
0.000697249
0.000697333
0.000697383
0.000697502
0.000697603
0.000697758
0.000697854
0.000698015
0.000698092
0.000698226
0.000698316
0.000698497
0.000698611
0.000698802
0.000698915
0.000699131
0.000699246
0.000699481
0.00069961
0.000699881
0.000700026
0.000700322
0.00070048
0.000700811
0.000700993
0.000701377
0.000701592
0.000702049
0.000702297
0.000702865
0.000703121
0.000704023
0.000704283
0.000716259
0.000759974
0.00197657
0.00102106
0.000931581
0.000871082
0.00083071
0.000802896
0.000782927
0.000768036
0.000756594
0.000747585
0.00074035
0.000734449
0.000729566
0.000725482
0.00072203
0.000719085
0.000716557
0.000714368
0.000712462
0.000710788
0.000709325
0.000708024
0.000706877
0.000705841
0.000704931
0.000704103
0.000703366
0.000702685
0.000702092
0.000701536
0.000701052
0.000700583
0.000700194
0.000699814
0.000699476
0.000699148
0.000698881
0.000698619
0.000698397
0.000698168
0.000697997
0.000697814
0.000697656
0.000697493
0.000697392
0.000697242
0.000697119
0.000697022
0.000696955
0.000696894
0.00069685
0.000696764
0.000696707
0.000696672
0.000696636
0.000696545
0.000696537
0.000696528
0.000696493
0.000696561
0.000696561
0.000696558
0.000696642
0.000696691
0.00069681
0.00069691
0.000697064
0.00069716
0.000697321
0.000697397
0.000697531
0.00069762
0.000697801
0.000697914
0.000698105
0.000698218
0.000698433
0.000698548
0.000698783
0.000698911
0.000699182
0.000699326
0.000699621
0.000699779
0.000700109
0.000700291
0.000700673
0.000700888
0.000701344
0.000701591
0.000702157
0.000702412
0.000703314
0.000703571
0.000715823
0.000759394
0.00197691
0.00102108
0.000931551
0.000870952
0.000830477
0.000802577
0.000782538
0.000767592
0.000756105
0.000747059
0.000739795
0.000733868
0.000728965
0.000724862
0.000721395
0.000718436
0.000715897
0.000713697
0.000711783
0.000710101
0.000708631
0.000707323
0.00070617
0.000705129
0.000704215
0.000703382
0.000702642
0.000701957
0.00070136
0.000700802
0.000700315
0.000699844
0.000699452
0.00069907
0.00069873
0.0006984
0.000698132
0.000697868
0.000697645
0.000697414
0.000697242
0.000697057
0.000696899
0.000696734
0.000696632
0.000696481
0.000696358
0.000696259
0.000696192
0.00069613
0.000696086
0.000695999
0.000695941
0.000695906
0.000695869
0.000695779
0.00069577
0.000695761
0.000695724
0.000695791
0.000695791
0.000695787
0.000695871
0.000695919
0.000696037
0.000696136
0.000696289
0.000696386
0.000696546
0.000696622
0.000696755
0.000696844
0.000697024
0.000697137
0.000697327
0.00069744
0.000697655
0.000697769
0.000698003
0.000698131
0.000698401
0.000698545
0.000698839
0.000698997
0.000699326
0.000699507
0.000699888
0.000700102
0.000700557
0.000700803
0.000701368
0.000701621
0.000702523
0.000702776
0.000715342
0.000758749
0.00197489
0.0010211
0.000931518
0.000870809
0.000830221
0.000802225
0.000782109
0.000767102
0.000755565
0.00074648
0.000739182
0.000733228
0.000728301
0.000724178
0.000720694
0.00071772
0.000715168
0.000712957
0.000711033
0.000709342
0.000707863
0.000706549
0.000705389
0.000704342
0.000703423
0.000702586
0.000701841
0.000701153
0.000700552
0.00069999
0.000699501
0.000699027
0.000698632
0.000698248
0.000697906
0.000697574
0.000697303
0.000697038
0.000696813
0.000696581
0.000696407
0.000696221
0.000696062
0.000695896
0.000695793
0.000695641
0.000695517
0.000695417
0.000695349
0.000695286
0.000695241
0.000695154
0.000695095
0.000695059
0.000695022
0.000694932
0.000694923
0.000694912
0.000694874
0.00069494
0.00069494
0.000694935
0.000695018
0.000695065
0.000695182
0.00069528
0.000695433
0.000695529
0.000695689
0.000695765
0.000695898
0.000695985
0.000696165
0.000696277
0.000696467
0.000696579
0.000696794
0.000696908
0.000697141
0.000697268
0.000697537
0.000697681
0.000697975
0.000698132
0.00069846
0.00069864
0.00069902
0.000699233
0.000699686
0.000699932
0.000700495
0.000700746
0.000701648
0.000701898
0.000714813
0.000758038
0.00197048
0.00102112
0.000931483
0.000870654
0.000829943
0.000801841
0.000781641
0.000766566
0.000754975
0.000745845
0.000738511
0.000732526
0.000727573
0.000723429
0.000719925
0.000716935
0.000714369
0.000712145
0.00071021
0.000708509
0.000707022
0.0007057
0.000704533
0.00070348
0.000702555
0.000701712
0.000700963
0.00070027
0.000699666
0.0006991
0.000698607
0.00069813
0.000697733
0.000697346
0.000697002
0.000696667
0.000696394
0.000696127
0.0006959
0.000695666
0.000695491
0.000695304
0.000695143
0.000694976
0.000694871
0.000694719
0.000694594
0.000694493
0.000694423
0.000694359
0.000694314
0.000694226
0.000694167
0.00069413
0.000694093
0.000694003
0.000693992
0.000693981
0.000693941
0.000694005
0.000694005
0.000694001
0.000694083
0.000694128
0.000694244
0.000694342
0.000694494
0.000694589
0.000694749
0.000694824
0.000694957
0.000695044
0.000695222
0.000695334
0.000695524
0.000695635
0.000695849
0.000695963
0.000696195
0.000696322
0.00069659
0.000696734
0.000697026
0.000697183
0.000697509
0.000697689
0.000698068
0.00069828
0.000698731
0.000698976
0.000699537
0.000699787
0.000700688
0.000700934
0.000714238
0.000757261
0.00196373
0.00102115
0.000931446
0.000870487
0.000829641
0.000801425
0.000781132
0.000765984
0.000754333
0.000745155
0.000737781
0.000731762
0.000726781
0.000722613
0.000719088
0.000716081
0.000713498
0.000711261
0.000709314
0.000707602
0.000706106
0.000704775
0.0007036
0.00070254
0.000701609
0.000700761
0.000700006
0.000699309
0.0006987
0.00069813
0.000697634
0.000697153
0.000696753
0.000696363
0.000696016
0.000695679
0.000695404
0.000695134
0.000694906
0.00069467
0.000694493
0.000694304
0.000694142
0.000693973
0.000693867
0.000693714
0.000693588
0.000693485
0.000693415
0.000693349
0.000693303
0.000693215
0.000693155
0.000693117
0.00069308
0.00069299
0.000692978
0.000692966
0.000692925
0.000692987
0.000692987
0.000692982
0.000693063
0.000693106
0.000693222
0.000693318
0.00069347
0.000693565
0.000693725
0.000693799
0.000693931
0.000694017
0.000694195
0.000694306
0.000694495
0.000694606
0.000694819
0.000694933
0.000695164
0.00069529
0.000695557
0.0006957
0.000695992
0.000696148
0.000696473
0.000696653
0.00069703
0.000697241
0.00069769
0.000697934
0.000698492
0.00069874
0.000699641
0.000699885
0.000713616
0.000756416
0.00195468
0.00102117
0.000931407
0.000870307
0.000829316
0.000800977
0.000780583
0.000765355
0.00075364
0.000744409
0.000736991
0.000730936
0.000725924
0.00072173
0.000718183
0.000715155
0.000712556
0.000710304
0.000708343
0.00070662
0.000705113
0.000703772
0.00070259
0.000701522
0.000700584
0.00069973
0.000698969
0.000698267
0.000697653
0.000697079
0.000696579
0.000696095
0.00069569
0.000695298
0.000694948
0.000694608
0.000694331
0.000694059
0.000693828
0.00069359
0.000693411
0.00069322
0.000693057
0.000692886
0.000692779
0.000692625
0.000692497
0.000692393
0.000692322
0.000692255
0.000692208
0.000692119
0.000692059
0.000692019
0.000691981
0.000691892
0.000691879
0.000691866
0.000691823
0.000691883
0.000691883
0.000691877
0.000691958
0.000691999
0.000692114
0.000692209
0.000692359
0.000692454
0.000692614
0.000692687
0.000692819
0.000692904
0.000693081
0.000693192
0.00069338
0.00069349
0.000693703
0.000693816
0.000694047
0.000694172
0.000694437
0.00069458
0.000694871
0.000695026
0.00069535
0.000695529
0.000695904
0.000696114
0.000696562
0.000696804
0.00069736
0.000697606
0.000698506
0.000698747
0.000712945
0.0007555
0.00194337
0.0010212
0.000931365
0.000870116
0.000828969
0.000800496
0.000779994
0.000764679
0.000752894
0.000743606
0.000736141
0.000730047
0.000725001
0.000720778
0.000717207
0.000714158
0.000711541
0.000709272
0.000707297
0.000705561
0.000704043
0.000702692
0.0007015
0.000700425
0.000699479
0.000698618
0.000697851
0.000697143
0.000696524
0.000695946
0.000695441
0.000694953
0.000694545
0.000694149
0.000693796
0.000693454
0.000693173
0.000692898
0.000692665
0.000692425
0.000692244
0.000692051
0.000691886
0.000691714
0.000691605
0.00069145
0.000691321
0.000691215
0.000691142
0.000691074
0.000691026
0.000690937
0.000690875
0.000690834
0.000690797
0.000690708
0.000690693
0.000690679
0.000690634
0.000690692
0.000690692
0.000690685
0.000690765
0.000690805
0.000690918
0.000691013
0.000691162
0.000691256
0.000691415
0.000691488
0.000691619
0.000691703
0.000691879
0.000691989
0.000692177
0.000692287
0.000692498
0.000692611
0.000692841
0.000692965
0.000693229
0.000693372
0.000693661
0.000693816
0.000694139
0.000694316
0.00069469
0.000694899
0.000695344
0.000695585
0.000696139
0.000696382
0.000697283
0.00069752
0.000712225
0.000754514
0.00192986
0.00102123
0.000931322
0.000869913
0.000828598
0.000799982
0.000779364
0.000763956
0.000752096
0.000742746
0.00073523
0.000729093
0.000724012
0.000719758
0.00071616
0.000713089
0.000710451
0.000708165
0.000706175
0.000704425
0.000702894
0.000701533
0.000700331
0.000699246
0.000698292
0.000697424
0.000696651
0.000695937
0.000695313
0.000694729
0.000694219
0.000693727
0.000693315
0.000692915
0.000692559
0.000692213
0.00069193
0.000691652
0.000691417
0.000691174
0.00069099
0.000690796
0.000690629
0.000690454
0.000690344
0.000690188
0.000690058
0.00068995
0.000689876
0.000689805
0.000689757
0.000689667
0.000689605
0.000689562
0.000689524
0.000689435
0.000689419
0.000689404
0.000689358
0.000689413
0.000689413
0.000689405
0.000689484
0.000689522
0.000689634
0.000689727
0.000689875
0.000689969
0.000690128
0.0006902
0.00069033
0.000690413
0.000690588
0.000690698
0.000690885
0.000690994
0.000691204
0.000691316
0.000691545
0.000691669
0.000691932
0.000692073
0.000692361
0.000692516
0.000692837
0.000693014
0.000693385
0.000693593
0.000694036
0.000694275
0.000694827
0.000695068
0.000695968
0.000696202
0.000711455
0.000753453
0.00191422
0.00102127
0.000931277
0.000869698
0.000828206
0.000799436
0.000778693
0.000763186
0.000751244
0.000741828
0.000734258
0.000728075
0.000722955
0.000718668
0.000715042
0.000711946
0.000709287
0.000706982
0.000704975
0.00070321
0.000701666
0.000700293
0.000699081
0.000697986
0.000697024
0.000696148
0.000695368
0.000694647
0.000694016
0.000693427
0.000692913
0.000692416
0.000691999
0.000691595
0.000691236
0.000690887
0.0006906
0.000690319
0.000690081
0.000689836
0.000689649
0.000689452
0.000689284
0.000689107
0.000688995
0.000688838
0.000688706
0.000688596
0.00068852
0.000688448
0.000688399
0.000688308
0.000688245
0.000688201
0.000688163
0.000688074
0.000688056
0.00068804
0.000687992
0.000688044
0.000688044
0.000688036
0.000688114
0.000688149
0.00068826
0.000688352
0.000688499
0.000688592
0.000688751
0.000688821
0.000688951
0.000689033
0.000689206
0.000689315
0.000689502
0.00068961
0.00068982
0.000689931
0.000690159
0.000690282
0.000690543
0.000690684
0.000690971
0.000691124
0.000691444
0.00069162
0.000691989
0.000692196
0.000692636
0.000692874
0.000693423
0.000693661
0.000694561
0.000694793
0.000710632
0.000752317
0.00189653
0.0010213
0.00093123
0.000869473
0.000827791
0.000798858
0.000777982
0.000762367
0.000750339
0.000740853
0.000733223
0.000726992
0.00072183
0.000717508
0.000713851
0.000710729
0.000708046
0.000705721
0.000703696
0.000701916
0.000700358
0.000698972
0.000697748
0.000696644
0.000695672
0.000694787
0.000693999
0.000693272
0.000692635
0.000692039
0.00069152
0.000691018
0.000690596
0.000690188
0.000689825
0.000689472
0.000689182
0.000688898
0.000688657
0.000688409
0.00068822
0.00068802
0.00068785
0.000687671
0.000687556
0.000687398
0.000687265
0.000687153
0.000687075
0.000687001
0.000686951
0.000686859
0.000686795
0.000686749
0.000686711
0.000686622
0.000686603
0.000686586
0.000686535
0.000686585
0.000686585
0.000686575
0.000686652
0.000686685
0.000686795
0.000686885
0.00068703
0.000687124
0.000687281
0.000687351
0.00068748
0.000687561
0.000687733
0.000687841
0.000688027
0.000688134
0.000688343
0.000688454
0.00068868
0.000688802
0.000689062
0.000689202
0.000689488
0.00068964
0.000689958
0.000690133
0.0006905
0.000690706
0.000691143
0.000691379
0.000691925
0.000692161
0.000693061
0.00069329
0.000709756
0.0007511
0.00187686
0.00102134
0.000931182
0.000869236
0.000827354
0.000798247
0.00077723
0.000761501
0.000749381
0.000739819
0.000732127
0.000725843
0.000720637
0.000716277
0.000712587
0.000709437
0.000706729
0.000704383
0.000702339
0.000700542
0.000698968
0.000697568
0.000696333
0.000695217
0.000694235
0.000693341
0.000692546
0.00069181
0.000691167
0.000690565
0.000690039
0.000689532
0.000689106
0.000688693
0.000688326
0.000687969
0.000687675
0.000687387
0.000687143
0.000686892
0.0006867
0.000686498
0.000686326
0.000686144
0.000686027
0.000685867
0.000685733
0.000685619
0.000685539
0.000685463
0.000685411
0.000685319
0.000685253
0.000685206
0.000685167
0.000685078
0.000685057
0.000685039
0.000684986
0.000685033
0.000685033
0.000685023
0.000685098
0.000685128
0.000685237
0.000685326
0.000685469
0.000685562
0.000685719
0.000685787
0.000685916
0.000685996
0.000686166
0.000686274
0.000686459
0.000686565
0.000686773
0.000686883
0.000687108
0.000687229
0.000687487
0.000687627
0.00068791
0.000688062
0.000688379
0.000688552
0.000688917
0.000689122
0.000689556
0.00068979
0.000690333
0.000690566
0.000691465
0.000691692
0.000708823
0.0007498
0.00185531
0.00102138
0.000931133
0.000868989
0.000826895
0.000797604
0.000776437
0.000760587
0.000748369
0.000738726
0.000730967
0.000724628
0.000719374
0.000714974
0.000711249
0.000708069
0.000705335
0.000702965
0.000700901
0.000699086
0.000697496
0.000696082
0.000694833
0.000693706
0.000692713
0.00069181
0.000691005
0.000690262
0.000689611
0.000689002
0.00068847
0.000687957
0.000687526
0.000687108
0.000686737
0.000686376
0.000686077
0.000685786
0.000685539
0.000685284
0.000685089
0.000684884
0.00068471
0.000684526
0.000684406
0.000684245
0.000684108
0.000683992
0.00068391
0.000683832
0.000683779
0.000683686
0.000683619
0.00068357
0.00068353
0.000683442
0.000683419
0.0006834
0.000683345
0.000683388
0.000683388
0.000683377
0.00068345
0.000683478
0.000683586
0.000683672
0.000683814
0.000683906
0.000684063
0.00068413
0.000684257
0.000684336
0.000684505
0.000684612
0.000684796
0.000684901
0.000685108
0.000685217
0.000685441
0.000685561
0.000685817
0.000685956
0.000686238
0.000686389
0.000686703
0.000686876
0.000687239
0.000687441
0.000687873
0.000688105
0.000688645
0.000688875
0.000689774
0.000689999
0.000707831
0.000748412
0.00183199
0.00102142
0.000931083
0.000868731
0.000826414
0.00079693
0.000775603
0.000759626
0.000747302
0.000737575
0.000729745
0.000723346
0.000718042
0.000713599
0.000709837
0.000706625
0.000703863
0.000701468
0.000699382
0.000697548
0.000695941
0.000694511
0.000693249
0.000692109
0.000691105
0.000690191
0.000689377
0.000688625
0.000687966
0.00068735
0.000686812
0.000686293
0.000685855
0.000685433
0.000685057
0.000684691
0.000684388
0.000684093
0.000683842
0.000683584
0.000683386
0.000683178
0.000683001
0.000682814
0.000682692
0.000682529
0.000682391
0.000682272
0.000682188
0.000682107
0.000682053
0.000681959
0.000681891
0.00068184
0.000681799
0.000681711
0.000681686
0.000681666
0.000681609
0.000681649
0.000681649
0.000681636
0.000681707
0.000681732
0.000681839
0.000681923
0.000682064
0.000682156
0.000682312
0.000682377
0.000682503
0.000682581
0.000682748
0.000682854
0.000683038
0.000683142
0.000683347
0.000683455
0.000683677
0.000683797
0.000684051
0.000684189
0.000684469
0.00068462
0.000684932
0.000685103
0.000685463
0.000685664
0.000686092
0.000686323
0.00068686
0.000687086
0.000687984
0.000688209
0.000706777
0.000746929
0.00180699
0.00102146
0.000931032
0.000868463
0.000825913
0.000796224
0.000774729
0.000758616
0.000746182
0.000736364
0.000728459
0.000721997
0.00071664
0.000712151
0.00070835
0.000705104
0.000702312
0.000699891
0.000697782
0.000695927
0.000694301
0.000692855
0.000691578
0.000690425
0.000689409
0.000688484
0.000687661
0.0006869
0.000686232
0.000685608
0.000685063
0.000684538
0.000684094
0.000683666
0.000683285
0.000682914
0.000682607
0.000682307
0.000682053
0.000681791
0.000681589
0.000681378
0.000681199
0.000681009
0.000680884
0.000680719
0.000680579
0.000680457
0.000680371
0.000680288
0.000680232
0.000680137
0.000680067
0.000680014
0.000679973
0.000679884
0.000679858
0.000679836
0.000679777
0.000679814
0.000679814
0.000679799
0.000679869
0.000679891
0.000679996
0.000680078
0.000680217
0.000680308
0.000680463
0.000680526
0.000680652
0.000680729
0.000680895
0.000680999
0.000681182
0.000681285
0.000681488
0.000681596
0.000681817
0.000681936
0.000682187
0.000682324
0.000682603
0.000682752
0.000683062
0.000683232
0.000683589
0.000683789
0.000684214
0.000684443
0.000684975
0.000685198
0.000686096
0.00068632
0.000705658
0.000745347
0.00178042
0.00102151
0.000930981
0.000868186
0.000825391
0.000795487
0.000773815
0.000757559
0.000745008
0.000735094
0.000727109
0.000720581
0.000715167
0.00071063
0.000706787
0.000703505
0.000700681
0.000698233
0.000696099
0.000694222
0.000692577
0.000691114
0.000689821
0.000688654
0.000687625
0.000686689
0.000685854
0.000685084
0.000684407
0.000683776
0.000683223
0.00068269
0.00068224
0.000681806
0.00068142
0.000681044
0.000680732
0.000680428
0.000680169
0.000679904
0.000679698
0.000679484
0.000679301
0.000679108
0.00067898
0.000678814
0.000678671
0.000678547
0.000678458
0.000678373
0.000678315
0.000678219
0.000678148
0.000678092
0.000678051
0.000677962
0.000677933
0.00067791
0.000677849
0.000677882
0.000677882
0.000677865
0.000677933
0.000677952
0.000678056
0.000678136
0.000678273
0.000678363
0.000678517
0.000678579
0.000678703
0.000678779
0.000678943
0.000679046
0.000679228
0.00067933
0.000679532
0.000679638
0.000679857
0.000679975
0.000680225
0.000680361
0.000680637
0.000680786
0.000681093
0.000681262
0.000681617
0.000681814
0.000682236
0.000682463
0.000682992
0.000683211
0.000684108
0.000684331
0.00070447
0.000743657
0.0017524
0.00102155
0.000930929
0.0008679
0.000824849
0.00079472
0.000772861
0.000756454
0.00074378
0.000733765
0.000725696
0.000719097
0.000713623
0.000709035
0.000705149
0.000701828
0.000698971
0.000696493
0.000694333
0.000692434
0.000690768
0.000689286
0.000687977
0.000686795
0.000685752
0.000684803
0.000683958
0.000683177
0.000682491
0.000681851
0.00068129
0.00068075
0.000680293
0.000679853
0.000679461
0.00067908
0.000678763
0.000678453
0.000678191
0.000677921
0.000677712
0.000677494
0.000677308
0.000677112
0.000676981
0.000676812
0.000676667
0.00067654
0.000676449
0.00067636
0.000676301
0.000676204
0.000676131
0.000676073
0.000676031