/*--------------------------------*- C++ -*----------------------------------*\
| =========                 |                                                 |
| \\      /  F ield         | OpenFOAM: The Open Source CFD Toolbox           |
|  \\    /   O peration     | Version:  v2012                                 |
|   \\  /    A nd           | Website:  www.openfoam.com                      |
|    \\/     M anipulation  |                                                 |
\*---------------------------------------------------------------------------*/
FoamFile
{
    version     2.0;
    format      ascii;
    class       volScalarField;
    location    "23.5";
    object      omega;
}
// * * * * * * * * * * * * * * * * * * * * * * * * * * * * * * * * * * * * * //

dimensions      [0 0 -1 0 0 0 0];


internalField   nonuniform List<scalar> 
209825
(
8247.56
7559.62
7061.09
6710.56
6460.28
6276.5
6136.9
6028.32
5941.57
5871.36
5813.24
5764.94
5723.89
5689.13
5658.98
5633.11
5610.27
5590.51
5572.77
5557.34
5543.3
5531.04
5519.71
5509.83
5500.62
5492.56
5484.9
5478.26
5471.91
5466.39
5461.02
5456.43
5451.86
5448.02
5444.17
5440.95
5437.59
5434.87
5432.04
5429.77
5427.23
5425.34
5423.29
5421.53
5419.67
5418.3
5416.79
5415.79
5414.51
5413.71
5412.54
5411.54
5410.62
5410.11
5409.15
5408.58
5408.26
5408.04
5407.78
5407.23
5407.07
5406.99
5406.85
5406.4
5406.77
5406.77
5406.76
5406.94
5406.94
5407.36
5407.36
5408.14
5408.14
5409.1
5409.48
5410.72
5410.72
5411.81
5412.27
5413.5
5413.94
5415.26
5415.87
5417.31
5418
5419.59
5420.33
5422.1
5422.88
5425.07
5425.8
5429.21
5429.73
5466.79
5614.88
114387
8247.56
7559.62
7061.07
6710.52
6460.22
6276.41
6136.8
6028.21
5941.44
5871.23
5813.1
5764.79
5723.74
5688.98
5658.82
5632.95
5610.1
5590.33
5572.6
5557.16
5543.12
5530.86
5519.52
5509.64
5500.43
5492.37
5484.71
5478.07
5471.72
5466.2
5460.83
5456.23
5451.67
5447.83
5443.98
5440.75
5437.39
5434.67
5431.84
5429.57
5427.03
5425.14
5423.09
5421.33
5419.46
5418.1
5416.59
5415.58
5414.31
5413.51
5412.34
5411.33
5410.41
5409.91
5408.94
5408.38
5408.06
5407.83
5407.58
5407.02
5406.86
5406.79
5406.64
5406.2
5406.57
5406.57
5406.56
5406.73
5406.73
5407.15
5407.15
5407.93
5407.93
5408.89
5409.28
5410.51
5410.51
5411.6
5412.06
5413.3
5413.73
5415.05
5415.66
5417.1
5417.79
5419.38
5420.12
5421.89
5422.67
5424.86
5425.59
5429
5429.52
5466.65
5614.71
111091
8247.58
7559.62
7061
6710.37
6459.99
6276.13
6136.46
6027.82
5941.02
5870.78
5812.63
5764.29
5723.22
5688.45
5658.27
5632.39
5609.54
5589.76
5572.01
5556.57
5542.52
5530.25
5518.91
5509.03
5499.81
5491.74
5484.08
5477.44
5471.08
5465.56
5460.18
5455.59
5451.02
5447.18
5443.32
5440.1
5436.73
5434.01
5431.18
5428.91
5426.36
5424.47
5422.42
5420.67
5418.8
5417.43
5415.92
5414.91
5413.64
5412.84
5411.67
5410.66
5409.74
5409.23
5408.27
5407.7
5407.38
5407.15
5406.9
5406.34
5406.18
5406.11
5405.96
5405.51
5405.88
5405.88
5405.87
5406.05
5406.05
5406.47
5406.46
5407.25
5407.25
5408.2
5408.59
5409.82
5409.82
5410.91
5411.37
5412.61
5413.04
5414.36
5414.97
5416.41
5417.1
5418.69
5419.42
5421.19
5421.98
5424.16
5424.89
5428.31
5428.82
5466.1
5614.09
107307
8247.6
7559.61
7060.88
6710.1
6459.6
6275.62
6135.87
6027.16
5940.3
5870
5811.81
5763.44
5722.34
5687.53
5657.34
5631.43
5608.56
5588.77
5571.01
5555.55
5541.49
5529.21
5517.86
5507.97
5498.74
5490.67
5483
5476.35
5469.99
5464.47
5459.08
5454.48
5449.91
5446.06
5442.21
5438.98
5435.61
5432.89
5430.05
5427.77
5425.23
5423.33
5421.28
5419.52
5417.65
5416.29
5414.77
5413.77
5412.49
5411.69
5410.52
5409.51
5408.58
5408.07
5407.11
5406.54
5406.22
5405.99
5405.74
5405.18
5405.02
5404.94
5404.8
5404.35
5404.71
5404.71
5404.7
5404.88
5404.88
5405.29
5405.29
5406.07
5406.07
5407.03
5407.41
5408.64
5408.65
5409.73
5410.19
5411.42
5411.85
5413.17
5413.79
5415.22
5415.91
5417.5
5418.24
5420
5420.79
5422.97
5423.7
5427.11
5427.63
5465.13
5612.98
103416
8247.64
7559.59
7060.69
6709.72
6459.04
6274.91
6135.02
6026.21
5939.27
5868.9
5810.64
5762.22
5721.08
5686.23
5656
5630.07
5607.17
5587.35
5569.58
5554.1
5540.02
5527.73
5516.36
5506.46
5497.22
5489.14
5481.46
5474.8
5468.43
5462.9
5457.51
5452.91
5448.33
5444.48
5440.61
5437.38
5434.01
5431.28
5428.44
5426.16
5423.61
5421.71
5419.66
5417.9
5416.03
5414.66
5413.14
5412.13
5410.85
5410.05
5408.87
5407.86
5406.94
5406.43
5405.46
5404.89
5404.57
5404.34
5404.08
5403.52
5403.36
5403.28
5403.14
5402.68
5403.05
5403.05
5403.04
5403.21
5403.21
5403.62
5403.62
5404.4
5404.4
5405.35
5405.73
5406.96
5406.97
5408.05
5408.51
5409.74
5410.17
5411.49
5412.1
5413.53
5414.22
5415.81
5416.54
5418.31
5419.09
5421.28
5422
5425.42
5425.93
5463.74
5611.4
99523.8
8247.68
7559.57
7060.46
6709.23
6458.3
6273.97
6133.92
6024.98
5937.92
5867.45
5809.12
5760.63
5719.43
5684.54
5654.26
5628.29
5605.36
5585.51
5567.71
5552.21
5538.11
5525.79
5514.41
5504.49
5495.24
5487.14
5479.45
5472.78
5466.4
5460.86
5455.47
5450.85
5446.26
5442.41
5438.54
5435.3
5431.92
5429.19
5426.34
5424.06
5421.5
5419.6
5417.54
5415.78
5413.9
5412.53
5411.01
5409.99
5408.71
5407.91
5406.73
5405.72
5404.79
5404.28
5403.31
5402.74
5402.41
5402.18
5401.92
5401.36
5401.2
5401.12
5400.97
5400.52
5400.88
5400.88
5400.86
5401.03
5401.03
5401.44
5401.44
5402.21
5402.21
5403.17
5403.54
5404.77
5404.77
5405.85
5406.31
5407.54
5407.97
5409.29
5409.9
5411.33
5412.02
5413.6
5414.34
5416.1
5416.88
5419.06
5419.78
5423.2
5423.7
5461.93
5609.32
95669.2
8247.74
7559.55
7060.17
6708.62
6457.4
6272.82
6132.56
6023.45
5936.25
5865.67
5807.24
5758.67
5717.39
5682.44
5652.11
5626.09
5603.12
5583.23
5565.39
5549.86
5535.74
5523.4
5512
5502.06
5492.78
5484.67
5476.97
5470.28
5463.89
5458.34
5452.93
5448.31
5443.71
5439.84
5435.96
5432.72
5429.33
5426.59
5423.74
5421.45
5418.89
5416.98
5414.92
5413.15
5411.27
5409.9
5408.37
5407.35
5406.06
5405.26
5404.08
5403.07
5402.13
5401.62
5400.65
5400.07
5399.74
5399.5
5399.25
5398.69
5398.52
5398.44
5398.29
5397.83
5398.19
5398.19
5398.17
5398.34
5398.34
5398.74
5398.74
5399.51
5399.51
5400.46
5400.83
5402.06
5402.06
5403.14
5403.59
5404.82
5405.25
5406.56
5407.17
5408.6
5409.29
5410.87
5411.6
5413.36
5414.15
5416.32
5417.04
5420.46
5420.95
5459.69
5606.74
91871.4
8247.8
7559.52
7059.82
6707.89
6456.32
6271.44
6130.94
6021.62
5934.26
5863.54
5804.99
5756.32
5714.96
5679.93
5649.54
5623.46
5600.43
5580.5
5562.63
5547.06
5532.9
5520.54
5509.11
5499.15
5489.85
5481.72
5473.99
5467.3
5460.89
5455.32
5449.9
5445.26
5440.65
5436.78
5432.89
5429.63
5426.24
5423.49
5420.64
5418.33
5415.77
5413.86
5411.79
5410.01
5408.13
5406.74
5405.21
5404.19
5402.9
5402.09
5400.91
5399.89
5398.95
5398.43
5397.47
5396.89
5396.55
5396.31
5396.05
5395.49
5395.31
5395.23
5395.08
5394.62
5394.97
5394.97
5394.96
5395.12
5395.11
5395.51
5395.51
5396.28
5396.28
5397.23
5397.59
5398.81
5398.81
5399.89
5400.34
5401.57
5401.99
5403.31
5403.91
5405.34
5406.03
5407.6
5408.33
5410.09
5410.87
5413.04
5413.76
5417.18
5417.66
5457.02
5603.66
88139.2
8247.88
7559.49
7059.42
6707.05
6455.06
6269.84
6129.05
6019.5
5931.94
5861.05
5802.37
5753.58
5712.12
5677
5646.53
5620.39
5597.31
5577.32
5559.4
5543.79
5529.6
5517.2
5505.74
5495.75
5486.43
5478.27
5470.53
5463.81
5457.38
5451.8
5446.36
5441.71
5437.09
5433.2
5429.3
5426.03
5422.63
5419.87
5417.01
5414.7
5412.13
5410.2
5408.13
5406.35
5404.45
5403.07
5401.53
5400.5
5399.2
5398.39
5397.2
5396.18
5395.24
5394.72
5393.75
5393.16
5392.82
5392.57
5392.32
5391.76
5391.58
5391.49
5391.34
5390.87
5391.21
5391.21
5391.2
5391.36
5391.35
5391.75
5391.75
5392.5
5392.5
5393.45
5393.81
5395.02
5395.03
5396.1
5396.55
5397.78
5398.19
5399.5
5400.11
5401.53
5402.21
5403.79
5404.52
5406.27
5407.05
5409.22
5409.93
5413.35
5413.82
5453.91
5600.07
84475.4
8247.97
7559.45
7058.96
6706.08
6453.63
6268
6126.89
6017.07
5929.28
5858.21
5799.37
5750.44
5708.87
5673.65
5643.09
5616.88
5593.72
5573.68
5555.7
5540.05
5525.81
5513.37
5501.88
5491.86
5482.5
5474.33
5466.55
5459.81
5453.36
5447.77
5442.31
5437.64
5433
5429.1
5425.19
5421.91
5418.49
5415.73
5412.85
5410.53
5407.95
5406.02
5403.93
5402.15
5400.25
5398.85
5397.31
5396.27
5394.97
5394.15
5392.96
5391.94
5390.99
5390.46
5389.49
5388.9
5388.55
5388.3
5388.04
5387.48
5387.29
5387.2
5387.05
5386.57
5386.91
5386.91
5386.9
5387.05
5387.04
5387.43
5387.43
5388.17
5388.18
5389.12
5389.47
5390.68
5390.68
5391.76
5392.2
5393.42
5393.84
5395.14
5395.75
5397.16
5397.85
5399.42
5400.14
5401.89
5402.67
5404.83
5405.54
5408.96
5409.42
5450.35
5595.97
80878.1
8248.07
7559.41
7058.45
6705
6452.02
6265.94
6124.45
6014.33
5926.29
5855.01
5795.98
5746.91
5705.2
5669.87
5639.21
5612.91
5589.68
5569.57
5551.53
5535.82
5521.54
5509.05
5497.52
5487.46
5478.08
5469.87
5462.07
5455.3
5448.83
5443.21
5437.73
5433.04
5428.39
5424.47
5420.54
5417.25
5413.82
5411.04
5408.15
5405.82
5403.23
5401.29
5399.2
5397.41
5395.5
5394.09
5392.54
5391.5
5390.19
5389.36
5388.17
5387.14
5386.18
5385.65
5384.68
5384.08
5383.72
5383.47
5383.2
5382.64
5382.45
5382.36
5382.2
5381.72
5382.05
5382.05
5382.03
5382.18
5382.17
5382.55
5382.55
5383.29
5383.29
5384.23
5384.57
5385.78
5385.78
5386.85
5387.28
5388.51
5388.92
5390.22
5390.82
5392.23
5392.91
5394.48
5395.2
5396.95
5397.72
5399.88
5400.58
5404
5404.45
5446.34
5591.33
77341.7
8248.17
7559.37
7057.89
6703.8
6450.22
6263.65
6121.74
6011.27
5922.95
5851.43
5792.21
5742.96
5701.1
5665.65
5634.88
5608.48
5585.17
5564.98
5546.87
5531.1
5516.76
5504.23
5492.65
5482.55
5473.13
5464.89
5457.05
5450.26
5443.76
5438.12
5432.62
5427.91
5423.24
5419.3
5415.35
5412.04
5408.6
5405.81
5402.9
5400.57
5397.96
5396.01
5393.91
5392.11
5390.19
5388.78
5387.21
5386.16
5384.84
5384.01
5382.81
5381.78
5380.82
5380.28
5379.3
5378.7
5378.33
5378.07
5377.81
5377.24
5377.04
5376.95
5376.78
5376.3
5376.62
5376.62
5376.6
5376.74
5376.73
5377.1
5377.1
5377.83
5377.83
5378.77
5379.1
5380.3
5380.3
5381.37
5381.8
5383.02
5383.42
5384.72
5385.31
5386.72
5387.4
5388.96
5389.68
5391.42
5392.19
5394.34
5395.04
5398.46
5398.9
5441.88
5586.16
73859.9
8248.29
7559.33
7057.27
6702.48
6448.25
6261.12
6118.75
6007.91
5919.27
5847.49
5788.04
5738.6
5696.58
5660.99
5630.1
5603.59
5580.18
5559.91
5541.72
5525.89
5511.48
5498.9
5487.27
5477.12
5467.66
5459.38
5451.51
5444.69
5438.16
5432.49
5426.96
5422.23
5417.54
5413.58
5409.61
5406.29
5402.83
5400.02
5397.1
5394.75
5392.13
5390.17
5388.05
5386.24
5384.31
5382.89
5381.32
5380.26
5378.93
5378.09
5376.89
5375.85
5374.88
5374.33
5373.35
5372.74
5372.37
5372.1
5371.83
5371.26
5371.06
5370.96
5370.79
5370.3
5370.61
5370.61
5370.59
5370.72
5370.7
5371.07
5371.07
5371.79
5371.79
5372.72
5373.04
5374.23
5374.24
5375.3
5375.72
5376.94
5377.34
5378.63
5379.22
5380.63
5381.3
5382.85
5383.57
5385.31
5386.07
5388.22
5388.9
5392.33
5392.76
5436.96
5580.45
70439.3
8248.42
7559.29
7056.6
6701.04
6446.1
6258.35
6115.48
6004.22
5915.23
5843.16
5783.47
5733.82
5691.62
5655.87
5624.85
5598.22
5574.7
5554.34
5536.07
5520.16
5505.69
5493.05
5481.36
5471.17
5461.66
5453.34
5445.43
5438.57
5432.01
5426.31
5420.75
5416
5411.28
5407.3
5403.31
5399.97
5396.49
5393.66
5390.73
5388.36
5385.73
5383.75
5381.62
5379.81
5377.86
5376.43
5374.85
5373.78
5372.44
5371.59
5370.38
5369.34
5368.36
5367.81
5366.82
5366.2
5365.82
5365.54
5365.27
5364.7
5364.49
5364.38
5364.21
5363.71
5364.01
5364.01
5363.99
5364.11
5364.09
5364.45
5364.44
5365.15
5365.15
5366.08
5366.39
5367.57
5367.58
5368.64
5369.05
5370.26
5370.66
5371.95
5372.53
5373.93
5374.6
5376.15
5376.86
5378.59
5379.35
5381.49
5382.17
5385.6
5386.01
5431.57
5574.19
67085.9
8248.57
7559.25
7055.88
6699.49
6443.76
6255.35
6111.93
6000.21
5910.84
5838.46
5778.5
5728.62
5686.22
5650.3
5619.13
5592.37
5568.74
5548.27
5529.91
5513.92
5499.38
5486.67
5474.92
5464.67
5455.11
5446.75
5438.8
5431.9
5425.3
5419.57
5413.98
5409.2
5404.45
5400.45
5396.44
5393.07
5389.58
5386.73
5383.78
5381.4
5378.75
5376.76
5374.61
5372.79
5370.83
5369.39
5367.79
5366.71
5365.36
5364.5
5363.29
5362.24
5361.25
5360.68
5359.7
5359.07
5358.67
5358.39
5358.11
5357.54
5357.32
5357.21
5357.03
5356.53
5356.81
5356.81
5356.79
5356.91
5356.88
5357.22
5357.22
5357.91
5357.92
5358.84
5359.13
5360.31
5360.31
5361.37
5361.77
5362.98
5363.37
5364.65
5365.24
5366.63
5367.29
5368.83
5369.55
5371.26
5372.02
5374.15
5374.82
5378.25
5378.66
5425.71
5567.37
63805.3
8248.72
7559.2
7055.1
6697.82
6441.24
6252.11
6108.09
5995.87
5906.1
5833.36
5773.11
5722.99
5680.38
5644.27
5612.93
5586.04
5562.28
5541.7
5523.24
5507.16
5492.53
5479.75
5467.94
5457.63
5448.01
5439.6
5431.61
5424.67
5418.03
5412.26
5406.64
5401.83
5397.05
5393.02
5388.98
5385.6
5382.08
5379.22
5376.24
5373.84
5371.18
5369.17
5367.01
5365.17
5363.2
5361.75
5360.13
5359.04
5357.68
5356.81
5355.59
5354.54
5353.53
5352.96
5351.97
5351.33
5350.92
5350.63
5350.35
5349.78
5349.54
5349.43
5349.25
5348.73
5349
5349
5348.99
5349.09
5349.05
5349.39
5349.39
5350.06
5350.07
5350.98
5351.26
5352.43
5352.44
5353.49
5353.88
5355.09
5355.47
5356.74
5357.32
5358.71
5359.36
5360.9
5361.61
5363.32
5364.07
5366.19
5366.86
5370.29
5370.68
5419.36
5559.98
60602.8
8248.88
7559.16
7054.28
6696.03
6438.55
6248.63
6103.96
5991.21
5900.99
5827.88
5767.31
5716.92
5674.08
5637.77
5606.26
5579.21
5555.31
5534.61
5516.05
5499.87
5485.16
5472.29
5460.41
5450.04
5440.36
5431.89
5423.85
5416.87
5410.18
5404.38
5398.72
5393.88
5389.07
5385.01
5380.94
5377.54
5373.99
5371.11
5368.11
5365.69
5363.01
5360.98
5358.81
5356.96
5354.97
5353.5
5351.87
5350.77
5349.39
5348.51
5347.28
5346.22
5345.21
5344.63
5343.63
5342.98
5342.56
5342.26
5341.97
5341.4
5341.15
5341.03
5340.84
5340.32
5340.58
5340.58
5340.56
5340.65
5340.61
5340.93
5340.93
5341.59
5341.6
5342.5
5342.77
5343.93
5343.93
5344.98
5345.36
5346.56
5346.94
5348.2
5348.77
5350.15
5350.81
5352.33
5353.04
5354.74
5355.49
5357.6
5358.26
5361.69
5362.06
5412.53
5552.01
57483.1
8249.05
7559.12
7053.41
6694.13
6435.67
6244.92
6099.55
5986.22
5895.52
5822.01
5761.1
5710.42
5667.32
5630.8
5599.09
5571.88
5547.83
5527.01
5508.32
5492.04
5477.23
5464.29
5452.32
5441.88
5432.14
5423.62
5415.52
5408.49
5401.76
5395.91
5390.21
5385.34
5380.49
5376.4
5372.31
5368.87
5365.3
5362.39
5359.37
5356.93
5354.24
5352.19
5349.99
5348.13
5346.12
5344.64
5343
5341.88
5340.49
5339.59
5338.36
5337.29
5336.26
5335.67
5334.67
5334.01
5333.57
5333.26
5332.97
5332.39
5332.14
5332
5331.81
5331.29
5331.52
5331.52
5331.5
5331.58
5331.54
5331.84
5331.84
5332.49
5332.49
5333.39
5333.64
5334.79
5334.79
5335.84
5336.2
5337.4
5337.77
5339.03
5339.59
5340.96
5341.61
5343.13
5343.83
5345.52
5346.26
5348.37
5349.01
5352.45
5352.81
5405.2
5543.44
54450.8
8249.23
7559.08
7052.49
6692.11
6432.61
6240.96
6094.85
5980.9
5889.68
5815.74
5754.46
5703.47
5660.1
5623.35
5591.44
5564.04
5539.84
5518.87
5500.06
5483.67
5468.76
5455.72
5443.67
5433.16
5423.35
5414.76
5406.6
5399.52
5392.74
5386.85
5381.11
5376.2
5371.31
5367.19
5363.06
5359.6
5356
5353.07
5350.02
5347.56
5344.84
5342.77
5340.56
5338.68
5336.66
5335.16
5333.49
5332.36
5330.96
5330.05
5328.81
5327.73
5326.68
5326.08
5325.08
5324.4
5323.95
5323.63
5323.33
5322.75
5322.48
5322.34
5322.15
5321.61
5321.83
5321.83
5321.81
5321.88
5321.82
5322.11
5322.11
5322.74
5322.74
5323.63
5323.87
5325
5325.01
5326.05
5326.4
5327.59
5327.95
5329.2
5329.76
5331.13
5331.76
5333.27
5333.97
5335.65
5336.39
5338.48
5339.12
5342.56
5342.9
5397.36
5534.26
51510
8249.43
7559.04
7051.52
6689.98
6429.37
6236.77
6089.86
5975.25
5883.48
5809.07
5747.4
5696.07
5652.42
5615.41
5583.28
5555.7
5531.32
5510.21
5491.26
5474.75
5459.73
5446.59
5434.46
5423.86
5413.97
5405.32
5397.1
5389.96
5383.13
5377.19
5371.4
5366.45
5361.53
5357.37
5353.2
5349.71
5346.08
5343.12
5340.05
5337.57
5334.82
5332.73
5330.5
5328.6
5326.56
5325.04
5323.36
5322.21
5320.79
5319.87
5318.61
5317.53
5316.47
5315.85
5314.84
5314.15
5313.69
5313.35
5313.05
5312.47
5312.19
5312.03
5311.83
5311.29
5311.49
5311.49
5311.47
5311.52
5311.46
5311.73
5311.73
5312.34
5312.34
5313.23
5313.45
5314.57
5314.57
5315.6
5315.95
5317.13
5317.48
5318.72
5319.27
5320.63
5321.26
5322.76
5323.45
5325.12
5325.85
5327.93
5328.56
5332
5332.34
5389
5524.46
48664.5
8249.63
7559
7050.51
6687.74
6425.95
6232.34
6084.57
5969.26
5876.9
5802
5739.91
5688.23
5644.26
5606.99
5574.62
5546.83
5522.27
5501
5481.91
5465.27
5450.13
5436.89
5424.66
5413.98
5404.01
5395.29
5387
5379.8
5372.91
5366.92
5361.08
5356.08
5351.12
5346.92
5342.72
5339.2
5335.53
5332.55
5329.44
5326.94
5324.17
5322.05
5319.79
5317.88
5315.82
5314.28
5312.58
5311.41
5309.98
5309.04
5307.78
5306.68
5305.6
5304.98
5303.96
5303.25
5302.78
5302.42
5302.12
5301.53
5301.23
5301.07
5300.87
5300.31
5300.5
5300.49
5300.47
5300.51
5300.43
5300.7
5300.69
5301.28
5301.29
5302.16
5302.36
5303.47
5303.47
5304.5
5304.82
5306
5306.34
5307.58
5308.12
5309.46
5310.09
5311.58
5312.26
5313.92
5314.64
5316.72
5317.33
5320.78
5321.1
5380.12
5514.01
45917.7
8249.84
7558.97
7049.46
6685.39
6422.36
6227.67
6079
5962.94
5869.95
5794.53
5731.99
5679.93
5635.63
5598.07
5565.46
5537.45
5512.7
5491.25
5472
5455.23
5439.96
5426.61
5414.28
5403.51
5393.45
5384.65
5376.29
5369.03
5362.07
5356.03
5350.14
5345.1
5340.09
5335.85
5331.61
5328.05
5324.35
5321.33
5318.2
5315.66
5312.87
5310.73
5308.45
5306.51
5304.43
5302.88
5301.15
5299.97
5298.52
5297.56
5296.28
5295.18
5294.08
5293.44
5292.42
5291.7
5291.2
5290.83
5290.52
5289.92
5289.62
5289.44
5289.23
5288.67
5288.83
5288.83
5288.81
5288.83
5288.74
5288.99
5288.98
5289.55
5289.55
5290.41
5290.6
5291.69
5291.69
5292.71
5293.02
5294.2
5294.53
5295.75
5296.28
5297.62
5298.24
5299.72
5300.39
5302.04
5302.75
5304.82
5305.42
5308.87
5309.18
5370.69
5502.9
43272.6
8250.06
7558.95
7048.37
6682.94
6418.59
6222.76
6073.14
5956.28
5862.63
5786.65
5723.64
5671.17
5626.52
5588.66
5555.78
5527.54
5502.58
5480.95
5461.54
5444.62
5429.22
5415.75
5403.31
5392.44
5382.29
5373.41
5364.97
5357.64
5350.62
5344.52
5338.58
5333.48
5328.42
5324.14
5319.86
5316.26
5312.53
5309.47
5306.31
5303.75
5300.92
5298.75
5296.45
5294.49
5292.39
5290.81
5289.07
5287.86
5286.39
5285.41
5284.12
5283.01
5281.89
5281.24
5280.21
5279.47
5278.96
5278.57
5278.25
5277.65
5277.33
5277.14
5276.93
5276.36
5276.5
5276.5
5276.47
5276.48
5276.38
5276.6
5276.6
5277.15
5277.15
5277.99
5278.16
5279.24
5279.24
5280.25
5280.54
5281.71
5282.03
5283.24
5283.76
5285.09
5285.7
5287.17
5287.83
5289.48
5290.18
5292.23
5292.81
5296.27
5296.57
5360.71
5491.1
40731.9
8250.29
7558.93
7047.24
6680.38
6414.66
6217.62
6066.99
5949.29
5854.94
5778.37
5714.85
5661.95
5616.93
5578.75
5545.59
5517.1
5491.92
5470.09
5450.51
5433.43
5417.89
5404.3
5391.74
5380.77
5370.52
5361.56
5353.04
5345.63
5338.54
5332.38
5326.38
5321.23
5316.12
5311.79
5307.46
5303.82
5300.05
5296.96
5293.76
5291.17
5288.32
5286.12
5283.78
5281.81
5279.68
5278.08
5276.31
5275.08
5273.59
5272.59
5271.29
5270.17
5269.03
5268.36
5267.32
5266.57
5266.04
5265.64
5265.3
5264.7
5264.36
5264.16
5263.94
5263.37
5263.48
5263.48
5263.45
5263.44
5263.32
5263.54
5263.52
5264.05
5264.05
5264.88
5265.03
5266.09
5266.09
5267.09
5267.37
5268.53
5268.83
5270.04
5270.55
5271.87
5272.46
5273.92
5274.58
5276.21
5276.9
5278.94
5279.51
5282.97
5283.26
5350.16
5478.58
38298.1
8250.53
7558.92
7046.08
6677.72
6410.55
6212.25
6060.56
5941.97
5846.87
5769.67
5705.62
5652.27
5606.86
5568.34
5534.87
5506.12
5480.71
5458.68
5438.91
5421.67
5405.98
5392.25
5379.57
5368.48
5358.14
5349.08
5340.48
5332.99
5325.83
5319.6
5313.54
5308.33
5303.17
5298.79
5294.41
5290.73
5286.92
5283.79
5280.55
5277.93
5275.04
5272.81
5270.45
5268.45
5266.3
5264.68
5262.88
5261.63
5260.11
5259.1
5257.78
5256.64
5255.49
5254.8
5253.75
5252.98
5252.43
5252.01
5251.66
5251.06
5250.7
5250.49
5250.26
5249.68
5249.77
5249.77
5249.73
5249.71
5249.58
5249.77
5249.76
5250.26
5250.25
5251.07
5251.2
5252.24
5252.24
5253.24
5253.5
5254.64
5254.94
5256.13
5256.63
5257.94
5258.52
5259.97
5260.62
5262.24
5262.92
5264.94
5265.5
5268.96
5269.25
5339.02
5465.33
35973
8250.77
7558.91
7044.88
6674.96
6406.27
6206.65
6053.84
5934.32
5838.43
5760.57
5695.96
5642.12
5596.3
5557.42
5523.64
5494.61
5468.95
5446.7
5426.73
5409.32
5393.47
5379.61
5366.79
5355.59
5345.13
5335.98
5327.28
5319.72
5312.48
5306.18
5300.05
5294.78
5289.56
5285.13
5280.7
5276.98
5273.12
5269.96
5266.67
5264.02
5261.1
5258.84
5256.44
5254.42
5252.24
5250.59
5248.77
5247.49
5245.95
5244.91
5243.58
5242.43
5241.25
5240.55
5239.49
5238.7
5238.13
5237.69
5237.33
5236.72
5236.35
5236.12
5235.89
5235.3
5235.36
5235.36
5235.31
5235.28
5235.13
5235.31
5235.28
5235.76
5235.76
5236.56
5236.67
5237.69
5237.69
5238.67
5238.91
5240.05
5240.33
5241.52
5242
5243.3
5243.87
5245.3
5245.95
5247.55
5248.22
5250.23
5250.78
5254.24
5254.52
5327.24
5451.32
33758.5
8251.03
7558.92
7043.65
6672.11
6401.84
6200.82
6046.83
5926.33
5829.62
5751.06
5685.86
5631.52
5585.25
5545.99
5511.87
5482.56
5456.63
5434.16
5413.98
5396.39
5380.37
5366.35
5353.4
5342.08
5331.5
5322.25
5313.45
5305.8
5298.48
5292.11
5285.9
5280.58
5275.29
5270.81
5266.32
5262.55
5258.65
5255.44
5252.12
5249.42
5246.47
5244.17
5241.75
5239.7
5237.49
5235.81
5233.96
5232.66
5231.1
5230.04
5228.69
5227.52
5226.32
5225.6
5224.53
5223.72
5223.13
5222.67
5222.3
5221.68
5221.29
5221.04
5220.8
5220.22
5220.25
5220.24
5220.19
5220.14
5219.97
5220.13
5220.1
5220.55
5220.55
5221.33
5221.42
5222.42
5222.42
5223.39
5223.61
5224.74
5225.01
5226.18
5226.65
5227.93
5228.5
5229.92
5230.55
5232.14
5232.8
5234.8
5235.32
5238.79
5239.06
5314.81
5436.54
31656
8251.29
7558.93
7042.39
6669.17
6397.24
6194.77
6039.55
5918.01
5820.43
5741.15
5675.32
5620.44
5573.71
5534.05
5499.58
5469.96
5443.76
5421.05
5400.65
5382.86
5366.66
5352.49
5339.39
5327.94
5317.24
5307.88
5298.98
5291.24
5283.83
5277.38
5271.1
5265.71
5260.36
5255.82
5251.27
5247.46
5243.5
5240.25
5236.88
5234.15
5231.16
5228.83
5226.36
5224.29
5222.04
5220.34
5218.46
5217.13
5215.55
5214.46
5213.09
5211.91
5210.69
5209.94
5208.86
5208.03
5207.41
5206.94
5206.55
5205.92
5205.52
5205.26
5205.01
5204.42
5204.43
5204.4
5204.34
5204.28
5204.1
5204.24
5204.2
5204.62
5204.62
5205.38
5205.45
5206.42
5206.42
5207.39
5207.59
5208.71
5208.96
5210.12
5210.58
5211.84
5212.4
5213.8
5214.42
5216
5216.65
5218.63
5219.14
5222.61
5222.87
5301.66
5420.96
29666.6
8251.56
7558.95
7041.1
6666.14
6392.49
6188.5
6031.99
5909.37
5810.88
5730.82
5664.34
5608.9
5561.68
5521.6
5486.77
5456.82
5430.33
5407.36
5386.73
5368.74
5352.35
5338.02
5324.76
5313.17
5302.35
5292.87
5283.87
5276.03
5268.52
5262
5255.63
5250.17
5244.75
5240.15
5235.55
5231.68
5227.67
5224.37
5220.95
5218.18
5215.15
5212.78
5210.28
5208.18
5205.9
5204.17
5202.26
5200.9
5199.28
5198.17
5196.78
5195.59
5194.34
5193.57
5192.48
5191.63
5190.99
5190.49
5190.09
5189.45
5189.03
5188.75
5188.49
5187.91
5187.88
5187.85
5187.77
5187.7
5187.5
5187.63
5187.58
5187.96
5187.96
5188.7
5188.76
5189.7
5189.7
5190.65
5190.83
5191.94
5192.17
5193.32
5193.76
5195.02
5195.56
5196.94
5197.56
5199.12
5199.76
5201.72
5202.22
5205.68
5205.95
5287.77
5404.58
27791.5
8251.83
7558.99
7039.79
6663.02
6387.59
6182.02
6024.15
5900.4
5800.95
5720.1
5652.92
5596.9
5549.17
5508.65
5473.42
5443.13
5416.33
5393.1
5372.22
5354.02
5337.43
5322.92
5309.51
5297.77
5286.81
5277.22
5268.1
5260.16
5252.55
5245.94
5239.5
5233.96
5228.47
5223.81
5219.14
5215.21
5211.15
5207.8
5204.33
5201.52
5198.45
5196.04
5193.5
5191.36
5189.05
5187.29
5185.34
5183.96
5182.31
5181.17
5179.76
5178.55
5177.28
5176.49
5175.38
5174.51
5173.84
5173.32
5172.9
5172.26
5171.81
5171.52
5171.25
5170.66
5170.61
5170.56
5170.47
5170.4
5170.18
5170.28
5170.22
5170.58
5170.58
5171.28
5171.32
5172.24
5172.24
5173.18
5173.34
5174.43
5174.65
5175.78
5176.21
5177.45
5177.98
5179.35
5179.95
5181.49
5182.12
5184.07
5184.55
5188.01
5188.27
5273.07
5387.35
26031.5
8252.12
7559.03
7038.47
6659.83
6382.54
6175.32
6016.05
5891.11
5790.67
5708.97
5641.07
5584.43
5536.16
5495.18
5459.54
5428.89
5401.78
5378.26
5357.13
5338.7
5321.91
5307.21
5293.63
5281.74
5270.64
5260.92
5251.68
5243.63
5235.92
5229.22
5222.69
5217.07
5211.51
5206.77
5202.04
5198.05
5193.93
5190.54
5187.01
5184.16
5181.04
5178.59
5176
5173.84
5171.49
5169.7
5167.71
5166.3
5164.62
5163.45
5162.02
5160.79
5159.49
5158.68
5157.55
5156.66
5155.97
5155.42
5154.98
5154.33
5153.87
5153.55
5153.27
5152.69
5152.6
5152.54
5152.44
5152.35
5152.12
5152.2
5152.12
5152.45
5152.45
5153.12
5153.15
5154.04
5154.04
5154.96
5155.1
5156.18
5156.38
5157.5
5157.91
5159.13
5159.65
5161
5161.59
5163.11
5163.73
5165.66
5166.12
5169.58
5169.85
5257.51
5369.27
24387.4
8252.4
7559.09
7037.12
6656.57
6377.35
6168.42
6007.68
5881.51
5780.02
5697.44
5628.78
5571.5
5522.67
5481.2
5445.13
5414.1
5386.65
5362.84
5341.44
5322.77
5305.77
5290.88
5277.11
5265.07
5253.82
5243.96
5234.6
5226.44
5218.62
5211.83
5205.2
5199.5
5193.86
5189.05
5184.24
5180.2
5176.02
5172.57
5168.99
5166.08
5162.92
5160.42
5157.8
5155.6
5153.21
5151.38
5149.36
5147.91
5146.21
5145.01
5143.55
5142.3
5140.98
5140.13
5138.99
5138.08
5137.36
5136.79
5136.33
5135.67
5135.18
5134.84
5134.56
5133.97
5133.85
5133.78
5133.66
5133.56
5133.32
5133.38
5133.28
5133.57
5133.57
5134.22
5134.23
5135.09
5135.09
5135.99
5136.11
5137.17
5137.36
5138.46
5138.85
5140.06
5140.56
5141.89
5142.47
5143.98
5144.58
5146.49
5146.94
5150.39
5150.66
5241.05
5350.31
22858.4
8252.69
7559.16
7035.76
6653.24
6372.03
6161.32
5999.05
5871.6
5769.02
5685.51
5616.07
5558.1
5508.69
5466.7
5430.19
5398.77
5370.97
5346.84
5325.17
5306.25
5289.01
5273.92
5259.97
5247.76
5236.35
5226.35
5216.86
5208.58
5200.65
5193.76
5187.03
5181.25
5175.52
5170.64
5165.76
5161.65
5157.4
5153.89
5150.26
5147.3
5144.09
5141.55
5138.88
5136.64
5134.21
5132.35
5130.29
5128.81
5127.06
5125.83
5124.35
5123.08
5121.73
5120.86
5119.7
5118.76
5118.01
5117.42
5116.93
5116.27
5115.75
5115.4
5115.1
5114.5
5114.35
5114.27
5114.13
5114.03
5113.77
5113.81
5113.69
5113.95
5113.95
5114.56
5114.56
5115.38
5115.38
5116.26
5116.37
5117.41
5117.57
5118.66
5119.04
5120.23
5120.71
5122.03
5122.59
5124.08
5124.67
5126.56
5126.99
5130.43
5130.7
5223.62
5330.44
21439.5
8252.99
7559.25
7034.4
6649.84
6366.58
6154.02
5990.17
5861.37
5757.66
5673.19
5602.92
5544.25
5494.22
5451.71
5414.72
5382.89
5354.72
5330.27
5308.3
5289.12
5271.64
5256.34
5242.19
5229.8
5218.23
5208.09
5198.46
5190.06
5182.01
5175.01
5168.18
5162.31
5156.49
5151.53
5146.57
5142.39
5138.08
5134.51
5130.82
5127.81
5124.55
5121.95
5119.23
5116.96
5114.49
5112.59
5110.49
5108.97
5107.19
5105.93
5104.42
5103.13
5101.74
5100.84
5099.66
5098.71
5097.92
5097.3
5096.79
5096.12
5095.58
5095.2
5094.89
5094.29
5094.1
5094
5093.85
5093.74
5093.47
5093.48
5093.34
5093.58
5093.56
5094.14
5094.14
5094.92
5094.92
5095.78
5095.86
5096.88
5097.03
5098.1
5098.45
5099.63
5100.09
5101.39
5101.94
5103.41
5103.99
5105.85
5106.26
5109.7
5109.97
5205.16
5309.63
20125.9
8253.29
7559.35
7033.02
6646.39
6361.01
6146.54
5981.05
5850.85
5745.96
5660.49
5589.36
5529.95
5479.28
5436.2
5398.72
5366.46
5337.91
5313.12
5290.84
5271.38
5253.66
5238.14
5223.78
5211.21
5199.46
5189.17
5179.39
5170.86
5162.68
5155.58
5148.64
5142.68
5136.76
5131.73
5126.68
5122.43
5118.05
5114.42
5110.66
5107.6
5104.28
5101.63
5098.86
5096.55
5094.03
5092.09
5089.95
5088.39
5086.58
5085.28
5083.74
5082.43
5081.01
5080.08
5078.88
5077.9
5077.09
5076.44
5075.9
5075.21
5074.66
5074.25
5073.92
5073.32
5073.1
5072.99
5072.82
5072.7
5072.42
5072.4
5072.24
5072.45
5072.42
5072.95
5072.95
5073.69
5073.69
5074.52
5074.59
5075.59
5075.72
5076.78
5077.1
5078.26
5078.71
5079.98
5080.52
5081.96
5082.53
5084.38
5084.77
5088.19
5088.47
5185.62
5287.85
18912.3
8253.59
7559.47
7031.64
6642.88
6355.32
6138.88
5971.68
5840.04
5733.91
5647.4
5575.37
5515.2
5463.85
5420.2
5382.2
5349.49
5320.53
5295.39
5272.79
5253.05
5235.06
5219.31
5204.73
5191.97
5180.04
5169.59
5159.66
5150.99
5142.69
5135.46
5128.42
5122.35
5116.34
5111.22
5106.09
5101.76
5097.31
5093.61
5089.78
5086.66
5083.29
5080.59
5077.77
5075.41
5072.85
5070.87
5068.68
5067.08
5065.23
5063.89
5062.32
5060.99
5059.54
5058.58
5057.36
5056.35
5055.5
5054.82
5054.26
5053.56
5052.98
5052.55
5052.2
5051.6
5051.34
5051.21
5051.02
5050.89
5050.61
5050.56
5050.37
5050.55
5050.51
5051
5051
5051.7
5051.7
5052.5
5052.55
5053.52
5053.64
5054.67
5054.98
5056.12
5056.54
5057.8
5058.32
5059.74
5060.29
5062.12
5062.49
5065.9
5066.18
5164.97
5265.09
17793.6
8253.9
7559.6
7030.26
6639.33
6349.53
6131.05
5962.08
5828.94
5721.54
5633.94
5560.98
5500
5447.95
5403.69
5365.16
5331.98
5302.6
5277.09
5254.15
5234.11
5215.85
5199.85
5185.06
5172.09
5159.97
5149.35
5139.26
5130.45
5122.01
5114.67
5107.5
5101.34
5095.22
5090.01
5084.79
5080.39
5075.86
5072.09
5068.19
5065.01
5061.58
5058.82
5055.94
5053.54
5050.93
5048.91
5046.68
5045.03
5043.14
5041.77
5040.16
5038.8
5037.32
5036.32
5035.08
5034.05
5033.16
5032.45
5031.86
5031.15
5030.54
5030.09
5029.72
5029.11
5028.82
5028.67
5028.46
5028.32
5028.03
5027.96
5027.74
5027.89
5027.84
5028.28
5028.28
5028.93
5028.93
5029.7
5029.74
5030.68
5030.78
5031.8
5032.08
5033.2
5033.6
5034.84
5035.34
5036.74
5037.28
5039.08
5039.43
5042.83
5043.1
5143.21
5241.32
16763.9
8254.21
7559.76
7028.89
6635.74
6343.64
6123.06
5952.26
5817.57
5708.83
5620.1
5546.17
5484.36
5431.59
5386.69
5347.6
5313.93
5284.11
5258.21
5234.92
5214.58
5196.03
5179.78
5164.74
5151.57
5139.25
5128.46
5118.2
5109.24
5100.66
5093.19
5085.9
5079.63
5073.41
5068.1
5062.78
5058.3
5053.69
5049.85
5045.88
5042.63
5039.14
5036.33
5033.39
5030.94
5028.28
5026.21
5023.93
5022.24
5020.31
5018.89
5017.25
5015.87
5014.34
5013.32
5012.05
5010.99
5010.07
5009.33
5008.71
5007.98
5007.34
5006.86
5006.48
5005.86
5005.54
5005.36
5005.13
5004.98
5004.68
5004.59
5004.35
5004.47
5004.4
5004.8
5004.79
5005.39
5005.39
5006.13
5006.15
5007.07
5007.14
5008.14
5008.4
5009.5
5009.88
5011.09
5011.58
5012.96
5013.47
5015.25
5015.59
5018.96
5019.23
5120.3
5216.5
15817.6
8254.52
7559.92
7027.53
6632.11
6337.65
6114.91
5942.23
5805.92
5695.81
5605.91
5530.97
5468.29
5414.76
5369.21
5329.53
5295.35
5265.08
5238.77
5215.12
5194.44
5175.6
5159.08
5143.8
5130.41
5117.88
5106.91
5096.48
5087.37
5078.63
5071.03
5063.61
5057.22
5050.89
5045.49
5040.07
5035.51
5030.81
5026.89
5022.84
5019.53
5015.97
5013.1
5010.1
5007.6
5004.89
5002.77
5000.44
4998.71
4996.73
4995.27
4993.59
4992.18
4990.62
4989.56