/*--------------------------------*- C++ -*----------------------------------*\
| =========                 |                                                 |
| \\      /  F ield         | OpenFOAM: The Open Source CFD Toolbox           |
|  \\    /   O peration     | Version:  v2012                                 |
|   \\  /    A nd           | Website:  www.openfoam.com                      |
|    \\/     M anipulation  |                                                 |
\*---------------------------------------------------------------------------*/
FoamFile
{
    version     2.0;
    format      ascii;
    class       volVectorField;
    location    "23.5";
    object      wallShearStress;
}
// * * * * * * * * * * * * * * * * * * * * * * * * * * * * * * * * * * * * * //

dimensions      [0 2 -2 0 0 0 0];


internalField   uniform (0 0 0);

boundaryField
{
    inlet
    {
        type            calculated;
        value           uniform (0 0 0);
    }
    outlet
    {
        type            calculated;
        value           uniform (0 0 0);
    }
    topWall
    {
        type            calculated;
        value           nonuniform List<vector> 
545
(
(3.57961e-08 -2.51938e-08 0)
(3.57923e-08 -7.04975e-08 0)
(3.57665e-08 -1.17599e-07 0)
(3.57321e-08 -1.63331e-07 0)
(3.56923e-08 -2.07109e-07 0)
(3.56456e-08 -2.49497e-07 0)
(3.55925e-08 -2.90855e-07 0)
(3.55333e-08 -3.31164e-07 0)
(3.54685e-08 -3.70335e-07 0)
(3.53987e-08 -4.08368e-07 0)
(3.53243e-08 -4.45312e-07 0)
(3.52458e-08 -4.81209e-07 0)
(3.51636e-08 -5.16085e-07 0)
(3.5078e-08 -5.49961e-07 0)
(3.49894e-08 -5.82859e-07 0)
(3.48983e-08 -6.14806e-07 0)
(3.48048e-08 -6.4583e-07 0)
(3.47093e-08 -6.75953e-07 0)
(3.4612e-08 -7.052e-07 0)
(3.45133e-08 -7.33596e-07 0)
(3.44134e-08 -7.61163e-07 0)
(3.43125e-08 -7.87925e-07 0)
(3.42108e-08 -8.13904e-07 0)
(3.41085e-08 -8.39123e-07 0)
(3.40058e-08 -8.63603e-07 0)
(3.39029e-08 -8.87366e-07 0)
(3.38e-08 -9.10431e-07 0)
(3.36971e-08 -9.32821e-07 0)
(3.35944e-08 -9.54553e-07 0)
(3.34921e-08 -9.75648e-07 0)
(3.33902e-08 -9.96124e-07 0)
(3.32889e-08 -1.016e-06 0)
(3.31882e-08 -1.03529e-06 0)
(3.30883e-08 -1.05402e-06 0)
(3.29892e-08 -1.0722e-06 0)
(3.28911e-08 -1.08985e-06 0)
(3.27939e-08 -1.10698e-06 0)
(3.26977e-08 -1.1236e-06 0)
(3.26026e-08 -1.13975e-06 0)
(3.25086e-08 -1.15542e-06 0)
(3.24158e-08 -1.17064e-06 0)
(3.23242e-08 -1.18541e-06 0)
(3.22338e-08 -1.19975e-06 0)
(3.21447e-08 -1.21368e-06 0)
(3.20569e-08 -1.2272e-06 0)
(3.19704e-08 -1.24033e-06 0)
(3.18852e-08 -1.25307e-06 0)
(3.18014e-08 -1.26545e-06 0)
(3.1719e-08 -1.27747e-06 0)
(3.16379e-08 -1.28915e-06 0)
(3.15581e-08 -1.30048e-06 0)
(3.14797e-08 -1.3115e-06 0)
(3.14027e-08 -1.32219e-06 0)
(3.13271e-08 -1.33258e-06 0)
(3.12528e-08 -1.34266e-06 0)
(3.11799e-08 -1.35246e-06 0)
(3.11083e-08 -1.36198e-06 0)
(3.10381e-08 -1.37123e-06 0)
(3.09692e-08 -1.38021e-06 0)
(3.09016e-08 -1.38894e-06 0)
(3.08353e-08 -1.39742e-06 0)
(3.07703e-08 -1.40566e-06 0)
(3.07066e-08 -1.41366e-06 0)
(3.06442e-08 -1.42144e-06 0)
(3.0583e-08 -1.42899e-06 0)
(3.0523e-08 -1.43633e-06 0)
(3.04642e-08 -1.44347e-06 0)
(3.04066e-08 -1.4504e-06 0)
(3.03503e-08 -1.45714e-06 0)
(3.0295e-08 -1.46369e-06 0)
(3.0241e-08 -1.47005e-06 0)
(3.01874e-08 -1.47623e-06 0)
(3.01356e-08 -1.48217e-06 0)
(3.00864e-08 -1.48794e-06 0)
(3.00376e-08 -1.49364e-06 0)
(2.9989e-08 -1.49931e-06 0)
(2.99403e-08 -1.50496e-06 0)
(2.98918e-08 -1.51057e-06 0)
(2.98432e-08 -1.51615e-06 0)
(2.97947e-08 -1.52169e-06 0)
(2.97463e-08 -1.5272e-06 0)
(2.96978e-08 -1.53267e-06 0)
(2.96495e-08 -1.53811e-06 0)
(2.96012e-08 -1.54351e-06 0)
(2.95529e-08 -1.54889e-06 0)
(2.95047e-08 -1.55422e-06 0)
(2.94565e-08 -1.55953e-06 0)
(2.94084e-08 -1.5648e-06 0)
(2.93604e-08 -1.57004e-06 0)
(2.93124e-08 -1.57525e-06 0)
(2.92645e-08 -1.58043e-06 0)
(2.92166e-08 -1.58557e-06 0)
(2.91689e-08 -1.59068e-06 0)
(2.91208e-08 -1.59575e-06 0)
(2.90747e-08 -1.60082e-06 0)
(2.90215e-08 -1.60579e-06 0)
(2.89687e-08 -1.61032e-06 0)
(2.89276e-08 -1.61446e-06 0)
(2.88887e-08 -1.61848e-06 0)
(2.88499e-08 -1.6225e-06 0)
(2.8811e-08 -1.62657e-06 0)
(2.87719e-08 -1.63065e-06 0)
(2.87327e-08 -1.63472e-06 0)
(2.86932e-08 -1.6388e-06 0)
(2.86536e-08 -1.64287e-06 0)
(2.86138e-08 -1.64696e-06 0)
(2.85738e-08 -1.65105e-06 0)
(2.85336e-08 -1.65514e-06 0)
(2.84932e-08 -1.65923e-06 0)
(2.84526e-08 -1.66333e-06 0)
(2.84118e-08 -1.66744e-06 0)
(2.83709e-08 -1.67154e-06 0)
(2.83297e-08 -1.67565e-06 0)
(2.82884e-08 -1.67977e-06 0)
(2.82468e-08 -1.68389e-06 0)
(2.82051e-08 -1.68801e-06 0)
(2.81632e-08 -1.69213e-06 0)
(2.81211e-08 -1.69626e-06 0)
(2.80787e-08 -1.7004e-06 0)
(2.80362e-08 -1.70453e-06 0)
(2.79935e-08 -1.70867e-06 0)
(2.79506e-08 -1.71281e-06 0)
(2.79075e-08 -1.71696e-06 0)
(2.78642e-08 -1.72111e-06 0)
(2.78207e-08 -1.72526e-06 0)
(2.7777e-08 -1.72942e-06 0)
(2.77331e-08 -1.73358e-06 0)
(2.7689e-08 -1.73774e-06 0)
(2.76447e-08 -1.74191e-06 0)
(2.76002e-08 -1.74608e-06 0)
(2.75555e-08 -1.75025e-06 0)
(2.75106e-08 -1.75442e-06 0)
(2.74655e-08 -1.7586e-06 0)
(2.74202e-08 -1.76278e-06 0)
(2.73747e-08 -1.76697e-06 0)
(2.73289e-08 -1.77115e-06 0)
(2.7283e-08 -1.77534e-06 0)
(2.72369e-08 -1.77953e-06 0)
(2.71905e-08 -1.78373e-06 0)
(2.7144e-08 -1.78793e-06 0)
(2.70972e-08 -1.79213e-06 0)
(2.70503e-08 -1.79633e-06 0)
(2.70031e-08 -1.80054e-06 0)
(2.69558e-08 -1.80475e-06 0)
(2.69082e-08 -1.80896e-06 0)
(2.68604e-08 -1.81317e-06 0)
(2.68124e-08 -1.81739e-06 0)
(2.67642e-08 -1.8216e-06 0)
(2.67157e-08 -1.82582e-06 0)
(2.66671e-08 -1.83005e-06 0)
(2.66183e-08 -1.83427e-06 0)
(2.65692e-08 -1.8385e-06 0)
(2.65199e-08 -1.84273e-06 0)
(2.64705e-08 -1.84696e-06 0)
(2.64208e-08 -1.85119e-06 0)
(2.63709e-08 -1.85543e-06 0)
(2.63207e-08 -1.85967e-06 0)
(2.62704e-08 -1.86391e-06 0)
(2.62198e-08 -1.86815e-06 0)
(2.61691e-08 -1.87239e-06 0)
(2.61181e-08 -1.87663e-06 0)
(2.60669e-08 -1.88088e-06 0)
(2.60155e-08 -1.88513e-06 0)
(2.59639e-08 -1.88938e-06 0)
(2.5912e-08 -1.89363e-06 0)
(2.58599e-08 -1.89788e-06 0)
(2.58077e-08 -1.90214e-06 0)
(2.57552e-08 -1.90639e-06 0)
(2.57024e-08 -1.91065e-06 0)
(2.56495e-08 -1.91491e-06 0)
(2.55963e-08 -1.91917e-06 0)
(2.5543e-08 -1.92343e-06 0)
(2.54894e-08 -1.92769e-06 0)
(2.54356e-08 -1.93195e-06 0)
(2.53815e-08 -1.93621e-06 0)
(2.53273e-08 -1.94048e-06 0)
(2.52728e-08 -1.94474e-06 0)
(2.52181e-08 -1.94901e-06 0)
(2.51632e-08 -1.95328e-06 0)
(2.5108e-08 -1.95754e-06 0)
(2.50527e-08 -1.96181e-06 0)
(2.49971e-08 -1.96608e-06 0)
(2.49413e-08 -1.97035e-06 0)
(2.48852e-08 -1.97462e-06 0)
(2.4829e-08 -1.97889e-06 0)
(2.47725e-08 -1.98316e-06 0)
(2.47158e-08 -1.98743e-06 0)
(2.46589e-08 -1.99171e-06 0)
(2.46017e-08 -1.99598e-06 0)
(2.45444e-08 -2.00025e-06 0)
(2.44868e-08 -2.00452e-06 0)
(2.4429e-08 -2.00879e-06 0)
(2.43709e-08 -2.01306e-06 0)
(2.43127e-08 -2.01734e-06 0)
(2.42542e-08 -2.02161e-06 0)
(2.41955e-08 -2.02588e-06 0)
(2.41365e-08 -2.03015e-06 0)
(2.40774e-08 -2.03442e-06 0)
(2.4018e-08 -2.03869e-06 0)
(2.39584e-08 -2.04296e-06 0)
(2.38985e-08 -2.04723e-06 0)
(2.38385e-08 -2.05149e-06 0)
(2.37782e-08 -2.05576e-06 0)
(2.37177e-08 -2.06003e-06 0)
(2.3657e-08 -2.06429e-06 0)
(2.3596e-08 -2.06856e-06 0)
(2.35348e-08 -2.07282e-06 0)
(2.34734e-08 -2.07709e-06 0)
(2.34118e-08 -2.08135e-06 0)
(2.33499e-08 -2.08561e-06 0)
(2.32878e-08 -2.08987e-06 0)
(2.32255e-08 -2.09412e-06 0)
(2.3163e-08 -2.09838e-06 0)
(2.31003e-08 -2.10264e-06 0)
(2.30373e-08 -2.10689e-06 0)
(2.29741e-08 -2.11114e-06 0)
(2.29106e-08 -2.11539e-06 0)
(2.2847e-08 -2.11964e-06 0)
(2.27831e-08 -2.12389e-06 0)
(2.2719e-08 -2.12813e-06 0)
(2.26547e-08 -2.13237e-06 0)
(2.25902e-08 -2.13661e-06 0)
(2.25254e-08 -2.14085e-06 0)
(2.24604e-08 -2.14509e-06 0)
(2.23952e-08 -2.14932e-06 0)
(2.23298e-08 -2.15355e-06 0)
(2.22641e-08 -2.15778e-06 0)
(2.21982e-08 -2.16201e-06 0)
(2.21321e-08 -2.16623e-06 0)
(2.20658e-08 -2.17045e-06 0)
(2.19993e-08 -2.17467e-06 0)
(2.19325e-08 -2.17888e-06 0)
(2.18655e-08 -2.1831e-06 0)
(2.17983e-08 -2.18731e-06 0)
(2.17309e-08 -2.19151e-06 0)
(2.16633e-08 -2.19572e-06 0)
(2.15954e-08 -2.19992e-06 0)
(2.15274e-08 -2.20411e-06 0)
(2.14591e-08 -2.20831e-06 0)
(2.13906e-08 -2.2125e-06 0)
(2.13218e-08 -2.21668e-06 0)
(2.12529e-08 -2.22086e-06 0)
(2.11837e-08 -2.22504e-06 0)
(2.11144e-08 -2.22922e-06 0)
(2.10448e-08 -2.23339e-06 0)
(2.0975e-08 -2.23755e-06 0)
(2.0905e-08 -2.24172e-06 0)
(2.08347e-08 -2.24588e-06 0)
(2.07643e-08 -2.25003e-06 0)
(2.06936e-08 -2.25418e-06 0)
(2.06228e-08 -2.25833e-06 0)
(2.05517e-08 -2.26247e-06 0)
(2.04804e-08 -2.2666e-06 0)
(2.04089e-08 -2.27074e-06 0)
(2.03372e-08 -2.27486e-06 0)
(2.02653e-08 -2.27899e-06 0)
(2.01932e-08 -2.2831e-06 0)
(2.01209e-08 -2.28722e-06 0)
(2.00484e-08 -2.29132e-06 0)
(1.99756e-08 -2.29542e-06 0)
(1.99027e-08 -2.29952e-06 0)
(1.98296e-08 -2.30361e-06 0)
(1.97562e-08 -2.3077e-06 0)
(1.96827e-08 -2.31178e-06 0)
(1.96089e-08 -2.31585e-06 0)
(1.95351e-08 -2.31992e-06 0)
(1.94608e-08 -2.32398e-06 0)
(1.9388e-08 -2.32806e-06 0)
(1.93112e-08 -2.33207e-06 0)
(1.92315e-08 -2.33588e-06 0)
(1.91607e-08 -2.33955e-06 0)
(1.90944e-08 -2.34317e-06 0)
(1.9027e-08 -2.34679e-06 0)
(1.89591e-08 -2.35047e-06 0)
(1.88904e-08 -2.35419e-06 0)
(1.88209e-08 -2.35793e-06 0)
(1.87506e-08 -2.36169e-06 0)
(1.86795e-08 -2.36547e-06 0)
(1.86076e-08 -2.36929e-06 0)
(1.85349e-08 -2.37313e-06 0)
(1.84613e-08 -2.377e-06 0)
(1.83869e-08 -2.38089e-06 0)
(1.83117e-08 -2.38481e-06 0)
(1.82357e-08 -2.38876e-06 0)
(1.81588e-08 -2.39273e-06 0)
(1.80811e-08 -2.39673e-06 0)
(1.80024e-08 -2.40076e-06 0)
(1.7923e-08 -2.40481e-06 0)
(1.78426e-08 -2.40888e-06 0)
(1.77614e-08 -2.41299e-06 0)
(1.76793e-08 -2.41711e-06 0)
(1.75962e-08 -2.42127e-06 0)
(1.75123e-08 -2.42545e-06 0)
(1.74275e-08 -2.42965e-06 0)
(1.73417e-08 -2.43388e-06 0)
(1.72551e-08 -2.43813e-06 0)
(1.71675e-08 -2.44241e-06 0)
(1.70789e-08 -2.44671e-06 0)
(1.69894e-08 -2.45104e-06 0)
(1.6899e-08 -2.45539e-06 0)
(1.68076e-08 -2.45976e-06 0)
(1.67153e-08 -2.46416e-06 0)
(1.66219e-08 -2.46858e-06 0)
(1.65276e-08 -2.47302e-06 0)
(1.64323e-08 -2.47749e-06 0)
(1.63361e-08 -2.48198e-06 0)
(1.62388e-08 -2.48649e-06 0)
(1.61405e-08 -2.49102e-06 0)
(1.60412e-08 -2.49557e-06 0)
(1.59409e-08 -2.50015e-06 0)
(1.58396e-08 -2.50474e-06 0)
(1.57373e-08 -2.50935e-06 0)
(1.56339e-08 -2.51399e-06 0)
(1.55295e-08 -2.51864e-06 0)
(1.54241e-08 -2.52331e-06 0)
(1.53176e-08 -2.52801e-06 0)
(1.52101e-08 -2.53271e-06 0)
(1.51015e-08 -2.53744e-06 0)
(1.49918e-08 -2.54218e-06 0)
(1.48811e-08 -2.54694e-06 0)
(1.47694e-08 -2.55172e-06 0)
(1.46565e-08 -2.55651e-06 0)
(1.45426e-08 -2.56131e-06 0)
(1.44277e-08 -2.56613e-06 0)
(1.43116e-08 -2.57097e-06 0)
(1.41945e-08 -2.57581e-06 0)
(1.40763e-08 -2.58067e-06 0)
(1.3957e-08 -2.58554e-06 0)
(1.38366e-08 -2.59042e-06 0)
(1.37151e-08 -2.59531e-06 0)
(1.35926e-08 -2.60021e-06 0)
(1.34689e-08 -2.60512e-06 0)
(1.33442e-08 -2.61003e-06 0)
(1.32184e-08 -2.61496e-06 0)
(1.30915e-08 -2.61988e-06 0)
(1.29636e-08 -2.62482e-06 0)
(1.28345e-08 -2.62976e-06 0)
(1.27044e-08 -2.6347e-06 0)
(1.25732e-08 -2.63964e-06 0)
(1.24409e-08 -2.64459e-06 0)
(1.23076e-08 -2.64954e-06 0)
(1.21732e-08 -2.65448e-06 0)
(1.20377e-08 -2.65943e-06 0)
(1.19012e-08 -2.66437e-06 0)
(1.17636e-08 -2.66931e-06 0)
(1.1625e-08 -2.67424e-06 0)
(1.14853e-08 -2.67917e-06 0)
(1.13447e-08 -2.68409e-06 0)
(1.1203e-08 -2.689e-06 0)
(1.10603e-08 -2.69391e-06 0)
(1.09165e-08 -2.6988e-06 0)
(1.07718e-08 -2.70368e-06 0)
(1.06262e-08 -2.70855e-06 0)
(1.04795e-08 -2.7134e-06 0)
(1.03319e-08 -2.71824e-06 0)
(1.01834e-08 -2.72306e-06 0)
(1.00339e-08 -2.72786e-06 0)
(9.8835e-09 -2.73264e-06 0)
(9.7322e-09 -2.73741e-06 0)
(9.58003e-09 -2.74214e-06 0)
(9.42698e-09 -2.74686e-06 0)
(9.27309e-09 -2.75154e-06 0)
(9.11837e-09 -2.7562e-06 0)
(8.96284e-09 -2.76084e-06 0)
(8.80651e-09 -2.76544e-06 0)
(8.64942e-09 -2.77e-06 0)
(8.49158e-09 -2.77454e-06 0)
(8.33301e-09 -2.77904e-06 0)
(8.17375e-09 -2.7835e-06 0)
(8.0138e-09 -2.78792e-06 0)
(7.85321e-09 -2.79231e-06 0)
(7.692e-09 -2.79665e-06 0)
(7.53019e-09 -2.80094e-06 0)
(7.36781e-09 -2.80519e-06 0)
(7.20489e-09 -2.80939e-06 0)
(7.04147e-09 -2.81354e-06 0)
(6.87757e-09 -2.81765e-06 0)
(6.71323e-09 -2.82169e-06 0)
(6.54848e-09 -2.82568e-06 0)
(6.38336e-09 -2.82962e-06 0)
(6.21789e-09 -2.83349e-06 0)
(6.05213e-09 -2.83731e-06 0)
(5.88609e-09 -2.84106e-06 0)
(5.71983e-09 -2.84475e-06 0)
(5.55338e-09 -2.84836e-06 0)
(5.38679e-09 -2.85191e-06 0)
(5.22008e-09 -2.85539e-06 0)
(5.05332e-09 -2.8588e-06 0)
(4.88653e-09 -2.86213e-06 0)
(4.71976e-09 -2.86538e-06 0)
(4.55306e-09 -2.86856e-06 0)
(4.38648e-09 -2.87165e-06 0)
(4.22005e-09 -2.87466e-06 0)
(4.05384e-09 -2.87758e-06 0)
(3.88787e-09 -2.88042e-06 0)
(3.72222e-09 -2.88317e-06 0)
(3.55691e-09 -2.88582e-06 0)
(3.39202e-09 -2.88839e-06 0)
(3.22758e-09 -2.89085e-06 0)
(3.06365e-09 -2.89322e-06 0)
(2.90028e-09 -2.89549e-06 0)
(2.73753e-09 -2.89766e-06 0)
(2.57544e-09 -2.89973e-06 0)
(2.41408e-09 -2.90168e-06 0)
(2.25351e-09 -2.90354e-06 0)
(2.09376e-09 -2.90528e-06 0)
(1.93492e-09 -2.90691e-06 0)
(1.77702e-09 -2.90843e-06 0)
(1.62013e-09 -2.90983e-06 0)
(1.4643e-09 -2.91112e-06 0)
(1.30961e-09 -2.91229e-06 0)
(1.15609e-09 -2.91334e-06 0)
(1.00382e-09 -2.91426e-06 0)
(8.52855e-10 -2.91507e-06 0)
(7.03252e-10 -2.91575e-06 0)
(5.55073e-10 -2.9163e-06 0)
(4.08377e-10 -2.91672e-06 0)
(2.63224e-10 -2.91701e-06 0)
(1.19675e-10 -2.91718e-06 0)
(-2.22105e-11 -2.91721e-06 0)
(-1.62374e-10 -2.9171e-06 0)
(-3.00756e-10 -2.91686e-06 0)
(-4.37298e-10 -2.91649e-06 0)
(-5.71945e-10 -2.91598e-06 0)
(-7.04638e-10 -2.91533e-06 0)
(-8.35323e-10 -2.91454e-06 0)
(-9.63946e-10 -2.91361e-06 0)
(-1.09045e-09 -2.91254e-06 0)
(-1.21479e-09 -2.91133e-06 0)
(-1.33692e-09 -2.90998e-06 0)
(-1.45677e-09 -2.90848e-06 0)
(-1.57432e-09 -2.90684e-06 0)
(-1.6895e-09 -2.90506e-06 0)
(-1.80227e-09 -2.90313e-06 0)
(-1.9126e-09 -2.90106e-06 0)
(-2.02044e-09 -2.89884e-06 0)
(-2.12575e-09 -2.89648e-06 0)
(-2.22849e-09 -2.89398e-06 0)
(-2.32862e-09 -2.89133e-06 0)
(-2.42611e-09 -2.88854e-06 0)
(-2.52091e-09 -2.8856e-06 0)
(-2.613e-09 -2.88253e-06 0)
(-2.70234e-09 -2.8793e-06 0)
(-2.78888e-09 -2.87594e-06 0)
(-2.8726e-09 -2.87243e-06 0)
(-2.95345e-09 -2.86879e-06 0)
(-3.03142e-09 -2.865e-06 0)
(-3.10637e-09 -2.86109e-06 0)
(-3.17905e-09 -2.85698e-06 0)
(-3.24767e-09 -2.8528e-06 0)
(-3.31608e-09 -2.84806e-06 0)
(-3.38886e-09 -2.84257e-06 0)
(-3.45993e-09 -2.83699e-06 0)
(-3.5258e-09 -2.83135e-06 0)
(-3.58691e-09 -2.82558e-06 0)
(-3.64328e-09 -2.8197e-06 0)
(-3.69504e-09 -2.81375e-06 0)
(-3.7423e-09 -2.80772e-06 0)
(-3.7852e-09 -2.80161e-06 0)
(-3.82388e-09 -2.79544e-06 0)
(-3.85848e-09 -2.78921e-06 0)
(-3.88914e-09 -2.78292e-06 0)
(-3.916e-09 -2.77659e-06 0)
(-3.93917e-09 -2.77022e-06 0)
(-3.9588e-09 -2.76382e-06 0)
(-3.975e-09 -2.75739e-06 0)
(-3.9879e-09 -2.75093e-06 0)
(-3.99762e-09 -2.74445e-06 0)
(-4.00425e-09 -2.73797e-06 0)
(-4.00792e-09 -2.73147e-06 0)
(-4.00873e-09 -2.72497e-06 0)
(-4.00677e-09 -2.71847e-06 0)
(-4.00214e-09 -2.71198e-06 0)
(-3.99494e-09 -2.7055e-06 0)
(-3.98525e-09 -2.69903e-06 0)
(-3.97316e-09 -2.69258e-06 0)
(-3.95874e-09 -2.68615e-06 0)
(-3.94208e-09 -2.67975e-06 0)
(-3.92326e-09 -2.67337e-06 0)
(-3.90233e-09 -2.66703e-06 0)
(-3.87938e-09 -2.66072e-06 0)
(-3.85447e-09 -2.65445e-06 0)
(-3.82765e-09 -2.64823e-06 0)
(-3.79901e-09 -2.64204e-06 0)
(-3.76858e-09 -2.63591e-06 0)
(-3.73643e-09 -2.62983e-06 0)
(-3.70262e-09 -2.6238e-06 0)
(-3.6672e-09 -2.61783e-06 0)
(-3.63021e-09 -2.61191e-06 0)
(-3.5917e-09 -2.60606e-06 0)
(-3.55173e-09 -2.60027e-06 0)
(-3.51034e-09 -2.59455e-06 0)
(-3.46756e-09 -2.58889e-06 0)
(-3.42345e-09 -2.58331e-06 0)
(-3.37804e-09 -2.5778e-06 0)
(-3.33137e-09 -2.57236e-06 0)
(-3.28347e-09 -2.567e-06 0)
(-3.23438e-09 -2.56172e-06 0)
(-3.18414e-09 -2.55652e-06 0)
(-3.13277e-09 -2.5514e-06 0)
(-3.08031e-09 -2.54636e-06 0)
(-3.02679e-09 -2.54141e-06 0)
(-2.97223e-09 -2.53655e-06 0)
(-2.91667e-09 -2.53178e-06 0)
(-2.86013e-09 -2.5271e-06 0)
(-2.80263e-09 -2.52251e-06 0)
(-2.7442e-09 -2.51801e-06 0)
(-2.68487e-09 -2.51361e-06 0)
(-2.62466e-09 -2.50931e-06 0)
(-2.56359e-09 -2.5051e-06 0)
(-2.50169e-09 -2.501e-06 0)
(-2.43898e-09 -2.49699e-06 0)
(-2.37548e-09 -2.49309e-06 0)
(-2.31121e-09 -2.48929e-06 0)
(-2.24619e-09 -2.4856e-06 0)
(-2.18046e-09 -2.48201e-06 0)
(-2.11402e-09 -2.47853e-06 0)
(-2.0469e-09 -2.47515e-06 0)
(-1.97912e-09 -2.47189e-06 0)
(-1.91071e-09 -2.46873e-06 0)
(-1.84168e-09 -2.46569e-06 0)
(-1.77205e-09 -2.46276e-06 0)
(-1.70185e-09 -2.45994e-06 0)
(-1.63109e-09 -2.45724e-06 0)
(-1.5598e-09 -2.45465e-06 0)
(-1.488e-09 -2.45218e-06 0)
(-1.41569e-09 -2.44982e-06 0)
(-1.34291e-09 -2.44758e-06 0)
(-1.26967e-09 -2.44546e-06 0)
(-1.19599e-09 -2.44346e-06 0)
(-1.12188e-09 -2.44157e-06 0)
(-1.04737e-09 -2.43981e-06 0)
(-9.7247e-10 -2.43817e-06 0)
(-8.97221e-10 -2.43665e-06 0)
(-8.21655e-10 -2.43525e-06 0)
(-7.45831e-10 -2.43399e-06 0)
(-6.69819e-10 -2.43279e-06 0)
(-5.93749e-10 -2.43193e-06 0)
(-5.17693e-10 -2.43046e-06 0)
(-4.42036e-10 -2.43152e-06 0)
(-3.66052e-10 -2.42454e-06 0)
(-2.92398e-10 -2.44373e-06 0)
(-2.10584e-10 -2.37018e-06 0)
(-1.56497e-10 -2.56454e-06 0)
(-7.44601e-11 -2.23971e-06 0)
)
;
    }
    bottomWall
    {
        type            calculated;
        value           nonuniform List<vector> 
449
(
(-48.5413 -0.964217 0)
(-19.7581 -0.00515516 0)
(-14.3539 -0.00113334 0)
(-12.0508 -0.000542813 0)
(-10.6563 -0.00034645 0)
(-9.68525 -0.000245867 0)
(-8.97356 -0.000176413 0)
(-8.47512 -0.000109729 0)
(-8.21967 -2.2626e-05 0)
(-8.32173 0.00014915 0)
(-9.25599 0.000314958 0)
(-10.5045 0.000309563 0)
(-11.4007 0.000202236 0)
(-11.9086 0.000111964 0)
(-12.1804 5.91988e-05 0)
(-12.322 2.88508e-05 0)
(-12.3822 9.22866e-06 0)
(-12.3866 -4.16998e-06 0)
(-12.3528 -1.26923e-05 0)
(-12.2969 -1.7943e-05 0)
(-12.2258 -2.12062e-05 0)
(-12.1466 -2.28346e-05 0)
(-12.0635 -2.34711e-05 0)
(-11.9794 -2.35036e-05 0)
(-11.8957 -2.31789e-05 0)
(-11.8135 -2.26662e-05 0)
(-11.7331 -2.20365e-05 0)
(-11.655 -2.13195e-05 0)
(-11.5794 -2.05707e-05 0)
(-11.5064 -1.98179e-05 0)
(-11.4359 -1.9078e-05 0)
(-11.3679 -1.83592e-05 0)
(-11.3023 -1.76671e-05 0)
(-11.2391 -1.70015e-05 0)
(-11.1781 -1.6376e-05 0)
(-11.1191 -1.57888e-05 0)
(-11.0621 -1.52215e-05 0)
(-11.007 -1.46756e-05 0)
(-10.9538 -1.41561e-05 0)
(-10.9024 -1.36646e-05 0)
(-10.8525 -1.31996e-05 0)
(-10.8043 -1.27599e-05 0)
(-10.7575 -1.23448e-05 0)
(-10.7121 -1.19537e-05 0)
(-10.668 -1.15869e-05 0)
(-10.6252 -1.12357e-05 0)
(-10.5835 -1.09025e-05 0)
(-10.543 -1.06133e-05 0)
(-10.5033 -1.03776e-05 0)
(-10.4644 -1.01667e-05 0)
(-10.4261 -9.95751e-06 0)
(-10.3886 -9.75019e-06 0)
(-10.3517 -9.54411e-06 0)
(-10.3156 -9.34242e-06 0)
(-10.2801 -9.1462e-06 0)
(-10.2453 -8.9559e-06 0)
(-10.2111 -8.77177e-06 0)
(-10.1776 -8.59304e-06 0)
(-10.1446 -8.41981e-06 0)
(-10.1122 -8.25332e-06 0)
(-10.0804 -8.09115e-06 0)
(-10.0492 -7.93444e-06 0)
(-10.0184 -7.78239e-06 0)
(-9.98819 -7.63538e-06 0)
(-9.95846 -7.49279e-06 0)
(-9.92922 -7.35422e-06 0)
(-9.90045 -7.22144e-06 0)
(-9.87212 -7.09768e-06 0)
(-9.84419 -6.97875e-06 0)
(-9.81667 -6.85823e-06 0)
(-9.78957 -6.73885e-06 0)
(-9.76287 -6.6223e-06 0)
(-9.73658 -6.5089e-06 0)
(-9.71067 -6.39838e-06 0)
(-9.68514 -6.29147e-06 0)
(-9.65997 -6.18735e-06 0)
(-9.63516 -6.08648e-06 0)
(-9.61068 -5.98804e-06 0)
(-9.58656 -5.89277e-06 0)
(-9.56274 -5.79973e-06 0)
(-9.53926 -5.70919e-06 0)
(-9.51608 -5.62083e-06 0)
(-9.49321 -5.53453e-06 0)
(-9.47063 -5.45009e-06 0)
(-9.44835 -5.36749e-06 0)
(-9.42634 -5.28711e-06 0)
(-9.40462 -5.20818e-06 0)
(-9.38316 -5.13185e-06 0)
(-9.36198 -5.05682e-06 0)
(-9.34105 -4.98388e-06 0)
(-9.32037 -4.91246e-06 0)
(-9.29994 -4.84225e-06 0)
(-9.27975 -4.77475e-06 0)
(-9.25979 -4.7087e-06 0)
(-9.24006 -4.64517e-06 0)
(-9.22055 -4.5848e-06 0)
(-9.20124 -4.52413e-06 0)
(-9.18215 -4.46334e-06 0)
(-9.16327 -4.40277e-06 0)
(-9.14461 -4.34301e-06 0)
(-9.12615 -4.28582e-06 0)
(-9.10789 -4.22918e-06 0)
(-9.08983 -4.17316e-06 0)
(-9.07196 -4.11966e-06 0)
(-9.05429 -4.06594e-06 0)
(-9.0368 -4.01363e-06 0)
(-9.01949 -3.9629e-06 0)
(-9.00237 -3.91231e-06 0)
(-8.98542 -3.86294e-06 0)
(-8.96864 -3.81527e-06 0)
(-8.95203 -3.76724e-06 0)
(-8.9356 -3.72083e-06 0)
(-8.91932 -3.67566e-06 0)
(-8.90321 -3.63053e-06 0)
(-8.88725 -3.58636e-06 0)
(-8.87145 -3.54391e-06 0)
(-8.8558 -3.50117e-06 0)
(-8.84031 -3.45926e-06 0)
(-8.82495 -3.41911e-06 0)
(-8.80975 -3.37885e-06 0)
(-8.79468 -3.33875e-06 0)
(-8.77977 -3.30072e-06 0)
(-8.76497 -3.26277e-06 0)
(-8.75033 -3.2248e-06 0)
(-8.73581 -3.18823e-06 0)
(-8.72143 -3.15268e-06 0)
(-8.70717 -3.11665e-06 0)
(-8.69305 -3.08164e-06 0)
(-8.67904 -3.04801e-06 0)
(-8.66516 -3.01415e-06 0)
(-8.65139 -2.98027e-06 0)
(-8.63776 -2.94813e-06 0)
(-8.62423 -2.91643e-06 0)
(-8.61083 -2.88455e-06 0)
(-8.59752 -2.85372e-06 0)
(-8.58434 -2.8243e-06 0)
(-8.57125 -2.7952e-06 0)
(-8.55828 -2.76612e-06 0)
(-8.5454 -2.73785e-06 0)
(-8.53264 -2.70923e-06 0)
(-8.51996 -2.68053e-06 0)
(-8.50741 -2.65195e-06 0)
(-8.49494 -2.6249e-06 0)
(-8.48259 -2.59793e-06 0)
(-8.47032 -2.57093e-06 0)
(-8.45817 -2.54422e-06 0)
(-8.44609 -2.51875e-06 0)
(-8.43412 -2.49321e-06 0)
(-8.42224 -2.46766e-06 0)
(-8.41046 -2.4425e-06 0)
(-8.39876 -2.41845e-06 0)
(-8.38716 -2.39425e-06 0)
(-8.37564 -2.37011e-06 0)
(-8.36422 -2.3463e-06 0)
(-8.35287 -2.32354e-06 0)
(-8.34162 -2.30066e-06 0)
(-8.33045 -2.27784e-06 0)
(-8.31936 -2.25524e-06 0)
(-8.30836 -2.23376e-06 0)
(-8.29743 -2.21223e-06 0)
(-8.28659 -2.19084e-06 0)
(-8.27582 -2.16958e-06 0)
(-8.26514 -2.14934e-06 0)
(-8.25452 -2.12944e-06 0)
(-8.24398 -2.10929e-06 0)
(-8.23352 -2.08922e-06 0)
(-8.22313 -2.06997e-06 0)
(-8.21281 -2.05121e-06 0)
(-8.20256 -2.03227e-06 0)
(-8.19238 -2.01293e-06 0)
(-8.18228 -1.99486e-06 0)
(-8.17224 -1.97675e-06 0)
(-8.16228 -1.95625e-06 0)
(-8.15294 -1.94155e-06 0)
(-8.14415 -1.92982e-06 0)
(-8.13531 -1.91359e-06 0)
(-8.12648 -1.89785e-06 0)
(-8.1176 -1.88256e-06 0)
(-8.10872 -1.86642e-06 0)
(-8.0998 -1.85051e-06 0)
(-8.09088 -1.83485e-06 0)
(-8.08192 -1.81943e-06 0)
(-8.07295 -1.8037e-06 0)
(-8.06396 -1.78765e-06 0)
(-8.05496 -1.77192e-06 0)
(-8.04593 -1.75655e-06 0)
(-8.03689 -1.74135e-06 0)
(-8.02782 -1.7258e-06 0)
(-8.01875 -1.70992e-06 0)
(-8.00966 -1.69453e-06 0)
(-8.00055 -1.67943e-06 0)
(-7.99142 -1.66441e-06 0)
(-7.98229 -1.64903e-06 0)
(-7.97313 -1.63375e-06 0)
(-7.96397 -1.6188e-06 0)
(-7.95478 -1.60427e-06 0)
(-7.94559 -1.5894e-06 0)
(-7.93637 -1.57438e-06 0)
(-7.92715 -1.55945e-06 0)
(-7.91791 -1.54498e-06 0)
(-7.90867 -1.53089e-06 0)
(-7.8994 -1.51709e-06 0)
(-7.89012 -1.50276e-06 0)
(-7.88083 -1.48824e-06 0)
(-7.87153 -1.47381e-06 0)
(-7.86221 -1.45914e-06 0)
(-7.8529 -1.44436e-06 0)
(-7.84358 -1.42964e-06 0)
(-7.83425 -1.41536e-06 0)
(-7.82492 -1.40101e-06 0)
(-7.81558 -1.38641e-06 0)
(-7.80624 -1.3718e-06 0)
(-7.7969 -1.35765e-06 0)
(-7.78755 -1.34345e-06 0)
(-7.7782 -1.3292e-06 0)
(-7.76885 -1.31463e-06 0)
(-7.75951 -1.30053e-06 0)
(-7.75016 -1.28677e-06 0)
(-7.74081 -1.27272e-06 0)
(-7.73146 -1.25874e-06 0)
(-7.72213 -1.24484e-06 0)
(-7.71278 -1.23137e-06 0)
(-7.70344 -1.21769e-06 0)
(-7.69411 -1.20392e-06 0)
(-7.68478 -1.19026e-06 0)
(-7.67546 -1.17703e-06 0)
(-7.66614 -1.16372e-06 0)
(-7.65682 -1.15048e-06 0)
(-7.64752 -1.13723e-06 0)
(-7.63822 -1.12441e-06 0)
(-7.62892 -1.1117e-06 0)
(-7.61963 -1.09882e-06 0)
(-7.61035 -1.08594e-06 0)
(-7.60108 -1.07343e-06 0)
(-7.59182 -1.06092e-06 0)
(-7.58256 -1.04823e-06 0)
(-7.57332 -1.03555e-06 0)
(-7.56409 -1.02304e-06 0)
(-7.55487 -1.01074e-06 0)
(-7.54567 -9.98391e-07 0)
(-7.53648 -9.86046e-07 0)
(-7.52731 -9.74169e-07 0)
(-7.51814 -9.62392e-07 0)
(-7.50899 -9.50529e-07 0)
(-7.49986 -9.38656e-07 0)
(-7.49074 -9.27204e-07 0)
(-7.48163 -9.15754e-07 0)
(-7.47255 -9.04354e-07 0)
(-7.46347 -8.92858e-07 0)
(-7.45442 -8.8177e-07 0)
(-7.44537 -8.70608e-07 0)
(-7.43636 -8.59398e-07 0)
(-7.42735 -8.48298e-07 0)
(-7.41838 -8.37476e-07 0)
(-7.40941 -8.2675e-07 0)
(-7.40047 -8.15937e-07 0)
(-7.39154 -8.05411e-07 0)
(-7.38264 -7.94963e-07 0)
(-7.37376 -7.84621e-07 0)
(-7.3649 -7.74182e-07 0)
(-7.35606 -7.63927e-07 0)
(-7.34725 -7.53879e-07 0)
(-7.33845 -7.43694e-07 0)
(-7.32969 -7.33387e-07 0)
(-7.32094 -7.23512e-07 0)
(-7.31223 -7.13595e-07 0)
(-7.30354 -7.03861e-07 0)
(-7.29488 -6.94269e-07 0)
(-7.28624 -6.84951e-07 0)
(-7.27762 -6.75779e-07 0)
(-7.26903 -6.66574e-07 0)
(-7.26046 -6.57448e-07 0)
(-7.25192 -6.48514e-07 0)
(-7.24341 -6.39775e-07 0)
(-7.23491 -6.31187e-07 0)
(-7.22644 -6.22634e-07 0)
(-7.21799 -6.14399e-07 0)
(-7.20957 -6.05911e-07 0)
(-7.20117 -5.97474e-07 0)
(-7.1928 -5.89321e-07 0)
(-7.18446 -5.81013e-07 0)
(-7.17614 -5.72835e-07 0)
(-7.16785 -5.64866e-07 0)
(-7.15959 -5.57007e-07 0)
(-7.15135 -5.49287e-07 0)
(-7.14314 -5.41686e-07 0)
(-7.13496 -5.34038e-07 0)
(-7.1268 -5.2669e-07 0)
(-7.11867 -5.19236e-07 0)
(-7.11057 -5.11832e-07 0)
(-7.1025 -5.04697e-07 0)
(-7.09445 -4.97509e-07 0)
(-7.08643 -4.90421e-07 0)
(-7.07844 -4.83397e-07 0)
(-7.07048 -4.76602e-07 0)
(-7.06254 -4.69817e-07 0)
(-7.05464 -4.63114e-07 0)
(-7.04676 -4.56623e-07 0)
(-7.03891 -4.50122e-07 0)
(-7.03108 -4.43756e-07 0)
(-7.02329 -4.37352e-07 0)
(-7.01552 -4.31131e-07 0)
(-7.00778 -4.25032e-07 0)
(-7.00007 -4.18988e-07 0)
(-6.99238 -4.13027e-07 0)
(-6.98472 -4.07308e-07 0)
(-6.97708 -4.01488e-07 0)
(-6.96947 -3.95813e-07 0)
(-6.96188 -3.90292e-07 0)
(-6.95433 -3.84764e-07 0)
(-6.94679 -3.79283e-07 0)
(-6.93929 -3.74002e-07 0)
(-6.93181 -3.68674e-07 0)
(-6.92436 -3.63434e-07 0)
(-6.91692 -3.58213e-07 0)
(-6.90953 -3.53077e-07 0)
(-6.90215 -3.48023e-07 0)
(-6.89481 -3.43036e-07 0)
(-6.88748 -3.38086e-07 0)
(-6.88019 -3.33286e-07 0)
(-6.87292 -3.28524e-07 0)
(-6.86568 -3.23765e-07 0)
(-6.85846 -3.19116e-07 0)
(-6.85128 -3.14498e-07 0)
(-6.84411 -3.09849e-07 0)
(-6.83699 -3.05324e-07 0)
(-6.82988 -3.00919e-07 0)
(-6.82281 -2.96477e-07 0)
(-6.81575 -2.92175e-07 0)
(-6.80874 -2.87966e-07 0)
(-6.80174 -2.83756e-07 0)
(-6.79478 -2.79664e-07 0)
(-6.78783 -2.756e-07 0)
(-6.78092 -2.71612e-07 0)
(-6.77402 -2.67652e-07 0)
(-6.76717 -2.63785e-07 0)
(-6.76032 -2.59975e-07 0)
(-6.75352 -2.5622e-07 0)
(-6.74672 -2.52529e-07 0)
(-6.73997 -2.4887e-07 0)
(-6.73322 -2.45352e-07 0)
(-6.72652 -2.41772e-07 0)
(-6.71982 -2.38339e-07 0)
(-6.71317 -2.34913e-07 0)
(-6.70652 -2.31489e-07 0)
(-6.69992 -2.2808e-07 0)
(-6.69332 -2.2494e-07 0)
(-6.68676 -2.21736e-07 0)
(-6.68021 -2.18748e-07 0)
(-6.67368 -2.15553e-07 0)
(-6.66719 -2.12581e-07 0)
(-6.6607 -2.09289e-07 0)
(-6.65426 -2.06355e-07 0)
(-6.64782 -2.03257e-07 0)
(-6.64072 -1.98998e-07 0)
(-6.63304 -1.94641e-07 0)
(-6.62554 -1.90974e-07 0)
(-6.61814 -1.87561e-07 0)
(-6.6109 -1.84126e-07 0)
(-6.60377 -1.80825e-07 0)
(-6.59679 -1.77662e-07 0)
(-6.58991 -1.74727e-07 0)
(-6.58316 -1.71919e-07 0)
(-6.5765 -1.6932e-07 0)
(-6.56995 -1.66815e-07 0)
(-6.56348 -1.64302e-07 0)
(-6.55713 -1.61775e-07 0)
(-6.55086 -1.59367e-07 0)
(-6.54469 -1.57017e-07 0)
(-6.5386 -1.54774e-07 0)
(-6.53261 -1.52532e-07 0)
(-6.5267 -1.5037e-07 0)
(-6.52088 -1.48353e-07 0)
(-6.51512 -1.46327e-07 0)
(-6.50946 -1.4445e-07 0)
(-6.50385 -1.42567e-07 0)
(-6.49833 -1.40731e-07 0)
(-6.49287 -1.38905e-07 0)
(-6.48749 -1.37109e-07 0)
(-6.48217 -1.35288e-07 0)
(-6.47694 -1.33547e-07 0)
(-6.47175 -1.31932e-07 0)
(-6.46664 -1.30284e-07 0)
(-6.46158 -1.28736e-07 0)
(-6.4566 -1.27123e-07 0)
(-6.45166 -1.25601e-07 0)
(-6.44679 -1.24022e-07 0)
(-6.44198 -1.22523e-07 0)
(-6.43723 -1.21106e-07 0)
(-6.43253 -1.19666e-07 0)
(-6.4279 -1.18398e-07 0)
(-6.42329 -1.17037e-07 0)
(-6.41876 -1.15785e-07 0)
(-6.41426 -1.14468e-07 0)
(-6.40983 -1.13158e-07 0)
(-6.40543 -1.11897e-07 0)
(-6.4011 -1.10614e-07 0)
(-6.3968 -1.09403e-07 0)
(-6.39256 -1.08195e-07 0)
(-6.38836 -1.06993e-07 0)
(-6.38421 -1.05872e-07 0)
(-6.38009 -1.04651e-07 0)
(-6.37605 -1.03673e-07 0)
(-6.372 -1.02675e-07 0)
(-6.36804 -1.01799e-07 0)
(-6.36406 -1.0093e-07 0)
(-6.36016 -9.99791e-08 0)
(-6.35626 -9.91788e-08 0)
(-6.35242 -9.83021e-08 0)
(-6.34859 -9.75359e-08 0)
(-6.34481 -9.66606e-08 0)
(-6.34104 -9.58948e-08 0)
(-6.33732 -9.50661e-08 0)
(-6.33362 -9.42261e-08 0)
(-6.32997 -9.33442e-08 0)
(-6.32634 -9.2473e-08 0)
(-6.32275 -9.15332e-08 0)
(-6.31919 -9.07127e-08 0)
(-6.31567 -8.98999e-08 0)
(-6.31218 -8.91067e-08 0)
(-6.30872 -8.82916e-08 0)
(-6.30529 -8.75085e-08 0)
(-6.30189 -8.67358e-08 0)
(-6.29852 -8.59919e-08 0)
(-6.29518 -8.5222e-08 0)
(-6.29187 -8.44174e-08 0)
(-6.28859 -8.38172e-08 0)
(-6.28533 -8.3065e-08 0)
(-6.28211 -8.25489e-08 0)
(-6.27889 -8.18344e-08 0)
(-6.27572 -8.13585e-08 0)
(-6.27254 -8.06929e-08 0)
(-6.26943 -8.02401e-08 0)
(-6.26628 -7.96874e-08 0)
(-6.26321 -7.93053e-08 0)
(-6.26009 -7.86497e-08 0)
(-6.25707 -7.8221e-08 0)
(-6.25398 -7.76728e-08 0)
(-6.25101 -7.71773e-08 0)
(-6.24796 -7.6934e-08 0)
(-6.245 -7.59448e-08 0)
(-6.24203 -7.69414e-08 0)
(-6.23899 -7.3822e-08 0)
(-6.23628 -7.96387e-08 0)
(-6.23276 -6.74515e-08 0)
(-6.23104 -8.9046e-08 0)
(-6.22576 -5.19969e-08 0)
(-6.2271 -7.01211e-08 0)
(-6.22009 -9.35259e-08 0)
)
;
    }
    symmetry
    {
        type            symmetryPlane;
    }
    frontAndBack
    {
        type            empty;
    }
}


// ************************************************************************* //
