/*--------------------------------*- C++ -*----------------------------------*\
| =========                 |                                                 |
| \\      /  F ield         | OpenFOAM: The Open Source CFD Toolbox           |
|  \\    /   O peration     | Version:  v2012                                 |
|   \\  /    A nd           | Website:  www.openfoam.com                      |
|    \\/     M anipulation  |                                                 |
\*---------------------------------------------------------------------------*/
FoamFile
{
    version     2.0;
    format      ascii;
    class       volScalarField;
    location    "23.5";
    object      yPlus;
}
// * * * * * * * * * * * * * * * * * * * * * * * * * * * * * * * * * * * * * //

dimensions      [0 0 0 0 0 0 0];


internalField   uniform 0;

boundaryField
{
    inlet
    {
        type            calculated;
        value           uniform 0;
    }
    outlet
    {
        type            calculated;
        value           uniform 0;
    }
    topWall
    {
        type            calculated;
        value           nonuniform List<scalar> 
545
(
0.109875
0.18949
0.243102
0.285757
0.321867
0.35346
0.381677
0.407237
0.430627
0.452199
0.472217
0.490883
0.508359
0.524777
0.540245
0.554853
0.56868
0.581791
0.594244
0.60609
0.617373
0.628132
0.638403
0.648218
0.657605
0.666591
0.675199
0.683451
0.691366
0.698963
0.70626
0.713271
0.720011
0.726494
0.732732
0.738737
0.74452
0.750092
0.755461
0.760637
0.765629
0.770445
0.775091
0.779576
0.783907
0.788089
0.792128
0.796031
0.799803
0.803449
0.806974
0.810383
0.813681
0.81687
0.819957
0.822943
0.825834
0.828633
0.831343
0.833967
0.836508
0.83897
0.841355
0.843666
0.845905
0.848076
0.85018
0.852219
0.854196
0.856113
0.857972
0.859775
0.861501
0.863171
0.864828
0.866471
0.8681
0.869717
0.871321
0.872911
0.87449
0.876055
0.877608
0.879149
0.880677
0.882194
0.883698
0.885191
0.886672
0.888141
0.889599
0.891045
0.89248
0.893904
0.895316
0.896718
0.897981
0.89911
0.900238
0.901367
0.902495
0.903623
0.90475
0.905877
0.907004
0.908131
0.909257
0.910383
0.911509
0.912634
0.913759
0.914884
0.916008
0.917132
0.918256
0.919379
0.920502
0.921624
0.922746
0.923868
0.924989
0.92611
0.92723
0.92835
0.929469
0.930588
0.931706
0.932824
0.933942
0.935059
0.936175
0.937291
0.938407
0.939521
0.940636
0.94175
0.942863
0.943975
0.945087
0.946199
0.94731
0.94842
0.94953
0.950639
0.951747
0.952855
0.953962
0.955069
0.956174
0.95728
0.958384
0.959488
0.960591
0.961693
0.962795
0.963895
0.964995
0.966095
0.967193
0.968291
0.969388
0.970484
0.971579
0.972674
0.973768
0.974861
0.975953
0.977044
0.978134
0.979223
0.980312
0.981399
0.982486
0.983572
0.984656
0.98574
0.986823
0.987905
0.988986
0.990066
0.991145
0.992222
0.993299
0.994375
0.99545
0.996524
0.997596
0.998668
0.999738
1.00081
1.00188
1.00294
1.00401
1.00507
1.00614
1.0072
1.00826
1.00932
1.01038
1.01144
1.01249
1.01355
1.0146
1.01565
1.0167
1.01775
1.0188
1.01985
1.0209
1.02194
1.02298
1.02402
1.02506
1.0261
1.02714
1.02818
1.02921
1.03024
1.03128
1.03231
1.03333
1.03436
1.03539
1.03641
1.03743
1.03845
1.03947
1.04049
1.04151
1.04252
1.04353
1.04454
1.04555
1.04656
1.04757
1.04857
1.04957
1.05058
1.05157
1.05257
1.05357
1.05456
1.05555
1.05654
1.05753
1.05852
1.0595
1.06048
1.06146
1.06244
1.06342
1.06439
1.06537
1.06634
1.06731
1.06827
1.06924
1.0702
1.07116
1.07212
1.07308
1.07403
1.07498
1.07593
1.07688
1.07783
1.07877
1.07971
1.08065
1.08153
1.08237
1.08321
1.08405
1.0849
1.08576
1.08662
1.08749
1.08836
1.08924
1.09012
1.09101
1.0919
1.0928
1.0937
1.09461
1.09553
1.09645
1.09737
1.0983
1.09924
1.10018
1.10112
1.10207
1.10303
1.10399
1.10495
1.10592
1.10689
1.10787
1.10885
1.10984
1.11083
1.11183
1.11283
1.11383
1.11484
1.11586
1.11687
1.11789
1.11892
1.11995
1.12098
1.12201
1.12305
1.12409
1.12514
1.12618
1.12723
1.12829
1.12934
1.1304
1.13146
1.13253
1.13359
1.13466
1.13573
1.1368
1.13787
1.13895
1.14002
1.1411
1.14217
1.14325
1.14433
1.14541
1.14649
1.14756
1.14864
1.14972
1.1508
1.15187
1.15295
1.15402
1.15509
1.15616
1.15723
1.1583
1.15936
1.16042
1.16148
1.16254
1.16359
1.16464
1.16568
1.16672
1.16775
1.16878
1.16981
1.17083
1.17184
1.17285
1.17385
1.17484
1.17583
1.17681
1.17778
1.17875
1.1797
1.18065
1.18159
1.18252
1.18344
1.18435
1.18525
1.18613
1.18701
1.18788
1.18873
1.18957
1.1904
1.19121
1.19202
1.19281
1.19358
1.19434
1.19508
1.19581
1.19653
1.19723
1.19791
1.19857
1.19922
1.19985
1.20046
1.20105
1.20162
1.20218
1.20271
1.20323
1.20372
1.20419
1.20464
1.20507
1.20548
1.20587
1.20623
1.20657
1.20689
1.20718
1.20745
1.20769
1.20791
1.2081
1.20827
1.20841
1.20853
1.20861
1.20868
1.20871
1.20872
1.2087
1.20865
1.20857
1.20847
1.20833
1.20817
1.20798
1.20776
1.20751
1.20723
1.20692
1.20658
1.20621
1.20581
1.20538
1.20492
1.20443
1.20391
1.20336
1.20278
1.20217
1.20153
1.20086
1.20016
1.19943
1.19867
1.19788
1.19706
1.19621
1.19533
1.19433
1.19318
1.19202
1.19083
1.18961
1.18838
1.18712
1.18585
1.18456
1.18326
1.18194
1.18061
1.17926
1.17791
1.17655
1.17518
1.1738
1.17242
1.17104
1.16965
1.16825
1.16686
1.16547
1.16407
1.16268
1.16129
1.15991
1.15852
1.15714
1.15577
1.1544
1.15304
1.15169
1.15035
1.14901
1.14769
1.14637
1.14506
1.14377
1.14249
1.14122
1.13996
1.13872
1.13749
1.13628
1.13508
1.1339
1.13273
1.13158
1.13045
1.12933
1.12823
1.12715
1.12609
1.12505
1.12403
1.12303
1.12205
1.12108
1.12015
1.11923
1.11833
1.11746
1.1166
1.11578
1.11497
1.11419
1.11343
1.1127
1.11199
1.1113
1.11064
1.11
1.10939
1.10881
1.10825
1.10772
1.10721
1.10673
1.10628
1.10585
1.10545
1.10508
1.10474
1.10442
1.10413
1.10387
1.10364
1.10343
1.10325
1.1031
1.10298
1.10289
1.10283
1.10276
)
;
    }
    bottomWall
    {
        type            calculated;
        value           nonuniform List<scalar> 
449
(
0.139466
0.0889765
0.0758379
0.069488
0.0653439
0.0622956
0.0599632
0.058274
0.0573891
0.0577443
0.0608995
0.0648769
0.0675878
0.0690769
0.0698607
0.0702654
0.0704372
0.0704494
0.0703532
0.0701941
0.0699908
0.0697636
0.0695247
0.0692818
0.0690394
0.0688004
0.0685659
0.0683374
0.0681154
0.0679003
0.067692
0.0674905
0.0672955
0.0671069
0.0669245
0.0667478
0.0665765
0.0664106
0.0662499
0.066094
0.0659428
0.065796
0.0656535
0.0655148
0.0653799
0.0652485
0.0651205
0.0649956
0.0648733
0.0647528
0.0646344
0.0645179
0.0644034
0.0642908
0.0641802
0.0640714
0.0639645
0.0638593
0.0637558
0.063654
0.0635538
0.0634551
0.063358
0.0632624
0.0631682
0.0630754
0.0629839
0.0628937
0.0628047
0.0627168
0.0626302
0.0625447
0.0624605
0.0623773
0.0622952
0.0622142
0.0621343
0.0620553
0.0619774
0.0619004
0.0618243
0.0617492
0.0616749
0.0616015
0.061529
0.0614573
0.0613865
0.0613164
0.0612471
0.0611786
0.0611109
0.0610439
0.0609776
0.060912
0.0608471
0.0607828
0.0607191
0.0606561
0.0605937
0.0605319
0.0604708
0.0604103
0.0603504
0.060291
0.0602323
0.0601741
0.0601164
0.0600593
0.0600028
0.0599467
0.0598912
0.0598362
0.0597816
0.0597276
0.0596741
0.059621
0.0595684
0.0595163
0.0594646
0.0594133
0.0593625
0.0593121
0.0592621
0.0592126
0.0591635
0.0591148
0.0590664
0.0590185
0.0589709
0.0589237
0.0588769
0.0588305
0.0587844
0.0587387
0.0586933
0.0586483
0.0586036
0.0585592
0.0585151
0.0584714
0.058428
0.0583849
0.0583421
0.0582997
0.0582575
0.0582157
0.0581741
0.0581329
0.0580919
0.0580513
0.0580109
0.0579708
0.057931
0.0578915
0.0578522
0.0578132
0.0577745
0.057736
0.0576978
0.0576599
0.0576222
0.0575848
0.0575476
0.0575106
0.0574739
0.0574374
0.0574012
0.0573651
0.0573293
0.0572937
0.0572584
0.0572232
0.0571884
0.0571556
0.0571248
0.0570938
0.0570628
0.0570316
0.0570004
0.0569691
0.0569377
0.0569062
0.0568746
0.0568429
0.0568112
0.0567793
0.0567474
0.0567154
0.0566833
0.0566512
0.056619
0.0565867
0.0565543
0.0565219
0.0564894
0.0564568
0.0564241
0.0563914
0.0563587
0.0563258
0.0562929
0.0562599
0.0562269
0.0561937
0.0561606
0.0561273
0.0560941
0.0560608
0.0560274
0.055994
0.0559606
0.0559272
0.0558937
0.0558602
0.0558267
0.0557931
0.0557595
0.0557259
0.0556923
0.0556587
0.0556251
0.0555914
0.0555577
0.055524
0.0554904
0.0554567
0.055423
0.0553894
0.0553557
0.055322
0.0552883
0.0552547
0.055221
0.0551874
0.0551537
0.0551201
0.0550865
0.0550529
0.0550194
0.0549858
0.0549524
0.0549189
0.0548855
0.054852
0.0548187
0.0547853
0.054752
0.0547188
0.0546855
0.0546524
0.0546192
0.0545861
0.054553
0.0545201
0.0544871
0.0544542
0.0544214
0.0543886
0.0543559
0.0543232
0.0542906
0.0542581
0.0542256
0.0541932
0.0541609
0.0541286
0.0540964
0.0540644
0.0540323
0.0540004
0.0539685
0.0539367
0.0539049
0.0538733
0.0538417
0.0538102
0.0537787
0.0537473
0.053716
0.0536848
0.0536536
0.0536225
0.0535916
0.0535607
0.0535299
0.0534991
0.0534685
0.0534379
0.0534074
0.053377
0.0533467
0.0533165
0.0532863
0.0532563
0.0532263
0.0531964
0.0531667
0.053137
0.0531074
0.0530778
0.0530484
0.0530191
0.0529898
0.0529606
0.0529315
0.0529025
0.0528736
0.0528448
0.052816
0.0527873
0.0527587
0.0527302
0.0527018
0.0526735
0.0526452
0.052617
0.0525889
0.0525609
0.052533
0.0525052
0.0524774
0.0524498
0.0524222
0.0523948
0.0523673
0.0523401
0.0523129
0.0522858
0.0522587
0.0522319
0.052205
0.0521783
0.0521516
0.052125
0.0520985
0.0520722
0.0520458
0.0520196
0.0519934
0.0519674
0.0519414
0.0519155
0.0518897
0.051864
0.0518383
0.0518128
0.0517873
0.0517619
0.0517365
0.0517112
0.051686
0.0516609
0.0516359
0.0516109
0.0515834
0.0515535
0.0515244
0.0514956
0.0514674
0.0514397
0.0514125
0.0513856
0.0513593
0.0513333
0.0513077
0.0512825
0.0512577
0.0512332
0.051209
0.0511852
0.0511618
0.0511386
0.0511158
0.0510932
0.051071
0.051049
0.0510274
0.0510059
0.0509848
0.0509639
0.0509433
0.0509229
0.0509028
0.0508829
0.0508632
0.0508438
0.0508246
0.0508056
0.0507869
0.0507684
0.05075
0.0507319
0.050714
0.0506962
0.0506787
0.0506613
0.0506442
0.0506271
0.0506104
0.0505937
0.0505773
0.050561
0.050545
0.0505289
0.0505132
0.0504974
0.0504819
0.0504665
0.0504512
0.050436
0.050421
0.050406
0.0503912
0.0503765
0.050362
0.0503475
0.0503333
0.0503191
0.0503051
0.0502912
0.0502774
0.0502637
0.0502502
0.0502367
0.0502234
0.0502102
0.0501971
0.0501841
0.0501712
0.0501584
0.0501457
0.050133
0.0501206
0.050108
0.0500957
0.0500832
0.0500711
0.0500588
0.0500469
0.0500347
0.0500228
0.0500109
0.0499988
0.0499879
0.0499738
0.0499669
0.0499457
0.0499511
0.0499229
)
;
    }
    symmetry
    {
        type            symmetryPlane;
    }
    frontAndBack
    {
        type            empty;
    }
}


// ************************************************************************* //
