/*--------------------------------*- C++ -*----------------------------------*\
| =========                 |                                                 |
| \\      /  F ield         | OpenFOAM: The Open Source CFD Toolbox           |
|  \\    /   O peration     | Version:  v2012                                 |
|   \\  /    A nd           | Website:  www.openfoam.com                      |
|    \\/     M anipulation  |                                                 |
\*---------------------------------------------------------------------------*/
FoamFile
{
    version     2.0;
    format      ascii;
    class       volScalarField;
    location    "8.5";
    object      omega;
}
// * * * * * * * * * * * * * * * * * * * * * * * * * * * * * * * * * * * * * //

dimensions      [0 0 -1 0 0 0 0];


internalField   nonuniform List<scalar> 
209825
(
8259.41
7915.65
7759.23
7673.93
7620.14
7583.8
7557.52
7538.16
7523.15
7511.58
7502.19
7494.75
7488.51
7483.48
7479.15
7475.63
7472.52
7469.99
7467.68
7465.83
7464.06
7462.68
7461.44
7460.45
7459.29
7458.52
7457.83
7457.28
7456.54
7456.15
7455.73
7455.47
7455.2
7454.98
7454.51
7454.49
7454.45
7454.36
7454.07
7454.26
7454.26
7454.38
7454.27
7455.41
7455.45
7455.44
7455.44
7455.89
7455.89
7456.75
7456.75
7457.99
7458.81
7459.22
7459.22
7460.27
7461.08
7461.52
7461.89
7461.89
7461.95
7463.22
7463.22
7464.24
7465.23
7465.24
7465.23
7466.53
7466.53
7468.08
7469.43
7470.27
7471.84
7472.14
7472.13
7473.6
7474.55
7475.97
7477.42
7477.42
7479.06
7480.32
7481.28
7483.62
7485.24
7487.13
7489.53
7492.28
7495.48
7499.72
7503.44
7513.33
7515.4
7568.35
7795.17
116926
8259.39
7915.56
7759.09
7673.74
7619.92
7583.56
7557.27
7537.89
7522.88
7511.29
7501.9
7494.45
7488.21
7483.18
7478.84
7475.32
7472.2
7469.67
7467.36
7465.51
7463.74
7462.36
7461.12
7460.12
7458.97
7458.19
7457.5
7456.95
7456.21
7455.82
7455.4
7455.14
7454.87
7454.65
7454.18
7454.15
7454.12
7454.03
7453.73
7453.92
7453.92
7454.05
7453.93
7455.07
7455.11
7455.11
7455.1
7455.56
7455.56
7456.41
7456.41
7457.65
7458.47
7458.88
7458.88
7459.93
7460.75
7461.18
7461.55
7461.55
7461.62
7462.89
7462.88
7463.9
7464.9
7464.9
7464.9
7466.2
7466.2
7467.74
7469.09
7469.93
7471.5
7471.8
7471.8
7473.26
7474.22
7475.63
7477.09
7477.09
7478.72
7479.98
7480.95
7483.29
7484.91
7486.8
7489.2
7491.95
7495.15
7499.4
7503.12
7513.01
7515.07
7568.13
7795.08
113633
8259.33
7915.21
7758.55
7673.08
7619.17
7582.74
7556.4
7536.98
7521.93
7510.32
7500.91
7493.44
7487.19
7482.14
7477.8
7474.26
7471.14
7468.6
7466.29
7464.43
7462.66
7461.27
7460.02
7459.02
7457.87
7457.09
7456.39
7455.84
7455.1
7454.71
7454.28
7454.02
7453.76
7453.53
7453.06
7453.03
7453
7452.91
7452.61
7452.8
7452.8
7452.92
7452.81
7453.95
7453.98
7453.98
7453.97
7454.43
7454.43
7455.28
7455.28
7456.53
7457.34
7457.75
7457.75
7458.8
7459.62
7460.05
7460.42
7460.42
7460.49
7461.76
7461.76
7462.77
7463.77
7463.77
7463.77
7465.07
7465.07
7466.61
7467.97
7468.81
7470.38
7470.67
7470.67
7472.14
7473.1
7474.51
7475.97
7475.97
7477.6
7478.87
7479.83
7482.17
7483.79
7485.68
7488.09
7490.84
7494.04
7498.29
7502.01
7511.91
7513.95
7567.23
7794.46
109854
8259.2
7914.62
7757.62
7671.92
7617.86
7581.32
7554.89
7535.41
7520.31
7508.66
7499.21
7491.71
7485.43
7480.37
7476
7472.45
7469.32
7466.77
7464.44
7462.58
7460.79
7459.4
7458.15
7457.14
7455.98
7455.2
7454.5
7453.94
7453.2
7452.8
7452.37
7452.11
7451.84
7451.62
7451.14
7451.12
7451.08
7450.98
7450.69
7450.88
7450.88
7450.99
7450.88
7452.02
7452.05
7452.05
7452.04
7452.49
7452.49
7453.34
7453.34
7454.59
7455.4
7455.81
7455.81
7456.87
7457.68
7458.11
7458.48
7458.48
7458.55
7459.82
7459.82
7460.83
7461.83
7461.83
7461.83
7463.13
7463.13
7464.68
7466.03
7466.88
7468.45
7468.75
7468.74
7470.21
7471.17
7472.58
7474.04
7474.05
7475.68
7476.95
7477.91
7480.25
7481.88
7483.77
7486.18
7488.94
7492.13
7496.39
7500.11
7510.02
7512.03
7565.65
7793.32
105970
8259.02
7913.76
7756.28
7670.28
7615.99
7579.3
7552.75
7533.17
7517.99
7506.28
7496.78
7489.24
7482.93
7477.83
7473.44
7469.87
7466.72
7464.15
7461.81
7459.93
7458.14
7456.73
7455.47
7454.46
7453.29
7452.5
7451.79
7451.24
7450.49
7450.08
7449.65
7449.39
7449.11
7448.89
7448.41
7448.38
7448.34
7448.24
7447.94
7448.13
7448.13
7448.24
7448.12
7449.26
7449.29
7449.29
7449.28
7449.73
7449.73
7450.58
7450.58
7451.82
7452.64
7453.05
7453.05
7454.1
7454.91
7455.35
7455.72
7455.72
7455.79
7457.06
7457.06
7458.07
7459.07
7459.07
7459.07
7460.38
7460.37
7461.92
7463.28
7464.12
7465.69
7465.99
7465.99
7467.46
7468.42
7469.83
7471.3
7471.31
7472.94
7474.22
7475.18
7477.52
7479.15
7481.05
7483.45
7486.22
7489.41
7493.68
7497.4
7507.32
7509.3
7563.38
7791.62
102085
8258.79
7912.64
7754.55
7668.13
7613.56
7576.66
7549.95
7530.25
7514.97
7503.18
7493.61
7486.02
7479.66
7474.53
7470.1
7466.5
7463.32
7460.73
7458.38
7456.48
7454.67
7453.26
7451.98
7450.96
7449.78
7448.98
7448.27
7447.7
7446.95
7446.54
7446.1
7445.83
7445.56
7445.32
7444.85
7444.81
7444.76
7444.67
7444.36
7444.55
7444.55
7444.66
7444.53
7445.67
7445.7
7445.7
7445.69
7446.13
7446.13
7446.98
7446.98
7448.22
7449.04
7449.44
7449.44
7450.5
7451.31
7451.74
7452.11
7452.11
7452.19
7453.46
7453.46
7454.46
7455.47
7455.48
7455.47
7456.78
7456.77
7458.32
7459.68
7460.52
7462.1
7462.4
7462.4
7463.87
7464.83
7466.25
7467.72
7467.74
7469.37
7470.65
7471.61
7473.95
7475.59
7477.49
7479.9
7482.67
7485.86
7490.15
7493.85
7503.8
7505.72
7560.4
7789.34
98240
8258.5
7911.27
7752.4
7665.47
7610.55
7573.39
7546.48
7526.63
7511.23
7499.34
7489.7
7482.04
7475.62
7470.44
7465.97
7462.34
7459.13
7456.51
7454.13
7452.21
7450.39
7448.95
7447.66
7446.63
7445.44
7444.63
7443.9
7443.33
7442.57
7442.15
7441.71
7441.43
7441.15
7440.91
7440.43
7440.39
7440.34
7440.24
7439.93
7440.11
7440.11
7440.22
7440.09
7441.22
7441.25
7441.25
7441.24
7441.68
7441.68
7442.52
7442.52
7443.76
7444.58
7444.98
7444.98
7446.03
7446.85
7447.27
7447.65
7447.65
7447.73
7449
7449
7450
7451.02
7451.02
7451.02
7452.32
7452.32
7453.86
7455.23
7456.07
7457.65
7457.96
7457.96
7459.42
7460.4
7461.81
7463.29
7463.31
7464.94
7466.23
7467.2
7469.54
7471.18
7473.09
7475.5
7478.28
7481.47
7485.77
7489.47
7499.44
7501.3
7556.72
7786.4
94453.1
8258.16
7909.62
7749.84
7662.3
7606.96
7569.48
7542.35
7522.31
7506.77
7494.76
7485.01
7477.27
7470.79
7465.55
7461.03
7457.35
7454.11
7451.46
7449.05
7447.11
7445.26
7443.8
7442.5
7441.45
7440.24
7439.42
7438.68
7438.1
7437.33
7436.9
7436.45
7436.17
7435.88
7435.64
7435.16
7435.11
7435.05
7434.95
7434.63
7434.81
7434.81
7434.91
7434.77
7435.9
7435.93
7435.92
7435.91
7436.35
7436.35
7437.19
7437.19
7438.42
7439.25
7439.64
7439.64
7440.7
7441.51
7441.93
7442.31
7442.31
7442.39
7443.67
7443.67
7444.66
7445.69
7445.69
7445.69
7446.99
7446.99
7448.53
7449.9
7450.75
7452.32
7452.65
7452.65
7454.11
7455.09
7456.5
7457.99
7458.02
7459.65
7460.95
7461.91
7464.26
7465.91
7467.83
7470.23
7473.03
7476.21
7480.53
7484.22
7494.22
7496.01
7552.3
7782.72
90733
8257.77
7907.72
7746.86
7658.61
7602.77
7564.94
7537.52
7517.27
7501.56
7489.41
7479.55
7471.72
7465.15
7459.85
7455.27
7451.54
7448.25
7445.57
7443.12
7441.15
7439.28
7437.8
7436.47
7435.4
7434.18
7433.35
7432.59
7432
7431.22
7430.78
7430.32
7430.03
7429.73
7429.49
7429
7428.94
7428.88
7428.77
7428.45
7428.62
7428.62
7428.71
7428.57
7429.69
7429.72
7429.71
7429.7
7430.13
7430.13
7430.97
7430.97
7432.2
7433.02
7433.41
7433.41
7434.47
7435.28
7435.69
7436.08
7436.08
7436.17
7437.45
7437.46
7438.43
7439.46
7439.47
7439.46
7440.77
7440.77
7442.31
7443.68
7444.54
7446.11
7446.44
7446.45
7447.91
7448.89
7450.3
7451.8
7451.84
7453.47
7454.78
7455.75
7458.09
7459.75
7461.68
7464.08
7466.89
7470.07
7474.42
7478.09
7488.12
7489.83
7547.15
7778.18
87082.1
8257.33
7905.55
7743.46
7654.4
7597.99
7559.74
7532.01
7511.51
7495.6
7483.29
7473.3
7465.36
7458.7
7453.32
7448.67
7444.89
7441.55
7438.82
7436.34
7434.33
7432.43
7430.92
7429.57
7428.48
7427.24
7426.39
7425.62
7425.01
7424.22
7423.77
7423.3
7423
7422.69
7422.44
7421.94
7421.88
7421.81
7421.7
7421.37
7421.53
7421.53
7421.61
7421.46
7422.58
7422.6
7422.6
7422.59
7423.01
7423.01
7423.84
7423.84
7425.07
7425.89
7426.28
7426.27
7427.34
7428.15
7428.55
7428.94
7428.94
7429.04
7430.33
7430.33
7431.29
7432.34
7432.34
7432.34
7433.64
7433.65
7435.18
7436.56
7437.42
7438.99
7439.34
7439.34
7440.8
7441.79
7443.2
7444.72
7444.77
7446.39
7447.72
7448.68
7451.03
7452.7
7454.64
7457.04
7459.87
7463.04
7467.41
7471.06
7481.14
7482.75
7541.25
7772.74
83498.4
8256.84
7903.12
7739.64
7649.65
7592.6
7553.87
7525.79
7505.01
7488.87
7476.38
7466.25
7458.18
7451.42
7445.94
7441.23
7437.38
7433.98
7431.2
7428.67
7426.63
7424.69
7423.16
7421.78
7420.66
7419.4
7418.53
7417.74
7417.12
7416.31
7415.85
7415.36
7415.05
7414.74
7414.48
7413.98
7413.91
7413.83
7413.71
7413.37
7413.52
7413.52
7413.6
7413.44
7414.54
7414.57
7414.56
7414.55
7414.97
7414.97
7415.79
7415.79
7417.01
7417.84
7418.22
7418.21
7419.28
7420.09
7420.48
7420.88
7420.88
7420.99
7422.27
7422.28
7423.23
7424.29
7424.29
7424.29
7425.6
7425.6
7427.13
7428.52
7429.38
7430.95
7431.31
7431.31
7432.77
7433.77
7435.18
7436.71
7436.78
7438.39
7439.73
7440.7
7443.05
7444.73
7446.68
7449.08
7451.92
7455.09
7459.49
7463.13
7473.24
7474.74
7534.58
7766.41
79975.9
8256.31
7900.43
7735.4
7644.37
7586.6
7547.34
7518.85
7497.76
7481.38
7468.68
7458.38
7450.17
7443.29
7437.72
7432.92
7428.99
7425.53
7422.69
7420.12
7418.04
7416.06
7414.49
7413.08
7411.94
7410.65
7409.76
7408.95
7408.31
7407.49
7407.01
7406.51
7406.19
7405.86
7405.59
7405.08
7405
7404.91
7404.79
7404.44
7404.59
7404.59
7404.65
7404.48
7405.57
7405.6
7405.59
7405.58
7405.99
7405.99
7406.8
7406.8
7408.02
7408.84
7409.21
7409.21
7410.28
7411.09
7411.47
7411.88
7411.88
7411.99
7413.28
7413.3
7414.23
7415.3
7415.3
7415.3
7416.61
7416.61
7418.14
7419.53
7420.4
7421.98
7422.35
7422.35
7423.81
7424.82
7426.23
7427.77
7427.85
7429.46
7430.82
7431.79
7434.13
7435.83
7437.79
7440.2
7443.05
7446.21
7450.64
7454.26
7464.42
7465.8
7527.14
7759.15
76505.2
8255.73
7897.47
7730.73
7638.55
7579.97
7540.13
7511.19
7489.75
7473.09
7460.17
7449.68
7441.32
7434.31
7428.63
7423.73
7419.72
7416.19
7413.29
7410.66
7408.53
7406.51
7404.9
7403.46
7402.29
7400.98
7400.06
7399.22
7398.56
7397.72
7397.23
7396.71
7396.38
7396.03
7395.76
7395.24
7395.15
7395.05
7394.92
7394.56
7394.7
7394.7
7394.75
7394.56
7395.65
7395.67
7395.67
7395.65
7396.05
7396.05
7396.85
7396.85
7398.07
7398.9
7399.26
7399.26
7400.33
7401.14
7401.51
7401.92
7401.92
7402.05
7403.34
7403.36
7404.27
7405.35
7405.36
7405.36
7406.67
7406.67
7408.19
7409.6
7410.47
7412.04
7412.44
7412.44
7413.89
7414.91
7416.32
7417.87
7417.97
7419.57
7420.95
7421.93
7424.27
7425.98
7427.96
7430.36
7433.24
7436.39
7440.85
7444.45
7454.66
7455.91
7518.91
7750.96
73092.7
8255.1
7894.25
7725.63
7632.19
7572.73
7532.24
7502.81
7480.98
7464.01
7450.84
7440.15
7431.62
7424.46
7418.65
7413.65
7409.55
7405.94
7402.98
7400.29
7398.1
7396.03
7394.38
7392.9
7391.7
7390.36
7389.41
7388.55
7387.87
7387.01
7386.5
7385.97
7385.61
7385.25
7384.97
7384.44
7384.34
7384.23
7384.09
7383.72
7383.85
7383.85
7383.88
7383.69
7384.76
7384.78
7384.78
7384.76
7385.15
7385.14
7385.94
7385.94
7387.15
7387.98
7388.33
7388.33
7389.4
7390.21
7390.57
7390.99
7390.99
7391.13
7392.42
7392.45
7393.34
7394.44
7394.44
7394.44
7395.75
7395.76
7397.28
7398.69
7399.57
7401.14
7401.55
7401.55
7403.01
7404.03
7405.44
7407.01
7407.13
7408.73
7410.12
7411.1
7413.44
7415.16
7417.16
7419.56
7422.46
7425.6
7430.1
7433.68
7443.93
7445.04
7509.86
7741.82
69744.6
8254.44
7890.78
7720.1
7625.28
7564.85
7523.65
7493.68
7471.43
7454.13
7440.68
7429.76
7421.04
7413.73
7407.79
7402.67
7398.48
7394.78
7391.74
7388.98
7386.74
7384.62
7382.92
7381.39
7380.15
7378.78
7377.8
7376.92
7376.21
7375.33
7374.8
7374.25
7373.88
7373.5
7373.21
7372.67
7372.55
7372.43
7372.28
7371.9
7372.02
7372.01
7372.04
7371.82
7372.89
7372.9
7372.9
7372.88
7373.26
7373.25
7374.04
7374.04
7375.24
7376.07
7376.41
7376.41
7377.49
7378.29
7378.64
7379.07
7379.07
7379.22
7380.51
7380.55
7381.42
7382.53
7382.54
7382.54
7383.85
7383.85
7385.37
7386.79
7387.68
7389.25
7389.68
7389.68
7391.13
7392.17
7393.57
7395.16
7395.31
7396.89
7398.31
7399.29
7401.63
7403.37
7405.38
7407.78
7410.7
7413.83
7418.37
7421.92
7432.23
7433.19
7500
7731.71
66466.3
8253.74
7887.04
7714.15
7617.82
7556.34
7514.37
7483.81
7461.1
7443.42
7429.68
7418.52
7409.59
7402.11
7396.02
7390.78
7386.47
7382.68
7379.55
7376.72
7374.42
7372.24
7370.5
7368.92
7367.64
7366.24
7365.22
7364.31
7363.58
7362.67
7362.12
7361.54
7361.15
7360.76
7360.45
7359.91
7359.77
7359.64
7359.48
7359.08
7359.19
7359.19
7359.2
7358.96
7360.02
7360.03
7360.03
7360.01
7360.37
7360.36
7361.13
7361.13
7362.33
7363.16
7363.49
7363.49
7364.57
7365.38
7365.71
7366.15
7366.15
7366.31
7367.6
7367.65
7368.49
7369.63
7369.63
7369.63
7370.94
7370.95
7372.46
7373.89
7374.79
7376.36
7376.81
7376.8
7378.26
7379.3
7380.71
7382.31
7382.49
7384.06
7385.5
7386.49
7388.82
7390.57
7392.6
7395
7397.95
7401.06
7405.64
7409.17
7419.53
7420.33
7489.29
7720.61
63263.2
8253.01
7883.06
7707.76
7609.82
7547.2
7504.38
7473.18
7449.97
7431.9
7417.83
7406.4
7397.25
7389.58
7383.33
7377.95
7373.53
7369.63
7366.42
7363.51
7361.14
7358.9
7357.1
7355.47
7354.15
7352.71
7351.66
7350.71
7349.95
7349.02
7348.44
7347.84
7347.43
7347.02
7346.7
7346.14
7345.99
7345.84
7345.67
7345.26
7345.36
7345.35
7345.34
7345.09
7346.13
7346.14
7346.14
7346.12
7346.46
7346.45
7347.21
7347.21
7348.4
7349.23
7349.55
7349.55
7350.64
7351.44
7351.75
7352.21
7352.21
7352.38
7353.67
7353.74
7354.54
7355.7
7355.7
7355.7
7357.02
7357.03
7358.53
7359.97
7360.88
7362.44
7362.92
7362.91
7364.36
7365.42
7366.83
7368.45
7368.65
7370.21
7371.68
7372.67
7375
7376.76
7378.82
7381.21
7384.18
7387.28
7391.9
7395.4
7405.81
7406.45
7477.72
7708.5
60140.1
8252.24
7878.83
7700.96
7601.26
7537.41
7493.69
7461.8
7438.05
7419.54
7405.13
7393.4
7384.02
7376.14
7369.72
7364.19
7359.64
7355.63
7352.32
7349.33
7346.87
7344.57
7342.71
7341.03
7339.66
7338.18
7337.09
7336.1
7335.31
7334.35
7333.74
7333.12
7332.69
7332.26
7331.92
7331.35
7331.19
7331.02
7330.84
7330.42
7330.5
7330.49
7330.46
7330.19
7331.22
7331.22
7331.22
7331.2
7331.53
7331.52
7332.26
7332.26
7333.44
7334.27
7334.58
7334.58
7335.67
7336.46
7336.76
7337.23
7337.23
7337.42
7338.71
7338.79
7339.56
7340.74
7340.74
7340.74
7342.06
7342.07
7343.57
7345.01
7345.93
7347.49
7347.99
7347.99
7349.44
7350.51
7351.91
7353.55
7353.78
7355.33
7356.82
7357.81
7360.15
7361.93
7364
7366.39
7369.39
7372.47
7377.14
7380.61
7391.06
7391.54
7465.26
7695.36
57101.5
8251.44
7874.35
7693.72
7592.15
7526.98
7482.28
7449.65
7425.31
7406.34
7391.55
7379.52
7369.87
7361.77
7355.16
7349.47
7344.79
7340.66
7337.24
7334.16
7331.62
7329.25
7327.32
7325.58
7324.17
7322.63
7321.5
7320.48
7319.65
7318.67
7318.03
7317.38
7316.93
7316.47
7316.12
7315.53
7315.35
7315.16
7314.97
7314.53
7314.6
7314.59
7314.54
7314.25
7315.25
7315.26
7315.26
7315.23
7315.55
7315.53
7316.26
7316.26
7317.43
7318.26
7318.56
7318.56
7319.65
7320.44
7320.72
7321.2
7321.2
7321.4
7322.69
7322.79
7323.53
7324.73
7324.73
7324.73
7326.05
7326.06
7327.56
7329.01
7329.93
7331.5
7332.02
7332.01
7333.46
7334.54
7335.94
7337.6
7337.87
7339.41
7340.92
7341.92
7344.25
7346.04
7348.14
7350.53
7353.55
7356.62
7361.33
7364.77
7375.27
7375.57
7451.9
7681.17
54151.5
8250.62
7869.63
7686.07
7582.49
7515.9
7470.16
7436.73
7411.77
7392.3
7377.1
7364.73
7354.8
7346.47
7339.66
7333.8
7328.96
7324.7
7321.18
7317.99
7315.37
7312.92
7310.92
7309.12
7307.65
7306.07
7304.89
7303.82
7302.96
7301.94
7301.27
7300.6
7300.12
7299.64
7299.26
7298.66
7298.46
7298.25
7298.05
7297.6
7297.65
7297.63
7297.57
7297.25
7298.23
7298.24
7298.24
7298.21
7298.51
7298.48
7299.2
7299.2
7300.36
7301.19
7301.47
7301.47
7302.57
7303.35
7303.61
7304.11
7304.11
7304.33
7305.62
7305.73
7306.42
7307.65
7307.65
7307.65
7308.98
7308.99
7310.48
7311.94
7312.88
7314.43
7314.98
7314.98
7316.42
7317.52
7318.92
7320.59
7320.89
7322.42
7323.95
7324.96
7327.29
7329.1
7331.21
7333.6
7336.65
7339.7
7344.46
7347.86
7358.41
7358.53
7437.61
7665.9
51293.9
8249.77
7864.68
7678
7572.28
7504.18
7457.32
7423.03
7397.4
7377.4
7361.76
7349.03
7338.81
7330.22
7323.2
7317.15
7312.15
7307.76
7304.11
7300.82
7298.1
7295.56
7293.49
7291.63
7290.09
7288.46
7287.23
7286.12
7285.22
7284.17
7283.46
7282.76
7282.25
7281.75
7281.35
7280.73
7280.5
7280.28
7280.07
7279.6
7279.63
7279.6
7279.53
7279.18
7280.14
7280.15
7280.14
7280.11
7280.4
7280.36
7281.06
7281.06
7282.21
7283.04
7283.31
7283.31
7284.41
7285.19
7285.42
7285.94
7285.93
7286.17
7287.46
7287.59
7288.24
7289.49
7289.5
7289.5
7290.83
7290.83
7292.32
7293.79
7294.74
7296.29
7296.87
7296.86
7298.3
7299.41
7300.81
7302.49
7302.84
7304.36
7305.91
7306.92
7309.25
7311.07
7313.21
7315.6
7318.67
7321.71
7326.51
7329.88
7340.46
7340.41
7422.36
7649.53
48532
8248.91
7859.5
7669.52
7561.53
7491.81
7443.76
7408.56
7382.22
7361.64
7345.54
7332.42
7321.87
7313.02
7305.77
7299.52
7294.35
7289.81
7286.03
7282.62
7279.81
7277.18
7275.03
7273.09
7271.49
7269.8
7268.52
7267.36
7266.42
7265.33
7264.59
7263.85
7263.32
7262.78
7262.37
7261.73
7261.48
7261.23
7261.01
7260.52
7260.53
7260.49
7260.4
7260.02
7260.96
7260.97
7260.96
7260.93
7261.19
7261.16
7261.84
7261.84
7262.97
7263.8
7264.05
7264.05
7265.16
7265.93
7266.14
7266.67
7266.67
7266.93
7268.21
7268.36
7268.96
7270.24
7270.25
7270.25
7271.58
7271.59
7273.07
7274.54
7275.5
7277.05
7277.66
7277.65
7279.09
7280.21
7281.61
7283.31
7283.7
7285.2
7286.78
7287.8
7290.13
7291.96
7294.12
7296.5
7299.61
7302.62
7307.47
7310.8
7321.43
7321.19
7406.13
7632.03
45869
8248.03
7854.09
7660.63
7550.22
7478.79
7429.47
7393.3
7366.2
7345.01
7328.41
7314.89
7304
7294.85
7287.36
7280.9
7275.55
7270.84
7266.93
7263.4
7260.48
7257.75
7255.52
7253.5
7251.83
7250.09
7248.75
7247.53
7246.55
7245.42
7244.64
7243.87
7243.3
7242.73
7242.29
7241.63
7241.36
7241.09
7240.85
7240.36
7240.34
7240.29
7240.18
7239.77
7240.69
7240.69
7240.69
7240.64
7240.89
7240.85
7241.51
7241.51
7242.63
7243.45
7243.69
7243.69
7244.8
7245.56
7245.75
7246.3
7246.3
7246.57
7247.85
7248.02
7248.58
7249.88
7249.89
7249.89
7251.23
7251.23
7252.71
7254.19
7255.16
7256.7
7257.34
7257.34
7258.77
7259.91
7261.3
7263.01
7263.45
7264.93
7266.54
7267.57
7269.89
7271.74
7273.93
7276.3
7279.43
7282.42
7287.32
7290.62
7301.28
7300.85
7388.89
7613.38
43307.5
8247.14
7848.48
7651.34
7538.38
7465.13
7414.46
7377.26
7349.35
7327.51
7310.39
7296.43
7285.17
7275.72
7267.96
7261.28
7255.74
7250.86
7246.8
7243.14
7240.1
7237.27
7234.95
7232.84
7231.11
7229.29
7227.9
7226.63
7225.6
7224.42
7223.6
7222.79
7222.19
7221.59
7221.12
7220.44
7220.14
7219.84
7219.59
7219.08
7219.05
7218.98
7218.85
7218.41
7219.3
7219.3
7219.3
7219.25
7219.48
7219.42
7220.07
7220.06
7221.17
7221.99
7222.21
7222.21
7223.32
7224.07
7224.24
7224.8
7224.8
7225.1
7226.37
7226.57
7227.07
7228.4
7228.41
7228.41
7229.75
7229.76
7231.23
7232.71
7233.7
7235.23
7235.9
7235.9
7237.33
7238.48
7239.87
7241.6
7242.08
7243.55
7245.18
7246.21
7248.54
7250.39
7252.61
7254.97
7258.14
7261.11
7266.05
7269.31
7280.01
7279.38
7370.6
7593.53
40849.7
8246.25
7842.65
7641.65
7526
7450.83
7398.73
7360.44
7331.67
7309.14
7291.45
7277.03
7265.39
7255.61
7247.57
7240.65
7234.9
7229.84
7225.62
7221.82
7218.66
7215.73
7213.3
7211.11
7209.3
7207.42
7205.96
7204.63
7203.54
7202.32
7201.46
7200.61
7199.97
7199.34
7198.85
7198.14
7197.81
7197.49
7197.22
7196.69
7196.63
7196.54
7196.4
7195.93
7196.79
7196.79
7196.79
7196.73
7196.94
7196.87
7197.5
7197.49
7198.58
7199.4
7199.6
7199.6
7200.71
7201.45
7201.59
7202.18
7202.18
7202.5
7203.76
7203.98
7204.43
7205.78
7205.8
7205.8
7207.14
7207.15
7208.61
7210.1
7211.11
7212.63
7213.33
7213.33
7214.75
7215.91
7217.31
7219.05
7219.58
7221.03
7222.69
7223.73
7226.05
7227.91
7230.16
7232.51
7235.71
7238.65
7243.65
7246.86
7257.6
7256.76
7351.25
7572.46
38497.6
8245.35
7836.63
7631.58
7513.08
7435.89
7382.28
7342.83
7313.15
7289.89
7271.61
7256.7
7244.64
7234.51
7226.18
7219.01
7213.04
7207.79
7203.4
7199.45
7196.16
7193.11
7190.59
7188.3
7186.4
7184.45
7182.92
7181.52
7180.39
7179.12
7178.21
7177.31
7176.64
7175.97
7175.45
7174.71
7174.35
7174
7173.72
7173.17
7173.09
7172.98
7172.82
7172.31
7173.14
7173.14
7173.14
7173.08
7173.26
7173.18
7173.78
7173.78
7174.85
7175.66
7175.85
7175.85
7176.96
7177.69
7177.81
7178.41
7178.4
7178.75
7180
7180.24
7180.64
7182.02
7182.05
7182.05
7183.39
7183.39
7184.85
7186.34
7187.36
7188.87
7189.61
7189.61
7191.03
7192.2
7193.6
7195.35
7195.93
7197.36
7199.05
7200.1
7202.41
7204.29
7206.56
7208.9
7212.13
7215.04
7220.09
7223.26
7234.03
7232.99
7330.78
7550.13
36252.9
8244.45
7830.42
7621.13
7499.64
7420.31
7365.11
7324.44
7293.79
7269.76
7250.85
7235.42
7222.93
7212.43
7203.79
7196.34
7190.14
7184.69
7180.12
7176.02
7172.59
7169.42
7166.78
7164.39
7162.41
7160.38
7158.78
7157.31
7156.12
7154.8
7153.84
7152.89
7152.18
7151.47
7150.92
7150.15
7149.76
7149.38
7149.08
7148.52
7148.41
7148.27
7148.1
7147.55
7148.35
7148.35
7148.34
7148.27
7148.44
7148.34
7148.92
7148.92
7149.96
7150.77
7150.94
7150.94
7152.06
7152.77
7152.86
7153.48
7153.48
7153.85
7155.09
7155.34
7155.69
7157.1
7157.13
7157.13
7158.47
7158.48
7159.93
7161.43
7162.46
7163.96
7164.73
7164.73
7166.15
7167.33
7168.72
7170.48
7171.12
7172.54
7174.25
7175.3
7177.62
7179.5
7181.8
7184.13
7187.39
7190.27
7195.36
7198.49
7209.29
7208.05
7309.17
7526.49
34116.7
8243.56
7824.03
7610.31
7485.69
7404.1
7347.22
7305.26
7273.6
7248.75
7229.18
7213.19
7200.24
7189.36
7180.38
7172.65
7166.2
7160.53
7155.78
7151.51
7147.93
7144.63
7141.88
7139.38
7137.31
7135.19
7133.51
7131.98
7130.72
7129.35
7128.33
7127.34
7126.58
7125.83
7125.25
7124.45
7124.03
7123.62
7123.29
7122.71
7122.57
7122.41
7122.22
7121.64
7122.39
7122.4
7122.39
7122.31
7122.46
7122.34
7122.9
7122.89
7123.92
7124.71
7124.87
7124.86
7125.98
7126.68
7126.75
7127.38
7127.38
7127.78
7129.01
7129.28
7129.58
7131.01
7131.05
7131.04
7132.39
7132.39
7133.84
7135.34
7136.39
7137.87
7138.68
7138.68
7140.09
7141.29
7142.68
7144.45
7145.14
7146.54
7148.27
7149.34
7151.65
7153.54
7155.87
7158.18
7161.48
7164.33
7169.46
7172.54
7183.37
7181.92
7286.39
7501.51
32090.1
8242.68
7817.47
7599.13
7471.22
7387.27
7328.62
7285.3
7252.57
7226.86
7206.59
7190.02
7176.58
7165.29
7155.96
7147.92
7141.21
7135.32
7130.37
7125.92
7122.19
7118.75
7115.87
7113.26
7111.09
7108.89
7107.13
7105.52
7104.2
7102.76
7101.69
7100.65
7099.84
7099.04
7098.42
7097.6
7097.14
7096.69
7096.35
7095.74
7095.57
7095.39
7095.18
7094.57
7095.28
7095.28
7095.27
7095.19
7095.3
7095.17
7095.7
7095.7
7096.7
7097.48
7097.62
7097.61
7098.74
7099.41
7099.46
7100.11
7100.11
7100.53
7101.75
7102.03
7102.28
7103.73
7103.78
7103.78
7105.12
7105.13
7106.57
7108.06
7109.14
7110.61
7111.44
7111.45
7112.85
7114.06
7115.46
7117.23
7117.98
7119.36
7121.11
7122.19
7124.49
7126.39
7128.75
7131.05
7134.38
7137.19
7142.37
7145.41
7156.25
7154.6
7262.39
7475.13
30173.7
8241.81
7810.75
7587.6
7456.26
7369.82
7309.31
7264.57
7230.71
7204.1
7183.08
7165.9
7151.95
7140.22
7130.52
7122.16
7115.18
7109.04
7103.88
7099.24
7095.35
7091.76
7088.76
7086.03
7083.75
7081.46
7079.61
7077.92
7076.53
7075.03
7073.9
7072.8
7071.95
7071.1
7070.45
7069.59
7069.09
7068.61
7068.24
7067.61
7067.41
7067.2
7066.97
7066.32
7066.99
7066.99
7066.98
7066.89
7066.98
7066.82
7067.33
7067.32
7068.3
7069.06
7069.18
7069.18
7070.3
7070.95
7070.99
7071.65
7071.64
7072.09
7073.3
7073.59
7073.8
7075.27
7075.32
7075.32
7076.67
7076.67
7078.11
7079.6
7080.69
7082.14
7083.02
7083.02
7084.42
7085.65
7087.04
7088.81
7089.62
7090.98
7092.76
7093.85
7096.15
7098.05
7100.43
7102.72
7106.08
7108.86
7114.07
7117.06
7127.93
7126.08
7237.14
7447.3
28368.1
8240.96
7803.89
7575.74
7440.81
7351.76
7289.31
7243.06
7208.01
7180.45
7158.65
7140.82
7126.34
7114.14
7104.06
7095.37
7088.09
7081.7
7076.31
7071.48
7067.41
7063.67
7060.53
7057.67
7055.29
7052.89
7050.96
7049.18
7047.72
7046.15
7044.96
7043.8
7042.89
7042
7041.3
7040.41
7039.87
7039.35
7038.95
7038.3
7038.07
7037.83
7037.58
7036.89
7037.52
7037.52
7037.5
7037.4
7037.46
7037.29
7037.76
7037.75
7038.7
7039.46
7039.55
7039.56
7040.67
7041.3
7041.32
7041.99
7041.98
7042.46
7043.66
7043.96
7044.12
7045.61
7045.67
7045.67
7047.01
7047.02
7048.45
7049.93
7051.05
7052.48
7053.39
7053.39
7054.79
7056.02
7057.42
7059.19
7060.06
7061.4
7063.2
7064.3
7066.6
7068.5
7070.91
7073.18
7076.57
7079.32
7084.56
7087.51
7098.38
7096.35
7210.58
7418
26673.6
8240.14
7796.9
7563.56
7424.88
7333.11
7268.61
7220.79
7184.49
7155.93
7133.31
7114.8
7099.75
7087.07
7076.57
7067.53
7059.94
7053.28
7047.66
7042.62
7038.38
7034.47
7031.18
7028.19
7025.69
7023.19
7021.16
7019.29
7017.75
7016.12
7014.86
7013.64
7012.67
7011.73
7010.99
7010.05
7009.48
7008.91
7008.49
7007.8
7007.54
7007.28
7007.01
7006.27
7006.85
7006.86
7006.83
7006.72
7006.76
7006.55
7007
7006.99
7007.91
7008.65
7008.73
7008.73
7009.85
7010.44
7010.45
7011.12
7011.12
7011.62
7012.81
7013.11
7013.23
7014.73
7014.81
7014.81
7016.15
7016.15
7017.58
7019.06
7020.19
7021.6
7022.55
7022.55
7023.95
7025.19
7026.58
7028.36
7029.28
7030.6
7032.43
7033.54
7035.83
7037.73
7040.17
7042.42
7045.84
7048.55
7053.83
7056.73
7067.6
7065.39
7182.64
7387.19
25090.7
8239.34
7789.78
7551.08
7408.48
7313.87
7247.24
7197.76
7160.16
7130.54
7107.06
7087.84
7072.18
7059
7048.07
7038.65
7030.74
7023.8
7017.93
7012.67
7008.23
7004.15
7000.71
6997.58
6994.96
6992.35
6990.22
6988.25
6986.63
6984.92
6983.59
6982.3
6981.28
6980.28
6979.49
6978.52
6977.9
6977.29
6976.84
6976.12
6975.83
6975.53
6975.24
6974.47
6974.99
6974.99
6974.97
6974.85
6974.85
6974.62
6975.04
6975.03
6975.91
6976.63
6976.69
6976.69
6977.81
6978.37
6978.37
6979.05
6979.05
6979.57
6980.74
6981.05
6981.14
6982.65
6982.74
6982.73
6984.07
6984.08
6985.49
6986.96
6988.12
6989.51
6990.5
6990.49
6991.88
6993.13
6994.53
6996.3
6997.28
6998.59
7000.44
7001.55
7003.84
7005.74
7008.21
7010.44
7013.88
7016.56
7021.86
7024.71
7035.58
7033.19
7153.26
7354.84
23619
8238.57
7782.55
7538.3
7391.64
7294.06
7225.19
7173.98
7135.01
7104.28
7079.9
7059.93
7043.64
7029.93
7018.54
7008.73
7000.48
6993.24
6987.11
6981.62
6976.98
6972.72
6969.11
6965.84
6963.08
6960.36
6958.12
6956.05
6954.35
6952.56
6951.16
6949.8
6948.72
6947.65
6946.82
6945.8
6945.13
6944.48
6943.99
6943.25
6942.92
6942.58
6942.27
6941.46
6941.93
6941.93
6941.9
6941.77
6941.74
6941.48
6941.86
6941.86
6942.7
6943.39
6943.44
6943.44
6944.55
6945.08
6945.08
6945.75
6945.75
6946.31
6947.46
6947.76
6947.82
6949.34
6949.44
6949.43
6950.76
6950.78
6952.18
6953.64
6954.82
6956.19
6957.21
6957.21
6958.59
6959.85
6961.25
6963.01
6964.05
6965.34
6967.21
6968.33
6970.62
6972.51
6975.01
6977.22
6980.69
6983.32
6988.65
6991.45
7002.31
6999.76
7122.37
7320.93
22254.2
8237.85
7775.24
7525.24
7374.37
7273.69
7202.48
7149.46
7109.05
7077.17
7051.84
7031.08
7014.14
6999.86
6987.99
6977.77
6969.17
6961.61
6955.21
6949.48
6944.62
6940.17
6936.39
6932.96
6930.07
6927.22
6924.87
6922.7
6920.9
6919.03
6917.55
6916.12
6914.97
6913.84
6912.96
6911.89
6911.18
6910.48
6909.95
6909.18
6908.8
6908.44
6908.11
6907.25
6907.67
6907.66
6907.62
6907.48
6907.42
6907.13
6907.48
6907.47
6908.28
6908.94
6908.97
6908.98
6910.08
6910.56
6910.57
6911.24
6911.23
6911.82
6912.95
6913.24
6913.28
6914.81
6914.91
6914.9
6916.23
6916.25
6917.65
6919.09
6920.29
6921.63
6922.7
6922.69
6924.07
6925.34
6926.73
6928.49
6929.58
6930.86
6932.75
6933.88
6936.16
6938.04
6940.57
6942.76
6946.25
6948.85
6954.18
6956.94
6967.78
6965.08
7089.91
7285.42
20990.9
8237.16
7767.84
7511.93
7356.67
7252.77
7179.12
7124.21
7082.31
7049.21
7022.89
7001.3
6983.66
6968.8
6956.43
6945.77
6936.79
6928.91
6922.22
6916.23
6911.15
6906.5
6902.54
6898.95
6895.91
6892.94
6890.46
6888.18
6886.29
6884.32
6882.77
6881.26
6880.04
6878.85
6877.91
6876.79
6876.03
6875.27
6874.71
6873.9
6873.49
6873.08
6872.73
6871.84
6872.19
6872.19
6872.13
6871.97
6871.89
6871.56
6871.88
6871.87
6872.63
6873.26
6873.28
6873.28
6874.38
6874.83
6874.83
6875.49
6875.49
6876.1
6877.21
6877.49
6877.51
6879.04
6879.15
6879.14
6880.47
6880.48
6881.88
6883.3
6884.52
6885.84
6886.94
6886.93
6888.31
6889.58
6890.98
6892.72
6893.87
6895.13
6897.04
6898.18
6900.45
6902.33
6904.88
6907.04
6910.56
6913.12
6918.47
6921.18
6931.99
6929.15
7055.8
7248.28
19823.8
8236.52
7760.38
7498.39
7338.58
7231.32
7155.13
7098.25
7054.77
7020.41
6993.05
6970.6
6952.24
6936.75
6923.86
6912.75
6903.37
6895.14
6888.15
6881.9
6876.58
6871.71
6867.57
6863.8
6860.61
6857.5
6854.91
6852.5
6850.51
6848.45
6846.81
6845.22
6843.93
6842.67
6841.67
6840.5
6839.68
6838.88
6838.27
6837.43
6836.97
6836.52
6836.15
6835.22
6835.51
6835.5
6835.43
6835.25
6835.14
6834.77
6835.06
6835.04
6835.76
6836.36
6836.37
6836.37
6837.45
6837.86
6837.87
6838.52
6838.51
6839.14
6840.24
6840.51
6840.51
6842.04
6842.14
6842.15
6843.46
6843.48
6844.87
6846.28
6847.52
6848.8
6849.94
6849.94
6851.31
6852.58
6853.98
6855.71
6856.91
6858.16
6860.08
6861.23
6863.5
6865.36
6867.94
6870.08
6873.61
6876.13
6881.48
6884.15
6894.92
6891.96
7020
7209.47
18747.4
8235.92
7752.87
7484.62
7320.11
7209.37
7130.53
7071.58
7026.47
6990.79
6962.34
6938.98
6919.86
6903.73
6890.28
6878.69
6868.91
6860.31
6853.01
6846.47
6840.9
6835.81
6831.47
6827.52
6824.18
6820.92
6818.19
6815.67
6813.56
6811.41
6809.68
6808
6806.64
6805.3
6804.24
6803.01
6802.14
6801.28
6800.63
6799.74
6799.25
6798.75
6798.35
6797.39
6797.62
6797.59
6797.5
6797.3
6797.17
6796.77
6797.02
6797
6797.66
6798.23
6798.23
6798.22
6799.29
6799.67
6799.67
6800.31
6800.3
6800.96
6802.03
6802.28
6802.27
6803.8
6803.91
6803.91
6805.22
6805.24
6806.62
6808.01
6809.27
6810.52
6811.7
6811.69
6813.06
6814.33
6815.74
6817.45
6818.71
6819.93
6821.87
6823.03
6825.29
6827.14
6829.74
6831.85
6835.4
6837.89
6843.23
6845.85
6856.58
6853.51
6982.44
7168.97
17755.9
8235.38
7745.33
7470.65
7301.28
7186.92
7105.33
7044.23
6997.42
6960.35
6930.76
6906.46
6886.54
6869.74
6855.71
6843.62
6833.4
6824.43
6816.79
6809.95
6804.13
6798.81
6794.26
6790.11
6786.6
6783.19
6780.33
6777.68
6775.46
6773.2
6771.37
6769.6
6768.16
6766.75
6765.62
6764.33
6763.4
6762.48
6761.79
6760.86
6760.32
6759.78
6759.35
6758.35
6758.51
6758.47
6758.36
6758.14
6757.98
6757.55