/*--------------------------------*- C++ -*----------------------------------*\
| =========                 |                                                 |
| \\      /  F ield         | OpenFOAM: The Open Source CFD Toolbox           |
|  \\    /   O peration     | Version:  v2012                                 |
|   \\  /    A nd           | Website:  www.openfoam.com                      |
|    \\/     M anipulation  |                                                 |
\*---------------------------------------------------------------------------*/
FoamFile
{
    version     2.0;
    format      ascii;
    class       volScalarField;
    location    "41";
    object      k;
}
// * * * * * * * * * * * * * * * * * * * * * * * * * * * * * * * * * * * * * //

dimensions      [0 2 -2 0 0 0 0];


internalField   nonuniform List<scalar> 
209825
(
0.00102457
0.000932548
0.00085432
0.000788457
0.000733853
0.000689123
0.000652342
0.000622025
0.00059666
0.000575355
0.000557137
0.000541558
0.000527968
0.000516184
0.000505725
0.000496559
0.000488301
0.000481011
0.000474356
0.000468452
0.000462995
0.000458141
0.000453602
0.000449557
0.000445735
0.000442327
0.000439077
0.000436183
0.000433388
0.000430915
0.000428499
0.000426368
0.000424261
0.000422418
0.000420573
0.000418973
0.000417352
0.000415957
0.000414524
0.000413302
0.000412028
0.000410956
0.000409821
0.00040888
0.000407866
0.000407037
0.00040613
0.000405397
0.000404583
0.000403937
0.000403207
0.000402636
0.000401982
0.000401481
0.000400894
0.000400449
0.000399923
0.000399536
0.000399061
0.000398721
0.000398294
0.000398001
0.00039761
0.000397359
0.000397012
0.000396791
0.00039648
0.000396283
0.000396009
0.000395836
0.000395595
0.000395437
0.000395226
0.000395089
0.000394895
0.000394771
0.000394597
0.000394493
0.000394341
0.000394259
0.000394129
0.000394067
0.000393959
0.00039392
0.000393839
0.000393837
0.00039382
0.000393874
0.000393874
0.000393965
0.000393968
0.000394142
0.000394147
0.00039821
0.011335
0.012355
0.00102457
0.000932548
0.000854321
0.000788458
0.000733853
0.000689122
0.00065234
0.000622022
0.000596656
0.00057535
0.000557131
0.000541551
0.00052796
0.000516177
0.000505716
0.00049655
0.000488291
0.000481001
0.000474345
0.000468441
0.000462984
0.000458129
0.00045359
0.000449545
0.000445722
0.000442315
0.000439064
0.00043617
0.000433375
0.000430901
0.000428485
0.000426354
0.000424247
0.000422403
0.000420559
0.000418959
0.000417338
0.000415942
0.000414509
0.000413287
0.000412013
0.000410941
0.000409806
0.000408865
0.000407851
0.000407021
0.000406114
0.000405381
0.000404567
0.000403921
0.000403191
0.00040262
0.000401966
0.000401465
0.000400878
0.000400433
0.000399907
0.00039952
0.000399044
0.000398705
0.000398278
0.000397985
0.000397594
0.000397342
0.000396996
0.000396774
0.000396463
0.000396267
0.000395992
0.00039582
0.000395578
0.000395421
0.00039521
0.000395073
0.000394878
0.000394755
0.00039458
0.000394476
0.000394325
0.000394242
0.000394112
0.00039405
0.000393942
0.000393904
0.000393822
0.00039382
0.000393803
0.000393856
0.000393856
0.000393947
0.000393951
0.000394124
0.000394129
0.000398198
0.0113461
0.0123686
0.00102457
0.000932549
0.000854323
0.00078846
0.000733852
0.000689117
0.00065233
0.000622007
0.000596637
0.000575327
0.000557105
0.000541521
0.000527927
0.000516141
0.000505678
0.00049651
0.000488249
0.000480957
0.0004743
0.000468394
0.000462935
0.000458079
0.000453539
0.000449493
0.000445669
0.000442261
0.000439009
0.000436114
0.000433319
0.000430844
0.000428427
0.000426295
0.000424188
0.000422344
0.000420499
0.000418898
0.000417277
0.000415881
0.000414447
0.000413225
0.00041195
0.000410879
0.000409742
0.000408801
0.000407787
0.000406957
0.00040605
0.000405316
0.000404502
0.000403856
0.000403126
0.000402555
0.0004019
0.000401399
0.000400812
0.000400366
0.00039984
0.000399453
0.000398977
0.000398638
0.000398211
0.000397917
0.000397526
0.000397275
0.000396928
0.000396706
0.000396395
0.000396199
0.000395924
0.000395751
0.000395509
0.000395352
0.000395141
0.000395004
0.000394809
0.000394686
0.000394511
0.000394407
0.000394255
0.000394172
0.000394042
0.00039398
0.000393872
0.000393833
0.000393752
0.00039375
0.000393732
0.000393785
0.000393785
0.000393876
0.000393879
0.000394052
0.000394057
0.000398138
0.0113709
0.0123994
0.00102457
0.00093255
0.000854327
0.000788463
0.00073385
0.000689108
0.000652313
0.000621983
0.000596605
0.000575288
0.000557059
0.000541471
0.000527871
0.00051608
0.000505614
0.000496441
0.000488178
0.000480882
0.000474222
0.000468314
0.000462853
0.000457995
0.000453453
0.000449405
0.000445579
0.00044217
0.000438916
0.00043602
0.000433223
0.000430748
0.00042833
0.000426197
0.000424089
0.000422244
0.000420397
0.000418796
0.000417174
0.000415777
0.000414343
0.00041312
0.000411845
0.000410773
0.000409636
0.000408694
0.00040768
0.000406849
0.000405941
0.000405207
0.000404393
0.000403746
0.000403016
0.000402444
0.000401789
0.000401287
0.0004007
0.000400255
0.000399728
0.000399341
0.000398865
0.000398525
0.000398097
0.000397804
0.000397413
0.00039716
0.000396814
0.000396592
0.00039628
0.000396084
0.000395809
0.000395636
0.000395394
0.000395236
0.000395025
0.000394887
0.000394693
0.000394569
0.000394394
0.00039429
0.000394138
0.000394055
0.000393925
0.000393862
0.000393754
0.000393715
0.000393633
0.000393631
0.000393613
0.000393665
0.000393665
0.000393755
0.000393759
0.000393931
0.000393936
0.000398034
0.0114101
0.0124479
0.00102457
0.000932553
0.000854333
0.000788467
0.000733847
0.000689095
0.00065229
0.000621948
0.000596559
0.000575233
0.000556995
0.000541399
0.000527793
0.000515995
0.000505523
0.000496345
0.000488077
0.000480777
0.000474113
0.000468202
0.000462737
0.000457876
0.000453332
0.000449281
0.000445453
0.000442041
0.000438786
0.000435888
0.000433089
0.000430612
0.000428193
0.000426058
0.000423949
0.000422102
0.000420255
0.000418652
0.000417029
0.000415631
0.000414196
0.000412972
0.000411696
0.000410623
0.000409486
0.000408543
0.000407528
0.000406697
0.000405788
0.000405054
0.000404239
0.000403592
0.00040286
0.000402288
0.000401633
0.000401131
0.000400543
0.000400097
0.000399569
0.000399182
0.000398705
0.000398365
0.000397937
0.000397643
0.000397252
0.000396999
0.000396652
0.00039643
0.000396118
0.000395921
0.000395646
0.000395473
0.000395231
0.000395073
0.000394861
0.000394724
0.000394529
0.000394405
0.00039423
0.000394125
0.000393973
0.00039389
0.000393759
0.000393696
0.000393588
0.000393548
0.000393467
0.000393463
0.000393445
0.000393496
0.000393496
0.000393585
0.000393588
0.00039376
0.000393765
0.000397888
0.0114644
0.0125151
0.00102457
0.000932556
0.00085434
0.000788472
0.000733843
0.000689079
0.000652259
0.000621902
0.0005965
0.000575161
0.000556913
0.000541306
0.00052769
0.000515885
0.000505405
0.000496221
0.000487946
0.000480641
0.000473972
0.000468056
0.000462587
0.000457722
0.000453174
0.00044912
0.000445289
0.000441874
0.000438616
0.000435716
0.000432915
0.000430436
0.000428014
0.000425878
0.000423767
0.000421919
0.00042007
0.000418466
0.000416842
0.000415442
0.000414006
0.000412781
0.000411504
0.000410429
0.000409291
0.000408348
0.000407331
0.000406499
0.00040559
0.000404855
0.000404039
0.000403391
0.000402659
0.000402086
0.00040143
0.000400927
0.000400339
0.000399892
0.000399364
0.000398976
0.000398499
0.000398158
0.00039773
0.000397436
0.000397044
0.000396791
0.000396443
0.000396221
0.000395908
0.000395711
0.000395435
0.000395262
0.000395019
0.000394861
0.000394649
0.000394511
0.000394316
0.000394192
0.000394016
0.000393912
0.000393759
0.000393675
0.000393544
0.000393481
0.000393372
0.000393332
0.00039325
0.000393246
0.000393226
0.000393277
0.000393277
0.000393365
0.000393368
0.000393539
0.000393543
0.000397698
0.0115346
0.0126022
0.00102457
0.000932559
0.000854349
0.000788478
0.000733839
0.000689059
0.000652221
0.000621847
0.000596428
0.000575073
0.000556811
0.000541191
0.000527564
0.000515749
0.00050526
0.000496067
0.000487785
0.000480473
0.000473798
0.000467876
0.000462402
0.000457533
0.00045298
0.000448922
0.000445087
0.000441669
0.000438408
0.000435505
0.000432701
0.000430219
0.000427795
0.000425657
0.000423543
0.000421693
0.000419842
0.000418236
0.00041661
0.000415209
0.000413771
0.000412545
0.000411266
0.000410191
0.000409051
0.000408107
0.000407089
0.000406256
0.000405345
0.000404609
0.000403792
0.000403144
0.000402411
0.000401837
0.00040118
0.000400677
0.000400087
0.00039964
0.000399111
0.000398723
0.000398245
0.000397904
0.000397475
0.00039718
0.000396787
0.000396534
0.000396186
0.000395963
0.00039565
0.000395452
0.000395176
0.000395002
0.000394759
0.000394601
0.000394388
0.00039425
0.000394054
0.000393929
0.000393754
0.000393648
0.000393495
0.000393411
0.000393279
0.000393216
0.000393106
0.000393066
0.000392984
0.000392979
0.000392958
0.000393007
0.000393006
0.000393093
0.000393096
0.000393266
0.000393269
0.000397464
0.0116216
0.0127099
0.00102456
0.000932564
0.00085436
0.000788486
0.000733834
0.000689035
0.000652176
0.000621781
0.000596342
0.000574969
0.00055669
0.000541055
0.000527415
0.000515587
0.000505087
0.000495885
0.000487594
0.000480273
0.000473591
0.000467662
0.000462182
0.000457307
0.000452749
0.000448686
0.000444847
0.000441425
0.00043816
0.000435253
0.000432446
0.000429961
0.000427534
0.000425393
0.000423277
0.000421424
0.000419571
0.000417963
0.000416335
0.000414932
0.000413492
0.000412264
0.000410984
0.000409907
0.000408765
0.000407819
0.0004068
0.000405966
0.000405054
0.000404317
0.000403499
0.000402849
0.000402115
0.000401541
0.000400883
0.000400378
0.000399788
0.00039934
0.00039881
0.000398421
0.000397942
0.0003976
0.00039717
0.000396875
0.000396482
0.000396228
0.000395879
0.000395655
0.000395342
0.000395143
0.000394867
0.000394692
0.000394448
0.00039429
0.000394077
0.000393938
0.000393742
0.000393617
0.00039344
0.000393335
0.00039318
0.000393096
0.000392963
0.0003929
0.000392789
0.000392749
0.000392666
0.00039266
0.000392637
0.000392685
0.000392684
0.00039277
0.000392772
0.000392941
0.000392944
0.000397186
0.0117258
0.0128393
0.00102456
0.000932569
0.000854373
0.000788495
0.000733829
0.000689008
0.000652124
0.000621704
0.000596243
0.000574848
0.00055655
0.000540897
0.000527242
0.000515399
0.000504887
0.000495673
0.000487371
0.000480041
0.000473351
0.000467414
0.000461927
0.000457045
0.000452481
0.000448412
0.000444568
0.000441141
0.000437871
0.00043496
0.000432149
0.000429661
0.00042723
0.000425086
0.000422967
0.000421111
0.000419255
0.000417645
0.000416014
0.000414609
0.000413167
0.000411937
0.000410655
0.000409576
0.000408433
0.000407485
0.000406465
0.000405629
0.000404716
0.000403977
0.000403157
0.000402507
0.000401771
0.000401196
0.000400537
0.000400031
0.000399439
0.000398991
0.00039846
0.00039807
0.00039759
0.000397247
0.000396816
0.00039652
0.000396126
0.000395871
0.000395522
0.000395297
0.000394983
0.000394784
0.000394507
0.000394332
0.000394087
0.000393928
0.000393715
0.000393576
0.000393379
0.000393253
0.000393076
0.00039297
0.000392815
0.00039273
0.000392596
0.000392532
0.000392421
0.000392379
0.000392296
0.000392289
0.000392265
0.00039231
0.00039231
0.000392393
0.000392395
0.000392563
0.000392565
0.000396863
0.0118479
0.0129912
0.00102456
0.000932574
0.000854387
0.000788506
0.000733823
0.000688977
0.000652066
0.000621618
0.00059613
0.000574711
0.00055639
0.000540718
0.000527044
0.000515185
0.000504658
0.000495431
0.000487118
0.000479777
0.000473076
0.000467131
0.000461635
0.000456746
0.000452175
0.0004481
0.000444249
0.000440817
0.000437542
0.000434626
0.00043181
0.000429318
0.000426883
0.000424735
0.000422613
0.000420754
0.000418895
0.000417282
0.000415648
0.000414241
0.000412796
0.000411564
0.000410279
0.000409198
0.000408053
0.000407104
0.000406081
0.000405244
0.000404329
0.000403589
0.000402767
0.000402115
0.000401378
0.000400802
0.000400141
0.000399634
0.000399041
0.000398592
0.000398059
0.000397669
0.000397188
0.000396844
0.000396412
0.000396115
0.00039572
0.000395464
0.000395114
0.000394889
0.000394573
0.000394374
0.000394096
0.00039392
0.000393675
0.000393515
0.000393301
0.000393161
0.000392964
0.000392838
0.000392659
0.000392553
0.000392397
0.000392311
0.000392177
0.000392112
0.000392
0.000391958
0.000391874
0.000391865
0.000391839
0.000391883
0.000391882
0.000391963
0.000391964
0.00039213
0.000392132
0.000396496
0.0119882
0.0131667
0.00102455
0.000932581
0.000854404
0.000788518
0.000733816
0.000688943
0.000652
0.000621521
0.000596003
0.000574557
0.000556211
0.000540516
0.000526822
0.000514945
0.000504402
0.000495159
0.000486833
0.00047948
0.000472768
0.000466812
0.000461307
0.000456409
0.00045183
0.000447748
0.00044389
0.000440452
0.000437171
0.00043425
0.000431429
0.000428932
0.000426493
0.000424341
0.000422214
0.000420352
0.000418489
0.000416873
0.000415236
0.000413826
0.000412378
0.000411143
0.000409856
0.000408773
0.000407625
0.000406674
0.000405649
0.00040481
0.000403893
0.000403151
0.000402328
0.000401674
0.000400936
0.000400358
0.000399695
0.000399187
0.000398593
0.000398142
0.000397608
0.000397216
0.000396734
0.00039639
0.000395956
0.000395658
0.000395262
0.000395006
0.000394654
0.000394428
0.000394112
0.000393912
0.000393632
0.000393456
0.00039321
0.00039305
0.000392834
0.000392694
0.000392496
0.000392369
0.00039219
0.000392083
0.000391926
0.000391839
0.000391704
0.000391638
0.000391525
0.000391482
0.000391398
0.000391388
0.000391359
0.000391401
0.000391399
0.000391479
0.000391479
0.000391643
0.000391644
0.000396082
0.012147
0.0133664
0.00102455
0.000932588
0.000854422
0.000788532
0.00073381
0.000688906
0.000651929
0.000621414
0.000595863
0.000574386
0.000556012
0.000540293
0.000526576
0.000514678
0.000504116
0.000494858
0.000486516
0.000479149
0.000472425
0.000466457
0.000460942
0.000456034
0.000451447
0.000447356
0.000443491
0.000440045
0.000436758
0.000433831
0.000431005
0.000428502
0.000426058
0.000423902
0.000421771
0.000419904
0.000418037
0.000416418
0.000414777
0.000413364
0.000411913
0.000410675
0.000409385
0.000408299
0.000407149
0.000406195
0.000405168
0.000404327
0.000403408
0.000402664
0.000401839
0.000401183
0.000400443
0.000399863
0.000399199
0.00039869
0.000398093
0.000397641
0.000397106
0.000396713
0.000396229
0.000395884
0.000395449
0.00039515
0.000394752
0.000394495
0.000394142
0.000393915
0.000393598
0.000393397
0.000393116
0.000392939
0.000392692
0.000392531
0.000392315
0.000392174
0.000391975
0.000391848
0.000391668
0.000391559
0.000391401
0.000391314
0.000391178
0.000391111
0.000390997
0.000390953
0.000390867
0.000390856
0.000390825
0.000390864
0.000390862
0.000390938
0.000390939
0.000391101
0.000391101
0.000395623
0.0123243
0.0135913
0.00102455
0.000932595
0.000854442
0.000788548
0.000733803
0.000688865
0.00065185
0.000621297
0.00059571
0.000574198
0.000555794
0.000540047
0.000526305
0.000514385
0.000503802
0.000494525
0.000486167
0.000478785
0.000472047
0.000466067
0.00046054
0.000455622
0.000451024
0.000446925
0.000443051
0.000439598
0.000436303
0.00043337
0.000430537
0.000428028
0.000425579
0.000423417
0.000421281
0.00041941
0.000417539
0.000415915
0.000414271
0.000412854
0.000411399
0.000410159
0.000408865
0.000407777
0.000406623
0.000405667
0.000404637
0.000403794
0.000402872
0.000402126
0.000401299
0.000400641
0.000399898
0.000399317
0.000398651
0.00039814
0.000397542
0.000397089
0.000396551
0.000396157
0.000395672
0.000395325
0.000394888
0.000394588
0.000394189
0.00039393
0.000393576
0.000393348
0.00039303
0.000392828
0.000392547
0.000392368
0.00039212
0.000391959
0.000391741
0.0003916
0.0003914
0.000391271
0.00039109
0.000390981
0.000390822
0.000390734
0.000390596
0.000390528
0.000390413
0.000390368
0.000390281
0.000390269
0.000390235
0.000390272
0.000390269
0.000390342
0.000390342
0.000390501
0.000390501
0.000395116
0.0125199
0.0138421
0.00102454
0.000932603
0.000854463
0.000788565
0.000733796
0.000688822
0.000651766
0.000621171
0.000595543
0.000573995
0.000555557
0.000539779
0.000526009
0.000514065
0.00050346
0.000494162
0.000485785
0.000478387
0.000471633
0.00046564
0.0004601
0.00045517
0.000450562
0.000446452
0.00044257
0.000439108
0.000435805
0.000432864
0.000430024
0.00042751
0.000425054
0.000422887
0.000420745
0.00041887
0.000416994
0.000415365
0.000413716
0.000412296
0.000410837
0.000409593
0.000408296
0.000407204
0.000406048
0.000405089
0.000404056
0.00040321
0.000402285
0.000401537
0.000400707
0.000400048
0.000399303
0.000398719
0.000398051
0.000397538
0.000396938
0.000396483
0.000395944
0.000395548
0.000395061
0.000394713
0.000394274
0.000393973
0.000393573
0.000393313
0.000392957
0.000392728
0.000392408
0.000392205
0.000391922
0.000391743
0.000391494
0.000391331
0.000391113
0.000390971
0.00039077
0.00039064
0.000390458
0.000390348
0.000390187
0.000390098
0.000389959
0.00038989
0.000389774
0.000389727
0.000389639
0.000389625
0.000389588
0.000389623
0.000389619
0.000389689
0.000389688
0.000389845
0.000389844
0.000394563
0.0127333
0.0141195
0.00102454
0.000932612
0.000854487
0.000788584
0.00073379
0.000688776
0.000651675
0.000621034
0.000595363
0.000573774
0.000555299
0.000539488
0.000525689
0.000513717
0.000503088
0.000493769
0.000485372
0.000477955
0.000471185
0.000465176
0.000459622
0.00045468
0.000450059
0.000445939
0.000442047
0.000438575
0.000435264
0.000432315
0.000429468
0.000426946
0.000424483
0.00042231
0.000420163
0.000418282
0.0004164
0.000414767
0.000413114
0.000411689
0.000410226
0.000408978
0.000407677
0.000406582
0.000405422
0.00040446
0.000403424
0.000402575
0.000401647
0.000400897
0.000400064
0.000399402
0.000398654
0.000398069
0.000397398
0.000396884
0.000396281
0.000395824
0.000395283
0.000394886
0.000394396
0.000394047
0.000393607
0.000393304
0.000392902
0.00039264
0.000392283
0.000392053
0.000391732
0.000391527
0.000391243
0.000391063
0.000390812
0.000390649
0.00039043
0.000390287
0.000390084
0.000389954
0.00038977
0.000389659
0.000389497
0.000389406
0.000389266
0.000389196
0.000389078
0.00038903
0.000388941
0.000388925
0.000388885
0.000388917
0.000388912
0.000388978
0.000388977
0.000389131
0.000389129
0.000393961
0.0129636
0.0144241
0.00102453
0.000932621
0.000854513
0.000788605
0.000733783
0.000688728
0.000651578
0.000620888
0.000595169
0.000573537
0.000555023
0.000539176
0.000525344
0.000513343
0.000502687
0.000493344
0.000484925
0.000477489
0.000470701
0.000464675
0.000459107
0.00045415
0.000449517
0.000445385
0.000441481
0.000438
0.000434679
0.000431722
0.000428866
0.000426336
0.000423867
0.000421687
0.000419533
0.000417646
0.000415759
0.000414121
0.000412462
0.000411032
0.000409564
0.000408313
0.000407007
0.000405909
0.000404745
0.000403779
0.00040274
0.000401888
0.000400957
0.000400204
0.000399368
0.000398704
0.000397953
0.000397365
0.000396692
0.000396175
0.000395571
0.000395112
0.000394568
0.000394169
0.000393678
0.000393326
0.000392884
0.00039258
0.000392176
0.000391913
0.000391554
0.000391322
0.000391
0.000390794
0.000390508
0.000390327
0.000390075
0.00038991
0.00038969
0.000389546
0.000389342
0.000389211
0.000389026
0.000388913
0.00038875
0.000388658
0.000388516
0.000388445
0.000388325
0.000388276
0.000388185
0.000388167
0.000388124
0.000388153
0.000388147
0.00038821
0.000388207
0.000388359
0.000388356
0.000393311
0.0132097
0.0147565
0.00102453
0.000932631
0.000854541
0.000788628
0.000733778
0.000688677
0.000651475
0.000620732
0.000594963
0.000573284
0.000554727
0.000538841
0.000524974
0.000512942
0.000502257
0.000492888
0.000484446
0.000476988
0.000470181
0.000464138
0.000458552
0.000453581
0.000448934
0.000444789
0.000440874
0.000437381
0.00043405
0.000431083
0.000428219
0.000425681
0.000423203
0.000421016
0.000418856
0.000416962
0.000415069
0.000413425
0.00041176
0.000410326
0.000408853
0.000407597
0.000406287
0.000405184
0.000404016
0.000403047
0.000402003
0.000401148
0.000400214
0.000399458
0.000398618
0.000397952
0.000397198
0.000396608
0.000395932
0.000395413
0.000394805
0.000394345
0.000393798
0.000393397
0.000392904
0.000392551
0.000392106
0.000391801
0.000391394
0.00039113
0.000390769
0.000390536
0.000390211
0.000390004
0.000389717
0.000389534
0.000389281
0.000389115
0.000388893
0.000388748
0.000388543
0.000388411
0.000388224
0.00038811
0.000387945
0.000387852
0.000387708
0.000387635
0.000387514
0.000387463
0.000387371
0.000387352
0.000387305
0.000387331
0.000387323
0.000387382
0.000387378
0.000387528
0.000387523
0.000392612
0.0134699
0.0151168
0.00102452
0.000932641
0.00085457
0.000788653
0.000733772
0.000688624
0.000651367
0.000620567
0.000594744
0.000573015
0.000554412
0.000538484
0.00052458
0.000512513
0.000501798
0.000492401
0.000483934
0.000476453
0.000469625
0.000463562
0.00045796
0.000452972
0.00044831
0.000444152
0.000440223
0.000436719
0.000433377
0.0004304
0.000427526
0.000424979
0.000422493
0.000420298
0.00041813
0.00041623
0.00041433
0.00041268
0.000411009
0.000409569
0.000408091
0.00040683
0.000405515
0.000404408
0.000403235
0.000402262
0.000401215
0.000400356
0.000399418
0.000398658
0.000397816
0.000397146
0.000396389
0.000395796
0.000395117
0.000394595
0.000393985
0.000393522
0.000392973
0.00039257
0.000392074
0.000391719
0.000391272
0.000390965
0.000390556
0.00039029
0.000389927
0.000389693
0.000389366
0.000389158
0.000388869
0.000388684
0.000388429
0.000388262
0.000388039
0.000387893
0.000387686
0.000387553
0.000387364
0.000387249
0.000387082
0.000386988
0.000386843
0.000386768
0.000386645
0.000386592
0.000386499
0.000386477
0.000386427
0.00038645
0.00038644
0.000386495
0.00038649
0.000386636
0.000386631
0.000391862
0.0137423
0.0155054
0.00102452
0.000932652
0.000854602
0.000788681
0.000733768
0.000688569
0.000651253
0.000620393
0.000594513
0.00057273
0.000554078
0.000538105
0.000524161
0.000512058
0.00050131
0.000491883
0.000483389
0.000475884
0.000469033
0.00046295
0.000457328
0.000452323
0.000447645
0.000443472
0.00043953
0.000436013
0.000432659
0.000429672
0.000426787
0.000424231
0.000421735
0.000419532
0.000417356
0.000415449
0.000413541
0.000411884
0.000410207
0.000408762
0.000407277
0.000406011
0.000404691
0.000403579
0.000402402
0.000401425
0.000400372
0.00039951
0.000398568
0.000397805
0.000396958
0.000396286
0.000395525
0.00039493
0.000394247
0.000393723
0.00039311
0.000392644
0.000392092
0.000391687
0.000391188
0.000390831
0.000390382
0.000390073
0.000389662
0.000389394
0.000389028
0.000388792
0.000388464
0.000388254
0.000387963
0.000387777
0.00038752
0.000387352
0.000387127
0.00038698
0.000386771
0.000386636
0.000386446
0.00038633
0.000386161
0.000386065
0.000385918
0.000385842
0.000385716
0.000385662
0.000385566
0.000385543
0.000385489
0.000385509
0.000385497
0.000385548
0.000385541
0.000385685
0.000385678
0.000391062
0.0140244
0.0159222
0.00102451
0.000932663
0.000854635
0.000788711
0.000733764
0.000688512
0.000651134
0.000620211
0.000594269
0.000572429
0.000553725
0.000537705
0.000523717
0.000511576
0.000500793
0.000491334
0.000482811
0.000475279
0.000468404
0.0004623
0.000456658
0.000451634
0.000446939
0.00044275
0.000438794
0.000435264
0.000431897
0.000428897
0.000426001
0.000423435
0.00042093
0.000418718
0.000416533
0.000414618
0.000412703
0.000411039
0.000409355
0.000407903
0.000406412
0.000405141
0.000403815
0.000402698
0.000401515
0.000400534
0.000399477
0.00039861
0.000397664
0.000396897
0.000396047
0.000395371
0.000394606
0.000394008
0.000393322
0.000392795
0.000392178
0.00039171
0.000391155
0.000390747
0.000390246
0.000389887
0.000389434
0.000389123
0.00038871
0.00038844
0.000388072
0.000387834
0.000387504
0.000387292
0.000386999
0.000386811
0.000386553
0.000386383
0.000386156
0.000386008
0.000385798
0.000385661
0.000385469
0.000385351
0.00038518
0.000385083
0.000384933
0.000384856
0.000384728
0.000384672
0.000384574
0.000384549
0.000384492
0.000384507
0.000384493
0.00038454
0.000384531
0.000384672
0.000384663
0.000390209
0.014313
0.0163666
0.0010245
0.000932675
0.000854671
0.000788743
0.000733762
0.000688454
0.00065101
0.00062002
0.000594013
0.000572112
0.000553353
0.000537283
0.00052325
0.000511067
0.000500247
0.000490754
0.0004822
0.000474641
0.00046774
0.000461612
0.000455949
0.000450905
0.000446192
0.000441986
0.000438014
0.000434469
0.000431089
0.000428077
0.000425169
0.000422592
0.000420077
0.000417855
0.000415661
0.000413737
0.000411814
0.000410143
0.000408451
0.000406993
0.000405495
0.000404218
0.000402886
0.000401764
0.000400575
0.000399589
0.000398527
0.000397656
0.000396705
0.000395935
0.00039508
0.0003944
0.000393632
0.00039303
0.00039234
0.00039181
0.00039119
0.00039072
0.000390161
0.000389751
0.000389246
0.000388885
0.000388429
0.000388116
0.0003877
0.000387428
0.000387058
0.000386817
0.000386485
0.000386271
0.000385976
0.000385787
0.000385526
0.000385355
0.000385126
0.000384977
0.000384765
0.000384627
0.000384433
0.000384313
0.00038414
0.000384041
0.000383889
0.00038381
0.00038368
0.000383622
0.000383522
0.000383494
0.000383433
0.000383445
0.000383429
0.000383471
0.000383459
0.000383598
0.000383588
0.000389303
0.0146047
0.016838
0.00102449
0.000932686
0.000854708
0.000788777
0.000733761
0.000688394
0.000650882
0.000619821
0.000593746
0.000571781
0.000552963
0.000536839
0.000522758
0.000510531
0.000499672
0.000490143
0.000481557
0.000473967
0.000467039
0.000460886
0.0004552
0.000450136
0.000445403
0.00044118
0.000437191
0.000433631
0.000430236
0.000427211
0.000424291
0.000421702
0.000419175
0.000416944
0.00041474
0.000412807
0.000410875
0.000409196
0.000407496
0.000406031
0.000404526
0.000403242
0.000401904
0.000400776
0.000399582
0.00039859
0.000397523
0.000396648
0.000395691
0.000394917
0.000394057
0.000393374
0.000392601
0.000391996
0.000391302
0.000390769
0.000390145
0.000389672
0.00038911
0.000388697
0.000388188
0.000387825
0.000387366
0.000387051
0.000386632
0.000386357
0.000385985
0.000385742
0.000385407
0.000385191
0.000384894
0.000384703
0.00038444
0.000384268
0.000384037
0.000383886
0.000383672
0.000383533
0.000383336
0.000383215
0.00038304
0.000382938
0.000382784
0.000382703
0.000382571
0.000382511
0.000382408
0.000382378
0.000382314
0.000382322
0.000382303
0.000382341
0.000382326
0.000382462
0.00038245
0.000388342
0.0148953
0.017335
0.00102449
0.000932699
0.000854747
0.000788815
0.000733761
0.000688334
0.00065075
0.000619614
0.000593467
0.000571435
0.000552555
0.000536375
0.000522243
0.000509969
0.000499068
0.000489502
0.00048088
0.000473259
0.000466303
0.000460123
0.000454413
0.000449326
0.000444573
0.000440331
0.000436324
0.000432748
0.000429338
0.000426299
0.000423365
0.000420764
0.000418226
0.000415983
0.000413769
0.000411827
0.000409885
0.000408198
0.00040649
0.000405017
0.000403505
0.000402214
0.000400869
0.000399735
0.000398534
0.000397538
0.000396464
0.000395584
0.000394622
0.000393844
0.000392979
0.000392292
0.000391514
0.000390906
0.000390207
0.000389671
0.000389043
0.000388567
0.000388001
0.000387585
0.000387073
0.000386707
0.000386245
0.000385927
0.000385505
0.000385228
0.000384853
0.000384608
0.000384271
0.000384053
0.000383753
0.00038356
0.000383295
0.00038312
0.000382888
0.000382735
0.000382519
0.000382378
0.000382179
0.000382056
0.000381878
0.000381775
0.000381619
0.000381535
0.000381401
0.000381338
0.000381233
0.0003812
0.000381133
0.000381137
0.000381115
0.000381148
0.00038113
0.000381264
0.000381249
0.000387325
0.0151801
0.0178558
0.00102448
0.000932711
0.000854789
0.000788854
0.000733763
0.000688273
0.000650614
0.0006194
0.000593177
0.000571074
0.000552129
0.00053589
0.000521704
0.000509381
0.000498436
0.000488829
0.000480172
0.000472517
0.00046553
0.000459323
0.000453587
0.000448477
0.000443702
0.000439439
0.000435414
0.000431821
0.000428394
0.00042534
0.000422392
0.000419778
0.000417228
0.000414974
0.000412748
0.000410796
0.000408845
0.000407148
0.000405431
0.00040395
0.00040243
0.000401133
0.00039978
0.00039864
0.000397433
0.00039643
0.000395351
0.000394465
0.000393498
0.000392715
0.000391845
0.000391153
0.000390371
0.000389758
0.000389055
0.000388515
0.000387883
0.000387404
0.000386834
0.000386415
0.000385899
0.00038553
0.000385065
0.000384744
0.000384319
0.00038404
0.000383661
0.000383414
0.000383074
0.000382854
0.000382551
0.000382356
0.000382089
0.000381913
0.000381678
0.000381524
0.000381305
0.000381163
0.000380961
0.000380836
0.000380656
0.000380551
0.000380392
0.000380306
0.000380169
0.000380104
0.000379996
0.000379961
0.00037989
0.00037989
0.000379864
0.000379893
0.000379871
0.000380002
0.000379986
0.00038625
0.015454
0.0183978
0.00102447
0.000932724
0.000854832
0.000788897
0.000733768
0.000688212
0.000650475
0.000619179
0.000592877
0.000570699
0.000551686
0.000535384
0.000521141
0.000508768
0.000497776
0.000488127
0.000479431
0.000471741
0.000464722
0.000458485
0.000452722
0.000447587
0.000442789
0.000438505
0.00043446
0.000430849
0.000427405
0.000424336
0.000421373
0.000418745
0.000416181
0.000413915
0.000411678
0.000409715
0.000407753
0.000406047
0.000404321
0.000402832
0.000401303
0.000399998
0.000398637
0.000397491
0.000396276
0.000395268
0.000394182
0.000393291
0.000392318
0.000391529
0.000390654
0.000389958
0.000389171
0.000388554
0.000387846
0.000387302
0.000386666
0.000386183
0.000385608
0.000385186
0.000384667
0.000384295
0.000383826
0.000383503
0.000383074
0.000382792
0.00038241
0.000382161
0.000381818
0.000381595
0.00038129
0.000381092
0.000380822
0.000380645
0.000380407
0.000380251
0.00038003
0.000379886
0.000379682
0.000379555
0.000379372
0.000379265
0.000379103
0.000379015
0.000378875
0.000378808
0.000378697
0.000378659
0.000378585
0.000378581
0.000378551
0.000378575
0.000378549
0.000378678
0.000378659
0.000385117
0.0157111
0.0189576
0.00102446
0.000932736
0.000854877
0.000788942
0.000733774
0.00068815
0.000650332
0.000618951
0.000592567
0.000570311
0.000551226
0.000534859
0.000520557
0.000508129
0.000497088
0.000487394
0.000478658
0.000470931
0.000463878
0.00045761
0.000451819
0.000446657
0.000441835
0.000437529
0.000433463
0.000429833
0.000426371
0.000423285
0.000420306
0.000417664
0.000415086
0.000412808
0.000410558
0.000408584
0.000406611
0.000404895
0.000403159
0.00040166
0.000400123
0.00039881
0.000397441
0.000396288
0.000395066
0.00039405
0.000392958
0.000392061
0.000391081
0.000390288
0.000389407
0.000388706
0.000387913
0.000387292
0.000386579
0.000386031
0.00038539
0.000384903
0.000384325
0.000383899
0.000383376
0.000383001
0.000382527
0.000382201