/*--------------------------------*- C++ -*----------------------------------*\
| =========                 |                                                 |
| \\      /  F ield         | OpenFOAM: The Open Source CFD Toolbox           |
|  \\    /   O peration     | Version:  v2012                                 |
|   \\  /    A nd           | Website:  www.openfoam.com                      |
|    \\/     M anipulation  |                                                 |
\*---------------------------------------------------------------------------*/
FoamFile
{
    version     2.0;
    format      ascii;
    class       volScalarField;
    location    "21";
    object      k;
}
// * * * * * * * * * * * * * * * * * * * * * * * * * * * * * * * * * * * * * //

dimensions      [0 2 -2 0 0 0 0];


internalField   nonuniform List<scalar> 
209825
(
0.00102004
0.000934532
0.000880096
0.000845168
0.000821606
0.000804885
0.000792495
0.000783024
0.000775592
0.000769647
0.000764808
0.00076082
0.00075749
0.000754684
0.000752295
0.000750252
0.000748484
0.00074695
0.000745604
0.000744434
0.000743393
0.000742478
0.000741652
0.000740934
0.000740276
0.000739692
0.000739155
0.000738692
0.000738256
0.000737878
0.000737512
0.00073722
0.000736919
0.000736654
0.000736404
0.000736209
0.000736011
0.000735842
0.000735673
0.000735556
0.000735412
0.000735292
0.000735181
0.000735111
0.000734973
0.000734894
0.000734847
0.000734817
0.000734789
0.000734751
0.000734661
0.000734644
0.000734636
0.000734619
0.00073456
0.000734628
0.000734628
0.000734625
0.000734747
0.000734761
0.000734761
0.000734852
0.000734947
0.000735106
0.000735241
0.000735409
0.00073551
0.000735663
0.000735752
0.000735913
0.000736046
0.000736251
0.000736378
0.000736585
0.000736727
0.000736958
0.000737096
0.000737362
0.000737526
0.000737833
0.000737994
0.00073833
0.000738515
0.000738902
0.000739121
0.000739582
0.000739843
0.000740393
0.000740695
0.000741384
0.000741711
0.000742849
0.000743125
0.000754278
0.000801939
0.00206752
0.00102004
0.00093453
0.000880091
0.00084516
0.000821594
0.000804871
0.000792479
0.000783007
0.000775573
0.000769627
0.000764787
0.000760798
0.000757467
0.000754661
0.000752271
0.000750228
0.000748459
0.000746925
0.000745579
0.000744409
0.000743368
0.000742452
0.000741626
0.000740908
0.00074025
0.000739666
0.000739128
0.000738665
0.000738229
0.000737851
0.000737485
0.000737193
0.000736892
0.000736627
0.000736376
0.000736182
0.000735984
0.000735815
0.000735646
0.000735529
0.000735385
0.000735264
0.000735154
0.000735084
0.000734945
0.000734867
0.000734819
0.000734789
0.000734761
0.000734724
0.000734633
0.000734616
0.000734608
0.000734591
0.000734532
0.0007346
0.0007346
0.000734597
0.000734719
0.000734733
0.000734733
0.000734824
0.000734919
0.000735078
0.000735213
0.000735381
0.000735482
0.000735635
0.000735724
0.000735885
0.000736018
0.000736223
0.00073635
0.000736557
0.000736699
0.00073693
0.000737068
0.000737334
0.000737498
0.000737805
0.000737966
0.000738302
0.000738487
0.000738874
0.000739093
0.000739554
0.000739815
0.000740364
0.000740667
0.000741356
0.000741683
0.000742821
0.000743097
0.000754271
0.000801936
0.00206877
0.00102005
0.000934522
0.000880066
0.00084512
0.000821542
0.000804809
0.000792411
0.000782932
0.000775494
0.000769544
0.000764701
0.000760709
0.000757376
0.000754568
0.000752176
0.000750132
0.000748362
0.000746826
0.000745479
0.000744308
0.000743266
0.00074235
0.000741523
0.000740804
0.000740146
0.000739561
0.000739023
0.00073856
0.000738123
0.000737745
0.000737378
0.000737086
0.000736785
0.000736519
0.000736269
0.000736074
0.000735876
0.000735707
0.000735537
0.00073542
0.000735276
0.000735155
0.000735045
0.000734975
0.000734836
0.000734757
0.00073471
0.000734679
0.000734652
0.000734614
0.000734524
0.000734507
0.000734498
0.000734481
0.000734422
0.00073449
0.00073449
0.000734487
0.000734608
0.000734623
0.000734623
0.000734713
0.000734808
0.000734968
0.000735102
0.00073527
0.000735371
0.000735524
0.000735613
0.000735774
0.000735907
0.000736112
0.000736239
0.000736446
0.000736588
0.000736819
0.000736957
0.000737223
0.000737387
0.000737693
0.000737854
0.00073819
0.000738375
0.000738762
0.000738981
0.000739442
0.000739703
0.000740252
0.000740555
0.000741243
0.00074157
0.000742708
0.000742983
0.000754202
0.000801867
0.00207125
0.00102005
0.000934509
0.000880025
0.000845053
0.000821455
0.000804706
0.000792295
0.000782807
0.00077536
0.000769404
0.000764556
0.00076056
0.000757222
0.000754411
0.000752017
0.000749969
0.000748197
0.00074666
0.000745311
0.000744138
0.000743095
0.000742178
0.00074135
0.00074063
0.000739971
0.000739385
0.000738846
0.000738382
0.000737945
0.000737567
0.000737199
0.000736906
0.000736605
0.000736339
0.000736088
0.000735893
0.000735694
0.000735525
0.000735355
0.000735238
0.000735094
0.000734973
0.000734862
0.000734792
0.000734653
0.000734574
0.000734526
0.000734496
0.000734468
0.00073443
0.00073434
0.000734322
0.000734314
0.000734297
0.000734238
0.000734305
0.000734305
0.000734302
0.000734423
0.000734438
0.000734438
0.000734528
0.000734623
0.000734782
0.000734917
0.000735084
0.000735186
0.000735339
0.000735427
0.000735588
0.000735721
0.000735926
0.000736053
0.00073626
0.000736401
0.000736633
0.00073677
0.000737036
0.0007372
0.000737506
0.000737667
0.000738003
0.000738188
0.000738575
0.000738793
0.000739254
0.000739515
0.000740064
0.000740366
0.000741054
0.000741381
0.000742519
0.000742792
0.000754079
0.000801735
0.00207414
0.00102006
0.000934489
0.000879966
0.000844958
0.000821331
0.00080456
0.000792132
0.00078263
0.000775172
0.000769207
0.000764351
0.000760348
0.000757006
0.00075419
0.000751791
0.000749741
0.000747965
0.000746425
0.000745074
0.000743899
0.000742854
0.000741935
0.000741106
0.000740384
0.000739724
0.000739137
0.000738597
0.000738132
0.000737695
0.000737315
0.000736947
0.000736653
0.000736351
0.000736085
0.000735833
0.000735638
0.000735438
0.000735269
0.000735098
0.000734981
0.000734836
0.000734715
0.000734604
0.000734533
0.000734395
0.000734315
0.000734267
0.000734237
0.000734208
0.000734171
0.00073408
0.000734063
0.000734054
0.000734037
0.000733977
0.000734044
0.000734044
0.000734041
0.000734162
0.000734176
0.000734176
0.000734267
0.000734361
0.00073452
0.000734654
0.000734822
0.000734923
0.000735076
0.000735165
0.000735325
0.000735458
0.000735663
0.00073579
0.000735997
0.000736138
0.000736369
0.000736507
0.000736773
0.000736936
0.000737243
0.000737403
0.000737739
0.000737924
0.00073831
0.000738529
0.000738989
0.00073925
0.000739798
0.000740101
0.000740788
0.000741114
0.000742251
0.000742523
0.000753904
0.000801535
0.00207743
0.00102006
0.000934464
0.000879889
0.000844835
0.000821171
0.000804372
0.000791921
0.000782401
0.000774929
0.000768952
0.000764086
0.000760075
0.000756725
0.000753903
0.000751499
0.000749444
0.000747665
0.000746121
0.000744767
0.000743589
0.000742542
0.00074162
0.000740789
0.000740066
0.000739404
0.000738816
0.000738275
0.000737808
0.000737369
0.000736989
0.00073662
0.000736325
0.000736023
0.000735755
0.000735503
0.000735307
0.000735107
0.000734937
0.000734766
0.000734648
0.000734503
0.000734381
0.000734269
0.000734199
0.00073406
0.00073398
0.000733931
0.000733901
0.000733872
0.000733834
0.000733744
0.000733726
0.000733718
0.0007337
0.00073364
0.000733706
0.000733706
0.000733703
0.000733823
0.000733838
0.000733837
0.000733928
0.000734022
0.000734181
0.000734315
0.000734482
0.000734584
0.000734737
0.000734825
0.000734985
0.000735118
0.000735323
0.000735449
0.000735656
0.000735797
0.000736028
0.000736166
0.000736431
0.000736595
0.000736901
0.000737062
0.000737397
0.000737581
0.000737968
0.000738186
0.000738646
0.000738906
0.000739454
0.000739756
0.000740442
0.000740768
0.000741905
0.000742174
0.000753677
0.000801267
0.00208103
0.00102007
0.000934433
0.000879795
0.000844684
0.000820974
0.000804139
0.000791661
0.000782119
0.000774629
0.000768637
0.000763759
0.000759738
0.000756379
0.00075355
0.00075114
0.000749079
0.000747295
0.000745746
0.000744389
0.000743207
0.000742157
0.000741233
0.000740399
0.000739674
0.000739009
0.000738419
0.000737877
0.000737409
0.000736969
0.000736586
0.000736216
0.000735921
0.000735617
0.000735349
0.000735096
0.000734899
0.000734698
0.000734527
0.000734356
0.000734237
0.000734092
0.00073397
0.000733857
0.000733786
0.000733647
0.000733567
0.000733518
0.000733486
0.000733458
0.00073342
0.000733329
0.000733311
0.000733302
0.000733284
0.000733224
0.000733289
0.000733289
0.000733286
0.000733406
0.00073342
0.00073342
0.00073351
0.000733604
0.000733762
0.000733896
0.000734063
0.000734165
0.000734318
0.000734406
0.000734566
0.000734698
0.000734903
0.000735029
0.000735236
0.000735377
0.000735608
0.000735745
0.00073601
0.000736173
0.000736479
0.00073664
0.000736975
0.000737159
0.000737545
0.000737763
0.000738222
0.000738483
0.000739029
0.000739331
0.000740016
0.000740341
0.000741478
0.000741744
0.000753399
0.000800929
0.0020848
0.00102009
0.000934396
0.000879684
0.000844504
0.00082074
0.000803863
0.000791351
0.000781783
0.000774271
0.000768262
0.00076337
0.000759336
0.000755967
0.000753129
0.000750711
0.000748643
0.000746853
0.0007453
0.000743937
0.000742752
0.000741698
0.00074077
0.000739934
0.000739206
0.000738539
0.000737947
0.000737402
0.000736932
0.00073649
0.000736107
0.000735735
0.000735438
0.000735134
0.000734864
0.00073461
0.000734412
0.000734211
0.000734039
0.000733867
0.000733747
0.000733601
0.000733479
0.000733365
0.000733294
0.000733155
0.000733074
0.000733024
0.000732992
0.000732963
0.000732925
0.000732835
0.000732816
0.000732807
0.000732789
0.000732728
0.000732792
0.000732792
0.000732789
0.000732908
0.000732922
0.000732922
0.000733012
0.000733105
0.000733263
0.000733396
0.000733564
0.000733665
0.000733818
0.000733906
0.000734066
0.000734197
0.000734402
0.000734528
0.000734735
0.000734876
0.000735107
0.000735244
0.000735508
0.000735671
0.000735977
0.000736137
0.000736472
0.000736656
0.000737041
0.000737259
0.000737717
0.000737977
0.000738523
0.000738824
0.000739508
0.000739831
0.000740969
0.000741231
0.000753068
0.000800523
0.0020885
0.0010201
0.000934354
0.000879555
0.000844295
0.000820468
0.000803541
0.000790991
0.000781392
0.000773856
0.000767826
0.000762917
0.000758868
0.000755487
0.000752639
0.000750212
0.000748136
0.000746339
0.00074478
0.000743412
0.000742222
0.000741163
0.000740232
0.000739392
0.000738661
0.000737991
0.000737397
0.00073685
0.000736378
0.000735934
0.000735549
0.000735175
0.000734877
0.000734571
0.0007343
0.000734045
0.000733846
0.000733643
0.000733471
0.000733297
0.000733177
0.00073303
0.000732907
0.000732793
0.000732721
0.000732582
0.0007325
0.000732449
0.000732417
0.000732388
0.000732349
0.000732259
0.00073224
0.00073223
0.000732212
0.00073215
0.000732214
0.000732214
0.000732209
0.000732329
0.000732342
0.000732342
0.000732432
0.000732524
0.000732682
0.000732814
0.000732982
0.000733083
0.000733236
0.000733324
0.000733483
0.000733614
0.000733819
0.000733945
0.000734151
0.000734292
0.000734522
0.000734659
0.000734923
0.000735086
0.000735391
0.000735552
0.000735886
0.00073607
0.000736454
0.000736671
0.000737129
0.000737388
0.000737933
0.000738233
0.000738916
0.000739238
0.000740376
0.000740634
0.000752686
0.000800046
0.00209174
0.00102012
0.000934307
0.000879408
0.000844058
0.000820158
0.000803174
0.00079058
0.000780946
0.000773381
0.000767327
0.000762399
0.000758334
0.000754939
0.000752079
0.000749641
0.000747556
0.000745752
0.000744185
0.000742811
0.000741616
0.000740552
0.000739617
0.000738773
0.000738038
0.000737365
0.000736768
0.000736218
0.000735743
0.000735297
0.00073491
0.000734535
0.000734234
0.000733927
0.000733655
0.000733398
0.000733198
0.000732994
0.00073282
0.000732646
0.000732524
0.000732377
0.000732253
0.000732138
0.000732066
0.000731926
0.000731844
0.000731792
0.000731759
0.000731729
0.000731691
0.0007316
0.00073158
0.000731571
0.000731552
0.000731489
0.000731552
0.000731551
0.000731547
0.000731665
0.000731678
0.000731678
0.000731768
0.00073186
0.000732016
0.000732149
0.000732316
0.000732417
0.000732571
0.000732658
0.000732816
0.000732947
0.000733151
0.000733277
0.000733483
0.000733624
0.000733854
0.000733991
0.000734254
0.000734416
0.000734722
0.000734882
0.000735215
0.000735399
0.000735782
0.000735999
0.000736456
0.000736714
0.000737258
0.000737557
0.000738239
0.00073856
0.000739697
0.00073995
0.000752252
0.000799499
0.002094
0.00102014
0.000934254
0.000879244
0.000843791
0.000819809
0.000802762
0.000790117
0.000780443
0.000772846
0.000766766
0.000761815
0.000757732
0.000754321
0.000751447
0.000748998
0.000746903
0.000745089
0.000743515
0.000742134
0.000740932
0.000739863
0.000738923
0.000738074
0.000737335
0.000736659
0.000736058
0.000735505
0.000735028
0.000734579
0.00073419
0.000733812
0.00073351
0.0007332
0.000732927
0.000732668
0.000732466
0.000732261
0.000732087
0.000731911
0.000731788
0.00073164
0.000731515
0.000731399
0.000731326
0.000731186
0.000731103
0.00073105
0.000731017
0.000730986
0.000730947
0.000730857
0.000730836
0.000730826
0.000730807
0.000730744
0.000730805
0.000730804
0.000730799
0.000730917
0.000730929
0.000730929
0.000731019
0.00073111
0.000731266
0.000731398
0.000731565
0.000731666
0.000731819
0.000731906
0.000732064
0.000732195
0.000732398
0.000732524
0.00073273
0.00073287
0.0007331
0.000733236
0.0007335
0.000733661
0.000733966
0.000734126
0.000734459
0.000734642
0.000735025
0.000735241
0.000735696
0.000735954
0.000736496
0.000736795
0.000737475
0.000737794
0.000738932
0.00073918
0.000751766
0.00079888
0.00209454
0.00102016
0.000934195
0.000879062
0.000843495
0.000819422
0.000802303
0.000789603
0.000779884
0.000772251
0.000766141
0.000761165
0.000757061
0.000753633
0.000750743
0.000748281
0.000746174
0.000744351
0.000742768
0.000741379
0.00074017
0.000739095
0.000738148
0.000737295
0.000736552
0.000735871
0.000735267
0.00073471
0.00073423
0.000733778
0.000733386
0.000733006
0.000732701
0.00073239
0.000732115
0.000731854
0.000731651
0.000731444
0.000731268
0.000731091
0.000730967
0.000730818
0.000730692
0.000730575
0.000730501
0.000730361
0.000730277
0.000730223
0.000730189
0.000730157
0.000730118
0.000730028
0.000730006
0.000729996
0.000729976
0.000729912
0.000729971
0.000729971
0.000729966
0.000730082
0.000730094
0.000730094
0.000730184
0.000730274
0.000730429
0.00073056
0.000730726
0.000730827
0.000730981
0.000731068
0.000731225
0.000731355
0.000731558
0.000731684
0.000731889
0.000732029
0.000732259
0.000732395
0.000732657
0.000732818
0.000733122
0.000733282
0.000733614
0.000733797
0.000734179
0.000734395
0.000734849
0.000735106
0.000735647
0.000735944
0.000736623
0.00073694
0.000738078
0.00073832
0.000751227
0.00079819
0.00209256
0.00102018
0.000934132
0.000878863
0.00084317
0.000818996
0.000801798
0.000789035
0.000779266
0.000771593
0.00076545
0.000760448
0.00075632
0.000752872
0.000749966
0.000747489
0.00074537
0.000743535
0.000741942
0.000740544
0.000739328
0.000738245
0.000737293
0.000736434
0.000735685
0.000735
0.000734392
0.000733832
0.000733348
0.000732893
0.000732498
0.000732115
0.000731808
0.000731495
0.000731217
0.000730955
0.000730749
0.000730541
0.000730363
0.000730185
0.00073006
0.000729909
0.000729783
0.000729664
0.00072959
0.000729448
0.000729363
0.000729308
0.000729273
0.00072924
0.000729202
0.000729112
0.000729089
0.000729078
0.000729057
0.000728992
0.00072905
0.00072905
0.000729044
0.000729159
0.000729171
0.00072917
0.00072926
0.000729349
0.000729503
0.000729633
0.0007298
0.0007299
0.000730055
0.000730141
0.000730298
0.000730426
0.000730629
0.000730755
0.00073096
0.000731099
0.000731329
0.000731464
0.000731726
0.000731886
0.00073219
0.000732349
0.000732681
0.000732863
0.000733244
0.000733459
0.000733912
0.000734168
0.000734707
0.000735004
0.00073568
0.000735996
0.000737133
0.00073737
0.000750637
0.000797427
0.00208806
0.0010202
0.000934063
0.000878646
0.000842815
0.00081853
0.000801245
0.000788414
0.000778591
0.000770874
0.000764695
0.000759661
0.000755509
0.000752039
0.000749114
0.000746621
0.000744487
0.00074264
0.000741037
0.00073963
0.000738404
0.000737314
0.000736355
0.00073549
0.000734736
0.000734046
0.000733433
0.000732868
0.00073238
0.000731922
0.000731524
0.000731138
0.000730828
0.000730512
0.000730233
0.000729968
0.00072976
0.00072955
0.000729371
0.00072919
0.000729064
0.000728912
0.000728785
0.000728664
0.000728589
0.000728447
0.000728361
0.000728305
0.000728269
0.000728235
0.000728196
0.000728106
0.000728082
0.00072807
0.000728049
0.000727983
0.000728039
0.000728039
0.000728032
0.000728147
0.000728157
0.000728157
0.000728247
0.000728334
0.000728488
0.000728617
0.000728783
0.000728884
0.000729038
0.000729124
0.00072928
0.000729408
0.00072961
0.000729736
0.00072994
0.000730078
0.000730308
0.000730443
0.000730705
0.000730864
0.000731167
0.000731326
0.000731657
0.000731838
0.000732218
0.000732433
0.000732884
0.000733139
0.000733677
0.000733972
0.000734646
0.000734959
0.000736097
0.000736327
0.000749993
0.00079659
0.00208106
0.00102023
0.00093399
0.000878412
0.000842431
0.000818025
0.000800645
0.00078774
0.000777857
0.000770091
0.000763872
0.000758806
0.000754625
0.000751132
0.000748186
0.000745676
0.000743527
0.000741666
0.000740051
0.000738633
0.000737398
0.0007363
0.000735333
0.000734461
0.000733701
0.000733005
0.000732387
0.000731818
0.000731326
0.000730864
0.000730462
0.000730074
0.00072976
0.000729442
0.00072916
0.000728893
0.000728683
0.00072847
0.00072829
0.000728107
0.000727979
0.000727826
0.000727697
0.000727575
0.000727499
0.000727356
0.000727269
0.000727211
0.000727174
0.000727139
0.0007271
0.00072701
0.000726985
0.000726972
0.000726951
0.000726884
0.000726938
0.000726937
0.00072693
0.000727043
0.000727053
0.000727053
0.000727142
0.000727228
0.000727381
0.000727509
0.000727675
0.000727775
0.00072793
0.000728015
0.00072817
0.000728297
0.000728499
0.000728624
0.000728829
0.000728966
0.000729195
0.00072933
0.000729591
0.000729749
0.000730052
0.00073021
0.00073054
0.000730721
0.0007311
0.000731314
0.000731763
0.000732018
0.000732553
0.000732847
0.000733519
0.00073383
0.000734968
0.000735192
0.000749295
0.000795678
0.00207162
0.00102026
0.000933912
0.00087816
0.000842017
0.00081748
0.000799997
0.000787011
0.000777063
0.000769245
0.000762983
0.00075788
0.000753669
0.00075015
0.000747182
0.000744652
0.000742487
0.000740611
0.000738983
0.000737554
0.000736309
0.000735201
0.000734227
0.000733347
0.00073258
0.000731878
0.000731255
0.000730681
0.000730184
0.000729718
0.000729312
0.00072892
0.000728603
0.000728282
0.000727997
0.000727727
0.000727515
0.0007273
0.000727117
0.000726933
0.000726803
0.000726648
0.000726518
0.000726394
0.000726317
0.000726174
0.000726085
0.000726026
0.000725987
0.000725952
0.000725912
0.000725822
0.000725796
0.000725782
0.00072576
0.000725692
0.000725744
0.000725744
0.000725735
0.000725847
0.000725856
0.000725856
0.000725945
0.00072603
0.000726181
0.000726308
0.000726473
0.000726574
0.000726729
0.000726813
0.000726968
0.000727093
0.000727295
0.00072742
0.000727624
0.000727761
0.000727989
0.000728123
0.000728383
0.000728541
0.000728843
0.000729001
0.00072933
0.000729511
0.000729888
0.0007301
0.000730548
0.000730802
0.000731335
0.000731628
0.000732297
0.000732605
0.000733744
0.000733961
0.000748543
0.000794689
0.00205977
0.00102029
0.000933829
0.000877892
0.000841575
0.000816896
0.000799301
0.000786227
0.000776209
0.000768334
0.000762025
0.000756884
0.000752639
0.000749092
0.0007461
0.000743549
0.000741366
0.000739475
0.000737832
0.00073639
0.000735134
0.000734017
0.000733033
0.000732146
0.000731371
0.000730663
0.000730034
0.000729454
0.000728953
0.000728482
0.000728072
0.000727676
0.000727355
0.000727031
0.000726744
0.00072647
0.000726255
0.000726038
0.000725853
0.000725667
0.000725534
0.000725378
0.000725247
0.000725121
0.000725043
0.000724899
0.000724808
0.000724747
0.000724708
0.000724671
0.000724631
0.00072454
0.000724513
0.000724499
0.000724476
0.000724406
0.000724456
0.000724456
0.000724446
0.000724557
0.000724565
0.000724564
0.000724653
0.000724737
0.000724886
0.000725013
0.000725177
0.000725278
0.000725433
0.000725517
0.00072567
0.000725795
0.000725996
0.00072612
0.000726324
0.00072646
0.000726688
0.000726822
0.000727081
0.000727238
0.000727539
0.000727696
0.000728024
0.000728204
0.00072858
0.000728792
0.000729237
0.00072949
0.000730021
0.000730313
0.000730979
0.000731285
0.000732424
0.000732634
0.000747735
0.000793622
0.00204559
0.00102032
0.000933742
0.000877607
0.000841102
0.000816272
0.000798557
0.000785389
0.000775295
0.000767359
0.000760999
0.000755815
0.000751535
0.000747958
0.00074494
0.000742366
0.000740163
0.000738255
0.000736597
0.000735142
0.000733874
0.000732746
0.000731753
0.000730856
0.000730074
0.000729359
0.000728723
0.000728137
0.000727631
0.000727154
0.00072674
0.00072634
0.000726015
0.000725688
0.000725397
0.000725121
0.000724903
0.000724683
0.000724496
0.000724307
0.000724172
0.000724015
0.000723881
0.000723754
0.000723674
0.000723529
0.000723437
0.000723374
0.000723333
0.000723295
0.000723254
0.000723164
0.000723135
0.00072312
0.000723097
0.000723026
0.000723073
0.000723073
0.000723062
0.000723171
0.000723178
0.000723178
0.000723266
0.000723348
0.000723496
0.000723622
0.000723785
0.000723886
0.000724041
0.000724124
0.000724277
0.0007244
0.000724601
0.000724725
0.000724927
0.000725063
0.000725291
0.000725424
0.000725682
0.000725838
0.000726138
0.000726295
0.000726622
0.000726801
0.000727175
0.000727386
0.00072783
0.000728081
0.000728609
0.0007289
0.000729563
0.000729866
0.000731005
0.000731208
0.000746869
0.000792474
0.00202914
0.00102036
0.000933651
0.000877305
0.000840601
0.000815608
0.000797765
0.000784495
0.00077432
0.000766318
0.000759903
0.000754674
0.000750356
0.000746746
0.0007437
0.000741102
0.000738878
0.000736951
0.000735277
0.000733807
0.000732526
0.000731387
0.000730383
0.000729477
0.000728687
0.000727964
0.000727321
0.000726729
0.000726216
0.000725735
0.000725316
0.000724911
0.000724582
0.000724251
0.000723957
0.000723677
0.000723456
0.000723233
0.000723044
0.000722852
0.000722715
0.000722556
0.000722421
0.000722291
0.000722209
0.000722064
0.00072197
0.000721905
0.000721863
0.000721823
0.000721782
0.000721691
0.000721661
0.000721645
0.000721621
0.000721549
0.000721593
0.000721593
0.000721581
0.000721688
0.000721694
0.000721694
0.000721782
0.000721862
0.000722009
0.000722133
0.000722296
0.000722396
0.000722552
0.000722634
0.000722786
0.000722908
0.000723108
0.000723231
0.000723433
0.000723568
0.000723795
0.000723927
0.000724185
0.000724339
0.000724639
0.000724795
0.000725121
0.000725299
0.000725672
0.000725882
0.000726323
0.000726573
0.000727099
0.000727388
0.000728048
0.000728348
0.000729487
0.000729684
0.000745944
0.000791242
0.00201049
0.0010204
0.000933556
0.000876987
0.000840071
0.000814904
0.000796924
0.000783546
0.000773283
0.000765211
0.000758738
0.00075346
0.000749101
0.000745456
0.000742379
0.000739756
0.000737509
0.000735562
0.00073387
0.000732385
0.00073109
0.000729938
0.000728924
0.000728008
0.000727208
0.000726477
0.000725827
0.000725228
0.000724709
0.000724222
0.000723798
0.000723388
0.000723055
0.000722719
0.000722422
0.000722139
0.000721914
0.000721688
0.000721496
0.000721301
0.000721162
0.000721
0.000720863
0.000720731
0.000720648
0.000720502
0.000720406
0.000720339
0.000720295
0.000720253
0.000720212
0.000720121
0.00072009
0.000720072
0.000720047
0.000719974
0.000720015
0.000720015
0.000720002
0.000720107
0.000720112
0.000720112
0.000720199
0.000720277
0.000720423
0.000720546
0.000720708
0.000720808
0.000720963
0.000721045
0.000721195
0.000721316
0.000721515
0.000721638
0.00072184
0.000721974
0.0007222
0.000722332
0.000722588
0.000722742
0.00072304
0.000723196
0.00072352
0.000723698
0.000724069
0.000724278
0.000724716
0.000724965
0.000725488
0.000725775
0.000726433
0.000726729
0.000727869
0.000728058
0.000744957
0.000789924
0.00198974
0.00102044
0.000933457
0.000876654
0.000839512
0.000814161
0.000796034
0.000782541
0.000772185
0.000764037
0.000757502
0.000752172
0.000747769
0.000744086
0.000740978
0.000738327
0.000736055
0.000734087
0.000732377
0.000730875
0.000729565
0.0007284
0.000727373
0.000726447
0.000725637
0.000724898
0.00072424
0.000723633
0.000723108
0.000722614
0.000722185
0.00072177
0.000721431
0.000721091
0.00072079
0.000720503
0.000720275
0.000720046
0.000719851
0.000719653
0.000719511
0.000719347
0.000719208
0.000719073
0.000718989
0.000718841
0.000718743
0.000718674
0.000718628
0.000718585
0.000718543
0.000718452
0.000718419
0.0007184
0.000718374
0.0007183
0.000718338
0.000718338
0.000718324
0.000718426
0.00071843
0.00071843
0.000718517
0.000718593
0.000718736
0.000718858
0.000719019
0.000719119
0.000719275
0.000719356
0.000719505
0.000719624
0.000719823
0.000719945
0.000720146
0.000720279
0.000720505
0.000720635
0.000720891
0.000721043
0.00072134
0.000721496
0.000721818
0.000721995
0.000722364
0.000722572
0.000723008
0.000723256
0.000723775
0.000724061
0.000724715
0.000725007
0.000726148
0.000726331
0.000743907
0.000788516
0.00196699
0.00102048
0.000933355
0.000876304
0.000838925
0.000813378
0.000795096
0.00078148
0.000771025
0.000762797
0.000756195
0.00075081
0.00074636
0.000742637
0.000739495
0.000736814
0.000734516
0.000732526
0.000730795
0.000729276
0.00072795
0.00072677
0.000725731
0.000724793
0.000723973
0.000723224
0.000722558
0.000721944
0.000721411
0.000720911
0.000720475
0.000720054
0.000719711
0.000719367
0.000719061
0.00071877
0.000718538
0.000718305
0.000718107
0.000717906
0.000717761
0.000717594
0.000717454
0.000717316
0.00071723
0.000717081
0.000716981
0.000716909
0.000716862
0.000716817
0.000716774
0.000716683
0.000716648
0.000716627
0.000716601
0.000716525
0.00071656
0.00071656
0.000716544
0.000716644
0.000716647
0.000716647
0.000716733
0.000716807
0.000716949
0.000717069
0.000717229
0.000717328
0.000717485
0.000717565
0.000717712
0.00071783
0.000718028
0.00071815
0.00071835
0.000718481
0.000718707
0.000718837
0.000719091
0.000719242
0.000719538
0.000719693
0.000720014
0.00072019
0.000720557
0.000720763
0.000721197
0.000721443
0.00072196
0.000722243
0.000722893
0.000723182
0.000724323
0.0007245
0.000742789
0.000787012
0.00194234
0.00102053
0.00093325
0.00087594
0.00083831
0.000812556
0.00079411
0.000780363
0.000769803
0.000761489
0.000754817
0.000749373
0.000744873
0.000741108
0.000737929
0.000735216
0.000732891
0.000730876
0.000729125
0.000727586
0.000726243
0.000725049
0.000723996
0.000723046
0.000722215
0.000721456
0.00072078
0.000720158
0.000719617
0.00071911
0.000718668
0.000718242
0.000717892
0.000717543
0.000717234
0.000716938
0.000716701
0.000716465
0.000716263
0.000716059
0.000715911
0.000715742
0.000715599
0.000715458
0.00071537
0.00071522
0.000715118
0.000715044
0.000714994
0.000714947
0.000714904
0.000714812
0.000714775
0.000714753
0.000714726
0.000714649
0.000714681
0.000714681
0.000714663
0.00071476
0.000714762
0.000714761
0.000714847
0.000714918
0.000715059
0.000715177
0.000715336
0.000715435
0.000715591
0.00071567
0.000715816
0.000715933
0.00071613
0.000716251
0.00071645
0.000716581
0.000716806
0.000716935
0.000717187
0.000717337
0.000717631
0.000717786
0.000718105
0.000718281
0.000718645
0.000718851
0.000719281
0.000719526
0.000720039
0.00072032
0.000720967
0.000721252
0.000722393
0.000722564
0.000741602
0.000785409
0.00191589
0.00102057
0.000933142
0.000875561
0.000837668
0.000811695
0.000793075
0.00077919
0.000768519
0.000760115
0.000753367
0.000747861
0.000743308
0.000739498
0.00073628
0.000733534
0.000731179
0.000729139
0.000727364
0.000725806
0.000724445
0.000723234
0.000722167
0.000721204
0.000720361
0.000719591
0.000718906
0.000718275
0.000717726
0.000717211
0.000716763
0.00071633
0.000715974
0.00071562
0.000715306
0.000715005
0.000714764
0.000714524
0.000714319
0.000714111
0.00071396
0.000713788
0.000713642
0.000713499
0.000713408
0.000713257
0.000713152
0.000713075
0.000713024
0.000712974
0.000712931
0.000712838
0.0007128
0.000712776
0.000712748
0.000712669
0.000712698
0.000712698
0.000712678
0.000712772
0.000712773
0.000712772
0.000712857
0.000712926
0.000713064
0.000713181
0.000713339
0.000713438
0.000713594
0.000713671
0.000713816
0.000713932
0.000714127
0.000714247
0.000714446
0.000714575
0.000714799
0.000714927
0.000715179
0.000715327
0.00071562
0.000715774
0.000716091
0.000716266
0.000716628
0.000716832
0.00071726
0.000717503
0.000718013
0.000718292
0.000718935
0.000719216
0.000720357
0.000720522
0.000740341
0.0007837
0.00188778
0.00102062
0.000933032
0.000875168
0.000836998
0.000810796
0.000791992
0.000777961
0.000767173
0.000758672
0.000751845
0.000746273
0.000741664
0.000737806
0.000734547
0.000731765
0.000729379
0.000727312
0.000725513
0.000723933
0.000722553
0.000721326
0.000720243
0.000719266
0.000718411
0.000717629
0.000716934
0.000716293
0.000715736
0.000715213
0.000714758
0.000714318
0.000713956
0.000713597
0.000713277
0.000712972
0.000712726
0.000712481
0.000712273
0.000712061
0.000711906
0.000711731
0.000711583
0.000711436
0.000711343
0.00071119
0.000711083
0.000711004
0.00071095
0.000710898
0.000710854
0.00071076
0.00071072
0.000710694
0.000710666
0.000710586
0.000710611
0.00071061
0.000710588
0.000710679
0.00071068
0.000710678
0.000710763
0.000710828
0.000710965
0.00071108
0.000711237
0.000711335
0.000711491
0.000711567
0.000711711
0.000711824
0.000712018
0.000712138
0.000712336
0.000712464
0.000712687
0.000712814
0.000713064
0.000713211
0.000713502
0.000713655
0.000713971
0.000714145
0.000714505
0.000714707
0.000715132
0.000715372
0.000715879
0.000716156
0.000716794
0.000717071
0.000718213
0.000718372
0.000739002
0.000781878
0.0018581
0.00102068
0.00093292
0.000874761
0.000836302
0.000809859
0.000790862
0.000776677
0.000765764
0.000757163
0.000750252
0.000744609
0.00073994
0.000736032
0.000732729
0.00072991
0.000727491
0.000725395
0.000723571
0.000721968
0.000720568
0.000719322
0.000718224
0.000717232
0.000716363
0.00071557
0.000714864
0.000714213
0.000713647
0.000713116
0.000712653
0.000712205
0.000711837
0.000711471
0.000711147
0.000710836
0.000710585
0.000710336
0.000710123
0.000709907
0.000709749
0.00070957
0.00070942
0.00070927
0.000709174
0.000709019
0.00070891
0.000708827
0.000708771
0.000708717
0.000708671
0.000708577
0.000708535
0.000708508
0.000708478
0.000708397
0.000708419
0.000708417