/*--------------------------------*- C++ -*----------------------------------*\
| =========                 |                                                 |
| \\      /  F ield         | OpenFOAM: The Open Source CFD Toolbox           |
|  \\    /   O peration     | Version:  v2012                                 |
|   \\  /    A nd           | Website:  www.openfoam.com                      |
|    \\/     M anipulation  |                                                 |
\*---------------------------------------------------------------------------*/
FoamFile
{
    version     2.0;
    format      ascii;
    class       volScalarField;
    location    "21";
    object      nut;
}
// * * * * * * * * * * * * * * * * * * * * * * * * * * * * * * * * * * * * * //

dimensions      [0 2 -1 0 0 0 0];


internalField   nonuniform List<scalar> 
209825
(
1.23784e-07
1.23473e-07
1.23861e-07
1.24447e-07
1.25018e-07
1.25516e-07
1.25944e-07
1.26307e-07
1.26622e-07
1.26892e-07
1.2713e-07
1.27336e-07
1.27521e-07
1.27681e-07
1.27828e-07
1.27956e-07
1.28075e-07
1.28178e-07
1.28275e-07
1.2836e-07
1.28441e-07
1.28511e-07
1.2858e-07
1.28639e-07
1.28696e-07
1.28745e-07
1.28795e-07
1.28837e-07
1.2888e-07
1.28917e-07
1.28953e-07
1.28987e-07
1.29019e-07
1.29043e-07
1.29071e-07
1.29096e-07
1.29124e-07
1.29143e-07
1.29166e-07
1.29187e-07
1.29209e-07
1.2922e-07
1.29239e-07
1.2926e-07
1.29268e-07
1.29277e-07
1.29294e-07
1.29304e-07
1.29321e-07
1.29328e-07
1.29338e-07
1.29352e-07
1.29361e-07
1.29367e-07
1.29379e-07
1.29391e-07
1.29391e-07
1.29391e-07
1.29415e-07
1.29428e-07
1.29421e-07
1.29437e-07
1.29454e-07
1.29484e-07
1.29489e-07
1.29518e-07
1.29536e-07
1.29552e-07
1.29568e-07
1.29578e-07
1.29601e-07
1.29609e-07
1.29632e-07
1.2964e-07
1.29648e-07
1.29662e-07
1.2968e-07
1.29697e-07
1.29712e-07
1.29736e-07
1.29747e-07
1.29771e-07
1.29786e-07
1.29815e-07
1.29835e-07
1.29874e-07
1.29899e-07
1.29948e-07
1.29977e-07
1.30038e-07
1.30073e-07
1.30178e-07
1.30215e-07
1.31291e-07
1.35825e-07
1.80229e-08
1.23784e-07
1.23472e-07
1.23861e-07
1.24447e-07
1.25018e-07
1.25515e-07
1.25944e-07
1.26307e-07
1.26622e-07
1.26892e-07
1.2713e-07
1.27336e-07
1.27521e-07
1.27681e-07
1.27828e-07
1.27956e-07
1.28075e-07
1.28178e-07
1.28275e-07
1.2836e-07
1.28441e-07
1.28511e-07
1.2858e-07
1.28639e-07
1.28696e-07
1.28745e-07
1.28795e-07
1.28838e-07
1.2888e-07
1.28917e-07
1.28953e-07
1.28987e-07
1.2902e-07
1.29044e-07
1.29071e-07
1.29097e-07
1.29124e-07
1.29144e-07
1.29166e-07
1.29187e-07
1.29209e-07
1.2922e-07
1.29239e-07
1.2926e-07
1.29268e-07
1.29277e-07
1.29294e-07
1.29304e-07
1.29321e-07
1.29328e-07
1.29338e-07
1.29352e-07
1.29362e-07
1.29367e-07
1.29379e-07
1.29391e-07
1.29391e-07
1.29391e-07
1.29415e-07
1.29428e-07
1.29421e-07
1.29437e-07
1.29454e-07
1.29484e-07
1.29489e-07
1.29518e-07
1.29536e-07
1.29553e-07
1.29568e-07
1.29578e-07
1.29602e-07
1.2961e-07
1.29632e-07
1.29641e-07
1.29648e-07
1.29662e-07
1.2968e-07
1.29697e-07
1.29712e-07
1.29736e-07
1.29747e-07
1.29771e-07
1.29786e-07
1.29816e-07
1.29835e-07
1.29874e-07
1.299e-07
1.29948e-07
1.29978e-07
1.30038e-07
1.30073e-07
1.30179e-07
1.30216e-07
1.31293e-07
1.35828e-07
1.85673e-08
1.23784e-07
1.23472e-07
1.2386e-07
1.24444e-07
1.25015e-07
1.25513e-07
1.25941e-07
1.26304e-07
1.26619e-07
1.26889e-07
1.27127e-07
1.27333e-07
1.27518e-07
1.27678e-07
1.27825e-07
1.27953e-07
1.28072e-07
1.28175e-07
1.28272e-07
1.28357e-07
1.28439e-07
1.28509e-07
1.28577e-07
1.28636e-07
1.28694e-07
1.28743e-07
1.28792e-07
1.28835e-07
1.28877e-07
1.28914e-07
1.2895e-07
1.28984e-07
1.29017e-07
1.29041e-07
1.29068e-07
1.29094e-07
1.29122e-07
1.29141e-07
1.29163e-07
1.29185e-07
1.29206e-07
1.29217e-07
1.29237e-07
1.29257e-07
1.29266e-07
1.29274e-07
1.29291e-07
1.29302e-07
1.29319e-07
1.29326e-07
1.29335e-07
1.29349e-07
1.29359e-07
1.29365e-07
1.29377e-07
1.29388e-07
1.29388e-07
1.29388e-07
1.29412e-07
1.29426e-07
1.29418e-07
1.29434e-07
1.29451e-07
1.29481e-07
1.29486e-07
1.29516e-07
1.29534e-07
1.2955e-07
1.29566e-07
1.29576e-07
1.29599e-07
1.29607e-07
1.29629e-07
1.29638e-07
1.29646e-07
1.2966e-07
1.29678e-07
1.29695e-07
1.2971e-07
1.29733e-07
1.29745e-07
1.29768e-07
1.29784e-07
1.29813e-07
1.29832e-07
1.29872e-07
1.29897e-07
1.29945e-07
1.29975e-07
1.30036e-07
1.3007e-07
1.30176e-07
1.30213e-07
1.31295e-07
1.35831e-07
1.9243e-08
1.23784e-07
1.23471e-07
1.23857e-07
1.24441e-07
1.25012e-07
1.25509e-07
1.25937e-07
1.26299e-07
1.26615e-07
1.26884e-07
1.27123e-07
1.27328e-07
1.27514e-07
1.27674e-07
1.27821e-07
1.27949e-07
1.28068e-07
1.2817e-07
1.28268e-07
1.28353e-07
1.28434e-07
1.28504e-07
1.28573e-07
1.28632e-07
1.28689e-07
1.28738e-07
1.28788e-07
1.28831e-07
1.28873e-07
1.2891e-07
1.28946e-07
1.2898e-07
1.29013e-07
1.29037e-07
1.29064e-07
1.2909e-07
1.29118e-07
1.29137e-07
1.29159e-07
1.29181e-07
1.29202e-07
1.29213e-07
1.29233e-07
1.29254e-07
1.29262e-07
1.29271e-07
1.29287e-07
1.29298e-07
1.29315e-07
1.29322e-07
1.29331e-07
1.29345e-07
1.29355e-07
1.29361e-07
1.29373e-07
1.29384e-07
1.29384e-07
1.29385e-07
1.29408e-07
1.29422e-07
1.29415e-07
1.29431e-07
1.29447e-07
1.29478e-07
1.29483e-07
1.29512e-07
1.2953e-07
1.29546e-07
1.29562e-07
1.29572e-07
1.29595e-07
1.29603e-07
1.29626e-07
1.29635e-07
1.29642e-07
1.29656e-07
1.29674e-07
1.29691e-07
1.29706e-07
1.2973e-07
1.29741e-07
1.29765e-07
1.2978e-07
1.2981e-07
1.29829e-07
1.29868e-07
1.29893e-07
1.29942e-07
1.29972e-07
1.30032e-07
1.30067e-07
1.30172e-07
1.30209e-07
1.31298e-07
1.35835e-07
1.99923e-08
1.23784e-07
1.23469e-07
1.23854e-07
1.24436e-07
1.25006e-07
1.25503e-07
1.25931e-07
1.26293e-07
1.26609e-07
1.26878e-07
1.27117e-07
1.27322e-07
1.27508e-07
1.27668e-07
1.27815e-07
1.27943e-07
1.28062e-07
1.28165e-07
1.28262e-07
1.28347e-07
1.28429e-07
1.28499e-07
1.28567e-07
1.28626e-07
1.28684e-07
1.28733e-07
1.28783e-07
1.28825e-07
1.28868e-07
1.28905e-07
1.28941e-07
1.28975e-07
1.29007e-07
1.29032e-07
1.29059e-07
1.29085e-07
1.29112e-07
1.29132e-07
1.29154e-07
1.29176e-07
1.29197e-07
1.29208e-07
1.29228e-07
1.29248e-07
1.29257e-07
1.29266e-07
1.29282e-07
1.29293e-07
1.2931e-07
1.29317e-07
1.29327e-07
1.29341e-07
1.2935e-07
1.29356e-07
1.29368e-07
1.29379e-07
1.2938e-07
1.2938e-07
1.29404e-07
1.29417e-07
1.2941e-07
1.29426e-07
1.29443e-07
1.29473e-07
1.29478e-07
1.29507e-07
1.29525e-07
1.29542e-07
1.29557e-07
1.29567e-07
1.29591e-07
1.29599e-07
1.29621e-07
1.2963e-07
1.29638e-07
1.29651e-07
1.2967e-07
1.29686e-07
1.29701e-07
1.29725e-07
1.29737e-07
1.2976e-07
1.29776e-07
1.29805e-07
1.29824e-07
1.29864e-07
1.29889e-07
1.29937e-07
1.29967e-07
1.30027e-07
1.30062e-07
1.30168e-07
1.30204e-07
1.31302e-07
1.35839e-07
2.08043e-08
1.23785e-07
1.23467e-07
1.23849e-07
1.2443e-07
1.24999e-07
1.25496e-07
1.25923e-07
1.26286e-07
1.26601e-07
1.2687e-07
1.27109e-07
1.27315e-07
1.275e-07
1.27661e-07
1.27808e-07
1.27936e-07
1.28055e-07
1.28157e-07
1.28255e-07
1.2834e-07
1.28422e-07
1.28492e-07
1.2856e-07
1.28619e-07
1.28677e-07
1.28726e-07
1.28776e-07
1.28819e-07
1.28861e-07
1.28898e-07
1.28934e-07
1.28968e-07
1.29001e-07
1.29025e-07
1.29053e-07
1.29078e-07
1.29106e-07
1.29125e-07
1.29148e-07
1.29169e-07
1.29191e-07
1.29202e-07
1.29221e-07
1.29242e-07
1.29251e-07
1.29259e-07
1.29276e-07
1.29287e-07
1.29304e-07
1.29311e-07
1.29321e-07
1.29334e-07
1.29344e-07
1.2935e-07
1.29362e-07
1.29373e-07
1.29374e-07
1.29374e-07
1.29398e-07
1.29411e-07
1.29404e-07
1.2942e-07
1.29437e-07
1.29467e-07
1.29472e-07
1.29502e-07
1.29519e-07
1.29536e-07
1.29551e-07
1.29561e-07
1.29585e-07
1.29593e-07
1.29615e-07
1.29624e-07
1.29632e-07
1.29646e-07
1.29664e-07
1.29681e-07
1.29696e-07
1.2972e-07
1.29731e-07
1.29755e-07
1.2977e-07
1.29799e-07
1.29819e-07
1.29858e-07
1.29883e-07
1.29931e-07
1.29961e-07
1.30022e-07
1.30056e-07
1.30162e-07
1.30198e-07
1.31308e-07
1.35845e-07
2.16769e-08
1.23785e-07
1.23464e-07
1.23844e-07
1.24423e-07
1.24991e-07
1.25487e-07
1.25914e-07
1.26277e-07
1.26592e-07
1.26861e-07
1.271e-07
1.27306e-07
1.27491e-07
1.27652e-07
1.27799e-07
1.27927e-07
1.28046e-07
1.28149e-07
1.28247e-07
1.28332e-07
1.28413e-07
1.28483e-07
1.28552e-07
1.28611e-07
1.28669e-07
1.28718e-07
1.28768e-07
1.28811e-07
1.28853e-07
1.2889e-07
1.28926e-07
1.28961e-07
1.28993e-07
1.29017e-07
1.29045e-07
1.29071e-07
1.29098e-07
1.29118e-07
1.2914e-07
1.29162e-07
1.29184e-07
1.29195e-07
1.29214e-07
1.29235e-07
1.29243e-07
1.29252e-07
1.29269e-07
1.29279e-07
1.29297e-07
1.29304e-07
1.29313e-07
1.29327e-07
1.29337e-07
1.29343e-07
1.29355e-07
1.29366e-07
1.29366e-07
1.29367e-07
1.2939e-07
1.29404e-07
1.29397e-07
1.29413e-07
1.2943e-07
1.2946e-07
1.29465e-07
1.29495e-07
1.29512e-07
1.29529e-07
1.29545e-07
1.29555e-07
1.29578e-07
1.29586e-07
1.29609e-07
1.29618e-07
1.29625e-07
1.29639e-07
1.29657e-07
1.29674e-07
1.29689e-07
1.29713e-07
1.29725e-07
1.29748e-07
1.29763e-07
1.29793e-07
1.29812e-07
1.29851e-07
1.29876e-07
1.29925e-07
1.29954e-07
1.30015e-07
1.30049e-07
1.30155e-07
1.30191e-07
1.31316e-07
1.35851e-07
2.26103e-08
1.23785e-07
1.23461e-07
1.23837e-07
1.24415e-07
1.24981e-07
1.25477e-07
1.25904e-07
1.26266e-07
1.26581e-07
1.2685e-07
1.27089e-07
1.27295e-07
1.27481e-07
1.27641e-07
1.27789e-07
1.27916e-07
1.28036e-07
1.28139e-07
1.28237e-07
1.28322e-07
1.28403e-07
1.28474e-07
1.28542e-07
1.28602e-07
1.28659e-07
1.28709e-07
1.28758e-07
1.28801e-07
1.28844e-07
1.28881e-07
1.28917e-07
1.28951e-07
1.28984e-07
1.29008e-07
1.29036e-07
1.29062e-07
1.2909e-07
1.29109e-07
1.29131e-07
1.29153e-07
1.29175e-07
1.29186e-07
1.29205e-07
1.29226e-07
1.29235e-07
1.29244e-07
1.2926e-07
1.29271e-07
1.29288e-07
1.29295e-07
1.29305e-07
1.29319e-07
1.29329e-07
1.29335e-07
1.29346e-07
1.29358e-07
1.29358e-07
1.29358e-07
1.29382e-07
1.29396e-07
1.29389e-07
1.29405e-07
1.29421e-07
1.29452e-07
1.29457e-07
1.29486e-07
1.29504e-07
1.29521e-07
1.29537e-07
1.29547e-07
1.2957e-07
1.29578e-07
1.29601e-07
1.2961e-07
1.29617e-07
1.29631e-07
1.2965e-07
1.29666e-07
1.29681e-07
1.29705e-07
1.29717e-07
1.2974e-07
1.29756e-07
1.29785e-07
1.29804e-07
1.29843e-07
1.29869e-07
1.29917e-07
1.29946e-07
1.30007e-07
1.30041e-07
1.30147e-07
1.30183e-07
1.31326e-07
1.35858e-07
2.36054e-08
1.23785e-07
1.23458e-07
1.2383e-07
1.24405e-07
1.2497e-07
1.25465e-07
1.25891e-07
1.26254e-07
1.26569e-07
1.26838e-07
1.27077e-07
1.27283e-07
1.27468e-07
1.27629e-07
1.27777e-07
1.27905e-07
1.28024e-07
1.28127e-07
1.28225e-07
1.2831e-07
1.28392e-07
1.28462e-07
1.28531e-07
1.28591e-07
1.28649e-07
1.28698e-07
1.28748e-07
1.2879e-07
1.28833e-07
1.2887e-07
1.28907e-07
1.28941e-07
1.28974e-07
1.28998e-07
1.29026e-07
1.29051e-07
1.29079e-07
1.29099e-07
1.29121e-07
1.29143e-07
1.29165e-07
1.29176e-07
1.29195e-07
1.29216e-07
1.29225e-07
1.29234e-07
1.29251e-07
1.29261e-07
1.29279e-07
1.29286e-07
1.29295e-07
1.29309e-07
1.2932e-07
1.29325e-07
1.29337e-07
1.29348e-07
1.29349e-07
1.29349e-07
1.29373e-07
1.29386e-07
1.2938e-07
1.29396e-07
1.29412e-07
1.29442e-07
1.29448e-07
1.29477e-07
1.29495e-07
1.29512e-07
1.29527e-07
1.29538e-07
1.29561e-07
1.29569e-07
1.29592e-07
1.29601e-07
1.29608e-07
1.29622e-07
1.29641e-07
1.29658e-07
1.29672e-07
1.29696e-07
1.29708e-07
1.29731e-07
1.29747e-07
1.29776e-07
1.29795e-07
1.29835e-07
1.2986e-07
1.29908e-07
1.29937e-07
1.29998e-07
1.30032e-07
1.30138e-07
1.30173e-07
1.31338e-07
1.35866e-07
2.46628e-08
1.23786e-07
1.23454e-07
1.23822e-07
1.24394e-07
1.24957e-07
1.25451e-07
1.25877e-07
1.26239e-07
1.26555e-07
1.26824e-07
1.27063e-07
1.27269e-07
1.27455e-07
1.27615e-07
1.27763e-07
1.27891e-07
1.28011e-07
1.28114e-07
1.28212e-07
1.28297e-07
1.28379e-07
1.2845e-07
1.28519e-07
1.28578e-07
1.28636e-07
1.28685e-07
1.28735e-07
1.28778e-07
1.28821e-07
1.28858e-07
1.28895e-07
1.28929e-07
1.28962e-07
1.28986e-07
1.29014e-07
1.2904e-07
1.29068e-07
1.29088e-07
1.2911e-07
1.29132e-07
1.29154e-07
1.29165e-07
1.29184e-07
1.29205e-07
1.29214e-07
1.29223e-07
1.2924e-07
1.2925e-07
1.29268e-07
1.29275e-07
1.29285e-07
1.29299e-07
1.29309e-07
1.29315e-07
1.29326e-07
1.29337e-07
1.29338e-07
1.29338e-07
1.29362e-07
1.29376e-07
1.29369e-07
1.29385e-07
1.29402e-07
1.29432e-07
1.29437e-07
1.29467e-07
1.29485e-07
1.29502e-07
1.29517e-07
1.29527e-07
1.29551e-07
1.29559e-07
1.29581e-07
1.29591e-07
1.29598e-07
1.29612e-07
1.29631e-07
1.29648e-07
1.29662e-07
1.29686e-07
1.29698e-07
1.29721e-07
1.29737e-07
1.29766e-07
1.29785e-07
1.29824e-07
1.2985e-07
1.29898e-07
1.29927e-07
1.29987e-07
1.30022e-07
1.30128e-07
1.30163e-07
1.31352e-07
1.35875e-07
2.57824e-08
1.23786e-07
1.23449e-07
1.23812e-07
1.24381e-07
1.24943e-07
1.25436e-07
1.25862e-07
1.26223e-07
1.26539e-07
1.26808e-07
1.27047e-07
1.27253e-07
1.27439e-07
1.276e-07
1.27748e-07
1.27876e-07
1.27996e-07
1.28099e-07
1.28198e-07
1.28283e-07
1.28365e-07
1.28436e-07
1.28505e-07
1.28564e-07
1.28622e-07
1.28672e-07
1.28722e-07
1.28765e-07
1.28808e-07
1.28845e-07
1.28882e-07
1.28916e-07
1.28949e-07
1.28973e-07
1.29001e-07
1.29027e-07
1.29055e-07
1.29075e-07
1.29097e-07
1.29119e-07
1.29141e-07
1.29152e-07
1.29172e-07
1.29193e-07
1.29202e-07
1.29211e-07
1.29228e-07
1.29238e-07
1.29256e-07
1.29263e-07
1.29273e-07
1.29287e-07
1.29297e-07
1.29303e-07
1.29314e-07
1.29325e-07
1.29326e-07
1.29326e-07
1.2935e-07
1.29364e-07
1.29357e-07
1.29373e-07
1.2939e-07
1.2942e-07
1.29426e-07
1.29455e-07
1.29473e-07
1.2949e-07
1.29506e-07
1.29516e-07
1.29539e-07
1.29548e-07
1.2957e-07
1.29579e-07
1.29587e-07
1.29601e-07
1.2962e-07
1.29636e-07
1.29651e-07
1.29675e-07
1.29687e-07
1.2971e-07
1.29726e-07
1.29755e-07
1.29774e-07
1.29813e-07
1.29838e-07
1.29886e-07
1.29916e-07
1.29976e-07
1.3001e-07
1.30116e-07
1.30151e-07
1.31368e-07
1.35885e-07
2.69623e-08
1.23786e-07
1.23444e-07
1.23802e-07
1.24367e-07
1.24927e-07
1.25419e-07
1.25844e-07
1.26206e-07
1.26521e-07
1.2679e-07
1.2703e-07
1.27236e-07
1.27422e-07
1.27583e-07
1.27731e-07
1.27859e-07
1.2798e-07
1.28083e-07
1.28181e-07
1.28267e-07
1.28349e-07
1.2842e-07
1.28489e-07
1.28549e-07
1.28607e-07
1.28657e-07
1.28707e-07
1.2875e-07
1.28793e-07
1.2883e-07
1.28867e-07
1.28901e-07
1.28935e-07
1.28959e-07
1.28987e-07
1.29013e-07
1.29041e-07
1.29061e-07
1.29083e-07
1.29105e-07
1.29127e-07
1.29139e-07
1.29158e-07
1.29179e-07
1.29188e-07
1.29197e-07
1.29214e-07
1.29225e-07
1.29242e-07
1.29249e-07
1.2926e-07
1.29274e-07
1.29284e-07
1.2929e-07
1.293e-07
1.29312e-07
1.29313e-07
1.29313e-07
1.29337e-07
1.29351e-07
1.29345e-07
1.29361e-07
1.29377e-07
1.29407e-07
1.29413e-07
1.29442e-07
1.2946e-07
1.29478e-07
1.29493e-07
1.29504e-07
1.29526e-07
1.29535e-07
1.29558e-07
1.29567e-07
1.29575e-07
1.29588e-07
1.29607e-07
1.29624e-07
1.29639e-07
1.29663e-07
1.29675e-07
1.29698e-07
1.29714e-07
1.29743e-07
1.29762e-07
1.29801e-07
1.29826e-07
1.29874e-07
1.29904e-07
1.29964e-07
1.29997e-07
1.30104e-07
1.30138e-07
1.31387e-07
1.35897e-07
2.82001e-08
1.23787e-07
1.23439e-07
1.2379e-07
1.24352e-07
1.2491e-07
1.254e-07
1.25825e-07
1.26186e-07
1.26502e-07
1.26771e-07
1.2701e-07
1.27216e-07
1.27403e-07
1.27564e-07
1.27713e-07
1.27841e-07
1.27962e-07
1.28065e-07
1.28164e-07
1.28249e-07
1.28332e-07
1.28403e-07
1.28472e-07
1.28532e-07
1.2859e-07
1.2864e-07
1.2869e-07
1.28733e-07
1.28777e-07
1.28814e-07
1.28851e-07
1.28885e-07
1.28919e-07
1.28943e-07
1.28971e-07
1.28997e-07
1.29025e-07
1.29045e-07
1.29068e-07
1.2909e-07
1.29112e-07
1.29123e-07
1.29143e-07
1.29164e-07
1.29173e-07
1.29182e-07
1.29199e-07
1.2921e-07
1.29228e-07
1.29235e-07
1.29245e-07
1.29259e-07
1.2927e-07
1.29275e-07
1.29286e-07
1.29298e-07
1.29299e-07
1.29299e-07
1.29323e-07
1.29336e-07
1.2933e-07
1.29346e-07
1.29362e-07
1.29393e-07
1.29399e-07
1.29428e-07
1.29446e-07
1.29464e-07
1.29479e-07
1.2949e-07
1.29513e-07
1.29522e-07
1.29544e-07
1.29553e-07
1.29561e-07
1.29575e-07
1.29594e-07
1.29611e-07
1.29626e-07
1.29649e-07
1.29661e-07
1.29685e-07
1.297e-07
1.2973e-07
1.29749e-07
1.29787e-07
1.29812e-07
1.2986e-07
1.2989e-07
1.2995e-07
1.29984e-07
1.3009e-07
1.30124e-07
1.31408e-07
1.3591e-07
2.94986e-08
1.23787e-07
1.23433e-07
1.23778e-07
1.24335e-07
1.24891e-07
1.2538e-07
1.25804e-07
1.26165e-07
1.2648e-07
1.2675e-07
1.26989e-07
1.27196e-07
1.27382e-07
1.27544e-07
1.27692e-07
1.27821e-07
1.27942e-07
1.28045e-07
1.28144e-07
1.2823e-07
1.28313e-07
1.28384e-07
1.28453e-07
1.28513e-07
1.28572e-07
1.28622e-07
1.28672e-07
1.28715e-07
1.28759e-07
1.28796e-07
1.28833e-07
1.28868e-07
1.28901e-07
1.28926e-07
1.28954e-07
1.2898e-07
1.29008e-07
1.29028e-07
1.29051e-07
1.29073e-07
1.29095e-07
1.29107e-07
1.29126e-07
1.29148e-07
1.29157e-07
1.29166e-07
1.29183e-07
1.29194e-07
1.29212e-07
1.29219e-07
1.29229e-07
1.29243e-07
1.29254e-07
1.2926e-07
1.2927e-07
1.29282e-07
1.29283e-07
1.29283e-07
1.29307e-07
1.29321e-07
1.29315e-07
1.29331e-07
1.29347e-07
1.29378e-07
1.29384e-07
1.29413e-07
1.29431e-07
1.29449e-07
1.29464e-07
1.29475e-07
1.29497e-07
1.29507e-07
1.29529e-07
1.29538e-07
1.29546e-07
1.2956e-07
1.29579e-07
1.29596e-07
1.29611e-07
1.29635e-07
1.29647e-07
1.2967e-07
1.29686e-07
1.29715e-07
1.29734e-07
1.29773e-07
1.29798e-07
1.29845e-07
1.29875e-07
1.29935e-07
1.29968e-07
1.30075e-07
1.30108e-07
1.31432e-07
1.35925e-07
3.08614e-08
1.23788e-07
1.23427e-07
1.23765e-07
1.24317e-07
1.2487e-07
1.25358e-07
1.25781e-07
1.26142e-07
1.26457e-07
1.26727e-07
1.26966e-07
1.27173e-07
1.2736e-07
1.27521e-07
1.2767e-07
1.27799e-07
1.2792e-07
1.28024e-07
1.28123e-07
1.28209e-07
1.28292e-07
1.28363e-07
1.28433e-07
1.28493e-07
1.28552e-07
1.28602e-07
1.28652e-07
1.28696e-07
1.28739e-07
1.28777e-07
1.28814e-07
1.28849e-07
1.28882e-07
1.28907e-07
1.28935e-07
1.28961e-07
1.2899e-07
1.2901e-07
1.29033e-07
1.29055e-07
1.29077e-07
1.29089e-07
1.29108e-07
1.2913e-07
1.2914e-07
1.29149e-07
1.29166e-07
1.29176e-07
1.29194e-07
1.29202e-07
1.29212e-07
1.29226e-07
1.29237e-07
1.29243e-07
1.29253e-07
1.29265e-07
1.29266e-07
1.29266e-07
1.2929e-07
1.29304e-07
1.29298e-07
1.29314e-07
1.2933e-07
1.29361e-07
1.29367e-07
1.29396e-07
1.29414e-07
1.29432e-07
1.29448e-07
1.29458e-07
1.29481e-07
1.29491e-07
1.29513e-07
1.29522e-07
1.2953e-07
1.29544e-07
1.29563e-07
1.2958e-07
1.29595e-07
1.29619e-07
1.29631e-07
1.29654e-07
1.2967e-07
1.29699e-07
1.29718e-07
1.29757e-07
1.29782e-07
1.29829e-07
1.29859e-07
1.29918e-07
1.29952e-07
1.30059e-07
1.30091e-07
1.31459e-07
1.35941e-07
3.22921e-08
1.23788e-07
1.2342e-07
1.2375e-07
1.24297e-07
1.24847e-07
1.25334e-07
1.25757e-07
1.26117e-07
1.26432e-07
1.26702e-07
1.26942e-07
1.27148e-07
1.27335e-07
1.27497e-07
1.27646e-07
1.27776e-07
1.27897e-07
1.28001e-07
1.281e-07
1.28187e-07
1.2827e-07
1.28341e-07
1.28411e-07
1.28471e-07
1.2853e-07
1.2858e-07
1.28631e-07
1.28675e-07
1.28718e-07
1.28756e-07
1.28793e-07
1.28828e-07
1.28862e-07
1.28887e-07
1.28915e-07
1.28941e-07
1.2897e-07
1.2899e-07
1.29013e-07
1.29035e-07
1.29058e-07
1.2907e-07
1.29089e-07
1.29111e-07
1.29121e-07
1.2913e-07
1.29147e-07
1.29158e-07
1.29175e-07
1.29183e-07
1.29193e-07
1.29207e-07
1.29219e-07
1.29224e-07
1.29234e-07
1.29246e-07
1.29248e-07
1.29248e-07
1.29272e-07
1.29285e-07
1.2928e-07
1.29296e-07
1.29312e-07
1.29343e-07
1.29349e-07
1.29378e-07
1.29396e-07
1.29415e-07
1.2943e-07
1.29441e-07
1.29463e-07
1.29473e-07
1.29495e-07
1.29505e-07
1.29513e-07
1.29527e-07
1.29546e-07
1.29563e-07
1.29578e-07
1.29601e-07
1.29614e-07
1.29637e-07
1.29653e-07
1.29682e-07
1.29701e-07
1.29739e-07
1.29764e-07
1.29812e-07
1.29841e-07
1.29901e-07
1.29934e-07
1.30041e-07
1.30073e-07
1.31488e-07
1.35958e-07
3.37944e-08
1.23789e-07
1.23413e-07
1.23735e-07
1.24276e-07
1.24823e-07
1.25308e-07
1.2573e-07
1.2609e-07
1.26405e-07
1.26675e-07
1.26915e-07
1.27122e-07
1.27309e-07
1.27471e-07
1.27621e-07
1.2775e-07
1.27872e-07
1.27976e-07
1.28076e-07
1.28162e-07
1.28245e-07
1.28317e-07
1.28387e-07
1.28448e-07
1.28507e-07
1.28557e-07
1.28608e-07
1.28652e-07
1.28696e-07
1.28734e-07
1.28771e-07
1.28806e-07
1.2884e-07
1.28865e-07
1.28893e-07
1.2892e-07
1.28948e-07
1.28969e-07
1.28992e-07
1.29014e-07
1.29037e-07
1.29049e-07
1.29068e-07
1.2909e-07
1.291e-07
1.29109e-07
1.29126e-07
1.29137e-07
1.29155e-07
1.29163e-07
1.29173e-07
1.29187e-07
1.29199e-07
1.29204e-07
1.29214e-07
1.29226e-07
1.29228e-07
1.29228e-07
1.29252e-07
1.29266e-07
1.29261e-07
1.29277e-07
1.29292e-07
1.29323e-07
1.2933e-07
1.29359e-07
1.29377e-07
1.29396e-07
1.29411e-07
1.29422e-07
1.29444e-07
1.29454e-07
1.29476e-07
1.29486e-07
1.29494e-07
1.29508e-07
1.29527e-07
1.29544e-07
1.29559e-07
1.29583e-07
1.29595e-07
1.29619e-07
1.29634e-07
1.29664e-07
1.29683e-07
1.29721e-07
1.29746e-07
1.29793e-07
1.29822e-07
1.29882e-07
1.29915e-07
1.30022e-07
1.30054e-07
1.3152e-07
1.35977e-07
3.53723e-08
1.2379e-07
1.23406e-07
1.23718e-07
1.24254e-07
1.24798e-07
1.2528e-07
1.25702e-07
1.26061e-07
1.26376e-07
1.26646e-07
1.26886e-07
1.27093e-07
1.27281e-07
1.27443e-07
1.27593e-07
1.27723e-07
1.27845e-07
1.27949e-07
1.28049e-07
1.28136e-07
1.2822e-07
1.28291e-07
1.28362e-07
1.28422e-07
1.28482e-07
1.28532e-07
1.28584e-07
1.28628e-07
1.28672e-07
1.2871e-07
1.28747e-07
1.28782e-07
1.28816e-07
1.28842e-07
1.2887e-07
1.28897e-07
1.28925e-07
1.28946e-07
1.28969e-07
1.28991e-07
1.29014e-07
1.29026e-07
1.29046e-07
1.29067e-07
1.29078e-07
1.29087e-07
1.29104e-07
1.29115e-07
1.29133e-07
1.29141e-07
1.29152e-07
1.29166e-07
1.29178e-07
1.29183e-07
1.29193e-07
1.29205e-07
1.29207e-07
1.29207e-07
1.29231e-07
1.29244e-07
1.2924e-07
1.29256e-07
1.29271e-07
1.29302e-07
1.29309e-07
1.29338e-07
1.29356e-07
1.29375e-07
1.2939e-07
1.29401e-07
1.29423e-07
1.29434e-07
1.29456e-07
1.29466e-07
1.29474e-07
1.29488e-07
1.29507e-07
1.29525e-07
1.29539e-07
1.29563e-07
1.29576e-07
1.29599e-07
1.29615e-07
1.29644e-07
1.29663e-07
1.29701e-07
1.29726e-07
1.29773e-07
1.29802e-07
1.29862e-07
1.29894e-07
1.30002e-07
1.30033e-07
1.31555e-07
1.35997e-07
3.70298e-08
1.23791e-07
1.23398e-07
1.23701e-07
1.2423e-07
1.2477e-07
1.25251e-07
1.25671e-07
1.2603e-07
1.26345e-07
1.26615e-07
1.26855e-07
1.27063e-07
1.27251e-07
1.27413e-07
1.27564e-07
1.27694e-07
1.27816e-07
1.27921e-07
1.28021e-07
1.28108e-07
1.28192e-07
1.28264e-07
1.28334e-07
1.28395e-07
1.28455e-07
1.28506e-07
1.28557e-07
1.28602e-07
1.28646e-07
1.28684e-07
1.28722e-07
1.28757e-07
1.28791e-07
1.28817e-07
1.28845e-07
1.28872e-07
1.28901e-07
1.28921e-07
1.28945e-07
1.28967e-07
1.2899e-07
1.29002e-07
1.29022e-07
1.29044e-07
1.29054e-07
1.29064e-07
1.29081e-07
1.29092e-07
1.2911e-07
1.29118e-07
1.29129e-07
1.29143e-07
1.29155e-07
1.2916e-07
1.2917e-07
1.29182e-07
1.29184e-07
1.29185e-07
1.29208e-07
1.29222e-07
1.29218e-07
1.29233e-07
1.29248e-07
1.2928e-07
1.29287e-07
1.29316e-07
1.29334e-07
1.29353e-07
1.29368e-07
1.2938e-07
1.29401e-07
1.29412e-07
1.29434e-07
1.29444e-07
1.29453e-07
1.29466e-07
1.29486e-07
1.29503e-07
1.29518e-07
1.29542e-07
1.29555e-07
1.29578e-07
1.29594e-07
1.29623e-07
1.29642e-07
1.2968e-07
1.29704e-07
1.29752e-07
1.29781e-07
1.2984e-07
1.29872e-07
1.2998e-07
1.30011e-07
1.31592e-07
1.36018e-07
3.87711e-08
1.23792e-07
1.23389e-07
1.23682e-07
1.24204e-07
1.24741e-07
1.2522e-07
1.25639e-07
1.25998e-07
1.26312e-07
1.26582e-07
1.26823e-07
1.2703e-07
1.27219e-07
1.27382e-07
1.27532e-07
1.27662e-07
1.27785e-07
1.2789e-07
1.27991e-07
1.28078e-07
1.28162e-07
1.28235e-07
1.28305e-07
1.28367e-07
1.28427e-07
1.28478e-07
1.28529e-07
1.28574e-07
1.28618e-07
1.28656e-07
1.28694e-07
1.2873e-07
1.28764e-07
1.2879e-07
1.28819e-07
1.28845e-07
1.28874e-07
1.28895e-07
1.28919e-07
1.28941e-07
1.28964e-07
1.28977e-07
1.28996e-07
1.29018e-07
1.29029e-07
1.29039e-07
1.29056e-07
1.29067e-07
1.29085e-07
1.29094e-07
1.29104e-07
1.29119e-07
1.29131e-07
1.29136e-07
1.29145e-07
1.29157e-07
1.2916e-07
1.29161e-07
1.29184e-07
1.29197e-07
1.29194e-07
1.2921e-07
1.29224e-07
1.29256e-07
1.29263e-07
1.29292e-07
1.2931e-07
1.2933e-07
1.29345e-07
1.29356e-07
1.29378e-07
1.29389e-07
1.29411e-07
1.29421e-07
1.2943e-07
1.29443e-07
1.29464e-07
1.29481e-07
1.29495e-07
1.29519e-07
1.29532e-07
1.29555e-07
1.29571e-07
1.296e-07
1.29619e-07
1.29657e-07
1.29682e-07
1.29729e-07
1.29758e-07
1.29817e-07
1.29849e-07
1.29957e-07
1.29987e-07
1.31632e-07
1.36041e-07
4.06e-08
1.23793e-07
1.2338e-07
1.23663e-07
1.24178e-07
1.2471e-07
1.25186e-07
1.25605e-07
1.25963e-07
1.26277e-07
1.26547e-07
1.26788e-07
1.26996e-07
1.27184e-07
1.27348e-07
1.27498e-07
1.27629e-07
1.27752e-07
1.27858e-07
1.27959e-07
1.28046e-07
1.28131e-07
1.28203e-07
1.28275e-07
1.28336e-07
1.28396e-07
1.28447e-07
1.28499e-07
1.28544e-07
1.28589e-07
1.28627e-07
1.28665e-07
1.28701e-07
1.28736e-07
1.28762e-07
1.28791e-07
1.28817e-07
1.28846e-07
1.28867e-07
1.28891e-07
1.28913e-07
1.28937e-07
1.2895e-07
1.28969e-07
1.28991e-07
1.29003e-07
1.29012e-07
1.2903e-07
1.29041e-07
1.29059e-07
1.29067e-07
1.29078e-07
1.29093e-07
1.29105e-07
1.2911e-07
1.2912e-07
1.29132e-07
1.29135e-07
1.29135e-07
1.29158e-07
1.29172e-07
1.29168e-07
1.29184e-07
1.29199e-07
1.29231e-07
1.29238e-07
1.29267e-07
1.29285e-07
1.29305e-07
1.2932e-07
1.29332e-07
1.29353e-07
1.29365e-07
1.29386e-07
1.29397e-07
1.29406e-07
1.29419e-07
1.29439e-07
1.29456e-07
1.29471e-07
1.29495e-07
1.29508e-07
1.29532e-07
1.29547e-07
1.29576e-07
1.29595e-07
1.29633e-07
1.29657e-07
1.29704e-07
1.29733e-07
1.29792e-07
1.29824e-07
1.29933e-07
1.29962e-07
1.31675e-07
1.36064e-07
4.25207e-08
1.23794e-07
1.23371e-07
1.23642e-07
1.24149e-07
1.24677e-07
1.25151e-07
1.25568e-07
1.25926e-07
1.2624e-07
1.2651e-07
1.26751e-07
1.26959e-07
1.27148e-07
1.27312e-07
1.27463e-07
1.27594e-07
1.27717e-07
1.27823e-07
1.27924e-07
1.28012e-07
1.28097e-07
1.2817e-07
1.28242e-07
1.28303e-07
1.28364e-07
1.28415e-07
1.28468e-07
1.28512e-07
1.28557e-07
1.28596e-07
1.28635e-07
1.2867e-07
1.28705e-07
1.28731e-07
1.28761e-07
1.28787e-07
1.28817e-07
1.28838e-07
1.28862e-07
1.28884e-07
1.28908e-07
1.28921e-07
1.2894e-07
1.28963e-07
1.28974e-07
1.28984e-07
1.29001e-07
1.29013e-07
1.29031e-07
1.2904e-07
1.29051e-07
1.29065e-07
1.29077e-07
1.29083e-07
1.29092e-07
1.29104e-07
1.29107e-07
1.29108e-07
1.2913e-07
1.29144e-07
1.29142e-07
1.29157e-07
1.29172e-07
1.29204e-07
1.29211e-07
1.2924e-07
1.29258e-07
1.29279e-07
1.29293e-07
1.29305e-07
1.29327e-07
1.29338e-07
1.2936e-07
1.29371e-07
1.2938e-07
1.29393e-07
1.29414e-07
1.29431e-07
1.29446e-07
1.29469e-07
1.29483e-07
1.29506e-07
1.29522e-07
1.29551e-07
1.2957e-07
1.29607e-07
1.29632e-07
1.29678e-07
1.29707e-07
1.29766e-07
1.29798e-07
1.29907e-07
1.29936e-07
1.3172e-07
1.36088e-07
4.45366e-08
1.23795e-07
1.23362e-07
1.23621e-07
1.2412e-07
1.24643e-07
1.25114e-07
1.2553e-07
1.25886e-07
1.26201e-07
1.2647e-07
1.26712e-07
1.2692e-07
1.2711e-07
1.27273e-07
1.27425e-07
1.27557e-07
1.2768e-07
1.27787e-07
1.27888e-07
1.27977e-07
1.28062e-07
1.28135e-07
1.28207e-07
1.28269e-07
1.2833e-07
1.28382e-07
1.28434e-07
1.28479e-07
1.28524e-07
1.28563e-07
1.28602e-07
1.28638e-07
1.28673e-07
1.28699e-07
1.28729e-07
1.28756e-07
1.28785e-07
1.28807e-07
1.28831e-07
1.28853e-07
1.28877e-07
1.2889e-07
1.2891e-07
1.28932e-07
1.28944e-07
1.28954e-07
1.28972e-07
1.28983e-07
1.29001e-07
1.2901e-07
1.29022e-07
1.29036e-07
1.29048e-07
1.29054e-07
1.29063e-07
1.29075e-07
1.29079e-07
1.29079e-07
1.29101e-07
1.29115e-07
1.29113e-07
1.29129e-07
1.29143e-07
1.29175e-07
1.29183e-07
1.29212e-07
1.2923e-07
1.29251e-07
1.29265e-07
1.29277e-07
1.29299e-07
1.29311e-07
1.29333e-07
1.29343e-07
1.29353e-07
1.29366e-07
1.29387e-07
1.29404e-07
1.29418e-07
1.29442e-07
1.29456e-07
1.29479e-07
1.29495e-07
1.29524e-07
1.29543e-07
1.2958e-07
1.29604e-07
1.29651e-07
1.2968e-07
1.29738e-07
1.2977e-07
1.29879e-07
1.29908e-07
1.31767e-07
1.36112e-07
4.6651e-08
1.23796e-07
1.23352e-07
1.23599e-07
1.24089e-07
1.24607e-07
1.25075e-07
1.25489e-07
1.25845e-07
1.26159e-07
1.26429e-07
1.2667e-07
1.26879e-07
1.27069e-07
1.27233e-07
1.27385e-07
1.27517e-07
1.27641e-07
1.27748e-07
1.2785e-07
1.27939e-07
1.28024e-07
1.28098e-07
1.2817e-07
1.28232e-07
1.28294e-07
1.28346e-07
1.28399e-07
1.28444e-07
1.28489e-07
1.28529e-07
1.28568e-07
1.28603e-07
1.28639e-07
1.28666e-07
1.28695e-07
1.28722e-07
1.28752e-07
1.28774e-07
1.28798e-07
1.2882e-07
1.28844e-07
1.28858e-07
1.28878e-07
1.289e-07
1.28912e-07
1.28922e-07
1.2894e-07
1.28951e-07
1.2897e-07
1.28979e-07
1.28991e-07
1.29005e-07
1.29018e-07
1.29024e-07
1.29032e-07
1.29044e-07
1.29049e-07
1.29049e-07
1.29071e-07
1.29085e-07
1.29083e-07
1.29099e-07
1.29112e-07
1.29145e-07
1.29153e-07
1.29182e-07
1.292e-07
1.29221e-07
1.29235e-07
1.29248e-07
1.29269e-07
1.29282e-07
1.29303e-07
1.29314e-07
1.29324e-07
1.29337e-07
1.29358e-07
1.29375e-07
1.2939e-07
1.29413e-07
1.29427e-07
1.29451e-07
1.29466e-07
1.29495e-07
1.29514e-07
1.29551e-07
1.29576e-07
1.29622e-07
1.29651e-07
1.29709e-07
1.2974e-07
1.2985e-07
1.29878e-07
1.31815e-07
1.36136e-07
4.88662e-08
1.23797e-07
1.23342e-07
1.23575e-07
1.24056e-07
1.24569e-07
1.25034e-07
1.25447e-07
1.25802e-07
1.26115e-07
1.26385e-07
1.26627e-07
1.26836e-07
1.27026e-07
1.27191e-07
1.27343e-07
1.27475e-07
1.276e-07
1.27707e-07
1.2781e-07
1.27899e-07
1.27985e-07
1.28059e-07
1.28131e-07
1.28194e-07
1.28256e-07
1.28308e-07
1.28361e-07
1.28407e-07
1.28452e-07
1.28492e-07
1.28531e-07
1.28567e-07
1.28603e-07
1.2863e-07
1.2866e-07
1.28687e-07
1.28717e-07
1.28739e-07
1.28763e-07
1.28786e-07
1.2881e-07
1.28824e-07
1.28844e-07
1.28866e-07
1.28879e-07
1.28889e-07
1.28907e-07
1.28918e-07
1.28937e-07
1.28946e-07
1.28958e-07
1.28972e-07
1.28985e-07
1.28991e-07
1.29e-07
1.29012e-07
1.29017e-07
1.29017e-07
1.29038e-07
1.29052e-07
1.29051e-07
1.29067e-07
1.2908e-07
1.29113e-07
1.29121e-07
1.2915e-07
1.29168e-07
1.2919e-07
1.29204e-07
1.29217e-07
1.29238e-07
1.29251e-07
1.29272e-07
1.29283e-07
1.29294e-07
1.29307e-07
1.29328e-07
1.29345e-07
1.2936e-07
1.29383e-07
1.29397e-07
1.29421e-07
1.29436e-07
1.29465e-07
1.29484e-07
1.29521e-07
1.29545e-07
1.29591e-07
1.2962e-07
1.29678e-07
1.29709e-07
1.29819e-07
1.29847e-07
1.31865e-07
1.36159e-07
5.11836e-08
1.23799e-07
1.23332e-07
1.23551e-07
1.24022e-07
1.24529e-07
1.24991e-07
1.25402e-07
1.25756e-07
1.26069e-07
1.26339e-07
1.26581e-07
1.2679e-07
1.26981e-07
1.27146e-07
1.27299e-07
1.27432e-07
1.27557e-07
1.27664e-07
1.27767e-07
1.27857e-07
1.27943e-07
1.28017e-07
1.28091e-07
1.28153e-07
1.28216e-07
1.28268e-07
1.28322e-07
1.28367e-07
1.28413e-07
1.28453e-07
1.28493e-07
1.28529e-07
1.28565e-07
1.28592e-07
1.28622e-07
1.2865e-07
1.2868e-07
1.28702e-07
1.28726e-07
1.28749e-07
1.28774e-07
1.28788e-07
1.28808e-07
1.2883e-07
1.28844e-07
1.28854e-07
1.28872e-07
1.28883e-07
1.28902e-07
1.28912e-07