/*--------------------------------*- C++ -*----------------------------------*\
| =========                 |                                                 |
| \\      /  F ield         | OpenFOAM: The Open Source CFD Toolbox           |
|  \\    /   O peration     | Version:  v2012                                 |
|   \\  /    A nd           | Website:  www.openfoam.com                      |
|    \\/     M anipulation  |                                                 |
\*---------------------------------------------------------------------------*/
FoamFile
{
    version     2.0;
    format      ascii;
    class       volScalarField;
    location    "21";
    object      omega;
}
// * * * * * * * * * * * * * * * * * * * * * * * * * * * * * * * * * * * * * //

dimensions      [0 0 -1 0 0 0 0];


internalField   nonuniform List<scalar> 
209825
(
8240.49
7568.74
7105.49
6791.4
6571.9
6412.62
6292.44
6199.38
6125.23
6065.39
6015.94
5974.92
5940.11
5910.69
5885.19
5863.36
5844.09
5827.46
5812.54
5799.58
5787.8
5777.52
5768.03
5759.8
5752.12
5745.39
5739.01
5733.52
5728.25
5723.68
5719.24
5715.46
5711.69
5708.58
5705.42
5702.79
5700.03
5697.87
5695.58
5693.72
5691.66
5690.25
5688.54
5687.08
5685.64
5684.65
5683.55
5682.86
5681.89
5681.3
5680.18
5679.43
5678.94
5678.56
5677.57
5677.6
5677.6
5677.57
5677.46
5676.99
5677.31
5677.31
5677.3
5677.22
5678.04
5678.04
5678.04
5678.5
5678.5
5679.31
5679.31
5680.54
5680.54
5681.75
5682.52
5683.69
5683.96
5685.27
5685.88
5687.2
5687.94
5689.5
5690.25
5691.94
5692.78
5694.61
5695.52
5697.62
5698.64
5701.29
5702.29
5706.39
5706.89
5745.08
5904.2
114716
8240.49
7568.74
7105.46
6791.35
6571.82
6412.52
6292.32
6199.25
6125.09
6065.24
6015.78
5974.75
5939.94
5910.51
5885.01
5863.17
5843.91
5827.26
5812.34
5799.38
5787.6
5777.32
5767.83
5759.6
5751.91
5745.19
5738.8
5733.31
5728.04
5723.47
5719.02
5715.24
5711.48
5708.36
5705.21
5702.57
5699.81
5697.65
5695.36
5693.51
5691.44
5690.03
5688.32
5686.86
5685.42
5684.43
5683.33
5682.64
5681.67
5681.08
5679.96
5679.21
5678.72
5678.34
5677.35
5677.38
5677.37
5677.35
5677.24
5676.76
5677.08
5677.08
5677.08
5676.99
5677.81
5677.81
5677.81
5678.28
5678.27
5679.08
5679.08
5680.31
5680.31
5681.52
5682.29
5683.46
5683.73
5685.04
5685.65
5686.97
5687.71
5689.28
5690.02
5691.71
5692.56
5694.38
5695.29
5697.4
5698.42
5701.06
5702.06
5706.16
5706.66
5744.93
5904.04
111420
8240.51
7568.71
7105.35
6791.14
6571.53
6412.17
6291.92
6198.8
6124.61
6064.72
6015.24
5974.19
5939.36
5909.92
5884.4
5862.55
5843.27
5826.62
5811.69
5798.73
5786.94
5776.65
5767.16
5758.92
5751.22
5744.5
5738.11
5732.61
5727.34
5722.77
5718.32
5714.54
5710.77
5707.65
5704.5
5701.85
5699.09
5696.93
5694.64
5692.78
5690.71
5689.3
5687.59
5686.13
5684.69
5683.7
5682.6
5681.91
5680.93
5680.35
5679.22
5678.48
5677.98
5677.6
5676.62
5676.64
5676.64
5676.61
5676.5
5676.02
5676.34
5676.34
5676.33
5676.25
5677.07
5677.07
5677.07
5677.53
5677.53
5678.34
5678.34
5679.57
5679.57
5680.78
5681.54
5682.71
5682.98
5684.29
5684.9
5686.22
5686.96
5688.53
5689.27
5690.96
5691.8
5693.63
5694.53
5696.64
5697.66
5700.3
5701.3
5705.41
5705.9
5744.32
5903.4
107637
8240.54
7568.67
7105.16
6790.79
6571.03
6411.56
6291.21
6198.02
6123.77
6063.83
6014.31
5973.22
5938.36
5908.89
5883.36
5861.49
5842.19
5825.52
5810.58
5797.6
5785.8
5775.51
5766
5757.75
5750.05
5743.32
5736.92
5731.42
5726.14
5721.56
5717.11
5713.32
5709.55
5706.43
5703.27
5700.63
5697.86
5695.7
5693.4
5691.55
5689.47
5688.06
5686.35
5684.89
5683.45
5682.45
5681.34
5680.65
5679.68
5679.09
5677.97
5677.22
5676.72
5676.34
5675.36
5675.38
5675.37
5675.34
5675.23
5674.76
5675.07
5675.07
5675.07
5674.98
5675.79
5675.8
5675.79
5676.26
5676.25
5677.06
5677.06
5678.29
5678.29
5679.5
5680.26
5681.43
5681.7
5683.01
5683.62
5684.94
5685.67
5687.24
5687.98
5689.67
5690.52
5692.34
5693.25
5695.35
5696.37
5699.01
5700.01
5704.11
5704.6
5743.26
5902.27
103747
8240.58
7568.62
7104.88
6790.28
6570.32
6410.69
6290.21
6196.92
6122.58
6062.57
6012.98
5971.85
5936.94
5907.43
5881.86
5859.97
5840.64
5823.95
5808.99
5795.99
5784.18
5773.87
5764.35
5756.09
5748.38
5741.63
5735.23
5729.72
5724.43
5719.85
5715.39
5711.6
5707.82
5704.69
5701.53
5698.88
5696.11
5693.94
5691.64
5689.78
5687.71
5686.29
5684.57
5683.11
5681.67
5680.67
5679.56
5678.87
5677.89
5677.3
5676.18
5675.43
5674.93
5674.54
5673.56
5673.58
5673.57
5673.54
5673.43
5672.95
5673.26
5673.26
5673.26
5673.17
5673.98
5673.98
5673.98
5674.44
5674.44
5675.24
5675.24
5676.47
5676.47
5677.67
5678.44
5679.61
5679.87
5681.18
5681.79
5683.11
5683.84
5685.41
5686.15
5687.84
5688.68
5690.5
5691.41
5693.51
5694.53
5697.17
5698.16
5702.27
5702.75
5741.74
5900.6
99855.6
8240.64
7568.54
7104.52
6789.61
6569.4
6409.56
6288.91
6195.47
6121.02
6060.92
6011.25
5970.05
5935.09
5905.53
5879.92
5857.98
5838.63
5821.91
5806.92
5793.9
5782.06
5771.73
5762.2
5753.92
5746.2
5739.44
5733.02
5727.5
5722.2
5717.61
5713.14
5709.34
5705.56
5702.42
5699.25
5696.6
5693.82
5691.65
5689.35
5687.48
5685.4
5683.98
5682.26
5680.79
5679.35
5678.35
5677.23
5676.54
5675.56
5674.97
5673.84
5673.09
5672.58
5672.2
5671.22
5671.23
5671.22
5671.19
5671.08
5670.59
5670.9
5670.9
5670.9
5670.8
5671.61
5671.61
5671.61
5672.07
5672.07
5672.87
5672.87
5674.09
5674.09
5675.29
5676.05
5677.23
5677.49
5678.8
5679.4
5680.72
5681.45
5683.02
5683.76
5685.44
5686.29
5688.11
5689.01
5691.11
5692.13
5694.76
5695.76
5699.86
5700.34
5739.75
5898.4
96002.2
8240.71
7568.45
7104.07
6788.79
6568.26
6408.15
6287.29
6193.69
6119.09
6058.88
6009.11
5967.83
5932.79
5903.18
5877.51
5855.53
5836.13
5819.38
5804.35
5791.3
5779.44
5769.09
5759.53
5751.24
5743.49
5736.72
5730.29
5724.76
5719.45
5714.84
5710.36
5706.55
5702.76
5699.61
5696.44
5693.78
5690.99
5688.81
5686.5
5684.63
5682.55
5681.12
5679.4
5677.93
5676.48
5675.47
5674.35
5673.65
5672.67
5672.08
5670.95
5670.2
5669.69
5669.3
5668.32
5668.33
5668.31
5668.28
5668.16
5667.68
5667.98
5667.98
5667.97
5667.88
5668.68
5668.68
5668.68
5669.14
5669.13
5669.93
5669.93
5671.15
5671.15
5672.35
5673.11
5674.28
5674.54
5675.84
5676.45
5677.77
5678.49
5680.06
5680.8
5682.48
5683.32
5685.14
5686.04
5688.14
5689.16
5691.79
5692.78
5696.88
5697.34
5737.28
5895.66
92205.9
8240.79
7568.34
7103.54
6787.81
6566.89
6406.47
6285.36
6191.56
6116.79
6056.44
6006.56
5965.17
5930.05
5900.36
5874.63
5852.59
5833.15
5816.35
5801.29
5788.2
5776.31
5765.93
5756.35
5748.03
5740.26
5733.47
5727.02
5721.47
5716.15
5711.53
5707.04
5703.22
5699.41
5696.26
5693.07
5690.4
5687.61
5685.42
5683.1
5681.23
5679.13
5677.7
5675.97
5674.5
5673.04
5672.03
5670.91
5670.2
5669.22
5668.62
5667.49
5666.73
5666.22
5665.83
5664.86
5664.85
5664.84
5664.8
5664.68
5664.19
5664.49
5664.49
5664.48
5664.38
5665.18
5665.18
5665.18
5665.63
5665.63
5666.42
5666.42
5667.63
5667.63
5668.83
5669.58
5670.75
5671.01
5672.31
5672.92
5674.23
5674.96
5676.52
5677.25
5678.94
5679.78
5681.59
5682.49
5684.59
5685.6
5688.23
5689.21
5693.32
5693.77
5734.34
5892.36
88475.4
8240.89
7568.21
7102.92
6786.68
6565.31
6404.52
6283.12
6189.07
6114.11
6053.59
6003.58
5962.08
5926.86
5897.08
5871.28
5849.17
5829.67
5812.82
5797.71
5784.59
5772.65
5762.24
5752.63
5744.29
5736.5
5729.68
5723.21
5717.64
5712.3
5707.67
5703.16
5699.32
5695.51
5692.34
5689.14
5686.46
5683.66
5681.46
5679.14
5677.25
5675.15
5673.71
5671.98
5670.5
5669.03
5668.02
5666.89
5666.18
5665.19
5664.59
5663.46
5662.69
5662.17
5661.78
5660.81
5660.79
5660.78
5660.73
5660.61
5660.12
5660.41
5660.41
5660.4
5660.29
5661.09
5661.09
5661.09
5661.53
5661.53
5662.32
5662.32
5663.52
5663.52
5664.71
5665.46
5666.64
5666.89
5668.19
5668.79
5670.11
5670.83
5672.38
5673.12
5674.8
5675.64
5677.45
5678.35
5680.44
5681.45
5684.07
5685.05
5689.16
5689.59
5730.92
5888.5
84813.4
8241
7568.07
7102.22
6785.38
6563.5
6402.29
6280.55
6186.23
6111.05
6050.34
6000.17
5958.53
5923.2
5893.33
5867.43
5845.25
5825.68
5808.78
5793.62
5780.44
5768.47
5758.02
5748.37
5740
5732.18
5725.34
5718.84
5713.25
5707.89
5703.24
5698.71
5694.86
5691.03
5687.85
5684.64
5681.95
5679.13
5676.92
5674.59
5672.7
5670.59
5669.14
5667.4
5665.91
5664.44
5663.42
5662.28
5661.57
5660.57
5659.96
5658.83
5658.06
5657.53
5657.14
5656.17
5656.15
5656.12
5656.07
5655.95
5655.45
5655.74
5655.74
5655.73
5655.61
5656.4
5656.4
5656.4
5656.84
5656.84
5657.62
5657.62
5658.81
5658.81
5660
5660.75
5661.93
5662.17
5663.47
5664.07
5665.38
5666.09
5667.65
5668.38
5670.06
5670.89
5672.7
5673.6
5675.69
5676.69
5679.31
5680.28
5684.39
5684.81
5727
5884.07
81218.2
8241.12
7567.92
7101.43
6783.92
6561.46
6399.78
6277.66
6183.03
6107.59
6046.67
5996.32
5954.53
5919.07
5889.08
5863.09
5840.83
5821.18
5804.21
5788.99
5775.77
5763.74
5753.25
5743.56
5735.16
5727.3
5720.43
5713.91
5708.29
5702.91
5698.24
5693.69
5689.82
5685.97
5682.78
5679.55
5676.85
5674.02
5671.8
5669.45
5667.55
5665.43
5663.97
5662.23
5660.73
5659.25
5658.22
5657.07
5656.35
5655.35
5654.74
5653.61
5652.83
5652.3
5651.9
5650.94
5650.89
5650.87
5650.81
5650.68
5650.18
5650.46
5650.46
5650.45
5650.33
5651.1
5651.1
5651.1
5651.53
5651.54
5652.31
5652.31
5653.49
5653.5
5654.68
5655.42
5656.6
5656.83
5658.13
5658.73
5660.04
5660.75
5662.3
5663.03
5664.7
5665.53
5667.34
5668.23
5670.31
5671.32
5673.93
5674.9
5679.01
5679.4
5722.59
5879.07
77684
8241.26
7567.75
7100.56
6782.31
6559.19
6396.99
6274.44
6179.46
6103.73
6042.58
5992.03
5950.07
5914.46
5884.35
5858.25
5835.89
5816.16
5799.11
5783.83
5770.54
5758.47
5747.93
5738.19
5729.75
5721.86
5714.96
5708.4
5702.76
5697.35
5692.65
5688.09
5684.2
5680.33
5677.11
5673.87
5671.15
5668.31
5666.08
5663.72
5661.81
5659.68
5658.2
5656.45
5654.95
5653.46
5652.42
5651.26
5650.53
5649.52
5648.91
5647.77
5646.99
5646.44
5646.05
5645.08
5645.03
5644.99
5644.94
5644.8
5644.29
5644.56
5644.56
5644.55
5644.42
5645.18
5645.19
5645.19
5645.61
5645.61
5646.37
5646.38
5647.55
5647.56
5648.73
5649.47
5650.65
5650.88
5652.17
5652.76
5654.07
5654.77
5656.32
5657.05
5658.71
5659.55
5661.35
5662.24
5664.32
5665.31
5667.92
5668.88
5672.99
5673.36
5717.68
5873.48
74204.1
8241.41
7567.56
7099.6
6780.53
6556.7
6393.91
6270.88
6175.52
6099.48
6038.06
5987.28
5945.14
5909.37
5879.12
5852.9
5830.44
5810.61
5793.48
5778.12
5764.77
5752.63
5742.04
5732.26
5723.77
5715.83
5708.9
5702.31
5696.64
5691.2
5686.48
5681.88
5677.97
5674.08
5670.85
5667.59
5664.85
5662
5659.75
5657.37
5655.45
5653.3
5651.82
5650.06
5648.55
5647.04
5646
5644.83
5644.09
5643.07
5642.45
5641.31
5640.53
5639.97
5639.57
5638.61
5638.54
5638.5
5638.43
5638.29
5637.78
5638.04
5638.04
5638.03
5637.88
5638.64
5638.64
5638.64
5639.06
5639.06
5639.81
5639.81
5640.98
5640.98
5642.15
5642.88
5644.06
5644.28
5645.57
5646.16
5647.46
5648.16
5649.71
5650.43
5652.09
5652.92
5654.72
5655.61
5657.68
5658.67
5661.27
5662.22
5666.33
5666.68
5712.26
5867.3
70785
8241.58
7567.36
7098.56
6778.59
6553.98
6390.54
6266.99
6171.2
6094.81
6033.11
5982.09
5939.74
5903.79
5873.39
5847.03
5824.45
5804.52
5787.3
5771.85
5758.43
5746.23
5735.58
5725.74
5717.2
5709.23
5702.25
5695.62
5689.92
5684.44
5679.7
5675.08
5671.14
5667.23
5663.97
5660.69
5657.94
5655.06
5652.8
5650.41
5648.47
5646.31
5644.81
5643.04
5641.52
5640
5638.95
5637.77
5637.02
5635.99
5635.37
5634.22
5633.43
5632.86
5632.46
5631.5
5631.41
5631.36
5631.29
5631.14
5630.63
5630.87
5630.87
5630.86
5630.71
5631.45
5631.45
5631.45
5631.86
5631.86
5632.61
5632.61
5633.76
5633.77
5634.93
5635.65
5636.83
5637.04
5638.32
5638.91
5640.21
5640.91
5642.44
5643.17
5644.82
5645.65
5647.44
5648.32
5650.39
5651.38
5653.96
5654.91
5659.02
5659.35
5706.32
5860.52
67432.6
8241.76
7567.15
7097.44
6776.49
6551.02
6386.88
6262.76
6166.51
6089.74
6027.72
5976.43
5933.86
5897.71
5867.14
5840.64
5817.93
5797.88
5780.56
5765.03
5751.53
5739.25
5728.54
5718.64
5710.05
5702.02
5695
5688.33
5682.59
5677.08
5672.3
5667.65
5663.69
5659.75
5656.47
5653.16
5650.39
5647.5
5645.22
5642.81
5640.86
5638.68
5637.17
5635.38
5633.86
5632.33
5631.26
5630.07
5629.31
5628.27
5627.64
5626.49
5625.69
5625.11
5624.7
5623.74
5623.64
5623.58
5623.5
5623.35
5622.83
5623.06
5623.06
5623.05
5622.88
5623.61
5623.61
5623.61
5624.02
5624.01
5624.75
5624.75
5625.89
5625.89
5627.05
5627.76
5628.94
5629.15
5630.42
5631
5632.3
5632.99
5634.52
5635.24
5636.89
5637.71
5639.5
5640.38
5642.43
5643.42
5646
5646.94
5651.05
5651.35
5699.86
5853.12
64152.6
8241.95
7566.93
7096.24
6774.23
6547.83
6382.93
6258.2
6161.44
6084.26
6021.89
5970.31
5927.49
5891.13
5860.38
5833.71
5810.86
5790.69
5773.26
5757.63
5744.04
5731.69
5720.9
5710.94
5702.29
5694.21
5687.15
5680.43
5674.65
5669.1
5664.29
5659.6
5655.61
5651.64
5648.34
5645.01
5642.22
5639.3
5637
5634.57
5632.61
5630.41
5628.89
5627.08
5625.54
5624
5622.92
5621.71
5620.95
5619.9
5619.26
5618.1
5617.29
5616.7
5616.29
5615.33
5615.21
5615.14
5615.06
5614.9
5614.37
5614.59
5614.59
5614.57
5614.39
5615.11
5615.11
5615.11
5615.5
5615.5
5616.22
5616.22
5617.35
5617.35
5618.5
5619.2
5620.39
5620.58
5621.85
5622.43
5623.73
5624.4
5625.93
5626.64
5628.28
5629.1
5630.88
5631.76
5633.81
5634.79
5637.36
5638.29
5642.4
5642.67
5692.86
5845.1
60950.2
8242.16
7566.7
7094.96
6771.81
6544.41
6378.69
6253.29
6155.99
6078.35
6015.61
5963.71
5920.62
5884.03
5853.08
5826.25
5803.25
5782.94
5765.39
5749.66
5735.97
5723.53
5712.67
5702.64
5693.93
5685.79
5678.67
5671.91
5666.08
5660.49
5655.64
5650.92
5646.9
5642.9
5639.57
5636.21
5633.39
5630.45
5628.13
5625.68
5623.7
5621.49
5619.94
5618.13
5616.58
5615.02
5613.92
5612.7
5611.92
5610.86
5610.21
5609.05
5608.23
5607.63
5607.21
5606.25
5606.11
5606.03
5605.94
5605.77
5605.24
5605.44
5605.44
5605.42
5605.23
5605.93
5605.93
5605.93
5606.32
5606.31
5607.02
5607.02
5608.13
5608.14
5609.28
5609.97
5611.15
5611.34
5612.6
5613.17
5614.47
5615.14
5616.65
5617.37
5619
5619.82
5621.59
5622.46
5624.5
5625.47
5628.03
5628.95
5633.06
5633.31
5685.33
5836.44
57830.3
8242.39
7566.45
7093.6
6769.24
6540.76
6374.16
6248.03
6150.14
6072.02
6008.88
5956.64
5913.26
5876.43
5845.26
5818.23
5795.07
5774.62
5756.95
5741.09
5727.31
5714.77
5703.83
5693.72
5684.94
5676.74
5669.57
5662.75
5656.88
5651.24
5646.35
5641.59
5637.54
5633.5
5630.14
5626.75
5623.91
5620.95
5618.6
5616.13
5614.13
5611.9
5610.34
5608.51
5606.94
5605.36
5604.25
5603.02
5602.22
5601.15
5600.49
5599.33
5598.5
5597.88
5597.45
5596.49
5596.34
5596.24
5596.15
5595.97
5595.43
5595.62
5595.62
5595.59
5595.39
5596.07
5596.07
5596.07
5596.44
5596.44
5597.14
5597.13
5598.23
5598.24
5599.37
5600.04
5601.23
5601.4
5602.66
5603.23
5604.52
5605.18
5606.69
5607.39
5609.02
5609.83
5611.6
5612.46
5614.49
5615.46
5618.01
5618.92
5623.03
5623.25
5677.24
5827.14
54797.3
8242.62
7566.2
7092.16
6766.5
6536.88
6369.33
6242.43
6143.91
6065.27
6001.69
5949.09
5905.4
5868.3
5836.9
5809.67
5786.33
5765.73
5747.91
5731.94
5718.04
5705.41
5694.38
5684.19
5675.33
5667.06
5659.83
5652.96
5647.03
5641.35
5636.42
5631.61
5627.52
5623.45
5620.06
5616.64
5613.77
5610.78
5608.41
5605.91
5603.89
5601.64
5600.06
5598.21
5596.63
5595.03
5593.91
5592.65
5591.85
5590.76
5590.09
5588.92
5588.08
5587.44
5587.01
5586.05
5585.87
5585.77
5585.66
5585.48
5584.93
5585.1
5585.1
5585.07
5584.85
5585.52
5585.52
5585.52
5585.88
5585.87
5586.55
5586.55
5587.63
5587.64
5588.76
5589.42
5590.61
5590.77
5592.02
5592.58
5593.86
5594.52
5596.02
5596.72
5598.34
5599.14
5600.9
5601.76
5603.78
5604.74
5607.28
5608.18
5612.29
5612.49
5668.6
5817.17
51855.4
8242.87
7565.94
7090.65
6763.61
6532.77
6364.2
6236.48
6137.29
6058.09
5994.05
5941.05
5897.03
5859.64
5828
5800.55
5777.02
5756.25
5738.29
5722.18
5708.17
5695.43
5684.3
5674.02
5665.09
5656.75
5649.45
5642.51
5636.53
5630.8
5625.82
5620.97
5616.84
5612.73
5609.3
5605.85
5602.95
5599.93
5597.54
5595.01
5592.97
5590.7
5589.09
5587.22
5585.63
5584.01
5582.87
5581.6
5580.78
5579.67
5578.99
5577.82
5576.97
5576.31
5575.87
5574.91
5574.71
5574.59
5574.48
5574.29
5573.74
5573.89
5573.89
5573.85
5573.61
5574.26
5574.26
5574.26
5574.6
5574.6
5575.26
5575.26
5576.32
5576.33
5577.44
5578.09
5579.28
5579.42
5580.67
5581.22
5582.5
5583.14
5584.64
5585.33
5586.94
5587.74
5589.49
5590.35
5592.35
5593.31
5595.83
5596.72
5600.83
5601
5659.37
5806.53
49008.4
8243.13
7565.68
7089.07
6760.57
6528.43
6358.79
6230.19
6130.27
6050.48
5985.94
5932.53
5888.15
5850.45
5818.55
5790.87
5767.14
5746.19
5728.07
5711.81
5697.68
5684.82
5673.59
5663.22
5654.2
5645.78
5638.41
5631.41
5625.37
5619.58
5614.56
5609.66
5605.49
5601.34
5597.87
5594.38
5591.45
5588.4
5585.98
5583.43
5581.36
5579.06
5577.43
5575.55
5573.93
5572.3
5571.14
5569.84
5569
5567.88
5567.19
5566.01
5565.15
5564.47
5564.03
5563.06
5562.84
5562.71
5562.58
5562.39
5561.83
5561.96
5561.96
5561.92
5561.66
5562.29
5562.29
5562.28
5562.62
5562.61
5563.26
5563.26
5564.3
5564.3
5565.41
5566.04
5567.22
5567.36
5568.59
5569.14
5570.41
5571.05
5572.53
5573.22
5574.82
5575.62
5577.35
5578.21
5580.2
5581.15
5583.66
5584.53
5588.64
5588.79
5649.57
5795.18
46259.6
8243.41
7565.41
7087.42
6757.38
6523.87
6353.08
6223.54
6122.87
6042.44
5977.37
5923.51
5878.76
5840.73
5808.54
5780.62
5756.67
5735.53
5717.24
5700.83
5686.56
5673.58
5662.25
5651.77
5642.67
5634.16
5626.72
5619.65
5613.55
5607.69
5602.62
5597.67
5593.45
5589.26
5585.75
5582.22
5579.26
5576.18
5573.72
5571.14
5569.05
5566.73
5565.07
5563.16
5561.53
5559.88
5558.69
5557.38
5556.52
5555.39
5554.68
5553.49
5552.62
5551.92
5551.47
5550.49
5550.25
5550.11
5549.97
5549.77
5549.2
5549.31
5549.31
5549.26
5548.98
5549.59
5549.59
5549.59
5549.9
5549.9
5550.52
5550.52
5551.54
5551.55
5552.64
5553.25
5554.44
5554.56
5555.79
5556.33
5557.6
5558.22
5559.69
5560.38
5561.96
5562.75
5564.48
5565.33
5567.31
5568.25
5570.75
5571.61
5575.71
5575.84
5639.16
5783.12
43612.1
8243.7
7565.14
7085.7
6754.04
6519.08
6347.08
6216.55
6115.06
6033.96
5968.33
5914
5868.84
5830.47
5797.98
5769.79
5745.62
5724.27
5705.8
5689.23
5674.82
5661.71
5650.26
5639.68
5630.48
5621.88
5614.36
5607.21
5601.04
5595.13
5589.99
5584.99
5580.73
5576.48
5572.94
5569.37
5566.37
5563.25
5560.76
5558.15
5556.03
5553.68
5552
5550.07
5548.42
5546.74
5545.53
5544.2
5543.32
5542.17
5541.45
5540.25
5539.36
5538.65
5538.19
5537.21
5536.94
5536.78
5536.62
5536.42
5535.85
5535.94
5535.93
5535.87
5535.58
5536.16
5536.16
5536.15
5536.45
5536.45
5537.06
5537.05
5538.05
5538.06
5539.14
5539.73
5540.91
5541.03
5542.25
5542.77
5544.04
5544.64
5546.11
5546.79
5548.36
5549.15
5550.87
5551.7
5553.67
5554.6
5557.09
5557.93
5562.04
5562.14
5628.15
5770.32
41068.6
8244
7564.86
7083.91
6750.56
6514.06
6340.79
6209.21
6106.86
6025.05
5958.83
5903.99
5858.4
5819.66
5786.85
5758.39
5733.97
5712.4
5693.75
5677.01
5662.44
5649.19
5637.62
5626.92
5617.62
5608.93
5601.33
5594.1
5587.86
5581.87
5576.68
5571.62
5567.3
5563.01
5559.42
5555.8
5552.77
5549.61
5547.09
5544.44
5542.3
5539.92
5538.2
5536.25
5534.58
5532.87
5531.65
5530.29
5529.39
5528.22
5527.48
5526.28
5525.37
5524.64
5524.17
5523.18
5522.89
5522.71
5522.54
5522.33
5521.76
5521.82
5521.81
5521.74
5521.43
5521.99
5521.99
5521.98
5522.26
5522.26
5522.84
5522.84
5523.81
5523.82
5524.89
5525.46
5526.64
5526.74
5527.95
5528.47
5529.72
5530.32
5531.77
5532.44
5534.01
5534.79
5536.49
5537.33
5539.28
5540.2
5542.67
5543.5
5547.6
5547.68
5616.5
5756.74
38631.5
8244.32
7564.59
7082.06
6746.93
6508.83
6334.21
6201.53
6098.27
6015.71
5948.85
5893.48
5847.44
5808.31
5775.16
5746.4
5721.72
5699.93
5681.07
5664.15
5649.42
5636.02
5624.32
5613.5
5604.09
5595.3
5587.61
5580.3
5573.98
5567.93
5562.67
5557.55
5553.18
5548.83
5545.19
5541.53
5538.46
5535.26
5532.7
5530.01
5527.84
5525.43
5523.68
5521.7
5520.02
5518.28
5517.03
5515.64
5514.73
5513.53
5512.78
5511.57
5510.65
5509.89
5509.41
5508.41
5508.1
5507.9
5507.72
5507.5
5506.92
5506.96
5506.94
5506.86
5506.53
5507.06
5507.07
5507.06
5507.32
5507.32
5507.87
5507.87
5508.82
5508.83
5509.88
5510.43
5511.61
5511.7
5512.9
5513.4
5514.65
5515.23
5516.68
5517.34
5518.89
5519.66
5521.36
5522.18
5524.12
5525.03
5527.49
5528.3
5532.4
5532.46
5604.21
5742.37
36302.7
8244.65
7564.31
7080.16
6743.16
6503.38
6327.35
6193.5
6089.29
6005.92
5938.41
5882.47
5835.96
5796.41
5762.91
5733.83
5708.88
5686.84
5667.77
5650.65
5635.75
5622.2
5610.36
5599.42
5589.89
5580.99
5573.21
5565.81
5559.41
5553.28
5547.95
5542.77
5538.34
5533.93
5530.24
5526.53
5523.42
5520.17
5517.58
5514.85
5512.65
5510.2
5508.43
5506.42
5504.71
5502.94
5501.67
5500.26
5499.32
5498.1
5497.33
5496.11
5495.17
5494.39
5493.89
5492.89
5492.55
5492.33
5492.14
5491.91
5491.33
5491.34
5491.32
5491.23
5490.87
5491.38
5491.39
5491.37
5491.61
5491.61
5492.14
5492.14
5493.06
5493.07
5494.11
5494.64
5495.81
5495.89
5497.08
5497.57
5498.81
5499.38
5500.81
5501.46
5503
5503.76
5505.45
5506.27
5508.19
5509.09
5511.53
5512.33
5516.42
5516.46
5591.26
5727.17
34083.9
8244.99
7564.04
7078.19
6739.26
6497.72
6320.2
6185.13
6079.91
5995.71
5927.49
5870.96
5823.94
5783.95
5750.08
5720.67
5695.43
5673.13
5653.84
5636.52
5621.44
5607.72
5595.73
5584.65
5575.01
5565.99
5558.11
5550.62
5544.13
5537.92
5532.53
5527.27
5522.78
5518.31
5514.57
5510.81
5507.65
5504.36
5501.72
5498.96
5496.72
5494.24
5492.43
5490.39
5488.66
5486.86
5485.56
5484.12
5483.16
5481.92
5481.13
5479.89
5478.94
5478.13
5477.62
5476.62
5476.25
5476.01
5475.79
5475.56
5474.98
5474.96
5474.93
5474.82
5474.45
5474.93
5474.94
5474.92
5475.14
5475.13
5475.64
5475.64
5476.53
5476.54
5477.57
5478.07
5479.23
5479.3
5480.48
5480.96
5482.19
5482.75
5484.16
5484.81
5486.33
5487.09
5488.76
5489.57
5491.48
5492.36
5494.79
5495.57
5499.65
5499.67
5577.59
5711.14
31976.6
8245.34
7563.77
7076.18
6735.23
6491.84
6312.77
6176.42
6070.14
5985.06
5916.1
5858.95
5811.39
5770.95
5736.67
5706.92
5681.38
5658.81
5639.27
5621.73
5606.47
5592.57
5580.43
5569.21
5559.44
5550.3
5542.31
5534.72
5528.15
5521.85
5516.38
5511.05
5506.5
5501.97
5498.17
5494.35
5491.14
5487.81
5485.12
5482.32
5480.04
5477.53
5475.68
5473.61
5471.85
5470.02
5468.7
5467.22
5466.24
5464.97
5464.16
5462.91
5461.94
5461.1
5460.59
5459.57
5459.17
5458.91
5458.68
5458.43
5457.85
5457.81
5457.76
5457.65
5457.25
5457.71
5457.71
5457.69
5457.89
5457.88
5458.36
5458.36
5459.22
5459.23
5460.25
5460.72
5461.88
5461.93
5463.1
5463.56
5464.79
5465.33
5466.73
5467.37
5468.87
5469.62
5471.28
5472.08
5473.97
5474.85
5477.25
5478.02
5482.08
5482.1
5563.18
5694.24
29982
8245.7
7563.51
7074.12
6731.08
6485.77
6305.07
6167.37
6059.98
5973.98
5904.25
5846.43
5798.32
5757.39
5722.7
5692.57
5666.71
5643.86
5624.07
5606.3
5590.84
5576.76
5564.45
5553.08
5543.17
5533.92
5525.82
5518.12
5511.45
5505.06
5499.51
5494.11
5489.48
5484.89
5481.03
5477.15
5473.89
5470.51
5467.78
5464.92
5462.61
5460.06
5458.17
5456.07
5454.28
5452.42
5451.07
5449.56
5448.55
5447.26
5446.43
5445.16
5444.18
5443.31
5442.78
5441.75
5441.32
5441.04
5440.79
5440.53
5439.95
5439.88
5439.82
5439.69
5439.27
5439.7
5439.7
5439.68
5439.86
5439.84
5440.3
5440.29
5441.13
5441.13
5442.13
5442.58
5443.72
5443.77
5444.93
5445.37
5446.59
5447.11
5448.5
5449.13
5450.62
5451.36
5453
5453.79
5455.66
5456.53
5458.92
5459.66
5463.71
5463.72
5547.98
5676.45
28100.9
8246.08
7563.26
7072.01
6726.8
6479.5
6297.1
6157.99
6049.44
5962.46
5891.92
5833.42
5784.71
5743.27
5708.14
5677.63
5651.43
5628.28
5608.23
5590.22
5574.54
5560.27
5547.8
5536.27
5526.22
5516.83
5508.61
5500.8
5494.03
5487.55
5481.92
5476.43
5471.73
5467.07
5463.14
5459.2
5455.89
5452.45
5449.68
5446.78
5444.42
5441.83
5439.9
5437.77
5435.95
5434.06
5432.67
5431.13
5430.09
5428.77
5427.92
5426.64
5425.63
5424.73
5424.19
5423.15
5422.69
5422.38
5422.11
5421.85
5421.26
5421.16
5421.09
5420.95
5420.51
5420.9
5420.9
5420.87
5421.04
5421.01
5421.44
5421.43
5422.24
5422.24
5423.22
5423.64
5424.77
5424.81
5425.96
5426.38
5427.59
5428.09
5429.47
5430.08
5431.56
5432.29
5433.91
5434.69
5436.55
5437.41
5439.77
5440.5
5444.53
5444.54
5531.94
5657.76
26334.3
8246.46
7563.01
7069.86
6722.41
6473.03
6288.87
6148.29
6038.52
5950.53
5879.13
5819.9
5770.58
5728.61
5693.01
5662.1
5635.54
5612.07
5591.74
5573.49
5557.59
5543.11
5530.46
5518.76
5508.56
5499.03
5490.69
5482.76
5475.89
5469.31
5463.59
5458.01
5453.24
5448.5
5444.51
5440.51
5437.14
5433.65
5430.82
5427.87
5425.47
5422.83
5420.87
5418.69
5416.85
5414.91
5413.49
5411.92
5410.85
5409.5
5408.62
5407.33
5406.3
5405.38
5404.81
5403.76
5403.27
5402.94
5402.65
5402.37
5401.78
5401.65
5401.56
5401.41
5400.95
5401.31
5401.31
5401.28
5401.42
5401.38
5401.78
5401.77
5402.54
5402.54
5403.51
5403.9
5405.02
5405.04
5406.18
5406.58
5407.78
5408.27
5409.63
5410.23
5411.69
5412.41
5414.02
5414.79
5416.63
5417.47
5419.82
5420.52
5424.53
5424.54
5515
5638.14
24683
8246.86
7562.77
7067.68
6717.92
6466.38
6280.37
6138.26
6027.22
5938.16
5865.88
5805.89
5755.92
5713.38
5677.31
5645.96
5619.04
5595.24
5574.62
5556.1
5539.96
5525.27
5512.43
5500.56
5490.2
5480.52
5472.05
5464
5457.02
5450.33
5444.52
5438.86
5434.01
5429.19
5425.13
5421.06
5417.63
5414.08
5411.2
5408.19
5405.75
5403.07
5401.06
5398.84
5396.97
5394.99
5393.54
5391.93
5390.83
5389.45
5388.54
5387.23
5386.19
5385.23
5384.64
5383.58
5383.06
5382.69
5382.38
5382.1
5381.5
5381.34
5381.23
5381.07
5380.59
5380.91
5380.91
5380.88
5380.99
5380.94
5381.31
5381.31
5382.04
5382.04
5382.99
5383.34
5384.45
5384.47
5385.59
5385.97
5387.16
5387.63
5388.97
5389.56
5391.01
5391.71
5393.3
5394.06
5395.88
5396.71
5399.04
5399.72
5403.71
5403.72
5497.12
5617.57
23147
8247.26
7562.55
7065.47
6713.32
6459.55
6271.63
6127.92
6015.55
5925.38
5852.16
5791.38
5740.74
5697.61
5661.03
5629.24
5601.92
5577.77
5556.85
5538.05
5521.67
5506.76
5493.72
5481.66
5471.14
5461.31
5452.7
5444.52
5437.43
5430.62
5424.72
5418.96
5414.02
5409.12
5404.99
5400.84
5397.36
5393.74
5390.8
5387.74
5385.26
5382.52
5380.47
5378.21
5376.3
5374.29
5372.8
5371.15
5370.02
5368.6
5367.67
5366.34
5365.27
5364.28
5363.67
5362.6
5362.05
5361.65
5361.32
5361.02
5360.41
5360.23
5360.1
5359.92
5359.42
5359.71
5359.71
5359.67
5359.76
5359.7
5360.03
5360.03
5360.72
5360.72
5361.66
5361.98
5363.06
5363.07
5364.18
5364.54
5365.72
5366.17
5367.49
5368.07
5369.5
5370.19
5371.76
5372.51
5374.31
5375.12
5377.43
5378.1
5382.06
5382.07
5478.24
5596.01
21721.2
8247.67
7562.34
7063.23
6708.62
6452.54
6262.64
6117.26
6003.51
5912.18
5837.99
5776.38
5725.03
5681.29
5644.18
5611.92
5584.2
5559.68
5538.43
5519.35
5502.71
5487.56
5474.31
5462.06
5451.37
5441.38
5432.63
5424.31
5417.1
5410.18
5404.17
5398.31
5393.29
5388.3
5384.09
5379.87
5376.32
5372.64
5369.64
5366.52
5363.99
5361.2
5359.1
5356.8
5354.85
5352.8
5351.27
5349.58
5348.41
5346.97
5346
5344.65
5343.56
5342.53
5341.9
5340.82
5340.23
5339.81
5339.45
5339.13
5338.52
5338.31
5338.16
5337.97
5337.45
5337.7
5337.7
5337.65
5337.72
5337.64
5337.94
5337.94
5338.58
5338.59
5339.5
5339.79
5340.85
5340.86
5341.95
5342.29
5343.46
5343.88
5345.19
5345.75
5347.16
5347.84
5349.39
5350.13
5351.9
5352.7
5354.99
5355.64
5359.57
5359.58
5458.31
5573.44
20400.9
8248.09
7562.15
7060.96
6703.84
6445.37
6253.41
6106.3
5991.11
5898.58
5823.37
5760.89
5708.8
5664.42
5626.75
5594.01
5565.86
5540.96
5519.38
5499.99
5483.08
5467.69
5454.22
5441.76
5430.89
5420.73
5411.83
5403.38
5396.03
5388.99
5382.88
5376.91
5371.8
5366.72
5362.43
5358.13
5354.51
5350.76
5347.7
5344.52
5341.93
5339.1
5336.94
5334.6
5332.61
5330.51
5328.95
5327.21
5326.01
5324.53
5323.54
5322.16
5321.05
5319.98
5319.33
5318.23
5317.61
5317.15
5316.77
5316.44
5315.81
5315.57
5315.4
5315.2
5314.66
5314.87
5314.87
5314.81
5314.86
5314.76
5315.03
5315.02
5315.63
5315.63
5316.52
5316.77
5317.82
5317.82
5318.89
5319.21
5320.36
5320.77
5322.05
5322.6
5323.99
5324.65
5326.19
5326.91
5328.66
5329.45
5331.71
5332.34
5336.25
5336.25
5437.25
5549.83
19180.8
8248.52
7561.97
7058.69
6698.97
6438.04
6243.95
6095.05
5978.36
5884.57
5808.31
5744.92
5692.06
5647.01
5608.76
5575.5
5546.91
5521.61
5499.68
5479.97
5462.78
5447.13
5433.44
5420.77
5409.71
5399.37
5390.31
5381.71
5374.23
5367.07
5360.84
5354.76
5349.55
5344.38
5340.01
5335.62
5331.93
5328.11
5324.99
5321.74
5319.1
5316.21
5314
5311.6
5309.58
5307.44
5305.83
5304.05
5302.81
5301.29
5300.26
5298.86
5297.73
5296.63
5295.95
5294.83
5294.18
5293.69
5293.27
5292.92
5292.29
5292.02
5291.82
5291.61
5291.06
5291.22
5291.22
5291.16
5291.17
5291.05
5291.29
5291.28
5291.85
5291.85
5292.71
5292.93
5293.95
5293.95
5295
5295.29
5296.43
5296.82
5298.08
5298.61
5299.98
5300.63
5302.14
5302.85
5304.58
5305.35
5307.59
5308.2
5312.08
5312.08
5415.03
5525.15
18055.6
8248.95
7561.81
7056.4
6694.03
6430.57
6234.27
6083.51
5965.27
5870.17
5792.8
5728.48
5674.81
5629.06
5590.21
5556.42
5527.36
5501.64
5479.34
5459.3
5441.82
5425.9
5411.96
5399.08
5387.82
5377.29
5368.07
5359.31
5351.7
5344.4
5338.05
5331.86
5326.55
5321.28
5316.82
5312.35
5308.58
5304.68
5301.49
5298.18
5295.48
5292.53
5290.27
5287.82
5285.76
5283.56
5281.91
5280.09
5278.8
5277.24
5276.19
5274.76
5273.6
5272.46
5271.75
5270.62
5269.93
5269.4
5268.96
5268.59
5267.95
5267.64
5267.43
5267.2
5266.63
5266.75
5266.74
5266.68
5266.67
5266.52
5266.73
5266.71
5267.23
5267.24
5268.07
5268.26
5269.24
5269.25
5270.28
5270.54
5271.67
5272.03
5273.27
5273.79
5275.13
5275.76
5277.25
5277.95
5279.66
5280.41
5282.62
5283.21
5287.06
5287.06
5391.59
5499.37
17019.7
8249.39
7561.68
7054.1
6689.02
6422.95
6224.38
6071.7
5951.84
5855.39
5776.87
5711.57
5657.06
5610.58
5571.1
5536.75
5507.2
5481.05
5458.37
5437.98
5420.2
5403.99
5389.81
5376.69
5365.22
5354.5
5345.11
5336.19
5328.43
5320.99
5314.52
5308.21
5302.8
5297.42
5292.87
5288.3
5284.46
5280.48
5277.22
5273.83
5271.08
5268.07
5265.74
5263.24
5261.13
5258.89
5257.19
5255.32
5254
5252.4
5251.3
5249.85
5248.66
5247.48
5246.74
5245.59
5244.86
5244.3
5243.83
5243.44
5242.78
5242.45
5242.21
5241.97
5241.39
5241.46
5241.45
5241.37
5241.33
5241.16
5241.35
5241.31
5241.79
5241.79
5242.6
5242.75
5243.7
5243.71
5244.72
5244.95
5246.06
5246.4
5247.62
5248.12
5249.44
5250.05
5251.52
5252.21
5253.89
5254.62
5256.81
5257.37
5261.18
5261.18
5366.86
5472.46
16067.4
8249.83
7561.56
7051.8
6683.96
6415.21
6214.29
6059.62
5938.09
5840.22
5760.51
5694.19
5638.81
5591.57
5551.43
5516.51
5486.45
5459.85
5436.77
5416.02
5397.91
5381.41
5366.97
5353.6
5341.92
5331
5321.43
5312.34
5304.43
5296.84
5290.24
5283.81
5278.28
5272.8
5268.15
5263.49
5259.56
5255.5
5252.17
5248.71
5245.88
5242.81
5240.43
5237.87
5235.72
5233.42
5231.68
5229.75