/*--------------------------------*- C++ -*----------------------------------*\
| =========                 |                                                 |
| \\      /  F ield         | OpenFOAM: The Open Source CFD Toolbox           |
|  \\    /   O peration     | Version:  v2012                                 |
|   \\  /    A nd           | Website:  www.openfoam.com                      |
|    \\/     M anipulation  |                                                 |
\*---------------------------------------------------------------------------*/
FoamFile
{
    version     2.0;
    format      ascii;
    class       volScalarField;
    location    "32";
    object      nut;
}
// * * * * * * * * * * * * * * * * * * * * * * * * * * * * * * * * * * * * * //

dimensions      [0 2 -1 0 0 0 0];


internalField   nonuniform List<scalar> 
209825
(
1.23898e-07
1.22933e-07
1.22474e-07
1.22441e-07
1.22664e-07
1.22989e-07
1.23353e-07
1.23704e-07
1.24045e-07
1.24352e-07
1.24644e-07
1.24901e-07
1.25145e-07
1.25358e-07
1.25563e-07
1.2574e-07
1.25912e-07
1.26061e-07
1.26207e-07
1.26331e-07
1.26456e-07
1.26562e-07
1.2667e-07
1.2676e-07
1.26854e-07
1.26932e-07
1.27012e-07
1.2708e-07
1.27151e-07
1.2721e-07
1.27272e-07
1.27323e-07
1.2738e-07
1.27426e-07
1.27476e-07
1.27515e-07
1.27559e-07
1.27596e-07
1.27636e-07
1.27667e-07
1.27704e-07
1.27735e-07
1.27767e-07
1.27792e-07
1.27825e-07
1.27847e-07
1.27875e-07
1.27895e-07
1.27919e-07
1.27939e-07
1.27963e-07
1.2798e-07
1.28e-07
1.28019e-07
1.28038e-07
1.28051e-07
1.2807e-07
1.28084e-07
1.28093e-07
1.28106e-07
1.28113e-07
1.28126e-07
1.28126e-07
1.28136e-07
1.28144e-07
1.2817e-07
1.28196e-07
1.28217e-07
1.28228e-07
1.28254e-07
1.28267e-07
1.28293e-07
1.28313e-07
1.28342e-07
1.28366e-07
1.28394e-07
1.28408e-07
1.28433e-07
1.28448e-07
1.28471e-07
1.28487e-07
1.28508e-07
1.28526e-07
1.28546e-07
1.28567e-07
1.28587e-07
1.28608e-07
1.28632e-07
1.28653e-07
1.28683e-07
1.28705e-07
1.28743e-07
1.2878e-07
1.29981e-07
1.33773e-07
1.42613e-08
1.23898e-07
1.22933e-07
1.22474e-07
1.22441e-07
1.22664e-07
1.22988e-07
1.23352e-07
1.23704e-07
1.24045e-07
1.24352e-07
1.24643e-07
1.249e-07
1.25145e-07
1.25358e-07
1.25562e-07
1.2574e-07
1.25912e-07
1.2606e-07
1.26206e-07
1.26331e-07
1.26456e-07
1.26562e-07
1.2667e-07
1.2676e-07
1.26854e-07
1.26932e-07
1.27012e-07
1.2708e-07
1.27151e-07
1.2721e-07
1.27272e-07
1.27323e-07
1.2738e-07
1.27426e-07
1.27476e-07
1.27515e-07
1.27559e-07
1.27596e-07
1.27636e-07
1.27667e-07
1.27704e-07
1.27736e-07
1.27767e-07
1.27792e-07
1.27825e-07
1.27848e-07
1.27875e-07
1.27895e-07
1.27919e-07
1.27939e-07
1.27963e-07
1.2798e-07
1.28e-07
1.28019e-07
1.28038e-07
1.28051e-07
1.2807e-07
1.28084e-07
1.28093e-07
1.28106e-07
1.28113e-07
1.28126e-07
1.28126e-07
1.28136e-07
1.28144e-07
1.2817e-07
1.28196e-07
1.28217e-07
1.28228e-07
1.28254e-07
1.28267e-07
1.28293e-07
1.28313e-07
1.28342e-07
1.28366e-07
1.28394e-07
1.28408e-07
1.28433e-07
1.28448e-07
1.28471e-07
1.28487e-07
1.28508e-07
1.28526e-07
1.28546e-07
1.28567e-07
1.28588e-07
1.28608e-07
1.28632e-07
1.28653e-07
1.28683e-07
1.28705e-07
1.28743e-07
1.2878e-07
1.29984e-07
1.33775e-07
1.46964e-08
1.23898e-07
1.22933e-07
1.22473e-07
1.2244e-07
1.22663e-07
1.22987e-07
1.2335e-07
1.23702e-07
1.24043e-07
1.2435e-07
1.24641e-07
1.24898e-07
1.25142e-07
1.25355e-07
1.2556e-07
1.25737e-07
1.2591e-07
1.26058e-07
1.26204e-07
1.26329e-07
1.26453e-07
1.2656e-07
1.26667e-07
1.26758e-07
1.26851e-07
1.26929e-07
1.2701e-07
1.27077e-07
1.27148e-07
1.27207e-07
1.2727e-07
1.27321e-07
1.27378e-07
1.27424e-07
1.27473e-07
1.27512e-07
1.27556e-07
1.27593e-07
1.27634e-07
1.27665e-07
1.27701e-07
1.27733e-07
1.27764e-07
1.27789e-07
1.27822e-07
1.27845e-07
1.27872e-07
1.27893e-07
1.27916e-07
1.27937e-07
1.2796e-07
1.27977e-07
1.27997e-07
1.28017e-07
1.28035e-07
1.28049e-07
1.28067e-07
1.28082e-07
1.28091e-07
1.28104e-07
1.28111e-07
1.28124e-07
1.28124e-07
1.28134e-07
1.28142e-07
1.28168e-07
1.28194e-07
1.28214e-07
1.28226e-07
1.28251e-07
1.28265e-07
1.28291e-07
1.28311e-07
1.2834e-07
1.28364e-07
1.28391e-07
1.28405e-07
1.2843e-07
1.28445e-07
1.28469e-07
1.28485e-07
1.28505e-07
1.28524e-07
1.28543e-07
1.28565e-07
1.28585e-07
1.28606e-07
1.2863e-07
1.2865e-07
1.28681e-07
1.28703e-07
1.2874e-07
1.28777e-07
1.29986e-07
1.33775e-07
1.52366e-08
1.23898e-07
1.22932e-07
1.22473e-07
1.22439e-07
1.2266e-07
1.22984e-07
1.23347e-07
1.23698e-07
1.24039e-07
1.24346e-07
1.24637e-07
1.24894e-07
1.25138e-07
1.25351e-07
1.25556e-07
1.25733e-07
1.25906e-07
1.26054e-07
1.262e-07
1.26325e-07
1.2645e-07
1.26556e-07
1.26663e-07
1.26754e-07
1.26847e-07
1.26925e-07
1.27006e-07
1.27074e-07
1.27144e-07
1.27204e-07
1.27266e-07
1.27317e-07
1.27374e-07
1.2742e-07
1.27469e-07
1.27508e-07
1.27553e-07
1.27589e-07
1.2763e-07
1.27661e-07
1.27698e-07
1.27729e-07
1.27761e-07
1.27786e-07
1.27819e-07
1.27841e-07
1.27869e-07
1.27889e-07
1.27913e-07
1.27933e-07
1.27957e-07
1.27974e-07
1.27994e-07
1.28013e-07
1.28032e-07
1.28045e-07
1.28064e-07
1.28078e-07
1.28087e-07
1.281e-07
1.28107e-07
1.2812e-07
1.2812e-07
1.28131e-07
1.28138e-07
1.28164e-07
1.2819e-07
1.28211e-07
1.28222e-07
1.28248e-07
1.28261e-07
1.28287e-07
1.28307e-07
1.28336e-07
1.2836e-07
1.28388e-07
1.28402e-07
1.28427e-07
1.28442e-07
1.28465e-07
1.28481e-07
1.28502e-07
1.2852e-07
1.2854e-07
1.28561e-07
1.28582e-07
1.28602e-07
1.28626e-07
1.28647e-07
1.28677e-07
1.28699e-07
1.28737e-07
1.28774e-07
1.2999e-07
1.33775e-07
1.58359e-08
1.23898e-07
1.22932e-07
1.22472e-07
1.22437e-07
1.22657e-07
1.2298e-07
1.23343e-07
1.23693e-07
1.24034e-07
1.24341e-07
1.24632e-07
1.24889e-07
1.25133e-07
1.25346e-07
1.2555e-07
1.25728e-07
1.259e-07
1.26048e-07
1.26194e-07
1.26319e-07
1.26444e-07
1.2655e-07
1.26658e-07
1.26748e-07
1.26842e-07
1.2692e-07
1.27001e-07
1.27068e-07
1.27139e-07
1.27198e-07
1.27261e-07
1.27312e-07
1.27369e-07
1.27415e-07
1.27464e-07
1.27503e-07
1.27548e-07
1.27584e-07
1.27625e-07
1.27656e-07
1.27693e-07
1.27725e-07
1.27756e-07
1.27781e-07
1.27814e-07
1.27837e-07
1.27864e-07
1.27884e-07
1.27908e-07
1.27929e-07
1.27952e-07
1.27969e-07
1.27989e-07
1.28009e-07
1.28027e-07
1.28041e-07
1.28059e-07
1.28074e-07
1.28083e-07
1.28096e-07
1.28103e-07
1.28116e-07
1.28116e-07
1.28126e-07
1.28134e-07
1.2816e-07
1.28186e-07
1.28206e-07
1.28218e-07
1.28243e-07
1.28257e-07
1.28282e-07
1.28303e-07
1.28332e-07
1.28355e-07
1.28383e-07
1.28397e-07
1.28422e-07
1.28437e-07
1.28461e-07
1.28477e-07
1.28497e-07
1.28516e-07
1.28535e-07
1.28557e-07
1.28577e-07
1.28598e-07
1.28622e-07
1.28642e-07
1.28673e-07
1.28695e-07
1.28732e-07
1.28769e-07
1.29996e-07
1.33775e-07
1.64859e-08
1.23898e-07
1.22932e-07
1.2247e-07
1.22434e-07
1.22653e-07
1.22975e-07
1.23337e-07
1.23687e-07
1.24028e-07
1.24334e-07
1.24625e-07
1.24882e-07
1.25126e-07
1.25339e-07
1.25544e-07
1.25721e-07
1.25893e-07
1.26042e-07
1.26188e-07
1.26312e-07
1.26438e-07
1.26544e-07
1.26651e-07
1.26742e-07
1.26835e-07
1.26913e-07
1.26994e-07
1.27062e-07
1.27133e-07
1.27192e-07
1.27255e-07
1.27306e-07
1.27363e-07
1.27409e-07
1.27458e-07
1.27497e-07
1.27542e-07
1.27578e-07
1.27619e-07
1.2765e-07
1.27687e-07
1.27719e-07
1.2775e-07
1.27775e-07
1.27808e-07
1.27831e-07
1.27858e-07
1.27878e-07
1.27902e-07
1.27923e-07
1.27946e-07
1.27963e-07
1.27983e-07
1.28003e-07
1.28021e-07
1.28035e-07
1.28054e-07
1.28068e-07
1.28077e-07
1.2809e-07
1.28097e-07
1.2811e-07
1.2811e-07
1.2812e-07
1.28128e-07
1.28154e-07
1.2818e-07
1.282e-07
1.28212e-07
1.28237e-07
1.28251e-07
1.28277e-07
1.28297e-07
1.28326e-07
1.28349e-07
1.28377e-07
1.28391e-07
1.28416e-07
1.28431e-07
1.28455e-07
1.28471e-07
1.28492e-07
1.2851e-07
1.2853e-07
1.28551e-07
1.28571e-07
1.28592e-07
1.28616e-07
1.28636e-07
1.28667e-07
1.28689e-07
1.28726e-07
1.28764e-07
1.30003e-07
1.33776e-07
1.71848e-08
1.23899e-07
1.22932e-07
1.22469e-07
1.2243e-07
1.22648e-07
1.22969e-07
1.23331e-07
1.2368e-07
1.2402e-07
1.24326e-07
1.24617e-07
1.24874e-07
1.25118e-07
1.25331e-07
1.25535e-07
1.25712e-07
1.25885e-07
1.26033e-07
1.2618e-07
1.26304e-07
1.26429e-07
1.26536e-07
1.26643e-07
1.26734e-07
1.26827e-07
1.26906e-07
1.26986e-07
1.27054e-07
1.27125e-07
1.27185e-07
1.27247e-07
1.27298e-07
1.27355e-07
1.27401e-07
1.27451e-07
1.2749e-07
1.27534e-07
1.27571e-07
1.27612e-07
1.27643e-07
1.2768e-07
1.27711e-07
1.27743e-07
1.27768e-07
1.27801e-07
1.27824e-07
1.27851e-07
1.27871e-07
1.27895e-07
1.27916e-07
1.27939e-07
1.27956e-07
1.27977e-07
1.27996e-07
1.28014e-07
1.28028e-07
1.28047e-07
1.28061e-07
1.2807e-07
1.28083e-07
1.2809e-07
1.28103e-07
1.28104e-07
1.28114e-07
1.28121e-07
1.28147e-07
1.28173e-07
1.28193e-07
1.28205e-07
1.2823e-07
1.28244e-07
1.2827e-07
1.2829e-07
1.28319e-07
1.28342e-07
1.2837e-07
1.28384e-07
1.2841e-07
1.28424e-07
1.28448e-07
1.28464e-07
1.28485e-07
1.28503e-07
1.28523e-07
1.28544e-07
1.28565e-07
1.28585e-07
1.28609e-07
1.2863e-07
1.2866e-07
1.28682e-07
1.2872e-07
1.28757e-07
1.30013e-07
1.33778e-07
1.7933e-08
1.23899e-07
1.22932e-07
1.22467e-07
1.22427e-07
1.22643e-07
1.22962e-07
1.23323e-07
1.23671e-07
1.24011e-07
1.24317e-07
1.24608e-07
1.24864e-07
1.25108e-07
1.25321e-07
1.25526e-07
1.25703e-07
1.25875e-07
1.26024e-07
1.2617e-07
1.26295e-07
1.2642e-07
1.26526e-07
1.26634e-07
1.26725e-07
1.26818e-07
1.26896e-07
1.26977e-07
1.27045e-07
1.27116e-07
1.27176e-07
1.27238e-07
1.27289e-07
1.27346e-07
1.27393e-07
1.27442e-07
1.27481e-07
1.27526e-07
1.27563e-07
1.27603e-07
1.27635e-07
1.27671e-07
1.27703e-07
1.27735e-07
1.2776e-07
1.27792e-07
1.27816e-07
1.27843e-07
1.27863e-07
1.27887e-07
1.27908e-07
1.27931e-07
1.27948e-07
1.27969e-07
1.27988e-07
1.28006e-07
1.2802e-07
1.28039e-07
1.28053e-07
1.28062e-07
1.28076e-07
1.28083e-07
1.28096e-07
1.28096e-07
1.28106e-07
1.28114e-07
1.28139e-07
1.28165e-07
1.28185e-07
1.28197e-07
1.28222e-07
1.28236e-07
1.28262e-07
1.28282e-07
1.28311e-07
1.28334e-07
1.28362e-07
1.28376e-07
1.28402e-07
1.28416e-07
1.2844e-07
1.28456e-07
1.28477e-07
1.28495e-07
1.28515e-07
1.28536e-07
1.28557e-07
1.28578e-07
1.28601e-07
1.28622e-07
1.28652e-07
1.28674e-07
1.28712e-07
1.28749e-07
1.30026e-07
1.33779e-07
1.87311e-08
1.23899e-07
1.22932e-07
1.22465e-07
1.22422e-07
1.22636e-07
1.22954e-07
1.23313e-07
1.23661e-07
1.24e-07
1.24306e-07
1.24597e-07
1.24853e-07
1.25097e-07
1.2531e-07
1.25514e-07
1.25692e-07
1.25864e-07
1.26013e-07
1.26159e-07
1.26284e-07
1.26409e-07
1.26516e-07
1.26623e-07
1.26714e-07
1.26808e-07
1.26886e-07
1.26967e-07
1.27035e-07
1.27106e-07
1.27165e-07
1.27228e-07
1.27279e-07
1.27336e-07
1.27383e-07
1.27432e-07
1.27471e-07
1.27516e-07
1.27553e-07
1.27593e-07
1.27625e-07
1.27662e-07
1.27693e-07
1.27725e-07
1.2775e-07
1.27783e-07
1.27806e-07
1.27833e-07
1.27854e-07
1.27878e-07
1.27899e-07
1.27922e-07
1.27939e-07
1.27959e-07
1.27979e-07
1.27997e-07
1.28011e-07
1.2803e-07
1.28044e-07
1.28053e-07
1.28067e-07
1.28074e-07
1.28087e-07
1.28087e-07
1.28097e-07
1.28105e-07
1.2813e-07
1.28156e-07
1.28176e-07
1.28188e-07
1.28213e-07
1.28227e-07
1.28252e-07
1.28272e-07
1.28301e-07
1.28325e-07
1.28353e-07
1.28367e-07
1.28392e-07
1.28407e-07
1.28431e-07
1.28447e-07
1.28468e-07
1.28486e-07
1.28506e-07
1.28527e-07
1.28548e-07
1.28569e-07
1.28592e-07
1.28613e-07
1.28643e-07
1.28665e-07
1.28702e-07
1.2874e-07
1.3004e-07
1.33782e-07
1.958e-08
1.239e-07
1.22932e-07
1.22462e-07
1.22417e-07
1.22629e-07
1.22945e-07
1.23303e-07
1.2365e-07
1.23989e-07
1.24294e-07
1.24584e-07
1.2484e-07
1.25084e-07
1.25297e-07
1.25502e-07
1.25679e-07
1.25852e-07
1.26e-07
1.26146e-07
1.26271e-07
1.26397e-07
1.26503e-07
1.26611e-07
1.26702e-07
1.26796e-07
1.26874e-07
1.26955e-07
1.27023e-07
1.27094e-07
1.27154e-07
1.27217e-07
1.27268e-07
1.27325e-07
1.27371e-07
1.27421e-07
1.2746e-07
1.27505e-07
1.27542e-07
1.27582e-07
1.27614e-07
1.27651e-07
1.27683e-07
1.27714e-07
1.27739e-07
1.27772e-07
1.27795e-07
1.27823e-07
1.27843e-07
1.27867e-07
1.27888e-07
1.27911e-07
1.27929e-07
1.27949e-07
1.27969e-07
1.27987e-07
1.28001e-07
1.28019e-07
1.28034e-07
1.28043e-07
1.28057e-07
1.28064e-07
1.28077e-07
1.28077e-07
1.28087e-07
1.28095e-07
1.2812e-07
1.28146e-07
1.28166e-07
1.28178e-07
1.28203e-07
1.28216e-07
1.28242e-07
1.28262e-07
1.28291e-07
1.28314e-07
1.28342e-07
1.28357e-07
1.28382e-07
1.28397e-07
1.28421e-07
1.28437e-07
1.28458e-07
1.28476e-07
1.28496e-07
1.28517e-07
1.28538e-07
1.28558e-07
1.28582e-07
1.28603e-07
1.28633e-07
1.28655e-07
1.28692e-07
1.2873e-07
1.30058e-07
1.33784e-07
2.04794e-08
1.239e-07
1.22932e-07
1.2246e-07
1.22411e-07
1.2262e-07
1.22934e-07
1.23291e-07
1.23637e-07
1.23975e-07
1.2428e-07
1.2457e-07
1.24826e-07
1.2507e-07
1.25283e-07
1.25487e-07
1.25665e-07
1.25837e-07
1.25986e-07
1.26132e-07
1.26258e-07
1.26383e-07
1.26489e-07
1.26597e-07
1.26688e-07
1.26782e-07
1.26861e-07
1.26942e-07
1.2701e-07
1.27081e-07
1.27141e-07
1.27204e-07
1.27255e-07
1.27312e-07
1.27359e-07
1.27408e-07
1.27448e-07
1.27492e-07
1.27529e-07
1.2757e-07
1.27602e-07
1.27638e-07
1.2767e-07
1.27702e-07
1.27727e-07
1.2776e-07
1.27783e-07
1.27811e-07
1.27831e-07
1.27855e-07
1.27876e-07
1.279e-07
1.27917e-07
1.27937e-07
1.27957e-07
1.27975e-07
1.27989e-07
1.28008e-07
1.28023e-07
1.28032e-07
1.28045e-07
1.28052e-07
1.28066e-07
1.28066e-07
1.28076e-07
1.28083e-07
1.28109e-07
1.28135e-07
1.28154e-07
1.28166e-07
1.28191e-07
1.28205e-07
1.2823e-07
1.2825e-07
1.28279e-07
1.28302e-07
1.2833e-07
1.28345e-07
1.2837e-07
1.28385e-07
1.2841e-07
1.28425e-07
1.28447e-07
1.28465e-07
1.28485e-07
1.28506e-07
1.28526e-07
1.28547e-07
1.28571e-07
1.28591e-07
1.28622e-07
1.28643e-07
1.28681e-07
1.28719e-07
1.30078e-07
1.33787e-07
2.14283e-08
1.23901e-07
1.22932e-07
1.22457e-07
1.22405e-07
1.22611e-07
1.22922e-07
1.23278e-07
1.23623e-07
1.2396e-07
1.24265e-07
1.24554e-07
1.2481e-07
1.25054e-07
1.25267e-07
1.25471e-07
1.25649e-07
1.25822e-07
1.2597e-07
1.26117e-07
1.26242e-07
1.26368e-07
1.26474e-07
1.26582e-07
1.26673e-07
1.26767e-07
1.26846e-07
1.26927e-07
1.26995e-07
1.27067e-07
1.27126e-07
1.27189e-07
1.27241e-07
1.27298e-07
1.27345e-07
1.27395e-07
1.27434e-07
1.27479e-07
1.27516e-07
1.27556e-07
1.27588e-07
1.27625e-07
1.27657e-07
1.27689e-07
1.27714e-07
1.27747e-07
1.2777e-07
1.27798e-07
1.27818e-07
1.27842e-07
1.27863e-07
1.27887e-07
1.27904e-07
1.27924e-07
1.27944e-07
1.27963e-07
1.27977e-07
1.27995e-07
1.2801e-07
1.28019e-07
1.28033e-07
1.2804e-07
1.28053e-07
1.28054e-07
1.28064e-07
1.28071e-07
1.28096e-07
1.28122e-07
1.28141e-07
1.28154e-07
1.28178e-07
1.28192e-07
1.28217e-07
1.28237e-07
1.28266e-07
1.28289e-07
1.28317e-07
1.28332e-07
1.28358e-07
1.28373e-07
1.28397e-07
1.28413e-07
1.28434e-07
1.28452e-07
1.28472e-07
1.28493e-07
1.28514e-07
1.28535e-07
1.28558e-07
1.28579e-07
1.28609e-07
1.28631e-07
1.28668e-07
1.28707e-07
1.30102e-07
1.33791e-07
2.24255e-08
1.23902e-07
1.22931e-07
1.22453e-07
1.22398e-07
1.226e-07
1.2291e-07
1.23263e-07
1.23607e-07
1.23944e-07
1.24248e-07
1.24537e-07
1.24793e-07
1.25036e-07
1.25249e-07
1.25454e-07
1.25631e-07
1.25804e-07
1.25953e-07
1.261e-07
1.26225e-07
1.26351e-07
1.26457e-07
1.26566e-07
1.26657e-07
1.26751e-07
1.2683e-07
1.26911e-07
1.26979e-07
1.27051e-07
1.27111e-07
1.27174e-07
1.27225e-07
1.27283e-07
1.27329e-07
1.27379e-07
1.27419e-07
1.27463e-07
1.275e-07
1.27541e-07
1.27573e-07
1.2761e-07
1.27642e-07
1.27674e-07
1.27699e-07
1.27732e-07
1.27756e-07
1.27783e-07
1.27804e-07
1.27828e-07
1.27849e-07
1.27872e-07
1.2789e-07
1.2791e-07
1.2793e-07
1.27949e-07
1.27963e-07
1.27981e-07
1.27996e-07
1.28006e-07
1.28019e-07
1.28026e-07
1.2804e-07
1.28041e-07
1.2805e-07
1.28057e-07
1.28082e-07
1.28109e-07
1.28127e-07
1.2814e-07
1.28164e-07
1.28178e-07
1.28203e-07
1.28223e-07
1.28252e-07
1.28275e-07
1.28303e-07
1.28318e-07
1.28344e-07
1.28359e-07
1.28383e-07
1.28399e-07
1.2842e-07
1.28438e-07
1.28459e-07
1.28479e-07
1.285e-07
1.28521e-07
1.28545e-07
1.28565e-07
1.28595e-07
1.28617e-07
1.28654e-07
1.28693e-07
1.30129e-07
1.33795e-07
2.34737e-08
1.23902e-07
1.22931e-07
1.2245e-07
1.2239e-07
1.22589e-07
1.22896e-07
1.23248e-07
1.2359e-07
1.23926e-07
1.24229e-07
1.24518e-07
1.24773e-07
1.25017e-07
1.2523e-07
1.25435e-07
1.25612e-07
1.25785e-07
1.25934e-07
1.26081e-07
1.26206e-07
1.26332e-07
1.26439e-07
1.26547e-07
1.26639e-07
1.26733e-07
1.26812e-07
1.26893e-07
1.26962e-07
1.27033e-07
1.27093e-07
1.27157e-07
1.27208e-07
1.27266e-07
1.27312e-07
1.27362e-07
1.27402e-07
1.27447e-07
1.27484e-07
1.27525e-07
1.27557e-07
1.27594e-07
1.27626e-07
1.27658e-07
1.27683e-07
1.27716e-07
1.2774e-07
1.27767e-07
1.27788e-07
1.27812e-07
1.27833e-07
1.27857e-07
1.27874e-07
1.27895e-07
1.27914e-07
1.27933e-07
1.27947e-07
1.27966e-07
1.27981e-07
1.2799e-07
1.28004e-07
1.28011e-07
1.28025e-07
1.28026e-07
1.28036e-07
1.28042e-07
1.28067e-07
1.28094e-07
1.28112e-07
1.28125e-07
1.28149e-07
1.28162e-07
1.28188e-07
1.28207e-07
1.28236e-07
1.28259e-07
1.28287e-07
1.28303e-07
1.28328e-07
1.28343e-07
1.28368e-07
1.28383e-07
1.28405e-07
1.28423e-07
1.28444e-07
1.28464e-07
1.28485e-07
1.28506e-07
1.28529e-07
1.2855e-07
1.2858e-07
1.28602e-07
1.28639e-07
1.28678e-07
1.30159e-07
1.33798e-07
2.45761e-08
1.23903e-07
1.22931e-07
1.22446e-07
1.22382e-07
1.22577e-07
1.22881e-07
1.23231e-07
1.23572e-07
1.23906e-07
1.24209e-07
1.24498e-07
1.24753e-07
1.24996e-07
1.25209e-07
1.25414e-07
1.25591e-07
1.25765e-07
1.25913e-07
1.2606e-07
1.26186e-07
1.26312e-07
1.26419e-07
1.26528e-07
1.26619e-07
1.26713e-07
1.26792e-07
1.26874e-07
1.26943e-07
1.27014e-07
1.27074e-07
1.27138e-07
1.27189e-07
1.27247e-07
1.27294e-07
1.27344e-07
1.27384e-07
1.27429e-07
1.27466e-07
1.27507e-07
1.27539e-07
1.27576e-07
1.27608e-07
1.2764e-07
1.27666e-07
1.27699e-07
1.27722e-07
1.2775e-07
1.27771e-07
1.27795e-07
1.27816e-07
1.2784e-07
1.27858e-07
1.27878e-07
1.27898e-07
1.27917e-07
1.27931e-07
1.27949e-07
1.27965e-07
1.27974e-07
1.27988e-07
1.27995e-07
1.28009e-07
1.2801e-07
1.2802e-07
1.28026e-07
1.28051e-07
1.28077e-07
1.28095e-07
1.28108e-07
1.28132e-07
1.28146e-07
1.28171e-07
1.28191e-07
1.28219e-07
1.28242e-07
1.2827e-07
1.28286e-07
1.28311e-07
1.28327e-07
1.28351e-07
1.28367e-07
1.28389e-07
1.28407e-07
1.28427e-07
1.28448e-07
1.28468e-07
1.28489e-07
1.28513e-07
1.28534e-07
1.28564e-07
1.28585e-07
1.28622e-07
1.28662e-07
1.30193e-07
1.33802e-07
2.57361e-08
1.23904e-07
1.22931e-07
1.22442e-07
1.22373e-07
1.22564e-07
1.22864e-07
1.23212e-07
1.23552e-07
1.23885e-07
1.24187e-07
1.24476e-07
1.2473e-07
1.24974e-07
1.25186e-07
1.25391e-07
1.25569e-07
1.25742e-07
1.25891e-07
1.26038e-07
1.26164e-07
1.2629e-07
1.26397e-07
1.26506e-07
1.26598e-07
1.26692e-07
1.26771e-07
1.26853e-07
1.26922e-07
1.26994e-07
1.27054e-07
1.27118e-07
1.27169e-07
1.27227e-07
1.27274e-07
1.27324e-07
1.27364e-07
1.27409e-07
1.27447e-07
1.27488e-07
1.2752e-07
1.27557e-07
1.27589e-07
1.27622e-07
1.27647e-07
1.2768e-07
1.27704e-07
1.27732e-07
1.27753e-07
1.27777e-07
1.27798e-07
1.27822e-07
1.27839e-07
1.2786e-07
1.2788e-07
1.27899e-07
1.27913e-07
1.27931e-07
1.27947e-07
1.27956e-07
1.2797e-07
1.27977e-07
1.27991e-07
1.27992e-07
1.28002e-07
1.28008e-07
1.28033e-07
1.28059e-07
1.28077e-07
1.2809e-07
1.28114e-07
1.28127e-07
1.28153e-07
1.28172e-07
1.28201e-07
1.28223e-07
1.28252e-07
1.28268e-07
1.28293e-07
1.28309e-07
1.28333e-07
1.28349e-07
1.28371e-07
1.28389e-07
1.2841e-07
1.2843e-07
1.28451e-07
1.28472e-07
1.28495e-07
1.28516e-07
1.28546e-07
1.28567e-07
1.28604e-07
1.28645e-07
1.3023e-07
1.33806e-07
2.6957e-08
1.23905e-07
1.22931e-07
1.22438e-07
1.22363e-07
1.2255e-07
1.22847e-07
1.23192e-07
1.2353e-07
1.23863e-07
1.24164e-07
1.24452e-07
1.24706e-07
1.24949e-07
1.25162e-07
1.25367e-07
1.25544e-07
1.25718e-07
1.25867e-07
1.26014e-07
1.2614e-07
1.26267e-07
1.26374e-07
1.26483e-07
1.26575e-07
1.26669e-07
1.26749e-07
1.26831e-07
1.26899e-07
1.26972e-07
1.27032e-07
1.27096e-07
1.27148e-07
1.27206e-07
1.27252e-07
1.27303e-07
1.27343e-07
1.27388e-07
1.27426e-07
1.27467e-07
1.27499e-07
1.27536e-07
1.27569e-07
1.27601e-07
1.27627e-07
1.2766e-07
1.27684e-07
1.27712e-07
1.27733e-07
1.27757e-07
1.27778e-07
1.27802e-07
1.2782e-07
1.2784e-07
1.2786e-07
1.27879e-07
1.27893e-07
1.27912e-07
1.27928e-07
1.27937e-07
1.27951e-07
1.27959e-07
1.27972e-07
1.27974e-07
1.27984e-07
1.27989e-07
1.28014e-07
1.2804e-07
1.28058e-07
1.28071e-07
1.28094e-07
1.28108e-07
1.28133e-07
1.28153e-07
1.28181e-07
1.28204e-07
1.28232e-07
1.28248e-07
1.28274e-07
1.28289e-07
1.28314e-07
1.28329e-07
1.28352e-07
1.2837e-07
1.28391e-07
1.28411e-07
1.28432e-07
1.28453e-07
1.28476e-07
1.28497e-07
1.28527e-07
1.28548e-07
1.28585e-07
1.28627e-07
1.30271e-07
1.33808e-07
2.82427e-08
1.23905e-07
1.22931e-07
1.22433e-07
1.22353e-07
1.22535e-07
1.22828e-07
1.23171e-07
1.23507e-07
1.23838e-07
1.24138e-07
1.24426e-07
1.2468e-07
1.24923e-07
1.25136e-07
1.25341e-07
1.25518e-07
1.25692e-07
1.25841e-07
1.25989e-07
1.26115e-07
1.26241e-07
1.26349e-07
1.26458e-07
1.2655e-07
1.26645e-07
1.26724e-07
1.26806e-07
1.26875e-07
1.26948e-07
1.27008e-07
1.27072e-07
1.27124e-07
1.27182e-07
1.27229e-07
1.2728e-07
1.2732e-07
1.27366e-07
1.27403e-07
1.27445e-07
1.27477e-07
1.27514e-07
1.27547e-07
1.27579e-07
1.27605e-07
1.27638e-07
1.27662e-07
1.2769e-07
1.27711e-07
1.27735e-07
1.27757e-07
1.27781e-07
1.27799e-07
1.27819e-07
1.27839e-07
1.27858e-07
1.27873e-07
1.27891e-07
1.27907e-07
1.27917e-07
1.27931e-07
1.27938e-07
1.27952e-07
1.27954e-07
1.27964e-07
1.27969e-07
1.27994e-07
1.2802e-07
1.28037e-07
1.2805e-07
1.28073e-07
1.28087e-07
1.28112e-07
1.28132e-07
1.2816e-07
1.28182e-07
1.28211e-07
1.28227e-07
1.28253e-07
1.28268e-07
1.28293e-07
1.28309e-07
1.28331e-07
1.28349e-07
1.2837e-07
1.2839e-07
1.28411e-07
1.28432e-07
1.28456e-07
1.28476e-07
1.28506e-07
1.28528e-07
1.28564e-07
1.28607e-07
1.30315e-07
1.3381e-07
2.95969e-08
1.23906e-07
1.22931e-07
1.22428e-07
1.22342e-07
1.22519e-07
1.22808e-07
1.23148e-07
1.23482e-07
1.23812e-07
1.24112e-07
1.24398e-07
1.24652e-07
1.24895e-07
1.25107e-07
1.25313e-07
1.2549e-07
1.25664e-07
1.25813e-07
1.25961e-07
1.26087e-07
1.26214e-07
1.26322e-07
1.26431e-07
1.26523e-07
1.26619e-07
1.26698e-07
1.26781e-07
1.2685e-07
1.26922e-07
1.26983e-07
1.27047e-07
1.27099e-07
1.27158e-07
1.27205e-07
1.27256e-07
1.27296e-07
1.27341e-07
1.27379e-07
1.27421e-07
1.27453e-07
1.2749e-07
1.27523e-07
1.27556e-07
1.27581e-07
1.27615e-07
1.27639e-07
1.27667e-07
1.27688e-07
1.27713e-07
1.27734e-07
1.27758e-07
1.27776e-07
1.27797e-07
1.27816e-07
1.27836e-07
1.2785e-07
1.27869e-07
1.27885e-07
1.27895e-07
1.27909e-07
1.27916e-07
1.2793e-07
1.27932e-07
1.27942e-07
1.27947e-07
1.27972e-07
1.27998e-07
1.28014e-07
1.28028e-07
1.28051e-07
1.28065e-07
1.2809e-07
1.28109e-07
1.28137e-07
1.28159e-07
1.28188e-07
1.28204e-07
1.2823e-07
1.28246e-07
1.28271e-07
1.28287e-07
1.28309e-07
1.28327e-07
1.28348e-07
1.28368e-07
1.28389e-07
1.2841e-07
1.28434e-07
1.28454e-07
1.28484e-07
1.28505e-07
1.28542e-07
1.28586e-07
1.30364e-07
1.3381e-07
3.10235e-08
1.23907e-07
1.2293e-07
1.22423e-07
1.22331e-07
1.22502e-07
1.22787e-07
1.23124e-07
1.23456e-07
1.23785e-07
1.24083e-07
1.24369e-07
1.24622e-07
1.24865e-07
1.25078e-07
1.25283e-07
1.2546e-07
1.25634e-07
1.25784e-07
1.25932e-07
1.26058e-07
1.26185e-07
1.26293e-07
1.26403e-07
1.26495e-07
1.26591e-07
1.2667e-07
1.26753e-07
1.26822e-07
1.26895e-07
1.26956e-07
1.2702e-07
1.27073e-07
1.27131e-07
1.27178e-07
1.2723e-07
1.2727e-07
1.27316e-07
1.27353e-07
1.27395e-07
1.27428e-07
1.27465e-07
1.27498e-07
1.27531e-07
1.27556e-07
1.2759e-07
1.27614e-07
1.27642e-07
1.27664e-07
1.27688e-07
1.2771e-07
1.27734e-07
1.27752e-07
1.27773e-07
1.27793e-07
1.27812e-07
1.27827e-07
1.27845e-07
1.27861e-07
1.27871e-07
1.27885e-07
1.27893e-07
1.27907e-07
1.27909e-07
1.27919e-07
1.27924e-07
1.27949e-07
1.27975e-07
1.27991e-07
1.28005e-07
1.28027e-07
1.28041e-07
1.28066e-07
1.28085e-07
1.28113e-07
1.28135e-07
1.28164e-07
1.2818e-07
1.28206e-07
1.28222e-07
1.28247e-07
1.28263e-07
1.28286e-07
1.28303e-07
1.28325e-07
1.28345e-07
1.28366e-07
1.28387e-07
1.2841e-07
1.28431e-07
1.28461e-07
1.28482e-07
1.28518e-07
1.28563e-07
1.30416e-07
1.33807e-07
3.25266e-08
1.23908e-07
1.2293e-07
1.22418e-07
1.22319e-07
1.22484e-07
1.22765e-07
1.23098e-07
1.23428e-07
1.23755e-07
1.24052e-07
1.24338e-07
1.24591e-07
1.24834e-07
1.25046e-07
1.25251e-07
1.25429e-07
1.25603e-07
1.25752e-07
1.25901e-07
1.26027e-07
1.26155e-07
1.26263e-07
1.26372e-07
1.26465e-07
1.26561e-07
1.26641e-07
1.26724e-07
1.26793e-07
1.26866e-07
1.26927e-07
1.26992e-07
1.27044e-07
1.27103e-07
1.2715e-07
1.27202e-07
1.27242e-07
1.27288e-07
1.27326e-07
1.27368e-07
1.27401e-07
1.27438e-07
1.27471e-07
1.27504e-07
1.2753e-07
1.27564e-07
1.27588e-07
1.27616e-07
1.27638e-07
1.27662e-07
1.27684e-07
1.27708e-07
1.27726e-07
1.27747e-07
1.27767e-07
1.27787e-07
1.27801e-07
1.2782e-07
1.27836e-07
1.27846e-07
1.27861e-07
1.27868e-07
1.27883e-07
1.27885e-07
1.27895e-07
1.27899e-07
1.27924e-07
1.2795e-07
1.27965e-07
1.2798e-07
1.28002e-07
1.28016e-07
1.28041e-07
1.28059e-07
1.28087e-07
1.28109e-07
1.28138e-07
1.28154e-07
1.28181e-07
1.28197e-07
1.28222e-07
1.28238e-07
1.28261e-07
1.28278e-07
1.283e-07
1.2832e-07
1.28341e-07
1.28362e-07
1.28386e-07
1.28406e-07
1.28436e-07
1.28457e-07
1.28493e-07
1.28539e-07
1.30472e-07
1.33802e-07
3.411e-08
1.23909e-07
1.2293e-07
1.22412e-07
1.22306e-07
1.22465e-07
1.22741e-07
1.23071e-07
1.23398e-07
1.23724e-07
1.2402e-07
1.24305e-07
1.24557e-07
1.248e-07
1.25012e-07
1.25217e-07
1.25395e-07
1.25569e-07
1.25719e-07
1.25868e-07
1.25994e-07
1.26122e-07
1.2623e-07
1.2634e-07
1.26433e-07
1.26529e-07
1.26609e-07
1.26692e-07
1.26762e-07
1.26835e-07
1.26896e-07
1.26961e-07
1.27014e-07
1.27073e-07
1.2712e-07
1.27172e-07
1.27213e-07
1.27259e-07
1.27297e-07
1.27339e-07
1.27372e-07
1.2741e-07
1.27442e-07
1.27476e-07
1.27502e-07
1.27535e-07
1.2756e-07
1.27588e-07
1.2761e-07
1.27635e-07
1.27656e-07
1.27681e-07
1.27699e-07
1.2772e-07
1.2774e-07
1.2776e-07
1.27774e-07
1.27793e-07
1.2781e-07
1.2782e-07
1.27834e-07
1.27842e-07
1.27856e-07
1.27859e-07
1.27869e-07
1.27873e-07
1.27897e-07
1.27923e-07
1.27939e-07
1.27953e-07
1.27975e-07
1.27989e-07
1.28014e-07
1.28032e-07
1.2806e-07
1.28082e-07
1.2811e-07
1.28127e-07
1.28153e-07
1.2817e-07
1.28195e-07
1.28211e-07
1.28235e-07
1.28251e-07
1.28274e-07
1.28293e-07
1.28315e-07
1.28336e-07
1.28359e-07
1.2838e-07
1.2841e-07
1.2843e-07
1.28466e-07
1.28514e-07
1.30531e-07
1.28477e-07
3.57776e-08
1.23911e-07
1.2293e-07
1.22407e-07
1.22293e-07
1.22446e-07
1.22716e-07
1.23043e-07
1.23367e-07
1.23691e-07
1.23986e-07
1.2427e-07
1.24522e-07
1.24764e-07
1.24976e-07
1.25181e-07
1.25359e-07
1.25534e-07
1.25684e-07
1.25832e-07
1.25959e-07
1.26087e-07
1.26196e-07
1.26306e-07
1.26399e-07
1.26495e-07
1.26576e-07
1.26659e-07
1.26729e-07
1.26803e-07
1.26864e-07
1.26929e-07
1.26982e-07
1.27041e-07
1.27089e-07
1.27141e-07
1.27181e-07
1.27228e-07
1.27266e-07
1.27308e-07
1.27341e-07
1.27379e-07
1.27412e-07
1.27446e-07
1.27472e-07
1.27506e-07
1.2753e-07
1.27559e-07
1.27581e-07
1.27605e-07
1.27627e-07
1.27652e-07
1.2767e-07
1.27691e-07
1.27711e-07
1.27731e-07
1.27746e-07
1.27765e-07
1.27781e-07
1.27792e-07
1.27806e-07
1.27814e-07
1.27829e-07
1.27832e-07
1.27842e-07
1.27845e-07
1.27869e-07
1.27896e-07
1.2791e-07
1.27925e-07
1.27946e-07
1.27961e-07
1.27985e-07
1.28003e-07
1.28031e-07
1.28053e-07
1.28081e-07
1.28098e-07
1.28124e-07
1.28141e-07
1.28167e-07
1.28182e-07
1.28206e-07
1.28223e-07
1.28246e-07
1.28265e-07
1.28287e-07
1.28308e-07
1.28331e-07
1.28352e-07
1.28382e-07
1.28402e-07
1.28437e-07
1.28487e-07
1.30593e-07
1.23009e-07
3.75328e-08
1.23912e-07
1.2293e-07
1.22401e-07
1.22279e-07
1.22425e-07
1.2269e-07
1.23013e-07
1.23335e-07
1.23656e-07
1.2395e-07
1.24233e-07
1.24485e-07
1.24727e-07
1.24938e-07
1.25144e-07
1.25321e-07
1.25496e-07
1.25646e-07
1.25795e-07
1.25922e-07
1.26051e-07
1.26159e-07
1.2627e-07
1.26363e-07
1.2646e-07
1.2654e-07
1.26624e-07
1.26694e-07
1.26768e-07
1.2683e-07
1.26895e-07
1.26948e-07
1.27007e-07
1.27055e-07
1.27108e-07
1.27148e-07
1.27195e-07
1.27233e-07
1.27276e-07
1.27309e-07
1.27347e-07
1.2738e-07
1.27414e-07
1.2744e-07
1.27474e-07
1.27499e-07
1.27528e-07
1.2755e-07
1.27575e-07
1.27596e-07
1.27621e-07
1.27639e-07
1.27661e-07
1.27681e-07
1.27701e-07
1.27716e-07
1.27735e-07
1.27751e-07
1.27762e-07
1.27777e-07
1.27785e-07
1.27799e-07
1.27803e-07
1.27813e-07
1.27816e-07
1.2784e-07
1.27866e-07
1.2788e-07
1.27895e-07
1.27916e-07
1.27931e-07
1.27955e-07
1.27973e-07
1.28e-07
1.28022e-07
1.28051e-07
1.28067e-07
1.28094e-07
1.28111e-07
1.28137e-07
1.28152e-07
1.28177e-07
1.28193e-07
1.28216e-07
1.28235e-07
1.28257e-07
1.28278e-07
1.28301e-07
1.28322e-07
1.28352e-07
1.28372e-07
1.28407e-07
1.28458e-07
1.30657e-07
1.18115e-07
3.93785e-08
1.23913e-07
1.2293e-07
1.22394e-07
1.22265e-07
1.22403e-07
1.22663e-07
1.22981e-07
1.233e-07
1.2362e-07
1.23912e-07
1.24195e-07
1.24445e-07
1.24687e-07
1.24898e-07
1.25104e-07
1.25282e-07
1.25457e-07
1.25607e-07
1.25756e-07
1.25883e-07
1.26012e-07
1.26121e-07
1.26232e-07
1.26325e-07
1.26422e-07
1.26503e-07
1.26587e-07
1.26658e-07
1.26732e-07
1.26793e-07
1.26859e-07
1.26912e-07
1.26972e-07
1.2702e-07
1.27073e-07
1.27114e-07
1.2716e-07
1.27199e-07
1.27242e-07
1.27275e-07
1.27313e-07
1.27346e-07
1.2738e-07
1.27407e-07
1.27441e-07
1.27466e-07
1.27495e-07
1.27517e-07
1.27542e-07
1.27564e-07
1.27588e-07
1.27607e-07
1.27628e-07
1.27649e-07
1.27669e-07
1.27684e-07
1.27703e-07
1.2772e-07
1.27731e-07
1.27745e-07
1.27754e-07
1.27768e-07
1.27772e-07
1.27782e-07
1.27785e-07
1.27809e-07
1.27835e-07
1.27849e-07
1.27864e-07
1.27884e-07
1.27899e-07
1.27923e-07
1.27941e-07
1.27968e-07
1.2799e-07
1.28018e-07
1.28035e-07
1.28062e-07
1.28079e-07
1.28105e-07
1.2812e-07
1.28145e-07
1.28161e-07
1.28185e-07
1.28204e-07
1.28226e-07
1.28247e-07
1.2827e-07
1.28291e-07
1.28321e-07
1.28341e-07
1.28375e-07
1.28428e-07
1.30722e-07
1.13738e-07
4.13167e-08
1.23914e-07
1.2293e-07
1.22388e-07
1.2225e-07
1.22381e-07
1.22634e-07
1.22948e-07
1.23264e-07
1.23582e-07
1.23872e-07
1.24154e-07
1.24404e-07
1.24645e-07
1.24856e-07
1.25062e-07
1.2524e-07
1.25415e-07
1.25565e-07
1.25715e-07
1.25842e-07
1.25971e-07
1.2608e-07
1.26192e-07
1.26285e-07
1.26383e-07
1.26464e-07
1.26548e-07
1.26619e-07
1.26693e-07
1.26755e-07
1.26821e-07
1.26875e-07
1.26934e-07
1.26983e-07
1.27036e-07
1.27077e-07
1.27124e-07
1.27162e-07
1.27205e-07
1.27239e-07
1.27277e-07
1.27311e-07
1.27345e-07
1.27371e-07
1.27406e-07
1.27431e-07
1.2746e-07
1.27482e-07
1.27507e-07
1.27529e-07
1.27554e-07
1.27573e-07
1.27594e-07