/*--------------------------------*- C++ -*----------------------------------*\
| =========                 |                                                 |
| \\      /  F ield         | OpenFOAM: The Open Source CFD Toolbox           |
|  \\    /   O peration     | Version:  v2012                                 |
|   \\  /    A nd           | Website:  www.openfoam.com                      |
|    \\/     M anipulation  |                                                 |
\*---------------------------------------------------------------------------*/
FoamFile
{
    version     2.0;
    format      ascii;
    class       volScalarField;
    location    "32";
    object      omega;
}
// * * * * * * * * * * * * * * * * * * * * * * * * * * * * * * * * * * * * * //

dimensions      [0 0 -1 0 0 0 0];


internalField   nonuniform List<scalar> 
209825
(
8260.01
7562.53
7003.86
6572.25
6242.57
5989.77
5792.58
5636.51
5510.37
5407.36
5321.55
5249.79
5188.56
5136.45
5091.11
5052.04
5017.46
4987.4
4960.4
4936.78
4915.27
4896.4
4878.97
4863.66
4849.35
4836.8
4824.9
4814.47
4804.47
4795.77
4787.28
4779.95
4772.7
4766.48
4760.25
4754.97
4749.59
4745.06
4740.37
4736.5
4732.45
4729.06
4725.53
4722.66
4719.54
4717.03
4714.27
4712.12
4709.77
4707.9
4705.93
4704.36
4702.55
4701.08
4699.63
4698.33
4697.03
4695.89
4694.85
4694.02
4693.16
4692.36
4691.68
4691.11
4690.39
4689.89
4689.35
4689.08
4688.65
4688.43
4687.98
4687.75
4687.3
4687.12
4686.7
4686.71
4686.64
4686.75
4686.75
4687.05
4687.05
4687.57
4687.57
4688.31
4688.31
4689.19
4689.3
4690.29
4690.48
4691.64
4691.78
4693.33
4693.92
4726.06
4846.13
113529
8260.01
7562.53
7003.86
6572.23
6242.55
5989.74
5792.53
5636.45
5510.3
5407.28
5321.46
5249.7
5188.45
5136.35
5090.99
5051.92
5017.34
4987.28
4960.27
4936.65
4915.14
4896.27
4878.84
4863.52
4849.21
4836.66
4824.75
4814.33
4804.33
4795.62
4787.14
4779.8
4772.55
4766.33
4760.1
4754.82
4749.44
4744.91
4740.22
4736.35
4732.3
4728.9
4725.37
4722.51
4719.38
4716.88
4714.12
4711.96
4709.62
4707.75
4705.77
4704.21
4702.4
4700.92
4699.47
4698.17
4696.87
4695.73
4694.69
4693.87
4693
4692.2
4691.52
4690.95
4690.23
4689.73
4689.19
4688.92
4688.49
4688.26
4687.82
4687.59
4687.14
4686.96
4686.54
4686.55
4686.48
4686.59
4686.59
4686.89
4686.89
4687.4
4687.4
4688.14
4688.15
4689.03
4689.13
4690.12
4690.32
4691.47
4691.61
4693.17
4693.75
4725.95
4845.99
110231
8260.01
7562.54
7003.85
6572.19
6242.45
5989.59
5792.34
5636.22
5510.04
5407
5321.15
5249.36
5188.1
5135.98
5090.61
5051.53
5016.93
4986.87
4959.85
4936.22
4914.7
4895.82
4878.39
4863.07
4848.75
4836.19
4824.28
4813.85
4803.85
4795.14
4786.65
4779.32
4772.06
4765.84
4759.6
4754.32
4748.94
4744.41
4739.72
4735.84
4731.79
4728.4
4724.87
4722
4718.87
4716.36
4713.61
4711.45
4709.1
4707.23
4705.25
4703.69
4701.88
4700.4
4698.95
4697.65
4696.35
4695.21
4694.17
4693.34
4692.47
4691.68
4690.99
4690.43
4689.7
4689.2
4688.66
4688.39
4687.96
4687.74
4687.29
4687.06
4686.61
4686.43
4686.01
4686.02
4685.94
4686.06
4686.05
4686.36
4686.36
4686.87
4686.87
4687.61
4687.61
4688.49
4688.59
4689.58
4689.78
4690.93
4691.07
4692.63
4693.21
4725.53
4845.51
106446
8260.02
7562.56
7003.84
6572.1
6242.29
5989.34
5792.02
5635.83
5509.59
5406.5
5320.61
5248.79
5187.5
5135.35
5089.96
5050.86
5016.24
4986.15
4959.12
4935.48
4913.95
4895.06
4877.61
4862.28
4847.96
4835.39
4823.48
4813.04
4803.03
4794.32
4785.82
4778.48
4771.23
4765
4758.76
4753.47
4748.09
4743.55
4738.86
4734.98
4730.93
4727.53
4724
4721.13
4718
4715.49
4712.73
4710.57
4708.22
4706.35
4704.37
4702.8
4700.99
4699.51
4698.06
4696.76
4695.46
4694.32
4693.27
4692.44
4691.57
4690.78
4690.09
4689.52
4688.8
4688.3
4687.76
4687.48
4687.06
4686.83
4686.38
4686.15
4685.7
4685.52
4685.1
4685.11
4685.03
4685.14
4685.14
4685.44
4685.44
4685.95
4685.95
4686.69
4686.69
4687.57
4687.67
4688.66
4688.85
4690.01
4690.15
4691.7
4692.29
4724.79
4844.68
102553
8260.03
7562.58
7003.81
6571.98
6242.05
5988.98
5791.55
5635.28
5508.96
5405.8
5319.85
5247.98
5186.64
5134.45
5089.03
5049.89
5015.25
4985.14
4958.08
4934.43
4912.87
4893.97
4876.51
4861.17
4846.83
4834.25
4822.33
4811.88
4801.86
4793.14
4784.64
4777.29
4770.03
4763.8
4757.55
4752.26
4746.87
4742.33
4737.63
4733.75
4729.69
4726.29
4722.76
4719.88
4716.75
4714.24
4711.48
4709.31
4706.96
4705.09
4703.1
4701.54
4699.72
4698.25
4696.79
4695.49
4694.18
4693.04
4691.99
4691.16
4690.29
4689.5
4688.81
4688.24
4687.51
4687.01
4686.47
4686.19
4685.76
4685.54
4685.09
4684.86
4684.41
4684.22
4683.81
4683.81
4683.73
4683.84
4683.84
4684.14
4684.13
4684.64
4684.64
4685.38
4685.38
4686.26
4686.36
4687.34
4687.53
4688.69
4688.82
4690.38
4690.97
4723.73
4843.48
98658.2
8260.04
7562.61
7003.78
6571.82
6241.73
5988.52
5790.95
5634.55
5508.13
5404.88
5318.85
5246.91
5185.52
5133.28
5087.81
5048.64
5013.96
4983.82
4956.73
4933.05
4911.47
4892.55
4875.07
4859.71
4845.36
4832.77
4820.83
4810.37
4800.34
4791.61
4783.1
4775.74
4768.47
4762.23
4755.98
4750.68
4745.28
4740.74
4736.03
4732.15
4728.08
4724.68
4721.14
4718.26
4715.13
4712.61
4709.84
4707.68
4705.32
4703.45
4701.46
4699.89
4698.07
4696.59
4695.13
4693.83
4692.52
4691.38
4690.33
4689.5
4688.62
4687.82
4687.13
4686.56
4685.83
4685.33
4684.79
4684.51
4684.08
4683.85
4683.4
4683.17
4682.72
4682.54
4682.12
4682.12
4682.04
4682.15
4682.14
4682.43
4682.43
4682.93
4682.93
4683.67
4683.66
4684.54
4684.64
4685.63
4685.81
4686.97
4687.1
4688.66
4689.25
4722.34
4841.92
94800.4
8260.05
7562.65
7003.75
6571.63
6241.35
5987.94
5790.2
5633.66
5507.1
5403.74
5317.62
5245.6
5184.13
5131.83
5086.3
5047.08
5012.36
4982.18
4955.06
4931.35
4909.74
4890.8
4873.29
4857.91
4843.54
4830.93
4818.98
4808.51
4798.46
4789.72
4781.2
4773.83
4766.55
4760.29
4754.03
4748.73
4743.32
4738.77
4734.06
4730.17
4726.09
4722.69
4719.14
4716.26
4713.11
4710.59
4707.82
4705.65
4703.29
4701.41
4699.42
4697.85
4696.03
4694.55
4693.08
4691.78
4690.47
4689.32
4688.27
4687.43
4686.56
4685.75
4685.06
4684.49
4683.76
4683.26
4682.71
4682.43
4682
4681.77
4681.32
4681.09
4680.63
4680.45
4680.04
4680.03
4679.94
4680.05
4680.04
4680.33
4680.32
4680.82
4680.82
4681.55
4681.55
4682.42
4682.52
4683.5
4683.69
4684.84
4684.97
4686.52
4687.11
4720.61
4840
90999
8260.06
7562.69
7003.7
6571.39
6240.89
5987.26
5789.31
5632.59
5505.88
5402.38
5316.15
5244.03
5182.47
5130.09
5084.5
5045.22
5010.45
4980.22
4953.06
4929.32
4907.67
4888.7
4871.16
4855.76
4841.36
4828.74
4816.76
4806.27
4796.21
4787.45
4778.91
4771.53
4764.24
4757.97
4751.7
4746.39
4740.97
4736.41
4731.69
4727.79
4723.71
4720.3
4716.74
4713.85
4710.71
4708.18
4705.4
4703.23
4700.86
4698.98
4696.98
4695.41
4693.58
4692.1
4690.63
4689.32
4688.01
4686.86
4685.8
4684.96
4684.08
4683.28
4682.58
4682.01
4681.28
4680.77
4680.22
4679.94
4679.5
4679.27
4678.82
4678.59
4678.13
4677.95
4677.54
4677.52
4677.43
4677.53
4677.52
4677.8
4677.8
4678.29
4678.29
4679.01
4679.01
4679.88
4679.98
4680.96
4681.14
4682.29
4682.42
4683.97
4684.57
4718.56
4837.71
87262.6
8260.08
7562.75
7003.65
6571.12
6240.35
5986.46
5788.27
5631.34
5504.45
5400.8
5314.43
5242.19
5180.54
5128.07
5082.4
5043.05
5008.22
4977.94
4950.73
4926.94
4905.26
4886.25
4868.68
4853.25
4838.82
4826.17
4814.17
4803.66
4793.58
4784.8
4776.25
4768.85
4761.55
4755.27
4748.98
4743.66
4738.23
4733.66
4728.93
4725.02
4720.93
4717.51
4713.95
4711.05
4707.9
4705.36
4702.58
4700.4
4698.03
4696.14
4694.14
4692.55
4690.73
4689.24
4687.76
4686.45
4685.13
4683.98
4682.92
4682.08
4681.2
4680.39
4679.69
4679.11
4678.38
4677.87
4677.31
4677.03
4676.59
4676.36
4675.91
4675.67
4675.22
4675.03
4674.62
4674.6
4674.5
4674.6
4674.58
4674.86
4674.86
4675.34
4675.34
4676.06
4676.06
4676.92
4677.01
4677.99
4678.17
4679.31
4679.44
4680.99
4681.59
4716.17
4835.05
83594
8260.1
7562.81
7003.59
6570.82
6239.74
5985.55
5787.09
5629.91
5502.82
5398.99
5312.46
5240.1
5178.32
5125.76
5080
5040.57
5005.67
4975.33
4948.06
4924.22
4902.49
4883.44
4865.84
4850.37
4835.91
4823.23
4811.21
4800.67
4790.57
4781.77
4773.2
4765.79
4758.46
4752.17
4745.87
4740.53
4735.09
4730.5
4725.76
4721.85
4717.75
4714.32
4710.74
4707.84
4704.68
4702.14
4699.35
4697.16
4694.78
4692.88
4690.87
4689.29
4687.46
4685.96
4684.48
4683.17
4681.84
4680.69
4679.62
4678.77
4677.89
4677.08
4676.37
4675.79
4675.05
4674.54
4673.98
4673.7
4673.26
4673.02
4672.57
4672.33
4671.87
4671.69
4671.28
4671.25
4671.14
4671.24
4671.22
4671.49
4671.49
4671.96
4671.96
4672.67
4672.67
4673.53
4673.61
4674.58
4674.76
4675.9
4676.03
4677.58
4678.18
4713.43
4832.01
79991.4
8260.12
7562.87
7003.53
6570.47
6239.06
5984.53
5785.76
5628.31
5500.98
5396.95
5310.25
5237.73
5175.83
5123.15
5077.29
5037.77
5002.79
4972.38
4945.05
4921.15
4899.37
4880.27
4862.63
4847.12
4832.63
4819.92
4807.86
4797.3
4787.17
4778.35
4769.75
4762.32
4754.98
4748.67
4742.35
4736.99
4731.54
4726.94
4722.19
4718.26
4714.15
4710.71
4707.12
4704.21
4701.04
4698.49
4695.69
4693.5
4691.11
4689.21
4687.19
4685.6
4683.76
4682.26
4680.77
4679.45
4678.12
4676.96
4675.89
4675.04
4674.15
4673.33
4672.62
4672.04
4671.3
4670.79
4670.22
4669.93
4669.48
4669.25
4668.79
4668.56
4668.1
4667.91
4667.5
4667.46
4667.34
4667.44
4667.41
4667.67
4667.67
4668.14
4668.14
4668.83
4668.84
4669.69
4669.77
4670.74
4670.92
4672.05
4672.17
4673.72
4674.33
4710.35
4828.6
76449.1
8260.15
7562.95
7003.46
6570.09
6238.3
5983.39
5784.27
5626.52
5498.93
5394.67
5307.78
5235.09
5173.04
5120.23
5074.26
5034.65
4999.57
4969.08
4941.68
4917.72
4895.88
4876.73
4859.04
4843.49
4828.96
4816.21
4804.12
4793.53
4783.37
4774.53
4765.91
4758.45
4751.08
4744.76
4738.42
4733.05
4727.57
4722.96
4718.19
4714.25
4710.13
4706.68
4703.08
4700.16
4696.97
4694.42
4691.61
4689.4
4687.01
4685.1
4683.07
4681.47
4679.63
4678.12
4676.63
4675.3
4673.97
4672.81
4671.72
4670.87
4669.97
4669.15
4668.43
4667.85
4667.1
4666.59
4666.02
4665.72
4665.27
4665.04
4664.57
4664.34
4663.88
4663.69
4663.28
4663.23
4663.1
4663.19
4663.17
4663.42
4663.42
4663.87
4663.87
4664.55
4664.56
4665.4
4665.48
4666.44
4666.62
4667.74
4667.86
4669.41
4670.03
4706.92
4824.8
72962.5
8260.17
7563.03
7003.38
6569.68
6237.46
5982.14
5782.64
5624.56
5496.67
5392.16
5305.05
5232.18
5169.97
5117.02
5070.92
5031.19
4996.02
4965.44
4937.96
4913.93
4892.03
4872.82
4855.07
4839.48
4824.9
4812.11
4799.99
4789.36
4779.17
4770.3
4761.65
4754.17
4746.78
4740.43
4734.07
4728.68
4723.19
4718.56
4713.78
4709.82
4705.68
4702.22
4698.6
4695.67
4692.48
4689.91
4687.09
4684.88
4682.47
4680.55
4678.52
4676.91
4675.06
4673.54
4672.04
4670.71
4669.37
4668.2
4667.11
4666.25
4665.35
4664.53
4663.8
4663.21
4662.46
4661.94
4661.36
4661.06
4660.61
4660.37
4659.91
4659.67
4659.2
4659.01
4658.61
4658.55
4658.41
4658.5
4658.46
4658.7
4658.7
4659.15
4659.15
4659.82
4659.82
4660.66
4660.73
4661.69
4661.86
4662.98
4663.09
4664.64
4665.26
4703.13
4820.62
69538.2
8260.2
7563.12
7003.3
6569.23
6236.55
5980.77
5780.85
5622.4
5494.19
5389.42
5302.07
5228.99
5166.59
5113.49
5067.25
5027.4
4992.12
4961.45
4933.88
4909.77
4887.8
4868.53
4850.72
4835.07
4820.45
4807.62
4795.45
4784.79
4774.56
4765.65
4756.97
4749.47
4742.05
4735.68
4729.29
4723.88
4718.37
4713.73
4708.92
4704.95
4700.8
4697.32
4693.69
4690.75
4687.54
4684.96
4682.13
4679.91
4677.49
4675.56
4673.51
4671.9
4670.04
4668.52
4667.01
4665.67
4664.32
4663.15
4662.05
4661.18
4660.27
4659.44
4658.71
4658.12
4657.36
4656.84
4656.25
4655.95
4655.49
4655.25
4654.78
4654.54
4654.07
4653.88
4653.47
4653.41
4653.26
4653.34
4653.3
4653.53
4653.53
4653.96
4653.96
4654.62
4654.62
4655.45
4655.52
4656.47
4656.63
4657.74
4657.85
4659.4
4660.03
4698.97
4816.05
66182.3
8260.23
7563.22
7003.22
6568.74
6235.57
5979.29
5778.91
5620.06
5491.5
5386.43
5298.82
5225.51
5162.92
5109.65
5063.25
5023.28
4987.87
4957.1
4929.43
4905.24
4883.19
4863.85
4845.98
4830.27
4815.59
4802.71
4790.5
4779.8
4769.53
4760.59
4751.88
4744.34
4736.89
4730.49
4724.09
4718.65
4713.12
4708.45
4703.63
4699.64
4695.47
4691.97
4688.33
4685.37
4682.15
4679.56
4676.72
4674.48
4672.05
4670.11
4668.06
4666.43
4664.56
4663.03
4661.51
4660.17
4658.81
4657.63
4656.52
4655.65
4654.73
4653.9
4653.15
4652.56
4651.8
4651.27
4650.68
4650.37
4649.9
4649.66
4649.18
4648.94
4648.48
4648.28
4647.87
4647.8
4647.64
4647.71
4647.66
4647.88
4647.88
4648.3
4648.29
4648.94
4648.94
4649.76
4649.83
4650.77
4650.93
4652.03
4652.14
4653.69
4654.33
4694.45
4811.09
62900.4
8260.26
7563.32
7003.13
6568.22
6234.51
5977.69
5776.82
5617.53
5488.6
5383.19
5295.3
5221.75
5158.95
5105.49
5058.93
5018.81
4983.27
4952.38
4924.61
4900.33
4878.19
4858.78
4840.83
4825.07
4810.33
4797.4
4785.13
4774.39
4764.08
4755.1
4746.35
4738.78
4731.3
4724.88
4718.44
4712.98
4707.42
4702.74
4697.89
4693.88
4689.69
4686.18
4682.52
4679.54
4676.31
4673.7
4670.85
4668.6
4666.16
4664.21
4662.13
4660.5
4658.62
4657.08
4655.55
4654.2
4652.84
4651.65
4650.53
4649.64
4648.72
4647.88
4647.13
4646.53
4645.76
4645.23
4644.63
4644.31
4643.84
4643.59
4643.12
4642.87
4642.4
4642.2
4641.79
4641.72
4641.54
4641.6
4641.55
4641.75
4641.75
4642.15
4642.15
4642.78
4642.79
4643.6
4643.65
4644.59
4644.74
4645.84
4645.94
4647.48
4648.14
4689.54
4805.74
59697.6
8260.29
7563.44
7003.04
6567.66
6233.38
5975.98
5774.58
5614.82
5485.47
5379.72
5291.52
5217.71
5154.67
5101
5054.27
5013.99
4978.31
4947.3
4919.41
4895.03
4872.8
4853.3
4835.29
4819.45
4804.65
4791.66
4779.34
4768.55
4758.19
4749.18
4740.39
4732.78
4725.27
4718.81
4712.34
4706.86
4701.28
4696.57
4691.7
4687.67
4683.45
4679.93
4676.24
4673.25
4670
4667.38
4664.51
4662.25
4659.79
4657.83
4655.74
4654.1
4652.21
4650.66
4649.12
4647.76
4646.38
4645.19
4644.06
4643.17
4642.23
4641.39
4640.62
4640.02
4639.24
4638.71
4638.1
4637.78
4637.3
4637.05
4636.56
4636.32
4635.84
4635.64
4635.23
4635.15
4634.96
4635.01
4634.95
4635.14
4635.14
4635.52
4635.52
4636.14
4636.14
4636.94
4636.99
4637.92
4638.06
4639.15
4639.24
4640.79
4641.46
4684.25
4800
56578.9
8260.33
7563.56
7002.94
6567.07
6232.17
5974.15
5772.18
5611.91
5482.13
5375.99
5287.46
5213.37
5150.08
5096.2
5049.27
5008.82
4972.99
4941.84
4913.84
4889.34
4867.02
4847.43
4829.33
4813.42
4798.55
4785.5
4773.13
4762.28
4751.87
4742.81
4733.98
4726.34
4718.79
4712.3
4705.8
4700.28
4694.67
4689.94
4685.04
4680.99
4676.75
4673.2
4669.5
4666.49
4663.22
4660.59
4657.7
4655.42
4652.95
4650.98
4648.87
4647.22
4645.32
4643.76
4642.21
4640.84
4639.45
4638.25
4637.1
4636.2
4635.26
4634.41
4633.63
4633.02
4632.24
4631.7
4631.08
4630.75
4630.26
4630.01
4629.52
4629.27
4628.8
4628.59
4628.17
4628.09
4627.89
4627.93
4627.85
4628.03
4628.03
4628.39
4628.39
4628.99
4628.99
4629.78
4629.82
4630.74
4630.88
4631.96
4632.05
4633.59
4634.28
4678.56
4793.85
53548.7
8260.36
7563.69
7002.84
6566.45
6230.9
5972.21
5769.62
5608.82
5478.56
5372.02
5283.14
5208.73
5145.18
5091.06
5043.92
5003.29
4967.3
4936.01
4907.87
4883.26
4860.83
4841.15
4822.96
4806.97
4792.03
4778.91
4766.47
4755.57
4745.11
4736
4727.12
4719.44
4711.85
4705.32
4698.79
4693.25
4687.6
4682.84
4677.92
4673.84
4669.58
4666.01
4662.29
4659.26
4655.97
4653.32
4650.41
4648.12
4645.63
4643.64
4641.52
4639.85
4637.94
4636.37
4634.8
4633.43
4632.03
4630.81
4629.65
4628.75
4627.79
4626.94
4626.14
4625.53
4624.74
4624.19
4623.56
4623.23
4622.73
4622.47
4621.98
4621.73
4621.25
4621.04
4620.62
4620.52
4620.31
4620.34
4620.26
4620.43
4620.41
4620.76
4620.76
4621.34
4621.34
4622.11
4622.15
4623.06
4623.19
4624.26
4624.34
4625.89
4626.59
4672.45
4787.31
50611.3
8260.4
7563.83
7002.74
6565.8
6229.55
5970.16
5766.92
5605.53
5474.77
5367.8
5278.54
5203.8
5139.96
5085.6
5038.24
4997.41
4961.24
4929.79
4901.52
4876.78
4854.23
4834.45
4816.17
4800.1
4785.07
4771.88
4759.38
4748.42
4737.9
4728.74
4719.81
4712.08
4704.45
4697.89
4691.31
4685.74
4680.06
4675.27
4670.32
4666.21
4661.93
4658.33
4654.59
4651.54
4648.23
4645.56
4642.63
4640.32
4637.82
4635.81
4633.68
4631.99
4630.07
4628.48
4626.9
4625.52
4624.1
4622.88
4621.71
4620.79
4619.82
4618.96
4618.16
4617.54
4616.74
4616.18
4615.54
4615.2
4614.7
4614.43
4613.93
4613.68
4613.19
4612.98
4612.56
4612.45
4612.23
4612.25
4612.15
4612.31
4612.29
4612.62
4612.62
4613.17
4613.18
4613.94
4613.97
4614.87
4614.99
4616.05
4616.12
4617.66
4618.39
4665.92
4780.36
47770.2
8260.44
7563.98
7002.64
6565.11
6228.13
5967.99
5764.06
5602.06
5470.76
5363.32
5273.66
5198.58
5134.43
5079.79
5032.2
4991.16
4954.81
4923.2
4894.77
4869.9
4847.23
4827.34
4808.95
4792.79
4777.68
4764.42
4751.84
4740.81
4730.24
4721.02
4712.04
4704.26
4696.58
4689.98
4683.36
4677.75
4672.04
4667.22
4662.23
4658.1
4653.79
4650.17
4646.4
4643.33
4639.99
4637.3
4634.36
4632.03
4629.51
4627.48
4625.33
4623.63
4621.69
4620.1
4618.5
4617.1
4615.68
4614.45
4613.26
4612.33
4611.35
4610.48
4609.66
4609.03
4608.22
4607.66
4607.01
4606.66
4606.15
4605.88
4605.37
4605.11
4604.62
4604.4
4603.98
4603.87
4603.64
4603.64
4603.53
4603.67
4603.64
4603.96
4603.95
4604.49
4604.49
4605.23
4605.26
4606.15
4606.26
4607.3
4607.37
4608.92
4609.66
4658.95
4773.01
45029.1
8260.48
7564.13
7002.53
6564.4
6226.64
5965.71
5761.04
5598.4
5466.53
5358.6
5268.5
5193.05
5128.58
5073.66
5025.81
4984.55
4948
4916.21
4887.62
4862.61
4839.81
4819.8
4801.3
4785.05
4769.84
4756.5
4743.85
4732.75
4722.11
4712.83
4703.8
4695.97
4688.24
4681.6
4674.94
4669.29
4663.53
4658.68
4653.66
4649.5
4645.16
4641.51
4637.71
4634.62
4631.26
4628.55
4625.59
4623.24
4620.69
4618.65
4616.48
4614.76
4612.81
4611.2
4609.59
4608.18
4606.74
4605.5
4604.29
4603.35
4602.36
4601.48
4600.65
4600.01
4599.19
4598.62
4597.96
4597.6
4597.08
4596.8
4596.29
4596.03
4595.53
4595.31
4594.88
4594.76
4594.52
4594.5
4594.38
4594.51
4594.47
4594.76
4594.76
4595.28
4595.28
4596
4596.02
4596.9
4597
4598.03
4598.09
4599.63
4600.4
4651.52
4765.24
42390.8
8260.52
7564.3
7002.43
6563.66
6225.08
5963.33
5757.88
5594.54
5462.08
5353.62
5263.07
5187.22
5122.4
5067.18
5019.06
4977.57
4940.8
4908.83
4880.07
4854.91
4831.96
4811.83
4793.22
4776.86
4761.56
4748.13
4735.4
4724.23
4713.52
4704.18
4695.08
4687.2
4679.42
4672.73
4666.02
4660.33
4654.54
4649.65
4644.6
4640.4
4636.03
4632.36
4628.52
4625.41
4622.02
4619.29
4616.3
4613.93
4611.37
4609.31
4607.11
4605.38
4603.41
4601.79
4600.16
4598.73
4597.28
4596.03
4594.8
4593.85
4592.84
4591.96
4591.11
4590.47
4589.64
4589.06
4588.38
4588.01
4587.48
4587.2
4586.67
4586.41
4585.91
4585.68
4585.25
4585.12
4584.87
4584.84
4584.7
4584.81
4584.77
4585.04
4585.04
4585.53
4585.53
4586.23
4586.24
4587.11
4587.2
4588.22
4588.27
4589.81
4590.61
4643.61
4757.03
39858.3
8260.56
7564.47
7002.33
6562.89
6223.46
5960.83
5754.57
5590.5
5457.4
5348.39
5257.36
5181.09
5115.9
5060.36
5011.96
4970.22
4933.23
4901.05
4872.11
4846.79
4823.7
4803.43
4784.7
4768.23
4752.83
4739.31
4726.49
4715.24
4704.45
4695.05
4685.89
4677.95
4670.12
4663.37
4656.62
4650.88
4645.05
4640.12
4635.03
4630.8
4626.39
4622.69
4618.83
4615.68
4612.27
4609.52
4606.51
4604.11
4601.52
4599.44
4597.23
4595.48
4593.49
4591.85
4590.2
4588.77
4587.3
4586.03
4584.79
4583.82
4582.8
4581.91
4581.04
4580.39
4579.55
4578.96
4578.27
4577.89
4577.35
4577.06
4576.53
4576.26
4575.75
4575.52
4575.08
4574.94
4574.68
4574.64
4574.48
4574.58
4574.53
4574.78
4574.77
4575.23
4575.23
4575.92
4575.92
4576.77
4576.86
4577.86
4577.9
4579.44
4580.27
4635.2
4748.35
37433.7
8260.6
7564.65
7002.22
6562.09
6221.78
5958.22
5751.1
5586.28
5452.5
5342.9
5251.37
5174.66
5109.08
5053.2
5004.5
4962.49
4925.26
4892.87
4863.74
4838.25
4815
4794.6
4775.74
4759.15
4743.64
4730.02
4717.11
4705.78
4694.91
4685.44
4676.21
4668.22
4660.32
4653.52
4646.72
4640.94
4635.05
4630.09
4624.95
4620.69
4616.24
4612.52
4608.62
4605.44
4602
4599.23
4596.19
4593.77
4591.16
4589.06
4586.82
4585.04
4583.04
4581.38
4579.72
4578.27
4576.78
4575.5
4574.24
4573.26
4572.22
4571.32
4570.43
4569.77
4568.92
4568.32
4567.62
4567.23
4566.67
4566.37
4565.84
4565.56
4565.05
4564.81
4564.36
4564.22
4563.95
4563.89
4563.72
4563.8
4563.74
4563.96
4563.95
4564.39
4564.39
4565.05
4565.05
4565.88
4565.96
4566.94
4566.98
4568.52
4569.38
4626.27
4739.15
35119.3
8260.65
7564.84
7002.12
6561.27
6220.03
5955.51
5747.49
5581.86
5447.38
5337.17
5245.09
5167.92
5101.93
5045.7
4996.67
4954.39
4916.9
4884.29
4854.96
4829.29
4805.87
4785.32
4766.32
4749.62
4733.99
4720.27
4707.26
4695.85
4684.89
4675.35
4666.04
4657.99
4650.02
4643.18
4636.31
4630.49
4624.55
4619.54
4614.37
4610.06
4605.58
4601.82
4597.89
4594.68
4591.21
4588.41
4585.34
4582.9
4580.26
4578.14
4575.87
4574.08
4572.06
4570.38
4568.69
4567.23
4565.72
4564.43
4563.15
4562.15
4561.1
4560.18
4559.28
4558.61
4557.75
4557.14
4556.42
4556.02
4555.45
4555.14
4554.6
4554.32
4553.8
4553.55
4553.1
4552.94
4552.66
4552.6
4552.4
4552.47
4552.39
4552.6
4552.58
4552.99
4552.99
4553.62
4553.62
4554.44
4554.5
4555.47
4555.5
4557.04
4557.93
4616.78
4729.39
32916.7
8260.69
7565.04
7002.02
6560.43
6218.22
5952.7
5743.74
5577.26
5442.03
5331.18
5238.54
5160.88
5094.46
5037.85
4988.49
4945.9
4908.16
4875.31
4845.76
4819.9
4796.31
4775.61
4756.46
4739.63
4723.88
4710.05
4696.93
4685.43
4674.39
4664.76
4655.38
4647.26
4639.23
4632.32
4625.4
4619.52
4613.54
4608.48
4603.26
4598.92
4594.4
4590.6
4586.63
4583.39
4579.89
4577.06
4573.96
4571.49
4568.83
4566.68
4564.39
4562.58
4560.54
4558.84
4557.13
4555.65
4554.12
4552.82
4551.52
4550.5
4549.43
4548.5
4547.58
4546.9
4546.02
4545.41
4544.67
4544.26
4543.67
4543.36
4542.8
4542.51
4541.99
4541.74
4541.27
4541.11
4540.82
4540.74
4540.53
4540.57
4540.49
4540.67
4540.65
4541.03
4541.03
4541.63
4541.63
4542.42
4542.48
4543.42
4543.45
4544.98
4545.91
4606.7
4719.04
30827.4
8260.73
7565.25
7001.93
6559.57
6216.35
5949.79
5739.84
5572.48
5436.47
5324.95
5231.71
5153.54
5086.66
5029.65
4979.94
4937.04
4899.02
4865.92
4836.15
4810.09
4786.31
4765.44
4746.15
4729.18
4713.3
4699.35
4686.13
4674.53
4663.39
4653.69
4644.23
4636.03
4627.93
4620.96
4613.98
4608.05
4602.01
4596.91
4591.64
4587.25
4582.68
4578.85
4574.84
4571.57
4568.03
4565.17
4562.05
4559.55
4556.85
4554.68
4552.36
4550.53
4548.46
4546.75
4545.01
4543.52
4541.97
4540.65
4539.33
4538.29
4537.2
4536.27
4535.32
4534.63
4533.74
4533.11
4532.36
4531.94
4531.33
4531.01
4530.44
4530.15
4529.61
4529.36
4528.89
4528.71
4528.41
4528.32
4528.09
4528.12
4528.01
4528.17
4528.14
4528.49
4528.49
4529.06
4529.06
4529.83
4529.88
4530.8
4530.82
4532.35
4533.31
4595.97
4708.06
28852.8
8260.77
7565.46
7001.83
6558.69
6214.43
5946.78
5735.8
5567.52
5430.7
5318.46
5224.61
5145.89
5078.54
5021.11
4971.02
4927.8
4889.48
4856.13
4826.11
4799.84
4775.87
4754.83
4735.37
4718.26
4702.24
4688.18
4674.84
4663.14
4651.91
4642.11
4632.57
4624.29
4616.12
4609.09
4602.04
4596.05
4589.95
4584.8
4579.48
4575.05
4570.44
4566.57
4562.52
4559.21
4555.64
4552.74
4549.59
4547.06
4544.33
4542.13
4539.79
4537.92
4535.84
4534.1
4532.34
4530.83
4529.26
4527.92
4526.58
4525.53
4524.42
4523.47
4522.5
4521.8
4520.89
4520.25
4519.48
4519.05
4518.43
4518.09
4517.51
4517.21
4516.67
4516.41
4515.93
4515.74
4515.43
4515.32
4515.08
4515.09
4514.97
4515.1
4515.06
4515.38
4515.38
4515.92
4515.92
4516.67
4516.71
4517.6
4517.62
4519.14
4520.14
4584.56
4696.41
26994.1
8260.81
7565.68
7001.75
6557.79
6212.45
5943.67
5731.63
5562.38
5424.71
5311.73
5217.22
5137.94
5070.08
5012.22
4961.74
4918.18
4879.55
4845.92
4815.66
4789.16
4764.99
4743.77
4724.14
4706.87
4690.72
4676.53
4663.07
4651.26
4639.92
4630.03
4620.4
4612.05
4603.8
4596.7
4589.58
4583.53
4577.37
4572.17
4566.79
4562.32
4557.65
4553.74
4549.65
4546.31
4542.7
4539.77
4536.58
4534.02
4531.26
4529.03
4526.65
4524.77
4522.66
4520.9
4519.11
4517.58
4515.99
4514.64
4513.27
4512.2
4511.07
4510.1
4509.11
4508.39
4507.47
4506.82
4506.03
4505.58
4504.95
4504.61
4504.01
4503.7
4503.16
4502.88
4502.39
4502.19
4501.87
4501.75
4501.5
4501.48
4501.34
4501.46
4501.41
4501.7
4501.69
4502.2
4502.19
4502.92
4502.95
4503.82
4503.82
4505.35
4506.38
4572.42
4684.05
25252.1
8260.86
7565.91
7001.66
6556.87
6210.42
5940.48
5727.32
5557.07
5418.51
5304.75
5209.56
5129.69
5061.31
5002.98
4952.1
4908.18
4869.22
4835.3
4804.78
4778.05
4753.66
4732.25
4712.44
4695.02
4678.71
4664.39
4650.8
4638.88
4627.44
4617.45
4607.72
4599.29
4590.96
4583.78
4576.59
4570.48
4564.26
4559
4553.57
4549.04
4544.33
4540.38
4536.24
4532.86
4529.2
4526.24
4523.01
4520.42
4517.63
4515.38
4512.96
4511.05
4508.91
4507.13
4505.32
4503.77
4502.15
4500.78
4499.39
4498.3
4497.14
4496.16
4495.15
4494.42
4493.48
4492.82
4492.01
4491.55
4490.89
4490.54
4489.93
4489.62
4489.06
4488.78
4488.28
4488.07
4487.73
4487.6
4487.33
4487.3
4487.13
4487.23
4487.16
4487.42
4487.41
4487.88
4487.88
4488.57
4488.59
4489.44
4489.44
4490.96
4492.03
4559.54
4670.95
23627.9
8260.9
7566.15
7001.59
6555.94
6208.35
5937.19
5722.88
5551.58
5412.09
5297.53
5201.63
5121.13
5052.21
4993.41
4942.09
4897.79
4858.49
4824.28
4793.48
4766.51
4741.89
4720.28
4700.29
4682.7
4666.23
4651.77
4638.05
4626.01
4614.45
4604.36
4594.53
4586.01
4577.59
4570.35
4563.08
4556.9
4550.61
4545.3
4539.81
4535.23
4530.46
4526.46
4522.27
4518.85
4515.16
4512.16
4508.89
4506.27
4503.44
4501.16
4498.71
4496.77
4494.6
4492.8
4490.95
4489.38
4487.74
4486.35
4484.93
4483.82
4482.64
4481.65
4480.61
4479.86
4478.9
4478.23
4477.41
4476.93
4476.25
4475.89
4475.27
4474.94
4474.37
4474.08
4473.58
4473.35
4472.99
4472.86
4472.58
4472.52
4472.34
4472.41
4472.33
4472.56
4472.54
4472.97
4472.97
4473.64
4473.65
4474.46
4474.46
4475.97
4477.08
4545.92
4657.06
22118
8260.93
7566.39
7001.52
6555
6206.23
5933.82
5718.31
5545.93
5405.48
5290.07
5193.43
5112.28
5042.79
4983.48
4931.72
4887.03
4847.37
4812.84
4781.75
4754.53
4729.68
4707.85
4687.66
4669.9
4653.27
4638.66
4624.8
4612.64
4600.95
4590.76
4580.83
4572.22
4563.71
4556.38
4549.04
4542.79
4536.43
4531.05
4525.5
4520.86
4516.04
4512
4507.76
4504.29
4500.55
4497.52
4494.21
4491.55
4488.69
4486.37
4483.89
4481.91
4479.72
4477.89
4476.02
4474.43
4472.76
4471.35
4469.9
4468.77
4467.56
4466.56
4465.49
4464.73
4463.75
4463.06
4462.21
4461.72
4461.03
4460.65
4460.02
4459.68
4459.1
4458.8
4458.28
4458.04
4457.67
4457.52
4457.23
4457.15
4456.95
4457
4456.9
4457.09
4457.07
4457.47
4457.46
4458.1
4458.1
4458.88
4458.88
4460.39
4461.53
4531.55
4642.35
20718
8260.97
7566.64
7001.46
6554.05
6204.07
5930.37
5713.62
5540.12
5398.66
5282.37
5184.96
5103.14
5033.05
4973.22
4920.99
4875.88
4835.85
4800.99
4769.6
4742.11
4717.01
4694.97
4674.57
4656.63
4639.82
4625.06
4611.05
4598.76
4586.95
4576.65
4566.61
4557.9
4549.3
4541.89
4534.46
4528.13
4521.7
4516.26
4510.65
4505.95
4501.07
4496.98
4492.69
4489.17
4485.39
4482.31
4478.96
4476.27
4473.36
4471.01
4468.49
4466.49
4464.27
4462.41
4460.5
4458.89
4457.19
4455.76
4454.28
4453.13
4451.9
4450.87
4449.78
4449
4448
4447.3
4446.43
4445.92
4445.21
4444.82
4444.17
4443.82
4443.23
4442.92
4442.39
4442.14
4441.75
4441.59
4441.28
4441.19
4440.96
4440.98
4440.86
4441.04
4441
4441.36
4441.36
4441.95
4441.95
4442.69
4442.69
4444.19
4445.36
4516.42
4626.79
19422.7
8261.01
7566.9
7001.4
6553.1
6201.88
5926.84
5708.81
5534.14
5391.65
5274.45
5176.23
5093.71
5022.99
4962.61
4909.9
4864.36
4823.94
4788.74
4757.03
4729.26
4703.9
4681.63
4661.02
4642.88
4625.9
4610.98
4596.81
4584.39
4572.45
4562.03
4551.87
4543.06
4534.36
4526.86
4519.35
4512.94
4506.44
4500.93
4495.24
4490.49
4485.55
4481.4
4477.05
4473.49
4469.66
4466.54
4463.15
4460.42
4457.47
4455.08
4452.52
4450.49
4448.23
4446.35
4444.41
4442.77
4441.04
4439.59
4438.08
4436.9
4435.65
4434.6
4433.48
4432.69
4431.66
4430.95
4430.06
4429.53
4428.8
4428.39
4427.72
4427.37
4426.77
4426.45
4425.9
4425.64
4425.23
4425.05
4424.72
4424.62
4424.38
4424.37
4424.23
4424.37
4424.33
4424.64
4424.64
4425.19
4425.2
4425.89
4425.89
4427.38
4428.58
4500.53
4610.33
18227.1
8261.04
7567.16
7001.36
6552.14
6199.65
5923.25
5703.89
5528.02
5384.44
5266.29
5167.24
5083.98
5012.62
4951.67
4898.45
4852.46
4811.64
4776.07
4744.04
4715.98
4690.35
4667.83
4647
4628.67
4611.49
4596.4
4582.08
4569.51
4557.43
4546.89
4536.61
4527.7
4518.89
4511.3
4503.7
4497.21
4490.62
4485.05
4479.29
4474.47
4469.47
4465.27
4460.86
4457.25
4453.37
4450.2
4446.76
4443.99
4441
4438.58
4435.97
4433.9
4431.61
4429.7
4427.73
4426.06
4424.3
4422.83
4421.29
4420.09
4418.8
4417.74
4416.59
4415.78
4414.73
4414
4413.09
4412.54
4411.78
4411.36
4410.68
4410.31
4409.7
4409.36
4408.81
4408.53
4408.1
4407.91
4407.57
4407.45
4407.19
4407.16
4406.99
4407.1
4407.04
4407.32
4407.31
4407.82
4407.83
4408.48
4408.48
4409.96
4411.19
4483.88
4592.94
17125.7
8261.08
7567.43
7001.33
6551.18
6197.38
5919.58
5698.86
5521.74
5377.05
5257.91
5157.99
5073.98
5001.94
4940.4
4886.64
4840.19
4798.94
4763
4730.63
4702.26
4676.35
4653.59
4632.52
4613.97
4596.6
4581.33
4566.84
4554.13
4541.9
4531.23
4520.83
4511.81
4502.89
4495.21
4487.51
4480.94
4474.27
4468.61
4462.78
4457.9
4452.83
4448.57
4444.1
4440.44
4436.5
4433.29
4429.81
4426.99
4423.95
4421.49
4418.85
4416.74
4414.41
4412.47
4410.46
4408.77
4406.98
4405.48
4403.91
4402.68
4401.36
4400.29
4399.11
4398.27
4397.2
4396.45
4395.51
4394.95
4394.17
4393.73
4393.03
4392.65
4392.02
4391.68
4391.11
4390.81
4390.37
4390.16
4389.8
4389.66
4389.38
4389.33
4389.14
4389.22
4389.14
4389.38
4389.37
4389.84
4389.84
4390.45
4390.45
4391.92
4393.17
4466.45
4574.59
16112.9
8261.11
7567.71
7001.3
6550.21
6195.1
5915.85
5693.73
5515.32
5369.47
5249.32
5148.5
5063.69
4990.95
4928.8
4874.49
4827.55
4785.86
4749.53
4716.8
4688.11
4661.91
4638.88
4617.57
4598.81
4581.23
4565.78
4551.11
4538.24
4525.87
4515.06
4504.53
4495.39
4486.36
4478.58
4470.78
4464.12
4457.36
4451.63
4445.72
4440.77
4435.63
4431.31
4426.78
4423.06
4419.07
4415.81
4412.27
4409.41
4406.33
4403.83
4401.14
4398.99
4396.63
4394.66
4392.6
4390.89
4389.06
4387.54
4385.93
4384.68
4383.33
4382.23
4381.02
4380.16
4379.07
4378.3
4377.34
4376.75
4375.95
4375.49
4374.77
4374.38
4373.74
4373.38
4372.8
4372.49
4372.02
4371.8
4371.42
4371.27
4370.97
4370.89
4370.67
4370.73
4370.63
4370.83
4370.81
4371.23
4371.24
4371.8
4371.8
4373.26
4374.52
4448.23
4555.25
15182.7
8261.14
7567.99
7001.29
6549.25
6192.79
5912.06
5688.5
5508.76
5361.72
5240.52
5138.76
5053.14
4979.67
4916.88
4861.99
4814.54
4772.4
4735.66
4702.55
4673.54
4647.03
4623.73
4602.16
4583.17
4565.38
4549.74
4534.89
4521.85
4509.32
4498.38
4487.71
4478.45
4469.3
4461.42
4453.51
4446.76
4439.91
4434.1
4428.11
4423.09
4417.87
4413.49
4408.89
4405.12
4401.06
4397.76
4394.17
4391.26
4388.12
4385.58