/*--------------------------------*- C++ -*----------------------------------*\
| =========                 |                                                 |
| \\      /  F ield         | OpenFOAM: The Open Source CFD Toolbox           |
|  \\    /   O peration     | Version:  v2012                                 |
|   \\  /    A nd           | Website:  www.openfoam.com                      |
|    \\/     M anipulation  |                                                 |
\*---------------------------------------------------------------------------*/
FoamFile
{
    version     2.0;
    format      ascii;
    class       volVectorField;
    location    "32";
    object      wallShearStress;
}
// * * * * * * * * * * * * * * * * * * * * * * * * * * * * * * * * * * * * * //

dimensions      [0 2 -2 0 0 0 0];


internalField   uniform (0 0 0);

boundaryField
{
    inlet
    {
        type            calculated;
        value           uniform (0 0 0);
    }
    outlet
    {
        type            calculated;
        value           uniform (0 0 0);
    }
    topWall
    {
        type            calculated;
        value           nonuniform List<vector> 
545
(
(3.66268e-08 -2.57816e-08 0)
(3.66157e-08 -7.21239e-08 0)
(3.6594e-08 -1.20311e-07 0)
(3.65646e-08 -1.67104e-07 0)
(3.65278e-08 -2.11903e-07 0)
(3.64844e-08 -2.55286e-07 0)
(3.64348e-08 -2.97619e-07 0)
(3.63795e-08 -3.38884e-07 0)
(3.63189e-08 -3.78991e-07 0)
(3.62535e-08 -4.17938e-07 0)
(3.61839e-08 -4.55776e-07 0)
(3.61103e-08 -4.9255e-07 0)
(3.60332e-08 -5.28285e-07 0)
(3.5953e-08 -5.63e-07 0)
(3.58699e-08 -5.96722e-07 0)
(3.57844e-08 -6.29477e-07 0)
(3.56967e-08 -6.61291e-07 0)
(3.5607e-08 -6.92189e-07 0)
(3.55158e-08 -7.22196e-07 0)
(3.54231e-08 -7.51336e-07 0)
(3.53293e-08 -7.79633e-07 0)
(3.52346e-08 -8.0711e-07 0)
(3.51391e-08 -8.33791e-07 0)
(3.5043e-08 -8.59697e-07 0)
(3.49466e-08 -8.8485e-07 0)
(3.485e-08 -9.09273e-07 0)
(3.47532e-08 -9.32986e-07 0)
(3.46566e-08 -9.56009e-07 0)
(3.45602e-08 -9.78363e-07 0)
(3.4464e-08 -1.00007e-06 0)
(3.43683e-08 -1.02114e-06 0)
(3.42731e-08 -1.0416e-06 0)
(3.41786e-08 -1.06147e-06 0)
(3.40847e-08 -1.08075e-06 0)
(3.39917e-08 -1.09948e-06 0)
(3.38994e-08 -1.11767e-06 0)
(3.38081e-08 -1.13533e-06 0)
(3.37178e-08 -1.15247e-06 0)
(3.36285e-08 -1.16912e-06 0)
(3.35402e-08 -1.18529e-06 0)
(3.34531e-08 -1.20099e-06 0)
(3.33671e-08 -1.21623e-06 0)
(3.32823e-08 -1.23104e-06 0)
(3.31987e-08 -1.24542e-06 0)
(3.31163e-08 -1.25939e-06 0)
(3.30352e-08 -1.27295e-06 0)
(3.29554e-08 -1.28612e-06 0)
(3.28768e-08 -1.29892e-06 0)
(3.27995e-08 -1.31135e-06 0)
(3.27235e-08 -1.32342e-06 0)
(3.26488e-08 -1.33515e-06 0)
(3.25755e-08 -1.34654e-06 0)
(3.25034e-08 -1.35761e-06 0)
(3.24327e-08 -1.36836e-06 0)
(3.23632e-08 -1.37881e-06 0)
(3.22951e-08 -1.38896e-06 0)
(3.22282e-08 -1.39882e-06 0)
(3.21627e-08 -1.4084e-06 0)
(3.20984e-08 -1.41771e-06 0)
(3.20353e-08 -1.42675e-06 0)
(3.19736e-08 -1.43554e-06 0)
(3.19131e-08 -1.44409e-06 0)
(3.18538e-08 -1.45239e-06 0)
(3.17957e-08 -1.46045e-06 0)
(3.17389e-08 -1.4683e-06 0)
(3.16832e-08 -1.47592e-06 0)
(3.16287e-08 -1.48332e-06 0)
(3.15754e-08 -1.49052e-06 0)
(3.15232e-08 -1.49752e-06 0)
(3.14721e-08 -1.50432e-06 0)
(3.14221e-08 -1.51093e-06 0)
(3.13734e-08 -1.51735e-06 0)
(3.13261e-08 -1.52353e-06 0)
(3.12798e-08 -1.52952e-06 0)
(3.12339e-08 -1.53545e-06 0)
(3.11882e-08 -1.54135e-06 0)
(3.11425e-08 -1.54722e-06 0)
(3.10969e-08 -1.55306e-06 0)
(3.10513e-08 -1.55887e-06 0)
(3.10057e-08 -1.56463e-06 0)
(3.09602e-08 -1.57036e-06 0)
(3.09148e-08 -1.57606e-06 0)
(3.08693e-08 -1.58172e-06 0)
(3.08239e-08 -1.58735e-06 0)
(3.07786e-08 -1.59294e-06 0)
(3.07333e-08 -1.5985e-06 0)
(3.06881e-08 -1.60403e-06 0)
(3.06429e-08 -1.60952e-06 0)
(3.05978e-08 -1.61498e-06 0)
(3.05527e-08 -1.62041e-06 0)
(3.05077e-08 -1.62581e-06 0)
(3.04627e-08 -1.63117e-06 0)
(3.04179e-08 -1.6365e-06 0)
(3.0373e-08 -1.64179e-06 0)
(3.03282e-08 -1.64707e-06 0)
(3.0284e-08 -1.65225e-06 0)
(3.02424e-08 -1.657e-06 0)
(3.02041e-08 -1.66131e-06 0)
(3.01671e-08 -1.6655e-06 0)
(3.01303e-08 -1.66971e-06 0)
(3.00934e-08 -1.67395e-06 0)
(3.00564e-08 -1.67821e-06 0)
(3.00191e-08 -1.68247e-06 0)
(2.99817e-08 -1.68673e-06 0)
(2.99441e-08 -1.69099e-06 0)
(2.99064e-08 -1.69526e-06 0)
(2.98684e-08 -1.69953e-06 0)
(2.98303e-08 -1.70381e-06 0)
(2.9792e-08 -1.70809e-06 0)
(2.97535e-08 -1.71238e-06 0)
(2.97148e-08 -1.71667e-06 0)
(2.96759e-08 -1.72096e-06 0)
(2.96369e-08 -1.72526e-06 0)
(2.95976e-08 -1.72957e-06 0)
(2.95582e-08 -1.73388e-06 0)
(2.95186e-08 -1.73819e-06 0)
(2.94788e-08 -1.74251e-06 0)
(2.94388e-08 -1.74683e-06 0)
(2.93987e-08 -1.75116e-06 0)
(2.93583e-08 -1.75549e-06 0)
(2.93178e-08 -1.75982e-06 0)
(2.9277e-08 -1.76416e-06 0)
(2.92361e-08 -1.76851e-06 0)
(2.9195e-08 -1.77285e-06 0)
(2.91537e-08 -1.7772e-06 0)
(2.91122e-08 -1.78156e-06 0)
(2.90705e-08 -1.78592e-06 0)
(2.90286e-08 -1.79028e-06 0)
(2.89865e-08 -1.79465e-06 0)
(2.89443e-08 -1.79902e-06 0)
(2.89018e-08 -1.8034e-06 0)
(2.88592e-08 -1.80778e-06 0)
(2.88163e-08 -1.81216e-06 0)
(2.87733e-08 -1.81655e-06 0)
(2.873e-08 -1.82094e-06 0)
(2.86866e-08 -1.82533e-06 0)
(2.86429e-08 -1.82973e-06 0)
(2.85991e-08 -1.83413e-06 0)
(2.85551e-08 -1.83854e-06 0)
(2.85108e-08 -1.84295e-06 0)
(2.84664e-08 -1.84736e-06 0)
(2.84218e-08 -1.85178e-06 0)
(2.83769e-08 -1.8562e-06 0)
(2.83319e-08 -1.86062e-06 0)
(2.82867e-08 -1.86504e-06 0)
(2.82412e-08 -1.86947e-06 0)
(2.81956e-08 -1.87391e-06 0)
(2.81498e-08 -1.87834e-06 0)
(2.81037e-08 -1.88278e-06 0)
(2.80575e-08 -1.88723e-06 0)
(2.8011e-08 -1.89167e-06 0)
(2.79644e-08 -1.89612e-06 0)
(2.79175e-08 -1.90057e-06 0)
(2.78704e-08 -1.90503e-06 0)
(2.78232e-08 -1.90948e-06 0)
(2.77757e-08 -1.91394e-06 0)
(2.7728e-08 -1.91841e-06 0)
(2.76801e-08 -1.92287e-06 0)
(2.7632e-08 -1.92734e-06 0)
(2.75837e-08 -1.93182e-06 0)
(2.75352e-08 -1.93629e-06 0)
(2.74865e-08 -1.94077e-06 0)
(2.74376e-08 -1.94525e-06 0)
(2.73884e-08 -1.94973e-06 0)
(2.73391e-08 -1.95421e-06 0)
(2.72895e-08 -1.9587e-06 0)
(2.72398e-08 -1.96319e-06 0)
(2.71898e-08 -1.96768e-06 0)
(2.71396e-08 -1.97218e-06 0)
(2.70892e-08 -1.97667e-06 0)
(2.70386e-08 -1.98117e-06 0)
(2.69878e-08 -1.98567e-06 0)
(2.69367e-08 -1.99018e-06 0)
(2.68855e-08 -1.99468e-06 0)
(2.6834e-08 -1.99919e-06 0)
(2.67824e-08 -2.0037e-06 0)
(2.67305e-08 -2.00821e-06 0)
(2.66784e-08 -2.01272e-06 0)
(2.6626e-08 -2.01724e-06 0)
(2.65735e-08 -2.02175e-06 0)
(2.65208e-08 -2.02627e-06 0)
(2.64678e-08 -2.03079e-06 0)
(2.64146e-08 -2.03531e-06 0)
(2.63612e-08 -2.03983e-06 0)
(2.63076e-08 -2.04436e-06 0)
(2.62538e-08 -2.04888e-06 0)
(2.61998e-08 -2.05341e-06 0)
(2.61455e-08 -2.05794e-06 0)
(2.60911e-08 -2.06247e-06 0)
(2.60364e-08 -2.067e-06 0)
(2.59815e-08 -2.07153e-06 0)
(2.59263e-08 -2.07607e-06 0)
(2.5871e-08 -2.0806e-06 0)
(2.58154e-08 -2.08513e-06 0)
(2.57597e-08 -2.08967e-06 0)
(2.57037e-08 -2.09421e-06 0)
(2.56475e-08 -2.09874e-06 0)
(2.5591e-08 -2.10328e-06 0)
(2.55344e-08 -2.10782e-06 0)
(2.54775e-08 -2.11236e-06 0)
(2.54204e-08 -2.1169e-06 0)
(2.53631e-08 -2.12144e-06 0)
(2.53056e-08 -2.12598e-06 0)
(2.52479e-08 -2.13052e-06 0)
(2.51899e-08 -2.13507e-06 0)
(2.51317e-08 -2.13961e-06 0)
(2.50733e-08 -2.14415e-06 0)
(2.50147e-08 -2.14869e-06 0)
(2.49559e-08 -2.15323e-06 0)
(2.48968e-08 -2.15778e-06 0)
(2.48376e-08 -2.16232e-06 0)
(2.47781e-08 -2.16686e-06 0)
(2.47184e-08 -2.1714e-06 0)
(2.46584e-08 -2.17594e-06 0)
(2.45983e-08 -2.18048e-06 0)
(2.45379e-08 -2.18502e-06 0)
(2.44773e-08 -2.18956e-06 0)
(2.44165e-08 -2.1941e-06 0)
(2.43555e-08 -2.19864e-06 0)
(2.42943e-08 -2.20318e-06 0)
(2.42328e-08 -2.20772e-06 0)
(2.41711e-08 -2.21225e-06 0)
(2.41092e-08 -2.21679e-06 0)
(2.40471e-08 -2.22132e-06 0)
(2.39848e-08 -2.22586e-06 0)
(2.39222e-08 -2.23039e-06 0)
(2.38595e-08 -2.23492e-06 0)
(2.37965e-08 -2.23945e-06 0)
(2.37333e-08 -2.24398e-06 0)
(2.36699e-08 -2.24851e-06 0)
(2.36063e-08 -2.25303e-06 0)
(2.35424e-08 -2.25756e-06 0)
(2.34783e-08 -2.26208e-06 0)
(2.34141e-08 -2.2666e-06 0)
(2.33496e-08 -2.27112e-06 0)
(2.32849e-08 -2.27564e-06 0)
(2.32199e-08 -2.28015e-06 0)
(2.31548e-08 -2.28466e-06 0)
(2.30894e-08 -2.28918e-06 0)
(2.30239e-08 -2.29368e-06 0)
(2.29581e-08 -2.29819e-06 0)
(2.28921e-08 -2.3027e-06 0)
(2.28259e-08 -2.3072e-06 0)
(2.27595e-08 -2.3117e-06 0)
(2.26929e-08 -2.31619e-06 0)
(2.2626e-08 -2.32069e-06 0)
(2.2559e-08 -2.32518e-06 0)
(2.24917e-08 -2.32967e-06 0)
(2.24242e-08 -2.33415e-06 0)
(2.23566e-08 -2.33864e-06 0)
(2.22887e-08 -2.34312e-06 0)
(2.22206e-08 -2.34759e-06 0)
(2.21523e-08 -2.35207e-06 0)
(2.20838e-08 -2.35654e-06 0)
(2.2015e-08 -2.361e-06 0)
(2.19461e-08 -2.36547e-06 0)
(2.1877e-08 -2.36993e-06 0)
(2.18077e-08 -2.37438e-06 0)
(2.17381e-08 -2.37884e-06 0)
(2.16684e-08 -2.38329e-06 0)
(2.15984e-08 -2.38773e-06 0)
(2.15283e-08 -2.39217e-06 0)
(2.14579e-08 -2.39661e-06 0)
(2.13874e-08 -2.40104e-06 0)
(2.13166e-08 -2.40547e-06 0)
(2.12457e-08 -2.40989e-06 0)
(2.11745e-08 -2.41431e-06 0)
(2.11032e-08 -2.41874e-06 0)
(2.10323e-08 -2.42312e-06 0)
(2.09634e-08 -2.42729e-06 0)
(2.08972e-08 -2.43126e-06 0)
(2.08322e-08 -2.4352e-06 0)
(2.07667e-08 -2.43917e-06 0)
(2.07006e-08 -2.44319e-06 0)
(2.06337e-08 -2.44725e-06 0)
(2.05661e-08 -2.45133e-06 0)
(2.04978e-08 -2.45544e-06 0)
(2.04287e-08 -2.45958e-06 0)
(2.03588e-08 -2.46375e-06 0)
(2.02881e-08 -2.46796e-06 0)
(2.02167e-08 -2.47219e-06 0)
(2.01444e-08 -2.47646e-06 0)
(2.00714e-08 -2.48076e-06 0)
(1.99975e-08 -2.48508e-06 0)
(1.99228e-08 -2.48944e-06 0)
(1.98473e-08 -2.49383e-06 0)
(1.9771e-08 -2.49825e-06 0)
(1.96939e-08 -2.5027e-06 0)
(1.96159e-08 -2.50718e-06 0)
(1.9537e-08 -2.51169e-06 0)
(1.94573e-08 -2.51623e-06 0)
(1.93767e-08 -2.52081e-06 0)
(1.92953e-08 -2.52541e-06 0)
(1.92129e-08 -2.53004e-06 0)
(1.91297e-08 -2.53471e-06 0)
(1.90456e-08 -2.5394e-06 0)
(1.89606e-08 -2.54412e-06 0)
(1.88746e-08 -2.54888e-06 0)
(1.87878e-08 -2.55366e-06 0)
(1.87e-08 -2.55847e-06 0)
(1.86113e-08 -2.56332e-06 0)
(1.85217e-08 -2.56819e-06 0)
(1.84311e-08 -2.57309e-06 0)
(1.83396e-08 -2.57802e-06 0)
(1.82471e-08 -2.58297e-06 0)
(1.81537e-08 -2.58796e-06 0)
(1.80592e-08 -2.59297e-06 0)
(1.79638e-08 -2.59802e-06 0)
(1.78675e-08 -2.60309e-06 0)
(1.77701e-08 -2.60818e-06 0)
(1.76717e-08 -2.61331e-06 0)
(1.75724e-08 -2.61846e-06 0)
(1.7472e-08 -2.62364e-06 0)
(1.73706e-08 -2.62884e-06 0)
(1.72682e-08 -2.63407e-06 0)
(1.71648e-08 -2.63932e-06 0)
(1.70603e-08 -2.6446e-06 0)
(1.69548e-08 -2.64991e-06 0)
(1.68483e-08 -2.65524e-06 0)
(1.67408e-08 -2.66059e-06 0)
(1.66321e-08 -2.66596e-06 0)
(1.65225e-08 -2.67136e-06 0)
(1.64117e-08 -2.67678e-06 0)
(1.63e-08 -2.68222e-06 0)
(1.61871e-08 -2.68769e-06 0)
(1.60732e-08 -2.69317e-06 0)
(1.59582e-08 -2.69868e-06 0)
(1.58422e-08 -2.7042e-06 0)
(1.57251e-08 -2.70975e-06 0)
(1.56069e-08 -2.71531e-06 0)
(1.54876e-08 -2.72089e-06 0)
(1.53672e-08 -2.72648e-06 0)
(1.52458e-08 -2.7321e-06 0)
(1.51233e-08 -2.73773e-06 0)
(1.49997e-08 -2.74337e-06 0)
(1.4875e-08 -2.74903e-06 0)
(1.47492e-08 -2.7547e-06 0)
(1.46224e-08 -2.76038e-06 0)
(1.44944e-08 -2.76608e-06 0)
(1.43654e-08 -2.77179e-06 0)
(1.42354e-08 -2.77751e-06 0)
(1.41042e-08 -2.78323e-06 0)
(1.3972e-08 -2.78897e-06 0)
(1.38387e-08 -2.79471e-06 0)
(1.37044e-08 -2.80046e-06 0)
(1.35689e-08 -2.80621e-06 0)
(1.34325e-08 -2.81197e-06 0)
(1.3295e-08 -2.81773e-06 0)
(1.31564e-08 -2.8235e-06 0)
(1.30168e-08 -2.82927e-06 0)
(1.28762e-08 -2.83503e-06 0)
(1.27346e-08 -2.8408e-06 0)
(1.25919e-08 -2.84656e-06 0)
(1.24483e-08 -2.85232e-06 0)
(1.23037e-08 -2.85808e-06 0)
(1.2158e-08 -2.86382e-06 0)
(1.20114e-08 -2.86957e-06 0)
(1.18639e-08 -2.8753e-06 0)
(1.17154e-08 -2.88103e-06 0)
(1.1566e-08 -2.88674e-06 0)
(1.14156e-08 -2.89244e-06 0)
(1.12644e-08 -2.89813e-06 0)
(1.11122e-08 -2.9038e-06 0)
(1.09592e-08 -2.90945e-06 0)
(1.08054e-08 -2.91509e-06 0)
(1.06507e-08 -2.92071e-06 0)
(1.04951e-08 -2.92631e-06 0)
(1.03388e-08 -2.93188e-06 0)
(1.01817e-08 -2.93743e-06 0)
(1.00239e-08 -2.94295e-06 0)
(9.86528e-09 -2.94845e-06 0)
(9.70599e-09 -2.95391e-06 0)
(9.546e-09 -2.95935e-06 0)
(9.38535e-09 -2.96475e-06 0)
(9.22407e-09 -2.97012e-06 0)
(9.06218e-09 -2.97545e-06 0)
(8.8997e-09 -2.98075e-06 0)
(8.73667e-09 -2.986e-06 0)
(8.57312e-09 -2.99122e-06 0)
(8.40907e-09 -2.99639e-06 0)
(8.24455e-09 -3.00151e-06 0)
(8.07961e-09 -3.00659e-06 0)
(7.91427e-09 -3.01162e-06 0)
(7.74857e-09 -3.0166e-06 0)
(7.58254e-09 -3.02152e-06 0)
(7.41621e-09 -3.02639e-06 0)
(7.24963e-09 -3.03121e-06 0)
(7.08283e-09 -3.03596e-06 0)
(6.91585e-09 -3.04066e-06 0)
(6.74873e-09 -3.04529e-06 0)
(6.58152e-09 -3.04986e-06 0)
(6.41424e-09 -3.05436e-06 0)
(6.24694e-09 -3.0588e-06 0)
(6.07968e-09 -3.06316e-06 0)
(5.91248e-09 -3.06745e-06 0)
(5.7454e-09 -3.07166e-06 0)
(5.57848e-09 -3.0758e-06 0)
(5.41176e-09 -3.07986e-06 0)
(5.2453e-09 -3.08384e-06 0)
(5.07914e-09 -3.08774e-06 0)
(4.91332e-09 -3.09155e-06 0)
(4.74791e-09 -3.09528e-06 0)
(4.58294e-09 -3.09891e-06 0)
(4.41847e-09 -3.10246e-06 0)
(4.25456e-09 -3.10591e-06 0)
(4.09124e-09 -3.10927e-06 0)
(3.92857e-09 -3.11253e-06 0)
(3.76662e-09 -3.1157e-06 0)
(3.60542e-09 -3.11876e-06 0)
(3.44503e-09 -3.12172e-06 0)
(3.28551e-09 -3.12458e-06 0)
(3.12692e-09 -3.12732e-06 0)
(2.9693e-09 -3.12997e-06 0)
(2.81271e-09 -3.1325e-06 0)
(2.65721e-09 -3.13492e-06 0)
(2.50285e-09 -3.13723e-06 0)
(2.34969e-09 -3.13942e-06 0)
(2.19779e-09 -3.1415e-06 0)
(2.04719e-09 -3.14346e-06 0)
(1.89796e-09 -3.1453e-06 0)
(1.75016e-09 -3.14701e-06 0)
(1.60383e-09 -3.14861e-06 0)
(1.45903e-09 -3.15008e-06 0)
(1.31581e-09 -3.15143e-06 0)
(1.17424e-09 -3.15265e-06 0)
(1.03436e-09 -3.15374e-06 0)
(8.96219e-10 -3.1547e-06 0)
(7.5988e-10 -3.15553e-06 0)
(6.25388e-10 -3.15623e-06 0)
(4.92795e-10 -3.1568e-06 0)
(3.62149e-10 -3.15724e-06 0)
(2.335e-10 -3.15754e-06 0)
(1.06894e-10 -3.15771e-06 0)
(-1.76222e-11 -3.15774e-06 0)
(-1.40003e-10 -3.15763e-06 0)
(-2.60203e-10 -3.15739e-06 0)
(-3.78179e-10 -3.15701e-06 0)
(-4.9389e-10 -3.1565e-06 0)
(-6.07293e-10 -3.15584e-06 0)
(-7.18349e-10 -3.15505e-06 0)
(-8.27019e-10 -3.15412e-06 0)
(-9.33265e-10 -3.15306e-06 0)
(-1.03705e-09 -3.15185e-06 0)
(-1.13834e-09 -3.15051e-06 0)
(-1.2371e-09 -3.14903e-06 0)
(-1.33331e-09 -3.14741e-06 0)
(-1.4269e-09 -3.14565e-06 0)
(-1.518e-09 -3.14376e-06 0)
(-1.60588e-09 -3.14172e-06 0)
(-1.6931e-09 -3.13956e-06 0)
(-1.78479e-09 -3.13703e-06 0)
(-1.8788e-09 -3.13403e-06 0)
(-1.96976e-09 -3.1309e-06 0)
(-2.05605e-09 -3.12762e-06 0)
(-2.13757e-09 -3.12421e-06 0)
(-2.21436e-09 -3.12066e-06 0)
(-2.28654e-09 -3.117e-06 0)
(-2.3542e-09 -3.11323e-06 0)
(-2.41749e-09 -3.10935e-06 0)
(-2.47654e-09 -3.10537e-06 0)
(-2.53148e-09 -3.1013e-06 0)
(-2.58244e-09 -3.09715e-06 0)
(-2.62955e-09 -3.09291e-06 0)
(-2.67292e-09 -3.08861e-06 0)
(-2.71266e-09 -3.08423e-06 0)
(-2.7489e-09 -3.0798e-06 0)
(-2.78174e-09 -3.07531e-06 0)
(-2.81129e-09 -3.07076e-06 0)
(-2.83765e-09 -3.06618e-06 0)
(-2.86093e-09 -3.06155e-06 0)
(-2.88122e-09 -3.05689e-06 0)
(-2.89861e-09 -3.0522e-06 0)
(-2.9132e-09 -3.04748e-06 0)
(-2.92507e-09 -3.04275e-06 0)
(-2.9343e-09 -3.03799e-06 0)
(-2.94099e-09 -3.03322e-06 0)
(-2.94521e-09 -3.02845e-06 0)
(-2.94703e-09 -3.02367e-06 0)
(-2.94652e-09 -3.01888e-06 0)
(-2.94377e-09 -3.01411e-06 0)
(-2.93883e-09 -3.00933e-06 0)
(-2.93178e-09 -3.00457e-06 0)
(-2.92267e-09 -2.99982e-06 0)
(-2.91156e-09 -2.99509e-06 0)
(-2.89852e-09 -2.99037e-06 0)
(-2.88361e-09 -2.98568e-06 0)
(-2.86687e-09 -2.98102e-06 0)
(-2.84836e-09 -2.97638e-06 0)
(-2.82813e-09 -2.97178e-06 0)
(-2.80623e-09 -2.96721e-06 0)
(-2.78271e-09 -2.96268e-06 0)
(-2.75761e-09 -2.95818e-06 0)
(-2.73097e-09 -2.95373e-06 0)
(-2.70285e-09 -2.94932e-06 0)
(-2.67327e-09 -2.94496e-06 0)
(-2.64229e-09 -2.94065e-06 0)
(-2.60993e-09 -2.93639e-06 0)
(-2.57624e-09 -2.93218e-06 0)
(-2.54124e-09 -2.92803e-06 0)
(-2.50499e-09 -2.92394e-06 0)
(-2.46749e-09 -2.91991e-06 0)
(-2.42881e-09 -2.91594e-06 0)
(-2.38895e-09 -2.91203e-06 0)
(-2.34796e-09 -2.90819e-06 0)
(-2.30585e-09 -2.90441e-06 0)
(-2.26268e-09 -2.9007e-06 0)
(-2.21845e-09 -2.89707e-06 0)
(-2.1732e-09 -2.89351e-06 0)
(-2.12695e-09 -2.89002e-06 0)
(-2.07974e-09 -2.88661e-06 0)
(-2.03159e-09 -2.88327e-06 0)
(-1.98253e-09 -2.88001e-06 0)
(-1.93257e-09 -2.87683e-06 0)
(-1.88175e-09 -2.87374e-06 0)
(-1.8301e-09 -2.87073e-06 0)
(-1.77763e-09 -2.8678e-06 0)
(-1.72437e-09 -2.86496e-06 0)
(-1.67036e-09 -2.8622e-06 0)
(-1.6156e-09 -2.85953e-06 0)
(-1.56013e-09 -2.85696e-06 0)
(-1.50397e-09 -2.85447e-06 0)
(-1.44716e-09 -2.85207e-06 0)
(-1.3897e-09 -2.84977e-06 0)
(-1.33163e-09 -2.84756e-06 0)
(-1.27297e-09 -2.84544e-06 0)
(-1.21374e-09 -2.84342e-06 0)
(-1.15398e-09 -2.8415e-06 0)
(-1.09371e-09 -2.83967e-06 0)
(-1.03294e-09 -2.83794e-06 0)
(-9.71719e-10 -2.83631e-06 0)
(-9.10056e-10 -2.83478e-06 0)
(-8.47985e-10 -2.83335e-06 0)
(-7.85531e-10 -2.83202e-06 0)
(-7.22723e-10 -2.83079e-06 0)
(-6.5959e-10 -2.82966e-06 0)
(-5.96167e-10 -2.82866e-06 0)
(-5.3248e-10 -2.82767e-06 0)
(-4.6858e-10 -2.82705e-06 0)
(-4.04461e-10 -2.82568e-06 0)
(-3.40307e-10 -2.82722e-06 0)
(-2.7567e-10 -2.81936e-06 0)
(-2.12164e-10 -2.84191e-06 0)
(-1.44652e-10 -2.75655e-06 0)
(-9.02024e-11 -2.98274e-06 0)
(-3.61819e-11 -2.60509e-06 0)
)
;
    }
    bottomWall
    {
        type            calculated;
        value           nonuniform List<vector> 
449
(
(-48.5125 -0.963816 0)
(-19.7472 -0.00515203 0)
(-14.3457 -0.0011328 0)
(-12.0436 -0.000542693 0)
(-10.649 -0.000346683 0)
(-9.67647 -0.0002467 0)
(-8.96058 -0.000178767 0)
(-8.45014 -0.000115588 0)
(-8.16624 -3.43308e-05 0)
(-8.21576 0.000122329 0)
(-9.01695 0.000295927 0)
(-10.2676 0.000319464 0)
(-11.231 0.000220826 0)
(-11.8007 0.000126377 0)
(-12.111 6.80958e-05 0)
(-12.2762 3.43925e-05 0)
(-12.3517 1.29833e-05 0)
(-12.3672 -1.63264e-06 0)
(-12.34 -1.10211e-05 0)
(-12.2893 -1.67116e-05 0)
(-12.2218 -2.03581e-05 0)
(-12.145 -2.22569e-05 0)
(-12.0636 -2.30757e-05 0)
(-11.9806 -2.3233e-05 0)
(-11.8977 -2.29958e-05 0)
(-11.816 -2.25459e-05 0)
(-11.736 -2.19628e-05 0)
(-11.6581 -2.12802e-05 0)
(-11.5826 -2.05586e-05 0)
(-11.5095 -1.98288e-05 0)
(-11.439 -1.91086e-05 0)
(-11.3708 -1.84081e-05 0)
(-11.305 -1.77335e-05 0)
(-11.2415 -1.70855e-05 0)
(-11.1801 -1.64776e-05 0)
(-11.1207 -1.5908e-05 0)
(-11.0633 -1.53582e-05 0)
(-11.0077 -1.48285e-05 0)
(-10.9538 -1.43254e-05 0)
(-10.9017 -1.38487e-05 0)
(-10.8511 -1.33958e-05 0)
(-10.8021 -1.29665e-05 0)
(-10.7545 -1.25608e-05 0)
(-10.7083 -1.21755e-05 0)
(-10.6634 -1.18094e-05 0)
(-10.6197 -1.146e-05 0)
(-10.5772 -1.11291e-05 0)
(-10.5358 -1.08122e-05 0)
(-10.4955 -1.05206e-05 0)
(-10.4561 -1.02649e-05 0)
(-10.4176 -1.00317e-05 0)
(-10.3798 -9.81312e-06 0)
(-10.3427 -9.60065e-06 0)
(-10.3064 -9.39042e-06 0)
(-10.2707 -9.18443e-06 0)
(-10.2358 -8.97978e-06 0)
(-10.2016 -8.77947e-06 0)
(-10.1681 -8.5859e-06 0)
(-10.1352 -8.39636e-06 0)
(-10.1029 -8.21277e-06 0)
(-10.0713 -8.03631e-06 0)
(-10.0403 -7.86683e-06 0)
(-10.0099 -7.70136e-06 0)
(-9.98005 -7.53986e-06 0)
(-9.95075 -7.38417e-06 0)
(-9.92197 -7.23532e-06 0)
(-9.89371 -7.09105e-06 0)
(-9.86594 -6.95074e-06 0)
(-9.83865 -6.81437e-06 0)
(-9.81183 -6.68651e-06 0)
(-9.78544 -6.56443e-06 0)
(-9.75947 -6.44289e-06 0)
(-9.73392 -6.3247e-06 0)
(-9.70878 -6.20963e-06 0)
(-9.68403 -6.09732e-06 0)
(-9.65968 -5.9874e-06 0)
(-9.6357 -5.88068e-06 0)
(-9.6121 -5.77723e-06 0)
(-9.58885 -5.6769e-06 0)
(-9.56595 -5.57949e-06 0)
(-9.54338 -5.48489e-06 0)
(-9.52115 -5.39291e-06 0)
(-9.49923 -5.30412e-06 0)
(-9.47762 -5.21781e-06 0)
(-9.45631 -5.13395e-06 0)
(-9.43529 -5.05287e-06 0)
(-9.41455 -4.97315e-06 0)
(-9.39409 -4.89555e-06 0)
(-9.3739 -4.81948e-06 0)
(-9.35397 -4.74516e-06 0)
(-9.33431 -4.67342e-06 0)
(-9.31489 -4.60293e-06 0)
(-9.29572 -4.53519e-06 0)
(-9.27678 -4.46845e-06 0)
(-9.25808 -4.40284e-06 0)
(-9.23961 -4.34015e-06 0)
(-9.22136 -4.27808e-06 0)
(-9.20332 -4.21786e-06 0)
(-9.18549 -4.159e-06 0)
(-9.16788 -4.10251e-06 0)
(-9.15045 -4.0506e-06 0)
(-9.13319 -3.99835e-06 0)
(-9.11613 -3.9446e-06 0)
(-9.09925 -3.89278e-06 0)
(-9.08255 -3.84148e-06 0)
(-9.06604 -3.79067e-06 0)
(-9.04971 -3.74241e-06 0)
(-9.03354 -3.69435e-06 0)
(-9.01755 -3.64653e-06 0)
(-9.00172 -3.60145e-06 0)
(-8.98604 -3.55633e-06 0)
(-8.97054 -3.51138e-06 0)
(-8.95518 -3.46905e-06 0)
(-8.93998 -3.4267e-06 0)
(-8.92493 -3.38448e-06 0)
(-8.91002 -3.34455e-06 0)
(-8.89525 -3.30486e-06 0)
(-8.88063 -3.26517e-06 0)
(-8.86615 -3.22723e-06 0)
(-8.8518 -3.18998e-06 0)
(-8.83758 -3.15265e-06 0)
(-8.82349 -3.11646e-06 0)
(-8.80953 -3.08156e-06 0)
(-8.7957 -3.04653e-06 0)
(-8.78199 -3.01187e-06 0)
(-8.7684 -2.97885e-06 0)
(-8.75493 -2.94613e-06 0)
(-8.74158 -2.91324e-06 0)
(-8.72834 -2.88155e-06 0)
(-8.71522 -2.85096e-06 0)
(-8.7022 -2.82005e-06 0)
(-8.6893 -2.78942e-06 0)
(-8.6765 -2.76043e-06 0)
(-8.6638 -2.73159e-06 0)
(-8.65121 -2.70238e-06 0)
(-8.63873 -2.67425e-06 0)
(-8.62634 -2.64739e-06 0)
(-8.61405 -2.61999e-06 0)
(-8.60186 -2.59259e-06 0)
(-8.58976 -2.56668e-06 0)
(-8.57776 -2.54134e-06 0)
(-8.56584 -2.51547e-06 0)
(-8.55403 -2.49016e-06 0)
(-8.5423 -2.46639e-06 0)
(-8.53065 -2.44413e-06 0)
(-8.51908 -2.42176e-06 0)
(-8.50759 -2.39861e-06 0)
(-8.49618 -2.37567e-06 0)
(-8.48486 -2.35293e-06 0)
(-8.47362 -2.33004e-06 0)
(-8.46246 -2.3077e-06 0)
(-8.45138 -2.28617e-06 0)
(-8.44038 -2.26487e-06 0)
(-8.42945 -2.24334e-06 0)
(-8.41861 -2.22223e-06 0)
(-8.40784 -2.20196e-06 0)
(-8.39714 -2.18195e-06 0)
(-8.38651 -2.16166e-06 0)
(-8.37596 -2.14166e-06 0)
(-8.36548 -2.1225e-06 0)
(-8.35507 -2.10371e-06 0)
(-8.34473 -2.08457e-06 0)
(-8.33446 -2.06554e-06 0)
(-8.32425 -2.04737e-06 0)
(-8.31412 -2.02975e-06 0)
(-8.30404 -2.01169e-06 0)
(-8.29403 -1.99356e-06 0)
(-8.28409 -1.97625e-06 0)
(-8.27421 -1.95966e-06 0)
(-8.26439 -1.94259e-06 0)
(-8.25464 -1.92574e-06 0)
(-8.24494 -1.90902e-06 0)
(-8.23531 -1.89064e-06 0)
(-8.22628 -1.87714e-06 0)
(-8.21777 -1.86554e-06 0)
(-8.20924 -1.84956e-06 0)
(-8.20069 -1.83479e-06 0)
(-8.19211 -1.82116e-06 0)
(-8.1835 -1.80721e-06 0)
(-8.17487 -1.79309e-06 0)
(-8.16621 -1.77884e-06 0)
(-8.15753 -1.76512e-06 0)
(-8.14882 -1.75153e-06 0)
(-8.14008 -1.73785e-06 0)
(-8.13132 -1.72389e-06 0)
(-8.12253 -1.70999e-06 0)
(-8.11372 -1.69646e-06 0)
(-8.10489 -1.6831e-06 0)
(-8.09603 -1.66956e-06 0)
(-8.08714 -1.65582e-06 0)
(-8.07824 -1.64225e-06 0)
(-8.0693 -1.62899e-06 0)
(-8.06035 -1.61587e-06 0)
(-8.05137 -1.60249e-06 0)
(-8.04237 -1.58894e-06 0)
(-8.03335 -1.57575e-06 0)
(-8.02431 -1.56279e-06 0)
(-8.01524 -1.54985e-06 0)
(-8.00615 -1.53666e-06 0)
(-7.99704 -1.52349e-06 0)
(-7.98791 -1.51065e-06 0)
(-7.97876 -1.49806e-06 0)
(-7.96959 -1.48523e-06 0)
(-7.9604 -1.47222e-06 0)
(-7.95119 -1.45953e-06 0)
(-7.94195 -1.44728e-06 0)
(-7.9327 -1.43523e-06 0)
(-7.92342 -1.42327e-06 0)
(-7.91412 -1.41157e-06 0)
(-7.9048 -1.39975e-06 0)
(-7.89545 -1.38754e-06 0)
(-7.88609 -1.37507e-06 0)
(-7.87671 -1.36252e-06 0)
(-7.86732 -1.3504e-06 0)
(-7.85791 -1.3385e-06 0)
(-7.84848 -1.32641e-06 0)
(-7.83903 -1.31411e-06 0)
(-7.82957 -1.30214e-06 0)
(-7.8201 -1.29044e-06 0)
(-7.81061 -1.27863e-06 0)
(-7.8011 -1.2666e-06 0)
(-7.79158 -1.25477e-06 0)
(-7.78205 -1.24326e-06 0)
(-7.7725 -1.2317e-06 0)
(-7.76294 -1.21992e-06 0)
(-7.75336 -1.20828e-06 0)
(-7.74378 -1.19697e-06 0)
(-7.73418 -1.18565e-06 0)
(-7.72457 -1.17412e-06 0)
(-7.71495 -1.16268e-06 0)
(-7.70532 -1.15159e-06 0)
(-7.69568 -1.1405e-06 0)
(-7.68603 -1.12923e-06 0)
(-7.67637 -1.11804e-06 0)
(-7.6667 -1.10717e-06 0)
(-7.65702 -1.09633e-06 0)
(-7.64734 -1.08532e-06 0)
(-7.63764 -1.07441e-06 0)
(-7.62794 -1.06378e-06 0)
(-7.61824 -1.05317e-06 0)
(-7.60852 -1.04242e-06 0)
(-7.5988 -1.03177e-06 0)
(-7.58908 -1.02137e-06 0)
(-7.57934 -1.01097e-06 0)
(-7.56961 -1.00046e-06 0)
(-7.55987 -9.90075e-07 0)
(-7.55012 -9.79903e-07 0)
(-7.54037 -9.69729e-07 0)
(-7.53062 -9.59469e-07 0)
(-7.52087 -9.49351e-07 0)
(-7.51112 -9.39441e-07 0)
(-7.50136 -9.29501e-07 0)
(-7.4916 -9.19496e-07 0)
(-7.48184 -9.09673e-07 0)
(-7.47208 -9.00039e-07 0)
(-7.46232 -8.90333e-07 0)
(-7.45256 -8.80567e-07 0)
(-7.44281 -8.71052e-07 0)
(-7.43305 -8.61662e-07 0)
(-7.42329 -8.52187e-07 0)
(-7.41354 -8.42712e-07 0)
(-7.40379 -8.33493e-07 0)
(-7.39404 -8.24332e-07 0)
(-7.3843 -8.15102e-07 0)
(-7.37456 -8.05956e-07 0)
(-7.36483 -7.97054e-07 0)
(-7.35509 -7.88122e-07 0)
(-7.34537 -7.79138e-07 0)
(-7.33565 -7.70308e-07 0)
(-7.32594 -7.61815e-07 0)
(-7.31622 -7.53533e-07 0)
(-7.30651 -7.4511e-07 0)
(-7.2968 -7.36574e-07 0)
(-7.28711 -7.28098e-07 0)
(-7.27741 -7.19522e-07 0)
(-7.26774 -7.11071e-07 0)
(-7.25807 -7.0282e-07 0)
(-7.24841 -6.94559e-07 0)
(-7.23876 -6.86238e-07 0)
(-7.22912 -6.78149e-07 0)
(-7.21949 -6.70178e-07 0)
(-7.20987 -6.62136e-07 0)
(-7.20027 -6.5415e-07 0)
(-7.19068 -6.46394e-07 0)
(-7.18109 -6.38625e-07 0)
(-7.17153 -6.30817e-07 0)
(-7.16197 -6.23179e-07 0)
(-7.15243 -6.15672e-07 0)
(-7.1429 -6.08109e-07 0)
(-7.13339 -6.00593e-07 0)
(-7.12389 -5.933e-07 0)
(-7.11441 -5.86013e-07 0)
(-7.10493 -5.78703e-07 0)
(-7.09549 -5.71551e-07 0)
(-7.08604 -5.64533e-07 0)
(-7.07663 -5.57463e-07 0)
(-7.06722 -5.50465e-07 0)
(-7.05783 -5.43651e-07 0)
(-7.04846 -5.36858e-07 0)
(-7.03911 -5.30039e-07 0)
(-7.02977 -5.23396e-07 0)
(-7.02045 -5.16834e-07 0)
(-7.01115 -5.10256e-07 0)
(-7.00187 -5.03744e-07 0)
(-6.9926 -4.97413e-07 0)
(-6.98335 -4.91065e-07 0)
(-6.97412 -4.84751e-07 0)
(-6.96492 -4.78577e-07 0)
(-6.95572 -4.72493e-07 0)
(-6.94655 -4.6638e-07 0)
(-6.9374 -4.6038e-07 0)
(-6.92827 -4.54491e-07 0)
(-6.91916 -4.48607e-07 0)
(-6.91007 -4.4274e-07 0)
(-6.901 -4.37053e-07 0)
(-6.89195 -4.31387e-07 0)
(-6.88292 -4.25749e-07 0)
(-6.87391 -4.20204e-07 0)
(-6.86492 -4.14766e-07 0)
(-6.85595 -4.09309e-07 0)
(-6.84701 -4.03935e-07 0)
(-6.83808 -3.98676e-07 0)
(-6.82918 -3.93445e-07 0)
(-6.82029 -3.88229e-07 0)
(-6.81143 -3.83152e-07 0)
(-6.80259 -3.78112e-07 0)
(-6.79378 -3.73095e-07 0)
(-6.78498 -3.6815e-07 0)
(-6.77621 -3.63299e-07 0)
(-6.76746 -3.58447e-07 0)
(-6.75873 -3.53654e-07 0)
(-6.75003 -3.48966e-07 0)
(-6.74135 -3.44394e-07 0)
(-6.73268 -3.39879e-07 0)
(-6.72404 -3.35421e-07 0)
(-6.71542 -3.30956e-07 0)
(-6.70683 -3.26516e-07 0)
(-6.69825 -3.22129e-07 0)
(-6.6897 -3.17828e-07 0)
(-6.68117 -3.13527e-07 0)
(-6.67267 -3.09287e-07 0)
(-6.66419 -3.05132e-07 0)
(-6.65573 -3.01008e-07 0)
(-6.6473 -2.96901e-07 0)
(-6.63889 -2.92906e-07 0)
(-6.6305 -2.8893e-07 0)
(-6.62215 -2.84981e-07 0)
(-6.61381 -2.81082e-07 0)
(-6.6055 -2.77262e-07 0)
(-6.59721 -2.73441e-07 0)
(-6.58895 -2.69727e-07 0)
(-6.58071 -2.65982e-07 0)
(-6.5725 -2.62436e-07 0)
(-6.5643 -2.58936e-07 0)
(-6.55522 -2.54621e-07 0)
(-6.54536 -2.50074e-07 0)
(-6.53568 -2.46017e-07 0)
(-6.52613 -2.42098e-07 0)
(-6.51675 -2.38187e-07 0)
(-6.50751 -2.34406e-07 0)
(-6.49843 -2.30687e-07 0)
(-6.48948 -2.27051e-07 0)
(-6.48069 -2.23506e-07 0)
(-6.47201 -2.20052e-07 0)
(-6.46349 -2.16686e-07 0)
(-6.45508 -2.13446e-07 0)
(-6.44681 -2.10296e-07 0)
(-6.43864 -2.07222e-07 0)
(-6.43061 -2.04239e-07 0)
(-6.42268 -2.01327e-07 0)
(-6.41488 -1.98477e-07 0)
(-6.40717 -1.95698e-07 0)
(-6.39958 -1.92995e-07 0)
(-6.39209 -1.90347e-07 0)
(-6.38471 -1.87767e-07 0)
(-6.37741 -1.85271e-07 0)
(-6.37023 -1.82828e-07 0)
(-6.36312 -1.80439e-07 0)
(-6.35613 -1.78121e-07 0)
(-6.3492 -1.75857e-07 0)
(-6.34238 -1.73619e-07 0)
(-6.33563 -1.71437e-07 0)
(-6.32898 -1.69312e-07 0)
(-6.3224 -1.6723e-07 0)
(-6.31592 -1.65193e-07 0)
(-6.30949 -1.63216e-07 0)
(-6.30316 -1.6129e-07 0)
(-6.29689 -1.59378e-07 0)
(-6.2907 -1.57509e-07 0)
(-6.28458 -1.55682e-07 0)
(-6.27854 -1.53892e-07 0)
(-6.27255 -1.52124e-07 0)
(-6.26665 -1.50406e-07 0)
(-6.2608 -1.48735e-07 0)
(-6.25503 -1.47098e-07 0)
(-6.2493 -1.45475e-07 0)
(-6.24366 -1.43902e-07 0)
(-6.23806 -1.4236e-07 0)
(-6.23253 -1.40859e-07 0)
(-6.22705 -1.39363e-07 0)
(-6.22164 -1.37917e-07 0)
(-6.21627 -1.36485e-07 0)
(-6.21097 -1.35081e-07 0)
(-6.20571 -1.33687e-07 0)
(-6.20053 -1.3234e-07 0)
(-6.19537 -1.31017e-07 0)
(-6.19029 -1.29739e-07 0)
(-6.18523 -1.28459e-07 0)
(-6.18025 -1.27224e-07 0)
(-6.17529 -1.25993e-07 0)
(-6.1704 -1.24827e-07 0)
(-6.16553 -1.23639e-07 0)
(-6.16074 -1.22513e-07 0)
(-6.15596 -1.2137e-07 0)
(-6.15126 -1.20304e-07 0)
(-6.14656 -1.19205e-07 0)
(-6.14194 -1.18184e-07 0)
(-6.13732 -1.17102e-07 0)
(-6.13279 -1.1611e-07 0)
(-6.12825 -1.15054e-07 0)
(-6.1238 -1.14092e-07 0)
(-6.11933 -1.13055e-07 0)
(-6.11496 -1.12139e-07 0)
(-6.11057 -1.11141e-07 0)
(-6.10627 -1.10274e-07 0)
(-6.10195 -1.09307e-07 0)
(-6.09773 -1.08461e-07 0)
(-6.09347 -1.07515e-07 0)
(-6.08933 -1.06703e-07 0)
(-6.08513 -1.05799e-07 0)
(-6.08106 -1.05016e-07 0)
(-6.07693 -1.04148e-07 0)
(-6.07292 -1.03396e-07 0)
(-6.06885 -1.02587e-07 0)
(-6.0649 -1.01877e-07 0)
(-6.06088 -1.01156e-07 0)
(-6.057 -1.0046e-07 0)
(-6.05303 -9.98573e-08 0)
(-6.04919 -9.90746e-08 0)
(-6.04529 -9.88527e-08 0)
(-6.04147 -9.75311e-08 0)
(-6.03767 -9.8786e-08 0)
(-6.03374 -9.48184e-08 0)
(-6.03027 -1.01923e-07 0)
(-6.02576 -8.69937e-08 0)
(-6.02351 -1.13522e-07 0)
(-6.01681 -6.82532e-08 0)
(-6.01831 -9.31414e-08 0)
(-6.00929 -1.19903e-07 0)
)
;
    }
    symmetry
    {
        type            symmetryPlane;
    }
    frontAndBack
    {
        type            empty;
    }
}


// ************************************************************************* //
