/*--------------------------------*- C++ -*----------------------------------*\
| =========                 |                                                 |
| \\      /  F ield         | OpenFOAM: The Open Source CFD Toolbox           |
|  \\    /   O peration     | Version:  v2012                                 |
|   \\  /    A nd           | Website:  www.openfoam.com                      |
|    \\/     M anipulation  |                                                 |
\*---------------------------------------------------------------------------*/
FoamFile
{
    version     2.0;
    format      ascii;
    class       volVectorField;
    location    "16.5";
    object      wallShearStress;
}
// * * * * * * * * * * * * * * * * * * * * * * * * * * * * * * * * * * * * * //

dimensions      [0 2 -2 0 0 0 0];


internalField   uniform (0 0 0);

boundaryField
{
    inlet
    {
        type            calculated;
        value           uniform (0 0 0);
    }
    outlet
    {
        type            calculated;
        value           uniform (0 0 0);
    }
    topWall
    {
        type            calculated;
        value           nonuniform List<vector> 
545
(
(1.42723e-08 -1.00436e-08 0)
(1.42676e-08 -2.81101e-08 0)
(1.42488e-08 -4.68848e-08 0)
(1.4227e-08 -6.51066e-08 0)
(1.42003e-08 -8.25383e-08 0)
(1.41687e-08 -9.9402e-08 0)
(1.41326e-08 -1.1584e-07 0)
(1.40921e-08 -1.31844e-07 0)
(1.40477e-08 -1.47376e-07 0)
(1.39997e-08 -1.62436e-07 0)
(1.39486e-08 -1.77044e-07 0)
(1.38946e-08 -1.91215e-07 0)
(1.38381e-08 -2.04959e-07 0)
(1.37794e-08 -2.18286e-07 0)
(1.37187e-08 -2.31204e-07 0)
(1.36563e-08 -2.43725e-07 0)
(1.35924e-08 -2.5586e-07 0)
(1.35273e-08 -2.67619e-07 0)
(1.34612e-08 -2.79013e-07 0)
(1.33941e-08 -2.90051e-07 0)
(1.33264e-08 -3.00744e-07 0)
(1.32582e-08 -3.11102e-07 0)
(1.31896e-08 -3.21136e-07 0)
(1.31208e-08 -3.30854e-07 0)
(1.30519e-08 -3.40266e-07 0)
(1.2983e-08 -3.49382e-07 0)
(1.29142e-08 -3.5821e-07 0)
(1.28457e-08 -3.6676e-07 0)
(1.27774e-08 -3.7504e-07 0)
(1.27096e-08 -3.8306e-07 0)
(1.26422e-08 -3.90826e-07 0)
(1.25753e-08 -3.98347e-07 0)
(1.25091e-08 -4.05632e-07 0)
(1.24434e-08 -4.12687e-07 0)
(1.23785e-08 -4.1952e-07 0)
(1.23144e-08 -4.26138e-07 0)
(1.2251e-08 -4.32549e-07 0)
(1.21884e-08 -4.38759e-07 0)
(1.21266e-08 -4.44774e-07 0)
(1.20657e-08 -4.506e-07 0)
(1.20057e-08 -4.56245e-07 0)
(1.19467e-08 -4.61714e-07 0)
(1.18885e-08 -4.67013e-07 0)
(1.18313e-08 -4.72147e-07 0)
(1.1775e-08 -4.77121e-07 0)
(1.17197e-08 -4.81942e-07 0)
(1.16653e-08 -4.86613e-07 0)
(1.16119e-08 -4.91141e-07 0)
(1.15595e-08 -4.95529e-07 0)
(1.1508e-08 -4.99782e-07 0)
(1.14575e-08 -5.03904e-07 0)
(1.14079e-08 -5.07901e-07 0)
(1.13593e-08 -5.11775e-07 0)
(1.13116e-08 -5.15531e-07 0)
(1.12649e-08 -5.19173e-07 0)
(1.12191e-08 -5.22705e-07 0)
(1.11742e-08 -5.26129e-07 0)
(1.11303e-08 -5.2945e-07 0)
(1.10872e-08 -5.32671e-07 0)
(1.1045e-08 -5.35794e-07 0)
(1.10037e-08 -5.38824e-07 0)
(1.09633e-08 -5.41763e-07 0)
(1.09237e-08 -5.44615e-07 0)
(1.0885e-08 -5.47381e-07 0)
(1.0847e-08 -5.50064e-07 0)
(1.08099e-08 -5.52668e-07 0)
(1.07736e-08 -5.55195e-07 0)
(1.07381e-08 -5.57647e-07 0)
(1.07033e-08 -5.60026e-07 0)
(1.06693e-08 -5.62335e-07 0)
(1.06361e-08 -5.64578e-07 0)
(1.06032e-08 -5.66748e-07 0)
(1.05715e-08 -5.68835e-07 0)
(1.05413e-08 -5.70862e-07 0)
(1.05114e-08 -5.72858e-07 0)
(1.04816e-08 -5.74842e-07 0)
(1.04518e-08 -5.76816e-07 0)
(1.04222e-08 -5.78776e-07 0)
(1.03925e-08 -5.8072e-07 0)
(1.0363e-08 -5.8265e-07 0)
(1.03335e-08 -5.84565e-07 0)
(1.0304e-08 -5.86466e-07 0)
(1.02746e-08 -5.88354e-07 0)
(1.02453e-08 -5.90227e-07 0)
(1.0216e-08 -5.92086e-07 0)
(1.01868e-08 -5.93932e-07 0)
(1.01577e-08 -5.95764e-07 0)
(1.01286e-08 -5.97582e-07 0)
(1.00996e-08 -5.99387e-07 0)
(1.00707e-08 -6.01178e-07 0)
(1.00418e-08 -6.02956e-07 0)
(1.0013e-08 -6.0472e-07 0)
(9.98425e-09 -6.06474e-07 0)
(9.9554e-09 -6.08208e-07 0)
(9.92753e-09 -6.09951e-07 0)
(9.8959e-09 -6.1163e-07 0)
(9.86486e-09 -6.13171e-07 0)
(9.84031e-09 -6.14603e-07 0)
(9.81688e-09 -6.15965e-07 0)
(9.79365e-09 -6.17327e-07 0)
(9.77039e-09 -6.18706e-07 0)
(9.74706e-09 -6.20091e-07 0)
(9.72365e-09 -6.21473e-07 0)
(9.70014e-09 -6.22851e-07 0)
(9.67654e-09 -6.2423e-07 0)
(9.65286e-09 -6.25609e-07 0)
(9.62908e-09 -6.26989e-07 0)
(9.6052e-09 -6.28368e-07 0)
(9.58124e-09 -6.29747e-07 0)
(9.55719e-09 -6.31125e-07 0)
(9.53304e-09 -6.32504e-07 0)
(9.5088e-09 -6.33882e-07 0)
(9.48447e-09 -6.3526e-07 0)
(9.46004e-09 -6.36637e-07 0)
(9.43553e-09 -6.38015e-07 0)
(9.41092e-09 -6.39392e-07 0)
(9.38622e-09 -6.40768e-07 0)
(9.36143e-09 -6.42144e-07 0)
(9.33655e-09 -6.4352e-07 0)
(9.31157e-09 -6.44896e-07 0)
(9.2865e-09 -6.4627e-07 0)
(9.26134e-09 -6.47645e-07 0)
(9.23608e-09 -6.49019e-07 0)
(9.21073e-09 -6.50392e-07 0)
(9.18529e-09 -6.51765e-07 0)
(9.15976e-09 -6.53137e-07 0)
(9.13414e-09 -6.54509e-07 0)
(9.10842e-09 -6.5588e-07 0)
(9.08261e-09 -6.5725e-07 0)
(9.0567e-09 -6.5862e-07 0)
(9.03071e-09 -6.59989e-07 0)
(9.00462e-09 -6.61357e-07 0)
(8.97844e-09 -6.62725e-07 0)
(8.95216e-09 -6.64092e-07 0)
(8.92579e-09 -6.65458e-07 0)
(8.89933e-09 -6.66823e-07 0)
(8.87278e-09 -6.68187e-07 0)
(8.84613e-09 -6.69551e-07 0)
(8.81939e-09 -6.70913e-07 0)
(8.79256e-09 -6.72275e-07 0)
(8.76564e-09 -6.73635e-07 0)
(8.73862e-09 -6.74995e-07 0)
(8.71151e-09 -6.76354e-07 0)
(8.68431e-09 -6.77711e-07 0)
(8.65702e-09 -6.79068e-07 0)
(8.62963e-09 -6.80423e-07 0)
(8.60215e-09 -6.81778e-07 0)
(8.57458e-09 -6.83131e-07 0)
(8.54691e-09 -6.84483e-07 0)
(8.51916e-09 -6.85834e-07 0)
(8.49131e-09 -6.87183e-07 0)
(8.46337e-09 -6.88532e-07 0)
(8.43534e-09 -6.89879e-07 0)
(8.40721e-09 -6.91225e-07 0)
(8.379e-09 -6.92569e-07 0)
(8.35069e-09 -6.93912e-07 0)
(8.32229e-09 -6.95254e-07 0)
(8.2938e-09 -6.96594e-07 0)
(8.26522e-09 -6.97933e-07 0)
(8.23654e-09 -6.9927e-07 0)
(8.20778e-09 -7.00606e-07 0)
(8.17892e-09 -7.0194e-07 0)
(8.14998e-09 -7.03273e-07 0)
(8.12094e-09 -7.04604e-07 0)
(8.09182e-09 -7.05933e-07 0)
(8.0626e-09 -7.07261e-07 0)
(8.03329e-09 -7.08587e-07 0)
(8.00389e-09 -7.09912e-07 0)
(7.97441e-09 -7.11234e-07 0)
(7.94483e-09 -7.12555e-07 0)
(7.91516e-09 -7.13874e-07 0)
(7.88541e-09 -7.15191e-07 0)
(7.85556e-09 -7.16506e-07 0)
(7.82563e-09 -7.1782e-07 0)
(7.7956e-09 -7.19131e-07 0)
(7.76549e-09 -7.20441e-07 0)
(7.73529e-09 -7.21748e-07 0)
(7.70501e-09 -7.23054e-07 0)
(7.67463e-09 -7.24357e-07 0)
(7.64417e-09 -7.25658e-07 0)
(7.61362e-09 -7.26958e-07 0)
(7.58298e-09 -7.28255e-07 0)
(7.55226e-09 -7.29549e-07 0)
(7.52145e-09 -7.30842e-07 0)
(7.49055e-09 -7.32132e-07 0)
(7.45957e-09 -7.3342e-07 0)
(7.4285e-09 -7.34706e-07 0)
(7.39735e-09 -7.3599e-07 0)
(7.36611e-09 -7.37271e-07 0)
(7.33478e-09 -7.38549e-07 0)
(7.30338e-09 -7.39825e-07 0)
(7.27188e-09 -7.41099e-07 0)
(7.24031e-09 -7.4237e-07 0)
(7.20865e-09 -7.43638e-07 0)
(7.1769e-09 -7.44904e-07 0)
(7.14508e-09 -7.46168e-07 0)
(7.11317e-09 -7.47428e-07 0)
(7.08118e-09 -7.48686e-07 0)
(7.04911e-09 -7.49942e-07 0)
(7.01696e-09 -7.51194e-07 0)
(6.98472e-09 -7.52444e-07 0)
(6.95241e-09 -7.53691e-07 0)
(6.92001e-09 -7.54935e-07 0)
(6.88753e-09 -7.56176e-07 0)
(6.85498e-09 -7.57414e-07 0)
(6.82235e-09 -7.58649e-07 0)
(6.78963e-09 -7.59881e-07 0)
(6.75684e-09 -7.6111e-07 0)
(6.72398e-09 -7.62337e-07 0)
(6.69103e-09 -7.63559e-07 0)
(6.65801e-09 -7.64779e-07 0)
(6.62491e-09 -7.65996e-07 0)
(6.59174e-09 -7.67209e-07 0)
(6.55849e-09 -7.6842e-07 0)
(6.52516e-09 -7.69626e-07 0)
(6.49176e-09 -7.7083e-07 0)
(6.45829e-09 -7.7203e-07 0)
(6.42474e-09 -7.73227e-07 0)
(6.39112e-09 -7.7442e-07 0)
(6.35743e-09 -7.7561e-07 0)
(6.32367e-09 -7.76797e-07 0)
(6.28983e-09 -7.77979e-07 0)
(6.25593e-09 -7.79159e-07 0)
(6.22195e-09 -7.80334e-07 0)
(6.1879e-09 -7.81506e-07 0)
(6.15379e-09 -7.82675e-07 0)
(6.11961e-09 -7.83839e-07 0)
(6.08536e-09 -7.85e-07 0)
(6.05104e-09 -7.86157e-07 0)
(6.01665e-09 -7.8731e-07 0)
(5.9822e-09 -7.88459e-07 0)
(5.94768e-09 -7.89605e-07 0)
(5.9131e-09 -7.90746e-07 0)
(5.87846e-09 -7.91883e-07 0)
(5.84375e-09 -7.93017e-07 0)
(5.80897e-09 -7.94146e-07 0)
(5.77414e-09 -7.95271e-07 0)
(5.73924e-09 -7.96392e-07 0)
(5.70428e-09 -7.97509e-07 0)
(5.66927e-09 -7.98622e-07 0)
(5.63419e-09 -7.9973e-07 0)
(5.59905e-09 -8.00835e-07 0)
(5.56386e-09 -8.01934e-07 0)
(5.52861e-09 -8.0303e-07 0)
(5.4933e-09 -8.04121e-07 0)
(5.45793e-09 -8.05208e-07 0)
(5.42251e-09 -8.0629e-07 0)
(5.38704e-09 -8.07367e-07 0)
(5.35151e-09 -8.0844e-07 0)
(5.31593e-09 -8.09509e-07 0)
(5.2803e-09 -8.10573e-07 0)
(5.24461e-09 -8.11632e-07 0)
(5.20888e-09 -8.12686e-07 0)
(5.17309e-09 -8.13736e-07 0)
(5.13726e-09 -8.14781e-07 0)
(5.10138e-09 -8.15821e-07 0)
(5.06545e-09 -8.16856e-07 0)
(5.02947e-09 -8.17886e-07 0)
(4.99345e-09 -8.18912e-07 0)
(4.95738e-09 -8.19932e-07 0)
(4.92127e-09 -8.20947e-07 0)
(4.88512e-09 -8.21958e-07 0)
(4.84892e-09 -8.22963e-07 0)
(4.81269e-09 -8.23963e-07 0)
(4.7764e-09 -8.24958e-07 0)
(4.74011e-09 -8.25948e-07 0)
(4.70364e-09 -8.26929e-07 0)
(4.66772e-09 -8.27924e-07 0)
(4.62931e-09 -8.28873e-07 0)
(4.59136e-09 -8.29778e-07 0)
(4.55785e-09 -8.30675e-07 0)
(4.52515e-09 -8.31529e-07 0)
(4.49239e-09 -8.32382e-07 0)
(4.45938e-09 -8.33249e-07 0)
(4.42606e-09 -8.34123e-07 0)
(4.39242e-09 -8.34999e-07 0)
(4.35845e-09 -8.35875e-07 0)
(4.32416e-09 -8.36753e-07 0)
(4.28953e-09 -8.37635e-07 0)
(4.25457e-09 -8.38519e-07 0)
(4.21929e-09 -8.39406e-07 0)
(4.18366e-09 -8.40294e-07 0)
(4.1477e-09 -8.41185e-07 0)
(4.11141e-09 -8.42077e-07 0)
(4.07477e-09 -8.42971e-07 0)
(4.03779e-09 -8.43867e-07 0)
(4.00048e-09 -8.44764e-07 0)
(3.96282e-09 -8.45662e-07 0)
(3.92482e-09 -8.46562e-07 0)
(3.88647e-09 -8.47462e-07 0)
(3.84777e-09 -8.48363e-07 0)
(3.80873e-09 -8.49265e-07 0)
(3.76935e-09 -8.50167e-07 0)
(3.72961e-09 -8.5107e-07 0)
(3.68953e-09 -8.51973e-07 0)
(3.64909e-09 -8.52875e-07 0)
(3.60831e-09 -8.53778e-07 0)
(3.56717e-09 -8.54679e-07 0)
(3.52568e-09 -8.55581e-07 0)
(3.48384e-09 -8.56481e-07 0)
(3.44165e-09 -8.5738e-07 0)
(3.39911e-09 -8.58277e-07 0)
(3.35622e-09 -8.59173e-07 0)
(3.31297e-09 -8.60068e-07 0)
(3.26937e-09 -8.6096e-07 0)
(3.22543e-09 -8.6185e-07 0)
(3.18113e-09 -8.62737e-07 0)
(3.13648e-09 -8.63622e-07 0)
(3.09148e-09 -8.64503e-07 0)
(3.04613e-09 -8.65381e-07 0)
(3.00044e-09 -8.66255e-07 0)
(2.95439e-09 -8.67126e-07 0)
(2.90801e-09 -8.67992e-07 0)
(2.86128e-09 -8.68854e-07 0)
(2.8142e-09 -8.69711e-07 0)
(2.76679e-09 -8.70563e-07 0)
(2.71904e-09 -8.71409e-07 0)
(2.67095e-09 -8.7225e-07 0)
(2.62252e-09 -8.73084e-07 0)
(2.57377e-09 -8.73912e-07 0)
(2.52468e-09 -8.74733e-07 0)
(2.47527e-09 -8.75548e-07 0)
(2.42553e-09 -8.76354e-07 0)
(2.37548e-09 -8.77153e-07 0)
(2.3251e-09 -8.77944e-07 0)
(2.27441e-09 -8.78725e-07 0)
(2.22341e-09 -8.79498e-07 0)
(2.17211e-09 -8.80262e-07 0)
(2.1205e-09 -8.81016e-07 0)
(2.0686e-09 -8.81759e-07 0)
(2.0164e-09 -8.82492e-07 0)
(1.96391e-09 -8.83214e-07 0)
(1.91114e-09 -8.83924e-07 0)
(1.8581e-09 -8.84623e-07 0)
(1.80478e-09 -8.85309e-07 0)
(1.75119e-09 -8.85982e-07 0)
(1.69735e-09 -8.86642e-07 0)
(1.64325e-09 -8.87288e-07 0)
(1.5889e-09 -8.8792e-07 0)
(1.53431e-09 -8.88537e-07 0)
(1.47949e-09 -8.89139e-07 0)
(1.42445e-09 -8.89726e-07 0)
(1.36919e-09 -8.90296e-07 0)
(1.31371e-09 -8.90849e-07 0)
(1.25804e-09 -8.91386e-07 0)
(1.20217e-09 -8.91904e-07 0)
(1.14612e-09 -8.92404e-07 0)
(1.0899e-09 -8.92886e-07 0)
(1.03351e-09 -8.93348e-07 0)
(9.7696e-10 -8.9379e-07 0)
(9.20269e-10 -8.94212e-07 0)
(8.63444e-10 -8.94612e-07 0)
(8.06496e-10 -8.94991e-07 0)
(7.49435e-10 -8.95348e-07 0)
(6.92273e-10 -8.95683e-07 0)
(6.35023e-10 -8.95993e-07 0)
(5.77695e-10 -8.9628e-07 0)
(5.20303e-10 -8.96543e-07 0)
(4.62859e-10 -8.96781e-07 0)
(4.05376e-10 -8.96992e-07 0)
(3.47869e-10 -8.97178e-07 0)
(2.9035e-10 -8.97337e-07 0)
(2.32835e-10 -8.97468e-07 0)
(1.75336e-10 -8.97571e-07 0)
(1.1787e-10 -8.97645e-07 0)
(6.04516e-11 -8.9769e-07 0)
(3.09557e-12 -8.97705e-07 0)
(-5.41819e-11 -8.9769e-07 0)
(-1.11365e-10 -8.97643e-07 0)
(-1.68437e-10 -8.97565e-07 0)
(-2.25381e-10 -8.97454e-07 0)
(-2.8218e-10 -8.9731e-07 0)
(-3.38817e-10 -8.97132e-07 0)
(-3.95274e-10 -8.9692e-07 0)
(-4.51534e-10 -8.96674e-07 0)
(-5.07579e-10 -8.96391e-07 0)
(-5.63388e-10 -8.96073e-07 0)
(-6.18945e-10 -8.95718e-07 0)
(-6.74231e-10 -8.95326e-07 0)
(-7.29225e-10 -8.94895e-07 0)
(-7.83908e-10 -8.94427e-07 0)
(-8.38262e-10 -8.93919e-07 0)
(-8.92265e-10 -8.93371e-07 0)
(-9.45899e-10 -8.92783e-07 0)
(-9.99142e-10 -8.92155e-07 0)
(-1.05197e-09 -8.91485e-07 0)
(-1.10438e-09 -8.90773e-07 0)
(-1.15633e-09 -8.90019e-07 0)
(-1.2078e-09 -8.89221e-07 0)
(-1.25879e-09 -8.88381e-07 0)
(-1.30926e-09 -8.87496e-07 0)
(-1.35919e-09 -8.86567e-07 0)
(-1.40857e-09 -8.85593e-07 0)
(-1.45737e-09 -8.84573e-07 0)
(-1.50557e-09 -8.83507e-07 0)
(-1.55315e-09 -8.82396e-07 0)
(-1.60009e-09 -8.81237e-07 0)
(-1.64637e-09 -8.80031e-07 0)
(-1.69196e-09 -8.78778e-07 0)
(-1.73686e-09 -8.77477e-07 0)
(-1.78102e-09 -8.76128e-07 0)
(-1.82445e-09 -8.7473e-07 0)
(-1.86711e-09 -8.73283e-07 0)
(-1.90898e-09 -8.71787e-07 0)
(-1.95005e-09 -8.70242e-07 0)
(-1.99029e-09 -8.68647e-07 0)
(-2.02969e-09 -8.67002e-07 0)
(-2.06823e-09 -8.65308e-07 0)
(-2.10589e-09 -8.63563e-07 0)
(-2.14264e-09 -8.61767e-07 0)
(-2.17848e-09 -8.59922e-07 0)
(-2.21339e-09 -8.58025e-07 0)
(-2.24734e-09 -8.56078e-07 0)
(-2.28032e-09 -8.54081e-07 0)
(-2.31232e-09 -8.52033e-07 0)
(-2.34332e-09 -8.49934e-07 0)
(-2.3733e-09 -8.47785e-07 0)
(-2.40226e-09 -8.45585e-07 0)
(-2.43017e-09 -8.43335e-07 0)
(-2.45702e-09 -8.41035e-07 0)
(-2.48281e-09 -8.38684e-07 0)
(-2.50751e-09 -8.36284e-07 0)
(-2.53113e-09 -8.33835e-07 0)
(-2.55364e-09 -8.31336e-07 0)
(-2.57504e-09 -8.28788e-07 0)
(-2.59532e-09 -8.26192e-07 0)
(-2.61447e-09 -8.23548e-07 0)
(-2.63248e-09 -8.20856e-07 0)
(-2.64935e-09 -8.18116e-07 0)
(-2.66508e-09 -8.1533e-07 0)
(-2.67965e-09 -8.12497e-07 0)
(-2.69306e-09 -8.09619e-07 0)
(-2.70532e-09 -8.06696e-07 0)
(-2.71641e-09 -8.03728e-07 0)
(-2.72633e-09 -8.00716e-07 0)
(-2.7351e-09 -7.97661e-07 0)
(-2.7427e-09 -7.94564e-07 0)
(-2.74913e-09 -7.91425e-07 0)
(-2.75441e-09 -7.88246e-07 0)
(-2.75853e-09 -7.85026e-07 0)
(-2.76149e-09 -7.81767e-07 0)
(-2.76331e-09 -7.7847e-07 0)
(-2.76398e-09 -7.75136e-07 0)
(-2.76352e-09 -7.71765e-07 0)
(-2.76193e-09 -7.68359e-07 0)
(-2.75921e-09 -7.64919e-07 0)
(-2.7554e-09 -7.61444e-07 0)
(-2.7504e-09 -7.57941e-07 0)
(-2.74469e-09 -7.54386e-07 0)
(-2.73627e-09 -7.50815e-07 0)
(-2.72555e-09 -7.46856e-07 0)
(-2.71439e-09 -7.42462e-07 0)
(-2.70174e-09 -7.3806e-07 0)
(-2.68776e-09 -7.33691e-07 0)
(-2.67257e-09 -7.29357e-07 0)
(-2.65625e-09 -7.25049e-07 0)
(-2.63888e-09 -7.20766e-07 0)
(-2.6205e-09 -7.1651e-07 0)
(-2.60118e-09 -7.12285e-07 0)
(-2.58098e-09 -7.08093e-07 0)
(-2.55997e-09 -7.03934e-07 0)
(-2.53818e-09 -6.9981e-07 0)
(-2.51567e-09 -6.95722e-07 0)
(-2.49249e-09 -6.91671e-07 0)
(-2.46869e-09 -6.87657e-07 0)
(-2.44431e-09 -6.83683e-07 0)
(-2.41938e-09 -6.79749e-07 0)
(-2.39395e-09 -6.75855e-07 0)
(-2.36806e-09 -6.72003e-07 0)
(-2.34174e-09 -6.68194e-07 0)
(-2.31501e-09 -6.64427e-07 0)
(-2.28792e-09 -6.60704e-07 0)
(-2.26049e-09 -6.57025e-07 0)
(-2.23274e-09 -6.5339e-07 0)
(-2.20471e-09 -6.49801e-07 0)
(-2.17641e-09 -6.46257e-07 0)
(-2.14786e-09 -6.4276e-07 0)
(-2.11909e-09 -6.39308e-07 0)
(-2.09012e-09 -6.35904e-07 0)
(-2.06096e-09 -6.32546e-07 0)
(-2.03163e-09 -6.29236e-07 0)
(-2.00214e-09 -6.25973e-07 0)
(-1.97251e-09 -6.22759e-07 0)
(-1.94275e-09 -6.19592e-07 0)
(-1.91287e-09 -6.16474e-07 0)
(-1.88288e-09 -6.13404e-07 0)
(-1.85279e-09 -6.10382e-07 0)
(-1.82261e-09 -6.07409e-07 0)
(-1.79235e-09 -6.04486e-07 0)
(-1.76201e-09 -6.01611e-07 0)
(-1.7316e-09 -5.98785e-07 0)
(-1.70112e-09 -5.96009e-07 0)
(-1.67059e-09 -5.93282e-07 0)
(-1.63999e-09 -5.90604e-07 0)
(-1.60935e-09 -5.87976e-07 0)
(-1.57865e-09 -5.85398e-07 0)
(-1.54791e-09 -5.82869e-07 0)
(-1.51713e-09 -5.8039e-07 0)
(-1.48629e-09 -5.77961e-07 0)
(-1.45542e-09 -5.75582e-07 0)
(-1.42451e-09 -5.73252e-07 0)
(-1.39355e-09 -5.70973e-07 0)
(-1.36256e-09 -5.68744e-07 0)
(-1.33152e-09 -5.66565e-07 0)
(-1.30044e-09 -5.64437e-07 0)
(-1.26933e-09 -5.62358e-07 0)
(-1.23817e-09 -5.6033e-07 0)
(-1.20697e-09 -5.58352e-07 0)
(-1.17573e-09 -5.56425e-07 0)
(-1.14444e-09 -5.54549e-07 0)
(-1.11311e-09 -5.52723e-07 0)
(-1.08174e-09 -5.50948e-07 0)
(-1.05032e-09 -5.49223e-07 0)
(-1.01886e-09 -5.4755e-07 0)
(-9.8735e-10 -5.45927e-07 0)
(-9.55793e-10 -5.44356e-07 0)
(-9.24189e-10 -5.42835e-07 0)
(-8.92537e-10 -5.41366e-07 0)
(-8.60837e-10 -5.39947e-07 0)
(-8.29089e-10 -5.38581e-07 0)
(-7.97292e-10 -5.37265e-07 0)
(-7.65446e-10 -5.36001e-07 0)
(-7.33553e-10 -5.34789e-07 0)
(-7.01612e-10 -5.33628e-07 0)
(-6.69624e-10 -5.32519e-07 0)
(-6.37589e-10 -5.31462e-07 0)
(-6.05509e-10 -5.30456e-07 0)
(-5.73385e-10 -5.29503e-07 0)
(-5.41218e-10 -5.28601e-07 0)
(-5.0901e-10 -5.27752e-07 0)
(-4.76762e-10 -5.26954e-07 0)
(-4.44476e-10 -5.26209e-07 0)
(-4.12155e-10 -5.25516e-07 0)
(-3.79799e-10 -5.24876e-07 0)
(-3.47412e-10 -5.24287e-07 0)
(-3.14996e-10 -5.23755e-07 0)
(-2.8255e-10 -5.2326e-07 0)
(-2.50084e-10 -5.22866e-07 0)
(-2.1757e-10 -5.22366e-07 0)
(-1.85107e-10 -5.22436e-07 0)
(-1.52358e-10 -5.20807e-07 0)
(-1.20518e-10 -5.24822e-07 0)
(-8.5504e-11 -5.08954e-07 0)
(-6.23075e-11 -5.50627e-07 0)
(-2.94243e-11 -4.8086e-07 0)
)
;
    }
    bottomWall
    {
        type            calculated;
        value           nonuniform List<vector> 
449
(
(-48.5975 -0.965018 0)
(-19.7754 -0.00516259 0)
(-14.3608 -0.00113631 0)
(-12.048 -0.000546253 0)
(-10.6399 -0.000351999 0)
(-9.64465 -0.000256362 0)
(-8.88548 -0.00019877 0)
(-8.28111 -0.000160042 0)
(-7.78498 -0.000132509 0)
(-7.36778 -0.00011213 0)
(-7.0103 -9.65033e-05 0)
(-6.69948 -8.41749e-05 0)
(-6.426 -7.42385e-05 0)
(-6.18294 -6.60947e-05 0)
(-5.96503 -5.93231e-05 0)
(-5.76822 -5.36201e-05 0)
(-5.5893 -4.87632e-05 0)
(-5.42572 -4.45864e-05 0)
(-5.2754 -4.09635e-05 0)
(-5.13665 -3.7797e-05 0)
(-5.00804 -3.50103e-05 0)
(-4.88842 -3.25425e-05 0)
(-4.77677 -3.03448e-05 0)
(-4.67226 -2.83776e-05 0)
(-4.57415 -2.66086e-05 0)
(-4.48182 -2.50108e-05 0)
(-4.39472 -2.3562e-05 0)
(-4.31239 -2.22436e-05 0)
(-4.2344 -2.10396e-05 0)
(-4.16039 -1.99368e-05 0)
(-4.09003 -1.89236e-05 0)
(-4.02303 -1.79902e-05 0)
(-3.95914 -1.71281e-05 0)
(-3.89812 -1.633e-05 0)
(-3.83977 -1.55895e-05 0)
(-3.7839 -1.49009e-05 0)
(-3.73033 -1.42593e-05 0)
(-3.67893 -1.36604e-05 0)
(-3.62954 -1.31003e-05 0)
(-3.58204 -1.25757e-05 0)
(-3.53631 -1.20834e-05 0)
(-3.49225 -1.16208e-05 0)
(-3.44976 -1.11855e-05 0)
(-3.40874 -1.07752e-05 0)
(-3.36913 -1.03881e-05 0)
(-3.33083 -1.00223e-05 0)
(-3.29377 -9.67628e-06 0)
(-3.25791 -9.34858e-06 0)
(-3.22316 -9.03789e-06 0)
(-3.18948 -8.743e-06 0)
(-3.15681 -8.46283e-06 0)
(-3.1251 -8.19639e-06 0)
(-3.09431 -7.94275e-06 0)
(-3.0644 -7.70109e-06 0)
(-3.03531 -7.47064e-06 0)
(-3.00703 -7.25069e-06 0)
(-2.97951 -7.04061e-06 0)
(-2.95271 -6.83978e-06 0)
(-2.92662 -6.64765e-06 0)
(-2.90119 -6.46372e-06 0)
(-2.8764 -6.28751e-06 0)
(-2.85222 -6.11859e-06 0)
(-2.82864 -5.95653e-06 0)
(-2.80562 -5.80098e-06 0)
(-2.78315 -5.65156e-06 0)
(-2.76119 -5.50797e-06 0)
(-2.73975 -5.36987e-06 0)
(-2.71878 -5.23701e-06 0)
(-2.69829 -5.10909e-06 0)
(-2.67824 -4.98588e-06 0)
(-2.65863 -4.86715e-06 0)
(-2.63944 -4.75266e-06 0)
(-2.62065 -4.64222e-06 0)
(-2.60226 -4.53563e-06 0)
(-2.58424 -4.43271e-06 0)
(-2.56659 -4.33329e-06 0)
(-2.54929 -4.23721e-06 0)
(-2.53233 -4.14431e-06 0)
(-2.5157 -4.05446e-06 0)
(-2.49939 -3.96752e-06 0)
(-2.48339 -3.88336e-06 0)
(-2.4677 -3.80187e-06 0)
(-2.45229 -3.72292e-06 0)
(-2.43717 -3.64641e-06 0)
(-2.42232 -3.57224e-06 0)
(-2.40774 -3.50031e-06 0)
(-2.39342 -3.43053e-06 0)
(-2.37934 -3.36282e-06 0)
(-2.36551 -3.29709e-06 0)
(-2.35192 -3.23326e-06 0)
(-2.33856 -3.17126e-06 0)
(-2.32543 -3.11102e-06 0)
(-2.31251 -3.05247e-06 0)
(-2.2998 -2.99554e-06 0)
(-2.2873 -2.94019e-06 0)
(-2.275 -2.88634e-06 0)
(-2.2629 -2.83394e-06 0)
(-2.25099 -2.78294e-06 0)
(-2.23926 -2.7333e-06 0)
(-2.22772 -2.68495e-06 0)
(-2.21635 -2.63786e-06 0)
(-2.20515 -2.59198e-06 0)
(-2.19413 -2.54727e-06 0)
(-2.18326 -2.50369e-06 0)
(-2.17256 -2.4612e-06 0)
(-2.16201 -2.41977e-06 0)
(-2.15162 -2.37935e-06 0)
(-2.14137 -2.33993e-06 0)
(-2.13127 -2.30145e-06 0)
(-2.12131 -2.2639e-06 0)
(-2.11149 -2.22723e-06 0)
(-2.10181 -2.19144e-06 0)
(-2.09225 -2.15648e-06 0)
(-2.08283 -2.12233e-06 0)
(-2.07354 -2.08896e-06 0)
(-2.06437 -2.05636e-06 0)
(-2.05532 -2.02449e-06 0)
(-2.04639 -1.99334e-06 0)
(-2.03757 -1.96288e-06 0)
(-2.02887 -1.9331e-06 0)
(-2.02028 -1.90397e-06 0)
(-2.0118 -1.87547e-06 0)
(-2.00343 -1.84759e-06 0)
(-1.99516 -1.82031e-06 0)
(-1.98699 -1.79361e-06 0)
(-1.97893 -1.76747e-06 0)
(-1.97096 -1.74188e-06 0)
(-1.96309 -1.71682e-06 0)
(-1.95531 -1.69228e-06 0)
(-1.94763 -1.66824e-06 0)
(-1.94004 -1.64469e-06 0)
(-1.93254 -1.62162e-06 0)
(-1.92512 -1.59901e-06 0)
(-1.91779 -1.57686e-06 0)
(-1.91054 -1.55514e-06 0)
(-1.90338 -1.53385e-06 0)
(-1.8963 -1.51298e-06 0)
(-1.8893 -1.49251e-06 0)
(-1.88237 -1.47243e-06 0)
(-1.87553 -1.45274e-06 0)
(-1.86876 -1.43343e-06 0)
(-1.86206 -1.41448e-06 0)
(-1.85543 -1.39589e-06 0)
(-1.84888 -1.37764e-06 0)
(-1.8424 -1.35973e-06 0)
(-1.83598 -1.34216e-06 0)
(-1.82964 -1.3249e-06 0)
(-1.82336 -1.30796e-06 0)
(-1.81714 -1.29132e-06 0)
(-1.81099 -1.27499e-06 0)
(-1.80491 -1.25894e-06 0)
(-1.79888 -1.24318e-06 0)
(-1.79292 -1.2277e-06 0)
(-1.78701 -1.21249e-06 0)
(-1.78117 -1.19755e-06 0)
(-1.77539 -1.18286e-06 0)
(-1.76966 -1.16843e-06 0)
(-1.76399 -1.15425e-06 0)
(-1.75837 -1.1403e-06 0)
(-1.75281 -1.12659e-06 0)
(-1.7473 -1.11311e-06 0)
(-1.74185 -1.09986e-06 0)
(-1.73644 -1.08683e-06 0)
(-1.73109 -1.07401e-06 0)
(-1.72579 -1.06139e-06 0)
(-1.72054 -1.04898e-06 0)
(-1.71534 -1.03677e-06 0)
(-1.71018 -1.02476e-06 0)
(-1.70508 -1.01292e-06 0)
(-1.70002 -1.00123e-06 0)
(-1.69501 -9.89896e-07 0)
(-1.69004 -9.78343e-07 0)
(-1.68512 -9.668e-07 0)
(-1.68051 -9.57763e-07 0)
(-1.67619 -9.49274e-07 0)
(-1.67186 -9.38716e-07 0)
(-1.66753 -9.28351e-07 0)
(-1.66321 -9.1872e-07 0)
(-1.65888 -9.09167e-07 0)
(-1.65455 -8.99783e-07 0)
(-1.65022 -8.90506e-07 0)
(-1.64589 -8.81327e-07 0)
(-1.64155 -8.72234e-07 0)
(-1.63721 -8.63218e-07 0)
(-1.63287 -8.54276e-07 0)
(-1.62853 -8.45403e-07 0)
(-1.62419 -8.36596e-07 0)
(-1.61985 -8.27852e-07 0)
(-1.6155 -8.19171e-07 0)
(-1.61116 -8.10551e-07 0)
(-1.60681 -8.01991e-07 0)
(-1.60246 -7.93489e-07 0)
(-1.59812 -7.85045e-07 0)
(-1.59377 -7.76659e-07 0)
(-1.58942 -7.6833e-07 0)
(-1.58507 -7.60058e-07 0)
(-1.58072 -7.51843e-07 0)
(-1.57637 -7.43683e-07 0)
(-1.57203 -7.35581e-07 0)
(-1.56768 -7.27534e-07 0)
(-1.56333 -7.19543e-07 0)
(-1.55899 -7.11609e-07 0)
(-1.55465 -7.03731e-07 0)
(-1.5503 -6.95908e-07 0)
(-1.54596 -6.88143e-07 0)
(-1.54163 -6.80433e-07 0)
(-1.53729 -6.7278e-07 0)
(-1.53296 -6.65183e-07 0)
(-1.52862 -6.57642e-07 0)
(-1.5243 -6.50158e-07 0)
(-1.51997 -6.42731e-07 0)
(-1.51565 -6.3536e-07 0)
(-1.51133 -6.28046e-07 0)
(-1.50701 -6.20789e-07 0)
(-1.5027 -6.13589e-07 0)
(-1.49839 -6.06445e-07 0)
(-1.49409 -5.99358e-07 0)
(-1.48978 -5.92328e-07 0)
(-1.48549 -5.85355e-07 0)
(-1.4812 -5.78439e-07 0)
(-1.47691 -5.7158e-07 0)
(-1.47263 -5.64777e-07 0)
(-1.46835 -5.58032e-07 0)
(-1.46408 -5.51343e-07 0)
(-1.45981 -5.44711e-07 0)
(-1.45555 -5.38136e-07 0)
(-1.4513 -5.31617e-07 0)
(-1.44705 -5.25155e-07 0)
(-1.44281 -5.1875e-07 0)
(-1.43857 -5.12401e-07 0)
(-1.43434 -5.06109e-07 0)
(-1.43012 -4.99873e-07 0)
(-1.4259 -4.93693e-07 0)
(-1.42169 -4.87569e-07 0)
(-1.41749 -4.81502e-07 0)
(-1.41329 -4.7549e-07 0)
(-1.40911 -4.69534e-07 0)
(-1.40493 -4.63633e-07 0)
(-1.40075 -4.57788e-07 0)
(-1.39659 -4.51999e-07 0)
(-1.39243 -4.46264e-07 0)
(-1.38829 -4.40585e-07 0)
(-1.38415 -4.3496e-07 0)
(-1.38002 -4.2939e-07 0)
(-1.37589 -4.23875e-07 0)
(-1.37178 -4.18414e-07 0)
(-1.36768 -4.13007e-07 0)
(-1.36358 -4.07653e-07 0)
(-1.35949 -4.02354e-07 0)
(-1.35542 -3.97107e-07 0)
(-1.35135 -3.91914e-07 0)
(-1.34729 -3.86774e-07 0)
(-1.34324 -3.81687e-07 0)
(-1.33921 -3.76653e-07 0)
(-1.33518 -3.7167e-07 0)
(-1.33116 -3.6674e-07 0)
(-1.32715 -3.61861e-07 0)
(-1.32316 -3.57034e-07 0)
(-1.31917 -3.52258e-07 0)
(-1.3152 -3.47533e-07 0)
(-1.31123 -3.42859e-07 0)
(-1.30728 -3.38235e-07 0)
(-1.30333 -3.33661e-07 0)
(-1.2994 -3.29137e-07 0)
(-1.29548 -3.24663e-07 0)
(-1.29157 -3.20238e-07 0)
(-1.28767 -3.15862e-07 0)
(-1.28379 -3.11535e-07 0)
(-1.27991 -3.07256e-07 0)
(-1.27605 -3.03025e-07 0)
(-1.2722 -2.98842e-07 0)
(-1.26836 -2.94706e-07 0)
(-1.26454 -2.90617e-07 0)
(-1.26072 -2.86575e-07 0)
(-1.25692 -2.8258e-07 0)
(-1.25313 -2.78631e-07 0)
(-1.24935 -2.74727e-07 0)
(-1.24559 -2.7087e-07 0)
(-1.24183 -2.67057e-07 0)
(-1.23809 -2.63289e-07 0)
(-1.23437 -2.59566e-07 0)
(-1.23065 -2.55886e-07 0)
(-1.22695 -2.52251e-07 0)
(-1.22327 -2.48659e-07 0)
(-1.21959 -2.4511e-07 0)
(-1.21593 -2.41604e-07 0)
(-1.21228 -2.38141e-07 0)
(-1.20865 -2.34719e-07 0)
(-1.20502 -2.31339e-07 0)
(-1.20141 -2.28001e-07 0)
(-1.19782 -2.24704e-07 0)
(-1.19424 -2.21448e-07 0)
(-1.19067 -2.18231e-07 0)
(-1.18712 -2.15055e-07 0)
(-1.18358 -2.11919e-07 0)
(-1.18005 -2.08822e-07 0)
(-1.17654 -2.05764e-07 0)
(-1.17304 -2.02744e-07 0)
(-1.16955 -1.99763e-07 0)
(-1.16608 -1.9682e-07 0)
(-1.16263 -1.93914e-07 0)
(-1.15918 -1.91046e-07 0)
(-1.15576 -1.88214e-07 0)
(-1.15234 -1.85419e-07 0)
(-1.14894 -1.8266e-07 0)
(-1.14556 -1.79937e-07 0)
(-1.14218 -1.7725e-07 0)
(-1.13883 -1.74597e-07 0)
(-1.13548 -1.7198e-07 0)
(-1.13216 -1.69397e-07 0)
(-1.12884 -1.66847e-07 0)
(-1.12554 -1.64332e-07 0)
(-1.12226 -1.6185e-07 0)
(-1.11899 -1.59401e-07 0)
(-1.11573 -1.56985e-07 0)
(-1.11249 -1.54602e-07 0)
(-1.10926 -1.5225e-07 0)
(-1.10605 -1.4993e-07 0)
(-1.10285 -1.47642e-07 0)
(-1.09967 -1.45384e-07 0)
(-1.0965 -1.43157e-07 0)
(-1.09335 -1.40961e-07 0)
(-1.09021 -1.38795e-07 0)
(-1.08709 -1.36658e-07 0)
(-1.08398 -1.34551e-07 0)
(-1.08088 -1.32473e-07 0)
(-1.0778 -1.30424e-07 0)
(-1.07474 -1.28403e-07 0)
(-1.07169 -1.2641e-07 0)
(-1.06865 -1.24445e-07 0)
(-1.06563 -1.22508e-07 0)
(-1.06263 -1.20598e-07 0)
(-1.05964 -1.18714e-07 0)
(-1.05666 -1.16857e-07 0)
(-1.0537 -1.15027e-07 0)
(-1.05075 -1.13223e-07 0)
(-1.04782 -1.11444e-07 0)
(-1.0449 -1.0969e-07 0)
(-1.042 -1.07962e-07 0)
(-1.03911 -1.06258e-07 0)
(-1.03624 -1.0458e-07 0)
(-1.03338 -1.02925e-07 0)
(-1.03054 -1.01294e-07 0)
(-1.02771 -9.96878e-08 0)
(-1.02489 -9.81049e-08 0)
(-1.02209 -9.65455e-08 0)
(-1.01931 -9.50097e-08 0)
(-1.01654 -9.34976e-08 0)
(-1.01378 -9.20097e-08 0)
(-1.01104 -9.05469e-08 0)
(-1.00831 -8.91097e-08 0)
(-1.0056 -8.77146e-08 0)
(-1.0029 -8.63294e-08 0)
(-1.00022 -8.49958e-08 0)
(-0.99724 -8.35739e-08 0)
(-0.994011 -8.20673e-08 0)
(-0.990837 -8.06331e-08 0)
(-0.98772 -7.91482e-08 0)
(-0.984663 -7.7618e-08 0)
(-0.981666 -7.61095e-08 0)
(-0.978726 -7.46409e-08 0)
(-0.975844 -7.32152e-08 0)
(-0.973016 -7.1832e-08 0)
(-0.970241 -7.049e-08 0)
(-0.967518 -6.9188e-08 0)
(-0.964845 -6.79245e-08 0)
(-0.96222 -6.66978e-08 0)
(-0.959643 -6.55064e-08 0)
(-0.957111 -6.43487e-08 0)
(-0.954624 -6.32235e-08 0)
(-0.952181 -6.21293e-08 0)
(-0.949779 -6.10651e-08 0)
(-0.947419 -6.00296e-08 0)
(-0.945098 -5.90217e-08 0)
(-0.942816 -5.80404e-08 0)
(-0.940572 -5.70847e-08 0)
(-0.938365 -5.61536e-08 0)
(-0.936194 -5.52464e-08 0)
(-0.934057 -5.43621e-08 0)
(-0.931955 -5.35e-08 0)
(-0.929886 -5.26593e-08 0)
(-0.927849 -5.18391e-08 0)
(-0.925844 -5.1039e-08 0)
(-0.92387 -5.02581e-08 0)
(-0.921926 -4.94959e-08 0)
(-0.920011 -4.87517e-08 0)
(-0.918125 -4.80249e-08 0)
(-0.916267 -4.73151e-08 0)
(-0.914436 -4.66216e-08 0)
(-0.912632 -4.59439e-08 0)
(-0.910855 -4.52816e-08 0)
(-0.909102 -4.46341e-08 0)
(-0.907375 -4.40011e-08 0)
(-0.905672 -4.3382e-08 0)
(-0.903993 -4.27765e-08 0)
(-0.902338 -4.21842e-08 0)
(-0.900705 -4.16046e-08 0)
(-0.899095 -4.10375e-08 0)
(-0.897506 -4.04823e-08 0)
(-0.895939 -3.99389e-08 0)
(-0.894393 -3.94068e-08 0)
(-0.892868 -3.88858e-08 0)
(-0.891362 -3.83756e-08 0)
(-0.889877 -3.78757e-08 0)
(-0.88841 -3.73861e-08 0)
(-0.886963 -3.69063e-08 0)
(-0.885534 -3.64361e-08 0)
(-0.884123 -3.59753e-08 0)
(-0.88273 -3.55236e-08 0)
(-0.881355 -3.50808e-08 0)
(-0.879996 -3.46466e-08 0)
(-0.878654 -3.42209e-08 0)
(-0.877329 -3.38034e-08 0)
(-0.87602 -3.33939e-08 0)
(-0.874727 -3.29923e-08 0)
(-0.873449 -3.25982e-08 0)
(-0.872186 -3.22117e-08 0)
(-0.870939 -3.18324e-08 0)
(-0.869706 -3.14603e-08 0)
(-0.868487 -3.10951e-08 0)
(-0.867283 -3.07368e-08 0)
(-0.866092 -3.03851e-08 0)
(-0.864915 -3.004e-08 0)
(-0.863752 -2.97013e-08 0)
(-0.862601 -2.9369e-08 0)
(-0.861463 -2.90429e-08 0)
(-0.860338 -2.87229e-08 0)
(-0.859225 -2.84091e-08 0)
(-0.858124 -2.81013e-08 0)
(-0.857036 -2.77995e-08 0)
(-0.855959 -2.75039e-08 0)
(-0.854893 -2.72143e-08 0)
(-0.853838 -2.6931e-08 0)
(-0.852795 -2.66542e-08 0)
(-0.851762 -2.63843e-08 0)
(-0.850739 -2.61218e-08 0)
(-0.849727 -2.58675e-08 0)
(-0.848724 -2.56227e-08 0)
(-0.84773 -2.53891e-08 0)
(-0.846746 -2.51724e-08 0)
(-0.845769 -2.49704e-08 0)
(-0.844801 -2.47988e-08 0)
(-0.843838 -2.47302e-08 0)
(-0.842874 -2.45889e-08 0)
(-0.841922 -2.38754e-08 0)
(-0.841014 -3.12126e-08 0)
(-0.83949 -8.40852e-09 0)
(-0.840369 -2.29048e-08 0)
(-0.837671 -3.54046e-08 0)
)
;
    }
    symmetry
    {
        type            symmetryPlane;
    }
    frontAndBack
    {
        type            empty;
    }
}


// ************************************************************************* //
