/*--------------------------------*- C++ -*----------------------------------*\
| =========                 |                                                 |
| \\      /  F ield         | OpenFOAM: The Open Source CFD Toolbox           |
|  \\    /   O peration     | Version:  v2012                                 |
|   \\  /    A nd           | Website:  www.openfoam.com                      |
|    \\/     M anipulation  |                                                 |
\*---------------------------------------------------------------------------*/
FoamFile
{
    version     2.0;
    format      ascii;
    class       volVectorField;
    location    "2";
    object      wallShearStress;
}
// * * * * * * * * * * * * * * * * * * * * * * * * * * * * * * * * * * * * * //

dimensions      [0 2 -2 0 0 0 0];


internalField   uniform (0 0 0);

boundaryField
{
    inlet
    {
        type            calculated;
        value           uniform (0 0 0);
    }
    outlet
    {
        type            calculated;
        value           uniform (0 0 0);
    }
    topWall
    {
        type            calculated;
        value           nonuniform List<vector> 
545
(
(2.61458e-09 -1.81284e-09 0)
(2.63657e-09 -5.20249e-09 0)
(2.57406e-09 -8.60785e-09 0)
(2.55173e-09 -1.18914e-08 0)
(2.53797e-09 -1.50158e-08 0)
(2.52527e-09 -1.80251e-08 0)
(2.51184e-09 -2.09494e-08 0)
(2.4973e-09 -2.37891e-08 0)
(2.48166e-09 -2.65378e-08 0)
(2.46501e-09 -2.91947e-08 0)
(2.44744e-09 -3.17626e-08 0)
(2.42905e-09 -3.42448e-08 0)
(2.40991e-09 -3.66432e-08 0)
(2.39012e-09 -3.89596e-08 0)
(2.36976e-09 -4.1196e-08 0)
(2.3489e-09 -4.33545e-08 0)
(2.32761e-09 -4.54373e-08 0)
(2.30595e-09 -4.74466e-08 0)
(2.28399e-09 -4.93844e-08 0)
(2.26177e-09 -5.1253e-08 0)
(2.23935e-09 -5.30544e-08 0)
(2.21677e-09 -5.47908e-08 0)
(2.19408e-09 -5.64642e-08 0)
(2.17131e-09 -5.80767e-08 0)
(2.1485e-09 -5.96303e-08 0)
(2.12567e-09 -6.1127e-08 0)
(2.10286e-09 -6.25686e-08 0)
(2.08008e-09 -6.3957e-08 0)
(2.05737e-09 -6.52942e-08 0)
(2.03474e-09 -6.65818e-08 0)
(2.0122e-09 -6.78216e-08 0)
(1.98978e-09 -6.90153e-08 0)
(1.96748e-09 -7.01646e-08 0)
(1.94533e-09 -7.1271e-08 0)
(1.92331e-09 -7.2336e-08 0)
(1.90146e-09 -7.33612e-08 0)
(1.87976e-09 -7.4348e-08 0)
(1.85823e-09 -7.52978e-08 0)
(1.83686e-09 -7.62119e-08 0)
(1.81567e-09 -7.70917e-08 0)
(1.79466e-09 -7.79384e-08 0)
(1.77381e-09 -7.87532e-08 0)
(1.75314e-09 -7.95373e-08 0)
(1.73264e-09 -8.02918e-08 0)
(1.71231e-09 -8.10178e-08 0)
(1.69215e-09 -8.17163e-08 0)
(1.67215e-09 -8.23884e-08 0)
(1.65231e-09 -8.30351e-08 0)
(1.63262e-09 -8.36571e-08 0)
(1.61308e-09 -8.42556e-08 0)
(1.59368e-09 -8.48313e-08 0)
(1.57442e-09 -8.5385e-08 0)
(1.5553e-09 -8.59176e-08 0)
(1.53629e-09 -8.64299e-08 0)
(1.5174e-09 -8.69225e-08 0)
(1.49862e-09 -8.73962e-08 0)
(1.47994e-09 -8.78517e-08 0)
(1.46135e-09 -8.82896e-08 0)
(1.44285e-09 -8.87106e-08 0)
(1.42442e-09 -8.91153e-08 0)
(1.40605e-09 -8.95043e-08 0)
(1.38775e-09 -8.98781e-08 0)
(1.36949e-09 -9.02372e-08 0)
(1.35126e-09 -9.05823e-08 0)
(1.33307e-09 -9.09138e-08 0)
(1.31489e-09 -9.12321e-08 0)
(1.29672e-09 -9.1538e-08 0)
(1.27854e-09 -9.18311e-08 0)
(1.26042e-09 -9.21141e-08 0)
(1.24195e-09 -9.23808e-08 0)
(1.22481e-09 -9.26562e-08 0)
(1.2018e-09 -9.28748e-08 0)
(1.18078e-09 -9.31052e-08 0)
(1.16963e-09 -9.33748e-08 0)
(1.15879e-09 -9.35812e-08 0)
(1.14805e-09 -9.37857e-08 0)
(1.13733e-09 -9.40011e-08 0)
(1.12664e-09 -9.42176e-08 0)
(1.11596e-09 -9.44285e-08 0)
(1.1053e-09 -9.46344e-08 0)
(1.09466e-09 -9.48374e-08 0)
(1.08403e-09 -9.5038e-08 0)
(1.07342e-09 -9.5236e-08 0)
(1.06282e-09 -9.54311e-08 0)
(1.05224e-09 -9.56232e-08 0)
(1.04168e-09 -9.58126e-08 0)
(1.03113e-09 -9.59992e-08 0)
(1.0206e-09 -9.61831e-08 0)
(1.01009e-09 -9.63643e-08 0)
(9.99585e-10 -9.65425e-08 0)
(9.89133e-10 -9.67193e-08 0)
(9.78558e-10 -9.68894e-08 0)
(9.68597e-10 -9.7071e-08 0)
(9.56119e-10 -9.72093e-08 0)
(9.54436e-10 -9.75167e-08 0)
(9.06879e-10 -9.74833e-08 0)
(8.44372e-10 -9.75059e-08 0)
(8.31217e-10 -9.79181e-08 0)
(8.23454e-10 -9.79997e-08 0)
(8.17007e-10 -9.8035e-08 0)
(8.10863e-10 -9.81337e-08 0)
(8.04775e-10 -9.8265e-08 0)
(7.98686e-10 -9.83892e-08 0)
(7.92586e-10 -9.85011e-08 0)
(7.86474e-10 -9.86102e-08 0)
(7.80348e-10 -9.87211e-08 0)
(7.74208e-10 -9.88329e-08 0)
(7.68054e-10 -9.89439e-08 0)
(7.61886e-10 -9.90538e-08 0)
(7.55704e-10 -9.9163e-08 0)
(7.49508e-10 -9.92716e-08 0)
(7.43298e-10 -9.93796e-08 0)
(7.37074e-10 -9.9487e-08 0)
(7.30837e-10 -9.95937e-08 0)
(7.24586e-10 -9.96998e-08 0)
(7.18322e-10 -9.98052e-08 0)
(7.12044e-10 -9.99099e-08 0)
(7.05753e-10 -1.00014e-07 0)
(6.99448e-10 -1.00117e-07 0)
(6.9313e-10 -1.0022e-07 0)
(6.86799e-10 -1.00322e-07 0)
(6.80455e-10 -1.00423e-07 0)
(6.74098e-10 -1.00524e-07 0)
(6.67728e-10 -1.00624e-07 0)
(6.61346e-10 -1.00723e-07 0)
(6.5495e-10 -1.00821e-07 0)
(6.48542e-10 -1.00919e-07 0)
(6.42121e-10 -1.01016e-07 0)
(6.35688e-10 -1.01112e-07 0)
(6.29243e-10 -1.01208e-07 0)
(6.22785e-10 -1.01302e-07 0)
(6.16315e-10 -1.01396e-07 0)
(6.09833e-10 -1.01489e-07 0)
(6.03339e-10 -1.01582e-07 0)
(5.96833e-10 -1.01674e-07 0)
(5.90315e-10 -1.01764e-07 0)
(5.83786e-10 -1.01854e-07 0)
(5.77245e-10 -1.01944e-07 0)
(5.70692e-10 -1.02032e-07 0)
(5.64128e-10 -1.0212e-07 0)
(5.57553e-10 -1.02207e-07 0)
(5.50967e-10 -1.02293e-07 0)
(5.44369e-10 -1.02378e-07 0)
(5.37761e-10 -1.02462e-07 0)
(5.31142e-10 -1.02546e-07 0)
(5.24512e-10 -1.02629e-07 0)
(5.17871e-10 -1.02711e-07 0)
(5.1122e-10 -1.02792e-07 0)
(5.04558e-10 -1.02872e-07 0)
(4.97886e-10 -1.02951e-07 0)
(4.91205e-10 -1.0303e-07 0)
(4.84513e-10 -1.03107e-07 0)
(4.77811e-10 -1.03184e-07 0)
(4.71099e-10 -1.03259e-07 0)
(4.64378e-10 -1.03334e-07 0)
(4.57647e-10 -1.03408e-07 0)
(4.50906e-10 -1.03481e-07 0)
(4.44157e-10 -1.03553e-07 0)
(4.37398e-10 -1.03625e-07 0)
(4.30631e-10 -1.03695e-07 0)
(4.23854e-10 -1.03764e-07 0)
(4.17069e-10 -1.03833e-07 0)
(4.10275e-10 -1.039e-07 0)
(4.03472e-10 -1.03967e-07 0)
(3.96662e-10 -1.04032e-07 0)
(3.89843e-10 -1.04097e-07 0)
(3.83016e-10 -1.0416e-07 0)
(3.76181e-10 -1.04223e-07 0)
(3.69339e-10 -1.04285e-07 0)
(3.62488e-10 -1.04345e-07 0)
(3.55631e-10 -1.04405e-07 0)
(3.48766e-10 -1.04464e-07 0)
(3.41894e-10 -1.04521e-07 0)
(3.35015e-10 -1.04578e-07 0)
(3.28129e-10 -1.04633e-07 0)
(3.21237e-10 -1.04688e-07 0)
(3.14338e-10 -1.04741e-07 0)
(3.07432e-10 -1.04794e-07 0)
(3.00521e-10 -1.04845e-07 0)
(2.93603e-10 -1.04896e-07 0)
(2.8668e-10 -1.04945e-07 0)
(2.79751e-10 -1.04993e-07 0)
(2.72816e-10 -1.05041e-07 0)
(2.65876e-10 -1.05087e-07 0)
(2.58931e-10 -1.05132e-07 0)
(2.5198e-10 -1.05176e-07 0)
(2.45025e-10 -1.05218e-07 0)
(2.38066e-10 -1.0526e-07 0)
(2.31102e-10 -1.05301e-07 0)
(2.24133e-10 -1.0534e-07 0)
(2.17161e-10 -1.05379e-07 0)
(2.10184e-10 -1.05416e-07 0)
(2.03204e-10 -1.05452e-07 0)
(1.9622e-10 -1.05487e-07 0)
(1.89233e-10 -1.05521e-07 0)
(1.82243e-10 -1.05553e-07 0)
(1.75249e-10 -1.05585e-07 0)
(1.68253e-10 -1.05615e-07 0)
(1.61254e-10 -1.05644e-07 0)
(1.54253e-10 -1.05672e-07 0)
(1.4725e-10 -1.05699e-07 0)
(1.40245e-10 -1.05725e-07 0)
(1.33238e-10 -1.05749e-07 0)
(1.26229e-10 -1.05772e-07 0)
(1.19219e-10 -1.05794e-07 0)
(1.12207e-10 -1.05815e-07 0)
(1.05195e-10 -1.05835e-07 0)
(9.81819e-11 -1.05853e-07 0)
(9.11682e-11 -1.0587e-07 0)
(8.41542e-11 -1.05886e-07 0)
(7.71401e-11 -1.05901e-07 0)
(7.0126e-11 -1.05914e-07 0)
(6.31123e-11 -1.05926e-07 0)
(5.60991e-11 -1.05937e-07 0)
(4.90865e-11 -1.05947e-07 0)
(4.2075e-11 -1.05955e-07 0)
(3.50647e-11 -1.05962e-07 0)
(2.80557e-11 -1.05968e-07 0)
(2.10484e-11 -1.05972e-07 0)
(1.4043e-11 -1.05975e-07 0)
(7.03966e-12 -1.05977e-07 0)
(3.86327e-14 -1.05978e-07 0)
(-6.95981e-12 -1.05977e-07 0)
(-1.39555e-11 -1.05975e-07 0)
(-2.09481e-11 -1.05971e-07 0)
(-2.79374e-11 -1.05967e-07 0)
(-3.49233e-11 -1.0596e-07 0)
(-4.19053e-11 -1.05953e-07 0)
(-4.88834e-11 -1.05944e-07 0)
(-5.58573e-11 -1.05934e-07 0)
(-6.28267e-11 -1.05923e-07 0)
(-6.97913e-11 -1.0591e-07 0)
(-7.6751e-11 -1.05895e-07 0)
(-8.37055e-11 -1.0588e-07 0)
(-9.06545e-11 -1.05863e-07 0)
(-9.75977e-11 -1.05844e-07 0)
(-1.04535e-10 -1.05825e-07 0)
(-1.11466e-10 -1.05803e-07 0)
(-1.18391e-10 -1.05781e-07 0)
(-1.25308e-10 -1.05757e-07 0)
(-1.32219e-10 -1.05731e-07 0)
(-1.39123e-10 -1.05705e-07 0)
(-1.46019e-10 -1.05676e-07 0)
(-1.52907e-10 -1.05647e-07 0)
(-1.59787e-10 -1.05615e-07 0)
(-1.66659e-10 -1.05583e-07 0)
(-1.73523e-10 -1.05549e-07 0)
(-1.80377e-10 -1.05513e-07 0)
(-1.87222e-10 -1.05477e-07 0)
(-1.94058e-10 -1.05438e-07 0)
(-2.00885e-10 -1.05398e-07 0)
(-2.07701e-10 -1.05357e-07 0)
(-2.14508e-10 -1.05314e-07 0)
(-2.21303e-10 -1.0527e-07 0)
(-2.28088e-10 -1.05224e-07 0)
(-2.34863e-10 -1.05177e-07 0)
(-2.41625e-10 -1.05128e-07 0)
(-2.48377e-10 -1.05078e-07 0)
(-2.55116e-10 -1.05026e-07 0)
(-2.61843e-10 -1.04973e-07 0)
(-2.68559e-10 -1.04918e-07 0)
(-2.7526e-10 -1.04862e-07 0)
(-2.81952e-10 -1.04804e-07 0)
(-2.88616e-10 -1.04746e-07 0)
(-2.9533e-10 -1.04682e-07 0)
(-3.01762e-10 -1.0463e-07 0)
(-3.09321e-10 -1.0454e-07 0)
(-3.12015e-10 -1.04602e-07 0)
(-3.35342e-10 -1.04365e-07 0)
(-3.67279e-10 -1.04183e-07 0)
(-3.76525e-10 -1.0437e-07 0)
(-3.80452e-10 -1.04282e-07 0)
(-3.83164e-10 -1.04139e-07 0)
(-3.85648e-10 -1.04045e-07 0)
(-3.88146e-10 -1.03982e-07 0)
(-3.90712e-10 -1.03914e-07 0)
(-3.93355e-10 -1.03836e-07 0)
(-3.96077e-10 -1.03753e-07 0)
(-3.98876e-10 -1.0367e-07 0)
(-4.01753e-10 -1.03587e-07 0)
(-4.04707e-10 -1.03503e-07 0)
(-4.07737e-10 -1.03417e-07 0)
(-4.10842e-10 -1.03329e-07 0)
(-4.14021e-10 -1.0324e-07 0)
(-4.17273e-10 -1.03149e-07 0)
(-4.20598e-10 -1.03056e-07 0)
(-4.23993e-10 -1.02962e-07 0)
(-4.27458e-10 -1.02865e-07 0)
(-4.30993e-10 -1.02767e-07 0)
(-4.34596e-10 -1.02667e-07 0)
(-4.38265e-10 -1.02565e-07 0)
(-4.42001e-10 -1.02461e-07 0)
(-4.45801e-10 -1.02355e-07 0)
(-4.49664e-10 -1.02247e-07 0)
(-4.5359e-10 -1.02137e-07 0)
(-4.57578e-10 -1.02025e-07 0)
(-4.61625e-10 -1.0191e-07 0)
(-4.65731e-10 -1.01793e-07 0)
(-4.69895e-10 -1.01674e-07 0)
(-4.74114e-10 -1.01552e-07 0)
(-4.78389e-10 -1.01428e-07 0)
(-4.82717e-10 -1.01302e-07 0)
(-4.87098e-10 -1.01173e-07 0)
(-4.91529e-10 -1.01041e-07 0)
(-4.96009e-10 -1.00907e-07 0)
(-5.00537e-10 -1.0077e-07 0)
(-5.05112e-10 -1.00631e-07 0)
(-5.09731e-10 -1.00488e-07 0)
(-5.14394e-10 -1.00343e-07 0)
(-5.19099e-10 -1.00195e-07 0)
(-5.23843e-10 -1.00043e-07 0)
(-5.28626e-10 -9.98891e-08 0)
(-5.33446e-10 -9.97317e-08 0)
(-5.383e-10 -9.95712e-08 0)
(-5.43188e-10 -9.94075e-08 0)
(-5.48107e-10 -9.92405e-08 0)
(-5.53056e-10 -9.90701e-08 0)
(-5.58032e-10 -9.88964e-08 0)
(-5.63034e-10 -9.87191e-08 0)
(-5.6806e-10 -9.85384e-08 0)
(-5.73108e-10 -9.83541e-08 0)
(-5.78175e-10 -9.81661e-08 0)
(-5.83261e-10 -9.79744e-08 0)
(-5.88362e-10 -9.77789e-08 0)
(-5.93476e-10 -9.75796e-08 0)
(-5.98602e-10 -9.73763e-08 0)
(-6.03737e-10 -9.71691e-08 0)
(-6.08879e-10 -9.69579e-08 0)
(-6.14025e-10 -9.67425e-08 0)
(-6.19173e-10 -9.6523e-08 0)
(-6.24321e-10 -9.62992e-08 0)
(-6.29466e-10 -9.60712e-08 0)
(-6.34606e-10 -9.58387e-08 0)
(-6.39739e-10 -9.56019e-08 0)
(-6.44861e-10 -9.53605e-08 0)
(-6.49971e-10 -9.51146e-08 0)
(-6.55065e-10 -9.48641e-08 0)
(-6.60141e-10 -9.46088e-08 0)
(-6.65196e-10 -9.43488e-08 0)
(-6.70227e-10 -9.4084e-08 0)
(-6.75232e-10 -9.38143e-08 0)
(-6.80208e-10 -9.35396e-08 0)
(-6.85151e-10 -9.326e-08 0)
(-6.9006e-10 -9.29752e-08 0)
(-6.94931e-10 -9.26853e-08 0)
(-6.9976e-10 -9.23903e-08 0)
(-7.04546e-10 -9.20899e-08 0)
(-7.09285e-10 -9.17843e-08 0)
(-7.13973e-10 -9.14732e-08 0)
(-7.18609e-10 -9.11567e-08 0)
(-7.23188e-10 -9.08348e-08 0)
(-7.27707e-10 -9.05073e-08 0)
(-7.32164e-10 -9.01741e-08 0)
(-7.36555e-10 -8.98354e-08 0)
(-7.40877e-10 -8.94909e-08 0)
(-7.45126e-10 -8.91406e-08 0)
(-7.49299e-10 -8.87846e-08 0)
(-7.53393e-10 -8.84227e-08 0)
(-7.57405e-10 -8.80549e-08 0)
(-7.61331e-10 -8.76811e-08 0)
(-7.65168e-10 -8.73014e-08 0)
(-7.68912e-10 -8.69156e-08 0)
(-7.72561e-10 -8.65238e-08 0)
(-7.7611e-10 -8.61258e-08 0)
(-7.79557e-10 -8.57217e-08 0)
(-7.82897e-10 -8.53115e-08 0)
(-7.86128e-10 -8.4895e-08 0)
(-7.89247e-10 -8.44724e-08 0)
(-7.92249e-10 -8.40435e-08 0)
(-7.95132e-10 -8.36083e-08 0)
(-7.97892e-10 -8.31668e-08 0)
(-8.00526e-10 -8.2719e-08 0)
(-8.0303e-10 -8.22649e-08 0)
(-8.05402e-10 -8.18045e-08 0)
(-8.07638e-10 -8.13378e-08 0)
(-8.09735e-10 -8.08647e-08 0)
(-8.11689e-10 -8.03853e-08 0)
(-8.13499e-10 -7.98995e-08 0)
(-8.15159e-10 -7.94075e-08 0)
(-8.16669e-10 -7.89091e-08 0)
(-8.18024e-10 -7.84044e-08 0)
(-8.19222e-10 -7.78935e-08 0)
(-8.2026e-10 -7.73763e-08 0)
(-8.21135e-10 -7.68529e-08 0)
(-8.21844e-10 -7.63233e-08 0)
(-8.22386e-10 -7.57875e-08 0)
(-8.22757e-10 -7.52456e-08 0)
(-8.22955e-10 -7.46977e-08 0)
(-8.22978e-10 -7.41437e-08 0)
(-8.22823e-10 -7.35838e-08 0)
(-8.22489e-10 -7.30179e-08 0)
(-8.21973e-10 -7.24463e-08 0)
(-8.21274e-10 -7.18688e-08 0)
(-8.2039e-10 -7.12856e-08 0)
(-8.19319e-10 -7.06968e-08 0)
(-8.1806e-10 -7.01025e-08 0)
(-8.16611e-10 -6.95027e-08 0)
(-8.14971e-10 -6.88975e-08 0)
(-8.13139e-10 -6.82871e-08 0)
(-8.11115e-10 -6.76715e-08 0)
(-8.08897e-10 -6.70508e-08 0)
(-8.06485e-10 -6.64252e-08 0)
(-8.03878e-10 -6.57948e-08 0)
(-8.01076e-10 -6.51597e-08 0)
(-7.98079e-10 -6.452e-08 0)
(-7.94887e-10 -6.38759e-08 0)
(-7.915e-10 -6.32275e-08 0)
(-7.87918e-10 -6.25749e-08 0)
(-7.84143e-10 -6.19183e-08 0)
(-7.80174e-10 -6.12578e-08 0)
(-7.76013e-10 -6.05936e-08 0)
(-7.7166e-10 -5.99259e-08 0)
(-7.67117e-10 -5.92548e-08 0)
(-7.62386e-10 -5.85805e-08 0)
(-7.57467e-10 -5.79032e-08 0)
(-7.52363e-10 -5.72231e-08 0)
(-7.47076e-10 -5.65403e-08 0)
(-7.41607e-10 -5.5855e-08 0)
(-7.35959e-10 -5.51675e-08 0)
(-7.30135e-10 -5.44779e-08 0)
(-7.24137e-10 -5.37864e-08 0)
(-7.17968e-10 -5.30933e-08 0)
(-7.1163e-10 -5.23987e-08 0)
(-7.05129e-10 -5.17029e-08 0)
(-6.98466e-10 -5.10061e-08 0)
(-6.91646e-10 -5.03084e-08 0)
(-6.84672e-10 -4.96102e-08 0)
(-6.77549e-10 -4.89117e-08 0)
(-6.7028e-10 -4.8213e-08 0)
(-6.6287e-10 -4.75144e-08 0)
(-6.55325e-10 -4.68162e-08 0)
(-6.47647e-10 -4.61186e-08 0)
(-6.39843e-10 -4.54217e-08 0)
(-6.31918e-10 -4.47259e-08 0)
(-6.23875e-10 -4.40314e-08 0)
(-6.15722e-10 -4.33384e-08 0)
(-6.07462e-10 -4.26472e-08 0)
(-5.99101e-10 -4.19579e-08 0)
(-5.90645e-10 -4.12709e-08 0)
(-5.821e-10 -4.05864e-08 0)
(-5.7347e-10 -3.99045e-08 0)
(-5.64761e-10 -3.92257e-08 0)
(-5.5598e-10 -3.85499e-08 0)
(-5.47132e-10 -3.78777e-08 0)
(-5.38222e-10 -3.72086e-08 0)
(-5.29259e-10 -3.65454e-08 0)
(-5.20235e-10 -3.58786e-08 0)
(-5.11211e-10 -3.52381e-08 0)
(-5.01946e-10 -3.45077e-08 0)
(-4.93485e-10 -3.39587e-08 0)
(-4.8173e-10 -3.33126e-08 0)
(-4.67512e-10 -3.23979e-08 0)
(-4.55718e-10 -3.16613e-08 0)
(-4.44628e-10 -3.09726e-08 0)
(-4.3384e-10 -3.02731e-08 0)
(-4.23244e-10 -2.95731e-08 0)
(-4.12809e-10 -2.88916e-08 0)
(-4.02534e-10 -2.82323e-08 0)
(-3.92426e-10 -2.7591e-08 0)
(-3.82488e-10 -2.69651e-08 0)
(-3.72723e-10 -2.63544e-08 0)
(-3.63132e-10 -2.57592e-08 0)
(-3.53716e-10 -2.51797e-08 0)
(-3.44478e-10 -2.46153e-08 0)
(-3.35417e-10 -2.40656e-08 0)
(-3.26535e-10 -2.35305e-08 0)
(-3.17831e-10 -2.30096e-08 0)
(-3.09305e-10 -2.25026e-08 0)
(-3.00956e-10 -2.20092e-08 0)
(-2.92783e-10 -2.15292e-08 0)
(-2.84786e-10 -2.10623e-08 0)
(-2.76963e-10 -2.06082e-08 0)
(-2.69311e-10 -2.01666e-08 0)
(-2.6183e-10 -1.97372e-08 0)
(-2.54517e-10 -1.93197e-08 0)
(-2.4737e-10 -1.8914e-08 0)
(-2.40387e-10 -1.85197e-08 0)
(-2.33565e-10 -1.81365e-08 0)
(-2.26901e-10 -1.77643e-08 0)
(-2.20393e-10 -1.74027e-08 0)
(-2.14038e-10 -1.70515e-08 0)
(-2.07834e-10 -1.67104e-08 0)
(-2.01778e-10 -1.63793e-08 0)
(-1.95866e-10 -1.60578e-08 0)
(-1.90096e-10 -1.57458e-08 0)
(-1.84466e-10 -1.5443e-08 0)
(-1.78971e-10 -1.51492e-08 0)
(-1.7361e-10 -1.48642e-08 0)
(-1.6838e-10 -1.45877e-08 0)
(-1.63278e-10 -1.43196e-08 0)
(-1.58301e-10 -1.40597e-08 0)
(-1.53446e-10 -1.38077e-08 0)
(-1.4871e-10 -1.35635e-08 0)
(-1.44091e-10 -1.33268e-08 0)
(-1.39586e-10 -1.30975e-08 0)
(-1.35192e-10 -1.28754e-08 0)
(-1.30907e-10 -1.26603e-08 0)
(-1.26727e-10 -1.24521e-08 0)
(-1.22651e-10 -1.22505e-08 0)
(-1.18675e-10 -1.20555e-08 0)
(-1.14796e-10 -1.18668e-08 0)
(-1.11013e-10 -1.16843e-08 0)
(-1.07323e-10 -1.15079e-08 0)
(-1.03722e-10 -1.13373e-08 0)
(-1.00208e-10 -1.11725e-08 0)
(-9.67793e-11 -1.10133e-08 0)
(-9.34328e-11 -1.08596e-08 0)
(-9.0166e-11 -1.07113e-08 0)
(-8.69766e-11 -1.05682e-08 0)
(-8.38621e-11 -1.04301e-08 0)
(-8.08201e-11 -1.0297e-08 0)
(-7.78483e-11 -1.01688e-08 0)
(-7.49445e-11 -1.00454e-08 0)
(-7.21062e-11 -9.92658e-09 0)
(-6.93314e-11 -9.81231e-09 0)
(-6.66178e-11 -9.70247e-09 0)
(-6.39633e-11 -9.59697e-09 0)
(-6.13656e-11 -9.49571e-09 0)
(-5.88226e-11 -9.39861e-09 0)
(-5.63322e-11 -9.30556e-09 0)
(-5.38922e-11 -9.2165e-09 0)
(-5.15005e-11 -9.13134e-09 0)
(-4.91547e-11 -9.05e-09 0)
(-4.68526e-11 -8.9724e-09 0)
(-4.45918e-11 -8.89849e-09 0)
(-4.23698e-11 -8.82818e-09 0)
(-4.0184e-11 -8.76143e-09 0)
(-3.80314e-11 -8.69817e-09 0)
(-3.59093e-11 -8.63836e-09 0)
(-3.38144e-11 -8.58195e-09 0)
(-3.17435e-11 -8.52889e-09 0)
(-2.96936e-11 -8.47916e-09 0)
(-2.76617e-11 -8.43273e-09 0)
(-2.56461e-11 -8.38959e-09 0)
(-2.36464e-11 -8.34968e-09 0)
(-2.16655e-11 -8.31309e-09 0)
(-1.97095e-11 -8.27951e-09 0)
(-1.7792e-11 -8.24982e-09 0)
(-1.59263e-11 -8.22081e-09 0)
(-1.4146e-11 -8.20274e-09 0)
(-1.24081e-11 -8.16035e-09 0)
(-1.08698e-11 -8.20728e-09 0)
(-8.72051e-12 -7.94707e-09 0)
(-8.71474e-12 -8.58437e-09 0)
(-5.09816e-12 -7.48567e-09 0)
)
;
    }
    bottomWall
    {
        type            calculated;
        value           nonuniform List<vector> 
449
(
(-47.896 -0.95017 0)
(-20.7947 -0.00470631 0)
(-16.9825 -0.000713883 0)
(-16.1189 -0.000180816 0)
(-15.8563 -6.57663e-05 0)
(-15.7253 -3.73224e-05 0)
(-15.6312 -2.67575e-05 0)
(-15.5611 -1.95855e-05 0)
(-15.5105 -1.4119e-05 0)
(-15.4745 -1.01928e-05 0)
(-15.4484 -7.44728e-06 0)
(-15.4293 -5.51091e-06 0)
(-15.4152 -4.12676e-06 0)
(-15.4047 -3.12762e-06 0)
(-15.3966 -2.39818e-06 0)
(-15.3905 -1.85797e-06 0)
(-15.3857 -1.45226e-06 0)
(-15.382 -1.14413e-06 0)
(-15.3791 -9.07951e-07 0)
(-15.3768 -7.25426e-07 0)
(-15.3749 -5.83242e-07 0)
(-15.3734 -4.71684e-07 0)
(-15.3722 -3.83586e-07 0)
(-15.3713 -3.13611e-07 0)
(-15.3705 -2.57736e-07 0)
(-15.3698 -2.12899e-07 0)
(-15.3693 -1.76766e-07 0)
(-15.3689 -1.47527e-07 0)
(-15.3685 -1.23788e-07 0)
(-15.3682 -1.04455e-07 0)
(-15.3679 -8.86665e-08 0)
(-15.3677 -7.57476e-08 0)
(-15.3675 -6.51497e-08 0)
(-15.3674 -5.64454e-08 0)
(-15.3672 -4.92831e-08 0)
(-15.3671 -4.33877e-08 0)
(-15.367 -3.85293e-08 0)
(-15.3669 -3.45264e-08 0)
(-15.3668 -3.12272e-08 0)
(-15.3667 -2.85106e-08 0)
(-15.3666 -2.62751e-08 0)
(-15.3665 -2.44386e-08 0)
(-15.3665 -2.29328e-08 0)
(-15.3664 -2.17012e-08 0)
(-15.3663 -2.06978e-08 0)
(-15.3663 -1.98848e-08 0)
(-15.3662 -1.92298e-08 0)
(-15.3662 -1.87092e-08 0)
(-15.3661 -1.82979e-08 0)
(-15.366 -1.79805e-08 0)
(-15.366 -1.77374e-08 0)
(-15.3659 -1.75568e-08 0)
(-15.3658 -1.74261e-08 0)
(-15.3658 -1.73363e-08 0)
(-15.3657 -1.72801e-08 0)
(-15.3657 -1.72517e-08 0)
(-15.3656 -1.72458e-08 0)
(-15.3655 -1.72582e-08 0)
(-15.3655 -1.72847e-08 0)
(-15.3654 -1.73224e-08 0)
(-15.3653 -1.73681e-08 0)
(-15.3653 -1.74197e-08 0)
(-15.3652 -1.74752e-08 0)
(-15.3651 -1.75329e-08 0)
(-15.3651 -1.75915e-08 0)
(-15.365 -1.76497e-08 0)
(-15.3649 -1.77067e-08 0)
(-15.3649 -1.7762e-08 0)
(-15.3648 -1.78152e-08 0)
(-15.3647 -1.78666e-08 0)
(-15.3647 -1.79157e-08 0)
(-15.3646 -1.79627e-08 0)
(-15.3645 -1.80068e-08 0)
(-15.3644 -1.80477e-08 0)
(-15.3644 -1.8085e-08 0)
(-15.3643 -1.81184e-08 0)
(-15.3642 -1.81486e-08 0)
(-15.3642 -1.81749e-08 0)
(-15.3641 -1.81983e-08 0)
(-15.364 -1.82183e-08 0)
(-15.3639 -1.82349e-08 0)
(-15.3639 -1.82481e-08 0)
(-15.3638 -1.82579e-08 0)
(-15.3637 -1.82642e-08 0)
(-15.3636 -1.82673e-08 0)
(-15.3636 -1.82671e-08 0)
(-15.3635 -1.8264e-08 0)
(-15.3634 -1.82578e-08 0)
(-15.3633 -1.8249e-08 0)
(-15.3633 -1.82375e-08 0)
(-15.3632 -1.82235e-08 0)
(-15.3631 -1.82068e-08 0)
(-15.363 -1.81877e-08 0)
(-15.363 -1.81658e-08 0)
(-15.3629 -1.81415e-08 0)
(-15.3628 -1.81147e-08 0)
(-15.3627 -1.80857e-08 0)
(-15.3627 -1.80549e-08 0)
(-15.3626 -1.80222e-08 0)
(-15.3625 -1.79881e-08 0)
(-15.3624 -1.79525e-08 0)
(-15.3624 -1.79154e-08 0)
(-15.3623 -1.78769e-08 0)
(-15.3622 -1.78371e-08 0)
(-15.3621 -1.77958e-08 0)
(-15.362 -1.77534e-08 0)
(-15.362 -1.77098e-08 0)
(-15.3619 -1.7665e-08 0)
(-15.3618 -1.76191e-08 0)
(-15.3617 -1.75721e-08 0)
(-15.3617 -1.7524e-08 0)
(-15.3616 -1.74748e-08 0)
(-15.3615 -1.74246e-08 0)
(-15.3614 -1.73732e-08 0)
(-15.3614 -1.73207e-08 0)
(-15.3613 -1.72673e-08 0)
(-15.3612 -1.72132e-08 0)
(-15.3611 -1.71588e-08 0)
(-15.3611 -1.71041e-08 0)
(-15.361 -1.70494e-08 0)
(-15.3609 -1.69944e-08 0)
(-15.3608 -1.69389e-08 0)
(-15.3608 -1.68827e-08 0)
(-15.3607 -1.68258e-08 0)
(-15.3606 -1.67684e-08 0)
(-15.3605 -1.67103e-08 0)
(-15.3605 -1.6652e-08 0)
(-15.3604 -1.65933e-08 0)
(-15.3603 -1.65343e-08 0)
(-15.3602 -1.64749e-08 0)
(-15.3602 -1.64153e-08 0)
(-15.3601 -1.63553e-08 0)
(-15.36 -1.6295e-08 0)
(-15.3599 -1.62343e-08 0)
(-15.3599 -1.61736e-08 0)
(-15.3598 -1.61125e-08 0)
(-15.3597 -1.60513e-08 0)
(-15.3596 -1.59899e-08 0)
(-15.3596 -1.59284e-08 0)
(-15.3595 -1.58666e-08 0)
(-15.3594 -1.58046e-08 0)
(-15.3593 -1.57421e-08 0)
(-15.3593 -1.56793e-08 0)
(-15.3592 -1.5616e-08 0)
(-15.3591 -1.55527e-08 0)
(-15.359 -1.54894e-08 0)
(-15.359 -1.54261e-08 0)
(-15.3589 -1.53628e-08 0)
(-15.3588 -1.52994e-08 0)
(-15.3588 -1.5236e-08 0)
(-15.3587 -1.5172e-08 0)
(-15.3586 -1.51078e-08 0)
(-15.3585 -1.50431e-08 0)
(-15.3585 -1.49778e-08 0)
(-15.3584 -1.49118e-08 0)
(-15.3583 -1.4845e-08 0)
(-15.3583 -1.47769e-08 0)
(-15.3582 -1.47072e-08 0)
(-15.3581 -1.46354e-08 0)
(-15.358 -1.45606e-08 0)
(-15.358 -1.44815e-08 0)
(-15.3579 -1.43963e-08 0)
(-15.3578 -1.43018e-08 0)
(-15.3578 -1.41942e-08 0)
(-15.3577 -1.40635e-08 0)
(-15.3576 -1.39014e-08 0)
(-15.3575 -1.36633e-08 0)
(-15.3575 -1.33435e-08 0)
(-15.3574 -1.26162e-08 0)
(-15.3574 -1.188e-08 0)
(-15.3573 -5.55512e-09 0)
(-15.3573 -1.37616e-08 0)
(-15.3571 5.52099e-08 0)
(-15.3579 1.43682e-07 0)
(-15.3586 1.31053e-07 0)
(-15.3591 7.92624e-08 0)
(-15.3593 2.27524e-08 0)
(-15.3592 -1.30315e-08 0)
(-15.3591 -3.28234e-08 0)
(-15.3589 -4.3914e-08 0)
(-15.3587 -5.05232e-08 0)
(-15.3584 -5.46044e-08 0)
(-15.3581 -5.70946e-08 0)
(-15.3578 -5.85231e-08 0)
(-15.3575 -5.9226e-08 0)
(-15.3572 -5.94248e-08 0)
(-15.3569 -5.92654e-08 0)
(-15.3566 -5.88499e-08 0)
(-15.3563 -5.82496e-08 0)
(-15.356 -5.75168e-08 0)
(-15.3557 -5.6689e-08 0)
(-15.3554 -5.5794e-08 0)
(-15.3551 -5.4852e-08 0)
(-15.3548 -5.38786e-08 0)
(-15.3545 -5.28853e-08 0)
(-15.3542 -5.18805e-08 0)
(-15.3539 -5.08715e-08 0)
(-15.3536 -4.98627e-08 0)
(-15.3533 -4.88588e-08 0)
(-15.353 -4.78627e-08 0)
(-15.3528 -4.68767e-08 0)
(-15.3525 -4.59035e-08 0)
(-15.3522 -4.49438e-08 0)
(-15.3519 -4.39991e-08 0)
(-15.3517 -4.30701e-08 0)
(-15.3514 -4.21568e-08 0)
(-15.3511 -4.126e-08 0)
(-15.3509 -4.03793e-08 0)
(-15.3506 -3.95153e-08 0)
(-15.3504 -3.86679e-08 0)
(-15.3501 -3.78372e-08 0)
(-15.3499 -3.70233e-08 0)
(-15.3496 -3.62262e-08 0)
(-15.3494 -3.54456e-08 0)
(-15.3491 -3.46811e-08 0)
(-15.3489 -3.39326e-08 0)
(-15.3486 -3.31995e-08 0)
(-15.3484 -3.2482e-08 0)
(-15.3482 -3.17793e-08 0)
(-15.3479 -3.10914e-08 0)
(-15.3477 -3.04182e-08 0)
(-15.3475 -2.97592e-08 0)
(-15.3473 -2.91147e-08 0)
(-15.3471 -2.8484e-08 0)
(-15.3468 -2.78671e-08 0)
(-15.3466 -2.72637e-08 0)
(-15.3464 -2.66731e-08 0)
(-15.3462 -2.60954e-08 0)
(-15.346 -2.55299e-08 0)
(-15.3458 -2.49766e-08 0)
(-15.3456 -2.44351e-08 0)
(-15.3454 -2.39052e-08 0)
(-15.3452 -2.3387e-08 0)
(-15.345 -2.28801e-08 0)
(-15.3448 -2.23844e-08 0)
(-15.3446 -2.18997e-08 0)
(-15.3444 -2.14256e-08 0)
(-15.3442 -2.09619e-08 0)
(-15.344 -2.05082e-08 0)
(-15.3439 -2.00644e-08 0)
(-15.3437 -1.963e-08 0)
(-15.3435 -1.9205e-08 0)
(-15.3433 -1.87891e-08 0)
(-15.3431 -1.83824e-08 0)
(-15.343 -1.79846e-08 0)
(-15.3428 -1.75955e-08 0)
(-15.3426 -1.7215e-08 0)
(-15.3425 -1.68427e-08 0)
(-15.3423 -1.64787e-08 0)
(-15.3421 -1.61223e-08 0)
(-15.342 -1.57736e-08 0)
(-15.3418 -1.54324e-08 0)
(-15.3417 -1.50985e-08 0)
(-15.3415 -1.4772e-08 0)
(-15.3413 -1.44526e-08 0)
(-15.3412 -1.41403e-08 0)
(-15.341 -1.38349e-08 0)
(-15.3409 -1.3536e-08 0)
(-15.3407 -1.32437e-08 0)
(-15.3406 -1.29576e-08 0)
(-15.3404 -1.26777e-08 0)
(-15.3403 -1.24038e-08 0)
(-15.3402 -1.21359e-08 0)
(-15.34 -1.18739e-08 0)
(-15.3399 -1.16175e-08 0)
(-15.3397 -1.13668e-08 0)
(-15.3396 -1.11216e-08 0)
(-15.3395 -1.08817e-08 0)
(-15.3393 -1.0647e-08 0)
(-15.3392 -1.04174e-08 0)
(-15.3391 -1.01926e-08 0)
(-15.3389 -9.97264e-09 0)
(-15.3388 -9.75744e-09 0)
(-15.3387 -9.54679e-09 0)
(-15.3386 -9.34087e-09 0)
(-15.3384 -9.13939e-09 0)
(-15.3383 -8.94238e-09 0)
(-15.3382 -8.74975e-09 0)
(-15.3381 -8.56122e-09 0)
(-15.338 -8.37685e-09 0)
(-15.3378 -8.19634e-09 0)
(-15.3377 -8.0197e-09 0)
(-15.3376 -7.84687e-09 0)
(-15.3375 -7.67768e-09 0)
(-15.3374 -7.51227e-09 0)
(-15.3373 -7.3504e-09 0)
(-15.3372 -7.19213e-09 0)
(-15.3371 -7.03732e-09 0)
(-15.337 -6.88585e-09 0)
(-15.3368 -6.73769e-09 0)
(-15.3367 -6.59265e-09 0)
(-15.3366 -6.45075e-09 0)
(-15.3365 -6.31182e-09 0)
(-15.3364 -6.17592e-09 0)
(-15.3363 -6.04289e-09 0)
(-15.3362 -5.91278e-09 0)
(-15.3361 -5.78551e-09 0)
(-15.336 -5.66102e-09 0)
(-15.3359 -5.53928e-09 0)
(-15.3358 -5.42012e-09 0)
(-15.3358 -5.30359e-09 0)
(-15.3357 -5.18949e-09 0)
(-15.3356 -5.07785e-09 0)
(-15.3355 -4.9686e-09 0)
(-15.3354 -4.86167e-09 0)
(-15.3353 -4.75711e-09 0)
(-15.3352 -4.65478e-09 0)
(-15.3351 -4.55473e-09 0)
(-15.335 -4.45686e-09 0)
(-15.335 -4.36109e-09 0)
(-15.3349 -4.26741e-09 0)
(-15.3348 -4.17571e-09 0)
(-15.3347 -4.08598e-09 0)
(-15.3346 -3.99813e-09 0)
(-15.3345 -3.91218e-09 0)
(-15.3345 -3.82804e-09 0)
(-15.3344 -3.74575e-09 0)
(-15.3343 -3.66524e-09 0)
(-15.3342 -3.58648e-09 0)
(-15.3342 -3.50947e-09 0)
(-15.3341 -3.4341e-09 0)
(-15.334 -3.36039e-09 0)
(-15.3339 -3.28822e-09 0)
(-15.3339 -3.21759e-09 0)
(-15.3338 -3.14849e-09 0)
(-15.3337 -3.08083e-09 0)
(-15.3336 -3.01467e-09 0)
(-15.3336 -2.94992e-09 0)
(-15.3335 -2.88659e-09 0)
(-15.3334 -2.82463e-09 0)
(-15.3334 -2.764e-09 0)
(-15.3333 -2.70469e-09 0)
(-15.3332 -2.64663e-09 0)
(-15.3332 -2.58982e-09 0)
(-15.3331 -2.53423e-09 0)
(-15.333 -2.47984e-09 0)
(-15.333 -2.42663e-09 0)
(-15.3329 -2.37458e-09 0)
(-15.3328 -2.32367e-09 0)
(-15.3328 -2.27388e-09 0)
(-15.3327 -2.22517e-09 0)
(-15.3327 -2.17752e-09 0)
(-15.3326 -2.13093e-09 0)
(-15.3325 -2.08537e-09 0)
(-15.3325 -2.04085e-09 0)
(-15.3324 -1.99739e-09 0)
(-15.3324 -1.95502e-09 0)
(-15.3323 -1.91396e-09 0)
(-15.3323 -1.87427e-09 0)
(-15.3322 -1.83768e-09 0)
(-15.3322 -1.80131e-09 0)
(-15.3321 -1.8282e-09 0)
(-15.332 -1.35924e-09 0)
(-15.332 -1.03188e-08 0)
(-15.3313 -1.29642e-08 0)
(-15.3311 -3.53104e-09 0)
(-15.3311 -4.77482e-10 0)
(-15.3311 8.92496e-13 0)
(-15.3311 1.44152e-11 0)
(-15.3311 8.25638e-13 0)
(-15.3311 -2.57856e-12 0)
(-15.3311 -1.49908e-12 0)
(-15.3311 3.27963e-14 0)
(-15.3311 9.09823e-13 0)
(-15.3311 1.28636e-12 0)
(-15.3311 1.45728e-12 0)
(-15.3311 1.54644e-12 0)
(-15.3311 1.58539e-12 0)
(-15.3311 1.59302e-12 0)
(-15.3311 1.57741e-12 0)
(-15.3311 1.54218e-12 0)
(-15.3311 1.49676e-12 0)
(-15.3311 1.45382e-12 0)
(-15.3311 1.41067e-12 0)
(-15.3311 1.36053e-12 0)
(-15.3311 1.30774e-12 0)
(-15.3311 1.2621e-12 0)
(-15.3311 1.21957e-12 0)
(-15.3311 1.17232e-12 0)
(-15.3311 1.1237e-12 0)
(-15.3311 1.08313e-12 0)
(-15.3311 1.04604e-12 0)
(-15.3311 1.00454e-12 0)
(-15.3311 9.6164e-13 0)
(-15.3311 9.26865e-13 0)
(-15.3311 8.95408e-13 0)
(-15.3311 8.59483e-13 0)
(-15.3311 8.2197e-13 0)
(-15.3311 7.92413e-13 0)
(-15.3311 7.66044e-13 0)
(-15.3311 7.34849e-13 0)
(-15.3311 7.05633e-13 0)
(-15.3311 6.7511e-13 0)
(-15.3311 6.50819e-13 0)
(-15.3311 6.30291e-13 0)
(-15.3311 6.03878e-13 0)
(-15.3311 5.76545e-13 0)
(-15.3311 5.55739e-13 0)
(-15.3311 5.38762e-13 0)
(-15.3311 5.15702e-13 0)
(-15.3311 4.91607e-13 0)
(-15.3311 4.73853e-13 0)
(-15.3311 4.59825e-13 0)
(-15.3311 4.39567e-13 0)
(-15.3311 4.18179e-13 0)
(-15.3311 4.02996e-13 0)
(-15.3311 3.91453e-13 0)
(-15.3311 3.73537e-13 0)
(-15.3311 3.54446e-13 0)
(-15.3311 3.41424e-13 0)
(-15.3311 3.32035e-13 0)
(-15.3311 3.16144e-13 0)
(-15.3311 2.99039e-13 0)
(-15.3311 2.87903e-13 0)
(-15.3311 2.80311e-13 0)
(-15.3311 2.66079e-13 0)
(-15.3311 2.50537e-13 0)
(-15.3311 2.40779e-13 0)
(-15.3311 2.34451e-13 0)
(-15.3311 2.21098e-13 0)
(-15.3311 2.10153e-13 0)
(-15.3311 1.95617e-13 0)
(-15.3311 1.88151e-13 0)
(-15.3311 1.81948e-13 0)
(-15.3311 1.71414e-13 0)
(-15.3311 1.57009e-13 0)
(-15.3311 1.51517e-13 0)
(-15.3311 1.46199e-13 0)
(-15.3311 1.37847e-13 0)
(-15.3311 1.23993e-13 0)
(-15.3311 1.19953e-13 0)
(-15.3311 1.14482e-13 0)
(-15.3311 1.06386e-13 0)
(-15.3311 9.17939e-14 0)
(-15.3311 8.69781e-14 0)
(-15.3311 8.09932e-14 0)
(-15.3311 7.2004e-14 0)
(-15.3311 5.84453e-14 0)
(-15.3311 5.45871e-14 0)
(-15.3311 5.1733e-14 0)
(-15.3311 4.85966e-14 0)
(-15.3311 3.16441e-14 0)
(-15.3311 4.52303e-14 0)
(-15.3311 -3.28853e-14 0)
(-15.3311 9.93003e-14 0)
(-15.3311 -6.24371e-13 0)
(-15.3311 1.68799e-12 0)
(-15.3311 3.6569e-13 0)
(-15.3311 -3.323e-12 0)
)
;
    }
    symmetry
    {
        type            symmetryPlane;
    }
    frontAndBack
    {
        type            empty;
    }
}


// ************************************************************************* //
