/*--------------------------------*- C++ -*----------------------------------*\
| =========                 |                                                 |
| \\      /  F ield         | OpenFOAM: The Open Source CFD Toolbox           |
|  \\    /   O peration     | Version:  v2012                                 |
|   \\  /    A nd           | Website:  www.openfoam.com                      |
|    \\/     M anipulation  |                                                 |
\*---------------------------------------------------------------------------*/
FoamFile
{
    version     2.0;
    format      ascii;
    class       volScalarField;
    location    "30.5";
    object      epsilon;
}
// * * * * * * * * * * * * * * * * * * * * * * * * * * * * * * * * * * * * * //

dimensions      [0 2 -3 0 0 0 0];


internalField   nonuniform List<scalar> 
209825
(
0.755293
0.643651
0.578155
0.538443
0.512718
0.495053
0.482287
0.47275
0.465368
0.45956
0.45485
0.451014
0.447797
0.445108
0.442793
0.44083
0.439101
0.437619
0.436287
0.435137
0.434085
0.433172
0.432324
0.431592
0.430901
0.430303
0.429731
0.429242
0.428769
0.428359
0.42796
0.427627
0.427295
0.427015
0.426734
0.426508
0.426271
0.426074
0.425873
0.425713
0.425547
0.425427
0.425287
0.425174
0.425059
0.424986
0.424883
0.424807
0.424741
0.424695
0.424598
0.424565
0.424546
0.424527
0.424506
0.42445
0.424499
0.424571
0.424571
0.424691
0.424721
0.424721
0.424798
0.424867
0.424962
0.425099
0.425217
0.425316
0.425424
0.42557
0.425688
0.425864
0.426011
0.426207
0.426352
0.426581
0.426719
0.426995
0.427152
0.427475
0.427658
0.428039
0.428248
0.428685
0.42893
0.429441
0.429733
0.430347
0.430698
0.431474
0.431881
0.433125
0.433468
0.439442
3.04509
557.603
0.755294
0.643648
0.578148
0.53843
0.512702
0.495034
0.482266
0.472728
0.465344
0.459535
0.454825
0.450988
0.44777
0.445081
0.442765
0.440802
0.439073
0.43759
0.436258
0.435108
0.434056
0.433142
0.432295
0.431562
0.430871
0.430273
0.429701
0.429212
0.428739
0.428328
0.42793
0.427596
0.427265
0.426985
0.426703
0.426478
0.42624
0.426043
0.425842
0.425682
0.425516
0.425396
0.425256
0.425143
0.425028
0.424955
0.424852
0.424776
0.42471
0.424664
0.424567
0.424533
0.424515
0.424496
0.424475
0.424419
0.424467
0.424539
0.424539
0.424659
0.424689
0.424689
0.424767
0.424836
0.42493
0.425067
0.425186
0.425285
0.425393
0.425539
0.425656
0.425833
0.425979
0.426175
0.42632
0.426549
0.426687
0.426963
0.427121
0.427443
0.427627
0.428007
0.428216
0.428653
0.428898
0.429409
0.429701
0.430315
0.430666
0.431441
0.431848
0.433093
0.433436
0.439419
3.04998
554.277
0.755297
0.643634
0.57811
0.538373
0.512631
0.494952
0.482176
0.472632
0.465243
0.45943
0.454716
0.450877
0.447657
0.444966
0.442649
0.440684
0.438954
0.43747
0.436136
0.434985
0.433933
0.433019
0.43217
0.431437
0.430746
0.430147
0.429575
0.429085
0.428612
0.428201
0.427802
0.427468
0.427137
0.426856
0.426574
0.426349
0.426111
0.425913
0.425713
0.425553
0.425386
0.425266
0.425126
0.425013
0.424898
0.424825
0.424721
0.424645
0.424579
0.424533
0.424436
0.424402
0.424384
0.424365
0.424344
0.424288
0.424336
0.424407
0.424407
0.424527
0.424558
0.424558
0.424635
0.424704
0.424798
0.424935
0.425054
0.425152
0.42526
0.425406
0.425524
0.4257
0.425847
0.426042
0.426187
0.426416
0.426554
0.42683
0.426987
0.42731
0.427493
0.427873
0.428082
0.428519
0.428764
0.429275
0.429566
0.43018
0.430531
0.431306
0.431712
0.432957
0.433298
0.4393
3.06008
550.362
0.755302
0.643608
0.578046
0.538277
0.51251
0.494813
0.482023
0.472469
0.465072
0.459252
0.454533
0.450689
0.447466
0.444771
0.442451
0.440484
0.438752
0.437267
0.435931
0.434779
0.433725
0.43281
0.431961
0.431226
0.430534
0.429935
0.429362
0.428871
0.428398
0.427986
0.427587
0.427252
0.42692
0.42664
0.426357
0.426131
0.425893
0.425695
0.425494
0.425334
0.425167
0.425047
0.424906
0.424793
0.424678
0.424605
0.424501
0.424425
0.424359
0.424312
0.424215
0.424182
0.424163
0.424144
0.424122
0.424066
0.424114
0.424185
0.424185
0.424305
0.424335
0.424335
0.424412
0.424481
0.424575
0.424712
0.42483
0.424929
0.425037
0.425183
0.4253
0.425476
0.425623
0.425818
0.425963
0.426192
0.426329
0.426605
0.426762
0.427085
0.427268
0.427647
0.427856
0.428293
0.428538
0.429048
0.429339
0.429952
0.430303
0.431077
0.431483
0.432727
0.433066
0.439096
3.07584
546.634
0.755309
0.643572
0.577954
0.53814
0.512339
0.494617
0.481808
0.472238
0.46483
0.459001
0.454274
0.450424
0.447195
0.444496
0.442173
0.440202
0.438467
0.436979
0.435642
0.434487
0.433432
0.432515
0.431664
0.430929
0.430235
0.429635
0.429061
0.428569
0.428095
0.427683
0.427283
0.426947
0.426615
0.426333
0.42605
0.425824
0.425585
0.425387
0.425186
0.425025
0.424858
0.424737
0.424596
0.424483
0.424367
0.424294
0.42419
0.424114
0.424047
0.424
0.423904
0.423869
0.42385
0.423831
0.42381
0.423753
0.423801
0.423871
0.423871
0.423991
0.424021
0.424021
0.424098
0.424166
0.424261
0.424397
0.424515
0.424614
0.424721
0.424867
0.424984
0.42516
0.425306
0.425501
0.425646
0.425875
0.426012
0.426287
0.426445
0.426767
0.426949
0.427328
0.427537
0.427973
0.428218
0.428727
0.429018
0.42963
0.42998
0.430753
0.431159
0.432401
0.432738
0.438807
3.09771
543.437
0.755317
0.643525
0.577837
0.537963
0.512118
0.494363
0.481528
0.47194
0.464516
0.458675
0.453939
0.45008
0.446845
0.44414
0.441811
0.439837
0.438098
0.436606
0.435266
0.434109
0.433051
0.432132
0.43128
0.430543
0.429848
0.429246
0.42867
0.428178
0.427702
0.427289
0.426888
0.426552
0.426218
0.425936
0.425653
0.425425
0.425186
0.424988
0.424786
0.424624
0.424457
0.424335
0.424194
0.42408
0.423965
0.42389
0.423786
0.42371
0.423643
0.423596
0.423499
0.423464
0.423445
0.423426
0.423404
0.423347
0.423395
0.423464
0.423464
0.423583
0.423613
0.423613
0.42369
0.423758
0.423852
0.423988
0.424106
0.424205
0.424312
0.424457
0.424574
0.42475
0.424896
0.425091
0.425235
0.425463
0.425601
0.425875
0.426032
0.426354
0.426536
0.426915
0.427123
0.427558
0.427802
0.428311
0.428602
0.429213
0.429562
0.430334
0.430738
0.43198
0.432313
0.438432
3.1261
540.935
0.755328
0.643467
0.577691
0.537745
0.511845
0.494049
0.481184
0.471572
0.46413
0.458274
0.453525
0.449657
0.446413
0.443701
0.441366
0.439386
0.437642
0.436147
0.434803
0.433643
0.432582
0.431661
0.430806
0.430067
0.42937
0.428766
0.428189
0.427695
0.427218
0.426804
0.426402
0.426064
0.42573
0.425447
0.425162
0.424934
0.424694
0.424495
0.424292
0.42413
0.423962
0.42384
0.423699
0.423584
0.423468
0.423394
0.423289
0.423212
0.423145
0.423098
0.423001
0.422966
0.422946
0.422926
0.422904
0.422847
0.422894
0.422963
0.422963
0.423081
0.423111
0.423111
0.423187
0.423256
0.423349
0.423484
0.423602
0.423701
0.423808
0.423953
0.424069
0.424244
0.42439
0.424585
0.424728
0.424956
0.425093
0.425368
0.425524
0.425845
0.426027
0.426405
0.426613
0.427047
0.427291
0.427799
0.428088
0.428698
0.429047
0.429817
0.43022
0.43146
0.431789
0.43797
3.16147
539.187
0.755341
0.643399
0.577519
0.537486
0.511521
0.493677
0.480775
0.471135
0.46367
0.457796
0.453033
0.449152
0.445898
0.443178
0.440836
0.438849
0.4371
0.4356
0.434252
0.433088
0.432024
0.431099
0.430241
0.4295
0.428801
0.428195
0.427616
0.42712
0.426642
0.426226
0.425822
0.425484
0.425148
0.424864
0.424578
0.424349
0.424108
0.423908
0.423705
0.423542
0.423373
0.42325
0.423108
0.422993
0.422876
0.422801
0.422697
0.422619
0.422551
0.422504
0.422407
0.422371
0.422351
0.422331
0.422309
0.42225
0.422298
0.422365
0.422365
0.422483
0.422512
0.422512
0.422589
0.422656
0.422749
0.422884
0.423002
0.423101
0.423207
0.423351
0.423467
0.423642
0.423787
0.423981
0.424125
0.424353
0.424489
0.424763
0.424919
0.425239
0.425421
0.425797
0.426005
0.426438
0.426681
0.427188
0.427477
0.428085
0.428432
0.4292
0.429602
0.43084
0.431165
0.43742
3.20424
538.179
0.755356
0.64332
0.57732
0.537186
0.511144
0.493244
0.480299
0.470626
0.463135
0.457241
0.452461
0.448566
0.4453
0.44257
0.440219
0.438225
0.43647
0.434964
0.433611
0.432442
0.431374
0.430446
0.429585
0.42884
0.428139
0.42753
0.426949
0.426452
0.425971
0.425554
0.425148
0.424808
0.424471
0.424186
0.423899
0.423669
0.423426
0.423226
0.423021
0.422858
0.422688
0.422564
0.422421
0.422306
0.422188
0.422113
0.422007
0.42193
0.421861
0.421813
0.421716
0.421679
0.421659
0.421638
0.421616
0.421557
0.421604
0.421669
0.421669
0.421787
0.421815
0.421815
0.421892
0.421959
0.422052
0.422186
0.422303
0.422402
0.422507
0.422652
0.422767
0.422941
0.423086
0.42328
0.423423
0.42365
0.423786
0.424059
0.424215
0.424534
0.424715
0.42509
0.425297
0.425729
0.425972
0.426477
0.426765
0.427371
0.427718
0.428484
0.428884
0.430119
0.430438
0.436781
3.25482
537.847
0.755373
0.643231
0.577093
0.536844
0.510715
0.49275
0.479757
0.470045
0.462525
0.456607
0.451807
0.447897
0.444617
0.441875
0.439515
0.437513
0.43575
0.434237
0.432878
0.431705
0.430632
0.4297
0.428835
0.428087
0.427383
0.426772
0.426188
0.425688
0.425205
0.424786
0.424378
0.424037
0.423698
0.423411
0.423123
0.422891
0.422648
0.422446
0.42224
0.422076
0.421905
0.421781
0.421637
0.421521
0.421402
0.421326
0.42122
0.421142
0.421072
0.421024
0.420927
0.420889
0.420868
0.420847
0.420825
0.420765
0.420811
0.420875
0.420875
0.420992
0.42102
0.42102
0.421096
0.421163
0.421255
0.421388
0.421505
0.421604
0.421709
0.421853
0.421968
0.422141
0.422285
0.422479
0.422621
0.422848
0.422983
0.423255
0.42341
0.423728
0.423909
0.424283
0.424489
0.42492
0.425162
0.425665
0.425952
0.426557
0.426902
0.427665
0.428063
0.429296
0.429609
0.436053
3.31359
538.09
0.755393
0.643132
0.576839
0.53646
0.510234
0.492195
0.479146
0.469393
0.461839
0.455893
0.451072
0.447143
0.443848
0.441094
0.438722
0.43671
0.434939
0.433419
0.432054
0.430875
0.429797
0.42886
0.427991
0.42724
0.426531
0.425917
0.425331
0.424828
0.424343
0.423921
0.423511
0.423168
0.422827
0.422539
0.422249
0.422016
0.421771
0.421568
0.421361
0.421196
0.421024
0.420898
0.420753
0.420637
0.420517
0.42044
0.420334
0.420255
0.420184
0.420136
0.420038
0.42
0.419978
0.419957
0.419933
0.419873
0.419919
0.419981
0.419981
0.420096
0.420124
0.420124
0.4202
0.420266
0.420358
0.42049
0.420607
0.420706
0.420809
0.420953
0.421067
0.42124
0.421383
0.421576
0.421717
0.421944
0.422079
0.42235
0.422504
0.422821
0.423001
0.423374
0.423579
0.424009
0.42425
0.424751
0.425037
0.425639
0.425983
0.426743
0.427139
0.428369
0.428675
0.435235
3.38089
538.785
0.755415
0.643022
0.576559
0.536035
0.509699
0.491578
0.478468
0.468667
0.461075
0.4551
0.450254
0.446304
0.442993
0.440224
0.43784
0.435817
0.434036
0.432509
0.431136
0.42995
0.428867
0.427925
0.427051
0.426296
0.425583
0.424966
0.424376
0.42387
0.423382
0.422958
0.422546
0.422201
0.421858
0.421568
0.421276
0.421041
0.420795
0.42059
0.420382
0.420215
0.420042
0.419916
0.41977
0.419652
0.419532
0.419454
0.419346
0.419267
0.419195
0.419147
0.419048
0.419009
0.418987
0.418965
0.418941
0.418879
0.418925
0.418985
0.418985
0.419099
0.419126
0.419126
0.419202
0.419268
0.419358
0.419489
0.419606
0.419705
0.419808
0.41995
0.420064
0.420236
0.420378
0.420571
0.420711
0.420937
0.421071
0.421342
0.421495
0.421811
0.42199
0.422361
0.422566
0.422994
0.423234
0.423733
0.424018
0.424617
0.424959
0.425716
0.426109
0.427337
0.427635
0.434325
3.45702
539.793
0.755439
0.642903
0.57625
0.535567
0.50911
0.4909
0.477721
0.467867
0.460234
0.454225
0.449352
0.44538
0.442049
0.439264
0.436867
0.434833
0.433041
0.431505
0.430124
0.428931
0.427841
0.426894
0.426015
0.425254
0.424538
0.423916
0.423323
0.422814
0.422323
0.421896
0.421482
0.421134
0.420788
0.420496
0.420202
0.419966
0.419718
0.419512
0.419302
0.419134
0.418959
0.418832
0.418685
0.418566
0.418444
0.418365
0.418257
0.418177
0.418104
0.418055
0.417956
0.417916
0.417893
0.41787
0.417846
0.417784
0.417828
0.417886
0.417886
0.417999
0.418026
0.418026
0.418101
0.418166
0.418256
0.418386
0.418502
0.418601
0.418703
0.418845
0.418957
0.419129
0.41927
0.419462
0.419602
0.419827
0.41996
0.420229
0.420382
0.420697
0.420875
0.421244
0.421448
0.421874
0.422113
0.42261
0.422893
0.42349
0.42383
0.424583
0.424974
0.426198
0.426488
0.433323
3.54221
540.966
0.755465
0.642774
0.575916
0.535058
0.508468
0.490159
0.476905
0.466993
0.459314
0.453269
0.448365
0.444369
0.441018
0.438215
0.435802
0.433755
0.431952
0.430406
0.429016
0.427816
0.426719
0.425765
0.424881
0.424115
0.423394
0.422768
0.422171
0.421658
0.421164
0.420734
0.420317
0.419966
0.419618
0.419324
0.419028
0.418789
0.418539
0.418332
0.41812
0.417951
0.417774
0.417645
0.417497
0.417377
0.417254
0.417174
0.417065
0.416984
0.41691
0.416861
0.416761
0.41672
0.416696
0.416672
0.416648
0.416584
0.416628
0.416683
0.416683
0.416795
0.416821
0.416821
0.416896
0.41696
0.417049
0.417178
0.417294
0.417393
0.417493
0.417634
0.417746
0.417917
0.418057
0.418248
0.418387
0.418611
0.418744
0.419012
0.419164
0.419477
0.419654
0.420022
0.420225
0.420648
0.420886
0.42138
0.421662
0.422256
0.422594
0.423344
0.423731
0.424952
0.425233
0.432229
3.63661
542.157
0.755495
0.642635
0.575554
0.534506
0.507773
0.489355
0.47602
0.466044
0.458315
0.45223
0.447294
0.44327
0.439896
0.437075
0.434645
0.432584
0.430769
0.429212
0.427812
0.426603
0.425499
0.424538
0.423647
0.422876
0.42215
0.42152
0.420918
0.420401
0.419903
0.41947
0.41905
0.418696
0.418346
0.418049
0.41775
0.41751
0.417258
0.417048
0.416835
0.416664
0.416486
0.416355
0.416205
0.416085
0.41596
0.415879
0.415769
0.415687
0.415612
0.415562
0.415462
0.41542
0.415394
0.41537
0.415345
0.41528
0.415323
0.415375
0.415375
0.415486
0.415511
0.415511
0.415586
0.415649
0.415737
0.415864
0.415979
0.416078
0.416178
0.416318
0.416429
0.416598
0.416737
0.416928
0.417066
0.41729
0.417421
0.417688
0.417839
0.41815
0.418326
0.418692
0.418894
0.419315
0.419551
0.420043
0.420324
0.420914
0.42125
0.421995
0.42238
0.423597
0.423869
0.43104
3.74027
543.223
0.755527
0.642488
0.575166
0.533913
0.507023
0.488489
0.475064
0.46502
0.457237
0.451108
0.446137
0.442084
0.438685
0.435842
0.433395
0.431319
0.42949
0.427921
0.426511
0.425293
0.42418
0.423212
0.422315
0.421537
0.420805
0.42017
0.419564
0.419043
0.418541
0.418104
0.41768
0.417323
0.41697
0.416671
0.41637
0.416127
0.415873
0.415661
0.415446
0.415273
0.415093
0.41496
0.414809
0.414687
0.414561
0.414478
0.414368
0.414284
0.414208
0.414157
0.414057
0.414013
0.413987
0.413962
0.413936
0.41387
0.413912
0.413961
0.413961
0.41407
0.414095
0.414094
0.414169
0.414231
0.414318
0.414444
0.414558
0.414658
0.414755
0.414895
0.415005
0.415173
0.415311
0.415501
0.415638
0.41586
0.415991
0.416256
0.416406
0.416716
0.41689
0.417254
0.417455
0.417874
0.418109
0.418598
0.418877
0.419463
0.419797
0.420538
0.420919
0.422132
0.422393
0.429757
3.85312
544.03
0.755561
0.642331
0.574752
0.533279
0.50622
0.487559
0.474039
0.46392
0.456079
0.449903
0.444893
0.440808
0.437383
0.434518
0.432051
0.429958
0.428115
0.426533
0.425112
0.423884
0.422762
0.421786
0.420881
0.420097
0.419359
0.418719
0.418107
0.417582
0.417075
0.416635
0.416207
0.415847
0.41549
0.415188
0.414884
0.414639
0.414382
0.414169
0.413951
0.413776
0.413594
0.41346
0.413307
0.413184
0.413056
0.412972
0.41286
0.412776
0.412698
0.412646
0.412545
0.412501
0.412473
0.412447
0.412421
0.412353
0.412394
0.41244
0.41244
0.412548
0.412571
0.412571
0.412645
0.412706
0.412792
0.412916
0.41303
0.413129
0.413225
0.413364
0.413473
0.41364
0.413776
0.413966
0.414101
0.414323
0.414453
0.414716
0.414865
0.415172
0.415346
0.415707
0.415907
0.416323
0.416557
0.417043
0.41732
0.417902
0.418234
0.418969
0.419347
0.420556
0.420807
0.428377
3.97493
544.456
0.755598
0.642166
0.574312
0.532603
0.505364
0.486567
0.472943
0.462745
0.45484
0.448613
0.443562
0.439443
0.43599
0.4331
0.430613
0.428502
0.426643
0.425047
0.423614
0.422375
0.421243
0.420259
0.419346
0.418555
0.417811
0.417164
0.416548
0.416017
0.415506
0.415062
0.41463
0.414266
0.413906
0.413601
0.413294
0.413046
0.412786
0.41257
0.41235
0.412174
0.411989
0.411853
0.411699
0.411574
0.411444
0.411359
0.411246
0.41116
0.411081
0.411028
0.410927
0.41088
0.410851
0.410824
0.410798
0.410728
0.410768
0.410812
0.410811
0.410917
0.410939
0.410939
0.411013
0.411073
0.411157
0.41128
0.411393
0.411492
0.411586
0.411724
0.411831
0.411998
0.412133
0.412321
0.412455
0.412676
0.412805
0.413066
0.413214
0.413519
0.413692
0.414051
0.414249
0.414662
0.414894
0.415377
0.415652
0.41623
0.416559
0.41729
0.417664
0.418868
0.419108
0.426899
4.10532
544.393
0.755638
0.641992
0.573848
0.531886
0.504454
0.485512
0.471777
0.461493
0.453521
0.44724
0.442144
0.437989
0.434504
0.431589
0.429079
0.426949
0.425073
0.423463
0.422017
0.420766
0.419624
0.418631
0.417709
0.416911
0.41616
0.415507
0.414884
0.414348
0.413832
0.413384
0.412948
0.41258
0.412216
0.411907
0.411597
0.411346
0.411084
0.410866
0.410643
0.410464
0.410277
0.410139
0.409983
0.409856
0.409725
0.409638
0.409523
0.409436
0.409355
0.409302
0.4092
0.409152
0.409121
0.409093
0.409066
0.408995
0.409034
0.409074
0.409073
0.409177
0.409198
0.409198
0.409271
0.40933
0.409413
0.409534
0.409646
0.409745
0.409838
0.409974
0.410081
0.410246
0.410379
0.410566
0.410699
0.410919
0.411046
0.411306
0.411453
0.411756
0.411927
0.412283
0.41248
0.41289
0.413121
0.4136
0.413873
0.414446
0.414773
0.415498
0.415868
0.417068
0.417296
0.425323
4.24371
543.75
0.75568
0.641811
0.573358
0.531129
0.503491
0.484393
0.470541
0.460165
0.452121
0.445782
0.440639
0.436444
0.432927
0.429984
0.42745
0.425299
0.423405
0.421779
0.420319
0.419056
0.417903
0.4169
0.41597
0.415163
0.414404
0.413745
0.413116
0.412575
0.412054
0.4116
0.411159
0.410787
0.41042
0.410107
0.409794
0.409539
0.409274
0.409053
0.408828
0.408647
0.408458
0.408317
0.408159
0.408031
0.407897
0.407808
0.407692
0.407604
0.407521
0.407467
0.407364
0.407314
0.407282
0.407253
0.407225
0.407153
0.40719
0.407227
0.407225
0.407327
0.407347
0.407347
0.407419
0.407477
0.407558
0.407678
0.407789
0.407888
0.407979
0.408114
0.408219
0.408383
0.408515
0.408701
0.408832
0.409051
0.409177
0.409435
0.40958
0.409881
0.41005
0.410404
0.410599
0.411006
0.411235
0.41171
0.411981
0.41255
0.412874
0.413593
0.413958
0.415154
0.41537
0.423646
4.38931
542.44
0.755726
0.641623
0.572844
0.530332
0.502475
0.483213
0.469235
0.458761
0.45064
0.444239
0.439046
0.434809
0.431257
0.428284
0.425725
0.423552
0.421639
0.419996
0.418522
0.417245
0.416081
0.415067
0.414127
0.413312
0.412545
0.411879
0.411243
0.410696
0.410169
0.40971
0.409265
0.408888
0.408516
0.4082
0.407883
0.407625
0.407357
0.407133
0.406905
0.406721
0.40653
0.406387
0.406226
0.406096
0.405961
0.40587
0.405752
0.405662
0.405578
0.405522
0.405418
0.405367
0.405334
0.405303
0.405274
0.4052
0.405236
0.40527
0.405267
0.405367
0.405385
0.405385
0.405457
0.405513
0.405593
0.405711
0.405821
0.40592
0.406009
0.406143
0.406246
0.406409
0.406539
0.406724
0.406853
0.407071
0.407196
0.407451
0.407596
0.407894
0.408062
0.408412
0.408606
0.40901
0.409236
0.409708
0.409976
0.41054
0.410861
0.411574
0.411935
0.413126
0.413329
0.421867
4.54108
540.403
0.755774
0.641427
0.572307
0.529496
0.501407
0.48197
0.467858
0.457282
0.449078
0.442612
0.437365
0.433084
0.429494
0.42649
0.423904
0.421707
0.419774
0.418114
0.416623
0.415333
0.414156
0.413131
0.412181
0.411356
0.410581
0.409907
0.409264
0.408711
0.408178
0.407714
0.407263
0.406882
0.406505
0.406186
0.405864
0.405603
0.405331
0.405105
0.404873
0.404687
0.404492
0.404347
0.404184
0.404052
0.403914
0.403822
0.403702
0.403611
0.403524
0.403468
0.403363
0.40331
0.403275
0.403243
0.403213
0.403138
0.403171
0.403201
0.403198
0.403296
0.403313
0.403313
0.403384
0.403438
0.403517
0.403633
0.403741
0.40384
0.403927
0.40406
0.404162
0.404323
0.404451
0.404635
0.404763
0.404979
0.405102
0.405355
0.405498
0.405794
0.40596
0.406307
0.4065
0.4069
0.407125
0.407592
0.407858
0.408417
0.408735
0.409441
0.409797
0.410982
0.411173
0.419984
4.69769
537.587
0.755825
0.641225
0.571746
0.528621
0.500288
0.480665
0.466412
0.455726
0.447436
0.4409
0.435596
0.431268
0.427638
0.424601
0.421986
0.419765
0.41781
0.416131
0.414623
0.413318
0.412128
0.411091
0.41013
0.409296
0.408512
0.40783
0.40718
0.406619
0.40608
0.405611
0.405154
0.404768
0.404387
0.404063
0.403737
0.403472
0.403197
0.402967
0.402733
0.402543
0.402346
0.402198
0.402033
0.401898
0.401758
0.401663
0.401542
0.401449
0.40136
0.401302
0.401197
0.401142
0.401105
0.401072
0.401041
0.400964
0.400996
0.401022
0.401018
0.401113
0.401128
0.401128
0.401199
0.401251
0.401329
0.401442
0.40155
0.401648
0.401733
0.401865
0.401965
0.402124
0.40225
0.402433
0.402559
0.402774
0.402896
0.403147
0.403288
0.403581
0.403745
0.404089
0.40428
0.404676
0.404899
0.405362
0.405625
0.406178
0.406493
0.407193
0.407544
0.408724
0.408902
0.417995
4.85756
533.951
0.755879
0.641017
0.571164
0.527707
0.499117
0.479299
0.464897
0.454095
0.445713
0.439103
0.433739
0.429361
0.42569
0.422617
0.419972
0.417725
0.415747
0.414047
0.412522
0.411202
0.409997
0.408948
0.407976
0.407131
0.406338
0.405647
0.404989
0.404422
0.403876
0.4034
0.402938
0.402547
0.40216
0.401832
0.401502
0.401233
0.400954
0.40072
0.400482
0.40029
0.400089
0.399939
0.399771
0.399635
0.399492
0.399395
0.399272
0.399177
0.399086
0.399026
0.39892
0.398863
0.398824
0.398789
0.398758
0.398679
0.398708
0.398732
0.398726
0.398818
0.398832
0.398832
0.398902
0.398952
0.399029
0.39914
0.399245
0.399344
0.399427
0.399557
0.399655
0.399813
0.399937
0.400118
0.400242
0.400455
0.400576
0.400824
0.400964
0.401254
0.401417
0.401757
0.401946
0.402338
0.402559
0.403017
0.403278
0.403825
0.404137
0.40483
0.405176
0.406349
0.406515
0.415899
5.01878
529.466
0.755936
0.640804
0.57056
0.526757
0.497896
0.477873
0.463313
0.452388
0.44391
0.437222
0.431794
0.427364
0.423648
0.420538
0.417861
0.415586
0.413585
0.411864
0.41032
0.408983
0.407763
0.406701
0.405717
0.404862
0.404058
0.403359
0.402692
0.402117
0.401564
0.401082
0.400614
0.400217
0.399825
0.399492
0.399157
0.398884
0.398601
0.398364
0.398123
0.397927
0.397723
0.39757
0.397399
0.39726
0.397114
0.397015
0.39689
0.396794
0.3967
0.396639
0.396532
0.396472
0.396431
0.396395
0.396363
0.396282
0.39631
0.396329
0.396322
0.396412
0.396424
0.396424
0.396492
0.396541
0.396616
0.396724
0.396829
0.396927
0.397007
0.397136
0.397233
0.397388
0.39751
0.39769
0.397812
0.398024
0.398143
0.398389
0.398527
0.398813
0.398974
0.399311
0.399498
0.399886
0.400104
0.400558
0.400816
0.401357
0.401665
0.402351
0.402692
0.403859
0.404011
0.413691
5.17914
524.107
0.755996
0.640585
0.569936
0.525771
0.496626
0.476386
0.461661
0.450607
0.442027
0.435257
0.429762
0.425276
0.421514
0.418365
0.415654
0.41335
0.411323
0.40958
0.408017
0.406662
0.405427
0.40435
0.403354
0.402487
0.401673
0.400964
0.400289
0.399706
0.399145
0.398657
0.398182
0.397779
0.397382
0.397044
0.396704
0.396426
0.396139
0.395899
0.395653
0.395454
0.395247
0.39509
0.394916
0.394775
0.394627
0.394525
0.394398
0.394299
0.394203
0.394141
0.394032
0.393971
0.393928
0.393889
0.393856
0.393774
0.393799
0.393815
0.393806
0.393893
0.393904
0.393903
0.393971
0.394017
0.39409
0.394196
0.394299
0.394397
0.394475
0.394602
0.394697
0.39485
0.394971
0.395149
0.395269
0.395478
0.395596
0.395839
0.395975
0.396258
0.396418
0.39675
0.396935
0.397319
0.397535
0.397983
0.398238
0.398774
0.399078
0.399756
0.400091
0.401252
0.401392
0.411371
5.33609
517.856
0.756058
0.640363
0.569292
0.524749
0.495307
0.474841
0.459942
0.448753
0.440065
0.433209
0.427643
0.423099
0.419288
0.416097
0.413351
0.411016
0.408962
0.407196
0.405612
0.404239
0.402987
0.401896
0.400886
0.400008
0.399183
0.398464
0.39778
0.397188
0.396619
0.396124
0.395642
0.395233
0.39483
0.394487
0.394142
0.393859
0.393568
0.393323
0.393074
0.392871
0.39266
0.3925
0.392324
0.39218
0.392028
0.391924
0.391795
0.391694
0.391595
0.391531
0.391421
0.391357
0.391312
0.391272
0.391238
0.391154
0.391176
0.391189
0.391178
0.391262
0.391271
0.39127
0.391336
0.39138
0.391452
0.391556
0.391657
0.391754
0.391829
0.391955
0.392048
0.392199
0.392317
0.392494
0.392612
0.392819
0.392935
0.393175
0.39331
0.393589
0.393747
0.394075
0.394258
0.394637
0.394851
0.395294
0.395546
0.396075
0.396375
0.397046
0.397375
0.398528
0.398656
0.408935
5.4868
510.698
0.756124
0.640136
0.56863
0.523693
0.493941
0.473237
0.458156
0.446825
0.438024
0.431077
0.425438
0.420832
0.41697
0.413736
0.410952
0.408585
0.406503
0.404713
0.403106
0.401714
0.400445
0.399339
0.398315
0.397424
0.396587
0.395858
0.395164
0.394563
0.393987
0.393484
0.392995
0.39258
0.39217
0.391821
0.391471
0.391184
0.390887
0.390639
0.390385
0.390179
0.389964
0.389801
0.389621
0.389474
0.389319
0.389212
0.389081
0.388978
0.388876
0.38881
0.388699
0.388633
0.388585
0.388543
0.388508
0.388423
0.388441
0.388451
0.388438
0.388518
0.388526
0.388525
0.38859
0.388631
0.388701
0.388802
0.388901
0.388998
0.389071
0.389194
0.389285
0.389435
0.38955
0.389725
0.389841
0.390046
0.39016
0.390397
0.39053
0.390806
0.390961
0.391286
0.391466
0.391841
0.392052
0.392489
0.392738
0.393261
0.393557
0.394219
0.394543
0.395689
0.395803
0.40638
5.62814
502.615
0.756193
0.639907
0.56795
0.522604
0.492529
0.471577
0.456304
0.444824
0.435906
0.428864
0.423147
0.418477
0.414561
0.411281
0.408458
0.406058
0.403946
0.402129
0.400501
0.399088
0.397801
0.396679
0.39564
0.394736
0.393887
0.393147
0.392443
0.391833
0.391247
0.390737
0.390241
0.389819
0.389403
0.389048
0.388692
0.388399
0.388098
0.387845
0.387587
0.387377
0.387158
0.386991
0.386808
0.386658
0.3865
0.38639
0.386256
0.386151
0.386046
0.385978
0.385866
0.385797
0.385747
0.385703
0.385666
0.38558
0.385595
0.385601
0.385586
0.385663
0.385669
0.385668
0.385731
0.385769
0.385838
0.385936
0.386033
0.386129
0.386199
0.386321
0.38641
0.386557
0.38667
0.386843
0.386957
0.387159
0.387272
0.387506
0.387637
0.387909
0.388062
0.388382
0.38856
0.38893
0.389138
0.38957
0.389816
0.390331
0.390623
0.391277
0.391595
0.392733
0.392835
0.403703
5.75676
493.591
0.756264
0.639675
0.567254
0.521484
0.491071
0.46986
0.454388
0.442753
0.433711
0.42657
0.420771
0.416034
0.412061
0.408733
0.405869
0.403434
0.401291
0.399448
0.397795
0.396362
0.395056
0.393916
0.392862
0.391944
0.391082
0.390331
0.389616
0.388997
0.388402
0.387884
0.38738
0.38695
0.386527
0.386167
0.385805
0.385507
0.385201
0.384943
0.38468
0.384466
0.384243
0.384072
0.383885
0.383733
0.383571
0.383458
0.383321
0.383214
0.383106
0.383036
0.382922
0.382851
0.382798
0.382752
0.382714
0.382626
0.382638
0.382641
0.382623
0.382696
0.3827
0.382698
0.38276
0.382795
0.382863
0.382958
0.383053
0.383148
0.383215
0.383335
0.383422
0.383567
0.383677
0.383848
0.383959
0.38416
0.38427
0.384501
0.38463
0.384898
0.385049
0.385364
0.38554
0.385905
0.38611
0.386536
0.386778
0.387287
0.387574
0.38822
0.388531
0.389661
0.389752
0.400902
5.86907
483.61
0.756339
0.639441
0.566542
0.520333
0.48957
0.46809
0.452409
0.440611
0.43144
0.424195
0.418311
0.413503
0.409472
0.406094
0.403187
0.400714
0.39854
0.396668
0.39499
0.393535
0.392209
0.391052
0.389981
0.389049
0.388174
0.387411
0.386685
0.386055
0.385451
0.384924
0.384412
0.383975
0.383545
0.383179
0.38281
0.382507
0.382195
0.381933
0.381665
0.381447
0.381219
0.381044
0.380853
0.380698
0.380533
0.380416
0.380277
0.380167
0.380056
0.379983
0.379868
0.379794
0.379739
0.37969
0.379651
0.379562
0.379569
0.37957
0.379549
0.379618
0.379621
0.379618
0.379677
0.37971
0.379776
0.379868
0.379961
0.380055
0.380119
0.380237
0.380321
0.380465
0.380572
0.380741
0.380849
0.381047
0.381156
0.381383
0.38151
0.381774
0.381923
0.382233
0.382407
0.382766
0.382968
0.383388
0.383627
0.384128
0.384411
0.385048
0.385353
0.386473
0.386553
0.397972
5.96141
472.651
0.756416
0.639206
0.565817
0.519154
0.488027
0.466266
0.450369
0.438401
0.429095
0.421741
0.415769
0.410887
0.406794
0.403364
0.400412
0.397901
0.395692
0.393791
0.392087
0.390609
0.389262
0.388087
0.386999
0.386052
0.385163
0.384387
0.38365
0.383009
0.382396
0.38186
0.381339
0.380895
0.380457
0.380084
0.379709
0.379399
0.379082
0.378815
0.378542
0.378319
0.378087
0.377908
0.377713
0.377555
0.377386
0.377266
0.377123
0.377011
0.376896
0.376822
0.376705
0.376628
0.37657
0.376519
0.376478
0.376389
0.376391
0.376389
0.376364
0.376429
0.376431
0.376427
0.376484
0.376513
0.376579
0.376666
0.376757
0.376851
0.376912
0.377028
0.37711
0.37725
0.377355
0.377521
0.377628
0.377823
0.37793
0.378153
0.378278
0.378538
0.378684
0.378989
0.37916
0.379514
0.379713
0.380127
0.380362
0.380855
0.381134
0.381762
0.38206
0.383171
0.38324
0.39491
6.03008
460.695
0.756496
0.63897
0.565078
0.517947
0.486444
0.464391
0.448268
0.436123
0.426677
0.419209
0.413144
0.408186
0.404028
0.400544
0.397545
0.394993
0.39275
0.390818
0.389087
0.387584
0.386216
0.385021
0.383916
0.382953
0.38205
0.381261
0.380511
0.37986
0.379236
0.378691
0.378162
0.377709
0.377264
0.376883
0.376502
0.376186
0.375863
0.375591
0.375313
0.375085
0.374848
0.374665
0.374466
0.374304
0.374131
0.374007
0.373862
0.373747
0.373629
0.373551
0.373433
0.373353
0.373292
0.373238
0.373196
0.373106
0.373103
0.373099
0.37307
0.37313
0.373132
0.373126
0.373181
0.373207
0.373271
0.373355
0.373444
0.373536
0.373593
0.373707
0.373787
0.373925
0.374027
0.374191
0.374294
0.374487
0.374592
0.374811
0.374934
0.37519
0.375333
0.375633
0.375801
0.37615
0.376346
0.376753
0.376984
0.37747
0.377744
0.378362
0.378654
0.379754
0.379813
0.391713
6.07138
447.725
0.756579
0.638735
0.564329
0.516715
0.484822
0.462466
0.446108
0.433779
0.424187
0.416601
0.41044
0.405401
0.401176
0.397635
0.394588
0.391994
0.389713
0.387749
0.38599
0.384462
0.383071
0.381857
0.380734
0.379754
0.378836
0.378033
0.377271
0.376609
0.375974
0.375419
0.37488
0.374419
0.373966
0.373579
0.37319
0.372868
0.372538
0.372261
0.371977
0.371745
0.371503
0.371315
0.371111
0.370946
0.370769
0.370642
0.370493
0.370375
0.370253
0.370173
0.370053
0.36997
0.369906
0.36985
0.369806
0.369716
0.369708
0.3697
0.369668
0.369723
0.369723
0.369717
0.369769
0.369791
0.369854
0.369934
0.370021
0.370112
0.370165
0.370277
0.370354
0.37049
0.370589
0.37075
0.370851
0.37104
0.371143
0.371358
0.371479
0.37173
0.371871
0.372166
0.372331
0.372674
0.372867
0.373267
0.373495
0.373972
0.374242
0.37485
0.375136
0.376224
0.376273
0.388378
6.08202
433.726
0.756664
0.6385
0.563569
0.515459
0.483163
0.460493
0.443892
0.431372
0.421627
0.413918
0.407656
0.402534
0.398239
0.394639
0.391541
0.388903
0.386585
0.384587
0.382798
0.381245
0.37983
0.378595