/*--------------------------------*- C++ -*----------------------------------*\
| =========                 |                                                 |
| \\      /  F ield         | OpenFOAM: The Open Source CFD Toolbox           |
|  \\    /   O peration     | Version:  v2012                                 |
|   \\  /    A nd           | Website:  www.openfoam.com                      |
|    \\/     M anipulation  |                                                 |
\*---------------------------------------------------------------------------*/
FoamFile
{
    version     2.0;
    format      ascii;
    class       volScalarField;
    location    "30.5";
    object      k;
}
// * * * * * * * * * * * * * * * * * * * * * * * * * * * * * * * * * * * * * //

dimensions      [0 2 -2 0 0 0 0];


internalField   nonuniform List<scalar> 
209825
(
0.00102434
0.000929494
0.000853124
0.000794216
0.000749132
0.000714381
0.000686949
0.00066499
0.00064694
0.000632011
0.000619343
0.000608613
0.000599287
0.000591257
0.000584129
0.00057793
0.000572335
0.000567435
0.000562947
0.000558998
0.000555331
0.000552099
0.000549053
0.00054637
0.000543816
0.000541569
0.000539407
0.000537501
0.000535659
0.000534043
0.000532451
0.000531066
0.000529696
0.000528511
0.000527325
0.00052631
0.000525269
0.000524386
0.000523476
0.000522709
0.000521911
0.000521249
0.000520547
0.000519971
0.000519348
0.00051885
0.000518299
0.000517868
0.00051739
0.000517015
0.000516592
0.000516278
0.00051591
0.000515631
0.00051531
0.000515082
0.000514808
0.000514602
0.000514376
0.000514215
0.000514
0.000513875
0.000513711
0.000513582
0.000513428
0.000513353
0.000513209
0.00051314
0.000512995
0.00051296
0.000512883
0.000512957
0.000512957
0.000513073
0.000513095
0.000513219
0.000513269
0.000513417
0.000513492
0.000513677
0.000513785
0.000514027
0.000514166
0.000514461
0.000514626
0.000514978
0.000515177
0.000515605
0.000515845
0.000516391
0.000516654
0.000517503
0.000517657
0.000523235
0.010777
0.0119413
0.00102434
0.000929495
0.000853124
0.000794215
0.000749129
0.000714376
0.000686942
0.000664982
0.00064693
0.000632
0.000619331
0.0006086
0.000599273
0.000591242
0.000584114
0.000577914
0.000572318
0.000567418
0.00056293
0.00055898
0.000555312
0.00055208
0.000549035
0.000546351
0.000543797
0.00054155
0.000539387
0.000537481
0.000535639
0.000534023
0.00053243
0.000531046
0.000529674
0.00052849
0.000527304
0.000526288
0.000525248
0.000524365
0.000523454
0.000522687
0.000521889
0.000521227
0.000520525
0.000519948
0.000519325
0.000518828
0.000518276
0.000517845
0.000517367
0.000516992
0.00051657
0.000516256
0.000515887
0.000515608
0.000515288
0.000515059
0.000514785
0.000514579
0.000514353
0.000514192
0.000513977
0.000513852
0.000513688
0.000513559
0.000513405
0.00051333
0.000513186
0.000513116
0.000512972
0.000512936
0.000512859
0.000512934
0.000512934
0.000513049
0.000513072
0.000513195
0.000513245
0.000513394
0.000513469
0.000513653
0.000513761
0.000514004
0.000514142
0.000514437
0.000514602
0.000514954
0.000515153
0.000515581
0.000515821
0.000516366
0.00051663
0.000517479
0.000517633
0.000523219
0.010786
0.0119531
0.00102434
0.000929497
0.000853123
0.000794206
0.000749112
0.00071435
0.000686909
0.000664942
0.000646885
0.000631949
0.000619277
0.000608542
0.000599211
0.000591178
0.000584047
0.000577845
0.000572247
0.000567345
0.000562855
0.000558904
0.000555235
0.000552001
0.000548955
0.00054627
0.000543715
0.000541467
0.000539303
0.000537396
0.000535554
0.000533937
0.000532343
0.000530959
0.000529587
0.000528402
0.000527215
0.000526199
0.000525158
0.000524275
0.000523364
0.000522596
0.000521798
0.000521135
0.000520434
0.000519857
0.000519233
0.000518735
0.000518184
0.000517752
0.000517274
0.000516899
0.000516476
0.000516162
0.000515793
0.000515514
0.000515193
0.000514964
0.000514691
0.000514485
0.000514258
0.000514096
0.000513882
0.000513757
0.000513593
0.000513463
0.000513309
0.000513234
0.00051309
0.00051302
0.000512876
0.00051284
0.000512763
0.000512837
0.000512837
0.000512952
0.000512974
0.000513098
0.000513148
0.000513296
0.000513371
0.000513555
0.000513663
0.000513905
0.000514044
0.000514338
0.000514504
0.000514855
0.000515054
0.000515481
0.000515721
0.000516266
0.00051653
0.000517378
0.000517531
0.000523133
0.0108038
0.0119774
0.00102434
0.000929501
0.000853121
0.000794192
0.000749083
0.000714307
0.000686853
0.000664875
0.000646808
0.000631864
0.000619185
0.000608443
0.000599107
0.00059107
0.000583934
0.000577728
0.000572127
0.000567222
0.000562729
0.000558776
0.000555104
0.000551869
0.00054882
0.000546133
0.000543577
0.000541327
0.000539162
0.000537254
0.00053541
0.000533792
0.000532198
0.000530812
0.000529439
0.000528254
0.000527066
0.000526049
0.000525007
0.000524123
0.000523212
0.000522444
0.000521645
0.000520982
0.000520279
0.000519702
0.000519078
0.00051858
0.000518028
0.000517596
0.000517117
0.000516741
0.000516318
0.000516004
0.000515635
0.000515356
0.000515034
0.000514805
0.000514531
0.000514325
0.000514098
0.000513936
0.000513721
0.000513596
0.000513432
0.000513303
0.000513148
0.000513073
0.000512929
0.000512859
0.000512714
0.000512678
0.0005126
0.000512673
0.000512673
0.000512789
0.000512811
0.000512934
0.000512984
0.000513132
0.000513206
0.00051339
0.000513498
0.00051374
0.000513878
0.000514172
0.000514337
0.000514688
0.000514887
0.000515314
0.000515553
0.000516098
0.000516361
0.000517209
0.000517361
0.000522988
0.0108313
0.0120151
0.00102434
0.000929507
0.000853118
0.000794171
0.000749042
0.000714245
0.000686774
0.00066478
0.0006467
0.000631744
0.000619054
0.000608305
0.000598961
0.000590916
0.000583775
0.000577563
0.000571958
0.000567049
0.000562552
0.000558595
0.00055492
0.000551681
0.00054863
0.000545941
0.000543382
0.00054113
0.000538963
0.000537053
0.000535208
0.000533588
0.000531993
0.000530605
0.000529231
0.000528044
0.000526856
0.000525838
0.000524795
0.00052391
0.000522997
0.000522228
0.000521429
0.000520765
0.000520062
0.000519484
0.000518859
0.00051836
0.000517808
0.000517375
0.000516896
0.00051652
0.000516096
0.000515781
0.000515412
0.000515132
0.00051481
0.000514581
0.000514307
0.0005141
0.000513873
0.000513711
0.000513495
0.00051337
0.000513205
0.000513076
0.000512921
0.000512845
0.000512701
0.000512631
0.000512486
0.00051245
0.000512371
0.000512443
0.000512443
0.000512558
0.00051258
0.000512702
0.000512752
0.0005129
0.000512974
0.000513158
0.000513265
0.000513506
0.000513644
0.000513938
0.000514102
0.000514452
0.000514651
0.000515077
0.000515316
0.00051586
0.000516123
0.00051697
0.00051712
0.000522782
0.0108694
0.0120669
0.00102434
0.000929515
0.000853115
0.000794145
0.000748988
0.000714166
0.000686671
0.000664657
0.000646559
0.000631589
0.000618886
0.000608125
0.000598771
0.000590718
0.000583568
0.00057735
0.000571738
0.000566824
0.000562322
0.00055836
0.000554681
0.000551439
0.000548384
0.000545692
0.00054313
0.000540875
0.000538706
0.000536793
0.000534946
0.000533324
0.000531726
0.000530337
0.000528962
0.000527773
0.000526583
0.000525564
0.000524519
0.000523633
0.000522719
0.000521949
0.000521149
0.000520484
0.00051978
0.000519201
0.000518575
0.000518076
0.000517522
0.00051709
0.000516609
0.000516232
0.000515808
0.000515493
0.000515123
0.000514842
0.00051452
0.00051429
0.000514015
0.000513808
0.000513581
0.000513418
0.000513202
0.000513076
0.000512911
0.000512782
0.000512626
0.000512551
0.000512406
0.000512336
0.000512191
0.000512154
0.000512074
0.000512145
0.000512145
0.000512259
0.00051228
0.000512403
0.000512452
0.000512599
0.000512673
0.000512856
0.000512963
0.000513203
0.000513341
0.000513634
0.000513798
0.000514147
0.000514345
0.000514771
0.000515009
0.000515552
0.000515814
0.00051666
0.000516808
0.000522514
0.0109186
0.0121338
0.00102435
0.000929524
0.000853111
0.000794112
0.000748923
0.000714068
0.000686545
0.000664506
0.000646387
0.000631398
0.000618679
0.000607903
0.000598537
0.000590473
0.000583314
0.000577088
0.000571468
0.000566546
0.000562038
0.000558071
0.000554387
0.00055114
0.000548081
0.000545385
0.000542819
0.000540561
0.000538388
0.000536473
0.000534623
0.000532999
0.000531399
0.000530007
0.00052863
0.000527439
0.000526247
0.000525226
0.00052418
0.000523293
0.000522377
0.000521606
0.000520804
0.000520138
0.000519433
0.000518852
0.000518226
0.000517726
0.000517171
0.000516737
0.000516256
0.000515878
0.000515453
0.000515137
0.000514766
0.000514485
0.000514162
0.000513932
0.000513656
0.000513449
0.00051322
0.000513057
0.000512841
0.000512715
0.000512549
0.000512419
0.000512263
0.000512187
0.000512042
0.000511972
0.000511827
0.00051179
0.000511709
0.000511777
0.000511778
0.000511891
0.000511911
0.000512033
0.000512082
0.000512228
0.000512302
0.000512484
0.000512591
0.00051283
0.000512967
0.000513259
0.000513423
0.000513771
0.000513969
0.000514393
0.000514631
0.000515172
0.000515433
0.000516278
0.000516423
0.000522184
0.0109797
0.0122165
0.00102435
0.000929535
0.000853106
0.000794074
0.000748845
0.000713952
0.000686395
0.000664326
0.000646181
0.00063117
0.000618432
0.00060764
0.000598259
0.000590182
0.000583012
0.000576775
0.000571146
0.000566216
0.000561701
0.000557727
0.000554036
0.000550784
0.00054772
0.000545019
0.000542449
0.000540187
0.00053801
0.000536092
0.000534238
0.000532611
0.000531008
0.000529614
0.000528234
0.000527041
0.000525847
0.000524824
0.000523776
0.000522886
0.000521969
0.000521196
0.000520393
0.000519725
0.000519019
0.000518437
0.000517809
0.000517308
0.000516752
0.000516317
0.000515835
0.000515457
0.00051503
0.000514713
0.000514342
0.00051406
0.000513736
0.000513505
0.000513228
0.00051302
0.000512791
0.000512628
0.000512411
0.000512284
0.000512118
0.000511988
0.000511831
0.000511754
0.000511609
0.000511538
0.000511393
0.000511355
0.000511273
0.00051134
0.00051134
0.000511452
0.000511471
0.000511593
0.000511641
0.000511787
0.000511859
0.000512041
0.000512147
0.000512385
0.000512522
0.000512813
0.000512976
0.000513323
0.00051352
0.000513943
0.00051418
0.00051472
0.000514979
0.000515824
0.000515964
0.000521792
0.0110533
0.0123157
0.00102435
0.000929548
0.0008531
0.00079403
0.000748755
0.000713818
0.000686221
0.000664118
0.000645943
0.000630906
0.000618146
0.000607334
0.000597936
0.000589844
0.000582661
0.000576412
0.000570772
0.000565833
0.000561308
0.000557326
0.000553629
0.00055037
0.0005473
0.000544593
0.000542018
0.000539752
0.000537571
0.000535648
0.000533791
0.00053216
0.000530554
0.000529157
0.000527774
0.000526578
0.000525381
0.000524356
0.000523306
0.000522414
0.000521495
0.00052072
0.000519915
0.000519246
0.000518537
0.000517954
0.000517325
0.000516822
0.000516265
0.000515829
0.000515345
0.000514966
0.000514538
0.00051422
0.000513848
0.000513565
0.00051324
0.000513008
0.000512731
0.000512522
0.000512292
0.000512128
0.00051191
0.000511782
0.000511615
0.000511485
0.000511327
0.000511251
0.000511105
0.000511034
0.000510888
0.000510849
0.000510765
0.00051083
0.00051083
0.000510941
0.00051096
0.00051108
0.000511127
0.000511273
0.000511345
0.000511525
0.000511631
0.000511868
0.000512004
0.000512294
0.000512456
0.000512802
0.000512998
0.000513419
0.000513655
0.000514193
0.000514452
0.000515294
0.000515431
0.000521337
0.0111398
0.012432
0.00102436
0.000929563
0.000853095
0.00079398
0.000748653
0.000713666
0.000686023
0.00066388
0.000645672
0.000630605
0.000617819
0.000606985
0.000597568
0.000589459
0.00058226
0.000575997
0.000570345
0.000565395
0.000560861
0.00055687
0.000553164
0.000549897
0.00054682
0.000544107
0.000541526
0.000539255
0.000537069
0.000535141
0.000533279
0.000531645
0.000530035
0.000528635
0.000527248
0.000526049
0.000524849
0.000523821
0.000522768
0.000521874
0.000520953
0.000520176
0.000519369
0.000518697
0.000517987
0.000517402
0.000516771
0.000516267
0.000515708
0.000515271
0.000514785
0.000514405
0.000513976
0.000513657
0.000513283
0.000512999
0.000512673
0.00051244
0.000512162
0.000511952
0.000511721
0.000511556
0.000511337
0.000511209
0.000511041
0.000510911
0.000510752
0.000510675
0.000510528
0.000510457
0.000510311
0.000510271
0.000510185
0.000510248
0.000510247
0.000510357
0.000510375
0.000510495
0.000510541
0.000510685
0.000510757
0.000510936
0.00051104
0.000511276
0.000511411
0.0005117
0.000511862
0.000512206
0.000512401
0.00051282
0.000513055
0.000513591
0.000513848
0.000514689
0.000514821
0.000520818
0.0112397
0.0125661
0.00102436
0.00092958
0.000853088
0.000793924
0.000748539
0.000713495
0.000685802
0.000663614
0.000645367
0.000630267
0.000617452
0.000606593
0.000597153
0.000589025
0.000581808
0.00057553
0.000569865
0.000564902
0.000560356
0.000556355
0.00055264
0.000549365
0.00054628
0.00054356
0.000540972
0.000538695
0.000536503
0.000534571
0.000532704
0.000531065
0.00052945
0.000528046
0.000526655
0.000525453
0.00052425
0.000523219
0.000522163
0.000521266
0.000520342
0.000519563
0.000518753
0.000518079
0.000517366
0.00051678
0.000516147
0.000515641
0.00051508
0.000514641
0.000514154
0.000513772
0.000513342
0.000513022
0.000512646
0.000512362
0.000512034
0.0005118
0.000511521
0.00051131
0.000511077
0.000510912
0.000510692
0.000510563
0.000510394
0.000510263
0.000510104
0.000510026
0.000509878
0.000509807
0.00050966
0.00050962
0.000509532
0.000509591
0.000509591
0.000509698
0.000509716
0.000509835
0.00050988
0.000510023
0.000510093
0.000510272
0.000510375
0.000510609
0.000510744
0.000511031
0.000511191
0.000511534
0.000511728
0.000512145
0.000512379
0.000512913
0.000513168
0.000514007
0.000514134
0.000520234
0.0113532
0.0127185
0.00102437
0.000929598
0.000853082
0.000793863
0.000748413
0.000713306
0.000685556
0.000663318
0.000645028
0.000629891
0.000617044
0.000606157
0.000596692
0.000588542
0.000581306
0.000575011
0.00056933
0.000564353
0.000559795
0.000555782
0.000552057
0.000548772
0.000545678
0.000542951
0.000540356
0.000538071
0.000535873
0.000533935
0.000532062
0.000530418
0.000528799
0.00052739
0.000525995
0.000524789
0.000523582
0.000522547
0.000521488
0.000520589
0.000519661
0.000518879
0.000518067
0.000517391
0.000516675
0.000516087
0.000515452
0.000514944
0.000514381
0.00051394
0.000513451
0.000513068
0.000512636
0.000512314
0.000511937
0.000511651
0.000511322
0.000511087
0.000510806
0.000510594
0.00051036
0.000510194
0.000509973
0.000509843
0.000509673
0.000509542
0.000509381
0.000509302
0.000509154
0.000509082
0.000508935
0.000508894
0.000508804
0.00050886
0.000508859
0.000508965
0.000508981
0.000509099
0.000509143
0.000509285
0.000509354
0.000509531
0.000509634
0.000509866
0.00051
0.000510285
0.000510444
0.000510785
0.000510978
0.000511393
0.000511626
0.000512157
0.00051241
0.000513247
0.000513368
0.000519584
0.0114804
0.0128896
0.00102438
0.000929619
0.000853075
0.000793797
0.000748276
0.000713099
0.000685286
0.000662993
0.000644656
0.000629478
0.000616595
0.000605676
0.000596185
0.00058801
0.000580753
0.000574439
0.00056874
0.000563748
0.000559176
0.000555151
0.000551414
0.000548118
0.000545015
0.000542279
0.000539675
0.000537383
0.000535178
0.000533233
0.000531354
0.000529705
0.00052808
0.000526667
0.000525267
0.000524057
0.000522845
0.000521807
0.000520743
0.000519841
0.00051891
0.000518125
0.000517309
0.000516631
0.000515913
0.000515322
0.000514684
0.000514174
0.000513609
0.000513166
0.000512675
0.00051229
0.000511856
0.000511532
0.000511154
0.000510867
0.000510536
0.000510299
0.000510017
0.000509804
0.000509569
0.000509401
0.000509179
0.000509048
0.000508877
0.000508745
0.000508583
0.000508504
0.000508355
0.000508282
0.000508134
0.000508092
0.000507999
0.000508053
0.000508051
0.000508155
0.00050817
0.000508286
0.000508329
0.00050847
0.000508538
0.000508714
0.000508815
0.000509046
0.000509178
0.000509461
0.00050962
0.000509958
0.00051015
0.000510562
0.000510794
0.000511322
0.000511573
0.000512408
0.000512523
0.000518868
0.0116211
0.0130799
0.00102438
0.000929641
0.000853069
0.000793726
0.000748127
0.000712874
0.000684992
0.000662639
0.000644249
0.000629026
0.000616104
0.000605151
0.000595629
0.000587428
0.000580148
0.000573812
0.000568095
0.000563086
0.000558498
0.000554459
0.000550709
0.000547403
0.000544289
0.000541542
0.00053893
0.000536629
0.000534417
0.000532465
0.000530579
0.000528924
0.000527293
0.000525874
0.000524469
0.000523254
0.000522038
0.000520995
0.000519928
0.000519021
0.000518087
0.000517299
0.000516479
0.000515798
0.000515077
0.000514484
0.000513843
0.000513331
0.000512763
0.000512318
0.000511825
0.000511438
0.000511002
0.000510676
0.000510296
0.000510007
0.000509674
0.000509436
0.000509152
0.000508938
0.000508701
0.000508533
0.000508309
0.000508176
0.000508004
0.000507872
0.000507708
0.000507628
0.000507478
0.000507405
0.000507256
0.000507213
0.000507118
0.000507168
0.000507165
0.000507267
0.00050728
0.000507396
0.000507437
0.000507577
0.000507644
0.000507817
0.000507918
0.000508146
0.000508277
0.000508558
0.000508716
0.000509051
0.000509242
0.000509652
0.000509881
0.000510407
0.000510656
0.000511488
0.000511596
0.000518085
0.011775
0.0132897
0.00102439
0.000929666
0.000853062
0.000793649
0.000747966
0.000712631
0.000684674
0.000662256
0.000643809
0.000628536
0.000615571
0.000604581
0.000595027
0.000586797
0.00057949
0.000573132
0.000567394
0.000562366
0.000557762
0.000553708
0.000549944
0.000546625
0.000543499
0.000540742
0.000538119
0.00053581
0.000533589
0.000531629
0.000529736
0.000528074
0.000526436
0.000525012
0.000523601
0.000522381
0.000521159
0.000520112
0.00051904
0.00051813
0.000517191
0.000516399
0.000515576
0.000514892
0.000514167
0.000513571
0.000512927
0.000512413
0.000511842
0.000511395
0.000510899
0.00051051
0.000510072
0.000509744
0.000509362
0.000509071
0.000508737
0.000508497
0.000508211
0.000507996
0.000507757
0.000507587
0.000507362
0.000507228
0.000507054
0.000506921
0.000506756
0.000506675
0.000506524
0.000506451
0.000506301
0.000506256
0.000506159
0.000506205
0.000506201
0.0005063
0.000506313
0.000506427
0.000506466
0.000506604
0.00050667
0.000506842
0.000506941
0.000507167
0.000507297
0.000507575
0.000507731
0.000508065
0.000508254
0.000508661
0.000508889
0.00050941
0.000509657
0.000510487
0.000510588
0.000517234
0.0119414
0.0135191
0.00102439
0.000929693
0.000853056
0.000793568
0.000747794
0.00071237
0.000684332
0.000661843
0.000643334
0.000628008
0.000614997
0.000603967
0.000594376
0.000586115
0.00057878
0.000572397
0.000566637
0.000561589
0.000556966
0.000552895
0.000549116
0.000545783
0.000542645
0.000539876
0.000537243
0.000534924
0.000532693
0.000530725
0.000528824
0.000527154
0.00052551
0.000524079
0.000522662
0.000521436
0.000520209
0.000519157
0.00051808
0.000517165
0.000516222
0.000515426
0.000514599
0.000513911
0.000513183
0.000512584
0.000511937
0.000511419
0.000510846
0.000510396
0.000509898
0.000509506
0.000509065
0.000508736
0.000508351
0.000508059
0.000507722
0.00050748
0.000507192
0.000506976
0.000506734
0.000506563
0.000506337
0.000506201
0.000506026
0.000505892
0.000505725
0.000505643
0.000505491
0.000505417
0.000505267
0.000505221
0.00050512
0.000505163
0.000505158
0.000505254
0.000505265
0.000505377
0.000505415
0.000505552
0.000505616
0.000505786
0.000505883
0.000506107
0.000506235
0.000506511
0.000506666
0.000506996
0.000507184
0.000507588
0.000507814
0.000508332
0.000508576
0.000509402
0.000509496
0.000516313
0.0121193
0.0137683
0.0010244
0.000929721
0.00085305
0.000793482
0.000747611
0.000712091
0.000683966
0.0006614
0.000642826
0.000627442
0.00061438
0.000603306
0.000593677
0.000585382
0.000578017
0.000571607
0.000565822
0.000560753
0.00055611
0.000552022
0.000548226
0.000544878
0.000541726
0.000538945
0.0005363
0.00053397
0.000531729
0.000529752
0.000527842
0.000526165
0.000524513
0.000523075
0.00052165
0.000520419
0.000519185
0.000518128
0.000517046
0.000516126
0.000515178
0.000514379
0.000513547
0.000512855
0.000512123
0.000511521
0.00051087
0.000510349
0.000509773
0.00050932
0.000508819
0.000508425
0.000507981
0.000507649
0.000507262
0.000506968
0.000506628
0.000506385
0.000506095
0.000505877
0.000505633
0.000505461
0.000505232
0.000505095
0.000504918
0.000504784
0.000504615
0.000504532
0.000504379
0.000504304
0.000504152
0.000504105
0.000504002
0.000504041
0.000504034
0.000504127
0.000504136
0.000504247
0.000504283
0.000504418
0.00050448
0.000504648
0.000504744
0.000504965
0.000505092
0.000505365
0.000505518
0.000505845
0.000506031
0.000506432
0.000506655
0.00050717
0.000507411
0.000508234
0.00050832
0.000515321
0.0123074
0.0140372
0.00102441
0.000929752
0.000853045
0.000793392
0.000747418
0.000711795
0.000683577
0.000660929
0.000642283
0.000626837
0.000613722
0.0006026
0.00059293
0.000584598
0.000577201
0.000570761
0.000564951
0.000559858
0.000555194
0.000551086
0.000547273
0.000543909
0.000540742
0.000537947
0.00053529
0.000532948
0.000530696
0.00052871
0.00052679
0.000525104
0.000523444
0.000521998
0.000520567
0.000519328
0.000518088
0.000517025
0.000515937
0.000515013
0.000514059
0.000513255
0.000512419
0.000511723
0.000510987
0.000510381
0.000509726
0.000509202
0.000508622
0.000508167
0.000507662
0.000507266
0.000506818
0.000506484
0.000506094
0.000505798
0.000505456
0.00050521
0.000504918
0.000504698
0.000504452
0.000504278
0.000504048
0.000503909
0.00050373
0.000503595
0.000503424
0.00050334
0.000503185
0.00050311
0.000502957
0.000502908
0.000502802
0.000502837
0.000502829
0.000502918
0.000502926
0.000503035
0.000503069
0.000503201
0.000503262
0.000503428
0.000503522
0.00050374
0.000503865
0.000504135
0.000504287
0.000504611
0.000504795
0.000505192
0.000505413
0.000505924
0.000506162
0.000506981
0.000507059
0.000514258
0.0125041
0.0143257
0.00102442
0.000929785
0.000853041
0.000793298
0.000747214
0.000711482
0.000683164
0.000660429
0.000641706
0.000626194
0.000613021
0.000601849
0.000592134
0.000583763
0.000576331
0.00056986
0.000564021
0.000558903
0.000554216
0.000550088
0.000546256
0.000542875
0.000539692
0.000536883
0.000534211
0.000531857
0.000529594
0.000527597
0.000525667
0.000523972
0.000522303
0.000520849
0.00051941
0.000518164
0.000516917
0.000515848
0.000514754
0.000513823
0.000512865
0.000512056
0.000511214
0.000510514
0.000509773
0.000509163
0.000508504
0.000507977
0.000507393
0.000506935
0.000506426
0.000506027
0.000505577
0.00050524
0.000504847
0.000504548
0.000504203
0.000503956
0.000503661
0.000503439
0.00050319
0.000503015
0.000502783
0.000502642
0.000502461
0.000502325
0.000502152
0.000502066
0.00050191
0.000501834
0.00050168
0.00050163
0.000501521
0.000501551
0.000501541
0.000501627
0.000501633
0.000501739
0.000501771
0.000501902
0.000501961
0.000502124
0.000502216
0.000502431
0.000502555
0.000502821
0.000502971
0.000503292
0.000503474
0.000503867
0.000504086
0.000504592
0.000504827
0.000505643
0.000505712
0.000513122
0.0127071
0.0146332
0.00102442
0.00092982
0.000853037
0.0007932
0.000746999
0.000711152
0.000682728
0.000659899
0.000641096
0.000625513
0.000612278
0.000601052
0.000591289
0.000582876
0.000575407
0.000568903
0.000563034
0.000557889
0.000553178
0.000549027
0.000545174
0.000541775
0.000538575
0.000535751
0.000533065
0.000530698
0.000528422
0.000526413
0.000524472
0.000522767
0.000521089
0.000519627
0.000518179
0.000516926
0.000515671
0.000514595
0.000513494
0.000512558
0.000511593
0.000510779
0.000509932
0.000509227
0.000508481
0.000507868
0.000507204
0.000506673
0.000506085
0.000505623
0.000505111
0.000504709
0.000504255
0.000503915
0.000503519
0.000503218
0.00050287
0.00050262
0.000502323
0.000502099
0.000501847
0.00050167
0.000501436
0.000501293
0.00050111
0.000500973
0.000500798
0.00050071
0.000500553
0.000500475
0.00050032
0.000500268
0.000500157
0.000500183
0.000500169
0.000500251
0.000500256
0.00050036
0.00050039
0.000500518
0.000500575
0.000500735
0.000500825
0.000501037
0.000501159
0.000501422
0.000501571
0.000501887
0.000502067
0.000502456
0.000502673
0.000503174
0.000503406
0.000504217
0.000504277
0.00051191
0.0129141
0.014959
0.00102443
0.000929857
0.000853034
0.000793098
0.000746775
0.000710805
0.00068227
0.000659342
0.000640452
0.000624794
0.000611493
0.00060021
0.000590396
0.000581938
0.000574429
0.00056789
0.000561989
0.000556815
0.000552077
0.000547903
0.000544029
0.00054061
0.000537392
0.000534551
0.000531849
0.000529468
0.000527179
0.000525158
0.000523205
0.00052149
0.000519801
0.00051833
0.000516873
0.000515612
0.000514349
0.000513266
0.000512158
0.000511216
0.000510244
0.000509425
0.000508572
0.000507862
0.000507111
0.000506493
0.000505824
0.000505289
0.000504697
0.000504231
0.000503715
0.00050331
0.000502852
0.000502509
0.00050211
0.000501806
0.000501455
0.000501202
0.000500902
0.000500676
0.000500422
0.000500243
0.000500006
0.000499861
0.000499675
0.000499537
0.00049936
0.000499271
0.000499111
0.000499033
0.000498877
0.000498823
0.000498709
0.00049873
0.000498714
0.000498791
0.000498795
0.000498896
0.000498923
0.000499049
0.000499104
0.000499261
0.000499349
0.000499558
0.000499678
0.000499937
0.000500083
0.000500396
0.000500574
0.000500958
0.000501172
0.000501669
0.000501897
0.000502704
0.000502755
0.000510622
0.0131219
0.0153021
0.00102444
0.000929897
0.000853033
0.000792993
0.000746542
0.000710443
0.000681789
0.000658756
0.000639774
0.000624036
0.000610666
0.000599321
0.000589454
0.000580949
0.000573397
0.00056682
0.000560885
0.000555681
0.000550915
0.000546716
0.000542819
0.000539379
0.000536141
0.000533282
0.000530564
0.000528168
0.000525865
0.000523831
0.000521866
0.000520139
0.00051844
0.000516959
0.000515492
0.000514222
0.000512951
0.00051186
0.000510745
0.000509796
0.000508818
0.000507992
0.000507133
0.000506418
0.000505661
0.000505038
0.000504364
0.000503825
0.000503228
0.000502759
0.000502238
0.000501829
0.000501368
0.000501022
0.000500619
0.000500312
0.000499958
0.000499702
0.000499399
0.000499171
0.000498913
0.000498732
0.000498492
0.000498345
0.000498157
0.000498018
0.000497838
0.000497748
0.000497586
0.000497507
0.000497349
0.000497294
0.000497177
0.000497193
0.000497174
0.000497246
0.000497248
0.000497346
0.000497371
0.000497495
0.000497547
0.000497701
0.000497787
0.000497992
0.00049811
0.000498365
0.000498509
0.000498818
0.000498993
0.000499373
0.000499584
0.000500075
0.0005003
0.000501102
0.000501144
0.000509256
0.0133271
0.0156611
0.00102445
0.000929938
0.000853033
0.000792886
0.0007463
0.000710065
0.000681286
0.000658142
0.000639063
0.000623241
0.000609797
0.000598388
0.000588464
0.000579908
0.000572311
0.000565694
0.000559723
0.000554486
0.000549691
0.000545465
0.000541543
0.000538081
0.000534823
0.000531946
0.00052921
0.000526798
0.000524479
0.000522432
0.000520453
0.000518715
0.000517004
0.000515513
0.000514036
0.000512757
0.000511476
0.000510377
0.000509254
0.000508298
0.000507312
0.00050648
0.000505615
0.000504894
0.000504131
0.000503503
0.000502824
0.00050228
0.000501678
0.000501205
0.000500679
0.000500267
0.000499801
0.000499451
0.000499045
0.000498735
0.000498377
0.000498119
0.000497813
0.000497582
0.00049732
0.000497137
0.000496895
0.000496745
0.000496555
0.000496414
0.000496232
0.00049614
0.000495976
0.000495895
0.000495736
0.000495679
0.000495559
0.000495571
0.000495548
0.000495615
0.000495616
0.00049571
0.000495732
0.000495853
0.000495903
0.000496054
0.000496138
0.000496338
0.000496454
0.000496705
0.000496847
0.000497152
0.000497325
0.000497699
0.000497908
0.000498393
0.000498614
0.00049941
0.000499444
0.000507809
0.0135257
0.016034
0.00102446
0.000929982
0.000853034
0.000792776
0.000746049
0.000709672
0.000680761
0.000657501
0.00063832
0.000622409
0.000608886
0.000597409
0.000587425
0.000578816
0.000571171
0.000564512
0.000558503
0.000553231
0.000548405
0.000544151
0.000540203
0.000536717
0.000533437
0.00053054
0.000527786
0.000525356
0.000523022
0.00052096
0.000518968
0.000517217
0.000515494
0.000513991
0.000512503
0.000511215
0.000509924
0.000508817
0.000507684
0.000506721
0.000505728
0.000504889
0.000504016
0.00050329
0.00050252
0.000501887
0.000501202
0.000500654
0.000500047
0.000499568
0.000499038
0.000498622
0.000498152
0.000497798
0.000497388
0.000497075
0.000496713
0.000496452
0.000496142
0.000495908
0.000495643
0.000495458
0.000495213
0.00049506
0.000494867
0.000494726
0.00049454
0.000494446
0.00049428
0.000494198
0.000494038
0.000493979
0.000493856
0.000493862
0.000493836
0.000493897
0.000493896
0.000493988
0.000494007
0.000494125
0.000494171
0.00049432
0.0004944
0.000494597
0.00049471
0.000494957
0.000495097
0.000495396
0.000495567
0.000495936
0.000496142
0.000496621
0.000496838
0.000497628
0.000497653
0.000506279
0.0137132
0.0164183
0.00102446
0.000930027
0.000853037
0.000792664
0.00074579
0.000709264
0.000680216
0.000656833
0.000637545
0.000621539
0.000607935
0.000596386
0.000586337
0.000577672
0.000569978
0.000563274
0.000557224
0.000551916
0.000547057
0.000542772
0.000538797
0.000535286
0.000531983
0.000529065
0.000526291
0.000523844
0.000521493
0.000519415
0.000517408
0.000515644
0.000513908
0.000512394
0.000510894
0.000509595
0.000508294
0.000507178
0.000506037
0.000505065
0.000504064
0.000503218
0.000502338
0.000501605
0.000500828
0.00050019
0.000499499
0.000498945
0.000498333
0.00049785
0.000497314
0.000496894
0.000496419
0.000496062
0.000495647
0.000495331
0.000494965
0.0004947
0.000494386
0.00049415
0.000493881
0.000493694
0.000493445
0.00049329
0.000493094
0.000492951
0.000492762
0.000492666
0.000492498
0.000492415
0.000492252
0.000492191
0.000492067
0.000492068
0.000492037
0.000492092
0.00049209
0.000492177
0.000492193
0.000492308
0.000492352
0.000492497
0.000492574
0.000492767
0.000492878
0.00049312
0.000493257
0.000493552
0.00049372
0.000494083
0.000494286
0.000494759
0.000494971
0.000495755
0.000495771
0.000504664
0.0138848
0.0168112
0.00102447
0.000930075
0.000853042
0.00079255
0.000745524
0.000708842
0.00067965
0.000656139
0.000636737
0.000620633
0.000606942
0.000595317
0.000585202
0.000576478
0.00056873
0.000561979
0.000555886
0.00055054
0.000545646
0.00054133
0.000537326
0.000533789
0.000530462
0.000527521
0.000524727
0.00052226
0.000519891
0.000517798
0.000515774
0.000513996
0.000512247
0.00051072
0.000509209
0.000507899
0.000506587
0.000505461
0.00050431
0.00050333
0.00050232
0.000501467
0.000500579
0.000499839
0.000499055
0.000498411
0.000497713
0.000497154
0.000496536
0.000496048
0.000495507
0.000495083
0.000494602
0.000494241
0.000493821
0.000493502
0.000493131
0.000492863
0.000492546
0.000492307
0.000492034
0.000491843
0.000491592