/*--------------------------------*- C++ -*----------------------------------*\
| =========                 |                                                 |
| \\      /  F ield         | OpenFOAM: The Open Source CFD Toolbox           |
|  \\    /   O peration     | Version:  v2012                                 |
|   \\  /    A nd           | Website:  www.openfoam.com                      |
|    \\/     M anipulation  |                                                 |
\*---------------------------------------------------------------------------*/
FoamFile
{
    version     2.0;
    format      ascii;
    class       volScalarField;
    location    "30.5";
    object      nut;
}
// * * * * * * * * * * * * * * * * * * * * * * * * * * * * * * * * * * * * * //

dimensions      [0 2 -1 0 0 0 0];


internalField   nonuniform List<scalar> 
209825
(
1.2503e-07
1.20805e-07
1.13298e-07
1.05434e-07
9.85102e-08
9.27791e-08
8.80616e-08
8.41862e-08
8.09421e-08
7.82257e-08
7.58992e-08
7.39154e-08
7.21822e-08
7.06854e-08
6.93521e-08
6.81901e-08
6.71395e-08
6.62185e-08
6.53741e-08
6.46305e-08
6.39398e-08
6.33309e-08
6.2757e-08
6.22505e-08
6.17688e-08
6.13446e-08
6.09366e-08
6.05757e-08
6.02277e-08
5.99221e-08
5.96208e-08
5.93575e-08
5.90972e-08
5.88718e-08
5.86466e-08
5.84518e-08
5.82533e-08
5.80845e-08
5.79102e-08
5.77623e-08
5.76087e-08
5.74788e-08
5.73431e-08
5.72313e-08
5.71096e-08
5.70101e-08
5.69028e-08
5.68184e-08
5.67222e-08
5.66462e-08
5.65666e-08
5.65024e-08
5.64242e-08
5.63657e-08
5.62984e-08
5.62559e-08
5.61898e-08
5.61353e-08
5.6086e-08
5.60349e-08
5.59841e-08
5.5957e-08
5.59111e-08
5.58739e-08
5.5828e-08
5.57938e-08
5.57469e-08
5.57188e-08
5.56733e-08
5.56465e-08
5.56144e-08
5.56075e-08
5.55883e-08
5.55879e-08
5.55738e-08
5.55707e-08
5.55637e-08
5.55599e-08
5.55556e-08
5.55536e-08
5.55531e-08
5.55562e-08
5.5559e-08
5.5566e-08
5.557e-08
5.55796e-08
5.55849e-08
5.55979e-08
5.56043e-08
5.56218e-08
5.56261e-08
5.56486e-08
5.56378e-08
5.60705e-08
3.43275e-06
2.30155e-08
1.2503e-07
1.20806e-07
1.13299e-07
1.05436e-07
9.85124e-08
9.27813e-08
8.80636e-08
8.4188e-08
8.09437e-08
7.82271e-08
7.59004e-08
7.39165e-08
7.21832e-08
7.06862e-08
6.93528e-08
6.81906e-08
6.71399e-08
6.62188e-08
6.53744e-08
6.46307e-08
6.39399e-08
6.33309e-08
6.2757e-08
6.22504e-08
6.17686e-08
6.13444e-08
6.09363e-08
6.05754e-08
6.02274e-08
5.99218e-08
5.96204e-08
5.93571e-08
5.90967e-08
5.88713e-08
5.86461e-08
5.84512e-08
5.82528e-08
5.80839e-08
5.79096e-08
5.77617e-08
5.76081e-08
5.74781e-08
5.73424e-08
5.72306e-08
5.71089e-08
5.70094e-08
5.69021e-08
5.68176e-08
5.67215e-08
5.66454e-08
5.65658e-08
5.65015e-08
5.64234e-08
5.63649e-08
5.62976e-08
5.6255e-08
5.61889e-08
5.61345e-08
5.60852e-08
5.6034e-08
5.59833e-08
5.59561e-08
5.59103e-08
5.5873e-08
5.58271e-08
5.57928e-08
5.5746e-08
5.57179e-08
5.56724e-08
5.56456e-08
5.56135e-08
5.56065e-08
5.55874e-08
5.55869e-08
5.55729e-08
5.55698e-08
5.55627e-08
5.55589e-08
5.55546e-08
5.55525e-08
5.55521e-08
5.55551e-08
5.5558e-08
5.5565e-08
5.55689e-08
5.55786e-08
5.55838e-08
5.55968e-08
5.56032e-08
5.56207e-08
5.56251e-08
5.56475e-08
5.56367e-08
5.60699e-08
3.43295e-06
2.31996e-08
1.25029e-07
1.20809e-07
1.13307e-07
1.05445e-07
9.85216e-08
9.27901e-08
8.80716e-08
8.41952e-08
8.095e-08
7.82326e-08
7.59052e-08
7.39206e-08
7.21866e-08
7.06891e-08
6.93552e-08
6.81926e-08
6.71415e-08
6.622e-08
6.53753e-08
6.46312e-08
6.39401e-08
6.33309e-08
6.27567e-08
6.225e-08
6.1768e-08
6.13436e-08
6.09353e-08
6.05743e-08
6.0226e-08
5.99203e-08
5.96188e-08
5.93554e-08
5.90949e-08
5.88694e-08
5.86441e-08
5.84491e-08
5.82506e-08
5.80816e-08
5.79072e-08
5.77592e-08
5.76056e-08
5.74755e-08
5.73398e-08
5.72279e-08
5.71061e-08
5.70065e-08
5.68992e-08
5.68147e-08
5.67185e-08
5.66424e-08
5.65627e-08
5.64984e-08
5.64203e-08
5.63617e-08
5.62944e-08
5.62518e-08
5.61856e-08
5.61312e-08
5.60818e-08
5.60307e-08
5.59799e-08
5.59527e-08
5.59068e-08
5.58696e-08
5.58236e-08
5.57894e-08
5.57425e-08
5.57144e-08
5.56688e-08
5.5642e-08
5.56098e-08
5.56028e-08
5.55837e-08
5.55832e-08
5.55691e-08
5.5566e-08
5.55589e-08
5.55551e-08
5.55507e-08
5.55487e-08
5.55482e-08
5.55512e-08
5.5554e-08
5.5561e-08
5.55649e-08
5.55746e-08
5.55798e-08
5.55928e-08
5.55992e-08
5.56166e-08
5.5621e-08
5.56434e-08
5.56325e-08
5.60668e-08
3.43291e-06
2.34596e-08
1.25029e-07
1.20815e-07
1.13319e-07
1.0546e-07
9.85372e-08
9.28048e-08
8.80851e-08
8.42072e-08
8.09606e-08
7.82418e-08
7.59132e-08
7.39274e-08
7.21925e-08
7.06941e-08
6.93593e-08
6.8196e-08
6.71442e-08
6.62221e-08
6.53768e-08
6.46322e-08
6.39406e-08
6.3331e-08
6.27564e-08
6.22493e-08
6.1767e-08
6.13423e-08
6.09337e-08
6.05724e-08
6.02239e-08
5.9918e-08
5.96162e-08
5.93526e-08
5.9092e-08
5.88662e-08
5.86407e-08
5.84456e-08
5.82469e-08
5.80779e-08
5.79033e-08
5.77552e-08
5.76014e-08
5.74713e-08
5.73354e-08
5.72234e-08
5.71015e-08
5.70019e-08
5.68944e-08
5.68098e-08
5.67136e-08
5.66374e-08
5.65576e-08
5.64933e-08
5.64151e-08
5.63564e-08
5.6289e-08
5.62464e-08
5.61802e-08
5.61258e-08
5.60763e-08
5.60251e-08
5.59743e-08
5.59471e-08
5.59011e-08
5.58639e-08
5.58178e-08
5.57836e-08
5.57367e-08
5.57085e-08
5.5663e-08
5.56361e-08
5.56038e-08
5.55967e-08
5.55776e-08
5.5577e-08
5.55629e-08
5.55597e-08
5.55526e-08
5.55487e-08
5.55444e-08
5.55423e-08
5.55418e-08
5.55447e-08
5.55475e-08
5.55545e-08
5.55584e-08
5.55679e-08
5.55732e-08
5.55861e-08
5.55924e-08
5.56099e-08
5.56142e-08
5.56366e-08
5.56256e-08
5.60616e-08
3.43275e-06
2.37683e-08
1.25028e-07
1.20823e-07
1.13336e-07
1.05481e-07
9.85592e-08
9.28257e-08
8.81041e-08
8.42242e-08
8.09755e-08
7.82549e-08
7.59245e-08
7.39372e-08
7.22008e-08
7.07011e-08
6.93651e-08
6.82008e-08
6.7148e-08
6.6225e-08
6.53789e-08
6.46337e-08
6.39414e-08
6.33312e-08
6.27561e-08
6.22485e-08
6.17656e-08
6.13405e-08
6.09315e-08
6.05698e-08
6.0221e-08
5.99147e-08
5.96127e-08
5.93487e-08
5.90878e-08
5.88619e-08
5.86361e-08
5.84408e-08
5.82419e-08
5.80726e-08
5.78979e-08
5.77496e-08
5.75956e-08
5.74653e-08
5.73293e-08
5.72171e-08
5.70952e-08
5.69954e-08
5.68878e-08
5.68031e-08
5.67067e-08
5.66305e-08
5.65505e-08
5.64861e-08
5.64078e-08
5.63491e-08
5.62816e-08
5.62389e-08
5.61726e-08
5.61182e-08
5.60686e-08
5.60174e-08
5.59665e-08
5.59392e-08
5.58932e-08
5.58559e-08
5.58098e-08
5.57755e-08
5.57285e-08
5.57004e-08
5.56548e-08
5.56279e-08
5.55955e-08
5.55881e-08
5.5569e-08
5.55683e-08
5.55541e-08
5.55509e-08
5.55438e-08
5.55398e-08
5.55354e-08
5.55333e-08
5.55328e-08
5.55357e-08
5.55384e-08
5.55453e-08
5.55491e-08
5.55587e-08
5.55638e-08
5.55767e-08
5.5583e-08
5.56004e-08
5.56046e-08
5.5627e-08
5.5616e-08
5.60543e-08
3.43249e-06
2.4115e-08
1.25027e-07
1.20834e-07
1.13358e-07
1.05509e-07
9.85877e-08
9.28528e-08
8.81288e-08
8.42463e-08
8.0995e-08
7.82719e-08
7.59393e-08
7.39499e-08
7.22117e-08
7.07103e-08
6.93728e-08
6.82071e-08
6.71531e-08
6.6229e-08
6.53818e-08
6.46356e-08
6.39425e-08
6.33315e-08
6.27557e-08
6.22474e-08
6.17639e-08
6.13382e-08
6.09287e-08
6.05665e-08
6.02172e-08
5.99106e-08
5.96081e-08
5.93438e-08
5.90825e-08
5.88563e-08
5.86302e-08
5.84346e-08
5.82354e-08
5.80659e-08
5.78909e-08
5.77424e-08
5.75882e-08
5.74577e-08
5.73214e-08
5.72091e-08
5.70869e-08
5.6987e-08
5.68792e-08
5.67944e-08
5.66979e-08
5.66215e-08
5.65414e-08
5.64769e-08
5.63984e-08
5.63396e-08
5.6272e-08
5.62292e-08
5.61628e-08
5.61084e-08
5.60587e-08
5.60074e-08
5.59564e-08
5.5929e-08
5.58829e-08
5.58456e-08
5.57994e-08
5.57651e-08
5.57181e-08
5.56899e-08
5.56443e-08
5.56173e-08
5.55847e-08
5.5577e-08
5.5558e-08
5.55572e-08
5.55429e-08
5.55396e-08
5.55324e-08
5.55284e-08
5.55239e-08
5.55217e-08
5.55211e-08
5.55239e-08
5.55266e-08
5.55334e-08
5.55372e-08
5.55467e-08
5.55518e-08
5.55646e-08
5.55708e-08
5.55881e-08
5.55923e-08
5.56147e-08
5.56035e-08
5.60449e-08
3.43219e-06
2.44959e-08
1.25026e-07
1.20847e-07
1.13385e-07
1.05543e-07
9.8623e-08
9.28863e-08
8.81594e-08
8.42736e-08
8.10192e-08
7.8293e-08
7.59576e-08
7.39657e-08
7.22251e-08
7.07217e-08
6.93824e-08
6.82149e-08
6.71594e-08
6.62339e-08
6.53855e-08
6.46381e-08
6.3944e-08
6.3332e-08
6.27552e-08
6.22461e-08
6.17619e-08
6.13355e-08
6.09254e-08
6.05626e-08
6.02127e-08
5.99055e-08
5.96025e-08
5.93378e-08
5.90761e-08
5.88494e-08
5.86229e-08
5.84269e-08
5.82274e-08
5.80576e-08
5.78823e-08
5.77335e-08
5.7579e-08
5.74483e-08
5.73118e-08
5.71992e-08
5.70769e-08
5.69767e-08
5.68687e-08
5.67837e-08
5.6687e-08
5.66104e-08
5.65301e-08
5.64655e-08
5.63869e-08
5.6328e-08
5.62602e-08
5.62174e-08
5.61508e-08
5.60964e-08
5.60465e-08
5.59952e-08
5.59441e-08
5.59165e-08
5.58703e-08
5.5833e-08
5.57867e-08
5.57524e-08
5.57052e-08
5.56769e-08
5.56314e-08
5.56043e-08
5.55714e-08
5.55634e-08
5.55444e-08
5.55434e-08
5.5529e-08
5.55257e-08
5.55184e-08
5.55143e-08
5.55098e-08
5.55075e-08
5.55068e-08
5.55095e-08
5.55122e-08
5.55189e-08
5.55226e-08
5.55319e-08
5.5537e-08
5.55497e-08
5.55559e-08
5.55731e-08
5.55772e-08
5.55995e-08
5.55881e-08
5.60333e-08
3.43189e-06
2.49114e-08
1.25025e-07
1.20863e-07
1.13418e-07
1.05584e-07
9.8665e-08
9.29263e-08
8.8196e-08
8.43063e-08
8.1048e-08
7.83183e-08
7.59795e-08
7.39846e-08
7.22413e-08
7.07354e-08
6.93938e-08
6.82244e-08
6.7167e-08
6.62399e-08
6.53899e-08
6.46412e-08
6.39457e-08
6.33326e-08
6.27548e-08
6.22447e-08
6.17595e-08
6.13323e-08
6.09214e-08
6.05579e-08
6.02073e-08
5.98995e-08
5.95959e-08
5.93307e-08
5.90684e-08
5.88412e-08
5.86143e-08
5.84179e-08
5.82179e-08
5.80478e-08
5.78721e-08
5.7723e-08
5.75682e-08
5.74372e-08
5.73003e-08
5.71875e-08
5.70649e-08
5.69645e-08
5.68562e-08
5.6771e-08
5.66741e-08
5.65973e-08
5.65168e-08
5.6452e-08
5.63732e-08
5.63141e-08
5.62461e-08
5.62032e-08
5.61365e-08
5.60821e-08
5.6032e-08
5.59806e-08
5.59293e-08
5.59017e-08
5.58553e-08
5.58179e-08
5.57715e-08
5.57372e-08
5.56899e-08
5.56615e-08
5.56159e-08
5.55887e-08
5.55556e-08
5.55472e-08
5.55282e-08
5.5527e-08
5.55126e-08
5.55091e-08
5.55017e-08
5.54976e-08
5.54929e-08
5.54905e-08
5.54898e-08
5.54924e-08
5.54949e-08
5.55015e-08
5.55052e-08
5.55144e-08
5.55194e-08
5.55319e-08
5.55381e-08
5.55551e-08
5.55592e-08
5.55813e-08
5.55698e-08
5.60196e-08
3.43161e-06
2.5365e-08
1.25024e-07
1.20881e-07
1.13456e-07
1.05631e-07
9.8714e-08
9.29729e-08
8.82386e-08
8.43445e-08
8.10818e-08
7.83478e-08
7.60052e-08
7.40068e-08
7.22603e-08
7.07515e-08
6.94073e-08
6.82355e-08
6.7176e-08
6.62469e-08
6.53952e-08
6.46448e-08
6.39479e-08
6.33334e-08
6.27543e-08
6.22431e-08
6.17569e-08
6.13287e-08
6.09168e-08
6.05525e-08
6.02011e-08
5.98926e-08
5.95883e-08
5.93224e-08
5.90595e-08
5.88318e-08
5.86043e-08
5.84075e-08
5.8207e-08
5.80364e-08
5.78603e-08
5.77108e-08
5.75556e-08
5.74242e-08
5.7287e-08
5.71739e-08
5.70509e-08
5.69503e-08
5.68417e-08
5.67563e-08
5.66591e-08
5.65821e-08
5.65012e-08
5.64363e-08
5.63573e-08
5.6298e-08
5.62298e-08
5.61868e-08
5.61199e-08
5.60654e-08
5.60151e-08
5.59636e-08
5.59122e-08
5.58844e-08
5.58378e-08
5.58004e-08
5.57539e-08
5.57195e-08
5.56721e-08
5.56436e-08
5.5598e-08
5.55707e-08
5.55372e-08
5.55284e-08
5.55094e-08
5.5508e-08
5.54934e-08
5.54899e-08
5.54823e-08
5.54781e-08
5.54733e-08
5.54708e-08
5.547e-08
5.54724e-08
5.54749e-08
5.54813e-08
5.54849e-08
5.54939e-08
5.54989e-08
5.55113e-08
5.55173e-08
5.55343e-08
5.55383e-08
5.55603e-08
5.55485e-08
5.60036e-08
3.4314e-06
2.58624e-08
1.25022e-07
1.20902e-07
1.13499e-07
1.05685e-07
9.877e-08
9.30263e-08
8.82875e-08
8.43883e-08
8.11205e-08
7.83818e-08
7.60347e-08
7.40323e-08
7.22821e-08
7.07701e-08
6.94228e-08
6.82484e-08
6.71863e-08
6.6255e-08
6.54013e-08
6.46491e-08
6.39504e-08
6.33344e-08
6.27539e-08
6.22414e-08
6.17539e-08
6.13246e-08
6.09117e-08
6.05464e-08
6.01941e-08
5.98847e-08
5.95797e-08
5.9313e-08
5.90494e-08
5.88211e-08
5.85929e-08
5.83955e-08
5.81945e-08
5.80234e-08
5.78468e-08
5.76969e-08
5.75412e-08
5.74095e-08
5.72718e-08
5.71584e-08
5.7035e-08
5.69341e-08
5.68252e-08
5.67394e-08
5.66419e-08
5.65646e-08
5.64835e-08
5.64183e-08
5.63391e-08
5.62797e-08
5.62111e-08
5.6168e-08
5.61008e-08
5.60464e-08
5.59958e-08
5.59443e-08
5.58927e-08
5.58646e-08
5.58178e-08
5.57804e-08
5.57337e-08
5.56992e-08
5.56517e-08
5.56232e-08
5.55775e-08
5.555e-08
5.55162e-08
5.55069e-08
5.54879e-08
5.54862e-08
5.54715e-08
5.54678e-08
5.54601e-08
5.54558e-08
5.54509e-08
5.54482e-08
5.54473e-08
5.54495e-08
5.54519e-08
5.54582e-08
5.54617e-08
5.54706e-08
5.54754e-08
5.54876e-08
5.54936e-08
5.55104e-08
5.55143e-08
5.55362e-08
5.55242e-08
5.59854e-08
3.43127e-06
2.64114e-08
1.2502e-07
1.20925e-07
1.13547e-07
1.05746e-07
9.88331e-08
9.30867e-08
8.83428e-08
8.44378e-08
8.11643e-08
7.84202e-08
7.60682e-08
7.40612e-08
7.23069e-08
7.07911e-08
6.94405e-08
6.8263e-08
6.71982e-08
6.62644e-08
6.54083e-08
6.4654e-08
6.39534e-08
6.33357e-08
6.27535e-08
6.22395e-08
6.17507e-08
6.13201e-08
6.0906e-08
6.05396e-08
6.01862e-08
5.9876e-08
5.957e-08
5.93025e-08
5.90381e-08
5.8809e-08
5.85802e-08
5.83821e-08
5.81805e-08
5.80088e-08
5.78316e-08
5.76812e-08
5.7525e-08
5.73929e-08
5.72547e-08
5.71409e-08
5.70172e-08
5.69159e-08
5.68065e-08
5.67204e-08
5.66226e-08
5.6545e-08
5.64635e-08
5.63981e-08
5.63186e-08
5.62589e-08
5.61901e-08
5.61468e-08
5.60794e-08
5.6025e-08
5.5974e-08
5.59224e-08
5.58706e-08
5.58423e-08
5.57953e-08
5.57579e-08
5.57109e-08
5.56764e-08
5.56288e-08
5.56001e-08
5.55544e-08
5.55267e-08
5.54925e-08
5.54826e-08
5.54637e-08
5.54617e-08
5.54468e-08
5.5443e-08
5.54351e-08
5.54306e-08
5.54257e-08
5.54228e-08
5.54218e-08
5.54238e-08
5.5426e-08
5.54321e-08
5.54355e-08
5.54442e-08
5.5449e-08
5.5461e-08
5.54669e-08
5.54835e-08
5.54872e-08
5.55089e-08
5.54967e-08
5.5965e-08
3.43123e-06
2.70209e-08
1.25017e-07
1.2095e-07
1.13601e-07
1.05814e-07
9.89036e-08
9.31541e-08
8.84046e-08
8.44933e-08
8.12135e-08
7.84633e-08
7.61057e-08
7.40937e-08
7.23348e-08
7.08148e-08
6.94604e-08
6.82795e-08
6.72116e-08
6.62749e-08
6.54163e-08
6.46597e-08
6.39569e-08
6.33372e-08
6.27532e-08
6.22376e-08
6.17472e-08
6.13151e-08
6.08997e-08
6.05321e-08
6.01776e-08
5.98662e-08
5.95592e-08
5.92909e-08
5.90256e-08
5.87957e-08
5.8566e-08
5.83672e-08
5.81649e-08
5.79926e-08
5.78147e-08
5.76638e-08
5.7507e-08
5.73744e-08
5.72357e-08
5.71215e-08
5.69972e-08
5.68955e-08
5.67858e-08
5.66993e-08
5.66011e-08
5.65231e-08
5.64412e-08
5.63756e-08
5.62957e-08
5.62358e-08
5.61667e-08
5.61232e-08
5.60555e-08
5.60011e-08
5.59498e-08
5.5898e-08
5.5846e-08
5.58175e-08
5.57702e-08
5.57327e-08
5.56856e-08
5.5651e-08
5.56032e-08
5.55743e-08
5.55286e-08
5.55007e-08
5.54661e-08
5.54557e-08
5.54367e-08
5.54343e-08
5.54193e-08
5.54152e-08
5.54072e-08
5.54026e-08
5.53975e-08
5.53944e-08
5.53932e-08
5.5395e-08
5.53972e-08
5.5403e-08
5.54063e-08
5.54148e-08
5.54195e-08
5.54313e-08
5.5437e-08
5.54534e-08
5.54571e-08
5.54786e-08
5.5466e-08
5.59422e-08
3.43127e-06
2.7701e-08
1.25015e-07
1.20978e-07
1.1366e-07
1.05888e-07
9.89815e-08
9.32287e-08
8.84731e-08
8.45549e-08
8.1268e-08
7.85112e-08
7.61475e-08
7.41298e-08
7.23658e-08
7.08412e-08
6.94827e-08
6.82979e-08
6.72266e-08
6.62868e-08
6.54253e-08
6.46661e-08
6.39609e-08
6.3339e-08
6.2753e-08
6.22355e-08
6.17434e-08
6.13098e-08
6.08929e-08
6.0524e-08
6.01681e-08
5.98556e-08
5.95475e-08
5.92781e-08
5.90117e-08
5.8781e-08
5.85504e-08
5.83509e-08
5.81477e-08
5.79747e-08
5.77962e-08
5.76446e-08
5.74872e-08
5.7354e-08
5.72147e-08
5.71e-08
5.69752e-08
5.68731e-08
5.67628e-08
5.6676e-08
5.65773e-08
5.6499e-08
5.64166e-08
5.63507e-08
5.62705e-08
5.62103e-08
5.61408e-08
5.60971e-08
5.60291e-08
5.59747e-08
5.5923e-08
5.58711e-08
5.58188e-08
5.579e-08
5.57425e-08
5.57049e-08
5.56575e-08
5.56229e-08
5.55748e-08
5.55459e-08
5.55001e-08
5.5472e-08
5.54369e-08
5.54259e-08
5.54068e-08
5.54041e-08
5.53889e-08
5.53846e-08
5.53763e-08
5.53716e-08
5.53663e-08
5.5363e-08
5.53617e-08
5.53633e-08
5.53652e-08
5.53709e-08
5.53741e-08
5.53823e-08
5.53869e-08
5.53984e-08
5.5404e-08
5.54202e-08
5.54237e-08
5.5445e-08
5.54321e-08
5.59171e-08
3.43134e-06
2.84631e-08
1.25012e-07
1.21008e-07
1.13724e-07
1.0597e-07
9.9067e-08
9.33106e-08
8.85485e-08
8.46226e-08
8.13281e-08
7.85641e-08
7.61935e-08
7.41698e-08
7.24001e-08
7.08705e-08
6.95073e-08
6.83184e-08
6.72432e-08
6.63e-08
6.54354e-08
6.46733e-08
6.39655e-08
6.33412e-08
6.2753e-08
6.22335e-08
6.17394e-08
6.13041e-08
6.08855e-08
6.05151e-08
6.01578e-08
5.9844e-08
5.95347e-08
5.92642e-08
5.89967e-08
5.87649e-08
5.85333e-08
5.8333e-08
5.81289e-08
5.79552e-08
5.77758e-08
5.76236e-08
5.74655e-08
5.73317e-08
5.71917e-08
5.70765e-08
5.69511e-08
5.68486e-08
5.67377e-08
5.66504e-08
5.65513e-08
5.64726e-08
5.63897e-08
5.63234e-08
5.62429e-08
5.61824e-08
5.61124e-08
5.60685e-08
5.60002e-08
5.59457e-08
5.58936e-08
5.58416e-08
5.5789e-08
5.57599e-08
5.57121e-08
5.56744e-08
5.56268e-08
5.5592e-08
5.55438e-08
5.55147e-08
5.54688e-08
5.54405e-08
5.54049e-08
5.53932e-08
5.53741e-08
5.53709e-08
5.53555e-08
5.5351e-08
5.53425e-08
5.53375e-08
5.53321e-08
5.53286e-08
5.53271e-08
5.53284e-08
5.53302e-08
5.53356e-08
5.53387e-08
5.53466e-08
5.5351e-08
5.53623e-08
5.53678e-08
5.53837e-08
5.53871e-08
5.54081e-08
5.53949e-08
5.58896e-08
3.43136e-06
2.93187e-08
1.25009e-07
1.21041e-07
1.13794e-07
1.06059e-07
9.91601e-08
9.34001e-08
8.86309e-08
8.46968e-08
8.1394e-08
7.8622e-08
7.62441e-08
7.42136e-08
7.24378e-08
7.09026e-08
6.95344e-08
6.8341e-08
6.72617e-08
6.63147e-08
6.54466e-08
6.46814e-08
6.39707e-08
6.33438e-08
6.27531e-08
6.22314e-08
6.17352e-08
6.1298e-08
6.08777e-08
6.05056e-08
6.01467e-08
5.98315e-08
5.95208e-08
5.92491e-08
5.89804e-08
5.87475e-08
5.85149e-08
5.83135e-08
5.81085e-08
5.79339e-08
5.77538e-08
5.76008e-08
5.74419e-08
5.73074e-08
5.71668e-08
5.70509e-08
5.6925e-08
5.68218e-08
5.67104e-08
5.66226e-08
5.6523e-08
5.64438e-08
5.63603e-08
5.62938e-08
5.62128e-08
5.61519e-08
5.60815e-08
5.60374e-08
5.59687e-08
5.59142e-08
5.58616e-08
5.58094e-08
5.57566e-08
5.57271e-08
5.56789e-08
5.56412e-08
5.55933e-08
5.55584e-08
5.551e-08
5.54806e-08
5.54347e-08
5.54062e-08
5.53701e-08
5.53577e-08
5.53384e-08
5.53347e-08
5.53191e-08
5.53144e-08
5.53056e-08
5.53005e-08
5.52948e-08
5.52911e-08
5.52894e-08
5.52904e-08
5.52921e-08
5.52971e-08
5.53e-08
5.53078e-08
5.5312e-08
5.5323e-08
5.53283e-08
5.5344e-08
5.53472e-08
5.53679e-08
5.53544e-08
5.58596e-08
3.4312e-06
3.02802e-08
1.25005e-07
1.21076e-07
1.13869e-07
1.06155e-07
9.9261e-08
9.34972e-08
8.87204e-08
8.47775e-08
8.14657e-08
7.86852e-08
7.62993e-08
7.42615e-08
7.2479e-08
7.09379e-08
6.95642e-08
6.83658e-08
6.7282e-08
6.63309e-08
6.5459e-08
6.46905e-08
6.39766e-08
6.33468e-08
6.27535e-08
6.22294e-08
6.17309e-08
6.12916e-08
6.08693e-08
6.04955e-08
6.01349e-08
5.98182e-08
5.9506e-08
5.92329e-08
5.89629e-08
5.87288e-08
5.8495e-08
5.82926e-08
5.80865e-08
5.7911e-08
5.77299e-08
5.75761e-08
5.74164e-08
5.72812e-08
5.71398e-08
5.70233e-08
5.68967e-08
5.6793e-08
5.66809e-08
5.65925e-08
5.64924e-08
5.64126e-08
5.63286e-08
5.62617e-08
5.61802e-08
5.6119e-08
5.6048e-08
5.60037e-08
5.59346e-08
5.58801e-08
5.58269e-08
5.57746e-08
5.57214e-08
5.56915e-08
5.5643e-08
5.56052e-08
5.5557e-08
5.5522e-08
5.54733e-08
5.54438e-08
5.53977e-08
5.5369e-08
5.53324e-08
5.53193e-08
5.52998e-08
5.52956e-08
5.52797e-08
5.52747e-08
5.52656e-08
5.52603e-08
5.52544e-08
5.52505e-08
5.52485e-08
5.52492e-08
5.52507e-08
5.52555e-08
5.52582e-08
5.52656e-08
5.52697e-08
5.52804e-08
5.52855e-08
5.53009e-08
5.53039e-08
5.53243e-08
5.53104e-08
5.58272e-08
3.4307e-06
3.13602e-08
1.25001e-07
1.21113e-07
1.13949e-07
1.06258e-07
9.93698e-08
9.36022e-08
8.88173e-08
8.48649e-08
8.15435e-08
7.87537e-08
7.63593e-08
7.43136e-08
7.25239e-08
7.09763e-08
6.95967e-08
6.8393e-08
6.73042e-08
6.63488e-08
6.54728e-08
6.47005e-08
6.39832e-08
6.33504e-08
6.27542e-08
6.22274e-08
6.17265e-08
6.1285e-08
6.08605e-08
6.04848e-08
6.01223e-08
5.98039e-08
5.94901e-08
5.92156e-08
5.89441e-08
5.87088e-08
5.84736e-08
5.82702e-08
5.8063e-08
5.78865e-08
5.77043e-08
5.75497e-08
5.7389e-08
5.72531e-08
5.71108e-08
5.69936e-08
5.68662e-08
5.67619e-08
5.66491e-08
5.65602e-08
5.64594e-08
5.63791e-08
5.62944e-08
5.62271e-08
5.61451e-08
5.60835e-08
5.6012e-08
5.59674e-08
5.58978e-08
5.58432e-08
5.57895e-08
5.5737e-08
5.56835e-08
5.56532e-08
5.56043e-08
5.55665e-08
5.55178e-08
5.54827e-08
5.54338e-08
5.5404e-08
5.53579e-08
5.53289e-08
5.52917e-08
5.52779e-08
5.52582e-08
5.52533e-08
5.52373e-08
5.52319e-08
5.52225e-08
5.5217e-08
5.52108e-08
5.52066e-08
5.52045e-08
5.52048e-08
5.52061e-08
5.52105e-08
5.52131e-08
5.52201e-08
5.52241e-08
5.52344e-08
5.52394e-08
5.52544e-08
5.52572e-08
5.52773e-08
5.5263e-08
5.57921e-08
3.42962e-06
3.25718e-08
1.24997e-07
1.21152e-07
1.14035e-07
1.06369e-07
9.94867e-08
9.37151e-08
8.89218e-08
8.49593e-08
8.16275e-08
7.88279e-08
7.64242e-08
7.43701e-08
7.25727e-08
7.1018e-08
6.9632e-08
6.84226e-08
6.73285e-08
6.63683e-08
6.54879e-08
6.47117e-08
6.39907e-08
6.33545e-08
6.27552e-08
6.22256e-08
6.1722e-08
6.12781e-08
6.08514e-08
6.04736e-08
6.0109e-08
5.97889e-08
5.94733e-08
5.91972e-08
5.89242e-08
5.86875e-08
5.84509e-08
5.82462e-08
5.80378e-08
5.78602e-08
5.7677e-08
5.75214e-08
5.73597e-08
5.7223e-08
5.70797e-08
5.69618e-08
5.68336e-08
5.67286e-08
5.6615e-08
5.65255e-08
5.64241e-08
5.63432e-08
5.62578e-08
5.619e-08
5.61075e-08
5.60455e-08
5.59733e-08
5.59284e-08
5.58584e-08
5.58037e-08
5.57494e-08
5.56967e-08
5.56428e-08
5.56121e-08
5.55628e-08
5.55248e-08
5.54758e-08
5.54406e-08
5.53913e-08
5.53614e-08
5.53151e-08
5.52859e-08
5.52482e-08
5.52335e-08
5.52135e-08
5.5208e-08
5.51917e-08
5.5186e-08
5.51763e-08
5.51705e-08
5.5164e-08
5.51595e-08
5.51572e-08
5.51571e-08
5.51582e-08
5.51622e-08
5.51646e-08
5.51713e-08
5.5175e-08
5.5185e-08
5.51898e-08
5.52045e-08
5.52071e-08
5.52267e-08
5.5212e-08
5.57544e-08
3.42766e-06
3.39281e-08
1.24992e-07
1.21193e-07
1.14126e-07
1.06487e-07
9.96117e-08
9.38362e-08
8.90339e-08
8.50607e-08
8.1718e-08
7.89078e-08
7.64943e-08
7.44311e-08
7.26254e-08
7.10633e-08
6.96704e-08
6.84548e-08
6.7355e-08
6.63897e-08
6.55046e-08
6.47241e-08
6.39991e-08
6.33593e-08
6.27566e-08
6.2224e-08
6.17176e-08
6.1271e-08
6.08418e-08
6.04618e-08
6.00951e-08
5.9773e-08
5.94555e-08
5.91778e-08
5.89031e-08
5.86648e-08
5.84268e-08
5.82208e-08
5.80111e-08
5.78323e-08
5.76479e-08
5.74913e-08
5.73285e-08
5.71909e-08
5.70467e-08
5.69279e-08
5.67988e-08
5.66931e-08
5.65787e-08
5.64885e-08
5.63864e-08
5.63049e-08
5.62187e-08
5.61504e-08
5.60673e-08
5.60048e-08
5.59321e-08
5.58868e-08
5.58162e-08
5.57615e-08
5.57066e-08
5.56537e-08
5.55994e-08
5.55682e-08
5.55184e-08
5.54803e-08
5.54309e-08
5.53955e-08
5.5346e-08
5.53157e-08
5.52694e-08
5.52398e-08
5.52016e-08
5.51861e-08
5.51658e-08
5.51595e-08
5.51431e-08
5.51369e-08
5.51268e-08
5.51208e-08
5.5114e-08
5.51092e-08
5.51065e-08
5.51061e-08
5.51069e-08
5.51106e-08
5.51128e-08
5.51191e-08
5.51226e-08
5.51322e-08
5.51368e-08
5.51511e-08
5.51534e-08
5.51726e-08
5.51575e-08
5.5714e-08
3.42446e-06
3.54421e-08
1.24987e-07
1.21236e-07
1.14223e-07
1.06612e-07
9.9745e-08
9.39655e-08
8.9154e-08
8.51695e-08
8.18152e-08
7.89937e-08
7.65697e-08
7.44969e-08
7.26822e-08
7.11121e-08
6.97119e-08
6.84896e-08
6.73838e-08
6.6413e-08
6.55228e-08
6.47377e-08
6.40085e-08
6.33649e-08
6.27586e-08
6.22227e-08
6.17132e-08
6.12638e-08
6.0832e-08
6.04496e-08
6.00805e-08
5.97563e-08
5.94369e-08
5.91573e-08
5.88808e-08
5.86409e-08
5.84013e-08
5.81939e-08
5.79827e-08
5.78028e-08
5.76171e-08
5.74593e-08
5.72955e-08
5.71568e-08
5.70115e-08
5.68919e-08
5.67619e-08
5.66554e-08
5.65401e-08
5.64492e-08
5.63463e-08
5.62641e-08
5.61772e-08
5.61083e-08
5.60246e-08
5.59616e-08
5.58881e-08
5.58425e-08
5.57714e-08
5.57166e-08
5.5661e-08
5.56078e-08
5.55531e-08
5.55215e-08
5.54711e-08
5.5433e-08
5.53831e-08
5.53476e-08
5.52976e-08
5.52671e-08
5.52206e-08
5.51908e-08
5.5152e-08
5.51356e-08
5.51149e-08
5.51078e-08
5.50912e-08
5.50846e-08
5.50742e-08
5.50678e-08
5.50607e-08
5.50556e-08
5.50526e-08
5.50517e-08
5.50523e-08
5.50556e-08
5.50575e-08
5.50634e-08
5.50667e-08
5.50759e-08
5.50802e-08
5.50941e-08
5.50962e-08
5.51148e-08
5.50994e-08
5.56708e-08
3.41959e-06
3.71275e-08
1.24981e-07
1.21282e-07
1.14324e-07
1.06745e-07
9.98867e-08
9.41034e-08
8.92821e-08
8.52858e-08
8.19191e-08
7.90858e-08
7.66506e-08
7.45675e-08
7.27434e-08
7.11647e-08
6.97567e-08
6.85274e-08
6.74151e-08
6.64383e-08
6.55428e-08
6.47528e-08
6.4019e-08
6.33713e-08
6.27611e-08
6.22218e-08
6.17089e-08
6.12566e-08
6.08219e-08
6.04369e-08
6.00654e-08
5.9739e-08
5.94173e-08
5.91358e-08
5.88574e-08
5.86158e-08
5.83745e-08
5.81656e-08
5.79529e-08
5.77716e-08
5.75845e-08
5.74256e-08
5.72605e-08
5.71208e-08
5.69744e-08
5.68538e-08
5.67228e-08
5.66155e-08
5.64993e-08
5.64075e-08
5.63038e-08
5.6221e-08
5.61331e-08
5.60637e-08
5.59793e-08
5.59158e-08
5.58416e-08
5.57955e-08
5.57238e-08
5.56689e-08
5.56126e-08
5.55592e-08
5.5504e-08
5.54718e-08
5.54209e-08
5.53827e-08
5.53323e-08
5.52966e-08
5.52463e-08
5.52155e-08
5.51689e-08
5.51388e-08
5.50994e-08
5.50821e-08
5.5061e-08
5.5053e-08
5.50362e-08
5.50291e-08
5.50182e-08
5.50115e-08
5.50041e-08
5.49986e-08
5.49953e-08
5.4994e-08
5.49943e-08
5.49971e-08
5.49988e-08
5.50042e-08
5.50073e-08
5.50161e-08
5.50201e-08
5.50336e-08
5.50354e-08
5.50534e-08
5.50376e-08
5.56246e-08
3.41254e-06
3.89966e-08
1.24975e-07
1.21329e-07
1.14431e-07
1.06886e-07
1.00037e-07
9.42499e-08
8.94186e-08
8.54098e-08
8.20302e-08
7.91843e-08
7.67372e-08
7.46432e-08
7.28091e-08
7.12213e-08
6.9805e-08
6.85681e-08
6.74489e-08
6.64659e-08
6.55645e-08
6.47694e-08
6.40307e-08
6.33786e-08
6.27644e-08
6.22213e-08
6.17049e-08
6.12493e-08
6.08117e-08
6.0424e-08
6.00497e-08
5.97209e-08
5.9397e-08
5.91134e-08
5.88329e-08
5.85895e-08
5.83463e-08
5.81359e-08
5.79215e-08
5.77388e-08
5.75503e-08
5.73901e-08
5.72237e-08
5.70829e-08
5.69353e-08
5.68137e-08
5.66816e-08
5.65734e-08
5.64561e-08
5.63636e-08
5.6259e-08
5.61753e-08
5.60866e-08
5.60166e-08
5.59314e-08
5.58674e-08
5.57923e-08
5.57458e-08
5.56735e-08
5.56184e-08
5.55614e-08
5.55077e-08
5.54521e-08
5.54193e-08
5.53678e-08
5.53294e-08
5.52786e-08
5.52427e-08
5.5192e-08
5.51609e-08
5.51141e-08
5.50837e-08
5.50438e-08
5.50256e-08
5.50039e-08
5.49949e-08
5.49779e-08
5.49703e-08
5.4959e-08
5.4952e-08
5.49441e-08
5.49382e-08
5.49346e-08
5.49328e-08
5.49328e-08
5.49352e-08
5.49366e-08
5.49416e-08
5.49444e-08
5.49527e-08
5.49565e-08
5.49695e-08
5.4971e-08
5.49884e-08
5.49722e-08
5.55753e-08
3.40273e-06
4.10617e-08
1.24969e-07
1.21378e-07
1.14543e-07
1.07034e-07
1.00196e-07
9.44052e-08
8.95635e-08
8.55418e-08
8.21485e-08
7.92893e-08
7.68297e-08
7.47242e-08
7.28795e-08
7.1282e-08
6.98569e-08
6.8612e-08
6.74854e-08
6.64958e-08
6.55883e-08
6.47876e-08
6.40438e-08
6.3387e-08
6.27684e-08
6.22213e-08
6.17012e-08
6.12422e-08
6.08013e-08
6.04107e-08
6.00336e-08
5.97023e-08
5.93759e-08
5.90901e-08
5.88074e-08
5.85621e-08
5.83169e-08
5.81047e-08
5.78887e-08
5.77044e-08
5.75143e-08
5.73528e-08
5.7185e-08
5.7043e-08
5.68941e-08
5.67715e-08
5.66383e-08
5.65291e-08
5.64107e-08
5.63173e-08
5.62118e-08
5.61273e-08
5.60375e-08
5.59669e-08
5.58809e-08
5.58163e-08
5.57404e-08
5.56934e-08
5.56205e-08
5.55652e-08
5.55075e-08
5.54535e-08
5.53973e-08
5.53639e-08
5.53117e-08
5.52733e-08
5.52219e-08
5.51857e-08
5.51347e-08
5.51032e-08
5.50562e-08
5.50255e-08
5.49851e-08
5.49659e-08
5.49436e-08
5.49335e-08
5.49165e-08
5.49083e-08
5.48965e-08
5.48891e-08
5.48808e-08
5.48745e-08
5.48705e-08
5.48682e-08
5.48679e-08
5.48697e-08
5.48709e-08
5.48754e-08
5.48779e-08
5.48857e-08
5.48892e-08
5.49018e-08
5.4903e-08
5.49195e-08
5.4903e-08
5.55229e-08
3.38954e-06
4.33334e-08
1.24962e-07
1.21429e-07
1.14661e-07
1.07189e-07
1.00363e-07
9.45694e-08
8.97171e-08
8.56819e-08
8.22743e-08
7.94012e-08
7.69284e-08
7.48107e-08
7.29547e-08
7.13471e-08
6.99126e-08
6.86592e-08
6.75249e-08
6.65282e-08
6.56142e-08
6.48076e-08
6.40583e-08
6.33965e-08
6.27733e-08
6.2222e-08
6.16979e-08
6.12353e-08
6.0791e-08
6.03973e-08
6.00171e-08
5.96831e-08
5.93542e-08
5.9066e-08
5.8781e-08
5.85335e-08
5.82863e-08
5.80723e-08
5.78544e-08
5.76685e-08
5.74768e-08
5.73138e-08
5.71445e-08
5.70013e-08
5.6851e-08
5.67272e-08
5.65928e-08
5.64826e-08
5.63631e-08
5.62687e-08
5.61622e-08
5.60769e-08
5.5986e-08
5.59147e-08
5.58279e-08
5.57626e-08
5.56858e-08
5.56382e-08
5.55647e-08
5.55092e-08
5.54507e-08
5.53964e-08
5.53396e-08
5.53055e-08
5.52527e-08
5.52141e-08
5.51621e-08
5.51258e-08
5.50743e-08
5.50425e-08
5.49953e-08
5.49642e-08
5.49234e-08
5.49032e-08
5.48802e-08
5.48689e-08
5.48518e-08
5.48429e-08
5.48306e-08
5.48228e-08
5.48141e-08
5.48074e-08
5.4803e-08
5.48002e-08
5.47995e-08
5.48008e-08
5.48017e-08
5.48056e-08
5.48079e-08
5.48151e-08
5.48183e-08
5.48303e-08
5.48312e-08
5.48469e-08
5.48301e-08
5.54671e-08
3.37226e-06
4.58209e-08
1.24954e-07
1.21481e-07
1.14783e-07
1.07352e-07
1.0054e-07
9.47428e-08
8.98797e-08
8.58304e-08
8.24079e-08
7.95202e-08
7.70335e-08
7.4903e-08
7.30351e-08
7.14167e-08
6.99723e-08
6.871e-08
6.75674e-08
6.65633e-08
6.56424e-08
6.48295e-08
6.40744e-08
6.34073e-08
6.27792e-08
6.22235e-08
6.16951e-08
6.12287e-08
6.07807e-08
6.03837e-08
6.00004e-08
5.96635e-08
5.93318e-08
5.90411e-08
5.87536e-08
5.8504e-08
5.82545e-08
5.80386e-08
5.78187e-08
5.76311e-08
5.74376e-08
5.72732e-08
5.71023e-08
5.69577e-08
5.68059e-08
5.66809e-08
5.65452e-08
5.6434e-08
5.63133e-08
5.62179e-08
5.61103e-08
5.60241e-08
5.59321e-08
5.586e-08
5.57723e-08
5.57064e-08
5.56286e-08
5.55804e-08
5.55061e-08
5.54504e-08
5.5391e-08
5.53364e-08
5.5279e-08
5.52443e-08
5.51908e-08
5.51521e-08
5.50994e-08
5.50629e-08
5.50109e-08
5.49787e-08
5.49313e-08
5.48998e-08
5.48587e-08
5.48374e-08
5.48137e-08
5.48011e-08
5.47839e-08
5.47742e-08
5.47614e-08
5.47532e-08
5.47439e-08
5.47368e-08
5.4732e-08
5.47286e-08
5.47276e-08
5.47283e-08
5.47289e-08
5.47322e-08
5.47342e-08
5.47409e-08
5.47437e-08
5.47552e-08
5.47558e-08
5.47705e-08
5.47534e-08
5.54078e-08
3.35014e-06
4.85309e-08
1.24946e-07
1.21535e-07
1.1491e-07
1.07523e-07
1.00725e-07
9.49254e-08
9.00513e-08
8.59875e-08
8.25495e-08
7.96465e-08
7.71453e-08
7.50013e-08
7.31209e-08
7.14911e-08
7.00363e-08
6.87645e-08
6.76133e-08
6.66012e-08
6.5673e-08
6.48535e-08
6.40923e-08
6.34196e-08
6.27863e-08
6.22258e-08
6.1693e-08
6.12225e-08
6.07706e-08
6.03702e-08
5.99834e-08
5.96435e-08
5.93088e-08
5.90156e-08
5.87254e-08
5.84734e-08
5.82216e-08
5.80036e-08
5.77817e-08
5.75923e-08
5.73969e-08
5.72309e-08
5.70583e-08
5.69123e-08
5.6759e-08
5.66327e-08
5.64956e-08
5.63833e-08
5.62612e-08
5.61648e-08
5.6056e-08
5.59688e-08