/*--------------------------------*- C++ -*----------------------------------*\
| =========                 |                                                 |
| \\      /  F ield         | OpenFOAM: The Open Source CFD Toolbox           |
|  \\    /   O peration     | Version:  v2012                                 |
|   \\  /    A nd           | Website:  www.openfoam.com                      |
|    \\/     M anipulation  |                                                 |
\*---------------------------------------------------------------------------*/
FoamFile
{
    version     2.0;
    format      ascii;
    class       volVectorField;
    location    "30.5";
    object      wallShearStress;
}
// * * * * * * * * * * * * * * * * * * * * * * * * * * * * * * * * * * * * * //

dimensions      [0 2 -2 0 0 0 0];


internalField   uniform (0 0 0);

boundaryField
{
    inlet
    {
        type            calculated;
        value           uniform (0 0 0);
    }
    outlet
    {
        type            calculated;
        value           uniform (0 0 0);
    }
    topWall
    {
        type            calculated;
        value           nonuniform List<vector> 
545
(
(6.12292e-08 -4.3089e-08 0)
(6.12324e-08 -1.20609e-07 0)
(6.11704e-08 -2.01178e-07 0)
(6.10965e-08 -2.79382e-07 0)
(6.10158e-08 -3.54231e-07 0)
(6.09218e-08 -4.26685e-07 0)
(6.08153e-08 -4.97361e-07 0)
(6.06969e-08 -5.66227e-07 0)
(6.05676e-08 -6.33129e-07 0)
(6.04284e-08 -6.98066e-07 0)
(6.02801e-08 -7.61122e-07 0)
(6.01238e-08 -8.2237e-07 0)
(5.99602e-08 -8.81853e-07 0)
(5.97901e-08 -9.39606e-07 0)
(5.96142e-08 -9.9567e-07 0)
(5.94333e-08 -1.05009e-06 0)
(5.92478e-08 -1.10291e-06 0)
(5.90586e-08 -1.15418e-06 0)
(5.8866e-08 -1.20394e-06 0)
(5.86707e-08 -1.25222e-06 0)
(5.8473e-08 -1.29907e-06 0)
(5.82736e-08 -1.34454e-06 0)
(5.80727e-08 -1.38865e-06 0)
(5.78709e-08 -1.43145e-06 0)
(5.76683e-08 -1.47297e-06 0)
(5.74655e-08 -1.51326e-06 0)
(5.72627e-08 -1.55235e-06 0)
(5.70601e-08 -1.59027e-06 0)
(5.68581e-08 -1.62706e-06 0)
(5.66569e-08 -1.66276e-06 0)
(5.64566e-08 -1.69739e-06 0)
(5.62576e-08 -1.73098e-06 0)
(5.606e-08 -1.76358e-06 0)
(5.5864e-08 -1.79521e-06 0)
(5.56696e-08 -1.82589e-06 0)
(5.54771e-08 -1.85567e-06 0)
(5.52866e-08 -1.88455e-06 0)
(5.50982e-08 -1.91258e-06 0)
(5.4912e-08 -1.93978e-06 0)
(5.47281e-08 -1.96617e-06 0)
(5.45465e-08 -1.99178e-06 0)
(5.43674e-08 -2.01663e-06 0)
(5.41907e-08 -2.04075e-06 0)
(5.40165e-08 -2.06415e-06 0)
(5.38449e-08 -2.08687e-06 0)
(5.3676e-08 -2.10892e-06 0)
(5.35096e-08 -2.13032e-06 0)
(5.33459e-08 -2.15109e-06 0)
(5.31849e-08 -2.17125e-06 0)
(5.30266e-08 -2.19082e-06 0)
(5.28709e-08 -2.20982e-06 0)
(5.27179e-08 -2.22826e-06 0)
(5.25676e-08 -2.24616e-06 0)
(5.24199e-08 -2.26355e-06 0)
(5.22749e-08 -2.28043e-06 0)
(5.21325e-08 -2.29681e-06 0)
(5.19928e-08 -2.31273e-06 0)
(5.18556e-08 -2.32818e-06 0)
(5.1721e-08 -2.34318e-06 0)
(5.15889e-08 -2.35776e-06 0)
(5.14594e-08 -2.37191e-06 0)
(5.13323e-08 -2.38565e-06 0)
(5.12077e-08 -2.399e-06 0)
(5.10855e-08 -2.41197e-06 0)
(5.09657e-08 -2.42456e-06 0)
(5.08482e-08 -2.43679e-06 0)
(5.0733e-08 -2.44868e-06 0)
(5.06201e-08 -2.46022e-06 0)
(5.05094e-08 -2.47144e-06 0)
(5.04007e-08 -2.48233e-06 0)
(5.02949e-08 -2.49293e-06 0)
(5.0188e-08 -2.50319e-06 0)
(5.00854e-08 -2.51306e-06 0)
(4.99906e-08 -2.52266e-06 0)
(4.98963e-08 -2.53213e-06 0)
(4.98023e-08 -2.54154e-06 0)
(4.97084e-08 -2.55092e-06 0)
(4.96147e-08 -2.56024e-06 0)
(4.9521e-08 -2.5695e-06 0)
(4.94274e-08 -2.57869e-06 0)
(4.9334e-08 -2.58782e-06 0)
(4.92406e-08 -2.5969e-06 0)
(4.91474e-08 -2.60592e-06 0)
(4.90543e-08 -2.61487e-06 0)
(4.89613e-08 -2.62378e-06 0)
(4.88684e-08 -2.63262e-06 0)
(4.87757e-08 -2.6414e-06 0)
(4.8683e-08 -2.65013e-06 0)
(4.85906e-08 -2.65881e-06 0)
(4.84982e-08 -2.66742e-06 0)
(4.8406e-08 -2.67599e-06 0)
(4.83139e-08 -2.68449e-06 0)
(4.82222e-08 -2.69295e-06 0)
(4.81293e-08 -2.70131e-06 0)
(4.8043e-08 -2.70973e-06 0)
(4.79295e-08 -2.71791e-06 0)
(4.78135e-08 -2.72534e-06 0)
(4.77345e-08 -2.73224e-06 0)
(4.76599e-08 -2.73889e-06 0)
(4.7586e-08 -2.74548e-06 0)
(4.75119e-08 -2.75219e-06 0)
(4.74376e-08 -2.75892e-06 0)
(4.7363e-08 -2.76564e-06 0)
(4.7288e-08 -2.77236e-06 0)
(4.72127e-08 -2.77908e-06 0)
(4.7137e-08 -2.7858e-06 0)
(4.70611e-08 -2.79254e-06 0)
(4.69847e-08 -2.79928e-06 0)
(4.6908e-08 -2.80602e-06 0)
(4.6831e-08 -2.81277e-06 0)
(4.67537e-08 -2.81952e-06 0)
(4.6676e-08 -2.82628e-06 0)
(4.65979e-08 -2.83304e-06 0)
(4.65195e-08 -2.83981e-06 0)
(4.64408e-08 -2.84658e-06 0)
(4.63617e-08 -2.85335e-06 0)
(4.62822e-08 -2.86013e-06 0)
(4.62024e-08 -2.86692e-06 0)
(4.61223e-08 -2.87371e-06 0)
(4.60418e-08 -2.8805e-06 0)
(4.5961e-08 -2.8873e-06 0)
(4.58798e-08 -2.8941e-06 0)
(4.57982e-08 -2.9009e-06 0)
(4.57164e-08 -2.90771e-06 0)
(4.56341e-08 -2.91453e-06 0)
(4.55515e-08 -2.92134e-06 0)
(4.54685e-08 -2.92816e-06 0)
(4.53852e-08 -2.93499e-06 0)
(4.53015e-08 -2.94181e-06 0)
(4.52175e-08 -2.94864e-06 0)
(4.51331e-08 -2.95548e-06 0)
(4.50484e-08 -2.96232e-06 0)
(4.49632e-08 -2.96916e-06 0)
(4.48778e-08 -2.976e-06 0)
(4.47919e-08 -2.98285e-06 0)
(4.47057e-08 -2.9897e-06 0)
(4.46192e-08 -2.99655e-06 0)
(4.45322e-08 -3.0034e-06 0)
(4.44449e-08 -3.01026e-06 0)
(4.43573e-08 -3.01712e-06 0)
(4.42693e-08 -3.02399e-06 0)
(4.41809e-08 -3.03085e-06 0)
(4.40921e-08 -3.03772e-06 0)
(4.4003e-08 -3.04459e-06 0)
(4.39135e-08 -3.05146e-06 0)
(4.38237e-08 -3.05834e-06 0)
(4.37334e-08 -3.06522e-06 0)
(4.36428e-08 -3.0721e-06 0)
(4.35518e-08 -3.07898e-06 0)
(4.34605e-08 -3.08586e-06 0)
(4.33688e-08 -3.09274e-06 0)
(4.32767e-08 -3.09963e-06 0)
(4.31843e-08 -3.10652e-06 0)
(4.30914e-08 -3.11341e-06 0)
(4.29982e-08 -3.1203e-06 0)
(4.29046e-08 -3.12719e-06 0)
(4.28107e-08 -3.13408e-06 0)
(4.27164e-08 -3.14098e-06 0)
(4.26217e-08 -3.14787e-06 0)
(4.25266e-08 -3.15477e-06 0)
(4.24311e-08 -3.16166e-06 0)
(4.23353e-08 -3.16856e-06 0)
(4.22391e-08 -3.17546e-06 0)
(4.21425e-08 -3.18236e-06 0)
(4.20455e-08 -3.18926e-06 0)
(4.19482e-08 -3.19615e-06 0)
(4.18505e-08 -3.20305e-06 0)
(4.17524e-08 -3.20995e-06 0)
(4.16539e-08 -3.21685e-06 0)
(4.15551e-08 -3.22375e-06 0)
(4.14558e-08 -3.23065e-06 0)
(4.13562e-08 -3.23755e-06 0)
(4.12562e-08 -3.24445e-06 0)
(4.11559e-08 -3.25135e-06 0)
(4.10551e-08 -3.25824e-06 0)
(4.0954e-08 -3.26514e-06 0)
(4.08525e-08 -3.27204e-06 0)
(4.07506e-08 -3.27893e-06 0)
(4.06483e-08 -3.28582e-06 0)
(4.05456e-08 -3.29272e-06 0)
(4.04426e-08 -3.29961e-06 0)
(4.03392e-08 -3.3065e-06 0)
(4.02354e-08 -3.31339e-06 0)
(4.01312e-08 -3.32027e-06 0)
(4.00267e-08 -3.32716e-06 0)
(3.99217e-08 -3.33404e-06 0)
(3.98164e-08 -3.34093e-06 0)
(3.97107e-08 -3.3478e-06 0)
(3.96046e-08 -3.35468e-06 0)
(3.94982e-08 -3.36156e-06 0)
(3.93913e-08 -3.36843e-06 0)
(3.92841e-08 -3.3753e-06 0)
(3.91765e-08 -3.38217e-06 0)
(3.90685e-08 -3.38903e-06 0)
(3.89601e-08 -3.39589e-06 0)
(3.88514e-08 -3.40275e-06 0)
(3.87423e-08 -3.40961e-06 0)
(3.86328e-08 -3.41646e-06 0)
(3.85229e-08 -3.42331e-06 0)
(3.84126e-08 -3.43016e-06 0)
(3.8302e-08 -3.437e-06 0)
(3.8191e-08 -3.44384e-06 0)
(3.80796e-08 -3.45067e-06 0)
(3.79678e-08 -3.45751e-06 0)
(3.78557e-08 -3.46433e-06 0)
(3.77431e-08 -3.47116e-06 0)
(3.76302e-08 -3.47797e-06 0)
(3.7517e-08 -3.48479e-06 0)
(3.74033e-08 -3.4916e-06 0)
(3.72893e-08 -3.4984e-06 0)
(3.71749e-08 -3.5052e-06 0)
(3.70601e-08 -3.512e-06 0)
(3.6945e-08 -3.51879e-06 0)
(3.68294e-08 -3.52557e-06 0)
(3.67135e-08 -3.53235e-06 0)
(3.65973e-08 -3.53913e-06 0)
(3.64806e-08 -3.54589e-06 0)
(3.63636e-08 -3.55266e-06 0)
(3.62463e-08 -3.55941e-06 0)
(3.61285e-08 -3.56616e-06 0)
(3.60104e-08 -3.57291e-06 0)
(3.58919e-08 -3.57965e-06 0)
(3.57731e-08 -3.58638e-06 0)
(3.56539e-08 -3.5931e-06 0)
(3.55343e-08 -3.59982e-06 0)
(3.54144e-08 -3.60653e-06 0)
(3.52941e-08 -3.61324e-06 0)
(3.51734e-08 -3.61994e-06 0)
(3.50524e-08 -3.62663e-06 0)
(3.4931e-08 -3.63331e-06 0)
(3.48093e-08 -3.63998e-06 0)
(3.46872e-08 -3.64665e-06 0)
(3.45647e-08 -3.65331e-06 0)
(3.44419e-08 -3.65996e-06 0)
(3.43187e-08 -3.66661e-06 0)
(3.41952e-08 -3.67324e-06 0)
(3.40714e-08 -3.67987e-06 0)
(3.39471e-08 -3.68649e-06 0)
(3.38226e-08 -3.6931e-06 0)
(3.36977e-08 -3.6997e-06 0)
(3.35724e-08 -3.70629e-06 0)
(3.34468e-08 -3.71288e-06 0)
(3.33208e-08 -3.71945e-06 0)
(3.31945e-08 -3.72602e-06 0)
(3.30679e-08 -3.73257e-06 0)
(3.29409e-08 -3.73912e-06 0)
(3.28136e-08 -3.74565e-06 0)
(3.2686e-08 -3.75218e-06 0)
(3.2558e-08 -3.75869e-06 0)
(3.24296e-08 -3.7652e-06 0)
(3.2301e-08 -3.77169e-06 0)
(3.2172e-08 -3.77818e-06 0)
(3.20427e-08 -3.78465e-06 0)
(3.19131e-08 -3.79111e-06 0)
(3.17831e-08 -3.79756e-06 0)
(3.16528e-08 -3.804e-06 0)
(3.15222e-08 -3.81043e-06 0)
(3.13913e-08 -3.81685e-06 0)
(3.126e-08 -3.82325e-06 0)
(3.11285e-08 -3.82965e-06 0)
(3.09966e-08 -3.83603e-06 0)
(3.08644e-08 -3.8424e-06 0)
(3.07319e-08 -3.84875e-06 0)
(3.05991e-08 -3.8551e-06 0)
(3.04659e-08 -3.86143e-06 0)
(3.03327e-08 -3.86775e-06 0)
(3.01983e-08 -3.87403e-06 0)
(3.00686e-08 -3.8804e-06 0)
(2.99239e-08 -3.88659e-06 0)
(2.97715e-08 -3.89243e-06 0)
(2.96435e-08 -3.89819e-06 0)
(2.95251e-08 -3.90379e-06 0)
(2.9405e-08 -3.90936e-06 0)
(2.9284e-08 -3.91504e-06 0)
(2.91617e-08 -3.92078e-06 0)
(2.9038e-08 -3.92656e-06 0)
(2.89129e-08 -3.93236e-06 0)
(2.87864e-08 -3.93819e-06 0)
(2.86585e-08 -3.94407e-06 0)
(2.85291e-08 -3.94998e-06 0)
(2.83984e-08 -3.95593e-06 0)
(2.82662e-08 -3.96192e-06 0)
(2.81325e-08 -3.96794e-06 0)
(2.79974e-08 -3.97401e-06 0)
(2.78608e-08 -3.9801e-06 0)
(2.77228e-08 -3.98624e-06 0)
(2.75832e-08 -3.9924e-06 0)
(2.74422e-08 -3.99861e-06 0)
(2.72996e-08 -4.00485e-06 0)
(2.71556e-08 -4.01112e-06 0)
(2.701e-08 -4.01743e-06 0)
(2.68629e-08 -4.02377e-06 0)
(2.67142e-08 -4.03015e-06 0)
(2.6564e-08 -4.03656e-06 0)
(2.64122e-08 -4.043e-06 0)
(2.62588e-08 -4.04947e-06 0)
(2.61039e-08 -4.05598e-06 0)
(2.59473e-08 -4.06252e-06 0)
(2.57892e-08 -4.06908e-06 0)
(2.56294e-08 -4.07568e-06 0)
(2.5468e-08 -4.08231e-06 0)
(2.5305e-08 -4.08897e-06 0)
(2.51404e-08 -4.09566e-06 0)
(2.49741e-08 -4.10238e-06 0)
(2.48061e-08 -4.10912e-06 0)
(2.46365e-08 -4.11589e-06 0)
(2.44652e-08 -4.12269e-06 0)
(2.42923e-08 -4.12951e-06 0)
(2.41176e-08 -4.13636e-06 0)
(2.39413e-08 -4.14323e-06 0)
(2.37633e-08 -4.15012e-06 0)
(2.35835e-08 -4.15704e-06 0)
(2.34021e-08 -4.16398e-06 0)
(2.32189e-08 -4.17094e-06 0)
(2.30341e-08 -4.17792e-06 0)
(2.28475e-08 -4.18492e-06 0)
(2.26592e-08 -4.19194e-06 0)
(2.24691e-08 -4.19898e-06 0)
(2.22773e-08 -4.20603e-06 0)
(2.20838e-08 -4.21309e-06 0)
(2.18886e-08 -4.22017e-06 0)
(2.16916e-08 -4.22727e-06 0)
(2.14929e-08 -4.23437e-06 0)
(2.12924e-08 -4.24149e-06 0)
(2.10902e-08 -4.24861e-06 0)
(2.08862e-08 -4.25575e-06 0)
(2.06806e-08 -4.26289e-06 0)
(2.04732e-08 -4.27003e-06 0)
(2.0264e-08 -4.27718e-06 0)
(2.00531e-08 -4.28434e-06 0)
(1.98405e-08 -4.29149e-06 0)
(1.96262e-08 -4.29865e-06 0)
(1.94102e-08 -4.3058e-06 0)
(1.91924e-08 -4.31296e-06 0)
(1.8973e-08 -4.3201e-06 0)
(1.87518e-08 -4.32725e-06 0)
(1.8529e-08 -4.33438e-06 0)
(1.83045e-08 -4.34151e-06 0)
(1.80784e-08 -4.34862e-06 0)
(1.78505e-08 -4.35572e-06 0)
(1.76211e-08 -4.36281e-06 0)
(1.739e-08 -4.36988e-06 0)
(1.71573e-08 -4.37693e-06 0)
(1.6923e-08 -4.38397e-06 0)
(1.66872e-08 -4.39098e-06 0)
(1.64497e-08 -4.39797e-06 0)
(1.62108e-08 -4.40493e-06 0)
(1.59703e-08 -4.41186e-06 0)
(1.57282e-08 -4.41877e-06 0)
(1.54848e-08 -4.42564e-06 0)
(1.52398e-08 -4.43248e-06 0)
(1.49934e-08 -4.43928e-06 0)
(1.47457e-08 -4.44604e-06 0)
(1.44965e-08 -4.45276e-06 0)
(1.4246e-08 -4.45944e-06 0)
(1.39941e-08 -4.46607e-06 0)
(1.3741e-08 -4.47266e-06 0)
(1.34866e-08 -4.47919e-06 0)
(1.3231e-08 -4.48567e-06 0)
(1.29742e-08 -4.4921e-06 0)
(1.27162e-08 -4.49846e-06 0)
(1.24571e-08 -4.50477e-06 0)
(1.21969e-08 -4.51101e-06 0)
(1.19357e-08 -4.51719e-06 0)
(1.16735e-08 -4.5233e-06 0)
(1.14104e-08 -4.52934e-06 0)
(1.11463e-08 -4.5353e-06 0)
(1.08814e-08 -4.54119e-06 0)
(1.06156e-08 -4.54699e-06 0)
(1.03492e-08 -4.55272e-06 0)
(1.00819e-08 -4.55835e-06 0)
(9.81408e-09 -4.56391e-06 0)
(9.54561e-09 -4.56936e-06 0)
(9.27661e-09 -4.57473e-06 0)
(9.0071e-09 -4.57999e-06 0)
(8.73717e-09 -4.58516e-06 0)
(8.46686e-09 -4.59022e-06 0)
(8.19626e-09 -4.59518e-06 0)
(7.9254e-09 -4.60003e-06 0)
(7.65438e-09 -4.60476e-06 0)
(7.38323e-09 -4.60938e-06 0)
(7.11205e-09 -4.61388e-06 0)
(6.84088e-09 -4.61826e-06 0)
(6.56982e-09 -4.62251e-06 0)
(6.29892e-09 -4.62663e-06 0)
(6.02828e-09 -4.63063e-06 0)
(5.75795e-09 -4.63448e-06 0)
(5.48802e-09 -4.63821e-06 0)
(5.21856e-09 -4.64178e-06 0)
(4.94966e-09 -4.64522e-06 0)
(4.68138e-09 -4.64851e-06 0)
(4.41383e-09 -4.65165e-06 0)
(4.14707e-09 -4.65463e-06 0)
(3.8812e-09 -4.65746e-06 0)
(3.61629e-09 -4.66013e-06 0)
(3.35244e-09 -4.66264e-06 0)
(3.08972e-09 -4.66497e-06 0)
(2.82824e-09 -4.66715e-06 0)
(2.56807e-09 -4.66914e-06 0)
(2.30931e-09 -4.67097e-06 0)
(2.05204e-09 -4.67261e-06 0)
(1.79636e-09 -4.67409e-06 0)
(1.54236e-09 -4.67536e-06 0)
(1.29013e-09 -4.67647e-06 0)
(1.03976e-09 -4.67737e-06 0)
(7.91354e-10 -4.67809e-06 0)
(5.44997e-10 -4.67861e-06 0)
(3.00786e-10 -4.67894e-06 0)
(5.88153e-11 -4.67906e-06 0)
(-1.80821e-10 -4.67899e-06 0)
(-4.18026e-10 -4.6787e-06 0)
(-6.52707e-10 -4.67822e-06 0)
(-8.84766e-10 -4.67752e-06 0)
(-1.11411e-09 -4.67662e-06 0)
(-1.34064e-09 -4.67549e-06 0)
(-1.56428e-09 -4.67417e-06 0)
(-1.7849e-09 -4.67261e-06 0)
(-2.00245e-09 -4.67085e-06 0)
(-2.2168e-09 -4.66885e-06 0)
(-2.42788e-09 -4.66665e-06 0)
(-2.63558e-09 -4.66421e-06 0)
(-2.83985e-09 -4.66156e-06 0)
(-3.04056e-09 -4.65867e-06 0)
(-3.23765e-09 -4.65557e-06 0)
(-3.43103e-09 -4.65222e-06 0)
(-3.62063e-09 -4.64867e-06 0)
(-3.80635e-09 -4.64487e-06 0)
(-3.98815e-09 -4.64085e-06 0)
(-4.16592e-09 -4.63659e-06 0)
(-4.33962e-09 -4.63212e-06 0)
(-4.50916e-09 -4.62739e-06 0)
(-4.67451e-09 -4.62246e-06 0)
(-4.83557e-09 -4.61728e-06 0)
(-4.99232e-09 -4.61188e-06 0)
(-5.14467e-09 -4.60624e-06 0)
(-5.29261e-09 -4.60039e-06 0)
(-5.43604e-09 -4.59429e-06 0)
(-5.57498e-09 -4.58799e-06 0)
(-5.70932e-09 -4.58143e-06 0)
(-5.83907e-09 -4.57468e-06 0)
(-5.96414e-09 -4.56767e-06 0)
(-6.08454e-09 -4.56047e-06 0)
(-6.20018e-09 -4.55302e-06 0)
(-6.31108e-09 -4.54538e-06 0)
(-6.41712e-09 -4.5375e-06 0)
(-6.51833e-09 -4.52943e-06 0)
(-6.61465e-09 -4.52111e-06 0)
(-6.70584e-09 -4.51266e-06 0)
(-6.79324e-09 -4.50382e-06 0)
(-6.8723e-09 -4.49496e-06 0)
(-6.94822e-09 -4.48498e-06 0)
(-7.02938e-09 -4.47355e-06 0)
(-7.10731e-09 -4.46203e-06 0)
(-7.17765e-09 -4.45051e-06 0)
(-7.24068e-09 -4.4388e-06 0)
(-7.29658e-09 -4.42703e-06 0)
(-7.34544e-09 -4.41513e-06 0)
(-7.38758e-09 -4.40321e-06 0)
(-7.42311e-09 -4.39118e-06 0)
(-7.45241e-09 -4.37914e-06 0)
(-7.47559e-09 -4.36703e-06 0)
(-7.493e-09 -4.35491e-06 0)
(-7.50474e-09 -4.34274e-06 0)
(-7.51115e-09 -4.33058e-06 0)
(-7.51233e-09 -4.31839e-06 0)
(-7.50861e-09 -4.30623e-06 0)
(-7.50006e-09 -4.29405e-06 0)
(-7.48699e-09 -4.28192e-06 0)
(-7.46946e-09 -4.26978e-06 0)
(-7.44777e-09 -4.25771e-06 0)
(-7.42196e-09 -4.24565e-06 0)
(-7.39233e-09 -4.23366e-06 0)
(-7.35888e-09 -4.22169e-06 0)
(-7.3219e-09 -4.20981e-06 0)
(-7.2814e-09 -4.19796e-06 0)
(-7.23763e-09 -4.18621e-06 0)
(-7.1906e-09 -4.1745e-06 0)
(-7.14054e-09 -4.16291e-06 0)
(-7.08745e-09 -4.15136e-06 0)
(-7.03157e-09 -4.13994e-06 0)
(-6.97286e-09 -4.12858e-06 0)
(-6.91156e-09 -4.11735e-06 0)
(-6.84763e-09 -4.10618e-06 0)
(-6.78129e-09 -4.09516e-06 0)
(-6.7125e-09 -4.0842e-06 0)
(-6.64147e-09 -4.0734e-06 0)
(-6.56815e-09 -4.06268e-06 0)
(-6.49275e-09 -4.05212e-06 0)
(-6.4152e-09 -4.04164e-06 0)
(-6.3357e-09 -4.03133e-06 0)
(-6.25421e-09 -4.02111e-06 0)
(-6.17089e-09 -4.01106e-06 0)
(-6.08569e-09 -4.00112e-06 0)
(-5.99878e-09 -3.99134e-06 0)
(-5.91011e-09 -3.98168e-06 0)
(-5.81984e-09 -3.97219e-06 0)
(-5.7279e-09 -3.96282e-06 0)
(-5.63445e-09 -3.95363e-06 0)
(-5.53944e-09 -3.94456e-06 0)
(-5.44299e-09 -3.93568e-06 0)
(-5.34507e-09 -3.92692e-06 0)
(-5.24579e-09 -3.91836e-06 0)
(-5.14511e-09 -3.90993e-06 0)
(-5.04315e-09 -3.90169e-06 0)
(-4.93986e-09 -3.89358e-06 0)
(-4.83534e-09 -3.88568e-06 0)
(-4.72957e-09 -3.87791e-06 0)
(-4.62263e-09 -3.87035e-06 0)
(-4.51449e-09 -3.86293e-06 0)
(-4.40524e-09 -3.85572e-06 0)
(-4.29485e-09 -3.84865e-06 0)
(-4.18341e-09 -3.8418e-06 0)
(-4.07088e-09 -3.8351e-06 0)
(-3.95735e-09 -3.8286e-06 0)
(-3.8428e-09 -3.82227e-06 0)
(-3.7273e-09 -3.81614e-06 0)
(-3.61082e-09 -3.81019e-06 0)
(-3.49345e-09 -3.80444e-06 0)
(-3.37516e-09 -3.79886e-06 0)
(-3.25603e-09 -3.79349e-06 0)
(-3.13603e-09 -3.7883e-06 0)
(-3.01524e-09 -3.78332e-06 0)
(-2.89364e-09 -3.77852e-06 0)
(-2.7713e-09 -3.77394e-06 0)
(-2.6482e-09 -3.76953e-06 0)
(-2.5244e-09 -3.76535e-06 0)
(-2.3999e-09 -3.76134e-06 0)
(-2.27474e-09 -3.75756e-06 0)
(-2.14894e-09 -3.75396e-06 0)
(-2.02251e-09 -3.75058e-06 0)
(-1.89549e-09 -3.7474e-06 0)
(-1.7679e-09 -3.74443e-06 0)
(-1.63976e-09 -3.74165e-06 0)
(-1.51112e-09 -3.7391e-06 0)
(-1.38203e-09 -3.73674e-06 0)
(-1.25256e-09 -3.73462e-06 0)
(-1.12282e-09 -3.73261e-06 0)
(-9.92986e-10 -3.73115e-06 0)
(-8.63144e-10 -3.72877e-06 0)
(-7.33875e-10 -3.7303e-06 0)
(-6.04055e-10 -3.71952e-06 0)
(-4.77788e-10 -3.7489e-06 0)
(-3.39448e-10 -3.63602e-06 0)
(-2.42064e-10 -3.93418e-06 0)
(-1.11113e-10 -3.43584e-06 0)
)
;
    }
    bottomWall
    {
        type            calculated;
        value           nonuniform List<vector> 
449
(
(-52.7941 -0.95664 0)
(-34.8 -0.00280366 0)
(-34.4025 -0.000256817 0)
(-33.033 -0.000365255 0)
(-31.9019 -0.000316642 0)
(-30.8613 -0.000285382 0)
(-29.9405 -0.000250215 0)
(-29.1379 -0.000218103 0)
(-28.4351 -0.000191441 0)
(-27.8136 -0.000169631 0)
(-27.2589 -0.00015154 0)
(-26.7605 -0.0001363 0)
(-26.3097 -0.000123521 0)
(-25.8983 -0.000112768 0)
(-25.5207 -0.000103546 0)
(-25.1722 -9.55837e-05 0)
(-24.8489 -8.86554e-05 0)
(-24.5476 -8.2547e-05 0)
(-24.266 -7.71447e-05 0)
(-24.0017 -7.231e-05 0)
(-23.7531 -6.79519e-05 0)
(-23.5185 -6.40274e-05 0)
(-23.2968 -6.04648e-05 0)
(-23.0866 -5.72388e-05 0)
(-22.887 -5.43023e-05 0)
(-22.697 -5.16131e-05 0)
(-22.5158 -4.91505e-05 0)
(-22.3426 -4.6891e-05 0)
(-22.1769 -4.48138e-05 0)
(-22.0181 -4.28947e-05 0)
(-21.8655 -4.11211e-05 0)
(-21.7188 -3.94744e-05 0)
(-21.5776 -3.79467e-05 0)
(-21.4414 -3.65188e-05 0)
(-21.31 -3.51887e-05 0)
(-21.1829 -3.39436e-05 0)
(-21.0601 -3.27809e-05 0)
(-20.941 -3.16884e-05 0)
(-20.8257 -3.06631e-05 0)
(-20.7137 -2.96966e-05 0)
(-20.605 -2.87846e-05 0)
(-20.4992 -2.7922e-05 0)
(-20.3965 -2.71047e-05 0)
(-20.2964 -2.63258e-05 0)
(-20.199 -2.55817e-05 0)
(-20.104 -2.48735e-05 0)
(-20.0115 -2.41956e-05 0)
(-19.9212 -2.35442e-05 0)
(-19.8332 -2.29202e-05 0)
(-19.7472 -2.23252e-05 0)
(-19.6634 -2.17505e-05 0)
(-19.5814 -2.12017e-05 0)
(-19.5013 -2.06778e-05 0)
(-19.4229 -2.01749e-05 0)
(-19.3463 -1.96934e-05 0)
(-19.2713 -1.92314e-05 0)
(-19.198 -1.87893e-05 0)
(-19.126 -1.83662e-05 0)
(-19.0556 -1.79587e-05 0)
(-18.9865 -1.75677e-05 0)
(-18.9188 -1.71915e-05 0)
(-18.8523 -1.68288e-05 0)
(-18.7871 -1.64804e-05 0)
(-18.723 -1.61435e-05 0)
(-18.6601 -1.58187e-05 0)
(-18.5983 -1.55035e-05 0)
(-18.5377 -1.52009e-05 0)
(-18.478 -1.49069e-05 0)
(-18.4194 -1.46233e-05 0)
(-18.3616 -1.43473e-05 0)
(-18.305 -1.40817e-05 0)
(-18.2491 -1.38225e-05 0)
(-18.1942 -1.35712e-05 0)
(-18.1401 -1.33257e-05 0)
(-18.087 -1.30894e-05 0)
(-18.0345 -1.28578e-05 0)
(-17.983 -1.26347e-05 0)
(-17.9321 -1.24161e-05 0)
(-17.8821 -1.22049e-05 0)
(-17.8327 -1.19977e-05 0)
(-17.7842 -1.17961e-05 0)
(-17.7362 -1.15995e-05 0)
(-17.6891 -1.14087e-05 0)
(-17.6424 -1.12234e-05 0)
(-17.5966 -1.10427e-05 0)
(-17.5512 -1.08671e-05 0)
(-17.5066 -1.0694e-05 0)
(-17.4625 -1.05251e-05 0)
(-17.4191 -1.03615e-05 0)
(-17.3761 -1.02023e-05 0)
(-17.3338 -1.00472e-05 0)
(-17.2919 -9.89542e-06 0)
(-17.2508 -9.74598e-06 0)
(-17.2099 -9.6008e-06 0)
(-17.1698 -9.45867e-06 0)
(-17.1299 -9.31962e-06 0)
(-17.0908 -9.18361e-06 0)
(-17.0519 -9.052e-06 0)
(-17.0137 -8.92255e-06 0)
(-16.9758 -8.79703e-06 0)
(-16.9384 -8.67291e-06 0)
(-16.9014 -8.55192e-06 0)
(-16.8649 -8.43295e-06 0)
(-16.8287 -8.318e-06 0)
(-16.7931 -8.20297e-06 0)
(-16.7577 -8.09273e-06 0)
(-16.7229 -7.98312e-06 0)
(-16.6883 -7.87708e-06 0)
(-16.6542 -7.77281e-06 0)
(-16.6204 -7.67135e-06 0)
(-16.587 -7.57195e-06 0)
(-16.5539 -7.47397e-06 0)
(-16.5213 -7.37754e-06 0)
(-16.4888 -7.28287e-06 0)
(-16.4569 -7.18983e-06 0)
(-16.4251 -7.09826e-06 0)
(-16.3938 -7.00875e-06 0)
(-16.3627 -6.92185e-06 0)
(-16.332 -6.83721e-06 0)
(-16.3016 -6.7533e-06 0)
(-16.2715 -6.67081e-06 0)
(-16.2416 -6.59054e-06 0)
(-16.2121 -6.5114e-06 0)
(-16.1828 -6.43407e-06 0)
(-16.1539 -6.3571e-06 0)
(-16.1251 -6.2819e-06 0)
(-16.0967 -6.20683e-06 0)
(-16.0685 -6.13434e-06 0)
(-16.0407 -6.06171e-06 0)
(-16.013 -5.99195e-06 0)
(-15.9857 -5.92315e-06 0)
(-15.9585 -5.85643e-06 0)
(-15.9317 -5.79067e-06 0)
(-15.905 -5.72571e-06 0)
(-15.8786 -5.66127e-06 0)
(-15.8524 -5.59838e-06 0)
(-15.8265 -5.53541e-06 0)
(-15.8008 -5.47433e-06 0)
(-15.7753 -5.41317e-06 0)
(-15.75 -5.35378e-06 0)
(-15.725 -5.29532e-06 0)
(-15.7001 -5.23778e-06 0)
(-15.6755 -5.18158e-06 0)
(-15.6511 -5.12616e-06 0)
(-15.6269 -5.07258e-06 0)
(-15.6028 -5.01908e-06 0)
(-15.579 -4.96776e-06 0)
(-15.5554 -4.91656e-06 0)
(-15.532 -4.86625e-06 0)
(-15.5087 -4.81528e-06 0)
(-15.4856 -4.76619e-06 0)
(-15.4627 -4.71757e-06 0)
(-15.44 -4.66886e-06 0)
(-15.4174 -4.62165e-06 0)
(-15.3951 -4.57451e-06 0)
(-15.3729 -4.52856e-06 0)
(-15.3509 -4.48242e-06 0)
(-15.3291 -4.43839e-06 0)
(-15.3074 -4.39398e-06 0)
(-15.2859 -4.3509e-06 0)
(-15.2645 -4.30866e-06 0)
(-15.2433 -4.26702e-06 0)
(-15.2223 -4.2254e-06 0)
(-15.2014 -4.18567e-06 0)
(-15.1807 -4.14518e-06 0)
(-15.1601 -4.10474e-06 0)
(-15.1397 -4.06473e-06 0)
(-15.1194 -4.02661e-06 0)
(-15.0993 -3.98819e-06 0)
(-15.0793 -3.95154e-06 0)
(-15.0594 -3.91473e-06 0)
(-15.0397 -3.87823e-06 0)
(-15.0201 -3.84568e-06 0)
(-15.0017 -3.82175e-06 0)
(-14.9844 -3.7939e-06 0)
(-14.967 -3.76054e-06 0)
(-14.9496 -3.726e-06 0)
(-14.9322 -3.69384e-06 0)
(-14.9147 -3.66073e-06 0)
(-14.8973 -3.6281e-06 0)
(-14.8797 -3.59577e-06 0)
(-14.8622 -3.56486e-06 0)
(-14.8446 -3.53295e-06 0)
(-14.827 -3.50249e-06 0)
(-14.8093 -3.47155e-06 0)
(-14.7916 -3.4409e-06 0)
(-14.7738 -3.40957e-06 0)
(-14.7561 -3.379e-06 0)
(-14.7383 -3.34908e-06 0)
(-14.7205 -3.31999e-06 0)
(-14.7026 -3.29135e-06 0)
(-14.6847 -3.26027e-06 0)
(-14.6668 -3.2316e-06 0)
(-14.6488 -3.20232e-06 0)
(-14.6308 -3.17299e-06 0)
(-14.6128 -3.14276e-06 0)
(-14.5947 -3.11351e-06 0)
(-14.5767 -3.08512e-06 0)
(-14.5586 -3.05662e-06 0)
(-14.5405 -3.029e-06 0)
(-14.5223 -3.00043e-06 0)
(-14.5041 -2.97255e-06 0)
(-14.4859 -2.94419e-06 0)
(-14.4677 -2.91685e-06 0)
(-14.4494 -2.88891e-06 0)
(-14.4312 -2.86144e-06 0)
(-14.4128 -2.83455e-06 0)
(-14.3945 -2.80641e-06 0)
(-14.3762 -2.77901e-06 0)
(-14.3579 -2.75076e-06 0)
(-14.3395 -2.72433e-06 0)
(-14.3211 -2.69673e-06 0)
(-14.3027 -2.67037e-06 0)
(-14.2843 -2.64365e-06 0)
(-14.2659 -2.61903e-06 0)
(-14.2474 -2.59306e-06 0)
(-14.2289 -2.56837e-06 0)
(-14.2104 -2.54247e-06 0)
(-14.1919 -2.51769e-06 0)
(-14.1734 -2.49298e-06 0)
(-14.1549 -2.46818e-06 0)
(-14.1363 -2.44369e-06 0)
(-14.1177 -2.41892e-06 0)
(-14.0991 -2.39363e-06 0)
(-14.0806 -2.36972e-06 0)
(-14.0619 -2.3441e-06 0)
(-14.0434 -2.32097e-06 0)
(-14.0247 -2.2973e-06 0)
(-14.0061 -2.27278e-06 0)
(-13.9875 -2.25034e-06 0)
(-13.9689 -2.2268e-06 0)
(-13.9502 -2.204e-06 0)
(-13.9315 -2.1813e-06 0)
(-13.9128 -2.15828e-06 0)
(-13.8942 -2.13544e-06 0)
(-13.8755 -2.11282e-06 0)
(-13.8569 -2.09009e-06 0)
(-13.8382 -2.06705e-06 0)
(-13.8195 -2.04384e-06 0)
(-13.8008 -2.02257e-06 0)
(-13.7822 -2.00068e-06 0)
(-13.7635 -1.97958e-06 0)
(-13.7449 -1.95856e-06 0)
(-13.7262 -1.93852e-06 0)
(-13.7075 -1.91676e-06 0)
(-13.6888 -1.89639e-06 0)
(-13.6702 -1.87577e-06 0)
(-13.6515 -1.85515e-06 0)
(-13.6328 -1.83425e-06 0)
(-13.6142 -1.81443e-06 0)
(-13.5955 -1.7941e-06 0)
(-13.5769 -1.77527e-06 0)
(-13.5582 -1.75542e-06 0)
(-13.5396 -1.73611e-06 0)
(-13.5209 -1.71659e-06 0)
(-13.5023 -1.69792e-06 0)
(-13.4837 -1.67933e-06 0)
(-13.4651 -1.65999e-06 0)
(-13.4465 -1.6418e-06 0)
(-13.4279 -1.62298e-06 0)
(-13.4093 -1.60491e-06 0)
(-13.3907 -1.58675e-06 0)
(-13.3721 -1.56905e-06 0)
(-13.3536 -1.5507e-06 0)
(-13.335 -1.53269e-06 0)
(-13.3165 -1.5151e-06 0)
(-13.298 -1.49714e-06 0)
(-13.2795 -1.47963e-06 0)
(-13.2611 -1.46334e-06 0)
(-13.2426 -1.44676e-06 0)
(-13.2241 -1.42956e-06 0)
(-13.2057 -1.41196e-06 0)
(-13.1873 -1.39545e-06 0)
(-13.1689 -1.37949e-06 0)
(-13.1505 -1.36429e-06 0)
(-13.1322 -1.34707e-06 0)
(-13.1139 -1.33174e-06 0)
(-13.0955 -1.31531e-06 0)
(-13.0772 -1.29946e-06 0)
(-13.0589 -1.28381e-06 0)
(-13.0407 -1.26872e-06 0)
(-13.0225 -1.25408e-06 0)
(-13.0043 -1.23863e-06 0)
(-12.9861 -1.22376e-06 0)
(-12.968 -1.20904e-06 0)
(-12.9498 -1.19474e-06 0)
(-12.9317 -1.18024e-06 0)
(-12.9136 -1.1651e-06 0)
(-12.8956 -1.15081e-06 0)
(-12.8775 -1.13673e-06 0)
(-12.8596 -1.12342e-06 0)
(-12.8416 -1.11056e-06 0)
(-12.8236 -1.09654e-06 0)
(-12.8057 -1.08324e-06 0)
(-12.7878 -1.07029e-06 0)
(-12.7699 -1.05683e-06 0)
(-12.7521 -1.04398e-06 0)
(-12.7342 -1.03146e-06 0)
(-12.7164 -1.01834e-06 0)
(-12.6987 -1.00682e-06 0)
(-12.6809 -9.94014e-07 0)
(-12.6632 -9.82035e-07 0)
(-12.6455 -9.70694e-07 0)
(-12.6278 -9.59002e-07 0)
(-12.6101 -9.46639e-07 0)
(-12.5925 -9.3362e-07 0)
(-12.575 -9.22083e-07 0)
(-12.5574 -9.11423e-07 0)
(-12.5399 -8.9998e-07 0)
(-12.5224 -8.89034e-07 0)
(-12.5049 -8.77722e-07 0)
(-12.4875 -8.66765e-07 0)
(-12.4701 -8.56079e-07 0)
(-12.4527 -8.45374e-07 0)
(-12.4354 -8.33575e-07 0)
(-12.4181 -8.22987e-07 0)
(-12.4009 -8.12238e-07 0)
(-12.3837 -8.02254e-07 0)
(-12.3665 -7.91807e-07 0)
(-12.3494 -7.81658e-07 0)
(-12.3322 -7.71728e-07 0)
(-12.3152 -7.62368e-07 0)
(-12.2981 -7.52532e-07 0)
(-12.2811 -7.42619e-07 0)
(-12.2641 -7.33149e-07 0)
(-12.2472 -7.24124e-07 0)
(-12.2303 -7.15113e-07 0)
(-12.2134 -7.05711e-07 0)
(-12.1966 -6.9639e-07 0)
(-12.1798 -6.87419e-07 0)
(-12.163 -6.79017e-07 0)
(-12.1463 -6.69574e-07 0)
(-12.1296 -6.60689e-07 0)
(-12.113 -6.52269e-07 0)
(-12.0964 -6.43832e-07 0)
(-12.0798 -6.34757e-07 0)
(-12.0633 -6.25891e-07 0)
(-12.0469 -6.17709e-07 0)
(-12.0304 -6.09727e-07 0)
(-12.0141 -6.01572e-07 0)
(-11.9977 -5.94217e-07 0)
(-11.9814 -5.86302e-07 0)
(-11.9651 -5.78544e-07 0)
(-11.9489 -5.70784e-07 0)
(-11.9327 -5.6349e-07 0)
(-11.9166 -5.55743e-07 0)
(-11.9005 -5.48957e-07 0)
(-11.8844 -5.41527e-07 0)
(-11.8684 -5.34614e-07 0)
(-11.8523 -5.27567e-07 0)
(-11.8364 -5.20558e-07 0)
(-11.8204 -5.13502e-07 0)
(-11.8046 -5.07056e-07 0)
(-11.7887 -4.98658e-07 0)
(-11.7713 -4.89436e-07 0)
(-11.7522 -4.81359e-07 0)
(-11.7336 -4.74148e-07 0)
(-11.7151 -4.67232e-07 0)
(-11.6971 -4.60076e-07 0)
(-11.6791 -4.53113e-07 0)
(-11.6616 -4.4632e-07 0)
(-11.6442 -4.39403e-07 0)
(-11.6272 -4.32851e-07 0)
(-11.6103 -4.26944e-07 0)
(-11.5938 -4.20636e-07 0)
(-11.5774 -4.1463e-07 0)
(-11.5614 -4.08664e-07 0)
(-11.5454 -4.03038e-07 0)
(-11.5298 -3.97114e-07 0)
(-11.5144 -3.92072e-07 0)
(-11.4991 -3.86501e-07 0)
(-11.4841 -3.8142e-07 0)
(-11.4693 -3.76165e-07 0)
(-11.4547 -3.7111e-07 0)
(-11.4403 -3.66464e-07 0)
(-11.426 -3.62156e-07 0)
(-11.4119 -3.57621e-07 0)
(-11.398 -3.52631e-07 0)
(-11.3843 -3.48217e-07 0)
(-11.3708 -3.43396e-07 0)
(-11.3575 -3.398e-07 0)
(-11.3442 -3.35313e-07 0)
(-11.3312 -3.31182e-07 0)
(-11.3183 -3.27669e-07 0)
(-11.3056 -3.23613e-07 0)
(-11.293 -3.19075e-07 0)
(-11.2806 -3.15233e-07 0)
(-11.2683 -3.11696e-07 0)
(-11.2562 -3.08386e-07 0)
(-11.2442 -3.05112e-07 0)
(-11.2324 -3.01696e-07 0)
(-11.2206 -2.98621e-07 0)
(-11.209 -2.95262e-07 0)
(-11.1974 -2.92114e-07 0)
(-11.1861 -2.88982e-07 0)
(-11.1748 -2.85861e-07 0)
(-11.1638 -2.8304e-07 0)
(-11.1527 -2.80095e-07 0)
(-11.1418 -2.76908e-07 0)
(-11.131 -2.74225e-07 0)
(-11.1204 -2.71175e-07 0)
(-11.1098 -2.68445e-07 0)
(-11.0994 -2.65611e-07 0)
(-11.089 -2.62866e-07 0)
(-11.0788 -2.59909e-07 0)
(-11.0687 -2.57423e-07 0)
(-11.0587 -2.55029e-07 0)
(-11.0487 -2.52258e-07 0)
(-11.0389 -2.49936e-07 0)
(-11.0292 -2.47408e-07 0)
(-11.0196 -2.44989e-07 0)
(-11.01 -2.42811e-07 0)
(-11.0006 -2.40556e-07 0)
(-10.9912 -2.38042e-07 0)
(-10.9819 -2.35982e-07 0)
(-10.9727 -2.33769e-07 0)
(-10.9637 -2.31887e-07 0)
(-10.9546 -2.29644e-07 0)
(-10.9457 -2.27872e-07 0)
(-10.9367 -2.2568e-07 0)
(-10.928 -2.23737e-07 0)
(-10.9192 -2.2114e-07 0)
(-10.9107 -2.20155e-07 0)
(-10.902 -2.1787e-07 0)
(-10.8937 -2.16002e-07 0)
(-10.8851 -2.13643e-07 0)
(-10.877 -2.12307e-07 0)
(-10.8685 -2.10145e-07 0)
(-10.8605 -2.08953e-07 0)
(-10.8521 -2.06591e-07 0)
(-10.8444 -2.05656e-07 0)
(-10.8361 -2.03788e-07 0)
(-10.8284 -2.02762e-07 0)
(-10.8202 -2.01127e-07 0)
(-10.8127 -1.99589e-07 0)
(-10.8046 -1.98306e-07 0)
(-10.7972 -1.96607e-07 0)
(-10.7892 -1.96158e-07 0)
(-10.7818 -1.93697e-07 0)
(-10.774 -1.94497e-07 0)
(-10.7666 -1.89945e-07 0)
(-10.7592 -1.94624e-07 0)
(-10.7513 -1.84099e-07 0)
(-10.7448 -1.99091e-07 0)
(-10.7357 -1.7123e-07 0)
(-10.7315 -2.13085e-07 0)
(-10.719 -1.47109e-07 0)
(-10.7201 -1.8711e-07 0)
(-10.704 -2.1082e-07 0)
)
;
    }
    symmetry
    {
        type            symmetryPlane;
    }
    frontAndBack
    {
        type            empty;
    }
}


// ************************************************************************* //
