/*--------------------------------*- C++ -*----------------------------------*\
| =========                 |                                                 |
| \\      /  F ield         | OpenFOAM: The Open Source CFD Toolbox           |
|  \\    /   O peration     | Version:  v2012                                 |
|   \\  /    A nd           | Website:  www.openfoam.com                      |
|    \\/     M anipulation  |                                                 |
\*---------------------------------------------------------------------------*/
FoamFile
{
    version     2.0;
    format      ascii;
    class       volScalarField;
    location    "28";
    object      k;
}
// * * * * * * * * * * * * * * * * * * * * * * * * * * * * * * * * * * * * * //

dimensions      [0 2 -2 0 0 0 0];


internalField   nonuniform List<scalar> 
209825
(
0.00102248
0.000929714
0.000862131
0.000814481
0.000780577
0.000755787
0.000737118
0.000722671
0.000711248
0.000702034
0.000694497
0.000688239
0.000682992
0.000678543
0.000674741
0.000671465
0.000668625
0.000666147
0.000663966
0.00066205
0.000660345
0.000658838
0.000657477
0.000656272
0.000655177
0.000654202
0.0006533
0.000652504
0.00065176
0.000651109
0.000650484
0.000649943
0.00064943
0.000648977
0.000648533
0.000648153
0.000647786
0.000647476
0.000647158
0.000646899
0.000646639
0.000646424
0.000646186
0.000646013
0.000645828
0.000645659
0.000645492
0.000645366
0.000645239
0.000645157
0.000645055
0.000644963
0.000644873
0.00064482
0.000644736
0.000644667
0.000644625
0.000644543
0.000644508
0.000644483
0.000644418
0.000644428
0.000644422
0.000644497
0.000644533
0.000644638
0.000644709
0.000644853
0.000644895
0.000645015
0.000645051
0.000645168
0.000645249
0.000645412
0.00064549
0.000645657
0.000645745
0.000645928
0.000646023
0.000646222
0.000646329
0.000646556
0.000646679
0.000646931
0.000647065
0.000647348
0.000647501
0.000647829
0.000648002
0.000648409
0.000648585
0.000649165
0.000649423
0.000659736
0.000698143
0.00176428
0.00102248
0.000929714
0.000862129
0.000814477
0.000780571
0.000755778
0.000737108
0.000722659
0.000711235
0.00070202
0.000694482
0.000688223
0.000682975
0.000678526
0.000674723
0.000671447
0.000668606
0.000666128
0.000663947
0.00066203
0.000660326
0.000658818
0.000657457
0.000656252
0.000655157
0.000654181
0.000653279
0.000652483
0.000651739
0.000651087
0.000650463
0.000649921
0.000649409
0.000648956
0.000648511
0.000648132
0.000647764
0.000647454
0.000647136
0.000646877
0.000646617
0.000646402
0.000646164
0.000645991
0.000645806
0.000645637
0.00064547
0.000645344
0.000645217
0.000645135
0.000645033
0.000644941
0.000644851
0.000644798
0.000644714
0.000644645
0.000644603
0.000644521
0.000644485
0.000644461
0.000644396
0.000644406
0.000644399
0.000644475
0.000644511
0.000644615
0.000644687
0.000644831
0.000644872
0.000644992
0.000645028
0.000645146
0.000645226
0.000645389
0.000645467
0.000645635
0.000645722
0.000645905
0.000646
0.000646199
0.000646306
0.000646534
0.000646656
0.000646908
0.000647042
0.000647325
0.000647478
0.000647806
0.000647979
0.000648386
0.000648562
0.000649142
0.0006494
0.000659733
0.000698131
0.00176532
0.00102248
0.000929714
0.00086212
0.000814458
0.000780541
0.00075574
0.000737063
0.000722609
0.000711179
0.00070196
0.000694419
0.000688157
0.000682908
0.000678456
0.000674652
0.000671374
0.000668532
0.000666052
0.00066387
0.000661952
0.000660247
0.000658738
0.000657377
0.000656171
0.000655075
0.000654099
0.000653197
0.0006524
0.000651656
0.000651004
0.000650379
0.000649837
0.000649324
0.000648871
0.000648426
0.000648046
0.000647679
0.000647368
0.00064705
0.00064679
0.00064653
0.000646315
0.000646077
0.000645904
0.000645719
0.00064555
0.000645383
0.000645257
0.00064513
0.000645047
0.000644945
0.000644853
0.000644763
0.00064471
0.000644626
0.000644557
0.000644515
0.000644433
0.000644397
0.000644373
0.000644308
0.000644317
0.000644311
0.000644386
0.000644422
0.000644526
0.000644598
0.000644742
0.000644783
0.000644903
0.000644939
0.000645056
0.000645137
0.000645299
0.000645378
0.000645545
0.000645632
0.000645816
0.00064591
0.000646109
0.000646216
0.000646443
0.000646566
0.000646818
0.000646952
0.000647234
0.000647387
0.000647715
0.000647888
0.000648295
0.000648471
0.000649051
0.000649309
0.000659681
0.000698058
0.00176737
0.00102249
0.000929713
0.000862105
0.000814425
0.000780492
0.000755676
0.000736987
0.000722523
0.000711086
0.000701861
0.000694314
0.000688047
0.000682793
0.000678338
0.000674531
0.000671251
0.000668406
0.000665924
0.000663741
0.000661821
0.000660115
0.000658605
0.000657242
0.000656035
0.000654938
0.000653962
0.000653058
0.000652261
0.000651516
0.000650863
0.000650238
0.000649695
0.000649182
0.000648728
0.000648283
0.000647903
0.000647535
0.000647224
0.000646906
0.000646646
0.000646386
0.00064617
0.000645932
0.000645759
0.000645573
0.000645404
0.000645237
0.00064511
0.000644983
0.000644901
0.000644798
0.000644706
0.000644615
0.000644563
0.000644478
0.000644409
0.000644367
0.000644285
0.000644249
0.000644225
0.00064416
0.000644169
0.000644162
0.000644237
0.000644273
0.000644377
0.000644449
0.000644592
0.000644633
0.000644753
0.000644789
0.000644906
0.000644987
0.000645149
0.000645227
0.000645395
0.000645482
0.000645665
0.000645759
0.000645958
0.000646065
0.000646292
0.000646414
0.000646666
0.000646801
0.000647083
0.000647235
0.000647563
0.000647736
0.000648142
0.000648318
0.000648898
0.000649156
0.00065959
0.000697931
0.00176975
0.00102249
0.000929712
0.000862084
0.000814378
0.000780421
0.000755586
0.00073688
0.000722403
0.000710954
0.00070172
0.000694165
0.000687892
0.000682633
0.000678173
0.000674361
0.000671077
0.000668229
0.000665745
0.000663558
0.000661637
0.000659928
0.000658416
0.000657052
0.000655844
0.000654746
0.000653768
0.000652863
0.000652064
0.000651319
0.000650665
0.000650039
0.000649496
0.000648982
0.000648527
0.000648082
0.000647701
0.000647332
0.000647021
0.000646702
0.000646442
0.000646181
0.000645965
0.000645727
0.000645553
0.000645367
0.000645198
0.00064503
0.000644904
0.000644776
0.000644693
0.000644591
0.000644498
0.000644408
0.000644355
0.00064427
0.000644201
0.000644159
0.000644077
0.00064404
0.000644016
0.000643951
0.00064396
0.000643953
0.000644027
0.000644062
0.000644166
0.000644238
0.000644382
0.000644422
0.000644542
0.000644578
0.000644695
0.000644775
0.000644937
0.000645015
0.000645182
0.00064527
0.000645452
0.000645547
0.000645745
0.000645852
0.000646079
0.000646201
0.000646453
0.000646587
0.000646868
0.000647021
0.000647348
0.000647521
0.000647927
0.000648102
0.000648682
0.000648939
0.000659459
0.000697751
0.00177245
0.0010225
0.000929711
0.000862056
0.000814318
0.00078033
0.000755468
0.000736742
0.000722247
0.000710784
0.000701537
0.000693972
0.000687691
0.000682424
0.000677958
0.000674141
0.000670852
0.000668
0.000665512
0.000663322
0.000661398
0.000659686
0.000658172
0.000656806
0.000655595
0.000654496
0.000653516
0.00065261
0.00065181
0.000651063
0.000650409
0.000649781
0.000649237
0.000648722
0.000648267
0.00064782
0.000647439
0.00064707
0.000646758
0.000646438
0.000646177
0.000645916
0.0006457
0.000645461
0.000645287
0.000645101
0.000644931
0.000644763
0.000644636
0.000644508
0.000644425
0.000644322
0.000644229
0.000644138
0.000644085
0.000644001
0.000643931
0.000643889
0.000643807
0.00064377
0.000643745
0.00064368
0.000643689
0.000643681
0.000643755
0.00064379
0.000643894
0.000643965
0.000644108
0.000644149
0.000644268
0.000644304
0.000644421
0.000644501
0.000644663
0.000644741
0.000644907
0.000644994
0.000645177
0.000645271
0.000645469
0.000645576
0.000645803
0.000645924
0.000646176
0.00064631
0.000646591
0.000646743
0.00064707
0.000647243
0.000647648
0.000647823
0.000648402
0.000648659
0.00065929
0.000697518
0.00177538
0.0010225
0.00092971
0.000862022
0.000814244
0.000780218
0.000755324
0.000736571
0.000722055
0.000710574
0.000701312
0.000693735
0.000687443
0.000682167
0.000677693
0.00067387
0.000670575
0.000667718
0.000665225
0.000663031
0.000661103
0.000659388
0.000657871
0.000656503
0.000655289
0.000654188
0.000653206
0.000652298
0.000651497
0.000650748
0.000650092
0.000649463
0.000648918
0.000648402
0.000647946
0.000647498
0.000647116
0.000646746
0.000646433
0.000646113
0.000645851
0.000645589
0.000645372
0.000645133
0.000644958
0.000644772
0.000644602
0.000644433
0.000644306
0.000644177
0.000644094
0.00064399
0.000643898
0.000643806
0.000643753
0.000643668
0.000643598
0.000643556
0.000643474
0.000643437
0.000643412
0.000643346
0.000643354
0.000643346
0.00064342
0.000643454
0.000643557
0.000643629
0.000643771
0.000643811
0.000643931
0.000643966
0.000644083
0.000644162
0.000644324
0.000644402
0.000644568
0.000644655
0.000644837
0.000644931
0.000645129
0.000645236
0.000645462
0.000645583
0.000645834
0.000645968
0.000646249
0.000646401
0.000646727
0.000646899
0.000647303
0.000647478
0.000648057
0.000648314
0.000659082
0.000697231
0.00177842
0.00102251
0.000929708
0.000861982
0.000814155
0.000780085
0.000755153
0.000736368
0.000721826
0.000710324
0.000701045
0.000693452
0.000687148
0.000681861
0.000677378
0.000673546
0.000670245
0.000667381
0.000664883
0.000662684
0.000660752
0.000659033
0.000657513
0.000656141
0.000654925
0.00065382
0.000652836
0.000651927
0.000651123
0.000650372
0.000649715
0.000649084
0.000648538
0.00064802
0.000647563
0.000647114
0.000646731
0.00064636
0.000646046
0.000645725
0.000645463
0.0006452
0.000644982
0.000644742
0.000644567
0.00064438
0.000644209
0.00064404
0.000643912
0.000643783
0.000643699
0.000643595
0.000643502
0.00064341
0.000643356
0.000643272
0.000643202
0.000643159
0.000643076
0.000643039
0.000643014
0.000642948
0.000642956
0.000642946
0.00064302
0.000643053
0.000643156
0.000643227
0.00064337
0.000643409
0.000643528
0.000643563
0.00064368
0.000643759
0.00064392
0.000643998
0.000644164
0.00064425
0.000644432
0.000644526
0.000644723
0.00064483
0.000645055
0.000645176
0.000645427
0.00064556
0.000645841
0.000645992
0.000646318
0.00064649
0.000646893
0.000647067
0.000647646
0.000647903
0.000658836
0.000696891
0.00178136
0.00102252
0.000929706
0.000861936
0.000814053
0.000779931
0.000754954
0.000736133
0.00072156
0.000710033
0.000700733
0.000693123
0.000686804
0.000681505
0.000677011
0.00067317
0.00066986
0.000666989
0.000664484
0.00066228
0.000660343
0.000658619
0.000657095
0.000655719
0.0006545
0.000653392
0.000652406
0.000651493
0.000650687
0.000649935
0.000649275
0.000648643
0.000648095
0.000647576
0.000647117
0.000646667
0.000646283
0.00064591
0.000645595
0.000645273
0.00064501
0.000644746
0.000644528
0.000644287
0.000644111
0.000643923
0.000643752
0.000643582
0.000643454
0.000643324
0.000643239
0.000643135
0.000643042
0.000642949
0.000642895
0.00064281
0.000642739
0.000642696
0.000642614
0.000642576
0.00064255
0.000642485
0.000642491
0.000642481
0.000642554
0.000642586
0.000642688
0.00064276
0.000642901
0.00064294
0.000643059
0.000643094
0.00064321
0.000643289
0.00064345
0.000643527
0.000643693
0.000643779
0.00064396
0.000644054
0.000644251
0.000644357
0.000644582
0.000644703
0.000644952
0.000645086
0.000645365
0.000645516
0.000645841
0.000646012
0.000646415
0.000646588
0.000647167
0.000647423
0.000658553
0.000696496
0.00178388
0.00102253
0.000929705
0.000861883
0.000813937
0.000779755
0.000754727
0.000735864
0.000721256
0.000709701
0.000700377
0.000692748
0.000686411
0.000681098
0.000676591
0.000672739
0.00066942
0.000666541
0.000664029
0.000661818
0.000659875
0.000658146
0.000656617
0.000655237
0.000654014
0.000652903
0.000651913
0.000650998
0.000650189
0.000649434
0.000648773
0.000648138
0.000647588
0.000647067
0.000646607
0.000646155
0.000645769
0.000645395
0.00064508
0.000644756
0.000644492
0.000644227
0.000644008
0.000643766
0.000643589
0.0006434
0.000643229
0.000643058
0.000642929
0.000642798
0.000642713
0.000642608
0.000642514
0.000642421
0.000642367
0.000642281
0.00064221
0.000642167
0.000642084
0.000642045
0.00064202
0.000641954
0.00064196
0.000641949
0.000642021
0.000642052
0.000642154
0.000642225
0.000642366
0.000642404
0.000642522
0.000642557
0.000642672
0.000642751
0.000642911
0.000642988
0.000643154
0.00064324
0.00064342
0.000643514
0.00064371
0.000643816
0.00064404
0.00064416
0.00064441
0.000644542
0.000644821
0.000644972
0.000645296
0.000645466
0.000645868
0.00064604
0.000646618
0.000646875
0.000658232
0.000696047
0.0017855
0.00102254
0.000929703
0.000861824
0.000813807
0.000779557
0.000754472
0.000735561
0.000720915
0.000709327
0.000699976
0.000692324
0.000685969
0.000680639
0.000676118
0.000672254
0.000668924
0.000666036
0.000663515
0.000661297
0.000659347
0.000657613
0.000656078
0.000654694
0.000653466
0.000652351
0.000651358
0.000650439
0.000649628
0.00064887
0.000648205
0.000647569
0.000647016
0.000646493
0.000646031
0.000645578
0.00064519
0.000644815
0.000644498
0.000644173
0.000643907
0.000643641
0.000643421
0.000643178
0.000643
0.00064281
0.000642638
0.000642467
0.000642337
0.000642205
0.000642119
0.000642014
0.00064192
0.000641826
0.00064177
0.000641685
0.000641613
0.000641569
0.000641487
0.000641447
0.000641422
0.000641356
0.00064136
0.000641348
0.000641419
0.000641449
0.00064155
0.000641621
0.000641762
0.000641799
0.000641917
0.000641951
0.000642066
0.000642144
0.000642304
0.000642381
0.000642545
0.000642631
0.000642811
0.000642904
0.0006431
0.000643205
0.000643428
0.000643548
0.000643797
0.000643929
0.000644207
0.000644357
0.00064468
0.00064485
0.00064525
0.000645421
0.000645999
0.000646256
0.000657873
0.000695543
0.0017856
0.00102256
0.000929701
0.00086176
0.000813663
0.000779338
0.000754188
0.000735224
0.000720534
0.000708911
0.00069953
0.000691853
0.000685476
0.000680128
0.000675591
0.000671713
0.000668371
0.000665472
0.000662943
0.000660716
0.000658759
0.000657018
0.000655478
0.000654088
0.000652855
0.000651736
0.000650738
0.000649816
0.000649001
0.00064824
0.000647573
0.000646934
0.000646379
0.000645853
0.000645389
0.000644934
0.000644545
0.000644167
0.000643849
0.000643522
0.000643255
0.000642987
0.000642766
0.000642522
0.000642343
0.000642152
0.000641979
0.000641807
0.000641676
0.000641543
0.000641456
0.00064135
0.000641256
0.000641161
0.000641105
0.00064102
0.000640947
0.000640903
0.000640821
0.00064078
0.000640754
0.000640688
0.000640691
0.000640677
0.000640748
0.000640776
0.000640877
0.000640948
0.000641087
0.000641123
0.000641241
0.000641274
0.000641389
0.000641467
0.000641626
0.000641702
0.000641866
0.000641952
0.000642131
0.000642224
0.000642419
0.000642524
0.000642746
0.000642866
0.000643113
0.000643245
0.000643522
0.000643672
0.000643993
0.000644163
0.000644562
0.000644731
0.000645309
0.000645566
0.000657477
0.000694983
0.00178357
0.00102257
0.0009297
0.000861689
0.000813504
0.000779096
0.000753876
0.000734853
0.000720115
0.000708451
0.000699038
0.000691332
0.000684932
0.000679563
0.000675009
0.000671116
0.000667761
0.00066485
0.00066231
0.000660074
0.000658109
0.000656361
0.000654813
0.000653418
0.00065218
0.000651055
0.000650053
0.000649127
0.000648308
0.000647544
0.000646873
0.000646231
0.000645674
0.000645146
0.000644679
0.000644222
0.00064383
0.000643451
0.000643131
0.000642803
0.000642534
0.000642265
0.000642042
0.000641797
0.000641616
0.000641425
0.000641251
0.000641077
0.000640946
0.000640812
0.000640724
0.000640617
0.000640522
0.000640427
0.00064037
0.000640284
0.000640211
0.000640166
0.000640083
0.000640042
0.000640016
0.00063995
0.000639951
0.000639936
0.000640006
0.000640032
0.000640132
0.000640203
0.000640341
0.000640376
0.000640494
0.000640527
0.000640641
0.000640718
0.000640876
0.000640952
0.000641116
0.0006412
0.000641379
0.000641471
0.000641665
0.00064177
0.000641991
0.000642111
0.000642357
0.000642489
0.000642764
0.000642913
0.000643234
0.000643402
0.0006438
0.000643968
0.000644545
0.000644803
0.000657044
0.000694366
0.0017794
0.00102259
0.000929698
0.000861612
0.000813332
0.000778833
0.000753535
0.000734448
0.000719656
0.000707949
0.000698498
0.000690762
0.000684335
0.000678945
0.000674371
0.000670461
0.000667091
0.000664168
0.000661616
0.000659371
0.000657396
0.00065564
0.000654085
0.000652683
0.000651439
0.000650309
0.000649302
0.000648371
0.000647548
0.00064678
0.000646106
0.000645461
0.0006449
0.000644369
0.0006439
0.000643441
0.000643047
0.000642665
0.000642343
0.000642013
0.000641743
0.000641472
0.000641248
0.000641001
0.000640819
0.000640627
0.000640452
0.000640277
0.000640144
0.000640009
0.00063992
0.000639812
0.000639717
0.00063962
0.000639563
0.000639476
0.000639403
0.000639357
0.000639275
0.000639232
0.000639205
0.000639139
0.000639139
0.000639123
0.000639191
0.000639216
0.000639315
0.000639385
0.000639523
0.000639557
0.000639674
0.000639706
0.00063982
0.000639896
0.000640053
0.000640129
0.000640292
0.000640376
0.000640554
0.000640646
0.000640839
0.000640943
0.000641163
0.000641282
0.000641528
0.000641658
0.000641933
0.000642081
0.0006424
0.000642568
0.000642964
0.000643131
0.000643707
0.000643966
0.000656572
0.000693692
0.00177313
0.0010226
0.000929697
0.000861529
0.000813145
0.000778548
0.000753164
0.000734007
0.000719158
0.000707402
0.000697912
0.000690142
0.000683687
0.000678271
0.000673676
0.000669748
0.000666362
0.000663425
0.000660861
0.000658604
0.00065662
0.000654854
0.000653292
0.000651882
0.000650632
0.000649496
0.000648484
0.000647548
0.00064672
0.000645948
0.00064527
0.000644621
0.000644057
0.000643523
0.000643052
0.000642589
0.000642193
0.000641809
0.000641485
0.000641153
0.00064088
0.000640608
0.000640382
0.000640134
0.00063995
0.000639756
0.00063958
0.000639404
0.00063927
0.000639134
0.000639044
0.000638935
0.000638839
0.000638741
0.000638683
0.000638596
0.000638522
0.000638475
0.000638393
0.000638349
0.000638322
0.000638256
0.000638254
0.000638236
0.000638303
0.000638326
0.000638424
0.000638494
0.000638631
0.000638663
0.00063878
0.000638811
0.000638925
0.000639
0.000639157
0.000639232
0.000639394
0.000639477
0.000639654
0.000639746
0.000639938
0.000640041
0.00064026
0.000640379
0.000640623
0.000640753
0.000641026
0.000641174
0.000641492
0.000641658
0.000642052
0.000642218
0.000642794
0.000643054
0.000656063
0.000692959
0.0017648
0.00102262
0.000929696
0.000861441
0.000812945
0.000778241
0.000752765
0.000733532
0.000718619
0.000706812
0.000697277
0.000689471
0.000682984
0.000677543
0.000672925
0.000668977
0.000665573
0.00066262
0.000660042
0.000657774
0.000655778
0.000654003
0.000652432
0.000651015
0.000649757
0.000648615
0.000647597
0.000646655
0.000645823
0.000645046
0.000644364
0.000643711
0.000643143
0.000642606
0.000642132
0.000641666
0.000641268
0.000640881
0.000640554
0.00064022
0.000639946
0.000639671
0.000639444
0.000639194
0.000639008
0.000638813
0.000638636
0.000638458
0.000638323
0.000638185
0.000638094
0.000637984
0.000637887
0.000637788
0.000637729
0.000637642
0.000637567
0.000637519
0.000637437
0.000637391
0.000637364
0.000637299
0.000637295
0.000637274
0.00063734
0.000637361
0.000637459
0.000637528
0.000637663
0.000637694
0.00063781
0.000637841
0.000637954
0.000638028
0.000638184
0.000638259
0.00063842
0.000638503
0.000638679
0.00063877
0.000638961
0.000639064
0.000639281
0.000639399
0.000639642
0.000639772
0.000640044
0.00064019
0.000640506
0.000640672
0.000641064
0.000641228
0.000641803
0.000642065
0.000655514
0.000692166
0.00175444
0.00102264
0.000929695
0.000861347
0.000812731
0.000777912
0.000752337
0.000733021
0.00071804
0.000706176
0.000696595
0.000688749
0.000682229
0.000676758
0.000672115
0.000668145
0.000664723
0.000661753
0.00065916
0.000656879
0.000654872
0.000653086
0.000651505
0.000650079
0.000648814
0.000647665
0.00064664
0.000645693
0.000644855
0.000644073
0.000643387
0.00064273
0.000642158
0.000641617
0.000641139
0.000640671
0.000640269
0.00063988
0.000639551
0.000639214
0.000638937
0.00063866
0.000638431
0.00063818
0.000637992
0.000637795
0.000637617
0.000637438
0.000637301
0.000637162
0.000637069
0.000636958
0.00063686
0.00063676
0.0006367
0.000636612
0.000636536
0.000636488
0.000636405
0.000636359
0.000636331
0.000636265
0.00063626
0.000636237
0.000636301
0.00063632
0.000636417
0.000636486
0.00063662
0.000636649
0.000636764
0.000636795
0.000636907
0.00063698
0.000637135
0.000637209
0.000637369
0.000637451
0.000637626
0.000637717
0.000637907
0.000638009
0.000638225
0.000638342
0.000638584
0.000638713
0.000638983
0.000639129
0.000639443
0.000639608
0.000639998
0.00064016
0.000640735
0.000640999
0.000654926
0.00069131
0.00174212
0.00102266
0.000929695
0.000861248
0.000812503
0.000777561
0.000751879
0.000732475
0.000717421
0.000705496
0.000695864
0.000687975
0.000681418
0.000675916
0.000671246
0.000667253
0.00066381
0.000660822
0.000658214
0.000655918
0.000653898
0.000652101
0.000650511
0.000649075
0.000647802
0.000646644
0.000645613
0.00064466
0.000643816
0.000643029
0.000642337
0.000641676
0.0006411
0.000640555
0.000640073
0.000639602
0.000639197
0.000638804
0.000638473
0.000638134
0.000637854
0.000637575
0.000637344
0.00063709
0.000636901
0.000636702
0.000636522
0.000636342
0.000636203
0.000636062
0.000635968
0.000635856
0.000635757
0.000635656
0.000635594
0.000635506
0.000635429
0.00063538
0.000635297
0.000635249
0.000635221
0.000635155
0.000635148
0.000635123
0.000635185
0.000635202
0.000635297
0.000635366
0.000635498
0.000635526
0.000635641
0.00063567
0.000635781
0.000635854
0.000636007
0.000636081
0.00063624
0.000636322
0.000636495
0.000636585
0.000636774
0.000636875
0.00063709
0.000637207
0.000637447
0.000637575
0.000637844
0.000637989
0.000638301
0.000638464
0.000638853
0.000639013
0.000639587
0.000639853
0.000654296
0.000690389
0.00172789
0.00102268
0.000929696
0.000861143
0.000812262
0.000777188
0.000751392
0.000731893
0.00071676
0.00070477
0.000695083
0.000687149
0.000680553
0.000675017
0.000670318
0.0006663
0.000662835
0.000659828
0.000657202
0.000654891
0.000652858
0.000651049
0.000649447
0.000648002
0.000646719
0.000645553
0.000644515
0.000643555
0.000642705
0.000641911
0.000641215
0.000640548
0.000639968
0.000639418
0.000638933
0.000638458
0.00063805
0.000637654
0.000637319
0.000636977
0.000636695
0.000636413
0.00063618
0.000635925
0.000635733
0.000635532
0.000635351
0.000635169
0.000635029
0.000634886
0.000634789
0.000634676
0.000634577
0.000634474
0.000634411
0.000634322
0.000634244
0.000634194
0.000634111
0.000634061
0.000634033
0.000633967
0.000633958
0.00063393
0.00063399
0.000634006
0.000634099
0.000634168
0.000634298
0.000634324
0.000634438
0.000634467
0.000634577
0.000634649
0.000634801
0.000634874
0.000635032
0.000635113
0.000635285
0.000635374
0.000635562
0.000635662
0.000635876
0.000635991
0.00063623
0.000636357
0.000636624
0.000636768
0.000637079
0.000637241
0.000637627
0.000637785
0.000638358
0.000638628
0.000653624
0.0006894
0.00171182
0.00102271
0.000929696
0.000861033
0.000812007
0.000776794
0.000750876
0.000731276
0.000716058
0.000703999
0.000694254
0.00068627
0.000679632
0.00067406
0.00066933
0.000665285
0.000661796
0.000658769
0.000656125
0.000653797
0.000651749
0.000649927
0.000648313
0.000646857
0.000645565
0.000644391
0.000643344
0.000642376
0.00064152
0.00064072
0.000640018
0.000639346
0.000638761
0.000638207
0.000637718
0.000637238
0.000636827
0.000636427
0.000636089
0.000635744
0.00063546
0.000635175
0.000634939
0.000634681
0.000634487
0.000634285
0.000634102
0.000633918
0.000633776
0.000633631
0.000633533
0.000633418
0.000633317
0.000633214
0.000633149
0.00063306
0.000632981
0.000632929
0.000632846
0.000632795
0.000632765
0.000632699
0.000632689
0.000632659
0.000632716
0.000632729
0.000632822
0.00063289
0.000633018
0.000633043
0.000633155
0.000633183
0.000633293
0.000633363
0.000633514
0.000633586
0.000633743
0.000633823
0.000633994
0.000634083
0.000634269
0.000634369
0.00063458
0.000634695
0.000634932
0.000635058
0.000635324
0.000635467
0.000635775
0.000635935
0.000636319
0.000636475
0.000637047
0.000637321
0.000652908
0.00068834
0.00169399
0.00102273
0.000929698
0.000860918
0.00081174
0.000776378
0.000750331
0.000730622
0.000715316
0.000703182
0.000693374
0.000685338
0.000678655
0.000673045
0.000668282
0.000664208
0.000660694
0.000657644
0.00065498
0.000652635
0.000650571
0.000648735
0.000647109
0.000645641
0.000644338
0.000643155
0.0006421
0.000641124
0.00064026
0.000639454
0.000638746
0.000638069
0.000637478
0.000636919
0.000636425
0.000635942
0.000635526
0.000635123
0.000634782
0.000634434
0.000634146
0.000633858
0.00063362
0.00063336
0.000633163
0.000632958
0.000632774
0.000632587
0.000632444
0.000632297
0.000632197
0.000632081
0.000631979
0.000631873
0.000631808
0.000631717
0.000631637
0.000631584
0.000631501
0.000631448
0.000631418
0.000631351
0.00063134
0.000631306
0.000631361
0.000631372
0.000631463
0.000631531
0.000631657
0.00063168
0.000631791
0.000631818
0.000631927
0.000631996
0.000632145
0.000632217
0.000632372
0.000632452
0.000632621
0.000632709
0.000632894
0.000632993
0.000633203
0.000633316
0.000633552
0.000633677
0.00063394
0.000634082
0.000634388
0.000634547
0.000634929
0.000635083
0.000635654
0.000635931
0.000652144
0.000687205
0.00167449
0.00102276
0.0009297
0.000860799
0.000811459
0.00077594
0.000749757
0.000729934
0.000714531
0.000702318
0.000692444
0.000684352
0.000677621
0.000671971
0.000667172
0.000663067
0.000659526
0.000656452
0.000653768
0.000651404
0.000649324
0.000647472
0.000645833
0.000644353
0.000643039
0.000641845
0.000640781
0.000639797
0.000638926
0.000638112
0.000637397
0.000636714
0.000636118
0.000635554
0.000635055
0.000634568
0.000634148
0.00063374
0.000633396
0.000633044
0.000632753
0.000632462
0.000632221
0.000631959
0.000631759
0.000631552
0.000631366
0.000631177
0.000631031
0.000630882
0.00063078
0.000630662
0.000630559
0.000630452
0.000630385
0.000630293
0.000630212
0.000630158
0.000630075
0.000630019
0.000629989
0.000629922
0.000629909
0.000629872
0.000629925
0.000629933
0.000630023
0.000630089
0.000630213
0.000630234
0.000630344
0.00063037
0.000630478
0.000630546
0.000630694
0.000630765
0.000630919
0.000630997
0.000631165
0.000631252
0.000631436
0.000631533
0.000631741
0.000631854
0.000632088
0.000632212
0.000632473
0.000632614
0.000632917
0.000633075
0.000633454
0.000633606
0.000634176
0.000634458
0.000651331
0.00068599
0.0016534
0.00102278
0.000929704
0.000860675
0.000811166
0.000775482
0.000749154
0.000729209
0.000713706
0.000701409
0.000691464
0.000683313
0.000676531
0.000670837
0.000666001
0.000661863
0.000658293
0.000655194
0.000652487
0.000650104
0.000648005
0.000646138
0.000644484
0.000642992
0.000641666
0.000640461
0.000639387
0.000638395
0.000637515
0.000636694
0.000635972
0.000635283
0.00063468
0.00063411
0.000633607
0.000633115
0.00063269
0.000632279
0.00063193
0.000631575
0.00063128
0.000630986
0.000630742
0.000630477
0.000630274
0.000630064
0.000629876
0.000629685
0.000629538
0.000629386
0.000629282
0.000629162
0.000629058
0.000628949
0.00062888
0.000628787
0.000628705
0.00062865
0.000628566
0.000628509
0.000628478
0.00062841
0.000628395
0.000628356
0.000628405
0.000628411
0.000628499
0.000628565
0.000628686
0.000628705
0.000628814
0.000628839
0.000628946
0.000629013
0.000629159
0.000629229
0.000629381
0.000629459
0.000629625
0.000629711
0.000629893
0.00062999
0.000630196
0.000630307
0.000630539
0.000630662
0.000630922
0.000631061
0.000631362
0.000631518
0.000631894
0.000632043
0.000632612
0.000632901
0.000650465
0.000684689
0.00163082
0.00102281
0.000929708
0.000860547
0.00081086
0.000775003
0.000748522
0.000728449
0.000712839
0.000700453
0.000690434
0.000682219
0.000675384
0.000669644
0.000664767
0.000660595
0.000656995
0.000653869
0.000651138
0.000648733
0.000646616
0.000644732
0.000643063
0.000641556
0.000640218
0.000639002
0.000637918
0.000636916
0.000636027
0.000635198
0.000634469
0.000633772
0.000633164
0.000632588
0.000632079
0.000631582
0.000631153
0.000630736
0.000630383
0.000630024
0.000629726
0.000629428
0.000629182
0.000628913
0.000628708
0.000628495
0.000628305
0.000628112
0.000627962
0.000627807
0.000627701
0.00062758
0.000627474
0.000627362
0.000627292
0.000627198
0.000627115
0.000627058
0.000626974
0.000626914
0.000626882
0.000626814
0.000626798
0.000626755
0.000626801
0.000626805
0.000626891
0.000626956
0.000627074
0.000627092
0.000627199
0.000627223
0.000627329
0.000627394
0.000627538
0.000627608
0.000627759
0.000627835
0.000628
0.000628085
0.000628265
0.000628361
0.000628565
0.000628675
0.000628905
0.000629027
0.000629284
0.000629422
0.00062972
0.000629875
0.000630248
0.000630394
0.000630962
0.000631257
0.000649542
0.000683296
0.00160684
0.00102284
0.000929713
0.000860415
0.000810543
0.000774503
0.000747861
0.000727654
0.000711931
0.000699451
0.000689352
0.000681071
0.000674179
0.00066839
0.000663471
0.000659262
0.00065563
0.000652475
0.000649719
0.000647292
0.000645155
0.000643253
0.000641567
0.000640046
0.000638695
0.000637467
0.000636371
0.000635359
0.000634461
0.000633624
0.000632886
0.000632183
0.000631567
0.000630985
0.000630471
0.000629968
0.000629534
0.000629113
0.000628756
0.000628392
0.00062809
0.000627788
0.000627539
0.000627267
0.000627058
0.000626843
0.000626651
0.000626454
0.000626302
0.000626145
0.000626036
0.000625913
0.000625805
0.000625692
0.00062562
0.000625525
0.00062544
0.000625381
0.000625297
0.000625235
0.000625203
0.000625134
0.000625116
0.00062507
0.000625112
0.000625114
0.000625198
0.000625262
0.000625377
0.000625393
0.000625499
0.000625521
0.000625626
0.00062569
0.000625832
0.0006259
0.00062605
0.000626125
0.000626288
0.000626372
0.00062655
0.000626645
0.000626847
0.000626956
0.000627183
0.000627305
0.000627559
0.000627696
0.000627991
0.000628144
0.000628515
0.000628658
0.000629224
0.000629526
0.000648552
0.000681808
0.00158158
0.00102287
0.00092972
0.000860279
0.000810214
0.000773983
0.000747173
0.000726823
0.000710981
0.000698403
0.000688221
0.000679869
0.000672916
0.000667076
0.000662112
0.000657865
0.000654198
0.000651013
0.000648231
0.00064578
0.000643621
0.0006417
0.000639997
0.000638461
0.000637095
0.000635854
0.000634747
0.000633724
0.000632817
0.00063197
0.000631225
0.000630513
0.000629891
0.000629301
0.000628781
0.000628273
0.000627834
0.000627407
0.000627045
0.000626678
0.000626372
0.000626066
0.000625812
0.000625537
0.000625325
0.000625107
0.000624912
0.000624713
0.000624558
0.000624398
0.000624287
0.000624161
0.000624052
0.000623937
0.000623863
0.000623766