/*--------------------------------*- C++ -*----------------------------------*\
| =========                 |                                                 |
| \\      /  F ield         | OpenFOAM: The Open Source CFD Toolbox           |
|  \\    /   O peration     | Version:  v2012                                 |
|   \\  /    A nd           | Website:  www.openfoam.com                      |
|    \\/     M anipulation  |                                                 |
\*---------------------------------------------------------------------------*/
FoamFile
{
    version     2.0;
    format      ascii;
    class       volScalarField;
    location    "28";
    object      omega;
}
// * * * * * * * * * * * * * * * * * * * * * * * * * * * * * * * * * * * * * //

dimensions      [0 0 -1 0 0 0 0];


internalField   nonuniform List<scalar> 
209825
(
8256.5
7558.26
7017.29
6614.15
6314.8
6089.63
5916.15
5779.97
5670.5
5581.48
5507.55
5445.88
5393.36
5348.76
5310
5276.66
5247.18
5221.61
5198.64
5178.59
5160.34
5144.36
5129.6
5116.66
5104.58
5094
5083.96
5075.19
5066.79
5059.49
5052.37
5046.24
5040.18
5035
5029.81
5025.45
5020.96
5017.22
5013.34
5010.2
5006.82
5004.06
5001.21
4998.87
4996.28
4994.27
4992.03
4990.38
4988.5
4987.11
4985.59
4984.31
4982.8
4981.77
4980.64
4979.58
4978.63
4977.84
4977.26
4976.66
4976.02
4975.51
4975.18
4974.6
4974.16
4973.95
4973.76
4973.63
4973.35
4973.18
4972.74
4972.82
4972.79
4973.1
4973.09
4973.64
4973.64
4974.36
4974.36
4975.29
4975.29
4976.28
4976.48
4977.55
4977.89
4979.03
4979.45
4980.74
4981.18
4982.73
4983.08
4985.31
4985.89
5020.56
5151
113866
8256.5
7558.26
7017.28
6614.13
6314.76
6089.57
5916.08
5779.89
5670.41
5581.38
5507.44
5445.76
5393.23
5348.63
5309.87
5276.53
5247.04
5221.46
5198.5
5178.45
5160.19
5144.21
5129.45
5116.5
5104.42
5093.84
5083.8
5075.03
5066.63
5059.33
5052.21
5046.08
5040.01
5034.83
5029.64
5025.28
5020.79
5017.05
5013.17
5010.03
5006.65
5003.88
5001.03
4998.69
4996.11
4994.09
4991.86
4990.21
4988.33
4986.94
4985.41
4984.14
4982.63
4981.59
4980.46
4979.4
4978.45
4977.67
4977.09
4976.48
4975.84
4975.33
4975
4974.43
4973.98
4973.77
4973.59
4973.45
4973.17
4973
4972.56
4972.64
4972.61
4972.92
4972.92
4973.46
4973.46
4974.18
4974.18
4975.11
4975.11
4976.09
4976.3
4977.37
4977.71
4978.85
4979.27
4980.56
4981
4982.54
4982.9
4985.13
4985.71
5020.44
5150.85
110569
8256.51
7558.27
7017.26
6614.05
6314.62
6089.37
5915.83
5779.6
5670.09
5581.03
5507.06
5445.37
5392.82
5348.2
5309.42
5276.07
5246.58
5220.99
5198.01
5177.95
5159.69
5143.7
5128.93
5115.99
5103.9
5093.31
5083.27
5074.49
5066.09
5058.78
5051.66
5045.53
5039.46
5034.27
5029.08
5024.72
5020.23
5016.49
5012.61
5009.46
5006.08
5003.32
5000.46
4998.12
4995.54
4993.52
4991.28
4989.63
4987.75
4986.36
4984.84
4983.56
4982.05
4981.01
4979.88
4978.82
4977.87
4977.08
4976.5
4975.9
4975.26
4974.75
4974.41
4973.84
4973.39
4973.18
4973
4972.86
4972.58
4972.41
4971.97
4972.05
4972.02
4972.32
4972.32
4972.87
4972.87
4973.58
4973.58
4974.51
4974.51
4975.5
4975.71
4976.77
4977.11
4978.25
4978.67
4979.96
4980.4
4981.94
4982.3
4984.53
4985.1
5019.97
5150.29
106784
8256.52
7558.28
7017.21
6613.9
6314.37
6089.03
5915.41
5779.11
5669.54
5580.43
5506.42
5444.69
5392.11
5347.46
5308.66
5275.28
5245.77
5220.17
5197.17
5177.1
5158.83
5142.83
5128.05
5115.09
5103
5092.41
5082.36
5073.57
5065.16
5057.85
5050.73
5044.59
5038.51
5033.33
5028.13
5023.76
5019.27
5015.52
5011.64
5008.49
5005.11
5002.34
4999.49
4997.15
4994.56
4992.54
4990.3
4988.65
4986.77
4985.37
4983.85
4982.57
4981.06
4980.02
4978.88
4977.82
4976.87
4976.08
4975.5
4974.9
4974.26
4973.75
4973.41
4972.84
4972.39
4972.17
4971.99
4971.85
4971.58
4971.4
4970.96
4971.04
4971.01
4971.31
4971.31
4971.85
4971.85
4972.56
4972.56
4973.49
4973.49
4974.47
4974.68
4975.75
4976.08
4977.22
4977.65
4978.93
4979.37
4980.91
4981.27
4983.49
4984.07
5019.15
5149.33
102892
8256.54
7558.3
7017.14
6613.69
6314.01
6088.54
5914.8
5778.4
5668.75
5579.57
5505.5
5443.71
5391.09
5346.41
5307.57
5274.16
5244.63
5219
5195.98
5175.89
5157.6
5141.59
5126.79
5113.83
5101.72
5091.12
5081.06
5072.26
5063.85
5056.53
5049.39
5043.25
5037.17
5031.97
5026.77
5022.4
5017.9
5014.15
5010.27
5007.11
5003.73
5000.96
4998.1
4995.75
4993.16
4991.14
4988.9
4987.24
4985.36
4983.96
4982.44
4981.16
4979.64
4978.6
4977.46
4976.4
4975.45
4974.66
4974.08
4973.47
4972.83
4972.32
4971.98
4971.41
4970.96
4970.74
4970.55
4970.42
4970.14
4969.96
4969.52
4969.6
4969.57
4969.86
4969.86
4970.4
4970.4
4971.11
4971.11
4972.04
4972.04
4973.02
4973.23
4974.29
4974.62
4975.76
4976.18
4977.47
4977.91
4979.44
4979.8
4982.03
4982.6
5017.96
5147.96
98998.3
8256.56
7558.32
7017.05
6613.42
6313.55
6087.9
5914.01
5777.48
5667.72
5578.45
5504.3
5442.45
5389.77
5345.03
5306.15
5272.7
5243.13
5217.47
5194.43
5174.32
5156
5139.97
5125.16
5112.17
5100.05
5089.43
5079.36
5070.56
5062.13
5054.8
5047.66
5041.5
5035.41
5030.21
5025
5020.63
5016.12
5012.37
5008.48
5005.32
5001.93
4999.15
4996.29
4993.94
4991.34
4989.32
4987.07
4985.41
4983.53
4982.12
4980.59
4979.31
4977.8
4976.75
4975.61
4974.55
4973.6
4972.8
4972.22
4971.61
4970.97
4970.45
4970.11
4969.54
4969.09
4968.87
4968.68
4968.54
4968.26
4968.09
4967.65
4967.72
4967.68
4967.98
4967.98
4968.52
4968.51
4969.22
4969.22
4970.14
4970.14
4971.12
4971.32
4972.39
4972.72
4973.85
4974.27
4975.56
4976
4977.53
4977.88
4980.11
4980.68
5016.41
5146.18
95141.7
8256.59
7558.35
7016.94
6613.09
6312.98
6087.12
5913.04
5776.35
5666.45
5577.06
5502.81
5440.88
5388.12
5343.33
5304.39
5270.9
5241.28
5215.58
5192.51
5172.36
5154.02
5137.97
5123.13
5110.12
5097.98
5087.35
5077.26
5068.44
5060
5052.66
5045.5
5039.34
5033.24
5028.03
5022.81
5018.43
5013.92
5010.15
5006.25
5003.09
4999.69
4996.91
4994.04
4991.69
4989.09
4987.06
4984.81
4983.15
4981.26
4979.85
4978.32
4977.03
4975.51
4974.47
4973.33
4972.26
4971.3
4970.51
4969.92
4969.31
4968.66
4968.14
4967.8
4967.23
4966.77
4966.55
4966.36
4966.22
4965.94
4965.77
4965.32
4965.39
4965.35
4965.64
4965.64
4966.18
4966.17
4966.87
4966.87
4967.79
4967.79
4968.77
4968.97
4970.03
4970.36
4971.49
4971.91
4973.19
4973.63
4975.16
4975.51
4977.74
4978.31
5014.5
5143.97
91341.7
8256.62
7558.39
7016.81
6612.69
6312.3
6086.18
5911.87
5774.99
5664.93
5575.41
5501.04
5439.01
5386.16
5341.29
5302.29
5268.74
5239.07
5213.33
5190.21
5170.03
5151.66
5135.57
5120.7
5107.67
5095.51
5084.86
5074.75
5065.91
5057.45
5050.1
5042.93
5036.75
5030.64
5025.42
5020.19
5015.8
5011.28
5007.5
5003.6
5000.43
4997.02
4994.23
4991.36
4989
4986.4
4984.36
4982.1
4980.43
4978.54
4977.13
4975.59
4974.3
4972.78
4971.73
4970.59
4969.52
4968.56
4967.76
4967.16
4966.55
4965.9
4965.38
4965.03
4964.46
4964.01
4963.78
4963.59
4963.45
4963.17
4962.99
4962.55
4962.61
4962.57
4962.85
4962.85
4963.38
4963.38
4964.07
4964.07
4964.98
4964.98
4965.96
4966.15
4967.21
4967.54
4968.67
4969.09
4970.36
4970.8
4972.33
4972.68
4974.9
4975.47
5012.21
5141.34
87607
8256.66
7558.43
7016.65
6612.23
6311.51
6085.08
5910.51
5773.41
5663.16
5573.48
5498.97
5436.82
5383.88
5338.92
5299.84
5266.22
5236.49
5210.69
5187.53
5167.31
5148.89
5132.77
5117.87
5104.82
5092.62
5081.95
5071.82
5062.96
5054.48
5047.11
5039.93
5033.74
5027.61
5022.37
5017.13
5012.73
5008.2
5004.41
5000.5
4997.32
4993.9
4991.11
4988.23
4985.86
4983.25
4981.21
4978.95
4977.27
4975.37
4973.95
4972.41
4971.12
4969.59
4968.54
4967.39
4966.32
4965.35
4964.55
4963.95
4963.34
4962.68
4962.16
4961.81
4961.24
4960.77
4960.55
4960.35
4960.21
4959.93
4959.75
4959.31
4959.36
4959.31
4959.59
4959.59
4960.11
4960.11
4960.8
4960.8
4961.7
4961.7
4962.67
4962.87
4963.92
4964.24
4965.37
4965.79
4967.06
4967.49
4969.02
4969.36
4971.59
4972.16
5009.55
5138.27
83940.2
8256.71
7558.48
7016.48
6611.71
6310.61
6083.83
5908.96
5771.6
5661.14
5571.27
5496.61
5434.32
5381.26
5336.2
5297.03
5263.33
5233.54
5207.68
5184.46
5164.19
5145.73
5129.57
5114.63
5101.54
5089.32
5078.62
5068.46
5059.58
5051.08
5043.69
5036.48
5030.28
5024.13
5018.88
5013.63
5009.21
5004.67
5000.87
4996.95
4993.75
4990.33
4987.53
4984.64
4982.26
4979.64
4977.6
4975.33
4973.64
4971.74
4970.31
4968.76
4967.47
4965.94
4964.88
4963.72
4962.65
4961.68
4960.87
4960.26
4959.65
4958.99
4958.47
4958.11
4957.54
4957.07
4956.84
4956.64
4956.5
4956.21
4956.03
4955.59
4955.64
4955.59
4955.86
4955.86
4956.37
4956.37
4957.04
4957.05
4957.94
4957.94
4958.91
4959.1
4960.15
4960.47
4961.59
4962
4963.27
4963.7
4965.23
4965.57
4967.79
4968.36
5006.51
5134.77
80339.7
8256.75
7558.53
7016.29
6611.12
6309.6
6082.43
5907.21
5769.56
5658.85
5568.78
5493.94
5431.5
5378.31
5333.13
5293.86
5260.08
5230.2
5204.27
5180.99
5160.66
5142.15
5125.95
5110.97
5097.84
5085.59
5074.85
5064.66
5055.76
5047.23
5039.82
5032.59
5026.37
5020.21
5014.94
5009.67
5005.24
5000.68
4996.87
4992.93
4989.73
4986.3
4983.48
4980.58
4978.2
4975.57
4973.51
4971.24
4969.55
4967.63
4966.2
4964.65
4963.35
4961.81
4960.74
4959.58
4958.51
4957.53
4956.71
4956.1
4955.48
4954.82
4954.29
4953.93
4953.36
4952.89
4952.65
4952.45
4952.3
4952.02
4951.84
4951.39
4951.43
4951.37
4951.64
4951.64
4952.14
4952.14
4952.81
4952.81
4953.69
4953.69
4954.66
4954.84
4955.89
4956.2
4957.32
4957.73
4959
4959.42
4960.94
4961.28
4963.5
4964.07
5003.08
5130.83
76799.7
8256.81
7558.6
7016.08
6610.47
6308.47
6080.87
5905.27
5767.3
5656.31
5566.01
5490.97
5428.36
5375.02
5329.71
5290.33
5256.45
5226.48
5200.48
5177.12
5156.73
5138.17
5121.91
5106.89
5093.72
5081.42
5070.65
5060.43
5051.5
5042.94
5035.5
5028.25
5022.01
5015.82
5010.54
5005.25
5000.8
4996.22
4992.4
4988.45
4985.23
4981.79
4978.96
4976.05
4973.66
4971.02
4968.96
4966.67
4964.97
4963.05
4961.61
4960.04
4958.74
4957.2
4956.12
4954.96
4953.88
4952.89
4952.07
4951.45
4950.83
4950.16
4949.63
4949.26
4948.69
4948.21
4947.98
4947.76
4947.62
4947.33
4947.15
4946.7
4946.73
4946.67
4946.92
4946.92
4947.41
4947.41
4948.07
4948.07
4948.95
4948.95
4949.91
4950.08
4951.13
4951.43
4952.56
4952.96
4954.22
4954.64
4956.15
4956.49
4958.71
4959.27
4999.27
5126.44
73315
8256.87
7558.67
7015.85
6609.75
6307.23
6079.14
5903.13
5764.8
5653.51
5562.94
5487.68
5424.88
5371.38
5325.93
5286.42
5252.43
5222.37
5196.28
5172.84
5152.38
5133.75
5117.44
5102.37
5089.15
5076.81
5066
5055.74
5046.78
5038.19
5030.73
5023.45
5017.18
5010.97
5005.67
5000.36
4995.89
4991.3
4987.46
4983.49
4980.26
4976.8
4973.96
4971.04
4968.63
4965.99
4963.91
4961.61
4959.91
4957.97
4956.53
4954.95
4953.64
4952.09
4951.01
4949.84
4948.75
4947.76
4946.94
4946.31
4945.68
4945.01
4944.47
4944.1
4943.52
4943.04
4942.8
4942.58
4942.43
4942.14
4941.96
4941.51
4941.53
4941.46
4941.7
4941.7
4942.18
4942.18
4942.83
4942.83
4943.7
4943.7
4944.65
4944.82
4945.86
4946.16
4947.28
4947.67
4948.93
4949.35
4950.85
4951.18
4953.4
4953.97
4995.06
5121.6
69892.1
8256.93
7558.74
7015.6
6608.98
6305.88
6077.27
5900.79
5762.06
5650.44
5559.59
5484.08
5421.08
5367.39
5321.79
5282.14
5248.03
5217.85
5191.67
5168.15
5147.61
5128.91
5112.54
5097.41
5084.14
5071.75
5060.9
5050.6
5041.6
5032.98
5025.48
5018.18
5011.88
5005.65
5000.32
4994.99
4990.5
4985.88
4982.03
4978.04
4974.8
4971.33
4968.47
4965.53
4963.12
4960.46
4958.37
4956.06
4954.34
4952.4
4950.94
4949.36
4948.05
4946.49
4945.39
4944.22
4943.13
4942.13
4941.29
4940.66
4940.03
4939.35
4938.8
4938.42
4937.85
4937.36
4937.11
4936.88
4936.74
4936.44
4936.25
4935.82
4935.82
4935.74
4935.97
4935.97
4936.44
4936.44
4937.07
4937.08
4937.93
4937.93
4938.87
4939.04
4940.07
4940.37
4941.48
4941.87
4943.12
4943.53
4945.03
4945.36
4947.58
4948.14
4990.46
5116.3
66537.2
8257
7558.83
7015.33
6608.14
6304.42
6075.23
5898.24
5759.09
5647.1
5555.94
5480.17
5416.93
5363.05
5317.27
5277.47
5243.23
5212.94
5186.65
5163.03
5142.42
5123.64
5107.19
5092
5078.68
5066.23
5055.34
5044.99
5035.95
5027.29
5019.77
5012.42
5006.1
4999.84
4994.49
4989.13
4984.62
4979.98
4976.11
4972.1
4968.84
4965.35
4962.49
4959.53
4957.1
4954.43
4952.33
4950.01
4948.28
4946.32
4944.86
4943.26
4941.94
4940.37
4939.27
4938.09
4936.99
4935.98
4935.14
4934.49
4933.86
4933.17
4932.62
4932.23
4931.66
4931.16
4930.91
4930.67
4930.52
4930.22
4930.04
4929.6
4929.59
4929.49
4929.72
4929.72
4930.17
4930.17
4930.8
4930.8
4931.64
4931.64
4932.57
4932.73
4933.76
4934.05
4935.15
4935.54
4936.78
4937.19
4938.69
4939
4941.22
4941.79
4985.44
5110.53
63255.7
8257.07
7558.92
7015.05
6607.23
6302.85
6073.03
5895.5
5755.87
5643.48
5551.99
5475.93
5412.45
5358.35
5312.38
5272.42
5238.03
5207.61
5181.21
5157.49
5136.78
5117.92
5101.4
5086.14
5072.75
5060.25
5049.31
5038.92
5029.83
5021.13
5013.57
5006.19
4999.83
4993.54
4988.16
4982.78
4978.24
4973.58
4969.69
4965.66
4962.38
4958.87
4955.99
4953.01
4950.57
4947.89
4945.78
4943.44
4941.7
4939.73
4938.25
4936.65
4935.32
4933.74
4932.63
4931.44
4930.33
4929.31
4928.46
4927.8
4927.16
4926.47
4925.91
4925.52
4924.94
4924.44
4924.18
4923.94
4923.78
4923.47
4923.29
4922.86
4922.84
4922.72
4922.94
4922.94
4923.37
4923.38
4923.98
4923.99
4924.81
4924.81
4925.74
4925.89
4926.91
4927.19
4928.29
4928.67
4929.91
4930.31
4931.8
4932.11
4934.33
4934.9
4980.01
5104.29
60053
8257.15
7559.02
7014.75
6606.27
6301.16
6070.67
5892.55
5752.42
5639.6
5547.74
5471.37
5407.62
5353.28
5307.12
5266.97
5232.43
5201.87
5175.34
5151.51
5130.71
5111.75
5095.16
5079.82
5066.37
5053.8
5042.8
5032.36
5023.23
5014.48
5006.88
4999.46
4993.07
4986.74
4981.34
4975.92
4971.36
4966.68
4962.76
4958.71
4955.41
4951.88
4948.98
4945.99
4943.53
4940.83
4938.7
4936.35
4934.6
4932.62
4931.12
4929.51
4928.17
4926.58
4925.46
4924.26
4923.14
4922.12
4921.26
4920.59
4919.94
4919.24
4918.67
4918.27
4917.7
4917.18
4916.91
4916.66
4916.5
4916.19
4916.01
4915.58
4915.55
4915.42
4915.62
4915.62
4916.04
4916.04
4916.63
4916.63
4917.44
4917.45
4918.36
4918.5
4919.52
4919.79
4920.88
4921.25
4922.48
4922.88
4924.36
4924.67
4926.89
4927.46
4974.16
5097.57
56933.9
8257.23
7559.12
7014.43
6605.25
6299.37
6068.15
5889.39
5748.72
5635.44
5543.19
5466.48
5402.44
5347.85
5301.47
5261.13
5226.42
5195.71
5169.05
5145.1
5124.18
5105.13
5088.45
5073.03
5059.51
5046.88
5035.81
5025.31
5016.13
5007.34
4999.69
4992.23
4985.81
4979.44
4974
4968.56
4963.97
4959.26
4955.32
4951.24
4947.92
4944.37
4941.45
4938.43
4935.96
4933.24
4931.1
4928.74
4926.96
4924.97
4923.46
4921.83
4920.48
4918.89
4917.75
4916.54
4915.42
4914.38
4913.51
4912.83
4912.18
4911.47
4910.89
4910.48
4909.9
4909.38
4909.11
4908.84
4908.68
4908.37
4908.18
4907.75
4907.71
4907.56
4907.76
4907.75
4908.15
4908.15
4908.73
4908.73
4909.53
4909.53
4910.43
4910.56
4911.57
4911.84
4912.92
4913.29
4914.51
4914.9
4916.37
4916.67
4918.89
4919.46
4967.88
5090.36
53902.8
8257.32
7559.24
7014.1
6604.17
6297.46
6065.47
5886.03
5744.78
5631.01
5538.33
5461.26
5396.91
5342.05
5295.43
5254.89
5219.99
5189.12
5162.31
5138.24
5117.21
5098.05
5081.27
5065.77
5052.17
5039.47
5028.34
5017.78
5008.54
4999.69
4992
4984.5
4978.03
4971.63
4966.16
4960.67
4956.05
4951.32
4947.35
4943.25
4939.9
4936.33
4933.39
4930.35
4927.86
4925.12
4922.97
4920.58
4918.79
4916.78
4915.26
4913.62
4912.26
4910.65
4909.5
4908.28
4907.15
4906.1
4905.22
4904.52
4903.86
4903.15
4902.56
4902.14
4901.56
4901.03
4900.75
4900.47
4900.31
4899.99
4899.8
4899.37
4899.32
4899.15
4899.33
4899.32
4899.71
4899.71
4900.27
4900.27
4901.05
4901.05
4901.94
4902.07
4903.07
4903.32
4904.4
4904.75
4905.97
4906.35
4907.82
4908.1
4910.33
4910.9
4961.15
5082.66
50964
8257.41
7559.37
7013.75
6603.03
6295.45
6062.64
5882.47
5740.6
5626.29
5533.17
5455.7
5391.02
5335.87
5289
5248.24
5213.15
5182.1
5155.14
5130.93
5109.77
5090.51
5073.63
5058.03
5044.35
5031.57
5020.37
5009.74
5000.45
4991.54
4983.8
4976.25
4969.74
4963.3
4957.79
4952.27
4947.62
4942.84
4938.85
4934.72
4931.35
4927.75
4924.79
4921.72
4919.22
4916.46
4914.29
4911.88
4910.08
4908.05
4906.51
4904.85
4903.48
4901.87
4900.7
4899.47
4898.33
4897.27
4896.37
4895.66
4894.99
4894.27
4893.68
4893.24
4892.66
4892.12
4891.83
4891.54
4891.37
4891.05
4890.85
4890.43
4890.36
4890.18
4890.35
4890.33
4890.7
4890.7
4891.24
4891.24
4892
4892
4892.89
4893
4893.99
4894.23
4895.3
4895.65
4896.85
4897.23
4898.69
4898.96
4901.19
4901.77
4953.98
5074.44
48121.1
8257.51
7559.5
7013.39
6601.83
6293.33
6059.64
5878.71
5736.17
5621.3
5527.69
5449.82
5384.78
5329.32
5282.18
5241.18
5205.88
5174.65
5147.53
5123.16
5101.88
5082.49
5065.5
5049.8
5036.03
5023.17
5011.9
5001.2
4991.84
4982.88
4975.08
4967.48
4960.93
4954.44
4948.89
4943.33
4938.64
4933.84
4929.81
4925.65
4922.25
4918.63
4915.64
4912.55
4910.03
4907.25
4905.05
4902.63
4900.81
4898.76
4897.21
4895.53
4894.15
4892.52
4891.34
4890.09
4888.94
4887.87
4886.96
4886.24
4885.56
4884.83
4884.22
4883.78
4883.19
4882.64
4882.34
4882.04
4881.87
4881.53
4881.34
4880.91
4880.84
4880.64
4880.79
4880.77
4881.12
4881.12
4881.64
4881.64
4882.38
4882.38
4883.25
4883.35
4884.33
4884.56
4885.63
4885.96
4887.16
4887.53
4888.97
4889.24
4891.47
4892.06
4946.33
5065.7
45377.6
8257.61
7559.65
7013.02
6600.58
6291.1
6056.49
5874.74
5731.5
5616.03
5521.91
5443.59
5378.18
5322.39
5274.96
5233.7
5198.19
5166.76
5139.46
5114.94
5093.51
5073.99
5056.89
5041.09
5027.22
5014.27
5002.92
4992.15
4982.72
4973.7
4965.84
4958.19
4951.58
4945.05
4939.45
4933.85
4929.13
4924.29
4920.23
4916.03
4912.61
4908.96
4905.94
4902.83
4900.28
4897.48
4895.26
4892.82
4890.98
4888.91
4887.34
4885.64
4884.25
4882.61
4881.41
4880.15
4878.99
4877.9
4876.98
4876.24
4875.55
4874.81
4874.19
4873.74
4873.15
4872.59
4872.27
4871.97
4871.79
4871.44
4871.25
4870.82
4870.73
4870.51
4870.66
4870.63
4870.95
4870.95
4871.45
4871.45
4872.17
4872.17
4873.03
4873.12
4874.09
4874.31
4875.36
4875.69
4876.87
4877.24
4878.67
4878.93
4881.15
4881.76
4938.2
5056.42
42736.6
8257.71
7559.8
7012.64
6599.28
6288.76
6053.18
5870.57
5726.59
5610.48
5515.82
5437.03
5371.21
5315.07
5267.35
5225.82
5190.06
5158.42
5130.94
5106.25
5084.67
5065.02
5047.79
5031.88
5017.91
5004.86
4993.43
4982.58
4973.08
4963.99
4956.07
4948.36
4941.7
4935.11
4929.47
4923.83
4919.07
4914.18
4910.1
4905.86
4902.4
4898.72
4895.68
4892.54
4889.97
4887.14
4884.91
4882.44
4880.58
4878.49
4876.9
4875.18
4873.77
4872.12
4870.9
4869.63
4868.46
4867.35
4866.42
4865.66
4864.97
4864.21
4863.58
4863.11
4862.52
4861.95
4861.62
4861.3
4861.12
4860.77
4860.57
4860.14
4860.04
4859.8
4859.93
4859.89
4860.2
4860.2
4860.68
4860.68
4861.37
4861.37
4862.21
4862.29
4863.25
4863.46
4864.5
4864.82
4865.99
4866.35
4867.77
4868.01
4870.24
4870.86
4929.58
5046.6
40200.8
8257.81
7559.96
7012.25
6597.92
6286.33
6049.72
5866.19
5721.43
5604.65
5509.41
5430.13
5363.89
5307.38
5259.32
5217.51
5181.51
5149.64
5121.96
5097.09
5075.35
5055.55
5038.2
5022.16
5008.09
4994.94
4983.42
4972.48
4962.91
4953.74
4945.76
4937.99
4931.27
4924.63
4918.95
4913.25
4908.45
4903.53
4899.4
4895.13
4891.64
4887.93
4884.86
4881.68
4879.09
4876.23
4873.98
4871.49
4869.6
4867.49
4865.88
4864.14
4862.72
4861.05
4859.82
4858.53
4857.34
4856.22
4855.28
4854.5
4853.79
4853.03
4852.39
4851.9
4851.31
4850.72
4850.38
4850.05
4849.86
4849.5
4849.29
4848.86
4848.76
4848.5
4848.61
4848.56
4848.85
4848.85
4849.3
4849.3
4849.97
4849.96
4850.79
4850.86
4851.81
4852
4853.04
4853.34
4854.5
4854.85
4856.26
4856.49
4858.72
4859.35
4920.45
5036.2
37772.5
8257.92
7560.13
7011.85
6596.52
6283.79
6046.11
5861.62
5716.03
5598.54
5502.69
5422.89
5356.19
5299.29
5250.9
5208.78
5172.51
5140.41
5112.52
5087.46
5065.56
5045.6
5028.11
5011.95
4997.76
4984.5
4972.88
4961.86
4952.21
4942.96
4934.92
4927.07
4920.3
4913.6
4907.87
4902.12
4897.27
4892.3
4888.14
4883.83
4880.3
4876.56
4873.46
4870.25
4867.63
4864.75
4862.47
4859.95
4858.04
4855.91
4854.28
4852.52
4851.08
4849.39
4848.14
4846.83
4845.64
4844.5
4843.54
4842.74
4842.02
4841.24
4840.59
4840.09
4839.49
4838.89
4838.54
4838.19
4837.99
4837.63
4837.42
4836.98
4836.87
4836.6
4836.69
4836.63
4836.89
4836.89
4837.32
4837.31
4837.96
4837.95
4838.76
4838.82
4839.75
4839.94
4840.96
4841.25
4842.4
4842.74
4844.14
4844.36
4846.58
4847.23
4910.77
5025.24
35453.8
8258.03
7560.32
7011.44
6595.07
6281.16
6042.34
5856.85
5710.39
5592.15
5495.66
5415.31
5348.14
5290.82
5242.06
5199.63
5163.08
5130.72
5102.61
5077.35
5055.27
5035.15
5017.52
5001.22
4986.91
4973.54
4961.82
4950.7
4940.97
4931.64
4923.52
4915.6
4908.77
4902.01
4896.22
4890.42
4885.53
4880.51
4876.31
4871.96
4868.39
4864.61
4861.48
4858.24
4855.58
4852.68
4850.37
4847.83
4845.89
4843.74
4842.08
4840.3
4838.84
4837.13
4835.86
4834.54
4833.33
4832.18
4831.2
4830.38
4829.65
4828.85
4828.19
4827.67
4827.07
4826.45
4826.1
4825.73
4825.52
4825.14
4824.93
4824.49
4824.37
4824.08
4824.16
4824.09
4824.32
4824.32
4824.72
4824.72
4825.33
4825.33
4826.12
4826.16
4827.08
4827.25
4828.26
4828.54
4829.68
4830.01
4831.39
4831.6
4833.83
4834.49
4900.5
5013.69
33246.5
8258.15
7560.51
7011.03
6593.57
6278.43
6038.43
5851.88
5704.51
5585.48
5488.32
5407.38
5339.71
5281.96
5232.82
5190.05
5153.2
5120.58
5092.24
5066.76
5044.5
5024.2
5006.42
4989.97
4975.54
4962.05
4950.23
4939
4929.18
4919.76
4911.57
4903.58
4896.68
4889.86
4884.01
4878.16
4873.21
4868.15
4863.9
4859.5
4855.9
4852.08
4848.91
4845.63
4842.95
4840.01
4837.68
4835.11
4833.15
4830.97
4829.28
4827.48
4826
4824.28
4822.99
4821.64
4820.42
4819.25
4818.25
4817.41
4816.66
4815.86
4815.18
4814.64
4814.04
4813.41
4813.04
4812.65
4812.44
4812.05
4811.83
4811.39
4811.26
4810.95
4811.01
4810.92
4811.14
4811.13
4811.5
4811.5
4812.08
4812.08
4812.85
4812.88
4813.79
4813.94
4814.94
4815.2
4816.33
4816.64
4818.01
4818.21
4820.44
4821.12
4889.62
5001.54
31151.9
8258.26
7560.71
7010.61
6592.03
6275.61
6034.38
5846.72
5698.39
5578.53
5480.67
5399.12
5330.92
5272.7
5223.17
5180.04
5142.89
5109.99
5081.4
5055.7
5033.23
5012.76
4994.81
4978.21
4963.65
4950.03
4938.09
4926.76
4916.85
4907.34
4899.06
4891
4884.03
4877.14
4871.23
4865.31
4860.31
4855.2
4850.9
4846.46
4842.82
4838.96
4835.76
4832.44
4829.72
4826.75
4824.39
4821.79
4819.8
4817.59
4815.88
4814.05
4812.56
4810.81
4809.5
4808.13
4806.9
4805.7
4804.69
4803.82
4803.07
4802.24
4801.55
4800.99
4800.38
4799.74
4799.36
4798.95
4798.73
4798.33
4798.11
4797.66
4797.52
4797.2
4797.24
4797.14
4797.33
4797.31
4797.65
4797.65
4798.2
4798.2
4798.94
4798.97
4799.86
4800
4800.98
4801.23
4802.34
4802.65
4804
4804.19
4806.41
4807.12
4878.07
4988.75
29171.5
8258.38
7560.93
7010.19
6590.45
6272.7
6030.18
5841.37
5692.03
5571.31
5472.71
5390.52
5321.77
5263.06
5213.11
5169.6
5132.12
5098.93
5070.08
5044.14
5021.47
5000.8
4982.68
4965.93
4951.22
4937.47
4925.42
4913.98
4903.96
4894.36
4886
4877.85
4870.81
4863.84
4857.87
4851.89
4846.84
4841.67
4837.32
4832.83
4829.14
4825.24
4822
4818.64
4815.89
4812.89
4810.5
4807.87
4805.85
4803.61
4801.87
4800.01
4798.5
4796.73
4795.4
4794.01
4792.76
4791.54
4790.51
4789.62
4788.85
4788.01
4787.3
4786.72
4786.11
4785.44
4785.05
4784.63
4784.39
4783.98
4783.76
4783.3
4783.15
4782.82
4782.84
4782.72
4782.88
4782.86
4783.17
4783.17
4783.69
4783.69
4784.4
4784.42
4785.29
4785.42
4786.38
4786.62
4787.71
4788.01
4789.35
4789.52
4791.74
4792.47
4865.81
4975.28
27306.3
8258.5
7561.15
7009.77
6588.83
6269.7
6025.85
5835.84
5685.45
5563.82
5464.44
5381.58
5312.24
5253.03
5202.63
5158.74
5120.91
5087.41
5058.29
5032.1
5009.21
4988.34
4970.04
4953.12
4938.27
4924.38
4912.2
4900.64
4890.52
4880.81
4872.36
4864.12
4857.01
4849.97
4843.93
4837.88
4832.77
4827.54
4823.15
4818.6
4814.87
4810.92
4807.64
4804.24
4801.46
4798.42
4795.99
4793.33
4791.28
4789.01
4787.25
4785.35
4783.82
4782.03
4780.67
4779.26
4777.99
4776.75
4775.71
4774.79
4774
4773.14
4772.42
4771.82
4771.2
4770.52
4770.11
4769.67
4769.42
4769
4768.77
4768.3
4768.14
4767.81
4767.8
4767.66
4767.8
4767.77
4768.05
4768.05
4768.54
4768.53
4769.22
4769.23
4770.08
4770.19
4771.14
4771.36
4772.44
4772.72
4774.04
4774.2
4776.42
4777.17
4852.78
4961.08
25557.2
8258.62
7561.39
7009.34
6587.18
6266.62
6021.38
5830.11
5678.63
5556.06
5455.87
5372.3
5302.36
5242.61
5191.75
5147.44
5109.26
5075.43
5046.02
5019.58
4996.45
4975.37
4956.88
4939.79
4924.78
4910.74
4898.43
4886.75
4876.52
4866.7
4858.16
4849.83
4842.63
4835.51
4829.4
4823.29
4818.11
4812.82
4808.38
4803.78
4799.99
4796
4792.68
4789.23
4786.41
4783.33
4780.88
4778.17
4776.09
4773.79
4772
4770.07
4768.52
4766.7
4765.32
4763.89
4762.6
4761.34
4760.27
4759.32
4758.52
4757.64
4756.9
4756.28
4755.65
4754.96
4754.53
4754.07
4753.81
4753.37
4753.14
4752.67
4752.5
4752.15
4752.12
4751.96
4752.08
4752.03
4752.29
4752.28
4752.73
4752.73
4753.38
4753.39
4754.22
4754.31
4755.24
4755.44
4756.51
4756.78
4758.08
4758.23
4760.44
4761.22
4838.94
4946.12
23925.1
8258.74
7561.63
7008.92
6585.49
6263.46
6016.78
5824.21
5671.59
5548.03
5446.99
5362.68
5292.11
5231.81
5180.46
5135.72
5097.16
5062.99
5033.28
5006.56
4983.2
4961.89
4943.21
4925.93
4910.75
4896.56
4884.11
4872.3
4861.95
4852.03
4843.38
4834.96
4827.67
4820.47
4814.29
4808.1
4802.86
4797.5
4793
4788.34
4784.51
4780.46
4777.1
4773.6
4770.75
4767.63
4765.14
4762.4
4760.28
4757.95
4756.12
4754.16
4752.58
4750.75
4749.34
4747.88
4746.57
4745.28
4744.19
4743.22
4742.4
4741.5
4740.75
4740.1
4739.46
4738.75
4738.31
4737.82
4737.56
4737.1
4736.86
4736.38
4736.2
4735.85
4735.8
4735.61
4735.71
4735.65
4735.87
4735.86
4736.28
4736.27
4736.89
4736.89
4737.69
4737.77
4738.69
4738.87
4739.92
4740.17
4741.46
4741.59
4743.8
4744.6
4824.23
4930.35
22407.7
8258.86
7561.89
7008.5
6583.78
6260.23
6012.06
5818.14
5664.33
5539.74
5437.81
5352.74
5281.5
5220.61
5168.76
5123.57
5084.61
5050.08
5020.06
4993.06
4969.44
4947.9
4929.01
4911.54
4896.19
4881.83
4869.24
4857.29
4846.82
4836.78
4828.03
4819.5
4812.13
4804.84
4798.58
4792.31
4787.01
4781.58
4777.02
4772.3
4768.41
4764.32
4760.91
4757.36
4754.46
4751.3
4748.77
4746
4743.84
4741.47
4739.62
4737.62
4736.02
4734.16
4732.72
4731.23
4729.9
4728.59
4727.48
4726.47
4725.63
4724.72
4723.94
4723.27
4722.63
4721.89
4721.44
4720.93
4720.65
4720.18
4719.93
4719.44
4719.25
4718.89
4718.82
4718.61
4718.69
4718.61
4718.8
4718.78
4719.16
4719.16
4719.74
4719.74
4720.51
4720.57
4721.47
4721.64
4722.67
4722.91
4724.17
4724.29
4726.5
4727.32
4808.66
4913.73
21000.2
8258.98
7562.16
7008.09
6582.05
6256.92
6007.22
5811.89
5656.86
5531.2
5428.34
5342.47
5270.53
5209.04
5156.65
5110.99
5071.62
5036.72
5006.37
4979.06
4955.18
4933.39
4914.28
4896.61
4881.08
4866.56
4853.82
4841.72
4831.13
4820.96
4812.1
4803.47
4796
4788.62
4782.28
4775.93
4770.55
4765.06
4760.43
4755.65
4751.71
4747.55
4744.09
4740.5
4737.56
4734.35
4731.78
4728.96
4726.77
4724.37
4722.48
4720.45
4718.81
4716.92
4715.46
4713.94
4712.6
4711.25
4710.12
4709.08
4708.22
4707.29
4706.49
4705.8
4705.14
4704.39
4703.91
4703.38
4703.09
4702.6
4702.34
4701.84
4701.64
4701.27
4701.18
4700.95
4701
4700.91
4701.08
4701.04
4701.38
4701.38
4701.92
4701.92
4702.66
4702.71
4703.58
4703.73
4704.74
4704.97
4706.21
4706.31
4708.52
4709.36
4792.21
4896.23
19697.7
8259.11
7562.44
7007.68
6580.29
6253.56
6002.26
5805.48
5649.17
5522.4
5418.58
5331.87
5259.21
5197.08
5144.14
5097.99
5058.18
5022.89
4992.2
4964.58
4940.42
4918.38
4899.04
4881.15
4865.44
4850.74
4837.84
4825.59
4814.86
4804.56
4795.6
4786.85
4779.29
4771.8
4765.38
4758.94
4753.49
4747.92
4743.23
4738.39
4734.38
4730.17
4726.66
4723.01
4720.02
4716.77
4714.16
4711.3
4709.07
4706.62
4704.7
4702.63
4700.97
4699.05
4697.55
4696.01
4694.64
4693.27
4692.11
4691.04
4690.16
4689.2
4688.39
4687.66
4687
4686.22
4685.73
4685.18
4684.87
4684.37
4684.1
4683.58
4683.37
4682.99
4682.88
4682.63
4682.66
4682.55
4682.68
4682.64
4682.94
4682.93
4683.43
4683.43
4684.14
4684.17
4685.03
4685.16
4686.15
4686.35
4687.57
4687.66
4689.86
4690.72
4774.88
4877.79
18495.1
8259.23
7562.73
7007.28
6578.51
6250.13
5997.19
5798.91
5641.27
5513.35
5408.53
5320.95
5247.54
5184.75
5131.23
5084.56
5044.3
5008.61
4977.55
4949.61
4925.16
4902.85
4883.27
4865.17
4849.25
4834.36
4821.3
4808.9
4798.03
4787.59
4778.51
4769.64
4761.98
4754.39
4747.88
4741.36
4735.82
4730.18
4725.42
4720.5
4716.44
4712.16
4708.6
4704.89
4701.86
4698.56
4695.91
4693
4690.73
4688.24
4686.28
4684.17
4682.48
4680.53
4679
4677.42
4676.03
4674.63
4673.45
4672.35
4671.45
4670.46
4669.63
4668.87
4668.2
4667.4
4666.89
4666.31
4665.99
4665.46
4665.19
4664.66
4664.44
4664.04
4663.92
4663.65
4663.65
4663.51
4663.62
4663.56
4663.83
4663.82
4664.27
4664.27
4664.94
4664.97
4665.79
4665.9
4666.87
4667.06
4668.25
4668.33
4670.52
4671.4
4756.64
4858.39
17386.8
8259.35
7563.03
7006.88
6576.72
6246.64
5992.02
5792.19
5633.18
5504.05
5398.21
5309.72
5235.53
5172.04
5117.92
5070.72
5029.99
4993.87
4962.44
4934.15
4909.4
4886.81
4866.98
4848.65
4832.53
4817.44
4804.2
4791.64
4780.62
4770.05
4760.84
4751.85
4744.08
4736.39
4729.78
4723.16
4717.55
4711.82
4706.99
4702
4697.87
4693.53
4689.92
4686.15
4683.06
4679.71
4677.02
4674.06
4671.75
4669.22
4667.21
4665.07
4663.34
4661.36
4659.8
4658.19
4656.77
4655.34
4654.14
4653
4652.07
4651.06
4650.21
4649.42
4648.73
4647.91
4647.39
4646.78
4646.44
4645.9
4645.61
4645.07
4644.83
4644.42
4644.29
4644
4643.97
4643.81
4643.9
4643.82
4644.04
4644.03
4644.44
4644.43
4645.07
4645.08
4645.88
4645.97
4646.91
4647.09
4648.25
4648.32
4650.5
4651.39
4737.5
4837.98
16367.4
8259.46
7563.33
7006.5
6574.92
6243.11
5986.75
5785.32
5624.89
5494.53
5387.6
5298.18
5223.17
5158.97
5104.22
5056.46
5015.24
4978.67
4946.85
4918.21
4893.14
4870.26
4850.18
4831.6
4815.26
4799.98
4786.56
4773.82
4762.65
4751.93
4742.58
4733.47
4725.59
4717.79
4711.08
4704.37
4698.67
4692.85
4687.95
4682.88
4678.68
4674.28
4670.6
4666.77
4663.63
4660.23
4657.49
4654.49
4652.13
4649.55
4647.51
4645.31
4643.56
4641.54
4639.95
4638.3
4636.86
4635.4
4634.16
4632.99
4632.04
4631
4630.13
4629.31
4628.6
4627.76
4627.21
4626.58
4626.22
4625.66
4625.36
4624.8
4624.56
4624.13
4623.98
4623.68
4623.62
4623.44
4623.49
4623.4
4623.59
4623.56
4623.93
4623.92
4624.51
4624.51
4625.28
4625.35
4626.27
4626.43
4627.57
4627.62
4629.8
4630.68
4717.44
4816.54
15430.9
8259.58
7563.65
7006.13
6573.11
6239.53
5981.39
5778.31
5616.42
5484.77
5376.73
5286.33
5210.48
5145.53
5090.13
5041.79
5000.05
4963.03
4930.8
4901.79
4876.39
4853.2
4832.85
4814.02
4797.46
4781.96
4768.35
4755.43
4744.11
4733.23
4723.75
4714.51
4706.5
4698.59
4691.78
4684.96
4679.17
4673.27
4668.29
4663.14
4658.87
4654.4
4650.66
4646.76
4643.57
4640.11
4637.32
4634.27
4631.86
4629.24
4627.15
4624.91
4623.12
4621.07
4619.44
4617.76
4616.29