/*--------------------------------*- C++ -*----------------------------------*\
| =========                 |                                                 |
| \\      /  F ield         | OpenFOAM: The Open Source CFD Toolbox           |
|  \\    /   O peration     | Version:  v2012                                 |
|   \\  /    A nd           | Website:  www.openfoam.com                      |
|    \\/     M anipulation  |                                                 |
\*---------------------------------------------------------------------------*/
FoamFile
{
    version     2.0;
    format      ascii;
    class       volVectorField;
    location    "28";
    object      wallShearStress;
}
// * * * * * * * * * * * * * * * * * * * * * * * * * * * * * * * * * * * * * //

dimensions      [0 2 -2 0 0 0 0];


internalField   uniform (0 0 0);

boundaryField
{
    inlet
    {
        type            calculated;
        value           uniform (0 0 0);
    }
    outlet
    {
        type            calculated;
        value           uniform (0 0 0);
    }
    topWall
    {
        type            calculated;
        value           nonuniform List<vector> 
545
(
(5.89463e-08 -4.14794e-08 0)
(5.89561e-08 -1.16123e-07 0)
(5.88897e-08 -1.93693e-07 0)
(5.88131e-08 -2.68979e-07 0)
(5.87317e-08 -3.41028e-07 0)
(5.86373e-08 -4.10768e-07 0)
(5.85306e-08 -4.78792e-07 0)
(5.8412e-08 -5.45069e-07 0)
(5.82825e-08 -6.0945e-07 0)
(5.81432e-08 -6.71935e-07 0)
(5.79949e-08 -7.32604e-07 0)
(5.78386e-08 -7.91528e-07 0)
(5.7675e-08 -8.48747e-07 0)
(5.7505e-08 -9.04296e-07 0)
(5.73292e-08 -9.58214e-07 0)
(5.71483e-08 -1.01055e-06 0)
(5.6963e-08 -1.06134e-06 0)
(5.6774e-08 -1.11063e-06 0)
(5.65816e-08 -1.15845e-06 0)
(5.63866e-08 -1.20486e-06 0)
(5.61892e-08 -1.24988e-06 0)
(5.59901e-08 -1.29357e-06 0)
(5.57896e-08 -1.33595e-06 0)
(5.55881e-08 -1.37706e-06 0)
(5.5386e-08 -1.41695e-06 0)
(5.51836e-08 -1.45564e-06 0)
(5.49812e-08 -1.49317e-06 0)
(5.47791e-08 -1.52958e-06 0)
(5.45776e-08 -1.5649e-06 0)
(5.43769e-08 -1.59916e-06 0)
(5.41771e-08 -1.6324e-06 0)
(5.39787e-08 -1.66464e-06 0)
(5.37816e-08 -1.69591e-06 0)
(5.35861e-08 -1.72625e-06 0)
(5.33923e-08 -1.75568e-06 0)
(5.32004e-08 -1.78423e-06 0)
(5.30104e-08 -1.81193e-06 0)
(5.28225e-08 -1.83881e-06 0)
(5.26369e-08 -1.86488e-06 0)
(5.24535e-08 -1.89018e-06 0)
(5.22724e-08 -1.91472e-06 0)
(5.20938e-08 -1.93853e-06 0)
(5.19176e-08 -1.96164e-06 0)
(5.17439e-08 -1.98406e-06 0)
(5.15728e-08 -2.00582e-06 0)
(5.14043e-08 -2.02694e-06 0)
(5.12384e-08 -2.04743e-06 0)
(5.10751e-08 -2.06732e-06 0)
(5.09145e-08 -2.08662e-06 0)
(5.07565e-08 -2.10535e-06 0)
(5.06012e-08 -2.12354e-06 0)
(5.04485e-08 -2.14119e-06 0)
(5.02985e-08 -2.15832e-06 0)
(5.01511e-08 -2.17495e-06 0)
(5.00063e-08 -2.1911e-06 0)
(4.98641e-08 -2.20677e-06 0)
(4.97245e-08 -2.22199e-06 0)
(4.95875e-08 -2.23677e-06 0)
(4.9453e-08 -2.25112e-06 0)
(4.9321e-08 -2.26505e-06 0)
(4.91915e-08 -2.27858e-06 0)
(4.90645e-08 -2.29172e-06 0)
(4.89398e-08 -2.30448e-06 0)
(4.88175e-08 -2.31687e-06 0)
(4.86975e-08 -2.3289e-06 0)
(4.85799e-08 -2.34059e-06 0)
(4.84645e-08 -2.35194e-06 0)
(4.83513e-08 -2.36297e-06 0)
(4.82404e-08 -2.37368e-06 0)
(4.81313e-08 -2.38408e-06 0)
(4.80253e-08 -2.3942e-06 0)
(4.79173e-08 -2.404e-06 0)
(4.78139e-08 -2.41343e-06 0)
(4.77195e-08 -2.42259e-06 0)
(4.76257e-08 -2.43163e-06 0)
(4.75321e-08 -2.44061e-06 0)
(4.74386e-08 -2.44956e-06 0)
(4.73453e-08 -2.45846e-06 0)
(4.72521e-08 -2.46729e-06 0)
(4.71589e-08 -2.47606e-06 0)
(4.70659e-08 -2.48478e-06 0)
(4.6973e-08 -2.49343e-06 0)
(4.68802e-08 -2.50203e-06 0)
(4.67876e-08 -2.51058e-06 0)
(4.6695e-08 -2.51907e-06 0)
(4.66026e-08 -2.5275e-06 0)
(4.65103e-08 -2.53588e-06 0)
(4.64181e-08 -2.5442e-06 0)
(4.63261e-08 -2.55247e-06 0)
(4.62342e-08 -2.56069e-06 0)
(4.61425e-08 -2.56885e-06 0)
(4.60508e-08 -2.57696e-06 0)
(4.59597e-08 -2.58502e-06 0)
(4.58668e-08 -2.59299e-06 0)
(4.57821e-08 -2.60102e-06 0)
(4.56636e-08 -2.60881e-06 0)
(4.55411e-08 -2.61586e-06 0)
(4.54626e-08 -2.62247e-06 0)
(4.53884e-08 -2.6288e-06 0)
(4.53152e-08 -2.63506e-06 0)
(4.52418e-08 -2.64145e-06 0)
(4.51682e-08 -2.64786e-06 0)
(4.50943e-08 -2.65426e-06 0)
(4.50201e-08 -2.66066e-06 0)
(4.49455e-08 -2.66705e-06 0)
(4.48706e-08 -2.67346e-06 0)
(4.47953e-08 -2.67987e-06 0)
(4.47198e-08 -2.68628e-06 0)
(4.46439e-08 -2.6927e-06 0)
(4.45677e-08 -2.69912e-06 0)
(4.44911e-08 -2.70555e-06 0)
(4.44142e-08 -2.71198e-06 0)
(4.43369e-08 -2.71841e-06 0)
(4.42594e-08 -2.72485e-06 0)
(4.41814e-08 -2.73129e-06 0)
(4.41032e-08 -2.73774e-06 0)
(4.40246e-08 -2.74419e-06 0)
(4.39457e-08 -2.75064e-06 0)
(4.38664e-08 -2.7571e-06 0)
(4.37867e-08 -2.76356e-06 0)
(4.37068e-08 -2.77002e-06 0)
(4.36265e-08 -2.77649e-06 0)
(4.35458e-08 -2.78296e-06 0)
(4.34648e-08 -2.78943e-06 0)
(4.33835e-08 -2.79591e-06 0)
(4.33018e-08 -2.80239e-06 0)
(4.32197e-08 -2.80887e-06 0)
(4.31373e-08 -2.81536e-06 0)
(4.30546e-08 -2.82185e-06 0)
(4.29715e-08 -2.82834e-06 0)
(4.28881e-08 -2.83483e-06 0)
(4.28043e-08 -2.84133e-06 0)
(4.27201e-08 -2.84783e-06 0)
(4.26357e-08 -2.85433e-06 0)
(4.25508e-08 -2.86084e-06 0)
(4.24656e-08 -2.86734e-06 0)
(4.238e-08 -2.87385e-06 0)
(4.22941e-08 -2.88036e-06 0)
(4.22079e-08 -2.88688e-06 0)
(4.21213e-08 -2.89339e-06 0)
(4.20343e-08 -2.89991e-06 0)
(4.19469e-08 -2.90643e-06 0)
(4.18593e-08 -2.91295e-06 0)
(4.17712e-08 -2.91947e-06 0)
(4.16828e-08 -2.926e-06 0)
(4.1594e-08 -2.93252e-06 0)
(4.15049e-08 -2.93905e-06 0)
(4.14154e-08 -2.94558e-06 0)
(4.13256e-08 -2.95211e-06 0)
(4.12354e-08 -2.95864e-06 0)
(4.11448e-08 -2.96517e-06 0)
(4.10539e-08 -2.9717e-06 0)
(4.09626e-08 -2.97823e-06 0)
(4.08709e-08 -2.98477e-06 0)
(4.07789e-08 -2.9913e-06 0)
(4.06865e-08 -2.99784e-06 0)
(4.05937e-08 -3.00438e-06 0)
(4.05006e-08 -3.01091e-06 0)
(4.04072e-08 -3.01745e-06 0)
(4.03133e-08 -3.02399e-06 0)
(4.02191e-08 -3.03052e-06 0)
(4.01245e-08 -3.03706e-06 0)
(4.00296e-08 -3.0436e-06 0)
(3.99343e-08 -3.05014e-06 0)
(3.98386e-08 -3.05667e-06 0)
(3.97426e-08 -3.06321e-06 0)
(3.96462e-08 -3.06974e-06 0)
(3.95494e-08 -3.07628e-06 0)
(3.94522e-08 -3.08282e-06 0)
(3.93547e-08 -3.08935e-06 0)
(3.92568e-08 -3.09588e-06 0)
(3.91586e-08 -3.10242e-06 0)
(3.906e-08 -3.10895e-06 0)
(3.8961e-08 -3.11548e-06 0)
(3.88617e-08 -3.12201e-06 0)
(3.87619e-08 -3.12853e-06 0)
(3.86618e-08 -3.13506e-06 0)
(3.85614e-08 -3.14159e-06 0)
(3.84606e-08 -3.14811e-06 0)
(3.83594e-08 -3.15463e-06 0)
(3.82578e-08 -3.16115e-06 0)
(3.81559e-08 -3.16767e-06 0)
(3.80536e-08 -3.17418e-06 0)
(3.79509e-08 -3.1807e-06 0)
(3.78479e-08 -3.18721e-06 0)
(3.77445e-08 -3.19371e-06 0)
(3.76407e-08 -3.20022e-06 0)
(3.75365e-08 -3.20672e-06 0)
(3.7432e-08 -3.21322e-06 0)
(3.73271e-08 -3.21972e-06 0)
(3.72219e-08 -3.22622e-06 0)
(3.71163e-08 -3.23271e-06 0)
(3.70103e-08 -3.2392e-06 0)
(3.69039e-08 -3.24568e-06 0)
(3.67972e-08 -3.25216e-06 0)
(3.66901e-08 -3.25864e-06 0)
(3.65827e-08 -3.26511e-06 0)
(3.64748e-08 -3.27158e-06 0)
(3.63667e-08 -3.27805e-06 0)
(3.62581e-08 -3.28451e-06 0)
(3.61492e-08 -3.29097e-06 0)
(3.60399e-08 -3.29743e-06 0)
(3.59303e-08 -3.30387e-06 0)
(3.58203e-08 -3.31032e-06 0)
(3.57099e-08 -3.31676e-06 0)
(3.55991e-08 -3.3232e-06 0)
(3.5488e-08 -3.32963e-06 0)
(3.53766e-08 -3.33605e-06 0)
(3.52648e-08 -3.34247e-06 0)
(3.51526e-08 -3.34889e-06 0)
(3.504e-08 -3.3553e-06 0)
(3.49271e-08 -3.3617e-06 0)
(3.48139e-08 -3.3681e-06 0)
(3.47002e-08 -3.37449e-06 0)
(3.45863e-08 -3.38088e-06 0)
(3.44719e-08 -3.38726e-06 0)
(3.43572e-08 -3.39364e-06 0)
(3.42422e-08 -3.4e-06 0)
(3.41268e-08 -3.40637e-06 0)
(3.4011e-08 -3.41272e-06 0)
(3.38949e-08 -3.41907e-06 0)
(3.37785e-08 -3.42541e-06 0)
(3.36616e-08 -3.43175e-06 0)
(3.35445e-08 -3.43807e-06 0)
(3.3427e-08 -3.44439e-06 0)
(3.33091e-08 -3.45071e-06 0)
(3.31909e-08 -3.45701e-06 0)
(3.30724e-08 -3.46331e-06 0)
(3.29534e-08 -3.4696e-06 0)
(3.28342e-08 -3.47588e-06 0)
(3.27146e-08 -3.48216e-06 0)
(3.25947e-08 -3.48842e-06 0)
(3.24744e-08 -3.49468e-06 0)
(3.23538e-08 -3.50093e-06 0)
(3.22328e-08 -3.50717e-06 0)
(3.21116e-08 -3.5134e-06 0)
(3.19899e-08 -3.51962e-06 0)
(3.1868e-08 -3.52584e-06 0)
(3.17457e-08 -3.53204e-06 0)
(3.16231e-08 -3.53824e-06 0)
(3.15001e-08 -3.54442e-06 0)
(3.13768e-08 -3.5506e-06 0)
(3.12532e-08 -3.55677e-06 0)
(3.11293e-08 -3.56292e-06 0)
(3.1005e-08 -3.56907e-06 0)
(3.08804e-08 -3.57521e-06 0)
(3.07555e-08 -3.58133e-06 0)
(3.06303e-08 -3.58745e-06 0)
(3.05047e-08 -3.59355e-06 0)
(3.03789e-08 -3.59965e-06 0)
(3.02527e-08 -3.60573e-06 0)
(3.01262e-08 -3.6118e-06 0)
(2.99994e-08 -3.61786e-06 0)
(2.98723e-08 -3.62391e-06 0)
(2.97449e-08 -3.62995e-06 0)
(2.96171e-08 -3.63598e-06 0)
(2.94891e-08 -3.64199e-06 0)
(2.93608e-08 -3.64799e-06 0)
(2.92321e-08 -3.65398e-06 0)
(2.91032e-08 -3.65996e-06 0)
(2.89739e-08 -3.66592e-06 0)
(2.88444e-08 -3.67188e-06 0)
(2.87146e-08 -3.67782e-06 0)
(2.85845e-08 -3.68375e-06 0)
(2.8454e-08 -3.68966e-06 0)
(2.83236e-08 -3.69557e-06 0)
(2.81918e-08 -3.70142e-06 0)
(2.80653e-08 -3.70739e-06 0)
(2.79194e-08 -3.71314e-06 0)
(2.77658e-08 -3.71857e-06 0)
(2.76411e-08 -3.72398e-06 0)
(2.75254e-08 -3.7292e-06 0)
(2.74084e-08 -3.73438e-06 0)
(2.72906e-08 -3.73967e-06 0)
(2.71715e-08 -3.74502e-06 0)
(2.70511e-08 -3.7504e-06 0)
(2.69293e-08 -3.75581e-06 0)
(2.68062e-08 -3.76124e-06 0)
(2.66817e-08 -3.76671e-06 0)
(2.65558e-08 -3.77222e-06 0)
(2.64285e-08 -3.77775e-06 0)
(2.62998e-08 -3.78333e-06 0)
(2.61697e-08 -3.78893e-06 0)
(2.60382e-08 -3.79457e-06 0)
(2.59053e-08 -3.80024e-06 0)
(2.57709e-08 -3.80594e-06 0)
(2.56351e-08 -3.81167e-06 0)
(2.54978e-08 -3.81744e-06 0)
(2.53591e-08 -3.82323e-06 0)
(2.52189e-08 -3.82906e-06 0)
(2.50772e-08 -3.83491e-06 0)
(2.4934e-08 -3.8408e-06 0)
(2.47893e-08 -3.84672e-06 0)
(2.46431e-08 -3.85267e-06 0)
(2.44954e-08 -3.85864e-06 0)
(2.43461e-08 -3.86464e-06 0)
(2.41954e-08 -3.87067e-06 0)
(2.4043e-08 -3.87673e-06 0)
(2.38891e-08 -3.88282e-06 0)
(2.37337e-08 -3.88893e-06 0)
(2.35767e-08 -3.89507e-06 0)
(2.34181e-08 -3.90123e-06 0)
(2.32579e-08 -3.90742e-06 0)
(2.30961e-08 -3.91363e-06 0)
(2.29328e-08 -3.91987e-06 0)
(2.27678e-08 -3.92612e-06 0)
(2.26012e-08 -3.9324e-06 0)
(2.2433e-08 -3.93871e-06 0)
(2.22632e-08 -3.94503e-06 0)
(2.20917e-08 -3.95137e-06 0)
(2.19186e-08 -3.95773e-06 0)
(2.17439e-08 -3.96411e-06 0)
(2.15675e-08 -3.9705e-06 0)
(2.13894e-08 -3.97692e-06 0)
(2.12098e-08 -3.98335e-06 0)
(2.10284e-08 -3.98979e-06 0)
(2.08454e-08 -3.99625e-06 0)
(2.06608e-08 -4.00272e-06 0)
(2.04744e-08 -4.0092e-06 0)
(2.02864e-08 -4.01569e-06 0)
(2.00968e-08 -4.02219e-06 0)
(1.99055e-08 -4.0287e-06 0)
(1.97125e-08 -4.03522e-06 0)
(1.95178e-08 -4.04175e-06 0)
(1.93215e-08 -4.04827e-06 0)
(1.91235e-08 -4.05481e-06 0)
(1.89239e-08 -4.06134e-06 0)
(1.87226e-08 -4.06788e-06 0)
(1.85196e-08 -4.07442e-06 0)
(1.8315e-08 -4.08095e-06 0)
(1.81088e-08 -4.08748e-06 0)
(1.79009e-08 -4.09401e-06 0)
(1.76914e-08 -4.10054e-06 0)
(1.74802e-08 -4.10705e-06 0)
(1.72675e-08 -4.11356e-06 0)
(1.70531e-08 -4.12006e-06 0)
(1.68371e-08 -4.12654e-06 0)
(1.66196e-08 -4.13301e-06 0)
(1.64005e-08 -4.13947e-06 0)
(1.61798e-08 -4.14591e-06 0)
(1.59576e-08 -4.15233e-06 0)
(1.57338e-08 -4.15873e-06 0)
(1.55085e-08 -4.1651e-06 0)
(1.52817e-08 -4.17146e-06 0)
(1.50534e-08 -4.17778e-06 0)
(1.48237e-08 -4.18409e-06 0)
(1.45925e-08 -4.19035e-06 0)
(1.43599e-08 -4.19659e-06 0)
(1.41259e-08 -4.20279e-06 0)
(1.38905e-08 -4.20896e-06 0)
(1.36537e-08 -4.21509e-06 0)
(1.34157e-08 -4.22118e-06 0)
(1.31763e-08 -4.22722e-06 0)
(1.29356e-08 -4.23323e-06 0)
(1.26937e-08 -4.23918e-06 0)
(1.24505e-08 -4.24508e-06 0)
(1.22062e-08 -4.25093e-06 0)
(1.19607e-08 -4.25673e-06 0)
(1.17141e-08 -4.26247e-06 0)
(1.14664e-08 -4.26816e-06 0)
(1.12177e-08 -4.27378e-06 0)
(1.0968e-08 -4.27934e-06 0)
(1.07172e-08 -4.28482e-06 0)
(1.04656e-08 -4.29025e-06 0)
(1.02131e-08 -4.29559e-06 0)
(9.95972e-09 -4.30087e-06 0)
(9.70556e-09 -4.30607e-06 0)
(9.45065e-09 -4.31119e-06 0)
(9.19504e-09 -4.31622e-06 0)
(8.93879e-09 -4.32117e-06 0)
(8.68193e-09 -4.32603e-06 0)
(8.42453e-09 -4.3308e-06 0)
(8.16664e-09 -4.33547e-06 0)
(7.90832e-09 -4.34005e-06 0)
(7.64961e-09 -4.34453e-06 0)
(7.39059e-09 -4.34891e-06 0)
(7.13131e-09 -4.35318e-06 0)
(6.87184e-09 -4.35735e-06 0)
(6.61223e-09 -4.36139e-06 0)
(6.35256e-09 -4.36533e-06 0)
(6.09289e-09 -4.36915e-06 0)
(5.83329e-09 -4.37285e-06 0)
(5.57381e-09 -4.37643e-06 0)
(5.31455e-09 -4.37988e-06 0)
(5.05556e-09 -4.3832e-06 0)
(4.79693e-09 -4.38639e-06 0)
(4.53872e-09 -4.38944e-06 0)
(4.28102e-09 -4.39235e-06 0)
(4.02388e-09 -4.39512e-06 0)
(3.76741e-09 -4.39776e-06 0)
(3.51167e-09 -4.40023e-06 0)
(3.25675e-09 -4.40257e-06 0)
(3.00272e-09 -4.40474e-06 0)
(2.74967e-09 -4.40677e-06 0)
(2.49768e-09 -4.40862e-06 0)
(2.24684e-09 -4.41033e-06 0)
(1.99722e-09 -4.41186e-06 0)
(1.74892e-09 -4.41323e-06 0)
(1.50202e-09 -4.41442e-06 0)
(1.25662e-09 -4.41545e-06 0)
(1.01278e-09 -4.41629e-06 0)
(7.70617e-10 -4.41696e-06 0)
(5.30204e-10 -4.41744e-06 0)
(2.91636e-10 -4.41775e-06 0)
(5.50019e-11 -4.41786e-06 0)
(-1.79607e-10 -4.4178e-06 0)
(-4.121e-10 -4.41753e-06 0)
(-6.42387e-10 -4.41707e-06 0)
(-8.70373e-10 -4.41641e-06 0)
(-1.09597e-09 -4.41557e-06 0)
(-1.31908e-09 -4.41451e-06 0)
(-1.53962e-09 -4.41326e-06 0)
(-1.75749e-09 -4.41179e-06 0)
(-1.9726e-09 -4.41013e-06 0)
(-2.18486e-09 -4.40824e-06 0)
(-2.39418e-09 -4.40617e-06 0)
(-2.60046e-09 -4.40386e-06 0)
(-2.80362e-09 -4.40136e-06 0)
(-3.00356e-09 -4.39862e-06 0)
(-3.20022e-09 -4.39569e-06 0)
(-3.39347e-09 -4.39252e-06 0)
(-3.58327e-09 -4.38915e-06 0)
(-3.7695e-09 -4.38555e-06 0)
(-3.95211e-09 -4.38174e-06 0)
(-4.131e-09 -4.37769e-06 0)
(-4.30612e-09 -4.37344e-06 0)
(-4.47736e-09 -4.36895e-06 0)
(-4.64469e-09 -4.36426e-06 0)
(-4.80801e-09 -4.35933e-06 0)
(-4.9673e-09 -4.35419e-06 0)
(-5.12244e-09 -4.34881e-06 0)
(-5.27344e-09 -4.34323e-06 0)
(-5.42019e-09 -4.33741e-06 0)
(-5.56268e-09 -4.33138e-06 0)
(-5.70083e-09 -4.32512e-06 0)
(-5.83464e-09 -4.31866e-06 0)
(-5.964e-09 -4.31195e-06 0)
(-6.08895e-09 -4.30505e-06 0)
(-6.20938e-09 -4.29792e-06 0)
(-6.32531e-09 -4.29059e-06 0)
(-6.43666e-09 -4.28302e-06 0)
(-6.54344e-09 -4.27526e-06 0)
(-6.64557e-09 -4.26727e-06 0)
(-6.74306e-09 -4.2591e-06 0)
(-6.83581e-09 -4.25069e-06 0)
(-6.92383e-09 -4.24211e-06 0)
(-7.0071e-09 -4.23329e-06 0)
(-7.08527e-09 -4.22435e-06 0)
(-7.1602e-09 -4.21501e-06 0)
(-7.22571e-09 -4.20571e-06 0)
(-7.28594e-09 -4.19525e-06 0)
(-7.35178e-09 -4.18324e-06 0)
(-7.41535e-09 -4.17122e-06 0)
(-7.47169e-09 -4.15922e-06 0)
(-7.52115e-09 -4.14706e-06 0)
(-7.56389e-09 -4.13484e-06 0)
(-7.60001e-09 -4.12253e-06 0)
(-7.62979e-09 -4.1102e-06 0)
(-7.65337e-09 -4.0978e-06 0)
(-7.67108e-09 -4.08539e-06 0)
(-7.68304e-09 -4.07293e-06 0)
(-7.6896e-09 -4.06049e-06 0)
(-7.69084e-09 -4.04801e-06 0)
(-7.68711e-09 -4.03557e-06 0)
(-7.67848e-09 -4.0231e-06 0)
(-7.66529e-09 -4.01068e-06 0)
(-7.6476e-09 -3.99826e-06 0)
(-7.62572e-09 -3.9859e-06 0)
(-7.59969e-09 -3.97355e-06 0)
(-7.56983e-09 -3.96127e-06 0)
(-7.53614e-09 -3.94901e-06 0)
(-7.49893e-09 -3.93685e-06 0)
(-7.4582e-09 -3.92472e-06 0)
(-7.41422e-09 -3.91268e-06 0)
(-7.367e-09 -3.90069e-06 0)
(-7.31678e-09 -3.88881e-06 0)
(-7.26356e-09 -3.87698e-06 0)
(-7.20757e-09 -3.86527e-06 0)
(-7.14881e-09 -3.85363e-06 0)
(-7.08749e-09 -3.84211e-06 0)
(-7.02358e-09 -3.83066e-06 0)
(-6.95731e-09 -3.81935e-06 0)
(-6.88864e-09 -3.80812e-06 0)
(-6.81778e-09 -3.79703e-06 0)
(-6.74469e-09 -3.78603e-06 0)
(-6.66956e-09 -3.77518e-06 0)
(-6.59235e-09 -3.76442e-06 0)
(-6.51324e-09 -3.75382e-06 0)
(-6.43219e-09 -3.74331e-06 0)
(-6.34938e-09 -3.73298e-06 0)
(-6.26476e-09 -3.72274e-06 0)
(-6.17849e-09 -3.71268e-06 0)
(-6.09053e-09 -3.70272e-06 0)
(-6.00102e-09 -3.69294e-06 0)
(-5.90993e-09 -3.68328e-06 0)
(-5.81739e-09 -3.6738e-06 0)
(-5.72336e-09 -3.66443e-06 0)
(-5.62798e-09 -3.65525e-06 0)
(-5.53118e-09 -3.6462e-06 0)
(-5.4331e-09 -3.63733e-06 0)
(-5.3337e-09 -3.6286e-06 0)
(-5.23308e-09 -3.62005e-06 0)
(-5.1312e-09 -3.61164e-06 0)
(-5.02818e-09 -3.60342e-06 0)
(-4.92396e-09 -3.59535e-06 0)
(-4.81864e-09 -3.58747e-06 0)
(-4.71219e-09 -3.57973e-06 0)
(-4.6047e-09 -3.5722e-06 0)
(-4.49612e-09 -3.56481e-06 0)
(-4.38655e-09 -3.55763e-06 0)
(-4.27596e-09 -3.5506e-06 0)
(-4.16441e-09 -3.54377e-06 0)
(-4.05188e-09 -3.5371e-06 0)
(-3.93846e-09 -3.53064e-06 0)
(-3.8241e-09 -3.52434e-06 0)
(-3.70888e-09 -3.51825e-06 0)
(-3.59278e-09 -3.51232e-06 0)
(-3.47587e-09 -3.5066e-06 0)
(-3.35813e-09 -3.50105e-06 0)
(-3.23961e-09 -3.49572e-06 0)
(-3.12031e-09 -3.49055e-06 0)
(-3.00029e-09 -3.4856e-06 0)
(-2.87953e-09 -3.48082e-06 0)
(-2.75808e-09 -3.47626e-06 0)
(-2.63595e-09 -3.47188e-06 0)
(-2.51316e-09 -3.46771e-06 0)
(-2.38973e-09 -3.46373e-06 0)
(-2.2657e-09 -3.45996e-06 0)
(-2.14105e-09 -3.45637e-06 0)
(-2.01583e-09 -3.45301e-06 0)
(-1.89004e-09 -3.44983e-06 0)
(-1.76371e-09 -3.44687e-06 0)
(-1.63686e-09 -3.4441e-06 0)
(-1.50954e-09 -3.44155e-06 0)
(-1.38178e-09 -3.43919e-06 0)
(-1.25367e-09 -3.43708e-06 0)
(-1.12531e-09 -3.43507e-06 0)
(-9.96898e-10 -3.43358e-06 0)
(-8.68522e-10 -3.43127e-06 0)
(-7.40807e-10 -3.43256e-06 0)
(-6.12553e-10 -3.42254e-06 0)
(-4.88242e-10 -3.44949e-06 0)
(-3.50487e-10 -3.34556e-06 0)
(-2.59404e-10 -3.61983e-06 0)
(-1.2324e-10 -3.16127e-06 0)
)
;
    }
    bottomWall
    {
        type            calculated;
        value           nonuniform List<vector> 
449
(
(-52.8156 -0.956909 0)
(-34.813 -0.00280484 0)
(-34.4164 -0.000256859 0)
(-33.0457 -0.000365679 0)
(-31.9128 -0.000317105 0)
(-30.8708 -0.000285645 0)
(-29.9497 -0.000250391 0)
(-29.1462 -0.000218404 0)
(-28.4421 -0.000191715 0)
(-27.82 -0.000169718 0)
(-27.2654 -0.000151462 0)
(-26.7675 -0.00013623 0)
(-26.3166 -0.000123605 0)
(-25.9046 -0.000113009 0)
(-25.5259 -0.000103886 0)
(-25.1761 -9.59199e-05 0)
(-24.8517 -8.89204e-05 0)
(-24.5497 -8.27067e-05 0)
(-24.2677 -7.71833e-05 0)
(-24.0035 -7.22615e-05 0)
(-23.7552 -6.78553e-05 0)
(-23.5211 -6.38985e-05 0)
(-23.2998 -6.03287e-05 0)
(-23.0902 -5.71174e-05 0)
(-22.8909 -5.42028e-05 0)
(-22.7012 -5.15412e-05 0)
(-22.5202 -4.91136e-05 0)
(-22.3471 -4.68924e-05 0)
(-22.1813 -4.48545e-05 0)
(-22.0222 -4.29724e-05 0)
(-21.8693 -4.12281e-05 0)
(-21.7222 -3.96085e-05 0)
(-21.5804 -3.81054e-05 0)
(-21.4436 -3.67019e-05 0)
(-21.3114 -3.53969e-05 0)
(-21.1836 -3.41707e-05 0)
(-21.0598 -3.30237e-05 0)
(-20.9399 -3.19439e-05 0)
(-20.8235 -3.09299e-05 0)
(-20.7105 -2.99716e-05 0)
(-20.6008 -2.90657e-05 0)
(-20.494 -2.82074e-05 0)
(-20.3901 -2.73935e-05 0)
(-20.2889 -2.66137e-05 0)
(-20.1905 -2.58678e-05 0)
(-20.0944 -2.51545e-05 0)
(-20.0009 -2.44703e-05 0)
(-19.9095 -2.38125e-05 0)
(-19.8205 -2.31805e-05 0)
(-19.7336 -2.2577e-05 0)
(-19.6488 -2.19924e-05 0)
(-19.5659 -2.14376e-05 0)
(-19.4849 -2.09045e-05 0)
(-19.4057 -2.03933e-05 0)
(-19.3283 -1.99025e-05 0)
(-19.2525 -1.94331e-05 0)
(-19.1783 -1.89838e-05 0)
(-19.1057 -1.85525e-05 0)
(-19.0345 -1.81366e-05 0)
(-18.9648 -1.77389e-05 0)
(-18.8964 -1.73543e-05 0)
(-18.8293 -1.69858e-05 0)
(-18.7634 -1.663e-05 0)
(-18.6988 -1.62858e-05 0)
(-18.6354 -1.59538e-05 0)
(-18.5731 -1.56336e-05 0)
(-18.5119 -1.53262e-05 0)
(-18.4518 -1.50256e-05 0)
(-18.3927 -1.4737e-05 0)
(-18.3346 -1.44553e-05 0)
(-18.2774 -1.41847e-05 0)
(-18.2212 -1.39176e-05 0)
(-18.1659 -1.36606e-05 0)
(-18.1115 -1.34105e-05 0)
(-18.058 -1.31694e-05 0)
(-18.0053 -1.29329e-05 0)
(-17.9534 -1.27056e-05 0)
(-17.9023 -1.24813e-05 0)
(-17.852 -1.22658e-05 0)
(-17.8024 -1.20514e-05 0)
(-17.7537 -1.18472e-05 0)
(-17.7055 -1.1646e-05 0)
(-17.6582 -1.14542e-05 0)
(-17.6113 -1.12639e-05 0)
(-17.5654 -1.10801e-05 0)
(-17.5198 -1.08984e-05 0)
(-17.4751 -1.07204e-05 0)
(-17.4309 -1.05501e-05 0)
(-17.3874 -1.03844e-05 0)
(-17.3443 -1.02223e-05 0)
(-17.302 -1.00635e-05 0)
(-17.26 -9.90643e-06 0)
(-17.2188 -9.75402e-06 0)
(-17.1779 -9.60597e-06 0)
(-17.1378 -9.46045e-06 0)
(-17.098 -9.31903e-06 0)
(-17.0588 -9.18187e-06 0)
(-17.02 -9.04799e-06 0)
(-16.9818 -8.91661e-06 0)
(-16.9439 -8.78784e-06 0)
(-16.9066 -8.6605e-06 0)
(-16.8696 -8.53742e-06 0)
(-16.8332 -8.41677e-06 0)
(-16.7971 -8.29849e-06 0)
(-16.7616 -8.18187e-06 0)
(-16.7263 -8.07063e-06 0)
(-16.6916 -7.95848e-06 0)
(-16.6571 -7.8526e-06 0)
(-16.6231 -7.74623e-06 0)
(-16.5894 -7.64399e-06 0)
(-16.5562 -7.54152e-06 0)
(-16.5232 -7.44113e-06 0)
(-16.4907 -7.34182e-06 0)
(-16.4584 -7.24542e-06 0)
(-16.4266 -7.15052e-06 0)
(-16.3951 -7.05833e-06 0)
(-16.364 -6.96911e-06 0)
(-16.333 -6.88284e-06 0)
(-16.3025 -6.79653e-06 0)
(-16.2722 -6.71051e-06 0)
(-16.2424 -6.62793e-06 0)
(-16.2127 -6.54665e-06 0)
(-16.1834 -6.46609e-06 0)
(-16.1543 -6.38637e-06 0)
(-16.1256 -6.30767e-06 0)
(-16.0971 -6.23024e-06 0)
(-16.0689 -6.15438e-06 0)
(-16.041 -6.08095e-06 0)
(-16.0134 -6.00848e-06 0)
(-15.9859 -5.93968e-06 0)
(-15.9589 -5.87066e-06 0)
(-15.9319 -5.80408e-06 0)
(-15.9053 -5.73685e-06 0)
(-15.8789 -5.66987e-06 0)
(-15.8528 -5.60425e-06 0)
(-15.8268 -5.53999e-06 0)
(-15.8012 -5.47583e-06 0)
(-15.7757 -5.41391e-06 0)
(-15.7506 -5.35184e-06 0)
(-15.7256 -5.29354e-06 0)
(-15.7008 -5.23456e-06 0)
(-15.6763 -5.17797e-06 0)
(-15.652 -5.12195e-06 0)
(-15.6278 -5.06815e-06 0)
(-15.6039 -5.01482e-06 0)
(-15.5801 -4.96205e-06 0)
(-15.5566 -4.91083e-06 0)
(-15.5332 -4.85843e-06 0)
(-15.5101 -4.80699e-06 0)
(-15.4871 -4.75502e-06 0)
(-15.4643 -4.70641e-06 0)
(-15.4417 -4.65563e-06 0)
(-15.4193 -4.60728e-06 0)
(-15.397 -4.55943e-06 0)
(-15.375 -4.51208e-06 0)
(-15.3531 -4.46571e-06 0)
(-15.3315 -4.42051e-06 0)
(-15.3099 -4.37686e-06 0)
(-15.2885 -4.33217e-06 0)
(-15.2673 -4.29037e-06 0)
(-15.2463 -4.24803e-06 0)
(-15.2254 -4.20614e-06 0)
(-15.2047 -4.16482e-06 0)
(-15.184 -4.12441e-06 0)
(-15.1636 -4.08183e-06 0)
(-15.1434 -4.04149e-06 0)
(-15.1233 -4.00301e-06 0)
(-15.1033 -3.96494e-06 0)
(-15.0835 -3.92765e-06 0)
(-15.0638 -3.89138e-06 0)
(-15.0442 -3.85485e-06 0)
(-15.0248 -3.81871e-06 0)
(-15.0055 -3.78803e-06 0)
(-14.9874 -3.76628e-06 0)
(-14.9703 -3.73866e-06 0)
(-14.9532 -3.70337e-06 0)
(-14.9361 -3.66833e-06 0)
(-14.9189 -3.63559e-06 0)
(-14.9018 -3.60052e-06 0)
(-14.8846 -3.56781e-06 0)
(-14.8673 -3.53644e-06 0)
(-14.8501 -3.50486e-06 0)
(-14.8328 -3.47297e-06 0)
(-14.8155 -3.44298e-06 0)
(-14.7981 -3.41128e-06 0)
(-14.7807 -3.38074e-06 0)
(-14.7633 -3.34931e-06 0)
(-14.7458 -3.32098e-06 0)
(-14.7283 -3.29183e-06 0)
(-14.7108 -3.26405e-06 0)
(-14.6932 -3.23259e-06 0)
(-14.6757 -3.20211e-06 0)
(-14.6581 -3.1744e-06 0)
(-14.6404 -3.14365e-06 0)
(-14.6228 -3.11371e-06 0)
(-14.6051 -3.08349e-06 0)
(-14.5874 -3.0564e-06 0)
(-14.5697 -3.02792e-06 0)
(-14.5519 -3.0004e-06 0)
(-14.5341 -2.97239e-06 0)
(-14.5163 -2.94337e-06 0)
(-14.4985 -2.91558e-06 0)
(-14.4806 -2.88691e-06 0)
(-14.4628 -2.86005e-06 0)
(-14.4448 -2.83089e-06 0)
(-14.427 -2.80444e-06 0)
(-14.409 -2.77535e-06 0)
(-14.3911 -2.74674e-06 0)
(-14.3731 -2.71828e-06 0)
(-14.3552 -2.69124e-06 0)
(-14.3372 -2.66472e-06 0)
(-14.3193 -2.6373e-06 0)
(-14.3012 -2.61172e-06 0)
(-14.2833 -2.58688e-06 0)
(-14.2652 -2.56315e-06 0)
(-14.2472 -2.53696e-06 0)
(-14.2291 -2.51247e-06 0)
(-14.211 -2.48617e-06 0)
(-14.1929 -2.46297e-06 0)
(-14.1748 -2.43795e-06 0)
(-14.1567 -2.41308e-06 0)
(-14.1385 -2.38796e-06 0)
(-14.1204 -2.36185e-06 0)
(-14.1022 -2.33728e-06 0)
(-14.0841 -2.31247e-06 0)
(-14.0659 -2.28692e-06 0)
(-14.0478 -2.26508e-06 0)
(-14.0296 -2.23941e-06 0)
(-14.0115 -2.21671e-06 0)
(-13.9933 -2.19423e-06 0)
(-13.9752 -2.17024e-06 0)
(-13.957 -2.14795e-06 0)
(-13.9388 -2.12494e-06 0)
(-13.9206 -2.102e-06 0)
(-13.9024 -2.07941e-06 0)
(-13.8842 -2.05627e-06 0)
(-13.8661 -2.03304e-06 0)
(-13.8479 -2.00943e-06 0)
(-13.8298 -1.98809e-06 0)
(-13.8116 -1.96766e-06 0)
(-13.7935 -1.94667e-06 0)
(-13.7753 -1.92646e-06 0)
(-13.7572 -1.90658e-06 0)
(-13.739 -1.88521e-06 0)
(-13.7208 -1.86328e-06 0)
(-13.7027 -1.84365e-06 0)
(-13.6845 -1.82251e-06 0)
(-13.6664 -1.8013e-06 0)
(-13.6483 -1.78108e-06 0)
(-13.6302 -1.76157e-06 0)
(-13.6121 -1.74217e-06 0)
(-13.5939 -1.72361e-06 0)
(-13.5759 -1.70308e-06 0)
(-13.5578 -1.68449e-06 0)
(-13.5397 -1.66536e-06 0)
(-13.5216 -1.64793e-06 0)
(-13.5035 -1.62823e-06 0)
(-13.4855 -1.60971e-06 0)
(-13.4675 -1.59173e-06 0)
(-13.4495 -1.57308e-06 0)
(-13.4314 -1.55541e-06 0)
(-13.4134 -1.53744e-06 0)
(-13.3954 -1.51941e-06 0)
(-13.3775 -1.50061e-06 0)
(-13.3595 -1.48295e-06 0)
(-13.3416 -1.46535e-06 0)
(-13.3237 -1.44762e-06 0)
(-13.3059 -1.43181e-06 0)
(-13.288 -1.41594e-06 0)
(-13.2701 -1.39888e-06 0)
(-13.2523 -1.38074e-06 0)
(-13.2345 -1.36402e-06 0)
(-13.2167 -1.34846e-06 0)
(-13.199 -1.33405e-06 0)
(-13.1811 -1.31787e-06 0)
(-13.1635 -1.30108e-06 0)
(-13.1457 -1.28658e-06 0)
(-13.128 -1.26979e-06 0)
(-13.1104 -1.25524e-06 0)
(-13.0927 -1.24e-06 0)
(-13.0751 -1.22636e-06 0)
(-13.0575 -1.21155e-06 0)
(-13.0399 -1.19619e-06 0)
(-13.0223 -1.18155e-06 0)
(-13.0048 -1.16708e-06 0)
(-12.9873 -1.15298e-06 0)
(-12.9699 -1.13756e-06 0)
(-12.9524 -1.12249e-06 0)
(-12.9351 -1.10925e-06 0)
(-12.9177 -1.09615e-06 0)
(-12.9003 -1.08417e-06 0)
(-12.8829 -1.07062e-06 0)
(-12.8657 -1.05672e-06 0)
(-12.8484 -1.04426e-06 0)
(-12.8311 -1.03113e-06 0)
(-12.8139 -1.01775e-06 0)
(-12.7967 -1.00607e-06 0)
(-12.7795 -9.93332e-07 0)
(-12.7624 -9.81334e-07 0)
(-12.7453 -9.70275e-07 0)
(-12.7282 -9.57309e-07 0)
(-12.7111 -9.46979e-07 0)
(-12.694 -9.35377e-07 0)
(-12.677 -9.22988e-07 0)
(-12.66 -9.09351e-07 0)
(-12.6431 -8.97122e-07 0)
(-12.6262 -8.87207e-07 0)
(-12.6093 -8.76958e-07 0)
(-12.5925 -8.65697e-07 0)
(-12.5757 -8.54783e-07 0)
(-12.5589 -8.43484e-07 0)
(-12.5421 -8.33168e-07 0)
(-12.5254 -8.23097e-07 0)
(-12.5087 -8.114e-07 0)
(-12.4921 -8.00103e-07 0)
(-12.4755 -7.90497e-07 0)
(-12.4589 -7.80319e-07 0)
(-12.4424 -7.70677e-07 0)
(-12.4259 -7.60263e-07 0)
(-12.4095 -7.5092e-07 0)
(-12.393 -7.41536e-07 0)
(-12.3766 -7.32319e-07 0)
(-12.3602 -7.21987e-07 0)
(-12.344 -7.12491e-07 0)
(-12.3276 -7.03577e-07 0)
(-12.3114 -6.94927e-07 0)
(-12.2951 -6.85888e-07 0)
(-12.279 -6.76582e-07 0)
(-12.2628 -6.67548e-07 0)
(-12.2468 -6.59349e-07 0)
(-12.2306 -6.50709e-07 0)
(-12.2147 -6.41036e-07 0)
(-12.1987 -6.33166e-07 0)
(-12.1828 -6.2532e-07 0)
(-12.1668 -6.16747e-07 0)
(-12.151 -6.07297e-07 0)
(-12.1352 -5.99177e-07 0)
(-12.1194 -5.91858e-07 0)
(-12.1037 -5.84014e-07 0)
(-12.088 -5.76499e-07 0)
(-12.0723 -5.69313e-07 0)
(-12.0567 -5.61216e-07 0)
(-12.0411 -5.53589e-07 0)
(-12.0256 -5.46185e-07 0)
(-12.0101 -5.38872e-07 0)
(-11.9947 -5.31752e-07 0)
(-11.9793 -5.25083e-07 0)
(-11.9639 -5.17501e-07 0)
(-11.9486 -5.10975e-07 0)
(-11.9333 -5.0404e-07 0)
(-11.918 -4.9711e-07 0)
(-11.9028 -4.90394e-07 0)
(-11.8877 -4.84164e-07 0)
(-11.8725 -4.75437e-07 0)
(-11.8559 -4.66447e-07 0)
(-11.8378 -4.58487e-07 0)
(-11.8201 -4.51896e-07 0)
(-11.8024 -4.45372e-07 0)
(-11.7852 -4.38633e-07 0)
(-11.7681 -4.32107e-07 0)
(-11.7514 -4.25623e-07 0)
(-11.7348 -4.19048e-07 0)
(-11.7186 -4.13314e-07 0)
(-11.7025 -4.07454e-07 0)
(-11.6867 -4.01057e-07 0)
(-11.6711 -3.95222e-07 0)
(-11.6558 -3.89491e-07 0)
(-11.6406 -3.83939e-07 0)
(-11.6258 -3.78538e-07 0)
(-11.611 -3.73814e-07 0)
(-11.5965 -3.68248e-07 0)
(-11.5822 -3.63549e-07 0)
(-11.5681 -3.58223e-07 0)
(-11.5541 -3.53462e-07 0)
(-11.5404 -3.49348e-07 0)
(-11.5268 -3.45155e-07 0)
(-11.5134 -3.3995e-07 0)
(-11.5002 -3.35381e-07 0)
(-11.4872 -3.31164e-07 0)
(-11.4743 -3.27173e-07 0)
(-11.4616 -3.23991e-07 0)
(-11.4489 -3.19224e-07 0)
(-11.4366 -3.15817e-07 0)
(-11.4242 -3.12374e-07 0)
(-11.4121 -3.08067e-07 0)
(-11.4001 -3.03829e-07 0)
(-11.3884 -3.00861e-07 0)
(-11.3766 -2.97716e-07 0)
(-11.3651 -2.94736e-07 0)
(-11.3535 -2.91405e-07 0)
(-11.3423 -2.88139e-07 0)
(-11.331 -2.85048e-07 0)
(-11.32 -2.81561e-07 0)
(-11.309 -2.78615e-07 0)
(-11.2982 -2.7542e-07 0)
(-11.2874 -2.72533e-07 0)
(-11.2768 -2.69892e-07 0)
(-11.2663 -2.66702e-07 0)
(-11.256 -2.63895e-07 0)
(-11.2456 -2.61433e-07 0)
(-11.2355 -2.58198e-07 0)
(-11.2254 -2.55671e-07 0)
(-11.2155 -2.52835e-07 0)
(-11.2057 -2.50354e-07 0)
(-11.1959 -2.4763e-07 0)
(-11.1863 -2.45829e-07 0)
(-11.1767 -2.43072e-07 0)
(-11.1673 -2.40542e-07 0)
(-11.1579 -2.38355e-07 0)
(-11.1486 -2.35797e-07 0)
(-11.1394 -2.33508e-07 0)
(-11.1303 -2.31214e-07 0)
(-11.1213 -2.28654e-07 0)
(-11.1125 -2.26353e-07 0)
(-11.1036 -2.24589e-07 0)
(-11.0949 -2.22572e-07 0)
(-11.0862 -2.20566e-07 0)
(-11.0776 -2.18432e-07 0)
(-11.0691 -2.16644e-07 0)
(-11.0607 -2.14466e-07 0)
(-11.0523 -2.12383e-07 0)
(-11.0441 -2.10468e-07 0)
(-11.0359 -2.09863e-07 0)
(-11.0276 -2.07104e-07 0)
(-11.0197 -2.05647e-07 0)
(-11.0116 -2.03629e-07 0)
(-11.0037 -2.02482e-07 0)
(-10.9957 -2.0055e-07 0)
(-10.988 -1.99411e-07 0)
(-10.9801 -1.97165e-07 0)
(-10.9726 -1.96824e-07 0)
(-10.9647 -1.94484e-07 0)
(-10.9574 -1.93884e-07 0)
(-10.9495 -1.91718e-07 0)
(-10.9424 -1.91114e-07 0)
(-10.9346 -1.89704e-07 0)
(-10.9276 -1.88662e-07 0)
(-10.9198 -1.87809e-07 0)
(-10.9129 -1.85601e-07 0)
(-10.9053 -1.85392e-07 0)
(-10.8984 -1.8127e-07 0)
(-10.8911 -1.85053e-07 0)
(-10.8839 -1.74882e-07 0)
(-10.8775 -1.88835e-07 0)
(-10.8691 -1.62247e-07 0)
(-10.8648 -2.02136e-07 0)
(-10.8532 -1.3892e-07 0)
(-10.8541 -1.76067e-07 0)
(-10.8391 -1.9636e-07 0)
)
;
    }
    symmetry
    {
        type            symmetryPlane;
    }
    frontAndBack
    {
        type            empty;
    }
}


// ************************************************************************* //
