/*--------------------------------*- C++ -*----------------------------------*\
| =========                 |                                                 |
| \\      /  F ield         | OpenFOAM: The Open Source CFD Toolbox           |
|  \\    /   O peration     | Version:  v2012                                 |
|   \\  /    A nd           | Website:  www.openfoam.com                      |
|    \\/     M anipulation  |                                                 |
\*---------------------------------------------------------------------------*/
FoamFile
{
    version     2.0;
    format      ascii;
    class       volVectorField;
    location    "33";
    object      wallShearStress;
}
// * * * * * * * * * * * * * * * * * * * * * * * * * * * * * * * * * * * * * //

dimensions      [0 2 -2 0 0 0 0];


internalField   uniform (0 0 0);

boundaryField
{
    inlet
    {
        type            calculated;
        value           uniform (0 0 0);
    }
    outlet
    {
        type            calculated;
        value           uniform (0 0 0);
    }
    topWall
    {
        type            calculated;
        value           nonuniform List<vector> 
545
(
(1.486e-08 -1.04601e-08 0)
(1.48532e-08 -2.92636e-08 0)
(1.48393e-08 -4.88148e-08 0)
(1.48189e-08 -6.77925e-08 0)
(1.47927e-08 -8.59497e-08 0)
(1.47614e-08 -1.03518e-07 0)
(1.47255e-08 -1.20644e-07 0)
(1.46852e-08 -1.3732e-07 0)
(1.4641e-08 -1.53507e-07 0)
(1.45933e-08 -1.69204e-07 0)
(1.45424e-08 -1.84432e-07 0)
(1.44886e-08 -1.99207e-07 0)
(1.44324e-08 -2.1354e-07 0)
(1.43739e-08 -2.2744e-07 0)
(1.43134e-08 -2.40917e-07 0)
(1.42512e-08 -2.53982e-07 0)
(1.41876e-08 -2.66647e-07 0)
(1.41227e-08 -2.78922e-07 0)
(1.40568e-08 -2.90818e-07 0)
(1.399e-08 -3.02346e-07 0)
(1.39225e-08 -3.13516e-07 0)
(1.38545e-08 -3.24338e-07 0)
(1.37862e-08 -3.34824e-07 0)
(1.37176e-08 -3.44983e-07 0)
(1.36489e-08 -3.54824e-07 0)
(1.35802e-08 -3.64358e-07 0)
(1.35116e-08 -3.73593e-07 0)
(1.34433e-08 -3.8254e-07 0)
(1.33753e-08 -3.91206e-07 0)
(1.33076e-08 -3.99602e-07 0)
(1.32405e-08 -4.07734e-07 0)
(1.31739e-08 -4.15613e-07 0)
(1.31078e-08 -4.23245e-07 0)
(1.30425e-08 -4.30638e-07 0)
(1.29778e-08 -4.37801e-07 0)
(1.29138e-08 -4.44741e-07 0)
(1.28507e-08 -4.51464e-07 0)
(1.27884e-08 -4.57979e-07 0)
(1.27269e-08 -4.6429e-07 0)
(1.26663e-08 -4.70406e-07 0)
(1.26066e-08 -4.76333e-07 0)
(1.25478e-08 -4.82076e-07 0)
(1.24899e-08 -4.87642e-07 0)
(1.2433e-08 -4.93036e-07 0)
(1.2377e-08 -4.98264e-07 0)
(1.2322e-08 -5.03332e-07 0)
(1.2268e-08 -5.08244e-07 0)
(1.2215e-08 -5.13006e-07 0)
(1.21629e-08 -5.17622e-07 0)
(1.21118e-08 -5.22098e-07 0)
(1.20617e-08 -5.26437e-07 0)
(1.20125e-08 -5.30645e-07 0)
(1.19643e-08 -5.34725e-07 0)
(1.19171e-08 -5.38682e-07 0)
(1.18709e-08 -5.42519e-07 0)
(1.18255e-08 -5.46241e-07 0)
(1.17811e-08 -5.49851e-07 0)
(1.17377e-08 -5.53353e-07 0)
(1.16952e-08 -5.5675e-07 0)
(1.16535e-08 -5.60045e-07 0)
(1.16128e-08 -5.63242e-07 0)
(1.1573e-08 -5.66344e-07 0)
(1.1534e-08 -5.69354e-07 0)
(1.14959e-08 -5.72275e-07 0)
(1.14586e-08 -5.7511e-07 0)
(1.14222e-08 -5.77861e-07 0)
(1.13866e-08 -5.80531e-07 0)
(1.13518e-08 -5.83123e-07 0)
(1.13178e-08 -5.85638e-07 0)
(1.12846e-08 -5.8808e-07 0)
(1.12521e-08 -5.90451e-07 0)
(1.12206e-08 -5.9275e-07 0)
(1.119e-08 -5.94959e-07 0)
(1.11599e-08 -5.971e-07 0)
(1.11302e-08 -5.99215e-07 0)
(1.11005e-08 -6.01318e-07 0)
(1.1071e-08 -6.03409e-07 0)
(1.10415e-08 -6.05484e-07 0)
(1.1012e-08 -6.07544e-07 0)
(1.09826e-08 -6.09589e-07 0)
(1.09533e-08 -6.11619e-07 0)
(1.0924e-08 -6.13635e-07 0)
(1.08948e-08 -6.15636e-07 0)
(1.08656e-08 -6.17622e-07 0)
(1.08365e-08 -6.19594e-07 0)
(1.08075e-08 -6.21552e-07 0)
(1.07785e-08 -6.23495e-07 0)
(1.07496e-08 -6.25425e-07 0)
(1.07207e-08 -6.2734e-07 0)
(1.0692e-08 -6.29242e-07 0)
(1.06633e-08 -6.3113e-07 0)
(1.06346e-08 -6.33004e-07 0)
(1.0606e-08 -6.34865e-07 0)
(1.05776e-08 -6.36711e-07 0)
(1.05489e-08 -6.38549e-07 0)
(1.05216e-08 -6.40352e-07 0)
(1.04963e-08 -6.42003e-07 0)
(1.04721e-08 -6.43497e-07 0)
(1.04486e-08 -6.4495e-07 0)
(1.04253e-08 -6.46408e-07 0)
(1.04019e-08 -6.47878e-07 0)
(1.03785e-08 -6.49351e-07 0)
(1.0355e-08 -6.5082e-07 0)
(1.03313e-08 -6.52289e-07 0)
(1.03076e-08 -6.53758e-07 0)
(1.02838e-08 -6.55227e-07 0)
(1.02599e-08 -6.56697e-07 0)
(1.02359e-08 -6.58166e-07 0)
(1.02118e-08 -6.59636e-07 0)
(1.01877e-08 -6.61105e-07 0)
(1.01634e-08 -6.62575e-07 0)
(1.0139e-08 -6.64044e-07 0)
(1.01146e-08 -6.65514e-07 0)
(1.009e-08 -6.66983e-07 0)
(1.00654e-08 -6.68452e-07 0)
(1.00406e-08 -6.69921e-07 0)
(1.00158e-08 -6.7139e-07 0)
(9.99085e-09 -6.72858e-07 0)
(9.96582e-09 -6.74327e-07 0)
(9.9407e-09 -6.75795e-07 0)
(9.91548e-09 -6.77263e-07 0)
(9.89018e-09 -6.7873e-07 0)
(9.86477e-09 -6.80198e-07 0)
(9.83927e-09 -6.81665e-07 0)
(9.81368e-09 -6.83131e-07 0)
(9.78799e-09 -6.84598e-07 0)
(9.76221e-09 -6.86063e-07 0)
(9.73633e-09 -6.87529e-07 0)
(9.71036e-09 -6.88994e-07 0)
(9.68429e-09 -6.90458e-07 0)
(9.65813e-09 -6.91922e-07 0)
(9.63187e-09 -6.93386e-07 0)
(9.60552e-09 -6.94849e-07 0)
(9.57907e-09 -6.96311e-07 0)
(9.55253e-09 -6.97773e-07 0)
(9.5259e-09 -6.99234e-07 0)
(9.49916e-09 -7.00694e-07 0)
(9.47234e-09 -7.02154e-07 0)
(9.44542e-09 -7.03613e-07 0)
(9.4184e-09 -7.05072e-07 0)
(9.39129e-09 -7.06529e-07 0)
(9.36408e-09 -7.07986e-07 0)
(9.33678e-09 -7.09442e-07 0)
(9.30939e-09 -7.10897e-07 0)
(9.2819e-09 -7.12352e-07 0)
(9.25431e-09 -7.13805e-07 0)
(9.22663e-09 -7.15258e-07 0)
(9.19886e-09 -7.16709e-07 0)
(9.17099e-09 -7.1816e-07 0)
(9.14302e-09 -7.1961e-07 0)
(9.11496e-09 -7.21058e-07 0)
(9.08681e-09 -7.22506e-07 0)
(9.05856e-09 -7.23952e-07 0)
(9.03022e-09 -7.25397e-07 0)
(9.00179e-09 -7.26842e-07 0)
(8.97326e-09 -7.28285e-07 0)
(8.94463e-09 -7.29727e-07 0)
(8.91591e-09 -7.31167e-07 0)
(8.8871e-09 -7.32607e-07 0)
(8.8582e-09 -7.34045e-07 0)
(8.8292e-09 -7.35481e-07 0)
(8.8001e-09 -7.36917e-07 0)
(8.77092e-09 -7.38351e-07 0)
(8.74164e-09 -7.39784e-07 0)
(8.71227e-09 -7.41215e-07 0)
(8.6828e-09 -7.42644e-07 0)
(8.65324e-09 -7.44073e-07 0)
(8.62359e-09 -7.45499e-07 0)
(8.59385e-09 -7.46925e-07 0)
(8.56401e-09 -7.48348e-07 0)
(8.53408e-09 -7.4977e-07 0)
(8.50406e-09 -7.51191e-07 0)
(8.47395e-09 -7.52609e-07 0)
(8.44375e-09 -7.54026e-07 0)
(8.41345e-09 -7.55441e-07 0)
(8.38306e-09 -7.56855e-07 0)
(8.35259e-09 -7.58267e-07 0)
(8.32202e-09 -7.59676e-07 0)
(8.29136e-09 -7.61084e-07 0)
(8.26061e-09 -7.6249e-07 0)
(8.22977e-09 -7.63895e-07 0)
(8.19884e-09 -7.65297e-07 0)
(8.16782e-09 -7.66697e-07 0)
(8.13671e-09 -7.68095e-07 0)
(8.10551e-09 -7.69491e-07 0)
(8.07422e-09 -7.70885e-07 0)
(8.04285e-09 -7.72277e-07 0)
(8.01138e-09 -7.73667e-07 0)
(7.97983e-09 -7.75054e-07 0)
(7.94819e-09 -7.7644e-07 0)
(7.91646e-09 -7.77823e-07 0)
(7.88464e-09 -7.79203e-07 0)
(7.85274e-09 -7.80582e-07 0)
(7.82075e-09 -7.81958e-07 0)
(7.78867e-09 -7.83331e-07 0)
(7.75651e-09 -7.84703e-07 0)
(7.72426e-09 -7.86071e-07 0)
(7.69193e-09 -7.87438e-07 0)
(7.65951e-09 -7.88801e-07 0)
(7.62701e-09 -7.90163e-07 0)
(7.59442e-09 -7.91521e-07 0)
(7.56175e-09 -7.92877e-07 0)
(7.529e-09 -7.9423e-07 0)
(7.49616e-09 -7.95581e-07 0)
(7.46324e-09 -7.96929e-07 0)
(7.43024e-09 -7.98274e-07 0)
(7.39715e-09 -7.99616e-07 0)
(7.36398e-09 -8.00955e-07 0)
(7.33074e-09 -8.02292e-07 0)
(7.29741e-09 -8.03626e-07 0)
(7.264e-09 -8.04956e-07 0)
(7.23051e-09 -8.06284e-07 0)
(7.19694e-09 -8.07608e-07 0)
(7.16329e-09 -8.0893e-07 0)
(7.12957e-09 -8.10248e-07 0)
(7.09576e-09 -8.11564e-07 0)
(7.06188e-09 -8.12876e-07 0)
(7.02792e-09 -8.14185e-07 0)
(6.99389e-09 -8.1549e-07 0)
(6.95978e-09 -8.16793e-07 0)
(6.92559e-09 -8.18092e-07 0)
(6.89133e-09 -8.19388e-07 0)
(6.85699e-09 -8.2068e-07 0)
(6.82258e-09 -8.21969e-07 0)
(6.7881e-09 -8.23254e-07 0)
(6.75354e-09 -8.24536e-07 0)
(6.71891e-09 -8.25814e-07 0)
(6.68421e-09 -8.27089e-07 0)
(6.64944e-09 -8.2836e-07 0)
(6.6146e-09 -8.29628e-07 0)
(6.57969e-09 -8.30892e-07 0)
(6.54471e-09 -8.32152e-07 0)
(6.50965e-09 -8.33408e-07 0)
(6.47454e-09 -8.3466e-07 0)
(6.43935e-09 -8.35909e-07 0)
(6.4041e-09 -8.37154e-07 0)
(6.36878e-09 -8.38395e-07 0)
(6.33339e-09 -8.39632e-07 0)
(6.29794e-09 -8.40864e-07 0)
(6.26243e-09 -8.42093e-07 0)
(6.22685e-09 -8.43318e-07 0)
(6.19121e-09 -8.44539e-07 0)
(6.1555e-09 -8.45755e-07 0)
(6.11974e-09 -8.46967e-07 0)
(6.08391e-09 -8.48175e-07 0)
(6.04802e-09 -8.49379e-07 0)
(6.01208e-09 -8.50579e-07 0)
(5.97607e-09 -8.51774e-07 0)
(5.94001e-09 -8.52965e-07 0)
(5.90389e-09 -8.54151e-07 0)
(5.86772e-09 -8.55333e-07 0)
(5.83148e-09 -8.5651e-07 0)
(5.7952e-09 -8.57683e-07 0)
(5.75886e-09 -8.58851e-07 0)
(5.72246e-09 -8.60015e-07 0)
(5.68602e-09 -8.61174e-07 0)
(5.64952e-09 -8.62328e-07 0)
(5.61297e-09 -8.63477e-07 0)
(5.57637e-09 -8.64622e-07 0)
(5.53972e-09 -8.65762e-07 0)
(5.50302e-09 -8.66897e-07 0)
(5.46628e-09 -8.68027e-07 0)
(5.42948e-09 -8.69153e-07 0)
(5.39265e-09 -8.70273e-07 0)
(5.35577e-09 -8.71388e-07 0)
(5.31883e-09 -8.72498e-07 0)
(5.2819e-09 -8.73603e-07 0)
(5.24469e-09 -8.74704e-07 0)
(5.20847e-09 -8.75793e-07 0)
(5.17375e-09 -8.76825e-07 0)
(5.13964e-09 -8.77803e-07 0)
(5.10597e-09 -8.7877e-07 0)
(5.07215e-09 -8.79743e-07 0)
(5.03804e-09 -8.80724e-07 0)
(5.00362e-09 -8.81709e-07 0)
(4.96887e-09 -8.82698e-07 0)
(4.93379e-09 -8.8369e-07 0)
(4.89838e-09 -8.84685e-07 0)
(4.86263e-09 -8.85684e-07 0)
(4.82655e-09 -8.86687e-07 0)
(4.79013e-09 -8.87693e-07 0)
(4.75336e-09 -8.88702e-07 0)
(4.71626e-09 -8.89714e-07 0)
(4.67881e-09 -8.9073e-07 0)
(4.64102e-09 -8.91748e-07 0)
(4.60289e-09 -8.92768e-07 0)
(4.5644e-09 -8.93791e-07 0)
(4.52557e-09 -8.94817e-07 0)
(4.48638e-09 -8.95845e-07 0)
(4.44684e-09 -8.96874e-07 0)
(4.40695e-09 -8.97906e-07 0)
(4.36671e-09 -8.9894e-07 0)
(4.32611e-09 -8.99975e-07 0)
(4.28515e-09 -9.01012e-07 0)
(4.24384e-09 -9.02049e-07 0)
(4.20217e-09 -9.03088e-07 0)
(4.16013e-09 -9.04128e-07 0)
(4.11774e-09 -9.05168e-07 0)
(4.07499e-09 -9.06209e-07 0)
(4.03187e-09 -9.07251e-07 0)
(3.9884e-09 -9.08292e-07 0)
(3.94456e-09 -9.09333e-07 0)
(3.90036e-09 -9.10374e-07 0)
(3.8558e-09 -9.11414e-07 0)
(3.81087e-09 -9.12453e-07 0)
(3.76558e-09 -9.13491e-07 0)
(3.71993e-09 -9.14528e-07 0)
(3.67392e-09 -9.15563e-07 0)
(3.62755e-09 -9.16597e-07 0)
(3.58081e-09 -9.17628e-07 0)
(3.53372e-09 -9.18657e-07 0)
(3.48627e-09 -9.19684e-07 0)
(3.43845e-09 -9.20707e-07 0)
(3.39028e-09 -9.21727e-07 0)
(3.34176e-09 -9.22744e-07 0)
(3.29288e-09 -9.23757e-07 0)
(3.24364e-09 -9.24765e-07 0)
(3.19406e-09 -9.25769e-07 0)
(3.14412e-09 -9.26769e-07 0)
(3.09384e-09 -9.27763e-07 0)
(3.04321e-09 -9.28752e-07 0)
(2.99224e-09 -9.29735e-07 0)
(2.94093e-09 -9.30711e-07 0)
(2.88928e-09 -9.31682e-07 0)
(2.8373e-09 -9.32645e-07 0)
(2.78499e-09 -9.33601e-07 0)
(2.73235e-09 -9.34549e-07 0)
(2.67939e-09 -9.3549e-07 0)
(2.6261e-09 -9.36421e-07 0)
(2.5725e-09 -9.37344e-07 0)
(2.51859e-09 -9.38258e-07 0)
(2.46437e-09 -9.39162e-07 0)
(2.40985e-09 -9.40056e-07 0)
(2.35503e-09 -9.40939e-07 0)
(2.29992e-09 -9.41811e-07 0)
(2.24453e-09 -9.42672e-07 0)
(2.18885e-09 -9.43521e-07 0)
(2.1329e-09 -9.44357e-07 0)
(2.07668e-09 -9.4518e-07 0)
(2.0202e-09 -9.45991e-07 0)
(1.96346e-09 -9.46787e-07 0)
(1.90648e-09 -9.47569e-07 0)
(1.84925e-09 -9.48336e-07 0)
(1.7918e-09 -9.49087e-07 0)
(1.73412e-09 -9.49823e-07 0)
(1.67622e-09 -9.50542e-07 0)
(1.61812e-09 -9.51244e-07 0)
(1.55982e-09 -9.51929e-07 0)
(1.50133e-09 -9.52596e-07 0)
(1.44266e-09 -9.53244e-07 0)
(1.38382e-09 -9.53873e-07 0)
(1.32482e-09 -9.54482e-07 0)
(1.26567e-09 -9.55071e-07 0)
(1.20638e-09 -9.55639e-07 0)
(1.14697e-09 -9.56186e-07 0)
(1.08744e-09 -9.5671e-07 0)
(1.02781e-09 -9.57212e-07 0)
(9.68093e-10 -9.57691e-07 0)
(9.08293e-10 -9.58145e-07 0)
(8.48428e-10 -9.58575e-07 0)
(7.88511e-10 -9.58981e-07 0)
(7.28555e-10 -9.5936e-07 0)
(6.68574e-10 -9.59713e-07 0)
(6.08583e-10 -9.60039e-07 0)
(5.48596e-10 -9.60338e-07 0)
(4.88629e-10 -9.60608e-07 0)
(4.28695e-10 -9.6085e-07 0)
(3.68812e-10 -9.61061e-07 0)
(3.08995e-10 -9.61243e-07 0)
(2.4926e-10 -9.61394e-07 0)
(1.89624e-10 -9.61514e-07 0)
(1.30103e-10 -9.61602e-07 0)
(7.07157e-11 -9.61657e-07 0)
(1.14787e-11 -9.61678e-07 0)
(-4.75901e-11 -9.61666e-07 0)
(-1.06473e-10 -9.61619e-07 0)
(-1.6515e-10 -9.61537e-07 0)
(-2.23604e-10 -9.61419e-07 0)
(-2.81816e-10 -9.61264e-07 0)
(-3.39766e-10 -9.61072e-07 0)
(-3.97435e-10 -9.60843e-07 0)
(-4.54804e-10 -9.60575e-07 0)
(-5.11851e-10 -9.60268e-07 0)
(-5.68558e-10 -9.59922e-07 0)
(-6.24904e-10 -9.59536e-07 0)
(-6.80868e-10 -9.59108e-07 0)
(-7.3643e-10 -9.5864e-07 0)
(-7.91569e-10 -9.58129e-07 0)
(-8.46264e-10 -9.57576e-07 0)
(-9.00493e-10 -9.5698e-07 0)
(-9.54236e-10 -9.5634e-07 0)
(-1.00747e-09 -9.55657e-07 0)
(-1.06018e-09 -9.54928e-07 0)
(-1.11233e-09 -9.54155e-07 0)
(-1.16392e-09 -9.53336e-07 0)
(-1.21491e-09 -9.52471e-07 0)
(-1.26529e-09 -9.51559e-07 0)
(-1.31503e-09 -9.506e-07 0)
(-1.36411e-09 -9.49594e-07 0)
(-1.41251e-09 -9.4854e-07 0)
(-1.46022e-09 -9.47438e-07 0)
(-1.5072e-09 -9.46287e-07 0)
(-1.55344e-09 -9.45087e-07 0)
(-1.59892e-09 -9.43838e-07 0)
(-1.64361e-09 -9.42539e-07 0)
(-1.68751e-09 -9.4119e-07 0)
(-1.73058e-09 -9.39791e-07 0)
(-1.7728e-09 -9.38342e-07 0)
(-1.81417e-09 -9.36842e-07 0)
(-1.85465e-09 -9.35291e-07 0)
(-1.89424e-09 -9.3369e-07 0)
(-1.9329e-09 -9.32037e-07 0)
(-1.97063e-09 -9.30333e-07 0)
(-2.00741e-09 -9.28578e-07 0)
(-2.04321e-09 -9.26771e-07 0)
(-2.07803e-09 -9.24913e-07 0)
(-2.11185e-09 -9.23003e-07 0)
(-2.14465e-09 -9.21042e-07 0)
(-2.17641e-09 -9.1903e-07 0)
(-2.20713e-09 -9.16967e-07 0)
(-2.23679e-09 -9.14852e-07 0)
(-2.26537e-09 -9.12686e-07 0)
(-2.29287e-09 -9.1047e-07 0)
(-2.31927e-09 -9.08204e-07 0)
(-2.34456e-09 -9.05887e-07 0)
(-2.36873e-09 -9.0352e-07 0)
(-2.39178e-09 -9.01103e-07 0)
(-2.41369e-09 -8.98637e-07 0)
(-2.43446e-09 -8.96122e-07 0)
(-2.45407e-09 -8.93559e-07 0)
(-2.47253e-09 -8.90948e-07 0)
(-2.48982e-09 -8.88289e-07 0)
(-2.50595e-09 -8.85584e-07 0)
(-2.52091e-09 -8.82832e-07 0)
(-2.5347e-09 -8.80034e-07 0)
(-2.54731e-09 -8.77191e-07 0)
(-2.55874e-09 -8.74304e-07 0)
(-2.569e-09 -8.71373e-07 0)
(-2.57808e-09 -8.68399e-07 0)
(-2.58598e-09 -8.65383e-07 0)
(-2.59272e-09 -8.62326e-07 0)
(-2.59829e-09 -8.59228e-07 0)
(-2.60269e-09 -8.5609e-07 0)
(-2.60593e-09 -8.52914e-07 0)
(-2.60802e-09 -8.497e-07 0)
(-2.60897e-09 -8.46448e-07 0)
(-2.60877e-09 -8.43162e-07 0)
(-2.60744e-09 -8.39839e-07 0)
(-2.60504e-09 -8.36488e-07 0)
(-2.60124e-09 -8.33064e-07 0)
(-2.59582e-09 -8.29284e-07 0)
(-2.58884e-09 -8.25143e-07 0)
(-2.58019e-09 -8.20931e-07 0)
(-2.57008e-09 -8.16742e-07 0)
(-2.55866e-09 -8.12595e-07 0)
(-2.54601e-09 -8.08472e-07 0)
(-2.5322e-09 -8.04365e-07 0)
(-2.5173e-09 -8.00278e-07 0)
(-2.50136e-09 -7.96217e-07 0)
(-2.48444e-09 -7.92183e-07 0)
(-2.46661e-09 -7.88178e-07 0)
(-2.44792e-09 -7.84202e-07 0)
(-2.42842e-09 -7.80258e-07 0)
(-2.40816e-09 -7.76345e-07 0)
(-2.38719e-09 -7.72466e-07 0)
(-2.36555e-09 -7.68621e-07 0)
(-2.34329e-09 -7.64812e-07 0)
(-2.32045e-09 -7.61039e-07 0)
(-2.29706e-09 -7.57304e-07 0)
(-2.27316e-09 -7.53607e-07 0)
(-2.24878e-09 -7.49949e-07 0)
(-2.22397e-09 -7.46331e-07 0)
(-2.19873e-09 -7.42754e-07 0)
(-2.17312e-09 -7.39217e-07 0)
(-2.14714e-09 -7.35723e-07 0)
(-2.12083e-09 -7.3227e-07 0)
(-2.09422e-09 -7.28861e-07 0)
(-2.06731e-09 -7.25495e-07 0)
(-2.04013e-09 -7.22173e-07 0)
(-2.01271e-09 -7.18895e-07 0)
(-1.98505e-09 -7.15661e-07 0)
(-1.95718e-09 -7.12472e-07 0)
(-1.92911e-09 -7.09329e-07 0)
(-1.90085e-09 -7.06231e-07 0)
(-1.87242e-09 -7.03179e-07 0)
(-1.84382e-09 -7.00173e-07 0)
(-1.81508e-09 -6.97214e-07 0)
(-1.78619e-09 -6.94301e-07 0)
(-1.75717e-09 -6.91435e-07 0)
(-1.72803e-09 -6.88616e-07 0)
(-1.69877e-09 -6.85845e-07 0)
(-1.6694e-09 -6.83121e-07 0)
(-1.63993e-09 -6.80444e-07 0)
(-1.61036e-09 -6.77815e-07 0)
(-1.58069e-09 -6.75234e-07 0)
(-1.55094e-09 -6.72701e-07 0)
(-1.5211e-09 -6.70217e-07 0)
(-1.49117e-09 -6.6778e-07 0)
(-1.46117e-09 -6.65392e-07 0)
(-1.43108e-09 -6.63053e-07 0)
(-1.40093e-09 -6.60762e-07 0)
(-1.37069e-09 -6.58521e-07 0)
(-1.34039e-09 -6.56328e-07 0)
(-1.31001e-09 -6.54184e-07 0)
(-1.27956e-09 -6.5209e-07 0)
(-1.24904e-09 -6.50045e-07 0)
(-1.21846e-09 -6.48049e-07 0)
(-1.1878e-09 -6.46103e-07 0)
(-1.15708e-09 -6.44206e-07 0)
(-1.12628e-09 -6.4236e-07 0)
(-1.09542e-09 -6.40563e-07 0)
(-1.06449e-09 -6.38816e-07 0)
(-1.0335e-09 -6.37119e-07 0)
(-1.00243e-09 -6.35472e-07 0)
(-9.713e-10 -6.33876e-07 0)
(-9.40101e-10 -6.3233e-07 0)
(-9.08836e-10 -6.30834e-07 0)
(-8.77504e-10 -6.29389e-07 0)
(-8.46106e-10 -6.27995e-07 0)
(-8.14643e-10 -6.26652e-07 0)
(-7.83115e-10 -6.2536e-07 0)
(-7.51524e-10 -6.24119e-07 0)
(-7.1987e-10 -6.22928e-07 0)
(-6.88154e-10 -6.2179e-07 0)
(-6.56378e-10 -6.20702e-07 0)
(-6.24543e-10 -6.19666e-07 0)
(-5.92651e-10 -6.18682e-07 0)
(-5.60704e-10 -6.17749e-07 0)
(-5.28703e-10 -6.16868e-07 0)
(-4.9665e-10 -6.16038e-07 0)
(-4.64548e-10 -6.15261e-07 0)
(-4.32399e-10 -6.14535e-07 0)
(-4.00205e-10 -6.13862e-07 0)
(-3.6797e-10 -6.13241e-07 0)
(-3.35696e-10 -6.1267e-07 0)
(-3.03386e-10 -6.12157e-07 0)
(-2.71042e-10 -6.1168e-07 0)
(-2.38673e-10 -6.1131e-07 0)
(-2.06259e-10 -6.10808e-07 0)
(-1.73885e-10 -6.10964e-07 0)
(-1.41281e-10 -6.09122e-07 0)
(-1.09366e-10 -6.13875e-07 0)
(-7.52007e-11 -5.95357e-07 0)
(-4.89221e-11 -6.44146e-07 0)
(-2.0675e-11 -5.62563e-07 0)
)
;
    }
    bottomWall
    {
        type            calculated;
        value           nonuniform List<vector> 
449
(
(-48.539 -0.964197 0)
(-19.7539 -0.00515609 0)
(-14.3454 -0.00113502 0)
(-12.0352 -0.000545615 0)
(-10.6288 -0.000351589 0)
(-9.63474 -0.000256064 0)
(-8.87646 -0.000198541 0)
(-8.27278 -0.00015986 0)
(-7.77721 -0.000132362 0)
(-7.36046 -0.00011201 0)
(-7.00336 -9.64052e-05 0)
(-6.69285 -8.40948e-05 0)
(-6.41961 -7.41741e-05 0)
(-6.17675 -6.60442e-05 0)
(-5.959 -5.92854e-05 0)
(-5.76229 -5.35943e-05 0)
(-5.58344 -4.87486e-05 0)
(-5.41989 -4.45826e-05 0)
(-5.26956 -4.097e-05 0)
(-5.13076 -3.78135e-05 0)
(-5.00207 -3.50364e-05 0)
(-4.88233 -3.2578e-05 0)
(-4.77053 -3.03893e-05 0)
(-4.66583 -2.84309e-05 0)
(-4.56751 -2.66701e-05 0)
(-4.47494 -2.50804e-05 0)
(-4.38757 -2.36392e-05 0)
(-4.30493 -2.23281e-05 0)
(-4.22661 -2.11311e-05 0)
(-4.15225 -2.00349e-05 0)
(-4.08151 -1.9028e-05 0)
(-4.01411 -1.81006e-05 0)
(-3.94979 -1.72442e-05 0)
(-3.88833 -1.64515e-05 0)
(-3.82951 -1.5716e-05 0)
(-3.77315 -1.50321e-05 0)
(-3.71909 -1.4395e-05 0)
(-3.66716 -1.38003e-05 0)
(-3.61723 -1.32442e-05 0)
(-3.56918 -1.27233e-05 0)
(-3.52288 -1.22345e-05 0)
(-3.47824 -1.17751e-05 0)
(-3.43515 -1.13429e-05 0)
(-3.39353 -1.09354e-05 0)
(-3.35329 -1.0551e-05 0)
(-3.31436 -1.01877e-05 0)
(-3.27667 -9.84396e-06 0)
(-3.24015 -9.51839e-06 0)
(-3.20474 -9.20968e-06 0)
(-3.17039 -8.91662e-06 0)
(-3.13704 -8.63813e-06 0)
(-3.10465 -8.37324e-06 0)
(-3.07317 -8.12102e-06 0)
(-3.04256 -7.88067e-06 0)
(-3.01277 -7.6514e-06 0)
(-2.98378 -7.43254e-06 0)
(-2.95554 -7.22343e-06 0)
(-2.92802 -7.02348e-06 0)
(-2.9012 -6.83215e-06 0)
(-2.87504 -6.64892e-06 0)
(-2.84951 -6.47333e-06 0)
(-2.8246 -6.30494e-06 0)
(-2.80027 -6.14335e-06 0)
(-2.7765 -5.98819e-06 0)
(-2.75328 -5.83911e-06 0)
(-2.73057 -5.69577e-06 0)
(-2.70837 -5.55789e-06 0)
(-2.68665 -5.42517e-06 0)
(-2.6654 -5.29735e-06 0)
(-2.64459 -5.17419e-06 0)
(-2.62421 -5.05545e-06 0)
(-2.60426 -4.94091e-06 0)
(-2.5847 -4.83038e-06 0)
(-2.56554 -4.72366e-06 0)
(-2.54675 -4.62057e-06 0)
(-2.52833 -4.52095e-06 0)
(-2.51026 -4.42463e-06 0)
(-2.49253 -4.33146e-06 0)
(-2.47513 -4.24131e-06 0)
(-2.45805 -4.15403e-06 0)
(-2.44128 -4.06952e-06 0)
(-2.42481 -3.98763e-06 0)
(-2.40863 -3.90828e-06 0)
(-2.39273 -3.83133e-06 0)
(-2.37711 -3.75671e-06 0)
(-2.36176 -3.68431e-06 0)
(-2.34666 -3.61404e-06 0)
(-2.33182 -3.54581e-06 0)
(-2.31722 -3.47955e-06 0)
(-2.30286 -3.41518e-06 0)
(-2.28873 -3.35262e-06 0)
(-2.27482 -3.29181e-06 0)
(-2.26113 -3.23267e-06 0)
(-2.24766 -3.17514e-06 0)
(-2.23439 -3.11918e-06 0)
(-2.22132 -3.06471e-06 0)
(-2.20846 -3.01168e-06 0)
(-2.19578 -2.96004e-06 0)
(-2.18329 -2.90974e-06 0)
(-2.17098 -2.86074e-06 0)
(-2.15885 -2.81298e-06 0)
(-2.1469 -2.76643e-06 0)
(-2.13511 -2.72104e-06 0)
(-2.12349 -2.67677e-06 0)
(-2.11203 -2.63359e-06 0)
(-2.10072 -2.59146e-06 0)
(-2.08958 -2.55035e-06 0)
(-2.07858 -2.51021e-06 0)
(-2.06772 -2.47103e-06 0)
(-2.05702 -2.43276e-06 0)
(-2.04645 -2.39538e-06 0)
(-2.03602 -2.35886e-06 0)
(-2.02572 -2.32318e-06 0)
(-2.01555 -2.28831e-06 0)
(-2.00552 -2.25422e-06 0)
(-1.99561 -2.22089e-06 0)
(-1.98582 -2.18829e-06 0)
(-1.97615 -2.15641e-06 0)
(-1.9666 -2.12523e-06 0)
(-1.95716 -2.09471e-06 0)
(-1.94784 -2.06485e-06 0)
(-1.93863 -2.03562e-06 0)
(-1.92953 -2.00701e-06 0)
(-1.92053 -1.97899e-06 0)
(-1.91164 -1.95156e-06 0)
(-1.90285 -1.92469e-06 0)
(-1.89416 -1.89837e-06 0)
(-1.88557 -1.87258e-06 0)
(-1.87707 -1.84731e-06 0)
(-1.86867 -1.82254e-06 0)
(-1.86036 -1.79827e-06 0)
(-1.85214 -1.77448e-06 0)
(-1.84402 -1.75114e-06 0)
(-1.83598 -1.72827e-06 0)
(-1.82802 -1.70583e-06 0)
(-1.82015 -1.68382e-06 0)
(-1.81236 -1.66223e-06 0)
(-1.80466 -1.64105e-06 0)
(-1.79703 -1.62026e-06 0)
(-1.78948 -1.59986e-06 0)
(-1.78201 -1.57984e-06 0)
(-1.77462 -1.56018e-06 0)
(-1.7673 -1.54089e-06 0)
(-1.76005 -1.52194e-06 0)
(-1.75288 -1.50333e-06 0)
(-1.74577 -1.48506e-06 0)
(-1.73874 -1.46711e-06 0)
(-1.73177 -1.44948e-06 0)
(-1.72487 -1.43215e-06 0)
(-1.71804 -1.41513e-06 0)
(-1.71127 -1.39841e-06 0)
(-1.70457 -1.38197e-06 0)
(-1.69793 -1.36581e-06 0)
(-1.69135 -1.34993e-06 0)
(-1.68483 -1.33431e-06 0)
(-1.67838 -1.31896e-06 0)
(-1.67198 -1.30387e-06 0)
(-1.66564 -1.28902e-06 0)
(-1.65935 -1.27442e-06 0)
(-1.65313 -1.26006e-06 0)
(-1.64695 -1.24594e-06 0)
(-1.64084 -1.23204e-06 0)
(-1.63477 -1.21837e-06 0)
(-1.62876 -1.20491e-06 0)
(-1.6228 -1.19167e-06 0)
(-1.6169 -1.17865e-06 0)
(-1.61104 -1.16582e-06 0)
(-1.60524 -1.15321e-06 0)
(-1.59948 -1.14081e-06 0)
(-1.59377 -1.12847e-06 0)
(-1.58811 -1.11677e-06 0)
(-1.58249 -1.10465e-06 0)
(-1.57693 -1.09151e-06 0)
(-1.57173 -1.08133e-06 0)
(-1.56683 -1.07309e-06 0)
(-1.56192 -1.06272e-06 0)
(-1.55702 -1.05202e-06 0)
(-1.55211 -1.042e-06 0)
(-1.54719 -1.03195e-06 0)
(-1.54226 -1.02203e-06 0)
(-1.53733 -1.01216e-06 0)
(-1.5324 -1.00237e-06 0)
(-1.52746 -9.92627e-07 0)
(-1.52251 -9.82948e-07 0)
(-1.51756 -9.73325e-07 0)
(-1.51261 -9.63757e-07 0)
(-1.50765 -9.54245e-07 0)
(-1.50269 -9.44789e-07 0)
(-1.49772 -9.35387e-07 0)
(-1.49275 -9.26042e-07 0)
(-1.48777 -9.16751e-07 0)
(-1.48279 -9.07516e-07 0)
(-1.47781 -8.98337e-07 0)
(-1.47282 -8.89215e-07 0)
(-1.46784 -8.80148e-07 0)
(-1.46285 -8.71138e-07 0)
(-1.45785 -8.62185e-07 0)
(-1.45286 -8.53289e-07 0)
(-1.44786 -8.44451e-07 0)
(-1.44286 -8.3567e-07 0)
(-1.43786 -8.26946e-07 0)
(-1.43285 -8.18281e-07 0)
(-1.42785 -8.09673e-07 0)
(-1.42284 -8.01124e-07 0)
(-1.41784 -7.92633e-07 0)
(-1.41283 -7.84201e-07 0)
(-1.40782 -7.75828e-07 0)
(-1.40282 -7.67513e-07 0)
(-1.39781 -7.59258e-07 0)
(-1.3928 -7.51062e-07 0)
(-1.38779 -7.42925e-07 0)
(-1.38279 -7.34847e-07 0)
(-1.37778 -7.26829e-07 0)
(-1.37278 -7.1887e-07 0)
(-1.36777 -7.1097e-07 0)
(-1.36277 -7.03131e-07 0)
(-1.35777 -6.95351e-07 0)
(-1.35277 -6.87631e-07 0)
(-1.34777 -6.7997e-07 0)
(-1.34278 -6.72369e-07 0)
(-1.33778 -6.64828e-07 0)
(-1.33279 -6.57347e-07 0)
(-1.3278 -6.49925e-07 0)
(-1.32282 -6.42563e-07 0)
(-1.31784 -6.35261e-07 0)
(-1.31286 -6.28019e-07 0)
(-1.30788 -6.20836e-07 0)
(-1.30291 -6.13712e-07 0)
(-1.29794 -6.06649e-07 0)
(-1.29297 -5.99644e-07 0)
(-1.28801 -5.92699e-07 0)
(-1.28306 -5.85813e-07 0)
(-1.27811 -5.78986e-07 0)
(-1.27316 -5.72218e-07 0)
(-1.26822 -5.65509e-07 0)
(-1.26328 -5.58859e-07 0)
(-1.25834 -5.52268e-07 0)
(-1.25342 -5.45735e-07 0)
(-1.2485 -5.3926e-07 0)
(-1.24358 -5.32844e-07 0)
(-1.23867 -5.26486e-07 0)
(-1.23376 -5.20185e-07 0)
(-1.22887 -5.13943e-07 0)
(-1.22397 -5.07757e-07 0)
(-1.21909 -5.0163e-07 0)
(-1.21421 -4.95559e-07 0)
(-1.20934 -4.89545e-07 0)
(-1.20447 -4.83589e-07 0)
(-1.19961 -4.77688e-07 0)
(-1.19476 -4.71844e-07 0)
(-1.18992 -4.66056e-07 0)
(-1.18508 -4.60324e-07 0)
(-1.18025 -4.54648e-07 0)
(-1.17543 -4.49027e-07 0)
(-1.17062 -4.43461e-07 0)
(-1.16581 -4.3795e-07 0)
(-1.16102 -4.32494e-07 0)
(-1.15623 -4.27092e-07 0)
(-1.15145 -4.21744e-07 0)
(-1.14668 -4.16451e-07 0)
(-1.14192 -4.1121e-07 0)
(-1.13716 -4.06023e-07 0)
(-1.13242 -4.00889e-07 0)
(-1.12768 -3.95808e-07 0)
(-1.12296 -3.9078e-07 0)
(-1.11824 -3.85803e-07 0)
(-1.11353 -3.80878e-07 0)
(-1.10883 -3.76005e-07 0)
(-1.10415 -3.71183e-07 0)
(-1.09947 -3.66413e-07 0)
(-1.0948 -3.61692e-07 0)
(-1.09014 -3.57022e-07 0)
(-1.0855 -3.52402e-07 0)
(-1.08086 -3.47832e-07 0)
(-1.07623 -3.43312e-07 0)
(-1.07162 -3.3884e-07 0)
(-1.06701 -3.34417e-07 0)
(-1.06242 -3.30042e-07 0)
(-1.05783 -3.25716e-07 0)
(-1.05326 -3.21437e-07 0)
(-1.0487 -3.17205e-07 0)
(-1.04415 -3.13021e-07 0)
(-1.03961 -3.08884e-07 0)
(-1.03508 -3.04792e-07 0)
(-1.03056 -3.00747e-07 0)
(-1.02606 -2.96748e-07 0)
(-1.02156 -2.92794e-07 0)
(-1.01708 -2.88885e-07 0)
(-1.01261 -2.8502e-07 0)
(-1.00816 -2.812e-07 0)
(-1.00371 -2.77424e-07 0)
(-0.999277 -2.73692e-07 0)
(-0.994856 -2.70003e-07 0)
(-0.990446 -2.66356e-07 0)
(-0.98605 -2.62753e-07 0)
(-0.981665 -2.59191e-07 0)
(-0.977293 -2.55672e-07 0)
(-0.972934 -2.52194e-07 0)
(-0.968587 -2.48757e-07 0)
(-0.964253 -2.45361e-07 0)
(-0.959932 -2.42006e-07 0)
(-0.955623 -2.3869e-07 0)
(-0.951327 -2.35415e-07 0)
(-0.947045 -2.32179e-07 0)
(-0.942775 -2.28982e-07 0)
(-0.938519 -2.25823e-07 0)
(-0.934275 -2.22703e-07 0)
(-0.930045 -2.19621e-07 0)
(-0.925828 -2.16577e-07 0)
(-0.921624 -2.1357e-07 0)
(-0.917434 -2.106e-07 0)
(-0.913257 -2.07667e-07 0)
(-0.909093 -2.0477e-07 0)
(-0.904944 -2.01909e-07 0)
(-0.900807 -1.99083e-07 0)
(-0.896684 -1.96293e-07 0)
(-0.892575 -1.93537e-07 0)
(-0.88848 -1.90817e-07 0)
(-0.884398 -1.8813e-07 0)
(-0.88033 -1.85477e-07 0)
(-0.876276 -1.82858e-07 0)
(-0.872236 -1.80272e-07 0)
(-0.868209 -1.77719e-07 0)
(-0.864197 -1.75199e-07 0)
(-0.860199 -1.7271e-07 0)
(-0.856214 -1.70254e-07 0)
(-0.852244 -1.67829e-07 0)
(-0.848287 -1.65436e-07 0)
(-0.844345 -1.63073e-07 0)
(-0.840417 -1.60741e-07 0)
(-0.836502 -1.58439e-07 0)
(-0.832603 -1.56167e-07 0)
(-0.828717 -1.53925e-07 0)
(-0.824845 -1.51712e-07 0)
(-0.820988 -1.49528e-07 0)
(-0.817145 -1.47373e-07 0)
(-0.813316 -1.45246e-07 0)
(-0.809501 -1.43147e-07 0)
(-0.805701 -1.41075e-07 0)
(-0.801915 -1.39032e-07 0)
(-0.798144 -1.37015e-07 0)
(-0.794387 -1.35025e-07 0)
(-0.790644 -1.33062e-07 0)
(-0.786915 -1.31125e-07 0)
(-0.783201 -1.29213e-07 0)
(-0.779501 -1.27328e-07 0)
(-0.775816 -1.25467e-07 0)
(-0.772145 -1.23631e-07 0)
(-0.768489 -1.21819e-07 0)
(-0.764847 -1.20033e-07 0)
(-0.761219 -1.18266e-07 0)
(-0.757606 -1.16489e-07 0)
(-0.75401 -1.14858e-07 0)
(-0.750421 -1.13237e-07 0)
(-0.746447 -1.11263e-07 0)
(-0.742138 -1.09169e-07 0)
(-0.737908 -1.07283e-07 0)
(-0.733746 -1.05495e-07 0)
(-0.729656 -1.03694e-07 0)
(-0.725635 -1.01928e-07 0)
(-0.721683 -1.00207e-07 0)
(-0.717797 -9.85324e-08 0)
(-0.713975 -9.69023e-08 0)
(-0.710217 -9.53157e-08 0)
(-0.70652 -9.37712e-08 0)
(-0.702882 -9.22675e-08 0)
(-0.699302 -9.08032e-08 0)
(-0.695779 -8.93769e-08 0)
(-0.692311 -8.79873e-08 0)
(-0.688897 -8.6633e-08 0)
(-0.685535 -8.53129e-08 0)
(-0.682224 -8.40257e-08 0)
(-0.678962 -8.27704e-08 0)
(-0.675749 -8.15457e-08 0)
(-0.672584 -8.03508e-08 0)
(-0.669464 -7.91846e-08 0)
(-0.66639 -7.80461e-08 0)
(-0.66336 -7.69344e-08 0)
(-0.660372 -7.58487e-08 0)
(-0.657427 -7.47882e-08 0)
(-0.654522 -7.3752e-08 0)
(-0.651658 -7.27393e-08 0)
(-0.648833 -7.17494e-08 0)
(-0.646046 -7.07817e-08 0)
(-0.643296 -6.98354e-08 0)
(-0.640583 -6.89099e-08 0)
(-0.637906 -6.80045e-08 0)
(-0.635264 -6.71186e-08 0)
(-0.632656 -6.62518e-08 0)
(-0.630082 -6.54033e-08 0)
(-0.62754 -6.45727e-08 0)
(-0.625031 -6.37595e-08 0)
(-0.622553 -6.29631e-08 0)
(-0.620106 -6.21831e-08 0)
(-0.61769 -6.1419e-08 0)
(-0.615302 -6.06704e-08 0)
(-0.612944 -5.99368e-08 0)
(-0.610614 -5.92179e-08 0)
(-0.608312 -5.85132e-08 0)
(-0.606037 -5.78224e-08 0)
(-0.603789 -5.7145e-08 0)
(-0.601568 -5.64808e-08 0)
(-0.599372 -5.58293e-08 0)
(-0.597201 -5.51903e-08 0)
(-0.595055 -5.45634e-08 0)
(-0.592933 -5.39484e-08 0)
(-0.590835 -5.33449e-08 0)
(-0.588761 -5.27526e-08 0)
(-0.586709 -5.21713e-08 0)
(-0.58468 -5.16007e-08 0)
(-0.582673 -5.10405e-08 0)
(-0.580688 -5.04906e-08 0)
(-0.578724 -4.99506e-08 0)
(-0.576781 -4.94203e-08 0)
(-0.574859 -4.88996e-08 0)
(-0.572956 -4.83881e-08 0)
(-0.571074 -4.78858e-08 0)
(-0.569211 -4.73924e-08 0)
(-0.567367 -4.69077e-08 0)
(-0.565542 -4.64316e-08 0)
(-0.563735 -4.59639e-08 0)
(-0.561947 -4.55045e-08 0)
(-0.560176 -4.50533e-08 0)
(-0.558423 -4.461e-08 0)
(-0.556687 -4.41747e-08 0)
(-0.554968 -4.37472e-08 0)
(-0.553266 -4.33275e-08 0)
(-0.551579 -4.29155e-08 0)
(-0.549909 -4.25113e-08 0)
(-0.548254 -4.21149e-08 0)
(-0.546615 -4.17264e-08 0)
(-0.544991 -4.13459e-08 0)
(-0.543381 -4.09739e-08 0)
(-0.541786 -4.06106e-08 0)
(-0.540205 -4.02567e-08 0)
(-0.538637 -3.9913e-08 0)
(-0.537083 -3.95811e-08 0)
(-0.535542 -3.92621e-08 0)
(-0.534012 -3.89591e-08 0)
(-0.532495 -3.8684e-08 0)
(-0.530987 -3.84095e-08 0)
(-0.529491 -3.81899e-08 0)
(-0.528 -3.82385e-08 0)
(-0.5265 -3.76004e-08 0)
(-0.525059 -3.6732e-08 0)
(-0.523627 -4.85962e-08 0)
(-0.521258 -1.34082e-08 0)
(-0.522589 -3.57508e-08 0)
(-0.518419 -5.42398e-08 0)
)
;
    }
    symmetry
    {
        type            symmetryPlane;
    }
    frontAndBack
    {
        type            empty;
    }
}


// ************************************************************************* //
