/*--------------------------------*- C++ -*----------------------------------*\
| =========                 |                                                 |
| \\      /  F ield         | OpenFOAM: The Open Source CFD Toolbox           |
|  \\    /   O peration     | Version:  v2012                                 |
|   \\  /    A nd           | Website:  www.openfoam.com                      |
|    \\/     M anipulation  |                                                 |
\*---------------------------------------------------------------------------*/
FoamFile
{
    version     2.0;
    format      ascii;
    class       volScalarField;
    location    "33";
    object      yPlus;
}
// * * * * * * * * * * * * * * * * * * * * * * * * * * * * * * * * * * * * * //

dimensions      [0 0 0 0 0 0 0];


internalField   uniform 0;

boundaryField
{
    inlet
    {
        type            calculated;
        value           uniform 0;
    }
    outlet
    {
        type            calculated;
        value           uniform 0;
    }
    topWall
    {
        type            calculated;
        value           nonuniform List<scalar> 
545
(
0.0708041
0.122087
0.15662
0.184092
0.207336
0.227662
0.245802
0.26222
0.27723
0.291059
0.303877
0.315816
0.326979
0.337453
0.347306
0.356599
0.365382
0.373697
0.381583
0.389072
0.396194
0.402974
0.409436
0.415601
0.421487
0.427112
0.432491
0.437639
0.442569
0.447292
0.451821
0.456165
0.460335
0.464338
0.468184
0.47188
0.475433
0.478851
0.48214
0.485305
0.488353
0.491288
0.494116
0.496841
0.499469
0.502002
0.504446
0.506804
0.509079
0.511275
0.513396
0.515443
0.517421
0.519332
0.521179
0.522963
0.524689
0.526357
0.52797
0.52953
0.53104
0.5325
0.533913
0.535281
0.536605
0.537887
0.539129
0.540331
0.541495
0.542623
0.543716
0.544774
0.545787
0.546766
0.547736
0.548697
0.54965
0.550594
0.55153
0.552458
0.553377
0.554288
0.555191
0.556086
0.556973
0.557853
0.558724
0.559588
0.560444
0.561293
0.562135
0.562969
0.563796
0.564615
0.565428
0.566233
0.566959
0.567607
0.568254
0.568901
0.569547
0.570192
0.570837
0.571481
0.572124
0.572767
0.573409
0.57405
0.574691
0.57533
0.57597
0.576608
0.577246
0.577883
0.578519
0.579154
0.579789
0.580423
0.581056
0.581688
0.582319
0.58295
0.58358
0.584209
0.584837
0.585465
0.586091
0.586717
0.587342
0.587966
0.588589
0.589211
0.589832
0.590453
0.591072
0.591691
0.592308
0.592925
0.593541
0.594156
0.59477
0.595383
0.595995
0.596606
0.597216
0.597825
0.598433
0.59904
0.599646
0.600251
0.600855
0.601458
0.60206
0.602661
0.60326
0.603859
0.604456
0.605053
0.605648
0.606243
0.606836
0.607428
0.608019
0.608608
0.609197
0.609784
0.61037
0.610955
0.611539
0.612122
0.612703
0.613283
0.613862
0.61444
0.615017
0.615592
0.616166
0.616738
0.61731
0.61788
0.618449
0.619016
0.619582
0.620147
0.62071
0.621273
0.621833
0.622393
0.622951
0.623507
0.624062
0.624616
0.625169
0.62572
0.626269
0.626817
0.627364
0.627909
0.628452
0.628995
0.629535
0.630074
0.630612
0.631148
0.631683
0.632216
0.632747
0.633277
0.633805
0.634332
0.634857
0.635381
0.635902
0.636423
0.636941
0.637458
0.637973
0.638487
0.638999
0.639509
0.640018
0.640524
0.64103
0.641533
0.642034
0.642534
0.643032
0.643529
0.644023
0.644516
0.645007
0.645496
0.645983
0.646469
0.646952
0.647434
0.647914
0.648392
0.648868
0.649342
0.649814
0.650284
0.650753
0.651219
0.651683
0.652146
0.652606
0.653065
0.653522
0.653976
0.654428
0.654879
0.655327
0.655774
0.656218
0.65666
0.6571
0.657538
0.657974
0.658408
0.65884
0.659269
0.659697
0.660122
0.660545
0.660966
0.661385
0.661801
0.662215
0.662604
0.66297
0.663338
0.663706
0.664076
0.664448
0.66482
0.665194
0.665569
0.665945
0.666322
0.6667
0.667079
0.667459
0.66784
0.668222
0.668604
0.668987
0.669371
0.669756
0.670141
0.670527
0.670913
0.671299
0.671686
0.672073
0.67246
0.672847
0.673235
0.673622
0.674009
0.674396
0.674783
0.675169
0.675555
0.67594
0.676325
0.676709
0.677092
0.677475
0.677856
0.678237
0.678616
0.678993
0.67937
0.679745
0.680118
0.68049
0.680859
0.681227
0.681593
0.681956
0.682318
0.682676
0.683032
0.683386
0.683736
0.684084
0.684429
0.68477
0.685108
0.685442
0.685772
0.686099
0.686422
0.68674
0.687054
0.687364
0.687669
0.687969
0.688265
0.688555
0.68884
0.689119
0.689392
0.68966
0.689922
0.690177
0.690426
0.690668
0.690904
0.691132
0.691353
0.691567
0.691773
0.691972
0.692162
0.692344
0.692518
0.692683
0.692839
0.692986
0.693124
0.693252
0.69337
0.693479
0.693577
0.693665
0.693742
0.693808
0.693863
0.693907
0.693939
0.69396
0.693968
0.693965
0.693948
0.693919
0.693877
0.693822
0.693754
0.693672
0.693576
0.693466
0.693341
0.693203
0.693049
0.69288
0.692697
0.692497
0.692282
0.692052
0.691805
0.691542
0.691263
0.690967
0.690654
0.690324
0.689977
0.689612
0.68923
0.688831
0.688413
0.687977
0.687523
0.68705
0.686559
0.68605
0.685521
0.684974
0.684408
0.683822
0.683217
0.682593
0.68195
0.681287
0.680604
0.679902
0.67918
0.678438
0.677677
0.676896
0.676095
0.675274
0.674434
0.673574
0.672694
0.671794
0.670875
0.669936
0.668978
0.668001
0.667004
0.665988
0.664953
0.663899
0.662827
0.661736
0.660626
0.659498
0.658353
0.657189
0.656008
0.65481
0.653594
0.652362
0.651113
0.649849
0.648568
0.647272
0.64596
0.644485
0.642853
0.641222
0.639593
0.637967
0.636344
0.634725
0.633112
0.631504
0.629903
0.628309
0.626722
0.625144
0.623575
0.622016
0.620466
0.618927
0.617399
0.615882
0.614377
0.612884
0.611405
0.609938
0.608484
0.607044
0.605619
0.604207
0.602811
0.601429
0.600062
0.598711
0.597376
0.596057
0.594754
0.593468
0.592198
0.590946
0.58971
0.588492
0.587291
0.586108
0.584943
0.583796
0.582667
0.581557
0.580465
0.579392
0.578338
0.577303
0.576288
0.575291
0.574315
0.573358
0.572421
0.571504
0.570607
0.569731
0.568874
0.568039
0.567224
0.56643
0.565657
0.564906
0.564175
0.563466
0.562779
0.562113
0.561469
0.560847
0.560247
0.559669
0.559113
0.55858
0.558069
0.557581
0.557115
0.556673
0.556253
0.555856
0.555482
0.555132
0.554804
0.5545
0.55422
0.553962
0.553729
0.553519
0.553332
0.553169
0.55303
0.552914
0.552823
0.552754
0.552713
0.552682
)
;
    }
    bottomWall
    {
        type            calculated;
        value           nonuniform List<scalar> 
449
(
0.139463
0.088967
0.0758155
0.0694431
0.0652596
0.062133
0.0596378
0.0575742
0.0558231
0.0543069
0.0529731
0.0517854
0.0507173
0.0497487
0.048864
0.0480507
0.0472991
0.0466012
0.0459504
0.0453412
0.044769
0.0442299
0.0437205
0.0432381
0.0427801
0.0423443
0.0419289
0.0415322
0.0411527
0.0407891
0.0404401
0.0401048
0.0397822
0.0394715
0.0391718
0.0388825
0.0386029
0.0383325
0.0380706
0.0378169
0.0375709
0.0373321
0.0371001
0.0368747
0.0366554
0.036442
0.0362342
0.0360317
0.0358343
0.0356417
0.0354538
0.0352703
0.035091
0.0349158
0.0347444
0.0345768
0.0344128
0.0342523
0.034095
0.0339409
0.0337899
0.0336419
0.0334967
0.0333542
0.0332144
0.0330772
0.0329425
0.0328101
0.0326801
0.0325523
0.0324266
0.0323031
0.0321816
0.0320621
0.0319445
0.0318287
0.0317147
0.0316025
0.031492
0.0313832
0.031276
0.0311703
0.0310661
0.0309634
0.0308622
0.0307624
0.0306639
0.0305668
0.0304709
0.0303763
0.030283
0.0301909
0.0300999
0.0300101
0.0299214
0.0298338
0.0297472
0.0296617
0.0295772
0.0294938
0.0294113
0.0293297
0.0292491
0.0291694
0.0290905
0.0290126
0.0289355
0.0288593
0.0287838
0.0287092
0.0286353
0.0285623
0.02849
0.0284184
0.0283475
0.0282774
0.028208
0.0281392
0.0280711
0.0280037
0.0279369
0.0278708
0.0278053
0.0277404
0.0276761
0.0276124
0.0275493
0.0274867
0.0274247
0.0273633
0.0273024
0.027242
0.0271822
0.0271229
0.027064
0.0270057
0.0269479
0.0268905
0.0268337
0.0267772
0.0267213
0.0266658
0.0266108
0.0265561
0.026502
0.0264482
0.0263949
0.0263419
0.0262894
0.0262373
0.0261856
0.0261342
0.0260833
0.0260327
0.0259825
0.0259326
0.0258832
0.025834
0.0257853
0.0257368
0.0256887
0.025641
0.0255936
0.0255465
0.0254997
0.0254533
0.0254071
0.0253613
0.0253158
0.0252706
0.0252256
0.025181
0.0251367
0.0250952
0.0250561
0.0250168
0.0249775
0.0249381
0.0248985
0.0248589
0.0248191
0.0247792
0.0247393
0.0246992
0.024659
0.0246187
0.0245783
0.0245378
0.0244972
0.0244565
0.0244157
0.0243749
0.0243339
0.0242928
0.0242516
0.0242104
0.024169
0.0241276
0.024086
0.0240444
0.0240027
0.0239609
0.023919
0.0238771
0.023835
0.0237929
0.0237507
0.0237084
0.0236661
0.0236236
0.0235811
0.0235386
0.0234959
0.0234532
0.0234104
0.0233676
0.0233246
0.0232817
0.0232386
0.0231955
0.0231523
0.0231091
0.0230658
0.0230225
0.0229791
0.0229356
0.0228921
0.0228486
0.022805
0.0227613
0.0227176
0.0226738
0.02263
0.0225862
0.0225423
0.0224984
0.0224544
0.0224104
0.0223664
0.0223223
0.0222782
0.022234
0.0221898
0.0221456
0.0221014
0.0220571
0.0220128
0.0219685
0.0219241
0.0218798
0.0218354
0.021791
0.0217465
0.0217021
0.0216576
0.0216131
0.0215686
0.0215241
0.0214795
0.021435
0.0213904
0.0213458
0.0213013
0.0212567
0.0212121
0.0211675
0.0211229
0.0210783
0.0210337
0.0209891
0.0209445
0.0208999
0.0208553
0.0208107
0.0207661
0.0207215
0.0206769
0.0206324
0.0205878
0.0205433
0.0204987
0.0204542
0.0204097
0.0203652
0.0203207
0.0202763
0.0202318
0.0201874
0.020143
0.0200986
0.0200542
0.0200099
0.0199656
0.0199213
0.019877
0.0198328
0.0197886
0.0197444
0.0197002
0.0196561
0.019612
0.019568
0.0195239
0.0194799
0.019436
0.019392
0.0193481
0.0193043
0.0192605
0.0192167
0.019173
0.0191293
0.0190856
0.019042
0.0189984
0.0189549
0.0189114
0.018868
0.0188246
0.0187813
0.018738
0.0186947
0.0186515
0.0186084
0.0185653
0.0185222
0.0184792
0.0184363
0.0183934
0.0183506
0.0183078
0.0182651
0.0182224
0.0181798
0.0181372
0.0180947
0.0180523
0.0180099
0.0179676
0.0179253
0.0178831
0.0178409
0.0177989
0.0177569
0.0177149
0.017673
0.0176312
0.0175894
0.0175477
0.0175061
0.0174645
0.017423
0.0173816
0.0173402
0.0172942
0.0172443
0.017195
0.0171465
0.0170986
0.0170514
0.0170049
0.0169591
0.0169139
0.0168693
0.0168254
0.016782
0.0167392
0.016697
0.0166553
0.0166142
0.0165736
0.0165335
0.016494
0.0164549
0.0164163
0.0163782
0.0163405
0.0163033
0.0162666
0.0162303
0.0161944
0.0161589
0.0161238
0.0160892
0.0160549
0.016021
0.0159875
0.0159544
0.0159216
0.0158891
0.0158571
0.0158253
0.0157939
0.0157629
0.0157321
0.0157017
0.0156716
0.0156418
0.0156122
0.015583
0.0155541
0.0155255
0.0154971
0.015469
0.0154412
0.0154136
0.0153863
0.0153593
0.0153325
0.015306
0.0152797
0.0152536
0.0152278
0.0152022
0.0151769
0.0151517
0.0151268
0.0151021
0.0150777
0.0150534
0.0150293
0.0150055
0.0149818
0.0149584
0.0149351
0.014912
0.0148891
0.0148664
0.0148439
0.0148215
0.0147994
0.0147774
0.0147555
0.0147338
0.0147123
0.014691
0.0146698
0.0146487
0.0146278
0.014607
0.0145863
0.0145657
0.0145452
0.0145245
0.0145046
0.0144848
0.014452
0.0144705
0.0144126
)
;
    }
    symmetry
    {
        type            symmetryPlane;
    }
    frontAndBack
    {
        type            empty;
    }
}


// ************************************************************************* //
