/*--------------------------------*- C++ -*----------------------------------*\
| =========                 |                                                 |
| \\      /  F ield         | OpenFOAM: The Open Source CFD Toolbox           |
|  \\    /   O peration     | Version:  v2012                                 |
|   \\  /    A nd           | Website:  www.openfoam.com                      |
|    \\/     M anipulation  |                                                 |
\*---------------------------------------------------------------------------*/
FoamFile
{
    version     2.0;
    format      ascii;
    class       volScalarField;
    location    "26.5";
    object      k;
}
// * * * * * * * * * * * * * * * * * * * * * * * * * * * * * * * * * * * * * //

dimensions      [0 2 -2 0 0 0 0];


internalField   nonuniform List<scalar> 
209825
(
0.00102339
0.000928591
0.000856225
0.000803115
0.000763835
0.000734195
0.000711077
0.000692721
0.000677693
0.000665318
0.000654827
0.00064597
0.000638272
0.000631659
0.000625783
0.000620691
0.000616088
0.000612073
0.000608385
0.000605153
0.000602144
0.000599503
0.000597003
0.000594817
0.000592727
0.000590902
0.000589133
0.000587589
0.000586095
0.000584784
0.000583491
0.000582381
0.000581279
0.000580334
0.000579387
0.000578575
0.00057774
0.000577041
0.000576316
0.000575712
0.000575085
0.000574566
0.000574015
0.000573562
0.000573078
0.000572693
0.000572265
0.000571943
0.000571575
0.000571291
0.000570979
0.000570748
0.000570466
0.000570265
0.00057004
0.000569878
0.000569678
0.000569547
0.0005694
0.000569275
0.000569142
0.000569071
0.000568932
0.00056884
0.00056878
0.000568735
0.000568612
0.000568649
0.000568647
0.000568751
0.000568829
0.000569
0.000569083
0.000569265
0.000569346
0.000569543
0.000569653
0.000569899
0.000570045
0.000570364
0.000570547
0.000570924
0.000571134
0.000571573
0.000571823
0.000572348
0.000572652
0.000573295
0.00057366
0.000574464
0.000574871
0.000576126
0.000576382
0.000582837
0.0100955
0.0107444
0.00102339
0.000928591
0.000856224
0.000803112
0.000763829
0.000734187
0.000711067
0.00069271
0.00067768
0.000665303
0.000654812
0.000645953
0.000638254
0.00063164
0.000625764
0.000620672
0.000616068
0.000612053
0.000608364
0.000605132
0.000602122
0.000599481
0.000596981
0.000594795
0.000592705
0.000590879
0.000589109
0.000587566
0.000586072
0.00058476
0.000583467
0.000582357
0.000581254
0.00058031
0.000579362
0.000578551
0.000577716
0.000577016
0.000576291
0.000575687
0.00057506
0.000574541
0.000573989
0.000573536
0.000573052
0.000572668
0.00057224
0.000571917
0.000571549
0.000571266
0.000570953
0.000570722
0.00057044
0.000570239
0.000570014
0.000569852
0.000569652
0.000569521
0.000569374
0.000569249
0.000569115
0.000569045
0.000568906
0.000568814
0.000568754
0.000568709
0.000568585
0.000568622
0.000568621
0.000568725
0.000568802
0.000568974
0.000569057
0.000569238
0.000569319
0.000569516
0.000569626
0.000569872
0.000570018
0.000570337
0.00057052
0.000570898
0.000571107
0.000571546
0.000571796
0.000572321
0.000572625
0.000573268
0.000573633
0.000574437
0.000574844
0.000576099
0.000576354
0.00058282
0.0101048
0.0107557
0.0010234
0.000928593
0.000856218
0.000803094
0.000763801
0.000734149
0.000711021
0.000692657
0.000677621
0.000665239
0.000654744
0.000645881
0.000638179
0.000631562
0.000625684
0.000620589
0.000615983
0.000611966
0.000608276
0.000605042
0.000602031
0.000599388
0.000596888
0.0005947
0.000592609
0.000590783
0.000589012
0.000587468
0.000585973
0.000584661
0.000583368
0.000582257
0.000581153
0.000580208
0.00057926
0.000578448
0.000577613
0.000576913
0.000576187
0.000575583
0.000574956
0.000574436
0.000573885
0.000573431
0.000572947
0.000572562
0.000572134
0.000571811
0.000571443
0.000571159
0.000570846
0.000570616
0.000570333
0.000570132
0.000569907
0.000569745
0.000569544
0.000569413
0.000569266
0.000569141
0.000569007
0.000568937
0.000568797
0.000568706
0.000568646
0.0005686
0.000568477
0.000568513
0.000568512
0.000568616
0.000568693
0.000568864
0.000568947
0.000569128
0.000569209
0.000569406
0.000569516
0.000569762
0.000569908
0.000570227
0.000570409
0.000570787
0.000570996
0.000571435
0.000571684
0.000572209
0.000572513
0.000573156
0.000573521
0.000574324
0.000574731
0.000575986
0.00057624
0.000582725
0.0101249
0.0107794
0.0010234
0.000928595
0.000856207
0.000803065
0.000763753
0.000734085
0.000710943
0.000692567
0.000677521
0.000665131
0.000654628
0.00064576
0.000638052
0.000631431
0.000625548
0.000620449
0.00061584
0.00061182
0.000608127
0.000604891
0.000601878
0.000599233
0.000596731
0.000594541
0.000592449
0.000590621
0.000588849
0.000587304
0.000585807
0.000584495
0.0005832
0.000582088
0.000580984
0.000580038
0.000579089
0.000578276
0.00057744
0.000576739
0.000576013
0.000575408
0.000574781
0.000574261
0.000573708
0.000573254
0.00057277
0.000572385
0.000571956
0.000571633
0.000571265
0.00057098
0.000570667
0.000570436
0.000570154
0.000569952
0.000569726
0.000569564
0.000569364
0.000569232
0.000569085
0.000568959
0.000568826
0.000568755
0.000568616
0.000568524
0.000568463
0.000568418
0.000568294
0.00056833
0.000568329
0.000568432
0.000568509
0.00056868
0.000568763
0.000568944
0.000569024
0.000569221
0.000569331
0.000569577
0.000569722
0.000570041
0.000570223
0.0005706
0.00057081
0.000571248
0.000571497
0.000572022
0.000572325
0.000572967
0.000573332
0.000574134
0.000574541
0.000575795
0.000576047
0.000582563
0.0101564
0.0108162
0.0010234
0.000928598
0.000856192
0.000803024
0.000763686
0.000733995
0.000710833
0.00069244
0.000677381
0.000664979
0.000654466
0.000645589
0.000637873
0.000631245
0.000625356
0.000620252
0.000615638
0.000611614
0.000607917
0.000604678
0.000601661
0.000599014
0.000596509
0.000594317
0.000592222
0.000590392
0.000588619
0.000587071
0.000585574
0.000584259
0.000582963
0.00058185
0.000580744
0.000579797
0.000578847
0.000578034
0.000577196
0.000576495
0.000575768
0.000575162
0.000574534
0.000574013
0.00057346
0.000573005
0.00057252
0.000572134
0.000571705
0.000571381
0.000571013
0.000570728
0.000570414
0.000570183
0.0005699
0.000569698
0.000569472
0.000569309
0.000569109
0.000568977
0.000568829
0.000568703
0.00056857
0.000568499
0.000568359
0.000568267
0.000568206
0.000568161
0.000568037
0.000568072
0.00056807
0.000568173
0.000568249
0.00056842
0.000568502
0.000568683
0.000568764
0.00056896
0.000569069
0.000569315
0.00056946
0.000569778
0.00056996
0.000570337
0.000570546
0.000570984
0.000571233
0.000571757
0.00057206
0.000572701
0.000573065
0.000573867
0.000574272
0.000575526
0.000575775
0.000582332
0.0102002
0.0108669
0.00102341
0.000928603
0.000856172
0.00080297
0.000763598
0.000733877
0.00071069
0.000692276
0.000677198
0.000664781
0.000654255
0.000645366
0.000637641
0.000631004
0.000625108
0.000619997
0.000615377
0.000611347
0.000607645
0.000604402
0.000601381
0.00059873
0.000596221
0.000594026
0.000591929
0.000590096
0.00058832
0.000586771
0.000585271
0.000583954
0.000582656
0.000581541
0.000580434
0.000579486
0.000578534
0.000577719
0.000576881
0.000576178
0.000575449
0.000574843
0.000574213
0.000573692
0.000573138
0.000572682
0.000572196
0.00057181
0.00057138
0.000571056
0.000570686
0.000570401
0.000570086
0.000569855
0.000569571
0.000569369
0.000569142
0.000568979
0.000568778
0.000568646
0.000568498
0.000568372
0.000568237
0.000568166
0.000568027
0.000567934
0.000567873
0.000567827
0.000567703
0.000567737
0.000567735
0.000567837
0.000567913
0.000568083
0.000568165
0.000568345
0.000568426
0.000568622
0.000568731
0.000568976
0.000569121
0.000569438
0.000569619
0.000569996
0.000570205
0.000570642
0.00057089
0.000571413
0.000571716
0.000572356
0.000572719
0.00057352
0.000573924
0.000575177
0.000575422
0.000582034
0.0102569
0.0109323
0.00102342
0.000928608
0.000856148
0.000802904
0.000763491
0.000733733
0.000710515
0.000692075
0.000676974
0.000664538
0.000653996
0.000645093
0.000637356
0.000630708
0.000624802
0.000619683
0.000615055
0.000611019
0.000607311
0.000604062
0.000601036
0.00059838
0.000595867
0.000593668
0.000591567
0.000589731
0.000587952
0.0005864
0.000584897
0.000583578
0.000582278
0.000581161
0.000580052
0.000579101
0.000578148
0.000577331
0.000576491
0.000575787
0.000575057
0.00057445
0.000573819
0.000573296
0.000572741
0.000572285
0.000571798
0.00057141
0.000570979
0.000570654
0.000570284
0.000569998
0.000569682
0.00056945
0.000569166
0.000568963
0.000568736
0.000568572
0.000568371
0.000568238
0.000568089
0.000567963
0.000567828
0.000567757
0.000567617
0.000567524
0.000567462
0.000567416
0.000567291
0.000567325
0.000567322
0.000567424
0.000567498
0.000567667
0.000567749
0.000567929
0.000568009
0.000568205
0.000568313
0.000568558
0.000568702
0.000569019
0.0005692
0.000569575
0.000569784
0.00057022
0.000570468
0.000570989
0.000571291
0.00057193
0.000572293
0.000573092
0.000573495
0.000574748
0.000574988
0.000581666
0.0103274
0.0110132
0.00102342
0.000928615
0.00085612
0.000802827
0.000763364
0.000733562
0.000710306
0.000691835
0.000676708
0.000664249
0.000653687
0.000644768
0.000637016
0.000630355
0.000624438
0.000619308
0.000614672
0.000610627
0.000606912
0.000603656
0.000600624
0.000597963
0.000595445
0.000593242
0.000591136
0.000589297
0.000587514
0.000585958
0.000584452
0.000583131
0.000581827
0.000580708
0.000579596
0.000578644
0.000577688
0.00057687
0.000576028
0.000575322
0.00057459
0.000573981
0.000573348
0.000572824
0.000572268
0.000571811
0.000571322
0.000570934
0.000570502
0.000570176
0.000569804
0.000569518
0.000569201
0.000568968
0.000568683
0.000568479
0.000568251
0.000568087
0.000567885
0.000567751
0.000567602
0.000567476
0.00056734
0.000567269
0.000567128
0.000567035
0.000566973
0.000566926
0.000566801
0.000566833
0.000566829
0.000566931
0.000567004
0.000567172
0.000567254
0.000567433
0.000567513
0.000567708
0.000567816
0.000568059
0.000568203
0.000568519
0.000568699
0.000569074
0.000569282
0.000569717
0.000569964
0.000570485
0.000570786
0.000571423
0.000571785
0.000572582
0.000572984
0.000574235
0.00057447
0.000581228
0.0104121
0.0111102
0.00102343
0.000928622
0.000856087
0.000802737
0.000763217
0.000733364
0.000710065
0.000691556
0.000676398
0.000663913
0.000653329
0.00064439
0.00063662
0.000629945
0.000624014
0.000618873
0.000614226
0.000610172
0.000606448
0.000603185
0.000600146
0.000597478
0.000594954
0.000592746
0.000590635
0.000588791
0.000587004
0.000585444
0.000583935
0.00058261
0.000581303
0.000580181
0.000579066
0.000578111
0.000577153
0.000576332
0.000575488
0.00057478
0.000574047
0.000573436
0.000572801
0.000572276
0.000571718
0.000571259
0.000570769
0.000570379
0.000569946
0.000569619
0.000569246
0.000568959
0.000568641
0.000568407
0.000568121
0.000567917
0.000567687
0.000567523
0.00056732
0.000567186
0.000567036
0.000566909
0.000566772
0.000566701
0.00056656
0.000566467
0.000566403
0.000566356
0.000566231
0.000566261
0.000566256
0.000566357
0.000566428
0.000566596
0.000566677
0.000566856
0.000566935
0.000567129
0.000567237
0.000567479
0.000567623
0.000567937
0.000568117
0.00056849
0.000568698
0.000569131
0.000569378
0.000569897
0.000570197
0.000570833
0.000571194
0.000571989
0.000572389
0.000573639
0.000573867
0.00058072
0.0105119
0.0112242
0.00102344
0.000928631
0.00085605
0.000802635
0.000763049
0.000733138
0.000709789
0.000691239
0.000676046
0.00066353
0.00065292
0.000643958
0.000636169
0.000629477
0.000623531
0.000618376
0.000613717
0.000609652
0.000605919
0.000602647
0.000599599
0.000596924
0.000594394
0.000592179
0.000590063
0.000588213
0.000586421
0.000584857
0.000583343
0.000582015
0.000580704
0.000579579
0.00057846
0.000577502
0.000576541
0.000575718
0.000574871
0.000574161
0.000573425
0.000572812
0.000572176
0.000571649
0.000571089
0.000570628
0.000570137
0.000569746
0.000569311
0.000568982
0.000568609
0.00056832
0.000568001
0.000567766
0.000567479
0.000567274
0.000567043
0.000566878
0.000566674
0.000566539
0.000566388
0.000566261
0.000566123
0.000566051
0.00056591
0.000565816
0.000565752
0.000565705
0.000565579
0.000565607
0.000565601
0.000565701
0.000565771
0.000565938
0.000566018
0.000566196
0.000566274
0.000566468
0.000566575
0.000566816
0.000566959
0.000567272
0.000567451
0.000567823
0.00056803
0.000568462
0.000568708
0.000569225
0.000569525
0.000570158
0.000570518
0.00057131
0.000571709
0.000572957
0.000573178
0.00058014
0.010627
0.0113557
0.00102346
0.000928642
0.00085601
0.000802521
0.000762862
0.000732885
0.00070948
0.000690882
0.000675649
0.000663099
0.00065246
0.000643473
0.000635662
0.00062895
0.000622987
0.000617817
0.000613144
0.000609067
0.000605322
0.00060204
0.000598984
0.000596301
0.000593763
0.000591541
0.000589418
0.000587563
0.000585765
0.000584196
0.000582677
0.000581344
0.00058003
0.0005789
0.000577778
0.000576817
0.000575852
0.000575026
0.000574176
0.000573464
0.000572725
0.00057211
0.000571471
0.000570942
0.00057038
0.000569918
0.000569424
0.000569032
0.000568595
0.000568265
0.00056789
0.0005676
0.000567279
0.000567043
0.000566755
0.000566549
0.000566317
0.000566151
0.000565946
0.00056581
0.000565658
0.000565531
0.000565392
0.000565319
0.000565178
0.000565083
0.000565018
0.00056497
0.000564844
0.00056487
0.000564863
0.000564961
0.00056503
0.000565195
0.000565274
0.000565452
0.00056553
0.000565722
0.000565829
0.000566069
0.000566211
0.000566522
0.000566701
0.000567071
0.000567277
0.000567708
0.000567953
0.000568468
0.000568766
0.000569397
0.000569756
0.000570546
0.000570943
0.000572188
0.000572402
0.000579487
0.0107579
0.0115053
0.00102347
0.000928653
0.000855965
0.000802395
0.000762654
0.000732604
0.000709137
0.000690486
0.000675208
0.000662621
0.000651948
0.000642933
0.000635097
0.000628364
0.000622381
0.000617195
0.000612506
0.000608416
0.000604659
0.000601365
0.000598299
0.000595606
0.00059306
0.00059083
0.0005887
0.000586838
0.000585034
0.000583459
0.000581935
0.000580597
0.000579278
0.000578144
0.000577018
0.000576053
0.000575084
0.000574255
0.000573402
0.000572687
0.000571945
0.000571327
0.000570686
0.000570154
0.00056959
0.000569126
0.00056863
0.000568236
0.000567798
0.000567466
0.000567089
0.000566797
0.000566475
0.000566238
0.000565949
0.000565741
0.000565508
0.000565341
0.000565135
0.000564997
0.000564845
0.000564716
0.000564577
0.000564503
0.000564362
0.000564267
0.000564199
0.000564152
0.000564024
0.000564049
0.00056404
0.000564137
0.000564203
0.000564368
0.000564446
0.000564623
0.0005647
0.000564891
0.000564997
0.000565236
0.000565377
0.000565686
0.000565864
0.000566233
0.000566438
0.000566867
0.000567111
0.000567624
0.000567921
0.000568549
0.000568906
0.000569693
0.000570088
0.000571331
0.000571536
0.000578761
0.0109048
0.0116737
0.00102348
0.000928667
0.000855917
0.000802258
0.000762427
0.000732296
0.00070876
0.000690051
0.000674723
0.000662093
0.000651385
0.000642338
0.000634475
0.000627718
0.000621714
0.000616508
0.000611803
0.000607697
0.000603926
0.00060062
0.000597542
0.00059484
0.000592284
0.000590046
0.000587907
0.000586038
0.000584227
0.000582646
0.000581116
0.000579773
0.000578448
0.000577309
0.000576179
0.000575209
0.000574237
0.000573404
0.000572547
0.000571829
0.000571084
0.000570463
0.000569819
0.000569285
0.000568718
0.000568252
0.000567754
0.000567357
0.000566917
0.000566583
0.000566204
0.000565911
0.000565587
0.000565349
0.000565058
0.000564849
0.000564614
0.000564446
0.000564238
0.0005641
0.000563946
0.000563817
0.000563676
0.000563602
0.00056346
0.000563364
0.000563296
0.000563247
0.00056312
0.000563141
0.000563131
0.000563227
0.000563291
0.000563454
0.000563531
0.000563707
0.000563783
0.000563973
0.000564078
0.000564316
0.000564456
0.000564763
0.00056494
0.000565307
0.000565511
0.000565938
0.000566181
0.000566692
0.000566987
0.000567613
0.000567968
0.000568752
0.000569144
0.000570385
0.00057058
0.00057796
0.0110676
0.0118614
0.0010235
0.000928681
0.000855865
0.000802109
0.000762179
0.00073196
0.000708348
0.000689575
0.000674194
0.000661517
0.000650769
0.000641688
0.000633794
0.000627011
0.000620983
0.000615757
0.000611033
0.00060691
0.000603124
0.000599805
0.000596714
0.000594001
0.000591434
0.000589186
0.000587039
0.000585162
0.000583344
0.000581755
0.000580218
0.000578869
0.000577539
0.000576395
0.000575259
0.000574285
0.000573308
0.000572471
0.000571611
0.000570889
0.00057014
0.000569516
0.000568869
0.000568332
0.000567762
0.000567294
0.000566793
0.000566395
0.000565951
0.000565616
0.000565235
0.00056494
0.000564614
0.000564374
0.000564081
0.000563871
0.000563635
0.000563465
0.000563256
0.000563117
0.000562961
0.000562832
0.000562689
0.000562614
0.000562472
0.000562375
0.000562305
0.000562256
0.000562128
0.000562147
0.000562134
0.000562229
0.000562291
0.000562452
0.000562528
0.000562703
0.000562778
0.000562967
0.000563071
0.000563307
0.000563446
0.000563751
0.000563927
0.000564292
0.000564495
0.00056492
0.000565162
0.00056567
0.000565964
0.000566586
0.00056694
0.00056772
0.00056811
0.000569348
0.000569533
0.000577084
0.011246
0.0120688
0.00102352
0.000928698
0.00085581
0.000801949
0.000761912
0.000731597
0.000707903
0.00068906
0.000673619
0.000660892
0.0006501
0.000640981
0.000633055
0.000626242
0.00062019
0.000614941
0.000610196
0.000606055
0.000602253
0.000598918
0.000595814
0.000593088
0.00059051
0.000588252
0.000586095
0.000584209
0.000582382
0.000580786
0.000579242
0.000577887
0.00057655
0.0005754
0.000574259
0.00057328
0.000572297
0.000571456
0.000570592
0.000569865
0.000569113
0.000568486
0.000567835
0.000567295
0.000566722
0.000566251
0.000565747
0.000565346
0.000564901
0.000564563
0.00056418
0.000563883
0.000563555
0.000563313
0.000563019
0.000562806
0.000562568
0.000562398
0.000562187
0.000562046
0.000561889
0.000561759
0.000561615
0.000561539
0.000561396
0.000561299
0.000561227
0.000561177
0.000561049
0.000561065
0.00056105
0.000561143
0.000561202
0.000561362
0.000561437
0.00056161
0.000561684
0.000561872
0.000561975
0.000562209
0.000562346
0.000562649
0.000562824
0.000563187
0.000563389
0.000563812
0.000564052
0.000564557
0.00056485
0.000565468
0.00056582
0.000566596
0.000566983
0.000568219
0.000568392
0.000576131
0.0114397
0.0122963
0.00102353
0.000928716
0.000855752
0.000801778
0.000761625
0.000731207
0.000707423
0.000688505
0.000672999
0.000660217
0.000649378
0.000640219
0.000632256
0.000625412
0.000619332
0.000614058
0.000609291
0.000605131
0.00060131
0.000597959
0.00059484
0.000592101
0.00058951
0.000587241
0.000585074
0.000583178
0.000581342
0.000579738
0.000578186
0.000576823
0.00057548
0.000574324
0.000573176
0.000572191
0.000571204
0.000570358
0.000569488
0.000568758
0.000568002
0.000567371
0.000566715
0.000566172
0.000565596
0.000565122
0.000564615
0.000564212
0.000563763
0.000563423
0.000563037
0.000562739
0.000562408
0.000562164
0.000561868
0.000561654
0.000561414
0.000561242
0.00056103
0.000560887
0.000560729
0.000560598
0.000560451
0.000560375
0.000560231
0.000560133
0.000560059
0.000560009
0.00055988
0.000559893
0.000559876
0.000559967
0.000560023
0.000560181
0.000560254
0.000560426
0.000560499
0.000560685
0.000560788
0.00056102
0.000561156
0.000561457
0.00056163
0.00056199
0.000562192
0.000562611
0.00056285
0.000563352
0.000563643
0.000564258
0.000564607
0.00056538
0.000565763
0.000566996
0.000567158
0.0005751
0.0116477
0.0125444
0.00102355
0.000928736
0.000855691
0.000801596
0.000761319
0.000730789
0.000706909
0.000687909
0.000672334
0.000659493
0.000648603
0.000639399
0.000631398
0.00062452
0.00061841
0.000613109
0.000608318
0.000604136
0.000600296
0.000596928
0.000593793
0.000591038
0.000588435
0.000586153
0.000583974
0.000582068
0.000580222
0.000578609
0.000577048
0.000575678
0.000574327
0.000573165
0.00057201
0.00057102
0.000570026
0.000569175
0.000568301
0.000567566
0.000566805
0.00056617
0.00056551
0.000564963
0.000564383
0.000563906
0.000563396
0.00056299
0.000562538
0.000562196
0.000561807
0.000561506
0.000561173
0.000560927
0.000560629
0.000560413
0.00056017
0.000559997
0.000559783
0.000559638
0.000559478
0.000559346
0.000559198
0.000559121
0.000558976
0.000558877
0.000558801
0.000558751
0.000558621
0.000558631
0.000558611
0.0005587
0.000558753
0.000558909
0.000558981
0.000559151
0.000559223
0.000559407
0.000559509
0.000559738
0.000559873
0.000560171
0.000560343
0.000560701
0.000560901
0.000561318
0.000561555
0.000562054
0.000562343
0.000562954
0.000563301
0.000564069
0.000564449
0.000565678
0.000565828
0.00057399
0.0118688
0.0128132
0.00102357
0.000928757
0.000855627
0.000801404
0.000760995
0.000730345
0.000706361
0.000687274
0.000671624
0.000658719
0.000647774
0.000638522
0.00063048
0.000623565
0.000617422
0.000612093
0.000607276
0.000603071
0.00059921
0.000595823
0.00059267
0.0005899
0.000587282
0.000584987
0.000582796
0.000580878
0.000579022
0.0005774
0.000575829
0.000574451
0.000573092
0.000571922
0.00057076
0.000569763
0.000568763
0.000567907
0.000567027
0.000566287
0.000565521
0.000564882
0.000564217
0.000563667
0.000563083
0.000562603
0.000562088
0.000561679
0.000561225
0.000560879
0.000560487
0.000560184
0.000559848
0.0005596
0.000559299
0.000559081
0.000558836
0.000558661
0.000558445
0.000558299
0.000558137
0.000558004
0.000557854
0.000557775
0.00055763
0.00055753
0.000557452
0.0005574
0.000557271
0.000557277
0.000557254
0.000557341
0.00055739
0.000557544
0.000557614
0.000557783
0.000557854
0.000558036
0.000558136
0.000558364
0.000558497
0.000558792
0.000558963
0.000559318
0.000559516
0.00055993
0.000560166
0.000560661
0.000560948
0.000561554
0.000561899
0.000562662
0.000563039
0.000564264
0.000564401
0.000572798
0.0121016
0.0131029
0.0010236
0.000928781
0.000855561
0.000801201
0.000760651
0.000729873
0.00070578
0.000686598
0.000670868
0.000657895
0.000646891
0.000637588
0.000629501
0.000622548
0.00061637
0.000611009
0.000606165
0.000601935
0.000598051
0.000594644
0.000591472
0.000588686
0.000586052
0.000583743
0.000581538
0.000579608
0.000577741
0.000576108
0.000574528
0.000573141
0.000571773
0.000570595
0.000569426
0.000568422
0.000567415
0.000566553
0.000565666
0.000564921
0.00056415
0.000563506
0.000562837
0.000562282
0.000561694
0.00056121
0.000560692
0.00056028
0.000559821
0.000559472
0.000559078
0.000558772
0.000558432
0.000558182
0.000557879
0.000557659
0.000557411
0.000557234
0.000557016
0.000556868
0.000556704
0.00055657
0.000556417
0.000556338
0.000556192
0.00055609
0.00055601
0.000555958
0.000555828
0.000555831
0.000555804
0.000555889
0.000555934
0.000556086
0.000556154
0.000556321
0.00055639
0.000556571
0.00055667
0.000556895
0.000557027
0.000557319
0.000557488
0.00055784
0.000558037
0.000558447
0.000558681
0.000559172
0.000559457
0.000560059
0.000560401
0.000561159
0.000561532
0.000562753
0.000562876
0.000571523
0.0123439
0.0134132
0.00102362
0.000928807
0.000855492
0.000800989
0.000760289
0.000729375
0.000705164
0.000685883
0.000670068
0.000657021
0.000645954
0.000636597
0.000628462
0.000621467
0.000615251
0.000609858
0.000604984
0.000600727
0.000596819
0.00059339
0.000590198
0.000587394
0.000584743
0.000582419
0.0005802
0.000578257
0.000576378
0.000574734
0.000573143
0.000571746
0.000570369
0.000569183
0.000568005
0.000566994
0.00056598
0.000565111
0.000564218
0.000563468
0.000562691
0.000562041
0.000561367
0.000560808
0.000560215
0.000559727
0.000559205
0.000558789
0.000558327
0.000557975
0.000557577
0.000557268
0.000556925
0.000556673
0.000556367
0.000556144
0.000555894
0.000555715
0.000555494
0.000555344
0.000555178
0.000555043
0.000554888
0.000554807
0.00055466
0.000554557
0.000554474
0.000554421
0.000554292
0.00055429
0.000554259
0.000554342
0.000554383
0.000554533
0.000554599
0.000554764
0.000554832
0.000555011
0.000555108
0.00055533
0.000555461
0.000555749
0.000555917
0.000556265
0.000556461
0.000556868
0.0005571
0.000557587
0.000557869
0.000558466
0.000558805
0.000559558
0.000559927
0.000561144
0.000561253
0.000570164
0.0125934
0.013744
0.00102364
0.000928835
0.000855422
0.000800767
0.000759909
0.000728851
0.000704516
0.000685127
0.000669222
0.000656098
0.000644964
0.000635548
0.000627362
0.000620322
0.000614067
0.000608638
0.000603732
0.000599447
0.000595513
0.000592061
0.000588848
0.000586024
0.000583356
0.000581015
0.000578781
0.000576825
0.000574932
0.000573276
0.000571674
0.000570267
0.00056888
0.000567685
0.000566498
0.000565479
0.000564457
0.000563582
0.000562682
0.000561925
0.000561142
0.000560487
0.000559807
0.000559244
0.000558645
0.000558154
0.000557627
0.000557207
0.000556741
0.000556385
0.000555984
0.000555672
0.000555326
0.00055507
0.000554761
0.000554537
0.000554283
0.000554102
0.000553879
0.000553727
0.000553558
0.000553421
0.000553264
0.000553181
0.000553033
0.000552929
0.000552844
0.00055279
0.000552661
0.000552656
0.00055262
0.0005527
0.000552737
0.000552884
0.000552948
0.000553111
0.000553177
0.000553354
0.000553449
0.000553669
0.000553798
0.000554083
0.000554249
0.000554594
0.000554787
0.000555191
0.000555421
0.000555904
0.000556183
0.000556775
0.000557111
0.000557859
0.000558223
0.000559435
0.00055953
0.000568718
0.0128471
0.0140945
0.00102366
0.000928865
0.00085535
0.000800536
0.000759511
0.000728302
0.000703834
0.000684333
0.000668331
0.000655124
0.000643919
0.000634442
0.000626201
0.000619114
0.000612816
0.00060735
0.000602411
0.000598095
0.000594134
0.000590656
0.000587421
0.000584576
0.000581889
0.000579531
0.000577281
0.00057531
0.000573404
0.000571735
0.00057012
0.000568703
0.000567305
0.0005661
0.000564904
0.000563877
0.000562846
0.000561964
0.000561057
0.000560293
0.000559503
0.000558843
0.000558157
0.000557588
0.000556985
0.000556489
0.000555957
0.000555533
0.000555063
0.000554703
0.000554298
0.000553983
0.000553633
0.000553375
0.000553062
0.000552835
0.000552578
0.000552395
0.000552169
0.000552015
0.000551843
0.000551705
0.000551545
0.000551461
0.000551312
0.000551207
0.000551118
0.000551064
0.000550934
0.000550925
0.000550885
0.000550962
0.000550995
0.000551138
0.0005512
0.000551361
0.000551426
0.0005516
0.000551694
0.000551911
0.000552037
0.000552318
0.000552482
0.000552824
0.000553016
0.000553415
0.000553643
0.000554121
0.000554398
0.000554985
0.000555318
0.000556059
0.000556419
0.000557625
0.000557706
0.000567182
0.0131015
0.0144639
0.00102369
0.000928897
0.000855276
0.000800296
0.000759097
0.000727727
0.00070312
0.000683499
0.000667396
0.000654101
0.00064282
0.000633278
0.00062498
0.000617842
0.000611499
0.000605993
0.000601018
0.00059667
0.000592679
0.000589176
0.000585916
0.00058305
0.000580342
0.000577966
0.000575699
0.000573712
0.000571791
0.000570109
0.000568481
0.000567052
0.000565644
0.000564428
0.000563222
0.000562186
0.000561146
0.000560256
0.000559341
0.000558571
0.000557774
0.000557108
0.000556416
0.000555841
0.000555232
0.000554731
0.000554194
0.000553767
0.000553291
0.000552928
0.000552518
0.0005522
0.000551845
0.000551584
0.000551269
0.000551039
0.000550778
0.000550593
0.000550364
0.000550207
0.000550032
0.000549893
0.00054973
0.000549644
0.000549494
0.000549387
0.000549296
0.00054924
0.000549111
0.000549098
0.000549053
0.000549126
0.000549155
0.000549295
0.000549355
0.000549513
0.000549576
0.000549747
0.00054984
0.000550054
0.000550178
0.000550455
0.000550617
0.000550955
0.000551145
0.00055154
0.000551766
0.000552239
0.000552513
0.000553094
0.000553424
0.000554158
0.000554514
0.000555714
0.00055578
0.000565555
0.0133527
0.0148507
0.00102371
0.000928932
0.000855202
0.000800049
0.000758666
0.000727128
0.000702374
0.000682627
0.000666416
0.000653029
0.000641668
0.000632056
0.000623697
0.000616506
0.000610116
0.000604568
0.000599554
0.000595172
0.000591151
0.00058762
0.000584334
0.000581445
0.000578716
0.00057632
0.000574034
0.000572031
0.000570094
0.000568398
0.000566757
0.000565316
0.000563895
0.000562669
0.000561452
0.000560406
0.000559357
0.000558459
0.000557536
0.000556758
0.000555954
0.000555281
0.000554582
0.000554002
0.000553387
0.000552881
0.000552338
0.000551906
0.000551426
0.000551058
0.000550644
0.000550322
0.000549963
0.000549699
0.00054938
0.000549147
0.000548883
0.000548694
0.000548463
0.000548303
0.000548125
0.000547985
0.000547819
0.000547731
0.000547579
0.000547471
0.000547376
0.00054732
0.00054719
0.000547174
0.000547123
0.000547193
0.000547217
0.000547354
0.000547411
0.000547567
0.000547627
0.000547796
0.000547887
0.000548097
0.00054822
0.000548493
0.000548652
0.000548986
0.000549173
0.000549565
0.000549788
0.000550256
0.000550527
0.000551102
0.000551428
0.000552156
0.000552506
0.0005537
0.000553751
0.000563834
0.0135963
0.015253
0.00102374
0.000928969
0.000855127
0.000799794
0.000758219
0.000726504
0.000701596
0.000681717
0.000665392
0.000651908
0.000640463
0.000630777
0.000622354
0.000615106
0.000608666
0.000603074
0.00059802
0.000593602
0.000589548
0.000585987
0.000582674
0.000579761
0.000577009
0.000574592
0.000572287
0.000570266
0.000568313
0.000566602
0.000564946
0.000563492
0.000562059
0.000560821
0.000559593
0.000558537
0.000557478
0.000556571
0.000555639
0.000554854
0.000554042
0.000553362
0.000552656
0.00055207
0.000551448
0.000550937
0.000550388
0.000549951
0.000549466
0.000549094
0.000548675
0.000548349
0.000547986
0.000547718
0.000547395
0.000547159
0.000546891
0.0005467
0.000546465
0.000546302
0.000546121
0.000545979
0.00054581
0.00054572
0.000545566
0.000545457
0.000545359
0.000545301
0.000545171
0.000545151
0.000545095
0.000545161
0.00054518
0.000545314
0.000545367
0.000545521
0.000545579
0.000545745
0.000545833
0.000546041
0.000546161
0.000546429
0.000546587
0.000546916
0.000547101
0.000547488
0.000547708
0.000548171
0.000548439
0.000549007
0.00054933
0.000550051
0.000550396
0.000551583
0.000551619
0.000562015
0.0138271
0.0156683
0.00102377
0.000929009
0.000855052
0.000799532
0.000757757
0.000725858
0.000700787
0.000680769
0.000664325
0.000650738
0.000639204
0.000629442
0.00062095
0.000613643
0.00060715
0.00060151
0.000596414
0.000591958
0.000587869
0.000584278
0.000580936
0.000577997
0.000575221
0.000572783
0.000570457
0.000568418
0.000566447
0.00056472
0.000563048
0.000561581
0.000560134
0.000558885
0.000557645
0.000556578
0.000555508
0.000554592
0.000553651
0.000552858
0.000552037
0.00055135
0.000550636
0.000550044
0.000549415
0.000548898
0.000548344
0.000547902
0.000547411
0.000547034
0.00054661
0.00054628
0.000545912
0.00054564
0.000545314
0.000545074
0.000544802
0.000544608
0.00054437
0.000544204
0.000544019
0.000543875
0.000543703
0.000543611