/*--------------------------------*- C++ -*----------------------------------*\
| =========                 |                                                 |
| \\      /  F ield         | OpenFOAM: The Open Source CFD Toolbox           |
|  \\    /   O peration     | Version:  v2012                                 |
|   \\  /    A nd           | Website:  www.openfoam.com                      |
|    \\/     M anipulation  |                                                 |
\*---------------------------------------------------------------------------*/
FoamFile
{
    version     2.0;
    format      ascii;
    class       volVectorField;
    location    "26.5";
    object      wallShearStress;
}
// * * * * * * * * * * * * * * * * * * * * * * * * * * * * * * * * * * * * * //

dimensions      [0 2 -2 0 0 0 0];


internalField   uniform (0 0 0);

boundaryField
{
    inlet
    {
        type            calculated;
        value           uniform (0 0 0);
    }
    outlet
    {
        type            calculated;
        value           uniform (0 0 0);
    }
    topWall
    {
        type            calculated;
        value           nonuniform List<vector> 
545
(
(5.7346e-08 -4.03513e-08 0)
(5.73607e-08 -1.12978e-07 0)
(5.72923e-08 -1.88447e-07 0)
(5.72137e-08 -2.61688e-07 0)
(5.7132e-08 -3.31778e-07 0)
(5.70374e-08 -3.99616e-07 0)
(5.69308e-08 -4.65783e-07 0)
(5.68123e-08 -5.30246e-07 0)
(5.6683e-08 -5.92863e-07 0)
(5.65439e-08 -6.53631e-07 0)
(5.63959e-08 -7.1263e-07 0)
(5.62399e-08 -7.69928e-07 0)
(5.60767e-08 -8.25564e-07 0)
(5.5907e-08 -8.79571e-07 0)
(5.57316e-08 -9.3199e-07 0)
(5.55513e-08 -9.82863e-07 0)
(5.53665e-08 -1.03223e-06 0)
(5.51779e-08 -1.08014e-06 0)
(5.49862e-08 -1.12662e-06 0)
(5.47917e-08 -1.17171e-06 0)
(5.4595e-08 -1.21546e-06 0)
(5.43965e-08 -1.25791e-06 0)
(5.41966e-08 -1.29908e-06 0)
(5.39958e-08 -1.33902e-06 0)
(5.37944e-08 -1.37776e-06 0)
(5.35927e-08 -1.41534e-06 0)
(5.3391e-08 -1.45179e-06 0)
(5.31897e-08 -1.48714e-06 0)
(5.29889e-08 -1.52143e-06 0)
(5.27889e-08 -1.5547e-06 0)
(5.259e-08 -1.58696e-06 0)
(5.23923e-08 -1.61825e-06 0)
(5.21959e-08 -1.64861e-06 0)
(5.20012e-08 -1.67805e-06 0)
(5.18082e-08 -1.70661e-06 0)
(5.1617e-08 -1.73431e-06 0)
(5.14278e-08 -1.76119e-06 0)
(5.12407e-08 -1.78726e-06 0)
(5.10558e-08 -1.81255e-06 0)
(5.08731e-08 -1.83708e-06 0)
(5.06928e-08 -1.86089e-06 0)
(5.05149e-08 -1.88398e-06 0)
(5.03394e-08 -1.90639e-06 0)
(5.01665e-08 -1.92813e-06 0)
(4.9996e-08 -1.94922e-06 0)
(4.98282e-08 -1.96969e-06 0)
(4.96629e-08 -1.98955e-06 0)
(4.95003e-08 -2.00883e-06 0)
(4.93403e-08 -2.02753e-06 0)
(4.91829e-08 -2.04569e-06 0)
(4.90281e-08 -2.06331e-06 0)
(4.8876e-08 -2.08041e-06 0)
(4.87265e-08 -2.097e-06 0)
(4.85796e-08 -2.11312e-06 0)
(4.84354e-08 -2.12876e-06 0)
(4.82937e-08 -2.14394e-06 0)
(4.81545e-08 -2.15868e-06 0)
(4.80179e-08 -2.17299e-06 0)
(4.78838e-08 -2.18688e-06 0)
(4.77521e-08 -2.20037e-06 0)
(4.76229e-08 -2.21347e-06 0)
(4.74962e-08 -2.22619e-06 0)
(4.73717e-08 -2.23854e-06 0)
(4.72497e-08 -2.25053e-06 0)
(4.71299e-08 -2.26218e-06 0)
(4.70124e-08 -2.27349e-06 0)
(4.68972e-08 -2.28448e-06 0)
(4.67841e-08 -2.29515e-06 0)
(4.66731e-08 -2.30551e-06 0)
(4.65641e-08 -2.31558e-06 0)
(4.64581e-08 -2.32537e-06 0)
(4.63496e-08 -2.33485e-06 0)
(4.62459e-08 -2.34396e-06 0)
(4.61521e-08 -2.35282e-06 0)
(4.60587e-08 -2.36157e-06 0)
(4.59656e-08 -2.37025e-06 0)
(4.58727e-08 -2.37891e-06 0)
(4.57798e-08 -2.38751e-06 0)
(4.56871e-08 -2.39605e-06 0)
(4.55944e-08 -2.40453e-06 0)
(4.55019e-08 -2.41295e-06 0)
(4.54094e-08 -2.42132e-06 0)
(4.53171e-08 -2.42964e-06 0)
(4.52249e-08 -2.4379e-06 0)
(4.51328e-08 -2.4461e-06 0)
(4.50409e-08 -2.45425e-06 0)
(4.49491e-08 -2.46235e-06 0)
(4.48574e-08 -2.4704e-06 0)
(4.47658e-08 -2.47839e-06 0)
(4.46744e-08 -2.48632e-06 0)
(4.45831e-08 -2.49421e-06 0)
(4.44919e-08 -2.50204e-06 0)
(4.44013e-08 -2.50983e-06 0)
(4.43087e-08 -2.51752e-06 0)
(4.42252e-08 -2.52529e-06 0)
(4.41034e-08 -2.53281e-06 0)
(4.39767e-08 -2.5396e-06 0)
(4.38986e-08 -2.546e-06 0)
(4.38248e-08 -2.55213e-06 0)
(4.37522e-08 -2.55816e-06 0)
(4.36794e-08 -2.56432e-06 0)
(4.36064e-08 -2.57052e-06 0)
(4.35331e-08 -2.5767e-06 0)
(4.34595e-08 -2.58287e-06 0)
(4.33856e-08 -2.58905e-06 0)
(4.33113e-08 -2.59523e-06 0)
(4.32368e-08 -2.60142e-06 0)
(4.31619e-08 -2.60761e-06 0)
(4.30866e-08 -2.6138e-06 0)
(4.30111e-08 -2.62e-06 0)
(4.29352e-08 -2.6262e-06 0)
(4.2859e-08 -2.63241e-06 0)
(4.27824e-08 -2.63861e-06 0)
(4.27056e-08 -2.64483e-06 0)
(4.26284e-08 -2.65104e-06 0)
(4.25508e-08 -2.65726e-06 0)
(4.2473e-08 -2.66348e-06 0)
(4.23948e-08 -2.66971e-06 0)
(4.23163e-08 -2.67594e-06 0)
(4.22374e-08 -2.68217e-06 0)
(4.21582e-08 -2.68841e-06 0)
(4.20787e-08 -2.69464e-06 0)
(4.19988e-08 -2.70088e-06 0)
(4.19186e-08 -2.70713e-06 0)
(4.1838e-08 -2.71337e-06 0)
(4.17571e-08 -2.71962e-06 0)
(4.16759e-08 -2.72587e-06 0)
(4.15943e-08 -2.73213e-06 0)
(4.15124e-08 -2.73838e-06 0)
(4.14301e-08 -2.74464e-06 0)
(4.13475e-08 -2.7509e-06 0)
(4.12646e-08 -2.75717e-06 0)
(4.11813e-08 -2.76343e-06 0)
(4.10977e-08 -2.7697e-06 0)
(4.10137e-08 -2.77597e-06 0)
(4.09293e-08 -2.78224e-06 0)
(4.08447e-08 -2.78852e-06 0)
(4.07596e-08 -2.79479e-06 0)
(4.06743e-08 -2.80107e-06 0)
(4.05886e-08 -2.80735e-06 0)
(4.05025e-08 -2.81363e-06 0)
(4.04161e-08 -2.81991e-06 0)
(4.03293e-08 -2.82619e-06 0)
(4.02422e-08 -2.83247e-06 0)
(4.01547e-08 -2.83876e-06 0)
(4.00669e-08 -2.84504e-06 0)
(3.99787e-08 -2.85133e-06 0)
(3.98901e-08 -2.85762e-06 0)
(3.98012e-08 -2.86391e-06 0)
(3.9712e-08 -2.8702e-06 0)
(3.96224e-08 -2.87649e-06 0)
(3.95325e-08 -2.88278e-06 0)
(3.94421e-08 -2.88907e-06 0)
(3.93515e-08 -2.89536e-06 0)
(3.92605e-08 -2.90165e-06 0)
(3.91691e-08 -2.90795e-06 0)
(3.90774e-08 -2.91424e-06 0)
(3.89853e-08 -2.92053e-06 0)
(3.88928e-08 -2.92682e-06 0)
(3.88e-08 -2.93311e-06 0)
(3.87068e-08 -2.93941e-06 0)
(3.86133e-08 -2.9457e-06 0)
(3.85194e-08 -2.95199e-06 0)
(3.84252e-08 -2.95828e-06 0)
(3.83306e-08 -2.96457e-06 0)
(3.82356e-08 -2.97086e-06 0)
(3.81403e-08 -2.97714e-06 0)
(3.80446e-08 -2.98343e-06 0)
(3.79486e-08 -2.98972e-06 0)
(3.78522e-08 -2.996e-06 0)
(3.77555e-08 -3.00229e-06 0)
(3.76583e-08 -3.00857e-06 0)
(3.75609e-08 -3.01485e-06 0)
(3.7463e-08 -3.02113e-06 0)
(3.73648e-08 -3.02741e-06 0)
(3.72663e-08 -3.03368e-06 0)
(3.71674e-08 -3.03996e-06 0)
(3.70681e-08 -3.04623e-06 0)
(3.69684e-08 -3.0525e-06 0)
(3.68685e-08 -3.05877e-06 0)
(3.67681e-08 -3.06503e-06 0)
(3.66674e-08 -3.0713e-06 0)
(3.65663e-08 -3.07756e-06 0)
(3.64649e-08 -3.08382e-06 0)
(3.63631e-08 -3.09007e-06 0)
(3.62609e-08 -3.09632e-06 0)
(3.61584e-08 -3.10257e-06 0)
(3.60555e-08 -3.10882e-06 0)
(3.59523e-08 -3.11506e-06 0)
(3.58487e-08 -3.12131e-06 0)
(3.57447e-08 -3.12754e-06 0)
(3.56404e-08 -3.13378e-06 0)
(3.55358e-08 -3.14001e-06 0)
(3.54307e-08 -3.14623e-06 0)
(3.53254e-08 -3.15245e-06 0)
(3.52196e-08 -3.15867e-06 0)
(3.51135e-08 -3.16489e-06 0)
(3.50071e-08 -3.1711e-06 0)
(3.49003e-08 -3.1773e-06 0)
(3.47931e-08 -3.1835e-06 0)
(3.46856e-08 -3.1897e-06 0)
(3.45777e-08 -3.19589e-06 0)
(3.44695e-08 -3.20208e-06 0)
(3.43609e-08 -3.20826e-06 0)
(3.42519e-08 -3.21444e-06 0)
(3.41426e-08 -3.22061e-06 0)
(3.4033e-08 -3.22678e-06 0)
(3.3923e-08 -3.23294e-06 0)
(3.38126e-08 -3.2391e-06 0)
(3.37019e-08 -3.24525e-06 0)
(3.35909e-08 -3.25139e-06 0)
(3.34795e-08 -3.25753e-06 0)
(3.33677e-08 -3.26367e-06 0)
(3.32556e-08 -3.26979e-06 0)
(3.31432e-08 -3.27591e-06 0)
(3.30304e-08 -3.28203e-06 0)
(3.29173e-08 -3.28814e-06 0)
(3.28038e-08 -3.29424e-06 0)
(3.269e-08 -3.30033e-06 0)
(3.25758e-08 -3.30642e-06 0)
(3.24613e-08 -3.3125e-06 0)
(3.23464e-08 -3.31857e-06 0)
(3.22312e-08 -3.32464e-06 0)
(3.21157e-08 -3.3307e-06 0)
(3.19998e-08 -3.33675e-06 0)
(3.18836e-08 -3.34279e-06 0)
(3.17671e-08 -3.34883e-06 0)
(3.16502e-08 -3.35485e-06 0)
(3.1533e-08 -3.36087e-06 0)
(3.14154e-08 -3.36688e-06 0)
(3.12975e-08 -3.37289e-06 0)
(3.11793e-08 -3.37888e-06 0)
(3.10608e-08 -3.38487e-06 0)
(3.09419e-08 -3.39084e-06 0)
(3.08227e-08 -3.39681e-06 0)
(3.07032e-08 -3.40277e-06 0)
(3.05834e-08 -3.40872e-06 0)
(3.04632e-08 -3.41466e-06 0)
(3.03427e-08 -3.42059e-06 0)
(3.02219e-08 -3.42651e-06 0)
(3.01007e-08 -3.43242e-06 0)
(2.99793e-08 -3.43832e-06 0)
(2.98575e-08 -3.44421e-06 0)
(2.97354e-08 -3.45009e-06 0)
(2.9613e-08 -3.45597e-06 0)
(2.94903e-08 -3.46183e-06 0)
(2.93673e-08 -3.46768e-06 0)
(2.9244e-08 -3.47351e-06 0)
(2.91203e-08 -3.47934e-06 0)
(2.89964e-08 -3.48516e-06 0)
(2.88722e-08 -3.49096e-06 0)
(2.87476e-08 -3.49676e-06 0)
(2.86228e-08 -3.50254e-06 0)
(2.84976e-08 -3.50831e-06 0)
(2.83722e-08 -3.51407e-06 0)
(2.82465e-08 -3.51982e-06 0)
(2.81204e-08 -3.52555e-06 0)
(2.79941e-08 -3.53128e-06 0)
(2.78675e-08 -3.53699e-06 0)
(2.77406e-08 -3.54269e-06 0)
(2.76134e-08 -3.54837e-06 0)
(2.7486e-08 -3.55405e-06 0)
(2.73582e-08 -3.5597e-06 0)
(2.72302e-08 -3.56535e-06 0)
(2.71019e-08 -3.57098e-06 0)
(2.69736e-08 -3.57661e-06 0)
(2.68437e-08 -3.58218e-06 0)
(2.67199e-08 -3.58788e-06 0)
(2.65738e-08 -3.59334e-06 0)
(2.64196e-08 -3.59849e-06 0)
(2.62969e-08 -3.60366e-06 0)
(2.61831e-08 -3.60863e-06 0)
(2.60686e-08 -3.61355e-06 0)
(2.59533e-08 -3.61858e-06 0)
(2.58366e-08 -3.62367e-06 0)
(2.57187e-08 -3.62879e-06 0)
(2.55994e-08 -3.63392e-06 0)
(2.54788e-08 -3.63909e-06 0)
(2.53569e-08 -3.64429e-06 0)
(2.52336e-08 -3.64952e-06 0)
(2.51089e-08 -3.65478e-06 0)
(2.49829e-08 -3.66007e-06 0)
(2.48555e-08 -3.6654e-06 0)
(2.47267e-08 -3.67075e-06 0)
(2.45965e-08 -3.67613e-06 0)
(2.44649e-08 -3.68155e-06 0)
(2.43318e-08 -3.68699e-06 0)
(2.41974e-08 -3.69246e-06 0)
(2.40615e-08 -3.69796e-06 0)
(2.39242e-08 -3.70349e-06 0)
(2.37854e-08 -3.70904e-06 0)
(2.36452e-08 -3.71462e-06 0)
(2.35035e-08 -3.72023e-06 0)
(2.33603e-08 -3.72587e-06 0)
(2.32156e-08 -3.73153e-06 0)
(2.30695e-08 -3.73722e-06 0)
(2.29218e-08 -3.74294e-06 0)
(2.27727e-08 -3.74868e-06 0)
(2.2622e-08 -3.75444e-06 0)
(2.24698e-08 -3.76023e-06 0)
(2.2316e-08 -3.76604e-06 0)
(2.21608e-08 -3.77187e-06 0)
(2.20039e-08 -3.77772e-06 0)
(2.18456e-08 -3.7836e-06 0)
(2.16856e-08 -3.7895e-06 0)
(2.15241e-08 -3.79541e-06 0)
(2.1361e-08 -3.80135e-06 0)
(2.11964e-08 -3.8073e-06 0)
(2.10301e-08 -3.81327e-06 0)
(2.08623e-08 -3.81926e-06 0)
(2.06929e-08 -3.82527e-06 0)
(2.05219e-08 -3.83129e-06 0)
(2.03493e-08 -3.83733e-06 0)
(2.01751e-08 -3.84338e-06 0)
(1.99993e-08 -3.84944e-06 0)
(1.98218e-08 -3.85551e-06 0)
(1.96428e-08 -3.8616e-06 0)
(1.94622e-08 -3.86769e-06 0)
(1.92799e-08 -3.8738e-06 0)
(1.9096e-08 -3.87991e-06 0)
(1.89105e-08 -3.88603e-06 0)
(1.87234e-08 -3.89215e-06 0)
(1.85347e-08 -3.89828e-06 0)
(1.83443e-08 -3.90442e-06 0)
(1.81524e-08 -3.91055e-06 0)
(1.79588e-08 -3.91669e-06 0)
(1.77637e-08 -3.92282e-06 0)
(1.75669e-08 -3.92896e-06 0)
(1.73685e-08 -3.93509e-06 0)
(1.71686e-08 -3.94122e-06 0)
(1.6967e-08 -3.94734e-06 0)
(1.67639e-08 -3.95345e-06 0)
(1.65592e-08 -3.95956e-06 0)
(1.63529e-08 -3.96566e-06 0)
(1.61451e-08 -3.97174e-06 0)
(1.59358e-08 -3.97781e-06 0)
(1.57249e-08 -3.98387e-06 0)
(1.55124e-08 -3.98991e-06 0)
(1.52985e-08 -3.99593e-06 0)
(1.50831e-08 -4.00194e-06 0)
(1.48662e-08 -4.00792e-06 0)
(1.46478e-08 -4.01388e-06 0)
(1.44279e-08 -4.01982e-06 0)
(1.42066e-08 -4.02573e-06 0)
(1.39839e-08 -4.0316e-06 0)
(1.37598e-08 -4.03745e-06 0)
(1.35344e-08 -4.04327e-06 0)
(1.33075e-08 -4.04905e-06 0)
(1.30794e-08 -4.0548e-06 0)
(1.28499e-08 -4.0605e-06 0)
(1.26191e-08 -4.06617e-06 0)
(1.23871e-08 -4.07179e-06 0)
(1.21538e-08 -4.07737e-06 0)
(1.19193e-08 -4.0829e-06 0)
(1.16836e-08 -4.08839e-06 0)
(1.14468e-08 -4.09382e-06 0)
(1.12089e-08 -4.09919e-06 0)
(1.09699e-08 -4.10451e-06 0)
(1.07299e-08 -4.10977e-06 0)
(1.04888e-08 -4.11498e-06 0)
(1.02468e-08 -4.12011e-06 0)
(1.00038e-08 -4.12519e-06 0)
(9.75992e-09 -4.13019e-06 0)
(9.5152e-09 -4.13512e-06 0)
(9.26966e-09 -4.13997e-06 0)
(9.02337e-09 -4.14476e-06 0)
(8.77634e-09 -4.14946e-06 0)
(8.52866e-09 -4.15408e-06 0)
(8.28033e-09 -4.15862e-06 0)
(8.03144e-09 -4.16307e-06 0)
(7.78202e-09 -4.16743e-06 0)
(7.53213e-09 -4.1717e-06 0)
(7.28182e-09 -4.17587e-06 0)
(7.03116e-09 -4.17995e-06 0)
(6.78018e-09 -4.18392e-06 0)
(6.52898e-09 -4.1878e-06 0)
(6.27757e-09 -4.19156e-06 0)
(6.02605e-09 -4.19522e-06 0)
(5.77447e-09 -4.19876e-06 0)
(5.5229e-09 -4.20219e-06 0)
(5.27139e-09 -4.2055e-06 0)
(5.02002e-09 -4.20869e-06 0)
(4.76885e-09 -4.21176e-06 0)
(4.51797e-09 -4.2147e-06 0)
(4.26743e-09 -4.21751e-06 0)
(4.01731e-09 -4.22019e-06 0)
(3.76767e-09 -4.22273e-06 0)
(3.51861e-09 -4.22513e-06 0)
(3.27019e-09 -4.22739e-06 0)
(3.02249e-09 -4.22952e-06 0)
(2.77559e-09 -4.23149e-06 0)
(2.52956e-09 -4.23331e-06 0)
(2.28449e-09 -4.23498e-06 0)
(2.04045e-09 -4.2365e-06 0)
(1.79753e-09 -4.23785e-06 0)
(1.55582e-09 -4.23905e-06 0)
(1.31538e-09 -4.24008e-06 0)
(1.07632e-09 -4.24095e-06 0)
(8.387e-10 -4.24164e-06 0)
(6.02623e-10 -4.24217e-06 0)
(3.68169e-10 -4.24252e-06 0)
(1.35426e-10 -4.24269e-06 0)
(-9.55214e-11 -4.24268e-06 0)
(-3.24584e-10 -4.2425e-06 0)
(-5.51673e-10 -4.24212e-06 0)
(-7.76702e-10 -4.24157e-06 0)
(-9.9958e-10 -4.24082e-06 0)
(-1.22022e-09 -4.23988e-06 0)
(-1.43853e-09 -4.23874e-06 0)
(-1.65442e-09 -4.23742e-06 0)
(-1.86781e-09 -4.23589e-06 0)
(-2.0786e-09 -4.23417e-06 0)
(-2.28669e-09 -4.23224e-06 0)
(-2.49202e-09 -4.23012e-06 0)
(-2.69447e-09 -4.22778e-06 0)
(-2.89397e-09 -4.22525e-06 0)
(-3.09043e-09 -4.22249e-06 0)
(-3.28376e-09 -4.21954e-06 0)
(-3.47387e-09 -4.21637e-06 0)
(-3.66069e-09 -4.21299e-06 0)
(-3.84411e-09 -4.2094e-06 0)
(-4.02408e-09 -4.2056e-06 0)
(-4.20049e-09 -4.20157e-06 0)
(-4.37329e-09 -4.19735e-06 0)
(-4.54238e-09 -4.19289e-06 0)
(-4.70772e-09 -4.18823e-06 0)
(-4.8692e-09 -4.18334e-06 0)
(-5.0268e-09 -4.17825e-06 0)
(-5.18042e-09 -4.17293e-06 0)
(-5.33004e-09 -4.1674e-06 0)
(-5.47555e-09 -4.16165e-06 0)
(-5.61696e-09 -4.15569e-06 0)
(-5.75416e-09 -4.14951e-06 0)
(-5.88716e-09 -4.14312e-06 0)
(-6.01586e-09 -4.13651e-06 0)
(-6.14028e-09 -4.1297e-06 0)
(-6.26032e-09 -4.12266e-06 0)
(-6.37601e-09 -4.11542e-06 0)
(-6.48725e-09 -4.10796e-06 0)
(-6.59408e-09 -4.10031e-06 0)
(-6.69639e-09 -4.09243e-06 0)
(-6.79422e-09 -4.08437e-06 0)
(-6.88747e-09 -4.07609e-06 0)
(-6.97618e-09 -4.06763e-06 0)
(-7.06024e-09 -4.05894e-06 0)
(-7.13966e-09 -4.05009e-06 0)
(-7.21442e-09 -4.041e-06 0)
(-7.28413e-09 -4.0318e-06 0)
(-7.351e-09 -4.0222e-06 0)
(-7.40784e-09 -4.01267e-06 0)
(-7.4579e-09 -4.00196e-06 0)
(-7.51379e-09 -3.98967e-06 0)
(-7.56819e-09 -3.97739e-06 0)
(-7.61557e-09 -3.96517e-06 0)
(-7.65637e-09 -3.95278e-06 0)
(-7.69074e-09 -3.94034e-06 0)
(-7.71876e-09 -3.92783e-06 0)
(-7.74074e-09 -3.91532e-06 0)
(-7.75676e-09 -3.90275e-06 0)
(-7.76719e-09 -3.89019e-06 0)
(-7.77213e-09 -3.87758e-06 0)
(-7.77191e-09 -3.865e-06 0)
(-7.76662e-09 -3.85239e-06 0)
(-7.7566e-09 -3.83983e-06 0)
(-7.74192e-09 -3.82726e-06 0)
(-7.72291e-09 -3.81474e-06 0)
(-7.69962e-09 -3.80223e-06 0)
(-7.67237e-09 -3.78979e-06 0)
(-7.64119e-09 -3.77737e-06 0)
(-7.60638e-09 -3.76503e-06 0)
(-7.56797e-09 -3.75272e-06 0)
(-7.52622e-09 -3.74051e-06 0)
(-7.48116e-09 -3.72834e-06 0)
(-7.43304e-09 -3.71627e-06 0)
(-7.38187e-09 -3.70425e-06 0)
(-7.32788e-09 -3.69235e-06 0)
(-7.27108e-09 -3.68051e-06 0)
(-7.21168e-09 -3.66879e-06 0)
(-7.14968e-09 -3.65714e-06 0)
(-7.08528e-09 -3.64563e-06 0)
(-7.01847e-09 -3.63419e-06 0)
(-6.94944e-09 -3.62289e-06 0)
(-6.87818e-09 -3.61167e-06 0)
(-6.80486e-09 -3.6006e-06 0)
(-6.72947e-09 -3.58962e-06 0)
(-6.65217e-09 -3.5788e-06 0)
(-6.57294e-09 -3.56807e-06 0)
(-6.49195e-09 -3.5575e-06 0)
(-6.40915e-09 -3.54704e-06 0)
(-6.32471e-09 -3.53674e-06 0)
(-6.23859e-09 -3.52655e-06 0)
(-6.15094e-09 -3.51653e-06 0)
(-6.06172e-09 -3.50662e-06 0)
(-5.97108e-09 -3.49689e-06 0)
(-5.87896e-09 -3.48728e-06 0)
(-5.7855e-09 -3.47784e-06 0)
(-5.69066e-09 -3.46853e-06 0)
(-5.59458e-09 -3.45941e-06 0)
(-5.49718e-09 -3.45041e-06 0)
(-5.39861e-09 -3.4416e-06 0)
(-5.29881e-09 -3.43292e-06 0)
(-5.19789e-09 -3.42443e-06 0)
(-5.0958e-09 -3.41608e-06 0)
(-4.99266e-09 -3.40792e-06 0)
(-4.8884e-09 -3.3999e-06 0)
(-4.78314e-09 -3.39208e-06 0)
(-4.67683e-09 -3.38441e-06 0)
(-4.56956e-09 -3.37693e-06 0)
(-4.46128e-09 -3.3696e-06 0)
(-4.35208e-09 -3.36247e-06 0)
(-4.24193e-09 -3.3555e-06 0)
(-4.13091e-09 -3.34873e-06 0)
(-4.01897e-09 -3.34211e-06 0)
(-3.90619e-09 -3.3357e-06 0)
(-3.79256e-09 -3.32946e-06 0)
(-3.67812e-09 -3.32341e-06 0)
(-3.56287e-09 -3.31754e-06 0)
(-3.44686e-09 -3.31186e-06 0)
(-3.33007e-09 -3.30636e-06 0)
(-3.21257e-09 -3.30107e-06 0)
(-3.09433e-09 -3.29595e-06 0)
(-2.97542e-09 -3.29104e-06 0)
(-2.85582e-09 -3.2863e-06 0)
(-2.73558e-09 -3.28178e-06 0)
(-2.61469e-09 -3.27743e-06 0)
(-2.49319e-09 -3.2733e-06 0)
(-2.37109e-09 -3.26935e-06 0)
(-2.24841e-09 -3.26561e-06 0)
(-2.12516e-09 -3.26205e-06 0)
(-2.00136e-09 -3.25871e-06 0)
(-1.87702e-09 -3.25556e-06 0)
(-1.75216e-09 -3.25261e-06 0)
(-1.62681e-09 -3.24987e-06 0)
(-1.50101e-09 -3.24733e-06 0)
(-1.37478e-09 -3.24499e-06 0)
(-1.24824e-09 -3.24288e-06 0)
(-1.12146e-09 -3.24088e-06 0)
(-9.94662e-10 -3.23939e-06 0)
(-8.67946e-10 -3.23712e-06 0)
(-7.41955e-10 -3.23827e-06 0)
(-6.15449e-10 -3.22875e-06 0)
(-4.93108e-10 -3.25411e-06 0)
(-3.56517e-10 -3.15603e-06 0)
(-2.69674e-10 -3.41472e-06 0)
(-1.30467e-10 -2.9821e-06 0)
)
;
    }
    bottomWall
    {
        type            calculated;
        value           nonuniform List<vector> 
449
(
(-52.83 -0.95709 0)
(-34.8244 -0.00280544 0)
(-34.4268 -0.000257291 0)
(-33.054 -0.000366163 0)
(-31.9199 -0.0003173 0)
(-30.8778 -0.000285734 0)
(-29.9561 -0.000250656 0)
(-29.1514 -0.000218655 0)
(-28.4468 -0.000191723 0)
(-27.8251 -0.000169593 0)
(-27.271 -0.000151419 0)
(-26.7729 -0.000136402 0)
(-26.321 -0.000123926 0)
(-25.9078 -0.000113342 0)
(-25.5279 -0.000104142 0)
(-25.1775 -9.60459e-05 0)
(-24.8529 -8.89181e-05 0)
(-24.5511 -8.26108e-05 0)
(-24.2696 -7.70304e-05 0)
(-24.006 -7.20976e-05 0)
(-23.7582 -6.77065e-05 0)
(-23.5246 -6.3776e-05 0)
(-23.3038 -6.02538e-05 0)
(-23.0943 -5.7086e-05 0)
(-22.8951 -5.42108e-05 0)
(-22.7052 -5.15949e-05 0)
(-22.5239 -4.92085e-05 0)
(-22.3505 -4.70229e-05 0)
(-22.1841 -4.50153e-05 0)
(-22.0244 -4.31557e-05 0)
(-21.8708 -4.14284e-05 0)
(-21.7229 -3.98261e-05 0)
(-21.5802 -3.83371e-05 0)
(-21.4426 -3.69477e-05 0)
(-21.3094 -3.56509e-05 0)
(-21.1807 -3.44291e-05 0)
(-21.0559 -3.32849e-05 0)
(-20.935 -3.22057e-05 0)
(-20.8177 -3.11923e-05 0)
(-20.7037 -3.02315e-05 0)
(-20.593 -2.93222e-05 0)
(-20.4853 -2.84593e-05 0)
(-20.3805 -2.76382e-05 0)
(-20.2784 -2.68489e-05 0)
(-20.179 -2.60938e-05 0)
(-20.0822 -2.53691e-05 0)
(-19.9878 -2.46739e-05 0)
(-19.8958 -2.40048e-05 0)
(-19.806 -2.33619e-05 0)
(-19.7184 -2.27477e-05 0)
(-19.633 -2.21552e-05 0)
(-19.5495 -2.15938e-05 0)
(-19.4679 -2.10509e-05 0)
(-19.3882 -2.0532e-05 0)
(-19.3102 -2.00338e-05 0)
(-19.234 -1.95589e-05 0)
(-19.1593 -1.91025e-05 0)
(-19.0862 -1.8664e-05 0)
(-19.0146 -1.82421e-05 0)
(-18.9445 -1.78388e-05 0)
(-18.8757 -1.74483e-05 0)
(-18.8083 -1.70753e-05 0)
(-18.7421 -1.67127e-05 0)
(-18.6772 -1.63633e-05 0)
(-18.6134 -1.60263e-05 0)
(-18.5509 -1.57036e-05 0)
(-18.4894 -1.53904e-05 0)
(-18.4291 -1.50853e-05 0)
(-18.3697 -1.47921e-05 0)
(-18.3114 -1.4506e-05 0)
(-18.254 -1.42298e-05 0)
(-18.1977 -1.39566e-05 0)
(-18.1422 -1.36971e-05 0)
(-18.0877 -1.34433e-05 0)
(-18.034 -1.31987e-05 0)
(-17.9813 -1.29584e-05 0)
(-17.9293 -1.2727e-05 0)
(-17.8781 -1.24986e-05 0)
(-17.8277 -1.2279e-05 0)
(-17.7781 -1.20611e-05 0)
(-17.7293 -1.1856e-05 0)
(-17.6811 -1.16525e-05 0)
(-17.6337 -1.14592e-05 0)
(-17.5869 -1.12641e-05 0)
(-17.5409 -1.10778e-05 0)
(-17.4955 -1.08908e-05 0)
(-17.4508 -1.07127e-05 0)
(-17.4066 -1.05417e-05 0)
(-17.3631 -1.0374e-05 0)
(-17.3201 -1.02086e-05 0)
(-17.2778 -1.00464e-05 0)
(-17.236 -9.88604e-06 0)
(-17.1948 -9.73287e-06 0)
(-17.1541 -9.58273e-06 0)
(-17.114 -9.43588e-06 0)
(-17.0743 -9.29361e-06 0)
(-17.0353 -9.15614e-06 0)
(-16.9965 -9.02005e-06 0)
(-16.9585 -8.88727e-06 0)
(-16.9207 -8.75521e-06 0)
(-16.8836 -8.6269e-06 0)
(-16.8467 -8.50294e-06 0)
(-16.8105 -8.3812e-06 0)
(-16.7745 -8.26056e-06 0)
(-16.7392 -8.14466e-06 0)
(-16.704 -8.03177e-06 0)
(-16.6695 -7.91945e-06 0)
(-16.6351 -7.81363e-06 0)
(-16.6014 -7.70526e-06 0)
(-16.5678 -7.60196e-06 0)
(-16.5348 -7.49702e-06 0)
(-16.502 -7.39529e-06 0)
(-16.4698 -7.29493e-06 0)
(-16.4377 -7.19875e-06 0)
(-16.4061 -7.10344e-06 0)
(-16.3748 -7.0123e-06 0)
(-16.3438 -6.9241e-06 0)
(-16.3131 -6.83743e-06 0)
(-16.2828 -6.74866e-06 0)
(-16.2527 -6.66263e-06 0)
(-16.2231 -6.5804e-06 0)
(-16.1936 -6.49743e-06 0)
(-16.1646 -6.41533e-06 0)
(-16.1357 -6.33415e-06 0)
(-16.1072 -6.25487e-06 0)
(-16.079 -6.17664e-06 0)
(-16.0511 -6.10177e-06 0)
(-16.0233 -6.02869e-06 0)
(-15.996 -5.95779e-06 0)
(-15.9688 -5.88931e-06 0)
(-15.942 -5.82008e-06 0)
(-15.9152 -5.75284e-06 0)
(-15.8889 -5.68355e-06 0)
(-15.8627 -5.61562e-06 0)
(-15.8369 -5.54982e-06 0)
(-15.8112 -5.48463e-06 0)
(-15.7858 -5.42072e-06 0)
(-15.7606 -5.35875e-06 0)
(-15.7357 -5.29776e-06 0)
(-15.7109 -5.2407e-06 0)
(-15.6865 -5.1819e-06 0)
(-15.6621 -5.1268e-06 0)
(-15.6381 -5.07138e-06 0)
(-15.6141 -5.01895e-06 0)
(-15.5904 -4.96506e-06 0)
(-15.5669 -4.9129e-06 0)
(-15.5436 -4.86033e-06 0)
(-15.5205 -4.80675e-06 0)
(-15.4976 -4.75425e-06 0)
(-15.4749 -4.70276e-06 0)
(-15.4524 -4.65399e-06 0)
(-15.43 -4.60232e-06 0)
(-15.4079 -4.55509e-06 0)
(-15.3858 -4.50679e-06 0)
(-15.3641 -4.46005e-06 0)
(-15.3424 -4.41426e-06 0)
(-15.321 -4.37057e-06 0)
(-15.2997 -4.32665e-06 0)
(-15.2786 -4.28274e-06 0)
(-15.2576 -4.24166e-06 0)
(-15.2368 -4.19892e-06 0)
(-15.2161 -4.15695e-06 0)
(-15.1957 -4.11571e-06 0)
(-15.1753 -4.07383e-06 0)
(-15.1552 -4.0306e-06 0)
(-15.1351 -3.99224e-06 0)
(-15.1153 -3.95493e-06 0)
(-15.0955 -3.91728e-06 0)
(-15.076 -3.88073e-06 0)
(-15.0565 -3.84442e-06 0)
(-15.0372 -3.80809e-06 0)
(-15.018 -3.77223e-06 0)
(-14.999 -3.74228e-06 0)
(-14.9811 -3.7218e-06 0)
(-14.9642 -3.69345e-06 0)
(-14.9473 -3.65694e-06 0)
(-14.9304 -3.62217e-06 0)
(-14.9135 -3.5884e-06 0)
(-14.8965 -3.55237e-06 0)
(-14.8796 -3.52102e-06 0)
(-14.8626 -3.48968e-06 0)
(-14.8455 -3.45727e-06 0)
(-14.8285 -3.42617e-06 0)
(-14.8114 -3.39589e-06 0)
(-14.7943 -3.36409e-06 0)
(-14.7771 -3.33362e-06 0)
(-14.7599 -3.30377e-06 0)
(-14.7427 -3.27675e-06 0)
(-14.7255 -3.24757e-06 0)
(-14.7082 -3.21873e-06 0)
(-14.6909 -3.18491e-06 0)
(-14.6736 -3.15665e-06 0)
(-14.6562 -3.12802e-06 0)
(-14.6388 -3.09629e-06 0)
(-14.6214 -3.0664e-06 0)
(-14.604 -3.038e-06 0)
(-14.5866 -3.01211e-06 0)
(-14.5691 -2.98366e-06 0)
(-14.5516 -2.95635e-06 0)
(-14.5341 -2.92735e-06 0)
(-14.5165 -2.89858e-06 0)
(-14.499 -2.8704e-06 0)
(-14.4814 -2.84219e-06 0)
(-14.4638 -2.81473e-06 0)
(-14.4462 -2.78525e-06 0)
(-14.4286 -2.75869e-06 0)
(-14.411 -2.72798e-06 0)
(-14.3934 -2.69986e-06 0)
(-14.3757 -2.67191e-06 0)
(-14.3581 -2.64632e-06 0)
(-14.3404 -2.61967e-06 0)
(-14.3228 -2.59324e-06 0)
(-14.305 -2.56922e-06 0)
(-14.2873 -2.54558e-06 0)
(-14.2696 -2.52107e-06 0)
(-14.2518 -2.49416e-06 0)
(-14.234 -2.46927e-06 0)
(-14.2163 -2.44328e-06 0)
(-14.1985 -2.42093e-06 0)
(-14.1807 -2.39477e-06 0)
(-14.1629 -2.36981e-06 0)
(-14.1451 -2.34381e-06 0)
(-14.1273 -2.31751e-06 0)
(-14.1095 -2.29374e-06 0)
(-14.0917 -2.26768e-06 0)
(-14.0739 -2.24373e-06 0)
(-14.0561 -2.22165e-06 0)
(-14.0383 -2.1951e-06 0)
(-14.0205 -2.17399e-06 0)
(-14.0027 -2.15013e-06 0)
(-13.9849 -2.12622e-06 0)
(-13.9671 -2.10425e-06 0)
(-13.9493 -2.0808e-06 0)
(-13.9315 -2.05822e-06 0)
(-13.9137 -2.03566e-06 0)
(-13.8959 -2.0125e-06 0)
(-13.8781 -1.98909e-06 0)
(-13.8603 -1.96645e-06 0)
(-13.8426 -1.94709e-06 0)
(-13.8248 -1.92715e-06 0)
(-13.807 -1.90686e-06 0)
(-13.7892 -1.88732e-06 0)
(-13.7714 -1.86718e-06 0)
(-13.7536 -1.84453e-06 0)
(-13.7359 -1.82339e-06 0)
(-13.7181 -1.80408e-06 0)
(-13.7004 -1.78199e-06 0)
(-13.6826 -1.76127e-06 0)
(-13.665 -1.74203e-06 0)
(-13.6472 -1.72269e-06 0)
(-13.6295 -1.7039e-06 0)
(-13.6118 -1.68447e-06 0)
(-13.5941 -1.66402e-06 0)
(-13.5765 -1.64595e-06 0)
(-13.5588 -1.62733e-06 0)
(-13.5411 -1.60951e-06 0)
(-13.5235 -1.58892e-06 0)
(-13.5059 -1.57141e-06 0)
(-13.4883 -1.55309e-06 0)
(-13.4707 -1.53464e-06 0)
(-13.4531 -1.51724e-06 0)
(-13.4356 -1.49914e-06 0)
(-13.418 -1.48096e-06 0)
(-13.4006 -1.46225e-06 0)
(-13.3831 -1.4456e-06 0)
(-13.3656 -1.42813e-06 0)
(-13.3482 -1.41164e-06 0)
(-13.3307 -1.3966e-06 0)
(-13.3133 -1.38051e-06 0)
(-13.2959 -1.36267e-06 0)
(-13.2785 -1.34467e-06 0)
(-13.2612 -1.32913e-06 0)
(-13.2439 -1.31472e-06 0)
(-13.2265 -1.30094e-06 0)
(-13.2092 -1.28361e-06 0)
(-13.192 -1.26815e-06 0)
(-13.1747 -1.25355e-06 0)
(-13.1575 -1.23719e-06 0)
(-13.1402 -1.22349e-06 0)
(-13.123 -1.20876e-06 0)
(-13.1059 -1.196e-06 0)
(-13.0887 -1.18066e-06 0)
(-13.0716 -1.16556e-06 0)
(-13.0544 -1.15122e-06 0)
(-13.0374 -1.13721e-06 0)
(-13.0203 -1.12307e-06 0)
(-13.0033 -1.10705e-06 0)
(-12.9864 -1.09316e-06 0)
(-12.9694 -1.08097e-06 0)
(-12.9525 -1.06873e-06 0)
(-12.9356 -1.05692e-06 0)
(-12.9186 -1.04243e-06 0)
(-12.9018 -1.02907e-06 0)
(-12.885 -1.01692e-06 0)
(-12.8682 -1.00324e-06 0)
(-12.8514 -9.90507e-07 0)
(-12.8347 -9.79511e-07 0)
(-12.818 -9.66478e-07 0)
(-12.8014 -9.55572e-07 0)
(-12.7846 -9.44184e-07 0)
(-12.768 -9.3172e-07 0)
(-12.7514 -9.22143e-07 0)
(-12.7348 -9.09571e-07 0)
(-12.7182 -8.96388e-07 0)
(-12.7018 -8.82541e-07 0)
(-12.6853 -8.72038e-07 0)
(-12.6689 -8.63108e-07 0)
(-12.6525 -8.52715e-07 0)
(-12.6361 -8.41354e-07 0)
(-12.6197 -8.30348e-07 0)
(-12.6035 -8.18932e-07 0)
(-12.5872 -8.09453e-07 0)
(-12.5709 -7.98944e-07 0)
(-12.5548 -7.86893e-07 0)
(-12.5386 -7.76709e-07 0)
(-12.5225 -7.67729e-07 0)
(-12.5064 -7.57896e-07 0)
(-12.4904 -7.48057e-07 0)
(-12.4744 -7.38018e-07 0)
(-12.4584 -7.29217e-07 0)
(-12.4424 -7.2006e-07 0)
(-12.4265 -7.10514e-07 0)
(-12.4106 -7.00101e-07 0)
(-12.3948 -6.9138e-07 0)
(-12.379 -6.82761e-07 0)
(-12.3633 -6.74289e-07 0)
(-12.3475 -6.65157e-07 0)
(-12.3318 -6.5605e-07 0)
(-12.3161 -6.47408e-07 0)
(-12.3006 -6.39645e-07 0)
(-12.2849 -6.30368e-07 0)
(-12.2695 -6.21097e-07 0)
(-12.2539 -6.14187e-07 0)
(-12.2385 -6.06362e-07 0)
(-12.223 -5.97314e-07 0)
(-12.2078 -5.87881e-07 0)
(-12.1924 -5.80889e-07 0)
(-12.1772 -5.73857e-07 0)
(-12.1619 -5.66059e-07 0)
(-12.1467 -5.58921e-07 0)
(-12.1315 -5.51607e-07 0)
(-12.1164 -5.43293e-07 0)
(-12.1013 -5.36098e-07 0)
(-12.0863 -5.28984e-07 0)
(-12.0713 -5.21862e-07 0)
(-12.0563 -5.15358e-07 0)
(-12.0414 -5.08517e-07 0)
(-12.0265 -5.01021e-07 0)
(-12.0117 -4.94795e-07 0)
(-11.9969 -4.87895e-07 0)
(-11.9821 -4.81004e-07 0)
(-11.9674 -4.74666e-07 0)
(-11.9527 -4.68472e-07 0)
(-11.9381 -4.59624e-07 0)
(-11.922 -4.50687e-07 0)
(-11.9045 -4.42728e-07 0)
(-11.8874 -4.36619e-07 0)
(-11.8704 -4.30242e-07 0)
(-11.8537 -4.23751e-07 0)
(-11.8372 -4.17557e-07 0)
(-11.8211 -4.11322e-07 0)
(-11.805 -4.0512e-07 0)
(-11.7894 -3.99827e-07 0)
(-11.7738 -3.93692e-07 0)
(-11.7586 -3.87288e-07 0)
(-11.7435 -3.81794e-07 0)
(-11.7287 -3.76369e-07 0)
(-11.714 -3.71027e-07 0)
(-11.6997 -3.66134e-07 0)
(-11.6854 -3.61383e-07 0)
(-11.6714 -3.55929e-07 0)
(-11.6575 -3.51583e-07 0)
(-11.6439 -3.46254e-07 0)
(-11.6304 -3.41942e-07 0)
(-11.6171 -3.38052e-07 0)
(-11.604 -3.33449e-07 0)
(-11.591 -3.27895e-07 0)
(-11.5783 -3.23896e-07 0)
(-11.5657 -3.19989e-07 0)
(-11.5533 -3.16717e-07 0)
(-11.5409 -3.13327e-07 0)
(-11.5288 -3.08564e-07 0)
(-11.5168 -3.05654e-07 0)
(-11.5049 -3.01879e-07 0)
(-11.4932 -2.97705e-07 0)
(-11.4816 -2.94232e-07 0)
(-11.4701 -2.92021e-07 0)
(-11.4587 -2.88999e-07 0)
(-11.4475 -2.85981e-07 0)
(-11.4363 -2.8247e-07 0)
(-11.4254 -2.791e-07 0)
(-11.4145 -2.75636e-07 0)
(-11.4038 -2.72029e-07 0)
(-11.3932 -2.69157e-07 0)
(-11.3828 -2.65877e-07 0)
(-11.3724 -2.63073e-07 0)
(-11.3622 -2.60333e-07 0)
(-11.3521 -2.57051e-07 0)
(-11.3421 -2.54717e-07 0)
(-11.3321 -2.52202e-07 0)
(-11.3224 -2.48954e-07 0)
(-11.3126 -2.46628e-07 0)
(-11.3031 -2.43868e-07 0)
(-11.2936 -2.41647e-07 0)
(-11.2842 -2.39375e-07 0)
(-11.2748 -2.37945e-07 0)
(-11.2656 -2.34804e-07 0)
(-11.2565 -2.32699e-07 0)
(-11.2474 -2.30524e-07 0)
(-11.2384 -2.2787e-07 0)
(-11.2295 -2.25568e-07 0)
(-11.2208 -2.22973e-07 0)
(-11.2121 -2.20365e-07 0)
(-11.2036 -2.1837e-07 0)
(-11.195 -2.16816e-07 0)
(-11.1866 -2.1483e-07 0)
(-11.1782 -2.12669e-07 0)
(-11.17 -2.10592e-07 0)
(-11.1617 -2.08749e-07 0)
(-11.1536 -2.06496e-07 0)
(-11.1456 -2.04477e-07 0)
(-11.1376 -2.03297e-07 0)
(-11.1297 -2.02454e-07 0)
(-11.1218 -1.99512e-07 0)
(-11.1141 -1.98707e-07 0)
(-11.1062 -1.97102e-07 0)
(-11.0986 -1.96027e-07 0)
(-11.0909 -1.94304e-07 0)
(-11.0834 -1.92955e-07 0)
(-11.0758 -1.90831e-07 0)
(-11.0685 -1.90376e-07 0)
(-11.0609 -1.87606e-07 0)
(-11.0538 -1.87137e-07 0)
(-11.0463 -1.84628e-07 0)
(-11.0394 -1.84683e-07 0)
(-11.0318 -1.83109e-07 0)
(-11.0251 -1.82458e-07 0)
(-11.0176 -1.81087e-07 0)
(-11.0109 -1.7886e-07 0)
(-11.0036 -1.77835e-07 0)
(-10.997 -1.74144e-07 0)
(-10.99 -1.76965e-07 0)
(-10.9831 -1.67342e-07 0)
(-10.9769 -1.80246e-07 0)
(-10.969 -1.55103e-07 0)
(-10.9648 -1.93158e-07 0)
(-10.9538 -1.32182e-07 0)
(-10.9546 -1.68337e-07 0)
(-10.9404 -1.86143e-07 0)
)
;
    }
    symmetry
    {
        type            symmetryPlane;
    }
    frontAndBack
    {
        type            empty;
    }
}


// ************************************************************************* //
