/*--------------------------------*- C++ -*----------------------------------*\
| =========                 |                                                 |
| \\      /  F ield         | OpenFOAM: The Open Source CFD Toolbox           |
|  \\    /   O peration     | Version:  v2012                                 |
|   \\  /    A nd           | Website:  www.openfoam.com                      |
|    \\/     M anipulation  |                                                 |
\*---------------------------------------------------------------------------*/
FoamFile
{
    version     2.0;
    format      ascii;
    class       volScalarField;
    location    "26.5";
    object      yPlus;
}
// * * * * * * * * * * * * * * * * * * * * * * * * * * * * * * * * * * * * * //

dimensions      [0 0 0 0 0 0 0];


internalField   uniform 0;

boundaryField
{
    inlet
    {
        type            calculated;
        value           uniform 0;
    }
    outlet
    {
        type            calculated;
        value           uniform 0;
    }
    topWall
    {
        type            calculated;
        value           nonuniform List<scalar> 
545
(
0.13903
0.239861
0.30772
0.361687
0.407361
0.447312
0.482984
0.515286
0.544836
0.572079
0.597348
0.6209
0.642942
0.663638
0.683127
0.701524
0.718927
0.73542
0.751077
0.765962
0.780131
0.793635
0.806518
0.818822
0.830583
0.841834
0.852605
0.862924
0.872816
0.882306
0.891413
0.90016
0.908563
0.91664
0.924408
0.931881
0.939073
0.945998
0.952667
0.959093
0.965287
0.971258
0.977017
0.982572
0.987932
0.993106
0.9981
1.00292
1.00758
1.01208
1.01643
1.02064
1.0247
1.02863
1.03243
1.0361
1.03966
1.0431
1.04643
1.04965
1.05277
1.05579
1.05872
1.06155
1.06429
1.06695
1.06952
1.07202
1.07444
1.07678
1.07905
1.08125
1.08336
1.0854
1.08742
1.08942
1.09141
1.09338
1.09533
1.09727
1.09919
1.10109
1.10298
1.10486
1.10671
1.10856
1.11038
1.1122
1.11399
1.11578
1.11754
1.1193
1.12104
1.12276
1.12447
1.12617
1.1277
1.12906
1.13042
1.13179
1.13315
1.13451
1.13587
1.13723
1.13859
1.13995
1.14131
1.14267
1.14402
1.14538
1.14673
1.14809
1.14944
1.15079
1.15214
1.15349
1.15484
1.15619
1.15754
1.15889
1.16024
1.16158
1.16292
1.16427
1.16561
1.16695
1.16829
1.16963
1.17097
1.17231
1.17364
1.17498
1.17631
1.17765
1.17898
1.18031
1.18164
1.18297
1.1843
1.18562
1.18695
1.18827
1.1896
1.19092
1.19224
1.19356
1.19488
1.19619
1.19751
1.19882
1.20014
1.20145
1.20276
1.20407
1.20538
1.20668
1.20799
1.20929
1.21059
1.21189
1.21319
1.21449
1.21579
1.21708
1.21837
1.21967
1.22096
1.22224
1.22353
1.22482
1.2261
1.22738
1.22866
1.22994
1.23122
1.2325
1.23377
1.23504
1.23631
1.23758
1.23885
1.24011
1.24138
1.24264
1.2439
1.24516
1.24641
1.24767
1.24892
1.25017
1.25142
1.25267
1.25391
1.25515
1.25639
1.25763
1.25887
1.2601
1.26134
1.26257
1.2638
1.26502
1.26625
1.26747
1.26869
1.26991
1.27112
1.27233
1.27354
1.27475
1.27596
1.27716
1.27837
1.27957
1.28076
1.28196
1.28315
1.28434
1.28553
1.28671
1.2879
1.28908
1.29025
1.29143
1.2926
1.29377
1.29494
1.2961
1.29727
1.29843
1.29958
1.30074
1.30189
1.30304
1.30419
1.30533
1.30647
1.30761
1.30874
1.30988
1.31101
1.31213
1.31326
1.31438
1.3155
1.31661
1.31772
1.31883
1.31994
1.32104
1.32214
1.32324
1.32433
1.32542
1.32651
1.3276
1.32868
1.32976
1.33083
1.3319
1.33297
1.33404
1.3351
1.33616
1.33721
1.33826
1.33931
1.34036
1.3414
1.34238
1.3433
1.34423
1.34516
1.3461
1.34704
1.34799
1.34895
1.34991
1.35087
1.35184
1.35282
1.35379
1.35478
1.35577
1.35676
1.35776
1.35876
1.35977
1.36079
1.3618
1.36282
1.36385
1.36488
1.36591
1.36695
1.36799
1.36904
1.37009
1.37114
1.3722
1.37326
1.37432
1.37539
1.37646
1.37753
1.37861
1.37968
1.38077
1.38185
1.38293
1.38402
1.38511
1.3862
1.38729
1.38839
1.38948
1.39058
1.39168
1.39278
1.39388
1.39497
1.39607
1.39717
1.39827
1.39937
1.40047
1.40157
1.40266
1.40376
1.40485
1.40594
1.40703
1.40812
1.4092
1.41028
1.41136
1.41244
1.41351
1.41457
1.41564
1.4167
1.41775
1.4188
1.41984
1.42088
1.42191
1.42293
1.42395
1.42496
1.42597
1.42696
1.42795
1.42893
1.4299
1.43086
1.43181
1.43275
1.43368
1.4346
1.43551
1.4364
1.43729
1.43816
1.43902
1.43987
1.4407
1.44152
1.44232
1.44311
1.44388
1.44464
1.44538
1.4461
1.44681
1.4475
1.44817
1.44882
1.44946
1.45007
1.45066
1.45123
1.45179
1.45231
1.45282
1.45331
1.45377
1.45421
1.45463
1.45502
1.45538
1.45572
1.45604
1.45633
1.45659
1.45682
1.45703
1.45721
1.45736
1.45748
1.45757
1.45763
1.45766
1.45766
1.45763
1.45757
1.45747
1.45735
1.45719
1.45699
1.45677
1.4565
1.45621
1.45588
1.45551
1.45511
1.45468
1.45421
1.4537
1.45315
1.45257
1.45195
1.4513
1.45061
1.44988
1.44911
1.44831
1.44746
1.44658
1.44566
1.44471
1.44371
1.44268
1.4416
1.4405
1.43935
1.43816
1.43694
1.43568
1.43438
1.43304
1.43167
1.43026
1.42881
1.42732
1.4258
1.42424
1.42265
1.42102
1.41936
1.41766
1.41573
1.41359
1.41142
1.40924
1.40704
1.40482
1.40259
1.40036
1.39811
1.39586
1.39359
1.39133
1.38906
1.3868
1.38453
1.38226
1.37999
1.37773
1.37547
1.37323
1.37098
1.36875
1.36652
1.36431
1.3621
1.35991
1.35773
1.35557
1.35341
1.35128
1.34916
1.34706
1.34498
1.34291
1.34087
1.33884
1.33684
1.33486
1.33289
1.33095
1.32904
1.32715
1.32528
1.32344
1.32162
1.31983
1.31806
1.31633
1.31461
1.31293
1.31128
1.30965
1.30806
1.30649
1.30496
1.30345
1.30198
1.30054
1.29913
1.29775
1.29641
1.2951
1.29382
1.29258
1.29137
1.29019
1.28905
1.28795
1.28688
1.28585
1.28485
1.2839
1.28297
1.28209
1.28124
1.28043
1.27966
1.27893
1.27823
1.27758
1.27696
1.27638
1.27584
1.27534
1.27488
1.27447
1.27409
1.27375
1.27345
1.27319
1.27298
1.2728
1.27266
1.27257
1.27247
)
;
    }
    bottomWall
    {
        type            calculated;
        value           nonuniform List<scalar> 
449
(
0.00274342
0.0048112
0.00538457
0.00533607
0.00526387
0.00516713
0.00506911
0.00497718
0.00489291
0.00481611
0.00474593
0.00468157
0.00462212
0.00456694
0.00451555
0.00446764
0.00442285
0.00438089
0.00434147
0.00430431
0.00426918
0.00423588
0.00420422
0.00417404
0.00414519
0.00411759
0.00409109
0.00406562
0.0040411
0.00401746
0.00399463
0.00397257
0.00395121
0.00393054
0.00391046
0.00389099
0.00387206
0.00385366
0.00383574
0.0038183
0.0038013
0.00378473
0.00376855
0.00375277
0.00373737
0.00372232
0.00370763
0.00369328
0.00367925
0.00366554
0.00365213
0.00363901
0.00362617
0.0036136
0.00360129
0.00358923
0.0035774
0.00356581
0.00355443
0.00354328
0.00353231
0.00352156
0.00351098
0.00350061
0.00349039
0.00348037
0.00347049
0.0034608
0.00345124
0.00344186
0.0034326
0.00342351
0.00341454
0.00340573
0.00339703
0.00338848
0.00338004
0.00337173
0.00336354
0.00335547
0.00334752
0.00333967
0.00333194
0.0033243
0.00331679
0.00330935
0.00330204
0.0032948
0.00328768
0.00328062
0.00327368
0.0032668
0.00326005
0.00325334
0.00324675
0.0032402
0.00323378
0.00322738
0.00322111
0.00321486
0.00320874
0.00320263
0.00319665
0.00319069
0.00318484
0.00317901
0.00317329
0.00316758
0.00316199
0.00315641
0.00315092
0.00314547
0.0031401
0.00313476
0.00312951
0.00312428
0.00311913
0.003114
0.00310895
0.00310393
0.00309898
0.00309405
0.0030892
0.00308436
0.00307961
0.00307487
0.00307021
0.00306555
0.00306098
0.00305641
0.00305191
0.00304742
0.003043
0.0030386
0.00303426
0.00302994
0.00302568
0.00302143
0.00301725
0.00301307
0.00300895
0.00300485
0.0030008
0.00299676
0.00299276
0.00298879
0.00298486
0.00298095
0.00297708
0.00297323
0.00296943
0.00296564
0.0029619
0.00295817
0.00295449
0.00295082
0.0029472
0.00294357
0.00294
0.00293643
0.00293291
0.0029294
0.00292593
0.00292246
0.00291905
0.00291563
0.00291227
0.0029089
0.00290558
0.00290225
0.00289898
0.0028957
0.00289247
0.0028894
0.00288653
0.00288365
0.00288077
0.00287788
0.002875
0.00287209
0.0028692
0.00286628
0.00286338
0.00286045
0.00285753
0.00285459
0.00285166
0.00284871
0.00284575
0.00284279
0.00283983
0.00283686
0.00283388
0.00283091
0.00282792
0.00282494
0.00282194
0.00281894
0.00281593
0.00281292
0.00280991
0.00280689
0.00280387
0.00280084
0.00279781
0.00279479
0.00279175
0.00278872
0.00278568
0.00278265
0.00277959
0.00277656
0.0027735
0.00277045
0.00276737
0.00276432
0.00276124
0.00275818
0.0027551
0.00275202
0.00274895
0.00274587
0.00274279
0.00273971
0.00273663
0.00273355
0.00273047
0.00272738
0.00272431
0.00272121
0.00271813
0.00271504
0.00271196
0.00270886
0.00270578
0.00270269
0.0026996
0.00269651
0.00269343
0.00269033
0.00268725
0.00268414
0.00268105
0.00267795
0.00267486
0.00267176
0.00266867
0.00266558
0.00266249
0.0026594
0.00265631
0.00265322
0.00265014
0.00264704
0.00264396
0.00264087
0.00263779
0.00263472
0.00263163
0.00262856
0.00262548
0.00262241
0.00261934
0.00261628
0.00261321
0.00261015
0.0026071
0.00260404
0.00260098
0.00259792
0.00259488
0.00259184
0.0025888
0.00258575
0.0025827
0.00257967
0.00257663
0.00257361
0.00257058
0.00256755
0.00256453
0.00256149
0.00255848
0.00255546
0.00255246
0.00254945
0.00254645
0.00254346
0.00254048
0.00253748
0.0025345
0.0025315
0.00252854
0.00252555
0.00252259
0.00251962
0.00251667
0.0025137
0.00251077
0.00250779
0.00250487
0.00250191
0.00249897
0.00249603
0.00249312
0.00249021
0.0024873
0.00248438
0.00248147
0.00247857
0.00247568
0.00247279
0.0024699
0.00246703
0.00246416
0.0024613
0.00245843
0.00245558
0.00245272
0.00244989
0.00244704
0.00244421
0.00244137
0.00243857
0.00243574
0.00243294
0.00243012
0.00242734
0.00242454
0.00242176
0.00241897
0.00241622
0.00241344
0.00241069
0.00240792
0.00240519
0.00240245
0.00239973
0.00239699
0.00239428
0.00239155
0.00238885
0.00238615
0.00238346
0.00238076
0.00237809
0.0023754
0.00237274
0.00237008
0.00236742
0.00236477
0.00236213
0.0023595
0.00235687
0.00235398
0.00235083
0.00234775
0.00234469
0.0023417
0.00233873
0.00233582
0.00233294
0.00233012
0.00232731
0.00232458
0.00232186
0.0023192
0.00231655
0.00231397
0.00231139
0.00230887
0.00230636
0.0023039
0.00230147
0.00229907
0.00229669
0.00229435
0.00229206
0.00228977
0.00228753
0.00228529
0.00228309
0.00228092
0.00227876
0.00227664
0.00227454
0.00227246
0.00227038
0.00226834
0.00226631
0.00226433
0.00226234
0.00226041
0.00225848
0.00225658
0.0022547
0.00225285
0.002251
0.0022492
0.00224739
0.00224562
0.00224385
0.00224211
0.00224038
0.00223867
0.00223697
0.00223527
0.00223362
0.00223195
0.00223033
0.00222871
0.00222712
0.00222553
0.00222397
0.00222241
0.00222088
0.00221934
0.00221784
0.00221633
0.00221486
0.00221339
0.00221194
0.00221048
0.00220904
0.00220763
0.00220619
0.0022048
0.00220338
0.00220201
0.00220061
0.00219928
0.00219788
0.00219659
0.0021952
0.00219394
0.00219254
0.00219131
0.00218992
0.0021887
0.00218735
0.00218615
0.00218485
0.00218363
0.00218245
0.00218109
0.0021802
0.00217841
0.0021782
0.00217593
)
;
    }
    symmetry
    {
        type            symmetryPlane;
    }
    frontAndBack
    {
        type            empty;
    }
}


// ************************************************************************* //
