/*--------------------------------*- C++ -*----------------------------------*\
| =========                 |                                                 |
| \\      /  F ield         | OpenFOAM: The Open Source CFD Toolbox           |
|  \\    /   O peration     | Version:  v2012                                 |
|   \\  /    A nd           | Website:  www.openfoam.com                      |
|    \\/     M anipulation  |                                                 |
\*---------------------------------------------------------------------------*/
FoamFile
{
    version     2.0;
    format      ascii;
    class       volScalarField;
    location    "30";
    object      k;
}
// * * * * * * * * * * * * * * * * * * * * * * * * * * * * * * * * * * * * * //

dimensions      [0 2 -2 0 0 0 0];


internalField   nonuniform List<scalar> 
209825
(
0.00102299
0.000929571
0.000859581
0.000809043
0.000772511
0.000745539
0.000725115
0.000709249
0.000696674
0.00068651
0.000678183
0.000671259
0.000665449
0.000660514
0.000656295
0.000652654
0.000649495
0.000646736
0.000644308
0.000642169
0.000640267
0.000638582
0.000637062
0.000635712
0.000634485
0.000633391
0.000632381
0.000631484
0.000630648
0.000629912
0.000629211
0.000628596
0.000628015
0.000627503
0.000627002
0.000626569
0.000626148
0.000625792
0.00062543
0.000625128
0.000624827
0.000624579
0.000624309
0.000624098
0.000623886
0.000623696
0.0006235
0.000623347
0.000623188
0.000623078
0.000622957
0.000622853
0.000622738
0.000622665
0.000622576
0.000622488
0.000622432
0.000622352
0.000622285
0.000622251
0.000622183
0.000622154
0.000622084
0.000622119
0.000622119
0.0006222
0.000622265
0.000622388
0.000622394
0.000622503
0.000622526
0.000622627
0.000622687
0.000622825
0.000622895
0.000623041
0.000623114
0.000623272
0.000623354
0.000623527
0.000623616
0.00062381
0.000623915
0.000624134
0.000624251
0.000624495
0.000624625
0.000624906
0.000625051
0.000625396
0.000625543
0.000626014
0.000626266
0.000636342
0.000672374
0.00168909
0.00102299
0.000929571
0.00085958
0.00080904
0.000772506
0.000745532
0.000725106
0.000709238
0.000696662
0.000686497
0.00067817
0.000671245
0.000665433
0.000660498
0.000656279
0.000652638
0.000649478
0.000646719
0.00064429
0.000642151
0.000640249
0.000638564
0.000637044
0.000635693
0.000634466
0.000633372
0.000632361
0.000631465
0.000630628
0.000629893
0.000629191
0.000628576
0.000627995
0.000627483
0.000626982
0.000626548
0.000626127
0.000625772
0.00062541
0.000625108
0.000624806
0.000624559
0.000624288
0.000624078
0.000623865
0.000623676
0.000623479
0.000623326
0.000623167
0.000623057
0.000622937
0.000622832
0.000622717
0.000622644
0.000622555
0.000622467
0.000622411
0.000622331
0.000622264
0.00062223
0.000622162
0.000622133
0.000622063
0.000622098
0.000622098
0.000622179
0.000622244
0.000622367
0.000622373
0.000622481
0.000622505
0.000622606
0.000622665
0.000622804
0.000622873
0.00062302
0.000623092
0.00062325
0.000623332
0.000623505
0.000623595
0.000623788
0.000623893
0.000624113
0.000624229
0.000624473
0.000624603
0.000624884
0.000625029
0.000625374
0.000625521
0.000625992
0.000626245
0.000636339
0.000672362
0.00169007
0.001023
0.000929572
0.000859574
0.000809025
0.000772481
0.000745499
0.000725066
0.000709193
0.000696612
0.000686443
0.000678113
0.000671185
0.000665371
0.000660434
0.000656212
0.00065257
0.000649409
0.000646649
0.000644219
0.000642079
0.000640175
0.000638489
0.000636969
0.000635617
0.00063439
0.000633295
0.000632284
0.000631387
0.00063055
0.000629814
0.000629112
0.000628497
0.000627915
0.000627403
0.000626902
0.000626468
0.000626047
0.000625691
0.000625329
0.000625027
0.000624725
0.000624477
0.000624207
0.000623996
0.000623784
0.000623594
0.000623397
0.000623244
0.000623085
0.000622974
0.000622854
0.000622749
0.000622634
0.000622561
0.000622472
0.000622385
0.000622328
0.000622248
0.000622181
0.000622147
0.000622079
0.00062205
0.000621979
0.000622015
0.000622015
0.000622095
0.00062216
0.000622283
0.000622289
0.000622397
0.000622421
0.000622522
0.000622581
0.000622719
0.000622789
0.000622935
0.000623008
0.000623165
0.000623248
0.00062342
0.00062351
0.000623703
0.000623808
0.000624028
0.000624144
0.000624388
0.000624518
0.000624799
0.000624944
0.000625289
0.000625436
0.000625906
0.000626159
0.000636292
0.000672293
0.00169202
0.001023
0.000929572
0.000859564
0.000808999
0.00077244
0.000745444
0.000725
0.000709117
0.000696528
0.000686353
0.000678017
0.000671084
0.000665266
0.000660326
0.000656101
0.000652456
0.000649293
0.00064653
0.000644099
0.000641957
0.000640052
0.000638365
0.000636843
0.000635491
0.000634262
0.000633167
0.000632155
0.000631257
0.000630419
0.000629683
0.00062898
0.000628364
0.000627782
0.00062727
0.000626768
0.000626334
0.000625912
0.000625556
0.000625194
0.000624891
0.000624589
0.000624341
0.00062407
0.000623859
0.000623646
0.000623457
0.00062326
0.000623106
0.000622947
0.000622836
0.000622716
0.000622611
0.000622496
0.000622423
0.000622334
0.000622246
0.000622189
0.000622109
0.000622042
0.000622008
0.000621939
0.000621911
0.00062184
0.000621875
0.000621874
0.000621955
0.000622019
0.000622142
0.000622148
0.000622256
0.000622279
0.00062238
0.00062244
0.000622578
0.000622647
0.000622794
0.000622866
0.000623024
0.000623106
0.000623278
0.000623368
0.000623561
0.000623666
0.000623885
0.000624001
0.000624245
0.000624375
0.000624655
0.0006248
0.000625145
0.000625292
0.000625762
0.000626015
0.000636208
0.000672175
0.00169429
0.001023
0.000929574
0.000859549
0.000808962
0.000772381
0.000745366
0.000724906
0.00070901
0.00069641
0.000686225
0.000677881
0.000670942
0.000665119
0.000660174
0.000655945
0.000652296
0.000649129
0.000646364
0.000643929
0.000641786
0.000639879
0.00063819
0.000636666
0.000635312
0.000634082
0.000632986
0.000631972
0.000631074
0.000630235
0.000629498
0.000628794
0.000628177
0.000627595
0.000627082
0.000626579
0.000626145
0.000625722
0.000625365
0.000625003
0.0006247
0.000624397
0.000624149
0.000623878
0.000623666
0.000623453
0.000623263
0.000623066
0.000622912
0.000622753
0.000622642
0.000622521
0.000622416
0.0006223
0.000622227
0.000622138
0.00062205
0.000621993
0.000621913
0.000621845
0.000621811
0.000621743
0.000621714
0.000621643
0.000621677
0.000621677
0.000621757
0.000621821
0.000621944
0.000621949
0.000622057
0.00062208
0.000622181
0.00062224
0.000622378
0.000622448
0.000622594
0.000622666
0.000622823
0.000622905
0.000623078
0.000623167
0.00062336
0.000623465
0.000623684
0.0006238
0.000624043
0.000624173
0.000624453
0.000624598
0.000624942
0.000625088
0.000625559
0.000625812
0.000636087
0.000672006
0.00169684
0.00102301
0.000929575
0.000859529
0.000808914
0.000772305
0.000745265
0.000724784
0.000708871
0.000696257
0.00068606
0.000677706
0.000670758
0.000664928
0.000659976
0.000655741
0.000652088
0.000648917
0.000646148
0.00064371
0.000641564
0.000639654
0.000637962
0.000636437
0.000635081
0.000633849
0.000632751
0.000631736
0.000630836
0.000629996
0.000629257
0.000628553
0.000627935
0.000627352
0.000626838
0.000626334
0.000625899
0.000625476
0.000625119
0.000624755
0.000624452
0.000624149
0.0006239
0.000623628
0.000623416
0.000623203
0.000623012
0.000622815
0.000622661
0.000622501
0.000622389
0.000622268
0.000622163
0.000622047
0.000621974
0.000621884
0.000621796
0.000621739
0.000621659
0.000621591
0.000621557
0.000621488
0.000621459
0.000621388
0.000621421
0.00062142
0.000621501
0.000621565
0.000621687
0.000621692
0.0006218
0.000621823
0.000621923
0.000621982
0.00062212
0.000622189
0.000622335
0.000622407
0.000622564
0.000622646
0.000622818
0.000622907
0.000623099
0.000623204
0.000623423
0.000623538
0.000623782
0.000623911
0.000624191
0.000624335
0.000624679
0.000624825
0.000625295
0.000625549
0.000635932
0.000671788
0.00169963
0.00102301
0.000929577
0.000859506
0.000808855
0.000772211
0.000745141
0.000724634
0.0007087
0.000696068
0.000685856
0.00067749
0.000670532
0.000664692
0.000659732
0.000655491
0.000651832
0.000648656
0.000645882
0.00064344
0.00064129
0.000639377
0.000637682
0.000636154
0.000634795
0.000633561
0.000632461
0.000631445
0.000630543
0.000629701
0.000628961
0.000628256
0.000627637
0.000627052
0.000626537
0.000626033
0.000625596
0.000625173
0.000624814
0.00062445
0.000624146
0.000623842
0.000623593
0.000623321
0.000623108
0.000622894
0.000622703
0.000622505
0.000622351
0.00062219
0.000622078
0.000621957
0.000621851
0.000621735
0.000621661
0.000621572
0.000621483
0.000621425
0.000621346
0.000621277
0.000621243
0.000621174
0.000621145
0.000621073
0.000621106
0.000621105
0.000621184
0.000621248
0.00062137
0.000621374
0.000621482
0.000621504
0.000621605
0.000621663
0.000621801
0.00062187
0.000622015
0.000622087
0.000622244
0.000622326
0.000622497
0.000622587
0.000622778
0.000622883
0.000623101
0.000623216
0.000623459
0.000623589
0.000623868
0.000624012
0.000624355
0.000624501
0.00062497
0.000625224
0.00063574
0.00067152
0.00170251
0.00102302
0.000929579
0.000859478
0.000808785
0.0007721
0.000744993
0.000724456
0.000708496
0.000695843
0.000685614
0.000677233
0.000670262
0.000664411
0.000659442
0.000655193
0.000651526
0.000648344
0.000645564
0.000643118
0.000640963
0.000639046
0.000637348
0.000635817
0.000634455
0.000633218
0.000632116
0.000631097
0.000630194
0.00062935
0.000628608
0.000627901
0.00062728
0.000626694
0.000626178
0.000625673
0.000625235
0.000624811
0.000624451
0.000624086
0.000623781
0.000623476
0.000623226
0.000622954
0.00062274
0.000622526
0.000622334
0.000622136
0.000621981
0.00062182
0.000621707
0.000621585
0.000621479
0.000621363
0.000621289
0.000621199
0.00062111
0.000621052
0.000620972
0.000620903
0.000620869
0.0006208
0.00062077
0.000620698
0.00062073
0.000620728
0.000620807
0.000620871
0.000620991
0.000620996
0.000621103
0.000621125
0.000621226
0.000621283
0.00062142
0.000621489
0.000621635
0.000621706
0.000621862
0.000621944
0.000622115
0.000622204
0.000622395
0.000622499
0.000622717
0.000622832
0.000623075
0.000623204
0.000623482
0.000623626
0.000623969
0.000624113
0.000624583
0.000624837
0.000635514
0.000671202
0.00170529
0.00102302
0.000929582
0.000859446
0.000808704
0.000771971
0.000744821
0.000724248
0.000708259
0.000695581
0.000685332
0.000676933
0.000669948
0.000664084
0.000659104
0.000654845
0.00065117
0.000647981
0.000645195
0.000642743
0.000640583
0.000638661
0.000636959
0.000635424
0.000634059
0.000632819
0.000631714
0.000630693
0.000629787
0.000628941
0.000628197
0.000627488
0.000626866
0.000626278
0.00062576
0.000625254
0.000624815
0.000624389
0.000624028
0.000623662
0.000623356
0.000623051
0.0006228
0.000622526
0.000622312
0.000622097
0.000621905
0.000621706
0.00062155
0.000621388
0.000621275
0.000621153
0.000621046
0.000620929
0.000620855
0.000620764
0.000620675
0.000620617
0.000620537
0.000620467
0.000620433
0.000620363
0.000620334
0.00062026
0.000620291
0.000620289
0.000620368
0.000620431
0.00062055
0.000620554
0.000620661
0.000620683
0.000620783
0.000620841
0.000620977
0.000621046
0.000621191
0.000621262
0.000621418
0.000621499
0.00062167
0.000621759
0.000621949
0.000622053
0.00062227
0.000622385
0.000622627
0.000622755
0.000623033
0.000623176
0.000623518
0.000623662
0.000624131
0.000624386
0.000635254
0.000670833
0.00170764
0.00102303
0.000929586
0.000859409
0.000808612
0.000771824
0.000744626
0.000724012
0.000707989
0.000695283
0.000685009
0.000676591
0.000669589
0.000663711
0.000658718
0.000654448
0.000650764
0.000647566
0.000644773
0.000642314
0.000640148
0.000638221
0.000636514
0.000634975
0.000633606
0.000632362
0.000631254
0.00063023
0.000629321
0.000628473
0.000627727
0.000627016
0.000626391
0.000625802
0.000625282
0.000624774
0.000624334
0.000623906
0.000623545
0.000623177
0.00062287
0.000622563
0.000622311
0.000622037
0.000621822
0.000621606
0.000621413
0.000621213
0.000621057
0.000620895
0.000620781
0.000620658
0.000620551
0.000620433
0.000620358
0.000620267
0.000620178
0.000620119
0.000620039
0.000619969
0.000619934
0.000619864
0.000619834
0.00061976
0.00061979
0.000619787
0.000619865
0.000619928
0.000620046
0.00062005
0.000620156
0.000620177
0.000620277
0.000620334
0.00062047
0.000620538
0.000620683
0.000620754
0.000620909
0.00062099
0.00062116
0.000621249
0.000621439
0.000621542
0.000621759
0.000621873
0.000622114
0.000622242
0.000622519
0.000622662
0.000623003
0.000623146
0.000623615
0.00062387
0.000634959
0.000670412
0.00170914
0.00102304
0.000929589
0.000859368
0.000808509
0.000771659
0.000744406
0.000723746
0.000707685
0.000694947
0.000684647
0.000676206
0.000669184
0.00066329
0.000658283
0.000654001
0.000650306
0.000647098
0.000644296
0.00064183
0.000639658
0.000637725
0.000636012
0.000634468
0.000633095
0.000631847
0.000630735
0.000629708
0.000628796
0.000627945
0.000627196
0.000626483
0.000625856
0.000625264
0.000624743
0.000624233
0.000623791
0.000623362
0.000622999
0.00062263
0.000622322
0.000622014
0.000621761
0.000621485
0.000621269
0.000621052
0.000620859
0.000620658
0.000620501
0.000620337
0.000620223
0.000620099
0.000619991
0.000619873
0.000619797
0.000619706
0.000619616
0.000619556
0.000619477
0.000619406
0.000619371
0.000619301
0.00061927
0.000619196
0.000619224
0.00061922
0.000619297
0.00061936
0.000619477
0.00061948
0.000619586
0.000619607
0.000619707
0.000619763
0.000619898
0.000619966
0.00062011
0.000620181
0.000620335
0.000620416
0.000620585
0.000620673
0.000620863
0.000620966
0.000621181
0.000621295
0.000621536
0.000621663
0.000621939
0.000622082
0.000622421
0.000622564
0.000623032
0.000623289
0.000634629
0.00066994
0.00170917
0.00102305
0.000929594
0.000859324
0.000808395
0.000771476
0.000744162
0.000723451
0.000707346
0.000694573
0.000684243
0.000675777
0.000668733
0.000662821
0.000657798
0.000653502
0.000649795
0.000646577
0.000643765
0.000641291
0.000639111
0.000637171
0.000635453
0.000633903
0.000632525
0.000631273
0.000630157
0.000629125
0.00062821
0.000627356
0.000626604
0.000625888
0.000625259
0.000624665
0.000624141
0.000623629
0.000623186
0.000622755
0.00062239
0.00062202
0.00062171
0.0006214
0.000621146
0.000620869
0.000620652
0.000620434
0.00062024
0.000620038
0.00061988
0.000619716
0.0006196
0.000619475
0.000619367
0.000619249
0.000619172
0.00061908
0.00061899
0.000618929
0.000618849
0.000618778
0.000618742
0.000618672
0.000618641
0.000618566
0.000618592
0.000618587
0.000618664
0.000618726
0.000618842
0.000618844
0.000618949
0.00061897
0.000619069
0.000619125
0.00061926
0.000619327
0.000619471
0.000619541
0.000619695
0.000619775
0.000619944
0.000620031
0.00062022
0.000620322
0.000620537
0.000620651
0.00062089
0.000621017
0.000621292
0.000621434
0.000621772
0.000621914
0.000622381
0.00062264
0.000634266
0.000669416
0.00170716
0.00102306
0.000929599
0.000859275
0.00080827
0.000771274
0.000743893
0.000723125
0.000706973
0.00069416
0.000683797
0.000675303
0.000668236
0.000662303
0.000657262
0.000652951
0.00064923
0.000646001
0.000643179
0.000640695
0.000638507
0.000636559
0.000634834
0.000633278
0.000631895
0.000630638
0.000629517
0.000628481
0.000627562
0.000626705
0.00062595
0.000625231
0.000624599
0.000624002
0.000623476
0.000622962
0.000622516
0.000622083
0.000621717
0.000621345
0.000621033
0.000620722
0.000620467
0.000620189
0.00061997
0.00061975
0.000619555
0.000619353
0.000619193
0.000619028
0.000618912
0.000618786
0.000618677
0.000618558
0.00061848
0.000618388
0.000618297
0.000618236
0.000618156
0.000618083
0.000618047
0.000617977
0.000617945
0.000617869
0.000617894
0.000617888
0.000617964
0.000618026
0.000618139
0.000618141
0.000618246
0.000618266
0.000618365
0.00061842
0.000618553
0.00061862
0.000618763
0.000618833
0.000618986
0.000619066
0.000619234
0.000619321
0.000619509
0.000619611
0.000619825
0.000619938
0.000620176
0.000620303
0.000620577
0.000620717
0.000621055
0.000621195
0.000621662
0.000621922
0.000633868
0.000668839
0.00170311
0.00102308
0.000929605
0.000859222
0.000808134
0.000771055
0.000743599
0.000722769
0.000706565
0.000693709
0.000683309
0.000674784
0.000667691
0.000661735
0.000656676
0.000652347
0.000648612
0.000645369
0.000642536
0.000640041
0.000637844
0.000635889
0.000634156
0.000632594
0.000631204
0.000629941
0.000628816
0.000627775
0.000626852
0.00062599
0.000625232
0.000624509
0.000623874
0.000623275
0.000622746
0.00062223
0.000621782
0.000621347
0.000620978
0.000620604
0.000620291
0.000619978
0.000619721
0.000619442
0.000619222
0.000619
0.000618804
0.000618601
0.00061844
0.000618274
0.000618156
0.000618029
0.00061792
0.0006178
0.000617721
0.000617628
0.000617537
0.000617475
0.000617394
0.000617321
0.000617285
0.000617213
0.000617182
0.000617105
0.000617128
0.000617121
0.000617196
0.000617257
0.000617368
0.00061737
0.000617474
0.000617493
0.000617592
0.000617646
0.000617779
0.000617845
0.000617987
0.000618056
0.000618209
0.000618288
0.000618455
0.000618542
0.000618729
0.00061883
0.000619043
0.000619155
0.000619392
0.000619519
0.000619791
0.000619931
0.000620267
0.000620406
0.000620872
0.000621135
0.000633436
0.000668207
0.00169706
0.00102309
0.000929611
0.000859165
0.000807987
0.000770817
0.000743281
0.000722382
0.000706121
0.000693218
0.000682778
0.00067422
0.000667098
0.000661118
0.000656037
0.00065169
0.000647938
0.000644681
0.000641835
0.000639329
0.000637122
0.000635158
0.000633417
0.000631847
0.000630451
0.000629182
0.000628051
0.000627006
0.000626078
0.000625212
0.00062445
0.000623723
0.000623085
0.000622482
0.000621951
0.000621432
0.000620981
0.000620544
0.000620173
0.000619797
0.000619482
0.000619167
0.000618908
0.000618627
0.000618406
0.000618183
0.000617986
0.000617781
0.000617619
0.000617451
0.000617332
0.000617205
0.000617095
0.000616973
0.000616894
0.0006168
0.000616708
0.000616645
0.000616564
0.00061649
0.000616453
0.000616382
0.00061635
0.000616272
0.000616292
0.000616284
0.000616358
0.000616418
0.000616528
0.000616529
0.000616632
0.00061665
0.000616749
0.000616802
0.000616934
0.000617
0.000617141
0.00061721
0.000617361
0.00061744
0.000617606
0.000617692
0.000617878
0.000617979
0.00061819
0.000618302
0.000618538
0.000618664
0.000618935
0.000619074
0.000619408
0.000619546
0.000620011
0.000620277
0.000632969
0.000667519
0.00168904
0.0010231
0.000929618
0.000859104
0.000807829
0.000770561
0.000742937
0.000721965
0.000705642
0.000692687
0.000682204
0.000673609
0.000666456
0.000660449
0.000655345
0.000650978
0.000647209
0.000643936
0.000641076
0.000638559
0.00063634
0.000634366
0.000632617
0.000631039
0.000629635
0.00062836
0.000627223
0.000626172
0.000625239
0.000624368
0.000623602
0.000622872
0.00062223
0.000621623
0.000621089
0.000620567
0.000620114
0.000619673
0.0006193
0.000618922
0.000618605
0.000618287
0.000618027
0.000617744
0.000617521
0.000617297
0.000617098
0.000616892
0.000616729
0.00061656
0.000616439
0.00061631
0.0006162
0.000616077
0.000615996
0.000615902
0.00061581
0.000615745
0.000615665
0.000615589
0.000615552
0.000615479
0.000615447
0.000615368
0.000615387
0.000615377
0.00061545
0.000615509
0.000615616
0.000615617
0.000615719
0.000615737
0.000615834
0.000615887
0.000616018
0.000616083
0.000616224
0.000616291
0.000616442
0.00061652
0.000616685
0.000616771
0.000616955
0.000617055
0.000617266
0.000617377
0.000617612
0.000617736
0.000618006
0.000618144
0.000618477
0.000618613
0.000619078
0.000619347
0.000632466
0.000666774
0.00167909
0.00102312
0.000929626
0.000859039
0.00080766
0.000770287
0.000742569
0.000721517
0.000705127
0.000692116
0.000681587
0.000672952
0.000665765
0.000659729
0.0006546
0.000650212
0.000646423
0.000643133
0.000640259
0.000637728
0.000635497
0.000633513
0.000631753
0.000630167
0.000628755
0.000627473
0.000626329
0.000625273
0.000624334
0.000623458
0.000622687
0.000621953
0.000621307
0.000620697
0.000620159
0.000619634
0.000619178
0.000618734
0.000618358
0.000617978
0.000617658
0.000617339
0.000617076
0.000616792
0.000616567
0.000616341
0.000616141
0.000615933
0.000615769
0.000615598
0.000615476
0.000615346
0.000615234
0.00061511
0.000615028
0.000614933
0.00061484
0.000614774
0.000614694
0.000614617
0.000614579
0.000614506
0.000614473
0.000614393
0.00061441
0.000614398
0.00061447
0.000614529
0.000614633
0.000614633
0.000614734
0.000614751
0.000614848
0.000614899
0.000615029
0.000615094
0.000615234
0.000615301
0.00061545
0.000615527
0.000615692
0.000615777
0.00061596
0.000616059
0.000616268
0.000616379
0.000616612
0.000616736
0.000617004
0.000617142
0.000617473
0.000617607
0.000618071
0.000618344
0.000631926
0.00066597
0.00166726
0.00102313
0.000929635
0.000858971
0.000807481
0.000769994
0.000742176
0.000721038
0.000704576
0.000691506
0.000680925
0.000672248
0.000665024
0.000658958
0.000653801
0.000649389
0.000645579
0.000642272
0.000639381
0.000636836
0.000634593
0.000632596
0.000630827
0.000629231
0.000627811
0.000626521
0.00062537
0.000624307
0.000623363
0.000622481
0.000621705
0.000620966
0.000620316
0.000619701
0.00061916
0.000618631
0.000618172
0.000617726
0.000617347
0.000616964
0.000616642
0.00061632
0.000616055
0.000615769
0.000615541
0.000615314
0.000615112
0.000614903
0.000614737
0.000614565
0.000614441
0.000614309
0.000614197
0.000614072
0.000613988
0.000613893
0.000613798
0.000613732
0.000613651
0.000613573
0.000613534
0.00061346
0.000613427
0.000613346
0.00061336
0.000613347
0.000613417
0.000613475
0.000613576
0.000613576
0.000613676
0.000613692
0.000613788
0.000613839
0.000613967
0.000614031
0.00061417
0.000614236
0.000614384
0.000614461
0.000614624
0.000614709
0.00061489
0.000614989
0.000615197
0.000615307
0.000615538
0.000615661
0.000615928
0.000616064
0.000616393
0.000616526
0.000616989
0.000617267
0.000631349
0.000665104
0.00165362
0.00102315
0.000929645
0.0008589
0.000807291
0.000769684
0.000741757
0.000720528
0.000703989
0.000690854
0.000680219
0.000671496
0.000664234
0.000658133
0.000652947
0.00064851
0.000644678
0.000641351
0.000638443
0.000635882
0.000633625
0.000631617
0.000629836
0.00062823
0.000626801
0.000625502
0.000624344
0.000623274
0.000622323
0.000621436
0.000620654
0.00061991
0.000619256
0.000618637
0.000618092
0.000617559
0.000617097
0.000616647
0.000616265
0.000615879
0.000615554
0.00061523
0.000614963
0.000614674
0.000614444
0.000614214
0.000614012
0.0006138
0.000613633
0.000613459
0.000613333
0.0006132
0.000613086
0.00061296
0.000612875
0.000612779
0.000612684
0.000612615
0.000612534
0.000612455
0.000612416
0.000612341
0.000612307
0.000612225
0.000612237
0.000612221
0.00061229
0.000612347
0.000612445
0.000612445
0.000612543
0.000612558
0.000612654
0.000612703
0.00061283
0.000612894
0.000613031
0.000613097
0.000613244
0.00061332
0.000613482
0.000613565
0.000613746
0.000613844
0.000614049
0.000614159
0.000614389
0.000614511
0.000614776
0.000614911
0.000615238
0.000615369
0.000615831
0.000616114
0.000630732
0.000664173
0.00163822
0.00102317
0.000929656
0.000858825
0.000807091
0.000769356
0.000741314
0.000719987
0.000703365
0.000690162
0.000679469
0.000670697
0.000663392
0.000657256
0.000652039
0.000647574
0.000643719
0.00064037
0.000637444
0.000634866
0.000632595
0.000630573
0.00062878
0.000627163
0.000625724
0.000624417
0.00062325
0.000622173
0.000621215
0.000620322
0.000619534
0.000618785
0.000618125
0.000617501
0.000616952
0.000616416
0.000615949
0.000615496
0.000615111
0.000614722
0.000614394
0.000614067
0.000613797
0.000613507
0.000613274
0.000613042
0.000612838
0.000612624
0.000612455
0.000612279
0.000612152
0.000612017
0.000611902
0.000611774
0.000611688
0.00061159
0.000611494
0.000611425
0.000611343
0.000611263
0.000611223
0.000611147
0.000611112
0.00061103
0.000611039
0.000611021
0.000611089
0.000611145
0.000611238
0.000611238
0.000611335
0.000611349
0.000611444
0.000611492
0.000611618
0.00061168
0.000611817
0.000611881
0.000612027
0.000612102
0.000612263
0.000612346
0.000612525
0.000612622
0.000612826
0.000612934
0.000613163
0.000613284
0.000613547
0.00061368
0.000614006
0.000614135
0.000614595
0.000614884
0.000630073
0.000663175
0.00162115
0.00102319
0.000929668
0.000858747
0.000806881
0.00076901
0.000740846
0.000719414
0.000702705
0.000689428
0.000678673
0.000669849
0.0006625
0.000656325
0.000651074
0.000646581
0.0006427
0.000639329
0.000636382
0.000633788
0.0006315
0.000629464
0.000627658
0.00062603
0.00062458
0.000623263
0.000622088
0.000621003
0.000620038
0.000619137
0.000618344
0.000617589
0.000616923
0.000616295
0.000615741
0.0006152
0.00061473
0.000614273
0.000613884
0.000613492
0.000613161
0.00061283
0.000612558
0.000612265
0.000612031
0.000611796
0.00061159
0.000611374
0.000611203
0.000611025
0.000610896
0.000610759
0.000610643
0.000610513
0.000610426
0.000610327
0.00061023
0.000610159
0.000610077
0.000609995
0.000609954
0.000609877
0.000609842
0.000609759
0.000609765
0.000609745
0.000609811
0.000609865
0.000609955
0.000609955
0.00061005
0.000610063
0.000610158
0.000610204
0.000610328
0.00061039
0.000610525
0.000610589
0.000610733
0.000610808
0.000610967
0.000611049
0.000611226
0.000611322
0.000611524
0.000611632
0.000611859
0.000611979
0.000612239
0.000612372
0.000612695
0.000612822
0.000613281
0.000613577
0.000629371
0.000662103
0.00160248
0.00102321
0.000929681
0.000858666
0.000806661
0.000768646
0.000740353
0.000718811
0.000702009
0.000688653
0.000677833
0.000668953
0.000661555
0.00065534
0.000650054
0.000645529
0.000641621
0.000638226
0.000635259
0.000632645
0.00063034
0.000628289
0.00062647
0.000624829
0.000623368
0.000622041
0.000620856
0.000619762
0.00061879
0.000617882
0.000617082
0.000616321
0.00061565
0.000615016
0.000614457
0.000613912
0.000613437
0.000612976
0.000612583
0.000612188
0.000611854
0.00061152
0.000611245
0.000610949
0.000610712
0.000610474
0.000610266
0.000610048
0.000609875
0.000609695
0.000609564
0.000609425
0.000609307
0.000609176
0.000609087
0.000608987
0.000608889
0.000608816
0.000608734
0.00060865
0.000608609
0.000608531
0.000608495
0.000608411
0.000608414
0.000608391
0.000608455
0.000608509
0.000608595
0.000608594
0.000608688
0.0006087
0.000608793
0.000608838
0.000608961
0.000609021
0.000609156
0.000609218
0.000609361
0.000609434
0.000609592
0.000609673
0.000609849
0.000609944
0.000610144
0.000610251
0.000610475
0.000610595
0.000610853
0.000610984
0.000611305
0.00061143
0.000611888
0.000612191
0.000628622
0.000660954
0.00158231
0.00102323
0.000929695
0.000858582
0.000806431
0.000768266
0.000739835
0.000718176
0.000701275
0.000687837
0.000676947
0.000668008
0.00066056
0.0006543
0.000648976
0.000644419
0.000640482
0.000637062
0.000634071
0.000631438
0.000629115
0.000627048
0.000625214
0.00062356
0.000622087
0.000620749
0.000619555
0.000618451
0.00061747
0.000616555
0.000615747
0.00061498
0.000614303
0.000613663
0.000613099
0.000612549
0.00061207
0.000611604
0.000611208
0.000610808
0.000610471
0.000610133
0.000609855
0.000609557
0.000609317
0.000609077
0.000608866
0.000608646
0.000608471
0.000608288
0.000608155
0.000608014
0.000607895
0.000607762
0.000607671
0.00060757
0.000607471
0.000607396
0.000607313
0.000607228
0.000607185
0.000607107
0.00060707
0.000606986
0.000606986
0.000606959
0.000607022
0.000607074
0.000607155
0.000607155
0.000607246
0.000607257
0.00060735
0.000607393
0.000607514
0.000607574
0.000607706
0.000607768
0.000607909
0.000607982
0.000608138
0.000608218
0.000608391
0.000608486
0.000608684
0.00060879
0.000609012
0.00060913
0.000609386
0.000609516
0.000609835
0.000609957
0.000610414
0.000610725
0.000627822
0.000659723
0.00156071
0.00102325
0.000929711
0.000858496
0.000806192
0.000767868
0.000739293
0.000717511
0.000700505
0.00068698
0.000676015
0.000667014
0.000659512
0.000653206
0.000647842
0.00064325
0.000639282
0.000635835
0.000632821
0.000630165
0.000627824
0.000625739
0.00062389
0.000622222
0.000620736
0.000619386
0.000618182
0.000617069
0.000616079
0.000615155
0.00061434
0.000613566
0.000612882
0.000612236
0.000611667
0.000611112
0.000610628
0.000610157
0.000609757
0.000609353
0.000609012
0.000608671
0.00060839
0.000608088
0.000607845
0.000607602
0.000607389
0.000607167
0.000606989
0.000606804
0.000606668
0.000606525
0.000606404
0.00060627
0.000606177
0.000606074
0.000605974
0.000605897
0.000605814
0.000605727
0.000605683
0.000605603
0.000605566
0.000605482
0.000605478
0.000605448
0.000605509
0.00060556
0.000605636
0.000605636
0.000605725
0.000605735
0.000605827
0.000605868
0.000605987
0.000606046
0.000606177
0.000606237
0.000606377
0.000606448
0.000606603
0.000606682
0.000606854
0.000606947
0.000607143
0.000607248
0.000607468
0.000607585
0.000607839
0.000607967
0.000608283
0.000608403
0.000608858
0.000609178
0.000626964
0.000658405
0.0015378
0.00102327
0.000929727
0.000858407
0.000805943
0.000767453
0.000738727
0.000716815
0.000699699
0.000686081
0.000675038
0.00066597
0.000658411
0.000652057
0.000646651
0.000642021
0.000638021
0.000634545
0.000631505
0.000628827
0.000626466
0.000624363
0.000622497
0.000620814
0.000619315
0.000617953
0.000616737
0.000615614
0.000614615
0.000613682
0.000612859
0.000612077
0.000611387
0.000610734
0.000610159
0.000609598
0.00060911
0.000608634
0.000608229
0.000607821
0.000607476
0.000607131
0.000606846
0.000606542
0.000606295
0.000606049
0.000605834
0.000605609
0.000605429
0.000605241
0.000605103
0.000604957
0.000604835
0.000604698
0.000604603
0.000604499
0.000604397
0.000604318
0.000604235
0.000604146
0.000604101
0.00060402
0.000603982
0.000603897
0.00060389
0.000603857
0.000603916
0.000603965
0.000604037
0.000604036
0.000604123
0.000604132
0.000604222
0.000604262
0.000604379
0.000604437
0.000604566
0.000604625
0.000604763
0.000604833
0.000604986
0.000605064
0.000605234
0.000605326
0.00060552
0.000605623
0.000605841
0.000605957
0.000606208
0.000606335
0.000606649
0.000606766
0.00060722
0.000607549
0.000626039
0.000656998
0.00151366
0.00102329
0.000929745
0.000858316
0.000805686
0.000767022
0.000738137
0.000716088
0.000698856
0.000685141
0.000674016
0.000664877
0.000657259
0.000650852
0.000645401
0.000640733
0.000636698
0.000633192
0.000630125
0.000627423
0.00062504
0.000622918
0.000621035
0.000619336
0.000617823
0.000616448
0.00061522
0.000614086
0.000613077
0.000612135
0.000611303
0.000610514
0.000609816
0.000609157
0.000608575
0.000608009
0.000607515
0.000607034
0.000606624
0.000606212
0.000605862
0.000605513
0.000605225
0.000604916
0.000604666
0.000604417
0.000604199
0.000603971
0.000603789
0.000603598
0.000603457
0.000603309
0.000603185
0.000603047
0.00060295
0.000602843