/*--------------------------------*- C++ -*----------------------------------*\
| =========                 |                                                 |
| \\      /  F ield         | OpenFOAM: The Open Source CFD Toolbox           |
|  \\    /   O peration     | Version:  v2012                                 |
|   \\  /    A nd           | Website:  www.openfoam.com                      |
|    \\/     M anipulation  |                                                 |
\*---------------------------------------------------------------------------*/
FoamFile
{
    version     2.0;
    format      ascii;
    class       volScalarField;
    location    "30";
    object      nut;
}
// * * * * * * * * * * * * * * * * * * * * * * * * * * * * * * * * * * * * * //

dimensions      [0 2 -1 0 0 0 0];


internalField   nonuniform List<scalar> 
209825
(
1.23867e-07
1.22951e-07
1.22654e-07
1.22813e-07
1.23204e-07
1.23663e-07
1.24132e-07
1.24565e-07
1.2497e-07
1.25329e-07
1.25661e-07
1.25952e-07
1.26224e-07
1.2646e-07
1.26684e-07
1.26878e-07
1.27064e-07
1.27224e-07
1.2738e-07
1.27513e-07
1.27645e-07
1.27758e-07
1.27871e-07
1.27967e-07
1.28064e-07
1.28146e-07
1.28229e-07
1.283e-07
1.28373e-07
1.28435e-07
1.28499e-07
1.28552e-07
1.2861e-07
1.28658e-07
1.28708e-07
1.28748e-07
1.28793e-07
1.28831e-07
1.28872e-07
1.28904e-07
1.28942e-07
1.28974e-07
1.29004e-07
1.29031e-07
1.29064e-07
1.29086e-07
1.29113e-07
1.29133e-07
1.29158e-07
1.2918e-07
1.29202e-07
1.29218e-07
1.2924e-07
1.2926e-07
1.29276e-07
1.2929e-07
1.29309e-07
1.29319e-07
1.29328e-07
1.2934e-07
1.29347e-07
1.29359e-07
1.29358e-07
1.2938e-07
1.29397e-07
1.29425e-07
1.29448e-07
1.29479e-07
1.2949e-07
1.29518e-07
1.29534e-07
1.2956e-07
1.29585e-07
1.29613e-07
1.29629e-07
1.29654e-07
1.2967e-07
1.29692e-07
1.2971e-07
1.2973e-07
1.29749e-07
1.29768e-07
1.2979e-07
1.2981e-07
1.29831e-07
1.29855e-07
1.29875e-07
1.29903e-07
1.29925e-07
1.29962e-07
1.29986e-07
1.30035e-07
1.30071e-07
1.31257e-07
1.35225e-07
1.48598e-08
1.23867e-07
1.22951e-07
1.22654e-07
1.22813e-07
1.23204e-07
1.23663e-07
1.24131e-07
1.24565e-07
1.2497e-07
1.25328e-07
1.25661e-07
1.25952e-07
1.26223e-07
1.2646e-07
1.26684e-07
1.26878e-07
1.27064e-07
1.27224e-07
1.27379e-07
1.27513e-07
1.27645e-07
1.27758e-07
1.27871e-07
1.27967e-07
1.28064e-07
1.28146e-07
1.28229e-07
1.283e-07
1.28373e-07
1.28435e-07
1.28499e-07
1.28552e-07
1.2861e-07
1.28658e-07
1.28708e-07
1.28748e-07
1.28793e-07
1.28831e-07
1.28872e-07
1.28904e-07
1.28942e-07
1.28974e-07
1.29004e-07
1.29031e-07
1.29064e-07
1.29086e-07
1.29113e-07
1.29133e-07
1.29158e-07
1.2918e-07
1.29202e-07
1.29219e-07
1.2924e-07
1.2926e-07
1.29276e-07
1.2929e-07
1.29309e-07
1.2932e-07
1.29328e-07
1.2934e-07
1.29347e-07
1.29359e-07
1.29358e-07
1.2938e-07
1.29397e-07
1.29425e-07
1.29448e-07
1.29479e-07
1.2949e-07
1.29518e-07
1.29534e-07
1.2956e-07
1.29585e-07
1.29613e-07
1.29629e-07
1.29655e-07
1.2967e-07
1.29693e-07
1.2971e-07
1.2973e-07
1.29749e-07
1.29768e-07
1.2979e-07
1.29811e-07
1.29831e-07
1.29855e-07
1.29875e-07
1.29904e-07
1.29925e-07
1.29962e-07
1.29986e-07
1.30035e-07
1.30072e-07
1.3126e-07
1.35227e-07
1.53127e-08
1.23867e-07
1.22951e-07
1.22654e-07
1.22811e-07
1.23202e-07
1.23661e-07
1.24129e-07
1.24562e-07
1.24967e-07
1.25326e-07
1.25658e-07
1.25949e-07
1.26221e-07
1.26457e-07
1.26681e-07
1.26875e-07
1.27061e-07
1.27221e-07
1.27377e-07
1.2751e-07
1.27642e-07
1.27755e-07
1.27868e-07
1.27964e-07
1.28061e-07
1.28143e-07
1.28226e-07
1.28297e-07
1.2837e-07
1.28432e-07
1.28496e-07
1.28549e-07
1.28608e-07
1.28655e-07
1.28705e-07
1.28745e-07
1.28791e-07
1.28829e-07
1.28869e-07
1.28901e-07
1.28939e-07
1.28971e-07
1.29002e-07
1.29028e-07
1.29061e-07
1.29084e-07
1.29111e-07
1.29131e-07
1.29155e-07
1.29177e-07
1.292e-07
1.29216e-07
1.29237e-07
1.29257e-07
1.29273e-07
1.29287e-07
1.29307e-07
1.29317e-07
1.29326e-07
1.29338e-07
1.29344e-07
1.29357e-07
1.29356e-07
1.29378e-07
1.29395e-07
1.29422e-07
1.29446e-07
1.29477e-07
1.29487e-07
1.29515e-07
1.29531e-07
1.29558e-07
1.29583e-07
1.29611e-07
1.29627e-07
1.29652e-07
1.29667e-07
1.2969e-07
1.29707e-07
1.29728e-07
1.29746e-07
1.29765e-07
1.29787e-07
1.29808e-07
1.29828e-07
1.29852e-07
1.29873e-07
1.29901e-07
1.29923e-07
1.29959e-07
1.29984e-07
1.30032e-07
1.30069e-07
1.31262e-07
1.35227e-07
1.58748e-08
1.23867e-07
1.22951e-07
1.22653e-07
1.2281e-07
1.23199e-07
1.23658e-07
1.24126e-07
1.24558e-07
1.24963e-07
1.25321e-07
1.25654e-07
1.25945e-07
1.26216e-07
1.26453e-07
1.26677e-07
1.2687e-07
1.27056e-07
1.27217e-07
1.27372e-07
1.27506e-07
1.27638e-07
1.27751e-07
1.27864e-07
1.2796e-07
1.28057e-07
1.28139e-07
1.28222e-07
1.28293e-07
1.28366e-07
1.28428e-07
1.28492e-07
1.28545e-07
1.28604e-07
1.28651e-07
1.28701e-07
1.28741e-07
1.28787e-07
1.28825e-07
1.28865e-07
1.28897e-07
1.28935e-07
1.28967e-07
1.28998e-07
1.29024e-07
1.29058e-07
1.2908e-07
1.29107e-07
1.29127e-07
1.29151e-07
1.29173e-07
1.29196e-07
1.29212e-07
1.29234e-07
1.29253e-07
1.2927e-07
1.29284e-07
1.29303e-07
1.29313e-07
1.29322e-07
1.29334e-07
1.2934e-07
1.29353e-07
1.29352e-07
1.29374e-07
1.29391e-07
1.29418e-07
1.29442e-07
1.29473e-07
1.29483e-07
1.29511e-07
1.29528e-07
1.29554e-07
1.29579e-07
1.29607e-07
1.29623e-07
1.29648e-07
1.29663e-07
1.29686e-07
1.29703e-07
1.29724e-07
1.29743e-07
1.29762e-07
1.29783e-07
1.29804e-07
1.29825e-07
1.29849e-07
1.29869e-07
1.29897e-07
1.29919e-07
1.29955e-07
1.2998e-07
1.30028e-07
1.30065e-07
1.31266e-07
1.35227e-07
1.64985e-08
1.23868e-07
1.22951e-07
1.22651e-07
1.22807e-07
1.23196e-07
1.23653e-07
1.2412e-07
1.24553e-07
1.24957e-07
1.25316e-07
1.25648e-07
1.25939e-07
1.2621e-07
1.26447e-07
1.26671e-07
1.26865e-07
1.27051e-07
1.27211e-07
1.27366e-07
1.275e-07
1.27632e-07
1.27745e-07
1.27858e-07
1.27954e-07
1.28051e-07
1.28133e-07
1.28217e-07
1.28288e-07
1.28361e-07
1.28423e-07
1.28487e-07
1.2854e-07
1.28598e-07
1.28646e-07
1.28696e-07
1.28736e-07
1.28781e-07
1.28819e-07
1.2886e-07
1.28892e-07
1.2893e-07
1.28962e-07
1.28993e-07
1.29019e-07
1.29053e-07
1.29075e-07
1.29102e-07
1.29122e-07
1.29146e-07
1.29168e-07
1.29191e-07
1.29207e-07
1.29229e-07
1.29248e-07
1.29265e-07
1.29279e-07
1.29298e-07
1.29308e-07
1.29317e-07
1.29329e-07
1.29336e-07
1.29348e-07
1.29347e-07
1.29369e-07
1.29386e-07
1.29414e-07
1.29437e-07
1.29468e-07
1.29478e-07
1.29506e-07
1.29523e-07
1.29549e-07
1.29574e-07
1.29602e-07
1.29618e-07
1.29643e-07
1.29659e-07
1.29682e-07
1.29699e-07
1.29719e-07
1.29738e-07
1.29757e-07
1.29779e-07
1.29799e-07
1.2982e-07
1.29844e-07
1.29864e-07
1.29893e-07
1.29914e-07
1.29951e-07
1.29975e-07
1.30024e-07
1.30061e-07
1.31271e-07
1.35228e-07
1.71748e-08
1.23868e-07
1.22951e-07
1.22649e-07
1.22803e-07
1.23191e-07
1.23648e-07
1.24114e-07
1.24546e-07
1.2495e-07
1.25308e-07
1.25641e-07
1.25931e-07
1.26203e-07
1.2644e-07
1.26663e-07
1.26857e-07
1.27043e-07
1.27204e-07
1.27359e-07
1.27493e-07
1.27625e-07
1.27738e-07
1.27851e-07
1.27947e-07
1.28044e-07
1.28126e-07
1.2821e-07
1.28281e-07
1.28354e-07
1.28416e-07
1.2848e-07
1.28533e-07
1.28592e-07
1.28639e-07
1.28689e-07
1.28729e-07
1.28775e-07
1.28813e-07
1.28854e-07
1.28886e-07
1.28924e-07
1.28956e-07
1.28986e-07
1.29013e-07
1.29046e-07
1.29068e-07
1.29096e-07
1.29116e-07
1.2914e-07
1.29162e-07
1.29185e-07
1.29201e-07
1.29223e-07
1.29242e-07
1.29259e-07
1.29273e-07
1.29292e-07
1.29302e-07
1.29311e-07
1.29323e-07
1.2933e-07
1.29342e-07
1.29342e-07
1.29363e-07
1.2938e-07
1.29408e-07
1.29431e-07
1.29462e-07
1.29472e-07
1.295e-07
1.29517e-07
1.29543e-07
1.29568e-07
1.29596e-07
1.29612e-07
1.29637e-07
1.29652e-07
1.29676e-07
1.29693e-07
1.29713e-07
1.29732e-07
1.29751e-07
1.29773e-07
1.29794e-07
1.29814e-07
1.29838e-07
1.29858e-07
1.29887e-07
1.29908e-07
1.29945e-07
1.29969e-07
1.30017e-07
1.30054e-07
1.31278e-07
1.35229e-07
1.79019e-08
1.23868e-07
1.2295e-07
1.22647e-07
1.22799e-07
1.23185e-07
1.2364e-07
1.24106e-07
1.24538e-07
1.24942e-07
1.253e-07
1.25632e-07
1.25922e-07
1.26194e-07
1.26431e-07
1.26654e-07
1.26848e-07
1.27034e-07
1.27195e-07
1.2735e-07
1.27484e-07
1.27617e-07
1.2773e-07
1.27842e-07
1.27939e-07
1.28036e-07
1.28118e-07
1.28202e-07
1.28273e-07
1.28346e-07
1.28408e-07
1.28472e-07
1.28525e-07
1.28584e-07
1.28631e-07
1.28681e-07
1.28721e-07
1.28767e-07
1.28805e-07
1.28846e-07
1.28878e-07
1.28916e-07
1.28948e-07
1.28979e-07
1.29005e-07
1.29039e-07
1.29061e-07
1.29088e-07
1.29108e-07
1.29133e-07
1.29155e-07
1.29177e-07
1.29194e-07
1.29215e-07
1.29235e-07
1.29251e-07
1.29265e-07
1.29285e-07
1.29295e-07
1.29304e-07
1.29316e-07
1.29323e-07
1.29335e-07
1.29334e-07
1.29356e-07
1.29373e-07
1.294e-07
1.29424e-07
1.29455e-07
1.29465e-07
1.29493e-07
1.29509e-07
1.29536e-07
1.2956e-07
1.29588e-07
1.29605e-07
1.2963e-07
1.29645e-07
1.29668e-07
1.29685e-07
1.29706e-07
1.29725e-07
1.29744e-07
1.29766e-07
1.29786e-07
1.29807e-07
1.29831e-07
1.29851e-07
1.29879e-07
1.29901e-07
1.29937e-07
1.29962e-07
1.3001e-07
1.30047e-07
1.31287e-07
1.35231e-07
1.86801e-08
1.23869e-07
1.2295e-07
1.22645e-07
1.22794e-07
1.23178e-07
1.23632e-07
1.24097e-07
1.24528e-07
1.24931e-07
1.25289e-07
1.25621e-07
1.25912e-07
1.26183e-07
1.2642e-07
1.26644e-07
1.26838e-07
1.27024e-07
1.27184e-07
1.2734e-07
1.27474e-07
1.27607e-07
1.2772e-07
1.27832e-07
1.27929e-07
1.28026e-07
1.28108e-07
1.28192e-07
1.28263e-07
1.28336e-07
1.28398e-07
1.28462e-07
1.28516e-07
1.28574e-07
1.28622e-07
1.28672e-07
1.28712e-07
1.28758e-07
1.28796e-07
1.28837e-07
1.28869e-07
1.28907e-07
1.28939e-07
1.2897e-07
1.28997e-07
1.2903e-07
1.29052e-07
1.29079e-07
1.291e-07
1.29124e-07
1.29146e-07
1.29169e-07
1.29185e-07
1.29207e-07
1.29226e-07
1.29243e-07
1.29257e-07
1.29276e-07
1.29287e-07
1.29296e-07
1.29308e-07
1.29314e-07
1.29327e-07
1.29326e-07
1.29348e-07
1.29365e-07
1.29392e-07
1.29416e-07
1.29446e-07
1.29457e-07
1.29484e-07
1.29501e-07
1.29527e-07
1.29552e-07
1.2958e-07
1.29596e-07
1.29622e-07
1.29637e-07
1.2966e-07
1.29677e-07
1.29698e-07
1.29716e-07
1.29736e-07
1.29757e-07
1.29778e-07
1.29799e-07
1.29822e-07
1.29843e-07
1.29871e-07
1.29893e-07
1.29929e-07
1.29953e-07
1.30002e-07
1.30039e-07
1.31299e-07
1.35233e-07
1.95103e-08
1.23869e-07
1.22949e-07
1.22641e-07
1.22788e-07
1.2317e-07
1.23622e-07
1.24086e-07
1.24517e-07
1.2492e-07
1.25277e-07
1.25609e-07
1.259e-07
1.26171e-07
1.26408e-07
1.26632e-07
1.26826e-07
1.27012e-07
1.27172e-07
1.27328e-07
1.27462e-07
1.27595e-07
1.27708e-07
1.27821e-07
1.27917e-07
1.28015e-07
1.28097e-07
1.28181e-07
1.28252e-07
1.28325e-07
1.28387e-07
1.28452e-07
1.28505e-07
1.28564e-07
1.28611e-07
1.28662e-07
1.28702e-07
1.28748e-07
1.28786e-07
1.28827e-07
1.28859e-07
1.28897e-07
1.28929e-07
1.2896e-07
1.28986e-07
1.2902e-07
1.29042e-07
1.29069e-07
1.2909e-07
1.29114e-07
1.29136e-07
1.29159e-07
1.29175e-07
1.29197e-07
1.29217e-07
1.29233e-07
1.29247e-07
1.29267e-07
1.29277e-07
1.29286e-07
1.29298e-07
1.29305e-07
1.29318e-07
1.29317e-07
1.29338e-07
1.29355e-07
1.29382e-07
1.29406e-07
1.29436e-07
1.29447e-07
1.29475e-07
1.29491e-07
1.29517e-07
1.29542e-07
1.2957e-07
1.29586e-07
1.29612e-07
1.29627e-07
1.2965e-07
1.29667e-07
1.29688e-07
1.29707e-07
1.29726e-07
1.29748e-07
1.29769e-07
1.29789e-07
1.29813e-07
1.29833e-07
1.29862e-07
1.29883e-07
1.29919e-07
1.29944e-07
1.29992e-07
1.30029e-07
1.31313e-07
1.35236e-07
2.0393e-08
1.2387e-07
1.22949e-07
1.22638e-07
1.22781e-07
1.2316e-07
1.23611e-07
1.24074e-07
1.24504e-07
1.24906e-07
1.25263e-07
1.25595e-07
1.25886e-07
1.26157e-07
1.26394e-07
1.26618e-07
1.26812e-07
1.26998e-07
1.27159e-07
1.27315e-07
1.27449e-07
1.27582e-07
1.27695e-07
1.27808e-07
1.27904e-07
1.28002e-07
1.28084e-07
1.28168e-07
1.28239e-07
1.28313e-07
1.28375e-07
1.28439e-07
1.28493e-07
1.28552e-07
1.28599e-07
1.2865e-07
1.2869e-07
1.28736e-07
1.28774e-07
1.28815e-07
1.28847e-07
1.28885e-07
1.28917e-07
1.28948e-07
1.28975e-07
1.29008e-07
1.29031e-07
1.29058e-07
1.29079e-07
1.29103e-07
1.29125e-07
1.29148e-07
1.29164e-07
1.29186e-07
1.29206e-07
1.29222e-07
1.29236e-07
1.29256e-07
1.29267e-07
1.29275e-07
1.29288e-07
1.29294e-07
1.29307e-07
1.29306e-07
1.29327e-07
1.29344e-07
1.29371e-07
1.29395e-07
1.29425e-07
1.29436e-07
1.29464e-07
1.2948e-07
1.29506e-07
1.2953e-07
1.29559e-07
1.29576e-07
1.29601e-07
1.29616e-07
1.2964e-07
1.29657e-07
1.29677e-07
1.29696e-07
1.29715e-07
1.29737e-07
1.29758e-07
1.29779e-07
1.29802e-07
1.29823e-07
1.29851e-07
1.29873e-07
1.29909e-07
1.29933e-07
1.29981e-07
1.30019e-07
1.3133e-07
1.35239e-07
2.13283e-08
1.2387e-07
1.22948e-07
1.22634e-07
1.22774e-07
1.2315e-07
1.23599e-07
1.2406e-07
1.24489e-07
1.24891e-07
1.25248e-07
1.25579e-07
1.2587e-07
1.26142e-07
1.26378e-07
1.26602e-07
1.26796e-07
1.26983e-07
1.27144e-07
1.273e-07
1.27434e-07
1.27567e-07
1.2768e-07
1.27793e-07
1.2789e-07
1.27988e-07
1.2807e-07
1.28154e-07
1.28225e-07
1.28299e-07
1.28361e-07
1.28426e-07
1.28479e-07
1.28538e-07
1.28586e-07
1.28636e-07
1.28677e-07
1.28723e-07
1.28761e-07
1.28802e-07
1.28834e-07
1.28872e-07
1.28905e-07
1.28935e-07
1.28962e-07
1.28996e-07
1.29018e-07
1.29046e-07
1.29066e-07
1.29091e-07
1.29112e-07
1.29135e-07
1.29152e-07
1.29174e-07
1.29193e-07
1.2921e-07
1.29224e-07
1.29244e-07
1.29255e-07
1.29263e-07
1.29276e-07
1.29282e-07
1.29295e-07
1.29294e-07
1.29315e-07
1.29332e-07
1.29359e-07
1.29383e-07
1.29413e-07
1.29423e-07
1.29451e-07
1.29467e-07
1.29494e-07
1.29518e-07
1.29546e-07
1.29563e-07
1.29589e-07
1.29604e-07
1.29628e-07
1.29644e-07
1.29666e-07
1.29684e-07
1.29703e-07
1.29725e-07
1.29746e-07
1.29767e-07
1.2979e-07
1.29811e-07
1.29839e-07
1.29861e-07
1.29897e-07
1.29921e-07
1.29969e-07
1.30007e-07
1.31349e-07
1.35243e-07
2.23147e-08
1.23871e-07
1.22948e-07
1.2263e-07
1.22765e-07
1.23139e-07
1.23585e-07
1.24045e-07
1.24473e-07
1.24874e-07
1.25231e-07
1.25562e-07
1.25852e-07
1.26124e-07
1.26361e-07
1.26585e-07
1.26779e-07
1.26966e-07
1.27127e-07
1.27283e-07
1.27417e-07
1.2755e-07
1.27664e-07
1.27777e-07
1.27874e-07
1.27972e-07
1.28054e-07
1.28138e-07
1.2821e-07
1.28283e-07
1.28346e-07
1.2841e-07
1.28464e-07
1.28523e-07
1.28571e-07
1.28621e-07
1.28662e-07
1.28708e-07
1.28746e-07
1.28787e-07
1.2882e-07
1.28858e-07
1.2889e-07
1.28921e-07
1.28948e-07
1.28982e-07
1.29004e-07
1.29032e-07
1.29052e-07
1.29077e-07
1.29099e-07
1.29122e-07
1.29138e-07
1.2916e-07
1.2918e-07
1.29197e-07
1.29211e-07
1.2923e-07
1.29241e-07
1.2925e-07
1.29263e-07
1.29269e-07
1.29282e-07
1.29281e-07
1.29302e-07
1.29318e-07
1.29346e-07
1.2937e-07
1.29399e-07
1.2941e-07
1.29438e-07
1.29454e-07
1.2948e-07
1.29504e-07
1.29533e-07
1.2955e-07
1.29576e-07
1.2959e-07
1.29614e-07
1.29631e-07
1.29652e-07
1.29671e-07
1.2969e-07
1.29712e-07
1.29733e-07
1.29753e-07
1.29777e-07
1.29797e-07
1.29826e-07
1.29847e-07
1.29883e-07
1.29907e-07
1.29955e-07
1.29994e-07
1.31371e-07
1.35248e-07
2.33512e-08
1.23872e-07
1.22947e-07
1.22625e-07
1.22756e-07
1.23126e-07
1.2357e-07
1.24029e-07
1.24455e-07
1.24856e-07
1.25212e-07
1.25543e-07
1.25833e-07
1.26105e-07
1.26342e-07
1.26566e-07
1.2676e-07
1.26947e-07
1.27108e-07
1.27264e-07
1.27399e-07
1.27532e-07
1.27646e-07
1.27759e-07
1.27856e-07
1.27954e-07
1.28037e-07
1.28121e-07
1.28193e-07
1.28266e-07
1.28329e-07
1.28394e-07
1.28447e-07
1.28506e-07
1.28554e-07
1.28605e-07
1.28645e-07
1.28692e-07
1.2873e-07
1.28771e-07
1.28804e-07
1.28842e-07
1.28874e-07
1.28905e-07
1.28932e-07
1.28966e-07
1.28989e-07
1.29016e-07
1.29037e-07
1.29061e-07
1.29083e-07
1.29106e-07
1.29123e-07
1.29145e-07
1.29165e-07
1.29182e-07
1.29196e-07
1.29215e-07
1.29226e-07
1.29235e-07
1.29248e-07
1.29255e-07
1.29268e-07
1.29267e-07
1.29287e-07
1.29304e-07
1.29331e-07
1.29355e-07
1.29384e-07
1.29395e-07
1.29423e-07
1.29439e-07
1.29465e-07
1.29489e-07
1.29517e-07
1.29535e-07
1.29561e-07
1.29576e-07
1.29599e-07
1.29616e-07
1.29638e-07
1.29656e-07
1.29676e-07
1.29697e-07
1.29718e-07
1.29739e-07
1.29762e-07
1.29783e-07
1.29811e-07
1.29833e-07
1.29869e-07
1.29892e-07
1.29941e-07
1.29979e-07
1.31397e-07
1.35253e-07
2.44404e-08
1.23873e-07
1.22946e-07
1.2262e-07
1.22746e-07
1.23112e-07
1.23554e-07
1.2401e-07
1.24436e-07
1.24836e-07
1.25191e-07
1.25522e-07
1.25812e-07
1.26084e-07
1.26321e-07
1.26545e-07
1.26739e-07
1.26926e-07
1.27088e-07
1.27244e-07
1.27379e-07
1.27512e-07
1.27626e-07
1.2774e-07
1.27836e-07
1.27935e-07
1.28018e-07
1.28102e-07
1.28174e-07
1.28248e-07
1.2831e-07
1.28375e-07
1.28429e-07
1.28488e-07
1.28536e-07
1.28587e-07
1.28628e-07
1.28674e-07
1.28712e-07
1.28754e-07
1.28786e-07
1.28825e-07
1.28857e-07
1.28888e-07
1.28915e-07
1.28949e-07
1.28972e-07
1.28999e-07
1.2902e-07
1.29045e-07
1.29067e-07
1.2909e-07
1.29107e-07
1.29128e-07
1.29148e-07
1.29165e-07
1.29179e-07
1.29199e-07
1.2921e-07
1.2922e-07
1.29232e-07
1.29239e-07
1.29252e-07
1.29251e-07
1.29271e-07
1.29287e-07
1.29315e-07
1.29339e-07
1.29368e-07
1.29379e-07
1.29406e-07
1.29422e-07
1.29448e-07
1.29472e-07
1.29501e-07
1.29518e-07
1.29545e-07
1.29559e-07
1.29583e-07
1.296e-07
1.29622e-07
1.2964e-07
1.2966e-07
1.29681e-07
1.29702e-07
1.29723e-07
1.29746e-07
1.29767e-07
1.29795e-07
1.29817e-07
1.29853e-07
1.29876e-07
1.29924e-07
1.29963e-07
1.31425e-07
1.35259e-07
2.55856e-08
1.23874e-07
1.22946e-07
1.22614e-07
1.22736e-07
1.23097e-07
1.23536e-07
1.2399e-07
1.24414e-07
1.24814e-07
1.25169e-07
1.25499e-07
1.25789e-07
1.26061e-07
1.26298e-07
1.26522e-07
1.26717e-07
1.26904e-07
1.27065e-07
1.27222e-07
1.27357e-07
1.2749e-07
1.27604e-07
1.27718e-07
1.27815e-07
1.27914e-07
1.27997e-07
1.28081e-07
1.28153e-07
1.28227e-07
1.2829e-07
1.28355e-07
1.28409e-07
1.28469e-07
1.28517e-07
1.28568e-07
1.28608e-07
1.28655e-07
1.28693e-07
1.28735e-07
1.28767e-07
1.28806e-07
1.28838e-07
1.2887e-07
1.28897e-07
1.2893e-07
1.28953e-07
1.28981e-07
1.29002e-07
1.29027e-07
1.29049e-07
1.29072e-07
1.29089e-07
1.2911e-07
1.2913e-07
1.29148e-07
1.29162e-07
1.29181e-07
1.29193e-07
1.29202e-07
1.29215e-07
1.29222e-07
1.29235e-07
1.29234e-07
1.29253e-07
1.2927e-07
1.29297e-07
1.29321e-07
1.2935e-07
1.29361e-07
1.29388e-07
1.29404e-07
1.2943e-07
1.29454e-07
1.29483e-07
1.29501e-07
1.29527e-07
1.29542e-07
1.29566e-07
1.29582e-07
1.29604e-07
1.29622e-07
1.29643e-07
1.29664e-07
1.29685e-07
1.29706e-07
1.29729e-07
1.2975e-07
1.29778e-07
1.29799e-07
1.29835e-07
1.29859e-07
1.29907e-07
1.29946e-07
1.31457e-07
1.35265e-07
2.67902e-08
1.23875e-07
1.22945e-07
1.22609e-07
1.22724e-07
1.23081e-07
1.23516e-07
1.23969e-07
1.24391e-07
1.2479e-07
1.25144e-07
1.25475e-07
1.25765e-07
1.26036e-07
1.26273e-07
1.26498e-07
1.26692e-07
1.2688e-07
1.27041e-07
1.27198e-07
1.27333e-07
1.27467e-07
1.27581e-07
1.27695e-07
1.27792e-07
1.27891e-07
1.27974e-07
1.28059e-07
1.28131e-07
1.28205e-07
1.28268e-07
1.28334e-07
1.28388e-07
1.28447e-07
1.28495e-07
1.28547e-07
1.28587e-07
1.28634e-07
1.28672e-07
1.28714e-07
1.28747e-07
1.28785e-07
1.28818e-07
1.2885e-07
1.28877e-07
1.2891e-07
1.28933e-07
1.28961e-07
1.28982e-07
1.29007e-07
1.29029e-07
1.29052e-07
1.29069e-07
1.29091e-07
1.29111e-07
1.29128e-07
1.29143e-07
1.29162e-07
1.29174e-07
1.29183e-07
1.29196e-07
1.29203e-07
1.29216e-07
1.29215e-07
1.29235e-07
1.29251e-07
1.29278e-07
1.29302e-07
1.29331e-07
1.29342e-07
1.29369e-07
1.29385e-07
1.29411e-07
1.29434e-07
1.29463e-07
1.29482e-07
1.29508e-07
1.29523e-07
1.29547e-07
1.29563e-07
1.29586e-07
1.29604e-07
1.29624e-07
1.29645e-07
1.29666e-07
1.29687e-07
1.2971e-07
1.29731e-07
1.29759e-07
1.29781e-07
1.29816e-07
1.2984e-07
1.29888e-07
1.29928e-07
1.31492e-07
1.35271e-07
2.80577e-08
1.23876e-07
1.22944e-07
1.22602e-07
1.22712e-07
1.23064e-07
1.23496e-07
1.23946e-07
1.24367e-07
1.24764e-07
1.25118e-07
1.25448e-07
1.25738e-07
1.2601e-07
1.26246e-07
1.26471e-07
1.26666e-07
1.26853e-07
1.27015e-07
1.27172e-07
1.27308e-07
1.27442e-07
1.27556e-07
1.2767e-07
1.27768e-07
1.27867e-07
1.2795e-07
1.28035e-07
1.28107e-07
1.28182e-07
1.28245e-07
1.2831e-07
1.28364e-07
1.28424e-07
1.28472e-07
1.28524e-07
1.28565e-07
1.28611e-07
1.2865e-07
1.28692e-07
1.28725e-07
1.28763e-07
1.28796e-07
1.28828e-07
1.28855e-07
1.28889e-07
1.28912e-07
1.2894e-07
1.28961e-07
1.28986e-07
1.29008e-07
1.29031e-07
1.29049e-07
1.2907e-07
1.2909e-07
1.29108e-07
1.29122e-07
1.29142e-07
1.29154e-07
1.29163e-07
1.29176e-07
1.29183e-07
1.29196e-07
1.29195e-07
1.29214e-07
1.2923e-07
1.29257e-07
1.29282e-07
1.2931e-07
1.29321e-07
1.29348e-07
1.29364e-07
1.2939e-07
1.29413e-07
1.29442e-07
1.29461e-07
1.29487e-07
1.29502e-07
1.29527e-07
1.29543e-07
1.29565e-07
1.29583e-07
1.29604e-07
1.29625e-07
1.29646e-07
1.29667e-07
1.2969e-07
1.29711e-07
1.29739e-07
1.29761e-07
1.29796e-07
1.29819e-07
1.29867e-07
1.29908e-07
1.31531e-07
1.35277e-07
2.93919e-08
1.23877e-07
1.22943e-07
1.22596e-07
1.22699e-07
1.23045e-07
1.23473e-07
1.23921e-07
1.2434e-07
1.24737e-07
1.2509e-07
1.2542e-07
1.25709e-07
1.25981e-07
1.26218e-07
1.26443e-07
1.26637e-07
1.26825e-07
1.26987e-07
1.27145e-07
1.2728e-07
1.27414e-07
1.27529e-07
1.27644e-07
1.27741e-07
1.2784e-07
1.27924e-07
1.28009e-07
1.28082e-07
1.28156e-07
1.2822e-07
1.28285e-07
1.2834e-07
1.28399e-07
1.28448e-07
1.28499e-07
1.28541e-07
1.28587e-07
1.28626e-07
1.28668e-07
1.28701e-07
1.2874e-07
1.28773e-07
1.28805e-07
1.28832e-07
1.28866e-07
1.28889e-07
1.28917e-07
1.28938e-07
1.28963e-07
1.28985e-07
1.29009e-07
1.29026e-07
1.29048e-07
1.29068e-07
1.29086e-07
1.291e-07
1.2912e-07
1.29132e-07
1.29141e-07
1.29154e-07
1.29161e-07
1.29175e-07
1.29174e-07
1.29193e-07
1.29208e-07
1.29235e-07
1.2926e-07
1.29288e-07
1.29299e-07
1.29326e-07
1.29342e-07
1.29368e-07
1.29391e-07
1.2942e-07
1.29439e-07
1.29465e-07
1.2948e-07
1.29505e-07
1.29521e-07
1.29544e-07
1.29561e-07
1.29582e-07
1.29603e-07
1.29624e-07
1.29645e-07
1.29669e-07
1.29689e-07
1.29717e-07
1.29739e-07
1.29774e-07
1.29797e-07
1.29845e-07
1.29887e-07
1.31573e-07
1.35282e-07
3.07966e-08
1.23878e-07
1.22943e-07
1.22589e-07
1.22685e-07
1.23026e-07
1.2345e-07
1.23895e-07
1.24312e-07
1.24707e-07
1.2506e-07
1.25389e-07
1.25678e-07
1.2595e-07
1.26187e-07
1.26412e-07
1.26607e-07
1.26795e-07
1.26957e-07
1.27115e-07
1.27251e-07
1.27385e-07
1.275e-07
1.27615e-07
1.27713e-07
1.27812e-07
1.27896e-07
1.27982e-07
1.28054e-07
1.28129e-07
1.28193e-07
1.28258e-07
1.28313e-07
1.28373e-07
1.28422e-07
1.28473e-07
1.28515e-07
1.28562e-07
1.286e-07
1.28643e-07
1.28676e-07
1.28714e-07
1.28747e-07
1.2878e-07
1.28807e-07
1.28841e-07
1.28864e-07
1.28892e-07
1.28914e-07
1.28939e-07
1.28961e-07
1.28985e-07
1.29002e-07
1.29024e-07
1.29044e-07
1.29062e-07
1.29076e-07
1.29096e-07
1.29108e-07
1.29118e-07
1.29131e-07
1.29138e-07
1.29152e-07
1.29151e-07
1.29169e-07
1.29185e-07
1.29212e-07
1.29237e-07
1.29264e-07
1.29275e-07
1.29302e-07
1.29318e-07
1.29344e-07
1.29366e-07
1.29396e-07
1.29415e-07
1.29441e-07
1.29456e-07
1.29481e-07
1.29498e-07
1.2952e-07
1.29538e-07
1.29559e-07
1.2958e-07
1.29601e-07
1.29622e-07
1.29645e-07
1.29666e-07
1.29694e-07
1.29716e-07
1.29751e-07
1.29774e-07
1.29822e-07
1.29864e-07
1.31619e-07
1.35287e-07
3.2276e-08
1.23879e-07
1.22942e-07
1.22581e-07
1.2267e-07
1.23005e-07
1.23424e-07
1.23867e-07
1.24282e-07
1.24676e-07
1.25028e-07
1.25357e-07
1.25646e-07
1.25917e-07
1.26154e-07
1.26379e-07
1.26575e-07
1.26763e-07
1.26925e-07
1.27084e-07
1.27219e-07
1.27354e-07
1.27469e-07
1.27584e-07
1.27682e-07
1.27782e-07
1.27866e-07
1.27952e-07
1.28025e-07
1.281e-07
1.28164e-07
1.2823e-07
1.28284e-07
1.28345e-07
1.28393e-07
1.28445e-07
1.28487e-07
1.28534e-07
1.28573e-07
1.28615e-07
1.28649e-07
1.28687e-07
1.28721e-07
1.28753e-07
1.2878e-07
1.28814e-07
1.28838e-07
1.28866e-07
1.28887e-07
1.28913e-07
1.28935e-07
1.28959e-07
1.28976e-07
1.28998e-07
1.29019e-07
1.29037e-07
1.29051e-07
1.29071e-07
1.29083e-07
1.29093e-07
1.29106e-07
1.29114e-07
1.29127e-07
1.29127e-07
1.29145e-07
1.2916e-07
1.29187e-07
1.29212e-07
1.29239e-07
1.2925e-07
1.29277e-07
1.29292e-07
1.29318e-07
1.29341e-07
1.2937e-07
1.29389e-07
1.29416e-07
1.29431e-07
1.29456e-07
1.29472e-07
1.29496e-07
1.29513e-07
1.29534e-07
1.29555e-07
1.29576e-07
1.29598e-07
1.29621e-07
1.29642e-07
1.29669e-07
1.29691e-07
1.29726e-07
1.29749e-07
1.29797e-07
1.2984e-07
1.31668e-07
1.3529e-07
3.3834e-08
1.23881e-07
1.22941e-07
1.22573e-07
1.22654e-07
1.22983e-07
1.23398e-07
1.23837e-07
1.2425e-07
1.24643e-07
1.24994e-07
1.25322e-07
1.25611e-07
1.25883e-07
1.26119e-07
1.26345e-07
1.2654e-07
1.26729e-07
1.26891e-07
1.2705e-07
1.27186e-07
1.27321e-07
1.27436e-07
1.27552e-07
1.2765e-07
1.2775e-07
1.27834e-07
1.27921e-07
1.27994e-07
1.28069e-07
1.28133e-07
1.28199e-07
1.28254e-07
1.28314e-07
1.28364e-07
1.28416e-07
1.28457e-07
1.28505e-07
1.28544e-07
1.28586e-07
1.2862e-07
1.28659e-07
1.28692e-07
1.28725e-07
1.28752e-07
1.28786e-07
1.2881e-07
1.28838e-07
1.2886e-07
1.28885e-07
1.28908e-07
1.28932e-07
1.28949e-07
1.28971e-07
1.28991e-07
1.2901e-07
1.29024e-07
1.29044e-07
1.29057e-07
1.29067e-07
1.2908e-07
1.29087e-07
1.29101e-07
1.29101e-07
1.29118e-07
1.29133e-07
1.2916e-07
1.29185e-07
1.29212e-07
1.29223e-07
1.2925e-07
1.29265e-07
1.29291e-07
1.29313e-07
1.29342e-07
1.29362e-07
1.29389e-07
1.29404e-07
1.2943e-07
1.29446e-07
1.29469e-07
1.29487e-07
1.29508e-07
1.29528e-07
1.2955e-07
1.29571e-07
1.29594e-07
1.29616e-07
1.29643e-07
1.29665e-07
1.297e-07
1.29723e-07
1.2977e-07
1.29814e-07
1.31721e-07
1.35291e-07
3.54745e-08
1.23882e-07
1.2294e-07
1.22565e-07
1.22638e-07
1.2296e-07
1.2337e-07
1.23805e-07
1.24216e-07
1.24608e-07
1.24958e-07
1.25286e-07
1.25574e-07
1.25846e-07
1.26083e-07
1.26308e-07
1.26504e-07
1.26692e-07
1.26855e-07
1.27014e-07
1.2715e-07
1.27286e-07
1.27401e-07
1.27517e-07
1.27616e-07
1.27716e-07
1.27801e-07
1.27887e-07
1.2796e-07
1.28036e-07
1.281e-07
1.28167e-07
1.28222e-07
1.28282e-07
1.28332e-07
1.28384e-07
1.28426e-07
1.28473e-07
1.28513e-07
1.28555e-07
1.28589e-07
1.28628e-07
1.28662e-07
1.28694e-07
1.28722e-07
1.28756e-07
1.2878e-07
1.28809e-07
1.2883e-07
1.28856e-07
1.28878e-07
1.28902e-07
1.2892e-07
1.28942e-07
1.28963e-07
1.28981e-07
1.28996e-07
1.29015e-07
1.29029e-07
1.29039e-07
1.29052e-07
1.2906e-07
1.29073e-07
1.29074e-07
1.2909e-07
1.29105e-07
1.29132e-07
1.29157e-07
1.29183e-07
1.29195e-07
1.29221e-07
1.29236e-07
1.29262e-07
1.29284e-07
1.29313e-07
1.29333e-07
1.2936e-07
1.29376e-07
1.29401e-07
1.29417e-07
1.29441e-07
1.29458e-07
1.2948e-07
1.295e-07
1.29522e-07
1.29543e-07
1.29566e-07
1.29588e-07
1.29615e-07
1.29637e-07
1.29672e-07
1.29694e-07
1.29741e-07
1.29787e-07
1.31777e-07
1.35288e-07
3.72015e-08
1.23884e-07
1.22939e-07
1.22557e-07
1.22621e-07
1.22936e-07
1.2334e-07
1.23772e-07
1.24181e-07
1.24571e-07
1.2492e-07
1.25247e-07
1.25535e-07
1.25806e-07
1.26043e-07
1.26269e-07
1.26465e-07
1.26654e-07
1.26817e-07
1.26976e-07
1.27113e-07
1.27249e-07
1.27364e-07
1.27481e-07
1.27579e-07
1.2768e-07
1.27765e-07
1.27852e-07
1.27925e-07
1.28001e-07
1.28065e-07
1.28132e-07
1.28188e-07
1.28249e-07
1.28298e-07
1.28351e-07
1.28393e-07
1.2844e-07
1.2848e-07
1.28523e-07
1.28557e-07
1.28596e-07
1.28629e-07
1.28662e-07
1.2869e-07
1.28725e-07
1.28749e-07
1.28777e-07
1.28799e-07
1.28825e-07
1.28847e-07
1.28872e-07
1.28889e-07
1.28911e-07
1.28932e-07
1.28951e-07
1.28965e-07
1.28985e-07
1.28999e-07
1.29009e-07
1.29022e-07
1.2903e-07
1.29044e-07
1.29045e-07
1.29061e-07
1.29075e-07
1.29102e-07
1.29127e-07
1.29152e-07
1.29164e-07
1.2919e-07
1.29206e-07
1.29232e-07
1.29254e-07
1.29283e-07
1.29303e-07
1.2933e-07
1.29345e-07
1.29371e-07
1.29387e-07
1.29411e-07
1.29428e-07
1.29451e-07
1.2947e-07
1.29492e-07
1.29514e-07
1.29537e-07
1.29558e-07
1.29585e-07
1.29607e-07
1.29642e-07
1.29664e-07
1.29711e-07
1.29758e-07
1.31835e-07
1.34209e-07
3.90183e-08
1.23885e-07
1.22938e-07
1.22548e-07
1.22603e-07
1.2291e-07
1.23309e-07
1.23737e-07
1.24143e-07
1.24532e-07
1.24879e-07
1.25206e-07
1.25494e-07
1.25765e-07
1.26002e-07
1.26228e-07
1.26424e-07
1.26613e-07
1.26777e-07
1.26936e-07
1.27073e-07
1.27209e-07
1.27325e-07
1.27442e-07
1.27541e-07
1.27642e-07
1.27727e-07
1.27814e-07
1.27888e-07
1.27964e-07
1.28029e-07
1.28096e-07
1.28152e-07
1.28213e-07
1.28262e-07
1.28315e-07
1.28358e-07
1.28405e-07
1.28445e-07
1.28488e-07
1.28522e-07
1.28562e-07
1.28595e-07
1.28629e-07
1.28656e-07
1.28691e-07
1.28715e-07
1.28744e-07
1.28766e-07
1.28792e-07
1.28814e-07
1.28839e-07
1.28857e-07
1.28879e-07
1.289e-07
1.28918e-07
1.28933e-07
1.28953e-07
1.28967e-07
1.28977e-07
1.28991e-07
1.28999e-07
1.29013e-07
1.29014e-07
1.2903e-07
1.29044e-07
1.2907e-07
1.29096e-07
1.2912e-07
1.29132e-07
1.29158e-07
1.29174e-07
1.292e-07
1.29221e-07
1.2925e-07
1.2927e-07
1.29298e-07
1.29313e-07
1.29339e-07
1.29355e-07
1.2938e-07
1.29397e-07
1.29419e-07
1.29439e-07
1.29461e-07
1.29482e-07
1.29505e-07
1.29527e-07
1.29554e-07
1.29576e-07
1.29611e-07
1.29633e-07
1.2968e-07
1.29727e-07
1.31896e-07
1.2884e-07
4.09278e-08
1.23887e-07
1.22937e-07
1.22539e-07
1.22584e-07
1.22883e-07
1.23276e-07
1.237e-07
1.24104e-07
1.2449e-07
1.24837e-07
1.25163e-07
1.2545e-07
1.25722e-07
1.25958e-07
1.26184e-07
1.2638e-07
1.2657e-07
1.26734e-07
1.26894e-07
1.27031e-07
1.27168e-07
1.27284e-07
1.27401e-07
1.275e-07
1.27602e-07
1.27687e-07
1.27775e-07
1.27849e-07
1.27925e-07
1.2799e-07
1.28058e-07
1.28113e-07
1.28175e-07
1.28225e-07
1.28278e-07
1.2832e-07
1.28369e-07
1.28408e-07
1.28452e-07
1.28486e-07
1.28525e-07
1.28559e-07
1.28593e-07
1.28621e-07
1.28656e-07
1.2868e-07
1.28709e-07
1.28731e-07
1.28757e-07
1.2878e-07
1.28804e-07
1.28823e-07
1.28845e-07
1.28866e-07
1.28884e-07
1.28899e-07
1.2892e-07
1.28933e-07
1.28944e-07
1.28958e-07
1.28966e-07
1.2898e-07
1.28981e-07
1.28997e-07
1.2901e-07
1.29037e-07
1.29063e-07
1.29086e-07
1.29099e-07
1.29124e-07
1.2914e-07
1.29166e-07
1.29187e-07
1.29216e-07
1.29236e-07
1.29264e-07
1.29279e-07
1.29305e-07
1.29322e-07
1.29346e-07
1.29363e-07
1.29386e-07
1.29406e-07
1.29428e-07
1.29449e-07
1.29472e-07
1.29494e-07
1.29521e-07
1.29543e-07
1.29577e-07
1.296e-07
1.29646e-07
1.29695e-07
1.31958e-07
1.24029e-07
4.29318e-08
1.23888e-07
1.22937e-07
1.2253e-07
1.22565e-07
1.22856e-07
1.23242e-07
1.23662e-07
1.24062e-07
1.24447e-07
1.24792e-07
1.25118e-07
1.25404e-07
1.25676e-07
1.25912e-07
1.26139e-07
1.26335e-07
1.26525e-07
1.26689e-07
1.26849e-07
1.26987e-07
1.27124e-07
1.2724e-07
1.27358e-07
1.27457e-07
1.27559e-07
1.27645e-07
1.27733e-07
1.27807e-07
1.27884e-07
1.27949e-07
1.28017e-07
1.28073e-07
1.28135e-07
1.28185e-07
1.28239e-07
1.28281e-07
1.2833e-07
1.28369e-07
1.28413e-07
1.28448e-07
1.28487e-07
1.28521e-07
1.28555e-07
1.28583e-07
1.28618e-07
1.28643e-07
1.28672e-07
1.28694e-07
1.2872e-07
1.28743e-07
1.28768e-07
1.28786e-07