/*--------------------------------*- C++ -*----------------------------------*\
| =========                 |                                                 |
| \\      /  F ield         | OpenFOAM: The Open Source CFD Toolbox           |
|  \\    /   O peration     | Version:  v2012                                 |
|   \\  /    A nd           | Website:  www.openfoam.com                      |
|    \\/     M anipulation  |                                                 |
\*---------------------------------------------------------------------------*/
FoamFile
{
    version     2.0;
    format      ascii;
    class       volScalarField;
    location    "30";
    object      yPlus;
}
// * * * * * * * * * * * * * * * * * * * * * * * * * * * * * * * * * * * * * //

dimensions      [0 0 0 0 0 0 0];


internalField   uniform 0;

boundaryField
{
    inlet
    {
        type            calculated;
        value           uniform 0;
    }
    outlet
    {
        type            calculated;
        value           uniform 0;
    }
    topWall
    {
        type            calculated;
        value           nonuniform List<scalar> 
545
(
0.111028
0.191453
0.245614
0.288716
0.325205
0.357133
0.385652
0.411488
0.435133
0.456943
0.477183
0.49606
0.513736
0.530343
0.545992
0.560774
0.574767
0.588039
0.600646
0.61264
0.624067
0.634965
0.645371
0.655317
0.66483
0.673939
0.682666
0.691034
0.699062
0.70677
0.714173
0.721288
0.72813
0.734712
0.741046
0.747145
0.75302
0.75868
0.764137
0.769398
0.774473
0.779369
0.784095
0.788657
0.793063
0.797318
0.801429
0.805402
0.809243
0.812955
0.816546
0.820018
0.823378
0.826628
0.829774
0.832818
0.835766
0.83862
0.841383
0.84406
0.846653
0.849165
0.851599
0.853958
0.856244
0.85846
0.860608
0.862691
0.864711
0.86667
0.868569
0.870412
0.872176
0.873884
0.875577
0.877257
0.878924
0.880577
0.882218
0.883845
0.88546
0.887062
0.888651
0.890228
0.891793
0.893345
0.894885
0.896414
0.89793
0.899435
0.900928
0.90241
0.90388
0.90534
0.906787
0.908224
0.909519
0.910677
0.911834
0.912992
0.914149
0.915306
0.916463
0.91762
0.918777
0.919933
0.92109
0.922245
0.923401
0.924557
0.925712
0.926867
0.928022
0.929176
0.930331
0.931485
0.932638
0.933792
0.934945
0.936097
0.93725
0.938402
0.939554
0.940705
0.941856
0.943007
0.944158
0.945308
0.946457
0.947607
0.948756
0.949904
0.951052
0.9522
0.953347
0.954494
0.95564
0.956786
0.957932
0.959077
0.960221
0.961365
0.962509
0.963652
0.964794
0.965936
0.967078
0.968219
0.969359
0.970499
0.971638
0.972777
0.973915
0.975052
0.976189
0.977326
0.978461
0.979596
0.980731
0.981865
0.982998
0.98413
0.985262
0.986393
0.987523
0.988653
0.989782
0.99091
0.992038
0.993165
0.994291
0.995416
0.99654
0.997664
0.998787
0.999909
1.00103
1.00215
1.00327
1.00439
1.00551
1.00662
1.00774
1.00886
1.00997
1.01108
1.0122
1.01331
1.01442
1.01553
1.01664
1.01774
1.01885
1.01996
1.02106
1.02216
1.02327
1.02437
1.02547
1.02657
1.02767
1.02876
1.02986
1.03095
1.03205
1.03314
1.03423
1.03532
1.03641
1.0375
1.03859
1.03967
1.04076
1.04184
1.04292
1.044
1.04508
1.04616
1.04724
1.04831
1.04939
1.05046
1.05153
1.0526
1.05367
1.05474
1.0558
1.05687
1.05793
1.05899
1.06005
1.06111
1.06217
1.06322
1.06428
1.06533
1.06638
1.06743
1.06848
1.06952
1.07057
1.07161
1.07265
1.07369
1.07473
1.07577
1.0768
1.07783
1.07887
1.0799
1.08092
1.08195
1.08297
1.084
1.08502
1.08604
1.08705
1.08807
1.08908
1.0901
1.0911
1.09211
1.09312
1.09412
1.09513
1.09613
1.09712
1.09812
1.09911
1.10005
1.10093
1.10182
1.10272
1.10362
1.10453
1.10544
1.10637
1.10729
1.10822
1.10916
1.11011
1.11106
1.11201
1.11298
1.11394
1.11492
1.1159
1.11688
1.11788
1.11887
1.11988
1.12089
1.1219
1.12292
1.12395
1.12498
1.12602
1.12706
1.12811
1.12916
1.13022
1.13128
1.13235
1.13343
1.13451
1.13559
1.13668
1.13778
1.13888
1.13998
1.14109
1.1422
1.14332
1.14444
1.14557
1.1467
1.14783
1.14897
1.15011
1.15126
1.15241
1.15356
1.15472
1.15588
1.15705
1.15821
1.15938
1.16055
1.16173
1.16291
1.16409
1.16527
1.16645
1.16764
1.16883
1.17002
1.17121
1.1724
1.17359
1.17478
1.17598
1.17717
1.17837
1.17956
1.18076
1.18195
1.18314
1.18434
1.18553
1.18672
1.18791
1.18909
1.19028
1.19146
1.19264
1.19382
1.19499
1.19617
1.19733
1.1985
1.19966
1.20081
1.20196
1.20311
1.20425
1.20538
1.20651
1.20763
1.20875
1.20986
1.21096
1.21205
1.21314
1.21422
1.21529
1.21635
1.2174
1.21844
1.21947
1.22049
1.2215
1.2225
1.22349
1.22447
1.22543
1.22638
1.22732
1.22825
1.22916
1.23006
1.23095
1.23181
1.23267
1.23351
1.23433
1.23514
1.23593
1.2367
1.23745
1.23819
1.23891
1.23961
1.24029
1.24096
1.2416
1.24222
1.24283
1.24341
1.24397
1.24451
1.24502
1.24552
1.24599
1.24644
1.24687
1.24727
1.24765
1.248
1.24833
1.24864
1.24892
1.24918
1.24941
1.24961
1.24979
1.24994
1.25007
1.25017
1.25024
1.25028
1.2503
1.25029
1.25025
1.25019
1.2501
1.24998
1.24983
1.24965
1.24945
1.24921
1.24895
1.24866
1.24835
1.248
1.24763
1.24723
1.2468
1.24634
1.24585
1.24534
1.24474
1.24404
1.24332
1.24256
1.24178
1.24098
1.24015
1.23929
1.23842
1.23753
1.23662
1.23569
1.23474
1.23379
1.23281
1.23183
1.23083
1.22983
1.22882
1.22779
1.22677
1.22573
1.22469
1.22365
1.2226
1.22155
1.2205
1.21945
1.2184
1.21734
1.21629
1.21525
1.2142
1.21316
1.21212
1.21109
1.21007
1.20905
1.20803
1.20703
1.20603
1.20504
1.20406
1.20309
1.20213
1.20118
1.20024
1.19931
1.19839
1.19749
1.1966
1.19572
1.19486
1.19401
1.19317
1.19235
1.19155
1.19076
1.18999
1.18923
1.18849
1.18777
1.18706
1.18637
1.18571
1.18506
1.18442
1.18381
1.18322
1.18264
1.18209
1.18156
1.18104
1.18055
1.18008
1.17963
1.1792
1.17879
1.1784
1.17804
1.1777
1.17738
1.17708
1.1768
1.17655
1.17632
1.17611
1.17593
1.17577
1.17563
1.17552
1.17542
1.17536
1.17531
1.17528
)
;
    }
    bottomWall
    {
        type            calculated;
        value           nonuniform List<scalar> 
449
(
0.139432
0.0889565
0.0758204
0.0694712
0.0653259
0.0622731
0.0599288
0.0582064
0.0572427
0.0574566
0.0602912
0.0643141
0.0672018
0.0688371
0.0697081
0.0701654
0.0703703
0.0704069
0.070325
0.070177
0.0699814
0.0697596
0.0695244
0.069284
0.0690434
0.0688056
0.0685719
0.0683439
0.0681221
0.0679069
0.0676984
0.0674964
0.0673008
0.0671114
0.066928
0.06675
0.0665773
0.0664098
0.0662472
0.0660894
0.065936
0.0657869
0.0656419
0.0655008
0.0653633
0.0652294
0.0650988
0.0649714
0.0648472
0.0647256
0.0646063
0.0644892
0.0643742
0.0642612
0.0641503
0.0640414
0.0639346
0.0638297
0.0637268
0.0636257
0.0635264
0.0634288
0.063333
0.0632388
0.0631462
0.063055
0.0629654
0.0628772
0.0627905
0.0627051
0.0626208
0.0625378
0.062456
0.0623754
0.062296
0.0622177
0.0621406
0.0620645
0.0619894
0.0619154
0.0618423
0.0617702
0.061699
0.0616287
0.0615593
0.0614907
0.061423
0.0613561
0.06129
0.0612247
0.0611602
0.0610963
0.0610333
0.0609709
0.0609092
0.0608481
0.0607878
0.060728
0.0606689
0.0606104
0.0605524
0.060495
0.0604382
0.0603819
0.0603261
0.0602709
0.0602163
0.0601621
0.0601085
0.0600553
0.0600027
0.0599505
0.0598988
0.0598475
0.0597968
0.0597464
0.0596965
0.059647
0.059598
0.0595493
0.0595011
0.0594532
0.0594058
0.0593587
0.059312
0.0592657
0.0592197
0.0591741
0.0591289
0.059084
0.0590394
0.0589952
0.0589513
0.0589078
0.0588645
0.0588216
0.058779
0.0587367
0.0586947
0.058653
0.0586116
0.0585704
0.0585296
0.058489
0.0584486
0.0584085
0.0583687
0.0583292
0.0582899
0.0582508
0.058212
0.0581735
0.0581352
0.0580972
0.0580594
0.0580218
0.0579845
0.0579474
0.0579106
0.0578739
0.0578375
0.0578013
0.0577654
0.0577296
0.0576941
0.0576587
0.0576236
0.0575887
0.057554
0.0575194
0.0574851
0.057451
0.0574171
0.0573853
0.0573553
0.0573252
0.057295
0.0572647
0.0572343
0.0572038
0.0571731
0.0571424
0.0571116
0.0570806
0.0570496
0.0570184
0.0569872
0.0569558
0.0569244
0.0568928
0.0568612
0.0568294
0.0567976
0.0567656
0.0567336
0.0567015
0.0566692
0.0566369
0.0566045
0.056572
0.0565394
0.0565067
0.0564739
0.0564411
0.0564081
0.0563751
0.0563419
0.0563086
0.0562753
0.0562419
0.0562083
0.0561747
0.0561411
0.0561073
0.0560735
0.0560396
0.0560056
0.0559716
0.0559375
0.0559033
0.0558691
0.0558348
0.0558004
0.055766
0.0557315
0.0556969
0.0556623
0.0556276
0.0555929
0.0555581
0.0555233
0.0554884
0.0554535
0.0554186
0.0553835
0.0553485
0.0553134
0.0552782
0.0552431
0.0552078
0.0551726
0.0551373
0.055102
0.0550666
0.0550312
0.0549958
0.0549604
0.054925
0.0548895
0.054854
0.0548185
0.0547829
0.0547474
0.0547118
0.0546762
0.0546406
0.0546051
0.0545695
0.0545338
0.0544982
0.0544626
0.054427
0.0543914
0.0543557
0.0543201
0.0542845
0.0542489
0.0542133
0.0541778
0.0541422
0.0541066
0.0540711
0.0540355
0.054
0.0539645
0.053929
0.0538936
0.0538581
0.0538227
0.0537874
0.053752
0.0537167
0.0536814
0.0536462
0.053611
0.0535758
0.0535407
0.0535056
0.0534706
0.0534356
0.0534006
0.0533657
0.0533308
0.053296
0.0532612
0.0532265
0.0531918
0.0531572
0.0531226
0.0530881
0.0530536
0.0530192
0.0529848
0.0529505
0.0529163
0.0528821
0.0528479
0.0528139
0.0527799
0.0527459
0.052712
0.0526782
0.0526444
0.0526108
0.0525771
0.0525436
0.05251
0.0524766
0.0524432
0.0524099
0.0523767
0.0523435
0.0523104
0.0522773
0.0522444
0.0522115
0.0521786
0.0521459
0.0521132
0.0520805
0.052048
0.0520155
0.0519831
0.0519508
0.0519185
0.0518864
0.0518542
0.0518222
0.0517902
0.0517583
0.0517265
0.0516947
0.0516631
0.0516315
0.0516
0.0515685
0.0515372
0.0515059
0.0514747
0.0514436
0.0514126
0.0513816
0.0513507
0.0513199
0.0512857
0.0512486
0.0512122
0.0511762
0.0511409
0.0511061
0.0510719
0.0510381
0.051005
0.0509723
0.0509401
0.0509084
0.0508771
0.0508463
0.0508159
0.0507859
0.0507564
0.0507272
0.0506984
0.05067
0.0506421
0.0506144
0.0505871
0.0505602
0.0505336
0.0505073
0.0504813
0.0504557
0.0504304
0.0504053
0.0503806
0.0503562
0.050332
0.0503081
0.0502845
0.0502611
0.0502381
0.0502152
0.0501927
0.0501703
0.0501482
0.0501263
0.0501047
0.0500833
0.0500621
0.0500411
0.0500203
0.0499997
0.0499794
0.0499592
0.0499393
0.0499195
0.0499
0.0498806
0.0498614
0.0498423
0.0498235
0.0498048
0.0497863
0.0497679
0.0497497
0.0497316
0.0497138
0.0496959
0.0496784
0.0496608
0.0496436
0.0496263
0.0496094
0.0495924
0.0495758
0.049559
0.0495427
0.0495262
0.0495101
0.0494938
0.049478
0.0494619
0.0494464
0.0494305
0.0494152
0.0493996
0.0493844
0.049369
0.049354
0.0493388
0.0493239
0.0493092
0.0492938
0.0492803
0.0492626
0.0492539
0.0492277
0.0492337
0.0491984
)
;
    }
    symmetry
    {
        type            symmetryPlane;
    }
    frontAndBack
    {
        type            empty;
    }
}


// ************************************************************************* //
