/*--------------------------------*- C++ -*----------------------------------*\
| =========                 |                                                 |
| \\      /  F ield         | OpenFOAM: The Open Source CFD Toolbox           |
|  \\    /   O peration     | Version:  v2012                                 |
|   \\  /    A nd           | Website:  www.openfoam.com                      |
|    \\/     M anipulation  |                                                 |
\*---------------------------------------------------------------------------*/
FoamFile
{
    version     2.0;
    format      ascii;
    class       volScalarField;
    location    "42";
    object      k;
}
// * * * * * * * * * * * * * * * * * * * * * * * * * * * * * * * * * * * * * //

dimensions      [0 2 -2 0 0 0 0];


internalField   nonuniform List<scalar> 
209825
(
0.00102415
0.000931331
0.000855304
0.000794296
0.000746178
0.000708328
0.000678435
0.000654522
0.000635195
0.000619331
0.000606194
0.000595158
0.000585832
0.000577851
0.000570992
0.000565035
0.000559844
0.000555283
0.00055126
0.000547693
0.000544511
0.000541673
0.000539115
0.000536823
0.000534735
0.000532861
0.000531136
0.000529586
0.000528144
0.00052685
0.000525636
0.000524548
0.000523514
0.000522594
0.000521711
0.000520928
0.000520164
0.000519494
0.000518834
0.00051826
0.000517685
0.000517189
0.000516693
0.000516265
0.000515827
0.000515459
0.000515077
0.000514757
0.00051442
0.00051414
0.000513843
0.000513603
0.000513349
0.000513141
0.000512912
0.000512744
0.000512534
0.000512393
0.000512209
0.000512086
0.000511923
0.000511816
0.000511677
0.00051158
0.000511469
0.000511371
0.000511253
0.000511184
0.000511099
0.000511056
0.000510984
0.000510949
0.000510886
0.000510856
0.000510796
0.000510775
0.00051073
0.000510731
0.000510722
0.00051075
0.00051075
0.000510805
0.000510805
0.000510874
0.000510884
0.000510962
0.000510984
0.000511075
0.000511108
0.000511219
0.000511254
0.000511355
0.000511564
0.000519916
0.000546991
0.0013387
0.00102415
0.000931331
0.000855304
0.000794296
0.000746177
0.000708325
0.000678431
0.000654518
0.00063519
0.000619324
0.000606186
0.00059515
0.000585823
0.000577841
0.000570982
0.000565025
0.000559833
0.000555272
0.000551249
0.000547681
0.000544499
0.000541661
0.000539103
0.00053681
0.000534722
0.000532848
0.000531122
0.000529573
0.000528131
0.000526837
0.000525623
0.000524534
0.0005235
0.00052258
0.000521696
0.000520914
0.00052015
0.00051948
0.000518819
0.000518245
0.00051767
0.000517175
0.000516678
0.00051625
0.000515812
0.000515444
0.000515062
0.000514742
0.000514405
0.000514125
0.000513828
0.000513588
0.000513334
0.000513126
0.000512897
0.000512728
0.000512519
0.000512377
0.000512194
0.000512071
0.000511907
0.000511801
0.000511662
0.000511564
0.000511454
0.000511355
0.000511237
0.000511168
0.000511084
0.00051104
0.000510969
0.000510934
0.00051087
0.00051084
0.00051078
0.00051076
0.000510714
0.000510715
0.000510706
0.000510734
0.000510734
0.000510789
0.000510789
0.000510858
0.000510868
0.000510946
0.000510968
0.000511059
0.000511092
0.000511203
0.000511238
0.000511339
0.000511548
0.000519915
0.000546983
0.00133946
0.00102415
0.000931332
0.000855305
0.000794294
0.00074617
0.000708314
0.000678415
0.000654496
0.000635164
0.000619295
0.000606154
0.000595115
0.000585786
0.000577802
0.000570941
0.000564982
0.000559789
0.000555226
0.000551202
0.000547633
0.00054445
0.000541611
0.000539052
0.000536759
0.000534669
0.000532795
0.000531069
0.000529519
0.000528076
0.000526782
0.000525567
0.000524479
0.000523444
0.000522524
0.00052164
0.000520857
0.000520093
0.000519422
0.000518762
0.000518188
0.000517612
0.000517116
0.00051662
0.000516192
0.000515753
0.000515386
0.000515003
0.000514683
0.000514346
0.000514066
0.000513768
0.000513528
0.000513274
0.000513066
0.000512837
0.000512668
0.000512459
0.000512317
0.000512134
0.000512011
0.000511847
0.00051174
0.000511601
0.000511504
0.000511393
0.000511294
0.000511176
0.000511107
0.000511023
0.000510979
0.000510907
0.000510873
0.000510809
0.000510779
0.000510719
0.000510698
0.000510653
0.000510653
0.000510645
0.000510672
0.000510672
0.000510727
0.000510727
0.000510796
0.000510806
0.000510884
0.000510906
0.000510997
0.000511029
0.00051114
0.000511175
0.000511276
0.000511486
0.000519884
0.000546935
0.00134098
0.00102415
0.000931334
0.000855306
0.00079429
0.000746159
0.000708294
0.000678387
0.000654461
0.000635122
0.000619246
0.0006061
0.000595057
0.000585723
0.000577736
0.000570872
0.000564909
0.000559714
0.000555149
0.000551123
0.000547552
0.000544368
0.000541527
0.000538967
0.000536672
0.000534582
0.000532707
0.00053098
0.000529429
0.000527985
0.00052669
0.000525475
0.000524386
0.00052335
0.00052243
0.000521545
0.000520762
0.000519997
0.000519326
0.000518665
0.000518091
0.000517515
0.000517019
0.000516522
0.000516093
0.000515655
0.000515287
0.000514904
0.000514584
0.000514247
0.000513966
0.000513668
0.000513428
0.000513173
0.000512966
0.000512736
0.000512567
0.000512358
0.000512216
0.000512032
0.000511909
0.000511745
0.000511639
0.000511499
0.000511402
0.000511291
0.000511192
0.000511074
0.000511005
0.00051092
0.000510877
0.000510805
0.00051077
0.000510706
0.000510676
0.000510616
0.000510595
0.00051055
0.00051055
0.000510541
0.000510568
0.000510568
0.000510623
0.000510623
0.000510691
0.000510701
0.000510779
0.000510801
0.000510892
0.000510924
0.000511035
0.000511069
0.00051117
0.000511381
0.000519827
0.000546851
0.00134281
0.00102415
0.000931336
0.000855307
0.000794284
0.000746143
0.000708266
0.000678347
0.00065441
0.000635062
0.000619178
0.000606024
0.000594974
0.000585635
0.000577642
0.000570774
0.000564808
0.000559608
0.000555041
0.000551011
0.000547439
0.000544252
0.000541409
0.000538847
0.00053655
0.000534459
0.000532582
0.000530854
0.000529302
0.000527857
0.000526561
0.000525345
0.000524254
0.000523218
0.000522297
0.000521411
0.000520628
0.000519862
0.000519191
0.000518529
0.000517954
0.000517378
0.000516881
0.000516384
0.000515955
0.000515516
0.000515148
0.000514765
0.000514444
0.000514106
0.000513826
0.000513528
0.000513287
0.000513032
0.000512824
0.000512594
0.000512425
0.000512216
0.000512073
0.00051189
0.000511766
0.000511602
0.000511495
0.000511355
0.000511258
0.000511147
0.000511048
0.00051093
0.000510861
0.000510776
0.000510732
0.00051066
0.000510625
0.000510561
0.000510531
0.000510471
0.00051045
0.000510405
0.000510404
0.000510395
0.000510422
0.000510422
0.000510475
0.000510475
0.000510544
0.000510553
0.000510631
0.000510653
0.000510744
0.000510775
0.000510887
0.00051092
0.000511022
0.000511233
0.000519746
0.000546732
0.00134487
0.00102415
0.000931339
0.000855308
0.000794277
0.000746122
0.00070823
0.000678296
0.000654345
0.000634984
0.000619089
0.000605925
0.000594867
0.00058552
0.000577521
0.000570647
0.000564675
0.000559472
0.0005549
0.000550867
0.000547291
0.000544101
0.000541256
0.000538691
0.000536393
0.000534299
0.00053242
0.00053069
0.000529137
0.00052769
0.000526393
0.000525175
0.000524084
0.000523047
0.000522125
0.000521238
0.000520454
0.000519687
0.000519015
0.000518353
0.000517777
0.0005172
0.000516703
0.000516205
0.000515775
0.000515336
0.000514967
0.000514584
0.000514263
0.000513925
0.000513644
0.000513345
0.000513104
0.000512849
0.00051264
0.00051241
0.000512241
0.000512031
0.000511889
0.000511704
0.000511581
0.000511416
0.000511309
0.000511169
0.000511072
0.00051096
0.000510862
0.000510743
0.000510674
0.000510588
0.000510544
0.000510472
0.000510437
0.000510373
0.000510343
0.000510282
0.000510262
0.000510216
0.000510215
0.000510205
0.000510231
0.000510231
0.000510285
0.000510285
0.000510353
0.000510362
0.00051044
0.000510461
0.000510552
0.000510583
0.000510694
0.000510728
0.000510829
0.000511042
0.000519641
0.000546579
0.00134711
0.00102415
0.000931342
0.00085531
0.000794269
0.000746097
0.000708186
0.000678233
0.000654265
0.000634888
0.000618979
0.000605804
0.000594735
0.000585379
0.000577372
0.00057049
0.000564513
0.000559303
0.000554727
0.000550689
0.000547109
0.000543916
0.000541067
0.000538499
0.000536198
0.000534102
0.000532221
0.000530488
0.000528933
0.000527485
0.000526186
0.000524967
0.000523874
0.000522835
0.000521912
0.000521025
0.000520239
0.000519471
0.000518798
0.000518135
0.000517559
0.000516981
0.000516483
0.000515985
0.000515554
0.000515114
0.000514745
0.000514361
0.000514039
0.0005137
0.000513419
0.00051312
0.000512878
0.000512623
0.000512414
0.000512184
0.000512014
0.000511803
0.000511661
0.000511476
0.000511352
0.000511188
0.00051108
0.00051094
0.000510842
0.00051073
0.000510632
0.000510513
0.000510443
0.000510357
0.000510313
0.000510241
0.000510206
0.000510141
0.000510111
0.00051005
0.000510029
0.000509984
0.000509983
0.000509971
0.000509997
0.000509997
0.000510049
0.00051005
0.000510117
0.000510126
0.000510203
0.000510224
0.000510315
0.000510346
0.000510457
0.00051049
0.000510591
0.000510806
0.000519512
0.00054639
0.00134943
0.00102415
0.000931347
0.000855312
0.000794258
0.000746067
0.000708133
0.000678158
0.000654169
0.000634774
0.000618849
0.000605659
0.000594577
0.000585211
0.000577194
0.000570304
0.000564319
0.000559103
0.00055452
0.000550477
0.000546892
0.000543694
0.000540841
0.000538271
0.000535966
0.000533866
0.000531983
0.000530248
0.00052869
0.00052724
0.000525939
0.000524718
0.000523624
0.000522584
0.000521659
0.00052077
0.000519983
0.000519214
0.00051854
0.000517876
0.000517298
0.00051672
0.000516221
0.000515721
0.00051529
0.000514849
0.000514479
0.000514094
0.000513772
0.000513433
0.000513151
0.000512851
0.000512609
0.000512353
0.000512144
0.000511913
0.000511743
0.000511532
0.000511389
0.000511204
0.00051108
0.000510915
0.000510807
0.000510666
0.000510568
0.000510456
0.000510357
0.000510238
0.000510168
0.000510082
0.000510038
0.000509965
0.000509929
0.000509865
0.000509834
0.000509773
0.000509752
0.000509707
0.000509705
0.000509693
0.000509718
0.000509717
0.000509769
0.000509769
0.000509836
0.000509845
0.000509922
0.000509942
0.000510032
0.000510063
0.000510174
0.000510206
0.000510307
0.000510525
0.00051936
0.000546165
0.00135167
0.00102415
0.000931352
0.000855315
0.000794246
0.000746032
0.000708073
0.000678072
0.000654058
0.000634642
0.000618697
0.000605491
0.000594395
0.000585015
0.000576987
0.000570087
0.000564093
0.000558869
0.000554279
0.00055023
0.00054664
0.000543437
0.000540579
0.000538004
0.000535696
0.000533593
0.000531706
0.000529968
0.000528408
0.000526955
0.000525652
0.000524429
0.000523333
0.00052229
0.000521364
0.000520473
0.000519685
0.000518915
0.000518239
0.000517573
0.000516995
0.000516415
0.000515915
0.000515415
0.000514983
0.000514541
0.00051417
0.000513784
0.000513462
0.000513122
0.000512839
0.000512538
0.000512296
0.000512039
0.000511829
0.000511598
0.000511427
0.000511216
0.000511072
0.000510887
0.000510762
0.000510596
0.000510488
0.000510347
0.000510249
0.000510136
0.000510038
0.000509918
0.000509848
0.000509761
0.000509716
0.000509643
0.000509608
0.000509543
0.000509512
0.000509451
0.000509429
0.000509384
0.000509381
0.000509368
0.000509392
0.000509392
0.000509442
0.000509442
0.000509509
0.000509517
0.000509593
0.000509614
0.000509703
0.000509734
0.000509844
0.000509876
0.000509977
0.000510197
0.000519186
0.000545905
0.00135357
0.00102415
0.000931358
0.000855318
0.000794233
0.000745993
0.000708003
0.000677973
0.000653932
0.00063449
0.000618524
0.000605299
0.000594186
0.000584792
0.00057675
0.000569839
0.000563835
0.000558602
0.000554005
0.000549948
0.000546351
0.000543142
0.00054028
0.0005377
0.000535387
0.00053328
0.000531389
0.000529648
0.000528085
0.000526629
0.000525323
0.000524098
0.000522999
0.000521955
0.000521026
0.000520134
0.000519344
0.000518572
0.000517895
0.000517228
0.000516648
0.000516067
0.000515566
0.000515064
0.000514631
0.000514188
0.000513816
0.00051343
0.000513106
0.000512765
0.000512482
0.000512181
0.000511937
0.000511679
0.000511469
0.000511237
0.000511066
0.000510854
0.00051071
0.000510524
0.000510399
0.000510233
0.000510124
0.000509983
0.000509884
0.000509771
0.000509672
0.000509552
0.000509481
0.000509394
0.000509349
0.000509275
0.000509239
0.000509174
0.000509143
0.000509082
0.00050906
0.000509015
0.000509011
0.000508997
0.00050902
0.000509019
0.000509068
0.000509068
0.000509135
0.000509142
0.000509218
0.000509238
0.000509327
0.000509357
0.000509466
0.000509498
0.000509599
0.000509822
0.000518989
0.000545608
0.00135478
0.00102414
0.000931364
0.000855321
0.000794218
0.000745949
0.000707926
0.000677862
0.00065379
0.00063432
0.00061833
0.000605083
0.000593951
0.00058454
0.000576484
0.00056956
0.000563544
0.000558302
0.000553695
0.00054963
0.000546026
0.00054281
0.000539942
0.000537356
0.000535038
0.000532927
0.000531032
0.000529287
0.00052772
0.000526262
0.000524953
0.000523724
0.000522623
0.000521576
0.000520646
0.000519751
0.000518959
0.000518185
0.000517507
0.000516838
0.000516257
0.000515674
0.000515172
0.000514668
0.000514234
0.00051379
0.000513417
0.00051303
0.000512705
0.000512363
0.000512079
0.000511777
0.000511533
0.000511274
0.000511063
0.00051083
0.000510658
0.000510445
0.000510301
0.000510114
0.000509988
0.000509822
0.000509713
0.000509571
0.000509471
0.000509358
0.000509259
0.000509139
0.000509067
0.00050898
0.000508934
0.00050886
0.000508824
0.000508758
0.000508727
0.000508665
0.000508643
0.000508598
0.000508593
0.000508577
0.000508599
0.000508598
0.000508646
0.000508646
0.000508712
0.000508719
0.000508794
0.000508813
0.000508902
0.000508932
0.00050904
0.000509071
0.000509173
0.0005094
0.000518769
0.000545274
0.00135482
0.00102414
0.000931371
0.000855325
0.000794202
0.0007459
0.00070784
0.000677738
0.000653632
0.000634131
0.000618113
0.000604842
0.000593689
0.00058426
0.000576187
0.000569249
0.000563221
0.000557966
0.000553349
0.000549275
0.000545663
0.00054244
0.000539565
0.000536973
0.00053465
0.000532533
0.000530634
0.000528885
0.000527314
0.000525851
0.000524539
0.000523308
0.000522204
0.000521154
0.000520221
0.000519324
0.00051853
0.000517754
0.000517073
0.000516403
0.00051582
0.000515235
0.000514732
0.000514227
0.000513792
0.000513346
0.000512972
0.000512583
0.000512257
0.000511914
0.000511629
0.000511326
0.000511081
0.000510821
0.00051061
0.000510376
0.000510203
0.00050999
0.000509844
0.000509657
0.000509531
0.000509364
0.000509254
0.000509112
0.000509011
0.000508897
0.000508798
0.000508678
0.000508606
0.000508517
0.000508471
0.000508397
0.00050836
0.000508294
0.000508262
0.0005082
0.000508178
0.000508132
0.000508127
0.00050811
0.000508131
0.000508129
0.000508176
0.000508176
0.00050824
0.000508246
0.000508321
0.00050834
0.000508428
0.000508457
0.000508565
0.000508595
0.000508697
0.000508928
0.000518528
0.000544903
0.00135326
0.00102414
0.000931379
0.00085533
0.000794184
0.000745847
0.000707745
0.000677603
0.000653458
0.000633923
0.000617875
0.000604577
0.0005934
0.000583951
0.00057586
0.000568906
0.000562863
0.000557596
0.000552968
0.000548884
0.000545262
0.000542031
0.000539148
0.00053655
0.00053422
0.000532098
0.000530194
0.00052844
0.000526865
0.000525398
0.000524082
0.000522847
0.00052174
0.000520687
0.000519751
0.000518852
0.000518055
0.000517277
0.000516594
0.000515921
0.000515337
0.000514751
0.000514245
0.000513739
0.000513302
0.000512855
0.00051248
0.000512089
0.000511762
0.000511418
0.000511132
0.000510828
0.000510582
0.000510321
0.000510109
0.000509874
0.0005097
0.000509486
0.00050934
0.000509152
0.000509025
0.000508857
0.000508746
0.000508603
0.000508503
0.000508388
0.000508289
0.000508168
0.000508095
0.000508006
0.000507959
0.000507884
0.000507847
0.000507781
0.000507749
0.000507686
0.000507663
0.000507617
0.000507611
0.000507592
0.000507612
0.00050761
0.000507655
0.000507655
0.000507718
0.000507724
0.000507798
0.000507816
0.000507903
0.000507932
0.000508039
0.000508068
0.00050817
0.000508406
0.000518265
0.000544494
0.00135011
0.00102414
0.000931387
0.000855335
0.000794164
0.000745789
0.000707642
0.000677455
0.000653268
0.000633696
0.000617614
0.000604287
0.000593084
0.000583612
0.000575501
0.00056853
0.000562471
0.000557191
0.00055255
0.000548455
0.000544823
0.000541583
0.000538692
0.000536086
0.00053375
0.000531621
0.000529711
0.000527952
0.000526372
0.000524901
0.000523581
0.000522342
0.000521231
0.000520175
0.000519236
0.000518334
0.000517535
0.000516754
0.000516069
0.000515394
0.000514807
0.000514219
0.000513711
0.000513203
0.000512765
0.000512316
0.000511939
0.000511547
0.000511219
0.000510874
0.000510586
0.000510281
0.000510034
0.000509772
0.000509559
0.000509322
0.000509148
0.000508933
0.000508786
0.000508597
0.000508469
0.000508301
0.00050819
0.000508046
0.000507944
0.000507829
0.00050773
0.000507608
0.000507534
0.000507444
0.000507397
0.000507322
0.000507284
0.000507217
0.000507185
0.000507122
0.000507098
0.000507052
0.000507045
0.000507025
0.000507043
0.00050704
0.000507083
0.000507083
0.000507146
0.000507151
0.000507224
0.000507241
0.000507328
0.000507356
0.000507462
0.00050749
0.000507592
0.000507834
0.000517979
0.000544046
0.0013454
0.00102414
0.000931396
0.00085534
0.000794144
0.000745726
0.00070753
0.000677295
0.000653062
0.000633449
0.00061733
0.000603971
0.00059274
0.000583244
0.000575111
0.00056812
0.000562045
0.000556749
0.000552094
0.000547987
0.000544345
0.000541095
0.000538195
0.000535581
0.000533237
0.000531102
0.000529185
0.00052742
0.000525835
0.000524359
0.000523034
0.000521791
0.000520677
0.000519617
0.000518675
0.000517769
0.000516967
0.000516183
0.000515496
0.000514818
0.000514229
0.000513639
0.00051313
0.000512619
0.000512179
0.000511729
0.00051135
0.000510957
0.000510627
0.00051028
0.000509992
0.000509685
0.000509437
0.000509173
0.000508959
0.000508721
0.000508546
0.00050833
0.000508182
0.000507992
0.000507864
0.000507694
0.000507582
0.000507438
0.000507336
0.00050722
0.00050712
0.000506997
0.000506923
0.000506832
0.000506785
0.000506708
0.00050667
0.000506603
0.00050657
0.000506507
0.000506483
0.000506436
0.000506428
0.000506406
0.000506423
0.000506419
0.00050646
0.00050646
0.000506521
0.000506526
0.000506598
0.000506614
0.0005067
0.000506728
0.000506833
0.00050686
0.000506962
0.000507211
0.00051767
0.000543557
0.00133914
0.00102414
0.000931406
0.000855346
0.000794122
0.000745659
0.00070741
0.000677122
0.00065284
0.000633182
0.000617024
0.00060363
0.000592369
0.000582845
0.000574689
0.000567677
0.000561583
0.000556271
0.000551602
0.000547481
0.000543827
0.000540566
0.000537656
0.000535033
0.000532681
0.000530539
0.000528615
0.000526844
0.000525253
0.000523772
0.000522442
0.000521195
0.000520076
0.000519012
0.000518067
0.000517157
0.000516352
0.000515565
0.000514875
0.000514195
0.000513603
0.00051301
0.000512499
0.000511986
0.000511544
0.000511092
0.000510712
0.000510316
0.000509985
0.000509637
0.000509347
0.000509038
0.000508789
0.000508524
0.000508309
0.00050807
0.000507894
0.000507676
0.000507527
0.000507336
0.000507207
0.000507037
0.000506924
0.000506779
0.000506676
0.000506559
0.000506459
0.000506335
0.000506261
0.000506169
0.00050612
0.000506043
0.000506005
0.000505937
0.000505904
0.00050584
0.000505815
0.000505767
0.000505758
0.000505735
0.00050575
0.000505746
0.000505785
0.000505785
0.000505844
0.000505848
0.000505919
0.000505935
0.00050602
0.000506047
0.000506151
0.000506176
0.000506279
0.000506534
0.000517338
0.000543026
0.00133138
0.00102414
0.000931417
0.000855353
0.000794098
0.000745587
0.000707282
0.000676937
0.000652601
0.000632895
0.000616695
0.000603263
0.000591969
0.000582417
0.000574235
0.000567201
0.000561086
0.000555756
0.000551071
0.000546936
0.000543269
0.000539996
0.000537076
0.000534443
0.000532082
0.000529932
0.000528001
0.000526223
0.000524626
0.000523139
0.000521804
0.000520551
0.000519428
0.00051836
0.00051741
0.000516497
0.000515689
0.000514899
0.000514205
0.000513522
0.000512928
0.000512332
0.000511818
0.000511304
0.000510859
0.000510405
0.000510023
0.000509625
0.000509293
0.000508942
0.000508651
0.000508341
0.00050809
0.000507824
0.000507607
0.000507367
0.00050719
0.000506971
0.000506821
0.000506629
0.000506498
0.000506327
0.000506213
0.000506067
0.000505963
0.000505845
0.000505745
0.000505621
0.000505546
0.000505453
0.000505403
0.000505325
0.000505286
0.000505218
0.000505184
0.00050512
0.000505094
0.000505046
0.000505036
0.000505011
0.000505024
0.000505019
0.000505056
0.000505056
0.000505114
0.000505117
0.000505187
0.000505201
0.000505286
0.000505312
0.000505415
0.000505439
0.000505542
0.000505805
0.000516982
0.000542452
0.00132215
0.00102414
0.000931428
0.00085536
0.000794074
0.000745511
0.000707146
0.000676739
0.000652347
0.000632589
0.000616343
0.000602871
0.000591541
0.000581957
0.000573748
0.000566689
0.000560554
0.000555204
0.000550501
0.000546351
0.00054267
0.000539385
0.000536453
0.00053381
0.00053144
0.00052928
0.000527341
0.000525556
0.000523952
0.000522459
0.000521119
0.00051986
0.000518732
0.00051766
0.000516706
0.000515788
0.000514976
0.000514182
0.000513486
0.000512799
0.000512202
0.000511604
0.000511087
0.00051057
0.000510124
0.000509667
0.000509283
0.000508883
0.000508549
0.000508196
0.000507904
0.000507592
0.000507339
0.000507071
0.000506854
0.000506611
0.000506433
0.000506213
0.000506062
0.000505869
0.000505737
0.000505565
0.00050545
0.000505303
0.000505198
0.000505079
0.000504979
0.000504854
0.000504777
0.000504683
0.000504633
0.000504554
0.000504514
0.000504445
0.000504411
0.000504346
0.00050432
0.000504271
0.00050426
0.000504233
0.000504245
0.000504238
0.000504273
0.000504273
0.000504329
0.000504331
0.0005044
0.000504413
0.000504497
0.000504522
0.000504624
0.000504647
0.00050475
0.000505021
0.000516601
0.000541831
0.0013115
0.00102414
0.00093144
0.000855367
0.000794048
0.000745431
0.000707001
0.00067653
0.000652076
0.000632263
0.000615967
0.000602453
0.000591085
0.000581467
0.000573229
0.000566144
0.000559984
0.000554614
0.000549893
0.000545726
0.00054203
0.000538731
0.000535787
0.000533133
0.000530752
0.000528583
0.000526636
0.000524843
0.000523232
0.000521732
0.000520385
0.000519121
0.000517988
0.00051691
0.000515952
0.00051503
0.000514214
0.000513416
0.000512716
0.000512026
0.000511426
0.000510825
0.000510305
0.000509785
0.000509336
0.000508877
0.000508491
0.000508089
0.000507753
0.000507398
0.000507104
0.00050679
0.000506536
0.000506266
0.000506047
0.000505803
0.000505623
0.000505402
0.000505249
0.000505055
0.000504922
0.000504749
0.000504633
0.000504485
0.000504379
0.000504259
0.000504158
0.000504032
0.000503955
0.00050386
0.000503809
0.000503729
0.000503688
0.000503619
0.000503584
0.000503518
0.000503491
0.000503441
0.000503429
0.0005034
0.000503411
0.000503403
0.000503435
0.000503434
0.000503488
0.00050349
0.000503558
0.00050357
0.000503652
0.000503676
0.000503777
0.000503798
0.000503902
0.000504183
0.000516193
0.000541162
0.00129949
0.00102414
0.000931452
0.000855376
0.000794021
0.000745346
0.000706848
0.000676307
0.000651788
0.000631917
0.000615569
0.000602008
0.000590599
0.000580946
0.000572676
0.000565563
0.000559379
0.000553986
0.000549245
0.00054506
0.000541348
0.000538035
0.000535077
0.000532411
0.00053002
0.000527841
0.000525885
0.000524083
0.000522464
0.000520957
0.000519604
0.000518334
0.000517194
0.000516111
0.000515148
0.000514221
0.000513401
0.000512599
0.000511895
0.000511202
0.000510598
0.000509994
0.000509471
0.000508948
0.000508497
0.000508034
0.000507646
0.000507242
0.000506903
0.000506547
0.00050625
0.000505935
0.000505679
0.000505407
0.000505187
0.000504941
0.00050476
0.000504537
0.000504383
0.000504187
0.000504053
0.000503878
0.000503761
0.000503612
0.000503505
0.000503384
0.000503283
0.000503156
0.000503078
0.000502981
0.000502929
0.000502848
0.000502807
0.000502736
0.000502701
0.000502634
0.000502606
0.000502556
0.000502543
0.000502512
0.000502521
0.000502512
0.000502541
0.00050254
0.000502592
0.000502593
0.000502659
0.00050267
0.000502751
0.000502775
0.000502873
0.000502893
0.000502998
0.000503288
0.000515757
0.00054044
0.00128617
0.00102414
0.000931465
0.000855385
0.000793994
0.000745257
0.000706687
0.000676073
0.000651485
0.000631551
0.000615147
0.000601537
0.000590085
0.000580394
0.000572089
0.000564947
0.000558736
0.00055332
0.000548557
0.000544354
0.000540624
0.000537295
0.000534324
0.000531645
0.000529242
0.000527052
0.000525086
0.000523275
0.000521648
0.000520133
0.000518773
0.000517496
0.000516351
0.000515262
0.000514293
0.000513362
0.000512537
0.000511731
0.000511023
0.000510325
0.000509718
0.00050911
0.000508585
0.000508058
0.000507604
0.000507139
0.000506748
0.000506341
0.000506
0.000505641
0.000505343
0.000505025
0.000504768
0.000504493
0.000504272
0.000504024
0.000503841
0.000503616
0.000503461
0.000503264
0.000503129
0.000502953
0.000502834
0.000502684
0.000502576
0.000502453
0.000502352
0.000502224
0.000502144
0.000502046
0.000501993
0.000501912
0.000501869
0.000501798
0.000501762
0.000501695
0.000501666
0.000501615
0.000501601
0.000501568
0.000501574
0.000501564
0.000501591
0.000501589
0.000501638
0.000501639
0.000501703
0.000501713
0.000501793
0.000501815
0.000501913
0.000501931
0.000502036
0.000502337
0.000515289
0.000539663
0.00127161
0.00102414
0.000931479
0.000855395
0.000793965
0.000745165
0.000706518
0.000675827
0.000651166
0.000631166
0.000614702
0.00060104
0.000589542
0.00057981
0.00057147
0.000564295
0.000558056
0.000552615
0.00054783
0.000543606
0.000539857
0.000536512
0.000533526
0.000530833
0.000528418
0.000526217
0.00052424
0.00052242
0.000520784
0.000519261
0.000517893
0.000516609
0.000515457
0.000514362
0.000513387
0.00051245
0.00051162
0.00051081
0.000510098
0.000509396
0.000508785
0.000508173
0.000507644
0.000507114
0.000506657
0.000506189
0.000505795
0.000505386
0.000505043
0.000504681
0.000504381
0.000504061
0.000503801
0.000503524
0.000503301
0.000503051
0.000502867
0.000502641
0.000502484
0.000502285
0.000502148
0.000501971
0.000501851
0.000501699
0.00050159
0.000501466
0.000501364
0.000501235
0.000501155
0.000501055
0.000501001
0.000500918
0.000500875
0.000500803
0.000500766
0.000500698
0.000500668
0.000500616
0.000500601
0.000500567
0.000500571
0.000500558
0.000500583
0.00050058
0.000500627
0.000500627
0.00050069
0.000500698
0.000500777
0.000500798
0.000500894
0.00050091
0.000501016
0.000501328
0.000514784
0.000538828
0.00125588
0.00102414
0.000931493
0.000855405
0.000793936
0.000745068
0.000706341
0.000675569
0.00065083
0.00063076
0.000614234
0.000600516
0.000588969
0.000579194
0.000570816
0.000563608
0.000557338
0.00055187
0.000547061
0.000542816
0.000539048
0.000535685
0.000532682
0.000529975
0.000527547
0.000525334
0.000523346
0.000521515
0.00051987
0.000518338
0.000516962
0.00051567
0.000514512
0.00051341
0.00051243
0.000511487
0.000510652
0.000509836
0.000509119
0.000508413
0.000507798
0.000507182
0.00050665
0.000506116
0.000505656
0.000505185
0.000504788
0.000504375
0.00050403
0.000503666
0.000503363
0.00050304
0.000502779
0.0005025
0.000502275
0.000502022
0.000501837
0.000501608
0.00050145
0.000501249
0.000501111
0.000500932
0.000500811
0.000500658
0.000500547
0.000500422
0.000500319
0.000500189
0.000500108
0.000500007
0.000499951
0.000499867
0.000499823
0.00049975
0.000499712
0.000499643
0.000499612
0.000499559
0.000499543
0.000499507
0.000499509
0.000499495
0.000499516
0.000499513
0.000499557
0.000499557
0.000499617
0.000499625
0.000499701
0.000499722
0.000499815
0.00049983
0.000499937
0.000500261
0.000514237
0.000537932
0.00123904
0.00102414
0.000931508
0.000855416
0.000793905
0.000744968
0.000706157
0.000675299
0.000650479
0.000630335
0.000613742
0.000599967
0.000588367
0.000578547
0.000570128
0.000562884
0.000556583
0.000551087
0.000546252
0.000541983
0.000538195
0.000534814
0.000531794
0.000529071
0.000526629
0.000524403
0.000522403
0.000520562
0.000518906
0.000517365
0.00051598
0.000514681
0.000513515
0.000512407
0.00051142
0.000510471
0.00050963
0.000508809
0.000508087
0.000507376
0.000506757
0.000506137
0.000505601
0.000505063
0.0005046
0.000504125
0.000503725
0.000503309
0.000502961
0.000502594
0.000502289
0.000501964
0.0005017
0.000501418
0.000501191
0.000500937
0.000500749
0.000500519
0.000500358
0.000500156
0.000500016
0.000499836
0.000499713
0.000499559
0.000499447
0.00049932
0.000499216
0.000499085
0.000499002
0.0004989
0.000498843
0.000498758
0.000498713
0.000498638
0.0004986
0.00049853
0.000498498
0.000498444
0.000498426
0.000498389
0.000498389
0.000498372
0.000498391
0.000498387
0.000498427
0.000498427
0.000498485
0.000498491
0.000498567
0.000498585
0.000498677
0.000498691
0.000498797
0.000499135
0.00051364
0.000536974
0.00122118
0.00102413
0.000931524
0.000855428
0.000793874
0.000744864
0.000705965
0.000675017
0.000650112
0.00062989
0.000613228
0.00059939
0.000587736
0.000577868
0.000569406
0.000562124
0.00055579
0.000550263
0.000545402
0.000541109
0.000537299
0.000533898
0.00053086
0.000528121
0.000525663
0.000523424
0.000521411
0.000519558
0.000517892
0.000516341
0.000514948
0.00051364
0.000512466
0.00051135
0.000510356
0.000509401
0.000508554
0.000507728
0.000507001
0.000506285
0.000505661
0.000505036
0.000504496
0.000503954
0.000503488
0.000503009
0.000502606
0.000502187
0.000501836
0.000501466
0.000501158
0.00050083
0.000500564
0.000500279
0.000500051
0.000499793
0.000499604
0.000499371
0.000499209
0.000499004
0.000498863
0.000498681
0.000498557
0.000498401
0.000498288
0.000498159
0.000498055
0.000497922
0.000497838
0.000497734
0.000497676
0.000497589
0.000497543
0.000497468
0.000497429
0.000497357
0.000497324
0.000497269
0.00049725
0.000497212
0.000497209
0.00049719
0.000497206
0.000497201
0.000497237
0.000497237
0.000497293
0.000497298
0.000497371
0.000497389
0.000497478
0.00049749
0.000497597
0.000497948
0.000512984
0.000535951
0.00120237
0.00102413
0.00093154
0.000855441
0.000793843
0.000744756
0.000705766
0.000674724
0.000649729
0.000629425
0.00061269
0.000598787
0.000587076
0.000577157
0.00056865
0.000561329
0.000554958
0.0005494
0.00054451
0.000540192
0.000536358
0.000532936
0.000529879
0.000527123
0.00052465
0.000522396
0.00052037
0.000518505
0.000516828
0.000515266
0.000513863
0.000512546
0.000511364
0.000510241
0.00050924
0.000508277
0.000507424
0.000506592
0.000505859
0.000505138
0.000504509
0.00050388
0.000503335
0.000502789
0.000502319
0.000501836
0.000501429
0.000501007
0.000500653
0.00050028
0.000499969
0.000499638
0.00049937
0.000499082
0.000498851
0.000498592
0.0004984
0.000498165