/*--------------------------------*- C++ -*----------------------------------*\
| =========                 |                                                 |
| \\      /  F ield         | OpenFOAM: The Open Source CFD Toolbox           |
|  \\    /   O peration     | Version:  v2012                                 |
|   \\  /    A nd           | Website:  www.openfoam.com                      |
|    \\/     M anipulation  |                                                 |
\*---------------------------------------------------------------------------*/
FoamFile
{
    version     2.0;
    format      ascii;
    class       volScalarField;
    location    "42";
    object      nut;
}
// * * * * * * * * * * * * * * * * * * * * * * * * * * * * * * * * * * * * * //

dimensions      [0 2 -1 0 0 0 0];


internalField   nonuniform List<scalar> 
209825
(
1.23965e-07
1.23062e-07
1.22195e-07
1.21338e-07
1.20548e-07
1.19835e-07
1.19234e-07
1.18717e-07
1.18297e-07
1.17934e-07
1.17644e-07
1.17389e-07
1.17187e-07
1.17004e-07
1.16862e-07
1.16728e-07
1.16627e-07
1.16528e-07
1.16455e-07
1.16381e-07
1.16327e-07
1.16271e-07
1.16232e-07
1.16188e-07
1.1616e-07
1.16126e-07
1.16105e-07
1.16078e-07
1.16063e-07
1.16041e-07
1.16031e-07
1.16013e-07
1.16005e-07
1.15992e-07
1.15987e-07
1.15976e-07
1.15972e-07
1.15963e-07
1.1596e-07
1.15954e-07
1.15951e-07
1.15946e-07
1.15947e-07
1.15942e-07
1.15942e-07
1.15939e-07
1.1594e-07
1.15939e-07
1.15939e-07
1.15937e-07
1.15936e-07
1.15935e-07
1.15934e-07
1.15936e-07
1.15934e-07
1.15938e-07
1.15935e-07
1.15941e-07
1.15939e-07
1.15942e-07
1.15937e-07
1.15939e-07
1.15938e-07
1.15936e-07
1.15936e-07
1.15932e-07
1.15929e-07
1.15927e-07
1.15927e-07
1.15928e-07
1.15928e-07
1.15929e-07
1.15928e-07
1.15929e-07
1.1593e-07
1.15933e-07
1.15936e-07
1.15942e-07
1.15951e-07
1.15962e-07
1.15971e-07
1.15986e-07
1.15992e-07
1.16006e-07
1.16009e-07
1.1602e-07
1.16025e-07
1.16033e-07
1.1604e-07
1.16049e-07
1.16057e-07
1.16055e-07
1.16085e-07
1.17203e-07
1.20289e-07
1.18255e-08
1.23965e-07
1.23062e-07
1.22195e-07
1.21338e-07
1.20548e-07
1.19835e-07
1.19235e-07
1.18717e-07
1.18297e-07
1.17935e-07
1.17644e-07
1.17389e-07
1.17187e-07
1.17004e-07
1.16862e-07
1.16729e-07
1.16627e-07
1.16528e-07
1.16455e-07
1.16381e-07
1.16328e-07
1.16271e-07
1.16232e-07
1.16189e-07
1.1616e-07
1.16126e-07
1.16105e-07
1.16079e-07
1.16063e-07
1.16042e-07
1.16031e-07
1.16014e-07
1.16005e-07
1.15992e-07
1.15987e-07
1.15976e-07
1.15972e-07
1.15963e-07
1.15961e-07
1.15954e-07
1.15952e-07
1.15947e-07
1.15947e-07
1.15942e-07
1.15942e-07
1.15939e-07
1.1594e-07
1.15939e-07
1.15939e-07
1.15937e-07
1.15936e-07
1.15935e-07
1.15935e-07
1.15937e-07
1.15935e-07
1.15939e-07
1.15936e-07
1.15941e-07
1.15939e-07
1.15942e-07
1.15937e-07
1.1594e-07
1.15938e-07
1.15936e-07
1.15937e-07
1.15932e-07
1.15929e-07
1.15928e-07
1.15928e-07
1.15928e-07
1.15928e-07
1.15929e-07
1.15929e-07
1.15929e-07
1.1593e-07
1.15934e-07
1.15936e-07
1.15942e-07
1.15951e-07
1.15962e-07
1.15971e-07
1.15986e-07
1.15992e-07
1.16006e-07
1.16009e-07
1.1602e-07
1.16025e-07
1.16033e-07
1.16041e-07
1.16049e-07
1.16057e-07
1.16056e-07
1.16085e-07
1.17205e-07
1.2029e-07
1.21873e-08
1.23965e-07
1.23062e-07
1.22195e-07
1.21338e-07
1.20548e-07
1.19835e-07
1.19234e-07
1.18717e-07
1.18297e-07
1.17934e-07
1.17644e-07
1.17389e-07
1.17186e-07
1.17003e-07
1.16861e-07
1.16728e-07
1.16626e-07
1.16527e-07
1.16454e-07
1.1638e-07
1.16326e-07
1.1627e-07
1.16231e-07
1.16187e-07
1.16159e-07
1.16125e-07
1.16104e-07
1.16077e-07
1.16062e-07
1.1604e-07
1.16029e-07
1.16012e-07
1.16004e-07
1.15991e-07
1.15986e-07
1.15975e-07
1.1597e-07
1.15962e-07
1.15959e-07
1.15953e-07
1.1595e-07
1.15945e-07
1.15946e-07
1.15941e-07
1.15941e-07
1.15938e-07
1.15939e-07
1.15938e-07
1.15937e-07
1.15936e-07
1.15935e-07
1.15934e-07
1.15933e-07
1.15935e-07
1.15933e-07
1.15937e-07
1.15934e-07
1.15939e-07
1.15937e-07
1.15941e-07
1.15936e-07
1.15938e-07
1.15936e-07
1.15935e-07
1.15935e-07
1.15931e-07
1.15928e-07
1.15926e-07
1.15926e-07
1.15927e-07
1.15927e-07
1.15927e-07
1.15927e-07
1.15928e-07
1.15929e-07
1.15932e-07
1.15934e-07
1.15941e-07
1.1595e-07
1.1596e-07
1.15969e-07
1.15984e-07
1.15991e-07
1.16004e-07
1.16007e-07
1.16019e-07
1.16024e-07
1.16032e-07
1.16039e-07
1.16048e-07
1.16055e-07
1.16054e-07
1.16084e-07
1.17208e-07
1.2029e-07
1.26366e-08
1.23965e-07
1.23062e-07
1.22196e-07
1.21339e-07
1.20548e-07
1.19835e-07
1.19235e-07
1.18717e-07
1.18296e-07
1.17934e-07
1.17643e-07
1.17388e-07
1.17186e-07
1.17002e-07
1.1686e-07
1.16727e-07
1.16625e-07
1.16526e-07
1.16453e-07
1.16378e-07
1.16325e-07
1.16268e-07
1.16229e-07
1.16186e-07
1.16157e-07
1.16123e-07
1.16102e-07
1.16076e-07
1.1606e-07
1.16039e-07
1.16028e-07
1.16011e-07
1.16002e-07
1.15989e-07
1.15984e-07
1.15973e-07
1.15969e-07
1.1596e-07
1.15957e-07
1.15951e-07
1.15948e-07
1.15943e-07
1.15944e-07
1.15939e-07
1.15939e-07
1.15936e-07
1.15937e-07
1.15936e-07
1.15935e-07
1.15934e-07
1.15933e-07
1.15932e-07
1.15931e-07
1.15933e-07
1.15931e-07
1.15935e-07
1.15932e-07
1.15937e-07
1.15935e-07
1.15939e-07
1.15934e-07
1.15936e-07
1.15934e-07
1.15933e-07
1.15933e-07
1.15929e-07
1.15926e-07
1.15924e-07
1.15924e-07
1.15925e-07
1.15925e-07
1.15925e-07
1.15925e-07
1.15926e-07
1.15927e-07
1.1593e-07
1.15932e-07
1.15939e-07
1.15947e-07
1.15958e-07
1.15967e-07
1.15982e-07
1.15989e-07
1.16002e-07
1.16005e-07
1.16017e-07
1.16022e-07
1.1603e-07
1.16037e-07
1.16046e-07
1.16053e-07
1.16052e-07
1.16082e-07
1.17213e-07
1.2029e-07
1.31357e-08
1.23965e-07
1.23062e-07
1.22196e-07
1.21339e-07
1.20548e-07
1.19836e-07
1.19235e-07
1.18717e-07
1.18296e-07
1.17933e-07
1.17643e-07
1.17387e-07
1.17184e-07
1.17001e-07
1.16859e-07
1.16725e-07
1.16623e-07
1.16524e-07
1.16451e-07
1.16376e-07
1.16323e-07
1.16266e-07
1.16227e-07
1.16184e-07
1.16155e-07
1.16121e-07
1.161e-07
1.16073e-07
1.16058e-07
1.16036e-07
1.16025e-07
1.16008e-07
1.16e-07
1.15987e-07
1.15981e-07
1.15971e-07
1.15966e-07
1.15957e-07
1.15955e-07
1.15948e-07
1.15946e-07
1.15941e-07
1.15941e-07
1.15936e-07
1.15936e-07
1.15934e-07
1.15934e-07
1.15933e-07
1.15933e-07
1.15931e-07
1.1593e-07
1.15929e-07
1.15929e-07
1.15931e-07
1.15929e-07
1.15933e-07
1.1593e-07
1.15935e-07
1.15933e-07
1.15936e-07
1.15931e-07
1.15934e-07
1.15932e-07
1.1593e-07
1.15931e-07
1.15926e-07
1.15923e-07
1.15922e-07
1.15922e-07
1.15922e-07
1.15922e-07
1.15923e-07
1.15923e-07
1.15923e-07
1.15924e-07
1.15927e-07
1.1593e-07
1.15936e-07
1.15945e-07
1.15955e-07
1.15965e-07
1.15979e-07
1.15986e-07
1.15999e-07
1.16002e-07
1.16014e-07
1.16019e-07
1.16027e-07
1.16034e-07
1.16043e-07
1.1605e-07
1.16049e-07
1.16079e-07
1.1722e-07
1.20291e-07
1.36772e-08
1.23965e-07
1.23062e-07
1.22196e-07
1.21339e-07
1.20549e-07
1.19836e-07
1.19235e-07
1.18717e-07
1.18296e-07
1.17933e-07
1.17642e-07
1.17386e-07
1.17183e-07
1.17e-07
1.16857e-07
1.16723e-07
1.16621e-07
1.16522e-07
1.16449e-07
1.16374e-07
1.16321e-07
1.16264e-07
1.16225e-07
1.16181e-07
1.16153e-07
1.16119e-07
1.16097e-07
1.16071e-07
1.16055e-07
1.16034e-07
1.16023e-07
1.16005e-07
1.15997e-07
1.15984e-07
1.15979e-07
1.15968e-07
1.15963e-07
1.15954e-07
1.15952e-07
1.15946e-07
1.15943e-07
1.15938e-07
1.15938e-07
1.15934e-07
1.15933e-07
1.15931e-07
1.15931e-07
1.1593e-07
1.1593e-07
1.15928e-07
1.15927e-07
1.15926e-07
1.15926e-07
1.15927e-07
1.15926e-07
1.1593e-07
1.15927e-07
1.15932e-07
1.1593e-07
1.15933e-07
1.15928e-07
1.15931e-07
1.15929e-07
1.15927e-07
1.15928e-07
1.15923e-07
1.1592e-07
1.15919e-07
1.15919e-07
1.15919e-07
1.15919e-07
1.1592e-07
1.1592e-07
1.1592e-07
1.15921e-07
1.15924e-07
1.15927e-07
1.15933e-07
1.15941e-07
1.15952e-07
1.15961e-07
1.15976e-07
1.15983e-07
1.15996e-07
1.15999e-07
1.16011e-07
1.16015e-07
1.16024e-07
1.16031e-07
1.1604e-07
1.16047e-07
1.16046e-07
1.16076e-07
1.17229e-07
1.20292e-07
1.42597e-08
1.23965e-07
1.23062e-07
1.22196e-07
1.2134e-07
1.20549e-07
1.19836e-07
1.19235e-07
1.18717e-07
1.18296e-07
1.17932e-07
1.17641e-07
1.17385e-07
1.17182e-07
1.16998e-07
1.16855e-07
1.16721e-07
1.16619e-07
1.1652e-07
1.16447e-07
1.16372e-07
1.16318e-07
1.16261e-07
1.16222e-07
1.16178e-07
1.1615e-07
1.16116e-07
1.16094e-07
1.16068e-07
1.16052e-07
1.1603e-07
1.16019e-07
1.16002e-07
1.15994e-07
1.15981e-07
1.15975e-07
1.15964e-07
1.1596e-07
1.15951e-07
1.15949e-07
1.15942e-07
1.1594e-07
1.15935e-07
1.15935e-07
1.1593e-07
1.1593e-07
1.15927e-07
1.15928e-07
1.15927e-07
1.15926e-07
1.15925e-07
1.15924e-07
1.15923e-07
1.15922e-07
1.15924e-07
1.15922e-07
1.15926e-07
1.15923e-07
1.15928e-07
1.15926e-07
1.1593e-07
1.15925e-07
1.15927e-07
1.15925e-07
1.15924e-07
1.15924e-07
1.1592e-07
1.15917e-07
1.15915e-07
1.15915e-07
1.15915e-07
1.15916e-07
1.15916e-07
1.15916e-07
1.15917e-07
1.15917e-07
1.15921e-07
1.15923e-07
1.15929e-07
1.15938e-07
1.15948e-07
1.15957e-07
1.15972e-07
1.15979e-07
1.15992e-07
1.15995e-07
1.16007e-07
1.16012e-07
1.1602e-07
1.16027e-07
1.16036e-07
1.16043e-07
1.16042e-07
1.16072e-07
1.17241e-07
1.20294e-07
1.48834e-08
1.23965e-07
1.23062e-07
1.22196e-07
1.2134e-07
1.2055e-07
1.19837e-07
1.19236e-07
1.18717e-07
1.18295e-07
1.17932e-07
1.1764e-07
1.17384e-07
1.1718e-07
1.16997e-07
1.16853e-07
1.16719e-07
1.16617e-07
1.16518e-07
1.16444e-07
1.16369e-07
1.16315e-07
1.16258e-07
1.16219e-07
1.16175e-07
1.16146e-07
1.16112e-07
1.16091e-07
1.16064e-07
1.16048e-07
1.16027e-07
1.16016e-07
1.15999e-07
1.1599e-07
1.15977e-07
1.15972e-07
1.15961e-07
1.15956e-07
1.15947e-07
1.15945e-07
1.15938e-07
1.15936e-07
1.15931e-07
1.15931e-07
1.15926e-07
1.15926e-07
1.15923e-07
1.15924e-07
1.15923e-07
1.15922e-07
1.15921e-07
1.1592e-07
1.15918e-07
1.15918e-07
1.1592e-07
1.15918e-07
1.15922e-07
1.15919e-07
1.15924e-07
1.15922e-07
1.15925e-07
1.15921e-07
1.15923e-07
1.15921e-07
1.15919e-07
1.1592e-07
1.15916e-07
1.15913e-07
1.15911e-07
1.15911e-07
1.15911e-07
1.15911e-07
1.15912e-07
1.15912e-07
1.15913e-07
1.15913e-07
1.15917e-07
1.15919e-07
1.15925e-07
1.15933e-07
1.15944e-07
1.15953e-07
1.15967e-07
1.15974e-07
1.15988e-07
1.15991e-07
1.16002e-07
1.16007e-07
1.16016e-07
1.16023e-07
1.16031e-07
1.16039e-07
1.16038e-07
1.16068e-07
1.17255e-07
1.20295e-07
1.55492e-08
1.23964e-07
1.23062e-07
1.22197e-07
1.21341e-07
1.20551e-07
1.19838e-07
1.19236e-07
1.18717e-07
1.18295e-07
1.17931e-07
1.17639e-07
1.17382e-07
1.17179e-07
1.16995e-07
1.16851e-07
1.16717e-07
1.16614e-07
1.16515e-07
1.16441e-07
1.16366e-07
1.16312e-07
1.16255e-07
1.16216e-07
1.16172e-07
1.16143e-07
1.16108e-07
1.16087e-07
1.1606e-07
1.16044e-07
1.16023e-07
1.16012e-07
1.15994e-07
1.15986e-07
1.15973e-07
1.15967e-07
1.15956e-07
1.15952e-07
1.15943e-07
1.1594e-07
1.15934e-07
1.15931e-07
1.15926e-07
1.15926e-07
1.15922e-07
1.15921e-07
1.15919e-07
1.15919e-07
1.15918e-07
1.15918e-07
1.15916e-07
1.15915e-07
1.15914e-07
1.15913e-07
1.15915e-07
1.15913e-07
1.15917e-07
1.15914e-07
1.15919e-07
1.15917e-07
1.15921e-07
1.15916e-07
1.15918e-07
1.15916e-07
1.15915e-07
1.15915e-07
1.15911e-07
1.15908e-07
1.15906e-07
1.15906e-07
1.15907e-07
1.15907e-07
1.15907e-07
1.15907e-07
1.15908e-07
1.15909e-07
1.15912e-07
1.15915e-07
1.1592e-07
1.15928e-07
1.15939e-07
1.15948e-07
1.15962e-07
1.15969e-07
1.15983e-07
1.15986e-07
1.15997e-07
1.16002e-07
1.16011e-07
1.16018e-07
1.16026e-07
1.16034e-07
1.16033e-07
1.16064e-07
1.17272e-07
1.20297e-07
1.62575e-08
1.23964e-07
1.23062e-07
1.22197e-07
1.21342e-07
1.20552e-07
1.19839e-07
1.19237e-07
1.18718e-07
1.18295e-07
1.1793e-07
1.17638e-07
1.17381e-07
1.17177e-07
1.16993e-07
1.16849e-07
1.16714e-07
1.16611e-07
1.16512e-07
1.16438e-07
1.16362e-07
1.16308e-07
1.16251e-07
1.16212e-07
1.16167e-07
1.16138e-07
1.16104e-07
1.16083e-07
1.16056e-07
1.1604e-07
1.16018e-07
1.16007e-07
1.1599e-07
1.15981e-07
1.15968e-07
1.15962e-07
1.15951e-07
1.15947e-07
1.15938e-07
1.15935e-07
1.15929e-07
1.15926e-07
1.15921e-07
1.15921e-07
1.15917e-07
1.15916e-07
1.15914e-07
1.15914e-07
1.15913e-07
1.15913e-07
1.15911e-07
1.1591e-07
1.15909e-07
1.15908e-07
1.1591e-07
1.15908e-07
1.15912e-07
1.15909e-07
1.15914e-07
1.15912e-07
1.15916e-07
1.15911e-07
1.15913e-07
1.15911e-07
1.1591e-07
1.1591e-07
1.15906e-07
1.15903e-07
1.15901e-07
1.15901e-07
1.15901e-07
1.15902e-07
1.15902e-07
1.15902e-07
1.15903e-07
1.15903e-07
1.15907e-07
1.15909e-07
1.15915e-07
1.15923e-07
1.15933e-07
1.15942e-07
1.15956e-07
1.15963e-07
1.15977e-07
1.1598e-07
1.15992e-07
1.15996e-07
1.16005e-07
1.16012e-07
1.16021e-07
1.16028e-07
1.16027e-07
1.16059e-07
1.17293e-07
1.203e-07
1.70085e-08
1.23964e-07
1.23061e-07
1.22197e-07
1.21342e-07
1.20553e-07
1.1984e-07
1.19237e-07
1.18718e-07
1.18295e-07
1.1793e-07
1.17637e-07
1.17379e-07
1.17175e-07
1.1699e-07
1.16846e-07
1.16711e-07
1.16608e-07
1.16508e-07
1.16434e-07
1.16358e-07
1.16304e-07
1.16247e-07
1.16207e-07
1.16163e-07
1.16134e-07
1.16099e-07
1.16078e-07
1.16051e-07
1.16035e-07
1.16013e-07
1.16002e-07
1.15984e-07
1.15976e-07
1.15962e-07
1.15957e-07
1.15946e-07
1.15942e-07
1.15932e-07
1.1593e-07
1.15923e-07
1.15921e-07
1.15916e-07
1.15916e-07
1.15911e-07
1.15911e-07
1.15908e-07
1.15909e-07
1.15907e-07
1.15907e-07
1.15906e-07
1.15905e-07
1.15903e-07
1.15902e-07
1.15904e-07
1.15903e-07
1.15906e-07
1.15903e-07
1.15908e-07
1.15906e-07
1.1591e-07
1.15905e-07
1.15907e-07
1.15906e-07
1.15904e-07
1.15904e-07
1.159e-07
1.15897e-07
1.15896e-07
1.15895e-07
1.15896e-07
1.15896e-07
1.15896e-07
1.15896e-07
1.15897e-07
1.15898e-07
1.15901e-07
1.15904e-07
1.15909e-07
1.15917e-07
1.15927e-07
1.15936e-07
1.1595e-07
1.15957e-07
1.15971e-07
1.15974e-07
1.15986e-07
1.1599e-07
1.15999e-07
1.16006e-07
1.16015e-07
1.16022e-07
1.16021e-07
1.16053e-07
1.17316e-07
1.20302e-07
1.78011e-08
1.23964e-07
1.23061e-07
1.22198e-07
1.21343e-07
1.20554e-07
1.19841e-07
1.19238e-07
1.18718e-07
1.18295e-07
1.17929e-07
1.17636e-07
1.17378e-07
1.17173e-07
1.16988e-07
1.16843e-07
1.16708e-07
1.16605e-07
1.16504e-07
1.1643e-07
1.16354e-07
1.163e-07
1.16242e-07
1.16202e-07
1.16158e-07
1.16129e-07
1.16094e-07
1.16072e-07
1.16045e-07
1.16029e-07
1.16008e-07
1.15996e-07
1.15979e-07
1.1597e-07
1.15957e-07
1.15951e-07
1.1594e-07
1.15936e-07
1.15927e-07
1.15924e-07
1.15917e-07
1.15915e-07
1.15909e-07
1.1591e-07
1.15905e-07
1.15904e-07
1.15902e-07
1.15902e-07
1.15901e-07
1.15901e-07
1.15899e-07
1.15898e-07
1.15897e-07
1.15896e-07
1.15898e-07
1.15896e-07
1.159e-07
1.15897e-07
1.15902e-07
1.159e-07
1.15904e-07
1.15899e-07
1.15901e-07
1.15899e-07
1.15898e-07
1.15898e-07
1.15894e-07
1.15891e-07
1.15889e-07
1.15889e-07
1.15889e-07
1.1589e-07
1.1589e-07
1.1589e-07
1.15891e-07
1.15891e-07
1.15894e-07
1.15897e-07
1.15903e-07
1.1591e-07
1.1592e-07
1.15929e-07
1.15943e-07
1.1595e-07
1.15964e-07
1.15967e-07
1.15979e-07
1.15983e-07
1.15992e-07
1.15999e-07
1.16008e-07
1.16015e-07
1.16014e-07
1.16047e-07
1.17343e-07
1.20304e-07
1.86348e-08
1.23964e-07
1.23061e-07
1.22198e-07
1.21344e-07
1.20555e-07
1.19842e-07
1.19239e-07
1.18719e-07
1.18295e-07
1.17928e-07
1.17635e-07
1.17376e-07
1.17171e-07
1.16985e-07
1.1684e-07
1.16704e-07
1.16601e-07
1.165e-07
1.16425e-07
1.16349e-07
1.16295e-07
1.16237e-07
1.16197e-07
1.16153e-07
1.16123e-07
1.16088e-07
1.16067e-07
1.1604e-07
1.16024e-07
1.16001e-07
1.1599e-07
1.15973e-07
1.15964e-07
1.1595e-07
1.15945e-07
1.15934e-07
1.15929e-07
1.1592e-07
1.15917e-07
1.15911e-07
1.15908e-07
1.15903e-07
1.15903e-07
1.15898e-07
1.15898e-07
1.15895e-07
1.15896e-07
1.15894e-07
1.15894e-07
1.15893e-07
1.15892e-07
1.1589e-07
1.15889e-07
1.15891e-07
1.15889e-07
1.15893e-07
1.1589e-07
1.15895e-07
1.15893e-07
1.15897e-07
1.15892e-07
1.15894e-07
1.15892e-07
1.15891e-07
1.15891e-07
1.15887e-07
1.15884e-07
1.15882e-07
1.15882e-07
1.15883e-07
1.15883e-07
1.15883e-07
1.15883e-07
1.15884e-07
1.15884e-07
1.15888e-07
1.1589e-07
1.15896e-07
1.15903e-07
1.15913e-07
1.15922e-07
1.15935e-07
1.15943e-07
1.15956e-07
1.15959e-07
1.15971e-07
1.15976e-07
1.15985e-07
1.15991e-07
1.16001e-07
1.16007e-07
1.16007e-07
1.1604e-07
1.17374e-07
1.20307e-07
1.95119e-08
1.23964e-07
1.23061e-07
1.22199e-07
1.21345e-07
1.20557e-07
1.19844e-07
1.1924e-07
1.18719e-07
1.18295e-07
1.17928e-07
1.17633e-07
1.17374e-07
1.17168e-07
1.16982e-07
1.16837e-07
1.16701e-07
1.16597e-07
1.16496e-07
1.16421e-07
1.16344e-07
1.1629e-07
1.16231e-07
1.16192e-07
1.16147e-07
1.16117e-07
1.16082e-07
1.1606e-07
1.16033e-07
1.16017e-07
1.15995e-07
1.15984e-07
1.15966e-07
1.15957e-07
1.15943e-07
1.15938e-07
1.15927e-07
1.15922e-07
1.15913e-07
1.1591e-07
1.15904e-07
1.15901e-07
1.15896e-07
1.15896e-07
1.15891e-07
1.1589e-07
1.15888e-07
1.15888e-07
1.15887e-07
1.15887e-07
1.15885e-07
1.15884e-07
1.15883e-07
1.15882e-07
1.15884e-07
1.15882e-07
1.15886e-07
1.15883e-07
1.15888e-07
1.15886e-07
1.15889e-07
1.15885e-07
1.15887e-07
1.15885e-07
1.15883e-07
1.15884e-07
1.1588e-07
1.15877e-07
1.15875e-07
1.15875e-07
1.15875e-07
1.15875e-07
1.15876e-07
1.15876e-07
1.15876e-07
1.15877e-07
1.1588e-07
1.15883e-07
1.15888e-07
1.15895e-07
1.15904e-07
1.15914e-07
1.15927e-07
1.15934e-07
1.15948e-07
1.15951e-07
1.15963e-07
1.15967e-07
1.15977e-07
1.15983e-07
1.15993e-07
1.15999e-07
1.15999e-07
1.16033e-07
1.17408e-07
1.20308e-07
2.04351e-08
1.23964e-07
1.23061e-07
1.22199e-07
1.21347e-07
1.20558e-07
1.19845e-07
1.19242e-07
1.1872e-07
1.18295e-07
1.17927e-07
1.17632e-07
1.17372e-07
1.17166e-07
1.16979e-07
1.16833e-07
1.16696e-07
1.16592e-07
1.16491e-07
1.16416e-07
1.16339e-07
1.16284e-07
1.16226e-07
1.16185e-07
1.1614e-07
1.16111e-07
1.16076e-07
1.16054e-07
1.16026e-07
1.1601e-07
1.15988e-07
1.15976e-07
1.15959e-07
1.1595e-07
1.15936e-07
1.15931e-07
1.15919e-07
1.15915e-07
1.15905e-07
1.15903e-07
1.15896e-07
1.15893e-07
1.15888e-07
1.15888e-07
1.15883e-07
1.15883e-07
1.1588e-07
1.1588e-07
1.15879e-07
1.15879e-07
1.15877e-07
1.15876e-07
1.15875e-07
1.15874e-07
1.15876e-07
1.15874e-07
1.15878e-07
1.15875e-07
1.1588e-07
1.15878e-07
1.15881e-07
1.15877e-07
1.15878e-07
1.15877e-07
1.15875e-07
1.15876e-07
1.15872e-07
1.15869e-07
1.15867e-07
1.15867e-07
1.15867e-07
1.15867e-07
1.15868e-07
1.15868e-07
1.15868e-07
1.15869e-07
1.15872e-07
1.15875e-07
1.1588e-07
1.15887e-07
1.15896e-07
1.15905e-07
1.15918e-07
1.15925e-07
1.15939e-07
1.15942e-07
1.15955e-07
1.15959e-07
1.15968e-07
1.15974e-07
1.15984e-07
1.1599e-07
1.1599e-07
1.16025e-07
1.17447e-07
1.20309e-07
2.14074e-08
1.23964e-07
1.23061e-07
1.222e-07
1.21348e-07
1.2056e-07
1.19847e-07
1.19243e-07
1.18721e-07
1.18295e-07
1.17926e-07
1.17631e-07
1.1737e-07
1.17163e-07
1.16975e-07
1.16829e-07
1.16692e-07
1.16587e-07
1.16486e-07
1.1641e-07
1.16333e-07
1.16278e-07
1.16219e-07
1.16179e-07
1.16134e-07
1.16104e-07
1.16069e-07
1.16046e-07
1.16019e-07
1.16003e-07
1.1598e-07
1.15969e-07
1.15951e-07
1.15942e-07
1.15928e-07
1.15923e-07
1.15911e-07
1.15906e-07
1.15897e-07
1.15894e-07
1.15888e-07
1.15885e-07
1.15879e-07
1.1588e-07
1.15875e-07
1.15874e-07
1.15871e-07
1.15872e-07
1.1587e-07
1.1587e-07
1.15869e-07
1.15868e-07
1.15866e-07
1.15865e-07
1.15867e-07
1.15865e-07
1.15869e-07
1.15866e-07
1.15871e-07
1.15869e-07
1.15872e-07
1.15868e-07
1.1587e-07
1.15868e-07
1.15866e-07
1.15867e-07
1.15863e-07
1.1586e-07
1.15858e-07
1.15858e-07
1.15858e-07
1.15858e-07
1.15859e-07
1.15859e-07
1.15859e-07
1.1586e-07
1.15863e-07
1.15866e-07
1.15871e-07
1.15877e-07
1.15886e-07
1.15895e-07
1.15908e-07
1.15916e-07
1.15929e-07
1.15933e-07
1.15945e-07
1.15949e-07
1.15959e-07
1.15965e-07
1.15975e-07
1.15981e-07
1.15981e-07
1.16017e-07
1.17489e-07
1.20309e-07
2.24318e-08
1.23964e-07
1.23061e-07
1.222e-07
1.21349e-07
1.20562e-07
1.19849e-07
1.19244e-07
1.18721e-07
1.18295e-07
1.17926e-07
1.17629e-07
1.17367e-07
1.1716e-07
1.16972e-07
1.16825e-07
1.16687e-07
1.16582e-07
1.1648e-07
1.16404e-07
1.16327e-07
1.16272e-07
1.16212e-07
1.16172e-07
1.16126e-07
1.16096e-07
1.16061e-07
1.16039e-07
1.16011e-07
1.15995e-07
1.15972e-07
1.1596e-07
1.15942e-07
1.15934e-07
1.1592e-07
1.15914e-07
1.15903e-07
1.15898e-07
1.15888e-07
1.15886e-07
1.15879e-07
1.15876e-07
1.1587e-07
1.15871e-07
1.15866e-07
1.15865e-07
1.15862e-07
1.15863e-07
1.15861e-07
1.15861e-07
1.15859e-07
1.15858e-07
1.15857e-07
1.15856e-07
1.15858e-07
1.15856e-07
1.1586e-07
1.15857e-07
1.15861e-07
1.1586e-07
1.15863e-07
1.15859e-07
1.1586e-07
1.15859e-07
1.15857e-07
1.15858e-07
1.15854e-07
1.15851e-07
1.15849e-07
1.15849e-07
1.15849e-07
1.15849e-07
1.1585e-07
1.15849e-07
1.1585e-07
1.15851e-07
1.15854e-07
1.15856e-07
1.15861e-07
1.15868e-07
1.15876e-07
1.15885e-07
1.15897e-07
1.15905e-07
1.15919e-07
1.15922e-07
1.15935e-07
1.15939e-07
1.15949e-07
1.15955e-07
1.15965e-07
1.1597e-07
1.15971e-07
1.16008e-07
1.17536e-07
1.20307e-07
2.35116e-08
1.23964e-07
1.23061e-07
1.22201e-07
1.21351e-07
1.20564e-07
1.19851e-07
1.19246e-07
1.18722e-07
1.18295e-07
1.17925e-07
1.17628e-07
1.17365e-07
1.17157e-07
1.16968e-07
1.16821e-07
1.16683e-07
1.16577e-07
1.16474e-07
1.16398e-07
1.1632e-07
1.16265e-07
1.16205e-07
1.16164e-07
1.16119e-07
1.16089e-07
1.16053e-07
1.1603e-07
1.16002e-07
1.15986e-07
1.15963e-07
1.15952e-07
1.15933e-07
1.15925e-07
1.1591e-07
1.15905e-07
1.15893e-07
1.15888e-07
1.15879e-07
1.15876e-07
1.15869e-07
1.15866e-07
1.15861e-07
1.15861e-07
1.15856e-07
1.15855e-07
1.15852e-07
1.15853e-07
1.15851e-07
1.15851e-07
1.1585e-07
1.15848e-07
1.15847e-07
1.15846e-07
1.15848e-07
1.15846e-07
1.1585e-07
1.15847e-07
1.15851e-07
1.1585e-07
1.15853e-07
1.15849e-07
1.1585e-07
1.15849e-07
1.15847e-07
1.15848e-07
1.15844e-07
1.15841e-07
1.15839e-07
1.15839e-07
1.15839e-07
1.15839e-07
1.1584e-07
1.15839e-07
1.1584e-07
1.1584e-07
1.15843e-07
1.15846e-07
1.15851e-07
1.15857e-07
1.15866e-07
1.15875e-07
1.15886e-07
1.15894e-07
1.15908e-07
1.15912e-07
1.15924e-07
1.15928e-07
1.15938e-07
1.15944e-07
1.15954e-07
1.15959e-07
1.1596e-07
1.15998e-07
1.17586e-07
1.16819e-07
2.46502e-08
1.23963e-07
1.23061e-07
1.22201e-07
1.21352e-07
1.20566e-07
1.19853e-07
1.19248e-07
1.18723e-07
1.18295e-07
1.17924e-07
1.17626e-07
1.17363e-07
1.17154e-07
1.16964e-07
1.16816e-07
1.16677e-07
1.16571e-07
1.16468e-07
1.16391e-07
1.16313e-07
1.16257e-07
1.16197e-07
1.16157e-07
1.1611e-07
1.1608e-07
1.16044e-07
1.16022e-07
1.15993e-07
1.15977e-07
1.15954e-07
1.15942e-07
1.15924e-07
1.15915e-07
1.15901e-07
1.15895e-07
1.15883e-07
1.15878e-07
1.15869e-07
1.15866e-07
1.15859e-07
1.15856e-07
1.15851e-07
1.15851e-07
1.15846e-07
1.15845e-07
1.15842e-07
1.15842e-07
1.15841e-07
1.1584e-07
1.15839e-07
1.15838e-07
1.15837e-07
1.15835e-07
1.15837e-07
1.15835e-07
1.15839e-07
1.15836e-07
1.15841e-07
1.15839e-07
1.15842e-07
1.15838e-07
1.1584e-07
1.15838e-07
1.15837e-07
1.15837e-07
1.15834e-07
1.1583e-07
1.15829e-07
1.15828e-07
1.15828e-07
1.15829e-07
1.15829e-07
1.15829e-07
1.15829e-07
1.1583e-07
1.15833e-07
1.15836e-07
1.1584e-07
1.15846e-07
1.15854e-07
1.15863e-07
1.15874e-07
1.15882e-07
1.15896e-07
1.159e-07
1.15912e-07
1.15916e-07
1.15926e-07
1.15932e-07
1.15943e-07
1.15947e-07
1.15949e-07
1.15988e-07
1.17641e-07
1.10571e-07
2.58511e-08
1.23963e-07
1.23061e-07
1.22202e-07
1.21354e-07
1.20568e-07
1.19855e-07
1.1925e-07
1.18724e-07
1.18295e-07
1.17923e-07
1.17624e-07
1.1736e-07
1.1715e-07
1.1696e-07
1.16811e-07
1.16672e-07
1.16565e-07
1.16461e-07
1.16384e-07
1.16306e-07
1.1625e-07
1.16189e-07
1.16148e-07
1.16102e-07
1.16071e-07
1.16035e-07
1.16012e-07
1.15984e-07
1.15967e-07
1.15944e-07
1.15932e-07
1.15914e-07
1.15905e-07
1.1589e-07
1.15884e-07
1.15873e-07
1.15868e-07
1.15858e-07
1.15855e-07
1.15848e-07
1.15845e-07
1.1584e-07
1.1584e-07
1.15835e-07
1.15834e-07
1.15831e-07
1.15831e-07
1.1583e-07
1.15829e-07
1.15828e-07
1.15827e-07
1.15825e-07
1.15824e-07
1.15826e-07
1.15824e-07
1.15828e-07
1.15825e-07
1.15829e-07
1.15828e-07
1.15831e-07
1.15827e-07
1.15828e-07
1.15827e-07
1.15825e-07
1.15826e-07
1.15822e-07
1.15819e-07
1.15817e-07
1.15817e-07
1.15817e-07
1.15817e-07
1.15818e-07
1.15817e-07
1.15818e-07
1.15818e-07
1.15821e-07
1.15824e-07
1.15829e-07
1.15834e-07
1.15842e-07
1.15851e-07
1.15862e-07
1.1587e-07
1.15883e-07
1.15887e-07
1.159e-07
1.15904e-07
1.15914e-07
1.1592e-07
1.1593e-07
1.15935e-07
1.15936e-07
1.15977e-07
1.177e-07
1.04987e-07
2.71179e-08
1.23963e-07
1.2306e-07
1.22203e-07
1.21356e-07
1.20571e-07
1.19858e-07
1.19252e-07
1.18726e-07
1.18296e-07
1.17923e-07
1.17623e-07
1.17357e-07
1.17147e-07
1.16956e-07
1.16806e-07
1.16666e-07
1.16559e-07
1.16455e-07
1.16377e-07
1.16298e-07
1.16241e-07
1.16181e-07
1.16139e-07
1.16092e-07
1.16062e-07
1.16025e-07
1.16002e-07
1.15974e-07
1.15957e-07
1.15934e-07
1.15922e-07
1.15903e-07
1.15894e-07
1.15879e-07
1.15873e-07
1.15862e-07
1.15857e-07
1.15847e-07
1.15844e-07
1.15837e-07
1.15834e-07
1.15828e-07
1.15828e-07
1.15823e-07
1.15822e-07
1.15819e-07
1.1582e-07
1.15818e-07
1.15817e-07
1.15816e-07
1.15815e-07
1.15813e-07
1.15812e-07
1.15814e-07
1.15812e-07
1.15816e-07
1.15813e-07
1.15817e-07
1.15815e-07
1.15819e-07
1.15815e-07
1.15816e-07
1.15815e-07
1.15813e-07
1.15814e-07
1.1581e-07
1.15807e-07
1.15806e-07
1.15805e-07
1.15805e-07
1.15805e-07
1.15806e-07
1.15805e-07
1.15806e-07
1.15806e-07
1.15809e-07
1.15812e-07
1.15817e-07
1.15822e-07
1.1583e-07
1.15838e-07
1.15849e-07
1.15857e-07
1.1587e-07
1.15874e-07
1.15887e-07
1.15891e-07
1.15901e-07
1.15906e-07
1.15917e-07
1.15922e-07
1.15924e-07
1.15965e-07
1.17764e-07
9.99962e-08
2.84542e-08
1.23963e-07
1.2306e-07
1.22204e-07
1.21357e-07
1.20573e-07
1.1986e-07
1.19254e-07
1.18727e-07
1.18296e-07
1.17922e-07
1.17621e-07
1.17355e-07
1.17143e-07
1.16951e-07
1.16801e-07
1.1666e-07
1.16552e-07
1.16447e-07
1.16369e-07
1.1629e-07
1.16233e-07
1.16172e-07
1.1613e-07
1.16083e-07
1.16052e-07
1.16015e-07
1.15992e-07
1.15963e-07
1.15946e-07
1.15923e-07
1.15911e-07
1.15892e-07
1.15883e-07
1.15868e-07
1.15862e-07
1.1585e-07
1.15845e-07
1.15835e-07
1.15832e-07
1.15825e-07
1.15822e-07
1.15816e-07
1.15816e-07
1.15811e-07
1.1581e-07
1.15807e-07
1.15807e-07
1.15805e-07
1.15805e-07
1.15803e-07
1.15802e-07
1.15801e-07
1.158e-07
1.15802e-07
1.15799e-07
1.15803e-07
1.158e-07
1.15805e-07
1.15803e-07
1.15806e-07
1.15802e-07
1.15803e-07
1.15802e-07
1.158e-07
1.15801e-07
1.15798e-07
1.15795e-07
1.15793e-07
1.15792e-07
1.15792e-07
1.15792e-07
1.15793e-07
1.15793e-07
1.15793e-07
1.15794e-07
1.15796e-07
1.15799e-07
1.15804e-07
1.15809e-07
1.15816e-07
1.15824e-07
1.15835e-07
1.15843e-07
1.15855e-07
1.1586e-07
1.15873e-07
1.15877e-07
1.15887e-07
1.15892e-07
1.15904e-07
1.15908e-07
1.1591e-07
1.15953e-07
1.17831e-07
9.5532e-08
2.98633e-08
1.23963e-07
1.2306e-07
1.22204e-07
1.21359e-07
1.20576e-07
1.19863e-07
1.19256e-07
1.18728e-07
1.18296e-07
1.17921e-07
1.17619e-07
1.17352e-07
1.17139e-07
1.16946e-07
1.16795e-07
1.16654e-07
1.16545e-07
1.16439e-07
1.16361e-07
1.16281e-07
1.16223e-07
1.16162e-07
1.1612e-07
1.16072e-07
1.16041e-07
1.16004e-07
1.15981e-07
1.15952e-07
1.15935e-07
1.15911e-07
1.15899e-07
1.1588e-07
1.1587e-07
1.15856e-07
1.15849e-07
1.15837e-07
1.15832e-07
1.15822e-07
1.15819e-07
1.15812e-07
1.15809e-07
1.15803e-07
1.15803e-07
1.15798e-07
1.15797e-07
1.15794e-07
1.15794e-07
1.15792e-07
1.15792e-07
1.1579e-07
1.15789e-07
1.15788e-07
1.15786e-07
1.15788e-07
1.15786e-07
1.1579e-07
1.15786e-07
1.15791e-07
1.15789e-07
1.15792e-07
1.15789e-07
1.1579e-07
1.15789e-07
1.15787e-07
1.15788e-07
1.15784e-07
1.15781e-07
1.1578e-07
1.15779e-07
1.15779e-07
1.15779e-07
1.15779e-07
1.15779e-07
1.1578e-07
1.1578e-07
1.15783e-07
1.15785e-07
1.1579e-07
1.15795e-07
1.15802e-07
1.1581e-07
1.1582e-07
1.15828e-07
1.1584e-07
1.15846e-07
1.15858e-07
1.15862e-07
1.15873e-07
1.15878e-07
1.15889e-07
1.15893e-07
1.15895e-07
1.15941e-07
1.179e-07
9.15377e-08
3.13486e-08
1.23963e-07
1.2306e-07
1.22205e-07
1.21361e-07
1.20579e-07
1.19866e-07
1.19259e-07
1.1873e-07
1.18297e-07
1.1792e-07
1.17617e-07
1.17349e-07
1.17135e-07
1.16941e-07
1.1679e-07
1.16647e-07
1.16538e-07
1.16431e-07
1.16352e-07
1.16272e-07
1.16214e-07
1.16152e-07
1.16109e-07
1.16062e-07
1.1603e-07
1.15993e-07
1.15969e-07
1.1594e-07
1.15923e-07
1.15899e-07
1.15886e-07
1.15867e-07
1.15858e-07
1.15843e-07
1.15836e-07
1.15824e-07
1.15819e-07
1.15809e-07
1.15806e-07
1.15798e-07
1.15795e-07
1.15789e-07
1.15789e-07
1.15784e-07
1.15783e-07
1.1578e-07
1.1578e-07
1.15778e-07
1.15778e-07
1.15776e-07
1.15775e-07
1.15774e-07
1.15772e-07
1.15774e-07
1.15772e-07
1.15775e-07
1.15772e-07
1.15777e-07
1.15775e-07
1.15778e-07
1.15774e-07
1.15776e-07
1.15775e-07
1.15773e-07
1.15773e-07
1.1577e-07
1.15767e-07
1.15765e-07
1.15765e-07
1.15765e-07
1.15765e-07
1.15765e-07
1.15765e-07
1.15765e-07
1.15766e-07
1.15768e-07
1.15771e-07
1.15775e-07
1.1578e-07
1.15787e-07
1.15795e-07
1.15804e-07
1.15812e-07
1.15824e-07
1.1583e-07
1.15842e-07
1.15846e-07
1.15858e-07
1.15862e-07
1.15874e-07
1.15877e-07
1.1588e-07
1.15927e-07
1.17972e-07
8.79652e-08
3.29128e-08
1.23962e-07
1.2306e-07
1.22206e-07
1.21363e-07
1.20582e-07
1.19869e-07
1.19261e-07
1.18732e-07
1.18298e-07
1.1792e-07
1.17615e-07
1.17346e-07
1.17131e-07
1.16936e-07
1.16783e-07
1.1664e-07
1.1653e-07
1.16423e-07
1.16343e-07
1.16262e-07
1.16204e-07
1.16141e-07
1.16099e-07
1.1605e-07
1.16018e-07
1.15981e-07
1.15957e-07
1.15927e-07
1.1591e-07
1.15886e-07
1.15873e-07
1.15854e-07
1.15844e-07
1.15829e-07
1.15823e-07
1.1581e-07
1.15805e-07
1.15795e-07
1.15792e-07
1.15784e-07
1.15781e-07
1.15775e-07
1.15775e-07
1.15769e-07
1.15768e-07
1.15765e-07
1.15765e-07
1.15764e-07
1.15763e-07
1.15761e-07
1.1576e-07
1.15759e-07
1.15757e-07
1.15759e-07
1.15757e-07
1.15761e-07
1.15757e-07
1.15762e-07
1.1576e-07
1.15763e-07
1.15759e-07
1.15761e-07
1.1576e-07
1.15758e-07
1.15758e-07
1.15755e-07
1.15753e-07
1.15751e-07
1.1575e-07
1.1575e-07
1.1575e-07
1.1575e-07
1.1575e-07
1.1575e-07
1.15751e-07
1.15753e-07
1.15756e-07
1.1576e-07
1.15765e-07
1.15772e-07
1.15779e-07
1.15788e-07
1.15796e-07
1.15807e-07
1.15813e-07
1.15826e-07
1.1583e-07
1.15841e-07
1.15845e-07
1.15857e-07
1.1586e-07
1.15864e-07
1.15913e-07
1.18045e-07
8.47731e-08
3.45579e-08
1.23962e-07
1.23059e-07
1.22207e-07
1.21366e-07
1.20585e-07
1.19872e-07
1.19264e-07
1.18733e-07
1.18298e-07
1.17919e-07
1.17613e-07
1.17342e-07
1.17127e-07
1.1693e-07
1.16777e-07
1.16633e-07
1.16522e-07
1.16414e-07
1.16334e-07
1.16252e-07
1.16193e-07
1.1613e-07
1.16087e-07
1.16038e-07
1.16006e-07
1.15968e-07
1.15944e-07
1.15914e-07
1.15897e-07
1.15872e-07
1.15859e-07
1.1584e-07
1.1583e-07
1.15815e-07
1.15808e-07
1.15796e-07
1.15791e-07
1.1578e-07
1.15777e-07
1.15769e-07
1.15766e-07
1.1576e-07
1.1576e-07
1.15754e-07
1.15753e-07
1.1575e-07
1.1575e-07
1.15748e-07
1.15748e-07
1.15746e-07
1.15745e-07