/*--------------------------------*- C++ -*----------------------------------*\
| =========                 |                                                 |
| \\      /  F ield         | OpenFOAM: The Open Source CFD Toolbox           |
|  \\    /   O peration     | Version:  v2012                                 |
|   \\  /    A nd           | Website:  www.openfoam.com                      |
|    \\/     M anipulation  |                                                 |
\*---------------------------------------------------------------------------*/
FoamFile
{
    version     2.0;
    format      ascii;
    class       volVectorField;
    location    "42";
    object      wallShearStress;
}
// * * * * * * * * * * * * * * * * * * * * * * * * * * * * * * * * * * * * * //

dimensions      [0 2 -2 0 0 0 0];


internalField   uniform (0 0 0);

boundaryField
{
    inlet
    {
        type            calculated;
        value           uniform (0 0 0);
    }
    outlet
    {
        type            calculated;
        value           uniform (0 0 0);
    }
    topWall
    {
        type            calculated;
        value           nonuniform List<vector> 
545
(
(3.6744e-08 -2.58646e-08 0)
(3.67328e-08 -7.23536e-08 0)
(3.67126e-08 -1.20696e-07 0)
(3.6684e-08 -1.67641e-07 0)
(3.66481e-08 -2.12587e-07 0)
(3.66056e-08 -2.56112e-07 0)
(3.65571e-08 -2.98587e-07 0)
(3.65031e-08 -3.39991e-07 0)
(3.64438e-08 -3.80235e-07 0)
(3.63799e-08 -4.19316e-07 0)
(3.63118e-08 -4.57288e-07 0)
(3.62399e-08 -4.94193e-07 0)
(3.61645e-08 -5.30056e-07 0)
(3.60861e-08 -5.64899e-07 0)
(3.60049e-08 -5.98747e-07 0)
(3.59213e-08 -6.31625e-07 0)
(3.58356e-08 -6.63562e-07 0)
(3.5748e-08 -6.94581e-07 0)
(3.56588e-08 -7.24708e-07 0)
(3.55682e-08 -7.53966e-07 0)
(3.54765e-08 -7.8238e-07 0)
(3.53839e-08 -8.09972e-07 0)
(3.52906e-08 -8.36766e-07 0)
(3.51967e-08 -8.62785e-07 0)
(3.51025e-08 -8.8805e-07 0)
(3.5008e-08 -9.12582e-07 0)
(3.49135e-08 -9.36404e-07 0)
(3.48191e-08 -9.59534e-07 0)
(3.47249e-08 -9.81993e-07 0)
(3.46309e-08 -1.0038e-06 0)
(3.45374e-08 -1.02498e-06 0)
(3.44445e-08 -1.04554e-06 0)
(3.43521e-08 -1.0655e-06 0)
(3.42604e-08 -1.08489e-06 0)
(3.41695e-08 -1.10372e-06 0)
(3.40794e-08 -1.122e-06 0)
(3.39902e-08 -1.13975e-06 0)
(3.3902e-08 -1.15699e-06 0)
(3.38148e-08 -1.17373e-06 0)
(3.37286e-08 -1.18999e-06 0)
(3.36435e-08 -1.20578e-06 0)
(3.35596e-08 -1.22111e-06 0)
(3.34768e-08 -1.236e-06 0)
(3.33952e-08 -1.25047e-06 0)
(3.33147e-08 -1.26451e-06 0)
(3.32356e-08 -1.27816e-06 0)
(3.31576e-08 -1.29141e-06 0)
(3.30809e-08 -1.30429e-06 0)
(3.30055e-08 -1.3168e-06 0)
(3.29314e-08 -1.32894e-06 0)
(3.28585e-08 -1.34075e-06 0)
(3.2787e-08 -1.35221e-06 0)
(3.27167e-08 -1.36335e-06 0)
(3.26477e-08 -1.37418e-06 0)
(3.25799e-08 -1.38469e-06 0)
(3.25135e-08 -1.39491e-06 0)
(3.24483e-08 -1.40484e-06 0)
(3.23844e-08 -1.41448e-06 0)
(3.23217e-08 -1.42386e-06 0)
(3.22603e-08 -1.43297e-06 0)
(3.22002e-08 -1.44182e-06 0)
(3.21412e-08 -1.45042e-06 0)
(3.20835e-08 -1.45878e-06 0)
(3.20269e-08 -1.46691e-06 0)
(3.19716e-08 -1.47481e-06 0)
(3.19174e-08 -1.48248e-06 0)
(3.18644e-08 -1.48994e-06 0)
(3.18125e-08 -1.4972e-06 0)
(3.17617e-08 -1.50425e-06 0)
(3.17121e-08 -1.5111e-06 0)
(3.16634e-08 -1.51776e-06 0)
(3.16162e-08 -1.52423e-06 0)
(3.15703e-08 -1.53046e-06 0)
(3.15251e-08 -1.5365e-06 0)
(3.14804e-08 -1.54247e-06 0)
(3.14358e-08 -1.54842e-06 0)
(3.13912e-08 -1.55434e-06 0)
(3.13467e-08 -1.56022e-06 0)
(3.13022e-08 -1.56607e-06 0)
(3.12578e-08 -1.57188e-06 0)
(3.12134e-08 -1.57766e-06 0)
(3.1169e-08 -1.58341e-06 0)
(3.11247e-08 -1.58911e-06 0)
(3.10804e-08 -1.59479e-06 0)
(3.10362e-08 -1.60043e-06 0)
(3.09921e-08 -1.60604e-06 0)
(3.09479e-08 -1.61161e-06 0)
(3.09039e-08 -1.61715e-06 0)
(3.08599e-08 -1.62266e-06 0)
(3.08159e-08 -1.62813e-06 0)
(3.0772e-08 -1.63357e-06 0)
(3.07282e-08 -1.63898e-06 0)
(3.06844e-08 -1.64436e-06 0)
(3.06408e-08 -1.6497e-06 0)
(3.05968e-08 -1.65502e-06 0)
(3.05548e-08 -1.66025e-06 0)
(3.05159e-08 -1.66505e-06 0)
(3.04785e-08 -1.66939e-06 0)
(3.04425e-08 -1.67362e-06 0)
(3.04065e-08 -1.67786e-06 0)
(3.03705e-08 -1.68215e-06 0)
(3.03343e-08 -1.68645e-06 0)
(3.02979e-08 -1.69075e-06 0)
(3.02613e-08 -1.69504e-06 0)
(3.02246e-08 -1.69934e-06 0)
(3.01877e-08 -1.70365e-06 0)
(3.01506e-08 -1.70797e-06 0)
(3.01134e-08 -1.71228e-06 0)
(3.0076e-08 -1.71661e-06 0)
(3.00383e-08 -1.72093e-06 0)
(3.00006e-08 -1.72527e-06 0)
(2.99626e-08 -1.7296e-06 0)
(2.99245e-08 -1.73395e-06 0)
(2.98861e-08 -1.73829e-06 0)
(2.98476e-08 -1.74264e-06 0)
(2.98089e-08 -1.747e-06 0)
(2.97701e-08 -1.75136e-06 0)
(2.9731e-08 -1.75572e-06 0)
(2.96918e-08 -1.76009e-06 0)
(2.96524e-08 -1.76447e-06 0)
(2.96128e-08 -1.76885e-06 0)
(2.9573e-08 -1.77323e-06 0)
(2.9533e-08 -1.77762e-06 0)
(2.94928e-08 -1.78201e-06 0)
(2.94525e-08 -1.7864e-06 0)
(2.9412e-08 -1.7908e-06 0)
(2.93713e-08 -1.79521e-06 0)
(2.93304e-08 -1.79962e-06 0)
(2.92893e-08 -1.80403e-06 0)
(2.9248e-08 -1.80845e-06 0)
(2.92065e-08 -1.81287e-06 0)
(2.91649e-08 -1.8173e-06 0)
(2.9123e-08 -1.82173e-06 0)
(2.9081e-08 -1.82616e-06 0)
(2.90387e-08 -1.8306e-06 0)
(2.89963e-08 -1.83504e-06 0)
(2.89537e-08 -1.83948e-06 0)
(2.89109e-08 -1.84393e-06 0)
(2.88679e-08 -1.84839e-06 0)
(2.88247e-08 -1.85285e-06 0)
(2.87813e-08 -1.85731e-06 0)
(2.87378e-08 -1.86177e-06 0)
(2.8694e-08 -1.86624e-06 0)
(2.865e-08 -1.87071e-06 0)
(2.86058e-08 -1.87519e-06 0)
(2.85615e-08 -1.87967e-06 0)
(2.85169e-08 -1.88415e-06 0)
(2.84722e-08 -1.88864e-06 0)
(2.84272e-08 -1.89313e-06 0)
(2.83821e-08 -1.89762e-06 0)
(2.83367e-08 -1.90212e-06 0)
(2.82912e-08 -1.90662e-06 0)
(2.82454e-08 -1.91112e-06 0)
(2.81995e-08 -1.91563e-06 0)
(2.81533e-08 -1.92014e-06 0)
(2.8107e-08 -1.92466e-06 0)
(2.80604e-08 -1.92917e-06 0)
(2.80137e-08 -1.93369e-06 0)
(2.79667e-08 -1.93822e-06 0)
(2.79196e-08 -1.94274e-06 0)
(2.78722e-08 -1.94727e-06 0)
(2.78246e-08 -1.9518e-06 0)
(2.77769e-08 -1.95634e-06 0)
(2.77289e-08 -1.96088e-06 0)
(2.76807e-08 -1.96542e-06 0)
(2.76324e-08 -1.96996e-06 0)
(2.75838e-08 -1.97451e-06 0)
(2.7535e-08 -1.97905e-06 0)
(2.7486e-08 -1.98361e-06 0)
(2.74368e-08 -1.98816e-06 0)
(2.73874e-08 -1.99272e-06 0)
(2.73378e-08 -1.99728e-06 0)
(2.7288e-08 -2.00184e-06 0)
(2.7238e-08 -2.0064e-06 0)
(2.71877e-08 -2.01097e-06 0)
(2.71373e-08 -2.01554e-06 0)
(2.70866e-08 -2.02011e-06 0)
(2.70358e-08 -2.02468e-06 0)
(2.69847e-08 -2.02926e-06 0)
(2.69335e-08 -2.03383e-06 0)
(2.6882e-08 -2.03841e-06 0)
(2.68303e-08 -2.04299e-06 0)
(2.67784e-08 -2.04758e-06 0)
(2.67263e-08 -2.05216e-06 0)
(2.6674e-08 -2.05675e-06 0)
(2.66214e-08 -2.06134e-06 0)
(2.65687e-08 -2.06593e-06 0)
(2.65158e-08 -2.07052e-06 0)
(2.64626e-08 -2.07512e-06 0)
(2.64092e-08 -2.07971e-06 0)
(2.63556e-08 -2.08431e-06 0)
(2.63019e-08 -2.08891e-06 0)
(2.62478e-08 -2.09351e-06 0)
(2.61936e-08 -2.09811e-06 0)
(2.61392e-08 -2.10271e-06 0)
(2.60846e-08 -2.10731e-06 0)
(2.60297e-08 -2.11192e-06 0)
(2.59747e-08 -2.11653e-06 0)
(2.59194e-08 -2.12113e-06 0)
(2.58639e-08 -2.12574e-06 0)
(2.58082e-08 -2.13035e-06 0)
(2.57523e-08 -2.13496e-06 0)
(2.56962e-08 -2.13957e-06 0)
(2.56398e-08 -2.14418e-06 0)
(2.55833e-08 -2.1488e-06 0)
(2.55265e-08 -2.15341e-06 0)
(2.54696e-08 -2.15802e-06 0)
(2.54124e-08 -2.16264e-06 0)
(2.5355e-08 -2.16725e-06 0)
(2.52974e-08 -2.17187e-06 0)
(2.52395e-08 -2.17648e-06 0)
(2.51815e-08 -2.1811e-06 0)
(2.51233e-08 -2.18571e-06 0)
(2.50648e-08 -2.19033e-06 0)
(2.50061e-08 -2.19494e-06 0)
(2.49472e-08 -2.19956e-06 0)
(2.48881e-08 -2.20418e-06 0)
(2.48288e-08 -2.20879e-06 0)
(2.47693e-08 -2.21341e-06 0)
(2.47096e-08 -2.21802e-06 0)
(2.46496e-08 -2.22264e-06 0)
(2.45895e-08 -2.22725e-06 0)
(2.45291e-08 -2.23187e-06 0)
(2.44685e-08 -2.23648e-06 0)
(2.44077e-08 -2.24109e-06 0)
(2.43467e-08 -2.24571e-06 0)
(2.42855e-08 -2.25032e-06 0)
(2.42241e-08 -2.25493e-06 0)
(2.41625e-08 -2.25954e-06 0)
(2.41006e-08 -2.26415e-06 0)
(2.40386e-08 -2.26876e-06 0)
(2.39763e-08 -2.27336e-06 0)
(2.39138e-08 -2.27797e-06 0)
(2.38511e-08 -2.28258e-06 0)
(2.37883e-08 -2.28718e-06 0)
(2.37252e-08 -2.29178e-06 0)
(2.36618e-08 -2.29638e-06 0)
(2.35983e-08 -2.30098e-06 0)
(2.35346e-08 -2.30558e-06 0)
(2.34707e-08 -2.31018e-06 0)
(2.34065e-08 -2.31477e-06 0)
(2.33422e-08 -2.31936e-06 0)
(2.32776e-08 -2.32395e-06 0)
(2.32129e-08 -2.32854e-06 0)
(2.31479e-08 -2.33313e-06 0)
(2.30828e-08 -2.33771e-06 0)
(2.30174e-08 -2.3423e-06 0)
(2.29518e-08 -2.34688e-06 0)
(2.28861e-08 -2.35145e-06 0)
(2.28201e-08 -2.35603e-06 0)
(2.27539e-08 -2.3606e-06 0)
(2.26875e-08 -2.36517e-06 0)
(2.26209e-08 -2.36974e-06 0)
(2.25541e-08 -2.37431e-06 0)
(2.24872e-08 -2.37887e-06 0)
(2.242e-08 -2.38343e-06 0)
(2.23526e-08 -2.38798e-06 0)
(2.2285e-08 -2.39254e-06 0)
(2.22172e-08 -2.39709e-06 0)
(2.21493e-08 -2.40164e-06 0)
(2.20811e-08 -2.40618e-06 0)
(2.20127e-08 -2.41072e-06 0)
(2.19442e-08 -2.41526e-06 0)
(2.18754e-08 -2.41979e-06 0)
(2.18065e-08 -2.42432e-06 0)
(2.17373e-08 -2.42885e-06 0)
(2.16681e-08 -2.43337e-06 0)
(2.15983e-08 -2.43789e-06 0)
(2.15301e-08 -2.44238e-06 0)
(2.14644e-08 -2.44666e-06 0)
(2.14e-08 -2.45072e-06 0)
(2.13365e-08 -2.45475e-06 0)
(2.12725e-08 -2.45882e-06 0)
(2.12079e-08 -2.46294e-06 0)
(2.11425e-08 -2.46709e-06 0)
(2.10765e-08 -2.47128e-06 0)
(2.10097e-08 -2.47549e-06 0)
(2.09421e-08 -2.47974e-06 0)
(2.08739e-08 -2.48401e-06 0)
(2.08048e-08 -2.48832e-06 0)
(2.0735e-08 -2.49267e-06 0)
(2.06645e-08 -2.49704e-06 0)
(2.05931e-08 -2.50145e-06 0)
(2.0521e-08 -2.50589e-06 0)
(2.04481e-08 -2.51036e-06 0)
(2.03743e-08 -2.51487e-06 0)
(2.02998e-08 -2.51941e-06 0)
(2.02245e-08 -2.52398e-06 0)
(2.01483e-08 -2.52858e-06 0)
(2.00713e-08 -2.53321e-06 0)
(1.99935e-08 -2.53788e-06 0)
(1.99149e-08 -2.54258e-06 0)
(1.98354e-08 -2.54731e-06 0)
(1.9755e-08 -2.55207e-06 0)
(1.96738e-08 -2.55687e-06 0)
(1.95917e-08 -2.5617e-06 0)
(1.95088e-08 -2.56656e-06 0)
(1.94249e-08 -2.57145e-06 0)
(1.93402e-08 -2.57637e-06 0)
(1.92546e-08 -2.58133e-06 0)
(1.91681e-08 -2.58631e-06 0)
(1.90806e-08 -2.59133e-06 0)
(1.89923e-08 -2.59638e-06 0)
(1.8903e-08 -2.60146e-06 0)
(1.88128e-08 -2.60657e-06 0)
(1.87217e-08 -2.61171e-06 0)
(1.86296e-08 -2.61688e-06 0)
(1.85366e-08 -2.62209e-06 0)
(1.84426e-08 -2.62732e-06 0)
(1.83476e-08 -2.63258e-06 0)
(1.82517e-08 -2.63787e-06 0)
(1.81549e-08 -2.64319e-06 0)
(1.8057e-08 -2.64854e-06 0)
(1.79582e-08 -2.65392e-06 0)
(1.78584e-08 -2.65933e-06 0)
(1.77575e-08 -2.66476e-06 0)
(1.76557e-08 -2.67023e-06 0)
(1.75529e-08 -2.67572e-06 0)
(1.74491e-08 -2.68124e-06 0)
(1.73443e-08 -2.68678e-06 0)
(1.72384e-08 -2.69235e-06 0)
(1.71315e-08 -2.69795e-06 0)
(1.70237e-08 -2.70357e-06 0)
(1.69147e-08 -2.70922e-06 0)
(1.68048e-08 -2.71489e-06 0)
(1.66938e-08 -2.72058e-06 0)
(1.65818e-08 -2.7263e-06 0)
(1.64687e-08 -2.73204e-06 0)
(1.63546e-08 -2.73781e-06 0)
(1.62395e-08 -2.74359e-06 0)
(1.61233e-08 -2.7494e-06 0)
(1.60061e-08 -2.75523e-06 0)
(1.58878e-08 -2.76108e-06 0)
(1.57684e-08 -2.76695e-06 0)
(1.56481e-08 -2.77283e-06 0)
(1.55266e-08 -2.77874e-06 0)
(1.54042e-08 -2.78466e-06 0)
(1.52806e-08 -2.7906e-06 0)
(1.51561e-08 -2.79655e-06 0)
(1.50305e-08 -2.80252e-06 0)
(1.49038e-08 -2.80851e-06 0)
(1.47761e-08 -2.8145e-06 0)
(1.46474e-08 -2.82052e-06 0)
(1.45176e-08 -2.82654e-06 0)
(1.43868e-08 -2.83257e-06 0)
(1.4255e-08 -2.83861e-06 0)
(1.41221e-08 -2.84467e-06 0)
(1.39882e-08 -2.85073e-06 0)
(1.38534e-08 -2.8568e-06 0)
(1.37175e-08 -2.86287e-06 0)
(1.35806e-08 -2.86895e-06 0)
(1.34427e-08 -2.87503e-06 0)
(1.33039e-08 -2.88112e-06 0)
(1.31641e-08 -2.88721e-06 0)
(1.30233e-08 -2.8933e-06 0)
(1.28816e-08 -2.89939e-06 0)
(1.27389e-08 -2.90548e-06 0)
(1.25953e-08 -2.91156e-06 0)
(1.24508e-08 -2.91764e-06 0)
(1.23053e-08 -2.92372e-06 0)
(1.2159e-08 -2.92979e-06 0)
(1.20118e-08 -2.93585e-06 0)
(1.18637e-08 -2.9419e-06 0)
(1.17148e-08 -2.94794e-06 0)
(1.15651e-08 -2.95397e-06 0)
(1.14145e-08 -2.95999e-06 0)
(1.12632e-08 -2.96599e-06 0)
(1.1111e-08 -2.97198e-06 0)
(1.09581e-08 -2.97795e-06 0)
(1.08045e-08 -2.9839e-06 0)
(1.06502e-08 -2.98983e-06 0)
(1.04951e-08 -2.99573e-06 0)
(1.03394e-08 -3.00162e-06 0)
(1.0183e-08 -3.00747e-06 0)
(1.0026e-08 -3.0133e-06 0)
(9.86846e-09 -3.01911e-06 0)
(9.7103e-09 -3.02488e-06 0)
(9.5516e-09 -3.03062e-06 0)
(9.39238e-09 -3.03633e-06 0)
(9.23267e-09 -3.042e-06 0)
(9.0725e-09 -3.04763e-06 0)
(8.9119e-09 -3.05323e-06 0)
(8.75091e-09 -3.05878e-06 0)
(8.58955e-09 -3.0643e-06 0)
(8.42786e-09 -3.06977e-06 0)
(8.26587e-09 -3.07519e-06 0)
(8.10362e-09 -3.08056e-06 0)
(7.94114e-09 -3.08589e-06 0)
(7.77847e-09 -3.09116e-06 0)
(7.61565e-09 -3.09638e-06 0)
(7.45271e-09 -3.10155e-06 0)
(7.2897e-09 -3.10666e-06 0)
(7.12665e-09 -3.11171e-06 0)
(6.9636e-09 -3.1167e-06 0)
(6.8006e-09 -3.12162e-06 0)
(6.63769e-09 -3.12648e-06 0)
(6.47491e-09 -3.13128e-06 0)
(6.3123e-09 -3.136e-06 0)
(6.14991e-09 -3.14066e-06 0)
(5.98779e-09 -3.14524e-06 0)
(5.82597e-09 -3.14975e-06 0)
(5.66451e-09 -3.15418e-06 0)
(5.50344e-09 -3.15854e-06 0)
(5.34283e-09 -3.16282e-06 0)
(5.18272e-09 -3.16701e-06 0)
(5.02314e-09 -3.17112e-06 0)
(4.86417e-09 -3.17514e-06 0)
(4.70583e-09 -3.17908e-06 0)
(4.54819e-09 -3.18293e-06 0)
(4.39128e-09 -3.18669e-06 0)
(4.23517e-09 -3.19035e-06 0)
(4.07991e-09 -3.19392e-06 0)
(3.92553e-09 -3.1974e-06 0)
(3.7721e-09 -3.20077e-06 0)
(3.61966e-09 -3.20405e-06 0)
(3.46827e-09 -3.20723e-06 0)
(3.31798e-09 -3.2103e-06 0)
(3.16883e-09 -3.21327e-06 0)
(3.02088e-09 -3.21613e-06 0)
(2.87418e-09 -3.21889e-06 0)
(2.72879e-09 -3.22154e-06 0)
(2.58474e-09 -3.22407e-06 0)
(2.44209e-09 -3.2265e-06 0)
(2.30089e-09 -3.22881e-06 0)
(2.16119e-09 -3.23101e-06 0)
(2.02303e-09 -3.23309e-06 0)
(1.88647e-09 -3.23506e-06 0)
(1.75156e-09 -3.2369e-06 0)
(1.61834e-09 -3.23863e-06 0)
(1.48685e-09 -3.24024e-06 0)
(1.35714e-09 -3.24173e-06 0)
(1.22927e-09 -3.2431e-06 0)
(1.10326e-09 -3.24435e-06 0)
(9.79165e-10 -3.24547e-06 0)
(8.57028e-10 -3.24647e-06 0)
(7.36888e-10 -3.24734e-06 0)
(6.18785e-10 -3.24809e-06 0)
(5.02758e-10 -3.24871e-06 0)
(3.88845e-10 -3.24921e-06 0)
(2.77084e-10 -3.24958e-06 0)
(1.6751e-10 -3.24982e-06 0)
(6.01574e-11 -3.24994e-06 0)
(-4.49394e-11 -3.24993e-06 0)
(-1.47749e-10 -3.2498e-06 0)
(-2.48236e-10 -3.24954e-06 0)
(-3.46385e-10 -3.24915e-06 0)
(-4.421e-10 -3.24864e-06 0)
(-5.3566e-10 -3.248e-06 0)
(-6.2596e-10 -3.24723e-06 0)
(-7.1813e-10 -3.24633e-06 0)
(-8.14241e-10 -3.2452e-06 0)
(-9.10916e-10 -3.2438e-06 0)
(-1.00619e-09 -3.24222e-06 0)
(-1.09696e-09 -3.24049e-06 0)
(-1.18326e-09 -3.23863e-06 0)
(-1.2651e-09 -3.23663e-06 0)
(-1.34257e-09 -3.2345e-06 0)
(-1.41579e-09 -3.23224e-06 0)
(-1.48487e-09 -3.22988e-06 0)
(-1.54994e-09 -3.2274e-06 0)
(-1.61112e-09 -3.22483e-06 0)
(-1.66854e-09 -3.22215e-06 0)
(-1.72231e-09 -3.21939e-06 0)
(-1.77255e-09 -3.21655e-06 0)
(-1.81935e-09 -3.21362e-06 0)
(-1.86283e-09 -3.21063e-06 0)
(-1.9031e-09 -3.20756e-06 0)
(-1.94024e-09 -3.20444e-06 0)
(-1.97437e-09 -3.20125e-06 0)
(-2.00557e-09 -3.19802e-06 0)
(-2.03394e-09 -3.19473e-06 0)
(-2.05956e-09 -3.1914e-06 0)
(-2.08252e-09 -3.18804e-06 0)
(-2.10291e-09 -3.18464e-06 0)
(-2.12079e-09 -3.1812e-06 0)
(-2.13626e-09 -3.17774e-06 0)
(-2.14938e-09 -3.17426e-06 0)
(-2.16022e-09 -3.17076e-06 0)
(-2.16886e-09 -3.16724e-06 0)
(-2.17536e-09 -3.16371e-06 0)
(-2.17979e-09 -3.16018e-06 0)
(-2.1822e-09 -3.15663e-06 0)
(-2.18267e-09 -3.15309e-06 0)
(-2.18124e-09 -3.14955e-06 0)
(-2.17797e-09 -3.146e-06 0)
(-2.17292e-09 -3.14247e-06 0)
(-2.16613e-09 -3.13895e-06 0)
(-2.15767e-09 -3.13544e-06 0)
(-2.14756e-09 -3.13194e-06 0)
(-2.13587e-09 -3.12846e-06 0)
(-2.12264e-09 -3.12501e-06 0)
(-2.10791e-09 -3.12157e-06 0)
(-2.09172e-09 -3.11816e-06 0)
(-2.07411e-09 -3.11478e-06 0)
(-2.05512e-09 -3.11143e-06 0)
(-2.03479e-09 -3.10811e-06 0)
(-2.01316e-09 -3.10482e-06 0)
(-1.99025e-09 -3.10157e-06 0)
(-1.96611e-09 -3.09836e-06 0)
(-1.94077e-09 -3.09518e-06 0)
(-1.91425e-09 -3.09205e-06 0)
(-1.8866e-09 -3.08897e-06 0)
(-1.85784e-09 -3.08593e-06 0)
(-1.82799e-09 -3.08293e-06 0)
(-1.7971e-09 -3.07999e-06 0)
(-1.76519e-09 -3.0771e-06 0)
(-1.73228e-09 -3.07426e-06 0)
(-1.69841e-09 -3.07147e-06 0)
(-1.66359e-09 -3.06874e-06 0)
(-1.62786e-09 -3.06607e-06 0)
(-1.59125e-09 -3.06345e-06 0)
(-1.55377e-09 -3.0609e-06 0)
(-1.51546e-09 -3.0584e-06 0)
(-1.47633e-09 -3.05598e-06 0)
(-1.43642e-09 -3.05361e-06 0)
(-1.39575e-09 -3.05131e-06 0)
(-1.35433e-09 -3.04907e-06 0)
(-1.31221e-09 -3.04691e-06 0)
(-1.2694e-09 -3.04481e-06 0)
(-1.22592e-09 -3.04278e-06 0)
(-1.1818e-09 -3.04082e-06 0)
(-1.13707e-09 -3.03894e-06 0)
(-1.09175e-09 -3.03712e-06 0)
(-1.04586e-09 -3.03538e-06 0)
(-9.99421e-10 -3.03372e-06 0)
(-9.52469e-10 -3.03213e-06 0)
(-9.05021e-10 -3.03062e-06 0)
(-8.57103e-10 -3.02919e-06 0)
(-8.08739e-10 -3.02783e-06 0)
(-7.59954e-10 -3.02655e-06 0)
(-7.10771e-10 -3.02535e-06 0)
(-6.61217e-10 -3.02423e-06 0)
(-6.11314e-10 -3.02319e-06 0)
(-5.6109e-10 -3.02224e-06 0)
(-5.10566e-10 -3.02136e-06 0)
(-4.5977e-10 -3.02058e-06 0)
(-4.08724e-10 -3.01981e-06 0)
(-3.57463e-10 -3.01939e-06 0)
(-3.05983e-10 -3.01814e-06 0)
(-2.54401e-10 -3.01997e-06 0)
(-2.02486e-10 -3.01174e-06 0)
(-1.51063e-10 -3.03597e-06 0)
(-9.81787e-11 -2.94487e-06 0)
(-4.90322e-11 -3.18663e-06 0)
(-1.37394e-11 -2.78318e-06 0)
)
;
    }
    bottomWall
    {
        type            calculated;
        value           nonuniform List<vector> 
449
(
(-48.4945 -0.963566 0)
(-19.7403 -0.00515011 0)
(-14.3404 -0.0011325 0)
(-12.0387 -0.000542685 0)
(-10.6438 -0.000346967 0)
(-9.66965 -0.000247517 0)
(-8.94975 -0.000180966 0)
(-8.42817 -0.000120935 0)
(-8.1185 -4.53369e-05 0)
(-8.11752 9.26537e-05 0)
(-8.76361 0.000272713 0)
(-10.0095 0.000329252 0)
(-11.0463 0.00024129 0)
(-11.6847 0.000142289 0)
(-12.0372 7.78317e-05 0)
(-12.2282 4.04649e-05 0)
(-12.3204 1.71282e-05 0)
(-12.3483 1.19182e-06 0)
(-12.3287 -9.17592e-06 0)
(-12.2835 -1.53422e-05 0)
(-12.2201 -1.94088e-05 0)
(-12.1459 -2.16647e-05 0)
(-12.0661 -2.26845e-05 0)
(-11.9843 -2.29679e-05 0)
(-11.9021 -2.28171e-05 0)
(-11.821 -2.24286e-05 0)
(-11.7412 -2.18892e-05 0)
(-11.6635 -2.12381e-05 0)
(-11.5881 -2.05395e-05 0)
(-11.5151 -1.98265e-05 0)
(-11.4446 -1.91181e-05 0)
(-11.3764 -1.84257e-05 0)
(-11.3105 -1.77567e-05 0)
(-11.2469 -1.71128e-05 0)
(-11.1854 -1.65061e-05 0)
(-11.1259 -1.59374e-05 0)
(-11.0683 -1.53892e-05 0)
(-11.0126 -1.48595e-05 0)
(-10.9586 -1.43556e-05 0)
(-10.9064 -1.38774e-05 0)
(-10.8557 -1.34232e-05 0)
(-10.8066 -1.29927e-05 0)
(-10.7589 -1.2586e-05 0)
(-10.7126 -1.21994e-05 0)
(-10.6676 -1.18314e-05 0)
(-10.6239 -1.14811e-05 0)
(-10.5813 -1.11499e-05 0)
(-10.5398 -1.08325e-05 0)
(-10.4994 -1.05392e-05 0)
(-10.46 -1.02815e-05 0)
(-10.4214 -1.00488e-05 0)
(-10.3835 -9.83009e-06 0)
(-10.3464 -9.61789e-06 0)
(-10.31 -9.40906e-06 0)
(-10.2743 -9.20415e-06 0)
(-10.2393 -9.0014e-06 0)
(-10.205 -8.80326e-06 0)
(-10.1713 -8.61144e-06 0)
(-10.1383 -8.42403e-06 0)
(-10.106 -8.24225e-06 0)
(-10.0743 -8.06697e-06 0)
(-10.0431 -7.89849e-06 0)
(-10.0126 -7.73457e-06 0)
(-9.98258 -7.57472e-06 0)
(-9.95314 -7.41972e-06 0)
(-9.92422 -7.27116e-06 0)
(-9.89581 -7.1276e-06 0)
(-9.86789 -6.98851e-06 0)
(-9.84045 -6.8526e-06 0)
(-9.81348 -6.72501e-06 0)
(-9.78693 -6.60309e-06 0)
(-9.76081 -6.48084e-06 0)
(-9.73511 -6.36101e-06 0)
(-9.70982 -6.24557e-06 0)
(-9.68493 -6.13402e-06 0)
(-9.66042 -6.02411e-06 0)
(-9.6363 -5.9174e-06 0)
(-9.61254 -5.81314e-06 0)
(-9.58915 -5.71185e-06 0)
(-9.56611 -5.61357e-06 0)
(-9.54341 -5.51789e-06 0)
(-9.52104 -5.4249e-06 0)
(-9.499 -5.33461e-06 0)
(-9.47726 -5.24631e-06 0)
(-9.45584 -5.16036e-06 0)
(-9.43471 -5.07719e-06 0)
(-9.41388 -4.99591e-06 0)
(-9.39333 -4.91802e-06 0)
(-9.37304 -4.84165e-06 0)
(-9.35303 -4.76669e-06 0)
(-9.33327 -4.69391e-06 0)
(-9.31377 -4.62215e-06 0)
(-9.29453 -4.55267e-06 0)
(-9.27552 -4.48465e-06 0)
(-9.25676 -4.41748e-06 0)
(-9.23823 -4.35322e-06 0)
(-9.21992 -4.28979e-06 0)
(-9.20184 -4.22768e-06 0)
(-9.18398 -4.16784e-06 0)
(-9.16633 -4.10835e-06 0)
(-9.14889 -4.05334e-06 0)
(-9.13162 -4.00074e-06 0)
(-9.11455 -3.94637e-06 0)
(-9.09767 -3.89322e-06 0)
(-9.08098 -3.84045e-06 0)
(-9.06448 -3.78833e-06 0)
(-9.04816 -3.73859e-06 0)
(-9.03201 -3.68924e-06 0)
(-9.01605 -3.64029e-06 0)
(-9.00025 -3.59367e-06 0)
(-8.98462 -3.5473e-06 0)
(-8.96915 -3.50123e-06 0)
(-8.95385 -3.45747e-06 0)
(-8.9387 -3.41407e-06 0)
(-8.92371 -3.37072e-06 0)
(-8.90887 -3.32944e-06 0)
(-8.89418 -3.28876e-06 0)
(-8.87963 -3.24795e-06 0)
(-8.86523 -3.20875e-06 0)
(-8.85097 -3.17064e-06 0)
(-8.83684 -3.13235e-06 0)
(-8.82285 -3.09507e-06 0)
(-8.80899 -3.05938e-06 0)
(-8.79526 -3.02346e-06 0)
(-8.78166 -2.98785e-06 0)
(-8.76819 -2.95393e-06 0)
(-8.75484 -2.92038e-06 0)
(-8.7416 -2.88679e-06 0)
(-8.72849 -2.85426e-06 0)
(-8.7155 -2.82285e-06 0)
(-8.70261 -2.7913e-06 0)
(-8.68985 -2.76e-06 0)
(-8.67719 -2.73012e-06 0)
(-8.66464 -2.70068e-06 0)
(-8.6522 -2.67102e-06 0)
(-8.63986 -2.64218e-06 0)
(-8.62763 -2.61459e-06 0)
(-8.61549 -2.58679e-06 0)
(-8.60346 -2.55889e-06 0)
(-8.59153 -2.53232e-06 0)
(-8.57969 -2.5065e-06 0)
(-8.56794 -2.48029e-06 0)
(-8.5563 -2.45437e-06 0)
(-8.54474 -2.42966e-06 0)
(-8.53327 -2.40539e-06 0)
(-8.52189 -2.38069e-06 0)
(-8.51061 -2.35737e-06 0)
(-8.4994 -2.33611e-06 0)
(-8.48826 -2.31433e-06 0)
(-8.47721 -2.29143e-06 0)
(-8.46624 -2.26881e-06 0)
(-8.45535 -2.24705e-06 0)
(-8.44454 -2.22551e-06 0)
(-8.43381 -2.20384e-06 0)
(-8.42316 -2.18252e-06 0)
(-8.41259 -2.16201e-06 0)
(-8.40208 -2.14182e-06 0)
(-8.39166 -2.12145e-06 0)
(-8.38131 -2.10129e-06 0)
(-8.37103 -2.0819e-06 0)
(-8.36082 -2.06301e-06 0)
(-8.35068 -2.04387e-06 0)
(-8.34061 -2.02474e-06 0)
(-8.33062 -2.00637e-06 0)
(-8.32068 -1.98864e-06 0)
(-8.31082 -1.97069e-06 0)
(-8.30102 -1.95261e-06 0)
(-8.29128 -1.93512e-06 0)
(-8.28161 -1.91842e-06 0)
(-8.272 -1.90154e-06 0)
(-8.26245 -1.88482e-06 0)
(-8.25296 -1.86797e-06 0)
(-8.24354 -1.84967e-06 0)
(-8.23472 -1.83638e-06 0)
(-8.2264 -1.82486e-06 0)
(-8.21805 -1.80885e-06 0)
(-8.20969 -1.794e-06 0)
(-8.20131 -1.78039e-06 0)
(-8.19289 -1.76667e-06 0)
(-8.18446 -1.75274e-06 0)
(-8.176 -1.73849e-06 0)
(-8.16751 -1.72474e-06 0)
(-8.159 -1.7113e-06 0)
(-8.15047 -1.69793e-06 0)
(-8.14191 -1.68414e-06 0)
(-8.13333 -1.67022e-06 0)
(-8.12473 -1.6568e-06 0)
(-8.1161 -1.64362e-06 0)
(-8.10745 -1.63039e-06 0)
(-8.09877 -1.61687e-06 0)
(-8.09008 -1.60337e-06 0)
(-8.08136 -1.5903e-06 0)
(-8.07262 -1.57739e-06 0)
(-8.06386 -1.5643e-06 0)
(-8.05507 -1.55105e-06 0)
(-8.04627 -1.538e-06 0)
(-8.03745 -1.52524e-06 0)
(-8.0286 -1.51264e-06 0)
(-8.01973 -1.49974e-06 0)
(-8.01084 -1.48674e-06 0)
(-8.00193 -1.47413e-06 0)
(-7.993 -1.46175e-06 0)
(-7.98406 -1.44928e-06 0)
(-7.97509 -1.43665e-06 0)
(-7.9661 -1.42413e-06 0)
(-7.95709 -1.41191e-06 0)
(-7.94807 -1.39986e-06 0)
(-7.93902 -1.38756e-06 0)
(-7.92996 -1.37517e-06 0)
(-7.92088 -1.36316e-06 0)
(-7.91178 -1.35137e-06 0)
(-7.90266 -1.33989e-06 0)
(-7.89352 -1.32888e-06 0)
(-7.88436 -1.31764e-06 0)
(-7.87518 -1.3061e-06 0)
(-7.86597 -1.2945e-06 0)
(-7.85676 -1.28273e-06 0)
(-7.84752 -1.27102e-06 0)
(-7.83828 -1.25964e-06 0)
(-7.82901 -1.24839e-06 0)
(-7.81973 -1.23693e-06 0)
(-7.81043 -1.22543e-06 0)
(-7.80112 -1.21429e-06 0)
(-7.79179 -1.20337e-06 0)
(-7.78245 -1.19222e-06 0)
(-7.7731 -1.18095e-06 0)
(-7.76373 -1.17006e-06 0)
(-7.75434 -1.15942e-06 0)
(-7.74495 -1.14857e-06 0)
(-7.73553 -1.1376e-06 0)
(-7.72611 -1.12696e-06 0)
(-7.71668 -1.11657e-06 0)
(-7.70722 -1.10602e-06 0)
(-7.69776 -1.09534e-06 0)
(-7.68829 -1.08496e-06 0)
(-7.6788 -1.07484e-06 0)
(-7.6693 -1.06457e-06 0)
(-7.6598 -1.05417e-06 0)
(-7.65028 -1.04407e-06 0)
(-7.64075 -1.03422e-06 0)
(-7.6312 -1.02421e-06 0)
(-7.62165 -1.0141e-06 0)
(-7.61209 -1.00428e-06 0)
(-7.60252 -9.94681e-07 0)
(-7.59293 -9.84922e-07 0)
(-7.58334 -9.75091e-07 0)
(-7.57374 -9.65565e-07 0)
(-7.56413 -9.56222e-07 0)
(-7.55451 -9.46704e-07 0)
(-7.54488 -9.37167e-07 0)
(-7.53525 -9.27934e-07 0)
(-7.52561 -9.18818e-07 0)
(-7.51596 -9.09553e-07 0)
(-7.5063 -9.00336e-07 0)
(-7.49664 -8.91383e-07 0)
(-7.48697 -8.82478e-07 0)
(-7.47729 -8.7346e-07 0)
(-7.4676 -8.64558e-07 0)
(-7.45791 -8.55878e-07 0)
(-7.44822 -8.47177e-07 0)
(-7.43852 -8.38408e-07 0)
(-7.42881 -8.29818e-07 0)
(-7.4191 -8.21414e-07 0)
(-7.40939 -8.12925e-07 0)
(-7.39967 -8.0441e-07 0)
(-7.38995 -7.96123e-07 0)
(-7.38022 -7.87937e-07 0)
(-7.37049 -7.79665e-07 0)
(-7.36075 -7.7145e-07 0)
(-7.35102 -7.63444e-07 0)
(-7.34128 -7.55451e-07 0)
(-7.33154 -7.4747e-07 0)
(-7.32179 -7.40065e-07 0)
(-7.31204 -7.32833e-07 0)
(-7.30227 -7.25097e-07 0)
(-7.29251 -7.17263e-07 0)
(-7.28275 -7.09632e-07 0)
(-7.27299 -7.02089e-07 0)
(-7.26322 -6.94577e-07 0)
(-7.25346 -6.87154e-07 0)
(-7.24369 -6.79815e-07 0)
(-7.23393 -6.72448e-07 0)
(-7.22416 -6.65053e-07 0)
(-7.2144 -6.57802e-07 0)
(-7.20464 -6.50675e-07 0)
(-7.19488 -6.43502e-07 0)
(-7.18513 -6.36364e-07 0)
(-7.17537 -6.29399e-07 0)
(-7.16562 -6.22471e-07 0)
(-7.15587 -6.15503e-07 0)
(-7.14613 -6.08657e-07 0)
(-7.13639 -6.0194e-07 0)
(-7.12665 -5.95188e-07 0)
(-7.11692 -5.88451e-07 0)
(-7.1072 -5.81894e-07 0)
(-7.09747 -5.75363e-07 0)
(-7.08776 -5.68801e-07 0)
(-7.07805 -5.62354e-07 0)
(-7.06834 -5.56037e-07 0)
(-7.05864 -5.49673e-07 0)
(-7.04895 -5.43346e-07 0)
(-7.03926 -5.37186e-07 0)
(-7.02958 -5.31038e-07 0)
(-7.01991 -5.24862e-07 0)
(-7.01025 -5.18827e-07 0)
(-7.00059 -5.12876e-07 0)
(-6.99094 -5.0689e-07 0)
(-6.9813 -5.00965e-07 0)
(-6.97167 -4.95202e-07 0)
(-6.96205 -4.89407e-07 0)
(-6.95244 -4.83613e-07 0)
(-6.94283 -4.77974e-07 0)
(-6.93324 -4.72381e-07 0)
(-6.92366 -4.66757e-07 0)
(-6.91408 -4.6124e-07 0)
(-6.90452 -4.55822e-07 0)
(-6.89497 -4.50382e-07 0)
(-6.88543 -4.44982e-07 0)
(-6.8759 -4.3973e-07 0)
(-6.86638 -4.3447e-07 0)
(-6.85687 -4.29215e-07 0)
(-6.84738 -4.2409e-07 0)
(-6.83789 -4.19012e-07 0)
(-6.82842 -4.13918e-07 0)
(-6.81897 -4.08919e-07 0)
(-6.80952 -4.04007e-07 0)
(-6.80009 -3.99083e-07 0)
(-6.79067 -3.94206e-07 0)
(-6.78127 -3.89453e-07 0)
(-6.77188 -3.84925e-07 0)
(-6.76249 -3.80444e-07 0)
(-6.75311 -3.75856e-07 0)
(-6.74375 -3.71284e-07 0)
(-6.7344 -3.66716e-07 0)
(-6.72507 -3.62225e-07 0)
(-6.71575 -3.57771e-07 0)
(-6.70645 -3.53315e-07 0)
(-6.69716 -3.4892e-07 0)
(-6.68789 -3.44617e-07 0)
(-6.67863 -3.40307e-07 0)
(-6.66939 -3.36036e-07 0)
(-6.66016 -3.31866e-07 0)
(-6.65096 -3.27709e-07 0)
(-6.64176 -3.23565e-07 0)
(-6.63259 -3.19518e-07 0)
(-6.62343 -3.155e-07 0)
(-6.61429 -3.11498e-07 0)
(-6.60517 -3.07562e-07 0)
(-6.59607 -3.03688e-07 0)
(-6.58697 -2.99797e-07 0)
(-6.57791 -2.96003e-07 0)
(-6.56885 -2.92166e-07 0)
(-6.55983 -2.88495e-07 0)
(-6.55081 -2.8495e-07 0)
(-6.5408 -2.80674e-07 0)
(-6.52991 -2.76115e-07 0)
(-6.51921 -2.71995e-07 0)
(-6.50864 -2.67963e-07 0)
(-6.49825 -2.6394e-07 0)
(-6.488 -2.60057e-07 0)
(-6.47791 -2.56247e-07 0)
(-6.46796 -2.5252e-07 0)
(-6.45816 -2.48907e-07 0)
(-6.44849 -2.4536e-07 0)
(-6.43897 -2.41888e-07 0)
(-6.42957 -2.38526e-07 0)
(-6.42031 -2.35223e-07 0)
(-6.41117 -2.31984e-07 0)
(-6.40217 -2.28856e-07 0)
(-6.39328 -2.25781e-07 0)
(-6.38451 -2.22765e-07 0)
(-6.37585 -2.19847e-07 0)
(-6.36732 -2.16983e-07 0)
(-6.35888 -2.14167e-07 0)
(-6.35057 -2.11437e-07 0)
(-6.34235 -2.08769e-07 0)
(-6.33424 -2.06148e-07 0)
(-6.32623 -2.03598e-07 0)
(-6.31832 -2.01108e-07 0)
(-6.3105 -1.98641e-07 0)
(-6.30278 -1.96222e-07 0)
(-6.29515 -1.93877e-07 0)
(-6.28762 -1.91572e-07 0)
(-6.28017 -1.89295e-07 0)
(-6.27282 -1.87084e-07 0)
(-6.26554 -1.84927e-07 0)
(-6.25836 -1.8285e-07 0)
(-6.25124 -1.80837e-07 0)
(-6.24421 -1.78849e-07 0)
(-6.23725 -1.76871e-07 0)
(-6.23038 -1.74912e-07 0)
(-6.22357 -1.72985e-07 0)
(-6.21685 -1.71115e-07 0)
(-6.21019 -1.69262e-07 0)
(-6.20362 -1.67439e-07 0)
(-6.1971 -1.65652e-07 0)
(-6.19066 -1.63922e-07 0)
(-6.18428 -1.62199e-07 0)
(-6.17798 -1.6051e-07 0)
(-6.17173 -1.58851e-07 0)
(-6.16556 -1.57248e-07 0)
(-6.15943 -1.55648e-07 0)
(-6.15339 -1.54083e-07 0)
(-6.14738 -1.52536e-07 0)
(-6.14146 -1.51048e-07 0)
(-6.13557 -1.49555e-07 0)
(-6.12976 -1.48104e-07 0)
(-6.12399 -1.4665e-07 0)
(-6.11829 -1.45267e-07 0)
(-6.11263 -1.43872e-07 0)
(-6.10704 -1.42531e-07 0)
(-6.10148 -1.41161e-07 0)
(-6.096 -1.39876e-07 0)
(-6.09054 -1.38572e-07 0)
(-6.08517 -1.37335e-07 0)
(-6.0798 -1.36044e-07 0)
(-6.07453 -1.34859e-07 0)
(-6.06926 -1.33626e-07 0)
(-6.06408 -1.325e-07 0)
(-6.0589 -1.31289e-07 0)
(-6.05381 -1.3019e-07 0)
(-6.04872 -1.29016e-07 0)
(-6.04372 -1.27984e-07 0)
(-6.03871 -1.26842e-07 0)
(-6.03381 -1.25843e-07 0)
(-6.02887 -1.2472e-07 0)
(-6.02405 -1.23777e-07 0)
(-6.01919 -1.22698e-07 0)
(-6.01446 -1.21803e-07 0)
(-6.00966 -1.20735e-07 0)
(-6.00502 -1.1988e-07 0)
(-6.00029 -1.18849e-07 0)
(-5.99572 -1.1806e-07 0)
(-5.99106 -1.17062e-07 0)
(-5.98657 -1.16316e-07 0)
(-5.98196 -1.1536e-07 0)
(-5.97755 -1.14664e-07 0)
(-5.973 -1.13835e-07 0)
(-5.96865 -1.13089e-07 0)
(-5.96415 -1.12656e-07 0)
(-5.95984 -1.11293e-07 0)
(-5.95545 -1.12519e-07 0)
(-5.95103 -1.08176e-07 0)
(-5.947 -1.15981e-07 0)
(-5.94194 -9.92705e-08 0)
(-5.93928 -1.28896e-07 0)
(-5.93178 -7.8104e-08 0)
(-5.93333 -1.07499e-07 0)
(-5.9231 -1.35686e-07 0)
)
;
    }
    symmetry
    {
        type            symmetryPlane;
    }
    frontAndBack
    {
        type            empty;
    }
}


// ************************************************************************* //
