/*--------------------------------*- C++ -*----------------------------------*\
| =========                 |                                                 |
| \\      /  F ield         | OpenFOAM: The Open Source CFD Toolbox           |
|  \\    /   O peration     | Version:  v2012                                 |
|   \\  /    A nd           | Website:  www.openfoam.com                      |
|    \\/     M anipulation  |                                                 |
\*---------------------------------------------------------------------------*/
FoamFile
{
    version     2.0;
    format      ascii;
    class       volVectorField;
    location    "19.5";
    object      wallShearStress;
}
// * * * * * * * * * * * * * * * * * * * * * * * * * * * * * * * * * * * * * //

dimensions      [0 2 -2 0 0 0 0];


internalField   uniform (0 0 0);

boundaryField
{
    inlet
    {
        type            calculated;
        value           uniform (0 0 0);
    }
    outlet
    {
        type            calculated;
        value           uniform (0 0 0);
    }
    topWall
    {
        type            calculated;
        value           nonuniform List<vector> 
545
(
(1.45719e-08 -1.02559e-08 0)
(1.45661e-08 -2.86981e-08 0)
(1.45497e-08 -4.78686e-08 0)
(1.45286e-08 -6.64756e-08 0)
(1.45021e-08 -8.4277e-08 0)
(1.44706e-08 -1.01499e-07 0)
(1.44345e-08 -1.18288e-07 0)
(1.4394e-08 -1.34634e-07 0)
(1.43496e-08 -1.505e-07 0)
(1.43016e-08 -1.65884e-07 0)
(1.42505e-08 -1.80807e-07 0)
(1.41966e-08 -1.95285e-07 0)
(1.41401e-08 -2.09329e-07 0)
(1.40813e-08 -2.22946e-07 0)
(1.40206e-08 -2.36148e-07 0)
(1.39582e-08 -2.48946e-07 0)
(1.38943e-08 -2.61349e-07 0)
(1.38292e-08 -2.7337e-07 0)
(1.3763e-08 -2.85018e-07 0)
(1.36959e-08 -2.96305e-07 0)
(1.36282e-08 -3.07239e-07 0)
(1.35599e-08 -3.17833e-07 0)
(1.34913e-08 -3.28095e-07 0)
(1.34225e-08 -3.38036e-07 0)
(1.33535e-08 -3.47665e-07 0)
(1.32846e-08 -3.56991e-07 0)
(1.32158e-08 -3.66025e-07 0)
(1.31472e-08 -3.74775e-07 0)
(1.30789e-08 -3.83251e-07 0)
(1.3011e-08 -3.91459e-07 0)
(1.29436e-08 -3.9941e-07 0)
(1.28767e-08 -4.07112e-07 0)
(1.28104e-08 -4.14571e-07 0)
(1.27447e-08 -4.21796e-07 0)
(1.26798e-08 -4.28795e-07 0)
(1.26156e-08 -4.35575e-07 0)
(1.25522e-08 -4.42143e-07 0)
(1.24896e-08 -4.48506e-07 0)
(1.24278e-08 -4.5467e-07 0)
(1.2367e-08 -4.60642e-07 0)
(1.2307e-08 -4.66428e-07 0)
(1.22479e-08 -4.72034e-07 0)
(1.21898e-08 -4.77466e-07 0)
(1.21326e-08 -4.82731e-07 0)
(1.20763e-08 -4.87832e-07 0)
(1.20211e-08 -4.92776e-07 0)
(1.19667e-08 -4.97568e-07 0)
(1.19134e-08 -5.02213e-07 0)
(1.1861e-08 -5.06715e-07 0)
(1.18096e-08 -5.11079e-07 0)
(1.17592e-08 -5.1531e-07 0)
(1.17097e-08 -5.19412e-07 0)
(1.16612e-08 -5.23389e-07 0)
(1.16137e-08 -5.27246e-07 0)
(1.1567e-08 -5.30985e-07 0)
(1.15214e-08 -5.34611e-07 0)
(1.14767e-08 -5.38128e-07 0)
(1.14328e-08 -5.41539e-07 0)
(1.13899e-08 -5.44848e-07 0)
(1.1348e-08 -5.48057e-07 0)
(1.13068e-08 -5.5117e-07 0)
(1.12666e-08 -5.5419e-07 0)
(1.12272e-08 -5.5712e-07 0)
(1.11887e-08 -5.59963e-07 0)
(1.11511e-08 -5.62722e-07 0)
(1.11142e-08 -5.65399e-07 0)
(1.10782e-08 -5.67997e-07 0)
(1.10429e-08 -5.70518e-07 0)
(1.10085e-08 -5.72965e-07 0)
(1.09748e-08 -5.7534e-07 0)
(1.09419e-08 -5.77647e-07 0)
(1.09096e-08 -5.79881e-07 0)
(1.08784e-08 -5.82029e-07 0)
(1.08481e-08 -5.84112e-07 0)
(1.08182e-08 -5.86167e-07 0)
(1.07884e-08 -5.8821e-07 0)
(1.07587e-08 -5.90242e-07 0)
(1.07291e-08 -5.92259e-07 0)
(1.06994e-08 -5.94261e-07 0)
(1.06699e-08 -5.96247e-07 0)
(1.06404e-08 -5.98219e-07 0)
(1.0611e-08 -6.00177e-07 0)
(1.05816e-08 -6.02121e-07 0)
(1.05523e-08 -6.0405e-07 0)
(1.0523e-08 -6.05965e-07 0)
(1.04938e-08 -6.07866e-07 0)
(1.04647e-08 -6.09753e-07 0)
(1.04357e-08 -6.11627e-07 0)
(1.04067e-08 -6.13486e-07 0)
(1.03777e-08 -6.15332e-07 0)
(1.03489e-08 -6.17164e-07 0)
(1.03201e-08 -6.18983e-07 0)
(1.02914e-08 -6.20789e-07 0)
(1.02626e-08 -6.22579e-07 0)
(1.02343e-08 -6.24369e-07 0)
(1.02048e-08 -6.26109e-07 0)
(1.01765e-08 -6.27704e-07 0)
(1.01521e-08 -6.29167e-07 0)
(1.01286e-08 -6.30573e-07 0)
(1.01052e-08 -6.31983e-07 0)
(1.00819e-08 -6.33407e-07 0)
(1.00584e-08 -6.34835e-07 0)
(1.00349e-08 -6.3626e-07 0)
(1.00113e-08 -6.37683e-07 0)
(9.98758e-09 -6.39107e-07 0)
(9.96378e-09 -6.4053e-07 0)
(9.93988e-09 -6.41954e-07 0)
(9.9159e-09 -6.43378e-07 0)
(9.89181e-09 -6.44801e-07 0)
(9.86764e-09 -6.46225e-07 0)
(9.84337e-09 -6.47648e-07 0)
(9.81901e-09 -6.49071e-07 0)
(9.79456e-09 -6.50494e-07 0)
(9.77001e-09 -6.51917e-07 0)
(9.74537e-09 -6.53339e-07 0)
(9.72064e-09 -6.54761e-07 0)
(9.69581e-09 -6.56183e-07 0)
(9.67089e-09 -6.57605e-07 0)
(9.64587e-09 -6.59026e-07 0)
(9.62076e-09 -6.60447e-07 0)
(9.59556e-09 -6.61868e-07 0)
(9.57027e-09 -6.63288e-07 0)
(9.54488e-09 -6.64708e-07 0)
(9.51939e-09 -6.66127e-07 0)
(9.49381e-09 -6.67546e-07 0)
(9.46814e-09 -6.68964e-07 0)
(9.44238e-09 -6.70382e-07 0)
(9.41652e-09 -6.718e-07 0)
(9.39057e-09 -6.73216e-07 0)
(9.36452e-09 -6.74633e-07 0)
(9.33838e-09 -6.76048e-07 0)
(9.31214e-09 -6.77463e-07 0)
(9.28581e-09 -6.78878e-07 0)
(9.25939e-09 -6.80291e-07 0)
(9.23287e-09 -6.81704e-07 0)
(9.20626e-09 -6.83116e-07 0)
(9.17955e-09 -6.84528e-07 0)
(9.15275e-09 -6.85938e-07 0)
(9.12585e-09 -6.87348e-07 0)
(9.09887e-09 -6.88757e-07 0)
(9.07178e-09 -6.90165e-07 0)
(9.04461e-09 -6.91572e-07 0)
(9.01733e-09 -6.92979e-07 0)
(8.98997e-09 -6.94384e-07 0)
(8.96251e-09 -6.95788e-07 0)
(8.93496e-09 -6.97192e-07 0)
(8.90731e-09 -6.98594e-07 0)
(8.87957e-09 -6.99995e-07 0)
(8.85174e-09 -7.01396e-07 0)
(8.82381e-09 -7.02795e-07 0)
(8.79579e-09 -7.04193e-07 0)
(8.76767e-09 -7.05589e-07 0)
(8.73947e-09 -7.06985e-07 0)
(8.71116e-09 -7.08379e-07 0)
(8.68277e-09 -7.09772e-07 0)
(8.65428e-09 -7.11164e-07 0)
(8.6257e-09 -7.12555e-07 0)
(8.59703e-09 -7.13944e-07 0)
(8.56826e-09 -7.15332e-07 0)
(8.5394e-09 -7.16718e-07 0)
(8.51045e-09 -7.18103e-07 0)
(8.4814e-09 -7.19487e-07 0)
(8.45226e-09 -7.20869e-07 0)
(8.42303e-09 -7.22249e-07 0)
(8.39371e-09 -7.23628e-07 0)
(8.3643e-09 -7.25006e-07 0)
(8.33479e-09 -7.26381e-07 0)
(8.3052e-09 -7.27755e-07 0)
(8.27551e-09 -7.29128e-07 0)
(8.24573e-09 -7.30499e-07 0)
(8.21586e-09 -7.31868e-07 0)
(8.1859e-09 -7.33235e-07 0)
(8.15584e-09 -7.34601e-07 0)
(8.1257e-09 -7.35964e-07 0)
(8.09547e-09 -7.37326e-07 0)
(8.06514e-09 -7.38686e-07 0)
(8.03473e-09 -7.40044e-07 0)
(8.00423e-09 -7.414e-07 0)
(7.97363e-09 -7.42754e-07 0)
(7.94295e-09 -7.44106e-07 0)
(7.91218e-09 -7.45456e-07 0)
(7.88132e-09 -7.46804e-07 0)
(7.85037e-09 -7.4815e-07 0)
(7.81933e-09 -7.49494e-07 0)
(7.78821e-09 -7.50835e-07 0)
(7.757e-09 -7.52175e-07 0)
(7.7257e-09 -7.53512e-07 0)
(7.69431e-09 -7.54847e-07 0)
(7.66283e-09 -7.56179e-07 0)
(7.63127e-09 -7.57509e-07 0)
(7.59963e-09 -7.58837e-07 0)
(7.56789e-09 -7.60162e-07 0)
(7.53607e-09 -7.61485e-07 0)
(7.50417e-09 -7.62806e-07 0)
(7.47218e-09 -7.64124e-07 0)
(7.44011e-09 -7.65439e-07 0)
(7.40795e-09 -7.66752e-07 0)
(7.3757e-09 -7.68062e-07 0)
(7.34338e-09 -7.6937e-07 0)
(7.31097e-09 -7.70675e-07 0)
(7.27848e-09 -7.71977e-07 0)
(7.2459e-09 -7.73276e-07 0)
(7.21324e-09 -7.74573e-07 0)
(7.1805e-09 -7.75867e-07 0)
(7.14768e-09 -7.77158e-07 0)
(7.11478e-09 -7.78446e-07 0)
(7.0818e-09 -7.79731e-07 0)
(7.04874e-09 -7.81013e-07 0)
(7.0156e-09 -7.82292e-07 0)
(6.98238e-09 -7.83568e-07 0)
(6.94908e-09 -7.84841e-07 0)
(6.9157e-09 -7.86111e-07 0)
(6.88224e-09 -7.87378e-07 0)
(6.84871e-09 -7.88642e-07 0)
(6.8151e-09 -7.89902e-07 0)
(6.78141e-09 -7.91159e-07 0)
(6.74765e-09 -7.92413e-07 0)
(6.71381e-09 -7.93664e-07 0)
(6.67989e-09 -7.94911e-07 0)
(6.64591e-09 -7.96154e-07 0)
(6.61184e-09 -7.97395e-07 0)
(6.57771e-09 -7.98632e-07 0)
(6.5435e-09 -7.99865e-07 0)
(6.50922e-09 -8.01095e-07 0)
(6.47487e-09 -8.02321e-07 0)
(6.44044e-09 -8.03544e-07 0)
(6.40595e-09 -8.04763e-07 0)
(6.37138e-09 -8.05978e-07 0)
(6.33675e-09 -8.07189e-07 0)
(6.30205e-09 -8.08397e-07 0)
(6.26727e-09 -8.09601e-07 0)
(6.23243e-09 -8.10801e-07 0)
(6.19753e-09 -8.11997e-07 0)
(6.16256e-09 -8.1319e-07 0)
(6.12752e-09 -8.14378e-07 0)
(6.09241e-09 -8.15562e-07 0)
(6.05725e-09 -8.16742e-07 0)
(6.02201e-09 -8.17919e-07 0)
(5.98672e-09 -8.19091e-07 0)
(5.95136e-09 -8.20259e-07 0)
(5.91594e-09 -8.21422e-07 0)
(5.88046e-09 -8.22582e-07 0)
(5.84492e-09 -8.23737e-07 0)
(5.80932e-09 -8.24888e-07 0)
(5.77366e-09 -8.26035e-07 0)
(5.73794e-09 -8.27177e-07 0)
(5.70216e-09 -8.28315e-07 0)
(5.66633e-09 -8.29448e-07 0)
(5.63044e-09 -8.30577e-07 0)
(5.5945e-09 -8.31701e-07 0)
(5.5585e-09 -8.32821e-07 0)
(5.52245e-09 -8.33936e-07 0)
(5.48634e-09 -8.35047e-07 0)
(5.45018e-09 -8.36152e-07 0)
(5.41397e-09 -8.37253e-07 0)
(5.37771e-09 -8.3835e-07 0)
(5.3414e-09 -8.39441e-07 0)
(5.30504e-09 -8.40528e-07 0)
(5.26864e-09 -8.41609e-07 0)
(5.23218e-09 -8.42686e-07 0)
(5.19568e-09 -8.43758e-07 0)
(5.15914e-09 -8.44825e-07 0)
(5.12255e-09 -8.45887e-07 0)
(5.08591e-09 -8.46943e-07 0)
(5.04923e-09 -8.47995e-07 0)
(5.01252e-09 -8.49042e-07 0)
(4.97573e-09 -8.50081e-07 0)
(4.93908e-09 -8.51126e-07 0)
(4.90161e-09 -8.5214e-07 0)
(4.86512e-09 -8.53106e-07 0)
(4.83125e-09 -8.5404e-07 0)
(4.79798e-09 -8.54947e-07 0)
(4.76461e-09 -8.55857e-07 0)
(4.73097e-09 -8.56777e-07 0)
(4.69701e-09 -8.57704e-07 0)
(4.66273e-09 -8.58632e-07 0)
(4.62812e-09 -8.59563e-07 0)
(4.59318e-09 -8.60496e-07 0)
(4.55791e-09 -8.61433e-07 0)
(4.5223e-09 -8.62372e-07 0)
(4.48635e-09 -8.63315e-07 0)
(4.45007e-09 -8.6426e-07 0)
(4.41345e-09 -8.65207e-07 0)
(4.37648e-09 -8.66157e-07 0)
(4.33917e-09 -8.67109e-07 0)
(4.30152e-09 -8.68063e-07 0)
(4.26353e-09 -8.69018e-07 0)
(4.22518e-09 -8.69976e-07 0)
(4.18649e-09 -8.70935e-07 0)
(4.14745e-09 -8.71896e-07 0)
(4.10806e-09 -8.72858e-07 0)
(4.06831e-09 -8.73821e-07 0)
(4.02822e-09 -8.74785e-07 0)
(3.98777e-09 -8.7575e-07 0)
(3.94696e-09 -8.76716e-07 0)
(3.9058e-09 -8.77682e-07 0)
(3.86429e-09 -8.78648e-07 0)
(3.82241e-09 -8.79614e-07 0)
(3.78018e-09 -8.8058e-07 0)
(3.7376e-09 -8.81545e-07 0)
(3.69465e-09 -8.8251e-07 0)
(3.65135e-09 -8.83474e-07 0)
(3.60769e-09 -8.84437e-07 0)
(3.56367e-09 -8.85399e-07 0)
(3.51929e-09 -8.86359e-07 0)
(3.47456e-09 -8.87317e-07 0)
(3.42947e-09 -8.88273e-07 0)
(3.38402e-09 -8.89227e-07 0)
(3.33821e-09 -8.90179e-07 0)
(3.29205e-09 -8.91127e-07 0)
(3.24553e-09 -8.92073e-07 0)
(3.19866e-09 -8.93015e-07 0)
(3.15144e-09 -8.93953e-07 0)
(3.10386e-09 -8.94888e-07 0)
(3.05593e-09 -8.95818e-07 0)
(3.00766e-09 -8.96743e-07 0)
(2.95904e-09 -8.97664e-07 0)
(2.91007e-09 -8.98579e-07 0)
(2.86076e-09 -8.99489e-07 0)
(2.81111e-09 -9.00393e-07 0)
(2.76112e-09 -9.01291e-07 0)
(2.71079e-09 -9.02182e-07 0)
(2.66013e-09 -9.03066e-07 0)
(2.60915e-09 -9.03943e-07 0)
(2.55783e-09 -9.04812e-07 0)
(2.50619e-09 -9.05673e-07 0)
(2.45423e-09 -9.06525e-07 0)
(2.40196e-09 -9.07369e-07 0)
(2.34937e-09 -9.08203e-07 0)
(2.29648e-09 -9.09028e-07 0)
(2.24328e-09 -9.09843e-07 0)
(2.18978e-09 -9.10647e-07 0)
(2.13599e-09 -9.1144e-07 0)
(2.08191e-09 -9.12222e-07 0)
(2.02755e-09 -9.12991e-07 0)
(1.97291e-09 -9.13749e-07 0)
(1.918e-09 -9.14494e-07 0)
(1.86283e-09 -9.15225e-07 0)
(1.8074e-09 -9.15943e-07 0)
(1.75171e-09 -9.16647e-07 0)
(1.69578e-09 -9.17335e-07 0)
(1.63961e-09 -9.18009e-07 0)
(1.58322e-09 -9.18667e-07 0)
(1.5266e-09 -9.19309e-07 0)
(1.46977e-09 -9.19934e-07 0)
(1.41273e-09 -9.20542e-07 0)
(1.3555e-09 -9.21131e-07 0)
(1.29808e-09 -9.21703e-07 0)
(1.24048e-09 -9.22256e-07 0)
(1.18271e-09 -9.22789e-07 0)
(1.12479e-09 -9.23302e-07 0)
(1.06672e-09 -9.23795e-07 0)
(1.00851e-09 -9.24266e-07 0)
(9.50182e-10 -9.24716e-07 0)
(8.91736e-10 -9.25143e-07 0)
(8.33187e-10 -9.25548e-07 0)
(7.74548e-10 -9.25929e-07 0)
(7.15832e-10 -9.26286e-07 0)
(6.5705e-10 -9.26618e-07 0)
(5.98216e-10 -9.26925e-07 0)
(5.39344e-10 -9.27206e-07 0)
(4.80446e-10 -9.27461e-07 0)
(4.21538e-10 -9.27688e-07 0)
(3.62634e-10 -9.27888e-07 0)
(3.03748e-10 -9.28059e-07 0)
(2.44895e-10 -9.28201e-07 0)
(1.86092e-10 -9.28313e-07 0)
(1.27353e-10 -9.28396e-07 0)
(6.86948e-11 -9.28447e-07 0)
(1.01339e-11 -9.28467e-07 0)
(-4.83132e-11 -9.28454e-07 0)
(-1.06629e-10 -9.28409e-07 0)
(-1.64797e-10 -9.2833e-07 0)
(-2.22799e-10 -9.28218e-07 0)
(-2.80617e-10 -9.2807e-07 0)
(-3.38233e-10 -9.27887e-07 0)
(-3.95629e-10 -9.27669e-07 0)
(-4.52785e-10 -9.27413e-07 0)
(-5.09683e-10 -9.27121e-07 0)
(-5.66303e-10 -9.2679e-07 0)
(-6.22626e-10 -9.26422e-07 0)
(-6.78632e-10 -9.26014e-07 0)
(-7.34301e-10 -9.25566e-07 0)
(-7.89614e-10 -9.25079e-07 0)
(-8.44548e-10 -9.2455e-07 0)
(-8.99085e-10 -9.2398e-07 0)
(-9.53203e-10 -9.23369e-07 0)
(-1.00688e-09 -9.22714e-07 0)
(-1.0601e-09 -9.22017e-07 0)
(-1.11284e-09 -9.21276e-07 0)
(-1.16507e-09 -9.20491e-07 0)
(-1.21678e-09 -9.19661e-07 0)
(-1.26794e-09 -9.18786e-07 0)
(-1.31854e-09 -9.17866e-07 0)
(-1.36855e-09 -9.16899e-07 0)
(-1.41795e-09 -9.15886e-07 0)
(-1.46672e-09 -9.14826e-07 0)
(-1.51484e-09 -9.13719e-07 0)
(-1.56228e-09 -9.12563e-07 0)
(-1.60903e-09 -9.1136e-07 0)
(-1.65507e-09 -9.10108e-07 0)
(-1.70036e-09 -9.08807e-07 0)
(-1.74491e-09 -9.07456e-07 0)
(-1.78867e-09 -9.06056e-07 0)
(-1.83164e-09 -9.04606e-07 0)
(-1.87378e-09 -9.03107e-07 0)
(-1.91509e-09 -9.01556e-07 0)
(-1.95555e-09 -8.99955e-07 0)
(-1.99512e-09 -8.98304e-07 0)
(-2.03381e-09 -8.96601e-07 0)
(-2.07158e-09 -8.94847e-07 0)
(-2.10841e-09 -8.93042e-07 0)
(-2.1443e-09 -8.91186e-07 0)
(-2.17923e-09 -8.89278e-07 0)
(-2.21317e-09 -8.87319e-07 0)
(-2.24611e-09 -8.85309e-07 0)
(-2.27804e-09 -8.83247e-07 0)
(-2.30894e-09 -8.81134e-07 0)
(-2.33879e-09 -8.7897e-07 0)
(-2.36759e-09 -8.76755e-07 0)
(-2.39532e-09 -8.74489e-07 0)
(-2.42197e-09 -8.72172e-07 0)
(-2.44752e-09 -8.69804e-07 0)
(-2.47196e-09 -8.67387e-07 0)
(-2.49529e-09 -8.64919e-07 0)
(-2.5175e-09 -8.62402e-07 0)
(-2.53857e-09 -8.59835e-07 0)
(-2.55849e-09 -8.5722e-07 0)
(-2.57727e-09 -8.54556e-07 0)
(-2.59489e-09 -8.51845e-07 0)
(-2.61135e-09 -8.49085e-07 0)
(-2.62665e-09 -8.46279e-07 0)
(-2.64077e-09 -8.43427e-07 0)
(-2.65373e-09 -8.40528e-07 0)
(-2.6655e-09 -8.37585e-07 0)
(-2.6761e-09 -8.34597e-07 0)
(-2.68553e-09 -8.31565e-07 0)
(-2.69378e-09 -8.28491e-07 0)
(-2.70085e-09 -8.25374e-07 0)
(-2.70675e-09 -8.22216e-07 0)
(-2.71148e-09 -8.19017e-07 0)
(-2.71505e-09 -8.15778e-07 0)
(-2.71745e-09 -8.12501e-07 0)
(-2.7187e-09 -8.09186e-07 0)
(-2.71881e-09 -8.05834e-07 0)
(-2.71777e-09 -8.02447e-07 0)
(-2.71561e-09 -7.99024e-07 0)
(-2.71227e-09 -7.95568e-07 0)
(-2.70807e-09 -7.92071e-07 0)
(-2.70167e-09 -7.88532e-07 0)
(-2.69329e-09 -7.84615e-07 0)
(-2.68404e-09 -7.80294e-07 0)
(-2.67317e-09 -7.75934e-07 0)
(-2.66089e-09 -7.71604e-07 0)
(-2.64734e-09 -7.67312e-07 0)
(-2.63261e-09 -7.63045e-07 0)
(-2.61676e-09 -7.58799e-07 0)
(-2.59986e-09 -7.54578e-07 0)
(-2.58197e-09 -7.50385e-07 0)
(-2.56315e-09 -7.46223e-07 0)
(-2.54345e-09 -7.42092e-07 0)
(-2.52293e-09 -7.37993e-07 0)
(-2.50165e-09 -7.33928e-07 0)
(-2.47965e-09 -7.29899e-07 0)
(-2.45698e-09 -7.25905e-07 0)
(-2.43368e-09 -7.21949e-07 0)
(-2.4098e-09 -7.18031e-07 0)
(-2.38537e-09 -7.14152e-07 0)
(-2.36043e-09 -7.10313e-07 0)
(-2.33502e-09 -7.06515e-07 0)
(-2.30917e-09 -7.02759e-07 0)
(-2.28291e-09 -6.99044e-07 0)
(-2.25627e-09 -6.95372e-07 0)
(-2.22928e-09 -6.91744e-07 0)
(-2.20197e-09 -6.8816e-07 0)
(-2.17436e-09 -6.8462e-07 0)
(-2.14646e-09 -6.81125e-07 0)
(-2.11831e-09 -6.77676e-07 0)
(-2.08993e-09 -6.74272e-07 0)
(-2.06132e-09 -6.70914e-07 0)
(-2.03251e-09 -6.67603e-07 0)
(-2.00351e-09 -6.64338e-07 0)
(-1.97434e-09 -6.61121e-07 0)
(-1.94501e-09 -6.57951e-07 0)
(-1.91553e-09 -6.54828e-07 0)
(-1.88592e-09 -6.51754e-07 0)
(-1.85618e-09 -6.48727e-07 0)
(-1.82632e-09 -6.45749e-07 0)
(-1.79635e-09 -6.42819e-07 0)
(-1.76629e-09 -6.39937e-07 0)
(-1.73612e-09 -6.37104e-07 0)
(-1.70587e-09 -6.3432e-07 0)
(-1.67554e-09 -6.31586e-07 0)
(-1.64513e-09 -6.289e-07 0)
(-1.61464e-09 -6.26263e-07 0)
(-1.58408e-09 -6.23676e-07 0)
(-1.55345e-09 -6.21139e-07 0)
(-1.52276e-09 -6.18651e-07 0)
(-1.49201e-09 -6.16212e-07 0)
(-1.46119e-09 -6.13824e-07 0)
(-1.43031e-09 -6.11485e-07 0)
(-1.39938e-09 -6.09196e-07 0)
(-1.36839e-09 -6.06958e-07 0)
(-1.33734e-09 -6.04769e-07 0)
(-1.30623e-09 -6.02631e-07 0)
(-1.27506e-09 -6.00544e-07 0)
(-1.24384e-09 -5.98506e-07 0)
(-1.21257e-09 -5.9652e-07 0)
(-1.18123e-09 -5.94583e-07 0)
(-1.14984e-09 -5.92698e-07 0)
(-1.11839e-09 -5.90864e-07 0)
(-1.08688e-09 -5.8908e-07 0)
(-1.05532e-09 -5.87347e-07 0)
(-1.0237e-09 -5.85666e-07 0)
(-9.92014e-10 -5.84035e-07 0)
(-9.60273e-10 -5.82456e-07 0)
(-9.28474e-10 -5.80929e-07 0)
(-8.96616e-10 -5.79453e-07 0)
(-8.64699e-10 -5.78028e-07 0)
(-8.32723e-10 -5.76655e-07 0)
(-8.0069e-10 -5.75334e-07 0)
(-7.68598e-10 -5.74065e-07 0)
(-7.3645e-10 -5.72847e-07 0)
(-7.04245e-10 -5.71682e-07 0)
(-6.71985e-10 -5.70569e-07 0)
(-6.39671e-10 -5.69508e-07 0)
(-6.07304e-10 -5.685e-07 0)
(-5.74885e-10 -5.67543e-07 0)
(-5.42417e-10 -5.6664e-07 0)
(-5.09901e-10 -5.65789e-07 0)
(-4.77339e-10 -5.6499e-07 0)
(-4.44734e-10 -5.64244e-07 0)
(-4.12087e-10 -5.63551e-07 0)
(-3.79402e-10 -5.62911e-07 0)
(-3.4668e-10 -5.62323e-07 0)
(-3.13925e-10 -5.61792e-07 0)
(-2.81136e-10 -5.61299e-07 0)
(-2.48325e-10 -5.6091e-07 0)
(-2.15464e-10 -5.60404e-07 0)
(-1.82651e-10 -5.60507e-07 0)
(-1.49571e-10 -5.58783e-07 0)
(-1.17317e-10 -5.63112e-07 0)
(-8.22375e-11 -5.46103e-07 0)
(-5.74772e-11 -5.90833e-07 0)
(-2.61306e-11 -5.15986e-07 0)
)
;
    }
    bottomWall
    {
        type            calculated;
        value           nonuniform List<vector> 
449
(
(-48.5788 -0.964754 0)
(-19.7685 -0.00516051 0)
(-14.3558 -0.0011359 0)
(-12.0438 -0.000546053 0)
(-10.6363 -0.000351872 0)
(-9.64141 -0.000256272 0)
(-8.88251 -0.000198702 0)
(-8.27834 -0.00015999 0)
(-7.78237 -0.000132469 0)
(-7.36528 -0.000112099 0)
(-7.00789 -9.64807e-05 0)
(-6.69714 -8.41595e-05 0)
(-6.4237 -7.42299e-05 0)
(-6.18065 -6.60925e-05 0)
(-5.96275 -5.93272e-05 0)
(-5.76591 -5.36305e-05 0)
(-5.58694 -4.87798e-05 0)
(-5.42328 -4.46093e-05 0)
(-5.27287 -4.09926e-05 0)
(-5.13399 -3.78322e-05 0)
(-5.00525 -3.50515e-05 0)
(-4.88546 -3.25895e-05 0)
(-4.77363 -3.03975e-05 0)
(-4.66891 -2.84359e-05 0)
(-4.57058 -2.66721e-05 0)
(-4.478 -2.50793e-05 0)
(-4.39064 -2.36353e-05 0)
(-4.30803 -2.23214e-05 0)
(-4.22974 -2.11216e-05 0)
(-4.15542 -2.00228e-05 0)
(-4.08473 -1.90133e-05 0)
(-4.01739 -1.80834e-05 0)
(-3.95314 -1.72245e-05 0)
(-3.89176 -1.64294e-05 0)
(-3.83303 -1.56917e-05 0)
(-3.77677 -1.50056e-05 0)
(-3.72281 -1.43664e-05 0)
(-3.67099 -1.37696e-05 0)
(-3.62119 -1.32114e-05 0)
(-3.57326 -1.26885e-05 0)
(-3.5271 -1.21979e-05 0)
(-3.4826 -1.17367e-05 0)
(-3.43967 -1.13027e-05 0)
(-3.3982 -1.08936e-05 0)
(-3.35813 -1.05075e-05 0)
(-3.31937 -1.01427e-05 0)
(-3.28185 -9.79745e-06 0)
(-3.24552 -9.47045e-06 0)
(-3.2103 -9.16035e-06 0)
(-3.17614 -8.86596e-06 0)
(-3.14299 -8.5862e-06 0)
(-3.11081 -8.32008e-06 0)
(-3.07954 -8.0667e-06 0)
(-3.04914 -7.82522e-06 0)
(-3.01957 -7.59488e-06 0)
(-2.9908 -7.37499e-06 0)
(-2.96279 -7.1649e-06 0)
(-2.9355 -6.96401e-06 0)
(-2.90892 -6.77178e-06 0)
(-2.883 -6.58769e-06 0)
(-2.85772 -6.41128e-06 0)
(-2.83305 -6.24212e-06 0)
(-2.80898 -6.07979e-06 0)
(-2.78547 -5.92392e-06 0)
(-2.7625 -5.77416e-06 0)
(-2.74006 -5.63019e-06 0)
(-2.71812 -5.4917e-06 0)
(-2.69667 -5.3584e-06 0)
(-2.67569 -5.23004e-06 0)
(-2.65515 -5.10635e-06 0)
(-2.63505 -4.98712e-06 0)
(-2.61538 -4.87213e-06 0)
(-2.5961 -4.76116e-06 0)
(-2.57722 -4.65402e-06 0)
(-2.55872 -4.55055e-06 0)
(-2.54059 -4.45056e-06 0)
(-2.52281 -4.35389e-06 0)
(-2.50537 -4.2604e-06 0)
(-2.48826 -4.16995e-06 0)
(-2.47148 -4.0824e-06 0)
(-2.45501 -3.99762e-06 0)
(-2.43884 -3.91549e-06 0)
(-2.42296 -3.83591e-06 0)
(-2.40737 -3.75876e-06 0)
(-2.39205 -3.68395e-06 0)
(-2.377 -3.61137e-06 0)
(-2.36222 -3.54094e-06 0)
(-2.34768 -3.47257e-06 0)
(-2.33339 -3.40618e-06 0)
(-2.31934 -3.34169e-06 0)
(-2.30552 -3.27903e-06 0)
(-2.29193 -3.21813e-06 0)
(-2.27855 -3.15891e-06 0)
(-2.2654 -3.10132e-06 0)
(-2.25244 -3.0453e-06 0)
(-2.2397 -2.99079e-06 0)
(-2.22715 -2.93773e-06 0)
(-2.21479 -2.88607e-06 0)
(-2.20262 -2.83576e-06 0)
(-2.19063 -2.78675e-06 0)
(-2.17883 -2.739e-06 0)
(-2.16719 -2.69247e-06 0)
(-2.15573 -2.64711e-06 0)
(-2.14443 -2.60287e-06 0)
(-2.13329 -2.55973e-06 0)
(-2.12231 -2.51765e-06 0)
(-2.11149 -2.47659e-06 0)
(-2.10082 -2.43652e-06 0)
(-2.09029 -2.3974e-06 0)
(-2.07991 -2.35921e-06 0)
(-2.06967 -2.32192e-06 0)
(-2.05956 -2.28549e-06 0)
(-2.04959 -2.24991e-06 0)
(-2.03976 -2.21513e-06 0)
(-2.03005 -2.18115e-06 0)
(-2.02046 -2.14793e-06 0)
(-2.011 -2.11545e-06 0)
(-2.00166 -2.08369e-06 0)
(-1.99244 -2.05263e-06 0)
(-1.98334 -2.02224e-06 0)
(-1.97434 -1.99252e-06 0)
(-1.96546 -1.96343e-06 0)
(-1.95669 -1.93495e-06 0)
(-1.94802 -1.90709e-06 0)
(-1.93946 -1.8798e-06 0)
(-1.931 -1.85308e-06 0)
(-1.92264 -1.82692e-06 0)
(-1.91438 -1.80129e-06 0)
(-1.90621 -1.77618e-06 0)
(-1.89814 -1.75159e-06 0)
(-1.89016 -1.72748e-06 0)
(-1.88227 -1.70386e-06 0)
(-1.87448 -1.6807e-06 0)
(-1.86677 -1.658e-06 0)
(-1.85914 -1.63574e-06 0)
(-1.8516 -1.61391e-06 0)
(-1.84414 -1.5925e-06 0)
(-1.83677 -1.57151e-06 0)
(-1.82947 -1.55091e-06 0)
(-1.82225 -1.5307e-06 0)
(-1.81511 -1.51086e-06 0)
(-1.80804 -1.4914e-06 0)
(-1.80105 -1.4723e-06 0)
(-1.79414 -1.45355e-06 0)
(-1.78729 -1.43514e-06 0)
(-1.78051 -1.41706e-06 0)
(-1.77381 -1.39931e-06 0)
(-1.76717 -1.38188e-06 0)
(-1.7606 -1.36476e-06 0)
(-1.75409 -1.34795e-06 0)
(-1.74765 -1.33142e-06 0)
(-1.74127 -1.31519e-06 0)
(-1.73496 -1.29924e-06 0)
(-1.72871 -1.28356e-06 0)
(-1.72252 -1.26816e-06 0)
(-1.71638 -1.25301e-06 0)
(-1.71031 -1.23813e-06 0)
(-1.7043 -1.22349e-06 0)
(-1.69834 -1.2091e-06 0)
(-1.69243 -1.19495e-06 0)
(-1.68659 -1.18103e-06 0)
(-1.68079 -1.16734e-06 0)
(-1.67505 -1.15388e-06 0)
(-1.66937 -1.14063e-06 0)
(-1.66373 -1.1276e-06 0)
(-1.65815 -1.11478e-06 0)
(-1.65262 -1.10216e-06 0)
(-1.64713 -1.08975e-06 0)
(-1.6417 -1.07754e-06 0)
(-1.63631 -1.06542e-06 0)
(-1.63097 -1.05384e-06 0)
(-1.62568 -1.04191e-06 0)
(-1.62043 -1.02938e-06 0)
(-1.61553 -1.01964e-06 0)
(-1.61092 -1.01128e-06 0)
(-1.6063 -1.00082e-06 0)
(-1.60169 -9.90222e-07 0)
(-1.59707 -9.80331e-07 0)
(-1.59244 -9.70457e-07 0)
(-1.58782 -9.60722e-07 0)
(-1.58319 -9.51069e-07 0)
(-1.57856 -9.41496e-07 0)
(-1.57392 -9.31994e-07 0)
(-1.56928 -9.22559e-07 0)
(-1.56464 -9.13189e-07 0)
(-1.56 -9.03881e-07 0)
(-1.55535 -8.94635e-07 0)
(-1.5507 -8.85448e-07 0)
(-1.54605 -8.76322e-07 0)
(-1.5414 -8.67255e-07 0)
(-1.53674 -8.58246e-07 0)
(-1.53209 -8.49297e-07 0)
(-1.52743 -8.40406e-07 0)
(-1.52277 -8.31574e-07 0)
(-1.51811 -8.228e-07 0)
(-1.51345 -8.14084e-07 0)
(-1.50879 -8.05428e-07 0)
(-1.50412 -7.96829e-07 0)
(-1.49946 -7.88289e-07 0)
(-1.4948 -7.79808e-07 0)
(-1.49014 -7.71385e-07 0)
(-1.48548 -7.6302e-07 0)
(-1.48081 -7.54715e-07 0)
(-1.47615 -7.46468e-07 0)
(-1.47149 -7.3828e-07 0)
(-1.46684 -7.30152e-07 0)
(-1.46218 -7.22082e-07 0)
(-1.45752 -7.14071e-07 0)
(-1.45287 -7.06119e-07 0)
(-1.44822 -6.98227e-07 0)
(-1.44357 -6.90393e-07 0)
(-1.43892 -6.82619e-07 0)
(-1.43427 -6.74905e-07 0)
(-1.42963 -6.67249e-07 0)
(-1.42499 -6.59653e-07 0)
(-1.42035 -6.52117e-07 0)
(-1.41572 -6.44639e-07 0)
(-1.41109 -6.37222e-07 0)
(-1.40647 -6.29863e-07 0)
(-1.40184 -6.22565e-07 0)
(-1.39723 -6.15325e-07 0)
(-1.39261 -6.08145e-07 0)
(-1.388 -6.01024e-07 0)
(-1.3834 -5.93963e-07 0)
(-1.3788 -5.8696e-07 0)
(-1.3742 -5.80017e-07 0)
(-1.36961 -5.73133e-07 0)
(-1.36503 -5.66308e-07 0)
(-1.36045 -5.59542e-07 0)
(-1.35587 -5.52835e-07 0)
(-1.3513 -5.46187e-07 0)
(-1.34674 -5.39598e-07 0)
(-1.34219 -5.33066e-07 0)
(-1.33764 -5.26594e-07 0)
(-1.33309 -5.2018e-07 0)
(-1.32856 -5.13823e-07 0)
(-1.32403 -5.07525e-07 0)
(-1.3195 -5.01285e-07 0)
(-1.31499 -4.95103e-07 0)
(-1.31048 -4.88978e-07 0)
(-1.30598 -4.8291e-07 0)
(-1.30149 -4.769e-07 0)
(-1.297 -4.70947e-07 0)
(-1.29252 -4.65051e-07 0)
(-1.28805 -4.59211e-07 0)
(-1.28359 -4.53427e-07 0)
(-1.27914 -4.477e-07 0)
(-1.2747 -4.42029e-07 0)
(-1.27026 -4.36414e-07 0)
(-1.26584 -4.30854e-07 0)
(-1.26142 -4.2535e-07 0)
(-1.25701 -4.19901e-07 0)
(-1.25261 -4.14507e-07 0)
(-1.24822 -4.09167e-07 0)
(-1.24384 -4.03881e-07 0)
(-1.23947 -3.9865e-07 0)
(-1.23511 -3.93473e-07 0)
(-1.23076 -3.88349e-07 0)
(-1.22642 -3.83278e-07 0)
(-1.22209 -3.78261e-07 0)
(-1.21777 -3.73296e-07 0)
(-1.21346 -3.68383e-07 0)
(-1.20916 -3.63523e-07 0)
(-1.20487 -3.58715e-07 0)
(-1.20059 -3.53958e-07 0)
(-1.19633 -3.49252e-07 0)
(-1.19207 -3.44598e-07 0)
(-1.18783 -3.39994e-07 0)
(-1.1836 -3.3544e-07 0)
(-1.17937 -3.30937e-07 0)
(-1.17516 -3.26483e-07 0)
(-1.17097 -3.22078e-07 0)
(-1.16678 -3.17723e-07 0)
(-1.1626 -3.13416e-07 0)
(-1.15844 -3.09158e-07 0)
(-1.15429 -3.04948e-07 0)
(-1.15015 -3.00785e-07 0)
(-1.14602 -2.9667e-07 0)
(-1.14191 -2.92602e-07 0)
(-1.13781 -2.88581e-07 0)
(-1.13372 -2.84606e-07 0)
(-1.12964 -2.80677e-07 0)
(-1.12558 -2.76794e-07 0)
(-1.12153 -2.72956e-07 0)
(-1.11749 -2.69163e-07 0)
(-1.11346 -2.65415e-07 0)
(-1.10945 -2.61711e-07 0)
(-1.10545 -2.58051e-07 0)
(-1.10146 -2.54435e-07 0)
(-1.09749 -2.50862e-07 0)
(-1.09353 -2.47332e-07 0)
(-1.08958 -2.43844e-07 0)
(-1.08565 -2.40399e-07 0)
(-1.08173 -2.36995e-07 0)
(-1.07782 -2.33633e-07 0)
(-1.07393 -2.30312e-07 0)
(-1.07005 -2.27032e-07 0)
(-1.06619 -2.23792e-07 0)
(-1.06234 -2.20592e-07 0)
(-1.0585 -2.17432e-07 0)
(-1.05467 -2.14312e-07 0)
(-1.05087 -2.1123e-07 0)
(-1.04707 -2.08187e-07 0)
(-1.04329 -2.05182e-07 0)
(-1.03952 -2.02215e-07 0)
(-1.03577 -1.99285e-07 0)
(-1.03203 -1.96393e-07 0)
(-1.02831 -1.93537e-07 0)
(-1.0246 -1.90718e-07 0)
(-1.0209 -1.87935e-07 0)
(-1.01722 -1.85188e-07 0)
(-1.01355 -1.82477e-07 0)
(-1.0099 -1.798e-07 0)
(-1.00626 -1.77158e-07 0)
(-1.00264 -1.74551e-07 0)
(-0.99903 -1.71978e-07 0)
(-0.995436 -1.69438e-07 0)
(-0.991856 -1.66931e-07 0)
(-0.988292 -1.64458e-07 0)
(-0.984742 -1.62017e-07 0)
(-0.981207 -1.59609e-07 0)
(-0.977686 -1.57233e-07 0)
(-0.97418 -1.54888e-07 0)
(-0.97069 -1.52575e-07 0)
(-0.967213 -1.50292e-07 0)
(-0.963752 -1.4804e-07 0)
(-0.960306 -1.45819e-07 0)
(-0.956874 -1.43627e-07 0)
(-0.953458 -1.41466e-07 0)
(-0.950056 -1.39333e-07 0)
(-0.94667 -1.3723e-07 0)
(-0.943298 -1.35155e-07 0)
(-0.939941 -1.33109e-07 0)
(-0.936599 -1.3109e-07 0)
(-0.933272 -1.291e-07 0)
(-0.92996 -1.27137e-07 0)
(-0.926663 -1.25201e-07 0)
(-0.923381 -1.23292e-07 0)
(-0.920114 -1.21409e-07 0)
(-0.916862 -1.19553e-07 0)
(-0.913625 -1.17722e-07 0)
(-0.910403 -1.15918e-07 0)
(-0.907195 -1.14138e-07 0)
(-0.904003 -1.12384e-07 0)
(-0.900826 -1.10655e-07 0)
(-0.897664 -1.08951e-07 0)
(-0.894516 -1.07271e-07 0)
(-0.891384 -1.05615e-07 0)
(-0.888266 -1.03984e-07 0)
(-0.885163 -1.02379e-07 0)
(-0.882075 -1.00796e-07 0)
(-0.879002 -9.92329e-08 0)
(-0.875943 -9.77427e-08 0)
(-0.872896 -9.62677e-08 0)
(-0.869524 -9.45796e-08 0)
(-0.865866 -9.2812e-08 0)
(-0.862275 -9.11889e-08 0)
(-0.858744 -8.9585e-08 0)
(-0.855278 -8.79484e-08 0)
(-0.851875 -8.63359e-08 0)
(-0.848535 -8.47629e-08 0)
(-0.845255 -8.32325e-08 0)
(-0.842035 -8.17444e-08 0)
(-0.838871 -8.02978e-08 0)
(-0.835764 -7.88916e-08 0)
(-0.83271 -7.75245e-08 0)
(-0.829709 -7.61952e-08 0)
(-0.82676 -7.49022e-08 0)
(-0.82386 -7.36442e-08 0)
(-0.821009 -7.24199e-08 0)
(-0.818205 -7.12279e-08 0)
(-0.815447 -7.00672e-08 0)
(-0.812733 -6.89365e-08 0)
(-0.810063 -6.78349e-08 0)
(-0.807436 -6.67613e-08 0)
(-0.80485 -6.57146e-08 0)
(-0.802305 -6.4694e-08 0)
(-0.799799 -6.36986e-08 0)
(-0.797331 -6.27276e-08 0)
(-0.794901 -6.178e-08 0)
(-0.792507 -6.08551e-08 0)
(-0.790149 -5.99522e-08 0)
(-0.787826 -5.90706e-08 0)
(-0.785537 -5.82095e-08 0)
(-0.783281 -5.73684e-08 0)
(-0.781058 -5.65465e-08 0)
(-0.778866 -5.57433e-08 0)
(-0.776705 -5.49582e-08 0)
(-0.774575 -5.41907e-08 0)
(-0.772474 -5.34401e-08 0)
(-0.770403 -5.27061e-08 0)
(-0.768359 -5.1988e-08 0)
(-0.766344 -5.12855e-08 0)
(-0.764355 -5.0598e-08 0)
(-0.762394 -4.99252e-08 0)
(-0.760458 -4.92666e-08 0)
(-0.758547 -4.86217e-08 0)
(-0.756662 -4.79903e-08 0)
(-0.754801 -4.73719e-08 0)
(-0.752964 -4.67662e-08 0)
(-0.75115 -4.61727e-08 0)
(-0.749359 -4.55913e-08 0)
(-0.747591 -4.50215e-08 0)
(-0.745844 -4.4463e-08 0)
(-0.74412 -4.39156e-08 0)
(-0.742416 -4.3379e-08 0)
(-0.740733 -4.28528e-08 0)
(-0.739071 -4.23368e-08 0)
(-0.737429 -4.18307e-08 0)
(-0.735806 -4.13344e-08 0)
(-0.734202 -4.08474e-08 0)
(-0.732617 -4.03697e-08 0)
(-0.731051 -3.9901e-08 0)
(-0.729502 -3.94411e-08 0)
(-0.727972 -3.89897e-08 0)
(-0.726459 -3.85467e-08 0)
(-0.724963 -3.81119e-08 0)
(-0.723484 -3.7685e-08 0)
(-0.722022 -3.7266e-08 0)
(-0.720575 -3.68547e-08 0)
(-0.719145 -3.64509e-08 0)
(-0.71773 -3.60544e-08 0)
(-0.716331 -3.56652e-08 0)
(-0.714947 -3.5283e-08 0)
(-0.713577 -3.49079e-08 0)
(-0.712222 -3.45397e-08 0)
(-0.710881 -3.41783e-08 0)
(-0.709554 -3.38237e-08 0)
(-0.708241 -3.34759e-08 0)
(-0.706942 -3.31348e-08 0)
(-0.705655 -3.28005e-08 0)
(-0.704382 -3.24732e-08 0)
(-0.703121 -3.21529e-08 0)
(-0.701872 -3.184e-08 0)
(-0.700636 -3.1535e-08 0)
(-0.699411 -3.12385e-08 0)
(-0.698198 -3.09515e-08 0)
(-0.696995 -3.06756e-08 0)
(-0.695804 -3.04125e-08 0)
(-0.694622 -3.017e-08 0)
(-0.693449 -2.99406e-08 0)
(-0.692285 -2.97473e-08 0)
(-0.691128 -2.97072e-08 0)
(-0.689967 -2.94224e-08 0)
(-0.688832 -2.8637e-08 0)
(-0.687732 -3.7574e-08 0)
(-0.685899 -1.02128e-08 0)
(-0.686945 -2.76694e-08 0)
(-0.683701 -4.24022e-08 0)
)
;
    }
    symmetry
    {
        type            symmetryPlane;
    }
    frontAndBack
    {
        type            empty;
    }
}


// ************************************************************************* //
