/*--------------------------------*- C++ -*----------------------------------*\
| =========                 |                                                 |
| \\      /  F ield         | OpenFOAM: The Open Source CFD Toolbox           |
|  \\    /   O peration     | Version:  v2012                                 |
|   \\  /    A nd           | Website:  www.openfoam.com                      |
|    \\/     M anipulation  |                                                 |
\*---------------------------------------------------------------------------*/
FoamFile
{
    version     2.0;
    format      ascii;
    class       volScalarField;
    location    "1.5";
    object      yPlus;
}
// * * * * * * * * * * * * * * * * * * * * * * * * * * * * * * * * * * * * * //

dimensions      [0 0 0 0 0 0 0];


internalField   uniform 0;

boundaryField
{
    inlet
    {
        type            calculated;
        value           uniform 0;
    }
    outlet
    {
        type            calculated;
        value           uniform 0;
    }
    topWall
    {
        type            calculated;
        value           nonuniform List<scalar> 
545
(
0.0434292
0.0751496
0.0963419
0.113178
0.127419
0.139869
0.150979
0.161031
0.170218
0.178678
0.186517
0.193814
0.200634
0.207029
0.213042
0.218709
0.224062
0.229126
0.233925
0.23848
0.242808
0.246926
0.250847
0.254584
0.25815
0.261554
0.264807
0.267918
0.270894
0.273743
0.276471
0.279087
0.281594
0.283999
0.286308
0.288524
0.290652
0.292697
0.294663
0.296553
0.29837
0.300119
0.301802
0.303422
0.304982
0.306484
0.307932
0.309327
0.310671
0.311967
0.313216
0.314422
0.315584
0.316706
0.317788
0.318833
0.319842
0.320815
0.321756
0.322664
0.323541
0.324388
0.325207
0.325998
0.326762
0.327501
0.328215
0.328906
0.329573
0.330219
0.330843
0.331447
0.332022
0.332578
0.333128
0.333672
0.334211
0.334745
0.335274
0.335797
0.336315
0.336828
0.337336
0.337839
0.338337
0.33883
0.339318
0.339802
0.34028
0.340754
0.341223
0.341688
0.342148
0.342603
0.343054
0.343502
0.343898
0.344251
0.344603
0.344955
0.345307
0.345657
0.346007
0.346357
0.346706
0.347054
0.347401
0.347748
0.348095
0.348441
0.348786
0.34913
0.349474
0.349817
0.35016
0.350501
0.350843
0.351183
0.351523
0.351862
0.3522
0.352538
0.352875
0.353211
0.353547
0.353882
0.354216
0.354549
0.354882
0.355214
0.355545
0.355876
0.356205
0.356534
0.356862
0.35719
0.357516
0.357842
0.358167
0.358491
0.358815
0.359137
0.359459
0.35978
0.3601
0.360419
0.360738
0.361055
0.361372
0.361688
0.362003
0.362317
0.36263
0.362942
0.363254
0.363564
0.363874
0.364182
0.36449
0.364797
0.365103
0.365408
0.365712
0.366015
0.366317
0.366618
0.366918
0.367217
0.367515
0.367813
0.368109
0.368404
0.368698
0.368991
0.369283
0.369574
0.369864
0.370153
0.370441
0.370728
0.371014
0.371299
0.371582
0.371865
0.372146
0.372426
0.372705
0.372984
0.37326
0.373536
0.373811
0.374084
0.374357
0.374628
0.374898
0.375167
0.375434
0.375701
0.375966
0.37623
0.376493
0.376754
0.377015
0.377274
0.377532
0.377788
0.378044
0.378298
0.37855
0.378802
0.379052
0.379301
0.379549
0.379795
0.38004
0.380283
0.380526
0.380767
0.381006
0.381244
0.381481
0.381717
0.381951
0.382183
0.382415
0.382645
0.382873
0.3831
0.383326
0.38355
0.383772
0.383994
0.384213
0.384432
0.384648
0.384864
0.385078
0.38529
0.385501
0.38571
0.385918
0.386124
0.386328
0.386532
0.386733
0.386933
0.387131
0.387328
0.387523
0.387717
0.387909
0.388099
0.388288
0.388475
0.38866
0.388844
0.389026
0.389207
0.389385
0.389562
0.389738
0.389911
0.390083
0.390253
0.390422
0.390589
0.390754
0.390917
0.391079
0.391225
0.391361
0.391498
0.391634
0.39177
0.391906
0.392043
0.392179
0.392315
0.392452
0.392588
0.392724
0.392859
0.392995
0.39313
0.393265
0.3934
0.393534
0.393667
0.393801
0.393933
0.394065
0.394196
0.394327
0.394457
0.394586
0.394714
0.394841
0.394967
0.395092
0.395216
0.395339
0.39546
0.39558
0.395699
0.395816
0.395932
0.396046
0.396159
0.396269
0.396378
0.396485
0.39659
0.396692
0.396793
0.396891
0.396987
0.39708
0.397171
0.397259
0.397345
0.397428
0.397507
0.397584
0.397657
0.397728
0.397795
0.397858
0.397918
0.397974
0.398026
0.398075
0.398119
0.398159
0.398195
0.398227
0.398254
0.398276
0.398293
0.398306
0.398313
0.398315
0.398312
0.398304
0.398289
0.398269
0.398243
0.398211
0.398173
0.398128
0.398076
0.398018
0.397953
0.397881
0.397802
0.397716
0.397622
0.39752
0.39741
0.397293
0.397167
0.397033
0.39689
0.396738
0.396578
0.396408
0.39623
0.396041
0.395843
0.395636
0.395418
0.39519
0.394951
0.394702
0.394443
0.394172
0.39389
0.393597
0.393292
0.392976
0.392647
0.392307
0.391954
0.391589
0.391211
0.39082
0.390416
0.389999
0.389569
0.389125
0.388667
0.388195
0.38771
0.387209
0.386695
0.386165
0.385621
0.385062
0.384488
0.383898
0.383293
0.382672
0.382035
0.381383
0.380714
0.380029
0.379328
0.37861
0.377875
0.377124
0.376356
0.375571
0.374768
0.373949
0.373112
0.372257
0.371386
0.370496
0.369589
0.368664
0.367722
0.366761
0.365783
0.364787
0.363772
0.36274
0.36169
0.360622
0.359535
0.358431
0.357309
0.356168
0.35501
0.353834
0.35264
0.351428
0.350198
0.348951
0.347687
0.346404
0.345105
0.343788
0.342454
0.341103
0.339735
0.338351
0.33695
0.335533
0.334099
0.332651
0.331183
0.329548
0.327746
0.325945
0.324147
0.322352
0.32056
0.318771
0.316987
0.315207
0.313433
0.311665
0.309903
0.308147
0.306399
0.304659
0.302926
0.301203
0.299488
0.297782
0.296086
0.2944
0.292724
0.291059
0.289406
0.287763
0.286132
0.284513
0.282907
0.281313
0.279732
0.278164
0.27661
0.27507
0.273544
0.272032
0.270534
0.269052
0.267585
0.266134
0.264698
0.263278
0.261875
0.260488
0.259119
0.257766
0.256431
0.255114
0.253815
0.252534
0.251272
0.250029
0.248806
0.247601
0.246417
0.245253
0.244109
0.242986
0.241884
0.240804
0.239745
0.238708
0.237694
0.236702
0.235733
0.234787
0.233864
0.232966
0.232091
0.231241
0.230416
0.229616
0.228841
0.228091
0.227367
0.22667
0.225999
0.225354
0.224736
0.224146
0.223583
0.223047
0.22254
0.22206
0.221609
0.221186
0.220791
0.220425
0.220088
0.21978
0.219501
0.219251
0.219032
0.218837
0.218697
0.218488
)
;
    }
    bottomWall
    {
        type            calculated;
        value           nonuniform List<scalar> 
449
(
4.58193
3.0139
2.53626
2.32104
2.18435
2.08435
2.00235
1.93344
1.875
1.82445
1.77988
1.74011
1.7043
1.67181
1.64211
1.6148
1.58954
1.56608
1.5442
1.52371
1.50447
1.48633
1.46919
1.45296
1.43754
1.42288
1.40889
1.39554
1.38276
1.37052
1.35877
1.34748
1.33662
1.32616
1.31607
1.30633
1.29692
1.28781
1.279
1.27046
1.26217
1.25413
1.24632
1.23873
1.23135
1.22417
1.21717
1.21036
1.20371
1.19723
1.1909
1.18473
1.17869
1.1728
1.16703
1.16139
1.15587
1.15047
1.14517
1.13999
1.13491
1.12993
1.12504
1.12025
1.11554
1.11093
1.10639
1.10194
1.09756
1.09326
1.08904
1.08488
1.08079
1.07677
1.07282
1.06892
1.06509
1.06132
1.0576
1.05394
1.05033
1.04678
1.04328
1.03982
1.03642
1.03306
1.02975
1.02648
1.02326
1.02008
1.01694
1.01384
1.01079
1.00777
1.00478
1.00184
0.99893
0.996057
0.993217
0.990411
0.987638
0.984897
0.982188
0.979509
0.976861
0.974242
0.971652
0.96909
0.966556
0.964049
0.961568
0.959114
0.956685
0.954282
0.951903
0.949548
0.947217
0.944909
0.942624
0.940361
0.938121
0.935902
0.933704
0.931527
0.929371
0.927235
0.925118
0.923021
0.920944
0.918885
0.916845
0.914824
0.91282
0.910834
0.908866
0.906914
0.90498
0.903063
0.901162
0.899277
0.897409
0.895556
0.893719
0.891897
0.890091
0.8883
0.886523
0.884762
0.883015
0.881282
0.879563
0.877859
0.876168
0.874491
0.872828
0.871179
0.869542
0.867919
0.866309
0.864713
0.863129
0.861557
0.859999
0.858453
0.856919
0.855398
0.85389
0.852393
0.850909
0.849437
0.847976
0.846528
0.845092
0.843744
0.842477
0.841211
0.839945
0.838678
0.83741
0.836141
0.834871
0.8336
0.832328
0.831056
0.829783
0.828509
0.827235
0.82596
0.824686
0.823411
0.822136
0.820861
0.819587
0.818313
0.817039
0.815766
0.814493
0.813222
0.811951
0.810682
0.809413
0.808146
0.80688
0.805616
0.804353
0.803092
0.801833
0.800575
0.79932
0.798067
0.796815
0.795566
0.79432
0.793076
0.791834
0.790595
0.789358
0.788125
0.786894
0.785666
0.784441
0.783219
0.782
0.780784
0.779571
0.778362
0.777156
0.775953
0.774754
0.773558
0.772365
0.771176
0.769991
0.768809
0.767631
0.766456
0.765285
0.764118
0.762954
0.761794
0.760638
0.759486
0.758337
0.757192
0.756051
0.754914
0.75378
0.75265
0.751524
0.750402
0.749284
0.748169
0.747058
0.745951
0.744848
0.743748
0.742653
0.741561
0.740472
0.739388
0.738307
0.737229
0.736156
0.735086
0.73402
0.732957
0.731898
0.730843
0.729791
0.728743
0.727698
0.726657
0.72562
0.724586
0.723556
0.722529
0.721505
0.720485
0.719469
0.718456
0.717447
0.716441
0.715438
0.714439
0.713444
0.712452
0.711464
0.710479
0.709498
0.70852
0.707546
0.706575
0.705609
0.704645
0.703686
0.70273
0.701778
0.70083
0.699885
0.698944
0.698007
0.697074
0.696145
0.69522
0.694299
0.693383
0.69247
0.691561
0.690657
0.689756
0.688861
0.687969
0.687082
0.686199
0.685321
0.684447
0.683578
0.682714
0.681854
0.680999
0.680149
0.679303
0.678463
0.677627
0.676797
0.675971
0.675151
0.674335
0.673525
0.67272
0.671921
0.671126
0.670337
0.669554
0.668775
0.668003
0.667235
0.666474
0.665717
0.664967
0.664222
0.663482
0.662749
0.66202
0.661298
0.660581
0.659869
0.659163
0.658462
0.657767
0.657076
0.656389
0.655695
0.655027
0.6543
0.653487
0.652661
0.651851
0.651062
0.650295
0.649548
0.648821
0.648114
0.647427
0.646758
0.646108
0.645475
0.644859
0.64426
0.643678
0.643111
0.64256
0.642024
0.641503
0.640995
0.640502
0.640023
0.639557
0.639104
0.638663
0.638235
0.637819
0.637415
0.637022
0.636641
0.636271
0.635911
0.635562
0.635223
0.634893
0.634574
0.634263
0.633962
0.63367
0.633386
0.63311
0.632843
0.632584
0.632332
0.632087
0.63185
0.63162
0.631397
0.631181
0.63097
0.630766
0.630568
0.630376
0.63019
0.630009
0.629834
0.629664
0.629498
0.629338
0.629182
0.629031
0.628885
0.628743
0.628605
0.628471
0.628341
0.628215
0.628092
0.627973
0.627858
0.627746
0.627637
0.627531
0.627429
0.627329
0.627233
0.627139
0.627047
0.626959
0.626873
0.626789
0.626707
0.626628
0.626551
0.626476
0.626403
0.626331
0.62626
0.626191
0.626122
0.62606
0.625932
0.626044
0.625833
)
;
    }
    symmetry
    {
        type            symmetryPlane;
    }
    frontAndBack
    {
        type            empty;
    }
}


// ************************************************************************* //
