/*--------------------------------*- C++ -*----------------------------------*\
| =========                 |                                                 |
| \\      /  F ield         | OpenFOAM: The Open Source CFD Toolbox           |
|  \\    /   O peration     | Version:  v2012                                 |
|   \\  /    A nd           | Website:  www.openfoam.com                      |
|    \\/     M anipulation  |                                                 |
\*---------------------------------------------------------------------------*/
FoamFile
{
    version     2.0;
    format      ascii;
    class       volScalarField;
    location    "37";
    object      k;
}
// * * * * * * * * * * * * * * * * * * * * * * * * * * * * * * * * * * * * * //

dimensions      [0 2 -2 0 0 0 0];


internalField   nonuniform List<scalar> 
209825
(
0.00102398
0.00093047
0.000855613
0.000797651
0.000753451
0.000719603
0.000693375
0.000672679
0.000656108
0.000642605
0.000631481
0.000622179
0.000614344
0.000607661
0.000601932
0.000596969
0.000592652
0.000588869
0.000585536
0.000582587
0.00057996
0.000577623
0.000575517
0.000573634
0.000571921
0.000570388
0.000568976
0.000567712
0.000566534
0.000565485
0.000564497
0.000563615
0.000562778
0.000562039
0.000561326
0.000560697
0.000560082
0.000559549
0.000559022
0.000558568
0.00055811
0.000557726
0.000557335
0.000556997
0.000556659
0.000556376
0.000556078
0.000555832
0.000555571
0.000555358
0.000555139
0.000554966
0.000554778
0.000554621
0.000554467
0.000554336
0.00055419
0.000554093
0.000553956
0.000553873
0.000553754
0.000553691
0.000553585
0.000553528
0.000553418
0.000553341
0.000553306
0.000553288
0.000553252
0.000553238
0.000553202
0.00055322
0.000553219
0.000553282
0.000553283
0.000553366
0.000553381
0.000553467
0.000553493
0.000553586
0.000553626
0.000553732
0.000553778
0.000553892
0.000553949
0.000554082
0.000554149
0.000554305
0.000554377
0.000554564
0.000554639
0.00055484
0.000555071
0.000564155
0.000594209
0.00146657
0.00102398
0.00093047
0.000855613
0.00079765
0.000753449
0.000719599
0.000693369
0.000672672
0.0006561
0.000642596
0.000631471
0.000622169
0.000614333
0.00060765
0.00060192
0.000596956
0.000592639
0.000588856
0.000585522
0.000582573
0.000579945
0.000577608
0.000575502
0.000573619
0.000571906
0.000570373
0.00056896
0.000567697
0.000566519
0.000565469
0.000564481
0.000563599
0.000562762
0.000562023
0.00056131
0.000560681
0.000560065
0.000559533
0.000559006
0.000558551
0.000558094
0.000557709
0.000557318
0.00055698
0.000556642
0.000556359
0.000556062
0.000555815
0.000555554
0.000555341
0.000555122
0.000554949
0.000554761
0.000554604
0.000554449
0.000554319
0.000554172
0.000554076
0.000553938
0.000553856
0.000553737
0.000553674
0.000553567
0.00055351
0.000553401
0.000553324
0.000553288
0.00055327
0.000553234
0.00055322
0.000553184
0.000553202
0.000553201
0.000553264
0.000553265
0.000553348
0.000553364
0.000553449
0.000553475
0.000553568
0.000553609
0.000553714
0.00055376
0.000553874
0.000553931
0.000554065
0.000554131
0.000554287
0.000554359
0.000554546
0.000554621
0.000554822
0.000555054
0.000564154
0.0005942
0.00146741
0.00102398
0.000930471
0.000855612
0.000797644
0.000753436
0.00071958
0.000693345
0.000672642
0.000656066
0.000642558
0.00063143
0.000622125
0.000614287
0.000607601
0.00060187
0.000596905
0.000592586
0.000588801
0.000585466
0.000582516
0.000579888
0.000577549
0.000575443
0.000573559
0.000571845
0.000570312
0.000568899
0.000567634
0.000566456
0.000565406
0.000564418
0.000563535
0.000562698
0.000561959
0.000561245
0.000560616
0.00056
0.000559467
0.00055894
0.000558485
0.000558027
0.000557643
0.000557251
0.000556913
0.000556575
0.000556292
0.000555994
0.000555747
0.000555486
0.000555273
0.000555054
0.000554882
0.000554693
0.000554536
0.000554381
0.000554251
0.000554104
0.000554008
0.00055387
0.000553788
0.000553668
0.000553605
0.000553499
0.000553442
0.000553332
0.000553255
0.000553219
0.000553201
0.000553165
0.000553151
0.000553115
0.000553133
0.000553132
0.000553194
0.000553196
0.000553279
0.000553294
0.00055338
0.000553405
0.000553498
0.000553538
0.000553644
0.00055369
0.000553803
0.000553861
0.000553994
0.000554061
0.000554216
0.000554288
0.000554475
0.00055455
0.000554751
0.000554983
0.000564117
0.000594144
0.00146909
0.00102399
0.000930473
0.000855611
0.000797634
0.000753416
0.000719549
0.000693304
0.000672593
0.000656009
0.000642495
0.000631361
0.000622051
0.000614209
0.00060752
0.000601785
0.000596817
0.000592496
0.000588709
0.000585372
0.000582421
0.000579791
0.000577451
0.000575343
0.000573458
0.000571743
0.000570209
0.000568795
0.00056753
0.000566351
0.0005653
0.000564311
0.000563428
0.00056259
0.00056185
0.000561136
0.000560507
0.00055989
0.000559357
0.00055883
0.000558375
0.000557916
0.000557531
0.00055714
0.000556802
0.000556463
0.00055618
0.000555882
0.000555635
0.000555373
0.00055516
0.000554941
0.000554768
0.000554579
0.000554422
0.000554267
0.000554137
0.00055399
0.000553893
0.000553755
0.000553673
0.000553554
0.00055349
0.000553384
0.000553326
0.000553217
0.00055314
0.000553104
0.000553086
0.00055305
0.000553035
0.000552999
0.000553016
0.000553015
0.000553078
0.000553079
0.000553162
0.000553177
0.000553262
0.000553287
0.000553381
0.000553421
0.000553526
0.000553572
0.000553685
0.000553742
0.000553876
0.000553942
0.000554098
0.000554169
0.000554356
0.000554431
0.000554632
0.000554865
0.000564051
0.000594049
0.00147105
0.00102399
0.000930477
0.000855608
0.00079762
0.000753387
0.000719504
0.000693246
0.000672522
0.000655929
0.000642405
0.000631264
0.000621947
0.000614099
0.000607405
0.000601666
0.000596694
0.00059237
0.00058858
0.00058524
0.000582286
0.000579654
0.000577312
0.000575203
0.000573316
0.0005716
0.000570064
0.000568649
0.000567383
0.000566202
0.000565151
0.000564161
0.000563277
0.000562438
0.000561698
0.000560983
0.000560353
0.000559736
0.000559202
0.000558674
0.000558219
0.00055776
0.000557375
0.000556983
0.000556644
0.000556305
0.000556022
0.000555723
0.000555476
0.000555214
0.000555001
0.000554781
0.000554608
0.000554419
0.000554262
0.000554106
0.000553976
0.000553828
0.000553732
0.000553594
0.000553511
0.000553392
0.000553328
0.000553222
0.000553164
0.000553055
0.000552977
0.000552941
0.000552923
0.000552886
0.000552872
0.000552836
0.000552852
0.000552851
0.000552913
0.000552914
0.000552997
0.000553012
0.000553097
0.000553122
0.000553215
0.000553255
0.00055336
0.000553405
0.000553519
0.000553576
0.000553709
0.000553776
0.000553931
0.000554002
0.000554189
0.000554263
0.000554464
0.000554698
0.000563957
0.000593913
0.00147326
0.00102399
0.000930481
0.000855606
0.000797602
0.000753349
0.000719447
0.00069317
0.000672431
0.000655824
0.000642289
0.000631138
0.000621812
0.000613957
0.000607257
0.000601512
0.000596535
0.000592206
0.000588412
0.000585069
0.000582112
0.000579477
0.000577133
0.000575021
0.000573132
0.000571413
0.000569876
0.000568459
0.000567192
0.00056601
0.000564957
0.000563966
0.000563081
0.000562242
0.0005615
0.000560785
0.000560154
0.000559536
0.000559002
0.000558473
0.000558017
0.000557557
0.000557171
0.000556779
0.00055644
0.0005561
0.000555817
0.000555517
0.00055527
0.000555008
0.000554794
0.000554574
0.0005544
0.000554211
0.000554054
0.000553898
0.000553767
0.000553619
0.000553523
0.000553384
0.000553301
0.000553182
0.000553118
0.000553011
0.000552954
0.000552844
0.000552766
0.00055273
0.000552711
0.000552675
0.00055266
0.000552623
0.00055264
0.000552638
0.0005527
0.000552701
0.000552783
0.000552797
0.000552883
0.000552907
0.000553
0.00055304
0.000553145
0.00055319
0.000553303
0.00055336
0.000553493
0.000553559
0.000553714
0.000553785
0.000553972
0.000554046
0.000554246
0.000554481
0.000563835
0.000593737
0.00147567
0.00102399
0.000930486
0.000855603
0.00079758
0.000753303
0.000719376
0.000693078
0.000672319
0.000655695
0.000642146
0.000630982
0.000621646
0.000613782
0.000607073
0.000601322
0.000596339
0.000592004
0.000588206
0.000584858
0.000581897
0.000579258
0.000576911
0.000574796
0.000572905
0.000571184
0.000569645
0.000568226
0.000566956
0.000565773
0.000564719
0.000563726
0.00056284
0.000561999
0.000561257
0.00056054
0.000559908
0.000559289
0.000558754
0.000558224
0.000557767
0.000557307
0.000556921
0.000556527
0.000556188
0.000555848
0.000555563
0.000555264
0.000555016
0.000554753
0.000554539
0.000554318
0.000554144
0.000553955
0.000553797
0.000553641
0.00055351
0.000553362
0.000553265
0.000553126
0.000553043
0.000552923
0.000552859
0.000552752
0.000552694
0.000552585
0.000552507
0.00055247
0.000552451
0.000552414
0.000552399
0.000552362
0.000552378
0.000552376
0.000552437
0.000552438
0.000552519
0.000552533
0.000552619
0.000552643
0.000552735
0.000552775
0.000552879
0.000552924
0.000553037
0.000553094
0.000553226
0.000553292
0.000553447
0.000553518
0.000553704
0.000553778
0.000553978
0.000554215
0.000563686
0.000593521
0.00147816
0.00102399
0.000930491
0.000855599
0.000797553
0.000753247
0.000719293
0.000692968
0.000672186
0.000655542
0.000641975
0.000630797
0.000621449
0.000613573
0.000606855
0.000601095
0.000596104
0.000591764
0.000587959
0.000584606
0.000581641
0.000578998
0.000576647
0.000574529
0.000572634
0.000570911
0.000569369
0.000567947
0.000566676
0.00056549
0.000564434
0.00056344
0.000562552
0.00056171
0.000560966
0.000560248
0.000559615
0.000558995
0.000558459
0.000557928
0.00055747
0.000557009
0.000556622
0.000556228
0.000555887
0.000555546
0.000555262
0.000554961
0.000554712
0.000554449
0.000554235
0.000554013
0.000553839
0.000553649
0.000553491
0.000553334
0.000553203
0.000553054
0.000552957
0.000552818
0.000552734
0.000552614
0.00055255
0.000552443
0.000552385
0.000552275
0.000552197
0.000552159
0.00055214
0.000552103
0.000552088
0.00055205
0.000552065
0.000552063
0.000552123
0.000552124
0.000552205
0.000552219
0.000552303
0.000552327
0.000552419
0.000552459
0.000552563
0.000552607
0.00055272
0.000552776
0.000552908
0.000552974
0.000553128
0.000553199
0.000553384
0.000553458
0.000553658
0.000553896
0.000563509
0.000593264
0.00148056
0.00102399
0.000930498
0.000855595
0.000797522
0.000753184
0.000719195
0.00069284
0.000672031
0.000655364
0.000641777
0.000630582
0.000621219
0.00061333
0.000606601
0.000600831
0.000595832
0.000591484
0.000587672
0.000584313
0.000581342
0.000578695
0.000576339
0.000574217
0.000572319
0.000570592
0.000569047
0.000567623
0.000566349
0.000565161
0.000564103
0.000563107
0.000562217
0.000561373
0.000560627
0.000559908
0.000559273
0.000558652
0.000558115
0.000557583
0.000557124
0.000556662
0.000556273
0.000555878
0.000555537
0.000555195
0.00055491
0.000554609
0.000554359
0.000554096
0.00055388
0.000553658
0.000553484
0.000553293
0.000553134
0.000552977
0.000552845
0.000552696
0.000552598
0.000552459
0.000552375
0.000552254
0.00055219
0.000552082
0.000552024
0.000551914
0.000551836
0.000551797
0.000551778
0.000551741
0.000551725
0.000551687
0.000551701
0.000551699
0.000551757
0.000551758
0.000551839
0.000551852
0.000551936
0.00055196
0.000552051
0.00055209
0.000552194
0.000552238
0.000552351
0.000552406
0.000552538
0.000552603
0.000552757
0.000552827
0.000553012
0.000553085
0.000553284
0.000553526
0.000563306
0.000592966
0.00148259
0.00102399
0.000930506
0.00085559
0.000797487
0.000753111
0.000719085
0.000692694
0.000671854
0.000655161
0.000641551
0.000630336
0.000620956
0.000613053
0.000606311
0.00060053
0.000595521
0.000591164
0.000587344
0.000583979
0.000581001
0.000578348
0.000575988
0.000573861
0.000571959
0.000570228
0.000568679
0.000567252
0.000565975
0.000564785
0.000563724
0.000562726
0.000561833
0.000560987
0.00056024
0.000559519
0.000558883
0.00055826
0.000557721
0.000557188
0.000556728
0.000556265
0.000555875
0.000555479
0.000555137
0.000554794
0.000554508
0.000554206
0.000553956
0.000553691
0.000553475
0.000553252
0.000553077
0.000552885
0.000552726
0.000552568
0.000552436
0.000552286
0.000552188
0.000552048
0.000551964
0.000551843
0.000551778
0.00055167
0.000551611
0.000551502
0.000551423
0.000551383
0.000551364
0.000551326
0.00055131
0.000551271
0.000551285
0.000551281
0.000551339
0.000551339
0.000551419
0.000551432
0.000551516
0.000551539
0.00055163
0.000551669
0.000551772
0.000551816
0.000551928
0.000551983
0.000552114
0.000552179
0.000552332
0.000552402
0.000552586
0.000552659
0.000552858
0.000553102
0.000563076
0.000592627
0.00148387
0.001024
0.000930515
0.000855585
0.000797449
0.00075303
0.00071896
0.00069253
0.000671656
0.000654932
0.000641297
0.00063006
0.00062066
0.00061274
0.000605984
0.00060019
0.00059517
0.000590803
0.000586975
0.000583601
0.000580617
0.000577957
0.000575591
0.000573459
0.000571552
0.000569817
0.000568265
0.000566834
0.000565554
0.00056436
0.000563296
0.000562295
0.000561401
0.000560552
0.000559803
0.00055908
0.000558442
0.000557818
0.000557277
0.000556742
0.000556281
0.000555816
0.000555425
0.000555028
0.000554685
0.000554341
0.000554054
0.000553751
0.0005535
0.000553234
0.000553017
0.000552794
0.000552618
0.000552425
0.000552266
0.000552107
0.000551974
0.000551824
0.000551725
0.000551585
0.0005515
0.000551378
0.000551313
0.000551205
0.000551146
0.000551036
0.000550957
0.000550916
0.000550896
0.000550858
0.000550842
0.000550802
0.000550815
0.000550811
0.000550867
0.000550867
0.000550946
0.000550958
0.000551042
0.000551064
0.000551155
0.000551193
0.000551296
0.000551339
0.00055145
0.000551505
0.000551636
0.0005517
0.000551852
0.000551922
0.000552106
0.000552177
0.000552376
0.000552624
0.00056282
0.000592246
0.00148386
0.001024
0.000930525
0.000855579
0.000797406
0.00075294
0.000718822
0.000692348
0.000671435
0.000654678
0.000641013
0.000629751
0.00062033
0.000612392
0.000605619
0.000599811
0.000594778
0.0005904
0.000586563
0.00058318
0.000580188
0.000577521
0.000575149
0.000573011
0.000571099
0.000569359
0.000567802
0.000566367
0.000565083
0.000563886
0.000562819
0.000561816
0.000560918
0.000560067
0.000559316
0.00055859
0.00055795
0.000557324
0.000556782
0.000556245
0.000555782
0.000555316
0.000554924
0.000554525
0.000554181
0.000553835
0.000553547
0.000553243
0.000552991
0.000552725
0.000552507
0.000552282
0.000552105
0.000551912
0.000551752
0.000551592
0.000551459
0.000551308
0.000551208
0.000551067
0.000550982
0.00055086
0.000550794
0.000550685
0.000550626
0.000550516
0.000550436
0.000550395
0.000550374
0.000550336
0.000550319
0.000550279
0.00055029
0.000550285
0.00055034
0.00055034
0.000550418
0.00055043
0.000550513
0.000550534
0.000550625
0.000550662
0.000550764
0.000550807
0.000550918
0.000550972
0.000551102
0.000551166
0.000551317
0.000551386
0.000551569
0.00055164
0.000551838
0.00055209
0.000562539
0.000591822
0.0014821
0.001024
0.000930536
0.000855573
0.000797359
0.000752841
0.00071867
0.000692147
0.000671191
0.000654397
0.000640701
0.000629411
0.000619967
0.000612008
0.000605217
0.000599393
0.000594346
0.000589956
0.000586107
0.000582715
0.000579714
0.00057704
0.00057466
0.000572516
0.000570598
0.000568852
0.000567291
0.000565851
0.000564563
0.000563362
0.000562292
0.000561285
0.000560385
0.000559531
0.000558777
0.000558049
0.000557407
0.000556778
0.000556234
0.000555695
0.000555231
0.000554763
0.000554369
0.000553969
0.000553623
0.000553276
0.000552987
0.000552682
0.000552429
0.000552161
0.000551942
0.000551716
0.000551539
0.000551345
0.000551183
0.000551022
0.000550889
0.000550737
0.000550637
0.000550495
0.00055041
0.000550287
0.00055022
0.000550111
0.000550051
0.000549941
0.000549861
0.000549818
0.000549797
0.000549758
0.000549741
0.0005497
0.00054971
0.000549704
0.000549757
0.000549757
0.000549834
0.000549845
0.000549927
0.000549948
0.000550038
0.000550075
0.000550176
0.000550219
0.000550328
0.000550382
0.000550511
0.000550575
0.000550725
0.000550794
0.000550976
0.000551046
0.000551243
0.0005515
0.000562231
0.000591354
0.00147859
0.001024
0.000930548
0.000855566
0.000797308
0.000752733
0.000718505
0.000691929
0.000670925
0.00065409
0.000640359
0.000629039
0.000619568
0.000611587
0.000604776
0.000598935
0.000593873
0.000589469
0.000585608
0.000582205
0.000579195
0.000576512
0.000574124
0.000571973
0.000570048
0.000568297
0.00056673
0.000565286
0.000563993
0.000562788
0.000561714
0.000560703
0.0005598
0.000558943
0.000558185
0.000557455
0.00055681
0.000556179
0.000555633
0.000555092
0.000554626
0.000554156
0.00055376
0.000553358
0.000553011
0.000552663
0.000552372
0.000552066
0.000551811
0.000551543
0.000551323
0.000551096
0.000550917
0.000550722
0.00055056
0.000550398
0.000550264
0.00055011
0.00055001
0.000549867
0.000549781
0.000549657
0.000549591
0.000549481
0.00054942
0.000549311
0.000549229
0.000549185
0.000549164
0.000549124
0.000549107
0.000549064
0.000549074
0.000549067
0.000549118
0.000549118
0.000549194
0.000549204
0.000549285
0.000549305
0.000549394
0.00054943
0.000549531
0.000549573
0.000549682
0.000549735
0.000549863
0.000549926
0.000550076
0.000550144
0.000550325
0.000550394
0.000550591
0.000550853
0.000561896
0.000590842
0.00147335
0.00102401
0.000930561
0.00085556
0.000797253
0.000752617
0.000718325
0.000691691
0.000670637
0.000653757
0.000639987
0.000628635
0.000619135
0.000611129
0.000604296
0.000598436
0.000593357
0.000588939
0.000585065
0.00058165
0.000578629
0.000575936
0.00057354
0.000571381
0.000569449
0.000567692
0.000566119
0.000564669
0.000563371
0.000562162
0.000561083
0.000560069
0.000559162
0.000558301
0.000557541
0.000556807
0.00055616
0.000555527
0.000554978
0.000554435
0.000553966
0.000553494
0.000553097
0.000552693
0.000552344
0.000551994
0.000551702
0.000551394
0.000551138
0.000550868
0.000550647
0.000550419
0.000550239
0.000550043
0.00054988
0.000549716
0.000549582
0.000549427
0.000549326
0.000549183
0.000549096
0.000548971
0.000548904
0.000548793
0.000548733
0.000548623
0.000548541
0.000548495
0.000548473
0.000548432
0.000548415
0.000548372
0.000548379
0.000548371
0.00054842
0.00054842
0.000548495
0.000548504
0.000548585
0.000548604
0.000548692
0.000548727
0.000548827
0.000548869
0.000548977
0.000549029
0.000549156
0.000549219
0.000549367
0.000549435
0.000549615
0.000549683
0.000549879
0.000550147
0.000561535
0.000590284
0.00146642
0.00102401
0.000930575
0.000855553
0.000797194
0.000752492
0.000718132
0.000691435
0.000670325
0.000653397
0.000639585
0.000628197
0.000618666
0.000610633
0.000603777
0.000597896
0.000592799
0.000588365
0.000584476
0.000581049
0.000578016
0.000575313
0.000572907
0.00057074
0.000568801
0.000567036
0.000565456
0.000564001
0.000562698
0.000561483
0.0005604
0.000559381
0.00055847
0.000557606
0.000556842
0.000556105
0.000555455
0.000554819
0.000554268
0.000553722
0.000553251
0.000552777
0.000552377
0.000551972
0.000551621
0.000551269
0.000550975
0.000550666
0.000550409
0.000550137
0.000549915
0.000549685
0.000549504
0.000549306
0.000549142
0.000548978
0.000548842
0.000548687
0.000548585
0.000548441
0.000548353
0.000548228
0.000548159
0.000548048
0.000547987
0.000547877
0.000547794
0.000547747
0.000547724
0.000547683
0.000547665
0.000547621
0.000547627
0.000547618
0.000547664
0.000547664
0.000547737
0.000547746
0.000547825
0.000547844
0.000547931
0.000547965
0.000548065
0.000548105
0.000548212
0.000548264
0.00054839
0.000548452
0.000548599
0.000548666
0.000548845
0.000548912
0.000549108
0.000549383
0.000561146
0.000589678
0.00145784
0.00102401
0.00093059
0.000855546
0.000797131
0.000752358
0.000717925
0.000691161
0.00066999
0.00065301
0.000639153
0.000627726
0.000618162
0.0006101
0.000603218
0.000597315
0.000592198
0.000587746
0.000583842
0.000580401
0.000577356
0.000574641
0.000572226
0.000570049
0.000568101
0.000566329
0.000564742
0.00056328
0.000561972
0.000560751
0.000559663
0.00055864
0.000557725
0.000556856
0.000556089
0.000555348
0.000554695
0.000554056
0.000553501
0.000552953
0.00055248
0.000552003
0.000551601
0.000551193
0.000550841
0.000550487
0.000550191
0.00054988
0.000549622
0.000549349
0.000549125
0.000548893
0.000548711
0.000548512
0.000548347
0.000548181
0.000548045
0.000547888
0.000547785
0.00054764
0.000547551
0.000547425
0.000547356
0.000547244
0.000547182
0.000547072
0.000546988
0.00054694
0.000546916
0.000546874
0.000546855
0.000546811
0.000546815
0.000546804
0.000546848
0.000546848
0.00054692
0.000546927
0.000547006
0.000547023
0.00054711
0.000547143
0.000547241
0.000547281
0.000547387
0.000547438
0.000547563
0.000547624
0.00054777
0.000547836
0.000548014
0.00054808
0.000548275
0.000548557
0.00056073
0.000589022
0.00144764
0.00102402
0.000930606
0.000855539
0.000797065
0.000752216
0.000717705
0.000690867
0.000669632
0.000652597
0.000638691
0.000627222
0.000617621
0.000609528
0.000602619
0.000596692
0.000591554
0.000587082
0.000583162
0.000579705
0.000576647
0.00057392
0.000571494
0.000569307
0.00056735
0.00056557
0.000563976
0.000562507
0.000561192
0.000559966
0.000558872
0.000557844
0.000556924
0.000556051
0.000555279
0.000554535
0.000553878
0.000553236
0.000552678
0.000552127
0.000551651
0.000551172
0.000550768
0.000550357
0.000550003
0.000549647
0.000549349
0.000549036
0.000548776
0.000548501
0.000548276
0.000548043
0.000547858
0.000547658
0.000547492
0.000547324
0.000547187
0.000547029
0.000546925
0.000546779
0.00054669
0.000546562
0.000546492
0.00054638
0.000546317
0.000546207
0.000546123
0.000546072
0.000546048
0.000546004
0.000545985
0.00054594
0.000545943
0.00054593
0.000545972
0.000545971
0.000546041
0.000546048
0.000546125
0.000546142
0.000546228
0.00054626
0.000546357
0.000546395
0.000546501
0.000546551
0.000546675
0.000546735
0.00054688
0.000546945
0.000547122
0.000547186
0.00054738
0.000547671
0.000560283
0.000588315
0.00143588
0.00102402
0.000930623
0.000855531
0.000796995
0.000752065
0.00071747
0.000690555
0.000669251
0.000652155
0.000638198
0.000626684
0.000617045
0.000608917
0.000601978
0.000596026
0.000590865
0.000586373
0.000582434
0.000578962
0.000575889
0.00057315
0.000570711
0.000568514
0.000566547
0.000564758
0.000563156
0.000561679
0.000560357
0.000559125
0.000558026
0.000556992
0.000556067
0.000555189
0.000554414
0.000553665
0.000553005
0.000552358
0.000551798
0.000551243
0.000550764
0.000550282
0.000549875
0.000549463
0.000549106
0.000548747
0.000548448
0.000548133
0.000547871
0.000547594
0.000547367
0.000547132
0.000546946
0.000546745
0.000546577
0.000546408
0.00054627
0.00054611
0.000546005
0.000545858
0.000545768
0.000545639
0.000545568
0.000545455
0.000545391
0.000545281
0.000545196
0.000545144
0.000545118
0.000545074
0.000545054
0.000545009
0.000545009
0.000544995
0.000545034
0.000545033
0.000545101
0.000545107
0.000545183
0.000545198
0.000545283
0.000545314
0.00054541
0.000545448
0.000545552
0.000545601
0.000545723
0.000545783
0.000545927
0.000545991
0.000546166
0.000546229
0.000546423
0.000546722
0.000559805
0.000587553
0.00142262
0.00102402
0.000930641
0.000855524
0.000796922
0.000751906
0.000717223
0.000690225
0.000668847
0.000651687
0.000637674
0.000626113
0.000616431
0.000608268
0.000601297
0.000595317
0.000590131
0.000585618
0.00058166
0.00057817
0.000575082
0.000572328
0.000569877
0.000567668
0.000565692
0.000563892
0.000562282
0.000560797
0.000559468
0.000558229
0.000557123
0.000556083
0.000555153
0.000554271
0.00055349
0.000552737
0.000552073
0.000551423
0.000550859
0.000550301
0.000549819
0.000549334
0.000548924
0.000548508
0.00054815
0.000547788
0.000547486
0.000547169
0.000546905
0.000546627
0.000546398
0.000546161
0.000545974
0.00054577
0.000545601
0.00054543
0.000545291
0.00054513
0.000545024
0.000544875
0.000544784
0.000544654
0.000544582
0.000544468
0.000544404
0.000544293
0.000544207
0.000544153
0.000544127
0.000544081
0.000544061
0.000544015
0.000544013
0.000543997
0.000544033
0.000544032
0.000544098
0.000544102
0.000544177
0.000544191
0.000544275
0.000544305
0.0005444
0.000544436
0.00054454
0.000544588
0.000544709
0.000544767
0.000544909
0.000544973
0.000545147
0.000545208
0.000545401
0.00054571
0.000559295
0.000586732
0.00140793
0.00102403
0.00093066
0.000855517
0.000796845
0.000751739
0.000716961
0.000689876
0.00066842
0.000651192
0.000637119
0.000625507
0.000615781
0.000607579
0.000600575
0.000594564
0.000589353
0.000584817
0.000580837
0.00057733
0.000574224
0.000571456
0.000568991
0.00056677
0.000564782
0.000562973
0.000561353
0.00055986
0.000558523
0.000557276
0.000556164
0.000555118
0.000554182
0.000553294
0.000552509
0.000551751
0.000551083
0.000550428
0.00054986
0.000549299
0.000548813
0.000548325
0.000547912
0.000547494
0.000547132
0.000546768
0.000546464
0.000546144
0.000545879
0.000545598
0.000545368
0.000545128
0.000544939
0.000544734
0.000544564
0.00054439
0.00054425
0.000544087
0.00054398
0.00054383
0.000543738
0.000543607
0.000543534
0.000543418
0.000543353
0.000543242
0.000543156
0.000543099
0.000543072
0.000543025
0.000543004
0.000542958
0.000542955
0.000542936
0.000542969
0.000542968
0.000543031
0.000543035
0.000543108
0.000543121
0.000543203
0.000543232
0.000543325
0.000543361
0.000543463
0.00054351
0.000543629
0.000543687
0.000543828
0.00054389
0.000544063
0.000544122
0.000544314
0.000544634
0.000558748
0.000585849
0.00139186
0.00102403
0.00093068
0.00085551
0.000796766
0.000751564
0.000716687
0.000689508
0.000667969
0.000650668
0.000636533
0.000624867
0.000615093
0.00060685
0.00059981
0.000593768
0.000588529
0.000583968
0.000579967
0.000576439
0.000573316
0.000570532
0.000568053
0.000565819
0.000563819
0.000561998
0.000560368
0.000558866
0.000557521
0.000556267
0.000555147
0.000554095
0.000553153
0.000552259
0.000551468
0.000550706
0.000550032
0.000549374
0.000548802
0.000548236
0.000547747
0.000547255
0.000546839
0.000546418
0.000546054
0.000545687
0.00054538
0.000545058
0.00054479
0.000544507
0.000544275
0.000544033
0.000543842
0.000543635
0.000543463
0.000543288
0.000543146
0.000542982
0.000542873
0.000542722
0.000542628
0.000542496
0.000542422
0.000542305
0.000542239
0.000542128
0.00054204
0.000541982
0.000541953
0.000541905
0.000541884
0.000541837
0.000541831
0.00054181
0.000541841
0.000541838
0.000541899
0.000541902
0.000541974
0.000541985
0.000542066
0.000542093
0.000542186
0.00054222
0.000542321
0.000542367
0.000542485
0.000542541
0.00054268
0.000542741
0.000542913
0.00054297
0.000543162
0.000543493
0.000558161
0.0005849
0.00137451
0.00102403
0.000930701
0.000855503
0.000796683
0.000751381
0.000716399
0.000689122
0.000667495
0.000650118
0.000635916
0.000624192
0.000614369
0.000606082
0.000599003
0.000592928
0.000587659
0.000583072
0.000579047
0.000575499
0.000572357
0.000569556
0.000567061
0.000564813
0.000562801
0.000560969
0.000559328
0.000557816
0.000556462
0.0005552
0.000554072
0.000553013
0.000552064
0.000551164
0.000550368
0.0005496
0.000548922
0.000548259
0.000547682
0.000547113
0.00054662
0.000546124
0.000545705
0.00054528
0.000544913
0.000544543
0.000544234
0.000543909
0.000543638
0.000543353
0.000543118
0.000542874
0.000542681
0.000542472
0.000542299
0.000542121
0.000541979
0.000541812
0.000541702
0.000541549
0.000541454
0.000541321
0.000541245
0.000541127
0.00054106
0.000540949
0.00054086
0.0005408
0.00054077
0.000540721
0.000540698
0.00054065
0.000540643
0.00054062
0.000540647
0.000540644
0.000540702
0.000540704
0.000540774
0.000540784
0.000540864
0.000540889
0.00054098
0.000541013
0.000541112
0.000541157
0.000541274
0.000541329
0.000541466
0.000541526
0.000541696
0.000541752
0.000541942
0.000542286
0.000557527
0.000583883
0.00135594
0.00102404
0.000930724
0.000855496
0.000796597
0.00075119
0.000716098
0.000688718
0.000666998
0.00064954
0.000635268
0.000623483
0.000613606
0.000605274
0.000598154
0.000592044
0.000586743
0.000582128
0.000578078
0.000574508
0.000571346
0.000568527
0.000566016
0.000563753
0.000561727
0.000559883
0.000558231
0.000556709
0.000555345
0.000554074
0.000552939
0.000551871
0.000550916
0.00055001
0.000549207
0.000548434
0.00054775
0.000547082
0.000546501
0.000545927
0.00054543
0.000544931
0.000544507
0.000544079
0.000543709
0.000543336
0.000543023
0.000542696
0.000542423
0.000542135
0.000541898
0.000541652
0.000541456
0.000541245
0.00054107
0.00054089
0.000540746
0.000540577
0.000540466
0.000540312
0.000540215
0.00054008
0.000540003
0.000539884
0.000539816
0.000539704
0.000539615
0.000539552
0.00053952
0.00053947
0.000539446
0.000539398
0.000539389
0.000539363
0.000539387
0.000539383
0.000539438
0.000539439
0.000539507
0.000539516
0.000539594
0.000539618
0.000539708
0.000539739
0.000539837
0.00053988
0.000539995
0.000540049
0.000540185
0.000540244
0.000540412
0.000540465
0.000540655
0.000541011
0.000556839
0.000582794
0.00133624
0.00102404
0.000930747
0.00085549
0.000796508
0.000750992
0.000715784
0.000688296
0.000666479
0.000648935
0.000634588
0.000622739
0.000612806
0.000604425
0.000597263
0.000591115
0.00058578
0.000581136
0.00057706
0.000573466
0.000570283
0.000567445
0.000564916
0.000562638
0.000560598
0.000558741
0.000557077
0.000555544
0.00055417
0.000552889
0.000551745
0.00055067
0.000549708
0.000548794
0.000547985
0.000547206
0.000546517
0.000545843
0.000545257
0.000544679
0.000544178
0.000543674
0.000543247
0.000542815
0.000542441
0.000542064
0.000541749
0.000541418
0.000541143
0.000540852
0.000540613
0.000540364
0.000540166
0.000539953
0.000539776
0.000539593
0.000539448
0.000539277
0.000539164
0.000539008
0.00053891
0.000538773
0.000538695
0.000538575
0.000538505
0.000538393
0.000538303
0.000538237
0.000538204
0.000538152
0.000538128
0.000538078
0.000538068
0.00053804
0.000538061
0.000538056
0.000538107
0.000538107
0.000538173
0.00053818
0.000538257
0.000538279
0.000538367
0.000538397
0.000538493
0.000538535
0.000538648
0.000538701
0.000538835
0.000538893
0.000539059
0.00053911
0.000539299
0.000539669
0.000556087
0.000581632
0.0013155
0.00102405
0.000930771
0.000855484
0.000796417
0.000750786
0.000715458
0.000687856
0.000665936
0.000648303
0.000633878
0.00062196
0.000611969
0.000603536
0.000596329
0.000590141
0.000584771
0.000580096
0.000575992
0.000572373
0.000569167
0.000566309
0.000563762
0.000561467
0.000559412
0.000557541
0.000555865
0.00055432
0.000552935
0.000551645
0.000550492
0.000549408
0.000548438
0.000547517
0.000546702
0.000545915
0.000545221
0.000544542
0.000543951
0.000543367
0.000542861
0.000542353
0.000541922
0.000541486
0.000541109
0.000540728
0.00054041
0.000540076
0.000539798
0.000539504
0.000539263
0.00053901
0.000538811
0.000538594
0.000538415
0.00053823
0.000538083