/*--------------------------------*- C++ -*----------------------------------*\
| =========                 |                                                 |
| \\      /  F ield         | OpenFOAM: The Open Source CFD Toolbox           |
|  \\    /   O peration     | Version:  v2012                                 |
|   \\  /    A nd           | Website:  www.openfoam.com                      |
|    \\/     M anipulation  |                                                 |
\*---------------------------------------------------------------------------*/
FoamFile
{
    version     2.0;
    format      ascii;
    class       volScalarField;
    location    "37";
    object      omega;
}
// * * * * * * * * * * * * * * * * * * * * * * * * * * * * * * * * * * * * * //

dimensions      [0 0 -1 0 0 0 0];


internalField   nonuniform List<scalar> 
209825
(
8261.22
7566.04
7000.23
6553.84
6206.59
5936.69
5724.2
5554.96
5417.58
5305.04
5211.06
5132.32
5065.02
5007.68
4957.72
4914.63
4876.45
4843.24
4813.38
4787.24
4763.41
4742.5
4723.17
4706.18
4690.28
4676.32
4663.09
4651.49
4640.35
4630.64
4621.18
4612.98
4604.89
4597.92
4590.95
4585.01
4578.98
4573.89
4568.62
4564.23
4559.68
4555.85
4551.84
4548.58
4545.05
4542.19
4539.08
4536.57
4533.88
4531.7
4529.38
4527.54
4525.51
4523.78
4522.05
4520.56
4519.03
4517.7
4516.36
4515.3
4514.23
4513.3
4512.32
4511.64
4510.77
4510.15
4509.37
4508.93
4508.33
4508.02
4507.47
4507.2
4506.7
4506.45
4505.95
4505.72
4505.32
4505.17
4504.84
4504.79
4504.64
4504.74
4504.73
4505.01
4505.01
4505.52
4505.52
4506.26
4506.26
4507.15
4507.16
4508.32
4508.96
4539.24
4653.47
113319
8261.22
7566.04
7000.23
6553.83
6206.57
5936.66
5724.16
5554.91
5417.52
5304.97
5210.98
5132.24
5064.93
5007.59
4957.62
4914.53
4876.34
4843.13
4813.26
4787.13
4763.29
4742.38
4723.05
4706.05
4690.15
4676.19
4662.96
4651.36
4640.22
4630.51
4621.05
4612.85
4604.75
4597.79
4590.81
4584.87
4578.84
4573.75
4568.48
4564.09
4559.54
4555.71
4551.7
4548.43
4544.91
4542.05
4538.93
4536.43
4533.74
4531.56
4529.23
4527.39
4525.37
4523.64
4521.9
4520.41
4518.88
4517.55
4516.21
4515.16
4514.08
4513.15
4512.17
4511.5
4510.62
4510
4509.23
4508.79
4508.18
4507.87
4507.32
4507.05
4506.55
4506.3
4505.8
4505.57
4505.17
4505.01
4504.69
4504.63
4504.49
4504.59
4504.58
4504.86
4504.86
4505.37
4505.37
4506.11
4506.11
4507
4507
4508.16
4508.8
4539.14
4653.36
110021
8261.22
7566.05
7000.22
6553.8
6206.5
5936.55
5724
5554.72
5417.3
5304.72
5210.71
5131.94
5064.62
5007.26
4957.28
4914.17
4875.98
4842.76
4812.88
4786.73
4762.9
4741.97
4722.64
4705.64
4689.73
4675.77
4662.53
4650.92
4639.78
4630.06
4620.6
4612.4
4604.3
4597.33
4590.35
4584.42
4578.38
4573.28
4568.02
4563.63
4559.07
4555.24
4551.23
4547.96
4544.44
4541.58
4538.46
4535.95
4533.26
4531.08
4528.75
4526.91
4524.88
4523.15
4521.42
4519.93
4518.39
4517.07
4515.72
4514.67
4513.59
4512.66
4511.69
4511.01
4510.13
4509.51
4508.73
4508.29
4507.68
4507.37
4506.83
4506.56
4506.06
4505.8
4505.31
4505.07
4504.68
4504.52
4504.2
4504.14
4503.99
4504.09
4504.08
4504.36
4504.36
4504.87
4504.87
4505.6
4505.6
4506.5
4506.5
4507.66
4508.3
4538.75
4652.92
106234
8261.23
7566.06
7000.22
6553.74
6206.37
5936.35
5723.74
5554.39
5416.92
5304.3
5210.24
5131.44
5064.08
5006.7
4956.69
4913.56
4875.35
4842.11
4812.22
4786.06
4762.21
4741.28
4721.93
4704.92
4689.01
4675.04
4661.79
4650.18
4639.03
4629.31
4619.84
4611.63
4603.53
4596.56
4589.57
4583.63
4577.6
4572.49
4567.23
4562.83
4558.27
4554.44
4550.42
4547.15
4543.63
4540.76
4537.64
4535.14
4532.44
4530.26
4527.93
4526.09
4524.06
4522.33
4520.59
4519.1
4517.56
4516.24
4514.89
4513.84
4512.76
4511.83
4510.85
4510.17
4509.3
4508.67
4507.89
4507.45
4506.84
4506.53
4505.98
4505.71
4505.21
4504.96
4504.46
4504.23
4503.83
4503.67
4503.35
4503.29
4503.14
4503.24
4503.23
4503.51
4503.51
4504.01
4504.01
4504.74
4504.74
4505.63
4505.64
4506.8
4507.44
4538.06
4652.17
102342
8261.23
7566.08
7000.22
6553.66
6206.2
5936.07
5723.36
5553.93
5416.37
5303.68
5209.57
5130.72
5063.32
5005.89
4955.85
4912.7
4874.46
4841.19
4811.28
4785.1
4761.23
4740.29
4720.93
4703.9
4687.97
4673.99
4660.74
4649.11
4637.95
4628.23
4618.75
4610.54
4602.43
4595.45
4588.46
4582.51
4576.47
4571.37
4566.09
4561.69
4557.13
4553.3
4549.28
4546
4542.47
4539.61
4536.49
4533.97
4531.28
4529.09
4526.76
4524.92
4522.89
4521.15
4519.41
4517.92
4516.38
4515.06
4513.71
4512.65
4511.57
4510.64
4509.66
4508.98
4508.1
4507.48
4506.7
4506.26
4505.64
4505.33
4504.78
4504.51
4504.01
4503.76
4503.26
4503.02
4502.62
4502.47
4502.14
4502.08
4501.93
4502.02
4502.01
4502.29
4502.29
4502.79
4502.79
4503.52
4503.52
4504.41
4504.41
4505.57
4506.22
4537.06
4651.09
98445.5
8261.23
7566.11
7000.21
6553.56
6205.96
5935.7
5722.86
5553.32
5415.66
5302.89
5208.7
5129.78
5062.32
5004.85
4954.76
4911.57
4873.29
4840
4810.05
4783.85
4759.96
4738.99
4719.61
4702.57
4686.63
4672.63
4659.37
4647.73
4636.56
4626.82
4617.33
4609.11
4601
4594.01
4587.01
4581.06
4575.01
4569.9
4564.62
4560.21
4555.64
4551.81
4547.78
4544.5
4540.97
4538.1
4534.97
4532.46
4529.76
4527.57
4525.23
4523.39
4521.36
4519.62
4517.88
4516.39
4514.84
4513.51
4512.16
4511.1
4510.02
4509.08
4508.1
4507.42
4506.54
4505.92
4505.14
4504.69
4504.08
4503.77
4503.22
4502.94
4502.44
4502.19
4501.69
4501.45
4501.05
4500.89
4500.57
4500.5
4500.34
4500.44
4500.42
4500.7
4500.7
4501.2
4501.2
4501.92
4501.92
4502.81
4502.81
4503.97
4504.62
4535.77
4649.68
94586.9
8261.24
7566.15
7000.2
6553.43
6205.68
5935.24
5722.25
5552.56
5414.79
5301.9
5207.62
5128.62
5061.09
5003.55
4953.41
4910.17
4871.85
4838.52
4808.54
4782.31
4758.39
4737.39
4717.99
4700.92
4684.96
4670.95
4657.66
4646.01
4634.83
4625.08
4615.58
4607.35
4599.22
4592.22
4585.21
4579.25
4573.2
4568.08
4562.79
4558.38
4553.8
4549.96
4545.93
4542.65
4539.11
4536.23
4533.1
4530.58
4527.88
4525.69
4523.35
4521.5
4519.46
4517.72
4515.98
4514.48
4512.93
4511.6
4510.25
4509.19
4508.1
4507.16
4506.18
4505.49
4504.61
4503.99
4503.2
4502.76
4502.14
4501.83
4501.28
4501
4500.5
4500.24
4499.74
4499.5
4499.1
4498.94
4498.62
4498.55
4498.39
4498.48
4498.46
4498.73
4498.73
4499.22
4499.22
4499.94
4499.94
4500.82
4500.83
4501.98
4502.64
4534.16
4647.95
90784.4
8261.25
7566.19
7000.19
6553.28
6205.33
5934.7
5721.52
5551.66
5413.74
5300.73
5206.33
5127.23
5059.62
5002.01
4951.8
4908.5
4870.13
4836.75
4806.73
4780.46
4756.5
4735.47
4716.04
4698.96
4682.97
4668.94
4655.63
4643.96
4632.76
4622.99
4613.48
4605.23
4597.09
4590.09
4583.07
4577.09
4571.03
4565.9
4560.61
4556.19
4551.6
4547.75
4543.71
4540.43
4536.88
4534
4530.86
4528.34
4525.63
4523.43
4521.09
4519.23
4517.19
4515.45
4513.7
4512.2
4510.65
4509.32
4507.96
4506.89
4505.8
4504.87
4503.88
4503.19
4502.31
4501.68
4500.89
4500.44
4499.82
4499.51
4498.95
4498.68
4498.17
4497.92
4497.42
4497.18
4496.77
4496.61
4496.28
4496.21
4496.05
4496.14
4496.11
4496.38
4496.38
4496.86
4496.86
4497.58
4497.58
4498.45
4498.45
4499.61
4500.27
4532.25
4645.89
87046.9
8261.25
7566.24
7000.18
6553.11
6204.94
5934.07
5720.67
5550.62
5412.52
5299.35
5204.83
5125.62
5057.9
5000.2
4949.92
4906.55
4868.12
4834.68
4804.61
4778.3
4754.3
4733.24
4713.78
4696.66
4680.64
4666.59
4653.26
4641.57
4630.34
4620.56
4611.03
4602.77
4594.61
4587.59
4580.56
4574.58
4568.5
4563.36
4558.05
4553.63
4549.03
4545.17
4541.13
4537.83
4534.28
4531.39
4528.25
4525.72
4523
4520.8
4518.45
4516.59
4514.54
4512.8
4511.04
4509.54
4507.99
4506.65
4505.29
4504.22
4503.12
4502.18
4501.19
4500.5
4499.61
4498.98
4498.19
4497.74
4497.12
4496.8
4496.24
4495.97
4495.46
4495.2
4494.7
4494.46
4494.05
4493.89
4493.56
4493.49
4493.31
4493.4
4493.37
4493.63
4493.63
4494.11
4494.11
4494.82
4494.82
4495.68
4495.68
4496.84
4497.51
4530.02
4643.49
83377
8261.26
7566.29
7000.17
6552.91
6204.49
5933.35
5719.7
5549.42
5411.12
5297.79
5203.11
5123.77
5055.94
4998.14
4947.76
4904.31
4865.81
4832.31
4802.19
4775.83
4751.78
4730.68
4711.18
4694.03
4677.98
4663.89
4650.54
4638.82
4627.58
4617.77
4608.22
4599.94
4591.77
4584.73
4577.69
4571.69
4565.6
4560.45
4555.13
4550.69
4546.09
4542.22
4538.16
4534.86
4531.3
4528.4
4525.25
4522.72
4519.99
4517.78
4515.43
4513.56
4511.51
4509.76
4508
4506.49
4504.93
4503.59
4502.22
4501.15
4500.05
4499.11
4498.11
4497.42
4496.53
4495.89
4495.1
4494.64
4494.02
4493.7
4493.14
4492.86
4492.35
4492.09
4491.59
4491.34
4490.93
4490.77
4490.44
4490.36
4490.18
4490.26
4490.23
4490.48
4490.48
4490.95
4490.95
4491.65
4491.65
4492.51
4492.51
4493.66
4494.34
4527.47
4640.76
79773.1
8261.27
7566.35
7000.16
6552.69
6203.98
5932.55
5718.61
5548.07
5409.55
5296.02
5201.17
5121.68
5053.72
4995.81
4945.33
4901.79
4863.21
4829.64
4799.45
4773.03
4748.94
4727.79
4708.25
4691.06
4674.97
4660.85
4647.47
4635.72
4624.45
4614.62
4605.05
4596.75
4588.56
4581.51
4574.44
4568.43
4562.32
4557.16
4551.83
4547.38
4542.76
4538.88
4534.82
4531.5
4527.93
4525.03
4521.87
4519.32
4516.59
4514.38
4512.01
4510.14
4508.08
4506.33
4504.56
4503.05
4501.48
4500.14
4498.76
4497.68
4496.58
4495.63
4494.63
4493.93
4493.04
4492.4
4491.6
4491.15
4490.51
4490.19
4489.63
4489.35
4488.83
4488.58
4488.07
4487.82
4487.41
4487.24
4486.91
4486.83
4486.64
4486.71
4486.68
4486.92
4486.92
4487.38
4487.38
4488.07
4488.07
4488.92
4488.92
4490.07
4490.76
4524.59
4637.7
76229.3
8261.28
7566.42
7000.14
6552.44
6203.42
5931.65
5717.39
5546.57
5407.8
5294.05
5199.01
5119.35
5051.25
4993.21
4942.62
4898.98
4860.31
4826.67
4796.4
4769.92
4745.77
4724.56
4704.97
4687.74
4671.61
4657.46
4644.04
4632.26
4620.96
4611.11
4601.51
4593.19
4584.97
4577.9
4570.82
4564.79
4558.66
4553.48
4548.14
4543.67
4539.04
4535.16
4531.08
4527.75
4524.17
4521.26
4518.09
4515.53
4512.8
4510.57
4508.2
4506.32
4504.25
4502.49
4500.71
4499.2
4497.63
4496.28
4494.89
4493.81
4492.7
4491.75
4490.74
4490.04
4489.14
4488.5
4487.7
4487.24
4486.6
4486.27
4485.71
4485.42
4484.91
4484.65
4484.14
4483.89
4483.47
4483.3
4482.96
4482.88
4482.68
4482.75
4482.71
4482.94
4482.94
4483.39
4483.39
4484.07
4484.08
4484.92
4484.92
4486.06
4486.76
4521.39
4634.3
72741.6
8261.29
7566.49
7000.13
6552.17
6202.8
5930.66
5716.05
5544.92
5405.87
5291.87
5196.63
5116.79
5048.52
4990.34
4939.62
4895.88
4857.11
4823.37
4793.03
4766.47
4742.26
4721
4701.35
4684.07
4667.9
4653.7
4640.24
4628.44
4617.1
4607.22
4597.59
4589.25
4581.01
4573.91
4566.8
4560.76
4554.61
4549.42
4544.06
4539.58
4534.93
4531.03
4526.94
4523.6
4520
4517.08
4513.9
4511.34
4508.59
4506.36
4503.97
4502.09
4500.01
4498.24
4496.46
4494.94
4493.36
4492
4490.61
4489.53
4488.41
4487.45
4486.43
4485.73
4484.83
4484.18
4483.37
4482.91
4482.27
4481.93
4481.36
4481.08
4480.56
4480.3
4479.79
4479.53
4479.11
4478.94
4478.6
4478.51
4478.31
4478.37
4478.32
4478.54
4478.54
4478.98
4478.98
4479.65
4479.65
4480.48
4480.48
4481.62
4482.34
4517.85
4630.56
69316.4
8261.3
7566.58
7000.12
6551.88
6202.13
5929.59
5714.59
5543.11
5403.75
5289.5
5194.01
5113.97
5045.53
4987.19
4936.34
4892.47
4853.59
4819.76
4789.33
4762.7
4738.4
4717.08
4697.37
4680.04
4663.82
4649.58
4636.08
4624.23
4612.86
4602.95
4593.29
4584.92
4576.65
4569.53
4562.4
4556.33
4550.17
4544.95
4539.57
4535.08
4530.42
4526.5
4522.39
4519.04
4515.43
4512.5
4509.31
4506.73
4503.97
4501.73
4499.34
4497.44
4495.36
4493.58
4491.79
4490.26
4488.67
4487.31
4485.91
4484.82
4483.69
4482.73
4481.71
4481
4480.09
4479.44
4478.63
4478.15
4477.51
4477.17
4476.6
4476.31
4475.79
4475.52
4475.01
4474.75
4474.33
4474.15
4473.81
4473.71
4473.5
4473.55
4473.5
4473.71
4473.71
4474.13
4474.13
4474.79
4474.79
4475.61
4475.61
4476.74
4477.48
4513.97
4626.49
65959.9
8261.31
7566.67
7000.11
6551.57
6201.4
5928.42
5713.01
5541.15
5401.46
5286.91
5191.17
5110.91
5042.27
4983.76
4932.76
4888.76
4849.76
4815.82
4785.29
4758.58
4734.21
4712.81
4693.04
4675.65
4659.38
4645.09
4631.54
4619.65
4608.24
4598.29
4588.6
4580.2
4571.9
4564.75
4557.6
4551.51
4545.32
4540.08
4534.68
4530.17
4525.49
4521.56
4517.43
4514.07
4510.44
4507.5
4504.3
4501.71
4498.94
4496.68
4494.28
4492.37
4490.28
4488.49
4486.69
4485.16
4483.56
4482.19
4480.79
4479.68
4478.55
4477.58
4476.55
4475.83
4474.92
4474.27
4473.45
4472.97
4472.31
4471.97
4471.39
4471.1
4470.58
4470.31
4469.79
4469.53
4469.1
4468.92
4468.57
4468.48
4468.26
4468.3
4468.24
4468.44
4468.43
4468.84
4468.84
4469.49
4469.49
4470.29
4470.29
4471.42
4472.18
4509.74
4622.08
62677.6
8261.32
7566.76
7000.1
6551.23
6200.62
5927.16
5711.3
5539.03
5398.97
5284.11
5188.1
5107.59
5038.74
4980.05
4928.88
4884.74
4845.61
4811.56
4780.92
4754.11
4729.66
4708.19
4688.35
4670.89
4654.56
4640.21
4626.62
4614.69
4603.23
4593.24
4583.51
4575.08
4566.75
4559.57
4552.39
4546.27
4540.06
4534.8
4529.38
4524.85
4520.15
4516.2
4512.05
4508.68
4505.03
4502.08
4498.86
4496.26
4493.47
4491.21
4488.79
4486.87
4484.77
4482.98
4481.16
4479.62
4478.01
4476.64
4475.22
4474.11
4472.96
4472
4470.95
4470.23
4469.31
4468.65
4467.82
4467.34
4466.68
4466.34
4465.75
4465.45
4464.93
4464.65
4464.13
4463.87
4463.44
4463.25
4462.9
4462.8
4462.57
4462.6
4462.53
4462.72
4462.71
4463.11
4463.11
4463.74
4463.74
4464.53
4464.53
4465.65
4466.43
4505.15
4617.33
59474.8
8261.33
7566.86
7000.08
6550.87
6199.78
5925.81
5709.46
5536.75
5396.31
5281.1
5184.79
5104.03
5034.95
4976.05
4924.71
4880.41
4841.13
4806.96
4776.21
4749.3
4724.75
4703.2
4683.28
4665.76
4649.36
4634.96
4621.31
4609.33
4597.83
4587.8
4578.03
4569.55
4561.19
4553.98
4546.77
4540.62
4534.38
4529.1
4523.66
4519.1
4514.38
4510.41
4506.25
4502.85
4499.2
4496.22
4492.99
4490.38
4487.58
4485.3
4482.86
4480.94
4478.82
4477.02
4475.19
4473.64
4472.02
4470.64
4469.22
4468.1
4466.94
4465.97
4464.91
4464.18
4463.25
4462.59
4461.76
4461.27
4460.6
4460.25
4459.66
4459.35
4458.82
4458.55
4458.02
4457.75
4457.32
4457.13
4456.77
4456.66
4456.43
4456.45
4456.36
4456.54
4456.53
4456.91
4456.91
4457.53
4457.53
4458.3
4458.3
4459.42
4460.22
4500.19
4612.25
56356.4
8261.35
7566.97
7000.08
6550.49
6198.89
5924.38
5707.5
5534.32
5393.45
5277.88
5181.25
5100.2
5030.87
4971.77
4920.23
4875.76
4836.33
4802.02
4771.16
4744.13
4719.49
4697.85
4677.84
4660.24
4643.78
4629.31
4615.6
4603.57
4592.02
4581.94
4572.13
4563.62
4555.22
4547.98
4540.73
4534.55
4528.28
4522.98
4517.51
4512.93
4508.18
4504.2
4500.01
4496.6
4492.92
4489.93
4486.68
4484.05
4481.24
4478.95
4476.5
4474.55
4472.43
4470.62
4468.78
4467.22
4465.59
4464.2
4462.76
4461.63
4460.46
4459.48
4458.42
4457.68
4456.74
4456.08
4455.23
4454.74
4454.06
4453.7
4453.11
4452.8
4452.26
4451.99
4451.46
4451.18
4450.74
4450.54
4450.18
4450.07
4449.83
4449.83
4449.74
4449.9
4449.89
4450.25
4450.25
4450.85
4450.85
4451.61
4451.61
4452.73
4453.55
4494.85
4606.84
53326.7
8261.36
7567.09
7000.07
6550.1
6197.95
5922.85
5705.41
5531.72
5390.41
5274.44
5177.46
5096.12
5026.53
4967.19
4915.44
4870.79
4831.2
4796.75
4765.75
4738.61
4713.85
4692.12
4672.02
4654.35
4637.8
4623.28
4609.5
4597.41
4585.8
4575.68
4565.82
4557.27
4548.82
4541.55
4534.26
4528.06
4521.76
4516.42
4510.92
4506.32
4501.55
4497.54
4493.33
4489.9
4486.2
4483.2
4479.93
4477.28
4474.45
4472.15
4469.68
4467.72
4465.58
4463.76
4461.91
4460.34
4458.69
4457.3
4455.85
4454.71
4453.53
4452.54
4451.47
4450.72
4449.77
4449.1
4448.25
4447.75
4447.06
4446.7
4446.09
4445.78
4445.24
4444.96
4444.42
4444.15
4443.69
4443.49
4443.13
4443.01
4442.76
4442.75
4442.64
4442.8
4442.78
4443.12
4443.12
4443.7
4443.7
4444.44
4444.44
4445.55
4446.4
4489.12
4601.1
50390
8261.37
7567.22
7000.06
6549.68
6196.96
5921.24
5703.21
5528.97
5387.18
5270.79
5173.44
5091.78
5021.9
4962.32
4910.35
4865.5
4825.74
4791.13
4759.99
4732.72
4707.85
4686.01
4665.82
4648.06
4631.44
4616.84
4602.99
4590.84
4579.18
4569
4559.09
4550.49
4542.01
4534.69
4527.37
4521.13
4514.79
4509.43
4503.9
4499.27
4494.47
4490.44
4486.21
4482.75
4479.03
4476.01
4472.72
4470.06
4467.21
4464.89
4462.41
4460.43
4458.28
4456.45
4454.58
4453
4451.34
4449.94
4448.47
4447.32
4446.13
4445.14
4444.05
4443.29
4442.34
4441.66
4440.79
4440.28
4439.59
4439.22
4438.6
4438.29
4437.74
4437.46
4436.92
4436.63
4436.18
4435.97
4435.6
4435.47
4435.22
4435.2
4435.07
4435.21
4435.19
4435.51
4435.51
4436.07
4436.07
4436.79
4436.79
4437.9
4438.78
4482.98
4595.02
47550.1
8261.39
7567.35
7000.06
6549.24
6195.91
5919.54
5700.87
5526.07
5383.76
5266.92
5169.18
5087.18
5017
4957.15
4904.94
4859.89
4819.94
4785.16
4753.87
4726.47
4701.48
4679.53
4659.23
4641.38
4624.67
4609.99
4596.08
4583.86
4572.13
4561.9
4551.94
4543.29
4534.76
4527.4
4520.04
4513.76
4507.39
4501.99
4496.43
4491.77
4486.95
4482.89
4478.63
4475.15
4471.41
4468.37
4465.06
4462.38
4459.51
4457.17
4454.67
4452.68
4450.51
4448.66
4446.78
4445.19
4443.52
4442.1
4440.62
4439.46
4438.26
4437.26
4436.15
4435.39
4434.42
4433.74
4432.86
4432.35
4431.64
4431.26
4430.64
4430.32
4429.77
4429.48
4428.93
4428.64
4428.18
4427.96
4427.59
4427.46
4427.19
4427.16
4427.02
4427.15
4427.11
4427.42
4427.42
4427.96
4427.96
4428.65
4428.65
4429.76
4430.67
4476.41
4588.58
44810.3
8261.4
7567.48
7000.06
6548.79
6194.82
5917.75
5698.42
5523
5380.15
5262.84
5164.68
5082.31
5011.81
4951.68
4899.22
4853.95
4813.8
4778.84
4747.39
4719.85
4694.72
4672.65
4652.25
4634.3
4617.5
4602.74
4588.74
4576.46
4564.67
4554.38
4544.35
4535.66
4527.07
4519.67
4512.26
4505.95
4499.54
4494.11
4488.51
4483.82
4478.96
4474.88
4470.6
4467.09
4463.33
4460.26
4456.93
4454.23
4451.34
4448.98
4446.46
4444.46
4442.27
4440.41
4438.51
4436.9
4435.22
4433.79
4432.3
4431.13
4429.9
4428.9
4427.78
4427.01
4426.03
4425.34
4424.45
4423.92
4423.2
4422.82
4422.19
4421.86
4421.3
4421.01
4420.46
4420.16
4419.69
4419.47
4419.09
4418.95
4418.68
4418.63
4418.47
4418.59
4418.55
4418.83
4418.83
4419.35
4419.35
4420.02
4420.02
4421.12
4422.07
4469.4
4581.75
42173.8
8261.41
7567.63
7000.06
6548.32
6193.68
5915.88
5695.84
5519.78
5376.35
5258.54
5159.94
5077.18
5006.34
4945.91
4893.18
4847.67
4807.31
4772.17
4740.54
4712.85
4687.58
4665.39
4644.87
4626.82
4609.92
4595.07
4580.99
4568.64
4556.77
4546.42
4536.33
4527.58
4518.94
4511.5
4504.04
4497.68
4491.23
4485.77
4480.13
4475.41
4470.52
4466.41
4462.09
4458.56
4454.77
4451.68
4448.33
4445.61
4442.69
4440.32
4437.78
4435.76
4433.55
4431.68
4429.76
4428.14
4426.44
4425
4423.49
4422.31
4421.07
4420.05
4418.92
4418.14
4417.14
4416.44
4415.55
4415.01
4414.28
4413.89
4413.25
4412.91
4412.35
4412.05
4411.49
4411.19
4410.71
4410.48
4410.09
4409.94
4409.66
4409.61
4409.43
4409.53
4409.48
4409.74
4409.74
4410.23
4410.24
4410.88
4410.88
4411.97
4412.96
4461.92
4574.5
39643.1
8261.42
7567.78
7000.07
6547.84
6192.49
5913.93
5693.14
5516.4
5372.37
5254.02
5154.95
5071.79
5000.58
4939.83
4886.83
4841.07
4800.48
4765.14
4733.33
4705.48
4680.06
4657.74
4637.09
4618.93
4601.93
4586.99
4572.82
4560.39
4548.44
4538.02
4527.87
4519.06
4510.37
4502.87
4495.37
4488.96
4482.47
4476.96
4471.29
4466.53
4461.61
4457.47
4453.12
4449.56
4445.74
4442.63
4439.25
4436.51
4433.57
4431.18
4428.61
4426.57
4424.35
4422.46
4420.52
4418.88
4417.17
4415.72
4414.19
4412.99
4411.74
4410.71
4409.56
4408.77
4407.77
4407.06
4406.15
4405.6
4404.86
4404.46
4403.81
4403.47
4402.89
4402.59
4402.02
4401.72
4401.23
4400.99
4400.59
4400.44
4400.15
4400.08
4399.89
4399.97
4399.91
4400.15
4400.14
4400.61
4400.62
4401.24
4401.24
4402.32
4403.35
4453.95
4566.79
37220.9
8261.43
7567.94
7000.08
6547.34
6191.26
5911.89
5690.32
5512.86
5368.19
5249.29
5149.72
5066.12
4994.54
4933.45
4880.15
4834.12
4793.3
4757.75
4725.75
4697.72
4672.15
4649.68
4628.91
4610.63
4593.51
4578.48
4564.22
4551.7
4539.68
4529.19
4518.97
4510.1
4501.34
4493.79
4486.23
4479.78
4473.24
4467.7
4461.98
4457.19
4452.22
4448.05
4443.67
4440.09
4436.24
4433.1
4429.69
4426.92
4423.96
4421.55
4418.96
4416.9
4414.65
4412.75
4410.78
4409.14
4407.4
4405.94
4404.4
4403.18
4401.91
4400.87
4399.71
4398.9
4397.89
4397.17
4396.25
4395.69
4394.93
4394.52
4393.86
4393.51
4392.93
4392.62
4392.05
4391.74
4391.24
4390.99
4390.58
4390.42
4390.12
4390.04
4389.83
4389.9
4389.83
4390.04
4390.03
4390.48
4390.48
4391.08
4391.08
4392.15
4393.22
4445.45
4558.6
34909
8261.45
7568.1
7000.1
6546.82
6189.98
5909.77
5687.38
5509.18
5363.83
5244.34
5144.25
5060.2
4988.21
4926.77
4873.15
4826.84
4785.77
4749.99
4717.79
4689.58
4663.84
4641.23
4620.32
4601.91
4584.68
4569.54
4555.18
4542.58
4530.47
4519.9
4509.61
4500.68
4491.85
4484.25
4476.63
4470.14
4463.54
4457.96
4452.2
4447.37
4442.36
4438.16
4433.74
4430.12
4426.24
4423.07
4419.64
4416.85
4413.86
4411.42
4408.81
4406.72
4404.46
4402.54
4400.55
4398.89
4397.13
4395.66
4394.1
4392.87
4391.58
4390.53
4389.35
4388.53
4387.5
4386.77
4385.83
4385.27
4384.5
4384.07
4383.4
4383.05
4382.46
4382.14
4381.56
4381.24
4380.73
4380.48
4380.06
4379.89
4379.58
4379.49
4379.26
4379.31
4379.22
4379.42
4379.4
4379.82
4379.82
4380.39
4380.39
4381.46
4382.57
4436.41
4549.87
32709.3
8261.46
7568.27
7000.12
6546.3
6188.66
5907.58
5684.33
5505.34
5359.29
5239.17
5138.54
5054
4981.59
4919.78
4865.82
4819.23
4777.88
4741.87
4709.46
4681.06
4655.14
4632.37
4611.31
4592.78
4575.43
4560.18
4545.71
4533.01
4520.82
4510.17
4499.8
4490.8
4481.91
4474.24
4466.57
4460.02
4453.37
4447.74
4441.93
4437.06
4432.02
4427.78
4423.32
4419.67
4415.76
4412.56
4409.1
4406.28
4403.26
4400.8
4398.16
4396.05
4393.76
4391.82
4389.82
4388.14
4386.36
4384.87
4383.29
4382.05
4380.73
4379.67
4378.47
4377.64
4376.59
4375.86
4374.91
4374.33
4373.54
4373.11
4372.43
4372.06
4371.46
4371.14
4370.55
4370.22
4369.7
4369.44
4369.01
4368.83
4368.51
4368.41
4368.17
4368.2
4368.1
4368.27
4368.24
4368.64
4368.64
4369.18
4369.18
4370.23
4371.4
4426.77
4540.58
30623.2
8261.47
7568.45
7000.14
6545.76
6187.3
5905.3
5681.16
5501.35
5354.56
5233.79
5132.58
5047.54
4974.68
4912.48
4858.17
4811.27
4769.65
4733.39
4700.74
4672.15
4646.04
4623.11
4601.9
4583.23
4565.74
4550.38
4535.8
4523.01
4510.71
4499.98
4489.53
4480.46
4471.49
4463.77
4456.03
4449.43
4442.72
4437.04
4431.19
4426.27
4421.18
4416.91
4412.41
4408.73
4404.77
4401.55
4398.05
4395.21
4392.16
4389.67
4387.01
4384.87
4382.56
4380.6
4378.57
4376.87
4375.08
4373.57
4371.97
4370.71
4369.38
4368.3
4367.08
4366.24
4365.17
4364.43
4363.46
4362.87
4362.07
4361.62
4360.93
4360.55
4359.94
4359.61
4359.02
4358.68
4358.15
4357.88
4357.44
4357.25
4356.92
4356.8
4356.55
4356.56
4356.44
4356.59
4356.56
4356.92
4356.92
4357.43
4357.43
4358.48
4359.69
4416.5
4530.67
28652.2
8261.48
7568.63
7000.17
6545.21
6185.9
5902.96
5677.88
5497.21
5349.65
5228.2
5126.39
5040.82
4967.49
4904.87
4850.2
4802.97
4761.05
4724.54
4691.65
4662.85
4636.55
4613.44
4592.06
4573.25
4555.63
4540.14
4525.45
4512.55
4500.16
4489.34
4478.8
4469.65
4460.61
4452.82
4445.01
4438.35
4431.59
4425.86
4419.95
4414.99
4409.85
4405.54
4401
4397.28
4393.29
4390.03
4386.51
4383.63
4380.55
4378.04
4375.34
4373.18
4370.85
4368.87
4366.81
4365.1
4363.27
4361.75
4360.13
4358.85
4357.49
4356.41
4355.17
4354.31
4353.23
4352.47
4351.49
4350.88
4350.06
4349.61
4348.9
4348.51
4347.89
4347.55
4346.95
4346.61
4346.07
4345.79
4345.33
4345.13
4344.79
4344.66
4344.4
4344.38
4344.25
4344.38
4344.33
4344.67
4344.67
4345.14
4345.14
4346.18
4347.44
4405.58
4520.11
26797.4
8261.48
7568.82
7000.21
6544.66
6184.46
5900.54
5674.5
5492.93
5344.56
5222.4
5119.95
5033.83
4960.01
4896.96
4841.9
4794.33
4752.11
4715.32
4682.18
4653.15
4626.65
4603.36
4581.81
4562.84
4545.08
4529.46
4514.65
4501.64
4489.14
4478.23
4467.6
4458.37
4449.25
4441.39
4433.52
4426.79
4419.97
4414.19
4408.23
4403.22
4398.03
4393.67
4389.09
4385.33
4381.3
4378.01
4374.45
4371.54
4368.43
4365.89
4363.16
4360.98
4358.61
4356.61
4354.53
4352.79
4350.95
4349.41
4347.76
4346.47
4345.09
4343.99
4342.73
4341.85
4340.75
4339.98
4338.98
4338.36
4337.53
4337.06
4336.33
4335.94
4335.31
4334.96
4334.35
4333.99
4333.44
4333.15
4332.69
4332.48
4332.11
4331.98
4331.7
4331.67
4331.51
4331.62
4331.56
4331.87
4331.86
4332.3
4332.3
4333.33
4334.64
4393.99
4508.86
25059.8
8261.49
7569.02
7000.25
6544.1
6182.99
5898.05
5671
5488.5
5339.29
5216.38
5113.28
5026.58
4952.24
4888.75
4833.28
4785.35
4742.8
4705.73
4672.33
4643.07
4616.35
4592.86
4571.14
4552.01
4534.09
4518.34
4503.4
4490.28
4477.67
4466.66
4455.94
4446.62
4437.42
4429.49
4421.54
4414.75
4407.86
4402.02
4396
4390.94
4385.7
4381.31
4376.68
4372.88
4368.81
4365.48
4361.88
4358.94
4355.79
4353.22
4350.46
4348.25
4345.86
4343.83
4341.72
4339.97
4338.09
4336.54
4334.87
4333.55
4332.15
4331.03
4329.75
4328.86
4327.74
4326.95
4325.94
4325.31
4324.45
4323.97
4323.23
4322.82
4322.18
4321.83
4321.2
4320.84
4320.27
4319.97
4319.49
4319.27
4318.9
4318.75
4318.46
4318.41
4318.23
4318.31
4318.24
4318.52
4318.51
4318.92
4318.91
4319.93
4321.29
4381.73
4496.88
23440.3
8261.5
7569.22
7000.31
6543.53
6181.49
5895.5
5667.4
5483.93
5333.85
5210.16
5106.37
5019.07
4944.19
4880.22
4824.33
4776.03
4733.14
4695.77
4662.09
4632.59
4605.64
4581.95
4560.04
4540.75
4522.67
4506.78
4491.7
4478.46
4465.74
4454.63
4443.8
4434.39
4425.11
4417.1
4409.07
4402.22
4395.26
4389.36
4383.28
4378.17
4372.87
4368.43
4363.75
4359.91
4355.8
4352.43
4348.79
4345.82
4342.64
4340.04
4337.24
4335
4332.57
4330.53
4328.39
4326.61
4324.71
4323.14
4321.44
4320.1
4318.67
4317.54
4316.23
4315.33
4314.19
4313.39
4312.35
4311.71
4310.83
4310.34
4309.58
4309.16
4308.51
4308.14
4307.51
4307.14
4306.56
4306.25
4305.75
4305.52
4305.13
4304.97
4304.66
4304.6
4304.4
4304.46
4304.36
4304.61
4304.61
4304.98
4304.97
4305.97
4307.38
4368.79
4484.13
21935.2
8261.5
7569.42
7000.36
6542.96
6179.96
5892.88
5663.71
5479.23
5328.23
5203.74
5099.23
5011.3
4935.86
4871.4
4815.06
4766.37
4723.13
4685.44
4651.48
4621.71
4594.53
4570.63
4548.52
4529.05
4510.81
4494.77
4479.55
4466.19
4453.34
4442.12
4431.19
4421.69
4412.31
4404.22
4396.11
4389.19
4382.16
4376.19
4370.05
4364.89
4359.54
4355.04
4350.31
4346.43
4342.27
4338.86
4335.18
4332.18
4328.95
4326.32
4323.49
4321.22
4318.76
4316.69
4314.52
4312.72
4310.79
4309.2
4307.47
4306.12
4304.66
4303.51
4302.18
4301.25
4300.09
4299.28
4298.22
4297.56
4296.67
4296.16
4295.38
4294.95
4294.28
4293.91
4293.27
4292.88
4292.29
4291.97
4291.46
4291.21
4290.81
4290.64
4290.31
4290.23
4290.01
4290.04
4289.93
4290.15
4290.14
4290.48
4290.46
4291.45
4292.9
4355.18
4470.58
20539.7
8261.5
7569.63
7000.43
6542.38
6178.4
5890.21
5659.91
5474.4
5322.45
5197.12
5091.86
5003.27
4927.25
4862.27
4805.47
4756.37
4712.76
4674.74
4640.48
4610.45
4583.01
4558.9
4536.58
4516.92
4498.51
4482.31
4466.94
4453.45
4440.47
4429.14
4418.1
4408.51
4399.03
4390.85
4382.66
4375.66
4368.56
4362.53
4356.32
4351.1
4345.69
4341.14
4336.36
4332.43
4328.22
4324.77
4321.05
4318.01
4314.74
4312.08
4309.21
4306.9
4304.41
4302.31
4300.11
4298.29
4296.33
4294.72
4292.96
4291.59
4290.1
4288.93
4287.57
4286.63
4285.45
4284.62
4283.54
4282.87
4281.95
4281.42
4280.63
4280.19
4279.51
4279.12
4278.46
4278.07
4277.46
4277.13
4276.61
4276.35
4275.92
4275.74
4275.4
4275.3
4275.06
4275.07
4274.94
4275.13
4275.11
4275.42
4275.38
4276.37
4277.86
4340.89
4456.2
19249
8261.5
7569.85
7000.51
6541.81
6176.82
5887.47
5656.03
5469.43
5316.51
5190.3
5084.27
4994.99
4918.36
4852.84
4795.56
4746.03
4702.03
4663.67
4629.09
4598.78
4571.09
4546.74
4524.21
4504.36
4485.76
4469.41
4453.88
4440.25
4427.14
4415.69
4404.53
4394.84
4385.26
4377
4368.72
4361.64
4354.46
4348.36
4342.08
4336.8
4331.32
4326.73
4321.89
4317.91
4313.65
4310.16
4306.39
4303.31
4300
4297.3
4294.39
4292.05
4289.53
4287.4
4285.16
4283.31
4281.32
4279.69
4277.9
4276.51
4274.99
4273.81
4272.42
4271.46
4270.25
4269.41
4268.31
4267.61
4266.68
4266.14
4265.33
4264.87
4264.17
4263.77
4263.1
4262.7
4262.08
4261.73
4261.19
4260.92
4260.48
4260.28
4259.92
4259.81
4259.55
4259.54
4259.38
4259.54
4259.52
4259.79
4259.74
4260.71
4262.24
4325.91
4440.94
18057.8
8261.5
7570.06
7000.59
6541.23
6175.21
5884.69
5652.05
5464.34
5310.4
5183.29
5076.45
4986.46
4909.2
4843.12
4785.34
4735.36
4690.96
4652.24
4617.33
4586.73
4558.77
4534.18
4511.42
4491.37
4472.58
4456.06
4440.37
4426.59
4413.34
4401.77
4390.49
4380.69
4371.01
4362.65
4354.28
4347.12
4339.85
4333.68
4327.33
4321.99
4316.44
4311.79
4306.89
4302.86
4298.55
4295.02
4291.2
4288.08
4284.72
4281.99
4279.04
4276.66
4274.1
4271.95
4269.67
4267.8
4265.77
4264.12
4262.3
4260.88
4259.33
4258.13
4256.72
4255.73
4254.5
4253.64
4252.52
4251.81
4250.85
4250.29
4249.46
4248.99
4248.27
4247.87
4247.18
4246.77
4246.13
4245.77
4245.21
4244.93
4244.47
4244.26
4243.88
4243.75
4243.47
4243.43
4243.25
4243.38
4243.35
4243.59
4243.52
4244.48
4246.04
4310.24
4424.79
16960.7
8261.5
7570.28
7000.68
6540.66
6173.59
5881.86
5648
5459.14
5304.14
5176.1
5068.41
4977.69
4899.76
4833.1
4774.8
4724.36
4679.53
4640.44
4605.19
4574.29
4546.04
4521.2
4498.2
4477.95
4458.96
4442.26
4426.4
4412.47
4399.08
4387.38
4375.97
4366.06
4356.26
4347.81
4339.34
4332.09
4324.74
4318.5
4312.07
4306.66
4301.05
4296.34
4291.38
4287.29
4282.93
4279.34
4275.48
4272.31
4268.91
4266.14
4263.14
4260.73
4258.13
4255.95
4253.63
4251.73
4249.67
4248
4246.15
4244.7
4243.12
4241.9
4240.46
4239.45
4238.19
4237.31
4236.17
4235.44
4234.46
4233.88
4233.03
4232.54
4231.81
4231.39
4230.69
4230.26
4229.61
4229.23
4228.66
4228.36
4227.88
4227.66
4227.26
4227.12
4226.82
4226.76
4226.55
4226.65
4226.61
4226.81
4226.73
4227.68
4229.26
4293.87
4407.7
15952
8261.5
7570.51
7000.78
6540.09
6171.96
5878.98
5643.86
5453.81
5297.73
5168.72
5060.17
4968.68
4890.06
4822.8
4763.95
4713.03
4667.76
4628.28
4592.68
4561.45
4532.91
4507.81
4484.57
4464.09
4444.89
4428.01
4411.97
4397.89
4384.34
4372.51
4360.97
4350.94
4341.03
4332.48
4323.9
4316.57
4309.13
4302.81
4296.3
4290.82
4285.13
4280.36
4275.34
4271.2
4266.77
4263.14
4259.22
4256.01
4252.57
4249.75
4246.71
4244.26
4241.62
4239.4
4237.05
4235.12
4233.03
4231.32
4229.44
4227.97
4226.35
4225.11
4223.64
4222.61
4221.32
4220.43
4219.26
4218.51
4217.5
4216.9
4216.03
4215.53
4214.78
4214.35
4213.63
4213.19
4212.52
4212.13
4211.54
4211.23
4210.73
4210.49
4210.07
4209.91
4209.6
4209.51
4209.27
4209.35
4209.29
4209.46
4209.36
4210.29
4211.9
4276.81
4389.66
15025.9
8261.49
7570.74
7000.89
6539.52
6170.31
5876.06
5639.65
5448.38
5291.18
5161.16
5051.71
4959.42
4880.1
4812.21
4752.79
4701.37
4655.65
4615.76
4579.79
4548.23
4519.38
4494.01
4470.51
4449.81
4430.39
4413.31
4397.09
4382.85
4369.14
4357.17
4345.49
4335.34
4325.31
4316.65
4307.97
4300.54
4293.01
4286.61
4280.02
4274.46
4268.7
4263.87
4258.77
4254.58
4250.09
4246.41
4242.43
4239.18
4235.68