/*--------------------------------*- C++ -*----------------------------------*\
| =========                 |                                                 |
| \\      /  F ield         | OpenFOAM: The Open Source CFD Toolbox           |
|  \\    /   O peration     | Version:  v2012                                 |
|   \\  /    A nd           | Website:  www.openfoam.com                      |
|    \\/     M anipulation  |                                                 |
\*---------------------------------------------------------------------------*/
FoamFile
{
    version     2.0;
    format      ascii;
    class       volScalarField;
    location    "57.5";
    object      k;
}
// * * * * * * * * * * * * * * * * * * * * * * * * * * * * * * * * * * * * * //

dimensions      [0 2 -2 0 0 0 0];


internalField   nonuniform List<scalar> 
209825
(
0.0010239
0.000932298
0.00085668
0.000793206
0.00073985
0.000695011
0.000657507
0.000626049
0.000599671
0.00057737
0.000558479
0.000542306
0.000528432
0.000516401
0.00050595
0.000496784
0.000488729
0.000481597
0.000475263
0.000469611
0.000464542
0.000459991
0.000455871
0.000452158
0.000448764
0.000445698
0.000442868
0.000440309
0.000437926
0.000435772
0.000433743
0.000431916
0.000430176
0.000428615
0.000427111
0.00042577
0.000424461
0.000423302
0.000422157
0.00042115
0.000420142
0.000419265
0.000418373
0.000417606
0.000416814
0.000416142
0.000415435
0.000414845
0.000414212
0.000413693
0.000413124
0.000412667
0.000412153
0.000411749
0.000411287
0.000410927
0.000410512
0.000410192
0.000409819
0.000409534
0.000409196
0.000408945
0.000408637
0.000408415
0.000408137
0.000407939
0.000407686
0.00040751
0.000407282
0.000407126
0.000406918
0.000406778
0.000406593
0.000406471
0.000406299
0.000406184
0.000406021
0.000405913
0.000405757
0.000405655
0.000405506
0.00040541
0.000405269
0.000405179
0.000405047
0.000404963
0.000404841
0.000404768
0.00040465
0.000404592
0.000404502
0.000404366
0.000404458
0.000410903
0.000431605
0.00103852
0.0010239
0.000932298
0.00085668
0.000793206
0.00073985
0.000695011
0.000657507
0.000626048
0.000599669
0.000577368
0.000558476
0.000542303
0.000528428
0.000516396
0.000505945
0.000496778
0.000488724
0.000481591
0.000475257
0.000469604
0.000464535
0.000459984
0.000455864
0.00045215
0.000448756
0.000445689
0.00044286
0.000440301
0.000437917
0.000435763
0.000433735
0.000431907
0.000430167
0.000428606
0.000427102
0.00042576
0.000424452
0.000423293
0.000422148
0.00042114
0.000420133
0.000419256
0.000418363
0.000417596
0.000416804
0.000416132
0.000415425
0.000414835
0.000414202
0.000413683
0.000413113
0.000412657
0.000412143
0.000411738
0.000411277
0.000410917
0.000410502
0.000410182
0.000409808
0.000409524
0.000409185
0.000408934
0.000408627
0.000408405
0.000408126
0.000407928
0.000407675
0.0004075
0.000407272
0.000407115
0.000406908
0.000406767
0.000406582
0.00040646
0.000406288
0.000406173
0.00040601
0.000405902
0.000405746
0.000405644
0.000405495
0.000405399
0.000405258
0.000405168
0.000405036
0.000404952
0.00040483
0.000404757
0.000404639
0.000404581
0.00040449
0.000404355
0.000404447
0.000410904
0.0004316
0.0010391
0.0010239
0.000932298
0.00085668
0.000793206
0.00073985
0.000695009
0.000657503
0.000626042
0.000599661
0.000577357
0.000558463
0.000542288
0.00052841
0.000516377
0.000505924
0.000496756
0.0004887
0.000481565
0.00047523
0.000469576
0.000464506
0.000459954
0.000455833
0.000452119
0.000448724
0.000445657
0.000442826
0.000440267
0.000437882
0.000435728
0.000433699
0.000431871
0.000430131
0.00042857
0.000427065
0.000425723
0.000424414
0.000423255
0.000422109
0.000421102
0.000420094
0.000419216
0.000418324
0.000417557
0.000416764
0.000416092
0.000415385
0.000414794
0.000414161
0.000413642
0.000413072
0.000412616
0.000412102
0.000411697
0.000411235
0.000410875
0.00041046
0.00041014
0.000409766
0.000409481
0.000409143
0.000408892
0.000408584
0.000408362
0.000408084
0.000407885
0.000407632
0.000407457
0.000407229
0.000407072
0.000406865
0.000406724
0.000406539
0.000406417
0.000406245
0.00040613
0.000405966
0.000405859
0.000405703
0.000405601
0.000405452
0.000405356
0.000405214
0.000405124
0.000404993
0.000404908
0.000404786
0.000404713
0.000404595
0.000404537
0.000404446
0.000404311
0.000404404
0.000410884
0.000431567
0.00104027
0.0010239
0.000932298
0.000856681
0.000793207
0.00073985
0.000695007
0.000657498
0.000626032
0.000599647
0.000577339
0.000558441
0.000542262
0.000528381
0.000516344
0.000505889
0.000496717
0.000488659
0.000481522
0.000475185
0.000469529
0.000464457
0.000459904
0.000455782
0.000452066
0.00044867
0.000445601
0.00044277
0.00044021
0.000437824
0.000435669
0.000433639
0.000431811
0.00043007
0.000428508
0.000427002
0.00042566
0.000424351
0.00042319
0.000422045
0.000421037
0.000420028
0.000419151
0.000418258
0.00041749
0.000416697
0.000416025
0.000415317
0.000414726
0.000414093
0.000413574
0.000413004
0.000412547
0.000412033
0.000411628
0.000411166
0.000410805
0.00041039
0.00041007
0.000409696
0.000409411
0.000409073
0.000408821
0.000408513
0.000408291
0.000408012
0.000407814
0.000407561
0.000407385
0.000407157
0.000407
0.000406793
0.000406652
0.000406467
0.000406344
0.000406172
0.000406057
0.000405894
0.000405786
0.00040563
0.000405528
0.000405379
0.000405282
0.000405141
0.000405051
0.000404919
0.000404834
0.000404713
0.000404639
0.000404521
0.000404463
0.000404372
0.000404237
0.000404331
0.000410848
0.000431511
0.00104181
0.00102389
0.000932298
0.000856681
0.000793208
0.00073985
0.000695004
0.00065749
0.000626019
0.000599627
0.000577314
0.000558409
0.000542225
0.00052834
0.000516298
0.000505838
0.000496664
0.000488602
0.000481462
0.000475122
0.000469463
0.000464389
0.000459834
0.000455709
0.000451992
0.000448593
0.000445523
0.00044269
0.000440129
0.000437742
0.000435586
0.000433555
0.000431725
0.000429983
0.00042842
0.000426914
0.000425571
0.000424261
0.0004231
0.000421953
0.000420945
0.000419936
0.000419058
0.000418164
0.000417396
0.000416603
0.00041593
0.000415222
0.000414631
0.000413997
0.000413477
0.000412907
0.00041245
0.000411935
0.00041153
0.000411067
0.000410707
0.000410291
0.000409971
0.000409597
0.000409312
0.000408973
0.000408721
0.000408413
0.000408191
0.000407912
0.000407713
0.00040746
0.000407284
0.000407056
0.000406899
0.000406691
0.00040655
0.000406365
0.000406242
0.00040607
0.000405955
0.000405791
0.000405683
0.000405527
0.000405425
0.000405276
0.000405179
0.000405038
0.000404947
0.000404816
0.00040473
0.000404609
0.000404535
0.000404417
0.000404358
0.000404268
0.000404132
0.000404228
0.000410796
0.000431432
0.00104355
0.00102389
0.000932298
0.000856682
0.00079321
0.000739849
0.000694999
0.000657479
0.000626001
0.000599602
0.000577281
0.000558369
0.000542178
0.000528286
0.000516239
0.000505774
0.000496594
0.000488527
0.000481383
0.000475039
0.000469378
0.0004643
0.000459742
0.000455615
0.000451895
0.000448494
0.000445422
0.000442587
0.000440024
0.000437636
0.000435478
0.000433445
0.000431615
0.000429871
0.000428307
0.0004268
0.000425455
0.000424145
0.000422983
0.000421835
0.000420826
0.000419816
0.000418937
0.000418043
0.000417274
0.000416481
0.000415807
0.000415098
0.000414507
0.000413872
0.000413352
0.000412781
0.000412324
0.000411809
0.000411403
0.00041094
0.00041058
0.000410163
0.000409843
0.000409468
0.000409183
0.000408844
0.000408592
0.000408283
0.000408061
0.000407781
0.000407583
0.000407329
0.000407153
0.000406924
0.000406767
0.000406559
0.000406418
0.000406233
0.00040611
0.000405938
0.000405822
0.000405658
0.00040555
0.000405394
0.000405291
0.000405142
0.000405045
0.000404904
0.000404813
0.000404681
0.000404596
0.000404474
0.000404401
0.000404282
0.000404223
0.000404133
0.000403997
0.000404094
0.00041073
0.000431328
0.00104543
0.00102389
0.000932298
0.000856684
0.000793212
0.000739849
0.000694994
0.000657466
0.00062598
0.000599571
0.00057724
0.00055832
0.00054212
0.00052822
0.000516166
0.000505694
0.000496508
0.000488436
0.000481287
0.000474938
0.000469272
0.000464191
0.000459629
0.000455498
0.000451776
0.000448373
0.000445298
0.000442461
0.000439895
0.000437505
0.000435345
0.000433311
0.000431478
0.000429733
0.000428168
0.000426659
0.000425313
0.000424001
0.000422839
0.00042169
0.00042068
0.000419669
0.000418789
0.000417894
0.000417124
0.00041633
0.000415655
0.000414946
0.000414354
0.000413719
0.000413198
0.000412627
0.000412169
0.000411653
0.000411247
0.000410783
0.000410422
0.000410006
0.000409684
0.000409309
0.000409024
0.000408684
0.000408432
0.000408123
0.0004079
0.000407621
0.000407422
0.000407168
0.000406991
0.000406762
0.000406605
0.000406397
0.000406255
0.00040607
0.000405947
0.000405774
0.000405659
0.000405495
0.000405386
0.000405229
0.000405127
0.000404977
0.000404881
0.000404739
0.000404648
0.000404516
0.00040443
0.000404308
0.000404234
0.000404116
0.000404057
0.000403966
0.00040383
0.000403929
0.000410648
0.000431202
0.00104737
0.00102389
0.000932298
0.000856685
0.000793214
0.000739849
0.000694988
0.000657451
0.000625954
0.000599534
0.000577192
0.000558261
0.000542051
0.000528142
0.000516078
0.000505599
0.000496405
0.000488327
0.000481172
0.000474818
0.000469147
0.000464061
0.000459495
0.00045536
0.000451634
0.000448227
0.00044515
0.000442309
0.000439741
0.000437348
0.000435186
0.00043315
0.000431316
0.000429569
0.000428002
0.000426491
0.000425144
0.00042383
0.000422666
0.000421516
0.000420505
0.000419493
0.000418612
0.000417716
0.000416946
0.00041615
0.000415475
0.000414765
0.000414171
0.000413536
0.000413014
0.000412442
0.000411984
0.000411467
0.00041106
0.000410596
0.000410235
0.000409818
0.000409496
0.00040912
0.000408834
0.000408494
0.000408242
0.000407932
0.000407709
0.000407429
0.00040723
0.000406975
0.000406799
0.000406569
0.000406412
0.000406203
0.000406061
0.000405876
0.000405752
0.000405579
0.000405464
0.000405299
0.00040519
0.000405033
0.000404931
0.000404781
0.000404684
0.000404542
0.000404451
0.000404318
0.000404233
0.00040411
0.000404036
0.000403917
0.000403858
0.000403767
0.000403632
0.000403733
0.000410552
0.000431051
0.00104926
0.00102389
0.000932297
0.000856687
0.000793216
0.000739849
0.00069498
0.000657434
0.000625924
0.000599491
0.000577136
0.000558192
0.000541971
0.00052805
0.000515977
0.000505488
0.000496286
0.0004882
0.000481038
0.000474677
0.000469001
0.000463909
0.000459338
0.000455199
0.000451469
0.000448058
0.000444977
0.000442133
0.000439562
0.000437166
0.000435002
0.000432963
0.000431126
0.000429377
0.000427808
0.000426296
0.000424947
0.000423632
0.000422466
0.000421314
0.000420302
0.000419288
0.000418406
0.000417509
0.000416737
0.000415941
0.000415264
0.000414553
0.000413959
0.000413322
0.0004128
0.000412227
0.000411768
0.000411251
0.000410843
0.000410379
0.000410016
0.000409598
0.000409276
0.0004089
0.000408614
0.000408273
0.00040802
0.00040771
0.000407487
0.000407206
0.000407006
0.000406751
0.000406574
0.000406344
0.000406187
0.000405977
0.000405836
0.000405649
0.000405526
0.000405352
0.000405236
0.000405071
0.000404963
0.000404805
0.000404702
0.000404552
0.000404455
0.000404312
0.000404221
0.000404088
0.000404002
0.000403879
0.000403805
0.000403686
0.000403626
0.000403536
0.0004034
0.000403504
0.000410442
0.000430876
0.00105089
0.00102389
0.000932297
0.000856689
0.000793219
0.000739849
0.000694972
0.000657414
0.00062589
0.000599443
0.000577073
0.000558114
0.000541879
0.000527946
0.000515861
0.000505362
0.00049615
0.000488055
0.000480885
0.000474517
0.000468834
0.000463736
0.000459159
0.000455015
0.00045128
0.000447865
0.00044478
0.000441932
0.000439358
0.000436958
0.000434791
0.000432749
0.00043091
0.000429158
0.000427587
0.000426072
0.000424721
0.000423404
0.000422237
0.000421083
0.000420069
0.000419054
0.000418171
0.000417272
0.000416499
0.000415701
0.000415024
0.000414311
0.000413716
0.000413078
0.000412555
0.000411981
0.000411521
0.000411003
0.000410595
0.00041013
0.000409767
0.000409348
0.000409025
0.000408648
0.000408361
0.00040802
0.000407767
0.000407456
0.000407232
0.00040695
0.00040675
0.000406495
0.000406317
0.000406087
0.000405929
0.000405719
0.000405577
0.00040539
0.000405267
0.000405093
0.000404976
0.000404811
0.000404702
0.000404544
0.000404441
0.00040429
0.000404193
0.00040405
0.000403958
0.000403825
0.000403739
0.000403615
0.000403541
0.000403421
0.000403361
0.000403271
0.000403135
0.000403243
0.000410318
0.000430677
0.00105199
0.00102389
0.000932297
0.000856691
0.000793223
0.000739848
0.000694963
0.000657392
0.000625852
0.000599388
0.000577001
0.000558027
0.000541776
0.000527829
0.000515731
0.00050522
0.000495997
0.000487892
0.000480713
0.000474337
0.000468646
0.000463541
0.000458958
0.000454808
0.000451067
0.000447647
0.000444557
0.000441705
0.000439127
0.000436724
0.000434553
0.000432508
0.000430666
0.000428911
0.000427337
0.00042582
0.000424467
0.000423147
0.000421978
0.000420823
0.000419807
0.00041879
0.000417905
0.000417004
0.00041623
0.000415431
0.000414752
0.000414039
0.000413442
0.000412803
0.000412279
0.000411704
0.000411243
0.000410724
0.000410315
0.000409848
0.000409485
0.000409065
0.000408742
0.000408364
0.000408076
0.000407734
0.00040748
0.000407169
0.000406944
0.000406662
0.000406462
0.000406206
0.000406028
0.000405797
0.000405638
0.000405428
0.000405285
0.000405098
0.000404974
0.0004048
0.000404683
0.000404517
0.000404408
0.000404249
0.000404146
0.000403995
0.000403897
0.000403753
0.000403662
0.000403528
0.000403442
0.000403318
0.000403243
0.000403123
0.000403062
0.000402971
0.000402836
0.000402948
0.000410181
0.000430454
0.00105219
0.00102389
0.000932297
0.000856694
0.000793226
0.000739848
0.000694953
0.000657367
0.00062581
0.000599327
0.000576922
0.000557929
0.000541662
0.000527699
0.000515587
0.000505062
0.000495827
0.000487711
0.000480521
0.000474136
0.000468436
0.000463324
0.000458734
0.000454577
0.00045083
0.000447404
0.000444309
0.000441453
0.00043887
0.000436463
0.000434288
0.000432239
0.000430394
0.000428636
0.000427059
0.000425539
0.000424183
0.000422861
0.00042169
0.000420532
0.000419514
0.000418495
0.000417609
0.000416706
0.000415931
0.000415129
0.000414449
0.000413734
0.000413137
0.000412496
0.000411971
0.000411395
0.000410933
0.000410412
0.000410003
0.000409535
0.00040917
0.00040875
0.000408426
0.000408047
0.000407758
0.000407415
0.000407161
0.000406849
0.000406623
0.000406341
0.00040614
0.000405883
0.000405704
0.000405473
0.000405314
0.000405103
0.00040496
0.000404772
0.000404648
0.000404473
0.000404356
0.000404189
0.000404079
0.000403921
0.000403817
0.000403665
0.000403567
0.000403423
0.000403331
0.000403196
0.00040311
0.000402985
0.000402911
0.00040279
0.000402729
0.000402638
0.000402503
0.000402619
0.000410031
0.000430205
0.00105115
0.00102389
0.000932296
0.000856697
0.00079323
0.000739848
0.000694942
0.000657341
0.000625764
0.000599261
0.000576835
0.000557822
0.000541536
0.000527556
0.000515427
0.000504887
0.000495639
0.000487511
0.00048031
0.000473914
0.000468205
0.000463084
0.000458486
0.000454321
0.000450568
0.000447136
0.000444035
0.000441174
0.000438586
0.000436174
0.000433995
0.000431942
0.000430093
0.000428332
0.000426751
0.000425229
0.00042387
0.000422545
0.000421371
0.000420211
0.000419191
0.00041817
0.000417281
0.000416377
0.000415599
0.000414796
0.000414115
0.000413398
0.000412799
0.000412157
0.000411631
0.000411053
0.00041059
0.000410068
0.000409657
0.000409188
0.000408823
0.000408401
0.000408076
0.000407696
0.000407407
0.000407063
0.000406808
0.000406495
0.000406269
0.000405985
0.000405784
0.000405526
0.000405347
0.000405115
0.000404955
0.000404744
0.0004046
0.000404412
0.000404287
0.000404111
0.000403994
0.000403827
0.000403717
0.000403557
0.000403453
0.0004033
0.000403202
0.000403057
0.000402965
0.00040283
0.000402743
0.000402618
0.000402543
0.000402421
0.00040236
0.000402269
0.000402134
0.000402255
0.000409868
0.000429932
0.00104889
0.00102389
0.000932296
0.0008567
0.000793235
0.000739848
0.00069493
0.000657311
0.000625714
0.000599188
0.00057674
0.000557705
0.000541398
0.000527399
0.000515253
0.000504697
0.000495434
0.000487292
0.000480078
0.000473671
0.000467952
0.000462821
0.000458214
0.000454042
0.000450281
0.000446842
0.000443735
0.000440868
0.000438274
0.000435857
0.000433674
0.000431616
0.000429763
0.000427998
0.000426414
0.000424888
0.000423526
0.000422198
0.000421022
0.000419859
0.000418836
0.000417812
0.000416922
0.000416015
0.000415236
0.000414431
0.000413748
0.000413029
0.000412429
0.000411785
0.000411257
0.000410678
0.000410213
0.00040969
0.000409278
0.000408808
0.000408442
0.000408019
0.000407693
0.000407312
0.000407022
0.000406677
0.000406421
0.000406106
0.00040588
0.000405595
0.000405393
0.000405134
0.000404955
0.000404722
0.000404562
0.000404349
0.000404206
0.000404016
0.000403891
0.000403715
0.000403597
0.000403429
0.000403318
0.000403158
0.000403054
0.0004029
0.000402802
0.000402656
0.000402564
0.000402428
0.000402341
0.000402215
0.00040214
0.000402017
0.000401955
0.000401864
0.000401729
0.000401856
0.000409691
0.000429632
0.00104541
0.00102389
0.000932295
0.000856703
0.00079324
0.000739848
0.000694918
0.00065728
0.00062566
0.00059911
0.000576637
0.000557578
0.000541249
0.000527229
0.000515063
0.00050449
0.00049521
0.000487054
0.000479827
0.000473407
0.000467676
0.000462535
0.000457919
0.000453738
0.000449969
0.000446523
0.000443409
0.000440534
0.000437935
0.000435513
0.000433324
0.000431262
0.000429404
0.000427635
0.000426047
0.000424517
0.000423152
0.000421821
0.000420641
0.000419475
0.00041845
0.000417423
0.00041653
0.000415621
0.00041484
0.000414033
0.000413348
0.000412627
0.000412025
0.000411379
0.00041085
0.000410269
0.000409803
0.000409279
0.000408865
0.000408394
0.000408026
0.000407602
0.000407275
0.000406892
0.000406602
0.000406255
0.000405998
0.000405683
0.000405456
0.00040517
0.000404967
0.000404708
0.000404527
0.000404293
0.000404133
0.00040392
0.000403775
0.000403585
0.000403459
0.000403282
0.000403164
0.000402995
0.000402884
0.000402723
0.000402618
0.000402464
0.000402365
0.000402219
0.000402126
0.000401989
0.000401902
0.000401775
0.0004017
0.000401576
0.000401514
0.000401422
0.000401288
0.000401422
0.000409501
0.000429305
0.00104075
0.00102389
0.000932295
0.000856706
0.000793245
0.000739849
0.000694905
0.000657247
0.000625602
0.000599026
0.000576526
0.000557442
0.000541088
0.000527045
0.000514859
0.000504266
0.000494969
0.000486796
0.000479555
0.000473122
0.000467378
0.000462226
0.000457599
0.000453409
0.000449631
0.000446176
0.000443055
0.000440174
0.000437568
0.000435139
0.000432945
0.000430878
0.000429015
0.000427241
0.000425649
0.000424115
0.000422746
0.000421411
0.000420228
0.000419059
0.000418031
0.000417002
0.000416106
0.000415195
0.000414411
0.000413601
0.000412914
0.000412191
0.000411587
0.00041094
0.000410409
0.000409826
0.000409358
0.000408832
0.000408418
0.000407944
0.000407576
0.00040715
0.000406822
0.000406438
0.000406146
0.000405798
0.000405541
0.000405224
0.000404996
0.000404709
0.000404506
0.000404245
0.000404064
0.000403829
0.000403668
0.000403454
0.000403309
0.000403118
0.000402992
0.000402814
0.000402695
0.000402525
0.000402414
0.000402252
0.000402146
0.000401992
0.000401892
0.000401745
0.000401652
0.000401514
0.000401427
0.000401298
0.000401223
0.000401099
0.000401036
0.000400944
0.00040081
0.00040095
0.000409298
0.000428949
0.00103493
0.00102389
0.000932294
0.00085671
0.000793251
0.000739849
0.00069489
0.000657211
0.00062554
0.000598935
0.000576407
0.000557295
0.000540915
0.000526848
0.000514639
0.000504025
0.000494709
0.000486519
0.000479262
0.000472814
0.000467058
0.000461893
0.000457255
0.000453054
0.000449267
0.000445804
0.000442674
0.000439785
0.000437172
0.000434737
0.000432537
0.000430464
0.000428596
0.000426817
0.000425221
0.000423682
0.000422309
0.00042097
0.000419784
0.000418611
0.00041758
0.000416547
0.000415649
0.000414734
0.000413948
0.000413136
0.000412447
0.000411721
0.000411115
0.000410465
0.000409933
0.000409348
0.000408879
0.000408351
0.000407935
0.00040746
0.00040709
0.000406662
0.000406333
0.000405948
0.000405655
0.000405306
0.000405047
0.000404729
0.0004045
0.000404212
0.000404008
0.000403746
0.000403564
0.000403328
0.000403166
0.000402951
0.000402805
0.000402614
0.000402487
0.000402308
0.000402188
0.000402018
0.000401906
0.000401743
0.000401637
0.000401482
0.000401382
0.000401234
0.00040114
0.000401001
0.000400913
0.000400784
0.000400708
0.000400583
0.00040052
0.000400427
0.000400294
0.000400442
0.00040908
0.000428565
0.00102798
0.00102389
0.000932293
0.000856713
0.000793257
0.000739849
0.000694876
0.000657173
0.000625474
0.000598839
0.00057628
0.000557139
0.00054073
0.000526637
0.000514404
0.000503768
0.000494432
0.000486223
0.000478948
0.000472485
0.000466714
0.000461536
0.000456886
0.000452674
0.000448876
0.000445404
0.000442265
0.000439368
0.000436748
0.000434306
0.000432099
0.00043002
0.000428146
0.000426362
0.00042476
0.000423217
0.00042184
0.000420497
0.000419306
0.00041813
0.000417095
0.000416059
0.000415158
0.00041424
0.000413451
0.000412636
0.000411945
0.000411217
0.000410609
0.000409956
0.000409422
0.000408835
0.000408364
0.000407834
0.000407416
0.00040694
0.000406568
0.000406139
0.000405808
0.000405421
0.000405127
0.000404777
0.000404517
0.000404198
0.000403968
0.000403678
0.000403473
0.00040321
0.000403027
0.00040279
0.000402627
0.000402411
0.000402265
0.000402072
0.000401945
0.000401765
0.000401645
0.000401473
0.000401361
0.000401197
0.00040109
0.000400934
0.000400833
0.000400684
0.00040059
0.000400451
0.000400362
0.000400232
0.000400156
0.00040003
0.000399965
0.000399872
0.00039974
0.000399896
0.000408846
0.000428149
0.00101993
0.00102389
0.000932293
0.000856717
0.000793263
0.00073985
0.00069486
0.000657133
0.000625404
0.000598737
0.000576145
0.000556972
0.000540534
0.000526412
0.000514153
0.000503493
0.000494135
0.000485906
0.000478613
0.000472134
0.000466347
0.000461155
0.000456492
0.000452268
0.000448459
0.000444976
0.000441828
0.000438923
0.000436294
0.000433845
0.000431631
0.000429545
0.000427665
0.000425875
0.000424268
0.00042272
0.000421338
0.00041999
0.000418796
0.000417615
0.000416577
0.000415537
0.000414633
0.000413712
0.00041292
0.000412102
0.000411408
0.000410677
0.000410067
0.000409412
0.000408875
0.000408286
0.000407813
0.000407281
0.000406862
0.000406383
0.00040601
0.000405579
0.000405247
0.000404858
0.000404563
0.000404211
0.00040395
0.000403629
0.000403398
0.000403107
0.0004029
0.000402636
0.000402453
0.000402214
0.000402051
0.000401833
0.000401686
0.000401493
0.000401364
0.000401184
0.000401063
0.00040089
0.000400777
0.000400612
0.000400505
0.000400347
0.000400246
0.000400097
0.000400002
0.000399861
0.000399772
0.000399641
0.000399564
0.000399437
0.000399372
0.000399278
0.000399147
0.000399312
0.000408596
0.000427699
0.00101083
0.00102389
0.000932292
0.000856722
0.00079327
0.000739851
0.000694844
0.000657091
0.000625331
0.000598629
0.000576002
0.000556796
0.000540325
0.000526174
0.000513887
0.000503202
0.00049382
0.00048557
0.000478257
0.00047176
0.000465957
0.00046075
0.000456073
0.000451836
0.000448015
0.000444521
0.000441363
0.000438448
0.000435811
0.000433353
0.000431132
0.000429039
0.000427153
0.000425356
0.000423744
0.00042219
0.000420803
0.000419451
0.000418252
0.000417067
0.000416025
0.000414981
0.000414073
0.000413148
0.000412354
0.000411532
0.000410835
0.000410102
0.000409489
0.000408831
0.000408292
0.0004077
0.000407226
0.000406691
0.00040627
0.000405789
0.000405414
0.000404982
0.000404648
0.000404257
0.000403961
0.000403607
0.000403345
0.000403022
0.00040279
0.000402498
0.00040229
0.000402025
0.00040184
0.0004016
0.000401436
0.000401217
0.000401069
0.000400875
0.000400746
0.000400564
0.000400442
0.000400269
0.000400154
0.000399989
0.000399881
0.000399722
0.00039962
0.000399469
0.000399374
0.000399232
0.000399143
0.00039901
0.000398933
0.000398805
0.000398739
0.000398645
0.000398514
0.000398689
0.000408329
0.000427213
0.00100072
0.00102388
0.000932291
0.000856726
0.000793277
0.000739852
0.000694827
0.000657047
0.000625253
0.000598516
0.000575852
0.00055661
0.000540105
0.000525922
0.000513605
0.000502893
0.000493487
0.000485214
0.00047788
0.000471363
0.000465543
0.00046032
0.000455628
0.000451377
0.000447544
0.000444039
0.00044087
0.000437945
0.000435298
0.000432832
0.000430602
0.000428502
0.000426609
0.000424806
0.000423187
0.000421627
0.000420235
0.000418877
0.000417673
0.000416484
0.000415438
0.00041439
0.000413478
0.00041255
0.000411752
0.000410927
0.000410227
0.00040949
0.000408875
0.000408214
0.000407673
0.000407078
0.000406601
0.000406065
0.000405641
0.000405158
0.000404782
0.000404347
0.000404011
0.000403619
0.000403321
0.000402965
0.000402701
0.000402377
0.000402144
0.00040185
0.000401641
0.000401374
0.000401189
0.000400947
0.000400782
0.000400562
0.000400414
0.000400217
0.000400088
0.000399904
0.000399782
0.000399607
0.000399493
0.000399326
0.000399217
0.000399057
0.000398955
0.000398803
0.000398707
0.000398564
0.000398474
0.00039834
0.000398262
0.000398133
0.000398066
0.000397971
0.000397841
0.000398027
0.000408041
0.00042669
0.000989659
0.00102388
0.00093229
0.000856731
0.000793285
0.000739853
0.00069481
0.000657001
0.000625172
0.000598396
0.000575694
0.000556414
0.000539873
0.000525656
0.000513308
0.000502568
0.000493135
0.000484837
0.000477482
0.000470944
0.000465105
0.000459865
0.000455157
0.000450892
0.000447046
0.000443528
0.000440347
0.000437411
0.000434755
0.000432279
0.000430042
0.000427933
0.000426033
0.000424222
0.000422597
0.000421031
0.000419633
0.00041827
0.000417061
0.000415867
0.000414816
0.000413763
0.000412848
0.000411915
0.000411114
0.000410285
0.000409582
0.000408842
0.000408224
0.00040756
0.000407016
0.000406419
0.00040594
0.0004054
0.000404975
0.00040449
0.000404111
0.000403674
0.000403337
0.000402942
0.000402642
0.000402285
0.00040202
0.000401694
0.000401459
0.000401163
0.000400953
0.000400685
0.000400498
0.000400255
0.000400089
0.000399868
0.000399718
0.000399521
0.00039939
0.000399206
0.000399082
0.000398906
0.000398791
0.000398622
0.000398513
0.000398352
0.000398249
0.000398096
0.000397999
0.000397855
0.000397765
0.000397629
0.000397551
0.00039742
0.000397353
0.000397257
0.000397128
0.000397324
0.000407728
0.000426126
0.000977688
0.00102388
0.000932289
0.000856735
0.000793293
0.000739855
0.000694792
0.000656954
0.000625087
0.000598272
0.000575528
0.000556208
0.000539629
0.000525377
0.000512996
0.000502225
0.000492764
0.000484441
0.000477062
0.000470503
0.000464644
0.000459385
0.000454661
0.00045038
0.000446519
0.000442988
0.000439796
0.000436849
0.000434182
0.000431696
0.000429449
0.000427332
0.000425424
0.000423606
0.000421974
0.000420401
0.000418997
0.000417628
0.000416414
0.000415214
0.000414159
0.000413101
0.000412182
0.000411245
0.00041044
0.000409607
0.000408901
0.000408157
0.000407536
0.000406869
0.000406322
0.000405721
0.00040524
0.000404698
0.00040427
0.000403782
0.000403402
0.000402962
0.000402623
0.000402226
0.000401925
0.000401565
0.000401299
0.000400971
0.000400734
0.000400437
0.000400226
0.000399956
0.000399768
0.000399523
0.000399356
0.000399133
0.000398983
0.000398784
0.000398652
0.000398466
0.000398342
0.000398165
0.000398048
0.000397879
0.000397769
0.000397606
0.000397503
0.000397348
0.00039725
0.000397105
0.000397014
0.000396877
0.000396799
0.000396667
0.000396598
0.000396501
0.000396373
0.000396582
0.000407387
0.000425521
0.000964868
0.00102388
0.000932288
0.00085674
0.000793302
0.000739857
0.000694774
0.000656904
0.000624999
0.000598141
0.000575355
0.000555993
0.000539374
0.000525084
0.000512668
0.000501865
0.000492374
0.000484024
0.00047662
0.000470038
0.000464158
0.000458881
0.000454138
0.000449841
0.000445965
0.00044242
0.000439215
0.000436256
0.000433578
0.000431082
0.000428825
0.000426699
0.000424782
0.000422956
0.000421317
0.000419737
0.000418327
0.000416951
0.000415732
0.000414526
0.000413466
0.000412403
0.000411479
0.000410538
0.000409729
0.000408892
0.000408182
0.000407434
0.00040681
0.000406139
0.00040559
0.000404986
0.000404502
0.000403957
0.000403527
0.000403036
0.000402653
0.000402211
0.00040187
0.000401471
0.000401168
0.000400806
0.000400538
0.000400208
0.00039997
0.000399671
0.000399458
0.000399186
0.000398997
0.000398751
0.000398582
0.000398358
0.000398206
0.000398006
0.000397874
0.000397686
0.000397561
0.000397383
0.000397265
0.000397094
0.000396983
0.00039682
0.000396715
0.000396559
0.000396461
0.000396314
0.000396222
0.000396084
0.000396005
0.000395871
0.000395802
0.000395704
0.000395577
0.000395797
0.000407009
0.000424872
0.000951257
0.00102388
0.000932286
0.000856745
0.000793311
0.000739859
0.000694755
0.000656853
0.000624908
0.000598006
0.000575174
0.000555768
0.000539107
0.000524777
0.000512325
0.000501487
0.000491966
0.000483587
0.000476157
0.000469551
0.000463649
0.000458351
0.00045359
0.000449275
0.000445383
0.000441824
0.000438605
0.000435633
0.000432943
0.000430436
0.000428169
0.000426033
0.000424108
0.000422273
0.000420627
0.000419039
0.000417622
0.000416239
0.000415014
0.000413802
0.000412737
0.000411669
0.00041074
0.000409794
0.00040898
0.000408139
0.000407425
0.000406674
0.000406046
0.000405372
0.000404819
0.000404212
0.000403725
0.000403177
0.000402744
0.000402251
0.000401866
0.000401421
0.000401078
0.000400676
0.000400371
0.000400007
0.000399737
0.000399405
0.000399165
0.000398864
0.00039865
0.000398376
0.000398186
0.000397938
0.000397768
0.000397542
0.000397389
0.000397187
0.000397054
0.000396865
0.000396739
0.000396559
0.00039644
0.000396268
0.000396156
0.000395991
0.000395886
0.000395728
0.000395629
0.00039548
0.000395388
0.000395248
0.000395168
0.000395034
0.000394963
0.000394864
0.000394738
0.000394972
0.00040659
0.000424178
0.000936917
0.00102388
0.000932285
0.00085675
0.00079332
0.000739861
0.000694736
0.000656801
0.000624813
0.000597865
0.000574986
0.000555533
0.000538828
0.000524457
0.000511966
0.000501093
0.000491539
0.00048313
0.000475672
0.00046904
0.000463115
0.000457795
0.000453015
0.000448682
0.000444773
0.000441198
0.000437965
0.000434979
0.000432277
0.000429758
0.000427481
0.000425334
0.0004234
0.000421556
0.000419901
0.000418306
0.000416882
0.000415492
0.00041426
0.000413042
0.000411971
0.000410898
0.000409964
0.000409012
0.000408195
0.000407349
0.000406631
0.000405875
0.000405244
0.000404565
0.00040401
0.000403399
0.000402909
0.000402358
0.000401922
0.000401426