/*--------------------------------*- C++ -*----------------------------------*\
| =========                 |                                                 |
| \\      /  F ield         | OpenFOAM: The Open Source CFD Toolbox           |
|  \\    /   O peration     | Version:  v2012                                 |
|   \\  /    A nd           | Website:  www.openfoam.com                      |
|    \\/     M anipulation  |                                                 |
\*---------------------------------------------------------------------------*/
FoamFile
{
    version     2.0;
    format      ascii;
    class       volScalarField;
    location    "57.5";
    object      nut;
}
// * * * * * * * * * * * * * * * * * * * * * * * * * * * * * * * * * * * * * //

dimensions      [0 2 -1 0 0 0 0];


internalField   nonuniform List<scalar> 
209825
(
1.23931e-07
1.23153e-07
1.22391e-07
1.21304e-07
1.19857e-07
1.18137e-07
1.1633e-07
1.14525e-07
1.1283e-07
1.11247e-07
1.0982e-07
1.08515e-07
1.07356e-07
1.063e-07
1.05365e-07
1.04511e-07
1.03755e-07
1.0306e-07
1.02443e-07
1.01873e-07
1.01366e-07
1.00894e-07
1.00473e-07
1.00079e-07
9.97261e-08
9.9395e-08
9.90963e-08
9.88157e-08
9.85612e-08
9.83216e-08
9.81026e-08
9.78969e-08
9.77073e-08
9.75294e-08
9.73641e-08
9.72096e-08
9.70643e-08
9.69293e-08
9.6801e-08
9.6683e-08
9.65683e-08
9.64647e-08
9.63625e-08
9.62707e-08
9.61787e-08
9.60978e-08
9.60145e-08
9.59437e-08
9.58675e-08
9.58048e-08
9.57347e-08
9.56788e-08
9.56125e-08
9.55637e-08
9.55037e-08
9.54594e-08
9.54046e-08
9.53647e-08
9.53154e-08
9.52791e-08
9.52323e-08
9.51984e-08
9.51559e-08
9.51244e-08
9.50844e-08
9.50555e-08
9.50194e-08
9.4993e-08
9.49594e-08
9.4934e-08
9.49021e-08
9.48782e-08
9.48491e-08
9.48281e-08
9.48014e-08
9.47828e-08
9.47577e-08
9.47398e-08
9.47149e-08
9.46972e-08
9.46725e-08
9.46548e-08
9.46307e-08
9.46131e-08
9.45897e-08
9.45706e-08
9.45447e-08
9.45238e-08
9.44964e-08
9.44761e-08
9.4455e-08
9.44094e-08
9.44145e-08
9.5296e-08
9.76506e-08
9.18492e-09
1.23931e-07
1.23153e-07
1.22391e-07
1.21304e-07
1.19858e-07
1.18138e-07
1.16331e-07
1.14526e-07
1.12831e-07
1.11248e-07
1.09821e-07
1.08516e-07
1.07357e-07
1.06301e-07
1.05366e-07
1.04512e-07
1.03756e-07
1.0306e-07
1.02444e-07
1.01874e-07
1.01366e-07
1.00895e-07
1.00473e-07
1.0008e-07
9.97269e-08
9.93957e-08
9.9097e-08
9.88164e-08
9.85619e-08
9.83223e-08
9.81033e-08
9.78975e-08
9.77079e-08
9.75301e-08
9.73648e-08
9.72102e-08
9.70649e-08
9.693e-08
9.68017e-08
9.66836e-08
9.65689e-08
9.64652e-08
9.63631e-08
9.62713e-08
9.61792e-08
9.60983e-08
9.60151e-08
9.59443e-08
9.5868e-08
9.58054e-08
9.57352e-08
9.56793e-08
9.5613e-08
9.55642e-08
9.55043e-08
9.54599e-08
9.54051e-08
9.53652e-08
9.53159e-08
9.52796e-08
9.52328e-08
9.51989e-08
9.51564e-08
9.51249e-08
9.5085e-08
9.5056e-08
9.50199e-08
9.49935e-08
9.49599e-08
9.49345e-08
9.49026e-08
9.48787e-08
9.48496e-08
9.48286e-08
9.48019e-08
9.47833e-08
9.47581e-08
9.47403e-08
9.47154e-08
9.46977e-08
9.4673e-08
9.46553e-08
9.46312e-08
9.46136e-08
9.45902e-08
9.45711e-08
9.45452e-08
9.45243e-08
9.44968e-08
9.44766e-08
9.44555e-08
9.44099e-08
9.4415e-08
9.52982e-08
9.76517e-08
9.46622e-09
1.23931e-07
1.23153e-07
1.22391e-07
1.21305e-07
1.19859e-07
1.18139e-07
1.16332e-07
1.14528e-07
1.12833e-07
1.1125e-07
1.09823e-07
1.08519e-07
1.07359e-07
1.06303e-07
1.05368e-07
1.04514e-07
1.03757e-07
1.03062e-07
1.02445e-07
1.01875e-07
1.01368e-07
1.00896e-07
1.00475e-07
1.00081e-07
9.9728e-08
9.93968e-08
9.9098e-08
9.88173e-08
9.85628e-08
9.83231e-08
9.81041e-08
9.78983e-08
9.77086e-08
9.75307e-08
9.73654e-08
9.72108e-08
9.70654e-08
9.69305e-08
9.68021e-08
9.66841e-08
9.65693e-08
9.64656e-08
9.63635e-08
9.62716e-08
9.61795e-08
9.60986e-08
9.60153e-08
9.59445e-08
9.58682e-08
9.58056e-08
9.57354e-08
9.56795e-08
9.56131e-08
9.55643e-08
9.55043e-08
9.546e-08
9.54052e-08
9.53652e-08
9.53159e-08
9.52796e-08
9.52328e-08
9.51989e-08
9.51564e-08
9.51249e-08
9.50849e-08
9.50559e-08
9.50198e-08
9.49934e-08
9.49598e-08
9.49344e-08
9.49025e-08
9.48786e-08
9.48495e-08
9.48285e-08
9.48018e-08
9.47832e-08
9.4758e-08
9.47401e-08
9.47153e-08
9.46975e-08
9.46728e-08
9.46551e-08
9.4631e-08
9.46134e-08
9.459e-08
9.45709e-08
9.4545e-08
9.45242e-08
9.44966e-08
9.44764e-08
9.44553e-08
9.44097e-08
9.44149e-08
9.53015e-08
9.76525e-08
9.81557e-09
1.23931e-07
1.23153e-07
1.22391e-07
1.21305e-07
1.1986e-07
1.18142e-07
1.16336e-07
1.14532e-07
1.12837e-07
1.11254e-07
1.09827e-07
1.08523e-07
1.07363e-07
1.06307e-07
1.05372e-07
1.04517e-07
1.03761e-07
1.03065e-07
1.02449e-07
1.01878e-07
1.01371e-07
1.00899e-07
1.00477e-07
1.00084e-07
9.97303e-08
9.9399e-08
9.91e-08
9.88193e-08
9.85647e-08
9.83249e-08
9.81058e-08
9.78999e-08
9.77101e-08
9.75321e-08
9.73667e-08
9.72121e-08
9.70666e-08
9.69316e-08
9.68032e-08
9.66851e-08
9.65703e-08
9.64666e-08
9.63644e-08
9.62724e-08
9.61803e-08
9.60994e-08
9.6016e-08
9.59452e-08
9.58689e-08
9.58062e-08
9.5736e-08
9.568e-08
9.56137e-08
9.55648e-08
9.55048e-08
9.54604e-08
9.54056e-08
9.53656e-08
9.53163e-08
9.528e-08
9.52331e-08
9.51992e-08
9.51567e-08
9.51252e-08
9.50852e-08
9.50562e-08
9.50201e-08
9.49936e-08
9.496e-08
9.49346e-08
9.49027e-08
9.48788e-08
9.48496e-08
9.48286e-08
9.48019e-08
9.47833e-08
9.47581e-08
9.47402e-08
9.47153e-08
9.46975e-08
9.46728e-08
9.46551e-08
9.4631e-08
9.46134e-08
9.459e-08
9.45709e-08
9.4545e-08
9.45242e-08
9.44966e-08
9.44764e-08
9.44554e-08
9.44097e-08
9.44151e-08
9.53071e-08
9.76542e-08
1.02051e-08
1.23931e-07
1.23152e-07
1.22391e-07
1.21306e-07
1.19862e-07
1.18145e-07
1.1634e-07
1.14537e-07
1.12843e-07
1.1126e-07
1.09833e-07
1.08528e-07
1.07369e-07
1.06313e-07
1.05378e-07
1.04523e-07
1.03766e-07
1.0307e-07
1.02453e-07
1.01882e-07
1.01375e-07
1.00903e-07
1.00481e-07
1.00087e-07
9.97337e-08
9.94022e-08
9.91031e-08
9.88222e-08
9.85675e-08
9.83275e-08
9.81083e-08
9.79023e-08
9.77124e-08
9.75343e-08
9.73688e-08
9.72141e-08
9.70686e-08
9.69335e-08
9.6805e-08
9.66868e-08
9.65719e-08
9.64681e-08
9.63658e-08
9.62739e-08
9.61817e-08
9.61007e-08
9.60173e-08
9.59464e-08
9.587e-08
9.58073e-08
9.5737e-08
9.56811e-08
9.56147e-08
9.55658e-08
9.55057e-08
9.54613e-08
9.54064e-08
9.53664e-08
9.53171e-08
9.52807e-08
9.52338e-08
9.51999e-08
9.51573e-08
9.51258e-08
9.50858e-08
9.50568e-08
9.50206e-08
9.49942e-08
9.49605e-08
9.49351e-08
9.49031e-08
9.48793e-08
9.48501e-08
9.48291e-08
9.48023e-08
9.47836e-08
9.47584e-08
9.47406e-08
9.47157e-08
9.46979e-08
9.46731e-08
9.46554e-08
9.46313e-08
9.46137e-08
9.45902e-08
9.45712e-08
9.45453e-08
9.45245e-08
9.44969e-08
9.44767e-08
9.44556e-08
9.44101e-08
9.44156e-08
9.53151e-08
9.76567e-08
1.06278e-08
1.23931e-07
1.23152e-07
1.22391e-07
1.21307e-07
1.19865e-07
1.1815e-07
1.16346e-07
1.14544e-07
1.1285e-07
1.11268e-07
1.09841e-07
1.08536e-07
1.07377e-07
1.0632e-07
1.05385e-07
1.04529e-07
1.03772e-07
1.03076e-07
1.02459e-07
1.01888e-07
1.0138e-07
1.00908e-07
1.00486e-07
1.00092e-07
9.97382e-08
9.94065e-08
9.91073e-08
9.88262e-08
9.85713e-08
9.83312e-08
9.81118e-08
9.79056e-08
9.77156e-08
9.75374e-08
9.73717e-08
9.72169e-08
9.70712e-08
9.6936e-08
9.68074e-08
9.66892e-08
9.65742e-08
9.64703e-08
9.6368e-08
9.62759e-08
9.61836e-08
9.61026e-08
9.60191e-08
9.59481e-08
9.58717e-08
9.58089e-08
9.57386e-08
9.56826e-08
9.56161e-08
9.55672e-08
9.55071e-08
9.54626e-08
9.54077e-08
9.53677e-08
9.53183e-08
9.52819e-08
9.52349e-08
9.5201e-08
9.51584e-08
9.51268e-08
9.50868e-08
9.50577e-08
9.50215e-08
9.49951e-08
9.49614e-08
9.49359e-08
9.4904e-08
9.48801e-08
9.48508e-08
9.48298e-08
9.4803e-08
9.47843e-08
9.47591e-08
9.47412e-08
9.47163e-08
9.46985e-08
9.46737e-08
9.4656e-08
9.46318e-08
9.46142e-08
9.45907e-08
9.45717e-08
9.45458e-08
9.45251e-08
9.44974e-08
9.44773e-08
9.44562e-08
9.44107e-08
9.44164e-08
9.53258e-08
9.766e-08
1.10827e-08
1.23931e-07
1.23152e-07
1.22391e-07
1.21309e-07
1.19869e-07
1.18155e-07
1.16353e-07
1.14552e-07
1.12859e-07
1.11277e-07
1.09851e-07
1.08546e-07
1.07386e-07
1.06329e-07
1.05394e-07
1.04538e-07
1.03781e-07
1.03084e-07
1.02467e-07
1.01895e-07
1.01387e-07
1.00915e-07
1.00492e-07
1.00098e-07
9.9744e-08
9.94121e-08
9.91126e-08
9.88312e-08
9.85761e-08
9.83358e-08
9.81162e-08
9.79098e-08
9.77197e-08
9.75413e-08
9.73755e-08
9.72205e-08
9.70747e-08
9.69394e-08
9.68106e-08
9.66923e-08
9.65771e-08
9.64732e-08
9.63707e-08
9.62786e-08
9.61862e-08
9.6105e-08
9.60215e-08
9.59505e-08
9.58739e-08
9.58111e-08
9.57407e-08
9.56846e-08
9.56181e-08
9.55691e-08
9.55089e-08
9.54644e-08
9.54095e-08
9.53694e-08
9.53199e-08
9.52835e-08
9.52365e-08
9.52025e-08
9.51598e-08
9.51282e-08
9.50882e-08
9.50591e-08
9.50228e-08
9.49963e-08
9.49627e-08
9.49372e-08
9.49052e-08
9.48812e-08
9.4852e-08
9.48309e-08
9.48041e-08
9.47854e-08
9.47601e-08
9.47422e-08
9.47172e-08
9.46994e-08
9.46746e-08
9.46569e-08
9.46327e-08
9.4615e-08
9.45915e-08
9.45725e-08
9.45467e-08
9.4526e-08
9.44982e-08
9.44782e-08
9.44571e-08
9.44116e-08
9.44176e-08
9.53391e-08
9.76642e-08
1.15699e-08
1.23931e-07
1.23151e-07
1.22391e-07
1.21311e-07
1.19873e-07
1.18162e-07
1.16362e-07
1.14562e-07
1.1287e-07
1.11289e-07
1.09862e-07
1.08557e-07
1.07398e-07
1.0634e-07
1.05404e-07
1.04548e-07
1.03791e-07
1.03094e-07
1.02476e-07
1.01904e-07
1.01396e-07
1.00923e-07
1.005e-07
1.00105e-07
9.9751e-08
9.94188e-08
9.9119e-08
9.88374e-08
9.8582e-08
9.83414e-08
9.81216e-08
9.7915e-08
9.77247e-08
9.75461e-08
9.73801e-08
9.72249e-08
9.7079e-08
9.69435e-08
9.68146e-08
9.66961e-08
9.65808e-08
9.64767e-08
9.63742e-08
9.62819e-08
9.61894e-08
9.61082e-08
9.60245e-08
9.59534e-08
9.58767e-08
9.58138e-08
9.57433e-08
9.56872e-08
9.56206e-08
9.55715e-08
9.55113e-08
9.54667e-08
9.54117e-08
9.53715e-08
9.5322e-08
9.52855e-08
9.52385e-08
9.52044e-08
9.51617e-08
9.51301e-08
9.509e-08
9.50608e-08
9.50245e-08
9.4998e-08
9.49643e-08
9.49388e-08
9.49067e-08
9.48828e-08
9.48535e-08
9.48324e-08
9.48055e-08
9.47867e-08
9.47614e-08
9.47435e-08
9.47185e-08
9.47006e-08
9.46758e-08
9.46581e-08
9.46338e-08
9.46161e-08
9.45925e-08
9.45736e-08
9.45478e-08
9.45272e-08
9.44993e-08
9.44794e-08
9.44582e-08
9.44129e-08
9.44191e-08
9.53555e-08
9.76693e-08
1.20901e-08
1.23931e-07
1.2315e-07
1.22391e-07
1.21313e-07
1.19878e-07
1.1817e-07
1.16372e-07
1.14574e-07
1.12883e-07
1.11302e-07
1.09876e-07
1.08571e-07
1.07411e-07
1.06353e-07
1.05417e-07
1.04561e-07
1.03802e-07
1.03105e-07
1.02487e-07
1.01915e-07
1.01406e-07
1.00932e-07
1.00509e-07
1.00114e-07
9.97594e-08
9.94267e-08
9.91266e-08
9.88447e-08
9.8589e-08
9.83481e-08
9.81281e-08
9.79212e-08
9.77306e-08
9.75518e-08
9.73856e-08
9.72302e-08
9.70841e-08
9.69484e-08
9.68194e-08
9.67007e-08
9.65853e-08
9.6481e-08
9.63783e-08
9.62859e-08
9.61933e-08
9.61119e-08
9.60281e-08
9.59569e-08
9.58802e-08
9.58171e-08
9.57465e-08
9.56903e-08
9.56236e-08
9.55745e-08
9.55142e-08
9.54695e-08
9.54144e-08
9.53742e-08
9.53245e-08
9.5288e-08
9.52409e-08
9.52068e-08
9.5164e-08
9.51324e-08
9.50922e-08
9.5063e-08
9.50267e-08
9.50001e-08
9.49663e-08
9.49407e-08
9.49087e-08
9.48847e-08
9.48553e-08
9.48342e-08
9.48072e-08
9.47885e-08
9.47631e-08
9.47451e-08
9.47201e-08
9.47022e-08
9.46773e-08
9.46596e-08
9.46353e-08
9.46176e-08
9.45939e-08
9.4575e-08
9.45493e-08
9.45287e-08
9.45008e-08
9.44809e-08
9.44597e-08
9.44145e-08
9.44211e-08
9.53749e-08
9.76751e-08
1.26438e-08
1.23931e-07
1.2315e-07
1.22391e-07
1.21315e-07
1.19884e-07
1.18179e-07
1.16384e-07
1.14588e-07
1.12898e-07
1.11317e-07
1.09892e-07
1.08587e-07
1.07426e-07
1.06368e-07
1.05432e-07
1.04575e-07
1.03816e-07
1.03118e-07
1.02499e-07
1.01927e-07
1.01417e-07
1.00943e-07
1.00519e-07
1.00124e-07
9.9769e-08
9.94359e-08
9.91354e-08
9.88531e-08
9.85971e-08
9.83559e-08
9.81356e-08
9.79284e-08
9.77376e-08
9.75585e-08
9.73921e-08
9.72364e-08
9.70901e-08
9.69542e-08
9.68249e-08
9.67061e-08
9.65905e-08
9.6486e-08
9.63831e-08
9.62906e-08
9.61978e-08
9.61163e-08
9.60324e-08
9.59611e-08
9.58842e-08
9.5821e-08
9.57503e-08
9.5694e-08
9.56272e-08
9.5578e-08
9.55176e-08
9.54728e-08
9.54176e-08
9.53773e-08
9.53276e-08
9.5291e-08
9.52438e-08
9.52096e-08
9.51668e-08
9.51351e-08
9.50948e-08
9.50656e-08
9.50292e-08
9.50026e-08
9.49687e-08
9.49432e-08
9.4911e-08
9.4887e-08
9.48576e-08
9.48364e-08
9.48094e-08
9.47906e-08
9.47651e-08
9.47471e-08
9.4722e-08
9.47041e-08
9.46792e-08
9.46614e-08
9.46371e-08
9.46194e-08
9.45956e-08
9.45767e-08
9.45511e-08
9.45306e-08
9.45025e-08
9.44828e-08
9.44616e-08
9.44164e-08
9.44235e-08
9.53977e-08
9.76816e-08
1.32311e-08
1.23931e-07
1.23149e-07
1.22391e-07
1.21318e-07
1.1989e-07
1.18189e-07
1.16397e-07
1.14603e-07
1.12914e-07
1.11335e-07
1.09909e-07
1.08604e-07
1.07444e-07
1.06385e-07
1.05448e-07
1.04591e-07
1.03831e-07
1.03133e-07
1.02513e-07
1.0194e-07
1.0143e-07
1.00955e-07
1.00531e-07
1.00135e-07
9.97799e-08
9.94464e-08
9.91455e-08
9.88628e-08
9.86064e-08
9.83649e-08
9.81442e-08
9.79367e-08
9.77455e-08
9.75661e-08
9.73994e-08
9.72435e-08
9.70969e-08
9.69608e-08
9.68313e-08
9.67122e-08
9.65964e-08
9.64918e-08
9.63887e-08
9.6296e-08
9.62031e-08
9.61214e-08
9.60373e-08
9.59659e-08
9.58888e-08
9.58256e-08
9.57547e-08
9.56983e-08
9.56314e-08
9.55821e-08
9.55215e-08
9.54767e-08
9.54214e-08
9.5381e-08
9.53311e-08
9.52945e-08
9.52472e-08
9.5213e-08
9.51701e-08
9.51383e-08
9.5098e-08
9.50687e-08
9.50322e-08
9.50055e-08
9.49716e-08
9.4946e-08
9.49138e-08
9.48897e-08
9.48602e-08
9.4839e-08
9.48119e-08
9.47931e-08
9.47676e-08
9.47495e-08
9.47244e-08
9.47064e-08
9.46815e-08
9.46636e-08
9.46393e-08
9.46215e-08
9.45976e-08
9.45788e-08
9.45532e-08
9.45328e-08
9.45046e-08
9.4485e-08
9.44637e-08
9.44187e-08
9.44263e-08
9.54239e-08
9.76888e-08
1.38512e-08
1.23931e-07
1.23148e-07
1.22391e-07
1.2132e-07
1.19897e-07
1.182e-07
1.16411e-07
1.1462e-07
1.12933e-07
1.11354e-07
1.09929e-07
1.08624e-07
1.07463e-07
1.06404e-07
1.05467e-07
1.04608e-07
1.03849e-07
1.03149e-07
1.02529e-07
1.01955e-07
1.01445e-07
1.00969e-07
1.00545e-07
1.00148e-07
9.97923e-08
9.94583e-08
9.91569e-08
9.88737e-08
9.86169e-08
9.8375e-08
9.81539e-08
9.7946e-08
9.77545e-08
9.75748e-08
9.74078e-08
9.72516e-08
9.71047e-08
9.69683e-08
9.68386e-08
9.67193e-08
9.66032e-08
9.64984e-08
9.63951e-08
9.63022e-08
9.62091e-08
9.61273e-08
9.60429e-08
9.59713e-08
9.58941e-08
9.58308e-08
9.57598e-08
9.57033e-08
9.56362e-08
9.55867e-08
9.5526e-08
9.54811e-08
9.54257e-08
9.53852e-08
9.53352e-08
9.52985e-08
9.52512e-08
9.52168e-08
9.51738e-08
9.5142e-08
9.51016e-08
9.50722e-08
9.50356e-08
9.50089e-08
9.49749e-08
9.49492e-08
9.4917e-08
9.48929e-08
9.48633e-08
9.48421e-08
9.48149e-08
9.4796e-08
9.47704e-08
9.47523e-08
9.4727e-08
9.47091e-08
9.46841e-08
9.46662e-08
9.46418e-08
9.4624e-08
9.46e-08
9.45812e-08
9.45557e-08
9.45353e-08
9.45071e-08
9.44875e-08
9.44663e-08
9.44214e-08
9.44295e-08
9.54538e-08
9.76964e-08
1.45038e-08
1.23931e-07
1.23147e-07
1.22391e-07
1.21324e-07
1.19905e-07
1.18212e-07
1.16427e-07
1.14639e-07
1.12953e-07
1.11375e-07
1.09951e-07
1.08646e-07
1.07485e-07
1.06425e-07
1.05487e-07
1.04628e-07
1.03868e-07
1.03168e-07
1.02547e-07
1.01972e-07
1.01461e-07
1.00985e-07
1.0056e-07
1.00163e-07
9.98061e-08
9.94715e-08
9.91696e-08
9.88859e-08
9.86286e-08
9.83862e-08
9.81647e-08
9.79565e-08
9.77646e-08
9.75845e-08
9.74171e-08
9.72606e-08
9.71134e-08
9.69767e-08
9.68467e-08
9.67271e-08
9.66109e-08
9.65058e-08
9.64023e-08
9.63092e-08
9.62158e-08
9.61338e-08
9.60493e-08
9.59775e-08
9.59001e-08
9.58366e-08
9.57654e-08
9.57088e-08
9.56416e-08
9.5592e-08
9.55312e-08
9.54861e-08
9.54306e-08
9.53899e-08
9.53399e-08
9.5303e-08
9.52556e-08
9.52212e-08
9.51781e-08
9.51462e-08
9.51057e-08
9.50762e-08
9.50395e-08
9.50127e-08
9.49787e-08
9.4953e-08
9.49206e-08
9.48965e-08
9.48668e-08
9.48455e-08
9.48182e-08
9.47993e-08
9.47736e-08
9.47555e-08
9.47301e-08
9.47122e-08
9.4687e-08
9.46692e-08
9.46447e-08
9.46269e-08
9.46028e-08
9.4584e-08
9.45586e-08
9.45383e-08
9.45099e-08
9.44904e-08
9.44692e-08
9.44245e-08
9.44333e-08
9.54874e-08
9.77044e-08
1.51907e-08
1.23931e-07
1.23146e-07
1.2239e-07
1.21327e-07
1.19913e-07
1.18226e-07
1.16445e-07
1.14659e-07
1.12976e-07
1.11399e-07
1.09975e-07
1.0867e-07
1.07509e-07
1.06449e-07
1.0551e-07
1.0465e-07
1.03889e-07
1.03188e-07
1.02567e-07
1.01991e-07
1.01479e-07
1.01002e-07
1.00576e-07
1.00178e-07
9.98214e-08
9.94861e-08
9.91837e-08
9.88994e-08
9.86416e-08
9.83987e-08
9.81768e-08
9.7968e-08
9.77757e-08
9.75952e-08
9.74275e-08
9.72706e-08
9.71231e-08
9.69861e-08
9.68558e-08
9.67359e-08
9.66193e-08
9.6514e-08
9.64102e-08
9.63169e-08
9.62233e-08
9.61411e-08
9.60564e-08
9.59844e-08
9.59068e-08
9.58431e-08
9.57718e-08
9.5715e-08
9.56476e-08
9.55979e-08
9.55369e-08
9.54917e-08
9.5436e-08
9.53953e-08
9.53451e-08
9.53081e-08
9.52606e-08
9.52261e-08
9.51828e-08
9.51509e-08
9.51103e-08
9.50807e-08
9.5044e-08
9.50171e-08
9.49829e-08
9.49572e-08
9.49247e-08
9.49006e-08
9.48708e-08
9.48494e-08
9.4822e-08
9.4803e-08
9.47772e-08
9.4759e-08
9.47336e-08
9.47156e-08
9.46904e-08
9.46725e-08
9.46479e-08
9.46301e-08
9.46059e-08
9.45872e-08
9.45618e-08
9.45416e-08
9.45131e-08
9.44937e-08
9.44725e-08
9.4428e-08
9.44375e-08
9.5525e-08
9.77124e-08
1.59142e-08
1.23931e-07
1.23145e-07
1.2239e-07
1.21331e-07
1.19922e-07
1.1824e-07
1.16464e-07
1.14681e-07
1.13e-07
1.11425e-07
1.10001e-07
1.08696e-07
1.07535e-07
1.06474e-07
1.05534e-07
1.04674e-07
1.03912e-07
1.0321e-07
1.02588e-07
1.02012e-07
1.01499e-07
1.01021e-07
1.00595e-07
1.00196e-07
9.98381e-08
9.95022e-08
9.91992e-08
9.89142e-08
9.86559e-08
9.84125e-08
9.819e-08
9.79808e-08
9.7788e-08
9.76071e-08
9.7439e-08
9.72817e-08
9.71338e-08
9.69964e-08
9.68658e-08
9.67456e-08
9.66287e-08
9.65231e-08
9.6419e-08
9.63255e-08
9.62316e-08
9.61492e-08
9.60642e-08
9.5992e-08
9.59142e-08
9.58504e-08
9.57788e-08
9.57219e-08
9.56543e-08
9.56044e-08
9.55433e-08
9.54979e-08
9.54421e-08
9.54012e-08
9.53508e-08
9.53138e-08
9.52662e-08
9.52315e-08
9.51882e-08
9.51561e-08
9.51154e-08
9.50858e-08
9.50489e-08
9.50219e-08
9.49877e-08
9.49618e-08
9.49293e-08
9.49051e-08
9.48752e-08
9.48538e-08
9.48263e-08
9.48072e-08
9.47813e-08
9.47631e-08
9.47376e-08
9.47195e-08
9.46942e-08
9.46763e-08
9.46516e-08
9.46337e-08
9.46094e-08
9.45907e-08
9.45654e-08
9.45453e-08
9.45166e-08
9.44974e-08
9.44761e-08
9.44319e-08
9.44422e-08
9.55667e-08
9.77201e-08
1.66767e-08
1.23931e-07
1.23144e-07
1.2239e-07
1.21334e-07
1.19932e-07
1.18256e-07
1.16485e-07
1.14706e-07
1.13027e-07
1.11453e-07
1.1003e-07
1.08725e-07
1.07563e-07
1.06502e-07
1.05561e-07
1.047e-07
1.03937e-07
1.03235e-07
1.02611e-07
1.02034e-07
1.0152e-07
1.01042e-07
1.00614e-07
1.00215e-07
9.98564e-08
9.95198e-08
9.92161e-08
9.89305e-08
9.86716e-08
9.84275e-08
9.82045e-08
9.79947e-08
9.78015e-08
9.76201e-08
9.74515e-08
9.72938e-08
9.71455e-08
9.70078e-08
9.68767e-08
9.67562e-08
9.6639e-08
9.65331e-08
9.64287e-08
9.63349e-08
9.62407e-08
9.61581e-08
9.60728e-08
9.60004e-08
9.59224e-08
9.58583e-08
9.57865e-08
9.57295e-08
9.56617e-08
9.56116e-08
9.55503e-08
9.55048e-08
9.54488e-08
9.54078e-08
9.53572e-08
9.53201e-08
9.52723e-08
9.52375e-08
9.5194e-08
9.51619e-08
9.51211e-08
9.50913e-08
9.50543e-08
9.50273e-08
9.49929e-08
9.4967e-08
9.49344e-08
9.49101e-08
9.48801e-08
9.48587e-08
9.4831e-08
9.48118e-08
9.47858e-08
9.47675e-08
9.47419e-08
9.47238e-08
9.46984e-08
9.46805e-08
9.46557e-08
9.46378e-08
9.46133e-08
9.45947e-08
9.45694e-08
9.45494e-08
9.45206e-08
9.45014e-08
9.44802e-08
9.44362e-08
9.44474e-08
9.56126e-08
9.77273e-08
1.74805e-08
1.23931e-07
1.23142e-07
1.2239e-07
1.21339e-07
1.19942e-07
1.18273e-07
1.16507e-07
1.14732e-07
1.13056e-07
1.11483e-07
1.10061e-07
1.08756e-07
1.07594e-07
1.06532e-07
1.05591e-07
1.04728e-07
1.03965e-07
1.03261e-07
1.02637e-07
1.02058e-07
1.01544e-07
1.01064e-07
1.00636e-07
1.00236e-07
9.98764e-08
9.95389e-08
9.92345e-08
9.89482e-08
9.86886e-08
9.84439e-08
9.82203e-08
9.80099e-08
9.78162e-08
9.76343e-08
9.74652e-08
9.7307e-08
9.71583e-08
9.70201e-08
9.68887e-08
9.67678e-08
9.66503e-08
9.6544e-08
9.64393e-08
9.63452e-08
9.62507e-08
9.61678e-08
9.60822e-08
9.60096e-08
9.59313e-08
9.5867e-08
9.5795e-08
9.57378e-08
9.56698e-08
9.56195e-08
9.5558e-08
9.55123e-08
9.54562e-08
9.54149e-08
9.53642e-08
9.5327e-08
9.5279e-08
9.52441e-08
9.52005e-08
9.51683e-08
9.51273e-08
9.50975e-08
9.50603e-08
9.50332e-08
9.49987e-08
9.49728e-08
9.494e-08
9.49157e-08
9.48856e-08
9.4864e-08
9.48362e-08
9.48169e-08
9.47908e-08
9.47725e-08
9.47468e-08
9.47286e-08
9.47031e-08
9.46851e-08
9.46602e-08
9.46423e-08
9.46177e-08
9.45991e-08
9.45738e-08
9.45539e-08
9.4525e-08
9.45059e-08
9.44848e-08
9.44409e-08
9.44532e-08
9.56628e-08
9.21411e-08
1.83285e-08
1.23931e-07
1.23141e-07
1.22389e-07
1.21343e-07
1.19954e-07
1.18291e-07
1.1653e-07
1.1476e-07
1.13087e-07
1.11515e-07
1.10094e-07
1.08789e-07
1.07627e-07
1.06564e-07
1.05622e-07
1.04759e-07
1.03994e-07
1.03289e-07
1.02664e-07
1.02085e-07
1.01569e-07
1.01089e-07
1.00659e-07
1.00258e-07
9.98979e-08
9.95596e-08
9.92544e-08
9.89673e-08
9.8707e-08
9.84616e-08
9.82374e-08
9.80264e-08
9.78321e-08
9.76496e-08
9.748e-08
9.73214e-08
9.71722e-08
9.70336e-08
9.69017e-08
9.67805e-08
9.66625e-08
9.65559e-08
9.64508e-08
9.63564e-08
9.62616e-08
9.61784e-08
9.60925e-08
9.60197e-08
9.5941e-08
9.58765e-08
9.58043e-08
9.57468e-08
9.56786e-08
9.56281e-08
9.55664e-08
9.55206e-08
9.54642e-08
9.54228e-08
9.53719e-08
9.53345e-08
9.52864e-08
9.52514e-08
9.52076e-08
9.51752e-08
9.51341e-08
9.51042e-08
9.50669e-08
9.50396e-08
9.5005e-08
9.4979e-08
9.49461e-08
9.49217e-08
9.48915e-08
9.48699e-08
9.48419e-08
9.48226e-08
9.47963e-08
9.47779e-08
9.47521e-08
9.47339e-08
9.47083e-08
9.46902e-08
9.46652e-08
9.46472e-08
9.46225e-08
9.46039e-08
9.45786e-08
9.45588e-08
9.45298e-08
9.45108e-08
9.44897e-08
9.44462e-08
9.44595e-08
9.57174e-08
8.69678e-08
1.92232e-08
1.23931e-07
1.23139e-07
1.22389e-07
1.21347e-07
1.19965e-07
1.1831e-07
1.16556e-07
1.14789e-07
1.13119e-07
1.1155e-07
1.10129e-07
1.08824e-07
1.07662e-07
1.06599e-07
1.05656e-07
1.04792e-07
1.04026e-07
1.0332e-07
1.02694e-07
1.02113e-07
1.01596e-07
1.01115e-07
1.00685e-07
1.00282e-07
9.99211e-08
9.95819e-08
9.92759e-08
9.8988e-08
9.87269e-08
9.84808e-08
9.82559e-08
9.80443e-08
9.78493e-08
9.76662e-08
9.74961e-08
9.73369e-08
9.71872e-08
9.70481e-08
9.69158e-08
9.67941e-08
9.66757e-08
9.65687e-08
9.64633e-08
9.63685e-08
9.62734e-08
9.61899e-08
9.61036e-08
9.60305e-08
9.59516e-08
9.58869e-08
9.58143e-08
9.57567e-08
9.56882e-08
9.56375e-08
9.55756e-08
9.55295e-08
9.54729e-08
9.54313e-08
9.53802e-08
9.53427e-08
9.52944e-08
9.52593e-08
9.52153e-08
9.51828e-08
9.51415e-08
9.51115e-08
9.5074e-08
9.50467e-08
9.50119e-08
9.49858e-08
9.49528e-08
9.49284e-08
9.4898e-08
9.48763e-08
9.48482e-08
9.48287e-08
9.48023e-08
9.47838e-08
9.47578e-08
9.47396e-08
9.47139e-08
9.46958e-08
9.46706e-08
9.46527e-08
9.46277e-08
9.46091e-08
9.45838e-08
9.45642e-08
9.4535e-08
9.45162e-08
9.44951e-08
9.44519e-08
9.44664e-08
9.57765e-08
8.23568e-08
2.01677e-08
1.23931e-07
1.23138e-07
1.22388e-07
1.21352e-07
1.19978e-07
1.1833e-07
1.16583e-07
1.14821e-07
1.13154e-07
1.11587e-07
1.10167e-07
1.08862e-07
1.077e-07
1.06636e-07
1.05692e-07
1.04827e-07
1.0406e-07
1.03353e-07
1.02725e-07
1.02143e-07
1.01626e-07
1.01143e-07
1.00712e-07
1.00308e-07
9.99461e-08
9.96059e-08
9.9299e-08
9.90102e-08
9.87483e-08
9.85014e-08
9.82758e-08
9.80634e-08
9.78678e-08
9.76841e-08
9.75134e-08
9.73536e-08
9.72034e-08
9.70638e-08
9.6931e-08
9.68088e-08
9.669e-08
9.65826e-08
9.64768e-08
9.63816e-08
9.62861e-08
9.62023e-08
9.61157e-08
9.60423e-08
9.5963e-08
9.5898e-08
9.58251e-08
9.57673e-08
9.56986e-08
9.56476e-08
9.55855e-08
9.55392e-08
9.54824e-08
9.54406e-08
9.53893e-08
9.53515e-08
9.53031e-08
9.52678e-08
9.52236e-08
9.5191e-08
9.51496e-08
9.51194e-08
9.50818e-08
9.50543e-08
9.50194e-08
9.49933e-08
9.49601e-08
9.49356e-08
9.4905e-08
9.48832e-08
9.4855e-08
9.48354e-08
9.48088e-08
9.47903e-08
9.47642e-08
9.47459e-08
9.472e-08
9.47019e-08
9.46766e-08
9.46586e-08
9.46334e-08
9.46149e-08
9.45895e-08
9.457e-08
9.45408e-08
9.4522e-08
9.4501e-08
9.4458e-08
9.44739e-08
9.58401e-08
7.82407e-08
2.11648e-08
1.23931e-07
1.23136e-07
1.22388e-07
1.21357e-07
1.19991e-07
1.18351e-07
1.16611e-07
1.14855e-07
1.13192e-07
1.11626e-07
1.10208e-07
1.08903e-07
1.0774e-07
1.06675e-07
1.05731e-07
1.04864e-07
1.04096e-07
1.03388e-07
1.02759e-07
1.02176e-07
1.01657e-07
1.01173e-07
1.00741e-07
1.00336e-07
9.99729e-08
9.96316e-08
9.93238e-08
9.9034e-08
9.87713e-08
9.85235e-08
9.82971e-08
9.8084e-08
9.78877e-08
9.77033e-08
9.7532e-08
9.73716e-08
9.72208e-08
9.70806e-08
9.69473e-08
9.68247e-08
9.67054e-08
9.65975e-08
9.64912e-08
9.63957e-08
9.62998e-08
9.62156e-08
9.61286e-08
9.60549e-08
9.59753e-08
9.591e-08
9.58368e-08
9.57788e-08
9.57098e-08
9.56585e-08
9.55961e-08
9.55496e-08
9.54926e-08
9.54506e-08
9.5399e-08
9.53611e-08
9.53125e-08
9.5277e-08
9.52327e-08
9.51999e-08
9.51583e-08
9.5128e-08
9.50902e-08
9.50626e-08
9.50275e-08
9.50013e-08
9.4968e-08
9.49434e-08
9.49127e-08
9.48908e-08
9.48623e-08
9.48427e-08
9.48159e-08
9.47973e-08
9.4771e-08
9.47526e-08
9.47266e-08
9.47085e-08
9.4683e-08
9.4665e-08
9.46397e-08
9.46211e-08
9.45957e-08
9.45764e-08
9.45469e-08
9.45283e-08
9.45073e-08
9.44647e-08
9.4482e-08
9.5908e-08
7.45622e-08
2.22175e-08
1.23931e-07
1.23134e-07
1.22387e-07
1.21362e-07
1.20005e-07
1.18374e-07
1.16641e-07
1.1489e-07
1.13231e-07
1.11668e-07
1.1025e-07
1.08946e-07
1.07783e-07
1.06717e-07
1.05772e-07
1.04904e-07
1.04135e-07
1.03425e-07
1.02795e-07
1.0221e-07
1.0169e-07
1.01205e-07
1.00771e-07
1.00366e-07
1.00001e-07
9.96591e-08
9.93502e-08
9.90594e-08
9.87959e-08
9.85472e-08
9.832e-08
9.8106e-08
9.7909e-08
9.77239e-08
9.75519e-08
9.73908e-08
9.72394e-08
9.70987e-08
9.69648e-08
9.68417e-08
9.67219e-08
9.66135e-08
9.65068e-08
9.64109e-08
9.63145e-08
9.62299e-08
9.61425e-08
9.60685e-08
9.59885e-08
9.59229e-08
9.58494e-08
9.57911e-08
9.57218e-08
9.56703e-08
9.56076e-08
9.55609e-08
9.55036e-08
9.54613e-08
9.54095e-08
9.53714e-08
9.53226e-08
9.52869e-08
9.52424e-08
9.52095e-08
9.51677e-08
9.51373e-08
9.50992e-08
9.50715e-08
9.50363e-08
9.50099e-08
9.49765e-08
9.49518e-08
9.49209e-08
9.48989e-08
9.48703e-08
9.48505e-08
9.48235e-08
9.48048e-08
9.47784e-08
9.476e-08
9.47338e-08
9.47156e-08
9.469e-08
9.46719e-08
9.46464e-08
9.46279e-08
9.46023e-08
9.45832e-08
9.45536e-08
9.45351e-08
9.45142e-08
9.44719e-08
9.44908e-08
9.59799e-08
7.12726e-08
2.33286e-08
1.23931e-07
1.23132e-07
1.22387e-07
1.21368e-07
1.20019e-07
1.18397e-07
1.16673e-07
1.14928e-07
1.13273e-07
1.11712e-07
1.10296e-07
1.08992e-07
1.07828e-07
1.06762e-07
1.05815e-07
1.04946e-07
1.04176e-07
1.03465e-07
1.02833e-07
1.02247e-07
1.01726e-07
1.01239e-07
1.00804e-07
1.00397e-07
1.00032e-07
9.96884e-08
9.93785e-08
9.90866e-08
9.88221e-08
9.85724e-08
9.83444e-08
9.81296e-08
9.79318e-08
9.77459e-08
9.75731e-08
9.74114e-08
9.72593e-08
9.7118e-08
9.69835e-08
9.68598e-08
9.67395e-08
9.66307e-08
9.65234e-08
9.64271e-08
9.63302e-08
9.62453e-08
9.61575e-08
9.6083e-08
9.60027e-08
9.59368e-08
9.58629e-08
9.58043e-08
9.57347e-08
9.56829e-08
9.56199e-08
9.55729e-08
9.55153e-08
9.54729e-08
9.54208e-08
9.53825e-08
9.53335e-08
9.52976e-08
9.52528e-08
9.52198e-08
9.51778e-08
9.51472e-08
9.51089e-08
9.50811e-08
9.50457e-08
9.50192e-08
9.49856e-08
9.49608e-08
9.49298e-08
9.49077e-08
9.48789e-08
9.48589e-08
9.48318e-08
9.4813e-08
9.47864e-08
9.47679e-08
9.47416e-08
9.47233e-08
9.46975e-08
9.46794e-08
9.46537e-08
9.46352e-08
9.46094e-08
9.45905e-08
9.45608e-08
9.45424e-08
9.45216e-08
9.44797e-08
9.45001e-08
9.6055e-08
6.83304e-08
2.45009e-08
1.23931e-07
1.2313e-07
1.22386e-07
1.21373e-07
1.20034e-07
1.18422e-07
1.16706e-07
1.14967e-07
1.13316e-07
1.11758e-07
1.10344e-07
1.0904e-07
1.07876e-07
1.06809e-07
1.05862e-07
1.04991e-07
1.04219e-07
1.03507e-07
1.02874e-07
1.02286e-07
1.01763e-07
1.01275e-07
1.00839e-07
1.00431e-07
1.00064e-07
9.97195e-08
9.94085e-08
9.91155e-08
9.885e-08
9.85993e-08
9.83704e-08
9.81546e-08
9.7956e-08
9.77693e-08
9.75958e-08
9.74333e-08
9.72806e-08
9.71386e-08
9.70035e-08
9.68792e-08
9.67583e-08
9.6649e-08
9.65412e-08
9.64444e-08
9.6347e-08
9.62617e-08
9.61734e-08
9.60986e-08
9.60178e-08
9.59516e-08
9.58773e-08
9.58184e-08
9.57485e-08
9.56964e-08
9.56331e-08
9.55858e-08
9.5528e-08
9.54853e-08
9.54329e-08
9.53944e-08
9.53451e-08
9.53091e-08
9.5264e-08
9.52308e-08
9.51886e-08
9.51579e-08
9.51194e-08
9.50914e-08
9.50558e-08
9.50292e-08
9.49954e-08
9.49705e-08
9.49393e-08
9.49171e-08
9.48881e-08
9.4868e-08
9.48407e-08
9.48217e-08
9.4795e-08
9.47764e-08
9.47499e-08
9.47315e-08
9.47056e-08
9.46874e-08
9.46615e-08
9.4643e-08
9.4617e-08
9.45983e-08
9.45685e-08
9.45502e-08
9.45295e-08
9.4488e-08
9.45102e-08
9.61327e-08
6.57002e-08
2.57368e-08
1.23931e-07
1.23128e-07
1.22385e-07
1.21379e-07
1.2005e-07
1.18448e-07
1.1674e-07
1.15009e-07
1.13362e-07
1.11807e-07
1.10394e-07
1.09091e-07
1.07927e-07
1.06859e-07
1.0591e-07
1.05039e-07
1.04265e-07
1.03551e-07
1.02917e-07
1.02328e-07
1.01803e-07
1.01314e-07
1.00876e-07
1.00467e-07
1.00099e-07
9.97526e-08
9.94404e-08
9.91462e-08
9.88796e-08
9.86279e-08
9.8398e-08
9.81813e-08
9.79818e-08
9.77942e-08
9.76199e-08
9.74567e-08
9.73032e-08
9.71606e-08
9.70248e-08
9.68999e-08
9.67784e-08
9.66685e-08
9.65601e-08
9.64628e-08
9.6365e-08
9.62792e-08
9.61904e-08
9.61152e-08
9.6034e-08
9.59674e-08
9.58927e-08
9.58335e-08
9.57633e-08
9.57108e-08
9.56472e-08
9.55996e-08
9.55415e-08
9.54985e-08
9.54458e-08
9.54071e-08
9.53576e-08
9.53213e-08
9.5276e-08
9.52427e-08
9.52002e-08
9.51693e-08
9.51306e-08
9.51024e-08
9.50666e-08
9.50399e-08
9.50059e-08
9.49809e-08
9.49495e-08
9.49272e-08
9.48979e-08
9.48778e-08
9.48502e-08
9.48311e-08
9.48042e-08
9.47855e-08
9.47588e-08
9.47404e-08
9.47143e-08
9.46961e-08
9.467e-08
9.46514e-08
9.46252e-08
9.46067e-08
9.45768e-08
9.45586e-08
9.4538e-08
9.44969e-08
9.45209e-08
9.6212e-08
6.33515e-08
2.70379e-08
1.23931e-07
1.23126e-07
1.22385e-07
1.21385e-07
1.20066e-07
1.18475e-07
1.16776e-07
1.15052e-07
1.13411e-07
1.11858e-07
1.10447e-07
1.09144e-07
1.0798e-07
1.06911e-07
1.05962e-07
1.05089e-07
1.04314e-07
1.03598e-07
1.02962e-07
1.02372e-07
1.01846e-07
1.01355e-07
1.00916e-07
1.00504e-07
1.00135e-07
9.97876e-08
9.94743e-08
9.91788e-08
9.89111e-08
9.86582e-08
9.84273e-08
9.82096e-08
9.80092e-08
9.78207e-08
9.76456e-08
9.74815e-08
9.73273e-08
9.71839e-08
9.70474e-08
9.69218e-08
9.67997e-08
9.66892e-08
9.65803e-08
9.64825e-08
9.6384e-08
9.62978e-08
9.62085e-08
9.61329e-08
9.60512e-08
9.59842e-08
9.59091e-08