/*--------------------------------*- C++ -*----------------------------------*\
| =========                 |                                                 |
| \\      /  F ield         | OpenFOAM: The Open Source CFD Toolbox           |
|  \\    /   O peration     | Version:  v2012                                 |
|   \\  /    A nd           | Website:  www.openfoam.com                      |
|    \\/     M anipulation  |                                                 |
\*---------------------------------------------------------------------------*/
FoamFile
{
    version     2.0;
    format      ascii;
    class       volScalarField;
    location    "57.5";
    object      omega;
}
// * * * * * * * * * * * * * * * * * * * * * * * * * * * * * * * * * * * * * //

dimensions      [0 0 -1 0 0 0 0];


internalField   nonuniform List<scalar> 
209825
(
8261.79
7570.24
6999.52
6538.98
6172.75
5883.07
5652.08
5466.46
5314.81
5189.99
5085.39
4997.51
4922.22
4857.95
4801.86
4753.41
4710.43
4673
4639.3
4609.78
4582.83
4559.16
4537.27
4518.01
4499.96
4484.1
4469.07
4455.87
4443.18
4432.11
4421.32
4411.95
4402.71
4394.73
4386.74
4379.91
4372.99
4367.12
4361.08
4355.99
4350.73
4346.31
4341.66
4337.83
4333.75
4330.4
4326.8
4323.83
4320.67
4318.08
4315.3
4313.05
4310.66
4308.63
4306.5
4304.73
4302.85
4301.3
4299.61
4298.26
4296.82
4295.72
4294.4
4293.49
4292.36
4291.59
4290.55
4289.9
4289.02
4288.52
4287.77
4287.37
4286.74
4286.4
4285.79
4285.42
4284.83
4284.5
4283.98
4283.71
4283.25
4283.04
4282.64
4282.48
4282.15
4282.12
4282.01
4282.18
4282.18
4282.48
4282.48
4283.11
4283.85
4311.86
4419.89
113068
8261.79
7570.25
6999.52
6538.97
6172.74
5883.05
5652.05
5466.42
5314.76
5189.94
5085.33
4997.44
4922.14
4857.87
4801.77
4753.32
4710.34
4672.9
4639.2
4609.67
4582.73
4559.05
4537.16
4517.89
4499.85
4483.99
4468.95
4455.75
4443.06
4431.99
4421.2
4411.83
4402.58
4394.61
4386.62
4379.79
4372.87
4367
4360.95
4355.86
4350.6
4346.18
4341.53
4337.7
4333.62
4330.27
4326.67
4323.7
4320.54
4317.95
4315.16
4312.92
4310.53
4308.5
4306.37
4304.6
4302.72
4301.17
4299.47
4298.12
4296.69
4295.58
4294.26
4293.35
4292.23
4291.45
4290.42
4289.76
4288.88
4288.38
4287.63
4287.23
4286.6
4286.26
4285.65
4285.28
4284.7
4284.36
4283.84
4283.57
4283.12
4282.9
4282.5
4282.34
4282.01
4281.98
4281.87
4282.04
4282.04
4282.34
4282.34
4282.97
4283.72
4311.77
4419.79
109769
8261.79
7570.25
6999.53
6538.96
6172.69
5882.97
5651.94
5466.27
5314.58
5189.73
5085.1
4997.19
4921.88
4857.59
4801.48
4753.01
4710.02
4672.57
4638.86
4609.33
4582.38
4558.69
4536.8
4517.52
4499.48
4483.61
4468.57
4455.36
4442.67
4431.59
4420.8
4411.43
4402.18
4394.2
4386.21
4379.38
4372.46
4366.58
4360.54
4355.44
4350.18
4345.76
4341.1
4337.28
4333.19
4329.84
4326.24
4323.27
4320.11
4317.52
4314.73
4312.48
4310.1
4308.06
4305.93
4304.16
4302.28
4300.73
4299.03
4297.68
4296.24
4295.14
4293.82
4292.91
4291.78
4291.01
4289.97
4289.32
4288.43
4287.93
4287.19
4286.78
4286.15
4285.81
4285.2
4284.83
4284.24
4283.91
4283.39
4283.12
4282.66
4282.45
4282.05
4281.89
4281.56
4281.52
4281.42
4281.58
4281.58
4281.88
4281.88
4282.51
4283.26
4311.41
4419.42
105982
8261.79
7570.26
6999.53
6538.93
6172.61
5882.83
5651.73
5466.01
5314.27
5189.38
5084.71
4996.77
4921.42
4857.11
4800.97
4752.49
4709.47
4672.01
4638.28
4608.74
4581.77
4558.08
4536.17
4516.89
4498.83
4482.96
4467.91
4454.69
4442
4430.91
4420.12
4410.74
4401.49
4393.5
4385.51
4378.67
4371.75
4365.87
4359.82
4354.72
4349.46
4345.03
4340.38
4336.55
4332.46
4329.11
4325.5
4322.53
4319.37
4316.77
4313.99
4311.74
4309.35
4307.31
4305.18
4303.41
4301.53
4299.97
4298.28
4296.93
4295.49
4294.38
4293.06
4292.15
4291.02
4290.24
4289.21
4288.55
4287.67
4287.17
4286.42
4286.01
4285.38
4285.04
4284.43
4284.06
4283.47
4283.14
4282.62
4282.35
4281.89
4281.67
4281.27
4281.11
4280.78
4280.75
4280.64
4280.8
4280.8
4281.1
4281.1
4281.73
4282.48
4310.78
4418.77
102088
8261.79
7570.28
6999.54
6538.89
6172.49
5882.63
5651.45
5465.64
5313.83
5188.88
5084.15
4996.16
4920.77
4856.42
4800.25
4751.73
4708.69
4671.2
4637.46
4607.89
4580.91
4557.2
4535.28
4515.98
4497.91
4482.03
4466.97
4453.75
4441.04
4429.95
4419.14
4409.76
4400.5
4392.51
4384.51
4377.67
4370.73
4364.85
4358.8
4353.7
4348.43
4344
4339.34
4335.51
4331.42
4328.06
4324.45
4321.48
4318.31
4315.72
4312.93
4310.67
4308.28
4306.25
4304.11
4302.34
4300.46
4298.9
4297.2
4295.85
4294.41
4293.3
4291.98
4291.06
4289.93
4289.16
4288.12
4287.46
4286.58
4286.07
4285.33
4284.92
4284.29
4283.94
4283.34
4282.96
4282.38
4282.04
4281.52
4281.25
4280.79
4280.57
4280.17
4280.01
4279.68
4279.64
4279.53
4279.69
4279.69
4279.98
4279.98
4280.61
4281.37
4309.88
4417.84
98190.2
8261.79
7570.3
6999.55
6538.84
6172.34
5882.36
5651.07
5465.17
5313.26
5188.23
5083.43
4995.37
4919.93
4855.52
4799.31
4750.75
4707.68
4670.16
4636.38
4606.79
4579.79
4556.06
4534.12
4514.8
4496.72
4480.82
4465.74
4452.51
4439.79
4428.69
4417.87
4408.48
4399.21
4391.21
4383.2
4376.35
4369.42
4363.53
4357.47
4352.36
4347.09
4342.66
4337.99
4334.15
4330.06
4326.7
4323.08
4320.11
4316.94
4314.34
4311.55
4309.29
4306.9
4304.86
4302.72
4300.95
4299.06
4297.5
4295.8
4294.44
4293
4291.89
4290.57
4289.65
4288.52
4287.74
4286.7
4286.04
4285.15
4284.65
4283.9
4283.49
4282.86
4282.51
4281.91
4281.53
4280.94
4280.61
4280.08
4279.81
4279.35
4279.13
4278.73
4278.57
4278.23
4278.2
4278.08
4278.24
4278.24
4278.52
4278.52
4279.15
4279.91
4308.69
4416.63
94330
8261.79
7570.33
6999.56
6538.77
6172.16
5882.04
5650.61
5464.58
5312.56
5187.42
5082.53
4994.39
4918.88
4854.41
4798.14
4749.54
4706.42
4668.86
4635.05
4605.43
4578.39
4554.64
4532.67
4513.34
4495.23
4479.31
4464.22
4450.97
4438.24
4427.13
4416.3
4406.89
4397.61
4389.61
4381.59
4374.73
4367.78
4361.89
4355.82
4350.71
4345.42
4340.99
4336.32
4332.47
4328.37
4325.01
4321.39
4318.41
4315.24
4312.63
4309.84
4307.58
4305.18
4303.14
4300.99
4299.22
4297.33
4295.77
4294.06
4292.7
4291.26
4290.15
4288.82
4287.9
4286.77
4285.99
4284.95
4284.29
4283.39
4282.89
4282.14
4281.73
4281.09
4280.74
4280.14
4279.76
4279.17
4278.83
4278.31
4278.03
4277.57
4277.35
4276.94
4276.78
4276.45
4276.41
4276.28
4276.44
4276.44
4276.72
4276.72
4277.34
4278.12
4307.23
4415.14
90525.8
8261.79
7570.36
6999.58
6538.7
6171.94
5881.65
5650.06
5463.87
5311.71
5186.45
5081.45
4993.22
4917.62
4853.09
4796.75
4748.09
4704.92
4667.31
4633.46
4603.8
4576.73
4552.94
4530.95
4511.59
4493.46
4477.52
4462.41
4449.14
4436.39
4425.26
4414.42
4405
4395.71
4387.68
4379.65
4372.79
4365.83
4359.93
4353.85
4348.73
4343.44
4339
4334.31
4330.47
4326.36
4322.99
4319.36
4316.38
4313.2
4310.59
4307.79
4305.52
4303.12
4301.08
4298.93
4297.15
4295.26
4293.69
4291.98
4290.62
4289.17
4288.06
4286.73
4285.81
4284.67
4283.89
4282.84
4282.18
4281.29
4280.78
4280.02
4279.61
4278.98
4278.63
4278.02
4277.64
4277.05
4276.71
4276.18
4275.9
4275.44
4275.22
4274.81
4274.65
4274.31
4274.27
4274.13
4274.29
4274.29
4274.56
4274.56
4275.18
4275.97
4305.49
4413.37
86786.5
8261.79
7570.4
6999.59
6538.61
6171.68
5881.2
5649.42
5463.05
5310.73
5185.32
5080.2
4991.86
4916.16
4851.54
4795.13
4746.4
4703.17
4665.51
4631.6
4601.9
4574.79
4550.97
4528.94
4509.55
4491.39
4475.43
4460.29
4447
4434.23
4423.08
4412.22
4402.79
4393.48
4385.44
4377.4
4370.52
4363.55
4357.64
4351.55
4346.42
4341.12
4336.67
4331.98
4328.12
4324.01
4320.63
4317
4314.01
4310.82
4308.21
4305.4
4303.13
4300.72
4298.67
4296.52
4294.74
4292.84
4291.27
4289.56
4288.2
4286.74
4285.62
4284.29
4283.36
4282.22
4281.44
4280.39
4279.73
4278.83
4278.32
4277.56
4277.15
4276.51
4276.16
4275.54
4275.16
4274.57
4274.23
4273.7
4273.42
4272.95
4272.73
4272.32
4272.15
4271.82
4271.77
4271.63
4271.78
4271.77
4272.04
4272.04
4272.65
4273.46
4303.46
4411.32
83114.9
8261.78
7570.44
6999.62
6538.51
6171.39
5880.69
5648.68
5462.11
5309.61
5184.04
5078.77
4990.3
4914.49
4849.77
4793.27
4744.46
4701.16
4663.44
4629.47
4599.72
4572.57
4548.7
4526.64
4507.21
4489.02
4473.03
4457.86
4444.55
4431.76
4420.58
4409.7
4400.25
4390.92
4382.88
4374.82
4367.92
4360.94
4355.01
4348.92
4343.77
4338.46
4334
4329.3
4325.44
4321.31
4317.93
4314.29
4311.29
4308.1
4305.48
4302.66
4300.39
4297.97
4295.92
4293.76
4291.97
4290.07
4288.5
4286.78
4285.41
4283.95
4282.83
4281.49
4280.56
4279.42
4278.63
4277.58
4276.91
4276.01
4275.49
4274.73
4274.32
4273.67
4273.32
4272.71
4272.33
4271.73
4271.39
4270.85
4270.57
4270.1
4269.88
4269.46
4269.3
4268.96
4268.9
4268.75
4268.9
4268.89
4269.15
4269.15
4269.76
4270.58
4301.14
4408.99
79509.1
8261.78
7570.49
6999.64
6538.4
6171.06
5880.12
5647.86
5461.06
5308.34
5182.59
5077.15
4988.54
4912.61
4847.77
4791.17
4742.28
4698.89
4661.1
4627.08
4597.27
4570.06
4546.15
4524.04
4504.57
4486.34
4470.32
4455.12
4441.78
4428.96
4417.77
4406.86
4397.39
4388.04
4379.97
4371.9
4364.99
4357.99
4352.05
4345.94
4340.78
4335.46
4330.99
4326.28
4322.4
4318.27
4314.88
4311.23
4308.22
4305.02
4302.39
4299.57
4297.29
4294.86
4292.8
4290.64
4288.85
4286.93
4285.36
4283.64
4282.26
4280.8
4279.67
4278.33
4277.4
4276.24
4275.45
4274.4
4273.73
4272.82
4272.31
4271.54
4271.12
4270.48
4270.12
4269.5
4269.12
4268.52
4268.18
4267.64
4267.35
4266.88
4266.65
4266.24
4266.07
4265.73
4265.67
4265.51
4265.65
4265.64
4265.89
4265.89
4266.49
4267.33
4298.52
4406.38
75963.5
8261.78
7570.54
6999.67
6538.27
6170.7
5879.48
5646.94
5459.88
5306.93
5180.97
5075.35
4986.58
4910.5
4845.55
4788.83
4739.84
4696.37
4658.5
4624.4
4594.52
4567.26
4543.29
4521.13
4501.62
4483.35
4467.29
4452.06
4438.69
4425.84
4414.62
4403.69
4394.19
4384.82
4376.73
4368.64
4361.71
4354.69
4348.74
4342.61
4337.44
4332.1
4327.62
4322.9
4319.01
4314.87
4311.47
4307.81
4304.79
4301.58
4298.94
4296.11
4293.82
4291.39
4289.33
4287.15
4285.36
4283.44
4281.86
4280.13
4278.75
4277.27
4276.15
4274.8
4273.86
4272.7
4271.91
4270.85
4270.17
4269.26
4268.74
4267.97
4267.55
4266.9
4266.54
4265.92
4265.54
4264.93
4264.59
4264.05
4263.76
4263.28
4263.05
4262.63
4262.46
4262.12
4262.05
4261.88
4262.01
4262
4262.24
4262.24
4262.83
4263.7
4295.6
4403.49
72474.2
8261.78
7570.59
6999.7
6538.14
6170.3
5878.77
5645.94
5458.59
5305.38
5179.19
5073.37
4984.42
4908.18
4843.08
4786.25
4737.15
4693.57
4655.61
4621.44
4591.49
4564.16
4540.14
4517.92
4498.36
4480.05
4463.95
4448.68
4435.27
4422.39
4411.13
4400.18
4390.65
4381.26
4373.15
4365.03
4358.09
4351.05
4345.07
4338.93
4333.75
4328.39
4323.9
4319.16
4315.26
4311.1
4307.69
4304.02
4301
4297.77
4295.13
4292.29
4289.99
4287.55
4285.48
4283.3
4281.49
4279.56
4277.98
4276.24
4274.86
4273.38
4272.24
4270.89
4269.94
4268.78
4267.98
4266.92
4266.24
4265.32
4264.8
4264.02
4263.6
4262.94
4262.58
4261.96
4261.57
4260.96
4260.62
4260.07
4259.78
4259.3
4259.06
4258.64
4258.46
4258.12
4258.05
4257.87
4257.99
4257.98
4258.21
4258.2
4258.79
4259.68
4292.37
4400.33
69047.8
8261.78
7570.66
6999.73
6538
6169.87
5878.01
5644.83
5457.17
5303.68
5177.24
5071.2
4982.05
4905.64
4840.39
4783.41
4734.19
4690.51
4652.45
4618.19
4588.17
4560.76
4536.67
4514.4
4494.79
4476.42
4460.27
4444.96
4431.51
4418.59
4407.31
4396.32
4386.77
4377.35
4369.21
4361.07
4354.1
4347.04
4341.05
4334.89
4329.69
4324.32
4319.81
4315.05
4311.14
4306.97
4303.55
4299.86
4296.83
4293.59
4290.94
4288.09
4285.78
4283.33
4281.25
4279.06
4277.25
4275.31
4273.72
4271.97
4270.59
4269.09
4267.96
4266.59
4265.65
4264.47
4263.67
4262.6
4261.92
4260.99
4260.46
4259.68
4259.25
4258.6
4258.23
4257.61
4257.22
4256.6
4256.25
4255.7
4255.41
4254.92
4254.68
4254.25
4254.08
4253.73
4253.65
4253.46
4253.58
4253.56
4253.78
4253.77
4254.35
4255.26
4288.84
4396.9
65690.5
8261.77
7570.72
6999.77
6537.84
6169.4
5877.18
5643.64
5455.64
5301.83
5175.12
5068.83
4979.47
4902.87
4837.45
4780.33
4730.97
4687.17
4649.01
4614.65
4584.54
4557.05
4532.9
4510.56
4490.89
4472.47
4456.27
4440.91
4427.42
4414.46
4403.14
4392.11
4382.53
4373.08
4364.92
4356.75
4349.76
4342.68
4336.66
4330.48
4325.26
4319.87
4315.34
4310.57
4306.65
4302.46
4299.02
4295.32
4292.28
4289.03
4286.37
4283.5
4281.18
4278.72
4276.64
4274.44
4272.62
4270.67
4269.07
4267.32
4265.92
4264.42
4263.28
4261.91
4260.95
4259.78
4258.97
4257.89
4257.2
4256.27
4255.74
4254.95
4254.52
4253.85
4253.49
4252.85
4252.46
4251.85
4251.49
4250.94
4250.64
4250.15
4249.91
4249.47
4249.29
4248.94
4248.86
4248.65
4248.76
4248.74
4248.95
4248.93
4249.5
4250.45
4284.98
4393.21
62407.7
8261.77
7570.8
6999.81
6537.68
6168.9
5876.29
5642.35
5453.98
5299.84
5172.83
5066.27
4976.68
4899.87
4834.27
4776.99
4727.49
4683.56
4645.28
4610.81
4580.61
4553.04
4528.81
4506.39
4486.66
4468.18
4451.93
4436.52
4422.98
4409.98
4398.62
4387.56
4377.94
4368.45
4360.26
4352.06
4345.05
4337.94
4331.9
4325.7
4320.46
4315.05
4310.5
4305.71
4301.77
4297.57
4294.12
4290.4
4287.35
4284.08
4281.41
4278.53
4276.2
4273.73
4271.63
4269.42
4267.59
4265.64
4264.03
4262.27
4260.87
4259.35
4258.2
4256.82
4255.86
4254.68
4253.86
4252.78
4252.09
4251.15
4250.61
4249.82
4249.38
4248.71
4248.34
4247.7
4247.3
4246.68
4246.32
4245.76
4245.46
4244.97
4244.72
4244.28
4244.09
4243.74
4243.65
4243.43
4243.53
4243.51
4243.7
4243.68
4244.24
4245.22
4280.79
4389.25
59204.7
8261.76
7570.87
6999.86
6537.5
6168.36
5875.33
5640.97
5452.2
5297.7
5170.36
5063.52
4973.68
4896.65
4830.85
4773.39
4723.74
4679.66
4641.26
4606.68
4576.38
4548.71
4524.39
4501.9
4482.1
4463.55
4447.24
4431.78
4418.2
4405.14
4393.74
4382.64
4372.99
4363.46
4355.24
4347.01
4339.97
4332.83
4326.77
4320.54
4315.28
4309.84
4305.28
4300.47
4296.51
4292.29
4288.82
4285.09
4282.02
4278.74
4276.06
4273.16
4270.82
4268.34
4266.23
4264.01
4262.17
4260.2
4258.59
4256.81
4255.41
4253.88
4252.72
4251.34
4250.37
4249.17
4248.35
4247.26
4246.56
4245.62
4245.07
4244.27
4243.83
4243.15
4242.78
4242.13
4241.74
4241.11
4240.75
4240.18
4239.87
4239.37
4239.12
4238.67
4238.48
4238.12
4238.03
4237.8
4237.89
4237.86
4238.04
4238.01
4238.57
4239.58
4276.26
4385.04
56086.3
8261.76
7570.96
6999.91
6537.32
6167.8
5874.31
5639.5
5450.3
5295.41
5167.72
5060.58
4970.46
4893.19
4827.18
4769.53
4719.71
4675.49
4636.95
4602.24
4571.83
4544.06
4519.66
4497.08
4477.21
4458.59
4442.21
4426.69
4413.05
4399.95
4388.5
4377.35
4367.66
4358.1
4349.84
4341.58
4334.5
4327.34
4321.25
4314.99
4309.71
4304.25
4299.66
4294.83
4290.86
4286.61
4283.13
4279.38
4276.3
4273
4270.3
4267.4
4265.04
4262.54
4260.42
4258.19
4256.34
4254.36
4252.74
4250.95
4249.54
4248
4246.84
4245.44
4244.46
4243.26
4242.43
4241.33
4240.62
4239.67
4239.12
4238.31
4237.86
4237.18
4236.8
4236.15
4235.75
4235.12
4234.75
4234.18
4233.86
4233.36
4233.1
4232.65
4232.45
4232.09
4231.99
4231.74
4231.82
4231.78
4231.95
4231.91
4232.46
4233.52
4271.39
4380.56
53057.2
8261.75
7571.04
6999.96
6537.12
6167.2
5873.23
5637.93
5448.27
5292.97
5164.91
5057.43
4967.03
4889.5
4823.26
4765.41
4715.41
4671.02
4632.34
4597.5
4566.97
4539.1
4514.59
4491.93
4471.97
4453.28
4436.83
4421.24
4407.55
4394.39
4382.89
4371.69
4361.96
4352.36
4344.06
4335.76
4328.66
4321.46
4315.34
4309.05
4303.74
4298.26
4293.65
4288.8
4284.8
4280.54
4277.04
4273.27
4270.17
4266.86
4264.14
4261.22
4258.85
4256.33
4254.21
4251.95
4250.1
4248.1
4246.47
4244.67
4243.25
4241.7
4240.53
4239.12
4238.14
4236.92
4236.09
4234.98
4234.27
4233.3
4232.74
4231.93
4231.47
4230.78
4230.4
4229.74
4229.34
4228.7
4228.33
4227.75
4227.43
4226.91
4226.65
4226.19
4225.99
4225.62
4225.51
4225.25
4225.32
4225.28
4225.44
4225.39
4225.93
4227.03
4266.14
4375.78
50121.3
8261.75
7571.14
7000.02
6536.92
6166.56
5872.09
5636.27
5446.13
5290.37
5161.92
5054.09
4963.38
4885.57
4819.09
4761.02
4710.82
4666.26
4627.43
4592.45
4561.79
4533.8
4509.19
4486.43
4466.39
4447.61
4431.1
4415.44
4401.68
4388.46
4376.91
4365.66
4355.88
4346.23
4337.9
4329.56
4322.42
4315.18
4309.04
4302.72
4297.38
4291.87
4287.24
4282.36
4278.34
4274.06
4270.54
4266.75
4263.63
4260.3
4257.57
4254.63
4252.24
4249.71
4247.57
4245.3
4243.44
4241.43
4239.79
4237.98
4236.54
4234.98
4233.8
4232.38
4231.38
4230.16
4229.32
4228.2
4227.48
4226.51
4225.94
4225.11
4224.65
4223.96
4223.56
4222.91
4222.49
4221.85
4221.47
4220.89
4220.56
4220.04
4219.77
4219.31
4219.1
4218.72
4218.61
4218.34
4218.39
4218.34
4218.48
4218.42
4218.95
4220.1
4260.52
4370.69
47282.4
8261.74
7571.23
7000.08
6536.71
6165.9
5870.89
5634.52
5443.86
5287.63
5158.76
5050.55
4959.51
4881.41
4814.67
4756.36
4705.96
4661.21
4622.21
4587.08
4556.29
4528.17
4503.46
4480.59
4460.46
4441.59
4425
4409.26
4395.44
4382.16
4370.55
4359.25
4349.42
4339.72
4331.35
4322.97
4315.79
4308.52
4302.34
4295.98
4290.62
4285.07
4280.42
4275.52
4271.47
4267.16
4263.62
4259.81
4256.68
4253.32
4250.58
4247.62
4245.21
4242.67
4240.51
4238.23
4236.35
4234.33
4232.68
4230.85
4229.41
4227.83
4226.64
4225.2
4224.2
4222.96
4222.11
4220.99
4220.26
4219.28
4218.7
4217.87
4217.39
4216.69
4216.3
4215.63
4215.21
4214.56
4214.18
4213.58
4213.26
4212.72
4212.45
4211.98
4211.77
4211.38
4211.26
4210.97
4211.02
4210.96
4211.08
4211.01
4211.53
4212.73
4254.5
4365.25
44544.1
8261.73
7571.34
7000.15
6536.5
6165.2
5869.63
5632.68
5441.47
5284.74
5155.42
5046.82
4955.42
4877
4809.99
4751.43
4700.81
4655.87
4616.69
4581.4
4550.47
4522.22
4497.38
4474.4
4454.17
4435.21
4418.54
4402.72
4388.83
4375.48
4363.81
4352.45
4342.57
4332.82
4324.4
4315.97
4308.76
4301.44
4295.23
4288.84
4283.45
4277.87
4273.19
4268.25
4264.19
4259.85
4256.29
4252.45
4249.3
4245.92
4243.16
4240.18
4237.76
4235.19
4233.03
4230.73
4228.83
4226.79
4225.13
4223.29
4221.84
4220.24
4219.04
4217.59
4216.58
4215.33
4214.47
4213.33
4212.6
4211.6
4211.02
4210.18
4209.7
4208.98
4208.58
4207.91
4207.49
4206.83
4206.44
4205.84
4205.5
4204.96
4204.68
4204.2
4203.98
4203.59
4203.46
4203.16
4203.19
4203.12
4203.23
4203.15
4203.66
4204.9
4248.06
4359.45
41909.3
8261.72
7571.44
7000.23
6536.27
6164.48
5868.31
5630.75
5438.96
5281.7
5151.91
5042.88
4951.11
4872.36
4805.05
4746.23
4695.38
4650.23
4610.86
4575.4
4544.31
4515.92
4490.96
4467.87
4447.53
4428.47
4411.71
4395.81
4381.84
4368.42
4356.69
4345.26
4335.33
4325.52
4317.05
4308.58
4301.32
4293.96
4287.71
4281.29
4275.86
4270.25
4265.54
4260.57
4256.48
4252.11
4248.53
4244.67
4241.49
4238.1
4235.31
4232.31
4229.87
4227.29
4225.1
4222.78
4220.88
4218.82
4217.15
4215.29
4213.82
4212.21
4211
4209.54
4208.52
4207.25
4206.39
4205.24
4204.49
4203.49
4202.89
4202.04
4201.55
4200.83
4200.42
4199.74
4199.31
4198.64
4198.25
4197.64
4197.3
4196.75
4196.46
4195.97
4195.74
4195.35
4195.21
4194.9
4194.91
4194.83
4194.93
4194.82
4195.33
4196.62
4241.18
4353.24
39380.9
8261.71
7571.55
7000.3
6536.04
6163.73
5866.93
5628.73
5436.33
5278.51
5148.22
5038.74
4946.57
4867.48
4799.86
4740.76
4689.66
4644.28
4604.72
4569.07
4537.83
4509.29
4484.19
4460.97
4440.52
4421.36
4404.51
4388.51
4374.47
4360.97
4349.17
4337.68
4327.68
4317.82
4309.3
4300.77
4293.47
4286.07
4279.78
4273.31
4267.85
4262.2
4257.46
4252.46
4248.34
4243.95
4240.33
4236.45
4233.25
4229.83
4227.03
4224
4221.55
4218.94
4216.74
4214.4
4212.48
4210.4
4208.72
4206.84
4205.37
4203.74
4202.52
4201.04
4200
4198.72
4197.85
4196.69
4195.93
4194.91
4194.31
4193.44
4192.95
4192.22
4191.8
4191.11
4190.68
4190
4189.6
4188.98
4188.63
4188.07
4187.78
4187.28
4187.05
4186.64
4186.49
4186.18
4186.17
4186.08
4186.16
4186.04
4186.53
4187.88
4233.83
4346.61
36961
8261.7
7571.67
7000.39
6535.81
6162.95
5865.5
5626.62
5433.58
5275.17
5144.35
5034.4
4941.82
4862.35
4794.41
4735.01
4683.65
4638.04
4598.26
4562.43
4531.01
4502.31
4477.07
4453.72
4433.15
4413.88
4396.93
4380.84
4366.71
4353.13
4341.26
4329.69
4319.64
4309.71
4301.14
4292.56
4285.2
4277.76
4271.42
4264.92
4259.41
4253.73
4248.95
4243.92
4239.77
4235.35
4231.71
4227.8
4224.58
4221.13
4218.3
4215.25
4212.78
4210.14
4207.93
4205.57
4203.63
4201.54
4199.84
4197.95
4196.46
4194.81
4193.58
4192.08
4191.04
4189.74
4188.85
4187.68
4186.91
4185.88
4185.27
4184.39
4183.88
4183.14
4182.72
4182.02
4181.58
4180.9
4180.49
4179.86
4179.5
4178.93
4178.63
4178.12
4177.88
4177.46
4177.31
4176.99
4176.96
4176.85
4176.92
4176.78
4177.26
4178.67
4225.98
4339.51
34652
8261.69
7571.79
7000.48
6535.57
6162.14
5864.01
5624.43
5430.71
5271.69
5140.31
5029.87
4936.85
4856.98
4788.69
4728.99
4677.35
4631.49
4591.49
4555.45
4523.85
4494.98
4469.6
4446.11
4425.42
4406.03
4388.97
4372.78
4358.56
4344.89
4332.95
4321.31
4311.19
4301.19
4292.56
4283.92
4276.52
4269.02
4262.64
4256.09
4250.55
4244.82
4240.02
4234.95
4230.76
4226.31
4222.64
4218.7
4215.45
4211.98
4209.13
4206.05
4203.56
4200.9
4198.67
4196.29
4194.33
4192.22
4190.5
4188.59
4187.09
4185.42
4184.17
4182.66
4181.6
4180.29
4179.4
4178.2
4177.43
4176.39
4175.76
4174.87
4174.35
4173.6
4173.17
4172.46
4172.02
4171.32
4170.91
4170.26
4169.9
4169.32
4169.01
4168.49
4168.24
4167.82
4167.65
4167.32
4167.28
4167.16
4167.2
4167.04
4167.52
4168.98
4217.6
4331.91
32455.5
8261.68
7571.91
7000.58
6535.33
6161.31
5862.47
5622.15
5427.73
5268.05
5136.1
5025.13
4931.65
4851.37
4782.72
4722.69
4670.76
4624.63
4584.4
4548.15
4516.36
4487.31
4461.77
4438.13
4417.31
4397.79
4380.62
4364.33
4350.02
4336.26
4324.23
4312.51
4302.32
4292.26
4283.57
4274.87
4267.41
4259.86
4253.43
4246.83
4241.25
4235.48
4230.64
4225.53
4221.31
4216.82
4213.13
4209.15
4205.88
4202.38
4199.5
4196.4
4193.88
4191.2
4188.95
4186.54
4184.57
4182.43
4180.7
4178.78
4177.26
4175.57
4174.31
4172.78
4171.71
4170.38
4169.47
4168.26
4167.48
4166.42
4165.78
4164.88
4164.35
4163.59
4163.15
4162.43
4161.98
4161.27
4160.85
4160.2
4159.82
4159.23
4158.92
4158.39
4158.13
4157.69
4157.52
4157.17
4157.12
4156.98
4157
4156.82
4157.29
4158.82
4208.64
4323.76
30373
8261.66
7572.04
7000.68
6535.09
6160.46
5860.87
5619.78
5424.63
5264.28
5131.71
5020.2
4926.23
4845.52
4776.48
4716.11
4663.88
4617.47
4577
4540.51
4508.52
4479.29
4453.58
4429.79
4408.83
4389.18
4371.89
4355.49
4341.08
4327.22
4315.11
4303.31
4293.04
4282.91
4274.15
4265.39
4257.88
4250.27
4243.79
4237.14
4231.52
4225.7
4220.82
4215.67
4211.42
4206.89
4203.16
4199.16
4195.85
4192.32
4189.42
4186.29
4183.75
4181.04
4178.77
4176.34
4174.35
4172.19
4170.44
4168.49
4166.95
4165.25
4163.97
4162.42
4161.34
4159.99
4159.07
4157.85
4157.05
4155.98
4155.33
4154.41
4153.87
4153.09
4152.64
4151.92
4151.46
4150.74
4150.31
4149.64
4149.26
4148.66
4148.34
4147.79
4147.53
4147.08
4146.89
4146.54
4146.47
4146.32
4146.32
4146.11
4146.57
4148.16
4199.08
4315.04
28406
8261.65
7572.17
7000.79
6534.84
6159.58
5859.23
5617.34
5421.42
5260.36
5127.15
5015.07
4920.59
4839.43
4769.99
4709.25
4656.7
4610
4569.27
4532.55
4500.35
4470.92
4445.04
4421.08
4399.97
4380.19
4362.78
4346.25
4331.74
4317.78
4305.58
4293.69
4283.35
4273.14
4264.31
4255.48
4247.91
4240.24
4233.71
4227.01
4221.34
4215.47
4210.55
4205.36
4201.07
4196.5
4192.74
4188.7
4185.37
4181.8
4178.87
4175.72
4173.15
4170.41
4168.12
4165.66
4163.65
4161.47
4159.7
4157.73
4156.18
4154.45
4153.16
4151.59
4150.49
4149.12
4148.19
4146.95
4146.14
4145.05
4144.39
4143.46
4142.91
4142.12
4141.66
4140.92
4140.45
4139.72
4139.28
4138.61
4138.22
4137.6
4137.27
4136.71
4136.43
4135.97
4135.78
4135.41
4135.33
4135.17
4135.15
4134.91
4135.36
4137.01
4188.9
4305.7
26555.6
8261.63
7572.3
7000.9
6534.59
6158.68
5857.54
5614.82
5418.1
5256.3
5122.43
5009.74
4914.74
4833.1
4763.24
4702.12
4649.23
4602.23
4561.22
4524.25
4491.83
4462.2
4436.13
4412
4390.74
4370.81
4353.27
4336.62
4322
4307.93
4295.63
4283.65
4273.23
4262.94
4254.04
4245.14
4237.51
4229.77
4223.19
4216.43
4210.71
4204.79
4199.83
4194.59
4190.26
4185.66
4181.86
4177.78
4174.42
4170.82
4167.86
4164.68
4162.08
4159.31
4157
4154.51
4152.49
4150.27
4148.49
4146.5
4144.93
4143.17
4141.87
4140.28
4139.16
4137.77
4136.83
4135.57
4134.75
4133.64
4132.97
4132.02
4131.46
4130.65
4130.18
4129.43
4128.95
4128.21
4127.76
4127.08
4126.68
4126.05
4125.71
4125.14
4124.85
4124.37
4124.17
4123.79
4123.69
4123.52
4123.47
4123.21
4123.65
4125.36
4178.11
4295.71
24823
8261.61
7572.44
7001.02
6534.34
6157.77
5855.81
5612.22
5414.68
5252.1
5117.53
5004.22
4908.66
4826.52
4756.22
4694.71
4641.47
4594.14
4552.85
4515.62
4482.97
4453.12
4426.86
4402.55
4381.13
4361.04
4343.37
4326.59
4311.85
4297.67
4285.27
4273.19
4262.69
4252.31
4243.34
4234.36
4226.66
4218.86
4212.22
4205.41
4199.63
4193.66
4188.65
4183.37
4179
4174.35
4170.52
4166.4
4163.01
4159.37
4156.38
4153.16
4150.54
4147.74
4145.4
4142.89
4140.84
4138.6
4136.8
4134.78
4133.19
4131.41
4130.09
4128.48
4127.35
4125.94
4124.98
4123.7
4122.87
4121.74
4121.05
4120.08
4119.51
4118.69
4118.21
4117.45
4116.96
4116.21
4115.75
4115.05
4114.64
4114
4113.64
4113.06
4112.76
4112.28
4112.06
4111.67
4111.55
4111.36
4111.3
4111
4111.44
4113.2
4166.7
4285.03
23209.1
8261.59
7572.58
7001.15
6534.09
6156.84
5854.03
5609.55
5411.14
5247.77
5112.47
4998.51
4902.37
4819.71
4748.95
4687.02
4633.41
4585.75
4544.17
4506.66
4473.76
4443.68
4417.22
4392.72
4371.13
4350.89
4333.07
4316.15
4301.29
4287
4274.5
4262.31
4251.72
4241.25
4232.21
4223.15
4215.38
4207.51
4200.81
4193.93
4188.1
4182.08
4177.02
4171.69
4167.28
4162.58
4158.71
4154.55
4151.12
4147.45
4144.43
4141.17
4138.52
4135.69
4133.33
4130.78
4128.71
4126.44
4124.62
4122.58
4120.97
4119.17
4117.83
4116.19
4115.04
4113.61
4112.63
4111.34
4110.49
4109.34
4108.64
4107.65
4107.07
4106.23
4105.74
4104.96
4104.47
4103.7
4103.23
4102.52
4102.1
4101.44
4101.08
4100.48
4100.17
4099.67
4099.45
4099.04
4098.91
4098.7
4098.62
4098.29
4098.71
4100.54
4154.67
4273.62
21709.6
8261.57
7572.72
7001.28
6533.85
6155.89
5852.21
5606.81
5407.51
5243.3
5107.25
4992.61
4895.87
4812.67
4741.42
4679.06
4625.07
4577.05
4535.16
4497.36
4464.21
4433.89
4407.22
4382.52
4360.76
4340.34
4322.38
4305.32
4290.33
4275.91
4263.3
4251.01
4240.32
4229.76
4220.63
4211.49
4203.65
4195.71
4188.94
4182
4176.12
4170.03
4164.93
4159.54
4155.08
4150.34
4146.43
4142.23
4138.76
4135.05
4132
4128.71
4126.02
4123.15
4120.77
4118.19
4116.1
4113.8
4111.96
4109.88
4108.26
4106.43
4105.07
4103.41
4102.24
4100.79
4099.79
4098.48
4097.61
4096.45
4095.73
4094.73
4094.13
4093.27
4092.77
4091.98
4091.47
4090.69
4090.21
4089.48
4089.05
4088.38
4088.01
4087.4
4087.07
4086.56
4086.32
4085.9
4085.75
4085.53
4085.43
4085.06
4085.48
4087.35
4142.03
4261.45
20319.7
8261.55
7572.86
7001.42
6533.6
6154.93
5850.35
5604
5403.77
5238.7
5101.87
4986.52
4889.15
4805.38
4733.64
4670.82
4616.43
4568.05
4525.83
4487.73
4454.31
4423.75
4396.85
4371.95
4350
4329.41
4311.29
4294.08
4278.96
4264.41
4251.68
4239.28
4228.49
4217.83
4208.62
4199.39
4191.48
4183.46
4176.63
4169.61
4163.67
4157.53
4152.37
4146.93
4142.42
4137.63
4133.67
4129.43
4125.93
4122.17
4119.09
4115.76
4113.04
4110.13
4107.72
4105.11
4102.99
4100.66
4098.8
4096.7
4095.05
4093.19
4091.81
4090.13
4088.94
4087.46
4086.45
4085.12
4084.24
4083.05
4082.32
4081.29
4080.68
4079.81
4079.29
4078.48
4077.97
4077.17
4076.68
4075.94
4075.5
4074.81
4074.42
4073.8
4073.46
4072.93
4072.68
4072.24
4072.08
4071.84
4071.72
4071.31
4071.73
4073.65
4128.76
4248.49
19034.5
8261.53
7573.01
7001.57
6533.36
6153.95
5848.46
5601.12
5399.94
5233.98
5096.34
4980.25
4882.23
4797.87
4725.61
4662.31
4607.5
4558.74
4516.18
4477.77
4444.07
4413.25
4386.12
4361
4338.86
4318.08
4299.8
4282.43
4267.17
4252.49
4239.64
4227.12
4216.23
4205.47
4196.17
4186.85
4178.85
4170.75
4163.85
4156.77
4150.77
4144.56
4139.34
4133.84
4129.29
4124.44
4120.44
4116.15
4112.61
4108.81
4105.69
4102.32
4099.57
4096.63
4094.19
4091.54
4089.4
4087.03
4085.15
4083.01
4081.35
4079.46
4078.06
4076.35
4075.14
4073.64
4072.61
4071.25
4070.35
4069.15
4068.39
4067.35
4066.72
4065.83
4065.3
4064.48
4063.95
4063.14
4062.64
4061.88
4061.43
4060.72
4060.32
4059.68
4059.33
4058.78
4058.52
4058.07
4057.89
4057.63
4057.5
4057.05
4057.45
4059.42
4114.86
4234.69
17848.7
8261.5
7573.16
7001.73
6533.12
6152.97
5846.53
5598.19
5396.02
5229.13
5090.65
4973.8
4875.1
4790.13
4717.32
4653.54
4598.29
4549.13
4506.21
4467.48
4433.49
4402.39
4375.03
4349.68
4327.33
4306.37
4287.91
4270.38
4254.98
4240.15
4227.18
4214.54
4203.54
4192.67
4183.27
4173.86
4165.78
4157.6
4150.62
4143.46
4137.4
4131.12
4125.85
4120.29
4115.68
4110.78
4106.74
4102.4
4098.81
4094.97
4091.81
4088.4
4085.61
4082.63
4080.16
4077.47
4075.3
4072.9
4071
4068.83
4067.15
4065.22
4063.8
4062.06
4060.83
4059.3
4058.25
4056.87
4055.96
4054.73
4053.96
4052.9
4052.25
4051.34
4050.8
4049.96
4049.42
4048.59
4048.08
4047.3
4046.84
4046.12
4045.71
4045.05
4044.69
4044.12
4043.84
4043.37
4043.18
4042.9
4042.75
4042.26
4042.66
4044.66
4100.34
4220.04
16757
8261.47
7573.31
7001.89
6532.89
6151.98
5844.57
5595.19
5392.01
5224.16
5084.81
4967.18
4867.77
4782.16
4708.79
4644.49
4588.79
4539.22
4495.93
4456.86
4422.56
4391.19
4363.57
4337.98
4315.43
4294.26
4275.63
4257.92
4242.37
4227.39
4214.3
4201.52
4190.41
4179.43
4169.93
4160.42
4152.26
4143.98
4136.94
4129.7
4123.57
4117.21
4111.88
4106.26
4101.6
4096.64
4092.55
4088.16
4084.53
4080.64
4077.44
4073.98
4071.16
4068.13
4065.64
4062.91
4060.71
4058.28
4056.35
4054.15
4052.44
4050.48
4049.04
4047.27
4046.02
4044.46
4043.39
4041.99
4041.06
4039.8
4039.02
4037.93
4037.27
4036.34
4035.78
4034.92
4034.37
4033.53
4033
4032.21
4031.73
4030.99
4030.57
4029.89
4029.52
4028.93
4028.64
4028.15
4027.94
4027.64
4027.48
4026.95
4027.34
4029.37
4085.19
4204.5
15753.4
8261.44
7573.46
7002.06
6532.67
6150.98
5842.59
5592.15
5387.92
5219.08
5078.83
4960.38
4860.24
4773.98
4700.02
4635.19
4579.01
4529.01
4485.34
4445.91
4411.3
4379.63
4351.75
4325.91
4303.14
4281.77
4262.95
4245.06
4229.35
4214.22
4200.99
4188.08
4176.85
4165.75
4156.15
4146.54
4138.28
4129.92
4122.79
4115.47
4109.27
4102.84
4097.45
4091.76
4087.04
4082.02
4077.88
4073.43
4069.77
4065.82
4062.58
4059.08
4056.22
4053.15
4050.62
4047.85
4045.63
4043.15
4041.19
4038.96
4037.23
4035.23
4033.77
4031.97
4030.7
4029.11
4028.02
4026.59
4025.64
4024.36
4023.56
4022.45
4021.76
4020.82
4020.25
4019.36
4018.8
4017.94
4017.4
4016.59
4016.1
4015.34
4014.9
4014.21
4013.82
4013.21
4012.91
4012.4
4012.17
4011.86
4011.67
4011.1
4011.48
4013.54
4069.41
4188.05
14832.3
8261.41
7573.61
7002.23
6532.45
6149.98
5840.59
5589.05
5383.75
5213.89
5072.72
4953.41
4852.52
4765.57
4691
4625.62
4568.96
4518.5
4474.43
4434.64
4399.7
4367.72
4339.57
4313.48
4290.47
4268.88
4249.87
4231.8
4215.92
4200.63
4187.26
4174.21
4162.85
4151.63
4141.93
4132.2
4123.86
4115.39
4108.18
4100.78
4094.5
4088
4082.54
4076.78
4072.01
4066.93
4062.73
4058.23
4054.51
4050.51
4047.23