/*--------------------------------*- C++ -*----------------------------------*\
| =========                 |                                                 |
| \\      /  F ield         | OpenFOAM: The Open Source CFD Toolbox           |
|  \\    /   O peration     | Version:  v2012                                 |
|   \\  /    A nd           | Website:  www.openfoam.com                      |
|    \\/     M anipulation  |                                                 |
\*---------------------------------------------------------------------------*/
FoamFile
{
    version     2.0;
    format      ascii;
    class       volVectorField;
    location    "57.5";
    object      wallShearStress;
}
// * * * * * * * * * * * * * * * * * * * * * * * * * * * * * * * * * * * * * //

dimensions      [0 2 -2 0 0 0 0];


internalField   uniform (0 0 0);

boundaryField
{
    inlet
    {
        type            calculated;
        value           uniform (0 0 0);
    }
    outlet
    {
        type            calculated;
        value           uniform (0 0 0);
    }
    topWall
    {
        type            calculated;
        value           nonuniform List<vector> 
545
(
(3.6741e-08 -2.58624e-08 0)
(3.67297e-08 -7.23474e-08 0)
(3.67096e-08 -1.20686e-07 0)
(3.66812e-08 -1.67627e-07 0)
(3.66455e-08 -2.1257e-07 0)
(3.66032e-08 -2.56092e-07 0)
(3.6555e-08 -2.98564e-07 0)
(3.65012e-08 -3.39966e-07 0)
(3.64422e-08 -3.80208e-07 0)
(3.63787e-08 -4.19288e-07 0)
(3.63109e-08 -4.57258e-07 0)
(3.62393e-08 -4.94162e-07 0)
(3.61643e-08 -5.30025e-07 0)
(3.60863e-08 -5.64868e-07 0)
(3.60055e-08 -5.98716e-07 0)
(3.59223e-08 -6.31595e-07 0)
(3.5837e-08 -6.63533e-07 0)
(3.57499e-08 -6.94554e-07 0)
(3.56611e-08 -7.24682e-07 0)
(3.5571e-08 -7.53942e-07 0)
(3.54798e-08 -7.82358e-07 0)
(3.53877e-08 -8.09953e-07 0)
(3.52948e-08 -8.36751e-07 0)
(3.52015e-08 -8.62773e-07 0)
(3.51077e-08 -8.88041e-07 0)
(3.50138e-08 -9.12577e-07 0)
(3.49197e-08 -9.36403e-07 0)
(3.48258e-08 -9.59537e-07 0)
(3.47321e-08 -9.82001e-07 0)
(3.46386e-08 -1.00381e-06 0)
(3.45456e-08 -1.02499e-06 0)
(3.44531e-08 -1.04556e-06 0)
(3.43613e-08 -1.06553e-06 0)
(3.42701e-08 -1.08492e-06 0)
(3.41796e-08 -1.10375e-06 0)
(3.409e-08 -1.12204e-06 0)
(3.40013e-08 -1.1398e-06 0)
(3.39136e-08 -1.15704e-06 0)
(3.38269e-08 -1.17379e-06 0)
(3.37412e-08 -1.19005e-06 0)
(3.36565e-08 -1.20585e-06 0)
(3.3573e-08 -1.22119e-06 0)
(3.34907e-08 -1.23609e-06 0)
(3.34095e-08 -1.25056e-06 0)
(3.33296e-08 -1.26461e-06 0)
(3.32508e-08 -1.27826e-06 0)
(3.31733e-08 -1.29152e-06 0)
(3.30971e-08 -1.3044e-06 0)
(3.30221e-08 -1.31692e-06 0)
(3.29484e-08 -1.32907e-06 0)
(3.28759e-08 -1.34088e-06 0)
(3.28048e-08 -1.35235e-06 0)
(3.27349e-08 -1.3635e-06 0)
(3.26663e-08 -1.37433e-06 0)
(3.2599e-08 -1.38485e-06 0)
(3.25329e-08 -1.39507e-06 0)
(3.24681e-08 -1.40501e-06 0)
(3.24046e-08 -1.41466e-06 0)
(3.23423e-08 -1.42404e-06 0)
(3.22812e-08 -1.43315e-06 0)
(3.22214e-08 -1.44201e-06 0)
(3.21628e-08 -1.45062e-06 0)
(3.21054e-08 -1.45899e-06 0)
(3.20492e-08 -1.46712e-06 0)
(3.19942e-08 -1.47502e-06 0)
(3.19404e-08 -1.4827e-06 0)
(3.18877e-08 -1.49017e-06 0)
(3.18361e-08 -1.49743e-06 0)
(3.17856e-08 -1.50448e-06 0)
(3.17363e-08 -1.51134e-06 0)
(3.1688e-08 -1.51801e-06 0)
(3.16411e-08 -1.52449e-06 0)
(3.15955e-08 -1.53072e-06 0)
(3.15506e-08 -1.53676e-06 0)
(3.15061e-08 -1.54274e-06 0)
(3.14617e-08 -1.54869e-06 0)
(3.14174e-08 -1.55462e-06 0)
(3.13732e-08 -1.56051e-06 0)
(3.1329e-08 -1.56636e-06 0)
(3.12848e-08 -1.57218e-06 0)
(3.12407e-08 -1.57796e-06 0)
(3.11966e-08 -1.58371e-06 0)
(3.11525e-08 -1.58942e-06 0)
(3.11085e-08 -1.5951e-06 0)
(3.10646e-08 -1.60075e-06 0)
(3.10207e-08 -1.60636e-06 0)
(3.09768e-08 -1.61194e-06 0)
(3.0933e-08 -1.61748e-06 0)
(3.08893e-08 -1.623e-06 0)
(3.08456e-08 -1.62848e-06 0)
(3.0802e-08 -1.63392e-06 0)
(3.07584e-08 -1.63934e-06 0)
(3.07149e-08 -1.64472e-06 0)
(3.06716e-08 -1.65006e-06 0)
(3.06278e-08 -1.65539e-06 0)
(3.05862e-08 -1.66063e-06 0)
(3.05478e-08 -1.66543e-06 0)
(3.05107e-08 -1.66977e-06 0)
(3.04748e-08 -1.67401e-06 0)
(3.0439e-08 -1.67826e-06 0)
(3.04032e-08 -1.68255e-06 0)
(3.03672e-08 -1.68685e-06 0)
(3.0331e-08 -1.69115e-06 0)
(3.02947e-08 -1.69546e-06 0)
(3.02582e-08 -1.69976e-06 0)
(3.02215e-08 -1.70408e-06 0)
(3.01847e-08 -1.70839e-06 0)
(3.01477e-08 -1.71272e-06 0)
(3.01105e-08 -1.71704e-06 0)
(3.00731e-08 -1.72138e-06 0)
(3.00355e-08 -1.72571e-06 0)
(2.99978e-08 -1.73006e-06 0)
(2.99599e-08 -1.7344e-06 0)
(2.99218e-08 -1.73875e-06 0)
(2.98835e-08 -1.74311e-06 0)
(2.98451e-08 -1.74747e-06 0)
(2.98064e-08 -1.75184e-06 0)
(2.97676e-08 -1.75621e-06 0)
(2.97286e-08 -1.76058e-06 0)
(2.96894e-08 -1.76496e-06 0)
(2.96501e-08 -1.76935e-06 0)
(2.96105e-08 -1.77373e-06 0)
(2.95708e-08 -1.77813e-06 0)
(2.95309e-08 -1.78252e-06 0)
(2.94908e-08 -1.78693e-06 0)
(2.94506e-08 -1.79133e-06 0)
(2.94101e-08 -1.79574e-06 0)
(2.93694e-08 -1.80016e-06 0)
(2.93286e-08 -1.80458e-06 0)
(2.92876e-08 -1.809e-06 0)
(2.92464e-08 -1.81343e-06 0)
(2.9205e-08 -1.81786e-06 0)
(2.91634e-08 -1.8223e-06 0)
(2.91216e-08 -1.82673e-06 0)
(2.90797e-08 -1.83118e-06 0)
(2.90375e-08 -1.83563e-06 0)
(2.89952e-08 -1.84008e-06 0)
(2.89526e-08 -1.84454e-06 0)
(2.89099e-08 -1.849e-06 0)
(2.8867e-08 -1.85346e-06 0)
(2.88239e-08 -1.85793e-06 0)
(2.87806e-08 -1.8624e-06 0)
(2.87371e-08 -1.86687e-06 0)
(2.86934e-08 -1.87135e-06 0)
(2.86495e-08 -1.87584e-06 0)
(2.86054e-08 -1.88032e-06 0)
(2.85612e-08 -1.88481e-06 0)
(2.85167e-08 -1.88931e-06 0)
(2.8472e-08 -1.8938e-06 0)
(2.84272e-08 -1.8983e-06 0)
(2.83821e-08 -1.90281e-06 0)
(2.83368e-08 -1.90732e-06 0)
(2.82914e-08 -1.91183e-06 0)
(2.82457e-08 -1.91634e-06 0)
(2.81999e-08 -1.92086e-06 0)
(2.81538e-08 -1.92538e-06 0)
(2.81076e-08 -1.92991e-06 0)
(2.80612e-08 -1.93443e-06 0)
(2.80145e-08 -1.93896e-06 0)
(2.79677e-08 -1.9435e-06 0)
(2.79206e-08 -1.94804e-06 0)
(2.78734e-08 -1.95258e-06 0)
(2.78259e-08 -1.95712e-06 0)
(2.77783e-08 -1.96166e-06 0)
(2.77304e-08 -1.96621e-06 0)
(2.76824e-08 -1.97076e-06 0)
(2.76341e-08 -1.97532e-06 0)
(2.75856e-08 -1.97988e-06 0)
(2.7537e-08 -1.98444e-06 0)
(2.74881e-08 -1.989e-06 0)
(2.7439e-08 -1.99356e-06 0)
(2.73898e-08 -1.99813e-06 0)
(2.73403e-08 -2.0027e-06 0)
(2.72906e-08 -2.00727e-06 0)
(2.72407e-08 -2.01185e-06 0)
(2.71906e-08 -2.01643e-06 0)
(2.71403e-08 -2.02101e-06 0)
(2.70898e-08 -2.02559e-06 0)
(2.70391e-08 -2.03017e-06 0)
(2.69882e-08 -2.03476e-06 0)
(2.6937e-08 -2.03935e-06 0)
(2.68857e-08 -2.04394e-06 0)
(2.68341e-08 -2.04853e-06 0)
(2.67824e-08 -2.05313e-06 0)
(2.67304e-08 -2.05773e-06 0)
(2.66783e-08 -2.06232e-06 0)
(2.66259e-08 -2.06692e-06 0)
(2.65733e-08 -2.07153e-06 0)
(2.65205e-08 -2.07613e-06 0)
(2.64675e-08 -2.08074e-06 0)
(2.64143e-08 -2.08534e-06 0)
(2.63609e-08 -2.08995e-06 0)
(2.63073e-08 -2.09456e-06 0)
(2.62534e-08 -2.09917e-06 0)
(2.61994e-08 -2.10379e-06 0)
(2.61452e-08 -2.1084e-06 0)
(2.60907e-08 -2.11302e-06 0)
(2.6036e-08 -2.11763e-06 0)
(2.59811e-08 -2.12225e-06 0)
(2.5926e-08 -2.12687e-06 0)
(2.58707e-08 -2.13149e-06 0)
(2.58152e-08 -2.13611e-06 0)
(2.57595e-08 -2.14074e-06 0)
(2.57036e-08 -2.14536e-06 0)
(2.56474e-08 -2.14998e-06 0)
(2.55911e-08 -2.15461e-06 0)
(2.55345e-08 -2.15923e-06 0)
(2.54777e-08 -2.16386e-06 0)
(2.54208e-08 -2.16848e-06 0)
(2.53636e-08 -2.17311e-06 0)
(2.53062e-08 -2.17774e-06 0)
(2.52485e-08 -2.18237e-06 0)
(2.51907e-08 -2.18699e-06 0)
(2.51327e-08 -2.19162e-06 0)
(2.50744e-08 -2.19625e-06 0)
(2.5016e-08 -2.20088e-06 0)
(2.49573e-08 -2.20551e-06 0)
(2.48985e-08 -2.21014e-06 0)
(2.48394e-08 -2.21477e-06 0)
(2.47801e-08 -2.21939e-06 0)
(2.47206e-08 -2.22402e-06 0)
(2.46609e-08 -2.22865e-06 0)
(2.4601e-08 -2.23328e-06 0)
(2.45408e-08 -2.23791e-06 0)
(2.44805e-08 -2.24253e-06 0)
(2.442e-08 -2.24716e-06 0)
(2.43592e-08 -2.25179e-06 0)
(2.42982e-08 -2.25641e-06 0)
(2.42371e-08 -2.26103e-06 0)
(2.41757e-08 -2.26566e-06 0)
(2.41141e-08 -2.27028e-06 0)
(2.40523e-08 -2.2749e-06 0)
(2.39903e-08 -2.27952e-06 0)
(2.39281e-08 -2.28414e-06 0)
(2.38657e-08 -2.28876e-06 0)
(2.38031e-08 -2.29338e-06 0)
(2.37403e-08 -2.298e-06 0)
(2.36773e-08 -2.30261e-06 0)
(2.3614e-08 -2.30722e-06 0)
(2.35506e-08 -2.31183e-06 0)
(2.3487e-08 -2.31644e-06 0)
(2.34231e-08 -2.32105e-06 0)
(2.33591e-08 -2.32566e-06 0)
(2.32948e-08 -2.33026e-06 0)
(2.32304e-08 -2.33487e-06 0)
(2.31657e-08 -2.33947e-06 0)
(2.31009e-08 -2.34407e-06 0)
(2.30358e-08 -2.34866e-06 0)
(2.29706e-08 -2.35326e-06 0)
(2.29051e-08 -2.35785e-06 0)
(2.28395e-08 -2.36244e-06 0)
(2.27736e-08 -2.36703e-06 0)
(2.27076e-08 -2.37162e-06 0)
(2.26413e-08 -2.3762e-06 0)
(2.25749e-08 -2.38078e-06 0)
(2.25082e-08 -2.38536e-06 0)
(2.24414e-08 -2.38993e-06 0)
(2.23744e-08 -2.3945e-06 0)
(2.23072e-08 -2.39907e-06 0)
(2.22397e-08 -2.40364e-06 0)
(2.21721e-08 -2.4082e-06 0)
(2.21043e-08 -2.41276e-06 0)
(2.20363e-08 -2.41731e-06 0)
(2.19681e-08 -2.42187e-06 0)
(2.18998e-08 -2.42642e-06 0)
(2.18312e-08 -2.43096e-06 0)
(2.17625e-08 -2.4355e-06 0)
(2.16932e-08 -2.44005e-06 0)
(2.16258e-08 -2.44456e-06 0)
(2.15611e-08 -2.44885e-06 0)
(2.14972e-08 -2.45293e-06 0)
(2.14341e-08 -2.45698e-06 0)
(2.13706e-08 -2.46107e-06 0)
(2.13065e-08 -2.46521e-06 0)
(2.12417e-08 -2.46938e-06 0)
(2.11761e-08 -2.47358e-06 0)
(2.11099e-08 -2.47782e-06 0)
(2.10429e-08 -2.48208e-06 0)
(2.09752e-08 -2.48638e-06 0)
(2.09067e-08 -2.49071e-06 0)
(2.08375e-08 -2.49508e-06 0)
(2.07675e-08 -2.49948e-06 0)
(2.06967e-08 -2.50391e-06 0)
(2.06252e-08 -2.50837e-06 0)
(2.05529e-08 -2.51286e-06 0)
(2.04798e-08 -2.51739e-06 0)
(2.04059e-08 -2.52195e-06 0)
(2.03312e-08 -2.52655e-06 0)
(2.02557e-08 -2.53117e-06 0)
(2.01794e-08 -2.53583e-06 0)
(2.01022e-08 -2.54053e-06 0)
(2.00242e-08 -2.54525e-06 0)
(1.99454e-08 -2.55001e-06 0)
(1.98658e-08 -2.5548e-06 0)
(1.97853e-08 -2.55962e-06 0)
(1.97039e-08 -2.56448e-06 0)
(1.96217e-08 -2.56936e-06 0)
(1.95386e-08 -2.57428e-06 0)
(1.94546e-08 -2.57924e-06 0)
(1.93698e-08 -2.58422e-06 0)
(1.9284e-08 -2.58924e-06 0)
(1.91974e-08 -2.59428e-06 0)
(1.91098e-08 -2.59936e-06 0)
(1.90213e-08 -2.60448e-06 0)
(1.8932e-08 -2.60962e-06 0)
(1.88417e-08 -2.61479e-06 0)
(1.87504e-08 -2.62e-06 0)
(1.86583e-08 -2.62523e-06 0)
(1.85652e-08 -2.6305e-06 0)
(1.84711e-08 -2.6358e-06 0)
(1.83761e-08 -2.64113e-06 0)
(1.82801e-08 -2.64648e-06 0)
(1.81832e-08 -2.65187e-06 0)
(1.80853e-08 -2.65729e-06 0)
(1.79865e-08 -2.66273e-06 0)
(1.78866e-08 -2.66821e-06 0)
(1.77858e-08 -2.67371e-06 0)
(1.7684e-08 -2.67924e-06 0)
(1.75812e-08 -2.6848e-06 0)
(1.74773e-08 -2.69039e-06 0)
(1.73725e-08 -2.696e-06 0)
(1.72667e-08 -2.70164e-06 0)
(1.71599e-08 -2.70731e-06 0)
(1.70521e-08 -2.713e-06 0)
(1.69432e-08 -2.71872e-06 0)
(1.68334e-08 -2.72446e-06 0)
(1.67225e-08 -2.73023e-06 0)
(1.66106e-08 -2.73602e-06 0)
(1.64976e-08 -2.74183e-06 0)
(1.63837e-08 -2.74767e-06 0)
(1.62687e-08 -2.75353e-06 0)
(1.61527e-08 -2.75941e-06 0)
(1.60357e-08 -2.76531e-06 0)
(1.59176e-08 -2.77124e-06 0)
(1.57985e-08 -2.77718e-06 0)
(1.56783e-08 -2.78314e-06 0)
(1.55572e-08 -2.78912e-06 0)
(1.5435e-08 -2.79512e-06 0)
(1.53118e-08 -2.80114e-06 0)
(1.51875e-08 -2.80717e-06 0)
(1.50622e-08 -2.81321e-06 0)
(1.4936e-08 -2.81928e-06 0)
(1.48087e-08 -2.82535e-06 0)
(1.46803e-08 -2.83144e-06 0)
(1.4551e-08 -2.83754e-06 0)
(1.44207e-08 -2.84366e-06 0)
(1.42893e-08 -2.84978e-06 0)
(1.4157e-08 -2.85591e-06 0)
(1.40237e-08 -2.86206e-06 0)
(1.38894e-08 -2.86821e-06 0)
(1.37541e-08 -2.87436e-06 0)
(1.36179e-08 -2.88053e-06 0)
(1.34807e-08 -2.88669e-06 0)
(1.33425e-08 -2.89286e-06 0)
(1.32034e-08 -2.89904e-06 0)
(1.30634e-08 -2.90521e-06 0)
(1.29225e-08 -2.91138e-06 0)
(1.27806e-08 -2.91756e-06 0)
(1.26379e-08 -2.92373e-06 0)
(1.24942e-08 -2.9299e-06 0)
(1.23498e-08 -2.93606e-06 0)
(1.22044e-08 -2.94222e-06 0)
(1.20582e-08 -2.94837e-06 0)
(1.19112e-08 -2.95451e-06 0)
(1.17634e-08 -2.96065e-06 0)
(1.16148e-08 -2.96677e-06 0)
(1.14654e-08 -2.97288e-06 0)
(1.13153e-08 -2.97897e-06 0)
(1.11644e-08 -2.98505e-06 0)
(1.10129e-08 -2.99111e-06 0)
(1.08606e-08 -2.99716e-06 0)
(1.07077e-08 -3.00318e-06 0)
(1.05541e-08 -3.00919e-06 0)
(1.03999e-08 -3.01517e-06 0)
(1.02451e-08 -3.02113e-06 0)
(1.00897e-08 -3.02706e-06 0)
(9.93382e-09 -3.03296e-06 0)
(9.77739e-09 -3.03884e-06 0)
(9.62047e-09 -3.04468e-06 0)
(9.46308e-09 -3.05049e-06 0)
(9.30526e-09 -3.05627e-06 0)
(9.14704e-09 -3.06201e-06 0)
(8.98845e-09 -3.06771e-06 0)
(8.82952e-09 -3.07338e-06 0)
(8.67029e-09 -3.079e-06 0)
(8.51078e-09 -3.08458e-06 0)
(8.35104e-09 -3.09012e-06 0)
(8.1911e-09 -3.09561e-06 0)
(8.03099e-09 -3.10106e-06 0)
(7.87075e-09 -3.10645e-06 0)
(7.71043e-09 -3.11179e-06 0)
(7.55005e-09 -3.11708e-06 0)
(7.38966e-09 -3.12231e-06 0)
(7.2293e-09 -3.12749e-06 0)
(7.06901e-09 -3.13261e-06 0)
(6.90883e-09 -3.13766e-06 0)
(6.74881e-09 -3.14266e-06 0)
(6.58898e-09 -3.14759e-06 0)
(6.4294e-09 -3.15245e-06 0)
(6.2701e-09 -3.15725e-06 0)
(6.11112e-09 -3.16197e-06 0)
(5.95253e-09 -3.16663e-06 0)
(5.79435e-09 -3.17121e-06 0)
(5.63665e-09 -3.17572e-06 0)
(5.47945e-09 -3.18015e-06 0)
(5.32282e-09 -3.1845e-06 0)
(5.16681e-09 -3.18877e-06 0)
(5.01144e-09 -3.19296e-06 0)
(4.85679e-09 -3.19706e-06 0)
(4.70289e-09 -3.20108e-06 0)
(4.5498e-09 -3.20501e-06 0)
(4.39756e-09 -3.20886e-06 0)
(4.24622e-09 -3.21261e-06 0)
(4.09584e-09 -3.21627e-06 0)
(3.94645e-09 -3.21984e-06 0)
(3.79812e-09 -3.22331e-06 0)
(3.6509e-09 -3.22668e-06 0)
(3.50482e-09 -3.22996e-06 0)
(3.35994e-09 -3.23314e-06 0)
(3.21631e-09 -3.23621e-06 0)
(3.07398e-09 -3.23919e-06 0)
(2.93299e-09 -3.24206e-06 0)
(2.7934e-09 -3.24482e-06 0)
(2.65526e-09 -3.24748e-06 0)
(2.5186e-09 -3.25003e-06 0)
(2.38347e-09 -3.25248e-06 0)
(2.24993e-09 -3.25481e-06 0)
(2.11802e-09 -3.25703e-06 0)
(1.98778e-09 -3.25914e-06 0)
(1.85926e-09 -3.26114e-06 0)
(1.73249e-09 -3.26303e-06 0)
(1.60753e-09 -3.2648e-06 0)
(1.48441e-09 -3.26645e-06 0)
(1.36318e-09 -3.26799e-06 0)
(1.24387e-09 -3.26942e-06 0)
(1.12652e-09 -3.27073e-06 0)
(1.01117e-09 -3.27192e-06 0)
(8.9786e-10 -3.27299e-06 0)
(7.86619e-10 -3.27394e-06 0)
(6.77484e-10 -3.27478e-06 0)
(5.70486e-10 -3.2755e-06 0)
(4.65658e-10 -3.2761e-06 0)
(3.63029e-10 -3.27658e-06 0)
(2.62627e-10 -3.27695e-06 0)
(1.64484e-10 -3.27719e-06 0)
(6.86081e-11 -3.27732e-06 0)
(-2.48987e-11 -3.27733e-06 0)
(-1.16343e-10 -3.27722e-06 0)
(-2.04312e-10 -3.277e-06 0)
(-2.9464e-10 -3.27665e-06 0)
(-3.8964e-10 -3.27614e-06 0)
(-4.84361e-10 -3.27542e-06 0)
(-5.7728e-10 -3.27454e-06 0)
(-6.66151e-10 -3.27351e-06 0)
(-7.5068e-10 -3.27234e-06 0)
(-8.30922e-10 -3.27104e-06 0)
(-9.06963e-10 -3.26961e-06 0)
(-9.78906e-10 -3.26807e-06 0)
(-1.04688e-09 -3.26641e-06 0)
(-1.111e-09 -3.26464e-06 0)
(-1.17141e-09 -3.26278e-06 0)
(-1.22822e-09 -3.26081e-06 0)
(-1.28154e-09 -3.25877e-06 0)
(-1.33149e-09 -3.25663e-06 0)
(-1.37818e-09 -3.25442e-06 0)
(-1.4217e-09 -3.25214e-06 0)
(-1.46217e-09 -3.24979e-06 0)
(-1.49969e-09 -3.24738e-06 0)
(-1.53435e-09 -3.2449e-06 0)
(-1.56624e-09 -3.24238e-06 0)
(-1.59546e-09 -3.2398e-06 0)
(-1.62209e-09 -3.23719e-06 0)
(-1.64622e-09 -3.23453e-06 0)
(-1.66793e-09 -3.23183e-06 0)
(-1.6873e-09 -3.2291e-06 0)
(-1.7044e-09 -3.22634e-06 0)
(-1.71931e-09 -3.22355e-06 0)
(-1.7321e-09 -3.22075e-06 0)
(-1.74284e-09 -3.21792e-06 0)
(-1.75159e-09 -3.21508e-06 0)
(-1.75841e-09 -3.21222e-06 0)
(-1.76338e-09 -3.20936e-06 0)
(-1.76654e-09 -3.20649e-06 0)
(-1.76796e-09 -3.20362e-06 0)
(-1.76769e-09 -3.20074e-06 0)
(-1.76577e-09 -3.19787e-06 0)
(-1.76227e-09 -3.195e-06 0)
(-1.75724e-09 -3.19214e-06 0)
(-1.75071e-09 -3.18929e-06 0)
(-1.74273e-09 -3.18645e-06 0)
(-1.73335e-09 -3.18363e-06 0)
(-1.72261e-09 -3.18082e-06 0)
(-1.71056e-09 -3.17803e-06 0)
(-1.69722e-09 -3.17526e-06 0)
(-1.68264e-09 -3.17251e-06 0)
(-1.66685e-09 -3.16979e-06 0)
(-1.6499e-09 -3.1671e-06 0)
(-1.63181e-09 -3.16443e-06 0)
(-1.61261e-09 -3.16179e-06 0)
(-1.59235e-09 -3.15919e-06 0)
(-1.57104e-09 -3.15662e-06 0)
(-1.54873e-09 -3.15408e-06 0)
(-1.52543e-09 -3.15158e-06 0)
(-1.50119e-09 -3.14913e-06 0)
(-1.47602e-09 -3.1467e-06 0)
(-1.44996e-09 -3.14433e-06 0)
(-1.42302e-09 -3.14199e-06 0)
(-1.39525e-09 -3.1397e-06 0)
(-1.36665e-09 -3.13746e-06 0)
(-1.33726e-09 -3.13526e-06 0)
(-1.3071e-09 -3.13311e-06 0)
(-1.27619e-09 -3.13101e-06 0)
(-1.24457e-09 -3.12896e-06 0)
(-1.21225e-09 -3.12696e-06 0)
(-1.17925e-09 -3.12501e-06 0)
(-1.1456e-09 -3.12312e-06 0)
(-1.11131e-09 -3.12129e-06 0)
(-1.07643e-09 -3.11951e-06 0)
(-1.04095e-09 -3.11778e-06 0)
(-1.00492e-09 -3.11612e-06 0)
(-9.68336e-10 -3.11451e-06 0)
(-9.31238e-10 -3.11297e-06 0)
(-8.93641e-10 -3.11148e-06 0)
(-8.55567e-10 -3.11006e-06 0)
(-8.17037e-10 -3.10869e-06 0)
(-7.78074e-10 -3.10739e-06 0)
(-7.38696e-10 -3.10616e-06 0)
(-6.98926e-10 -3.10499e-06 0)
(-6.58785e-10 -3.10388e-06 0)
(-6.18294e-10 -3.10284e-06 0)
(-5.77474e-10 -3.10186e-06 0)
(-5.36345e-10 -3.10095e-06 0)
(-4.94928e-10 -3.1001e-06 0)
(-4.53247e-10 -3.09933e-06 0)
(-4.11319e-10 -3.09861e-06 0)
(-3.6917e-10 -3.098e-06 0)
(-3.26818e-10 -3.09736e-06 0)
(-2.84294e-10 -3.09707e-06 0)
(-2.41603e-10 -3.09591e-06 0)
(-1.98822e-10 -3.0979e-06 0)
(-1.55839e-10 -3.08955e-06 0)
(-1.12988e-10 -3.11448e-06 0)
(-6.99863e-11 -3.02109e-06 0)
(-2.5541e-11 -3.26913e-06 0)
(-1.4196e-12 -2.85531e-06 0)
)
;
    }
    bottomWall
    {
        type            calculated;
        value           nonuniform List<vector> 
449
(
(-48.4815 -0.963388 0)
(-19.7351 -0.00514876 0)
(-14.3363 -0.00113232 0)
(-12.0347 -0.000542762 0)
(-10.6392 -0.000347344 0)
(-9.66311 -0.000248459 0)
(-8.9387 -0.000183443 0)
(-8.40458 -0.000126873 0)
(-8.06653 -5.69696e-05 0)
(-8.01323 5.53829e-05 0)
(-8.45289 0.000237999 0)
(-9.66575 0.000338517 0)
(-10.8013 0.000268963 0)
(-11.5332 0.000163859 0)
(-11.9424 9.07738e-05 0)
(-12.1672 4.84749e-05 0)
(-12.2818 2.25519e-05 0)
(-12.3254 5.00005e-06 0)
(-12.3169 -6.6044e-06 0)
(-12.2787 -1.35745e-05 0)
(-12.2208 -1.81549e-05 0)
(-12.15 -2.08588e-05 0)
(-12.0726 -2.21543e-05 0)
(-11.9922 -2.26227e-05 0)
(-11.911 -2.25967e-05 0)
(-11.8305 -2.2294e-05 0)
(-11.7511 -2.18176e-05 0)
(-11.6736 -2.121e-05 0)
(-11.5982 -2.05417e-05 0)
(-11.5252 -1.98511e-05 0)
(-11.4544 -1.91583e-05 0)
(-11.3861 -1.84758e-05 0)
(-11.32 -1.78131e-05 0)
(-11.2562 -1.71736e-05 0)
(-11.1945 -1.65674e-05 0)
(-11.1348 -1.59993e-05 0)
(-11.0769 -1.54534e-05 0)
(-11.021 -1.49233e-05 0)
(-10.9668 -1.44173e-05 0)
(-10.9143 -1.39369e-05 0)
(-10.8635 -1.34812e-05 0)
(-10.8141 -1.30486e-05 0)
(-10.7662 -1.26397e-05 0)
(-10.7197 -1.22511e-05 0)
(-10.6745 -1.18807e-05 0)
(-10.6306 -1.15284e-05 0)
(-10.5878 -1.11961e-05 0)
(-10.5462 -1.08776e-05 0)
(-10.5056 -1.05798e-05 0)
(-10.466 -1.03179e-05 0)
(-10.4273 -1.00842e-05 0)
(-10.3893 -9.86378e-06 0)
(-10.3521 -9.65076e-06 0)
(-10.3155 -9.44156e-06 0)
(-10.2797 -9.23562e-06 0)
(-10.2446 -9.03209e-06 0)
(-10.2101 -8.83317e-06 0)
(-10.1764 -8.64014e-06 0)
(-10.1433 -8.45211e-06 0)
(-10.1108 -8.26916e-06 0)
(-10.079 -8.09249e-06 0)
(-10.0478 -7.92308e-06 0)
(-10.0171 -7.75827e-06 0)
(-9.98705 -7.59772e-06 0)
(-9.95752 -7.4416e-06 0)
(-9.92852 -7.29216e-06 0)
(-9.90003 -7.14812e-06 0)
(-9.87203 -7.00878e-06 0)
(-9.84451 -6.8721e-06 0)
(-9.81747 -6.74295e-06 0)
(-9.79085 -6.62038e-06 0)
(-9.76465 -6.49807e-06 0)
(-9.73889 -6.37782e-06 0)
(-9.71353 -6.26199e-06 0)
(-9.68858 -6.1501e-06 0)
(-9.66401 -6.03982e-06 0)
(-9.63982 -5.93275e-06 0)
(-9.616 -5.82812e-06 0)
(-9.59255 -5.72641e-06 0)
(-9.56945 -5.62779e-06 0)
(-9.54669 -5.53193e-06 0)
(-9.52427 -5.43866e-06 0)
(-9.50217 -5.34804e-06 0)
(-9.48038 -5.25968e-06 0)
(-9.4589 -5.17353e-06 0)
(-9.43772 -5.09012e-06 0)
(-9.41683 -5.00856e-06 0)
(-9.39623 -4.9305e-06 0)
(-9.37589 -4.85399e-06 0)
(-9.35583 -4.77879e-06 0)
(-9.33602 -4.70603e-06 0)
(-9.31647 -4.63425e-06 0)
(-9.29717 -4.5645e-06 0)
(-9.27812 -4.49648e-06 0)
(-9.2593 -4.42927e-06 0)
(-9.24073 -4.36489e-06 0)
(-9.22237 -4.30142e-06 0)
(-9.20424 -4.2391e-06 0)
(-9.18633 -4.17926e-06 0)
(-9.16863 -4.11978e-06 0)
(-9.15114 -4.06417e-06 0)
(-9.13383 -4.0114e-06 0)
(-9.11671 -3.95732e-06 0)
(-9.09978 -3.90406e-06 0)
(-9.08304 -3.85128e-06 0)
(-9.0665 -3.79916e-06 0)
(-9.05013 -3.74924e-06 0)
(-9.03394 -3.69984e-06 0)
(-9.01792 -3.65086e-06 0)
(-9.00208 -3.60402e-06 0)
(-8.9864 -3.55767e-06 0)
(-8.97089 -3.51154e-06 0)
(-8.95555 -3.46757e-06 0)
(-8.94035 -3.42412e-06 0)
(-8.92532 -3.3807e-06 0)
(-8.91043 -3.33922e-06 0)
(-8.8957 -3.2985e-06 0)
(-8.88111 -3.25763e-06 0)
(-8.86666 -3.21822e-06 0)
(-8.85236 -3.18009e-06 0)
(-8.83819 -3.14167e-06 0)
(-8.82416 -3.10417e-06 0)
(-8.81026 -3.06838e-06 0)
(-8.79649 -3.03239e-06 0)
(-8.78285 -2.99659e-06 0)
(-8.76933 -2.96249e-06 0)
(-8.75594 -2.92888e-06 0)
(-8.74267 -2.89517e-06 0)
(-8.72952 -2.86243e-06 0)
(-8.71649 -2.83091e-06 0)
(-8.70357 -2.79927e-06 0)
(-8.69077 -2.76773e-06 0)
(-8.67807 -2.73765e-06 0)
(-8.66549 -2.70813e-06 0)
(-8.65301 -2.67835e-06 0)
(-8.64064 -2.64927e-06 0)
(-8.62838 -2.62147e-06 0)
(-8.61621 -2.59357e-06 0)
(-8.60414 -2.56555e-06 0)
(-8.59218 -2.53875e-06 0)
(-8.58031 -2.51279e-06 0)
(-8.56854 -2.48646e-06 0)
(-8.55686 -2.46031e-06 0)
(-8.54528 -2.43542e-06 0)
(-8.53379 -2.41099e-06 0)
(-8.52238 -2.3862e-06 0)
(-8.51107 -2.36227e-06 0)
(-8.49984 -2.34056e-06 0)
(-8.48868 -2.31896e-06 0)
(-8.4776 -2.29603e-06 0)
(-8.46661 -2.27326e-06 0)
(-8.4557 -2.25134e-06 0)
(-8.44487 -2.22968e-06 0)
(-8.43412 -2.20784e-06 0)
(-8.42345 -2.18632e-06 0)
(-8.41286 -2.16562e-06 0)
(-8.40234 -2.1453e-06 0)
(-8.3919 -2.12477e-06 0)
(-8.38153 -2.1044e-06 0)
(-8.37124 -2.08484e-06 0)
(-8.36102 -2.06581e-06 0)
(-8.35087 -2.04653e-06 0)
(-8.34079 -2.02717e-06 0)
(-8.33078 -2.00863e-06 0)
(-8.32083 -1.99072e-06 0)
(-8.31096 -1.97264e-06 0)
(-8.30115 -1.95441e-06 0)
(-8.2914 -1.93669e-06 0)
(-8.28173 -1.91981e-06 0)
(-8.27211 -1.9028e-06 0)
(-8.26256 -1.88595e-06 0)
(-8.25306 -1.86888e-06 0)
(-8.24364 -1.8504e-06 0)
(-8.23481 -1.83704e-06 0)
(-8.22649 -1.82548e-06 0)
(-8.21814 -1.80937e-06 0)
(-8.20978 -1.79433e-06 0)
(-8.20139 -1.78053e-06 0)
(-8.19298 -1.76664e-06 0)
(-8.18454 -1.75258e-06 0)
(-8.17608 -1.73818e-06 0)
(-8.1676 -1.72425e-06 0)
(-8.15909 -1.71062e-06 0)
(-8.15056 -1.69711e-06 0)
(-8.14201 -1.6832e-06 0)
(-8.13344 -1.66911e-06 0)
(-8.12484 -1.65552e-06 0)
(-8.11622 -1.64219e-06 0)
(-8.10758 -1.62883e-06 0)
(-8.09891 -1.61517e-06 0)
(-8.09023 -1.60149e-06 0)
(-8.08152 -1.58827e-06 0)
(-8.07279 -1.57521e-06 0)
(-8.06404 -1.56198e-06 0)
(-8.05527 -1.54859e-06 0)
(-8.04648 -1.53537e-06 0)
(-8.03767 -1.52246e-06 0)
(-8.02884 -1.50971e-06 0)
(-8.01999 -1.49668e-06 0)
(-8.01112 -1.48355e-06 0)
(-8.00224 -1.47079e-06 0)
(-7.99333 -1.45826e-06 0)
(-7.9844 -1.44566e-06 0)
(-7.97546 -1.43289e-06 0)
(-7.9665 -1.42022e-06 0)
(-7.95752 -1.40785e-06 0)
(-7.94852 -1.39568e-06 0)
(-7.9395 -1.38325e-06 0)
(-7.93047 -1.37072e-06 0)
(-7.92142 -1.35855e-06 0)
(-7.91235 -1.34662e-06 0)
(-7.90327 -1.33455e-06 0)
(-7.89417 -1.32291e-06 0)
(-7.88504 -1.31191e-06 0)
(-7.8759 -1.30067e-06 0)
(-7.86674 -1.28905e-06 0)
(-7.85756 -1.27719e-06 0)
(-7.84837 -1.26535e-06 0)
(-7.83916 -1.25384e-06 0)
(-7.82994 -1.2425e-06 0)
(-7.8207 -1.23096e-06 0)
(-7.81145 -1.21933e-06 0)
(-7.80219 -1.20806e-06 0)
(-7.79291 -1.19704e-06 0)
(-7.78362 -1.1858e-06 0)
(-7.77432 -1.17445e-06 0)
(-7.765 -1.16343e-06 0)
(-7.75567 -1.15268e-06 0)
(-7.74633 -1.14176e-06 0)
(-7.73698 -1.13072e-06 0)
(-7.72761 -1.11997e-06 0)
(-7.71824 -1.10947e-06 0)
(-7.70885 -1.09885e-06 0)
(-7.69945 -1.08812e-06 0)
(-7.69004 -1.07765e-06 0)
(-7.68062 -1.06743e-06 0)
(-7.67118 -1.0571e-06 0)
(-7.66174 -1.04666e-06 0)
(-7.65229 -1.03649e-06 0)
(-7.64283 -1.02655e-06 0)
(-7.63336 -1.01649e-06 0)
(-7.62388 -1.00635e-06 0)
(-7.6144 -9.96476e-07 0)
(-7.6049 -9.86818e-07 0)
(-7.59539 -9.77029e-07 0)
(-7.58588 -9.67181e-07 0)
(-7.57636 -9.57623e-07 0)
(-7.56683 -9.48257e-07 0)
(-7.55729 -9.38726e-07 0)
(-7.54775 -9.2917e-07 0)
(-7.5382 -9.19925e-07 0)
(-7.52864 -9.1081e-07 0)
(-7.51907 -9.01543e-07 0)
(-7.5095 -8.92318e-07 0)
(-7.49993 -8.83362e-07 0)
(-7.49034 -8.7448e-07 0)
(-7.48075 -8.65488e-07 0)
(-7.47116 -8.566e-07 0)
(-7.46156 -8.47942e-07 0)
(-7.45195 -8.39291e-07 0)
(-7.44234 -8.30566e-07 0)
(-7.43273 -8.22001e-07 0)
(-7.42311 -8.13638e-07 0)
(-7.41349 -8.05212e-07 0)
(-7.40386 -7.96755e-07 0)
(-7.39424 -7.88508e-07 0)
(-7.3846 -7.80406e-07 0)
(-7.37496 -7.72218e-07 0)
(-7.36533 -7.64064e-07 0)
(-7.35568 -7.5613e-07 0)
(-7.34604 -7.48241e-07 0)
(-7.33639 -7.40305e-07 0)
(-7.32674 -7.32531e-07 0)
(-7.31709 -7.25337e-07 0)
(-7.30742 -7.18241e-07 0)
(-7.29775 -7.10715e-07 0)
(-7.28808 -7.03206e-07 0)
(-7.2784 -6.9579e-07 0)
(-7.26873 -6.88326e-07 0)
(-7.25905 -6.80915e-07 0)
(-7.24937 -6.73689e-07 0)
(-7.23969 -6.66484e-07 0)
(-7.23002 -6.59246e-07 0)
(-7.22034 -6.52148e-07 0)
(-7.21066 -6.45184e-07 0)
(-7.20099 -6.38174e-07 0)
(-7.19131 -6.31183e-07 0)
(-7.18164 -6.24384e-07 0)
(-7.17196 -6.17625e-07 0)
(-7.16229 -6.10832e-07 0)
(-7.15262 -6.04157e-07 0)
(-7.14295 -5.97629e-07 0)
(-7.13328 -5.91056e-07 0)
(-7.12362 -5.84496e-07 0)
(-7.11396 -5.78115e-07 0)
(-7.1043 -5.71779e-07 0)
(-7.09464 -5.65409e-07 0)
(-7.08498 -5.59152e-07 0)
(-7.07533 -5.53031e-07 0)
(-7.06568 -5.46873e-07 0)
(-7.05604 -5.40736e-07 0)
(-7.0464 -5.34761e-07 0)
(-7.03676 -5.28825e-07 0)
(-7.02713 -5.22858e-07 0)
(-7.0175 -5.17008e-07 0)
(-7.00787 -5.11269e-07 0)
(-6.99825 -5.05503e-07 0)
(-6.98864 -4.99776e-07 0)
(-6.97903 -4.94198e-07 0)
(-6.96942 -4.88633e-07 0)
(-6.95982 -4.83057e-07 0)
(-6.95022 -4.77601e-07 0)
(-6.94064 -4.72221e-07 0)
(-6.93105 -4.66823e-07 0)
(-6.92147 -4.6149e-07 0)
(-6.9119 -4.56283e-07 0)
(-6.90234 -4.51067e-07 0)
(-6.89278 -4.45862e-07 0)
(-6.88323 -4.40793e-07 0)
(-6.87368 -4.35754e-07 0)
(-6.86414 -4.30711e-07 0)
(-6.85461 -4.25759e-07 0)
(-6.84509 -4.20885e-07 0)
(-6.83557 -4.16005e-07 0)
(-6.82606 -4.11175e-07 0)
(-6.81656 -4.06455e-07 0)
(-6.80707 -4.01734e-07 0)
(-6.79759 -3.97032e-07 0)
(-6.78811 -3.92436e-07 0)
(-6.77864 -3.88061e-07 0)
(-6.76918 -3.83794e-07 0)
(-6.75971 -3.79411e-07 0)
(-6.75026 -3.74993e-07 0)
(-6.74081 -3.70572e-07 0)
(-6.73138 -3.6621e-07 0)
(-6.72195 -3.61931e-07 0)
(-6.71253 -3.57661e-07 0)
(-6.70313 -3.5342e-07 0)
(-6.69373 -3.49292e-07 0)
(-6.68434 -3.45207e-07 0)
(-6.67496 -3.41126e-07 0)
(-6.66559 -3.37097e-07 0)
(-6.65624 -3.33103e-07 0)
(-6.64689 -3.29113e-07 0)
(-6.63755 -3.25198e-07 0)
(-6.62822 -3.21331e-07 0)
(-6.61891 -3.17478e-07 0)
(-6.60961 -3.13665e-07 0)
(-6.60032 -3.09934e-07 0)
(-6.59104 -3.06183e-07 0)
(-6.58177 -3.02503e-07 0)
(-6.57251 -2.98802e-07 0)
(-6.56328 -2.95256e-07 0)
(-6.55404 -2.91831e-07 0)
(-6.54378 -2.87748e-07 0)
(-6.53261 -2.83372e-07 0)
(-6.52161 -2.79377e-07 0)
(-6.51076 -2.75468e-07 0)
(-6.50006 -2.7156e-07 0)
(-6.48951 -2.67773e-07 0)
(-6.47911 -2.64071e-07 0)
(-6.46885 -2.60436e-07 0)
(-6.45874 -2.56908e-07 0)
(-6.44875 -2.53452e-07 0)
(-6.43891 -2.50064e-07 0)
(-6.42919 -2.46778e-07 0)
(-6.41961 -2.43562e-07 0)
(-6.41014 -2.40395e-07 0)
(-6.4008 -2.37336e-07 0)
(-6.39157 -2.34332e-07 0)
(-6.38247 -2.31378e-07 0)
(-6.37347 -2.28511e-07 0)
(-6.36459 -2.25707e-07 0)
(-6.35581 -2.22936e-07 0)
(-6.34715 -2.20245e-07 0)
(-6.33858 -2.17617e-07 0)
(-6.33012 -2.15027e-07 0)
(-6.32176 -2.12491e-07 0)
(-6.3135 -2.10033e-07 0)
(-6.30533 -2.076e-07 0)
(-6.29726 -2.05207e-07 0)
(-6.28927 -2.0289e-07 0)
(-6.28139 -2.00618e-07 0)
(-6.27358 -1.98484e-07 0)
(-6.26586 -1.96421e-07 0)
(-6.25821 -1.94295e-07 0)
(-6.25066 -1.92182e-07 0)
(-6.24318 -1.90091e-07 0)
(-6.23579 -1.88067e-07 0)
(-6.22846 -1.86081e-07 0)
(-6.22123 -1.84116e-07 0)
(-6.21406 -1.82186e-07 0)
(-6.20698 -1.80318e-07 0)
(-6.19995 -1.78483e-07 0)
(-6.19302 -1.76677e-07 0)
(-6.18613 -1.74895e-07 0)
(-6.17933 -1.73157e-07 0)
(-6.17259 -1.71432e-07 0)
(-6.16592 -1.69728e-07 0)
(-6.15931 -1.6806e-07 0)
(-6.15277 -1.66445e-07 0)
(-6.14629 -1.64836e-07 0)
(-6.13988 -1.6325e-07 0)
(-6.13352 -1.6169e-07 0)
(-6.12723 -1.60184e-07 0)
(-6.12099 -1.58683e-07 0)
(-6.11482 -1.57206e-07 0)
(-6.10869 -1.55741e-07 0)
(-6.10263 -1.54334e-07 0)
(-6.09661 -1.52932e-07 0)
(-6.09067 -1.51559e-07 0)
(-6.08476 -1.50176e-07 0)
(-6.07892 -1.48862e-07 0)
(-6.07311 -1.47549e-07 0)
(-6.06738 -1.46277e-07 0)
(-6.06167 -1.44967e-07 0)
(-6.05604 -1.43742e-07 0)
(-6.05042 -1.42495e-07 0)
(-6.04489 -1.41329e-07 0)
(-6.03937 -1.40095e-07 0)
(-6.03393 -1.38956e-07 0)
(-6.0285 -1.37759e-07 0)
(-6.02316 -1.36695e-07 0)
(-6.01781 -1.35523e-07 0)
(-6.01255 -1.34486e-07 0)
(-6.00728 -1.33325e-07 0)
(-6.00212 -1.32359e-07 0)
(-5.99693 -1.31237e-07 0)
(-5.99186 -1.30325e-07 0)
(-5.98674 -1.29191e-07 0)
(-5.98175 -1.28335e-07 0)
(-5.9767 -1.27231e-07 0)
(-5.9718 -1.26465e-07 0)
(-5.9668 -1.25366e-07 0)
(-5.96199 -1.24653e-07 0)
(-5.95705 -1.23572e-07 0)
(-5.95232 -1.22947e-07 0)
(-5.94743 -1.2196e-07 0)
(-5.94278 -1.21308e-07 0)
(-5.93794 -1.20682e-07 0)
(-5.93334 -1.19429e-07 0)
(-5.92861 -1.20512e-07 0)
(-5.92391 -1.16178e-07 0)
(-5.91953 -1.24366e-07 0)
(-5.91416 -1.06606e-07 0)
(-5.91123 -1.37763e-07 0)
(-5.9033 -8.39338e-08 0)
(-5.90483 -1.16273e-07 0)
(-5.89391 -1.44647e-07 0)
)
;
    }
    symmetry
    {
        type            symmetryPlane;
    }
    frontAndBack
    {
        type            empty;
    }
}


// ************************************************************************* //
