/*--------------------------------*- C++ -*----------------------------------*\
| =========                 |                                                 |
| \\      /  F ield         | OpenFOAM: The Open Source CFD Toolbox           |
|  \\    /   O peration     | Version:  v2012                                 |
|   \\  /    A nd           | Website:  www.openfoam.com                      |
|    \\/     M anipulation  |                                                 |
\*---------------------------------------------------------------------------*/
FoamFile
{
    version     2.0;
    format      ascii;
    class       volScalarField;
    location    "57.5";
    object      yPlus;
}
// * * * * * * * * * * * * * * * * * * * * * * * * * * * * * * * * * * * * * //

dimensions      [0 0 0 0 0 0 0];


internalField   uniform 0;

boundaryField
{
    inlet
    {
        type            calculated;
        value           uniform 0;
    }
    outlet
    {
        type            calculated;
        value           uniform 0;
    }
    topWall
    {
        type            calculated;
        value           nonuniform List<scalar> 
545
(
0.111331
0.191967
0.246276
0.289497
0.326088
0.358107
0.386708
0.412619
0.436335
0.458212
0.478515
0.497452
0.515186
0.531849
0.547552
0.562386
0.576429
0.589749
0.602404
0.614445
0.625917
0.63686
0.64731
0.657298
0.666853
0.676003
0.68477
0.693177
0.701244
0.70899
0.71643
0.723582
0.73046
0.737077
0.743446
0.749579
0.755487
0.761181
0.766669
0.771962
0.777068
0.781995
0.786751
0.791342
0.795777
0.800061
0.8042
0.8082
0.812067
0.815806
0.819422
0.82292
0.826304
0.829579
0.832748
0.835816
0.838787
0.841663
0.844449
0.847147
0.849761
0.852294
0.854748
0.857127
0.859432
0.861667
0.863834
0.865935
0.867973
0.869949
0.871866
0.873726
0.875506
0.877229
0.878938
0.880634
0.882317
0.883986
0.885642
0.887285
0.888915
0.890533
0.892138
0.893731
0.895311
0.896879
0.898435
0.899979
0.901511
0.903032
0.904541
0.906038
0.907524
0.908998
0.910462
0.911914
0.913223
0.914394
0.915564
0.916735
0.917905
0.919075
0.920246
0.921416
0.922586
0.923755
0.924925
0.926094
0.927264
0.928433
0.929602
0.930771
0.931939
0.933108
0.934276
0.935444
0.936611
0.937779
0.938946
0.940113
0.94128
0.942447
0.943613
0.944779
0.945945
0.947111
0.948276
0.949441
0.950606
0.95177
0.952934
0.954098
0.955261
0.956424
0.957587
0.958749
0.959911
0.961073
0.962234
0.963395
0.964555
0.965715
0.966875
0.968034
0.969193
0.970351
0.971509
0.972667
0.973824
0.97498
0.976136
0.977292
0.978447
0.979602
0.980756
0.981909
0.983062
0.984215
0.985367
0.986518
0.987669
0.988819
0.989969
0.991118
0.992267
0.993415
0.994562
0.995709
0.996855
0.998
0.999145
1.00029
1.00143
1.00257
1.00372
1.00486
1.006
1.00714
1.00828
1.00942
1.01055
1.01169
1.01283
1.01396
1.0151
1.01623
1.01736
1.0185
1.01963
1.02076
1.02189
1.02301
1.02414
1.02527
1.0264
1.02752
1.02864
1.02977
1.03089
1.03201
1.03313
1.03425
1.03537
1.03649
1.0376
1.03872
1.03983
1.04095
1.04206
1.04317
1.04428
1.04539
1.0465
1.0476
1.04871
1.04981
1.05092
1.05202
1.05312
1.05422
1.05532
1.05642
1.05751
1.05861
1.0597
1.0608
1.06189
1.06298
1.06407
1.06515
1.06624
1.06732
1.06841
1.06949
1.07057
1.07165
1.07273
1.07381
1.07488
1.07595
1.07703
1.0781
1.07917
1.08024
1.0813
1.08237
1.08343
1.08449
1.08555
1.08661
1.08767
1.08872
1.08978
1.09083
1.09188
1.09293
1.09398
1.09502
1.09607
1.09711
1.09815
1.09919
1.10023
1.10127
1.1023
1.10333
1.10436
1.10539
1.10642
1.10739
1.1083
1.10922
1.11014
1.11108
1.11202
1.11296
1.11392
1.11487
1.11584
1.11681
1.11779
1.11877
1.11976
1.12076
1.12177
1.12278
1.12379
1.12482
1.12585
1.12688
1.12792
1.12897
1.13003
1.13109
1.13216
1.13323
1.13431
1.1354
1.13649
1.13759
1.13869
1.1398
1.14091
1.14204
1.14316
1.1443
1.14543
1.14658
1.14773
1.14888
1.15004
1.15121
1.15238
1.15356
1.15474
1.15593
1.15712
1.15832
1.15952
1.16072
1.16193
1.16315
1.16437
1.16559
1.16682
1.16805
1.16929
1.17053
1.17177
1.17302
1.17427
1.17552
1.17678
1.17804
1.1793
1.18057
1.18184
1.18311
1.18438
1.18565
1.18693
1.18821
1.18949
1.19077
1.19205
1.19334
1.19462
1.19591
1.19719
1.19848
1.19977
1.20105
1.20234
1.20362
1.20491
1.20619
1.20747
1.20875
1.21003
1.21131
1.21258
1.21385
1.21512
1.21639
1.21765
1.21891
1.22016
1.22141
1.22266
1.2239
1.22514
1.22637
1.22759
1.22881
1.23003
1.23124
1.23244
1.23363
1.23482
1.23599
1.23717
1.23833
1.23948
1.24063
1.24176
1.24289
1.244
1.24511
1.2462
1.24729
1.24836
1.24942
1.25047
1.25151
1.25253
1.25354
1.25454
1.25553
1.2565
1.25745
1.25839
1.25932
1.26023
1.26113
1.26201
1.26287
1.26372
1.26455
1.26536
1.26616
1.26694
1.2677
1.26844
1.26916
1.26987
1.27055
1.27122
1.27186
1.27249
1.2731
1.27368
1.27425
1.27479
1.27531
1.27582
1.2763
1.27675
1.27719
1.27761
1.278
1.27837
1.27872
1.27904
1.27934
1.27962
1.27988
1.28011
1.28032
1.28051
1.28068
1.28082
1.28094
1.28103
1.2811
1.28115
1.28118
1.28118
1.28116
1.28112
1.28105
1.28095
1.28081
1.28064
1.28044
1.28021
1.27996
1.27968
1.27938
1.27905
1.27871
1.27834
1.27796
1.27756
1.27714
1.27671
1.27626
1.2758
1.27533
1.27484
1.27434
1.27384
1.27332
1.2728
1.27227
1.27173
1.27119
1.27064
1.27009
1.26953
1.26897
1.26841
1.26784
1.26728
1.26671
1.26614
1.26557
1.26501
1.26444
1.26388
1.26331
1.26275
1.2622
1.26164
1.26109
1.26055
1.26001
1.25947
1.25894
1.25842
1.2579
1.25739
1.25688
1.25638
1.25589
1.25541
1.25494
1.25447
1.25401
1.25357
1.25313
1.2527
1.25228
1.25187
1.25147
1.25108
1.2507
1.25033
1.24998
1.24963
1.2493
1.24898
1.24867
1.24837
1.24808
1.24781
1.24755
1.2473
1.24706
1.24684
1.24663
1.24644
1.24625
1.24608
1.24593
1.24579
1.24566
1.24554
1.24544
1.24535
1.24528
1.24522
1.24518
1.24514
1.24513
1.24512
)
;
    }
    bottomWall
    {
        type            calculated;
        value           nonuniform List<scalar> 
449
(
0.13938
0.0889247
0.0757916
0.0694417
0.0652914
0.0622244
0.0598466
0.058031
0.056852
0.0566638
0.0581975
0.0622329
0.0657869
0.0679793
0.0691747
0.0698228
0.0701508
0.0702753
0.0702509
0.0701421
0.0699765
0.0697734
0.0695507
0.0693188
0.0690839
0.0688498
0.0686185
0.0683918
0.0681707
0.0679556
0.0677468
0.0675444
0.0673481
0.0671579
0.0669736
0.0667947
0.0666211
0.0664526
0.0662891
0.0661303
0.065976
0.065826
0.0656801
0.0655381
0.0653998
0.065265
0.0651337
0.0650054
0.0648804
0.064758
0.064638
0.0645201
0.0644044
0.0642906
0.0641789
0.0640691
0.0639614
0.0638556
0.0637517
0.0636496
0.0635494
0.0634508
0.063354
0.0632588
0.0631652
0.0630731
0.0629826
0.0628934
0.0628057
0.0627194
0.0626343
0.0625504
0.0624679
0.0623865
0.0623063
0.0622273
0.0621493
0.0620725
0.0619968
0.0619221
0.0618484
0.0617757
0.061704
0.0616332
0.0615634
0.0614944
0.0614263
0.0613591
0.0612926
0.061227
0.0611622
0.0610981
0.0610348
0.0609722
0.0609104
0.0608492
0.0607888
0.060729
0.0606699
0.0606114
0.0605535
0.0604962
0.0604395
0.0603834
0.0603278
0.0602729
0.0602184
0.0601645
0.0601112
0.0600584
0.060006
0.0599542
0.0599029
0.0598521
0.0598017
0.0597519
0.0597024
0.0596534
0.0596049
0.0595568
0.0595091
0.0594619
0.059415
0.0593686
0.0593225
0.0592769
0.0592316
0.0591867
0.0591422
0.059098
0.0590542
0.0590107
0.0589676
0.0589249
0.0588824
0.0588403
0.0587985
0.0587571
0.0587159
0.0586751
0.0586346
0.0585943
0.0585544
0.0585147
0.0584754
0.0584363
0.0583975
0.0583589
0.0583206
0.0582826
0.0582448
0.0582072
0.0581699
0.0581329
0.0580961
0.0580596
0.0580233
0.0579872
0.0579514
0.0579158
0.0578804
0.0578453
0.0578103
0.0577756
0.0577412
0.0577069
0.0576728
0.057639
0.0576053
0.0575718
0.0575386
0.0575055
0.0574727
0.0574419
0.0574129
0.0573837
0.0573545
0.0573252
0.0572958
0.0572663
0.0572367
0.057207
0.0571772
0.0571473
0.0571173
0.0570872
0.0570571
0.0570268
0.0569964
0.0569659
0.0569354
0.0569048
0.056874
0.0568432
0.0568123
0.0567813
0.0567502
0.056719
0.0566877
0.0566564
0.0566249
0.0565934
0.0565618
0.0565301
0.0564983
0.0564665
0.0564346
0.0564025
0.0563704
0.0563383
0.056306
0.0562737
0.0562413
0.0562088
0.0561762
0.0561435
0.0561107
0.0560779
0.056045
0.056012
0.055979
0.0559459
0.0559127
0.0558794
0.0558461
0.0558127
0.0557793
0.0557457
0.0557122
0.0556785
0.0556448
0.055611
0.0555772
0.0555433
0.0555094
0.0554754
0.0554413
0.0554072
0.055373
0.0553387
0.0553044
0.0552701
0.0552357
0.0552012
0.0551667
0.0551322
0.0550975
0.0550629
0.0550282
0.0549934
0.0549586
0.0549238
0.0548889
0.0548539
0.0548189
0.0547839
0.0547488
0.0547137
0.0546785
0.0546433
0.0546081
0.0545728
0.0545375
0.0545021
0.0544667
0.0544313
0.0543958
0.0543603
0.0543248
0.0542892
0.0542536
0.054218
0.0541823
0.0541466
0.0541108
0.054075
0.0540391
0.0540033
0.0539674
0.0539314
0.0538955
0.0538595
0.0538235
0.0537874
0.0537514
0.0537153
0.0536792
0.0536431
0.0536069
0.0535708
0.0535346
0.0534984
0.0534622
0.053426
0.0533897
0.0533535
0.0533172
0.0532809
0.0532446
0.0532083
0.0531719
0.0531356
0.0530993
0.0530629
0.0530265
0.0529901
0.0529538
0.0529174
0.052881
0.0528446
0.0528082
0.0527717
0.0527353
0.0526989
0.0526625
0.0526261
0.0525896
0.0525532
0.0525168
0.0524803
0.0524439
0.0524075
0.0523711
0.0523347
0.0522983
0.0522619
0.0522254
0.0521891
0.0521527
0.0521163
0.0520799
0.0520435
0.0520071
0.0519706
0.0519343
0.0518979
0.0518615
0.0518252
0.0517888
0.0517525
0.0517162
0.0516799
0.0516436
0.0516073
0.0515711
0.0515348
0.0514986
0.0514624
0.0514262
0.05139
0.0513539
0.0513178
0.0512817
0.0512456
0.0512055
0.0511618
0.0511187
0.0510761
0.0510341
0.0509927
0.0509518
0.0509115
0.0508717
0.0508323
0.0507935
0.0507552
0.0507173
0.0506799
0.050643
0.0506064
0.0505704
0.0505347
0.0504995
0.0504647
0.0504303
0.0503962
0.0503626
0.0503293
0.0502964
0.0502639
0.0502317
0.0501998
0.0501683
0.0501372
0.0501063
0.0500757
0.0500455
0.0500155
0.0499859
0.0499566
0.0499275
0.0498988
0.0498703
0.0498421
0.0498142
0.0497865
0.0497591
0.049732
0.0497051
0.0496785
0.0496521
0.0496259
0.0496
0.0495743
0.0495489
0.0495237
0.0494987
0.0494739
0.0494494
0.049425
0.0494009
0.0493769
0.0493532
0.0493296
0.0493063
0.0492831
0.0492602
0.0492374
0.0492149
0.0491924
0.0491702
0.0491481
0.0491263
0.0491045
0.049083
0.0490615
0.0490405
0.0490192
0.0489985
0.0489776
0.0489572
0.0489365
0.0489164
0.0488959
0.0488762
0.048856
0.0488366
0.0488165
0.0487974
0.0487776
0.0487587
0.0487392
0.0487199
0.0487019
0.0486798
0.0486677
0.048635
0.0486413
0.0485964
)
;
    }
    symmetry
    {
        type            symmetryPlane;
    }
    frontAndBack
    {
        type            empty;
    }
}


// ************************************************************************* //
