/*--------------------------------*- C++ -*----------------------------------*\
| =========                 |                                                 |
| \\      /  F ield         | OpenFOAM: The Open Source CFD Toolbox           |
|  \\    /   O peration     | Version:  v2012                                 |
|   \\  /    A nd           | Website:  www.openfoam.com                      |
|    \\/     M anipulation  |                                                 |
\*---------------------------------------------------------------------------*/
FoamFile
{
    version     2.0;
    format      ascii;
    class       volVectorField;
    location    "25";
    object      wallShearStress;
}
// * * * * * * * * * * * * * * * * * * * * * * * * * * * * * * * * * * * * * //

dimensions      [0 2 -2 0 0 0 0];


internalField   uniform (0 0 0);

boundaryField
{
    inlet
    {
        type            calculated;
        value           uniform (0 0 0);
    }
    outlet
    {
        type            calculated;
        value           uniform (0 0 0);
    }
    topWall
    {
        type            calculated;
        value           nonuniform List<vector> 
545
(
(3.60724e-08 -2.53893e-08 0)
(3.60665e-08 -7.10387e-08 0)
(3.60422e-08 -1.18502e-07 0)
(3.60092e-08 -1.64587e-07 0)
(3.59702e-08 -2.08705e-07 0)
(3.59244e-08 -2.51424e-07 0)
(3.58722e-08 -2.93106e-07 0)
(3.5814e-08 -3.33733e-07 0)
(3.57503e-08 -3.73214e-07 0)
(3.56816e-08 -4.11549e-07 0)
(3.56085e-08 -4.48789e-07 0)
(3.55312e-08 -4.84976e-07 0)
(3.54503e-08 -5.20136e-07 0)
(3.53661e-08 -5.54288e-07 0)
(3.52789e-08 -5.87457e-07 0)
(3.51892e-08 -6.1967e-07 0)
(3.50971e-08 -6.50952e-07 0)
(3.50031e-08 -6.8133e-07 0)
(3.49074e-08 -7.10826e-07 0)
(3.48102e-08 -7.39464e-07 0)
(3.47119e-08 -7.67269e-07 0)
(3.46125e-08 -7.94264e-07 0)
(3.45124e-08 -8.20471e-07 0)
(3.44117e-08 -8.45913e-07 0)
(3.43106e-08 -8.70612e-07 0)
(3.42092e-08 -8.94588e-07 0)
(3.41078e-08 -9.17863e-07 0)
(3.40065e-08 -9.40457e-07 0)
(3.39054e-08 -9.6239e-07 0)
(3.38047e-08 -9.83681e-07 0)
(3.37043e-08 -1.00435e-06 0)
(3.36046e-08 -1.02441e-06 0)
(3.35054e-08 -1.04389e-06 0)
(3.3407e-08 -1.0628e-06 0)
(3.33095e-08 -1.08115e-06 0)
(3.32128e-08 -1.09897e-06 0)
(3.3117e-08 -1.11627e-06 0)
(3.30223e-08 -1.13306e-06 0)
(3.29287e-08 -1.14936e-06 0)
(3.28361e-08 -1.16519e-06 0)
(3.27447e-08 -1.18056e-06 0)
(3.26545e-08 -1.19549e-06 0)
(3.25656e-08 -1.20998e-06 0)
(3.24779e-08 -1.22404e-06 0)
(3.23914e-08 -1.23771e-06 0)
(3.23063e-08 -1.25097e-06 0)
(3.22225e-08 -1.26385e-06 0)
(3.214e-08 -1.27636e-06 0)
(3.20588e-08 -1.28851e-06 0)
(3.1979e-08 -1.30031e-06 0)
(3.19005e-08 -1.31177e-06 0)
(3.18234e-08 -1.3229e-06 0)
(3.17477e-08 -1.33371e-06 0)
(3.16733e-08 -1.34422e-06 0)
(3.16002e-08 -1.35442e-06 0)
(3.15285e-08 -1.36433e-06 0)
(3.14582e-08 -1.37395e-06 0)
(3.13891e-08 -1.3833e-06 0)
(3.13214e-08 -1.39239e-06 0)
(3.1255e-08 -1.40121e-06 0)
(3.11899e-08 -1.40979e-06 0)
(3.1126e-08 -1.41812e-06 0)
(3.10635e-08 -1.42622e-06 0)
(3.10022e-08 -1.43408e-06 0)
(3.09421e-08 -1.44173e-06 0)
(3.08832e-08 -1.44916e-06 0)
(3.08256e-08 -1.45638e-06 0)
(3.07691e-08 -1.46339e-06 0)
(3.07138e-08 -1.47021e-06 0)
(3.06597e-08 -1.47684e-06 0)
(3.06068e-08 -1.48328e-06 0)
(3.05545e-08 -1.48953e-06 0)
(3.05039e-08 -1.49555e-06 0)
(3.04554e-08 -1.50138e-06 0)
(3.04074e-08 -1.50716e-06 0)
(3.03594e-08 -1.5129e-06 0)
(3.03115e-08 -1.51861e-06 0)
(3.02637e-08 -1.5243e-06 0)
(3.02158e-08 -1.52994e-06 0)
(3.01681e-08 -1.53555e-06 0)
(3.01203e-08 -1.54113e-06 0)
(3.00727e-08 -1.54667e-06 0)
(3.0025e-08 -1.55218e-06 0)
(2.99774e-08 -1.55765e-06 0)
(2.99299e-08 -1.56309e-06 0)
(2.98824e-08 -1.5685e-06 0)
(2.98349e-08 -1.57387e-06 0)
(2.97876e-08 -1.57921e-06 0)
(2.97402e-08 -1.58452e-06 0)
(2.9693e-08 -1.5898e-06 0)
(2.96458e-08 -1.59504e-06 0)
(2.95986e-08 -1.60025e-06 0)
(2.95516e-08 -1.60543e-06 0)
(2.95044e-08 -1.61057e-06 0)
(2.94585e-08 -1.6157e-06 0)
(2.94082e-08 -1.62074e-06 0)
(2.93587e-08 -1.62533e-06 0)
(2.93181e-08 -1.62952e-06 0)
(2.92797e-08 -1.6336e-06 0)
(2.92413e-08 -1.63767e-06 0)
(2.92029e-08 -1.64179e-06 0)
(2.91643e-08 -1.64593e-06 0)
(2.91255e-08 -1.65006e-06 0)
(2.90865e-08 -1.65419e-06 0)
(2.90474e-08 -1.65832e-06 0)
(2.9008e-08 -1.66246e-06 0)
(2.89685e-08 -1.66661e-06 0)
(2.89288e-08 -1.67076e-06 0)
(2.88889e-08 -1.67491e-06 0)
(2.88488e-08 -1.67907e-06 0)
(2.88085e-08 -1.68323e-06 0)
(2.8768e-08 -1.68739e-06 0)
(2.87273e-08 -1.69156e-06 0)
(2.86865e-08 -1.69573e-06 0)
(2.86454e-08 -1.69991e-06 0)
(2.86042e-08 -1.70409e-06 0)
(2.85627e-08 -1.70827e-06 0)
(2.85211e-08 -1.71246e-06 0)
(2.84793e-08 -1.71665e-06 0)
(2.84372e-08 -1.72085e-06 0)
(2.8395e-08 -1.72504e-06 0)
(2.83526e-08 -1.72925e-06 0)
(2.831e-08 -1.73345e-06 0)
(2.82672e-08 -1.73766e-06 0)
(2.82242e-08 -1.74188e-06 0)
(2.8181e-08 -1.74609e-06 0)
(2.81376e-08 -1.75031e-06 0)
(2.8094e-08 -1.75454e-06 0)
(2.80502e-08 -1.75876e-06 0)
(2.80062e-08 -1.76299e-06 0)
(2.7962e-08 -1.76723e-06 0)
(2.79176e-08 -1.77146e-06 0)
(2.7873e-08 -1.7757e-06 0)
(2.78282e-08 -1.77995e-06 0)
(2.77832e-08 -1.78419e-06 0)
(2.7738e-08 -1.78844e-06 0)
(2.76926e-08 -1.79269e-06 0)
(2.7647e-08 -1.79695e-06 0)
(2.76011e-08 -1.80121e-06 0)
(2.75551e-08 -1.80547e-06 0)
(2.75089e-08 -1.80973e-06 0)
(2.74624e-08 -1.814e-06 0)
(2.74158e-08 -1.81827e-06 0)
(2.73689e-08 -1.82254e-06 0)
(2.73219e-08 -1.82682e-06 0)
(2.72746e-08 -1.8311e-06 0)
(2.72271e-08 -1.83538e-06 0)
(2.71795e-08 -1.83966e-06 0)
(2.71316e-08 -1.84395e-06 0)
(2.70835e-08 -1.84824e-06 0)
(2.70352e-08 -1.85253e-06 0)
(2.69866e-08 -1.85682e-06 0)
(2.69379e-08 -1.86112e-06 0)
(2.68889e-08 -1.86542e-06 0)
(2.68398e-08 -1.86972e-06 0)
(2.67904e-08 -1.87402e-06 0)
(2.67408e-08 -1.87832e-06 0)
(2.6691e-08 -1.88263e-06 0)
(2.6641e-08 -1.88694e-06 0)
(2.65908e-08 -1.89125e-06 0)
(2.65404e-08 -1.89556e-06 0)
(2.64897e-08 -1.89988e-06 0)
(2.64388e-08 -1.9042e-06 0)
(2.63878e-08 -1.90852e-06 0)
(2.63365e-08 -1.91284e-06 0)
(2.62849e-08 -1.91716e-06 0)
(2.62332e-08 -1.92148e-06 0)
(2.61812e-08 -1.92581e-06 0)
(2.61291e-08 -1.93014e-06 0)
(2.60767e-08 -1.93446e-06 0)
(2.60241e-08 -1.93879e-06 0)
(2.59713e-08 -1.94313e-06 0)
(2.59182e-08 -1.94746e-06 0)
(2.5865e-08 -1.95179e-06 0)
(2.58115e-08 -1.95613e-06 0)
(2.57578e-08 -1.96047e-06 0)
(2.57039e-08 -1.9648e-06 0)
(2.56497e-08 -1.96914e-06 0)
(2.55954e-08 -1.97348e-06 0)
(2.55408e-08 -1.97782e-06 0)
(2.5486e-08 -1.98217e-06 0)
(2.5431e-08 -1.98651e-06 0)
(2.53757e-08 -1.99085e-06 0)
(2.53203e-08 -1.9952e-06 0)
(2.52646e-08 -1.99954e-06 0)
(2.52087e-08 -2.00389e-06 0)
(2.51525e-08 -2.00824e-06 0)
(2.50962e-08 -2.01258e-06 0)
(2.50396e-08 -2.01693e-06 0)
(2.49828e-08 -2.02128e-06 0)
(2.49258e-08 -2.02563e-06 0)
(2.48685e-08 -2.02997e-06 0)
(2.48111e-08 -2.03432e-06 0)
(2.47534e-08 -2.03867e-06 0)
(2.46955e-08 -2.04302e-06 0)
(2.46373e-08 -2.04737e-06 0)
(2.4579e-08 -2.05172e-06 0)
(2.45204e-08 -2.05607e-06 0)
(2.44616e-08 -2.06042e-06 0)
(2.44025e-08 -2.06476e-06 0)
(2.43433e-08 -2.06911e-06 0)
(2.42838e-08 -2.07346e-06 0)
(2.42241e-08 -2.07781e-06 0)
(2.41641e-08 -2.08215e-06 0)
(2.4104e-08 -2.0865e-06 0)
(2.40436e-08 -2.09085e-06 0)
(2.3983e-08 -2.09519e-06 0)
(2.39222e-08 -2.09954e-06 0)
(2.38611e-08 -2.10388e-06 0)
(2.37999e-08 -2.10822e-06 0)
(2.37384e-08 -2.11256e-06 0)
(2.36766e-08 -2.1169e-06 0)
(2.36147e-08 -2.12124e-06 0)
(2.35525e-08 -2.12558e-06 0)
(2.34901e-08 -2.12992e-06 0)
(2.34275e-08 -2.13425e-06 0)
(2.33646e-08 -2.13859e-06 0)
(2.33016e-08 -2.14292e-06 0)
(2.32383e-08 -2.14725e-06 0)
(2.31748e-08 -2.15158e-06 0)
(2.3111e-08 -2.15591e-06 0)
(2.30471e-08 -2.16023e-06 0)
(2.29829e-08 -2.16456e-06 0)
(2.29185e-08 -2.16888e-06 0)
(2.28538e-08 -2.1732e-06 0)
(2.2789e-08 -2.17752e-06 0)
(2.27239e-08 -2.18183e-06 0)
(2.26586e-08 -2.18615e-06 0)
(2.25931e-08 -2.19046e-06 0)
(2.25274e-08 -2.19477e-06 0)
(2.24614e-08 -2.19907e-06 0)
(2.23952e-08 -2.20338e-06 0)
(2.23288e-08 -2.20768e-06 0)
(2.22622e-08 -2.21198e-06 0)
(2.21954e-08 -2.21627e-06 0)
(2.21283e-08 -2.22057e-06 0)
(2.20611e-08 -2.22486e-06 0)
(2.19936e-08 -2.22915e-06 0)
(2.19259e-08 -2.23343e-06 0)
(2.18579e-08 -2.23771e-06 0)
(2.17898e-08 -2.24199e-06 0)
(2.17214e-08 -2.24626e-06 0)
(2.16528e-08 -2.25053e-06 0)
(2.1584e-08 -2.2548e-06 0)
(2.1515e-08 -2.25907e-06 0)
(2.14458e-08 -2.26333e-06 0)
(2.13764e-08 -2.26758e-06 0)
(2.13067e-08 -2.27184e-06 0)
(2.12368e-08 -2.27608e-06 0)
(2.11668e-08 -2.28033e-06 0)
(2.10965e-08 -2.28457e-06 0)
(2.1026e-08 -2.28881e-06 0)
(2.09553e-08 -2.29304e-06 0)
(2.08843e-08 -2.29727e-06 0)
(2.08132e-08 -2.30149e-06 0)
(2.07419e-08 -2.30571e-06 0)
(2.06703e-08 -2.30992e-06 0)
(2.05986e-08 -2.31413e-06 0)
(2.05266e-08 -2.31834e-06 0)
(2.04544e-08 -2.32254e-06 0)
(2.03821e-08 -2.32673e-06 0)
(2.03095e-08 -2.33092e-06 0)
(2.02367e-08 -2.33511e-06 0)
(2.01637e-08 -2.33929e-06 0)
(2.00905e-08 -2.34346e-06 0)
(2.00172e-08 -2.34763e-06 0)
(1.99435e-08 -2.35179e-06 0)
(1.98709e-08 -2.35597e-06 0)
(1.9796e-08 -2.36009e-06 0)
(1.9719e-08 -2.36399e-06 0)
(1.96488e-08 -2.36775e-06 0)
(1.95828e-08 -2.37146e-06 0)
(1.95156e-08 -2.37518e-06 0)
(1.94479e-08 -2.37895e-06 0)
(1.93794e-08 -2.38276e-06 0)
(1.93102e-08 -2.3866e-06 0)
(1.92401e-08 -2.39046e-06 0)
(1.91692e-08 -2.39434e-06 0)
(1.90976e-08 -2.39826e-06 0)
(1.90251e-08 -2.4022e-06 0)
(1.89519e-08 -2.40617e-06 0)
(1.88778e-08 -2.41017e-06 0)
(1.88028e-08 -2.4142e-06 0)
(1.87271e-08 -2.41825e-06 0)
(1.86505e-08 -2.42233e-06 0)
(1.8573e-08 -2.42644e-06 0)
(1.84947e-08 -2.43057e-06 0)
(1.84155e-08 -2.43473e-06 0)
(1.83355e-08 -2.43892e-06 0)
(1.82545e-08 -2.44314e-06 0)
(1.81727e-08 -2.44738e-06 0)
(1.809e-08 -2.45165e-06 0)
(1.80064e-08 -2.45595e-06 0)
(1.79219e-08 -2.46027e-06 0)
(1.78365e-08 -2.46462e-06 0)
(1.77502e-08 -2.469e-06 0)
(1.76629e-08 -2.4734e-06 0)
(1.75747e-08 -2.47782e-06 0)
(1.74856e-08 -2.48228e-06 0)
(1.73955e-08 -2.48675e-06 0)
(1.73044e-08 -2.49126e-06 0)
(1.72124e-08 -2.49578e-06 0)
(1.71195e-08 -2.50034e-06 0)
(1.70255e-08 -2.50491e-06 0)
(1.69306e-08 -2.50951e-06 0)
(1.68347e-08 -2.51414e-06 0)
(1.67378e-08 -2.51879e-06 0)
(1.66398e-08 -2.52346e-06 0)
(1.65409e-08 -2.52815e-06 0)
(1.6441e-08 -2.53287e-06 0)
(1.63401e-08 -2.53761e-06 0)
(1.62381e-08 -2.54237e-06 0)
(1.61351e-08 -2.54715e-06 0)
(1.60311e-08 -2.55196e-06 0)
(1.5926e-08 -2.55678e-06 0)
(1.58199e-08 -2.56163e-06 0)
(1.57127e-08 -2.56649e-06 0)
(1.56045e-08 -2.57137e-06 0)
(1.54952e-08 -2.57627e-06 0)
(1.53849e-08 -2.58119e-06 0)
(1.52735e-08 -2.58613e-06 0)
(1.5161e-08 -2.59109e-06 0)
(1.50475e-08 -2.59606e-06 0)
(1.49329e-08 -2.60105e-06 0)
(1.48172e-08 -2.60605e-06 0)
(1.47004e-08 -2.61107e-06 0)
(1.45825e-08 -2.6161e-06 0)
(1.44636e-08 -2.62114e-06 0)
(1.43436e-08 -2.6262e-06 0)
(1.42224e-08 -2.63127e-06 0)
(1.41002e-08 -2.63636e-06 0)
(1.39769e-08 -2.64145e-06 0)
(1.38525e-08 -2.64655e-06 0)
(1.3727e-08 -2.65166e-06 0)
(1.36005e-08 -2.65678e-06 0)
(1.34728e-08 -2.66191e-06 0)
(1.33441e-08 -2.66704e-06 0)
(1.32142e-08 -2.67218e-06 0)
(1.30833e-08 -2.67733e-06 0)
(1.29513e-08 -2.68247e-06 0)
(1.28182e-08 -2.68762e-06 0)
(1.26841e-08 -2.69278e-06 0)
(1.25489e-08 -2.69793e-06 0)
(1.24126e-08 -2.70308e-06 0)
(1.22752e-08 -2.70824e-06 0)
(1.21368e-08 -2.71339e-06 0)
(1.19974e-08 -2.71853e-06 0)
(1.18569e-08 -2.72368e-06 0)
(1.17154e-08 -2.72881e-06 0)
(1.15728e-08 -2.73394e-06 0)
(1.14292e-08 -2.73906e-06 0)
(1.12847e-08 -2.74417e-06 0)
(1.11391e-08 -2.74928e-06 0)
(1.09926e-08 -2.75437e-06 0)
(1.0845e-08 -2.75944e-06 0)
(1.06966e-08 -2.76451e-06 0)
(1.05471e-08 -2.76955e-06 0)
(1.03968e-08 -2.77458e-06 0)
(1.02455e-08 -2.77959e-06 0)
(1.00933e-08 -2.78458e-06 0)
(9.94019e-09 -2.78955e-06 0)
(9.78624e-09 -2.79449e-06 0)
(9.63144e-09 -2.79942e-06 0)
(9.4758e-09 -2.80431e-06 0)
(9.31934e-09 -2.80918e-06 0)
(9.16209e-09 -2.81401e-06 0)
(9.00407e-09 -2.81882e-06 0)
(8.84529e-09 -2.82359e-06 0)
(8.68579e-09 -2.82833e-06 0)
(8.52558e-09 -2.83304e-06 0)
(8.3647e-09 -2.8377e-06 0)
(8.20315e-09 -2.84233e-06 0)
(8.04099e-09 -2.84691e-06 0)
(7.87822e-09 -2.85146e-06 0)
(7.71488e-09 -2.85595e-06 0)
(7.551e-09 -2.8604e-06 0)
(7.38661e-09 -2.8648e-06 0)
(7.22174e-09 -2.86915e-06 0)
(7.05643e-09 -2.87345e-06 0)
(6.8907e-09 -2.8777e-06 0)
(6.7246e-09 -2.88189e-06 0)
(6.55815e-09 -2.88601e-06 0)
(6.3914e-09 -2.89008e-06 0)
(6.22437e-09 -2.89409e-06 0)
(6.05712e-09 -2.89804e-06 0)
(5.88967e-09 -2.90191e-06 0)
(5.72208e-09 -2.90572e-06 0)
(5.55437e-09 -2.90946e-06 0)
(5.3866e-09 -2.91313e-06 0)
(5.21881e-09 -2.91672e-06 0)
(5.05103e-09 -2.92024e-06 0)
(4.88332e-09 -2.92368e-06 0)
(4.71572e-09 -2.92704e-06 0)
(4.54827e-09 -2.93031e-06 0)
(4.38103e-09 -2.9335e-06 0)
(4.21405e-09 -2.93661e-06 0)
(4.04736e-09 -2.93962e-06 0)
(3.88103e-09 -2.94255e-06 0)
(3.7151e-09 -2.94538e-06 0)
(3.54962e-09 -2.94812e-06 0)
(3.38465e-09 -2.95076e-06 0)
(3.22024e-09 -2.9533e-06 0)
(3.05644e-09 -2.95574e-06 0)
(2.89331e-09 -2.95808e-06 0)
(2.7309e-09 -2.96032e-06 0)
(2.56926e-09 -2.96245e-06 0)
(2.40846e-09 -2.96446e-06 0)
(2.24855e-09 -2.96637e-06 0)
(2.08959e-09 -2.96817e-06 0)
(1.93163e-09 -2.96985e-06 0)
(1.77473e-09 -2.97142e-06 0)
(1.61895e-09 -2.97287e-06 0)
(1.46435e-09 -2.9742e-06 0)
(1.31099e-09 -2.9754e-06 0)
(1.15893e-09 -2.97649e-06 0)
(1.00822e-09 -2.97745e-06 0)
(8.58936e-10 -2.97828e-06 0)
(7.11124e-10 -2.97899e-06 0)
(5.64847e-10 -2.97957e-06 0)
(4.20165e-10 -2.98001e-06 0)
(2.77137e-10 -2.98033e-06 0)
(1.3582e-10 -2.98051e-06 0)
(-3.72621e-12 -2.98056e-06 0)
(-1.41445e-10 -2.98047e-06 0)
(-2.77281e-10 -2.98025e-06 0)
(-4.11178e-10 -2.97989e-06 0)
(-5.43081e-10 -2.97939e-06 0)
(-6.72937e-10 -2.97875e-06 0)
(-8.00693e-10 -2.97797e-06 0)
(-9.26299e-10 -2.97704e-06 0)
(-1.0497e-09 -2.97598e-06 0)
(-1.17086e-09 -2.97478e-06 0)
(-1.28972e-09 -2.97343e-06 0)
(-1.40624e-09 -2.97194e-06 0)
(-1.52037e-09 -2.9703e-06 0)
(-1.63207e-09 -2.96852e-06 0)
(-1.7413e-09 -2.9666e-06 0)
(-1.84801e-09 -2.96453e-06 0)
(-1.95218e-09 -2.96232e-06 0)
(-2.05375e-09 -2.95996e-06 0)
(-2.15269e-09 -2.95747e-06 0)
(-2.24897e-09 -2.95482e-06 0)
(-2.34254e-09 -2.95204e-06 0)
(-2.43337e-09 -2.94911e-06 0)
(-2.52143e-09 -2.94604e-06 0)
(-2.60666e-09 -2.94283e-06 0)
(-2.68906e-09 -2.93947e-06 0)
(-2.76854e-09 -2.936e-06 0)
(-2.84551e-09 -2.93233e-06 0)
(-2.91939e-09 -2.92856e-06 0)
(-2.99405e-09 -2.92429e-06 0)
(-3.07246e-09 -2.91934e-06 0)
(-3.14897e-09 -2.91426e-06 0)
(-3.22031e-09 -2.90911e-06 0)
(-3.28684e-09 -2.90383e-06 0)
(-3.3486e-09 -2.89844e-06 0)
(-3.4057e-09 -2.89295e-06 0)
(-3.45825e-09 -2.88738e-06 0)
(-3.5064e-09 -2.88173e-06 0)
(-3.55028e-09 -2.87601e-06 0)
(-3.59004e-09 -2.87021e-06 0)
(-3.62581e-09 -2.86436e-06 0)
(-3.65773e-09 -2.85845e-06 0)
(-3.68591e-09 -2.85249e-06 0)
(-3.71049e-09 -2.84649e-06 0)
(-3.73159e-09 -2.84046e-06 0)
(-3.74933e-09 -2.83439e-06 0)
(-3.76382e-09 -2.8283e-06 0)
(-3.77518e-09 -2.82219e-06 0)
(-3.78351e-09 -2.81606e-06 0)
(-3.78891e-09 -2.80992e-06 0)
(-3.79149e-09 -2.80377e-06 0)
(-3.79134e-09 -2.79762e-06 0)
(-3.78855e-09 -2.79148e-06 0)
(-3.78321e-09 -2.78534e-06 0)
(-3.77541e-09 -2.77921e-06 0)
(-3.76522e-09 -2.7731e-06 0)
(-3.75273e-09 -2.767e-06 0)
(-3.738e-09 -2.76093e-06 0)
(-3.72112e-09 -2.75488e-06 0)
(-3.70216e-09 -2.74886e-06 0)
(-3.68117e-09 -2.74288e-06 0)
(-3.65822e-09 -2.73693e-06 0)
(-3.63338e-09 -2.73102e-06 0)
(-3.60671e-09 -2.72515e-06 0)
(-3.57825e-09 -2.71933e-06 0)
(-3.54808e-09 -2.71355e-06 0)
(-3.51623e-09 -2.70782e-06 0)
(-3.48277e-09 -2.70215e-06 0)
(-3.44774e-09 -2.69653e-06 0)
(-3.41118e-09 -2.69097e-06 0)
(-3.37315e-09 -2.68547e-06 0)
(-3.33369e-09 -2.68004e-06 0)
(-3.29283e-09 -2.67467e-06 0)
(-3.25063e-09 -2.66936e-06 0)
(-3.20711e-09 -2.66413e-06 0)
(-3.16232e-09 -2.65897e-06 0)
(-3.11629e-09 -2.65388e-06 0)
(-3.06906e-09 -2.64886e-06 0)
(-3.02066e-09 -2.64393e-06 0)
(-2.97111e-09 -2.63907e-06 0)
(-2.92046e-09 -2.6343e-06 0)
(-2.86873e-09 -2.6296e-06 0)
(-2.81596e-09 -2.625e-06 0)
(-2.76215e-09 -2.62047e-06 0)
(-2.70736e-09 -2.61604e-06 0)
(-2.65159e-09 -2.6117e-06 0)
(-2.59489e-09 -2.60745e-06 0)
(-2.53726e-09 -2.60328e-06 0)
(-2.47874e-09 -2.59922e-06 0)
(-2.41935e-09 -2.59525e-06 0)
(-2.35912e-09 -2.59137e-06 0)
(-2.29806e-09 -2.5876e-06 0)
(-2.23621e-09 -2.58392e-06 0)
(-2.17358e-09 -2.58035e-06 0)
(-2.1102e-09 -2.57687e-06 0)
(-2.04609e-09 -2.5735e-06 0)
(-1.98127e-09 -2.57024e-06 0)
(-1.91577e-09 -2.56708e-06 0)
(-1.8496e-09 -2.56402e-06 0)
(-1.7828e-09 -2.56107e-06 0)
(-1.71537e-09 -2.55824e-06 0)
(-1.64736e-09 -2.55551e-06 0)
(-1.57876e-09 -2.55289e-06 0)
(-1.50962e-09 -2.55038e-06 0)
(-1.43994e-09 -2.54799e-06 0)
(-1.36975e-09 -2.54571e-06 0)
(-1.29907e-09 -2.54354e-06 0)
(-1.22791e-09 -2.54149e-06 0)
(-1.15631e-09 -2.53956e-06 0)
(-1.08427e-09 -2.53773e-06 0)
(-1.01182e-09 -2.53603e-06 0)
(-9.3898e-10 -2.53444e-06 0)
(-8.65784e-10 -2.53298e-06 0)
(-7.92266e-10 -2.53162e-06 0)
(-7.18481e-10 -2.53041e-06 0)
(-6.44493e-10 -2.52925e-06 0)
(-5.70421e-10 -2.52844e-06 0)
(-4.96326e-10 -2.52698e-06 0)
(-4.22559e-10 -2.52815e-06 0)
(-3.48456e-10 -2.52095e-06 0)
(-2.76418e-10 -2.54095e-06 0)
(-1.97167e-10 -2.46451e-06 0)
(-1.42097e-10 -2.66665e-06 0)
(-6.58135e-11 -2.3289e-06 0)
)
;
    }
    bottomWall
    {
        type            calculated;
        value           nonuniform List<vector> 
449
(
(-48.5348 -0.964127 0)
(-19.7557 -0.00515445 0)
(-14.352 -0.00113321 0)
(-12.0492 -0.000542778 0)
(-10.6547 -0.000346485 0)
(-9.68343 -0.000246017 0)
(-8.97097 -0.000176853 0)
(-8.47027 -0.000110832 0)
(-8.20946 -2.48043e-05 0)
(-8.30182 0.000144449 0)
(-9.21325 0.000311771 0)
(-10.4627 0.000311395 0)
(-11.3708 0.000205521 0)
(-11.8896 0.00011451 0)
(-12.1682 6.0781e-05 0)
(-12.314 2.98359e-05 0)
(-12.377 9.89223e-06 0)
(-12.3833 -3.72564e-06 0)
(-12.3506 -1.24022e-05 0)
(-12.2957 -1.77296e-05 0)
(-12.2251 -2.10615e-05 0)
(-12.1463 -2.27392e-05 0)
(-12.0635 -2.34093e-05 0)
(-11.9795 -2.34647e-05 0)
(-11.896 -2.31562e-05 0)
(-11.8138 -2.26558e-05 0)
(-11.7334 -2.20362e-05 0)
(-11.6553 -2.13276e-05 0)
(-11.5797 -2.05866e-05 0)
(-11.5066 -1.98416e-05 0)
(-11.436 -1.91093e-05 0)
(-11.3679 -1.83985e-05 0)
(-11.3022 -1.77142e-05 0)
(-11.2387 -1.70566e-05 0)
(-11.1775 -1.64395e-05 0)
(-11.1182 -1.58601e-05 0)
(-11.061 -1.52987e-05 0)
(-11.0056 -1.47577e-05 0)
(-10.9521 -1.42436e-05 0)
(-10.9003 -1.37546e-05 0)
(-10.8501 -1.32894e-05 0)
(-10.8015 -1.28488e-05 0)
(-10.7544 -1.24311e-05 0)
(-10.7087 -1.20346e-05 0)
(-10.6643 -1.16598e-05 0)
(-10.6212 -1.13046e-05 0)
(-10.5793 -1.09616e-05 0)
(-10.5386 -1.06418e-05 0)
(-10.4989 -1.03747e-05 0)
(-10.46 -1.0147e-05 0)
(-10.4219 -9.92961e-06 0)
(-10.3845 -9.71691e-06 0)
(-10.3478 -9.50482e-06 0)
(-10.3118 -9.29676e-06 0)
(-10.2765 -9.09429e-06 0)
(-10.2419 -8.89732e-06 0)
(-10.208 -8.70754e-06 0)
(-10.1747 -8.52427e-06 0)
(-10.142 -8.34644e-06 0)
(-10.11 -8.17538e-06 0)
(-10.0785 -8.01011e-06 0)
(-10.0475 -7.85103e-06 0)
(-10.0171 -7.69626e-06 0)
(-9.98727 -7.54623e-06 0)
(-9.9579 -7.40137e-06 0)
(-9.92903 -7.26171e-06 0)
(-9.90063 -7.12684e-06 0)
(-9.87269 -6.99735e-06 0)
(-9.84518 -6.87685e-06 0)
(-9.81806 -6.75898e-06 0)
(-9.79136 -6.64009e-06 0)
(-9.76507 -6.52367e-06 0)
(-9.73917 -6.41144e-06 0)
(-9.71366 -6.30199e-06 0)
(-9.68852 -6.19549e-06 0)
(-9.66374 -6.09161e-06 0)
(-9.63932 -5.9904e-06 0)
(-9.61524 -5.89199e-06 0)
(-9.59151 -5.79663e-06 0)
(-9.5681 -5.70407e-06 0)
(-9.545 -5.61402e-06 0)
(-9.52222 -5.52634e-06 0)
(-9.49973 -5.44132e-06 0)
(-9.47754 -5.35801e-06 0)
(-9.45564 -5.27689e-06 0)
(-9.434 -5.19799e-06 0)
(-9.41265 -5.12057e-06 0)
(-9.39156 -5.04571e-06 0)
(-9.37073 -4.97182e-06 0)
(-9.35015 -4.90004e-06 0)
(-9.32982 -4.82983e-06 0)
(-9.30974 -4.76086e-06 0)
(-9.28989 -4.69442e-06 0)
(-9.27027 -4.6289e-06 0)
(-9.25088 -4.56515e-06 0)
(-9.23171 -4.50425e-06 0)
(-9.21275 -4.44588e-06 0)
(-9.19398 -4.38962e-06 0)
(-9.1754 -4.33186e-06 0)
(-9.15704 -4.27349e-06 0)
(-9.13888 -4.21752e-06 0)
(-9.12091 -4.16221e-06 0)
(-9.10314 -4.10745e-06 0)
(-9.08555 -4.05541e-06 0)
(-9.06815 -4.00327e-06 0)
(-9.05093 -3.95207e-06 0)
(-9.03389 -3.90284e-06 0)
(-9.01702 -3.85372e-06 0)
(-9.00032 -3.80556e-06 0)
(-8.9838 -3.7593e-06 0)
(-8.96743 -3.71276e-06 0)
(-8.95123 -3.66738e-06 0)
(-8.93519 -3.62363e-06 0)
(-8.9193 -3.57987e-06 0)
(-8.90356 -3.53676e-06 0)
(-8.88798 -3.4956e-06 0)
(-8.87254 -3.45425e-06 0)
(-8.85726 -3.41329e-06 0)
(-8.8421 -3.37421e-06 0)
(-8.8271 -3.33538e-06 0)
(-8.81222 -3.29645e-06 0)
(-8.7975 -3.25918e-06 0)
(-8.78289 -3.22259e-06 0)
(-8.76842 -3.18584e-06 0)
(-8.75407 -3.15003e-06 0)
(-8.73987 -3.11567e-06 0)
(-8.72576 -3.08086e-06 0)
(-8.71181 -3.04648e-06 0)
(-8.69795 -3.0138e-06 0)
(-8.68423 -2.98117e-06 0)
(-8.67061 -2.94832e-06 0)
(-8.65712 -2.91681e-06 0)
(-8.64373 -2.88619e-06 0)
(-8.63046 -2.85513e-06 0)
(-8.6173 -2.8247e-06 0)
(-8.60425 -2.79561e-06 0)
(-8.59129 -2.76707e-06 0)
(-8.57845 -2.73844e-06 0)
(-8.56569 -2.71141e-06 0)
(-8.55304 -2.68523e-06 0)
(-8.54048 -2.65814e-06 0)
(-8.52802 -2.63017e-06 0)
(-8.51566 -2.60356e-06 0)
(-8.5034 -2.57758e-06 0)
(-8.49123 -2.55148e-06 0)
(-8.47916 -2.52532e-06 0)
(-8.46718 -2.50046e-06 0)
(-8.45529 -2.47596e-06 0)
(-8.44349 -2.45128e-06 0)
(-8.43178 -2.42663e-06 0)
(-8.42016 -2.40318e-06 0)
(-8.40862 -2.37998e-06 0)
(-8.39717 -2.35661e-06 0)
(-8.38581 -2.33329e-06 0)
(-8.37453 -2.31112e-06 0)
(-8.36333 -2.28918e-06 0)
(-8.35221 -2.26704e-06 0)
(-8.34117 -2.24489e-06 0)
(-8.33022 -2.22389e-06 0)
(-8.31934 -2.2032e-06 0)
(-8.30854 -2.18226e-06 0)
(-8.29781 -2.1613e-06 0)
(-8.28716 -2.14139e-06 0)
(-8.27658 -2.12206e-06 0)
(-8.26608 -2.10239e-06 0)
(-8.25564 -2.08263e-06 0)
(-8.24529 -2.06373e-06 0)
(-8.235 -2.04541e-06 0)
(-8.22478 -2.02712e-06 0)
(-8.21462 -2.00831e-06 0)
(-8.20454 -1.99052e-06 0)
(-8.19451 -1.97287e-06 0)
(-8.18457 -1.95301e-06 0)
(-8.17525 -1.93846e-06 0)
(-8.16646 -1.92661e-06 0)
(-8.15765 -1.9105e-06 0)
(-8.14882 -1.89506e-06 0)
(-8.13996 -1.88029e-06 0)
(-8.13108 -1.86465e-06 0)
(-8.12217 -1.84913e-06 0)
(-8.11325 -1.83399e-06 0)
(-8.10429 -1.81905e-06 0)
(-8.09533 -1.80391e-06 0)
(-8.08633 -1.7884e-06 0)
(-8.07732 -1.773e-06 0)
(-8.06828 -1.75806e-06 0)
(-8.05923 -1.74326e-06 0)
(-8.05015 -1.72825e-06 0)
(-8.04107 -1.71296e-06 0)
(-8.03195 -1.69795e-06 0)
(-8.02283 -1.68325e-06 0)
(-8.01367 -1.66873e-06 0)
(-8.00451 -1.65383e-06 0)
(-7.99532 -1.6389e-06 0)
(-7.98613 -1.62433e-06 0)
(-7.97691 -1.6101e-06 0)
(-7.96767 -1.59573e-06 0)
(-7.95842 -1.58118e-06 0)
(-7.94916 -1.56666e-06 0)
(-7.93987 -1.55253e-06 0)
(-7.93058 -1.5386e-06 0)
(-7.92126 -1.52479e-06 0)
(-7.91193 -1.51129e-06 0)
(-7.90258 -1.49788e-06 0)
(-7.89321 -1.48406e-06 0)
(-7.88383 -1.46994e-06 0)
(-7.87444 -1.4557e-06 0)
(-7.86504 -1.44149e-06 0)
(-7.85564 -1.42763e-06 0)
(-7.84621 -1.41386e-06 0)
(-7.83679 -1.39981e-06 0)
(-7.82735 -1.38566e-06 0)
(-7.81791 -1.37195e-06 0)
(-7.80846 -1.35831e-06 0)
(-7.799 -1.34454e-06 0)
(-7.78954 -1.33061e-06 0)
(-7.78008 -1.31687e-06 0)
(-7.7706 -1.30352e-06 0)
(-7.76113 -1.28997e-06 0)
(-7.75165 -1.27644e-06 0)
(-7.74218 -1.26293e-06 0)
(-7.73269 -1.24982e-06 0)
(-7.72321 -1.23664e-06 0)
(-7.71372 -1.22334e-06 0)
(-7.70424 -1.21004e-06 0)
(-7.69475 -1.19716e-06 0)
(-7.68527 -1.18426e-06 0)
(-7.67579 -1.17133e-06 0)
(-7.66631 -1.15839e-06 0)
(-7.65683 -1.14584e-06 0)
(-7.64735 -1.13341e-06 0)
(-7.63787 -1.12086e-06 0)
(-7.6284 -1.10824e-06 0)
(-7.61893 -1.09599e-06 0)
(-7.60947 -1.08381e-06 0)
(-7.60001 -1.07145e-06 0)
(-7.59056 -1.05908e-06 0)
(-7.58111 -1.04693e-06 0)
(-7.57167 -1.0349e-06 0)
(-7.56225 -1.02279e-06 0)
(-7.55282 -1.01063e-06 0)
(-7.54342 -9.9887e-07 0)
(-7.53401 -9.87254e-07 0)
(-7.52462 -9.75541e-07 0)
(-7.51524 -9.63823e-07 0)
(-7.50588 -9.52462e-07 0)
(-7.49652 -9.41179e-07 0)
(-7.48717 -9.29864e-07 0)
(-7.47783 -9.1856e-07 0)
(-7.46852 -9.07576e-07 0)
(-7.4592 -8.9663e-07 0)
(-7.44991 -8.85567e-07 0)
(-7.44062 -8.74634e-07 0)
(-7.43136 -8.63906e-07 0)
(-7.4221 -8.53292e-07 0)
(-7.41287 -8.42531e-07 0)
(-7.40365 -8.32066e-07 0)
(-7.39445 -8.21734e-07 0)
(-7.38526 -8.11468e-07 0)
(-7.37609 -8.01114e-07 0)
(-7.36694 -7.9101e-07 0)
(-7.3578 -7.81075e-07 0)
(-7.34868 -7.71067e-07 0)
(-7.33959 -7.60909e-07 0)
(-7.33052 -7.51095e-07 0)
(-7.32146 -7.41291e-07 0)
(-7.31243 -7.31496e-07 0)
(-7.30342 -7.2184e-07 0)
(-7.29443 -7.12435e-07 0)
(-7.28546 -7.03153e-07 0)
(-7.27652 -6.93847e-07 0)
(-7.2676 -6.84829e-07 0)
(-7.25869 -6.76128e-07 0)
(-7.2498 -6.67301e-07 0)
(-7.24094 -6.58445e-07 0)
(-7.2321 -6.4975e-07 0)
(-7.22328 -6.41299e-07 0)
(-7.21448 -6.32757e-07 0)
(-7.20571 -6.24203e-07 0)
(-7.19696 -6.15953e-07 0)
(-7.18823 -6.07605e-07 0)
(-7.17952 -5.99296e-07 0)
(-7.17085 -5.9116e-07 0)
(-7.1622 -5.83212e-07 0)
(-7.15357 -5.75239e-07 0)
(-7.14496 -5.67427e-07 0)
(-7.13639 -5.59697e-07 0)
(-7.12783 -5.52166e-07 0)
(-7.1193 -5.44573e-07 0)
(-7.1108 -5.37059e-07 0)
(-7.10232 -5.29773e-07 0)
(-7.09387 -5.22462e-07 0)
(-7.08544 -5.15216e-07 0)
(-7.07705 -5.08103e-07 0)
(-7.06867 -5.01131e-07 0)
(-7.06032 -4.94187e-07 0)
(-7.052 -4.87299e-07 0)
(-7.04371 -4.80636e-07 0)
(-7.03544 -4.73953e-07 0)
(-7.0272 -4.67369e-07 0)
(-7.01897 -4.60829e-07 0)
(-7.01079 -4.54413e-07 0)
(-7.00262 -4.48055e-07 0)
(-6.99449 -4.41796e-07 0)
(-6.98637 -4.3564e-07 0)
(-6.97829 -4.29639e-07 0)
(-6.97023 -4.23615e-07 0)
(-6.9622 -4.17711e-07 0)
(-6.95419 -4.11932e-07 0)
(-6.94621 -4.0617e-07 0)
(-6.93825 -4.00458e-07 0)
(-6.93033 -3.94963e-07 0)
(-6.92242 -3.89459e-07 0)
(-6.91455 -3.84008e-07 0)
(-6.90668 -3.78623e-07 0)
(-6.89886 -3.73308e-07 0)
(-6.89106 -3.68033e-07 0)
(-6.88329 -3.62823e-07 0)
(-6.87553 -3.57721e-07 0)
(-6.86782 -3.52694e-07 0)
(-6.86012 -3.47729e-07 0)
(-6.85246 -3.4283e-07 0)
(-6.8448 -3.38008e-07 0)
(-6.83719 -3.33192e-07 0)
(-6.82959 -3.28404e-07 0)
(-6.82204 -3.23695e-07 0)
(-6.8145 -3.19075e-07 0)
(-6.807 -3.14448e-07 0)
(-6.79951 -3.09952e-07 0)
(-6.79207 -3.0554e-07 0)
(-6.78463 -3.01136e-07 0)
(-6.77724 -2.96844e-07 0)
(-6.76986 -2.92613e-07 0)
(-6.76252 -2.88418e-07 0)
(-6.75519 -2.84261e-07 0)
(-6.74791 -2.80192e-07 0)
(-6.74064 -2.762e-07 0)
(-6.7334 -2.72209e-07 0)
(-6.72618 -2.68344e-07 0)
(-6.719 -2.64486e-07 0)
(-6.71183 -2.60753e-07 0)
(-6.7047 -2.56992e-07 0)
(-6.69758 -2.5337e-07 0)
(-6.6905 -2.49729e-07 0)
(-6.68344 -2.46126e-07 0)
(-6.67641 -2.42502e-07 0)
(-6.6694 -2.39083e-07 0)
(-6.66242 -2.35672e-07 0)
(-6.65546 -2.325e-07 0)
(-6.64851 -2.29219e-07 0)
(-6.6416 -2.26084e-07 0)
(-6.6347 -2.22723e-07 0)
(-6.62785 -2.1964e-07 0)
(-6.62098 -2.16451e-07 0)
(-6.61342 -2.12189e-07 0)
(-6.60522 -2.07799e-07 0)
(-6.5972 -2.04014e-07 0)
(-6.58929 -2.00444e-07 0)
(-6.58155 -1.96884e-07 0)
(-6.57393 -1.93412e-07 0)
(-6.56645 -1.90021e-07 0)
(-6.55909 -1.86838e-07 0)
(-6.55187 -1.83769e-07 0)
(-6.54475 -1.80889e-07 0)
(-6.53775 -1.78156e-07 0)
(-6.53084 -1.7547e-07 0)
(-6.52405 -1.72778e-07 0)
(-6.51735 -1.70181e-07 0)
(-6.51077 -1.67644e-07 0)
(-6.50427 -1.65197e-07 0)
(-6.49787 -1.62816e-07 0)
(-6.49156 -1.6048e-07 0)
(-6.48535 -1.58281e-07 0)
(-6.4792 -1.56118e-07 0)
(-6.47316 -1.54062e-07 0)
(-6.46718 -1.52032e-07 0)
(-6.46129 -1.50054e-07 0)
(-6.45546 -1.48109e-07 0)
(-6.44973 -1.46194e-07 0)
(-6.44405 -1.44272e-07 0)
(-6.43847 -1.42396e-07 0)
(-6.43293 -1.40645e-07 0)
(-6.42749 -1.38901e-07 0)
(-6.42209 -1.37243e-07 0)
(-6.41677 -1.35584e-07 0)
(-6.41151 -1.33982e-07 0)
(-6.40631 -1.32348e-07 0)
(-6.40117 -1.3074e-07 0)
(-6.39611 -1.29225e-07 0)
(-6.39109 -1.27689e-07 0)
(-6.38614 -1.2627e-07 0)
(-6.38123 -1.24834e-07 0)
(-6.37639 -1.23484e-07 0)
(-6.37159 -1.22115e-07 0)
(-6.36686 -1.20733e-07 0)
(-6.36216 -1.19401e-07 0)
(-6.35754 -1.18089e-07 0)
(-6.35295 -1.16818e-07 0)
(-6.34842 -1.15568e-07 0)
(-6.34392 -1.14315e-07 0)
(-6.3395 -1.13128e-07 0)
(-6.33509 -1.11855e-07 0)
(-6.33077 -1.10699e-07 0)
(-6.32645 -1.09578e-07 0)
(-6.32221 -1.08548e-07 0)
(-6.31798 -1.07581e-07 0)
(-6.31381 -1.06548e-07 0)
(-6.30966 -1.05602e-07 0)
(-6.30557 -1.04634e-07 0)
(-6.30149 -1.03767e-07 0)
(-6.29747 -1.02838e-07 0)
(-6.29346 -1.01957e-07 0)
(-6.28951 -1.01072e-07 0)
(-6.28557 -1.00193e-07 0)
(-6.28169 -9.92994e-08 0)
(-6.27782 -9.84237e-08 0)
(-6.274 -9.75045e-08 0)
(-6.27021 -9.6609e-08 0)
(-6.26646 -9.5755e-08 0)
(-6.26273 -9.48937e-08 0)
(-6.25905 -9.40552e-08 0)
(-6.25539 -9.32184e-08 0)
(-6.25178 -9.24368e-08 0)
(-6.24817 -9.1634e-08 0)
(-6.24462 -9.08878e-08 0)
(-6.24108 -9.00368e-08 0)
(-6.23759 -8.93743e-08 0)
(-6.2341 -8.85684e-08 0)
(-6.23068 -8.79648e-08 0)
(-6.22724 -8.71931e-08 0)
(-6.22387 -8.6631e-08 0)
(-6.22047 -8.59091e-08 0)
(-6.21717 -8.53723e-08 0)
(-6.21381 -8.47398e-08 0)
(-6.21055 -8.43034e-08 0)
(-6.20723 -8.36607e-08 0)
(-6.20402 -8.31493e-08 0)
(-6.20073 -8.25991e-08 0)
(-6.19757 -8.19945e-08 0)
(-6.19433 -8.18032e-08 0)
(-6.19118 -8.06962e-08 0)
(-6.18803 -8.18354e-08 0)
(-6.18479 -7.84266e-08 0)
(-6.18192 -8.46442e-08 0)
(-6.17817 -7.18321e-08 0)
(-6.17634 -9.45498e-08 0)
(-6.17072 -5.58101e-08 0)
(-6.1721 -7.53683e-08 0)
(-6.16463 -9.95847e-08 0)
)
;
    }
    symmetry
    {
        type            symmetryPlane;
    }
    frontAndBack
    {
        type            empty;
    }
}


// ************************************************************************* //
