/*--------------------------------*- C++ -*----------------------------------*\
| =========                 |                                                 |
| \\      /  F ield         | OpenFOAM: The Open Source CFD Toolbox           |
|  \\    /   O peration     | Version:  v2012                                 |
|   \\  /    A nd           | Website:  www.openfoam.com                      |
|    \\/     M anipulation  |                                                 |
\*---------------------------------------------------------------------------*/
FoamFile
{
    version     2.0;
    format      ascii;
    class       volScalarField;
    location    "25";
    object      yPlus;
}
// * * * * * * * * * * * * * * * * * * * * * * * * * * * * * * * * * * * * * //

dimensions      [0 0 0 0 0 0 0];


internalField   uniform 0;

boundaryField
{
    inlet
    {
        type            calculated;
        value           uniform 0;
    }
    outlet
    {
        type            calculated;
        value           uniform 0;
    }
    topWall
    {
        type            calculated;
        value           nonuniform List<scalar> 
545
(
0.110303
0.190218
0.244034
0.286856
0.323106
0.354824
0.383153
0.408814
0.432299
0.453959
0.474058
0.492802
0.510352
0.526839
0.542373
0.557045
0.570933
0.584102
0.596611
0.608511
0.619846
0.630655
0.640975
0.650837
0.66027
0.6693
0.677951
0.686244
0.6942
0.701837
0.709171
0.71622
0.722996
0.729514
0.735786
0.741825
0.74764
0.753243
0.758643
0.763849
0.768871
0.773715
0.778389
0.782901
0.787258
0.791466
0.79553
0.799458
0.803254
0.806923
0.810471
0.813902
0.817221
0.820432
0.823539
0.826546
0.829457
0.832275
0.835003
0.837646
0.840205
0.842684
0.845086
0.847414
0.849669
0.851855
0.853975
0.856029
0.858021
0.859952
0.861826
0.863642
0.865382
0.867064
0.868733
0.870389
0.872032
0.873661
0.875277
0.876881
0.878471
0.880049
0.881615
0.883168
0.884709
0.886238
0.887755
0.88926
0.890753
0.892234
0.893704
0.895162
0.89661
0.898045
0.89947
0.900884
0.902157
0.903296
0.904435
0.905573
0.906711
0.907849
0.908987
0.910124
0.911261
0.912398
0.913535
0.914671
0.915807
0.916943
0.918078
0.919213
0.920348
0.921482
0.922616
0.92375
0.924883
0.926016
0.927148
0.928281
0.929412
0.930544
0.931675
0.932805
0.933936
0.935065
0.936195
0.937323
0.938452
0.93958
0.940707
0.941834
0.942961
0.944087
0.945212
0.946337
0.947461
0.948585
0.949709
0.950832
0.951954
0.953075
0.954197
0.955317
0.956437
0.957556
0.958675
0.959793
0.960911
0.962027
0.963144
0.964259
0.965374
0.966488
0.967601
0.968714
0.969826
0.970937
0.972048
0.973158
0.974267
0.975375
0.976483
0.97759
0.978696
0.979801
0.980905
0.982009
0.983111
0.984213
0.985314
0.986415
0.987514
0.988612
0.98971
0.990806
0.991902
0.992997
0.99409
0.995183
0.996275
0.997366
0.998456
0.999545
1.00063
1.00172
1.00281
1.00389
1.00497
1.00606
1.00714
1.00822
1.0093
1.01038
1.01145
1.01253
1.0136
1.01468
1.01575
1.01682
1.01789
1.01896
1.02003
1.0211
1.02216
1.02322
1.02429
1.02535
1.02641
1.02747
1.02852
1.02958
1.03064
1.03169
1.03274
1.03379
1.03484
1.03589
1.03694
1.03798
1.03902
1.04007
1.04111
1.04215
1.04318
1.04422
1.04525
1.04629
1.04732
1.04835
1.04938
1.0504
1.05143
1.05245
1.05347
1.05449
1.05551
1.05653
1.05754
1.05855
1.05957
1.06058
1.06158
1.06259
1.06359
1.0646
1.0656
1.0666
1.06759
1.06859
1.06958
1.07057
1.07156
1.07255
1.07354
1.07452
1.0755
1.07648
1.07746
1.07843
1.07941
1.08038
1.08135
1.08232
1.08328
1.08425
1.08521
1.08617
1.08712
1.08802
1.08887
1.08973
1.09059
1.09146
1.09233
1.09321
1.09409
1.09498
1.09588
1.09678
1.09768
1.0986
1.09951
1.10044
1.10136
1.1023
1.10324
1.10418
1.10513
1.10608
1.10705
1.10801
1.10898
1.10996
1.11094
1.11192
1.11291
1.11391
1.11491
1.11592
1.11693
1.11794
1.11896
1.11998
1.12101
1.12205
1.12308
1.12412
1.12517
1.12622
1.12727
1.12833
1.12939
1.13045
1.13152
1.13259
1.13367
1.13475
1.13583
1.13691
1.138
1.13909
1.14018
1.14128
1.14238
1.14348
1.14458
1.14568
1.14679
1.14789
1.149
1.15011
1.15122
1.15233
1.15345
1.15456
1.15567
1.15679
1.1579
1.15901
1.16012
1.16124
1.16235
1.16346
1.16457
1.16567
1.16678
1.16788
1.16898
1.17008
1.17118
1.17227
1.17336
1.17445
1.17553
1.17661
1.17768
1.17875
1.17982
1.18088
1.18193
1.18298
1.18402
1.18505
1.18608
1.1871
1.18812
1.18912
1.19012
1.19111
1.19209
1.19306
1.19403
1.19498
1.19592
1.19685
1.19778
1.19869
1.19958
1.20047
1.20134
1.20221
1.20305
1.20389
1.20471
1.20552
1.20631
1.20708
1.20785
1.20859
1.20932
1.21003
1.21073
1.21141
1.21207
1.21271
1.21333
1.21394
1.21452
1.21509
1.21563
1.21616
1.21666
1.21714
1.2176
1.21804
1.21846
1.21885
1.21922
1.21957
1.21989
1.22019
1.22046
1.22071
1.22093
1.22113
1.2213
1.22145
1.22157
1.22166
1.22173
1.22176
1.22178
1.22176
1.22171
1.22164
1.22154
1.22141
1.22125
1.22106
1.22084
1.2206
1.22032
1.22002
1.21968
1.21932
1.21892
1.2185
1.21805
1.21756
1.21705
1.21651
1.21593
1.21533
1.2147
1.21404
1.21335
1.21263
1.21188
1.2111
1.21021
1.20919
1.20814
1.20707
1.20597
1.20485
1.20372
1.20256
1.20138
1.20019
1.19898
1.19776
1.19652
1.19527
1.19402
1.19275
1.19148
1.1902
1.18891
1.18762
1.18632
1.18503
1.18373
1.18243
1.18113
1.17983
1.17853
1.17723
1.17594
1.17465
1.17337
1.17209
1.17082
1.16956
1.1683
1.16705
1.16581
1.16458
1.16336
1.16215
1.16095
1.15977
1.15859
1.15743
1.15628
1.15515
1.15403
1.15292
1.15183
1.15076
1.1497
1.14866
1.14764
1.14663
1.14565
1.14468
1.14373
1.1428
1.14188
1.14099
1.14012
1.13927
1.13844
1.13763
1.13684
1.13608
1.13533
1.13461
1.13392
1.13324
1.13259
1.13196
1.13136
1.13078
1.13022
1.12969
1.12919
1.12871
1.12825
1.12782
1.12742
1.12704
1.12669
1.12636
1.12606
1.12579
1.12554
1.12532
1.12513
1.12496
1.12482
1.12471
1.12462
1.12457
1.12451
)
;
    }
    bottomWall
    {
        type            calculated;
        value           nonuniform List<scalar> 
449
(
0.139457
0.088971
0.0758331
0.0694834
0.0653391
0.0622897
0.0599545
0.0582574
0.0573534
0.0576751
0.0607587
0.0647476
0.0674991
0.0690217
0.0698257
0.0702427
0.0704221
0.07044
0.0703471
0.0701904
0.0699889
0.0697628
0.0695247
0.0692823
0.0690402
0.0688014
0.0685669
0.0683384
0.0681163
0.0679009
0.0676923
0.0674904
0.067295
0.0671058
0.0669227
0.0667452
0.0665731
0.0664063
0.0662446
0.0660877
0.0659355
0.0657876
0.065644
0.0655044
0.0653686
0.0652363
0.0651075
0.0649821
0.0648597
0.0647394
0.0646213
0.0645051
0.0643911
0.064279
0.064169
0.0640609
0.0639547
0.0638503
0.0637477
0.0636468
0.0635476
0.06345
0.063354
0.0632594
0.0631664
0.0630747
0.0629845
0.0628955
0.0628078
0.0627213
0.0626359
0.0625518
0.0624688
0.0623869
0.0623061
0.0622264
0.0621477
0.0620701
0.0619934
0.0619177
0.0618429
0.0617691
0.0616961
0.061624
0.0615527
0.0614823
0.0614127
0.0613438
0.0612758
0.0612085
0.0611419
0.061076
0.0610109
0.0609464
0.0608827
0.0608195
0.060757
0.0606951
0.0606338
0.0605731
0.060513
0.0604535
0.0603945
0.0603362
0.0602783
0.0602211
0.0601644
0.0601082
0.0600525
0.0599973
0.0599427
0.0598885
0.0598348
0.0597816
0.0597288
0.0596765
0.0596247
0.0595733
0.0595223
0.0594718
0.0594217
0.059372
0.0593227
0.0592738
0.0592253
0.0591772
0.0591294
0.0590821
0.0590351
0.0589885
0.0589423
0.0588964
0.0588508
0.0588057
0.0587608
0.0587163
0.058672
0.0586282
0.0585846
0.0585413
0.0584983
0.0584556
0.0584132
0.0583712
0.0583294
0.0582879
0.0582467
0.0582058
0.0581652
0.0581248
0.0580848
0.058045
0.0580054
0.0579662
0.0579272
0.0578884
0.0578499
0.0578117
0.0577737
0.057736
0.0576985
0.0576612
0.0576242
0.0575874
0.0575509
0.0575145
0.0574785
0.0574426
0.0574069
0.0573714
0.0573362
0.0573012
0.0572664
0.0572338
0.057203
0.0571721
0.0571412
0.0571101
0.057079
0.0570477
0.0570164
0.0569849
0.0569533
0.0569217
0.05689
0.0568581
0.0568262
0.0567942
0.0567622
0.05673
0.0566977
0.0566654
0.056633
0.0566005
0.0565679
0.0565352
0.0565025
0.0564697
0.0564368
0.0564039
0.0563708
0.0563377
0.0563045
0.0562712
0.0562379
0.0562044
0.056171
0.0561374
0.0561039
0.0560702
0.0560365
0.0560028
0.055969
0.0559351
0.0559013
0.0558673
0.0558334
0.0557994
0.0557654
0.0557313
0.0556972
0.0556631
0.055629
0.0555948
0.0555606
0.0555264
0.0554922
0.0554579
0.0554236
0.0553894
0.0553551
0.0553208
0.0552865
0.0552521
0.0552178
0.0551835
0.0551492
0.0551148
0.0550805
0.0550462
0.0550119
0.0549776
0.0549434
0.0549091
0.0548749
0.0548407
0.0548065
0.0547723
0.0547381
0.054704
0.0546699
0.0546358
0.0546018
0.0545678
0.0545338
0.0544998
0.0544659
0.0544321
0.0543982
0.0543645
0.0543307
0.054297
0.0542634
0.0542298
0.0541963
0.0541628
0.0541294
0.054096
0.0540627
0.0540295
0.0539963
0.0539632
0.0539301
0.0538971
0.0538641
0.0538312
0.0537984
0.0537656
0.0537329
0.0537003
0.0536677
0.0536352
0.0536028
0.0535704
0.0535382
0.053506
0.0534738
0.0534418
0.0534098
0.0533779
0.053346
0.0533143
0.0532826
0.053251
0.0532195
0.0531881
0.0531567
0.0531255
0.0530943
0.0530632
0.0530321
0.0530012
0.0529703
0.0529395
0.0529088
0.0528782
0.0528476
0.0528172
0.0527868
0.0527565
0.0527263
0.0526962
0.0526661
0.0526361
0.0526062
0.0525764
0.0525466
0.052517
0.0524874
0.052458
0.0524285
0.0523993
0.05237
0.0523409
0.0523118
0.0522828
0.0522539
0.0522252
0.0521964
0.0521679
0.0521393
0.0521109
0.0520825
0.0520543
0.0520261
0.051998
0.05197
0.0519421
0.0519142
0.0518865
0.0518588
0.0518313
0.0518037
0.0517763
0.051749
0.0517218
0.0516946
0.0516676
0.0516406
0.0516136
0.0515868
0.05156
0.0515333
0.0515066
0.0514772
0.0514453
0.051414
0.0513832
0.051353
0.0513233
0.0512941
0.0512654
0.0512371
0.0512093
0.0511819
0.0511548
0.0511282
0.051102
0.0510761
0.0510506
0.0510255
0.0510007
0.0509763
0.0509522
0.0509284
0.0509049
0.0508817
0.0508588
0.0508362
0.0508138
0.0507918
0.0507699
0.0507484
0.0507271
0.0507061
0.0506853
0.0506648
0.0506444
0.0506244
0.0506045
0.0505849
0.0505655
0.0505463
0.0505273
0.0505085
0.0504899
0.0504715
0.0504533
0.0504353
0.0504175
0.0503999
0.0503824
0.0503652
0.050348
0.0503311
0.0503143
0.0502977
0.0502811
0.0502648
0.0502486
0.0502325
0.0502166
0.0502008
0.0501851
0.0501695
0.0501541
0.0501389
0.0501237
0.0501087
0.0500938
0.0500791
0.0500644
0.05005
0.0500355
0.0500213
0.0500071
0.0499932
0.0499792
0.0499654
0.0499516
0.0499381
0.0499245
0.0499112
0.0498977
0.0498847
0.0498713
0.0498584
0.0498452
0.0498325
0.0498195
0.0498068
0.0497942
0.0497811
0.0497695
0.0497544
0.0497471
0.0497245
0.04973
0.0496999
)
;
    }
    symmetry
    {
        type            symmetryPlane;
    }
    frontAndBack
    {
        type            empty;
    }
}


// ************************************************************************* //
