/*--------------------------------*- C++ -*----------------------------------*\
| =========                 |                                                 |
| \\      /  F ield         | OpenFOAM: The Open Source CFD Toolbox           |
|  \\    /   O peration     | Version:  v2012                                 |
|   \\  /    A nd           | Website:  www.openfoam.com                      |
|    \\/     M anipulation  |                                                 |
\*---------------------------------------------------------------------------*/
FoamFile
{
    version     2.0;
    format      ascii;
    class       volScalarField;
    location    "50";
    object      epsilon;
}
// * * * * * * * * * * * * * * * * * * * * * * * * * * * * * * * * * * * * * //

dimensions      [0 2 -3 0 0 0 0];


internalField   nonuniform List<scalar> 
209825
(
0.759379
0.633707
0.544027
0.481147
0.436637
0.404415
0.380399
0.362058
0.347674
0.336201
0.326841
0.319132
0.312648
0.307178
0.302462
0.298414
0.294853
0.291757
0.288986
0.286555
0.284346
0.282396
0.280599
0.279007
0.277522
0.276204
0.274959
0.273855
0.272801
0.271869
0.270967
0.270172
0.269395
0.268716
0.268041
0.267456
0.26687
0.266366
0.265851
0.265414
0.264961
0.26458
0.264183
0.263854
0.263503
0.263214
0.262905
0.262656
0.262382
0.262158
0.261927
0.261727
0.261522
0.261341
0.261164
0.261026
0.260852
0.260729
0.260592
0.260468
0.260365
0.260265
0.26018
0.260094
0.260028
0.259955
0.259896
0.259868
0.259818
0.259794
0.259747
0.259733
0.259702
0.25971
0.259704
0.259732
0.259732
0.259784
0.259784
0.259849
0.259861
0.259936
0.259964
0.260053
0.260095
0.260204
0.260261
0.260398
0.260468
0.260647
0.260723
0.260986
0.261083
0.264189
3.14057
586.869
0.75938
0.633708
0.544026
0.481144
0.436632
0.404408
0.380391
0.362048
0.347663
0.336189
0.326829
0.319119
0.312634
0.307164
0.302447
0.298399
0.294838
0.291741
0.288971
0.286539
0.28433
0.28238
0.280583
0.27899
0.277505
0.276187
0.274943
0.273838
0.272784
0.271852
0.270949
0.270155
0.269377
0.268699
0.268024
0.267439
0.266852
0.266348
0.265833
0.265396
0.264943
0.264562
0.264165
0.263837
0.263485
0.263196
0.262888
0.262638
0.262364
0.26214
0.261909
0.261709
0.261503
0.261323
0.261146
0.261008
0.260834
0.260711
0.260574
0.26045
0.260347
0.260247
0.260162
0.260075
0.26001
0.259937
0.259878
0.259849
0.2598
0.259776
0.259728
0.259714
0.259683
0.259691
0.259686
0.259713
0.259713
0.259765
0.259765
0.25983
0.259842
0.259917
0.259945
0.260034
0.260076
0.260186
0.260242
0.260379
0.260449
0.260628
0.260704
0.260967
0.261064
0.264175
3.14555
583.55
0.759381
0.633708
0.54402
0.48113
0.436609
0.404378
0.380354
0.362006
0.347616
0.336139
0.326776
0.319063
0.312576
0.307104
0.302386
0.298336
0.294774
0.291677
0.288905
0.286473
0.284263
0.282312
0.280515
0.278921
0.277436
0.276117
0.274872
0.273767
0.272713
0.271781
0.270878
0.270083
0.269305
0.268626
0.267951
0.267365
0.266779
0.266275
0.26576
0.265322
0.264869
0.264488
0.26409
0.263762
0.26341
0.263121
0.262812
0.262563
0.262289
0.262064
0.261833
0.261633
0.261428
0.261247
0.26107
0.260932
0.260758
0.260635
0.260498
0.260373
0.26027
0.26017
0.260085
0.259998
0.259933
0.25986
0.259801
0.259772
0.259723
0.259699
0.259651
0.259637
0.259606
0.259613
0.259608
0.259635
0.259635
0.259687
0.259687
0.259752
0.259764
0.259839
0.259866
0.259955
0.259997
0.260107
0.260163
0.2603
0.26037
0.260548
0.260624
0.260887
0.260985
0.264104
3.15517
579.581
0.759383
0.633709
0.544011
0.481106
0.43657
0.404326
0.380292
0.361935
0.347538
0.336054
0.326686
0.318969
0.312479
0.307004
0.302283
0.298231
0.294667
0.291568
0.288794
0.286361
0.28415
0.282198
0.280399
0.278805
0.277318
0.275999
0.274753
0.273648
0.272593
0.27166
0.270756
0.269961
0.269183
0.268503
0.267828
0.267242
0.266655
0.26615
0.265635
0.265197
0.264744
0.264362
0.263965
0.263636
0.263284
0.262994
0.262686
0.262436
0.262161
0.261937
0.261706
0.261506
0.2613
0.261119
0.260942
0.260803
0.260629
0.260506
0.260369
0.260244
0.260141
0.260041
0.259955
0.259869
0.259803
0.25973
0.259671
0.259642
0.259592
0.259568
0.25952
0.259506
0.259475
0.259482
0.259477
0.259504
0.259504
0.259555
0.259555
0.25962
0.259632
0.259706
0.259734
0.259823
0.259864
0.259974
0.26003
0.260167
0.260236
0.260414
0.26049
0.260753
0.26085
0.263984
3.17
575.748
0.759386
0.633711
0.543997
0.481072
0.436515
0.404253
0.380203
0.361834
0.347426
0.335935
0.32656
0.318837
0.312341
0.306862
0.302138
0.298082
0.294515
0.291413
0.288638
0.286202
0.28399
0.282036
0.280236
0.27864
0.277153
0.275832
0.274585
0.273479
0.272423
0.271489
0.270585
0.269789
0.26901
0.26833
0.267654
0.267068
0.26648
0.265975
0.265459
0.265021
0.264567
0.264185
0.263787
0.263458
0.263106
0.262816
0.262507
0.262257
0.261982
0.261757
0.261526
0.261325
0.261119
0.260938
0.26076
0.260622
0.260448
0.260324
0.260187
0.260062
0.259959
0.259858
0.259773
0.259686
0.25962
0.259546
0.259487
0.259458
0.259408
0.259384
0.259336
0.259322
0.25929
0.259297
0.259291
0.259318
0.259318
0.259369
0.259369
0.259433
0.259445
0.259519
0.259546
0.259635
0.259676
0.259785
0.259842
0.259978
0.260047
0.260225
0.2603
0.260563
0.26066
0.263814
3.19049
572.397
0.75939
0.633712
0.54398
0.481027
0.436444
0.404158
0.380088
0.361703
0.347282
0.335779
0.326395
0.318665
0.312163
0.306678
0.301949
0.297889
0.294318
0.291214
0.288435
0.285997
0.283782
0.281826
0.280024
0.278427
0.276938
0.275616
0.274368
0.27326
0.272203
0.271268
0.270363
0.269566
0.268786
0.268105
0.267429
0.266841
0.266253
0.265747
0.265231
0.264792
0.264338
0.263955
0.263557
0.263227
0.262875
0.262584
0.262275
0.262024
0.261749
0.261524
0.261292
0.261091
0.260885
0.260704
0.260525
0.260387
0.260212
0.260088
0.259951
0.259826
0.259722
0.259622
0.259535
0.259448
0.259382
0.259309
0.259249
0.259219
0.259169
0.259145
0.259097
0.259083
0.259051
0.259057
0.259051
0.259077
0.259077
0.259127
0.259127
0.259191
0.259202
0.259276
0.259303
0.259392
0.259433
0.259541
0.259597
0.259733
0.259802
0.259979
0.260054
0.260316
0.260413
0.263593
3.21709
569.693
0.759394
0.633714
0.543959
0.480973
0.436356
0.404041
0.379947
0.361541
0.347105
0.335588
0.326193
0.318453
0.311943
0.306451
0.301716
0.297651
0.294076
0.290967
0.288185
0.285744
0.283526
0.281568
0.279763
0.278164
0.276673
0.275349
0.2741
0.27299
0.271932
0.270996
0.270089
0.269291
0.26851
0.267828
0.267151
0.266563
0.265974
0.265467
0.26495
0.26451
0.264055
0.263672
0.263273
0.262943
0.26259
0.262298
0.261989
0.261738
0.261462
0.261237
0.261004
0.260803
0.260596
0.260415
0.260236
0.260097
0.259922
0.259798
0.25966
0.259535
0.25943
0.25933
0.259243
0.259156
0.259089
0.259015
0.258955
0.258926
0.258875
0.258851
0.258802
0.258788
0.258755
0.258761
0.258755
0.25878
0.25878
0.25883
0.258829
0.258893
0.258904
0.258977
0.259004
0.259092
0.259133
0.259241
0.259296
0.259431
0.2595
0.259676
0.259751
0.260012
0.260109
0.263321
3.25024
567.696
0.7594
0.633717
0.543933
0.480908
0.436252
0.403902
0.379779
0.36135
0.346893
0.335361
0.325952
0.3182
0.311681
0.306181
0.301439
0.297368
0.293787
0.290674
0.287888
0.285443
0.283221
0.28126
0.279453
0.277851
0.276357
0.275032
0.27378
0.272669
0.271609
0.270671
0.269763
0.268964
0.268181
0.267498
0.26682
0.266231
0.265641
0.265133
0.264615
0.264175
0.263718
0.263335
0.262935
0.262604
0.26225
0.261958
0.261648
0.261396
0.26112
0.260894
0.260661
0.260459
0.260252
0.26007
0.259891
0.259751
0.259576
0.259452
0.259313
0.259188
0.259083
0.258982
0.258895
0.258807
0.25874
0.258666
0.258605
0.258575
0.258525
0.2585
0.258451
0.258436
0.258403
0.258409
0.258402
0.258426
0.258426
0.258475
0.258475
0.258537
0.258548
0.258621
0.258647
0.258734
0.258775
0.258882
0.258937
0.259072
0.25914
0.259316
0.25939
0.25965
0.259746
0.262997
3.29037
566.395
0.759406
0.63372
0.543904
0.480833
0.436131
0.403741
0.379584
0.361127
0.346648
0.335096
0.325672
0.317907
0.311377
0.305867
0.301117
0.297039
0.293452
0.290333
0.287542
0.285092
0.282867
0.280902
0.279091
0.277487
0.27599
0.274662
0.273408
0.272295
0.271233
0.270294
0.269384
0.268583
0.267799
0.267115
0.266435
0.265844
0.265253
0.264744
0.264225
0.263784
0.263327
0.262942
0.262541
0.26221
0.261855
0.261563
0.261251
0.260999
0.260722
0.260496
0.260262
0.26006
0.259852
0.25967
0.259489
0.259349
0.259174
0.259049
0.25891
0.258784
0.258679
0.258577
0.25849
0.258402
0.258334
0.25826
0.258199
0.258168
0.258117
0.258092
0.258042
0.258027
0.257994
0.257999
0.257991
0.258015
0.258014
0.258062
0.258062
0.258124
0.258134
0.258206
0.258232
0.258319
0.258359
0.258465
0.25852
0.258654
0.258721
0.258896
0.258969
0.259229
0.259325
0.262621
3.33787
565.725
0.759414
0.633723
0.543871
0.480748
0.435994
0.403557
0.379362
0.360873
0.346368
0.334795
0.325352
0.317572
0.311029
0.305509
0.300749
0.296663
0.293068
0.289943
0.287146
0.284692
0.282462
0.280493
0.278679
0.277071
0.275571
0.27424
0.272984
0.271868
0.270804
0.269862
0.268951
0.268148
0.267362
0.266676
0.265995
0.265403
0.264811
0.264301
0.26378
0.263338
0.26288
0.262494
0.262092
0.26176
0.261404
0.261111
0.260799
0.260546
0.260268
0.260041
0.259806
0.259604
0.259395
0.259212
0.259031
0.258891
0.258715
0.258589
0.25845
0.258323
0.258217
0.258115
0.258027
0.257939
0.25787
0.257796
0.257734
0.257703
0.257651
0.257626
0.257576
0.257561
0.257527
0.257531
0.257522
0.257545
0.257544
0.257591
0.257591
0.257652
0.257661
0.257733
0.257758
0.257844
0.257884
0.257989
0.258044
0.258176
0.258243
0.258417
0.25849
0.258749
0.258844
0.262194
3.39312
565.588
0.759422
0.633728
0.543835
0.480653
0.435839
0.403351
0.379112
0.360587
0.346053
0.334455
0.324993
0.317196
0.310638
0.305105
0.300335
0.296239
0.292637
0.289504
0.286701
0.284241
0.282006
0.280033
0.278214
0.276602
0.2751
0.273765
0.272506
0.271388
0.270321
0.269377
0.268463
0.267658
0.266871
0.266183
0.2655
0.264906
0.264312
0.263801
0.263279
0.262836
0.262376
0.261989
0.261586
0.261253
0.260896
0.260602
0.260289
0.260035
0.259756
0.259528
0.259293
0.25909
0.25888
0.258697
0.258515
0.258374
0.258197
0.258071
0.257931
0.257804
0.257697
0.257595
0.257506
0.257417
0.257348
0.257274
0.257211
0.257179
0.257127
0.257101
0.257051
0.257035
0.257001
0.257004
0.256994
0.257016
0.257015
0.25706
0.25706
0.25712
0.257129
0.2572
0.257224
0.25731
0.257349
0.257453
0.257507
0.257639
0.257705
0.257878
0.257949
0.258207
0.258302
0.261713
3.45646
565.858
0.759431
0.633732
0.543794
0.480548
0.435668
0.403122
0.378835
0.36027
0.345702
0.334078
0.324593
0.316777
0.310203
0.304656
0.299874
0.295768
0.292157
0.289016
0.286206
0.283739
0.281499
0.27952
0.277697
0.276081
0.274574
0.273237
0.271974
0.270853
0.269783
0.268836
0.26792
0.267113
0.266323
0.265634
0.264949
0.264353
0.263758
0.263245
0.262721
0.262276
0.261816
0.261428
0.261023
0.260688
0.260331
0.260035
0.259721
0.259467
0.259187
0.258958
0.258722
0.258518
0.258307
0.258123
0.25794
0.257799
0.257621
0.257494
0.257354
0.257226
0.257118
0.257016
0.256926
0.256837
0.256767
0.256692
0.256628
0.256596
0.256543
0.256517
0.256466
0.25645
0.256415
0.256417
0.256407
0.256427
0.256425
0.256469
0.256469
0.256528
0.256536
0.256607
0.25663
0.256715
0.256753
0.256857
0.256909
0.25704
0.257106
0.257277
0.257348
0.257605
0.257699
0.261179
3.52817
566.394
0.759441
0.633738
0.54375
0.480432
0.435481
0.40287
0.37853
0.35992
0.345317
0.333662
0.324152
0.316315
0.309724
0.304161
0.299366
0.295249
0.291627
0.288478
0.28566
0.283186
0.28094
0.278955
0.277127
0.275506
0.273995
0.272653
0.271387
0.270262
0.269189
0.26824
0.267321
0.266512
0.26572
0.265028
0.264341
0.263743
0.263146
0.262631
0.262106
0.26166
0.261197
0.260808
0.260402
0.260066
0.259707
0.25941
0.259095
0.258839
0.258559
0.258329
0.258091
0.257886
0.257675
0.25749
0.257306
0.257164
0.256986
0.256858
0.256717
0.256589
0.25648
0.256377
0.256286
0.256196
0.256126
0.25605
0.255985
0.255953
0.255899
0.255872
0.255821
0.255804
0.255769
0.25577
0.255758
0.255778
0.255775
0.255817
0.255817
0.255875
0.255883
0.255952
0.255975
0.256058
0.256096
0.256199
0.256251
0.25638
0.256445
0.256615
0.256685
0.25694
0.257034
0.260591
3.60845
567.048
0.759451
0.633743
0.543702
0.480307
0.435276
0.402596
0.378197
0.359539
0.344895
0.333208
0.32367
0.31581
0.309199
0.30362
0.298811
0.294681
0.291048
0.287889
0.285062
0.282581
0.280327
0.278337
0.276503
0.274877
0.273361
0.272015
0.270745
0.269617
0.26854
0.267588
0.266666
0.265854
0.265059
0.264365
0.263675
0.263076
0.262476
0.26196
0.261433
0.260984
0.26052
0.26013
0.259722
0.259385
0.259024
0.258727
0.25841
0.258153
0.257871
0.25764
0.257402
0.257196
0.256983
0.256798
0.256613
0.256469
0.256291
0.256162
0.25602
0.255891
0.255781
0.255677
0.255586
0.255496
0.255424
0.255348
0.255282
0.255249
0.255194
0.255167
0.255115
0.255098
0.255062
0.255061
0.255049
0.255067
0.255064
0.255104
0.255104
0.255161
0.255167
0.255236
0.255258
0.25534
0.255377
0.255478
0.255529
0.255657
0.255721
0.25589
0.255959
0.256213
0.256306
0.259949
3.69743
567.671
0.759463
0.63375
0.543651
0.480171
0.435055
0.402299
0.377836
0.359125
0.344438
0.332715
0.323147
0.315262
0.308629
0.303032
0.298207
0.294063
0.290419
0.287249
0.284413
0.281923
0.279662
0.277665
0.275825
0.274193
0.272672
0.271321
0.270047
0.268915
0.267834
0.266879
0.265954
0.265138
0.264341
0.263644
0.262952
0.26235
0.261748
0.26123
0.260701
0.260251
0.259785
0.259392
0.258983
0.258644
0.258282
0.257983
0.257665
0.257407
0.257124
0.256891
0.256652
0.256445
0.256231
0.256045
0.255858
0.255714
0.255535
0.255405
0.255262
0.255133
0.255022
0.254917
0.254824
0.254734
0.254661
0.254585
0.254517
0.254483
0.254428
0.2544
0.254347
0.254329
0.254293
0.254291
0.254277
0.254294
0.25429
0.254329
0.254328
0.254384
0.25439
0.254457
0.254478
0.254559
0.254595
0.254695
0.254745
0.254872
0.254935
0.255102
0.255169
0.255422
0.255515
0.259253
3.79512
568.116
0.759475
0.633757
0.543597
0.480026
0.434818
0.401979
0.377446
0.358679
0.343945
0.332182
0.322582
0.31467
0.308014
0.302397
0.297555
0.293396
0.289739
0.286557
0.283711
0.281212
0.278943
0.276938
0.275092
0.273454
0.271927
0.270572
0.269292
0.268156
0.267072
0.266112
0.265184
0.264365
0.263564
0.262865
0.26217
0.261566
0.260961
0.26044
0.259909
0.259457
0.258989
0.258595
0.258184
0.257844
0.25748
0.257179
0.25686
0.2566
0.256316
0.256082
0.255841
0.255633
0.255418
0.255231
0.255043
0.254898
0.254718
0.254587
0.254443
0.254313
0.2542
0.254095
0.254001
0.25391
0.253836
0.253759
0.253691
0.253656
0.253599
0.253571
0.253518
0.253499
0.253462
0.253459
0.253443
0.253459
0.253454
0.25349
0.25349
0.253544
0.253549
0.253616
0.253635
0.253715
0.25375
0.253849
0.253898
0.254023
0.254085
0.25425
0.254316
0.254567
0.25466
0.258501
3.90143
568.246
0.759488
0.633766
0.543539
0.479871
0.434563
0.401636
0.377029
0.3582
0.343415
0.331611
0.321976
0.314034
0.307353
0.301715
0.296854
0.292679
0.289008
0.285814
0.282957
0.280448
0.27817
0.276157
0.274303
0.272659
0.271127
0.269765
0.268481
0.26734
0.266251
0.265288
0.264355
0.263533
0.262729
0.262027
0.261329
0.260722
0.260115
0.259592
0.259058
0.258604
0.258134
0.257738
0.257325
0.256982
0.256617
0.256315
0.255994
0.255733
0.255447
0.255212
0.254969
0.25476
0.254544
0.254356
0.254166
0.25402
0.253839
0.253707
0.253562
0.253431
0.253317
0.253211
0.253116
0.253024
0.252949
0.252872
0.252802
0.252766
0.252708
0.252679
0.252625
0.252606
0.252568
0.252564
0.252547
0.252561
0.252555
0.252589
0.252589
0.252641
0.252645
0.25271
0.252729
0.252808
0.252841
0.252938
0.252986
0.25311
0.25317
0.253334
0.253399
0.253648
0.253741
0.257694
4.01609
567.936
0.759502
0.633774
0.543478
0.479707
0.434293
0.401271
0.376584
0.357689
0.342849
0.331
0.321327
0.313353
0.306646
0.300984
0.296104
0.291912
0.288225
0.285018
0.282149
0.27963
0.277342
0.275321
0.273459
0.271808
0.270269
0.268902
0.267612
0.266466
0.265373
0.264405
0.263469
0.262643
0.261835
0.261129
0.260428
0.259819
0.259209
0.258683
0.258147
0.25769
0.257218
0.25682
0.256405
0.256061
0.255693
0.255389
0.255066
0.254804
0.254516
0.25428
0.254035
0.253825
0.253607
0.253418
0.253227
0.25308
0.252898
0.252764
0.252619
0.252486
0.252372
0.252264
0.252168
0.252075
0.251999
0.251921
0.25185
0.251813
0.251754
0.251725
0.251669
0.251649
0.251611
0.251605
0.251587
0.251599
0.251593
0.251624
0.251623
0.251674
0.251677
0.251741
0.251758
0.251835
0.251868
0.251963
0.25201
0.252132
0.252191
0.252353
0.252416
0.252664
0.252757
0.25683
4.13869
567.072
0.759517
0.633784
0.543414
0.479533
0.434006
0.400883
0.376111
0.357145
0.342247
0.330349
0.320636
0.312629
0.305892
0.300206
0.295304
0.291094
0.287391
0.28417
0.281288
0.278758
0.27646
0.274429
0.27256
0.270901
0.269355
0.267981
0.266686
0.265534
0.264436
0.263464
0.262523
0.261693
0.260882
0.260172
0.259468
0.258855
0.258242
0.257714
0.257175
0.256716
0.256241
0.255841
0.255423
0.255077
0.254708
0.254402
0.254077
0.253813
0.253524
0.253286
0.25304
0.252828
0.252609
0.252419
0.252226
0.252078
0.251894
0.251759
0.251612
0.251479
0.251363
0.251255
0.251157
0.251063
0.250985
0.250907
0.250834
0.250796
0.250737
0.250706
0.25065
0.250629
0.25059
0.250583
0.250563
0.250573
0.250566
0.250595
0.250594
0.250642
0.250645
0.250707
0.250723
0.250799
0.250829
0.250924
0.250969
0.251089
0.251147
0.251306
0.251369
0.251615
0.251707
0.255909
4.26858
565.555
0.759532
0.633795
0.543347
0.47935
0.433703
0.400473
0.37561
0.356568
0.341609
0.329659
0.319903
0.311859
0.305092
0.29938
0.294455
0.290225
0.286505
0.283269
0.280374
0.277831
0.275522
0.273482
0.271604
0.269937
0.268384
0.267003
0.265701
0.264544
0.263441
0.262463
0.261518
0.260684
0.259869
0.259155
0.258447
0.257831
0.257215
0.256684
0.256142
0.25568
0.255203
0.2548
0.25438
0.254032
0.253661
0.253353
0.253026
0.25276
0.252469
0.252229
0.251981
0.251768
0.251547
0.251356
0.251161
0.251012
0.250827
0.250691
0.250543
0.250409
0.250291
0.250182
0.250083
0.249988
0.249908
0.24983
0.249755
0.249716
0.249655
0.249624
0.249566
0.249545
0.249505
0.249497
0.249474
0.249483
0.249474
0.249501
0.2495
0.249545
0.249547
0.249608
0.249622
0.249697
0.249726
0.249819
0.249863
0.249981
0.250038
0.250194
0.250255
0.250499
0.250592
0.254931
4.40493
563.303
0.759548
0.633806
0.543277
0.479158
0.433385
0.40004
0.375082
0.35596
0.340934
0.328929
0.319128
0.311045
0.304246
0.298505
0.293557
0.289306
0.285567
0.282314
0.279405
0.27685
0.274529
0.272479
0.270591
0.268915
0.267354
0.265967
0.264659
0.263495
0.262386
0.261404
0.260453
0.259615
0.258795
0.258078
0.257366
0.256747
0.256127
0.255592
0.255048
0.254583
0.254103
0.253698
0.253275
0.252925
0.252551
0.252241
0.251912
0.251644
0.251351
0.25111
0.25086
0.250646
0.250423
0.25023
0.250034
0.249883
0.249697
0.249559
0.249409
0.249274
0.249155
0.249045
0.248944
0.248849
0.248767
0.248688
0.248611
0.248571
0.248509
0.248477
0.248419
0.248396
0.248355
0.248346
0.248321
0.248328
0.248318
0.248343
0.24834
0.248384
0.248385
0.248443
0.248457
0.248529
0.248557
0.248648
0.248691
0.248806
0.248862
0.249016
0.249076
0.249318
0.24941
0.253894
4.54664
560.248
0.759565
0.633819
0.543205
0.478957
0.433051
0.399586
0.374525
0.355319
0.340223
0.32816
0.31831
0.310187
0.303353
0.297583
0.292608
0.288335
0.284577
0.281307
0.278382
0.275813
0.273481
0.271419
0.269521
0.267837
0.266268
0.264873
0.263557
0.262388
0.261272
0.260284
0.259329
0.258486
0.257661
0.25694
0.256224
0.255601
0.254978
0.25444
0.253892
0.253425
0.252942
0.252533
0.252108
0.251755
0.251379
0.251067
0.250735
0.250465
0.250171
0.249927
0.249675
0.24946
0.249235
0.249041
0.248842
0.24869
0.248503
0.248363
0.248212
0.248076
0.247955
0.247843
0.247741
0.247645
0.247562
0.247482
0.247403
0.247362
0.247298
0.247265
0.247206
0.247182
0.24714
0.24713
0.247104
0.247108
0.247097
0.247119
0.247116
0.247156
0.247157
0.247214
0.247225
0.247296
0.247323
0.247411
0.247453
0.247566
0.24762
0.247772
0.24783
0.248069
0.248163
0.252798
4.69235
556.336
0.759582
0.633832
0.54313
0.478748
0.432702
0.39911
0.373942
0.354646
0.339476
0.327352
0.31745
0.309284
0.302413
0.296611
0.29161
0.287313
0.283535
0.280246
0.277306
0.274722
0.272377
0.270303
0.268395
0.266701
0.265123
0.26372
0.262397
0.261221
0.260099
0.259105
0.258144
0.257296
0.256467
0.255741
0.255021
0.254394
0.253767
0.253225
0.252674
0.252204
0.251718
0.251307
0.250879
0.250523
0.250144
0.24983
0.249496
0.249224
0.248927
0.248682
0.248428
0.24821
0.247983
0.247788
0.247587
0.247433
0.247245
0.247104
0.246951
0.246814
0.24669
0.246578
0.246474
0.246377
0.246292
0.246211
0.246131
0.246088
0.246023
0.245989
0.245928
0.245903
0.24586
0.245848
0.245821
0.245824
0.24581
0.24583
0.245826
0.245863
0.245863
0.245918
0.245928
0.245997
0.246022
0.246109
0.246149
0.246259
0.246312
0.246461
0.246517
0.246755
0.246848
0.251642
4.84041
551.524
0.7596
0.633847
0.543053
0.478531
0.432338
0.398613
0.373332
0.353941
0.338694
0.326504
0.316549
0.308336
0.301427
0.295592
0.290562
0.28624
0.28244
0.279132
0.276175
0.273576
0.271217
0.269131
0.267212
0.265508
0.26392
0.262509
0.261178
0.259995
0.258866
0.257866
0.2569
0.256046
0.255212
0.254481
0.253757
0.253126
0.252494
0.251949
0.251394
0.250921
0.250431
0.250018
0.249586
0.249228
0.248847
0.24853
0.248193
0.247919
0.24762
0.247372
0.247116
0.246897
0.246668
0.246471
0.246268
0.246113
0.245922
0.24578
0.245626
0.245487
0.245362
0.245248
0.245142
0.245044
0.244957
0.244876
0.244793
0.244749
0.244682
0.244647
0.244585
0.24456
0.244515
0.244502
0.244473
0.244473
0.244458
0.244475
0.24447
0.244505
0.244504
0.244556
0.244565
0.244632
0.244655
0.244739
0.244778
0.244886
0.244937
0.245084
0.245137
0.245373
0.245467
0.250423
4.98887
545.78
0.759618
0.633863
0.542975
0.478306
0.431959
0.398095
0.372695
0.353205
0.337875
0.325618
0.315605
0.307344
0.300394
0.294524
0.289464
0.285116
0.281293
0.277965
0.274989
0.272374
0.270001
0.267903
0.265971
0.264257
0.26266
0.261239
0.2599
0.258709
0.257574
0.256567
0.255595
0.254736
0.253896
0.25316
0.252431
0.251796
0.25116
0.250611
0.250053
0.249575
0.249083
0.248666
0.248231
0.24787
0.247486
0.247167
0.246827
0.246551
0.246249
0.246
0.245741
0.24552
0.245289
0.245091
0.244885
0.244728
0.244536
0.244392
0.244236
0.244096
0.243968
0.243854
0.243746
0.243646
0.243557
0.243475
0.243391
0.243345
0.243277
0.24324
0.243177
0.24315
0.243105
0.24309
0.243059
0.243058
0.24304
0.243055
0.243048
0.24308
0.243079
0.243128
0.243135
0.2432
0.243222
0.243304
0.243341
0.243446
0.243496
0.243639
0.243691
0.243924
0.244019
0.249143
5.13546
539.082
0.759637
0.63388
0.542894
0.478074
0.431567
0.397557
0.372032
0.352438
0.337022
0.324692
0.314619
0.306308
0.299315
0.293408
0.288316
0.28394
0.280093
0.276744
0.27375
0.271118
0.26873
0.266618
0.264674
0.262948
0.261341
0.259911
0.258564
0.257365
0.256222
0.255209
0.25423
0.253365
0.252519
0.251779
0.251045
0.250404
0.249764
0.249212
0.248649
0.248168
0.247672
0.247252
0.246814
0.24645
0.246062
0.245741
0.245398
0.245119
0.244815
0.244563
0.244302
0.244079
0.243846
0.243646
0.243438
0.243279
0.243085
0.242939
0.242782
0.24264
0.242511
0.242394
0.242285
0.242184
0.242093
0.24201
0.241923
0.241876
0.241806
0.241769
0.241704
0.241676
0.241629
0.241613
0.24158
0.241576
0.241557
0.241569
0.241561
0.241589
0.241588
0.241634
0.24164
0.241703
0.241722
0.241802
0.241837
0.24194
0.241988
0.242128
0.242178
0.242408
0.242504
0.247798
5.27764
531.413
0.759657
0.633897
0.542812
0.477834
0.43116
0.396998
0.371343
0.35164
0.336134
0.323728
0.313593
0.305228
0.29819
0.292244
0.28712
0.282714
0.278842
0.27547
0.272456
0.269807
0.267403
0.265276
0.26332
0.261582
0.259964
0.258525
0.257168
0.255961
0.25481
0.25379
0.252804
0.251933
0.251082
0.250336
0.249597
0.248952
0.248307
0.24775
0.247183
0.246698
0.246198
0.245775
0.245334
0.244966
0.244576
0.244251
0.243906
0.243624
0.243317
0.243063
0.242799
0.242574
0.242339
0.242137
0.241927
0.241766
0.24157
0.241422
0.241263
0.24112
0.240988
0.240871
0.240759
0.240657
0.240563
0.240479
0.240391
0.240342
0.24027
0.240231
0.240165
0.240136
0.240087
0.24007
0.240036
0.24003
0.240008
0.240018
0.240008
0.240033
0.24003
0.240074
0.240078
0.240139
0.240156
0.240233
0.240266
0.240367
0.240413
0.24055
0.240598
0.240826
0.240923
0.246387
5.41253
522.76
0.759677
0.633917
0.542728
0.477588
0.430741
0.39642
0.370629
0.350812
0.335211
0.322727
0.312525
0.304105
0.297019
0.291033
0.285873
0.281438
0.277539
0.274144
0.271109
0.268441
0.26602
0.263879
0.261909
0.260159
0.25853
0.25708
0.255714
0.254498
0.25334
0.252312
0.251319
0.250441
0.249584
0.248832
0.248088
0.247438
0.246788
0.246226
0.245655
0.245167
0.244663
0.244236
0.243791
0.24342
0.243026
0.242699
0.242351
0.242066
0.241757
0.2415
0.241233
0.241006
0.240768
0.240565
0.240351
0.240189
0.239991
0.239841
0.23968
0.239536
0.239401
0.239282
0.239168
0.239065
0.238969
0.238884
0.238794
0.238743
0.238669
0.238629
0.238562
0.238531
0.23848
0.238462
0.238426
0.238418
0.238394
0.238401
0.23839
0.238411
0.238407
0.238448
0.23845
0.238508
0.238524
0.238599
0.23863
0.238727
0.238771
0.238906
0.238951
0.239176
0.239274
0.244909
5.53702
513.115
0.759697
0.633937
0.542643
0.477335
0.430309
0.395823
0.36989
0.349954
0.334254
0.321687
0.311417
0.302938
0.295803
0.289775
0.284578
0.280111
0.276184
0.272765
0.269708
0.267021
0.264583
0.262426
0.260442
0.258679
0.257038
0.255577
0.254202
0.252976
0.251809
0.250774
0.249774
0.248889
0.248026
0.247268
0.246518
0.245862
0.245208
0.244642
0.244066
0.243573
0.243065
0.242634
0.242185
0.241811
0.241414
0.241084
0.240732
0.240445
0.240133
0.239874
0.239604
0.239375
0.239134
0.238928
0.238712
0.238548
0.238348
0.238196
0.238033
0.237887
0.23775
0.23763
0.237513
0.237409
0.237311
0.237225
0.237131
0.237079
0.237003
0.236962
0.236893
0.23686
0.236809
0.236789
0.236751
0.236741
0.236715
0.236719
0.236706
0.236724
0.236719
0.236756
0.236757
0.236812
0.236826
0.236898
0.236927
0.237021
0.237063
0.237195
0.237238
0.23746
0.237559
0.243363
5.64776
502.469
0.759718
0.633959
0.542557
0.477076
0.429864
0.395208
0.369127
0.349067
0.333264
0.320611
0.310269
0.301729
0.294542
0.288469
0.283235
0.278734
0.274779
0.271333
0.268254
0.265546
0.26309
0.260917
0.258918
0.257142
0.255489
0.254017
0.252631
0.251396
0.25022
0.249177
0.248169
0.247278
0.246407
0.245643
0.244887
0.244226
0.243566
0.242995
0.242415
0.241918
0.241405
0.240971
0.240518
0.240141
0.23974
0.239406
0.239051
0.238761
0.238446
0.238184
0.237911
0.23768
0.237436
0.237229
0.23701
0.236843
0.236642
0.236488
0.236322
0.236175
0.236035
0.235913
0.235794
0.235688
0.235588
0.235501
0.235405
0.235351
0.235273
0.23523
0.235159
0.235125
0.235072
0.23505
0.235011
0.234999
0.234971
0.234972
0.234956
0.234972
0.234965
0.234998
0.234998
0.235051
0.235062
0.235131
0.235158
0.23525
0.23529
0.235417
0.235458
0.235678
0.235778
0.241745
5.74126
490.816
0.759739
0.633981
0.542471
0.476812
0.429409
0.394574
0.368341
0.348152
0.332241
0.319499
0.309081
0.300478
0.293237
0.287118
0.281844
0.277308
0.273322
0.26985
0.266747
0.264018
0.261544
0.259353
0.257339
0.255549
0.253883
0.252399
0.251002
0.249758
0.248573
0.247521
0.246505
0.245606
0.244729
0.243958
0.243196
0.24253
0.241864
0.241288
0.240703
0.240201
0.239685
0.239246
0.238789
0.238408
0.238004
0.237667
0.237308
0.237014
0.236696
0.236432
0.236156
0.235922
0.235675
0.235466
0.235244
0.235075
0.234872
0.234715
0.234547
0.234399
0.234257
0.234133
0.234011
0.233904
0.233801
0.233713
0.233614
0.233558
0.233478
0.233434
0.233361
0.233326
0.233271
0.233248
0.233206
0.233192
0.233162
0.23316
0.233142
0.233155
0.233146
0.233175
0.233175
0.233224
0.233232
0.233299
0.233324
0.233412
0.23345
0.233574
0.233613
0.233829
0.233931
0.240056
5.81394
478.153
0.75976
0.634006
0.542384
0.476543
0.428942
0.393924
0.367532
0.347209
0.331187
0.31835
0.307854
0.299185
0.291888
0.285721
0.280405
0.275833
0.271816
0.268316
0.265188
0.262437
0.259943
0.257734
0.255704
0.253899
0.25222
0.250725
0.249317
0.248062
0.246867
0.245806
0.244782
0.243876
0.242991
0.242214
0.241446
0.240774
0.240102
0.239521
0.23893
0.238424
0.237903
0.23746
0.236999
0.236614
0.236206
0.235865
0.235503
0.235206
0.234885
0.234617
0.234338
0.234102
0.233852
0.233641
0.233416
0.233245
0.233039
0.23288
0.23271
0.232559
0.232415
0.232289
0.232165
0.232056
0.23195
0.231861
0.23176
0.231702
0.23162
0.231574
0.2315
0.231463
0.231406
0.231381
0.231337
0.231322
0.231289
0.231285
0.231264
0.231273
0.231263
0.231288
0.231286
0.231332
0.231338
0.231402
0.231424
0.23151
0.231545
0.231666
0.231702
0.231915
0.232018
0.238292
5.86222
464.477
0.759781
0.634031
0.542297
0.47627
0.428465
0.393258
0.366701
0.346239
0.330101
0.317167
0.30659
0.297851
0.290496
0.284278
0.27892
0.27431
0.27026
0.266731
0.263578
0.260804
0.258289
0.256062
0.254015
0.252195
0.250502
0.248994
0.247574
0.246309
0.245104
0.244034
0.243001
0.242087
0.241195
0.240411
0.239636
0.238958
0.23828
0.237694
0.237098
0.236587
0.23606
0.235613
0.235148
0.234759
0.234346
0.234002
0.233637
0.233336
0.233012
0.232741
0.232459
0.23222
0.231967
0.231754
0.231526
0.231352
0.231144
0.230983
0.23081
0.230658
0.23051
0.230383
0.230256
0.230146
0.230037
0.229946
0.229843
0.229783
0.229698
0.229651
0.229574
0.229536
0.229477
0.22945
0.229404
0.229387
0.229352
0.229346
0.229322
0.229328
0.229316
0.229337
0.229333
0.229375
0.22938
0.229441
0.22946
0.229542
0.229576
0.229693
0.229727
0.229937
0.230041
0.236451
5.88266
449.791
0.759802
0.634058
0.542211
0.475992
0.427979
0.392576
0.365849
0.345243
0.328984
0.31595
0.305288
0.296478
0.289062
0.282792
0.277388
0.27274
0.268655
0.265096
0.261916
0.259118
0.256582
0.254336
0.252272
0.250436
0.248729
0.247207
0.245776
0.244499
0.243284
0.242204
0.241163
0.240241
0.239341
0.238549
0.237767
0.237083
0.236399
0.235807
0.235205
0.234689
0.234158
0.233706
0.233237
0.232843
0.232427
0.232079
0.231709
0.231406
0.231078
0.230804
0.230518
0.230277
0.230021
0.229805
0.229574
0.229397
0.229187
0.229023
0.228848
0.228694
0.228543
0.228414
0.228285
0.228173
0.228061
0.227969
0.227863
0.227801
0.227714
0.227665
0.227586
0.227546
0.227485
0.227457
0.227409
0.22739
0.227352
0.227343
0.227318
0.22732
0.227305
0.227323
0.227317
0.227355
0.227358
0.227416
0.227433
0.227511
0.227542
0.227656
0.227687
0.227894
0.227999
0.234532
5.87222
434.105
0.759824
0.634086
0.542124
0.475712
0.427483
0.391879
0.364977
0.344222
0.327839
0.3147
0.30395
0.295065
0.287586
0.281262
0.275812
0.271122
0.267002
0.263411
0.260204
0.257381
0.254823