/*--------------------------------*- C++ -*----------------------------------*\
| =========                 |                                                 |
| \\      /  F ield         | OpenFOAM: The Open Source CFD Toolbox           |
|  \\    /   O peration     | Version:  v2012                                 |
|   \\  /    A nd           | Website:  www.openfoam.com                      |
|    \\/     M anipulation  |                                                 |
\*---------------------------------------------------------------------------*/
FoamFile
{
    version     2.0;
    format      ascii;
    class       volVectorField;
    location    "25.5";
    object      wallShearStress;
}
// * * * * * * * * * * * * * * * * * * * * * * * * * * * * * * * * * * * * * //

dimensions      [0 2 -2 0 0 0 0];


internalField   uniform (0 0 0);

boundaryField
{
    inlet
    {
        type            calculated;
        value           uniform (0 0 0);
    }
    outlet
    {
        type            calculated;
        value           uniform (0 0 0);
    }
    topWall
    {
        type            calculated;
        value           nonuniform List<vector> 
545
(
(1.47985e-08 -1.04165e-08 0)
(1.47919e-08 -2.91429e-08 0)
(1.47775e-08 -4.86128e-08 0)
(1.47568e-08 -6.75113e-08 0)
(1.47306e-08 -8.55925e-08 0)
(1.46992e-08 -1.03087e-07 0)
(1.46632e-08 -1.20141e-07 0)
(1.46229e-08 -1.36746e-07 0)
(1.45786e-08 -1.52865e-07 0)
(1.45308e-08 -1.68495e-07 0)
(1.44798e-08 -1.83657e-07 0)
(1.4426e-08 -1.98369e-07 0)
(1.43696e-08 -2.1264e-07 0)
(1.43111e-08 -2.26479e-07 0)
(1.42505e-08 -2.39897e-07 0)
(1.41882e-08 -2.52904e-07 0)
(1.41245e-08 -2.65513e-07 0)
(1.40595e-08 -2.77733e-07 0)
(1.39935e-08 -2.89576e-07 0)
(1.39266e-08 -3.01051e-07 0)
(1.3859e-08 -3.12171e-07 0)
(1.37909e-08 -3.22944e-07 0)
(1.37224e-08 -3.33381e-07 0)
(1.36537e-08 -3.43493e-07 0)
(1.35849e-08 -3.53288e-07 0)
(1.35161e-08 -3.62777e-07 0)
(1.34475e-08 -3.71969e-07 0)
(1.3379e-08 -3.80873e-07 0)
(1.33109e-08 -3.89498e-07 0)
(1.32432e-08 -3.97853e-07 0)
(1.31759e-08 -4.05946e-07 0)
(1.31092e-08 -4.13786e-07 0)
(1.3043e-08 -4.2138e-07 0)
(1.29775e-08 -4.28737e-07 0)
(1.29128e-08 -4.35864e-07 0)
(1.28487e-08 -4.42769e-07 0)
(1.27855e-08 -4.49458e-07 0)
(1.2723e-08 -4.55939e-07 0)
(1.26614e-08 -4.62219e-07 0)
(1.26007e-08 -4.68303e-07 0)
(1.25409e-08 -4.74199e-07 0)
(1.2482e-08 -4.79912e-07 0)
(1.24241e-08 -4.85449e-07 0)
(1.2367e-08 -4.90815e-07 0)
(1.2311e-08 -4.96015e-07 0)
(1.22559e-08 -5.01055e-07 0)
(1.22017e-08 -5.05941e-07 0)
(1.21486e-08 -5.10677e-07 0)
(1.20964e-08 -5.15268e-07 0)
(1.20452e-08 -5.1972e-07 0)
(1.1995e-08 -5.24035e-07 0)
(1.19457e-08 -5.28219e-07 0)
(1.18974e-08 -5.32277e-07 0)
(1.18501e-08 -5.36211e-07 0)
(1.18037e-08 -5.40027e-07 0)
(1.17583e-08 -5.43728e-07 0)
(1.17138e-08 -5.47317e-07 0)
(1.16702e-08 -5.50799e-07 0)
(1.16276e-08 -5.54176e-07 0)
(1.15858e-08 -5.57452e-07 0)
(1.1545e-08 -5.60631e-07 0)
(1.1505e-08 -5.63715e-07 0)
(1.1466e-08 -5.66707e-07 0)
(1.14277e-08 -5.69611e-07 0)
(1.13904e-08 -5.72429e-07 0)
(1.13538e-08 -5.75163e-07 0)
(1.13181e-08 -5.77817e-07 0)
(1.12832e-08 -5.80393e-07 0)
(1.1249e-08 -5.82894e-07 0)
(1.12157e-08 -5.85321e-07 0)
(1.11831e-08 -5.87678e-07 0)
(1.11514e-08 -5.89962e-07 0)
(1.11206e-08 -5.92157e-07 0)
(1.10905e-08 -5.94285e-07 0)
(1.10607e-08 -5.96387e-07 0)
(1.1031e-08 -5.98476e-07 0)
(1.10014e-08 -6.00554e-07 0)
(1.09718e-08 -6.02617e-07 0)
(1.09423e-08 -6.04664e-07 0)
(1.09128e-08 -6.06696e-07 0)
(1.08834e-08 -6.08713e-07 0)
(1.08541e-08 -6.10715e-07 0)
(1.08248e-08 -6.12703e-07 0)
(1.07956e-08 -6.14677e-07 0)
(1.07664e-08 -6.16636e-07 0)
(1.07373e-08 -6.18581e-07 0)
(1.07083e-08 -6.20512e-07 0)
(1.06793e-08 -6.22429e-07 0)
(1.06504e-08 -6.24332e-07 0)
(1.06216e-08 -6.26222e-07 0)
(1.05928e-08 -6.28097e-07 0)
(1.05641e-08 -6.29959e-07 0)
(1.05355e-08 -6.31807e-07 0)
(1.0507e-08 -6.33641e-07 0)
(1.04784e-08 -6.35467e-07 0)
(1.04505e-08 -6.37257e-07 0)
(1.04246e-08 -6.38895e-07 0)
(1.04002e-08 -6.40382e-07 0)
(1.03768e-08 -6.41825e-07 0)
(1.03534e-08 -6.43272e-07 0)
(1.03301e-08 -6.44732e-07 0)
(1.03066e-08 -6.46194e-07 0)
(1.02831e-08 -6.47654e-07 0)
(1.02594e-08 -6.49112e-07 0)
(1.02357e-08 -6.50571e-07 0)
(1.02119e-08 -6.5203e-07 0)
(1.01879e-08 -6.53489e-07 0)
(1.01639e-08 -6.54949e-07 0)
(1.01398e-08 -6.56408e-07 0)
(1.01156e-08 -6.57867e-07 0)
(1.00913e-08 -6.59326e-07 0)
(1.00669e-08 -6.60785e-07 0)
(1.00425e-08 -6.62244e-07 0)
(1.00179e-08 -6.63703e-07 0)
(9.99322e-09 -6.65161e-07 0)
(9.96846e-09 -6.6662e-07 0)
(9.9436e-09 -6.68078e-07 0)
(9.91865e-09 -6.69536e-07 0)
(9.89361e-09 -6.70994e-07 0)
(9.86847e-09 -6.72451e-07 0)
(9.84324e-09 -6.73908e-07 0)
(9.81791e-09 -6.75365e-07 0)
(9.79249e-09 -6.76822e-07 0)
(9.76697e-09 -6.78278e-07 0)
(9.74136e-09 -6.79734e-07 0)
(9.71565e-09 -6.81189e-07 0)
(9.68985e-09 -6.82644e-07 0)
(9.66396e-09 -6.84099e-07 0)
(9.63797e-09 -6.85553e-07 0)
(9.61188e-09 -6.87007e-07 0)
(9.5857e-09 -6.8846e-07 0)
(9.55943e-09 -6.89912e-07 0)
(9.53306e-09 -6.91364e-07 0)
(9.50659e-09 -6.92815e-07 0)
(9.48003e-09 -6.94266e-07 0)
(9.45338e-09 -6.95716e-07 0)
(9.42663e-09 -6.97165e-07 0)
(9.39979e-09 -6.98614e-07 0)
(9.37285e-09 -7.00062e-07 0)
(9.34582e-09 -7.01509e-07 0)
(9.31869e-09 -7.02955e-07 0)
(9.29146e-09 -7.04401e-07 0)
(9.26415e-09 -7.05846e-07 0)
(9.23673e-09 -7.0729e-07 0)
(9.20923e-09 -7.08733e-07 0)
(9.18162e-09 -7.10175e-07 0)
(9.15393e-09 -7.11616e-07 0)
(9.12614e-09 -7.13056e-07 0)
(9.09825e-09 -7.14495e-07 0)
(9.07027e-09 -7.15933e-07 0)
(9.0422e-09 -7.1737e-07 0)
(9.01403e-09 -7.18806e-07 0)
(8.98576e-09 -7.20241e-07 0)
(8.95741e-09 -7.21675e-07 0)
(8.92895e-09 -7.23107e-07 0)
(8.90041e-09 -7.24539e-07 0)
(8.87177e-09 -7.25969e-07 0)
(8.84304e-09 -7.27397e-07 0)
(8.81421e-09 -7.28825e-07 0)
(8.78529e-09 -7.30251e-07 0)
(8.75627e-09 -7.31676e-07 0)
(8.72717e-09 -7.331e-07 0)
(8.69796e-09 -7.34522e-07 0)
(8.66867e-09 -7.35943e-07 0)
(8.63928e-09 -7.37362e-07 0)
(8.6098e-09 -7.3878e-07 0)
(8.58023e-09 -7.40196e-07 0)
(8.55056e-09 -7.41611e-07 0)
(8.52081e-09 -7.43024e-07 0)
(8.49096e-09 -7.44435e-07 0)
(8.46101e-09 -7.45845e-07 0)
(8.43098e-09 -7.47253e-07 0)
(8.40085e-09 -7.4866e-07 0)
(8.37064e-09 -7.50064e-07 0)
(8.34033e-09 -7.51467e-07 0)
(8.30993e-09 -7.52868e-07 0)
(8.27944e-09 -7.54268e-07 0)
(8.24885e-09 -7.55665e-07 0)
(8.21818e-09 -7.57061e-07 0)
(8.18742e-09 -7.58454e-07 0)
(8.15657e-09 -7.59846e-07 0)
(8.12562e-09 -7.61236e-07 0)
(8.09459e-09 -7.62623e-07 0)
(8.06347e-09 -7.64009e-07 0)
(8.03226e-09 -7.65392e-07 0)
(8.00096e-09 -7.66774e-07 0)
(7.96957e-09 -7.68153e-07 0)
(7.9381e-09 -7.6953e-07 0)
(7.90653e-09 -7.70905e-07 0)
(7.87488e-09 -7.72277e-07 0)
(7.84314e-09 -7.73648e-07 0)
(7.81131e-09 -7.75016e-07 0)
(7.7794e-09 -7.76381e-07 0)
(7.7474e-09 -7.77744e-07 0)
(7.71531e-09 -7.79105e-07 0)
(7.68314e-09 -7.80463e-07 0)
(7.65088e-09 -7.81819e-07 0)
(7.61854e-09 -7.83172e-07 0)
(7.58611e-09 -7.84523e-07 0)
(7.5536e-09 -7.85871e-07 0)
(7.521e-09 -7.87217e-07 0)
(7.48832e-09 -7.88559e-07 0)
(7.45556e-09 -7.899e-07 0)
(7.42271e-09 -7.91237e-07 0)
(7.38978e-09 -7.92572e-07 0)
(7.35677e-09 -7.93903e-07 0)
(7.32368e-09 -7.95232e-07 0)
(7.2905e-09 -7.96558e-07 0)
(7.25725e-09 -7.97881e-07 0)
(7.22391e-09 -7.99202e-07 0)
(7.19049e-09 -8.00519e-07 0)
(7.157e-09 -8.01833e-07 0)
(7.12342e-09 -8.03144e-07 0)
(7.08977e-09 -8.04452e-07 0)
(7.05604e-09 -8.05757e-07 0)
(7.02223e-09 -8.07059e-07 0)
(6.98834e-09 -8.08357e-07 0)
(6.95437e-09 -8.09652e-07 0)
(6.92033e-09 -8.10944e-07 0)
(6.88622e-09 -8.12233e-07 0)
(6.85203e-09 -8.13518e-07 0)
(6.81776e-09 -8.148e-07 0)
(6.78342e-09 -8.16079e-07 0)
(6.749e-09 -8.17354e-07 0)
(6.71452e-09 -8.18625e-07 0)
(6.67996e-09 -8.19893e-07 0)
(6.64532e-09 -8.21158e-07 0)
(6.61062e-09 -8.22418e-07 0)
(6.57584e-09 -8.23675e-07 0)
(6.541e-09 -8.24929e-07 0)
(6.50608e-09 -8.26179e-07 0)
(6.4711e-09 -8.27424e-07 0)
(6.43605e-09 -8.28667e-07 0)
(6.40093e-09 -8.29905e-07 0)
(6.36574e-09 -8.31139e-07 0)
(6.33048e-09 -8.3237e-07 0)
(6.29516e-09 -8.33596e-07 0)
(6.25978e-09 -8.34819e-07 0)
(6.22432e-09 -8.36037e-07 0)
(6.18881e-09 -8.37252e-07 0)
(6.15323e-09 -8.38462e-07 0)
(6.11759e-09 -8.39668e-07 0)
(6.08189e-09 -8.4087e-07 0)
(6.04612e-09 -8.42068e-07 0)
(6.0103e-09 -8.43261e-07 0)
(5.97441e-09 -8.44451e-07 0)
(5.93847e-09 -8.45635e-07 0)
(5.90247e-09 -8.46816e-07 0)
(5.86641e-09 -8.47992e-07 0)
(5.83029e-09 -8.49163e-07 0)
(5.79412e-09 -8.50331e-07 0)
(5.75789e-09 -8.51493e-07 0)
(5.72161e-09 -8.52651e-07 0)
(5.68527e-09 -8.53804e-07 0)
(5.64888e-09 -8.54953e-07 0)
(5.61244e-09 -8.56097e-07 0)
(5.57594e-09 -8.57236e-07 0)
(5.5394e-09 -8.58371e-07 0)
(5.5028e-09 -8.595e-07 0)
(5.46616e-09 -8.60625e-07 0)
(5.42947e-09 -8.61745e-07 0)
(5.39273e-09 -8.6286e-07 0)
(5.35595e-09 -8.6397e-07 0)
(5.31912e-09 -8.65075e-07 0)
(5.28224e-09 -8.66175e-07 0)
(5.24532e-09 -8.6727e-07 0)
(5.20838e-09 -8.68359e-07 0)
(5.17126e-09 -8.69447e-07 0)
(5.13471e-09 -8.70518e-07 0)
(5.09955e-09 -8.71534e-07 0)
(5.06547e-09 -8.72502e-07 0)
(5.03185e-09 -8.73454e-07 0)
(4.9981e-09 -8.74411e-07 0)
(4.96406e-09 -8.75378e-07 0)
(4.92971e-09 -8.76349e-07 0)
(4.89502e-09 -8.77323e-07 0)
(4.86001e-09 -8.783e-07 0)
(4.82467e-09 -8.79281e-07 0)
(4.78899e-09 -8.80265e-07 0)
(4.75298e-09 -8.81252e-07 0)
(4.71663e-09 -8.82243e-07 0)
(4.67993e-09 -8.83237e-07 0)
(4.6429e-09 -8.84233e-07 0)
(4.60552e-09 -8.85232e-07 0)
(4.5678e-09 -8.86234e-07 0)
(4.52973e-09 -8.87239e-07 0)
(4.49131e-09 -8.88246e-07 0)
(4.45255e-09 -8.89255e-07 0)
(4.41343e-09 -8.90266e-07 0)
(4.37396e-09 -8.91279e-07 0)
(4.33414e-09 -8.92294e-07 0)
(4.29397e-09 -8.9331e-07 0)
(4.25344e-09 -8.94328e-07 0)
(4.21255e-09 -8.95347e-07 0)
(4.17131e-09 -8.96367e-07 0)
(4.1297e-09 -8.97388e-07 0)
(4.08774e-09 -8.9841e-07 0)
(4.04542e-09 -8.99432e-07 0)
(4.00274e-09 -9.00455e-07 0)
(3.95969e-09 -9.01477e-07 0)
(3.91629e-09 -9.025e-07 0)
(3.87252e-09 -9.03522e-07 0)
(3.8284e-09 -9.04544e-07 0)
(3.78391e-09 -9.05564e-07 0)
(3.73906e-09 -9.06584e-07 0)
(3.69384e-09 -9.07603e-07 0)
(3.64827e-09 -9.0862e-07 0)
(3.60233e-09 -9.09635e-07 0)
(3.55603e-09 -9.10648e-07 0)
(3.50937e-09 -9.11659e-07 0)
(3.46236e-09 -9.12667e-07 0)
(3.41498e-09 -9.13673e-07 0)
(3.36725e-09 -9.14675e-07 0)
(3.31916e-09 -9.15674e-07 0)
(3.27071e-09 -9.16669e-07 0)
(3.22191e-09 -9.1766e-07 0)
(3.17276e-09 -9.18647e-07 0)
(3.12325e-09 -9.19629e-07 0)
(3.0734e-09 -9.20606e-07 0)
(3.0232e-09 -9.21578e-07 0)
(2.97266e-09 -9.22544e-07 0)
(2.92178e-09 -9.23504e-07 0)
(2.87055e-09 -9.24457e-07 0)
(2.81899e-09 -9.25404e-07 0)
(2.7671e-09 -9.26344e-07 0)
(2.71488e-09 -9.27276e-07 0)
(2.66233e-09 -9.282e-07 0)
(2.60946e-09 -9.29116e-07 0)
(2.55627e-09 -9.30023e-07 0)
(2.50277e-09 -9.30921e-07 0)
(2.44895e-09 -9.3181e-07 0)
(2.39483e-09 -9.32689e-07 0)
(2.34041e-09 -9.33557e-07 0)
(2.28569e-09 -9.34414e-07 0)
(2.23068e-09 -9.35261e-07 0)
(2.17539e-09 -9.36095e-07 0)
(2.11982e-09 -9.36917e-07 0)
(2.06397e-09 -9.37727e-07 0)
(2.00786e-09 -9.38523e-07 0)
(1.95149e-09 -9.39306e-07 0)
(1.89487e-09 -9.40075e-07 0)
(1.838e-09 -9.40829e-07 0)
(1.78089e-09 -9.41568e-07 0)
(1.72355e-09 -9.42291e-07 0)
(1.66599e-09 -9.42998e-07 0)
(1.60822e-09 -9.43689e-07 0)
(1.55024e-09 -9.44362e-07 0)
(1.49206e-09 -9.45018e-07 0)
(1.4337e-09 -9.45655e-07 0)
(1.37516e-09 -9.46273e-07 0)
(1.31645e-09 -9.46872e-07 0)
(1.25758e-09 -9.47451e-07 0)
(1.19857e-09 -9.48009e-07 0)
(1.13943e-09 -9.48546e-07 0)
(1.08016e-09 -9.49062e-07 0)
(1.02077e-09 -9.49555e-07 0)
(9.61288e-10 -9.50025e-07 0)
(9.01715e-10 -9.50472e-07 0)
(8.42067e-10 -9.50894e-07 0)
(7.82357e-10 -9.51292e-07 0)
(7.22596e-10 -9.51664e-07 0)
(6.628e-10 -9.5201e-07 0)
(6.02982e-10 -9.5233e-07 0)
(5.43157e-10 -9.52623e-07 0)
(4.83338e-10 -9.52887e-07 0)
(4.23542e-10 -9.53123e-07 0)
(3.63783e-10 -9.5333e-07 0)
(3.04078e-10 -9.53508e-07 0)
(2.44441e-10 -9.53654e-07 0)
(1.8489e-10 -9.5377e-07 0)
(1.25442e-10 -9.53854e-07 0)
(6.61116e-11 -9.53906e-07 0)
(6.91806e-12 -9.53925e-07 0)
(-5.21216e-11 -9.5391e-07 0)
(-1.1099e-10 -9.53861e-07 0)
(-1.69668e-10 -9.53777e-07 0)
(-2.28137e-10 -9.53657e-07 0)
(-2.8638e-10 -9.53502e-07 0)
(-3.44376e-10 -9.53309e-07 0)
(-4.02108e-10 -9.53079e-07 0)
(-4.59554e-10 -9.52812e-07 0)
(-5.16696e-10 -9.52505e-07 0)
(-5.73513e-10 -9.52159e-07 0)
(-6.29985e-10 -9.51774e-07 0)
(-6.86093e-10 -9.51348e-07 0)
(-7.41815e-10 -9.50881e-07 0)
(-7.9713e-10 -9.50372e-07 0)
(-8.52019e-10 -9.49821e-07 0)
(-9.06459e-10 -9.49228e-07 0)
(-9.6043e-10 -9.48591e-07 0)
(-1.01391e-09 -9.4791e-07 0)
(-1.06688e-09 -9.47185e-07 0)
(-1.11931e-09 -9.46415e-07 0)
(-1.17119e-09 -9.456e-07 0)
(-1.2225e-09 -9.44738e-07 0)
(-1.2732e-09 -9.43831e-07 0)
(-1.32329e-09 -9.42876e-07 0)
(-1.37274e-09 -9.41875e-07 0)
(-1.42152e-09 -9.40825e-07 0)
(-1.46963e-09 -9.39728e-07 0)
(-1.51702e-09 -9.38582e-07 0)
(-1.56369e-09 -9.37387e-07 0)
(-1.60962e-09 -9.36143e-07 0)
(-1.65478e-09 -9.3485e-07 0)
(-1.69915e-09 -9.33507e-07 0)
(-1.74272e-09 -9.32113e-07 0)
(-1.78545e-09 -9.30669e-07 0)
(-1.82734e-09 -9.29175e-07 0)
(-1.86836e-09 -9.2763e-07 0)
(-1.9085e-09 -9.26033e-07 0)
(-1.94773e-09 -9.24386e-07 0)
(-1.98604e-09 -9.22687e-07 0)
(-2.02341e-09 -9.20937e-07 0)
(-2.05982e-09 -9.19135e-07 0)
(-2.09526e-09 -9.17282e-07 0)
(-2.1297e-09 -9.15377e-07 0)
(-2.16314e-09 -9.13421e-07 0)
(-2.19556e-09 -9.11413e-07 0)
(-2.22694e-09 -9.09353e-07 0)
(-2.25726e-09 -9.07242e-07 0)
(-2.28653e-09 -9.0508e-07 0)
(-2.31471e-09 -9.02867e-07 0)
(-2.34181e-09 -9.00603e-07 0)
(-2.3678e-09 -8.98289e-07 0)
(-2.39268e-09 -8.95924e-07 0)
(-2.41644e-09 -8.93509e-07 0)
(-2.43907e-09 -8.91044e-07 0)
(-2.46056e-09 -8.8853e-07 0)
(-2.4809e-09 -8.85967e-07 0)
(-2.50008e-09 -8.83355e-07 0)
(-2.51811e-09 -8.80695e-07 0)
(-2.53497e-09 -8.77988e-07 0)
(-2.55066e-09 -8.75234e-07 0)
(-2.56517e-09 -8.72433e-07 0)
(-2.57851e-09 -8.69587e-07 0)
(-2.59067e-09 -8.66696e-07 0)
(-2.60165e-09 -8.6376e-07 0)
(-2.61146e-09 -8.6078e-07 0)
(-2.62008e-09 -8.57757e-07 0)
(-2.62753e-09 -8.54692e-07 0)
(-2.6338e-09 -8.51586e-07 0)
(-2.63891e-09 -8.48439e-07 0)
(-2.64284e-09 -8.45253e-07 0)
(-2.64562e-09 -8.42028e-07 0)
(-2.64724e-09 -8.38765e-07 0)
(-2.64771e-09 -8.35465e-07 0)
(-2.64705e-09 -8.32131e-07 0)
(-2.64523e-09 -8.28759e-07 0)
(-2.6424e-09 -8.25357e-07 0)
(-2.63794e-09 -8.21889e-07 0)
(-2.63177e-09 -8.18058e-07 0)
(-2.62425e-09 -8.13853e-07 0)
(-2.61505e-09 -8.09585e-07 0)
(-2.6044e-09 -8.05343e-07 0)
(-2.59243e-09 -8.0114e-07 0)
(-2.57925e-09 -7.96962e-07 0)
(-2.56492e-09 -7.92802e-07 0)
(-2.54949e-09 -7.88663e-07 0)
(-2.53304e-09 -7.8455e-07 0)
(-2.51561e-09 -7.80466e-07 0)
(-2.49728e-09 -7.76411e-07 0)
(-2.4781e-09 -7.72386e-07 0)
(-2.45811e-09 -7.68392e-07 0)
(-2.43737e-09 -7.64432e-07 0)
(-2.41592e-09 -7.60506e-07 0)
(-2.39382e-09 -7.56615e-07 0)
(-2.3711e-09 -7.52761e-07 0)
(-2.3478e-09 -7.48943e-07 0)
(-2.32396e-09 -7.45164e-07 0)
(-2.29962e-09 -7.41424e-07 0)
(-2.2748e-09 -7.37724e-07 0)
(-2.24956e-09 -7.34064e-07 0)
(-2.2239e-09 -7.30446e-07 0)
(-2.19786e-09 -7.26869e-07 0)
(-2.17147e-09 -7.23335e-07 0)
(-2.14476e-09 -7.19843e-07 0)
(-2.11773e-09 -7.16396e-07 0)
(-2.09043e-09 -7.12992e-07 0)
(-2.06286e-09 -7.09632e-07 0)
(-2.03505e-09 -7.06318e-07 0)
(-2.00701e-09 -7.03049e-07 0)
(-1.97876e-09 -6.99825e-07 0)
(-1.95031e-09 -6.96647e-07 0)
(-1.92168e-09 -6.93515e-07 0)
(-1.89289e-09 -6.9043e-07 0)
(-1.86393e-09 -6.87391e-07 0)
(-1.83483e-09 -6.84399e-07 0)
(-1.80559e-09 -6.81455e-07 0)
(-1.77623e-09 -6.78558e-07 0)
(-1.74674e-09 -6.75708e-07 0)
(-1.71714e-09 -6.72907e-07 0)
(-1.68743e-09 -6.70153e-07 0)
(-1.65762e-09 -6.67448e-07 0)
(-1.62772e-09 -6.6479e-07 0)
(-1.59773e-09 -6.62182e-07 0)
(-1.56764e-09 -6.59621e-07 0)
(-1.53748e-09 -6.5711e-07 0)
(-1.50723e-09 -6.54647e-07 0)
(-1.47691e-09 -6.52234e-07 0)
(-1.44651e-09 -6.49869e-07 0)
(-1.41604e-09 -6.47554e-07 0)
(-1.38549e-09 -6.45288e-07 0)
(-1.35488e-09 -6.43072e-07 0)
(-1.32419e-09 -6.40905e-07 0)
(-1.29344e-09 -6.38788e-07 0)
(-1.26261e-09 -6.36721e-07 0)
(-1.23172e-09 -6.34703e-07 0)
(-1.20076e-09 -6.32736e-07 0)
(-1.16974e-09 -6.30818e-07 0)
(-1.13864e-09 -6.28951e-07 0)
(-1.10748e-09 -6.27135e-07 0)
(-1.07625e-09 -6.25368e-07 0)
(-1.04496e-09 -6.23653e-07 0)
(-1.0136e-09 -6.21988e-07 0)
(-9.82169e-10 -6.20374e-07 0)
(-9.50673e-10 -6.1881e-07 0)
(-9.19112e-10 -6.17298e-07 0)
(-8.87484e-10 -6.15837e-07 0)
(-8.5579e-10 -6.14427e-07 0)
(-8.24032e-10 -6.13068e-07 0)
(-7.92209e-10 -6.11761e-07 0)
(-7.60322e-10 -6.10505e-07 0)
(-7.28372e-10 -6.09301e-07 0)
(-6.96361e-10 -6.08149e-07 0)
(-6.6429e-10 -6.07048e-07 0)
(-6.32159e-10 -6.06e-07 0)
(-5.99971e-10 -6.05003e-07 0)
(-5.67728e-10 -6.04059e-07 0)
(-5.3543e-10 -6.03166e-07 0)
(-5.03081e-10 -6.02326e-07 0)
(-4.70682e-10 -6.01539e-07 0)
(-4.38236e-10 -6.00803e-07 0)
(-4.05746e-10 -6.00121e-07 0)
(-3.73213e-10 -5.99491e-07 0)
(-3.40642e-10 -5.98913e-07 0)
(-3.08035e-10 -5.98392e-07 0)
(-2.75392e-10 -5.97907e-07 0)
(-2.42725e-10 -5.9753e-07 0)
(-2.10011e-10 -5.97025e-07 0)
(-1.77339e-10 -5.97164e-07 0)
(-1.44425e-10 -5.95353e-07 0)
(-1.12242e-10 -5.99989e-07 0)
(-7.76314e-11 -5.81882e-07 0)
(-5.16503e-11 -6.2956e-07 0)
(-2.23583e-11 -5.49819e-07 0)
)
;
    }
    bottomWall
    {
        type            calculated;
        value           nonuniform List<vector> 
449
(
(-48.5552 -0.964424 0)
(-19.7598 -0.00515789 0)
(-14.3496 -0.00113538 0)
(-12.0387 -0.000545795 0)
(-10.6319 -0.000351706 0)
(-9.63745 -0.00025615 0)
(-8.87891 -0.000198607 0)
(-8.27503 -0.000159915 0)
(-7.77929 -0.000132407 0)
(-7.3624 -0.000112048 0)
(-7.00517 -9.64375e-05 0)
(-6.69456 -8.41229e-05 0)
(-6.42123 -7.41988e-05 0)
(-6.17829 -6.6066e-05 0)
(-5.96047 -5.93048e-05 0)
(-5.7637 -5.36117e-05 0)
(-5.58479 -4.87643e-05 0)
(-5.42118 -4.45968e-05 0)
(-5.2708 -4.0983e-05 0)
(-5.13196 -3.78253e-05 0)
(-5.00323 -3.50472e-05 0)
(-4.88345 -3.25879e-05 0)
(-4.77162 -3.03984e-05 0)
(-4.66689 -2.84392e-05 0)
(-4.56854 -2.66778e-05 0)
(-4.47594 -2.50874e-05 0)
(-4.38855 -2.36457e-05 0)
(-4.30589 -2.2334e-05 0)
(-4.22755 -2.11365e-05 0)
(-4.15317 -2.00398e-05 0)
(-4.08241 -1.90324e-05 0)
(-4.015 -1.81046e-05 0)
(-3.95067 -1.72478e-05 0)
(-3.88919 -1.64547e-05 0)
(-3.83036 -1.57188e-05 0)
(-3.77399 -1.50346e-05 0)
(-3.71992 -1.43971e-05 0)
(-3.66799 -1.38021e-05 0)
(-3.61805 -1.32456e-05 0)
(-3.57 -1.27243e-05 0)
(-3.5237 -1.22352e-05 0)
(-3.47905 -1.17756e-05 0)
(-3.43596 -1.1343e-05 0)
(-3.39434 -1.09353e-05 0)
(-3.35411 -1.05505e-05 0)
(-3.31518 -1.01869e-05 0)
(-3.27749 -9.84289e-06 0)
(-3.24097 -9.51704e-06 0)
(-3.20557 -9.20805e-06 0)
(-3.17123 -8.91472e-06 0)
(-3.13789 -8.63597e-06 0)
(-3.10551 -8.37081e-06 0)
(-3.07404 -8.11834e-06 0)
(-3.04343 -7.87773e-06 0)
(-3.01366 -7.64823e-06 0)
(-2.98468 -7.42912e-06 0)
(-2.95645 -7.21977e-06 0)
(-2.92895 -7.01959e-06 0)
(-2.90214 -6.82802e-06 0)
(-2.876 -6.64457e-06 0)
(-2.85049 -6.46876e-06 0)
(-2.8256 -6.30015e-06 0)
(-2.80129 -6.13835e-06 0)
(-2.77754 -5.98299e-06 0)
(-2.75434 -5.8337e-06 0)
(-2.73166 -5.69016e-06 0)
(-2.70948 -5.55208e-06 0)
(-2.68778 -5.41917e-06 0)
(-2.66655 -5.29116e-06 0)
(-2.64577 -5.16782e-06 0)
(-2.62542 -5.0489e-06 0)
(-2.60549 -4.93419e-06 0)
(-2.58597 -4.82348e-06 0)
(-2.56683 -4.71659e-06 0)
(-2.54807 -4.61334e-06 0)
(-2.52968 -4.51355e-06 0)
(-2.51164 -4.41707e-06 0)
(-2.49394 -4.32375e-06 0)
(-2.47657 -4.23344e-06 0)
(-2.45953 -4.14602e-06 0)
(-2.44279 -4.06136e-06 0)
(-2.42635 -3.97934e-06 0)
(-2.41021 -3.89984e-06 0)
(-2.39435 -3.82277e-06 0)
(-2.37877 -3.74801e-06 0)
(-2.36345 -3.67548e-06 0)
(-2.34839 -3.60509e-06 0)
(-2.33358 -3.53674e-06 0)
(-2.31902 -3.47036e-06 0)
(-2.3047 -3.40587e-06 0)
(-2.29061 -3.3432e-06 0)
(-2.27674 -3.28227e-06 0)
(-2.2631 -3.22303e-06 0)
(-2.24966 -3.1654e-06 0)
(-2.23644 -3.10933e-06 0)
(-2.22342 -3.05476e-06 0)
(-2.21059 -3.00163e-06 0)
(-2.19796 -2.9499e-06 0)
(-2.18551 -2.89951e-06 0)
(-2.17325 -2.85042e-06 0)
(-2.16116 -2.80257e-06 0)
(-2.14925 -2.75594e-06 0)
(-2.13751 -2.71046e-06 0)
(-2.12594 -2.66612e-06 0)
(-2.11453 -2.62286e-06 0)
(-2.10327 -2.58065e-06 0)
(-2.09217 -2.53946e-06 0)
(-2.08122 -2.49926e-06 0)
(-2.07041 -2.46e-06 0)
(-2.05976 -2.42167e-06 0)
(-2.04924 -2.38423e-06 0)
(-2.03886 -2.34765e-06 0)
(-2.02861 -2.3119e-06 0)
(-2.01849 -2.27697e-06 0)
(-2.00851 -2.24282e-06 0)
(-1.99865 -2.20944e-06 0)
(-1.98891 -2.17679e-06 0)
(-1.97929 -2.14485e-06 0)
(-1.9698 -2.11362e-06 0)
(-1.96041 -2.08305e-06 0)
(-1.95115 -2.05314e-06 0)
(-1.94199 -2.02387e-06 0)
(-1.93294 -1.99521e-06 0)
(-1.924 -1.96715e-06 0)
(-1.91516 -1.93968e-06 0)
(-1.90642 -1.91277e-06 0)
(-1.89779 -1.88641e-06 0)
(-1.88925 -1.86058e-06 0)
(-1.88081 -1.83528e-06 0)
(-1.87247 -1.81048e-06 0)
(-1.86422 -1.78618e-06 0)
(-1.85605 -1.76235e-06 0)
(-1.84798 -1.73899e-06 0)
(-1.84 -1.71608e-06 0)
(-1.8321 -1.69361e-06 0)
(-1.82429 -1.67158e-06 0)
(-1.81656 -1.64996e-06 0)
(-1.80891 -1.62876e-06 0)
(-1.80135 -1.60795e-06 0)
(-1.79386 -1.58753e-06 0)
(-1.78645 -1.56748e-06 0)
(-1.77911 -1.54781e-06 0)
(-1.77185 -1.52849e-06 0)
(-1.76466 -1.50953e-06 0)
(-1.75755 -1.49091e-06 0)
(-1.7505 -1.47262e-06 0)
(-1.74353 -1.45465e-06 0)
(-1.73662 -1.43701e-06 0)
(-1.72979 -1.41967e-06 0)
(-1.72301 -1.40264e-06 0)
(-1.71631 -1.3859e-06 0)
(-1.70967 -1.36945e-06 0)
(-1.70309 -1.35329e-06 0)
(-1.69657 -1.33739e-06 0)
(-1.69011 -1.32177e-06 0)
(-1.68372 -1.30641e-06 0)
(-1.67738 -1.29131e-06 0)
(-1.6711 -1.27646e-06 0)
(-1.66488 -1.26186e-06 0)
(-1.65872 -1.24749e-06 0)
(-1.65261 -1.23336e-06 0)
(-1.64655 -1.21946e-06 0)
(-1.64055 -1.20579e-06 0)
(-1.63461 -1.19233e-06 0)
(-1.62871 -1.17909e-06 0)
(-1.62287 -1.16606e-06 0)
(-1.61708 -1.15324e-06 0)
(-1.61133 -1.14062e-06 0)
(-1.60564 -1.12822e-06 0)
(-1.6 -1.11589e-06 0)
(-1.5944 -1.10418e-06 0)
(-1.58885 -1.09206e-06 0)
(-1.58335 -1.07898e-06 0)
(-1.57821 -1.06884e-06 0)
(-1.57337 -1.06056e-06 0)
(-1.56852 -1.05015e-06 0)
(-1.56367 -1.03945e-06 0)
(-1.55882 -1.02942e-06 0)
(-1.55396 -1.01938e-06 0)
(-1.5491 -1.00946e-06 0)
(-1.54423 -9.99603e-07 0)
(-1.53936 -9.89817e-07 0)
(-1.53448 -9.80092e-07 0)
(-1.5296 -9.70427e-07 0)
(-1.52472 -9.6082e-07 0)
(-1.51983 -9.5127e-07 0)
(-1.51493 -9.41777e-07 0)
(-1.51003 -9.3234e-07 0)
(-1.50513 -9.2296e-07 0)
(-1.50023 -9.13635e-07 0)
(-1.49532 -9.04368e-07 0)
(-1.49041 -8.95157e-07 0)
(-1.4855 -8.86002e-07 0)
(-1.48058 -8.76905e-07 0)
(-1.47566 -8.67865e-07 0)
(-1.47074 -8.58882e-07 0)
(-1.46582 -8.49956e-07 0)
(-1.4609 -8.41089e-07 0)
(-1.45597 -8.32279e-07 0)
(-1.45105 -8.23527e-07 0)
(-1.44612 -8.14834e-07 0)
(-1.44119 -8.062e-07 0)
(-1.43626 -7.97624e-07 0)
(-1.43133 -7.89107e-07 0)
(-1.4264 -7.80649e-07 0)
(-1.42147 -7.7225e-07 0)
(-1.41654 -7.6391e-07 0)
(-1.41161 -7.5563e-07 0)
(-1.40668 -7.47409e-07 0)
(-1.40176 -7.39248e-07 0)
(-1.39683 -7.31147e-07 0)
(-1.3919 -7.23105e-07 0)
(-1.38698 -7.15123e-07 0)
(-1.38206 -7.07201e-07 0)
(-1.37713 -6.99339e-07 0)
(-1.37222 -6.91538e-07 0)
(-1.3673 -6.83796e-07 0)
(-1.36238 -6.76114e-07 0)
(-1.35747 -6.68492e-07 0)
(-1.35256 -6.60931e-07 0)
(-1.34765 -6.5343e-07 0)
(-1.34275 -6.45988e-07 0)
(-1.33785 -6.38607e-07 0)
(-1.33295 -6.31286e-07 0)
(-1.32806 -6.24025e-07 0)
(-1.32317 -6.16823e-07 0)
(-1.31828 -6.09682e-07 0)
(-1.3134 -6.02601e-07 0)
(-1.30852 -5.95579e-07 0)
(-1.30365 -5.88617e-07 0)
(-1.29878 -5.81715e-07 0)
(-1.29392 -5.74872e-07 0)
(-1.28906 -5.68088e-07 0)
(-1.28421 -5.61364e-07 0)
(-1.27936 -5.54699e-07 0)
(-1.27452 -5.48093e-07 0)
(-1.26968 -5.41546e-07 0)
(-1.26485 -5.35057e-07 0)
(-1.26003 -5.28628e-07 0)
(-1.25521 -5.22256e-07 0)
(-1.2504 -5.15943e-07 0)
(-1.2456 -5.09688e-07 0)
(-1.2408 -5.03491e-07 0)
(-1.23601 -4.97352e-07 0)
(-1.23122 -4.9127e-07 0)
(-1.22645 -4.85246e-07 0)
(-1.22168 -4.79279e-07 0)
(-1.21691 -4.73369e-07 0)
(-1.21216 -4.67515e-07 0)
(-1.20741 -4.61718e-07 0)
(-1.20268 -4.55977e-07 0)
(-1.19795 -4.50293e-07 0)
(-1.19322 -4.44664e-07 0)
(-1.18851 -4.39091e-07 0)
(-1.18381 -4.33573e-07 0)
(-1.17911 -4.2811e-07 0)
(-1.17442 -4.22702e-07 0)
(-1.16974 -4.17348e-07 0)
(-1.16508 -4.12049e-07 0)
(-1.16042 -4.06803e-07 0)
(-1.15576 -4.01612e-07 0)
(-1.15112 -3.96474e-07 0)
(-1.14649 -3.91389e-07 0)
(-1.14187 -3.86356e-07 0)
(-1.13726 -3.81377e-07 0)
(-1.13266 -3.76449e-07 0)
(-1.12807 -3.71574e-07 0)
(-1.12349 -3.6675e-07 0)
(-1.11891 -3.61978e-07 0)
(-1.11435 -3.57257e-07 0)
(-1.10981 -3.52586e-07 0)
(-1.10527 -3.47966e-07 0)
(-1.10074 -3.43396e-07 0)
(-1.09622 -3.38876e-07 0)
(-1.09172 -3.34405e-07 0)
(-1.08722 -3.29983e-07 0)
(-1.08274 -3.2561e-07 0)
(-1.07827 -3.21286e-07 0)
(-1.07381 -3.17009e-07 0)
(-1.06936 -3.12781e-07 0)
(-1.06492 -3.086e-07 0)
(-1.06049 -3.04465e-07 0)
(-1.05608 -3.00378e-07 0)
(-1.05168 -2.96337e-07 0)
(-1.04729 -2.92343e-07 0)
(-1.04291 -2.88393e-07 0)
(-1.03855 -2.8449e-07 0)
(-1.0342 -2.80631e-07 0)
(-1.02986 -2.76817e-07 0)
(-1.02553 -2.73048e-07 0)
(-1.02121 -2.69322e-07 0)
(-1.01691 -2.6564e-07 0)
(-1.01262 -2.62001e-07 0)
(-1.00835 -2.58405e-07 0)
(-1.00408 -2.54852e-07 0)
(-0.999831 -2.51341e-07 0)
(-0.995593 -2.47872e-07 0)
(-0.991369 -2.44444e-07 0)
(-0.987157 -2.41057e-07 0)
(-0.982959 -2.37712e-07 0)
(-0.978775 -2.34406e-07 0)
(-0.974603 -2.31141e-07 0)
(-0.970445 -2.27916e-07 0)
(-0.966301 -2.24729e-07 0)
(-0.96217 -2.21582e-07 0)
(-0.958053 -2.18474e-07 0)
(-0.95395 -2.15403e-07 0)
(-0.94986 -2.12371e-07 0)
(-0.945784 -2.09377e-07 0)
(-0.941722 -2.06419e-07 0)
(-0.937674 -2.03499e-07 0)
(-0.93364 -2.00615e-07 0)
(-0.92962 -1.97767e-07 0)
(-0.925614 -1.94955e-07 0)
(-0.921622 -1.92179e-07 0)
(-0.917644 -1.89437e-07 0)
(-0.91368 -1.86731e-07 0)
(-0.909731 -1.84059e-07 0)
(-0.905796 -1.81421e-07 0)
(-0.901875 -1.78817e-07 0)
(-0.897968 -1.76246e-07 0)
(-0.894076 -1.73709e-07 0)
(-0.890198 -1.71204e-07 0)
(-0.886335 -1.68732e-07 0)
(-0.882486 -1.66291e-07 0)
(-0.878652 -1.63883e-07 0)
(-0.874832 -1.61506e-07 0)
(-0.871026 -1.5916e-07 0)
(-0.867236 -1.56845e-07 0)
(-0.863459 -1.5456e-07 0)
(-0.859698 -1.52305e-07 0)
(-0.855951 -1.5008e-07 0)
(-0.852219 -1.47885e-07 0)
(-0.848501 -1.45719e-07 0)
(-0.844798 -1.43581e-07 0)
(-0.84111 -1.41473e-07 0)
(-0.837436 -1.39392e-07 0)
(-0.833777 -1.37339e-07 0)
(-0.830133 -1.35314e-07 0)
(-0.826504 -1.33316e-07 0)
(-0.82289 -1.31345e-07 0)
(-0.81929 -1.29401e-07 0)
(-0.815705 -1.27483e-07 0)
(-0.812135 -1.25591e-07 0)
(-0.808579 -1.23725e-07 0)
(-0.805039 -1.21885e-07 0)
(-0.801513 -1.20069e-07 0)
(-0.798002 -1.18279e-07 0)
(-0.794506 -1.16512e-07 0)
(-0.791025 -1.14772e-07 0)
(-0.787558 -1.13052e-07 0)
(-0.784106 -1.11329e-07 0)
(-0.780671 -1.09734e-07 0)
(-0.777244 -1.08149e-07 0)
(-0.773452 -1.06243e-07 0)
(-0.769339 -1.04229e-07 0)
(-0.765302 -1.02412e-07 0)
(-0.761332 -1.00675e-07 0)
(-0.757431 -9.89204e-08 0)
(-0.753598 -9.71972e-08 0)
(-0.749831 -9.55167e-08 0)
(-0.746129 -9.3881e-08 0)
(-0.742491 -9.22891e-08 0)
(-0.738914 -9.07398e-08 0)
(-0.735396 -8.9232e-08 0)
(-0.731937 -8.77644e-08 0)
(-0.728534 -8.63357e-08 0)
(-0.725187 -8.49446e-08 0)
(-0.721893 -8.35896e-08 0)
(-0.718652 -8.22696e-08 0)
(-0.715461 -8.09832e-08 0)
(-0.71232 -7.97294e-08 0)
(-0.709228 -7.8507e-08 0)
(-0.706182 -7.73149e-08 0)
(-0.703183 -7.6152e-08 0)
(-0.700229 -7.50175e-08 0)
(-0.697318 -7.39103e-08 0)
(-0.69445 -7.28296e-08 0)
(-0.691624 -7.17744e-08 0)
(-0.688839 -7.0744e-08 0)
(-0.686094 -6.97375e-08 0)
(-0.683387 -6.87542e-08 0)
(-0.680718 -6.77934e-08 0)
(-0.678087 -6.68543e-08 0)
(-0.675492 -6.59363e-08 0)
(-0.672932 -6.50386e-08 0)
(-0.670407 -6.41608e-08 0)
(-0.667916 -6.33022e-08 0)
(-0.665458 -6.24622e-08 0)
(-0.663033 -6.16403e-08 0)
(-0.66064 -6.0836e-08 0)
(-0.658277 -6.00486e-08 0)
(-0.655945 -5.92778e-08 0)
(-0.653643 -5.85231e-08 0)
(-0.65137 -5.77839e-08 0)
(-0.649126 -5.706e-08 0)
(-0.64691 -5.63507e-08 0)
(-0.644721 -5.56558e-08 0)
(-0.642559 -5.49749e-08 0)
(-0.640423 -5.43075e-08 0)
(-0.638313 -5.36533e-08 0)
(-0.636229 -5.30119e-08 0)
(-0.634169 -5.23831e-08 0)
(-0.632134 -5.17664e-08 0)
(-0.630123 -5.11616e-08 0)
(-0.628135 -5.05683e-08 0)
(-0.62617 -4.99864e-08 0)
(-0.624227 -4.94153e-08 0)
(-0.622307 -4.8855e-08 0)
(-0.620408 -4.83052e-08 0)
(-0.618531 -4.77655e-08 0)
(-0.616674 -4.72358e-08 0)
(-0.614838 -4.67158e-08 0)
(-0.613022 -4.62053e-08 0)
(-0.611226 -4.5704e-08 0)
(-0.60945 -4.52119e-08 0)
(-0.607692 -4.47286e-08 0)
(-0.605953 -4.42539e-08 0)
(-0.604233 -4.37878e-08 0)
(-0.602531 -4.333e-08 0)
(-0.600846 -4.28804e-08 0)
(-0.599179 -4.24389e-08 0)
(-0.597529 -4.20052e-08 0)
(-0.595895 -4.15793e-08 0)
(-0.594279 -4.1161e-08 0)
(-0.592678 -4.07504e-08 0)
(-0.591093 -4.03473e-08 0)
(-0.589524 -3.99516e-08 0)
(-0.58797 -3.95634e-08 0)
(-0.586432 -3.91828e-08 0)
(-0.584908 -3.88097e-08 0)
(-0.583398 -3.84443e-08 0)
(-0.581903 -3.8087e-08 0)
(-0.580421 -3.7738e-08 0)
(-0.578953 -3.73979e-08 0)
(-0.577498 -3.70676e-08 0)
(-0.576056 -3.67484e-08 0)
(-0.574626 -3.64416e-08 0)
(-0.573207 -3.61498e-08 0)
(-0.5718 -3.58834e-08 0)
(-0.570403 -3.56232e-08 0)
(-0.569016 -3.54103e-08 0)
(-0.567635 -3.54255e-08 0)
(-0.566247 -3.49125e-08 0)
(-0.564906 -3.40632e-08 0)
(-0.563584 -4.49994e-08 0)
(-0.561389 -1.22461e-08 0)
(-0.562638 -3.30555e-08 0)
(-0.558763 -5.04682e-08 0)
)
;
    }
    symmetry
    {
        type            symmetryPlane;
    }
    frontAndBack
    {
        type            empty;
    }
}


// ************************************************************************* //
