/*--------------------------------*- C++ -*----------------------------------*\
| =========                 |                                                 |
| \\      /  F ield         | OpenFOAM: The Open Source CFD Toolbox           |
|  \\    /   O peration     | Version:  v2012                                 |
|   \\  /    A nd           | Website:  www.openfoam.com                      |
|    \\/     M anipulation  |                                                 |
\*---------------------------------------------------------------------------*/
FoamFile
{
    version     2.0;
    format      ascii;
    class       volVectorField;
    location    "5";
    object      wallShearStress;
}
// * * * * * * * * * * * * * * * * * * * * * * * * * * * * * * * * * * * * * //

dimensions      [0 2 -2 0 0 0 0];


internalField   uniform (0 0 0);

boundaryField
{
    inlet
    {
        type            calculated;
        value           uniform (0 0 0);
    }
    outlet
    {
        type            calculated;
        value           uniform (0 0 0);
    }
    topWall
    {
        type            calculated;
        value           nonuniform List<vector> 
545
(
(9.47693e-09 -1.04627e-08 0)
(9.4727e-09 -2.92684e-08 0)
(9.46381e-09 -4.88192e-08 0)
(9.45079e-09 -6.77963e-08 0)
(9.43412e-09 -8.59534e-08 0)
(9.41422e-09 -1.03522e-07 0)
(9.39134e-09 -1.20648e-07 0)
(9.36571e-09 -1.37324e-07 0)
(9.33757e-09 -1.53512e-07 0)
(9.30717e-09 -1.69209e-07 0)
(9.27476e-09 -1.84437e-07 0)
(9.24053e-09 -1.99213e-07 0)
(9.2047e-09 -2.13547e-07 0)
(9.16744e-09 -2.27447e-07 0)
(9.12893e-09 -2.40925e-07 0)
(9.08933e-09 -2.53991e-07 0)
(9.04879e-09 -2.66656e-07 0)
(9.00746e-09 -2.78932e-07 0)
(8.96545e-09 -2.90829e-07 0)
(8.9229e-09 -3.02357e-07 0)
(8.87992e-09 -3.13528e-07 0)
(8.8366e-09 -3.24352e-07 0)
(8.79305e-09 -3.34839e-07 0)
(8.74936e-09 -3.44999e-07 0)
(8.70559e-09 -3.54841e-07 0)
(8.66184e-09 -3.64376e-07 0)
(8.61817e-09 -3.73612e-07 0)
(8.57463e-09 -3.8256e-07 0)
(8.5313e-09 -3.91228e-07 0)
(8.48821e-09 -3.99624e-07 0)
(8.44542e-09 -4.07758e-07 0)
(8.40298e-09 -4.15638e-07 0)
(8.36091e-09 -4.23271e-07 0)
(8.31926e-09 -4.30666e-07 0)
(8.27805e-09 -4.3783e-07 0)
(8.23732e-09 -4.44771e-07 0)
(8.19708e-09 -4.51496e-07 0)
(8.15737e-09 -4.58012e-07 0)
(8.1182e-09 -4.64325e-07 0)
(8.07958e-09 -4.70442e-07 0)
(8.04154e-09 -4.7637e-07 0)
(8.00408e-09 -4.82114e-07 0)
(7.96721e-09 -4.87681e-07 0)
(7.93095e-09 -4.93077e-07 0)
(7.89529e-09 -4.98306e-07 0)
(7.86025e-09 -5.03375e-07 0)
(7.82582e-09 -5.08289e-07 0)
(7.79202e-09 -5.13052e-07 0)
(7.75883e-09 -5.17669e-07 0)
(7.72627e-09 -5.22146e-07 0)
(7.69433e-09 -5.26487e-07 0)
(7.663e-09 -5.30696e-07 0)
(7.6323e-09 -5.34777e-07 0)
(7.6022e-09 -5.38735e-07 0)
(7.57271e-09 -5.42573e-07 0)
(7.54382e-09 -5.46296e-07 0)
(7.51553e-09 -5.49907e-07 0)
(7.48783e-09 -5.5341e-07 0)
(7.46072e-09 -5.56808e-07 0)
(7.43418e-09 -5.60105e-07 0)
(7.40822e-09 -5.63303e-07 0)
(7.38282e-09 -5.66406e-07 0)
(7.35797e-09 -5.69417e-07 0)
(7.33368e-09 -5.72339e-07 0)
(7.30992e-09 -5.75174e-07 0)
(7.28669e-09 -5.77926e-07 0)
(7.26399e-09 -5.80597e-07 0)
(7.2418e-09 -5.8319e-07 0)
(7.22012e-09 -5.85706e-07 0)
(7.19894e-09 -5.88149e-07 0)
(7.17821e-09 -5.90521e-07 0)
(7.1581e-09 -5.9282e-07 0)
(7.13857e-09 -5.9503e-07 0)
(7.1194e-09 -5.97172e-07 0)
(7.10043e-09 -5.99288e-07 0)
(7.08153e-09 -6.01391e-07 0)
(7.06269e-09 -6.03483e-07 0)
(7.04387e-09 -6.05559e-07 0)
(7.0251e-09 -6.0762e-07 0)
(7.00636e-09 -6.09666e-07 0)
(6.98766e-09 -6.11696e-07 0)
(6.96899e-09 -6.13713e-07 0)
(6.95037e-09 -6.15714e-07 0)
(6.93178e-09 -6.17701e-07 0)
(6.91323e-09 -6.19674e-07 0)
(6.89472e-09 -6.21633e-07 0)
(6.87625e-09 -6.23577e-07 0)
(6.85783e-09 -6.25507e-07 0)
(6.83944e-09 -6.27424e-07 0)
(6.8211e-09 -6.29326e-07 0)
(6.8028e-09 -6.31215e-07 0)
(6.78454e-09 -6.3309e-07 0)
(6.76632e-09 -6.34951e-07 0)
(6.74818e-09 -6.36798e-07 0)
(6.72993e-09 -6.38637e-07 0)
(6.71239e-09 -6.4044e-07 0)
(6.69609e-09 -6.42091e-07 0)
(6.68062e-09 -6.43587e-07 0)
(6.66568e-09 -6.4504e-07 0)
(6.65082e-09 -6.46499e-07 0)
(6.63594e-09 -6.47969e-07 0)
(6.621e-09 -6.49442e-07 0)
(6.60601e-09 -6.50913e-07 0)
(6.59096e-09 -6.52382e-07 0)
(6.57585e-09 -6.53851e-07 0)
(6.56068e-09 -6.55322e-07 0)
(6.54545e-09 -6.56792e-07 0)
(6.53016e-09 -6.58262e-07 0)
(6.51481e-09 -6.59732e-07 0)
(6.4994e-09 -6.61202e-07 0)
(6.48394e-09 -6.62672e-07 0)
(6.46841e-09 -6.64142e-07 0)
(6.45282e-09 -6.65612e-07 0)
(6.43717e-09 -6.67082e-07 0)
(6.42147e-09 -6.68552e-07 0)
(6.4057e-09 -6.70021e-07 0)
(6.38987e-09 -6.71491e-07 0)
(6.37398e-09 -6.7296e-07 0)
(6.35804e-09 -6.74429e-07 0)
(6.34203e-09 -6.75898e-07 0)
(6.32596e-09 -6.77366e-07 0)
(6.30983e-09 -6.78835e-07 0)
(6.29364e-09 -6.80303e-07 0)
(6.27739e-09 -6.8177e-07 0)
(6.26108e-09 -6.83238e-07 0)
(6.24472e-09 -6.84705e-07 0)
(6.22829e-09 -6.86171e-07 0)
(6.21179e-09 -6.87637e-07 0)
(6.19524e-09 -6.89103e-07 0)
(6.17863e-09 -6.90568e-07 0)
(6.16196e-09 -6.92033e-07 0)
(6.14523e-09 -6.93497e-07 0)
(6.12843e-09 -6.94961e-07 0)
(6.11158e-09 -6.96424e-07 0)
(6.09467e-09 -6.97887e-07 0)
(6.07769e-09 -6.99348e-07 0)
(6.06066e-09 -7.0081e-07 0)
(6.04356e-09 -7.0227e-07 0)
(6.0264e-09 -7.0373e-07 0)
(6.00919e-09 -7.05189e-07 0)
(5.99191e-09 -7.06648e-07 0)
(5.97457e-09 -7.08105e-07 0)
(5.95717e-09 -7.09562e-07 0)
(5.93971e-09 -7.11018e-07 0)
(5.92219e-09 -7.12473e-07 0)
(5.90461e-09 -7.13928e-07 0)
(5.88697e-09 -7.15381e-07 0)
(5.86927e-09 -7.16833e-07 0)
(5.85151e-09 -7.18285e-07 0)
(5.83369e-09 -7.19735e-07 0)
(5.81581e-09 -7.21185e-07 0)
(5.79786e-09 -7.22633e-07 0)
(5.77986e-09 -7.2408e-07 0)
(5.7618e-09 -7.25527e-07 0)
(5.74367e-09 -7.26972e-07 0)
(5.72549e-09 -7.28416e-07 0)
(5.70725e-09 -7.29858e-07 0)
(5.68894e-09 -7.313e-07 0)
(5.67058e-09 -7.3274e-07 0)
(5.65216e-09 -7.34179e-07 0)
(5.63368e-09 -7.35617e-07 0)
(5.61513e-09 -7.37053e-07 0)
(5.59653e-09 -7.38488e-07 0)
(5.57787e-09 -7.39922e-07 0)
(5.55915e-09 -7.41354e-07 0)
(5.54037e-09 -7.42785e-07 0)
(5.52153e-09 -7.44214e-07 0)
(5.50263e-09 -7.45641e-07 0)
(5.48367e-09 -7.47068e-07 0)
(5.46465e-09 -7.48492e-07 0)
(5.44558e-09 -7.49915e-07 0)
(5.42644e-09 -7.51337e-07 0)
(5.40725e-09 -7.52756e-07 0)
(5.388e-09 -7.54174e-07 0)
(5.36869e-09 -7.5559e-07 0)
(5.34932e-09 -7.57005e-07 0)
(5.32989e-09 -7.58418e-07 0)
(5.3104e-09 -7.59828e-07 0)
(5.29086e-09 -7.61237e-07 0)
(5.27126e-09 -7.62644e-07 0)
(5.2516e-09 -7.6405e-07 0)
(5.23188e-09 -7.65453e-07 0)
(5.21211e-09 -7.66854e-07 0)
(5.19228e-09 -7.68253e-07 0)
(5.17239e-09 -7.6965e-07 0)
(5.15245e-09 -7.71045e-07 0)
(5.13245e-09 -7.72438e-07 0)
(5.11239e-09 -7.73829e-07 0)
(5.09227e-09 -7.75218e-07 0)
(5.0721e-09 -7.76604e-07 0)
(5.05188e-09 -7.77988e-07 0)
(5.03159e-09 -7.7937e-07 0)
(5.01126e-09 -7.8075e-07 0)
(4.99086e-09 -7.82127e-07 0)
(4.97041e-09 -7.83502e-07 0)
(4.94991e-09 -7.84874e-07 0)
(4.92935e-09 -7.86244e-07 0)
(4.90874e-09 -7.87611e-07 0)
(4.88807e-09 -7.88976e-07 0)
(4.86735e-09 -7.90339e-07 0)
(4.84657e-09 -7.91698e-07 0)
(4.82574e-09 -7.93055e-07 0)
(4.80486e-09 -7.9441e-07 0)
(4.78392e-09 -7.95762e-07 0)
(4.76293e-09 -7.97111e-07 0)
(4.74189e-09 -7.98457e-07 0)
(4.7208e-09 -7.998e-07 0)
(4.69965e-09 -8.01141e-07 0)
(4.67845e-09 -8.02479e-07 0)
(4.6572e-09 -8.03813e-07 0)
(4.6359e-09 -8.05145e-07 0)
(4.61455e-09 -8.06474e-07 0)
(4.59314e-09 -8.078e-07 0)
(4.57169e-09 -8.09123e-07 0)
(4.55018e-09 -8.10442e-07 0)
(4.52863e-09 -8.11759e-07 0)
(4.50702e-09 -8.13072e-07 0)
(4.48537e-09 -8.14383e-07 0)
(4.46366e-09 -8.15689e-07 0)
(4.44191e-09 -8.16993e-07 0)
(4.42011e-09 -8.18293e-07 0)
(4.39826e-09 -8.1959e-07 0)
(4.37637e-09 -8.20884e-07 0)
(4.35442e-09 -8.22174e-07 0)
(4.33243e-09 -8.23461e-07 0)
(4.3104e-09 -8.24744e-07 0)
(4.28831e-09 -8.26024e-07 0)
(4.26618e-09 -8.273e-07 0)
(4.24401e-09 -8.28572e-07 0)
(4.22179e-09 -8.29841e-07 0)
(4.19952e-09 -8.31106e-07 0)
(4.17721e-09 -8.32368e-07 0)
(4.15486e-09 -8.33625e-07 0)
(4.13246e-09 -8.34879e-07 0)
(4.11002e-09 -8.36129e-07 0)
(4.08753e-09 -8.37375e-07 0)
(4.065e-09 -8.38617e-07 0)
(4.04243e-09 -8.39856e-07 0)
(4.01982e-09 -8.4109e-07 0)
(3.99717e-09 -8.4232e-07 0)
(3.97448e-09 -8.43546e-07 0)
(3.95174e-09 -8.44768e-07 0)
(3.92897e-09 -8.45986e-07 0)
(3.90615e-09 -8.472e-07 0)
(3.8833e-09 -8.48409e-07 0)
(3.86041e-09 -8.49614e-07 0)
(3.83748e-09 -8.50815e-07 0)
(3.81451e-09 -8.52012e-07 0)
(3.79151e-09 -8.53204e-07 0)
(3.76847e-09 -8.54392e-07 0)
(3.74539e-09 -8.55575e-07 0)
(3.72227e-09 -8.56754e-07 0)
(3.69912e-09 -8.57928e-07 0)
(3.67594e-09 -8.59097e-07 0)
(3.65272e-09 -8.60262e-07 0)
(3.62947e-09 -8.61423e-07 0)
(3.60618e-09 -8.62578e-07 0)
(3.58286e-09 -8.63729e-07 0)
(3.55951e-09 -8.64875e-07 0)
(3.53613e-09 -8.66017e-07 0)
(3.51271e-09 -8.67153e-07 0)
(3.48927e-09 -8.68285e-07 0)
(3.46579e-09 -8.69411e-07 0)
(3.44229e-09 -8.70533e-07 0)
(3.41875e-09 -8.7165e-07 0)
(3.39519e-09 -8.72762e-07 0)
(3.37162e-09 -8.73867e-07 0)
(3.34791e-09 -8.74971e-07 0)
(3.32463e-09 -8.7606e-07 0)
(3.30226e-09 -8.77093e-07 0)
(3.28052e-09 -8.78074e-07 0)
(3.25905e-09 -8.79042e-07 0)
(3.2375e-09 -8.80015e-07 0)
(3.21576e-09 -8.80997e-07 0)
(3.19381e-09 -8.81984e-07 0)
(3.17166e-09 -8.82974e-07 0)
(3.1493e-09 -8.83967e-07 0)
(3.12673e-09 -8.84964e-07 0)
(3.10394e-09 -8.85964e-07 0)
(3.08093e-09 -8.86968e-07 0)
(3.05771e-09 -8.87976e-07 0)
(3.03428e-09 -8.88986e-07 0)
(3.01062e-09 -8.9e-07 0)
(2.98674e-09 -8.91016e-07 0)
(2.96265e-09 -8.92036e-07 0)
(2.93833e-09 -8.93058e-07 0)
(2.91379e-09 -8.94082e-07 0)
(2.88902e-09 -8.95109e-07 0)
(2.86403e-09 -8.96139e-07 0)
(2.83882e-09 -8.9717e-07 0)
(2.81338e-09 -8.98203e-07 0)
(2.78771e-09 -8.99238e-07 0)
(2.76181e-09 -9.00275e-07 0)
(2.73569e-09 -9.01313e-07 0)
(2.70933e-09 -9.02353e-07 0)
(2.68275e-09 -9.03393e-07 0)
(2.65594e-09 -9.04435e-07 0)
(2.6289e-09 -9.05477e-07 0)
(2.60162e-09 -9.06519e-07 0)
(2.57411e-09 -9.07562e-07 0)
(2.54638e-09 -9.08605e-07 0)
(2.51841e-09 -9.09648e-07 0)
(2.4902e-09 -9.1069e-07 0)
(2.46177e-09 -9.11732e-07 0)
(2.4331e-09 -9.12773e-07 0)
(2.4042e-09 -9.13813e-07 0)
(2.37507e-09 -9.14852e-07 0)
(2.34571e-09 -9.15889e-07 0)
(2.31611e-09 -9.16924e-07 0)
(2.28628e-09 -9.17957e-07 0)
(2.25623e-09 -9.18988e-07 0)
(2.22594e-09 -9.20016e-07 0)
(2.19542e-09 -9.21042e-07 0)
(2.16467e-09 -9.22064e-07 0)
(2.13369e-09 -9.23082e-07 0)
(2.10249e-09 -9.24097e-07 0)
(2.07105e-09 -9.25107e-07 0)
(2.0394e-09 -9.26113e-07 0)
(2.00751e-09 -9.27114e-07 0)
(1.97541e-09 -9.28111e-07 0)
(1.94308e-09 -9.29101e-07 0)
(1.91053e-09 -9.30086e-07 0)
(1.87777e-09 -9.31065e-07 0)
(1.84478e-09 -9.32037e-07 0)
(1.81159e-09 -9.33002e-07 0)
(1.77818e-09 -9.3396e-07 0)
(1.74455e-09 -9.3491e-07 0)
(1.71072e-09 -9.35852e-07 0)
(1.67669e-09 -9.36786e-07 0)
(1.64245e-09 -9.37711e-07 0)
(1.60801e-09 -9.38626e-07 0)
(1.57337e-09 -9.39532e-07 0)
(1.53853e-09 -9.40427e-07 0)
(1.50351e-09 -9.41312e-07 0)
(1.46829e-09 -9.42186e-07 0)
(1.4329e-09 -9.43049e-07 0)
(1.39731e-09 -9.43899e-07 0)
(1.36156e-09 -9.44737e-07 0)
(1.32563e-09 -9.45562e-07 0)
(1.28953e-09 -9.46374e-07 0)
(1.25326e-09 -9.47172e-07 0)
(1.21683e-09 -9.47955e-07 0)
(1.18025e-09 -9.48724e-07 0)
(1.14352e-09 -9.49477e-07 0)
(1.10664e-09 -9.50214e-07 0)
(1.06962e-09 -9.50935e-07 0)
(1.03247e-09 -9.51638e-07 0)
(9.95185e-10 -9.52324e-07 0)
(9.57779e-10 -9.52992e-07 0)
(9.20254e-10 -9.53642e-07 0)
(8.82619e-10 -9.54272e-07 0)
(8.44879e-10 -9.54882e-07 0)
(8.07041e-10 -9.55472e-07 0)
(7.69112e-10 -9.56041e-07 0)
(7.31098e-10 -9.56588e-07 0)
(6.93008e-10 -9.57113e-07 0)
(6.54849e-10 -9.57616e-07 0)
(6.16628e-10 -9.58095e-07 0)
(5.78354e-10 -9.5855e-07 0)
(5.40035e-10 -9.5898e-07 0)
(5.01678e-10 -9.59386e-07 0)
(4.63294e-10 -9.59765e-07 0)
(4.24889e-10 -9.60118e-07 0)
(3.86474e-10 -9.60444e-07 0)
(3.48058e-10 -9.60742e-07 0)
(3.09651e-10 -9.61012e-07 0)
(2.71261e-10 -9.61253e-07 0)
(2.32899e-10 -9.61464e-07 0)
(1.94575e-10 -9.61645e-07 0)
(1.56299e-10 -9.61795e-07 0)
(1.18082e-10 -9.61913e-07 0)
(7.99348e-11 -9.62e-07 0)
(4.18679e-11 -9.62053e-07 0)
(3.89248e-12 -9.62073e-07 0)
(-3.398e-11 -9.62058e-07 0)
(-7.17381e-11 -9.62009e-07 0)
(-1.0937e-10 -9.61924e-07 0)
(-1.46864e-10 -9.61803e-07 0)
(-1.84208e-10 -9.61646e-07 0)
(-2.2139e-10 -9.61451e-07 0)
(-2.58397e-10 -9.61218e-07 0)
(-2.95217e-10 -9.60946e-07 0)
(-3.31838e-10 -9.60635e-07 0)
(-3.68246e-10 -9.60285e-07 0)
(-4.04428e-10 -9.59894e-07 0)
(-4.40372e-10 -9.59461e-07 0)
(-4.76065e-10 -9.58987e-07 0)
(-5.11492e-10 -9.58471e-07 0)
(-5.46642e-10 -9.57912e-07 0)
(-5.815e-10 -9.5731e-07 0)
(-6.16053e-10 -9.56663e-07 0)
(-6.50288e-10 -9.55972e-07 0)
(-6.8419e-10 -9.55236e-07 0)
(-7.17747e-10 -9.54455e-07 0)
(-7.50945e-10 -9.53627e-07 0)
(-7.8377e-10 -9.52753e-07 0)
(-8.16209e-10 -9.51832e-07 0)
(-8.48248e-10 -9.50863e-07 0)
(-8.79873e-10 -9.49847e-07 0)
(-9.11071e-10 -9.48782e-07 0)
(-9.41829e-10 -9.47668e-07 0)
(-9.72133e-10 -9.46505e-07 0)
(-1.00197e-09 -9.45293e-07 0)
(-1.03133e-09 -9.4403e-07 0)
(-1.06019e-09 -9.42718e-07 0)
(-1.08855e-09 -9.41355e-07 0)
(-1.11639e-09 -9.39941e-07 0)
(-1.1437e-09 -9.38476e-07 0)
(-1.17046e-09 -9.3696e-07 0)
(-1.19667e-09 -9.35392e-07 0)
(-1.22232e-09 -9.33772e-07 0)
(-1.24738e-09 -9.32101e-07 0)
(-1.27186e-09 -9.30377e-07 0)
(-1.29573e-09 -9.28602e-07 0)
(-1.31899e-09 -9.26774e-07 0)
(-1.34163e-09 -9.24894e-07 0)
(-1.36363e-09 -9.22961e-07 0)
(-1.385e-09 -9.20976e-07 0)
(-1.40571e-09 -9.18939e-07 0)
(-1.42576e-09 -9.1685e-07 0)
(-1.44514e-09 -9.14709e-07 0)
(-1.46385e-09 -9.12516e-07 0)
(-1.48186e-09 -9.10271e-07 0)
(-1.49919e-09 -9.07974e-07 0)
(-1.51582e-09 -9.05626e-07 0)
(-1.53174e-09 -9.03227e-07 0)
(-1.54695e-09 -9.00777e-07 0)
(-1.56144e-09 -8.98277e-07 0)
(-1.57522e-09 -8.95726e-07 0)
(-1.58826e-09 -8.93126e-07 0)
(-1.60058e-09 -8.90476e-07 0)
(-1.61216e-09 -8.87778e-07 0)
(-1.623e-09 -8.85031e-07 0)
(-1.63311e-09 -8.82237e-07 0)
(-1.64247e-09 -8.79395e-07 0)
(-1.65109e-09 -8.76506e-07 0)
(-1.65897e-09 -8.73572e-07 0)
(-1.66611e-09 -8.70592e-07 0)
(-1.67251e-09 -8.67567e-07 0)
(-1.67816e-09 -8.64499e-07 0)
(-1.68308e-09 -8.61388e-07 0)
(-1.68725e-09 -8.58234e-07 0)
(-1.69069e-09 -8.55039e-07 0)
(-1.6934e-09 -8.51803e-07 0)
(-1.69538e-09 -8.48527e-07 0)
(-1.69664e-09 -8.45213e-07 0)
(-1.69718e-09 -8.41861e-07 0)
(-1.69696e-09 -8.38471e-07 0)
(-1.69625e-09 -8.35045e-07 0)
(-1.69392e-09 -8.31559e-07 0)
(-1.69072e-09 -8.27701e-07 0)
(-1.68747e-09 -8.23456e-07 0)
(-1.68292e-09 -8.19154e-07 0)
(-1.67737e-09 -8.14874e-07 0)
(-1.67096e-09 -8.10627e-07 0)
(-1.66376e-09 -8.06401e-07 0)
(-1.65581e-09 -8.02191e-07 0)
(-1.64716e-09 -7.98e-07 0)
(-1.63784e-09 -7.93832e-07 0)
(-1.62788e-09 -7.89689e-07 0)
(-1.61734e-09 -7.85572e-07 0)
(-1.60623e-09 -7.81482e-07 0)
(-1.5946e-09 -7.77421e-07 0)
(-1.58247e-09 -7.73391e-07 0)
(-1.56987e-09 -7.69392e-07 0)
(-1.55684e-09 -7.65425e-07 0)
(-1.54339e-09 -7.61492e-07 0)
(-1.52956e-09 -7.57594e-07 0)
(-1.51536e-09 -7.53731e-07 0)
(-1.50082e-09 -7.49905e-07 0)
(-1.48596e-09 -7.46116e-07 0)
(-1.4708e-09 -7.42365e-07 0)
(-1.45536e-09 -7.38653e-07 0)
(-1.43964e-09 -7.34981e-07 0)
(-1.42368e-09 -7.31349e-07 0)
(-1.40748e-09 -7.27757e-07 0)
(-1.39107e-09 -7.24207e-07 0)
(-1.37444e-09 -7.20699e-07 0)
(-1.35762e-09 -7.17233e-07 0)
(-1.34061e-09 -7.13811e-07 0)
(-1.32343e-09 -7.10431e-07 0)
(-1.30608e-09 -7.07096e-07 0)
(-1.28858e-09 -7.03804e-07 0)
(-1.27092e-09 -7.00558e-07 0)
(-1.25313e-09 -6.97356e-07 0)
(-1.2352e-09 -6.94199e-07 0)
(-1.21714e-09 -6.91089e-07 0)
(-1.19896e-09 -6.88024e-07 0)
(-1.18066e-09 -6.85005e-07 0)
(-1.16225e-09 -6.82033e-07 0)
(-1.14373e-09 -6.79108e-07 0)
(-1.1251e-09 -6.7623e-07 0)
(-1.10637e-09 -6.73399e-07 0)
(-1.08753e-09 -6.70617e-07 0)
(-1.0686e-09 -6.67881e-07 0)
(-1.04957e-09 -6.65195e-07 0)
(-1.03045e-09 -6.62556e-07 0)
(-1.01123e-09 -6.59966e-07 0)
(-9.91926e-10 -6.57425e-07 0)
(-9.72527e-10 -6.54933e-07 0)
(-9.53037e-10 -6.52491e-07 0)
(-9.33458e-10 -6.50098e-07 0)
(-9.13789e-10 -6.47755e-07 0)
(-8.94032e-10 -6.45461e-07 0)
(-8.74187e-10 -6.43218e-07 0)
(-8.54253e-10 -6.41026e-07 0)
(-8.34231e-10 -6.38884e-07 0)
(-8.14122e-10 -6.36793e-07 0)
(-7.93924e-10 -6.34753e-07 0)
(-7.73639e-10 -6.32765e-07 0)
(-7.53267e-10 -6.30828e-07 0)
(-7.32807e-10 -6.28943e-07 0)
(-7.12261e-10 -6.2711e-07 0)
(-6.91627e-10 -6.25329e-07 0)
(-6.70908e-10 -6.236e-07 0)
(-6.50103e-10 -6.21925e-07 0)
(-6.29213e-10 -6.20302e-07 0)
(-6.08238e-10 -6.18732e-07 0)
(-5.8718e-10 -6.17216e-07 0)
(-5.6604e-10 -6.15753e-07 0)
(-5.44818e-10 -6.14344e-07 0)
(-5.23517e-10 -6.12988e-07 0)
(-5.02136e-10 -6.11687e-07 0)
(-4.80679e-10 -6.10441e-07 0)
(-4.59147e-10 -6.09248e-07 0)
(-4.37541e-10 -6.08111e-07 0)
(-4.15865e-10 -6.07028e-07 0)
(-3.94119e-10 -6.06001e-07 0)
(-3.72308e-10 -6.05029e-07 0)
(-3.50433e-10 -6.04112e-07 0)
(-3.28497e-10 -6.03251e-07 0)
(-3.06504e-10 -6.02445e-07 0)
(-2.84456e-10 -6.01695e-07 0)
(-2.62358e-10 -6.01002e-07 0)
(-2.40213e-10 -6.00363e-07 0)
(-2.18026e-10 -5.99786e-07 0)
(-1.95799e-10 -5.99248e-07 0)
(-1.73542e-10 -5.98821e-07 0)
(-1.51234e-10 -5.9827e-07 0)
(-1.28948e-10 -5.98368e-07 0)
(-1.0643e-10 -5.96516e-07 0)
(-8.45575e-11 -6.01126e-07 0)
(-6.03198e-11 -5.82955e-07 0)
(-4.48335e-11 -6.30696e-07 0)
(-2.15582e-11 -5.5078e-07 0)
)
;
    }
    bottomWall
    {
        type            calculated;
        value           nonuniform List<vector> 
449
(
(-46.5204 -0.879898 0)
(-20.1271 -0.221957 0)
(-14.2545 -0.0269333 0)
(-11.9383 -0.0146398 0)
(-10.5736 -0.0106566 0)
(-9.62755 -0.00804003 0)
(-8.88493 -0.00643988 0)
(-8.28397 -0.00521281 0)
(-7.79075 -0.00431859 0)
(-7.37627 -0.0036734 0)
(-7.02031 -0.00317917 0)
(-6.71008 -0.00278282 0)
(-6.43676 -0.00245981 0)
(-6.19364 -0.0021941 0)
(-5.97554 -0.00197273 0)
(-5.77841 -0.00178579 0)
(-5.59908 -0.00162613 0)
(-5.43504 -0.00148854 0)
(-5.28421 -0.00136901 0)
(-5.14492 -0.0012644 0)
(-5.01575 -0.00117223 0)
(-4.89554 -0.00109054 0)
(-4.7833 -0.00101772 0)
(-4.67816 -0.000952506 0)
(-4.57942 -0.000893823 0)
(-4.48645 -0.000840796 0)
(-4.3987 -0.000792694 0)
(-4.31571 -0.000748903 0)
(-4.23704 -0.000708903 0)
(-4.16234 -0.000672251 0)
(-4.09129 -0.000638571 0)
(-4.02359 -0.000607537 0)
(-3.95899 -0.000578868 0)
(-3.89725 -0.000552322 0)
(-3.83817 -0.000527684 0)
(-3.78156 -0.000504771 0)
(-3.72726 -0.000483418 0)
(-3.6751 -0.000463481 0)
(-3.62495 -0.000444834 0)
(-3.57669 -0.000427363 0)
(-3.53019 -0.000410967 0)
(-3.48536 -0.000395556 0)
(-3.44209 -0.000381051 0)
(-3.40029 -0.000367379 0)
(-3.35988 -0.000354474 0)
(-3.32079 -0.000342279 0)
(-3.28294 -0.00033074 0)
(-3.24626 -0.00031981 0)
(-3.21071 -0.000309444 0)
(-3.17622 -0.000299603 0)
(-3.14274 -0.00029025 0)
(-3.11022 -0.000281353 0)
(-3.07861 -0.000272882 0)
(-3.04787 -0.000264809 0)
(-3.01797 -0.000257107 0)
(-2.98886 -0.000249755 0)
(-2.96051 -0.00024273 0)
(-2.93289 -0.000236012 0)
(-2.90596 -0.000229584 0)
(-2.8797 -0.000223428 0)
(-2.85408 -0.000217528 0)
(-2.82908 -0.00021187 0)
(-2.80466 -0.00020644 0)
(-2.7808 -0.000201226 0)
(-2.7575 -0.000196217 0)
(-2.73471 -0.0001914 0)
(-2.71243 -0.000186767 0)
(-2.69063 -0.000182307 0)
(-2.6693 -0.000178011 0)
(-2.64842 -0.000173872 0)
(-2.62797 -0.000169882 0)
(-2.60795 -0.000166033 0)
(-2.58832 -0.000162318 0)
(-2.56909 -0.000158732 0)
(-2.55024 -0.000155267 0)
(-2.53176 -0.000151919 0)
(-2.51362 -0.000148682 0)
(-2.49583 -0.000145551 0)
(-2.47838 -0.000142522 0)
(-2.46124 -0.000139589 0)
(-2.44441 -0.000136748 0)
(-2.42789 -0.000133997 0)
(-2.41166 -0.00013133 0)
(-2.39571 -0.000128744 0)
(-2.38004 -0.000126236 0)
(-2.36464 -0.000123803 0)
(-2.34949 -0.000121442 0)
(-2.3346 -0.000119149 0)
(-2.31995 -0.000116923 0)
(-2.30555 -0.000114759 0)
(-2.29137 -0.000112657 0)
(-2.27742 -0.000110614 0)
(-2.26369 -0.000108626 0)
(-2.25017 -0.000106694 0)
(-2.23687 -0.000104813 0)
(-2.22376 -0.000102983 0)
(-2.21085 -0.000101201 0)
(-2.19814 -9.94656e-05 0)
(-2.18561 -9.77756e-05 0)
(-2.17326 -9.61291e-05 0)
(-2.1611 -9.45245e-05 0)
(-2.1491 -9.29604e-05 0)
(-2.13728 -9.14354e-05 0)
(-2.12563 -8.99481e-05 0)
(-2.11413 -8.84974e-05 0)
(-2.10279 -8.70819e-05 0)
(-2.09161 -8.57006e-05 0)
(-2.08058 -8.43522e-05 0)
(-2.06969 -8.30357e-05 0)
(-2.05895 -8.17502e-05 0)
(-2.04835 -8.04945e-05 0)
(-2.03789 -7.92678e-05 0)
(-2.02756 -7.80691e-05 0)
(-2.01737 -7.68976e-05 0)
(-2.0073 -7.57524e-05 0)
(-1.99736 -7.46328e-05 0)
(-1.98754 -7.35379e-05 0)
(-1.97784 -7.2467e-05 0)
(-1.96827 -7.14194e-05 0)
(-1.9588 -7.03944e-05 0)
(-1.94945 -6.93913e-05 0)
(-1.94021 -6.84096e-05 0)
(-1.93108 -6.74485e-05 0)
(-1.92206 -6.65076e-05 0)
(-1.91314 -6.55861e-05 0)
(-1.90432 -6.46836e-05 0)
(-1.89561 -6.37996e-05 0)
(-1.88699 -6.29335e-05 0)
(-1.87847 -6.20849e-05 0)
(-1.87004 -6.12532e-05 0)
(-1.86171 -6.04379e-05 0)
(-1.85347 -5.96388e-05 0)
(-1.84532 -5.88553e-05 0)
(-1.83725 -5.8087e-05 0)
(-1.82927 -5.73335e-05 0)
(-1.82138 -5.65944e-05 0)
(-1.81357 -5.58694e-05 0)
(-1.80584 -5.5158e-05 0)
(-1.79819 -5.446e-05 0)
(-1.79062 -5.3775e-05 0)
(-1.78313 -5.31027e-05 0)
(-1.77571 -5.24427e-05 0)
(-1.76837 -5.17947e-05 0)
(-1.7611 -5.11585e-05 0)
(-1.7539 -5.05338e-05 0)
(-1.74677 -4.99202e-05 0)
(-1.73972 -4.93176e-05 0)
(-1.73273 -4.87255e-05 0)
(-1.72581 -4.81439e-05 0)
(-1.71895 -4.75724e-05 0)
(-1.71216 -4.70109e-05 0)
(-1.70544 -4.6459e-05 0)
(-1.69878 -4.59165e-05 0)
(-1.69218 -4.53833e-05 0)
(-1.68564 -4.48591e-05 0)
(-1.67916 -4.43437e-05 0)
(-1.67274 -4.38369e-05 0)
(-1.66638 -4.33385e-05 0)
(-1.66008 -4.28484e-05 0)
(-1.65383 -4.23663e-05 0)
(-1.64764 -4.18921e-05 0)
(-1.6415 -4.14256e-05 0)
(-1.63541 -4.09666e-05 0)
(-1.62938 -4.0515e-05 0)
(-1.62341 -4.00706e-05 0)
(-1.61748 -3.96333e-05 0)
(-1.6116 -3.92029e-05 0)
(-1.60578 -3.87793e-05 0)
(-1.6 -3.83632e-05 0)
(-1.59427 -3.79503e-05 0)
(-1.58859 -3.75524e-05 0)
(-1.58296 -3.71589e-05 0)
(-1.57737 -3.66927e-05 0)
(-1.57215 -3.63529e-05 0)
(-1.56724 -3.61105e-05 0)
(-1.56232 -3.57426e-05 0)
(-1.55739 -3.53825e-05 0)
(-1.55246 -3.50447e-05 0)
(-1.54753 -3.47093e-05 0)
(-1.54258 -3.43757e-05 0)
(-1.53764 -3.40447e-05 0)
(-1.53268 -3.37159e-05 0)
(-1.52772 -3.33891e-05 0)
(-1.52276 -3.30643e-05 0)
(-1.51779 -3.27414e-05 0)
(-1.51282 -3.24204e-05 0)
(-1.50784 -3.21012e-05 0)
(-1.50286 -3.17838e-05 0)
(-1.49787 -3.14683e-05 0)
(-1.49288 -3.11547e-05 0)
(-1.48789 -3.08429e-05 0)
(-1.48289 -3.0533e-05 0)
(-1.47789 -3.0225e-05 0)
(-1.47288 -2.99188e-05 0)
(-1.46788 -2.96145e-05 0)
(-1.46286 -2.93122e-05 0)
(-1.45785 -2.90117e-05 0)
(-1.45284 -2.87132e-05 0)
(-1.44782 -2.84165e-05 0)
(-1.4428 -2.81218e-05 0)
(-1.43778 -2.7829e-05 0)
(-1.43275 -2.75382e-05 0)
(-1.42773 -2.72493e-05 0)
(-1.4227 -2.69624e-05 0)
(-1.41767 -2.66774e-05 0)
(-1.41265 -2.63944e-05 0)
(-1.40762 -2.61134e-05 0)
(-1.40259 -2.58343e-05 0)
(-1.39756 -2.55573e-05 0)
(-1.39253 -2.52822e-05 0)
(-1.3875 -2.50091e-05 0)
(-1.38247 -2.47379e-05 0)
(-1.37745 -2.44688e-05 0)
(-1.37242 -2.42017e-05 0)
(-1.36739 -2.39366e-05 0)
(-1.36237 -2.36734e-05 0)
(-1.35734 -2.34123e-05 0)
(-1.35232 -2.31532e-05 0)
(-1.3473 -2.2896e-05 0)
(-1.34228 -2.26409e-05 0)
(-1.33727 -2.23878e-05 0)
(-1.33225 -2.21367e-05 0)
(-1.32724 -2.18876e-05 0)
(-1.32223 -2.16405e-05 0)
(-1.31722 -2.13953e-05 0)
(-1.31222 -2.11522e-05 0)
(-1.30722 -2.09111e-05 0)
(-1.30222 -2.0672e-05 0)
(-1.29723 -2.04349e-05 0)
(-1.29224 -2.01998e-05 0)
(-1.28726 -1.99666e-05 0)
(-1.28227 -1.97355e-05 0)
(-1.2773 -1.95063e-05 0)
(-1.27232 -1.92791e-05 0)
(-1.26736 -1.90539e-05 0)
(-1.26239 -1.88307e-05 0)
(-1.25743 -1.86094e-05 0)
(-1.25248 -1.83901e-05 0)
(-1.24753 -1.81727e-05 0)
(-1.24259 -1.79573e-05 0)
(-1.23765 -1.77439e-05 0)
(-1.23272 -1.75324e-05 0)
(-1.2278 -1.73228e-05 0)
(-1.22288 -1.71152e-05 0)
(-1.21796 -1.69094e-05 0)
(-1.21306 -1.67056e-05 0)
(-1.20816 -1.65037e-05 0)
(-1.20326 -1.63037e-05 0)
(-1.19838 -1.61056e-05 0)
(-1.1935 -1.59094e-05 0)
(-1.18862 -1.57151e-05 0)
(-1.18376 -1.55226e-05 0)
(-1.1789 -1.53321e-05 0)
(-1.17405 -1.51433e-05 0)
(-1.16921 -1.49564e-05 0)
(-1.16437 -1.47714e-05 0)
(-1.15955 -1.45882e-05 0)
(-1.15473 -1.44068e-05 0)
(-1.14992 -1.42272e-05 0)
(-1.14512 -1.40495e-05 0)
(-1.14032 -1.38735e-05 0)
(-1.13554 -1.36993e-05 0)
(-1.13076 -1.35269e-05 0)
(-1.126 -1.33563e-05 0)
(-1.12124 -1.31874e-05 0)
(-1.11649 -1.30203e-05 0)
(-1.11175 -1.28549e-05 0)
(-1.10702 -1.26913e-05 0)
(-1.1023 -1.25293e-05 0)
(-1.09759 -1.23691e-05 0)
(-1.09289 -1.22106e-05 0)
(-1.0882 -1.20537e-05 0)
(-1.08352 -1.18985e-05 0)
(-1.07884 -1.1745e-05 0)
(-1.07418 -1.15932e-05 0)
(-1.06953 -1.1443e-05 0)
(-1.06489 -1.12944e-05 0)
(-1.06026 -1.11475e-05 0)
(-1.05564 -1.10021e-05 0)
(-1.05104 -1.08584e-05 0)
(-1.04644 -1.07162e-05 0)
(-1.04185 -1.05757e-05 0)
(-1.03728 -1.04367e-05 0)
(-1.03271 -1.02992e-05 0)
(-1.02816 -1.01633e-05 0)
(-1.02362 -1.00289e-05 0)
(-1.01909 -9.89608e-06 0)
(-1.01457 -9.76473e-06 0)
(-1.01006 -9.63488e-06 0)
(-1.00557 -9.50651e-06 0)
(-1.00108 -9.37962e-06 0)
(-0.996612 -9.25419e-06 0)
(-0.992152 -9.13021e-06 0)
(-0.987704 -9.00767e-06 0)
(-0.983268 -8.88655e-06 0)
(-0.978845 -8.76685e-06 0)
(-0.974433 -8.64855e-06 0)
(-0.970034 -8.53165e-06 0)
(-0.965647 -8.41612e-06 0)
(-0.961272 -8.30196e-06 0)
(-0.95691 -8.18915e-06 0)
(-0.952561 -8.07769e-06 0)
(-0.948224 -7.96756e-06 0)
(-0.9439 -7.85875e-06 0)
(-0.939588 -7.75125e-06 0)
(-0.93529 -7.64504e-06 0)
(-0.931004 -7.54012e-06 0)
(-0.926731 -7.43647e-06 0)
(-0.922471 -7.33408e-06 0)
(-0.918225 -7.23294e-06 0)
(-0.913991 -7.13303e-06 0)
(-0.909771 -7.03435e-06 0)
(-0.905563 -6.93689e-06 0)
(-0.901369 -6.84062e-06 0)
(-0.897188 -6.74554e-06 0)
(-0.893021 -6.65165e-06 0)
(-0.888867 -6.55891e-06 0)
(-0.884727 -6.46734e-06 0)
(-0.8806 -6.3769e-06 0)
(-0.876486 -6.2876e-06 0)
(-0.872386 -6.19941e-06 0)
(-0.8683 -6.11234e-06 0)
(-0.864227 -6.02636e-06 0)
(-0.860168 -5.94146e-06 0)
(-0.856123 -5.85764e-06 0)
(-0.852092 -5.77487e-06 0)
(-0.848074 -5.69316e-06 0)
(-0.84407 -5.61249e-06 0)
(-0.840081 -5.53284e-06 0)
(-0.836105 -5.45421e-06 0)
(-0.832143 -5.37658e-06 0)
(-0.828195 -5.29994e-06 0)
(-0.824261 -5.22429e-06 0)
(-0.820341 -5.14961e-06 0)
(-0.816436 -5.07588e-06 0)
(-0.812544 -5.0031e-06 0)
(-0.808667 -4.93126e-06 0)
(-0.804804 -4.86034e-06 0)
(-0.800955 -4.79033e-06 0)
(-0.79712 -4.72123e-06 0)
(-0.7933 -4.65302e-06 0)
(-0.789494 -4.58568e-06 0)
(-0.785703 -4.51922e-06 0)
(-0.781926 -4.45361e-06 0)
(-0.778163 -4.38885e-06 0)
(-0.774415 -4.32492e-06 0)
(-0.770682 -4.26181e-06 0)
(-0.766963 -4.1995e-06 0)
(-0.763259 -4.13794e-06 0)
(-0.759569 -4.07726e-06 0)
(-0.755894 -4.01725e-06 0)
(-0.752235 -3.95663e-06 0)
(-0.748592 -3.90072e-06 0)
(-0.744957 -3.84737e-06 0)
(-0.740933 -3.77868e-06 0)
(-0.736569 -3.70604e-06 0)
(-0.732286 -3.64267e-06 0)
(-0.728073 -3.58148e-06 0)
(-0.723933 -3.51984e-06 0)
(-0.719864 -3.45936e-06 0)
(-0.715866 -3.4004e-06 0)
(-0.711935 -3.34296e-06 0)
(-0.70807 -3.287e-06 0)
(-0.70427 -3.23248e-06 0)
(-0.700533 -3.17935e-06 0)
(-0.696857 -3.12757e-06 0)
(-0.693241 -3.07708e-06 0)
(-0.689683 -3.02785e-06 0)
(-0.686182 -2.97983e-06 0)
(-0.682736 -2.93297e-06 0)
(-0.679345 -2.88724e-06 0)
(-0.676006 -2.84259e-06 0)
(-0.672719 -2.79899e-06 0)
(-0.669482 -2.75641e-06 0)
(-0.666295 -2.7148e-06 0)
(-0.663155 -2.67415e-06 0)
(-0.660063 -2.6344e-06 0)
(-0.657017 -2.59555e-06 0)
(-0.654015 -2.55755e-06 0)
(-0.651057 -2.52039e-06 0)
(-0.648143 -2.48403e-06 0)
(-0.64527 -2.44845e-06 0)
(-0.642439 -2.41363e-06 0)
(-0.639648 -2.37954e-06 0)
(-0.636896 -2.34617e-06 0)
(-0.634183 -2.31348e-06 0)
(-0.631508 -2.28147e-06 0)
(-0.62887 -2.25011e-06 0)
(-0.626268 -2.21938e-06 0)
(-0.623702 -2.18926e-06 0)
(-0.62117 -2.15974e-06 0)
(-0.618673 -2.13081e-06 0)
(-0.616209 -2.10244e-06 0)
(-0.613778 -2.07461e-06 0)
(-0.61138 -2.04733e-06 0)
(-0.609013 -2.02056e-06 0)
(-0.606677 -1.9943e-06 0)
(-0.604371 -1.96853e-06 0)
(-0.602095 -1.94325e-06 0)
(-0.599849 -1.91843e-06 0)
(-0.597631 -1.89408e-06 0)
(-0.595441 -1.87016e-06 0)
(-0.59328 -1.84668e-06 0)
(-0.591145 -1.82363e-06 0)
(-0.589037 -1.80099e-06 0)
(-0.586955 -1.77875e-06 0)
(-0.584899 -1.75691e-06 0)
(-0.582869 -1.73545e-06 0)
(-0.580863 -1.71437e-06 0)
(-0.578882 -1.69365e-06 0)
(-0.576924 -1.6733e-06 0)
(-0.574991 -1.65329e-06 0)
(-0.57308 -1.63364e-06 0)
(-0.571192 -1.61431e-06 0)
(-0.569327 -1.59532e-06 0)
(-0.567484 -1.57666e-06 0)
(-0.565662 -1.55831e-06 0)
(-0.563861 -1.54027e-06 0)
(-0.562082 -1.52253e-06 0)
(-0.560323 -1.5051e-06 0)
(-0.558584 -1.48796e-06 0)
(-0.556865 -1.47111e-06 0)
(-0.555166 -1.45455e-06 0)
(-0.553485 -1.43828e-06 0)
(-0.551824 -1.42228e-06 0)
(-0.550181 -1.40657e-06 0)
(-0.548557 -1.39113e-06 0)
(-0.54695 -1.37597e-06 0)
(-0.545361 -1.36109e-06 0)
(-0.543789 -1.34649e-06 0)
(-0.542233 -1.33217e-06 0)
(-0.540695 -1.31815e-06 0)
(-0.539173 -1.30444e-06 0)
(-0.537666 -1.29104e-06 0)
(-0.536175 -1.27799e-06 0)
(-0.534699 -1.26532e-06 0)
(-0.533238 -1.25308e-06 0)
(-0.531791 -1.24132e-06 0)
(-0.530357 -1.23014e-06 0)
(-0.528936 -1.21997e-06 0)
(-0.527526 -1.2101e-06 0)
(-0.526129 -1.20144e-06 0)
(-0.524739 -1.20248e-06 0)
(-0.523341 -1.18651e-06 0)
(-0.521993 -1.13941e-06 0)
(-0.520687 -1.53518e-06 0)
(-0.518401 -5.72838e-07 0)
(-0.519758 -4.98817e-07 0)
(-0.51585 -2.67491e-06 0)
)
;
    }
    symmetry
    {
        type            symmetryPlane;
    }
    frontAndBack
    {
        type            empty;
    }
}


// ************************************************************************* //
