/*--------------------------------*- C++ -*----------------------------------*\
| =========                 |                                                 |
| \\      /  F ield         | OpenFOAM: The Open Source CFD Toolbox           |
|  \\    /   O peration     | Version:  v2012                                 |
|   \\  /    A nd           | Website:  www.openfoam.com                      |
|    \\/     M anipulation  |                                                 |
\*---------------------------------------------------------------------------*/
FoamFile
{
    version     2.0;
    format      ascii;
    class       volScalarField;
    location    "5";
    object      yPlus;
}
// * * * * * * * * * * * * * * * * * * * * * * * * * * * * * * * * * * * * * //

dimensions      [0 0 0 0 0 0 0];


internalField   uniform 0;

boundaryField
{
    inlet
    {
        type            calculated;
        value           uniform 0;
    }
    outlet
    {
        type            calculated;
        value           uniform 0;
    }
    topWall
    {
        type            calculated;
        value           nonuniform List<scalar> 
545
(
0.0451499
0.0778528
0.0998737
0.117392
0.132214
0.145176
0.156743
0.167213
0.176785
0.185604
0.193778
0.201391
0.20851
0.215189
0.221473
0.227399
0.233
0.238303
0.243332
0.248108
0.252649
0.256973
0.261094
0.265026
0.26878
0.272367
0.275798
0.279081
0.282225
0.285237
0.288125
0.290896
0.293555
0.296108
0.298561
0.300918
0.303185
0.305364
0.307462
0.30948
0.311424
0.313296
0.3151
0.316838
0.318514
0.32013
0.321689
0.323192
0.324643
0.326044
0.327397
0.328703
0.329964
0.331183
0.332361
0.333499
0.3346
0.335664
0.336693
0.337688
0.338651
0.339582
0.340483
0.341356
0.342201
0.343018
0.34381
0.344577
0.345319
0.346039
0.346736
0.347411
0.348057
0.348681
0.3493
0.349913
0.350521
0.351123
0.35172
0.352312
0.352898
0.353479
0.354055
0.354626
0.355192
0.355753
0.356309
0.35686
0.357406
0.357948
0.358484
0.359016
0.359544
0.360067
0.360585
0.361099
0.361561
0.361974
0.362387
0.3628
0.363212
0.363624
0.364035
0.364446
0.364856
0.365266
0.365675
0.366084
0.366493
0.366901
0.367309
0.367716
0.368123
0.368529
0.368935
0.36934
0.369745
0.370149
0.370553
0.370956
0.371359
0.371761
0.372163
0.372564
0.372965
0.373365
0.373765
0.374164
0.374563
0.374961
0.375358
0.375755
0.376151
0.376547
0.376942
0.377337
0.377731
0.378124
0.378517
0.37891
0.379301
0.379692
0.380083
0.380472
0.380862
0.38125
0.381638
0.382025
0.382412
0.382798
0.383183
0.383568
0.383952
0.384335
0.384717
0.385099
0.385481
0.385861
0.386241
0.38662
0.386998
0.387376
0.387753
0.388129
0.388505
0.388879
0.389253
0.389627
0.389999
0.390371
0.390742
0.391112
0.391481
0.39185
0.392217
0.392584
0.392951
0.393316
0.39368
0.394044
0.394407
0.394769
0.39513
0.395491
0.39585
0.396209
0.396567
0.396923
0.397279
0.397635
0.397989
0.398342
0.398695
0.399046
0.399397
0.399746
0.400095
0.400443
0.40079
0.401136
0.401481
0.401825
0.402168
0.40251
0.402851
0.403191
0.40353
0.403868
0.404205
0.404541
0.404876
0.40521
0.405543
0.405875
0.406206
0.406536
0.406865
0.407192
0.407519
0.407845
0.408169
0.408492
0.408815
0.409136
0.409456
0.409775
0.410093
0.410409
0.410725
0.411039
0.411353
0.411665
0.411976
0.412285
0.412594
0.412901
0.413208
0.413513
0.413816
0.414119
0.41442
0.41472
0.415019
0.415317
0.415613
0.415908
0.416202
0.416495
0.416786
0.417076
0.417365
0.417652
0.417939
0.418223
0.418507
0.418789
0.41907
0.41935
0.419628
0.419905
0.42018
0.420454
0.420727
0.420998
0.421268
0.421537
0.421804
0.42207
0.422334
0.422583
0.422816
0.423051
0.423286
0.423522
0.423759
0.423997
0.424235
0.424474
0.424714
0.424955
0.425196
0.425438
0.425681
0.425924
0.426167
0.426411
0.426656
0.426901
0.427146
0.427392
0.427638
0.427885
0.428131
0.428378
0.428625
0.428872
0.42912
0.429367
0.429614
0.429861
0.430108
0.430355
0.430602
0.430848
0.431094
0.43134
0.431585
0.431829
0.432073
0.432317
0.43256
0.432802
0.433043
0.433283
0.433522
0.433761
0.433998
0.434234
0.434469
0.434702
0.434934
0.435165
0.435394
0.435621
0.435847
0.43607
0.436292
0.436512
0.43673
0.436946
0.437159
0.43737
0.437578
0.437784
0.437988
0.438188
0.438386
0.438581
0.438772
0.438961
0.439146
0.439327
0.439506
0.43968
0.439851
0.440018
0.440181
0.440339
0.440494
0.440644
0.44079
0.440931
0.441067
0.441199
0.441325
0.441446
0.441562
0.441673
0.441778
0.441877
0.441971
0.442058
0.44214
0.442215
0.442284
0.442346
0.442402
0.44245
0.442492
0.442527
0.442554
0.442574
0.442587
0.442591
0.442588
0.442577
0.442558
0.44253
0.442494
0.44245
0.442396
0.442334
0.442262
0.442182
0.442092
0.441993
0.441884
0.441765
0.441636
0.441497
0.441349
0.441189
0.44102
0.440839
0.440648
0.440447
0.440234
0.44001
0.439775
0.439529
0.439271
0.439001
0.43872
0.438427
0.438123
0.437806
0.437477
0.437136
0.436783
0.436418
0.43604
0.43565
0.435247
0.434832
0.434404
0.433963
0.43351
0.433044
0.432565
0.432073
0.431568
0.431051
0.43052
0.429977
0.429421
0.428852
0.42827
0.427675
0.427068
0.426448
0.425815
0.425169
0.424511
0.423841
0.423158
0.422462
0.421755
0.421035
0.420303
0.419559
0.418804
0.418036
0.417258
0.416468
0.415666
0.414854
0.41403
0.413196
0.412352
0.411497
0.410535
0.409471
0.408407
0.407343
0.40628
0.405218
0.404159
0.403102
0.402048
0.400997
0.399951
0.398908
0.397871
0.396838
0.395811
0.394789
0.393774
0.392765
0.391762
0.390767
0.389778
0.388797
0.387824
0.386859
0.385902
0.384953
0.384013
0.383082
0.38216
0.381247
0.380343
0.37945
0.378565
0.377691
0.376827
0.375973
0.37513
0.374297
0.373476
0.372664
0.371865
0.371076
0.370298
0.369532
0.368778
0.368036
0.367305
0.366586
0.36588
0.365186
0.364504
0.363835
0.363179
0.362536
0.361905
0.361288
0.360684
0.360093
0.359516
0.358952
0.358403
0.357867
0.357345
0.356837
0.356344
0.355865
0.3554
0.35495
0.354515
0.354095
0.353689
0.353299
0.352924
0.352564
0.35222
0.351891
0.351577
0.35128
0.350998
0.350732
0.350482
0.350248
0.35003
0.349828
0.349642
0.349473
0.34932
0.349183
0.349063
0.34896
0.348872
0.348802
0.348747
0.348713
0.348681
)
;
    }
    bottomWall
    {
        type            calculated;
        value           nonuniform List<scalar> 
449
(
4.58185
3.01384
2.53621
2.321
2.18431
2.08431
2.00231
1.93341
1.87497
1.82441
1.77984
1.74007
1.70427
1.67177
1.64207
1.61476
1.58951
1.56605
1.54417
1.52368
1.50443
1.48629
1.46915
1.45292
1.4375
1.42284
1.40885
1.3955
1.38272
1.37048
1.35873
1.34744
1.33658
1.32612
1.31603
1.30629
1.29688
1.28777
1.27895
1.27041
1.26213
1.25409
1.24628
1.23869
1.2313
1.22412
1.21712
1.21031
1.20366
1.19718
1.19085
1.18467
1.17864
1.17274
1.16697
1.16133
1.15581
1.15041
1.14511
1.13993
1.13485
1.12986
1.12498
1.12018
1.11548
1.11086
1.10632
1.10187
1.09749
1.09319
1.08897
1.08481
1.08072
1.0767
1.07274
1.06884
1.06501
1.06123
1.05752
1.05385
1.05025
1.04669
1.04319
1.03973
1.03632
1.03297
1.02965
1.02638
1.02316
1.01998
1.01684
1.01374
1.01068
1.00765
1.00467
1.00172
0.998811
0.995935
0.993093
0.990284
0.987508
0.984765
0.982052
0.97937
0.976719
0.974096
0.971503
0.968937
0.966399
0.963889
0.961404
0.958946
0.956513
0.954105
0.951721
0.949362
0.947026
0.944712
0.942422
0.940154
0.937907
0.935682
0.933478
0.931295
0.929131
0.926988
0.924864
0.922759
0.920674
0.918606
0.916557
0.914526
0.912513
0.910517
0.908537
0.906575
0.904629
0.902699
0.900785
0.898887
0.897004
0.895137
0.893284
0.891446
0.889623
0.887814
0.886019
0.884237
0.88247
0.880716
0.878975
0.877247
0.875532
0.873829
0.872139
0.870462
0.868796
0.867143
0.865501
0.863871
0.862252
0.860645
0.859048
0.857463
0.855889
0.854325
0.852772
0.851229
0.849696
0.848174
0.846661
0.845158
0.843666
0.842268
0.840952
0.83963
0.838306
0.836978
0.835646
0.834311
0.832972
0.831629
0.830283
0.828933
0.82758
0.826223
0.824862
0.823498
0.822131
0.82076
0.819386
0.818009
0.816628
0.815244
0.813857
0.812467
0.811073
0.809677
0.808278
0.806875
0.80547
0.804061
0.80265
0.801236
0.799819
0.7984
0.796978
0.795553
0.794125
0.792695
0.791262
0.789827
0.78839
0.78695
0.785507
0.784063
0.782616
0.781166
0.779715
0.778261
0.776806
0.775348
0.773888
0.772426
0.770963
0.769497
0.76803
0.76656
0.765089
0.763617
0.762142
0.760666
0.759188
0.757709
0.756228
0.754746
0.753262
0.751777
0.750291
0.748803
0.747314
0.745823
0.744332
0.742839
0.741345
0.739851
0.738355
0.736858
0.73536
0.733861
0.732362
0.730862
0.72936
0.727858
0.726356
0.724853
0.723349
0.721844
0.720339
0.718834
0.717328
0.715821
0.714314
0.712807
0.711299
0.709792
0.708283
0.706775
0.705267
0.703758
0.702249
0.700741
0.699232
0.697723
0.696214
0.694706
0.693197
0.691689
0.69018
0.688672
0.687164
0.685657
0.68415
0.682643
0.681137
0.679631
0.678125
0.67662
0.675115
0.673611
0.672108
0.670605
0.669103
0.667601
0.6661
0.6646
0.663101
0.661602
0.660105
0.658608
0.657112
0.655617
0.654122
0.652629
0.651137
0.649646
0.648156
0.646667
0.645179
0.643692
0.642206
0.640722
0.639239
0.637757
0.636276
0.634796
0.633318
0.631841
0.630366
0.628892
0.627419
0.625948
0.624479
0.62301
0.621544
0.620079
0.618615
0.617153
0.615693
0.614234
0.612777
0.611322
0.609868
0.608416
0.606966
0.605518
0.604072
0.602627
0.601184
0.599743
0.598305
0.596868
0.595433
0.594
0.592569
0.59114
0.589714
0.588289
0.586867
0.585447
0.584029
0.582613
0.581201
0.579788
0.57822
0.576515
0.574836
0.57318
0.571548
0.56994
0.568355
0.566792
0.565251
0.563733
0.562235
0.560758
0.559301
0.557864
0.556446
0.555047
0.553667
0.552305
0.55096
0.549633
0.548323
0.54703
0.545753
0.544492
0.543247
0.542017
0.540803
0.539603
0.538418
0.537247
0.53609
0.534947
0.533818
0.532702
0.531598
0.530508
0.52943
0.528365
0.527312
0.526271
0.525242
0.524224
0.523217
0.522222
0.521238
0.520265
0.519302
0.51835
0.517408
0.516477
0.515555
0.514643
0.513741
0.512848
0.511965
0.511091
0.510227
0.509371
0.508524
0.507686
0.506856
0.506035
0.505222
0.504417
0.50362
0.502832
0.502051
0.501278
0.500512
0.499754
0.499004
0.49826
0.497524
0.496795
0.496073
0.495357
0.494649
0.493946
0.493251
0.492561
0.491878
0.4912
0.490528
0.489862
0.489202
0.488546
0.487894
0.487248
0.486604
0.485955
0.485329
0.484721
0.483656
0.484288
0.482464
)
;
    }
    symmetry
    {
        type            symmetryPlane;
    }
    frontAndBack
    {
        type            empty;
    }
}


// ************************************************************************* //
