/*--------------------------------*- C++ -*----------------------------------*\
| =========                 |                                                 |
| \\      /  F ield         | OpenFOAM: The Open Source CFD Toolbox           |
|  \\    /   O peration     | Version:  v2012                                 |
|   \\  /    A nd           | Website:  www.openfoam.com                      |
|    \\/     M anipulation  |                                                 |
\*---------------------------------------------------------------------------*/
FoamFile
{
    version     2.0;
    format      ascii;
    class       volVectorField;
    location    "4";
    object      wallShearStress;
}
// * * * * * * * * * * * * * * * * * * * * * * * * * * * * * * * * * * * * * //

dimensions      [0 2 -2 0 0 0 0];


internalField   uniform (0 0 0);

boundaryField
{
    inlet
    {
        type            calculated;
        value           uniform (0 0 0);
    }
    outlet
    {
        type            calculated;
        value           uniform (0 0 0);
    }
    topWall
    {
        type            calculated;
        value           nonuniform List<vector> 
545
(
(6.04326e-09 -4.22198e-09 0)
(6.06696e-09 -1.19521e-08 0)
(6.00032e-09 -1.98725e-08 0)
(5.97089e-09 -2.75375e-08 0)
(5.94926e-09 -3.4852e-08 0)
(5.92704e-09 -4.19121e-08 0)
(5.90266e-09 -4.87821e-08 0)
(5.87584e-09 -5.54609e-08 0)
(5.84671e-09 -6.19328e-08 0)
(5.81546e-09 -6.81963e-08 0)
(5.78232e-09 -7.42589e-08 0)
(5.74747e-09 -8.01279e-08 0)
(5.71112e-09 -8.58077e-08 0)
(5.67343e-09 -9.13019e-08 0)
(5.63456e-09 -9.66151e-08 0)
(5.59468e-09 -1.01752e-07 0)
(5.55392e-09 -1.06718e-07 0)
(5.51241e-09 -1.11517e-07 0)
(5.47029e-09 -1.16154e-07 0)
(5.42765e-09 -1.20634e-07 0)
(5.38461e-09 -1.24961e-07 0)
(5.34127e-09 -1.29141e-07 0)
(5.2977e-09 -1.33177e-07 0)
(5.25398e-09 -1.37075e-07 0)
(5.2102e-09 -1.40838e-07 0)
(5.16642e-09 -1.44472e-07 0)
(5.12269e-09 -1.4798e-07 0)
(5.07908e-09 -1.51366e-07 0)
(5.03562e-09 -1.54635e-07 0)
(4.99237e-09 -1.57791e-07 0)
(4.94936e-09 -1.60837e-07 0)
(4.90663e-09 -1.63777e-07 0)
(4.86421e-09 -1.66615e-07 0)
(4.82213e-09 -1.69354e-07 0)
(4.7804e-09 -1.71997e-07 0)
(4.73905e-09 -1.74549e-07 0)
(4.6981e-09 -1.77012e-07 0)
(4.65757e-09 -1.79389e-07 0)
(4.61745e-09 -1.81684e-07 0)
(4.57777e-09 -1.83899e-07 0)
(4.53852e-09 -1.86037e-07 0)
(4.49973e-09 -1.881e-07 0)
(4.46137e-09 -1.90093e-07 0)
(4.42347e-09 -1.92016e-07 0)
(4.38602e-09 -1.93872e-07 0)
(4.34902e-09 -1.95665e-07 0)
(4.31246e-09 -1.97395e-07 0)
(4.27634e-09 -1.99066e-07 0)
(4.24065e-09 -2.00679e-07 0)
(4.2054e-09 -2.02236e-07 0)
(4.17057e-09 -2.0374e-07 0)
(4.13615e-09 -2.05192e-07 0)
(4.10213e-09 -2.06594e-07 0)
(4.06851e-09 -2.07948e-07 0)
(4.03527e-09 -2.09255e-07 0)
(4.00241e-09 -2.10517e-07 0)
(3.96991e-09 -2.11737e-07 0)
(3.93775e-09 -2.12914e-07 0)
(3.90594e-09 -2.14051e-07 0)
(3.87444e-09 -2.15149e-07 0)
(3.84326e-09 -2.1621e-07 0)
(3.81237e-09 -2.17234e-07 0)
(3.78176e-09 -2.18224e-07 0)
(3.75142e-09 -2.19179e-07 0)
(3.72133e-09 -2.20102e-07 0)
(3.69148e-09 -2.20993e-07 0)
(3.66186e-09 -2.21854e-07 0)
(3.63242e-09 -2.22685e-07 0)
(3.60325e-09 -2.23489e-07 0)
(3.5739e-09 -2.24261e-07 0)
(3.54626e-09 -2.25026e-07 0)
(3.51218e-09 -2.2572e-07 0)
(3.48066e-09 -2.26403e-07 0)
(3.46045e-09 -2.27113e-07 0)
(3.44052e-09 -2.27754e-07 0)
(3.42066e-09 -2.28388e-07 0)
(3.40085e-09 -2.29031e-07 0)
(3.38107e-09 -2.29672e-07 0)
(3.36131e-09 -2.30304e-07 0)
(3.34159e-09 -2.30926e-07 0)
(3.3219e-09 -2.31542e-07 0)
(3.30224e-09 -2.32152e-07 0)
(3.28261e-09 -2.32756e-07 0)
(3.26302e-09 -2.33354e-07 0)
(3.24346e-09 -2.33945e-07 0)
(3.22393e-09 -2.3453e-07 0)
(3.20443e-09 -2.35109e-07 0)
(3.18497e-09 -2.35682e-07 0)
(3.16555e-09 -2.36248e-07 0)
(3.14615e-09 -2.36809e-07 0)
(3.12682e-09 -2.37364e-07 0)
(3.10737e-09 -2.3791e-07 0)
(3.08864e-09 -2.38465e-07 0)
(3.06702e-09 -2.38967e-07 0)
(3.05793e-09 -2.39644e-07 0)
(2.99611e-09 -2.39978e-07 0)
(2.91825e-09 -2.40313e-07 0)
(2.89804e-09 -2.41027e-07 0)
(2.88342e-09 -2.41403e-07 0)
(2.87003e-09 -2.41715e-07 0)
(2.85693e-09 -2.42103e-07 0)
(2.84386e-09 -2.42527e-07 0)
(2.83076e-09 -2.42941e-07 0)
(2.81762e-09 -2.4334e-07 0)
(2.80445e-09 -2.43736e-07 0)
(2.79124e-09 -2.44135e-07 0)
(2.77799e-09 -2.44534e-07 0)
(2.7647e-09 -2.44932e-07 0)
(2.75137e-09 -2.45328e-07 0)
(2.738e-09 -2.45723e-07 0)
(2.72459e-09 -2.46118e-07 0)
(2.71115e-09 -2.46511e-07 0)
(2.69766e-09 -2.46904e-07 0)
(2.68414e-09 -2.47295e-07 0)
(2.67057e-09 -2.47685e-07 0)
(2.65697e-09 -2.48074e-07 0)
(2.64333e-09 -2.48463e-07 0)
(2.62965e-09 -2.4885e-07 0)
(2.61594e-09 -2.49236e-07 0)
(2.60218e-09 -2.4962e-07 0)
(2.58839e-09 -2.50004e-07 0)
(2.57456e-09 -2.50387e-07 0)
(2.56069e-09 -2.50768e-07 0)
(2.54678e-09 -2.51148e-07 0)
(2.53284e-09 -2.51527e-07 0)
(2.51886e-09 -2.51905e-07 0)
(2.50484e-09 -2.52282e-07 0)
(2.49078e-09 -2.52657e-07 0)
(2.47669e-09 -2.53031e-07 0)
(2.46256e-09 -2.53404e-07 0)
(2.44839e-09 -2.53776e-07 0)
(2.43418e-09 -2.54146e-07 0)
(2.41994e-09 -2.54516e-07 0)
(2.40566e-09 -2.54883e-07 0)
(2.39135e-09 -2.5525e-07 0)
(2.377e-09 -2.55615e-07 0)
(2.36261e-09 -2.55979e-07 0)
(2.34818e-09 -2.56341e-07 0)
(2.33372e-09 -2.56702e-07 0)
(2.31923e-09 -2.57062e-07 0)
(2.3047e-09 -2.5742e-07 0)
(2.29013e-09 -2.57777e-07 0)
(2.27553e-09 -2.58133e-07 0)
(2.26089e-09 -2.58487e-07 0)
(2.24622e-09 -2.58839e-07 0)
(2.23151e-09 -2.5919e-07 0)
(2.21677e-09 -2.5954e-07 0)
(2.20199e-09 -2.59888e-07 0)
(2.18718e-09 -2.60234e-07 0)
(2.17233e-09 -2.60579e-07 0)
(2.15745e-09 -2.60923e-07 0)
(2.14254e-09 -2.61265e-07 0)
(2.12759e-09 -2.61605e-07 0)
(2.11261e-09 -2.61944e-07 0)
(2.0976e-09 -2.62281e-07 0)
(2.08255e-09 -2.62616e-07 0)
(2.06747e-09 -2.6295e-07 0)
(2.05236e-09 -2.63282e-07 0)
(2.03721e-09 -2.63613e-07 0)
(2.02203e-09 -2.63942e-07 0)
(2.00682e-09 -2.64269e-07 0)
(1.99158e-09 -2.64595e-07 0)
(1.97631e-09 -2.64918e-07 0)
(1.961e-09 -2.6524e-07 0)
(1.94567e-09 -2.65561e-07 0)
(1.9303e-09 -2.65879e-07 0)
(1.9149e-09 -2.66196e-07 0)
(1.89947e-09 -2.66511e-07 0)
(1.88401e-09 -2.66824e-07 0)
(1.86852e-09 -2.67135e-07 0)
(1.853e-09 -2.67445e-07 0)
(1.83745e-09 -2.67752e-07 0)
(1.82187e-09 -2.68058e-07 0)
(1.80627e-09 -2.68362e-07 0)
(1.79063e-09 -2.68664e-07 0)
(1.77497e-09 -2.68963e-07 0)
(1.75927e-09 -2.69261e-07 0)
(1.74355e-09 -2.69558e-07 0)
(1.7278e-09 -2.69852e-07 0)
(1.71202e-09 -2.70144e-07 0)
(1.69622e-09 -2.70434e-07 0)
(1.68039e-09 -2.70722e-07 0)
(1.66453e-09 -2.71008e-07 0)
(1.64865e-09 -2.71292e-07 0)
(1.63274e-09 -2.71574e-07 0)
(1.6168e-09 -2.71854e-07 0)
(1.60084e-09 -2.72132e-07 0)
(1.58485e-09 -2.72407e-07 0)
(1.56884e-09 -2.72681e-07 0)
(1.55281e-09 -2.72952e-07 0)
(1.53675e-09 -2.73221e-07 0)
(1.52066e-09 -2.73488e-07 0)
(1.50455e-09 -2.73753e-07 0)
(1.48842e-09 -2.74016e-07 0)
(1.47227e-09 -2.74276e-07 0)
(1.45609e-09 -2.74534e-07 0)
(1.43989e-09 -2.7479e-07 0)
(1.42367e-09 -2.75044e-07 0)
(1.40743e-09 -2.75295e-07 0)
(1.39117e-09 -2.75545e-07 0)
(1.37488e-09 -2.75791e-07 0)
(1.35858e-09 -2.76036e-07 0)
(1.34225e-09 -2.76278e-07 0)
(1.3259e-09 -2.76517e-07 0)
(1.30954e-09 -2.76755e-07 0)
(1.29316e-09 -2.7699e-07 0)
(1.27675e-09 -2.77222e-07 0)
(1.26033e-09 -2.77452e-07 0)
(1.24389e-09 -2.7768e-07 0)
(1.22744e-09 -2.77905e-07 0)
(1.21096e-09 -2.78128e-07 0)
(1.19447e-09 -2.78348e-07 0)
(1.17797e-09 -2.78565e-07 0)
(1.16144e-09 -2.78781e-07 0)
(1.14491e-09 -2.78993e-07 0)
(1.12835e-09 -2.79203e-07 0)
(1.11178e-09 -2.79411e-07 0)
(1.0952e-09 -2.79615e-07 0)
(1.07861e-09 -2.79818e-07 0)
(1.062e-09 -2.80017e-07 0)
(1.04537e-09 -2.80214e-07 0)
(1.02874e-09 -2.80409e-07 0)
(1.01209e-09 -2.806e-07 0)
(9.95433e-10 -2.80789e-07 0)
(9.78762e-10 -2.80975e-07 0)
(9.62081e-10 -2.81159e-07 0)
(9.4539e-10 -2.8134e-07 0)
(9.28688e-10 -2.81518e-07 0)
(9.11978e-10 -2.81693e-07 0)
(8.95258e-10 -2.81866e-07 0)
(8.7853e-10 -2.82035e-07 0)
(8.61793e-10 -2.82202e-07 0)
(8.45049e-10 -2.82366e-07 0)
(8.28299e-10 -2.82527e-07 0)
(8.11541e-10 -2.82686e-07 0)
(7.94778e-10 -2.82841e-07 0)
(7.78009e-10 -2.82994e-07 0)
(7.61234e-10 -2.83143e-07 0)
(7.44456e-10 -2.8329e-07 0)
(7.27673e-10 -2.83434e-07 0)
(7.10886e-10 -2.83575e-07 0)
(6.94097e-10 -2.83713e-07 0)
(6.77305e-10 -2.83848e-07 0)
(6.6051e-10 -2.8398e-07 0)
(6.43715e-10 -2.84108e-07 0)
(6.26918e-10 -2.84234e-07 0)
(6.10121e-10 -2.84357e-07 0)
(5.93324e-10 -2.84477e-07 0)
(5.76528e-10 -2.84593e-07 0)
(5.59732e-10 -2.84707e-07 0)
(5.42939e-10 -2.84817e-07 0)
(5.26148e-10 -2.84925e-07 0)
(5.09359e-10 -2.85029e-07 0)
(4.92574e-10 -2.8513e-07 0)
(4.75793e-10 -2.85228e-07 0)
(4.59016e-10 -2.85323e-07 0)
(4.42244e-10 -2.85414e-07 0)
(4.25478e-10 -2.85502e-07 0)
(4.08718e-10 -2.85587e-07 0)
(3.91965e-10 -2.85669e-07 0)
(3.75219e-10 -2.85748e-07 0)
(3.58482e-10 -2.85823e-07 0)
(3.41749e-10 -2.85895e-07 0)
(3.25046e-10 -2.85965e-07 0)
(3.08262e-10 -2.86027e-07 0)
(2.91872e-10 -2.86101e-07 0)
(2.7388e-10 -2.86128e-07 0)
(2.62782e-10 -2.86328e-07 0)
(2.22816e-10 -2.8619e-07 0)
(1.72379e-10 -2.86098e-07 0)
(1.54405e-10 -2.86425e-07 0)
(1.42481e-10 -2.86436e-07 0)
(1.31747e-10 -2.86375e-07 0)
(1.21195e-10 -2.86378e-07 0)
(1.10546e-10 -2.86418e-07 0)
(9.97413e-11 -2.86451e-07 0)
(8.87705e-11 -2.86469e-07 0)
(7.76324e-11 -2.86481e-07 0)
(6.63269e-11 -2.86495e-07 0)
(5.4854e-11 -2.86508e-07 0)
(4.32145e-11 -2.86518e-07 0)
(3.14093e-11 -2.86526e-07 0)
(1.94394e-11 -2.86531e-07 0)
(7.30572e-12 -2.86533e-07 0)
(-4.99084e-12 -2.86533e-07 0)
(-1.74493e-11 -2.8653e-07 0)
(-3.00686e-11 -2.86525e-07 0)
(-4.28478e-11 -2.86516e-07 0)
(-5.57858e-11 -2.86504e-07 0)
(-6.88814e-11 -2.8649e-07 0)
(-8.21335e-11 -2.86472e-07 0)
(-9.55409e-11 -2.8645e-07 0)
(-1.09102e-10 -2.86425e-07 0)
(-1.22817e-10 -2.86397e-07 0)
(-1.36682e-10 -2.86365e-07 0)
(-1.50698e-10 -2.86329e-07 0)
(-1.64862e-10 -2.8629e-07 0)
(-1.79173e-10 -2.86246e-07 0)
(-1.9363e-10 -2.86198e-07 0)
(-2.0823e-10 -2.86146e-07 0)
(-2.22973e-10 -2.86089e-07 0)
(-2.37856e-10 -2.86028e-07 0)
(-2.52878e-10 -2.85963e-07 0)
(-2.68036e-10 -2.85892e-07 0)
(-2.8333e-10 -2.85817e-07 0)
(-2.98756e-10 -2.85737e-07 0)
(-3.14313e-10 -2.85651e-07 0)
(-3.29998e-10 -2.85561e-07 0)
(-3.4581e-10 -2.85464e-07 0)
(-3.61745e-10 -2.85363e-07 0)
(-3.77803e-10 -2.85255e-07 0)
(-3.93979e-10 -2.85141e-07 0)
(-4.10272e-10 -2.85022e-07 0)
(-4.26679e-10 -2.84896e-07 0)
(-4.43198e-10 -2.84764e-07 0)
(-4.59824e-10 -2.84626e-07 0)
(-4.76557e-10 -2.84481e-07 0)
(-4.93392e-10 -2.84329e-07 0)
(-5.10326e-10 -2.8417e-07 0)
(-5.27356e-10 -2.84003e-07 0)
(-5.4448e-10 -2.8383e-07 0)
(-5.61693e-10 -2.83649e-07 0)
(-5.78993e-10 -2.8346e-07 0)
(-5.96375e-10 -2.83264e-07 0)
(-6.13836e-10 -2.8306e-07 0)
(-6.31372e-10 -2.82847e-07 0)
(-6.48979e-10 -2.82626e-07 0)
(-6.66654e-10 -2.82397e-07 0)
(-6.84391e-10 -2.82158e-07 0)
(-7.02188e-10 -2.81911e-07 0)
(-7.20039e-10 -2.81655e-07 0)
(-7.3794e-10 -2.81389e-07 0)
(-7.55887e-10 -2.81114e-07 0)
(-7.73875e-10 -2.8083e-07 0)
(-7.91899e-10 -2.80535e-07 0)
(-8.09954e-10 -2.80231e-07 0)
(-8.28035e-10 -2.79916e-07 0)
(-8.46137e-10 -2.79591e-07 0)
(-8.64255e-10 -2.79255e-07 0)
(-8.82384e-10 -2.78908e-07 0)
(-9.00517e-10 -2.78551e-07 0)
(-9.18649e-10 -2.78182e-07 0)
(-9.36775e-10 -2.77802e-07 0)
(-9.54889e-10 -2.7741e-07 0)
(-9.72984e-10 -2.77006e-07 0)
(-9.91054e-10 -2.7659e-07 0)
(-1.00909e-09 -2.76162e-07 0)
(-1.0271e-09 -2.75721e-07 0)
(-1.04506e-09 -2.75268e-07 0)
(-1.06296e-09 -2.74802e-07 0)
(-1.08082e-09 -2.74323e-07 0)
(-1.0986e-09 -2.73831e-07 0)
(-1.11632e-09 -2.73325e-07 0)
(-1.13396e-09 -2.72806e-07 0)
(-1.15151e-09 -2.72273e-07 0)
(-1.16898e-09 -2.71726e-07 0)
(-1.18634e-09 -2.71164e-07 0)
(-1.20359e-09 -2.70589e-07 0)
(-1.22073e-09 -2.69998e-07 0)
(-1.23775e-09 -2.69393e-07 0)
(-1.25464e-09 -2.68773e-07 0)
(-1.27139e-09 -2.68137e-07 0)
(-1.28799e-09 -2.67486e-07 0)
(-1.30444e-09 -2.6682e-07 0)
(-1.32073e-09 -2.66138e-07 0)
(-1.33684e-09 -2.6544e-07 0)
(-1.35278e-09 -2.64726e-07 0)
(-1.36853e-09 -2.63995e-07 0)
(-1.38408e-09 -2.63248e-07 0)
(-1.39943e-09 -2.62485e-07 0)
(-1.41456e-09 -2.61705e-07 0)
(-1.42948e-09 -2.60908e-07 0)
(-1.44416e-09 -2.60094e-07 0)
(-1.45861e-09 -2.59263e-07 0)
(-1.4728e-09 -2.58415e-07 0)
(-1.48675e-09 -2.57549e-07 0)
(-1.50042e-09 -2.56665e-07 0)
(-1.51383e-09 -2.55764e-07 0)
(-1.52695e-09 -2.54845e-07 0)
(-1.53978e-09 -2.53908e-07 0)
(-1.55231e-09 -2.52953e-07 0)
(-1.56453e-09 -2.51981e-07 0)
(-1.57644e-09 -2.50989e-07 0)
(-1.58802e-09 -2.4998e-07 0)
(-1.59927e-09 -2.48952e-07 0)
(-1.61018e-09 -2.47906e-07 0)
(-1.62073e-09 -2.46842e-07 0)
(-1.63093e-09 -2.45759e-07 0)
(-1.64076e-09 -2.44658e-07 0)
(-1.65022e-09 -2.43538e-07 0)
(-1.65929e-09 -2.42399e-07 0)
(-1.66798e-09 -2.41242e-07 0)
(-1.67627e-09 -2.40067e-07 0)
(-1.68415e-09 -2.38873e-07 0)
(-1.69163e-09 -2.37661e-07 0)
(-1.69868e-09 -2.3643e-07 0)
(-1.70531e-09 -2.3518e-07 0)
(-1.71151e-09 -2.33913e-07 0)
(-1.71727e-09 -2.32627e-07 0)
(-1.72258e-09 -2.31323e-07 0)
(-1.72745e-09 -2.30001e-07 0)
(-1.73186e-09 -2.28661e-07 0)
(-1.73581e-09 -2.27303e-07 0)
(-1.73929e-09 -2.25928e-07 0)
(-1.74231e-09 -2.24535e-07 0)
(-1.74485e-09 -2.23124e-07 0)
(-1.74691e-09 -2.21697e-07 0)
(-1.74848e-09 -2.20252e-07 0)
(-1.74958e-09 -2.18791e-07 0)
(-1.75018e-09 -2.17313e-07 0)
(-1.7503e-09 -2.15819e-07 0)
(-1.74991e-09 -2.14308e-07 0)
(-1.74904e-09 -2.12782e-07 0)
(-1.74766e-09 -2.1124e-07 0)
(-1.74579e-09 -2.09683e-07 0)
(-1.74342e-09 -2.08111e-07 0)
(-1.74055e-09 -2.06524e-07 0)
(-1.73718e-09 -2.04923e-07 0)
(-1.73331e-09 -2.03308e-07 0)
(-1.72894e-09 -2.01679e-07 0)
(-1.72408e-09 -2.00037e-07 0)
(-1.71872e-09 -1.98382e-07 0)
(-1.71287e-09 -1.96715e-07 0)
(-1.70653e-09 -1.95035e-07 0)
(-1.6997e-09 -1.93344e-07 0)
(-1.69239e-09 -1.91641e-07 0)
(-1.68459e-09 -1.89928e-07 0)
(-1.67633e-09 -1.88204e-07 0)
(-1.66759e-09 -1.8647e-07 0)
(-1.6584e-09 -1.84727e-07 0)
(-1.64874e-09 -1.82975e-07 0)
(-1.63863e-09 -1.81215e-07 0)
(-1.62808e-09 -1.79446e-07 0)
(-1.61709e-09 -1.7767e-07 0)
(-1.60567e-09 -1.75888e-07 0)
(-1.59382e-09 -1.74099e-07 0)
(-1.58157e-09 -1.72304e-07 0)
(-1.56891e-09 -1.70504e-07 0)
(-1.55585e-09 -1.68699e-07 0)
(-1.54241e-09 -1.6689e-07 0)
(-1.52859e-09 -1.65078e-07 0)
(-1.5144e-09 -1.63262e-07 0)
(-1.49986e-09 -1.61445e-07 0)
(-1.48497e-09 -1.59625e-07 0)
(-1.46975e-09 -1.57804e-07 0)
(-1.4542e-09 -1.55985e-07 0)
(-1.43836e-09 -1.54153e-07 0)
(-1.42209e-09 -1.52361e-07 0)
(-1.40609e-09 -1.50404e-07 0)
(-1.38739e-09 -1.48759e-07 0)
(-1.36301e-09 -1.46858e-07 0)
(-1.3385e-09 -1.44411e-07 0)
(-1.31684e-09 -1.42296e-07 0)
(-1.29591e-09 -1.40255e-07 0)
(-1.27515e-09 -1.38188e-07 0)
(-1.25445e-09 -1.36126e-07 0)
(-1.23379e-09 -1.34104e-07 0)
(-1.21317e-09 -1.32126e-07 0)
(-1.19263e-09 -1.30184e-07 0)
(-1.17218e-09 -1.28272e-07 0)
(-1.15184e-09 -1.26392e-07 0)
(-1.13161e-09 -1.24545e-07 0)
(-1.11151e-09 -1.22731e-07 0)
(-1.09156e-09 -1.20949e-07 0)
(-1.07177e-09 -1.192e-07 0)
(-1.05214e-09 -1.17482e-07 0)
(-1.03269e-09 -1.15796e-07 0)
(-1.01342e-09 -1.14142e-07 0)
(-9.94337e-10 -1.12518e-07 0)
(-9.75452e-10 -1.10925e-07 0)
(-9.56767e-10 -1.09363e-07 0)
(-9.38287e-10 -1.0783e-07 0)
(-9.20017e-10 -1.06328e-07 0)
(-9.01958e-10 -1.04854e-07 0)
(-8.84114e-10 -1.0341e-07 0)
(-8.66487e-10 -1.01995e-07 0)
(-8.49077e-10 -1.00607e-07 0)
(-8.31886e-10 -9.92482e-08 0)
(-8.14914e-10 -9.79166e-08 0)
(-7.98161e-10 -9.66123e-08 0)
(-7.81625e-10 -9.53349e-08 0)
(-7.65307e-10 -9.4084e-08 0)
(-7.49206e-10 -9.28594e-08 0)
(-7.33318e-10 -9.16607e-08 0)
(-7.17643e-10 -9.04875e-08 0)
(-7.02179e-10 -8.93394e-08 0)
(-6.86922e-10 -8.82162e-08 0)
(-6.71871e-10 -8.71176e-08 0)
(-6.57023e-10 -8.60431e-08 0)
(-6.42374e-10 -8.49924e-08 0)
(-6.27921e-10 -8.39653e-08 0)
(-6.13661e-10 -8.29614e-08 0)
(-5.99591e-10 -8.19804e-08 0)
(-5.85706e-10 -8.10221e-08 0)
(-5.72004e-10 -8.0086e-08 0)
(-5.5848e-10 -7.91719e-08 0)
(-5.4513e-10 -7.82796e-08 0)
(-5.31952e-10 -7.74087e-08 0)
(-5.18939e-10 -7.6559e-08 0)
(-5.06089e-10 -7.57302e-08 0)
(-4.93398e-10 -7.49221e-08 0)
(-4.8086e-10 -7.41343e-08 0)
(-4.68473e-10 -7.33667e-08 0)
(-4.56232e-10 -7.26191e-08 0)
(-4.44133e-10 -7.18911e-08 0)
(-4.32171e-10 -7.11825e-08 0)
(-4.20342e-10 -7.04932e-08 0)
(-4.08643e-10 -6.98229e-08 0)
(-3.97068e-10 -6.91714e-08 0)
(-3.85615e-10 -6.85386e-08 0)
(-3.74278e-10 -6.79241e-08 0)
(-3.63054e-10 -6.73279e-08 0)
(-3.51938e-10 -6.67498e-08 0)
(-3.40927e-10 -6.61895e-08 0)
(-3.30016e-10 -6.5647e-08 0)
(-3.19203e-10 -6.51221e-08 0)
(-3.08481e-10 -6.46145e-08 0)
(-2.97849e-10 -6.41242e-08 0)
(-2.87302e-10 -6.3651e-08 0)
(-2.76837e-10 -6.31949e-08 0)
(-2.66449e-10 -6.27556e-08 0)
(-2.56136e-10 -6.2333e-08 0)
(-2.45894e-10 -6.19271e-08 0)
(-2.35719e-10 -6.15376e-08 0)
(-2.25609e-10 -6.11646e-08 0)
(-2.1556e-10 -6.08079e-08 0)
(-2.05569e-10 -6.04674e-08 0)
(-1.95634e-10 -6.0143e-08 0)
(-1.85752e-10 -5.98346e-08 0)
(-1.75921e-10 -5.95422e-08 0)
(-1.66139e-10 -5.92657e-08 0)
(-1.56403e-10 -5.9005e-08 0)
(-1.46711e-10 -5.87599e-08 0)
(-1.37059e-10 -5.85305e-08 0)
(-1.27444e-10 -5.83166e-08 0)
(-1.1786e-10 -5.81186e-08 0)
(-1.08295e-10 -5.79345e-08 0)
(-9.87389e-11 -5.77709e-08 0)
(-8.91569e-11 -5.76056e-08 0)
(-7.95963e-11 -5.75121e-08 0)
(-6.97924e-11 -5.72432e-08 0)
(-6.07946e-11 -5.76e-08 0)
(-4.86857e-11 -5.57937e-08 0)
(-4.97316e-11 -6.02933e-08 0)
(-2.94692e-11 -5.259e-08 0)
)
;
    }
    bottomWall
    {
        type            calculated;
        value           nonuniform List<vector> 
449
(
(-48.7519 -0.967088 0)
(-19.8759 -0.00516082 0)
(-14.546 -0.00110318 0)
(-12.3932 -0.000495309 0)
(-11.1952 -0.000290828 0)
(-10.43 -0.00019232 0)
(-9.89826 -0.00013681 0)
(-9.50697 -0.000102466 0)
(-9.20603 -7.98447e-05 0)
(-8.9667 -6.40758e-05 0)
(-8.77178 -5.25133e-05 0)
(-8.61028 -4.37096e-05 0)
(-8.47469 -3.68389e-05 0)
(-8.35954 -3.13837e-05 0)
(-8.26079 -2.69899e-05 0)
(-8.17533 -2.34047e-05 0)
(-8.10082 -2.0445e-05 0)
(-8.0354 -1.79762e-05 0)
(-7.9776 -1.5898e-05 0)
(-7.92626 -1.41342e-05 0)
(-7.88043 -1.2626e-05 0)
(-7.83933 -1.13277e-05 0)
(-7.80232 -1.02031e-05 0)
(-7.76887 -9.22351e-06 0)
(-7.73853 -8.36593e-06 0)
(-7.71092 -7.61158e-06 0)
(-7.68572 -6.94514e-06 0)
(-7.66265 -6.35398e-06 0)
(-7.64149 -5.82764e-06 0)
(-7.62203 -5.35737e-06 0)
(-7.60408 -4.93583e-06 0)
(-7.58751 -4.5568e-06 0)
(-7.57216 -4.21504e-06 0)
(-7.55793 -3.90605e-06 0)
(-7.54471 -3.62597e-06 0)
(-7.5324 -3.37149e-06 0)
(-7.52093 -3.13976e-06 0)
(-7.51022 -2.92828e-06 0)
(-7.50021 -2.7349e-06 0)
(-7.49083 -2.55772e-06 0)
(-7.48205 -2.39509e-06 0)
(-7.4738 -2.24555e-06 0)
(-7.46605 -2.10783e-06 0)
(-7.45875 -1.98078e-06 0)
(-7.45188 -1.8634e-06 0)
(-7.4454 -1.7548e-06 0)
(-7.43929 -1.65419e-06 0)
(-7.43351 -1.56084e-06 0)
(-7.42805 -1.47413e-06 0)
(-7.42288 -1.39348e-06 0)
(-7.41798 -1.31838e-06 0)
(-7.41333 -1.24838e-06 0)
(-7.40892 -1.18304e-06 0)
(-7.40473 -1.12201e-06 0)
(-7.40075 -1.06493e-06 0)
(-7.39697 -1.0115e-06 0)
(-7.39336 -9.61431e-07 0)
(-7.38993 -9.14479e-07 0)
(-7.38665 -8.70407e-07 0)
(-7.38353 -8.29002e-07 0)
(-7.38055 -7.90072e-07 0)
(-7.3777 -7.53438e-07 0)
(-7.37498 -7.18939e-07 0)
(-7.37237 -6.86427e-07 0)
(-7.36988 -6.55763e-07 0)
(-7.3675 -6.26823e-07 0)
(-7.36521 -5.99491e-07 0)
(-7.36302 -5.73659e-07 0)
(-7.36092 -5.49231e-07 0)
(-7.35891 -5.26113e-07 0)
(-7.35697 -5.04222e-07 0)
(-7.35511 -4.83481e-07 0)
(-7.35333 -4.63817e-07 0)
(-7.35161 -4.45165e-07 0)
(-7.34996 -4.27462e-07 0)
(-7.34837 -4.10653e-07 0)
(-7.34683 -3.94681e-07 0)
(-7.34536 -3.795e-07 0)
(-7.34394 -3.65062e-07 0)
(-7.34257 -3.51325e-07 0)
(-7.34124 -3.38246e-07 0)
(-7.33997 -3.2579e-07 0)
(-7.33874 -3.13921e-07 0)
(-7.33755 -3.02606e-07 0)
(-7.3364 -2.91814e-07 0)
(-7.33529 -2.81517e-07 0)
(-7.33421 -2.71688e-07 0)
(-7.33317 -2.62302e-07 0)
(-7.33217 -2.53335e-07 0)
(-7.33119 -2.44766e-07 0)
(-7.33025 -2.36572e-07 0)
(-7.32934 -2.28735e-07 0)
(-7.32845 -2.21237e-07 0)
(-7.32759 -2.1406e-07 0)
(-7.32676 -2.07188e-07 0)
(-7.32595 -2.00607e-07 0)
(-7.32517 -1.94301e-07 0)
(-7.32441 -1.88257e-07 0)
(-7.32367 -1.82463e-07 0)
(-7.32295 -1.76904e-07 0)
(-7.32225 -1.71571e-07 0)
(-7.32157 -1.66451e-07 0)
(-7.32091 -1.61536e-07 0)
(-7.32027 -1.56816e-07 0)
(-7.31964 -1.52281e-07 0)
(-7.31903 -1.47923e-07 0)
(-7.31844 -1.43734e-07 0)
(-7.31786 -1.39707e-07 0)
(-7.3173 -1.35833e-07 0)
(-7.31675 -1.32107e-07 0)
(-7.31622 -1.28521e-07 0)
(-7.3157 -1.25069e-07 0)
(-7.31519 -1.21746e-07 0)
(-7.31469 -1.18545e-07 0)
(-7.31421 -1.15462e-07 0)
(-7.31373 -1.1249e-07 0)
(-7.31327 -1.09626e-07 0)
(-7.31282 -1.06864e-07 0)
(-7.31238 -1.04201e-07 0)
(-7.31194 -1.01631e-07 0)
(-7.31152 -9.91515e-08 0)
(-7.31111 -9.67586e-08 0)
(-7.31071 -9.44482e-08 0)
(-7.31031 -9.22181e-08 0)
(-7.30992 -9.0064e-08 0)
(-7.30954 -8.79837e-08 0)
(-7.30917 -8.59734e-08 0)
(-7.30881 -8.40309e-08 0)
(-7.30845 -8.21528e-08 0)
(-7.3081 -8.0337e-08 0)
(-7.30776 -7.85805e-08 0)
(-7.30742 -7.68816e-08 0)
(-7.30709 -7.52374e-08 0)
(-7.30677 -7.36465e-08 0)
(-7.30645 -7.21061e-08 0)
(-7.30614 -7.06149e-08 0)
(-7.30583 -6.91704e-08 0)
(-7.30553 -6.77714e-08 0)
(-7.30524 -6.64156e-08 0)
(-7.30495 -6.51021e-08 0)
(-7.30466 -6.38284e-08 0)
(-7.30438 -6.25939e-08 0)
(-7.30411 -6.13965e-08 0)
(-7.30383 -6.02353e-08 0)
(-7.30357 -5.91087e-08 0)
(-7.30331 -5.80153e-08 0)
(-7.30305 -5.69539e-08 0)
(-7.30279 -5.59229e-08 0)
(-7.30254 -5.49214e-08 0)
(-7.30229 -5.39478e-08 0)
(-7.30205 -5.30015e-08 0)
(-7.30181 -5.2081e-08 0)
(-7.30158 -5.11854e-08 0)
(-7.30134 -5.03135e-08 0)
(-7.30111 -4.9464e-08 0)
(-7.30089 -4.86354e-08 0)
(-7.30067 -4.78263e-08 0)
(-7.30045 -4.70349e-08 0)
(-7.30023 -4.62592e-08 0)
(-7.30002 -4.54966e-08 0)
(-7.2998 -4.47439e-08 0)
(-7.2996 -4.39964e-08 0)
(-7.29939 -4.32474e-08 0)
(-7.29919 -4.24875e-08 0)
(-7.29899 -4.16997e-08 0)
(-7.2988 -4.08619e-08 0)
(-7.2986 -3.99155e-08 0)
(-7.29842 -3.88198e-08 0)
(-7.29823 -3.71894e-08 0)
(-7.29806 -3.57059e-08 0)
(-7.29789 -2.82192e-08 0)
(-7.2978 -3.11665e-08 0)
(-7.29759 -3.18917e-08 0)
(-7.29751 -8.88846e-09 0)
(-7.29754 2.16621e-08 0)
(-7.29773 3.37454e-08 0)
(-7.29788 2.17823e-08 0)
(-7.29796 7.08069e-09 0)
(-7.29797 -6.15489e-09 0)
(-7.29791 -1.72306e-08 0)
(-7.29781 -2.6345e-08 0)
(-7.29766 -3.3823e-08 0)
(-7.29748 -3.99811e-08 0)
(-7.29727 -4.50875e-08 0)
(-7.29704 -4.93506e-08 0)
(-7.29678 -5.29234e-08 0)
(-7.2965 -5.59209e-08 0)
(-7.2962 -5.84313e-08 0)
(-7.29589 -6.05258e-08 0)
(-7.29557 -6.22623e-08 0)
(-7.29523 -6.36884e-08 0)
(-7.29488 -6.48439e-08 0)
(-7.29453 -6.57622e-08 0)
(-7.29416 -6.64721e-08 0)
(-7.29379 -6.69979e-08 0)
(-7.29341 -6.73609e-08 0)
(-7.29303 -6.75793e-08 0)
(-7.29264 -6.76694e-08 0)
(-7.29224 -6.76452e-08 0)
(-7.29185 -6.7519e-08 0)
(-7.29145 -6.73021e-08 0)
(-7.29104 -6.70039e-08 0)
(-7.29064 -6.66335e-08 0)
(-7.29023 -6.61985e-08 0)
(-7.28982 -6.57059e-08 0)
(-7.28941 -6.51622e-08 0)
(-7.289 -6.45729e-08 0)
(-7.28859 -6.39435e-08 0)
(-7.28818 -6.32785e-08 0)
(-7.28777 -6.25821e-08 0)
(-7.28735 -6.18582e-08 0)
(-7.28694 -6.11103e-08 0)
(-7.28653 -6.03414e-08 0)
(-7.28613 -5.95546e-08 0)
(-7.28572 -5.87524e-08 0)
(-7.28531 -5.79373e-08 0)
(-7.28491 -5.71115e-08 0)
(-7.2845 -5.62769e-08 0)
(-7.2841 -5.54354e-08 0)
(-7.2837 -5.45888e-08 0)
(-7.2833 -5.37386e-08 0)
(-7.28291 -5.28862e-08 0)
(-7.28251 -5.20329e-08 0)
(-7.28212 -5.11798e-08 0)
(-7.28173 -5.03281e-08 0)
(-7.28135 -4.94787e-08 0)
(-7.28096 -4.86326e-08 0)
(-7.28058 -4.77904e-08 0)
(-7.2802 -4.69531e-08 0)
(-7.27983 -4.61212e-08 0)
(-7.27945 -4.52954e-08 0)
(-7.27908 -4.44763e-08 0)
(-7.27871 -4.36642e-08 0)
(-7.27835 -4.28598e-08 0)
(-7.27799 -4.20634e-08 0)
(-7.27763 -4.12754e-08 0)
(-7.27727 -4.04961e-08 0)
(-7.27692 -3.97258e-08 0)
(-7.27657 -3.89649e-08 0)
(-7.27622 -3.82134e-08 0)
(-7.27588 -3.74717e-08 0)
(-7.27554 -3.67398e-08 0)
(-7.2752 -3.60179e-08 0)
(-7.27487 -3.53062e-08 0)
(-7.27453 -3.46047e-08 0)
(-7.27421 -3.39135e-08 0)
(-7.27388 -3.32327e-08 0)
(-7.27356 -3.25623e-08 0)
(-7.27324 -3.19024e-08 0)
(-7.27292 -3.12529e-08 0)
(-7.27261 -3.06139e-08 0)
(-7.2723 -2.99854e-08 0)
(-7.27199 -2.93672e-08 0)
(-7.27169 -2.87595e-08 0)
(-7.27139 -2.81622e-08 0)
(-7.27109 -2.75752e-08 0)
(-7.2708 -2.69985e-08 0)
(-7.27051 -2.6432e-08 0)
(-7.27022 -2.58755e-08 0)
(-7.26993 -2.53291e-08 0)
(-7.26965 -2.47927e-08 0)
(-7.26937 -2.42661e-08 0)
(-7.26909 -2.37493e-08 0)
(-7.26882 -2.32422e-08 0)
(-7.26855 -2.27446e-08 0)
(-7.26828 -2.22565e-08 0)
(-7.26802 -2.17777e-08 0)
(-7.26776 -2.13082e-08 0)
(-7.2675 -2.08477e-08 0)
(-7.26724 -2.03963e-08 0)
(-7.26699 -1.99537e-08 0)
(-7.26674 -1.95198e-08 0)
(-7.26649 -1.90945e-08 0)
(-7.26625 -1.86778e-08 0)
(-7.26601 -1.82694e-08 0)
(-7.26577 -1.78693e-08 0)
(-7.26553 -1.74773e-08 0)
(-7.2653 -1.70933e-08 0)
(-7.26507 -1.67172e-08 0)
(-7.26484 -1.63488e-08 0)
(-7.26461 -1.5988e-08 0)
(-7.26439 -1.56347e-08 0)
(-7.26417 -1.52888e-08 0)
(-7.26395 -1.49501e-08 0)
(-7.26373 -1.46185e-08 0)
(-7.26352 -1.42939e-08 0)
(-7.26331 -1.39761e-08 0)
(-7.2631 -1.36651e-08 0)
(-7.2629 -1.33607e-08 0)
(-7.26269 -1.30628e-08 0)
(-7.26249 -1.27713e-08 0)
(-7.26229 -1.24861e-08 0)
(-7.2621 -1.22069e-08 0)
(-7.2619 -1.19338e-08 0)
(-7.26171 -1.16665e-08 0)
(-7.26152 -1.14051e-08 0)
(-7.26133 -1.11494e-08 0)
(-7.26115 -1.08992e-08 0)
(-7.26097 -1.06545e-08 0)
(-7.26078 -1.04152e-08 0)
(-7.26061 -1.01811e-08 0)
(-7.26043 -9.95213e-09 0)
(-7.26026 -9.7282e-09 0)
(-7.26008 -9.50921e-09 0)
(-7.25991 -9.29505e-09 0)
(-7.25974 -9.08564e-09 0)
(-7.25958 -8.88086e-09 0)
(-7.25941 -8.68066e-09 0)
(-7.25925 -8.48491e-09 0)
(-7.25909 -8.29353e-09 0)
(-7.25893 -8.10641e-09 0)
(-7.25878 -7.92347e-09 0)
(-7.25862 -7.74461e-09 0)
(-7.25847 -7.56974e-09 0)
(-7.25832 -7.39879e-09 0)
(-7.25817 -7.23166e-09 0)
(-7.25802 -7.06829e-09 0)
(-7.25788 -6.9086e-09 0)
(-7.25773 -6.75251e-09 0)
(-7.25759 -6.59995e-09 0)
(-7.25745 -6.45083e-09 0)
(-7.25731 -6.30509e-09 0)
(-7.25717 -6.16263e-09 0)
(-7.25704 -6.02339e-09 0)
(-7.2569 -5.8873e-09 0)
(-7.25677 -5.75428e-09 0)
(-7.25664 -5.62429e-09 0)
(-7.25651 -5.49725e-09 0)
(-7.25638 -5.3731e-09 0)
(-7.25626 -5.25179e-09 0)
(-7.25613 -5.13323e-09 0)
(-7.25601 -5.01738e-09 0)
(-7.25589 -4.90416e-09 0)
(-7.25577 -4.79353e-09 0)
(-7.25565 -4.68544e-09 0)
(-7.25553 -4.57983e-09 0)
(-7.25541 -4.47666e-09 0)
(-7.2553 -4.37589e-09 0)
(-7.25519 -4.27746e-09 0)
(-7.25507 -4.18136e-09 0)
(-7.25496 -4.08753e-09 0)
(-7.25485 -3.99597e-09 0)
(-7.25475 -3.90667e-09 0)
(-7.25464 -3.81965e-09 0)
(-7.25453 -3.73498e-09 0)
(-7.25443 -3.65283e-09 0)
(-7.25433 -3.57341e-09 0)
(-7.25422 -3.49759e-09 0)
(-7.25412 -3.42583e-09 0)
(-7.25402 -3.36524e-09 0)
(-7.25392 -3.30478e-09 0)
(-7.25382 -3.41824e-09 0)
(-7.25372 -2.8167e-09 0)
(-7.25365 -8.0504e-09 0)
(-7.25315 -1.23973e-08 0)
(-7.25273 -8.81878e-09 0)
(-7.25247 -5.56631e-09 0)
(-7.25231 -3.53626e-09 0)
(-7.2522 -2.43885e-09 0)
(-7.25213 -1.82161e-09 0)
(-7.25207 -1.43186e-09 0)
(-7.25202 -1.15823e-09 0)
(-7.25198 -9.55091e-10 0)
(-7.25195 -8.00467e-10 0)
(-7.25192 -6.80369e-10 0)
(-7.2519 -5.85032e-10 0)
(-7.25188 -5.07881e-10 0)
(-7.25186 -4.44518e-10 0)
(-7.25185 -3.91856e-10 0)
(-7.25184 -3.47627e-10 0)
(-7.25182 -3.10122e-10 0)
(-7.25181 -2.78047e-10 0)
(-7.25181 -2.504e-10 0)
(-7.2518 -2.26412e-10 0)
(-7.25179 -2.05473e-10 0)
(-7.25178 -1.87098e-10 0)
(-7.25178 -1.70883e-10 0)
(-7.25177 -1.56511e-10 0)
(-7.25177 -1.4372e-10 0)
(-7.25176 -1.32295e-10 0)
(-7.25176 -1.22047e-10 0)
(-7.25175 -1.12825e-10 0)
(-7.25175 -1.04504e-10 0)
(-7.25174 -9.69761e-11 0)
(-7.25174 -9.01417e-11 0)
(-7.25174 -8.39224e-11 0)
(-7.25174 -7.82523e-11 0)
(-7.25173 -7.30743e-11 0)
(-7.25173 -6.83293e-11 0)
(-7.25173 -6.39737e-11 0)
(-7.25173 -5.99716e-11 0)
(-7.25172 -5.62875e-11 0)
(-7.25172 -5.2891e-11 0)
(-7.25172 -4.97524e-11 0)
(-7.25172 -4.68452e-11 0)
(-7.25172 -4.41555e-11 0)
(-7.25172 -4.16624e-11 0)
(-7.25171 -3.93459e-11 0)
(-7.25171 -3.71884e-11 0)
(-7.25171 -3.51833e-11 0)
(-7.25171 -3.33169e-11 0)
(-7.25171 -3.15747e-11 0)
(-7.25171 -2.99447e-11 0)
(-7.25171 -2.84246e-11 0)
(-7.25171 -2.70051e-11 0)
(-7.25171 -2.5675e-11 0)
(-7.25171 -2.44259e-11 0)
(-7.2517 -2.32581e-11 0)
(-7.2517 -2.21652e-11 0)
(-7.2517 -2.1138e-11 0)
(-7.2517 -2.01705e-11 0)
(-7.2517 -1.92645e-11 0)
(-7.2517 -1.84157e-11 0)
(-7.2517 -1.7616e-11 0)
(-7.2517 -1.68612e-11 0)
(-7.2517 -1.6154e-11 0)
(-7.2517 -1.54918e-11 0)
(-7.2517 -1.48669e-11 0)
(-7.2517 -1.42769e-11 0)
(-7.2517 -1.3725e-11 0)
(-7.2517 -1.32072e-11 0)
(-7.2517 -1.27235e-11 0)
(-7.2517 -1.22685e-11 0)
(-7.2517 -1.18396e-11 0)
(-7.2517 -1.14423e-11 0)
(-7.25169 -1.10741e-11 0)
(-7.25169 -1.07314e-11 0)
(-7.25169 -1.04108e-11 0)
(-7.25169 -1.01202e-11 0)
(-7.25169 -9.85695e-12 0)
(-7.25169 -9.61999e-12 0)
(-7.25169 -9.407e-12 0)
(-7.25169 -9.22768e-12 0)
(-7.25169 -9.08387e-12 0)
(-7.25169 -8.974e-12 0)
(-7.25169 -8.90769e-12 0)
(-7.25169 -8.89176e-12 0)
(-7.25169 -8.95729e-12 0)
(-7.25169 -9.09455e-12 0)
(-7.25169 -9.41218e-12 0)
(-7.25169 -9.81274e-12 0)
(-7.25169 -1.10186e-11 0)
(-7.25169 -1.13927e-11 0)
(-7.25169 -1.90144e-11 0)
(-7.25169 -8.75957e-12 0)
(-7.25169 -1.03062e-10 0)
(-7.25168 1.68631e-10 0)
(-7.2517 8.55807e-11 0)
(-7.25168 -2.87582e-10 0)
)
;
    }
    symmetry
    {
        type            symmetryPlane;
    }
    frontAndBack
    {
        type            empty;
    }
}


// ************************************************************************* //
