/*--------------------------------*- C++ -*----------------------------------*\
| =========                 |                                                 |
| \\      /  F ield         | OpenFOAM: The Open Source CFD Toolbox           |
|  \\    /   O peration     | Version:  v2012                                 |
|   \\  /    A nd           | Website:  www.openfoam.com                      |
|    \\/     M anipulation  |                                                 |
\*---------------------------------------------------------------------------*/
FoamFile
{
    version     2.0;
    format      ascii;
    class       volScalarField;
    location    "19.5";
    object      epsilon;
}
// * * * * * * * * * * * * * * * * * * * * * * * * * * * * * * * * * * * * * //

dimensions      [0 2 -3 0 0 0 0];


internalField   nonuniform List<scalar> 
209825
(
0.757035
0.676106
0.637445
0.616344
0.603329
0.594642
0.58847
0.583933
0.58045
0.577747
0.575561
0.573806
0.572329
0.57111
0.570063
0.569189
0.568415
0.567764
0.567171
0.566672
0.566206
0.565813
0.565446
0.56514
0.564842
0.564594
0.564355
0.564164
0.563963
0.5638
0.563649
0.563531
0.5634
0.5633
0.563202
0.563131
0.563031
0.562969
0.562906
0.562865
0.562825
0.562794
0.56273
0.562711
0.562699
0.562681
0.56263
0.562649
0.562649
0.562663
0.562659
0.56277
0.56277
0.56277
0.562836
0.562836
0.562941
0.563084
0.563212
0.563349
0.563351
0.563351
0.563443
0.563615
0.563829
0.563908
0.563984
0.564172
0.564391
0.564535
0.564771
0.564977
0.565166
0.565391
0.565619
0.565874
0.566171
0.566492
0.566787
0.567205
0.567521
0.568008
0.568386
0.568984
0.569434
0.570207
0.570741
0.571795
0.572437
0.573872
0.57471
0.57738
0.577967
0.587903
2.77933
524.029
0.757035
0.676097
0.637428
0.616321
0.603301
0.594611
0.588438
0.583899
0.580415
0.577711
0.575524
0.573768
0.572291
0.571071
0.570024
0.56915
0.568375
0.567724
0.567131
0.566632
0.566166
0.565773
0.565405
0.565099
0.564801
0.564553
0.564314
0.564123
0.563921
0.563759
0.563608
0.563489
0.563359
0.563259
0.563161
0.563089
0.562989
0.562927
0.562864
0.562823
0.562783
0.562752
0.562688
0.562669
0.562657
0.562639
0.562589
0.562607
0.562607
0.562621
0.562617
0.562728
0.562728
0.562728
0.562794
0.562794
0.562899
0.563041
0.56317
0.563307
0.563309
0.563309
0.563401
0.563573
0.563787
0.563866
0.563942
0.564131
0.564349
0.564493
0.564729
0.564935
0.565124
0.565349
0.565577
0.565832
0.566129
0.56645
0.566746
0.567163
0.56748
0.567966
0.568344
0.568942
0.569393
0.570166
0.5707
0.571754
0.572395
0.573831
0.574669
0.577339
0.577925
0.587877
2.78356
520.684
0.757029
0.676048
0.637346
0.616216
0.603181
0.594481
0.588299
0.583755
0.580266
0.577558
0.575368
0.57361
0.57213
0.570909
0.56986
0.568985
0.568209
0.567557
0.566963
0.566463
0.565997
0.565603
0.565235
0.564929
0.564629
0.564382
0.564142
0.56395
0.563749
0.563586
0.563435
0.563316
0.563185
0.563085
0.562987
0.562915
0.562815
0.562753
0.562689
0.562648
0.562609
0.562577
0.562513
0.562494
0.562482
0.562464
0.562413
0.562432
0.562432
0.562446
0.562442
0.562552
0.562552
0.562552
0.562618
0.562618
0.562723
0.562866
0.562994
0.563131
0.563134
0.563134
0.563225
0.563397
0.563611
0.563691
0.563767
0.563955
0.564174
0.564318
0.564554
0.56476
0.564949
0.565175
0.565402
0.565657
0.565954
0.566275
0.566571
0.566989
0.567305
0.567792
0.568169
0.568768
0.569218
0.569991
0.570525
0.571579
0.57222
0.573655
0.574494
0.577163
0.577746
0.58773
2.79249
516.739
0.757018
0.675965
0.637206
0.616038
0.602978
0.594259
0.588064
0.58351
0.580013
0.5773
0.575105
0.573342
0.571859
0.570635
0.569584
0.568707
0.567929
0.567275
0.56668
0.566179
0.565711
0.565316
0.564947
0.56464
0.56434
0.564092
0.563852
0.56366
0.563457
0.563294
0.563143
0.563024
0.562892
0.562792
0.562693
0.562621
0.562521
0.562459
0.562395
0.562353
0.562314
0.562282
0.562218
0.562199
0.562187
0.562168
0.562118
0.562136
0.562136
0.56215
0.562146
0.562256
0.562256
0.562256
0.562322
0.562322
0.562427
0.56257
0.562698
0.562835
0.562838
0.562838
0.562929
0.563101
0.563315
0.563395
0.563471
0.56366
0.563878
0.564022
0.564258
0.564465
0.564654
0.564879
0.565107
0.565362
0.565659
0.56598
0.566276
0.566694
0.56701
0.567497
0.567875
0.568473
0.568923
0.569697
0.57023
0.571284
0.571925
0.573359
0.574197
0.576865
0.577444
0.587476
2.80649
512.971
0.757003
0.675847
0.637008
0.615787
0.60269
0.593946
0.587733
0.583164
0.579657
0.576934
0.574732
0.572964
0.571477
0.570248
0.569193
0.568313
0.567533
0.566877
0.566279
0.565777
0.565308
0.564911
0.564541
0.564233
0.563932
0.563683
0.563442
0.563249
0.563046
0.562882
0.56273
0.56261
0.562478
0.562377
0.562279
0.562206
0.562106
0.562043
0.561979
0.561937
0.561897
0.561865
0.561801
0.561782
0.56177
0.561751
0.5617
0.561718
0.561718
0.561732
0.561728
0.561838
0.561838
0.561838
0.561904
0.561904
0.562008
0.562151
0.562279
0.562417
0.56242
0.56242
0.562511
0.562683
0.562897
0.562977
0.563054
0.563242
0.56346
0.563605
0.563841
0.564048
0.564237
0.564462
0.56469
0.564945
0.565242
0.565563
0.565859
0.566277
0.566593
0.56708
0.567458
0.568056
0.568506
0.56928
0.569813
0.570866
0.571507
0.57294
0.573777
0.576444
0.577016
0.587114
2.82594
509.721
0.756984
0.675695
0.636751
0.615461
0.602318
0.59354
0.587303
0.582716
0.579194
0.576461
0.57425
0.572474
0.57098
0.569746
0.568687
0.567803
0.56702
0.56636
0.56576
0.565255
0.564784
0.564386
0.564014
0.563705
0.563403
0.563152
0.56291
0.562716
0.562512
0.562348
0.562194
0.562074
0.561942
0.56184
0.561741
0.561668
0.561567
0.561504
0.561439
0.561397
0.561357
0.561325
0.561261
0.561241
0.561228
0.56121
0.561159
0.561177
0.561177
0.56119
0.561186
0.561295
0.561295
0.561295
0.561361
0.561361
0.561466
0.561609
0.561736
0.561874
0.561877
0.561877
0.561969
0.56214
0.562354
0.562436
0.562512
0.5627
0.562918
0.563063
0.563299
0.563506
0.563695
0.563921
0.564149
0.564404
0.564701
0.565023
0.565318
0.565736
0.566053
0.56654
0.566917
0.567516
0.567966
0.568739
0.569271
0.570324
0.570965
0.572396
0.573232
0.575898
0.576461
0.586643
2.85125
507.15
0.756961
0.675507
0.636435
0.61506
0.601859
0.593041
0.586773
0.582164
0.578624
0.575877
0.573655
0.571869
0.570368
0.569128
0.568063
0.567174
0.566387
0.565724
0.565121
0.564613
0.564139
0.563739
0.563365
0.563054
0.56275
0.562498
0.562255
0.562059
0.561854
0.561689
0.561535
0.561413
0.56128
0.561178
0.561078
0.561004
0.560903
0.560839
0.560774
0.560732
0.560691
0.560659
0.560594
0.560575
0.560561
0.560542
0.560491
0.560509
0.560509
0.560522
0.560517
0.560626
0.560626
0.560626
0.560692
0.560692
0.560797
0.56094
0.561067
0.561205
0.561209
0.561209
0.5613
0.561471
0.561685
0.561768
0.561844
0.562032
0.56225
0.562395
0.562631
0.562839
0.563028
0.563254
0.563482
0.563737
0.564034
0.564356
0.564651
0.56507
0.565386
0.565873
0.566251
0.56685
0.567299
0.568072
0.568604
0.569656
0.570296
0.571726
0.57256
0.575224
0.575778
0.586063
2.88283
505.312
0.756934
0.675285
0.63606
0.614583
0.601312
0.592446
0.586142
0.581506
0.577946
0.575182
0.572946
0.57115
0.569639
0.568391
0.56732
0.566425
0.565633
0.564965
0.564359
0.563848
0.563371
0.562968
0.562592
0.562278
0.561972
0.561719
0.561474
0.561277
0.561071
0.560904
0.560748
0.560626
0.560492
0.560389
0.560288
0.560214
0.560112
0.560047
0.559982
0.559939
0.559898
0.559865
0.5598
0.55978
0.559767
0.559747
0.559696
0.559713
0.559713
0.559725
0.559721
0.559829
0.559829
0.559829
0.559895
0.559895
0.559999
0.560142
0.560269
0.560408
0.560412
0.560412
0.560504
0.560674
0.560888
0.560972
0.561049
0.561235
0.561454
0.561599
0.561835
0.562043
0.562233
0.562459
0.562687
0.562943
0.563238
0.563561
0.563856
0.564275
0.564591
0.565079
0.565456
0.566055
0.566504
0.567278
0.567808
0.56886
0.569499
0.570927
0.571759
0.574421
0.574962
0.585372
2.92106
504.189
0.756902
0.675028
0.635626
0.614029
0.600678
0.591755
0.58541
0.580742
0.577157
0.574374
0.572122
0.570313
0.568791
0.567534
0.566455
0.565554
0.564756
0.564084
0.563472
0.562957
0.562477
0.562071
0.561692
0.561376
0.561068
0.560812
0.560565
0.560367
0.560159
0.559991
0.559834
0.559711
0.559575
0.559471
0.559369
0.559294
0.559192
0.559126
0.55906
0.559016
0.558975
0.558942
0.558877
0.558856
0.558842
0.558823
0.558771
0.558787
0.558787
0.558799
0.558794
0.558902
0.558902
0.558902
0.558968
0.558968
0.559072
0.559215
0.559342
0.55948
0.559485
0.559485
0.559577
0.559747
0.559961
0.560046
0.560123
0.560309
0.560528
0.560674
0.560909
0.561118
0.561307
0.561534
0.561762
0.562018
0.562313
0.562637
0.562931
0.563351
0.563667
0.564155
0.564532
0.565131
0.565579
0.566353
0.566882
0.567933
0.568572
0.569997
0.570826
0.573487
0.574014
0.584569
2.96635
503.715
0.756868
0.674737
0.635131
0.613398
0.599955
0.590966
0.584574
0.57987
0.576257
0.573451
0.571181
0.569357
0.567824
0.566556
0.565468
0.56456
0.563754
0.563076
0.56246
0.561941
0.561457
0.561047
0.560664
0.560346
0.560035
0.559777
0.559528
0.559327
0.559118
0.558948
0.558789
0.558665
0.558528
0.558423
0.55832
0.558244
0.55814
0.558074
0.558007
0.557963
0.55792
0.557887
0.557822
0.5578
0.557786
0.557766
0.557714
0.55773
0.55773
0.557741
0.557736
0.557843
0.557843
0.557843
0.557909
0.557909
0.558013
0.558155
0.558282
0.558421
0.558427
0.558427
0.558518
0.558687
0.558902
0.558988
0.559066
0.559251
0.55947
0.559616
0.55985
0.56006
0.56025
0.560477
0.560705
0.560961
0.561256
0.56158
0.561875
0.562294
0.562611
0.563099
0.563475
0.564075
0.564522
0.565296
0.565824
0.566875
0.567512
0.568935
0.569761
0.572419
0.57293
0.583654
3.01906
503.787
0.756829
0.67441
0.634576
0.612689
0.599142
0.59008
0.583633
0.578888
0.575243
0.572412
0.570122
0.568281
0.566734
0.565455
0.564357
0.563439
0.562627
0.561942
0.56132
0.560796
0.560307
0.559893
0.559507
0.559185
0.558872
0.558611
0.558359
0.558156
0.557945
0.557773
0.557613
0.557487
0.557349
0.557242
0.557138
0.557061
0.556956
0.556889
0.556821
0.556776
0.556733
0.556699
0.556633
0.556611
0.556596
0.556576
0.556523
0.556539
0.556539
0.55655
0.556543
0.55665
0.556651
0.556651
0.556716
0.556716
0.556819
0.556962
0.557088
0.557228
0.557234
0.557234
0.557326
0.557494
0.557708
0.557797
0.557874
0.558059
0.558278
0.558425
0.558659
0.558869
0.559059
0.559286
0.559515
0.559771
0.560065
0.560391
0.560684
0.561104
0.561421
0.56191
0.562285
0.562886
0.563332
0.564106
0.564632
0.565682
0.566318
0.567737
0.568561
0.571216
0.57171
0.582624
3.07954
504.277
0.756788
0.67405
0.63396
0.611902
0.598238
0.589094
0.582587
0.577796
0.574116
0.571257
0.568944
0.567084
0.565521
0.564229
0.563119
0.562192
0.561371
0.56068
0.560051
0.559521
0.559027
0.558609
0.558219
0.557893
0.557576
0.557312
0.557058
0.556853
0.556639
0.556465
0.556303
0.556175
0.556035
0.555927
0.555821
0.555743
0.555638
0.55557
0.555501
0.555455
0.55541
0.555376
0.55531
0.555287
0.555272
0.555252
0.555198
0.555213
0.555213
0.555223
0.555216
0.555322
0.555322
0.555322
0.555387
0.555387
0.55549
0.555633
0.555758
0.555899
0.555906
0.555906
0.555998
0.556165
0.556379
0.556469
0.556548
0.556731
0.55695
0.557098
0.557331
0.557542
0.557733
0.55796
0.558189
0.558446
0.558739
0.559065
0.559358
0.559779
0.560095
0.560584
0.560959
0.56156
0.562005
0.56278
0.563305
0.564353
0.564988
0.566404
0.567224
0.569875
0.57035
0.581478
3.14807
505.047
0.756743
0.673655
0.633284
0.611037
0.597244
0.588009
0.581434
0.576593
0.572873
0.569982
0.567644
0.565764
0.564183
0.562877
0.561755
0.560817
0.559987
0.559287
0.558651
0.558115
0.557616
0.557192
0.556798
0.556468
0.556147
0.55588
0.555622
0.555415
0.555198
0.555022
0.554858
0.554728
0.554586
0.554477
0.554369
0.55429
0.554183
0.554114
0.554044
0.553997
0.553951
0.553917
0.55385
0.553827
0.55381
0.55379
0.553735
0.553749
0.553749
0.553759
0.553751
0.553856
0.553857
0.553857
0.553921
0.553921
0.554024
0.554167
0.554291
0.554432
0.55444
0.55444
0.554532
0.554699
0.554913
0.555005
0.555084
0.555266
0.555485
0.555634
0.555866
0.556078
0.556269
0.556497
0.556726
0.556983
0.557275
0.557602
0.557895
0.558316
0.558632
0.559122
0.559496
0.560098
0.560541
0.561316
0.561839
0.562886
0.56352
0.564932
0.565748
0.568396
0.568849
0.580216
3.22492
505.948
0.756696
0.673226
0.632549
0.610093
0.596158
0.586822
0.580174
0.575277
0.571514
0.568589
0.566223
0.56432
0.56272
0.561397
0.560262
0.559312
0.558472
0.557763
0.557119
0.556576
0.556071
0.555642
0.555242
0.554908
0.554583
0.554312
0.554051
0.55384
0.553621
0.553443
0.553276
0.553144
0.553
0.552889
0.55278
0.552699
0.552591
0.552521
0.552449
0.552401
0.552354
0.552319
0.552252
0.552227
0.55221
0.552189
0.552134
0.552148
0.552148
0.552156
0.552147
0.552252
0.552252
0.552252
0.552316
0.552316
0.552419
0.552561
0.552685
0.552827
0.552836
0.552836
0.552927
0.553093
0.553307
0.553401
0.553481
0.553662
0.553881
0.554031
0.554262
0.554475
0.554667
0.554895
0.555123
0.555381
0.555673
0.556001
0.556293
0.556714
0.55703
0.55752
0.557894
0.558496
0.558938
0.559713
0.560234
0.561279
0.561912
0.56332
0.564132
0.566776
0.567206
0.578835
3.31025
506.833
0.756646
0.672764
0.631752
0.60907
0.59498
0.585535
0.578806
0.573848
0.570037
0.567075
0.564678
0.56275
0.561129
0.559789
0.558638
0.557676
0.556824
0.556106
0.555454
0.554903
0.554391
0.553956
0.553551
0.553212
0.552882
0.552608
0.552343
0.552129
0.551907
0.551725
0.551555
0.551421
0.551276
0.551162
0.551051
0.550969
0.550859
0.550788
0.550715
0.550665
0.550618
0.550582
0.550514
0.550488
0.55047
0.550449
0.550393
0.550406
0.550406
0.550413
0.550403
0.550507
0.550507
0.550507
0.550571
0.550571
0.550673
0.550815
0.550938
0.551081
0.551091
0.55109
0.551182
0.551347
0.551561
0.551657
0.551737
0.551918
0.552137
0.552287
0.552518
0.552732
0.552924
0.553152
0.55338
0.553638
0.553929
0.554258
0.55455
0.554972
0.555287
0.555778
0.556151
0.556754
0.557195
0.557969
0.558489
0.559532
0.560162
0.561566
0.562374
0.565014
0.565418
0.577333
3.40416
507.562
0.756595
0.672269
0.630897
0.607968
0.59371
0.584146
0.57733
0.572305
0.568443
0.565439
0.563009
0.561054
0.559411
0.558051
0.556884
0.555908
0.555044
0.554315
0.553653
0.553094
0.552575
0.552134
0.551722
0.551378
0.551044
0.550765
0.550496
0.550278
0.550053
0.549868
0.549696
0.549559
0.549411
0.549295
0.549182
0.549098
0.548987
0.548914
0.548839
0.548789
0.54874
0.548703
0.548634
0.548608
0.548589
0.548567
0.548511
0.548522
0.548522
0.548529
0.548518
0.54862
0.54862
0.54862
0.548684
0.548684
0.548785
0.548928
0.549049
0.549192
0.549203
0.549203
0.549295
0.549459
0.549673
0.549771
0.549852
0.550031
0.55025
0.550401
0.550631
0.550846
0.551038
0.551267
0.551495
0.551754
0.552044
0.552374
0.552664
0.553087
0.553402
0.553894
0.554266
0.554869
0.555308
0.556082
0.5566
0.557641
0.55827
0.559669
0.560472
0.563107
0.563485
0.575709
3.50663
508.002
0.756541
0.671742
0.629981
0.606787
0.592348
0.582655
0.575744
0.570647
0.566729
0.563681
0.561215
0.55923
0.557563
0.556183
0.554998
0.554006
0.553129
0.552389
0.551717
0.551149
0.550622
0.550173
0.549756
0.549406
0.549066
0.548783
0.548509
0.548288
0.548059
0.547871
0.547695
0.547555
0.547405
0.547287
0.547171
0.547085
0.546973
0.546898
0.546822
0.54677
0.546719
0.546682
0.546612
0.546585
0.546565
0.546543
0.546485
0.546496
0.546496
0.546501
0.546489
0.54659
0.54659
0.54659
0.546653
0.546653
0.546754
0.546896
0.547016
0.54716
0.547173
0.547173
0.547264
0.547427
0.54764
0.547742
0.547823
0.548001
0.54822
0.548372
0.548601
0.548816
0.549009
0.549238
0.549467
0.549726
0.550015
0.550346
0.550635
0.551059
0.551374
0.551865
0.552237
0.55284
0.553278
0.554052
0.554567
0.555606
0.556233
0.557626
0.558424
0.561055
0.561404
0.573962
3.61753
508.035
0.756486
0.671184
0.629007
0.605528
0.590893
0.581061
0.574048
0.568874
0.564895
0.5618
0.559295
0.557278
0.555584
0.554182
0.552978
0.55197
0.551079
0.550326
0.549644
0.549066
0.54853
0.548074
0.547649
0.547293
0.546948
0.546659
0.546381
0.546156
0.545923
0.545732
0.545552
0.54541
0.545256
0.545136
0.545018
0.54493
0.544816
0.544739
0.544661
0.544607
0.544555
0.544517
0.544446
0.544418
0.544396
0.544374
0.544316
0.544325
0.544325
0.544329
0.544316
0.544415
0.544415
0.544415
0.544478
0.544478
0.544578
0.54472
0.544839
0.544984
0.544997
0.544997
0.545089
0.545251
0.545463
0.545567
0.54565
0.545826
0.546044
0.546197
0.546425
0.546642
0.546835
0.547065
0.547293
0.547553
0.54784
0.548172
0.548461
0.548885
0.5492
0.549692
0.550062
0.550666
0.551102
0.551876
0.552389
0.553424
0.554049
0.555438
0.55623
0.558855
0.559175
0.572087
3.73656
507.562
0.75643
0.670594
0.627974
0.60419
0.589346
0.579365
0.572242
0.566986
0.562942
0.559795
0.557248
0.555198
0.553475
0.552049
0.550824
0.549799
0.548893
0.548126
0.547432
0.546844
0.546299
0.545835
0.545403
0.54504
0.544689
0.544395
0.544111
0.543881
0.543644
0.543449
0.543266
0.54312
0.542964
0.542841
0.54272
0.54263
0.542514
0.542435
0.542355
0.5423
0.542246
0.542207
0.542135
0.542106
0.542083
0.54206
0.542001
0.542009
0.542009
0.542012
0.541997
0.542095
0.542095
0.542095
0.542156
0.542157
0.542256
0.542398
0.542515
0.542661
0.542676
0.542676
0.542768
0.542928
0.54314
0.543247
0.54333
0.543505
0.543723
0.543877
0.544104
0.544322
0.544515
0.544745
0.544974
0.545234
0.54552
0.545853
0.546141
0.546565
0.546879
0.547372
0.547741
0.548345
0.548779
0.549553
0.550063
0.551096
0.551719
0.553101
0.553888
0.556507
0.556795
0.570084
3.86326
506.488
0.756374
0.669975
0.626884
0.602775
0.587707
0.577567
0.570327
0.564981
0.560868
0.557665
0.555075
0.552987
0.551234
0.549783
0.548536
0.547492
0.546569
0.545789
0.545082
0.544483
0.543928
0.543455
0.543015
0.542645
0.542287
0.541987
0.541699
0.541463
0.541222
0.541023
0.540836
0.540687
0.540527
0.540402
0.540278
0.540185
0.540067
0.539986
0.539904
0.539847
0.539792
0.539751
0.539678
0.539647
0.539623
0.5396
0.53954
0.539547
0.539547
0.539548
0.539531
0.539628
0.539628
0.539628
0.539688
0.539688
0.539787
0.539929
0.540044
0.540191
0.540207
0.540207
0.540299
0.540458
0.54067
0.540779
0.540863
0.541037
0.541254
0.541409
0.541635
0.541854
0.542048
0.542278
0.542507
0.542767
0.543052
0.543386
0.543673
0.544097
0.544411
0.544904
0.545272
0.545876
0.546308
0.547081
0.547589
0.548619
0.549239
0.550615
0.551395
0.554008
0.554265
0.567949
3.99695
504.743
0.756317
0.669327
0.625737
0.601282
0.585976
0.575666
0.5683
0.562859
0.558672
0.555411
0.552773
0.550647
0.548861
0.547382
0.546112
0.545048
0.544107
0.543312
0.542592
0.541981
0.541415
0.540933
0.540484
0.540107
0.539742
0.539436
0.539142
0.538901
0.538655
0.538452
0.53826
0.538108
0.537945
0.537816
0.537689
0.537594
0.537474
0.537391
0.537306
0.537248
0.53719
0.537148
0.537074
0.537042
0.537017
0.536992
0.536932
0.536937
0.536937
0.536936
0.536918
0.537012
0.537013
0.537013
0.537072
0.537072
0.537171
0.537312
0.537426
0.537573
0.537591
0.537591
0.537683
0.53784
0.538051
0.538163
0.538248
0.53842
0.538637
0.538794
0.539018
0.539238
0.539432
0.539663
0.539891
0.540152
0.540435
0.54077
0.541056
0.541481
0.541794
0.542288
0.542654
0.543259
0.543688
0.544461
0.544966
0.545992
0.546609
0.547979
0.548752
0.551358
0.551581
0.565679
4.13677
502.272
0.75626
0.66865
0.624534
0.599713
0.584153
0.573663
0.566164
0.560622
0.556356
0.553033
0.550343
0.548175
0.546355
0.544847
0.543552
0.542467
0.541508
0.540696
0.539961
0.539338
0.538761
0.538269
0.537811
0.537426
0.537054
0.536741
0.53644
0.536194
0.535943
0.535735
0.535539
0.535383
0.535216
0.535084
0.534954
0.534856
0.534733
0.534648
0.534561
0.534501
0.534441
0.534398
0.534323
0.534289
0.534262
0.534237
0.534176
0.53418
0.534179
0.534177
0.534156
0.534249
0.534249
0.534249
0.534308
0.534308
0.534405
0.534546
0.534658
0.534806
0.534825
0.534825
0.534917
0.535073
0.535283
0.535398
0.535484
0.535655
0.535871
0.536028
0.536251
0.536472
0.536667
0.536898
0.537126
0.537387
0.537669
0.538005
0.53829
0.538715
0.539027
0.539521
0.539886
0.540491
0.540918
0.54169
0.542192
0.543214
0.543829
0.545191
0.545958
0.548556
0.548745
0.563272
4.28158
499.032
0.756204
0.667946
0.623277
0.598068
0.58224
0.571558
0.563918
0.558268
0.553919
0.550529
0.547786
0.545574
0.543717
0.542177
0.540856
0.539748
0.538769
0.53794
0.53719
0.536554
0.535965
0.535462
0.534994
0.5346
0.534221
0.533901
0.533594
0.533342
0.533086
0.532873
0.532672
0.532511
0.532341
0.532205
0.532071
0.531971
0.531845
0.531757
0.531668
0.531605
0.531543
0.531499
0.531423
0.531387
0.531358
0.531333
0.531271
0.531273
0.531272
0.531268
0.531245
0.531336
0.531336
0.531336
0.531394
0.531394
0.53149
0.53163
0.531741
0.531889
0.53191
0.53191
0.532002
0.532156
0.532365
0.532483
0.532571
0.532739
0.532955
0.533113
0.533335
0.533556
0.533752
0.533983
0.534211
0.534473
0.534752
0.53509
0.535373
0.535798
0.53611
0.536604
0.536967
0.537572
0.537997
0.538767
0.539266
0.540284
0.540896
0.542251
0.54301
0.5456
0.545754
0.560723
4.42999
494.993
0.756149
0.667217
0.621966
0.596348
0.580237
0.569352
0.561562
0.555799
0.55136
0.5479
0.5451
0.542841
0.540945
0.539373
0.538023
0.536891
0.535891
0.535044
0.534278
0.533627
0.533026
0.532512
0.532034
0.531631
0.531243
0.530916
0.530601
0.530343
0.530081
0.529863
0.529657
0.529492
0.529318
0.529179
0.529041
0.528938
0.528809
0.528719
0.528627
0.528562
0.528497
0.528451
0.528373
0.528336
0.528305
0.528279
0.528218
0.528218
0.528215
0.52821
0.528185
0.528273
0.528273
0.528273
0.528329
0.528329
0.528425
0.528565
0.528673
0.528822
0.528844
0.528844
0.528936
0.529089
0.529297
0.529417
0.529506
0.529673
0.529888
0.530047
0.530267
0.53049
0.530685
0.530917
0.531144
0.531407
0.531684
0.532023
0.532304
0.53273
0.533041
0.533535
0.533897
0.534501
0.534923
0.535693
0.536188
0.537202
0.53781
0.539158
0.539909
0.542489
0.542609
0.558029
4.58033
490.138
0.756095
0.666463
0.620602
0.594555
0.578144
0.567046
0.559097
0.553213
0.548681
0.545146
0.542286
0.539977
0.53804
0.536433
0.535054
0.533896
0.532874
0.532008
0.531225
0.530559
0.529944
0.529419
0.52893
0.528517
0.52812
0.527785
0.527463
0.527198
0.526931
0.526707
0.526496
0.526326
0.526147
0.526004
0.525862
0.525756
0.525625
0.525531
0.525436
0.525369
0.525302
0.525254
0.525175
0.525135
0.525103
0.525076
0.525014
0.525012
0.525009
0.525002
0.524974
0.52506
0.52506
0.52506
0.525115
0.525115
0.52521
0.525348
0.525454
0.525604
0.525628
0.525628
0.525719
0.525871
0.526077
0.526201
0.526291
0.526456
0.52667
0.52683
0.527049
0.527272
0.527468
0.5277
0.527926
0.52819
0.528465
0.528804
0.529084
0.52951
0.52982
0.530315
0.530674
0.531278
0.531697
0.532465
0.532958
0.533966
0.534571
0.535911
0.536653
0.539222
0.539308
0.555186
4.73062
484.457
0.756043
0.665686
0.619188
0.592689
0.575964
0.564639
0.556524
0.550513
0.545882
0.542268
0.539344
0.536983
0.535002
0.533358
0.531948
0.530763
0.529717
0.528831
0.52803
0.527349
0.526719
0.526181
0.525681
0.525258
0.524852
0.524508
0.524179
0.523907
0.523633
0.523404
0.523186
0.523012
0.522828
0.522681
0.522536
0.522425
0.522291
0.522195
0.522097
0.522027
0.521957
0.521907
0.521826
0.521785
0.521751
0.521723
0.52166
0.521657
0.521652
0.521644
0.521613
0.521696
0.521696
0.521696
0.52175
0.521749
0.521843
0.521981
0.522085
0.522234
0.52226
0.52226
0.522352
0.522501
0.522706
0.522832
0.522924
0.523088
0.5233
0.523462
0.523678
0.523902
0.524098
0.524331
0.524557
0.52482
0.525093
0.525434
0.525712
0.526138
0.526446
0.526941
0.527298
0.527902
0.528318
0.529085
0.529574
0.530576
0.531178
0.532509
0.533243
0.5358
0.53585
0.552189
4.87862
477.944
0.755994
0.664887
0.617725
0.590753
0.573696
0.562135
0.553843
0.547698
0.542962
0.539266
0.536274
0.533858
0.531831
0.530149
0.528705
0.527492
0.526422
0.525514
0.524694
0.523996
0.523352
0.522801
0.522288
0.521854
0.521438
0.521086
0.520748
0.520469
0.520189
0.519953
0.51973
0.51955
0.519362
0.51921
0.51906
0.518946
0.518809
0.518709
0.518608
0.518535
0.518462
0.518411
0.518328
0.518285
0.518248
0.518219
0.518157
0.518151
0.518145
0.518135
0.518102
0.518182
0.518182
0.518182
0.518233
0.518233
0.518326
0.518463
0.518564
0.518714
0.518741
0.518741
0.518832
0.51898
0.519184
0.519313
0.519405
0.519568
0.519779
0.519941
0.520156
0.520381
0.520577
0.52081
0.521035
0.521299
0.521569
0.521911
0.522187
0.522613
0.52292
0.523414
0.52377
0.524373
0.524786
0.52555
0.526035
0.527032
0.52763
0.528952
0.529677
0.53222
0.532237
0.549034
5.02178
470.599
0.755947
0.664067
0.616214
0.588747
0.571344
0.559532
0.551055
0.54477
0.539924
0.53614
0.533078
0.530604
0.528528
0.526806
0.525327
0.524084
0.522987
0.522057
0.521217
0.520502
0.519842
0.519277
0.518751
0.518306
0.51788
0.517519
0.517172
0.516885
0.516597
0.516356
0.516126
0.51594
0.515747
0.515591
0.515436
0.515319
0.515178
0.515075
0.51497
0.514894
0.514818
0.514765
0.514681
0.514635
0.514596
0.514566
0.514503
0.514495
0.514487
0.514476
0.51444
0.514517
0.514517
0.514517
0.514566
0.514566
0.514657
0.514793
0.514892
0.515041
0.515071
0.515071
0.515162
0.515308
0.515509
0.515641
0.515735
0.515896
0.516105
0.516269
0.516482
0.516707
0.516903
0.517136
0.51736
0.517625
0.517893
0.518235
0.518509
0.518935
0.51924
0.519735
0.520087
0.52069
0.521099
0.521862
0.522343
0.523333
0.523927
0.525239
0.525955
0.528483
0.528467
0.545716
5.15729
462.422
0.755903
0.663229
0.614658
0.586674
0.568907
0.556834
0.548163
0.541729
0.536768
0.532892
0.529755
0.52722
0.525094
0.523329
0.521813
0.520539
0.519415
0.518461
0.5176
0.516866
0.516189
0.51561
0.515071
0.514614
0.514177
0.513806
0.51345
0.513155
0.51286
0.512611
0.512375
0.512184
0.511985
0.511824
0.511665
0.511543
0.511398
0.511291
0.511184
0.511105
0.511026
0.51097
0.510884
0.510836
0.510794
0.510763
0.510699
0.510689
0.51068
0.510667
0.510627
0.510702
0.510701
0.510701
0.510748
0.510748
0.510838
0.510973
0.511069
0.511218
0.511249
0.511249
0.51134
0.511484
0.511684
0.511818
0.511913
0.512072
0.51228
0.512445
0.512655
0.512881
0.513077
0.51331
0.513534
0.513799
0.514064
0.514406
0.514679
0.515104
0.515408
0.515902
0.516252
0.516854
0.517259
0.518019
0.518497
0.51948
0.520069
0.521371
0.522077
0.52459
0.524541
0.54223
5.28208
453.413
0.755863
0.662373
0.613058
0.584535
0.566388
0.554041
0.545166
0.538578
0.533495
0.529523
0.526308
0.523708
0.521529
0.519719
0.518164
0.516857
0.515705
0.514726
0.513842
0.513089
0.512396
0.511801
0.511248
0.510779
0.51033
0.509949
0.509583
0.50928
0.508977
0.508721
0.508478
0.50828
0.508076
0.50791
0.507745
0.507619
0.50747
0.50736
0.507248
0.507166
0.507084
0.507026
0.506937
0.506887
0.506843
0.506811
0.506745
0.506733
0.506722
0.506708
0.506665
0.506736
0.506736
0.506735
0.50678
0.50678
0.506868
0.507002
0.507095
0.507244
0.507277
0.507277
0.507368
0.50751
0.507707
0.507844
0.50794
0.508097
0.508303
0.508469
0.508678
0.508903
0.509099
0.509333
0.509555
0.50982
0.510083
0.510426
0.510696
0.51112
0.511422
0.511916
0.512263
0.512864
0.513266
0.514023
0.514496
0.515472
0.516057
0.517348
0.518044
0.520539
0.520458
0.53857
5.39294
443.569
0.755828
0.661503
0.611417
0.582333
0.563789
0.551155
0.542067
0.535316
0.530107
0.526033
0.522737
0.52007
0.517834
0.515977
0.514382
0.51304
0.511858
0.510853
0.509946
0.509173
0.508461
0.50785
0.507282
0.5068
0.50634
0.505948
0.505572
0.50526
0.504948
0.504685
0.504434
0.504231
0.50402
0.503849
0.503679
0.503548
0.503396
0.503281
0.503166
0.50308
0.502994
0.502933
0.502843
0.50279
0.502743
0.50271
0.502643
0.502628
0.502616
0.5026
0.502554
0.502621
0.502621
0.50262
0.502662
0.502662
0.502749
0.502881
0.502971
0.503119
0.503154
0.503154
0.503244
0.503385
0.503579
0.503718
0.503817
0.503972
0.504176
0.504343
0.504548
0.504775
0.50497
0.505204
0.505425
0.50569
0.50595
0.506293
0.506561
0.506984
0.507284
0.507777
0.508121
0.508721
0.509119
0.509872
0.510341
0.51131
0.51189
0.51317
0.513856
0.516332
0.516219
0.534731
5.48648
432.888
0.755796
0.660618
0.609736
0.58007
0.561112
0.548179
0.538868
0.531947
0.526604
0.522425
0.519042
0.516305
0.514011
0.512104
0.510467
0.509089
0.507875
0.506843
0.505912
0.505117
0.504387
0.503759
0.503176
0.50268
0.502207
0.501804
0.501418
0.501096
0.500776
0.500505
0.500246
0.500036
0.499819
0.499642
0.499467
0.499331
0.499174
0.499056
0.498936
0.498847
0.498757
0.498693
0.498601
0.498545
0.498495
0.49846
0.498392
0.498375
0.498361
0.498344
0.498295
0.498357
0.498357
0.498356
0.498395
0.498395
0.49848
0.498611
0.498697
0.498845
0.498881
0.498881
0.498972
0.49911
0.499302
0.499443
0.499542
0.499696
0.499898
0.500065
0.500269
0.500495
0.50069
0.500923
0.501143
0.501409
0.501665
0.502008
0.502274
0.502696
0.502994
0.503486
0.503827
0.504425
0.504819
0.505569
0.506033
0.506993
0.507568
0.508837
0.509512
0.511969
0.511825
0.530707
5.5593
421.364
0.75577
0.659722
0.608019
0.577748
0.558359
0.545113
0.53557
0.528471
0.522989
0.518699
0.515227
0.512416
0.510061
0.508102
0.506421
0.505005
0.503758
0.502697
0.501741
0.500924
0.500174
0.499528
0.498929
0.498419
0.497932
0.497518
0.497121
0.496789
0.49646
0.496181
0.495914
0.495697
0.495474
0.495291
0.495109
0.494969
0.494807
0.494684
0.49456
0.494467
0.494373
0.494307
0.494212
0.494153
0.4941
0.494064
0.493994
0.493975
0.493958
0.49394
0.493887
0.493946
0.493946
0.493944
0.49398
0.49398
0.494064
0.494192
0.494275
0.494422
0.49446
0.49446
0.49455
0.494686
0.494875
0.495018
0.495119
0.49527
0.49547
0.495639
0.495839
0.496065
0.49626
0.496493
0.496711
0.496977
0.49723
0.497573
0.497836
0.498257
0.498553
0.499044
0.499382
0.499977
0.500367
0.501113
0.501573
0.502524
0.503093
0.50435
0.505014
0.50745
0.507277
0.526493
5.60802
408.991
0.755749
0.658815
0.606268
0.57537
0.555533
0.541962
0.532175
0.524891
0.519264
0.514859
0.511293
0.508405
0.505985
0.503973
0.502245
0.50079
0.499508
0.498417
0.497435
0.496595
0.495823
0.49516
0.494543
0.494018
0.493518
0.493091
0.492683
0.492341
0.492002
0.491715
0.49144
0.491215
0.490985
0.490796
0.490608
0.490462
0.490296
0.490169
0.49004
0.489943
0.489845
0.489775
0.489677
0.489616
0.489559
0.489521
0.48945
0.489428
0.489409
0.48939
0.489334
0.489388
0.489388
0.489385
0.489419
0.489418
0.4895
0.489627
0.489705
0.489851
0.489891
0.489891
0.48998
0.490114
0.4903
0.490445
0.490547
0.490697
0.490894
0.491063
0.491261
0.491487
0.49168
0.491914
0.49213
0.492396
0.492646
0.492989
0.493249
0.493668
0.493961
0.49445
0.494785
0.495378
0.495763
0.496505
0.49696
0.497902
0.498465
0.49971
0.500363
0.502777
0.502575
0.522082
5.62944
395.765
0.755734
0.657901
0.604485
0.572938
0.552636
0.538726
0.528687
0.521209
0.515431
0.510905
0.507241
0.504273
0.501786
0.499717
0.497941
0.496445
0.495127
0.494005
0.492995
0.492131
0.491337