/*--------------------------------*- C++ -*----------------------------------*\
| =========                 |                                                 |
| \\      /  F ield         | OpenFOAM: The Open Source CFD Toolbox           |
|  \\    /   O peration     | Version:  v2012                                 |
|   \\  /    A nd           | Website:  www.openfoam.com                      |
|    \\/     M anipulation  |                                                 |
\*---------------------------------------------------------------------------*/
FoamFile
{
    version     2.0;
    format      ascii;
    class       volVectorField;
    location    "19.5";
    object      wallShearStress;
}
// * * * * * * * * * * * * * * * * * * * * * * * * * * * * * * * * * * * * * //

dimensions      [0 2 -2 0 0 0 0];


internalField   uniform (0 0 0);

boundaryField
{
    inlet
    {
        type            calculated;
        value           uniform (0 0 0);
    }
    outlet
    {
        type            calculated;
        value           uniform (0 0 0);
    }
    topWall
    {
        type            calculated;
        value           nonuniform List<vector> 
545
(
(4.71852e-08 -3.31875e-08 0)
(4.71422e-08 -9.30306e-08 0)
(4.69522e-08 -1.54895e-07 0)
(4.68901e-08 -2.14932e-07 0)
(4.6811e-08 -2.7237e-07 0)
(4.67202e-08 -3.27945e-07 0)
(4.66196e-08 -3.82135e-07 0)
(4.65076e-08 -4.34915e-07 0)
(4.63853e-08 -4.86166e-07 0)
(4.62537e-08 -5.35886e-07 0)
(4.61138e-08 -5.84138e-07 0)
(4.59663e-08 -6.30979e-07 0)
(4.58119e-08 -6.76442e-07 0)
(4.56515e-08 -7.20554e-07 0)
(4.54857e-08 -7.63347e-07 0)
(4.53152e-08 -8.04856e-07 0)
(4.51405e-08 -8.45118e-07 0)
(4.49624e-08 -8.84165e-07 0)
(4.47812e-08 -9.2203e-07 0)
(4.45975e-08 -9.58747e-07 0)
(4.44117e-08 -9.94348e-07 0)
(4.42244e-08 -1.02886e-06 0)
(4.40358e-08 -1.06233e-06 0)
(4.38463e-08 -1.09477e-06 0)
(4.36563e-08 -1.12622e-06 0)
(4.34661e-08 -1.15671e-06 0)
(4.3276e-08 -1.18626e-06 0)
(4.30862e-08 -1.21491e-06 0)
(4.2897e-08 -1.24268e-06 0)
(4.27086e-08 -1.2696e-06 0)
(4.25211e-08 -1.29569e-06 0)
(4.23349e-08 -1.32099e-06 0)
(4.215e-08 -1.34551e-06 0)
(4.19666e-08 -1.36928e-06 0)
(4.17849e-08 -1.39232e-06 0)
(4.16049e-08 -1.41466e-06 0)
(4.14267e-08 -1.43631e-06 0)
(4.12506e-08 -1.4573e-06 0)
(4.10764e-08 -1.47766e-06 0)
(4.09044e-08 -1.49739e-06 0)
(4.07346e-08 -1.51652e-06 0)
(4.0567e-08 -1.53508e-06 0)
(4.04016e-08 -1.55307e-06 0)
(4.02386e-08 -1.57051e-06 0)
(4.0078e-08 -1.58742e-06 0)
(3.99197e-08 -1.60383e-06 0)
(3.97638e-08 -1.61974e-06 0)
(3.96103e-08 -1.63516e-06 0)
(3.94592e-08 -1.65013e-06 0)
(3.93105e-08 -1.66464e-06 0)
(3.91642e-08 -1.67872e-06 0)
(3.90203e-08 -1.69238e-06 0)
(3.88788e-08 -1.70563e-06 0)
(3.87397e-08 -1.71848e-06 0)
(3.86029e-08 -1.73095e-06 0)
(3.84684e-08 -1.74304e-06 0)
(3.83362e-08 -1.75478e-06 0)
(3.82063e-08 -1.76617e-06 0)
(3.80786e-08 -1.77722e-06 0)
(3.79532e-08 -1.78795e-06 0)
(3.78299e-08 -1.79835e-06 0)
(3.77088e-08 -1.80845e-06 0)
(3.75898e-08 -1.81826e-06 0)
(3.74728e-08 -1.82777e-06 0)
(3.73579e-08 -1.83701e-06 0)
(3.72449e-08 -1.84597e-06 0)
(3.71339e-08 -1.85467e-06 0)
(3.70248e-08 -1.86312e-06 0)
(3.69176e-08 -1.87132e-06 0)
(3.68118e-08 -1.87928e-06 0)
(3.67096e-08 -1.88705e-06 0)
(3.66016e-08 -1.89444e-06 0)
(3.64987e-08 -1.90166e-06 0)
(3.64104e-08 -1.90876e-06 0)
(3.6323e-08 -1.91559e-06 0)
(3.62359e-08 -1.92244e-06 0)
(3.61489e-08 -1.92926e-06 0)
(3.6062e-08 -1.93604e-06 0)
(3.59752e-08 -1.94276e-06 0)
(3.58885e-08 -1.94944e-06 0)
(3.5802e-08 -1.95607e-06 0)
(3.57156e-08 -1.96265e-06 0)
(3.56293e-08 -1.96919e-06 0)
(3.55431e-08 -1.97568e-06 0)
(3.54571e-08 -1.98213e-06 0)
(3.53711e-08 -1.98853e-06 0)
(3.52853e-08 -1.99489e-06 0)
(3.51997e-08 -2.00121e-06 0)
(3.51142e-08 -2.00748e-06 0)
(3.50288e-08 -2.0137e-06 0)
(3.49435e-08 -2.01988e-06 0)
(3.48583e-08 -2.02602e-06 0)
(3.4774e-08 -2.03212e-06 0)
(3.46862e-08 -2.03816e-06 0)
(3.46138e-08 -2.04453e-06 0)
(3.44794e-08 -2.04978e-06 0)
(3.43294e-08 -2.05511e-06 0)
(3.42529e-08 -2.06073e-06 0)
(3.4185e-08 -2.06521e-06 0)
(3.41186e-08 -2.06989e-06 0)
(3.40521e-08 -2.07468e-06 0)
(3.39855e-08 -2.07952e-06 0)
(3.39187e-08 -2.08435e-06 0)
(3.38515e-08 -2.08915e-06 0)
(3.37841e-08 -2.09396e-06 0)
(3.37164e-08 -2.09877e-06 0)
(3.36484e-08 -2.10359e-06 0)
(3.35801e-08 -2.10841e-06 0)
(3.35116e-08 -2.11322e-06 0)
(3.34427e-08 -2.11804e-06 0)
(3.33736e-08 -2.12286e-06 0)
(3.33042e-08 -2.12769e-06 0)
(3.32344e-08 -2.13251e-06 0)
(3.31644e-08 -2.13734e-06 0)
(3.30941e-08 -2.14216e-06 0)
(3.30236e-08 -2.14699e-06 0)
(3.29527e-08 -2.15182e-06 0)
(3.28815e-08 -2.15665e-06 0)
(3.28101e-08 -2.16148e-06 0)
(3.27383e-08 -2.16631e-06 0)
(3.26663e-08 -2.17114e-06 0)
(3.25939e-08 -2.17597e-06 0)
(3.25213e-08 -2.18081e-06 0)
(3.24484e-08 -2.18564e-06 0)
(3.23752e-08 -2.19048e-06 0)
(3.23017e-08 -2.19531e-06 0)
(3.22279e-08 -2.20014e-06 0)
(3.21538e-08 -2.20498e-06 0)
(3.20794e-08 -2.20982e-06 0)
(3.20047e-08 -2.21465e-06 0)
(3.19298e-08 -2.21949e-06 0)
(3.18545e-08 -2.22432e-06 0)
(3.17789e-08 -2.22916e-06 0)
(3.17031e-08 -2.234e-06 0)
(3.16269e-08 -2.23883e-06 0)
(3.15505e-08 -2.24367e-06 0)
(3.14737e-08 -2.2485e-06 0)
(3.13967e-08 -2.25333e-06 0)
(3.13193e-08 -2.25817e-06 0)
(3.12417e-08 -2.263e-06 0)
(3.11637e-08 -2.26783e-06 0)
(3.10855e-08 -2.27267e-06 0)
(3.1007e-08 -2.2775e-06 0)
(3.09281e-08 -2.28233e-06 0)
(3.0849e-08 -2.28716e-06 0)
(3.07696e-08 -2.29199e-06 0)
(3.06898e-08 -2.29681e-06 0)
(3.06098e-08 -2.30164e-06 0)
(3.05295e-08 -2.30646e-06 0)
(3.04489e-08 -2.31129e-06 0)
(3.03679e-08 -2.31611e-06 0)
(3.02867e-08 -2.32093e-06 0)
(3.02052e-08 -2.32575e-06 0)
(3.01233e-08 -2.33056e-06 0)
(3.00412e-08 -2.33538e-06 0)
(2.99588e-08 -2.34019e-06 0)
(2.9876e-08 -2.345e-06 0)
(2.9793e-08 -2.34981e-06 0)
(2.97097e-08 -2.35462e-06 0)
(2.96261e-08 -2.35943e-06 0)
(2.95421e-08 -2.36423e-06 0)
(2.94579e-08 -2.36903e-06 0)
(2.93734e-08 -2.37383e-06 0)
(2.92885e-08 -2.37862e-06 0)
(2.92034e-08 -2.38342e-06 0)
(2.9118e-08 -2.38821e-06 0)
(2.90322e-08 -2.39299e-06 0)
(2.89462e-08 -2.39778e-06 0)
(2.88598e-08 -2.40256e-06 0)
(2.87732e-08 -2.40734e-06 0)
(2.86863e-08 -2.41211e-06 0)
(2.8599e-08 -2.41689e-06 0)
(2.85115e-08 -2.42165e-06 0)
(2.84237e-08 -2.42642e-06 0)
(2.83355e-08 -2.43118e-06 0)
(2.82471e-08 -2.43594e-06 0)
(2.81584e-08 -2.44069e-06 0)
(2.80693e-08 -2.44544e-06 0)
(2.798e-08 -2.45019e-06 0)
(2.78904e-08 -2.45493e-06 0)
(2.78005e-08 -2.45967e-06 0)
(2.77102e-08 -2.46441e-06 0)
(2.76197e-08 -2.46914e-06 0)
(2.75289e-08 -2.47386e-06 0)
(2.74378e-08 -2.47858e-06 0)
(2.73464e-08 -2.4833e-06 0)
(2.72547e-08 -2.48801e-06 0)
(2.71627e-08 -2.49272e-06 0)
(2.70704e-08 -2.49742e-06 0)
(2.69778e-08 -2.50212e-06 0)
(2.68849e-08 -2.50681e-06 0)
(2.67917e-08 -2.5115e-06 0)
(2.66983e-08 -2.51618e-06 0)
(2.66045e-08 -2.52085e-06 0)
(2.65104e-08 -2.52552e-06 0)
(2.64161e-08 -2.53019e-06 0)
(2.63215e-08 -2.53485e-06 0)
(2.62265e-08 -2.5395e-06 0)
(2.61313e-08 -2.54415e-06 0)
(2.60358e-08 -2.54879e-06 0)
(2.594e-08 -2.55343e-06 0)
(2.58439e-08 -2.55806e-06 0)
(2.57476e-08 -2.56268e-06 0)
(2.56509e-08 -2.5673e-06 0)
(2.5554e-08 -2.57191e-06 0)
(2.54567e-08 -2.57651e-06 0)
(2.53592e-08 -2.58111e-06 0)
(2.52614e-08 -2.5857e-06 0)
(2.51634e-08 -2.59028e-06 0)
(2.5065e-08 -2.59485e-06 0)
(2.49664e-08 -2.59942e-06 0)
(2.48674e-08 -2.60398e-06 0)
(2.47683e-08 -2.60854e-06 0)
(2.46688e-08 -2.61308e-06 0)
(2.4569e-08 -2.61762e-06 0)
(2.4469e-08 -2.62215e-06 0)
(2.43687e-08 -2.62667e-06 0)
(2.42681e-08 -2.63119e-06 0)
(2.41673e-08 -2.6357e-06 0)
(2.40662e-08 -2.64019e-06 0)
(2.39648e-08 -2.64468e-06 0)
(2.38631e-08 -2.64917e-06 0)
(2.37612e-08 -2.65364e-06 0)
(2.3659e-08 -2.6581e-06 0)
(2.35565e-08 -2.66256e-06 0)
(2.34538e-08 -2.667e-06 0)
(2.33508e-08 -2.67144e-06 0)
(2.32475e-08 -2.67587e-06 0)
(2.3144e-08 -2.68029e-06 0)
(2.30403e-08 -2.6847e-06 0)
(2.29362e-08 -2.6891e-06 0)
(2.28319e-08 -2.69349e-06 0)
(2.27274e-08 -2.69787e-06 0)
(2.26226e-08 -2.70224e-06 0)
(2.25175e-08 -2.7066e-06 0)
(2.24122e-08 -2.71095e-06 0)
(2.23067e-08 -2.71529e-06 0)
(2.22009e-08 -2.71963e-06 0)
(2.20948e-08 -2.72394e-06 0)
(2.19885e-08 -2.72825e-06 0)
(2.1882e-08 -2.73255e-06 0)
(2.17752e-08 -2.73684e-06 0)
(2.16682e-08 -2.74112e-06 0)
(2.15609e-08 -2.74538e-06 0)
(2.14534e-08 -2.74964e-06 0)
(2.13457e-08 -2.75388e-06 0)
(2.12377e-08 -2.75811e-06 0)
(2.11295e-08 -2.76233e-06 0)
(2.10211e-08 -2.76654e-06 0)
(2.09124e-08 -2.77074e-06 0)
(2.08035e-08 -2.77492e-06 0)
(2.06944e-08 -2.77909e-06 0)
(2.05851e-08 -2.78325e-06 0)
(2.04755e-08 -2.7874e-06 0)
(2.03658e-08 -2.79154e-06 0)
(2.02558e-08 -2.79566e-06 0)
(2.01456e-08 -2.79977e-06 0)
(2.00352e-08 -2.80387e-06 0)
(1.99245e-08 -2.80795e-06 0)
(1.98137e-08 -2.81202e-06 0)
(1.97026e-08 -2.81608e-06 0)
(1.95914e-08 -2.82013e-06 0)
(1.94799e-08 -2.82416e-06 0)
(1.93683e-08 -2.82818e-06 0)
(1.92564e-08 -2.83218e-06 0)
(1.91448e-08 -2.83618e-06 0)
(1.90309e-08 -2.84012e-06 0)
(1.89271e-08 -2.84438e-06 0)
(1.87839e-08 -2.84782e-06 0)
(1.8627e-08 -2.85141e-06 0)
(1.85205e-08 -2.85553e-06 0)
(1.84245e-08 -2.85885e-06 0)
(1.83276e-08 -2.86226e-06 0)
(1.82302e-08 -2.86578e-06 0)
(1.81319e-08 -2.86936e-06 0)
(1.80323e-08 -2.87296e-06 0)
(1.79316e-08 -2.87656e-06 0)
(1.78298e-08 -2.88017e-06 0)
(1.77268e-08 -2.88381e-06 0)
(1.76226e-08 -2.88746e-06 0)
(1.75173e-08 -2.89113e-06 0)
(1.74108e-08 -2.89482e-06 0)
(1.73031e-08 -2.89853e-06 0)
(1.71942e-08 -2.90226e-06 0)
(1.70841e-08 -2.90599e-06 0)
(1.69728e-08 -2.90975e-06 0)
(1.68604e-08 -2.91352e-06 0)
(1.67467e-08 -2.91731e-06 0)
(1.66318e-08 -2.92111e-06 0)
(1.65157e-08 -2.92493e-06 0)
(1.63984e-08 -2.92876e-06 0)
(1.62798e-08 -2.93261e-06 0)
(1.616e-08 -2.93647e-06 0)
(1.6039e-08 -2.94034e-06 0)
(1.59167e-08 -2.94423e-06 0)
(1.57932e-08 -2.94812e-06 0)
(1.56684e-08 -2.95203e-06 0)
(1.55424e-08 -2.95595e-06 0)
(1.54151e-08 -2.95988e-06 0)
(1.52865e-08 -2.96382e-06 0)
(1.51567e-08 -2.96777e-06 0)
(1.50256e-08 -2.97172e-06 0)
(1.48932e-08 -2.97569e-06 0)
(1.47595e-08 -2.97966e-06 0)
(1.46246e-08 -2.98364e-06 0)
(1.44883e-08 -2.98762e-06 0)
(1.43508e-08 -2.99161e-06 0)
(1.4212e-08 -2.99561e-06 0)
(1.40719e-08 -2.99961e-06 0)
(1.39305e-08 -3.00361e-06 0)
(1.37878e-08 -3.00761e-06 0)
(1.36438e-08 -3.01162e-06 0)
(1.34986e-08 -3.01563e-06 0)
(1.3352e-08 -3.01964e-06 0)
(1.32041e-08 -3.02364e-06 0)
(1.3055e-08 -3.02765e-06 0)
(1.29045e-08 -3.03165e-06 0)
(1.27528e-08 -3.03564e-06 0)
(1.25998e-08 -3.03964e-06 0)
(1.24455e-08 -3.04362e-06 0)
(1.22899e-08 -3.0476e-06 0)
(1.2133e-08 -3.05158e-06 0)
(1.19749e-08 -3.05554e-06 0)
(1.18155e-08 -3.0595e-06 0)
(1.16548e-08 -3.06344e-06 0)
(1.14929e-08 -3.06737e-06 0)
(1.13297e-08 -3.07129e-06 0)
(1.11653e-08 -3.07519e-06 0)
(1.09996e-08 -3.07908e-06 0)
(1.08327e-08 -3.08295e-06 0)
(1.06646e-08 -3.0868e-06 0)
(1.04953e-08 -3.09064e-06 0)
(1.03248e-08 -3.09445e-06 0)
(1.01531e-08 -3.09824e-06 0)
(9.98024e-09 -3.10201e-06 0)
(9.80621e-09 -3.10575e-06 0)
(9.63102e-09 -3.10947e-06 0)
(9.4547e-09 -3.11316e-06 0)
(9.27726e-09 -3.11682e-06 0)
(9.09871e-09 -3.12045e-06 0)
(8.91907e-09 -3.12404e-06 0)
(8.73837e-09 -3.1276e-06 0)
(8.5566e-09 -3.13113e-06 0)
(8.37381e-09 -3.13462e-06 0)
(8.19e-09 -3.13807e-06 0)
(8.0052e-09 -3.14148e-06 0)
(7.81943e-09 -3.14485e-06 0)
(7.63271e-09 -3.14818e-06 0)
(7.44507e-09 -3.15146e-06 0)
(7.25653e-09 -3.15469e-06 0)
(7.06711e-09 -3.15787e-06 0)
(6.87685e-09 -3.16101e-06 0)
(6.68577e-09 -3.16408e-06 0)
(6.49391e-09 -3.16711e-06 0)
(6.30128e-09 -3.17008e-06 0)
(6.10793e-09 -3.17299e-06 0)
(5.91388e-09 -3.17583e-06 0)
(5.71918e-09 -3.17862e-06 0)
(5.52384e-09 -3.18134e-06 0)
(5.32791e-09 -3.184e-06 0)
(5.13143e-09 -3.18658e-06 0)
(4.93443e-09 -3.1891e-06 0)
(4.73696e-09 -3.19154e-06 0)
(4.53905e-09 -3.19391e-06 0)
(4.34074e-09 -3.1962e-06 0)
(4.14208e-09 -3.19841e-06 0)
(3.94311e-09 -3.20054e-06 0)
(3.74388e-09 -3.20259e-06 0)
(3.54443e-09 -3.20455e-06 0)
(3.34482e-09 -3.20642e-06 0)
(3.14508e-09 -3.2082e-06 0)
(2.94527e-09 -3.2099e-06 0)
(2.74543e-09 -3.21149e-06 0)
(2.54564e-09 -3.21299e-06 0)
(2.34592e-09 -3.21439e-06 0)
(2.14634e-09 -3.21569e-06 0)
(1.94696e-09 -3.21688e-06 0)
(1.74783e-09 -3.21797e-06 0)
(1.54901e-09 -3.21895e-06 0)
(1.35056e-09 -3.21982e-06 0)
(1.15253e-09 -3.22058e-06 0)
(9.54991e-10 -3.22122e-06 0)
(7.58001e-10 -3.22174e-06 0)
(5.61624e-10 -3.22215e-06 0)
(3.65921e-10 -3.22243e-06 0)
(1.70959e-10 -3.22259e-06 0)
(-2.31985e-11 -3.22262e-06 0)
(-2.16486e-10 -3.22253e-06 0)
(-4.08836e-10 -3.2223e-06 0)
(-6.00182e-10 -3.22194e-06 0)
(-7.90456e-10 -3.22145e-06 0)
(-9.79591e-10 -3.22082e-06 0)
(-1.16752e-09 -3.22004e-06 0)
(-1.35416e-09 -3.21914e-06 0)
(-1.53946e-09 -3.21808e-06 0)
(-1.72335e-09 -3.21688e-06 0)
(-1.90574e-09 -3.21553e-06 0)
(-2.08658e-09 -3.21404e-06 0)
(-2.26579e-09 -3.21239e-06 0)
(-2.4433e-09 -3.21059e-06 0)
(-2.61904e-09 -3.20863e-06 0)
(-2.79294e-09 -3.20652e-06 0)
(-2.96493e-09 -3.20425e-06 0)
(-3.13494e-09 -3.20182e-06 0)
(-3.30289e-09 -3.19923e-06 0)
(-3.46872e-09 -3.19648e-06 0)
(-3.63235e-09 -3.19355e-06 0)
(-3.79373e-09 -3.19047e-06 0)
(-3.95275e-09 -3.18722e-06 0)
(-4.10938e-09 -3.1838e-06 0)
(-4.26352e-09 -3.1802e-06 0)
(-4.41512e-09 -3.17645e-06 0)
(-4.56409e-09 -3.17251e-06 0)
(-4.71039e-09 -3.16841e-06 0)
(-4.85391e-09 -3.16412e-06 0)
(-4.99461e-09 -3.15968e-06 0)
(-5.13239e-09 -3.15504e-06 0)
(-5.26723e-09 -3.15024e-06 0)
(-5.39901e-09 -3.14525e-06 0)
(-5.52771e-09 -3.1401e-06 0)
(-5.65322e-09 -3.13476e-06 0)
(-5.77552e-09 -3.12926e-06 0)
(-5.89451e-09 -3.12356e-06 0)
(-6.01018e-09 -3.1177e-06 0)
(-6.12242e-09 -3.11165e-06 0)
(-6.23123e-09 -3.10544e-06 0)
(-6.33651e-09 -3.09904e-06 0)
(-6.43827e-09 -3.09248e-06 0)
(-6.53642e-09 -3.08573e-06 0)
(-6.63097e-09 -3.07882e-06 0)
(-6.72184e-09 -3.07172e-06 0)
(-6.80904e-09 -3.06446e-06 0)
(-6.8925e-09 -3.05702e-06 0)
(-6.97225e-09 -3.04942e-06 0)
(-7.04821e-09 -3.04164e-06 0)
(-7.12042e-09 -3.03371e-06 0)
(-7.18881e-09 -3.0256e-06 0)
(-7.25342e-09 -3.01734e-06 0)
(-7.31417e-09 -3.0089e-06 0)
(-7.37113e-09 -3.00032e-06 0)
(-7.42422e-09 -2.99156e-06 0)
(-7.47349e-09 -2.98266e-06 0)
(-7.51888e-09 -2.9736e-06 0)
(-7.56046e-09 -2.9644e-06 0)
(-7.59814e-09 -2.95503e-06 0)
(-7.63198e-09 -2.94554e-06 0)
(-7.66211e-09 -2.93587e-06 0)
(-7.68768e-09 -2.92613e-06 0)
(-7.71027e-09 -2.91587e-06 0)
(-7.71003e-09 -2.90628e-06 0)
(-7.71566e-09 -2.8952e-06 0)
(-7.73538e-09 -2.8821e-06 0)
(-7.73964e-09 -2.86969e-06 0)
(-7.74137e-09 -2.85726e-06 0)
(-7.73851e-09 -2.84472e-06 0)
(-7.73079e-09 -2.83218e-06 0)
(-7.7185e-09 -2.81964e-06 0)
(-7.70189e-09 -2.80717e-06 0)
(-7.68104e-09 -2.7947e-06 0)
(-7.65626e-09 -2.78229e-06 0)
(-7.62761e-09 -2.7699e-06 0)
(-7.5954e-09 -2.75758e-06 0)
(-7.55968e-09 -2.7453e-06 0)
(-7.52072e-09 -2.73309e-06 0)
(-7.47857e-09 -2.72094e-06 0)
(-7.43351e-09 -2.70887e-06 0)
(-7.38556e-09 -2.69686e-06 0)
(-7.33498e-09 -2.68495e-06 0)
(-7.28178e-09 -2.6731e-06 0)
(-7.22621e-09 -2.66136e-06 0)
(-7.16828e-09 -2.6497e-06 0)
(-7.10822e-09 -2.63815e-06 0)
(-7.04601e-09 -2.62668e-06 0)
(-6.98188e-09 -2.61533e-06 0)
(-6.9158e-09 -2.60406e-06 0)
(-6.84799e-09 -2.59293e-06 0)
(-6.77842e-09 -2.58188e-06 0)
(-6.70727e-09 -2.57098e-06 0)
(-6.63451e-09 -2.56016e-06 0)
(-6.56034e-09 -2.54949e-06 0)
(-6.48469e-09 -2.53892e-06 0)
(-6.40775e-09 -2.52849e-06 0)
(-6.32946e-09 -2.51816e-06 0)
(-6.25e-09 -2.50799e-06 0)
(-6.1693e-09 -2.49792e-06 0)
(-6.08753e-09 -2.48801e-06 0)
(-6.00462e-09 -2.47821e-06 0)
(-5.92073e-09 -2.46856e-06 0)
(-5.8358e-09 -2.45903e-06 0)
(-5.74996e-09 -2.44966e-06 0)
(-5.66315e-09 -2.44041e-06 0)
(-5.57552e-09 -2.43132e-06 0)
(-5.48699e-09 -2.42236e-06 0)
(-5.39769e-09 -2.41355e-06 0)
(-5.30757e-09 -2.40487e-06 0)
(-5.21672e-09 -2.39636e-06 0)
(-5.12511e-09 -2.38798e-06 0)
(-5.03282e-09 -2.37977e-06 0)
(-4.93981e-09 -2.37168e-06 0)
(-4.84618e-09 -2.36377e-06 0)
(-4.75185e-09 -2.35599e-06 0)
(-4.65693e-09 -2.34838e-06 0)
(-4.56136e-09 -2.34091e-06 0)
(-4.46523e-09 -2.33361e-06 0)
(-4.36847e-09 -2.32644e-06 0)
(-4.27117e-09 -2.31946e-06 0)
(-4.17328e-09 -2.31261e-06 0)
(-4.07486e-09 -2.30594e-06 0)
(-3.97586e-09 -2.29941e-06 0)
(-3.87636e-09 -2.29306e-06 0)
(-3.77631e-09 -2.28686e-06 0)
(-3.67576e-09 -2.28083e-06 0)
(-3.57468e-09 -2.27495e-06 0)
(-3.47312e-09 -2.26925e-06 0)
(-3.37105e-09 -2.2637e-06 0)
(-3.26851e-09 -2.25833e-06 0)
(-3.16547e-09 -2.25311e-06 0)
(-3.06199e-09 -2.24807e-06 0)
(-2.95802e-09 -2.24319e-06 0)
(-2.85362e-09 -2.23849e-06 0)
(-2.74876e-09 -2.23395e-06 0)
(-2.64348e-09 -2.22958e-06 0)
(-2.53776e-09 -2.22538e-06 0)
(-2.43164e-09 -2.22136e-06 0)
(-2.32509e-09 -2.2175e-06 0)
(-2.21814e-09 -2.21382e-06 0)
(-2.11079e-09 -2.21031e-06 0)
(-2.00306e-09 -2.20698e-06 0)
(-1.89494e-09 -2.20382e-06 0)
(-1.78645e-09 -2.20083e-06 0)
(-1.67758e-09 -2.19802e-06 0)
(-1.56836e-09 -2.19539e-06 0)
(-1.45879e-09 -2.19294e-06 0)
(-1.34888e-09 -2.19066e-06 0)
(-1.23863e-09 -2.18856e-06 0)
(-1.12806e-09 -2.18665e-06 0)
(-1.01715e-09 -2.18486e-06 0)
(-9.05953e-10 -2.18345e-06 0)
(-7.94331e-10 -2.18156e-06 0)
(-6.82703e-10 -2.18201e-06 0)
(-5.69617e-10 -2.17533e-06 0)
(-4.60872e-10 -2.19218e-06 0)
(-3.35958e-10 -2.12594e-06 0)
(-2.76704e-10 -2.30004e-06 0)
(-1.45514e-10 -2.0085e-06 0)
)
;
    }
    bottomWall
    {
        type            calculated;
        value           nonuniform List<vector> 
449
(
(-52.9296 -0.958273 0)
(-34.8947 -0.00281106 0)
(-34.489 -0.000259799 0)
(-33.1068 -0.00036858 0)
(-31.9655 -0.000318359 0)
(-30.9236 -0.00028544 0)
(-30.0039 -0.000251043 0)
(-29.1941 -0.000220711 0)
(-28.4798 -0.000194426 0)
(-27.8489 -0.000171511 0)
(-27.291 -0.000151843 0)
(-26.7943 -0.000135543 0)
(-26.3474 -0.000122366 0)
(-25.9403 -0.000111739 0)
(-25.5656 -0.000102971 0)
(-25.2181 -9.5567e-05 0)
(-24.8936 -8.91893e-05 0)
(-24.5894 -8.3633e-05 0)
(-24.3027 -7.87212e-05 0)
(-24.0318 -7.43032e-05 0)
(-23.7752 -7.03084e-05 0)
(-23.5315 -6.66637e-05 0)
(-23.2997 -6.33045e-05 0)
(-23.079 -6.02306e-05 0)
(-22.8682 -5.73985e-05 0)
(-22.6668 -5.47461e-05 0)
(-22.4742 -5.22852e-05 0)
(-22.2896 -4.99944e-05 0)
(-22.1127 -4.78529e-05 0)
(-21.9429 -4.58798e-05 0)
(-21.7794 -4.40295e-05 0)
(-21.6223 -4.22675e-05 0)
(-21.4711 -4.06099e-05 0)
(-21.3254 -3.90504e-05 0)
(-21.1848 -3.75926e-05 0)
(-21.0492 -3.62479e-05 0)
(-20.9179 -3.49498e-05 0)
(-20.7913 -3.37397e-05 0)
(-20.6684 -3.25749e-05 0)
(-20.5498 -3.14873e-05 0)
(-20.4344 -3.04372e-05 0)
(-20.3231 -2.94451e-05 0)
(-20.2146 -2.84977e-05 0)
(-20.1099 -2.76118e-05 0)
(-20.0075 -2.67557e-05 0)
(-19.9087 -2.59508e-05 0)
(-19.812 -2.51786e-05 0)
(-19.7186 -2.44427e-05 0)
(-19.627 -2.37465e-05 0)
(-19.5384 -2.30739e-05 0)
(-19.4515 -2.24273e-05 0)
(-19.3675 -2.17948e-05 0)
(-19.285 -2.12234e-05 0)
(-19.205 -2.06582e-05 0)
(-19.1264 -2.01182e-05 0)
(-19.0502 -1.95901e-05 0)
(-18.9754 -1.9097e-05 0)
(-18.9026 -1.86271e-05 0)
(-18.8311 -1.81688e-05 0)
(-18.7615 -1.77292e-05 0)
(-18.6931 -1.73065e-05 0)
(-18.6265 -1.68973e-05 0)
(-18.561 -1.65145e-05 0)
(-18.4971 -1.61393e-05 0)
(-18.4342 -1.57636e-05 0)
(-18.373 -1.53987e-05 0)
(-18.3126 -1.50594e-05 0)
(-18.2538 -1.47295e-05 0)
(-18.1959 -1.44059e-05 0)
(-18.1394 -1.40983e-05 0)
(-18.0835 -1.38156e-05 0)
(-18.029 -1.3537e-05 0)
(-17.9752 -1.32495e-05 0)
(-17.9228 -1.29752e-05 0)
(-17.8709 -1.27182e-05 0)
(-17.8203 -1.24636e-05 0)
(-17.7702 -1.22258e-05 0)
(-17.7213 -1.1993e-05 0)
(-17.6728 -1.17755e-05 0)
(-17.6255 -1.15493e-05 0)
(-17.5787 -1.13206e-05 0)
(-17.5329 -1.11005e-05 0)
(-17.4877 -1.08934e-05 0)
(-17.4435 -1.07027e-05 0)
(-17.3996 -1.05187e-05 0)
(-17.3567 -1.03388e-05 0)
(-17.3141 -1.01453e-05 0)
(-17.2726 -9.94616e-06 0)
(-17.2315 -9.7747e-06 0)
(-17.1912 -9.61332e-06 0)
(-17.1512 -9.45965e-06 0)
(-17.112 -9.30702e-06 0)
(-17.0732 -9.14975e-06 0)
(-17.0351 -9.00049e-06 0)
(-16.9974 -8.85458e-06 0)
(-16.9603 -8.70145e-06 0)
(-16.9237 -8.5527e-06 0)
(-16.8878 -8.41613e-06 0)
(-16.8521 -8.28756e-06 0)
(-16.8171 -8.16542e-06 0)
(-16.7823 -8.03759e-06 0)
(-16.7483 -7.91043e-06 0)
(-16.7144 -7.79596e-06 0)
(-16.6812 -7.68077e-06 0)
(-16.6482 -7.55721e-06 0)
(-16.6158 -7.43967e-06 0)
(-16.5837 -7.32826e-06 0)
(-16.5522 -7.2057e-06 0)
(-16.5209 -7.11076e-06 0)
(-16.4901 -7.00602e-06 0)
(-16.4596 -6.92352e-06 0)
(-16.4294 -6.83287e-06 0)
(-16.3996 -6.74216e-06 0)
(-16.37 -6.65047e-06 0)
(-16.3408 -6.55728e-06 0)
(-16.3119 -6.45412e-06 0)
(-16.2836 -6.35011e-06 0)
(-16.2555 -6.26475e-06 0)
(-16.2277 -6.18635e-06 0)
(-16.2002 -6.09647e-06 0)
(-16.1732 -6.0048e-06 0)
(-16.1463 -5.9353e-06 0)
(-16.1197 -5.86365e-06 0)
(-16.0934 -5.79589e-06 0)
(-16.0673 -5.73105e-06 0)
(-16.0415 -5.66469e-06 0)
(-16.0159 -5.58883e-06 0)
(-15.9906 -5.51284e-06 0)
(-15.9656 -5.43342e-06 0)
(-15.9409 -5.35415e-06 0)
(-15.9165 -5.28377e-06 0)
(-15.8923 -5.21789e-06 0)
(-15.8684 -5.1665e-06 0)
(-15.8446 -5.10853e-06 0)
(-15.8211 -5.04954e-06 0)
(-15.7978 -4.99896e-06 0)
(-15.7747 -4.94579e-06 0)
(-15.7517 -4.88941e-06 0)
(-15.729 -4.83101e-06 0)
(-15.7064 -4.76796e-06 0)
(-15.6842 -4.71711e-06 0)
(-15.6621 -4.6509e-06 0)
(-15.6404 -4.58694e-06 0)
(-15.6187 -4.52041e-06 0)
(-15.5975 -4.4631e-06 0)
(-15.5763 -4.40472e-06 0)
(-15.5556 -4.35318e-06 0)
(-15.5348 -4.31271e-06 0)
(-15.5144 -4.26595e-06 0)
(-15.4939 -4.22177e-06 0)
(-15.4738 -4.17659e-06 0)
(-15.4537 -4.14487e-06 0)
(-15.4338 -4.09235e-06 0)
(-15.4141 -4.05649e-06 0)
(-15.3944 -4.01317e-06 0)
(-15.3751 -3.96491e-06 0)
(-15.3558 -3.91627e-06 0)
(-15.3368 -3.87382e-06 0)
(-15.3179 -3.82946e-06 0)
(-15.2992 -3.77665e-06 0)
(-15.2807 -3.74094e-06 0)
(-15.2623 -3.7018e-06 0)
(-15.2441 -3.66456e-06 0)
(-15.226 -3.64163e-06 0)
(-15.208 -3.61215e-06 0)
(-15.1901 -3.56249e-06 0)
(-15.1724 -3.51896e-06 0)
(-15.1549 -3.48308e-06 0)
(-15.1375 -3.43901e-06 0)
(-15.1204 -3.39867e-06 0)
(-15.1033 -3.36018e-06 0)
(-15.0864 -3.31847e-06 0)
(-15.0697 -3.29987e-06 0)
(-15.0539 -3.28669e-06 0)
(-15.0391 -3.26297e-06 0)
(-15.0241 -3.23637e-06 0)
(-15.0092 -3.2017e-06 0)
(-14.9943 -3.17591e-06 0)
(-14.9792 -3.15049e-06 0)
(-14.9642 -3.10363e-06 0)
(-14.9493 -3.06913e-06 0)
(-14.9343 -3.04041e-06 0)
(-14.9194 -3.00312e-06 0)
(-14.9044 -2.97583e-06 0)
(-14.8895 -2.95415e-06 0)
(-14.8744 -2.92527e-06 0)
(-14.8594 -2.88514e-06 0)
(-14.8444 -2.8419e-06 0)
(-14.8295 -2.80929e-06 0)
(-14.8146 -2.78715e-06 0)
(-14.7996 -2.77191e-06 0)
(-14.7845 -2.73517e-06 0)
(-14.7696 -2.70907e-06 0)
(-14.7545 -2.69553e-06 0)
(-14.7394 -2.66348e-06 0)
(-14.7243 -2.62792e-06 0)
(-14.7093 -2.59085e-06 0)
(-14.6943 -2.5635e-06 0)
(-14.6793 -2.53157e-06 0)
(-14.6643 -2.5049e-06 0)
(-14.6494 -2.47815e-06 0)
(-14.6344 -2.45021e-06 0)
(-14.6194 -2.42384e-06 0)
(-14.6045 -2.40429e-06 0)
(-14.5894 -2.38098e-06 0)
(-14.5744 -2.35872e-06 0)
(-14.5593 -2.35036e-06 0)
(-14.5441 -2.3372e-06 0)
(-14.5288 -2.31765e-06 0)
(-14.5135 -2.29601e-06 0)
(-14.4982 -2.27405e-06 0)
(-14.4829 -2.24821e-06 0)
(-14.4676 -2.20958e-06 0)
(-14.4525 -2.17301e-06 0)
(-14.4374 -2.14887e-06 0)
(-14.4223 -2.12309e-06 0)
(-14.4072 -2.09274e-06 0)
(-14.3922 -2.06061e-06 0)
(-14.3773 -2.02645e-06 0)
(-14.3625 -2.00607e-06 0)
(-14.3476 -1.98528e-06 0)
(-14.3327 -1.96553e-06 0)
(-14.3178 -1.95072e-06 0)
(-14.3028 -1.92729e-06 0)
(-14.2879 -1.91259e-06 0)
(-14.2728 -1.88632e-06 0)
(-14.258 -1.85871e-06 0)
(-14.2431 -1.84874e-06 0)
(-14.2281 -1.81644e-06 0)
(-14.2134 -1.79039e-06 0)
(-14.1985 -1.77316e-06 0)
(-14.1837 -1.74359e-06 0)
(-14.169 -1.73075e-06 0)
(-14.1542 -1.71381e-06 0)
(-14.1394 -1.69943e-06 0)
(-14.1245 -1.69042e-06 0)
(-14.1096 -1.68234e-06 0)
(-14.0945 -1.67022e-06 0)
(-14.0795 -1.64241e-06 0)
(-14.0646 -1.61701e-06 0)
(-14.0497 -1.59425e-06 0)
(-14.0349 -1.56575e-06 0)
(-14.0202 -1.54162e-06 0)
(-14.0055 -1.52614e-06 0)
(-13.9909 -1.50511e-06 0)
(-13.9763 -1.48431e-06 0)
(-13.9617 -1.47577e-06 0)
(-13.9469 -1.46169e-06 0)
(-13.9323 -1.44067e-06 0)
(-13.9177 -1.4221e-06 0)
(-13.9032 -1.40061e-06 0)
(-13.8886 -1.38865e-06 0)
(-13.874 -1.37473e-06 0)
(-13.8595 -1.35428e-06 0)
(-13.845 -1.33462e-06 0)
(-13.8306 -1.3218e-06 0)
(-13.816 -1.31308e-06 0)
(-13.8015 -1.2943e-06 0)
(-13.7871 -1.27832e-06 0)
(-13.7726 -1.26725e-06 0)
(-13.7581 -1.24671e-06 0)
(-13.7438 -1.23174e-06 0)
(-13.7293 -1.22038e-06 0)
(-13.7149 -1.21219e-06 0)
(-13.7004 -1.19762e-06 0)
(-13.686 -1.18176e-06 0)
(-13.6715 -1.16614e-06 0)
(-13.6572 -1.14282e-06 0)
(-13.643 -1.13059e-06 0)
(-13.6287 -1.12548e-06 0)
(-13.6143 -1.12024e-06 0)
(-13.5999 -1.10684e-06 0)
(-13.5855 -1.08589e-06 0)
(-13.5713 -1.06565e-06 0)
(-13.5572 -1.05916e-06 0)
(-13.5428 -1.04736e-06 0)
(-13.5287 -1.03306e-06 0)
(-13.5144 -1.02415e-06 0)
(-13.5002 -1.00825e-06 0)
(-13.4861 -9.89624e-07 0)
(-13.4722 -9.70655e-07 0)
(-13.4583 -9.58374e-07 0)
(-13.4444 -9.52956e-07 0)
(-13.4303 -9.38746e-07 0)
(-13.4165 -9.26282e-07 0)
(-13.4026 -9.16391e-07 0)
(-13.3888 -9.17546e-07 0)
(-13.3745 -9.11536e-07 0)
(-13.3606 -8.95071e-07 0)
(-13.3465 -8.77922e-07 0)
(-13.3328 -8.60538e-07 0)
(-13.319 -8.53668e-07 0)
(-13.3052 -8.43531e-07 0)
(-13.2914 -8.29768e-07 0)
(-13.2778 -8.23224e-07 0)
(-13.2639 -8.14262e-07 0)
(-13.2504 -7.95992e-07 0)
(-13.2368 -7.87826e-07 0)
(-13.2232 -7.71505e-07 0)
(-13.2099 -7.57365e-07 0)
(-13.1965 -7.47509e-07 0)
(-13.1833 -7.26463e-07 0)
(-13.1704 -7.19857e-07 0)
(-13.1571 -7.2313e-07 0)
(-13.1438 -7.28279e-07 0)
(-13.13 -7.21924e-07 0)
(-13.1166 -7.01617e-07 0)
(-13.1033 -6.89435e-07 0)
(-13.0901 -6.78684e-07 0)
(-13.077 -6.68946e-07 0)
(-13.0639 -6.61833e-07 0)
(-13.0507 -6.49811e-07 0)
(-13.0378 -6.4396e-07 0)
(-13.0246 -6.45309e-07 0)
(-13.0113 -6.40526e-07 0)
(-12.998 -6.28291e-07 0)
(-12.985 -6.1715e-07 0)
(-12.9719 -6.09437e-07 0)
(-12.9589 -5.99769e-07 0)
(-12.946 -5.8954e-07 0)
(-12.9332 -5.76962e-07 0)
(-12.9205 -5.7175e-07 0)
(-12.9076 -5.67645e-07 0)
(-12.8948 -5.58844e-07 0)
(-12.8821 -5.46858e-07 0)
(-12.8696 -5.36265e-07 0)
(-12.8571 -5.30411e-07 0)
(-12.8446 -5.25217e-07 0)
(-12.832 -5.20089e-07 0)
(-12.8195 -5.10628e-07 0)
(-12.8072 -5.07325e-07 0)
(-12.7945 -5.0613e-07 0)
(-12.7819 -4.9314e-07 0)
(-12.7697 -4.83593e-07 0)
(-12.7573 -4.81912e-07 0)
(-12.7449 -4.84339e-07 0)
(-12.7321 -4.76868e-07 0)
(-12.7198 -4.66157e-07 0)
(-12.7074 -4.59613e-07 0)
(-12.6951 -4.4957e-07 0)
(-12.683 -4.40571e-07 0)
(-12.671 -4.3646e-07 0)
(-12.6588 -4.31527e-07 0)
(-12.6468 -4.25675e-07 0)
(-12.6346 -4.19962e-07 0)
(-12.6227 -4.10302e-07 0)
(-12.6109 -4.02666e-07 0)
(-12.5991 -3.98288e-07 0)
(-12.5873 -3.9095e-07 0)
(-12.5757 -3.84847e-07 0)
(-12.564 -3.81484e-07 0)
(-12.5524 -3.75811e-07 0)
(-12.5408 -3.73571e-07 0)
(-12.5291 -3.67936e-07 0)
(-12.5163 -3.58387e-07 0)
(-12.5024 -3.52464e-07 0)
(-12.4887 -3.46662e-07 0)
(-12.4754 -3.40564e-07 0)
(-12.4621 -3.3591e-07 0)
(-12.4491 -3.30356e-07 0)
(-12.4363 -3.26574e-07 0)
(-12.4236 -3.23559e-07 0)
(-12.4111 -3.16284e-07 0)
(-12.3989 -3.1293e-07 0)
(-12.3866 -3.12027e-07 0)
(-12.3745 -3.09225e-07 0)
(-12.3625 -3.04325e-07 0)
(-12.3508 -2.99675e-07 0)
(-12.3391 -2.92704e-07 0)
(-12.3279 -2.85262e-07 0)
(-12.3168 -2.83034e-07 0)
(-12.3058 -2.78716e-07 0)
(-12.295 -2.77202e-07 0)
(-12.2842 -2.72346e-07 0)
(-12.2738 -2.63428e-07 0)
(-12.2636 -2.59709e-07 0)
(-12.2535 -2.61966e-07 0)
(-12.2431 -2.5976e-07 0)
(-12.2332 -2.55933e-07 0)
(-12.2231 -2.48656e-07 0)
(-12.2138 -2.39858e-07 0)
(-12.2044 -2.41057e-07 0)
(-12.195 -2.3584e-07 0)
(-12.186 -2.3134e-07 0)
(-12.1769 -2.35356e-07 0)
(-12.1677 -2.36815e-07 0)
(-12.1584 -2.2963e-07 0)
(-12.1497 -2.2273e-07 0)
(-12.1411 -2.16156e-07 0)
(-12.1329 -2.12323e-07 0)
(-12.1245 -2.11263e-07 0)
(-12.1164 -2.09921e-07 0)
(-12.1081 -2.10449e-07 0)
(-12.1 -2.07722e-07 0)
(-12.0919 -2.06165e-07 0)
(-12.0839 -2.03079e-07 0)
(-12.076 -1.98867e-07 0)
(-12.0683 -1.98058e-07 0)
(-12.0606 -1.94385e-07 0)
(-12.0531 -1.92856e-07 0)
(-12.0455 -1.9375e-07 0)
(-12.038 -1.91152e-07 0)
(-12.0306 -1.89649e-07 0)
(-12.0232 -1.87344e-07 0)
(-12.0159 -1.84855e-07 0)
(-12.0088 -1.78346e-07 0)
(-12.002 -1.77523e-07 0)
(-11.9949 -1.75231e-07 0)
(-11.9884 -1.71664e-07 0)
(-11.9815 -1.72343e-07 0)
(-11.9749 -1.71612e-07 0)
(-11.9681 -1.71796e-07 0)
(-11.9615 -1.71915e-07 0)
(-11.9547 -1.70264e-07 0)
(-11.9482 -1.66401e-07 0)
(-11.9417 -1.64237e-07 0)
(-11.9354 -1.62515e-07 0)
(-11.929 -1.59652e-07 0)
(-11.9229 -1.56675e-07 0)
(-11.9168 -1.55198e-07 0)
(-11.9108 -1.5694e-07 0)
(-11.9045 -1.51107e-07 0)
(-11.899 -1.43374e-07 0)
(-11.8934 -1.45974e-07 0)
(-11.8876 -1.45924e-07 0)
(-11.882 -1.44503e-07 0)
(-11.8763 -1.4431e-07 0)
(-11.8707 -1.41667e-07 0)
(-11.8653 -1.42342e-07 0)
(-11.8596 -1.4032e-07 0)
(-11.8543 -1.38027e-07 0)
(-11.8488 -1.37947e-07 0)
(-11.8436 -1.35335e-07 0)
(-11.8382 -1.3619e-07 0)
(-11.8329 -1.34099e-07 0)
(-11.8278 -1.30755e-07 0)
(-11.8227 -1.294e-07 0)
(-11.8177 -1.27042e-07 0)
(-11.8128 -1.30234e-07 0)
(-11.8075 -1.31849e-07 0)
(-11.8025 -1.34135e-07 0)
(-11.797 -1.34898e-07 0)
(-11.7919 -1.35621e-07 0)
(-11.7864 -1.43634e-07 0)
(-11.7807 -1.26989e-07 0)
(-11.7765 -1.54003e-07 0)
(-11.7686 -1.08093e-07 0)
(-11.7682 -1.38608e-07 0)
(-11.7576 -1.38203e-07 0)
)
;
    }
    symmetry
    {
        type            symmetryPlane;
    }
    frontAndBack
    {
        type            empty;
    }
}


// ************************************************************************* //
