/*--------------------------------*- C++ -*----------------------------------*\
| =========                 |                                                 |
| \\      /  F ield         | OpenFOAM: The Open Source CFD Toolbox           |
|  \\    /   O peration     | Version:  v2012                                 |
|   \\  /    A nd           | Website:  www.openfoam.com                      |
|    \\/     M anipulation  |                                                 |
\*---------------------------------------------------------------------------*/
FoamFile
{
    version     2.0;
    format      ascii;
    class       volScalarField;
    location    "19.5";
    object      yPlus;
}
// * * * * * * * * * * * * * * * * * * * * * * * * * * * * * * * * * * * * * //

dimensions      [0 0 0 0 0 0 0];


internalField   uniform 0;

boundaryField
{
    inlet
    {
        type            calculated;
        value           uniform 0;
    }
    outlet
    {
        type            calculated;
        value           uniform 0;
    }
    topWall
    {
        type            calculated;
        value           nonuniform List<scalar> 
545
(
0.125998
0.21764
0.278954
0.327758
0.369066
0.405194
0.437449
0.466651
0.493359
0.517976
0.540801
0.56207
0.581967
0.600643
0.618222
0.63481
0.650495
0.665353
0.679452
0.692849
0.705595
0.717738
0.729317
0.74037
0.750929
0.761025
0.770686
0.779937
0.788801
0.797299
0.805451
0.813275
0.820788
0.828007
0.834945
0.841616
0.848033
0.854208
0.860153
0.865878
0.871392
0.876706
0.881828
0.886766
0.891529
0.896123
0.900557
0.904836
0.908967
0.912956
0.916808
0.92053
0.924126
0.927601
0.930961
0.934208
0.937349
0.940386
0.943323
0.946165
0.948915
0.951576
0.954152
0.956645
0.959059
0.961396
0.963659
0.965851
0.967975
0.970032
0.972024
0.973955
0.975802
0.977586
0.979356
0.98111
0.982848
0.984571
0.98628
0.987973
0.989652
0.991316
0.992966
0.994602
0.996224
0.997831
0.999425
1.00101
1.00257
1.00413
1.00567
1.00719
1.00871
1.01021
1.0117
1.01317
1.0145
1.01568
1.01686
1.01805
1.01923
1.02041
1.02159
1.02276
1.02394
1.02512
1.02629
1.02747
1.02864
1.02981
1.03099
1.03216
1.03333
1.03449
1.03566
1.03683
1.03799
1.03916
1.04032
1.04148
1.04264
1.0438
1.04496
1.04612
1.04728
1.04843
1.04958
1.05074
1.05189
1.05304
1.05419
1.05534
1.05648
1.05763
1.05877
1.05992
1.06106
1.0622
1.06334
1.06447
1.06561
1.06674
1.06788
1.06901
1.07014
1.07127
1.0724
1.07352
1.07465
1.07577
1.07689
1.07801
1.07913
1.08025
1.08136
1.08248
1.08359
1.0847
1.08581
1.08692
1.08802
1.08913
1.09023
1.09133
1.09243
1.09353
1.09462
1.09572
1.09681
1.0979
1.09899
1.10007
1.10116
1.10224
1.10332
1.1044
1.10548
1.10655
1.10763
1.1087
1.10977
1.11084
1.1119
1.11297
1.11403
1.11509
1.11615
1.1172
1.11825
1.11931
1.12035
1.1214
1.12245
1.12349
1.12453
1.12557
1.1266
1.12764
1.12867
1.1297
1.13073
1.13175
1.13277
1.13379
1.13481
1.13583
1.13684
1.13785
1.13886
1.13986
1.14087
1.14187
1.14286
1.14386
1.14485
1.14584
1.14683
1.14782
1.1488
1.14978
1.15076
1.15173
1.1527
1.15367
1.15464
1.1556
1.15657
1.15752
1.15848
1.15943
1.16038
1.16133
1.16227
1.16322
1.16415
1.16509
1.16602
1.16695
1.16788
1.1688
1.16972
1.17064
1.17155
1.17247
1.17337
1.17428
1.17518
1.17608
1.17698
1.17787
1.17876
1.17964
1.18053
1.18141
1.18228
1.18316
1.18403
1.18489
1.18576
1.18662
1.18747
1.18832
1.18917
1.19002
1.19086
1.1917
1.19254
1.19337
1.1942
1.19497
1.1957
1.19644
1.19717
1.19791
1.19866
1.19941
1.20016
1.20091
1.20167
1.20243
1.2032
1.20397
1.20474
1.20551
1.20629
1.20707
1.20785
1.20863
1.20942
1.21021
1.21101
1.2118
1.2126
1.2134
1.2142
1.215
1.21581
1.21662
1.21742
1.21823
1.21905
1.21986
1.22067
1.22149
1.2223
1.22312
1.22394
1.22475
1.22557
1.22639
1.22721
1.22803
1.22884
1.22966
1.23047
1.23129
1.2321
1.23292
1.23373
1.23454
1.23534
1.23615
1.23695
1.23775
1.23855
1.23935
1.24014
1.24093
1.24171
1.24249
1.24327
1.24404
1.24481
1.24557
1.24633
1.24708
1.24783
1.24857
1.24931
1.25003
1.25075
1.25147
1.25217
1.25287
1.25356
1.25424
1.25492
1.25558
1.25624
1.25688
1.25752
1.25814
1.25875
1.25936
1.25995
1.26053
1.26109
1.26165
1.26219
1.26272
1.26323
1.26373
1.26421
1.26468
1.26514
1.26558
1.266
1.2664
1.26679
1.26716
1.26752
1.26785
1.26817
1.26847
1.26874
1.269
1.26924
1.26945
1.26965
1.26982
1.26997
1.2701
1.2702
1.27028
1.27034
1.27037
1.27038
1.27036
1.27032
1.27025
1.27015
1.27003
1.26988
1.2697
1.26949
1.26926
1.26899
1.2687
1.26837
1.26802
1.26763
1.26722
1.26677
1.26629
1.26578
1.26524
1.26466
1.26405
1.26341
1.26273
1.26202
1.26128
1.26049
1.25968
1.25883
1.25795
1.25702
1.25607
1.25508
1.25405
1.25298
1.25189
1.25075
1.24957
1.24836
1.24712
1.24583
1.24452
1.24316
1.24177
1.24034
1.23887
1.23737
1.23583
1.23425
1.23264
1.231
1.22932
1.2276
1.22585
1.22406
1.22224
1.22038
1.21849
1.21657
1.21461
1.21262
1.2106
1.20854
1.20646
1.20412
1.20151
1.19889
1.19627
1.19364
1.19102
1.18838
1.18575
1.18311
1.18048
1.17785
1.17523
1.17261
1.17
1.1674
1.16481
1.16222
1.15965
1.15709
1.15455
1.15202
1.14951
1.147
1.14452
1.14206
1.13961
1.13718
1.13478
1.13239
1.13003
1.12768
1.12536
1.12307
1.12079
1.11854
1.11632
1.11412
1.11195
1.1098
1.10769
1.10559
1.10353
1.1015
1.09949
1.09752
1.09557
1.09365
1.09177
1.08992
1.0881
1.0863
1.08455
1.08282
1.08113
1.07947
1.07785
1.07626
1.0747
1.07318
1.0717
1.07025
1.06884
1.06746
1.06612
1.06482
1.06355
1.06232
1.06114
1.05998
1.05887
1.0578
1.05676
1.05577
1.05481
1.0539
1.05302
1.05219
1.05139
1.05064
1.04993
1.04926
1.04863
1.04804
1.0475
1.047
1.04654
1.04612
1.04575
1.04542
1.04513
1.04488
1.04468
1.04452
1.04443
1.0443
)
;
    }
    bottomWall
    {
        type            calculated;
        value           nonuniform List<scalar> 
449
(
0.002749
0.00482017
0.00539249
0.00534258
0.00526916
0.00517257
0.00507485
0.00498172
0.00489532
0.00481645
0.00474521
0.00468072
0.00462184
0.00456739
0.00451654
0.0044687
0.00442345
0.0043805
0.00433954
0.00430045
0.00426306
0.00422724
0.00419292
0.00415999
0.00412833
0.00409791
0.00406865
0.00404048
0.00401335
0.00398719
0.00396191
0.00393752
0.00391395
0.00389117
0.00386914
0.00384781
0.0038271
0.00380708
0.00378758
0.00376875
0.00375036
0.00373262
0.00371525
0.00369849
0.00368204
0.00366618
0.00365057
0.00363552
0.00362069
0.00360638
0.00359226
0.00357865
0.00356521
0.00355221
0.00353939
0.00352697
0.00351473
0.00350284
0.00349111
0.00347972
0.00346847
0.00345755
0.00344676
0.00343625
0.00342587
0.00341579
0.00340583
0.00339612
0.00338652
0.00337718
0.00336793
0.0033589
0.00334995
0.00334125
0.00333262
0.00332421
0.00331587
0.00330773
0.00329965
0.00329175
0.00328393
0.0032763
0.00326874
0.00326134
0.003254
0.00324681
0.00323966
0.00323271
0.00322581
0.00321905
0.00321233
0.00320574
0.0031992
0.0031928
0.00318643
0.0031802
0.00317401
0.00316796
0.00316194
0.00315603
0.00315015
0.00314439
0.00313866
0.00313304
0.00312744
0.00312197
0.00311651
0.00311118
0.00310587
0.00310065
0.00309547
0.00309032
0.00308525
0.00308022
0.00307526
0.00307034
0.00306551
0.00306073
0.003056
0.00305131
0.0030467
0.00304212
0.00303759
0.00303309
0.00302863
0.0030242
0.00301982
0.00301549
0.00301121
0.00300699
0.00300281
0.00299867
0.00299457
0.00299049
0.00298645
0.00298244
0.00297846
0.0029745
0.00297059
0.00296671
0.00296288
0.00295906
0.00295533
0.0029516
0.00294796
0.00294431
0.00294075
0.00293715
0.00293364
0.0029301
0.00292664
0.00292315
0.00291972
0.00291631
0.00291291
0.00290956
0.00290622
0.00290294
0.00289966
0.00289643
0.00289323
0.00289005
0.0028869
0.00288375
0.00288062
0.00287751
0.00287445
0.00287141
0.0028684
0.00286542
0.00286247
0.00285955
0.00285666
0.00285391
0.00285134
0.00284875
0.00284616
0.00284356
0.00284095
0.00283834
0.00283575
0.00283314
0.00283054
0.00282794
0.00282533
0.0028227
0.00282009
0.00281748
0.0028149
0.00281229
0.00280969
0.00280705
0.00280446
0.0028018
0.00279918
0.00279654
0.00279393
0.00279132
0.00278871
0.00278611
0.0027835
0.00278089
0.00277829
0.00277568
0.00277306
0.00277044
0.0027678
0.00276513
0.00276245
0.00275976
0.00275707
0.00275437
0.00275169
0.00274903
0.00274639
0.00274374
0.00274111
0.00273849
0.00273589
0.00273331
0.0027307
0.00272811
0.0027255
0.00272288
0.00272027
0.00271763
0.00271504
0.00271243
0.0027098
0.00270723
0.00270462
0.00270205
0.00269948
0.00269687
0.00269429
0.00269166
0.00268903
0.00268635
0.0026837
0.00268106
0.00267844
0.00267583
0.00267326
0.00267068
0.0026681
0.00266554
0.00266297
0.00266037
0.00265779
0.00265521
0.00265265
0.00265009
0.00264751
0.00264494
0.00264239
0.00263984
0.00263728
0.0026347
0.00263215
0.00262959
0.00262702
0.00262449
0.00262192
0.00261937
0.00261678
0.00261423
0.00261165
0.00260913
0.00260661
0.00260408
0.00260151
0.00259893
0.00259636
0.00259384
0.00259132
0.00258876
0.00258624
0.00258369
0.00258115
0.00257863
0.00257615
0.00257369
0.00257121
0.0025687
0.00256625
0.00256375
0.00256128
0.0025587
0.0025562
0.00255366
0.00255122
0.00254874
0.00254628
0.0025438
0.00254137
0.00253886
0.00253643
0.00253399
0.00253156
0.00252919
0.0025268
0.00252445
0.00252216
0.00251978
0.00251738
0.00251487
0.00251246
0.00251008
0.00250771
0.00250535
0.002503
0.00250063
0.00249832
0.00249593
0.00249353
0.00249111
0.00248875
0.00248638
0.00248403
0.00248169
0.00247939
0.0024771
0.00247478
0.00247247
0.00247017
0.00246793
0.00246569
0.00246343
0.00246118
0.00245891
0.00245669
0.00245439
0.00245212
0.0024499
0.00244767
0.0024454
0.00244307
0.00244083
0.00243857
0.00243634
0.00243414
0.00243196
0.00242974
0.00242755
0.00242534
0.00242316
0.00242102
0.00241889
0.00241674
0.00241465
0.00241252
0.00241041
0.0024083
0.00240616
0.00240382
0.00240128
0.00239878
0.00239634
0.00239394
0.00239158
0.00238926
0.00238694
0.00238466
0.00238246
0.00238021
0.00237799
0.00237577
0.00237362
0.00237147
0.00236944
0.00236741
0.0023654
0.00236342
0.00236141
0.00235951
0.00235766
0.00235581
0.00235389
0.00235207
0.00235021
0.00234851
0.00234681
0.00234507
0.00234344
0.00234176
0.00234003
0.0023383
0.00233669
0.00233508
0.00233359
0.00233205
0.00233057
0.00232904
0.00232754
0.00232606
0.00232459
0.00232316
0.00232176
0.00232034
0.002319
0.00231759
0.00231621
0.00231484
0.00231348
0.00231213
0.00231081
0.00230958
0.00230826
0.00230707
0.00230581
0.00230459
0.00230334
0.00230211
0.00230084
0.00229964
0.00229844
0.00229726
0.00229609
0.00229496
0.00229384
0.00229273
0.00229157
0.00229057
0.00228954
0.00228848
0.00228743
0.00228638
0.00228534
0.00228434
0.00228329
0.00228232
0.00228131
0.00228034
0.00227936
0.00227837
0.00227742
0.00227648
0.00227556
0.00227466
0.00227368
0.00227276
0.00227174
0.00227082
0.00226976
0.00226874
0.0022679
0.00226656
0.00226626
0.0022645
)
;
    }
    symmetry
    {
        type            symmetryPlane;
    }
    frontAndBack
    {
        type            empty;
    }
}


// ************************************************************************* //
