/*--------------------------------*- C++ -*----------------------------------*\
| =========                 |                                                 |
| \\      /  F ield         | OpenFOAM: The Open Source CFD Toolbox           |
|  \\    /   O peration     | Version:  v2012                                 |
|   \\  /    A nd           | Website:  www.openfoam.com                      |
|    \\/     M anipulation  |                                                 |
\*---------------------------------------------------------------------------*/
FoamFile
{
    version     2.0;
    format      ascii;
    class       volScalarField;
    location    "35.5";
    object      yPlus;
}
// * * * * * * * * * * * * * * * * * * * * * * * * * * * * * * * * * * * * * //

dimensions      [0 0 0 0 0 0 0];


internalField   uniform 0;

boundaryField
{
    inlet
    {
        type            calculated;
        value           uniform 0;
    }
    outlet
    {
        type            calculated;
        value           uniform 0;
    }
    topWall
    {
        type            calculated;
        value           nonuniform List<scalar> 
545
(
0.0708178
0.122111
0.15665
0.184127
0.207376
0.227705
0.245849
0.26227
0.277284
0.291116
0.303936
0.315877
0.327043
0.337519
0.347374
0.356669
0.365454
0.373771
0.381658
0.389149
0.396273
0.403055
0.409518
0.415684
0.421572
0.427198
0.432579
0.437728
0.442659
0.447383
0.451913
0.456259
0.460429
0.464433
0.46828
0.471977
0.475532
0.478951
0.48224
0.485406
0.488455
0.491391
0.49422
0.496946
0.499574
0.502108
0.504553
0.506911
0.509187
0.511384
0.513505
0.515553
0.517532
0.519443
0.52129
0.523076
0.524802
0.52647
0.528084
0.529645
0.531155
0.532616
0.534029
0.535398
0.536722
0.538005
0.539247
0.540449
0.541614
0.542742
0.543835
0.544894
0.545907
0.546887
0.547857
0.548819
0.549772
0.550717
0.551653
0.552581
0.5535
0.554412
0.555315
0.55621
0.557098
0.557978
0.55885
0.559714
0.560571
0.56142
0.562262
0.563096
0.563923
0.564743
0.565556
0.566362
0.567087
0.567736
0.568383
0.56903
0.569677
0.570322
0.570967
0.571612
0.572255
0.572898
0.57354
0.574182
0.574823
0.575463
0.576102
0.576741
0.577379
0.578016
0.578653
0.579288
0.579923
0.580557
0.581191
0.581823
0.582455
0.583086
0.583716
0.584346
0.584974
0.585602
0.586229
0.586855
0.58748
0.588104
0.588727
0.58935
0.589972
0.590592
0.591212
0.591831
0.592449
0.593066
0.593682
0.594297
0.594912
0.595525
0.596137
0.596749
0.597359
0.597968
0.598577
0.599184
0.59979
0.600396
0.601
0.601603
0.602205
0.602807
0.603407
0.604006
0.604604
0.6052
0.605796
0.606391
0.606984
0.607576
0.608168
0.608758
0.609347
0.609934
0.610521
0.611106
0.61169
0.612273
0.612855
0.613436
0.614015
0.614593
0.61517
0.615745
0.61632
0.616893
0.617464
0.618035
0.618604
0.619172
0.619738
0.620303
0.620867
0.62143
0.621991
0.622551
0.623109
0.623666
0.624221
0.624776
0.625328
0.62588
0.62643
0.626978
0.627525
0.62807
0.628614
0.629157
0.629698
0.630237
0.630775
0.631312
0.631847
0.63238
0.632912
0.633442
0.633971
0.634498
0.635024
0.635547
0.63607
0.63659
0.637109
0.637627
0.638142
0.638656
0.639169
0.639679
0.640188
0.640695
0.641201
0.641705
0.642207
0.642707
0.643205
0.643702
0.644197
0.64469
0.645181
0.645671
0.646159
0.646644
0.647128
0.647611
0.648091
0.648569
0.649046
0.64952
0.649993
0.650464
0.650932
0.651399
0.651864
0.652327
0.652788
0.653247
0.653704
0.654159
0.654612
0.655063
0.655512
0.655958
0.656403
0.656846
0.657286
0.657725
0.658161
0.658596
0.659028
0.659458
0.659886
0.660311
0.660735
0.661156
0.661575
0.661992
0.662407
0.662797
0.663163
0.663531
0.6639
0.66427
0.664642
0.665015
0.665389
0.665764
0.666141
0.666518
0.666897
0.667277
0.667657
0.668039
0.668421
0.668804
0.669188
0.669572
0.669957
0.670343
0.670729
0.671116
0.671503
0.67189
0.672278
0.672665
0.673053
0.673441
0.673829
0.674217
0.674604
0.674992
0.675379
0.675765
0.676151
0.676537
0.676921
0.677305
0.677688
0.67807
0.678451
0.678831
0.67921
0.679587
0.679962
0.680336
0.680709
0.681079
0.681448
0.681814
0.682178
0.68254
0.6829
0.683257
0.683611
0.683963
0.684311
0.684656
0.684998
0.685337
0.685672
0.686004
0.686331
0.686655
0.686974
0.687289
0.6876
0.687906
0.688207
0.688503
0.688795
0.68908
0.689361
0.689635
0.689904
0.690166
0.690423
0.690673
0.690916
0.691153
0.691382
0.691605
0.69182
0.692027
0.692227
0.692418
0.692601
0.692776
0.692943
0.6931
0.693248
0.693387
0.693517
0.693636
0.693746
0.693846
0.693935
0.694014
0.694081
0.694138
0.694183
0.694217
0.694239
0.694249
0.694247
0.694232
0.694204
0.694164
0.694111
0.694044
0.693963
0.693869
0.693761
0.693638
0.693501
0.693349
0.693182
0.693
0.692803
0.69259
0.692361
0.692116
0.691855
0.691578
0.691284
0.690973
0.690645
0.6903
0.689938
0.689558
0.68916
0.688744
0.688311
0.687859
0.687389
0.6869
0.686393
0.685867
0.685322
0.684758
0.684174
0.683572
0.68295
0.682309
0.681649
0.680969
0.680269
0.67955
0.678811
0.678052
0.677274
0.676476
0.675658
0.67482
0.673963
0.673086
0.672189
0.671273
0.670337
0.669382
0.668408
0.667414
0.666401
0.665369
0.664319
0.663249
0.662161
0.661055
0.659931
0.658788
0.657628
0.656451
0.655256
0.654044
0.652815
0.65157
0.650309
0.649032
0.647739
0.646431
0.64496
0.643333
0.641706
0.640082
0.63846
0.636841
0.635227
0.633618
0.632015
0.630418
0.628828
0.627246
0.625673
0.624108
0.622553
0.621007
0.619472
0.617948
0.616436
0.614935
0.613447
0.611971
0.610508
0.609059
0.607623
0.606201
0.604794
0.603401
0.602023
0.600661
0.599314
0.597983
0.596667
0.595368
0.594086
0.59282
0.591571
0.590339
0.589124
0.587927
0.586747
0.585586
0.584442
0.583317
0.58221
0.581121
0.580052
0.579001
0.577969
0.576957
0.575964
0.57499
0.574036
0.573102
0.572188
0.571294
0.57042
0.569567
0.568734
0.567922
0.56713
0.56636
0.565611
0.564883
0.564176
0.563491
0.562827
0.562185
0.561565
0.560967
0.560391
0.559837
0.559306
0.558797
0.55831
0.557847
0.557405
0.556987
0.556592
0.556219
0.55587
0.555544
0.555241
0.554961
0.554705
0.554472
0.554263
0.554077
0.553915
0.553776
0.553661
0.55357
0.553502
0.553461
0.553431
)
;
    }
    bottomWall
    {
        type            calculated;
        value           nonuniform List<scalar> 
449
(
0.139458
0.088964
0.075813
0.0694409
0.0652575
0.062131
0.059636
0.0575724
0.0558215
0.0543053
0.0529715
0.0517839
0.0507159
0.0497474
0.0488626
0.0480494
0.0472979
0.0466
0.0459492
0.04534
0.0447678
0.0442288
0.0437194
0.043237
0.0427791
0.0423433
0.0419279
0.0415312
0.0411517
0.0407881
0.0404392
0.0401039
0.0397813
0.0394706
0.0391709
0.0388816
0.0386021
0.0383316
0.0380698
0.0378161
0.0375701
0.0373313
0.0370993
0.0368739
0.0366546
0.0364412
0.0362334
0.0360309
0.0358335
0.035641
0.035453
0.0352695
0.0350902
0.034915
0.0347437
0.0345761
0.0344121
0.0342515
0.0340943
0.0339402
0.0337892
0.0336412
0.033496
0.0333535
0.0332138
0.0330765
0.0329418
0.0328094
0.0326794
0.0325516
0.0324259
0.0323024
0.0321809
0.0320613
0.0319437
0.031828
0.031714
0.0316018
0.0314913
0.0313825
0.0312752
0.0311695
0.0310654
0.0309627
0.0308614
0.0307616
0.0306631
0.030566
0.0304701
0.0303755
0.0302822
0.03019
0.030099
0.0300092
0.0299205
0.0298329
0.0297463
0.0296608
0.0295763
0.0294928
0.0294103
0.0293287
0.0292481
0.0291684
0.0290895
0.0290116
0.0289344
0.0288582
0.0287827
0.0287081
0.0286342
0.0285611
0.0284888
0.0284172
0.0283463
0.0282762
0.0282067
0.0281379
0.0280698
0.0280024
0.0279356
0.0278694
0.0278039
0.027739
0.0276747
0.0276109
0.0275478
0.0274852
0.0274232
0.0273617
0.0273008
0.0272404
0.0271805
0.0271212
0.0270623
0.027004
0.0269461
0.0268887
0.0268318
0.0267754
0.0267194
0.0266639
0.0266088
0.0265541
0.0264999
0.0264461
0.0263928
0.0263398
0.0262872
0.0262351
0.0261833
0.026132
0.026081
0.0260303
0.0259801
0.0259302
0.0258807
0.0258315
0.0257827
0.0257343
0.0256861
0.0256383
0.0255909
0.0255438
0.0254969
0.0254505
0.0254043
0.0253584
0.0253128
0.0252676
0.0252226
0.0251779
0.0251336
0.025092
0.0250529
0.0250136
0.0249742
0.0249348
0.0248952
0.0248555
0.0248157
0.0247758
0.0247357
0.0246956
0.0246554
0.0246151
0.0245746
0.0245341
0.0244934
0.0244527
0.0244118
0.0243709
0.0243299
0.0242887
0.0242475
0.0242062
0.0241648
0.0241233
0.0240817
0.02404
0.0239982
0.0239564
0.0239144
0.0238724
0.0238303
0.0237881
0.0237459
0.0237035
0.0236611
0.0236186
0.023576
0.0235334
0.0234907
0.0234479
0.023405
0.0233621
0.0233191
0.0232761
0.023233
0.0231898
0.0231465
0.0231032
0.0230599
0.0230164
0.022973
0.0229294
0.0228858
0.0228422
0.0227985
0.0227548
0.022711
0.0226671
0.0226232
0.0225793
0.0225353
0.0224913
0.0224472
0.0224031
0.022359
0.0223148
0.0222706
0.0222264
0.0221821
0.0221378
0.0220934
0.022049
0.0220046
0.0219602
0.0219157
0.0218712
0.0218267
0.0217822
0.0217376
0.0216931
0.0216485
0.0216039
0.0215592
0.0215146
0.0214699
0.0214252
0.0213806
0.0213359
0.0212912
0.0212464
0.0212017
0.021157
0.0211123
0.0210675
0.0210228
0.020978
0.0209333
0.0208885
0.0208438
0.0207991
0.0207543
0.0207096
0.0206649
0.0206201
0.0205754
0.0205307
0.020486
0.0204413
0.0203967
0.020352
0.0203074
0.0202627
0.0202181
0.0201735
0.020129
0.0200844
0.0200399
0.0199953
0.0199508
0.0199064
0.0198619
0.0198175
0.0197731
0.0197287
0.0196844
0.01964
0.0195958
0.0195515
0.0195073
0.0194631
0.0194189
0.0193748
0.0193307
0.0192866
0.0192426
0.0191986
0.0191547
0.0191107
0.0190669
0.019023
0.0189792
0.0189355
0.0188918
0.0188481
0.0188045
0.0187609
0.0187174
0.0186739
0.0186305
0.0185871
0.0185437
0.0185004
0.0184572
0.018414
0.0183708
0.0183277
0.0182847
0.0182417
0.0181988
0.0181559
0.0181131
0.0180703
0.0180276
0.0179849
0.0179423
0.0178998
0.0178573
0.0178149
0.0177725
0.0177302
0.017688
0.0176458
0.0176037
0.0175616
0.0175196
0.0174777
0.0174358
0.017394
0.0173523
0.0173106
0.0172642
0.0172139
0.0171643
0.0171153
0.0170671
0.0170195
0.0169727
0.0169264
0.0168809
0.0168359
0.0167916
0.0167478
0.0167047
0.0166621
0.01662
0.0165786
0.0165376
0.0164972
0.0164572
0.0164178
0.0163788
0.0163404
0.0163024
0.0162648
0.0162277
0.016191
0.0161548
0.0161189
0.0160835
0.0160485
0.0160139
0.0159796
0.0159458
0.0159123
0.0158791
0.0158464
0.0158139
0.0157819
0.0157501
0.0157187
0.0156876
0.0156568
0.0156264
0.0155962
0.0155664
0.0155368
0.0155075
0.0154786
0.0154499
0.0154214
0.0153933
0.0153654
0.0153378
0.0153104
0.0152833
0.0152564
0.0152298
0.0152034
0.0151773
0.0151514
0.0151257
0.0151002
0.015075
0.01505
0.0150252
0.0150006
0.0149762
0.014952
0.014928
0.0149043
0.0148807
0.0148573
0.0148341
0.014811
0.0147882
0.0147655
0.014743
0.0147207
0.0146986
0.0146766
0.0146548
0.0146331
0.0146116
0.0145902
0.014569
0.0145478
0.0145268
0.014506
0.0144851
0.0144642
0.014444
0.0144239
0.0143906
0.0144092
0.0143506
)
;
    }
    symmetry
    {
        type            symmetryPlane;
    }
    frontAndBack
    {
        type            empty;
    }
}


// ************************************************************************* //
