/*--------------------------------*- C++ -*----------------------------------*\
| =========                 |                                                 |
| \\      /  F ield         | OpenFOAM: The Open Source CFD Toolbox           |
|  \\    /   O peration     | Version:  v2012                                 |
|   \\  /    A nd           | Website:  www.openfoam.com                      |
|    \\/     M anipulation  |                                                 |
\*---------------------------------------------------------------------------*/
FoamFile
{
    version     2.0;
    format      ascii;
    class       volScalarField;
    location    "26";
    object      k;
}
// * * * * * * * * * * * * * * * * * * * * * * * * * * * * * * * * * * * * * //

dimensions      [0 2 -2 0 0 0 0];


internalField   nonuniform List<scalar> 
209825
(
0.00102186
0.000930245
0.000865633
0.000821222
0.000790114
0.000767576
0.00075069
0.00073767
0.000727396
0.000719128
0.000712373
0.000706775
0.000702085
0.000698115
0.000694725
0.000691809
0.000689282
0.00068708
0.000685143
0.000683445
0.000681935
0.000680601
0.000679397
0.000678334
0.000677369
0.000676509
0.000675714
0.000675015
0.000674362
0.000673792
0.000673243
0.000672775
0.000672328
0.000671931
0.000671542
0.000671217
0.000670901
0.000670635
0.000670359
0.000670142
0.000669922
0.000669735
0.000669532
0.000669396
0.000669231
0.000669083
0.000668947
0.00066885
0.000668755
0.000668696
0.000668605
0.000668527
0.000668463
0.000668422
0.00066834
0.000668295
0.000668262
0.000668175
0.000668182
0.000668182
0.000668162
0.00066823
0.00066823
0.000668327
0.000668398
0.000668528
0.000668612
0.000668768
0.000668834
0.000668959
0.000669015
0.00066916
0.000669259
0.000669437
0.000669529
0.000669721
0.000669821
0.000670028
0.000670136
0.000670366
0.000670492
0.000670754
0.000670892
0.000671178
0.000671333
0.000671659
0.000671838
0.000672221
0.000672427
0.000672902
0.000673113
0.000673822
0.000674086
0.000684643
0.000725617
0.00184459
0.00102186
0.000930245
0.000865631
0.000821216
0.000790106
0.000767566
0.000750679
0.000737656
0.000727382
0.000719112
0.000712357
0.000706757
0.000702067
0.000698097
0.000694706
0.000691789
0.000689262
0.000687059
0.000685122
0.000683424
0.000681914
0.00068058
0.000679376
0.000678313
0.000677347
0.000676487
0.000675692
0.000674993
0.00067434
0.00067377
0.00067322
0.000672752
0.000672305
0.000671908
0.000671519
0.000671194
0.000670878
0.000670611
0.000670336
0.000670119
0.000669898
0.000669712
0.000669508
0.000669372
0.000669208
0.00066906
0.000668924
0.000668826
0.000668731
0.000668673
0.000668581
0.000668503
0.00066844
0.000668399
0.000668317
0.000668271
0.000668238
0.000668151
0.000668159
0.000668158
0.000668138
0.000668206
0.000668207
0.000668303
0.000668375
0.000668504
0.000668588
0.000668744
0.00066881
0.000668935
0.000668991
0.000669136
0.000669234
0.000669413
0.000669505
0.000669697
0.000669797
0.000670004
0.000670112
0.000670341
0.000670468
0.00067073
0.000670868
0.000671154
0.000671309
0.000671634
0.000671813
0.000672197
0.000672403
0.000672878
0.000673089
0.000673797
0.000674062
0.000684639
0.000725604
0.00184568
0.00102186
0.000930244
0.000865619
0.000821192
0.000790071
0.000767522
0.000750628
0.0007376
0.00072732
0.000719047
0.000712288
0.000706686
0.000701993
0.000698021
0.000694628
0.00069171
0.000689181
0.000686977
0.000685039
0.00068334
0.000681829
0.000680494
0.00067929
0.000678226
0.000677259
0.000676399
0.000675603
0.000674904
0.000674251
0.00067368
0.000673131
0.000672662
0.000672215
0.000671817
0.000671428
0.000671103
0.000670787
0.00067052
0.000670244
0.000670027
0.000669806
0.00066962
0.000669416
0.00066928
0.000669115
0.000668967
0.000668831
0.000668733
0.000668638
0.000668579
0.000668488
0.00066841
0.000668346
0.000668305
0.000668223
0.000668177
0.000668144
0.000668057
0.000668065
0.000668064
0.000668044
0.000668112
0.000668112
0.000668208
0.00066828
0.00066841
0.000668493
0.000668649
0.000668715
0.00066884
0.000668896
0.000669041
0.000669139
0.000669318
0.000669409
0.000669601
0.000669701
0.000669909
0.000670016
0.000670246
0.000670373
0.000670634
0.000670772
0.000671058
0.000671213
0.000671538
0.000671717
0.0006721
0.000672306
0.000672781
0.000672992
0.0006737
0.000673965
0.000684583
0.000725525
0.00184785
0.00102187
0.000930241
0.000865598
0.000821151
0.000790012
0.000767448
0.000750542
0.000737504
0.000727217
0.000718937
0.000712172
0.000706565
0.000701869
0.000697893
0.000694497
0.000691577
0.000689046
0.00068684
0.0006849
0.000683199
0.000681687
0.000680351
0.000679145
0.00067808
0.000677113
0.000676252
0.000675455
0.000674755
0.000674101
0.00067353
0.00067298
0.000672511
0.000672063
0.000671665
0.000671276
0.00067095
0.000670633
0.000670366
0.00067009
0.000669873
0.000669651
0.000669465
0.000669261
0.000669124
0.00066896
0.000668811
0.000668675
0.000668577
0.000668482
0.000668423
0.000668331
0.000668253
0.000668189
0.000668148
0.000668066
0.00066802
0.000667987
0.0006679
0.000667907
0.000667906
0.000667886
0.000667953
0.000667954
0.00066805
0.000668121
0.000668251
0.000668334
0.00066849
0.000668556
0.000668681
0.000668737
0.000668881
0.00066898
0.000669158
0.00066925
0.000669441
0.000669541
0.000669749
0.000669856
0.000670086
0.000670212
0.000670473
0.000670611
0.000670897
0.000671052
0.000671377
0.000671556
0.000671939
0.000672144
0.000672619
0.000672829
0.000673538
0.000673802
0.000684483
0.000725389
0.00185036
0.00102187
0.000930237
0.000865568
0.000821093
0.000789929
0.000767344
0.000750421
0.000737369
0.000727071
0.000718782
0.000712009
0.000706396
0.000701694
0.000697713
0.000694313
0.000691389
0.000688855
0.000686646
0.000684704
0.000683001
0.000681486
0.000680149
0.000678941
0.000677875
0.000676906
0.000676044
0.000675246
0.000674545
0.00067389
0.000673318
0.000672767
0.000672297
0.000671849
0.000671451
0.00067106
0.000670734
0.000670417
0.000670149
0.000669873
0.000669655
0.000669433
0.000669246
0.000669042
0.000668905
0.000668741
0.000668592
0.000668455
0.000668357
0.000668261
0.000668202
0.00066811
0.000668032
0.000667968
0.000667927
0.000667845
0.000667798
0.000667765
0.000667678
0.000667685
0.000667684
0.000667664
0.00066773
0.000667731
0.000667827
0.000667898
0.000668027
0.00066811
0.000668266
0.000668331
0.000668456
0.000668512
0.000668657
0.000668755
0.000668933
0.000669024
0.000669216
0.000669316
0.000669523
0.00066963
0.000669859
0.000669986
0.000670247
0.000670385
0.00067067
0.000670825
0.00067115
0.000671328
0.000671711
0.000671916
0.00067239
0.0006726
0.000673309
0.000673572
0.000684341
0.000725197
0.0018532
0.00102188
0.000930231
0.00086553
0.000821018
0.000789821
0.000767209
0.000750264
0.000737194
0.000726881
0.00071858
0.000711798
0.000706176
0.000701467
0.00069748
0.000694075
0.000691146
0.000688607
0.000686395
0.000684449
0.000682743
0.000681226
0.000679886
0.000678677
0.000677609
0.000676638
0.000675774
0.000674975
0.000674273
0.000673617
0.000673044
0.000672491
0.000672021
0.000671571
0.000671172
0.000670781
0.000670454
0.000670136
0.000669868
0.000669591
0.000669373
0.000669151
0.000668963
0.000668759
0.000668621
0.000668456
0.000668307
0.00066817
0.000668071
0.000667976
0.000667916
0.000667824
0.000667746
0.000667681
0.00066764
0.000667558
0.000667511
0.000667478
0.000667391
0.000667397
0.000667396
0.000667375
0.000667441
0.000667442
0.000667537
0.000667608
0.000667737
0.00066782
0.000667976
0.00066804
0.000668166
0.000668221
0.000668365
0.000668463
0.000668641
0.000668732
0.000668924
0.000669023
0.00066923
0.000669338
0.000669566
0.000669693
0.000669953
0.000670091
0.000670376
0.000670531
0.000670855
0.000671033
0.000671415
0.00067162
0.000672094
0.000672303
0.000673011
0.000673274
0.000684157
0.000724947
0.0018563
0.00102189
0.000930225
0.000865483
0.000820926
0.000789688
0.000767043
0.000750071
0.000736979
0.000726648
0.000718332
0.000711538
0.000705905
0.000701187
0.000697192
0.00069378
0.000690846
0.000688302
0.000686085
0.000684136
0.000682426
0.000680906
0.000679563
0.000678351
0.00067728
0.000676308
0.000675442
0.000674641
0.000673937
0.00067328
0.000672705
0.000672152
0.00067168
0.000671229
0.000670829
0.000670438
0.000670109
0.000669791
0.000669522
0.000669244
0.000669025
0.000668802
0.000668614
0.000668409
0.000668271
0.000668106
0.000667956
0.000667819
0.00066772
0.000667623
0.000667563
0.000667471
0.000667393
0.000667328
0.000667286
0.000667204
0.000667157
0.000667124
0.000667037
0.000667042
0.000667041
0.000667019
0.000667085
0.000667085
0.00066718
0.00066725
0.000667379
0.000667462
0.000667617
0.000667682
0.000667807
0.000667862
0.000668006
0.000668104
0.000668281
0.000668372
0.000668563
0.000668663
0.00066887
0.000668977
0.000669205
0.000669331
0.000669591
0.000669729
0.000670013
0.000670168
0.000670492
0.000670669
0.000671051
0.000671255
0.000671728
0.000671937
0.000672645
0.000672906
0.000683931
0.000724641
0.00185953
0.0010219
0.000930217
0.000865428
0.000820816
0.00078953
0.000766845
0.000749841
0.000736723
0.000726371
0.000718037
0.000711228
0.000705582
0.000700854
0.000696849
0.00069343
0.000690488
0.000687938
0.000685716
0.000683762
0.000682048
0.000680524
0.000679178
0.000677962
0.000676889
0.000675914
0.000675046
0.000674243
0.000673537
0.000672877
0.000672301
0.000671746
0.000671273
0.000670821
0.00067042
0.000670027
0.000669698
0.000669378
0.000669109
0.00066883
0.00066861
0.000668387
0.000668198
0.000667992
0.000667854
0.000667688
0.000667538
0.0006674
0.0006673
0.000667203
0.000667143
0.00066705
0.000666972
0.000666906
0.000666865
0.000666782
0.000666735
0.000666701
0.000666614
0.000666619
0.000666618
0.000666595
0.000666659
0.00066666
0.000666754
0.000666824
0.000666952
0.000667035
0.00066719
0.000667254
0.000667379
0.000667434
0.000667577
0.000667675
0.000667852
0.000667943
0.000668134
0.000668233
0.000668439
0.000668546
0.000668774
0.0006689
0.000669159
0.000669296
0.000669581
0.000669735
0.000670058
0.000670236
0.000670616
0.00067082
0.000671292
0.0006715
0.000672208
0.000672468
0.000683664
0.000724277
0.00186265
0.00102191
0.000930209
0.000865363
0.000820689
0.000789347
0.000766615
0.000749573
0.000736425
0.000726048
0.000717694
0.000710867
0.000705207
0.000700466
0.000696451
0.000693022
0.000690072
0.000687515
0.000685287
0.000683327
0.000681608
0.000680079
0.000678729
0.00067751
0.000676433
0.000675455
0.000674584
0.000673779
0.000673071
0.000672409
0.000671831
0.000671275
0.000670799
0.000670346
0.000669944
0.00066955
0.000669219
0.000668898
0.000668628
0.000668348
0.000668127
0.000667903
0.000667713
0.000667507
0.000667367
0.000667201
0.00066705
0.000666912
0.000666811
0.000666714
0.000666653
0.00066656
0.000666481
0.000666415
0.000666373
0.00066629
0.000666243
0.000666209
0.000666122
0.000666126
0.000666124
0.000666101
0.000666164
0.000666164
0.000666259
0.000666327
0.000666455
0.000666537
0.000666692
0.000666756
0.00066688
0.000666935
0.000667078
0.000667175
0.000667352
0.000667443
0.000667633
0.000667732
0.000667938
0.000668045
0.000668272
0.000668397
0.000668656
0.000668793
0.000669077
0.000669231
0.000669553
0.00066973
0.00067011
0.000670313
0.000670784
0.000670991
0.000671698
0.000671958
0.000683355
0.000723855
0.00186534
0.00102192
0.000930199
0.000865291
0.000820544
0.000789138
0.000766353
0.000749268
0.000736085
0.000725679
0.000717301
0.000710455
0.000704778
0.000700022
0.000695995
0.000692555
0.000689596
0.000687031
0.000684795
0.000682829
0.000681104
0.000679571
0.000678216
0.000676993
0.000675912
0.000674931
0.000674057
0.000673248
0.000672537
0.000671874
0.000671294
0.000670735
0.000670258
0.000669803
0.000669399
0.000669003
0.000668671
0.000668349
0.000668077
0.000667796
0.000667575
0.000667349
0.000667159
0.000666951
0.000666811
0.000666644
0.000666493
0.000666353
0.000666252
0.000666154
0.000666092
0.000665999
0.00066592
0.000665853
0.000665811
0.000665728
0.00066568
0.000665646
0.000665559
0.000665562
0.00066556
0.000665535
0.000665597
0.000665597
0.000665691
0.000665759
0.000665886
0.000665968
0.000666123
0.000666186
0.00066631
0.000666364
0.000666507
0.000666604
0.00066678
0.000666871
0.00066706
0.000667159
0.000667364
0.000667471
0.000667697
0.000667822
0.000668081
0.000668217
0.0006685
0.000668654
0.000668975
0.000669152
0.00066953
0.000669733
0.000670203
0.000670409
0.000671116
0.000671374
0.000683005
0.000723374
0.00186711
0.00102194
0.000930189
0.000865209
0.000820382
0.000788903
0.000766058
0.000748925
0.000735702
0.000725264
0.000716859
0.00070999
0.000704294
0.000699523
0.000695481
0.000692029
0.00068906
0.000686485
0.000684241
0.000682268
0.000680536
0.000678997
0.000677637
0.000676409
0.000675324
0.000674339
0.000673461
0.00067265
0.000671936
0.00067127
0.000670687
0.000670126
0.000669647
0.00066919
0.000668784
0.000668387
0.000668053
0.000667729
0.000667456
0.000667174
0.000666951
0.000666724
0.000666533
0.000666324
0.000666183
0.000666015
0.000665864
0.000665723
0.000665622
0.000665522
0.00066546
0.000665367
0.000665286
0.000665219
0.000665177
0.000665093
0.000665045
0.00066501
0.000664924
0.000664926
0.000664923
0.000664897
0.000664958
0.000664958
0.000665051
0.000665118
0.000665244
0.000665326
0.00066548
0.000665542
0.000665667
0.00066572
0.000665862
0.000665959
0.000666135
0.000666225
0.000666414
0.000666512
0.000666717
0.000666823
0.000667049
0.000667174
0.000667431
0.000667568
0.00066785
0.000668003
0.000668323
0.000668499
0.000668877
0.000669079
0.000669547
0.000669752
0.000670459
0.000670716
0.000682614
0.000722835
0.0018673
0.00102195
0.000930177
0.000865119
0.000820202
0.000788643
0.000765731
0.000748543
0.000735276
0.000724802
0.000716367
0.000709473
0.000703756
0.000698966
0.000694908
0.000691443
0.000688461
0.000685877
0.000683624
0.000681642
0.000679903
0.000678357
0.000676991
0.000675758
0.000674669
0.000673679
0.000672797
0.000671982
0.000671265
0.000670596
0.00067001
0.000669447
0.000668965
0.000668506
0.000668098
0.000667699
0.000667363
0.000667038
0.000666763
0.00066648
0.000666255
0.000666027
0.000665835
0.000665625
0.000665483
0.000665314
0.000665162
0.00066502
0.000664918
0.000664817
0.000664754
0.00066466
0.00066458
0.000664512
0.000664469
0.000664385
0.000664336
0.000664301
0.000664215
0.000664216
0.000664212
0.000664186
0.000664244
0.000664244
0.000664337
0.000664402
0.000664528
0.00066461
0.000664763
0.000664825
0.000664949
0.000665002
0.000665143
0.000665239
0.000665415
0.000665504
0.000665693
0.000665791
0.000665995
0.000666101
0.000666326
0.00066645
0.000666707
0.000666842
0.000667124
0.000667276
0.000667596
0.000667771
0.000668147
0.000668348
0.000668816
0.000669019
0.000669725
0.000669981
0.000682182
0.000722237
0.00186526
0.00102197
0.000930165
0.00086502
0.000820004
0.000788356
0.00076537
0.000748122
0.000734807
0.000724292
0.000715823
0.000708901
0.000703161
0.000698351
0.000694276
0.000690796
0.000687801
0.000685204
0.000682941
0.00068095
0.000679204
0.00067765
0.000676278
0.000675039
0.000673944
0.00067295
0.000672064
0.000671244
0.000670524
0.000669851
0.000669262
0.000668696
0.000668211
0.000667749
0.00066734
0.000666938
0.000666601
0.000666274
0.000665997
0.000665712
0.000665486
0.000665256
0.000665063
0.000664852
0.000664708
0.000664539
0.000664386
0.000664243
0.000664139
0.000664038
0.000663974
0.00066388
0.000663799
0.00066373
0.000663686
0.000663602
0.000663552
0.000663517
0.000663432
0.000663431
0.000663426
0.000663399
0.000663455
0.000663455
0.000663547
0.000663611
0.000663736
0.000663817
0.000663971
0.000664031
0.000664154
0.000664207
0.000664348
0.000664443
0.000664618
0.000664707
0.000664895
0.000664993
0.000665196
0.000665302
0.000665526
0.000665649
0.000665905
0.000666041
0.000666321
0.000666473
0.000666791
0.000666966
0.00066734
0.000667541
0.000668007
0.000668208
0.000668914
0.000669169
0.000681709
0.000721578
0.00186098
0.00102199
0.000930152
0.000864914
0.000819789
0.000788043
0.000764976
0.000747662
0.000734293
0.000723734
0.000715229
0.000708276
0.000702509
0.000697677
0.000693583
0.000690086
0.000687077
0.000684468
0.000682193
0.000680192
0.000678436
0.000676875
0.000675496
0.00067425
0.00067315
0.00067215
0.000671259
0.000670435
0.00066971
0.000669034
0.000668442
0.000667872
0.000667385
0.00066692
0.000666508
0.000666104
0.000665765
0.000665435
0.000665157
0.00066487
0.000664642
0.000664411
0.000664217
0.000664004
0.000663859
0.000663688
0.000663534
0.00066339
0.000663286
0.000663183
0.000663118
0.000663023
0.000662941
0.000662871
0.000662827
0.000662743
0.000662692
0.000662657
0.000662572
0.00066257
0.000662564
0.000662535
0.000662589
0.000662589
0.00066268
0.000662743
0.000662867
0.000662948
0.000663101
0.00066316
0.000663283
0.000663335
0.000663475
0.00066357
0.000663744
0.000663833
0.00066402
0.000664117
0.00066432
0.000664425
0.000664648
0.000664771
0.000665026
0.000665161
0.00066544
0.000665591
0.000665908
0.000666082
0.000666455
0.000666655
0.000667119
0.000667319
0.000668024
0.000668279
0.000681194
0.000720858
0.00185449
0.00102201
0.000930139
0.000864798
0.000819556
0.000787704
0.000764549
0.000747163
0.000733734
0.000723127
0.000714582
0.000707595
0.0007018
0.000696943
0.000692828
0.000689313
0.000686288
0.000683665
0.000681378
0.000679366
0.000677601
0.000676031
0.000674643
0.000673391
0.000672284
0.000671278
0.000670382
0.000669553
0.000668824
0.000668143
0.000667548
0.000666975
0.000666484
0.000666016
0.000665601
0.000665195
0.000664853
0.000664521
0.000664241
0.000663952
0.000663722
0.000663489
0.000663294
0.000663079
0.000662933
0.000662761
0.000662606
0.000662461
0.000662355
0.000662251
0.000662185
0.000662089
0.000662007
0.000661936
0.000661891
0.000661807
0.000661755
0.000661719
0.000661634
0.000661631
0.000661624
0.000661593
0.000661645
0.000661645
0.000661735
0.000661797
0.000661919
0.000662
0.000662152
0.00066221
0.000662333
0.000662385
0.000662523
0.000662618
0.000662792
0.00066288
0.000663066
0.000663163
0.000663364
0.000663469
0.000663691
0.000663813
0.000664067
0.000664201
0.00066448
0.00066463
0.000664946
0.000665119
0.00066549
0.000665689
0.000666151
0.000666349
0.000667054
0.000667308
0.000680638
0.000720075
0.00184584
0.00102203
0.000930125
0.000864675
0.000819306
0.000787339
0.000764087
0.000746623
0.00073313
0.000722471
0.000713882
0.000706859
0.000701032
0.000696149
0.000692011
0.000688477
0.000685434
0.000682796
0.000680495
0.000678472
0.000676696
0.000675116
0.00067372
0.00067246
0.000671346
0.000670333
0.000669432
0.000668598
0.000667864
0.000667178
0.000666579
0.000666002
0.000665507
0.000665036
0.000664619
0.00066421
0.000663865
0.000663531
0.000663248
0.000662957
0.000662725
0.00066249
0.000662293
0.000662077
0.000661929
0.000661756
0.0006616
0.000661453
0.000661346
0.00066124
0.000661173
0.000661077
0.000660994
0.000660921
0.000660876
0.000660792
0.000660739
0.000660703
0.000660618
0.000660613
0.000660605
0.000660573
0.000660622
0.000660622
0.000660711
0.000660771
0.000660892
0.000660973
0.000661124
0.000661181
0.000661303
0.000661354
0.000661492
0.000661585
0.000661759
0.000661846
0.000662031
0.000662128
0.000662328
0.000662432
0.000662653
0.000662775
0.000663028
0.000663161
0.000663438
0.000663588
0.000663902
0.000664075
0.000664444
0.000664641
0.000665101
0.000665298
0.000666002
0.000666256
0.000680038
0.000719228
0.00183507
0.00102206
0.00093011
0.000864543
0.000819038
0.000786948
0.000763592
0.000746043
0.000732481
0.000721765
0.000713128
0.000706066
0.000700206
0.000695294
0.000691131
0.000687575
0.000684514
0.000681859
0.000679544
0.000677507
0.00067572
0.00067413
0.000672724
0.000671456
0.000670334
0.000669315
0.000668407
0.000667567
0.000666828
0.000666138
0.000665534
0.000664953
0.000664454
0.00066398
0.000663559
0.000663147
0.000662799
0.000662462
0.000662177
0.000661884
0.00066165
0.000661413
0.000661214
0.000660996
0.000660846
0.000660672
0.000660514
0.000660366
0.000660257
0.00066015
0.000660082
0.000659985
0.000659901
0.000659827
0.000659781
0.000659696
0.000659642
0.000659606
0.000659521
0.000659515
0.000659506
0.000659472
0.000659519
0.000659518
0.000659606
0.000659664
0.000659784
0.000659864
0.000660015
0.00066007
0.000660192
0.000660242
0.000660379
0.000660472
0.000660644
0.000660731
0.000660915
0.000661011
0.000661211
0.000661314
0.000661534
0.000661655
0.000661906
0.000662039
0.000662315
0.000662464
0.000662776
0.000662948
0.000663315
0.000663511
0.000663969
0.000664164
0.000664868
0.000665121
0.000679395
0.000718315
0.00182223
0.00102208
0.000930095
0.000864404
0.000818753
0.00078653
0.000763063
0.000745423
0.000731787
0.000721009
0.000712321
0.000705216
0.00069932
0.000694377
0.000690188
0.000686608
0.000683526
0.000680854
0.000678523
0.000676473
0.000674672
0.000673071
0.000671656
0.000670378
0.000669248
0.000668221
0.000667307
0.000666461
0.000665716
0.00066502
0.000664411
0.000663826
0.000663323
0.000662845
0.000662421
0.000662006
0.000661655
0.000661315
0.000661027
0.000660731
0.000660495
0.000660256
0.000660055
0.000659835
0.000659683
0.000659507
0.000659348
0.000659199
0.000659088
0.000658979
0.00065891
0.000658812
0.000658727
0.000658652
0.000658605
0.00065852
0.000658465
0.000658427
0.000658343
0.000658335
0.000658325
0.000658289
0.000658333
0.000658332
0.000658419
0.000658475
0.000658594
0.000658674
0.000658823
0.000658877
0.000658998
0.000659047
0.000659183
0.000659275
0.000659447
0.000659533
0.000659716
0.000659811
0.00066001
0.000660113
0.000660331
0.000660452
0.000660701
0.000660834
0.000661108
0.000661256
0.000661567
0.000661737
0.000662102
0.000662297
0.000662753
0.000662945
0.000663649
0.000663903
0.000678707
0.000717333
0.00180738
0.00102211
0.00093008
0.000864257
0.000818451
0.000786086
0.000762499
0.000744762
0.000731046
0.000720203
0.00071146
0.000704309
0.000698373
0.000693397
0.000689179
0.000685575
0.000682471
0.000679779
0.000677432
0.000675366
0.000673553
0.00067194
0.000670513
0.000669226
0.000668087
0.000667052
0.00066613
0.000665278
0.000664526
0.000663825
0.000663211
0.000662621
0.000662114
0.000661631
0.000661203
0.000660785
0.00066043
0.000660087
0.000659797
0.000659498
0.000659259
0.000659017
0.000658814
0.000658593
0.000658438
0.000658261
0.000658101
0.000657949
0.000657837
0.000657727
0.000657656
0.000657556
0.000657471
0.000657394
0.000657347
0.000657261
0.000657204
0.000657167
0.000657083
0.000657072
0.000657061
0.000657024
0.000657065
0.000657064
0.000657149
0.000657202
0.00065732
0.000657399
0.000657548
0.0006576
0.000657721
0.000657769
0.000657904
0.000657995
0.000658166
0.000658251
0.000658433
0.000658528
0.000658725
0.000658827
0.000659044
0.000659164
0.000659412
0.000659543
0.000659816
0.000659963
0.000660272
0.000660442
0.000660805
0.000660998
0.000661451
0.000661641
0.000662344
0.000662599
0.000677973
0.000716281
0.00179061
0.00102214
0.000930065
0.000864103
0.000818132
0.000785616
0.000761902
0.000744061
0.000730259
0.000719345
0.000710544
0.000703344
0.000697366
0.000692355
0.000688106
0.000684474
0.000681347
0.000678635
0.000676269
0.000674188
0.000672359
0.000670733
0.000669295
0.000667998
0.000666849
0.000665806
0.000664876
0.000664016
0.000663258
0.000662551
0.000661931
0.000661336
0.000660824
0.000660337
0.000659905
0.000659483
0.000659125
0.000658778
0.000658485
0.000658183
0.000657941
0.000657697
0.000657492
0.000657268
0.000657111
0.000656932
0.00065677
0.000656617
0.000656503
0.00065639
0.000656318
0.000656217
0.000656131
0.000656053
0.000656004
0.000655918
0.00065586
0.000655822
0.000655738
0.000655725
0.000655713
0.000655674
0.000655713
0.00065571
0.000655794
0.000655845
0.000655961
0.00065604
0.000656187
0.000656238
0.000656358
0.000656405
0.000656539
0.000656629
0.000656799
0.000656884
0.000657064
0.000657158
0.000657354
0.000657456
0.000657671
0.00065779
0.000658036
0.000658167
0.000658438
0.000658585
0.000658892
0.00065906
0.00065942
0.000659612
0.000660063
0.00066025
0.000660953
0.000661209
0.000677191
0.000715154
0.00177198
0.00102217
0.00093005
0.000863942
0.000817796
0.00078512
0.000761271
0.000743318
0.000729425
0.000718437
0.000709573
0.00070232
0.000696298
0.000691248
0.000686966
0.000683306
0.000680154
0.00067742
0.000675035
0.000672936
0.000671092
0.000669452
0.000668002
0.000666693
0.000665534
0.000664481
0.000663543
0.000662676
0.000661911
0.000661197
0.000660571
0.00065997
0.000659453
0.000658961
0.000658525
0.000658099
0.000657737
0.000657387
0.00065709
0.000656785
0.000656541
0.000656293
0.000656086
0.00065586
0.0006557
0.000655519
0.000655356
0.0006552
0.000655085
0.00065497
0.000654896
0.000654794
0.000654706
0.000654627
0.000654577
0.00065449
0.000654431
0.000654392
0.000654308
0.000654293
0.00065428
0.000654239
0.000654275
0.000654271
0.000654353
0.000654402
0.000654516
0.000654595
0.000654741
0.000654789
0.000654909
0.000654956
0.000655088
0.000655177
0.000655346
0.00065543
0.000655608
0.000655702
0.000655896
0.000655998
0.000656211
0.000656329
0.000656574
0.000656704
0.000656973
0.000657118
0.000657423
0.00065759
0.000657948
0.000658139
0.000658587
0.000658772
0.000659473
0.000659731
0.000676358
0.000713948
0.0017516
0.0010222
0.000930035
0.000863773
0.000817444
0.000784598
0.000760606
0.000742535
0.000728545
0.000717477
0.000708546
0.000701238
0.000695168
0.000690077
0.00068576
0.00068207
0.000678891
0.000676133
0.000673727
0.00067161
0.000669749
0.000668095
0.000666631
0.00066531
0.00066414
0.000663078
0.000662131
0.000661255
0.000660483
0.000659761
0.00065913
0.000658523
0.000658
0.000657503
0.000657063
0.000656632
0.000656266
0.000655912
0.000655612
0.000655304
0.000655056
0.000654805
0.000654595
0.000654366
0.000654204
0.000654021
0.000653857
0.000653699
0.000653581
0.000653464
0.000653388
0.000653285
0.000653196
0.000653114
0.000653064
0.000652976
0.000652916
0.000652876
0.000652792
0.000652775
0.000652761
0.000652717
0.00065275
0.000652746
0.000652826
0.000652872
0.000652984
0.000653063
0.000653207
0.000653254
0.000653372
0.000653418
0.000653549
0.000653637
0.000653805
0.000653888
0.000654065
0.000654158
0.000654351
0.000654451
0.000654663
0.00065478
0.000655023
0.000655152
0.000655419
0.000655564
0.000655866
0.000656032
0.000656387
0.000656576
0.000657021
0.000657203
0.000657904
0.000658164
0.000675471
0.000712659
0.00172954
0.00102223
0.000930021
0.000863598
0.000817076
0.000784051
0.000759907
0.000741712
0.000727619
0.000716466
0.000707464
0.000700096
0.000693975
0.000688841
0.000684487
0.000680764
0.000677557
0.000674774
0.000672346
0.000670209
0.000668331
0.000666661
0.000665183
0.000663849
0.000662668
0.000661594
0.000660638
0.000659753
0.000658973
0.000658244
0.000657606
0.000656993
0.000656464
0.000655962
0.000655517
0.000655081
0.000654711
0.000654352
0.000654048
0.000653737
0.000653485
0.000653232
0.000653019
0.000652787
0.000652623
0.000652437
0.000652271
0.00065211
0.000651991
0.000651871
0.000651793
0.000651689
0.000651598
0.000651515
0.000651463
0.000651375
0.000651313
0.000651272
0.000651188
0.000651169
0.000651154
0.000651108
0.000651138
0.000651132
0.00065121
0.000651253
0.000651364
0.000651442
0.000651585
0.000651629
0.000651747
0.000651792
0.000651921
0.000652008
0.000652174
0.000652257
0.000652432
0.000652524
0.000652716
0.000652815
0.000653026
0.000653141
0.000653382
0.000653511
0.000653776
0.000653919
0.000654219
0.000654384
0.000654736
0.000654923
0.000655365
0.000655545
0.000656245
0.000656508
0.000674529
0.000711282
0.00170591
0.00102227
0.000930007
0.000863417
0.000816692
0.000783479
0.000759174
0.000740847
0.000726646
0.000715403
0.000706326
0.000698895
0.00069272
0.000687541
0.000683146
0.000679389
0.000676151
0.000673342
0.00067089
0.000668733
0.000666836
0.000665149
0.000663656
0.000662309
0.000661115
0.00066003
0.000659064
0.00065817
0.000657381
0.000656644
0.000655999
0.000655379
0.000654844
0.000654336
0.000653885
0.000653445
0.00065307
0.000652707
0.000652399
0.000652084
0.000651829
0.000651572
0.000651356
0.000651122
0.000650954
0.000650766
0.000650598
0.000650435
0.000650313
0.000650191
0.00065011
0.000650005
0.000649913
0.000649828
0.000649774
0.000649685
0.000649622
0.00064958
0.000649496
0.000649474
0.000649458
0.00064941
0.000649437
0.00064943
0.000649506
0.000649545
0.000649655
0.000649732
0.000649873
0.000649915
0.000650032
0.000650076
0.000650204
0.000650289
0.000650454
0.000650536
0.00065071
0.000650801
0.000650991
0.000651089
0.000651298
0.000651412
0.000651651
0.000651778
0.000652041
0.000652183
0.000652481
0.000652644
0.000652994
0.000653179
0.000653618
0.000653794
0.000654494
0.00065476
0.000673527
0.000709808
0.00168082
0.00102231
0.000929993
0.000863229
0.000816293
0.000782882
0.000758409
0.000739942
0.000725626
0.000714288
0.000705132
0.000697633
0.000691402
0.000686174
0.000681737
0.000677944
0.000674674
0.000671837
0.00066936
0.00066718
0.000665264
0.000663559
0.00066205
0.000660688
0.000659482
0.000658385
0.000657408
0.000656504
0.000655706
0.000654961
0.000654307
0.000653681
0.000653139
0.000652624
0.000652169
0.000651723
0.000651343
0.000650975
0.000650663
0.000650344
0.000650085
0.000649824
0.000649606
0.000649368
0.000649197
0.000649007
0.000648836
0.000648671
0.000648546
0.000648421
0.000648339
0.000648231
0.000648138
0.000648051
0.000647996
0.000647906
0.000647841
0.000647798
0.000647714
0.00064769
0.000647672
0.000647622
0.000647646
0.000647637
0.000647711
0.000647747
0.000647855
0.000647932
0.00064807
0.00064811
0.000648226
0.000648268
0.000648395
0.000648479
0.000648643
0.000648723
0.000648895
0.000648985
0.000649174
0.000649271
0.000649478
0.000649591
0.000649828
0.000649954
0.000650215
0.000650356
0.000650651
0.000650813
0.000651159
0.000651342
0.000651778
0.000651951
0.000652649
0.00065292
0.00067246
0.000708233
0.00165438
0.00102234
0.00092998
0.000863036
0.000815878
0.000782261
0.00075761
0.000738997
0.000724559
0.000713121
0.000703881
0.000696312
0.000690021
0.000684741
0.00068026
0.000676428
0.000673124
0.000670257
0.000667754
0.000665551
0.000663614
0.00066189
0.000660364
0.000658987
0.000657766
0.000656657
0.000655668
0.000654754
0.000653946
0.000653192
0.000652531
0.000651897
0.000651348
0.000650827
0.000650365
0.000649914
0.000649529
0.000649156
0.00064884
0.000648516
0.000648253
0.000647988
0.000647767
0.000647525
0.000647351
0.000647158
0.000646985
0.000646817
0.00064669
0.000646562
0.000646477
0.000646368
0.000646274
0.000646184
0.000646127