/*--------------------------------*- C++ -*----------------------------------*\
| =========                 |                                                 |
| \\      /  F ield         | OpenFOAM: The Open Source CFD Toolbox           |
|  \\    /   O peration     | Version:  v2012                                 |
|   \\  /    A nd           | Website:  www.openfoam.com                      |
|    \\/     M anipulation  |                                                 |
\*---------------------------------------------------------------------------*/
FoamFile
{
    version     2.0;
    format      ascii;
    class       volVectorField;
    location    "26";
    object      wallShearStress;
}
// * * * * * * * * * * * * * * * * * * * * * * * * * * * * * * * * * * * * * //

dimensions      [0 2 -2 0 0 0 0];


internalField   uniform (0 0 0);

boundaryField
{
    inlet
    {
        type            calculated;
        value           uniform (0 0 0);
    }
    outlet
    {
        type            calculated;
        value           uniform (0 0 0);
    }
    topWall
    {
        type            calculated;
        value           nonuniform List<vector> 
545
(
(3.62154e-08 -2.54908e-08 0)
(3.62055e-08 -7.13177e-08 0)
(3.61798e-08 -1.18962e-07 0)
(3.61482e-08 -1.65224e-07 0)
(3.61097e-08 -2.09513e-07 0)
(3.60645e-08 -2.52397e-07 0)
(3.60128e-08 -2.94242e-07 0)
(3.59553e-08 -3.35028e-07 0)
(3.58923e-08 -3.74666e-07 0)
(3.58243e-08 -4.13154e-07 0)
(3.57519e-08 -4.50543e-07 0)
(3.56754e-08 -4.86877e-07 0)
(3.55953e-08 -5.22179e-07 0)
(3.55119e-08 -5.56471e-07 0)
(3.54256e-08 -5.89778e-07 0)
(3.53367e-08 -6.22125e-07 0)
(3.52456e-08 -6.53539e-07 0)
(3.51525e-08 -6.84045e-07 0)
(3.50576e-08 -7.13668e-07 0)
(3.49614e-08 -7.4243e-07 0)
(3.48639e-08 -7.70356e-07 0)
(3.47655e-08 -7.9747e-07 0)
(3.46663e-08 -8.23793e-07 0)
(3.45665e-08 -8.49349e-07 0)
(3.44664e-08 -8.74159e-07 0)
(3.4366e-08 -8.98245e-07 0)
(3.42655e-08 -9.21627e-07 0)
(3.41651e-08 -9.44326e-07 0)
(3.4065e-08 -9.66361e-07 0)
(3.39651e-08 -9.87753e-07 0)
(3.38657e-08 -1.00852e-06 0)
(3.37668e-08 -1.02868e-06 0)
(3.36686e-08 -1.04825e-06 0)
(3.35711e-08 -1.06725e-06 0)
(3.34745e-08 -1.08569e-06 0)
(3.33787e-08 -1.1036e-06 0)
(3.32838e-08 -1.12099e-06 0)
(3.31899e-08 -1.13787e-06 0)
(3.30971e-08 -1.15425e-06 0)
(3.30055e-08 -1.17016e-06 0)
(3.29149e-08 -1.18561e-06 0)
(3.28255e-08 -1.20061e-06 0)
(3.27374e-08 -1.21518e-06 0)
(3.26505e-08 -1.22932e-06 0)
(3.25649e-08 -1.24306e-06 0)
(3.24805e-08 -1.25639e-06 0)
(3.23975e-08 -1.26934e-06 0)
(3.23157e-08 -1.28192e-06 0)
(3.22354e-08 -1.29414e-06 0)
(3.21563e-08 -1.306e-06 0)
(3.20786e-08 -1.31753e-06 0)
(3.20022e-08 -1.32872e-06 0)
(3.19272e-08 -1.33959e-06 0)
(3.18535e-08 -1.35015e-06 0)
(3.17812e-08 -1.36041e-06 0)
(3.17102e-08 -1.37038e-06 0)
(3.16405e-08 -1.38006e-06 0)
(3.15722e-08 -1.38946e-06 0)
(3.15052e-08 -1.3986e-06 0)
(3.14394e-08 -1.40748e-06 0)
(3.1375e-08 -1.41611e-06 0)
(3.13118e-08 -1.42449e-06 0)
(3.12499e-08 -1.43263e-06 0)
(3.11892e-08 -1.44055e-06 0)
(3.11298e-08 -1.44824e-06 0)
(3.10716e-08 -1.45571e-06 0)
(3.10146e-08 -1.46298e-06 0)
(3.09588e-08 -1.47003e-06 0)
(3.09041e-08 -1.4769e-06 0)
(3.08506e-08 -1.48356e-06 0)
(3.07982e-08 -1.49005e-06 0)
(3.07467e-08 -1.49633e-06 0)
(3.06968e-08 -1.50239e-06 0)
(3.06488e-08 -1.50826e-06 0)
(3.06012e-08 -1.51407e-06 0)
(3.05536e-08 -1.51985e-06 0)
(3.05062e-08 -1.5256e-06 0)
(3.04587e-08 -1.53132e-06 0)
(3.04114e-08 -1.53701e-06 0)
(3.0364e-08 -1.54265e-06 0)
(3.03167e-08 -1.54826e-06 0)
(3.02694e-08 -1.55384e-06 0)
(3.02222e-08 -1.55939e-06 0)
(3.01751e-08 -1.5649e-06 0)
(3.01279e-08 -1.57037e-06 0)
(3.00809e-08 -1.57582e-06 0)
(3.00339e-08 -1.58122e-06 0)
(2.99869e-08 -1.5866e-06 0)
(2.994e-08 -1.59194e-06 0)
(2.98931e-08 -1.59725e-06 0)
(2.98464e-08 -1.60253e-06 0)
(2.97996e-08 -1.60778e-06 0)
(2.9753e-08 -1.61299e-06 0)
(2.97062e-08 -1.61817e-06 0)
(2.96604e-08 -1.62334e-06 0)
(2.96109e-08 -1.62839e-06 0)
(2.95636e-08 -1.63303e-06 0)
(2.95241e-08 -1.63726e-06 0)
(2.94858e-08 -1.64135e-06 0)
(2.94477e-08 -1.64546e-06 0)
(2.94095e-08 -1.64961e-06 0)
(2.93712e-08 -1.65378e-06 0)
(2.93327e-08 -1.65794e-06 0)
(2.9294e-08 -1.66209e-06 0)
(2.92551e-08 -1.66626e-06 0)
(2.92161e-08 -1.67043e-06 0)
(2.91768e-08 -1.6746e-06 0)
(2.91374e-08 -1.67878e-06 0)
(2.90977e-08 -1.68296e-06 0)
(2.90579e-08 -1.68715e-06 0)
(2.90179e-08 -1.69134e-06 0)
(2.89777e-08 -1.69554e-06 0)
(2.89374e-08 -1.69973e-06 0)
(2.88968e-08 -1.70394e-06 0)
(2.8856e-08 -1.70814e-06 0)
(2.88151e-08 -1.71235e-06 0)
(2.87739e-08 -1.71657e-06 0)
(2.87326e-08 -1.72079e-06 0)
(2.86911e-08 -1.72501e-06 0)
(2.86493e-08 -1.72924e-06 0)
(2.86074e-08 -1.73347e-06 0)
(2.85653e-08 -1.7377e-06 0)
(2.8523e-08 -1.74194e-06 0)
(2.84805e-08 -1.74618e-06 0)
(2.84378e-08 -1.75042e-06 0)
(2.83949e-08 -1.75467e-06 0)
(2.83518e-08 -1.75893e-06 0)
(2.83085e-08 -1.76318e-06 0)
(2.82651e-08 -1.76744e-06 0)
(2.82214e-08 -1.7717e-06 0)
(2.81775e-08 -1.77597e-06 0)
(2.81334e-08 -1.78024e-06 0)
(2.80891e-08 -1.78451e-06 0)
(2.80446e-08 -1.78879e-06 0)
(2.79999e-08 -1.79307e-06 0)
(2.7955e-08 -1.79735e-06 0)
(2.791e-08 -1.80163e-06 0)
(2.78647e-08 -1.80592e-06 0)
(2.78192e-08 -1.81022e-06 0)
(2.77734e-08 -1.81451e-06 0)
(2.77275e-08 -1.81881e-06 0)
(2.76814e-08 -1.82311e-06 0)
(2.76351e-08 -1.82741e-06 0)
(2.75886e-08 -1.83172e-06 0)
(2.75418e-08 -1.83603e-06 0)
(2.74949e-08 -1.84034e-06 0)
(2.74478e-08 -1.84466e-06 0)
(2.74004e-08 -1.84898e-06 0)
(2.73528e-08 -1.8533e-06 0)
(2.73051e-08 -1.85762e-06 0)
(2.72571e-08 -1.86195e-06 0)
(2.72089e-08 -1.86628e-06 0)
(2.71605e-08 -1.87061e-06 0)
(2.71119e-08 -1.87494e-06 0)
(2.70631e-08 -1.87928e-06 0)
(2.7014e-08 -1.88362e-06 0)
(2.69648e-08 -1.88796e-06 0)
(2.69153e-08 -1.8923e-06 0)
(2.68656e-08 -1.89665e-06 0)
(2.68157e-08 -1.90099e-06 0)
(2.67656e-08 -1.90534e-06 0)
(2.67153e-08 -1.9097e-06 0)
(2.66648e-08 -1.91405e-06 0)
(2.66141e-08 -1.91841e-06 0)
(2.65631e-08 -1.92276e-06 0)
(2.65119e-08 -1.92712e-06 0)
(2.64605e-08 -1.93148e-06 0)
(2.64089e-08 -1.93585e-06 0)
(2.63571e-08 -1.94021e-06 0)
(2.63051e-08 -1.94458e-06 0)
(2.62528e-08 -1.94895e-06 0)
(2.62004e-08 -1.95332e-06 0)
(2.61477e-08 -1.95769e-06 0)
(2.60948e-08 -1.96206e-06 0)
(2.60416e-08 -1.96644e-06 0)
(2.59883e-08 -1.97081e-06 0)
(2.59347e-08 -1.97519e-06 0)
(2.58809e-08 -1.97957e-06 0)
(2.58269e-08 -1.98395e-06 0)
(2.57727e-08 -1.98833e-06 0)
(2.57183e-08 -1.99271e-06 0)
(2.56636e-08 -1.99709e-06 0)
(2.56087e-08 -2.00147e-06 0)
(2.55536e-08 -2.00586e-06 0)
(2.54983e-08 -2.01024e-06 0)
(2.54427e-08 -2.01463e-06 0)
(2.5387e-08 -2.01902e-06 0)
(2.5331e-08 -2.02341e-06 0)
(2.52747e-08 -2.02779e-06 0)
(2.52183e-08 -2.03218e-06 0)
(2.51617e-08 -2.03657e-06 0)
(2.51048e-08 -2.04096e-06 0)
(2.50477e-08 -2.04535e-06 0)
(2.49903e-08 -2.04974e-06 0)
(2.49328e-08 -2.05413e-06 0)
(2.4875e-08 -2.05852e-06 0)
(2.4817e-08 -2.06291e-06 0)
(2.47588e-08 -2.0673e-06 0)
(2.47004e-08 -2.0717e-06 0)
(2.46417e-08 -2.07609e-06 0)
(2.45828e-08 -2.08048e-06 0)
(2.45237e-08 -2.08487e-06 0)
(2.44644e-08 -2.08926e-06 0)
(2.44048e-08 -2.09365e-06 0)
(2.4345e-08 -2.09804e-06 0)
(2.4285e-08 -2.10243e-06 0)
(2.42248e-08 -2.10682e-06 0)
(2.41643e-08 -2.1112e-06 0)
(2.41037e-08 -2.11559e-06 0)
(2.40428e-08 -2.11998e-06 0)
(2.39816e-08 -2.12436e-06 0)
(2.39203e-08 -2.12875e-06 0)
(2.38587e-08 -2.13313e-06 0)
(2.37969e-08 -2.13752e-06 0)
(2.37349e-08 -2.1419e-06 0)
(2.36727e-08 -2.14628e-06 0)
(2.36102e-08 -2.15066e-06 0)
(2.35475e-08 -2.15504e-06 0)
(2.34846e-08 -2.15941e-06 0)
(2.34215e-08 -2.16379e-06 0)
(2.33581e-08 -2.16816e-06 0)
(2.32945e-08 -2.17253e-06 0)
(2.32307e-08 -2.1769e-06 0)
(2.31667e-08 -2.18127e-06 0)
(2.31025e-08 -2.18564e-06 0)
(2.3038e-08 -2.19001e-06 0)
(2.29733e-08 -2.19437e-06 0)
(2.29084e-08 -2.19873e-06 0)
(2.28433e-08 -2.20309e-06 0)
(2.27779e-08 -2.20745e-06 0)
(2.27123e-08 -2.2118e-06 0)
(2.26465e-08 -2.21615e-06 0)
(2.25805e-08 -2.2205e-06 0)
(2.25143e-08 -2.22485e-06 0)
(2.24479e-08 -2.2292e-06 0)
(2.23812e-08 -2.23354e-06 0)
(2.23143e-08 -2.23788e-06 0)
(2.22472e-08 -2.24221e-06 0)
(2.21799e-08 -2.24655e-06 0)
(2.21123e-08 -2.25088e-06 0)
(2.20446e-08 -2.25521e-06 0)
(2.19766e-08 -2.25953e-06 0)
(2.19084e-08 -2.26385e-06 0)
(2.184e-08 -2.26817e-06 0)
(2.17714e-08 -2.27248e-06 0)
(2.17025e-08 -2.2768e-06 0)
(2.16335e-08 -2.2811e-06 0)
(2.15642e-08 -2.28541e-06 0)
(2.14947e-08 -2.28971e-06 0)
(2.1425e-08 -2.294e-06 0)
(2.13551e-08 -2.2983e-06 0)
(2.1285e-08 -2.30259e-06 0)
(2.12147e-08 -2.30687e-06 0)
(2.11442e-08 -2.31115e-06 0)
(2.10734e-08 -2.31543e-06 0)
(2.10025e-08 -2.3197e-06 0)
(2.09313e-08 -2.32397e-06 0)
(2.08599e-08 -2.32823e-06 0)
(2.07884e-08 -2.33249e-06 0)
(2.07166e-08 -2.33674e-06 0)
(2.06446e-08 -2.34099e-06 0)
(2.05724e-08 -2.34524e-06 0)
(2.05e-08 -2.34947e-06 0)
(2.04274e-08 -2.35371e-06 0)
(2.03546e-08 -2.35794e-06 0)
(2.02817e-08 -2.36216e-06 0)
(2.02083e-08 -2.36638e-06 0)
(2.01354e-08 -2.37061e-06 0)
(2.00594e-08 -2.37477e-06 0)
(1.99854e-08 -2.37874e-06 0)
(1.99182e-08 -2.38256e-06 0)
(1.98516e-08 -2.3863e-06 0)
(1.97847e-08 -2.39008e-06 0)
(1.97171e-08 -2.39391e-06 0)
(1.96487e-08 -2.39777e-06 0)
(1.95796e-08 -2.40166e-06 0)
(1.95097e-08 -2.40557e-06 0)
(1.94391e-08 -2.40951e-06 0)
(1.93676e-08 -2.41348e-06 0)
(1.92953e-08 -2.41748e-06 0)
(1.92223e-08 -2.42151e-06 0)
(1.91484e-08 -2.42557e-06 0)
(1.90737e-08 -2.42965e-06 0)
(1.89982e-08 -2.43376e-06 0)
(1.89218e-08 -2.4379e-06 0)
(1.88446e-08 -2.44207e-06 0)
(1.87665e-08 -2.44626e-06 0)
(1.86876e-08 -2.45049e-06 0)
(1.86078e-08 -2.45474e-06 0)
(1.85271e-08 -2.45902e-06 0)
(1.84456e-08 -2.46332e-06 0)
(1.83632e-08 -2.46766e-06 0)
(1.82799e-08 -2.47202e-06 0)
(1.81956e-08 -2.47641e-06 0)
(1.81105e-08 -2.48082e-06 0)
(1.80244e-08 -2.48527e-06 0)
(1.79375e-08 -2.48974e-06 0)
(1.78495e-08 -2.49423e-06 0)
(1.77607e-08 -2.49875e-06 0)
(1.76709e-08 -2.5033e-06 0)
(1.75802e-08 -2.50788e-06 0)
(1.74885e-08 -2.51248e-06 0)
(1.73958e-08 -2.5171e-06 0)
(1.73022e-08 -2.52175e-06 0)
(1.72075e-08 -2.52643e-06 0)
(1.71119e-08 -2.53113e-06 0)
(1.70153e-08 -2.53586e-06 0)
(1.69177e-08 -2.5406e-06 0)
(1.68192e-08 -2.54538e-06 0)
(1.67195e-08 -2.55017e-06 0)
(1.66189e-08 -2.55499e-06 0)
(1.65173e-08 -2.55984e-06 0)
(1.64146e-08 -2.5647e-06 0)
(1.63109e-08 -2.56959e-06 0)
(1.62062e-08 -2.5745e-06 0)
(1.61004e-08 -2.57943e-06 0)
(1.59936e-08 -2.58438e-06 0)
(1.58857e-08 -2.58935e-06 0)
(1.57767e-08 -2.59434e-06 0)
(1.56667e-08 -2.59935e-06 0)
(1.55557e-08 -2.60438e-06 0)
(1.54436e-08 -2.60943e-06 0)
(1.53303e-08 -2.61449e-06 0)
(1.52161e-08 -2.61957e-06 0)
(1.51007e-08 -2.62467e-06 0)
(1.49843e-08 -2.62978e-06 0)
(1.48667e-08 -2.63491e-06 0)
(1.47481e-08 -2.64006e-06 0)
(1.46284e-08 -2.64522e-06 0)
(1.45077e-08 -2.65039e-06 0)
(1.43858e-08 -2.65557e-06 0)
(1.42628e-08 -2.66077e-06 0)
(1.41387e-08 -2.66598e-06 0)
(1.40136e-08 -2.67119e-06 0)
(1.38873e-08 -2.67642e-06 0)
(1.376e-08 -2.68166e-06 0)
(1.36316e-08 -2.6869e-06 0)
(1.35021e-08 -2.69215e-06 0)
(1.33715e-08 -2.69741e-06 0)
(1.32398e-08 -2.70267e-06 0)
(1.3107e-08 -2.70794e-06 0)
(1.29732e-08 -2.71321e-06 0)
(1.28383e-08 -2.71848e-06 0)
(1.27023e-08 -2.72375e-06 0)
(1.25652e-08 -2.72903e-06 0)
(1.24271e-08 -2.7343e-06 0)
(1.22879e-08 -2.73957e-06 0)
(1.21477e-08 -2.74484e-06 0)
(1.20065e-08 -2.7501e-06 0)
(1.18642e-08 -2.75536e-06 0)
(1.17209e-08 -2.76061e-06 0)
(1.15766e-08 -2.76585e-06 0)
(1.14313e-08 -2.77109e-06 0)
(1.1285e-08 -2.77631e-06 0)
(1.11377e-08 -2.78153e-06 0)
(1.09894e-08 -2.78673e-06 0)
(1.08402e-08 -2.79191e-06 0)
(1.069e-08 -2.79708e-06 0)
(1.05389e-08 -2.80223e-06 0)
(1.03869e-08 -2.80737e-06 0)
(1.0234e-08 -2.81248e-06 0)
(1.00802e-08 -2.81758e-06 0)
(9.92559e-09 -2.82265e-06 0)
(9.77009e-09 -2.82769e-06 0)
(9.61377e-09 -2.83271e-06 0)
(9.45664e-09 -2.8377e-06 0)
(9.29872e-09 -2.84267e-06 0)
(9.14004e-09 -2.8476e-06 0)
(8.98061e-09 -2.8525e-06 0)
(8.82047e-09 -2.85736e-06 0)
(8.65963e-09 -2.86219e-06 0)
(8.49812e-09 -2.86698e-06 0)
(8.33597e-09 -2.87173e-06 0)
(8.1732e-09 -2.87644e-06 0)
(8.00984e-09 -2.88111e-06 0)
(7.84593e-09 -2.88573e-06 0)
(7.68149e-09 -2.89031e-06 0)
(7.51655e-09 -2.89484e-06 0)
(7.35114e-09 -2.89931e-06 0)
(7.18531e-09 -2.90374e-06 0)
(7.01907e-09 -2.90811e-06 0)
(6.85247e-09 -2.91242e-06 0)
(6.68554e-09 -2.91667e-06 0)
(6.51832e-09 -2.92087e-06 0)
(6.35085e-09 -2.925e-06 0)
(6.18316e-09 -2.92907e-06 0)
(6.0153e-09 -2.93307e-06 0)
(5.84731e-09 -2.93701e-06 0)
(5.67922e-09 -2.94087e-06 0)
(5.51108e-09 -2.94466e-06 0)
(5.34293e-09 -2.94838e-06 0)
(5.17482e-09 -2.95202e-06 0)
(5.0068e-09 -2.95558e-06 0)
(4.8389e-09 -2.95907e-06 0)
(4.67118e-09 -2.96247e-06 0)
(4.50368e-09 -2.96578e-06 0)
(4.33645e-09 -2.96901e-06 0)
(4.16954e-09 -2.97215e-06 0)
(4.003e-09 -2.9752e-06 0)
(3.83689e-09 -2.97815e-06 0)
(3.67124e-09 -2.98101e-06 0)
(3.50612e-09 -2.98378e-06 0)
(3.34158e-09 -2.98644e-06 0)
(3.17767e-09 -2.98901e-06 0)
(3.01445e-09 -2.99147e-06 0)
(2.85197e-09 -2.99383e-06 0)
(2.69028e-09 -2.99608e-06 0)
(2.52945e-09 -2.99822e-06 0)
(2.36952e-09 -3.00025e-06 0)
(2.21057e-09 -3.00217e-06 0)
(2.05263e-09 -3.00397e-06 0)
(1.89578e-09 -3.00566e-06 0)
(1.74007e-09 -3.00723e-06 0)
(1.58556e-09 -3.00868e-06 0)
(1.43231e-09 -3.01001e-06 0)
(1.28037e-09 -3.01121e-06 0)
(1.12981e-09 -3.01229e-06 0)
(9.80694e-10 -3.01325e-06 0)
(8.33069e-10 -3.01408e-06 0)
(6.86999e-10 -3.01478e-06 0)
(5.42543e-10 -3.01534e-06 0)
(3.99759e-10 -3.01578e-06 0)
(2.58705e-10 -3.01608e-06 0)
(1.19438e-10 -3.01625e-06 0)
(-1.79854e-11 -3.01629e-06 0)
(-1.53511e-10 -3.01618e-06 0)
(-2.87083e-10 -3.01594e-06 0)
(-4.18649e-10 -3.01557e-06 0)
(-5.48156e-10 -3.01505e-06 0)
(-6.75553e-10 -3.01439e-06 0)
(-8.00791e-10 -3.01359e-06 0)
(-9.2382e-10 -3.01265e-06 0)
(-1.04459e-09 -3.01157e-06 0)
(-1.16306e-09 -3.01034e-06 0)
(-1.27919e-09 -3.00898e-06 0)
(-1.39292e-09 -3.00747e-06 0)
(-1.50421e-09 -3.00581e-06 0)
(-1.61303e-09 -3.00401e-06 0)
(-1.71933e-09 -3.00207e-06 0)
(-1.82308e-09 -2.99999e-06 0)
(-1.92423e-09 -2.99776e-06 0)
(-2.02276e-09 -2.99539e-06 0)
(-2.11861e-09 -2.99288e-06 0)
(-2.21177e-09 -2.99022e-06 0)
(-2.3022e-09 -2.98742e-06 0)
(-2.38987e-09 -2.98448e-06 0)
(-2.47475e-09 -2.9814e-06 0)
(-2.55679e-09 -2.97819e-06 0)
(-2.63608e-09 -2.97478e-06 0)
(-2.71216e-09 -2.97133e-06 0)
(-2.791e-09 -2.96733e-06 0)
(-2.87364e-09 -2.96268e-06 0)
(-2.95303e-09 -2.95795e-06 0)
(-3.02755e-09 -2.9531e-06 0)
(-3.09717e-09 -2.94813e-06 0)
(-3.16197e-09 -2.94304e-06 0)
(-3.2221e-09 -2.93786e-06 0)
(-3.27765e-09 -2.93258e-06 0)
(-3.32878e-09 -2.92722e-06 0)
(-3.37563e-09 -2.92178e-06 0)
(-3.41835e-09 -2.91627e-06 0)
(-3.45706e-09 -2.91069e-06 0)
(-3.49191e-09 -2.90505e-06 0)
(-3.523e-09 -2.89936e-06 0)
(-3.55048e-09 -2.89362e-06 0)
(-3.57446e-09 -2.88784e-06 0)
(-3.59506e-09 -2.88202e-06 0)
(-3.61238e-09 -2.87618e-06 0)
(-3.62655e-09 -2.87031e-06 0)
(-3.63766e-09 -2.86441e-06 0)
(-3.64582e-09 -2.85851e-06 0)
(-3.65112e-09 -2.85259e-06 0)
(-3.65367e-09 -2.84667e-06 0)
(-3.65355e-09 -2.84074e-06 0)
(-3.65084e-09 -2.83482e-06 0)
(-3.64565e-09 -2.8289e-06 0)
(-3.63804e-09 -2.823e-06 0)
(-3.6281e-09 -2.81711e-06 0)
(-3.61589e-09 -2.81123e-06 0)
(-3.6015e-09 -2.80538e-06 0)
(-3.585e-09 -2.79956e-06 0)
(-3.56645e-09 -2.79376e-06 0)
(-3.54591e-09 -2.78799e-06 0)
(-3.52345e-09 -2.78226e-06 0)
(-3.49912e-09 -2.77657e-06 0)
(-3.473e-09 -2.77092e-06 0)
(-3.44512e-09 -2.76531e-06 0)
(-3.41554e-09 -2.75975e-06 0)
(-3.38432e-09 -2.75423e-06 0)
(-3.35151e-09 -2.74877e-06 0)
(-3.31714e-09 -2.74337e-06 0)
(-3.28128e-09 -2.73802e-06 0)
(-3.24395e-09 -2.73273e-06 0)
(-3.20521e-09 -2.7275e-06 0)
(-3.16509e-09 -2.72234e-06 0)
(-3.12364e-09 -2.71724e-06 0)
(-3.08088e-09 -2.71221e-06 0)
(-3.03687e-09 -2.70725e-06 0)
(-2.99162e-09 -2.70237e-06 0)
(-2.94518e-09 -2.69755e-06 0)
(-2.89757e-09 -2.69282e-06 0)
(-2.84883e-09 -2.68816e-06 0)
(-2.79899e-09 -2.68358e-06 0)
(-2.74808e-09 -2.67909e-06 0)
(-2.69613e-09 -2.67467e-06 0)
(-2.64315e-09 -2.67034e-06 0)
(-2.58919e-09 -2.6661e-06 0)
(-2.53426e-09 -2.66195e-06 0)
(-2.47839e-09 -2.65788e-06 0)
(-2.42161e-09 -2.65391e-06 0)
(-2.36393e-09 -2.65003e-06 0)
(-2.30539e-09 -2.64625e-06 0)
(-2.24601e-09 -2.64255e-06 0)
(-2.1858e-09 -2.63896e-06 0)
(-2.1248e-09 -2.63546e-06 0)
(-2.06303e-09 -2.63207e-06 0)
(-2.0005e-09 -2.62877e-06 0)
(-1.93725e-09 -2.62558e-06 0)
(-1.87329e-09 -2.62249e-06 0)
(-1.80865e-09 -2.6195e-06 0)
(-1.74335e-09 -2.61662e-06 0)
(-1.67741e-09 -2.61385e-06 0)
(-1.61086e-09 -2.61118e-06 0)
(-1.54371e-09 -2.60862e-06 0)
(-1.476e-09 -2.60617e-06 0)
(-1.40774e-09 -2.60383e-06 0)
(-1.33896e-09 -2.60159e-06 0)
(-1.26969e-09 -2.59948e-06 0)
(-1.19994e-09 -2.59747e-06 0)
(-1.12975e-09 -2.59558e-06 0)
(-1.05913e-09 -2.5938e-06 0)
(-9.88119e-10 -2.59214e-06 0)
(-9.16743e-10 -2.59059e-06 0)
(-8.45031e-10 -2.58916e-06 0)
(-7.73012e-10 -2.58783e-06 0)
(-7.00717e-10 -2.58665e-06 0)
(-6.28167e-10 -2.58551e-06 0)
(-5.55408e-10 -2.58473e-06 0)
(-4.82401e-10 -2.58328e-06 0)
(-4.09368e-10 -2.58451e-06 0)
(-3.35646e-10 -2.57719e-06 0)
(-2.63638e-10 -2.59767e-06 0)
(-1.85281e-10 -2.51955e-06 0)
(-1.2989e-10 -2.72623e-06 0)
(-5.90587e-11 -2.38096e-06 0)
)
;
    }
    bottomWall
    {
        type            calculated;
        value           nonuniform List<vector> 
449
(
(-48.5309 -0.964072 0)
(-19.7542 -0.00515403 0)
(-14.3509 -0.00113314 0)
(-12.0482 -0.000542759 0)
(-10.6538 -0.000346511 0)
(-9.68229 -0.000246118 0)
(-8.96931 -0.000177141 0)
(-8.46715 -0.000111554 0)
(-8.20282 -2.62362e-05 0)
(-8.28879 0.000141307 0)
(-9.18489 0.000309624 0)
(-10.4349 0.000312603 0)
(-11.3509 0.00020769 0)
(-11.8769 0.000116185 0)
(-12.1599 6.18199e-05 0)
(-12.3085 3.04848e-05 0)
(-12.3733 1.03329e-05 0)
(-12.3809 -3.42555e-06 0)
(-12.349 -1.22021e-05 0)
(-12.2947 -1.75793e-05 0)
(-12.2246 -2.09553e-05 0)
(-12.1461 -2.26652e-05 0)
(-12.0635 -2.33583e-05 0)
(-11.9797 -2.34299e-05 0)
(-11.8962 -2.31329e-05 0)
(-11.8141 -2.26408e-05 0)
(-11.7338 -2.20275e-05 0)
(-11.6557 -2.13236e-05 0)
(-11.5801 -2.05865e-05 0)
(-11.507 -1.9845e-05 0)
(-11.4364 -1.9116e-05 0)
(-11.3682 -1.84084e-05 0)
(-11.3024 -1.77277e-05 0)
(-11.2389 -1.70737e-05 0)
(-11.1776 -1.64603e-05 0)
(-11.1183 -1.58852e-05 0)
(-11.0609 -1.53284e-05 0)
(-11.0054 -1.47909e-05 0)
(-10.9518 -1.42806e-05 0)
(-10.8998 -1.37961e-05 0)
(-10.8495 -1.33336e-05 0)
(-10.8007 -1.28951e-05 0)
(-10.7534 -1.24799e-05 0)
(-10.7075 -1.20844e-05 0)
(-10.663 -1.17086e-05 0)
(-10.6197 -1.13529e-05 0)
(-10.5776 -1.1011e-05 0)
(-10.5367 -1.06844e-05 0)
(-10.4969 -1.04014e-05 0)
(-10.4579 -1.01623e-05 0)
(-10.4198 -9.9395e-06 0)
(-10.3823 -9.72389e-06 0)
(-10.3456 -9.50985e-06 0)
(-10.3096 -9.29829e-06 0)
(-10.2743 -9.09159e-06 0)
(-10.2398 -8.89069e-06 0)
(-10.2059 -8.69674e-06 0)
(-10.1726 -8.50941e-06 0)
(-10.14 -8.32867e-06 0)
(-10.108 -8.15459e-06 0)
(-10.0766 -7.98573e-06 0)
(-10.0458 -7.82375e-06 0)
(-10.0155 -7.66723e-06 0)
(-9.98577 -7.51549e-06 0)
(-9.95654 -7.36832e-06 0)
(-9.92781 -7.2261e-06 0)
(-9.89955 -7.08939e-06 0)
(-9.87177 -6.9574e-06 0)
(-9.84443 -6.83468e-06 0)
(-9.81748 -6.71707e-06 0)
(-9.79095 -6.5982e-06 0)
(-9.76483 -6.48027e-06 0)
(-9.73912 -6.36662e-06 0)
(-9.71378 -6.25657e-06 0)
(-9.68883 -6.14996e-06 0)
(-9.66424 -6.04654e-06 0)
(-9.64001 -5.94549e-06 0)
(-9.61612 -5.84686e-06 0)
(-9.59257 -5.75083e-06 0)
(-9.56935 -5.65763e-06 0)
(-9.54645 -5.56721e-06 0)
(-9.52385 -5.47913e-06 0)
(-9.50157 -5.39411e-06 0)
(-9.47957 -5.31063e-06 0)
(-9.45786 -5.22945e-06 0)
(-9.43643 -5.15071e-06 0)
(-9.41528 -5.07336e-06 0)
(-9.39438 -4.99902e-06 0)
(-9.37374 -4.92559e-06 0)
(-9.35336 -4.85426e-06 0)
(-9.33323 -4.7848e-06 0)
(-9.31333 -4.71617e-06 0)
(-9.29367 -4.65019e-06 0)
(-9.27424 -4.58498e-06 0)
(-9.25504 -4.52101e-06 0)
(-9.23605 -4.45983e-06 0)
(-9.21728 -4.40025e-06 0)
(-9.19871 -4.34473e-06 0)
(-9.18032 -4.28991e-06 0)
(-9.16213 -4.23281e-06 0)
(-9.14415 -4.17735e-06 0)
(-9.12635 -4.1226e-06 0)
(-9.10875 -4.06824e-06 0)
(-9.09133 -4.01681e-06 0)
(-9.07409 -3.96534e-06 0)
(-9.05704 -3.91456e-06 0)
(-9.04016 -3.8661e-06 0)
(-9.02345 -3.81755e-06 0)
(-9.00691 -3.76982e-06 0)
(-8.99054 -3.72434e-06 0)
(-8.97432 -3.67843e-06 0)
(-8.95828 -3.6335e-06 0)
(-8.94238 -3.59053e-06 0)
(-8.92664 -3.5473e-06 0)
(-8.91105 -3.50472e-06 0)
(-8.89561 -3.46425e-06 0)
(-8.8803 -3.42349e-06 0)
(-8.86515 -3.38307e-06 0)
(-8.85013 -3.34455e-06 0)
(-8.83526 -3.30631e-06 0)
(-8.82051 -3.26801e-06 0)
(-8.80591 -3.23125e-06 0)
(-8.79143 -3.19527e-06 0)
(-8.77708 -3.15908e-06 0)
(-8.76286 -3.12375e-06 0)
(-8.74877 -3.09002e-06 0)
(-8.73478 -3.05578e-06 0)
(-8.72094 -3.0218e-06 0)
(-8.7072 -2.98962e-06 0)
(-8.69358 -2.95757e-06 0)
(-8.68007 -2.92528e-06 0)
(-8.66669 -2.89419e-06 0)
(-8.6534 -2.86413e-06 0)
(-8.64023 -2.83357e-06 0)
(-8.62716 -2.80348e-06 0)
(-8.61421 -2.77468e-06 0)
(-8.60135 -2.74641e-06 0)
(-8.5886 -2.71799e-06 0)
(-8.57595 -2.69082e-06 0)
(-8.56339 -2.665e-06 0)
(-8.55092 -2.63953e-06 0)
(-8.53855 -2.61292e-06 0)
(-8.52627 -2.58654e-06 0)
(-8.51409 -2.56089e-06 0)
(-8.50199 -2.53532e-06 0)
(-8.49 -2.50958e-06 0)
(-8.47809 -2.48498e-06 0)
(-8.46627 -2.461e-06 0)
(-8.45454 -2.43687e-06 0)
(-8.4429 -2.41255e-06 0)
(-8.43135 -2.38938e-06 0)
(-8.41987 -2.36678e-06 0)
(-8.40849 -2.3439e-06 0)
(-8.39718 -2.32087e-06 0)
(-8.38596 -2.29901e-06 0)
(-8.37482 -2.27766e-06 0)
(-8.36375 -2.25597e-06 0)
(-8.35277 -2.23409e-06 0)
(-8.34187 -2.21338e-06 0)
(-8.33103 -2.19322e-06 0)
(-8.32028 -2.17267e-06 0)
(-8.3096 -2.15197e-06 0)
(-8.299 -2.13226e-06 0)
(-8.28846 -2.11324e-06 0)
(-8.278 -2.09395e-06 0)
(-8.26761 -2.07446e-06 0)
(-8.25729 -2.05573e-06 0)
(-8.24704 -2.03765e-06 0)
(-8.23686 -2.01972e-06 0)
(-8.22673 -2.00121e-06 0)
(-8.21669 -1.98361e-06 0)
(-8.2067 -1.96621e-06 0)
(-8.19678 -1.94666e-06 0)
(-8.18749 -1.93221e-06 0)
(-8.17874 -1.92035e-06 0)
(-8.16995 -1.90428e-06 0)
(-8.16115 -1.88895e-06 0)
(-8.15231 -1.87445e-06 0)
(-8.14346 -1.85914e-06 0)
(-8.13458 -1.84386e-06 0)
(-8.12568 -1.82897e-06 0)
(-8.11675 -1.81426e-06 0)
(-8.1078 -1.79951e-06 0)
(-8.09882 -1.78441e-06 0)
(-8.08984 -1.76925e-06 0)
(-8.08082 -1.75456e-06 0)
(-8.07178 -1.74004e-06 0)
(-8.06272 -1.72544e-06 0)
(-8.05364 -1.71056e-06 0)
(-8.04454 -1.69579e-06 0)
(-8.03542 -1.68133e-06 0)
(-8.02628 -1.66709e-06 0)
(-8.01712 -1.65259e-06 0)
(-8.00794 -1.63794e-06 0)
(-7.99875 -1.62353e-06 0)
(-7.98953 -1.60948e-06 0)
(-7.9803 -1.59547e-06 0)
(-7.97105 -1.58121e-06 0)
(-7.96178 -1.56689e-06 0)
(-7.95249 -1.55297e-06 0)
(-7.94319 -1.53923e-06 0)
(-7.93387 -1.52553e-06 0)
(-7.92454 -1.512e-06 0)
(-7.91518 -1.49904e-06 0)
(-7.9058 -1.486e-06 0)
(-7.89641 -1.47235e-06 0)
(-7.887 -1.45842e-06 0)
(-7.87758 -1.44448e-06 0)
(-7.86815 -1.43088e-06 0)
(-7.85871 -1.41748e-06 0)
(-7.84925 -1.40381e-06 0)
(-7.83979 -1.38997e-06 0)
(-7.83032 -1.37648e-06 0)
(-7.82083 -1.36319e-06 0)
(-7.81134 -1.34978e-06 0)
(-7.80183 -1.33622e-06 0)
(-7.79233 -1.32271e-06 0)
(-7.78281 -1.30963e-06 0)
(-7.77329 -1.29644e-06 0)
(-7.76376 -1.28318e-06 0)
(-7.75423 -1.26988e-06 0)
(-7.74469 -1.25701e-06 0)
(-7.73515 -1.24416e-06 0)
(-7.72561 -1.23116e-06 0)
(-7.71606 -1.21806e-06 0)
(-7.70651 -1.2054e-06 0)
(-7.69696 -1.19281e-06 0)
(-7.6874 -1.18011e-06 0)
(-7.67785 -1.16734e-06 0)
(-7.66829 -1.15497e-06 0)
(-7.65873 -1.1428e-06 0)
(-7.64918 -1.13048e-06 0)
(-7.63962 -1.11804e-06 0)
(-7.63007 -1.106e-06 0)
(-7.62051 -1.09412e-06 0)
(-7.61096 -1.08203e-06 0)
(-7.60141 -1.06988e-06 0)
(-7.59187 -1.058e-06 0)
(-7.58232 -1.04629e-06 0)
(-7.57279 -1.03439e-06 0)
(-7.56326 -1.02242e-06 0)
(-7.55374 -1.01081e-06 0)
(-7.54422 -9.99394e-07 0)
(-7.53471 -9.87813e-07 0)
(-7.52521 -9.76221e-07 0)
(-7.51572 -9.64983e-07 0)
(-7.50623 -9.53868e-07 0)
(-7.49675 -9.42647e-07 0)
(-7.48728 -9.31457e-07 0)
(-7.47783 -9.20586e-07 0)
(-7.46838 -9.09806e-07 0)
(-7.45895 -8.98858e-07 0)
(-7.44952 -8.88045e-07 0)
(-7.44011 -8.7744e-07 0)
(-7.43071 -8.66936e-07 0)
(-7.42132 -8.56256e-07 0)
(-7.41195 -8.45845e-07 0)
(-7.40259 -8.35605e-07 0)
(-7.39324 -8.25398e-07 0)
(-7.38391 -8.15104e-07 0)
(-7.3746 -8.0507e-07 0)
(-7.3653 -7.95218e-07 0)
(-7.35601 -7.8529e-07 0)
(-7.34674 -7.75251e-07 0)
(-7.3375 -7.6552e-07 0)
(-7.32826 -7.55834e-07 0)
(-7.31905 -7.46074e-07 0)
(-7.30986 -7.36458e-07 0)
(-7.30068 -7.27083e-07 0)
(-7.29153 -7.17808e-07 0)
(-7.28239 -7.08601e-07 0)
(-7.27328 -6.99763e-07 0)
(-7.26417 -6.91067e-07 0)
(-7.25509 -6.82161e-07 0)
(-7.24602 -6.7326e-07 0)
(-7.23698 -6.64567e-07 0)
(-7.22796 -6.56045e-07 0)
(-7.21895 -6.47488e-07 0)
(-7.20997 -6.38922e-07 0)
(-7.20101 -6.30644e-07 0)
(-7.19207 -6.2229e-07 0)
(-7.18315 -6.13955e-07 0)
(-7.17426 -6.05775e-07 0)
(-7.16539 -5.97793e-07 0)
(-7.15654 -5.8974e-07 0)
(-7.14772 -5.81834e-07 0)
(-7.13892 -5.74058e-07 0)
(-7.13015 -5.66437e-07 0)
(-7.12139 -5.58783e-07 0)
(-7.11267 -5.51223e-07 0)
(-7.10396 -5.43865e-07 0)
(-7.09528 -5.36486e-07 0)
(-7.08662 -5.29161e-07 0)
(-7.078 -5.21998e-07 0)
(-7.06939 -5.1494e-07 0)
(-7.06081 -5.07913e-07 0)
(-7.05225 -5.00947e-07 0)
(-7.04372 -4.94192e-07 0)
(-7.03521 -4.87416e-07 0)
(-7.02674 -4.80725e-07 0)
(-7.01828 -4.74127e-07 0)
(-7.00985 -4.67627e-07 0)
(-7.00144 -4.61161e-07 0)
(-6.99307 -4.54813e-07 0)
(-6.98471 -4.48579e-07 0)
(-6.97639 -4.42447e-07 0)
(-6.96808 -4.36332e-07 0)
(-6.95981 -4.30343e-07 0)
(-6.95155 -4.24444e-07 0)
(-6.94333 -4.18572e-07 0)
(-6.93513 -4.12758e-07 0)
(-6.92696 -4.07139e-07 0)
(-6.9188 -4.01528e-07 0)
(-6.91068 -3.95968e-07 0)
(-6.90257 -3.90505e-07 0)
(-6.8945 -3.8509e-07 0)
(-6.88645 -3.7971e-07 0)
(-6.87843 -3.74395e-07 0)
(-6.87043 -3.69199e-07 0)
(-6.86246 -3.64047e-07 0)
(-6.85451 -3.58971e-07 0)
(-6.8466 -3.53985e-07 0)
(-6.83869 -3.49066e-07 0)
(-6.83083 -3.44149e-07 0)
(-6.82298 -3.39296e-07 0)
(-6.81517 -3.34492e-07 0)
(-6.80738 -3.29763e-07 0)
(-6.79962 -3.25045e-07 0)
(-6.79188 -3.20449e-07 0)
(-6.78418 -3.15916e-07 0)
(-6.77649 -3.11409e-07 0)
(-6.76885 -3.07004e-07 0)
(-6.76121 -3.02668e-07 0)
(-6.75362 -2.98359e-07 0)
(-6.74604 -2.94108e-07 0)
(-6.7385 -2.89921e-07 0)
(-6.73097 -2.85819e-07 0)
(-6.72348 -2.8171e-07 0)
(-6.71601 -2.77743e-07 0)
(-6.70857 -2.73774e-07 0)
(-6.70115 -2.69922e-07 0)
(-6.69376 -2.66069e-07 0)
(-6.68639 -2.62341e-07 0)
(-6.67906 -2.58614e-07 0)
(-6.67174 -2.54973e-07 0)
(-6.66445 -2.51316e-07 0)
(-6.65719 -2.47786e-07 0)
(-6.64995 -2.44242e-07 0)
(-6.64274 -2.40906e-07 0)
(-6.63554 -2.37506e-07 0)
(-6.62838 -2.34241e-07 0)
(-6.62122 -2.30813e-07 0)
(-6.61412 -2.27631e-07 0)
(-6.60701 -2.24376e-07 0)
(-6.59916 -2.20105e-07 0)
(-6.59065 -2.15694e-07 0)
(-6.58232 -2.11853e-07 0)
(-6.57411 -2.08203e-07 0)
(-6.56606 -2.04573e-07 0)
(-6.55813 -2.01028e-07 0)
(-6.55036 -1.97542e-07 0)
(-6.54271 -1.94233e-07 0)
(-6.5352 -1.91032e-07 0)
(-6.5278 -1.88009e-07 0)
(-6.52052 -1.85135e-07 0)
(-6.51334 -1.8234e-07 0)
(-6.50628 -1.79567e-07 0)
(-6.49932 -1.76866e-07 0)
(-6.49247 -1.74224e-07 0)
(-6.48572 -1.71667e-07 0)
(-6.47907 -1.6919e-07 0)
(-6.47251 -1.6675e-07 0)
(-6.46605 -1.64441e-07 0)
(-6.45967 -1.62189e-07 0)
(-6.45339 -1.60023e-07 0)
(-6.44717 -1.57899e-07 0)
(-6.44106 -1.55838e-07 0)
(-6.43501 -1.53811e-07 0)
(-6.42905 -1.51817e-07 0)
(-6.42315 -1.49838e-07 0)
(-6.41735 -1.47887e-07 0)
(-6.4116 -1.4604e-07 0)
(-6.40595 -1.44223e-07 0)
(-6.40034 -1.42492e-07 0)
(-6.39482 -1.40774e-07 0)
(-6.38935 -1.39102e-07 0)
(-6.38396 -1.37427e-07 0)
(-6.37862 -1.35768e-07 0)
(-6.37336 -1.34189e-07 0)
(-6.36814 -1.32598e-07 0)
(-6.36301 -1.31107e-07 0)
(-6.35791 -1.29626e-07 0)
(-6.35288 -1.28209e-07 0)
(-6.3479 -1.26795e-07 0)
(-6.34298 -1.25378e-07 0)
(-6.33811 -1.24003e-07 0)
(-6.3333 -1.22652e-07 0)
(-6.32853 -1.21335e-07 0)
(-6.32383 -1.20052e-07 0)
(-6.31916 -1.1877e-07 0)
(-6.31455 -1.1754e-07 0)
(-6.30998 -1.1624e-07 0)
(-6.30548 -1.15013e-07 0)
(-6.301 -1.1383e-07 0)
(-6.29659 -1.1272e-07 0)
(-6.2922 -1.11681e-07 0)
(-6.28787 -1.10602e-07 0)
(-6.28356 -1.09587e-07 0)
(-6.27931 -1.08565e-07 0)
(-6.27508 -1.07629e-07 0)
(-6.27091 -1.06661e-07 0)
(-6.26675 -1.05719e-07 0)
(-6.26265 -1.04798e-07 0)
(-6.25857 -1.03884e-07 0)
(-6.25454 -1.02968e-07 0)
(-6.25053 -1.02061e-07 0)
(-6.24657 -1.01146e-07 0)
(-6.24263 -1.00218e-07 0)
(-6.23875 -9.93427e-08 0)
(-6.23488 -9.84406e-08 0)
(-6.23106 -9.75826e-08 0)
(-6.22726 -9.67116e-08 0)
(-6.22351 -9.59185e-08 0)
(-6.21977 -9.50797e-08 0)
(-6.21608 -9.43267e-08 0)
(-6.2124 -9.34499e-08 0)
(-6.20879 -9.27523e-08 0)
(-6.20516 -9.19238e-08 0)
(-6.20161 -9.12779e-08 0)
(-6.19803 -9.0478e-08 0)
(-6.19454 -8.98641e-08 0)
(-6.19101 -8.91164e-08 0)
(-6.18759 -8.85364e-08 0)
(-6.1841 -8.78651e-08 0)
(-6.18072 -8.73787e-08 0)
(-6.17728 -8.6739e-08 0)
(-6.17395 -8.61817e-08 0)
(-6.17055 -8.5639e-08 0)
(-6.16726 -8.49794e-08 0)
(-6.16391 -8.48082e-08 0)
(-6.16064 -8.36325e-08 0)
(-6.15738 -8.48276e-08 0)
(-6.15401 -8.12806e-08 0)
(-6.15104 -8.76913e-08 0)
(-6.14715 -7.45198e-08 0)
(-6.14526 -9.78949e-08 0)
(-6.13944 -5.80766e-08 0)
(-6.14084 -7.85409e-08 0)
(-6.13309 -1.03227e-07 0)
)
;
    }
    symmetry
    {
        type            symmetryPlane;
    }
    frontAndBack
    {
        type            empty;
    }
}


// ************************************************************************* //
