/*--------------------------------*- C++ -*----------------------------------*\
| =========                 |                                                 |
| \\      /  F ield         | OpenFOAM: The Open Source CFD Toolbox           |
|  \\    /   O peration     | Version:  v2012                                 |
|   \\  /    A nd           | Website:  www.openfoam.com                      |
|    \\/     M anipulation  |                                                 |
\*---------------------------------------------------------------------------*/
FoamFile
{
    version     2.0;
    format      ascii;
    class       volScalarField;
    location    "24.5";
    object      k;
}
// * * * * * * * * * * * * * * * * * * * * * * * * * * * * * * * * * * * * * //

dimensions      [0 2 -2 0 0 0 0];


internalField   nonuniform List<scalar> 
209825
(
0.00102268
0.00092866
0.000859334
0.000809828
0.000773822
0.000746913
0.000726028
0.000709503
0.000695991
0.000684888
0.000675476
0.000667543
0.000660646
0.000654727
0.000649466
0.000644916
0.000640798
0.000637215
0.000633917
0.000631036
0.000628346
0.000625992
0.000623759
0.000621816
0.000619952
0.000618331
0.000616753
0.000615387
0.000614061
0.000612896
0.00061175
0.000610775
0.000609802
0.000608974
0.00060814
0.000607426
0.00060669
0.000606079
0.000605443
0.000604918
0.000604372
0.00060392
0.000603438
0.000603044
0.000602627
0.000602293
0.000601925
0.000601652
0.000601334
0.000601094
0.000600832
0.000600635
0.000600392
0.00060023
0.000600047
0.000599909
0.000599746
0.000599651
0.000599528
0.000599418
0.000599328
0.000599263
0.000599114
0.000599072
0.000599053
0.000599022
0.000598998
0.000599102
0.000599151
0.000599286
0.000599416
0.000599612
0.000599724
0.000599928
0.000600038
0.00060028
0.000600418
0.000600727
0.000600912
0.000601299
0.000601511
0.000601949
0.000602196
0.000602711
0.000603008
0.000603634
0.000603997
0.00060476
0.000605194
0.000606144
0.000606638
0.000608146
0.000608467
0.000615515
0.0102649
0.0111842
0.00102268
0.00092866
0.000859332
0.000809823
0.000773815
0.000746904
0.000726017
0.00070949
0.000695976
0.000684872
0.000675459
0.000667525
0.000660626
0.000654707
0.000649445
0.000644895
0.000640776
0.000637193
0.000633894
0.000631012
0.000628323
0.000625968
0.000623735
0.000621791
0.000619927
0.000618306
0.000616728
0.000615362
0.000614035
0.000612871
0.000611725
0.000610749
0.000609776
0.000608948
0.000608114
0.000607399
0.000606664
0.000606052
0.000605416
0.000604891
0.000604345
0.000603893
0.000603411
0.000603017
0.000602599
0.000602266
0.000601898
0.000601625
0.000601306
0.000601067
0.000600804
0.000600607
0.000600364
0.000600202
0.000600019
0.000599881
0.000599718
0.000599623
0.0005995
0.00059939
0.0005993
0.000599235
0.000599086
0.000599044
0.000599025
0.000598994
0.00059897
0.000599074
0.000599123
0.000599258
0.000599387
0.000599584
0.000599695
0.000599899
0.00060001
0.000600251
0.00060039
0.000600698
0.000600883
0.000601271
0.000601482
0.000601921
0.000602168
0.000602683
0.00060298
0.000603605
0.000603969
0.000604731
0.000605165
0.000606115
0.000606609
0.000608118
0.000608438
0.000615497
0.0102732
0.0111953
0.00102268
0.00092866
0.000859322
0.000809801
0.000773781
0.000746859
0.000725963
0.000709429
0.00069591
0.0006848
0.000675383
0.000667445
0.000660544
0.000654621
0.000649357
0.000644804
0.000640684
0.000637099
0.000633799
0.000630915
0.000628224
0.000625869
0.000623634
0.000621689
0.000619824
0.000618202
0.000616623
0.000615257
0.000613929
0.000612764
0.000611618
0.000610641
0.000609668
0.000608839
0.000608005
0.00060729
0.000606554
0.000605942
0.000605305
0.00060478
0.000604234
0.000603781
0.000603299
0.000602904
0.000602487
0.000602154
0.000601785
0.000601512
0.000601193
0.000600953
0.000600691
0.000600494
0.00060025
0.000600088
0.000599905
0.000599767
0.000599604
0.000599509
0.000599385
0.000599275
0.000599185
0.00059912
0.000598971
0.000598929
0.00059891
0.000598879
0.000598854
0.000598958
0.000599007
0.000599142
0.000599271
0.000599468
0.000599579
0.000599783
0.000599893
0.000600135
0.000600273
0.000600581
0.000600766
0.000601153
0.000601365
0.000601803
0.00060205
0.000602565
0.000602862
0.000603487
0.00060385
0.000604612
0.000605046
0.000605996
0.000606489
0.000607998
0.000608317
0.000615397
0.0102897
0.0112174
0.00102269
0.00092866
0.000859305
0.000809762
0.000773722
0.000746783
0.000725873
0.000709327
0.000695798
0.000684679
0.000675255
0.000667311
0.000660404
0.000654477
0.000649209
0.000644652
0.000640528
0.00063694
0.000633638
0.000630752
0.000628059
0.000625701
0.000623465
0.000621518
0.000619652
0.000618028
0.000616448
0.00061508
0.000613751
0.000612585
0.000611438
0.00061046
0.000609486
0.000608657
0.000607822
0.000607106
0.000606369
0.000605756
0.000605119
0.000604594
0.000604047
0.000603594
0.000603111
0.000602716
0.000602298
0.000601964
0.000601595
0.000601322
0.000601003
0.000600762
0.0006005
0.000600302
0.000600059
0.000599897
0.000599713
0.000599575
0.000599411
0.000599316
0.000599192
0.000599083
0.000598992
0.000598927
0.000598778
0.000598735
0.000598716
0.000598685
0.00059866
0.000598764
0.000598812
0.000598947
0.000599076
0.000599272
0.000599383
0.000599587
0.000599697
0.000599938
0.000600076
0.000600385
0.000600569
0.000600956
0.000601168
0.000601606
0.000601852
0.000602367
0.000602663
0.000603288
0.000603651
0.000604412
0.000604846
0.000605795
0.000606288
0.000607796
0.000608112
0.000615225
0.0103152
0.0112516
0.00102269
0.00092866
0.00085928
0.000809707
0.000773638
0.000746675
0.000725745
0.000709182
0.000695639
0.000684509
0.000675075
0.000667122
0.000660207
0.000654274
0.000648999
0.000644438
0.000640309
0.000636717
0.00063341
0.000630521
0.000627825
0.000625465
0.000623226
0.000621277
0.000619408
0.000617782
0.0006162
0.000614831
0.0006135
0.000612333
0.000611184
0.000610205
0.00060923
0.000608399
0.000607563
0.000606846
0.000606108
0.000605495
0.000604857
0.00060433
0.000603783
0.000603329
0.000602846
0.00060245
0.000602032
0.000601697
0.000601328
0.000601054
0.000600734
0.000600493
0.00060023
0.000600033
0.000599789
0.000599626
0.000599442
0.000599304
0.00059914
0.000599044
0.00059892
0.00059881
0.000598719
0.000598655
0.000598506
0.000598462
0.000598443
0.000598412
0.000598385
0.000598489
0.000598537
0.000598672
0.0005988
0.000598996
0.000599107
0.000599311
0.000599421
0.000599661
0.000599799
0.000600107
0.000600292
0.000600678
0.000600889
0.000601327
0.000601573
0.000602087
0.000602383
0.000603007
0.00060337
0.00060413
0.000604563
0.000605511
0.000606004
0.000607511
0.000607824
0.000614982
0.0103504
0.0112985
0.0010227
0.000928661
0.000859248
0.000809636
0.00077353
0.000746536
0.00072558
0.000708995
0.000695434
0.000684288
0.000674841
0.000666876
0.000659952
0.00065401
0.000648728
0.000644159
0.000640025
0.000636427
0.000633116
0.000630222
0.000627522
0.000625158
0.000622916
0.000620964
0.000619092
0.000617464
0.000615879
0.000614508
0.000613175
0.000612006
0.000610855
0.000609874
0.000608897
0.000608065
0.000607228
0.00060651
0.00060577
0.000605156
0.000604517
0.000603989
0.000603441
0.000602986
0.000602502
0.000602106
0.000601686
0.000601351
0.000600981
0.000600706
0.000600386
0.000600145
0.000599881
0.000599683
0.000599438
0.000599276
0.000599091
0.000598952
0.000598788
0.000598692
0.000598568
0.000598458
0.000598366
0.000598301
0.000598153
0.000598109
0.000598089
0.000598058
0.00059803
0.000598133
0.00059818
0.000598315
0.000598443
0.000598639
0.000598749
0.000598953
0.000599062
0.000599303
0.00059944
0.000599747
0.000599931
0.000600317
0.000600528
0.000600965
0.000601211
0.000601724
0.00060202
0.000602643
0.000603006
0.000603765
0.000604197
0.000605144
0.000605635
0.000607142
0.00060745
0.000614666
0.010396
0.0113589
0.00102271
0.000928661
0.000859209
0.000809548
0.000773398
0.000746364
0.000725376
0.000708765
0.000695181
0.000684017
0.000674553
0.000666574
0.000659638
0.000653685
0.000648394
0.000643817
0.000639675
0.00063607
0.000632753
0.000629854
0.000627149
0.00062478
0.000622534
0.000620578
0.000618703
0.000617071
0.000615484
0.000614109
0.000612774
0.000611603
0.000610449
0.000609467
0.000608488
0.000607654
0.000606814
0.000606095
0.000605354
0.000604738
0.000604098
0.000603569
0.000603019
0.000602564
0.000602078
0.000601681
0.00060126
0.000600925
0.000600553
0.000600278
0.000599957
0.000599715
0.00059945
0.000599252
0.000599007
0.000598843
0.000598658
0.000598519
0.000598354
0.000598258
0.000598133
0.000598023
0.000597931
0.000597866
0.000597717
0.000597673
0.000597652
0.000597622
0.000597592
0.000597695
0.000597741
0.000597875
0.000598002
0.000598198
0.000598308
0.000598511
0.000598621
0.00059886
0.000598997
0.000599304
0.000599488
0.000599872
0.000600083
0.000600519
0.000600765
0.000601277
0.000601573
0.000602194
0.000602556
0.000603314
0.000603746
0.000604691
0.000605181
0.000606687
0.000606989
0.000614277
0.0104528
0.0114336
0.00102272
0.000928662
0.000859163
0.000809445
0.00077324
0.000746161
0.000725135
0.000708491
0.00069488
0.000683693
0.00067421
0.000666215
0.000659264
0.000653298
0.000647996
0.000643409
0.000639258
0.000635646
0.000632321
0.000629416
0.000626704
0.00062433
0.000622079
0.000620119
0.000618239
0.000616604
0.000615013
0.000613635
0.000612297
0.000611122
0.000609966
0.000608981
0.000608
0.000607164
0.000606322
0.000605601
0.000604858
0.000604241
0.000603598
0.000603068
0.000602517
0.00060206
0.000601573
0.000601175
0.000600753
0.000600416
0.000600044
0.000599768
0.000599446
0.000599203
0.000598938
0.000598738
0.000598493
0.000598328
0.000598142
0.000598003
0.000597837
0.00059774
0.000597615
0.000597505
0.000597412
0.000597347
0.000597199
0.000597153
0.000597132
0.000597102
0.00059707
0.000597172
0.000597217
0.000597351
0.000597477
0.000597672
0.000597782
0.000597985
0.000598094
0.000598333
0.00059847
0.000598775
0.000598958
0.000599342
0.000599553
0.000599988
0.000600233
0.000600744
0.000601039
0.00060166
0.000602021
0.000602777
0.000603208
0.000604151
0.00060464
0.000606144
0.000606439
0.000613814
0.0105212
0.0115231
0.00102273
0.000928662
0.00085911
0.000809325
0.000773058
0.000745925
0.000724854
0.000708173
0.000694531
0.000683318
0.000673812
0.000665797
0.000658829
0.000652849
0.000647533
0.000642935
0.000638773
0.000635152
0.000631819
0.000628905
0.000626187
0.000623807
0.00062155
0.000619584
0.0006177
0.00061606
0.000614465
0.000613083
0.000611741
0.000610564
0.000609404
0.000608416
0.000607432
0.000606593
0.000605749
0.000605026
0.000604281
0.000603661
0.000603017
0.000602485
0.000601932
0.000601474
0.000600986
0.000600586
0.000600163
0.000599825
0.000599451
0.000599174
0.000598851
0.000598607
0.000598341
0.000598141
0.000597894
0.000597729
0.000597542
0.000597402
0.000597236
0.000597138
0.000597013
0.000596902
0.000596808
0.000596743
0.000596595
0.000596548
0.000596527
0.000596496
0.000596463
0.000596564
0.000596608
0.000596741
0.000596866
0.000597061
0.00059717
0.000597372
0.000597481
0.000597719
0.000597855
0.00059816
0.000598343
0.000598725
0.000598935
0.00059937
0.000599614
0.000600124
0.000600418
0.000601037
0.000601397
0.000602152
0.000602582
0.000603523
0.00060401
0.000605512
0.0006058
0.000613276
0.0106018
0.0116281
0.00102275
0.000928664
0.000859051
0.00080919
0.000772851
0.000745657
0.000724534
0.000707811
0.000694133
0.000682889
0.000673357
0.000665321
0.000658333
0.000652336
0.000647005
0.000642393
0.00063822
0.000634587
0.000631245
0.000628323
0.000625597
0.000623209
0.000620946
0.000618974
0.000617084
0.000615439
0.000613839
0.000612453
0.000611106
0.000609925
0.000608762
0.000607771
0.000606783
0.000605941
0.000605094
0.000604369
0.000603621
0.000603
0.000602353
0.000601819
0.000601264
0.000600804
0.000600314
0.000599913
0.000599488
0.000599149
0.000598774
0.000598495
0.000598171
0.000597926
0.000597658
0.000597458
0.00059721
0.000597044
0.000596856
0.000596716
0.000596548
0.00059645
0.000596324
0.000596213
0.000596118
0.000596053
0.000595904
0.000595857
0.000595835
0.000595804
0.000595768
0.000595869
0.000595911
0.000596043
0.000596168
0.000596362
0.00059647
0.000596672
0.00059678
0.000597018
0.000597153
0.000597456
0.000597638
0.00059802
0.000598229
0.000598663
0.000598907
0.000599415
0.000599708
0.000600325
0.000600685
0.000601437
0.000601866
0.000602804
0.000603289
0.00060479
0.000605069
0.000612662
0.0106951
0.011749
0.00102276
0.000928665
0.000858984
0.000809038
0.000772619
0.000745355
0.000724175
0.000707403
0.000693685
0.000682407
0.000672846
0.000664784
0.000657775
0.000651758
0.00064641
0.000641783
0.000637596
0.000633952
0.000630598
0.000627667
0.000624931
0.000622536
0.000620265
0.000618286
0.00061639
0.000614739
0.000613133
0.000611742
0.000610391
0.000609206
0.000608038
0.000607043
0.000606052
0.000605207
0.000604357
0.000603628
0.000602878
0.000602254
0.000601605
0.000601069
0.000600511
0.000600049
0.000599557
0.000599154
0.000598728
0.000598387
0.00059801
0.00059773
0.000597405
0.000597159
0.000596889
0.000596688
0.000596439
0.000596272
0.000596083
0.000595942
0.000595773
0.000595674
0.000595547
0.000595436
0.00059534
0.000595274
0.000595126
0.000595078
0.000595054
0.000595024
0.000594985
0.000595085
0.000595125
0.000595257
0.00059538
0.000595574
0.000595682
0.000595883
0.00059599
0.000596227
0.000596362
0.000596663
0.000596845
0.000597225
0.000597434
0.000597866
0.000598109
0.000598616
0.000598908
0.000599523
0.000599881
0.000600631
0.000601058
0.000601994
0.000602477
0.000603976
0.000604245
0.000611971
0.0108013
0.0118864
0.00102278
0.000928668
0.000858911
0.00080887
0.000772361
0.000745021
0.000723776
0.000706951
0.000693188
0.000681871
0.000672278
0.000664187
0.000657153
0.000651115
0.000645748
0.000641105
0.000636902
0.000633244
0.000629878
0.000626936
0.00062419
0.000621786
0.000619506
0.00061752
0.000615616
0.000613959
0.000612347
0.000610951
0.000609594
0.000608404
0.000607232
0.000606233
0.000605237
0.000604389
0.000603535
0.000602803
0.00060205
0.000601423
0.000600771
0.000600232
0.000599672
0.000599208
0.000598714
0.000598309
0.00059788
0.000597538
0.000597159
0.000596878
0.000596551
0.000596303
0.000596032
0.00059583
0.000595579
0.000595411
0.000595221
0.000595079
0.00059491
0.000594809
0.000594682
0.00059457
0.000594472
0.000594407
0.000594259
0.000594209
0.000594185
0.000594154
0.000594113
0.000594211
0.00059425
0.00059438
0.000594502
0.000594695
0.000594802
0.000595003
0.000595109
0.000595345
0.000595479
0.000595779
0.00059596
0.000596338
0.000596547
0.000596977
0.00059722
0.000597725
0.000598016
0.000598629
0.000598985
0.000599733
0.000600158
0.000601091
0.000601572
0.000603068
0.000603327
0.000611203
0.0109205
0.0120407
0.0010228
0.000928671
0.000858831
0.000808686
0.000772079
0.000744654
0.000723338
0.000706453
0.00069264
0.000681281
0.000671651
0.00066353
0.000656468
0.000650406
0.000645018
0.000640356
0.000636137
0.000632464
0.000629084
0.000626129
0.000623373
0.000620958
0.000618669
0.000616674
0.000614763
0.000613098
0.00061148
0.000610077
0.000608715
0.000607519
0.000606342
0.000605338
0.000604338
0.000603485
0.000602627
0.000601892
0.000601135
0.000600505
0.00059985
0.000599308
0.000598745
0.000598279
0.000597782
0.000597375
0.000596944
0.0005966
0.000596219
0.000595936
0.000595607
0.000595358
0.000595086
0.000594882
0.00059463
0.000594461
0.000594269
0.000594126
0.000593956
0.000593854
0.000593726
0.000593613
0.000593514
0.000593449
0.000593301
0.00059325
0.000593224
0.000593194
0.000593149
0.000593246
0.000593283
0.000593412
0.000593533
0.000593725
0.000593831
0.000594031
0.000594137
0.000594371
0.000594504
0.000594803
0.000594982
0.000595359
0.000595567
0.000595995
0.000596237
0.00059674
0.00059703
0.00059764
0.000597996
0.00059874
0.000599164
0.000600094
0.000600572
0.000602066
0.000602313
0.000610356
0.0110526
0.0122122
0.00102282
0.000928674
0.000858746
0.000808487
0.000771772
0.000744253
0.000722859
0.000705909
0.000692041
0.000680636
0.000670966
0.00066281
0.000655719
0.000649631
0.000644219
0.000639536
0.000635299
0.000631609
0.000628215
0.000625247
0.000622478
0.000620052
0.000617753
0.000615748
0.000613828
0.000612156
0.00061053
0.00060912
0.000607751
0.00060655
0.000605367
0.000604358
0.000603352
0.000602495
0.000601633
0.000600894
0.000600133
0.000599499
0.000598841
0.000598296
0.00059773
0.000597261
0.000596762
0.000596352
0.000595919
0.000595573
0.00059519
0.000594904
0.000594574
0.000594323
0.000594048
0.000593843
0.00059359
0.000593419
0.000593226
0.000593082
0.00059291
0.000592807
0.000592678
0.000592565
0.000592464
0.000592399
0.000592251
0.000592198
0.000592171
0.000592141
0.000592093
0.000592188
0.000592223
0.000592352
0.00059247
0.000592661
0.000592767
0.000592965
0.00059307
0.000593303
0.000593436
0.000593733
0.000593911
0.000594286
0.000594492
0.000594919
0.00059516
0.000595661
0.00059595
0.000596557
0.000596911
0.000597652
0.000598075
0.000599001
0.000599475
0.000600967
0.000601201
0.000609428
0.0111975
0.0124012
0.00102284
0.000928679
0.000858654
0.000808272
0.00077144
0.00074382
0.000722341
0.00070532
0.000691392
0.000679935
0.000670222
0.000662029
0.000654904
0.000648788
0.000643351
0.000638646
0.000634388
0.00063068
0.000627269
0.000624286
0.000621504
0.000619066
0.000616755
0.000614741
0.000612811
0.00061113
0.000609496
0.000608078
0.000606702
0.000605495
0.000604306
0.000603291
0.00060228
0.000601418
0.00060055
0.000599807
0.000599042
0.000598405
0.000597742
0.000597195
0.000596625
0.000596153
0.000595651
0.000595239
0.000594802
0.000594454
0.000594068
0.000593781
0.000593448
0.000593196
0.000592919
0.000592712
0.000592458
0.000592285
0.00059209
0.000591945
0.000591772
0.000591668
0.000591537
0.000591423
0.000591321
0.000591255
0.000591107
0.000591053
0.000591025
0.000590994
0.000590943
0.000591036
0.000591069
0.000591196
0.000591313
0.000591503
0.000591607
0.000591805
0.000591909
0.00059214
0.000592272
0.000592567
0.000592744
0.000593117
0.000593323
0.000593748
0.000593987
0.000594486
0.000594774
0.000595378
0.00059573
0.000596468
0.000596888
0.00059781
0.000598281
0.00059977
0.00059999
0.000608419
0.0113545
0.0126079
0.00102287
0.000928684
0.000858556
0.000808042
0.000771083
0.000743354
0.000721782
0.000704684
0.000690691
0.000679179
0.000669419
0.000661184
0.000654025
0.000647877
0.000642412
0.000637683
0.000633403
0.000629676
0.000626247
0.000623248
0.000620451
0.000618
0.000615677
0.000613651
0.000611711
0.00061002
0.000608377
0.000606951
0.000605568
0.000604353
0.000603157
0.000602136
0.000601119
0.000600252
0.000599379
0.000598631
0.000597862
0.00059722
0.000596553
0.000596002
0.000595429
0.000594954
0.000594448
0.000594033
0.000593594
0.000593243
0.000592855
0.000592565
0.00059223
0.000591976
0.000591696
0.000591488
0.000591231
0.000591057
0.00059086
0.000590714
0.000590539
0.000590434
0.000590302
0.000590187
0.000590084
0.000590017
0.000589869
0.000589814
0.000589784
0.000589753
0.000589698
0.000589789
0.000589819
0.000589945
0.00059006
0.000590249
0.000590352
0.000590549
0.000590652
0.000590881
0.000591013
0.000591305
0.000591481
0.000591851
0.000592056
0.000592479
0.000592717
0.000593213
0.0005935
0.000594101
0.000594451
0.000595185
0.000595603
0.00059652
0.000596989
0.000598474
0.00059868
0.000607328
0.0115227
0.0128323
0.00102289
0.000928691
0.000858453
0.000807797
0.000770702
0.000742854
0.000721183
0.000704002
0.000689938
0.000678367
0.000668556
0.000660277
0.000653079
0.000646898
0.000641403
0.000636647
0.000632343
0.000628595
0.000625147
0.00062213
0.000619317
0.000616852
0.000614516
0.000612478
0.000610526
0.000608825
0.000607173
0.000605738
0.000604346
0.000603124
0.000601921
0.000600893
0.000599869
0.000598996
0.000598118
0.000597365
0.00059659
0.000595944
0.000595273
0.000594718
0.00059414
0.000593662
0.000593153
0.000592735
0.000592292
0.000591939
0.000591547
0.000591255
0.000590918
0.000590661
0.000590379
0.000590169
0.000589911
0.000589735
0.000589535
0.000589388
0.000589211
0.000589104
0.000588971
0.000588855
0.00058875
0.000588683
0.000588535
0.000588478
0.000588446
0.000588415
0.000588357
0.000588445
0.000588473
0.000588598
0.00058871
0.000588898
0.000588999
0.000589195
0.000589297
0.000589525
0.000589655
0.000589945
0.00059012
0.000590487
0.000590691
0.000591112
0.000591349
0.000591842
0.000592127
0.000592724
0.000593072
0.000593802
0.000594218
0.000595131
0.000595595
0.000597077
0.000597268
0.000606152
0.0117011
0.0130745
0.00102292
0.000928699
0.000858344
0.000807537
0.000770297
0.000742322
0.000720545
0.000703273
0.000689134
0.000677499
0.000667633
0.000659306
0.000652067
0.000645849
0.000640322
0.000635537
0.000631208
0.000627437
0.000623968
0.000620933
0.000618103
0.000615622
0.000613271
0.00061122
0.000609257
0.000607545
0.000605882
0.000604438
0.000603036
0.000601806
0.000600595
0.00059956
0.000598529
0.00059765
0.000596765
0.000596007
0.000595227
0.000594576
0.0005939
0.00059334
0.000592759
0.000592276
0.000591763
0.000591343
0.000590896
0.00059054
0.000590145
0.00058985
0.00058951
0.000589251
0.000588966
0.000588755
0.000588494
0.000588316
0.000588114
0.000587966
0.000587787
0.000587678
0.000587543
0.000587427
0.000587319
0.000587252
0.000587104
0.000587045
0.000587011
0.00058698
0.000586918
0.000587004
0.000587028
0.000587152
0.000587262
0.000587448
0.000587548
0.000587742
0.000587843
0.000588069
0.000588198
0.000588486
0.000588659
0.000589024
0.000589226
0.000589644
0.00058988
0.000590371
0.000590653
0.000591247
0.000591593
0.000592319
0.000592732
0.00059364
0.000594101
0.000595578
0.000595753
0.00060489
0.011888
0.0133343
0.00102295
0.000928709
0.000858231
0.000807263
0.000769867
0.000741758
0.000719866
0.000702499
0.000688279
0.000676575
0.000666649
0.000658272
0.000650988
0.000644731
0.00063917
0.000634354
0.000629998
0.000626202
0.00062271
0.000619655
0.000616806
0.000614309
0.000611943
0.000609878
0.000607901
0.000606177
0.000604503
0.000603049
0.000601638
0.000600399
0.000599179
0.000598136
0.000597098
0.000596212
0.00059532
0.000594557
0.00059377
0.000593115
0.000592433
0.000591869
0.000591282
0.000590796
0.000590279
0.000589855
0.000589404
0.000589045
0.000588647
0.000588349
0.000588006
0.000587744
0.000587457
0.000587243
0.00058698
0.0005868
0.000586596
0.000586446
0.000586265
0.000586154
0.000586017
0.0005859
0.000585791
0.000585723
0.000585575
0.000585514
0.000585478
0.000585446
0.00058538
0.000585463
0.000585485
0.000585607
0.000585714
0.000585899
0.000585997
0.00058619
0.000586289
0.000586514
0.000586641
0.000586926
0.000587098
0.00058746
0.000587661
0.000588076
0.000588311
0.000588798
0.000589079
0.000589669
0.000590013
0.000590733
0.000591144
0.000592047
0.000592503
0.000593976
0.000594134
0.00060354
0.0120816
0.0136112
0.00102298
0.000928719
0.000858113
0.000806976
0.000769415
0.000741161
0.000719148
0.000701678
0.000687372
0.000675594
0.000665605
0.000657174
0.000649842
0.000643543
0.000637945
0.000633097
0.000628711
0.000624888
0.000621373
0.000618296
0.000615428
0.000612913
0.00061053
0.00060845
0.000606459
0.000604723
0.000603036
0.000601571
0.000600149
0.000598902
0.000597673
0.000596621
0.000595575
0.000594681
0.000593783
0.000593013
0.00059222
0.000591559
0.000590872
0.000590303
0.000589711
0.000589221
0.000588699
0.000588271
0.000587816
0.000587454
0.000587052
0.000586751
0.000586404
0.00058614
0.00058585
0.000585633
0.000585368
0.000585185
0.000584979
0.000584827
0.000584644
0.000584531
0.000584393
0.000584275
0.000584163
0.000584094
0.000583946
0.000583883
0.000583845
0.000583812
0.000583742
0.000583822
0.000583841
0.000583961
0.000584066
0.000584249
0.000584345
0.000584537
0.000584634
0.000584857
0.000584983
0.000585265
0.000585435
0.000585794
0.000585994
0.000586406
0.000586639
0.000587123
0.000587402
0.000587987
0.000588329
0.000589044
0.000589452
0.000590349
0.000590801
0.00059227
0.00059241
0.000602099
0.0122794
0.0139047
0.00102301
0.000928732
0.00085799
0.000806674
0.000768939
0.000740533
0.00071839
0.000700811
0.000686413
0.000674557
0.000664501
0.000656011
0.000648628
0.000642286
0.000636648
0.000631764
0.000627347
0.000623496
0.000619955
0.000616856
0.000613966
0.000611432
0.000609032
0.000606936
0.00060493
0.00060318
0.000601481
0.000600003
0.000598571
0.000597313
0.000596074
0.000595014
0.000593959
0.000593057
0.000592151
0.000591374
0.000590575
0.000589908
0.000589215
0.000588641
0.000588043
0.000587548
0.000587022
0.00058659
0.000586131
0.000585765
0.000585359
0.000585055
0.000584704
0.000584438
0.000584144
0.000583925
0.000583656
0.000583472
0.000583262
0.000583109
0.000582923
0.000582808
0.000582668
0.000582549
0.000582434
0.000582365
0.000582216
0.000582151
0.000582111
0.000582077
0.000582004
0.00058208
0.000582095
0.000582214
0.000582315
0.000582496
0.000582591
0.000582781
0.000582877
0.000583097
0.000583222
0.000583501
0.000583669
0.000584025
0.000584223
0.000584632
0.000584864
0.000585344
0.000585621
0.000586201
0.00058654
0.000587251
0.000587655
0.000588547
0.000588993
0.000590458
0.00059058
0.000600567
0.0124788
0.0142138
0.00102304
0.000928746
0.000857864
0.00080636
0.000768441
0.000739873
0.000717593
0.000699899
0.000685403
0.000673464
0.000663336
0.000654784
0.000647347
0.000640957
0.000635278
0.000630357
0.000625906
0.000622025
0.000618457
0.000615333
0.000612421
0.000609866
0.000607447
0.000605334
0.000603312
0.000601548
0.000599835
0.000598345
0.000596901
0.000595632
0.000594383
0.000593313
0.000592249
0.000591339
0.000590425
0.000589641
0.000588835
0.000588161
0.000587462
0.000586882
0.000586278
0.000585779
0.000585247
0.000584811
0.000584347
0.000583977
0.000583567
0.000583259
0.000582905
0.000582635
0.000582338
0.000582116
0.000581845
0.000581658
0.000581445
0.00058129
0.000581102
0.000580984
0.000580842
0.000580722
0.000580604
0.000580534
0.000580385
0.000580318
0.000580275
0.000580241
0.000580164
0.000580236
0.000580248
0.000580364
0.000580462
0.000580641
0.000580734
0.000580922
0.000581017
0.000581234
0.000581358
0.000581633
0.0005818
0.000582151
0.000582349
0.000582754
0.000582984
0.00058346
0.000583735
0.000584311
0.000584647
0.000585351
0.000585753
0.000586638
0.00058708
0.000588538
0.000588643
0.00059894
0.0126764
0.0145373
0.00102308
0.000928762
0.000857734
0.000806033
0.00076792
0.000739182
0.000716757
0.000698941
0.000684341
0.000672314
0.000662111
0.000653493
0.000645999
0.000639559
0.000633834
0.000628874
0.000624387
0.000620475
0.000616878
0.000613728
0.000610792
0.000608216
0.000605777
0.000603646
0.000601606
0.000599826
0.000598099
0.000596596
0.000595139
0.000593859
0.000592599
0.000591519
0.000590445
0.000589526
0.000588603
0.000587812
0.000586998
0.000586317
0.000585611
0.000585025
0.000584416
0.000583911
0.000583373
0.000582933
0.000582464
0.00058209
0.000581675
0.000581364
0.000581006
0.000580733
0.000580431
0.000580207
0.000579933
0.000579742
0.000579527
0.000579369
0.000579178
0.000579059
0.000578914
0.000578793
0.000578672
0.000578601
0.000578452
0.000578382
0.000578336
0.000578301
0.00057822
0.000578288
0.000578297
0.000578411
0.000578506
0.000578682
0.000578773
0.000578959
0.000579052
0.000579267
0.000579389
0.000579661
0.000579825
0.000580173
0.000580368
0.000580771
0.000580998
0.00058147
0.000581743
0.000582313
0.000582647
0.000583345
0.000583743
0.000584622
0.000585058
0.000586511
0.000586597
0.000597215
0.0128685
0.0148734
0.00102311
0.000928781
0.0008576
0.000805694
0.000767379
0.000738461
0.000715883
0.000697938
0.000683229
0.000671108
0.000660825
0.000652138
0.000644582
0.000638089
0.000632318
0.000627315
0.000622791
0.000618845
0.000615217
0.000612039
0.000609078
0.000606479
0.000604019
0.000601869
0.000599811
0.000598015
0.000596272
0.000594755
0.000593284
0.000591993
0.00059072
0.00058963
0.000588545
0.000587617
0.000586685
0.000585886
0.000585064
0.000584376
0.000583663
0.00058307
0.000582454
0.000581944
0.000581401
0.000580955
0.000580481
0.000580103
0.000579683
0.000579368
0.000579006
0.000578729
0.000578423
0.000578196
0.000577918
0.000577725
0.000577506
0.000577347
0.000577152
0.00057703
0.000576883
0.00057676
0.000576637
0.000576565
0.000576415
0.000576343
0.000576294
0.000576258
0.000576173
0.000576236
0.000576242
0.000576354
0.000576444
0.000576618
0.000576706
0.000576891
0.000576982
0.000577194
0.000577314
0.000577583
0.000577745
0.000578089
0.000578282
0.000578681
0.000578906
0.000579374
0.000579644
0.000580209
0.000580539
0.000581231
0.000581626
0.000582497
0.000582928
0.000584374
0.000584442
0.000595389
0.0130509
0.0152201
0.00102315
0.000928801
0.000857464
0.000805344
0.000766816
0.00073771
0.000714971
0.00069689
0.000682066
0.000669847
0.000659478
0.000650718
0.000643099
0.000636549
0.000630728
0.000625681
0.000621116
0.000617135
0.000613475
0.000610268
0.00060728
0.000604657
0.000602174
0.000600003
0.000597927
0.000596113
0.000594354
0.000592822
0.000591337
0.000590033
0.000588748
0.000587646
0.00058655
0.000585612
0.00058467
0.000583862
0.000583032
0.000582337
0.000581615
0.000581016
0.000580393
0.000579877
0.000579328
0.000578877
0.000578397
0.000578014
0.00057759
0.00057727
0.000576903
0.000576623
0.000576313
0.000576083
0.000575801
0.000575605
0.000575382
0.00057522
0.000575023
0.000574898
0.000574749
0.000574624
0.000574498
0.000574425
0.000574274
0.0005742
0.000574148
0.00057411
0.000574022
0.000574079
0.000574082
0.000574191
0.000574277
0.000574448
0.000574534
0.000574716
0.000574805
0.000575015
0.000575133
0.000575398
0.000575558
0.000575897
0.000576089
0.000576483
0.000576707
0.00057717
0.000577437
0.000577997
0.000578324
0.000579009
0.0005794
0.000580264
0.000580689
0.000582127
0.000582176
0.00059346
0.013219
0.0155746
0.00102319
0.000928824
0.000857326
0.000804983
0.000766233
0.00073693
0.000714022
0.000695798
0.000680853
0.00066853
0.000658072
0.000649235
0.000641548
0.000634939
0.000629065
0.000623971
0.000619364
0.000615345
0.000611651
0.000608413
0.000605396
0.000602748
0.000600242
0.000598049
0.000595953
0.000594121
0.000592345
0.000590797
0.000589296
0.000587979
0.000586681
0.000585567
0.000584459
0.000583511
0.000582558
0.000581742
0.000580902
0.000580199
0.000579469
0.000578863
0.000578233
0.00057771
0.000577154
0.000576698
0.000576212
0.000575824
0.000575394
0.00057507
0.000574699
0.000574414
0.0005741
0.000573866
0.000573581
0.000573381
0.000573155
0.00057299
0.00057279
0.000572662
0.00057251
0.000572384
0.000572254