/*--------------------------------*- C++ -*----------------------------------*\
| =========                 |                                                 |
| \\      /  F ield         | OpenFOAM: The Open Source CFD Toolbox           |
|  \\    /   O peration     | Version:  v2012                                 |
|   \\  /    A nd           | Website:  www.openfoam.com                      |
|    \\/     M anipulation  |                                                 |
\*---------------------------------------------------------------------------*/
FoamFile
{
    version     2.0;
    format      ascii;
    class       volScalarField;
    location    "2.5";
    object      p;
}
// * * * * * * * * * * * * * * * * * * * * * * * * * * * * * * * * * * * * * //

dimensions      [0 2 -2 0 0 0 0];


internalField   nonuniform List<scalar> 
209825
(
6.45416
6.45692
6.46374
6.47404
6.48725
6.50315
6.52167
6.5427
6.56614
6.59187
6.61981
6.64989
6.68205
6.71622
6.75237
6.79046
6.83044
6.8723
6.916
6.96154
7.0089
7.05807
7.10905
7.16183
7.21642
7.27282
7.33105
7.39112
7.45304
7.51684
7.58252
7.65013
7.71969
7.79123
7.86479
7.94041
8.01812
8.09797
8.18001
8.2643
8.35089
8.43985
8.53123
8.6251
8.72155
8.82066
8.92249
9.02716
9.13476
9.24538
9.35915
9.47618
9.5966
9.72054
9.84816
9.97961
10.1151
10.2547
10.3987
10.5473
10.7007
10.8591
11.0229
11.1923
11.3676
11.5492
11.7374
11.9327
12.1355
12.3462
12.5654
12.7937
13.0288
13.2732
13.5339
13.8133
14.1136
14.4377
14.7889
15.1711
15.5892
16.0492
16.5586
17.127
17.7667
18.4942
19.3312
20.3095
21.4705
22.8905
24.6464
27.0194
30.0317
35.5966
41.8866
74.6443
6.45416
6.45692
6.46374
6.47404
6.48725
6.50315
6.52167
6.5427
6.56614
6.59187
6.61981
6.64989
6.68205
6.71622
6.75237
6.79046
6.83044
6.8723
6.916
6.96154
7.0089
7.05807
7.10905
7.16183
7.21642
7.27282
7.33105
7.39112
7.45304
7.51684
7.58252
7.65013
7.71969
7.79123
7.86479
7.94041
8.01812
8.09797
8.18001
8.2643
8.35089
8.43985
8.53123
8.6251
8.72155
8.82066
8.92249
9.02716
9.13476
9.24538
9.35915
9.47618
9.5966
9.72054
9.84816
9.97961
10.1151
10.2547
10.3987
10.5473
10.7007
10.8591
11.0229
11.1923
11.3676
11.5492
11.7374
11.9327
12.1355
12.3462
12.5654
12.7937
13.0288
13.2731
13.5339
13.8133
14.1136
14.4377
14.7889
15.1711
15.5892
16.0492
16.5586
17.127
17.7667
18.4942
19.3312
20.3094
21.4705
22.8904
24.6462
27.0191
30.0313
35.5942
41.8658
74.0072
6.45416
6.45692
6.46374
6.47404
6.48725
6.50315
6.52167
6.5427
6.56614
6.59187
6.61981
6.64989
6.68205
6.71622
6.75237
6.79046
6.83044
6.8723
6.916
6.96154
7.0089
7.05807
7.10905
7.16183
7.21642
7.27282
7.33105
7.39112
7.45304
7.51684
7.58252
7.65013
7.71969
7.79123
7.86479
7.9404
8.01811
8.09797
8.18001
8.2643
8.35089
8.43985
8.53123
8.6251
8.72155
8.82066
8.92249
9.02716
9.13476
9.24538
9.35915
9.47618
9.5966
9.72054
9.84816
9.9796
10.115
10.2547
10.3987
10.5473
10.7007
10.8591
11.0229
11.1923
11.3676
11.5492
11.7374
11.9327
12.1355
12.3462
12.5654
12.7937
13.0288
13.2731
13.5339
13.8133
14.1136
14.4377
14.7889
15.1711
15.5892
16.0492
16.5586
17.127
17.7667
18.4941
19.3311
20.3093
21.4704
22.8902
24.646
27.0186
30.0305
35.5901
41.8435
73.2374
6.45416
6.45692
6.46374
6.47404
6.48725
6.50315
6.52167
6.5427
6.56614
6.59187
6.61981
6.64989
6.68205
6.71622
6.75237
6.79046
6.83044
6.8723
6.916
6.96154
7.0089
7.05807
7.10905
7.16183
7.21642
7.27282
7.33105
7.39112
7.45304
7.51683
7.58252
7.65013
7.71969
7.79123
7.86479
7.9404
8.01811
8.09797
8.18001
8.2643
8.35089
8.43985
8.53123
8.6251
8.72155
8.82065
8.92249
9.02716
9.13476
9.24538
9.35915
9.47618
9.5966
9.72054
9.84816
9.9796
10.115
10.2547
10.3987
10.5473
10.7007
10.8591
11.0229
11.1923
11.3676
11.5492
11.7374
11.9327
12.1354
12.3462
12.5654
12.7937
13.0288
13.2731
13.5339
13.8132
14.1136
14.4377
14.7889
15.171
15.5891
16.0491
16.5585
17.1269
17.7666
18.4941
19.331
20.3092
21.4702
22.8899
24.6456
27.0178
30.0293
35.5843
41.8235
72.4755
6.45416
6.45692
6.46374
6.47404
6.48725
6.50315
6.52167
6.5427
6.56614
6.59187
6.61981
6.64989
6.68205
6.71622
6.75237
6.79046
6.83044
6.8723
6.916
6.96154
7.0089
7.05807
7.10905
7.16183
7.21642
7.27282
7.33105
7.39112
7.45304
7.51683
7.58252
7.65013
7.71969
7.79123
7.86479
7.9404
8.01811
8.09797
8.18001
8.2643
8.35089
8.43984
8.53122
8.6251
8.72155
8.82065
8.92249
9.02716
9.13475
9.24538
9.35915
9.47618
9.59659
9.72054
9.84815
9.9796
10.115
10.2547
10.3987
10.5473
10.7007
10.8591
11.0229
11.1923
11.3676
11.5492
11.7374
11.9327
12.1354
12.3462
12.5654
12.7937
13.0287
13.2731
13.5339
13.8132
14.1136
14.4377
14.7888
15.171
15.5891
16.0491
16.5585
17.1268
17.7665
18.4939
19.3309
20.309
21.4699
22.8896
24.645
27.0168
30.0277
35.5768
41.8037
71.7263
6.45416
6.45692
6.46374
6.47404
6.48725
6.50315
6.52167
6.5427
6.56614
6.59187
6.61981
6.64989
6.68205
6.71622
6.75237
6.79046
6.83044
6.8723
6.916
6.96154
7.0089
7.05807
7.10905
7.16183
7.21642
7.27282
7.33105
7.39112
7.45304
7.51683
7.58252
7.65013
7.71969
7.79123
7.86479
7.9404
8.01811
8.09797
8.18001
8.2643
8.35089
8.43984
8.53122
8.6251
8.72155
8.82065
8.92249
9.02716
9.13475
9.24538
9.35914
9.47617
9.59659
9.72054
9.84815
9.9796
10.115
10.2547
10.3987
10.5473
10.7007
10.8591
11.0229
11.1923
11.3676
11.5492
11.7374
11.9327
12.1354
12.3461
12.5654
12.7937
13.0287
13.2731
13.5339
13.8132
14.1135
14.4376
14.7888
15.171
15.589
16.049
16.5584
17.1268
17.7664
18.4938
19.3307
20.3088
21.4696
22.8891
24.6443
27.0154
30.0256
35.5673
41.7816
70.9808
6.45416
6.45692
6.46374
6.47404
6.48725
6.50315
6.52167
6.5427
6.56614
6.59187
6.61981
6.64989
6.68205
6.71622
6.75237
6.79046
6.83044
6.8723
6.916
6.96154
7.0089
7.05807
7.10905
7.16183
7.21642
7.27282
7.33105
7.39112
7.45304
7.51683
7.58252
7.65013
7.71969
7.79123
7.86479
7.9404
8.01811
8.09797
8.18001
8.2643
8.35089
8.43984
8.53122
8.6251
8.72155
8.82065
8.92249
9.02716
9.13475
9.24537
9.35914
9.47617
9.59659
9.72053
9.84815
9.97959
10.115
10.2547
10.3987
10.5472
10.7006
10.8591
11.0229
11.1923
11.3676
11.5492
11.7374
11.9327
12.1354
12.3461
12.5654
12.7937
13.0287
13.2731
13.5338
13.8132
14.1135
14.4376
14.7887
15.1709
15.589
16.0489
16.5583
17.1266
17.7663
18.4936
19.3305
20.3085
21.4691
22.8884
24.6434
27.0137
30.0231
35.5559
41.756
70.2361
6.45416
6.45692
6.46374
6.47404
6.48725
6.50315
6.52167
6.5427
6.56614
6.59187
6.61981
6.64989
6.68205
6.71622
6.75237
6.79046
6.83044
6.8723
6.916
6.96154
7.0089
7.05807
7.10904
7.16183
7.21642
7.27282
7.33105
7.39112
7.45304
7.51683
7.58252
7.65013
7.71969
7.79123
7.86479
7.9404
8.01811
8.09796
8.18001
8.2643
8.35089
8.43984
8.53122
8.6251
8.72155
8.82065
8.92249
9.02715
9.13475
9.24537
9.35914
9.47617
9.59658
9.72053
9.84814
9.97959
10.115
10.2547
10.3987
10.5472
10.7006
10.8591
11.0229
11.1923
11.3676
11.5492
11.7374
11.9326
12.1354
12.3461
12.5653
12.7936
13.0287
13.273
13.5338
13.8131
14.1134
14.4375
14.7887
15.1708
15.5889
16.0488
16.5582
17.1265
17.7661
18.4934
19.3302
20.3081
21.4686
22.8877
24.6423
27.0117
30.0201
35.5424
41.7267
69.4917
6.45416
6.45692
6.46374
6.47404
6.48724
6.50315
6.52167
6.5427
6.56614
6.59187
6.61981
6.64989
6.68205
6.71622
6.75237
6.79046
6.83044
6.8723
6.916
6.96154
7.0089
7.05807
7.10904
7.16183
7.21642
7.27282
7.33105
7.39112
7.45304
7.51683
7.58252
7.65013
7.71969
7.79123
7.86479
7.9404
8.01811
8.09796
8.18001
8.2643
8.35089
8.43984
8.53122
8.6251
8.72154
8.82065
8.92248
9.02715
9.13474
9.24537
9.35914
9.47616
9.59658
9.72052
9.84814
9.97958
10.115
10.2546
10.3986
10.5472
10.7006
10.8591
11.0229
11.1923
11.3676
11.5492
11.7374
11.9326
12.1354
12.3461
12.5653
12.7936
13.0286
13.273
13.5338
13.8131
14.1134
14.4375
14.7886
15.1708
15.5888
16.0487
16.5581
17.1263
17.7659
18.4932
19.3299
20.3077
21.4681
22.8868
24.641
27.0093
30.0165
35.5267
41.6938
68.7475
6.45416
6.45692
6.46374
6.47404
6.48724
6.50315
6.52166
6.5427
6.56614
6.59187
6.61981
6.64989
6.68205
6.71622
6.75237
6.79046
6.83044
6.8723
6.916
6.96154
7.0089
7.05807
7.10904
7.16183
7.21642
7.27282
7.33105
7.39112
7.45304
7.51683
7.58252
7.65013
7.71969
7.79123
7.86479
7.9404
8.01811
8.09796
8.18001
8.26429
8.35088
8.43984
8.53122
8.62509
8.72154
8.82064
8.92248
9.02715
9.13474
9.24537
9.35913
9.47616
9.59658
9.72052
9.84813
9.97958
10.115
10.2546
10.3986
10.5472
10.7006
10.8591
11.0229
11.1922
11.3676
11.5491
11.7374
11.9326
12.1354
12.3461
12.5653
12.7936
13.0286
13.273
13.5337
13.813
14.1133
14.4374
14.7885
15.1707
15.5887
16.0486
16.5579
17.1262
17.7657
18.4929
19.3295
20.3072
21.4674
22.8858
24.6395
27.0066
30.0124
35.5089
41.6571
68.0034
6.45416
6.45692
6.46374
6.47404
6.48724
6.50315
6.52166
6.5427
6.56614
6.59187
6.61981
6.64989
6.68205
6.71622
6.75237
6.79046
6.83044
6.8723
6.916
6.96154
7.0089
7.05807
7.10904
7.16183
7.21642
7.27282
7.33105
7.39112
7.45304
7.51683
7.58252
7.65013
7.71969
7.79123
7.86479
7.9404
8.01811
8.09796
8.18
8.26429
8.35088
8.43983
8.53121
8.62509
8.72154
8.82064
8.92248
9.02714
9.13474
9.24536
9.35913
9.47615
9.59657
9.72051
9.84813
9.97957
10.115
10.2546
10.3986
10.5472
10.7006
10.8591
11.0228
11.1922
11.3675
11.5491
11.7373
11.9326
12.1353
12.346
12.5653
12.7936
13.0286
13.2729
13.5337
13.813
14.1133
14.4373
14.7884
15.1706
15.5886
16.0485
16.5577
17.126
17.7654
18.4925
19.3291
20.3066
21.4666
22.8847
24.6379
27.0034
30.0077
35.4889
41.6167
67.26
6.45416
6.45691
6.46374
6.47404
6.48724
6.50315
6.52166
6.5427
6.56614
6.59187
6.61981
6.64989
6.68205
6.71622
6.75237
6.79046
6.83044
6.8723
6.916
6.96154
7.0089
7.05807
7.10904
7.16182
7.21641
7.27282
7.33105
7.39112
7.45304
7.51683
7.58252
7.65013
7.71969
7.79123
7.86478
7.9404
8.01811
8.09796
8.18
8.26429
8.35088
8.43983
8.53121
8.62509
8.72154
8.82064
8.92247
9.02714
9.13473
9.24536
9.35912
9.47615
9.59656
9.7205
9.84812
9.97956
10.115
10.2546
10.3986
10.5472
10.7006
10.859
11.0228
11.1922
11.3675
11.5491
11.7373
11.9326
12.1353
12.346
12.5652
12.7935
13.0285
13.2729
13.5336
13.8129
14.1132
14.4373
14.7883
15.1705
15.5884
16.0483
16.5575
17.1257
17.7651
18.4922
19.3286
20.306
21.4657
22.8834
24.636
26.9999
30.0023
35.4666
41.5723
66.5173
6.45416
6.45691
6.46374
6.47404
6.48724
6.50315
6.52166
6.5427
6.56614
6.59187
6.61981
6.64989
6.68205
6.71622
6.75237
6.79045
6.83044
6.87229
6.916
6.96154
7.0089
7.05807
7.10904
7.16182
7.21641
7.27282
7.33105
7.39112
7.45304
7.51683
7.58252
7.65013
7.71969
7.79123
7.86478
7.9404
8.0181
8.09796
8.18
8.26429
8.35088
8.43983
8.53121
8.62508
8.72153
8.82063
8.92247
9.02714
9.13473
9.24535
9.35912
9.47614
9.59656
9.7205
9.84811
9.97955
10.115
10.2546
10.3986
10.5472
10.7006
10.859
11.0228
11.1922
11.3675
11.5491
11.7373
11.9325
12.1353
12.346
12.5652
12.7935
13.0285
13.2728
13.5336
13.8128
14.1131
14.4372
14.7882
15.1703
15.5883
16.0481
16.5573
17.1254
17.7648
18.4918
19.3281
20.3052
21.4648
22.882
24.6339
26.996
29.9963
35.442
41.5239
65.7758
6.45416
6.45691
6.46374
6.47404
6.48724
6.50315
6.52166
6.5427
6.56614
6.59187
6.61981
6.64989
6.68205
6.71622
6.75237
6.79045
6.83044
6.87229
6.916
6.96154
7.0089
7.05807
7.10904
7.16182
7.21641
7.27282
7.33105
7.39111
7.45303
7.51683
7.58252
7.65013
7.71968
7.79122
7.86478
7.94039
8.0181
8.09795
8.18
8.26429
8.35088
8.43983
8.53121
8.62508
8.72153
8.82063
8.92247
9.02713
9.13472
9.24534
9.35911
9.47613
9.59655
9.72049
9.8481
9.97954
10.115
10.2546
10.3986
10.5472
10.7006
10.859
11.0228
11.1922
11.3675
11.549
11.7373
11.9325
12.1352
12.3459
12.5651
12.7934
13.0284
13.2727
13.5335
13.8128
14.113
14.437
14.7881
15.1702
15.5881
16.0479
16.5571
17.1252
17.7644
18.4913
19.3275
20.3044
21.4637
22.8804
24.6315
26.9916
29.9897
35.4151
41.4714
65.0356
6.45416
6.45691
6.46374
6.47404
6.48724
6.50315
6.52166
6.5427
6.56614
6.59187
6.61981
6.64989
6.68204
6.71622
6.75237
6.79045
6.83044
6.87229
6.916
6.96154
7.0089
7.05807
7.10904
7.16182
7.21641
7.27282
7.33105
7.39111
7.45303
7.51683
7.58251
7.65012
7.71968
7.79122
7.86478
7.94039
8.0181
8.09795
8.17999
8.26428
8.35087
8.43982
8.5312
8.62508
8.72152
8.82062
8.92246
9.02713
9.13472
9.24534
9.3591
9.47613
9.59654
9.72048
9.84809
9.97953
10.115
10.2546
10.3986
10.5472
10.7005
10.859
11.0228
11.1921
11.3674
11.549
11.7372
11.9325
12.1352
12.3459
12.5651
12.7934
13.0283
13.2727
13.5334
13.8127
14.1129
14.4369
14.788
15.17
15.5879
16.0477
16.5568
17.1248
17.764
18.4908
19.3268
20.3036
21.4625
22.8786
24.6289
26.9868
29.9823
35.3857
41.4147
64.2972
6.45416
6.45691
6.46374
6.47404
6.48724
6.50315
6.52166
6.5427
6.56614
6.59187
6.61981
6.64989
6.68204
6.71622
6.75237
6.79045
6.83044
6.87229
6.916
6.96154
7.0089
7.05806
7.10904
7.16182
7.21641
7.27282
7.33105
7.39111
7.45303
7.51682
7.58251
7.65012
7.71968
7.79122
7.86478
7.94039
8.0181
8.09795
8.17999
8.26428
8.35087
8.43982
8.5312
8.62507
8.72152
8.82062
8.92245
9.02712
9.13471
9.24533
9.35909
9.47612
9.59653
9.72047
9.84808
9.97952
10.115
10.2546
10.3986
10.5471
10.7005
10.859
11.0227
11.1921
11.3674
11.549
11.7372
11.9324
12.1351
12.3458
12.565
12.7933
13.0283
13.2726
13.5333
13.8126
14.1128
14.4368
14.7878
15.1698
15.5877
16.0474
16.5565
17.1245
17.7636
18.4902
19.3261
20.3026
21.4611
22.8767
24.626
26.9815
29.9741
35.3539
41.3536
63.5607
6.45416
6.45691
6.46374
6.47404
6.48724
6.50315
6.52166
6.5427
6.56614
6.59187
6.61981
6.64989
6.68204
6.71622
6.75237
6.79045
6.83044
6.87229
6.916
6.96154
7.00889
7.05806
7.10904
7.16182
7.21641
7.27281
7.33104
7.39111
7.45303
7.51682
7.58251
7.65012
7.71968
7.79122
7.86477
7.94039
8.01809
8.09795
8.17999
8.26428
8.35086
8.43982
8.53119
8.62507
8.72151
8.82061
8.92245
9.02711
9.1347
9.24532
9.35908
9.47611
9.59652
9.72046
9.84807
9.9795
10.1149
10.2546
10.3985
10.5471
10.7005
10.8589
11.0227
11.1921
11.3674
11.5489
11.7371
11.9324
12.1351
12.3458
12.565
12.7932
13.0282
13.2725
13.5332
13.8125
14.1127
14.4367
14.7877
15.1696
15.5875
16.0472
16.5562
17.1241
17.7631
18.4896
19.3253
20.3015
21.4597
22.8745
24.6229
26.9756
29.9652
35.3197
41.2881
62.8264
6.45416
6.45691
6.46374
6.47404
6.48724
6.50314
6.52166
6.5427
6.56613
6.59187
6.61981
6.64989
6.68204
6.71622
6.75237
6.79045
6.83044
6.87229
6.916
6.96154
7.00889
7.05806
7.10904
7.16182
7.21641
7.27281
7.33104
7.39111
7.45303
7.51682
7.58251
7.65012
7.71968
7.79122
7.86477
7.94038
8.01809
8.09794
8.17998
8.26427
8.35086
8.43981
8.53119
8.62506
8.72151
8.82061
8.92244
9.0271
9.13469
9.24531
9.35907
9.4761
9.59651
9.72044
9.84805
9.97949
10.1149
10.2545
10.3985
10.5471
10.7005
10.8589
11.0227
11.1921
11.3673
11.5489
11.7371
11.9323
12.135
12.3457
12.5649
12.7932
13.0281
13.2724
13.5331
13.8123
14.1125
14.4365
14.7875
15.1694
15.5872
16.0469
16.5558
17.1236
17.7626
18.4889
19.3244
20.3004
21.4581
22.8722
24.6195
26.9693
29.9554
35.2829
41.2181
62.0946
6.45416
6.45691
6.46374
6.47403
6.48724
6.50314
6.52166
6.5427
6.56613
6.59187
6.61981
6.64989
6.68204
6.71622
6.75237
6.79045
6.83043
6.87229
6.916
6.96153
7.00889
7.05806
7.10904
7.16182
7.21641
7.27281
7.33104
7.39111
7.45303
7.51682
7.58251
7.65012
7.71967
7.79121
7.86477
7.94038
8.01809
8.09794
8.17998
8.26427
8.35086
8.43981
8.53118
8.62506
8.7215
8.8206
8.92243
9.0271
9.13468
9.2453
9.35906
9.47609
9.5965
9.72043
9.84804
9.97947
10.1149
10.2545
10.3985
10.5471
10.7005
10.8589
11.0226
11.192
11.3673
11.5489
11.7371
11.9323
12.135
12.3456
12.5648
12.7931
13.028
13.2723
13.533
13.8122
14.1124
14.4363
14.7873
15.1692
15.587
16.0466
16.5555
17.1232
17.762
18.4882
19.3235
20.2991
21.4564
22.8697
24.6157
26.9625
29.9448
35.2435
41.1435
61.3655
6.45415
6.45691
6.46374
6.47403
6.48724
6.50314
6.52166
6.5427
6.56613
6.59187
6.61981
6.64989
6.68204
6.71622
6.75237
6.79045
6.83043
6.87229
6.916
6.96153
7.00889
7.05806
7.10904
7.16182
7.21641
7.27281
7.33104
7.39111
7.45302
7.51682
7.5825
7.65011
7.71967
7.79121
7.86477
7.94038
8.01808
8.09793
8.17998
8.26426
8.35085
8.4398
8.53118
8.62505
8.7215
8.82059
8.92243
9.02709
9.13468
9.24529
9.35905
9.47607
9.59648
9.72042
9.84802
9.97945
10.1149
10.2545
10.3985
10.547
10.7004
10.8589
11.0226
11.192
11.3673
11.5488
11.737
11.9322
12.1349
12.3456
12.5647
12.793
13.0279
13.2722
13.5329
13.8121
14.1122
14.4361
14.7871
15.169
15.5867
16.0462
16.555
17.1227
17.7613
18.4874
19.3224
20.2977
21.4545
22.8669
24.6117
26.9551
29.9332
35.2016
41.0642
60.6394
6.45415
6.45691
6.46374
6.47403
6.48724
6.50314
6.52166
6.5427
6.56613
6.59187
6.61981
6.64989
6.68204
6.71622
6.75237
6.79045
6.83043
6.87229
6.91599
6.96153
7.00889
7.05806
7.10903
7.16181
7.2164
7.27281
7.33104
7.3911
7.45302
7.51681
7.5825
7.65011
7.71967
7.79121
7.86476
7.94037
8.01808
8.09793
8.17997
8.26426
8.35085
8.43979
8.53117
8.62504
8.72149
8.82058
8.92242
9.02708
9.13467
9.24528
9.35904
9.47606
9.59647
9.7204
9.848
9.97944
10.1149
10.2545
10.3985
10.547
10.7004
10.8588
11.0226
11.1919
11.3672
11.5488
11.7369
11.9322
12.1348
12.3455
12.5647
12.7929
13.0278
13.2721
13.5327
13.8119
14.1121
14.4359
14.7868
15.1687
15.5864
16.0458
16.5546
17.1221
17.7607
18.4865
19.3213
20.2963
21.4525
22.8639
24.6073
26.9471
29.9207
35.157
40.9802
59.9165
6.45415
6.45691
6.46373
6.47403
6.48724
6.50314
6.52166
6.5427
6.56613
6.59186
6.61981
6.64989
6.68204
6.71622
6.75237
6.79045
6.83043
6.87229
6.91599
6.96153
7.00889
7.05806
7.10903
7.16181
7.2164
7.27281
7.33104
7.3911
7.45302
7.51681
7.5825
7.65011
7.71967
7.7912
7.86476
7.94037
8.01808
8.09793
8.17997
8.26425
8.35084
8.43979
8.53116
8.62504
8.72148
8.82058
8.92241
9.02707
9.13465
9.24527
9.35903
9.47605
9.59645
9.72038
9.84798
9.97941
10.1148
10.2544
10.3984
10.547
10.7004
10.8588
11.0225
11.1919
11.3672
11.5487
11.7369
11.9321
12.1348
12.3454
12.5646
12.7928
13.0277
13.272
13.5326
13.8117
14.1119
14.4357
14.7866
15.1684
15.586
16.0454
16.5541
17.1215
17.7599
18.4856
19.3201
20.2947
21.4503
22.8608
24.6026
26.9384
29.9072
35.1097
40.8913
59.1971
6.45415
6.45691
6.46373
6.47403
6.48724
6.50314
6.52166
6.5427
6.56613
6.59186
6.6198
6.64988
6.68204
6.71622
6.75236
6.79045
6.83043
6.87229
6.91599
6.96153
7.00889
7.05806
7.10903
7.16181
7.2164
7.2728
7.33103
7.3911
7.45302
7.51681
7.5825
7.6501
7.71966
7.7912
7.86476
7.94037
8.01807
8.09792
8.17996
8.26425
8.35083
8.43978
8.53116
8.62503
8.72147
8.82057
8.9224
9.02706
9.13464
9.24526
9.35901
9.47603
9.59643
9.72036
9.84796
9.97939
10.1148
10.2544
10.3984
10.547
10.7003
10.8587
11.0225
11.1918
11.3671
11.5487
11.7368
11.932
12.1347
12.3453
12.5645
12.7927
13.0276
13.2718
13.5324
13.8116
14.1117
14.4355
14.7863
15.1681
15.5857
16.045
16.5536
17.1209
17.7591
18.4846
19.3188
20.2929
21.4479
22.8573
24.5975
26.9292
29.8926
35.0597
40.7976
58.4814
6.45415
6.45691
6.46373
6.47403
6.48724
6.50314
6.52166
6.54269
6.56613
6.59186
6.6198
6.64988
6.68204
6.71621
6.75236
6.79045
6.83043
6.87229
6.91599
6.96153
7.00889
7.05805
7.10903
7.16181
7.2164
7.2728
7.33103
7.3911
7.45302
7.51681
7.58249
7.6501
7.71966
7.7912
7.86475
7.94036
8.01807
8.09792
8.17996
8.26424
8.35083
8.43977
8.53115
8.62502
8.72146
8.82056
8.92239
9.02704
9.13463
9.24524
9.359
9.47601
9.59642
9.72034
9.84794
9.97937
10.1148
10.2544
10.3984
10.5469
10.7003
10.8587
11.0224
11.1918
11.3671
11.5486
11.7367
11.9319
12.1346
12.3452
12.5644
12.7926
13.0274
13.2717
13.5323
13.8114
14.1114
14.4352
14.786
15.1678
15.5853
16.0445
16.553
17.1202
17.7583
18.4835
19.3174
20.2911
21.4454
22.8536
24.5921
26.9193
29.877
35.0069
40.6989
57.7697
6.45415
6.45691
6.46373
6.47403
6.48724
6.50314
6.52166
6.54269
6.56613
6.59186
6.6198
6.64988
6.68204
6.71621
6.75236
6.79045
6.83043
6.87228
6.91599
6.96153
7.00888
7.05805
7.10903
7.16181
7.2164
7.2728
7.33103
7.39109
7.45301
7.5168
7.58249
7.6501
7.71965
7.79119
7.86475
7.94036
8.01806
8.09791
8.17995
8.26423
8.35082
8.43977
8.53114
8.62501
8.72145
8.82055
8.92237
9.02703
9.13461
9.24523
9.35898
9.47599
9.5964
9.72032
9.84792
9.97934
10.1148
10.2544
10.3983
10.5469
10.7002
10.8587
11.0224
11.1917
11.367
11.5485
11.7367
11.9319
12.1345
12.3451
12.5642
12.7924
13.0273
13.2715
13.5321
13.8112
14.1112
14.435
14.7857
15.1674
15.5848
16.044
16.5524
17.1195
17.7574
18.4824
19.316
20.2891
21.4427
22.8497
24.5863
26.9088
29.8602
34.9514
40.5952
57.0622
6.45415
6.45691
6.46373
6.47403
6.48724
6.50314
6.52166
6.54269
6.56613
6.59186
6.6198
6.64988
6.68204
6.71621
6.75236
6.79044
6.83043
6.87228
6.91599
6.96153
7.00888
7.05805
7.10903
7.16181
7.21639
7.2728
7.33103
7.39109
7.45301
7.5168
7.58249
7.65009
7.71965
7.79119
7.86474
7.94035
8.01806
8.0979
8.17994
8.26423
8.35081
8.43976
8.53113
8.625
8.72144
8.82053
8.92236
9.02702
9.1346
9.24521
9.35896
9.47598
9.59638
9.7203
9.84789
9.97932
10.1147
10.2543
10.3983
10.5468
10.7002
10.8586
11.0223
11.1917
11.3669
11.5485
11.7366
11.9318
12.1344
12.345
12.5641
12.7923
13.0271
13.2713
13.5319
13.8109
14.111
14.4347
14.7854
15.167
15.5844
16.0435
16.5518
17.1187
17.7564
18.4811
19.3144
20.287
21.4398
22.8454
24.58
26.8975
29.8422
34.893
40.4864
56.3591
6.45415
6.45691
6.46373
6.47403
6.48724
6.50314
6.52166
6.54269
6.56613
6.59186
6.6198
6.64988
6.68204
6.71621
6.75236
6.79044
6.83043
6.87228
6.91599
6.96152
7.00888
7.05805
7.10902
7.1618
7.21639
7.2728
7.33102
7.39109
7.45301
7.5168
7.58248
7.65009
7.71965
7.79118
7.86474
7.94034
8.01805
8.0979
8.17994
8.26422
8.3508
8.43975
8.53112
8.62499
8.72143
8.82052
8.92235
9.027
9.13458
9.24519
9.35894
9.47595
9.59635
9.72027
9.84787
9.97929
10.1147
10.2543
10.3983
10.5468
10.7002
10.8586
11.0223
11.1916
11.3669
11.5484
11.7365
11.9317
12.1343
12.3449
12.564
12.7921
13.027
13.2711
13.5317
13.8107
14.1107
14.4344
14.785
15.1666
15.5839
16.0429
16.5511
17.1178
17.7554
18.4798
19.3127
20.2847
21.4367
22.8409
24.5734
26.8855
29.823
34.8318
40.3726
55.6606
6.45415
6.45691
6.46373
6.47403
6.48724
6.50314
6.52166
6.54269
6.56613
6.59186
6.6198
6.64988
6.68203
6.71621
6.75236
6.79044
6.83042
6.87228
6.91598
6.96152
7.00888
7.05805
7.10902
7.1618
7.21639
7.27279
7.33102
7.39108
7.453
7.51679
7.58248
7.65009
7.71964
7.79118
7.86473
7.94034
8.01804
8.09789
8.17993
8.26421
8.35079
8.43974
8.53111
8.62498
8.72142
8.82051
8.92233
9.02699
9.13457
9.24518
9.35892
9.47593
9.59633
9.72025
9.84784
9.97925
10.1147
10.2543
10.3982
10.5468
10.7001
10.8585
11.0222
11.1916
11.3668
11.5483
11.7364
11.9316
12.1342
12.3448
12.5639
12.792
13.0268
13.271
13.5315
13.8105
14.1104
14.4341
14.7847
15.1662
15.5834
16.0423
16.5503
17.1169
17.7542
18.4784
19.3109
20.2823
21.4334
22.8361
24.5663
26.8727
29.8026
34.7677
40.2536
54.967
6.45415
6.45691
6.46373
6.47403
6.48724
6.50314
6.52165
6.54269
6.56613
6.59186
6.6198
6.64988
6.68203
6.71621
6.75236
6.79044
6.83042
6.87228
6.91598
6.96152
7.00888
7.05804
7.10902
7.1618
7.21639
7.27279
7.33102
7.39108
7.453
7.51679
7.58247
7.65008
7.71964
7.79117
7.86473
7.94033
8.01804
8.09788
8.17992
8.2642
8.35079
8.43973
8.5311
8.62497
8.7214
8.82049
8.92232
9.02697
9.13455
9.24516
9.3589
9.47591
9.5963
9.72022
9.84781
9.97922
10.1146
10.2542
10.3982
10.5467
10.7001
10.8584
11.0222
11.1915
11.3667
11.5482
11.7363
11.9315
12.1341
12.3446
12.5637
12.7918
13.0266
13.2707
13.5312
13.8102
14.1101
14.4337
14.7843
15.1657
15.5828
16.0416
16.5495
17.116
17.7531
18.4769
19.3089
20.2798
21.4299
22.831
24.5587
26.8592
29.7808
34.7006
40.1294
54.2785
6.45415
6.45691
6.46373
6.47403
6.48723
6.50314
6.52165
6.54269
6.56613
6.59186
6.6198
6.64988
6.68203
6.71621
6.75236
6.79044
6.83042
6.87228
6.91598
6.96152
7.00887
7.05804
7.10902
7.1618
7.21638
7.27279
7.33101
7.39108
7.45299
7.51679
7.58247
7.65008
7.71963
7.79117
7.86472
7.94033
8.01803
8.09788
8.17991
8.26419
8.35078
8.43972
8.53109
8.62495
8.72139
8.82048
8.9223
9.02695
9.13453
9.24513
9.35888
9.47588
9.59628
9.72019
9.84777
9.97919
10.1146
10.2542
10.3981
10.5467
10.7
10.8584
11.0221
11.1914
11.3666
11.5481
11.7362
11.9314
12.134
12.3445
12.5635
12.7916
13.0264
13.2705
13.531
13.8099
14.1098
14.4333
14.7838
15.1652
15.5822
16.0409
16.5487
17.1149
17.7518
18.4753
19.3069
20.277
21.4262
22.8256
24.5507
26.8448
29.7576
34.6307
40.0001
53.5953
6.45415
6.45691
6.46373
6.47403
6.48723
6.50314
6.52165
6.54269
6.56612
6.59186
6.6198
6.64988
6.68203
6.71621
6.75235
6.79044
6.83042
6.87227
6.91598
6.96152
7.00887
7.05804
7.10901
7.16179
7.21638
7.27278
7.33101
7.39107
7.45299
7.51678
7.58247
7.65007
7.71963
7.79116
7.86471
7.94032
8.01802
8.09787
8.1799
8.26418
8.35077
8.43971
8.53108
8.62494
8.72138
8.82046
8.92229
9.02694
9.13451
9.24511
9.35886
9.47586
9.59625
9.72016
9.84774
9.97915
10.1145
10.2541
10.3981
10.5466
10.6999
10.8583
11.022
11.1913
11.3665
11.548
11.7361
11.9312
12.1338
12.3444
12.5634
12.7915
13.0262
13.2703
13.5307
13.8096
14.1094
14.4329
14.7834
15.1647
15.5816
16.0402
16.5478
17.1139
17.7505
18.4736
19.3047
20.2741
21.4222
22.8198
24.5421
26.8296
29.733
34.5577
39.8655
52.9175
6.45415
6.4569
6.46373
6.47402
6.48723
6.50313
6.52165
6.54269
6.56612
6.59185
6.6198
6.64987
6.68203
6.7162
6.75235
6.79043
6.83042
6.87227
6.91598
6.96151
7.00887
7.05804
7.10901
7.16179
7.21638
7.27278
7.33101
7.39107
7.45299
7.51678
7.58246
7.65007
7.71962
7.79115
7.86471
7.94031
8.01801
8.09786
8.17989
8.26417
8.35075
8.4397
8.53106
8.62493
8.72136
8.82045
8.92227
9.02692
9.13449
9.24509
9.35883
9.47583
9.59622
9.72013
9.8477
9.97911
10.1145
10.2541
10.398
10.5465
10.6999
10.8582
11.0219
11.1912
11.3664
11.5479
11.736
11.9311
12.1337
12.3442
12.5632
12.7913
13.026
13.27
13.5304
13.8093
14.1091
14.4325
14.7829
15.1641
15.581
16.0394
16.5469
17.1127
17.749
18.4718
19.3024
20.271
21.418
22.8137
24.5331
26.8135
29.707
34.4818
39.7257
52.2453
6.45414
6.4569
6.46372
6.47402
6.48723
6.50313
6.52165
6.54269
6.56612
6.59185
6.61979
6.64987
6.68203
6.7162
6.75235
6.79043
6.83041
6.87227
6.91597
6.96151
7.00887
7.05803
7.10901
7.16179
7.21637
7.27278
7.331
7.39107
7.45298
7.51677
7.58245
7.65006
7.71961
7.79115
7.8647
7.9403
8.01801
8.09785
8.17988
8.26416
8.35074
8.43968
8.53105
8.62491
8.72134
8.82043
8.92225
9.02689
9.13446
9.24506
9.3588
9.4758
9.59618
9.72009
9.84766
9.97906
10.1145
10.254
10.398
10.5465
10.6998
10.8582
11.0219
11.1911
11.3663
11.5478
11.7359
11.931
12.1335
12.344
12.563
12.791
13.0257
13.2698
13.5301
13.809
14.1087
14.4321
14.7824
15.1635
15.5803
16.0386
16.5459
17.1115
17.7475
18.4699
19.2999
20.2678
21.4135
22.8072
24.5235
26.7966
29.6794
34.4028
39.5807
51.579
6.45414
6.4569
6.46372
6.47402
6.48723
6.50313
6.52165
6.54268
6.56612
6.59185
6.61979
6.64987
6.68203
6.7162
6.75235
6.79043
6.83041
6.87227
6.91597
6.96151
7.00886
7.05803
7.109
7.16178
7.21637
7.27277
7.331
7.39106
7.45298
7.51677
7.58245
7.65005
7.71961
7.79114
7.86469
7.94029
8.018
8.09784
8.17987
8.26415
8.35073
8.43967
8.53103
8.6249
8.72133
8.82041
8.92223
9.02687
9.13444
9.24504
9.35877
9.47577
9.59615
9.72005
9.84762
9.97902
10.1144
10.254
10.3979
10.5464
10.6997
10.8581
11.0218
11.1911
11.3662
11.5477
11.7357
11.9308
12.1334
12.3438
12.5628
12.7908
13.0255
13.2695
13.5298
13.8086
14.1083
14.4316
14.7818
15.1629
15.5795
16.0377
16.5448
17.1102
17.7459
18.4679
19.2973
20.2643
21.4088
22.8003
24.5133
26.7787
29.6502
34.3208
39.4304
50.9186
6.45414
6.4569
6.46372
6.47402
6.48723
6.50313
6.52165
6.54268
6.56612
6.59185
6.61979
6.64987
6.68202
6.7162
6.75235
6.79043
6.83041
6.87226
6.91597
6.96151
7.00886
7.05803
7.109
7.16178
7.21637
7.27277
7.33099
7.39106
7.45297
7.51676
7.58244
7.65005
7.7196
7.79113
7.86468
7.94029
8.01799
8.09783
8.17986
8.26414
8.35072
8.43965
8.53102
8.62488
8.72131
8.82039
8.9222
9.02685
9.13441
9.24501
9.35874
9.47573
9.59611
9.72001
9.84758
9.97897
10.1144
10.2539
10.3978
10.5463
10.6997
10.858
11.0217
11.1909
11.3661
11.5476
11.7356
11.9307
12.1332
12.3437
12.5626
12.7906
13.0252
13.2692
13.5295
13.8082
14.1078
14.4311
14.7813
15.1622
15.5787
16.0368
16.5437
17.1088
17.7442
18.4658
19.2946
20.2607
21.4038
22.793
24.5026
26.7598
29.6194
34.2358
39.2749
50.2644
6.45414
6.4569
6.46372
6.47402
6.48723
6.50313
6.52165
6.54268
6.56612
6.59185
6.61979
6.64987
6.68202
6.7162
6.75234
6.79043
6.83041
6.87226
6.91597
6.9615
7.00886
7.05802
7.109
7.16177
7.21636
7.27276
7.33099
7.39105
7.45297
7.51675
7.58244
7.65004
7.71959
7.79112
7.86467
7.94028
8.01798
8.09782
8.17985
8.26413
8.3507
8.43964
8.531
8.62486
8.72129
8.82037
8.92218
9.02682
9.13439
9.24498
9.35871
9.4757
9.59607
9.71997
9.84753
9.97892
10.1143
10.2539
10.3978
10.5463
10.6996
10.8579
11.0216
11.1908
11.366
11.5474
11.7355
11.9305
12.133
12.3434
12.5624
12.7903
13.0249
13.2689
13.5291
13.8078
14.1074
14.4306
14.7806
15.1615
15.5779
16.0358
16.5425
17.1074
17.7424
18.4635
19.2916
20.2568
21.3985
22.7854
24.4912
26.7399
29.5869
34.1477
39.1143
49.6166
6.45414
6.4569
6.46372
6.47402
6.48723
6.50313
6.52164
6.54268
6.56612
6.59185
6.61979
6.64987
6.68202
6.71619
6.75234
6.79042
6.8304
6.87226
6.91596
6.9615
7.00885
7.05802
7.10899
7.16177
7.21636
7.27276
7.33098
7.39104
7.45296
7.51675
7.58243
7.65003
7.71958
7.79112
7.86466
7.94027
8.01796
8.09781
8.17984
8.26411
8.35069
8.43962
8.53098
8.62484
8.72127
8.82035
8.92216
9.0268
9.13436
9.24495
9.35868
9.47566
9.59603
9.71992
9.84748
9.97887
10.1142
10.2538
10.3977
10.5462
10.6995
10.8578
11.0215
11.1907
11.3659
11.5473
11.7353
11.9303
12.1328
12.3432
12.5621
12.7901
13.0246
13.2685
13.5287
13.8074
14.1069
14.43
14.78
15.1607
15.577
16.0347
16.5412
17.1058
17.7405
18.4611
19.2886
20.2527
21.3929
22.7773
24.4793
26.719
29.5526
34.0564
38.9484
48.9751
6.45414
6.4569
6.46372
6.47402
6.48722
6.50313
6.52164
6.54268
6.56611
6.59184
6.61978
6.64986
6.68202
6.71619
6.75234
6.79042
6.8304
6.87226
6.91596
6.9615
7.00885
7.05802
7.10899
7.16177
7.21635
7.27275
7.33098
7.39104
7.45295
7.51674
7.58242
7.65002
7.71957
7.79111
7.86465
7.94026
8.01795
8.09779
8.17982
8.2641
8.35067
8.43961
8.53097
8.62482
8.72125
8.82032
8.92213
9.02677
9.13433
9.24491
9.35864
9.47562
9.59599
9.71988
9.84743
9.97881
10.1142
10.2537
10.3976
10.5461
10.6994
10.8577
11.0214
11.1906
11.3657
11.5471
11.7351
11.9301
12.1326
12.343
12.5619
12.7898
13.0243
13.2682
13.5283
13.8069
14.1064
14.4294
14.7793
15.1599
15.5761
16.0336
16.5399
17.1042
17.7385
18.4586
19.2853
20.2484
21.387
22.7687
24.4666
26.6971
29.5166
33.9621
38.7774
48.3403
6.45414
6.4569
6.46372
6.47402
6.48722
6.50312
6.52164
6.54268
6.56611
6.59184
6.61978
6.64986
6.68201
6.71619
6.75234
6.79042
6.8304
6.87225
6.91596
6.96149
7.00885
7.05801
7.10898
7.16176
7.21635
7.27275
7.33097
7.39103
7.45295
7.51673
7.58241
7.65002
7.71957
7.7911
7.86464
7.94024
8.01794
8.09778
8.17981
8.26408
8.35065
8.43959
8.53095
8.6248
8.72122
8.8203
8.9221