/*--------------------------------*- C++ -*----------------------------------*\
| =========                 |                                                 |
| \\      /  F ield         | OpenFOAM: The Open Source CFD Toolbox           |
|  \\    /   O peration     | Version:  v2012                                 |
|   \\  /    A nd           | Website:  www.openfoam.com                      |
|    \\/     M anipulation  |                                                 |
\*---------------------------------------------------------------------------*/
FoamFile
{
    version     2.0;
    format      ascii;
    class       volVectorField;
    location    "2.5";
    object      wallShearStress;
}
// * * * * * * * * * * * * * * * * * * * * * * * * * * * * * * * * * * * * * //

dimensions      [0 2 -2 0 0 0 0];


internalField   uniform (0 0 0);

boundaryField
{
    inlet
    {
        type            calculated;
        value           uniform (0 0 0);
    }
    outlet
    {
        type            calculated;
        value           uniform (0 0 0);
    }
    topWall
    {
        type            calculated;
        value           nonuniform List<vector> 
545
(
(9.336e-09 -1.03001e-08 0)
(9.33528e-09 -2.88438e-08 0)
(9.3179e-09 -4.80957e-08 0)
(9.30235e-09 -6.67785e-08 0)
(9.28459e-09 -8.46503e-08 0)
(9.26391e-09 -1.01939e-07 0)
(9.24028e-09 -1.18791e-07 0)
(9.21387e-09 -1.35197e-07 0)
(9.18491e-09 -1.51121e-07 0)
(9.15365e-09 -1.66561e-07 0)
(9.12033e-09 -1.81537e-07 0)
(9.08515e-09 -1.96066e-07 0)
(9.04833e-09 -2.10157e-07 0)
(9.01004e-09 -2.2382e-07 0)
(8.97047e-09 -2.37065e-07 0)
(8.92978e-09 -2.49903e-07 0)
(8.88812e-09 -2.62345e-07 0)
(8.84563e-09 -2.74402e-07 0)
(8.80245e-09 -2.86084e-07 0)
(8.7587e-09 -2.97401e-07 0)
(8.71449e-09 -3.08366e-07 0)
(8.66994e-09 -3.18987e-07 0)
(8.62512e-09 -3.29274e-07 0)
(8.58014e-09 -3.39239e-07 0)
(8.53508e-09 -3.4889e-07 0)
(8.49002e-09 -3.58236e-07 0)
(8.44501e-09 -3.67289e-07 0)
(8.40013e-09 -3.76056e-07 0)
(8.35544e-09 -3.84546e-07 0)
(8.31098e-09 -3.92768e-07 0)
(8.26681e-09 -4.00731e-07 0)
(8.22297e-09 -4.08443e-07 0)
(8.17949e-09 -4.15912e-07 0)
(8.13642e-09 -4.23145e-07 0)
(8.09378e-09 -4.30151e-07 0)
(8.0516e-09 -4.36937e-07 0)
(8.00991e-09 -4.43509e-07 0)
(7.96872e-09 -4.49875e-07 0)
(7.92806e-09 -4.56041e-07 0)
(7.88794e-09 -4.62014e-07 0)
(7.84838e-09 -4.678e-07 0)
(7.80939e-09 -4.73406e-07 0)
(7.77097e-09 -4.78837e-07 0)
(7.73314e-09 -4.84099e-07 0)
(7.6959e-09 -4.89197e-07 0)
(7.65926e-09 -4.94137e-07 0)
(7.62322e-09 -4.98924e-07 0)
(7.58778e-09 -5.03563e-07 0)
(7.55294e-09 -5.08059e-07 0)
(7.5187e-09 -5.12416e-07 0)
(7.48505e-09 -5.1664e-07 0)
(7.45201e-09 -5.20733e-07 0)
(7.41955e-09 -5.24702e-07 0)
(7.38769e-09 -5.28549e-07 0)
(7.3564e-09 -5.32278e-07 0)
(7.32569e-09 -5.35894e-07 0)
(7.29555e-09 -5.394e-07 0)
(7.26598e-09 -5.428e-07 0)
(7.23696e-09 -5.46096e-07 0)
(7.20848e-09 -5.49293e-07 0)
(7.18054e-09 -5.52394e-07 0)
(7.15314e-09 -5.55401e-07 0)
(7.12625e-09 -5.58318e-07 0)
(7.09988e-09 -5.61147e-07 0)
(7.074e-09 -5.63892e-07 0)
(7.04862e-09 -5.66555e-07 0)
(7.02372e-09 -5.69138e-07 0)
(6.99929e-09 -5.71644e-07 0)
(6.97534e-09 -5.74076e-07 0)
(6.95177e-09 -5.76434e-07 0)
(6.92891e-09 -5.78729e-07 0)
(6.90533e-09 -5.8094e-07 0)
(6.8828e-09 -5.8307e-07 0)
(6.8627e-09 -5.85147e-07 0)
(6.84271e-09 -5.87182e-07 0)
(6.82276e-09 -5.89204e-07 0)
(6.80285e-09 -5.9122e-07 0)
(6.78298e-09 -5.93221e-07 0)
(6.76313e-09 -5.95206e-07 0)
(6.74331e-09 -5.97174e-07 0)
(6.72353e-09 -5.99128e-07 0)
(6.70378e-09 -6.01068e-07 0)
(6.68406e-09 -6.02993e-07 0)
(6.66438e-09 -6.04904e-07 0)
(6.64473e-09 -6.06801e-07 0)
(6.62512e-09 -6.08683e-07 0)
(6.60554e-09 -6.10551e-07 0)
(6.586e-09 -6.12405e-07 0)
(6.56649e-09 -6.14245e-07 0)
(6.54702e-09 -6.16071e-07 0)
(6.5276e-09 -6.17884e-07 0)
(6.50818e-09 -6.19682e-07 0)
(6.48894e-09 -6.21471e-07 0)
(6.46916e-09 -6.23233e-07 0)
(6.45185e-09 -6.25033e-07 0)
(6.42439e-09 -6.2671e-07 0)
(6.39533e-09 -6.28259e-07 0)
(6.37882e-09 -6.29767e-07 0)
(6.36326e-09 -6.31144e-07 0)
(6.34789e-09 -6.32511e-07 0)
(6.33252e-09 -6.33911e-07 0)
(6.3171e-09 -6.35324e-07 0)
(6.30162e-09 -6.3673e-07 0)
(6.28608e-09 -6.3813e-07 0)
(6.27048e-09 -6.3953e-07 0)
(6.25482e-09 -6.40932e-07 0)
(6.2391e-09 -6.42334e-07 0)
(6.22332e-09 -6.43735e-07 0)
(6.20748e-09 -6.45136e-07 0)
(6.19158e-09 -6.46536e-07 0)
(6.17561e-09 -6.47937e-07 0)
(6.15959e-09 -6.49337e-07 0)
(6.1435e-09 -6.50736e-07 0)
(6.12735e-09 -6.52136e-07 0)
(6.11114e-09 -6.53535e-07 0)
(6.09487e-09 -6.54933e-07 0)
(6.07853e-09 -6.56331e-07 0)
(6.06214e-09 -6.57729e-07 0)
(6.04568e-09 -6.59126e-07 0)
(6.02916e-09 -6.60522e-07 0)
(6.01258e-09 -6.61918e-07 0)
(5.99594e-09 -6.63314e-07 0)
(5.97923e-09 -6.64708e-07 0)
(5.96247e-09 -6.66103e-07 0)
(5.94564e-09 -6.67496e-07 0)
(5.92875e-09 -6.68889e-07 0)
(5.9118e-09 -6.70281e-07 0)
(5.89478e-09 -6.71673e-07 0)
(5.8777e-09 -6.73064e-07 0)
(5.86057e-09 -6.74454e-07 0)
(5.84336e-09 -6.75843e-07 0)
(5.8261e-09 -6.77231e-07 0)
(5.80878e-09 -6.78619e-07 0)
(5.79139e-09 -6.80005e-07 0)
(5.77394e-09 -6.81391e-07 0)
(5.75643e-09 -6.82776e-07 0)
(5.73885e-09 -6.8416e-07 0)
(5.72121e-09 -6.85542e-07 0)
(5.70351e-09 -6.86924e-07 0)
(5.68575e-09 -6.88305e-07 0)
(5.66793e-09 -6.89685e-07 0)
(5.65004e-09 -6.91064e-07 0)
(5.63209e-09 -6.92441e-07 0)
(5.61408e-09 -6.93817e-07 0)
(5.59601e-09 -6.95193e-07 0)
(5.57788e-09 -6.96567e-07 0)
(5.55968e-09 -6.97939e-07 0)
(5.54142e-09 -6.99311e-07 0)
(5.5231e-09 -7.00681e-07 0)
(5.50471e-09 -7.0205e-07 0)
(5.48627e-09 -7.03417e-07 0)
(5.46776e-09 -7.04784e-07 0)
(5.44919e-09 -7.06148e-07 0)
(5.43056e-09 -7.07512e-07 0)
(5.41186e-09 -7.08873e-07 0)
(5.39311e-09 -7.10234e-07 0)
(5.37429e-09 -7.11592e-07 0)
(5.35541e-09 -7.1295e-07 0)
(5.33647e-09 -7.14305e-07 0)
(5.31746e-09 -7.15659e-07 0)
(5.2984e-09 -7.17012e-07 0)
(5.27927e-09 -7.18362e-07 0)
(5.26008e-09 -7.19711e-07 0)
(5.24083e-09 -7.21058e-07 0)
(5.22152e-09 -7.22404e-07 0)
(5.20215e-09 -7.23747e-07 0)
(5.18272e-09 -7.25089e-07 0)
(5.16322e-09 -7.26429e-07 0)
(5.14367e-09 -7.27767e-07 0)
(5.12405e-09 -7.29103e-07 0)
(5.10437e-09 -7.30437e-07 0)
(5.08464e-09 -7.31769e-07 0)
(5.06484e-09 -7.33099e-07 0)
(5.04498e-09 -7.34427e-07 0)
(5.02506e-09 -7.35753e-07 0)
(5.00508e-09 -7.37077e-07 0)
(4.98504e-09 -7.38398e-07 0)
(4.96494e-09 -7.39717e-07 0)
(4.94478e-09 -7.41035e-07 0)
(4.92456e-09 -7.42349e-07 0)
(4.90428e-09 -7.43662e-07 0)
(4.88394e-09 -7.44972e-07 0)
(4.86354e-09 -7.4628e-07 0)
(4.84309e-09 -7.47585e-07 0)
(4.82257e-09 -7.48888e-07 0)
(4.80199e-09 -7.50189e-07 0)
(4.78136e-09 -7.51486e-07 0)
(4.76067e-09 -7.52782e-07 0)
(4.73992e-09 -7.54075e-07 0)
(4.71911e-09 -7.55365e-07 0)
(4.69824e-09 -7.56652e-07 0)
(4.67731e-09 -7.57937e-07 0)
(4.65633e-09 -7.59219e-07 0)
(4.63529e-09 -7.60499e-07 0)
(4.61419e-09 -7.61775e-07 0)
(4.59304e-09 -7.63049e-07 0)
(4.57182e-09 -7.6432e-07 0)
(4.55056e-09 -7.65588e-07 0)
(4.52923e-09 -7.66853e-07 0)
(4.50785e-09 -7.68115e-07 0)
(4.48641e-09 -7.69374e-07 0)
(4.46492e-09 -7.7063e-07 0)
(4.44337e-09 -7.71883e-07 0)
(4.42177e-09 -7.73132e-07 0)
(4.40011e-09 -7.74379e-07 0)
(4.37839e-09 -7.75622e-07 0)
(4.35662e-09 -7.76862e-07 0)
(4.3348e-09 -7.78099e-07 0)
(4.31292e-09 -7.79333e-07 0)
(4.29099e-09 -7.80563e-07 0)
(4.26901e-09 -7.8179e-07 0)
(4.24697e-09 -7.83013e-07 0)
(4.22488e-09 -7.84233e-07 0)
(4.20274e-09 -7.85449e-07 0)
(4.18054e-09 -7.86662e-07 0)
(4.15829e-09 -7.87872e-07 0)
(4.13599e-09 -7.89077e-07 0)
(4.11364e-09 -7.90279e-07 0)
(4.09124e-09 -7.91477e-07 0)
(4.06878e-09 -7.92672e-07 0)
(4.04628e-09 -7.93863e-07 0)
(4.02372e-09 -7.9505e-07 0)
(4.00112e-09 -7.96233e-07 0)
(3.97847e-09 -7.97412e-07 0)
(3.95576e-09 -7.98587e-07 0)
(3.93301e-09 -7.99758e-07 0)
(3.91021e-09 -8.00925e-07 0)
(3.88736e-09 -8.02089e-07 0)
(3.86446e-09 -8.03248e-07 0)
(3.84152e-09 -8.04403e-07 0)
(3.81853e-09 -8.05553e-07 0)
(3.79549e-09 -8.067e-07 0)
(3.7724e-09 -8.07842e-07 0)
(3.74927e-09 -8.0898e-07 0)
(3.7261e-09 -8.10114e-07 0)
(3.70288e-09 -8.11243e-07 0)
(3.67961e-09 -8.12368e-07 0)
(3.6563e-09 -8.13488e-07 0)
(3.63294e-09 -8.14604e-07 0)
(3.60955e-09 -8.15716e-07 0)
(3.5861e-09 -8.16822e-07 0)
(3.56262e-09 -8.17925e-07 0)
(3.53909e-09 -8.19022e-07 0)
(3.51553e-09 -8.20115e-07 0)
(3.49192e-09 -8.21203e-07 0)
(3.46827e-09 -8.22286e-07 0)
(3.44458e-09 -8.23364e-07 0)
(3.42084e-09 -8.24438e-07 0)
(3.39707e-09 -8.25507e-07 0)
(3.37327e-09 -8.2657e-07 0)
(3.34942e-09 -8.27629e-07 0)
(3.32553e-09 -8.28683e-07 0)
(3.30161e-09 -8.29731e-07 0)
(3.27765e-09 -8.30774e-07 0)
(3.25365e-09 -8.31813e-07 0)
(3.22962e-09 -8.32846e-07 0)
(3.20555e-09 -8.33874e-07 0)
(3.18144e-09 -8.34896e-07 0)
(3.15731e-09 -8.35913e-07 0)
(3.13313e-09 -8.36925e-07 0)
(3.10893e-09 -8.37931e-07 0)
(3.08469e-09 -8.38932e-07 0)
(3.06042e-09 -8.39928e-07 0)
(3.03612e-09 -8.40918e-07 0)
(3.01176e-09 -8.41901e-07 0)
(2.9875e-09 -8.42884e-07 0)
(2.96267e-09 -8.43846e-07 0)
(2.94006e-09 -8.44864e-07 0)
(2.90801e-09 -8.45751e-07 0)
(2.87424e-09 -8.46613e-07 0)
(2.85208e-09 -8.47572e-07 0)
(2.83102e-09 -8.48401e-07 0)
(2.81006e-09 -8.49212e-07 0)
(2.78895e-09 -8.50059e-07 0)
(2.76763e-09 -8.50924e-07 0)
(2.74608e-09 -8.51786e-07 0)
(2.72431e-09 -8.52644e-07 0)
(2.70231e-09 -8.53504e-07 0)
(2.68007e-09 -8.54368e-07 0)
(2.6576e-09 -8.55235e-07 0)
(2.6349e-09 -8.56104e-07 0)
(2.61196e-09 -8.56974e-07 0)
(2.58878e-09 -8.57846e-07 0)
(2.56537e-09 -8.58719e-07 0)
(2.54171e-09 -8.59594e-07 0)
(2.51782e-09 -8.60471e-07 0)
(2.49369e-09 -8.61348e-07 0)
(2.46931e-09 -8.62226e-07 0)
(2.4447e-09 -8.63106e-07 0)
(2.41984e-09 -8.63985e-07 0)
(2.39473e-09 -8.64866e-07 0)
(2.36939e-09 -8.65746e-07 0)
(2.34379e-09 -8.66626e-07 0)
(2.31795e-09 -8.67507e-07 0)
(2.29186e-09 -8.68387e-07 0)
(2.26553e-09 -8.69266e-07 0)
(2.23894e-09 -8.70145e-07 0)
(2.21211e-09 -8.71022e-07 0)
(2.18503e-09 -8.71899e-07 0)
(2.1577e-09 -8.72774e-07 0)
(2.13012e-09 -8.73647e-07 0)
(2.10229e-09 -8.74519e-07 0)
(2.07421e-09 -8.75388e-07 0)
(2.04588e-09 -8.76255e-07 0)
(2.01729e-09 -8.77119e-07 0)
(1.98846e-09 -8.7798e-07 0)
(1.95938e-09 -8.78838e-07 0)
(1.93005e-09 -8.79692e-07 0)
(1.90046e-09 -8.80543e-07 0)
(1.87063e-09 -8.81389e-07 0)
(1.84055e-09 -8.82231e-07 0)
(1.81022e-09 -8.83069e-07 0)
(1.77964e-09 -8.83901e-07 0)
(1.74881e-09 -8.84728e-07 0)
(1.71774e-09 -8.8555e-07 0)
(1.68642e-09 -8.86365e-07 0)
(1.65486e-09 -8.87174e-07 0)
(1.62305e-09 -8.87976e-07 0)
(1.591e-09 -8.88771e-07 0)
(1.5587e-09 -8.89559e-07 0)
(1.52617e-09 -8.90339e-07 0)
(1.4934e-09 -8.9111e-07 0)
(1.46039e-09 -8.91873e-07 0)
(1.42715e-09 -8.92627e-07 0)
(1.39368e-09 -8.93372e-07 0)
(1.35997e-09 -8.94106e-07 0)
(1.32603e-09 -8.94831e-07 0)
(1.29187e-09 -8.95545e-07 0)
(1.25749e-09 -8.96247e-07 0)
(1.22288e-09 -8.96938e-07 0)
(1.18805e-09 -8.97617e-07 0)
(1.15301e-09 -8.98284e-07 0)
(1.11775e-09 -8.98937e-07 0)
(1.08229e-09 -8.99577e-07 0)
(1.04662e-09 -9.00203e-07 0)
(1.01074e-09 -9.00814e-07 0)
(9.74667e-10 -9.01411e-07 0)
(9.38398e-10 -9.01992e-07 0)
(9.01937e-10 -9.02557e-07 0)
(8.6529e-10 -9.03105e-07 0)
(8.28461e-10 -9.03636e-07 0)
(7.91453e-10 -9.0415e-07 0)
(7.54272e-10 -9.04645e-07 0)
(7.16923e-10 -9.05122e-07 0)
(6.79411e-10 -9.05579e-07 0)
(6.41741e-10 -9.06017e-07 0)
(6.03919e-10 -9.06433e-07 0)
(5.6595e-10 -9.06829e-07 0)
(5.27841e-10 -9.07203e-07 0)
(4.89598e-10 -9.07554e-07 0)
(4.51227e-10 -9.07883e-07 0)
(4.12734e-10 -9.08188e-07 0)
(3.74127e-10 -9.08468e-07 0)
(3.35412e-10 -9.08724e-07 0)
(2.96597e-10 -9.08955e-07 0)
(2.57689e-10 -9.09159e-07 0)
(2.18695e-10 -9.09336e-07 0)
(1.79624e-10 -9.09486e-07 0)
(1.40483e-10 -9.09607e-07 0)
(1.01281e-10 -9.097e-07 0)
(6.20261e-11 -9.09763e-07 0)
(2.27274e-11 -9.09795e-07 0)
(-1.66063e-11 -9.09797e-07 0)
(-5.59657e-11 -9.09767e-07 0)
(-9.53415e-11 -9.09705e-07 0)
(-1.34724e-10 -9.0961e-07 0)
(-1.74103e-10 -9.09481e-07 0)
(-2.13469e-10 -9.09317e-07 0)
(-2.5281e-10 -9.09118e-07 0)
(-2.92117e-10 -9.08884e-07 0)
(-3.31379e-10 -9.08612e-07 0)
(-3.70583e-10 -9.08303e-07 0)
(-4.09719e-10 -9.07956e-07 0)
(-4.48774e-10 -9.07571e-07 0)
(-4.87738e-10 -9.07145e-07 0)
(-5.26597e-10 -9.06679e-07 0)
(-5.65339e-10 -9.06173e-07 0)
(-6.03951e-10 -9.05624e-07 0)
(-6.42421e-10 -9.05033e-07 0)
(-6.80735e-10 -9.04399e-07 0)
(-7.1888e-10 -9.03721e-07 0)
(-7.56842e-10 -9.02999e-07 0)
(-7.94608e-10 -9.02231e-07 0)
(-8.32164e-10 -9.01417e-07 0)
(-8.69496e-10 -9.00557e-07 0)
(-9.0659e-10 -8.99649e-07 0)
(-9.43432e-10 -8.98693e-07 0)
(-9.80009e-10 -8.97688e-07 0)
(-1.01631e-09 -8.96634e-07 0)
(-1.05231e-09 -8.9553e-07 0)
(-1.088e-09 -8.94376e-07 0)
(-1.12337e-09 -8.9317e-07 0)
(-1.1584e-09 -8.91912e-07 0)
(-1.19308e-09 -8.90602e-07 0)
(-1.2274e-09 -8.89239e-07 0)
(-1.26134e-09 -8.87822e-07 0)
(-1.29488e-09 -8.8635e-07 0)
(-1.32801e-09 -8.84825e-07 0)
(-1.36071e-09 -8.83243e-07 0)
(-1.39298e-09 -8.81606e-07 0)
(-1.4248e-09 -8.79913e-07 0)
(-1.45615e-09 -8.78163e-07 0)
(-1.48702e-09 -8.76356e-07 0)
(-1.51739e-09 -8.74491e-07 0)
(-1.54725e-09 -8.72569e-07 0)
(-1.57659e-09 -8.70587e-07 0)
(-1.60539e-09 -8.68547e-07 0)
(-1.63364e-09 -8.66448e-07 0)
(-1.66132e-09 -8.6429e-07 0)
(-1.68843e-09 -8.62071e-07 0)
(-1.71494e-09 -8.59793e-07 0)
(-1.74085e-09 -8.57455e-07 0)
(-1.76613e-09 -8.55056e-07 0)
(-1.79079e-09 -8.52596e-07 0)
(-1.8148e-09 -8.50076e-07 0)
(-1.83816e-09 -8.47495e-07 0)
(-1.86085e-09 -8.44853e-07 0)
(-1.88286e-09 -8.4215e-07 0)
(-1.90418e-09 -8.39386e-07 0)
(-1.9248e-09 -8.36561e-07 0)
(-1.94471e-09 -8.33675e-07 0)
(-1.9639e-09 -8.30729e-07 0)
(-1.98235e-09 -8.27722e-07 0)
(-2.00007e-09 -8.24654e-07 0)
(-2.01703e-09 -8.21526e-07 0)
(-2.03324e-09 -8.18337e-07 0)
(-2.04869e-09 -8.15089e-07 0)
(-2.06336e-09 -8.11782e-07 0)
(-2.07725e-09 -8.08415e-07 0)
(-2.09036e-09 -8.0499e-07 0)
(-2.10268e-09 -8.01506e-07 0)
(-2.1142e-09 -7.97964e-07 0)
(-2.12492e-09 -7.94365e-07 0)
(-2.13483e-09 -7.90709e-07 0)
(-2.14394e-09 -7.86997e-07 0)
(-2.15223e-09 -7.8323e-07 0)
(-2.15971e-09 -7.79407e-07 0)
(-2.16638e-09 -7.75531e-07 0)
(-2.17222e-09 -7.716e-07 0)
(-2.17725e-09 -7.67618e-07 0)
(-2.18146e-09 -7.63583e-07 0)
(-2.18485e-09 -7.59497e-07 0)
(-2.18743e-09 -7.55362e-07 0)
(-2.18918e-09 -7.51177e-07 0)
(-2.19014e-09 -7.46944e-07 0)
(-2.19025e-09 -7.42667e-07 0)
(-2.18966e-09 -7.3833e-07 0)
(-2.18783e-09 -7.33988e-07 0)
(-2.18707e-09 -7.29436e-07 0)
(-2.17762e-09 -7.25149e-07 0)
(-2.16586e-09 -7.20272e-07 0)
(-2.16151e-09 -7.14525e-07 0)
(-2.15552e-09 -7.09104e-07 0)
(-2.1484e-09 -7.03715e-07 0)
(-2.14028e-09 -6.98274e-07 0)
(-2.13124e-09 -6.9283e-07 0)
(-2.12134e-09 -6.87428e-07 0)
(-2.11062e-09 -6.82064e-07 0)
(-2.09912e-09 -6.76728e-07 0)
(-2.08689e-09 -6.71417e-07 0)
(-2.07396e-09 -6.66137e-07 0)
(-2.06037e-09 -6.60891e-07 0)
(-2.04615e-09 -6.55682e-07 0)
(-2.03134e-09 -6.5051e-07 0)
(-2.01596e-09 -6.45375e-07 0)
(-2.00006e-09 -6.4028e-07 0)
(-1.98365e-09 -6.35227e-07 0)
(-1.96677e-09 -6.30215e-07 0)
(-1.94945e-09 -6.25247e-07 0)
(-1.93169e-09 -6.20324e-07 0)
(-1.91354e-09 -6.15446e-07 0)
(-1.895e-09 -6.10615e-07 0)
(-1.8761e-09 -6.05831e-07 0)
(-1.85687e-09 -6.01095e-07 0)
(-1.83731e-09 -5.96409e-07 0)
(-1.81745e-09 -5.91773e-07 0)
(-1.79729e-09 -5.87188e-07 0)
(-1.77687e-09 -5.82654e-07 0)
(-1.75618e-09 -5.78172e-07 0)
(-1.73524e-09 -5.73743e-07 0)
(-1.71407e-09 -5.69368e-07 0)
(-1.69267e-09 -5.65046e-07 0)
(-1.67106e-09 -5.60779e-07 0)
(-1.64924e-09 -5.56567e-07 0)
(-1.62723e-09 -5.52411e-07 0)
(-1.60502e-09 -5.48311e-07 0)
(-1.58264e-09 -5.44268e-07 0)
(-1.56008e-09 -5.40281e-07 0)
(-1.53736e-09 -5.36352e-07 0)
(-1.51447e-09 -5.32481e-07 0)
(-1.49143e-09 -5.28668e-07 0)
(-1.46823e-09 -5.24913e-07 0)
(-1.44489e-09 -5.21218e-07 0)
(-1.4214e-09 -5.17582e-07 0)
(-1.39777e-09 -5.14006e-07 0)
(-1.374e-09 -5.1049e-07 0)
(-1.35009e-09 -5.07035e-07 0)
(-1.32606e-09 -5.0364e-07 0)
(-1.30189e-09 -5.00307e-07 0)
(-1.27759e-09 -4.97035e-07 0)
(-1.25316e-09 -4.93824e-07 0)
(-1.22861e-09 -4.90676e-07 0)
(-1.20393e-09 -4.87591e-07 0)
(-1.17913e-09 -4.84568e-07 0)
(-1.15421e-09 -4.81608e-07 0)
(-1.12916e-09 -4.78712e-07 0)
(-1.104e-09 -4.75879e-07 0)
(-1.07871e-09 -4.7311e-07 0)
(-1.05331e-09 -4.70406e-07 0)
(-1.02779e-09 -4.67766e-07 0)
(-1.00215e-09 -4.65191e-07 0)
(-9.76397e-10 -4.62681e-07 0)
(-9.50529e-10 -4.60237e-07 0)
(-9.24548e-10 -4.57859e-07 0)
(-8.98456e-10 -4.55546e-07 0)
(-8.72253e-10 -4.533e-07 0)
(-8.45942e-10 -4.51121e-07 0)
(-8.19523e-10 -4.49008e-07 0)
(-7.92999e-10 -4.46963e-07 0)
(-7.66372e-10 -4.44984e-07 0)
(-7.39642e-10 -4.43074e-07 0)
(-7.12813e-10 -4.41232e-07 0)
(-6.85886e-10 -4.39457e-07 0)
(-6.58865e-10 -4.37751e-07 0)
(-6.3175e-10 -4.36114e-07 0)
(-6.04545e-10 -4.34546e-07 0)
(-5.77253e-10 -4.33047e-07 0)
(-5.49877e-10 -4.31617e-07 0)
(-5.22419e-10 -4.30256e-07 0)
(-4.94883e-10 -4.28966e-07 0)
(-4.67271e-10 -4.27745e-07 0)
(-4.39586e-10 -4.26595e-07 0)
(-4.11831e-10 -4.25514e-07 0)
(-3.84007e-10 -4.24505e-07 0)
(-3.56116e-10 -4.23565e-07 0)
(-3.28159e-10 -4.22699e-07 0)
(-3.00136e-10 -4.21893e-07 0)
(-2.72071e-10 -4.21197e-07 0)
(-2.43938e-10 -4.20445e-07 0)
(-2.15945e-10 -4.20179e-07 0)
(-1.87521e-10 -4.18581e-07 0)
(-1.61122e-10 -4.21535e-07 0)
(-1.27097e-10 -4.0857e-07 0)
(-1.23674e-10 -4.41802e-07 0)
(-7.1205e-11 -3.85607e-07 0)
)
;
    }
    bottomWall
    {
        type            calculated;
        value           nonuniform List<vector> 
449
(
(-46.5206 -0.879901 0)
(-20.1272 -0.221958 0)
(-14.2546 -0.0269334 0)
(-11.9384 -0.0146398 0)
(-10.5736 -0.0106566 0)
(-9.6276 -0.00804006 0)
(-8.88497 -0.0064399 0)
(-8.28401 -0.00521282 0)
(-7.79079 -0.0043186 0)
(-7.37631 -0.00367341 0)
(-7.02035 -0.00317918 0)
(-6.71012 -0.00278283 0)
(-6.43679 -0.00245981 0)
(-6.19368 -0.00219411 0)
(-5.97557 -0.00197274 0)
(-5.77844 -0.00178579 0)
(-5.59912 -0.00162614 0)
(-5.43507 -0.00148855 0)
(-5.28424 -0.00136901 0)
(-5.14495 -0.0012644 0)
(-5.01578 -0.00117223 0)
(-4.89557 -0.00109054 0)
(-4.78333 -0.00101773 0)
(-4.67819 -0.000952507 0)
(-4.57945 -0.000893823 0)
(-4.48648 -0.000840797 0)
(-4.39873 -0.000792695 0)
(-4.31574 -0.000748903 0)
(-4.23707 -0.000708903 0)
(-4.16237 -0.000672251 0)
(-4.09132 -0.000638571 0)
(-4.02362 -0.000607537 0)
(-3.95902 -0.000578868 0)
(-3.89728 -0.000552321 0)
(-3.8382 -0.000527684 0)
(-3.78159 -0.00050477 0)
(-3.72729 -0.000483417 0)
(-3.67513 -0.000463481 0)
(-3.62498 -0.000444833 0)
(-3.57672 -0.000427362 0)
(-3.53022 -0.000410966 0)
(-3.48539 -0.000395555 0)
(-3.44212 -0.00038105 0)
(-3.40032 -0.000367377 0)
(-3.35991 -0.000354473 0)
(-3.32082 -0.000342278 0)
(-3.28297 -0.000330739 0)
(-3.2463 -0.000319808 0)
(-3.21074 -0.000309442 0)
(-3.17625 -0.000299601 0)
(-3.14277 -0.000290248 0)
(-3.11025 -0.000281352 0)
(-3.07864 -0.00027288 0)
(-3.04791 -0.000264807 0)
(-3.018 -0.000257105 0)
(-2.98889 -0.000249753 0)
(-2.96055 -0.000242728 0)
(-2.93292 -0.00023601 0)
(-2.906 -0.000229582 0)
(-2.87974 -0.000223426 0)
(-2.85412 -0.000217526 0)
(-2.82911 -0.000211868 0)
(-2.80469 -0.000206438 0)
(-2.78084 -0.000201224 0)
(-2.75753 -0.000196214 0)
(-2.73474 -0.000191398 0)
(-2.71246 -0.000186764 0)
(-2.69066 -0.000182304 0)
(-2.66933 -0.000178009 0)
(-2.64845 -0.00017387 0)
(-2.62801 -0.000169879 0)
(-2.60798 -0.00016603 0)
(-2.58836 -0.000162316 0)
(-2.56913 -0.000158729 0)
(-2.55028 -0.000155265 0)
(-2.5318 -0.000151917 0)
(-2.51366 -0.00014868 0)
(-2.49587 -0.000145549 0)
(-2.47842 -0.000142519 0)
(-2.46128 -0.000139586 0)
(-2.44445 -0.000136746 0)
(-2.42793 -0.000133994 0)
(-2.4117 -0.000131327 0)
(-2.39575 -0.000128741 0)
(-2.38008 -0.000126233 0)
(-2.36468 -0.0001238 0)
(-2.34954 -0.000121439 0)
(-2.33464 -0.000119146 0)
(-2.32 -0.000116919 0)
(-2.30559 -0.000114756 0)
(-2.29142 -0.000112654 0)
(-2.27747 -0.00011061 0)
(-2.26374 -0.000108623 0)
(-2.25022 -0.00010669 0)
(-2.23691 -0.000104809 0)
(-2.22381 -0.000102979 0)
(-2.2109 -0.000101197 0)
(-2.19818 -9.94619e-05 0)
(-2.18566 -9.77719e-05 0)
(-2.17331 -9.61253e-05 0)
(-2.16115 -9.45206e-05 0)
(-2.14916 -9.29565e-05 0)
(-2.13733 -9.14314e-05 0)
(-2.12568 -8.99441e-05 0)
(-2.11418 -8.84933e-05 0)
(-2.10285 -8.70778e-05 0)
(-2.09166 -8.56964e-05 0)
(-2.08063 -8.4348e-05 0)
(-2.06975 -8.30315e-05 0)
(-2.05901 -8.17459e-05 0)
(-2.04841 -8.04902e-05 0)
(-2.03795 -7.92634e-05 0)
(-2.02762 -7.80647e-05 0)
(-2.01743 -7.68931e-05 0)
(-2.00736 -7.57479e-05 0)
(-1.99742 -7.46282e-05 0)
(-1.9876 -7.35332e-05 0)
(-1.9779 -7.24622e-05 0)
(-1.96833 -7.14146e-05 0)
(-1.95886 -7.03895e-05 0)
(-1.94951 -6.93864e-05 0)
(-1.94028 -6.84046e-05 0)
(-1.93115 -6.74435e-05 0)
(-1.92212 -6.65024e-05 0)
(-1.91321 -6.55809e-05 0)
(-1.90439 -6.46783e-05 0)
(-1.89568 -6.37942e-05 0)
(-1.88706 -6.29281e-05 0)
(-1.87854 -6.20793e-05 0)
(-1.87011 -6.12475e-05 0)
(-1.86178 -6.04323e-05 0)
(-1.85354 -5.9633e-05 0)
(-1.84539 -5.88494e-05 0)
(-1.83732 -5.8081e-05 0)
(-1.82935 -5.73274e-05 0)
(-1.82145 -5.65883e-05 0)
(-1.81364 -5.58632e-05 0)
(-1.80592 -5.51518e-05 0)
(-1.79827 -5.44537e-05 0)
(-1.7907 -5.37686e-05 0)
(-1.78321 -5.30961e-05 0)
(-1.77579 -5.2436e-05 0)
(-1.76845 -5.1788e-05 0)
(-1.76118 -5.11517e-05 0)
(-1.75398 -5.05268e-05 0)
(-1.74686 -4.99132e-05 0)
(-1.7398 -4.93104e-05 0)
(-1.73282 -4.87183e-05 0)
(-1.7259 -4.81365e-05 0)
(-1.71904 -4.75649e-05 0)
(-1.71226 -4.70033e-05 0)
(-1.70553 -4.64512e-05 0)
(-1.69887 -4.59086e-05 0)
(-1.69227 -4.53752e-05 0)
(-1.68574 -4.48509e-05 0)
(-1.67926 -4.43354e-05 0)
(-1.67284 -4.38285e-05 0)
(-1.66648 -4.33299e-05 0)
(-1.66018 -4.28397e-05 0)
(-1.65393 -4.23574e-05 0)
(-1.64774 -4.18831e-05 0)
(-1.64161 -4.14163e-05 0)
(-1.63552 -4.09572e-05 0)
(-1.6295 -4.05054e-05 0)
(-1.62352 -4.00608e-05 0)
(-1.61759 -3.96234e-05 0)
(-1.61172 -3.91928e-05 0)
(-1.60589 -3.8769e-05 0)
(-1.60012 -3.83527e-05 0)
(-1.59439 -3.79396e-05 0)
(-1.58872 -3.75416e-05 0)
(-1.58308 -3.71476e-05 0)
(-1.5775 -3.66827e-05 0)
(-1.57228 -3.63436e-05 0)
(-1.56737 -3.60995e-05 0)
(-1.56245 -3.57307e-05 0)
(-1.55753 -3.53703e-05 0)
(-1.5526 -3.50321e-05 0)
(-1.54766 -3.46964e-05 0)
(-1.54272 -3.43625e-05 0)
(-1.53778 -3.40312e-05 0)
(-1.53283 -3.37021e-05 0)
(-1.52787 -3.3375e-05 0)
(-1.52291 -3.30499e-05 0)
(-1.51795 -3.27267e-05 0)
(-1.51298 -3.24054e-05 0)
(-1.508 -3.20858e-05 0)
(-1.50302 -3.17682e-05 0)
(-1.49804 -3.14523e-05 0)
(-1.49305 -3.11383e-05 0)
(-1.48806 -3.08262e-05 0)
(-1.48306 -3.05159e-05 0)
(-1.47807 -3.02076e-05 0)
(-1.47306 -2.9901e-05 0)
(-1.46806 -2.95963e-05 0)
(-1.46305 -2.92934e-05 0)
(-1.45804 -2.89925e-05 0)
(-1.45303 -2.86935e-05 0)
(-1.44802 -2.83964e-05 0)
(-1.443 -2.81012e-05 0)
(-1.43799 -2.78079e-05 0)
(-1.43297 -2.75164e-05 0)
(-1.42795 -2.7227e-05 0)
(-1.42293 -2.69394e-05 0)
(-1.41791 -2.66538e-05 0)
(-1.41288 -2.63702e-05 0)
(-1.40786 -2.60884e-05 0)
(-1.40284 -2.58086e-05 0)
(-1.39782 -2.55307e-05 0)
(-1.39279 -2.52548e-05 0)
(-1.38777 -2.49808e-05 0)
(-1.38275 -2.47088e-05 0)
(-1.37773 -2.44387e-05 0)
(-1.37271 -2.41706e-05 0)
(-1.36769 -2.39044e-05 0)
(-1.36268 -2.36402e-05 0)
(-1.35766 -2.33779e-05 0)
(-1.35265 -2.31175e-05 0)
(-1.34764 -2.28592e-05 0)
(-1.34263 -2.26027e-05 0)
(-1.33763 -2.23482e-05 0)
(-1.33263 -2.20955e-05 0)
(-1.32763 -2.18448e-05 0)
(-1.32263 -2.15961e-05 0)
(-1.31764 -2.13492e-05 0)
(-1.31265 -2.11044e-05 0)
(-1.30766 -2.08613e-05 0)
(-1.30268 -2.06202e-05 0)
(-1.29771 -2.03809e-05 0)
(-1.29274 -2.01435e-05 0)
(-1.28777 -1.99081e-05 0)
(-1.28281 -1.96745e-05 0)
(-1.27785 -1.94427e-05 0)
(-1.2729 -1.92128e-05 0)
(-1.26795 -1.89847e-05 0)
(-1.26302 -1.87585e-05 0)
(-1.25808 -1.85341e-05 0)
(-1.25316 -1.83115e-05 0)
(-1.24824 -1.80908e-05 0)
(-1.24332 -1.78717e-05 0)
(-1.23842 -1.76545e-05 0)
(-1.23352 -1.7439e-05 0)
(-1.22863 -1.72253e-05 0)
(-1.22375 -1.70134e-05 0)
(-1.21888 -1.68031e-05 0)
(-1.21401 -1.65947e-05 0)
(-1.20915 -1.63878e-05 0)
(-1.20431 -1.61828e-05 0)
(-1.19947 -1.59793e-05 0)
(-1.19464 -1.57776e-05 0)
(-1.18982 -1.55776e-05 0)
(-1.18501 -1.53792e-05 0)
(-1.18021 -1.51825e-05 0)
(-1.17542 -1.49874e-05 0)
(-1.17065 -1.47939e-05 0)
(-1.16588 -1.46021e-05 0)
(-1.16113 -1.44119e-05 0)
(-1.15639 -1.42233e-05 0)
(-1.15165 -1.40363e-05 0)
(-1.14694 -1.38508e-05 0)
(-1.14223 -1.36669e-05 0)
(-1.13754 -1.34846e-05 0)
(-1.13286 -1.33039e-05 0)
(-1.12819 -1.31248e-05 0)
(-1.12354 -1.29472e-05 0)
(-1.1189 -1.27712e-05 0)
(-1.11428 -1.25967e-05 0)
(-1.10967 -1.24238e-05 0)
(-1.10507 -1.22524e-05 0)
(-1.10049 -1.20825e-05 0)
(-1.09593 -1.19142e-05 0)
(-1.09138 -1.17475e-05 0)
(-1.08684 -1.15822e-05 0)
(-1.08233 -1.14185e-05 0)
(-1.07783 -1.12564e-05 0)
(-1.07334 -1.10957e-05 0)
(-1.06887 -1.09366e-05 0)
(-1.06442 -1.07791e-05 0)
(-1.05999 -1.06231e-05 0)
(-1.05557 -1.04685e-05 0)
(-1.05118 -1.03156e-05 0)
(-1.0468 -1.01641e-05 0)
(-1.04244 -1.00143e-05 0)
(-1.03809 -9.8659e-06 0)
(-1.03377 -9.71909e-06 0)
(-1.02946 -9.5738e-06 0)
(-1.02518 -9.43007e-06 0)
(-1.02091 -9.28787e-06 0)
(-1.01666 -9.14721e-06 0)
(-1.01244 -9.00811e-06 0)
(-1.00823 -8.87051e-06 0)
(-1.00404 -8.7345e-06 0)
(-0.999873 -8.59995e-06 0)
(-0.995726 -8.46699e-06 0)
(-0.991599 -8.33552e-06 0)
(-0.987493 -8.2056e-06 0)
(-0.983407 -8.07722e-06 0)
(-0.979343 -7.95038e-06 0)
(-0.975299 -7.82506e-06 0)
(-0.971277 -7.70126e-06 0)
(-0.967276 -7.57897e-06 0)
(-0.963296 -7.4582e-06 0)
(-0.959338 -7.33895e-06 0)
(-0.955401 -7.22117e-06 0)
(-0.951486 -7.10494e-06 0)
(-0.947593 -6.99015e-06 0)
(-0.943722 -6.87689e-06 0)
(-0.939872 -6.76507e-06 0)
(-0.936044 -6.65474e-06 0)
(-0.932239 -6.54589e-06 0)
(-0.928455 -6.43846e-06 0)
(-0.924694 -6.33252e-06 0)
(-0.920955 -6.22797e-06 0)
(-0.917237 -6.12488e-06 0)
(-0.913543 -6.02317e-06 0)
(-0.90987 -5.92289e-06 0)
(-0.90622 -5.824e-06 0)
(-0.902592 -5.7265e-06 0)
(-0.898987 -5.63037e-06 0)
(-0.895404 -5.5356e-06 0)
(-0.891843 -5.44218e-06 0)
(-0.888305 -5.3501e-06 0)
(-0.884789 -5.25935e-06 0)
(-0.881295 -5.16989e-06 0)
(-0.877825 -5.08176e-06 0)
(-0.874376 -4.99487e-06 0)
(-0.87095 -4.90927e-06 0)
(-0.867546 -4.8249e-06 0)
(-0.864165 -4.74179e-06 0)
(-0.860807 -4.6599e-06 0)
(-0.85747 -4.57923e-06 0)
(-0.854157 -4.49977e-06 0)
(-0.850865 -4.42149e-06 0)
(-0.847596 -4.34438e-06 0)
(-0.84435 -4.26844e-06 0)
(-0.841126 -4.19364e-06 0)
(-0.837924 -4.11996e-06 0)
(-0.834744 -4.04742e-06 0)
(-0.831587 -3.97597e-06 0)
(-0.828452 -3.90563e-06 0)
(-0.82534 -3.83636e-06 0)
(-0.82225 -3.76817e-06 0)
(-0.819182 -3.70105e-06 0)
(-0.816136 -3.63498e-06 0)
(-0.813112 -3.56997e-06 0)
(-0.81011 -3.50602e-06 0)
(-0.807131 -3.44314e-06 0)
(-0.804173 -3.38133e-06 0)
(-0.801237 -3.32072e-06 0)
(-0.798322 -3.26129e-06 0)
(-0.795429 -3.20262e-06 0)
(-0.792557 -3.14869e-06 0)
(-0.789698 -3.09283e-06 0)
(-0.786871 -3.02178e-06 0)
(-0.783763 -2.9593e-06 0)
(-0.78039 -2.91093e-06 0)
(-0.777069 -2.85862e-06 0)
(-0.773813 -2.79921e-06 0)
(-0.770629 -2.73862e-06 0)
(-0.767514 -2.67902e-06 0)
(-0.764467 -2.62077e-06 0)
(-0.761487 -2.56396e-06 0)
(-0.758572 -2.50863e-06 0)
(-0.75572 -2.4548e-06 0)
(-0.752929 -2.40243e-06 0)
(-0.750199 -2.35148e-06 0)
(-0.747526 -2.3019e-06 0)
(-0.744911 -2.25366e-06 0)
(-0.74235 -2.20669e-06 0)
(-0.739843 -2.16096e-06 0)
(-0.737389 -2.11643e-06 0)
(-0.734985 -2.07306e-06 0)
(-0.732631 -2.03079e-06 0)
(-0.730325 -1.98961e-06 0)
(-0.728066 -1.94946e-06 0)
(-0.725854 -1.91033e-06 0)
(-0.723685 -1.87215e-06 0)
(-0.721561 -1.83493e-06 0)
(-0.719479 -1.79861e-06 0)
(-0.717439 -1.76319e-06 0)
(-0.715439 -1.72861e-06 0)
(-0.713479 -1.69487e-06 0)
(-0.711557 -1.66192e-06 0)
(-0.709674 -1.62976e-06 0)
(-0.707826 -1.59835e-06 0)
(-0.706015 -1.56767e-06 0)
(-0.704239 -1.5377e-06 0)
(-0.702497 -1.50842e-06 0)
(-0.700789 -1.47979e-06 0)
(-0.699114 -1.45183e-06 0)
(-0.69747 -1.42448e-06 0)
(-0.695858 -1.39774e-06 0)
(-0.694276 -1.3716e-06 0)
(-0.692725 -1.34603e-06 0)
(-0.691202 -1.32102e-06 0)
(-0.689708 -1.29656e-06 0)
(-0.688242 -1.27261e-06 0)
(-0.686804 -1.24919e-06 0)
(-0.685392 -1.22627e-06 0)
(-0.684007 -1.20384e-06 0)
(-0.682647 -1.18189e-06 0)
(-0.681313 -1.1604e-06 0)
(-0.680003 -1.13936e-06 0)
(-0.678717 -1.11877e-06 0)
(-0.677454 -1.0986e-06 0)
(-0.676215 -1.07885e-06 0)
(-0.674998 -1.05951e-06 0)
(-0.673804 -1.04058e-06 0)
(-0.672631 -1.02204e-06 0)
(-0.671479 -1.00388e-06 0)
(-0.670348 -9.86089e-07 0)
(-0.669237 -9.68671e-07 0)
(-0.668147 -9.51607e-07 0)
(-0.667075 -9.34896e-07 0)
(-0.666023 -9.18526e-07 0)
(-0.66499 -9.02494e-07 0)
(-0.663975 -8.8679e-07 0)
(-0.662977 -8.71411e-07 0)
(-0.661998 -8.56346e-07 0)
(-0.661035 -8.41595e-07 0)
(-0.66009 -8.27145e-07 0)
(-0.65916 -8.12999e-07 0)
(-0.658247 -7.99144e-07 0)
(-0.65735 -7.85582e-07 0)
(-0.656468 -7.72303e-07 0)
(-0.655602 -7.5931e-07 0)
(-0.65475 -7.46594e-07 0)
(-0.653913 -7.34158e-07 0)
(-0.653089 -7.21995e-07 0)
(-0.65228 -7.1011e-07 0)
(-0.651484 -6.98499e-07 0)
(-0.650702 -6.87169e-07 0)
(-0.649932 -6.76124e-07 0)
(-0.649175 -6.65372e-07 0)
(-0.64843 -6.54928e-07 0)
(-0.647697 -6.44812e-07 0)
(-0.646975 -6.35055e-07 0)
(-0.646264 -6.257e-07 0)
(-0.645564 -6.1681e-07 0)
(-0.644874 -6.08551e-07 0)
(-0.644193 -6.00847e-07 0)
(-0.643521 -5.94254e-07 0)
(-0.642855 -5.9095e-07 0)
(-0.642192 -5.85285e-07 0)
(-0.64154 -5.60773e-07 0)
(-0.640931 -7.60462e-07 0)
(-0.6398 -2.63328e-07 0)
(-0.640579 -1.53098e-07 0)
(-0.638673 -1.41224e-06 0)
)
;
    }
    symmetry
    {
        type            symmetryPlane;
    }
    frontAndBack
    {
        type            empty;
    }
}


// ************************************************************************* //
