/*--------------------------------*- C++ -*----------------------------------*\
| =========                 |                                                 |
| \\      /  F ield         | OpenFOAM: The Open Source CFD Toolbox           |
|  \\    /   O peration     | Version:  v2012                                 |
|   \\  /    A nd           | Website:  www.openfoam.com                      |
|    \\/     M anipulation  |                                                 |
\*---------------------------------------------------------------------------*/
FoamFile
{
    version     2.0;
    format      ascii;
    class       volScalarField;
    location    "2.5";
    object      yPlus;
}
// * * * * * * * * * * * * * * * * * * * * * * * * * * * * * * * * * * * * * //

dimensions      [0 0 0 0 0 0 0];


internalField   uniform 0;

boundaryField
{
    inlet
    {
        type            calculated;
        value           uniform 0;
    }
    outlet
    {
        type            calculated;
        value           uniform 0;
    }
    topWall
    {
        type            calculated;
        value           nonuniform List<scalar> 
545
(
0.0447887
0.0772855
0.0991323
0.116507
0.131207
0.14406
0.155531
0.165912
0.175402
0.184145
0.192247
0.199793
0.206848
0.213465
0.219691
0.225561
0.231108
0.236359
0.241337
0.246065
0.25056
0.254838
0.258915
0.262803
0.266515
0.270062
0.273453
0.276697
0.279803
0.282779
0.285631
0.288366
0.290991
0.29351
0.29593
0.298255
0.30049
0.302639
0.304706
0.306695
0.308609
0.310453
0.312229
0.31394
0.315588
0.317178
0.31871
0.320189
0.321615
0.322991
0.32432
0.325602
0.32684
0.328036
0.329192
0.330308
0.331387
0.332429
0.333437
0.334412
0.335354
0.336266
0.337148
0.338001
0.338827
0.339626
0.340399
0.341148
0.341873
0.342574
0.343254
0.343912
0.344542
0.34515
0.345752
0.346349
0.346941
0.347527
0.348107
0.348683
0.349253
0.349818
0.350378
0.350932
0.351482
0.352027
0.352566
0.353101
0.353632
0.354157
0.354677
0.355193
0.355705
0.356211
0.356714
0.357212
0.357658
0.358057
0.358456
0.358854
0.359251
0.359649
0.360045
0.360441
0.360837
0.361232
0.361627
0.362021
0.362415
0.362808
0.363201
0.363593
0.363985
0.364376
0.364766
0.365157
0.365546
0.365935
0.366324
0.366711
0.367099
0.367486
0.367872
0.368257
0.368642
0.369027
0.369411
0.369794
0.370177
0.370559
0.37094
0.371321
0.371701
0.372081
0.37246
0.372838
0.373216
0.373593
0.373969
0.374345
0.37472
0.375094
0.375468
0.375841
0.376213
0.376585
0.376956
0.377326
0.377695
0.378064
0.378432
0.378799
0.379166
0.379532
0.379897
0.380261
0.380625
0.380988
0.38135
0.381711
0.382072
0.382431
0.38279
0.383148
0.383506
0.383862
0.384218
0.384573
0.384927
0.38528
0.385632
0.385984
0.386335
0.386684
0.387033
0.387381
0.387728
0.388075
0.38842
0.388764
0.389108
0.389451
0.389792
0.390133
0.390473
0.390812
0.39115
0.391487
0.391823
0.392158
0.392492
0.392825
0.393157
0.393489
0.393819
0.394148
0.394476
0.394803
0.395129
0.395454
0.395778
0.396101
0.396423
0.396744
0.397064
0.397382
0.3977
0.398016
0.398332
0.398646
0.398959
0.399271
0.399582
0.399892
0.400201
0.400508
0.400815
0.40112
0.401424
0.401727
0.402028
0.402329
0.402628
0.402926
0.403223
0.403519
0.403813
0.404106
0.404398
0.404689
0.404978
0.405266
0.405553
0.405839
0.406123
0.406406
0.406688
0.406968
0.407247
0.407525
0.407801
0.408077
0.40835
0.408623
0.408894
0.409163
0.409432
0.409698
0.409964
0.410228
0.410491
0.410752
0.411012
0.41127
0.411527
0.411783
0.412037
0.412289
0.41254
0.41279
0.413038
0.413285
0.41353
0.413774
0.414016
0.414256
0.414496
0.414733
0.414969
0.41519
0.415396
0.415604
0.415812
0.41602
0.416229
0.416439
0.416649
0.41686
0.417071
0.417282
0.417494
0.417706
0.417919
0.418132
0.418345
0.418558
0.418771
0.418985
0.419198
0.419412
0.419626
0.419839
0.420053
0.420266
0.420479
0.420692
0.420905
0.421117
0.421329
0.42154
0.421751
0.421962
0.422172
0.422381
0.422589
0.422796
0.423003
0.423209
0.423413
0.423617
0.423819
0.42402
0.42422
0.424419
0.424616
0.424811
0.425005
0.425197
0.425388
0.425576
0.425763
0.425948
0.42613
0.42631
0.426488
0.426663
0.426836
0.427007
0.427174
0.427339
0.427501
0.42766
0.427815
0.427968
0.428117
0.428262
0.428404
0.428542
0.428676
0.428807
0.428933
0.429055
0.429173
0.429286
0.429394
0.429498
0.429597
0.429691
0.42978
0.429863
0.429941
0.430013
0.43008
0.430141
0.430195
0.430244
0.430286
0.430321
0.43035
0.430372
0.430387
0.430395
0.430396
0.430389
0.430374
0.430352
0.430322
0.430283
0.430236
0.430181
0.430117
0.430044
0.429962
0.429871
0.42977
0.42966
0.42954
0.42941
0.42927
0.42912
0.428959
0.428788
0.428606
0.428413
0.428208
0.427993
0.427765
0.427526
0.427276
0.427013
0.426737
0.42645
0.42615
0.425837
0.425511
0.425172
0.42482
0.424454
0.424075
0.423682
0.423275
0.422854
0.422419
0.42197
0.421506
0.421027
0.420534
0.420025
0.419502
0.418964
0.41841
0.417841
0.417256
0.416656
0.41604
0.415408
0.41476
0.414096
0.413416
0.41272
0.412008
0.411279
0.410535
0.409773
0.408995
0.408201
0.407391
0.406563
0.40572
0.404859
0.403982
0.403089
0.402179
0.401253
0.40031
0.399351
0.398375
0.397384
0.396376
0.395352
0.394311
0.393255
0.392183
0.391096
0.389992
0.388874
0.38774
0.38659
0.385427
0.384246
0.382926
0.381464
0.379999
0.378533
0.377067
0.375601
0.374136
0.372672
0.371211
0.369751
0.368295
0.366843
0.365394
0.36395
0.362511
0.361077
0.35965
0.358228
0.356813
0.355406
0.354006
0.352614
0.35123
0.349855
0.348488
0.347131
0.345784
0.344446
0.343119
0.341802
0.340497
0.339202
0.337919
0.336648
0.335388
0.334141
0.332907
0.331686
0.330477
0.329283
0.328102
0.326935
0.325782
0.324644
0.32352
0.322412
0.321319
0.320241
0.31918
0.318135
0.317106
0.316093
0.315098
0.31412
0.313159
0.312216
0.311291
0.310384
0.309495
0.308626
0.307775
0.306944
0.306132
0.30534
0.304568
0.303816
0.303085
0.302374
0.301685
0.301017
0.30037
0.299745
0.299141
0.29856
0.298002
0.297465
0.296952
0.296461
0.295994
0.295549
0.295129
0.294732
0.294358
0.294009
0.293684
0.293383
0.293106
0.292854
0.292626
0.292423
0.292245
0.292092
0.29196
0.291867
0.291741
)
;
    }
    bottomWall
    {
        type            calculated;
        value           nonuniform List<scalar> 
449
(
4.58186
3.01385
2.53622
2.321
2.18432
2.08431
2.00231
1.93341
1.87497
1.82441
1.77985
1.74008
1.70427
1.67178
1.64208
1.61476
1.58951
1.56605
1.54417
1.52368
1.50443
1.4863
1.46916
1.45292
1.43751
1.42284
1.40886
1.3955
1.38273
1.37048
1.35874
1.34745
1.33659
1.32612
1.31603
1.30629
1.29688
1.28777
1.27896
1.27042
1.26213
1.25409
1.24628
1.23869
1.23131
1.22413
1.21713
1.21031
1.20367
1.19718
1.19086
1.18468
1.17865
1.17275
1.16698
1.16134
1.15582
1.15041
1.14512
1.13994
1.13485
1.12987
1.12498
1.12019
1.11549
1.11087
1.10633
1.10188
1.0975
1.0932
1.08897
1.08482
1.08073
1.07671
1.07275
1.06885
1.06502
1.06124
1.05753
1.05386
1.05025
1.0467
1.04319
1.03974
1.03633
1.03297
1.02966
1.02639
1.02317
1.01999
1.01685
1.01375
1.01069
1.00766
1.00468
1.00173
0.998822
0.995946
0.993104
0.990295
0.98752
0.984776
0.982064
0.979382
0.976731
0.974108
0.971515
0.96895
0.966412
0.963902
0.961417
0.958959
0.956526
0.954119
0.951735
0.949376
0.94704
0.944727
0.942437
0.940169
0.937922
0.935697
0.933494
0.93131
0.929147
0.927004
0.924881
0.922776
0.920691
0.918624
0.916575
0.914544
0.912531
0.910535
0.908556
0.906594
0.904648
0.902718
0.900805
0.898907
0.897025
0.895157
0.893305
0.891467
0.889644
0.887836
0.886041
0.88426
0.882493
0.880739
0.878998
0.877271
0.875556
0.873854
0.872165
0.870487
0.868822
0.867169
0.865528
0.863898
0.86228
0.860673
0.859077
0.857492
0.855918
0.854355
0.852802
0.85126
0.849728
0.848206
0.846694
0.845192
0.8437
0.842303
0.840987
0.839666
0.838342
0.837015
0.835684
0.834349
0.833011
0.831669
0.830323
0.828974
0.827622
0.826265
0.824906
0.823543
0.822176
0.820806
0.819433
0.818057
0.816677
0.815294
0.813908
0.812519
0.811127
0.809732
0.808334
0.806933
0.805529
0.804122
0.802712
0.8013
0.799885
0.798467
0.797046
0.795623
0.794198
0.79277
0.791339
0.789906
0.788471
0.787034
0.785594
0.784152
0.782708
0.781262
0.779813
0.778363
0.776911
0.775457
0.774001
0.772543
0.771084
0.769623
0.76816
0.766696
0.76523
0.763763
0.762294
0.760824
0.759353
0.75788
0.756407
0.754932
0.753457
0.75198
0.750502
0.749024
0.747545
0.746065
0.744585
0.743104
0.741623
0.740141
0.73866
0.737177
0.735695
0.734213
0.73273
0.731248
0.729766
0.728284
0.726803
0.725322
0.723842
0.722362
0.720883
0.719405
0.717927
0.716451
0.714976
0.713502
0.712029
0.710558
0.709088
0.70762
0.706153
0.704688
0.703225
0.701764
0.700305
0.698848
0.697393
0.695941
0.694491
0.693044
0.691599
0.690157
0.688718
0.687282
0.685849
0.684419
0.682992
0.681568
0.680148
0.678731
0.677318
0.675908
0.674502
0.673099
0.671701
0.670307
0.668916
0.66753
0.666147
0.664769
0.663396
0.662026
0.660661
0.659301
0.657945
0.656593
0.655247
0.653905
0.652568
0.651235
0.649908
0.648585
0.647268
0.645955
0.644648
0.643346
0.642049
0.640757
0.63947
0.638189
0.636913
0.635643
0.634378
0.633118
0.631864
0.630615
0.629372
0.628135
0.626903
0.625677
0.624456
0.623242
0.622033
0.620829
0.619632
0.618441
0.617255
0.616076
0.614902
0.613734
0.612573
0.611417
0.610267
0.609124
0.607986
0.606855
0.60573
0.604611
0.603498
0.602391
0.60129
0.600195
0.599107
0.598024
0.596945
0.595875
0.594697
0.593416
0.592152
0.590911
0.589693
0.5885
0.587331
0.586185
0.585062
0.583961
0.582882
0.581824
0.580787
0.57977
0.578773
0.577795
0.576835
0.575894
0.574971
0.574066
0.573177
0.572306
0.57145
0.570611
0.569787
0.568979
0.568185
0.567406
0.566642
0.565891
0.565154
0.564431
0.56372
0.563023
0.562338
0.561665
0.561005
0.560356
0.559719
0.559093
0.558478
0.557874
0.557281
0.556698
0.556126
0.555564
0.555011
0.554468
0.553935
0.553411
0.552896
0.55239
0.551893
0.551405
0.550924
0.550453
0.549989
0.549533
0.549085
0.548645
0.548212
0.547786
0.547368
0.546957
0.546552
0.546155
0.545764
0.54538
0.545002
0.544631
0.544265
0.543906
0.543552
0.543205
0.542863
0.542526
0.542195
0.541869
0.541549
0.541233
0.540923
0.540617
0.540315
0.540019
0.539726
0.539437
0.539153
0.538871
0.538592
0.538314
0.538041
0.537786
0.537311
0.537638
0.536838
)
;
    }
    symmetry
    {
        type            symmetryPlane;
    }
    frontAndBack
    {
        type            empty;
    }
}


// ************************************************************************* //
