/*--------------------------------*- C++ -*----------------------------------*\
| =========                 |                                                 |
| \\      /  F ield         | OpenFOAM: The Open Source CFD Toolbox           |
|  \\    /   O peration     | Version:  v2012                                 |
|   \\  /    A nd           | Website:  www.openfoam.com                      |
|    \\/     M anipulation  |                                                 |
\*---------------------------------------------------------------------------*/
FoamFile
{
    version     2.0;
    format      ascii;
    class       volVectorField;
    location    "37.5";
    object      wallShearStress;
}
// * * * * * * * * * * * * * * * * * * * * * * * * * * * * * * * * * * * * * //

dimensions      [0 2 -2 0 0 0 0];


internalField   uniform (0 0 0);

boundaryField
{
    inlet
    {
        type            calculated;
        value           uniform (0 0 0);
    }
    outlet
    {
        type            calculated;
        value           uniform (0 0 0);
    }
    topWall
    {
        type            calculated;
        value           nonuniform List<vector> 
545
(
(1.48684e-08 -1.0466e-08 0)
(1.48615e-08 -2.92801e-08 0)
(1.48477e-08 -4.88423e-08 0)
(1.48273e-08 -6.78308e-08 0)
(1.48011e-08 -8.59983e-08 0)
(1.47699e-08 -1.03576e-07 0)
(1.47339e-08 -1.20713e-07 0)
(1.46937e-08 -1.37398e-07 0)
(1.46495e-08 -1.53595e-07 0)
(1.46018e-08 -1.69301e-07 0)
(1.45509e-08 -1.84537e-07 0)
(1.44972e-08 -1.99321e-07 0)
(1.44409e-08 -2.13663e-07 0)
(1.43825e-08 -2.27571e-07 0)
(1.4322e-08 -2.41056e-07 0)
(1.42599e-08 -2.54129e-07 0)
(1.41962e-08 -2.66801e-07 0)
(1.41314e-08 -2.79084e-07 0)
(1.40655e-08 -2.90987e-07 0)
(1.39987e-08 -3.02522e-07 0)
(1.39312e-08 -3.13699e-07 0)
(1.38633e-08 -3.24529e-07 0)
(1.37949e-08 -3.35021e-07 0)
(1.37263e-08 -3.45186e-07 0)
(1.36577e-08 -3.55034e-07 0)
(1.3589e-08 -3.64574e-07 0)
(1.35205e-08 -3.73815e-07 0)
(1.34522e-08 -3.82767e-07 0)
(1.33842e-08 -3.9144e-07 0)
(1.33166e-08 -3.99841e-07 0)
(1.32494e-08 -4.07979e-07 0)
(1.31828e-08 -4.15863e-07 0)
(1.31168e-08 -4.235e-07 0)
(1.30514e-08 -4.30899e-07 0)
(1.29868e-08 -4.38066e-07 0)
(1.29229e-08 -4.45011e-07 0)
(1.28597e-08 -4.51739e-07 0)
(1.27974e-08 -4.58258e-07 0)
(1.2736e-08 -4.64574e-07 0)
(1.26754e-08 -4.70695e-07 0)
(1.26157e-08 -4.76625e-07 0)
(1.25569e-08 -4.82373e-07 0)
(1.24991e-08 -4.87943e-07 0)
(1.24422e-08 -4.93341e-07 0)
(1.23863e-08 -4.98573e-07 0)
(1.23313e-08 -5.03644e-07 0)
(1.22773e-08 -5.0856e-07 0)
(1.22243e-08 -5.13326e-07 0)
(1.21722e-08 -5.17945e-07 0)
(1.21211e-08 -5.22425e-07 0)
(1.2071e-08 -5.26767e-07 0)
(1.20219e-08 -5.30978e-07 0)
(1.19737e-08 -5.35062e-07 0)
(1.19265e-08 -5.39021e-07 0)
(1.18803e-08 -5.42862e-07 0)
(1.1835e-08 -5.46587e-07 0)
(1.17906e-08 -5.50199e-07 0)
(1.17472e-08 -5.53704e-07 0)
(1.17047e-08 -5.57103e-07 0)
(1.16631e-08 -5.60402e-07 0)
(1.16224e-08 -5.63601e-07 0)
(1.15825e-08 -5.66706e-07 0)
(1.15436e-08 -5.69719e-07 0)
(1.15055e-08 -5.72642e-07 0)
(1.14683e-08 -5.75479e-07 0)
(1.14319e-08 -5.78232e-07 0)
(1.13963e-08 -5.80905e-07 0)
(1.13615e-08 -5.83498e-07 0)
(1.13275e-08 -5.86016e-07 0)
(1.12944e-08 -5.8846e-07 0)
(1.12619e-08 -5.90834e-07 0)
(1.12304e-08 -5.93134e-07 0)
(1.11998e-08 -5.95345e-07 0)
(1.11698e-08 -5.97488e-07 0)
(1.114e-08 -5.99605e-07 0)
(1.11104e-08 -6.0171e-07 0)
(1.10808e-08 -6.03802e-07 0)
(1.10513e-08 -6.0588e-07 0)
(1.10219e-08 -6.07942e-07 0)
(1.09925e-08 -6.09988e-07 0)
(1.09632e-08 -6.1202e-07 0)
(1.09339e-08 -6.14037e-07 0)
(1.09047e-08 -6.1604e-07 0)
(1.08755e-08 -6.18028e-07 0)
(1.08464e-08 -6.20002e-07 0)
(1.08174e-08 -6.21962e-07 0)
(1.07884e-08 -6.23907e-07 0)
(1.07596e-08 -6.25838e-07 0)
(1.07307e-08 -6.27756e-07 0)
(1.0702e-08 -6.29659e-07 0)
(1.06733e-08 -6.31549e-07 0)
(1.06446e-08 -6.33425e-07 0)
(1.06161e-08 -6.35287e-07 0)
(1.05876e-08 -6.37135e-07 0)
(1.05589e-08 -6.38974e-07 0)
(1.05317e-08 -6.4078e-07 0)
(1.05066e-08 -6.42432e-07 0)
(1.04823e-08 -6.43928e-07 0)
(1.04588e-08 -6.45382e-07 0)
(1.04355e-08 -6.46841e-07 0)
(1.04122e-08 -6.48313e-07 0)
(1.03887e-08 -6.49787e-07 0)
(1.03652e-08 -6.51258e-07 0)
(1.03416e-08 -6.52728e-07 0)
(1.03179e-08 -6.54199e-07 0)
(1.02941e-08 -6.5567e-07 0)
(1.02702e-08 -6.57141e-07 0)
(1.02462e-08 -6.58612e-07 0)
(1.02221e-08 -6.60083e-07 0)
(1.0198e-08 -6.61554e-07 0)
(1.01737e-08 -6.63024e-07 0)
(1.01493e-08 -6.64495e-07 0)
(1.01249e-08 -6.65966e-07 0)
(1.01003e-08 -6.67437e-07 0)
(1.00757e-08 -6.68908e-07 0)
(1.00509e-08 -6.70378e-07 0)
(1.00261e-08 -6.71848e-07 0)
(1.00012e-08 -6.73318e-07 0)
(9.97616e-09 -6.74788e-07 0)
(9.95104e-09 -6.76258e-07 0)
(9.92583e-09 -6.77727e-07 0)
(9.90053e-09 -6.79197e-07 0)
(9.87513e-09 -6.80665e-07 0)
(9.84964e-09 -6.82134e-07 0)
(9.82405e-09 -6.83602e-07 0)
(9.79837e-09 -6.8507e-07 0)
(9.77259e-09 -6.86537e-07 0)
(9.74672e-09 -6.88004e-07 0)
(9.72075e-09 -6.89471e-07 0)
(9.69469e-09 -6.90937e-07 0)
(9.66854e-09 -6.92403e-07 0)
(9.64228e-09 -6.93868e-07 0)
(9.61594e-09 -6.95332e-07 0)
(9.5895e-09 -6.96796e-07 0)
(9.56296e-09 -6.98259e-07 0)
(9.53633e-09 -6.99722e-07 0)
(9.50961e-09 -7.01184e-07 0)
(9.48278e-09 -7.02646e-07 0)
(9.45587e-09 -7.04106e-07 0)
(9.42886e-09 -7.05566e-07 0)
(9.40175e-09 -7.07026e-07 0)
(9.37455e-09 -7.08484e-07 0)
(9.34726e-09 -7.09942e-07 0)
(9.31987e-09 -7.11399e-07 0)
(9.29238e-09 -7.12855e-07 0)
(9.2648e-09 -7.1431e-07 0)
(9.23713e-09 -7.15764e-07 0)
(9.20936e-09 -7.17217e-07 0)
(9.1815e-09 -7.18669e-07 0)
(9.15354e-09 -7.20121e-07 0)
(9.12549e-09 -7.21571e-07 0)
(9.09734e-09 -7.2302e-07 0)
(9.0691e-09 -7.24468e-07 0)
(9.04076e-09 -7.25915e-07 0)
(9.01233e-09 -7.27361e-07 0)
(8.98381e-09 -7.28806e-07 0)
(8.95519e-09 -7.30249e-07 0)
(8.92648e-09 -7.31692e-07 0)
(8.89767e-09 -7.33133e-07 0)
(8.86877e-09 -7.34573e-07 0)
(8.83978e-09 -7.36011e-07 0)
(8.81069e-09 -7.37448e-07 0)
(8.78151e-09 -7.38884e-07 0)
(8.75224e-09 -7.40318e-07 0)
(8.72287e-09 -7.41751e-07 0)
(8.69341e-09 -7.43183e-07 0)
(8.66386e-09 -7.44613e-07 0)
(8.63421e-09 -7.46041e-07 0)
(8.60448e-09 -7.47468e-07 0)
(8.57465e-09 -7.48894e-07 0)
(8.54472e-09 -7.50317e-07 0)
(8.51471e-09 -7.5174e-07 0)
(8.4846e-09 -7.5316e-07 0)
(8.45441e-09 -7.54579e-07 0)
(8.42412e-09 -7.55996e-07 0)
(8.39374e-09 -7.57411e-07 0)
(8.36326e-09 -7.58824e-07 0)
(8.3327e-09 -7.60236e-07 0)
(8.30205e-09 -7.61646e-07 0)
(8.27131e-09 -7.63054e-07 0)
(8.24047e-09 -7.6446e-07 0)
(8.20955e-09 -7.65864e-07 0)
(8.17853e-09 -7.67266e-07 0)
(8.14743e-09 -7.68666e-07 0)
(8.11624e-09 -7.70064e-07 0)
(8.08496e-09 -7.71459e-07 0)
(8.05359e-09 -7.72853e-07 0)
(8.02213e-09 -7.74245e-07 0)
(7.99058e-09 -7.75634e-07 0)
(7.95895e-09 -7.77021e-07 0)
(7.92722e-09 -7.78406e-07 0)
(7.89541e-09 -7.79789e-07 0)
(7.86352e-09 -7.81169e-07 0)
(7.83153e-09 -7.82547e-07 0)
(7.79946e-09 -7.83923e-07 0)
(7.76731e-09 -7.85296e-07 0)
(7.73507e-09 -7.86666e-07 0)
(7.70274e-09 -7.88035e-07 0)
(7.67033e-09 -7.894e-07 0)
(7.63783e-09 -7.90763e-07 0)
(7.60525e-09 -7.92124e-07 0)
(7.57258e-09 -7.93482e-07 0)
(7.53983e-09 -7.94837e-07 0)
(7.507e-09 -7.9619e-07 0)
(7.47409e-09 -7.97539e-07 0)
(7.44109e-09 -7.98886e-07 0)
(7.40801e-09 -8.00231e-07 0)
(7.37485e-09 -8.01572e-07 0)
(7.34161e-09 -8.0291e-07 0)
(7.30829e-09 -8.04246e-07 0)
(7.27488e-09 -8.05579e-07 0)
(7.2414e-09 -8.06908e-07 0)
(7.20784e-09 -8.08235e-07 0)
(7.1742e-09 -8.09558e-07 0)
(7.14048e-09 -8.10879e-07 0)
(7.10668e-09 -8.12196e-07 0)
(7.07281e-09 -8.1351e-07 0)
(7.03885e-09 -8.14821e-07 0)
(7.00482e-09 -8.16129e-07 0)
(6.97072e-09 -8.17433e-07 0)
(6.93654e-09 -8.18734e-07 0)
(6.90228e-09 -8.20032e-07 0)
(6.86795e-09 -8.21327e-07 0)
(6.83355e-09 -8.22617e-07 0)
(6.79907e-09 -8.23905e-07 0)
(6.76452e-09 -8.25189e-07 0)
(6.7299e-09 -8.26469e-07 0)
(6.6952e-09 -8.27746e-07 0)
(6.66044e-09 -8.29019e-07 0)
(6.6256e-09 -8.30289e-07 0)
(6.59069e-09 -8.31555e-07 0)
(6.55572e-09 -8.32817e-07 0)
(6.52067e-09 -8.34076e-07 0)
(6.48556e-09 -8.3533e-07 0)
(6.45038e-09 -8.36581e-07 0)
(6.41513e-09 -8.37828e-07 0)
(6.37982e-09 -8.39071e-07 0)
(6.34444e-09 -8.4031e-07 0)
(6.30899e-09 -8.41545e-07 0)
(6.27349e-09 -8.42776e-07 0)
(6.23791e-09 -8.44003e-07 0)
(6.20228e-09 -8.45226e-07 0)
(6.16658e-09 -8.46444e-07 0)
(6.13082e-09 -8.47659e-07 0)
(6.095e-09 -8.48869e-07 0)
(6.05912e-09 -8.50075e-07 0)
(6.02318e-09 -8.51277e-07 0)
(5.98718e-09 -8.52474e-07 0)
(5.95112e-09 -8.53667e-07 0)
(5.91501e-09 -8.54856e-07 0)
(5.87884e-09 -8.5604e-07 0)
(5.84261e-09 -8.57219e-07 0)
(5.80633e-09 -8.58394e-07 0)
(5.77e-09 -8.59565e-07 0)
(5.73361e-09 -8.60731e-07 0)
(5.69717e-09 -8.61892e-07 0)
(5.66067e-09 -8.63048e-07 0)
(5.62413e-09 -8.642e-07 0)
(5.58754e-09 -8.65347e-07 0)
(5.55089e-09 -8.66489e-07 0)
(5.5142e-09 -8.67627e-07 0)
(5.47746e-09 -8.68759e-07 0)
(5.44067e-09 -8.69887e-07 0)
(5.40384e-09 -8.71009e-07 0)
(5.36697e-09 -8.72127e-07 0)
(5.33003e-09 -8.73239e-07 0)
(5.29312e-09 -8.74346e-07 0)
(5.2559e-09 -8.7545e-07 0)
(5.21973e-09 -8.76541e-07 0)
(5.18508e-09 -8.77576e-07 0)
(5.15098e-09 -8.78556e-07 0)
(5.1173e-09 -8.79525e-07 0)
(5.08348e-09 -8.80499e-07 0)
(5.04937e-09 -8.81483e-07 0)
(5.01494e-09 -8.82471e-07 0)
(4.98019e-09 -8.83462e-07 0)
(4.9451e-09 -8.84456e-07 0)
(4.90969e-09 -8.85453e-07 0)
(4.87394e-09 -8.86455e-07 0)
(4.83785e-09 -8.8746e-07 0)
(4.80143e-09 -8.88468e-07 0)
(4.76466e-09 -8.8948e-07 0)
(4.72756e-09 -8.90494e-07 0)
(4.69011e-09 -8.91512e-07 0)
(4.65231e-09 -8.92532e-07 0)
(4.61417e-09 -8.93555e-07 0)
(4.57568e-09 -8.94581e-07 0)
(4.53685e-09 -8.95609e-07 0)
(4.49766e-09 -8.9664e-07 0)
(4.45812e-09 -8.97672e-07 0)
(4.41823e-09 -8.98706e-07 0)
(4.37798e-09 -8.99743e-07 0)
(4.33738e-09 -9.00781e-07 0)
(4.29642e-09 -9.0182e-07 0)
(4.2551e-09 -9.0286e-07 0)
(4.21343e-09 -9.03902e-07 0)
(4.17139e-09 -9.04945e-07 0)
(4.129e-09 -9.05988e-07 0)
(4.08624e-09 -9.07032e-07 0)
(4.04313e-09 -9.08076e-07 0)
(3.99965e-09 -9.0912e-07 0)
(3.95581e-09 -9.10164e-07 0)
(3.91161e-09 -9.11208e-07 0)
(3.86705e-09 -9.12251e-07 0)
(3.82212e-09 -9.13293e-07 0)
(3.77683e-09 -9.14334e-07 0)
(3.73118e-09 -9.15374e-07 0)
(3.68517e-09 -9.16413e-07 0)
(3.63879e-09 -9.1745e-07 0)
(3.59205e-09 -9.18484e-07 0)
(3.54496e-09 -9.19516e-07 0)
(3.4975e-09 -9.20546e-07 0)
(3.44969e-09 -9.21573e-07 0)
(3.40152e-09 -9.22596e-07 0)
(3.35299e-09 -9.23616e-07 0)
(3.30411e-09 -9.24632e-07 0)
(3.25487e-09 -9.25645e-07 0)
(3.20529e-09 -9.26652e-07 0)
(3.15535e-09 -9.27655e-07 0)
(3.10507e-09 -9.28653e-07 0)
(3.05444e-09 -9.29645e-07 0)
(3.00347e-09 -9.30632e-07 0)
(2.95216e-09 -9.31612e-07 0)
(2.90051e-09 -9.32586e-07 0)
(2.84852e-09 -9.33553e-07 0)
(2.79621e-09 -9.34513e-07 0)
(2.74357e-09 -9.35466e-07 0)
(2.6906e-09 -9.3641e-07 0)
(2.63732e-09 -9.37346e-07 0)
(2.58372e-09 -9.38272e-07 0)
(2.5298e-09 -9.3919e-07 0)
(2.47558e-09 -9.40098e-07 0)
(2.42106e-09 -9.40996e-07 0)
(2.36624e-09 -9.41883e-07 0)
(2.31113e-09 -9.4276e-07 0)
(2.25573e-09 -9.43625e-07 0)
(2.20005e-09 -9.44478e-07 0)
(2.1441e-09 -9.45318e-07 0)
(2.08788e-09 -9.46146e-07 0)
(2.03139e-09 -9.46961e-07 0)
(1.97465e-09 -9.47762e-07 0)
(1.91767e-09 -9.48548e-07 0)
(1.86044e-09 -9.49319e-07 0)
(1.80298e-09 -9.50076e-07 0)
(1.7453e-09 -9.50816e-07 0)
(1.6874e-09 -9.5154e-07 0)
(1.62929e-09 -9.52247e-07 0)
(1.57099e-09 -9.52937e-07 0)
(1.51249e-09 -9.53608e-07 0)
(1.45382e-09 -9.54261e-07 0)
(1.39498e-09 -9.54895e-07 0)
(1.33597e-09 -9.5551e-07 0)
(1.27682e-09 -9.56104e-07 0)
(1.21753e-09 -9.56677e-07 0)
(1.15812e-09 -9.57228e-07 0)
(1.09858e-09 -9.57758e-07 0)
(1.03895e-09 -9.58265e-07 0)
(9.79221e-10 -9.58749e-07 0)
(9.19416e-10 -9.59209e-07 0)
(8.59545e-10 -9.59645e-07 0)
(7.99621e-10 -9.60056e-07 0)
(7.39659e-10 -9.60441e-07 0)
(6.79672e-10 -9.60799e-07 0)
(6.19674e-10 -9.61131e-07 0)
(5.5968e-10 -9.61436e-07 0)
(4.99705e-10 -9.61712e-07 0)
(4.39764e-10 -9.61959e-07 0)
(3.79873e-10 -9.62177e-07 0)
(3.20047e-10 -9.62365e-07 0)
(2.60303e-10 -9.62522e-07 0)
(2.00658e-10 -9.62648e-07 0)
(1.41128e-10 -9.62741e-07 0)
(8.17301e-11 -9.62803e-07 0)
(2.24827e-11 -9.6283e-07 0)
(-3.65968e-11 -9.62824e-07 0)
(-9.54903e-11 -9.62784e-07 0)
(-1.54179e-10 -9.62708e-07 0)
(-2.12646e-10 -9.62597e-07 0)
(-2.7087e-10 -9.62449e-07 0)
(-3.28833e-10 -9.62264e-07 0)
(-3.86515e-10 -9.62041e-07 0)
(-4.43897e-10 -9.6178e-07 0)
(-5.00959e-10 -9.6148e-07 0)
(-5.57681e-10 -9.61141e-07 0)
(-6.14042e-10 -9.60761e-07 0)
(-6.70022e-10 -9.60341e-07 0)
(-7.256e-10 -9.5988e-07 0)
(-7.80756e-10 -9.59376e-07 0)
(-8.35468e-10 -9.5883e-07 0)
(-8.89716e-10 -9.58242e-07 0)
(-9.43478e-10 -9.5761e-07 0)
(-9.96732e-10 -9.56933e-07 0)
(-1.04946e-09 -9.56212e-07 0)
(-1.10163e-09 -9.55447e-07 0)
(-1.15324e-09 -9.54635e-07 0)
(-1.20425e-09 -9.53778e-07 0)
(-1.25465e-09 -9.52874e-07 0)
(-1.30441e-09 -9.51923e-07 0)
(-1.35352e-09 -9.50925e-07 0)
(-1.40195e-09 -9.49879e-07 0)
(-1.44968e-09 -9.48784e-07 0)
(-1.49669e-09 -9.47642e-07 0)
(-1.54295e-09 -9.4645e-07 0)
(-1.58846e-09 -9.45209e-07 0)
(-1.63318e-09 -9.43919e-07 0)
(-1.67711e-09 -9.42578e-07 0)
(-1.7202e-09 -9.41188e-07 0)
(-1.76246e-09 -9.39747e-07 0)
(-1.80386e-09 -9.38256e-07 0)
(-1.84437e-09 -9.36714e-07 0)
(-1.88399e-09 -9.35121e-07 0)
(-1.92269e-09 -9.33477e-07 0)
(-1.96045e-09 -9.31782e-07 0)
(-1.99726e-09 -9.30036e-07 0)
(-2.03311e-09 -9.28238e-07 0)
(-2.06796e-09 -9.26389e-07 0)
(-2.10181e-09 -9.24488e-07 0)
(-2.13465e-09 -9.22537e-07 0)
(-2.16645e-09 -9.20534e-07 0)
(-2.19721e-09 -9.1848e-07 0)
(-2.22691e-09 -9.16375e-07 0)
(-2.25554e-09 -9.14219e-07 0)
(-2.28308e-09 -9.12012e-07 0)
(-2.30952e-09 -9.09755e-07 0)
(-2.33486e-09 -9.07447e-07 0)
(-2.35908e-09 -9.0509e-07 0)
(-2.38217e-09 -9.02683e-07 0)
(-2.40413e-09 -9.00227e-07 0)
(-2.42494e-09 -8.97722e-07 0)
(-2.44461e-09 -8.95169e-07 0)
(-2.46311e-09 -8.92568e-07 0)
(-2.48046e-09 -8.89919e-07 0)
(-2.49664e-09 -8.87224e-07 0)
(-2.51165e-09 -8.84482e-07 0)
(-2.52549e-09 -8.81695e-07 0)
(-2.53815e-09 -8.78862e-07 0)
(-2.54964e-09 -8.75985e-07 0)
(-2.55995e-09 -8.73065e-07 0)
(-2.56909e-09 -8.70101e-07 0)
(-2.57706e-09 -8.67096e-07 0)
(-2.58385e-09 -8.64049e-07 0)
(-2.58948e-09 -8.60961e-07 0)
(-2.59394e-09 -8.57834e-07 0)
(-2.59725e-09 -8.54668e-07 0)
(-2.5994e-09 -8.51465e-07 0)
(-2.60041e-09 -8.48224e-07 0)
(-2.60028e-09 -8.44949e-07 0)
(-2.599e-09 -8.41636e-07 0)
(-2.59667e-09 -8.38296e-07 0)
(-2.59297e-09 -8.34883e-07 0)
(-2.58766e-09 -8.31115e-07 0)
(-2.58075e-09 -8.26988e-07 0)
(-2.57218e-09 -8.22788e-07 0)
(-2.56215e-09 -8.18612e-07 0)
(-2.55081e-09 -8.14478e-07 0)
(-2.53824e-09 -8.10367e-07 0)
(-2.52451e-09 -8.06273e-07 0)
(-2.50968e-09 -8.02199e-07 0)
(-2.49382e-09 -7.9815e-07 0)
(-2.47699e-09 -7.94128e-07 0)
(-2.45923e-09 -7.90135e-07 0)
(-2.44062e-09 -7.86171e-07 0)
(-2.4212e-09 -7.82238e-07 0)
(-2.40102e-09 -7.78337e-07 0)
(-2.38013e-09 -7.74469e-07 0)
(-2.35857e-09 -7.70636e-07 0)
(-2.33639e-09 -7.66838e-07 0)
(-2.31363e-09 -7.63076e-07 0)
(-2.29031e-09 -7.59352e-07 0)
(-2.26649e-09 -7.55666e-07 0)
(-2.2422e-09 -7.52019e-07 0)
(-2.21746e-09 -7.48411e-07 0)
(-2.1923e-09 -7.44844e-07 0)
(-2.16676e-09 -7.41318e-07 0)
(-2.14086e-09 -7.37834e-07 0)
(-2.11463e-09 -7.34392e-07 0)
(-2.08809e-09 -7.30992e-07 0)
(-2.06126e-09 -7.27636e-07 0)
(-2.03416e-09 -7.24324e-07 0)
(-2.00681e-09 -7.21055e-07 0)
(-1.97923e-09 -7.17831e-07 0)
(-1.95144e-09 -7.14652e-07 0)
(-1.92344e-09 -7.11518e-07 0)
(-1.89526e-09 -7.08429e-07 0)
(-1.86691e-09 -7.05386e-07 0)
(-1.83839e-09 -7.02389e-07 0)
(-1.80972e-09 -6.99438e-07 0)
(-1.78091e-09 -6.96534e-07 0)
(-1.75197e-09 -6.93677e-07 0)
(-1.72291e-09 -6.90866e-07 0)
(-1.69372e-09 -6.88103e-07 0)
(-1.66443e-09 -6.85387e-07 0)
(-1.63504e-09 -6.82718e-07 0)
(-1.60554e-09 -6.80097e-07 0)
(-1.57596e-09 -6.77524e-07 0)
(-1.54628e-09 -6.74998e-07 0)
(-1.51652e-09 -6.72521e-07 0)
(-1.48667e-09 -6.70092e-07 0)
(-1.45674e-09 -6.67711e-07 0)
(-1.42674e-09 -6.65379e-07 0)
(-1.39666e-09 -6.63096e-07 0)
(-1.36651e-09 -6.60861e-07 0)
(-1.33628e-09 -6.58675e-07 0)
(-1.30598e-09 -6.56538e-07 0)
(-1.27562e-09 -6.5445e-07 0)
(-1.24518e-09 -6.52411e-07 0)
(-1.21467e-09 -6.50421e-07 0)
(-1.1841e-09 -6.48481e-07 0)
(-1.15346e-09 -6.46591e-07 0)
(-1.12275e-09 -6.4475e-07 0)
(-1.09197e-09 -6.42958e-07 0)
(-1.06112e-09 -6.41217e-07 0)
(-1.03021e-09 -6.39525e-07 0)
(-9.99228e-10 -6.37884e-07 0)
(-9.68181e-10 -6.36293e-07 0)
(-9.37067e-10 -6.34752e-07 0)
(-9.05887e-10 -6.33261e-07 0)
(-8.74642e-10 -6.31821e-07 0)
(-8.4333e-10 -6.30431e-07 0)
(-8.11954e-10 -6.29093e-07 0)
(-7.80514e-10 -6.27805e-07 0)
(-7.49011e-10 -6.26567e-07 0)
(-7.17445e-10 -6.25381e-07 0)
(-6.85819e-10 -6.24246e-07 0)
(-6.54132e-10 -6.23163e-07 0)
(-6.22387e-10 -6.2213e-07 0)
(-5.90585e-10 -6.21149e-07 0)
(-5.58729e-10 -6.20219e-07 0)
(-5.26819e-10 -6.19341e-07 0)
(-4.94857e-10 -6.18515e-07 0)
(-4.62847e-10 -6.1774e-07 0)
(-4.30791e-10 -6.17018e-07 0)
(-3.9869e-10 -6.16347e-07 0)
(-3.66547e-10 -6.15728e-07 0)
(-3.34366e-10 -6.1516e-07 0)
(-3.0215e-10 -6.14649e-07 0)
(-2.69899e-10 -6.14173e-07 0)
(-2.37624e-10 -6.13805e-07 0)
(-2.05304e-10 -6.13304e-07 0)
(-1.73025e-10 -6.13464e-07 0)
(-1.4052e-10 -6.11617e-07 0)
(-1.08693e-10 -6.16391e-07 0)
(-7.46532e-11 -5.97799e-07 0)
(-4.83498e-11 -6.46789e-07 0)
(-2.03331e-11 -5.64872e-07 0)
)
;
    }
    bottomWall
    {
        type            calculated;
        value           nonuniform List<vector> 
449
(
(-48.533 -0.964112 0)
(-19.7516 -0.00515542 0)
(-14.3438 -0.00113489 0)
(-12.0339 -0.000545548 0)
(-10.6277 -0.000351545 0)
(-9.63372 -0.000256032 0)
(-8.87554 -0.000198515 0)
(-8.27194 -0.00015984 0)
(-7.77644 -0.000132346 0)
(-7.35974 -0.000111996 0)
(-7.00268 -9.63929e-05 0)
(-6.69221 -8.40841e-05 0)
(-6.41901 -7.41647e-05 0)
(-6.17618 -6.60359e-05 0)
(-5.95845 -5.92779e-05 0)
(-5.76177 -5.35876e-05 0)
(-5.58294 -4.87426e-05 0)
(-5.41941 -4.4577e-05 0)
(-5.2691 -4.0965e-05 0)
(-5.13031 -3.78089e-05 0)
(-5.00165 -3.50322e-05 0)
(-4.88192 -3.2574e-05 0)
(-4.77013 -3.03856e-05 0)
(-4.66545 -2.84274e-05 0)
(-4.56714 -2.66669e-05 0)
(-4.47457 -2.50774e-05 0)
(-4.38722 -2.36364e-05 0)
(-4.30459 -2.23255e-05 0)
(-4.22628 -2.11286e-05 0)
(-4.15192 -2.00326e-05 0)
(-4.08119 -1.90258e-05 0)
(-4.0138 -1.80985e-05 0)
(-3.94949 -1.72422e-05 0)
(-3.88803 -1.64496e-05 0)
(-3.82922 -1.57142e-05 0)
(-3.77287 -1.50305e-05 0)
(-3.71881 -1.43935e-05 0)
(-3.66689 -1.37988e-05 0)
(-3.61697 -1.32428e-05 0)
(-3.56892 -1.27219e-05 0)
(-3.52263 -1.22332e-05 0)
(-3.47799 -1.17739e-05 0)
(-3.43491 -1.13417e-05 0)
(-3.39329 -1.09343e-05 0)
(-3.35306 -1.05499e-05 0)
(-3.31413 -1.01867e-05 0)
(-3.27644 -9.843e-06 0)
(-3.23993 -9.51749e-06 0)
(-3.20452 -9.20881e-06 0)
(-3.17017 -8.9158e-06 0)
(-3.13683 -8.63736e-06 0)
(-3.10444 -8.3725e-06 0)
(-3.07296 -8.12033e-06 0)
(-3.04235 -7.88001e-06 0)
(-3.01257 -7.65079e-06 0)
(-2.98357 -7.43196e-06 0)
(-2.95534 -7.22289e-06 0)
(-2.92782 -7.02297e-06 0)
(-2.901 -6.83167e-06 0)
(-2.87484 -6.64847e-06 0)
(-2.84932 -6.47291e-06 0)
(-2.82441 -6.30456e-06 0)
(-2.80008 -6.143e-06 0)
(-2.77631 -5.98787e-06 0)
(-2.75309 -5.83881e-06 0)
(-2.73039 -5.69551e-06 0)
(-2.70819 -5.55765e-06 0)
(-2.68647 -5.42496e-06 0)
(-2.66521 -5.29717e-06 0)
(-2.64441 -5.17403e-06 0)
(-2.62403 -5.05532e-06 0)
(-2.60408 -4.94081e-06 0)
(-2.58452 -4.83031e-06 0)
(-2.56536 -4.72361e-06 0)
(-2.54657 -4.62055e-06 0)
(-2.52815 -4.52094e-06 0)
(-2.51008 -4.42465e-06 0)
(-2.49235 -4.3315e-06 0)
(-2.47495 -4.24137e-06 0)
(-2.45787 -4.15412e-06 0)
(-2.44109 -4.06963e-06 0)
(-2.42462 -3.98777e-06 0)
(-2.40845 -3.90843e-06 0)
(-2.39255 -3.83151e-06 0)
(-2.37693 -3.75691e-06 0)
(-2.36157 -3.68453e-06 0)
(-2.34647 -3.61428e-06 0)
(-2.33163 -3.54608e-06 0)
(-2.31703 -3.47984e-06 0)
(-2.30266 -3.41548e-06 0)
(-2.28853 -3.35294e-06 0)
(-2.27462 -3.29215e-06 0)
(-2.26094 -3.23303e-06 0)
(-2.24746 -3.17553e-06 0)
(-2.23419 -3.11958e-06 0)
(-2.22112 -3.06512e-06 0)
(-2.20825 -3.01211e-06 0)
(-2.19557 -2.96049e-06 0)
(-2.18308 -2.91021e-06 0)
(-2.17077 -2.86123e-06 0)
(-2.15864 -2.81349e-06 0)
(-2.14668 -2.76695e-06 0)
(-2.13489 -2.72158e-06 0)
(-2.12327 -2.67733e-06 0)
(-2.11181 -2.63417e-06 0)
(-2.1005 -2.59205e-06 0)
(-2.08935 -2.55095e-06 0)
(-2.07835 -2.51084e-06 0)
(-2.06749 -2.47167e-06 0)
(-2.05678 -2.43341e-06 0)
(-2.04621 -2.39605e-06 0)
(-2.03578 -2.35955e-06 0)
(-2.02548 -2.32388e-06 0)
(-2.01531 -2.28903e-06 0)
(-2.00527 -2.25495e-06 0)
(-1.99535 -2.22163e-06 0)
(-1.98556 -2.18905e-06 0)
(-1.97589 -2.15719e-06 0)
(-1.96633 -2.12601e-06 0)
(-1.9569 -2.09551e-06 0)
(-1.94757 -2.06566e-06 0)
(-1.93835 -2.03645e-06 0)
(-1.92925 -2.00785e-06 0)
(-1.92025 -1.97985e-06 0)
(-1.91135 -1.95242e-06 0)
(-1.90256 -1.92557e-06 0)
(-1.89386 -1.89926e-06 0)
(-1.88527 -1.87348e-06 0)
(-1.87677 -1.84823e-06 0)
(-1.86836 -1.82347e-06 0)
(-1.86005 -1.79921e-06 0)
(-1.85183 -1.77543e-06 0)
(-1.84369 -1.75211e-06 0)
(-1.83565 -1.72924e-06 0)
(-1.82769 -1.70681e-06 0)
(-1.81982 -1.68482e-06 0)
(-1.81202 -1.66324e-06 0)
(-1.80431 -1.64206e-06 0)
(-1.79668 -1.62129e-06 0)
(-1.78913 -1.6009e-06 0)
(-1.78166 -1.58089e-06 0)
(-1.77426 -1.56124e-06 0)
(-1.76693 -1.54195e-06 0)
(-1.75968 -1.52302e-06 0)
(-1.7525 -1.50442e-06 0)
(-1.74539 -1.48616e-06 0)
(-1.73835 -1.46822e-06 0)
(-1.73138 -1.45059e-06 0)
(-1.72447 -1.43328e-06 0)
(-1.71764 -1.41627e-06 0)
(-1.71086 -1.39955e-06 0)
(-1.70415 -1.38312e-06 0)
(-1.69751 -1.36697e-06 0)
(-1.69092 -1.3511e-06 0)
(-1.6844 -1.33549e-06 0)
(-1.67793 -1.32015e-06 0)
(-1.67153 -1.30506e-06 0)
(-1.66518 -1.29022e-06 0)
(-1.65889 -1.27563e-06 0)
(-1.65266 -1.26128e-06 0)
(-1.64648 -1.24716e-06 0)
(-1.64036 -1.23327e-06 0)
(-1.63429 -1.2196e-06 0)
(-1.62827 -1.20616e-06 0)
(-1.62231 -1.19293e-06 0)
(-1.6164 -1.17991e-06 0)
(-1.61053 -1.16709e-06 0)
(-1.60472 -1.15448e-06 0)
(-1.59896 -1.14209e-06 0)
(-1.59324 -1.12975e-06 0)
(-1.58757 -1.11806e-06 0)
(-1.58195 -1.10596e-06 0)
(-1.57638 -1.09281e-06 0)
(-1.57117 -1.08263e-06 0)
(-1.56627 -1.0744e-06 0)
(-1.56136 -1.06404e-06 0)
(-1.55645 -1.05335e-06 0)
(-1.55153 -1.04334e-06 0)
(-1.5466 -1.03329e-06 0)
(-1.54167 -1.02337e-06 0)
(-1.53673 -1.01352e-06 0)
(-1.53179 -1.00372e-06 0)
(-1.52685 -9.9399e-07 0)
(-1.52189 -9.84314e-07 0)
(-1.51694 -9.74696e-07 0)
(-1.51197 -9.65133e-07 0)
(-1.50701 -9.55625e-07 0)
(-1.50204 -9.46172e-07 0)
(-1.49706 -9.36775e-07 0)
(-1.49208 -9.27433e-07 0)
(-1.4871 -9.18146e-07 0)
(-1.48211 -9.08915e-07 0)
(-1.47712 -8.99739e-07 0)
(-1.47213 -8.9062e-07 0)
(-1.46713 -8.81557e-07 0)
(-1.46213 -8.7255e-07 0)
(-1.45713 -8.636e-07 0)
(-1.45213 -8.54708e-07 0)
(-1.44712 -8.45872e-07 0)
(-1.44211 -8.37094e-07 0)
(-1.4371 -8.28373e-07 0)
(-1.43209 -8.1971e-07 0)
(-1.42708 -8.11105e-07 0)
(-1.42206 -8.02559e-07 0)
(-1.41705 -7.9407e-07 0)
(-1.41203 -7.8564e-07 0)
(-1.40702 -7.77269e-07 0)
(-1.402 -7.68957e-07 0)
(-1.39698 -7.60704e-07 0)
(-1.39196 -7.52509e-07 0)
(-1.38695 -7.44374e-07 0)
(-1.38193 -7.36298e-07 0)
(-1.37692 -7.28281e-07 0)
(-1.3719 -7.20324e-07 0)
(-1.36689 -7.12426e-07 0)
(-1.36187 -7.04588e-07 0)
(-1.35686 -6.9681e-07 0)
(-1.35185 -6.89091e-07 0)
(-1.34684 -6.81431e-07 0)
(-1.34184 -6.73831e-07 0)
(-1.33683 -6.66291e-07 0)
(-1.33183 -6.58811e-07 0)
(-1.32683 -6.5139e-07 0)
(-1.32183 -6.44029e-07 0)
(-1.31684 -6.36727e-07 0)
(-1.31185 -6.29485e-07 0)
(-1.30686 -6.22303e-07 0)
(-1.30188 -6.1518e-07 0)
(-1.29689 -6.08116e-07 0)
(-1.29192 -6.01112e-07 0)
(-1.28694 -5.94167e-07 0)
(-1.28198 -5.87281e-07 0)
(-1.27701 -5.80454e-07 0)
(-1.27205 -5.73686e-07 0)
(-1.26709 -5.66977e-07 0)
(-1.26214 -5.60327e-07 0)
(-1.2572 -5.53735e-07 0)
(-1.25226 -5.47202e-07 0)
(-1.24732 -5.40727e-07 0)
(-1.24239 -5.3431e-07 0)
(-1.23747 -5.27951e-07 0)
(-1.23255 -5.21649e-07 0)
(-1.22764 -5.15406e-07 0)
(-1.22273 -5.0922e-07 0)
(-1.21783 -5.03091e-07 0)
(-1.21294 -4.97019e-07 0)
(-1.20805 -4.91005e-07 0)
(-1.20317 -4.85047e-07 0)
(-1.1983 -4.79145e-07 0)
(-1.19343 -4.733e-07 0)
(-1.18857 -4.6751e-07 0)
(-1.18372 -4.61777e-07 0)
(-1.17888 -4.56099e-07 0)
(-1.17404 -4.50476e-07 0)
(-1.16921 -4.44908e-07 0)
(-1.16439 -4.39396e-07 0)
(-1.15958 -4.33938e-07 0)
(-1.15477 -4.28534e-07 0)
(-1.14998 -4.23184e-07 0)
(-1.14519 -4.17888e-07 0)
(-1.14041 -4.12645e-07 0)
(-1.13564 -4.07456e-07 0)
(-1.13088 -4.0232e-07 0)
(-1.12612 -3.97236e-07 0)
(-1.12138 -3.92205e-07 0)
(-1.11665 -3.87226e-07 0)
(-1.11192 -3.82299e-07 0)
(-1.10721 -3.77423e-07 0)
(-1.1025 -3.72598e-07 0)
(-1.0978 -3.67825e-07 0)
(-1.09312 -3.63102e-07 0)
(-1.08844 -3.58429e-07 0)
(-1.08378 -3.53806e-07 0)
(-1.07912 -3.49233e-07 0)
(-1.07447 -3.44709e-07 0)
(-1.06984 -3.40234e-07 0)
(-1.06521 -3.35807e-07 0)
(-1.0606 -3.3143e-07 0)
(-1.056 -3.271e-07 0)
(-1.0514 -3.22817e-07 0)
(-1.04682 -3.18582e-07 0)
(-1.04225 -3.14395e-07 0)
(-1.03769 -3.10253e-07 0)
(-1.03314 -3.06158e-07 0)
(-1.02861 -3.0211e-07 0)
(-1.02408 -2.98106e-07 0)
(-1.01957 -2.94148e-07 0)
(-1.01506 -2.90235e-07 0)
(-1.01057 -2.86367e-07 0)
(-1.00609 -2.82543e-07 0)
(-1.00163 -2.78763e-07 0)
(-0.997172 -2.75026e-07 0)
(-0.992729 -2.71333e-07 0)
(-0.988297 -2.67683e-07 0)
(-0.983878 -2.64075e-07 0)
(-0.979471 -2.60509e-07 0)
(-0.975077 -2.56985e-07 0)
(-0.970695 -2.53503e-07 0)
(-0.966325 -2.50061e-07 0)
(-0.961968 -2.46661e-07 0)
(-0.957623 -2.43301e-07 0)
(-0.953291 -2.39981e-07 0)
(-0.948972 -2.36701e-07 0)
(-0.944665 -2.3346e-07 0)
(-0.940372 -2.30258e-07 0)
(-0.936091 -2.27095e-07 0)
(-0.931823 -2.2397e-07 0)
(-0.927569 -2.20883e-07 0)
(-0.923327 -2.17834e-07 0)
(-0.919099 -2.14822e-07 0)
(-0.914883 -2.11847e-07 0)
(-0.910681 -2.08908e-07 0)
(-0.906493 -2.06006e-07 0)
(-0.902317 -2.0314e-07 0)
(-0.898155 -2.00309e-07 0)
(-0.894007 -1.97514e-07 0)
(-0.889871 -1.94753e-07 0)
(-0.88575 -1.92027e-07 0)
(-0.881642 -1.89335e-07 0)
(-0.877547 -1.86677e-07 0)
(-0.873467 -1.84053e-07 0)
(-0.8694 -1.81461e-07 0)
(-0.865346 -1.78903e-07 0)
(-0.861307 -1.76377e-07 0)
(-0.857281 -1.73883e-07 0)
(-0.853269 -1.71421e-07 0)
(-0.849271 -1.68991e-07 0)
(-0.845287 -1.66592e-07 0)
(-0.841316 -1.64224e-07 0)
(-0.83736 -1.61886e-07 0)
(-0.833417 -1.59578e-07 0)
(-0.829489 -1.57301e-07 0)
(-0.825575 -1.55053e-07 0)
(-0.821674 -1.52834e-07 0)
(-0.817788 -1.50644e-07 0)
(-0.813916 -1.48483e-07 0)
(-0.810058 -1.46351e-07 0)
(-0.806214 -1.44246e-07 0)
(-0.802384 -1.42169e-07 0)
(-0.798568 -1.40119e-07 0)
(-0.794767 -1.38097e-07 0)
(-0.790979 -1.36101e-07 0)
(-0.787206 -1.34132e-07 0)
(-0.783447 -1.32189e-07 0)
(-0.779702 -1.30271e-07 0)
(-0.775972 -1.28379e-07 0)
(-0.772256 -1.26513e-07 0)
(-0.768554 -1.24671e-07 0)
(-0.764866 -1.22852e-07 0)
(-0.761193 -1.21061e-07 0)
(-0.757534 -1.19287e-07 0)
(-0.753889 -1.17502e-07 0)
(-0.750261 -1.15866e-07 0)
(-0.74664 -1.1424e-07 0)
(-0.742631 -1.12257e-07 0)
(-0.738283 -1.10151e-07 0)
(-0.734014 -1.08255e-07 0)
(-0.729814 -1.0646e-07 0)
(-0.725686 -1.04652e-07 0)
(-0.721627 -1.0288e-07 0)
(-0.717637 -1.01153e-07 0)
(-0.713714 -9.94719e-08 0)
(-0.709856 -9.78361e-08 0)
(-0.706061 -9.62439e-08 0)
(-0.702327 -9.46939e-08 0)
(-0.698653 -9.31849e-08 0)
(-0.695037 -9.17153e-08 0)
(-0.691478 -9.02838e-08 0)
(-0.687974 -8.88891e-08 0)
(-0.684524 -8.75298e-08 0)
(-0.681127 -8.62046e-08 0)
(-0.677781 -8.49125e-08 0)
(-0.674484 -8.36522e-08 0)
(-0.671237 -8.24227e-08 0)
(-0.668036 -8.12229e-08 0)
(-0.664883 -8.00519e-08 0)
(-0.661774 -7.89087e-08 0)
(-0.65871 -7.77923e-08 0)
(-0.655689 -7.6702e-08 0)
(-0.65271 -7.56368e-08 0)
(-0.649772 -7.4596e-08 0)
(-0.646874 -7.35789e-08 0)
(-0.644016 -7.25845e-08 0)
(-0.641196 -7.16123e-08 0)
(-0.638414 -7.06616e-08 0)
(-0.635668 -6.97317e-08 0)
(-0.632959 -6.8822e-08 0)
(-0.630284 -6.79319e-08 0)
(-0.627645 -6.70608e-08 0)
(-0.625038 -6.62081e-08 0)
(-0.622465 -6.53734e-08 0)
(-0.619924 -6.4556e-08 0)
(-0.617415 -6.37556e-08 0)
(-0.614937 -6.29715e-08 0)
(-0.612489 -6.22034e-08 0)
(-0.610071 -6.14508e-08 0)
(-0.607682 -6.07133e-08 0)
(-0.605322 -5.99905e-08 0)
(-0.602989 -5.92819e-08 0)
(-0.600684 -5.85872e-08 0)
(-0.598406 -5.79061e-08 0)
(-0.596154 -5.72381e-08 0)
(-0.593929 -5.65829e-08 0)
(-0.591728 -5.59402e-08 0)
(-0.589553 -5.53097e-08 0)
(-0.587402 -5.4691e-08 0)
(-0.585274 -5.40839e-08 0)
(-0.583171 -5.34881e-08 0)
(-0.58109 -5.29032e-08 0)
(-0.579032 -5.23292e-08 0)
(-0.576997 -5.17655e-08 0)
(-0.574983 -5.12122e-08 0)
(-0.572991 -5.06688e-08 0)
(-0.571019 -5.01351e-08 0)
(-0.569069 -4.96111e-08 0)
(-0.567138 -4.90963e-08 0)
(-0.565228 -4.85908e-08 0)
(-0.563337 -4.80941e-08 0)
(-0.561466 -4.76063e-08 0)
(-0.559613 -4.7127e-08 0)
(-0.557779 -4.66562e-08 0)
(-0.555964 -4.61937e-08 0)
(-0.554166 -4.57394e-08 0)
(-0.552386 -4.52932e-08 0)
(-0.550623 -4.48549e-08 0)
(-0.548877 -4.44244e-08 0)
(-0.547148 -4.40018e-08 0)
(-0.545435 -4.3587e-08 0)
(-0.543738 -4.318e-08 0)
(-0.542057 -4.27808e-08 0)
(-0.540392 -4.23896e-08 0)
(-0.538741 -4.20065e-08 0)
(-0.537106 -4.16319e-08 0)
(-0.535485 -4.12661e-08 0)
(-0.533878 -4.09098e-08 0)
(-0.532284 -4.05638e-08 0)
(-0.530705 -4.02296e-08 0)
(-0.529137 -3.99085e-08 0)
(-0.527583 -3.96036e-08 0)
(-0.52604 -3.9327e-08 0)
(-0.524506 -3.90498e-08 0)
(-0.522985 -3.88292e-08 0)
(-0.521469 -3.88851e-08 0)
(-0.519943 -3.82209e-08 0)
(-0.51848 -3.73509e-08 0)
(-0.517021 -4.93969e-08 0)
(-0.514615 -1.37239e-08 0)
(-0.515959 -3.6395e-08 0)
(-0.511725 -5.50527e-08 0)
)
;
    }
    symmetry
    {
        type            symmetryPlane;
    }
    frontAndBack
    {
        type            empty;
    }
}


// ************************************************************************* //
