/*--------------------------------*- C++ -*----------------------------------*\
| =========                 |                                                 |
| \\      /  F ield         | OpenFOAM: The Open Source CFD Toolbox           |
|  \\    /   O peration     | Version:  v2012                                 |
|   \\  /    A nd           | Website:  www.openfoam.com                      |
|    \\/     M anipulation  |                                                 |
\*---------------------------------------------------------------------------*/
FoamFile
{
    version     2.0;
    format      ascii;
    class       volScalarField;
    location    "36";
    object      epsilon;
}
// * * * * * * * * * * * * * * * * * * * * * * * * * * * * * * * * * * * * * //

dimensions      [0 2 -3 0 0 0 0];


internalField   nonuniform List<scalar> 
209825
(
0.756606
0.637447
0.562157
0.514308
0.482523
0.460394
0.444276
0.432165
0.422757
0.415324
0.409288
0.404352
0.40021
0.396737
0.393745
0.391197
0.388954
0.387022
0.385288
0.383782
0.382408
0.381209
0.380098
0.379128
0.378219
0.377424
0.376667
0.376009
0.375378
0.374828
0.374291
0.373832
0.37338
0.372994
0.372606
0.372284
0.371956
0.371678
0.371394
0.371162
0.370918
0.370728
0.370526
0.37036
0.37018
0.370051
0.369904
0.369783
0.369657
0.369578
0.369461
0.36937
0.369299
0.369242
0.369195
0.369093
0.369072
0.369056
0.369014
0.369061
0.369061
0.369056
0.369112
0.369145
0.369191
0.369258
0.369338
0.369435
0.369477
0.369581
0.369649
0.369774
0.369858
0.370014
0.370101
0.370283
0.370376
0.370575
0.370684
0.370917
0.371045
0.371316
0.371468
0.371784
0.37196
0.372329
0.372534
0.37297
0.373213
0.373753
0.374026
0.37486
0.37511
0.379948
3.10389
564.094
0.756607
0.637446
0.562152
0.514299
0.482512
0.460379
0.44426
0.432147
0.422738
0.415304
0.409267
0.40433
0.400188
0.396714
0.393722
0.391174
0.38893
0.386997
0.385263
0.383757
0.382384
0.381184
0.380073
0.379103
0.378193
0.377398
0.376642
0.375983
0.375353
0.374802
0.374265
0.373806
0.373354
0.372968
0.372579
0.372257
0.371929
0.371652
0.371368
0.371135
0.370891
0.370702
0.370499
0.370333
0.370153
0.370024
0.369877
0.369757
0.36963
0.369551
0.369434
0.369343
0.369272
0.369215
0.369168
0.369066
0.369045
0.369029
0.368987
0.369034
0.369034
0.369029
0.369085
0.369117
0.369164
0.369231
0.369311
0.369407
0.36945
0.369554
0.369621
0.369747
0.369831
0.369986
0.370073
0.370256
0.370348
0.370548
0.370657
0.370889
0.371017
0.371289
0.37144
0.371757
0.371932
0.372301
0.372507
0.372942
0.373185
0.373725
0.373998
0.374832
0.375081
0.379927
3.10911
560.777
0.75661
0.637439
0.562129
0.514259
0.482459
0.460316
0.444189
0.432069
0.422655
0.415218
0.409178
0.404238
0.400093
0.396618
0.393624
0.391074
0.38883
0.386896
0.385161
0.383653
0.382279
0.381079
0.379967
0.378997
0.378087
0.377291
0.376534
0.375875
0.375244
0.374693
0.374156
0.373696
0.373244
0.372858
0.372469
0.372147
0.371819
0.371541
0.371257
0.371024
0.37078
0.37059
0.370388
0.370222
0.370041
0.369913
0.369765
0.369644
0.369518
0.369439
0.369321
0.36923
0.36916
0.369102
0.369055
0.368954
0.368931
0.368916
0.368873
0.368921
0.368921
0.368915
0.368971
0.369003
0.36905
0.369117
0.369197
0.369293
0.369336
0.36944
0.369507
0.369632
0.369716
0.369871
0.369958
0.370141
0.370233
0.370433
0.370541
0.370774
0.370902
0.371173
0.371324
0.371641
0.371816
0.372184
0.37239
0.372825
0.373068
0.373608
0.37388
0.374714
0.374963
0.379823
3.1201
556.906
0.756615
0.637427
0.562088
0.514191
0.482368
0.460209
0.444068
0.431938
0.422516
0.415072
0.409027
0.404083
0.399934
0.396456
0.393459
0.390907
0.38866
0.386724
0.384988
0.383479
0.382104
0.380902
0.379789
0.378818
0.377907
0.37711
0.376353
0.375693
0.375062
0.37451
0.373972
0.373512
0.373059
0.372673
0.372284
0.371961
0.371632
0.371354
0.37107
0.370836
0.370592
0.370402
0.370199
0.370033
0.369853
0.369724
0.369576
0.369455
0.369328
0.369249
0.369131
0.36904
0.368969
0.368912
0.368865
0.368763
0.368741
0.368725
0.368682
0.368729
0.368729
0.368723
0.36878
0.368811
0.368858
0.368925
0.369004
0.369101
0.369143
0.369247
0.369314
0.369439
0.369523
0.369678
0.369764
0.369947
0.370039
0.370238
0.370347
0.370579
0.370706
0.370978
0.371128
0.371445
0.37162
0.371988
0.372193
0.372628
0.37287
0.37341
0.373682
0.374515
0.374763
0.379646
3.1373
553.253
0.756622
0.637411
0.56203
0.514094
0.482241
0.460057
0.443898
0.431754
0.42232
0.414866
0.408813
0.403863
0.399709
0.396226
0.393226
0.39067
0.388421
0.386482
0.384743
0.383232
0.381855
0.380652
0.379538
0.378565
0.377653
0.376855
0.376096
0.375436
0.374803
0.374251
0.373712
0.373251
0.372798
0.372411
0.372021
0.371698
0.371369
0.37109
0.370805
0.370572
0.370327
0.370137
0.369933
0.369767
0.369586
0.369457
0.369308
0.369188
0.369061
0.368981
0.368863
0.368772
0.368701
0.368643
0.368596
0.368494
0.368471
0.368455
0.368412
0.368458
0.368458
0.368452
0.368508
0.36854
0.368586
0.368653
0.368732
0.368828
0.36887
0.368974
0.369041
0.369166
0.369249
0.369404
0.36949
0.369672
0.369765
0.369963
0.370072
0.370304
0.370431
0.370702
0.370852
0.371168
0.371343
0.37171
0.371915
0.372349
0.372591
0.37313
0.373401
0.374234
0.37448
0.379394
3.16117
550.162
0.756631
0.637389
0.561956
0.513969
0.482075
0.45986
0.443677
0.431514
0.422065
0.4146
0.408536
0.403578
0.399417
0.395929
0.392923
0.390363
0.38811
0.386168
0.384426
0.382912
0.381533
0.380328
0.379211
0.378237
0.377323
0.376524
0.375764
0.375102
0.374468
0.373915
0.373375
0.372914
0.372459
0.372071
0.371681
0.371357
0.371027
0.370748
0.370462
0.370228
0.369983
0.369792
0.369588
0.369421
0.36924
0.36911
0.368962
0.368841
0.368713
0.368633
0.368515
0.368423
0.368352
0.368294
0.368247
0.368145
0.368121
0.368105
0.368062
0.368107
0.368107
0.368101
0.368157
0.368188
0.368234
0.3683
0.368379
0.368475
0.368517
0.36862
0.368687
0.368812
0.368895
0.369049
0.369135
0.369317
0.369409
0.369607
0.369715
0.369947
0.370073
0.370344
0.370494
0.370809
0.370984
0.37135
0.371555
0.371988
0.372229
0.372766
0.373037
0.373869
0.374113
0.379068
3.19217
547.799
0.756643
0.637363
0.561864
0.513816
0.481871
0.459618
0.443405
0.431218
0.421751
0.414271
0.408196
0.403227
0.399058
0.395562
0.39255
0.389985
0.387727
0.38578
0.384035
0.382518
0.381136
0.379928
0.378809
0.377833
0.376917
0.376116
0.375354
0.374691
0.374056
0.373501
0.37296
0.372497
0.372042
0.371653
0.371262
0.370937
0.370606
0.370326
0.37004
0.369805
0.369559
0.369368
0.369163
0.368996
0.368814
0.368684
0.368534
0.368413
0.368285
0.368205
0.368087
0.367994
0.367922
0.367864
0.367816
0.367714
0.36769
0.367674
0.36763
0.367675
0.367675
0.367668
0.367723
0.367754
0.3678
0.367865
0.367944
0.36804
0.368081
0.368184
0.36825
0.368375
0.368458
0.368612
0.368697
0.368878
0.36897
0.369168
0.369276
0.369506
0.369633
0.369902
0.370052
0.370366
0.370541
0.370906
0.37111
0.371542
0.371783
0.372319
0.372589
0.373419
0.373661
0.378666
3.23075
546.223
0.756656
0.637331
0.561755
0.513633
0.481629
0.459329
0.443081
0.430867
0.421378
0.41388
0.40779
0.402809
0.39863
0.395125
0.392106
0.389534
0.38727
0.385319
0.383569
0.382049
0.380663
0.379452
0.37833
0.377351
0.376433
0.37563
0.374866
0.374201
0.373564
0.373008
0.372465
0.372001
0.371545
0.371154
0.370762
0.370436
0.370104
0.369824
0.369536
0.369301
0.369054
0.368862
0.368657
0.368489
0.368306
0.368175
0.368025
0.367904
0.367775
0.367694
0.367576
0.367483
0.36741
0.367352
0.367304
0.367202
0.367177
0.36716
0.367115
0.367159
0.367159
0.367152
0.367207
0.367237
0.367283
0.367348
0.367426
0.367522
0.367562
0.367665
0.36773
0.367855
0.367937
0.36809
0.368176
0.368356
0.368447
0.368645
0.368752
0.368982
0.369108
0.369377
0.369526
0.369839
0.370013
0.370377
0.370581
0.371011
0.371251
0.371786
0.372054
0.372883
0.373123
0.378188
3.27734
545.423
0.756672
0.637296
0.561629
0.513421
0.481348
0.458995
0.442705
0.430459
0.420944
0.413425
0.407318
0.402323
0.398132
0.394617
0.391589
0.38901
0.386739
0.384783
0.383028
0.381503
0.380112
0.378898
0.377773
0.376791
0.37587
0.375064
0.374298
0.373631
0.372992
0.372434
0.37189
0.371424
0.370966
0.370575
0.370181
0.369854
0.369521
0.369239
0.368951
0.368714
0.368467
0.368273
0.368067
0.367899
0.367715
0.367584
0.367433
0.367311
0.367182
0.3671
0.366981
0.366888
0.366815
0.366756
0.366708
0.366605
0.36658
0.366563
0.366517
0.36656
0.36656
0.366552
0.366607
0.366636
0.366682
0.366745
0.366823
0.366918
0.366958
0.36706
0.367126
0.367249
0.367331
0.367484
0.367569
0.367748
0.367839
0.368036
0.368143
0.368372
0.368498
0.368765
0.368914
0.369226
0.369399
0.369762
0.369965
0.370394
0.370633
0.371166
0.371433
0.37226
0.372496
0.377632
3.33239
545.336
0.75669
0.637255
0.561486
0.51318
0.481028
0.458613
0.442276
0.429993
0.420448
0.412906
0.406779
0.401768
0.397563
0.394037
0.390999
0.388411
0.386134
0.38417
0.382409
0.380879
0.379484
0.378265
0.377137
0.376151
0.375227
0.374419
0.37365
0.37298
0.372339
0.371779
0.371233
0.370765
0.370306
0.369912
0.369517
0.369189
0.368854
0.368572
0.368282
0.368044
0.367796
0.367602
0.367394
0.367225
0.367041
0.366908
0.366757
0.366634
0.366504
0.366422
0.366303
0.366209
0.366135
0.366075
0.366027
0.365924
0.365898
0.36588
0.365833
0.365875
0.365875
0.365867
0.365921
0.365949
0.365995
0.366058
0.366135
0.36623
0.366268
0.36637
0.366435
0.366558
0.366639
0.366791
0.366876
0.367054
0.367145
0.367341
0.367447
0.367675
0.3678
0.368066
0.368215
0.368525
0.368698
0.369059
0.369261
0.369688
0.369927
0.370457
0.370723
0.371549
0.371781
0.376999
3.39628
545.862
0.756711
0.63721
0.561326
0.51291
0.480668
0.458185
0.441794
0.429469
0.419891
0.412321
0.406173
0.401144
0.396924
0.393384
0.390335
0.387738
0.385451
0.383481
0.381713
0.380177
0.378777
0.377553
0.37642
0.375431
0.374503
0.373692
0.37292
0.372248
0.371604
0.371041
0.370493
0.370023
0.369562
0.369167
0.36877
0.36844
0.368104
0.36782
0.367529
0.36729
0.36704
0.366845
0.366637
0.366466
0.366281
0.366148
0.365996
0.365872
0.365741
0.365658
0.365538
0.365444
0.365369
0.365309
0.36526
0.365157
0.365129
0.365111
0.365063
0.365104
0.365103
0.365095
0.365148
0.365175
0.365221
0.365283
0.36536
0.365454
0.365491
0.365593
0.365657
0.36578
0.36586
0.366011
0.366095
0.366273
0.366363
0.366558
0.366664
0.366891
0.367015
0.36728
0.367427
0.367737
0.367908
0.368268
0.368469
0.368894
0.369131
0.36966
0.369924
0.370747
0.370976
0.376288
3.46937
546.882
0.756733
0.63716
0.561149
0.512611
0.480269
0.457709
0.441258
0.428886
0.419271
0.411672
0.405499
0.400449
0.396212
0.392658
0.389596
0.386988
0.384692
0.382713
0.380938
0.379395
0.377989
0.376761
0.375623
0.374629
0.373697
0.372882
0.372107
0.371432
0.370785
0.37022
0.369669
0.369197
0.368733
0.368337
0.367938
0.367606
0.367268
0.366983
0.36669
0.36645
0.366199
0.366002
0.365793
0.365621
0.365435
0.365301
0.365148
0.365023
0.364891
0.364808
0.364687
0.364592
0.364517
0.364455
0.364406
0.364303
0.364274
0.364255
0.364206
0.364245
0.364245
0.364235
0.364288
0.364314
0.364359
0.36442
0.364496
0.36459
0.364626
0.364727
0.364791
0.364913
0.364992
0.365143
0.365226
0.365403
0.365492
0.365686
0.365791
0.366017
0.366141
0.366404
0.366551
0.366858
0.367029
0.367387
0.367587
0.36801
0.368246
0.368771
0.369034
0.369855
0.370079
0.375498
3.55196
548.256
0.756758
0.637107
0.560955
0.512282
0.479831
0.457185
0.440668
0.428244
0.418589
0.410956
0.404755
0.399683
0.395427
0.391857
0.388781
0.386161
0.383855
0.381866
0.380083
0.378533
0.377121
0.375886
0.374743
0.373745
0.372808
0.371989
0.37121
0.370532
0.369882
0.369314
0.368761
0.368286
0.36782
0.367421
0.36702
0.366686
0.366347
0.366059
0.365765
0.365524
0.365271
0.365073
0.364862
0.36469
0.364502
0.364366
0.364213
0.364087
0.363954
0.36387
0.363748
0.363652
0.363576
0.363513
0.363464
0.363361
0.36333
0.363311
0.363261
0.363297
0.363297
0.363287
0.363339
0.363364
0.363409
0.363468
0.363544
0.363637
0.363672
0.363772
0.363835
0.363957
0.364035
0.364185
0.364267
0.364443
0.364532
0.364724
0.364829
0.365053
0.365176
0.365438
0.365583
0.365889
0.366059
0.366415
0.366614
0.367034
0.367269
0.367792
0.368052
0.368871
0.369091
0.374627
3.64431
549.837
0.756786
0.637049
0.560745
0.511924
0.479352
0.456613
0.440024
0.427543
0.417842
0.410173
0.403943
0.398846
0.394568
0.390981
0.38789
0.385256
0.382939
0.38094
0.379148
0.37759
0.376171
0.37493
0.373781
0.372777
0.371836
0.371012
0.370229
0.369547
0.368893
0.368322
0.367766
0.367289
0.36682
0.366418
0.366015
0.365679
0.365338
0.365049
0.364753
0.36451
0.364255
0.364056
0.363843
0.36367
0.363481
0.363344
0.363189
0.363063
0.362928
0.362843
0.362721
0.362624
0.362546
0.362483
0.362432
0.36233
0.362298
0.362278
0.362226
0.362261
0.362261
0.36225
0.3623
0.362324
0.362369
0.362427
0.362501
0.362594
0.362627
0.362727
0.362789
0.36291
0.362987
0.363136
0.363217
0.363392
0.36348
0.363671
0.363775
0.363998
0.36412
0.36438
0.364525
0.364829
0.364997
0.365351
0.365549
0.365967
0.366199
0.366719
0.366978
0.367794
0.368009
0.373677
3.74654
551.48
0.756815
0.636987
0.560518
0.511536
0.478834
0.455993
0.439325
0.426782
0.417032
0.409323
0.40306
0.397936
0.393636
0.390029
0.386921
0.384273
0.381943
0.379934
0.378132
0.376565
0.375138
0.37389
0.372734
0.371725
0.370778
0.36995
0.369163
0.368476
0.367819
0.367244
0.366685
0.366205
0.365733
0.365329
0.364923
0.364585
0.364241
0.36395
0.363652
0.363407
0.363151
0.36295
0.362736
0.362561
0.36237
0.362232
0.362076
0.361948
0.361813
0.361726
0.361604
0.361506
0.361427
0.361362
0.361311
0.361208
0.361175
0.361154
0.3611
0.361133
0.361133
0.361121
0.361171
0.361193
0.361238
0.361294
0.361368
0.361459
0.361492
0.361591
0.361652
0.361772
0.361848
0.361996
0.362076
0.362249
0.362337
0.362527
0.36263
0.362851
0.362972
0.36323
0.363374
0.363676
0.363843
0.364194
0.364391
0.364806
0.365037
0.365554
0.36581
0.366623
0.366832
0.372644
3.85872
553.043
0.756847
0.636921
0.560274
0.51112
0.478276
0.455324
0.438571
0.425961
0.416157
0.408405
0.402107
0.396953
0.392628
0.389
0.385875
0.383211
0.380867
0.378846
0.377033
0.375457
0.374021
0.372766
0.371603
0.370588
0.369636
0.368802
0.36801
0.367319
0.366658
0.366079
0.365516
0.365033
0.364558
0.364151
0.363742
0.363402
0.363055
0.362762
0.362462
0.362215
0.361957
0.361754
0.361538
0.361362
0.36117
0.36103
0.360873
0.360744
0.360607
0.360519
0.360396
0.360297
0.360217
0.360151
0.360099
0.359996
0.359961
0.359939
0.359884
0.359915
0.359915
0.359902
0.35995
0.35997
0.360015
0.36007
0.360142
0.360233
0.360264
0.360362
0.360422
0.360541
0.360616
0.360763
0.360842
0.361014
0.361101
0.361289
0.361391
0.36161
0.361731
0.361987
0.362129
0.362429
0.362595
0.362944
0.363139
0.363551
0.36378
0.364293
0.364547
0.365357
0.365561
0.371529
3.98075
554.39
0.756882
0.636852
0.560015
0.510675
0.477679
0.454608
0.437762
0.42508
0.415218
0.407419
0.401082
0.395897
0.391545
0.387895
0.38475
0.382069
0.37971
0.377676
0.375852
0.374266
0.372821
0.371557
0.370387
0.369365
0.368406
0.367567
0.36677
0.366074
0.365408
0.364826
0.364259
0.363772
0.363294
0.362884
0.362472
0.362129
0.36178
0.361485
0.361182
0.360933
0.360673
0.360468
0.36025
0.360072
0.359879
0.359737
0.359578
0.359448
0.35931
0.35922
0.359096
0.358996
0.358915
0.358848
0.358795
0.358692
0.358655
0.358632
0.358575
0.358604
0.358604
0.358589
0.358636
0.358655
0.358699
0.358752
0.358824
0.358914
0.358943
0.359041
0.3591
0.359217
0.359291
0.359437
0.359515
0.359685
0.359771
0.359958
0.360059
0.360276
0.360395
0.360649
0.360791
0.361088
0.361253
0.361598
0.361792
0.362201
0.362428
0.362937
0.363188
0.363996
0.364194
0.370331
4.1124
555.401
0.756918
0.636779
0.55974
0.510201
0.477042
0.453843
0.436898
0.424137
0.414214
0.406364
0.399987
0.394767
0.390387
0.386712
0.383546
0.380847
0.378472
0.376424
0.374587
0.37299
0.371535
0.370263
0.369085
0.368055
0.36709
0.366245
0.365442
0.364742
0.364071
0.363484
0.362913
0.362422
0.36194
0.361527
0.361112
0.360766
0.360415
0.360117
0.359812
0.359561
0.359298
0.359091
0.358871
0.358692
0.358496
0.358353
0.358192
0.358061
0.357921
0.35783
0.357705
0.357604
0.357521
0.357452
0.357399
0.357295
0.357256
0.357233
0.357174
0.357201
0.3572
0.357184
0.35723
0.357246
0.357291
0.357342
0.357412
0.357501
0.357529
0.357625
0.357683
0.3578
0.357872
0.358016
0.358093
0.358262
0.358347
0.358532
0.358632
0.358847
0.358965
0.359217
0.359357
0.359651
0.359815
0.360158
0.360349
0.360755
0.36098
0.361486
0.361734
0.362538
0.362729
0.369049
4.25327
555.965
0.756957
0.636703
0.559449
0.509699
0.476366
0.45303
0.435979
0.423135
0.413145
0.405241
0.398819
0.393563
0.389152
0.38545
0.382262
0.379544
0.377152
0.375089
0.373239
0.37163
0.370165
0.368883
0.367697
0.366659
0.365687
0.364835
0.364026
0.36332
0.362644
0.362053
0.361478
0.360983
0.360497
0.36008
0.359662
0.359313
0.358958
0.358657
0.35835
0.358096
0.357831
0.357622
0.3574
0.357218
0.357021
0.356876
0.356713
0.356581
0.356439
0.356347
0.35622
0.356118
0.356033
0.355964
0.355909
0.355805
0.355764
0.35574
0.355679
0.355703
0.355702
0.355685
0.355729
0.355744
0.355788
0.355837
0.355906
0.355994
0.356019
0.356115
0.356172
0.356287
0.356358
0.356501
0.356577
0.356744
0.356828
0.357011
0.35711
0.357323
0.35744
0.357689
0.357828
0.358119
0.358281
0.358621
0.358811
0.359213
0.359436
0.359937
0.360182
0.360982
0.361168
0.367681
4.40274
555.986
0.756998
0.636625
0.559144
0.50917
0.475651
0.45217
0.435004
0.422071
0.41201
0.404049
0.39758
0.392284
0.38784
0.384111
0.380899
0.37816
0.37575
0.373671
0.371807
0.370185
0.368708
0.367416
0.366221
0.365175
0.364195
0.363337
0.362521
0.36181
0.361128
0.360532
0.359952
0.359453
0.358963
0.358542
0.35812
0.357768
0.35741
0.357106
0.356796
0.35654
0.356272
0.35606
0.355836
0.355653
0.355453
0.355306
0.355142
0.355008
0.354864
0.35477
0.354643
0.354539
0.354452
0.354381
0.354326
0.354221
0.354178
0.354152
0.354091
0.354112
0.35411
0.354092
0.354134
0.354146
0.35419
0.354237
0.354305
0.354391
0.354415
0.35451
0.354565
0.35468
0.354749
0.35489
0.354965
0.35513
0.355213
0.355394
0.355492
0.355703
0.355818
0.356065
0.356202
0.35649
0.356651
0.356987
0.357175
0.357573
0.357794
0.358291
0.358533
0.359329
0.359509
0.366227
4.55997
555.391
0.757042
0.636543
0.558824
0.508613
0.474897
0.451261
0.433975
0.420947
0.41081
0.402788
0.396269
0.390931
0.386452
0.382693
0.379455
0.376694
0.374265
0.372169
0.37029
0.368655
0.367166
0.365863
0.364658
0.363603
0.362615
0.36175
0.360927
0.360209
0.359522
0.358921
0.358335
0.357832
0.357337
0.356913
0.356487
0.356131
0.35577
0.355463
0.35515
0.354891
0.35462
0.354406
0.354179
0.353994
0.353792
0.353643
0.353476
0.353341
0.353195
0.353099
0.352971
0.352865
0.352777
0.352704
0.352648
0.352543
0.352497
0.352471
0.352407
0.352426
0.352424
0.352403
0.352443
0.352454
0.352497
0.352542
0.352609
0.352693
0.352715
0.352809
0.352863
0.352976
0.353044
0.353183
0.353257
0.353419
0.353502
0.353681
0.353778
0.353986
0.3541
0.354343
0.354479
0.354765
0.354923
0.355256
0.355442
0.355836
0.356055
0.356546
0.356785
0.357578
0.357751
0.364684
4.72386
554.099
0.757088
0.636459
0.55849
0.508028
0.474105
0.450305
0.432891
0.419763
0.409545
0.401458
0.394885
0.389504
0.384987
0.381196
0.377931
0.375147
0.372697
0.370582
0.368687
0.367038
0.365537
0.364223
0.363007
0.361943
0.360947
0.360073
0.359244
0.358519
0.357825
0.357219
0.356628
0.356119
0.35562
0.355192
0.354762
0.354402
0.354037
0.353727
0.35341
0.353149
0.352875
0.352658
0.352429
0.352241
0.352037
0.351886
0.351717
0.35158
0.351432
0.351334
0.351204
0.351097
0.351008
0.350933
0.350875
0.35077
0.350722
0.350694
0.350629
0.350644
0.350642
0.35062
0.350657
0.350666
0.350709
0.350751
0.350816
0.350899
0.350919
0.351012
0.351064
0.351176
0.351242
0.35138
0.351452
0.351612
0.351694
0.351871
0.351966
0.352172
0.352284
0.352525
0.352659
0.352941
0.353098
0.353427
0.353611
0.354001
0.354217
0.354704
0.354939
0.355728
0.355894
0.363052
4.89302
552.059
0.757136
0.636373
0.558142
0.507418
0.473275
0.449303
0.431753
0.418518
0.408215
0.400059
0.39343
0.388001
0.383445
0.379621
0.376327
0.373517
0.371045
0.368912
0.367
0.365336
0.363821
0.362495
0.361268
0.360194
0.359189
0.358307
0.35747
0.356738
0.356038
0.355425
0.354829
0.354315
0.353811
0.353378
0.352944
0.35258
0.352211
0.351898
0.351578
0.351313
0.351036
0.350817
0.350585
0.350394
0.350188
0.350034
0.349863
0.349724
0.349574
0.349474
0.349343
0.349235
0.349143
0.349066
0.349007
0.348902
0.348851
0.348822
0.348755
0.348767
0.348764
0.34874
0.348775
0.348782
0.348824
0.348863
0.348927
0.349009
0.349027
0.349118
0.349169
0.349279
0.349344
0.349479
0.34955
0.349708
0.349789
0.349963
0.350057
0.35026
0.350371
0.350609
0.350741
0.35102
0.351174
0.3515
0.351682
0.352067
0.35228
0.352762
0.352993
0.353778
0.353937
0.36133
5.06577
549.226
0.757186
0.636285
0.557781
0.506781
0.472408
0.448253
0.430561
0.417213
0.406821
0.398592
0.391902
0.386424
0.381826
0.377966
0.374642
0.371806
0.369311
0.367158
0.365228
0.363548
0.362018
0.360679
0.359441
0.358357
0.357342
0.356451
0.355606
0.354867
0.35416
0.353541
0.352939
0.352419
0.35191
0.351472
0.351033
0.350665
0.350292
0.349976
0.349652
0.349384
0.349104
0.348881
0.348646
0.348454
0.348244
0.348088
0.347915
0.347774
0.347621
0.347519
0.347387
0.347276
0.347182
0.347104
0.347043
0.346938
0.346884
0.346854
0.346785
0.346795
0.34679
0.346764
0.346797
0.346801
0.346843
0.346879
0.346942
0.347021
0.347038
0.347128
0.347176
0.347285
0.347348
0.347482
0.347551
0.347706
0.347786
0.347958
0.34805
0.34825
0.34836
0.348594
0.348725
0.349
0.349153
0.349474
0.349653
0.350034
0.350245
0.350721
0.350948
0.351729
0.351882
0.359514
5.2401
545.562
0.757239
0.636196
0.557408
0.50612
0.471504
0.447158
0.429315
0.415849
0.405361
0.397055
0.390303
0.384772
0.38013
0.376233
0.372876
0.370013
0.367494
0.365319
0.36337
0.361673
0.360129
0.358776
0.357526
0.356431
0.355405
0.354505
0.353652
0.352905
0.35219
0.351565
0.350956
0.350431
0.349916
0.349474
0.34903
0.348657
0.34828
0.34796
0.347632
0.347361
0.347077
0.346852
0.346613
0.346418
0.346206
0.346047
0.345871
0.345728
0.345573
0.345469
0.345335
0.345223
0.345127
0.345046
0.344984
0.344878
0.344821
0.34479
0.344719
0.344726
0.34472
0.344692
0.344722
0.344724
0.344765
0.344798
0.34486
0.344937
0.344951
0.34504
0.345087
0.345194
0.345255
0.345386
0.345454
0.345607
0.345685
0.345855
0.345946
0.346143
0.346251
0.346481
0.34661
0.346881
0.347032
0.347349
0.347526
0.347902
0.34811
0.34858
0.348804
0.34958
0.349726
0.357604
5.41367
541.037
0.757294
0.636105
0.557022
0.505434
0.470565
0.446017
0.428017
0.414425
0.403838
0.395451
0.388632
0.383046
0.378358
0.374421
0.371031
0.368138
0.365593
0.363396
0.361427
0.359713
0.358152
0.356786
0.355522
0.354415
0.353379
0.35247
0.351607
0.350852
0.35013
0.349498
0.348882
0.348351
0.34783
0.347383
0.346934
0.346557
0.346175
0.345851
0.345519
0.345244
0.344957
0.344728
0.344486
0.344288
0.344073
0.343911
0.343733
0.343588
0.34343
0.343324
0.343188
0.343074
0.342975
0.342893
0.342829
0.342722
0.342663
0.34263
0.342558
0.342561
0.342554
0.342524
0.34255
0.342551
0.34259
0.34262
0.342681
0.342756
0.342768
0.342855
0.3429
0.343005
0.343064
0.343194
0.343259
0.34341
0.343487
0.343654
0.343743
0.343937
0.344043
0.34427
0.344397
0.344664
0.344813
0.345125
0.3453
0.345671
0.345876
0.34634
0.34656
0.347331
0.347471
0.355597
5.58382
535.622
0.757351
0.636013
0.556626
0.504724
0.469591
0.444832
0.426666
0.412943
0.402251
0.393779
0.386891
0.381246
0.376509
0.372531
0.369105
0.366181
0.363609
0.361388
0.359399
0.357666
0.356089
0.354707
0.353431
0.352311
0.351264
0.350345
0.349472
0.348709
0.347979
0.347339
0.346717
0.346179
0.345652
0.345199
0.344745
0.344363
0.343976
0.343648
0.343312
0.343033
0.342742
0.34251
0.342264
0.342064
0.341845
0.341681
0.3415
0.341352
0.341192
0.341083
0.340945
0.340829
0.340728
0.340644
0.340578
0.340471
0.340408
0.340374
0.3403
0.3403
0.340292
0.340259
0.340282
0.340281
0.340319
0.340346
0.340405
0.340477
0.340487
0.340573
0.340615
0.340719
0.340776
0.340903
0.340967
0.341115
0.34119
0.341354
0.341442
0.341633
0.341737
0.341961
0.342085
0.342348
0.342495
0.342803
0.342975
0.34334
0.343542
0.344001
0.344216
0.344982
0.345115
0.353492
5.74754
529.291
0.75741
0.635921
0.556219
0.503992
0.468582
0.443603
0.425264
0.411403
0.400601
0.39204
0.385078
0.379373
0.374584
0.370563
0.367099
0.364143
0.361543
0.359298
0.357286
0.355534
0.353939
0.352542
0.351251
0.350119
0.34906
0.34813
0.347247
0.346475
0.345736
0.345089
0.34446
0.343916
0.343382
0.342923
0.342463
0.342076
0.341684
0.341352
0.341011
0.340729
0.340434
0.340197
0.339948
0.339745
0.339523
0.339356
0.339172
0.339022
0.338859
0.338747
0.338607
0.338489
0.338386
0.338299
0.338231
0.338123
0.338058
0.338022
0.337947
0.337943
0.337933
0.337898
0.337918
0.337914
0.337951
0.337974
0.338032
0.338101
0.338109
0.338193
0.338234
0.338336
0.33839
0.338515
0.338577
0.338722
0.338796
0.338957
0.339043
0.339231
0.339333
0.339553
0.339675
0.339934
0.340078
0.340381
0.340551
0.34091
0.341109
0.341562
0.341773
0.342534
0.34266
0.351285
5.90152
522.014
0.757471
0.635828
0.555802
0.503238
0.467541
0.442332
0.423811
0.409807
0.398889
0.390235
0.383196
0.377427
0.372584
0.368517
0.365014
0.362024
0.359395
0.357123
0.355089
0.353316
0.351703
0.35029
0.348984
0.347838
0.346767
0.345826
0.344933
0.344151
0.343403
0.342748
0.342111
0.34156
0.34102
0.340555
0.340089
0.339697
0.3393
0.338962
0.338617
0.338331
0.338031
0.337791
0.337539
0.337332
0.337107
0.336936
0.336749
0.336597
0.336431
0.336316
0.336174
0.336054
0.335948
0.335859
0.335788
0.335681
0.335612
0.335574
0.335498
0.335491
0.335478
0.335442
0.335457
0.335452
0.335486
0.335506
0.335562
0.335629
0.335635
0.335717
0.335755
0.335855
0.335907
0.33603
0.33609
0.336232
0.336304
0.336463
0.336547
0.336731
0.336831
0.337047
0.337167
0.337421
0.337563
0.337861
0.338028
0.338382
0.338578
0.339024
0.33923
0.339985
0.340106
0.348974
6.04221
513.761
0.757534
0.635736
0.555376
0.502463
0.466467
0.441019
0.422308
0.408154
0.397116
0.388363
0.381244
0.375408
0.370509
0.366395
0.362851
0.359825
0.357165
0.354866
0.352807
0.351013
0.349381
0.347951
0.346629
0.34547
0.344385
0.343433
0.342529
0.341737
0.34098
0.340317
0.339672
0.339114
0.338566
0.338095
0.337623
0.337225
0.336823
0.336481
0.336131
0.33584
0.335536
0.335292
0.335035
0.334825
0.334596
0.334422
0.334232
0.334077
0.333908
0.333791
0.333647
0.333525
0.333416
0.333323
0.333251
0.333143
0.333071
0.333031
0.332953
0.332942
0.332928
0.332889
0.332901
0.332893
0.332926
0.332942
0.332997
0.333059
0.333064
0.333144
0.333179
0.333278
0.333327
0.333447
0.333505
0.333645
0.333715
0.333871
0.333953
0.334133
0.334232
0.334443
0.334561
0.334811
0.33495
0.335243
0.335407
0.335755
0.335947
0.336387
0.336588
0.337338
0.337453
0.346557
6.16581
504.499
0.757598
0.635644
0.554941
0.501668
0.465362
0.439665
0.420757
0.406446
0.395282
0.386427
0.379224
0.373318
0.368361
0.364196
0.360609
0.357547
0.354854
0.352527
0.350443
0.348627
0.346974
0.345526
0.344188
0.343014
0.341916
0.340951
0.340037
0.339235
0.338468
0.337796
0.337142
0.336577
0.336022
0.335544
0.335066
0.334662
0.334254
0.333907
0.333551
0.333256
0.332948
0.3327
0.332439
0.332225
0.331992
0.331815
0.331621
0.331464
0.331292
0.331171
0.331025
0.3309
0.330788
0.330694
0.330619
0.33051
0.330434
0.330393
0.330313
0.330299
0.330283
0.330242
0.33025
0.330239
0.330269
0.330282
0.330335
0.330394
0.330397
0.330475
0.330508
0.330604
0.330651
0.330768
0.330824
0.330961
0.331029
0.331181
0.331262
0.331438
0.331535
0.331742
0.331858
0.332102
0.332239
0.332527
0.332688
0.33303
0.333219
0.333651
0.333848
0.334592
0.334701
0.344031
6.2684
494.192
0.757665
0.635553
0.5545
0.500854
0.464228
0.438271
0.419158
0.404684
0.393389
0.384428
0.377137
0.371158
0.366139
0.361922
0.358291
0.355189
0.352463
0.350106
0.347996
0.346156
0.344483
0.343016
0.341662
0.340472
0.33936
0.338382
0.337456
0.336643
0.335866
0.335185
0.334523
0.33395
0.333387
0.332903
0.332418
0.332007
0.331593
0.331241
0.330881
0.33058
0.330267
0.330015
0.329749
0.329532
0.329296
0.329115
0.328918
0.328757
0.328582
0.328458
0.328309
0.328182
0.328068
0.32797
0.327892
0.327783
0.327704
0.327661
0.327579
0.327561
0.327543
0.3275
0.327504
0.327491
0.327518
0.327526
0.327578
0.327633
0.327635
0.327711
0.32774
0.327835
0.327879
0.327993
0.328047
0.32818
0.328247
0.328396
0.328474
0.328647
0.328741
0.328944
0.329057
0.329297
0.329431
0.329713
0.329871
0.330207
0.330392
0.330818
0.33101
0.331747
0.331851
0.341393
6.34603
482.805
0.757733
0.635463
0.554052
0.500023
0.463065
0.43684
0.417513
0.402869
0.391437
0.382365
0.374983
0.368928
0.363845
0.359574
0.355896
0.352754
0.349992
0.347605
0.345467
0.343603
0.341908
0.340422
0.33905
0.337844
0.336718
0.335727
0.334788
0.333964
0.333177
0.332486
0.331815
0.331233
0.330663
0.330171
0.329679
0.329262
0.328842
0.328485
0.328119
0.327814
0.327496
0.327239
0.326969
0.326747
0.326507
0.326322
0.326121
0.325958
0.325779
0.325652
0.325501
0.325371
0.325253
0.325153
0.325073
0.324962
0.32488
0.324834
0.324751
0.324729
0.324709
0.324664
0.324665
0.324648
0.324672
0.324677
0.324727
0.324777
0.324778
0.324852
0.324878
0.32497
0.325011
0.325123
0.325175
0.325305
0.325369
0.325515
0.325591
0.32576
0.325852
0.32605
0.326161
0.326396
0.326527
0.326803
0.326958
0.327288
0.327469
0.327887
0.328075
0.328805
0.328903
0.338641
6.39476
470.301
0.757803
0.635374
0.553598
0.499176
0.461874
0.435371
0.415823
0.401002
0.389429
0.380241
0.372764
0.36663
0.36148
0.357152
0.353426
0.350242
0.347443
0.345024
0.342858
0.340969
0.339251
0.337745
0.336354
0.335132
0.33399
0.332985
0.332034
0.331198
0.3304
0.329699
0.329019
0.328428
0.32785
0.327351
0.326852
0.326428
0.326002
0.325638
0.325266
0.324956
0.324633
0.324371
0.324097
0.323872
0.323627
0.323438
0.323234
0.323067
0.322884
0.322754
0.3226
0.322468
0.322347
0.322244
0.32216
0.322049
0.321963
0.321915
0.32183
0.321804
0.321781
0.321735
0.321732
0.321712
0.321732
0.321734
0.321782
0.321827
0.321828
0.321898
0.321922
0.322011
0.32205
0.322159
0.322208
0.322334
0.322397
0.322539
0.322613
0.322778
0.322867
0.323061
0.323169
0.323399
0.323527
0.323798
0.323949
0.324272
0.32445
0.324861
0.325043
0.325766
0.325859
0.335771
6.41097
456.65
0.757874
0.635287
0.553139
0.498314
0.460659
0.433868
0.41409
0.399086
0.387365
0.378057
0.370481
0.364265
0.359045
0.354659
0.350882
0.347654
0.344818
0.342364
0.340169
0.338253