/*--------------------------------*- C++ -*----------------------------------*\
| =========                 |                                                 |
| \\      /  F ield         | OpenFOAM: The Open Source CFD Toolbox           |
|  \\    /   O peration     | Version:  v2012                                 |
|   \\  /    A nd           | Website:  www.openfoam.com                      |
|    \\/     M anipulation  |                                                 |
\*---------------------------------------------------------------------------*/
FoamFile
{
    version     2.0;
    format      ascii;
    class       volScalarField;
    location    "36";
    object      nut;
}
// * * * * * * * * * * * * * * * * * * * * * * * * * * * * * * * * * * * * * //

dimensions      [0 2 -1 0 0 0 0];


internalField   nonuniform List<scalar> 
209825
(
1.2491e-07
1.22462e-07
1.16462e-07
1.08944e-07
1.01558e-07
9.5024e-08
8.94303e-08
8.47202e-08
8.07213e-08
7.73365e-08
7.44227e-08
7.19246e-08
6.97381e-08
6.78436e-08
6.61577e-08
6.46835e-08
6.33531e-08
6.21825e-08
6.11127e-08
6.01672e-08
5.92919e-08
5.8517e-08
5.77909e-08
5.71465e-08
5.65363e-08
5.59954e-08
5.54786e-08
5.50195e-08
5.45761e-08
5.41858e-08
5.38036e-08
5.3467e-08
5.31344e-08
5.28443e-08
5.25545e-08
5.23036e-08
5.20489e-08
5.18305e-08
5.1606e-08
5.14146e-08
5.12155e-08
5.10471e-08
5.08693e-08
5.07228e-08
5.05647e-08
5.04343e-08
5.02922e-08
5.01786e-08
5.00522e-08
4.99499e-08
4.98378e-08
4.97516e-08
4.96487e-08
4.95705e-08
4.94763e-08
4.94149e-08
4.93307e-08
4.92677e-08
4.91946e-08
4.91339e-08
4.90648e-08
4.90174e-08
4.89495e-08
4.89074e-08
4.88451e-08
4.88038e-08
4.87441e-08
4.87048e-08
4.86554e-08
4.86186e-08
4.85698e-08
4.85327e-08
4.849e-08
4.8455e-08
4.84199e-08
4.83874e-08
4.83576e-08
4.83302e-08
4.83114e-08
4.82913e-08
4.82746e-08
4.82583e-08
4.82448e-08
4.82293e-08
4.82196e-08
4.82056e-08
4.8197e-08
4.81841e-08
4.81753e-08
4.81639e-08
4.81526e-08
4.81394e-08
4.81198e-08
4.85044e-08
3.66984e-06
2.49522e-08
1.24909e-07
1.22463e-07
1.16463e-07
1.08946e-07
1.0156e-07
9.50263e-08
8.94326e-08
8.47224e-08
8.07233e-08
7.73383e-08
7.44244e-08
7.19262e-08
6.97394e-08
6.78448e-08
6.61588e-08
6.46844e-08
6.33539e-08
6.21833e-08
6.11133e-08
6.01677e-08
5.92923e-08
5.85174e-08
5.77912e-08
5.71468e-08
5.65365e-08
5.59955e-08
5.54787e-08
5.50195e-08
5.45761e-08
5.41858e-08
5.38035e-08
5.34669e-08
5.31343e-08
5.28441e-08
5.25543e-08
5.23034e-08
5.20487e-08
5.18302e-08
5.16057e-08
5.14143e-08
5.12152e-08
5.10468e-08
5.08689e-08
5.07224e-08
5.05642e-08
5.04338e-08
5.02918e-08
5.01782e-08
5.00517e-08
4.99494e-08
4.98373e-08
4.97511e-08
4.96482e-08
4.957e-08
4.94758e-08
4.94144e-08
4.93302e-08
4.92671e-08
4.9194e-08
4.91333e-08
4.90642e-08
4.90168e-08
4.89489e-08
4.89068e-08
4.88445e-08
4.88031e-08
4.87435e-08
4.87042e-08
4.86548e-08
4.8618e-08
4.85692e-08
4.8532e-08
4.84893e-08
4.84543e-08
4.84192e-08
4.83867e-08
4.83569e-08
4.83295e-08
4.83107e-08
4.82905e-08
4.82739e-08
4.82575e-08
4.8244e-08
4.82286e-08
4.82188e-08
4.82048e-08
4.81962e-08
4.81833e-08
4.81746e-08
4.81632e-08
4.81518e-08
4.81386e-08
4.8119e-08
4.8504e-08
3.67005e-06
2.51514e-08
1.24909e-07
1.22464e-07
1.16468e-07
1.08954e-07
1.0157e-07
9.50359e-08
8.94418e-08
8.47309e-08
8.07312e-08
7.73455e-08
7.44308e-08
7.19319e-08
6.97445e-08
6.78493e-08
6.61628e-08
6.46879e-08
6.3357e-08
6.21859e-08
6.11157e-08
6.01697e-08
5.9294e-08
5.85188e-08
5.77924e-08
5.71477e-08
5.65372e-08
5.5996e-08
5.5479e-08
5.50196e-08
5.4576e-08
5.41856e-08
5.38032e-08
5.34665e-08
5.31336e-08
5.28434e-08
5.25535e-08
5.23025e-08
5.20476e-08
5.18291e-08
5.16045e-08
5.1413e-08
5.12138e-08
5.10453e-08
5.08674e-08
5.07208e-08
5.05626e-08
5.04321e-08
5.029e-08
5.01763e-08
5.00498e-08
4.99475e-08
4.98353e-08
4.97491e-08
4.96461e-08
4.95679e-08
4.94736e-08
4.94122e-08
4.93279e-08
4.92649e-08
4.91917e-08
4.9131e-08
4.90618e-08
4.90144e-08
4.89465e-08
4.89044e-08
4.8842e-08
4.88007e-08
4.8741e-08
4.87017e-08
4.86522e-08
4.86154e-08
4.85666e-08
4.85294e-08
4.84867e-08
4.84517e-08
4.84166e-08
4.83841e-08
4.83542e-08
4.83268e-08
4.83079e-08
4.82877e-08
4.82711e-08
4.82547e-08
4.82411e-08
4.82257e-08
4.82159e-08
4.82019e-08
4.81933e-08
4.81803e-08
4.81716e-08
4.81601e-08
4.81488e-08
4.81355e-08
4.81159e-08
4.85019e-08
3.67018e-06
2.5438e-08
1.24908e-07
1.22468e-07
1.16478e-07
1.08968e-07
1.01585e-07
9.5052e-08
8.94574e-08
8.47454e-08
8.07444e-08
7.73575e-08
7.44416e-08
7.19415e-08
6.97531e-08
6.78569e-08
6.61696e-08
6.46939e-08
6.33622e-08
6.21905e-08
6.11196e-08
6.01731e-08
5.92969e-08
5.85212e-08
5.77943e-08
5.71493e-08
5.65384e-08
5.59968e-08
5.54795e-08
5.50199e-08
5.4576e-08
5.41853e-08
5.38026e-08
5.34657e-08
5.31327e-08
5.28422e-08
5.25522e-08
5.23009e-08
5.20459e-08
5.18273e-08
5.16025e-08
5.14108e-08
5.12115e-08
5.10429e-08
5.08649e-08
5.07182e-08
5.05599e-08
5.04293e-08
5.02871e-08
5.01733e-08
5.00467e-08
4.99443e-08
4.9832e-08
4.97457e-08
4.96427e-08
4.95644e-08
4.94701e-08
4.94085e-08
4.93242e-08
4.92611e-08
4.91879e-08
4.91272e-08
4.90579e-08
4.90105e-08
4.89425e-08
4.89004e-08
4.8838e-08
4.87966e-08
4.87368e-08
4.86975e-08
4.86481e-08
4.86112e-08
4.85624e-08
4.85252e-08
4.84824e-08
4.84474e-08
4.84122e-08
4.83797e-08
4.83498e-08
4.83223e-08
4.83034e-08
4.8283e-08
4.82664e-08
4.82499e-08
4.82364e-08
4.82209e-08
4.8211e-08
4.8197e-08
4.81884e-08
4.81754e-08
4.81666e-08
4.81551e-08
4.81438e-08
4.81305e-08
4.81108e-08
4.84982e-08
3.67029e-06
2.57826e-08
1.24907e-07
1.22472e-07
1.16491e-07
1.08988e-07
1.01608e-07
9.50749e-08
8.94793e-08
8.47659e-08
8.07632e-08
7.73744e-08
7.44568e-08
7.19552e-08
6.97653e-08
6.78678e-08
6.61791e-08
6.47023e-08
6.33697e-08
6.2197e-08
6.11252e-08
6.01779e-08
5.9301e-08
5.85246e-08
5.77971e-08
5.71515e-08
5.65401e-08
5.59981e-08
5.54803e-08
5.50203e-08
5.4576e-08
5.4185e-08
5.38019e-08
5.34647e-08
5.31314e-08
5.28406e-08
5.25503e-08
5.22988e-08
5.20436e-08
5.18247e-08
5.15998e-08
5.14079e-08
5.12084e-08
5.10396e-08
5.08614e-08
5.07146e-08
5.05561e-08
5.04254e-08
5.0283e-08
5.01691e-08
5.00424e-08
4.99399e-08
4.98275e-08
4.97411e-08
4.96379e-08
4.95596e-08
4.94651e-08
4.94035e-08
4.93191e-08
4.92559e-08
4.91827e-08
4.91219e-08
4.90525e-08
4.9005e-08
4.89369e-08
4.88948e-08
4.88323e-08
4.87909e-08
4.87311e-08
4.86917e-08
4.86422e-08
4.86053e-08
4.85565e-08
4.85192e-08
4.84764e-08
4.84414e-08
4.84062e-08
4.83736e-08
4.83437e-08
4.83161e-08
4.82969e-08
4.82765e-08
4.82598e-08
4.82433e-08
4.82297e-08
4.82142e-08
4.82043e-08
4.81902e-08
4.81815e-08
4.81685e-08
4.81596e-08
4.81481e-08
4.81367e-08
4.81233e-08
4.81036e-08
4.8493e-08
3.67043e-06
2.61738e-08
1.24905e-07
1.22478e-07
1.16508e-07
1.09013e-07
1.01637e-07
9.51045e-08
8.95078e-08
8.47925e-08
8.07875e-08
7.73965e-08
7.44767e-08
7.1973e-08
6.97812e-08
6.78819e-08
6.61916e-08
6.47134e-08
6.33793e-08
6.22054e-08
6.11325e-08
6.01842e-08
5.93063e-08
5.85291e-08
5.78009e-08
5.71545e-08
5.65425e-08
5.59998e-08
5.54814e-08
5.50209e-08
5.4576e-08
5.41846e-08
5.38011e-08
5.34635e-08
5.31297e-08
5.28386e-08
5.2548e-08
5.22962e-08
5.20407e-08
5.18215e-08
5.15963e-08
5.14041e-08
5.12044e-08
5.10354e-08
5.08569e-08
5.071e-08
5.05512e-08
5.04204e-08
5.02778e-08
5.01638e-08
5.00369e-08
4.99342e-08
4.98216e-08
4.97351e-08
4.96318e-08
4.95533e-08
4.94587e-08
4.9397e-08
4.93125e-08
4.92492e-08
4.91759e-08
4.91151e-08
4.90456e-08
4.8998e-08
4.89298e-08
4.88876e-08
4.8825e-08
4.87836e-08
4.87237e-08
4.86842e-08
4.86347e-08
4.85978e-08
4.85488e-08
4.85116e-08
4.84687e-08
4.84336e-08
4.83983e-08
4.83657e-08
4.83357e-08
4.83081e-08
4.82887e-08
4.8268e-08
4.82514e-08
4.82348e-08
4.8221e-08
4.82055e-08
4.81955e-08
4.81813e-08
4.81726e-08
4.81595e-08
4.81507e-08
4.81391e-08
4.81276e-08
4.81142e-08
4.80944e-08
4.84863e-08
3.67062e-06
2.6608e-08
1.24903e-07
1.22485e-07
1.16529e-07
1.09044e-07
1.01673e-07
9.51411e-08
8.95431e-08
8.48253e-08
8.08176e-08
7.74238e-08
7.45013e-08
7.1995e-08
6.98008e-08
6.78993e-08
6.62071e-08
6.4727e-08
6.33914e-08
6.22159e-08
6.11417e-08
6.01921e-08
5.9313e-08
5.85348e-08
5.78055e-08
5.71583e-08
5.65454e-08
5.60019e-08
5.54829e-08
5.50216e-08
5.45762e-08
5.41841e-08
5.38001e-08
5.3462e-08
5.31278e-08
5.28362e-08
5.25451e-08
5.2293e-08
5.20371e-08
5.18175e-08
5.1592e-08
5.13996e-08
5.11995e-08
5.10303e-08
5.08515e-08
5.07043e-08
5.05453e-08
5.04142e-08
5.02714e-08
5.01572e-08
5.00301e-08
4.99273e-08
4.98144e-08
4.97278e-08
4.96243e-08
4.95457e-08
4.94509e-08
4.9389e-08
4.93044e-08
4.9241e-08
4.91676e-08
4.91067e-08
4.9037e-08
4.89894e-08
4.8921e-08
4.88788e-08
4.88161e-08
4.87746e-08
4.87146e-08
4.86751e-08
4.86255e-08
4.85885e-08
4.85395e-08
4.85021e-08
4.84593e-08
4.8424e-08
4.83887e-08
4.8356e-08
4.8326e-08
4.82982e-08
4.82786e-08
4.82577e-08
4.82411e-08
4.82244e-08
4.82105e-08
4.81948e-08
4.81848e-08
4.81705e-08
4.81617e-08
4.81486e-08
4.81396e-08
4.8128e-08
4.81165e-08
4.81029e-08
4.80831e-08
4.84782e-08
3.6709e-06
2.7086e-08
1.24901e-07
1.22493e-07
1.16554e-07
1.09082e-07
1.01716e-07
9.51848e-08
8.95851e-08
8.48646e-08
8.08536e-08
7.74564e-08
7.45307e-08
7.20214e-08
6.98243e-08
6.79203e-08
6.62257e-08
6.47434e-08
6.34058e-08
6.22286e-08
6.11526e-08
6.02016e-08
5.93211e-08
5.85416e-08
5.78111e-08
5.71628e-08
5.65489e-08
5.60046e-08
5.54846e-08
5.50226e-08
5.45764e-08
5.41837e-08
5.3799e-08
5.34603e-08
5.31255e-08
5.28334e-08
5.25418e-08
5.22892e-08
5.20328e-08
5.18129e-08
5.15869e-08
5.13941e-08
5.11937e-08
5.10242e-08
5.0845e-08
5.06976e-08
5.05383e-08
5.04069e-08
5.02638e-08
5.01494e-08
5.0022e-08
4.9919e-08
4.98059e-08
4.97191e-08
4.96154e-08
4.95366e-08
4.94416e-08
4.93795e-08
4.92948e-08
4.92312e-08
4.91577e-08
4.90968e-08
4.90269e-08
4.89791e-08
4.89106e-08
4.88683e-08
4.88054e-08
4.87639e-08
4.87038e-08
4.86641e-08
4.86145e-08
4.85774e-08
4.85284e-08
4.84909e-08
4.8448e-08
4.84127e-08
4.83772e-08
4.83445e-08
4.83144e-08
4.82865e-08
4.82665e-08
4.82454e-08
4.82287e-08
4.82119e-08
4.81979e-08
4.81822e-08
4.8172e-08
4.81576e-08
4.81488e-08
4.81355e-08
4.81265e-08
4.81147e-08
4.81032e-08
4.80895e-08
4.80696e-08
4.84685e-08
3.67129e-06
2.76118e-08
1.24898e-07
1.22503e-07
1.16583e-07
1.09125e-07
1.01765e-07
9.52356e-08
8.96341e-08
8.49104e-08
8.08956e-08
7.74946e-08
7.4565e-08
7.20522e-08
6.98519e-08
6.79448e-08
6.62474e-08
6.47627e-08
6.34227e-08
6.22434e-08
6.11655e-08
6.02127e-08
5.93306e-08
5.85496e-08
5.78178e-08
5.71682e-08
5.65531e-08
5.60077e-08
5.54867e-08
5.50238e-08
5.45767e-08
5.41832e-08
5.37978e-08
5.34584e-08
5.31229e-08
5.28302e-08
5.2538e-08
5.22849e-08
5.20279e-08
5.18075e-08
5.15811e-08
5.13879e-08
5.1187e-08
5.10171e-08
5.08376e-08
5.06898e-08
5.05301e-08
5.03985e-08
5.02551e-08
5.01404e-08
5.00127e-08
4.99094e-08
4.9796e-08
4.9709e-08
4.9605e-08
4.95261e-08
4.94308e-08
4.93685e-08
4.92836e-08
4.92199e-08
4.91462e-08
4.90852e-08
4.90151e-08
4.89672e-08
4.88985e-08
4.88562e-08
4.87931e-08
4.87515e-08
4.86912e-08
4.86515e-08
4.86018e-08
4.85646e-08
4.85155e-08
4.84779e-08
4.84349e-08
4.83995e-08
4.83639e-08
4.83311e-08
4.83009e-08
4.82728e-08
4.82525e-08
4.82312e-08
4.82144e-08
4.81975e-08
4.81832e-08
4.81674e-08
4.81571e-08
4.81427e-08
4.81337e-08
4.81203e-08
4.81112e-08
4.80994e-08
4.80877e-08
4.80738e-08
4.80539e-08
4.84573e-08
3.6718e-06
2.8192e-08
1.24894e-07
1.22514e-07
1.16616e-07
1.09174e-07
1.01822e-07
9.52938e-08
8.96903e-08
8.49628e-08
8.09438e-08
7.75383e-08
7.46045e-08
7.20876e-08
6.98835e-08
6.7973e-08
6.62724e-08
6.47848e-08
6.34422e-08
6.22604e-08
6.11803e-08
6.02255e-08
5.93416e-08
5.85589e-08
5.78255e-08
5.71745e-08
5.65581e-08
5.60114e-08
5.54893e-08
5.50253e-08
5.45772e-08
5.41828e-08
5.37964e-08
5.34562e-08
5.312e-08
5.28266e-08
5.25337e-08
5.22799e-08
5.20224e-08
5.18015e-08
5.15745e-08
5.13808e-08
5.11794e-08
5.10091e-08
5.08291e-08
5.06809e-08
5.05208e-08
5.03889e-08
5.02451e-08
5.01301e-08
5.00021e-08
4.98985e-08
4.97848e-08
4.96975e-08
4.95932e-08
4.95141e-08
4.94185e-08
4.93559e-08
4.92708e-08
4.9207e-08
4.91331e-08
4.90721e-08
4.90016e-08
4.89536e-08
4.88847e-08
4.88423e-08
4.8779e-08
4.87373e-08
4.86769e-08
4.8637e-08
4.85872e-08
4.85499e-08
4.85007e-08
4.84631e-08
4.842e-08
4.83844e-08
4.83487e-08
4.83158e-08
4.82854e-08
4.82572e-08
4.82365e-08
4.82149e-08
4.81981e-08
4.8181e-08
4.81665e-08
4.81506e-08
4.81401e-08
4.81256e-08
4.81165e-08
4.8103e-08
4.80938e-08
4.80818e-08
4.807e-08
4.8056e-08
4.80359e-08
4.84445e-08
3.67244e-06
2.88352e-08
1.24891e-07
1.22526e-07
1.16653e-07
1.09229e-07
1.01886e-07
9.53595e-08
8.97537e-08
8.50222e-08
8.09983e-08
7.75878e-08
7.46492e-08
7.21277e-08
6.99193e-08
6.80049e-08
6.63008e-08
6.48099e-08
6.34643e-08
6.22798e-08
6.11972e-08
6.02401e-08
5.93541e-08
5.85695e-08
5.78343e-08
5.71817e-08
5.65637e-08
5.60157e-08
5.54922e-08
5.50271e-08
5.45778e-08
5.41823e-08
5.3795e-08
5.34539e-08
5.31168e-08
5.28227e-08
5.25289e-08
5.22745e-08
5.20162e-08
5.17947e-08
5.1567e-08
5.13728e-08
5.11709e-08
5.10001e-08
5.08196e-08
5.06709e-08
5.05104e-08
5.03781e-08
5.02339e-08
5.01185e-08
4.99901e-08
4.98862e-08
4.97721e-08
4.96845e-08
4.95799e-08
4.95006e-08
4.94046e-08
4.93418e-08
4.92564e-08
4.91924e-08
4.91183e-08
4.90572e-08
4.89864e-08
4.89383e-08
4.88691e-08
4.88266e-08
4.87631e-08
4.87213e-08
4.86607e-08
4.86207e-08
4.85708e-08
4.85334e-08
4.84841e-08
4.84463e-08
4.84031e-08
4.83675e-08
4.83316e-08
4.82985e-08
4.82681e-08
4.82397e-08
4.82185e-08
4.81966e-08
4.81796e-08
4.81624e-08
4.81477e-08
4.81316e-08
4.8121e-08
4.81063e-08
4.80971e-08
4.80834e-08
4.80741e-08
4.8062e-08
4.80501e-08
4.80358e-08
4.80157e-08
4.84302e-08
3.67319e-06
2.95515e-08
1.24887e-07
1.22539e-07
1.16694e-07
1.09291e-07
1.01957e-07
9.54327e-08
8.98246e-08
8.50885e-08
8.10593e-08
7.76433e-08
7.46992e-08
7.21726e-08
6.99595e-08
6.80408e-08
6.63326e-08
6.48381e-08
6.34891e-08
6.23016e-08
6.12162e-08
6.02566e-08
5.93682e-08
5.85814e-08
5.78442e-08
5.71898e-08
5.65701e-08
5.60206e-08
5.54956e-08
5.50292e-08
5.45786e-08
5.4182e-08
5.37935e-08
5.34515e-08
5.31133e-08
5.28183e-08
5.25237e-08
5.22685e-08
5.20094e-08
5.17872e-08
5.15588e-08
5.1364e-08
5.11615e-08
5.09901e-08
5.08091e-08
5.06599e-08
5.04989e-08
5.03661e-08
5.02214e-08
5.01056e-08
4.99768e-08
4.98726e-08
4.9758e-08
4.96701e-08
4.95652e-08
4.94855e-08
4.93892e-08
4.93261e-08
4.92405e-08
4.91762e-08
4.91019e-08
4.90407e-08
4.89695e-08
4.89213e-08
4.88518e-08
4.88092e-08
4.87453e-08
4.87035e-08
4.86427e-08
4.86025e-08
4.85526e-08
4.8515e-08
4.84656e-08
4.84277e-08
4.83843e-08
4.83485e-08
4.83125e-08
4.82793e-08
4.82487e-08
4.82201e-08
4.81985e-08
4.81762e-08
4.81591e-08
4.81416e-08
4.81267e-08
4.81105e-08
4.80996e-08
4.80848e-08
4.80754e-08
4.80616e-08
4.80522e-08
4.80399e-08
4.80279e-08
4.80134e-08
4.79931e-08
4.84143e-08
3.67402e-06
3.03526e-08
1.24882e-07
1.22553e-07
1.1674e-07
1.09359e-07
1.02036e-07
9.55137e-08
8.9903e-08
8.5162e-08
8.11269e-08
7.77048e-08
7.47547e-08
7.22226e-08
7.00042e-08
6.80806e-08
6.63681e-08
6.48695e-08
6.35168e-08
6.2326e-08
6.12375e-08
6.0275e-08
5.93839e-08
5.85948e-08
5.78554e-08
5.7199e-08
5.65774e-08
5.60261e-08
5.54995e-08
5.50316e-08
5.45796e-08
5.41817e-08
5.3792e-08
5.34488e-08
5.31096e-08
5.28136e-08
5.2518e-08
5.22619e-08
5.2002e-08
5.1779e-08
5.15499e-08
5.13544e-08
5.11511e-08
5.09792e-08
5.07975e-08
5.06478e-08
5.04862e-08
5.03529e-08
5.02077e-08
5.00914e-08
4.99621e-08
4.98576e-08
4.97425e-08
4.96542e-08
4.95489e-08
4.9469e-08
4.93722e-08
4.93087e-08
4.92228e-08
4.91583e-08
4.90838e-08
4.90224e-08
4.89509e-08
4.89024e-08
4.88326e-08
4.879e-08
4.87258e-08
4.86839e-08
4.86229e-08
4.85824e-08
4.85324e-08
4.84947e-08
4.84451e-08
4.84071e-08
4.83636e-08
4.83276e-08
4.82914e-08
4.82581e-08
4.82273e-08
4.81985e-08
4.81763e-08
4.81538e-08
4.81365e-08
4.81187e-08
4.81035e-08
4.80871e-08
4.80761e-08
4.8061e-08
4.80515e-08
4.80375e-08
4.8028e-08
4.80155e-08
4.80034e-08
4.79886e-08
4.79682e-08
4.83968e-08
3.67487e-06
3.12508e-08
1.24877e-07
1.22569e-07
1.16789e-07
1.09433e-07
1.02122e-07
9.56026e-08
8.99891e-08
8.52428e-08
8.12013e-08
7.77725e-08
7.4816e-08
7.22776e-08
7.00535e-08
6.81246e-08
6.64072e-08
6.49042e-08
6.35475e-08
6.23529e-08
6.1261e-08
6.02954e-08
5.94015e-08
5.86097e-08
5.78679e-08
5.72092e-08
5.65856e-08
5.60323e-08
5.5504e-08
5.50344e-08
5.45809e-08
5.41815e-08
5.37904e-08
5.34461e-08
5.31056e-08
5.28085e-08
5.25118e-08
5.22548e-08
5.19939e-08
5.17701e-08
5.15401e-08
5.13439e-08
5.11398e-08
5.09673e-08
5.07848e-08
5.06345e-08
5.04723e-08
5.03385e-08
5.01927e-08
5.0076e-08
4.99461e-08
4.98411e-08
4.97256e-08
4.96369e-08
4.95311e-08
4.94509e-08
4.93536e-08
4.92897e-08
4.92035e-08
4.91387e-08
4.90639e-08
4.90024e-08
4.89304e-08
4.88818e-08
4.88117e-08
4.87689e-08
4.87044e-08
4.86623e-08
4.86011e-08
4.85605e-08
4.85103e-08
4.84724e-08
4.84227e-08
4.83845e-08
4.83409e-08
4.83047e-08
4.82683e-08
4.82348e-08
4.82038e-08
4.81748e-08
4.81521e-08
4.81291e-08
4.81116e-08
4.80936e-08
4.80781e-08
4.80615e-08
4.80502e-08
4.8035e-08
4.80253e-08
4.80111e-08
4.80015e-08
4.79888e-08
4.79765e-08
4.79613e-08
4.79409e-08
4.83776e-08
3.6756e-06
3.22596e-08
1.24872e-07
1.22586e-07
1.16842e-07
1.09514e-07
1.02216e-07
9.56995e-08
9.00832e-08
8.53311e-08
8.12827e-08
7.78467e-08
7.4883e-08
7.2338e-08
7.01076e-08
6.81729e-08
6.64502e-08
6.49424e-08
6.35812e-08
6.23825e-08
6.12869e-08
6.03179e-08
5.94208e-08
5.86262e-08
5.78817e-08
5.72206e-08
5.65946e-08
5.60394e-08
5.5509e-08
5.50377e-08
5.45824e-08
5.41815e-08
5.37889e-08
5.34432e-08
5.31014e-08
5.28032e-08
5.25053e-08
5.22472e-08
5.19853e-08
5.17605e-08
5.15296e-08
5.13326e-08
5.11276e-08
5.09544e-08
5.07712e-08
5.06202e-08
5.04573e-08
5.0323e-08
5.01764e-08
5.00592e-08
4.99288e-08
4.98233e-08
4.97071e-08
4.96181e-08
4.95118e-08
4.94312e-08
4.93334e-08
4.92691e-08
4.91825e-08
4.91175e-08
4.90423e-08
4.89807e-08
4.89082e-08
4.88594e-08
4.87889e-08
4.8746e-08
4.86811e-08
4.86389e-08
4.85774e-08
4.85366e-08
4.84863e-08
4.84482e-08
4.83983e-08
4.83599e-08
4.83161e-08
4.82798e-08
4.82431e-08
4.82094e-08
4.81782e-08
4.8149e-08
4.81257e-08
4.81024e-08
4.80846e-08
4.80662e-08
4.80504e-08
4.80337e-08
4.80221e-08
4.80066e-08
4.79968e-08
4.79823e-08
4.79725e-08
4.79596e-08
4.79471e-08
4.79317e-08
4.79112e-08
4.83567e-08
3.67608e-06
3.3393e-08
1.24866e-07
1.22604e-07
1.16899e-07
1.096e-07
1.02318e-07
9.58045e-08
9.01853e-08
8.54271e-08
8.13713e-08
7.79275e-08
7.49561e-08
7.24038e-08
7.01666e-08
6.82257e-08
6.64972e-08
6.49841e-08
6.3618e-08
6.2415e-08
6.13152e-08
6.03426e-08
5.94421e-08
5.86443e-08
5.78969e-08
5.72332e-08
5.66047e-08
5.60472e-08
5.55147e-08
5.50414e-08
5.45843e-08
5.41817e-08
5.37875e-08
5.34403e-08
5.30971e-08
5.27975e-08
5.24983e-08
5.22391e-08
5.19761e-08
5.17503e-08
5.15183e-08
5.13204e-08
5.11146e-08
5.09405e-08
5.07565e-08
5.06048e-08
5.04411e-08
5.03062e-08
5.01589e-08
5.00411e-08
4.99101e-08
4.98041e-08
4.96873e-08
4.95977e-08
4.94909e-08
4.94099e-08
4.93116e-08
4.92469e-08
4.91599e-08
4.90945e-08
4.9019e-08
4.89572e-08
4.88842e-08
4.88352e-08
4.87643e-08
4.87212e-08
4.86559e-08
4.86136e-08
4.85518e-08
4.85107e-08
4.84603e-08
4.84219e-08
4.83719e-08
4.83333e-08
4.82894e-08
4.82528e-08
4.82159e-08
4.8182e-08
4.81506e-08
4.81211e-08
4.80972e-08
4.80734e-08
4.80554e-08
4.80366e-08
4.80205e-08
4.80035e-08
4.79916e-08
4.7976e-08
4.79659e-08
4.79512e-08
4.79412e-08
4.79281e-08
4.79154e-08
4.78995e-08
4.78789e-08
4.83342e-08
3.67609e-06
3.46654e-08
1.2486e-07
1.22623e-07
1.1696e-07
1.09694e-07
1.02427e-07
9.59178e-08
9.02956e-08
8.5531e-08
8.14672e-08
7.8015e-08
7.50354e-08
7.24752e-08
7.02307e-08
6.8283e-08
6.65483e-08
6.50295e-08
6.36582e-08
6.24504e-08
6.13462e-08
6.03695e-08
5.94653e-08
5.86642e-08
5.79136e-08
5.7247e-08
5.66159e-08
5.60559e-08
5.55211e-08
5.50457e-08
5.45865e-08
5.41821e-08
5.37861e-08
5.34373e-08
5.30926e-08
5.27916e-08
5.2491e-08
5.22306e-08
5.19663e-08
5.17394e-08
5.15063e-08
5.13075e-08
5.11006e-08
5.09257e-08
5.07407e-08
5.05883e-08
5.04238e-08
5.02882e-08
5.01402e-08
5.00217e-08
4.989e-08
4.97835e-08
4.96659e-08
4.95759e-08
4.94685e-08
4.93871e-08
4.92882e-08
4.92229e-08
4.91355e-08
4.90697e-08
4.89938e-08
4.89319e-08
4.88584e-08
4.88091e-08
4.87378e-08
4.86946e-08
4.86288e-08
4.85864e-08
4.85242e-08
4.84829e-08
4.84323e-08
4.83937e-08
4.83435e-08
4.83047e-08
4.82605e-08
4.82238e-08
4.81866e-08
4.81525e-08
4.81207e-08
4.8091e-08
4.80666e-08
4.80423e-08
4.80239e-08
4.80047e-08
4.79883e-08
4.79711e-08
4.79588e-08
4.79429e-08
4.79326e-08
4.79176e-08
4.79075e-08
4.7894e-08
4.78812e-08
4.78648e-08
4.78442e-08
4.83099e-08
3.67535e-06
3.60918e-08
1.24853e-07
1.22643e-07
1.17025e-07
1.09793e-07
1.02544e-07
9.60395e-08
9.04143e-08
8.56429e-08
8.15706e-08
7.81095e-08
7.5121e-08
7.25525e-08
7.03001e-08
6.83451e-08
6.66036e-08
6.50787e-08
6.37018e-08
6.24888e-08
6.13799e-08
6.03989e-08
5.94907e-08
5.86859e-08
5.7932e-08
5.72623e-08
5.66283e-08
5.60656e-08
5.55282e-08
5.50506e-08
5.45892e-08
5.41828e-08
5.37849e-08
5.34344e-08
5.3088e-08
5.27855e-08
5.24834e-08
5.22216e-08
5.1956e-08
5.17279e-08
5.14937e-08
5.12938e-08
5.10858e-08
5.091e-08
5.0724e-08
5.05707e-08
5.04053e-08
5.0269e-08
5.01202e-08
5.0001e-08
4.98685e-08
4.97614e-08
4.96432e-08
4.95526e-08
4.94445e-08
4.93627e-08
4.92631e-08
4.91973e-08
4.91095e-08
4.90433e-08
4.8967e-08
4.89048e-08
4.88307e-08
4.87812e-08
4.87094e-08
4.86661e-08
4.85998e-08
4.85572e-08
4.84946e-08
4.84531e-08
4.84022e-08
4.83634e-08
4.8313e-08
4.8274e-08
4.82296e-08
4.81927e-08
4.81551e-08
4.81208e-08
4.80888e-08
4.80588e-08
4.80337e-08
4.8009e-08
4.79902e-08
4.79705e-08
4.79537e-08
4.79362e-08
4.79236e-08
4.79075e-08
4.78968e-08
4.78816e-08
4.78713e-08
4.78576e-08
4.78445e-08
4.78276e-08
4.78069e-08
4.82837e-08
3.67352e-06
3.76874e-08
1.24845e-07
1.22664e-07
1.17094e-07
1.099e-07
1.02669e-07
9.61698e-08
9.05416e-08
8.5763e-08
8.16817e-08
7.82111e-08
7.52132e-08
7.26357e-08
7.03749e-08
6.84121e-08
6.66635e-08
6.5132e-08
6.3749e-08
6.25305e-08
6.14165e-08
6.04309e-08
5.95183e-08
5.87096e-08
5.7952e-08
5.7279e-08
5.66418e-08
5.60763e-08
5.55362e-08
5.50562e-08
5.45924e-08
5.41839e-08
5.37839e-08
5.34316e-08
5.30833e-08
5.27792e-08
5.24755e-08
5.22123e-08
5.19452e-08
5.17159e-08
5.14803e-08
5.12793e-08
5.10702e-08
5.08934e-08
5.07063e-08
5.05521e-08
5.03857e-08
5.02486e-08
5.00989e-08
4.9979e-08
4.98458e-08
4.9738e-08
4.96189e-08
4.95278e-08
4.9419e-08
4.93367e-08
4.92364e-08
4.91701e-08
4.90817e-08
4.90151e-08
4.89383e-08
4.88759e-08
4.88012e-08
4.87514e-08
4.86791e-08
4.86356e-08
4.85688e-08
4.8526e-08
4.84631e-08
4.84212e-08
4.83702e-08
4.83312e-08
4.82805e-08
4.82412e-08
4.81967e-08
4.81594e-08
4.81216e-08
4.8087e-08
4.80547e-08
4.80244e-08
4.79987e-08
4.79734e-08
4.79542e-08
4.7934e-08
4.79168e-08
4.78991e-08
4.78861e-08
4.78696e-08
4.78587e-08
4.78432e-08
4.78326e-08
4.78186e-08
4.78053e-08
4.77878e-08
4.77671e-08
4.82557e-08
3.67019e-06
3.94672e-08
1.24838e-07
1.22686e-07
1.17167e-07
1.10012e-07
1.02803e-07
9.63087e-08
9.06775e-08
8.58915e-08
8.18008e-08
7.83201e-08
7.53122e-08
7.27251e-08
7.04553e-08
6.84842e-08
6.67279e-08
6.51894e-08
6.37999e-08
6.25755e-08
6.14561e-08
6.04654e-08
5.95483e-08
5.87354e-08
5.79738e-08
5.72973e-08
5.66567e-08
5.60882e-08
5.55452e-08
5.50625e-08
5.45962e-08
5.41854e-08
5.37832e-08
5.34289e-08
5.30787e-08
5.27728e-08
5.24674e-08
5.22026e-08
5.19339e-08
5.17033e-08
5.14663e-08
5.12641e-08
5.10537e-08
5.08758e-08
5.06877e-08
5.05325e-08
5.03651e-08
5.02271e-08
5.00765e-08
4.99558e-08
4.98216e-08
4.97132e-08
4.95933e-08
4.95015e-08
4.9392e-08
4.93091e-08
4.92081e-08
4.91412e-08
4.90522e-08
4.89852e-08
4.89079e-08
4.88452e-08
4.87698e-08
4.87198e-08
4.8647e-08
4.86033e-08
4.85359e-08
4.8493e-08
4.84296e-08
4.83874e-08
4.83362e-08
4.82968e-08
4.82459e-08
4.82064e-08
4.81616e-08
4.81241e-08
4.80859e-08
4.80511e-08
4.80183e-08
4.79878e-08
4.79615e-08
4.79356e-08
4.79159e-08
4.78951e-08
4.78776e-08
4.78595e-08
4.78461e-08
4.78293e-08
4.78181e-08
4.78023e-08
4.77915e-08
4.77771e-08
4.77635e-08
4.77455e-08
4.77247e-08
4.82258e-08
3.66487e-06
4.14461e-08
1.2483e-07
1.22708e-07
1.17243e-07
1.10131e-07
1.02944e-07
9.64565e-08
9.08224e-08
8.60287e-08
8.19281e-08
7.84367e-08
7.54182e-08
7.2821e-08
7.05415e-08
6.85616e-08
6.67971e-08
6.52511e-08
6.38547e-08
6.2624e-08
6.14987e-08
6.05028e-08
5.95807e-08
5.87633e-08
5.79976e-08
5.73172e-08
5.66731e-08
5.61012e-08
5.55552e-08
5.50697e-08
5.46007e-08
5.41874e-08
5.37829e-08
5.34265e-08
5.30741e-08
5.27664e-08
5.2459e-08
5.21927e-08
5.19223e-08
5.16902e-08
5.14517e-08
5.12482e-08
5.10365e-08
5.08575e-08
5.06681e-08
5.05119e-08
5.03434e-08
5.02045e-08
5.00528e-08
4.99313e-08
4.97962e-08
4.96871e-08
4.95662e-08
4.94737e-08
4.93634e-08
4.928e-08
4.91782e-08
4.91106e-08
4.90211e-08
4.89535e-08
4.88756e-08
4.88127e-08
4.87366e-08
4.86863e-08
4.8613e-08
4.8569e-08
4.8501e-08
4.84579e-08
4.83941e-08
4.83516e-08
4.83001e-08
4.82604e-08
4.82093e-08
4.81694e-08
4.81244e-08
4.80866e-08
4.80481e-08
4.8013e-08
4.79798e-08
4.7949e-08
4.79221e-08
4.78956e-08
4.78754e-08
4.78539e-08
4.78361e-08
4.78176e-08
4.78037e-08
4.77866e-08
4.7775e-08
4.77588e-08
4.77478e-08
4.7733e-08
4.77192e-08
4.77004e-08
4.76797e-08
4.81938e-08
3.657e-06
4.36394e-08
1.24821e-07
1.22732e-07
1.17323e-07
1.10257e-07
1.03093e-07
9.66132e-08
9.09764e-08
8.61747e-08
8.20637e-08
7.85611e-08
7.55314e-08
7.29234e-08
7.06338e-08
6.86445e-08
6.68713e-08
6.53173e-08
6.39136e-08
6.26762e-08
6.15447e-08
6.05431e-08
5.96158e-08
5.87936e-08
5.80234e-08
5.73389e-08
5.6691e-08
5.61156e-08
5.55662e-08
5.50778e-08
5.46059e-08
5.419e-08
5.37829e-08
5.34243e-08
5.30697e-08
5.276e-08
5.24506e-08
5.21825e-08
5.19103e-08
5.16767e-08
5.14366e-08
5.12317e-08
5.10186e-08
5.08384e-08
5.06476e-08
5.04903e-08
5.03206e-08
5.01808e-08
5.0028e-08
4.99056e-08
4.97695e-08
4.96596e-08
4.95377e-08
4.94445e-08
4.93334e-08
4.92494e-08
4.91468e-08
4.90784e-08
4.89883e-08
4.89202e-08
4.88417e-08
4.87784e-08
4.87016e-08
4.86509e-08
4.85771e-08
4.85329e-08
4.84642e-08
4.84209e-08
4.83566e-08
4.83138e-08
4.8262e-08
4.8222e-08
4.81706e-08
4.81304e-08
4.80851e-08
4.80471e-08
4.80081e-08
4.79727e-08
4.79391e-08
4.79079e-08
4.78805e-08
4.78534e-08
4.78325e-08
4.78103e-08
4.77922e-08
4.77733e-08
4.77588e-08
4.77414e-08
4.77295e-08
4.77129e-08
4.77016e-08
4.76864e-08
4.76724e-08
4.76528e-08
4.76321e-08
4.81598e-08
3.64595e-06
4.60605e-08
1.24812e-07
1.22756e-07
1.17407e-07
1.10389e-07
1.03251e-07
9.6779e-08
9.11396e-08
8.63297e-08
8.22079e-08
7.86935e-08
7.5652e-08
7.30327e-08
7.07324e-08
6.87331e-08
6.69507e-08
6.53883e-08
6.39767e-08
6.27322e-08
6.15941e-08
6.05865e-08
5.96536e-08
5.88263e-08
5.80514e-08
5.73626e-08
5.67105e-08
5.61315e-08
5.55785e-08
5.50869e-08
5.46119e-08
5.41932e-08
5.37835e-08
5.34224e-08
5.30654e-08
5.27536e-08
5.24421e-08
5.21721e-08
5.18981e-08
5.16628e-08
5.1421e-08
5.12146e-08
5.09999e-08
5.08185e-08
5.06263e-08
5.04678e-08
5.02969e-08
5.0156e-08
5.0002e-08
4.98787e-08
4.97415e-08
4.96308e-08
4.95079e-08
4.94139e-08
4.93019e-08
4.92172e-08
4.91137e-08
4.90446e-08
4.89538e-08
4.88851e-08
4.88059e-08
4.87424e-08
4.86647e-08
4.86137e-08
4.85393e-08
4.84948e-08
4.84255e-08
4.8382e-08
4.83171e-08
4.8274e-08
4.82219e-08
4.81815e-08
4.81298e-08
4.80893e-08
4.80437e-08
4.80054e-08
4.7966e-08
4.79302e-08
4.78962e-08
4.78647e-08
4.78367e-08
4.7809e-08
4.77874e-08
4.77644e-08
4.7746e-08
4.77265e-08
4.77116e-08
4.76938e-08
4.76814e-08
4.76645e-08
4.76529e-08
4.76373e-08
4.76229e-08
4.76025e-08
4.75819e-08
4.81235e-08
3.63103e-06
4.87217e-08
1.24802e-07
1.22781e-07
1.17494e-07
1.10527e-07
1.03417e-07
9.6954e-08
9.13123e-08
8.6494e-08
8.23609e-08
7.88343e-08
7.57803e-08
7.31491e-08
7.08375e-08
6.88277e-08
6.70355e-08
6.54641e-08
6.40443e-08
6.27923e-08
6.16471e-08
6.06332e-08
5.96943e-08
5.88616e-08
5.80816e-08
5.73883e-08
5.67319e-08
5.61489e-08
5.55922e-08
5.50972e-08
5.46189e-08
5.41973e-08
5.37847e-08
5.3421e-08
5.30615e-08
5.27474e-08
5.24337e-08
5.21617e-08
5.18856e-08
5.16485e-08
5.14049e-08
5.1197e-08
5.09807e-08
5.07978e-08
5.06042e-08
5.04445e-08
5.02722e-08
5.01302e-08
4.9975e-08
4.98506e-08
4.97124e-08
4.96007e-08
4.94767e-08
4.93819e-08
4.92689e-08
4.91836e-08
4.90791e-08
4.90092e-08
4.89177e-08
4.88484e-08
4.87684e-08
4.87045e-08
4.86261e-08
4.85747e-08
4.84997e-08
4.84549e-08
4.83849e-08
4.83411e-08
4.82756e-08
4.82322e-08
4.81797e-08
4.8139e-08
4.80869e-08
4.80462e-08
4.80002e-08
4.79615e-08
4.79217e-08
4.78856e-08
4.78511e-08
4.78193e-08
4.77908e-08
4.77624e-08
4.774e-08
4.77161e-08
4.76974e-08
4.76774e-08
4.76619e-08
4.76437e-08
4.76309e-08
4.76136e-08
4.76016e-08
4.75856e-08
4.75709e-08
4.75495e-08
4.75291e-08
4.80849e-08
3.61148e-06
5.1633e-08
1.24792e-07
1.22806e-07
1.17585e-07
1.10671e-07
1.03591e-07
9.71383e-08
9.14946e-08
8.66677e-08
8.25229e-08
7.89835e-08
7.59166e-08
7.32728e-08
7.09493e-08
6.89284e-08
6.7126e-08
6.55451e-08
6.41166e-08
6.28565e-08
6.1704e-08
6.06833e-08
5.97381e-08
5.88997e-08
5.81144e-08
5.74161e-08
5.67552e-08
5.6168e-08
5.56073e-08
5.51087e-08
5.46269e-08
5.42022e-08
5.37865e-08
5.34202e-08
5.3058e-08
5.27415e-08
5.24253e-08
5.21512e-08
5.1873e-08
5.1634e-08
5.13885e-08
5.1179e-08
5.09609e-08
5.07766e-08
5.05814e-08
5.04203e-08
5.02466e-08
5.01034e-08
4.99469e-08
4.98214e-08
4.9682e-08
4.95694e-08
4.94442e-08
4.93485e-08
4.92345e-08
4.91484e-08
4.9043e-08
4.89722e-08
4.88799e-08
4.881e-08
4.87292e-08
4.8665e-08
4.85856e-08
4.85339e-08
4.84583e-08
4.8413e-08
4.83423e-08
4.82984e-08
4.82322e-08
4.81884e-08
4.81356e-08
4.80944e-08
4.80421e-08
4.80009e-08
4.79546e-08
4.79156e-08
4.78753e-08
4.78389e-08
4.78038e-08
4.77716e-08
4.77426e-08
4.77136e-08
4.76903e-08
4.76656e-08
4.76464e-08
4.76259e-08
4.76098e-08
4.75911e-08
4.75779e-08
4.75601e-08
4.75479e-08
4.75313e-08
4.75163e-08
4.74938e-08
4.74736e-08
4.8044e-08
3.58651e-06
5.48015e-08
1.24781e-07
1.22832e-07
1.17679e-07
1.10822e-07
1.03774e-07
9.7332e-08
9.16866e-08
8.6851e-08
8.26943e-08
7.91415e-08
7.6061e-08
7.34041e-08
7.10681e-08
6.90355e-08
6.72223e-08
6.56315e-08
6.41937e-08
6.29252e-08
6.17649e-08
6.0737e-08
5.97852e-08
5.89408e-08
5.81497e-08
5.74463e-08
5.67805e-08
5.61889e-08
5.5624e-08
5.51216e-08
5.46362e-08
5.42081e-08
5.37892e-08
5.342e-08
5.30549e-08
5.27359e-08
5.24172e-08
5.21408e-08
5.18604e-08
5.16194e-08
5.13719e-08
5.11606e-08
5.09406e-08
5.07548e-08
5.05579e-08
5.03954e-08
5.02201e-08
5.00758e-08
4.99179e-08
4.97912e-08