/*--------------------------------*- C++ -*----------------------------------*\
| =========                 |                                                 |
| \\      /  F ield         | OpenFOAM: The Open Source CFD Toolbox           |
|  \\    /   O peration     | Version:  v2012                                 |
|   \\  /    A nd           | Website:  www.openfoam.com                      |
|    \\/     M anipulation  |                                                 |
\*---------------------------------------------------------------------------*/
FoamFile
{
    version     2.0;
    format      ascii;
    class       volScalarField;
    location    "36";
    object      yPlus;
}
// * * * * * * * * * * * * * * * * * * * * * * * * * * * * * * * * * * * * * //

dimensions      [0 0 0 0 0 0 0];


internalField   uniform 0;

boundaryField
{
    inlet
    {
        type            calculated;
        value           uniform 0;
    }
    outlet
    {
        type            calculated;
        value           uniform 0;
    }
    topWall
    {
        type            calculated;
        value           nonuniform List<scalar> 
545
(
0.147925
0.255123
0.327297
0.384717
0.43332
0.475841
0.513815
0.548207
0.579677
0.608697
0.635621
0.660723
0.684221
0.706292
0.727082
0.746714
0.765291
0.782903
0.799628
0.815534
0.830681
0.845122
0.858904
0.872072
0.884663
0.896713
0.908254
0.919315
0.929922
0.940102
0.949876
0.959265
0.96829
0.976968
0.985317
0.993353
1.00109
1.00854
1.01572
1.02264
1.02931
1.03575
1.04196
1.04795
1.05373
1.05932
1.06471
1.06992
1.07496
1.07982
1.08453
1.08907
1.09347
1.09772
1.10184
1.10582
1.10967
1.1134
1.11701
1.12051
1.12389
1.12717
1.13035
1.13342
1.13641
1.13929
1.14209
1.14481
1.14744
1.14999
1.15246
1.15486
1.15715
1.15937
1.16158
1.16376
1.16593
1.16808
1.17021
1.17232
1.17442
1.1765
1.17856
1.18061
1.18264
1.18465
1.18665
1.18863
1.19059
1.19254
1.19448
1.1964
1.1983
1.20019
1.20206
1.20392
1.2056
1.20709
1.20859
1.21009
1.21158
1.21308
1.21457
1.21607
1.21756
1.21905
1.22054
1.22204
1.22353
1.22502
1.22651
1.228
1.22948
1.23097
1.23246
1.23395
1.23543
1.23692
1.2384
1.23989
1.24137
1.24285
1.24434
1.24582
1.2473
1.24878
1.25026
1.25173
1.25321
1.25469
1.25616
1.25764
1.25911
1.26059
1.26206
1.26353
1.265
1.26647
1.26794
1.26941
1.27087
1.27234
1.2738
1.27527
1.27673
1.27819
1.27965
1.28111
1.28257
1.28403
1.28548
1.28694
1.28839
1.28985
1.2913
1.29275
1.2942
1.29565
1.2971
1.29854
1.29999
1.30143
1.30287
1.30432
1.30576
1.30719
1.30863
1.31007
1.3115
1.31294
1.31437
1.3158
1.31723
1.31865
1.32008
1.32151
1.32293
1.32435
1.32577
1.32719
1.32861
1.33002
1.33144
1.33285
1.33426
1.33567
1.33708
1.33849
1.33989
1.34129
1.3427
1.3441
1.34549
1.34689
1.34828
1.34968
1.35107
1.35246
1.35384
1.35523
1.35661
1.358
1.35937
1.36075
1.36213
1.3635
1.36488
1.36625
1.36761
1.36898
1.37034
1.37171
1.37307
1.37442
1.37578
1.37713
1.37849
1.37983
1.38118
1.38253
1.38387
1.38521
1.38655
1.38789
1.38922
1.39055
1.39188
1.39321
1.39453
1.39585
1.39717
1.39849
1.39981
1.40112
1.40243
1.40374
1.40504
1.40634
1.40764
1.40894
1.41023
1.41153
1.41282
1.4141
1.41539
1.41667
1.41795
1.41922
1.4205
1.42177
1.42304
1.4243
1.42556
1.42682
1.42808
1.42933
1.43058
1.43183
1.43308
1.43432
1.43556
1.43679
1.43803
1.43925
1.44048
1.44171
1.44293
1.44414
1.44536
1.4465
1.44758
1.44866
1.44975
1.45085
1.45196
1.45307
1.45419
1.45531
1.45644
1.45758
1.45873
1.45988
1.46104
1.4622
1.46337
1.46455
1.46573
1.46692
1.46812
1.46932
1.47053
1.47175
1.47297
1.47419
1.47543
1.47666
1.47791
1.47916
1.48041
1.48167
1.48294
1.48421
1.48549
1.48677
1.48805
1.48934
1.49064
1.49194
1.49324
1.49455
1.49586
1.49718
1.4985
1.49983
1.50115
1.50249
1.50382
1.50516
1.5065
1.50784
1.50919
1.51054
1.51189
1.51324
1.51459
1.51595
1.51731
1.51867
1.52003
1.52139
1.52275
1.52411
1.52547
1.52683
1.52819
1.52955
1.53091
1.53227
1.53362
1.53498
1.53633
1.53768
1.53903
1.54037
1.54171
1.54305
1.54438
1.54571
1.54704
1.54836
1.54967
1.55098
1.55228
1.55358
1.55487
1.55615
1.55743
1.55869
1.55995
1.56121
1.56245
1.56368
1.5649
1.56611
1.56732
1.56851
1.56969
1.57085
1.57201
1.57315
1.57428
1.57539
1.57649
1.57758
1.57865
1.57971
1.58075
1.58177
1.58278
1.58376
1.58473
1.58569
1.58662
1.58753
1.58843
1.5893
1.59015
1.59098
1.59179
1.59258
1.59334
1.59408
1.59479
1.59549
1.59615
1.59679
1.59741
1.598
1.59856
1.59909
1.5996
1.60008
1.60053
1.60095
1.60134
1.6017
1.60203
1.60232
1.60259
1.60283
1.60303
1.6032
1.60334
1.60344
1.60351
1.60355
1.60355
1.60351
1.60344
1.60334
1.6032
1.60302
1.60281
1.60256
1.60227
1.60195
1.60159
1.60119
1.60076
1.60028
1.59977
1.59922
1.59864
1.59801
1.59735
1.59665
1.59591
1.59513
1.59431
1.59346
1.59257
1.59164
1.59067
1.58967
1.58863
1.58755
1.58644
1.58529
1.5841
1.58287
1.58147
1.5799
1.57829
1.57665
1.57499
1.57331
1.5716
1.56988
1.56813
1.56638
1.5646
1.56282
1.56102
1.55921
1.55739
1.55557
1.55374
1.55191
1.55008
1.54824
1.5464
1.54457
1.54273
1.54091
1.53908
1.53726
1.53544
1.53364
1.53184
1.53005
1.52826
1.5265
1.52474
1.52299
1.52126
1.51954
1.51784
1.51615
1.51448
1.51282
1.51118
1.50957
1.50796
1.50639
1.50482
1.50328
1.50176
1.50027
1.49879
1.49734
1.49591
1.49451
1.49312
1.49177
1.49044
1.48914
1.48785
1.48661
1.48538
1.48419
1.48302
1.48188
1.48077
1.47969
1.47863
1.47761
1.47662
1.47566
1.47473
1.47384
1.47297
1.47214
1.47133
1.47057
1.46983
1.46913
1.46846
1.46783
1.46723
1.46666
1.46613
1.46563
1.46517
1.46474
1.46435
1.464
1.46368
1.46339
1.46314
1.46293
1.46275
1.46261
1.4625
1.46244
1.46238
)
;
    }
    bottomWall
    {
        type            calculated;
        value           nonuniform List<scalar> 
449
(
0.00274011
0.0048048
0.0053783
0.00533066
0.00525932
0.00516304
0.00506543
0.00497404
0.0048902
0.00481358
0.00474351
0.00467926
0.00462013
0.00456537
0.0045145
0.0044671
0.00442277
0.0043812
0.00434206
0.00430509
0.0042701
0.00423689
0.00420529
0.00417518
0.00414642
0.00411891
0.00409256
0.00406727
0.00404298
0.00401962
0.00399713
0.00397544
0.00395451
0.00393427
0.00391471
0.00389577
0.00387742
0.00385962
0.00384234
0.00382555
0.00380922
0.00379333
0.00377787
0.00376279
0.0037481
0.00373377
0.00371978
0.00370613
0.0036928
0.00367978
0.00366705
0.0036546
0.00364243
0.00363051
0.00361884
0.0036074
0.0035962
0.00358521
0.00357443
0.00356384
0.00355346
0.00354325
0.00353323
0.00352337
0.00351369
0.00350415
0.00349478
0.00348556
0.00347648
0.00346754
0.00345874
0.00345007
0.00344154
0.00343312
0.00342483
0.00341666
0.0034086
0.00340065
0.00339282
0.00338509
0.00337746
0.00336994
0.00336251
0.00335518
0.00334795
0.0033408
0.00333375
0.00332678
0.0033199
0.0033131
0.00330638
0.00329975
0.00329319
0.00328671
0.0032803
0.00327396
0.0032677
0.0032615
0.00325538
0.00324932
0.00324332
0.00323739
0.00323153
0.00322572
0.00321998
0.00321429
0.00320867
0.00320309
0.00319758
0.00319212
0.00318671
0.00318136
0.00317606
0.00317081
0.00316561
0.00316045
0.00315535
0.00315029
0.00314528
0.00314032
0.0031354
0.00313052
0.00312569
0.0031209
0.00311616
0.00311145
0.00310678
0.00310215
0.00309757
0.00309302
0.00308851
0.00308403
0.0030796
0.0030752
0.00307084
0.0030665
0.00306221
0.00305795
0.00305372
0.00304953
0.00304537
0.00304124
0.00303714
0.00303307
0.00302904
0.00302503
0.00302106
0.00301711
0.00301319
0.00300931
0.00300545
0.00300161
0.00299781
0.00299403
0.00299028
0.00298656
0.00298285
0.00297919
0.00297553
0.00297191
0.00296831
0.00296474
0.00296119
0.00295767
0.00295416
0.00295069
0.00294722
0.0029438
0.00294038
0.00293699
0.00293362
0.00293028
0.00292695
0.00292383
0.00292089
0.00291794
0.00291499
0.00291203
0.00290905
0.00290608
0.00290309
0.0029001
0.00289709
0.00289408
0.00289106
0.00288804
0.002885
0.00288196
0.00287891
0.00287586
0.00287279
0.00286972
0.00286665
0.00286356
0.00286047
0.00285736
0.00285426
0.00285114
0.00284803
0.0028449
0.00284177
0.00283862
0.00283548
0.00283232
0.00282917
0.002826
0.00282284
0.00281965
0.00281648
0.00281328
0.0028101
0.00280689
0.00280369
0.00280047
0.00279727
0.00279404
0.00279082
0.00278759
0.00278436
0.00278112
0.00277788
0.00277463
0.00277138
0.00276812
0.00276486
0.0027616
0.00275833
0.00275506
0.00275178
0.00274851
0.00274522
0.00274194
0.00273865
0.00273536
0.00273206
0.00272877
0.00272547
0.00272217
0.00271886
0.00271555
0.00271224
0.00270893
0.00270561
0.0027023
0.00269897
0.00269566
0.00269233
0.00268901
0.00268568
0.00268235
0.00267903
0.0026757
0.00267237
0.00266903
0.0026657
0.00266237
0.00265904
0.0026557
0.00265237
0.00264903
0.0026457
0.00264235
0.00263903
0.00263568
0.00263235
0.00262901
0.00262568
0.00262234
0.00261901
0.00261567
0.00261234
0.002609
0.00260568
0.00260234
0.00259902
0.00259568
0.00259236
0.00258902
0.0025857
0.00258237
0.00257906
0.00257573
0.00257242
0.00256909
0.00256578
0.00256246
0.00255916
0.00255584
0.00255254
0.00254923
0.00254593
0.00254263
0.00253933
0.00253604
0.00253275
0.00252946
0.00252617
0.00252289
0.00251961
0.00251634
0.00251306
0.00250979
0.00250653
0.00250327
0.00250001
0.00249676
0.0024935
0.00249026
0.00248701
0.00248378
0.00248053
0.00247731
0.00247408
0.00247086
0.00246763
0.00246443
0.00246121
0.00245801
0.0024548
0.00245161
0.00244841
0.00244523
0.00244204
0.00243887
0.00243569
0.00243253
0.00242936
0.00242621
0.00242305
0.00241991
0.00241676
0.00241363
0.00241049
0.00240737
0.00240424
0.00240113
0.00239802
0.00239491
0.00239181
0.00238872
0.00238563
0.00238255
0.00237947
0.0023764
0.00237334
0.00237027
0.00236723
0.00236417
0.00236114
0.0023581
0.00235508
0.00235205
0.00234904
0.00234602
0.0023427
0.00233906
0.0023355
0.00233197
0.00232851
0.00232509
0.00232173
0.00231841
0.00231515
0.00231192
0.00230875
0.00230561
0.00230253
0.00229948
0.00229647
0.0022935
0.00229058
0.00228768
0.00228484
0.00228202
0.00227925
0.00227649
0.00227379
0.0022711
0.00226847
0.00226584
0.00226328
0.00226072
0.00225821
0.00225571
0.00225326
0.00225081
0.00224842
0.00224603
0.00224369
0.00224136
0.00223906
0.00223678
0.00223454
0.00223231
0.00223012
0.00222793
0.00222579
0.00222365
0.00222154
0.00221945
0.00221739
0.00221534
0.00221332
0.0022113
0.00220933
0.00220735
0.00220541
0.00220347
0.00220157
0.00219967
0.00219781
0.00219594
0.00219411
0.00219227
0.00219048
0.00218867
0.00218691
0.00218513
0.00218341
0.00218166
0.00217996
0.00217824
0.00217658
0.00217488
0.00217325
0.00217157
0.00216997
0.00216832
0.00216675
0.00216513
0.00216359
0.00216199
0.00216047
0.00215889
0.0021574
0.00215585
0.00215437
0.00215285
0.00215138
0.00214989
0.00214843
0.00214698
0.00214549
0.00214414
0.0021425
0.00214146
0.00213935
0.00213909
0.0021363
)
;
    }
    symmetry
    {
        type            symmetryPlane;
    }
    frontAndBack
    {
        type            empty;
    }
}


// ************************************************************************* //
