/*--------------------------------*- C++ -*----------------------------------*\
| =========                 |                                                 |
| \\      /  F ield         | OpenFOAM: The Open Source CFD Toolbox           |
|  \\    /   O peration     | Version:  v2012                                 |
|   \\  /    A nd           | Website:  www.openfoam.com                      |
|    \\/     M anipulation  |                                                 |
\*---------------------------------------------------------------------------*/
FoamFile
{
    version     2.0;
    format      ascii;
    class       volScalarField;
    location    "3";
    object      yPlus;
}
// * * * * * * * * * * * * * * * * * * * * * * * * * * * * * * * * * * * * * //

dimensions      [0 0 0 0 0 0 0];


internalField   uniform 0;

boundaryField
{
    inlet
    {
        type            calculated;
        value           uniform 0;
    }
    outlet
    {
        type            calculated;
        value           uniform 0;
    }
    topWall
    {
        type            calculated;
        value           nonuniform List<scalar> 
545
(
0.0378676
0.0660804
0.0845739
0.0992139
0.111584
0.122391
0.132024
0.140731
0.148677
0.155984
0.162742
0.169022
0.174881
0.180362
0.185506
0.190343
0.1949
0.199202
0.203269
0.207119
0.210768
0.21423
0.217517
0.220642
0.223615
0.226446
0.229143
0.231713
0.234165
0.236505
0.23874
0.240875
0.242915
0.244866
0.246732
0.248518
0.250227
0.251864
0.253432
0.254934
0.256373
0.257754
0.259077
0.260347
0.261565
0.262733
0.263855
0.264932
0.265966
0.266959
0.267912
0.268828
0.269709
0.270554
0.271367
0.272148
0.272899
0.273621
0.274315
0.274982
0.275624
0.276241
0.276834
0.277405
0.277954
0.278482
0.278989
0.279478
0.279947
0.280399
0.280833
0.281251
0.281646
0.282026
0.2824
0.28277
0.283135
0.283495
0.283851
0.284202
0.284548
0.28489
0.285227
0.28556
0.285888
0.286212
0.286532
0.286847
0.287159
0.287466
0.287769
0.288068
0.288362
0.288653
0.28894
0.289226
0.289467
0.28968
0.289892
0.290103
0.290313
0.290522
0.290731
0.290938
0.291145
0.291351
0.291556
0.29176
0.291963
0.292166
0.292367
0.292567
0.292767
0.292966
0.293163
0.29336
0.293556
0.293751
0.293945
0.294138
0.29433
0.294521
0.294711
0.2949
0.295088
0.295275
0.295461
0.295646
0.29583
0.296013
0.296195
0.296376
0.296556
0.296734
0.296912
0.297089
0.297264
0.297439
0.297612
0.297785
0.297956
0.298126
0.298295
0.298463
0.29863
0.298796
0.29896
0.299124
0.299286
0.299447
0.299607
0.299766
0.299923
0.300079
0.300235
0.300389
0.300541
0.300693
0.300843
0.300992
0.30114
0.301287
0.301432
0.301576
0.301719
0.301861
0.302001
0.30214
0.302277
0.302414
0.302549
0.302683
0.302815
0.302946
0.303076
0.303204
0.303331
0.303457
0.303581
0.303704
0.303826
0.303946
0.304065
0.304182
0.304298
0.304413
0.304526
0.304638
0.304748
0.304857
0.304964
0.30507
0.305174
0.305277
0.305378
0.305478
0.305577
0.305674
0.305769
0.305863
0.305955
0.306046
0.306135
0.306223
0.306309
0.306393
0.306476
0.306558
0.306637
0.306715
0.306792
0.306867
0.30694
0.307012
0.307082
0.30715
0.307217
0.307282
0.307345
0.307407
0.307467
0.307525
0.307581
0.307636
0.307689
0.307741
0.30779
0.307838
0.307885
0.307929
0.307972
0.308012
0.308051
0.308089
0.308124
0.308158
0.30819
0.30822
0.308248
0.308274
0.308299
0.308321
0.308342
0.308361
0.308378
0.308393
0.308406
0.308418
0.308427
0.308435
0.30844
0.308444
0.308446
0.308445
0.308443
0.308439
0.308433
0.308425
0.308415
0.308403
0.308389
0.308373
0.308355
0.308334
0.308312
0.308288
0.308262
0.308233
0.308205
0.308167
0.308128
0.308087
0.308044
0.308
0.307955
0.307908
0.30786
0.30781
0.307759
0.307705
0.30765
0.307594
0.307535
0.307474
0.307412
0.307347
0.307281
0.307212
0.307141
0.307068
0.306992
0.306914
0.306834
0.30675
0.306665
0.306577
0.306486
0.306392
0.306295
0.306195
0.306092
0.305987
0.305877
0.305765
0.305649
0.30553
0.305408
0.305281
0.305151
0.305018
0.30488
0.304738
0.304593
0.304443
0.304289
0.30413
0.303967
0.3038
0.303628
0.303451
0.30327
0.303083
0.302891
0.302695
0.302492
0.302285
0.302072
0.301853
0.301629
0.301399
0.301163
0.300921
0.300672
0.300418
0.300157
0.299889
0.299615
0.299333
0.299045
0.29875
0.298448
0.298138
0.297821
0.297496
0.297164
0.296823
0.296475
0.296119
0.295754
0.295381
0.294999
0.294609
0.29421
0.293802
0.293385
0.292959
0.292523
0.292078
0.291623
0.291159
0.290684
0.290199
0.289705
0.2892
0.288684
0.288158
0.287621
0.287073
0.286514
0.285944
0.285363
0.28477
0.284166
0.28355
0.282923
0.282283
0.281631
0.280967
0.280291
0.279603
0.278902
0.278188
0.277461
0.276722
0.27597
0.275204
0.274426
0.273634
0.272829
0.27201
0.271178
0.270333
0.269473
0.2686
0.267714
0.266813
0.265898
0.26497
0.264027
0.263071
0.2621
0.261116
0.260117
0.259104
0.258077
0.257035
0.25598
0.254911
0.253827
0.252729
0.251618
0.250492
0.249352
0.248199
0.247031
0.24585
0.244655
0.243447
0.242225
0.24099
0.239741
0.23848
0.237205
0.235917
0.234617
0.233304
0.231979
0.230642
0.229293
0.227931
0.226559
0.225174
0.223779
0.222373
0.220956
0.219529
0.218091
0.216644
0.215187
0.21372
0.212245
0.210761
0.209269
0.207768
0.20626
0.204744
0.203222
0.201693
0.200157
0.198615
0.196896
0.195025
0.193176
0.191346
0.189535
0.187742
0.185968
0.184213
0.182477
0.180761
0.179065
0.177388
0.175731
0.174095
0.172478
0.170882
0.169305
0.16775
0.166214
0.164699
0.163204
0.16173
0.160276
0.158842
0.157429
0.156036
0.154664
0.153312
0.15198
0.150668
0.149377
0.148105
0.146854
0.145623
0.144411
0.14322
0.142048
0.140897
0.139765
0.138652
0.13756
0.136486
0.135433
0.134399
0.133384
0.132388
0.131412
0.130455
0.129517
0.128598
0.127699
0.126818
0.125956
0.125114
0.12429
0.123485
0.122698
0.121931
0.121182
0.120452
0.119741
0.119048
0.118374
0.117719
0.117082
0.116463
0.115864
0.115283
0.11472
0.114176
0.113651
0.113144
0.112655
0.112186
0.111734
0.111302
0.110888
0.110492
0.110115
0.109757
0.109417
0.109096
0.108794
0.10851
0.108245
0.107999
0.107771
0.107563
0.107373
0.107201
0.107049
0.106916
0.106798
0.106713
0.106589
)
;
    }
    bottomWall
    {
        type            calculated;
        value           nonuniform List<scalar> 
449
(
0.139389
0.0894188
0.0774032
0.0726345
0.0702072
0.0687612
0.0677824
0.067066
0.0665183
0.0660888
0.0657459
0.0654687
0.0652419
0.0650545
0.0648979
0.064766
0.064654
0.0645581
0.0644757
0.0644043
0.0643421
0.0642878
0.06424
0.0641979
0.0641606
0.0641274
0.0640978
0.0640714
0.0640476
0.0640263
0.064007
0.0639896
0.0639738
0.0639595
0.0639464
0.0639345
0.0639236
0.0639137
0.0639045
0.0638961
0.0638884
0.0638812
0.0638746
0.0638685
0.0638629
0.0638576
0.0638528
0.0638482
0.063844
0.0638401
0.0638364
0.0638329
0.0638297
0.0638267
0.0638238
0.0638212
0.0638187
0.0638163
0.063814
0.0638119
0.0638099
0.063808
0.0638062
0.0638045
0.0638029
0.0638014
0.0637999
0.0637985
0.0637972
0.0637959
0.0637947
0.0637935
0.0637924
0.0637913
0.0637903
0.0637893
0.0637884
0.0637875
0.0637866
0.0637857
0.0637849
0.0637841
0.0637833
0.0637826
0.0637819
0.0637812
0.0637805
0.0637798
0.0637792
0.0637785
0.0637779
0.0637773
0.0637768
0.0637762
0.0637756
0.0637751
0.0637746
0.063774
0.0637735
0.063773
0.0637725
0.0637721
0.0637716
0.0637711
0.0637707
0.0637702
0.0637698
0.0637693
0.0637689
0.0637685
0.0637681
0.0637676
0.0637672
0.0637668
0.0637664
0.063766
0.0637656
0.0637653
0.0637649
0.0637645
0.0637641
0.0637638
0.0637634
0.063763
0.0637627
0.0637623
0.063762
0.0637616
0.0637613
0.0637609
0.0637606
0.0637602
0.0637599
0.0637595
0.0637592
0.0637589
0.0637585
0.0637582
0.0637579
0.0637576
0.0637572
0.0637569
0.0637566
0.0637563
0.063756
0.0637557
0.0637553
0.063755
0.0637547
0.0637544
0.0637541
0.0637538
0.0637535
0.0637532
0.0637529
0.0637526
0.0637523
0.063752
0.0637517
0.0637514
0.0637511
0.0637508
0.0637505
0.0637502
0.06375
0.0637497
0.0637494
0.0637491
0.0637489
0.0637486
0.0637484
0.0637484
0.063748
0.0637486
0.0637496
0.063751
0.0637519
0.0637523
0.0637524
0.0637523
0.0637519
0.0637515
0.0637509
0.0637502
0.0637494
0.0637486
0.0637477
0.0637468
0.0637458
0.0637449
0.0637439
0.0637428
0.0637418
0.0637408
0.0637397
0.0637386
0.0637376
0.0637365
0.0637354
0.0637343
0.0637333
0.0637322
0.0637311
0.0637301
0.063729
0.063728
0.0637269
0.0637259
0.0637248
0.0637238
0.0637228
0.0637218
0.0637207
0.0637197
0.0637188
0.0637178
0.0637168
0.0637158
0.0637149
0.0637139
0.063713
0.063712
0.0637111
0.0637102
0.0637093
0.0637084
0.0637075
0.0637066
0.0637058
0.0637049
0.063704
0.0637032
0.0637024
0.0637015
0.0637007
0.0636999
0.0636991
0.0636983
0.0636975
0.0636968
0.063696
0.0636952
0.0636945
0.0636937
0.063693
0.0636923
0.0636916
0.0636909
0.0636902
0.0636895
0.0636888
0.0636881
0.0636874
0.0636868
0.0636861
0.0636855
0.0636848
0.0636842
0.0636836
0.0636829
0.0636823
0.0636817
0.0636811
0.0636805
0.06368
0.0636794
0.0636788
0.0636782
0.0636777
0.0636771
0.0636766
0.063676
0.0636755
0.063675
0.0636744
0.0636739
0.0636734
0.0636729
0.0636724
0.0636719
0.0636714
0.063671
0.0636705
0.06367
0.0636695
0.0636691
0.0636686
0.0636682
0.0636677
0.0636673
0.0636669
0.0636664
0.063666
0.0636656
0.0636652
0.0636647
0.0636643
0.0636639
0.0636635
0.0636631
0.0636628
0.0636624
0.063662
0.0636616
0.0636612
0.0636609
0.0636605
0.0636602
0.0636598
0.0636594
0.0636591
0.0636588
0.0636584
0.0636581
0.0636578
0.0636574
0.0636571
0.0636568
0.0636565
0.0636561
0.0636558
0.0636555
0.0636552
0.0636549
0.0636546
0.0636543
0.063654
0.0636538
0.0636535
0.0636532
0.0636529
0.0636526
0.0636524
0.0636521
0.0636518
0.0636516
0.0636513
0.0636511
0.0636508
0.0636506
0.0636503
0.0636501
0.0636498
0.0636496
0.0636493
0.0636491
0.0636489
0.0636486
0.0636484
0.0636482
0.063648
0.0636477
0.0636475
0.0636474
0.0636455
0.0636443
0.0636438
0.0636436
0.0636435
0.0636435
0.0636434
0.0636434
0.0636434
0.0636434
0.0636434
0.0636434
0.0636434
0.0636434
0.0636434
0.0636434
0.0636433
0.0636433
0.0636433
0.0636433
0.0636433
0.0636433
0.0636433
0.0636433
0.0636433
0.0636433
0.0636433
0.0636433
0.0636433
0.0636433
0.0636433
0.0636433
0.0636433
0.0636433
0.0636433
0.0636433
0.0636433
0.0636433
0.0636433
0.0636433
0.0636433
0.0636433
0.0636433
0.0636433
0.0636433
0.0636433
0.0636433
0.0636433
0.0636433
0.0636433
0.0636433
0.0636433
0.0636433
0.0636433
0.0636433
0.0636433
0.0636433
0.0636433
0.0636433
0.0636433
0.0636433
0.0636433
0.0636433
0.0636433
0.0636433
0.0636433
0.0636433
0.0636433
0.0636433
0.0636433
0.0636433
0.0636433
0.0636433
0.0636433
0.0636433
0.0636433
0.0636433
0.0636433
0.0636433
0.0636433
0.0636433
0.0636433
0.0636433
0.0636433
0.0636433
0.0636433
0.0636433
0.0636433
0.0636433
0.0636433
0.0636433
0.0636433
0.0636433
0.0636433
0.0636433
)
;
    }
    symmetry
    {
        type            symmetryPlane;
    }
    frontAndBack
    {
        type            empty;
    }
}


// ************************************************************************* //
