/*--------------------------------*- C++ -*----------------------------------*\
| =========                 |                                                 |
| \\      /  F ield         | OpenFOAM: The Open Source CFD Toolbox           |
|  \\    /   O peration     | Version:  v2012                                 |
|   \\  /    A nd           | Website:  www.openfoam.com                      |
|    \\/     M anipulation  |                                                 |
\*---------------------------------------------------------------------------*/
FoamFile
{
    version     2.0;
    format      ascii;
    class       volVectorField;
    location    "33.5";
    object      wallShearStress;
}
// * * * * * * * * * * * * * * * * * * * * * * * * * * * * * * * * * * * * * //

dimensions      [0 2 -2 0 0 0 0];


internalField   uniform (0 0 0);

boundaryField
{
    inlet
    {
        type            calculated;
        value           uniform (0 0 0);
    }
    outlet
    {
        type            calculated;
        value           uniform (0 0 0);
    }
    topWall
    {
        type            calculated;
        value           nonuniform List<vector> 
545
(
(1.48614e-08 -1.04611e-08 0)
(1.48546e-08 -2.92664e-08 0)
(1.48408e-08 -4.88195e-08 0)
(1.48203e-08 -6.7799e-08 0)
(1.47941e-08 -8.5958e-08 0)
(1.47628e-08 -1.03528e-07 0)
(1.47269e-08 -1.20656e-07 0)
(1.46866e-08 -1.37333e-07 0)
(1.46424e-08 -1.53522e-07 0)
(1.45947e-08 -1.69221e-07 0)
(1.45438e-08 -1.8445e-07 0)
(1.44901e-08 -1.99227e-07 0)
(1.44338e-08 -2.13561e-07 0)
(1.43753e-08 -2.27462e-07 0)
(1.43149e-08 -2.40941e-07 0)
(1.42527e-08 -2.54007e-07 0)
(1.41891e-08 -2.66673e-07 0)
(1.41242e-08 -2.78949e-07 0)
(1.40582e-08 -2.90847e-07 0)
(1.39915e-08 -3.02376e-07 0)
(1.3924e-08 -3.13547e-07 0)
(1.3856e-08 -3.24371e-07 0)
(1.37876e-08 -3.34857e-07 0)
(1.3719e-08 -3.45017e-07 0)
(1.36504e-08 -3.54859e-07 0)
(1.35817e-08 -3.64394e-07 0)
(1.35131e-08 -3.73631e-07 0)
(1.34448e-08 -3.82578e-07 0)
(1.33768e-08 -3.91246e-07 0)
(1.33092e-08 -3.99642e-07 0)
(1.3242e-08 -4.07776e-07 0)
(1.31754e-08 -4.15655e-07 0)
(1.31093e-08 -4.23288e-07 0)
(1.3044e-08 -4.30682e-07 0)
(1.29793e-08 -4.37846e-07 0)
(1.29154e-08 -4.44787e-07 0)
(1.28522e-08 -4.51511e-07 0)
(1.27899e-08 -4.58026e-07 0)
(1.27284e-08 -4.64338e-07 0)
(1.26678e-08 -4.70455e-07 0)
(1.26081e-08 -4.76382e-07 0)
(1.25493e-08 -4.82126e-07 0)
(1.24915e-08 -4.87693e-07 0)
(1.24346e-08 -4.93088e-07 0)
(1.23786e-08 -4.98317e-07 0)
(1.23236e-08 -5.03385e-07 0)
(1.22696e-08 -5.08298e-07 0)
(1.22165e-08 -5.1306e-07 0)
(1.21645e-08 -5.17677e-07 0)
(1.21134e-08 -5.22153e-07 0)
(1.20633e-08 -5.26493e-07 0)
(1.20141e-08 -5.30701e-07 0)
(1.19659e-08 -5.34782e-07 0)
(1.19187e-08 -5.38739e-07 0)
(1.18724e-08 -5.42577e-07 0)
(1.18271e-08 -5.463e-07 0)
(1.17827e-08 -5.4991e-07 0)
(1.17393e-08 -5.53412e-07 0)
(1.16968e-08 -5.56809e-07 0)
(1.16551e-08 -5.60105e-07 0)
(1.16144e-08 -5.63303e-07 0)
(1.15746e-08 -5.66405e-07 0)
(1.15356e-08 -5.69416e-07 0)
(1.14975e-08 -5.72337e-07 0)
(1.14603e-08 -5.75172e-07 0)
(1.14238e-08 -5.77924e-07 0)
(1.13882e-08 -5.80594e-07 0)
(1.13535e-08 -5.83186e-07 0)
(1.13195e-08 -5.85702e-07 0)
(1.12863e-08 -5.88144e-07 0)
(1.12538e-08 -5.90516e-07 0)
(1.12223e-08 -5.92815e-07 0)
(1.11917e-08 -5.95025e-07 0)
(1.11616e-08 -5.97166e-07 0)
(1.11318e-08 -5.99281e-07 0)
(1.11022e-08 -6.01384e-07 0)
(1.10726e-08 -6.03475e-07 0)
(1.10431e-08 -6.05551e-07 0)
(1.10137e-08 -6.07612e-07 0)
(1.09843e-08 -6.09657e-07 0)
(1.09549e-08 -6.11687e-07 0)
(1.09256e-08 -6.13703e-07 0)
(1.08964e-08 -6.15704e-07 0)
(1.08673e-08 -6.17691e-07 0)
(1.08382e-08 -6.19663e-07 0)
(1.08091e-08 -6.21621e-07 0)
(1.07802e-08 -6.23565e-07 0)
(1.07513e-08 -6.25495e-07 0)
(1.07224e-08 -6.27411e-07 0)
(1.06936e-08 -6.29313e-07 0)
(1.06649e-08 -6.31201e-07 0)
(1.06363e-08 -6.33075e-07 0)
(1.06077e-08 -6.34937e-07 0)
(1.05793e-08 -6.36783e-07 0)
(1.05506e-08 -6.38621e-07 0)
(1.05233e-08 -6.40424e-07 0)
(1.04981e-08 -6.42075e-07 0)
(1.04738e-08 -6.4357e-07 0)
(1.04503e-08 -6.45023e-07 0)
(1.0427e-08 -6.46481e-07 0)
(1.04037e-08 -6.47952e-07 0)
(1.03802e-08 -6.49424e-07 0)
(1.03567e-08 -6.50895e-07 0)
(1.03331e-08 -6.52363e-07 0)
(1.03094e-08 -6.53832e-07 0)
(1.02856e-08 -6.55302e-07 0)
(1.02617e-08 -6.56772e-07 0)
(1.02377e-08 -6.58242e-07 0)
(1.02136e-08 -6.59711e-07 0)
(1.01894e-08 -6.61181e-07 0)
(1.01651e-08 -6.62651e-07 0)
(1.01408e-08 -6.6412e-07 0)
(1.01163e-08 -6.6559e-07 0)
(1.00917e-08 -6.6706e-07 0)
(1.00671e-08 -6.68529e-07 0)
(1.00424e-08 -6.69998e-07 0)
(1.00175e-08 -6.71467e-07 0)
(9.99258e-09 -6.72936e-07 0)
(9.96756e-09 -6.74405e-07 0)
(9.94244e-09 -6.75873e-07 0)
(9.91722e-09 -6.77341e-07 0)
(9.89191e-09 -6.78809e-07 0)
(9.86651e-09 -6.80277e-07 0)
(9.84101e-09 -6.81744e-07 0)
(9.81542e-09 -6.83211e-07 0)
(9.78973e-09 -6.84677e-07 0)
(9.76395e-09 -6.86143e-07 0)
(9.73807e-09 -6.87609e-07 0)
(9.7121e-09 -6.89074e-07 0)
(9.68604e-09 -6.90539e-07 0)
(9.65988e-09 -6.92003e-07 0)
(9.63362e-09 -6.93467e-07 0)
(9.60727e-09 -6.9493e-07 0)
(9.58082e-09 -6.96393e-07 0)
(9.55428e-09 -6.97855e-07 0)
(9.52765e-09 -6.99316e-07 0)
(9.50092e-09 -7.00777e-07 0)
(9.47409e-09 -7.02237e-07 0)
(9.44717e-09 -7.03697e-07 0)
(9.42015e-09 -7.05155e-07 0)
(9.39304e-09 -7.06613e-07 0)
(9.36584e-09 -7.0807e-07 0)
(9.33854e-09 -7.09527e-07 0)
(9.31114e-09 -7.10982e-07 0)
(9.28365e-09 -7.12437e-07 0)
(9.25607e-09 -7.1389e-07 0)
(9.22839e-09 -7.15343e-07 0)
(9.20062e-09 -7.16795e-07 0)
(9.17275e-09 -7.18246e-07 0)
(9.14478e-09 -7.19696e-07 0)
(9.11673e-09 -7.21145e-07 0)
(9.08857e-09 -7.22593e-07 0)
(9.06033e-09 -7.24039e-07 0)
(9.03199e-09 -7.25485e-07 0)
(9.00355e-09 -7.26929e-07 0)
(8.97502e-09 -7.28373e-07 0)
(8.9464e-09 -7.29815e-07 0)
(8.91768e-09 -7.31256e-07 0)
(8.88887e-09 -7.32695e-07 0)
(8.85997e-09 -7.34134e-07 0)
(8.83097e-09 -7.35571e-07 0)
(8.80188e-09 -7.37007e-07 0)
(8.77269e-09 -7.38441e-07 0)
(8.74341e-09 -7.39874e-07 0)
(8.71404e-09 -7.41305e-07 0)
(8.68458e-09 -7.42735e-07 0)
(8.65502e-09 -7.44164e-07 0)
(8.62537e-09 -7.45591e-07 0)
(8.59563e-09 -7.47016e-07 0)
(8.56579e-09 -7.4844e-07 0)
(8.53586e-09 -7.49863e-07 0)
(8.50584e-09 -7.51283e-07 0)
(8.47573e-09 -7.52702e-07 0)
(8.44553e-09 -7.5412e-07 0)
(8.41523e-09 -7.55535e-07 0)
(8.38485e-09 -7.56949e-07 0)
(8.35437e-09 -7.58361e-07 0)
(8.3238e-09 -7.59771e-07 0)
(8.29315e-09 -7.61179e-07 0)
(8.2624e-09 -7.62585e-07 0)
(8.23156e-09 -7.6399e-07 0)
(8.20063e-09 -7.65392e-07 0)
(8.16961e-09 -7.66793e-07 0)
(8.1385e-09 -7.68191e-07 0)
(8.1073e-09 -7.69588e-07 0)
(8.07602e-09 -7.70982e-07 0)
(8.04464e-09 -7.72374e-07 0)
(8.01318e-09 -7.73764e-07 0)
(7.98162e-09 -7.75152e-07 0)
(7.94998e-09 -7.76538e-07 0)
(7.91826e-09 -7.77921e-07 0)
(7.88644e-09 -7.79302e-07 0)
(7.85454e-09 -7.80681e-07 0)
(7.82255e-09 -7.82057e-07 0)
(7.79048e-09 -7.83431e-07 0)
(7.75831e-09 -7.84803e-07 0)
(7.72607e-09 -7.86172e-07 0)
(7.69374e-09 -7.87538e-07 0)
(7.66132e-09 -7.88902e-07 0)
(7.62882e-09 -7.90264e-07 0)
(7.59623e-09 -7.91623e-07 0)
(7.56356e-09 -7.92979e-07 0)
(7.53081e-09 -7.94333e-07 0)
(7.49797e-09 -7.95684e-07 0)
(7.46505e-09 -7.97032e-07 0)
(7.43205e-09 -7.98377e-07 0)
(7.39896e-09 -7.9972e-07 0)
(7.3658e-09 -8.01059e-07 0)
(7.33255e-09 -8.02396e-07 0)
(7.29922e-09 -8.0373e-07 0)
(7.26581e-09 -8.05061e-07 0)
(7.23233e-09 -8.06389e-07 0)
(7.19876e-09 -8.07714e-07 0)
(7.16511e-09 -8.09036e-07 0)
(7.13139e-09 -8.10355e-07 0)
(7.09758e-09 -8.1167e-07 0)
(7.0637e-09 -8.12983e-07 0)
(7.02975e-09 -8.14292e-07 0)
(6.99571e-09 -8.15598e-07 0)
(6.9616e-09 -8.16901e-07 0)
(6.92742e-09 -8.182e-07 0)
(6.89315e-09 -8.19496e-07 0)
(6.85882e-09 -8.20789e-07 0)
(6.82441e-09 -8.22078e-07 0)
(6.78993e-09 -8.23364e-07 0)
(6.75537e-09 -8.24646e-07 0)
(6.72074e-09 -8.25925e-07 0)
(6.68604e-09 -8.272e-07 0)
(6.65127e-09 -8.28471e-07 0)
(6.61643e-09 -8.29739e-07 0)
(6.58152e-09 -8.31003e-07 0)
(6.54654e-09 -8.32264e-07 0)
(6.51149e-09 -8.3352e-07 0)
(6.47637e-09 -8.34773e-07 0)
(6.44118e-09 -8.36022e-07 0)
(6.40593e-09 -8.37267e-07 0)
(6.37061e-09 -8.38509e-07 0)
(6.33523e-09 -8.39746e-07 0)
(6.29978e-09 -8.40979e-07 0)
(6.26426e-09 -8.42208e-07 0)
(6.22869e-09 -8.43433e-07 0)
(6.19305e-09 -8.44654e-07 0)
(6.15734e-09 -8.45871e-07 0)
(6.12158e-09 -8.47084e-07 0)
(6.08575e-09 -8.48292e-07 0)
(6.04987e-09 -8.49496e-07 0)
(6.01392e-09 -8.50696e-07 0)
(5.97792e-09 -8.51892e-07 0)
(5.94186e-09 -8.53083e-07 0)
(5.90574e-09 -8.5427e-07 0)
(5.86956e-09 -8.55452e-07 0)
(5.83333e-09 -8.56629e-07 0)
(5.79705e-09 -8.57803e-07 0)
(5.76071e-09 -8.58971e-07 0)
(5.72431e-09 -8.60135e-07 0)
(5.68787e-09 -8.61295e-07 0)
(5.65137e-09 -8.62449e-07 0)
(5.61482e-09 -8.63599e-07 0)
(5.57822e-09 -8.64744e-07 0)
(5.54157e-09 -8.65884e-07 0)
(5.50487e-09 -8.6702e-07 0)
(5.46813e-09 -8.6815e-07 0)
(5.43134e-09 -8.69276e-07 0)
(5.3945e-09 -8.70397e-07 0)
(5.35762e-09 -8.71512e-07 0)
(5.32068e-09 -8.72623e-07 0)
(5.28376e-09 -8.73728e-07 0)
(5.24655e-09 -8.7483e-07 0)
(5.21034e-09 -8.75919e-07 0)
(5.17562e-09 -8.76952e-07 0)
(5.14152e-09 -8.7793e-07 0)
(5.10785e-09 -8.78897e-07 0)
(5.07402e-09 -8.7987e-07 0)
(5.03992e-09 -8.80851e-07 0)
(5.00549e-09 -8.81837e-07 0)
(4.97074e-09 -8.82826e-07 0)
(4.93566e-09 -8.83819e-07 0)
(4.90025e-09 -8.84814e-07 0)
(4.8645e-09 -8.85814e-07 0)
(4.82842e-09 -8.86817e-07 0)
(4.79199e-09 -8.87823e-07 0)
(4.75523e-09 -8.88833e-07 0)
(4.71813e-09 -8.89846e-07 0)
(4.68068e-09 -8.90861e-07 0)
(4.64289e-09 -8.91879e-07 0)
(4.60475e-09 -8.929e-07 0)
(4.56627e-09 -8.93924e-07 0)
(4.52743e-09 -8.9495e-07 0)
(4.48825e-09 -8.95978e-07 0)
(4.44871e-09 -8.97008e-07 0)
(4.40882e-09 -8.98041e-07 0)
(4.36857e-09 -8.99075e-07 0)
(4.32797e-09 -9.0011e-07 0)
(4.28701e-09 -9.01147e-07 0)
(4.2457e-09 -9.02186e-07 0)
(4.20402e-09 -9.03225e-07 0)
(4.16199e-09 -9.04265e-07 0)
(4.1196e-09 -9.05306e-07 0)
(4.07684e-09 -9.06347e-07 0)
(4.03373e-09 -9.07389e-07 0)
(3.99025e-09 -9.08431e-07 0)
(3.94641e-09 -9.09472e-07 0)
(3.90221e-09 -9.10514e-07 0)
(3.85765e-09 -9.11554e-07 0)
(3.81272e-09 -9.12594e-07 0)
(3.76744e-09 -9.13633e-07 0)
(3.72179e-09 -9.1467e-07 0)
(3.67577e-09 -9.15706e-07 0)
(3.6294e-09 -9.1674e-07 0)
(3.58266e-09 -9.17772e-07 0)
(3.53557e-09 -9.18801e-07 0)
(3.48811e-09 -9.19828e-07 0)
(3.4403e-09 -9.20852e-07 0)
(3.39213e-09 -9.21873e-07 0)
(3.3436e-09 -9.2289e-07 0)
(3.29472e-09 -9.23903e-07 0)
(3.24549e-09 -9.24913e-07 0)
(3.1959e-09 -9.25917e-07 0)
(3.14597e-09 -9.26917e-07 0)
(3.09568e-09 -9.27912e-07 0)
(3.04506e-09 -9.28902e-07 0)
(2.99408e-09 -9.29885e-07 0)
(2.94277e-09 -9.30862e-07 0)
(2.89113e-09 -9.31833e-07 0)
(2.83914e-09 -9.32797e-07 0)
(2.78683e-09 -9.33754e-07 0)
(2.73419e-09 -9.34703e-07 0)
(2.68123e-09 -9.35644e-07 0)
(2.62794e-09 -9.36576e-07 0)
(2.57434e-09 -9.375e-07 0)
(2.52043e-09 -9.38414e-07 0)
(2.46621e-09 -9.39319e-07 0)
(2.41169e-09 -9.40213e-07 0)
(2.35687e-09 -9.41097e-07 0)
(2.30176e-09 -9.4197e-07 0)
(2.24636e-09 -9.42831e-07 0)
(2.19068e-09 -9.43681e-07 0)
(2.13473e-09 -9.44518e-07 0)
(2.07851e-09 -9.45342e-07 0)
(2.02203e-09 -9.46153e-07 0)
(1.96529e-09 -9.4695e-07 0)
(1.9083e-09 -9.47732e-07 0)
(1.85108e-09 -9.485e-07 0)
(1.79362e-09 -9.49252e-07 0)
(1.73594e-09 -9.49989e-07 0)
(1.67804e-09 -9.50709e-07 0)
(1.61994e-09 -9.51412e-07 0)
(1.56164e-09 -9.52098e-07 0)
(1.50314e-09 -9.52765e-07 0)
(1.44447e-09 -9.53414e-07 0)
(1.38563e-09 -9.54044e-07 0)
(1.32663e-09 -9.54654e-07 0)
(1.26748e-09 -9.55244e-07 0)
(1.2082e-09 -9.55812e-07 0)
(1.14878e-09 -9.5636e-07 0)
(1.08925e-09 -9.56885e-07 0)
(1.02962e-09 -9.57388e-07 0)
(9.69899e-10 -9.57867e-07 0)
(9.10097e-10 -9.58323e-07 0)
(8.50231e-10 -9.58754e-07 0)
(7.90311e-10 -9.5916e-07 0)
(7.30354e-10 -9.5954e-07 0)
(6.70371e-10 -9.59894e-07 0)
(6.10378e-10 -9.60221e-07 0)
(5.5039e-10 -9.60521e-07 0)
(4.9042e-10 -9.60792e-07 0)
(4.30485e-10 -9.61035e-07 0)
(3.70599e-10 -9.61247e-07 0)
(3.1078e-10 -9.6143e-07 0)
(2.51043e-10 -9.61582e-07 0)
(1.91404e-10 -9.61703e-07 0)
(1.31881e-10 -9.61792e-07 0)
(7.24915e-11 -9.61847e-07 0)
(1.32519e-11 -9.6187e-07 0)
(-4.58195e-11 -9.61859e-07 0)
(-1.04705e-10 -9.61813e-07 0)
(-1.63385e-10 -9.61732e-07 0)
(-2.21842e-10 -9.61615e-07 0)
(-2.80057e-10 -9.61461e-07 0)
(-3.3801e-10 -9.61271e-07 0)
(-3.95682e-10 -9.61042e-07 0)
(-4.53053e-10 -9.60775e-07 0)
(-5.10104e-10 -9.6047e-07 0)
(-5.66814e-10 -9.60125e-07 0)
(-6.23164e-10 -9.59739e-07 0)
(-6.79131e-10 -9.59313e-07 0)
(-7.34697e-10 -9.58846e-07 0)
(-7.89839e-10 -9.58336e-07 0)
(-8.44538e-10 -9.57784e-07 0)
(-8.98771e-10 -9.5719e-07 0)
(-9.52519e-10 -9.56551e-07 0)
(-1.00576e-09 -9.55869e-07 0)
(-1.05847e-09 -9.55141e-07 0)
(-1.11063e-09 -9.54369e-07 0)
(-1.16222e-09 -9.53551e-07 0)
(-1.21321e-09 -9.52687e-07 0)
(-1.26359e-09 -9.51777e-07 0)
(-1.31334e-09 -9.50819e-07 0)
(-1.36243e-09 -9.49814e-07 0)
(-1.41083e-09 -9.48762e-07 0)
(-1.45854e-09 -9.47661e-07 0)
(-1.50553e-09 -9.46511e-07 0)
(-1.55178e-09 -9.45312e-07 0)
(-1.59726e-09 -9.44065e-07 0)
(-1.64196e-09 -9.42767e-07 0)
(-1.68586e-09 -9.4142e-07 0)
(-1.72894e-09 -9.40022e-07 0)
(-1.77117e-09 -9.38574e-07 0)
(-1.81254e-09 -9.37076e-07 0)
(-1.85303e-09 -9.35527e-07 0)
(-1.89262e-09 -9.33926e-07 0)
(-1.93129e-09 -9.32275e-07 0)
(-1.96903e-09 -9.30572e-07 0)
(-2.00581e-09 -9.28818e-07 0)
(-2.04163e-09 -9.27013e-07 0)
(-2.07645e-09 -9.25156e-07 0)
(-2.11027e-09 -9.23248e-07 0)
(-2.14308e-09 -9.21289e-07 0)
(-2.17485e-09 -9.19278e-07 0)
(-2.20558e-09 -9.17216e-07 0)
(-2.23524e-09 -9.15103e-07 0)
(-2.26383e-09 -9.12939e-07 0)
(-2.29134e-09 -9.10724e-07 0)
(-2.31775e-09 -9.08459e-07 0)
(-2.34305e-09 -9.06143e-07 0)
(-2.36723e-09 -9.03778e-07 0)
(-2.39029e-09 -9.01363e-07 0)
(-2.4122e-09 -8.98898e-07 0)
(-2.43298e-09 -8.96385e-07 0)
(-2.4526e-09 -8.93824e-07 0)
(-2.47107e-09 -8.91214e-07 0)
(-2.48838e-09 -8.88557e-07 0)
(-2.50451e-09 -8.85853e-07 0)
(-2.51948e-09 -8.83102e-07 0)
(-2.53328e-09 -8.80306e-07 0)
(-2.54589e-09 -8.77465e-07 0)
(-2.55734e-09 -8.7458e-07 0)
(-2.5676e-09 -8.7165e-07 0)
(-2.5767e-09 -8.68678e-07 0)
(-2.58461e-09 -8.65663e-07 0)
(-2.59136e-09 -8.62607e-07 0)
(-2.59694e-09 -8.59511e-07 0)
(-2.60135e-09 -8.56375e-07 0)
(-2.6046e-09 -8.532e-07 0)
(-2.6067e-09 -8.49988e-07 0)
(-2.60766e-09 -8.46738e-07 0)
(-2.60748e-09 -8.43454e-07 0)
(-2.60615e-09 -8.40132e-07 0)
(-2.60377e-09 -8.36783e-07 0)
(-2.59998e-09 -8.3336e-07 0)
(-2.59458e-09 -8.29582e-07 0)
(-2.58761e-09 -8.25443e-07 0)
(-2.57898e-09 -8.21233e-07 0)
(-2.56888e-09 -8.17046e-07 0)
(-2.55747e-09 -8.12901e-07 0)
(-2.54484e-09 -8.0878e-07 0)
(-2.53104e-09 -8.04675e-07 0)
(-2.51615e-09 -8.0059e-07 0)
(-2.50022e-09 -7.9653e-07 0)
(-2.48332e-09 -7.92499e-07 0)
(-2.4655e-09 -7.88495e-07 0)
(-2.44683e-09 -7.84521e-07 0)
(-2.42734e-09 -7.80578e-07 0)
(-2.40709e-09 -7.76667e-07 0)
(-2.38614e-09 -7.7279e-07 0)
(-2.36451e-09 -7.68947e-07 0)
(-2.34226e-09 -7.65139e-07 0)
(-2.31943e-09 -7.61368e-07 0)
(-2.29606e-09 -7.57635e-07 0)
(-2.27217e-09 -7.53939e-07 0)
(-2.24781e-09 -7.50283e-07 0)
(-2.223e-09 -7.46667e-07 0)
(-2.19778e-09 -7.43091e-07 0)
(-2.17218e-09 -7.39556e-07 0)
(-2.14622e-09 -7.36063e-07 0)
(-2.11992e-09 -7.32612e-07 0)
(-2.09331e-09 -7.29204e-07 0)
(-2.06642e-09 -7.2584e-07 0)
(-2.03925e-09 -7.22519e-07 0)
(-2.01184e-09 -7.19242e-07 0)
(-1.9842e-09 -7.1601e-07 0)
(-1.95634e-09 -7.12823e-07 0)
(-1.92828e-09 -7.09681e-07 0)
(-1.90003e-09 -7.06584e-07 0)
(-1.87161e-09 -7.03533e-07 0)
(-1.84303e-09 -7.00529e-07 0)
(-1.81429e-09 -6.97571e-07 0)
(-1.78542e-09 -6.94659e-07 0)
(-1.75641e-09 -6.91795e-07 0)
(-1.72728e-09 -6.88977e-07 0)
(-1.69804e-09 -6.86206e-07 0)
(-1.66868e-09 -6.83483e-07 0)
(-1.63922e-09 -6.80808e-07 0)
(-1.60966e-09 -6.7818e-07 0)
(-1.58e-09 -6.756e-07 0)
(-1.55026e-09 -6.73069e-07 0)
(-1.52043e-09 -6.70585e-07 0)
(-1.49052e-09 -6.6815e-07 0)
(-1.46052e-09 -6.65763e-07 0)
(-1.43045e-09 -6.63425e-07 0)
(-1.40031e-09 -6.61135e-07 0)
(-1.37009e-09 -6.58894e-07 0)
(-1.33979e-09 -6.56703e-07 0)
(-1.30943e-09 -6.5456e-07 0)
(-1.27899e-09 -6.52466e-07 0)
(-1.24848e-09 -6.50422e-07 0)
(-1.21791e-09 -6.48427e-07 0)
(-1.18727e-09 -6.46482e-07 0)
(-1.15655e-09 -6.44586e-07 0)
(-1.12577e-09 -6.4274e-07 0)
(-1.09492e-09 -6.40944e-07 0)
(-1.06401e-09 -6.39198e-07 0)
(-1.03302e-09 -6.37502e-07 0)
(-1.00197e-09 -6.35856e-07 0)
(-9.7085e-10 -6.3426e-07 0)
(-9.39664e-10 -6.32715e-07 0)
(-9.0841e-10 -6.3122e-07 0)
(-8.77091e-10 -6.29776e-07 0)
(-8.45705e-10 -6.28383e-07 0)
(-8.14255e-10 -6.2704e-07 0)
(-7.8274e-10 -6.25749e-07 0)
(-7.51161e-10 -6.24508e-07 0)
(-7.1952e-10 -6.23318e-07 0)
(-6.87817e-10 -6.2218e-07 0)
(-6.56054e-10 -6.21093e-07 0)
(-6.24232e-10 -6.20058e-07 0)
(-5.92352e-10 -6.19074e-07 0)
(-5.60418e-10 -6.18141e-07 0)
(-5.2843e-10 -6.1726e-07 0)
(-4.9639e-10 -6.16432e-07 0)
(-4.64301e-10 -6.15655e-07 0)
(-4.32165e-10 -6.14929e-07 0)
(-3.99985e-10 -6.14256e-07 0)
(-3.67763e-10 -6.13636e-07 0)
(-3.35502e-10 -6.13066e-07 0)
(-3.03206e-10 -6.12553e-07 0)
(-2.70875e-10 -6.12076e-07 0)
(-2.38519e-10 -6.11706e-07 0)
(-2.06118e-10 -6.11204e-07 0)
(-1.73758e-10 -6.11361e-07 0)
(-1.41168e-10 -6.09518e-07 0)
(-1.09265e-10 -6.14274e-07 0)
(-7.51178e-11 -5.95744e-07 0)
(-4.88341e-11 -6.44565e-07 0)
(-2.0622e-11 -5.62929e-07 0)
)
;
    }
    bottomWall
    {
        type            calculated;
        value           nonuniform List<vector> 
449
(
(-48.5382 -0.964186 0)
(-19.7536 -0.00515601 0)
(-14.3452 -0.001135 0)
(-12.0351 -0.000545607 0)
(-10.6287 -0.000351584 0)
(-9.63461 -0.00025606 0)
(-8.87634 -0.000198537 0)
(-8.27267 -0.000159858 0)
(-7.77712 -0.00013236 0)
(-7.36037 -0.000112008 0)
(-7.00327 -9.64036e-05 0)
(-6.69276 -8.40934e-05 0)
(-6.41954 -7.41729e-05 0)
(-6.17668 -6.60432e-05 0)
(-5.95893 -5.92844e-05 0)
(-5.76223 -5.35934e-05 0)
(-5.58338 -4.87479e-05 0)
(-5.41983 -4.45819e-05 0)
(-5.2695 -4.09694e-05 0)
(-5.1307 -3.78129e-05 0)
(-5.00202 -3.50359e-05 0)
(-4.88228 -3.25775e-05 0)
(-4.77048 -3.03889e-05 0)
(-4.66578 -2.84304e-05 0)
(-4.56746 -2.66697e-05 0)
(-4.47489 -2.508e-05 0)
(-4.38752 -2.36389e-05 0)
(-4.30489 -2.23278e-05 0)
(-4.22657 -2.11308e-05 0)
(-4.15221 -2.00346e-05 0)
(-4.08147 -1.90277e-05 0)
(-4.01407 -1.81003e-05 0)
(-3.94975 -1.7244e-05 0)
(-3.88829 -1.64512e-05 0)
(-3.82947 -1.57158e-05 0)
(-3.77312 -1.50319e-05 0)
(-3.71905 -1.43948e-05 0)
(-3.66713 -1.38002e-05 0)
(-3.6172 -1.3244e-05 0)
(-3.56915 -1.27231e-05 0)
(-3.52285 -1.22343e-05 0)
(-3.47821 -1.1775e-05 0)
(-3.43512 -1.13427e-05 0)
(-3.3935 -1.09353e-05 0)
(-3.35326 -1.05508e-05 0)
(-3.31433 -1.01876e-05 0)
(-3.27664 -9.84385e-06 0)
(-3.24012 -9.51829e-06 0)
(-3.20471 -9.20958e-06 0)
(-3.17036 -8.91653e-06 0)
(-3.13702 -8.63805e-06 0)
(-3.10462 -8.37316e-06 0)
(-3.07314 -8.12095e-06 0)
(-3.04253 -7.8806e-06 0)
(-3.01274 -7.65135e-06 0)
(-2.98375 -7.43249e-06 0)
(-2.95551 -7.22338e-06 0)
(-2.92799 -7.02344e-06 0)
(-2.90117 -6.83211e-06 0)
(-2.87501 -6.64888e-06 0)
(-2.84948 -6.4733e-06 0)
(-2.82457 -6.30492e-06 0)
(-2.80024 -6.14333e-06 0)
(-2.77648 -5.98818e-06 0)
(-2.75325 -5.8391e-06 0)
(-2.73055 -5.69577e-06 0)
(-2.70834 -5.55789e-06 0)
(-2.68662 -5.42517e-06 0)
(-2.66537 -5.29736e-06 0)
(-2.64456 -5.1742e-06 0)
(-2.62419 -5.05547e-06 0)
(-2.60423 -4.94094e-06 0)
(-2.58468 -4.83041e-06 0)
(-2.56551 -4.72369e-06 0)
(-2.54673 -4.62061e-06 0)
(-2.5283 -4.52098e-06 0)
(-2.51023 -4.42467e-06 0)
(-2.4925 -4.3315e-06 0)
(-2.4751 -4.24136e-06 0)
(-2.45802 -4.15409e-06 0)
(-2.44125 -4.06957e-06 0)
(-2.42478 -3.98769e-06 0)
(-2.4086 -3.90834e-06 0)
(-2.39271 -3.8314e-06 0)
(-2.37708 -3.75678e-06 0)
(-2.36173 -3.68438e-06 0)
(-2.34663 -3.61412e-06 0)
(-2.33179 -3.54589e-06 0)
(-2.31719 -3.47964e-06 0)
(-2.30283 -3.41527e-06 0)
(-2.28869 -3.35271e-06 0)
(-2.27479 -3.2919e-06 0)
(-2.2611 -3.23277e-06 0)
(-2.24762 -3.17525e-06 0)
(-2.23436 -3.11928e-06 0)
(-2.22129 -3.06481e-06 0)
(-2.20842 -3.01179e-06 0)
(-2.19575 -2.96015e-06 0)
(-2.18325 -2.90986e-06 0)
(-2.17095 -2.86085e-06 0)
(-2.15882 -2.8131e-06 0)
(-2.14686 -2.76655e-06 0)
(-2.13507 -2.72116e-06 0)
(-2.12345 -2.6769e-06 0)
(-2.11199 -2.63372e-06 0)
(-2.10069 -2.5916e-06 0)
(-2.08954 -2.55048e-06 0)
(-2.07854 -2.51035e-06 0)
(-2.06768 -2.47117e-06 0)
(-2.05698 -2.4329e-06 0)
(-2.04641 -2.39553e-06 0)
(-2.03597 -2.35901e-06 0)
(-2.02568 -2.32333e-06 0)
(-2.01551 -2.28846e-06 0)
(-2.00547 -2.25438e-06 0)
(-1.99556 -2.22105e-06 0)
(-1.98577 -2.18845e-06 0)
(-1.9761 -2.15658e-06 0)
(-1.96655 -2.12539e-06 0)
(-1.95711 -2.09488e-06 0)
(-1.94779 -2.06502e-06 0)
(-1.93858 -2.03579e-06 0)
(-1.92948 -2.00718e-06 0)
(-1.92048 -1.97917e-06 0)
(-1.91159 -1.95174e-06 0)
(-1.90279 -1.92487e-06 0)
(-1.8941 -1.89855e-06 0)
(-1.88551 -1.87276e-06 0)
(-1.87701 -1.84749e-06 0)
(-1.86861 -1.82273e-06 0)
(-1.8603 -1.79846e-06 0)
(-1.85209 -1.77467e-06 0)
(-1.84396 -1.75134e-06 0)
(-1.83592 -1.72846e-06 0)
(-1.82796 -1.70602e-06 0)
(-1.82009 -1.68402e-06 0)
(-1.8123 -1.66243e-06 0)
(-1.80459 -1.64125e-06 0)
(-1.79697 -1.62046e-06 0)
(-1.78942 -1.60006e-06 0)
(-1.78195 -1.58004e-06 0)
(-1.77455 -1.56039e-06 0)
(-1.76723 -1.54109e-06 0)
(-1.75998 -1.52215e-06 0)
(-1.75281 -1.50354e-06 0)
(-1.7457 -1.48527e-06 0)
(-1.73867 -1.46732e-06 0)
(-1.7317 -1.44969e-06 0)
(-1.7248 -1.43237e-06 0)
(-1.71797 -1.41535e-06 0)
(-1.7112 -1.39863e-06 0)
(-1.70449 -1.38219e-06 0)
(-1.69785 -1.36603e-06 0)
(-1.69127 -1.35015e-06 0)
(-1.68475 -1.33454e-06 0)
(-1.67829 -1.31919e-06 0)
(-1.67189 -1.30409e-06 0)
(-1.66555 -1.28925e-06 0)
(-1.65927 -1.27465e-06 0)
(-1.65304 -1.26029e-06 0)
(-1.64687 -1.24617e-06 0)
(-1.64075 -1.23227e-06 0)
(-1.63468 -1.2186e-06 0)
(-1.62867 -1.20515e-06 0)
(-1.62271 -1.19191e-06 0)
(-1.6168 -1.17888e-06 0)
(-1.61095 -1.16606e-06 0)
(-1.60514 -1.15344e-06 0)
(-1.59938 -1.14105e-06 0)
(-1.59367 -1.12871e-06 0)
(-1.58801 -1.11701e-06 0)
(-1.58239 -1.1049e-06 0)
(-1.57683 -1.09175e-06 0)
(-1.57162 -1.08157e-06 0)
(-1.56673 -1.07333e-06 0)
(-1.56182 -1.06296e-06 0)
(-1.55691 -1.05226e-06 0)
(-1.552 -1.04224e-06 0)
(-1.54708 -1.0322e-06 0)
(-1.54215 -1.02227e-06 0)
(-1.53722 -1.01241e-06 0)
(-1.53229 -1.00261e-06 0)
(-1.52734 -9.92877e-07 0)
(-1.5224 -9.83198e-07 0)
(-1.51745 -9.73575e-07 0)
(-1.51249 -9.64008e-07 0)
(-1.50753 -9.54497e-07 0)
(-1.50256 -9.45041e-07 0)
(-1.4976 -9.3564e-07 0)
(-1.49262 -9.26294e-07 0)
(-1.48765 -9.17004e-07 0)
(-1.48267 -9.0777e-07 0)
(-1.47768 -8.98591e-07 0)
(-1.4727 -8.89469e-07 0)
(-1.46771 -8.80403e-07 0)
(-1.46271 -8.71393e-07 0)
(-1.45772 -8.6244e-07 0)
(-1.45272 -8.53545e-07 0)
(-1.44772 -8.44706e-07 0)
(-1.44272 -8.35925e-07 0)
(-1.43772 -8.27202e-07 0)
(-1.43271 -8.18537e-07 0)
(-1.42771 -8.09929e-07 0)
(-1.4227 -8.0138e-07 0)
(-1.41769 -7.9289e-07 0)
(-1.41268 -7.84458e-07 0)
(-1.40767 -7.76085e-07 0)
(-1.40267 -7.6777e-07 0)
(-1.39766 -7.59515e-07 0)
(-1.39265 -7.51319e-07 0)
(-1.38764 -7.43182e-07 0)
(-1.38263 -7.35104e-07 0)
(-1.37762 -7.27086e-07 0)
(-1.37261 -7.19127e-07 0)
(-1.36761 -7.11227e-07 0)
(-1.3626 -7.03388e-07 0)
(-1.3576 -6.95608e-07 0)
(-1.3526 -6.87887e-07 0)
(-1.3476 -6.80227e-07 0)
(-1.3426 -6.72626e-07 0)
(-1.33761 -6.65085e-07 0)
(-1.33261 -6.57603e-07 0)
(-1.32762 -6.50182e-07 0)
(-1.32264 -6.4282e-07 0)
(-1.31765 -6.35517e-07 0)
(-1.31267 -6.28275e-07 0)
(-1.30769 -6.21091e-07 0)
(-1.30272 -6.13968e-07 0)
(-1.29775 -6.06904e-07 0)
(-1.29278 -5.99899e-07 0)
(-1.28782 -5.92954e-07 0)
(-1.28286 -5.86067e-07 0)
(-1.27791 -5.7924e-07 0)
(-1.27296 -5.72472e-07 0)
(-1.26801 -5.65763e-07 0)
(-1.26307 -5.59113e-07 0)
(-1.25814 -5.52521e-07 0)
(-1.25321 -5.45988e-07 0)
(-1.24828 -5.39513e-07 0)
(-1.24336 -5.33096e-07 0)
(-1.23845 -5.26737e-07 0)
(-1.23354 -5.20436e-07 0)
(-1.22864 -5.14193e-07 0)
(-1.22375 -5.08008e-07 0)
(-1.21886 -5.0188e-07 0)
(-1.21398 -4.95809e-07 0)
(-1.2091 -4.89795e-07 0)
(-1.20424 -4.83837e-07 0)
(-1.19938 -4.77936e-07 0)
(-1.19452 -4.72092e-07 0)
(-1.18968 -4.66304e-07 0)
(-1.18484 -4.60571e-07 0)
(-1.18 -4.54894e-07 0)
(-1.17518 -4.49273e-07 0)
(-1.17037 -4.43706e-07 0)
(-1.16556 -4.38195e-07 0)
(-1.16076 -4.32738e-07 0)
(-1.15597 -4.27336e-07 0)
(-1.15118 -4.21987e-07 0)
(-1.14641 -4.16693e-07 0)
(-1.14165 -4.11452e-07 0)
(-1.13689 -4.06265e-07 0)
(-1.13214 -4.0113e-07 0)
(-1.1274 -3.96048e-07 0)
(-1.12267 -3.91019e-07 0)
(-1.11795 -3.86042e-07 0)
(-1.11324 -3.81116e-07 0)
(-1.10854 -3.76243e-07 0)
(-1.10385 -3.7142e-07 0)
(-1.09917 -3.66648e-07 0)
(-1.0945 -3.61928e-07 0)
(-1.08984 -3.57257e-07 0)
(-1.08519 -3.52636e-07 0)
(-1.08055 -3.48065e-07 0)
(-1.07592 -3.43544e-07 0)
(-1.0713 -3.39071e-07 0)
(-1.06669 -3.34648e-07 0)
(-1.06209 -3.30272e-07 0)
(-1.05751 -3.25945e-07 0)
(-1.05293 -3.21665e-07 0)
(-1.04837 -3.17433e-07 0)
(-1.04381 -3.13248e-07 0)
(-1.03927 -3.0911e-07 0)
(-1.03474 -3.05018e-07 0)
(-1.03022 -3.00972e-07 0)
(-1.02571 -2.96972e-07 0)
(-1.02121 -2.93017e-07 0)
(-1.01673 -2.89107e-07 0)
(-1.01226 -2.85242e-07 0)
(-1.00779 -2.81421e-07 0)
(-1.00334 -2.77644e-07 0)
(-0.998908 -2.73911e-07 0)
(-0.994482 -2.70221e-07 0)
(-0.99007 -2.66573e-07 0)
(-0.985669 -2.62969e-07 0)
(-0.981281 -2.59407e-07 0)
(-0.976905 -2.55886e-07 0)
(-0.972542 -2.52407e-07 0)
(-0.968192 -2.4897e-07 0)
(-0.963854 -2.45573e-07 0)
(-0.959529 -2.42216e-07 0)
(-0.955217 -2.389e-07 0)
(-0.950917 -2.35624e-07 0)
(-0.946631 -2.32387e-07 0)
(-0.942357 -2.29189e-07 0)
(-0.938097 -2.26029e-07 0)
(-0.933849 -2.22908e-07 0)
(-0.929615 -2.19825e-07 0)
(-0.925394 -2.1678e-07 0)
(-0.921186 -2.13772e-07 0)
(-0.916992 -2.10801e-07 0)
(-0.912811 -2.07867e-07 0)
(-0.908643 -2.04969e-07 0)
(-0.904489 -2.02107e-07 0)
(-0.900349 -1.9928e-07 0)
(-0.896222 -1.96489e-07 0)
(-0.892109 -1.93733e-07 0)
(-0.888009 -1.91011e-07 0)
(-0.883923 -1.88323e-07 0)
(-0.879851 -1.8567e-07 0)
(-0.875793 -1.83049e-07 0)
(-0.871748 -1.80462e-07 0)
(-0.867717 -1.77908e-07 0)
(-0.863701 -1.75387e-07 0)
(-0.859698 -1.72898e-07 0)
(-0.855709 -1.7044e-07 0)
(-0.851734 -1.68014e-07 0)
(-0.847773 -1.6562e-07 0)
(-0.843826 -1.63256e-07 0)
(-0.839894 -1.60923e-07 0)
(-0.835975 -1.5862e-07 0)
(-0.832071 -1.56347e-07 0)
(-0.82818 -1.54104e-07 0)
(-0.824304 -1.5189e-07 0)
(-0.820442 -1.49705e-07 0)
(-0.816595 -1.47548e-07 0)
(-0.812761 -1.4542e-07 0)
(-0.808942 -1.4332e-07 0)
(-0.805137 -1.41248e-07 0)
(-0.801346 -1.39203e-07 0)
(-0.79757 -1.37186e-07 0)
(-0.793808 -1.35195e-07 0)
(-0.79006 -1.3323e-07 0)
(-0.786327 -1.31292e-07 0)
(-0.782608 -1.2938e-07 0)
(-0.778904 -1.27493e-07 0)
(-0.775213 -1.25631e-07 0)
(-0.771538 -1.23794e-07 0)
(-0.767876 -1.21981e-07 0)
(-0.764229 -1.20194e-07 0)
(-0.760597 -1.18426e-07 0)
(-0.756979 -1.16648e-07 0)
(-0.753378 -1.15015e-07 0)
(-0.749784 -1.13394e-07 0)
(-0.745805 -1.11419e-07 0)
(-0.74149 -1.09322e-07 0)
(-0.737253 -1.07434e-07 0)
(-0.733086 -1.05645e-07 0)
(-0.728989 -1.03843e-07 0)
(-0.724963 -1.02076e-07 0)
(-0.721005 -1.00354e-07 0)
(-0.717113 -9.86784e-08 0)
(-0.713286 -9.70473e-08 0)
(-0.709521 -9.54597e-08 0)
(-0.705819 -9.39142e-08 0)
(-0.702175 -9.24096e-08 0)
(-0.69859 -9.09444e-08 0)
(-0.695061 -8.95173e-08 0)
(-0.691588 -8.81267e-08 0)
(-0.688168 -8.67716e-08 0)
(-0.6848 -8.54506e-08 0)
(-0.681484 -8.41626e-08 0)
(-0.678217 -8.29064e-08 0)
(-0.674999 -8.1681e-08 0)
(-0.671828 -8.04852e-08 0)
(-0.668703 -7.93182e-08 0)
(-0.665623 -7.81789e-08 0)
(-0.662588 -7.70664e-08 0)
(-0.659595 -7.59799e-08 0)
(-0.656645 -7.49186e-08 0)
(-0.653735 -7.38816e-08 0)
(-0.650866 -7.28682e-08 0)
(-0.648035 -7.18776e-08 0)
(-0.645243 -7.09091e-08 0)
(-0.642489 -6.9962e-08 0)
(-0.639771 -6.90358e-08 0)
(-0.637089 -6.81296e-08 0)
(-0.634442 -6.72431e-08 0)
(-0.631829 -6.63755e-08 0)
(-0.62925 -6.55263e-08 0)
(-0.626704 -6.46951e-08 0)
(-0.624189 -6.38811e-08 0)
(-0.621707 -6.30841e-08 0)
(-0.619255 -6.23034e-08 0)
(-0.616833 -6.15386e-08 0)
(-0.614442 -6.07894e-08 0)
(-0.612079 -6.00551e-08 0)
(-0.609744 -5.93355e-08 0)
(-0.607437 -5.86302e-08 0)
(-0.605158 -5.79387e-08 0)
(-0.602906 -5.72607e-08 0)
(-0.600679 -5.65959e-08 0)
(-0.598479 -5.59438e-08 0)
(-0.596303 -5.53042e-08 0)
(-0.594153 -5.46767e-08 0)
(-0.592027 -5.40611e-08 0)
(-0.589924 -5.3457e-08 0)
(-0.587845 -5.28641e-08 0)
(-0.585789 -5.22822e-08 0)
(-0.583756 -5.1711e-08 0)
(-0.581745 -5.11503e-08 0)
(-0.579755 -5.05998e-08 0)
(-0.577787 -5.00592e-08 0)
(-0.57584 -4.95284e-08 0)
(-0.573913 -4.90071e-08 0)
(-0.572007 -4.84951e-08 0)
(-0.57012 -4.79923e-08 0)
(-0.568253 -4.74983e-08 0)
(-0.566405 -4.70131e-08 0)
(-0.564576 -4.65365e-08 0)
(-0.562765 -4.60683e-08 0)
(-0.560972 -4.56084e-08 0)
(-0.559197 -4.51567e-08 0)
(-0.55744 -4.47129e-08 0)
(-0.5557 -4.42771e-08 0)
(-0.553977 -4.38491e-08 0)
(-0.552271 -4.3429e-08 0)
(-0.55058 -4.30165e-08 0)
(-0.548906 -4.26118e-08 0)
(-0.547247 -4.2215e-08 0)
(-0.545604 -4.1826e-08 0)
(-0.543976 -4.14452e-08 0)
(-0.542362 -4.10727e-08 0)
(-0.540763 -4.0709e-08 0)
(-0.539178 -4.03547e-08 0)
(-0.537607 -4.00107e-08 0)
(-0.536049 -3.96784e-08 0)
(-0.534504 -3.9359e-08 0)
(-0.532971 -3.90557e-08 0)
(-0.531449 -3.87804e-08 0)
(-0.529937 -3.85055e-08 0)
(-0.528437 -3.82857e-08 0)
(-0.526943 -3.83354e-08 0)
(-0.525439 -3.76933e-08 0)
(-0.523995 -3.68245e-08 0)
(-0.522558 -4.87172e-08 0)
(-0.520184 -1.34536e-08 0)
(-0.521518 -3.58463e-08 0)
(-0.517338 -5.43636e-08 0)
)
;
    }
    symmetry
    {
        type            symmetryPlane;
    }
    frontAndBack
    {
        type            empty;
    }
}


// ************************************************************************* //
