/*--------------------------------*- C++ -*----------------------------------*\
| =========                 |                                                 |
| \\      /  F ield         | OpenFOAM: The Open Source CFD Toolbox           |
|  \\    /   O peration     | Version:  v2012                                 |
|   \\  /    A nd           | Website:  www.openfoam.com                      |
|    \\/     M anipulation  |                                                 |
\*---------------------------------------------------------------------------*/
FoamFile
{
    version     2.0;
    format      ascii;
    class       volScalarField;
    location    "11";
    object      yPlus;
}
// * * * * * * * * * * * * * * * * * * * * * * * * * * * * * * * * * * * * * //

dimensions      [0 0 0 0 0 0 0];


internalField   uniform 0;

boundaryField
{
    inlet
    {
        type            calculated;
        value           uniform 0;
    }
    outlet
    {
        type            calculated;
        value           uniform 0;
    }
    topWall
    {
        type            calculated;
        value           nonuniform List<scalar> 
545
(
0.0656815
0.113371
0.145407
0.170879
0.192428
0.211267
0.228077
0.243286
0.257188
0.26999
0.281853
0.292896
0.303219
0.312898
0.322001
0.330581
0.338686
0.346355
0.353624
0.360524
0.367082
0.373321
0.379264
0.38493
0.390337
0.3955
0.400435
0.405154
0.409671
0.413996
0.418139
0.422112
0.425921
0.429577
0.433087
0.436457
0.439696
0.442808
0.445801
0.448679
0.451449
0.454115
0.456682
0.459154
0.461535
0.46383
0.466041
0.468174
0.47023
0.472214
0.474128
0.475975
0.477758
0.479479
0.481141
0.482746
0.484297
0.485796
0.487244
0.488643
0.489996
0.491305
0.49257
0.493793
0.494977
0.496122
0.49723
0.498302
0.49934
0.500345
0.501317
0.502259
0.503159
0.504028
0.504889
0.505742
0.506587
0.507423
0.508253
0.509074
0.509887
0.510693
0.511492
0.512283
0.513066
0.513843
0.514612
0.515374
0.516129
0.516877
0.517618
0.518352
0.51908
0.5198
0.520514
0.521222
0.521857
0.522424
0.52299
0.523555
0.524119
0.524683
0.525245
0.525807
0.526368
0.526929
0.527488
0.528047
0.528605
0.529162
0.529719
0.530274
0.530829
0.531382
0.531935
0.532487
0.533038
0.533588
0.534137
0.534686
0.535233
0.53578
0.536325
0.53687
0.537414
0.537957
0.538498
0.539039
0.539579
0.540118
0.540656
0.541193
0.541728
0.542263
0.542797
0.54333
0.543861
0.544392
0.544922
0.54545
0.545978
0.546504
0.547029
0.547553
0.548077
0.548598
0.549119
0.549639
0.550157
0.550675
0.551191
0.551706
0.55222
0.552732
0.553244
0.553754
0.554263
0.554771
0.555278
0.555783
0.556287
0.55679
0.557291
0.557792
0.558291
0.558788
0.559285
0.55978
0.560273
0.560766
0.561257
0.561746
0.562235
0.562722
0.563207
0.563691
0.564174
0.564655
0.565135
0.565614
0.566091
0.566566
0.56704
0.567513
0.567984
0.568454
0.568922
0.569389
0.569854
0.570317
0.57078
0.57124
0.571699
0.572156
0.572612
0.573066
0.573519
0.57397
0.574419
0.574867
0.575313
0.575758
0.576201
0.576642
0.577081
0.577519
0.577955
0.578389
0.578822
0.579253
0.579682
0.580109
0.580535
0.580959
0.581381
0.581801
0.582219
0.582636
0.583051
0.583464
0.583875
0.584284
0.584692
0.585097
0.585501
0.585902
0.586302
0.5867
0.587096
0.58749
0.587882
0.588272
0.58866
0.589046
0.58943
0.589812
0.590192
0.59057
0.590946
0.59132
0.591692
0.592062
0.59243
0.592795
0.593159
0.59352
0.593879
0.594237
0.594591
0.594944
0.595295
0.595643
0.59599
0.596334
0.596676
0.597015
0.597353
0.597688
0.598021
0.598351
0.598679
0.599006
0.599329
0.599651
0.59997
0.600287
0.600601
0.600913
0.601223
0.601512
0.601783
0.602054
0.602326
0.602598
0.602871
0.603144
0.603418
0.603692
0.603966
0.60424
0.604514
0.604789
0.605063
0.605337
0.605612
0.605886
0.60616
0.606434
0.606707
0.60698
0.607253
0.607525
0.607796
0.608067
0.608336
0.608605
0.608874
0.609141
0.609407
0.609672
0.609935
0.610198
0.610458
0.610718
0.610975
0.611231
0.611486
0.611738
0.611988
0.612236
0.612482
0.612726
0.612967
0.613205
0.613441
0.613674
0.613904
0.614132
0.614356
0.614576
0.614793
0.615007
0.615217
0.615423
0.615625
0.615823
0.616017
0.616206
0.616391
0.616571
0.616747
0.616917
0.617082
0.617241
0.617396
0.617544
0.617687
0.617823
0.617954
0.618078
0.618196
0.618306
0.61841
0.618507
0.618597
0.618679
0.618753
0.61882
0.618878
0.618929
0.61897
0.619003
0.619028
0.619043
0.619049
0.619045
0.619032
0.619009
0.618975
0.618932
0.618877
0.618812
0.618736
0.618649
0.61855
0.618439
0.618317
0.618182
0.618035
0.617876
0.617704
0.617518
0.61732
0.617107
0.616882
0.616642
0.616388
0.616119
0.615836
0.615538
0.615225
0.614897
0.614553
0.614194
0.613818
0.613426
0.613018
0.612594
0.612152
0.611694
0.611218
0.610725
0.610214
0.609686
0.609139
0.608575
0.607992
0.60739
0.60677
0.606131
0.605473
0.604796
0.6041
0.603385
0.602649
0.601895
0.60112
0.600325
0.599511
0.598676
0.597822
0.596947
0.596052
0.595136
0.5942
0.593244
0.592267
0.591269
0.590251
0.589213
0.588154
0.587075
0.585975
0.584855
0.583715
0.582554
0.581373
0.580172
0.578951
0.57771
0.57645
0.57517
0.57387
0.572551
0.571214
0.569857
0.568481
0.567088
0.565676
0.564246
0.562798
0.561333
0.55985
0.558351
0.556836
0.555304
0.553756
0.552193
0.550615
0.549021
0.547236
0.545268
0.543307
0.541352
0.539405
0.537467
0.535537
0.533618
0.531709
0.529811
0.527925
0.526051
0.52419
0.522343
0.520509
0.51869
0.516885
0.515095
0.513321
0.511563
0.509821
0.508096
0.506387
0.504696
0.503022
0.501366
0.499728
0.498109
0.496508
0.494926
0.493363
0.491819
0.490294
0.488789
0.487304
0.485839
0.484394
0.48297
0.481566
0.480183
0.47882
0.477479
0.476158
0.474859
0.473582
0.472326
0.471092
0.46988
0.46869
0.467522
0.466376
0.465253
0.464152
0.463074
0.462019
0.460987
0.459978
0.458993
0.45803
0.457092
0.456177
0.455285
0.454418
0.453575
0.452756
0.451961
0.451191
0.450445
0.449725
0.449028
0.448357
0.447711
0.44709
0.446495
0.445924
0.44538
0.444861
0.444367
0.4439
0.443458
0.443042
0.442653
0.44229
0.441952
0.441642
0.441357
0.441099
0.440868
0.440663
0.440484
0.440332
0.440208
0.440107
0.440042
0.439971
)
;
    }
    bottomWall
    {
        type            calculated;
        value           nonuniform List<scalar> 
449
(
0.139635
0.0890673
0.0759013
0.0695218
0.0653343
0.0622055
0.0597098
0.0576469
0.0558983
0.0543862
0.0530584
0.0518787
0.0508206
0.0498638
0.0489928
0.048195
0.0474605
0.0467813
0.0461505
0.0455625
0.0450128
0.0444971
0.0440122
0.043555
0.0431229
0.0427138
0.0423257
0.0419567
0.0416054
0.0412705
0.0409505
0.0406446
0.0403517
0.0400708
0.0398013
0.0395423
0.0392931
0.0390533
0.0388222
0.0385992
0.038384
0.0381762
0.0379752
0.0377807
0.0375924
0.03741
0.0372332
0.0370617
0.0368952
0.0367335
0.0365765
0.0364237
0.0362752
0.0361307
0.0359899
0.0358529
0.0357193
0.0355891
0.0354622
0.0353383
0.0352174
0.0350994
0.0349841
0.0348715
0.0347614
0.0346538
0.0345485
0.0344456
0.0343448
0.0342462
0.0341497
0.0340551
0.0339625
0.0338717
0.0337828
0.0336956
0.03361
0.0335262
0.0334439
0.0333631
0.0332839
0.0332061
0.0331297
0.0330547
0.032981
0.0329086
0.0328374
0.0327675
0.0326988
0.0326312
0.0325648
0.0324994
0.0324351
0.0323719
0.0323096
0.0322484
0.0321881
0.0321288
0.0320704
0.0320128
0.0319562
0.0319003
0.0318454
0.0317912
0.0317378
0.0316852
0.0316334
0.0315823
0.0315319
0.0314822
0.0314332
0.0313849
0.0313373
0.0312903
0.0312439
0.0311981
0.031153
0.0311085
0.0310645
0.0310211
0.0309783
0.030936
0.0308942
0.030853
0.0308123
0.0307721
0.0307323
0.0306931
0.0306544
0.0306161
0.0305782
0.0305409
0.0305039
0.0304674
0.0304314
0.0303957
0.0303605
0.0303256
0.0302912
0.0302571
0.0302234
0.0301901
0.0301572
0.0301246
0.0300924
0.0300605
0.030029
0.0299978
0.029967
0.0299365
0.0299062
0.0298764
0.0298468
0.0298175
0.0297886
0.0297599
0.0297315
0.0297034
0.0296756
0.0296481
0.0296208
0.0295939
0.0295671
0.0295407
0.0295145
0.0294886
0.0294629
0.0294374
0.0294123
0.0293873
0.0293626
0.0293382
0.029314
0.0292912
0.0292698
0.0292486
0.0292274
0.0292063
0.0291851
0.029164
0.0291428
0.0291217
0.0291005
0.0290793
0.029058
0.0290368
0.0290155
0.0289942
0.0289729
0.0289515
0.0289302
0.0289088
0.0288874
0.028866
0.0288446
0.0288231
0.0288017
0.0287802
0.0287588
0.0287373
0.0287158
0.0286943
0.0286729
0.0286514
0.0286299
0.0286084
0.028587
0.0285655
0.028544
0.0285226
0.0285012
0.0284797
0.0284583
0.0284369
0.0284155
0.0283941
0.0283728
0.0283515
0.0283301
0.0283089
0.0282876
0.0282663
0.0282451
0.0282239
0.0282028
0.0281816
0.0281605
0.0281395
0.0281184
0.0280974
0.0280764
0.0280555
0.0280346
0.0280138
0.0279929
0.0279722
0.0279514
0.0279307
0.0279101
0.0278895
0.0278689
0.0278484
0.027828
0.0278076
0.0277872
0.0277669
0.0277466
0.0277264
0.0277063
0.0276862
0.0276662
0.0276462
0.0276263
0.0276064
0.0275866
0.0275669
0.0275472
0.0275276
0.027508
0.0274885
0.0274691
0.0274497
0.0274304
0.0274112
0.027392
0.0273729
0.0273539
0.0273349
0.027316
0.0272972
0.0272785
0.0272598
0.0272412
0.0272227
0.0272042
0.0271859
0.0271676
0.0271493
0.0271312
0.0271131
0.0270951
0.0270772
0.0270594
0.0270416
0.0270239
0.0270063
0.0269888
0.0269714
0.026954
0.0269367
0.0269195
0.0269024
0.0268854
0.0268684
0.0268516
0.0268348
0.0268181
0.0268015
0.0267849
0.0267685
0.0267521
0.0267358
0.0267197
0.0267035
0.0266875
0.0266716
0.0266557
0.02664
0.0266243
0.0266087
0.0265932
0.0265778
0.0265625
0.0265473
0.0265321
0.026517
0.0265021
0.0264872
0.0264724
0.0264577
0.026443
0.0264285
0.0264141
0.0263997
0.0263854
0.0263713
0.0263572
0.0263432
0.0263292
0.0263154
0.0263017
0.026288
0.0262744
0.026261
0.0262476
0.0262343
0.026221
0.0262079
0.0261949
0.0261819
0.026169
0.0261563
0.0261436
0.026131
0.0261184
0.026106
0.0260937
0.0260814
0.0260692
0.0260571
0.0260451
0.0260331
0.0260212
0.0260095
0.0259962
0.0259817
0.0259674
0.0259534
0.0259398
0.0259266
0.0259138
0.0259012
0.025889
0.025877
0.0258653
0.0258539
0.0258428
0.0258319
0.0258213
0.0258108
0.0258006
0.0257907
0.0257809
0.0257713
0.0257619
0.0257527
0.0257437
0.0257349
0.0257262
0.0257177
0.0257094
0.0257012
0.0256932
0.0256853
0.0256776
0.02567
0.0256626
0.0256553
0.0256481
0.025641
0.0256341
0.0256273
0.0256206
0.025614
0.0256075
0.0256011
0.0255949
0.0255887
0.0255827
0.0255767
0.0255708
0.0255651
0.0255594
0.0255538
0.0255483
0.0255429
0.0255375
0.0255323
0.0255271
0.025522
0.025517
0.0255121
0.0255072
0.0255024
0.0254977
0.025493
0.0254884
0.0254839
0.0254794
0.025475
0.0254707
0.0254664
0.0254622
0.025458
0.0254539
0.0254498
0.0254458
0.0254419
0.025438
0.0254342
0.0254304
0.0254266
0.0254229
0.0254193
0.0254157
0.0254121
0.0254086
0.0254051
0.0254017
0.0253983
0.0253949
0.0253916
0.0253883
0.025385
0.0253817
0.0253786
0.025373
0.0253771
0.0253672
)
;
    }
    symmetry
    {
        type            symmetryPlane;
    }
    frontAndBack
    {
        type            empty;
    }
}


// ************************************************************************* //
