/*--------------------------------*- C++ -*----------------------------------*\
| =========                 |                                                 |
| \\      /  F ield         | OpenFOAM: The Open Source CFD Toolbox           |
|  \\    /   O peration     | Version:  v2012                                 |
|   \\  /    A nd           | Website:  www.openfoam.com                      |
|    \\/     M anipulation  |                                                 |
\*---------------------------------------------------------------------------*/
FoamFile
{
    version     2.0;
    format      ascii;
    class       volVectorField;
    location    "51.5";
    object      wallShearStress;
}
// * * * * * * * * * * * * * * * * * * * * * * * * * * * * * * * * * * * * * //

dimensions      [0 2 -2 0 0 0 0];


internalField   uniform (0 0 0);

boundaryField
{
    inlet
    {
        type            calculated;
        value           uniform (0 0 0);
    }
    outlet
    {
        type            calculated;
        value           uniform (0 0 0);
    }
    topWall
    {
        type            calculated;
        value           nonuniform List<vector> 
545
(
(1.48728e-08 -1.04691e-08 0)
(1.48659e-08 -2.92887e-08 0)
(1.48522e-08 -4.88568e-08 0)
(1.48318e-08 -6.78509e-08 0)
(1.48056e-08 -8.60239e-08 0)
(1.47743e-08 -1.03607e-07 0)
(1.47384e-08 -1.20749e-07 0)
(1.46981e-08 -1.37439e-07 0)
(1.4654e-08 -1.53641e-07 0)
(1.46063e-08 -1.69352e-07 0)
(1.45554e-08 -1.84593e-07 0)
(1.45017e-08 -1.99382e-07 0)
(1.44454e-08 -2.13728e-07 0)
(1.4387e-08 -2.2764e-07 0)
(1.43265e-08 -2.41129e-07 0)
(1.42644e-08 -2.54206e-07 0)
(1.42008e-08 -2.66883e-07 0)
(1.41359e-08 -2.79169e-07 0)
(1.407e-08 -2.91076e-07 0)
(1.40033e-08 -3.02615e-07 0)
(1.39358e-08 -3.13796e-07 0)
(1.38679e-08 -3.24629e-07 0)
(1.37995e-08 -3.35125e-07 0)
(1.3731e-08 -3.45293e-07 0)
(1.36623e-08 -3.55144e-07 0)
(1.35937e-08 -3.64687e-07 0)
(1.35251e-08 -3.73932e-07 0)
(1.34568e-08 -3.82887e-07 0)
(1.33888e-08 -3.91563e-07 0)
(1.33212e-08 -3.99967e-07 0)
(1.32541e-08 -4.08108e-07 0)
(1.31875e-08 -4.15994e-07 0)
(1.31215e-08 -4.23634e-07 0)
(1.30562e-08 -4.31036e-07 0)
(1.29915e-08 -4.38206e-07 0)
(1.29276e-08 -4.45153e-07 0)
(1.28645e-08 -4.51884e-07 0)
(1.28022e-08 -4.58405e-07 0)
(1.27408e-08 -4.64724e-07 0)
(1.26802e-08 -4.70846e-07 0)
(1.26205e-08 -4.76779e-07 0)
(1.25618e-08 -4.82529e-07 0)
(1.25039e-08 -4.88101e-07 0)
(1.2447e-08 -4.93501e-07 0)
(1.23911e-08 -4.98735e-07 0)
(1.23362e-08 -5.03809e-07 0)
(1.22822e-08 -5.08727e-07 0)
(1.22291e-08 -5.13494e-07 0)
(1.21771e-08 -5.18116e-07 0)
(1.2126e-08 -5.22597e-07 0)
(1.20759e-08 -5.26941e-07 0)
(1.20268e-08 -5.31154e-07 0)
(1.19787e-08 -5.35239e-07 0)
(1.19315e-08 -5.392e-07 0)
(1.18852e-08 -5.43042e-07 0)
(1.18399e-08 -5.46769e-07 0)
(1.17956e-08 -5.50383e-07 0)
(1.17522e-08 -5.53889e-07 0)
(1.17097e-08 -5.5729e-07 0)
(1.16681e-08 -5.60589e-07 0)
(1.16274e-08 -5.63791e-07 0)
(1.15876e-08 -5.66897e-07 0)
(1.15486e-08 -5.69911e-07 0)
(1.15106e-08 -5.72835e-07 0)
(1.14733e-08 -5.75673e-07 0)
(1.1437e-08 -5.78428e-07 0)
(1.14014e-08 -5.81101e-07 0)
(1.13666e-08 -5.83696e-07 0)
(1.13327e-08 -5.86215e-07 0)
(1.12995e-08 -5.8866e-07 0)
(1.1267e-08 -5.91035e-07 0)
(1.12356e-08 -5.93337e-07 0)
(1.1205e-08 -5.95549e-07 0)
(1.11749e-08 -5.97693e-07 0)
(1.11452e-08 -5.9981e-07 0)
(1.11156e-08 -6.01916e-07 0)
(1.1086e-08 -6.04009e-07 0)
(1.10565e-08 -6.06088e-07 0)
(1.10271e-08 -6.08151e-07 0)
(1.09977e-08 -6.10198e-07 0)
(1.09684e-08 -6.12231e-07 0)
(1.09391e-08 -6.1425e-07 0)
(1.09099e-08 -6.16253e-07 0)
(1.08808e-08 -6.18242e-07 0)
(1.08517e-08 -6.20217e-07 0)
(1.08227e-08 -6.22178e-07 0)
(1.07937e-08 -6.24124e-07 0)
(1.07648e-08 -6.26056e-07 0)
(1.0736e-08 -6.27975e-07 0)
(1.07072e-08 -6.29879e-07 0)
(1.06786e-08 -6.3177e-07 0)
(1.06499e-08 -6.33646e-07 0)
(1.06214e-08 -6.3551e-07 0)
(1.05929e-08 -6.37359e-07 0)
(1.05643e-08 -6.39199e-07 0)
(1.05371e-08 -6.41005e-07 0)
(1.0512e-08 -6.42659e-07 0)
(1.04877e-08 -6.44154e-07 0)
(1.04643e-08 -6.45609e-07 0)
(1.04409e-08 -6.4707e-07 0)
(1.04176e-08 -6.48542e-07 0)
(1.03942e-08 -6.50017e-07 0)
(1.03706e-08 -6.51489e-07 0)
(1.0347e-08 -6.5296e-07 0)
(1.03233e-08 -6.54431e-07 0)
(1.02995e-08 -6.55903e-07 0)
(1.02756e-08 -6.57375e-07 0)
(1.02517e-08 -6.58846e-07 0)
(1.02276e-08 -6.60318e-07 0)
(1.02034e-08 -6.6179e-07 0)
(1.01791e-08 -6.63262e-07 0)
(1.01548e-08 -6.64733e-07 0)
(1.01303e-08 -6.66205e-07 0)
(1.01058e-08 -6.67676e-07 0)
(1.00811e-08 -6.69148e-07 0)
(1.00564e-08 -6.70619e-07 0)
(1.00316e-08 -6.7209e-07 0)
(1.00067e-08 -6.73561e-07 0)
(9.98164e-09 -6.75032e-07 0)
(9.95653e-09 -6.76502e-07 0)
(9.93133e-09 -6.77972e-07 0)
(9.90602e-09 -6.79442e-07 0)
(9.88063e-09 -6.80912e-07 0)
(9.85514e-09 -6.82381e-07 0)
(9.82956e-09 -6.8385e-07 0)
(9.80388e-09 -6.85319e-07 0)
(9.77811e-09 -6.86787e-07 0)
(9.75224e-09 -6.88255e-07 0)
(9.72627e-09 -6.89723e-07 0)
(9.70022e-09 -6.91189e-07 0)
(9.67406e-09 -6.92656e-07 0)
(9.64782e-09 -6.94122e-07 0)
(9.62147e-09 -6.95587e-07 0)
(9.59504e-09 -6.97052e-07 0)
(9.56851e-09 -6.98516e-07 0)
(9.54188e-09 -6.9998e-07 0)
(9.51516e-09 -7.01443e-07 0)
(9.48834e-09 -7.02905e-07 0)
(9.46143e-09 -7.04366e-07 0)
(9.43442e-09 -7.05827e-07 0)
(9.40732e-09 -7.07287e-07 0)
(9.38012e-09 -7.08747e-07 0)
(9.35283e-09 -7.10205e-07 0)
(9.32545e-09 -7.11663e-07 0)
(9.29797e-09 -7.1312e-07 0)
(9.27039e-09 -7.14576e-07 0)
(9.24272e-09 -7.16031e-07 0)
(9.21496e-09 -7.17485e-07 0)
(9.1871e-09 -7.18938e-07 0)
(9.15914e-09 -7.2039e-07 0)
(9.13109e-09 -7.21841e-07 0)
(9.10295e-09 -7.23292e-07 0)
(9.07471e-09 -7.24741e-07 0)
(9.04638e-09 -7.26189e-07 0)
(9.01796e-09 -7.27635e-07 0)
(8.98944e-09 -7.29081e-07 0)
(8.96082e-09 -7.30525e-07 0)
(8.93211e-09 -7.31969e-07 0)
(8.90331e-09 -7.33411e-07 0)
(8.87442e-09 -7.34851e-07 0)
(8.84543e-09 -7.36291e-07 0)
(8.81634e-09 -7.37729e-07 0)
(8.78717e-09 -7.39165e-07 0)
(8.7579e-09 -7.40601e-07 0)
(8.72854e-09 -7.42035e-07 0)
(8.69908e-09 -7.43467e-07 0)
(8.66953e-09 -7.44898e-07 0)
(8.63989e-09 -7.46327e-07 0)
(8.61016e-09 -7.47755e-07 0)
(8.58033e-09 -7.49182e-07 0)
(8.55042e-09 -7.50606e-07 0)
(8.52041e-09 -7.52029e-07 0)
(8.4903e-09 -7.53451e-07 0)
(8.46011e-09 -7.54871e-07 0)
(8.42983e-09 -7.56289e-07 0)
(8.39945e-09 -7.57705e-07 0)
(8.36898e-09 -7.59119e-07 0)
(8.33842e-09 -7.60532e-07 0)
(8.30778e-09 -7.61943e-07 0)
(8.27704e-09 -7.63351e-07 0)
(8.24621e-09 -7.64758e-07 0)
(8.21529e-09 -7.66163e-07 0)
(8.18428e-09 -7.67566e-07 0)
(8.15318e-09 -7.68967e-07 0)
(8.12199e-09 -7.70366e-07 0)
(8.09071e-09 -7.71763e-07 0)
(8.05935e-09 -7.73158e-07 0)
(8.02789e-09 -7.7455e-07 0)
(7.99635e-09 -7.75941e-07 0)
(7.96472e-09 -7.77329e-07 0)
(7.933e-09 -7.78715e-07 0)
(7.9012e-09 -7.80098e-07 0)
(7.86931e-09 -7.8148e-07 0)
(7.83733e-09 -7.82859e-07 0)
(7.80526e-09 -7.84235e-07 0)
(7.77311e-09 -7.85609e-07 0)
(7.74088e-09 -7.86981e-07 0)
(7.70855e-09 -7.8835e-07 0)
(7.67615e-09 -7.89717e-07 0)
(7.64365e-09 -7.91081e-07 0)
(7.61108e-09 -7.92443e-07 0)
(7.57842e-09 -7.93802e-07 0)
(7.54567e-09 -7.95158e-07 0)
(7.51285e-09 -7.96511e-07 0)
(7.47994e-09 -7.97862e-07 0)
(7.44694e-09 -7.9921e-07 0)
(7.41387e-09 -8.00556e-07 0)
(7.38071e-09 -8.01898e-07 0)
(7.34748e-09 -8.03238e-07 0)
(7.31416e-09 -8.04574e-07 0)
(7.28076e-09 -8.05908e-07 0)
(7.24728e-09 -8.07239e-07 0)
(7.21373e-09 -8.08566e-07 0)
(7.18009e-09 -8.09891e-07 0)
(7.14638e-09 -8.11212e-07 0)
(7.11258e-09 -8.12531e-07 0)
(7.07871e-09 -8.13846e-07 0)
(7.04477e-09 -8.15158e-07 0)
(7.01074e-09 -8.16467e-07 0)
(6.97664e-09 -8.17772e-07 0)
(6.94247e-09 -8.19075e-07 0)
(6.90822e-09 -8.20374e-07 0)
(6.87389e-09 -8.21669e-07 0)
(6.83949e-09 -8.22961e-07 0)
(6.80502e-09 -8.2425e-07 0)
(6.77047e-09 -8.25535e-07 0)
(6.73586e-09 -8.26816e-07 0)
(6.70117e-09 -8.28094e-07 0)
(6.66641e-09 -8.29369e-07 0)
(6.63157e-09 -8.3064e-07 0)
(6.59667e-09 -8.31907e-07 0)
(6.5617e-09 -8.3317e-07 0)
(6.52666e-09 -8.34429e-07 0)
(6.49155e-09 -8.35685e-07 0)
(6.45638e-09 -8.36937e-07 0)
(6.42114e-09 -8.38185e-07 0)
(6.38583e-09 -8.39429e-07 0)
(6.35045e-09 -8.4067e-07 0)
(6.31501e-09 -8.41906e-07 0)
(6.27951e-09 -8.43138e-07 0)
(6.24394e-09 -8.44366e-07 0)
(6.20831e-09 -8.4559e-07 0)
(6.17262e-09 -8.4681e-07 0)
(6.13687e-09 -8.48026e-07 0)
(6.10105e-09 -8.49237e-07 0)
(6.06518e-09 -8.50444e-07 0)
(6.02924e-09 -8.51647e-07 0)
(5.99325e-09 -8.52846e-07 0)
(5.9572e-09 -8.5404e-07 0)
(5.92109e-09 -8.5523e-07 0)
(5.88492e-09 -8.56415e-07 0)
(5.8487e-09 -8.57596e-07 0)
(5.81243e-09 -8.58772e-07 0)
(5.7761e-09 -8.59944e-07 0)
(5.73971e-09 -8.61111e-07 0)
(5.70328e-09 -8.62273e-07 0)
(5.66679e-09 -8.63431e-07 0)
(5.63025e-09 -8.64584e-07 0)
(5.59366e-09 -8.65732e-07 0)
(5.55702e-09 -8.66876e-07 0)
(5.52034e-09 -8.68014e-07 0)
(5.4836e-09 -8.69148e-07 0)
(5.44682e-09 -8.70277e-07 0)
(5.41e-09 -8.71401e-07 0)
(5.37313e-09 -8.7252e-07 0)
(5.3362e-09 -8.73634e-07 0)
(5.29929e-09 -8.74742e-07 0)
(5.26207e-09 -8.75847e-07 0)
(5.22594e-09 -8.76939e-07 0)
(5.19132e-09 -8.77975e-07 0)
(5.15723e-09 -8.78956e-07 0)
(5.12355e-09 -8.79926e-07 0)
(5.08972e-09 -8.80902e-07 0)
(5.05562e-09 -8.81887e-07 0)
(5.02119e-09 -8.82876e-07 0)
(4.98644e-09 -8.83868e-07 0)
(4.95135e-09 -8.84863e-07 0)
(4.91594e-09 -8.85862e-07 0)
(4.88019e-09 -8.86865e-07 0)
(4.8441e-09 -8.87871e-07 0)
(4.80768e-09 -8.88881e-07 0)
(4.77092e-09 -8.89894e-07 0)
(4.73381e-09 -8.9091e-07 0)
(4.69637e-09 -8.91929e-07 0)
(4.65857e-09 -8.92951e-07 0)
(4.62043e-09 -8.93975e-07 0)
(4.58195e-09 -8.95002e-07 0)
(4.54311e-09 -8.96032e-07 0)
(4.50393e-09 -8.97063e-07 0)
(4.46439e-09 -8.98097e-07 0)
(4.4245e-09 -8.99133e-07 0)
(4.38425e-09 -9.00171e-07 0)
(4.34365e-09 -9.0121e-07 0)
(4.3027e-09 -9.02251e-07 0)
(4.26138e-09 -9.03293e-07 0)
(4.21971e-09 -9.04336e-07 0)
(4.17768e-09 -9.0538e-07 0)
(4.13529e-09 -9.06425e-07 0)
(4.09254e-09 -9.07471e-07 0)
(4.04942e-09 -9.08516e-07 0)
(4.00595e-09 -9.09562e-07 0)
(3.96211e-09 -9.10608e-07 0)
(3.91791e-09 -9.11653e-07 0)
(3.87335e-09 -9.12698e-07 0)
(3.82843e-09 -9.13742e-07 0)
(3.78314e-09 -9.14785e-07 0)
(3.7375e-09 -9.15827e-07 0)
(3.69149e-09 -9.16867e-07 0)
(3.64512e-09 -9.17906e-07 0)
(3.59838e-09 -9.18942e-07 0)
(3.55129e-09 -9.19976e-07 0)
(3.50384e-09 -9.21008e-07 0)
(3.45603e-09 -9.22036e-07 0)
(3.40786e-09 -9.23062e-07 0)
(3.35934e-09 -9.24083e-07 0)
(3.31046e-09 -9.25102e-07 0)
(3.26123e-09 -9.26116e-07 0)
(3.21165e-09 -9.27125e-07 0)
(3.16172e-09 -9.2813e-07 0)
(3.11144e-09 -9.2913e-07 0)
(3.06081e-09 -9.30125e-07 0)
(3.00985e-09 -9.31113e-07 0)
(2.95854e-09 -9.32096e-07 0)
(2.9069e-09 -9.33072e-07 0)
(2.85492e-09 -9.34041e-07 0)
(2.80261e-09 -9.35003e-07 0)
(2.74997e-09 -9.35958e-07 0)
(2.69701e-09 -9.36904e-07 0)
(2.64373e-09 -9.37842e-07 0)
(2.59014e-09 -9.38771e-07 0)
(2.53623e-09 -9.39691e-07 0)
(2.48201e-09 -9.40602e-07 0)
(2.4275e-09 -9.41502e-07 0)
(2.37268e-09 -9.42392e-07 0)
(2.31757e-09 -9.4327e-07 0)
(2.26218e-09 -9.44138e-07 0)
(2.20651e-09 -9.44993e-07 0)
(2.15056e-09 -9.45837e-07 0)
(2.09434e-09 -9.46667e-07 0)
(2.03787e-09 -9.47484e-07 0)
(1.98113e-09 -9.48287e-07 0)
(1.92415e-09 -9.49076e-07 0)
(1.86693e-09 -9.4985e-07 0)
(1.80948e-09 -9.50609e-07 0)
(1.7518e-09 -9.51352e-07 0)
(1.69391e-09 -9.52079e-07 0)
(1.63581e-09 -9.52789e-07 0)
(1.57751e-09 -9.53481e-07 0)
(1.51902e-09 -9.54156e-07 0)
(1.46035e-09 -9.54812e-07 0)
(1.40152e-09 -9.55449e-07 0)
(1.34252e-09 -9.56066e-07 0)
(1.28337e-09 -9.56663e-07 0)
(1.22409e-09 -9.57239e-07 0)
(1.16468e-09 -9.57794e-07 0)
(1.10515e-09 -9.58327e-07 0)
(1.04552e-09 -9.58837e-07 0)
(9.85802e-10 -9.59324e-07 0)
(9.26003e-10 -9.59787e-07 0)
(8.66138e-10 -9.60226e-07 0)
(8.0622e-10 -9.6064e-07 0)
(7.46264e-10 -9.61029e-07 0)
(6.86283e-10 -9.61391e-07 0)
(6.26291e-10 -9.61726e-07 0)
(5.66303e-10 -9.62034e-07 0)
(5.06333e-10 -9.62313e-07 0)
(4.46398e-10 -9.62564e-07 0)
(3.86512e-10 -9.62785e-07 0)
(3.26692e-10 -9.62977e-07 0)
(2.66954e-10 -9.63138e-07 0)
(2.07314e-10 -9.63267e-07 0)
(1.4779e-10 -9.63365e-07 0)
(8.83976e-11 -9.6343e-07 0)
(2.91555e-11 -9.63461e-07 0)
(-2.99189e-11 -9.63459e-07 0)
(-8.88074e-11 -9.63422e-07 0)
(-1.47492e-10 -9.63351e-07 0)
(-2.05953e-10 -9.63243e-07 0)
(-2.64172e-10 -9.63099e-07 0)
(-3.22131e-10 -9.62918e-07 0)
(-3.79809e-10 -9.627e-07 0)
(-4.37187e-10 -9.62443e-07 0)
(-4.94244e-10 -9.62147e-07 0)
(-5.50962e-10 -9.61812e-07 0)
(-6.07319e-10 -9.61437e-07 0)
(-6.63296e-10 -9.61021e-07 0)
(-7.18871e-10 -9.60564e-07 0)
(-7.74023e-10 -9.60065e-07 0)
(-8.28732e-10 -9.59524e-07 0)
(-8.82977e-10 -9.5894e-07 0)
(-9.36736e-10 -9.58312e-07 0)
(-9.89988e-10 -9.57641e-07 0)
(-1.04271e-09 -9.56925e-07 0)
(-1.09489e-09 -9.56164e-07 0)
(-1.14649e-09 -9.55357e-07 0)
(-1.1975e-09 -9.54505e-07 0)
(-1.2479e-09 -9.53606e-07 0)
(-1.29766e-09 -9.5266e-07 0)
(-1.34677e-09 -9.51666e-07 0)
(-1.39519e-09 -9.50626e-07 0)
(-1.44292e-09 -9.49537e-07 0)
(-1.48993e-09 -9.48399e-07 0)
(-1.5362e-09 -9.47213e-07 0)
(-1.58171e-09 -9.45977e-07 0)
(-1.62643e-09 -9.44692e-07 0)
(-1.67036e-09 -9.43357e-07 0)
(-1.71346e-09 -9.41972e-07 0)
(-1.75572e-09 -9.40537e-07 0)
(-1.79712e-09 -9.39052e-07 0)
(-1.83763e-09 -9.37515e-07 0)
(-1.87725e-09 -9.35928e-07 0)
(-1.91596e-09 -9.3429e-07 0)
(-1.95373e-09 -9.32601e-07 0)
(-1.99054e-09 -9.3086e-07 0)
(-2.02639e-09 -9.29069e-07 0)
(-2.06125e-09 -9.27226e-07 0)
(-2.09511e-09 -9.25331e-07 0)
(-2.12795e-09 -9.23386e-07 0)
(-2.15976e-09 -9.21389e-07 0)
(-2.19053e-09 -9.19341e-07 0)
(-2.22024e-09 -9.17242e-07 0)
(-2.24887e-09 -9.15093e-07 0)
(-2.27642e-09 -9.12893e-07 0)
(-2.30288e-09 -9.10642e-07 0)
(-2.32822e-09 -9.08341e-07 0)
(-2.35245e-09 -9.05991e-07 0)
(-2.37556e-09 -9.0359e-07 0)
(-2.39753e-09 -9.01141e-07 0)
(-2.41835e-09 -8.98643e-07 0)
(-2.43803e-09 -8.96097e-07 0)
(-2.45655e-09 -8.93503e-07 0)
(-2.47392e-09 -8.90861e-07 0)
(-2.49011e-09 -8.88173e-07 0)
(-2.50514e-09 -8.85438e-07 0)
(-2.51899e-09 -8.82658e-07 0)
(-2.53167e-09 -8.79833e-07 0)
(-2.54318e-09 -8.76963e-07 0)
(-2.55351e-09 -8.7405e-07 0)
(-2.56267e-09 -8.71094e-07 0)
(-2.57066e-09 -8.68095e-07 0)
(-2.57747e-09 -8.65056e-07 0)
(-2.58312e-09 -8.61976e-07 0)
(-2.58761e-09 -8.58857e-07 0)
(-2.59093e-09 -8.55699e-07 0)
(-2.59311e-09 -8.52503e-07 0)
(-2.59414e-09 -8.4927e-07 0)
(-2.59404e-09 -8.46003e-07 0)
(-2.59279e-09 -8.42698e-07 0)
(-2.59048e-09 -8.39366e-07 0)
(-2.58683e-09 -8.35961e-07 0)
(-2.58158e-09 -8.32201e-07 0)
(-2.57469e-09 -8.28084e-07 0)
(-2.56616e-09 -8.23894e-07 0)
(-2.55616e-09 -8.19728e-07 0)
(-2.54485e-09 -8.15603e-07 0)
(-2.53232e-09 -8.11502e-07 0)
(-2.51863e-09 -8.07418e-07 0)
(-2.50384e-09 -8.03353e-07 0)
(-2.48802e-09 -7.99313e-07 0)
(-2.47122e-09 -7.95301e-07 0)
(-2.45351e-09 -7.91317e-07 0)
(-2.43493e-09 -7.87363e-07 0)
(-2.41555e-09 -7.83439e-07 0)
(-2.39541e-09 -7.79547e-07 0)
(-2.37457e-09 -7.75688e-07 0)
(-2.35305e-09 -7.71864e-07 0)
(-2.33091e-09 -7.68075e-07 0)
(-2.30819e-09 -7.64322e-07 0)
(-2.28492e-09 -7.60606e-07 0)
(-2.26114e-09 -7.56929e-07 0)
(-2.23689e-09 -7.53291e-07 0)
(-2.2122e-09 -7.49692e-07 0)
(-2.18709e-09 -7.46133e-07 0)
(-2.1616e-09 -7.42616e-07 0)
(-2.13574e-09 -7.3914e-07 0)
(-2.10956e-09 -7.35706e-07 0)
(-2.08307e-09 -7.32314e-07 0)
(-2.05629e-09 -7.28966e-07 0)
(-2.02924e-09 -7.25662e-07 0)
(-2.00194e-09 -7.22401e-07 0)
(-1.97441e-09 -7.19185e-07 0)
(-1.94666e-09 -7.16013e-07 0)
(-1.91872e-09 -7.12887e-07 0)
(-1.89059e-09 -7.09806e-07 0)
(-1.86229e-09 -7.0677e-07 0)
(-1.83382e-09 -7.03781e-07 0)
(-1.80521e-09 -7.00837e-07 0)
(-1.77645e-09 -6.9794e-07 0)
(-1.74757e-09 -6.9509e-07 0)
(-1.71856e-09 -6.92287e-07 0)
(-1.68943e-09 -6.8953e-07 0)
(-1.6602e-09 -6.86821e-07 0)
(-1.63086e-09 -6.84159e-07 0)
(-1.60142e-09 -6.81545e-07 0)
(-1.57189e-09 -6.78978e-07 0)
(-1.54228e-09 -6.76459e-07 0)
(-1.51257e-09 -6.73989e-07 0)
(-1.48279e-09 -6.71566e-07 0)
(-1.45292e-09 -6.69192e-07 0)
(-1.42298e-09 -6.66866e-07 0)
(-1.39296e-09 -6.64588e-07 0)
(-1.36287e-09 -6.62359e-07 0)
(-1.33271e-09 -6.60179e-07 0)
(-1.30248e-09 -6.58048e-07 0)
(-1.27218e-09 -6.55965e-07 0)
(-1.24181e-09 -6.53932e-07 0)
(-1.21137e-09 -6.51948e-07 0)
(-1.18086e-09 -6.50013e-07 0)
(-1.15029e-09 -6.48127e-07 0)
(-1.11965e-09 -6.46291e-07 0)
(-1.08894e-09 -6.44505e-07 0)
(-1.05816e-09 -6.42768e-07 0)
(-1.02732e-09 -6.41082e-07 0)
(-9.96415e-10 -6.39445e-07 0)
(-9.65441e-10 -6.37858e-07 0)
(-9.34401e-10 -6.36322e-07 0)
(-9.03295e-10 -6.34835e-07 0)
(-8.72125e-10 -6.33399e-07 0)
(-8.4089e-10 -6.32014e-07 0)
(-8.0959e-10 -6.30679e-07 0)
(-7.78228e-10 -6.29394e-07 0)
(-7.46803e-10 -6.28161e-07 0)
(-7.15316e-10 -6.26978e-07 0)
(-6.83769e-10 -6.25847e-07 0)
(-6.52163e-10 -6.24766e-07 0)
(-6.20499e-10 -6.23737e-07 0)
(-5.88778e-10 -6.22759e-07 0)
(-5.57004e-10 -6.21832e-07 0)
(-5.25176e-10 -6.20957e-07 0)
(-4.93298e-10 -6.20133e-07 0)
(-4.61372e-10 -6.19361e-07 0)
(-4.29399e-10 -6.1864e-07 0)
(-3.97383e-10 -6.17971e-07 0)
(-3.65326e-10 -6.17355e-07 0)
(-3.33231e-10 -6.16789e-07 0)
(-3.011e-10 -6.1628e-07 0)
(-2.68936e-10 -6.15805e-07 0)
(-2.36748e-10 -6.15439e-07 0)
(-2.04515e-10 -6.14939e-07 0)
(-1.72322e-10 -6.15101e-07 0)
(-1.39905e-10 -6.13251e-07 0)
(-1.0816e-10 -6.18039e-07 0)
(-7.42276e-11 -5.99398e-07 0)
(-4.79262e-11 -6.48521e-07 0)
(-2.00863e-11 -5.66386e-07 0)
)
;
    }
    bottomWall
    {
        type            calculated;
        value           nonuniform List<vector> 
449
(
(-48.5226 -0.963968 0)
(-19.7478 -0.00515427 0)
(-14.341 -0.00113466 0)
(-12.0317 -0.000545433 0)
(-10.6257 -0.000351471 0)
(-9.63199 -0.000255977 0)
(-8.87397 -0.000198472 0)
(-8.2705 -0.000159805 0)
(-7.77511 -0.000132317 0)
(-7.3585 -0.000111971 0)
(-7.00152 -9.63718e-05 0)
(-6.69111 -8.40658e-05 0)
(-6.41798 -7.41486e-05 0)
(-6.17519 -6.60216e-05 0)
(-5.95752 -5.92651e-05 0)
(-5.76088 -5.3576e-05 0)
(-5.58209 -4.87321e-05 0)
(-5.41859 -4.45675e-05 0)
(-5.26831 -4.09563e-05 0)
(-5.12956 -3.78009e-05 0)
(-5.00092 -3.50247e-05 0)
(-4.88121 -3.25672e-05 0)
(-4.76945 -3.03793e-05 0)
(-4.66479 -2.84215e-05 0)
(-4.5665 -2.66614e-05 0)
(-4.47396 -2.50722e-05 0)
(-4.38662 -2.36316e-05 0)
(-4.30401 -2.23209e-05 0)
(-4.22571 -2.11243e-05 0)
(-4.15137 -2.00285e-05 0)
(-4.08066 -1.90219e-05 0)
(-4.01328 -1.80949e-05 0)
(-3.94898 -1.72388e-05 0)
(-3.88754 -1.64463e-05 0)
(-3.82874 -1.57111e-05 0)
(-3.7724 -1.50275e-05 0)
(-3.71835 -1.43906e-05 0)
(-3.66644 -1.37961e-05 0)
(-3.61652 -1.32402e-05 0)
(-3.56849 -1.27194e-05 0)
(-3.5222 -1.22308e-05 0)
(-3.47757 -1.17716e-05 0)
(-3.4345 -1.13395e-05 0)
(-3.39289 -1.09322e-05 0)
(-3.35266 -1.05479e-05 0)
(-3.31374 -1.01847e-05 0)
(-3.27606 -9.84115e-06 0)
(-3.23955 -9.5157e-06 0)
(-3.20416 -9.2071e-06 0)
(-3.16981 -8.91415e-06 0)
(-3.13648 -8.63577e-06 0)
(-3.10409 -8.37097e-06 0)
(-3.07262 -8.11885e-06 0)
(-3.04201 -7.87858e-06 0)
(-3.01224 -7.64941e-06 0)
(-2.98325 -7.43063e-06 0)
(-2.95502 -7.2216e-06 0)
(-2.92751 -7.02173e-06 0)
(-2.90069 -6.83047e-06 0)
(-2.87454 -6.64732e-06 0)
(-2.84902 -6.4718e-06 0)
(-2.82411 -6.30348e-06 0)
(-2.79979 -6.14196e-06 0)
(-2.77603 -5.98686e-06 0)
(-2.75281 -5.83784e-06 0)
(-2.73011 -5.69456e-06 0)
(-2.70791 -5.55674e-06 0)
(-2.68619 -5.42408e-06 0)
(-2.66494 -5.29632e-06 0)
(-2.64414 -5.17321e-06 0)
(-2.62377 -5.05452e-06 0)
(-2.60381 -4.94004e-06 0)
(-2.58426 -4.82956e-06 0)
(-2.5651 -4.72288e-06 0)
(-2.54632 -4.61984e-06 0)
(-2.5279 -4.52027e-06 0)
(-2.50983 -4.42399e-06 0)
(-2.4921 -4.33087e-06 0)
(-2.4747 -4.24076e-06 0)
(-2.45763 -4.15353e-06 0)
(-2.44086 -4.06906e-06 0)
(-2.42439 -3.98722e-06 0)
(-2.40821 -3.9079e-06 0)
(-2.39232 -3.831e-06 0)
(-2.3767 -3.75642e-06 0)
(-2.36135 -3.68406e-06 0)
(-2.34625 -3.61382e-06 0)
(-2.33141 -3.54564e-06 0)
(-2.31681 -3.47941e-06 0)
(-2.30245 -3.41508e-06 0)
(-2.28832 -3.35255e-06 0)
(-2.27441 -3.29177e-06 0)
(-2.26072 -3.23267e-06 0)
(-2.24725 -3.17518e-06 0)
(-2.23398 -3.11925e-06 0)
(-2.22091 -3.06481e-06 0)
(-2.20805 -3.01181e-06 0)
(-2.19537 -2.96021e-06 0)
(-2.18288 -2.90994e-06 0)
(-2.17057 -2.86097e-06 0)
(-2.15844 -2.81324e-06 0)
(-2.14648 -2.76672e-06 0)
(-2.13469 -2.72136e-06 0)
(-2.12307 -2.67713e-06 0)
(-2.11161 -2.63397e-06 0)
(-2.1003 -2.59187e-06 0)
(-2.08915 -2.55078e-06 0)
(-2.07815 -2.51068e-06 0)
(-2.0673 -2.47152e-06 0)
(-2.05659 -2.43328e-06 0)
(-2.04602 -2.39593e-06 0)
(-2.03558 -2.35944e-06 0)
(-2.02528 -2.32378e-06 0)
(-2.01511 -2.28894e-06 0)
(-2.00507 -2.25487e-06 0)
(-1.99516 -2.22157e-06 0)
(-1.98537 -2.189e-06 0)
(-1.9757 -2.15714e-06 0)
(-1.96614 -2.12598e-06 0)
(-1.9567 -2.09549e-06 0)
(-1.94738 -2.06565e-06 0)
(-1.93816 -2.03644e-06 0)
(-1.92906 -2.00785e-06 0)
(-1.92006 -1.97986e-06 0)
(-1.91116 -1.95245e-06 0)
(-1.90236 -1.9256e-06 0)
(-1.89367 -1.8993e-06 0)
(-1.88507 -1.87353e-06 0)
(-1.87657 -1.84828e-06 0)
(-1.86817 -1.82354e-06 0)
(-1.85986 -1.79929e-06 0)
(-1.85163 -1.77551e-06 0)
(-1.8435 -1.7522e-06 0)
(-1.83545 -1.72934e-06 0)
(-1.82749 -1.70693e-06 0)
(-1.81962 -1.68494e-06 0)
(-1.81183 -1.66336e-06 0)
(-1.80412 -1.6422e-06 0)
(-1.79648 -1.62143e-06 0)
(-1.78893 -1.60105e-06 0)
(-1.78146 -1.58105e-06 0)
(-1.77406 -1.56141e-06 0)
(-1.76673 -1.54213e-06 0)
(-1.75948 -1.5232e-06 0)
(-1.7523 -1.50461e-06 0)
(-1.74519 -1.48636e-06 0)
(-1.73814 -1.46842e-06 0)
(-1.73117 -1.45081e-06 0)
(-1.72427 -1.4335e-06 0)
(-1.71743 -1.4165e-06 0)
(-1.71065 -1.39979e-06 0)
(-1.70394 -1.38336e-06 0)
(-1.69729 -1.36722e-06 0)
(-1.69071 -1.35135e-06 0)
(-1.68418 -1.33576e-06 0)
(-1.67772 -1.32042e-06 0)
(-1.67131 -1.30534e-06 0)
(-1.66496 -1.29051e-06 0)
(-1.65867 -1.27592e-06 0)
(-1.65244 -1.26157e-06 0)
(-1.64626 -1.24746e-06 0)
(-1.64014 -1.23358e-06 0)
(-1.63406 -1.21992e-06 0)
(-1.62805 -1.20648e-06 0)
(-1.62208 -1.19325e-06 0)
(-1.61616 -1.18024e-06 0)
(-1.6103 -1.16743e-06 0)
(-1.60449 -1.15483e-06 0)
(-1.59872 -1.14244e-06 0)
(-1.593 -1.13011e-06 0)
(-1.58733 -1.11843e-06 0)
(-1.58171 -1.10633e-06 0)
(-1.57614 -1.09319e-06 0)
(-1.57092 -1.08301e-06 0)
(-1.56602 -1.07479e-06 0)
(-1.56111 -1.06443e-06 0)
(-1.55619 -1.05375e-06 0)
(-1.55127 -1.04374e-06 0)
(-1.54635 -1.0337e-06 0)
(-1.54141 -1.02379e-06 0)
(-1.53648 -1.01393e-06 0)
(-1.53153 -1.00414e-06 0)
(-1.52658 -9.94416e-07 0)
(-1.52163 -9.84745e-07 0)
(-1.51667 -9.75131e-07 0)
(-1.51171 -9.65573e-07 0)
(-1.50674 -9.5607e-07 0)
(-1.50176 -9.46622e-07 0)
(-1.49679 -9.37229e-07 0)
(-1.4918 -9.27892e-07 0)
(-1.48682 -9.1861e-07 0)
(-1.48183 -9.09383e-07 0)
(-1.47684 -9.00212e-07 0)
(-1.47184 -8.91097e-07 0)
(-1.46684 -8.82039e-07 0)
(-1.46184 -8.73036e-07 0)
(-1.45683 -8.64091e-07 0)
(-1.45183 -8.55203e-07 0)
(-1.44682 -8.46371e-07 0)
(-1.44181 -8.37597e-07 0)
(-1.43679 -8.28881e-07 0)
(-1.43178 -8.20222e-07 0)
(-1.42676 -8.11622e-07 0)
(-1.42174 -8.03079e-07 0)
(-1.41673 -7.94595e-07 0)
(-1.41171 -7.8617e-07 0)
(-1.40669 -7.77803e-07 0)
(-1.40167 -7.69494e-07 0)
(-1.39664 -7.61245e-07 0)
(-1.39162 -7.53055e-07 0)
(-1.3866 -7.44924e-07 0)
(-1.38158 -7.36852e-07 0)
(-1.37656 -7.28839e-07 0)
(-1.37154 -7.20885e-07 0)
(-1.36653 -7.12992e-07 0)
(-1.36151 -7.05157e-07 0)
(-1.35649 -6.97382e-07 0)
(-1.35148 -6.89667e-07 0)
(-1.34646 -6.82011e-07 0)
(-1.34145 -6.74415e-07 0)
(-1.33645 -6.66879e-07 0)
(-1.33144 -6.59402e-07 0)
(-1.32643 -6.51985e-07 0)
(-1.32143 -6.44627e-07 0)
(-1.31643 -6.37329e-07 0)
(-1.31144 -6.30091e-07 0)
(-1.30645 -6.22912e-07 0)
(-1.30146 -6.15792e-07 0)
(-1.29647 -6.08732e-07 0)
(-1.29149 -6.01731e-07 0)
(-1.28651 -5.94789e-07 0)
(-1.28154 -5.87906e-07 0)
(-1.27657 -5.81082e-07 0)
(-1.2716 -5.74318e-07 0)
(-1.26664 -5.67612e-07 0)
(-1.26168 -5.60964e-07 0)
(-1.25673 -5.54375e-07 0)
(-1.25178 -5.47845e-07 0)
(-1.24684 -5.41373e-07 0)
(-1.24191 -5.34959e-07 0)
(-1.23698 -5.28603e-07 0)
(-1.23205 -5.22304e-07 0)
(-1.22713 -5.16063e-07 0)
(-1.22222 -5.0988e-07 0)
(-1.21731 -5.03754e-07 0)
(-1.21241 -4.97685e-07 0)
(-1.20752 -4.91673e-07 0)
(-1.20263 -4.85717e-07 0)
(-1.19775 -4.79818e-07 0)
(-1.19288 -4.73975e-07 0)
(-1.18801 -4.68188e-07 0)
(-1.18315 -4.62457e-07 0)
(-1.1783 -4.56781e-07 0)
(-1.17346 -4.5116e-07 0)
(-1.16862 -4.45595e-07 0)
(-1.16379 -4.40084e-07 0)
(-1.15897 -4.34628e-07 0)
(-1.15416 -4.29227e-07 0)
(-1.14936 -4.23879e-07 0)
(-1.14456 -4.18585e-07 0)
(-1.13977 -4.13344e-07 0)
(-1.135 -4.08157e-07 0)
(-1.13023 -4.03022e-07 0)
(-1.12546 -3.97941e-07 0)
(-1.12071 -3.92911e-07 0)
(-1.11597 -3.87934e-07 0)
(-1.11124 -3.83008e-07 0)
(-1.10651 -3.78134e-07 0)
(-1.1018 -3.73311e-07 0)
(-1.09709 -3.68538e-07 0)
(-1.0924 -3.63817e-07 0)
(-1.08771 -3.59145e-07 0)
(-1.08303 -3.54524e-07 0)
(-1.07837 -3.49952e-07 0)
(-1.07371 -3.45429e-07 0)
(-1.06907 -3.40955e-07 0)
(-1.06443 -3.3653e-07 0)
(-1.05981 -3.32153e-07 0)
(-1.0552 -3.27824e-07 0)
(-1.05059 -3.23543e-07 0)
(-1.046 -3.19309e-07 0)
(-1.04142 -3.15122e-07 0)
(-1.03685 -3.10982e-07 0)
(-1.03229 -3.06887e-07 0)
(-1.02774 -3.02839e-07 0)
(-1.0232 -2.98837e-07 0)
(-1.01868 -2.94879e-07 0)
(-1.01417 -2.90967e-07 0)
(-1.00966 -2.87099e-07 0)
(-1.00517 -2.83276e-07 0)
(-1.00069 -2.79496e-07 0)
(-0.996226 -2.7576e-07 0)
(-0.99177 -2.72067e-07 0)
(-0.987327 -2.68417e-07 0)
(-0.982895 -2.64809e-07 0)
(-0.978476 -2.61244e-07 0)
(-0.974069 -2.5772e-07 0)
(-0.969674 -2.54238e-07 0)
(-0.965291 -2.50796e-07 0)
(-0.960921 -2.47396e-07 0)
(-0.956563 -2.44036e-07 0)
(-0.952218 -2.40716e-07 0)
(-0.947885 -2.37435e-07 0)
(-0.943565 -2.34194e-07 0)
(-0.939258 -2.30992e-07 0)
(-0.934963 -2.27829e-07 0)
(-0.930681 -2.24704e-07 0)
(-0.926412 -2.21617e-07 0)
(-0.922157 -2.18567e-07 0)
(-0.917914 -2.15555e-07 0)
(-0.913684 -2.12579e-07 0)
(-0.909467 -2.0964e-07 0)
(-0.905263 -2.06737e-07 0)
(-0.901073 -2.0387e-07 0)
(-0.896895 -2.01039e-07 0)
(-0.892731 -1.98243e-07 0)
(-0.888581 -1.95482e-07 0)
(-0.884443 -1.92755e-07 0)
(-0.88032 -1.90062e-07 0)
(-0.876209 -1.87403e-07 0)
(-0.872112 -1.84778e-07 0)
(-0.868029 -1.82185e-07 0)
(-0.863959 -1.79626e-07 0)
(-0.859903 -1.77099e-07 0)
(-0.85586 -1.74604e-07 0)
(-0.851831 -1.72141e-07 0)
(-0.847816 -1.6971e-07 0)
(-0.843815 -1.67309e-07 0)
(-0.839827 -1.6494e-07 0)
(-0.835853 -1.62601e-07 0)
(-0.831893 -1.60292e-07 0)
(-0.827947 -1.58013e-07 0)
(-0.824014 -1.55764e-07 0)
(-0.820096 -1.53544e-07 0)
(-0.816191 -1.51352e-07 0)
(-0.8123 -1.4919e-07 0)
(-0.808423 -1.47055e-07 0)
(-0.804561 -1.44949e-07 0)
(-0.800712 -1.42871e-07 0)
(-0.796877 -1.40819e-07 0)
(-0.793056 -1.38795e-07 0)
(-0.789249 -1.36798e-07 0)
(-0.785456 -1.34827e-07 0)
(-0.781678 -1.32882e-07 0)
(-0.777913 -1.30963e-07 0)
(-0.774162 -1.29069e-07 0)
(-0.770426 -1.272e-07 0)
(-0.766703 -1.25356e-07 0)
(-0.762995 -1.23535e-07 0)
(-0.759301 -1.21742e-07 0)
(-0.755621 -1.19966e-07 0)
(-0.751955 -1.18179e-07 0)
(-0.748306 -1.1654e-07 0)
(-0.744664 -1.14913e-07 0)
(-0.740631 -1.12926e-07 0)
(-0.736256 -1.10816e-07 0)
(-0.731961 -1.08915e-07 0)
(-0.727735 -1.07117e-07 0)
(-0.723581 -1.05307e-07 0)
(-0.719496 -1.03532e-07 0)
(-0.715481 -1.01803e-07 0)
(-0.711532 -1.0012e-07 0)
(-0.707648 -9.84816e-08 0)
(-0.703827 -9.68873e-08 0)
(-0.700068 -9.53352e-08 0)
(-0.696369 -9.38242e-08 0)
(-0.692728 -9.23526e-08 0)
(-0.689144 -9.09191e-08 0)
(-0.685615 -8.95224e-08 0)
(-0.68214 -8.81611e-08 0)
(-0.678718 -8.6834e-08 0)
(-0.675347 -8.554e-08 0)
(-0.672025 -8.42777e-08 0)
(-0.668753 -8.30463e-08 0)
(-0.665528 -8.18446e-08 0)
(-0.66235 -8.06717e-08 0)
(-0.659217 -7.95266e-08 0)
(-0.656128 -7.84083e-08 0)
(-0.653083 -7.73161e-08 0)
(-0.65008 -7.6249e-08 0)
(-0.647118 -7.52063e-08 0)
(-0.644196 -7.41872e-08 0)
(-0.641314 -7.3191e-08 0)
(-0.63847 -7.2217e-08 0)
(-0.635664 -7.12644e-08 0)
(-0.632894 -7.03326e-08 0)
(-0.630161 -6.9421e-08 0)
(-0.627463 -6.8529e-08 0)
(-0.6248 -6.76561e-08 0)
(-0.62217 -6.68016e-08 0)
(-0.619574 -6.5965e-08 0)
(-0.61701 -6.51458e-08 0)
(-0.614477 -6.43434e-08 0)
(-0.611976 -6.35576e-08 0)
(-0.609505 -6.27876e-08 0)
(-0.607064 -6.20332e-08 0)
(-0.604652 -6.12939e-08 0)
(-0.602268 -6.05693e-08 0)
(-0.599913 -5.98589e-08 0)
(-0.597585 -5.91624e-08 0)
(-0.595285 -5.84795e-08 0)
(-0.59301 -5.78097e-08 0)
(-0.590762 -5.71528e-08 0)
(-0.588539 -5.65083e-08 0)
(-0.586341 -5.58761e-08 0)
(-0.584167 -5.52557e-08 0)
(-0.582018 -5.46468e-08 0)
(-0.579892 -5.40493e-08 0)
(-0.57779 -5.34627e-08 0)
(-0.57571 -5.28869e-08 0)
(-0.573652 -5.23216e-08 0)
(-0.571616 -5.17665e-08 0)
(-0.569602 -5.12214e-08 0)
(-0.567609 -5.06862e-08 0)
(-0.565637 -5.01604e-08 0)
(-0.563685 -4.9644e-08 0)
(-0.561753 -4.91368e-08 0)
(-0.559841 -4.86386e-08 0)
(-0.557948 -4.81491e-08 0)
(-0.556074 -4.76682e-08 0)
(-0.554218 -4.71958e-08 0)
(-0.552381 -4.67318e-08 0)
(-0.550562 -4.62759e-08 0)
(-0.548761 -4.58281e-08 0)
(-0.546977 -4.53882e-08 0)
(-0.54521 -4.49563e-08 0)
(-0.54346 -4.45322e-08 0)
(-0.541726 -4.41159e-08 0)
(-0.540009 -4.37074e-08 0)
(-0.538307 -4.33068e-08 0)
(-0.536621 -4.29141e-08 0)
(-0.534949 -4.25297e-08 0)
(-0.533293 -4.21537e-08 0)
(-0.531652 -4.17866e-08 0)
(-0.530024 -4.1429e-08 0)
(-0.52841 -4.10818e-08 0)
(-0.52681 -4.07465e-08 0)
(-0.525223 -4.04242e-08 0)
(-0.523648 -4.01183e-08 0)
(-0.522084 -3.98412e-08 0)
(-0.520531 -3.95623e-08 0)
(-0.518989 -3.93414e-08 0)
(-0.517453 -3.94026e-08 0)
(-0.515907 -3.87206e-08 0)
(-0.514424 -3.78514e-08 0)
(-0.512945 -5.00193e-08 0)
(-0.51051 -1.40091e-08 0)
(-0.51186 -3.69307e-08 0)
(-0.507578 -5.56696e-08 0)
)
;
    }
    symmetry
    {
        type            symmetryPlane;
    }
    frontAndBack
    {
        type            empty;
    }
}


// ************************************************************************* //
