/*--------------------------------*- C++ -*----------------------------------*\
| =========                 |                                                 |
| \\      /  F ield         | OpenFOAM: The Open Source CFD Toolbox           |
|  \\    /   O peration     | Version:  v2012                                 |
|   \\  /    A nd           | Website:  www.openfoam.com                      |
|    \\/     M anipulation  |                                                 |
\*---------------------------------------------------------------------------*/
FoamFile
{
    version     2.0;
    format      ascii;
    class       volScalarField;
    location    "51.5";
    object      yPlus;
}
// * * * * * * * * * * * * * * * * * * * * * * * * * * * * * * * * * * * * * //

dimensions      [0 0 0 0 0 0 0];


internalField   uniform 0;

boundaryField
{
    inlet
    {
        type            calculated;
        value           uniform 0;
    }
    outlet
    {
        type            calculated;
        value           uniform 0;
    }
    topWall
    {
        type            calculated;
        value           nonuniform List<scalar> 
545
(
0.0708348
0.12214
0.156688
0.184171
0.207426
0.22776
0.245908
0.262333
0.27735
0.291186
0.30401
0.315954
0.327123
0.337601
0.347459
0.356757
0.365543
0.373863
0.381753
0.389246
0.396371
0.403155
0.40962
0.415788
0.421677
0.427305
0.432687
0.437838
0.442771
0.447497
0.452028
0.456375
0.460547
0.464552
0.4684
0.472099
0.475654
0.479074
0.482365
0.485532
0.488582
0.491519
0.494349
0.497076
0.499705
0.50224
0.504686
0.507045
0.509322
0.511519
0.513641
0.51569
0.51767
0.519582
0.52143
0.523216
0.524942
0.526612
0.528226
0.529788
0.531298
0.53276
0.534174
0.535543
0.536868
0.538151
0.539394
0.540597
0.541762
0.542891
0.543984
0.545044
0.546058
0.547037
0.548008
0.54897
0.549924
0.550869
0.551806
0.552734
0.553654
0.554566
0.55547
0.556366
0.557253
0.558134
0.559006
0.559871
0.560728
0.561577
0.56242
0.563255
0.564082
0.564903
0.565716
0.566522
0.567248
0.567897
0.568545
0.569192
0.569839
0.570485
0.57113
0.571775
0.572419
0.573062
0.573705
0.574347
0.574988
0.575628
0.576268
0.576907
0.577545
0.578183
0.57882
0.579456
0.580091
0.580726
0.581359
0.581992
0.582625
0.583256
0.583886
0.584516
0.585145
0.585773
0.5864
0.587027
0.587652
0.588277
0.588901
0.589524
0.590146
0.590767
0.591387
0.592006
0.592625
0.593242
0.593859
0.594474
0.595089
0.595703
0.596315
0.596927
0.597538
0.598148
0.598756
0.599364
0.599971
0.600577
0.601181
0.601785
0.602388
0.602989
0.60359
0.604189
0.604787
0.605385
0.605981
0.606576
0.60717
0.607762
0.608354
0.608944
0.609534
0.610122
0.610709
0.611295
0.611879
0.612463
0.613045
0.613626
0.614206
0.614784
0.615361
0.615937
0.616512
0.617086
0.617658
0.618229
0.618798
0.619367
0.619934
0.620499
0.621063
0.621626
0.622188
0.622748
0.623307
0.623864
0.62442
0.624975
0.625528
0.62608
0.62663
0.627179
0.627727
0.628273
0.628817
0.62936
0.629902
0.630442
0.63098
0.631517
0.632053
0.632587
0.633119
0.63365
0.634179
0.634706
0.635232
0.635757
0.63628
0.636801
0.63732
0.637838
0.638354
0.638869
0.639382
0.639893
0.640402
0.64091
0.641416
0.64192
0.642423
0.642923
0.643423
0.64392
0.644415
0.644909
0.645401
0.645891
0.646379
0.646865
0.64735
0.647833
0.648313
0.648792
0.649269
0.649745
0.650218
0.650689
0.651158
0.651626
0.652091
0.652555
0.653016
0.653476
0.653933
0.654389
0.654842
0.655294
0.655743
0.656191
0.656636
0.657079
0.657521
0.65796
0.658397
0.658832
0.659264
0.659695
0.660123
0.66055
0.660974
0.661396
0.661816
0.662233
0.662649
0.663039
0.663406
0.663774
0.664144
0.664515
0.664887
0.665261
0.665635
0.666011
0.666388
0.666767
0.667146
0.667526
0.667907
0.668289
0.668672
0.669056
0.66944
0.669826
0.670211
0.670598
0.670985
0.671372
0.67176
0.672148
0.672536
0.672925
0.673313
0.673702
0.674091
0.674479
0.674868
0.675256
0.675644
0.676031
0.676418
0.676804
0.67719
0.677575
0.677958
0.678341
0.678723
0.679104
0.679484
0.679862
0.680238
0.680613
0.680987
0.681358
0.681728
0.682095
0.68246
0.682823
0.683184
0.683542
0.683897
0.68425
0.684599
0.684946
0.685289
0.685629
0.685965
0.686298
0.686627
0.686952
0.687272
0.687589
0.687901
0.688208
0.68851
0.688808
0.6891
0.689387
0.689669
0.689945
0.690215
0.690479
0.690737
0.690989
0.691234
0.691472
0.691703
0.691927
0.692143
0.692352
0.692553
0.692747
0.692932
0.693108
0.693276
0.693435
0.693585
0.693726
0.693857
0.693979
0.694091
0.694192
0.694283
0.694364
0.694433
0.694492
0.694539
0.694575
0.694599
0.694611
0.694611
0.694599
0.694574
0.694536
0.694484
0.69442
0.694342
0.69425
0.694144
0.694024
0.693889
0.69374
0.693576
0.693396
0.693201
0.692991
0.692765
0.692523
0.692265
0.69199
0.691699
0.691391
0.691066
0.690724
0.690365
0.689988
0.689593
0.689181
0.68875
0.688302
0.687835
0.687349
0.686846
0.686323
0.685781
0.685221
0.684641
0.684043
0.683425
0.682787
0.682131
0.681455
0.680759
0.680043
0.679309
0.678554
0.67778
0.676986
0.676172
0.675339
0.674486
0.673613
0.672721
0.671809
0.670878
0.669928
0.668958
0.667969
0.666961
0.665934
0.664888
0.663824
0.662741
0.66164
0.660521
0.659383
0.658229
0.657056
0.655867
0.65466
0.653437
0.652198
0.650942
0.649671
0.648384
0.647082
0.645617
0.643998
0.642378
0.640761
0.639147
0.637535
0.635929
0.634327
0.632731
0.631141
0.629559
0.627984
0.626417
0.62486
0.623312
0.621773
0.620246
0.618729
0.617223
0.61573
0.614248
0.612779
0.611324
0.609881
0.608452
0.607037
0.605637
0.604251
0.60288
0.601524
0.600184
0.598859
0.59755
0.596257
0.594981
0.593722
0.592479
0.591253
0.590045
0.588854
0.58768
0.586525
0.585387
0.584268
0.583167
0.582084
0.58102
0.579975
0.578949
0.577942
0.576954
0.575986
0.575037
0.574108
0.573199
0.57231
0.571442
0.570593
0.569765
0.568957
0.568171
0.567405
0.56666
0.565936
0.565233
0.564552
0.563893
0.563254
0.562638
0.562044
0.561471
0.560921
0.560393
0.559887
0.559403
0.558942
0.558504
0.558088
0.557695
0.557325
0.556978
0.556654
0.556353
0.556076
0.555821
0.55559
0.555382
0.555198
0.555037
0.554899
0.554785
0.554695
0.554627
0.554586
0.554557
)
;
    }
    bottomWall
    {
        type            calculated;
        value           nonuniform List<scalar> 
449
(
0.139439
0.0889534
0.075804
0.0694329
0.0652501
0.0621241
0.0596295
0.0575662
0.0558155
0.0542996
0.0529661
0.0517787
0.0507109
0.0497425
0.0488579
0.0480448
0.0472934
0.0465956
0.045945
0.0453359
0.0447638
0.0442248
0.0437156
0.0432333
0.0427754
0.0423397
0.0419244
0.0415278
0.0411483
0.0407848
0.0404359
0.0401007
0.0397781
0.0394675
0.0391679
0.0388786
0.0385991
0.0383287
0.0380669
0.0378133
0.0375672
0.0373285
0.0370966
0.0368712
0.0366519
0.0364386
0.0362308
0.0360284
0.035831
0.0356385
0.0354506
0.0352671
0.0350878
0.0349126
0.0347413
0.0345738
0.0344098
0.0342492
0.034092
0.033938
0.033787
0.033639
0.0334938
0.0333514
0.0332116
0.0330744
0.0329397
0.0328073
0.0326773
0.0325495
0.0324239
0.0323003
0.0321789
0.0320593
0.0319417
0.031826
0.031712
0.0315998
0.0314894
0.0313805
0.0312733
0.0311676
0.0310634
0.0309608
0.0308595
0.0307597
0.0306612
0.0305641
0.0304682
0.0303736
0.0302803
0.0301881
0.0300972
0.0300073
0.0299186
0.029831
0.0297445
0.0296589
0.0295745
0.029491
0.0294084
0.0293269
0.0292462
0.0291665
0.0290877
0.0290097
0.0289326
0.0288563
0.0287808
0.0287062
0.0286323
0.0285592
0.0284869
0.0284153
0.0283444
0.0282742
0.0282048
0.028136
0.0280679
0.0280004
0.0279336
0.0278674
0.0278019
0.027737
0.0276726
0.0276089
0.0275457
0.0274831
0.0274211
0.0273596
0.0272987
0.0272383
0.0271784
0.027119
0.0270601
0.0270018
0.0269439
0.0268865
0.0268296
0.0267731
0.0267171
0.0266616
0.0266065
0.0265518
0.0264976
0.0264437
0.0263903
0.0263374
0.0262848
0.0262326
0.0261808
0.0261294
0.0260784
0.0260277
0.0259775
0.0259276
0.025878
0.0258288
0.02578
0.0257315
0.0256833
0.0256355
0.025588
0.0255409
0.025494
0.0254475
0.0254013
0.0253554
0.0253098
0.0252645
0.0252195
0.0251748
0.0251304
0.0250888
0.0250496
0.0250103
0.0249709
0.0249314
0.0248918
0.024852
0.0248122
0.0247722
0.0247322
0.024692
0.0246517
0.0246114
0.0245709
0.0245303
0.0244896
0.0244488
0.0244079
0.0243669
0.0243259
0.0242847
0.0242434
0.024202
0.0241606
0.024119
0.0240774
0.0240356
0.0239938
0.0239519
0.0239099
0.0238678
0.0238257
0.0237834
0.0237411
0.0236987
0.0236562
0.0236136
0.023571
0.0235283
0.0234855
0.0234427
0.0233997
0.0233567
0.0233137
0.0232705
0.0232273
0.0231841
0.0231408
0.0230974
0.0230539
0.0230104
0.0229669
0.0229232
0.0228796
0.0228358
0.022792
0.0227482
0.0227043
0.0226604
0.0226164
0.0225724
0.0225283
0.0224842
0.02244
0.0223958
0.0223516
0.0223073
0.022263
0.0222186
0.0221742
0.0221298
0.0220853
0.0220408
0.0219963
0.0219517
0.0219071
0.0218625
0.0218179
0.0217732
0.0217285
0.0216838
0.0216391
0.0215944
0.0215496
0.0215048
0.02146
0.0214152
0.0213703
0.0213255
0.0212806
0.0212358
0.0211909
0.021146
0.0211011
0.0210562
0.0210113
0.0209664
0.0209215
0.0208765
0.0208316
0.0207867
0.0207418
0.0206969
0.020652
0.0206071
0.0205621
0.0205172
0.0204724
0.0204275
0.0203826
0.0203377
0.0202929
0.0202481
0.0202032
0.0201584
0.0201136
0.0200688
0.0200241
0.0199793
0.0199346
0.0198899
0.0198452
0.0198005
0.0197559
0.0197113
0.0196667
0.0196221
0.0195776
0.0195331
0.0194886
0.0194441
0.0193997
0.0193553
0.0193109
0.0192666
0.0192223
0.019178
0.0191337
0.0190895
0.0190454
0.0190012
0.0189571
0.0189131
0.0188691
0.0188251
0.0187812
0.0187373
0.0186934
0.0186496
0.0186058
0.0185621
0.0185184
0.0184748
0.0184312
0.0183876
0.0183441
0.0183007
0.0182573
0.0182139
0.0181706
0.0181273
0.0180841
0.018041
0.0179979
0.0179548
0.0179118
0.0178689
0.017826
0.0177832
0.0177404
0.0176977
0.017655
0.0176124
0.0175698
0.0175273
0.0174849
0.0174425
0.0174002
0.0173579
0.0173158
0.0172736
0.0172267
0.0171758
0.0171256
0.0170761
0.0170273
0.0169792
0.0169317
0.0168849
0.0168388
0.0167933
0.0167484
0.016704
0.0166603
0.0166172
0.0165746
0.0165325
0.016491
0.01645
0.0164095
0.0163695
0.01633
0.0162909
0.0162524
0.0162142
0.0161766
0.0161393
0.0161025
0.0160661
0.0160301
0.0159946
0.0159594
0.0159246
0.0158901
0.0158561
0.0158224
0.0157891
0.0157561
0.0157235
0.0156912
0.0156592
0.0156275
0.0155962
0.0155652
0.0155345
0.0155041
0.015474
0.0154442
0.0154146
0.0153854
0.0153564
0.0153277
0.0152993
0.0152711
0.0152432
0.0152155
0.0151881
0.0151609
0.015134
0.0151073
0.0150809
0.0150547
0.0150287
0.0150029
0.0149773
0.014952
0.0149269
0.0149019
0.0148772
0.0148527
0.0148284
0.0148043
0.0147803
0.0147566
0.014733
0.0147097
0.0146865
0.0146634
0.0146406
0.0146179
0.0145954
0.014573
0.0145508
0.0145288
0.0145069
0.0144851
0.0144635
0.0144419
0.0144205
0.0143992
0.0143776
0.014357
0.0143363
0.0143022
0.0143211
0.0142611
)
;
    }
    symmetry
    {
        type            symmetryPlane;
    }
    frontAndBack
    {
        type            empty;
    }
}


// ************************************************************************* //
