/*--------------------------------*- C++ -*----------------------------------*\
| =========                 |                                                 |
| \\      /  F ield         | OpenFOAM: The Open Source CFD Toolbox           |
|  \\    /   O peration     | Version:  v2012                                 |
|   \\  /    A nd           | Website:  www.openfoam.com                      |
|    \\/     M anipulation  |                                                 |
\*---------------------------------------------------------------------------*/
FoamFile
{
    version     2.0;
    format      ascii;
    class       volScalarField;
    location    "2";
    object      epsilon;
}
// * * * * * * * * * * * * * * * * * * * * * * * * * * * * * * * * * * * * * //

dimensions      [0 2 -3 0 0 0 0];


internalField   nonuniform List<scalar> 
209825
(
0.831781
0.831263
0.831243
0.831245
0.831244
0.831245
0.831245
0.831245
0.831245
0.831245
0.831245
0.831246
0.831246
0.831246
0.831246
0.831247
0.831247
0.831247
0.831247
0.831248
0.831248
0.831248
0.831248
0.831249
0.831249
0.83125
0.83125
0.831251
0.831251
0.831252
0.831252
0.831253
0.831253
0.831254
0.831254
0.831255
0.831255
0.831257
0.831257
0.831258
0.831258
0.83126
0.83126
0.831262
0.831262
0.831265
0.831265
0.831267
0.831267
0.831269
0.831269
0.83127
0.83127
0.83127
0.83127
0.831268
0.831272
0.831272
0.831272
0.831269
0.83127
0.83127
0.831275
0.831275
0.831275
0.831274
0.831278
0.831278
0.831278
0.831276
0.831285
0.831285
0.831285
0.831285
0.831288
0.831287
0.831289
0.831289
0.831287
0.831294
0.831294
0.831304
0.831304
0.831304
0.831321
0.831335
0.831352
0.831374
0.831425
0.831465
0.831625
0.83172
0.833317
0.832918
1.13073
110.627
0.831775
0.831256
0.831236
0.831238
0.831237
0.831238
0.831238
0.831238
0.831238
0.831238
0.831238
0.831239
0.831239
0.831239
0.831239
0.83124
0.83124
0.83124
0.83124
0.831241
0.831241
0.831241
0.831241
0.831242
0.831242
0.831243
0.831243
0.831244
0.831244
0.831245
0.831245
0.831246
0.831246
0.831247
0.831247
0.831248
0.831248
0.83125
0.83125
0.831251
0.831251
0.831253
0.831253
0.831255
0.831255
0.831258
0.831258
0.83126
0.83126
0.831263
0.831262
0.831263
0.831263
0.831263
0.831263
0.831261
0.831265
0.831265
0.831265
0.831262
0.831263
0.831263
0.831268
0.831268
0.831268
0.831267
0.831271
0.831271
0.831271
0.831269
0.831278
0.831278
0.831278
0.831278
0.831281
0.83128
0.831282
0.831282
0.83128
0.831287
0.831287
0.831297
0.831297
0.831297
0.831315
0.831328
0.831345
0.831368
0.831419
0.831459
0.83162
0.831715
0.833322
0.832917
1.13153
108.286
0.831719
0.831193
0.831172
0.831173
0.831173
0.831173
0.831173
0.831174
0.831174
0.831174
0.831174
0.831174
0.831174
0.831175
0.831175
0.831175
0.831175
0.831176
0.831176
0.831176
0.831176
0.831177
0.831177
0.831178
0.831178
0.831179
0.831179
0.831179
0.831179
0.83118
0.83118
0.831182
0.831182
0.831183
0.831183
0.831184
0.831184
0.831186
0.831186
0.831187
0.831187
0.831189
0.831189
0.831191
0.831191
0.831194
0.831194
0.831196
0.831196
0.831199
0.831199
0.831199
0.831199
0.831199
0.831199
0.831197
0.831201
0.831201
0.831201
0.831198
0.831199
0.831199
0.831204
0.831204
0.831204
0.831203
0.831207
0.831207
0.831207
0.831205
0.831214
0.831214
0.831214
0.831214
0.831218
0.831217
0.831218
0.831218
0.831216
0.831223
0.831223
0.831234
0.831234
0.831234
0.831252
0.831265
0.831283
0.831306
0.831357
0.831399
0.831562
0.831658
0.833291
0.832871
1.13228
105.909
0.83162
0.83108
0.831059
0.83106
0.83106
0.83106
0.83106
0.831061
0.831061
0.831061
0.831061
0.831061
0.831061
0.831062
0.831062
0.831062
0.831062
0.831063
0.831063
0.831063
0.831063
0.831064
0.831064
0.831065
0.831065
0.831066
0.831066
0.831066
0.831066
0.831067
0.831067
0.831069
0.831069
0.83107
0.83107
0.831071
0.831071
0.831073
0.831073
0.831074
0.831074
0.831076
0.831076
0.831079
0.831078
0.831081
0.831081
0.831083
0.831083
0.831086
0.831086
0.831087
0.831087
0.831087
0.831086
0.831085
0.831089
0.831089
0.831088
0.831085
0.831087
0.831087
0.831092
0.831092
0.831092
0.831091
0.831095
0.831095
0.831095
0.831093
0.831102
0.831102
0.831102
0.831102
0.831106
0.831105
0.831106
0.831106
0.831104
0.831112
0.831112
0.831122
0.831122
0.831123
0.83114
0.831155
0.831172
0.831197
0.831249
0.831292
0.831459
0.831556
0.833227
0.832784
1.13268
103.838
0.831479
0.83092
0.830897
0.830898
0.830898
0.830898
0.830898
0.830899
0.830899
0.830899
0.830899
0.830899
0.830899
0.8309
0.8309
0.8309
0.8309
0.830901
0.830901
0.830902
0.830902
0.830902
0.830902
0.830903
0.830903
0.830904
0.830904
0.830905
0.830905
0.830906
0.830906
0.830907
0.830907
0.830908
0.830908
0.83091
0.83091
0.830911
0.830911
0.830913
0.830913
0.830915
0.830915
0.830917
0.830917
0.83092
0.83092
0.830922
0.830922
0.830925
0.830925
0.830926
0.830926
0.830926
0.830925
0.830924
0.830928
0.830928
0.830928
0.830924
0.830926
0.830926
0.830931
0.830931
0.830931
0.83093
0.830934
0.830934
0.830934
0.830932
0.830942
0.830942
0.830942
0.830941
0.830946
0.830945
0.830946
0.830946
0.830944
0.830952
0.830952
0.830963
0.830963
0.830963
0.830981
0.830997
0.831014
0.831041
0.831094
0.831139
0.83131
0.831409
0.83313
0.832656
1.13255
102.235
0.831295
0.830711
0.830687
0.830688
0.830687
0.830688
0.830688
0.830688
0.830688
0.830688
0.830688
0.830689
0.830689
0.830689
0.830689
0.83069
0.83069
0.83069
0.83069
0.830691
0.830691
0.830692
0.830692
0.830693
0.830693
0.830693
0.830693
0.830694
0.830694
0.830696
0.830696
0.830697
0.830697
0.830698
0.830698
0.8307
0.8307
0.830701
0.830701
0.830703
0.830703
0.830705
0.830705
0.830708
0.830708
0.83071
0.83071
0.830713
0.830713
0.830716
0.830716
0.830716
0.830716
0.830716
0.830716
0.830714
0.830719
0.830719
0.830718
0.830715
0.830717
0.830717
0.830722
0.830722
0.830722
0.830721
0.830725
0.830725
0.830725
0.830723
0.830733
0.830733
0.830733
0.830733
0.830737
0.830737
0.830738
0.830738
0.830736
0.830744
0.830744
0.830755
0.830756
0.830756
0.830774
0.830791
0.830809
0.830837
0.830892
0.830939
0.831117
0.831218
0.832998
0.832485
1.13174
101.153
0.831068
0.830454
0.830427
0.830428
0.830428
0.830428
0.830428
0.830428
0.830428
0.830429
0.830429
0.830429
0.830429
0.83043
0.83043
0.83043
0.83043
0.830431
0.830431
0.830431
0.830431
0.830432
0.830432
0.830433
0.830433
0.830434
0.830434
0.830435
0.830435
0.830436
0.830436
0.830438
0.830438
0.830439
0.830439
0.830441
0.830441
0.830442
0.830442
0.830444
0.830444
0.830446
0.830446
0.830449
0.830449
0.830452
0.830452
0.830454
0.830454
0.830458
0.830458
0.830458
0.830458
0.830458
0.830458
0.830456
0.830461
0.830461
0.83046
0.830457
0.830459
0.830459
0.830464
0.830464
0.830464
0.830463
0.830468
0.830468
0.830467
0.830465
0.830475
0.830475
0.830475
0.830475
0.83048
0.83048
0.830481
0.830481
0.830479
0.830488
0.830488
0.830499
0.8305
0.8305
0.830519
0.830537
0.830555
0.830585
0.830642
0.830692
0.830877
0.83098
0.83283
0.832269
1.13009
100.589
0.8308
0.830147
0.830118
0.830119
0.830118
0.830119
0.830119
0.830119
0.830119
0.830119
0.830119
0.83012
0.83012
0.83012
0.83012
0.830121
0.830121
0.830122
0.830122
0.830122
0.830122
0.830123
0.830123
0.830124
0.830124
0.830125
0.830125
0.830126
0.830126
0.830127
0.830127
0.830129
0.830129
0.83013
0.83013
0.830132
0.830132
0.830134
0.830134
0.830136
0.830136
0.830138
0.830138
0.830141
0.830141
0.830144
0.830144
0.830147
0.830147
0.83015
0.83015
0.830151
0.830151
0.83015
0.83015
0.830149
0.830153
0.830153
0.830153
0.830149
0.830151
0.830151
0.830157
0.830157
0.830157
0.830156
0.830161
0.830161
0.83016
0.830158
0.830168
0.830168
0.830169
0.830168
0.830174
0.830174
0.830175
0.830175
0.830173
0.830182
0.830182
0.830194
0.830195
0.830195
0.830215
0.830234
0.830252
0.830286
0.830345
0.830397
0.830591
0.830697
0.832625
0.832007
1.12745
100.504
0.830488
0.829791
0.829759
0.82976
0.829759
0.829759
0.829759
0.82976
0.82976
0.82976
0.82976
0.829761
0.829761
0.829761
0.829761
0.829762
0.829762
0.829762
0.829762
0.829763
0.829763
0.829764
0.829764
0.829765
0.829765
0.829766
0.829766
0.829767
0.829767
0.829769
0.829769
0.82977
0.82977
0.829772
0.829772
0.829774
0.829774
0.829775
0.829775
0.829778
0.829778
0.82978
0.82978
0.829783
0.829783
0.829786
0.829786
0.829789
0.829789
0.829793
0.829793
0.829793
0.829793
0.829793
0.829793
0.829792
0.829796
0.829796
0.829796
0.829792
0.829794
0.829794
0.829801
0.8298
0.8298
0.829799
0.829804
0.829804
0.829804
0.829801
0.829811
0.829811
0.829812
0.829812
0.829819
0.829819
0.82982
0.82982
0.829818
0.829828
0.829828
0.82984
0.829841
0.829841
0.829861
0.829883
0.829901
0.829937
0.829999
0.830054
0.830258
0.830366
0.832379
0.831697
1.12373
100.833
0.830134
0.829385
0.829349
0.82935
0.829349
0.829349
0.829349
0.829349
0.829349
0.82935
0.82935
0.82935
0.82935
0.829351
0.829351
0.829352
0.829352
0.829352
0.829352
0.829353
0.829353
0.829354
0.829354
0.829355
0.829355
0.829356
0.829356
0.829358
0.829358
0.829359
0.829359
0.829361
0.829361
0.829363
0.829363
0.829364
0.829364
0.829367
0.829366
0.829369
0.829369
0.829372
0.829372
0.829375
0.829375
0.829378
0.829378
0.829381
0.829381
0.829385
0.829385
0.829386
0.829386
0.829385
0.829385
0.829384
0.829389
0.829389
0.829388
0.829385
0.829387
0.829387
0.829393
0.829393
0.829393
0.829392
0.829397
0.829397
0.829397
0.829394
0.829405
0.829404
0.829406
0.829406
0.829413
0.829413
0.829414
0.829414
0.829412
0.829423
0.829423
0.829435
0.829437
0.829437
0.829458
0.829481
0.829499
0.82954
0.829604
0.829663
0.829877
0.829988
0.832091
0.831338
1.11882
101.502
0.829738
0.828929
0.828888
0.828888
0.828887
0.828887
0.828887
0.828888
0.828888
0.828888
0.828888
0.828889
0.828889
0.828889
0.828889
0.82889
0.82889
0.828891
0.828891
0.828892
0.828892
0.828893
0.828893
0.828894
0.828894
0.828895
0.828895
0.828897
0.828897
0.828898
0.828898
0.8289
0.8289
0.828902
0.828902
0.828904
0.828904
0.828906
0.828906
0.828909
0.828909
0.828912
0.828912
0.828915
0.828915
0.828919
0.828919
0.828922
0.828922
0.828927
0.828927
0.828927
0.828927
0.828926
0.828926
0.828925
0.82893
0.82893
0.82893
0.828926
0.828928
0.828928
0.828935
0.828935
0.828935
0.828933
0.828939
0.828939
0.828939
0.828936
0.828947
0.828946
0.828948
0.828948
0.828957
0.828957
0.828958
0.828957
0.828956
0.828967
0.828968
0.82898
0.828982
0.828983
0.829003
0.82903
0.829048
0.829092
0.829159
0.829222
0.829448
0.829562
0.831758
0.830928
1.11267
102.419
0.829298
0.82842
0.828375
0.828374
0.828372
0.828373
0.828373
0.828373
0.828373
0.828374
0.828374
0.828374
0.828374
0.828375
0.828375
0.828376
0.828376
0.828377
0.828377
0.828378
0.828378
0.828379
0.828379
0.82838
0.82838
0.828382
0.828382
0.828383
0.828383
0.828385
0.828385
0.828387
0.828387
0.828389
0.828389
0.828391
0.828391
0.828393
0.828393
0.828396
0.828396
0.828399
0.828399
0.828403
0.828403
0.828407
0.828407
0.828411
0.828411
0.828416
0.828416
0.828416
0.828416
0.828414
0.828415
0.828414
0.82842
0.82842
0.828419
0.828415
0.828417
0.828417
0.828425
0.828425
0.828425
0.828423
0.82843
0.82843
0.828429
0.828426
0.828436
0.828436
0.828439
0.828439
0.828449
0.828449
0.828449
0.828449
0.828448
0.828459
0.828461
0.828473
0.828476
0.828476
0.828497
0.828527
0.828544
0.828593
0.828663
0.82873
0.828969
0.829086
0.831379
0.830465
1.10526
103.491
0.828815
0.827859
0.827807
0.827806
0.827804
0.827805
0.827805
0.827805
0.827805
0.827806
0.827806
0.827807
0.827807
0.827807
0.827807
0.827808
0.827808
0.827809
0.827809
0.82781
0.82781
0.827812
0.827812
0.827813
0.827813
0.827814
0.827814
0.827816
0.827816
0.827818
0.827818
0.82782
0.82782
0.827822
0.827822
0.827825
0.827825
0.827827
0.827827
0.82783
0.82783
0.827834
0.827834
0.827838
0.827838
0.827842
0.827842
0.827847
0.827846
0.827852
0.827852
0.827852
0.827852
0.82785
0.827851
0.82785
0.827856
0.827856
0.827855
0.827851
0.827853
0.827853
0.827861
0.827861
0.827861
0.82786
0.827867
0.827867
0.827866
0.827862
0.827873
0.827873
0.827876
0.827876
0.827888
0.827888
0.827888
0.827888
0.827887
0.827899
0.827901
0.827913
0.827917
0.827917
0.827939
0.827971
0.827989
0.828042
0.828116
0.828187
0.828438
0.828559
0.83095
0.82995
1.09662
104.625
0.828289
0.827245
0.827186
0.827184
0.827181
0.827182
0.827182
0.827182
0.827182
0.827183
0.827183
0.827184
0.827184
0.827185
0.827185
0.827186
0.827186
0.827187
0.827187
0.827188
0.827188
0.827189
0.827189
0.827191
0.827191
0.827192
0.827192
0.827194
0.827194
0.827196
0.827196
0.827199
0.827199
0.827201
0.827201
0.827204
0.827204
0.827207
0.827207
0.82721
0.82721
0.827214
0.827214
0.827218
0.827218
0.827223
0.827223
0.827228
0.827228
0.827233
0.827233
0.827233
0.827233
0.827231
0.827232
0.827232
0.827238
0.827238
0.827237
0.827233
0.827235
0.827235
0.827243
0.827243
0.827244
0.827242
0.827249
0.827249
0.827249
0.827245
0.827256
0.827256
0.82726
0.82726
0.827273
0.827273
0.827273
0.827273
0.827272
0.827284
0.827288
0.827299
0.827304
0.827304
0.827326
0.827362
0.827379
0.827438
0.827515
0.827591
0.827856
0.82798
0.830469
0.829381
1.08681
105.731
0.827718
0.826575
0.826508
0.826505
0.826502
0.826503
0.826503
0.826503
0.826503
0.826504
0.826504
0.826505
0.826505
0.826506
0.826506
0.826507
0.826507
0.826508
0.826508
0.826509
0.826509
0.826511
0.826511
0.826512
0.826512
0.826514
0.826514
0.826516
0.826516
0.826519
0.826519
0.826521
0.826521
0.826524
0.826524
0.826527
0.826527
0.82653
0.82653
0.826534
0.826534
0.826538
0.826538
0.826542
0.826542
0.826547
0.826547
0.826553
0.826553
0.826559
0.826559
0.826559
0.826559
0.826557
0.826558
0.826557
0.826564
0.826564
0.826563
0.826559
0.826561
0.826561
0.82657
0.82657
0.82657
0.826569
0.826577
0.826577
0.826576
0.826571
0.826583
0.826583
0.826588
0.826587
0.826603
0.826603
0.826603
0.826602
0.826602
0.826613
0.826619
0.826629
0.826636
0.826636
0.826659
0.826697
0.826715
0.826779
0.82686
0.826941
0.82722
0.827348
0.829933
0.828758
1.07592
106.724
0.827104
0.825849
0.825772
0.825769
0.825765
0.825766
0.825766
0.825766
0.825766
0.825767
0.825767
0.825768
0.825768
0.825769
0.825769
0.82577
0.82577
0.825771
0.825771
0.825773
0.825773
0.825775
0.825775
0.825776
0.825776
0.825778
0.825778
0.825781
0.825781
0.825783
0.825783
0.825786
0.825786
0.825789
0.825789
0.825792
0.825792
0.825796
0.825795
0.8258
0.8258
0.825804
0.825804
0.825809
0.825809
0.825815
0.825815
0.825821
0.825821
0.825828
0.825828
0.825828
0.825827
0.825825
0.825826
0.825826
0.825833
0.825833
0.825832
0.825827
0.82583
0.82583
0.825839
0.825839
0.82584
0.825838
0.825847
0.825847
0.825846
0.825841
0.825853
0.825853
0.825859
0.825858
0.825876
0.825876
0.825876
0.825873
0.825875
0.825886
0.825893
0.825903
0.825911
0.825911
0.825934
0.825977
0.825994
0.826063
0.826148
0.826234
0.826529
0.826661
0.829339
0.82808
1.06409
107.529
0.826444
0.825066
0.824978
0.824974
0.824969
0.824969
0.824969
0.82497
0.82497
0.824971
0.824971
0.824972
0.824972
0.824973
0.824973
0.824974
0.824974
0.824975
0.824975
0.824977
0.824977
0.824979
0.824979
0.824981
0.824981
0.824983
0.824983
0.824986
0.824986
0.824988
0.824988
0.824991
0.824991
0.824995
0.824995
0.824998
0.824998
0.825002
0.825002
0.825007
0.825007
0.825012
0.825012
0.825017
0.825017
0.825024
0.825023
0.82503
0.82503
0.825037
0.825037
0.825037
0.825037
0.825034
0.825036
0.825036
0.825043
0.825043
0.825043
0.825037
0.82504
0.82504
0.82505
0.825049
0.825051
0.825049
0.825058
0.825058
0.825058
0.825052
0.825064
0.825064
0.825071
0.825071
0.82509
0.825091
0.82509
0.825087
0.82509
0.8251
0.825109
0.825118
0.825128
0.825128
0.825151
0.825198
0.825215
0.82529
0.825379
0.825471
0.825781
0.825917
0.828684
0.827348
1.0515
108.078
0.82574
0.824224
0.824122
0.824117
0.824111
0.824112
0.824111
0.824112
0.824112
0.824113
0.824113
0.824114
0.824114
0.824115
0.824115
0.824117
0.824117
0.824118
0.824118
0.82412
0.82412
0.824122
0.824122
0.824124
0.824124
0.824127
0.824127
0.82413
0.824129
0.824133
0.824133
0.824136
0.824136
0.82414
0.82414
0.824143
0.824143
0.824148
0.824148
0.824153
0.824153
0.824158
0.824158
0.824164
0.824164
0.824171
0.824171
0.824178
0.824178
0.824186
0.824186
0.824186
0.824186
0.824183
0.824185
0.824185
0.824193
0.824193
0.824192
0.824187
0.82419
0.82419
0.8242
0.824199
0.824201
0.824199
0.82421
0.82421
0.824209
0.824202
0.824215
0.824215
0.824223
0.824223
0.824245
0.824245
0.824244
0.82424
0.824245
0.824253
0.824265
0.824272
0.824285
0.824285
0.824309
0.82436
0.824376
0.824458
0.824551
0.824648
0.824975
0.825114
0.827964
0.826562
1.03835
108.316
0.824991
0.82332
0.823204
0.823197
0.82319
0.823191
0.82319
0.823191
0.823191
0.823192
0.823192
0.823193
0.823193
0.823194
0.823194
0.823196
0.823196
0.823198
0.823198
0.8232
0.8232
0.823202
0.823202
0.823204
0.823204
0.823207
0.823207
0.82321
0.82321
0.823214
0.823214
0.823217
0.823217
0.823221
0.823221
0.823226
0.823226
0.82323
0.82323
0.823236
0.823236
0.823242
0.823242
0.823249
0.823249
0.823256
0.823256
0.823264
0.823264
0.823273
0.823273
0.823273
0.823272
0.823269
0.823272
0.823272
0.82328
0.82328
0.823279
0.823274
0.823277
0.823277
0.823287
0.823287
0.823289
0.823287
0.823298
0.823298
0.823298
0.82329
0.823304
0.823304
0.823313
0.823313
0.823337
0.823337
0.823336
0.823331
0.823337
0.823344
0.823359
0.823365
0.82338
0.82338
0.823404
0.82346
0.823475
0.823564
0.823661
0.823764
0.824108
0.824251
0.827175
0.825725
1.02486
108.205
0.824195
0.822355
0.82222
0.822211
0.822203
0.822204
0.822203
0.822204
0.822204
0.822205
0.822205
0.822206
0.822206
0.822208
0.822208
0.82221
0.82221
0.822212
0.822212
0.822214
0.822214
0.822216
0.822216
0.822219
0.822219
0.822222
0.822222
0.822226
0.822226
0.822229
0.822229
0.822233
0.822233
0.822238
0.822238
0.822243
0.822243
0.822248
0.822248
0.822254
0.822254
0.822261
0.822261
0.822268
0.822268
0.822277
0.822277
0.822285
0.822285
0.822295
0.822295
0.822294
0.822294
0.822291
0.822294
0.822294
0.822302
0.822303
0.822302
0.822296
0.822299
0.822299
0.82231
0.82231
0.822312
0.822311
0.822323
0.822323
0.822322
0.822314
0.822328
0.822328
0.822338
0.822338
0.822365
0.822365
0.822365
0.822358
0.822366
0.822371
0.822388
0.822393
0.822411
0.822411
0.822435
0.822496
0.822511
0.822607
0.822707
0.822816
0.823177
0.823325
0.826315
0.824836
1.01129
107.717
0.823354
0.821324
0.82117
0.821159
0.821149
0.82115
0.821149
0.821149
0.821149
0.82115
0.82115
0.821152
0.821152
0.821154
0.821154
0.821155
0.821155
0.821158
0.821158
0.82116
0.82116
0.821163
0.821163
0.821166
0.821166
0.82117
0.821169
0.821173
0.821173
0.821178
0.821177
0.821182
0.821182
0.821187
0.821187
0.821192
0.821192
0.821198
0.821198
0.821205
0.821205
0.821212
0.821212
0.82122
0.82122
0.82123
0.82123
0.821239
0.821239
0.821249
0.821249
0.821249
0.821249
0.821245
0.821249
0.821249
0.821258
0.821258
0.821257
0.821252
0.821255
0.821255
0.821266
0.821265
0.821269
0.821268
0.821281
0.821281
0.82128
0.821271
0.821285
0.821285
0.821297
0.821297
0.821327
0.821327
0.821326
0.821319
0.821327
0.821331
0.821351
0.821354
0.821376
0.821376
0.821399
0.821466
0.82148
0.821583
0.821688
0.821803
0.822182
0.822334
0.825379
0.823898
0.997885
106.824
0.822466
0.820227
0.82005
0.820036
0.820024
0.820025
0.820024
0.820024
0.820024
0.820025
0.820025
0.820027
0.820027
0.820029
0.820029
0.820031
0.820031
0.820034
0.820033
0.820036
0.820036
0.820039
0.820039
0.820043
0.820043
0.820047
0.820047
0.820051
0.820051
0.820056
0.820055
0.82006
0.82006
0.820066
0.820066
0.820072
0.820072
0.820078
0.820078
0.820086
0.820086
0.820094
0.820094
0.820103
0.820103
0.820113
0.820113
0.820124
0.820124
0.820135
0.820134
0.820134
0.820134
0.820131
0.820135
0.820135
0.820144
0.820144
0.820143
0.820138
0.820141
0.820141
0.820152
0.820152
0.820156
0.820155
0.82017
0.82017
0.820169
0.820158
0.820173
0.820173
0.820187
0.820187
0.82022
0.82022
0.820219
0.820211
0.82022
0.820222
0.820245
0.820247
0.820273
0.820273
0.820296
0.820367
0.820381
0.820492
0.8206
0.820722
0.821118
0.821275
0.824363
0.822913
0.98491
105.517
0.82153
0.819061
0.818858
0.81884
0.818826
0.818827
0.818826
0.818826
0.818826
0.818827
0.818827
0.818829
0.818829
0.818831
0.818831
0.818834
0.818833
0.818836
0.818836
0.818839
0.818839
0.818843
0.818843
0.818847
0.818847
0.818851
0.818851
0.818856
0.818855
0.818861
0.818861
0.818866
0.818866
0.818872
0.818872
0.818879
0.818879
0.818886
0.818886
0.818894
0.818894
0.818903
0.818903
0.818913
0.818913
0.818925
0.818925
0.818936
0.818936
0.818948
0.818948
0.818948
0.818947
0.818944
0.818949
0.818949
0.818958
0.818959
0.818958
0.818953
0.818956
0.818955
0.818967
0.818967
0.818972
0.818971
0.818987
0.818987
0.818986
0.818974
0.81899
0.818989
0.819005
0.819005
0.819042
0.819041
0.819041
0.819032
0.819041
0.819041
0.819067
0.819068
0.819098
0.819098
0.81912
0.819198
0.819211
0.81933
0.819441
0.81957
0.819984
0.820146
0.823264
0.821883
0.97262
103.8
0.820548
0.817825
0.817591
0.817569
0.817553
0.817553
0.817552
0.817552
0.817552
0.817553
0.817553
0.817555
0.817555
0.817558
0.817557
0.81756
0.81756
0.817563
0.817563
0.817567
0.817567
0.81757
0.81757
0.817575
0.817575
0.817579
0.817579
0.817585
0.817585
0.81759
0.81759
0.817597
0.817597
0.817603
0.817603
0.817611
0.81761
0.817618
0.817618
0.817628
0.817627
0.817638
0.817638
0.817649
0.817649
0.817661
0.817661
0.817674
0.817674
0.817686
0.817686
0.817686
0.817685
0.817683
0.817689
0.817688
0.817698
0.817698
0.817697
0.817693
0.817695
0.817695
0.817707
0.817707
0.817713
0.817712
0.81773
0.81773
0.817729
0.817716
0.817732
0.817731
0.81775
0.817749
0.817789
0.817789
0.817788
0.817779
0.817787
0.817786
0.817815
0.817815
0.817849
0.817849
0.817871
0.817955
0.817967
0.818094
0.818209
0.818345
0.818777
0.818944
0.822078
0.820809
0.961254
101.685
0.819518
0.816515
0.816246
0.816219
0.816201
0.816201
0.816199
0.816199
0.816198
0.8162
0.8162
0.816202
0.816202
0.816205
0.816205
0.816208
0.816208
0.816211
0.816211
0.816215
0.816215
0.816219
0.816219
0.816224
0.816224
0.816229
0.816229
0.816235
0.816235
0.816241
0.816241
0.816248
0.816248
0.816256
0.816256
0.816264
0.816264
0.816272
0.816272
0.816283
0.816283
0.816294
0.816294
0.816306
0.816306
0.81632
0.81632
0.816333
0.816333
0.816347
0.816347
0.816346
0.816346
0.816344
0.81635
0.81635
0.816359
0.816359
0.81636
0.816355
0.816358
0.816356
0.816369
0.816369
0.816376
0.816375
0.816396
0.816396
0.816394
0.81638
0.816396
0.816396
0.816417
0.816416
0.81646
0.81646
0.816459
0.816449
0.816456
0.816455
0.816485
0.816486
0.816524
0.816524
0.816545
0.816636
0.816647
0.816782
0.8169
0.817044
0.817494
0.817665
0.8208
0.819694
0.951033
99.1938
0.818441
0.81513
0.81482
0.814787
0.814766
0.814766
0.814763
0.814764
0.814762
0.814764
0.814764
0.814766
0.814766
0.81477
0.81477
0.814773
0.814773
0.814777
0.814777
0.814781
0.814781
0.814786
0.814786
0.814791
0.814791
0.814797
0.814797
0.814803
0.814803
0.81481
0.81481
0.814818
0.814818
0.814827
0.814827
0.814835
0.814835
0.814845
0.814845
0.814856
0.814856
0.814869
0.814868
0.814882
0.814882
0.814898
0.814898
0.814912
0.814912
0.814926
0.814926
0.814925
0.814926
0.814924
0.814932
0.814932
0.81494
0.81494
0.814941
0.814937
0.814939
0.814937
0.814951
0.814951
0.814959
0.814958
0.814981
0.814981
0.814979
0.814963
0.81498
0.81498
0.815003
0.815003
0.815051
0.81505
0.81505
0.81504
0.815046
0.815043
0.815076
0.815076
0.815119
0.815119
0.815139
0.815236
0.815247
0.81539
0.815511
0.815662
0.816131
0.816308
0.819426
0.818539
0.942149
96.3543
0.817316
0.813666
0.813311
0.813271
0.813247
0.813246
0.813243
0.813243
0.813241
0.813243
0.813242
0.813245
0.813245
0.813249
0.813249
0.813252
0.813252
0.813257
0.813257
0.813261
0.813261
0.813267
0.813267
0.813273
0.813273
0.813279
0.813279
0.813286
0.813286
0.813294
0.813294
0.813303
0.813303
0.813312
0.813312
0.813322
0.813322
0.813332
0.813332
0.813345
0.813345
0.813359
0.813359
0.813374
0.813373
0.813391
0.813391
0.813406
0.813406
0.813422
0.813422
0.81342
0.813421
0.813419
0.813428
0.81343
0.813436
0.813436
0.813439
0.813436
0.813437
0.813434
0.813449
0.813448
0.813458
0.813457
0.813483
0.813482
0.813481
0.813463
0.81348
0.81348
0.813506
0.813506
0.813558
0.813558
0.813557
0.813548
0.813553
0.813548
0.813583
0.813583
0.81363
0.813631
0.81365
0.813754
0.813764
0.813916
0.814039
0.814198
0.814685
0.814868
0.817952
0.817344
0.934759
93.2015
0.816143
0.812123
0.811715
0.811666
0.811638
0.811636
0.811633
0.811632
0.81163
0.811632
0.811632
0.811634
0.811634
0.811639
0.811639
0.811643
0.811642
0.811647
0.811647
0.811653
0.811653
0.811659
0.811659
0.811665
0.811665
0.811672
0.811672
0.811681
0.81168
0.811689
0.811689
0.811699
0.811699
0.811709
0.811709
0.81172
0.81172
0.811732
0.811731
0.811745
0.811745
0.811761
0.81176
0.811777
0.811777
0.811796
0.811796
0.811813
0.811813
0.811829
0.811829
0.811827
0.811829
0.811828
0.811837
0.81184
0.811845
0.811845
0.811849
0.811847
0.811847
0.811844
0.811859
0.811858
0.811869
0.811869
0.811898
0.811897
0.811895
0.811875
0.811893
0.811893
0.811922
0.811922
0.811979
0.811979
0.811978
0.811971
0.811973
0.811965
0.812004
0.812004
0.812056
0.812056
0.812075
0.812186
0.812195
0.812356
0.81248
0.812648
0.813153
0.813342
0.816374
0.816109
0.928979
89.7751
0.814923
0.810496
0.810028
0.809969
0.809937
0.809934
0.80993
0.809929
0.809926
0.809928
0.809927
0.809931
0.80993
0.809935
0.809935
0.80994
0.80994
0.809945
0.809945
0.809951
0.809951
0.809958
0.809957
0.809965
0.809965
0.809973
0.809973
0.809982
0.809982
0.809992
0.809991
0.810002
0.810002
0.810014
0.810014
0.810026
0.810025
0.810039
0.810038
0.810054
0.810054
0.810071
0.81007
0.810089
0.810089
0.81011
0.810109
0.810128
0.810128
0.810146
0.810146
0.810144
0.810146
0.810145
0.810155
0.810159
0.810163
0.810163
0.810168
0.810167
0.810166
0.810162
0.810177
0.810177
0.81019
0.81019
0.810221
0.810221
0.810219
0.810197
0.810215
0.810215
0.810248
0.810248
0.810309
0.810309
0.810309
0.810303
0.810303
0.810293
0.810334
0.810334
0.810392
0.810392
0.810409
0.810527
0.810535
0.810705
0.810831
0.811008
0.81153
0.811727
0.814688
0.814831
0.924879
86.1178
0.813655
0.808783
0.808247
0.808177
0.808139
0.808135
0.80813
0.808128
0.808125
0.808127
0.808126
0.808129
0.808129
0.808135
0.808135
0.808139
0.808139
0.808145
0.808145
0.808152
0.808152
0.808159
0.808159
0.808168
0.808167
0.808177
0.808176
0.808187
0.808186
0.808197
0.808197
0.808209
0.808209
0.808222
0.808222
0.808235
0.808235
0.808249
0.808249
0.808266
0.808266
0.808285
0.808285
0.808305
0.808305
0.808328
0.808328
0.808348
0.808348
0.808367
0.808367
0.808365
0.808367
0.808366
0.808377
0.808383
0.808385
0.808385
0.808393
0.808392
0.808391
0.808385
0.808401
0.808401
0.808416
0.808416
0.808451
0.808451
0.808448
0.808424
0.808443
0.808443
0.808479
0.808479
0.808546
0.808546
0.808546
0.808542
0.80854
0.808526
0.80857
0.80857
0.808634
0.808634
0.808649
0.808775
0.808782
0.808961
0.809088
0.809273
0.809814
0.810018
0.812887
0.813509
0.922481
82.2744
0.81234
0.806982
0.806369
0.806284
0.80624
0.806235
0.806228
0.806227
0.806222
0.806224
0.806223
0.806227
0.806227
0.806233
0.806232
0.806238
0.806238
0.806244
0.806244
0.806252
0.806252
0.80626
0.80626
0.806269
0.806269
0.806279
0.806279
0.80629
0.80629
0.806302
0.806302
0.806315
0.806315
0.806329
0.806329
0.806344
0.806344
0.80636
0.80636
0.806379
0.806379
0.806399
0.806399
0.806421
0.806421
0.806447
0.806446
0.806468
0.806468
0.806489
0.806489
0.806486
0.80649
0.806489
0.806499
0.806508
0.806508
0.806508
0.806518
0.806518
0.806516
0.806509
0.806526
0.806525
0.806543
0.806542
0.806582
0.806582
0.806579
0.806553
0.806572
0.806572
0.806612
0.806612
0.806685
0.806685
0.806684
0.806683
0.806679
0.806661
0.806708
0.806708
0.806778
0.806778
0.806792
0.806925
0.806931
0.80712
0.807247
0.807441
0.807999
0.808211
0.81097
0.812137
0.921748
78.2906
0.810979
0.805091
0.804389
0.804287
0.804237
0.80423
0.804222
0.804219
0.804213
0.804215
0.804214
0.804218
0.804218
0.804225
0.804225
0.80423
0.80423
0.804238
0.804238
0.804246
0.804246
0.804255
0.804255
0.804265
0.804265
0.804277
0.804276
0.804289
0.804289
0.804302
0.804302
0.804317
0.804317
0.804332
0.804332
0.804349
0.804348
0.804366
0.804366
0.804387
0.804387
0.804409
0.804409
0.804434
0.804433
0.804461
0.804461
0.804485
0.804485
0.804508
0.804508
0.804505
0.804509
0.804508
0.804517
0.804528
0.804528
0.804528
0.804541
0.804541
0.804539
0.804529
0.804547
0.804547
0.804567
0.804566
0.804611
0.804611
0.804607
0.804578
0.804598
0.804598
0.804643
0.804642
0.804721
0.804721
0.804721
0.80472
0.804716
0.804694
0.804744
0.804744
0.804821
0.804821
0.804832
0.804974
0.804979
0.805177
0.805303
0.805507
0.806082
0.806303
0.808933
0.81071
0.922588
74.2112
0.809572
0.803106
0.802303
0.802182
0.802123
0.802115
0.802105
0.802102
0.802094
0.802096
0.802094
0.802099
0.802099
0.802106
0.802106
0.802112
0.802112
0.802121
0.80212
0.80213
0.80213
0.80214
0.80214
0.802152
0.802151
0.802164
0.802164
0.802177
0.802177
0.802192
0.802192
0.802208
0.802208
0.802226
0.802226
0.802244
0.802243
0.802263
0.802263
0.802286
0.802286
0.802311
0.802311
0.802338
0.802337
0.802368
0.802368
0.802393
0.802393
0.802418
0.802418
0.802415
0.80242
0.802419
0.802427
0.80244
0.802441
0.80244
0.802456
0.802456
0.802454
0.802442
0.802461
0.80246
0.802483
0.802482
0.802532
0.802532
0.802528
0.802497
0.802516
0.802516
0.802566
0.802566
0.802651
0.802651
0.802651
0.802651
0.802647
0.802621
0.802674
0.802673
0.802757
0.802757
0.802766
0.802916
0.80292
0.803128
0.803252
0.803466
0.804058
0.804288
0.806774
0.809221
0.924855
70.0793
0.808121
0.801025
0.800109
0.799964
0.799896
0.799885
0.799873
0.799869
0.79986
0.799862
0.799859
0.799864
0.799864
0.799873
0.799872
0.799879
0.799879
0.799888
0.799888
0.799899
0.799899
0.79991
0.79991
0.799923
0.799923
0.799937
0.799936
0.799952
0.799952
0.799968
0.799968
0.799986
0.799986
0.800005
0.800005
0.800025
0.800025
0.800046
0.800046
0.800072
0.800072
0.800099
0.800099
0.800128
0.800128
0.800162
0.800161
0.800189
0.800189
0.800217
0.800216
0.800213
0.800219
0.800219
0.800224
0.80024
0.800241
0.800239
0.800259
0.80026
0.800256
0.800243
0.800262
0.800262
0.800287
0.800287
0.800342
0.800342
0.800338
0.800304
0.800324
0.800323
0.800378
0.800378
0.80047
0.800471
0.80047
0.80047
0.800467
0.800437
0.800492
0.800492
0.800583
0.800584
0.800589
0.800748
0.800751
0.800968
0.80109
0.801314
0.801922
0.802163
0.804491
0.807659
0.928349
65.9357
0.806626
0.798846
0.797801
0.797629
0.79755
0.797536
0.797521
0.797517
0.797506
0.797508
0.797504
0.797509
0.797509
0.797518
0.797518
0.797526
0.797526