/*--------------------------------*- C++ -*----------------------------------*\
| =========                 |                                                 |
| \\      /  F ield         | OpenFOAM: The Open Source CFD Toolbox           |
|  \\    /   O peration     | Version:  v2012                                 |
|   \\  /    A nd           | Website:  www.openfoam.com                      |
|    \\/     M anipulation  |                                                 |
\*---------------------------------------------------------------------------*/
FoamFile
{
    version     2.0;
    format      ascii;
    class       volScalarField;
    location    "2";
    object      k;
}
// * * * * * * * * * * * * * * * * * * * * * * * * * * * * * * * * * * * * * //

dimensions      [0 2 -2 0 0 0 0];


internalField   nonuniform List<scalar> 
209825
(
0.00106474
0.00106293
0.00106274
0.00106272
0.0010627
0.0010627
0.00106269
0.00106269
0.00106269
0.00106269
0.00106269
0.00106269
0.00106269
0.00106269
0.00106269
0.0010627
0.0010627
0.0010627
0.0010627
0.00106271
0.00106271
0.00106271
0.00106271
0.00106272
0.00106272
0.00106272
0.00106272
0.00106273
0.00106273
0.00106274
0.00106274
0.00106275
0.00106275
0.00106276
0.00106276
0.00106277
0.00106277
0.00106277
0.00106276
0.00106277
0.00106277
0.00106277
0.00106277
0.00106277
0.00106277
0.00106278
0.00106278
0.00106278
0.00106279
0.00106279
0.00106279
0.00106279
0.00106279
0.00106279
0.00106279
0.00106279
0.00106279
0.00106279
0.00106279
0.00106279
0.0010628
0.0010628
0.0010628
0.00106281
0.00106282
0.00106282
0.00106281
0.0010628
0.00106282
0.00106282
0.00106283
0.00106283
0.00106283
0.00106283
0.00106283
0.00106283
0.00106284
0.00106284
0.00106285
0.00106286
0.00106286
0.00106287
0.00106287
0.00106287
0.00106292
0.00106293
0.00106298
0.00106298
0.0010631
0.00106323
0.00106348
0.00106361
0.00106617
0.00106569
0.00151789
0.000909464
0.00106473
0.00106292
0.00106273
0.0010627
0.00106269
0.00106268
0.00106268
0.00106268
0.00106267
0.00106268
0.00106267
0.00106268
0.00106268
0.00106268
0.00106268
0.00106268
0.00106268
0.00106269
0.00106269
0.00106269
0.00106269
0.0010627
0.0010627
0.0010627
0.0010627
0.00106271
0.00106271
0.00106272
0.00106272
0.00106273
0.00106273
0.00106274
0.00106274
0.00106275
0.00106275
0.00106275
0.00106275
0.00106275
0.00106275
0.00106276
0.00106276
0.00106276
0.00106276
0.00106276
0.00106275
0.00106277
0.00106277
0.00106277
0.00106278
0.00106278
0.00106278
0.00106278
0.00106278
0.00106278
0.00106278
0.00106278
0.00106277
0.00106278
0.00106278
0.00106278
0.00106278
0.00106278
0.00106278
0.0010628
0.0010628
0.0010628
0.0010628
0.00106279
0.0010628
0.0010628
0.00106282
0.00106282
0.00106282
0.00106282
0.00106282
0.00106282
0.00106282
0.00106282
0.00106283
0.00106285
0.00106285
0.00106286
0.00106286
0.00106286
0.0010629
0.00106292
0.00106296
0.00106297
0.00106308
0.00106321
0.00106347
0.0010636
0.00106616
0.00106568
0.00151842
0.000911167
0.00106468
0.00106285
0.00106266
0.00106263
0.00106261
0.00106261
0.0010626
0.0010626
0.0010626
0.0010626
0.0010626
0.0010626
0.0010626
0.0010626
0.0010626
0.00106261
0.00106261
0.00106261
0.00106261
0.00106261
0.00106261
0.00106262
0.00106262
0.00106263
0.00106263
0.00106263
0.00106263
0.00106264
0.00106264
0.00106265
0.00106265
0.00106266
0.00106266
0.00106267
0.00106267
0.00106268
0.00106268
0.00106268
0.00106267
0.00106268
0.00106268
0.00106268
0.00106268
0.00106268
0.00106268
0.00106269
0.00106269
0.00106269
0.0010627
0.0010627
0.0010627
0.0010627
0.0010627
0.0010627
0.0010627
0.0010627
0.0010627
0.0010627
0.0010627
0.0010627
0.00106271
0.00106271
0.00106271
0.00106272
0.00106273
0.00106273
0.00106272
0.00106271
0.00106273
0.00106273
0.00106274
0.00106274
0.00106274
0.00106274
0.00106274
0.00106274
0.00106275
0.00106275
0.00106276
0.00106278
0.00106278
0.00106278
0.00106279
0.00106279
0.00106283
0.00106284
0.00106289
0.00106289
0.00106301
0.00106314
0.0010634
0.00106353
0.00106612
0.00106562
0.00151858
0.000914731
0.00106459
0.00106272
0.00106253
0.0010625
0.00106248
0.00106248
0.00106247
0.00106247
0.00106247
0.00106247
0.00106247
0.00106247
0.00106247
0.00106247
0.00106247
0.00106247
0.00106247
0.00106248
0.00106248
0.00106248
0.00106248
0.00106249
0.00106249
0.0010625
0.0010625
0.0010625
0.0010625
0.00106251
0.00106251
0.00106252
0.00106252
0.00106253
0.00106253
0.00106254
0.00106254
0.00106255
0.00106255
0.00106255
0.00106254
0.00106255
0.00106255
0.00106255
0.00106255
0.00106255
0.00106255
0.00106256
0.00106256
0.00106256
0.00106257
0.00106257
0.00106257
0.00106257
0.00106257
0.00106257
0.00106257
0.00106257
0.00106257
0.00106257
0.00106257
0.00106257
0.00106258
0.00106258
0.00106258
0.00106259
0.0010626
0.0010626
0.0010626
0.00106258
0.0010626
0.0010626
0.00106261
0.00106261
0.00106261
0.00106261
0.00106261
0.00106262
0.00106262
0.00106262
0.00106263
0.00106265
0.00106265
0.00106265
0.00106266
0.00106266
0.0010627
0.00106272
0.00106276
0.00106277
0.00106289
0.00106302
0.00106328
0.00106341
0.00106604
0.00106552
0.00151809
0.000920117
0.00106446
0.00106255
0.00106234
0.00106231
0.00106229
0.00106229
0.00106228
0.00106228
0.00106228
0.00106228
0.00106228
0.00106228
0.00106228
0.00106228
0.00106228
0.00106229
0.00106229
0.00106229
0.00106229
0.0010623
0.0010623
0.0010623
0.0010623
0.00106231
0.00106231
0.00106232
0.00106232
0.00106232
0.00106232
0.00106233
0.00106233
0.00106235
0.00106235
0.00106236
0.00106236
0.00106236
0.00106236
0.00106236
0.00106236
0.00106237
0.00106237
0.00106237
0.00106237
0.00106237
0.00106236
0.00106238
0.00106238
0.00106238
0.00106238
0.00106238
0.00106239
0.00106239
0.00106239
0.00106239
0.00106239
0.00106238
0.00106238
0.00106239
0.00106239
0.00106239
0.00106239
0.00106239
0.00106239
0.00106241
0.00106241
0.00106241
0.00106241
0.0010624
0.00106241
0.00106241
0.00106243
0.00106243
0.00106243
0.00106243
0.00106243
0.00106243
0.00106243
0.00106243
0.00106245
0.00106246
0.00106246
0.00106247
0.00106248
0.00106248
0.00106252
0.00106254
0.00106258
0.00106259
0.00106271
0.00106285
0.00106311
0.00106325
0.00106592
0.00106537
0.00151678
0.000927294
0.0010643
0.00106232
0.0010621
0.00106207
0.00106205
0.00106205
0.00106204
0.00106204
0.00106203
0.00106204
0.00106203
0.00106204
0.00106204
0.00106204
0.00106204
0.00106204
0.00106204
0.00106205
0.00106205
0.00106205
0.00106205
0.00106206
0.00106206
0.00106207
0.00106207
0.00106207
0.00106207
0.00106208
0.00106208
0.00106209
0.00106209
0.0010621
0.0010621
0.00106212
0.00106212
0.00106212
0.00106212
0.00106212
0.00106211
0.00106213
0.00106213
0.00106213
0.00106213
0.00106213
0.00106212
0.00106214
0.00106214
0.00106214
0.00106214
0.00106214
0.00106215
0.00106215
0.00106215
0.00106215
0.00106215
0.00106214
0.00106214
0.00106215
0.00106215
0.00106215
0.00106216
0.00106216
0.00106215
0.00106217
0.00106217
0.00106217
0.00106217
0.00106216
0.00106217
0.00106217
0.00106219
0.00106219
0.00106219
0.00106219
0.00106219
0.00106219
0.00106219
0.00106219
0.00106221
0.00106223
0.00106223
0.00106223
0.00106224
0.00106224
0.00106228
0.0010623
0.00106235
0.00106235
0.00106248
0.00106262
0.0010629
0.00106303
0.00106576
0.00106518
0.00151451
0.000936211
0.0010641
0.00106204
0.00106181
0.00106177
0.00106175
0.00106175
0.00106174
0.00106174
0.00106173
0.00106173
0.00106173
0.00106174
0.00106174
0.00106174
0.00106174
0.00106174
0.00106174
0.00106175
0.00106175
0.00106175
0.00106175
0.00106176
0.00106176
0.00106177
0.00106177
0.00106177
0.00106177
0.00106178
0.00106178
0.00106179
0.00106179
0.00106181
0.00106181
0.00106182
0.00106182
0.00106182
0.00106182
0.00106182
0.00106182
0.00106183
0.00106183
0.00106183
0.00106183
0.00106183
0.00106183
0.00106184
0.00106184
0.00106184
0.00106185
0.00106185
0.00106185
0.00106185
0.00106185
0.00106185
0.00106185
0.00106185
0.00106185
0.00106185
0.00106185
0.00106185
0.00106186
0.00106186
0.00106186
0.00106187
0.00106188
0.00106188
0.00106188
0.00106186
0.00106188
0.00106188
0.0010619
0.0010619
0.0010619
0.0010619
0.0010619
0.0010619
0.0010619
0.0010619
0.00106192
0.00106193
0.00106193
0.00106194
0.00106195
0.00106195
0.00106199
0.00106201
0.00106206
0.00106207
0.00106219
0.00106234
0.00106262
0.00106276
0.00106555
0.00106493
0.00151113
0.000946789
0.00106386
0.00106171
0.00106146
0.00106142
0.00106139
0.00106139
0.00106138
0.00106138
0.00106138
0.00106138
0.00106137
0.00106138
0.00106138
0.00106138
0.00106138
0.00106138
0.00106138
0.00106139
0.00106139
0.00106139
0.00106139
0.0010614
0.0010614
0.00106141
0.00106141
0.00106142
0.00106142
0.00106143
0.00106143
0.00106144
0.00106144
0.00106145
0.00106145
0.00106147
0.00106147
0.00106147
0.00106147
0.00106147
0.00106146
0.00106147
0.00106147
0.00106148
0.00106148
0.00106148
0.00106147
0.00106149
0.00106149
0.00106149
0.0010615
0.0010615
0.0010615
0.0010615
0.0010615
0.0010615
0.0010615
0.00106149
0.00106149
0.0010615
0.0010615
0.0010615
0.00106151
0.00106151
0.00106151
0.00106152
0.00106153
0.00106153
0.00106152
0.00106151
0.00106153
0.00106153
0.00106154
0.00106154
0.00106155
0.00106155
0.00106155
0.00106154
0.00106155
0.00106155
0.00106157
0.00106158
0.00106158
0.00106159
0.0010616
0.0010616
0.00106165
0.00106167
0.00106172
0.00106172
0.00106185
0.001062
0.0010623
0.00106244
0.0010653
0.00106464
0.00150652
0.000958926
0.00106358
0.00106132
0.00106105
0.001061
0.00106098
0.00106097
0.00106097
0.00106096
0.00106096
0.00106096
0.00106096
0.00106096
0.00106096
0.00106096
0.00106096
0.00106097
0.00106097
0.00106097
0.00106097
0.00106098
0.00106098
0.00106098
0.00106098
0.00106099
0.00106099
0.001061
0.001061
0.00106101
0.00106101
0.00106102
0.00106102
0.00106104
0.00106104
0.00106105
0.00106105
0.00106106
0.00106106
0.00106106
0.00106105
0.00106106
0.00106106
0.00106106
0.00106106
0.00106106
0.00106106
0.00106108
0.00106108
0.00106107
0.00106108
0.00106108
0.00106109
0.00106109
0.00106109
0.00106109
0.00106109
0.00106108
0.00106108
0.00106109
0.00106109
0.00106109
0.0010611
0.0010611
0.0010611
0.00106111
0.00106112
0.00106112
0.00106111
0.0010611
0.00106112
0.00106112
0.00106114
0.00106113
0.00106114
0.00106114
0.00106114
0.00106113
0.00106114
0.00106114
0.00106116
0.00106117
0.00106118
0.00106118
0.00106119
0.00106119
0.00106124
0.00106127
0.00106132
0.00106132
0.00106146
0.00106161
0.00106192
0.00106206
0.001065
0.00106429
0.00150059
0.000972492
0.00106326
0.00106088
0.00106059
0.00106053
0.0010605
0.0010605
0.00106049
0.00106049
0.00106048
0.00106048
0.00106048
0.00106048
0.00106048
0.00106049
0.00106049
0.00106049
0.00106049
0.00106049
0.00106049
0.0010605
0.0010605
0.00106051
0.00106051
0.00106052
0.00106052
0.00106053
0.00106053
0.00106054
0.00106054
0.00106055
0.00106055
0.00106056
0.00106056
0.00106058
0.00106058
0.00106058
0.00106058
0.00106058
0.00106058
0.00106059
0.00106059
0.00106059
0.00106059
0.00106059
0.00106059
0.0010606
0.0010606
0.0010606
0.00106061
0.00106061
0.00106061
0.00106062
0.00106062
0.00106062
0.00106061
0.00106061
0.00106061
0.00106061
0.00106062
0.00106062
0.00106063
0.00106063
0.00106063
0.00106064
0.00106065
0.00106065
0.00106065
0.00106063
0.00106065
0.00106065
0.00106067
0.00106067
0.00106067
0.00106067
0.00106067
0.00106067
0.00106067
0.00106067
0.00106069
0.00106071
0.00106071
0.00106071
0.00106073
0.00106073
0.00106078
0.00106081
0.00106086
0.00106087
0.001061
0.00106117
0.00106149
0.00106163
0.00106465
0.00106388
0.00149327
0.000987334
0.00106291
0.00106039
0.00106006
0.00106
0.00105997
0.00105996
0.00105995
0.00105995
0.00105994
0.00105994
0.00105994
0.00105994
0.00105994
0.00105995
0.00105995
0.00105995
0.00105995
0.00105995
0.00105995
0.00105996
0.00105996
0.00105997
0.00105997
0.00105998
0.00105998
0.00105999
0.00105999
0.00106
0.00106
0.00106002
0.00106002
0.00106003
0.00106003
0.00106005
0.00106005
0.00106005
0.00106005
0.00106005
0.00106004
0.00106006
0.00106006
0.00106006
0.00106006
0.00106006
0.00106005
0.00106007
0.00106007
0.00106007
0.00106008
0.00106008
0.00106008
0.00106008
0.00106008
0.00106008
0.00106008
0.00106008
0.00106008
0.00106008
0.00106009
0.00106009
0.0010601
0.0010601
0.0010601
0.00106011
0.00106012
0.00106012
0.00106012
0.0010601
0.00106012
0.00106011
0.00106014
0.00106014
0.00106014
0.00106014
0.00106014
0.00106014
0.00106014
0.00106014
0.00106017
0.00106018
0.00106018
0.00106018
0.0010602
0.0010602
0.00106026
0.00106029
0.00106034
0.00106035
0.00106049
0.00106066
0.001061
0.00106114
0.00106425
0.00106342
0.00148452
0.00100328
0.00106252
0.00105984
0.00105948
0.0010594
0.00105937
0.00105936
0.00105935
0.00105934
0.00105934
0.00105934
0.00105933
0.00105934
0.00105933
0.00105934
0.00105934
0.00105935
0.00105935
0.00105935
0.00105935
0.00105936
0.00105936
0.00105937
0.00105937
0.00105938
0.00105938
0.00105939
0.00105939
0.0010594
0.0010594
0.00105942
0.00105942
0.00105943
0.00105943
0.00105945
0.00105945
0.00105946
0.00105946
0.00105945
0.00105945
0.00105946
0.00105946
0.00105946
0.00105946
0.00105946
0.00105946
0.00105948
0.00105948
0.00105948
0.00105949
0.00105949
0.00105949
0.00105949
0.00105949
0.00105949
0.00105949
0.00105948
0.00105948
0.00105949
0.00105949
0.00105949
0.0010595
0.0010595
0.0010595
0.00105951
0.00105952
0.00105952
0.00105952
0.00105951
0.00105952
0.00105952
0.00105955
0.00105955
0.00105955
0.00105955
0.00105955
0.00105954
0.00105955
0.00105955
0.00105958
0.00105959
0.00105959
0.0010596
0.00105962
0.00105962
0.00105967
0.00105971
0.00105976
0.00105977
0.00105992
0.00106009
0.00106045
0.00106059
0.00106378
0.00106289
0.00147435
0.00102015
0.00106209
0.00105923
0.00105883
0.00105874
0.0010587
0.00105869
0.00105868
0.00105868
0.00105867
0.00105867
0.00105866
0.00105867
0.00105867
0.00105867
0.00105867
0.00105868
0.00105868
0.00105868
0.00105868
0.00105869
0.00105869
0.0010587
0.0010587
0.00105871
0.00105871
0.00105872
0.00105872
0.00105874
0.00105874
0.00105875
0.00105875
0.00105877
0.00105877
0.00105879
0.00105879
0.0010588
0.0010588
0.0010588
0.00105879
0.0010588
0.0010588
0.00105881
0.00105881
0.0010588
0.0010588
0.00105882
0.00105882
0.00105882
0.00105883
0.00105883
0.00105883
0.00105883
0.00105883
0.00105883
0.00105883
0.00105882
0.00105883
0.00105883
0.00105884
0.00105884
0.00105885
0.00105885
0.00105885
0.00105886
0.00105887
0.00105887
0.00105887
0.00105885
0.00105887
0.00105887
0.00105889
0.00105889
0.0010589
0.0010589
0.0010589
0.00105889
0.0010589
0.0010589
0.00105892
0.00105894
0.00105894
0.00105894
0.00105897
0.00105897
0.00105902
0.00105907
0.00105912
0.00105913
0.00105928
0.00105947
0.00105984
0.00105998
0.00106326
0.00106231
0.00146279
0.00103774
0.00106163
0.00105856
0.00105811
0.00105802
0.00105797
0.00105796
0.00105795
0.00105794
0.00105793
0.00105793
0.00105793
0.00105793
0.00105793
0.00105794
0.00105794
0.00105794
0.00105794
0.00105795
0.00105795
0.00105796
0.00105796
0.00105797
0.00105797
0.00105798
0.00105798
0.00105799
0.00105799
0.00105801
0.00105801
0.00105803
0.00105803
0.00105804
0.00105804
0.00105807
0.00105807
0.00105807
0.00105807
0.00105807
0.00105806
0.00105808
0.00105808
0.00105808
0.00105808
0.00105808
0.00105807
0.00105809
0.00105809
0.00105809
0.0010581
0.0010581
0.0010581
0.00105811
0.00105811
0.00105811
0.00105811
0.0010581
0.0010581
0.0010581
0.00105811
0.00105811
0.00105813
0.00105813
0.00105812
0.00105813
0.00105815
0.00105815
0.00105815
0.00105813
0.00105814
0.00105814
0.00105817
0.00105817
0.00105818
0.00105818
0.00105818
0.00105817
0.00105818
0.00105818
0.00105821
0.00105822
0.00105823
0.00105823
0.00105826
0.00105826
0.00105831
0.00105836
0.00105842
0.00105843
0.00105858
0.00105878
0.00105916
0.00105931
0.00106268
0.00106167
0.00144992
0.00105587
0.00106113
0.00105783
0.00105734
0.00105723
0.00105718
0.00105716
0.00105714
0.00105714
0.00105713
0.00105713
0.00105712
0.00105712
0.00105712
0.00105713
0.00105713
0.00105714
0.00105714
0.00105714
0.00105714
0.00105715
0.00105715
0.00105717
0.00105717
0.00105718
0.00105718
0.00105719
0.00105719
0.00105721
0.00105721
0.00105723
0.00105723
0.00105725
0.00105725
0.00105727
0.00105727
0.00105728
0.00105728
0.00105728
0.00105727
0.00105728
0.00105728
0.00105729
0.00105729
0.00105729
0.00105728
0.0010573
0.0010573
0.0010573
0.00105731
0.00105731
0.00105731
0.00105732
0.00105732
0.00105732
0.00105732
0.00105731
0.00105731
0.00105731
0.00105732
0.00105732
0.00105734
0.00105734
0.00105733
0.00105734
0.00105736
0.00105736
0.00105736
0.00105734
0.00105736
0.00105736
0.00105739
0.00105739
0.0010574
0.00105739
0.00105739
0.00105738
0.00105739
0.00105739
0.00105742
0.00105743
0.00105744
0.00105744
0.00105748
0.00105748
0.00105754
0.00105759
0.00105765
0.00105766
0.00105782
0.00105802
0.00105843
0.00105858
0.00106202
0.00106096
0.00143586
0.00107433
0.00106059
0.00105704
0.00105649
0.00105637
0.00105631
0.00105629
0.00105627
0.00105626
0.00105625
0.00105625
0.00105624
0.00105625
0.00105625
0.00105626
0.00105626
0.00105626
0.00105626
0.00105627
0.00105627
0.00105628
0.00105628
0.00105629
0.00105629
0.00105631
0.00105631
0.00105632
0.00105632
0.00105634
0.00105634
0.00105636
0.00105636
0.00105638
0.00105638
0.00105641
0.00105641
0.00105641
0.00105641
0.00105641
0.0010564
0.00105642
0.00105642
0.00105643
0.00105643
0.00105642
0.00105642
0.00105644
0.00105644
0.00105644
0.00105645
0.00105645
0.00105645
0.00105646
0.00105646
0.00105646
0.00105646
0.00105644
0.00105645
0.00105645
0.00105646
0.00105646
0.00105648
0.00105648
0.00105648
0.00105648
0.0010565
0.0010565
0.0010565
0.00105648
0.0010565
0.0010565
0.00105653
0.00105653
0.00105654
0.00105654
0.00105654
0.00105653
0.00105654
0.00105654
0.00105657
0.00105658
0.00105659
0.00105659
0.00105663
0.00105663
0.00105669
0.00105675
0.00105681
0.00105682
0.00105699
0.0010572
0.00105762
0.00105778
0.0010613
0.00106019
0.00142076
0.00109294
0.00106001
0.00105619
0.00105558
0.00105544
0.00105537
0.00105534
0.00105532
0.00105532
0.00105531
0.0010553
0.00105529
0.0010553
0.0010553
0.00105531
0.00105531
0.00105531
0.00105531
0.00105532
0.00105532
0.00105533
0.00105533
0.00105535
0.00105535
0.00105536
0.00105536
0.00105538
0.00105538
0.0010554
0.0010554
0.00105542
0.00105542
0.00105545
0.00105545
0.00105547
0.00105547
0.00105548
0.00105548
0.00105548
0.00105547
0.00105549
0.00105549
0.00105549
0.00105549
0.00105549
0.00105548
0.00105551
0.00105551
0.00105551
0.00105551
0.00105552
0.00105552
0.00105553
0.00105553
0.00105553
0.00105552
0.00105551
0.00105551
0.00105551
0.00105553
0.00105553
0.00105555
0.00105555
0.00105555
0.00105555
0.00105557
0.00105557
0.00105557
0.00105555
0.00105557
0.00105557
0.00105561
0.00105561
0.00105562
0.00105561
0.00105561
0.0010556
0.00105561
0.00105561
0.00105564
0.00105565
0.00105566
0.00105566
0.00105571
0.00105571
0.00105577
0.00105583
0.0010559
0.00105591
0.00105608
0.0010563
0.00105675
0.00105691
0.0010605
0.00105936
0.00140479
0.00111155
0.0010594
0.00105528
0.0010546
0.00105443
0.00105435
0.00105433
0.0010543
0.0010543
0.00105428
0.00105428
0.00105427
0.00105427
0.00105427
0.00105428
0.00105428
0.00105429
0.00105429
0.0010543
0.0010543
0.00105431
0.00105431
0.00105433
0.00105433
0.00105434
0.00105434
0.00105436
0.00105436
0.00105438
0.00105438
0.00105441
0.00105441
0.00105443
0.00105443
0.00105446
0.00105446
0.00105447
0.00105447
0.00105447
0.00105446
0.00105448
0.00105448
0.00105448
0.00105448
0.00105448
0.00105447
0.0010545
0.0010545
0.0010545
0.0010545
0.00105451
0.00105451
0.00105452
0.00105452
0.00105452
0.00105452
0.0010545
0.00105451
0.00105451
0.00105453
0.00105452
0.00105454
0.00105454
0.00105454
0.00105454
0.00105457
0.00105457
0.00105457
0.00105455
0.00105456
0.00105456
0.00105461
0.00105461
0.00105462
0.00105462
0.00105461
0.0010546
0.00105461
0.00105461
0.00105465
0.00105465
0.00105467
0.00105467
0.00105472
0.00105472
0.00105478
0.00105485
0.00105492
0.00105493
0.00105511
0.00105534
0.00105581
0.00105597
0.00105962
0.00105847
0.00138817
0.00112999
0.00105875
0.00105431
0.00105354
0.00105335
0.00105326
0.00105323
0.00105321
0.0010532
0.00105318
0.00105318
0.00105316
0.00105317
0.00105317
0.00105318
0.00105318
0.00105319
0.00105318
0.0010532
0.0010532
0.00105321
0.00105321
0.00105323
0.00105323
0.00105324
0.00105324
0.00105327
0.00105327
0.00105329
0.00105329
0.00105332
0.00105332
0.00105334
0.00105334
0.00105338
0.00105338
0.00105338
0.00105338
0.00105338
0.00105337
0.00105339
0.00105339
0.0010534
0.0010534
0.0010534
0.00105339
0.00105342
0.00105342
0.00105341
0.00105342
0.00105343
0.00105343
0.00105344
0.00105344
0.00105344
0.00105343
0.00105342
0.00105342
0.00105342
0.00105344
0.00105344
0.00105346
0.00105346
0.00105346
0.00105346
0.00105349
0.00105349
0.00105349
0.00105347
0.00105349
0.00105348
0.00105353
0.00105353
0.00105354
0.00105354
0.00105354
0.00105352
0.00105353
0.00105353
0.00105357
0.00105358
0.00105359
0.00105359
0.00105365
0.00105365
0.00105372
0.00105379
0.00105386
0.00105387
0.00105406
0.0010543
0.00105479
0.00105496
0.00105866
0.00105751
0.00137114
0.00114815
0.00105807
0.00105327
0.00105241
0.00105219
0.00105209
0.00105206
0.00105203
0.00105202
0.001052
0.00105199
0.00105198
0.00105198
0.00105198
0.001052
0.001052
0.001052
0.001052
0.00105201
0.00105201
0.00105203
0.00105203
0.00105205
0.00105205
0.00105207
0.00105207
0.00105209
0.00105209
0.00105212
0.00105212
0.00105215
0.00105215
0.00105218
0.00105218
0.00105221
0.00105221
0.00105222
0.00105222
0.00105222
0.0010522
0.00105222
0.00105222
0.00105223
0.00105223
0.00105223
0.00105222
0.00105225
0.00105225
0.00105225
0.00105225
0.00105226
0.00105226
0.00105228
0.00105228
0.00105228
0.00105227
0.00105225
0.00105226
0.00105226
0.00105228
0.00105228
0.0010523
0.0010523
0.0010523
0.0010523
0.00105233
0.00105233
0.00105233
0.00105231
0.00105233
0.00105233
0.00105238
0.00105238
0.00105239
0.00105239
0.00105239
0.00105237
0.00105238
0.00105238
0.00105242
0.00105242
0.00105244
0.00105244
0.00105251
0.00105251
0.00105257
0.00105266
0.00105273
0.00105274
0.00105293
0.00105319
0.0010537
0.00105388
0.00105761
0.00105649
0.00135393
0.00116591
0.00105736
0.00105216
0.00105121
0.00105096
0.00105084
0.0010508
0.00105077
0.00105075
0.00105073
0.00105073
0.00105071
0.00105071
0.00105071
0.00105073
0.00105073
0.00105073
0.00105073
0.00105075
0.00105075
0.00105076
0.00105076
0.00105078
0.00105078
0.00105081
0.00105081
0.00105083
0.00105083
0.00105086
0.00105086
0.00105089
0.00105089
0.00105093
0.00105093
0.00105096
0.00105096
0.00105097
0.00105097
0.00105097
0.00105096
0.00105098
0.00105098
0.00105099
0.00105099
0.00105098
0.00105097
0.00105101
0.00105101
0.00105101
0.00105101
0.00105102
0.00105102
0.00105103
0.00105103
0.00105103
0.00105103
0.00105101
0.00105101
0.00105101
0.00105104
0.00105104
0.00105106
0.00105106
0.00105106
0.00105105
0.0010511
0.0010511
0.00105109
0.00105108
0.00105109
0.00105109
0.00105114
0.00105114
0.00105116
0.00105115
0.00105115
0.00105113
0.00105115
0.00105115
0.00105119
0.00105119
0.00105121
0.00105121
0.00105128
0.00105128
0.00105135
0.00105144
0.00105152
0.00105153
0.00105173
0.00105199
0.00105253
0.00105271
0.00105647
0.00105541
0.00133681
0.00118322
0.00105661
0.00105099
0.00104992
0.00104964
0.00104951
0.00104946
0.00104942
0.0010494
0.00104938
0.00104937
0.00104935
0.00104936
0.00104935
0.00104937
0.00104937
0.00104938
0.00104938
0.00104939
0.00104939
0.00104941
0.00104941
0.00104943
0.00104943
0.00104946
0.00104946
0.00104949
0.00104949
0.00104952
0.00104952
0.00104955
0.00104955
0.00104959
0.00104959
0.00104963
0.00104963
0.00104964
0.00104964
0.00104963
0.00104962
0.00104964
0.00104964
0.00104965
0.00104965
0.00104965
0.00104964
0.00104968
0.00104968
0.00104968
0.00104967
0.00104969
0.00104969
0.00104971
0.0010497
0.0010497
0.0010497
0.00104968
0.00104968
0.00104968
0.00104971
0.00104971
0.00104974
0.00104974
0.00104974
0.00104973
0.00104977
0.00104977
0.00104977
0.00104975
0.00104977
0.00104976
0.00104982
0.00104982
0.00104984
0.00104984
0.00104983
0.00104981
0.00104983
0.00104983
0.00104987
0.00104987
0.00104989
0.00104989
0.00104997
0.00104997
0.00105004
0.00105014
0.00105022
0.00105023
0.00105044
0.00105072
0.00105127
0.00105146
0.00105524
0.00105427
0.00132003
0.00120002
0.00105582
0.00104975
0.00104856
0.00104823
0.00104808
0.00104803
0.00104798
0.00104796
0.00104794
0.00104793
0.00104791
0.00104791
0.00104791
0.00104793
0.00104793
0.00104793
0.00104793
0.00104795
0.00104795
0.00104797
0.00104797
0.00104799
0.00104799
0.00104802
0.00104802
0.00104805
0.00104805
0.00104809
0.00104809
0.00104812
0.00104812
0.00104816
0.00104816
0.00104821
0.00104821
0.00104821
0.00104821
0.00104821
0.0010482
0.00104822
0.00104822
0.00104823
0.00104823
0.00104823
0.00104822
0.00104826
0.00104826
0.00104826
0.00104825
0.00104827
0.00104827
0.00104829
0.00104829
0.00104829
0.00104828
0.00104826
0.00104827
0.00104826
0.0010483
0.0010483
0.00104832
0.00104832
0.00104832
0.00104831
0.00104836
0.00104836
0.00104836
0.00104834
0.00104835
0.00104835
0.00104842
0.00104842
0.00104843
0.00104843
0.00104843
0.0010484
0.00104842
0.00104842
0.00104846
0.00104846
0.00104849
0.00104849
0.00104858
0.00104858
0.00104865
0.00104876
0.00104884
0.00104885
0.00104906
0.00104935
0.00104994
0.00105013
0.0010539
0.00105307
0.00130383
0.0012163
0.00105501
0.00104844
0.00104711
0.00104674
0.00104657
0.0010465
0.00104645
0.00104643
0.0010464
0.00104639
0.00104637
0.00104637
0.00104637
0.00104639
0.00104639
0.0010464
0.0010464
0.00104641
0.00104641
0.00104644
0.00104643
0.00104646
0.00104646
0.00104649
0.00104649
0.00104653
0.00104653
0.00104656
0.00104656
0.0010466
0.00104661
0.00104665
0.00104665
0.0010467
0.0010467
0.0010467
0.0010467
0.0010467
0.00104669
0.00104671
0.00104671
0.00104672
0.00104672
0.00104672
0.00104671
0.00104675
0.00104675
0.00104675
0.00104674
0.00104676
0.00104676
0.00104678
0.00104678
0.00104678
0.00104678
0.00104675
0.00104676
0.00104676
0.00104679
0.00104679
0.00104682
0.00104682
0.00104682
0.00104681
0.00104686
0.00104686
0.00104686
0.00104684
0.00104685
0.00104685
0.00104692
0.00104692
0.00104694
0.00104694
0.00104693
0.00104691
0.00104692
0.00104692
0.00104697
0.00104697
0.001047
0.001047
0.0010471
0.0010471
0.00104716
0.00104728
0.00104737
0.00104738
0.0010476
0.0010479
0.00104851
0.00104871
0.00105246
0.0010518
0.00128844
0.00123206
0.00105416
0.00104706
0.00104558
0.00104516
0.00104497
0.00104489
0.00104483
0.00104481
0.00104477
0.00104476
0.00104473
0.00104474
0.00104473
0.00104475
0.00104475
0.00104476
0.00104476
0.00104478
0.00104478
0.0010448
0.0010448
0.00104483
0.00104483
0.00104487
0.00104487
0.0010449
0.0010449
0.00104495
0.00104495
0.00104499
0.00104499
0.00104504
0.00104504
0.00104509
0.00104509
0.00104509
0.00104509
0.00104509
0.00104508
0.0010451
0.0010451
0.00104512
0.00104512
0.00104512
0.0010451
0.00104514
0.00104514
0.00104514
0.00104513
0.00104516
0.00104516
0.00104518
0.00104518
0.00104518
0.00104517
0.00104515
0.00104515
0.00104515
0.00104519
0.00104519
0.00104522
0.00104522
0.00104522
0.00104521
0.00104526
0.00104526
0.00104527
0.00104525
0.00104526
0.00104525
0.00104533
0.00104533
0.00104535
0.00104535
0.00104535
0.00104532
0.00104534
0.00104534
0.00104538
0.00104538
0.00104541
0.00104541
0.00104552
0.00104552
0.00104559
0.00104572
0.00104581
0.00104582
0.00104604
0.00104636
0.00104699
0.00104719
0.00105092
0.00105048
0.00127406
0.00124735
0.00105329
0.00104561
0.00104397
0.00104349
0.00104326
0.00104317
0.00104311
0.00104308
0.00104304
0.00104303
0.001043
0.001043
0.00104299
0.00104302
0.00104302
0.00104302
0.00104302
0.00104304
0.00104304
0.00104307
0.00104307
0.0010431
0.0010431
0.00104314
0.00104314
0.00104318
0.00104318
0.00104323
0.00104323
0.00104328
0.00104328
0.00104333
0.00104333
0.00104338
0.00104338
0.00104339
0.00104339
0.00104339
0.00104337
0.0010434
0.0010434
0.00104341
0.00104341
0.00104341
0.00104339
0.00104344
0.00104344
0.00104344
0.00104343
0.00104346
0.00104346
0.00104348
0.00104348
0.00104348
0.00104347
0.00104344
0.00104345
0.00104345
0.00104349
0.00104349
0.00104352
0.00104352
0.00104352
0.00104351
0.00104357
0.00104357
0.00104358
0.00104356
0.00104357
0.00104356
0.00104365
0.00104365
0.00104367
0.00104366
0.00104366
0.00104363
0.00104365
0.00104365
0.0010437
0.0010437
0.00104373
0.00104373
0.00104385
0.00104385
0.00104391
0.00104406
0.00104415
0.00104416
0.00104439
0.00104472
0.00104537
0.00104559
0.00104925
0.0010491
0.00126084
0.00126222
0.00105238
0.0010441
0.00104226
0.00104172
0.00104146
0.00104136
0.00104128
0.00104125
0.00104121
0.00104119
0.00104116
0.00104116
0.00104115
0.00104118
0.00104118
0.00104118
0.00104118
0.0010412
0.0010412
0.00104123
0.00104123
0.00104127
0.00104127
0.00104131
0.00104131
0.00104136
0.00104136
0.00104141
0.00104141
0.00104146
0.00104146
0.00104152
0.00104152
0.00104157
0.00104157
0.00104158
0.00104158
0.00104158
0.00104156
0.00104159
0.00104159
0.00104161
0.00104161
0.0010416
0.00104158
0.00104164
0.00104164
0.00104163
0.00104162
0.00104165
0.00104165
0.00104168
0.00104168
0.00104168
0.00104167
0.00104164
0.00104165
0.00104165
0.00104169
0.00104169
0.00104172
0.00104172
0.00104173
0.00104171
0.00104178
0.00104178
0.00104178
0.00104177
0.00104178
0.00104177
0.00104186
0.00104186
0.00104188
0.00104188
0.00104188
0.00104184
0.00104186
0.00104186
0.00104191
0.00104191
0.00104195
0.00104195
0.00104208
0.00104208
0.00104214
0.00104229
0.00104239
0.0010424
0.00104264
0.00104298
0.00104366
0.00104388
0.00104747
0.00104766
0.00124891
0.00127674
0.00105145
0.00104251
0.00104047
0.00103985
0.00103956
0.00103944
0.00103935
0.00103931
0.00103927
0.00103925
0.00103921
0.00103921
0.00103919
0.00103923
0.00103923
0.00103923
0.00103923
0.00103926
0.00103926
0.00103929
0.00103929
0.00103933
0.00103933
0.00103937
0.00103937
0.00103942
0.00103942
0.00103948
0.00103948
0.00103954
0.00103954
0.0010396
0.0010396
0.00103966
0.00103966
0.00103967
0.00103967
0.00103967
0.00103965
0.00103968
0.00103968
0.00103969
0.00103969
0.00103969
0.00103967
0.00103973
0.00103973
0.00103972
0.00103971
0.00103974
0.00103974
0.00103977
0.00103977
0.00103977
0.00103977
0.00103973
0.00103974
0.00103974
0.00103979
0.00103978
0.00103982
0.00103982
0.00103982
0.00103981
0.00103988
0.00103988
0.00103989
0.00103988
0.00103988
0.00103987
0.00103997
0.00103997
0.00103999
0.00103999
0.00103998
0.00103995
0.00103997
0.00103997
0.00104002
0.00104002
0.00104006