/*--------------------------------*- C++ -*----------------------------------*\
| =========                 |                                                 |
| \\      /  F ield         | OpenFOAM: The Open Source CFD Toolbox           |
|  \\    /   O peration     | Version:  v2012                                 |
|   \\  /    A nd           | Website:  www.openfoam.com                      |
|    \\/     M anipulation  |                                                 |
\*---------------------------------------------------------------------------*/
FoamFile
{
    version     2.0;
    format      ascii;
    class       volScalarField;
    location    "2";
    object      nut;
}
// * * * * * * * * * * * * * * * * * * * * * * * * * * * * * * * * * * * * * //

dimensions      [0 2 -1 0 0 0 0];


internalField   nonuniform List<scalar> 
209825
(
1.22665e-07
1.22324e-07
1.22285e-07
1.22278e-07
1.22274e-07
1.22274e-07
1.22273e-07
1.22272e-07
1.22272e-07
1.22272e-07
1.22272e-07
1.22272e-07
1.22272e-07
1.22273e-07
1.22273e-07
1.22273e-07
1.22273e-07
1.22274e-07
1.22274e-07
1.22275e-07
1.22275e-07
1.22276e-07
1.22276e-07
1.22278e-07
1.22278e-07
1.22279e-07
1.22279e-07
1.22281e-07
1.22281e-07
1.22283e-07
1.22283e-07
1.22285e-07
1.22285e-07
1.22288e-07
1.22288e-07
1.22288e-07
1.22288e-07
1.22288e-07
1.22287e-07
1.22289e-07
1.22289e-07
1.22288e-07
1.22288e-07
1.22288e-07
1.22287e-07
1.2229e-07
1.2229e-07
1.2229e-07
1.22291e-07
1.22291e-07
1.22291e-07
1.22291e-07
1.22291e-07
1.22291e-07
1.22291e-07
1.22291e-07
1.2229e-07
1.22292e-07
1.22292e-07
1.22292e-07
1.22293e-07
1.22293e-07
1.22292e-07
1.22296e-07
1.22296e-07
1.22296e-07
1.22296e-07
1.22293e-07
1.22296e-07
1.22296e-07
1.22298e-07
1.22298e-07
1.22298e-07
1.22298e-07
1.22298e-07
1.22299e-07
1.22299e-07
1.22299e-07
1.22302e-07
1.22305e-07
1.22305e-07
1.22305e-07
1.22305e-07
1.22305e-07
1.22313e-07
1.22314e-07
1.22322e-07
1.22319e-07
1.22339e-07
1.22363e-07
1.22398e-07
1.22413e-07
1.22767e-07
1.22716e-07
1.83385e-07
6.72903e-10
1.22664e-07
1.22322e-07
1.22283e-07
1.22276e-07
1.22272e-07
1.22271e-07
1.2227e-07
1.2227e-07
1.22269e-07
1.2227e-07
1.22269e-07
1.2227e-07
1.2227e-07
1.22271e-07
1.22271e-07
1.22271e-07
1.22271e-07
1.22272e-07
1.22272e-07
1.22273e-07
1.22273e-07
1.22274e-07
1.22274e-07
1.22275e-07
1.22275e-07
1.22277e-07
1.22277e-07
1.22279e-07
1.22279e-07
1.22281e-07
1.22281e-07
1.22283e-07
1.22283e-07
1.22286e-07
1.22286e-07
1.22286e-07
1.22286e-07
1.22286e-07
1.22284e-07
1.22287e-07
1.22287e-07
1.22286e-07
1.22286e-07
1.22286e-07
1.22285e-07
1.22288e-07
1.22288e-07
1.22288e-07
1.22289e-07
1.22289e-07
1.22289e-07
1.22289e-07
1.22289e-07
1.22289e-07
1.22289e-07
1.22289e-07
1.22288e-07
1.2229e-07
1.2229e-07
1.2229e-07
1.22291e-07
1.22291e-07
1.2229e-07
1.22294e-07
1.22294e-07
1.22294e-07
1.22294e-07
1.2229e-07
1.22294e-07
1.22294e-07
1.22296e-07
1.22296e-07
1.22296e-07
1.22296e-07
1.22296e-07
1.22297e-07
1.22297e-07
1.22297e-07
1.223e-07
1.22303e-07
1.22303e-07
1.22303e-07
1.22303e-07
1.22303e-07
1.22311e-07
1.22312e-07
1.2232e-07
1.22317e-07
1.22337e-07
1.22361e-07
1.22396e-07
1.22411e-07
1.22766e-07
1.22714e-07
1.83383e-07
6.90026e-10
1.2266e-07
1.22315e-07
1.22275e-07
1.22268e-07
1.22264e-07
1.22263e-07
1.22262e-07
1.22262e-07
1.22261e-07
1.22261e-07
1.22261e-07
1.22262e-07
1.22262e-07
1.22262e-07
1.22262e-07
1.22263e-07
1.22263e-07
1.22264e-07
1.22264e-07
1.22265e-07
1.22265e-07
1.22266e-07
1.22266e-07
1.22267e-07
1.22267e-07
1.22269e-07
1.22269e-07
1.22271e-07
1.22271e-07
1.22273e-07
1.22273e-07
1.22275e-07
1.22275e-07
1.22278e-07
1.22278e-07
1.22278e-07
1.22278e-07
1.22277e-07
1.22276e-07
1.22278e-07
1.22278e-07
1.22278e-07
1.22278e-07
1.22278e-07
1.22277e-07
1.2228e-07
1.2228e-07
1.22279e-07
1.22281e-07
1.22281e-07
1.22281e-07
1.22281e-07
1.22281e-07
1.22281e-07
1.22281e-07
1.22281e-07
1.2228e-07
1.22282e-07
1.22282e-07
1.22282e-07
1.22283e-07
1.22283e-07
1.22282e-07
1.22286e-07
1.22286e-07
1.22286e-07
1.22285e-07
1.22282e-07
1.22286e-07
1.22286e-07
1.22288e-07
1.22288e-07
1.22288e-07
1.22288e-07
1.22288e-07
1.22289e-07
1.22289e-07
1.22289e-07
1.22292e-07
1.22295e-07
1.22295e-07
1.22295e-07
1.22295e-07
1.22295e-07
1.22303e-07
1.22304e-07
1.22312e-07
1.2231e-07
1.22329e-07
1.22353e-07
1.22389e-07
1.22404e-07
1.2276e-07
1.22708e-07
1.83301e-07
7.11044e-10
1.22654e-07
1.22304e-07
1.22262e-07
1.22254e-07
1.2225e-07
1.2225e-07
1.22249e-07
1.22248e-07
1.22247e-07
1.22248e-07
1.22247e-07
1.22248e-07
1.22248e-07
1.22249e-07
1.22249e-07
1.22249e-07
1.22249e-07
1.2225e-07
1.2225e-07
1.22251e-07
1.22251e-07
1.22252e-07
1.22252e-07
1.22254e-07
1.22254e-07
1.22255e-07
1.22255e-07
1.22257e-07
1.22257e-07
1.22259e-07
1.22259e-07
1.22261e-07
1.22261e-07
1.22264e-07
1.22264e-07
1.22264e-07
1.22264e-07
1.22264e-07
1.22263e-07
1.22265e-07
1.22265e-07
1.22265e-07
1.22265e-07
1.22264e-07
1.22264e-07
1.22267e-07
1.22267e-07
1.22266e-07
1.22268e-07
1.22267e-07
1.22268e-07
1.22268e-07
1.22268e-07
1.22268e-07
1.22268e-07
1.22268e-07
1.22266e-07
1.22268e-07
1.22268e-07
1.22269e-07
1.2227e-07
1.2227e-07
1.22269e-07
1.22273e-07
1.22273e-07
1.22273e-07
1.22272e-07
1.22269e-07
1.22273e-07
1.22273e-07
1.22275e-07
1.22275e-07
1.22275e-07
1.22275e-07
1.22275e-07
1.22275e-07
1.22276e-07
1.22276e-07
1.22279e-07
1.22282e-07
1.22282e-07
1.22282e-07
1.22282e-07
1.22282e-07
1.2229e-07
1.22291e-07
1.22299e-07
1.22297e-07
1.22316e-07
1.22341e-07
1.22377e-07
1.22392e-07
1.22751e-07
1.22697e-07
1.83118e-07
7.33788e-10
1.22646e-07
1.22287e-07
1.22243e-07
1.22235e-07
1.22231e-07
1.2223e-07
1.22229e-07
1.22229e-07
1.22228e-07
1.22228e-07
1.22228e-07
1.22228e-07
1.22228e-07
1.22229e-07
1.22229e-07
1.2223e-07
1.2223e-07
1.22231e-07
1.22231e-07
1.22232e-07
1.22232e-07
1.22233e-07
1.22233e-07
1.22234e-07
1.22234e-07
1.22236e-07
1.22236e-07
1.22238e-07
1.22238e-07
1.2224e-07
1.2224e-07
1.22242e-07
1.22242e-07
1.22245e-07
1.22245e-07
1.22245e-07
1.22245e-07
1.22245e-07
1.22244e-07
1.22246e-07
1.22246e-07
1.22246e-07
1.22246e-07
1.22246e-07
1.22245e-07
1.22248e-07
1.22248e-07
1.22247e-07
1.22249e-07
1.22249e-07
1.22249e-07
1.22249e-07
1.22249e-07
1.22249e-07
1.22249e-07
1.22249e-07
1.22247e-07
1.22249e-07
1.22249e-07
1.2225e-07
1.22251e-07
1.22251e-07
1.2225e-07
1.22254e-07
1.22254e-07
1.22254e-07
1.22253e-07
1.2225e-07
1.22254e-07
1.22254e-07
1.22256e-07
1.22256e-07
1.22256e-07
1.22256e-07
1.22256e-07
1.22256e-07
1.22257e-07
1.22257e-07
1.2226e-07
1.22263e-07
1.22263e-07
1.22263e-07
1.22264e-07
1.22264e-07
1.22272e-07
1.22273e-07
1.22281e-07
1.22278e-07
1.22298e-07
1.22323e-07
1.2236e-07
1.22376e-07
1.22738e-07
1.22682e-07
1.82824e-07
7.56967e-10
1.22635e-07
1.22266e-07
1.22219e-07
1.22211e-07
1.22207e-07
1.22206e-07
1.22204e-07
1.22204e-07
1.22203e-07
1.22203e-07
1.22203e-07
1.22203e-07
1.22203e-07
1.22204e-07
1.22204e-07
1.22205e-07
1.22205e-07
1.22206e-07
1.22206e-07
1.22207e-07
1.22207e-07
1.22208e-07
1.22208e-07
1.22209e-07
1.22209e-07
1.22211e-07
1.22211e-07
1.22213e-07
1.22213e-07
1.22215e-07
1.22215e-07
1.22218e-07
1.22218e-07
1.22221e-07
1.22221e-07
1.22221e-07
1.22221e-07
1.22221e-07
1.2222e-07
1.22222e-07
1.22222e-07
1.22222e-07
1.22222e-07
1.22221e-07
1.2222e-07
1.22224e-07
1.22223e-07
1.22223e-07
1.22225e-07
1.22224e-07
1.22225e-07
1.22225e-07
1.22224e-07
1.22225e-07
1.22225e-07
1.22224e-07
1.22223e-07
1.22225e-07
1.22225e-07
1.22225e-07
1.22227e-07
1.22227e-07
1.22226e-07
1.22229e-07
1.2223e-07
1.2223e-07
1.22229e-07
1.22226e-07
1.2223e-07
1.2223e-07
1.22232e-07
1.22232e-07
1.22232e-07
1.22232e-07
1.22232e-07
1.22232e-07
1.22233e-07
1.22233e-07
1.22236e-07
1.22239e-07
1.22239e-07
1.22239e-07
1.2224e-07
1.2224e-07
1.22248e-07
1.2225e-07
1.22258e-07
1.22255e-07
1.22275e-07
1.22301e-07
1.22338e-07
1.22354e-07
1.2272e-07
1.22662e-07
1.82407e-07
7.79847e-10
1.22622e-07
1.22239e-07
1.2219e-07
1.22181e-07
1.22176e-07
1.22175e-07
1.22173e-07
1.22173e-07
1.22172e-07
1.22172e-07
1.22172e-07
1.22172e-07
1.22172e-07
1.22173e-07
1.22173e-07
1.22174e-07
1.22174e-07
1.22175e-07
1.22175e-07
1.22176e-07
1.22176e-07
1.22177e-07
1.22177e-07
1.22179e-07
1.22179e-07
1.22181e-07
1.22181e-07
1.22183e-07
1.22183e-07
1.22185e-07
1.22185e-07
1.22187e-07
1.22187e-07
1.22191e-07
1.22191e-07
1.22191e-07
1.22191e-07
1.2219e-07
1.22189e-07
1.22191e-07
1.22191e-07
1.22191e-07
1.22191e-07
1.22191e-07
1.2219e-07
1.22193e-07
1.22193e-07
1.22193e-07
1.22195e-07
1.22194e-07
1.22194e-07
1.22194e-07
1.22194e-07
1.22194e-07
1.22194e-07
1.22194e-07
1.22193e-07
1.22194e-07
1.22195e-07
1.22195e-07
1.22197e-07
1.22197e-07
1.22196e-07
1.22199e-07
1.222e-07
1.222e-07
1.22199e-07
1.22196e-07
1.22199e-07
1.222e-07
1.22202e-07
1.22202e-07
1.22203e-07
1.22203e-07
1.22202e-07
1.22202e-07
1.22203e-07
1.22203e-07
1.22207e-07
1.22209e-07
1.22209e-07
1.22209e-07
1.2221e-07
1.2221e-07
1.22218e-07
1.22221e-07
1.22229e-07
1.22226e-07
1.22246e-07
1.22272e-07
1.22311e-07
1.22327e-07
1.22697e-07
1.22638e-07
1.81859e-07
8.02042e-10
1.22606e-07
1.22208e-07
1.22155e-07
1.22145e-07
1.22139e-07
1.22138e-07
1.22137e-07
1.22136e-07
1.22135e-07
1.22135e-07
1.22135e-07
1.22135e-07
1.22135e-07
1.22136e-07
1.22136e-07
1.22137e-07
1.22137e-07
1.22138e-07
1.22138e-07
1.22139e-07
1.22139e-07
1.2214e-07
1.2214e-07
1.22142e-07
1.22142e-07
1.22144e-07
1.22144e-07
1.22146e-07
1.22146e-07
1.22148e-07
1.22148e-07
1.22151e-07
1.22151e-07
1.22154e-07
1.22154e-07
1.22155e-07
1.22155e-07
1.22154e-07
1.22153e-07
1.22155e-07
1.22155e-07
1.22155e-07
1.22155e-07
1.22155e-07
1.22154e-07
1.22157e-07
1.22157e-07
1.22156e-07
1.22158e-07
1.22158e-07
1.22158e-07
1.22158e-07
1.22158e-07
1.22158e-07
1.22158e-07
1.22158e-07
1.22157e-07
1.22158e-07
1.22159e-07
1.22159e-07
1.22161e-07
1.22161e-07
1.2216e-07
1.22163e-07
1.22164e-07
1.22164e-07
1.22163e-07
1.2216e-07
1.22164e-07
1.22164e-07
1.22167e-07
1.22167e-07
1.22167e-07
1.22167e-07
1.22166e-07
1.22166e-07
1.22167e-07
1.22167e-07
1.22171e-07
1.22173e-07
1.22174e-07
1.22173e-07
1.22175e-07
1.22175e-07
1.22183e-07
1.22186e-07
1.22194e-07
1.22191e-07
1.22212e-07
1.22239e-07
1.22278e-07
1.22294e-07
1.2267e-07
1.22608e-07
1.81174e-07
8.23438e-10
1.22588e-07
1.22172e-07
1.22114e-07
1.22102e-07
1.22097e-07
1.22095e-07
1.22094e-07
1.22093e-07
1.22092e-07
1.22092e-07
1.22091e-07
1.22092e-07
1.22092e-07
1.22093e-07
1.22093e-07
1.22094e-07
1.22094e-07
1.22095e-07
1.22095e-07
1.22096e-07
1.22096e-07
1.22097e-07
1.22097e-07
1.22099e-07
1.22099e-07
1.22101e-07
1.22101e-07
1.22103e-07
1.22103e-07
1.22106e-07
1.22106e-07
1.22109e-07
1.22109e-07
1.22112e-07
1.22112e-07
1.22112e-07
1.22112e-07
1.22112e-07
1.22111e-07
1.22113e-07
1.22113e-07
1.22113e-07
1.22113e-07
1.22113e-07
1.22112e-07
1.22115e-07
1.22115e-07
1.22114e-07
1.22116e-07
1.22116e-07
1.22116e-07
1.22116e-07
1.22116e-07
1.22116e-07
1.22116e-07
1.22116e-07
1.22115e-07
1.22116e-07
1.22117e-07
1.22117e-07
1.22119e-07
1.22119e-07
1.22118e-07
1.22121e-07
1.22122e-07
1.22122e-07
1.22121e-07
1.22118e-07
1.22122e-07
1.22122e-07
1.22125e-07
1.22125e-07
1.22125e-07
1.22125e-07
1.22124e-07
1.22124e-07
1.22125e-07
1.22125e-07
1.2213e-07
1.22132e-07
1.22132e-07
1.22131e-07
1.22134e-07
1.22134e-07
1.22142e-07
1.22145e-07
1.22154e-07
1.2215e-07
1.22172e-07
1.22199e-07
1.2224e-07
1.22256e-07
1.22637e-07
1.22573e-07
1.80347e-07
8.44133e-10
1.22568e-07
1.2213e-07
1.22067e-07
1.22054e-07
1.22048e-07
1.22046e-07
1.22044e-07
1.22043e-07
1.22042e-07
1.22042e-07
1.22041e-07
1.22042e-07
1.22042e-07
1.22043e-07
1.22043e-07
1.22044e-07
1.22044e-07
1.22045e-07
1.22045e-07
1.22046e-07
1.22046e-07
1.22048e-07
1.22048e-07
1.2205e-07
1.2205e-07
1.22052e-07
1.22052e-07
1.22054e-07
1.22054e-07
1.22057e-07
1.22057e-07
1.2206e-07
1.2206e-07
1.22064e-07
1.22064e-07
1.22064e-07
1.22064e-07
1.22064e-07
1.22062e-07
1.22065e-07
1.22065e-07
1.22065e-07
1.22065e-07
1.22064e-07
1.22063e-07
1.22067e-07
1.22067e-07
1.22066e-07
1.22068e-07
1.22068e-07
1.22068e-07
1.22068e-07
1.22068e-07
1.22068e-07
1.22068e-07
1.22067e-07
1.22066e-07
1.22067e-07
1.22068e-07
1.22069e-07
1.22071e-07
1.22071e-07
1.22069e-07
1.22072e-07
1.22074e-07
1.22074e-07
1.22073e-07
1.2207e-07
1.22073e-07
1.22074e-07
1.22077e-07
1.22077e-07
1.22078e-07
1.22078e-07
1.22076e-07
1.22075e-07
1.22077e-07
1.22077e-07
1.22082e-07
1.22084e-07
1.22084e-07
1.22083e-07
1.22086e-07
1.22086e-07
1.22095e-07
1.22098e-07
1.22108e-07
1.22103e-07
1.22125e-07
1.22154e-07
1.22196e-07
1.22212e-07
1.22599e-07
1.22532e-07
1.79375e-07
8.64364e-10
1.22545e-07
1.22083e-07
1.22014e-07
1.21999e-07
1.21992e-07
1.2199e-07
1.21988e-07
1.21987e-07
1.21986e-07
1.21986e-07
1.21985e-07
1.21986e-07
1.21985e-07
1.21987e-07
1.21987e-07
1.21988e-07
1.21988e-07
1.21989e-07
1.21989e-07
1.2199e-07
1.2199e-07
1.21992e-07
1.21992e-07
1.21994e-07
1.21994e-07
1.21996e-07
1.21996e-07
1.21999e-07
1.21999e-07
1.22002e-07
1.22002e-07
1.22005e-07
1.22005e-07
1.22009e-07
1.22009e-07
1.22009e-07
1.22009e-07
1.22009e-07
1.22007e-07
1.2201e-07
1.2201e-07
1.2201e-07
1.2201e-07
1.22009e-07
1.22008e-07
1.22012e-07
1.22012e-07
1.22011e-07
1.22013e-07
1.22013e-07
1.22013e-07
1.22013e-07
1.22013e-07
1.22013e-07
1.22013e-07
1.22012e-07
1.22011e-07
1.22012e-07
1.22014e-07
1.22014e-07
1.22016e-07
1.22016e-07
1.22015e-07
1.22017e-07
1.2202e-07
1.2202e-07
1.22019e-07
1.22015e-07
1.22019e-07
1.22019e-07
1.22023e-07
1.22023e-07
1.22023e-07
1.22023e-07
1.22022e-07
1.22021e-07
1.22022e-07
1.22022e-07
1.22028e-07
1.22029e-07
1.2203e-07
1.22028e-07
1.22033e-07
1.22033e-07
1.22042e-07
1.22045e-07
1.22055e-07
1.2205e-07
1.22073e-07
1.22102e-07
1.22146e-07
1.22163e-07
1.22554e-07
1.22486e-07
1.78259e-07
8.84523e-10
1.2252e-07
1.22031e-07
1.21954e-07
1.21938e-07
1.2193e-07
1.21927e-07
1.21925e-07
1.21924e-07
1.21923e-07
1.21922e-07
1.21922e-07
1.21922e-07
1.21922e-07
1.21924e-07
1.21924e-07
1.21924e-07
1.21924e-07
1.21926e-07
1.21926e-07
1.21927e-07
1.21927e-07
1.21929e-07
1.21929e-07
1.21931e-07
1.21931e-07
1.21934e-07
1.21934e-07
1.21936e-07
1.21936e-07
1.21939e-07
1.21939e-07
1.21943e-07
1.21943e-07
1.21947e-07
1.21947e-07
1.21947e-07
1.21947e-07
1.21947e-07
1.21945e-07
1.21948e-07
1.21948e-07
1.21948e-07
1.21948e-07
1.21948e-07
1.21946e-07
1.2195e-07
1.2195e-07
1.21949e-07
1.21951e-07
1.21951e-07
1.21951e-07
1.21952e-07
1.21952e-07
1.21952e-07
1.21952e-07
1.2195e-07
1.2195e-07
1.2195e-07
1.21952e-07
1.21953e-07
1.21955e-07
1.21955e-07
1.21953e-07
1.21956e-07
1.21958e-07
1.21959e-07
1.21957e-07
1.21954e-07
1.21957e-07
1.21958e-07
1.21962e-07
1.21962e-07
1.21963e-07
1.21963e-07
1.21961e-07
1.21959e-07
1.21961e-07
1.21961e-07
1.21967e-07
1.21968e-07
1.21969e-07
1.21968e-07
1.21972e-07
1.21972e-07
1.21982e-07
1.21986e-07
1.21996e-07
1.2199e-07
1.22014e-07
1.22044e-07
1.2209e-07
1.22107e-07
1.22504e-07
1.22434e-07
1.77002e-07
9.0504e-10
1.22493e-07
1.21973e-07
1.21889e-07
1.2187e-07
1.21861e-07
1.21858e-07
1.21855e-07
1.21854e-07
1.21852e-07
1.21852e-07
1.21851e-07
1.21852e-07
1.21852e-07
1.21853e-07
1.21853e-07
1.21854e-07
1.21854e-07
1.21855e-07
1.21855e-07
1.21857e-07
1.21857e-07
1.21859e-07
1.21859e-07
1.21861e-07
1.21861e-07
1.21864e-07
1.21864e-07
1.21867e-07
1.21867e-07
1.2187e-07
1.2187e-07
1.21874e-07
1.21874e-07
1.21879e-07
1.21879e-07
1.21879e-07
1.21879e-07
1.21878e-07
1.21877e-07
1.21879e-07
1.21879e-07
1.2188e-07
1.2188e-07
1.21879e-07
1.21878e-07
1.21882e-07
1.21882e-07
1.21881e-07
1.21883e-07
1.21883e-07
1.21883e-07
1.21884e-07
1.21883e-07
1.21884e-07
1.21883e-07
1.21881e-07
1.21881e-07
1.21882e-07
1.21884e-07
1.21884e-07
1.21887e-07
1.21887e-07
1.21885e-07
1.21887e-07
1.2189e-07
1.21891e-07
1.21889e-07
1.21885e-07
1.21889e-07
1.2189e-07
1.21894e-07
1.21894e-07
1.21895e-07
1.21895e-07
1.21893e-07
1.21891e-07
1.21893e-07
1.21893e-07
1.21899e-07
1.21901e-07
1.21901e-07
1.219e-07
1.21905e-07
1.21905e-07
1.21915e-07
1.2192e-07
1.2193e-07
1.21924e-07
1.21948e-07
1.2198e-07
1.22028e-07
1.22044e-07
1.22447e-07
1.22375e-07
1.7561e-07
9.26373e-10
1.22463e-07
1.21909e-07
1.21816e-07
1.21794e-07
1.21784e-07
1.21781e-07
1.21778e-07
1.21777e-07
1.21775e-07
1.21774e-07
1.21773e-07
1.21774e-07
1.21774e-07
1.21775e-07
1.21775e-07
1.21776e-07
1.21776e-07
1.21778e-07
1.21778e-07
1.2178e-07
1.2178e-07
1.21782e-07
1.21782e-07
1.21784e-07
1.21784e-07
1.21787e-07
1.21787e-07
1.21791e-07
1.21791e-07
1.21794e-07
1.21794e-07
1.21798e-07
1.21798e-07
1.21803e-07
1.21803e-07
1.21803e-07
1.21803e-07
1.21803e-07
1.21801e-07
1.21804e-07
1.21804e-07
1.21804e-07
1.21804e-07
1.21803e-07
1.21802e-07
1.21806e-07
1.21806e-07
1.21805e-07
1.21807e-07
1.21807e-07
1.21807e-07
1.21808e-07
1.21808e-07
1.21808e-07
1.21808e-07
1.21805e-07
1.21805e-07
1.21806e-07
1.21808e-07
1.21809e-07
1.21811e-07
1.21811e-07
1.2181e-07
1.21812e-07
1.21815e-07
1.21816e-07
1.21814e-07
1.2181e-07
1.21814e-07
1.21814e-07
1.2182e-07
1.2182e-07
1.21821e-07
1.2182e-07
1.21818e-07
1.21816e-07
1.21818e-07
1.21818e-07
1.21825e-07
1.21826e-07
1.21827e-07
1.21825e-07
1.21831e-07
1.21831e-07
1.21841e-07
1.21847e-07
1.21857e-07
1.21851e-07
1.21876e-07
1.21909e-07
1.21959e-07
1.21975e-07
1.22383e-07
1.22311e-07
1.74092e-07
9.48981e-10
1.22432e-07
1.2184e-07
1.21737e-07
1.21712e-07
1.217e-07
1.21697e-07
1.21693e-07
1.21692e-07
1.2169e-07
1.21689e-07
1.21688e-07
1.21688e-07
1.21688e-07
1.2169e-07
1.2169e-07
1.21691e-07
1.21691e-07
1.21693e-07
1.21693e-07
1.21695e-07
1.21695e-07
1.21697e-07
1.21697e-07
1.217e-07
1.217e-07
1.21703e-07
1.21703e-07
1.21706e-07
1.21706e-07
1.2171e-07
1.2171e-07
1.21715e-07
1.21715e-07
1.2172e-07
1.2172e-07
1.2172e-07
1.2172e-07
1.2172e-07
1.21718e-07
1.21721e-07
1.21721e-07
1.21721e-07
1.21721e-07
1.2172e-07
1.21719e-07
1.21723e-07
1.21723e-07
1.21722e-07
1.21724e-07
1.21724e-07
1.21724e-07
1.21725e-07
1.21725e-07
1.21726e-07
1.21725e-07
1.21722e-07
1.21722e-07
1.21723e-07
1.21725e-07
1.21726e-07
1.21729e-07
1.21729e-07
1.21727e-07
1.21729e-07
1.21733e-07
1.21733e-07
1.21732e-07
1.21728e-07
1.21731e-07
1.21732e-07
1.21738e-07
1.21738e-07
1.21739e-07
1.21739e-07
1.21736e-07
1.21733e-07
1.21736e-07
1.21736e-07
1.21743e-07
1.21744e-07
1.21745e-07
1.21743e-07
1.2175e-07
1.2175e-07
1.2176e-07
1.21767e-07
1.21778e-07
1.2177e-07
1.21796e-07
1.21831e-07
1.21883e-07
1.219e-07
1.22311e-07
1.2224e-07
1.7246e-07
9.73313e-10
1.22398e-07
1.21766e-07
1.21651e-07
1.21622e-07
1.21609e-07
1.21605e-07
1.21601e-07
1.21599e-07
1.21597e-07
1.21596e-07
1.21594e-07
1.21595e-07
1.21595e-07
1.21597e-07
1.21597e-07
1.21598e-07
1.21598e-07
1.216e-07
1.216e-07
1.21602e-07
1.21602e-07
1.21604e-07
1.21604e-07
1.21607e-07
1.21607e-07
1.21611e-07
1.21611e-07
1.21615e-07
1.21615e-07
1.21619e-07
1.21619e-07
1.21624e-07
1.21624e-07
1.21629e-07
1.21629e-07
1.2163e-07
1.2163e-07
1.21629e-07
1.21627e-07
1.2163e-07
1.2163e-07
1.21631e-07
1.21631e-07
1.2163e-07
1.21628e-07
1.21633e-07
1.21633e-07
1.21631e-07
1.21633e-07
1.21633e-07
1.21633e-07
1.21635e-07
1.21635e-07
1.21635e-07
1.21634e-07
1.21631e-07
1.21632e-07
1.21632e-07
1.21635e-07
1.21636e-07
1.21639e-07
1.21639e-07
1.21637e-07
1.21638e-07
1.21643e-07
1.21643e-07
1.21642e-07
1.21638e-07
1.21641e-07
1.21642e-07
1.21648e-07
1.21648e-07
1.21649e-07
1.21649e-07
1.21646e-07
1.21643e-07
1.21646e-07
1.21646e-07
1.21653e-07
1.21654e-07
1.21655e-07
1.21654e-07
1.21661e-07
1.21661e-07
1.21672e-07
1.21679e-07
1.21691e-07
1.21683e-07
1.21709e-07
1.21745e-07
1.218e-07
1.21817e-07
1.22232e-07
1.22163e-07
1.70728e-07
9.99802e-10
1.22363e-07
1.21686e-07
1.21558e-07
1.21525e-07
1.2151e-07
1.21505e-07
1.215e-07
1.21498e-07
1.21496e-07
1.21495e-07
1.21493e-07
1.21494e-07
1.21493e-07
1.21496e-07
1.21496e-07
1.21497e-07
1.21497e-07
1.21499e-07
1.21499e-07
1.21501e-07
1.21501e-07
1.21504e-07
1.21504e-07
1.21507e-07
1.21507e-07
1.21511e-07
1.21511e-07
1.21515e-07
1.21515e-07
1.2152e-07
1.2152e-07
1.21525e-07
1.21525e-07
1.21531e-07
1.21531e-07
1.21531e-07
1.21531e-07
1.2153e-07
1.21528e-07
1.21532e-07
1.21532e-07
1.21532e-07
1.21532e-07
1.21531e-07
1.21529e-07
1.21534e-07
1.21534e-07
1.21533e-07
1.21535e-07
1.21535e-07
1.21535e-07
1.21537e-07
1.21537e-07
1.21537e-07
1.21536e-07
1.21533e-07
1.21533e-07
1.21533e-07
1.21537e-07
1.21538e-07
1.21541e-07
1.21541e-07
1.21539e-07
1.2154e-07
1.21546e-07
1.21546e-07
1.21544e-07
1.2154e-07
1.21543e-07
1.21544e-07
1.21551e-07
1.21551e-07
1.21552e-07
1.21552e-07
1.21549e-07
1.21545e-07
1.21548e-07
1.21549e-07
1.21556e-07
1.21556e-07
1.21558e-07
1.21556e-07
1.21565e-07
1.21565e-07
1.21576e-07
1.21584e-07
1.21596e-07
1.21587e-07
1.21615e-07
1.21652e-07
1.21709e-07
1.21726e-07
1.22145e-07
1.2208e-07
1.68911e-07
1.02887e-09
1.22326e-07
1.216e-07
1.21457e-07
1.2142e-07
1.21403e-07
1.21397e-07
1.21392e-07
1.21389e-07
1.21386e-07
1.21385e-07
1.21383e-07
1.21384e-07
1.21383e-07
1.21386e-07
1.21386e-07
1.21387e-07
1.21387e-07
1.21389e-07
1.21389e-07
1.21392e-07
1.21392e-07
1.21395e-07
1.21395e-07
1.21398e-07
1.21398e-07
1.21403e-07
1.21403e-07
1.21407e-07
1.21407e-07
1.21412e-07
1.21412e-07
1.21418e-07
1.21418e-07
1.21424e-07
1.21424e-07
1.21425e-07
1.21425e-07
1.21424e-07
1.21422e-07
1.21425e-07
1.21425e-07
1.21426e-07
1.21426e-07
1.21425e-07
1.21422e-07
1.21428e-07
1.21428e-07
1.21426e-07
1.21428e-07
1.21428e-07
1.21428e-07
1.2143e-07
1.2143e-07
1.21431e-07
1.2143e-07
1.21426e-07
1.21426e-07
1.21426e-07
1.21431e-07
1.21431e-07
1.21435e-07
1.21435e-07
1.21433e-07
1.21433e-07
1.2144e-07
1.2144e-07
1.21438e-07
1.21434e-07
1.21437e-07
1.21438e-07
1.21446e-07
1.21446e-07
1.21447e-07
1.21447e-07
1.21443e-07
1.2144e-07
1.21443e-07
1.21443e-07
1.21451e-07
1.21451e-07
1.21452e-07
1.21451e-07
1.21461e-07
1.21461e-07
1.21472e-07
1.21481e-07
1.21494e-07
1.21484e-07
1.21512e-07
1.21551e-07
1.21611e-07
1.21629e-07
1.22049e-07
1.21989e-07
1.67028e-07
1.06096e-09
1.22288e-07
1.21509e-07
1.21349e-07
1.21307e-07
1.21287e-07
1.2128e-07
1.21274e-07
1.21272e-07
1.21269e-07
1.21267e-07
1.21264e-07
1.21265e-07
1.21265e-07
1.21268e-07
1.21268e-07
1.21269e-07
1.21269e-07
1.21271e-07
1.21271e-07
1.21274e-07
1.21274e-07
1.21277e-07
1.21277e-07
1.21281e-07
1.21281e-07
1.21286e-07
1.21286e-07
1.21291e-07
1.21291e-07
1.21296e-07
1.21296e-07
1.21302e-07
1.21302e-07
1.21309e-07
1.21309e-07
1.2131e-07
1.2131e-07
1.21309e-07
1.21306e-07
1.2131e-07
1.2131e-07
1.21311e-07
1.21311e-07
1.21309e-07
1.21307e-07
1.21313e-07
1.21313e-07
1.21311e-07
1.21312e-07
1.21313e-07
1.21313e-07
1.21316e-07
1.21316e-07
1.21316e-07
1.21315e-07
1.21311e-07
1.21311e-07
1.21311e-07
1.21316e-07
1.21316e-07
1.21321e-07
1.21321e-07
1.21319e-07
1.21318e-07
1.21326e-07
1.21326e-07
1.21324e-07
1.2132e-07
1.21323e-07
1.21324e-07
1.21332e-07
1.21332e-07
1.21334e-07
1.21334e-07
1.2133e-07
1.21325e-07
1.21329e-07
1.21329e-07
1.21337e-07
1.21337e-07
1.21339e-07
1.21338e-07
1.21349e-07
1.21349e-07
1.2136e-07
1.2137e-07
1.21383e-07
1.21373e-07
1.21402e-07
1.21442e-07
1.21504e-07
1.21523e-07
1.21944e-07
1.21892e-07
1.65098e-07
1.09645e-09
1.22248e-07
1.21411e-07
1.21234e-07
1.21186e-07
1.21163e-07
1.21155e-07
1.21148e-07
1.21145e-07
1.21142e-07
1.2114e-07
1.21137e-07
1.21138e-07
1.21137e-07
1.2114e-07
1.2114e-07
1.21141e-07
1.21141e-07
1.21144e-07
1.21144e-07
1.21147e-07
1.21147e-07
1.21151e-07
1.21151e-07
1.21155e-07
1.21155e-07
1.2116e-07
1.2116e-07
1.21166e-07
1.21166e-07
1.21172e-07
1.21172e-07
1.21178e-07
1.21178e-07
1.21186e-07
1.21186e-07
1.21186e-07
1.21186e-07
1.21185e-07
1.21183e-07
1.21186e-07
1.21186e-07
1.21187e-07
1.21187e-07
1.21186e-07
1.21183e-07
1.21189e-07
1.21189e-07
1.21188e-07
1.21188e-07
1.21189e-07
1.21189e-07
1.21192e-07
1.21192e-07
1.21193e-07
1.21191e-07
1.21187e-07
1.21187e-07
1.21187e-07
1.21192e-07
1.21193e-07
1.21198e-07
1.21198e-07
1.21196e-07
1.21195e-07
1.21203e-07
1.21203e-07
1.21201e-07
1.21197e-07
1.212e-07
1.21201e-07
1.2121e-07
1.2121e-07
1.21212e-07
1.21212e-07
1.21207e-07
1.21203e-07
1.21206e-07
1.21207e-07
1.21215e-07
1.21215e-07
1.21217e-07
1.21216e-07
1.21228e-07
1.21228e-07
1.2124e-07
1.2125e-07
1.21265e-07
1.21253e-07
1.21283e-07
1.21325e-07
1.2139e-07
1.21409e-07
1.21829e-07
1.21789e-07
1.63141e-07
1.13577e-09
1.22208e-07
1.21309e-07
1.21111e-07
1.21056e-07
1.21031e-07
1.21021e-07
1.21013e-07
1.2101e-07
1.21006e-07
1.21004e-07
1.21e-07
1.21001e-07
1.21e-07
1.21004e-07
1.21004e-07
1.21005e-07
1.21005e-07
1.21007e-07
1.21007e-07
1.21011e-07
1.21011e-07
1.21015e-07
1.21015e-07
1.2102e-07
1.2102e-07
1.21025e-07
1.21025e-07
1.21031e-07
1.21031e-07
1.21038e-07
1.21038e-07
1.21045e-07
1.21045e-07
1.21053e-07
1.21053e-07
1.21053e-07
1.21053e-07
1.21052e-07
1.2105e-07
1.21054e-07
1.21054e-07
1.21054e-07
1.21054e-07
1.21053e-07
1.2105e-07
1.21057e-07
1.21057e-07
1.21055e-07
1.21055e-07
1.21056e-07
1.21056e-07
1.2106e-07
1.2106e-07
1.2106e-07
1.21059e-07
1.21054e-07
1.21054e-07
1.21054e-07
1.2106e-07
1.21061e-07
1.21066e-07
1.21066e-07
1.21064e-07
1.21062e-07
1.21071e-07
1.21071e-07
1.21069e-07
1.21065e-07
1.21068e-07
1.21069e-07
1.2108e-07
1.2108e-07
1.21081e-07
1.21081e-07
1.21076e-07
1.21071e-07
1.21074e-07
1.21076e-07
1.21084e-07
1.21084e-07
1.21086e-07
1.21085e-07
1.21098e-07
1.21098e-07
1.2111e-07
1.21122e-07
1.21137e-07
1.21124e-07
1.21155e-07
1.21199e-07
1.21267e-07
1.21286e-07
1.21705e-07
1.21678e-07
1.61177e-07
1.17952e-09
1.22166e-07
1.212e-07
1.20981e-07
1.20918e-07
1.20889e-07
1.20877e-07
1.20869e-07
1.20865e-07
1.2086e-07
1.20858e-07
1.20853e-07
1.20854e-07
1.20853e-07
1.20857e-07
1.20857e-07
1.20858e-07
1.20858e-07
1.20861e-07
1.20861e-07
1.20865e-07
1.20865e-07
1.2087e-07
1.2087e-07
1.20875e-07
1.20875e-07
1.20881e-07
1.20881e-07
1.20888e-07
1.20888e-07
1.20895e-07
1.20895e-07
1.20902e-07
1.20902e-07
1.20911e-07
1.20911e-07
1.20911e-07
1.20911e-07
1.2091e-07
1.20908e-07
1.20912e-07
1.20912e-07
1.20913e-07
1.20913e-07
1.20911e-07
1.20908e-07
1.20915e-07
1.20915e-07
1.20913e-07
1.20912e-07
1.20914e-07
1.20914e-07
1.20918e-07
1.20918e-07
1.20919e-07
1.20917e-07
1.20912e-07
1.20912e-07
1.20912e-07
1.20918e-07
1.20919e-07
1.20925e-07
1.20925e-07
1.20923e-07
1.20921e-07
1.20931e-07
1.20931e-07
1.20928e-07
1.20924e-07
1.20927e-07
1.20928e-07
1.2094e-07
1.2094e-07
1.20941e-07
1.20941e-07
1.20935e-07
1.2093e-07
1.20934e-07
1.20935e-07
1.20944e-07
1.20943e-07
1.20946e-07
1.20945e-07
1.2096e-07
1.2096e-07
1.20972e-07
1.20985e-07
1.21001e-07
1.20987e-07
1.21019e-07
1.21064e-07
1.21135e-07
1.21155e-07
1.2157e-07
1.2156e-07
1.59226e-07
1.22828e-09
1.22124e-07
1.21087e-07
1.20842e-07
1.2077e-07
1.20738e-07
1.20724e-07
1.20714e-07
1.2071e-07
1.20704e-07
1.20702e-07
1.20697e-07
1.20698e-07
1.20697e-07
1.20701e-07
1.20701e-07
1.20702e-07
1.20702e-07
1.20705e-07
1.20705e-07
1.2071e-07
1.20709e-07
1.20715e-07
1.20715e-07
1.2072e-07
1.2072e-07
1.20727e-07
1.20727e-07
1.20734e-07
1.20734e-07
1.20742e-07
1.20742e-07
1.2075e-07
1.2075e-07
1.2076e-07
1.2076e-07
1.2076e-07
1.2076e-07
1.20759e-07
1.20756e-07
1.2076e-07
1.2076e-07
1.20761e-07
1.20761e-07
1.20759e-07
1.20756e-07
1.20763e-07
1.20763e-07
1.20761e-07
1.2076e-07
1.20763e-07
1.20763e-07
1.20767e-07
1.20767e-07
1.20767e-07
1.20766e-07
1.2076e-07
1.2076e-07
1.2076e-07
1.20767e-07
1.20768e-07
1.20774e-07
1.20774e-07
1.20772e-07
1.2077e-07
1.2078e-07
1.2078e-07
1.20778e-07
1.20774e-07
1.20777e-07
1.20778e-07
1.2079e-07
1.2079e-07
1.20792e-07
1.20792e-07
1.20786e-07
1.2078e-07
1.20784e-07
1.20785e-07
1.20794e-07
1.20794e-07
1.20796e-07
1.20796e-07
1.20812e-07
1.20812e-07
1.20824e-07
1.20838e-07
1.20855e-07
1.2084e-07
1.20873e-07
1.2092e-07
1.20994e-07
1.21014e-07
1.21424e-07
1.21435e-07
1.57305e-07
1.2827e-09
1.22081e-07
1.20968e-07
1.20696e-07
1.20614e-07
1.20577e-07
1.20562e-07
1.2055e-07
1.20545e-07
1.20539e-07
1.20536e-07
1.2053e-07
1.20531e-07
1.20529e-07
1.20535e-07
1.20535e-07
1.20536e-07
1.20535e-07
1.20539e-07
1.20539e-07
1.20544e-07
1.20544e-07
1.20549e-07
1.20549e-07
1.20555e-07
1.20555e-07
1.20563e-07
1.20563e-07
1.20571e-07
1.20571e-07
1.20579e-07
1.20579e-07
1.20588e-07
1.20588e-07
1.20598e-07
1.20598e-07
1.20599e-07
1.20598e-07
1.20597e-07
1.20594e-07
1.20598e-07
1.20598e-07
1.206e-07
1.20599e-07
1.20597e-07
1.20594e-07
1.20602e-07
1.20602e-07
1.206e-07
1.20598e-07
1.20601e-07
1.20601e-07
1.20606e-07
1.20606e-07
1.20606e-07
1.20604e-07
1.20598e-07
1.20598e-07
1.20598e-07
1.20606e-07
1.20606e-07
1.20613e-07
1.20613e-07
1.20611e-07
1.20609e-07
1.2062e-07
1.2062e-07
1.20618e-07
1.20614e-07
1.20616e-07
1.20617e-07
1.20631e-07
1.20631e-07
1.20633e-07
1.20632e-07
1.20626e-07
1.2062e-07
1.20624e-07
1.20625e-07
1.20634e-07
1.20634e-07
1.20637e-07
1.20637e-07
1.20654e-07
1.20654e-07
1.20666e-07
1.20682e-07
1.207e-07
1.20683e-07
1.20717e-07
1.20767e-07
1.20843e-07
1.20864e-07
1.21268e-07
1.21303e-07
1.5543e-07
1.34354e-09
1.22039e-07
1.20844e-07
1.20542e-07
1.20449e-07
1.20407e-07
1.20389e-07
1.20375e-07
1.2037e-07
1.20363e-07
1.20359e-07
1.20353e-07
1.20353e-07
1.20352e-07
1.20357e-07
1.20357e-07
1.20358e-07
1.20358e-07
1.20362e-07
1.20362e-07
1.20367e-07
1.20367e-07
1.20373e-07
1.20373e-07
1.2038e-07
1.2038e-07
1.20388e-07
1.20388e-07
1.20397e-07
1.20397e-07
1.20406e-07
1.20406e-07
1.20416e-07
1.20416e-07
1.20427e-07
1.20427e-07
1.20427e-07
1.20427e-07
1.20425e-07
1.20422e-07
1.20426e-07
1.20426e-07
1.20428e-07
1.20428e-07
1.20425e-07
1.20421e-07
1.2043e-07
1.2043e-07
1.20428e-07
1.20425e-07
1.20429e-07
1.20429e-07
1.20434e-07
1.20434e-07
1.20435e-07
1.20432e-07
1.20426e-07
1.20426e-07
1.20426e-07
1.20434e-07
1.20435e-07
1.20441e-07
1.20442e-07
1.2044e-07
1.20437e-07
1.20449e-07
1.20449e-07
1.20447e-07
1.20444e-07
1.20446e-07
1.20447e-07
1.20462e-07
1.20462e-07
1.20463e-07
1.20463e-07
1.20456e-07
1.20449e-07
1.20454e-07
1.20455e-07
1.20465e-07
1.20465e-07
1.20468e-07
1.20468e-07
1.20486e-07
1.20487e-07
1.20499e-07
1.20516e-07
1.20535e-07
1.20517e-07
1.20552e-07
1.20603e-07
1.20682e-07
1.20704e-07
1.21099e-07
1.21163e-07
1.53612e-07
1.41168e-09
1.21996e-07
1.20714e-07
1.2038e-07
1.20274e-07
1.20226e-07
1.20205e-07
1.2019e-07
1.20183e-07
1.20175e-07
1.20172e-07
1.20164e-07
1.20165e-07
1.20163e-07
1.20169e-07
1.20169e-07
1.2017e-07
1.2017e-07
1.20174e-07
1.20174e-07
1.20179e-07
1.20179e-07
1.20186e-07
1.20186e-07
1.20194e-07
1.20194e-07
1.20203e-07
1.20202e-07
1.20212e-07
1.20212e-07
1.20222e-07
1.20222e-07
1.20233e-07
1.20233e-07
1.20244e-07
1.20244e-07
1.20245e-07
1.20244e-07
1.20243e-07
1.20239e-07
1.20244e-07
1.20244e-07
1.20245e-07
1.20245e-07
1.20243e-07
1.20238e-07
1.20247e-07
1.20247e-07
1.20245e-07
1.20242e-07
1.20246e-07
1.20246e-07