/*--------------------------------*- C++ -*----------------------------------*\
| =========                 |                                                 |
| \\      /  F ield         | OpenFOAM: The Open Source CFD Toolbox           |
|  \\    /   O peration     | Version:  v2012                                 |
|   \\  /    A nd           | Website:  www.openfoam.com                      |
|    \\/     M anipulation  |                                                 |
\*---------------------------------------------------------------------------*/
FoamFile
{
    version     2.0;
    format      ascii;
    class       volScalarField;
    location    "2";
    object      yPlus;
}
// * * * * * * * * * * * * * * * * * * * * * * * * * * * * * * * * * * * * * //

dimensions      [0 0 0 0 0 0 0];


internalField   uniform 0;

boundaryField
{
    inlet
    {
        type            calculated;
        value           uniform 0;
    }
    outlet
    {
        type            calculated;
        value           uniform 0;
    }
    topWall
    {
        type            calculated;
        value           nonuniform List<scalar> 
545
(
0.0285695
0.0501551
0.0641091
0.0751218
0.0844166
0.0925312
0.0997596
0.106289
0.112243
0.117715
0.122771
0.127466
0.131841
0.135933
0.139768
0.143372
0.146763
0.149963
0.152983
0.15584
0.158544
0.161108
0.163539
0.165848
0.168042
0.170128
0.172113
0.174003
0.175804
0.177519
0.179157
0.180717
0.182208
0.183629
0.184989
0.186286
0.187528
0.188713
0.189848
0.190932
0.191971
0.192963
0.193915
0.194824
0.195697
0.196531
0.19733
0.198096
0.19883
0.199533
0.200207
0.200853
0.201471
0.202065
0.202633
0.203179
0.2037
0.204202
0.204682
0.205143
0.205583
0.206008
0.206412
0.206802
0.207174
0.207532
0.207873
0.208202
0.208515
0.208817
0.209105
0.209382
0.20964
0.209889
0.210133
0.210374
0.210611
0.210845
0.211075
0.211302
0.211525
0.211745
0.211961
0.212174
0.212384
0.21259
0.212793
0.212993
0.21319
0.213384
0.213575
0.213762
0.213947
0.214129
0.214307
0.214486
0.21463
0.214756
0.214881
0.215005
0.215129
0.215252
0.215374
0.215495
0.215616
0.215736
0.215855
0.215974
0.216092
0.216209
0.216325
0.216441
0.216556
0.21667
0.216783
0.216896
0.217008
0.217119
0.217229
0.217339
0.217447
0.217556
0.217663
0.21777
0.217876
0.217982
0.218085
0.21819
0.218293
0.218396
0.218497
0.218598
0.218698
0.218798
0.218896
0.218995
0.219091
0.219188
0.219282
0.219376
0.219469
0.219561
0.219651
0.21974
0.219827
0.219914
0.219998
0.220081
0.220162
0.220242
0.22032
0.220396
0.22047
0.220543
0.220614
0.220684
0.220751
0.220818
0.220882
0.220945
0.221005
0.221065
0.221123
0.22118
0.221234
0.221288
0.22134
0.221391
0.221441
0.221489
0.221536
0.221582
0.221628
0.221671
0.221714
0.221756
0.221797
0.221836
0.221875
0.221912
0.221949
0.221985
0.222019
0.222053
0.222086
0.222118
0.222149
0.222179
0.222208
0.222236
0.222263
0.22229
0.222315
0.22234
0.222363
0.222386
0.222408
0.222429
0.222449
0.222468
0.222486
0.222503
0.222518
0.222533
0.222547
0.22256
0.222571
0.222582
0.222591
0.222599
0.222606
0.222613
0.222618
0.222621
0.222624
0.222625
0.222626
0.222624
0.222622
0.222617
0.222612
0.222605
0.222598
0.222588
0.222578
0.222566
0.222552
0.222538
0.222521
0.222504
0.222485
0.222465
0.222443
0.22242
0.222396
0.22237
0.222343
0.222314
0.222284
0.222253
0.222219
0.222185
0.222149
0.222112
0.222073
0.222033
0.221991
0.221948
0.221903
0.221857
0.221809
0.22176
0.221709
0.221656
0.221603
0.221546
0.221488
0.221427
0.221365
0.221302
0.221238
0.221173
0.221106
0.221037
0.220967
0.220896
0.220823
0.220747
0.220671
0.220591
0.22051
0.220427
0.220343
0.220258
0.220172
0.220085
0.219996
0.219905
0.219813
0.219719
0.219624
0.219527
0.219427
0.219326
0.219224
0.219119
0.219012
0.218902
0.218789
0.218674
0.218559
0.218441
0.218321
0.218198
0.218074
0.217947
0.217816
0.217683
0.217547
0.217408
0.217268
0.217125
0.216979
0.216831
0.216678
0.216523
0.216365
0.216201
0.216036
0.215865
0.215692
0.215516
0.215338
0.215156
0.214971
0.21478
0.214587
0.214387
0.214183
0.213975
0.213764
0.213549
0.213329
0.213104
0.212875
0.212642
0.212403
0.212158
0.211909
0.211657
0.211398
0.211136
0.210868
0.210596
0.210316
0.210031
0.209741
0.209443
0.20914
0.20883
0.208518
0.208197
0.207872
0.20754
0.207203
0.206861
0.206512
0.206153
0.20579
0.205421
0.205044
0.20466
0.204266
0.203865
0.203457
0.203044
0.20262
0.202193
0.201755
0.201311
0.200856
0.200395
0.199927
0.199447
0.198958
0.198464
0.197962
0.19745
0.196932
0.196402
0.195864
0.195318
0.194763
0.194194
0.193619
0.193036
0.192447
0.191845
0.191235
0.190619
0.189987
0.18935
0.188699
0.188038
0.187366
0.186686
0.185996
0.185295
0.184586
0.183863
0.183132
0.182386
0.181635
0.180874
0.180104
0.179323
0.178532
0.177731
0.176922
0.176098
0.175264
0.174419
0.173563
0.172699
0.17183
0.170944
0.170051
0.169154
0.168237
0.167317
0.166383
0.165438
0.164485
0.163521
0.162549
0.161567
0.160578
0.159576
0.158572
0.157552
0.15653
0.155497
0.154452
0.1534
0.15234
0.151268
0.150188
0.149101
0.148008
0.146908
0.145802
0.144688
0.143568
0.142443
0.14131
0.140172
0.139026
0.137876
0.136718
0.135562
0.134397
0.133232
0.132061
0.130887
0.129708
0.128524
0.127336
0.126147
0.124955
0.123764
0.122432
0.120991
0.119572
0.118172
0.116792
0.115428
0.114085
0.112759
0.111451
0.110164
0.108896
0.107648
0.106418
0.105209
0.104018
0.102847
0.101695
0.100561
0.0994475
0.0983487
0.0972715
0.0962132
0.0951757
0.0941542
0.0931557
0.0921708
0.0912061
0.0902577
0.08933
0.0884155
0.0875222
0.0866458
0.0857834
0.0849403
0.0841137
0.0833045
0.0825132
0.0817371
0.0809769
0.0802339
0.0795053
0.0787932
0.0780965
0.0774156
0.0767501
0.0761009
0.0754678
0.0748498
0.0742464
0.0736589
0.0730869
0.072529
0.0719853
0.0714553
0.0709394
0.0704374
0.0699492
0.0694746
0.0690138
0.0685661
0.0681321
0.0677108
0.067303
0.0669077
0.0665256
0.066156
0.0657989
0.0654544
0.0651221
0.0648019
0.0644941
0.064198
0.0639143
0.0636414
0.0633813
0.0631322
0.0628952
0.0626698
0.0624561
0.0622539
0.062063
0.0618837
0.0617156
0.0615591
0.0614137
0.0612797
0.061157
0.0610456
0.0609452
0.0608556
0.0607766
0.0607083
0.0606483
0.0606061
0.0605469
)
;
    }
    bottomWall
    {
        type            calculated;
        value           nonuniform List<scalar> 
449
(
0.00223947
0.00483232
0.00497922
0.00479308
0.00455213
0.00440032
0.0042927
0.00421986
0.00417481
0.00415225
0.0041296
0.00411306
0.00409517
0.00408328
0.00408114
0.00408002
0.00407621
0.00407534
0.0040736
0.00406732
0.00406541
0.00406311
0.00406199
0.00405806
0.00405565
0.00405409
0.00405562
0.00405392
0.00405422
0.00405067
0.00404886
0.00405014
0.00405528
0.00405563
0.00405259
0.00405308
0.00405501
0.00405298
0.00404962
0.00405102
0.00405385
0.0040531
0.00404969
0.00405175
0.00405538
0.0040556
0.00405961
0.00405728
0.00405213
0.00405309
0.00405767
0.00405664
0.00405262
0.00405269
0.00405826
0.00405854
0.00405482
0.00404837
0.00404924
0.00405151
0.00405179
0.00405474
0.0040531
0.00405156
0.00405035
0.00404871
0.00404855
0.00405211
0.00405414
0.00405287
0.00405026
0.00405221
0.00405345
0.0040535
0.00405361
0.00405347
0.00405665
0.0040549
0.00405012
0.00404992
0.00405344
0.00405762
0.00405754
0.00405365
0.00404998
0.00404907
0.00405427
0.0040573
0.00405471
0.00405393
0.00405342
0.00405578
0.00405335
0.00404781
0.00404869
0.00405235
0.0040567
0.0040556
0.00405304
0.00405697
0.00405753
0.00405548
0.00405516
0.00405398
0.0040517
0.00404908
0.004052
0.00405599
0.00405616
0.0040568
0.00405583
0.00405663
0.00405696
0.00405292
0.00405021
0.00405288
0.00405278
0.00404919
0.00404832
0.00405334
0.00405153
0.0040502
0.00405435
0.00405464
0.00405722
0.00405841
0.00405584
0.00405373
0.00405599
0.0040588
0.00405854
0.00405758
0.00405637
0.00405911
0.00405815
0.00405547
0.00405528
0.00405485
0.00405581
0.00405243
0.0040502
0.00405454
0.00405493
0.00405669
0.00405536
0.00405596
0.00405455
0.00405077
0.00405108
0.00405279
0.00405689
0.00406031
0.00405714
0.00405539
0.00405868
0.00405806
0.00405511
0.0040554
0.00405349
0.00405447
0.00405519
0.00405767
0.00405486
0.00405387
0.00405672
0.00405515
0.00405496
0.00405623
0.00405683
0.00405491
0.00405229
0.00405392
0.00405827
0.00405686
0.00405517
0.00405627
0.00405781
0.00405752
0.00405887
0.00405699
0.00405483
0.00405652
0.00405724
0.00405347
0.00405226
0.00405492
0.00405902
0.00405857
0.00405999
0.00405483
0.00405224
0.00405344
0.00405528
0.00405412
0.00405331
0.00405382
0.00405661
0.00405601
0.00405828
0.00406054
0.0040578
0.00405814
0.00405681
0.00405402
0.0040563
0.00405954
0.00406139
0.00405942
0.00405802
0.00405682
0.00405478
0.0040558
0.00405719
0.00405638
0.00405933
0.00405974
0.00405922
0.00406066
0.00406051
0.00405793
0.00405917
0.00406072
0.00405947
0.00405933
0.00405846
0.00405699
0.00405426
0.00405492
0.0040543
0.00405645
0.00405668
0.00405696
0.0040601
0.00405958
0.00405946
0.00405935
0.00405765
0.00405513
0.00405728
0.00405677
0.00405754
0.0040591
0.00405695
0.00405775
0.00405451
0.00405453
0.00405747
0.00405449
0.00405381
0.00405896
0.00405746
0.00405688
0.00405629
0.00405638
0.00405841
0.00405562
0.00405525
0.0040589
0.00405976
0.0040593
0.00405668
0.00405694
0.00405817
0.00405796
0.00405763
0.00405829
0.00405761
0.00405748
0.00405749
0.00405758
0.00405769
0.00405699
0.00405623
0.00405664
0.0040578
0.00405791
0.00405719
0.00405737
0.00405634
0.00405725
0.00405838
0.00405829
0.00405687
0.00405521
0.00405571
0.00405647
0.00405699
0.00405675
0.00405825
0.00405612
0.00405599
0.00405834
0.00405921
0.00405903
0.00405916
0.00405917
0.00405903
0.00405901
0.00405834
0.00405779
0.00405819
0.00405774
0.00405719
0.00405747
0.00405705
0.00405668
0.00405729
0.00405715
0.0040574
0.00405724
0.00405718
0.00405673
0.00405652
0.00405654
0.00405453
0.00405531
0.00405806
0.00405635
0.00405691
0.00405825
0.00405785
0.00405778
0.00405731
0.00405699
0.00405613
0.00405663
0.00405668
0.00405704
0.0040566
0.00405693
0.00405755
0.00405752
0.00405597
0.00405565
0.00405673
0.00405618
0.0040565
0.00405565
0.00405627
0.00405706
0.00405713
0.0040573
0.00405675
0.00405725
0.00405667
0.00405612
0.00405703
0.00405703
0.00405648
0.00405645
0.00405686
0.00405592
0.00405625
0.00405709
0.00405609
0.00405619
0.00405646
0.00405585
0.00405639
0.00405744
0.00405738
0.00405731
0.00405695
0.00405623
0.00405607
0.00405624
0.00405554
0.00405576
0.0040563
0.0040556
0.004056
0.00405564
0.00405552
0.00405644
0.00405569
0.00405593
0.00405627
0.00405627
0.00405558
0.00405582
0.00405605
0.00405567
0.00405615
0.00405634
0.00405638
0.00405615
0.00405612
0.0040564
0.00405581
0.00405598
0.00405643
0.00405609
0.00405631
0.00405601
0.00405614
0.00405557
0.00405597
0.00405628
0.00405636
0.0040567
0.00405638
0.00405624
0.00405644
0.00405574
0.00405596
0.00405592
0.00405593
0.00405597
0.00405606
0.00405641
0.00405599
0.00405616
0.00405635
0.00405641
0.0040566
0.00405644
0.00405641
0.00405679
0.00405648
0.00405573
0.00405618
0.00405678
0.00405579
0.00405587
0.00405589
0.00405598
0.00405634
0.00405623
0.00405626
0.00405646
0.00405594
0.00405601
0.00405617
0.00405601
0.00405605
0.00405588
0.00405626
0.00405602
0.00405621
0.0040565
0.00405633
0.00405644
0.00405627
0.00405649
0.00405628
0.00405629
0.0040564
0.00405644
0.00405656
)
;
    }
    symmetry
    {
        type            symmetryPlane;
    }
    frontAndBack
    {
        type            empty;
    }
}


// ************************************************************************* //
