/*--------------------------------*- C++ -*----------------------------------*\
| =========                 |                                                 |
| \\      /  F ield         | OpenFOAM: The Open Source CFD Toolbox           |
|  \\    /   O peration     | Version:  v2012                                 |
|   \\  /    A nd           | Website:  www.openfoam.com                      |
|    \\/     M anipulation  |                                                 |
\*---------------------------------------------------------------------------*/
FoamFile
{
    version     2.0;
    format      ascii;
    class       volScalarField;
    location    "52.5";
    object      epsilon;
}
// * * * * * * * * * * * * * * * * * * * * * * * * * * * * * * * * * * * * * //

dimensions      [0 2 -3 0 0 0 0];


internalField   nonuniform List<scalar> 
209825
(
0.759651
0.633793
0.54278
0.478085
0.431806
0.398062
0.372798
0.353441
0.338232
0.326079
0.316157
0.307974
0.301089
0.295276
0.290263
0.285956
0.282168
0.27887
0.27592
0.273328
0.270974
0.268892
0.266976
0.265274
0.263689
0.262279
0.260949
0.259766
0.258638
0.257638
0.256671
0.255817
0.254983
0.254251
0.253526
0.252894
0.252262
0.251716
0.25116
0.250686
0.250196
0.249781
0.249349
0.248989
0.248607
0.24829
0.247952
0.247676
0.247377
0.247128
0.246871
0.246651
0.246422
0.246224
0.246018
0.245863
0.245673
0.245528
0.245375
0.245234
0.245107
0.244992
0.244886
0.244786
0.244698
0.244617
0.244531
0.244485
0.244418
0.244383
0.24432
0.244293
0.244244
0.244226
0.24419
0.244184
0.244168
0.244181
0.244178
0.24421
0.24421
0.244263
0.244268
0.244335
0.244356
0.244437
0.244473
0.244576
0.244624
0.244761
0.244815
0.24502
0.2451
0.248003
2.9431
553.302
0.759651
0.633793
0.54278
0.478082
0.431802
0.398056
0.372791
0.353433
0.338222
0.326069
0.316146
0.307962
0.301077
0.295263
0.29025
0.285942
0.282154
0.278856
0.275906
0.273313
0.270959
0.268877
0.266961
0.265259
0.263674
0.262263
0.260934
0.25975
0.258622
0.257622
0.256655
0.255802
0.254967
0.254235
0.25351
0.252878
0.252246
0.2517
0.251144
0.25067
0.250179
0.249764
0.249332
0.248973
0.248591
0.248273
0.247935
0.24766
0.24736
0.247111
0.246854
0.246634
0.246405
0.246207
0.246001
0.245846
0.245656
0.245511
0.245358
0.245217
0.24509
0.244975
0.244869
0.244769
0.244681
0.2446
0.244514
0.244468
0.244401
0.244366
0.244303
0.244275
0.244227
0.244209
0.244173
0.244167
0.244151
0.244163
0.244161
0.244193
0.244193
0.244246
0.244251
0.244317
0.244338
0.244419
0.244455
0.244558
0.244606
0.244744
0.244797
0.245003
0.245083
0.24799
2.94857
549.999
0.759652
0.633794
0.542776
0.478071
0.431782
0.39803
0.372758
0.353395
0.33818
0.326023
0.316098
0.307912
0.301024
0.295208
0.290194
0.285885
0.282095
0.278796
0.275845
0.273252
0.270897
0.268815
0.266898
0.265195
0.263609
0.262199
0.260868
0.259685
0.258556
0.257556
0.256589
0.255735
0.254899
0.254168
0.253443
0.25281
0.252178
0.251632
0.251076
0.250601
0.25011
0.249695
0.249263
0.248903
0.248521
0.248203
0.247865
0.24759
0.24729
0.247041
0.246784
0.246564
0.246334
0.246137
0.245931
0.245776
0.245585
0.24544
0.245287
0.245146
0.245019
0.244904
0.244798
0.244698
0.24461
0.244528
0.244442
0.244396
0.244329
0.244294
0.244231
0.244203
0.244155
0.244137
0.2441
0.244094
0.244078
0.244091
0.244088
0.24412
0.24412
0.244173
0.244178
0.244244
0.244265
0.244346
0.244382
0.244484
0.244532
0.24467
0.244723
0.244929
0.245009
0.247925
2.96043
546.088
0.759654
0.633796
0.542769
0.478051
0.431749
0.397985
0.372703
0.353331
0.338109
0.325947
0.316016
0.307826
0.300935
0.295116
0.2901
0.285788
0.281997
0.278696
0.275743
0.273148
0.270793
0.268709
0.266791
0.265088
0.263501
0.262089
0.260758
0.259574
0.258445
0.257444
0.256476
0.255622
0.254786
0.254054
0.253328
0.252696
0.252063
0.251517
0.25096
0.250485
0.249994
0.249579
0.249146
0.248786
0.248404
0.248086
0.247747
0.247472
0.247172
0.246923
0.246665
0.246445
0.246215
0.246018
0.245811
0.245656
0.245465
0.24532
0.245167
0.245026
0.244899
0.244784
0.244677
0.244577
0.244489
0.244408
0.244321
0.244275
0.244208
0.244173
0.24411
0.244082
0.244033
0.244015
0.243978
0.243972
0.243956
0.243968
0.243965
0.243997
0.243997
0.24405
0.244054
0.24412
0.244141
0.244222
0.244258
0.24436
0.244408
0.244545
0.244598
0.244803
0.244883
0.247814
2.97908
542.346
0.759656
0.633798
0.542759
0.478024
0.431703
0.397921
0.372625
0.353241
0.33801
0.325839
0.315901
0.307705
0.30081
0.294987
0.289966
0.285651
0.281857
0.278554
0.275599
0.273002
0.270645
0.26856
0.26664
0.264936
0.263348
0.261935
0.260603
0.259418
0.258288
0.257286
0.256318
0.255462
0.254626
0.253893
0.253167
0.252534
0.2519
0.251354
0.250797
0.250321
0.24983
0.249414
0.248981
0.248621
0.248238
0.24792
0.247581
0.247305
0.247005
0.246756
0.246498
0.246277
0.246047
0.245849
0.245643
0.245487
0.245297
0.245151
0.244997
0.244857
0.244729
0.244614
0.244507
0.244407
0.244318
0.244237
0.24415
0.244104
0.244036
0.244001
0.243938
0.24391
0.243861
0.243843
0.243806
0.2438
0.243783
0.243795
0.243792
0.243823
0.243823
0.243876
0.24388
0.243946
0.243966
0.244047
0.244082
0.244184
0.244232
0.244369
0.244422
0.244626
0.244706
0.247656
3.005
539.12
0.759659
0.6338
0.542747
0.477988
0.431642
0.397839
0.372524
0.353125
0.33788
0.325699
0.315752
0.307549
0.300647
0.294818
0.289793
0.285474
0.281676
0.27837
0.275412
0.272813
0.270453
0.268366
0.266445
0.264739
0.263149
0.261735
0.260402
0.259215
0.258084
0.257081
0.256112
0.255256
0.254419
0.253685
0.252958
0.252324
0.25169
0.251143
0.250585
0.250109
0.249617
0.249201
0.248767
0.248407
0.248023
0.247705
0.247365
0.247089
0.246789
0.246539
0.246281
0.24606
0.245829
0.245631
0.245424
0.245269
0.245077
0.244932
0.244778
0.244637
0.244509
0.244393
0.244286
0.244186
0.244097
0.244016
0.243929
0.243882
0.243814
0.243779
0.243716
0.243687
0.243638
0.24362
0.243583
0.243576
0.243559
0.24357
0.243567
0.243598
0.243598
0.24365
0.243654
0.243719
0.24374
0.24382
0.243855
0.243957
0.244004
0.24414
0.244193
0.244397
0.244477
0.247452
3.03872
536.577
0.759663
0.633804
0.542732
0.477944
0.431568
0.397738
0.3724
0.352981
0.337721
0.325526
0.315569
0.307356
0.300446
0.294611
0.28958
0.285256
0.281454
0.278143
0.275182
0.27258
0.270217
0.268128
0.266204
0.264496
0.262904
0.261488
0.260153
0.258966
0.257833
0.256829
0.255858
0.255001
0.254163
0.253428
0.2527
0.252066
0.251431
0.250882
0.250324
0.249847
0.249355
0.248938
0.248504
0.248143
0.247759
0.247439
0.2471
0.246823
0.246522
0.246272
0.246013
0.245792
0.245561
0.245363
0.245155
0.244999
0.244808
0.244662
0.244507
0.244366
0.244237
0.244122
0.244014
0.243914
0.243824
0.243743
0.243655
0.243609
0.24354
0.243505
0.243441
0.243412
0.243363
0.243345
0.243307
0.243301
0.243282
0.243294
0.24329
0.24332
0.24332
0.243371
0.243375
0.24344
0.24346
0.24354
0.243574
0.243676
0.243723
0.243859
0.243911
0.244114
0.244194
0.2472
3.08073
534.779
0.759667
0.633807
0.542713
0.477891
0.43148
0.397617
0.372252
0.35281
0.337531
0.325321
0.31535
0.307126
0.300207
0.294364
0.289326
0.284996
0.281188
0.277873
0.274908
0.272302
0.269936
0.267843
0.265917
0.264206
0.262612
0.261195
0.259858
0.258668
0.257534
0.256528
0.255556
0.254698
0.253858
0.253122
0.252393
0.251757
0.251121
0.250572
0.250013
0.249536
0.249042
0.248625
0.24819
0.247828
0.247443
0.247123
0.246783
0.246506
0.246204
0.245953
0.245694
0.245472
0.245241
0.245042
0.244834
0.244678
0.244486
0.24434
0.244185
0.244043
0.243914
0.243798
0.24369
0.243589
0.2435
0.243418
0.24333
0.243283
0.243214
0.243178
0.243114
0.243085
0.243036
0.243017
0.242979
0.242972
0.242953
0.242964
0.24296
0.242989
0.242989
0.24304
0.243043
0.243108
0.243127
0.243206
0.243241
0.243341
0.243388
0.243523
0.243575
0.243778
0.243857
0.246901
3.13158
533.72
0.759672
0.633812
0.542693
0.477831
0.431378
0.397477
0.37208
0.352612
0.33731
0.325082
0.315096
0.306859
0.299929
0.294076
0.28903
0.284694
0.28088
0.277559
0.274589
0.271979
0.269609
0.267513
0.265583
0.26387
0.262273
0.260853
0.259514
0.258322
0.257186
0.256179
0.255205
0.254345
0.253504
0.252767
0.252036
0.251399
0.250762
0.250212
0.249652
0.249173
0.248679
0.248261
0.247824
0.247462
0.247076
0.246756
0.246415
0.246137
0.245834
0.245583
0.245323
0.245101
0.244869
0.24467
0.244461
0.244304
0.244112
0.243965
0.24381
0.243668
0.243538
0.243422
0.243313
0.243212
0.243122
0.24304
0.242951
0.242904
0.242835
0.242798
0.242734
0.242705
0.242655
0.242636
0.242598
0.24259
0.242571
0.242581
0.242576
0.242604
0.242604
0.242654
0.242657
0.242721
0.24274
0.242818
0.242852
0.242952
0.242998
0.243133
0.243184
0.243386
0.243465
0.246553
3.19177
533.343
0.759677
0.633817
0.542669
0.477762
0.431262
0.397318
0.371884
0.352385
0.337059
0.324809
0.314806
0.306555
0.299612
0.293748
0.288693
0.284348
0.280527
0.277201
0.274225
0.27161
0.269236
0.267135
0.265202
0.263485
0.261886
0.260463
0.259121
0.257927
0.256789
0.255779
0.254804
0.253942
0.253099
0.25236
0.251628
0.25099
0.250352
0.2498
0.249239
0.248759
0.248264
0.247844
0.247407
0.247044
0.246657
0.246336
0.245994
0.245715
0.245412
0.24516
0.244899
0.244677
0.244444
0.244244
0.244035
0.243877
0.243685
0.243537
0.243381
0.243239
0.243109
0.242992
0.242883
0.242781
0.24269
0.242608
0.242519
0.242471
0.242401
0.242365
0.2423
0.24227
0.24222
0.2422
0.242162
0.242154
0.242133
0.242143
0.242138
0.242165
0.242164
0.242213
0.242216
0.242279
0.242298
0.242375
0.242409
0.242508
0.242553
0.242687
0.242737
0.242939
0.243018
0.246157
3.26179
533.557
0.759684
0.633823
0.542643
0.477685
0.431131
0.397139
0.371664
0.352131
0.336776
0.324503
0.31448
0.306212
0.299255
0.293379
0.288314
0.28396
0.280131
0.276797
0.273815
0.271194
0.268815
0.26671
0.264773
0.263052
0.261449
0.260023
0.258679
0.257482
0.256341
0.25533
0.254352
0.253488
0.252643
0.251903
0.251169
0.250529
0.249889
0.249336
0.248774
0.248293
0.247796
0.247376
0.246938
0.246573
0.246186
0.245863
0.24552
0.245241
0.244937
0.244684
0.244422
0.244199
0.243966
0.243765
0.243555
0.243397
0.243204
0.243056
0.242899
0.242756
0.242625
0.242508
0.242398
0.242296
0.242204
0.242122
0.242032
0.241984
0.241913
0.241876
0.241811
0.241781
0.24173
0.24171
0.241671
0.241663
0.241641
0.24165
0.241644
0.24167
0.241669
0.241717
0.241719
0.241782
0.2418
0.241877
0.241909
0.242008
0.242052
0.242185
0.242235
0.242435
0.242514
0.245712
3.34212
534.247
0.759691
0.63383
0.542614
0.4776
0.430987
0.396941
0.371419
0.351848
0.336462
0.324162
0.314117
0.30583
0.298858
0.292969
0.287892
0.283527
0.27969
0.276348
0.273359
0.270732
0.268347
0.266237
0.264296
0.262571
0.260964
0.259534
0.258186
0.256987
0.255843
0.254829
0.253849
0.252982
0.252136
0.251393
0.250658
0.250016
0.249375
0.24882
0.248256
0.247774
0.247276
0.246854
0.246415
0.246049
0.24566
0.245337
0.244993
0.244712
0.244408
0.244154
0.243891
0.243667
0.243433
0.243232
0.243021
0.242862
0.242668
0.242519
0.242362
0.242219
0.242087
0.241969
0.241859
0.241756
0.241664
0.241581
0.24149
0.241441
0.24137
0.241332
0.241267
0.241236
0.241185
0.241164
0.241125
0.241116
0.241093
0.241101
0.241094
0.241119
0.241118
0.241165
0.241167
0.241228
0.241245
0.241321
0.241353
0.241451
0.241495
0.241626
0.241675
0.241875
0.241954
0.245218
3.43318
535.286
0.759698
0.633838
0.542582
0.477507
0.430828
0.396723
0.371151
0.351537
0.336115
0.323787
0.313718
0.30541
0.29842
0.292516
0.287426
0.283051
0.279203
0.275853
0.272856
0.270222
0.267831
0.265716
0.263769
0.262039
0.260428
0.258995
0.257643
0.25644
0.255294
0.254277
0.253294
0.252425
0.251576
0.250832
0.250094
0.249451
0.248807
0.248251
0.247685
0.247201
0.246702
0.246279
0.245838
0.245471
0.245081
0.244757
0.244411
0.24413
0.243824
0.243569
0.243305
0.243081
0.242845
0.242644
0.242432
0.242272
0.242077
0.241928
0.24177
0.241626
0.241493
0.241375
0.241263
0.24116
0.241067
0.240984
0.240892
0.240842
0.240771
0.240732
0.240666
0.240635
0.240583
0.240562
0.240522
0.240513
0.240489
0.240495
0.240488
0.240512
0.24051
0.240555
0.240557
0.240618
0.240634
0.240709
0.24074
0.240836
0.24088
0.24101
0.241058
0.241256
0.241335
0.244673
3.53534
536.536
0.759707
0.633846
0.542548
0.477405
0.430655
0.396485
0.370857
0.351197
0.335737
0.323376
0.313281
0.304951
0.297942
0.292021
0.286917
0.282529
0.278671
0.275311
0.272306
0.269664
0.267266
0.265145
0.263192
0.261458
0.259842
0.258404
0.257049
0.255843
0.254693
0.253672
0.252687
0.251815
0.250964
0.250217
0.249477
0.248831
0.248186
0.247628
0.24706
0.246574
0.246073
0.245649
0.245206
0.244838
0.244447
0.244121
0.243775
0.243492
0.243185
0.242929
0.242664
0.242439
0.242202
0.242
0.241787
0.241626
0.24143
0.24128
0.241121
0.240977
0.240843
0.240724
0.240612
0.240508
0.240414
0.24033
0.240238
0.240187
0.240115
0.240076
0.240009
0.239977
0.239925
0.239903
0.239863
0.239852
0.239828
0.239833
0.239825
0.239847
0.239845
0.239889
0.23989
0.239949
0.239964
0.240039
0.240069
0.240164
0.240207
0.240335
0.240382
0.24058
0.240659
0.244079
3.64887
537.863
0.759715
0.633855
0.542512
0.477296
0.430469
0.396227
0.370539
0.350829
0.335327
0.322931
0.312806
0.304452
0.297422
0.291483
0.286364
0.281962
0.278092
0.274722
0.271708
0.269058
0.266653
0.264524
0.262566
0.260826
0.259205
0.257763
0.256403
0.255193
0.254039
0.253015
0.252026
0.251152
0.250298
0.249548
0.248806
0.248158
0.24751
0.24695
0.246381
0.245893
0.24539
0.244964
0.24452
0.24415
0.243758
0.243431
0.243083
0.242799
0.24249
0.242233
0.241967
0.241741
0.241503
0.2413
0.241085
0.240924
0.240728
0.240576
0.240416
0.240271
0.240136
0.240017
0.239903
0.239799
0.239704
0.23962
0.239526
0.239475
0.239402
0.239362
0.239295
0.239262
0.239209
0.239187
0.239146
0.239135
0.239109
0.239113
0.239103
0.239124
0.239122
0.239164
0.239164
0.239223
0.239237
0.23931
0.239339
0.239433
0.239475
0.239602
0.239648
0.239844
0.239923
0.243434
3.77397
539.136
0.759725
0.633865
0.542473
0.477179
0.430268
0.39595
0.370197
0.350431
0.334884
0.322451
0.312294
0.303913
0.29686
0.290902
0.285766
0.28135
0.277467
0.274085
0.271061
0.268402
0.265989
0.263854
0.261889
0.260143
0.258517
0.257069
0.255705
0.25449
0.253333
0.252305
0.251313
0.250436
0.249578
0.248826
0.248081
0.247431
0.24678
0.246218
0.245646
0.245157
0.244652
0.244224
0.243778
0.243407
0.243013
0.242684
0.242335
0.242049
0.241739
0.241481
0.241214
0.240986
0.240747
0.240543
0.240327
0.240165
0.239968
0.239815
0.239654
0.239509
0.239373
0.239252
0.239138
0.239033
0.238936
0.238852
0.238757
0.238705
0.238631
0.238591
0.238522
0.238489
0.238435
0.238413
0.238371
0.238359
0.238332
0.238334
0.238324
0.238343
0.23834
0.23838
0.23838
0.238437
0.23845
0.238522
0.23855
0.238643
0.238684
0.238809
0.238854
0.239049
0.239128
0.242738
3.91068
540.234
0.759735
0.633876
0.542432
0.477054
0.430053
0.395653
0.369829
0.350005
0.334409
0.321935
0.311744
0.303334
0.296257
0.290278
0.285124
0.280692
0.276795
0.273401
0.270367
0.267698
0.265276
0.263133
0.261161
0.259408
0.257776
0.256323
0.254954
0.253735
0.252573
0.251542
0.250546
0.249665
0.248804
0.248049
0.247301
0.246648
0.245995
0.245431
0.244856
0.244365
0.243858
0.243428
0.24298
0.242607
0.242211
0.241881
0.24153
0.241243
0.240932
0.240673
0.240404
0.240175
0.239934
0.239729
0.239512
0.239349
0.23915
0.238997
0.238835
0.238688
0.238551
0.23843
0.238314
0.238209
0.238111
0.238026
0.23793
0.237877
0.237802
0.237761
0.237692
0.237658
0.237603
0.23758
0.237537
0.237524
0.237496
0.237497
0.237485
0.237503
0.237499
0.237537
0.237537
0.237593
0.237605
0.237675
0.237702
0.237793
0.237833
0.237957
0.238001
0.238194
0.238274
0.241989
4.05892
541.049
0.759745
0.633888
0.542389
0.476921
0.429825
0.395337
0.369438
0.34955
0.333901
0.321383
0.311156
0.302715
0.295612
0.28961
0.284436
0.279988
0.276076
0.272669
0.269623
0.266944
0.264513
0.262361
0.260381
0.258622
0.256983
0.255525
0.25415
0.252926
0.25176
0.250724
0.249724
0.24884
0.247975
0.247217
0.246466
0.24581
0.245154
0.244587
0.244011
0.243517
0.243008
0.242576
0.242126
0.241751
0.241353
0.241021
0.240668
0.24038
0.240067
0.239806
0.239536
0.239306
0.239064
0.238858
0.238639
0.238474
0.238275
0.238121
0.237957
0.23781
0.237671
0.23755
0.237432
0.237326
0.237227
0.237141
0.237044
0.23699
0.236914
0.236872
0.236802
0.236768
0.236712
0.236688
0.236644
0.23663
0.236601
0.236601
0.236588
0.236603
0.236599
0.236634
0.236634
0.236688
0.236699
0.236768
0.236794
0.236884
0.236922
0.237044
0.237087
0.237279
0.237358
0.241189
4.2184
541.485
0.759757
0.633901
0.542343
0.476781
0.429583
0.395001
0.369021
0.349066
0.333361
0.320796
0.31053
0.302055
0.294924
0.288898
0.283704
0.279237
0.27531
0.271889
0.26883
0.26614
0.263699
0.261538
0.25955
0.257783
0.256138
0.254673
0.253293
0.252064
0.250892
0.249852
0.248848
0.247959
0.247092
0.24633
0.245576
0.244917
0.244258
0.243688
0.243109
0.242613
0.242101
0.241667
0.241215
0.240838
0.240438
0.240104
0.239749
0.239459
0.239145
0.238883
0.23861
0.238379
0.238136
0.237929
0.237708
0.237542
0.237342
0.237186
0.237022
0.236873
0.236733
0.23661
0.236492
0.236385
0.236284
0.236198
0.2361
0.236045
0.235967
0.235924
0.235853
0.235818
0.235761
0.235736
0.235692
0.235677
0.235647
0.235645
0.23563
0.235644
0.235639
0.235672
0.235671
0.235723
0.235733
0.235801
0.235825
0.235913
0.235951
0.236071
0.236112
0.236302
0.236383
0.240335
4.38864
541.461
0.759768
0.633915
0.542296
0.476634
0.429328
0.394646
0.36858
0.348553
0.332788
0.320173
0.309865
0.301355
0.294194
0.288143
0.282926
0.27844
0.274496
0.271059
0.267987
0.265285
0.262834
0.260663
0.258667
0.256892
0.25524
0.253768
0.252382
0.251147
0.24997
0.248926
0.247917
0.247024
0.246152
0.245387
0.244629
0.243967
0.243305
0.242732
0.24215
0.241651
0.241137
0.240701
0.240246
0.239867
0.239465
0.23913
0.238773
0.238481
0.238165
0.237901
0.237627
0.237394
0.237149
0.236941
0.236719
0.236551
0.236349
0.236192
0.236027
0.235878
0.235736
0.235612
0.235492
0.235385
0.235282
0.235195
0.235096
0.235039
0.23496
0.234917
0.234845
0.234809
0.234751
0.234725
0.23468
0.234664
0.234633
0.234629
0.234613
0.234625
0.234618
0.234649
0.234648
0.234698
0.234706
0.234773
0.234796
0.234882
0.234918
0.235036
0.235076
0.235265
0.235346
0.239428
4.56891
540.915
0.75978
0.633929
0.542247
0.47648
0.429059
0.394272
0.368115
0.348011
0.332183
0.319515
0.309162
0.300615
0.293422
0.287343
0.282103
0.277596
0.273634
0.270181
0.267095
0.264381
0.261918
0.259737
0.257732
0.255948
0.254288
0.25281
0.251417
0.250176
0.248994
0.247944
0.24693
0.246033
0.245157
0.244388
0.243626
0.242961
0.242295
0.24172
0.241134
0.240633
0.240116
0.239677
0.23922
0.238839
0.238434
0.238097
0.237738
0.237444
0.237126
0.236861
0.236584
0.23635
0.236103
0.235894
0.23567
0.235501
0.235298
0.23514
0.234973
0.234823
0.234679
0.234555
0.234433
0.234325
0.234221
0.234133
0.234032
0.233974
0.233894
0.23385
0.233777
0.233739
0.233681
0.233654
0.233607
0.233591
0.233558
0.233553
0.233535
0.233545
0.233537
0.233565
0.233564
0.233612
0.233619
0.233683
0.233705
0.23379
0.233824
0.233941
0.233979
0.234166
0.234247
0.238466
4.75822
539.786
0.759793
0.633945
0.542196
0.476318
0.428778
0.393879
0.367626
0.347441
0.331546
0.318821
0.308421
0.299834
0.292607
0.286499
0.281234
0.276705
0.272724
0.269255
0.266154
0.263425
0.260951
0.258759
0.256744
0.254952
0.253284
0.251798
0.250398
0.249151
0.247963
0.246907
0.245889
0.244987
0.244106
0.243333
0.242567
0.241898
0.241229
0.24065
0.240062
0.239557
0.239038
0.238596
0.238137
0.237753
0.237346
0.237006
0.236645
0.236349
0.236029
0.235762
0.235484
0.235248
0.234999
0.234788
0.234563
0.234392
0.234188
0.234028
0.233859
0.233708
0.233563
0.233437
0.233314
0.233205
0.233099
0.233011
0.232908
0.23285
0.232768
0.232722
0.232648
0.23261
0.23255
0.232522
0.232475
0.232457
0.232423
0.232416
0.232396
0.232404
0.232395
0.232421
0.232419
0.232465
0.23247
0.232533
0.232553
0.232636
0.232669
0.232783
0.23282
0.233005
0.233087
0.237449
4.95527
538.036
0.759806
0.633962
0.542144
0.47615
0.428484
0.393468
0.367113
0.346843
0.330876
0.318091
0.307642
0.299012
0.29175
0.285611
0.280319
0.275767
0.271766
0.268279
0.265162
0.26242
0.259932
0.257729
0.255704
0.253902
0.252225
0.250731
0.249325
0.248071
0.246876
0.245815
0.244791
0.243884
0.242999
0.242221
0.241452
0.240778
0.240106
0.239523
0.238932
0.238424
0.237902
0.237457
0.236995
0.236608
0.236199
0.235857
0.235494
0.235195
0.234873
0.234604
0.234324
0.234086
0.233836
0.233624
0.233396
0.233224
0.233018
0.232857
0.232686
0.232534
0.232388
0.23226
0.232136
0.232025
0.231918
0.231829
0.231724
0.231664
0.231581
0.231534
0.231459
0.23142
0.231359
0.23133
0.231281
0.231262
0.231227
0.231219
0.231197
0.231203
0.231192
0.231215
0.231212
0.231256
0.23126
0.231321
0.231339
0.23142
0.231452
0.231563
0.231599
0.231782
0.231865
0.236375
5.15845
535.632
0.75982
0.63398
0.54209
0.475976
0.428177
0.393038
0.366577
0.346216
0.330174
0.317327
0.306824
0.29815
0.29085
0.284678
0.279359
0.274782
0.27076
0.267254
0.26412
0.261363
0.258862
0.256647
0.254611
0.252799
0.251113
0.249611
0.248197
0.246936
0.245735
0.244668
0.243638
0.242726
0.241836
0.241053
0.240279
0.239602
0.238925
0.238339
0.237744
0.237233
0.236708
0.23626
0.235795
0.235406
0.234994
0.23465
0.234283
0.233983
0.233659
0.233388
0.233105
0.232866
0.232613
0.2324
0.23217
0.231996
0.231789
0.231626
0.231454
0.2313
0.231152
0.231023
0.230897
0.230785
0.230676
0.230586
0.23048
0.230419
0.230334
0.230286
0.230209
0.230169
0.230107
0.230077
0.230027
0.230007
0.22997
0.229961
0.229936
0.22994
0.229928
0.229949
0.229945
0.229985
0.229989
0.230047
0.230064
0.230142
0.230173
0.230282
0.230315
0.230496
0.230581
0.235244
5.3658
532.552
0.759833
0.633998
0.542035
0.475796
0.427859
0.39259
0.366017
0.345562
0.329441
0.316527
0.305969
0.297248
0.289908
0.283702
0.278353
0.27375
0.269705
0.26618
0.263029
0.260256
0.257741
0.255513
0.253465
0.251643
0.249948
0.248437
0.247014
0.245746
0.244538
0.243465
0.242429
0.241511
0.240616
0.239828
0.23905
0.238368
0.237688
0.237098
0.236499
0.235985
0.235456
0.235005
0.234537
0.234145
0.23373
0.233383
0.233015
0.232712
0.232385
0.232112
0.231827
0.231586
0.231331
0.231116
0.230884
0.230708
0.230499
0.230335
0.230161
0.230007
0.229856
0.229726
0.229598
0.229485
0.229374
0.229283
0.229175
0.229113
0.229026
0.228977
0.228899
0.228858
0.228794
0.228763
0.228712
0.22869
0.228652
0.228641
0.228615
0.228617
0.228603
0.228621
0.228615
0.228653
0.228655
0.228712
0.228727
0.228803
0.228832
0.228938
0.22897
0.229149
0.229235
0.234054
5.57499
528.776
0.759848
0.634018
0.541979
0.475609
0.427528
0.392125
0.365435
0.34488
0.328676
0.315692
0.305076
0.296306
0.288924
0.282682
0.277302
0.272672
0.268603
0.265057
0.261887
0.259098
0.256568
0.254327
0.252267
0.250434
0.248729
0.247208
0.245778
0.244501
0.243286
0.242206
0.241164
0.240241
0.23934
0.238547
0.237764
0.237078
0.236393
0.235799
0.235196
0.234678
0.234146
0.233692
0.233221
0.232826
0.232408
0.232059
0.231687
0.231382
0.231053
0.230777
0.23049
0.230247
0.22999
0.229773
0.229539
0.229361
0.229151
0.228984
0.228809
0.228653
0.2285
0.228369
0.228239
0.228125
0.228011
0.22792
0.22781
0.227746
0.227657
0.227607
0.227528
0.227485
0.22742
0.227388
0.227335
0.227313
0.227273
0.22726
0.227233
0.227232
0.227216
0.227231
0.227225
0.22726
0.227261
0.227315
0.227328
0.227402
0.227428
0.227533
0.227562
0.227739
0.227826
0.232804
5.78335
524.285
0.759862
0.63404
0.541923
0.475417
0.427187
0.391642
0.364829
0.34417
0.327879
0.314823
0.304146
0.295324
0.287898
0.281618
0.276205
0.271547
0.267454
0.263885
0.260696
0.257889
0.255344
0.253089
0.251016
0.249171
0.247456
0.245926
0.244486
0.243202
0.241979
0.240892
0.239844
0.238914
0.238008
0.23721
0.236421
0.23573
0.235041
0.234443
0.233836
0.233314
0.232778
0.232321
0.231846
0.231448
0.231027
0.230675
0.230301
0.229993
0.229661
0.229383
0.229093
0.228848
0.228589
0.22837
0.228134
0.227954
0.227742
0.227574
0.227396
0.227239
0.227084
0.226952
0.226819
0.226705
0.226589
0.226496
0.226385
0.226319
0.226228
0.226177
0.226096
0.226052
0.225986
0.225953
0.225898
0.225874
0.225832
0.225819
0.225789
0.225786
0.225768
0.225781
0.225773
0.225804
0.225804
0.225855
0.225867
0.225938
0.225963
0.226065
0.226093
0.226267
0.226356
0.231493
5.9878
519.059
0.759877
0.634062
0.541865
0.47522
0.426834
0.391143
0.364202
0.343435
0.327053
0.31392
0.303179
0.294302
0.28683
0.28051
0.275064
0.270376
0.266256
0.262664
0.259455
0.25663
0.254069
0.251799
0.249713
0.247856
0.24613
0.24459
0.243141
0.241848
0.240617
0.239523
0.238467
0.237532
0.236619
0.235815
0.235022
0.234326
0.233632
0.233029
0.232418
0.231893
0.231353
0.230892
0.230414
0.230012
0.229588
0.229233
0.228856
0.228545
0.228211
0.227931
0.227638
0.227391
0.227129
0.226909
0.226669
0.226488
0.226274
0.226104
0.225924
0.225766
0.225609
0.225475
0.22534
0.225224
0.225106
0.225012
0.224899
0.224831
0.224739
0.224686
0.224604
0.224559
0.224491
0.224456
0.2244
0.224375
0.224331
0.224316
0.224285
0.22428
0.224259
0.224269
0.224259
0.224287
0.224286
0.224335
0.224344
0.224413
0.224436
0.224535
0.224561
0.224733
0.224823
0.230119
6.18497
513.072
0.759892
0.634085
0.541807
0.475018
0.426471
0.390628
0.363554
0.342673
0.326196
0.312983
0.302175
0.293242
0.285721
0.27936
0.273877
0.269158
0.265012
0.261396
0.258166
0.255321
0.252743
0.250457
0.248358
0.246488
0.24475
0.2432
0.241741
0.240439
0.239201
0.238098
0.237036
0.236094
0.235175
0.234365
0.233566
0.232865
0.232166
0.231559
0.230943
0.230414
0.229869
0.229406
0.228923
0.228518
0.228091
0.227733
0.227353
0.227039
0.226702
0.226419
0.226124
0.225875
0.22561
0.225388
0.225146
0.224962
0.224746
0.224574
0.224392
0.224233
0.224073
0.223938
0.223801
0.223683
0.223563
0.223468
0.223353
0.223284
0.223189
0.223135
0.223051
0.223005
0.222935
0.222899
0.222841
0.222815
0.222769
0.222752
0.222719
0.222712
0.222689
0.222696
0.222685
0.222709
0.222707
0.222753
0.22276
0.222827
0.222848
0.222943
0.222967
0.223137
0.223229
0.228681
6.37112
506.293
0.759908
0.63411
0.541748
0.474812
0.426098
0.390097
0.362884
0.341885
0.325309
0.312013
0.301135
0.292142
0.284571
0.278167
0.272647
0.267895
0.26372
0.260079
0.256827
0.253962
0.251366
0.249065
0.246951
0.245068
0.243318
0.241757
0.240288
0.238977
0.237729
0.236619
0.235549
0.2346
0.233674
0.232859
0.232054
0.231348
0.230643
0.230032
0.229411
0.228878
0.228329
0.227861
0.227375
0.226967
0.226536
0.226175
0.225791
0.225475
0.225135
0.22485
0.224551
0.224299
0.224032
0.223808
0.223564
0.223378
0.223159
0.222985
0.222801
0.22264
0.222478
0.222341
0.222202
0.222083
0.22196
0.221865
0.221747
0.221676
0.22158
0.221524
0.221438
0.22139
0.221319
0.221282
0.221222
0.221194
0.221147
0.221128
0.221093
0.221084
0.221059
0.221063
0.221049
0.22107
0.221067
0.221109
0.221115
0.221179
0.221198
0.22129
0.221312
0.221479
0.221573
0.227177
6.54226
498.682
0.759923
0.634135
0.541689
0.474601
0.425716
0.389551
0.362194
0.341072
0.324393
0.31101
0.30006
0.291005
0.283381
0.276932
0.271373
0.266587
0.262382
0.258715
0.255439
0.252554
0.24994
0.247621
0.245492
0.243596
0.241833
0.24026
0.238781
0.23746
0.236204
0.235085
0.234008
0.233051
0.232119
0.231297
0.230486
0.229774
0.229064
0.228448
0.227823
0.227284
0.226732
0.22626
0.22577
0.225358
0.224923
0.224559
0.224172
0.223853
0.223509
0.223221
0.22292
0.222666
0.222396
0.22217
0.221922
0.221734
0.221514
0.221338
0.221151
0.220988
0.220824
0.220686
0.220544
0.220424
0.220298
0.220201
0.220081
0.220009
0.21991
0.219853
0.219765
0.219716
0.219643
0.219605
0.219543
0.219514
0.219464
0.219444
0.219406
0.219395
0.219368
0.219369
0.219354
0.219371
0.219366
0.219405
0.219409
0.21947
0.219487
0.219576
0.219596
0.21976
0.219856
0.225606
6.69418
490.19
0.759939
0.634162
0.541631
0.474387
0.425325
0.38899
0.361484
0.340235
0.323449
0.309976
0.298949
0.28983
0.282152
0.275655
0.270055
0.265234
0.260998
0.257303
0.254004
0.251097
0.248463
0.246127
0.243983
0.242072
0.240297
0.238712
0.237221
0.23589
0.234625
0.233497
0.232412
0.231448
0.230508
0.22968
0.228863
0.228145
0.22743
0.226808
0.226178
0.225635
0.225078
0.224602
0.224108
0.223692
0.223254
0.222886
0.222495
0.222173
0.221826
0.221536
0.221231
0.220974
0.220701
0.220473
0.220223
0.220032
0.21981
0.219632
0.219443
0.219278
0.219111
0.218971
0.218827
0.218705
0.218577
0.218479
0.218357
0.218282
0.218181
0.218123
0.218033
0.217982
0.217908
0.217868
0.217804
0.217773
0.217721
0.2177
0.21766
0.217647
0.217618
0.217616
0.217598
0.217612
0.217605
0.21764
0.217643
0.2177
0.217715
0.217801
0.217819
0.217981
0.218078
0.223965
6.82252
480.761
0.759954
0.63419
0.541572
0.474169
0.424925
0.388416
0.360756
0.339374
0.322477
0.30891
0.297804
0.288618
0.280883
0.274336
0.268695
0.263837
0.259569
0.255845
0.252521
0.249591
0.246938
0.244584
0.242423
0.240497
0.238708
0.237111
0.235609
0.234268
0.232992
0.231856
0.230762
0.22979
0.228843
0.228008
0.227184
0.226461
0.22574
0.225112
0.224477
0.22393
0.223368
0.222888
0.222389
0.221969
0.221527
0.221156
0.220762
0.220436
0.220086
0.219793
0.219484
0.219225
0.218949
0.218719
0.218466
0.218273
0.218048
0.217867
0.217676
0.21751
0.21734
0.217198
0.217051
0.216928
0.216798
0.216698
0.216573
0.216497
0.216394
0.216333
0.216242
0.21619
0.216113
0.216072
0.216006
0.215973
0.21592
0.215896
0.215854
0.215839
0.215808
0.215803
0.215782
0.215793
0.215784
0.215816
0.215816
0.215871
0.215883
0.215966
0.215982
0.216141
0.216239
0.222253
6.92292
470.332
0.75997
0.634219
0.541514
0.473949
0.424518
0.387828
0.360009
0.33849
0.321478
0.307813
0.296626
0.28737
0.279575
0.272978
0.267293
0.262396
0.258095
0.254342
0.250991
0.248038
0.245363
0.242991
0.240813
0.238872
0.237069
0.235458
0.233945
0.232593
0.231307
0.230161
0.229059
0.228079
0.227125
0.226282
0.225452
0.224722
0.223995
0.223362
0.222721
0.222169
0.221602
0.221118
0.220614
0.220191
0.219744
0.21937
0.218972
0.218642
0.218289
0.217993
0.217681
0.21742
0.21714
0.216908
0.216652
0.216456
0.216228
0.216046
0.215852
0.215684
0.215511
0.215368
0.215218
0.215093
0.21496
0.214859
0.214732
0.214654
0.214548
0.214486
0.214392
0.214338
0.21426
0.214217
0.21415
0.214115
0.214059
0.214034
0.213989
0.213973
0.213939
0.213932
0.213908
0.213916
0.213905
0.213932
0.213931
0.213982
0.213992
0.214071
0.214085
0.214241
0.214341
0.220468
6.99106
458.837
0.759986
0.634249
0.541456
0.473726
0.424103
0.387228
0.359245
0.337584
0.320452
0.306687
0.295415
0.286086
0.27823
0.27158
0.265849
0.260912
0.256577
0.252793
0.249415
0.246438
0.243741