/*--------------------------------*- C++ -*----------------------------------*\
| =========                 |                                                 |
| \\      /  F ield         | OpenFOAM: The Open Source CFD Toolbox           |
|  \\    /   O peration     | Version:  v2012                                 |
|   \\  /    A nd           | Website:  www.openfoam.com                      |
|    \\/     M anipulation  |                                                 |
\*---------------------------------------------------------------------------*/
FoamFile
{
    version     2.0;
    format      ascii;
    class       volScalarField;
    location    "52.5";
    object      k;
}
// * * * * * * * * * * * * * * * * * * * * * * * * * * * * * * * * * * * * * //

dimensions      [0 2 -2 0 0 0 0];


internalField   nonuniform List<scalar> 
209825
(
0.00102394
0.000933094
0.000857181
0.000791804
0.000735005
0.000685939
0.000643709
0.000607528
0.000576414
0.00054965
0.000526419
0.000506243
0.000488506
0.000472946
0.000459094
0.000446833
0.000435788
0.000425943
0.000416976
0.000408942
0.00040155
0.000394903
0.000388727
0.000383163
0.000377942
0.000373236
0.000368776
0.000364762
0.000360918
0.000357468
0.000354129
0.000351146
0.000348225
0.00034563
0.000343059
0.00034079
0.000338515
0.000336526
0.000334502
0.000332752
0.000330944
0.000329398
0.000327777
0.000326406
0.000324947
0.00032373
0.000322412
0.00032133
0.000320137
0.000319172
0.000318088
0.000317228
0.000316242
0.000315473
0.000314574
0.000313888
0.000313067
0.000312454
0.000311703
0.000311156
0.00031047
0.000309977
0.000309353
0.000308909
0.000308341
0.000307938
0.000307421
0.000307058
0.000306586
0.000306259
0.000305827
0.000305533
0.000305144
0.000304885
0.000304519
0.000304272
0.000303918
0.000303682
0.00030334
0.000303114
0.000302784
0.00030257
0.000302254
0.000302054
0.000301754
0.000301569
0.000301282
0.000301121
0.000300842
0.000300709
0.000300437
0.000300327
0.000300043
0.000303134
0.0106836
0.0115511
0.00102394
0.000933094
0.000857181
0.000791804
0.000735006
0.00068594
0.00064371
0.000607528
0.000576414
0.000549649
0.000526417
0.000506241
0.000488504
0.000472943
0.00045909
0.000446829
0.000435784
0.000425938
0.000416971
0.000408937
0.000401544
0.000394897
0.000388721
0.000383156
0.000377935
0.000373229
0.000368768
0.000364755
0.000360911
0.00035746
0.000354121
0.000351137
0.000348217
0.000345621
0.00034305
0.000340782
0.000338506
0.000336517
0.000334493
0.000332742
0.000330935
0.000329388
0.000327767
0.000326396
0.000324937
0.000323721
0.000322403
0.000321321
0.000320127
0.000319162
0.000318078
0.000317218
0.000316232
0.000315463
0.000314564
0.000313878
0.000313057
0.000312444
0.000311692
0.000311145
0.00031046
0.000309967
0.000309343
0.000308898
0.00030833
0.000307927
0.000307411
0.000307047
0.000306575
0.000306248
0.000305816
0.000305522
0.000305133
0.000304874
0.000304508
0.000304261
0.000303907
0.000303671
0.000303329
0.000303103
0.000302773
0.000302558
0.000302243
0.000302042
0.000301742
0.000301558
0.000301271
0.00030111
0.000300831
0.000300697
0.000300425
0.000300315
0.000300032
0.000303127
0.0106959
0.0115641
0.00102394
0.000933093
0.000857182
0.000791806
0.000735009
0.000685942
0.000643711
0.000607528
0.000576411
0.000549644
0.000526409
0.000506231
0.000488491
0.000472928
0.000459074
0.000446811
0.000435763
0.000425916
0.000416947
0.000408912
0.000401518
0.00039487
0.000388693
0.000383127
0.000377905
0.000373197
0.000368736
0.000364722
0.000360877
0.000357426
0.000354086
0.000351102
0.000348181
0.000345585
0.000343013
0.000340744
0.000338468
0.000336478
0.000334454
0.000332703
0.000330895
0.000329348
0.000327727
0.000326356
0.000324896
0.000323679
0.000322361
0.000321279
0.000320085
0.00031912
0.000318036
0.000317175
0.000316189
0.00031542
0.000314521
0.000313834
0.000313013
0.0003124
0.000311648
0.000311101
0.000310416
0.000309922
0.000309298
0.000308853
0.000308285
0.000307882
0.000307365
0.000307002
0.00030653
0.000306203
0.00030577
0.000305476
0.000305087
0.000304828
0.000304462
0.000304215
0.000303861
0.000303625
0.000303282
0.000303056
0.000302726
0.000302512
0.000302196
0.000301995
0.000301695
0.000301511
0.000301223
0.000301062
0.000300783
0.000300649
0.000300377
0.000300268
0.000299984
0.000303088
0.0107256
0.0115932
0.00102394
0.000933093
0.000857183
0.00079181
0.000735014
0.000685947
0.000643713
0.000607526
0.000576406
0.000549635
0.000526396
0.000506213
0.00048847
0.000472903
0.000459045
0.000446779
0.000435729
0.000425879
0.000416908
0.00040887
0.000401474
0.000394824
0.000388645
0.000383077
0.000377854
0.000373145
0.000368682
0.000364666
0.000360821
0.000357368
0.000354027
0.000351042
0.00034812
0.000345523
0.000342951
0.000340681
0.000338404
0.000336414
0.000334389
0.000332637
0.000330828
0.000329281
0.000327659
0.000326288
0.000324827
0.00032361
0.000322291
0.000321209
0.000320014
0.000319049
0.000317965
0.000317103
0.000316116
0.000315347
0.000314448
0.000313761
0.000312939
0.000312326
0.000311574
0.000311027
0.000310341
0.000309847
0.000309223
0.000308778
0.000308209
0.000307806
0.000307289
0.000306926
0.000306453
0.000306126
0.000305693
0.000305399
0.00030501
0.00030475
0.000304384
0.000304137
0.000303783
0.000303546
0.000303204
0.000302977
0.000302647
0.000302433
0.000302117
0.000301916
0.000301616
0.000301431
0.000301143
0.000300982
0.000300703
0.000300569
0.000300297
0.000300187
0.000299903
0.000303021
0.0107728
0.0116389
0.00102394
0.000933092
0.000857185
0.000791815
0.000735021
0.000685953
0.000643716
0.000607525
0.000576398
0.000549621
0.000526377
0.000506188
0.000488439
0.000472867
0.000459005
0.000446734
0.00043568
0.000425826
0.000416852
0.000408811
0.000401412
0.000394758
0.000388577
0.000383007
0.000377781
0.00037307
0.000368606
0.000364588
0.000360741
0.000357287
0.000353944
0.000350958
0.000348034
0.000345436
0.000342862
0.000340591
0.000338314
0.000336322
0.000334297
0.000332544
0.000330734
0.000329186
0.000327563
0.000326191
0.00032473
0.000323512
0.000322193
0.000321109
0.000319914
0.000318949
0.000317864
0.000317002
0.000316014
0.000315245
0.000314345
0.000313658
0.000312835
0.000312222
0.00031147
0.000310921
0.000310235
0.000309741
0.000309117
0.000308671
0.000308102
0.000307699
0.000307182
0.000306818
0.000306345
0.000306017
0.000305584
0.00030529
0.000304901
0.000304641
0.000304275
0.000304027
0.000303673
0.000303436
0.000303093
0.000302866
0.000302536
0.000302321
0.000302005
0.000301804
0.000301504
0.000301319
0.000301031
0.000300869
0.00030059
0.000300456
0.000300183
0.000300073
0.000299789
0.000302926
0.0108385
0.0117023
0.00102394
0.000933091
0.000857187
0.000791822
0.000735029
0.00068596
0.00064372
0.000607522
0.000576389
0.000549604
0.000526352
0.000506155
0.0004884
0.000472821
0.000458953
0.000446676
0.000435617
0.000425758
0.000416779
0.000408734
0.000401331
0.000394674
0.000388489
0.000382916
0.000377687
0.000372974
0.000368507
0.000364487
0.000360637
0.000357181
0.000353837
0.000350848
0.000347923
0.000345323
0.000342748
0.000340476
0.000338197
0.000336204
0.000334177
0.000332423
0.000330612
0.000329063
0.000327439
0.000326066
0.000324604
0.000323385
0.000322065
0.000320981
0.000319785
0.000318819
0.000317733
0.00031687
0.000315882
0.000315112
0.000314212
0.000313524
0.000312701
0.000312087
0.000311334
0.000310785
0.000310099
0.000309604
0.000308979
0.000308533
0.000307964
0.00030756
0.000307042
0.000306678
0.000306205
0.000305877
0.000305443
0.000305149
0.000304759
0.000304499
0.000304132
0.000303885
0.00030353
0.000303293
0.000302949
0.000302723
0.000302392
0.000302177
0.000301861
0.000301659
0.000301358
0.000301173
0.000300885
0.000300723
0.000300443
0.000300309
0.000300036
0.000299926
0.000299642
0.000302803
0.0109236
0.0117845
0.00102393
0.000933089
0.00085719
0.00079183
0.00073504
0.00068597
0.000643725
0.000607519
0.000576377
0.000549583
0.000526321
0.000506116
0.000488351
0.000472765
0.000458888
0.000446605
0.000435539
0.000425674
0.000416689
0.000408639
0.000401232
0.00039457
0.000388381
0.000382804
0.000377572
0.000372855
0.000368385
0.000364362
0.00036051
0.000357051
0.000353704
0.000350714
0.000347786
0.000345184
0.000342607
0.000340333
0.000338052
0.000336058
0.000334029
0.000332274
0.000330462
0.000328911
0.000327286
0.000325912
0.000324449
0.000323229
0.000321908
0.000320823
0.000319626
0.000318659
0.000317572
0.000316708
0.00031572
0.000314949
0.000314047
0.000313359
0.000312535
0.000311921
0.000311167
0.000310618
0.00030993
0.000309435
0.00030881
0.000308363
0.000307793
0.000307389
0.000306871
0.000306506
0.000306032
0.000305704
0.00030527
0.000304975
0.000304585
0.000304325
0.000303957
0.000303709
0.000303354
0.000303117
0.000302773
0.000302546
0.000302214
0.000302
0.000301682
0.000301481
0.000301179
0.000300994
0.000300705
0.000300543
0.000300263
0.000300128
0.000299854
0.000299744
0.00029946
0.000302652
0.0110291
0.0118864
0.00102393
0.000933087
0.000857193
0.000791839
0.000735054
0.000685981
0.00064373
0.000607516
0.000576363
0.000549558
0.000526285
0.000506068
0.000488294
0.000472697
0.000458812
0.00044652
0.000435447
0.000425574
0.000416583
0.000408527
0.000401113
0.000394446
0.000388253
0.000382671
0.000377435
0.000372714
0.00036824
0.000364213
0.000360358
0.000356896
0.000353547
0.000350553
0.000347623
0.000345019
0.00034244
0.000340163
0.000337881
0.000335884
0.000333854
0.000332097
0.000330283
0.000328731
0.000327104
0.000325729
0.000324264
0.000323043
0.00032172
0.000320634
0.000319436
0.000318468
0.00031738
0.000316516
0.000315526
0.000314754
0.000313852
0.000313162
0.000312338
0.000311723
0.000310968
0.000310418
0.00030973
0.000309234
0.000308608
0.000308161
0.00030759
0.000307185
0.000306666
0.000306301
0.000305827
0.000305498
0.000305063
0.000304768
0.000304377
0.000304117
0.000303749
0.0003035
0.000303144
0.000302907
0.000302562
0.000302335
0.000302003
0.000301788
0.00030147
0.000301268
0.000300966
0.000300781
0.000300491
0.000300329
0.000300048
0.000299913
0.000299638
0.000299528
0.000299244
0.000302473
0.0111558
0.0120093
0.00102393
0.000933085
0.000857197
0.000791851
0.000735069
0.000685995
0.000643737
0.000607513
0.000576348
0.000549529
0.000526243
0.000506014
0.000488228
0.00047262
0.000458724
0.000446422
0.000435339
0.000425459
0.00041646
0.000408396
0.000400976
0.000394303
0.000388104
0.000382516
0.000377275
0.00037255
0.000368072
0.000364041
0.000360182
0.000356716
0.000353364
0.000350367
0.000347434
0.000344827
0.000342245
0.000339966
0.000337681
0.000335682
0.00033365
0.000331891
0.000330075
0.000328521
0.000326893
0.000325515
0.000324049
0.000322827
0.000321503
0.000320415
0.000319215
0.000318246
0.000317157
0.000316292
0.0003153
0.000314527
0.000313624
0.000312934
0.000312108
0.000311492
0.000310737
0.000310186
0.000309497
0.000309
0.000308373
0.000307925
0.000307354
0.000306949
0.000306429
0.000306063
0.000305588
0.000305258
0.000304823
0.000304527
0.000304136
0.000303875
0.000303506
0.000303257
0.000302901
0.000302663
0.000302318
0.00030209
0.000301757
0.000301542
0.000301223
0.000301021
0.000300718
0.000300532
0.000300242
0.00030008
0.000299797
0.000299662
0.000299387
0.000299277
0.000298992
0.000302265
0.0113044
0.0121541
0.00102393
0.000933083
0.000857201
0.000791863
0.000735086
0.000686011
0.000643745
0.000607509
0.000576331
0.000549497
0.000526196
0.000505952
0.000488152
0.000472531
0.000458624
0.00044631
0.000435218
0.000425327
0.00041632
0.000408247
0.00040082
0.00039414
0.000387934
0.00038234
0.000377094
0.000372363
0.00036788
0.000363844
0.000359981
0.000356511
0.000353155
0.000350154
0.000347218
0.000344608
0.000342023
0.000339741
0.000337453
0.000335452
0.000333417
0.000331656
0.000329838
0.000328282
0.000326651
0.000325272
0.000323804
0.00032258
0.000321254
0.000320165
0.000318964
0.000317993
0.000316902
0.000316036
0.000315043
0.000314269
0.000313364
0.000312673
0.000311846
0.000311229
0.000310472
0.000309921
0.000309231
0.000308733
0.000308105
0.000307657
0.000307084
0.000306678
0.000306157
0.000305791
0.000305315
0.000304985
0.000304548
0.000304252
0.00030386
0.000303598
0.000303229
0.00030298
0.000302622
0.000302384
0.000302038
0.00030181
0.000301477
0.000301261
0.000300941
0.000300739
0.000300435
0.000300249
0.000299957
0.000299795
0.000299512
0.000299376
0.0002991
0.000298989
0.000298705
0.000302027
0.0114756
0.012322
0.00102393
0.00093308
0.000857206
0.000791878
0.000735106
0.000686028
0.000643755
0.000607505
0.000576311
0.000549461
0.000526144
0.000505883
0.000488068
0.000472432
0.000458511
0.000446185
0.000435081
0.00042518
0.000416162
0.00040808
0.000400645
0.000393956
0.000387743
0.000382143
0.00037689
0.000372152
0.000367664
0.000363623
0.000359755
0.000356281
0.00035292
0.000349915
0.000346975
0.000344361
0.000341773
0.000339488
0.000337197
0.000335193
0.000333155
0.000331391
0.000329571
0.000328012
0.00032638
0.000324998
0.000323528
0.000322302
0.000320974
0.000319883
0.00031868
0.000317708
0.000316615
0.000315747
0.000314753
0.000313978
0.000313072
0.000312379
0.000311551
0.000310933
0.000310175
0.000309622
0.000308931
0.000308433
0.000307803
0.000307354
0.00030678
0.000306373
0.000305851
0.000305485
0.000305007
0.000304677
0.000304239
0.000303942
0.000303549
0.000303287
0.000302917
0.000302667
0.000302309
0.00030207
0.000301723
0.000301495
0.00030116
0.000300944
0.000300624
0.000300421
0.000300116
0.000299929
0.000299637
0.000299474
0.00029919
0.000299054
0.000298776
0.000298666
0.000298381
0.000301761
0.0116699
0.0125141
0.00102393
0.000933077
0.000857211
0.000791894
0.000735128
0.000686048
0.000643766
0.000607502
0.000576291
0.000549421
0.000526086
0.000505807
0.000487975
0.000472323
0.000458387
0.000446047
0.000434929
0.000425016
0.000415987
0.000407895
0.00040045
0.000393752
0.000387531
0.000381923
0.000376663
0.000371918
0.000367424
0.000363377
0.000359503
0.000356024
0.000352658
0.000349649
0.000346705
0.000344087
0.000341495
0.000339206
0.000336912
0.000334904
0.000332864
0.000331097
0.000329273
0.000327712
0.000326077
0.000324693
0.000323221
0.000321992
0.000320663
0.00031957
0.000318365
0.000317391
0.000316296
0.000315427
0.000314431
0.000313654
0.000312746
0.000312052
0.000311223
0.000310603
0.000309844
0.00030929
0.000308597
0.000308098
0.000307467
0.000307017
0.000306442
0.000306034
0.000305511
0.000305143
0.000304665
0.000304334
0.000303895
0.000303598
0.000303203
0.00030294
0.000302569
0.000302319
0.00030196
0.00030172
0.000301373
0.000301144
0.000300808
0.000300591
0.00030027
0.000300067
0.000299761
0.000299574
0.00029928
0.000299117
0.000298831
0.000298695
0.000298416
0.000298306
0.00029802
0.000301466
0.0118875
0.0127314
0.00102393
0.000933074
0.000857216
0.000791911
0.000735153
0.000686071
0.000643778
0.000607498
0.000576269
0.000549379
0.000526023
0.000505724
0.000487873
0.000472203
0.00045825
0.000445894
0.000434763
0.000424836
0.000415795
0.000407691
0.000400235
0.000393528
0.000387297
0.000381681
0.000376413
0.000371661
0.00036716
0.000363106
0.000359227
0.000355741
0.00035237
0.000349356
0.000346407
0.000343785
0.000341188
0.000338896
0.000336598
0.000334587
0.000332542
0.000330772
0.000328946
0.000327382
0.000325744
0.000324357
0.000322882
0.000321651
0.000320319
0.000319224
0.000318017
0.000317041
0.000315944
0.000315073
0.000314075
0.000313297
0.000312387
0.000311692
0.00031086
0.000310239
0.000309478
0.000308923
0.000308229
0.000307728
0.000307096
0.000306645
0.000306068
0.00030566
0.000305135
0.000304767
0.000304287
0.000303955
0.000303515
0.000303217
0.000302821
0.000302558
0.000302186
0.000301935
0.000301575
0.000301334
0.000300986
0.000300756
0.00030042
0.000300202
0.00029988
0.000299676
0.000299369
0.000299181
0.000298886
0.000298722
0.000298436
0.000298298
0.000298018
0.000297908
0.000297622
0.000301141
0.0121286
0.012975
0.00102393
0.00093307
0.000857222
0.00079193
0.00073518
0.000686095
0.000643792
0.000607495
0.000576245
0.000549333
0.000525955
0.000505635
0.000487763
0.000472073
0.000458102
0.000445729
0.000434582
0.00042464
0.000415585
0.000407469
0.000400001
0.000393283
0.000387043
0.000381416
0.00037614
0.00037138
0.000366871
0.00036281
0.000358924
0.000355432
0.000352056
0.000349036
0.000346082
0.000343454
0.000340853
0.000338556
0.000336254
0.000334239
0.000332191
0.000330417
0.000328587
0.00032702
0.000325379
0.000323989
0.000322512
0.000321278
0.000319943
0.000318846
0.000317636
0.000316658
0.000315559
0.000314686
0.000313686
0.000312905
0.000311994
0.000311297
0.000310463
0.000309841
0.000309078
0.000308522
0.000307826
0.000307324
0.00030669
0.000306238
0.00030566
0.00030525
0.000304724
0.000304355
0.000303873
0.00030354
0.0003031
0.0003028
0.000302404
0.000302139
0.000301766
0.000301514
0.000301153
0.000300912
0.000300562
0.000300332
0.000299994
0.000299776
0.000299452
0.000299248
0.000298939
0.000298751
0.000298455
0.00029829
0.000298003
0.000297865
0.000297583
0.000297473
0.000297187
0.000300786
0.0123928
0.0132462
0.00102392
0.000933066
0.000857229
0.000791951
0.000735209
0.000686123
0.000643808
0.000607493
0.000576221
0.000549284
0.000525882
0.000505538
0.000487643
0.000471932
0.000457941
0.000445549
0.000434385
0.000424427
0.000415358
0.000407228
0.000399748
0.000393018
0.000386766
0.00038113
0.000375844
0.000371075
0.000366557
0.000362489
0.000358596
0.000355097
0.000351714
0.000348688
0.000345728
0.000343095
0.000340489
0.000338187
0.00033588
0.000333861
0.000331809
0.000330031
0.000328198
0.000326627
0.000324982
0.00032359
0.000322109
0.000320872
0.000319534
0.000318434
0.000317222
0.000316242
0.00031514
0.000314265
0.000313262
0.00031248
0.000311566
0.000310868
0.000310032
0.000309408
0.000308643
0.000308085
0.000307388
0.000306884
0.000306249
0.000305795
0.000305215
0.000304804
0.000304277
0.000303906
0.000303424
0.00030309
0.000302647
0.000302347
0.000301949
0.000301684
0.000301309
0.000301057
0.000300694
0.000300452
0.000300101
0.00029987
0.000299531
0.000299313
0.000298988
0.000298782
0.000298472
0.000298284
0.000297986
0.000297821
0.000297531
0.000297393
0.000297109
0.000296999
0.000296713
0.0003004
0.0126797
0.0135458
0.00102392
0.000933062
0.000857235
0.000791973
0.000735241
0.000686153
0.000643826
0.000607491
0.000576195
0.000549233
0.000525805
0.000505434
0.000487516
0.000471781
0.000457769
0.000445357
0.000434174
0.000424199
0.000415114
0.000406968
0.000399475
0.000392731
0.000386468
0.00038082
0.000375524
0.000370746
0.000366219
0.000362143
0.000358241
0.000354735
0.000351345
0.000348313
0.000345346
0.000342708
0.000340096
0.000337789
0.000335477
0.000333453
0.000331396
0.000329614
0.000327777
0.000326202
0.000324554
0.000323158
0.000321673
0.000320434
0.000319093
0.00031799
0.000316775
0.000315792
0.000314688
0.00031381
0.000312805
0.00031202
0.000311104
0.000310404
0.000309566
0.00030894
0.000308173
0.000307613
0.000306914
0.000306409
0.000305771
0.000305316
0.000304735
0.000304323
0.000303793
0.000303422
0.000302937
0.000302602
0.000302158
0.000301857
0.000301457
0.000301192
0.000300815
0.000300562
0.000300198
0.000299956
0.000299603
0.000299371
0.000299031
0.000298811
0.000298485
0.000298279
0.000297967
0.000297778
0.000297479
0.000297313
0.000297022
0.000296883
0.000296597
0.000296487
0.000296201
0.000299984
0.0129883
0.0138749
0.00102392
0.000933057
0.000857243
0.000791997
0.000735276
0.000686185
0.000643846
0.00060749
0.000576169
0.000549178
0.000525723
0.000505325
0.00048738
0.00047162
0.000457585
0.000445151
0.000433948
0.000423954
0.000414852
0.00040669
0.000399182
0.000392425
0.000386149
0.000380489
0.000375181
0.000370392
0.000365856
0.00036177
0.00035786
0.000354346
0.000350949
0.000347909
0.000344936
0.000342291
0.000339674
0.000337361
0.000335043
0.000333014
0.000330953
0.000329166
0.000327324
0.000325746
0.000324093
0.000322693
0.000321205
0.000319962
0.000318618
0.000317512
0.000316294
0.000315308
0.000314201
0.00031332
0.000312313
0.000311526
0.000310607
0.000309904
0.000309064
0.000308436
0.000307667
0.000307105
0.000306404
0.000305897
0.000305258
0.000304801
0.000304218
0.000303804
0.000303273
0.0003029
0.000302414
0.000302078
0.000301632
0.00030133
0.000300929
0.000300662
0.000300284
0.00030003
0.000299664
0.000299421
0.000299067
0.000298834
0.000298492
0.000298272
0.000297944
0.000297737
0.000297424
0.000297234
0.000296933
0.000296766
0.000296474
0.000296333
0.000296046
0.000295936
0.00029565
0.000299537
0.0133173
0.0142344
0.00102392
0.000933052
0.00085725
0.000792023
0.000735313
0.000686221
0.000643868
0.000607489
0.000576142
0.000549122
0.000525636
0.000505208
0.000487236
0.000471449
0.00045739
0.000444932
0.000433708
0.000423693
0.000414573
0.000406394
0.00039887
0.000392097
0.000385808
0.000380134
0.000374815
0.000370015
0.000365469
0.000361373
0.000357453
0.000353931
0.000350525
0.000347478
0.000344498
0.000341846
0.000339222
0.000336903
0.000334579
0.000332545
0.000330478
0.000328687
0.00032684
0.000325257
0.0003236
0.000322196
0.000320704
0.000319458
0.000318109
0.000317
0.000315778
0.00031479
0.000313679
0.000312796
0.000311786
0.000310997
0.000310075
0.00030937
0.000308527
0.000307897
0.000307126
0.000306562
0.000305858
0.00030535
0.000304708
0.000304249
0.000303664
0.000303249
0.000302716
0.000302341
0.000301853
0.000301516
0.000301068
0.000300765
0.000300362
0.000300094
0.000299715
0.000299459
0.000299092
0.000298848
0.000298492
0.000298259
0.000297915
0.000297694
0.000297364
0.000297157
0.000296842
0.000296651
0.000296348
0.000296181
0.000295886
0.000295745
0.000295455
0.000295345
0.000295059
0.000299059
0.0136648
0.0146252
0.00102392
0.000933047
0.000857258
0.00079205
0.000735353
0.000686259
0.000643893
0.00060749
0.000576114
0.000549063
0.000525546
0.000505086
0.000487084
0.000471269
0.000457183
0.0004447
0.000433453
0.000423417
0.000414277
0.000406079
0.000398538
0.000391749
0.000385445
0.000379758
0.000374426
0.000369613
0.000365056
0.000360949
0.00035702
0.000353488
0.000350074
0.000347018
0.00034403
0.000341371
0.00033874
0.000336415
0.000334085
0.000332045
0.000329972
0.000328176
0.000326324
0.000324736
0.000323074
0.000321666
0.00032017
0.000318919
0.000317567
0.000316455
0.000315229
0.000314237
0.000313123
0.000312237
0.000311224
0.000310432
0.000309507
0.000308799
0.000307954
0.000307322
0.000306548
0.000305982
0.000305275
0.000304765
0.000304121
0.000303661
0.000303073
0.000302656
0.000302121
0.000301745
0.000301255
0.000300916
0.000300467
0.000300162
0.000299757
0.000299488
0.000299107
0.000298851
0.000298482
0.000298237
0.000297879
0.000297645
0.000297299
0.000297077
0.000296746
0.000296537
0.00029622
0.000296029
0.000295723
0.000295555
0.000295259
0.000295117
0.000294825
0.000294715
0.000294429
0.000298548
0.0140285
0.0150478
0.00102391
0.000933041
0.000857266
0.000792079
0.000735395
0.0006863
0.00064392
0.000607493
0.000576087
0.000549002
0.000525451
0.000504958
0.000486924
0.000471078
0.000456964
0.000444455
0.000433184
0.000423124
0.000413963
0.000405745
0.000398186
0.00039138
0.000385061
0.000379358
0.000374013
0.000369187
0.000364618
0.0003605
0.00035656
0.000353018
0.000349595
0.00034653
0.000343534
0.000340867
0.000338229
0.000335896
0.00033356
0.000331513
0.000329435
0.000327633
0.000325775
0.000324182
0.000322516
0.000321103
0.000319602
0.000318347
0.000316991
0.000315875
0.000314645
0.00031365
0.000312532
0.000311643
0.000310626
0.000309831
0.000308904
0.000308193
0.000307345
0.00030671
0.000305933
0.000305365
0.000304656
0.000304144
0.000303497
0.000303035
0.000302445
0.000302026
0.000301489
0.000301111
0.000300619
0.000300279
0.000299827
0.000299521
0.000299114
0.000298844
0.000298461
0.000298203
0.000297832
0.000297586
0.000297227
0.000296992
0.000296644
0.000296421
0.000296088
0.000295878
0.000295559
0.000295367
0.000295059
0.000294891
0.000294592
0.000294449
0.000294155
0.000294044
0.000293759
0.000298004
0.0144055
0.0155026
0.00102391
0.000933034
0.000857275
0.000792109
0.000735441
0.000686345
0.00064395
0.000607497
0.000576059
0.000548939
0.000525353
0.000504825
0.000486757
0.000470879
0.000456735
0.000444197
0.0004329
0.000422816
0.000413633
0.000405394
0.000397816
0.000390991
0.000384655
0.000378937
0.000373577
0.000368737
0.000364155
0.000360025
0.000356074
0.000352521
0.000349088
0.000346014
0.000343009
0.000340334
0.000337688
0.000335348
0.000333004
0.000330951
0.000328866
0.000327058
0.000325194
0.000323596
0.000321924
0.000320507
0.000319001
0.000317742
0.000316381
0.00031526
0.000314027
0.000313027
0.000311906
0.000311014
0.000309993
0.000309195
0.000308264
0.000307551
0.000306699
0.000306062
0.000305282
0.000304711
0.000304
0.000303485
0.000302836
0.000302371
0.000301779
0.000301359
0.000300819
0.00030044
0.000299945
0.000299603
0.000299149
0.000298842
0.000298433
0.000298161
0.000297776
0.000297517
0.000297144
0.000296897
0.000296535
0.000296299
0.00029595
0.000295726
0.00029539
0.00029518
0.000294858
0.000294665
0.000294355
0.000294186
0.000293885
0.000293741
0.000293444
0.000293334
0.000293049
0.000297427
0.0147923
0.0159897
0.00102391
0.000933027
0.000857284
0.000792141
0.000735489
0.000686392
0.000643983
0.000607503
0.000576032
0.000548875
0.000525252
0.000504686
0.000486583
0.000470671
0.000456495
0.000443927
0.000432603
0.000422493
0.000413286
0.000405024
0.000397426
0.000390582
0.000384228
0.000378492
0.000373117
0.000368263
0.000363667
0.000359524
0.000355562
0.000351998
0.000348554
0.00034547
0.000342456
0.000339771
0.000337117
0.000334769
0.000332418
0.000330357
0.000328266
0.000326451
0.000324581
0.000322977
0.0003213
0.000319877
0.000318366
0.000317102
0.000315736
0.000314611
0.000313373
0.00031237
0.000311245
0.000310349
0.000309324
0.000308523
0.000307588
0.000306872
0.000306017
0.000305377
0.000304594
0.000304021
0.000303306
0.000302789
0.000302137
0.00030167
0.000301076
0.000300653
0.00030011
0.000299729
0.000299232
0.000298889
0.000298433
0.000298124
0.000297712
0.00029744
0.000297052
0.000296792
0.000296417
0.000296168
0.000295805
0.000295567
0.000295216
0.000294991
0.000294653
0.000294442
0.000294118
0.000293923
0.000293611
0.00029344
0.000293137
0.000292992
0.000292692
0.000292582
0.000292298
0.000296815
0.0151848
0.0165086
0.00102391
0.00093302
0.000857293
0.000792175
0.000735539
0.000686443
0.000644019
0.000607511
0.000576006
0.00054881
0.000525147
0.000504542
0.000486402
0.000470454
0.000456245
0.000443645
0.000432292
0.000422154
0.000412922
0.000404637
0.000397017
0.000390152
0.000383779
0.000378026
0.000372635
0.000367765
0.000363155
0.000358998
0.000355023
0.000351447
0.000347992
0.000344897
0.000341873
0.000339179
0.000336516
0.000334159
0.000331801
0.000329732
0.000327634
0.000325812
0.000323936
0.000322325
0.000320642
0.000319214
0.000317697
0.000316428
0.000315057
0.000313928
0.000312685
0.000311678
0.000310548
0.000309648
0.00030862
0.000307815
0.000306876
0.000306157
0.000305299
0.000304656
0.000303869
0.000303293
0.000302575
0.000302056
0.000301401
0.000300932
0.000300334
0.000299909
0.000299364
0.000298981
0.000298481
0.000298136
0.000297677
0.000297367
0.000296953
0.000296679
0.000296289
0.000296027
0.00029565
0.0002954
0.000295034
0.000294796
0.000294442
0.000294216
0.000293875
0.000293663
0.000293337
0.000293141
0.000292826
0.000292655
0.000292349
0.000292202
0.0002919
0.00029179
0.000291506
0.000296168
0.0155781
0.0170585
0.0010239
0.000933012
0.000857302
0.00079221
0.000735593
0.000686497
0.000644058
0.000607521
0.00057598
0.000548744
0.00052504
0.000504394
0.000486215
0.000470228
0.000455985
0.000443351
0.000431968
0.000421801
0.000412543
0.000404232
0.000396589
0.000389702
0.00038331
0.000377538
0.000372129
0.000367242
0.000362618
0.000358446
0.000354458
0.000350869
0.000347402
0.000344296
0.000341262
0.000338558
0.000335885
0.00033352
0.000331153
0.000329076
0.00032697
0.000325141
0.000323258
0.000321641
0.000319951
0.000318517
0.000316994
0.00031572
0.000314344
0.00031321
0.000311962
0.00031095
0.000309816
0.000308912
0.000307879
0.000307071
0.000306128
0.000305406
0.000304543
0.000303897
0.000303107
0.000302528
0.000301807
0.000301285
0.000300627
0.000300155
0.000299554
0.000299127
0.000298579
0.000298194
0.000297691
0.000297344
0.000296883
0.000296571
0.000296154
0.000295879
0.000295486
0.000295223
0.000294843
0.000294592
0.000294224
0.000293984
0.000293628
0.000293401
0.000293058
0.000292844
0.000292515
0.000292319
0.000292001
0.000291828
0.00029152
0.000291372
0.000291067
0.000290956
0.000290673
0.000295484
0.0159668
0.0176379
0.0010239
0.000933004
0.000857311
0.000792247
0.00073565
0.000686555
0.0006441
0.000607534
0.000575956
0.000548677
0.000524931
0.000504241
0.000486021
0.000469995
0.000455714
0.000443046
0.00043163
0.000421433
0.000412147
0.000403809
0.000396142
0.000389233
0.00038282
0.000377028
0.000371601
0.000366697
0.000362056
0.000357869
0.000353867
0.000350265
0.000346786
0.000343668
0.000340622
0.000337908
0.000335225
0.00033285
0.000330474
0.000328389
0.000326275
0.000324438
0.000322548
0.000320924
0.000319227
0.000317787
0.000316258
0.000314978
0.000313597
0.000312457
0.000311204
0.000310188
0.000309049
0.00030814
0.000307103
0.000306291
0.000305344
0.000304617
0.000303751
0.000303101
0.000302308
0.000301726
0.000301001
0.000300476
0.000299814
0.00029934
0.000298736
0.000298307
0.000297756
0.000297369
0.000296863
0.000296514
0.00029605
0.000295736
0.000295317
0.000295039
0.000294644
0.00029438
0.000293997
0.000293745
0.000293374
0.000293133
0.000292774
0.000292545
0.000292199
0.000291985
0.000291653
0.000291456
0.000291135
0.000290961
0.00029065
0.000290501
0.000290192
0.000290082
0.000289799
0.000294762
0.0163449
0.0182444
0.0010239
0.000932995
0.00085732
0.000792285
0.000735709
0.000686617
0.000644146
0.000607549
0.000575933
0.00054861
0.000524819
0.000504084
0.000485822
0.000469753
0.000455435
0.000442729
0.00043128
0.000421051
0.000411735
0.00040337
0.000395678
0.000388744
0.000382309
0.000376496
0.00037105
0.000366128
0.00036147
0.000357267
0.000353251
0.000349634
0.000346142
0.000343011
0.000339954
0.000337228
0.000334535
0.00033215
0.000329765
0.000327671
0.000325548
0.000323703
0.000321805
0.000320174
0.00031847
0.000317023
0.000315488
0.000314202
0.000312814
0.00031167
0.000310411
0.00030939
0.000308245
0.000307333
0.00030629
0.000305474
0.000304523
0.000303793
0.000302922
0.000302269
0.000301471
0.000300886