/*--------------------------------*- C++ -*----------------------------------*\
| =========                 |                                                 |
| \\      /  F ield         | OpenFOAM: The Open Source CFD Toolbox           |
|  \\    /   O peration     | Version:  v2012                                 |
|   \\  /    A nd           | Website:  www.openfoam.com                      |
|    \\/     M anipulation  |                                                 |
\*---------------------------------------------------------------------------*/
FoamFile
{
    version     2.0;
    format      ascii;
    class       volScalarField;
    location    "52.5";
    object      nut;
}
// * * * * * * * * * * * * * * * * * * * * * * * * * * * * * * * * * * * * * //

dimensions      [0 2 -1 0 0 0 0];


internalField   nonuniform List<scalar> 
209825
(
1.24215e-07
1.23636e-07
1.21833e-07
1.18025e-07
1.12599e-07
1.06381e-07
1.00034e-07
9.39849e-08
8.84092e-08
8.33858e-08
7.88864e-08
7.48938e-08
7.13324e-08
6.8177e-08
6.53511e-08
6.28398e-08
6.0574e-08
5.85523e-08
5.67128e-08
5.5066e-08
5.35543e-08
5.21969e-08
5.09401e-08
4.98096e-08
4.87529e-08
4.78019e-08
4.69041e-08
4.60977e-08
4.53282e-08
4.46382e-08
4.39732e-08
4.33797e-08
4.28008e-08
4.22865e-08
4.17788e-08
4.13312e-08
4.08833e-08
4.04918e-08
4.00949e-08
3.97514e-08
3.93978e-08
3.90952e-08
3.87785e-08
3.85104e-08
3.82255e-08
3.79883e-08
3.77311e-08
3.75199e-08
3.72867e-08
3.70998e-08
3.68866e-08
3.672e-08
3.6526e-08
3.63778e-08
3.62011e-08
3.6066e-08
3.59054e-08
3.57861e-08
3.56365e-08
3.55318e-08
3.53938e-08
3.52979e-08
3.51713e-08
3.50846e-08
3.49682e-08
3.48885e-08
3.47838e-08
3.47081e-08
3.46109e-08
3.45421e-08
3.44535e-08
3.43913e-08
3.43106e-08
3.42549e-08
3.41778e-08
3.41232e-08
3.40462e-08
3.39914e-08
3.39152e-08
3.38602e-08
3.37866e-08
3.37314e-08
3.36604e-08
3.36067e-08
3.3537e-08
3.34849e-08
3.34163e-08
3.33665e-08
3.32982e-08
3.325e-08
3.31826e-08
3.31305e-08
3.30572e-08
3.33469e-08
3.49039e-06
2.17032e-08
1.24215e-07
1.23636e-07
1.21833e-07
1.18025e-07
1.126e-07
1.06382e-07
1.00036e-07
9.39873e-08
8.84117e-08
8.33883e-08
7.88888e-08
7.48962e-08
7.13347e-08
6.81791e-08
6.53532e-08
6.28417e-08
6.05758e-08
5.8554e-08
5.67144e-08
5.50674e-08
5.35557e-08
5.21982e-08
5.09414e-08
4.98108e-08
4.8754e-08
4.78029e-08
4.69051e-08
4.60986e-08
4.5329e-08
4.4639e-08
4.3974e-08
4.33804e-08
4.28015e-08
4.22871e-08
4.17794e-08
4.13317e-08
4.08838e-08
4.04923e-08
4.00954e-08
3.97518e-08
3.93982e-08
3.90956e-08
3.87789e-08
3.85107e-08
3.82258e-08
3.79886e-08
3.77314e-08
3.75201e-08
3.7287e-08
3.71e-08
3.68868e-08
3.67202e-08
3.65262e-08
3.63779e-08
3.62013e-08
3.60662e-08
3.59055e-08
3.57862e-08
3.56365e-08
3.55318e-08
3.53939e-08
3.5298e-08
3.51713e-08
3.50846e-08
3.49682e-08
3.48885e-08
3.47838e-08
3.47081e-08
3.46109e-08
3.45421e-08
3.44535e-08
3.43913e-08
3.43106e-08
3.42548e-08
3.41778e-08
3.41232e-08
3.40461e-08
3.39914e-08
3.39151e-08
3.38601e-08
3.37865e-08
3.37313e-08
3.36603e-08
3.36066e-08
3.35369e-08
3.34848e-08
3.34162e-08
3.33664e-08
3.32981e-08
3.32498e-08
3.31825e-08
3.31304e-08
3.30571e-08
3.33471e-08
3.49194e-06
2.18829e-08
1.24215e-07
1.23636e-07
1.21834e-07
1.18029e-07
1.12606e-07
1.0639e-07
1.00045e-07
9.39971e-08
8.84217e-08
8.33982e-08
7.88984e-08
7.49054e-08
7.13435e-08
6.81874e-08
6.5361e-08
6.2849e-08
6.05827e-08
5.85604e-08
5.67205e-08
5.50731e-08
5.3561e-08
5.22032e-08
5.0946e-08
4.98151e-08
4.87581e-08
4.78068e-08
4.69086e-08
4.61019e-08
4.53321e-08
4.46419e-08
4.39767e-08
4.3383e-08
4.28039e-08
4.22894e-08
4.17815e-08
4.13337e-08
4.08857e-08
4.04941e-08
4.0097e-08
3.97534e-08
3.93996e-08
3.90969e-08
3.87801e-08
3.85119e-08
3.82269e-08
3.79896e-08
3.77323e-08
3.7521e-08
3.72877e-08
3.71007e-08
3.68875e-08
3.67208e-08
3.65267e-08
3.63784e-08
3.62017e-08
3.60666e-08
3.59058e-08
3.57865e-08
3.56368e-08
3.5532e-08
3.5394e-08
3.52981e-08
3.51714e-08
3.50847e-08
3.49682e-08
3.48885e-08
3.47837e-08
3.47081e-08
3.46108e-08
3.4542e-08
3.44533e-08
3.43911e-08
3.43104e-08
3.42546e-08
3.41775e-08
3.41229e-08
3.40458e-08
3.39911e-08
3.39148e-08
3.38598e-08
3.37861e-08
3.3731e-08
3.366e-08
3.36062e-08
3.35365e-08
3.34844e-08
3.34157e-08
3.3366e-08
3.32976e-08
3.32493e-08
3.3182e-08
3.31299e-08
3.30565e-08
3.33472e-08
3.49725e-06
2.21505e-08
1.24215e-07
1.23635e-07
1.21836e-07
1.18035e-07
1.12616e-07
1.06404e-07
1.00061e-07
9.40136e-08
8.84386e-08
8.34149e-08
7.89147e-08
7.4921e-08
7.13583e-08
6.82014e-08
6.53741e-08
6.28613e-08
6.05942e-08
5.85713e-08
5.67306e-08
5.50826e-08
5.35699e-08
5.22115e-08
5.09538e-08
4.98224e-08
4.87649e-08
4.78132e-08
4.69146e-08
4.61076e-08
4.53374e-08
4.46469e-08
4.39814e-08
4.33874e-08
4.2808e-08
4.22932e-08
4.17851e-08
4.13371e-08
4.08889e-08
4.0497e-08
4.00998e-08
3.9756e-08
3.9402e-08
3.90992e-08
3.87822e-08
3.85138e-08
3.82287e-08
3.79913e-08
3.77338e-08
3.75224e-08
3.72891e-08
3.71019e-08
3.68886e-08
3.67218e-08
3.65276e-08
3.63793e-08
3.62025e-08
3.60672e-08
3.59064e-08
3.57871e-08
3.56372e-08
3.55324e-08
3.53944e-08
3.52984e-08
3.51716e-08
3.50848e-08
3.49683e-08
3.48885e-08
3.47837e-08
3.4708e-08
3.46107e-08
3.45418e-08
3.44531e-08
3.43908e-08
3.43101e-08
3.42543e-08
3.41771e-08
3.41225e-08
3.40454e-08
3.39906e-08
3.39143e-08
3.38593e-08
3.37856e-08
3.37304e-08
3.36594e-08
3.36056e-08
3.35358e-08
3.34837e-08
3.3415e-08
3.33652e-08
3.32968e-08
3.32485e-08
3.31811e-08
3.3129e-08
3.30557e-08
3.33475e-08
3.50602e-06
2.24796e-08
1.24214e-07
1.23635e-07
1.21838e-07
1.18043e-07
1.12631e-07
1.06422e-07
1.00083e-07
9.4037e-08
8.84625e-08
8.34385e-08
7.89376e-08
7.49429e-08
7.13792e-08
6.82211e-08
6.53927e-08
6.28788e-08
6.06106e-08
5.85866e-08
5.6745e-08
5.5096e-08
5.35825e-08
5.22233e-08
5.09648e-08
4.98327e-08
4.87746e-08
4.78222e-08
4.69231e-08
4.61155e-08
4.53449e-08
4.46539e-08
4.3988e-08
4.33935e-08
4.28138e-08
4.22986e-08
4.17902e-08
4.13419e-08
4.08933e-08
4.05012e-08
4.01037e-08
3.97596e-08
3.94054e-08
3.91024e-08
3.87852e-08
3.85166e-08
3.82313e-08
3.79937e-08
3.77361e-08
3.75245e-08
3.7291e-08
3.71037e-08
3.68902e-08
3.67233e-08
3.6529e-08
3.63805e-08
3.62036e-08
3.60683e-08
3.59073e-08
3.57879e-08
3.56379e-08
3.5533e-08
3.53948e-08
3.52988e-08
3.51719e-08
3.5085e-08
3.49685e-08
3.48886e-08
3.47837e-08
3.4708e-08
3.46106e-08
3.45417e-08
3.44528e-08
3.43905e-08
3.43097e-08
3.42538e-08
3.41766e-08
3.4122e-08
3.40448e-08
3.39901e-08
3.39137e-08
3.38587e-08
3.37848e-08
3.37297e-08
3.36585e-08
3.36047e-08
3.35349e-08
3.34828e-08
3.3414e-08
3.33642e-08
3.32958e-08
3.32474e-08
3.31799e-08
3.31279e-08
3.30545e-08
3.33478e-08
3.51831e-06
2.28612e-08
1.24213e-07
1.23634e-07
1.21842e-07
1.18054e-07
1.12649e-07
1.06447e-07
1.00111e-07
9.40673e-08
8.84934e-08
8.34691e-08
7.89674e-08
7.49715e-08
7.14063e-08
6.82468e-08
6.54169e-08
6.29015e-08
6.06319e-08
5.86065e-08
5.67637e-08
5.51135e-08
5.35988e-08
5.22386e-08
5.09792e-08
4.98462e-08
4.87872e-08
4.7834e-08
4.69342e-08
4.61259e-08
4.53547e-08
4.4663e-08
4.39965e-08
4.34016e-08
4.28213e-08
4.23057e-08
4.17969e-08
4.13481e-08
4.08992e-08
4.05067e-08
4.01088e-08
3.97645e-08
3.94099e-08
3.91067e-08
3.87892e-08
3.85203e-08
3.82347e-08
3.79969e-08
3.7739e-08
3.75273e-08
3.72935e-08
3.71061e-08
3.68924e-08
3.67253e-08
3.65308e-08
3.63822e-08
3.6205e-08
3.60696e-08
3.59085e-08
3.57889e-08
3.56388e-08
3.55338e-08
3.53955e-08
3.52994e-08
3.51724e-08
3.50854e-08
3.49687e-08
3.48887e-08
3.47837e-08
3.47079e-08
3.46105e-08
3.45414e-08
3.44525e-08
3.43901e-08
3.43092e-08
3.42533e-08
3.4176e-08
3.41213e-08
3.40441e-08
3.39893e-08
3.39129e-08
3.38579e-08
3.37839e-08
3.37287e-08
3.36575e-08
3.36037e-08
3.35338e-08
3.34816e-08
3.34127e-08
3.33629e-08
3.32944e-08
3.32461e-08
3.31784e-08
3.31264e-08
3.30529e-08
3.33483e-08
3.53416e-06
2.32933e-08
1.24213e-07
1.23633e-07
1.21846e-07
1.18067e-07
1.12672e-07
1.06477e-07
1.00146e-07
9.41047e-08
8.85316e-08
8.3507e-08
7.90042e-08
7.50067e-08
7.14399e-08
6.82785e-08
6.54468e-08
6.29295e-08
6.06582e-08
5.86312e-08
5.67868e-08
5.51351e-08
5.36191e-08
5.22576e-08
5.09969e-08
4.98628e-08
4.88028e-08
4.78487e-08
4.69479e-08
4.61388e-08
4.53667e-08
4.46744e-08
4.40072e-08
4.34116e-08
4.28307e-08
4.23146e-08
4.18052e-08
4.13559e-08
4.09065e-08
4.05135e-08
4.01152e-08
3.97705e-08
3.94156e-08
3.91119e-08
3.87941e-08
3.85249e-08
3.8239e-08
3.80009e-08
3.77427e-08
3.75307e-08
3.72967e-08
3.7109e-08
3.68951e-08
3.67278e-08
3.65331e-08
3.63842e-08
3.62069e-08
3.60713e-08
3.591e-08
3.57903e-08
3.564e-08
3.55348e-08
3.53964e-08
3.53001e-08
3.5173e-08
3.50858e-08
3.4969e-08
3.48889e-08
3.47838e-08
3.47079e-08
3.46103e-08
3.45412e-08
3.44522e-08
3.43897e-08
3.43087e-08
3.42527e-08
3.41753e-08
3.41205e-08
3.40433e-08
3.39885e-08
3.39119e-08
3.38569e-08
3.37828e-08
3.37276e-08
3.36563e-08
3.36024e-08
3.35324e-08
3.34803e-08
3.34112e-08
3.33614e-08
3.32927e-08
3.32444e-08
3.31766e-08
3.31246e-08
3.30511e-08
3.33489e-08
3.55361e-06
2.37778e-08
1.24212e-07
1.23632e-07
1.21851e-07
1.18083e-07
1.12699e-07
1.06513e-07
1.00188e-07
9.41493e-08
8.85772e-08
8.35521e-08
7.90481e-08
7.50489e-08
7.14799e-08
6.83164e-08
6.54825e-08
6.29631e-08
6.06897e-08
5.86607e-08
5.68144e-08
5.5161e-08
5.36434e-08
5.22803e-08
5.10182e-08
4.98828e-08
4.88215e-08
4.78662e-08
4.69644e-08
4.61542e-08
4.53812e-08
4.4688e-08
4.402e-08
4.34236e-08
4.2842e-08
4.23251e-08
4.18151e-08
4.13652e-08
4.09152e-08
4.05218e-08
4.01229e-08
3.97777e-08
3.94223e-08
3.91182e-08
3.88e-08
3.85305e-08
3.82441e-08
3.80057e-08
3.77472e-08
3.75349e-08
3.73005e-08
3.71126e-08
3.68983e-08
3.67308e-08
3.65358e-08
3.63868e-08
3.62092e-08
3.60734e-08
3.59118e-08
3.57919e-08
3.56414e-08
3.55361e-08
3.53975e-08
3.5301e-08
3.51737e-08
3.50864e-08
3.49695e-08
3.48892e-08
3.4784e-08
3.4708e-08
3.46102e-08
3.4541e-08
3.44518e-08
3.43893e-08
3.43081e-08
3.4252e-08
3.41745e-08
3.41196e-08
3.40423e-08
3.39875e-08
3.39108e-08
3.38558e-08
3.37815e-08
3.37263e-08
3.36548e-08
3.36009e-08
3.35308e-08
3.34786e-08
3.34094e-08
3.33596e-08
3.32908e-08
3.32424e-08
3.31745e-08
3.31226e-08
3.30489e-08
3.33498e-08
3.57668e-06
2.43201e-08
1.24211e-07
1.2363e-07
1.21857e-07
1.18101e-07
1.1273e-07
1.06555e-07
1.00236e-07
9.42012e-08
8.86303e-08
8.36048e-08
7.90993e-08
7.5098e-08
7.15267e-08
6.83606e-08
6.55242e-08
6.30023e-08
6.07265e-08
5.86952e-08
5.68467e-08
5.51913e-08
5.36717e-08
5.23068e-08
5.10431e-08
4.99061e-08
4.88434e-08
4.78867e-08
4.69837e-08
4.61723e-08
4.53982e-08
4.47039e-08
4.40349e-08
4.34376e-08
4.28552e-08
4.23375e-08
4.18267e-08
4.13762e-08
4.09255e-08
4.05314e-08
4.0132e-08
3.97862e-08
3.94302e-08
3.91257e-08
3.88069e-08
3.8537e-08
3.82502e-08
3.80114e-08
3.77525e-08
3.75398e-08
3.73051e-08
3.71168e-08
3.69022e-08
3.67344e-08
3.65391e-08
3.63898e-08
3.62119e-08
3.60759e-08
3.5914e-08
3.57939e-08
3.56432e-08
3.55376e-08
3.53988e-08
3.53021e-08
3.51746e-08
3.50872e-08
3.497e-08
3.48896e-08
3.47842e-08
3.4708e-08
3.46101e-08
3.45408e-08
3.44514e-08
3.43888e-08
3.43074e-08
3.42513e-08
3.41736e-08
3.41187e-08
3.40412e-08
3.39863e-08
3.39095e-08
3.38546e-08
3.37801e-08
3.37249e-08
3.36532e-08
3.35993e-08
3.3529e-08
3.34768e-08
3.34074e-08
3.33576e-08
3.32886e-08
3.32402e-08
3.31721e-08
3.31202e-08
3.30464e-08
3.33508e-08
3.60336e-06
2.49278e-08
1.2421e-07
1.23629e-07
1.21863e-07
1.18122e-07
1.12766e-07
1.06602e-07
1.00291e-07
9.42606e-08
8.86911e-08
8.36651e-08
7.9158e-08
7.51543e-08
7.15804e-08
6.84113e-08
6.5572e-08
6.30472e-08
6.07687e-08
5.87347e-08
5.68838e-08
5.5226e-08
5.37043e-08
5.23373e-08
5.10717e-08
4.99329e-08
4.88686e-08
4.79103e-08
4.70058e-08
4.61931e-08
4.54177e-08
4.47222e-08
4.40521e-08
4.34538e-08
4.28704e-08
4.23518e-08
4.18402e-08
4.13888e-08
4.09373e-08
4.05425e-08
4.01424e-08
3.9796e-08
3.94394e-08
3.91343e-08
3.88149e-08
3.85445e-08
3.82572e-08
3.80179e-08
3.77585e-08
3.75455e-08
3.73103e-08
3.71217e-08
3.69067e-08
3.67385e-08
3.65429e-08
3.63933e-08
3.62151e-08
3.60788e-08
3.59166e-08
3.57963e-08
3.56452e-08
3.55394e-08
3.54003e-08
3.53035e-08
3.51757e-08
3.50881e-08
3.49707e-08
3.48901e-08
3.47845e-08
3.47082e-08
3.46101e-08
3.45406e-08
3.4451e-08
3.43882e-08
3.43067e-08
3.42504e-08
3.41726e-08
3.41176e-08
3.404e-08
3.39851e-08
3.39081e-08
3.38532e-08
3.37785e-08
3.37232e-08
3.36514e-08
3.35974e-08
3.3527e-08
3.34747e-08
3.34051e-08
3.33553e-08
3.32861e-08
3.32377e-08
3.31694e-08
3.31175e-08
3.30436e-08
3.33521e-08
3.63362e-06
2.56109e-08
1.24208e-07
1.23627e-07
1.2187e-07
1.18145e-07
1.12806e-07
1.06656e-07
1.00354e-07
9.43275e-08
8.87597e-08
8.37332e-08
7.92243e-08
7.5218e-08
7.1641e-08
6.84687e-08
6.56262e-08
6.30981e-08
6.08165e-08
5.87795e-08
5.69259e-08
5.52654e-08
5.37412e-08
5.23719e-08
5.11042e-08
4.99633e-08
4.88971e-08
4.79371e-08
4.70309e-08
4.62167e-08
4.54399e-08
4.47431e-08
4.40717e-08
4.34722e-08
4.28876e-08
4.23681e-08
4.18554e-08
4.14031e-08
4.09508e-08
4.05552e-08
4.01542e-08
3.98071e-08
3.94498e-08
3.9144e-08
3.88241e-08
3.85531e-08
3.82652e-08
3.80254e-08
3.77655e-08
3.7552e-08
3.73163e-08
3.71273e-08
3.69118e-08
3.67433e-08
3.65472e-08
3.63973e-08
3.62187e-08
3.60821e-08
3.59196e-08
3.5799e-08
3.56476e-08
3.55415e-08
3.54021e-08
3.53051e-08
3.5177e-08
3.50892e-08
3.49715e-08
3.48907e-08
3.47849e-08
3.47084e-08
3.46101e-08
3.45405e-08
3.44506e-08
3.43877e-08
3.4306e-08
3.42496e-08
3.41715e-08
3.41164e-08
3.40387e-08
3.39837e-08
3.39066e-08
3.38516e-08
3.37767e-08
3.37214e-08
3.36494e-08
3.35953e-08
3.35247e-08
3.34724e-08
3.34026e-08
3.33527e-08
3.32833e-08
3.32349e-08
3.31663e-08
3.31145e-08
3.30405e-08
3.33536e-08
3.66736e-06
2.63814e-08
1.24207e-07
1.23625e-07
1.21878e-07
1.18171e-07
1.12851e-07
1.06715e-07
1.00423e-07
9.44022e-08
8.88363e-08
8.38092e-08
7.92984e-08
7.52891e-08
7.17088e-08
6.85329e-08
6.56867e-08
6.31551e-08
6.087e-08
5.88297e-08
5.69729e-08
5.53095e-08
5.37826e-08
5.24107e-08
5.11405e-08
4.99974e-08
4.89291e-08
4.79671e-08
4.70591e-08
4.62431e-08
4.54647e-08
4.47664e-08
4.40937e-08
4.34928e-08
4.2907e-08
4.23863e-08
4.18726e-08
4.14192e-08
4.09659e-08
4.05694e-08
4.01676e-08
3.98196e-08
3.94616e-08
3.91551e-08
3.88344e-08
3.85627e-08
3.82742e-08
3.80339e-08
3.77733e-08
3.75593e-08
3.73231e-08
3.71336e-08
3.69177e-08
3.67487e-08
3.65522e-08
3.64018e-08
3.62229e-08
3.60859e-08
3.5923e-08
3.58021e-08
3.56503e-08
3.5544e-08
3.54042e-08
3.53069e-08
3.51785e-08
3.50904e-08
3.49725e-08
3.48915e-08
3.47854e-08
3.47088e-08
3.46101e-08
3.45403e-08
3.44503e-08
3.43872e-08
3.43052e-08
3.42487e-08
3.41704e-08
3.41152e-08
3.40373e-08
3.39823e-08
3.39049e-08
3.385e-08
3.37748e-08
3.37195e-08
3.36472e-08
3.35931e-08
3.35222e-08
3.34699e-08
3.33999e-08
3.33499e-08
3.32803e-08
3.32318e-08
3.3163e-08
3.31112e-08
3.30371e-08
3.33554e-08
3.70449e-06
2.72526e-08
1.24205e-07
1.23622e-07
1.21887e-07
1.182e-07
1.129e-07
1.06781e-07
1.005e-07
9.44847e-08
8.89209e-08
8.38933e-08
7.93804e-08
7.5368e-08
7.1784e-08
6.86041e-08
6.5754e-08
6.32183e-08
6.09295e-08
5.88855e-08
5.70252e-08
5.53585e-08
5.38285e-08
5.24538e-08
5.11809e-08
5.00353e-08
4.89647e-08
4.80005e-08
4.70905e-08
4.62726e-08
4.54924e-08
4.47924e-08
4.41181e-08
4.35158e-08
4.29286e-08
4.24066e-08
4.18917e-08
4.14372e-08
4.09828e-08
4.05853e-08
4.01825e-08
3.98336e-08
3.94747e-08
3.91674e-08
3.88459e-08
3.85736e-08
3.82843e-08
3.80433e-08
3.77822e-08
3.75675e-08
3.73307e-08
3.71407e-08
3.69242e-08
3.67548e-08
3.65578e-08
3.6407e-08
3.62276e-08
3.60902e-08
3.59268e-08
3.58056e-08
3.56534e-08
3.55467e-08
3.54066e-08
3.5309e-08
3.51803e-08
3.50919e-08
3.49737e-08
3.48925e-08
3.4786e-08
3.47092e-08
3.46103e-08
3.45403e-08
3.445e-08
3.43867e-08
3.43045e-08
3.42478e-08
3.41692e-08
3.41139e-08
3.40359e-08
3.39808e-08
3.39032e-08
3.38482e-08
3.37727e-08
3.37174e-08
3.36449e-08
3.35907e-08
3.35196e-08
3.34671e-08
3.33969e-08
3.33469e-08
3.3277e-08
3.32284e-08
3.31594e-08
3.31076e-08
3.30334e-08
3.33576e-08
3.74482e-06
2.82398e-08
1.24203e-07
1.2362e-07
1.21896e-07
1.1823e-07
1.12953e-07
1.06853e-07
1.00584e-07
9.45751e-08
8.90139e-08
8.39858e-08
7.94706e-08
7.54547e-08
7.18668e-08
6.86825e-08
6.5828e-08
6.32879e-08
6.09949e-08
5.89469e-08
5.70829e-08
5.54125e-08
5.38792e-08
5.25013e-08
5.12256e-08
5.00771e-08
4.9004e-08
4.80374e-08
4.71251e-08
4.63051e-08
4.5523e-08
4.48212e-08
4.41452e-08
4.35413e-08
4.29526e-08
4.24291e-08
4.19128e-08
4.14571e-08
4.10015e-08
4.06029e-08
4.0199e-08
3.98492e-08
3.94893e-08
3.91811e-08
3.88588e-08
3.85856e-08
3.82956e-08
3.80539e-08
3.7792e-08
3.75767e-08
3.73392e-08
3.71487e-08
3.69316e-08
3.67616e-08
3.6564e-08
3.64127e-08
3.62328e-08
3.60951e-08
3.59312e-08
3.58096e-08
3.56569e-08
3.55499e-08
3.54094e-08
3.53115e-08
3.51824e-08
3.50937e-08
3.49752e-08
3.48936e-08
3.47868e-08
3.47098e-08
3.46106e-08
3.45404e-08
3.44497e-08
3.43863e-08
3.43037e-08
3.42469e-08
3.4168e-08
3.41125e-08
3.40343e-08
3.39791e-08
3.39013e-08
3.38463e-08
3.37705e-08
3.37153e-08
3.36424e-08
3.35881e-08
3.35167e-08
3.34642e-08
3.33937e-08
3.33437e-08
3.32735e-08
3.32249e-08
3.31555e-08
3.31038e-08
3.30294e-08
3.336e-08
3.78811e-06
2.93596e-08
1.24201e-07
1.23617e-07
1.21906e-07
1.18264e-07
1.13012e-07
1.06931e-07
1.00675e-07
9.46737e-08
8.91152e-08
8.40866e-08
7.95691e-08
7.55495e-08
7.19572e-08
6.87682e-08
6.59089e-08
6.33641e-08
6.10666e-08
5.90142e-08
5.71461e-08
5.54718e-08
5.39348e-08
5.25534e-08
5.12745e-08
5.0123e-08
4.90471e-08
4.80779e-08
4.71632e-08
4.63409e-08
4.55567e-08
4.48528e-08
4.41749e-08
4.35692e-08
4.29789e-08
4.24539e-08
4.19361e-08
4.1479e-08
4.10221e-08
4.06223e-08
4.02172e-08
3.98663e-08
3.95053e-08
3.91962e-08
3.88729e-08
3.85989e-08
3.8308e-08
3.80655e-08
3.78028e-08
3.75869e-08
3.73487e-08
3.71575e-08
3.69397e-08
3.67692e-08
3.6571e-08
3.64192e-08
3.62387e-08
3.61005e-08
3.5936e-08
3.5814e-08
3.56609e-08
3.55535e-08
3.54125e-08
3.53142e-08
3.51848e-08
3.50957e-08
3.49768e-08
3.48949e-08
3.47878e-08
3.47106e-08
3.4611e-08
3.45406e-08
3.44495e-08
3.43859e-08
3.4303e-08
3.4246e-08
3.41668e-08
3.41112e-08
3.40327e-08
3.39775e-08
3.38994e-08
3.38444e-08
3.37682e-08
3.3713e-08
3.36397e-08
3.35854e-08
3.35137e-08
3.34612e-08
3.33903e-08
3.33402e-08
3.32697e-08
3.3221e-08
3.31513e-08
3.30997e-08
3.30251e-08
3.33628e-08
3.83408e-06
3.06303e-08
1.24199e-07
1.23614e-07
1.21917e-07
1.18299e-07
1.13074e-07
1.07015e-07
1.00774e-07
9.47804e-08
8.92251e-08
8.41961e-08
7.96761e-08
7.56525e-08
7.20556e-08
6.88615e-08
6.59971e-08
6.34471e-08
6.11447e-08
5.90875e-08
5.72149e-08
5.55364e-08
5.39955e-08
5.26103e-08
5.13279e-08
5.01732e-08
4.90942e-08
4.81221e-08
4.72048e-08
4.638e-08
4.55934e-08
4.48874e-08
4.42074e-08
4.35998e-08
4.30077e-08
4.2481e-08
4.19616e-08
4.15031e-08
4.10447e-08
4.06435e-08
4.02372e-08
3.98851e-08
3.9523e-08
3.92128e-08
3.88884e-08
3.86135e-08
3.83216e-08
3.80783e-08
3.78148e-08
3.75981e-08
3.73591e-08
3.71672e-08
3.69487e-08
3.67776e-08
3.65787e-08
3.64263e-08
3.62453e-08
3.61066e-08
3.59415e-08
3.5819e-08
3.56654e-08
3.55575e-08
3.54161e-08
3.53174e-08
3.51875e-08
3.50981e-08
3.49788e-08
3.48965e-08
3.4789e-08
3.47115e-08
3.46116e-08
3.45409e-08
3.44495e-08
3.43856e-08
3.43024e-08
3.42452e-08
3.41656e-08
3.41098e-08
3.40311e-08
3.39758e-08
3.38974e-08
3.38424e-08
3.37659e-08
3.37106e-08
3.3637e-08
3.35826e-08
3.35106e-08
3.34579e-08
3.33867e-08
3.33366e-08
3.32657e-08
3.3217e-08
3.31469e-08
3.30953e-08
3.30206e-08
3.33659e-08
3.88234e-06
3.20715e-08
1.24197e-07
1.2361e-07
1.21928e-07
1.18338e-07
1.13141e-07
1.07105e-07
1.0088e-07
9.48955e-08
8.93437e-08
8.43144e-08
7.97917e-08
7.57639e-08
7.21621e-08
6.89625e-08
6.60926e-08
6.35371e-08
6.12294e-08
5.9167e-08
5.72896e-08
5.56065e-08
5.40613e-08
5.26721e-08
5.13859e-08
5.02276e-08
4.91454e-08
4.81702e-08
4.725e-08
4.64225e-08
4.56334e-08
4.4925e-08
4.42428e-08
4.36332e-08
4.3039e-08
4.25106e-08
4.19894e-08
4.15292e-08
4.10694e-08
4.06667e-08
4.0259e-08
3.99056e-08
3.95423e-08
3.92309e-08
3.89055e-08
3.86295e-08
3.83366e-08
3.80924e-08
3.78279e-08
3.76104e-08
3.73705e-08
3.71779e-08
3.69586e-08
3.67869e-08
3.65872e-08
3.64342e-08
3.62525e-08
3.61133e-08
3.59475e-08
3.58246e-08
3.56703e-08
3.5562e-08
3.54201e-08
3.5321e-08
3.51906e-08
3.51008e-08
3.49811e-08
3.48984e-08
3.47905e-08
3.47127e-08
3.46124e-08
3.45414e-08
3.44496e-08
3.43855e-08
3.43019e-08
3.42444e-08
3.41645e-08
3.41085e-08
3.40295e-08
3.39741e-08
3.38954e-08
3.38403e-08
3.37635e-08
3.37082e-08
3.36341e-08
3.35797e-08
3.35073e-08
3.34546e-08
3.3383e-08
3.33328e-08
3.32615e-08
3.32128e-08
3.31423e-08
3.30907e-08
3.30158e-08
3.33694e-08
3.93244e-06
3.37044e-08
1.24195e-07
1.23607e-07
1.2194e-07
1.18378e-07
1.13213e-07
1.07202e-07
1.00994e-07
9.50191e-08
8.94711e-08
8.44417e-08
7.99162e-08
7.5884e-08
7.22769e-08
6.90714e-08
6.61957e-08
6.36343e-08
6.13209e-08
5.92529e-08
5.73704e-08
5.56823e-08
5.41325e-08
5.27389e-08
5.14487e-08
5.02866e-08
4.92008e-08
4.82223e-08
4.7299e-08
4.64685e-08
4.56768e-08
4.49658e-08
4.42812e-08
4.36693e-08
4.30731e-08
4.25426e-08
4.20196e-08
4.15577e-08
4.10962e-08
4.0692e-08
4.02828e-08
3.9928e-08
3.95633e-08
3.92507e-08
3.8924e-08
3.8647e-08
3.8353e-08
3.81078e-08
3.78422e-08
3.76239e-08
3.7383e-08
3.71897e-08
3.69695e-08
3.6797e-08
3.65966e-08
3.6443e-08
3.62605e-08
3.61207e-08
3.59543e-08
3.58308e-08
3.56759e-08
3.55671e-08
3.54246e-08
3.53251e-08
3.51941e-08
3.51039e-08
3.49837e-08
3.49007e-08
3.47923e-08
3.47142e-08
3.46134e-08
3.45421e-08
3.44499e-08
3.43855e-08
3.43015e-08
3.42438e-08
3.41635e-08
3.41073e-08
3.40279e-08
3.39724e-08
3.38935e-08
3.38383e-08
3.3761e-08
3.37058e-08
3.36312e-08
3.35767e-08
3.3504e-08
3.34511e-08
3.33791e-08
3.33289e-08
3.32572e-08
3.32084e-08
3.31374e-08
3.30859e-08
3.30109e-08
3.33732e-08
3.98383e-06
3.55517e-08
1.24193e-07
1.23603e-07
1.21953e-07
1.18421e-07
1.13289e-07
1.07305e-07
1.01116e-07
9.51512e-08
8.96076e-08
8.45781e-08
8.00498e-08
7.60129e-08
7.24002e-08
6.91886e-08
6.63066e-08
6.37388e-08
6.14193e-08
5.93455e-08
5.74574e-08
5.57639e-08
5.42093e-08
5.28109e-08
5.15164e-08
5.03502e-08
4.92606e-08
4.82785e-08
4.73519e-08
4.65183e-08
4.57236e-08
4.50099e-08
4.43228e-08
4.37085e-08
4.311e-08
4.25774e-08
4.20524e-08
4.15886e-08
4.11252e-08
4.07194e-08
4.03085e-08
3.99523e-08
3.95861e-08
3.92722e-08
3.89442e-08
3.8666e-08
3.83708e-08
3.81245e-08
3.78579e-08
3.76386e-08
3.73967e-08
3.72025e-08
3.69815e-08
3.68082e-08
3.66069e-08
3.64526e-08
3.62693e-08
3.61289e-08
3.59617e-08
3.58377e-08
3.56821e-08
3.55727e-08
3.54297e-08
3.53296e-08
3.51981e-08
3.51075e-08
3.49867e-08
3.49033e-08
3.47944e-08
3.4716e-08
3.46147e-08
3.45431e-08
3.44504e-08
3.43857e-08
3.43012e-08
3.42433e-08
3.41626e-08
3.41062e-08
3.40264e-08
3.39708e-08
3.38915e-08
3.38363e-08
3.37586e-08
3.37034e-08
3.36282e-08
3.35737e-08
3.35005e-08
3.34476e-08
3.33752e-08
3.33248e-08
3.32527e-08
3.32038e-08
3.31324e-08
3.3081e-08
3.30057e-08
3.33774e-08
4.03586e-06
3.76376e-08
1.2419e-07
1.23598e-07
1.21966e-07
1.18466e-07
1.13369e-07
1.07415e-07
1.01245e-07
9.52919e-08
8.97533e-08
8.47238e-08
8.01927e-08
7.61508e-08
7.25323e-08
6.93141e-08
6.64254e-08
6.38509e-08
6.1525e-08
5.94448e-08
5.75509e-08
5.58517e-08
5.42918e-08
5.28884e-08
5.15893e-08
5.04186e-08
4.9325e-08
4.8339e-08
4.74089e-08
4.65719e-08
4.57741e-08
4.50575e-08
4.43676e-08
4.37507e-08
4.31498e-08
4.26149e-08
4.20877e-08
4.16219e-08
4.11566e-08
4.0749e-08
4.03364e-08
3.99786e-08
3.96108e-08
3.92955e-08
3.89661e-08
3.86866e-08
3.83901e-08
3.81427e-08
3.78749e-08
3.76546e-08
3.74117e-08
3.72166e-08
3.69945e-08
3.68204e-08
3.66182e-08
3.64631e-08
3.62791e-08
3.6138e-08
3.59699e-08
3.58454e-08
3.5689e-08
3.5579e-08
3.54353e-08
3.53348e-08
3.52026e-08
3.51115e-08
3.49902e-08
3.49063e-08
3.47969e-08
3.47181e-08
3.46163e-08
3.45444e-08
3.44511e-08
3.43862e-08
3.43012e-08
3.4243e-08
3.41619e-08
3.41052e-08
3.4025e-08
3.39693e-08
3.38896e-08
3.38343e-08
3.37562e-08
3.3701e-08
3.36253e-08
3.35706e-08
3.3497e-08
3.3444e-08
3.33711e-08
3.33207e-08
3.32481e-08
3.31991e-08
3.31272e-08
3.30759e-08
3.30004e-08
3.3382e-08
4.08778e-06
3.99874e-08
1.24188e-07
1.23594e-07
1.21979e-07
1.18514e-07
1.13454e-07
1.0753e-07
1.01382e-07
9.54415e-08
8.99082e-08
8.4879e-08
8.0345e-08
7.6298e-08
7.26733e-08
6.94482e-08
6.65525e-08
6.39708e-08
6.16381e-08
5.95512e-08
5.7651e-08
5.59457e-08
5.43802e-08
5.29715e-08
5.16674e-08
5.04921e-08
4.93941e-08
4.8404e-08
4.74701e-08
4.66296e-08
4.58284e-08
4.51086e-08
4.44158e-08
4.37961e-08
4.31926e-08
4.26553e-08
4.21258e-08
4.16578e-08
4.11905e-08
4.0781e-08
4.03665e-08
4.0007e-08
3.96376e-08
3.93207e-08
3.89898e-08
3.8709e-08
3.84111e-08
3.81625e-08
3.78935e-08
3.76721e-08
3.74279e-08
3.72318e-08
3.70088e-08
3.68338e-08
3.66306e-08
3.64746e-08
3.62897e-08
3.61479e-08
3.5979e-08
3.58538e-08
3.56967e-08
3.5586e-08
3.54417e-08
3.53405e-08
3.52078e-08
3.51161e-08
3.49942e-08
3.49098e-08
3.47998e-08
3.47207e-08
3.46183e-08
3.4546e-08
3.44522e-08
3.43869e-08
3.43015e-08
3.4243e-08
3.41613e-08
3.41045e-08
3.40237e-08
3.39679e-08
3.38879e-08
3.38324e-08
3.37538e-08
3.36987e-08
3.36224e-08
3.35677e-08
3.34936e-08
3.34405e-08
3.33671e-08
3.33166e-08
3.32435e-08
3.31944e-08
3.31219e-08
3.30707e-08
3.2995e-08
3.33869e-08
4.13876e-06
4.26285e-08
1.24185e-07
1.23589e-07
1.21993e-07
1.18563e-07
1.13543e-07
1.07653e-07
1.01528e-07
9.55999e-08
9.00726e-08
8.50438e-08
8.0507e-08
7.64547e-08
7.28236e-08
6.95911e-08
6.66881e-08
6.40988e-08
6.17588e-08
5.96648e-08
5.77579e-08
5.60463e-08
5.44748e-08
5.30604e-08
5.17511e-08
5.05707e-08
4.94681e-08
4.84737e-08
4.75357e-08
4.66914e-08
4.58867e-08
4.51635e-08
4.44676e-08
4.38449e-08
4.32387e-08
4.26987e-08
4.21668e-08
4.16965e-08
4.1227e-08
4.08154e-08
4.0399e-08
4.00376e-08
3.96664e-08
3.9348e-08
3.90155e-08
3.87332e-08
3.84338e-08
3.81839e-08
3.79135e-08
3.7691e-08
3.74456e-08
3.72485e-08
3.70243e-08
3.68483e-08
3.66441e-08
3.64873e-08
3.63014e-08
3.61589e-08
3.5989e-08
3.58631e-08
3.57051e-08
3.55938e-08
3.54487e-08
3.5347e-08
3.52135e-08
3.51213e-08
3.49988e-08
3.49138e-08
3.48033e-08
3.47237e-08
3.46208e-08
3.45481e-08
3.44537e-08
3.43881e-08
3.4302e-08
3.42433e-08
3.41611e-08
3.41039e-08
3.40227e-08
3.39667e-08
3.38863e-08
3.38307e-08
3.37516e-08
3.36964e-08
3.36196e-08
3.35648e-08
3.34902e-08
3.34369e-08
3.3363e-08
3.33124e-08
3.32388e-08
3.31896e-08
3.31166e-08
3.30654e-08
3.29895e-08
3.33922e-08
4.18784e-06
4.55883e-08
1.24182e-07
1.23584e-07
1.22007e-07
1.18615e-07
1.13637e-07
1.07781e-07
1.01681e-07
9.57674e-08
9.02467e-08
8.52186e-08
8.06788e-08
7.66211e-08
7.29832e-08
6.97431e-08
6.68323e-08
6.42351e-08
6.18874e-08
5.97859e-08
5.7872e-08
5.61535e-08
5.45758e-08
5.31553e-08
5.18404e-08
5.06548e-08
4.95473e-08
4.85482e-08
4.76059e-08
4.67575e-08
4.5949e-08
4.52223e-08
4.4523e-08
4.38972e-08
4.3288e-08
4.27454e-08
4.22108e-08
4.17381e-08
4.12662e-08
4.08524e-08
4.04339e-08
4.00706e-08
3.96975e-08
3.93773e-08
3.90431e-08
3.87593e-08
3.84583e-08
3.82071e-08
3.79353e-08
3.77115e-08
3.74648e-08
3.72665e-08
3.70412e-08
3.68642e-08
3.66589e-08
3.65011e-08
3.63142e-08
3.61708e-08
3.6e-08
3.58734e-08
3.57145e-08
3.56025e-08
3.54566e-08
3.53542e-08
3.522e-08
3.51272e-08
3.5004e-08
3.49185e-08
3.48073e-08
3.47273e-08
3.46237e-08
3.45506e-08
3.44556e-08
3.43896e-08
3.4303e-08
3.42439e-08
3.41612e-08
3.41037e-08
3.4022e-08
3.39657e-08
3.38849e-08
3.38292e-08
3.37496e-08
3.36944e-08
3.36169e-08
3.3562e-08
3.34868e-08
3.34335e-08
3.3359e-08
3.33083e-08
3.32342e-08
3.31848e-08
3.31112e-08
3.30601e-08
3.29839e-08
3.33977e-08
4.23399e-06
4.88945e-08
1.2418e-07
1.23578e-07
1.22022e-07
1.18669e-07
1.13735e-07
1.07916e-07
1.01842e-07
9.59439e-08
9.04304e-08
8.54033e-08
8.08607e-08
7.67974e-08
7.31526e-08
6.99045e-08
6.69855e-08
6.43799e-08
6.20242e-08
5.99148e-08
5.79934e-08
5.62677e-08
5.46833e-08
5.32565e-08
5.19357e-08
5.07444e-08
4.96317e-08
4.86277e-08
4.76809e-08
4.68281e-08
4.60157e-08
4.52852e-08
4.45824e-08
4.39532e-08
4.33409e-08
4.27953e-08
4.22579e-08
4.17826e-08
4.13082e-08
4.08922e-08
4.04714e-08
4.01061e-08
3.97309e-08
3.94089e-08
3.90729e-08
3.87874e-08
3.84848e-08
3.82321e-08
3.79587e-08
3.77337e-08
3.74856e-08
3.72861e-08
3.70595e-08
3.68814e-08
3.66749e-08
3.65161e-08
3.63282e-08
3.6184e-08
3.60121e-08
3.58847e-08
3.57248e-08
3.56121e-08
3.54653e-08
3.53623e-08
3.52273e-08
3.51338e-08
3.50099e-08
3.49238e-08
3.48119e-08
3.47315e-08
3.46272e-08
3.45537e-08
3.4458e-08
3.43916e-08
3.43044e-08
3.42449e-08
3.41616e-08
3.41038e-08
3.40216e-08
3.39651e-08
3.38837e-08
3.38279e-08
3.37478e-08
3.36925e-08
3.36144e-08
3.35595e-08
3.34836e-08
3.34302e-08
3.33551e-08
3.33043e-08
3.32296e-08
3.31801e-08
3.31058e-08
3.30548e-08
3.29784e-08
3.34035e-08
4.27606e-06
5.25744e-08
1.24177e-07
1.23572e-07
1.22037e-07
1.18725e-07
1.13837e-07
1.08057e-07
1.02011e-07
9.61297e-08
9.06241e-08
8.55983e-08
8.10529e-08
7.69838e-08
7.33318e-08
7.00754e-08
6.71479e-08
6.45335e-08
6.21694e-08
6.00516e-08
5.81224e-08
5.63891e-08
5.47977e-08
5.33641e-08
5.20371e-08
5.08398e-08
4.97217e-08
4.87125e-08
4.77609e-08
4.69035e-08
4.60868e-08
4.53523e-08
4.46457e-08
4.40131e-08
4.33974e-08
4.28487e-08
4.23084e-08
4.18303e-08
4.13533e-08
4.09348e-08
4.05117e-08
4.01441e-08
3.97668e-08
3.94429e-08
3.91049e-08
3.88177e-08
3.85134e-08
3.8259e-08
3.79841e-08
3.77576e-08
3.7508e-08
3.73073e-08
3.70793e-08
3.69001e-08
3.66924e-08
3.65325e-08
3.63435e-08
3.61983e-08
3.60253e-08
3.58971e-08
3.57363e-08
3.56227e-08
3.5475e-08
3.53713e-08
3.52354e-08
3.51413e-08
3.50167e-08
3.49299e-08
3.48172e-08
3.47363e-08
3.46314e-08
3.45574e-08
3.4461e-08
3.43941e-08
3.43063e-08
3.42464e-08
3.41625e-08
3.41044e-08
3.40216e-08
3.39648e-08
3.38829e-08
3.3827e-08
3.37463e-08
3.36909e-08
3.36121e-08
3.35572e-08
3.34807e-08
3.34271e-08
3.33514e-08
3.33005e-08
3.32251e-08
3.31755e-08
3.31005e-08
3.30495e-08
3.29729e-08
3.34095e-08
4.31284e-06
5.66537e-08
1.24174e-07
1.23566e-07
1.22052e-07
1.18783e-07
1.13944e-07
1.08205e-07
1.02188e-07
9.63247e-08
9.08278e-08
8.58037e-08
8.12557e-08
7.71807e-08
7.35213e-08
7.02562e-08
6.73198e-08
6.46962e-08
6.23232e-08
6.01966e-08
5.82592e-08
5.6518e-08
5.49191e-08
5.34784e-08
5.21448e-08
5.09413e-08
4.98174e-08
4.88027e-08
4.7846e-08
4.69838e-08
4.61626e-08
4.54239e-08
4.47134e-08
4.40769e-08
4.34578e-08
4.29057e-08
4.23623e-08
4.18813e-08
4.14015e-08
4.09804e-08
4.05548e-08
4.01849e-08
3.98054e-08
3.94794e-08
3.91393e-08
3.88503e-08
3.85441e-08
3.82881e-08
3.80115e-08
3.77835e-08
3.75323e-08