/*--------------------------------*- C++ -*----------------------------------*\
| =========                 |                                                 |
| \\      /  F ield         | OpenFOAM: The Open Source CFD Toolbox           |
|  \\    /   O peration     | Version:  v2012                                 |
|   \\  /    A nd           | Website:  www.openfoam.com                      |
|    \\/     M anipulation  |                                                 |
\*---------------------------------------------------------------------------*/
FoamFile
{
    version     2.0;
    format      ascii;
    class       volScalarField;
    location    "52.5";
    object      yPlus;
}
// * * * * * * * * * * * * * * * * * * * * * * * * * * * * * * * * * * * * * //

dimensions      [0 0 0 0 0 0 0];


internalField   uniform 0;

boundaryField
{
    inlet
    {
        type            calculated;
        value           uniform 0;
    }
    outlet
    {
        type            calculated;
        value           uniform 0;
    }
    topWall
    {
        type            calculated;
        value           nonuniform List<scalar> 
545
(
0.153088
0.26398
0.338659
0.398085
0.448392
0.492408
0.531721
0.567332
0.599922
0.62998
0.657872
0.683882
0.708235
0.731114
0.75267
0.773029
0.7923
0.810574
0.827931
0.844443
0.860171
0.87517
0.88949
0.903174
0.916262
0.928792
0.940795
0.952302
0.963341
0.973937
0.984114
0.993893
1.0033
1.01234
1.02104
1.02942
1.03749
1.04526
1.05276
1.05998
1.06695
1.07367
1.08016
1.08642
1.09246
1.0983
1.10394
1.10939
1.11466
1.11975
1.12468
1.12944
1.13404
1.1385
1.14281
1.14698
1.15102
1.15494
1.15872
1.16239
1.16594
1.16938
1.17272
1.17595
1.17908
1.18211
1.18506
1.18791
1.19067
1.19335
1.19596
1.19848
1.20089
1.20323
1.20555
1.20785
1.21013
1.21239
1.21463
1.21686
1.21907
1.22126
1.22343
1.22559
1.22773
1.22986
1.23196
1.23405
1.23613
1.23818
1.24022
1.24225
1.24426
1.24625
1.24823
1.2502
1.25197
1.25355
1.25513
1.25671
1.25829
1.25987
1.26146
1.26304
1.26462
1.2662
1.26777
1.26935
1.27093
1.27251
1.27409
1.27567
1.27724
1.27882
1.28039
1.28197
1.28354
1.28512
1.28669
1.28827
1.28984
1.29141
1.29298
1.29456
1.29613
1.2977
1.29927
1.30083
1.3024
1.30397
1.30554
1.3071
1.30867
1.31024
1.3118
1.31336
1.31493
1.31649
1.31805
1.31961
1.32117
1.32273
1.32429
1.32585
1.3274
1.32896
1.33052
1.33207
1.33362
1.33518
1.33673
1.33828
1.33983
1.34138
1.34293
1.34448
1.34602
1.34757
1.34911
1.35066
1.3522
1.35374
1.35528
1.35682
1.35836
1.3599
1.36143
1.36297
1.3645
1.36603
1.36757
1.3691
1.37063
1.37215
1.37368
1.37521
1.37673
1.37825
1.37978
1.3813
1.38282
1.38433
1.38585
1.38737
1.38888
1.39039
1.39191
1.39342
1.39492
1.39643
1.39794
1.39944
1.40094
1.40244
1.40394
1.40544
1.40694
1.40843
1.40993
1.41142
1.41291
1.4144
1.41589
1.41737
1.41886
1.42034
1.42182
1.4233
1.42477
1.42625
1.42772
1.42919
1.43066
1.43213
1.4336
1.43506
1.43652
1.43799
1.43944
1.4409
1.44235
1.44381
1.44526
1.44671
1.44815
1.4496
1.45104
1.45248
1.45392
1.45536
1.45679
1.45822
1.45965
1.46108
1.46251
1.46393
1.46535
1.46677
1.46819
1.4696
1.47101
1.47242
1.47383
1.47523
1.47664
1.47804
1.47944
1.48083
1.48222
1.48361
1.485
1.48639
1.48777
1.48915
1.49053
1.4919
1.49327
1.49464
1.49601
1.49738
1.49874
1.5001
1.50145
1.50281
1.50416
1.50551
1.50685
1.50819
1.50953
1.51079
1.51198
1.51318
1.51439
1.5156
1.51683
1.51806
1.51929
1.52054
1.5218
1.52306
1.52433
1.52561
1.52689
1.52819
1.52949
1.5308
1.53212
1.53344
1.53477
1.53611
1.53746
1.53882
1.54018
1.54155
1.54293
1.54431
1.5457
1.5471
1.54851
1.54992
1.55134
1.55277
1.5542
1.55564
1.55709
1.55854
1.56
1.56147
1.56294
1.56442
1.5659
1.56739
1.56889
1.57039
1.57189
1.57341
1.57492
1.57644
1.57797
1.5795
1.58104
1.58258
1.58412
1.58567
1.58723
1.58878
1.59034
1.5919
1.59347
1.59504
1.59661
1.59819
1.59976
1.60134
1.60292
1.6045
1.60609
1.60767
1.60926
1.61084
1.61243
1.61401
1.6156
1.61719
1.61877
1.62035
1.62194
1.62352
1.62509
1.62667
1.62824
1.62981
1.63138
1.63295
1.6345
1.63606
1.63761
1.63916
1.6407
1.64223
1.64376
1.64528
1.6468
1.6483
1.6498
1.6513
1.65278
1.65425
1.65572
1.65717
1.65862
1.66005
1.66147
1.66288
1.66428
1.66567
1.66704
1.6684
1.66975
1.67108
1.6724
1.6737
1.67499
1.67626
1.67751
1.67875
1.67997
1.68117
1.68235
1.68351
1.68465
1.68578
1.68688
1.68796
1.68902
1.69006
1.69107
1.69206
1.69303
1.69398
1.69489
1.69579
1.69666
1.6975
1.69832
1.69911
1.69987
1.70061
1.70131
1.70199
1.70264
1.70326
1.70385
1.70441
1.70493
1.70543
1.7059
1.70633
1.70673
1.70711
1.70744
1.70775
1.70802
1.70825
1.70845
1.70862
1.70876
1.70886
1.70892
1.70895
1.70894
1.7089
1.70883
1.70871
1.70856
1.70838
1.70816
1.70791
1.70761
1.70728
1.70692
1.70652
1.70608
1.70561
1.7051
1.70456
1.70398
1.70337
1.70272
1.70204
1.70123
1.70032
1.69935
1.69836
1.69733
1.69628
1.69519
1.69408
1.69294
1.69178
1.6906
1.6894
1.68818
1.68694
1.68568
1.68442
1.68314
1.68185
1.68055
1.67924
1.67792
1.67661
1.67528
1.67395
1.67261
1.67128
1.66994
1.66861
1.66727
1.66595
1.66461
1.66329
1.66197
1.66066
1.65935
1.65805
1.65676
1.65548
1.6542
1.65294
1.65169
1.65045
1.64922
1.64801
1.6468
1.64562
1.64444
1.64329
1.64215
1.64102
1.63991
1.63882
1.63775
1.6367
1.63566
1.63464
1.63364
1.63267
1.63171
1.63078
1.62986
1.62898
1.62811
1.62726
1.62644
1.62564
1.62486
1.62411
1.62338
1.62268
1.62201
1.62136
1.62073
1.62013
1.61956
1.61901
1.61849
1.618
1.61753
1.61709
1.61668
1.6163
1.61594
1.61562
1.61532
1.61505
1.61481
1.6146
1.61441
1.61426
1.61413
1.61403
1.61396
1.61393
1.6139
)
;
    }
    bottomWall
    {
        type            calculated;
        value           nonuniform List<scalar> 
449
(
0.0027349
0.00479834
0.00537373
0.00532672
0.00525581
0.00515988
0.00506261
0.00497158
0.00488801
0.00481165
0.00474177
0.00467769
0.00461872
0.00456412
0.00451338
0.0044661
0.00442186
0.00438037
0.00434128
0.00430437
0.00426943
0.0042363
0.00420479
0.00417476
0.0041461
0.00411869
0.00409245
0.00406727
0.00404308
0.00401981
0.00399741
0.00397581
0.00395496
0.00393481
0.00391533
0.00389646
0.00387819
0.00386046
0.00384325
0.00382653
0.00381029
0.00379447
0.00377908
0.00376409
0.00374948
0.00373522
0.00372133
0.00370777
0.00369453
0.0036816
0.00366896
0.00365662
0.00364453
0.00363272
0.00362114
0.00360981
0.00359871
0.00358782
0.00357715
0.00356668
0.0035564
0.00354631
0.0035364
0.00352667
0.00351711
0.00350771
0.00349846
0.00348938
0.00348043
0.00347164
0.00346297
0.00345445
0.00344605
0.00343778
0.00342964
0.00342161
0.00341371
0.00340591
0.00339822
0.00339065
0.00338318
0.00337581
0.00336854
0.00336136
0.00335428
0.0033473
0.0033404
0.00333359
0.00332687
0.00332023
0.00331367
0.00330719
0.00330079
0.00329447
0.00328822
0.00328204
0.00327593
0.0032699
0.00326393
0.00325803
0.00325219
0.00324641
0.0032407
0.00323505
0.00322946
0.00322393
0.00321845
0.00321303
0.00320767
0.00320236
0.0031971
0.00319189
0.00318674
0.00318163
0.00317658
0.00317157
0.00316661
0.00316169
0.00315682
0.003152
0.00314721
0.00314247
0.00313778
0.00313312
0.00312851
0.00312393
0.0031194
0.0031149
0.00311044
0.00310602
0.00310163
0.00309728
0.00309297
0.00308869
0.00308445
0.00308024
0.00307606
0.00307192
0.0030678
0.00306372
0.00305967
0.00305566
0.00305167
0.00304771
0.00304378
0.00303988
0.00303601
0.00303217
0.00302835
0.00302456
0.0030208
0.00301707
0.00301336
0.00300968
0.00300602
0.00300239
0.00299878
0.00299519
0.00299163
0.0029881
0.00298459
0.0029811
0.00297763
0.00297419
0.00297077
0.00296737
0.00296399
0.00296063
0.0029573
0.00295398
0.00295069
0.00294741
0.00294416
0.0029411
0.00293823
0.00293535
0.00293246
0.00292956
0.00292665
0.00292373
0.00292081
0.00291787
0.00291493
0.00291197
0.00290901
0.00290604
0.00290306
0.00290007
0.00289707
0.00289407
0.00289105
0.00288803
0.002885
0.00288196
0.00287892
0.00287586
0.0028728
0.00286973
0.00286665
0.00286357
0.00286048
0.00285737
0.00285427
0.00285115
0.00284803
0.0028449
0.00284176
0.00283862
0.00283547
0.00283231
0.00282915
0.00282598
0.0028228
0.00281961
0.00281642
0.00281323
0.00281003
0.00280682
0.0028036
0.00280038
0.00279715
0.00279392
0.00279068
0.00278744
0.00278419
0.00278094
0.00277768
0.00277441
0.00277114
0.00276787
0.00276459
0.00276131
0.00275801
0.00275472
0.00275142
0.00274812
0.00274481
0.0027415
0.00273818
0.00273487
0.00273154
0.00272821
0.00272488
0.00272155
0.00271821
0.00271487
0.00271152
0.00270817
0.00270482
0.00270146
0.0026981
0.00269474
0.00269138
0.00268801
0.00268464
0.00268127
0.00267789
0.00267452
0.00267114
0.00266776
0.00266437
0.00266099
0.0026576
0.00265421
0.00265082
0.00264743
0.00264403
0.00264064
0.00263724
0.00263384
0.00263044
0.00262704
0.00262364
0.00262023
0.00261683
0.00261342
0.00261002
0.00260661
0.00260321
0.0025998
0.0025964
0.00259299
0.00258958
0.00258617
0.00258277
0.00257936
0.00257595
0.00257254
0.00256914
0.00256573
0.00256233
0.00255892
0.00255552
0.00255211
0.00254871
0.00254531
0.00254191
0.00253851
0.00253511
0.00253171
0.00252832
0.00252492
0.00252154
0.00251814
0.00251475
0.00251136
0.00250798
0.00250459
0.00250121
0.00249783
0.00249446
0.00249108
0.00248771
0.00248433
0.00248097
0.0024776
0.00247424
0.00247087
0.00246752
0.00246416
0.00246081
0.00245745
0.00245411
0.00245076
0.00244743
0.00244408
0.00244075
0.00243742
0.00243409
0.00243077
0.00242745
0.00242413
0.00242082
0.0024175
0.0024142
0.0024109
0.0024076
0.0024043
0.00240101
0.00239772
0.00239444
0.00239116
0.00238789
0.00238462
0.00238135
0.00237809
0.00237484
0.00237158
0.00236834
0.00236509
0.00236185
0.00235862
0.00235539
0.00235216
0.00234859
0.00234469
0.00234085
0.00233706
0.00233334
0.00232965
0.00232603
0.00232245
0.00231893
0.00231545
0.00231202
0.00230863
0.00230529
0.00230199
0.00229874
0.00229552
0.00229236
0.00228922
0.00228613
0.00228307
0.00228006
0.00227708
0.00227414
0.00227122
0.00226835
0.00226551
0.0022627
0.00225992
0.00225718
0.00225447
0.00225179
0.00224913
0.00224651
0.00224391
0.00224135
0.00223881
0.0022363
0.00223381
0.00223136
0.00222892
0.00222652
0.00222413
0.00222177
0.00221943
0.00221713
0.00221483
0.00221257
0.00221032
0.0022081
0.0022059
0.00220372
0.00220155
0.00219942
0.0021973
0.0021952
0.00219311
0.00219106
0.00218901
0.00218699
0.00218497
0.00218299
0.00218101
0.00217906
0.00217712
0.0021752
0.00217329
0.00217141
0.00216952
0.00216768
0.00216582
0.00216401
0.00216217
0.00216039
0.00215859
0.00215684
0.00215505
0.00215334
0.00215157
0.0021499
0.00214814
0.0021465
0.00214475
0.00214316
0.00214142
0.00213985
0.00213812
0.00213658
0.00213488
0.00213332
0.00213171
0.00213001
0.00212872
0.00212649
0.00212616
0.00212298
)
;
    }
    symmetry
    {
        type            symmetryPlane;
    }
    frontAndBack
    {
        type            empty;
    }
}


// ************************************************************************* //
