/*--------------------------------*- C++ -*----------------------------------*\
| =========                 |                                                 |
| \\      /  F ield         | OpenFOAM: The Open Source CFD Toolbox           |
|  \\    /   O peration     | Version:  v2012                                 |
|   \\  /    A nd           | Website:  www.openfoam.com                      |
|    \\/     M anipulation  |                                                 |
\*---------------------------------------------------------------------------*/
FoamFile
{
    version     2.0;
    format      ascii;
    class       volScalarField;
    location    "34";
    object      epsilon;
}
// * * * * * * * * * * * * * * * * * * * * * * * * * * * * * * * * * * * * * //

dimensions      [0 2 -3 0 0 0 0];


internalField   nonuniform List<scalar> 
209825
(
0.756098
0.639206
0.567178
0.522157
0.492527
0.472002
0.457097
0.44592
0.43725
0.430409
0.424857
0.420323
0.41652
0.413334
0.41059
0.408256
0.406202
0.404434
0.402848
0.401473
0.400218
0.399124
0.39811
0.397227
0.396399
0.395676
0.394988
0.394392
0.39382
0.393321
0.392836
0.392423
0.392016
0.39167
0.391321
0.391035
0.390741
0.390494
0.390241
0.390035
0.389821
0.389657
0.389479
0.389333
0.389177
0.38907
0.388941
0.388837
0.388733
0.388669
0.38856
0.388488
0.388438
0.388397
0.388358
0.388258
0.388276
0.388275
0.388266
0.388347
0.388351
0.38835
0.388417
0.388465
0.388524
0.388617
0.388716
0.388816
0.388882
0.389001
0.389085
0.389228
0.389335
0.389507
0.389615
0.389818
0.389925
0.390152
0.390278
0.390543
0.390689
0.390999
0.391172
0.391531
0.39173
0.392148
0.392383
0.392878
0.393157
0.393775
0.394092
0.395058
0.395339
0.400548
3.00727
550.75
0.756098
0.639205
0.567172
0.522147
0.492514
0.471986
0.457079
0.445901
0.437229
0.430388
0.424835
0.4203
0.416496
0.413309
0.410565
0.408231
0.406176
0.404408
0.402822
0.401446
0.400191
0.399097
0.398083
0.397201
0.396372
0.395649
0.394961
0.394365
0.393793
0.393294
0.392808
0.392395
0.391988
0.391642
0.391293
0.391007
0.390713
0.390466
0.390213
0.390007
0.389792
0.389629
0.389451
0.389305
0.389149
0.389042
0.388912
0.388808
0.388704
0.388641
0.388532
0.38846
0.388409
0.388368
0.388329
0.38823
0.388247
0.388247
0.388237
0.388318
0.388322
0.388322
0.388388
0.388436
0.388495
0.388589
0.388687
0.388787
0.388853
0.388972
0.389056
0.389199
0.389306
0.389478
0.389586
0.389789
0.389896
0.390123
0.390249
0.390514
0.39066
0.39097
0.391142
0.391501
0.391701
0.392119
0.392354
0.392849
0.393128
0.393745
0.394062
0.395029
0.395309
0.400527
3.01241
547.434
0.756101
0.639196
0.567144
0.522102
0.492454
0.471917
0.457001
0.445817
0.43714
0.430295
0.424739
0.420201
0.416395
0.413207
0.41046
0.408125
0.406069
0.4043
0.402713
0.401336
0.400081
0.398986
0.397971
0.397088
0.396259
0.395536
0.394847
0.39425
0.393678
0.393179
0.392693
0.39228
0.391872
0.391526
0.391176
0.39089
0.390596
0.390349
0.390096
0.38989
0.389675
0.389511
0.389333
0.389187
0.389031
0.388923
0.388794
0.38869
0.388586
0.388522
0.388413
0.388341
0.38829
0.388249
0.38821
0.38811
0.388128
0.388127
0.388117
0.388198
0.388202
0.388202
0.388268
0.388316
0.388375
0.388468
0.388567
0.388666
0.388732
0.388852
0.388935
0.389078
0.389185
0.389357
0.389465
0.389668
0.389774
0.390002
0.390127
0.390392
0.390538
0.390848
0.39102
0.391379
0.391579
0.391996
0.392231
0.392726
0.393004
0.393622
0.393938
0.394905
0.395184
0.400418
3.02341
543.541
0.756107
0.63918
0.567096
0.522024
0.492354
0.471799
0.45687
0.445675
0.43699
0.430138
0.424577
0.420035
0.416225
0.413033
0.410284
0.407946
0.405888
0.404118
0.402529
0.401151
0.399894
0.398798
0.397782
0.396898
0.396068
0.395344
0.394654
0.394057
0.393484
0.392985
0.392498
0.392084
0.391677
0.391329
0.39098
0.390693
0.390399
0.390151
0.389897
0.389692
0.389476
0.389312
0.389134
0.388988
0.388831
0.388724
0.388594
0.388489
0.388385
0.388321
0.388212
0.38814
0.388089
0.388048
0.388009
0.387909
0.387926
0.387926
0.387915
0.387996
0.387999
0.387999
0.388065
0.388113
0.388172
0.388265
0.388364
0.388463
0.388529
0.388648
0.388731
0.388874
0.388981
0.389153
0.38926
0.389463
0.38957
0.389797
0.389922
0.390186
0.390333
0.390642
0.390814
0.391173
0.391372
0.391789
0.392023
0.392518
0.392796
0.393413
0.393729
0.394695
0.394972
0.400231
3.04066
539.846
0.756114
0.639157
0.567027
0.521914
0.492211
0.471632
0.456684
0.445475
0.436778
0.429917
0.424348
0.419799
0.415984
0.412788
0.410035
0.407694
0.405633
0.40386
0.402268
0.400888
0.39963
0.398532
0.397515
0.396629
0.395798
0.395073
0.394382
0.393784
0.39321
0.39271
0.392223
0.391808
0.3914
0.391052
0.390702
0.390415
0.39012
0.389871
0.389618
0.389411
0.389195
0.389031
0.388852
0.388706
0.388549
0.388441
0.388311
0.388207
0.388102
0.388038
0.387929
0.387856
0.387805
0.387764
0.387724
0.387625
0.387641
0.387641
0.38763
0.38771
0.387713
0.387713
0.387779
0.387826
0.387886
0.387978
0.388076
0.388176
0.388241
0.38836
0.388443
0.388586
0.388692
0.388864
0.388971
0.389174
0.38928
0.389507
0.389632
0.389896
0.390042
0.390351
0.390523
0.390881
0.39108
0.391496
0.39173
0.392224
0.392501
0.393117
0.393433
0.394398
0.394674
0.399967
3.06463
536.693
0.756123
0.639128
0.566939
0.521772
0.492027
0.471415
0.456443
0.445215
0.436503
0.42963
0.424051
0.419494
0.415672
0.41247
0.409712
0.407367
0.405302
0.403525
0.401931
0.400548
0.399287
0.398187
0.397168
0.396281
0.395448
0.394722
0.39403
0.393431
0.392856
0.392354
0.391866
0.39145
0.391041
0.390693
0.390342
0.390054
0.389758
0.389509
0.389255
0.389048
0.388832
0.388667
0.388487
0.388341
0.388183
0.388075
0.387945
0.38784
0.387735
0.387671
0.387561
0.387488
0.387437
0.387395
0.387356
0.387256
0.387271
0.387271
0.387259
0.387339
0.387342
0.387342
0.387408
0.387455
0.387514
0.387606
0.387704
0.387803
0.387868
0.387987
0.38807
0.388212
0.388318
0.38849
0.388596
0.388799
0.388905
0.389131
0.389256
0.389519
0.389665
0.389974
0.390145
0.390502
0.390701
0.391116
0.39135
0.391842
0.39212
0.392734
0.393049
0.394013
0.394286
0.399623
3.09577
534.249
0.756135
0.639092
0.56683
0.521597
0.4918
0.471149
0.456146
0.444895
0.436164
0.429276
0.423685
0.419118
0.415287
0.412078
0.409314
0.406963
0.404894
0.403113
0.401515
0.400129
0.398865
0.397763
0.396741
0.395852
0.395017
0.394289
0.393595
0.392995
0.392418
0.391915
0.391426
0.391009
0.390599
0.390249
0.389898
0.389609
0.389312
0.389063
0.388808
0.3886
0.388383
0.388218
0.388038
0.38789
0.387733
0.387624
0.387493
0.387388
0.387282
0.387218
0.387108
0.387035
0.386983
0.386941
0.386901
0.386801
0.386816
0.386815
0.386803
0.386882
0.386885
0.386885
0.38695
0.386997
0.387056
0.387147
0.387245
0.387344
0.387409
0.387527
0.38761
0.387751
0.387857
0.388028
0.388134
0.388337
0.388442
0.388668
0.388792
0.389055
0.3892
0.389508
0.389679
0.390035
0.390234
0.390648
0.390881
0.391373
0.391649
0.392262
0.392576
0.393538
0.393809
0.3992
3.13455
532.57
0.756149
0.63905
0.5667
0.521389
0.49153
0.470831
0.455793
0.444513
0.435761
0.428855
0.423249
0.41867
0.414829
0.411611
0.40884
0.406483
0.404407
0.402622
0.401019
0.39963
0.398362
0.397257
0.396232
0.395341
0.394503
0.393773
0.393077
0.392475
0.391897
0.391393
0.390901
0.390484
0.390072
0.389722
0.389369
0.389079
0.388781
0.388531
0.388275
0.388067
0.387849
0.387683
0.387502
0.387354
0.387196
0.387086
0.386955
0.386849
0.386743
0.386678
0.386568
0.386494
0.386442
0.3864
0.38636
0.38626
0.386273
0.386272
0.386259
0.386338
0.38634
0.38634
0.386405
0.386451
0.38651
0.3866
0.386698
0.386797
0.386861
0.386979
0.387061
0.387202
0.387308
0.387478
0.387584
0.387786
0.387891
0.388116
0.38824
0.388502
0.388647
0.388954
0.389124
0.389479
0.389677
0.39009
0.390323
0.390813
0.391088
0.3917
0.392012
0.392973
0.39324
0.398697
3.18144
531.648
0.756166
0.639001
0.56655
0.521147
0.491216
0.470463
0.455383
0.444071
0.435292
0.428365
0.422742
0.418149
0.414296
0.411069
0.408288
0.405924
0.403842
0.402051
0.400443
0.399049
0.397778
0.396669
0.395641
0.394746
0.393906
0.393173
0.392475
0.391871
0.391291
0.390785
0.390292
0.389873
0.389459
0.389107
0.388753
0.388462
0.388164
0.387912
0.387655
0.387446
0.387227
0.38706
0.386879
0.38673
0.386571
0.386461
0.386329
0.386223
0.386116
0.38605
0.38594
0.385866
0.385813
0.38577
0.38573
0.38563
0.385642
0.385641
0.385627
0.385704
0.385707
0.385706
0.385771
0.385816
0.385875
0.385965
0.386061
0.38616
0.386224
0.386341
0.386423
0.386564
0.386668
0.386838
0.386944
0.387145
0.387249
0.387474
0.387597
0.387859
0.388003
0.388309
0.388478
0.388833
0.38903
0.389442
0.389673
0.390161
0.390436
0.391046
0.391356
0.392316
0.392579
0.398113
3.23689
531.421
0.756184
0.638946
0.56638
0.520873
0.49086
0.470043
0.454915
0.443565
0.434757
0.427806
0.422164
0.417555
0.413688
0.410449
0.407659
0.405286
0.403197
0.401399
0.399785
0.398386
0.39711
0.395997
0.394965
0.394067
0.393224
0.392488
0.391788
0.391181
0.390598
0.39009
0.389596
0.389174
0.38876
0.388406
0.38805
0.387758
0.387458
0.387206
0.386947
0.386737
0.386517
0.38635
0.386167
0.386018
0.385858
0.385747
0.385614
0.385507
0.3854
0.385334
0.385223
0.385148
0.385094
0.385051
0.38501
0.38491
0.384921
0.38492
0.384905
0.384981
0.384983
0.384982
0.385047
0.385091
0.385149
0.385238
0.385335
0.385433
0.385496
0.385613
0.385694
0.385834
0.385938
0.386108
0.386212
0.386413
0.386517
0.38674
0.386863
0.387124
0.387267
0.387572
0.387741
0.388094
0.38829
0.3887
0.388931
0.389418
0.389691
0.390299
0.390608
0.391565
0.391824
0.397447
3.3013
531.792
0.756205
0.638884
0.56619
0.520565
0.490459
0.469572
0.454389
0.442997
0.434155
0.427178
0.421513
0.416886
0.413004
0.409752
0.40695
0.404567
0.40247
0.400665
0.399045
0.39764
0.396358
0.39524
0.394204
0.393302
0.392456
0.391717
0.391013
0.390404
0.389819
0.389308
0.388811
0.388388
0.387972
0.387616
0.387259
0.386965
0.386664
0.38641
0.38615
0.385939
0.385718
0.385549
0.385365
0.385215
0.385054
0.384943
0.384809
0.384702
0.384593
0.384526
0.384415
0.384339
0.384285
0.384241
0.3842
0.3841
0.384109
0.384107
0.384091
0.384166
0.384168
0.384167
0.384231
0.384275
0.384333
0.384421
0.384516
0.384615
0.384676
0.384792
0.384873
0.385013
0.385116
0.385285
0.385389
0.385588
0.385692
0.385914
0.386037
0.386296
0.386439
0.386742
0.386911
0.387262
0.387457
0.387866
0.388096
0.38858
0.388852
0.389457
0.389764
0.390719
0.390973
0.396698
3.37508
532.641
0.756229
0.638817
0.565979
0.520223
0.490014
0.469048
0.453804
0.442365
0.433486
0.426478
0.420789
0.416141
0.412242
0.408975
0.406162
0.403768
0.401661
0.399847
0.39822
0.396809
0.395521
0.394398
0.393357
0.392451
0.3916
0.390858
0.390151
0.389539
0.388951
0.388438
0.387938
0.387513
0.387094
0.386737
0.386378
0.386082
0.385779
0.385524
0.385263
0.38505
0.384828
0.384658
0.384473
0.384322
0.38416
0.384047
0.383913
0.383804
0.383695
0.383627
0.383516
0.383439
0.383384
0.383339
0.383298
0.383197
0.383205
0.383203
0.383185
0.383259
0.38326
0.383259
0.383323
0.383366
0.383423
0.38351
0.383605
0.383703
0.383763
0.383879
0.383959
0.384098
0.3842
0.384368
0.384472
0.38467
0.384773
0.384995
0.385117
0.385374
0.385517
0.385818
0.385986
0.386335
0.38653
0.386937
0.387165
0.387647
0.387918
0.38852
0.388825
0.389778
0.390027
0.395867
3.45857
533.833
0.756254
0.638743
0.565749
0.519848
0.489524
0.468471
0.453161
0.441669
0.432749
0.425707
0.419991
0.415321
0.411403
0.40812
0.405292
0.402886
0.400769
0.398946
0.397311
0.395892
0.394598
0.393469
0.392423
0.391512
0.390657
0.389911
0.3892
0.388584
0.387993
0.387478
0.386976
0.386548
0.386127
0.385767
0.385406
0.385109
0.384804
0.384547
0.384284
0.38407
0.383846
0.383674
0.383488
0.383336
0.383173
0.383059
0.382924
0.382815
0.382704
0.382636
0.382524
0.382446
0.38239
0.382344
0.382303
0.382202
0.382208
0.382205
0.382186
0.382258
0.382259
0.382258
0.382321
0.382363
0.382419
0.382505
0.382599
0.382697
0.382756
0.382871
0.382951
0.383089
0.38319
0.383358
0.38346
0.383657
0.38376
0.38398
0.384101
0.384358
0.384499
0.384799
0.384966
0.385313
0.385507
0.385911
0.386139
0.386618
0.386888
0.387487
0.387789
0.388739
0.388982
0.39495
3.55204
535.225
0.756283
0.638664
0.565498
0.519439
0.488991
0.467841
0.452457
0.440909
0.431943
0.424865
0.419118
0.414423
0.410484
0.407184
0.404341
0.401922
0.399793
0.39796
0.396316
0.394889
0.393588
0.392453
0.391401
0.390485
0.389625
0.388874
0.38816
0.38754
0.386946
0.386427
0.385922
0.385491
0.385067
0.384706
0.384342
0.384043
0.383736
0.383477
0.383213
0.382997
0.382771
0.382598
0.382411
0.382258
0.382093
0.381978
0.381841
0.381731
0.38162
0.38155
0.381438
0.381359
0.381302
0.381255
0.381213
0.381113
0.381117
0.381113
0.381092
0.381163
0.381164
0.381162
0.381224
0.381265
0.381321
0.381405
0.381498
0.381596
0.381654
0.381769
0.381847
0.381984
0.382085
0.382251
0.382352
0.382549
0.382651
0.382869
0.38299
0.383245
0.383385
0.383683
0.383849
0.384195
0.384387
0.384789
0.385015
0.385492
0.38576
0.386355
0.386656
0.387603
0.38784
0.393949
3.65569
536.675
0.756313
0.638579
0.565227
0.518998
0.488413
0.467159
0.451695
0.440083
0.431067
0.42395
0.41817
0.413448
0.409486
0.406166
0.403307
0.400874
0.398732
0.396888
0.395234
0.393799
0.39249
0.391348
0.39029
0.389368
0.388503
0.387747
0.387028
0.386405
0.385806
0.385284
0.384776
0.384343
0.383916
0.383552
0.383185
0.382884
0.382575
0.382314
0.382048
0.38183
0.381603
0.381428
0.381239
0.381085
0.380918
0.380802
0.380664
0.380553
0.38044
0.38037
0.380257
0.380177
0.380119
0.380071
0.380029
0.379928
0.37993
0.379926
0.379903
0.379972
0.379972
0.37997
0.380031
0.380071
0.380127
0.38021
0.380302
0.380399
0.380456
0.380569
0.380647
0.380783
0.380882
0.381048
0.381148
0.381343
0.381445
0.381662
0.381781
0.382034
0.382174
0.38247
0.382635
0.382978
0.38317
0.383569
0.383794
0.384267
0.384533
0.385125
0.385423
0.386367
0.386597
0.392862
3.76961
538.045
0.756347
0.638488
0.564937
0.518522
0.48779
0.466423
0.450872
0.439192
0.430123
0.422961
0.417147
0.412395
0.408408
0.405067
0.40219
0.399741
0.397586
0.39573
0.394065
0.392621
0.391303
0.390154
0.389089
0.388161
0.38729
0.386529
0.385806
0.385178
0.384575
0.384049
0.383537
0.383101
0.382671
0.382304
0.381935
0.381631
0.381319
0.381057
0.380788
0.380569
0.38034
0.380163
0.379973
0.379817
0.379649
0.379531
0.379392
0.37928
0.379166
0.379094
0.37898
0.3789
0.37884
0.378791
0.378748
0.378648
0.378648
0.378642
0.378617
0.378684
0.378684
0.378682
0.378742
0.37878
0.378835
0.378917
0.379008
0.379105
0.37916
0.379273
0.379349
0.379485
0.379582
0.379747
0.379846
0.38004
0.380141
0.380356
0.380475
0.380726
0.380865
0.381159
0.381322
0.381663
0.381853
0.38225
0.382473
0.382943
0.383208
0.383795
0.384091
0.385031
0.385255
0.391688
3.89379
539.206
0.756382
0.638393
0.564628
0.518014
0.487123
0.465634
0.449988
0.438236
0.429108
0.4219
0.416047
0.411263
0.407249
0.403886
0.400989
0.398523
0.396353
0.394485
0.392809
0.391354
0.390027
0.38887
0.387797
0.386862
0.385985
0.385219
0.38449
0.383858
0.383251
0.382721
0.382205
0.381765
0.381332
0.380962
0.38059
0.380283
0.379969
0.379704
0.379434
0.379212
0.378981
0.378803
0.37861
0.378453
0.378283
0.378164
0.378023
0.37791
0.377794
0.377721
0.377607
0.377525
0.377464
0.377414
0.377371
0.37727
0.377268
0.377261
0.377235
0.377299
0.377299
0.377296
0.377355
0.377391
0.377446
0.377526
0.377616
0.377712
0.377766
0.377878
0.377953
0.378088
0.378184
0.378347
0.378445
0.378638
0.378738
0.378952
0.379069
0.379319
0.379456
0.379748
0.37991
0.380248
0.380437
0.380831
0.381052
0.381519
0.381781
0.382365
0.382657
0.383594
0.38381
0.390426
4.02804
540.043
0.756421
0.638292
0.5643
0.517473
0.486412
0.464792
0.449045
0.437213
0.428023
0.420764
0.41487
0.410052
0.40601
0.402622
0.399704
0.39722
0.395034
0.393152
0.391463
0.389997
0.388661
0.387495
0.386414
0.385472
0.384589
0.383817
0.383082
0.382444
0.381833
0.381299
0.380779
0.380335
0.379898
0.379525
0.37915
0.37884
0.378524
0.378256
0.377983
0.377759
0.377526
0.377346
0.377151
0.376992
0.376821
0.3767
0.376558
0.376443
0.376326
0.376252
0.376136
0.376053
0.375991
0.375939
0.375895
0.375795
0.37579
0.375782
0.375753
0.375815
0.375815
0.375811
0.37587
0.375904
0.375959
0.376037
0.376125
0.376221
0.376273
0.376384
0.376458
0.376592
0.376687
0.376849
0.376945
0.377136
0.377235
0.377447
0.377564
0.377811
0.377948
0.378237
0.378397
0.378733
0.37892
0.379311
0.379531
0.379994
0.380254
0.380833
0.381122
0.382056
0.382264
0.389075
4.17202
540.45
0.756462
0.638187
0.563953
0.5169
0.485657
0.463896
0.448041
0.436125
0.426868
0.419555
0.413616
0.408761
0.404688
0.401274
0.398334
0.39583
0.393628
0.39173
0.390028
0.388551
0.387204
0.386028
0.384939
0.38399
0.383099
0.382321
0.38158
0.380937
0.38032
0.379782
0.379258
0.37881
0.378369
0.377993
0.377614
0.377301
0.376981
0.376712
0.376436
0.37621
0.375974
0.375791
0.375595
0.375434
0.37526
0.375138
0.374994
0.374878
0.374759
0.374684
0.374567
0.374483
0.374419
0.374366
0.374321
0.374221
0.374214
0.374205
0.374173
0.374233
0.374232
0.374228
0.374285
0.374318
0.374372
0.374448
0.374535
0.37463
0.37468
0.37479
0.374863
0.374995
0.375089
0.37525
0.375345
0.375534
0.375632
0.375842
0.375958
0.376203
0.376338
0.376624
0.376784
0.377117
0.377302
0.37769
0.377907
0.378367
0.378624
0.379199
0.379484
0.380414
0.380615
0.387633
4.32518
540.341
0.756505
0.638077
0.563588
0.516295
0.484858
0.462948
0.446977
0.434971
0.425642
0.418271
0.412285
0.407391
0.403285
0.399843
0.396878
0.394354
0.392133
0.39022
0.388504
0.387014
0.385656
0.38447
0.383372
0.382414
0.381516
0.380731
0.379984
0.379335
0.378713
0.378169
0.37764
0.377188
0.376743
0.376363
0.375981
0.375665
0.375342
0.37507
0.374791
0.374563
0.374324
0.374139
0.37394
0.373778
0.373602
0.373477
0.373332
0.373215
0.373094
0.373017
0.3729
0.372814
0.372748
0.372694
0.372648
0.372548
0.372538
0.372528
0.372494
0.37255
0.37255
0.372544
0.3726
0.372631
0.372684
0.372758
0.372844
0.372939
0.372987
0.373095
0.373168
0.373298
0.37339
0.37355
0.373644
0.373831
0.373928
0.374136
0.374251
0.374493
0.374627
0.374911
0.375069
0.375398
0.375582
0.375966
0.376182
0.376637
0.376892
0.377462
0.377744
0.37867
0.378862
0.3861
4.48674
539.644
0.756551
0.637964
0.563205
0.515658
0.484015
0.461947
0.445853
0.433751
0.424345
0.416913
0.410876
0.40594
0.401799
0.398327
0.395337
0.392791
0.390551
0.388621
0.38689
0.385386
0.384016
0.38282
0.381712
0.380745
0.379839
0.379046
0.378293
0.377638
0.37701
0.376461
0.375927
0.375471
0.375021
0.374637
0.374252
0.373932
0.373606
0.37333
0.373048
0.372817
0.372576
0.372389
0.372187
0.372023
0.371845
0.371718
0.371571
0.371452
0.371329
0.37125
0.371132
0.371045
0.370977
0.370922
0.370875
0.370775
0.370762
0.370751
0.370714
0.370767
0.370767
0.37076
0.370815
0.370844
0.370897
0.370968
0.371053
0.371146
0.371193
0.3713
0.371371
0.3715
0.37159
0.371748
0.371841
0.372027
0.372122
0.372328
0.372442
0.372681
0.372814
0.373094
0.373251
0.373577
0.373759
0.37414
0.374353
0.374804
0.375057
0.375621
0.375899
0.376821
0.377005
0.384474
4.65567
538.29
0.756599
0.637846
0.562806
0.51499
0.48313
0.460893
0.444669
0.432465
0.422978
0.41548
0.40939
0.404409
0.400231
0.396727
0.39371
0.391141
0.38888
0.386932
0.385185
0.383667
0.382285
0.381077
0.379959
0.378983
0.378068
0.377267
0.376507
0.375845
0.375211
0.374657
0.374118
0.373656
0.373202
0.372814
0.372424
0.372101
0.371771
0.371492
0.371207
0.370973
0.370729
0.370539
0.370335
0.370169
0.369988
0.36986
0.369711
0.36959
0.369465
0.369384
0.369265
0.369176
0.369107
0.369049
0.369002
0.368902
0.368886
0.368873
0.368834
0.368884
0.368884
0.368876
0.368929
0.368955
0.369007
0.369077
0.36916
0.369253
0.369297
0.369403
0.369472
0.3696
0.369689
0.369845
0.369936
0.37012
0.370214
0.370418
0.37053
0.370767
0.370898
0.371176
0.37133
0.371653
0.371833
0.37221
0.372421
0.372867
0.373117
0.373676
0.37395
0.374868
0.375043
0.382753
4.83067
536.234
0.75665
0.637725
0.562389
0.514291
0.482203
0.459787
0.443426
0.431113
0.421541
0.413973
0.407826
0.402798
0.39858
0.395043
0.391997
0.389403
0.38712
0.385153
0.383389
0.381857
0.380461
0.379241
0.378112
0.377126
0.376202
0.375393
0.374625
0.373956
0.373316
0.372756
0.372211
0.371744
0.371286
0.370893
0.370499
0.370172
0.369838
0.369556
0.369267
0.369031
0.368783
0.368591
0.368384
0.368215
0.368032
0.367901
0.36775
0.367628
0.3675
0.367418
0.367298
0.367207
0.367135
0.367076
0.367028
0.366928
0.366909
0.366894
0.366853
0.366899
0.366899
0.36689
0.366941
0.366965
0.367017
0.367084
0.367165
0.367257
0.367299
0.367403
0.367471
0.367598
0.367684
0.367839
0.367928
0.36811
0.368204
0.368405
0.368515
0.36875
0.368879
0.369153
0.369306
0.369626
0.369804
0.370176
0.370385
0.370827
0.371074
0.371627
0.371897
0.37281
0.372977
0.380936
5.01011
533.438
0.756704
0.637602
0.561957
0.513563
0.481233
0.45863
0.442123
0.429696
0.420033
0.412392
0.406185
0.401107
0.396847
0.393275
0.390198
0.387578
0.385272
0.383284
0.381503
0.379955
0.378544
0.377311
0.376171
0.375175
0.374241
0.373424
0.372648
0.371972
0.371324
0.370758
0.370207
0.369735
0.369271
0.368874
0.368475
0.368144
0.367806
0.367521
0.367229
0.366989
0.366738
0.366542
0.366333
0.366162
0.365976
0.365843
0.365689
0.365565
0.365435
0.365351
0.36523
0.365137
0.365063
0.365002
0.364953
0.364852
0.364831
0.364815
0.36477
0.364813
0.364813
0.364802
0.364852
0.364873
0.364924
0.364989
0.365068
0.365159
0.365198
0.365302
0.365368
0.365493
0.365578
0.36573
0.365818
0.365997
0.36609
0.366288
0.366397
0.366629
0.366757
0.367028
0.367179
0.367494
0.36767
0.368038
0.368245
0.368681
0.368925
0.369473
0.369738
0.370647
0.370805
0.37902
5.19206
529.873
0.75676
0.637475
0.56151
0.512805
0.480223
0.457422
0.440762
0.428214
0.418455
0.410737
0.404467
0.399336
0.395032
0.391422
0.388313
0.385665
0.383335
0.381326
0.379525
0.377961
0.376535
0.375289
0.374136
0.373129
0.372185
0.371359
0.370574
0.36989
0.369236
0.368663
0.368106
0.367628
0.367159
0.366757
0.366353
0.366018
0.365676
0.365386
0.365091
0.364847
0.364593
0.364394
0.364182
0.364008
0.36382
0.363684
0.363528
0.363402
0.36327
0.363184
0.363061
0.362966
0.36289
0.362827
0.362777
0.362676
0.362651
0.362633
0.362586
0.362625
0.362625
0.362613
0.36266
0.362679
0.36273
0.362791
0.362869
0.362959
0.362995
0.363097
0.363162
0.363285
0.363368
0.363519
0.363605
0.363782
0.363873
0.364069
0.364176
0.364405
0.364531
0.364798
0.364947
0.365259
0.365433
0.365796
0.366
0.366431
0.366672
0.367213
0.367475
0.368378
0.368528
0.377004
5.37424
525.515
0.756818
0.637346
0.561047
0.51202
0.479172
0.456164
0.439342
0.426668
0.416808
0.409009
0.402671
0.397486
0.393135
0.389485
0.386343
0.383665
0.381309
0.379278
0.377457
0.375875
0.374434
0.373174
0.372008
0.370989
0.370035
0.369199
0.368405
0.367713
0.367051
0.366471
0.365908
0.365424
0.364949
0.364542
0.364133
0.363793
0.363446
0.363153
0.362853
0.362607
0.362349
0.362147
0.361931
0.361755
0.361564
0.361425
0.361267
0.361139
0.361004
0.360915
0.360791
0.360694
0.360616
0.360551
0.360499
0.360398
0.36037
0.360351
0.360301
0.360336
0.360335
0.360321
0.360366
0.360383
0.360433
0.360491
0.360568
0.360656
0.36069
0.36079
0.360853
0.360975
0.361055
0.361204
0.361288
0.361462
0.361552
0.361745
0.361851
0.362076
0.362201
0.362464
0.362611
0.362919
0.363091
0.363449
0.363651
0.364076
0.364314
0.364849
0.365106
0.366003
0.366145
0.374885
5.55406
520.343
0.756879
0.637215
0.560571
0.511206
0.478081
0.454856
0.437865
0.425058
0.415092
0.407207
0.400799
0.395555
0.391155
0.387464
0.384286
0.381577
0.379195
0.37714
0.375299
0.373698
0.37224
0.370965
0.369786
0.368755
0.367789
0.366943
0.36614
0.36544
0.364769
0.364183
0.363612
0.363122
0.362641
0.362228
0.361814
0.361469
0.361118
0.360821
0.360517
0.360267
0.360005
0.359799
0.35958
0.359401
0.359207
0.359065
0.358905
0.358774
0.358636
0.358546
0.35842
0.358321
0.358241
0.358174
0.35812
0.358019
0.357987
0.357966
0.357914
0.357944
0.357944
0.357928
0.357971
0.357984
0.358033
0.358089
0.358163
0.35825
0.358281
0.35838
0.358441
0.358561
0.358639
0.358786
0.358868
0.35904
0.359128
0.359319
0.359423
0.359644
0.359767
0.360027
0.360172
0.360475
0.360644
0.360998
0.361197
0.361617
0.361851
0.362379
0.362631
0.363523
0.363656
0.372662
5.72855
514.335
0.756942
0.637083
0.560082
0.510367
0.476952
0.4535
0.436332
0.423385
0.413308
0.405333
0.398851
0.393546
0.389095
0.38536
0.382144
0.379403
0.376993
0.374913
0.37305
0.371429
0.369954
0.368664
0.36747
0.366426
0.365449
0.364593
0.36378
0.36307
0.362391
0.361797
0.36122
0.360723
0.360235
0.359817
0.359397
0.359047
0.358691
0.35839
0.358081
0.357827
0.357562
0.357352
0.35713
0.356947
0.35675
0.356605
0.356442
0.356309
0.356169
0.356076
0.355948
0.355847
0.355764
0.355695
0.35564
0.355538
0.355503
0.355481
0.355425
0.355452
0.355451
0.355433
0.355473
0.355483
0.355532
0.355584
0.355657
0.355742
0.35577
0.355868
0.355927
0.356045
0.35612
0.356265
0.356345
0.356514
0.356601
0.356788
0.356891
0.357109
0.357229
0.357485
0.357628
0.357927
0.358093
0.358442
0.358638
0.359052
0.359283
0.359804
0.360051
0.360938
0.361062
0.37033
5.89446
507.468
0.757008
0.63695
0.559581
0.509502
0.475786
0.452096
0.434743
0.42165
0.411456
0.403387
0.396828
0.391459
0.386953
0.383173
0.379918
0.377143
0.374703
0.372597
0.370711
0.36907
0.367576
0.36627
0.365061
0.364004
0.363015
0.362147
0.361324
0.360605
0.359917
0.359315
0.35873
0.358227
0.357732
0.357308
0.356883
0.356527
0.356166
0.35586
0.355547
0.355289
0.355019
0.354806
0.35458
0.354394
0.354194
0.354046
0.353879
0.353744
0.353601
0.353505
0.353376
0.353273
0.353187
0.353115
0.353059
0.352956
0.352917
0.352894
0.352835
0.352858
0.352856
0.352836
0.352873
0.352881
0.352928
0.352977
0.353048
0.353131
0.353157
0.353252
0.353309
0.353425
0.353499
0.353641
0.353719
0.353885
0.35397
0.354155
0.354255
0.35447
0.354588
0.35484
0.35498
0.355274
0.355439
0.355782
0.355975
0.356383
0.35661
0.357124
0.357366
0.358247
0.358363
0.367889
6.04824
499.715
0.757076
0.636816
0.559068
0.508612
0.474583
0.450646
0.433099
0.419853
0.409538
0.40137
0.39473
0.389293
0.384732
0.380904
0.377607
0.374797
0.372325
0.370193
0.368283
0.366621
0.365108
0.363784
0.36256
0.361489
0.360486
0.359607
0.358773
0.358045
0.357348
0.356738
0.356144
0.355633
0.355132
0.354702
0.35427
0.353909
0.353542
0.353232
0.352914
0.352652
0.352377
0.35216
0.35193
0.351742
0.351538
0.351386
0.351217
0.35108
0.350933
0.350834
0.350703
0.350598
0.350509
0.350435
0.350377
0.350274
0.350231
0.350206
0.350144
0.350163
0.35016
0.350138
0.350172
0.350177
0.350223
0.350269
0.350338
0.350418
0.350441
0.350535
0.35059
0.350704
0.350775
0.350914
0.35099
0.351153
0.351237
0.351418
0.351517
0.351727
0.351844
0.352091
0.352229
0.352518
0.35268
0.353018
0.353208
0.353609
0.353833
0.35434
0.354577
0.355451
0.355559
0.365334
6.18613
491.045
0.757146
0.636682
0.558545
0.507699
0.473344
0.44915
0.431401
0.417997
0.407554
0.399282
0.392558
0.387051
0.382431
0.378553
0.375213
0.372366
0.369862
0.367701
0.365765
0.364081
0.362548
0.361207
0.359967
0.358881
0.357865
0.356974
0.356128
0.35539
0.354683
0.354064
0.353463
0.352944
0.352435
0.351999
0.351561
0.351194
0.350822
0.350506
0.350183
0.349916
0.349638
0.349417
0.349182
0.34899
0.348783
0.348628
0.348455
0.348315
0.348165
0.348064
0.347931
0.347823
0.347732
0.347655
0.347594
0.347491
0.347445
0.347417
0.347353
0.347367
0.347364
0.347339
0.347369
0.347372
0.347417
0.347459
0.347526
0.347604
0.347624
0.347716
0.347768
0.34788
0.347948
0.348085
0.348159
0.348319
0.348401
0.348579
0.348676
0.348882
0.348997
0.349239
0.349375
0.349659
0.349818
0.35015
0.350337
0.350732
0.350952
0.351451
0.351683
0.35255
0.352651
0.362664
6.30416
481.421
0.757218
0.636548
0.558012
0.506765
0.472072
0.447611
0.429652
0.416081
0.405505
0.397126
0.390314
0.384734
0.380051
0.376121
0.372737
0.369851
0.367313
0.365122
0.36316
0.361453
0.359899
0.358539
0.357282
0.356181
0.355151
0.354247
0.35339
0.35264
0.351924
0.351296
0.350686
0.35016
0.349643
0.3492
0.348755
0.348382
0.348004
0.347683
0.347355
0.347084
0.3468
0.346575
0.346336
0.346141
0.345929
0.345771
0.345595
0.345452
0.345299
0.345194
0.345059
0.344949
0.344855
0.344775
0.344713
0.344609
0.344558
0.344529
0.344462
0.344472
0.344467
0.34444
0.344466
0.344466
0.34451
0.344548
0.344613
0.344688
0.344705
0.344796
0.344845
0.344955
0.345021
0.345155
0.345227
0.345383
0.345464
0.345638
0.345733
0.345935
0.346047
0.346285
0.346418
0.346697
0.346853
0.34718
0.347364
0.347752
0.347968
0.348459
0.348686
0.349545
0.349639
0.359875
6.39832
470.805
0.757292
0.636415
0.557471
0.50581
0.470768
0.446028
0.427851
0.414107
0.403393
0.394902
0.387998
0.382341
0.377594
0.373609
0.370179
0.367252
0.364679
0.362457
0.360468
0.358736
0.357161
0.355781
0.354507
0.35339
0.352345
0.351428
0.350559
0.349798
0.349071
0.348434
0.347814
0.34728
0.346756
0.346305
0.345854
0.345474
0.34509
0.344764
0.344431
0.344154
0.343866
0.343636
0.343393
0.343194
0.342978
0.342816
0.342637
0.342491
0.342334
0.342227
0.342089
0.341976
0.341879
0.341797
0.341732
0.341627
0.341573
0.341542
0.341473
0.341478
0.341472
0.341442
0.341464
0.341462
0.341503
0.341537
0.3416
0.341673
0.341687
0.341775
0.341822
0.34193
0.341993
0.342124
0.342193
0.342347
0.342425
0.342596
0.342688
0.342887
0.342996
0.343229
0.34336
0.343634
0.343787
0.344107
0.344288
0.344669
0.344881
0.345365
0.345586
0.346438
0.346524
0.356964
6.46463
459.155
0.757369
0.636283
0.556923
0.504835
0.469433
0.444405
0.426001
0.412077
0.40122
0.392612
0.385611
0.379875
0.375061
0.37102
0.36754
0.364571
0.361961
0.359708
0.35769
0.355933
0.354335
0.352935
0.351642
0.350509
0.349449
0.348518
0.347636
0.346864
0.346125
0.345478
0.34485
0.344307
0.343774
0.343316
0.342858
0.342472
0.342081
0.34175
0.34141
0.341129
0.340836
0.340601
0.340353
0.34015
0.339931
0.339765
0.339582
0.339433
0.339272
0.339162
0.339022
0.338906
0.338806
0.33872
0.338653
0.338548
0.338489
0.338456
0.338385
0.338386
0.338377
0.338345
0.338363
0.338358
0.338398
0.338427
0.338488
0.338557
0.338569
0.338655
0.338699
0.338804
0.338864
0.338993
0.33906
0.33921
0.339286
0.339453
0.339544
0.339738
0.339845
0.340073
0.340201
0.340469
0.340619
0.340934
0.341111
0.341485
0.341693
0.342168
0.342383
0.343227
0.343307
0.353928
6.49915
446.431
0.757447
0.636153
0.556368
0.503843
0.468068
0.442742
0.424103
0.409993
0.398985
0.390256
0.383156
0.377337
0.372453
0.368352
0.364822
0.361809
0.359161
0.356874
0.354827
0.353043
0.351422
0.350001
0.348689
0.347538