/*--------------------------------*- C++ -*----------------------------------*\
| =========                 |                                                 |
| \\      /  F ield         | OpenFOAM: The Open Source CFD Toolbox           |
|  \\    /   O peration     | Version:  v2012                                 |
|   \\  /    A nd           | Website:  www.openfoam.com                      |
|    \\/     M anipulation  |                                                 |
\*---------------------------------------------------------------------------*/
FoamFile
{
    version     2.0;
    format      ascii;
    class       volScalarField;
    location    "34";
    object      nut;
}
// * * * * * * * * * * * * * * * * * * * * * * * * * * * * * * * * * * * * * //

dimensions      [0 2 -1 0 0 0 0];


internalField   nonuniform List<scalar> 
209825
(
1.24982e-07
1.21955e-07
1.15359e-07
1.07624e-07
1.00331e-07
9.40429e-08
8.87436e-08
8.43256e-08
8.05968e-08
7.74544e-08
7.47556e-08
7.24468e-08
7.04278e-08
6.86809e-08
6.7126e-08
6.57679e-08
6.45417e-08
6.34641e-08
6.24783e-08
6.16081e-08
6.08016e-08
6.00887e-08
5.94194e-08
5.88265e-08
5.82641e-08
5.77666e-08
5.72905e-08
5.68679e-08
5.64599e-08
5.61013e-08
5.57492e-08
5.54398e-08
5.5134e-08
5.48678e-08
5.4602e-08
5.43721e-08
5.41383e-08
5.39383e-08
5.37326e-08
5.35572e-08
5.33751e-08
5.32209e-08
5.30587e-08
5.29253e-08
5.27807e-08
5.26618e-08
5.25325e-08
5.24298e-08
5.23148e-08
5.2222e-08
5.21218e-08
5.20441e-08
5.19507e-08
5.18797e-08
5.17957e-08
5.17433e-08
5.16646e-08
5.16069e-08
5.15401e-08
5.14829e-08
5.14217e-08
5.13807e-08
5.1322e-08
5.12826e-08
5.12261e-08
5.11877e-08
5.11331e-08
5.10988e-08
5.10515e-08
5.10173e-08
5.09708e-08
5.09383e-08
5.08991e-08
5.08713e-08
5.08457e-08
5.08249e-08
5.08105e-08
5.07982e-08
5.07827e-08
5.07708e-08
5.07602e-08
5.07486e-08
5.0742e-08
5.07336e-08
5.07291e-08
5.07228e-08
5.07191e-08
5.07145e-08
5.07107e-08
5.07085e-08
5.07025e-08
5.0701e-08
5.06841e-08
5.10767e-08
3.46993e-06
2.19637e-08
1.24982e-07
1.21956e-07
1.15361e-07
1.07626e-07
1.00333e-07
9.40452e-08
8.87458e-08
8.43276e-08
8.05987e-08
7.74561e-08
7.47571e-08
7.24482e-08
7.0429e-08
6.86819e-08
6.71269e-08
6.57687e-08
6.45424e-08
6.34647e-08
6.24789e-08
6.16085e-08
6.0802e-08
6.0089e-08
5.94196e-08
5.88266e-08
5.82642e-08
5.77667e-08
5.72905e-08
5.68678e-08
5.64598e-08
5.61012e-08
5.5749e-08
5.54396e-08
5.51337e-08
5.48675e-08
5.46017e-08
5.43717e-08
5.4138e-08
5.39379e-08
5.37321e-08
5.35568e-08
5.33746e-08
5.32205e-08
5.30582e-08
5.29248e-08
5.27802e-08
5.26612e-08
5.2532e-08
5.24292e-08
5.23142e-08
5.22214e-08
5.21212e-08
5.20435e-08
5.19501e-08
5.18791e-08
5.1795e-08
5.17426e-08
5.16639e-08
5.16062e-08
5.15394e-08
5.14822e-08
5.1421e-08
5.138e-08
5.13212e-08
5.12819e-08
5.12254e-08
5.1187e-08
5.11323e-08
5.1098e-08
5.10508e-08
5.10165e-08
5.097e-08
5.09375e-08
5.08983e-08
5.08706e-08
5.08449e-08
5.08241e-08
5.08097e-08
5.07974e-08
5.07819e-08
5.077e-08
5.07594e-08
5.07478e-08
5.07411e-08
5.07328e-08
5.07282e-08
5.0722e-08
5.07182e-08
5.07136e-08
5.07099e-08
5.07077e-08
5.07016e-08
5.07001e-08
5.06832e-08
5.10762e-08
3.47071e-06
2.21447e-08
1.24981e-07
1.21958e-07
1.15367e-07
1.07634e-07
1.00342e-07
9.40546e-08
8.87546e-08
8.43357e-08
8.0606e-08
7.74627e-08
7.47629e-08
7.24534e-08
7.04336e-08
6.86859e-08
6.71304e-08
6.57717e-08
6.45449e-08
6.34669e-08
6.24807e-08
6.161e-08
6.08031e-08
6.00899e-08
5.94203e-08
5.8827e-08
5.82644e-08
5.77667e-08
5.72903e-08
5.68675e-08
5.64593e-08
5.61005e-08
5.57482e-08
5.54387e-08
5.51327e-08
5.48664e-08
5.46005e-08
5.43704e-08
5.41365e-08
5.39364e-08
5.37305e-08
5.35551e-08
5.33728e-08
5.32186e-08
5.30563e-08
5.29228e-08
5.27781e-08
5.26591e-08
5.25298e-08
5.2427e-08
5.23119e-08
5.22191e-08
5.21188e-08
5.20411e-08
5.19476e-08
5.18766e-08
5.17925e-08
5.174e-08
5.16613e-08
5.16035e-08
5.15368e-08
5.14795e-08
5.14183e-08
5.13773e-08
5.13185e-08
5.12791e-08
5.12226e-08
5.11842e-08
5.11295e-08
5.10951e-08
5.10479e-08
5.10136e-08
5.09671e-08
5.09346e-08
5.08954e-08
5.08676e-08
5.08419e-08
5.0821e-08
5.08066e-08
5.07942e-08
5.07787e-08
5.07668e-08
5.07561e-08
5.07446e-08
5.07379e-08
5.07295e-08
5.0725e-08
5.07186e-08
5.07149e-08
5.07103e-08
5.07065e-08
5.07043e-08
5.06982e-08
5.06966e-08
5.06797e-08
5.10738e-08
3.47295e-06
2.24093e-08
1.2498e-07
1.21962e-07
1.15377e-07
1.07649e-07
1.00358e-07
9.40704e-08
8.87695e-08
8.43494e-08
8.06183e-08
7.74737e-08
7.47727e-08
7.2462e-08
7.04412e-08
6.86926e-08
6.71362e-08
6.57767e-08
6.45493e-08
6.34705e-08
6.24837e-08
6.16126e-08
6.08052e-08
6.00915e-08
5.94214e-08
5.88278e-08
5.82648e-08
5.77668e-08
5.72901e-08
5.6867e-08
5.64585e-08
5.60995e-08
5.5747e-08
5.54372e-08
5.5131e-08
5.48645e-08
5.45984e-08
5.43682e-08
5.41341e-08
5.39339e-08
5.37279e-08
5.35523e-08
5.33699e-08
5.32156e-08
5.30531e-08
5.29195e-08
5.27748e-08
5.26557e-08
5.25263e-08
5.24233e-08
5.23082e-08
5.22153e-08
5.21149e-08
5.20371e-08
5.19436e-08
5.18725e-08
5.17883e-08
5.17358e-08
5.1657e-08
5.15992e-08
5.15324e-08
5.14751e-08
5.14139e-08
5.13727e-08
5.13139e-08
5.12745e-08
5.12179e-08
5.11795e-08
5.11247e-08
5.10904e-08
5.10431e-08
5.10088e-08
5.09623e-08
5.09298e-08
5.08905e-08
5.08627e-08
5.08369e-08
5.08159e-08
5.08015e-08
5.0789e-08
5.07735e-08
5.07615e-08
5.07508e-08
5.07392e-08
5.07325e-08
5.07241e-08
5.07195e-08
5.07131e-08
5.07094e-08
5.07047e-08
5.07009e-08
5.06986e-08
5.06926e-08
5.06909e-08
5.0674e-08
5.10697e-08
3.47659e-06
2.27305e-08
1.24979e-07
1.21968e-07
1.15392e-07
1.07669e-07
1.00381e-07
9.40927e-08
8.87906e-08
8.43687e-08
8.06358e-08
7.74894e-08
7.47866e-08
7.24743e-08
7.0452e-08
6.87021e-08
6.71445e-08
6.57839e-08
6.45554e-08
6.34758e-08
6.24881e-08
6.16162e-08
6.08081e-08
6.00938e-08
5.94231e-08
5.8829e-08
5.82654e-08
5.7767e-08
5.72898e-08
5.68663e-08
5.64575e-08
5.60981e-08
5.57453e-08
5.54352e-08
5.51287e-08
5.4862e-08
5.45956e-08
5.43651e-08
5.41308e-08
5.39304e-08
5.37242e-08
5.35484e-08
5.33658e-08
5.32114e-08
5.30487e-08
5.2915e-08
5.27701e-08
5.26508e-08
5.25213e-08
5.24183e-08
5.2303e-08
5.22099e-08
5.21094e-08
5.20316e-08
5.1938e-08
5.18668e-08
5.17825e-08
5.17299e-08
5.16511e-08
5.15932e-08
5.15263e-08
5.1469e-08
5.14076e-08
5.13664e-08
5.13075e-08
5.12681e-08
5.12114e-08
5.1173e-08
5.11182e-08
5.10838e-08
5.10365e-08
5.10021e-08
5.09556e-08
5.0923e-08
5.08837e-08
5.08558e-08
5.08299e-08
5.08088e-08
5.07943e-08
5.07817e-08
5.07662e-08
5.07542e-08
5.07434e-08
5.07317e-08
5.0725e-08
5.07165e-08
5.07119e-08
5.07055e-08
5.07017e-08
5.06969e-08
5.06931e-08
5.06908e-08
5.06847e-08
5.0683e-08
5.0666e-08
5.10639e-08
3.48166e-06
2.30986e-08
1.24978e-07
1.21975e-07
1.15411e-07
1.07695e-07
1.0041e-07
9.41217e-08
8.88179e-08
8.43939e-08
8.06585e-08
7.75097e-08
7.48047e-08
7.24904e-08
7.04661e-08
6.87145e-08
6.71552e-08
6.57933e-08
6.45635e-08
6.34826e-08
6.24939e-08
6.1621e-08
6.0812e-08
6.00968e-08
5.94254e-08
5.88305e-08
5.82663e-08
5.77673e-08
5.72896e-08
5.68656e-08
5.64562e-08
5.60964e-08
5.57431e-08
5.54327e-08
5.51258e-08
5.48587e-08
5.4592e-08
5.43612e-08
5.41266e-08
5.39259e-08
5.37194e-08
5.35435e-08
5.33606e-08
5.32059e-08
5.30431e-08
5.29092e-08
5.2764e-08
5.26447e-08
5.25149e-08
5.24117e-08
5.22963e-08
5.22031e-08
5.21024e-08
5.20245e-08
5.19307e-08
5.18594e-08
5.17749e-08
5.17222e-08
5.16434e-08
5.15854e-08
5.15184e-08
5.14611e-08
5.13996e-08
5.13583e-08
5.12992e-08
5.12598e-08
5.12031e-08
5.11646e-08
5.11097e-08
5.10752e-08
5.10279e-08
5.09935e-08
5.09469e-08
5.09143e-08
5.0875e-08
5.0847e-08
5.08209e-08
5.07997e-08
5.0785e-08
5.07723e-08
5.07567e-08
5.07447e-08
5.07338e-08
5.07221e-08
5.07152e-08
5.07067e-08
5.0702e-08
5.06955e-08
5.06917e-08
5.06869e-08
5.0683e-08
5.06806e-08
5.06745e-08
5.06727e-08
5.06556e-08
5.10564e-08
3.4882e-06
2.35107e-08
1.24976e-07
1.21984e-07
1.15435e-07
1.07728e-07
1.00446e-07
9.41575e-08
8.88517e-08
8.44249e-08
8.06866e-08
7.75349e-08
7.48271e-08
7.25102e-08
7.04836e-08
6.87298e-08
6.71686e-08
6.58049e-08
6.45735e-08
6.34912e-08
6.25011e-08
6.16269e-08
6.08168e-08
6.01006e-08
5.94283e-08
5.88325e-08
5.82675e-08
5.77677e-08
5.72893e-08
5.68647e-08
5.64547e-08
5.60944e-08
5.57405e-08
5.54296e-08
5.51222e-08
5.48548e-08
5.45876e-08
5.43564e-08
5.41215e-08
5.39205e-08
5.37136e-08
5.35374e-08
5.33543e-08
5.31993e-08
5.30362e-08
5.2902e-08
5.27567e-08
5.26371e-08
5.25071e-08
5.24037e-08
5.2288e-08
5.21947e-08
5.20938e-08
5.20157e-08
5.19218e-08
5.18504e-08
5.17657e-08
5.17129e-08
5.16339e-08
5.15758e-08
5.15087e-08
5.14513e-08
5.13898e-08
5.13483e-08
5.12891e-08
5.12496e-08
5.11928e-08
5.11543e-08
5.10993e-08
5.10647e-08
5.10173e-08
5.09829e-08
5.09363e-08
5.09035e-08
5.08642e-08
5.08361e-08
5.08098e-08
5.07884e-08
5.07737e-08
5.07608e-08
5.07451e-08
5.0733e-08
5.0722e-08
5.07102e-08
5.07033e-08
5.06946e-08
5.06899e-08
5.06833e-08
5.06794e-08
5.06745e-08
5.06706e-08
5.06681e-08
5.06619e-08
5.066e-08
5.06428e-08
5.10472e-08
3.49624e-06
2.39679e-08
1.24974e-07
1.21995e-07
1.15463e-07
1.07767e-07
1.00489e-07
9.42002e-08
8.88921e-08
8.4462e-08
8.07202e-08
7.7565e-08
7.4854e-08
7.2534e-08
7.05046e-08
6.87482e-08
6.71847e-08
6.58188e-08
6.45855e-08
6.35014e-08
6.25097e-08
6.16341e-08
6.08226e-08
6.01052e-08
5.94317e-08
5.8835e-08
5.8269e-08
5.77683e-08
5.7289e-08
5.68636e-08
5.64529e-08
5.60919e-08
5.57375e-08
5.5426e-08
5.51181e-08
5.48501e-08
5.45824e-08
5.43508e-08
5.41154e-08
5.3914e-08
5.37068e-08
5.35302e-08
5.33467e-08
5.31914e-08
5.3028e-08
5.28935e-08
5.27479e-08
5.2628e-08
5.24978e-08
5.23942e-08
5.22783e-08
5.21848e-08
5.20836e-08
5.20053e-08
5.19112e-08
5.18397e-08
5.17548e-08
5.17017e-08
5.16227e-08
5.15644e-08
5.14972e-08
5.14397e-08
5.1378e-08
5.13365e-08
5.12771e-08
5.12376e-08
5.11806e-08
5.1142e-08
5.10869e-08
5.10522e-08
5.10048e-08
5.09703e-08
5.09236e-08
5.08908e-08
5.08514e-08
5.08232e-08
5.07966e-08
5.07751e-08
5.07602e-08
5.0747e-08
5.07313e-08
5.07191e-08
5.0708e-08
5.06961e-08
5.06891e-08
5.06803e-08
5.06755e-08
5.06688e-08
5.06648e-08
5.06598e-08
5.06558e-08
5.06533e-08
5.0647e-08
5.0645e-08
5.06277e-08
5.10363e-08
3.5058e-06
2.44744e-08
1.24971e-07
1.22008e-07
1.15495e-07
1.07812e-07
1.00539e-07
9.425e-08
8.89392e-08
8.45053e-08
8.07594e-08
7.76002e-08
7.48853e-08
7.25618e-08
7.05291e-08
6.87697e-08
6.72035e-08
6.58352e-08
6.45996e-08
6.35135e-08
6.25199e-08
6.16426e-08
6.08295e-08
6.01107e-08
5.94359e-08
5.88379e-08
5.82708e-08
5.7769e-08
5.72888e-08
5.68625e-08
5.6451e-08
5.60892e-08
5.5734e-08
5.54219e-08
5.51133e-08
5.48447e-08
5.45765e-08
5.43443e-08
5.41084e-08
5.39065e-08
5.36988e-08
5.35218e-08
5.33379e-08
5.31823e-08
5.30185e-08
5.28837e-08
5.27377e-08
5.26176e-08
5.2487e-08
5.23831e-08
5.2267e-08
5.21732e-08
5.20718e-08
5.19933e-08
5.18989e-08
5.18272e-08
5.1742e-08
5.16888e-08
5.16096e-08
5.15512e-08
5.14839e-08
5.14263e-08
5.13644e-08
5.13227e-08
5.12631e-08
5.12235e-08
5.11663e-08
5.11277e-08
5.10725e-08
5.10377e-08
5.09902e-08
5.09557e-08
5.09089e-08
5.08759e-08
5.08365e-08
5.08081e-08
5.07813e-08
5.07595e-08
5.07444e-08
5.0731e-08
5.07153e-08
5.07029e-08
5.06916e-08
5.06797e-08
5.06725e-08
5.06636e-08
5.06587e-08
5.06519e-08
5.06479e-08
5.06428e-08
5.06387e-08
5.0636e-08
5.06296e-08
5.06274e-08
5.061e-08
5.10237e-08
3.51687e-06
2.50369e-08
1.24968e-07
1.22022e-07
1.15532e-07
1.07864e-07
1.00596e-07
9.4307e-08
8.89931e-08
8.4555e-08
8.08044e-08
7.76406e-08
7.49213e-08
7.25937e-08
7.05573e-08
6.87945e-08
6.72252e-08
6.5854e-08
6.46158e-08
6.35274e-08
6.25317e-08
6.16524e-08
6.08375e-08
6.01171e-08
5.94407e-08
5.88413e-08
5.82729e-08
5.777e-08
5.72886e-08
5.68613e-08
5.64488e-08
5.60862e-08
5.57301e-08
5.54172e-08
5.51078e-08
5.48386e-08
5.45697e-08
5.4337e-08
5.41004e-08
5.3898e-08
5.36898e-08
5.35124e-08
5.33279e-08
5.31719e-08
5.30076e-08
5.28725e-08
5.27261e-08
5.26057e-08
5.24747e-08
5.23705e-08
5.2254e-08
5.216e-08
5.20582e-08
5.19795e-08
5.18848e-08
5.18129e-08
5.17275e-08
5.1674e-08
5.15947e-08
5.15361e-08
5.14686e-08
5.14109e-08
5.13488e-08
5.13069e-08
5.12471e-08
5.12075e-08
5.11501e-08
5.11114e-08
5.1056e-08
5.10211e-08
5.09735e-08
5.09389e-08
5.08921e-08
5.0859e-08
5.08194e-08
5.07909e-08
5.07638e-08
5.07418e-08
5.07265e-08
5.07128e-08
5.06969e-08
5.06844e-08
5.0673e-08
5.06609e-08
5.06536e-08
5.06446e-08
5.06396e-08
5.06326e-08
5.06285e-08
5.06232e-08
5.06191e-08
5.06162e-08
5.06098e-08
5.06074e-08
5.05898e-08
5.10093e-08
3.52944e-06
2.5664e-08
1.24965e-07
1.22038e-07
1.15573e-07
1.07922e-07
1.0066e-07
9.43713e-08
8.90541e-08
8.46112e-08
8.08553e-08
7.76863e-08
7.49621e-08
7.26299e-08
7.05893e-08
6.88226e-08
6.72498e-08
6.58754e-08
6.46343e-08
6.35432e-08
6.25451e-08
6.16636e-08
6.08467e-08
6.01243e-08
5.94462e-08
5.88453e-08
5.82754e-08
5.77711e-08
5.72885e-08
5.68601e-08
5.64464e-08
5.60828e-08
5.57258e-08
5.5412e-08
5.51018e-08
5.48318e-08
5.45621e-08
5.43287e-08
5.40915e-08
5.38885e-08
5.36797e-08
5.35017e-08
5.33167e-08
5.31603e-08
5.29955e-08
5.28599e-08
5.27131e-08
5.25923e-08
5.24609e-08
5.23564e-08
5.22395e-08
5.21452e-08
5.2043e-08
5.1964e-08
5.1869e-08
5.17969e-08
5.17111e-08
5.16574e-08
5.15779e-08
5.15191e-08
5.14514e-08
5.13936e-08
5.13313e-08
5.12892e-08
5.1229e-08
5.11894e-08
5.11318e-08
5.1093e-08
5.10375e-08
5.10024e-08
5.09547e-08
5.092e-08
5.08731e-08
5.08399e-08
5.08002e-08
5.07715e-08
5.07442e-08
5.07218e-08
5.07063e-08
5.06922e-08
5.06763e-08
5.06636e-08
5.0652e-08
5.06398e-08
5.06323e-08
5.06231e-08
5.0618e-08
5.06108e-08
5.06066e-08
5.06012e-08
5.05969e-08
5.05939e-08
5.05874e-08
5.05848e-08
5.05671e-08
5.09932e-08
3.54345e-06
2.63657e-08
1.24961e-07
1.22055e-07
1.15619e-07
1.07986e-07
1.00732e-07
9.44431e-08
8.91222e-08
8.4674e-08
8.09123e-08
7.77375e-08
7.50078e-08
7.26705e-08
7.06251e-08
6.88542e-08
6.72774e-08
6.58995e-08
6.46551e-08
6.35611e-08
6.25602e-08
6.16762e-08
6.0857e-08
6.01326e-08
5.94526e-08
5.88499e-08
5.82783e-08
5.77726e-08
5.72885e-08
5.68588e-08
5.64439e-08
5.60791e-08
5.5721e-08
5.54063e-08
5.50951e-08
5.48242e-08
5.45537e-08
5.43196e-08
5.40816e-08
5.3878e-08
5.36684e-08
5.34899e-08
5.33043e-08
5.31473e-08
5.29819e-08
5.28459e-08
5.26986e-08
5.25774e-08
5.24455e-08
5.23406e-08
5.22233e-08
5.21286e-08
5.2026e-08
5.19467e-08
5.18514e-08
5.17791e-08
5.16929e-08
5.16388e-08
5.15591e-08
5.15001e-08
5.14323e-08
5.13743e-08
5.13117e-08
5.12694e-08
5.1209e-08
5.11692e-08
5.11114e-08
5.10725e-08
5.10168e-08
5.09815e-08
5.09338e-08
5.0899e-08
5.08519e-08
5.08186e-08
5.07788e-08
5.07499e-08
5.07222e-08
5.06995e-08
5.06837e-08
5.06692e-08
5.06532e-08
5.06404e-08
5.06285e-08
5.06162e-08
5.06085e-08
5.05992e-08
5.05939e-08
5.05866e-08
5.05822e-08
5.05766e-08
5.05722e-08
5.05691e-08
5.05624e-08
5.05596e-08
5.05417e-08
5.09752e-08
3.55882e-06
2.71538e-08
1.24957e-07
1.22074e-07
1.1567e-07
1.08057e-07
1.00811e-07
9.45225e-08
8.91976e-08
8.47436e-08
8.09756e-08
7.77944e-08
7.50586e-08
7.27156e-08
7.0665e-08
6.88893e-08
6.73082e-08
6.59263e-08
6.46783e-08
6.3581e-08
6.25771e-08
6.16904e-08
6.08686e-08
6.01419e-08
5.94597e-08
5.88551e-08
5.82817e-08
5.77743e-08
5.72886e-08
5.68575e-08
5.64412e-08
5.60752e-08
5.57159e-08
5.54001e-08
5.50878e-08
5.4816e-08
5.45445e-08
5.43096e-08
5.40708e-08
5.38664e-08
5.36561e-08
5.34769e-08
5.32906e-08
5.31331e-08
5.29671e-08
5.28305e-08
5.26826e-08
5.25609e-08
5.24286e-08
5.23232e-08
5.22055e-08
5.21104e-08
5.20073e-08
5.19277e-08
5.1832e-08
5.17594e-08
5.16728e-08
5.16184e-08
5.15385e-08
5.14792e-08
5.14111e-08
5.13531e-08
5.12901e-08
5.12476e-08
5.11868e-08
5.1147e-08
5.10889e-08
5.10499e-08
5.09939e-08
5.09585e-08
5.09107e-08
5.08757e-08
5.08286e-08
5.0795e-08
5.07552e-08
5.07261e-08
5.0698e-08
5.0675e-08
5.06588e-08
5.06438e-08
5.06278e-08
5.06148e-08
5.06026e-08
5.05902e-08
5.05823e-08
5.05727e-08
5.05673e-08
5.05597e-08
5.05553e-08
5.05494e-08
5.0545e-08
5.05416e-08
5.05348e-08
5.05317e-08
5.05136e-08
5.09555e-08
3.57544e-06
2.8041e-08
1.24952e-07
1.22094e-07
1.15725e-07
1.08135e-07
1.00898e-07
9.46097e-08
8.92804e-08
8.48202e-08
8.10452e-08
7.7857e-08
7.51146e-08
7.27654e-08
7.07091e-08
6.89282e-08
6.73422e-08
6.5956e-08
6.4704e-08
6.36031e-08
6.25958e-08
6.17061e-08
6.08816e-08
6.01523e-08
5.94678e-08
5.8861e-08
5.82856e-08
5.77763e-08
5.72889e-08
5.68562e-08
5.64384e-08
5.6071e-08
5.57104e-08
5.53934e-08
5.508e-08
5.48071e-08
5.45346e-08
5.42987e-08
5.40589e-08
5.38537e-08
5.36426e-08
5.34627e-08
5.32757e-08
5.31175e-08
5.29508e-08
5.28137e-08
5.26652e-08
5.2543e-08
5.24101e-08
5.23042e-08
5.2186e-08
5.20905e-08
5.19869e-08
5.19069e-08
5.18108e-08
5.17378e-08
5.16507e-08
5.1596e-08
5.15158e-08
5.14563e-08
5.1388e-08
5.13297e-08
5.12664e-08
5.12236e-08
5.11625e-08
5.11226e-08
5.10642e-08
5.10251e-08
5.09689e-08
5.09332e-08
5.08853e-08
5.08503e-08
5.0803e-08
5.07692e-08
5.07292e-08
5.06999e-08
5.06715e-08
5.06481e-08
5.06315e-08
5.06159e-08
5.06e-08
5.05867e-08
5.05742e-08
5.05616e-08
5.05535e-08
5.05437e-08
5.05381e-08
5.05303e-08
5.05257e-08
5.05197e-08
5.0515e-08
5.05115e-08
5.05045e-08
5.05011e-08
5.04829e-08
5.09338e-08
3.59314e-06
2.90411e-08
1.24947e-07
1.22116e-07
1.15784e-07
1.0822e-07
1.00993e-07
9.47047e-08
8.9371e-08
8.49039e-08
8.11214e-08
7.79256e-08
7.51759e-08
7.282e-08
7.07574e-08
6.89708e-08
6.73796e-08
6.59887e-08
6.47323e-08
6.36274e-08
6.26165e-08
6.17235e-08
6.08959e-08
6.01639e-08
5.94768e-08
5.88676e-08
5.829e-08
5.77787e-08
5.72894e-08
5.6855e-08
5.64355e-08
5.60666e-08
5.57045e-08
5.53862e-08
5.50715e-08
5.47975e-08
5.45238e-08
5.42869e-08
5.40462e-08
5.38401e-08
5.3628e-08
5.34473e-08
5.32595e-08
5.31006e-08
5.29332e-08
5.27954e-08
5.26462e-08
5.25235e-08
5.23899e-08
5.22836e-08
5.21648e-08
5.20688e-08
5.19647e-08
5.18843e-08
5.17877e-08
5.17143e-08
5.16268e-08
5.15716e-08
5.14911e-08
5.14313e-08
5.13627e-08
5.13044e-08
5.12407e-08
5.11976e-08
5.11361e-08
5.1096e-08
5.10373e-08
5.09981e-08
5.09416e-08
5.09057e-08
5.08577e-08
5.08225e-08
5.07751e-08
5.07411e-08
5.0701e-08
5.06714e-08
5.06427e-08
5.06188e-08
5.06018e-08
5.05856e-08
5.05696e-08
5.05561e-08
5.05433e-08
5.05305e-08
5.05221e-08
5.05121e-08
5.05063e-08
5.04983e-08
5.04935e-08
5.04872e-08
5.04824e-08
5.04786e-08
5.04715e-08
5.04678e-08
5.04493e-08
5.09103e-08
3.61168e-06
3.0169e-08
1.24942e-07
1.2214e-07
1.15848e-07
1.08311e-07
1.01095e-07
9.48079e-08
8.94693e-08
8.49949e-08
8.12043e-08
7.80004e-08
7.52428e-08
7.28796e-08
7.08102e-08
6.90174e-08
6.74205e-08
6.60244e-08
6.47633e-08
6.36541e-08
6.26393e-08
6.17427e-08
6.09117e-08
6.01767e-08
5.94867e-08
5.8875e-08
5.8295e-08
5.77815e-08
5.72901e-08
5.68538e-08
5.64325e-08
5.6062e-08
5.56984e-08
5.53787e-08
5.50626e-08
5.47873e-08
5.45123e-08
5.42743e-08
5.40325e-08
5.38254e-08
5.36124e-08
5.34308e-08
5.32421e-08
5.30824e-08
5.29142e-08
5.27757e-08
5.26258e-08
5.25025e-08
5.23682e-08
5.22613e-08
5.21419e-08
5.20455e-08
5.19406e-08
5.18598e-08
5.17627e-08
5.1689e-08
5.16009e-08
5.15452e-08
5.14644e-08
5.14043e-08
5.13355e-08
5.1277e-08
5.12128e-08
5.11694e-08
5.11074e-08
5.10673e-08
5.10082e-08
5.09688e-08
5.09121e-08
5.0876e-08
5.08278e-08
5.07925e-08
5.07448e-08
5.07107e-08
5.06704e-08
5.06406e-08
5.06115e-08
5.05871e-08
5.05697e-08
5.05528e-08
5.05368e-08
5.05229e-08
5.05098e-08
5.04968e-08
5.04881e-08
5.04778e-08
5.04718e-08
5.04636e-08
5.04586e-08
5.04521e-08
5.04471e-08
5.04431e-08
5.04357e-08
5.04316e-08
5.0413e-08
5.08848e-08
3.6308e-06
3.14402e-08
1.24936e-07
1.22165e-07
1.15917e-07
1.08409e-07
1.01206e-07
9.49192e-08
8.95756e-08
8.50935e-08
8.12941e-08
7.80815e-08
7.53154e-08
7.29443e-08
7.08676e-08
6.90681e-08
6.74651e-08
6.60634e-08
6.47972e-08
6.36833e-08
6.26642e-08
6.17637e-08
6.09291e-08
6.01908e-08
5.94978e-08
5.88833e-08
5.83007e-08
5.77848e-08
5.72912e-08
5.68529e-08
5.64295e-08
5.60573e-08
5.56919e-08
5.53707e-08
5.5053e-08
5.47764e-08
5.45001e-08
5.42609e-08
5.40178e-08
5.38097e-08
5.35956e-08
5.34131e-08
5.32234e-08
5.3063e-08
5.28938e-08
5.27546e-08
5.26039e-08
5.24799e-08
5.23449e-08
5.22374e-08
5.21173e-08
5.20203e-08
5.19148e-08
5.18335e-08
5.17358e-08
5.16617e-08
5.1573e-08
5.15168e-08
5.14357e-08
5.13753e-08
5.13061e-08
5.12474e-08
5.11827e-08
5.1139e-08
5.10766e-08
5.10364e-08
5.09769e-08
5.09373e-08
5.08804e-08
5.08439e-08
5.07957e-08
5.07601e-08
5.07123e-08
5.06779e-08
5.06374e-08
5.06073e-08
5.05779e-08
5.0553e-08
5.05351e-08
5.05175e-08
5.05014e-08
5.04872e-08
5.04737e-08
5.04605e-08
5.04515e-08
5.04409e-08
5.04347e-08
5.04261e-08
5.0421e-08
5.04142e-08
5.04091e-08
5.04047e-08
5.03972e-08
5.03926e-08
5.03738e-08
5.08573e-08
3.65014e-06
3.28712e-08
1.24929e-07
1.22191e-07
1.1599e-07
1.08514e-07
1.01324e-07
9.50388e-08
8.969e-08
8.51997e-08
8.13911e-08
7.8169e-08
7.53939e-08
7.30143e-08
7.09297e-08
6.9123e-08
6.75134e-08
6.61057e-08
6.4834e-08
6.37151e-08
6.26913e-08
6.17867e-08
6.09482e-08
6.02063e-08
5.951e-08
5.88926e-08
5.83071e-08
5.77886e-08
5.72926e-08
5.68521e-08
5.64266e-08
5.60524e-08
5.56852e-08
5.53623e-08
5.5043e-08
5.47649e-08
5.44872e-08
5.42467e-08
5.40023e-08
5.3793e-08
5.35778e-08
5.33943e-08
5.32035e-08
5.30422e-08
5.2872e-08
5.2732e-08
5.25805e-08
5.24558e-08
5.232e-08
5.22118e-08
5.2091e-08
5.19934e-08
5.18872e-08
5.18054e-08
5.17071e-08
5.16326e-08
5.15432e-08
5.14864e-08
5.14049e-08
5.13442e-08
5.12746e-08
5.12158e-08
5.11505e-08
5.11065e-08
5.10436e-08
5.10032e-08
5.09433e-08
5.09036e-08
5.08463e-08
5.08096e-08
5.07611e-08
5.07254e-08
5.06774e-08
5.06427e-08
5.06021e-08
5.05716e-08
5.0542e-08
5.05165e-08
5.0498e-08
5.04798e-08
5.04635e-08
5.04489e-08
5.0435e-08
5.04216e-08
5.04122e-08
5.04013e-08
5.03949e-08
5.0386e-08
5.03807e-08
5.03735e-08
5.03682e-08
5.03635e-08
5.03558e-08
5.03508e-08
5.03318e-08
5.08277e-08
3.66926e-06
3.44791e-08
1.24922e-07
1.22219e-07
1.16067e-07
1.08625e-07
1.0145e-07
9.51669e-08
8.98127e-08
8.53138e-08
8.14953e-08
7.82633e-08
7.54785e-08
7.30898e-08
7.09968e-08
6.91823e-08
6.75657e-08
6.61515e-08
6.48738e-08
6.37496e-08
6.27208e-08
6.18117e-08
6.0969e-08
6.02233e-08
5.95235e-08
5.89028e-08
5.83143e-08
5.77931e-08
5.72944e-08
5.68515e-08
5.64238e-08
5.60475e-08
5.56783e-08
5.53536e-08
5.50326e-08
5.47529e-08
5.44736e-08
5.42317e-08
5.39859e-08
5.37754e-08
5.35589e-08
5.33743e-08
5.31824e-08
5.30201e-08
5.2849e-08
5.27081e-08
5.25556e-08
5.24301e-08
5.22934e-08
5.21845e-08
5.2063e-08
5.19648e-08
5.18578e-08
5.17754e-08
5.16765e-08
5.16014e-08
5.15114e-08
5.1454e-08
5.13721e-08
5.1311e-08
5.12411e-08
5.1182e-08
5.11162e-08
5.10718e-08
5.10084e-08
5.09678e-08
5.09074e-08
5.08676e-08
5.08099e-08
5.07728e-08
5.07243e-08
5.06883e-08
5.06401e-08
5.06052e-08
5.05643e-08
5.05335e-08
5.05037e-08
5.04776e-08
5.04583e-08
5.04394e-08
5.0423e-08
5.0408e-08
5.03937e-08
5.038e-08
5.03703e-08
5.0359e-08
5.03523e-08
5.03431e-08
5.03375e-08
5.033e-08
5.03245e-08
5.03195e-08
5.03116e-08
5.0306e-08
5.02868e-08
5.0796e-08
3.68767e-06
3.62817e-08
1.24915e-07
1.22248e-07
1.16149e-07
1.08744e-07
1.01585e-07
9.53037e-08
8.9944e-08
8.5436e-08
8.16071e-08
7.83644e-08
7.55693e-08
7.3171e-08
7.1069e-08
6.92463e-08
6.7622e-08
6.6201e-08
6.49169e-08
6.37869e-08
6.27529e-08
6.18389e-08
6.09917e-08
6.0242e-08
5.95383e-08
5.89142e-08
5.83224e-08
5.77982e-08
5.72967e-08
5.68513e-08
5.64211e-08
5.60426e-08
5.56713e-08
5.53447e-08
5.50218e-08
5.47404e-08
5.44593e-08
5.4216e-08
5.39687e-08
5.37569e-08
5.3539e-08
5.33533e-08
5.31602e-08
5.29968e-08
5.28245e-08
5.26827e-08
5.25292e-08
5.24029e-08
5.22653e-08
5.21557e-08
5.20333e-08
5.19344e-08
5.18265e-08
5.17435e-08
5.16439e-08
5.15684e-08
5.14776e-08
5.14195e-08
5.13372e-08
5.12758e-08
5.12054e-08
5.11462e-08
5.10796e-08
5.10349e-08
5.09709e-08
5.09302e-08
5.08693e-08
5.08292e-08
5.07712e-08
5.07338e-08
5.0685e-08
5.06488e-08
5.06004e-08
5.05652e-08
5.05241e-08
5.0493e-08
5.04628e-08
5.04361e-08
5.04162e-08
5.03966e-08
5.03799e-08
5.03644e-08
5.03497e-08
5.03357e-08
5.03256e-08
5.0314e-08
5.03069e-08
5.02974e-08
5.02916e-08
5.02837e-08
5.0278e-08
5.02727e-08
5.02644e-08
5.02582e-08
5.0239e-08
5.07621e-08
3.70478e-06
3.82968e-08
1.24907e-07
1.22278e-07
1.16235e-07
1.08869e-07
1.01728e-07
9.54492e-08
9.00839e-08
8.55665e-08
8.17266e-08
7.84727e-08
7.56667e-08
7.32581e-08
7.11464e-08
6.9315e-08
6.76826e-08
6.62542e-08
6.49634e-08
6.38273e-08
6.27875e-08
6.18683e-08
6.10164e-08
6.02623e-08
5.95546e-08
5.89267e-08
5.83315e-08
5.78041e-08
5.72996e-08
5.68515e-08
5.64186e-08
5.60378e-08
5.56642e-08
5.53356e-08
5.50106e-08
5.47274e-08
5.44445e-08
5.41996e-08
5.39507e-08
5.37374e-08
5.35181e-08
5.33311e-08
5.31367e-08
5.29723e-08
5.27988e-08
5.2656e-08
5.25014e-08
5.23743e-08
5.22357e-08
5.21252e-08
5.20019e-08
5.19023e-08
5.17935e-08
5.17099e-08
5.16095e-08
5.15335e-08
5.14418e-08
5.13831e-08
5.13003e-08
5.12384e-08
5.11675e-08
5.11081e-08
5.10409e-08
5.09957e-08
5.09312e-08
5.08903e-08
5.08288e-08
5.07886e-08
5.07301e-08
5.06924e-08
5.06434e-08
5.0607e-08
5.05583e-08
5.05228e-08
5.04814e-08
5.04499e-08
5.04195e-08
5.03923e-08
5.03715e-08
5.03512e-08
5.03342e-08
5.03181e-08
5.0303e-08
5.02887e-08
5.02781e-08
5.02662e-08
5.02588e-08
5.02489e-08
5.02428e-08
5.02345e-08
5.02286e-08
5.02229e-08
5.02144e-08
5.02075e-08
5.01881e-08
5.07258e-08
3.71992e-06
4.05435e-08
1.24899e-07
1.22309e-07
1.16325e-07
1.09001e-07
1.01879e-07
9.56037e-08
9.02327e-08
8.57054e-08
8.1854e-08
7.85882e-08
7.57707e-08
7.33512e-08
7.12294e-08
6.93887e-08
6.77477e-08
6.63115e-08
6.50135e-08
6.38708e-08
6.28249e-08
6.19003e-08
6.10432e-08
6.02844e-08
5.95724e-08
5.89406e-08
5.83416e-08
5.78109e-08
5.73032e-08
5.68522e-08
5.64165e-08
5.60331e-08
5.56571e-08
5.53262e-08
5.49991e-08
5.4714e-08
5.44291e-08
5.41825e-08
5.39319e-08
5.37171e-08
5.34963e-08
5.3308e-08
5.31122e-08
5.29466e-08
5.27718e-08
5.26279e-08
5.24722e-08
5.23441e-08
5.22044e-08
5.20931e-08
5.19688e-08
5.18685e-08
5.17587e-08
5.16744e-08
5.15732e-08
5.14966e-08
5.14041e-08
5.13447e-08
5.12613e-08
5.1199e-08
5.11276e-08
5.1068e-08
5.09999e-08
5.09544e-08
5.08892e-08
5.08482e-08
5.07861e-08
5.07456e-08
5.06867e-08
5.06486e-08
5.05995e-08
5.05627e-08
5.05138e-08
5.04779e-08
5.04363e-08
5.04044e-08
5.03736e-08
5.03459e-08
5.03243e-08
5.03032e-08
5.02859e-08
5.02692e-08
5.02537e-08
5.0239e-08
5.0228e-08
5.02156e-08
5.02079e-08
5.01975e-08
5.01912e-08
5.01825e-08
5.01763e-08
5.01702e-08
5.01614e-08
5.01537e-08
5.01343e-08
5.06872e-08
3.73235e-06
4.30395e-08
1.2489e-07
1.22342e-07
1.1642e-07
1.09141e-07
1.02039e-07
9.57672e-08
9.03906e-08
8.58531e-08
8.19896e-08
7.87114e-08
7.58817e-08
7.34507e-08
7.13181e-08
6.94675e-08
6.78174e-08
6.63729e-08
6.50672e-08
6.39176e-08
6.28653e-08
6.19348e-08
6.10723e-08
6.03086e-08
5.95919e-08
5.89559e-08
5.8353e-08
5.78186e-08
5.73075e-08
5.68534e-08
5.64147e-08
5.60287e-08
5.565e-08
5.53169e-08
5.49874e-08
5.47002e-08
5.44133e-08
5.41649e-08
5.39124e-08
5.3696e-08
5.34735e-08
5.32838e-08
5.30865e-08
5.29197e-08
5.27435e-08
5.25985e-08
5.24416e-08
5.23125e-08
5.21717e-08
5.20594e-08
5.19341e-08
5.1833e-08
5.17221e-08
5.16371e-08
5.15351e-08
5.14578e-08
5.13644e-08
5.13042e-08
5.12203e-08
5.11574e-08
5.10855e-08
5.10256e-08
5.09568e-08
5.09108e-08
5.0845e-08
5.08038e-08
5.07411e-08
5.07003e-08
5.0641e-08
5.06025e-08
5.05531e-08
5.0516e-08
5.04669e-08
5.04306e-08
5.03887e-08
5.03564e-08
5.03252e-08
5.0297e-08
5.02745e-08
5.02527e-08
5.0235e-08
5.02176e-08
5.02017e-08
5.01866e-08
5.0175e-08
5.01623e-08
5.01541e-08
5.01433e-08
5.01367e-08
5.01276e-08
5.01211e-08
5.01146e-08
5.01055e-08
5.00969e-08
5.00774e-08
5.06461e-08
3.74123e-06
4.58022e-08
1.24881e-07
1.22375e-07
1.16518e-07
1.09287e-07
1.02207e-07
9.59399e-08
9.05576e-08
8.60096e-08
8.21336e-08
7.88423e-08
7.59998e-08
7.35567e-08
7.14128e-08
6.95517e-08
6.7892e-08
6.64387e-08
6.51249e-08
6.39678e-08
6.29087e-08
6.1972e-08
6.11037e-08
6.03348e-08
5.96132e-08
5.89728e-08
5.83656e-08
5.78275e-08
5.73127e-08
5.68553e-08
5.64135e-08
5.60246e-08
5.56431e-08
5.53075e-08
5.49755e-08
5.46862e-08
5.4397e-08
5.41467e-08
5.38923e-08
5.36742e-08
5.34499e-08
5.32587e-08
5.30598e-08
5.28917e-08
5.27141e-08
5.25678e-08
5.24096e-08
5.22794e-08
5.21374e-08
5.20241e-08
5.18978e-08
5.17958e-08
5.16839e-08
5.1598e-08
5.14951e-08
5.14171e-08
5.13228e-08
5.12618e-08
5.11773e-08
5.11138e-08
5.10413e-08
5.09812e-08
5.09115e-08
5.08651e-08
5.07985e-08
5.07571e-08
5.06937e-08
5.06528e-08
5.05929e-08
5.0554e-08
5.05043e-08
5.0467e-08
5.04175e-08
5.03809e-08
5.03387e-08
5.03059e-08
5.02743e-08
5.02456e-08
5.02222e-08
5.01997e-08
5.01815e-08
5.01633e-08
5.01469e-08
5.01314e-08
5.01193e-08
5.01061e-08
5.00976e-08
5.00863e-08
5.00793e-08
5.00697e-08
5.0063e-08
5.0056e-08
5.00466e-08
5.00371e-08
5.00176e-08
5.06023e-08
3.74568e-06
4.88474e-08
1.24871e-07
1.22409e-07
1.16621e-07
1.09439e-07
1.02384e-07
9.61219e-08
9.07342e-08
8.61753e-08
8.22863e-08
7.89813e-08
7.61254e-08
7.36695e-08
7.15136e-08
6.96415e-08
6.79716e-08
6.6509e-08
6.51867e-08
6.40218e-08
6.29554e-08
6.20122e-08
6.11378e-08
6.03632e-08
5.96365e-08
5.89913e-08
5.83797e-08
5.78375e-08
5.73188e-08
5.6858e-08
5.64128e-08
5.60208e-08
5.56364e-08
5.52982e-08
5.49636e-08
5.46719e-08
5.43805e-08
5.41281e-08
5.38716e-08
5.36517e-08
5.34255e-08
5.32327e-08
5.30322e-08
5.28626e-08
5.26834e-08
5.25359e-08
5.23763e-08
5.2245e-08
5.21017e-08
5.19873e-08
5.18598e-08
5.17569e-08
5.16439e-08
5.15572e-08
5.14533e-08
5.13746e-08
5.12793e-08
5.12174e-08
5.11322e-08
5.10682e-08
5.09951e-08
5.09346e-08
5.0864e-08
5.08171e-08
5.07498e-08
5.07082e-08
5.06441e-08
5.06029e-08
5.05424e-08
5.05031e-08
5.04532e-08
5.04155e-08
5.03657e-08
5.03287e-08
5.02861e-08
5.0253e-08
5.02209e-08
5.01917e-08
5.01675e-08
5.01441e-08
5.01253e-08
5.01063e-08
5.00895e-08
5.00735e-08
5.00608e-08
5.00472e-08
5.00382e-08
5.00264e-08
5.00191e-08
5.0009e-08
5.00019e-08
4.99945e-08
4.99847e-08
4.99741e-08
4.99547e-08
5.05558e-08
3.74475e-06
5.21887e-08
1.24861e-07
1.22445e-07
1.16728e-07
1.09599e-07
1.0257e-07
9.63134e-08
9.09203e-08
8.63504e-08
8.24478e-08
7.91286e-08
7.62586e-08
7.37894e-08
7.16209e-08
6.97372e-08
6.80566e-08
6.65842e-08
6.52527e-08
6.40796e-08
6.30056e-08
6.20554e-08
6.11745e-08
6.03941e-08
5.96618e-08
5.90117e-08
5.83954e-08
5.78488e-08
5.73261e-08
5.68616e-08
5.64128e-08
5.60176e-08
5.56301e-08
5.5289e-08
5.49517e-08
5.46575e-08
5.43636e-08
5.4109e-08
5.38503e-08
5.36285e-08
5.34004e-08
5.32059e-08
5.30036e-08
5.28325e-08
5.26517e-08
5.25028e-08
5.23417e-08
5.22093e-08
5.20646e-08
5.19491e-08
5.18204e-08
5.17165e-08
5.16022e-08