/*--------------------------------*- C++ -*----------------------------------*\
| =========                 |                                                 |
| \\      /  F ield         | OpenFOAM: The Open Source CFD Toolbox           |
|  \\    /   O peration     | Version:  v2012                                 |
|   \\  /    A nd           | Website:  www.openfoam.com                      |
|    \\/     M anipulation  |                                                 |
\*---------------------------------------------------------------------------*/
FoamFile
{
    version     2.0;
    format      ascii;
    class       volScalarField;
    location    "34";
    object      yPlus;
}
// * * * * * * * * * * * * * * * * * * * * * * * * * * * * * * * * * * * * * //

dimensions      [0 0 0 0 0 0 0];


internalField   uniform 0;

boundaryField
{
    inlet
    {
        type            calculated;
        value           uniform 0;
    }
    outlet
    {
        type            calculated;
        value           uniform 0;
    }
    topWall
    {
        type            calculated;
        value           nonuniform List<scalar> 
545
(
0.146612
0.25287
0.324408
0.381318
0.429489
0.47163
0.509264
0.543347
0.574533
0.60329
0.629968
0.654841
0.678123
0.699991
0.720588
0.740036
0.758438
0.775884
0.79245
0.808204
0.823205
0.837506
0.851155
0.864193
0.876661
0.888591
0.900017
0.910966
0.921467
0.931543
0.941217
0.95051
0.959441
0.968029
0.97629
0.984241
0.991896
0.999268
1.00637
1.01322
1.01982
1.02618
1.03232
1.03825
1.04397
1.04949
1.05482
1.05998
1.06495
1.06976
1.07441
1.07891
1.08325
1.08746
1.09153
1.09546
1.09927
1.10295
1.10652
1.10998
1.11332
1.11656
1.1197
1.12274
1.12568
1.12853
1.1313
1.13398
1.13658
1.1391
1.14154
1.14391
1.14617
1.14836
1.15054
1.1527
1.15483
1.15696
1.15906
1.16115
1.16322
1.16527
1.1673
1.16932
1.17133
1.17331
1.17529
1.17724
1.17918
1.18111
1.18301
1.18491
1.18679
1.18865
1.1905
1.19233
1.19399
1.19546
1.19694
1.19841
1.19989
1.20136
1.20284
1.20431
1.20578
1.20725
1.20873
1.2102
1.21167
1.21314
1.21461
1.21607
1.21754
1.21901
1.22048
1.22194
1.22341
1.22487
1.22633
1.2278
1.22926
1.23072
1.23218
1.23364
1.2351
1.23656
1.23802
1.23947
1.24093
1.24238
1.24384
1.24529
1.24674
1.24819
1.24965
1.25109
1.25254
1.25399
1.25544
1.25688
1.25833
1.25977
1.26122
1.26266
1.2641
1.26554
1.26698
1.26841
1.26985
1.27129
1.27272
1.27415
1.27558
1.27702
1.27844
1.27987
1.2813
1.28273
1.28415
1.28557
1.287
1.28842
1.28984
1.29126
1.29267
1.29409
1.2955
1.29692
1.29833
1.29974
1.30115
1.30255
1.30396
1.30536
1.30677
1.30817
1.30957
1.31097
1.31236
1.31376
1.31515
1.31655
1.31794
1.31932
1.32071
1.3221
1.32348
1.32486
1.32625
1.32762
1.329
1.33038
1.33175
1.33312
1.33449
1.33586
1.33723
1.33859
1.33996
1.34132
1.34268
1.34403
1.34539
1.34674
1.34809
1.34944
1.35079
1.35214
1.35348
1.35482
1.35616
1.3575
1.35883
1.36016
1.36149
1.36282
1.36415
1.36547
1.3668
1.36812
1.36943
1.37075
1.37206
1.37337
1.37468
1.37599
1.37729
1.37859
1.37989
1.38119
1.38248
1.38377
1.38506
1.38635
1.38763
1.38891
1.39019
1.39147
1.39274
1.39401
1.39528
1.39655
1.39781
1.39907
1.40033
1.40158
1.40283
1.40408
1.40533
1.40657
1.40781
1.40905
1.41029
1.41152
1.41275
1.41398
1.4152
1.41642
1.41764
1.41885
1.42006
1.42127
1.42248
1.42368
1.42488
1.42607
1.42727
1.42846
1.42964
1.43076
1.43181
1.43287
1.43394
1.43501
1.43609
1.43717
1.43826
1.43936
1.44047
1.44158
1.4427
1.44382
1.44495
1.44609
1.44723
1.44838
1.44953
1.45069
1.45186
1.45303
1.45421
1.45539
1.45658
1.45778
1.45898
1.46019
1.4614
1.46261
1.46384
1.46506
1.46629
1.46753
1.46877
1.47002
1.47127
1.47253
1.47379
1.47505
1.47632
1.47759
1.47887
1.48015
1.48143
1.48271
1.484
1.4853
1.48659
1.48789
1.48919
1.49049
1.4918
1.49311
1.49442
1.49573
1.49704
1.49835
1.49967
1.50098
1.5023
1.50361
1.50493
1.50624
1.50756
1.50888
1.51019
1.5115
1.51281
1.51412
1.51543
1.51674
1.51804
1.51934
1.52064
1.52193
1.52322
1.52451
1.52579
1.52707
1.52834
1.5296
1.53086
1.53212
1.53337
1.53461
1.53584
1.53707
1.53829
1.5395
1.5407
1.54189
1.54308
1.54425
1.54541
1.54657
1.54771
1.54884
1.54995
1.55106
1.55215
1.55323
1.55429
1.55535
1.55638
1.5574
1.55841
1.5594
1.56037
1.56132
1.56226
1.56318
1.56408
1.56497
1.56583
1.56667
1.56749
1.5683
1.56907
1.56983
1.57057
1.57128
1.57197
1.57264
1.57328
1.57389
1.57448
1.57505
1.57558
1.5761
1.57658
1.57703
1.57746
1.57786
1.57823
1.57857
1.57888
1.57916
1.57941
1.57962
1.57981
1.57996
1.58008
1.58017
1.58022
1.58024
1.58022
1.58017
1.58009
1.57997
1.57981
1.57962
1.57939
1.57913
1.57883
1.57849
1.57811
1.5777
1.57725
1.57677
1.57624
1.57568
1.57508
1.57444
1.57376
1.57305
1.57229
1.5715
1.57067
1.5698
1.5689
1.56795
1.56697
1.56595
1.56489
1.5638
1.56266
1.5615
1.56029
1.55905
1.55777
1.55645
1.55495
1.55327
1.55155
1.54981
1.54804
1.54626
1.54445
1.54262
1.54078
1.53892
1.53705
1.53517
1.53328
1.53139
1.52948
1.52757
1.52565
1.52374
1.52182
1.5199
1.51798
1.51607
1.51415
1.51225
1.51034
1.50845
1.50656
1.50468
1.5028
1.50095
1.49909
1.49726
1.49543
1.49362
1.49182
1.49005
1.48828
1.48653
1.4848
1.48309
1.48139
1.47971
1.47806
1.47642
1.47481
1.47322
1.47164
1.4701
1.46857
1.46707
1.46559
1.46415
1.46272
1.46132
1.45995
1.4586
1.45728
1.45599
1.45473
1.4535
1.45229
1.45111
1.44997
1.44885
1.44777
1.44672
1.44569
1.4447
1.44374
1.44282
1.44192
1.44107
1.44024
1.43945
1.43869
1.43796
1.43727
1.43662
1.436
1.43541
1.43486
1.43435
1.43387
1.43343
1.43302
1.43266
1.43232
1.43203
1.43177
1.43155
1.43136
1.43121
1.4311
1.43104
1.43097
)
;
    }
    bottomWall
    {
        type            calculated;
        value           nonuniform List<scalar> 
449
(
0.00274007
0.00480549
0.00537942
0.00533168
0.00526013
0.00516371
0.005066
0.00497453
0.00489064
0.004814
0.00474389
0.00467958
0.0046204
0.00456561
0.00451473
0.00446734
0.00442302
0.00438143
0.00434227
0.00430524
0.00427019
0.00423691
0.00420525
0.00417507
0.00414626
0.00411871
0.00409232
0.00406701
0.00404271
0.00401933
0.00399683
0.00397513
0.00395419
0.00393395
0.00391438
0.00389543
0.00387707
0.00385925
0.00384196
0.00382514
0.00380879
0.00379287
0.00377737
0.00376225
0.00374753
0.00373315
0.00371913
0.00370543
0.00369205
0.00367898
0.0036662
0.00365369
0.00364146
0.00362947
0.00361774
0.00360624
0.00359497
0.00358391
0.00357306
0.0035624
0.00355195
0.00354166
0.00353157
0.00352164
0.00351189
0.00350228
0.00349284
0.00348354
0.0034744
0.00346539
0.00345652
0.00344778
0.00343918
0.00343069
0.00342234
0.0034141
0.00340598
0.00339796
0.00339007
0.00338227
0.00337459
0.003367
0.00335952
0.00335212
0.00334484
0.00333763
0.00333052
0.0033235
0.00331657
0.00330971
0.00330294
0.00329625
0.00328965
0.00328311
0.00327665
0.00327026
0.00326396
0.00325771
0.00325155
0.00324544
0.0032394
0.00323343
0.00322752
0.00322167
0.00321589
0.00321016
0.0032045
0.00319889
0.00319334
0.00318784
0.00318241
0.00317701
0.00317168
0.00316639
0.00316117
0.00315597
0.00315085
0.00314575
0.00314072
0.00313572
0.00313078
0.00312588
0.00312102
0.0031162
0.00311144
0.0031067
0.00310202
0.00309736
0.00309276
0.00308818
0.00308366
0.00307916
0.00307471
0.00307029
0.00306591
0.00306156
0.00305725
0.00305297
0.00304873
0.00304452
0.00304035
0.0030362
0.0030321
0.00302801
0.00302397
0.00301995
0.00301597
0.00301201
0.00300809
0.00300419
0.00300032
0.00299648
0.00299267
0.00298888
0.00298512
0.00298139
0.00297769
0.00297401
0.00297035
0.00296673
0.00296312
0.00295955
0.00295599
0.00295247
0.00294896
0.00294548
0.00294202
0.00293859
0.00293517
0.00293178
0.00292841
0.00292507
0.00292174
0.00291862
0.00291567
0.00291273
0.00290977
0.00290682
0.00290384
0.00290087
0.00289788
0.00289489
0.00289189
0.00288889
0.00288586
0.00288285
0.00287981
0.00287678
0.00287373
0.00287068
0.00286762
0.00286456
0.00286149
0.00285841
0.00285532
0.00285223
0.00284913
0.00284602
0.00284291
0.00283979
0.00283667
0.00283354
0.0028304
0.00282726
0.00282412
0.00282096
0.0028178
0.00281463
0.00281147
0.00280829
0.00280511
0.00280192
0.00279874
0.00279553
0.00279234
0.00278913
0.00278593
0.00278271
0.0027795
0.00277627
0.00277305
0.00276982
0.00276659
0.00276335
0.00276011
0.00275686
0.00275362
0.00275036
0.00274711
0.00274385
0.00274059
0.00273733
0.00273406
0.00273079
0.00272752
0.00272424
0.00272096
0.00271768
0.0027144
0.00271112
0.00270782
0.00270454
0.00270125
0.00269796
0.00269466
0.00269137
0.00268807
0.00268478
0.00268148
0.00267818
0.00267488
0.00267158
0.00266827
0.00266497
0.00266167
0.00265836
0.00265506
0.00265175
0.00264845
0.00264514
0.00264184
0.00263853
0.00263523
0.00263192
0.00262862
0.00262531
0.00262201
0.0026187
0.00261541
0.0026121
0.00260881
0.0026055
0.00260221
0.00259891
0.00259562
0.00259232
0.00258904
0.00258574
0.00258246
0.00257916
0.00257589
0.0025726
0.00256932
0.00256604
0.00256277
0.00255949
0.00255623
0.00255295
0.0025497
0.00254643
0.00254317
0.00253991
0.00253666
0.00253341
0.00253017
0.00252692
0.00252368
0.00252044
0.00251721
0.00251398
0.00251075
0.00250753
0.00250431
0.0025011
0.00249788
0.00249467
0.00249147
0.00248827
0.00248507
0.00248189
0.00247869
0.00247551
0.00247233
0.00246916
0.00246598
0.00246282
0.00245965
0.0024565
0.00245334
0.0024502
0.00244705
0.00244392
0.00244078
0.00243766
0.00243453
0.00243142
0.00242831
0.00242521
0.0024221
0.00241901
0.00241591
0.00241283
0.00240975
0.00240668
0.00240361
0.00240055
0.00239749
0.00239444
0.00239139
0.00238836
0.00238533
0.0023823
0.00237928
0.00237627
0.00237327
0.00237026
0.00236727
0.00236427
0.0023613
0.00235831
0.00235535
0.00235237
0.00234942
0.00234645
0.0023432
0.00233963
0.00233614
0.00233268
0.00232929
0.00232593
0.00232264
0.00231938
0.00231619
0.00231303
0.00230993
0.00230686
0.00230384
0.00230085
0.00229791
0.002295
0.00229214
0.00228931
0.00228652
0.00228376
0.00228105
0.00227836
0.00227571
0.00227308
0.0022705
0.00226793
0.00226542
0.00226291
0.00226046
0.00225801
0.00225562
0.00225322
0.00225088
0.00224855
0.00224626
0.00224398
0.00224174
0.00223951
0.00223732
0.00223514
0.00223299
0.00223086
0.00222876
0.00222667
0.00222461
0.00222256
0.00222055
0.00221854
0.00221657
0.0022146
0.00221266
0.00221073
0.00220884
0.00220694
0.00220509
0.00220323
0.00220141
0.00219958
0.00219779
0.002196
0.00219425
0.00219248
0.00219076
0.00218902
0.00218733
0.00218562
0.00218396
0.00218227
0.00218066
0.00217899
0.0021774
0.00217576
0.00217421
0.00217259
0.00217106
0.00216947
0.00216797
0.0021664
0.00216493
0.00216338
0.00216193
0.00216041
0.00215897
0.00215748
0.00215605
0.0021546
0.00215316
0.00215176
0.00215028
0.00214899
0.00214736
0.00214636
0.00214428
0.00214404
0.00214133
)
;
    }
    symmetry
    {
        type            symmetryPlane;
    }
    frontAndBack
    {
        type            empty;
    }
}


// ************************************************************************* //
