/*--------------------------------*- C++ -*----------------------------------*\
| =========                 |                                                 |
| \\      /  F ield         | OpenFOAM: The Open Source CFD Toolbox           |
|  \\    /   O peration     | Version:  v2012                                 |
|   \\  /    A nd           | Website:  www.openfoam.com                      |
|    \\/     M anipulation  |                                                 |
\*---------------------------------------------------------------------------*/
FoamFile
{
    version     2.0;
    format      ascii;
    class       volScalarField;
    location    "9.5";
    object      k;
}
// * * * * * * * * * * * * * * * * * * * * * * * * * * * * * * * * * * * * * //

dimensions      [0 2 -2 0 0 0 0];


internalField   nonuniform List<scalar> 
209825
(
0.00102574
0.000984451
0.000966688
0.000957351
0.000951655
0.000947929
0.000945309
0.00094344
0.000942028
0.000940973
0.000940138
0.000939495
0.000938969
0.000938556
0.00093821
0.000937937
0.000937692
0.000937502
0.000937342
0.000937213
0.000937084
0.000936988
0.000936906
0.00093684
0.000936749
0.000936701
0.000936663
0.00093663
0.000936579
0.000936561
0.000936546
0.000936522
0.000936457
0.000936493
0.000936493
0.000936491
0.000936462
0.000936491
0.000936491
0.000936494
0.00093648
0.000936544
0.000936544
0.000936546
0.000936537
0.00093666
0.000936695
0.000936695
0.000936693
0.000936707
0.000936707
0.000936851
0.000936852
0.000936851
0.000936847
0.00093695
0.000936949
0.000937076
0.000937172
0.000937172
0.000937171
0.000937315
0.000937437
0.000937436
0.000937436
0.000937563
0.000937758
0.000937924
0.000938012
0.000938019
0.000938128
0.00093835
0.000938465
0.00093859
0.000938791
0.000939028
0.000939094
0.000939234
0.000939469
0.000939769
0.00094003
0.000940355
0.000940696
0.000941064
0.000941451
0.000941991
0.000942524
0.000943214
0.000943962
0.000945076
0.000945957
0.000948619
0.000949122
0.000964106
0.00103154
0.00244598
0.00102574
0.00098444
0.00096667
0.000957328
0.000951629
0.000947901
0.000945279
0.000943409
0.000941996
0.000940939
0.000940104
0.00093946
0.000938934
0.00093852
0.000938174
0.0009379
0.000937656
0.000937465
0.000937304
0.000937176
0.000937046
0.000936951
0.000936868
0.000936802
0.000936712
0.000936664
0.000936625
0.000936592
0.000936541
0.000936523
0.000936507
0.000936484
0.000936419
0.000936455
0.000936455
0.000936453
0.000936424
0.000936453
0.000936453
0.000936455
0.000936442
0.000936506
0.000936506
0.000936507
0.000936498
0.000936621
0.000936657
0.000936657
0.000936655
0.000936669
0.000936669
0.000936813
0.000936813
0.000936813
0.000936809
0.000936911
0.000936911
0.000937038
0.000937134
0.000937134
0.000937133
0.000937277
0.000937398
0.000937398
0.000937398
0.000937524
0.00093772
0.000937886
0.000937974
0.000937981
0.00093809
0.000938313
0.000938427
0.000938552
0.000938753
0.00093899
0.000939056
0.000939197
0.000939432
0.000939731
0.000939992
0.000940318
0.000940659
0.000941027
0.000941415
0.000941954
0.000942488
0.000943178
0.000943926
0.000945041
0.000945921
0.000948584
0.000949086
0.000964099
0.00103157
0.00244753
0.00102573
0.000984386
0.000966588
0.000957229
0.000951518
0.00094778
0.000945152
0.000943277
0.00094186
0.0009408
0.000939962
0.000939317
0.000938789
0.000938374
0.000938027
0.000937752
0.000937506
0.000937315
0.000937154
0.000937024
0.000936894
0.000936799
0.000936715
0.000936649
0.000936558
0.00093651
0.000936471
0.000936438
0.000936387
0.000936369
0.000936353
0.00093633
0.000936264
0.0009363
0.0009363
0.000936298
0.000936269
0.000936298
0.000936298
0.0009363
0.000936286
0.000936351
0.000936351
0.000936352
0.000936343
0.000936466
0.000936502
0.000936502
0.0009365
0.000936514
0.000936513
0.000936658
0.000936658
0.000936658
0.000936654
0.000936756
0.000936756
0.000936883
0.000936979
0.000936979
0.000936978
0.000937122
0.000937244
0.000937244
0.000937243
0.00093737
0.000937566
0.000937732
0.00093782
0.000937828
0.000937937
0.000938159
0.000938273
0.000938399
0.0009386
0.000938837
0.000938904
0.000939045
0.00093928
0.000939579
0.000939841
0.000940166
0.000940508
0.000940876
0.000941264
0.000941804
0.000942338
0.000943029
0.000943776
0.000944892
0.000945773
0.000948437
0.000948934
0.000964008
0.00103157
0.00245078
0.00102571
0.000984294
0.000966449
0.000957061
0.00095133
0.000947578
0.000944939
0.000943055
0.000941632
0.000940567
0.000939725
0.000939076
0.000938545
0.000938128
0.000937778
0.000937502
0.000937255
0.000937062
0.0009369
0.00093677
0.000936639
0.000936543
0.000936459
0.000936392
0.000936301
0.000936252
0.000936213
0.00093618
0.000936128
0.00093611
0.000936094
0.00093607
0.000936005
0.00093604
0.00093604
0.000936037
0.000936008
0.000936037
0.000936037
0.00093604
0.000936025
0.00093609
0.00093609
0.000936091
0.000936082
0.000936205
0.00093624
0.00093624
0.000936238
0.000936252
0.000936252
0.000936397
0.000936397
0.000936397
0.000936393
0.000936496
0.000936496
0.000936622
0.000936719
0.000936719
0.000936717
0.000936862
0.000936984
0.000936984
0.000936984
0.00093711
0.000937306
0.000937473
0.000937561
0.00093757
0.000937678
0.0009379
0.000938016
0.000938141
0.000938342
0.00093858
0.000938648
0.000938789
0.000939024
0.000939324
0.000939585
0.000939911
0.000940253
0.000940622
0.00094101
0.000941551
0.000942085
0.000942777
0.000943525
0.000944642
0.000945522
0.000948189
0.000948679
0.000963844
0.00103154
0.0024549
0.00102567
0.000984163
0.000966254
0.000956824
0.000951064
0.000947291
0.000944637
0.000942742
0.000941309
0.000940237
0.000939389
0.000938736
0.000938201
0.00093778
0.000937428
0.000937149
0.000936901
0.000936706
0.000936542
0.000936411
0.000936279
0.000936182
0.000936097
0.00093603
0.000935938
0.000935888
0.000935848
0.000935815
0.000935763
0.000935744
0.000935728
0.000935704
0.000935638
0.000935673
0.000935673
0.00093567
0.000935641
0.000935669
0.000935669
0.000935672
0.000935657
0.000935722
0.000935722
0.000935723
0.000935713
0.000935836
0.000935872
0.000935872
0.00093587
0.000935884
0.000935884
0.000936028
0.000936029
0.000936028
0.000936025
0.000936128
0.000936128
0.000936254
0.000936351
0.000936351
0.00093635
0.000936494
0.000936618
0.000936618
0.000936617
0.000936744
0.00093694
0.000937107
0.000937196
0.000937206
0.000937314
0.000937536
0.000937652
0.000937778
0.000937979
0.000938218
0.000938286
0.000938428
0.000938663
0.000938963
0.000939225
0.000939552
0.000939894
0.000940264
0.000940653
0.000941194
0.000941729
0.000942422
0.000943169
0.000944289
0.000945168
0.000947838
0.000948318
0.000963609
0.00103148
0.00245984
0.00102563
0.000983995
0.000966001
0.000956516
0.00095072
0.000946921
0.000944247
0.000942336
0.000940892
0.000939811
0.000938955
0.000938295
0.000937755
0.00093733
0.000936975
0.000936693
0.000936441
0.000936245
0.000936079
0.000935946
0.000935812
0.000935714
0.000935628
0.00093556
0.000935467
0.000935417
0.000935376
0.000935342
0.00093529
0.00093527
0.000935253
0.000935229
0.000935163
0.000935197
0.000935197
0.000935194
0.000935165
0.000935193
0.000935193
0.000935195
0.00093518
0.000935244
0.000935244
0.000935245
0.000935236
0.000935359
0.000935395
0.000935395
0.000935393
0.000935406
0.000935406
0.000935551
0.000935551
0.000935551
0.000935547
0.000935652
0.000935652
0.000935778
0.000935875
0.000935875
0.000935874
0.000936018
0.000936143
0.000936143
0.000936142
0.000936269
0.000936465
0.000936633
0.000936723
0.000936735
0.000936841
0.000937063
0.00093718
0.000937307
0.000937508
0.000937747
0.000937817
0.000937959
0.000938194
0.000938495
0.000938758
0.000939085
0.000939428
0.0009398
0.000940189
0.000940731
0.000941266
0.000941962
0.000942708
0.000943831
0.000944708
0.000947382
0.00094785
0.000963302
0.00103138
0.00246552
0.00102558
0.000983787
0.000965689
0.000956138
0.000950296
0.000946464
0.000943766
0.000941837
0.000940378
0.000939285
0.00093842
0.000937752
0.000937206
0.000936776
0.000936415
0.00093613
0.000935875
0.000935676
0.000935507
0.000935372
0.000935237
0.000935137
0.00093505
0.00093498
0.000934886
0.000934835
0.000934794
0.000934759
0.000934706
0.000934686
0.000934669
0.000934644
0.000934577
0.00093461
0.00093461
0.000934608
0.000934578
0.000934605
0.000934605
0.000934607
0.000934592
0.000934656
0.000934656
0.000934657
0.000934647
0.00093477
0.000934806
0.000934806
0.000934804
0.000934818
0.000934817
0.000934963
0.000934963
0.000934963
0.000934959
0.000935064
0.000935065
0.00093519
0.000935288
0.000935288
0.000935286
0.00093543
0.000935557
0.000935557
0.000935557
0.000935683
0.00093588
0.000936049
0.00093614
0.000936154
0.000936259
0.00093648
0.000936598
0.000936726
0.000936927
0.000937167
0.000937239
0.000937382
0.000937617
0.000937918
0.000938182
0.00093851
0.000938853
0.000939227
0.000939616
0.00094016
0.000940696
0.000941393
0.000942139
0.000943265
0.000944141
0.00094682
0.000947272
0.000962923
0.00103122
0.00247176
0.00102552
0.000983541
0.000965319
0.000955688
0.000949791
0.00094592
0.000943193
0.000941241
0.000939765
0.000938658
0.000937782
0.000937105
0.000936551
0.000936114
0.000935749
0.000935459
0.0009352
0.000934997
0.000934826
0.000934689
0.000934551
0.000934449
0.00093436
0.00093429
0.000934194
0.000934142
0.000934099
0.000934064
0.00093401
0.000933989
0.000933972
0.000933947
0.000933879
0.000933911
0.000933911
0.000933908
0.000933878
0.000933905
0.000933905
0.000933907
0.000933891
0.000933955
0.000933955
0.000933955
0.000933945
0.000934068
0.000934104
0.000934104
0.000934102
0.000934116
0.000934116
0.000934261
0.000934261
0.000934261
0.000934257
0.000934364
0.000934364
0.000934489
0.000934588
0.000934588
0.000934586
0.00093473
0.000934859
0.000934859
0.000934859
0.000934985
0.000935182
0.000935352
0.000935444
0.00093546
0.000935564
0.000935785
0.000935905
0.000936033
0.000936234
0.000936476
0.00093655
0.000936693
0.000936928
0.00093723
0.000937494
0.000937824
0.000938168
0.000938543
0.000938933
0.000939479
0.000940015
0.000940716
0.00094146
0.000942591
0.000943465
0.000946149
0.000946583
0.000962472
0.00103097
0.00247826
0.00102545
0.000983256
0.00096489
0.000955165
0.000949205
0.000945288
0.000942527
0.000940549
0.000939052
0.000937929
0.000937039
0.000936352
0.000935789
0.000935345
0.000934973
0.000934677
0.000934415
0.000934208
0.000934033
0.000933893
0.000933753
0.000933649
0.000933558
0.000933486
0.000933389
0.000933335
0.000933291
0.000933255
0.0009332
0.000933179
0.00093316
0.000933135
0.000933066
0.000933097
0.000933097
0.000933094
0.000933063
0.000933089
0.000933089
0.000933091
0.000933074
0.000933138
0.000933138
0.000933138
0.000933128
0.000933251
0.000933287
0.000933287
0.000933285
0.000933298
0.000933298
0.000933444
0.000933444
0.000933444
0.00093344
0.000933548
0.000933549
0.000933672
0.000933772
0.000933772
0.000933771
0.000933915
0.000934045
0.000934046
0.000934046
0.000934172
0.000934369
0.00093454
0.000934634
0.000934653
0.000934756
0.000934976
0.000935097
0.000935226
0.000935427
0.00093567
0.000935747
0.000935891
0.000936126
0.000936429
0.000936694
0.000937025
0.00093737
0.000937748
0.000938138
0.000938686
0.000939223
0.000939926
0.000940669
0.000941804
0.000942676
0.000945367
0.00094578
0.000961947
0.00103062
0.0024846
0.00102538
0.000982932
0.0009644
0.000954569
0.000948536
0.000944567
0.000941766
0.000939758
0.000938238
0.000937095
0.000936191
0.000935491
0.000934918
0.000934465
0.000934086
0.000933784
0.000933516
0.000933305
0.000933127
0.000932983
0.00093284
0.000932733
0.00093264
0.000932566
0.000932468
0.000932413
0.000932367
0.00093233
0.000932274
0.000932251
0.000932232
0.000932206
0.000932136
0.000932166
0.000932166
0.000932163
0.00093213
0.000932157
0.000932157
0.000932158
0.00093214
0.000932204
0.000932204
0.000932204
0.000932193
0.000932317
0.000932352
0.000932352
0.00093235
0.000932363
0.000932363
0.00093251
0.00093251
0.00093251
0.000932506
0.000932615
0.000932616
0.000932739
0.00093284
0.00093284
0.000932838
0.000932982
0.000933115
0.000933116
0.000933116
0.000933242
0.000933439
0.000933611
0.000933707
0.000933729
0.00093383
0.00093405
0.000934173
0.000934303
0.000934504
0.000934749
0.000934828
0.000934974
0.000935208
0.000935512
0.000935778
0.000936111
0.000936457
0.000936837
0.000937228
0.000937778
0.000938316
0.000939022
0.000939764
0.000940905
0.000941774
0.000944472
0.00094486
0.000961348
0.00103016
0.00249013
0.00102529
0.00098257
0.000963851
0.000953899
0.000947783
0.000943754
0.000940909
0.000938867
0.00093732
0.000936156
0.000935235
0.000934521
0.000933936
0.000933474
0.000933086
0.000932778
0.000932504
0.000932287
0.000932105
0.000931957
0.000931811
0.000931701
0.000931605
0.000931529
0.000931429
0.000931372
0.000931325
0.000931286
0.000931229
0.000931206
0.000931185
0.000931159
0.000931088
0.000931116
0.000931116
0.000931112
0.000931079
0.000931105
0.000931105
0.000931106
0.000931087
0.00093115
0.00093115
0.00093115
0.000931139
0.000931262
0.000931298
0.000931298
0.000931296
0.000931309
0.000931309
0.000931456
0.000931456
0.000931456
0.000931452
0.000931563
0.000931565
0.000931686
0.000931788
0.000931788
0.000931787
0.00093193
0.000932066
0.000932067
0.000932067
0.000932193
0.000932391
0.000932564
0.000932661
0.000932688
0.000932787
0.000933005
0.00093313
0.000933262
0.000933463
0.000933709
0.000933792
0.000933939
0.000934172
0.000934478
0.000934745
0.000935079
0.000935426
0.000935809
0.000936201
0.000936754
0.000937292
0.000938002
0.000938743
0.000939889
0.000940755
0.000943461
0.000943823
0.000960673
0.00102959
0.00249398
0.00102519
0.000982168
0.000963241
0.000953154
0.000946945
0.00094285
0.000939955
0.000937874
0.000936297
0.00093511
0.000934169
0.000933439
0.000932841
0.000932368
0.000931972
0.000931655
0.000931375
0.000931153
0.000930965
0.000930813
0.000930663
0.00093055
0.000930451
0.000930373
0.000930271
0.000930211
0.000930163
0.000930122
0.000930064
0.000930039
0.000930018
0.00092999
0.000929918
0.000929946
0.000929945
0.000929941
0.000929907
0.000929932
0.000929931
0.000929932
0.000929913
0.000929975
0.000929975
0.000929975
0.000929963
0.000930087
0.000930122
0.000930122
0.00093012
0.000930133
0.000930133
0.000930281
0.000930281
0.000930281
0.000930277
0.000930389
0.000930391
0.000930511
0.000930615
0.000930615
0.000930613
0.000930756
0.000930895
0.000930897
0.000930897
0.000931023
0.000931221
0.000931396
0.000931495
0.000931526
0.000931622
0.00093184
0.000931967
0.000932101
0.000932301
0.00093255
0.000932636
0.000932784
0.000933017
0.000933324
0.000933592
0.000933928
0.000934276
0.000934663
0.000935056
0.00093561
0.00093615
0.000936864
0.000937603
0.000938755
0.000939618
0.000942332
0.000942665
0.000959921
0.0010289
0.00249502
0.00102509
0.000981727
0.00096257
0.000952333
0.000946022
0.000941852
0.000938902
0.000936779
0.000935169
0.000933955
0.000932992
0.000932245
0.000931632
0.000931147
0.00093074
0.000930415
0.000930127
0.000929899
0.000929705
0.000929549
0.000929395
0.000929278
0.000929176
0.000929095
0.000928991
0.000928929
0.000928878
0.000928836
0.000928777
0.00092875
0.000928727
0.000928699
0.000928626
0.000928652
0.000928651
0.000928646
0.000928611
0.000928635
0.000928635
0.000928635
0.000928614
0.000928676
0.000928677
0.000928676
0.000928663
0.000928787
0.000928822
0.000928822
0.00092882
0.000928833
0.000928833
0.000928981
0.000928982
0.000928981
0.000928978
0.000929091
0.000929095
0.000929213
0.000929318
0.000929318
0.000929317
0.000929459
0.000929601
0.000929604
0.000929604
0.00092973
0.000929928
0.000930104
0.000930206
0.000930241
0.000930335
0.000930552
0.000930682
0.000930817
0.000931017
0.000931267
0.000931357
0.000931507
0.00093174
0.000932048
0.000932318
0.000932656
0.000933005
0.000933395
0.000933788
0.000934346
0.000934886
0.000935605
0.000936342
0.000937501
0.000938361
0.000941083
0.000941384
0.000959091
0.0010281
0.00249325
0.00102498
0.000981248
0.000961839
0.000951436
0.000945012
0.000940761
0.00093775
0.00093558
0.000933933
0.000932689
0.000931703
0.000930936
0.000930307
0.000929809
0.000929391
0.000929056
0.00092876
0.000928524
0.000928325
0.000928163
0.000928005
0.000927884
0.000927778
0.000927694
0.000927587
0.000927523
0.00092747
0.000927426
0.000927365
0.000927337
0.000927312
0.000927284
0.000927208
0.000927233
0.000927232
0.000927227
0.00092719
0.000927213
0.000927213
0.000927212
0.000927191
0.000927252
0.000927252
0.000927252
0.000927238
0.000927362
0.000927397
0.000927397
0.000927395
0.000927408
0.000927408
0.000927556
0.000927557
0.000927556
0.000927553
0.000927668
0.000927673
0.000927789
0.000927895
0.000927895
0.000927894
0.000928036
0.000928181
0.000928186
0.000928185
0.000928311
0.000928509
0.000928688
0.000928791
0.000928831
0.000928923
0.000929139
0.000929271
0.000929408
0.000929609
0.000929861
0.000929954
0.000930107
0.000930339
0.000930648
0.00093092
0.00093126
0.00093161
0.000932003
0.000932398
0.000932959
0.0009335
0.000934223
0.000934958
0.000936124
0.00093698
0.000939712
0.000939978
0.000958179
0.00102719
0.00248868
0.00102487
0.000980731
0.000961046
0.000950463
0.000943915
0.000939574
0.000936496
0.000934275
0.000932588
0.000931312
0.0009303
0.000929511
0.000928865
0.000928351
0.000927921
0.000927576
0.00092727
0.000927027
0.000926821
0.000926653
0.00092649
0.000926365
0.000926255
0.000926168
0.000926058
0.000925991
0.000925935
0.000925889
0.000925827
0.000925797
0.000925771
0.000925741
0.000925664
0.000925687
0.000925686
0.00092568
0.000925642
0.000925664
0.000925664
0.000925663
0.000925639
0.0009257
0.0009257
0.0009257
0.000925684
0.000925809
0.000925844
0.000925844
0.000925841
0.000925854
0.000925854
0.000926004
0.000926004
0.000926004
0.000926
0.000926116
0.000926123
0.000926237
0.000926345
0.000926345
0.000926344
0.000926486
0.000926634
0.00092664
0.000926639
0.000926765
0.000926963
0.000927144
0.000927249
0.000927295
0.000927384
0.000927599
0.000927734
0.000927873
0.000928073
0.000928327
0.000928425
0.00092858
0.000928812
0.000929122
0.000929395
0.000929737
0.000930089
0.000930486
0.000930882
0.000931446
0.000931988
0.000932717
0.000933448
0.000934623
0.000935474
0.000938216
0.000938445
0.000957185
0.00102616
0.00248133
0.00102474
0.000980176
0.000960192
0.000949414
0.00094273
0.000938292
0.000935141
0.000932864
0.000931132
0.000929821
0.00092878
0.000927969
0.000927303
0.000926773
0.000926329
0.000925972
0.000925657
0.000925406
0.000925192
0.000925018
0.000924849
0.000924719
0.000924605
0.000924514
0.000924401
0.000924331
0.000924272
0.000924225
0.00092416
0.000924128
0.0009241
0.00092407
0.000923991
0.000924011
0.000924011
0.000924003
0.000923964
0.000923985
0.000923985
0.000923983
0.000923958
0.000924018
0.000924018
0.000924018
0.000924001
0.000924126
0.00092416
0.000924161
0.000924158
0.000924171
0.000924171
0.000924321
0.000924321
0.000924321
0.000924317
0.000924435
0.000924443
0.000924555
0.000924665
0.000924665
0.000924664
0.000924805
0.000924957
0.000924965
0.000924964
0.000925089
0.000925288
0.00092547
0.000925578
0.00092563
0.000925717
0.00092593
0.000926068
0.000926209
0.000926409
0.000926665
0.000926768
0.000926924
0.000927156
0.000927468
0.000927743
0.000928087
0.00092844
0.000928842
0.000929238
0.000929806
0.000930349
0.000931083
0.000931812
0.000932994
0.000933841
0.000936592
0.000936782
0.000956104
0.001025
0.00247126
0.00102461
0.000979583
0.000959277
0.000948287
0.000941457
0.000936913
0.000933683
0.000931344
0.000929565
0.000928216
0.000927144
0.000926307
0.00092562
0.000925073
0.000924614
0.000924245
0.000923919
0.000923658
0.000923436
0.000923255
0.00092308
0.000922945
0.000922826
0.000922731
0.000922615
0.000922541
0.00092248
0.00092243
0.000922363
0.000922329
0.000922299
0.000922267
0.000922187
0.000922205
0.000922204
0.000922196
0.000922155
0.000922174
0.000922174
0.000922172
0.000922146
0.000922205
0.000922205
0.000922204
0.000922186
0.000922311
0.000922345
0.000922345
0.000922343
0.000922355
0.000922355
0.000922506
0.000922506
0.000922506
0.000922502
0.000922622
0.000922632
0.000922741
0.000922854
0.000922854
0.000922853
0.000922993
0.000923148
0.000923158
0.000923157
0.000923282
0.000923481
0.000923665
0.000923776
0.000923833
0.000923918
0.00092413
0.000924271
0.000924414
0.000924614
0.000924873
0.00092498
0.000925139
0.00092537
0.000925684
0.00092596
0.000926307
0.000926661
0.000927067
0.000927465
0.000928036
0.000928579
0.000929319
0.000930045
0.000931236
0.000932077
0.000934839
0.000934987
0.000954934
0.00102372
0.00245851
0.00102447
0.000978953
0.000958301
0.000947082
0.000940095
0.000935437
0.000932121
0.000929716
0.000927885
0.000926495
0.00092539
0.000924525
0.000923815
0.000923249
0.000922774
0.000922391
0.000922053
0.000921782
0.000921551
0.000921363
0.000921182
0.000921041
0.000920917
0.000920817
0.000920697
0.00092062
0.000920555
0.000920503
0.000920433
0.000920397
0.000920365
0.000920332
0.000920251
0.000920266
0.000920264
0.000920255
0.000920213
0.000920231
0.000920231
0.000920228
0.000920199
0.000920258
0.000920257
0.000920256
0.000920238
0.000920362
0.000920396
0.000920397
0.000920394
0.000920406
0.000920406
0.000920557
0.000920558
0.000920557
0.000920554
0.000920675
0.000920687
0.000920794
0.000920908
0.000920908
0.000920907
0.000921047
0.000921206
0.000921217
0.000921217
0.000921342
0.00092154
0.000921727
0.00092184
0.000921904
0.000921985
0.000922196
0.00092234
0.000922486
0.000922686
0.000922947
0.000923059
0.00092322
0.000923451
0.000923767
0.000924044
0.000924394
0.00092475
0.00092516
0.000925559
0.000926134
0.000926678
0.000927424
0.000928146
0.000929346
0.000930182
0.000932953
0.000933059
0.000953672
0.00102231
0.00244314
0.00102433
0.000978287
0.000957264
0.000945801
0.000938644
0.000933862
0.000930454
0.000927979
0.000926092
0.000924657
0.000923515
0.000922621
0.000921886
0.000921299
0.000920807
0.000920409
0.000920059
0.000919777
0.000919537
0.00091934
0.000919152
0.000919005
0.000918875
0.000918771
0.000918647
0.000918566
0.000918497
0.000918442
0.00091837
0.000918331
0.000918297
0.000918263
0.000918179
0.000918192
0.00091819
0.00091818
0.000918136
0.000918152
0.000918152
0.000918148
0.000918118
0.000918175
0.000918174
0.000918173
0.000918153
0.000918277
0.000918312
0.000918312
0.000918309
0.000918321
0.000918321
0.000918473
0.000918473
0.000918473
0.000918469
0.000918592
0.000918607
0.00091871
0.000918827
0.000918827
0.000918826
0.000918965
0.000919127
0.000919141
0.000919141
0.000919265
0.000919464
0.000919653
0.000919768
0.000919839
0.000919918
0.000920127
0.000920274
0.000920422
0.000920622
0.000920886
0.000921003
0.000921168
0.000921398
0.000921716
0.000921995
0.000922348
0.000922704
0.00092312
0.000923519
0.000924098
0.000924643
0.000925395
0.000926114
0.000927322
0.000928152
0.000930933
0.000930994
0.000952312
0.00102077
0.00242522
0.00102418
0.000977584
0.000956168
0.000944441
0.000937103
0.000932189
0.000928682
0.00092613
0.000924183
0.0009227
0.000921519
0.000920593
0.000919832
0.000919223
0.000918712
0.000918298
0.000917934
0.000917641
0.00091739
0.000917185
0.000916989
0.000916835
0.000916699
0.00091659
0.000916461
0.000916376
0.000916304
0.000916245
0.000916171
0.000916129
0.000916093
0.000916057
0.000915972
0.000915982
0.000915979
0.000915967
0.000915922
0.000915936
0.000915936
0.000915931
0.000915899
0.000915954
0.000915954
0.000915953
0.000915931
0.000916055
0.000916089
0.000916089
0.000916087
0.000916098
0.000916098
0.00091625
0.000916251
0.00091625
0.000916247
0.000916371
0.000916389
0.000916488
0.000916608
0.000916607
0.000916607
0.000916746
0.000916911
0.000916928
0.000916928
0.000917052
0.00091725
0.000917442
0.00091756
0.000917637
0.000917714
0.000917921
0.000918072
0.000918222
0.000918422
0.000918688
0.000918811
0.000918978
0.000919208
0.000919528
0.000919809
0.000920164
0.000920522
0.000920943
0.000921343
0.000921926
0.000922471
0.00092323
0.000923944
0.000925162
0.000925986
0.000928776
0.000928791
0.00095085
0.00101909
0.00240485
0.00102403
0.000976847
0.000955011
0.000943005
0.000935472
0.000930417
0.000926804
0.00092417
0.000922159
0.000920624
0.000919402
0.000918441
0.000917652
0.000917018
0.000916487
0.000916056
0.000915678
0.000915371
0.00091511
0.000914895
0.000914691
0.00091453
0.000914387
0.000914273
0.000914139
0.00091405
0.000913973
0.000913911
0.000913834
0.00091379
0.00091375
0.000913713
0.000913626
0.000913633
0.000913629
0.000913616
0.000913569
0.000913581
0.000913581
0.000913575
0.00091354
0.000913595
0.000913594
0.000913593
0.00091357
0.000913693
0.000913728
0.000913727
0.000913725
0.000913736
0.000913735
0.000913888
0.000913889
0.000913888
0.000913884
0.00091401
0.000914031
0.000914127
0.000914249
0.000914249
0.000914248
0.000914386
0.000914555
0.000914576
0.000914575
0.000914698
0.000914896
0.000915091
0.000915211
0.000915296
0.00091537
0.000915576
0.00091573
0.000915883
0.000916083
0.000916351
0.000916479
0.000916651
0.00091688
0.000917201
0.000917484
0.000917843
0.000918202
0.000918627
0.000919029
0.000919616
0.000920161
0.000920926
0.000921637
0.000922863
0.000923681
0.000926479
0.000926448
0.000949282
0.00101727
0.00238212
0.00102388
0.000976075
0.000953795
0.000941491
0.000933751
0.000928546
0.000924819
0.000922098
0.000920018
0.000918428
0.000917161
0.000916163
0.000915343
0.000914684
0.000914131
0.000913682
0.000913288
0.000912968
0.000912694
0.00091247
0.000912257
0.000912087
0.000911938
0.000911818
0.000911679
0.000911585
0.000911504
0.000911438
0.000911357
0.00091131
0.000911268
0.000911229
0.00091114
0.000911144
0.000911139
0.000911124
0.000911075
0.000911086
0.000911085
0.000911078
0.000911041
0.000911094
0.000911093
0.000911092
0.000911067
0.00091119
0.000911224
0.000911224
0.000911221
0.000911232
0.000911231
0.000911384
0.000911385
0.000911385
0.000911381
0.000911508
0.000911532
0.000911624
0.000911748
0.000911748
0.000911747
0.000911885
0.000912058
0.000912082
0.000912081
0.000912204
0.000912401
0.000912598
0.000912721
0.000912814
0.000912886
0.000913089
0.000913247
0.000913403
0.000913603
0.000913874
0.000914007
0.000914182
0.000914411
0.000914735
0.000915019
0.00091538
0.000915741
0.000916172
0.000916574
0.000917166
0.000917711
0.000918483
0.000919189
0.000920424
0.000921235
0.000924041
0.000923962
0.0009476
0.0010153
0.00235713
0.00102372
0.00097527
0.00095252
0.000939901
0.000931941
0.000926575
0.000922727
0.000919913
0.000917759
0.00091611
0.000914795
0.000913758
0.000912906
0.000912219
0.000911643
0.000911174
0.000910764
0.000910429
0.000910142
0.000909907
0.000909685
0.000909507
0.00090935
0.000909223
0.000909079
0.000908979
0.000908894
0.000908824
0.00090874
0.000908689
0.000908644
0.000908603
0.000908512
0.000908513
0.000908506
0.00090849
0.00090844
0.000908448
0.000908447
0.000908439
0.000908399
0.00090845
0.00090845
0.000908448
0.000908421
0.000908544
0.000908578
0.000908577
0.000908575
0.000908585
0.000908583
0.000908737
0.000908738
0.000908738
0.000908734
0.000908863
0.00090889
0.000908977
0.000909105
0.000909104
0.000909104
0.000909241
0.000909417
0.000909445
0.000909445
0.000909567
0.000909763
0.000909963
0.000910089
0.000910189
0.000910258
0.00091046
0.000910621
0.000910781
0.00091098
0.000911253
0.000911392
0.000911571
0.0009118
0.000912125
0.000912411
0.000912776
0.000913137
0.000913573
0.000913977
0.000914573
0.000915118
0.000915896
0.000916598
0.000917842
0.000918646
0.00092146
0.000921331
0.000945799
0.00101318
0.00232999
0.00102355
0.000974433
0.000951188
0.000938234
0.00093004
0.000924504
0.000920528
0.000917614
0.000915382
0.00091367
0.000912304
0.000911225
0.000910338
0.000909623
0.000909021
0.000908531
0.000908103
0.000907753
0.000907453
0.000907205
0.000906973
0.000906786
0.000906621
0.000906488
0.000906338
0.000906232
0.000906141
0.000906068
0.00090598
0.000905926
0.000905877
0.000905834
0.000905741
0.000905739
0.00090573
0.000905712
0.00090566
0.000905666
0.000905664
0.000905655
0.000905613
0.000905661
0.000905661
0.000905659
0.00090563
0.000905753
0.000905786
0.000905786
0.000905783
0.000905793
0.000905791
0.000905945
0.000905946
0.000905946
0.000905941
0.000906072
0.000906103
0.000906185
0.000906316
0.000906315
0.000906315
0.000906451
0.000906631
0.000906664
0.000906663
0.000906784
0.00090698
0.000907182
0.00090731
0.000907419
0.000907486
0.000907686
0.00090785
0.000908013
0.000908212
0.000908488
0.000908633
0.000908816
0.000909044
0.000909371
0.000909659
0.000910027
0.000910389
0.000910831
0.000911235
0.000911835
0.00091238
0.000913166
0.000913862
0.000915115
0.000915912
0.000918732
0.000918554
0.000943871
0.0010109
0.00230082
0.00102339
0.000973565
0.000949799
0.000936491
0.00092805
0.000922333
0.000918221
0.000915201
0.000912886
0.000911108
0.000909688
0.000908564
0.000907639
0.000906893
0.000906265
0.000905753
0.000905305
0.000904938
0.000904624
0.000904364
0.000904121
0.000903924
0.000903751
0.00090361
0.000903454
0.000903342
0.000903246
0.000903168
0.000903076
0.000903018
0.000902966
0.000902921
0.000902825
0.00090282
0.000902808
0.000902789
0.000902735
0.000902739
0.000902736
0.000902726
0.00090268
0.000902727
0.000902727
0.000902724
0.000902693
0.000902815
0.000902848
0.000902847
0.000902845
0.000902854
0.000902851
0.000903006
0.000903008
0.000903007
0.000903002
0.000903134
0.000903169
0.000903246
0.00090338
0.00090338
0.000903379
0.000903515
0.000903698
0.000903736
0.000903735
0.000903855
0.00090405
0.000904255
0.000904386
0.000904502
0.000904568
0.000904766
0.000904932
0.000905099
0.000905298
0.000905577
0.000905727
0.000905914
0.000906142
0.000906471
0.00090676
0.000907132
0.000907495
0.000907942
0.000908347
0.000908952
0.000909496
0.000910289
0.000910979
0.000912241
0.00091303
0.000915857
0.000915629
0.000941808
0.00100845
0.00226974
0.00102322
0.000972666
0.000948353
0.000934674
0.000925971
0.000920062
0.000915806
0.000912674
0.000910271
0.000908422
0.000906944
0.000905773
0.000904809
0.000904029
0.000903373
0.000902837
0.000902369
0.000901984
0.000901654
0.000901381
0.000901127
0.00090092
0.000900737
0.000900588
0.000900426
0.000900307
0.000900205
0.000900122
0.000900026
0.000899964
0.000899908
0.000899861
0.000899763
0.000899754
0.000899739
0.000899718
0.000899663
0.000899665
0.000899661
0.000899649
0.0008996
0.000899644
0.000899644
0.000899642
0.000899608
0.000899729
0.000899762
0.000899761
0.000899759
0.000899768
0.000899764
0.000899918
0.00089992
0.00089992
0.000899915
0.000900048
0.000900087
0.000900158