/*--------------------------------*- C++ -*----------------------------------*\
| =========                 |                                                 |
| \\      /  F ield         | OpenFOAM: The Open Source CFD Toolbox           |
|  \\    /   O peration     | Version:  v2012                                 |
|   \\  /    A nd           | Website:  www.openfoam.com                      |
|    \\/     M anipulation  |                                                 |
\*---------------------------------------------------------------------------*/
FoamFile
{
    version     2.0;
    format      ascii;
    class       volScalarField;
    location    "9.5";
    object      nut;
}
// * * * * * * * * * * * * * * * * * * * * * * * * * * * * * * * * * * * * * //

dimensions      [0 2 -1 0 0 0 0];


internalField   nonuniform List<scalar> 
209825
(
1.24406e-07
1.25326e-07
1.26056e-07
1.26557e-07
1.2692e-07
1.27195e-07
1.27411e-07
1.27584e-07
1.27726e-07
1.27843e-07
1.27942e-07
1.28025e-07
1.28097e-07
1.28158e-07
1.28212e-07
1.28258e-07
1.28299e-07
1.28334e-07
1.28367e-07
1.28394e-07
1.28419e-07
1.28441e-07
1.28461e-07
1.28477e-07
1.28492e-07
1.28506e-07
1.28519e-07
1.2853e-07
1.2854e-07
1.28549e-07
1.28559e-07
1.28564e-07
1.28563e-07
1.28574e-07
1.28585e-07
1.28589e-07
1.28588e-07
1.28596e-07
1.28605e-07
1.28604e-07
1.28602e-07
1.28612e-07
1.28617e-07
1.286e-07
1.28599e-07
1.28616e-07
1.28621e-07
1.28616e-07
1.28616e-07
1.28605e-07
1.28605e-07
1.28604e-07
1.28588e-07
1.28585e-07
1.28584e-07
1.28578e-07
1.28563e-07
1.28575e-07
1.28582e-07
1.28582e-07
1.28576e-07
1.28574e-07
1.28591e-07
1.28576e-07
1.28555e-07
1.28572e-07
1.28599e-07
1.28599e-07
1.28611e-07
1.28587e-07
1.28575e-07
1.28589e-07
1.28575e-07
1.28583e-07
1.28611e-07
1.28619e-07
1.28608e-07
1.28604e-07
1.28604e-07
1.28642e-07
1.28651e-07
1.28667e-07
1.28697e-07
1.28709e-07
1.28729e-07
1.28766e-07
1.28799e-07
1.2884e-07
1.28892e-07
1.28961e-07
1.29027e-07
1.29213e-07
1.29258e-07
1.3038e-07
1.3539e-07
2.09559e-08
1.24406e-07
1.25326e-07
1.26056e-07
1.26557e-07
1.2692e-07
1.27195e-07
1.27411e-07
1.27584e-07
1.27726e-07
1.27843e-07
1.27942e-07
1.28025e-07
1.28097e-07
1.28158e-07
1.28212e-07
1.28259e-07
1.28299e-07
1.28334e-07
1.28367e-07
1.28395e-07
1.2842e-07
1.28441e-07
1.28461e-07
1.28478e-07
1.28492e-07
1.28506e-07
1.2852e-07
1.2853e-07
1.28541e-07
1.2855e-07
1.28559e-07
1.28565e-07
1.28564e-07
1.28575e-07
1.28586e-07
1.28589e-07
1.28588e-07
1.28596e-07
1.28605e-07
1.28604e-07
1.28603e-07
1.28612e-07
1.28618e-07
1.28601e-07
1.28599e-07
1.28616e-07
1.28622e-07
1.28616e-07
1.28616e-07
1.28606e-07
1.28606e-07
1.28605e-07
1.28589e-07
1.28585e-07
1.28585e-07
1.28579e-07
1.28564e-07
1.28575e-07
1.28583e-07
1.28583e-07
1.28577e-07
1.28575e-07
1.28592e-07
1.28576e-07
1.28555e-07
1.28573e-07
1.28599e-07
1.286e-07
1.28612e-07
1.28588e-07
1.28575e-07
1.28589e-07
1.28576e-07
1.28584e-07
1.28611e-07
1.28619e-07
1.28609e-07
1.28605e-07
1.28605e-07
1.28643e-07
1.28652e-07
1.28667e-07
1.28698e-07
1.2871e-07
1.28729e-07
1.28767e-07
1.28799e-07
1.28841e-07
1.28893e-07
1.28962e-07
1.29028e-07
1.29214e-07
1.29259e-07
1.30383e-07
1.35397e-07
2.15781e-08
1.24405e-07
1.25324e-07
1.26053e-07
1.26554e-07
1.26917e-07
1.27192e-07
1.27408e-07
1.27581e-07
1.27723e-07
1.2784e-07
1.27939e-07
1.28023e-07
1.28095e-07
1.28156e-07
1.2821e-07
1.28256e-07
1.28296e-07
1.28331e-07
1.28365e-07
1.28392e-07
1.28417e-07
1.28439e-07
1.28459e-07
1.28475e-07
1.2849e-07
1.28504e-07
1.28518e-07
1.28528e-07
1.28539e-07
1.28548e-07
1.28557e-07
1.28562e-07
1.28562e-07
1.28573e-07
1.28584e-07
1.28587e-07
1.28586e-07
1.28594e-07
1.28603e-07
1.28602e-07
1.28601e-07
1.2861e-07
1.28616e-07
1.28599e-07
1.28597e-07
1.28614e-07
1.2862e-07
1.28614e-07
1.28614e-07
1.28604e-07
1.28604e-07
1.28603e-07
1.28587e-07
1.28583e-07
1.28583e-07
1.28577e-07
1.28562e-07
1.28573e-07
1.28581e-07
1.28581e-07
1.28575e-07
1.28573e-07
1.2859e-07
1.28574e-07
1.28553e-07
1.28571e-07
1.28598e-07
1.28598e-07
1.2861e-07
1.28586e-07
1.28574e-07
1.28588e-07
1.28574e-07
1.28582e-07
1.2861e-07
1.28618e-07
1.28607e-07
1.28603e-07
1.28603e-07
1.28641e-07
1.28651e-07
1.28666e-07
1.28697e-07
1.28708e-07
1.28728e-07
1.28765e-07
1.28798e-07
1.2884e-07
1.28892e-07
1.28961e-07
1.29026e-07
1.29213e-07
1.29257e-07
1.30386e-07
1.35407e-07
2.23516e-08
1.24403e-07
1.2532e-07
1.26049e-07
1.2655e-07
1.26913e-07
1.27188e-07
1.27403e-07
1.27577e-07
1.27719e-07
1.27836e-07
1.27935e-07
1.28019e-07
1.28091e-07
1.28152e-07
1.28206e-07
1.28253e-07
1.28293e-07
1.28328e-07
1.28361e-07
1.28389e-07
1.28414e-07
1.28436e-07
1.28456e-07
1.28472e-07
1.28487e-07
1.28501e-07
1.28515e-07
1.28525e-07
1.28536e-07
1.28545e-07
1.28554e-07
1.2856e-07
1.28559e-07
1.2857e-07
1.28581e-07
1.28584e-07
1.28584e-07
1.28591e-07
1.28601e-07
1.286e-07
1.28598e-07
1.28608e-07
1.28613e-07
1.28596e-07
1.28595e-07
1.28612e-07
1.28617e-07
1.28612e-07
1.28612e-07
1.28601e-07
1.28601e-07
1.286e-07
1.28585e-07
1.28581e-07
1.28581e-07
1.28575e-07
1.2856e-07
1.28571e-07
1.28579e-07
1.28579e-07
1.28573e-07
1.28571e-07
1.28588e-07
1.28572e-07
1.28551e-07
1.28569e-07
1.28595e-07
1.28596e-07
1.28608e-07
1.28584e-07
1.28572e-07
1.28585e-07
1.28572e-07
1.2858e-07
1.28608e-07
1.28616e-07
1.28605e-07
1.28601e-07
1.28601e-07
1.28639e-07
1.28649e-07
1.28664e-07
1.28695e-07
1.28707e-07
1.28726e-07
1.28764e-07
1.28796e-07
1.28839e-07
1.2889e-07
1.28959e-07
1.29025e-07
1.29212e-07
1.29256e-07
1.30392e-07
1.35425e-07
2.32114e-08
1.24401e-07
1.25315e-07
1.26044e-07
1.26544e-07
1.26907e-07
1.27182e-07
1.27398e-07
1.27571e-07
1.27713e-07
1.27831e-07
1.2793e-07
1.28014e-07
1.28086e-07
1.28147e-07
1.28202e-07
1.28248e-07
1.28289e-07
1.28324e-07
1.28357e-07
1.28385e-07
1.2841e-07
1.28432e-07
1.28452e-07
1.28468e-07
1.28483e-07
1.28497e-07
1.28511e-07
1.28521e-07
1.28532e-07
1.28541e-07
1.28551e-07
1.28556e-07
1.28555e-07
1.28567e-07
1.28577e-07
1.28581e-07
1.2858e-07
1.28588e-07
1.28597e-07
1.28596e-07
1.28595e-07
1.28604e-07
1.2861e-07
1.28593e-07
1.28592e-07
1.28609e-07
1.28614e-07
1.28609e-07
1.28609e-07
1.28598e-07
1.28598e-07
1.28597e-07
1.28582e-07
1.28578e-07
1.28578e-07
1.28572e-07
1.28557e-07
1.28568e-07
1.28576e-07
1.28576e-07
1.2857e-07
1.28568e-07
1.28585e-07
1.28569e-07
1.28548e-07
1.28566e-07
1.28593e-07
1.28593e-07
1.28605e-07
1.28582e-07
1.28569e-07
1.28583e-07
1.2857e-07
1.28578e-07
1.28605e-07
1.28613e-07
1.28603e-07
1.28599e-07
1.28599e-07
1.28637e-07
1.28647e-07
1.28662e-07
1.28693e-07
1.28705e-07
1.28724e-07
1.28762e-07
1.28795e-07
1.28837e-07
1.28889e-07
1.28958e-07
1.29024e-07
1.29211e-07
1.29254e-07
1.304e-07
1.35448e-07
2.41451e-08
1.24399e-07
1.25309e-07
1.26036e-07
1.26537e-07
1.26899e-07
1.27175e-07
1.27391e-07
1.27564e-07
1.27707e-07
1.27825e-07
1.27924e-07
1.28008e-07
1.2808e-07
1.28142e-07
1.28196e-07
1.28243e-07
1.28283e-07
1.28318e-07
1.28352e-07
1.2838e-07
1.28405e-07
1.28427e-07
1.28447e-07
1.28464e-07
1.28479e-07
1.28493e-07
1.28506e-07
1.28517e-07
1.28528e-07
1.28537e-07
1.28547e-07
1.28552e-07
1.28551e-07
1.28562e-07
1.28573e-07
1.28577e-07
1.28576e-07
1.28584e-07
1.28593e-07
1.28593e-07
1.28591e-07
1.286e-07
1.28606e-07
1.28589e-07
1.28588e-07
1.28605e-07
1.2861e-07
1.28605e-07
1.28605e-07
1.28595e-07
1.28595e-07
1.28594e-07
1.28578e-07
1.28575e-07
1.28574e-07
1.28568e-07
1.28553e-07
1.28565e-07
1.28572e-07
1.28573e-07
1.28566e-07
1.28564e-07
1.28582e-07
1.28566e-07
1.28545e-07
1.28563e-07
1.2859e-07
1.2859e-07
1.28602e-07
1.28579e-07
1.28566e-07
1.2858e-07
1.28567e-07
1.28575e-07
1.28603e-07
1.28611e-07
1.28601e-07
1.28597e-07
1.28597e-07
1.28634e-07
1.28644e-07
1.2866e-07
1.28691e-07
1.28703e-07
1.28722e-07
1.2876e-07
1.28793e-07
1.28835e-07
1.28887e-07
1.28956e-07
1.29022e-07
1.2921e-07
1.29252e-07
1.3041e-07
1.35477e-07
2.51503e-08
1.24395e-07
1.25302e-07
1.26028e-07
1.26528e-07
1.26891e-07
1.27166e-07
1.27382e-07
1.27556e-07
1.27699e-07
1.27817e-07
1.27917e-07
1.28001e-07
1.28073e-07
1.28135e-07
1.28189e-07
1.28236e-07
1.28277e-07
1.28312e-07
1.28346e-07
1.28374e-07
1.28399e-07
1.28421e-07
1.28441e-07
1.28458e-07
1.28473e-07
1.28488e-07
1.28501e-07
1.28512e-07
1.28523e-07
1.28532e-07
1.28542e-07
1.28547e-07
1.28546e-07
1.28558e-07
1.28569e-07
1.28572e-07
1.28572e-07
1.28579e-07
1.28589e-07
1.28588e-07
1.28586e-07
1.28596e-07
1.28602e-07
1.28585e-07
1.28584e-07
1.28601e-07
1.28606e-07
1.28601e-07
1.28601e-07
1.28591e-07
1.28591e-07
1.2859e-07
1.28574e-07
1.28571e-07
1.2857e-07
1.28565e-07
1.2855e-07
1.28561e-07
1.28569e-07
1.28569e-07
1.28563e-07
1.28561e-07
1.28578e-07
1.28563e-07
1.28542e-07
1.28559e-07
1.28586e-07
1.28587e-07
1.28599e-07
1.28576e-07
1.28563e-07
1.28577e-07
1.28564e-07
1.28572e-07
1.286e-07
1.28608e-07
1.28598e-07
1.28594e-07
1.28594e-07
1.28632e-07
1.28642e-07
1.28657e-07
1.28688e-07
1.287e-07
1.2872e-07
1.28758e-07
1.28791e-07
1.28833e-07
1.28885e-07
1.28955e-07
1.29021e-07
1.29209e-07
1.2925e-07
1.30423e-07
1.35511e-07
2.62273e-08
1.24392e-07
1.25293e-07
1.26018e-07
1.26517e-07
1.2688e-07
1.27156e-07
1.27372e-07
1.27546e-07
1.27689e-07
1.27808e-07
1.27908e-07
1.27992e-07
1.28065e-07
1.28127e-07
1.28182e-07
1.28229e-07
1.2827e-07
1.28305e-07
1.28339e-07
1.28367e-07
1.28393e-07
1.28415e-07
1.28435e-07
1.28452e-07
1.28467e-07
1.28482e-07
1.28495e-07
1.28506e-07
1.28517e-07
1.28526e-07
1.28536e-07
1.28542e-07
1.28541e-07
1.28552e-07
1.28563e-07
1.28567e-07
1.28566e-07
1.28574e-07
1.28584e-07
1.28583e-07
1.28581e-07
1.28591e-07
1.28597e-07
1.2858e-07
1.28579e-07
1.28596e-07
1.28601e-07
1.28596e-07
1.28596e-07
1.28586e-07
1.28586e-07
1.28585e-07
1.2857e-07
1.28566e-07
1.28566e-07
1.2856e-07
1.28545e-07
1.28557e-07
1.28565e-07
1.28565e-07
1.28558e-07
1.28556e-07
1.28574e-07
1.28559e-07
1.28538e-07
1.28555e-07
1.28582e-07
1.28583e-07
1.28595e-07
1.28573e-07
1.2856e-07
1.28573e-07
1.28561e-07
1.28568e-07
1.28596e-07
1.28605e-07
1.28595e-07
1.28591e-07
1.28591e-07
1.28629e-07
1.28639e-07
1.28654e-07
1.28685e-07
1.28698e-07
1.28718e-07
1.28756e-07
1.28789e-07
1.28831e-07
1.28883e-07
1.28953e-07
1.29019e-07
1.29208e-07
1.29247e-07
1.30439e-07
1.35548e-07
2.73774e-08
1.24387e-07
1.25283e-07
1.26006e-07
1.26505e-07
1.26868e-07
1.27144e-07
1.27361e-07
1.27535e-07
1.27679e-07
1.27797e-07
1.27898e-07
1.27982e-07
1.28056e-07
1.28118e-07
1.28173e-07
1.2822e-07
1.28261e-07
1.28297e-07
1.28331e-07
1.2836e-07
1.28385e-07
1.28407e-07
1.28428e-07
1.28445e-07
1.2846e-07
1.28475e-07
1.28489e-07
1.28499e-07
1.2851e-07
1.2852e-07
1.2853e-07
1.28535e-07
1.28535e-07
1.28546e-07
1.28557e-07
1.28561e-07
1.28561e-07
1.28568e-07
1.28578e-07
1.28577e-07
1.28575e-07
1.28585e-07
1.28591e-07
1.28575e-07
1.28573e-07
1.2859e-07
1.28596e-07
1.28591e-07
1.28591e-07
1.28581e-07
1.28581e-07
1.2858e-07
1.28565e-07
1.28561e-07
1.28561e-07
1.28556e-07
1.28541e-07
1.28552e-07
1.2856e-07
1.2856e-07
1.28554e-07
1.28551e-07
1.28569e-07
1.28555e-07
1.28533e-07
1.28551e-07
1.28578e-07
1.28579e-07
1.28591e-07
1.28569e-07
1.28556e-07
1.28569e-07
1.28557e-07
1.28565e-07
1.28592e-07
1.28601e-07
1.28592e-07
1.28588e-07
1.28588e-07
1.28625e-07
1.28636e-07
1.28651e-07
1.28682e-07
1.28695e-07
1.28715e-07
1.28753e-07
1.28786e-07
1.28829e-07
1.28881e-07
1.28952e-07
1.29017e-07
1.29207e-07
1.29245e-07
1.30458e-07
1.35585e-07
2.86011e-08
1.24382e-07
1.25272e-07
1.25992e-07
1.26491e-07
1.26854e-07
1.27131e-07
1.27348e-07
1.27523e-07
1.27667e-07
1.27786e-07
1.27887e-07
1.27972e-07
1.28045e-07
1.28108e-07
1.28163e-07
1.2821e-07
1.28252e-07
1.28288e-07
1.28322e-07
1.28351e-07
1.28377e-07
1.28399e-07
1.2842e-07
1.28437e-07
1.28453e-07
1.28467e-07
1.28481e-07
1.28492e-07
1.28503e-07
1.28513e-07
1.28523e-07
1.28529e-07
1.28528e-07
1.28539e-07
1.28551e-07
1.28554e-07
1.28554e-07
1.28562e-07
1.28571e-07
1.28571e-07
1.28569e-07
1.28579e-07
1.28585e-07
1.28569e-07
1.28567e-07
1.28584e-07
1.2859e-07
1.28585e-07
1.28585e-07
1.28575e-07
1.28575e-07
1.28575e-07
1.28559e-07
1.28556e-07
1.28555e-07
1.2855e-07
1.28536e-07
1.28547e-07
1.28555e-07
1.28555e-07
1.28548e-07
1.28546e-07
1.28565e-07
1.2855e-07
1.28528e-07
1.28546e-07
1.28573e-07
1.28574e-07
1.28587e-07
1.28565e-07
1.28552e-07
1.28565e-07
1.28553e-07
1.28561e-07
1.28588e-07
1.28597e-07
1.28588e-07
1.28585e-07
1.28584e-07
1.28622e-07
1.28632e-07
1.28648e-07
1.28679e-07
1.28692e-07
1.28712e-07
1.28751e-07
1.28784e-07
1.28827e-07
1.28879e-07
1.2895e-07
1.29015e-07
1.29206e-07
1.29242e-07
1.3048e-07
1.35625e-07
2.98985e-08
1.24377e-07
1.25259e-07
1.25977e-07
1.26476e-07
1.26839e-07
1.27116e-07
1.27333e-07
1.27509e-07
1.27653e-07
1.27773e-07
1.27874e-07
1.27959e-07
1.28033e-07
1.28096e-07
1.28152e-07
1.282e-07
1.28242e-07
1.28278e-07
1.28312e-07
1.28341e-07
1.28367e-07
1.2839e-07
1.28411e-07
1.28428e-07
1.28444e-07
1.28459e-07
1.28473e-07
1.28484e-07
1.28495e-07
1.28505e-07
1.28515e-07
1.28521e-07
1.28521e-07
1.28532e-07
1.28543e-07
1.28547e-07
1.28547e-07
1.28555e-07
1.28564e-07
1.28564e-07
1.28562e-07
1.28572e-07
1.28579e-07
1.28562e-07
1.28561e-07
1.28578e-07
1.28583e-07
1.28579e-07
1.28579e-07
1.28569e-07
1.28569e-07
1.28569e-07
1.28553e-07
1.2855e-07
1.28549e-07
1.28544e-07
1.2853e-07
1.28541e-07
1.28549e-07
1.28549e-07
1.28543e-07
1.2854e-07
1.28559e-07
1.28545e-07
1.28523e-07
1.2854e-07
1.28568e-07
1.28569e-07
1.28582e-07
1.28561e-07
1.28547e-07
1.2856e-07
1.28548e-07
1.28556e-07
1.28584e-07
1.28593e-07
1.28584e-07
1.28581e-07
1.2858e-07
1.28618e-07
1.28629e-07
1.28644e-07
1.28676e-07
1.28689e-07
1.28709e-07
1.28748e-07
1.28781e-07
1.28825e-07
1.28877e-07
1.28948e-07
1.29014e-07
1.29206e-07
1.29239e-07
1.30505e-07
1.35665e-07
3.12673e-08
1.2437e-07
1.25245e-07
1.25961e-07
1.26459e-07
1.26822e-07
1.27099e-07
1.27317e-07
1.27493e-07
1.27638e-07
1.27758e-07
1.2786e-07
1.27946e-07
1.2802e-07
1.28084e-07
1.2814e-07
1.28188e-07
1.2823e-07
1.28267e-07
1.28302e-07
1.28331e-07
1.28357e-07
1.2838e-07
1.28401e-07
1.28419e-07
1.28435e-07
1.2845e-07
1.28464e-07
1.28475e-07
1.28486e-07
1.28496e-07
1.28507e-07
1.28513e-07
1.28512e-07
1.28523e-07
1.28535e-07
1.28539e-07
1.28539e-07
1.28547e-07
1.28556e-07
1.28556e-07
1.28554e-07
1.28564e-07
1.28571e-07
1.28555e-07
1.28553e-07
1.2857e-07
1.28576e-07
1.28572e-07
1.28572e-07
1.28562e-07
1.28562e-07
1.28562e-07
1.28546e-07
1.28543e-07
1.28543e-07
1.28538e-07
1.28524e-07
1.28535e-07
1.28543e-07
1.28543e-07
1.28536e-07
1.28534e-07
1.28553e-07
1.28539e-07
1.28517e-07
1.28535e-07
1.28562e-07
1.28563e-07
1.28577e-07
1.28556e-07
1.28542e-07
1.28555e-07
1.28543e-07
1.28551e-07
1.28579e-07
1.28589e-07
1.2858e-07
1.28577e-07
1.28576e-07
1.28613e-07
1.28625e-07
1.28641e-07
1.28672e-07
1.28686e-07
1.28706e-07
1.28745e-07
1.28778e-07
1.28822e-07
1.28874e-07
1.28946e-07
1.29011e-07
1.29205e-07
1.29236e-07
1.30533e-07
1.35708e-07
3.27035e-08
1.24364e-07
1.25229e-07
1.25943e-07
1.2644e-07
1.26804e-07
1.27081e-07
1.273e-07
1.27476e-07
1.27622e-07
1.27743e-07
1.27845e-07
1.27931e-07
1.28006e-07
1.2807e-07
1.28127e-07
1.28175e-07
1.28218e-07
1.28255e-07
1.2829e-07
1.28319e-07
1.28346e-07
1.28369e-07
1.2839e-07
1.28408e-07
1.28424e-07
1.2844e-07
1.28454e-07
1.28465e-07
1.28477e-07
1.28487e-07
1.28497e-07
1.28504e-07
1.28503e-07
1.28514e-07
1.28526e-07
1.28531e-07
1.2853e-07
1.28538e-07
1.28548e-07
1.28548e-07
1.28546e-07
1.28556e-07
1.28563e-07
1.28547e-07
1.28545e-07
1.28563e-07
1.28568e-07
1.28564e-07
1.28564e-07
1.28555e-07
1.28555e-07
1.28555e-07
1.28539e-07
1.28536e-07
1.28536e-07
1.28531e-07
1.28517e-07
1.28528e-07
1.28537e-07
1.28537e-07
1.28529e-07
1.28527e-07
1.28547e-07
1.28533e-07
1.28511e-07
1.28528e-07
1.28556e-07
1.28558e-07
1.28571e-07
1.28551e-07
1.28537e-07
1.28549e-07
1.28538e-07
1.28546e-07
1.28574e-07
1.28584e-07
1.28575e-07
1.28573e-07
1.28572e-07
1.28609e-07
1.2862e-07
1.28636e-07
1.28668e-07
1.28682e-07
1.28703e-07
1.28741e-07
1.28775e-07
1.2882e-07
1.28871e-07
1.28944e-07
1.29009e-07
1.29204e-07
1.29232e-07
1.30565e-07
1.35751e-07
3.42107e-08
1.24357e-07
1.25212e-07
1.25923e-07
1.2642e-07
1.26783e-07
1.27061e-07
1.27281e-07
1.27458e-07
1.27604e-07
1.27725e-07
1.27828e-07
1.27915e-07
1.27991e-07
1.28055e-07
1.28112e-07
1.28161e-07
1.28204e-07
1.28241e-07
1.28277e-07
1.28307e-07
1.28334e-07
1.28357e-07
1.28379e-07
1.28397e-07
1.28413e-07
1.28429e-07
1.28443e-07
1.28455e-07
1.28467e-07
1.28477e-07
1.28487e-07
1.28494e-07
1.28494e-07
1.28505e-07
1.28517e-07
1.28521e-07
1.28521e-07
1.28529e-07
1.28539e-07
1.28539e-07
1.28537e-07
1.28547e-07
1.28555e-07
1.28539e-07
1.28537e-07
1.28554e-07
1.2856e-07
1.28556e-07
1.28556e-07
1.28547e-07
1.28546e-07
1.28547e-07
1.28531e-07
1.28529e-07
1.28528e-07
1.28524e-07
1.2851e-07
1.28521e-07
1.28529e-07
1.28529e-07
1.28522e-07
1.2852e-07
1.2854e-07
1.28527e-07
1.28504e-07
1.28522e-07
1.28549e-07
1.28551e-07
1.28565e-07
1.28546e-07
1.28531e-07
1.28543e-07
1.28533e-07
1.2854e-07
1.28568e-07
1.28578e-07
1.28571e-07
1.28568e-07
1.28567e-07
1.28604e-07
1.28616e-07
1.28632e-07
1.28663e-07
1.28679e-07
1.28699e-07
1.28738e-07
1.28772e-07
1.28817e-07
1.28868e-07
1.28942e-07
1.29007e-07
1.29203e-07
1.29228e-07
1.30599e-07
1.35796e-07
3.57924e-08
1.24349e-07
1.25194e-07
1.25901e-07
1.26398e-07
1.26761e-07
1.2704e-07
1.2726e-07
1.27438e-07
1.27584e-07
1.27706e-07
1.2781e-07
1.27898e-07
1.27974e-07
1.28039e-07
1.28096e-07
1.28146e-07
1.28189e-07
1.28227e-07
1.28263e-07
1.28293e-07
1.2832e-07
1.28344e-07
1.28366e-07
1.28384e-07
1.28401e-07
1.28417e-07
1.28431e-07
1.28443e-07
1.28455e-07
1.28466e-07
1.28477e-07
1.28483e-07
1.28483e-07
1.28494e-07
1.28506e-07
1.28511e-07
1.28511e-07
1.28519e-07
1.28529e-07
1.28529e-07
1.28527e-07
1.28538e-07
1.28545e-07
1.2853e-07
1.28528e-07
1.28545e-07
1.2855e-07
1.28547e-07
1.28547e-07
1.28538e-07
1.28538e-07
1.28538e-07
1.28523e-07
1.2852e-07
1.2852e-07
1.28516e-07
1.28502e-07
1.28513e-07
1.28522e-07
1.28522e-07
1.28514e-07
1.28512e-07
1.28532e-07
1.2852e-07
1.28497e-07
1.28514e-07
1.28542e-07
1.28544e-07
1.28559e-07
1.2854e-07
1.28525e-07
1.28537e-07
1.28527e-07
1.28534e-07
1.28562e-07
1.28573e-07
1.28565e-07
1.28563e-07
1.28562e-07
1.28598e-07
1.28611e-07
1.28627e-07
1.28659e-07
1.28674e-07
1.28695e-07
1.28734e-07
1.28768e-07
1.28814e-07
1.28865e-07
1.2894e-07
1.29004e-07
1.29201e-07
1.29224e-07
1.30637e-07
1.35843e-07
3.74525e-08
1.24341e-07
1.25174e-07
1.25878e-07
1.26374e-07
1.26738e-07
1.27016e-07
1.27237e-07
1.27416e-07
1.27563e-07
1.27686e-07
1.27791e-07
1.27879e-07
1.27956e-07
1.28021e-07
1.28079e-07
1.28129e-07
1.28173e-07
1.28211e-07
1.28248e-07
1.28278e-07
1.28306e-07
1.2833e-07
1.28352e-07
1.28371e-07
1.28388e-07
1.28404e-07
1.28419e-07
1.28431e-07
1.28443e-07
1.28454e-07
1.28465e-07
1.28472e-07
1.28472e-07
1.28483e-07
1.28495e-07
1.285e-07
1.285e-07
1.28508e-07
1.28518e-07
1.28519e-07
1.28516e-07
1.28527e-07
1.28535e-07
1.2852e-07
1.28518e-07
1.28535e-07
1.28541e-07
1.28537e-07
1.28537e-07
1.28528e-07
1.28528e-07
1.28529e-07
1.28514e-07
1.28512e-07
1.28511e-07
1.28507e-07
1.28494e-07
1.28505e-07
1.28513e-07
1.28513e-07
1.28506e-07
1.28503e-07
1.28524e-07
1.28512e-07
1.28489e-07
1.28507e-07
1.28534e-07
1.28537e-07
1.28552e-07
1.28534e-07
1.28518e-07
1.2853e-07
1.2852e-07
1.28528e-07
1.28556e-07
1.28566e-07
1.2856e-07
1.28558e-07
1.28557e-07
1.28592e-07
1.28605e-07
1.28622e-07
1.28653e-07
1.2867e-07
1.2869e-07
1.2873e-07
1.28765e-07
1.2881e-07
1.28862e-07
1.28937e-07
1.29001e-07
1.292e-07
1.2922e-07
1.30678e-07
1.35891e-07
3.91953e-08
1.24332e-07
1.25153e-07
1.25853e-07
1.26348e-07
1.26712e-07
1.26991e-07
1.27213e-07
1.27392e-07
1.27541e-07
1.27664e-07
1.27769e-07
1.27858e-07
1.27936e-07
1.28002e-07
1.28061e-07
1.28111e-07
1.28156e-07
1.28195e-07
1.28231e-07
1.28262e-07
1.2829e-07
1.28315e-07
1.28337e-07
1.28356e-07
1.28374e-07
1.2839e-07
1.28405e-07
1.28418e-07
1.2843e-07
1.28441e-07
1.28452e-07
1.28459e-07
1.28459e-07
1.28471e-07
1.28483e-07
1.28488e-07
1.28488e-07
1.28496e-07
1.28507e-07
1.28507e-07
1.28505e-07
1.28516e-07
1.28524e-07
1.28509e-07
1.28507e-07
1.28524e-07
1.2853e-07
1.28527e-07
1.28527e-07
1.28518e-07
1.28518e-07
1.28519e-07
1.28504e-07
1.28502e-07
1.28502e-07
1.28498e-07
1.28485e-07
1.28496e-07
1.28505e-07
1.28505e-07
1.28496e-07
1.28494e-07
1.28515e-07
1.28504e-07
1.28481e-07
1.28498e-07
1.28526e-07
1.28529e-07
1.28544e-07
1.28527e-07
1.28511e-07
1.28523e-07
1.28513e-07
1.28521e-07
1.28549e-07
1.2856e-07
1.28554e-07
1.28552e-07
1.28551e-07
1.28586e-07
1.286e-07
1.28616e-07
1.28648e-07
1.28665e-07
1.28686e-07
1.28726e-07
1.28761e-07
1.28807e-07
1.28858e-07
1.28934e-07
1.28998e-07
1.29199e-07
1.29215e-07
1.30722e-07
1.3594e-07
4.10249e-08
1.24323e-07
1.25131e-07
1.25827e-07
1.2632e-07
1.26685e-07
1.26964e-07
1.27187e-07
1.27367e-07
1.27516e-07
1.27641e-07
1.27747e-07
1.27837e-07
1.27915e-07
1.27982e-07
1.28041e-07
1.28092e-07
1.28137e-07
1.28177e-07
1.28214e-07
1.28245e-07
1.28274e-07
1.28299e-07
1.28322e-07
1.28341e-07
1.28359e-07
1.28375e-07
1.28391e-07
1.28403e-07
1.28416e-07
1.28427e-07
1.28439e-07
1.28446e-07
1.28446e-07
1.28458e-07
1.28471e-07
1.28476e-07
1.28476e-07
1.28484e-07
1.28494e-07
1.28495e-07
1.28493e-07
1.28504e-07
1.28513e-07
1.28498e-07
1.28495e-07
1.28513e-07
1.28519e-07
1.28516e-07
1.28516e-07
1.28508e-07
1.28508e-07
1.28509e-07
1.28494e-07
1.28492e-07
1.28491e-07
1.28488e-07
1.28475e-07
1.28486e-07
1.28495e-07
1.28495e-07
1.28487e-07
1.28484e-07
1.28506e-07
1.28496e-07
1.28472e-07
1.28489e-07
1.28517e-07
1.2852e-07
1.28536e-07
1.2852e-07
1.28504e-07
1.28515e-07
1.28506e-07
1.28513e-07
1.28541e-07
1.28553e-07
1.28547e-07
1.28546e-07
1.28545e-07
1.2858e-07
1.28594e-07
1.2861e-07
1.28642e-07
1.2866e-07
1.28681e-07
1.28721e-07
1.28756e-07
1.28803e-07
1.28854e-07
1.28931e-07
1.28995e-07
1.29197e-07
1.29209e-07
1.30769e-07
1.3599e-07
4.29456e-08
1.24313e-07
1.25107e-07
1.25798e-07
1.26291e-07
1.26655e-07
1.26936e-07
1.27159e-07
1.2734e-07
1.2749e-07
1.27616e-07
1.27722e-07
1.27813e-07
1.27892e-07
1.2796e-07
1.2802e-07
1.28072e-07
1.28117e-07
1.28157e-07
1.28195e-07
1.28227e-07
1.28256e-07
1.28281e-07
1.28305e-07
1.28324e-07
1.28343e-07
1.28359e-07
1.28375e-07
1.28388e-07
1.28401e-07
1.28412e-07
1.28424e-07
1.28432e-07
1.28432e-07
1.28444e-07
1.28457e-07
1.28462e-07
1.28463e-07
1.2847e-07
1.28481e-07
1.28482e-07
1.2848e-07
1.28491e-07
1.285e-07
1.28486e-07
1.28483e-07
1.28501e-07
1.28507e-07
1.28504e-07
1.28505e-07
1.28496e-07
1.28496e-07
1.28498e-07
1.28483e-07
1.28481e-07
1.28481e-07
1.28477e-07
1.28465e-07
1.28476e-07
1.28485e-07
1.28485e-07
1.28476e-07
1.28474e-07
1.28496e-07
1.28487e-07
1.28463e-07
1.2848e-07
1.28508e-07
1.28511e-07
1.28527e-07
1.28512e-07
1.28496e-07
1.28506e-07
1.28498e-07
1.28505e-07
1.28533e-07
1.28545e-07
1.2854e-07
1.2854e-07
1.28538e-07
1.28573e-07
1.28587e-07
1.28604e-07
1.28636e-07
1.28655e-07
1.28675e-07
1.28716e-07
1.28751e-07
1.28799e-07
1.2885e-07
1.28928e-07
1.28991e-07
1.29195e-07
1.29204e-07
1.30818e-07
1.36042e-07
4.49617e-08
1.24303e-07
1.25082e-07
1.25768e-07
1.2626e-07
1.26624e-07
1.26905e-07
1.27129e-07
1.27311e-07
1.27462e-07
1.27589e-07
1.27697e-07
1.27788e-07
1.27868e-07
1.27936e-07
1.27997e-07
1.2805e-07
1.28096e-07
1.28137e-07
1.28175e-07
1.28207e-07
1.28237e-07
1.28263e-07
1.28287e-07
1.28307e-07
1.28325e-07
1.28342e-07
1.28359e-07
1.28372e-07
1.28385e-07
1.28397e-07
1.28409e-07
1.28417e-07
1.28418e-07
1.28429e-07
1.28442e-07
1.28448e-07
1.28449e-07
1.28456e-07
1.28467e-07
1.28469e-07
1.28466e-07
1.28477e-07
1.28487e-07
1.28473e-07
1.2847e-07
1.28488e-07
1.28494e-07
1.28491e-07
1.28492e-07
1.28484e-07
1.28484e-07
1.28486e-07
1.28471e-07
1.28469e-07
1.28469e-07
1.28466e-07
1.28454e-07
1.28465e-07
1.28474e-07
1.28474e-07
1.28465e-07
1.28463e-07
1.28485e-07
1.28477e-07
1.28453e-07
1.2847e-07
1.28497e-07
1.28501e-07
1.28518e-07
1.28504e-07
1.28487e-07
1.28497e-07
1.28489e-07
1.28497e-07
1.28525e-07
1.28537e-07
1.28533e-07
1.28533e-07
1.28531e-07
1.28565e-07
1.2858e-07
1.28597e-07
1.28629e-07
1.28649e-07
1.2867e-07
1.2871e-07
1.28746e-07
1.28794e-07
1.28845e-07
1.28924e-07
1.28987e-07
1.29192e-07
1.29197e-07
1.3087e-07
1.36095e-07
4.70775e-08
1.24292e-07
1.25056e-07
1.25736e-07
1.26226e-07
1.26591e-07
1.26872e-07
1.27097e-07
1.2728e-07
1.27433e-07
1.2756e-07
1.27669e-07
1.27761e-07
1.27842e-07
1.27911e-07
1.27973e-07
1.28026e-07
1.28074e-07
1.28115e-07
1.28153e-07
1.28187e-07
1.28217e-07
1.28243e-07
1.28267e-07
1.28288e-07
1.28307e-07
1.28324e-07
1.28341e-07
1.28354e-07
1.28368e-07
1.2838e-07
1.28392e-07
1.28401e-07
1.28402e-07
1.28413e-07
1.28427e-07
1.28433e-07
1.28433e-07
1.28441e-07
1.28452e-07
1.28454e-07
1.28452e-07
1.28463e-07
1.28473e-07
1.2846e-07
1.28456e-07
1.28474e-07
1.2848e-07
1.28478e-07
1.28479e-07
1.28471e-07
1.28471e-07
1.28473e-07
1.28459e-07
1.28457e-07
1.28457e-07
1.28454e-07
1.28443e-07
1.28453e-07
1.28463e-07
1.28463e-07
1.28453e-07
1.28451e-07
1.28473e-07
1.28467e-07
1.28442e-07
1.28459e-07
1.28487e-07
1.28491e-07
1.28508e-07
1.28495e-07
1.28478e-07
1.28487e-07
1.2848e-07
1.28488e-07
1.28516e-07
1.28529e-07
1.28525e-07
1.28525e-07
1.28523e-07
1.28557e-07
1.28573e-07
1.2859e-07
1.28622e-07
1.28642e-07
1.28663e-07
1.28704e-07
1.2874e-07
1.28789e-07
1.2884e-07
1.2892e-07
1.28983e-07
1.29189e-07
1.29191e-07
1.30924e-07
1.36148e-07
4.92968e-08
1.24281e-07
1.25028e-07
1.25703e-07
1.26191e-07
1.26556e-07
1.26838e-07
1.27063e-07
1.27248e-07
1.27401e-07
1.2753e-07
1.2764e-07
1.27733e-07
1.27815e-07
1.27885e-07
1.27948e-07
1.28002e-07
1.28049e-07
1.28091e-07
1.28131e-07
1.28165e-07
1.28195e-07
1.28222e-07
1.28247e-07
1.28268e-07
1.28287e-07
1.28305e-07
1.28322e-07
1.28336e-07
1.2835e-07
1.28362e-07
1.28375e-07
1.28383e-07
1.28385e-07
1.28396e-07
1.2841e-07
1.28417e-07
1.28417e-07
1.28425e-07
1.28437e-07
1.28439e-07
1.28436e-07
1.28447e-07
1.28458e-07
1.28445e-07
1.28441e-07
1.28459e-07
1.28465e-07
1.28463e-07
1.28465e-07
1.28457e-07
1.28457e-07
1.28459e-07
1.28445e-07
1.28444e-07
1.28444e-07
1.28441e-07
1.2843e-07
1.28441e-07
1.2845e-07
1.2845e-07
1.28441e-07
1.28438e-07
1.28461e-07
1.28456e-07
1.28431e-07
1.28447e-07
1.28475e-07
1.2848e-07
1.28497e-07
1.28486e-07
1.28468e-07
1.28477e-07
1.2847e-07
1.28478e-07
1.28506e-07
1.28519e-07
1.28516e-07
1.28517e-07
1.28515e-07
1.28548e-07
1.28565e-07
1.28582e-07
1.28614e-07
1.28635e-07
1.28657e-07
1.28698e-07
1.28734e-07
1.28784e-07
1.28835e-07
1.28915e-07
1.28978e-07
1.29186e-07
1.29183e-07
1.30981e-07
1.36202e-07
5.16233e-08
1.2427e-07
1.24999e-07
1.25667e-07
1.26154e-07
1.26518e-07
1.26801e-07
1.27028e-07
1.27213e-07
1.27368e-07
1.27497e-07
1.27608e-07
1.27703e-07
1.27786e-07
1.27857e-07
1.2792e-07
1.27975e-07
1.28024e-07
1.28066e-07
1.28107e-07
1.28141e-07
1.28172e-07
1.28199e-07
1.28225e-07
1.28246e-07
1.28266e-07
1.28284e-07
1.28302e-07
1.28316e-07
1.28331e-07
1.28343e-07
1.28356e-07
1.28365e-07
1.28367e-07
1.28378e-07
1.28393e-07
1.28399e-07
1.284e-07
1.28408e-07
1.2842e-07
1.28422e-07
1.2842e-07
1.28431e-07
1.28442e-07
1.2843e-07
1.28426e-07
1.28443e-07
1.2845e-07
1.28448e-07
1.2845e-07
1.28443e-07
1.28443e-07
1.28445e-07
1.28431e-07
1.2843e-07
1.2843e-07
1.28427e-07
1.28417e-07
1.28427e-07
1.28437e-07
1.28437e-07
1.28427e-07
1.28425e-07
1.28448e-07
1.28444e-07
1.28419e-07
1.28435e-07
1.28463e-07
1.28468e-07
1.28486e-07
1.28476e-07
1.28458e-07
1.28466e-07
1.2846e-07
1.28467e-07
1.28496e-07
1.2851e-07
1.28507e-07
1.28509e-07
1.28507e-07
1.28539e-07
1.28556e-07
1.28574e-07
1.28606e-07
1.28628e-07
1.28649e-07
1.28691e-07
1.28728e-07
1.28778e-07
1.28828e-07
1.2891e-07
1.28973e-07
1.29182e-07
1.29176e-07
1.31038e-07
1.36256e-07
5.40602e-08
1.24259e-07
1.24969e-07
1.2563e-07
1.26115e-07
1.26479e-07
1.26763e-07
1.2699e-07
1.27177e-07
1.27332e-07
1.27463e-07
1.27575e-07
1.27671e-07
1.27755e-07
1.27827e-07
1.27891e-07
1.27947e-07
1.27997e-07
1.2804e-07
1.28081e-07
1.28116e-07
1.28148e-07
1.28176e-07
1.28202e-07
1.28224e-07
1.28244e-07
1.28263e-07
1.28281e-07
1.28295e-07
1.2831e-07
1.28323e-07
1.28336e-07
1.28346e-07
1.28348e-07
1.2836e-07
1.28374e-07
1.28381e-07
1.28382e-07
1.2839e-07
1.28402e-07
1.28405e-07
1.28402e-07
1.28413e-07
1.28425e-07
1.28413e-07
1.28409e-07
1.28427e-07
1.28433e-07
1.28432e-07
1.28434e-07
1.28427e-07
1.28427e-07
1.2843e-07
1.28416e-07
1.28415e-07
1.28415e-07
1.28413e-07
1.28404e-07
1.28413e-07
1.28424e-07
1.28424e-07
1.28413e-07
1.28411e-07
1.28434e-07
1.28432e-07
1.28406e-07
1.28422e-07
1.2845e-07
1.28456e-07
1.28474e-07
1.28465e-07
1.28446e-07
1.28455e-07
1.28449e-07
1.28457e-07
1.28485e-07
1.28499e-07
1.28497e-07
1.28499e-07
1.28497e-07
1.2853e-07
1.28547e-07
1.28565e-07
1.28597e-07
1.2862e-07
1.28642e-07
1.28684e-07
1.2872e-07
1.28771e-07
1.28822e-07
1.28905e-07
1.28967e-07
1.29178e-07
1.29167e-07
1.31097e-07
1.3631e-07
5.66096e-08
1.24247e-07
1.24937e-07
1.25591e-07
1.26074e-07
1.26438e-07
1.26722e-07
1.26951e-07
1.27138e-07
1.27295e-07
1.27427e-07
1.27541e-07
1.27637e-07
1.27722e-07
1.27796e-07
1.27861e-07
1.27918e-07
1.27968e-07
1.28012e-07
1.28054e-07
1.2809e-07
1.28122e-07
1.28151e-07
1.28177e-07
1.282e-07
1.28221e-07
1.2824e-07
1.28258e-07
1.28273e-07
1.28288e-07
1.28302e-07
1.28315e-07
1.28325e-07
1.28328e-07
1.2834e-07
1.28355e-07
1.28362e-07
1.28363e-07
1.28371e-07
1.28384e-07
1.28386e-07
1.28384e-07
1.28395e-07
1.28408e-07
1.28396e-07
1.28392e-07
1.28409e-07
1.28416e-07
1.28415e-07
1.28417e-07
1.28411e-07
1.28411e-07
1.28414e-07
1.28401e-07
1.284e-07
1.28399e-07
1.28397e-07
1.28389e-07
1.28398e-07
1.28409e-07
1.28409e-07
1.28398e-07
1.28396e-07
1.2842e-07
1.28419e-07
1.28392e-07
1.28409e-07
1.28436e-07
1.28443e-07
1.28461e-07
1.28453e-07
1.28435e-07
1.28442e-07
1.28437e-07
1.28445e-07
1.28473e-07
1.28488e-07
1.28487e-07
1.2849e-07
1.28488e-07
1.28519e-07
1.28537e-07
1.28555e-07
1.28587e-07
1.28611e-07
1.28633e-07
1.28675e-07
1.28713e-07
1.28764e-07
1.28815e-07
1.28899e-07
1.2896e-07
1.29173e-07
1.29158e-07
1.31157e-07
1.36363e-07
5.92727e-08
1.24234e-07
1.24904e-07
1.25551e-07
1.26031e-07
1.26395e-07
1.26679e-07
1.26909e-07
1.27097e-07
1.27256e-07
1.27389e-07
1.27504e-07
1.27602e-07
1.27688e-07
1.27762e-07
1.27829e-07
1.27886e-07
1.27938e-07
1.27983e-07
1.28025e-07
1.28062e-07
1.28095e-07
1.28124e-07
1.28151e-07
1.28175e-07
1.28196e-07
1.28215e-07
1.28234e-07
1.2825e-07
1.28266e-07
1.28279e-07
1.28293e-07
1.28304e-07
1.28307e-07
1.28319e-07
1.28334e-07
1.28341e-07
1.28343e-07
1.28351e-07
1.28364e-07
1.28367e-07
1.28364e-07
1.28375e-07
1.28389e-07
1.28378e-07
1.28373e-07
1.28391e-07
1.28397e-07
1.28397e-07