/*--------------------------------*- C++ -*----------------------------------*\
| =========                 |                                                 |
| \\      /  F ield         | OpenFOAM: The Open Source CFD Toolbox           |
|  \\    /   O peration     | Version:  v2012                                 |
|   \\  /    A nd           | Website:  www.openfoam.com                      |
|    \\/     M anipulation  |                                                 |
\*---------------------------------------------------------------------------*/
FoamFile
{
    version     2.0;
    format      ascii;
    class       volScalarField;
    location    "9.5";
    object      yPlus;
}
// * * * * * * * * * * * * * * * * * * * * * * * * * * * * * * * * * * * * * //

dimensions      [0 0 0 0 0 0 0];


internalField   uniform 0;

boundaryField
{
    inlet
    {
        type            calculated;
        value           uniform 0;
    }
    outlet
    {
        type            calculated;
        value           uniform 0;
    }
    topWall
    {
        type            calculated;
        value           nonuniform List<scalar> 
545
(
0.0832232
0.143957
0.184364
0.21654
0.24376
0.267561
0.288803
0.308028
0.325603
0.341793
0.356797
0.370769
0.383832
0.396085
0.407611
0.418478
0.428746
0.438465
0.447679
0.456428
0.464745
0.472661
0.480203
0.487395
0.49426
0.500818
0.507088
0.513085
0.518826
0.524325
0.529594
0.534647
0.539495
0.544147
0.548614
0.552905
0.557028
0.560992
0.564804
0.568471
0.572
0.575397
0.578667
0.581818
0.584853
0.587777
0.590596
0.593315
0.595936
0.598464
0.600903
0.603257
0.605529
0.607722
0.60984
0.611885
0.61386
0.615768
0.617612
0.619393
0.621115
0.622779
0.624388
0.625944
0.627448
0.628903
0.63031
0.631671
0.632988
0.634261
0.635494
0.636687
0.637825
0.638925
0.640014
0.641093
0.642161
0.64322
0.644268
0.645307
0.646336
0.647355
0.648365
0.649365
0.650356
0.651337
0.65231
0.653273
0.654227
0.655173
0.656109
0.657037
0.657957
0.658868
0.659769
0.660666
0.661462
0.662172
0.662881
0.663589
0.664297
0.665003
0.665709
0.666414
0.667117
0.66782
0.668522
0.669223
0.669923
0.670623
0.671321
0.672018
0.672714
0.67341
0.674104
0.674797
0.67549
0.676181
0.676871
0.67756
0.678248
0.678935
0.679621
0.680306
0.68099
0.681672
0.682354
0.683034
0.683714
0.684392
0.685069
0.685744
0.686419
0.687092
0.687765
0.688436
0.689105
0.689774
0.690441
0.691107
0.691772
0.692436
0.693098
0.693759
0.694418
0.695077
0.695734
0.696389
0.697044
0.697697
0.698348
0.698998
0.699647
0.700295
0.700941
0.701585
0.702228
0.70287
0.70351
0.704149
0.704786
0.705422
0.706056
0.706689
0.70732
0.70795
0.708578
0.709204
0.709829
0.710453
0.711075
0.711695
0.712313
0.71293
0.713546
0.714159
0.714771
0.715381
0.71599
0.716597
0.717202
0.717805
0.718407
0.719007
0.719605
0.720201
0.720796
0.721388
0.721979
0.722568
0.723156
0.723741
0.724324
0.724906
0.725486
0.726063
0.726639
0.727213
0.727785
0.728355
0.728923
0.729489
0.730053
0.730615
0.731175
0.731733
0.732289
0.732843
0.733394
0.733944
0.734491
0.735037
0.73558
0.736121
0.73666
0.737197
0.737731
0.738264
0.738794
0.739322
0.739847
0.740371
0.740892
0.741411
0.741927
0.742441
0.742953
0.743463
0.74397
0.744475
0.744977
0.745477
0.745975
0.74647
0.746963
0.747453
0.747941
0.748426
0.748909
0.749389
0.749867
0.750342
0.750815
0.751285
0.751753
0.752218
0.75268
0.75314
0.753597
0.754051
0.754503
0.754952
0.755398
0.755842
0.756283
0.756721
0.757157
0.757589
0.758019
0.758446
0.758871
0.759292
0.759711
0.760127
0.76054
0.760949
0.761357
0.761761
0.762163
0.762534
0.762881
0.763229
0.763578
0.763928
0.76428
0.764632
0.764985
0.765338
0.765693
0.766048
0.766404
0.76676
0.767117
0.767475
0.767832
0.76819
0.768549
0.768907
0.769266
0.769624
0.769982
0.770341
0.770699
0.771056
0.771413
0.77177
0.772126
0.772481
0.772835
0.773189
0.773541
0.773893
0.774243
0.774591
0.774938
0.775284
0.775628
0.775969
0.776309
0.776647
0.776983
0.777316
0.777646
0.777974
0.778299
0.778622
0.778941
0.779256
0.779569
0.779877
0.780182
0.780483
0.78078
0.781073
0.781361
0.781645
0.781924
0.782198
0.782467
0.78273
0.782988
0.78324
0.783486
0.783726
0.783959
0.784186
0.784406
0.784619
0.784825
0.785023
0.785214
0.785396
0.785571
0.785737
0.785894
0.786043
0.786182
0.786312
0.786432
0.786542
0.786643
0.786732
0.786811
0.786879
0.786936
0.786981
0.787014
0.787036
0.787044
0.787041
0.787024
0.786994
0.786951
0.786893
0.786822
0.786736
0.786635
0.78652
0.786389
0.786242
0.78608
0.785901
0.785706
0.785494
0.785265
0.785018
0.784754
0.784471
0.78417
0.783851
0.783512
0.783155
0.782777
0.78238
0.781963
0.781525
0.781067
0.780587
0.780086
0.779563
0.779019
0.778452
0.777863
0.777252
0.776617
0.775959
0.775277
0.774572
0.773843
0.77309
0.772312
0.771509
0.770682
0.76983
0.768952
0.768049
0.76712
0.766166
0.765185
0.764178
0.763145
0.762086
0.761
0.759887
0.758748
0.757581
0.756388
0.755168
0.753921
0.752647
0.751346
0.750018
0.748663
0.74728
0.745871
0.744435
0.742973
0.741483
0.739968
0.738425
0.736857
0.735263
0.733642
0.731996
0.730325
0.728628
0.726906
0.72516
0.723389
0.721594
0.719775
0.717932
0.716067
0.714178
0.712268
0.710335
0.70838
0.706405
0.704409
0.702391
0.70014
0.697654
0.695175
0.692703
0.690238
0.687782
0.685335
0.682898
0.680473
0.67806
0.675659
0.673272
0.670899
0.668541
0.666199
0.663873
0.661564
0.659273
0.657
0.654745
0.65251
0.650294
0.648098
0.645922
0.643768
0.641634
0.639523
0.637434
0.635367
0.633323
0.631302
0.629304
0.62733
0.625381
0.623455
0.621555
0.619679
0.617829
0.616004
0.614205
0.612432
0.610686
0.608965
0.607272
0.605605
0.603966
0.602354
0.60077
0.599213
0.597685
0.596184
0.594713
0.593269
0.591855
0.590469
0.589112
0.587785
0.586487
0.585219
0.583981
0.582772
0.581594
0.580446
0.579329
0.578242
0.577186
0.576161
0.575167
0.574204
0.573273
0.572373
0.571505
0.570669
0.569865
0.569093
0.568353
0.567646
0.566971
0.566329
0.56572
0.565144
0.564602
0.564093
0.563617
0.563176
0.562768
0.562394
0.562055
0.561749
0.561476
0.561234
0.561026
0.560844
0.560714
0.560526
)
;
    }
    bottomWall
    {
        type            calculated;
        value           nonuniform List<scalar> 
449
(
0.139673
0.0890977
0.0759405
0.0695804
0.0654294
0.0623764
0.060042
0.0583536
0.0574779
0.0578112
0.060747
0.0643914
0.0669032
0.0682868
0.0689964
0.0693252
0.0694207
0.0693474
0.0691675
0.0689214
0.0686282
0.0683087
0.0679773
0.0676409
0.0673072
0.066977
0.0666559
0.0663419
0.0660393
0.0657448
0.065462
0.0651877
0.0649241
0.0646693
0.0644237
0.0641866
0.0639583
0.0637375
0.0635243
0.0633187
0.0631192
0.062927
0.0627407
0.0625599
0.0623856
0.0622155
0.0620518
0.0618912
0.0617372
0.0615851
0.0614401
0.0612963
0.061159
0.0610233
0.0608934
0.0607646
0.0606407
0.0605187
0.0604005
0.0602845
0.0601721
0.0600616
0.0599542
0.0598481
0.059746
0.0596444
0.059547
0.0594501
0.0593576
0.059265
0.0591758
0.059087
0.0590004
0.0589158
0.0588327
0.0587518
0.0586722
0.0585939
0.058517
0.0584421
0.0583676
0.0582961
0.0582249
0.0581559
0.0580863
0.05802
0.0579536
0.0578886
0.0578248
0.0577623
0.0577017
0.0576397
0.0575807
0.0575198
0.0574624
0.0574046
0.0573483
0.0572917
0.0572368
0.057182
0.0571278
0.0570763
0.0570258
0.0569767
0.056927
0.0568784
0.05683
0.0567836
0.0567358
0.0566897
0.056645
0.0566005
0.0565563
0.0565134
0.0564708
0.056429
0.0563876
0.0563484
0.0563087
0.0562706
0.0562328
0.0561947
0.0561567
0.0561201
0.056083
0.0560465
0.0560112
0.0559763
0.0559424
0.0559087
0.0558746
0.0558414
0.0558084
0.0557761
0.0557454
0.0557136
0.0556833
0.0556522
0.0556217
0.0555913
0.0555619
0.0555322
0.0555037
0.0554747
0.0554463
0.0554193
0.0553903
0.0553603
0.0553313
0.055304
0.0552765
0.055252
0.0552264
0.0552033
0.0551791
0.0551552
0.0551314
0.0551069
0.0550841
0.0550604
0.0550374
0.0550154
0.0549921
0.0549687
0.054948
0.0549262
0.0549047
0.0548847
0.054864
0.0548425
0.0548222
0.0548029
0.0547828
0.0547627
0.0547447
0.0547266
0.0547092
0.0546911
0.0546714
0.054652
0.0546314
0.0546119
0.0545939
0.0545753
0.0545584
0.0545423
0.0545252
0.0545098
0.0544953
0.0544789
0.0544639
0.0544495
0.0544332
0.0544185
0.0544042
0.0543883
0.054374
0.0543598
0.054344
0.0543301
0.054316
0.0543004
0.0542866
0.0542726
0.0542571
0.0542438
0.0542297
0.054215
0.054202
0.0541871
0.0541732
0.0541591
0.0541444
0.0541317
0.0541185
0.0541042
0.0540915
0.0540768
0.0540623
0.0540502
0.0540367
0.0540234
0.0540101
0.0539968
0.0539843
0.0539713
0.0539595
0.053947
0.0539346
0.0539229
0.0539109
0.0538971
0.0538838
0.0538707
0.053858
0.053846
0.0538342
0.0538206
0.0538081
0.053796
0.0537837
0.0537724
0.0537601
0.0537477
0.0537362
0.0537248
0.0537109
0.0536987
0.0536868
0.0536752
0.0536645
0.0536524
0.0536412
0.0536284
0.0536172
0.0536051
0.0535927
0.0535817
0.0535691
0.0535565
0.0535445
0.0535314
0.0535182
0.0535066
0.0534942
0.0534809
0.0534692
0.053457
0.0534445
0.0534312
0.0534186
0.0534062
0.053394
0.0533833
0.0533702
0.0533576
0.053346
0.0533322
0.0533194
0.0533081
0.0532948
0.0532823
0.0532713
0.053258
0.0532456
0.0532346
0.0532211
0.0532084
0.0531973
0.0531837
0.0531709
0.053159
0.0531459
0.0531336
0.0531212
0.0531084
0.0530963
0.0530848
0.0530711
0.0530584
0.0530469
0.0530334
0.0530209
0.0530099
0.0529968
0.0529849
0.0529737
0.0529612
0.0529497
0.0529374
0.0529253
0.0529144
0.052902
0.0528898
0.0528789
0.0528668
0.0528549
0.0528443
0.0528322
0.0528207
0.0528104
0.0527984
0.0527869
0.0527765
0.0527647
0.0527534
0.0527431
0.0527312
0.0527201
0.0527099
0.0526979
0.0526868
0.0526767
0.0526649
0.0526541
0.0526438
0.0526323
0.0526216
0.0526116
0.0526001
0.0525895
0.0525799
0.0525686
0.0525584
0.0525476
0.0525373
0.0525281
0.0525177
0.0525076
0.0524982
0.0524875
0.0524778
0.0524681
0.0524579
0.052447
0.0524362
0.0524266
0.0524157
0.0524057
0.0523949
0.0523853
0.0523749
0.0523652
0.0523557
0.052346
0.0523362
0.0523262
0.0523172
0.0523084
0.0522985
0.0522898
0.0522811
0.0522726
0.0522646
0.0522563
0.0522489
0.0522403
0.0522328
0.0522248
0.0522175
0.0522098
0.0522027
0.0521955
0.0521882
0.0521814
0.052174
0.052167
0.0521602
0.0521533
0.0521465
0.0521401
0.0521337
0.0521267
0.0521207
0.0521138
0.0521077
0.0521022
0.0520955
0.0520898
0.0520842
0.052078
0.0520725
0.0520675
0.0520629
0.0520578
0.052053
0.0520484
0.0520427
0.0520382
0.0520336
0.0520295
0.052025
0.0520211
0.0520169
0.0520114
0.0520073
0.0520033
0.0519991
0.0519953
0.0519898
0.0519859
0.0519823
0.0519784
0.0519749
0.0519702
0.0519665
0.0519635
0.051959
0.0519553
0.0519524
0.0519479
0.0519446
0.0519415
0.0519386
0.0519352
0.0519319
0.0519294
0.0519266
0.0519233
0.05192
0.0519168
0.0519138
0.0519112
0.0519084
0.0519036
0.0519013
0.0518975
0.0518984
0.0518883
)
;
    }
    symmetry
    {
        type            symmetryPlane;
    }
    frontAndBack
    {
        type            empty;
    }
}


// ************************************************************************* //
