/*--------------------------------*- C++ -*----------------------------------*\
| =========                 |                                                 |
| \\      /  F ield         | OpenFOAM: The Open Source CFD Toolbox           |
|  \\    /   O peration     | Version:  v2012                                 |
|   \\  /    A nd           | Website:  www.openfoam.com                      |
|    \\/     M anipulation  |                                                 |
\*---------------------------------------------------------------------------*/
FoamFile
{
    version     2.0;
    format      ascii;
    class       volVectorField;
    location    "28.5";
    object      wallShearStress;
}
// * * * * * * * * * * * * * * * * * * * * * * * * * * * * * * * * * * * * * //

dimensions      [0 2 -2 0 0 0 0];


internalField   uniform (0 0 0);

boundaryField
{
    inlet
    {
        type            calculated;
        value           uniform (0 0 0);
    }
    outlet
    {
        type            calculated;
        value           uniform (0 0 0);
    }
    topWall
    {
        type            calculated;
        value           nonuniform List<vector> 
545
(
(1.4836e-08 -1.04431e-08 0)
(1.48293e-08 -2.92166e-08 0)
(1.48152e-08 -4.8736e-08 0)
(1.47947e-08 -6.76828e-08 0)
(1.47684e-08 -8.58104e-08 0)
(1.47371e-08 -1.03349e-07 0)
(1.47012e-08 -1.20448e-07 0)
(1.46609e-08 -1.37096e-07 0)
(1.46166e-08 -1.53256e-07 0)
(1.45689e-08 -1.68927e-07 0)
(1.45179e-08 -1.8413e-07 0)
(1.44642e-08 -1.9888e-07 0)
(1.44079e-08 -2.13189e-07 0)
(1.43493e-08 -2.27065e-07 0)
(1.42888e-08 -2.40519e-07 0)
(1.42266e-08 -2.53561e-07 0)
(1.41629e-08 -2.66204e-07 0)
(1.4098e-08 -2.78458e-07 0)
(1.4032e-08 -2.90333e-07 0)
(1.39652e-08 -3.0184e-07 0)
(1.38976e-08 -3.1299e-07 0)
(1.38296e-08 -3.23794e-07 0)
(1.37612e-08 -3.3426e-07 0)
(1.36925e-08 -3.44401e-07 0)
(1.36238e-08 -3.54224e-07 0)
(1.35551e-08 -3.6374e-07 0)
(1.34865e-08 -3.72958e-07 0)
(1.34181e-08 -3.81888e-07 0)
(1.335e-08 -3.90538e-07 0)
(1.32823e-08 -3.98918e-07 0)
(1.32151e-08 -4.07035e-07 0)
(1.31485e-08 -4.14898e-07 0)
(1.30824e-08 -4.22516e-07 0)
(1.30169e-08 -4.29895e-07 0)
(1.29522e-08 -4.37044e-07 0)
(1.28882e-08 -4.4397e-07 0)
(1.2825e-08 -4.5068e-07 0)
(1.27627e-08 -4.57181e-07 0)
(1.27011e-08 -4.6348e-07 0)
(1.26405e-08 -4.69584e-07 0)
(1.25807e-08 -4.75498e-07 0)
(1.25219e-08 -4.81229e-07 0)
(1.2464e-08 -4.86784e-07 0)
(1.2407e-08 -4.92167e-07 0)
(1.2351e-08 -4.97384e-07 0)
(1.2296e-08 -5.02441e-07 0)
(1.22419e-08 -5.07343e-07 0)
(1.21888e-08 -5.12094e-07 0)
(1.21367e-08 -5.16701e-07 0)
(1.20855e-08 -5.21167e-07 0)
(1.20354e-08 -5.25497e-07 0)
(1.19862e-08 -5.29695e-07 0)
(1.19379e-08 -5.33766e-07 0)
(1.18907e-08 -5.37714e-07 0)
(1.18443e-08 -5.41543e-07 0)
(1.1799e-08 -5.45257e-07 0)
(1.17545e-08 -5.48858e-07 0)
(1.1711e-08 -5.52352e-07 0)
(1.16685e-08 -5.55741e-07 0)
(1.16268e-08 -5.59029e-07 0)
(1.1586e-08 -5.62219e-07 0)
(1.15461e-08 -5.65314e-07 0)
(1.15071e-08 -5.68317e-07 0)
(1.14689e-08 -5.71231e-07 0)
(1.14316e-08 -5.74059e-07 0)
(1.13952e-08 -5.76803e-07 0)
(1.13595e-08 -5.79467e-07 0)
(1.13247e-08 -5.82053e-07 0)
(1.12906e-08 -5.84562e-07 0)
(1.12573e-08 -5.86998e-07 0)
(1.12248e-08 -5.89364e-07 0)
(1.11932e-08 -5.91657e-07 0)
(1.11626e-08 -5.93861e-07 0)
(1.11324e-08 -5.95996e-07 0)
(1.11027e-08 -5.98106e-07 0)
(1.1073e-08 -6.00204e-07 0)
(1.10434e-08 -6.02289e-07 0)
(1.10139e-08 -6.0436e-07 0)
(1.09844e-08 -6.06415e-07 0)
(1.0955e-08 -6.08454e-07 0)
(1.09256e-08 -6.10479e-07 0)
(1.08963e-08 -6.12489e-07 0)
(1.0867e-08 -6.14485e-07 0)
(1.08378e-08 -6.16467e-07 0)
(1.08087e-08 -6.18434e-07 0)
(1.07797e-08 -6.20386e-07 0)
(1.07507e-08 -6.22325e-07 0)
(1.07217e-08 -6.24249e-07 0)
(1.06929e-08 -6.2616e-07 0)
(1.06641e-08 -6.28057e-07 0)
(1.06353e-08 -6.2994e-07 0)
(1.06067e-08 -6.31809e-07 0)
(1.0578e-08 -6.33665e-07 0)
(1.05496e-08 -6.35506e-07 0)
(1.05209e-08 -6.37339e-07 0)
(1.04934e-08 -6.39137e-07 0)
(1.04679e-08 -6.40783e-07 0)
(1.04435e-08 -6.42274e-07 0)
(1.04201e-08 -6.43723e-07 0)
(1.03968e-08 -6.45177e-07 0)
(1.03734e-08 -6.46643e-07 0)
(1.03499e-08 -6.48111e-07 0)
(1.03264e-08 -6.49577e-07 0)
(1.03028e-08 -6.51042e-07 0)
(1.02791e-08 -6.52507e-07 0)
(1.02552e-08 -6.53972e-07 0)
(1.02313e-08 -6.55437e-07 0)
(1.02073e-08 -6.56903e-07 0)
(1.01832e-08 -6.58368e-07 0)
(1.0159e-08 -6.59834e-07 0)
(1.01347e-08 -6.61299e-07 0)
(1.01104e-08 -6.62764e-07 0)
(1.00859e-08 -6.64229e-07 0)
(1.00613e-08 -6.65694e-07 0)
(1.00367e-08 -6.67159e-07 0)
(1.00119e-08 -6.68624e-07 0)
(9.98707e-09 -6.70089e-07 0)
(9.96213e-09 -6.71553e-07 0)
(9.93709e-09 -6.73017e-07 0)
(9.91196e-09 -6.74481e-07 0)
(9.88673e-09 -6.75945e-07 0)
(9.86141e-09 -6.77408e-07 0)
(9.836e-09 -6.78871e-07 0)
(9.81049e-09 -6.80334e-07 0)
(9.78489e-09 -6.81796e-07 0)
(9.75919e-09 -6.83258e-07 0)
(9.7334e-09 -6.8472e-07 0)
(9.70751e-09 -6.86181e-07 0)
(9.68152e-09 -6.87641e-07 0)
(9.65545e-09 -6.89102e-07 0)
(9.62927e-09 -6.90561e-07 0)
(9.60301e-09 -6.9202e-07 0)
(9.57665e-09 -6.93479e-07 0)
(9.55019e-09 -6.94937e-07 0)
(9.52364e-09 -6.96394e-07 0)
(9.49699e-09 -6.97851e-07 0)
(9.47025e-09 -6.99307e-07 0)
(9.44341e-09 -7.00762e-07 0)
(9.41648e-09 -7.02217e-07 0)
(9.38945e-09 -7.03671e-07 0)
(9.36233e-09 -7.05124e-07 0)
(9.33512e-09 -7.06576e-07 0)
(9.3078e-09 -7.08028e-07 0)
(9.2804e-09 -7.09479e-07 0)
(9.2529e-09 -7.10928e-07 0)
(9.2253e-09 -7.12377e-07 0)
(9.19761e-09 -7.13825e-07 0)
(9.16983e-09 -7.15272e-07 0)
(9.14195e-09 -7.16718e-07 0)
(9.11397e-09 -7.18163e-07 0)
(9.0859e-09 -7.19607e-07 0)
(9.05774e-09 -7.2105e-07 0)
(9.02948e-09 -7.22492e-07 0)
(9.00113e-09 -7.23933e-07 0)
(8.97269e-09 -7.25372e-07 0)
(8.94415e-09 -7.26811e-07 0)
(8.91551e-09 -7.28248e-07 0)
(8.88678e-09 -7.29684e-07 0)
(8.85796e-09 -7.31118e-07 0)
(8.82905e-09 -7.32552e-07 0)
(8.80004e-09 -7.33984e-07 0)
(8.77094e-09 -7.35414e-07 0)
(8.74174e-09 -7.36844e-07 0)
(8.71245e-09 -7.38271e-07 0)
(8.68307e-09 -7.39698e-07 0)
(8.65359e-09 -7.41123e-07 0)
(8.62402e-09 -7.42546e-07 0)
(8.59436e-09 -7.43968e-07 0)
(8.56461e-09 -7.45389e-07 0)
(8.53477e-09 -7.46807e-07 0)
(8.50483e-09 -7.48224e-07 0)
(8.4748e-09 -7.4964e-07 0)
(8.44468e-09 -7.51054e-07 0)
(8.41446e-09 -7.52466e-07 0)
(8.38416e-09 -7.53876e-07 0)
(8.35376e-09 -7.55285e-07 0)
(8.32327e-09 -7.56691e-07 0)
(8.2927e-09 -7.58096e-07 0)
(8.26203e-09 -7.59499e-07 0)
(8.23127e-09 -7.609e-07 0)
(8.20042e-09 -7.62299e-07 0)
(8.16948e-09 -7.63697e-07 0)
(8.13845e-09 -7.65092e-07 0)
(8.10733e-09 -7.66485e-07 0)
(8.07612e-09 -7.67876e-07 0)
(8.04483e-09 -7.69265e-07 0)
(8.01344e-09 -7.70652e-07 0)
(7.98197e-09 -7.72036e-07 0)
(7.95041e-09 -7.73419e-07 0)
(7.91876e-09 -7.74799e-07 0)
(7.88702e-09 -7.76177e-07 0)
(7.85519e-09 -7.77552e-07 0)
(7.82328e-09 -7.78926e-07 0)
(7.79128e-09 -7.80296e-07 0)
(7.7592e-09 -7.81665e-07 0)
(7.72703e-09 -7.83031e-07 0)
(7.69477e-09 -7.84394e-07 0)
(7.66243e-09 -7.85756e-07 0)
(7.63e-09 -7.87114e-07 0)
(7.59749e-09 -7.8847e-07 0)
(7.5649e-09 -7.89823e-07 0)
(7.53222e-09 -7.91174e-07 0)
(7.49945e-09 -7.92522e-07 0)
(7.46661e-09 -7.93867e-07 0)
(7.43368e-09 -7.9521e-07 0)
(7.40067e-09 -7.96549e-07 0)
(7.36758e-09 -7.97886e-07 0)
(7.3344e-09 -7.9922e-07 0)
(7.30114e-09 -8.00551e-07 0)
(7.26781e-09 -8.0188e-07 0)
(7.23439e-09 -8.03205e-07 0)
(7.20089e-09 -8.04527e-07 0)
(7.16732e-09 -8.05846e-07 0)
(7.13366e-09 -8.07162e-07 0)
(7.09993e-09 -8.08475e-07 0)
(7.06612e-09 -8.09785e-07 0)
(7.03223e-09 -8.11092e-07 0)
(6.99826e-09 -8.12395e-07 0)
(6.96422e-09 -8.13695e-07 0)
(6.9301e-09 -8.14992e-07 0)
(6.89591e-09 -8.16285e-07 0)
(6.86164e-09 -8.17576e-07 0)
(6.8273e-09 -8.18862e-07 0)
(6.79288e-09 -8.20146e-07 0)
(6.75839e-09 -8.21425e-07 0)
(6.72383e-09 -8.22702e-07 0)
(6.68919e-09 -8.23974e-07 0)
(6.65448e-09 -8.25244e-07 0)
(6.61971e-09 -8.26509e-07 0)
(6.58486e-09 -8.27771e-07 0)
(6.54994e-09 -8.29029e-07 0)
(6.51495e-09 -8.30283e-07 0)
(6.47989e-09 -8.31534e-07 0)
(6.44477e-09 -8.32781e-07 0)
(6.40958e-09 -8.34023e-07 0)
(6.37432e-09 -8.35262e-07 0)
(6.33899e-09 -8.36498e-07 0)
(6.3036e-09 -8.37729e-07 0)
(6.26814e-09 -8.38956e-07 0)
(6.23262e-09 -8.40179e-07 0)
(6.19704e-09 -8.41398e-07 0)
(6.16139e-09 -8.42612e-07 0)
(6.12568e-09 -8.43823e-07 0)
(6.08991e-09 -8.45029e-07 0)
(6.05408e-09 -8.46231e-07 0)
(6.01819e-09 -8.47429e-07 0)
(5.98224e-09 -8.48623e-07 0)
(5.94623e-09 -8.49812e-07 0)
(5.91016e-09 -8.50997e-07 0)
(5.87404e-09 -8.52177e-07 0)
(5.83786e-09 -8.53353e-07 0)
(5.80162e-09 -8.54524e-07 0)
(5.76533e-09 -8.55691e-07 0)
(5.72898e-09 -8.56853e-07 0)
(5.69259e-09 -8.58011e-07 0)
(5.65613e-09 -8.59164e-07 0)
(5.61963e-09 -8.60312e-07 0)
(5.58308e-09 -8.61455e-07 0)
(5.54647e-09 -8.62594e-07 0)
(5.50982e-09 -8.63728e-07 0)
(5.47312e-09 -8.64857e-07 0)
(5.43637e-09 -8.65981e-07 0)
(5.39958e-09 -8.671e-07 0)
(5.36274e-09 -8.68214e-07 0)
(5.32585e-09 -8.69323e-07 0)
(5.28891e-09 -8.70427e-07 0)
(5.25198e-09 -8.71525e-07 0)
(5.2148e-09 -8.72621e-07 0)
(5.17844e-09 -8.73702e-07 0)
(5.14353e-09 -8.74728e-07 0)
(5.10943e-09 -8.75702e-07 0)
(5.07578e-09 -8.76663e-07 0)
(5.04198e-09 -8.77629e-07 0)
(5.00789e-09 -8.78604e-07 0)
(4.97349e-09 -8.79584e-07 0)
(4.93876e-09 -8.80567e-07 0)
(4.9037e-09 -8.81553e-07 0)
(4.86831e-09 -8.82542e-07 0)
(4.83259e-09 -8.83535e-07 0)
(4.79653e-09 -8.84531e-07 0)
(4.76013e-09 -8.85531e-07 0)
(4.72339e-09 -8.86534e-07 0)
(4.6863e-09 -8.8754e-07 0)
(4.64888e-09 -8.88548e-07 0)
(4.61111e-09 -8.8956e-07 0)
(4.57299e-09 -8.90574e-07 0)
(4.53453e-09 -8.9159e-07 0)
(4.49571e-09 -8.92609e-07 0)
(4.45655e-09 -8.9363e-07 0)
(4.41703e-09 -8.94653e-07 0)
(4.37716e-09 -8.95678e-07 0)
(4.33694e-09 -8.96704e-07 0)
(4.29636e-09 -8.97732e-07 0)
(4.25542e-09 -8.98762e-07 0)
(4.21413e-09 -8.99792e-07 0)
(4.17247e-09 -9.00824e-07 0)
(4.13046e-09 -9.01856e-07 0)
(4.08809e-09 -9.02889e-07 0)
(4.04536e-09 -9.03923e-07 0)
(4.00226e-09 -9.04956e-07 0)
(3.95881e-09 -9.0599e-07 0)
(3.91499e-09 -9.07023e-07 0)
(3.87081e-09 -9.08056e-07 0)
(3.82627e-09 -9.09088e-07 0)
(3.78137e-09 -9.1012e-07 0)
(3.7361e-09 -9.1115e-07 0)
(3.69047e-09 -9.12178e-07 0)
(3.64448e-09 -9.13205e-07 0)
(3.59813e-09 -9.14231e-07 0)
(3.55142e-09 -9.15254e-07 0)
(3.50434e-09 -9.16274e-07 0)
(3.45691e-09 -9.17292e-07 0)
(3.40912e-09 -9.18306e-07 0)
(3.36097e-09 -9.19318e-07 0)
(3.31247e-09 -9.20326e-07 0)
(3.26361e-09 -9.21329e-07 0)
(3.2144e-09 -9.22329e-07 0)
(3.16484e-09 -9.23324e-07 0)
(3.11493e-09 -9.24314e-07 0)
(3.06467e-09 -9.25299e-07 0)
(3.01406e-09 -9.26279e-07 0)
(2.96312e-09 -9.27252e-07 0)
(2.91183e-09 -9.28219e-07 0)
(2.86021e-09 -9.2918e-07 0)
(2.80825e-09 -9.30133e-07 0)
(2.75597e-09 -9.31079e-07 0)
(2.70335e-09 -9.32018e-07 0)
(2.65042e-09 -9.32948e-07 0)
(2.59716e-09 -9.3387e-07 0)
(2.54358e-09 -9.34782e-07 0)
(2.4897e-09 -9.35685e-07 0)
(2.43551e-09 -9.36579e-07 0)
(2.38102e-09 -9.37462e-07 0)
(2.32623e-09 -9.38335e-07 0)
(2.27115e-09 -9.39196e-07 0)
(2.21578e-09 -9.40046e-07 0)
(2.16013e-09 -9.40884e-07 0)
(2.10421e-09 -9.41709e-07 0)
(2.04802e-09 -9.42521e-07 0)
(1.99158e-09 -9.4332e-07 0)
(1.93487e-09 -9.44104e-07 0)
(1.87792e-09 -9.44875e-07 0)
(1.82073e-09 -9.4563e-07 0)
(1.76331e-09 -9.4637e-07 0)
(1.70566e-09 -9.47094e-07 0)
(1.6478e-09 -9.47801e-07 0)
(1.58974e-09 -9.48491e-07 0)
(1.53147e-09 -9.49164e-07 0)
(1.47302e-09 -9.49818e-07 0)
(1.41439e-09 -9.50454e-07 0)
(1.35559e-09 -9.5107e-07 0)
(1.29663e-09 -9.51666e-07 0)
(1.23752e-09 -9.52243e-07 0)
(1.17828e-09 -9.52798e-07 0)
(1.11891e-09 -9.53331e-07 0)
(1.05942e-09 -9.53842e-07 0)
(9.99839e-10 -9.54331e-07 0)
(9.40163e-10 -9.54796e-07 0)
(8.80409e-10 -9.55237e-07 0)
(8.20592e-10 -9.55654e-07 0)
(7.60723e-10 -9.56045e-07 0)
(7.00816e-10 -9.5641e-07 0)
(6.40886e-10 -9.56749e-07 0)
(5.80946e-10 -9.57061e-07 0)
(5.21012e-10 -9.57345e-07 0)
(4.61098e-10 -9.57601e-07 0)
(4.01219e-10 -9.57828e-07 0)
(3.41392e-10 -9.58025e-07 0)
(2.81632e-10 -9.58192e-07 0)
(2.21955e-10 -9.58329e-07 0)
(1.62379e-10 -9.58433e-07 0)
(1.02919e-10 -9.58505e-07 0)
(4.35934e-11 -9.58545e-07 0)
(-1.55803e-11 -9.58551e-07 0)
(-7.45844e-11 -9.58523e-07 0)
(-1.33401e-10 -9.5846e-07 0)
(-1.92011e-10 -9.58362e-07 0)
(-2.50396e-10 -9.58228e-07 0)
(-3.08538e-10 -9.58058e-07 0)
(-3.66416e-10 -9.5785e-07 0)
(-4.24012e-10 -9.57604e-07 0)
(-4.81306e-10 -9.57319e-07 0)
(-5.38277e-10 -9.56996e-07 0)
(-5.94906e-10 -9.56633e-07 0)
(-6.51173e-10 -9.56229e-07 0)
(-7.07056e-10 -9.55785e-07 0)
(-7.62536e-10 -9.55299e-07 0)
(-8.1759e-10 -9.54771e-07 0)
(-8.72199e-10 -9.54201e-07 0)
(-9.26341e-10 -9.53587e-07 0)
(-9.79995e-10 -9.5293e-07 0)
(-1.03314e-09 -9.52228e-07 0)
(-1.08575e-09 -9.51482e-07 0)
(-1.13782e-09 -9.5069e-07 0)
(-1.1893e-09 -9.49853e-07 0)
(-1.2402e-09 -9.48969e-07 0)
(-1.29047e-09 -9.48039e-07 0)
(-1.34011e-09 -9.47062e-07 0)
(-1.38909e-09 -9.46037e-07 0)
(-1.43739e-09 -9.44964e-07 0)
(-1.48499e-09 -9.43842e-07 0)
(-1.53186e-09 -9.42672e-07 0)
(-1.57799e-09 -9.41453e-07 0)
(-1.62336e-09 -9.40185e-07 0)
(-1.66794e-09 -9.38866e-07 0)
(-1.71171e-09 -9.37498e-07 0)
(-1.75466e-09 -9.3608e-07 0)
(-1.79677e-09 -9.3461e-07 0)
(-1.83801e-09 -9.33091e-07 0)
(-1.87837e-09 -9.3152e-07 0)
(-1.91783e-09 -9.29898e-07 0)
(-1.95637e-09 -9.28225e-07 0)
(-1.99397e-09 -9.265e-07 0)
(-2.03061e-09 -9.24725e-07 0)
(-2.06628e-09 -9.22897e-07 0)
(-2.10096e-09 -9.21018e-07 0)
(-2.13464e-09 -9.19088e-07 0)
(-2.1673e-09 -9.17106e-07 0)
(-2.19892e-09 -9.15073e-07 0)
(-2.22949e-09 -9.12988e-07 0)
(-2.25901e-09 -9.10853e-07 0)
(-2.28744e-09 -9.08666e-07 0)
(-2.31479e-09 -9.06428e-07 0)
(-2.34104e-09 -9.0414e-07 0)
(-2.36618e-09 -9.01802e-07 0)
(-2.39019e-09 -8.99413e-07 0)
(-2.41308e-09 -8.96975e-07 0)
(-2.43483e-09 -8.94487e-07 0)
(-2.45544e-09 -8.91951e-07 0)
(-2.47489e-09 -8.89365e-07 0)
(-2.49318e-09 -8.86732e-07 0)
(-2.51031e-09 -8.84052e-07 0)
(-2.52627e-09 -8.81324e-07 0)
(-2.54106e-09 -8.7855e-07 0)
(-2.55467e-09 -8.7573e-07 0)
(-2.56711e-09 -8.72865e-07 0)
(-2.57837e-09 -8.69955e-07 0)
(-2.58845e-09 -8.67002e-07 0)
(-2.59735e-09 -8.64006e-07 0)
(-2.60508e-09 -8.60967e-07 0)
(-2.61163e-09 -8.57887e-07 0)
(-2.61702e-09 -8.54767e-07 0)
(-2.62124e-09 -8.51607e-07 0)
(-2.6243e-09 -8.48408e-07 0)
(-2.6262e-09 -8.45171e-07 0)
(-2.62696e-09 -8.41898e-07 0)
(-2.62658e-09 -8.38589e-07 0)
(-2.62505e-09 -8.35243e-07 0)
(-2.62248e-09 -8.31868e-07 0)
(-2.61841e-09 -8.28424e-07 0)
(-2.61268e-09 -8.2462e-07 0)
(-2.60548e-09 -8.20449e-07 0)
(-2.59661e-09 -8.1621e-07 0)
(-2.58629e-09 -8.11996e-07 0)
(-2.57464e-09 -8.07823e-07 0)
(-2.56177e-09 -8.03674e-07 0)
(-2.54775e-09 -7.99542e-07 0)
(-2.53263e-09 -7.9543e-07 0)
(-2.51647e-09 -7.91344e-07 0)
(-2.49935e-09 -7.87286e-07 0)
(-2.48131e-09 -7.83257e-07 0)
(-2.46241e-09 -7.79258e-07 0)
(-2.4427e-09 -7.7529e-07 0)
(-2.42224e-09 -7.71354e-07 0)
(-2.40107e-09 -7.67452e-07 0)
(-2.37923e-09 -7.63585e-07 0)
(-2.35678e-09 -7.59754e-07 0)
(-2.33374e-09 -7.5596e-07 0)
(-2.31015e-09 -7.52203e-07 0)
(-2.28606e-09 -7.48485e-07 0)
(-2.2615e-09 -7.44807e-07 0)
(-2.23649e-09 -7.41168e-07 0)
(-2.21107e-09 -7.37571e-07 0)
(-2.18527e-09 -7.34015e-07 0)
(-2.15912e-09 -7.30501e-07 0)
(-2.13263e-09 -7.27029e-07 0)
(-2.10583e-09 -7.23601e-07 0)
(-2.07874e-09 -7.20216e-07 0)
(-2.05139e-09 -7.16875e-07 0)
(-2.02379e-09 -7.13579e-07 0)
(-1.99596e-09 -7.10328e-07 0)
(-1.96792e-09 -7.07122e-07 0)
(-1.93968e-09 -7.03961e-07 0)
(-1.91125e-09 -7.00846e-07 0)
(-1.88265e-09 -6.97778e-07 0)
(-1.85389e-09 -6.94756e-07 0)
(-1.82498e-09 -6.9178e-07 0)
(-1.79593e-09 -6.88851e-07 0)
(-1.76675e-09 -6.8597e-07 0)
(-1.73745e-09 -6.83136e-07 0)
(-1.70803e-09 -6.80349e-07 0)
(-1.6785e-09 -6.7761e-07 0)
(-1.64887e-09 -6.74918e-07 0)
(-1.61914e-09 -6.72275e-07 0)
(-1.58932e-09 -6.6968e-07 0)
(-1.5594e-09 -6.67134e-07 0)
(-1.52941e-09 -6.64635e-07 0)
(-1.49933e-09 -6.62186e-07 0)
(-1.46917e-09 -6.59785e-07 0)
(-1.43893e-09 -6.57433e-07 0)
(-1.40862e-09 -6.5513e-07 0)
(-1.37823e-09 -6.52875e-07 0)
(-1.34777e-09 -6.50671e-07 0)
(-1.31725e-09 -6.48515e-07 0)
(-1.28665e-09 -6.46409e-07 0)
(-1.25598e-09 -6.44353e-07 0)
(-1.22524e-09 -6.42346e-07 0)
(-1.19443e-09 -6.40389e-07 0)
(-1.16355e-09 -6.38482e-07 0)
(-1.13261e-09 -6.36625e-07 0)
(-1.10159e-09 -6.34817e-07 0)
(-1.07051e-09 -6.33061e-07 0)
(-1.03936e-09 -6.31354e-07 0)
(-1.00815e-09 -6.29698e-07 0)
(-9.76865e-10 -6.28093e-07 0)
(-9.45514e-10 -6.26538e-07 0)
(-9.14096e-10 -6.25034e-07 0)
(-8.82611e-10 -6.2358e-07 0)
(-8.5106e-10 -6.22178e-07 0)
(-8.19443e-10 -6.20827e-07 0)
(-7.87762e-10 -6.19527e-07 0)
(-7.56017e-10 -6.18278e-07 0)
(-7.24208e-10 -6.17081e-07 0)
(-6.92338e-10 -6.15936e-07 0)
(-6.60407e-10 -6.14841e-07 0)
(-6.28417e-10 -6.13799e-07 0)
(-5.96369e-10 -6.12808e-07 0)
(-5.64265e-10 -6.1187e-07 0)
(-5.32108e-10 -6.10983e-07 0)
(-4.99898e-10 -6.10148e-07 0)
(-4.67639e-10 -6.09365e-07 0)
(-4.35333e-10 -6.08635e-07 0)
(-4.02982e-10 -6.07957e-07 0)
(-3.70589e-10 -6.07332e-07 0)
(-3.38156e-10 -6.06757e-07 0)
(-3.05688e-10 -6.0624e-07 0)
(-2.73185e-10 -6.05759e-07 0)
(-2.40657e-10 -6.05386e-07 0)
(-2.08083e-10 -6.04882e-07 0)
(-1.7555e-10 -6.05031e-07 0)
(-1.42782e-10 -6.03202e-07 0)
(-1.10721e-10 -6.07904e-07 0)
(-7.63303e-11 -5.89563e-07 0)
(-5.0158e-11 -6.37874e-07 0)
(-2.14289e-11 -5.57083e-07 0)
)
;
    }
    bottomWall
    {
        type            calculated;
        value           nonuniform List<vector> 
449
(
(-48.5475 -0.964316 0)
(-19.757 -0.00515704 0)
(-14.3476 -0.00113521 0)
(-12.0371 -0.00054571 0)
(-10.6304 -0.000351651 0)
(-9.63616 -0.000256109 0)
(-8.87775 -0.000198576 0)
(-8.27396 -0.000159889 0)
(-7.77831 -0.000132386 0)
(-7.36148 -0.00011203 0)
(-7.00431 -9.64223e-05 0)
(-6.69374 -8.41097e-05 0)
(-6.42046 -7.41872e-05 0)
(-6.17756 -6.60558e-05 0)
(-5.95977 -5.92957e-05 0)
(-5.76303 -5.36036e-05 0)
(-5.58415 -4.8757e-05 0)
(-5.42056 -4.45902e-05 0)
(-5.27021 -4.0977e-05 0)
(-5.13138 -3.78199e-05 0)
(-5.00268 -3.50423e-05 0)
(-4.88291 -3.25834e-05 0)
(-4.7711 -3.03943e-05 0)
(-4.66638 -2.84355e-05 0)
(-4.56804 -2.66744e-05 0)
(-4.47545 -2.50844e-05 0)
(-4.38807 -2.3643e-05 0)
(-4.30542 -2.23315e-05 0)
(-4.22709 -2.11343e-05 0)
(-4.15271 -2.00379e-05 0)
(-4.08197 -1.90308e-05 0)
(-4.01456 -1.81032e-05 0)
(-3.95023 -1.72466e-05 0)
(-3.88876 -1.64537e-05 0)
(-3.82993 -1.57181e-05 0)
(-3.77357 -1.50341e-05 0)
(-3.71949 -1.43968e-05 0)
(-3.66756 -1.3802e-05 0)
(-3.61763 -1.32457e-05 0)
(-3.56957 -1.27247e-05 0)
(-3.52327 -1.22357e-05 0)
(-3.47862 -1.17763e-05 0)
(-3.43553 -1.13439e-05 0)
(-3.3939 -1.09363e-05 0)
(-3.35366 -1.05518e-05 0)
(-3.31473 -1.01884e-05 0)
(-3.27703 -9.84453e-06 0)
(-3.24051 -9.51886e-06 0)
(-3.2051 -9.21004e-06 0)
(-3.17075 -8.91688e-06 0)
(-3.1374 -8.6383e-06 0)
(-3.10501 -8.37331e-06 0)
(-3.07353 -8.121e-06 0)
(-3.04292 -7.88055e-06 0)
(-3.01313 -7.6512e-06 0)
(-2.98414 -7.43224e-06 0)
(-2.9559 -7.22304e-06 0)
(-2.92838 -7.02301e-06 0)
(-2.90156 -6.83158e-06 0)
(-2.8754 -6.64827e-06 0)
(-2.84988 -6.4726e-06 0)
(-2.82497 -6.30413e-06 0)
(-2.80065 -6.14246e-06 0)
(-2.77688 -5.98722e-06 0)
(-2.75366 -5.83805e-06 0)
(-2.73096 -5.69464e-06 0)
(-2.70877 -5.55668e-06 0)
(-2.68705 -5.42389e-06 0)
(-2.6658 -5.296e-06 0)
(-2.645 -5.17276e-06 0)
(-2.62463 -5.05395e-06 0)
(-2.60468 -4.93934e-06 0)
(-2.58513 -4.82874e-06 0)
(-2.56598 -4.72195e-06 0)
(-2.5472 -4.6188e-06 0)
(-2.52878 -4.51911e-06 0)
(-2.51072 -4.42272e-06 0)
(-2.493 -4.32949e-06 0)
(-2.4756 -4.23927e-06 0)
(-2.45853 -4.15194e-06 0)
(-2.44177 -4.06736e-06 0)
(-2.42531 -3.98542e-06 0)
(-2.40914 -3.906e-06 0)
(-2.39326 -3.829e-06 0)
(-2.37764 -3.75432e-06 0)
(-2.3623 -3.68187e-06 0)
(-2.34721 -3.61154e-06 0)
(-2.33238 -3.54326e-06 0)
(-2.31779 -3.47695e-06 0)
(-2.30344 -3.41252e-06 0)
(-2.28932 -3.34991e-06 0)
(-2.27543 -3.28905e-06 0)
(-2.26175 -3.22986e-06 0)
(-2.24829 -3.17229e-06 0)
(-2.23503 -3.11628e-06 0)
(-2.22198 -3.06176e-06 0)
(-2.20913 -3.00868e-06 0)
(-2.19646 -2.957e-06 0)
(-2.18399 -2.90666e-06 0)
(-2.17169 -2.85761e-06 0)
(-2.15958 -2.80981e-06 0)
(-2.14763 -2.76322e-06 0)
(-2.13586 -2.71779e-06 0)
(-2.12425 -2.67348e-06 0)
(-2.11281 -2.63027e-06 0)
(-2.10152 -2.5881e-06 0)
(-2.09039 -2.54694e-06 0)
(-2.0794 -2.50677e-06 0)
(-2.06857 -2.46755e-06 0)
(-2.05787 -2.42925e-06 0)
(-2.04732 -2.39184e-06 0)
(-2.0369 -2.35529e-06 0)
(-2.02662 -2.31957e-06 0)
(-2.01647 -2.28467e-06 0)
(-2.00645 -2.25055e-06 0)
(-1.99656 -2.21718e-06 0)
(-1.98679 -2.18456e-06 0)
(-1.97714 -2.15265e-06 0)
(-1.9676 -2.12143e-06 0)
(-1.95818 -2.09089e-06 0)
(-1.94888 -2.061e-06 0)
(-1.93969 -2.03174e-06 0)
(-1.9306 -2.00311e-06 0)
(-1.92162 -1.97506e-06 0)
(-1.91275 -1.9476e-06 0)
(-1.90398 -1.92071e-06 0)
(-1.8953 -1.89437e-06 0)
(-1.88673 -1.86855e-06 0)
(-1.87826 -1.84326e-06 0)
(-1.86987 -1.81848e-06 0)
(-1.86158 -1.79418e-06 0)
(-1.85339 -1.77036e-06 0)
(-1.84528 -1.74701e-06 0)
(-1.83726 -1.72411e-06 0)
(-1.82932 -1.70166e-06 0)
(-1.82147 -1.67963e-06 0)
(-1.8137 -1.65802e-06 0)
(-1.80602 -1.63682e-06 0)
(-1.79841 -1.61601e-06 0)
(-1.79088 -1.5956e-06 0)
(-1.78343 -1.57556e-06 0)
(-1.77606 -1.55589e-06 0)
(-1.76876 -1.53657e-06 0)
(-1.76154 -1.51761e-06 0)
(-1.75438 -1.49899e-06 0)
(-1.7473 -1.4807e-06 0)
(-1.74029 -1.46274e-06 0)
(-1.73334 -1.44509e-06 0)
(-1.72646 -1.42776e-06 0)
(-1.71965 -1.41072e-06 0)
(-1.71291 -1.39398e-06 0)
(-1.70622 -1.37753e-06 0)
(-1.6996 -1.36137e-06 0)
(-1.69305 -1.34547e-06 0)
(-1.68655 -1.32985e-06 0)
(-1.68012 -1.31448e-06 0)
(-1.67374 -1.29938e-06 0)
(-1.66742 -1.28452e-06 0)
(-1.66116 -1.26991e-06 0)
(-1.65496 -1.25554e-06 0)
(-1.64881 -1.24141e-06 0)
(-1.64271 -1.2275e-06 0)
(-1.63667 -1.21382e-06 0)
(-1.63068 -1.20036e-06 0)
(-1.62475 -1.18711e-06 0)
(-1.61887 -1.17408e-06 0)
(-1.61303 -1.16124e-06 0)
(-1.60725 -1.14862e-06 0)
(-1.60152 -1.13622e-06 0)
(-1.59583 -1.12387e-06 0)
(-1.59019 -1.11216e-06 0)
(-1.5846 -1.10004e-06 0)
(-1.57906 -1.08691e-06 0)
(-1.57388 -1.07673e-06 0)
(-1.56901 -1.06848e-06 0)
(-1.56412 -1.05809e-06 0)
(-1.55924 -1.04738e-06 0)
(-1.55435 -1.03735e-06 0)
(-1.54945 -1.0273e-06 0)
(-1.54455 -1.01737e-06 0)
(-1.53964 -1.00751e-06 0)
(-1.53473 -9.97706e-07 0)
(-1.52981 -9.87966e-07 0)
(-1.52489 -9.78286e-07 0)
(-1.51997 -9.68662e-07 0)
(-1.51504 -9.59095e-07 0)
(-1.5101 -9.49584e-07 0)
(-1.50516 -9.40129e-07 0)
(-1.50022 -9.30729e-07 0)
(-1.49527 -9.21385e-07 0)
(-1.49032 -9.12096e-07 0)
(-1.48537 -9.02864e-07 0)
(-1.48041 -8.93688e-07 0)
(-1.47545 -8.84568e-07 0)
(-1.47049 -8.75505e-07 0)
(-1.46553 -8.66499e-07 0)
(-1.46056 -8.5755e-07 0)
(-1.45559 -8.48659e-07 0)
(-1.45062 -8.39825e-07 0)
(-1.44565 -8.31049e-07 0)
(-1.44068 -8.22331e-07 0)
(-1.4357 -8.13671e-07 0)
(-1.43073 -8.05069e-07 0)
(-1.42575 -7.96526e-07 0)
(-1.42078 -7.88042e-07 0)
(-1.4158 -7.79616e-07 0)
(-1.41082 -7.7125e-07 0)
(-1.40584 -7.62942e-07 0)
(-1.40087 -7.54694e-07 0)
(-1.39589 -7.46505e-07 0)
(-1.39091 -7.38376e-07 0)
(-1.38594 -7.30306e-07 0)
(-1.38096 -7.22296e-07 0)
(-1.37599 -7.14346e-07 0)
(-1.37102 -7.06455e-07 0)
(-1.36605 -6.98625e-07 0)
(-1.36108 -6.90854e-07 0)
(-1.35611 -6.83143e-07 0)
(-1.35115 -6.75492e-07 0)
(-1.34619 -6.67901e-07 0)
(-1.34123 -6.60369e-07 0)
(-1.33627 -6.52898e-07 0)
(-1.33131 -6.45487e-07 0)
(-1.32636 -6.38136e-07 0)
(-1.32142 -6.30844e-07 0)
(-1.31647 -6.23612e-07 0)
(-1.31153 -6.16441e-07 0)
(-1.3066 -6.09328e-07 0)
(-1.30166 -6.02276e-07 0)
(-1.29673 -5.95283e-07 0)
(-1.29181 -5.88349e-07 0)
(-1.28689 -5.81475e-07 0)
(-1.28198 -5.7466e-07 0)
(-1.27707 -5.67905e-07 0)
(-1.27216 -5.61208e-07 0)
(-1.26726 -5.54571e-07 0)
(-1.26237 -5.47992e-07 0)
(-1.25748 -5.41472e-07 0)
(-1.2526 -5.3501e-07 0)
(-1.24772 -5.28607e-07 0)
(-1.24285 -5.22262e-07 0)
(-1.23798 -5.15975e-07 0)
(-1.23313 -5.09746e-07 0)
(-1.22828 -5.03574e-07 0)
(-1.22343 -4.9746e-07 0)
(-1.21859 -4.91404e-07 0)
(-1.21376 -4.85404e-07 0)
(-1.20894 -4.79462e-07 0)
(-1.20412 -4.73576e-07 0)
(-1.19931 -4.67746e-07 0)
(-1.19451 -4.61973e-07 0)
(-1.18972 -4.56255e-07 0)
(-1.18493 -4.50594e-07 0)
(-1.18016 -4.44988e-07 0)
(-1.17539 -4.39437e-07 0)
(-1.17063 -4.33942e-07 0)
(-1.16587 -4.28501e-07 0)
(-1.16113 -4.23114e-07 0)
(-1.1564 -4.17782e-07 0)
(-1.15167 -4.12504e-07 0)
(-1.14695 -4.07279e-07 0)
(-1.14225 -4.02108e-07 0)
(-1.13755 -3.9699e-07 0)
(-1.13286 -3.91925e-07 0)
(-1.12818 -3.86913e-07 0)
(-1.12351 -3.81952e-07 0)
(-1.11885 -3.77044e-07 0)
(-1.1142 -3.72187e-07 0)
(-1.10956 -3.67382e-07 0)
(-1.10493 -3.62628e-07 0)
(-1.10032 -3.57924e-07 0)
(-1.09571 -3.53271e-07 0)
(-1.09111 -3.48668e-07 0)
(-1.08652 -3.44115e-07 0)
(-1.08195 -3.39611e-07 0)
(-1.07738 -3.35156e-07 0)
(-1.07283 -3.3075e-07 0)
(-1.06828 -3.26393e-07 0)
(-1.06375 -3.22084e-07 0)
(-1.05923 -3.17822e-07 0)
(-1.05472 -3.13609e-07 0)
(-1.05022 -3.09442e-07 0)
(-1.04573 -3.05322e-07 0)
(-1.04126 -3.01248e-07 0)
(-1.0368 -2.97221e-07 0)
(-1.03234 -2.93239e-07 0)
(-1.02791 -2.89303e-07 0)
(-1.02348 -2.85412e-07 0)
(-1.01906 -2.81565e-07 0)
(-1.01466 -2.77763e-07 0)
(-1.01027 -2.74005e-07 0)
(-1.00589 -2.70291e-07 0)
(-1.00153 -2.6662e-07 0)
(-0.997173 -2.62992e-07 0)
(-0.992833 -2.59406e-07 0)
(-0.988505 -2.55863e-07 0)
(-0.98419 -2.52362e-07 0)
(-0.979888 -2.48902e-07 0)
(-0.975599 -2.45484e-07 0)
(-0.971322 -2.42106e-07 0)
(-0.967059 -2.38769e-07 0)
(-0.962809 -2.35472e-07 0)
(-0.958572 -2.32215e-07 0)
(-0.954349 -2.28998e-07 0)
(-0.950138 -2.25819e-07 0)
(-0.945942 -2.22679e-07 0)
(-0.941758 -2.19578e-07 0)
(-0.937588 -2.16514e-07 0)
(-0.933432 -2.13489e-07 0)
(-0.929289 -2.105e-07 0)
(-0.925159 -2.07549e-07 0)
(-0.921044 -2.04634e-07 0)
(-0.916942 -2.01756e-07 0)
(-0.912854 -1.98913e-07 0)
(-0.90878 -1.96106e-07 0)
(-0.90472 -1.93335e-07 0)
(-0.900674 -1.90598e-07 0)
(-0.896641 -1.87896e-07 0)
(-0.892623 -1.85228e-07 0)
(-0.888619 -1.82594e-07 0)
(-0.884628 -1.79993e-07 0)
(-0.880652 -1.77426e-07 0)
(-0.876691 -1.74891e-07 0)
(-0.872743 -1.72389e-07 0)
(-0.868809 -1.6992e-07 0)
(-0.86489 -1.67482e-07 0)
(-0.860985 -1.65076e-07 0)
(-0.857095 -1.627e-07 0)
(-0.853218 -1.60356e-07 0)
(-0.849357 -1.58043e-07 0)
(-0.845509 -1.55759e-07 0)
(-0.841676 -1.53506e-07 0)
(-0.837857 -1.51282e-07 0)
(-0.834053 -1.49087e-07 0)
(-0.830264 -1.46922e-07 0)
(-0.826488 -1.44785e-07 0)
(-0.822728 -1.42676e-07 0)
(-0.818982 -1.40595e-07 0)
(-0.81525 -1.38542e-07 0)
(-0.811533 -1.36517e-07 0)
(-0.807831 -1.34518e-07 0)
(-0.804143 -1.32547e-07 0)
(-0.80047 -1.30602e-07 0)
(-0.796811 -1.28683e-07 0)
(-0.793167 -1.26789e-07 0)
(-0.789537 -1.24922e-07 0)
(-0.785923 -1.23079e-07 0)
(-0.782323 -1.21262e-07 0)
(-0.778737 -1.19468e-07 0)
(-0.775166 -1.17701e-07 0)
(-0.77161 -1.15953e-07 0)
(-0.768069 -1.14198e-07 0)
(-0.764544 -1.12581e-07 0)
(-0.761027 -1.10975e-07 0)
(-0.757134 -1.09028e-07 0)
(-0.752913 -1.06966e-07 0)
(-0.748769 -1.05108e-07 0)
(-0.744693 -1.03342e-07 0)
(-0.740687 -1.01561e-07 0)
(-0.73675 -9.98125e-08 0)
(-0.732881 -9.81084e-08 0)
(-0.729077 -9.64499e-08 0)
(-0.725338 -9.48357e-08 0)
(-0.721661 -9.32645e-08 0)
(-0.718044 -9.17352e-08 0)
(-0.714486 -9.02464e-08 0)
(-0.710986 -8.87969e-08 0)
(-0.707542 -8.73851e-08 0)
(-0.704152 -8.60098e-08 0)
(-0.700816 -8.46697e-08 0)
(-0.697531 -8.33636e-08 0)
(-0.694297 -8.20902e-08 0)
(-0.691111 -8.08485e-08 0)
(-0.687974 -7.96374e-08 0)
(-0.684883 -7.84558e-08 0)
(-0.681838 -7.73027e-08 0)
(-0.678838 -7.61772e-08 0)
(-0.675881 -7.50785e-08 0)
(-0.672967 -7.40055e-08 0)
(-0.670094 -7.29575e-08 0)
(-0.667261 -7.19337e-08 0)
(-0.664469 -7.09333e-08 0)
(-0.661714 -6.99555e-08 0)
(-0.658998 -6.89998e-08 0)
(-0.656319 -6.80653e-08 0)
(-0.653675 -6.71515e-08 0)
(-0.651067 -6.62577e-08 0)
(-0.648494 -6.53833e-08 0)
(-0.645954 -6.45277e-08 0)
(-0.643448 -6.36904e-08 0)
(-0.640974 -6.28709e-08 0)
(-0.638531 -6.20685e-08 0)
(-0.63612 -6.12829e-08 0)
(-0.633739 -6.05136e-08 0)
(-0.631388 -5.97601e-08 0)
(-0.629066 -5.90219e-08 0)
(-0.626773 -5.82986e-08 0)
(-0.624507 -5.75898e-08 0)
(-0.622269 -5.68952e-08 0)
(-0.620058 -5.62143e-08 0)
(-0.617873 -5.55468e-08 0)
(-0.615715 -5.48923e-08 0)
(-0.613581 -5.42504e-08 0)
(-0.611472 -5.36209e-08 0)
(-0.609388 -5.30035e-08 0)
(-0.607328 -5.23977e-08 0)
(-0.605291 -5.18034e-08 0)
(-0.603277 -5.12202e-08 0)
(-0.601286 -5.06478e-08 0)
(-0.599316 -5.00861e-08 0)
(-0.597369 -4.95347e-08 0)
(-0.595443 -4.89934e-08 0)
(-0.593538 -4.8462e-08 0)
(-0.591654 -4.79402e-08 0)
(-0.589789 -4.74278e-08 0)
(-0.587945 -4.69246e-08 0)
(-0.58612 -4.64305e-08 0)
(-0.584315 -4.59451e-08 0)
(-0.582528 -4.54684e-08 0)
(-0.580759 -4.50002e-08 0)
(-0.579009 -4.45403e-08 0)
(-0.577276 -4.40886e-08 0)
(-0.575561 -4.36449e-08 0)
(-0.573864 -4.32091e-08 0)
(-0.572183 -4.27812e-08 0)
(-0.570519 -4.2361e-08 0)
(-0.568871 -4.19484e-08 0)
(-0.567239 -4.15435e-08 0)
(-0.565622 -4.11462e-08 0)
(-0.564021 -4.07566e-08 0)
(-0.562435 -4.03747e-08 0)
(-0.560864 -4.00008e-08 0)
(-0.559308 -3.96351e-08 0)
(-0.557765 -3.9278e-08 0)
(-0.556236 -3.89301e-08 0)
(-0.554721 -3.85922e-08 0)
(-0.553219 -3.82657e-08 0)
(-0.551729 -3.7952e-08 0)
(-0.550251 -3.76538e-08 0)
(-0.548785 -3.73824e-08 0)
(-0.547329 -3.71144e-08 0)
(-0.545883 -3.68975e-08 0)
(-0.544444 -3.69305e-08 0)
(-0.542996 -3.63499e-08 0)
(-0.541602 -3.54887e-08 0)
(-0.54022 -4.6939e-08 0)
(-0.537931 -1.28376e-08 0)
(-0.539228 -3.44841e-08 0)
(-0.535193 -5.25208e-08 0)
)
;
    }
    symmetry
    {
        type            symmetryPlane;
    }
    frontAndBack
    {
        type            empty;
    }
}


// ************************************************************************* //
