/*--------------------------------*- C++ -*----------------------------------*\
| =========                 |                                                 |
| \\      /  F ield         | OpenFOAM: The Open Source CFD Toolbox           |
|  \\    /   O peration     | Version:  v2012                                 |
|   \\  /    A nd           | Website:  www.openfoam.com                      |
|    \\/     M anipulation  |                                                 |
\*---------------------------------------------------------------------------*/
FoamFile
{
    version     2.0;
    format      ascii;
    class       volScalarField;
    location    "25.5";
    object      epsilon;
}
// * * * * * * * * * * * * * * * * * * * * * * * * * * * * * * * * * * * * * //

dimensions      [0 2 -3 0 0 0 0];


internalField   nonuniform List<scalar> 
209825
(
0.754807
0.654129
0.599757
0.568264
0.548308
0.534768
0.52505
0.517834
0.512266
0.507906
0.504376
0.501514
0.499113
0.497114
0.495395
0.493945
0.492666
0.491577
0.490594
0.489753
0.48898
0.488314
0.487694
0.487165
0.486662
0.486232
0.485819
0.485474
0.485133
0.484841
0.484561
0.484333
0.484101
0.483909
0.483717
0.48357
0.483403
0.483271
0.483139
0.483039
0.482937
0.482868
0.482771
0.482702
0.482642
0.482602
0.482526
0.482492
0.48247
0.482442
0.482367
0.482409
0.482409
0.482407
0.482433
0.482433
0.482505
0.48263
0.482696
0.482857
0.482881
0.482881
0.482964
0.483066
0.483234
0.483401
0.483507
0.483618
0.483796
0.483961
0.484131
0.484348
0.484533
0.484749
0.484945
0.48519
0.485396
0.485721
0.48594
0.486329
0.486582
0.487035
0.487313
0.487859
0.488175
0.488837
0.489221
0.490031
0.49051
0.491559
0.49213
0.493909
0.494365
0.501771
2.92159
543.324
0.754807
0.654124
0.599745
0.568247
0.548288
0.534745
0.525025
0.517807
0.512237
0.507877
0.504345
0.501483
0.499081
0.497082
0.495362
0.493912
0.492633
0.491543
0.49056
0.489719
0.488946
0.488279
0.487659
0.487131
0.486628
0.486197
0.485784
0.485439
0.485098
0.484806
0.484526
0.484298
0.484066
0.483874
0.483681
0.483534
0.483367
0.483236
0.483104
0.483003
0.482901
0.482832
0.482735
0.482666
0.482606
0.482566
0.48249
0.482456
0.482434
0.482406
0.482331
0.482373
0.482373
0.482371
0.482397
0.482397
0.482469
0.482594
0.48266
0.482821
0.482845
0.482845
0.482928
0.48303
0.483198
0.483365
0.483471
0.483582
0.483759
0.483925
0.484095
0.484312
0.484497
0.484713
0.484909
0.485154
0.48536
0.485685
0.485904
0.486293
0.486546
0.486999
0.487277
0.487823
0.488139
0.488801
0.489185
0.489995
0.490474
0.491522
0.492094
0.493873
0.494328
0.501746
2.92614
539.993
0.754808
0.654097
0.59969
0.568171
0.548196
0.534643
0.524914
0.517691
0.512116
0.507752
0.504217
0.501351
0.498948
0.496947
0.495225
0.493774
0.492494
0.491403
0.490419
0.489577
0.488803
0.488136
0.487516
0.486987
0.486483
0.486052
0.485639
0.485293
0.484952
0.48466
0.484379
0.484151
0.483918
0.483726
0.483533
0.483386
0.483219
0.483088
0.482955
0.482854
0.482752
0.482683
0.482586
0.482517
0.482457
0.482417
0.482341
0.482306
0.482284
0.482257
0.482182
0.482223
0.482223
0.482221
0.482247
0.482247
0.482319
0.482443
0.48251
0.48267
0.482695
0.482694
0.482778
0.48288
0.483048
0.483214
0.483321
0.483431
0.483609
0.483774
0.483944
0.484161
0.484346
0.484562
0.484758
0.485003
0.485209
0.485533
0.485753
0.486141
0.486394
0.486847
0.487125
0.487671
0.487987
0.488649
0.489032
0.489842
0.490321
0.491369
0.49194
0.493719
0.494172
0.501613
2.93547
536.029
0.75481
0.654052
0.599597
0.568041
0.548042
0.53447
0.524728
0.517494
0.511911
0.50754
0.504
0.50113
0.498723
0.496719
0.494995
0.493541
0.492259
0.491167
0.490181
0.489338
0.488562
0.487894
0.487273
0.486743
0.486239
0.485807
0.485393
0.485046
0.484705
0.484412
0.484131
0.483902
0.483669
0.483477
0.483284
0.483136
0.482969
0.482837
0.482704
0.482603
0.482501
0.482432
0.482334
0.482265
0.482205
0.482165
0.482088
0.482054
0.482032
0.482004
0.481929
0.48197
0.48197
0.481968
0.481994
0.481994
0.482066
0.48219
0.482256
0.482416
0.482441
0.482441
0.482524
0.482626
0.482794
0.48296
0.483066
0.483177
0.483355
0.48352
0.48369
0.483906
0.484092
0.484307
0.484503
0.484749
0.484954
0.485278
0.485498
0.485886
0.486138
0.486592
0.486869
0.487415
0.48773
0.488392
0.488775
0.489584
0.490063
0.49111
0.49168
0.493458
0.493909
0.501385
2.95002
532.215
0.754812
0.653987
0.599464
0.567859
0.547823
0.534225
0.524464
0.517215
0.511621
0.507241
0.503693
0.500818
0.498405
0.496397
0.494669
0.493212
0.491927
0.490832
0.489845
0.488999
0.488222
0.487553
0.48693
0.486399
0.485893
0.485461
0.485045
0.484698
0.484356
0.484062
0.483781
0.483551
0.483318
0.483125
0.482931
0.482783
0.482615
0.482483
0.48235
0.482249
0.482146
0.482077
0.481979
0.48191
0.481849
0.481809
0.481732
0.481698
0.481675
0.481647
0.481572
0.481613
0.481613
0.481611
0.481636
0.481636
0.481708
0.481832
0.481897
0.482057
0.482082
0.482082
0.482165
0.482267
0.482435
0.482601
0.482707
0.482818
0.482995
0.48316
0.48333
0.483547
0.483732
0.483947
0.484143
0.484388
0.484593
0.484918
0.485137
0.485525
0.485777
0.48623
0.486507
0.487053
0.487368
0.488029
0.488411
0.48922
0.489698
0.490744
0.491313
0.49309
0.493536
0.501061
2.9702
528.897
0.754814
0.653902
0.599293
0.567622
0.547539
0.533908
0.524122
0.516854
0.511245
0.506853
0.503296
0.500412
0.497993
0.495979
0.494246
0.492786
0.491497
0.490399
0.489409
0.488561
0.487781
0.48711
0.486485
0.485952
0.485445
0.485011
0.484595
0.484247
0.483903
0.483609
0.483327
0.483096
0.482862
0.482668
0.482474
0.482325
0.482157
0.482025
0.481891
0.481789
0.481686
0.481616
0.481518
0.481448
0.481387
0.481347
0.48127
0.481235
0.481212
0.481185
0.481109
0.481149
0.481149
0.481147
0.481172
0.481172
0.481243
0.481367
0.481432
0.481592
0.481617
0.481617
0.4817
0.481802
0.481969
0.482135
0.482242
0.482352
0.482529
0.482694
0.482864
0.48308
0.483265
0.483481
0.483676
0.483921
0.484126
0.48445
0.484669
0.485057
0.485308
0.485761
0.486038
0.486583
0.486898
0.487558
0.48794
0.488747
0.489224
0.490269
0.490837
0.492612
0.493053
0.500641
2.99645
526.236
0.754818
0.653799
0.599082
0.56733
0.54719
0.533518
0.523701
0.516409
0.510782
0.506375
0.502806
0.499913
0.497486
0.495464
0.493726
0.49226
0.490967
0.489865
0.488871
0.48802
0.487238
0.486564
0.485937
0.485402
0.484894
0.484458
0.48404
0.48369
0.483346
0.48305
0.482767
0.482535
0.4823
0.482105
0.481911
0.481761
0.481592
0.481459
0.481325
0.481222
0.481119
0.481049
0.48095
0.48088
0.480818
0.480778
0.480701
0.480666
0.480642
0.480614
0.480538
0.480578
0.480578
0.480576
0.4806
0.4806
0.480671
0.480795
0.480859
0.481019
0.481044
0.481044
0.481127
0.481228
0.481395
0.481561
0.481668
0.481778
0.481955
0.48212
0.482289
0.482505
0.48269
0.482905
0.4831
0.483346
0.48355
0.483874
0.484092
0.484479
0.484731
0.485183
0.485459
0.486004
0.486318
0.486977
0.487359
0.488164
0.488641
0.489683
0.49025
0.492023
0.492457
0.500123
3.02919
524.289
0.754822
0.653677
0.598831
0.566983
0.546775
0.533053
0.523199
0.51588
0.51023
0.505806
0.502223
0.499317
0.496881
0.494851
0.493105
0.491633
0.490335
0.489228
0.48823
0.487376
0.486591
0.485914
0.485284
0.484747
0.484236
0.483799
0.483379
0.483027
0.482681
0.482384
0.482099
0.481867
0.481631
0.481435
0.481239
0.481089
0.480919
0.480785
0.48065
0.480547
0.480443
0.480372
0.480273
0.480203
0.480141
0.4801
0.480022
0.479987
0.479963
0.479935
0.479858
0.479897
0.479897
0.479895
0.479919
0.479918
0.479989
0.480112
0.480176
0.480335
0.480361
0.480361
0.480444
0.480545
0.480711
0.480877
0.480984
0.481094
0.48127
0.481435
0.481604
0.48182
0.482004
0.48222
0.482414
0.48266
0.482863
0.483187
0.483405
0.483791
0.484042
0.484494
0.48477
0.485314
0.485627
0.486285
0.486666
0.48747
0.487945
0.488985
0.48955
0.49132
0.491748
0.499506
3.06883
523.043
0.754827
0.653536
0.598541
0.566581
0.546293
0.532513
0.522617
0.515264
0.509589
0.505145
0.501545
0.498626
0.496177
0.494138
0.492384
0.490905
0.4896
0.488488
0.487486
0.486627
0.485838
0.485158
0.484525
0.483985
0.483471
0.483032
0.48261
0.482256
0.481908
0.48161
0.481324
0.48109
0.480852
0.480655
0.480458
0.480307
0.480136
0.480002
0.479866
0.479762
0.479657
0.479585
0.479486
0.479415
0.479352
0.479311
0.479233
0.479197
0.479173
0.479144
0.479068
0.479106
0.479106
0.479103
0.479126
0.479125
0.479196
0.479319
0.479382
0.479541
0.479566
0.479566
0.479649
0.47975
0.479915
0.480081
0.480189
0.480298
0.480474
0.480639
0.480807
0.481022
0.481207
0.481422
0.481616
0.481862
0.482064
0.482388
0.482605
0.482991
0.483241
0.483693
0.483968
0.484511
0.484824
0.48548
0.48586
0.486662
0.487136
0.488173
0.488736
0.490504
0.490922
0.49879
3.11578
522.434
0.754833
0.653375
0.598211
0.566123
0.545744
0.531898
0.521952
0.514562
0.508858
0.50439
0.500771
0.497836
0.495374
0.493324
0.491561
0.490073
0.488761
0.487643
0.486635
0.485771
0.484978
0.484294
0.483658
0.483114
0.482598
0.482156
0.481731
0.481376
0.481026
0.480726
0.480437
0.480202
0.479963
0.479765
0.479566
0.479414
0.479242
0.479106
0.478969
0.478865
0.478759
0.478687
0.478586
0.478515
0.478451
0.47841
0.478332
0.478295
0.47827
0.478242
0.478164
0.478201
0.478201
0.478198
0.478221
0.478219
0.47829
0.478412
0.478474
0.478633
0.478658
0.478658
0.478742
0.478842
0.479006
0.479172
0.47928
0.47939
0.479564
0.479729
0.479896
0.480112
0.480295
0.480511
0.480704
0.48095
0.481152
0.481475
0.481691
0.482077
0.482327
0.482777
0.483051
0.483593
0.483905
0.48456
0.484939
0.485739
0.486212
0.487246
0.487806
0.489571
0.489979
0.497973
3.17044
522.361
0.75484
0.653196
0.59784
0.565609
0.545127
0.531206
0.521205
0.513772
0.508034
0.50354
0.499899
0.496947
0.49447
0.492408
0.490633
0.489137
0.487817
0.486691
0.485677
0.484808
0.48401
0.483321
0.482681
0.482134
0.481615
0.481169
0.480742
0.480384
0.480032
0.47973
0.479439
0.479202
0.478961
0.478762
0.478562
0.478408
0.478235
0.478098
0.47796
0.477855
0.477747
0.477675
0.477574
0.477501
0.477437
0.477395
0.477316
0.477279
0.477254
0.477225
0.477147
0.477182
0.477182
0.477179
0.477201
0.477199
0.47727
0.477391
0.477452
0.47761
0.477636
0.477636
0.477719
0.477819
0.477982
0.478148
0.478256
0.478366
0.478539
0.478704
0.478871
0.479086
0.479269
0.479484
0.479677
0.479923
0.480124
0.480446
0.480662
0.481047
0.481296
0.481746
0.482019
0.48256
0.482871
0.483524
0.483902
0.484699
0.48517
0.486201
0.486759
0.48852
0.488917
0.497055
3.23314
522.7
0.754849
0.652999
0.59743
0.565038
0.544441
0.530437
0.520373
0.512894
0.507119
0.502594
0.49893
0.495957
0.493464
0.491388
0.489601
0.488094
0.486765
0.485632
0.484611
0.483735
0.482932
0.482238
0.481594
0.481043
0.480519
0.480071
0.479641
0.47928
0.478925
0.478621
0.478328
0.478089
0.477846
0.477645
0.477443
0.477288
0.477113
0.476976
0.476836
0.47673
0.476621
0.476548
0.476446
0.476373
0.476307
0.476265
0.476186
0.476148
0.476122
0.476092
0.476014
0.476048
0.476048
0.476045
0.476066
0.476063
0.476133
0.476254
0.476314
0.476471
0.476498
0.476498
0.476581
0.47668
0.476842
0.477007
0.477116
0.477226
0.477398
0.477563
0.477729
0.477943
0.478126
0.478342
0.478534
0.478779
0.478979
0.479301
0.479516
0.479901
0.480148
0.480597
0.48087
0.481409
0.48172
0.48237
0.482747
0.483541
0.484011
0.485038
0.485593
0.487349
0.487735
0.496034
3.3042
523.314
0.754859
0.652783
0.596981
0.564411
0.543686
0.52959
0.519458
0.511925
0.506109
0.501552
0.497861
0.494866
0.492355
0.490263
0.488463
0.486945
0.485606
0.484464
0.483435
0.482553
0.481743
0.481044
0.480394
0.479839
0.479312
0.478859
0.478426
0.478062
0.477704
0.477397
0.477102
0.476861
0.476616
0.476413
0.476209
0.476052
0.475876
0.475737
0.475596
0.475489
0.475379
0.475304
0.475202
0.475128
0.475061
0.475018
0.474939
0.4749
0.474873
0.474843
0.474764
0.474797
0.474797
0.474793
0.474813
0.47481
0.47488
0.475
0.475058
0.475215
0.475242
0.475241
0.475325
0.475423
0.475584
0.475749
0.475858
0.475968
0.476139
0.476304
0.476469
0.476683
0.476865
0.47708
0.477272
0.477517
0.477716
0.478038
0.478252
0.478635
0.478882
0.47933
0.479601
0.48014
0.480449
0.481097
0.481473
0.482264
0.482731
0.483755
0.484306
0.486058
0.48643
0.49491
3.38388
524.057
0.75487
0.652549
0.596491
0.563727
0.542863
0.528665
0.518457
0.510867
0.505006
0.500412
0.496692
0.493673
0.491141
0.489032
0.487218
0.485687
0.484337
0.483185
0.482148
0.481258
0.480441
0.479737
0.479082
0.478522
0.47799
0.477533
0.477096
0.476729
0.476368
0.476058
0.47576
0.475516
0.475269
0.475064
0.474859
0.4747
0.474522
0.474382
0.474239
0.47413
0.474019
0.473943
0.47384
0.473765
0.473697
0.473653
0.473573
0.473534
0.473506
0.473476
0.473396
0.473427
0.473427
0.473423
0.473442
0.473439
0.473507
0.473626
0.473683
0.473839
0.473866
0.473866
0.47395
0.474048
0.474207
0.474372
0.474481
0.474591
0.474761
0.474926
0.47509
0.475303
0.475485
0.4757
0.475891
0.476136
0.476334
0.476654
0.476868
0.47725
0.477496
0.477943
0.478213
0.478749
0.479057
0.479703
0.480077
0.480865
0.48133
0.482349
0.482897
0.484645
0.485003
0.493681
3.47233
524.784
0.754883
0.652298
0.595962
0.562986
0.54197
0.527662
0.517371
0.509718
0.503807
0.499174
0.495421
0.492376
0.489823
0.487695
0.485864
0.484319
0.482957
0.481796
0.480749
0.479851
0.479027
0.478316
0.477655
0.477089
0.476552
0.476092
0.47565
0.475279
0.474915
0.474602
0.474301
0.474055
0.473805
0.473598
0.47339
0.473229
0.47305
0.472908
0.472764
0.472653
0.472541
0.472463
0.472359
0.472283
0.472214
0.472169
0.472089
0.472048
0.472019
0.471989
0.471908
0.471938
0.471937
0.471933
0.471951
0.471947
0.472015
0.472133
0.472188
0.472343
0.472371
0.472371
0.472454
0.472552
0.47271
0.472874
0.472984
0.473093
0.473262
0.473426
0.47359
0.473802
0.473984
0.474198
0.474388
0.474633
0.47483
0.47515
0.475362
0.475743
0.475988
0.476434
0.476703
0.477238
0.477544
0.478187
0.47856
0.479344
0.479807
0.480821
0.481365
0.483108
0.48345
0.492346
3.56966
525.354
0.754897
0.652029
0.595394
0.562189
0.541008
0.52658
0.516199
0.508477
0.502513
0.497837
0.494049
0.490975
0.488398
0.486249
0.484402
0.482842
0.481467
0.480293
0.479237
0.47833
0.477498
0.47678
0.476112
0.475541
0.474999
0.474533
0.474088
0.473712
0.473345
0.473028
0.472724
0.472475
0.472222
0.472012
0.471802
0.47164
0.471458
0.471314
0.471168
0.471056
0.470942
0.470863
0.470758
0.47068
0.47061
0.470565
0.470483
0.470442
0.470412
0.470381
0.470299
0.470327
0.470327
0.470322
0.470339
0.470334
0.470401
0.470518
0.470572
0.470726
0.470754
0.470754
0.470837
0.470934
0.47109
0.471254
0.471365
0.471474
0.471641
0.471805
0.471968
0.47218
0.47236
0.472575
0.472764
0.473008
0.473204
0.473523
0.473734
0.474114
0.474357
0.474802
0.475069
0.475603
0.475908
0.476548
0.476919
0.477699
0.478159
0.479168
0.479708
0.481446
0.481772
0.490904
3.67582
525.638
0.754914
0.651743
0.594787
0.561336
0.539977
0.525418
0.514941
0.507145
0.501122
0.4964
0.492575
0.48947
0.486866
0.484696
0.482829
0.481253
0.479864
0.478678
0.47761
0.476694
0.475853
0.475128
0.474453
0.473876
0.473328
0.472857
0.472407
0.472027
0.471655
0.471336
0.471028
0.470775
0.47052
0.470307
0.470094
0.469929
0.469746
0.4696
0.469452
0.469338
0.469222
0.469142
0.469035
0.468957
0.468885
0.468839
0.468756
0.468714
0.468683
0.468651
0.468569
0.468595
0.468594
0.468589
0.468604
0.468599
0.468666
0.468781
0.468833
0.468986
0.469015
0.469015
0.469098
0.469194
0.469348
0.469512
0.469623
0.469731
0.469897
0.470061
0.470222
0.470434
0.470614
0.470828
0.471015
0.47126
0.471454
0.471772
0.471982
0.472361
0.472603
0.473046
0.473312
0.473843
0.474147
0.474784
0.475153
0.475929
0.476387
0.47739
0.477925
0.479658
0.479966
0.489352
3.79065
525.517
0.754933
0.651441
0.594142
0.560427
0.538876
0.524178
0.513597
0.50572
0.499635
0.494863
0.490997
0.487858
0.485226
0.483033
0.481146
0.479552
0.478148
0.476949
0.475869
0.474943
0.474093
0.473359
0.472677
0.472092
0.471538
0.471062
0.470606
0.470222
0.469846
0.469523
0.469211
0.468955
0.468696
0.468481
0.468265
0.468098
0.467912
0.467764
0.467614
0.467498
0.46738
0.467299
0.46719
0.467111
0.467037
0.46699
0.466907
0.466863
0.466831
0.466799
0.466715
0.466739
0.466739
0.466732
0.466747
0.46674
0.466806
0.466921
0.46697
0.467122
0.467151
0.467151
0.467234
0.467329
0.467482
0.467645
0.467756
0.467865
0.468029
0.468193
0.468353
0.468563
0.468742
0.468956
0.469143
0.469387
0.46958
0.469897
0.470106
0.470483
0.470723
0.471165
0.47143
0.471958
0.472261
0.472894
0.473261
0.474033
0.474488
0.475485
0.476015
0.477742
0.478033
0.487691
3.91383
524.89
0.754953
0.651122
0.593459
0.559461
0.537706
0.522858
0.512165
0.504203
0.498051
0.493225
0.489315
0.48614
0.483479
0.481259
0.479351
0.477739
0.476318
0.475105
0.474013
0.473075
0.472215
0.471472
0.470782
0.47019
0.46963
0.469148
0.468686
0.468297
0.467916
0.467589
0.467273
0.467013
0.466751
0.466533
0.466314
0.466144
0.465956
0.465805
0.465653
0.465536
0.465415
0.465332
0.465222
0.465141
0.465066
0.465017
0.464933
0.464888
0.464855
0.464822
0.464738
0.464759
0.464759
0.464752
0.464765
0.464757
0.464822
0.464935
0.464983
0.465134
0.465163
0.465163
0.465246
0.46534
0.465491
0.465654
0.465765
0.465874
0.466036
0.4662
0.466358
0.466568
0.466746
0.466959
0.467145
0.467389
0.46758
0.467896
0.468103
0.468479
0.468718
0.469158
0.469421
0.469947
0.470248
0.470878
0.471243
0.47201
0.472461
0.473452
0.473977
0.475698
0.47597
0.485916
4.04486
523.662
0.754977
0.650789
0.592739
0.558441
0.536467
0.52146
0.510647
0.502593
0.496369
0.491486
0.487529
0.484316
0.481622
0.479376
0.477444
0.475812
0.474373
0.473145
0.472039
0.47109
0.470219
0.469467
0.468768
0.468169
0.467601
0.467113
0.466645
0.466251
0.465865
0.465533
0.465213
0.464949
0.464684
0.464462
0.46424
0.464067
0.463876
0.463723
0.463569
0.463449
0.463326
0.463241
0.46313
0.463047
0.46297
0.462921
0.462836
0.462789
0.462754
0.462721
0.462636
0.462655
0.462654
0.462646
0.462658
0.462649
0.462713
0.462825
0.46287
0.46302
0.463049
0.463049
0.463132
0.463225
0.463374
0.463536
0.463648
0.463756
0.463917
0.46408
0.464237
0.464446
0.464623
0.464836
0.46502
0.465264
0.465453
0.465768
0.465974
0.466348
0.466585
0.467024
0.467285
0.467809
0.468108
0.468733
0.469096
0.469858
0.470306
0.471291
0.47181
0.473525
0.473777
0.484028
4.18302
521.764
0.755002
0.650441
0.591982
0.557366
0.535159
0.519982
0.509042
0.500891
0.49459
0.489645
0.485639
0.482385
0.479656
0.477381
0.475424
0.473771
0.472314
0.471069
0.469949
0.468987
0.468105
0.467343
0.466635
0.466027
0.465452
0.464957
0.464483
0.464083
0.463692
0.463355
0.46303
0.462762
0.462493
0.462268
0.462042
0.461866
0.461673
0.461517
0.46136
0.461238
0.461113
0.461026
0.460913
0.460828
0.46075
0.460698
0.460612
0.460565
0.460528
0.460494
0.460408
0.460425
0.460424
0.460415
0.460425
0.460414
0.460478
0.460588
0.46063
0.460779
0.460809
0.460809
0.460892
0.460984
0.461131
0.461292
0.461404
0.461512
0.461671
0.461833
0.461989
0.462197
0.462373
0.462585
0.462768
0.463012
0.463199
0.463513
0.463717
0.46409
0.464325
0.464762
0.465021
0.465541
0.465839
0.46646
0.466821
0.467578
0.468022
0.469
0.469514
0.471221
0.471453
0.482024
4.32737
519.138
0.75503
0.650078
0.59119
0.556236
0.533784
0.518426
0.507351
0.499096
0.492713
0.487703
0.483644
0.480346
0.477581
0.475275
0.473292
0.471616
0.470139
0.468877
0.467742
0.466766
0.465872
0.465099
0.464381
0.463765
0.463181
0.462679
0.462199
0.461792
0.461396
0.461054
0.460724
0.460452
0.460178
0.459949
0.45972
0.459541
0.459344
0.459186
0.459026
0.458902
0.458774
0.458685
0.45857
0.458484
0.458403
0.45835
0.458263
0.458214
0.458175
0.458141
0.458054
0.458068
0.458067
0.458058
0.458066
0.458053
0.458116
0.458224
0.458264
0.458411
0.458442
0.458442
0.458524
0.458615
0.45876
0.45892
0.459032
0.45914
0.459297
0.459459
0.459613
0.45982
0.459995
0.460207
0.460388
0.460631
0.460817
0.461129
0.461331
0.461702
0.461935
0.46237
0.462627
0.463145
0.463441
0.464058
0.464416
0.465167
0.465608
0.466578
0.467086
0.468787
0.468997
0.4799
4.4767
515.74
0.755062
0.649702
0.590363
0.555054
0.532341
0.516792
0.505573
0.497208
0.490738
0.48566
0.481544
0.4782
0.475396
0.473058
0.471046
0.469346
0.467848
0.466568
0.465417
0.464427
0.46352
0.462735
0.462007
0.461381
0.460789
0.46028
0.459792
0.459379
0.458976
0.458629
0.458294
0.458017
0.457739
0.457506
0.457273
0.45709
0.456891
0.45673
0.456567
0.45644
0.456309
0.456218
0.456101
0.456013
0.45593
0.455876
0.455788
0.455737
0.455696
0.455661
0.455574
0.455585
0.455584
0.455573
0.455579
0.455565
0.455627
0.455732
0.45577
0.455916
0.455946
0.455946
0.456029
0.456119
0.456261
0.45642
0.456533
0.456641
0.456795
0.456957
0.457109
0.457314
0.457488
0.457699
0.457879
0.458122
0.458305
0.458617
0.458817
0.459186
0.459417
0.45985
0.460105
0.460619
0.460913
0.461525
0.461881
0.462626
0.463063
0.464026
0.464527
0.46622
0.46641
0.477656
4.62955
511.538
0.755096
0.649314
0.589502
0.553819
0.530831
0.51508
0.503709
0.495227
0.488667
0.483515
0.47934
0.475947
0.473102
0.470729
0.468688
0.466962
0.465442
0.464142
0.462973
0.461968
0.461048
0.460251
0.459512
0.458876
0.458275
0.457758
0.457262
0.456842
0.456434
0.456081
0.45574
0.455458
0.455175
0.454939
0.454701
0.454515
0.454312
0.454148
0.453982
0.453852
0.453719
0.453625
0.453506
0.453416
0.45333
0.453275
0.453185
0.453132
0.45309
0.453054
0.452966
0.452975
0.452973
0.452961
0.452965
0.452949
0.45301
0.453113
0.453148
0.453292
0.453323
0.453323
0.453405
0.453494
0.453634
0.453791
0.453904
0.454012
0.454164
0.454325
0.454476
0.45468
0.454852
0.455063
0.455241
0.455484
0.455665
0.455974
0.456173
0.45654
0.456769
0.457199
0.457452
0.457963
0.458255
0.458862
0.459215
0.459954
0.460387
0.461342
0.461837
0.463521
0.46369
0.475287
4.78414
506.511
0.755133
0.648914
0.588608
0.552532
0.529255
0.513291
0.50176
0.493155
0.486498
0.481269
0.477031
0.473586
0.470698
0.468288
0.466215
0.464463
0.462919
0.461599
0.460412
0.459391
0.458456
0.457647
0.456896
0.45625
0.455639
0.455113
0.45461
0.454183
0.453767
0.453408
0.453062
0.452775
0.452487
0.452246
0.452004
0.451813
0.451607
0.45144
0.45127
0.451137
0.451001
0.450905
0.450784
0.450692
0.450604
0.450546
0.450455
0.450401
0.450356
0.45032
0.450231
0.450237
0.450234
0.450221
0.450223
0.450205
0.450265
0.450365
0.450398
0.45054
0.450571
0.450571
0.450653
0.45074
0.450877
0.451034
0.451147
0.451255
0.451404
0.451565
0.451714
0.451916
0.452087
0.452297
0.452474
0.452715
0.452894
0.453202
0.453399
0.453764
0.45399
0.454418
0.454669
0.455176
0.455465
0.456068
0.456418
0.45715
0.457579
0.458525
0.459014
0.460689
0.460837
0.472792
4.93841
500.645
0.755173
0.648503
0.587682
0.551195
0.527615
0.511426
0.499727
0.490992
0.484233
0.478922
0.474618
0.471118
0.468184
0.465736
0.46363
0.461849
0.46028
0.458939
0.457733
0.456695
0.455745
0.454922
0.454159
0.453502
0.452881
0.452346
0.451834
0.451399
0.450977
0.450611
0.450259
0.449966
0.449673
0.449427
0.449181
0.448986
0.448776
0.448605
0.448432
0.448297
0.448157
0.448058
0.447935
0.44784
0.44775
0.44769
0.447598
0.447542
0.447495
0.447458
0.447368
0.447371
0.447367
0.447354
0.447354
0.447333
0.447392
0.447489
0.447519
0.447659
0.44769
0.44769
0.447772
0.447858
0.447992
0.448147
0.448261
0.448368
0.448515
0.448675
0.448822
0.449023
0.449192
0.449401
0.449576
0.449817
0.449994
0.4503
0.450495
0.450857
0.451081
0.451506
0.451755
0.452258
0.452545
0.453143
0.453489
0.454215
0.454639
0.455577
0.456058
0.457724
0.457851
0.470166
5.08998
493.933
0.755216
0.648082
0.586725
0.549809
0.52591
0.509486
0.497609
0.488738
0.481871
0.476475
0.472101
0.468543
0.465561
0.463072
0.460932
0.459121
0.457526
0.456162
0.454935
0.453879
0.452913
0.452077
0.4513
0.450632
0.450001
0.449456
0.448935
0.448493
0.448063
0.447691
0.447332
0.447033
0.446734
0.446484
0.446233
0.446034
0.445819
0.445645
0.445468
0.445329
0.445186
0.445084
0.444958
0.444862
0.444768
0.444707
0.444613
0.444555
0.444506
0.444468
0.444378
0.444378
0.444373
0.444358
0.444356
0.444332
0.44439
0.444484
0.444511
0.444649
0.44468
0.44468
0.444762
0.444846
0.444978
0.445132
0.445245
0.445352
0.445497
0.445656
0.4458
0.446
0.446167
0.446376
0.446548
0.446789
0.446963
0.447268
0.44746
0.44782
0.448041
0.448464
0.44871
0.449209
0.449494
0.450085
0.450429
0.451147
0.451567
0.452495
0.45297
0.454625
0.454731
0.467407
5.23619
486.37
0.755263
0.647652
0.58574
0.548375
0.524143
0.507472
0.495409
0.486394
0.479415
0.473928
0.46948
0.465862
0.46283
0.460298
0.458121
0.456278
0.454656
0.453268
0.45202
0.450946
0.449963
0.449111
0.448322
0.447641
0.446999
0.446444
0.445914
0.445463
0.445025
0.444646
0.44428
0.443975
0.443671
0.443415
0.443159
0.442955
0.442737
0.442559
0.442378
0.442236
0.442089
0.441984
0.441856
0.441757
0.44166
0.441597
0.441501
0.441441
0.441389
0.44135
0.44126
0.441256
0.44125
0.441235
0.44123
0.441203
0.44126
0.441351
0.441375
0.441511
0.441542
0.441542
0.441623
0.441706
0.441835
0.441987
0.4421
0.442207
0.442349
0.442507
0.442649
0.442847
0.443013
0.44322
0.443391
0.44363
0.443802
0.444105
0.444295
0.444652
0.444871
0.44529
0.445534
0.446029
0.446311
0.446897
0.447237
0.447948
0.448363
0.449282
0.449748
0.451392
0.451479
0.46451
5.37409
477.952
0.755314
0.647214
0.584727
0.546895
0.522315
0.505385
0.493127
0.483962
0.476864
0.471282
0.466758
0.463076
0.45999
0.457414
0.455198
0.453322
0.451671
0.450258
0.448988
0.447894
0.446894
0.446027
0.445222
0.444529
0.443875
0.44331
0.44277
0.44231
0.441864
0.441478
0.441104
0.440793
0.440483
0.440222
0.43996
0.439752
0.439529
0.439347
0.439162
0.439016
0.438866
0.438757
0.438626
0.438525
0.438425
0.43836
0.438262
0.438199
0.438145
0.438105
0.438014
0.438008
0.437999
0.437983
0.437976
0.437947
0.438002
0.43809
0.438111
0.438244
0.438275
0.438274
0.438355
0.438436
0.438562
0.438713
0.438826
0.438933
0.439071
0.439228
0.439369
0.439565
0.439729
0.439935
0.440103
0.440342
0.440512
0.440812
0.440999
0.441353
0.44157
0.441986
0.442227
0.442717
0.442996
0.443577
0.443913
0.444617
0.445027
0.445935
0.446394
0.448026
0.448093
0.461473
5.50049
468.675
0.755368
0.646768
0.583687
0.54537
0.520426
0.503227
0.490764
0.481441
0.47422
0.468539
0.463933
0.460185
0.457043
0.45442
0.452164
0.450253
0.448572
0.447133
0.445839
0.444725
0.443706
0.442822
0.442003
0.441297
0.440631
0.440054
0.439504
0.439035
0.43858
0.438186
0.437805
0.437488
0.437171
0.436904
0.436636
0.436423
0.436196
0.436009
0.43582
0.435671
0.435516
0.435405
0.43527
0.435166
0.435063
0.434996
0.434896
0.434831
0.434774
0.434733
0.434642
0.434632
0.434622
0.434604
0.434595
0.434562
0.434616
0.4347
0.434718
0.434849
0.434879
0.434879
0.434959
0.435039
0.435162
0.43531
0.435423
0.435529
0.435665
0.435821
0.435959
0.436153
0.436315
0.43652
0.436686
0.436924
0.437091
0.437389
0.437574
0.437925
0.438139
0.438551
0.438789
0.439275
0.439551
0.440125
0.440458
0.441153
0.441559
0.442457
0.442908
0.444527
0.444575
0.45829
5.61202
458.533
0.755426
0.646317
0.582623
0.543802
0.51848
0.500999
0.488322
0.478835
0.471483
0.465698
0.461008
0.45719
0.45399
0.451317
0.449019
0.447073
0.44536
0.443892
0.442575
0.441439
0.440401
0.4395
0.438665
0.437945
0.437266
0.436678
0.436117
0.435638
0.435174
0.434772
0.434384
0.434059
0.433735
0.433462
0.433189
0.43297
0.432738
0.432547
0.432354
0.4322
0.432042
0.431927
0.431789
0.431682
0.431576
0.431505
0.431404
0.431337
0.431277
0.431234
0.431142
0.431129
0.431117
0.431098
0.431087
0.431051
0.431103
0.431183
0.431198
0.431326
0.431356
0.431356
0.431435
0.431513
0.431633
0.431779
0.431891
0.431998
0.43213
0.432285
0.432421
0.432613
0.432772
0.432977
0.43314
0.433377
0.433541
0.433836
0.434019
0.434367
0.434577
0.434986
0.435222
0.435702
0.435976
0.436543
0.436872
0.437559
0.437959
0.438847
0.43929
0.440894
0.440924
0.454958
5.70517
447.518
0.755488
0.64586
0.581535
0.542193
0.516477
0.498702
0.485803
0.476143
0.468656
0.462763
0.457984
0.454093
0.450832
0.448108
0.445765
0.443781
0.442035
0.440538
0.439195
0.438037
0.436979
0.43606
0.435209
0.434474
0.433781
0.433181
0.432609
0.43212
0.431647
0.431237
0.43084
0.430507
0.430177
0.429898
0.429618
0.429394
0.429156
0.428961
0.428763
0.428605
0.428443
0.428324
0.428183
0.428073
0.427963
0.42789
0.427786
0.427717
0.427654
0.42761
0.427517
0.4275
0.427486
0.427466
0.427453
0.427413
0.427463
0.427539
0.427551
0.427676
0.427706
0.427705
0.427784
0.42786
0.427977
0.428121
0.428232
0.428339
0.428468
0.428621
0.428754
0.428944
0.429102
0.429304
0.429466
0.429701
0.429862
0.430155
0.430335
0.430679
0.430887
0.431292
0.431525
0.432
0.43227
0.432831
0.433156
0.433834
0.434229
0.435106
0.43554
0.437129
0.437143
0.451473
5.77641
435.623
0.755554
0.6454
0.580426
0.540545
0.51442
0.496339
0.483207
0.473368
0.46574
0.459733
0.454862
0.450894
0.44757
0.444792
0.442403
0.440379
0.438598
0.437072
0.435702
0.43452
0.433441
0.432504
0.431635
0.430885
0.430178
0.429566
0.428982
0.428482
0.427999
0.42758
0.427175
0.426835
0.426497
0.426211
0.425925
0.425695
0.425452
0.425252
0.425049
0.424887
0.42472
0.424597
0.424453
0.42434
0.424226
0.42415
0.424044
0.423972
0.423906
0.423861
0.423767
0.423746
0.42373
0.423708
0.423694
0.42365
0.423698
0.423769
0.423779
0.423901
0.423929
0.423929
0.424007
0.42408
0.424194
0.424335
0.424446
0.424552
0.424678
0.42483
0.424961
0.425149
0.425303
0.425505
0.425663
0.425897
0.426056
0.426345
0.426523
0.426863
0.427068
0.427469
0.427699
0.428168
0.428435
0.428989
0.42931
0.42998
0.430368
0.431234
0.43166
0.433232
0.43323
0.44783
5.82223
422.838
0.755624
0.644937
0.579298
0.538859
0.512311
0.493911
0.480538
0.470512
0.462736
0.456611
0.451643
0.447596
0.444205
0.441371
0.438934
0.436868
0.435052
0.433494
0.432096
0.43089
0.429788
0.428832
0.427946
0.427179
0.426458
0.425833
0.425237
0.424726
0.424232
0.423804
0.42339
0.423042
0.422696
0.422404
0.422111
0.421875
0.421626
0.421421
0.421213
0.421047
0.420874
0.420748
0.4206
0.420484
0.420366
0.420287
0.420178
0.420103
0.420034
0.419987
0.419892
0.419868
0.41985
0.419826
0.41981
0.419762
0.419809
0.419874
0.419881
0.42
0.420027
0.420027
0.420104
0.420175
0.420286
0.420424
0.420535
0.42064
0.420763
0.420913
0.421041
0.421226
0.421378
0.421578
0.421734
0.421966
0.422122
0.422409
0.422583
0.42292
0.423122
0.423518
0.423745
0.424208
0.424472
0.425019
0.425335
0.425996
0.426379
0.427233
0.427651
0.429204
0.429188
0.444026
5.83936
409.158
0.755698
0.644473
0.578152
0.537138
0.510151
0.491421
0.477797
0.467576
0.459646
0.453398
0.44833
0.4442
0.440739
0.437846
0.43536
0.433251
0.431397
0.429806
0.42838
0.427147
0.426023
0.425046
0.424142
0.423359