/*--------------------------------*- C++ -*----------------------------------*\
| =========                 |                                                 |
| \\      /  F ield         | OpenFOAM: The Open Source CFD Toolbox           |
|  \\    /   O peration     | Version:  v2012                                 |
|   \\  /    A nd           | Website:  www.openfoam.com                      |
|    \\/     M anipulation  |                                                 |
\*---------------------------------------------------------------------------*/
FoamFile
{
    version     2.0;
    format      ascii;
    class       volScalarField;
    location    "25.5";
    object      k;
}
// * * * * * * * * * * * * * * * * * * * * * * * * * * * * * * * * * * * * * //

dimensions      [0 2 -2 0 0 0 0];


internalField   nonuniform List<scalar> 
209825
(
0.00102306
0.000928562
0.000857622
0.000806257
0.000768587
0.000740301
0.000718296
0.000700854
0.000686585
0.000674847
0.000664897
0.000656503
0.000649207
0.000642942
0.000637375
0.000632555
0.000628196
0.000624398
0.000620906
0.00061785
0.000615001
0.000612504
0.000610139
0.000608075
0.000606098
0.000604376
0.000602702
0.000601248
0.000599839
0.000598601
0.000597382
0.00059634
0.000595302
0.000594417
0.000593526
0.000592764
0.000591979
0.000591324
0.000590643
0.000590079
0.000589494
0.000589008
0.000588492
0.000588069
0.000587619
0.00058726
0.000586862
0.000586565
0.000586223
0.000585961
0.000585674
0.000585461
0.000585199
0.000585017
0.000584814
0.000584665
0.000584483
0.00058437
0.000584237
0.000584119
0.000584008
0.000583941
0.000583801
0.000583729
0.000583692
0.000583658
0.00058357
0.000583657
0.000583672
0.000583791
0.000583897
0.000584084
0.000584181
0.000584375
0.00058447
0.000584689
0.000584812
0.000585089
0.000585254
0.000585609
0.000585807
0.000586215
0.000586444
0.00058692
0.000587193
0.000587767
0.000588101
0.000588803
0.000589202
0.000590077
0.000590526
0.000591903
0.00059219
0.000598922
0.0100558
0.0108909
0.00102306
0.000928562
0.000857621
0.000806253
0.000768581
0.000740292
0.000718285
0.000700842
0.000686571
0.000674831
0.000664881
0.000656486
0.000649189
0.000642923
0.000637355
0.000632535
0.000628175
0.000624376
0.000620884
0.000617828
0.000614979
0.000612481
0.000610116
0.000608051
0.000606075
0.000604352
0.000602678
0.000601224
0.000599814
0.000598577
0.000597357
0.000596315
0.000595277
0.000594391
0.000593501
0.000592738
0.000591953
0.000591298
0.000590617
0.000590053
0.000589467
0.000588982
0.000588466
0.000588042
0.000587592
0.000587234
0.000586836
0.000586538
0.000586196
0.000585934
0.000585647
0.000585434
0.000585172
0.00058499
0.000584787
0.000584638
0.000584456
0.000584343
0.00058421
0.000584092
0.000583981
0.000583914
0.000583773
0.000583702
0.000583664
0.00058363
0.000583543
0.00058363
0.000583645
0.000583764
0.000583869
0.000584056
0.000584154
0.000584348
0.000584442
0.000584662
0.000584785
0.000585061
0.000585227
0.000585581
0.000585779
0.000586188
0.000586416
0.000586893
0.000587165
0.000587739
0.000588073
0.000588775
0.000589174
0.000590049
0.000590498
0.000591876
0.000592162
0.000598904
0.0100644
0.0109019
0.00102306
0.000928563
0.000857613
0.000806233
0.000768549
0.000740251
0.000718235
0.000700785
0.000686508
0.000674764
0.000664809
0.00065641
0.00064911
0.000642841
0.000637271
0.000632448
0.000628086
0.000624286
0.000620792
0.000617734
0.000614884
0.000612386
0.000610019
0.000607953
0.000605976
0.000604252
0.000602578
0.000601123
0.000599712
0.000598474
0.000597254
0.000596211
0.000595173
0.000594286
0.000593395
0.000592632
0.000591847
0.000591191
0.00059051
0.000589946
0.00058936
0.000588874
0.000588358
0.000587934
0.000587483
0.000587125
0.000586727
0.000586429
0.000586086
0.000585824
0.000585537
0.000585324
0.000585061
0.00058488
0.000584676
0.000584527
0.000584345
0.000584232
0.000584099
0.000583981
0.000583869
0.000583803
0.000583662
0.00058359
0.000583553
0.000583519
0.000583431
0.000583517
0.000583532
0.000583651
0.000583757
0.000583943
0.000584041
0.000584235
0.000584329
0.000584549
0.000584672
0.000584947
0.000585113
0.000585467
0.000585665
0.000586074
0.000586302
0.000586778
0.000587051
0.000587624
0.000587958
0.00058866
0.000589058
0.000589933
0.000590382
0.000591759
0.000592044
0.000598806
0.0100821
0.0109237
0.00102306
0.000928565
0.000857599
0.0008062
0.000768496
0.000740181
0.000718151
0.000700689
0.000686402
0.000674649
0.000664687
0.000656282
0.000648977
0.000642704
0.000637129
0.000632303
0.000627937
0.000624134
0.000620637
0.000617577
0.000614725
0.000612224
0.000609855
0.000607788
0.000605809
0.000604084
0.000602408
0.000600952
0.00059954
0.000598301
0.00059708
0.000596036
0.000594997
0.00059411
0.000593218
0.000592455
0.000591668
0.000591012
0.00059033
0.000589766
0.000589179
0.000588693
0.000588176
0.000587751
0.000587301
0.000586941
0.000586543
0.000586245
0.000585902
0.00058564
0.000585352
0.000585139
0.000584876
0.000584694
0.00058449
0.000584341
0.000584159
0.000584046
0.000583912
0.000583794
0.000583682
0.000583615
0.000583475
0.000583403
0.000583365
0.000583331
0.000583242
0.000583329
0.000583343
0.000583462
0.000583567
0.000583753
0.000583851
0.000584044
0.000584139
0.000584358
0.000584481
0.000584756
0.000584922
0.000585276
0.000585474
0.000585881
0.000586109
0.000586586
0.000586858
0.000587431
0.000587764
0.000588466
0.000588864
0.000589738
0.000590186
0.000591563
0.000591845
0.000598639
0.0101095
0.0109573
0.00102307
0.000928567
0.000857579
0.000806152
0.000768421
0.000740082
0.000718033
0.000700554
0.000686253
0.000674488
0.000664516
0.000656102
0.000648789
0.000642509
0.000636929
0.000632097
0.000627727
0.000623919
0.000620419
0.000617355
0.0006145
0.000611996
0.000609625
0.000607555
0.000605574
0.000603847
0.000602169
0.000600711
0.000599298
0.000598057
0.000596835
0.000595789
0.000594749
0.000593861
0.000592968
0.000592203
0.000591416
0.000590759
0.000590077
0.000589511
0.000588923
0.000588437
0.000587919
0.000587494
0.000587042
0.000586683
0.000586284
0.000585985
0.000585642
0.000585379
0.000585091
0.000584877
0.000584614
0.000584432
0.000584227
0.000584078
0.000583895
0.000583782
0.000583648
0.00058353
0.000583418
0.000583351
0.00058321
0.000583138
0.0005831
0.000583065
0.000582977
0.000583062
0.000583076
0.000583195
0.000583299
0.000583486
0.000583583
0.000583776
0.00058387
0.000584089
0.000584212
0.000584487
0.000584652
0.000585006
0.000585203
0.00058561
0.000585838
0.000586314
0.000586586
0.000587158
0.000587491
0.000588191
0.000588589
0.000589463
0.00058991
0.000591286
0.000591565
0.000598402
0.0101475
0.0110035
0.00102307
0.000928569
0.000857554
0.00080609
0.000768324
0.000739954
0.000717879
0.000700379
0.000686059
0.000674279
0.000664294
0.000655869
0.000648545
0.000642257
0.000636669
0.00063183
0.000627454
0.000623641
0.000620136
0.000617068
0.000614208
0.000611701
0.000609327
0.000607254
0.00060527
0.00060354
0.00060186
0.0006004
0.000598984
0.000597741
0.000596517
0.00059547
0.000594428
0.000593538
0.000592644
0.000591878
0.000591089
0.000590431
0.000589748
0.000589181
0.000588592
0.000588105
0.000587586
0.00058716
0.000586708
0.000586348
0.000585948
0.000585649
0.000585305
0.000585041
0.000584753
0.000584539
0.000584275
0.000584092
0.000583887
0.000583737
0.000583554
0.000583441
0.000583306
0.000583188
0.000583075
0.000583008
0.000582867
0.000582795
0.000582756
0.000582722
0.000582632
0.000582717
0.00058273
0.000582849
0.000582953
0.000583138
0.000583235
0.000583428
0.000583522
0.000583741
0.000583863
0.000584137
0.000584302
0.000584655
0.000584852
0.000585259
0.000585486
0.000585961
0.000586233
0.000586805
0.000587137
0.000587836
0.000588233
0.000589105
0.000589552
0.000590927
0.000591202
0.000598095
0.0101968
0.0110631
0.00102308
0.000928572
0.000857523
0.000806014
0.000768204
0.000739797
0.00071769
0.000700163
0.000685821
0.000674022
0.00066402
0.000655581
0.000648246
0.000641947
0.000636349
0.000631502
0.000627118
0.000623299
0.000619787
0.000616714
0.000613849
0.000611338
0.000608959
0.000606882
0.000604894
0.000603161
0.000601478
0.000600015
0.000598597
0.000597352
0.000596125
0.000595076
0.000594032
0.00059314
0.000592244
0.000591477
0.000590687
0.000590027
0.000589342
0.000588774
0.000588184
0.000587696
0.000587176
0.000586749
0.000586296
0.000585935
0.000585534
0.000585234
0.000584889
0.000584625
0.000584336
0.000584121
0.000583857
0.000583673
0.000583468
0.000583317
0.000583134
0.00058302
0.000582885
0.000582766
0.000582653
0.000582586
0.000582445
0.000582372
0.000582333
0.000582298
0.000582208
0.000582292
0.000582304
0.000582422
0.000582525
0.000582711
0.000582807
0.000582999
0.000583093
0.000583311
0.000583433
0.000583707
0.000583871
0.000584223
0.00058442
0.000584826
0.000585053
0.000585527
0.000585798
0.000586369
0.0005867
0.000587398
0.000587795
0.000588665
0.000589111
0.000590484
0.000590754
0.000597716
0.0102581
0.0111367
0.00102309
0.000928576
0.000857486
0.000805924
0.000768062
0.00073961
0.000717465
0.000699906
0.000685538
0.000673716
0.000663695
0.000655239
0.000647889
0.000641577
0.000635968
0.000631111
0.000626718
0.000622891
0.000619372
0.000616292
0.000613421
0.000610904
0.000608521
0.000606439
0.000604447
0.00060271
0.000601024
0.000599557
0.000598136
0.000596888
0.000595659
0.000594607
0.000593561
0.000592667
0.000591769
0.000590999
0.000590207
0.000589546
0.000588859
0.00058829
0.000587698
0.000587208
0.000586687
0.00058626
0.000585805
0.000585443
0.000585041
0.00058474
0.000584394
0.000584129
0.000583839
0.000583624
0.000583358
0.000583174
0.000582968
0.000582817
0.000582633
0.000582518
0.000582383
0.000582264
0.00058215
0.000582083
0.000581942
0.000581868
0.000581828
0.000581793
0.000581702
0.000581784
0.000581796
0.000581914
0.000582016
0.0005822
0.000582296
0.000582488
0.000582582
0.000582799
0.000582921
0.000583194
0.000583357
0.000583708
0.000583905
0.00058431
0.000584536
0.000585009
0.00058528
0.000585849
0.00058618
0.000586876
0.000587272
0.00058814
0.000588584
0.000589957
0.000590221
0.000597266
0.010332
0.011225
0.0010231
0.000928581
0.000857444
0.000805819
0.000767898
0.000739394
0.000717204
0.000699608
0.000685209
0.000673361
0.000663317
0.000654841
0.000647474
0.000641148
0.000635525
0.000630657
0.000626254
0.000622417
0.000618889
0.000615802
0.000612924
0.000610401
0.000608011
0.000605924
0.000603927
0.000602186
0.000600495
0.000599025
0.0005976
0.000596349
0.000595116
0.000594061
0.000593012
0.000592115
0.000591215
0.000590443
0.000589649
0.000588986
0.000588297
0.000587726
0.000587133
0.000586641
0.000586119
0.000585689
0.000585233
0.00058487
0.000584467
0.000584165
0.000583818
0.000583552
0.000583261
0.000583044
0.000582778
0.000582594
0.000582386
0.000582235
0.00058205
0.000581934
0.000581798
0.000581679
0.000581564
0.000581497
0.000581356
0.000581282
0.000581241
0.000581205
0.000581113
0.000581194
0.000581205
0.000581322
0.000581423
0.000581607
0.000581702
0.000581894
0.000581987
0.000582203
0.000582324
0.000582596
0.000582759
0.000583109
0.000583305
0.000583709
0.000583935
0.000584407
0.000584676
0.000585244
0.000585574
0.000586269
0.000586663
0.00058753
0.000587972
0.000589343
0.0005896
0.000596742
0.010419
0.0113287
0.00102311
0.000928587
0.000857397
0.000805701
0.000767711
0.000739147
0.000716907
0.000699269
0.000684834
0.000672955
0.000662886
0.000654388
0.000647001
0.000640657
0.00063502
0.000630138
0.000625723
0.000621875
0.000618338
0.000615242
0.000612356
0.000609825
0.000607429
0.000605336
0.000603333
0.000601587
0.000599891
0.000598416
0.000596987
0.000595732
0.000594496
0.000593438
0.000592385
0.000591486
0.000590582
0.000589808
0.000589011
0.000588346
0.000587655
0.000587082
0.000586486
0.000585993
0.000585469
0.000585038
0.00058458
0.000584216
0.000583811
0.000583508
0.000583159
0.000582893
0.0005826
0.000582383
0.000582116
0.00058193
0.000581721
0.000581569
0.000581383
0.000581267
0.00058113
0.000581011
0.000580895
0.000580827
0.000580686
0.000580611
0.000580569
0.000580533
0.00058044
0.000580519
0.000580529
0.000580646
0.000580745
0.000580928
0.000581023
0.000581214
0.000581306
0.000581522
0.000581642
0.000581913
0.000582076
0.000582424
0.000582619
0.000583022
0.000583248
0.000583718
0.000583987
0.000584553
0.000584881
0.000585574
0.000585967
0.000586831
0.000587272
0.000588641
0.00058889
0.000596145
0.0105197
0.0114482
0.00102313
0.000928593
0.000857344
0.000805569
0.000767502
0.00073887
0.000716573
0.000698888
0.000684412
0.000672499
0.0006624
0.000653877
0.000646468
0.000640106
0.000634451
0.000629554
0.000625125
0.000621265
0.000617717
0.000614611
0.000611716
0.000609177
0.000606773
0.000604673
0.000602664
0.000600912
0.000599211
0.000597731
0.000596297
0.000595038
0.000593797
0.000592735
0.000591679
0.000590776
0.000589869
0.000589092
0.000588292
0.000587624
0.000586931
0.000586355
0.000585758
0.000585262
0.000584736
0.000584304
0.000583844
0.000583478
0.000583071
0.000582767
0.000582417
0.000582149
0.000581855
0.000581637
0.000581368
0.000581182
0.000580972
0.000580819
0.000580632
0.000580515
0.000580377
0.000580258
0.00058014
0.000580073
0.000579931
0.000579855
0.000579812
0.000579776
0.000579682
0.000579759
0.000579767
0.000579883
0.000579981
0.000580163
0.000580257
0.000580447
0.000580539
0.000580754
0.000580874
0.000581143
0.000581305
0.000581652
0.000581846
0.000582248
0.000582473
0.000582941
0.000583209
0.000583773
0.000584101
0.000584791
0.000585183
0.000586044
0.000586483
0.00058785
0.00058809
0.000595474
0.0106343
0.0115842
0.00102314
0.000928601
0.000857286
0.000805423
0.000767271
0.000738564
0.000716203
0.000698464
0.000683944
0.000671993
0.000661861
0.000653309
0.000645876
0.000639491
0.000633818
0.000628904
0.000624459
0.000620586
0.000617025
0.000613908
0.000611003
0.000608455
0.000606043
0.000603935
0.000601919
0.00060016
0.000598453
0.000596967
0.000595527
0.000594264
0.000593018
0.000591952
0.000590891
0.000589985
0.000589074
0.000588294
0.000587492
0.000586821
0.000586124
0.000585546
0.000584946
0.000584448
0.00058392
0.000583486
0.000583024
0.000582656
0.000582247
0.000581941
0.00058159
0.00058132
0.000581024
0.000580805
0.000580536
0.000580348
0.000580137
0.000579983
0.000579795
0.000579677
0.000579538
0.000579418
0.000579299
0.000579231
0.000579089
0.000579013
0.000578969
0.000578932
0.000578836
0.000578911
0.000578918
0.000579033
0.000579129
0.000579311
0.000579404
0.000579593
0.000579684
0.000579897
0.000580017
0.000580285
0.000580446
0.000580791
0.000580985
0.000581385
0.000581609
0.000582075
0.000582342
0.000582904
0.00058323
0.000583918
0.000584308
0.000585167
0.000585603
0.000586968
0.000587199
0.000594726
0.0107631
0.0117372
0.00102316
0.00092861
0.000857223
0.000805264
0.000767016
0.000738226
0.000715796
0.000697998
0.000683428
0.000671434
0.000661266
0.000652683
0.000645223
0.000638814
0.000633119
0.000628187
0.000623725
0.000619837
0.000616263
0.000613133
0.000610216
0.000607659
0.000605237
0.000603121
0.000601096
0.00059933
0.000597616
0.000596124
0.000594678
0.000593409
0.000592159
0.000591088
0.000590023
0.000589112
0.000588197
0.000587414
0.000586607
0.000585933
0.000585233
0.000584653
0.000584049
0.00058355
0.000583018
0.000582582
0.000582118
0.000581748
0.000581338
0.00058103
0.000580676
0.000580405
0.000580107
0.000579887
0.000579616
0.000579427
0.000579214
0.00057906
0.00057887
0.000578751
0.000578611
0.00057849
0.000578371
0.000578302
0.00057816
0.000578083
0.000578037
0.000577999
0.000577902
0.000577975
0.00057798
0.000578094
0.000578189
0.000578369
0.000578461
0.000578649
0.00057874
0.000578952
0.000579071
0.000579337
0.000579497
0.00057984
0.000580033
0.000580431
0.000580654
0.000581119
0.000581385
0.000581944
0.000582269
0.000582954
0.000583343
0.000584198
0.000584631
0.000585994
0.000586214
0.000593902
0.010906
0.0119075
0.00102318
0.00092862
0.000857156
0.000805091
0.00076674
0.000737859
0.000715352
0.000697489
0.000682864
0.000670824
0.000660616
0.000651999
0.000644508
0.000638073
0.000632355
0.000627402
0.000622922
0.000619017
0.000615427
0.000612284
0.000609355
0.000606786
0.000604354
0.000602229
0.000600195
0.000598421
0.000596699
0.000595201
0.000593748
0.000592474
0.000591217
0.000590141
0.000589071
0.000588155
0.000587236
0.000586449
0.000585638
0.000584961
0.000584258
0.000583674
0.000583067
0.000582565
0.000582031
0.000581592
0.000581125
0.000580753
0.00058034
0.00058003
0.000579675
0.000579403
0.000579103
0.000578881
0.000578608
0.000578417
0.000578203
0.000578048
0.000577857
0.000577736
0.000577595
0.000577474
0.000577353
0.000577284
0.000577141
0.000577063
0.000577015
0.000576978
0.000576879
0.000576948
0.000576952
0.000577065
0.000577158
0.000577337
0.000577427
0.000577615
0.000577704
0.000577915
0.000578033
0.000578298
0.000578457
0.000578798
0.00057899
0.000579386
0.000579608
0.000580071
0.000580335
0.000580892
0.000581215
0.000581897
0.000582284
0.000583135
0.000583566
0.000584926
0.000585134
0.000593001
0.0110628
0.0120955
0.0010232
0.000928631
0.000857083
0.000804905
0.000766441
0.000737462
0.00071487
0.000696937
0.000682253
0.000670162
0.000659911
0.000651256
0.000643732
0.000637268
0.000631525
0.000626549
0.000622048
0.000618125
0.000614519
0.000611361
0.000608419
0.000605838
0.000603394
0.000601258
0.000599215
0.000597432
0.000595702
0.000594196
0.000592736
0.000591455
0.000590193
0.000589111
0.000588035
0.000587114
0.00058619
0.000585399
0.000584584
0.000583902
0.000583195
0.000582608
0.000581998
0.000581493
0.000580955
0.000580514
0.000580044
0.00057967
0.000579255
0.000578943
0.000578585
0.000578311
0.000578009
0.000577785
0.000577511
0.000577319
0.000577103
0.000576946
0.000576754
0.000576631
0.000576489
0.000576367
0.000576244
0.000576175
0.000576032
0.000575952
0.000575903
0.000575865
0.000575764
0.000575831
0.000575833
0.000575945
0.000576035
0.000576213
0.000576302
0.000576489
0.000576577
0.000576786
0.000576904
0.000577166
0.000577324
0.000577663
0.000577854
0.000578248
0.000578469
0.000578929
0.000579192
0.000579746
0.000580068
0.000580746
0.000581131
0.000581978
0.000582406
0.000583763
0.000583959
0.00059202
0.011233
0.0123015
0.00102322
0.000928644
0.000857007
0.000804705
0.000766121
0.000737034
0.000714352
0.000696342
0.000681593
0.000669447
0.000659149
0.000650453
0.000642893
0.000636399
0.000630627
0.000625626
0.000621104
0.000617161
0.000613537
0.000610363
0.000607406
0.000604811
0.000602355
0.000600208
0.000598155
0.000596362
0.000594623
0.000593109
0.000591641
0.000590353
0.000589084
0.000587996
0.000586914
0.000585988
0.000585058
0.000584262
0.000583443
0.000582757
0.000582046
0.000581455
0.000580841
0.000580332
0.000579792
0.000579348
0.000578875
0.000578498
0.00057808
0.000577766
0.000577405
0.000577129
0.000576825
0.000576599
0.000576323
0.000576129
0.000575911
0.000575753
0.000575559
0.000575435
0.000575292
0.000575169
0.000575044
0.000574974
0.000574831
0.00057475
0.000574699
0.00057466
0.000574558
0.00057462
0.000574622
0.000574732
0.00057482
0.000574995
0.000575084
0.000575269
0.000575356
0.000575564
0.00057568
0.000575941
0.000576098
0.000576434
0.000576624
0.000577016
0.000577235
0.000577693
0.000577955
0.000578505
0.000578825
0.000579499
0.000579882
0.000580726
0.00058115
0.000582504
0.000582687
0.000590958
0.0114158
0.0125257
0.00102324
0.000928658
0.000856926
0.000804493
0.000765779
0.000736577
0.000713797
0.000695704
0.000680885
0.00066868
0.00065833
0.00064959
0.000641992
0.000635463
0.000629662
0.000624635
0.000620088
0.000616124
0.000612481
0.000609289
0.000606316
0.000603707
0.000601237
0.000599078
0.000597013
0.00059521
0.000593462
0.000591938
0.000590463
0.000589167
0.00058789
0.000586795
0.000585706
0.000584775
0.000583839
0.000583038
0.000582213
0.000581523
0.000580808
0.000580213
0.000579595
0.000579082
0.000578538
0.000578091
0.000577615
0.000577236
0.000576814
0.000576497
0.000576135
0.000575856
0.000575549
0.000575322
0.000575044
0.000574848
0.000574627
0.000574468
0.000574272
0.000574147
0.000574002
0.000573878
0.000573751
0.000573681
0.000573537
0.000573455
0.000573402
0.000573362
0.000573258
0.000573316
0.000573317
0.000573425
0.00057351
0.000573684
0.000573771
0.000573955
0.000574041
0.000574247
0.000574363
0.000574621
0.000574776
0.00057511
0.000575298
0.000575688
0.000575906
0.000576361
0.000576621
0.000577168
0.000577486
0.000578156
0.000578537
0.000579376
0.000579797
0.000581147
0.000581316
0.000589815
0.0116101
0.0127682
0.00102327
0.000928674
0.000856841
0.000804268
0.000765415
0.00073609
0.000713204
0.000695023
0.000680129
0.00066786
0.000657455
0.000648667
0.000641027
0.000634463
0.000628629
0.000623573
0.000619001
0.000615013
0.000611349
0.000608139
0.000605148
0.000602523
0.00060004
0.000597867
0.00059579
0.000593976
0.000592217
0.000590684
0.000589199
0.000587895
0.00058661
0.000585508
0.000584412
0.000583474
0.000582532
0.000581726
0.000580896
0.000580201
0.00057948
0.000578881
0.000578258
0.000577742
0.000577194
0.000576744
0.000576264
0.000575882
0.000575457
0.000575137
0.000574772
0.000574491
0.000574181
0.000573952
0.000573671
0.000573473
0.000573251
0.00057309
0.000572892
0.000572765
0.000572618
0.000572493
0.000572364
0.000572293
0.000572149
0.000572065
0.00057201
0.00057197
0.000571864
0.000571918
0.000571917
0.000572023
0.000572105
0.000572277
0.000572363
0.000572545
0.00057263
0.000572834
0.000572949
0.000573205
0.000573358
0.000573689
0.000573876
0.000574263
0.00057448
0.000574932
0.000575191
0.000575734
0.00057605
0.000576715
0.000577093
0.000577927
0.000578345
0.000579691
0.000579846
0.000588588
0.0118145
0.013029
0.00102329
0.000928691
0.000856753
0.000804032
0.00076503
0.000735573
0.000712575
0.000694299
0.000679324
0.000666986
0.000656523
0.000647684
0.000639999
0.000633395
0.000627527
0.00062244
0.00061784
0.000613828
0.000610142
0.000606911
0.000603902
0.00060126
0.000598761
0.000596575
0.000594484
0.000592658
0.000590888
0.000589344
0.000587849
0.000586537
0.000585243
0.000584133
0.00058303
0.000582085
0.000581136
0.000580324
0.000579488
0.000578788
0.000578062
0.000577458
0.00057683
0.00057631
0.000575758
0.000575304
0.00057482
0.000574435
0.000574007
0.000573684
0.000573315
0.000573032
0.000572719
0.000572488
0.000572205
0.000572005
0.000571779
0.000571617
0.000571417
0.000571288
0.000571139
0.000571013
0.000570882
0.00057081
0.000570665
0.000570581
0.000570523
0.000570482
0.000570374
0.000570423
0.00057042
0.000570525
0.000570603
0.000570774
0.000570858
0.000571039
0.000571122
0.000571325
0.000571437
0.000571691
0.000571843
0.00057217
0.000572356
0.000572741
0.000572956
0.000573405
0.000573661
0.000574201
0.000574514
0.000575175
0.000575551
0.00057638
0.000576793
0.000578135
0.000578275
0.000587276
0.0120269
0.0133077
0.00102332
0.000928711
0.000856661
0.000803783
0.000764624
0.000735027
0.000711909
0.000693532
0.000678471
0.00066606
0.000655533
0.00064664
0.000638907
0.000632262
0.000626356
0.000621236
0.000616607
0.000612568
0.000608858
0.000605605
0.000602576
0.000599917
0.000597401
0.000595199
0.000593095
0.000591256
0.000589474
0.000587919
0.000586413
0.000585092
0.000583789
0.00058267
0.000581559
0.000580607
0.000579651
0.000578832
0.00057799
0.000577284
0.000576552
0.000575943
0.00057531
0.000574786
0.000574229
0.000573772
0.000573283
0.000572895
0.000572463
0.000572137
0.000571765
0.000571479
0.000571162
0.000570929
0.000570643
0.000570441
0.000570213
0.000570048
0.000569846
0.000569715
0.000569564
0.000569438
0.000569304
0.000569231
0.000569085
0.000568999
0.000568939
0.000568897
0.000568787
0.000568832
0.000568827
0.00056893
0.000569004
0.000569173
0.000569255
0.000569434
0.000569516
0.000569716
0.000569828
0.000570079
0.000570229
0.000570553
0.000570738
0.000571119
0.000571333
0.000571778
0.000572033
0.000572568
0.000572879
0.000573535
0.000573907
0.000574731
0.00057514
0.000576478
0.000576602
0.000585877
0.0122452
0.013604
0.00102335
0.000928732
0.000856566
0.000803523
0.000764198
0.000734452
0.000711207
0.000692722
0.00067757
0.000665081
0.000654487
0.000645535
0.000637752
0.000631062
0.000625116
0.000619961
0.0006153
0.000611233
0.000607497
0.000604222
0.000601171
0.000598493
0.000595959
0.000593741
0.000591622
0.000589769
0.000587974
0.000586407
0.00058489
0.000583559
0.000582246
0.000581118
0.000579998
0.000579038
0.000578074
0.000577249
0.0005764
0.000575688
0.00057495
0.000574336
0.000573698
0.000573169
0.000572607
0.000572145
0.000571652
0.00057126
0.000570824
0.000570495
0.000570119
0.00056983
0.00056951
0.000569274
0.000568986
0.000568781
0.00056855
0.000568383
0.000568179
0.000568046
0.000567892
0.000567765
0.000567629
0.000567555
0.000567408
0.00056732
0.000567258
0.000567215
0.000567103
0.000567142
0.000567136
0.000567236
0.000567307
0.000567473
0.000567553
0.00056773
0.000567811
0.000568009
0.000568119
0.000568367
0.000568515
0.000568836
0.000569019
0.000569397
0.000569609
0.00057005
0.000570303
0.000570834
0.000571142
0.000571793
0.000572163
0.00057298
0.000573384
0.000574717
0.000574825
0.000584388
0.0124664
0.013917
0.00102337
0.000928755
0.000856469
0.000803252
0.000763751
0.000733849
0.000710469
0.00069187
0.000676621
0.000664048
0.000653383
0.000644369
0.000636532
0.000629794
0.000623807
0.000618614
0.00061392
0.000609822
0.000606059
0.000602759
0.000599686
0.000596987
0.000594434
0.000592199
0.000590064
0.000588196
0.000586387
0.000584808
0.000583279
0.000581937
0.000580614
0.000579477
0.000578347
0.000577378
0.000576406
0.000575574
0.000574717
0.000573999
0.000573255
0.000572635
0.000571991
0.000571457
0.00057089
0.000570424
0.000569926
0.00056953
0.00056909
0.000568757
0.000568377
0.000568085
0.000567762
0.000567523
0.000567231
0.000567024
0.00056679
0.000566621
0.000566414
0.000566278
0.000566123
0.000565994
0.000565855
0.00056578
0.000565632
0.000565543
0.000565478
0.000565434
0.00056532
0.000565354
0.000565345
0.000565443
0.00056551
0.000565673
0.000565751
0.000565926
0.000566005
0.000566201
0.000566309
0.000566555
0.000566701
0.000567018
0.000567199
0.000567573
0.000567783
0.000568221
0.000568472
0.000568998
0.000569304
0.000569948
0.000570315
0.000571126
0.000571526
0.000572853
0.000572945
0.000582806
0.0126873
0.0142457
0.0010234
0.000928781
0.000856369
0.000802971
0.000763286
0.000733218
0.000709696
0.000690975
0.000675623
0.000662963
0.000652222
0.000643143
0.000635248
0.00062846
0.000622427
0.000617195
0.000612465
0.000608336
0.000604543
0.000601217
0.00059812
0.000595399
0.000592826
0.000590573
0.00058842
0.000586538
0.000584714
0.000583122
0.00058158
0.000580226
0.000578892
0.000577744
0.000576604
0.000575627
0.000574646
0.000573806
0.000572942
0.000572217
0.000571466
0.00057084
0.000570189
0.00056965
0.000569077
0.000568607
0.000568104
0.000567704
0.000567259
0.000566922
0.000566539
0.000566243
0.000565916
0.000565674
0.000565379
0.000565169
0.000564931
0.000564761
0.000564551
0.000564413
0.000564254
0.000564124
0.000563983
0.000563906
0.000563757
0.000563666
0.000563598
0.000563553
0.000563437
0.000563467
0.000563455
0.00056355
0.000563612
0.000563772
0.000563848
0.000564021
0.000564099
0.000564292
0.000564399
0.000564641
0.000564785
0.000565098
0.000565277
0.000565648
0.000565856
0.000566289
0.000566538
0.000567058
0.000567362
0.000568
0.000568364
0.000569169
0.000569563
0.000570884
0.00057096
0.000581131
0.0129043
0.0145887
0.00102343
0.000928809
0.000856267
0.00080268
0.000762801
0.000732559
0.000708887
0.000690039
0.000674578
0.000661825
0.000651004
0.000641855
0.000633899
0.000627058
0.000620978
0.000615704
0.000610936
0.000606773
0.000602949
0.000599595
0.000596473
0.000593729
0.000591135
0.000588863
0.000586692
0.000584792
0.000582953
0.000581347
0.000579791
0.000578425
0.000577079
0.000575921
0.000574771
0.000573784
0.000572794
0.000571945
0.000571073
0.000570341
0.000569582
0.00056895
0.000568293
0.000567748
0.000567169
0.000566694
0.000566186
0.000565781
0.000565331
0.00056499
0.000564602
0.000564303
0.000563971
0.000563726
0.000563428
0.000563215
0.000562974
0.000562801
0.000562588
0.000562447
0.000562286
0.000562155
0.00056201
0.000561932
0.000561782
0.00056169
0.000561618
0.000561572
0.000561454
0.000561479
0.000561463
0.000561555
0.000561613
0.00056177
0.000561843
0.000562014
0.00056209
0.00056228
0.000562385
0.000562624
0.000562766
0.000563075
0.000563252
0.000563619
0.000563825
0.000564254
0.0005645
0.000565015
0.000565316
0.000565948
0.000566308
0.000567106
0.000567495
0.00056881
0.000568869
0.000579358
0.0131129
0.0149439
0.00102347
0.000928839
0.000856164
0.000802379
0.000762298
0.000731874
0.000708044
0.000689061
0.000673486
0.000660635
0.000649729
0.000640507
0.000632487
0.00062559
0.00061946
0.000614141
0.000609332
0.000605133
0.000601277
0.000597894
0.000594744
0.000591977
0.00058936
0.000587067
0.000584877
0.00058296
0.000581105
0.000579483
0.000577913
0.000576534
0.000575176
0.000574006
0.000572845
0.000571848
0.000570848
0.000569991
0.00056911
0.00056837
0.000567604
0.000566964
0.0005663
0.000565749
0.000565164
0.000564684
0.00056417
0.00056376
0.000563305
0.00056296
0.000562567
0.000562264
0.000561928
0.00056168
0.000561378
0.000561162
0.000560917
0.000560741
0.000560525
0.000560382
0.000560218
0.000560085
0.000559937
0.000559857
0.000559706
0.000559612
0.000559537
0.000559489
0.00055937
0.000559389
0.00055937
0.000559459
0.000559511
0.000559666
0.000559736
0.000559905
0.000559978
0.000560166
0.000560269
0.000560504
0.000560644
0.000560948
0.000561123
0.000561486
0.00056169
0.000562114
0.000562357
0.000562867
0.000563164
0.00056379
0.000564146
0.000564937
0.000565321
0.000566628
0.000566671
0.000577484
0.0133086
0.0153089
0.0010235
0.000928871
0.000856059
0.00080207
0.000761778
0.000731162
0.000707167
0.000688043
0.000672347
0.000659393
0.000648398
0.000639099
0.000631011
0.000624054
0.000617871
0.000612505
0.000607655
0.000603418
0.000599527
0.000596113
0.000592935
0.000590142
0.000587501
0.000585186
0.000582976
0.000581041
0.000579168
0.00057753
0.000575945
0.000574553
0.000573181
0.000571999
0.000570826
0.000569819
0.000568808
0.000567942
0.000567052
0.000566304
0.000565529
0.000564883
0.000564211
0.000563654
0.000563062
0.000562576
0.000562056
0.000561642
0.000561181
0.000560831
0.000560434
0.000560127
0.000559786
0.000559534
0.000559228
0.000559009
0.00055876
0.000558581
0.000558362
0.000558215