/*--------------------------------*- C++ -*----------------------------------*\
| =========                 |                                                 |
| \\      /  F ield         | OpenFOAM: The Open Source CFD Toolbox           |
|  \\    /   O peration     | Version:  v2012                                 |
|   \\  /    A nd           | Website:  www.openfoam.com                      |
|    \\/     M anipulation  |                                                 |
\*---------------------------------------------------------------------------*/
FoamFile
{
    version     2.0;
    format      ascii;
    class       volScalarField;
    location    "25.5";
    object      nut;
}
// * * * * * * * * * * * * * * * * * * * * * * * * * * * * * * * * * * * * * //

dimensions      [0 2 -1 0 0 0 0];


internalField   nonuniform List<scalar> 
209825
(
1.24797e-07
1.18632e-07
1.10372e-07
1.02953e-07
9.69625e-08
9.22345e-08
8.84399e-08
8.53704e-08
8.282e-08
8.06992e-08
7.88855e-08
7.73452e-08
7.59994e-08
7.48394e-08
7.38043e-08
7.29056e-08
7.20907e-08
7.13796e-08
7.07247e-08
7.01506e-08
6.96151e-08
6.91452e-08
6.86994e-08
6.83093e-08
6.79361e-08
6.76103e-08
6.72936e-08
6.7017e-08
6.67499e-08
6.65148e-08
6.62824e-08
6.60824e-08
6.58842e-08
6.57144e-08
6.55438e-08
6.53954e-08
6.52448e-08
6.51181e-08
6.49861e-08
6.48756e-08
6.47605e-08
6.46632e-08
6.45629e-08
6.44792e-08
6.43885e-08
6.43153e-08
6.42384e-08
6.41778e-08
6.41059e-08
6.40523e-08
6.39995e-08
6.39474e-08
6.38901e-08
6.38508e-08
6.38029e-08
6.37705e-08
6.37213e-08
6.36803e-08
6.36425e-08
6.35957e-08
6.35682e-08
6.35537e-08
6.35122e-08
6.34832e-08
6.34529e-08
6.34237e-08
6.33907e-08
6.33951e-08
6.33751e-08
6.33793e-08
6.338e-08
6.33921e-08
6.33891e-08
6.34029e-08
6.33979e-08
6.34134e-08
6.34132e-08
6.34306e-08
6.34379e-08
6.34641e-08
6.3474e-08
6.35034e-08
6.35166e-08
6.35486e-08
6.35665e-08
6.36046e-08
6.36269e-08
6.36736e-08
6.36976e-08
6.37507e-08
6.37736e-08
6.38406e-08
6.38436e-08
6.43394e-08
3.11499e-06
1.96478e-08
1.24797e-07
1.18633e-07
1.10374e-07
1.02955e-07
9.69646e-08
9.22364e-08
8.84415e-08
8.53718e-08
8.28212e-08
8.07002e-08
7.88863e-08
7.73459e-08
7.59999e-08
7.48398e-08
7.38045e-08
7.29057e-08
7.20908e-08
7.13795e-08
7.07246e-08
7.01504e-08
6.96149e-08
6.91449e-08
6.8699e-08
6.83089e-08
6.79357e-08
6.76098e-08
6.7293e-08
6.70163e-08
6.67492e-08
6.65141e-08
6.62817e-08
6.60816e-08
6.58835e-08
6.57136e-08
6.55429e-08
6.53945e-08
6.52439e-08
6.51172e-08
6.49852e-08
6.48747e-08
6.47596e-08
6.46622e-08
6.45619e-08
6.44782e-08
6.43875e-08
6.43143e-08
6.42373e-08
6.41768e-08
6.41048e-08
6.40512e-08
6.39984e-08
6.39463e-08
6.3889e-08
6.38496e-08
6.38018e-08
6.37693e-08
6.37201e-08
6.36791e-08
6.36413e-08
6.35945e-08
6.3567e-08
6.35526e-08
6.3511e-08
6.3482e-08
6.34517e-08
6.34225e-08
6.33895e-08
6.33939e-08
6.33738e-08
6.33781e-08
6.33787e-08
6.33909e-08
6.33878e-08
6.34016e-08
6.33966e-08
6.34121e-08
6.34119e-08
6.34294e-08
6.34366e-08
6.34628e-08
6.34727e-08
6.35021e-08
6.35153e-08
6.35473e-08
6.35652e-08
6.36033e-08
6.36256e-08
6.36722e-08
6.36962e-08
6.37493e-08
6.37723e-08
6.38393e-08
6.38422e-08
6.43387e-08
3.1155e-06
1.98088e-08
1.24798e-07
1.18638e-07
1.10382e-07
1.02964e-07
9.69728e-08
9.22438e-08
8.84479e-08
8.53772e-08
8.28258e-08
8.07039e-08
7.88894e-08
7.73482e-08
7.60017e-08
7.48411e-08
7.38053e-08
7.29062e-08
7.20909e-08
7.13792e-08
7.0724e-08
7.01496e-08
6.96137e-08
6.91435e-08
6.86974e-08
6.83071e-08
6.79337e-08
6.76076e-08
6.72907e-08
6.70139e-08
6.67467e-08
6.65114e-08
6.62789e-08
6.60787e-08
6.58804e-08
6.57105e-08
6.55397e-08
6.53912e-08
6.52405e-08
6.51137e-08
6.49817e-08
6.48711e-08
6.47559e-08
6.46584e-08
6.45581e-08
6.44743e-08
6.43836e-08
6.43103e-08
6.42333e-08
6.41727e-08
6.41007e-08
6.40471e-08
6.39942e-08
6.39421e-08
6.38848e-08
6.38454e-08
6.37975e-08
6.3765e-08
6.37158e-08
6.36748e-08
6.36369e-08
6.35901e-08
6.35626e-08
6.35481e-08
6.35065e-08
6.34775e-08
6.34472e-08
6.3418e-08
6.33849e-08
6.33892e-08
6.33692e-08
6.33734e-08
6.3374e-08
6.33861e-08
6.33831e-08
6.33968e-08
6.33918e-08
6.34073e-08
6.34071e-08
6.34245e-08
6.34317e-08
6.34579e-08
6.34678e-08
6.34971e-08
6.35103e-08
6.35423e-08
6.35602e-08
6.35982e-08
6.36205e-08
6.36671e-08
6.36911e-08
6.37442e-08
6.37671e-08
6.38341e-08
6.38369e-08
6.43348e-08
3.11649e-06
2.00352e-08
1.24798e-07
1.18647e-07
1.10396e-07
1.02979e-07
9.69868e-08
9.22562e-08
8.84586e-08
8.53864e-08
8.28334e-08
8.07102e-08
7.88945e-08
7.73523e-08
7.60048e-08
7.48434e-08
7.38068e-08
7.29069e-08
7.2091e-08
7.13788e-08
7.07231e-08
7.01482e-08
6.96119e-08
6.91413e-08
6.86948e-08
6.83042e-08
6.79305e-08
6.76041e-08
6.7287e-08
6.70099e-08
6.67424e-08
6.6507e-08
6.62742e-08
6.60738e-08
6.58754e-08
6.57053e-08
6.55344e-08
6.53857e-08
6.52349e-08
6.5108e-08
6.49758e-08
6.48651e-08
6.47498e-08
6.46522e-08
6.45518e-08
6.4468e-08
6.43771e-08
6.43038e-08
6.42267e-08
6.4166e-08
6.40939e-08
6.40402e-08
6.39873e-08
6.39352e-08
6.38777e-08
6.38383e-08
6.37904e-08
6.37579e-08
6.37086e-08
6.36675e-08
6.36297e-08
6.35828e-08
6.35552e-08
6.35407e-08
6.34991e-08
6.34701e-08
6.34397e-08
6.34105e-08
6.33773e-08
6.33816e-08
6.33614e-08
6.33656e-08
6.33661e-08
6.33782e-08
6.33751e-08
6.33889e-08
6.33838e-08
6.33992e-08
6.3399e-08
6.34164e-08
6.34236e-08
6.34497e-08
6.34596e-08
6.34889e-08
6.3502e-08
6.3534e-08
6.35519e-08
6.35898e-08
6.36121e-08
6.36586e-08
6.36826e-08
6.37356e-08
6.37585e-08
6.38254e-08
6.38282e-08
6.43281e-08
3.11803e-06
2.03031e-08
1.24799e-07
1.18659e-07
1.10415e-07
1.03e-07
9.70065e-08
9.22738e-08
8.84739e-08
8.53993e-08
8.28443e-08
8.07192e-08
7.89018e-08
7.73581e-08
7.60092e-08
7.48466e-08
7.3809e-08
7.29081e-08
7.20913e-08
7.13783e-08
7.07219e-08
7.01463e-08
6.96094e-08
6.91383e-08
6.86913e-08
6.83002e-08
6.7926e-08
6.75993e-08
6.72818e-08
6.70043e-08
6.67365e-08
6.65008e-08
6.62678e-08
6.60671e-08
6.58684e-08
6.56981e-08
6.55269e-08
6.53781e-08
6.52271e-08
6.51e-08
6.49676e-08
6.48567e-08
6.47413e-08
6.46436e-08
6.4543e-08
6.4459e-08
6.43681e-08
6.42946e-08
6.42174e-08
6.41566e-08
6.40844e-08
6.40306e-08
6.39776e-08
6.39255e-08
6.38679e-08
6.38284e-08
6.37804e-08
6.37478e-08
6.36985e-08
6.36574e-08
6.36195e-08
6.35726e-08
6.35449e-08
6.35304e-08
6.34888e-08
6.34597e-08
6.34293e-08
6.34e-08
6.33667e-08
6.33708e-08
6.33505e-08
6.33547e-08
6.33551e-08
6.33672e-08
6.33641e-08
6.33777e-08
6.33726e-08
6.3388e-08
6.33878e-08
6.34051e-08
6.34122e-08
6.34382e-08
6.34481e-08
6.34773e-08
6.34905e-08
6.35223e-08
6.35402e-08
6.35781e-08
6.36003e-08
6.36467e-08
6.36706e-08
6.37236e-08
6.37464e-08
6.38134e-08
6.38159e-08
6.43188e-08
3.12017e-06
2.06032e-08
1.248e-07
1.18675e-07
1.1044e-07
1.03027e-07
9.70322e-08
9.22966e-08
8.84937e-08
8.54162e-08
8.28584e-08
8.07309e-08
7.89113e-08
7.73657e-08
7.60151e-08
7.48509e-08
7.38119e-08
7.29097e-08
7.20918e-08
7.13778e-08
7.07204e-08
7.01439e-08
6.96063e-08
6.91344e-08
6.86867e-08
6.8295e-08
6.79203e-08
6.75931e-08
6.7275e-08
6.69972e-08
6.67289e-08
6.64928e-08
6.62594e-08
6.60584e-08
6.58594e-08
6.56888e-08
6.55173e-08
6.53682e-08
6.5217e-08
6.50897e-08
6.4957e-08
6.4846e-08
6.47303e-08
6.46324e-08
6.45317e-08
6.44475e-08
6.43564e-08
6.42828e-08
6.42054e-08
6.41445e-08
6.40722e-08
6.40183e-08
6.39651e-08
6.3913e-08
6.38553e-08
6.38157e-08
6.37676e-08
6.37349e-08
6.36855e-08
6.36443e-08
6.36064e-08
6.35595e-08
6.35316e-08
6.3517e-08
6.34754e-08
6.34462e-08
6.34158e-08
6.33864e-08
6.33529e-08
6.33569e-08
6.33365e-08
6.33406e-08
6.3341e-08
6.33529e-08
6.33497e-08
6.33634e-08
6.33582e-08
6.33735e-08
6.33733e-08
6.33904e-08
6.33975e-08
6.34234e-08
6.34332e-08
6.34624e-08
6.34755e-08
6.35073e-08
6.3525e-08
6.35628e-08
6.3585e-08
6.36313e-08
6.36552e-08
6.37081e-08
6.37308e-08
6.37977e-08
6.38e-08
6.43067e-08
3.12296e-06
2.09321e-08
1.24802e-07
1.18694e-07
1.10471e-07
1.0306e-07
9.70638e-08
9.23249e-08
8.85182e-08
8.54371e-08
8.2876e-08
8.07455e-08
7.89232e-08
7.73751e-08
7.60223e-08
7.48563e-08
7.38155e-08
7.29118e-08
7.20924e-08
7.13771e-08
7.07186e-08
7.01411e-08
6.96024e-08
6.91297e-08
6.86812e-08
6.82887e-08
6.79133e-08
6.75855e-08
6.72668e-08
6.69884e-08
6.67196e-08
6.64831e-08
6.62492e-08
6.60478e-08
6.58484e-08
6.56773e-08
6.55055e-08
6.53561e-08
6.52045e-08
6.5077e-08
6.49441e-08
6.48327e-08
6.47168e-08
6.46187e-08
6.45178e-08
6.44334e-08
6.43421e-08
6.42683e-08
6.41907e-08
6.41296e-08
6.40571e-08
6.40031e-08
6.39498e-08
6.38976e-08
6.38397e-08
6.38e-08
6.37518e-08
6.3719e-08
6.36695e-08
6.36282e-08
6.35902e-08
6.35433e-08
6.35152e-08
6.35006e-08
6.34589e-08
6.34297e-08
6.33991e-08
6.33697e-08
6.3336e-08
6.33397e-08
6.33193e-08
6.33233e-08
6.33235e-08
6.33354e-08
6.33321e-08
6.33457e-08
6.33405e-08
6.33556e-08
6.33554e-08
6.33724e-08
6.33795e-08
6.34052e-08
6.3415e-08
6.3444e-08
6.34571e-08
6.34887e-08
6.35064e-08
6.35441e-08
6.35662e-08
6.36124e-08
6.36362e-08
6.3689e-08
6.37116e-08
6.37785e-08
6.37805e-08
6.42919e-08
3.12644e-06
2.12903e-08
1.24803e-07
1.18717e-07
1.10508e-07
1.031e-07
9.71017e-08
9.23587e-08
8.85475e-08
8.54621e-08
8.28971e-08
8.0763e-08
7.89374e-08
7.73865e-08
7.60311e-08
7.48627e-08
7.38199e-08
7.29144e-08
7.20933e-08
7.13765e-08
7.07165e-08
7.01377e-08
6.95979e-08
6.91241e-08
6.86747e-08
6.82813e-08
6.79051e-08
6.75764e-08
6.72571e-08
6.6978e-08
6.67086e-08
6.64715e-08
6.62371e-08
6.60352e-08
6.58352e-08
6.56638e-08
6.54915e-08
6.53418e-08
6.51898e-08
6.50619e-08
6.49286e-08
6.4817e-08
6.47008e-08
6.46024e-08
6.45012e-08
6.44166e-08
6.4325e-08
6.4251e-08
6.41731e-08
6.41119e-08
6.40392e-08
6.3985e-08
6.39316e-08
6.38792e-08
6.38212e-08
6.37813e-08
6.3733e-08
6.37001e-08
6.36504e-08
6.3609e-08
6.3571e-08
6.3524e-08
6.34958e-08
6.34811e-08
6.34394e-08
6.341e-08
6.33794e-08
6.33498e-08
6.33159e-08
6.33194e-08
6.32988e-08
6.33027e-08
6.33027e-08
6.33145e-08
6.33111e-08
6.33246e-08
6.33193e-08
6.33343e-08
6.33341e-08
6.33509e-08
6.33579e-08
6.33835e-08
6.33932e-08
6.34221e-08
6.34352e-08
6.34666e-08
6.34843e-08
6.35218e-08
6.35438e-08
6.35898e-08
6.36136e-08
6.36662e-08
6.36888e-08
6.37556e-08
6.37572e-08
6.42743e-08
3.13066e-06
2.16809e-08
1.24805e-07
1.18744e-07
1.1055e-07
1.03147e-07
9.71458e-08
9.23982e-08
8.85818e-08
8.54914e-08
8.29217e-08
8.07834e-08
7.89541e-08
7.73999e-08
7.60415e-08
7.48704e-08
7.38251e-08
7.29174e-08
7.20944e-08
7.13758e-08
7.07142e-08
7.0134e-08
6.95928e-08
6.91178e-08
6.86672e-08
6.82728e-08
6.78955e-08
6.7566e-08
6.72458e-08
6.6966e-08
6.66958e-08
6.64581e-08
6.6223e-08
6.60205e-08
6.582e-08
6.5648e-08
6.54753e-08
6.53251e-08
6.51726e-08
6.50443e-08
6.49107e-08
6.47987e-08
6.46821e-08
6.45835e-08
6.44819e-08
6.43971e-08
6.43052e-08
6.42309e-08
6.41528e-08
6.40913e-08
6.40184e-08
6.3964e-08
6.39103e-08
6.38579e-08
6.37996e-08
6.37595e-08
6.37111e-08
6.36781e-08
6.36282e-08
6.35867e-08
6.35486e-08
6.35016e-08
6.34731e-08
6.34584e-08
6.34166e-08
6.33871e-08
6.33563e-08
6.33267e-08
6.32925e-08
6.32956e-08
6.32749e-08
6.32787e-08
6.32785e-08
6.32902e-08
6.32867e-08
6.33e-08
6.32947e-08
6.33095e-08
6.33093e-08
6.33259e-08
6.33329e-08
6.33582e-08
6.33679e-08
6.33966e-08
6.34096e-08
6.34409e-08
6.34585e-08
6.34958e-08
6.35177e-08
6.35636e-08
6.35872e-08
6.36397e-08
6.36622e-08
6.37289e-08
6.37301e-08
6.42538e-08
3.13565e-06
2.21089e-08
1.24807e-07
1.18775e-07
1.10599e-07
1.032e-07
9.71963e-08
9.24434e-08
8.86211e-08
8.5525e-08
8.295e-08
8.0807e-08
7.89734e-08
7.74153e-08
7.60534e-08
7.48793e-08
7.38313e-08
7.29211e-08
7.20957e-08
7.13751e-08
7.07116e-08
7.01297e-08
6.9587e-08
6.91106e-08
6.86586e-08
6.8263e-08
6.78847e-08
6.75541e-08
6.7233e-08
6.69523e-08
6.66813e-08
6.64427e-08
6.62069e-08
6.60038e-08
6.58026e-08
6.563e-08
6.54567e-08
6.5306e-08
6.51531e-08
6.50243e-08
6.48902e-08
6.47778e-08
6.46608e-08
6.45618e-08
6.44598e-08
6.43747e-08
6.42825e-08
6.42079e-08
6.41295e-08
6.40678e-08
6.39946e-08
6.39399e-08
6.3886e-08
6.38335e-08
6.3775e-08
6.37347e-08
6.3686e-08
6.36529e-08
6.36028e-08
6.35612e-08
6.3523e-08
6.34759e-08
6.34471e-08
6.34324e-08
6.33905e-08
6.33609e-08
6.333e-08
6.33003e-08
6.32657e-08
6.32685e-08
6.32476e-08
6.32512e-08
6.32508e-08
6.32624e-08
6.32587e-08
6.3272e-08
6.32666e-08
6.32812e-08
6.32809e-08
6.32973e-08
6.33042e-08
6.33293e-08
6.3339e-08
6.33674e-08
6.33804e-08
6.34115e-08
6.3429e-08
6.34661e-08
6.34879e-08
6.35335e-08
6.35571e-08
6.36094e-08
6.36317e-08
6.36984e-08
6.36991e-08
6.42305e-08
3.14144e-06
2.25813e-08
1.2481e-07
1.18809e-07
1.10654e-07
1.0326e-07
9.72533e-08
9.24945e-08
8.86657e-08
8.55631e-08
8.29822e-08
8.08337e-08
7.89953e-08
7.74328e-08
7.60671e-08
7.48895e-08
7.38383e-08
7.29253e-08
7.20974e-08
7.13744e-08
7.07088e-08
7.0125e-08
6.95805e-08
6.91025e-08
6.86491e-08
6.82521e-08
6.78725e-08
6.75408e-08
6.72186e-08
6.69368e-08
6.66649e-08
6.64255e-08
6.61889e-08
6.5985e-08
6.5783e-08
6.56098e-08
6.54358e-08
6.52846e-08
6.5131e-08
6.50017e-08
6.48671e-08
6.47543e-08
6.46368e-08
6.45374e-08
6.4435e-08
6.43495e-08
6.42569e-08
6.41821e-08
6.41032e-08
6.40413e-08
6.39678e-08
6.39128e-08
6.38586e-08
6.3806e-08
6.37472e-08
6.37066e-08
6.36578e-08
6.36245e-08
6.35742e-08
6.35324e-08
6.34942e-08
6.34469e-08
6.34179e-08
6.3403e-08
6.33611e-08
6.33313e-08
6.33003e-08
6.32704e-08
6.32355e-08
6.32379e-08
6.32168e-08
6.32202e-08
6.32196e-08
6.3231e-08
6.32272e-08
6.32403e-08
6.32348e-08
6.32492e-08
6.32489e-08
6.32651e-08
6.32718e-08
6.32967e-08
6.33063e-08
6.33345e-08
6.33474e-08
6.33783e-08
6.33957e-08
6.34326e-08
6.34542e-08
6.34996e-08
6.35231e-08
6.35751e-08
6.35974e-08
6.36639e-08
6.36642e-08
6.42042e-08
3.14801e-06
2.3106e-08
1.24812e-07
1.18847e-07
1.10715e-07
1.03327e-07
9.7317e-08
9.25517e-08
8.87155e-08
8.56058e-08
8.30182e-08
8.08638e-08
7.90199e-08
7.74526e-08
7.60825e-08
7.4901e-08
7.38463e-08
7.29301e-08
7.20994e-08
7.13738e-08
7.07059e-08
7.01199e-08
6.95734e-08
6.90936e-08
6.86386e-08
6.82401e-08
6.7859e-08
6.7526e-08
6.72026e-08
6.69197e-08
6.66467e-08
6.64064e-08
6.61688e-08
6.5964e-08
6.57612e-08
6.55873e-08
6.54126e-08
6.52607e-08
6.51065e-08
6.49766e-08
6.48414e-08
6.47281e-08
6.46101e-08
6.45102e-08
6.44073e-08
6.43215e-08
6.42284e-08
6.41532e-08
6.40739e-08
6.40117e-08
6.39378e-08
6.38826e-08
6.38281e-08
6.37753e-08
6.37161e-08
6.36754e-08
6.36262e-08
6.35929e-08
6.35423e-08
6.35003e-08
6.3462e-08
6.34146e-08
6.33852e-08
6.33703e-08
6.33282e-08
6.32983e-08
6.32671e-08
6.32371e-08
6.32018e-08
6.32037e-08
6.31824e-08
6.31856e-08
6.31847e-08
6.31959e-08
6.3192e-08
6.32049e-08
6.31993e-08
6.32135e-08
6.32131e-08
6.3229e-08
6.32357e-08
6.32602e-08
6.32698e-08
6.32978e-08
6.33106e-08
6.33412e-08
6.33585e-08
6.33952e-08
6.34166e-08
6.34618e-08
6.34851e-08
6.35369e-08
6.3559e-08
6.36254e-08
6.36251e-08
6.41749e-08
3.15536e-06
2.36924e-08
1.24815e-07
1.18889e-07
1.10782e-07
1.03401e-07
9.73875e-08
9.26151e-08
8.87709e-08
8.56533e-08
8.30583e-08
8.08972e-08
7.90473e-08
7.74747e-08
7.60997e-08
7.4914e-08
7.38554e-08
7.29357e-08
7.21017e-08
7.13733e-08
7.07027e-08
7.01144e-08
6.95657e-08
6.90839e-08
6.8627e-08
6.82269e-08
6.78442e-08
6.75097e-08
6.7185e-08
6.69009e-08
6.66266e-08
6.63852e-08
6.61466e-08
6.59409e-08
6.57372e-08
6.55624e-08
6.53869e-08
6.52343e-08
6.50793e-08
6.49489e-08
6.4813e-08
6.46991e-08
6.45805e-08
6.44802e-08
6.43767e-08
6.42904e-08
6.4197e-08
6.41213e-08
6.40415e-08
6.39789e-08
6.39048e-08
6.38491e-08
6.37943e-08
6.37414e-08
6.36818e-08
6.36408e-08
6.35914e-08
6.35578e-08
6.3507e-08
6.34647e-08
6.34263e-08
6.33789e-08
6.33491e-08
6.33341e-08
6.32919e-08
6.32618e-08
6.32304e-08
6.32003e-08
6.31645e-08
6.31659e-08
6.31444e-08
6.31474e-08
6.31462e-08
6.31572e-08
6.31531e-08
6.31658e-08
6.31601e-08
6.3174e-08
6.31736e-08
6.31892e-08
6.31958e-08
6.32199e-08
6.32295e-08
6.32571e-08
6.32699e-08
6.33002e-08
6.33174e-08
6.33537e-08
6.33751e-08
6.34199e-08
6.34431e-08
6.34946e-08
6.35166e-08
6.35829e-08
6.35819e-08
6.41426e-08
3.16343e-06
2.43503e-08
1.24817e-07
1.18934e-07
1.10856e-07
1.03482e-07
9.7465e-08
9.26849e-08
8.88318e-08
8.57056e-08
8.31026e-08
8.09342e-08
7.90777e-08
7.74992e-08
7.61189e-08
7.49284e-08
7.38655e-08
7.2942e-08
7.21045e-08
7.1373e-08
7.06995e-08
7.01085e-08
6.95574e-08
6.90734e-08
6.86145e-08
6.82125e-08
6.7828e-08
6.7492e-08
6.71657e-08
6.68803e-08
6.66047e-08
6.63622e-08
6.61224e-08
6.59157e-08
6.57109e-08
6.55352e-08
6.53588e-08
6.52054e-08
6.50496e-08
6.49184e-08
6.47819e-08
6.46674e-08
6.45482e-08
6.44473e-08
6.43432e-08
6.42564e-08
6.41624e-08
6.40863e-08
6.4006e-08
6.39431e-08
6.38685e-08
6.38125e-08
6.37572e-08
6.37042e-08
6.36442e-08
6.36028e-08
6.35531e-08
6.35194e-08
6.34682e-08
6.34258e-08
6.33873e-08
6.33397e-08
6.33095e-08
6.32944e-08
6.3252e-08
6.32218e-08
6.31901e-08
6.31599e-08
6.31236e-08
6.31243e-08
6.31027e-08
6.31054e-08
6.31039e-08
6.31146e-08
6.31103e-08
6.31228e-08
6.31171e-08
6.31306e-08
6.31302e-08
6.31455e-08
6.31519e-08
6.31757e-08
6.31852e-08
6.32125e-08
6.32252e-08
6.32552e-08
6.32722e-08
6.33083e-08
6.33294e-08
6.33739e-08
6.3397e-08
6.34482e-08
6.347e-08
6.35361e-08
6.35345e-08
6.41071e-08
3.17213e-06
2.50905e-08
1.2482e-07
1.18982e-07
1.10935e-07
1.0357e-07
9.75495e-08
9.27611e-08
8.88985e-08
8.57629e-08
8.31512e-08
8.09748e-08
7.91112e-08
7.75262e-08
7.61401e-08
7.49444e-08
7.38768e-08
7.29491e-08
7.21078e-08
7.13728e-08
7.06961e-08
7.01023e-08
6.95485e-08
6.90622e-08
6.8601e-08
6.81969e-08
6.78106e-08
6.74728e-08
6.71449e-08
6.68579e-08
6.65809e-08
6.63371e-08
6.60961e-08
6.58882e-08
6.56823e-08
6.55056e-08
6.53282e-08
6.5174e-08
6.50173e-08
6.48854e-08
6.4748e-08
6.46328e-08
6.45129e-08
6.44114e-08
6.43067e-08
6.42194e-08
6.41248e-08
6.40482e-08
6.39674e-08
6.3904e-08
6.38289e-08
6.37725e-08
6.37168e-08
6.36636e-08
6.36031e-08
6.35614e-08
6.35114e-08
6.34775e-08
6.3426e-08
6.33833e-08
6.33446e-08
6.3297e-08
6.32663e-08
6.3251e-08
6.32085e-08
6.31781e-08
6.31462e-08
6.31158e-08
6.30791e-08
6.30791e-08
6.30572e-08
6.30597e-08
6.30577e-08
6.30682e-08
6.30637e-08
6.3076e-08
6.30701e-08
6.30833e-08
6.30828e-08
6.30978e-08
6.31041e-08
6.31275e-08
6.31368e-08
6.31638e-08
6.31764e-08
6.32061e-08
6.32229e-08
6.32587e-08
6.32796e-08
6.33238e-08
6.33467e-08
6.33976e-08
6.34191e-08
6.34851e-08
6.34828e-08
6.40685e-08
3.18132e-06
2.59243e-08
1.24823e-07
1.19035e-07
1.11021e-07
1.03665e-07
9.76413e-08
9.2844e-08
8.89712e-08
8.58255e-08
8.32043e-08
8.10192e-08
7.91478e-08
7.75558e-08
7.61634e-08
7.49621e-08
7.38894e-08
7.29571e-08
7.21116e-08
7.13728e-08
7.06927e-08
7.00958e-08
6.95391e-08
6.90501e-08
6.85865e-08
6.81803e-08
6.77918e-08
6.74522e-08
6.71225e-08
6.68339e-08
6.65552e-08
6.63101e-08
6.60677e-08
6.58585e-08
6.56514e-08
6.54736e-08
6.52951e-08
6.514e-08
6.49824e-08
6.48496e-08
6.47114e-08
6.45954e-08
6.44747e-08
6.43726e-08
6.42672e-08
6.41793e-08
6.40841e-08
6.4007e-08
6.39255e-08
6.38616e-08
6.37861e-08
6.37292e-08
6.36731e-08
6.36196e-08
6.35587e-08
6.35166e-08
6.34662e-08
6.34321e-08
6.33802e-08
6.33372e-08
6.32984e-08
6.32506e-08
6.32195e-08
6.3204e-08
6.31614e-08
6.31307e-08
6.30986e-08
6.3068e-08
6.30308e-08
6.303e-08
6.30079e-08
6.30101e-08
6.30077e-08
6.30179e-08
6.30132e-08
6.30252e-08
6.30192e-08
6.3032e-08
6.30315e-08
6.30461e-08
6.30522e-08
6.30752e-08
6.30844e-08
6.3111e-08
6.31235e-08
6.31528e-08
6.31695e-08
6.32049e-08
6.32256e-08
6.32694e-08
6.32921e-08
6.33427e-08
6.3364e-08
6.34297e-08
6.34266e-08
6.40266e-08
3.19083e-06
2.68635e-08
1.24825e-07
1.19091e-07
1.11114e-07
1.03768e-07
9.77404e-08
9.29338e-08
8.905e-08
8.58933e-08
8.32619e-08
8.10676e-08
7.91877e-08
7.75882e-08
7.6189e-08
7.49816e-08
7.39033e-08
7.29661e-08
7.2116e-08
7.13732e-08
7.06893e-08
7.0089e-08
6.95292e-08
6.90374e-08
6.85711e-08
6.81625e-08
6.77718e-08
6.74301e-08
6.70984e-08
6.6808e-08
6.65277e-08
6.6281e-08
6.60371e-08
6.58267e-08
6.56182e-08
6.54392e-08
6.52595e-08
6.51034e-08
6.49447e-08
6.4811e-08
6.46719e-08
6.45552e-08
6.44336e-08
6.43308e-08
6.42246e-08
6.41361e-08
6.40402e-08
6.39625e-08
6.38804e-08
6.3816e-08
6.37399e-08
6.36826e-08
6.36259e-08
6.35722e-08
6.35107e-08
6.34682e-08
6.34175e-08
6.33831e-08
6.33308e-08
6.32876e-08
6.32486e-08
6.32007e-08
6.31689e-08
6.31534e-08
6.31105e-08
6.30796e-08
6.30472e-08
6.30165e-08
6.29787e-08
6.2977e-08
6.29548e-08
6.29566e-08
6.29537e-08
6.29636e-08
6.29586e-08
6.29704e-08
6.29642e-08
6.29767e-08
6.2976e-08
6.29902e-08
6.29962e-08
6.30187e-08
6.30279e-08
6.30541e-08
6.30664e-08
6.30953e-08
6.31118e-08
6.31468e-08
6.31673e-08
6.32106e-08
6.32332e-08
6.32834e-08
6.33045e-08
6.33699e-08
6.33661e-08
6.39813e-08
3.2004e-06
2.79202e-08
1.24828e-07
1.1915e-07
1.11212e-07
1.03879e-07
9.7847e-08
9.30305e-08
8.9135e-08
8.59667e-08
8.33244e-08
8.112e-08
7.92311e-08
7.76234e-08
7.62169e-08
7.50029e-08
7.39187e-08
7.29761e-08
7.21212e-08
7.13739e-08
7.0686e-08
7.0082e-08
6.95188e-08
6.9024e-08
6.85549e-08
6.81436e-08
6.77505e-08
6.74065e-08
6.70728e-08
6.67805e-08
6.64983e-08
6.625e-08
6.60045e-08
6.57926e-08
6.55827e-08
6.54024e-08
6.52215e-08
6.50642e-08
6.49044e-08
6.47697e-08
6.46296e-08
6.4512e-08
6.43896e-08
6.4286e-08
6.41789e-08
6.40897e-08
6.39931e-08
6.39148e-08
6.38319e-08
6.3767e-08
6.36904e-08
6.36325e-08
6.35752e-08
6.35213e-08
6.34592e-08
6.34163e-08
6.33651e-08
6.33305e-08
6.32778e-08
6.32342e-08
6.31951e-08
6.3147e-08
6.31147e-08
6.30989e-08
6.30559e-08
6.30247e-08
6.2992e-08
6.29611e-08
6.29227e-08
6.292e-08
6.28977e-08
6.28992e-08
6.28957e-08
6.29053e-08
6.29e-08
6.29115e-08
6.29051e-08
6.29172e-08
6.29165e-08
6.29302e-08
6.2936e-08
6.2958e-08
6.29671e-08
6.29928e-08
6.30051e-08
6.30335e-08
6.30499e-08
6.30844e-08
6.31047e-08
6.31475e-08
6.31698e-08
6.32197e-08
6.32405e-08
6.33056e-08
6.33009e-08
6.39325e-08
3.20974e-06
2.91069e-08
1.24831e-07
1.19213e-07
1.11317e-07
1.03997e-07
9.79613e-08
9.31344e-08
8.92265e-08
8.60459e-08
8.33918e-08
8.11767e-08
7.92781e-08
7.76617e-08
7.62472e-08
7.50262e-08
7.39356e-08
7.29873e-08
7.21271e-08
7.13751e-08
7.06828e-08
7.00749e-08
6.95081e-08
6.901e-08
6.85378e-08
6.81237e-08
6.77279e-08
6.73816e-08
6.70456e-08
6.67513e-08
6.64671e-08
6.6217e-08
6.59698e-08
6.57563e-08
6.55448e-08
6.53632e-08
6.51809e-08
6.50225e-08
6.48614e-08
6.47257e-08
6.45845e-08
6.44659e-08
6.43425e-08
6.42381e-08
6.41301e-08
6.40402e-08
6.39428e-08
6.38638e-08
6.37802e-08
6.37147e-08
6.36374e-08
6.35789e-08
6.3521e-08
6.34668e-08
6.34041e-08
6.33608e-08
6.33091e-08
6.32742e-08
6.3221e-08
6.31771e-08
6.31378e-08
6.30895e-08
6.30566e-08
6.30407e-08
6.29974e-08
6.2966e-08
6.29329e-08
6.29018e-08
6.28629e-08
6.28591e-08
6.28367e-08
6.28377e-08
6.28336e-08
6.28428e-08
6.28373e-08
6.28484e-08
6.28419e-08
6.28535e-08
6.28527e-08
6.2866e-08
6.28716e-08
6.28931e-08
6.2902e-08
6.29273e-08
6.29394e-08
6.29674e-08
6.29835e-08
6.30176e-08
6.30376e-08
6.308e-08
6.3102e-08
6.31514e-08
6.3172e-08
6.32367e-08
6.32312e-08
6.38801e-08
3.21846e-06
3.04367e-08
1.24833e-07
1.19279e-07
1.11429e-07
1.04122e-07
9.80833e-08
9.32457e-08
8.93247e-08
8.61308e-08
8.34643e-08
8.12379e-08
7.93288e-08
7.77031e-08
7.62802e-08
7.50517e-08
7.39542e-08
7.29997e-08
7.21339e-08
7.13768e-08
7.06798e-08
7.00678e-08
6.9497e-08
6.89954e-08
6.85198e-08
6.81028e-08
6.77042e-08
6.73553e-08
6.70169e-08
6.67203e-08
6.6434e-08
6.6182e-08
6.5933e-08
6.57178e-08
6.55047e-08
6.53215e-08
6.51377e-08
6.49781e-08
6.48157e-08
6.46788e-08
6.45365e-08
6.44169e-08
6.42924e-08
6.41871e-08
6.40782e-08
6.39875e-08
6.38893e-08
6.38095e-08
6.37251e-08
6.36589e-08
6.3581e-08
6.35219e-08
6.34633e-08
6.34087e-08
6.33454e-08
6.33015e-08
6.32494e-08
6.32142e-08
6.31606e-08
6.31163e-08
6.30767e-08
6.30283e-08
6.29947e-08
6.29785e-08
6.2935e-08
6.29033e-08
6.28699e-08
6.28386e-08
6.27991e-08
6.27943e-08
6.27716e-08
6.27721e-08
6.27674e-08
6.27763e-08
6.27704e-08
6.27812e-08
6.27744e-08
6.27856e-08
6.27847e-08
6.27975e-08
6.28029e-08
6.28238e-08
6.28326e-08
6.28574e-08
6.28693e-08
6.28968e-08
6.29127e-08
6.29463e-08
6.2966e-08
6.30079e-08
6.30297e-08
6.30786e-08
6.30989e-08
6.31632e-08
6.31569e-08
6.3824e-08
3.22612e-06
3.19227e-08
1.24836e-07
1.19348e-07
1.11546e-07
1.04256e-07
9.82134e-08
9.33644e-08
8.94296e-08
8.62219e-08
8.35422e-08
8.13036e-08
7.93835e-08
7.77479e-08
7.63159e-08
7.50794e-08
7.39746e-08
7.30135e-08
7.21416e-08
7.13791e-08
7.06772e-08
7.00606e-08
6.94857e-08
6.89802e-08
6.85012e-08
6.8081e-08
6.76793e-08
6.73277e-08
6.69867e-08
6.66877e-08
6.63991e-08
6.61451e-08
6.58941e-08
6.56771e-08
6.54622e-08
6.52774e-08
6.50921e-08
6.49311e-08
6.47673e-08
6.46292e-08
6.44856e-08
6.43649e-08
6.42394e-08
6.41331e-08
6.40231e-08
6.39316e-08
6.38325e-08
6.37519e-08
6.36666e-08
6.35997e-08
6.35211e-08
6.34613e-08
6.3402e-08
6.33471e-08
6.3283e-08
6.32387e-08
6.3186e-08
6.31505e-08
6.30963e-08
6.30517e-08
6.30118e-08
6.29632e-08
6.29289e-08
6.29125e-08
6.28687e-08
6.28367e-08
6.28029e-08
6.27714e-08
6.27314e-08
6.27254e-08
6.27024e-08
6.27025e-08
6.2697e-08
6.27055e-08
6.26993e-08
6.27097e-08
6.27027e-08
6.27134e-08
6.27124e-08
6.27247e-08
6.27298e-08
6.27501e-08
6.27587e-08
6.2783e-08
6.27948e-08
6.28218e-08
6.28374e-08
6.28705e-08
6.28899e-08
6.29312e-08
6.29528e-08
6.30012e-08
6.30211e-08
6.3085e-08
6.30778e-08
6.37641e-08
3.23221e-06
3.35777e-08
1.24838e-07
1.19421e-07
1.11671e-07
1.04397e-07
9.83515e-08
9.34909e-08
8.95417e-08
8.63193e-08
8.36256e-08
8.13741e-08
7.94423e-08
7.77961e-08
7.63546e-08
7.51094e-08
7.39969e-08
7.30288e-08
7.21505e-08
7.13822e-08
7.06749e-08
7.00536e-08
6.94741e-08
6.89647e-08
6.84819e-08
6.80582e-08
6.76533e-08
6.72988e-08
6.6955e-08
6.66535e-08
6.63624e-08
6.61063e-08
6.58531e-08
6.56342e-08
6.54174e-08
6.52309e-08
6.50439e-08
6.48814e-08
6.47162e-08
6.45768e-08
6.44319e-08
6.431e-08
6.41832e-08
6.4076e-08
6.39648e-08
6.38725e-08
6.37723e-08
6.3691e-08
6.36047e-08
6.35371e-08
6.34577e-08
6.33972e-08
6.3337e-08
6.32818e-08
6.32169e-08
6.3172e-08
6.31188e-08
6.3083e-08
6.30282e-08
6.29832e-08
6.29431e-08
6.28942e-08
6.28592e-08
6.28425e-08
6.27984e-08
6.27661e-08
6.27319e-08
6.27002e-08
6.26596e-08
6.26525e-08
6.26291e-08
6.26286e-08
6.26224e-08
6.26304e-08
6.26239e-08
6.26339e-08
6.26267e-08
6.26369e-08
6.26357e-08
6.26475e-08
6.26523e-08
6.2672e-08
6.26805e-08
6.27041e-08
6.27157e-08
6.27422e-08
6.27576e-08
6.27901e-08
6.28092e-08
6.28499e-08
6.28712e-08
6.29191e-08
6.29386e-08
6.3002e-08
6.29939e-08
6.37001e-08
3.23612e-06
3.54145e-08
1.2484e-07
1.19496e-07
1.11801e-07
1.04546e-07
9.84979e-08
9.36253e-08
8.9661e-08
8.64231e-08
8.37147e-08
8.14496e-08
7.95054e-08
7.7848e-08
7.63963e-08
7.51421e-08
7.40212e-08
7.30457e-08
7.21605e-08
7.13861e-08
7.06732e-08
7.00467e-08
6.94625e-08
6.89488e-08
6.8462e-08
6.80347e-08
6.76263e-08
6.72686e-08
6.69219e-08
6.66177e-08
6.6324e-08
6.60656e-08
6.58101e-08
6.55892e-08
6.53703e-08
6.51821e-08
6.49932e-08
6.48292e-08
6.46624e-08
6.45216e-08
6.43752e-08
6.42522e-08
6.41241e-08
6.40157e-08
6.39034e-08
6.38101e-08
6.37089e-08
6.36267e-08
6.35394e-08
6.3471e-08
6.33908e-08
6.33295e-08
6.32685e-08
6.32128e-08
6.31471e-08
6.31017e-08
6.30478e-08
6.30117e-08
6.29563e-08
6.29109e-08
6.28704e-08
6.28214e-08
6.27856e-08
6.27686e-08
6.27241e-08
6.26915e-08
6.26568e-08
6.26249e-08
6.25838e-08
6.25755e-08
6.25517e-08
6.25506e-08
6.25436e-08
6.25511e-08
6.25442e-08
6.25537e-08
6.25463e-08
6.25559e-08
6.25546e-08
6.25658e-08
6.25704e-08
6.25894e-08
6.25977e-08
6.26208e-08
6.26321e-08
6.2658e-08
6.26731e-08
6.2705e-08
6.27238e-08
6.27639e-08
6.27849e-08
6.28322e-08
6.28514e-08
6.29141e-08
6.29051e-08
6.3632e-08
3.2372e-06
3.74453e-08
1.24842e-07
1.19575e-07
1.11938e-07
1.04703e-07
9.86526e-08
9.37677e-08
8.97877e-08
8.65337e-08
8.38098e-08
8.15304e-08
7.95731e-08
7.79038e-08
7.64414e-08
7.51774e-08
7.40478e-08
7.30643e-08
7.2172e-08
7.1391e-08
7.06721e-08
7.00401e-08
6.94509e-08
6.89326e-08
6.84415e-08
6.80103e-08
6.75983e-08
6.72373e-08
6.68875e-08
6.65804e-08
6.62839e-08
6.6023e-08
6.57652e-08
6.5542e-08
6.5321e-08
6.51308e-08
6.49401e-08
6.47744e-08
6.46059e-08
6.44636e-08
6.43157e-08
6.41914e-08
6.40619e-08
6.39524e-08
6.38388e-08
6.37445e-08
6.36422e-08
6.35591e-08
6.34706e-08
6.34014e-08
6.33203e-08
6.32582e-08
6.31962e-08
6.31401e-08
6.30736e-08
6.30275e-08
6.2973e-08
6.29365e-08
6.28805e-08
6.28347e-08
6.27939e-08
6.27446e-08
6.2708e-08
6.26906e-08
6.26458e-08
6.26129e-08
6.25777e-08
6.25456e-08
6.25039e-08
6.24944e-08
6.24701e-08
6.24684e-08
6.24605e-08
6.24675e-08
6.24601e-08
6.24692e-08
6.24615e-08
6.24706e-08
6.24691e-08
6.24796e-08
6.2484e-08
6.25023e-08
6.25103e-08
6.25328e-08
6.25439e-08
6.25692e-08
6.2584e-08
6.26153e-08
6.26337e-08
6.26731e-08
6.26938e-08
6.27405e-08
6.27593e-08
6.28213e-08
6.28115e-08
6.35595e-08
3.23472e-06
3.9681e-08
1.24843e-07
1.19656e-07
1.12081e-07
1.04868e-07
9.88159e-08
9.39184e-08
8.99221e-08
8.66512e-08
8.3911e-08
8.16165e-08
7.96454e-08
7.79636e-08
7.64898e-08
7.52157e-08
7.40768e-08
7.30849e-08
7.21849e-08
7.1397e-08
7.06717e-08
7.0034e-08
6.94394e-08
6.89162e-08
6.84206e-08
6.79854e-08
6.75694e-08
6.72049e-08
6.68517e-08
6.65416e-08
6.62421e-08
6.59787e-08
6.57183e-08
6.54928e-08
6.52695e-08
6.50773e-08
6.48845e-08
6.47171e-08
6.45467e-08
6.44029e-08
6.42534e-08
6.41276e-08
6.39968e-08
6.3886e-08
6.37711e-08
6.36757e-08
6.35722e-08
6.34881e-08
6.33985e-08
6.33284e-08
6.32463e-08
6.31833e-08
6.31203e-08
6.30637e-08
6.29964e-08
6.29495e-08
6.28944e-08
6.28575e-08
6.28008e-08
6.27546e-08
6.27133e-08
6.26638e-08
6.26264e-08
6.26086e-08
6.25634e-08
6.25302e-08
6.24944e-08
6.24621e-08
6.24199e-08
6.24092e-08
6.23843e-08
6.23819e-08
6.23731e-08
6.23795e-08
6.23717e-08
6.23803e-08
6.23723e-08
6.23807e-08
6.23791e-08
6.2389e-08
6.2393e-08
6.24106e-08
6.24184e-08
6.24402e-08
6.24511e-08
6.24758e-08
6.24902e-08
6.25208e-08
6.25389e-08
6.25775e-08
6.25979e-08
6.2644e-08
6.26624e-08
6.27236e-08
6.27129e-08
6.34824e-08
3.2279e-06
4.2131e-08
1.24845e-07
1.19741e-07
1.1223e-07
1.05042e-07
9.89879e-08
9.40777e-08
9.00645e-08
8.67759e-08
8.40187e-08
8.17084e-08
7.97227e-08
7.80278e-08
7.65419e-08
7.52571e-08
7.41083e-08
7.31076e-08
7.21994e-08
7.14042e-08
7.06721e-08
7.00284e-08
6.94281e-08
6.88998e-08
6.83994e-08
6.79598e-08
6.75397e-08
6.71715e-08
6.68148e-08
6.65014e-08
6.61988e-08
6.59326e-08
6.56695e-08
6.54416e-08
6.52158e-08
6.50214e-08
6.48265e-08
6.46572e-08
6.4485e-08
6.43394e-08
6.41883e-08
6.4061e-08
6.39286e-08
6.38165e-08
6.37002e-08
6.36036e-08
6.34989e-08
6.34137e-08
6.33229e-08
6.32518e-08
6.31688e-08
6.31049e-08
6.30407e-08