/*--------------------------------*- C++ -*----------------------------------*\
| =========                 |                                                 |
| \\      /  F ield         | OpenFOAM: The Open Source CFD Toolbox           |
|  \\    /   O peration     | Version:  v2012                                 |
|   \\  /    A nd           | Website:  www.openfoam.com                      |
|    \\/     M anipulation  |                                                 |
\*---------------------------------------------------------------------------*/
FoamFile
{
    version     2.0;
    format      ascii;
    class       volVectorField;
    location    "25.5";
    object      wallShearStress;
}
// * * * * * * * * * * * * * * * * * * * * * * * * * * * * * * * * * * * * * //

dimensions      [0 2 -2 0 0 0 0];


internalField   uniform (0 0 0);

boundaryField
{
    inlet
    {
        type            calculated;
        value           uniform (0 0 0);
    }
    outlet
    {
        type            calculated;
        value           uniform (0 0 0);
    }
    topWall
    {
        type            calculated;
        value           nonuniform List<vector> 
545
(
(5.61698e-08 -3.95237e-08 0)
(5.61857e-08 -1.10663e-07 0)
(5.6119e-08 -1.84587e-07 0)
(5.60409e-08 -2.56328e-07 0)
(5.59596e-08 -3.2498e-07 0)
(5.58651e-08 -3.91426e-07 0)
(5.57588e-08 -4.56232e-07 0)
(5.56407e-08 -5.19367e-07 0)
(5.55118e-08 -5.80692e-07 0)
(5.53731e-08 -6.40203e-07 0)
(5.52255e-08 -6.97979e-07 0)
(5.507e-08 -7.54087e-07 0)
(5.49073e-08 -8.08564e-07 0)
(5.47381e-08 -8.61444e-07 0)
(5.45633e-08 -9.12766e-07 0)
(5.43835e-08 -9.62571e-07 0)
(5.41993e-08 -1.0109e-06 0)
(5.40113e-08 -1.05779e-06 0)
(5.38201e-08 -1.10329e-06 0)
(5.36263e-08 -1.14743e-06 0)
(5.34302e-08 -1.19025e-06 0)
(5.32323e-08 -1.23178e-06 0)
(5.30331e-08 -1.27207e-06 0)
(5.28329e-08 -1.31115e-06 0)
(5.26322e-08 -1.34906e-06 0)
(5.24311e-08 -1.38582e-06 0)
(5.22301e-08 -1.42148e-06 0)
(5.20294e-08 -1.45607e-06 0)
(5.18293e-08 -1.48961e-06 0)
(5.163e-08 -1.52214e-06 0)
(5.14317e-08 -1.5537e-06 0)
(5.12347e-08 -1.5843e-06 0)
(5.10391e-08 -1.61398e-06 0)
(5.0845e-08 -1.64277e-06 0)
(5.06527e-08 -1.6707e-06 0)
(5.04622e-08 -1.69778e-06 0)
(5.02737e-08 -1.72405e-06 0)
(5.00872e-08 -1.74954e-06 0)
(4.9903e-08 -1.77426e-06 0)
(4.9721e-08 -1.79824e-06 0)
(4.95413e-08 -1.8215e-06 0)
(4.9364e-08 -1.84407e-06 0)
(4.91892e-08 -1.86597e-06 0)
(4.90169e-08 -1.88721e-06 0)
(4.8847e-08 -1.90782e-06 0)
(4.86798e-08 -1.92782e-06 0)
(4.85151e-08 -1.94722e-06 0)
(4.83531e-08 -1.96605e-06 0)
(4.81936e-08 -1.98432e-06 0)
(4.80368e-08 -2.00205e-06 0)
(4.78826e-08 -2.01926e-06 0)
(4.7731e-08 -2.03596e-06 0)
(4.7582e-08 -2.05217e-06 0)
(4.74356e-08 -2.06791e-06 0)
(4.72918e-08 -2.08318e-06 0)
(4.71505e-08 -2.098e-06 0)
(4.70118e-08 -2.11239e-06 0)
(4.68756e-08 -2.12636e-06 0)
(4.67418e-08 -2.13992e-06 0)
(4.66106e-08 -2.15309e-06 0)
(4.64817e-08 -2.16587e-06 0)
(4.63552e-08 -2.17829e-06 0)
(4.62311e-08 -2.19034e-06 0)
(4.61093e-08 -2.20205e-06 0)
(4.59898e-08 -2.21341e-06 0)
(4.58725e-08 -2.22445e-06 0)
(4.57574e-08 -2.23517e-06 0)
(4.56444e-08 -2.24558e-06 0)
(4.55337e-08 -2.25569e-06 0)
(4.54247e-08 -2.26551e-06 0)
(4.53189e-08 -2.27506e-06 0)
(4.52101e-08 -2.28431e-06 0)
(4.51062e-08 -2.29319e-06 0)
(4.50128e-08 -2.30184e-06 0)
(4.49198e-08 -2.31037e-06 0)
(4.48272e-08 -2.31884e-06 0)
(4.47347e-08 -2.32728e-06 0)
(4.46423e-08 -2.33567e-06 0)
(4.455e-08 -2.34399e-06 0)
(4.44578e-08 -2.35226e-06 0)
(4.43657e-08 -2.36048e-06 0)
(4.42738e-08 -2.36864e-06 0)
(4.41819e-08 -2.37674e-06 0)
(4.40902e-08 -2.3848e-06 0)
(4.39986e-08 -2.3928e-06 0)
(4.39071e-08 -2.40074e-06 0)
(4.38158e-08 -2.40864e-06 0)
(4.37246e-08 -2.41648e-06 0)
(4.36335e-08 -2.42427e-06 0)
(4.35425e-08 -2.432e-06 0)
(4.34518e-08 -2.43969e-06 0)
(4.3361e-08 -2.44732e-06 0)
(4.32709e-08 -2.45492e-06 0)
(4.31787e-08 -2.46241e-06 0)
(4.30964e-08 -2.46998e-06 0)
(4.29734e-08 -2.47732e-06 0)
(4.28437e-08 -2.48393e-06 0)
(4.27651e-08 -2.49015e-06 0)
(4.26919e-08 -2.49613e-06 0)
(4.26197e-08 -2.502e-06 0)
(4.25474e-08 -2.508e-06 0)
(4.2475e-08 -2.51404e-06 0)
(4.24023e-08 -2.52006e-06 0)
(4.23292e-08 -2.52607e-06 0)
(4.22559e-08 -2.53208e-06 0)
(4.21822e-08 -2.53811e-06 0)
(4.21082e-08 -2.54413e-06 0)
(4.20338e-08 -2.55016e-06 0)
(4.19592e-08 -2.55619e-06 0)
(4.18842e-08 -2.56223e-06 0)
(4.18089e-08 -2.56827e-06 0)
(4.17333e-08 -2.57431e-06 0)
(4.16574e-08 -2.58036e-06 0)
(4.15811e-08 -2.58641e-06 0)
(4.15045e-08 -2.59246e-06 0)
(4.14276e-08 -2.59851e-06 0)
(4.13503e-08 -2.60457e-06 0)
(4.12727e-08 -2.61063e-06 0)
(4.11948e-08 -2.6167e-06 0)
(4.11166e-08 -2.62276e-06 0)
(4.1038e-08 -2.62883e-06 0)
(4.09591e-08 -2.6349e-06 0)
(4.08799e-08 -2.64098e-06 0)
(4.08003e-08 -2.64706e-06 0)
(4.07204e-08 -2.65313e-06 0)
(4.06401e-08 -2.65922e-06 0)
(4.05595e-08 -2.6653e-06 0)
(4.04786e-08 -2.67139e-06 0)
(4.03974e-08 -2.67748e-06 0)
(4.03158e-08 -2.68357e-06 0)
(4.02338e-08 -2.68966e-06 0)
(4.01516e-08 -2.69575e-06 0)
(4.00689e-08 -2.70185e-06 0)
(3.9986e-08 -2.70795e-06 0)
(3.99027e-08 -2.71405e-06 0)
(3.98191e-08 -2.72015e-06 0)
(3.97351e-08 -2.72625e-06 0)
(3.96508e-08 -2.73236e-06 0)
(3.95661e-08 -2.73846e-06 0)
(3.94811e-08 -2.74457e-06 0)
(3.93957e-08 -2.75068e-06 0)
(3.931e-08 -2.75679e-06 0)
(3.9224e-08 -2.7629e-06 0)
(3.91376e-08 -2.76901e-06 0)
(3.90509e-08 -2.77512e-06 0)
(3.89638e-08 -2.78123e-06 0)
(3.88763e-08 -2.78735e-06 0)
(3.87886e-08 -2.79346e-06 0)
(3.87004e-08 -2.79958e-06 0)
(3.8612e-08 -2.80569e-06 0)
(3.85231e-08 -2.81181e-06 0)
(3.8434e-08 -2.81793e-06 0)
(3.83444e-08 -2.82404e-06 0)
(3.82546e-08 -2.83016e-06 0)
(3.81644e-08 -2.83627e-06 0)
(3.80738e-08 -2.84239e-06 0)
(3.79829e-08 -2.84851e-06 0)
(3.78916e-08 -2.85462e-06 0)
(3.78e-08 -2.86074e-06 0)
(3.7708e-08 -2.86685e-06 0)
(3.76157e-08 -2.87297e-06 0)
(3.7523e-08 -2.87908e-06 0)
(3.743e-08 -2.88519e-06 0)
(3.73366e-08 -2.89131e-06 0)
(3.72428e-08 -2.89742e-06 0)
(3.71488e-08 -2.90353e-06 0)
(3.70543e-08 -2.90964e-06 0)
(3.69595e-08 -2.91574e-06 0)
(3.68644e-08 -2.92185e-06 0)
(3.67689e-08 -2.92796e-06 0)
(3.6673e-08 -2.93406e-06 0)
(3.65768e-08 -2.94016e-06 0)
(3.64803e-08 -2.94626e-06 0)
(3.63834e-08 -2.95236e-06 0)
(3.62861e-08 -2.95846e-06 0)
(3.61885e-08 -2.96455e-06 0)
(3.60905e-08 -2.97065e-06 0)
(3.59922e-08 -2.97674e-06 0)
(3.58935e-08 -2.98282e-06 0)
(3.57945e-08 -2.98891e-06 0)
(3.56951e-08 -2.99499e-06 0)
(3.55953e-08 -3.00107e-06 0)
(3.54952e-08 -3.00715e-06 0)
(3.53948e-08 -3.01323e-06 0)
(3.5294e-08 -3.0193e-06 0)
(3.51928e-08 -3.02537e-06 0)
(3.50913e-08 -3.03143e-06 0)
(3.49895e-08 -3.03749e-06 0)
(3.48873e-08 -3.04355e-06 0)
(3.47847e-08 -3.04961e-06 0)
(3.46818e-08 -3.05566e-06 0)
(3.45785e-08 -3.06171e-06 0)
(3.44749e-08 -3.06775e-06 0)
(3.4371e-08 -3.07379e-06 0)
(3.42666e-08 -3.07983e-06 0)
(3.4162e-08 -3.08586e-06 0)
(3.4057e-08 -3.09189e-06 0)
(3.39516e-08 -3.09791e-06 0)
(3.38459e-08 -3.10393e-06 0)
(3.37398e-08 -3.10994e-06 0)
(3.36334e-08 -3.11595e-06 0)
(3.35267e-08 -3.12196e-06 0)
(3.34195e-08 -3.12795e-06 0)
(3.33121e-08 -3.13395e-06 0)
(3.32043e-08 -3.13994e-06 0)
(3.30961e-08 -3.14592e-06 0)
(3.29877e-08 -3.1519e-06 0)
(3.28788e-08 -3.15787e-06 0)
(3.27696e-08 -3.16384e-06 0)
(3.26601e-08 -3.1698e-06 0)
(3.25503e-08 -3.17575e-06 0)
(3.24401e-08 -3.1817e-06 0)
(3.23295e-08 -3.18764e-06 0)
(3.22186e-08 -3.19358e-06 0)
(3.21074e-08 -3.19951e-06 0)
(3.19958e-08 -3.20543e-06 0)
(3.18839e-08 -3.21135e-06 0)
(3.17717e-08 -3.21726e-06 0)
(3.16591e-08 -3.22316e-06 0)
(3.15462e-08 -3.22906e-06 0)
(3.14329e-08 -3.23494e-06 0)
(3.13194e-08 -3.24082e-06 0)
(3.12055e-08 -3.2467e-06 0)
(3.10912e-08 -3.25256e-06 0)
(3.09766e-08 -3.25842e-06 0)
(3.08617e-08 -3.26427e-06 0)
(3.07465e-08 -3.27011e-06 0)
(3.06309e-08 -3.27594e-06 0)
(3.05151e-08 -3.28177e-06 0)
(3.03988e-08 -3.28759e-06 0)
(3.02823e-08 -3.29339e-06 0)
(3.01655e-08 -3.29919e-06 0)
(3.00483e-08 -3.30498e-06 0)
(2.99308e-08 -3.31077e-06 0)
(2.9813e-08 -3.31654e-06 0)
(2.96948e-08 -3.3223e-06 0)
(2.95764e-08 -3.32805e-06 0)
(2.94576e-08 -3.3338e-06 0)
(2.93385e-08 -3.33953e-06 0)
(2.92191e-08 -3.34526e-06 0)
(2.90994e-08 -3.35097e-06 0)
(2.89794e-08 -3.35668e-06 0)
(2.88591e-08 -3.36237e-06 0)
(2.87385e-08 -3.36806e-06 0)
(2.86175e-08 -3.37373e-06 0)
(2.84963e-08 -3.37939e-06 0)
(2.83747e-08 -3.38504e-06 0)
(2.82529e-08 -3.39069e-06 0)
(2.81308e-08 -3.39632e-06 0)
(2.80083e-08 -3.40193e-06 0)
(2.78856e-08 -3.40754e-06 0)
(2.77626e-08 -3.41314e-06 0)
(2.76393e-08 -3.41872e-06 0)
(2.75157e-08 -3.42429e-06 0)
(2.73918e-08 -3.42985e-06 0)
(2.72676e-08 -3.4354e-06 0)
(2.71432e-08 -3.44094e-06 0)
(2.70184e-08 -3.44646e-06 0)
(2.68934e-08 -3.45197e-06 0)
(2.67681e-08 -3.45747e-06 0)
(2.66425e-08 -3.46296e-06 0)
(2.65167e-08 -3.46843e-06 0)
(2.63906e-08 -3.47389e-06 0)
(2.62642e-08 -3.47934e-06 0)
(2.61375e-08 -3.48477e-06 0)
(2.60109e-08 -3.4902e-06 0)
(2.58827e-08 -3.49557e-06 0)
(2.57611e-08 -3.50106e-06 0)
(2.56175e-08 -3.50633e-06 0)
(2.54618e-08 -3.51128e-06 0)
(2.5338e-08 -3.51627e-06 0)
(2.52266e-08 -3.52107e-06 0)
(2.51138e-08 -3.52579e-06 0)
(2.50003e-08 -3.53064e-06 0)
(2.48856e-08 -3.53555e-06 0)
(2.47695e-08 -3.54048e-06 0)
(2.46522e-08 -3.54542e-06 0)
(2.45335e-08 -3.5504e-06 0)
(2.44135e-08 -3.5554e-06 0)
(2.42922e-08 -3.56044e-06 0)
(2.41695e-08 -3.5655e-06 0)
(2.40455e-08 -3.5706e-06 0)
(2.39201e-08 -3.57572e-06 0)
(2.37934e-08 -3.58087e-06 0)
(2.36652e-08 -3.58605e-06 0)
(2.35357e-08 -3.59126e-06 0)
(2.34048e-08 -3.59649e-06 0)
(2.32725e-08 -3.60176e-06 0)
(2.31388e-08 -3.60704e-06 0)
(2.30037e-08 -3.61236e-06 0)
(2.28671e-08 -3.6177e-06 0)
(2.27292e-08 -3.62307e-06 0)
(2.25897e-08 -3.62846e-06 0)
(2.24489e-08 -3.63388e-06 0)
(2.23065e-08 -3.63932e-06 0)
(2.21627e-08 -3.64479e-06 0)
(2.20175e-08 -3.65027e-06 0)
(2.18707e-08 -3.65579e-06 0)
(2.17225e-08 -3.66132e-06 0)
(2.15727e-08 -3.66688e-06 0)
(2.14215e-08 -3.67245e-06 0)
(2.12687e-08 -3.67805e-06 0)
(2.11145e-08 -3.68367e-06 0)
(2.09587e-08 -3.68931e-06 0)
(2.08013e-08 -3.69496e-06 0)
(2.06425e-08 -3.70064e-06 0)
(2.04821e-08 -3.70633e-06 0)
(2.03202e-08 -3.71204e-06 0)
(2.01567e-08 -3.71776e-06 0)
(1.99916e-08 -3.7235e-06 0)
(1.9825e-08 -3.72926e-06 0)
(1.96569e-08 -3.73503e-06 0)
(1.94871e-08 -3.74081e-06 0)
(1.93158e-08 -3.7466e-06 0)
(1.91429e-08 -3.7524e-06 0)
(1.89685e-08 -3.75822e-06 0)
(1.87925e-08 -3.76404e-06 0)
(1.86149e-08 -3.76987e-06 0)
(1.84357e-08 -3.7757e-06 0)
(1.82549e-08 -3.78155e-06 0)
(1.80726e-08 -3.7874e-06 0)
(1.78887e-08 -3.79325e-06 0)
(1.77032e-08 -3.7991e-06 0)
(1.75161e-08 -3.80496e-06 0)
(1.73275e-08 -3.81082e-06 0)
(1.71373e-08 -3.81667e-06 0)
(1.69455e-08 -3.82253e-06 0)
(1.67522e-08 -3.82838e-06 0)
(1.65573e-08 -3.83422e-06 0)
(1.63608e-08 -3.84006e-06 0)
(1.61628e-08 -3.8459e-06 0)
(1.59633e-08 -3.85172e-06 0)
(1.57623e-08 -3.85753e-06 0)
(1.55597e-08 -3.86334e-06 0)
(1.53556e-08 -3.86912e-06 0)
(1.515e-08 -3.8749e-06 0)
(1.49429e-08 -3.88065e-06 0)
(1.47344e-08 -3.88639e-06 0)
(1.45244e-08 -3.89211e-06 0)
(1.43129e-08 -3.89781e-06 0)
(1.41e-08 -3.90349e-06 0)
(1.38856e-08 -3.90914e-06 0)
(1.36699e-08 -3.91476e-06 0)
(1.34527e-08 -3.92036e-06 0)
(1.32342e-08 -3.92592e-06 0)
(1.30144e-08 -3.93146e-06 0)
(1.27932e-08 -3.93695e-06 0)
(1.25707e-08 -3.94242e-06 0)
(1.23469e-08 -3.94784e-06 0)
(1.21218e-08 -3.95323e-06 0)
(1.18955e-08 -3.95857e-06 0)
(1.1668e-08 -3.96387e-06 0)
(1.14393e-08 -3.96912e-06 0)
(1.12095e-08 -3.97433e-06 0)
(1.09785e-08 -3.97948e-06 0)
(1.07465e-08 -3.98458e-06 0)
(1.05133e-08 -3.98962e-06 0)
(1.02792e-08 -3.99461e-06 0)
(1.0044e-08 -3.99954e-06 0)
(9.80789e-09 -4.0044e-06 0)
(9.57084e-09 -4.0092e-06 0)
(9.33293e-09 -4.01394e-06 0)
(9.09415e-09 -4.0186e-06 0)
(8.85459e-09 -4.02319e-06 0)
(8.61426e-09 -4.02771e-06 0)
(8.37322e-09 -4.03215e-06 0)
(8.1315e-09 -4.03651e-06 0)
(7.88918e-09 -4.04079e-06 0)
(7.64627e-09 -4.04498e-06 0)
(7.40284e-09 -4.04908e-06 0)
(7.15894e-09 -4.0531e-06 0)
(6.91462e-09 -4.05702e-06 0)
(6.66993e-09 -4.06084e-06 0)
(6.42494e-09 -4.06457e-06 0)
(6.17969e-09 -4.0682e-06 0)
(5.93426e-09 -4.07172e-06 0)
(5.68868e-09 -4.07514e-06 0)
(5.44304e-09 -4.07845e-06 0)
(5.19738e-09 -4.08164e-06 0)
(4.95178e-09 -4.08472e-06 0)
(4.7063e-09 -4.08768e-06 0)
(4.461e-09 -4.09052e-06 0)
(4.21596e-09 -4.09323e-06 0)
(3.97125e-09 -4.09583e-06 0)
(3.72692e-09 -4.09828e-06 0)
(3.48306e-09 -4.10061e-06 0)
(3.23974e-09 -4.1028e-06 0)
(2.99704e-09 -4.10486e-06 0)
(2.75501e-09 -4.10678e-06 0)
(2.51376e-09 -4.10855e-06 0)
(2.27334e-09 -4.11017e-06 0)
(2.03384e-09 -4.11165e-06 0)
(1.79534e-09 -4.11297e-06 0)
(1.55792e-09 -4.11415e-06 0)
(1.32165e-09 -4.11516e-06 0)
(1.08663e-09 -4.11601e-06 0)
(8.52922e-10 -4.1167e-06 0)
(6.20623e-10 -4.11723e-06 0)
(3.89811e-10 -4.11758e-06 0)
(1.60571e-10 -4.11778e-06 0)
(-6.70124e-11 -4.11779e-06 0)
(-2.92854e-10 -4.11763e-06 0)
(-5.16868e-10 -4.11729e-06 0)
(-7.3897e-10 -4.11678e-06 0)
(-9.59071e-10 -4.11607e-06 0)
(-1.17709e-09 -4.11519e-06 0)
(-1.39293e-09 -4.11411e-06 0)
(-1.60651e-09 -4.11286e-06 0)
(-1.81775e-09 -4.1114e-06 0)
(-2.02655e-09 -4.10976e-06 0)
(-2.23283e-09 -4.10792e-06 0)
(-2.4365e-09 -4.10589e-06 0)
(-2.63747e-09 -4.10365e-06 0)
(-2.83566e-09 -4.10122e-06 0)
(-3.03098e-09 -4.09858e-06 0)
(-3.22335e-09 -4.09574e-06 0)
(-3.41268e-09 -4.09269e-06 0)
(-3.59888e-09 -4.08945e-06 0)
(-3.78187e-09 -4.08599e-06 0)
(-3.96159e-09 -4.08233e-06 0)
(-4.13792e-09 -4.07845e-06 0)
(-4.31082e-09 -4.07437e-06 0)
(-4.48017e-09 -4.07007e-06 0)
(-4.64595e-09 -4.06557e-06 0)
(-4.80804e-09 -4.06085e-06 0)
(-4.9664e-09 -4.05593e-06 0)
(-5.12095e-09 -4.05078e-06 0)
(-5.27164e-09 -4.04544e-06 0)
(-5.41838e-09 -4.03987e-06 0)
(-5.56116e-09 -4.0341e-06 0)
(-5.69988e-09 -4.0281e-06 0)
(-5.83453e-09 -4.02191e-06 0)
(-5.96502e-09 -4.01549e-06 0)
(-6.09135e-09 -4.00888e-06 0)
(-6.21343e-09 -4.00205e-06 0)
(-6.33128e-09 -3.99502e-06 0)
(-6.4448e-09 -3.98777e-06 0)
(-6.55402e-09 -3.98033e-06 0)
(-6.65885e-09 -3.97266e-06 0)
(-6.75931e-09 -3.96482e-06 0)
(-6.85533e-09 -3.95675e-06 0)
(-6.94692e-09 -3.94851e-06 0)
(-7.034e-09 -3.94004e-06 0)
(-7.11661e-09 -3.9314e-06 0)
(-7.19463e-09 -3.92255e-06 0)
(-7.26807e-09 -3.91353e-06 0)
(-7.33696e-09 -3.90429e-06 0)
(-7.40088e-09 -3.89494e-06 0)
(-7.46211e-09 -3.8852e-06 0)
(-7.51226e-09 -3.87551e-06 0)
(-7.55555e-09 -3.86467e-06 0)
(-7.60552e-09 -3.85222e-06 0)
(-7.6536e-09 -3.8398e-06 0)
(-7.69473e-09 -3.82745e-06 0)
(-7.72957e-09 -3.81494e-06 0)
(-7.75817e-09 -3.80239e-06 0)
(-7.78062e-09 -3.78977e-06 0)
(-7.79721e-09 -3.77717e-06 0)
(-7.80805e-09 -3.76451e-06 0)
(-7.81349e-09 -3.75187e-06 0)
(-7.81361e-09 -3.73919e-06 0)
(-7.80876e-09 -3.72654e-06 0)
(-7.79902e-09 -3.71388e-06 0)
(-7.78472e-09 -3.70127e-06 0)
(-7.76594e-09 -3.68866e-06 0)
(-7.74299e-09 -3.67611e-06 0)
(-7.71593e-09 -3.66357e-06 0)
(-7.68506e-09 -3.65111e-06 0)
(-7.65043e-09 -3.63867e-06 0)
(-7.61231e-09 -3.62632e-06 0)
(-7.57075e-09 -3.614e-06 0)
(-7.526e-09 -3.60179e-06 0)
(-7.47808e-09 -3.58962e-06 0)
(-7.42724e-09 -3.57756e-06 0)
(-7.37348e-09 -3.56556e-06 0)
(-7.31705e-09 -3.55367e-06 0)
(-7.25793e-09 -3.54185e-06 0)
(-7.19635e-09 -3.53016e-06 0)
(-7.13228e-09 -3.51854e-06 0)
(-7.06595e-09 -3.50705e-06 0)
(-6.99732e-09 -3.49564e-06 0)
(-6.9266e-09 -3.48438e-06 0)
(-6.85376e-09 -3.4732e-06 0)
(-6.77897e-09 -3.46218e-06 0)
(-6.70222e-09 -3.45124e-06 0)
(-6.62367e-09 -3.44046e-06 0)
(-6.54329e-09 -3.42978e-06 0)
(-6.46126e-09 -3.41926e-06 0)
(-6.37751e-09 -3.40885e-06 0)
(-6.29222e-09 -3.3986e-06 0)
(-6.20534e-09 -3.38847e-06 0)
(-6.11702e-09 -3.3785e-06 0)
(-6.02722e-09 -3.36865e-06 0)
(-5.93608e-09 -3.35897e-06 0)
(-5.84354e-09 -3.34942e-06 0)
(-5.74976e-09 -3.34004e-06 0)
(-5.65466e-09 -3.33079e-06 0)
(-5.55838e-09 -3.32172e-06 0)
(-5.46087e-09 -3.31278e-06 0)
(-5.36225e-09 -3.30403e-06 0)
(-5.26247e-09 -3.29541e-06 0)
(-5.16164e-09 -3.28698e-06 0)
(-5.0597e-09 -3.27869e-06 0)
(-4.95676e-09 -3.27059e-06 0)
(-4.85277e-09 -3.26263e-06 0)
(-4.74784e-09 -3.25487e-06 0)
(-4.6419e-09 -3.24725e-06 0)
(-4.53506e-09 -3.23983e-06 0)
(-4.42727e-09 -3.23256e-06 0)
(-4.31861e-09 -3.22549e-06 0)
(-4.20904e-09 -3.21857e-06 0)
(-4.09865e-09 -3.21185e-06 0)
(-3.98739e-09 -3.20529e-06 0)
(-3.87534e-09 -3.19893e-06 0)
(-3.76247e-09 -3.19273e-06 0)
(-3.64885e-09 -3.18673e-06 0)
(-3.53445e-09 -3.1809e-06 0)
(-3.41933e-09 -3.17528e-06 0)
(-3.30348e-09 -3.16982e-06 0)
(-3.18695e-09 -3.16457e-06 0)
(-3.06972e-09 -3.15949e-06 0)
(-2.95185e-09 -3.15462e-06 0)
(-2.83333e-09 -3.14992e-06 0)
(-2.7142e-09 -3.14543e-06 0)
(-2.59445e-09 -3.14112e-06 0)
(-2.47413e-09 -3.13702e-06 0)
(-2.35324e-09 -3.1331e-06 0)
(-2.23179e-09 -3.12939e-06 0)
(-2.1098e-09 -3.12586e-06 0)
(-1.98729e-09 -3.12254e-06 0)
(-1.86427e-09 -3.11941e-06 0)
(-1.74076e-09 -3.11649e-06 0)
(-1.61678e-09 -3.11376e-06 0)
(-1.49237e-09 -3.11124e-06 0)
(-1.36757e-09 -3.10891e-06 0)
(-1.24247e-09 -3.10681e-06 0)
(-1.11717e-09 -3.10482e-06 0)
(-9.91889e-10 -3.10333e-06 0)
(-8.66724e-10 -3.1011e-06 0)
(-7.42336e-10 -3.10214e-06 0)
(-6.17428e-10 -3.09298e-06 0)
(-4.96818e-10 -3.11723e-06 0)
(-3.61532e-10 -3.02324e-06 0)
(-2.77245e-10 -3.27101e-06 0)
(-1.35352e-10 -2.85658e-06 0)
)
;
    }
    bottomWall
    {
        type            calculated;
        value           nonuniform List<vector> 
449
(
(-52.8419 -0.957228 0)
(-34.8334 -0.00280616 0)
(-34.4335 -0.000257775 0)
(-33.0596 -0.000366348 0)
(-31.9253 -0.000317319 0)
(-30.8832 -0.00028588 0)
(-29.9604 -0.000250901 0)
(-29.155 -0.000218718 0)
(-28.4507 -0.000191609 0)
(-27.8296 -0.000169525 0)
(-27.2754 -0.000151538 0)
(-26.7764 -0.000136677 0)
(-26.3233 -0.000124213 0)
(-25.9092 -0.000113534 0)
(-25.5288 -0.000104211 0)
(-25.1784 -9.60018e-05 0)
(-24.8542 -8.87969e-05 0)
(-24.553 -8.24589e-05 0)
(-24.2721 -7.68796e-05 0)
(-24.009 -7.19775e-05 0)
(-23.7616 -6.76241e-05 0)
(-23.5283 -6.3737e-05 0)
(-23.3074 -6.02645e-05 0)
(-23.0978 -5.71329e-05 0)
(-22.8983 -5.42932e-05 0)
(-22.7081 -5.17133e-05 0)
(-22.5262 -4.93532e-05 0)
(-22.3521 -4.71894e-05 0)
(-22.1851 -4.51974e-05 0)
(-22.0246 -4.33474e-05 0)
(-21.8702 -4.16285e-05 0)
(-21.7216 -4.00344e-05 0)
(-21.5781 -3.85496e-05 0)
(-21.4396 -3.71639e-05 0)
(-21.3056 -3.58654e-05 0)
(-21.176 -3.46404e-05 0)
(-21.0504 -3.34931e-05 0)
(-20.9287 -3.24105e-05 0)
(-20.8105 -3.13935e-05 0)
(-20.6958 -3.04274e-05 0)
(-20.5843 -2.95119e-05 0)
(-20.4759 -2.8642e-05 0)
(-20.3703 -2.78109e-05 0)
(-20.2676 -2.70108e-05 0)
(-20.1676 -2.62457e-05 0)
(-20.0702 -2.55101e-05 0)
(-19.9752 -2.48055e-05 0)
(-19.8827 -2.41275e-05 0)
(-19.7925 -2.34764e-05 0)
(-19.7045 -2.2854e-05 0)
(-19.6186 -2.22562e-05 0)
(-19.5347 -2.1689e-05 0)
(-19.4527 -2.1139e-05 0)
(-19.3727 -2.06149e-05 0)
(-19.2944 -2.01122e-05 0)
(-19.2179 -1.96338e-05 0)
(-19.1429 -1.91722e-05 0)
(-19.0696 -1.87288e-05 0)
(-18.9977 -1.83029e-05 0)
(-18.9273 -1.78949e-05 0)
(-18.8583 -1.75005e-05 0)
(-18.7907 -1.71236e-05 0)
(-18.7243 -1.67561e-05 0)
(-18.6593 -1.64032e-05 0)
(-18.5953 -1.60635e-05 0)
(-18.5327 -1.57385e-05 0)
(-18.471 -1.54203e-05 0)
(-18.4106 -1.51121e-05 0)
(-18.351 -1.48151e-05 0)
(-18.2927 -1.45258e-05 0)
(-18.2352 -1.42446e-05 0)
(-18.1789 -1.39683e-05 0)
(-18.1233 -1.37075e-05 0)
(-18.0688 -1.3451e-05 0)
(-18.0151 -1.32035e-05 0)
(-17.9623 -1.29604e-05 0)
(-17.9103 -1.2726e-05 0)
(-17.8592 -1.24948e-05 0)
(-17.8088 -1.22722e-05 0)
(-17.7593 -1.20535e-05 0)
(-17.7105 -1.18478e-05 0)
(-17.6624 -1.16429e-05 0)
(-17.615 -1.14474e-05 0)
(-17.5683 -1.1249e-05 0)
(-17.5223 -1.1061e-05 0)
(-17.477 -1.08712e-05 0)
(-17.4324 -1.06946e-05 0)
(-17.3883 -1.05224e-05 0)
(-17.3449 -1.03529e-05 0)
(-17.302 -1.01848e-05 0)
(-17.2598 -1.00203e-05 0)
(-17.2181 -9.8589e-06 0)
(-17.1771 -9.70572e-06 0)
(-17.1364 -9.55411e-06 0)
(-17.0965 -9.40726e-06 0)
(-17.0569 -9.26445e-06 0)
(-17.018 -9.1268e-06 0)
(-16.9794 -8.98882e-06 0)
(-16.9415 -8.8547e-06 0)
(-16.9039 -8.72089e-06 0)
(-16.8669 -8.59302e-06 0)
(-16.8302 -8.46804e-06 0)
(-16.7942 -8.34576e-06 0)
(-16.7584 -8.22412e-06 0)
(-16.7232 -8.10915e-06 0)
(-16.6882 -7.99508e-06 0)
(-16.6539 -7.88343e-06 0)
(-16.6197 -7.77667e-06 0)
(-16.5861 -7.66718e-06 0)
(-16.5527 -7.56305e-06 0)
(-16.5199 -7.45625e-06 0)
(-16.4873 -7.35436e-06 0)
(-16.4552 -7.25422e-06 0)
(-16.4234 -7.15853e-06 0)
(-16.392 -7.06356e-06 0)
(-16.3608 -6.97383e-06 0)
(-16.3301 -6.88597e-06 0)
(-16.2995 -6.79797e-06 0)
(-16.2694 -6.70759e-06 0)
(-16.2396 -6.62243e-06 0)
(-16.2101 -6.53979e-06 0)
(-16.1808 -6.45544e-06 0)
(-16.152 -6.37245e-06 0)
(-16.1233 -6.29082e-06 0)
(-16.0951 -6.21159e-06 0)
(-16.067 -6.13366e-06 0)
(-16.0393 -6.06013e-06 0)
(-16.0118 -5.98752e-06 0)
(-15.9847 -5.91794e-06 0)
(-15.9576 -5.84906e-06 0)
(-15.931 -5.77964e-06 0)
(-15.9045 -5.71127e-06 0)
(-15.8784 -5.64054e-06 0)
(-15.8524 -5.57267e-06 0)
(-15.8268 -5.50703e-06 0)
(-15.8013 -5.44162e-06 0)
(-15.7761 -5.37841e-06 0)
(-15.7511 -5.31694e-06 0)
(-15.7264 -5.2575e-06 0)
(-15.7019 -5.20112e-06 0)
(-15.6776 -5.14272e-06 0)
(-15.6534 -5.08872e-06 0)
(-15.6296 -5.03379e-06 0)
(-15.6058 -4.98189e-06 0)
(-15.5824 -4.92707e-06 0)
(-15.559 -4.875e-06 0)
(-15.5359 -4.82074e-06 0)
(-15.513 -4.76649e-06 0)
(-15.4903 -4.71357e-06 0)
(-15.4678 -4.66297e-06 0)
(-15.4455 -4.61377e-06 0)
(-15.4233 -4.56207e-06 0)
(-15.4014 -4.51594e-06 0)
(-15.3796 -4.46739e-06 0)
(-15.358 -4.42151e-06 0)
(-15.3366 -4.37653e-06 0)
(-15.3154 -4.3337e-06 0)
(-15.2942 -4.2894e-06 0)
(-15.2733 -4.24648e-06 0)
(-15.2525 -4.20568e-06 0)
(-15.2319 -4.16238e-06 0)
(-15.2114 -4.12028e-06 0)
(-15.1912 -4.07886e-06 0)
(-15.171 -4.03598e-06 0)
(-15.1511 -3.99346e-06 0)
(-15.1312 -3.9568e-06 0)
(-15.1116 -3.9199e-06 0)
(-15.092 -3.88248e-06 0)
(-15.0727 -3.84652e-06 0)
(-15.0533 -3.80993e-06 0)
(-15.0343 -3.77375e-06 0)
(-15.0152 -3.73752e-06 0)
(-14.9964 -3.70791e-06 0)
(-14.9786 -3.68838e-06 0)
(-14.962 -3.65927e-06 0)
(-14.9452 -3.62221e-06 0)
(-14.9285 -3.58761e-06 0)
(-14.9117 -3.55299e-06 0)
(-14.895 -3.5171e-06 0)
(-14.8782 -3.48698e-06 0)
(-14.8614 -3.45468e-06 0)
(-14.8445 -3.42199e-06 0)
(-14.8276 -3.39143e-06 0)
(-14.8107 -3.36063e-06 0)
(-14.7938 -3.32885e-06 0)
(-14.7768 -3.29875e-06 0)
(-14.7599 -3.27012e-06 0)
(-14.7428 -3.24326e-06 0)
(-14.7258 -3.21364e-06 0)
(-14.7087 -3.1832e-06 0)
(-14.6916 -3.14885e-06 0)
(-14.6745 -3.12227e-06 0)
(-14.6573 -3.09201e-06 0)
(-14.6402 -3.06003e-06 0)
(-14.623 -3.03124e-06 0)
(-14.6058 -3.00473e-06 0)
(-14.5885 -2.97906e-06 0)
(-14.5713 -2.9504e-06 0)
(-14.554 -2.92262e-06 0)
(-14.5367 -2.89317e-06 0)
(-14.5194 -2.86457e-06 0)
(-14.502 -2.83646e-06 0)
(-14.4847 -2.80819e-06 0)
(-14.4673 -2.77984e-06 0)
(-14.4499 -2.75054e-06 0)
(-14.4326 -2.72359e-06 0)
(-14.4152 -2.69219e-06 0)
(-14.3978 -2.66519e-06 0)
(-14.3804 -2.6383e-06 0)
(-14.363 -2.6136e-06 0)
(-14.3455 -2.58719e-06 0)
(-14.3282 -2.5619e-06 0)
(-14.3106 -2.53912e-06 0)
(-14.2932 -2.51555e-06 0)
(-14.2756 -2.48972e-06 0)
(-14.2581 -2.46241e-06 0)
(-14.2406 -2.43736e-06 0)
(-14.2231 -2.41199e-06 0)
(-14.2055 -2.38972e-06 0)
(-14.188 -2.36237e-06 0)
(-14.1704 -2.33749e-06 0)
(-14.1529 -2.31085e-06 0)
(-14.1354 -2.28517e-06 0)
(-14.1178 -2.26168e-06 0)
(-14.1003 -2.23515e-06 0)
(-14.0828 -2.21273e-06 0)
(-14.0652 -2.18975e-06 0)
(-14.0477 -2.16313e-06 0)
(-14.0302 -2.14281e-06 0)
(-14.0126 -2.11763e-06 0)
(-13.9952 -2.0942e-06 0)
(-13.9776 -2.07228e-06 0)
(-13.9601 -2.04828e-06 0)
(-13.9426 -2.02601e-06 0)
(-13.9251 -2.00362e-06 0)
(-13.9076 -1.98071e-06 0)
(-13.8902 -1.95738e-06 0)
(-13.8727 -1.93599e-06 0)
(-13.8552 -1.91795e-06 0)
(-13.8377 -1.8982e-06 0)
(-13.8202 -1.87835e-06 0)
(-13.8027 -1.859e-06 0)
(-13.7852 -1.83806e-06 0)
(-13.7677 -1.81489e-06 0)
(-13.7503 -1.79474e-06 0)
(-13.7328 -1.7752e-06 0)
(-13.7154 -1.75253e-06 0)
(-13.6979 -1.73284e-06 0)
(-13.6806 -1.71415e-06 0)
(-13.6631 -1.69485e-06 0)
(-13.6458 -1.67602e-06 0)
(-13.6283 -1.65586e-06 0)
(-13.611 -1.63584e-06 0)
(-13.5936 -1.61801e-06 0)
(-13.5763 -1.59946e-06 0)
(-13.559 -1.58076e-06 0)
(-13.5417 -1.56009e-06 0)
(-13.5244 -1.54334e-06 0)
(-13.5071 -1.52471e-06 0)
(-13.4899 -1.50667e-06 0)
(-13.4727 -1.48947e-06 0)
(-13.4555 -1.47143e-06 0)
(-13.4383 -1.4532e-06 0)
(-13.4211 -1.43495e-06 0)
(-13.404 -1.41917e-06 0)
(-13.3869 -1.4018e-06 0)
(-13.3698 -1.38636e-06 0)
(-13.3527 -1.37151e-06 0)
(-13.3356 -1.35504e-06 0)
(-13.3185 -1.33671e-06 0)
(-13.3015 -1.31947e-06 0)
(-13.2845 -1.30487e-06 0)
(-13.2675 -1.29147e-06 0)
(-13.2505 -1.27746e-06 0)
(-13.2335 -1.25956e-06 0)
(-13.2166 -1.24519e-06 0)
(-13.1997 -1.23029e-06 0)
(-13.1828 -1.21453e-06 0)
(-13.1659 -1.20131e-06 0)
(-13.149 -1.18712e-06 0)
(-13.1322 -1.17464e-06 0)
(-13.1153 -1.15883e-06 0)
(-13.0986 -1.1441e-06 0)
(-13.0818 -1.13016e-06 0)
(-13.0651 -1.1165e-06 0)
(-13.0483 -1.10212e-06 0)
(-13.0317 -1.086e-06 0)
(-13.015 -1.07347e-06 0)
(-12.9984 -1.06182e-06 0)
(-12.9818 -1.05003e-06 0)
(-12.9652 -1.03778e-06 0)
(-12.9486 -1.0226e-06 0)
(-12.9322 -1.00979e-06 0)
(-12.9156 -9.97629e-07 0)
(-12.8992 -9.83653e-07 0)
(-12.8828 -9.71739e-07 0)
(-12.8664 -9.60964e-07 0)
(-12.85 -9.4785e-07 0)
(-12.8337 -9.3773e-07 0)
(-12.8173 -9.25886e-07 0)
(-12.8011 -9.14e-07 0)
(-12.7847 -9.04519e-07 0)
(-12.7685 -8.9102e-07 0)
(-12.7523 -8.77437e-07 0)
(-12.7362 -8.64062e-07 0)
(-12.7201 -8.55112e-07 0)
(-12.7041 -8.46562e-07 0)
(-12.688 -8.35768e-07 0)
(-12.672 -8.24338e-07 0)
(-12.6559 -8.13116e-07 0)
(-12.64 -8.01743e-07 0)
(-12.6241 -7.92773e-07 0)
(-12.6082 -7.81646e-07 0)
(-12.5924 -7.69838e-07 0)
(-12.5767 -7.60545e-07 0)
(-12.5609 -7.51933e-07 0)
(-12.5452 -7.42144e-07 0)
(-12.5295 -7.32154e-07 0)
(-12.5138 -7.22528e-07 0)
(-12.4982 -7.14042e-07 0)
(-12.4826 -7.04949e-07 0)
(-12.467 -6.95047e-07 0)
(-12.4515 -6.84977e-07 0)
(-12.4361 -6.76865e-07 0)
(-12.4206 -6.68337e-07 0)
(-12.4052 -6.59925e-07 0)
(-12.3898 -6.50696e-07 0)
(-12.3745 -6.41759e-07 0)
(-12.3592 -6.33425e-07 0)
(-12.344 -6.25805e-07 0)
(-12.3287 -6.1602e-07 0)
(-12.3137 -6.07452e-07 0)
(-12.2984 -6.01104e-07 0)
(-12.2834 -5.92982e-07 0)
(-12.2683 -5.83497e-07 0)
(-12.2534 -5.74466e-07 0)
(-12.2384 -5.68446e-07 0)
(-12.2235 -5.61425e-07 0)
(-12.2086 -5.53691e-07 0)
(-12.1938 -5.46829e-07 0)
(-12.1789 -5.3936e-07 0)
(-12.1642 -5.31021e-07 0)
(-12.1494 -5.24349e-07 0)
(-12.1348 -5.17418e-07 0)
(-12.1201 -5.10589e-07 0)
(-12.1055 -5.04421e-07 0)
(-12.0909 -4.97355e-07 0)
(-12.0764 -4.89934e-07 0)
(-12.0619 -4.83865e-07 0)
(-12.0474 -4.76875e-07 0)
(-12.033 -4.70011e-07 0)
(-12.0187 -4.63967e-07 0)
(-12.0043 -4.57715e-07 0)
(-11.9901 -4.48905e-07 0)
(-11.9744 -4.39922e-07 0)
(-11.9574 -4.32008e-07 0)
(-11.9406 -4.26195e-07 0)
(-11.9241 -4.19838e-07 0)
(-11.9079 -4.13527e-07 0)
(-11.8918 -4.07555e-07 0)
(-11.876 -4.01466e-07 0)
(-11.8604 -3.95614e-07 0)
(-11.8451 -3.90514e-07 0)
(-11.8299 -3.84118e-07 0)
(-11.8151 -3.77904e-07 0)
(-11.8004 -3.72774e-07 0)
(-11.786 -3.67641e-07 0)
(-11.7717 -3.62503e-07 0)
(-11.7577 -3.57951e-07 0)
(-11.7437 -3.5303e-07 0)
(-11.7301 -3.4776e-07 0)
(-11.7165 -3.43668e-07 0)
(-11.7032 -3.38388e-07 0)
(-11.6901 -3.34449e-07 0)
(-11.6771 -3.30473e-07 0)
(-11.6643 -3.25426e-07 0)
(-11.6517 -3.19797e-07 0)
(-11.6393 -3.16306e-07 0)
(-11.627 -3.12652e-07 0)
(-11.6149 -3.09799e-07 0)
(-11.6028 -3.06022e-07 0)
(-11.591 -3.01441e-07 0)
(-11.5792 -2.98793e-07 0)
(-11.5676 -2.94689e-07 0)
(-11.5562 -2.90833e-07 0)
(-11.5449 -2.88165e-07 0)
(-11.5337 -2.86486e-07 0)
(-11.5225 -2.83389e-07 0)
(-11.5115 -2.80204e-07 0)
(-11.5006 -2.76453e-07 0)
(-11.4899 -2.72856e-07 0)
(-11.4793 -2.69019e-07 0)
(-11.4689 -2.65383e-07 0)
(-11.4586 -2.62554e-07 0)
(-11.4484 -2.59203e-07 0)
(-11.4383 -2.56389e-07 0)
(-11.4284 -2.53505e-07 0)
(-11.4185 -2.50266e-07 0)
(-11.4089 -2.48275e-07 0)
(-11.3991 -2.45634e-07 0)
(-11.3897 -2.42527e-07 0)
(-11.3802 -2.40315e-07 0)
(-11.3709 -2.37619e-07 0)
(-11.3617 -2.35601e-07 0)
(-11.3525 -2.33761e-07 0)
(-11.3434 -2.32452e-07 0)
(-11.3343 -2.29059e-07 0)
(-11.3255 -2.2732e-07 0)
(-11.3166 -2.25022e-07 0)
(-11.3079 -2.22233e-07 0)
(-11.2992 -2.19873e-07 0)
(-11.2908 -2.17063e-07 0)
(-11.2823 -2.14581e-07 0)
(-11.274 -2.12833e-07 0)
(-11.2657 -2.11384e-07 0)
(-11.2575 -2.09404e-07 0)
(-11.2493 -2.07193e-07 0)
(-11.2413 -2.05186e-07 0)
(-11.2333 -2.03282e-07 0)
(-11.2254 -2.0089e-07 0)
(-11.2176 -1.99016e-07 0)
(-11.2099 -1.98342e-07 0)
(-11.2021 -1.97121e-07 0)
(-11.1945 -1.94224e-07 0)
(-11.1869 -1.93988e-07 0)
(-11.1793 -1.92688e-07 0)
(-11.1719 -1.91621e-07 0)
(-11.1644 -1.89962e-07 0)
(-11.157 -1.88305e-07 0)
(-11.1497 -1.86227e-07 0)
(-11.1425 -1.85424e-07 0)
(-11.1352 -1.82401e-07 0)
(-11.1283 -1.81886e-07 0)
(-11.121 -1.79113e-07 0)
(-11.1143 -1.79497e-07 0)
(-11.107 -1.77814e-07 0)
(-11.1004 -1.77435e-07 0)
(-11.0931 -1.75638e-07 0)
(-11.0867 -1.73365e-07 0)
(-11.0796 -1.71858e-07 0)
(-11.0733 -1.68524e-07 0)
(-11.0665 -1.70692e-07 0)
(-11.06 -1.61583e-07 0)
(-11.0539 -1.73861e-07 0)
(-11.0464 -1.49821e-07 0)
(-11.0422 -1.86606e-07 0)
(-11.0317 -1.27586e-07 0)
(-11.0324 -1.63115e-07 0)
(-11.0188 -1.7914e-07 0)
)
;
    }
    symmetry
    {
        type            symmetryPlane;
    }
    frontAndBack
    {
        type            empty;
    }
}


// ************************************************************************* //
