/*--------------------------------*- C++ -*----------------------------------*\
| =========                 |                                                 |
| \\      /  F ield         | OpenFOAM: The Open Source CFD Toolbox           |
|  \\    /   O peration     | Version:  v2012                                 |
|   \\  /    A nd           | Website:  www.openfoam.com                      |
|    \\/     M anipulation  |                                                 |
\*---------------------------------------------------------------------------*/
FoamFile
{
    version     2.0;
    format      ascii;
    class       volScalarField;
    location    "25.5";
    object      yPlus;
}
// * * * * * * * * * * * * * * * * * * * * * * * * * * * * * * * * * * * * * //

dimensions      [0 0 0 0 0 0 0];


internalField   uniform 0;

boundaryField
{
    inlet
    {
        type            calculated;
        value           uniform 0;
    }
    outlet
    {
        type            calculated;
        value           uniform 0;
    }
    topWall
    {
        type            calculated;
        value           nonuniform List<scalar> 
545
(
0.137597
0.237388
0.304551
0.357962
0.403165
0.442703
0.478005
0.509971
0.539213
0.566171
0.591174
0.614478
0.636286
0.656762
0.676043
0.694243
0.711458
0.727773
0.743259
0.757981
0.771994
0.785349
0.798089
0.810256
0.821885
0.833009
0.843658
0.853859
0.863638
0.873018
0.88202
0.890665
0.89897
0.906952
0.914628
0.922012
0.929118
0.93596
0.942549
0.948898
0.955016
0.960914
0.966602
0.972088
0.977382
0.982491
0.987423
0.992186
0.996786
1.00123
1.00552
1.00967
1.01368
1.01756
1.02131
1.02494
1.02845
1.03184
1.03513
1.03831
1.04139
1.04437
1.04725
1.05005
1.05275
1.05538
1.05792
1.06038
1.06276
1.06507
1.06731
1.06949
1.07156
1.07357
1.07556
1.07754
1.0795
1.08144
1.08336
1.08527
1.08717
1.08905
1.09091
1.09275
1.09459
1.0964
1.0982
1.09999
1.10176
1.10352
1.10526
1.10699
1.1087
1.1104
1.11209
1.11376
1.11526
1.11661
1.11795
1.11929
1.12064
1.12198
1.12332
1.12466
1.126
1.12733
1.12867
1.13001
1.13134
1.13268
1.13401
1.13535
1.13668
1.13801
1.13934
1.14067
1.142
1.14333
1.14465
1.14598
1.14731
1.14863
1.14995
1.15128
1.1526
1.15392
1.15524
1.15656
1.15787
1.15919
1.1605
1.16182
1.16313
1.16444
1.16575
1.16706
1.16837
1.16968
1.17099
1.17229
1.1736
1.1749
1.1762
1.1775
1.1788
1.1801
1.18139
1.18269
1.18398
1.18527
1.18657
1.18786
1.18914
1.19043
1.19172
1.193
1.19428
1.19557
1.19685
1.19812
1.1994
1.20068
1.20195
1.20322
1.20449
1.20576
1.20703
1.2083
1.20956
1.21083
1.21209
1.21335
1.21461
1.21586
1.21712
1.21837
1.21962
1.22087
1.22212
1.22337
1.22461
1.22585
1.22709
1.22833
1.22957
1.2308
1.23204
1.23327
1.2345
1.23573
1.23695
1.23818
1.2394
1.24062
1.24183
1.24305
1.24426
1.24548
1.24668
1.24789
1.2491
1.2503
1.2515
1.2527
1.2539
1.25509
1.25628
1.25747
1.25866
1.25985
1.26103
1.26221
1.26339
1.26456
1.26574
1.26691
1.26808
1.26924
1.27041
1.27157
1.27273
1.27388
1.27504
1.27619
1.27734
1.27848
1.27963
1.28077
1.28191
1.28304
1.28418
1.28531
1.28643
1.28756
1.28868
1.2898
1.29092
1.29203
1.29314
1.29425
1.29536
1.29646
1.29756
1.29865
1.29975
1.30084
1.30193
1.30301
1.30409
1.30517
1.30625
1.30732
1.30839
1.30945
1.31052
1.31158
1.31263
1.31369
1.31474
1.31578
1.31683
1.31787
1.31891
1.31994
1.32097
1.322
1.32302
1.32404
1.32506
1.32601
1.32691
1.32782
1.32873
1.32964
1.33056
1.33149
1.33242
1.33335
1.33429
1.33524
1.33619
1.33714
1.3381
1.33907
1.34003
1.34101
1.34198
1.34297
1.34395
1.34494
1.34594
1.34694
1.34794
1.34894
1.34995
1.35097
1.35199
1.35301
1.35403
1.35506
1.35609
1.35712
1.35816
1.3592
1.36024
1.36128
1.36233
1.36338
1.36443
1.36549
1.36654
1.3676
1.36866
1.36972
1.37078
1.37184
1.3729
1.37396
1.37503
1.37609
1.37716
1.37822
1.37928
1.38035
1.38141
1.38247
1.38353
1.38459
1.38565
1.3867
1.38776
1.38881
1.38986
1.3909
1.39194
1.39298
1.39402
1.39505
1.39608
1.3971
1.39812
1.39913
1.40014
1.40114
1.40213
1.40312
1.4041
1.40508
1.40604
1.407
1.40795
1.4089
1.40983
1.41076
1.41167
1.41258
1.41347
1.41436
1.41523
1.41609
1.41694
1.41778
1.4186
1.41941
1.42021
1.42099
1.42176
1.42252
1.42325
1.42398
1.42468
1.42537
1.42605
1.4267
1.42734
1.42796
1.42856
1.42914
1.4297
1.43024
1.43076
1.43126
1.43173
1.43219
1.43262
1.43303
1.43341
1.43377
1.43411
1.43442
1.4347
1.43496
1.43519
1.4354
1.43558
1.43573
1.43585
1.43594
1.43601
1.43604
1.43604
1.43602
1.43596
1.43587
1.43575
1.4356
1.43541
1.43519
1.43494
1.43465
1.43433
1.43398
1.43359
1.43317
1.43271
1.43221
1.43168
1.43112
1.43051
1.42987
1.42919
1.42848
1.42773
1.42694
1.42611
1.42525
1.42435
1.42341
1.42243
1.42141
1.42036
1.41927
1.41814
1.41697
1.41576
1.41452
1.41324
1.41192
1.41056
1.40917
1.40773
1.40627
1.40476
1.40322
1.40164
1.40003
1.39838
1.3967
1.39498
1.39323
1.39124
1.38903
1.3868
1.38455
1.38229
1.38001
1.37772
1.37543
1.37313
1.37082
1.3685
1.36619
1.36386
1.36155
1.35923
1.35691
1.3546
1.35229
1.34999
1.34769
1.34541
1.34313
1.34086
1.33861
1.33636
1.33413
1.33191
1.32971
1.32752
1.32535
1.3232
1.32106
1.31894
1.31685
1.31477
1.31271
1.31067
1.30866
1.30667
1.3047
1.30276
1.30084
1.29894
1.29708
1.29523
1.29342
1.29163
1.28987
1.28813
1.28643
1.28475
1.2831
1.28148
1.2799
1.27834
1.27682
1.27533
1.27387
1.27244
1.27104
1.26968
1.26836
1.26706
1.2658
1.26457
1.26339
1.26223
1.26111
1.26003
1.25899
1.25798
1.25701
1.25607
1.25517
1.25431
1.25349
1.25271
1.25197
1.25126
1.2506
1.24997
1.24939
1.24884
1.24833
1.24787
1.24744
1.24706
1.24671
1.24641
1.24615
1.24592
1.24574
1.2456
1.24551
1.2454
)
;
    }
    bottomWall
    {
        type            calculated;
        value           nonuniform List<scalar> 
449
(
0.00274417
0.00481245
0.00538541
0.00533675
0.00526456
0.00516782
0.00506959
0.00497755
0.00489334
0.00481664
0.00474642
0.00468186
0.00462215
0.00456677
0.00451526
0.00446732
0.00442257
0.00438069
0.00434136
0.00430428
0.00426918
0.0042359
0.0042042
0.00417396
0.00414502
0.0041173
0.00409065
0.00406504
0.00404033
0.00401651
0.00399349
0.00397124
0.00394967
0.00392879
0.0039085
0.00388883
0.00386969
0.0038511
0.00383297
0.00381535
0.00379814
0.00378139
0.00376503
0.00374909
0.00373351
0.00371832
0.00370348
0.00368899
0.00367482
0.00366099
0.00364746
0.00363423
0.00362127
0.00360861
0.00359618
0.00358404
0.0035721
0.00356043
0.00354896
0.00353773
0.00352668
0.00351586
0.0035052
0.00349478
0.00348449
0.00347441
0.00346446
0.00345473
0.0034451
0.00343568
0.00342637
0.00341725
0.00340823
0.00339939
0.00339065
0.00338207
0.0033736
0.00336527
0.00335705
0.00334897
0.00334099
0.00333313
0.00332537
0.00331772
0.00331019
0.00330275
0.00329542
0.00328818
0.00328104
0.00327398
0.00326704
0.00326016
0.0032534
0.0032467
0.00324011
0.00323357
0.00322713
0.00322075
0.00321447
0.00320824
0.00320212
0.00319603
0.00319005
0.0031841
0.00317827
0.00317244
0.00316674
0.00316104
0.00315546
0.00314989
0.00314443
0.00313898
0.00313364
0.00312831
0.00312308
0.00311786
0.00311273
0.00310762
0.00310259
0.00309758
0.00309265
0.00308774
0.00308291
0.0030781
0.00307337
0.00306865
0.00306401
0.00305938
0.00305482
0.00305027
0.0030458
0.00304133
0.00303694
0.00303256
0.00302825
0.00302394
0.00301971
0.00301548
0.00301133
0.00300717
0.00300308
0.00299899
0.00299496
0.00299094
0.00298697
0.00298302
0.00297911
0.00297522
0.00297138
0.00296756
0.00296378
0.00296002
0.0029563
0.0029526
0.00294894
0.00294529
0.00294169
0.00293809
0.00293455
0.00293099
0.0029275
0.002924
0.00292056
0.00291712
0.00291373
0.00291034
0.002907
0.00290365
0.00290035
0.00289705
0.0028938
0.00289054
0.00288733
0.00288429
0.00288144
0.00287858
0.00287573
0.00287285
0.00286999
0.00286711
0.00286424
0.00286135
0.00285847
0.00285556
0.00285267
0.00284975
0.00284685
0.00284392
0.00284099
0.00283805
0.00283512
0.00283218
0.00282923
0.00282628
0.00282333
0.00282037
0.0028174
0.00281443
0.00281145
0.00280847
0.00280549
0.0028025
0.00279951
0.00279652
0.00279352
0.00279053
0.00278753
0.00278454
0.00278153
0.00277853
0.00277551
0.0027725
0.00276947
0.00276645
0.00276341
0.00276039
0.00275734
0.00275432
0.00275127
0.00274823
0.00274519
0.00274215
0.00273912
0.00273608
0.00273303
0.00273
0.00272695
0.00272391
0.00272087
0.00271782
0.00271479
0.00271173
0.0027087
0.00270565
0.00270261
0.00269956
0.00269653
0.00269349
0.00269045
0.00268739
0.00268435
0.00268128
0.00267823
0.00267518
0.00267214
0.00266908
0.00266604
0.002663
0.00265996
0.00265691
0.00265387
0.00265082
0.00264779
0.00264475
0.00264172
0.00263868
0.00263566
0.00263263
0.00262961
0.00262659
0.00262356
0.00262055
0.00261753
0.00261453
0.00261152
0.00260851
0.00260551
0.0026025
0.0025995
0.0025965
0.00259351
0.00259052
0.00258754
0.00258454
0.00258155
0.00257857
0.00257558
0.00257261
0.00256964
0.00256666
0.00256369
0.00256071
0.00255775
0.00255478
0.00255184
0.00254887
0.00254594
0.002543
0.00254006
0.00253711
0.00253418
0.00253124
0.00252833
0.0025254
0.00252249
0.00251958
0.00251668
0.00251377
0.00251088
0.00250797
0.0025051
0.00250219
0.00249931
0.00249643
0.00249358
0.00249073
0.00248787
0.002485
0.00248216
0.00247931
0.00247648
0.00247365
0.00247082
0.00246802
0.00246521
0.0024624
0.00245959
0.0024568
0.00245401
0.00245122
0.00244843
0.00244566
0.00244289
0.00244014
0.00243738
0.00243464
0.00243188
0.00242916
0.00242642
0.0024237
0.00242096
0.00241828
0.00241556
0.00241287
0.00241016
0.0024075
0.00240482
0.00240215
0.00239948
0.00239682
0.00239415
0.00239151
0.00238887
0.00238624
0.0023836
0.00238098
0.00237835
0.00237575
0.00237314
0.00237054
0.00236795
0.00236538
0.0023628
0.00236023
0.00235741
0.00235434
0.00235133
0.00234835
0.00234543
0.00234253
0.0023397
0.00233689
0.00233413
0.00233139
0.00232872
0.00232607
0.00232347
0.00232089
0.00231836
0.00231583
0.00231337
0.00231092
0.00230852
0.00230614
0.00230379
0.00230147
0.00229919
0.00229695
0.00229471
0.00229252
0.00229032
0.00228819
0.00228605
0.00228395
0.00228187
0.00227982
0.00227777
0.00227573
0.00227373
0.00227174
0.00226979
0.00226785
0.00226597
0.00226408
0.00226224
0.00226041
0.0022586
0.00225681
0.00225505
0.00225329
0.00225156
0.00224984
0.00224815
0.00224646
0.00224479
0.00224313
0.00224147
0.00223986
0.00223823
0.00223665
0.00223506
0.00223352
0.00223197
0.00223046
0.00222893
0.00222744
0.00222594
0.00222448
0.00222301
0.00222158
0.00222014
0.00221874
0.00221731
0.00221592
0.00221453
0.00221313
0.00221176
0.00221038
0.00220903
0.00220768
0.00220636
0.00220502
0.00220375
0.00220241
0.00220119
0.00219984
0.00219863
0.00219728
0.00219611
0.0021948
0.00219365
0.00219239
0.00219123
0.00219008
0.00218879
0.00218791
0.00218621
0.00218599
0.00218381
)
;
    }
    symmetry
    {
        type            symmetryPlane;
    }
    frontAndBack
    {
        type            empty;
    }
}


// ************************************************************************* //
