/*--------------------------------*- C++ -*----------------------------------*\
| =========                 |                                                 |
| \\      /  F ield         | OpenFOAM: The Open Source CFD Toolbox           |
|  \\    /   O peration     | Version:  v2012                                 |
|   \\  /    A nd           | Website:  www.openfoam.com                      |
|    \\/     M anipulation  |                                                 |
\*---------------------------------------------------------------------------*/
FoamFile
{
    version     2.0;
    format      ascii;
    class       volVectorField;
    location    "21";
    object      wallShearStress;
}
// * * * * * * * * * * * * * * * * * * * * * * * * * * * * * * * * * * * * * //

dimensions      [0 2 -2 0 0 0 0];


internalField   uniform (0 0 0);

boundaryField
{
    inlet
    {
        type            calculated;
        value           uniform (0 0 0);
    }
    outlet
    {
        type            calculated;
        value           uniform (0 0 0);
    }
    topWall
    {
        type            calculated;
        value           nonuniform List<vector> 
545
(
(1.46603e-08 -1.03186e-08 0)
(1.46542e-08 -2.88717e-08 0)
(1.46386e-08 -4.81591e-08 0)
(1.46177e-08 -6.68799e-08 0)
(1.45912e-08 -8.47904e-08 0)
(1.45598e-08 -1.02119e-07 0)
(1.45237e-08 -1.19011e-07 0)
(1.44833e-08 -1.35458e-07 0)
(1.44389e-08 -1.51423e-07 0)
(1.4391e-08 -1.66903e-07 0)
(1.43399e-08 -1.81919e-07 0)
(1.4286e-08 -1.96488e-07 0)
(1.42295e-08 -2.1062e-07 0)
(1.41708e-08 -2.24324e-07 0)
(1.41101e-08 -2.3761e-07 0)
(1.40478e-08 -2.50489e-07 0)
(1.39839e-08 -2.62973e-07 0)
(1.39188e-08 -2.75071e-07 0)
(1.38526e-08 -2.86795e-07 0)
(1.37856e-08 -2.98155e-07 0)
(1.37179e-08 -3.09162e-07 0)
(1.36497e-08 -3.19825e-07 0)
(1.35811e-08 -3.30155e-07 0)
(1.35123e-08 -3.40162e-07 0)
(1.34434e-08 -3.49856e-07 0)
(1.33745e-08 -3.59246e-07 0)
(1.33057e-08 -3.68341e-07 0)
(1.32371e-08 -3.77151e-07 0)
(1.31689e-08 -3.85684e-07 0)
(1.3101e-08 -3.93949e-07 0)
(1.30336e-08 -4.01955e-07 0)
(1.29668e-08 -4.0971e-07 0)
(1.29005e-08 -4.17222e-07 0)
(1.28349e-08 -4.24499e-07 0)
(1.277e-08 -4.31547e-07 0)
(1.27058e-08 -4.38375e-07 0)
(1.26425e-08 -4.4499e-07 0)
(1.25799e-08 -4.51399e-07 0)
(1.25182e-08 -4.57607e-07 0)
(1.24574e-08 -4.63623e-07 0)
(1.23974e-08 -4.69451e-07 0)
(1.23384e-08 -4.75099e-07 0)
(1.22803e-08 -4.80572e-07 0)
(1.22231e-08 -4.85875e-07 0)
(1.21669e-08 -4.91015e-07 0)
(1.21117e-08 -4.95996e-07 0)
(1.20574e-08 -5.00824e-07 0)
(1.20042e-08 -5.05504e-07 0)
(1.19518e-08 -5.10041e-07 0)
(1.19005e-08 -5.14438e-07 0)
(1.18501e-08 -5.18702e-07 0)
(1.18007e-08 -5.22836e-07 0)
(1.17523e-08 -5.26844e-07 0)
(1.17048e-08 -5.3073e-07 0)
(1.16582e-08 -5.34499e-07 0)
(1.16126e-08 -5.38154e-07 0)
(1.1568e-08 -5.41699e-07 0)
(1.15243e-08 -5.45137e-07 0)
(1.14814e-08 -5.48472e-07 0)
(1.14395e-08 -5.51707e-07 0)
(1.13985e-08 -5.54845e-07 0)
(1.13584e-08 -5.5789e-07 0)
(1.13191e-08 -5.60844e-07 0)
(1.12807e-08 -5.6371e-07 0)
(1.12431e-08 -5.66492e-07 0)
(1.12063e-08 -5.69191e-07 0)
(1.11704e-08 -5.71811e-07 0)
(1.11353e-08 -5.74353e-07 0)
(1.11009e-08 -5.7682e-07 0)
(1.10674e-08 -5.79215e-07 0)
(1.10346e-08 -5.81541e-07 0)
(1.10025e-08 -5.83794e-07 0)
(1.09714e-08 -5.85961e-07 0)
(1.09412e-08 -5.88061e-07 0)
(1.09113e-08 -5.90134e-07 0)
(1.08816e-08 -5.92195e-07 0)
(1.08519e-08 -5.94244e-07 0)
(1.08222e-08 -5.96279e-07 0)
(1.07927e-08 -5.98298e-07 0)
(1.07631e-08 -6.00302e-07 0)
(1.07337e-08 -6.02291e-07 0)
(1.07043e-08 -6.04266e-07 0)
(1.06749e-08 -6.06227e-07 0)
(1.06456e-08 -6.08173e-07 0)
(1.06164e-08 -6.10105e-07 0)
(1.05872e-08 -6.12023e-07 0)
(1.05581e-08 -6.13927e-07 0)
(1.05291e-08 -6.15817e-07 0)
(1.05001e-08 -6.17694e-07 0)
(1.04712e-08 -6.19556e-07 0)
(1.04424e-08 -6.21405e-07 0)
(1.04136e-08 -6.2324e-07 0)
(1.03849e-08 -6.25063e-07 0)
(1.03563e-08 -6.26869e-07 0)
(1.03278e-08 -6.28673e-07 0)
(1.02989e-08 -6.30432e-07 0)
(1.02715e-08 -6.32044e-07 0)
(1.02471e-08 -6.33516e-07 0)
(1.02236e-08 -6.34936e-07 0)
(1.02003e-08 -6.3636e-07 0)
(1.01769e-08 -6.37798e-07 0)
(1.01534e-08 -6.39239e-07 0)
(1.01299e-08 -6.40678e-07 0)
(1.01063e-08 -6.42114e-07 0)
(1.00825e-08 -6.43551e-07 0)
(1.00587e-08 -6.44988e-07 0)
(1.00348e-08 -6.46425e-07 0)
(1.00108e-08 -6.47863e-07 0)
(9.98669e-09 -6.493e-07 0)
(9.96249e-09 -6.50737e-07 0)
(9.93821e-09 -6.52174e-07 0)
(9.91383e-09 -6.53611e-07 0)
(9.88935e-09 -6.55047e-07 0)
(9.86478e-09 -6.56484e-07 0)
(9.84012e-09 -6.5792e-07 0)
(9.81537e-09 -6.59356e-07 0)
(9.79052e-09 -6.60792e-07 0)
(9.76557e-09 -6.62227e-07 0)
(9.74054e-09 -6.63663e-07 0)
(9.71541e-09 -6.65098e-07 0)
(9.69018e-09 -6.66532e-07 0)
(9.66486e-09 -6.67966e-07 0)
(9.63945e-09 -6.694e-07 0)
(9.61394e-09 -6.70834e-07 0)
(9.58834e-09 -6.72267e-07 0)
(9.56265e-09 -6.73699e-07 0)
(9.53686e-09 -6.75131e-07 0)
(9.51097e-09 -6.76563e-07 0)
(9.48499e-09 -6.77994e-07 0)
(9.45892e-09 -6.79424e-07 0)
(9.43275e-09 -6.80854e-07 0)
(9.40649e-09 -6.82284e-07 0)
(9.38013e-09 -6.83712e-07 0)
(9.35368e-09 -6.8514e-07 0)
(9.32714e-09 -6.86568e-07 0)
(9.3005e-09 -6.87994e-07 0)
(9.27376e-09 -6.8942e-07 0)
(9.24694e-09 -6.90845e-07 0)
(9.22001e-09 -6.9227e-07 0)
(9.19299e-09 -6.93693e-07 0)
(9.16588e-09 -6.95116e-07 0)
(9.13868e-09 -6.96538e-07 0)
(9.11138e-09 -6.97958e-07 0)
(9.08398e-09 -6.99378e-07 0)
(9.05649e-09 -7.00798e-07 0)
(9.02891e-09 -7.02216e-07 0)
(9.00123e-09 -7.03633e-07 0)
(8.97346e-09 -7.05049e-07 0)
(8.94559e-09 -7.06464e-07 0)
(8.91763e-09 -7.07878e-07 0)
(8.88958e-09 -7.09291e-07 0)
(8.86143e-09 -7.10702e-07 0)
(8.83319e-09 -7.12113e-07 0)
(8.80485e-09 -7.13522e-07 0)
(8.77642e-09 -7.1493e-07 0)
(8.7479e-09 -7.16337e-07 0)
(8.71928e-09 -7.17743e-07 0)
(8.69058e-09 -7.19147e-07 0)
(8.66177e-09 -7.2055e-07 0)
(8.63288e-09 -7.21951e-07 0)
(8.60389e-09 -7.23352e-07 0)
(8.57481e-09 -7.2475e-07 0)
(8.54563e-09 -7.26148e-07 0)
(8.51636e-09 -7.27543e-07 0)
(8.487e-09 -7.28938e-07 0)
(8.45755e-09 -7.3033e-07 0)
(8.42801e-09 -7.31722e-07 0)
(8.39837e-09 -7.33111e-07 0)
(8.36864e-09 -7.34499e-07 0)
(8.33882e-09 -7.35885e-07 0)
(8.30891e-09 -7.3727e-07 0)
(8.27891e-09 -7.38653e-07 0)
(8.24881e-09 -7.40034e-07 0)
(8.21863e-09 -7.41413e-07 0)
(8.18835e-09 -7.4279e-07 0)
(8.15799e-09 -7.44166e-07 0)
(8.12753e-09 -7.4554e-07 0)
(8.09698e-09 -7.46911e-07 0)
(8.06635e-09 -7.48281e-07 0)
(8.03562e-09 -7.49649e-07 0)
(8.0048e-09 -7.51015e-07 0)
(7.9739e-09 -7.52379e-07 0)
(7.9429e-09 -7.5374e-07 0)
(7.91182e-09 -7.551e-07 0)
(7.88065e-09 -7.56457e-07 0)
(7.84939e-09 -7.57813e-07 0)
(7.81804e-09 -7.59166e-07 0)
(7.7866e-09 -7.60516e-07 0)
(7.75508e-09 -7.61865e-07 0)
(7.72347e-09 -7.63211e-07 0)
(7.69177e-09 -7.64555e-07 0)
(7.65999e-09 -7.65896e-07 0)
(7.62812e-09 -7.67235e-07 0)
(7.59616e-09 -7.68572e-07 0)
(7.56412e-09 -7.69906e-07 0)
(7.532e-09 -7.71238e-07 0)
(7.49978e-09 -7.72567e-07 0)
(7.46749e-09 -7.73893e-07 0)
(7.43511e-09 -7.75217e-07 0)
(7.40264e-09 -7.76538e-07 0)
(7.3701e-09 -7.77857e-07 0)
(7.33747e-09 -7.79173e-07 0)
(7.30475e-09 -7.80486e-07 0)
(7.27196e-09 -7.81796e-07 0)
(7.23908e-09 -7.83103e-07 0)
(7.20612e-09 -7.84408e-07 0)
(7.17308e-09 -7.8571e-07 0)
(7.13996e-09 -7.87008e-07 0)
(7.10676e-09 -7.88304e-07 0)
(7.07348e-09 -7.89597e-07 0)
(7.04012e-09 -7.90887e-07 0)
(7.00668e-09 -7.92173e-07 0)
(6.97316e-09 -7.93457e-07 0)
(6.93957e-09 -7.94737e-07 0)
(6.90589e-09 -7.96014e-07 0)
(6.87214e-09 -7.97288e-07 0)
(6.83832e-09 -7.98559e-07 0)
(6.80442e-09 -7.99826e-07 0)
(6.77044e-09 -8.0109e-07 0)
(6.73638e-09 -8.02351e-07 0)
(6.70226e-09 -8.03608e-07 0)
(6.66805e-09 -8.04862e-07 0)
(6.63378e-09 -8.06112e-07 0)
(6.59943e-09 -8.07359e-07 0)
(6.56501e-09 -8.08602e-07 0)
(6.53052e-09 -8.09842e-07 0)
(6.49595e-09 -8.11078e-07 0)
(6.46132e-09 -8.1231e-07 0)
(6.42661e-09 -8.13539e-07 0)
(6.39184e-09 -8.14764e-07 0)
(6.357e-09 -8.15985e-07 0)
(6.32209e-09 -8.17202e-07 0)
(6.28711e-09 -8.18416e-07 0)
(6.25206e-09 -8.19625e-07 0)
(6.21695e-09 -8.20831e-07 0)
(6.18177e-09 -8.22033e-07 0)
(6.14653e-09 -8.2323e-07 0)
(6.11122e-09 -8.24424e-07 0)
(6.07585e-09 -8.25613e-07 0)
(6.04041e-09 -8.26799e-07 0)
(6.00491e-09 -8.2798e-07 0)
(5.96935e-09 -8.29157e-07 0)
(5.93373e-09 -8.3033e-07 0)
(5.89805e-09 -8.31498e-07 0)
(5.86231e-09 -8.32662e-07 0)
(5.82651e-09 -8.33822e-07 0)
(5.79066e-09 -8.34978e-07 0)
(5.75474e-09 -8.36129e-07 0)
(5.71877e-09 -8.37275e-07 0)
(5.68274e-09 -8.38417e-07 0)
(5.64666e-09 -8.39555e-07 0)
(5.61052e-09 -8.40687e-07 0)
(5.57433e-09 -8.41816e-07 0)
(5.53809e-09 -8.42939e-07 0)
(5.50179e-09 -8.44058e-07 0)
(5.46544e-09 -8.45172e-07 0)
(5.42904e-09 -8.46281e-07 0)
(5.3926e-09 -8.47386e-07 0)
(5.3561e-09 -8.48486e-07 0)
(5.31956e-09 -8.4958e-07 0)
(5.28296e-09 -8.5067e-07 0)
(5.24633e-09 -8.51755e-07 0)
(5.20964e-09 -8.52835e-07 0)
(5.17292e-09 -8.53909e-07 0)
(5.13614e-09 -8.54979e-07 0)
(5.09933e-09 -8.56044e-07 0)
(5.06247e-09 -8.57102e-07 0)
(5.02562e-09 -8.58162e-07 0)
(4.98848e-09 -8.59198e-07 0)
(4.95248e-09 -8.60182e-07 0)
(4.91851e-09 -8.61129e-07 0)
(4.88509e-09 -8.62053e-07 0)
(4.85156e-09 -8.6298e-07 0)
(4.81775e-09 -8.63918e-07 0)
(4.78363e-09 -8.64861e-07 0)
(4.74917e-09 -8.65807e-07 0)
(4.71439e-09 -8.66754e-07 0)
(4.67928e-09 -8.67705e-07 0)
(4.64384e-09 -8.6866e-07 0)
(4.60805e-09 -8.69617e-07 0)
(4.57194e-09 -8.70577e-07 0)
(4.53548e-09 -8.7154e-07 0)
(4.49868e-09 -8.72506e-07 0)
(4.46154e-09 -8.73474e-07 0)
(4.42405e-09 -8.74445e-07 0)
(4.38622e-09 -8.75417e-07 0)
(4.34805e-09 -8.76392e-07 0)
(4.30952e-09 -8.77369e-07 0)
(4.27065e-09 -8.78347e-07 0)
(4.23143e-09 -8.79327e-07 0)
(4.19185e-09 -8.80309e-07 0)
(4.15192e-09 -8.81292e-07 0)
(4.11164e-09 -8.82276e-07 0)
(4.071e-09 -8.83261e-07 0)
(4.03001e-09 -8.84247e-07 0)
(3.98866e-09 -8.85233e-07 0)
(3.94695e-09 -8.8622e-07 0)
(3.90488e-09 -8.87206e-07 0)
(3.86246e-09 -8.88193e-07 0)
(3.81968e-09 -8.8918e-07 0)
(3.77654e-09 -8.90166e-07 0)
(3.73303e-09 -8.91152e-07 0)
(3.68917e-09 -8.92136e-07 0)
(3.64495e-09 -8.9312e-07 0)
(3.60037e-09 -8.94102e-07 0)
(3.55543e-09 -8.95082e-07 0)
(3.51013e-09 -8.96061e-07 0)
(3.46447e-09 -8.97038e-07 0)
(3.41845e-09 -8.98012e-07 0)
(3.37208e-09 -8.98983e-07 0)
(3.32534e-09 -8.99952e-07 0)
(3.27825e-09 -9.00917e-07 0)
(3.23081e-09 -9.01879e-07 0)
(3.18301e-09 -9.02837e-07 0)
(3.13486e-09 -9.03791e-07 0)
(3.08636e-09 -9.04741e-07 0)
(3.03751e-09 -9.05686e-07 0)
(2.98831e-09 -9.06626e-07 0)
(2.93877e-09 -9.0756e-07 0)
(2.88888e-09 -9.08489e-07 0)
(2.83866e-09 -9.09412e-07 0)
(2.78809e-09 -9.10328e-07 0)
(2.73719e-09 -9.11238e-07 0)
(2.68596e-09 -9.1214e-07 0)
(2.63439e-09 -9.13035e-07 0)
(2.5825e-09 -9.13922e-07 0)
(2.53029e-09 -9.14801e-07 0)
(2.47776e-09 -9.15671e-07 0)
(2.42491e-09 -9.16532e-07 0)
(2.37176e-09 -9.17383e-07 0)
(2.3183e-09 -9.18225e-07 0)
(2.26453e-09 -9.19056e-07 0)
(2.21047e-09 -9.19877e-07 0)
(2.15612e-09 -9.20686e-07 0)
(2.10148e-09 -9.21483e-07 0)
(2.04656e-09 -9.22269e-07 0)
(1.99137e-09 -9.23042e-07 0)
(1.93591e-09 -9.23802e-07 0)
(1.88019e-09 -9.24548e-07 0)
(1.82421e-09 -9.25281e-07 0)
(1.76798e-09 -9.25998e-07 0)
(1.71152e-09 -9.26701e-07 0)
(1.65482e-09 -9.27389e-07 0)
(1.59789e-09 -9.2806e-07 0)
(1.54075e-09 -9.28715e-07 0)
(1.4834e-09 -9.29352e-07 0)
(1.42585e-09 -9.29972e-07 0)
(1.36811e-09 -9.30574e-07 0)
(1.31019e-09 -9.31157e-07 0)
(1.2521e-09 -9.31721e-07 0)
(1.19384e-09 -9.32265e-07 0)
(1.13544e-09 -9.32789e-07 0)
(1.07689e-09 -9.33292e-07 0)
(1.01821e-09 -9.33773e-07 0)
(9.59419e-10 -9.34232e-07 0)
(9.00519e-10 -9.34668e-07 0)
(8.41524e-10 -9.35081e-07 0)
(7.82447e-10 -9.3547e-07 0)
(7.23302e-10 -9.35835e-07 0)
(6.641e-10 -9.36174e-07 0)
(6.04855e-10 -9.36488e-07 0)
(5.45581e-10 -9.36775e-07 0)
(4.86292e-10 -9.37036e-07 0)
(4.27002e-10 -9.37268e-07 0)
(3.67727e-10 -9.37473e-07 0)
(3.08481e-10 -9.37648e-07 0)
(2.49279e-10 -9.37795e-07 0)
(1.90137e-10 -9.37911e-07 0)
(1.31072e-10 -9.37996e-07 0)
(7.20997e-11 -9.3805e-07 0)
(1.32367e-11 -9.38071e-07 0)
(-4.54999e-11 -9.3806e-07 0)
(-1.04093e-10 -9.38016e-07 0)
(-1.62524e-10 -9.37938e-07 0)
(-2.20776e-10 -9.37825e-07 0)
(-2.78831e-10 -9.37677e-07 0)
(-3.36669e-10 -9.37494e-07 0)
(-3.94273e-10 -9.37273e-07 0)
(-4.51623e-10 -9.37016e-07 0)
(-5.087e-10 -9.36721e-07 0)
(-5.65484e-10 -9.36388e-07 0)
(-6.21956e-10 -9.36015e-07 0)
(-6.78095e-10 -9.35603e-07 0)
(-7.33882e-10 -9.35151e-07 0)
(-7.89296e-10 -9.34659e-07 0)
(-8.44316e-10 -9.34125e-07 0)
(-8.98922e-10 -9.33549e-07 0)
(-9.53093e-10 -9.3293e-07 0)
(-1.00681e-09 -9.32269e-07 0)
(-1.06005e-09 -9.31564e-07 0)
(-1.11278e-09 -9.30815e-07 0)
(-1.165e-09 -9.30022e-07 0)
(-1.21668e-09 -9.29183e-07 0)
(-1.2678e-09 -9.28299e-07 0)
(-1.31833e-09 -9.27369e-07 0)
(-1.36826e-09 -9.26392e-07 0)
(-1.41756e-09 -9.25368e-07 0)
(-1.46621e-09 -9.24297e-07 0)
(-1.51419e-09 -9.23177e-07 0)
(-1.56148e-09 -9.2201e-07 0)
(-1.60806e-09 -9.20794e-07 0)
(-1.65391e-09 -9.19529e-07 0)
(-1.699e-09 -9.18215e-07 0)
(-1.74332e-09 -9.16851e-07 0)
(-1.78684e-09 -9.15437e-07 0)
(-1.82955e-09 -9.13973e-07 0)
(-1.87143e-09 -9.12459e-07 0)
(-1.91245e-09 -9.10894e-07 0)
(-1.9526e-09 -9.09278e-07 0)
(-1.99186e-09 -9.07611e-07 0)
(-2.0302e-09 -9.05893e-07 0)
(-2.06762e-09 -9.04123e-07 0)
(-2.10409e-09 -9.02302e-07 0)
(-2.1396e-09 -9.0043e-07 0)
(-2.17412e-09 -8.98506e-07 0)
(-2.20765e-09 -8.9653e-07 0)
(-2.24017e-09 -8.94503e-07 0)
(-2.27166e-09 -8.92425e-07 0)
(-2.30211e-09 -8.90295e-07 0)
(-2.3315e-09 -8.88114e-07 0)
(-2.35983e-09 -8.85882e-07 0)
(-2.38707e-09 -8.83599e-07 0)
(-2.41321e-09 -8.81265e-07 0)
(-2.43826e-09 -8.78881e-07 0)
(-2.46218e-09 -8.76447e-07 0)
(-2.48499e-09 -8.73962e-07 0)
(-2.50665e-09 -8.71428e-07 0)
(-2.52718e-09 -8.68846e-07 0)
(-2.54655e-09 -8.66214e-07 0)
(-2.56477e-09 -8.63534e-07 0)
(-2.58183e-09 -8.60806e-07 0)
(-2.59772e-09 -8.58031e-07 0)
(-2.61244e-09 -8.5521e-07 0)
(-2.62598e-09 -8.52342e-07 0)
(-2.63835e-09 -8.49429e-07 0)
(-2.64953e-09 -8.46471e-07 0)
(-2.65954e-09 -8.43469e-07 0)
(-2.66838e-09 -8.40424e-07 0)
(-2.67603e-09 -8.37336e-07 0)
(-2.68251e-09 -8.34206e-07 0)
(-2.68781e-09 -8.31036e-07 0)
(-2.69195e-09 -8.27825e-07 0)
(-2.69493e-09 -8.24576e-07 0)
(-2.69674e-09 -8.21288e-07 0)
(-2.69741e-09 -8.17963e-07 0)
(-2.69692e-09 -8.14601e-07 0)
(-2.69531e-09 -8.11205e-07 0)
(-2.69253e-09 -8.07773e-07 0)
(-2.68883e-09 -8.04305e-07 0)
(-2.68313e-09 -8.00786e-07 0)
(-2.67555e-09 -7.96893e-07 0)
(-2.66693e-09 -7.92607e-07 0)
(-2.65667e-09 -7.88273e-07 0)
(-2.64498e-09 -7.83968e-07 0)
(-2.632e-09 -7.797e-07 0)
(-2.61782e-09 -7.75458e-07 0)
(-2.60251e-09 -7.71236e-07 0)
(-2.58613e-09 -7.67037e-07 0)
(-2.56875e-09 -7.62866e-07 0)
(-2.55042e-09 -7.58725e-07 0)
(-2.5312e-09 -7.54614e-07 0)
(-2.51115e-09 -7.50535e-07 0)
(-2.49031e-09 -7.46489e-07 0)
(-2.46875e-09 -7.42477e-07 0)
(-2.4465e-09 -7.38501e-07 0)
(-2.42361e-09 -7.34561e-07 0)
(-2.40012e-09 -7.30659e-07 0)
(-2.37607e-09 -7.26796e-07 0)
(-2.35151e-09 -7.22972e-07 0)
(-2.32645e-09 -7.19188e-07 0)
(-2.30095e-09 -7.15444e-07 0)
(-2.27503e-09 -7.11743e-07 0)
(-2.24871e-09 -7.08084e-07 0)
(-2.22204e-09 -7.04468e-07 0)
(-2.19502e-09 -7.00895e-07 0)
(-2.1677e-09 -6.97366e-07 0)
(-2.14008e-09 -6.93881e-07 0)
(-2.1122e-09 -6.90442e-07 0)
(-2.08407e-09 -6.87048e-07 0)
(-2.05572e-09 -6.83699e-07 0)
(-2.02715e-09 -6.80397e-07 0)
(-1.99838e-09 -6.77141e-07 0)
(-1.96943e-09 -6.73932e-07 0)
(-1.94031e-09 -6.70769e-07 0)
(-1.91104e-09 -6.67654e-07 0)
(-1.88162e-09 -6.64587e-07 0)
(-1.85207e-09 -6.61567e-07 0)
(-1.82239e-09 -6.58595e-07 0)
(-1.79259e-09 -6.55671e-07 0)
(-1.76269e-09 -6.52796e-07 0)
(-1.73268e-09 -6.49969e-07 0)
(-1.70258e-09 -6.4719e-07 0)
(-1.67239e-09 -6.4446e-07 0)
(-1.64211e-09 -6.4178e-07 0)
(-1.61175e-09 -6.39148e-07 0)
(-1.58132e-09 -6.36565e-07 0)
(-1.55081e-09 -6.34032e-07 0)
(-1.52023e-09 -6.31548e-07 0)
(-1.48958e-09 -6.29114e-07 0)
(-1.45886e-09 -6.26729e-07 0)
(-1.42807e-09 -6.24394e-07 0)
(-1.39723e-09 -6.22109e-07 0)
(-1.36632e-09 -6.19874e-07 0)
(-1.33534e-09 -6.17689e-07 0)
(-1.30431e-09 -6.15554e-07 0)
(-1.27321e-09 -6.13469e-07 0)
(-1.24205e-09 -6.11435e-07 0)
(-1.21083e-09 -6.09451e-07 0)
(-1.17955e-09 -6.07518e-07 0)
(-1.14821e-09 -6.05635e-07 0)
(-1.11681e-09 -6.03803e-07 0)
(-1.08534e-09 -6.02022e-07 0)
(-1.05381e-09 -6.00292e-07 0)
(-1.02223e-09 -5.98613e-07 0)
(-9.90574e-10 -5.96985e-07 0)
(-9.58861e-10 -5.95408e-07 0)
(-9.27086e-10 -5.93882e-07 0)
(-8.95248e-10 -5.92409e-07 0)
(-8.63349e-10 -5.90986e-07 0)
(-8.31389e-10 -5.89615e-07 0)
(-7.99367e-10 -5.88296e-07 0)
(-7.67285e-10 -5.87029e-07 0)
(-7.35144e-10 -5.85814e-07 0)
(-7.02944e-10 -5.84651e-07 0)
(-6.70686e-10 -5.8354e-07 0)
(-6.38372e-10 -5.82481e-07 0)
(-6.06003e-10 -5.81475e-07 0)
(-5.73581e-10 -5.80521e-07 0)
(-5.41107e-10 -5.79619e-07 0)
(-5.08584e-10 -5.7877e-07 0)
(-4.76013e-10 -5.77974e-07 0)
(-4.43397e-10 -5.7723e-07 0)
(-4.10738e-10 -5.76539e-07 0)
(-3.78039e-10 -5.75901e-07 0)
(-3.45302e-10 -5.75315e-07 0)
(-3.12531e-10 -5.74787e-07 0)
(-2.79725e-10 -5.74296e-07 0)
(-2.46896e-10 -5.7391e-07 0)
(-2.14018e-10 -5.73403e-07 0)
(-1.81185e-10 -5.73519e-07 0)
(-1.48095e-10 -5.71763e-07 0)
(-1.15798e-10 -5.76201e-07 0)
(-8.08083e-11 -5.58801e-07 0)
(-5.55717e-11 -6.04577e-07 0)
(-2.48737e-11 -5.27993e-07 0)
)
;
    }
    bottomWall
    {
        type            calculated;
        value           nonuniform List<vector> 
449
(
(-48.5715 -0.964652 0)
(-19.7658 -0.0051597 0)
(-14.3539 -0.00113574 0)
(-12.0423 -0.000545974 0)
(-10.6349 -0.000351821 0)
(-9.64018 -0.000256235 0)
(-8.88139 -0.000198673 0)
(-8.2773 -0.000159967 0)
(-7.78141 -0.000132451 0)
(-7.36438 -0.000112084 0)
(-7.00703 -9.64683e-05 0)
(-6.69632 -8.41492e-05 0)
(-6.42291 -7.42215e-05 0)
(-6.17989 -6.60857e-05 0)
(-5.96201 -5.93218e-05 0)
(-5.76518 -5.36265e-05 0)
(-5.58622 -4.87771e-05 0)
(-5.42258 -4.46077e-05 0)
(-5.27216 -4.09922e-05 0)
(-5.13329 -3.7833e-05 0)
(-5.00454 -3.50534e-05 0)
(-4.88474 -3.25926e-05 0)
(-4.7729 -3.04018e-05 0)
(-4.66816 -2.84413e-05 0)
(-4.5698 -2.66786e-05 0)
(-4.4772 -2.50869e-05 0)
(-4.38981 -2.3644e-05 0)
(-4.30716 -2.23311e-05 0)
(-4.22884 -2.11324e-05 0)
(-4.15447 -2.00345e-05 0)
(-4.08374 -1.9026e-05 0)
(-4.01635 -1.8097e-05 0)
(-3.95205 -1.72391e-05 0)
(-3.89061 -1.64449e-05 0)
(-3.83182 -1.57079e-05 0)
(-3.7755 -1.50227e-05 0)
(-3.72147 -1.43842e-05 0)
(-3.66959 -1.37881e-05 0)
(-3.61971 -1.32307e-05 0)
(-3.57171 -1.27085e-05 0)
(-3.52547 -1.22184e-05 0)
(-3.48089 -1.17579e-05 0)
(-3.43788 -1.13244e-05 0)
(-3.39633 -1.09159e-05 0)
(-3.35617 -1.05303e-05 0)
(-3.31732 -1.01659e-05 0)
(-3.27971 -9.82115e-06 0)
(-3.24328 -9.49457e-06 0)
(-3.20797 -9.18487e-06 0)
(-3.17372 -8.89086e-06 0)
(-3.14047 -8.61145e-06 0)
(-3.10819 -8.34566e-06 0)
(-3.07681 -8.09258e-06 0)
(-3.04631 -7.85139e-06 0)
(-3.01664 -7.62132e-06 0)
(-2.98777 -7.40167e-06 0)
(-2.95965 -7.19181e-06 0)
(-2.93226 -6.99113e-06 0)
(-2.90557 -6.79909e-06 0)
(-2.87954 -6.61518e-06 0)
(-2.85415 -6.43893e-06 0)
(-2.82938 -6.26991e-06 0)
(-2.80519 -6.10772e-06 0)
(-2.78157 -5.95197e-06 0)
(-2.75849 -5.80232e-06 0)
(-2.73593 -5.65844e-06 0)
(-2.71388 -5.52003e-06 0)
(-2.69232 -5.38681e-06 0)
(-2.67122 -5.25851e-06 0)
(-2.65057 -5.13488e-06 0)
(-2.63035 -5.01569e-06 0)
(-2.61056 -4.90073e-06 0)
(-2.59117 -4.78978e-06 0)
(-2.57218 -4.68267e-06 0)
(-2.55356 -4.5792e-06 0)
(-2.5353 -4.47921e-06 0)
(-2.51741 -4.38254e-06 0)
(-2.49985 -4.28904e-06 0)
(-2.48263 -4.19857e-06 0)
(-2.46572 -4.111e-06 0)
(-2.44913 -4.02619e-06 0)
(-2.43284 -3.94403e-06 0)
(-2.41685 -3.86441e-06 0)
(-2.40114 -3.78721e-06 0)
(-2.3857 -3.71235e-06 0)
(-2.37053 -3.63972e-06 0)
(-2.35563 -3.56924e-06 0)
(-2.34097 -3.50081e-06 0)
(-2.32656 -3.43435e-06 0)
(-2.31239 -3.36979e-06 0)
(-2.29845 -3.30706e-06 0)
(-2.28474 -3.24608e-06 0)
(-2.27125 -3.18679e-06 0)
(-2.25797 -3.12912e-06 0)
(-2.2449 -3.07302e-06 0)
(-2.23204 -3.01842e-06 0)
(-2.21937 -2.96527e-06 0)
(-2.20689 -2.91352e-06 0)
(-2.1946 -2.86312e-06 0)
(-2.1825 -2.81402e-06 0)
(-2.17057 -2.76618e-06 0)
(-2.15882 -2.71954e-06 0)
(-2.14724 -2.67408e-06 0)
(-2.13582 -2.62975e-06 0)
(-2.12457 -2.58651e-06 0)
(-2.11347 -2.54432e-06 0)
(-2.10253 -2.50316e-06 0)
(-2.09174 -2.46298e-06 0)
(-2.0811 -2.42376e-06 0)
(-2.0706 -2.38546e-06 0)
(-2.06024 -2.34806e-06 0)
(-2.05002 -2.31152e-06 0)
(-2.03994 -2.27583e-06 0)
(-2.02998 -2.24094e-06 0)
(-2.02016 -2.20685e-06 0)
(-2.01046 -2.17352e-06 0)
(-2.00089 -2.14093e-06 0)
(-1.99143 -2.10905e-06 0)
(-1.9821 -2.07788e-06 0)
(-1.97288 -2.04738e-06 0)
(-1.96377 -2.01754e-06 0)
(-1.95477 -1.98833e-06 0)
(-1.94589 -1.95975e-06 0)
(-1.93711 -1.93177e-06 0)
(-1.92843 -1.90437e-06 0)
(-1.91986 -1.87753e-06 0)
(-1.91139 -1.85126e-06 0)
(-1.90301 -1.82551e-06 0)
(-1.89473 -1.80029e-06 0)
(-1.88655 -1.77558e-06 0)
(-1.87846 -1.75136e-06 0)
(-1.87046 -1.72762e-06 0)
(-1.86255 -1.70435e-06 0)
(-1.85473 -1.68153e-06 0)
(-1.847 -1.65916e-06 0)
(-1.83935 -1.63722e-06 0)
(-1.83178 -1.61569e-06 0)
(-1.82429 -1.59458e-06 0)
(-1.81689 -1.57387e-06 0)
(-1.80956 -1.55355e-06 0)
(-1.80231 -1.5336e-06 0)
(-1.79514 -1.51403e-06 0)
(-1.78804 -1.49481e-06 0)
(-1.78101 -1.47595e-06 0)
(-1.77406 -1.45743e-06 0)
(-1.76718 -1.43924e-06 0)
(-1.76036 -1.42138e-06 0)
(-1.75362 -1.40384e-06 0)
(-1.74694 -1.38661e-06 0)
(-1.74033 -1.36968e-06 0)
(-1.73378 -1.35305e-06 0)
(-1.7273 -1.3367e-06 0)
(-1.72088 -1.32064e-06 0)
(-1.71453 -1.30486e-06 0)
(-1.70823 -1.28934e-06 0)
(-1.70199 -1.27409e-06 0)
(-1.69582 -1.2591e-06 0)
(-1.6897 -1.24436e-06 0)
(-1.68364 -1.22986e-06 0)
(-1.67763 -1.2156e-06 0)
(-1.67168 -1.20158e-06 0)
(-1.66578 -1.18779e-06 0)
(-1.65994 -1.17422e-06 0)
(-1.65415 -1.16088e-06 0)
(-1.64842 -1.14774e-06 0)
(-1.64273 -1.13482e-06 0)
(-1.6371 -1.1221e-06 0)
(-1.63151 -1.10959e-06 0)
(-1.62598 -1.09729e-06 0)
(-1.62049 -1.08507e-06 0)
(-1.61505 -1.07342e-06 0)
(-1.60966 -1.06141e-06 0)
(-1.60431 -1.04862e-06 0)
(-1.59932 -1.0387e-06 0)
(-1.59462 -1.03038e-06 0)
(-1.58991 -1.01993e-06 0)
(-1.58521 -1.00928e-06 0)
(-1.5805 -9.99326e-07 0)
(-1.57578 -9.89372e-07 0)
(-1.57107 -9.7955e-07 0)
(-1.56635 -9.69803e-07 0)
(-1.56162 -9.60132e-07 0)
(-1.55689 -9.50527e-07 0)
(-1.55216 -9.40987e-07 0)
(-1.54742 -9.31508e-07 0)
(-1.54269 -9.2209e-07 0)
(-1.53794 -9.12732e-07 0)
(-1.5332 -9.03432e-07 0)
(-1.52845 -8.94191e-07 0)
(-1.5237 -8.85009e-07 0)
(-1.51895 -8.75884e-07 0)
(-1.5142 -8.66818e-07 0)
(-1.50944 -8.57809e-07 0)
(-1.50469 -8.48859e-07 0)
(-1.49993 -8.39968e-07 0)
(-1.49517 -8.31134e-07 0)
(-1.49041 -8.22359e-07 0)
(-1.48565 -8.13642e-07 0)
(-1.48088 -8.04984e-07 0)
(-1.47612 -7.96385e-07 0)
(-1.47136 -7.87845e-07 0)
(-1.4666 -7.79363e-07 0)
(-1.46183 -7.70941e-07 0)
(-1.45707 -7.62577e-07 0)
(-1.45231 -7.54273e-07 0)
(-1.44755 -7.46028e-07 0)
(-1.44279 -7.37842e-07 0)
(-1.43803 -7.29716e-07 0)
(-1.43327 -7.2165e-07 0)
(-1.42852 -7.13643e-07 0)
(-1.42376 -7.05696e-07 0)
(-1.41901 -6.97808e-07 0)
(-1.41426 -6.89981e-07 0)
(-1.40951 -6.82213e-07 0)
(-1.40477 -6.74505e-07 0)
(-1.40003 -6.66856e-07 0)
(-1.39529 -6.59268e-07 0)
(-1.39055 -6.5174e-07 0)
(-1.38582 -6.44271e-07 0)
(-1.38109 -6.36863e-07 0)
(-1.37636 -6.29514e-07 0)
(-1.37164 -6.22225e-07 0)
(-1.36692 -6.14996e-07 0)
(-1.36221 -6.07827e-07 0)
(-1.3575 -6.00718e-07 0)
(-1.3528 -5.93668e-07 0)
(-1.3481 -5.86678e-07 0)
(-1.3434 -5.79747e-07 0)
(-1.33871 -5.72876e-07 0)
(-1.33403 -5.66064e-07 0)
(-1.32935 -5.59312e-07 0)
(-1.32467 -5.52618e-07 0)
(-1.32001 -5.45984e-07 0)
(-1.31535 -5.39409e-07 0)
(-1.31069 -5.32892e-07 0)
(-1.30604 -5.26434e-07 0)
(-1.3014 -5.20035e-07 0)
(-1.29676 -5.13694e-07 0)
(-1.29214 -5.07411e-07 0)
(-1.28751 -5.01187e-07 0)
(-1.2829 -4.9502e-07 0)
(-1.27829 -4.88911e-07 0)
(-1.27369 -4.8286e-07 0)
(-1.2691 -4.76865e-07 0)
(-1.26452 -4.70929e-07 0)
(-1.25994 -4.65048e-07 0)
(-1.25537 -4.59225e-07 0)
(-1.25081 -4.53458e-07 0)
(-1.24626 -4.47748e-07 0)
(-1.24172 -4.42094e-07 0)
(-1.23718 -4.36495e-07 0)
(-1.23266 -4.30952e-07 0)
(-1.22814 -4.25465e-07 0)
(-1.22363 -4.20032e-07 0)
(-1.21914 -4.14654e-07 0)
(-1.21465 -4.09331e-07 0)
(-1.21017 -4.04063e-07 0)
(-1.2057 -3.98848e-07 0)
(-1.20124 -3.93687e-07 0)
(-1.19679 -3.8858e-07 0)
(-1.19235 -3.83526e-07 0)
(-1.18792 -3.78525e-07 0)
(-1.1835 -3.73576e-07 0)
(-1.1791 -3.6868e-07 0)
(-1.1747 -3.63836e-07 0)
(-1.17031 -3.59044e-07 0)
(-1.16593 -3.54303e-07 0)
(-1.16157 -3.49613e-07 0)
(-1.15721 -3.44974e-07 0)
(-1.15287 -3.40386e-07 0)
(-1.14854 -3.35848e-07 0)
(-1.14422 -3.3136e-07 0)
(-1.13991 -3.26921e-07 0)
(-1.13561 -3.22532e-07 0)
(-1.13133 -3.18191e-07 0)
(-1.12705 -3.13899e-07 0)
(-1.12279 -3.09655e-07 0)
(-1.11854 -3.05459e-07 0)
(-1.1143 -3.01311e-07 0)
(-1.11008 -2.9721e-07 0)
(-1.10586 -2.93156e-07 0)
(-1.10166 -2.89148e-07 0)
(-1.09747 -2.85187e-07 0)
(-1.0933 -2.81271e-07 0)
(-1.08914 -2.77401e-07 0)
(-1.08499 -2.73576e-07 0)
(-1.08085 -2.69796e-07 0)
(-1.07672 -2.66061e-07 0)
(-1.07261 -2.62369e-07 0)
(-1.06851 -2.58721e-07 0)
(-1.06443 -2.55117e-07 0)
(-1.06035 -2.51555e-07 0)
(-1.05629 -2.48036e-07 0)
(-1.05225 -2.4456e-07 0)
(-1.04822 -2.41126e-07 0)
(-1.0442 -2.37733e-07 0)
(-1.04019 -2.34381e-07 0)
(-1.0362 -2.3107e-07 0)
(-1.03222 -2.278e-07 0)
(-1.02826 -2.2457e-07 0)
(-1.02431 -2.2138e-07 0)
(-1.02037 -2.18229e-07 0)
(-1.01645 -2.15118e-07 0)
(-1.01254 -2.12045e-07 0)
(-1.00864 -2.0901e-07 0)
(-1.00476 -2.06014e-07 0)
(-1.0009 -2.03055e-07 0)
(-0.997046 -2.00133e-07 0)
(-0.993207 -1.97249e-07 0)
(-0.989384 -1.94401e-07 0)
(-0.985574 -1.91589e-07 0)
(-0.981779 -1.88813e-07 0)
(-0.977998 -1.86073e-07 0)
(-0.974232 -1.83368e-07 0)
(-0.97048 -1.80698e-07 0)
(-0.966743 -1.78063e-07 0)
(-0.96302 -1.75461e-07 0)
(-0.959312 -1.72894e-07 0)
(-0.955618 -1.70359e-07 0)
(-0.951939 -1.67858e-07 0)
(-0.948275 -1.6539e-07 0)
(-0.944625 -1.62954e-07 0)
(-0.940991 -1.60551e-07 0)
(-0.937371 -1.58179e-07 0)
(-0.933765 -1.55839e-07 0)
(-0.930175 -1.53529e-07 0)
(-0.926599 -1.51251e-07 0)
(-0.923038 -1.49003e-07 0)
(-0.919492 -1.46785e-07 0)
(-0.915961 -1.44596e-07 0)
(-0.912445 -1.42438e-07 0)
(-0.908944 -1.40308e-07 0)
(-0.905457 -1.38207e-07 0)
(-0.901986 -1.36135e-07 0)
(-0.898529 -1.34091e-07 0)
(-0.895087 -1.32075e-07 0)
(-0.891661 -1.30087e-07 0)
(-0.888249 -1.28125e-07 0)
(-0.884852 -1.26191e-07 0)
(-0.881471 -1.24283e-07 0)
(-0.878104 -1.22402e-07 0)
(-0.874752 -1.20547e-07 0)
(-0.871415 -1.18717e-07 0)
(-0.868094 -1.16914e-07 0)
(-0.864787 -1.15135e-07 0)
(-0.861495 -1.13382e-07 0)
(-0.858218 -1.11653e-07 0)
(-0.854956 -1.09949e-07 0)
(-0.851709 -1.08269e-07 0)
(-0.848476 -1.06615e-07 0)
(-0.845259 -1.04983e-07 0)
(-0.842057 -1.03363e-07 0)
(-0.838869 -1.01836e-07 0)
(-0.835693 -1.00319e-07 0)
(-0.832177 -9.85489e-08 0)
(-0.828365 -9.66923e-08 0)
(-0.824622 -9.5001e-08 0)
(-0.820943 -9.3352e-08 0)
(-0.817328 -9.16752e-08 0)
(-0.81378 -9.00247e-08 0)
(-0.810295 -8.84145e-08 0)
(-0.806872 -8.68473e-08 0)
(-0.803509 -8.53228e-08 0)
(-0.800206 -8.38399e-08 0)
(-0.796959 -8.23978e-08 0)
(-0.793768 -8.09951e-08 0)
(-0.790631 -7.96306e-08 0)
(-0.787547 -7.83028e-08 0)
(-0.784514 -7.70103e-08 0)
(-0.78153 -7.5752e-08 0)
(-0.778596 -7.45266e-08 0)
(-0.775708 -7.33328e-08 0)
(-0.772867 -7.21696e-08 0)
(-0.77007 -7.10359e-08 0)
(-0.767317 -6.99306e-08 0)
(-0.764607 -6.88528e-08 0)
(-0.761939 -6.78016e-08 0)
(-0.759311 -6.67759e-08 0)
(-0.756722 -6.57751e-08 0)
(-0.754172 -6.47982e-08 0)
(-0.75166 -6.38444e-08 0)
(-0.749185 -6.29131e-08 0)
(-0.746746 -6.20035e-08 0)
(-0.744342 -6.11149e-08 0)
(-0.741972 -6.02466e-08 0)
(-0.739635 -5.9398e-08 0)
(-0.737332 -5.85685e-08 0)
(-0.735061 -5.77575e-08 0)
(-0.73282 -5.69644e-08 0)
(-0.730611 -5.61887e-08 0)
(-0.728431 -5.54299e-08 0)
(-0.726281 -5.46875e-08 0)
(-0.72416 -5.3961e-08 0)
(-0.722066 -5.32498e-08 0)
(-0.720001 -5.25537e-08 0)
(-0.717962 -5.18721e-08 0)
(-0.715949 -5.12047e-08 0)
(-0.713962 -5.0551e-08 0)
(-0.712001 -4.99107e-08 0)
(-0.710064 -4.92833e-08 0)
(-0.708151 -4.86686e-08 0)
(-0.706262 -4.80662e-08 0)
(-0.704397 -4.74757e-08 0)
(-0.702554 -4.68969e-08 0)
(-0.700734 -4.63294e-08 0)
(-0.698936 -4.5773e-08 0)
(-0.697159 -4.52273e-08 0)
(-0.695404 -4.46921e-08 0)
(-0.693669 -4.41671e-08 0)
(-0.691954 -4.36521e-08 0)
(-0.69026 -4.31468e-08 0)
(-0.688584 -4.26509e-08 0)
(-0.686929 -4.21643e-08 0)
(-0.685291 -4.16868e-08 0)
(-0.683673 -4.1218e-08 0)
(-0.682072 -4.07579e-08 0)
(-0.68049 -4.03062e-08 0)
(-0.678925 -3.98628e-08 0)
(-0.677377 -3.94274e-08 0)
(-0.675846 -3.89999e-08 0)
(-0.674331 -3.85802e-08 0)
(-0.672833 -3.8168e-08 0)
(-0.67135 -3.77633e-08 0)
(-0.669884 -3.7366e-08 0)
(-0.668432 -3.69759e-08 0)
(-0.666996 -3.6593e-08 0)
(-0.665575 -3.62171e-08 0)
(-0.664168 -3.58482e-08 0)
(-0.662775 -3.54864e-08 0)
(-0.661397 -3.51316e-08 0)
(-0.660032 -3.47838e-08 0)
(-0.65868 -3.44432e-08 0)
(-0.657342 -3.41101e-08 0)
(-0.656017 -3.37846e-08 0)
(-0.654704 -3.34674e-08 0)
(-0.653403 -3.31591e-08 0)
(-0.652115 -3.28608e-08 0)
(-0.650837 -3.25741e-08 0)
(-0.649571 -3.23009e-08 0)
(-0.648315 -3.20499e-08 0)
(-0.647069 -3.18103e-08 0)
(-0.645831 -3.16099e-08 0)
(-0.6446 -3.15853e-08 0)
(-0.643365 -3.12327e-08 0)
(-0.642162 -3.04238e-08 0)
(-0.640989 -4.00071e-08 0)
(-0.639037 -1.08694e-08 0)
(-0.640151 -2.94437e-08 0)
(-0.636699 -4.50678e-08 0)
)
;
    }
    symmetry
    {
        type            symmetryPlane;
    }
    frontAndBack
    {
        type            empty;
    }
}


// ************************************************************************* //
