/*--------------------------------*- C++ -*----------------------------------*\
| =========                 |                                                 |
| \\      /  F ield         | OpenFOAM: The Open Source CFD Toolbox           |
|  \\    /   O peration     | Version:  v2012                                 |
|   \\  /    A nd           | Website:  www.openfoam.com                      |
|    \\/     M anipulation  |                                                 |
\*---------------------------------------------------------------------------*/
FoamFile
{
    version     2.0;
    format      ascii;
    class       volScalarField;
    location    "21";
    object      yPlus;
}
// * * * * * * * * * * * * * * * * * * * * * * * * * * * * * * * * * * * * * //

dimensions      [0 0 0 0 0 0 0];


internalField   uniform 0;

boundaryField
{
    inlet
    {
        type            calculated;
        value           uniform 0;
    }
    outlet
    {
        type            calculated;
        value           uniform 0;
    }
    topWall
    {
        type            calculated;
        value           nonuniform List<scalar> 
545
(
0.0703219
0.121267
0.155565
0.182848
0.205933
0.226117
0.244132
0.260435
0.27534
0.289072
0.301799
0.313652
0.324735
0.335132
0.344914
0.354138
0.362855
0.371108
0.378933
0.386365
0.393432
0.400159
0.40657
0.412686
0.418525
0.424104
0.429439
0.434544
0.439433
0.444116
0.448607
0.452913
0.457046
0.461015
0.464826
0.468489
0.472011
0.475398
0.478656
0.481792
0.484811
0.487718
0.490519
0.493219
0.49582
0.498329
0.500749
0.503083
0.505335
0.507509
0.509608
0.511635
0.513592
0.515483
0.51731
0.519076
0.520783
0.522433
0.524029
0.525572
0.527065
0.528509
0.529907
0.531259
0.532568
0.533835
0.535063
0.536251
0.537402
0.538516
0.539596
0.540642
0.541643
0.54261
0.543568
0.544518
0.545459
0.546391
0.547316
0.548232
0.549139
0.550039
0.550931
0.551815
0.55269
0.553559
0.554419
0.555272
0.556117
0.556955
0.557785
0.558609
0.559425
0.560233
0.561035
0.56183
0.562545
0.563184
0.563823
0.56446
0.565097
0.565734
0.566369
0.567004
0.567639
0.568272
0.568905
0.569537
0.570169
0.570799
0.571429
0.572059
0.572687
0.573315
0.573942
0.574568
0.575193
0.575817
0.576441
0.577064
0.577686
0.578307
0.578928
0.579548
0.580166
0.580784
0.581401
0.582017
0.582633
0.583247
0.583861
0.584473
0.585085
0.585696
0.586305
0.586914
0.587522
0.588129
0.588735
0.58934
0.589945
0.590548
0.59115
0.591751
0.592351
0.59295
0.593548
0.594145
0.594741
0.595336
0.59593
0.596523
0.597115
0.597706
0.598295
0.598884
0.599471
0.600057
0.600642
0.601226
0.601809
0.602391
0.602971
0.603551
0.604129
0.604706
0.605282
0.605856
0.60643
0.607002
0.607573
0.608142
0.608711
0.609278
0.609843
0.610408
0.610971
0.611533
0.612094
0.612653
0.613211
0.613768
0.614323
0.614877
0.61543
0.615981
0.616531
0.617079
0.617626
0.618171
0.618716
0.619258
0.6198
0.620339
0.620878
0.621414
0.62195
0.622484
0.623016
0.623547
0.624076
0.624604
0.62513
0.625655
0.626178
0.626699
0.627219
0.627738
0.628254
0.628769
0.629283
0.629795
0.630305
0.630813
0.63132
0.631825
0.632329
0.63283
0.63333
0.633829
0.634325
0.63482
0.635313
0.635805
0.636294
0.636782
0.637268
0.637752
0.638234
0.638715
0.639193
0.63967
0.640145
0.640618
0.641089
0.641558
0.642026
0.642491
0.642955
0.643416
0.643876
0.644334
0.644789
0.645243
0.645695
0.646145
0.646592
0.647038
0.647482
0.647923
0.648363
0.6488
0.649236
0.649669
0.6501
0.650529
0.650956
0.651381
0.651804
0.652225
0.652643
0.653059
0.653473
0.653885
0.654295
0.654702
0.655107
0.65551
0.655911
0.656287
0.656641
0.656996
0.657352
0.657709
0.658067
0.658427
0.658787
0.659149
0.659512
0.659875
0.66024
0.660605
0.660971
0.661338
0.661706
0.662074
0.662442
0.662812
0.663182
0.663552
0.663922
0.664293
0.664664
0.665035
0.665407
0.665778
0.666149
0.66652
0.666891
0.667262
0.667632
0.668002
0.668371
0.668739
0.669107
0.669474
0.669841
0.670206
0.67057
0.670933
0.671295
0.671655
0.672014
0.672371
0.672727
0.67308
0.673432
0.673782
0.674129
0.674475
0.674817
0.675158
0.675495
0.67583
0.676162
0.676491
0.676816
0.677139
0.677457
0.677772
0.678084
0.678391
0.678694
0.678993
0.679288
0.679578
0.679863
0.680143
0.680418
0.680688
0.680953
0.681211
0.681465
0.681712
0.681953
0.682187
0.682415
0.682637
0.682851
0.683058
0.683258
0.683451
0.683635
0.683812
0.683981
0.684141
0.684293
0.684436
0.68457
0.684695
0.68481
0.684916
0.685011
0.685097
0.685172
0.685237
0.685291
0.685334
0.685366
0.685386
0.685395
0.685392
0.685376
0.685348
0.685308
0.685255
0.685188
0.685108
0.685015
0.684908
0.684787
0.684651
0.684501
0.684337
0.684157
0.683962
0.683752
0.683526
0.683285
0.683027
0.682753
0.682463
0.682156
0.681832
0.681491
0.681133
0.680757
0.680364
0.679953
0.679523
0.679076
0.67861
0.678126
0.677623
0.677101
0.67656
0.676
0.675421
0.674822
0.674204
0.673566
0.672909
0.672231
0.671534
0.670817
0.67008
0.669323
0.668546
0.667748
0.66693
0.666092
0.665234
0.664356
0.663457
0.662538
0.6616
0.66064
0.659661
0.658662
0.657643
0.656604
0.655546
0.654468
0.65337
0.652253
0.651117
0.649962
0.648788
0.647596
0.646385
0.645156
0.643909
0.642645
0.641363
0.640064
0.638748
0.637415
0.636066
0.634702
0.633321
0.63177
0.630054
0.62834
0.626629
0.624921
0.623217
0.621518
0.619824
0.618138
0.616458
0.614786
0.613122
0.611468
0.609823
0.608188
0.606564
0.604951
0.60335
0.60176
0.600184
0.59862
0.59707
0.595533
0.594011
0.592503
0.591009
0.589531
0.588068
0.586621
0.58519
0.583775
0.582377
0.580995
0.579631
0.578283
0.576954
0.575641
0.574347
0.573071
0.571813
0.570573
0.569353
0.568151
0.566968
0.565804
0.56466
0.563536
0.562431
0.561346
0.560281
0.559236
0.558212
0.557208
0.556226
0.555264
0.554323
0.553403
0.552504
0.551627
0.550772
0.549938
0.549127
0.548337
0.54757
0.546825
0.546102
0.545402
0.544725
0.544071
0.54344
0.542831
0.542247
0.541685
0.541147
0.540633
0.540142
0.539675
0.539232
0.538814
0.538419
0.538048
0.537702
0.53738
0.537083
0.53681
0.536562
0.536338
0.536139
0.535965
0.535816
0.535691
0.535592
0.535516
0.535469
0.535432
)
;
    }
    bottomWall
    {
        type            calculated;
        value           nonuniform List<scalar> 
449
(
0.13951
0.0889939
0.0758381
0.0694634
0.0652783
0.0621505
0.0596544
0.0575899
0.0558382
0.0543213
0.052987
0.0517989
0.0507304
0.0497614
0.0488763
0.0480627
0.0473109
0.0466128
0.0459617
0.0453524
0.04478
0.0442408
0.0437314
0.0432489
0.0427908
0.0423551
0.0419397
0.041543
0.0411635
0.0408
0.0404512
0.040116
0.0397936
0.0394831
0.0391836
0.0388946
0.0386153
0.0383452
0.0380837
0.0378303
0.0375847
0.0373463
0.0371148
0.0368898
0.0366711
0.0364582
0.036251
0.0360491
0.0358523
0.0356604
0.0354731
0.0352903
0.0351118
0.0349373
0.0347668
0.0346
0.0344368
0.0342771
0.0341207
0.0339675
0.0338174
0.0336703
0.0335261
0.0333846
0.0332459
0.0331097
0.032976
0.0328447
0.0327157
0.032589
0.0324645
0.0323422
0.0322218
0.0321035
0.0319871
0.0318726
0.0317599
0.0316489
0.0315397
0.0314322
0.0313262
0.0312219
0.0311191
0.0310178
0.0309179
0.0308195
0.0307224
0.0306267
0.0305323
0.0304392
0.0303473
0.0302566
0.0301672
0.0300789
0.0299917
0.0299056
0.0298206
0.0297367
0.0296538
0.0295719
0.029491
0.029411
0.029332
0.029254
0.0291768
0.0291005
0.0290251
0.0289505
0.0288768
0.0288038
0.0287317
0.0286603
0.0285898
0.0285199
0.0284508
0.0283824
0.0283148
0.0282478
0.0281815
0.0281159
0.0280509
0.0279866
0.0279229
0.0278598
0.0277974
0.0277355
0.0276743
0.0276136
0.0275535
0.0274939
0.0274349
0.0273764
0.0273185
0.0272611
0.0272042
0.0271478
0.0270919
0.0270364
0.0269815
0.026927
0.0268731
0.0268195
0.0267664
0.0267138
0.0266616
0.0266098
0.0265585
0.0265076
0.026457
0.0264069
0.0263572
0.0263079
0.026259
0.0262104
0.0261623
0.0261145
0.026067
0.02602
0.0259732
0.0259269
0.0258809
0.0258352
0.0257898
0.0257448
0.0257002
0.0256558
0.0256118
0.025568
0.0255246
0.0254815
0.0254387
0.0253962
0.025354
0.0253145
0.0252773
0.02524
0.0252026
0.0251651
0.0251276
0.0250899
0.0250522
0.0250144
0.0249765
0.0249385
0.0249004
0.0248623
0.024824
0.0247857
0.0247473
0.0247088
0.0246703
0.0246317
0.0245929
0.0245542
0.0245153
0.0244764
0.0244374
0.0243983
0.0243592
0.02432
0.0242807
0.0242414
0.024202
0.0241625
0.024123
0.0240835
0.0240438
0.0240041
0.0239644
0.0239246
0.0238848
0.0238449
0.0238049
0.0237649
0.0237249
0.0236848
0.0236447
0.0236045
0.0235643
0.0235241
0.0234838
0.0234435
0.0234031
0.0233628
0.0233223
0.0232819
0.0232414
0.0232009
0.0231604
0.0231198
0.0230792
0.0230386
0.022998
0.0229574
0.0229167
0.022876
0.0228353
0.0227946
0.0227539
0.0227132
0.0226724
0.0226317
0.0225909
0.0225502
0.0225094
0.0224686
0.0224279
0.0223871
0.0223463
0.0223056
0.0222648
0.0222241
0.0221833
0.0221426
0.0221018
0.0220611
0.0220204
0.0219797
0.021939
0.0218983
0.0218577
0.0218171
0.0217764
0.0217358
0.0216953
0.0216547
0.0216142
0.0215737
0.0215332
0.0214928
0.0214524
0.021412
0.0213716
0.0213313
0.021291
0.0212507
0.0212105
0.0211703
0.0211302
0.0210901
0.02105
0.02101
0.02097
0.0209301
0.0208902
0.0208504
0.0208106
0.0207708
0.0207311
0.0206915
0.0206519
0.0206123
0.0205729
0.0205334
0.020494
0.0204547
0.0204154
0.0203762
0.0203371
0.020298
0.020259
0.02022
0.0201811
0.0201423
0.0201035
0.0200648
0.0200261
0.0199875
0.019949
0.0199106
0.0198722
0.0198339
0.0197957
0.0197576
0.0197195
0.0196815
0.0196435
0.0196057
0.0195679
0.0195302
0.0194926
0.019455
0.0194176
0.0193802
0.0193429
0.0193056
0.0192685
0.0192314
0.0191945
0.0191576
0.0191208
0.019084
0.0190474
0.0190109
0.0189744
0.018938
0.0189017
0.0188655
0.0188294
0.0187934
0.0187575
0.0187217
0.0186859
0.0186503
0.0186147
0.0185793
0.0185439
0.0185086
0.0184734
0.0184383
0.0184034
0.0183685
0.0183337
0.0182989
0.0182604
0.0182185
0.0181773
0.0181367
0.0180967
0.0180574
0.0180187
0.0179806
0.0179431
0.0179062
0.0178698
0.017834
0.0177987
0.017764
0.0177297
0.017696
0.0176627
0.01763
0.0175976
0.0175658
0.0175343
0.0175034
0.0174728
0.0174426
0.0174129
0.0173835
0.0173545
0.0173259
0.0172977
0.0172698
0.0172423
0.0172152
0.0171883
0.0171618
0.0171357
0.0171098
0.0170843
0.017059
0.0170341
0.0170095
0.0169851
0.016961
0.0169373
0.0169137
0.0168905
0.0168675
0.0168448
0.0168223
0.0168001
0.0167781
0.0167563
0.0167348
0.0167135
0.0166925
0.0166716
0.016651
0.0166306
0.0166104
0.0165904
0.0165707
0.0165511
0.0165317
0.0165125
0.0164935
0.0164747
0.0164561
0.0164376
0.0164193
0.0164012
0.0163833
0.0163656
0.016348
0.0163305
0.0163133
0.0162962
0.0162792
0.0162624
0.0162457
0.0162292
0.0162129
0.0161966
0.0161805
0.0161646
0.0161487
0.016133
0.0161174
0.0161019
0.0160865
0.0160712
0.0160558
0.0160407
0.0160261
0.0160017
0.0160156
0.0159724
)
;
    }
    symmetry
    {
        type            symmetryPlane;
    }
    frontAndBack
    {
        type            empty;
    }
}


// ************************************************************************* //
