# Wall shear stress
# Time        	patch         	min           	max           
0.5           	topWall	(-2.590515e-10 -2.992843e-08 0.000000e+00)	(7.723113e-10 -1.070439e-11 0.000000e+00)
0.5           	bottomWall	(-6.026250e+01 -8.974064e-01 0.000000e+00)	(-4.657277e+01 1.853181e-04 0.000000e+00)
1             	topWall	(-3.753732e-10 -4.743786e-08 0.000000e+00)	(1.255906e-09 -8.598416e-10 0.000000e+00)
1             	bottomWall	(-4.926595e+01 -9.201850e-01 0.000000e+00)	(-2.758866e+01 8.717609e-05 0.000000e+00)
1.5           	topWall	(-5.786625e-10 -7.315371e-08 0.000000e+00)	(1.870824e-09 -1.288425e-09 0.000000e+00)
1.5           	bottomWall	(-4.777076e+01 -9.379234e-01 0.000000e+00)	(-2.000049e+01 5.749588e-06 0.000000e+00)
2             	topWall	(-8.229779e-10 -1.059776e-07 0.000000e+00)	(2.636568e-09 -1.812844e-09 0.000000e+00)
2             	bottomWall	(-4.789603e+01 -9.501699e-01 0.000000e+00)	(-1.533105e+01 1.436821e-07 0.000000e+00)
2.5           	topWall	(-1.080754e-09 -1.454129e-07 0.000000e+00)	(3.474816e-09 -2.398135e-09 0.000000e+00)
2.5           	bottomWall	(-4.822456e+01 -9.580384e-01 0.000000e+00)	(-1.227215e+01 1.074713e-07 0.000000e+00)
3             	topWall	(-1.328883e-09 -1.900263e-07 0.000000e+00)	(4.351599e-09 -3.013884e-09 0.000000e+00)
3             	bottomWall	(-4.848758e+01 -9.628400e-01 0.000000e+00)	(-1.010885e+01 8.031956e-08 0.000000e+00)
3.5           	topWall	(-1.553530e-09 -2.378841e-07 0.000000e+00)	(5.225237e-09 -3.629717e-09 0.000000e+00)
3.5           	bottomWall	(-4.865676e+01 -9.656109e-01 0.000000e+00)	(-8.497239e+00 5.894986e-08 0.000000e+00)
4             	topWall	(-1.750295e-09 -2.865332e-07 0.000000e+00)	(6.066963e-09 -4.221983e-09 0.000000e+00)
4             	bottomWall	(-4.875193e+01 -9.670882e-01 0.000000e+00)	(-7.251680e+00 3.374535e-08 0.000000e+00)
4.5           	topWall	(-1.920289e-09 -3.351261e-07 0.000000e+00)	(6.863131e-09 -4.785658e-09 0.000000e+00)
4.5           	bottomWall	(-4.879722e+01 -9.677719e-01 0.000000e+00)	(-6.262348e+00 3.100345e-10 0.000000e+00)
5             	topWall	(-2.066288e-09 -3.824172e-07 0.000000e+00)	(7.606071e-09 -5.313593e-09 0.000000e+00)
5             	bottomWall	(-4.881167e+01 -9.679893e-01 0.000000e+00)	(-5.459780e+00 4.852853e-10 0.000000e+00)
5.5           	topWall	(-2.191376e-09 -4.277070e-07 0.000000e+00)	(8.294840e-09 -5.801502e-09 0.000000e+00)
5.5           	bottomWall	(-4.880842e+01 -9.679479e-01 0.000000e+00)	(-4.797765e+00 6.650870e-10 0.000000e+00)
6             	topWall	(-2.298250e-09 -4.706051e-07 0.000000e+00)	(8.921299e-09 -6.250288e-09 0.000000e+00)
6             	bottomWall	(-4.879594e+01 -9.677748e-01 0.000000e+00)	(-4.244322e+00 8.118790e-10 0.000000e+00)
6.5           	topWall	(-2.389618e-09 -5.109317e-07 0.000000e+00)	(9.498503e-09 -6.656164e-09 0.000000e+00)
6.5           	bottomWall	(-4.877938e+01 -9.675447e-01 0.000000e+00)	(-3.776578e+00 8.897352e-10 0.000000e+00)
7             	topWall	(-2.467318e-09 -5.486339e-07 0.000000e+00)	(1.002458e-08 -7.029673e-09 0.000000e+00)
7             	bottomWall	(-4.876168e+01 -9.672993e-01 0.000000e+00)	(-3.377757e+00 8.712446e-10 0.000000e+00)
7.5           	topWall	(-2.533311e-09 -5.837360e-07 0.000000e+00)	(1.050335e-08 -7.369591e-09 0.000000e+00)
7.5           	bottomWall	(-4.874441e+01 -9.670603e-01 0.000000e+00)	(-3.035234e+00 7.414751e-10 0.000000e+00)
8             	topWall	(-2.588846e-09 -6.163124e-07 0.000000e+00)	(1.093833e-08 -7.678473e-09 0.000000e+00)
8             	bottomWall	(-4.872829e+01 -9.668375e-01 0.000000e+00)	(-2.739309e+00 4.977969e-10 0.000000e+00)
8.5           	topWall	(-2.635364e-09 -6.464685e-07 0.000000e+00)	(1.133280e-08 -7.958720e-09 0.000000e+00)
8.5           	bottomWall	(-4.871359e+01 -9.666345e-01 0.000000e+00)	(-2.482385e+00 1.476085e-10 0.000000e+00)
9             	topWall	(-2.673845e-09 -6.743234e-07 0.000000e+00)	(1.169088e-08 -8.214240e-09 0.000000e+00)
9             	bottomWall	(-4.870032e+01 -9.664511e-01 0.000000e+00)	(-2.258403e+00 -2.948553e-10 0.000000e+00)
9.5           	topWall	(-2.705293e-09 -7.000001e-07 0.000000e+00)	(1.201193e-08 -8.441590e-09 0.000000e+00)
9.5           	bottomWall	(-4.868838e+01 -9.662860e-01 0.000000e+00)	(-2.062464e+00 -8.116035e-10 0.000000e+00)
10            	topWall	(-2.730672e-09 -7.236335e-07 0.000000e+00)	(1.230585e-08 -8.649796e-09 0.000000e+00)
10            	bottomWall	(-4.867763e+01 -9.661370e-01 0.000000e+00)	(-1.890546e+00 -1.383517e-09 0.000000e+00)
10.5          	topWall	(-2.750704e-09 -7.453511e-07 0.000000e+00)	(1.256968e-08 -8.837242e-09 0.000000e+00)
10.5          	bottomWall	(-4.866792e+01 -9.660021e-01 0.000000e+00)	(-1.739316e+00 -1.992089e-09 0.000000e+00)
11            	topWall	(-2.766074e-09 -7.652803e-07 0.000000e+00)	(1.280755e-08 -9.006157e-09 0.000000e+00)
11            	bottomWall	(-4.865910e+01 -9.658795e-01 0.000000e+00)	(-1.605983e+00 -2.620649e-09 0.000000e+00)
11.5          	topWall	(-2.777363e-09 -7.835405e-07 0.000000e+00)	(1.302249e-08 -9.158462e-09 0.000000e+00)
11.5          	bottomWall	(-4.865106e+01 -9.657674e-01 0.000000e+00)	(-1.488192e+00 -3.254933e-09 0.000000e+00)
12            	topWall	(-2.785076e-09 -8.002547e-07 0.000000e+00)	(1.321610e-08 -9.295572e-09 0.000000e+00)
12            	bottomWall	(-4.864370e+01 -9.656646e-01 0.000000e+00)	(-1.383941e+00 -3.883303e-09 0.000000e+00)
12.5          	topWall	(-2.789786e-09 -8.155289e-07 0.000000e+00)	(1.339024e-08 -9.418897e-09 0.000000e+00)
12.5          	bottomWall	(-4.863692e+01 -9.655699e-01 0.000000e+00)	(-1.291522e+00 -4.496688e-09 0.000000e+00)
13            	topWall	(-2.792043e-09 -8.294788e-07 0.000000e+00)	(1.354728e-08 -9.529687e-09 0.000000e+00)
13            	bottomWall	(-4.863067e+01 -9.654824e-01 0.000000e+00)	(-1.209467e+00 -5.088362e-09 0.000000e+00)
13.5          	topWall	(-2.791952e-09 -8.422000e-07 0.000000e+00)	(1.368709e-08 -9.629484e-09 0.000000e+00)
13.5          	bottomWall	(-4.862487e+01 -9.654013e-01 0.000000e+00)	(-1.136512e+00 -5.653669e-09 0.000000e+00)
14            	topWall	(-2.790261e-09 -8.537890e-07 0.000000e+00)	(1.381312e-08 -9.718307e-09 0.000000e+00)
14            	bottomWall	(-4.861950e+01 -9.653259e-01 0.000000e+00)	(-1.071562e+00 -6.189636e-09 0.000000e+00)
14.5          	topWall	(-2.786860e-09 -8.643351e-07 0.000000e+00)	(1.392622e-08 -9.798432e-09 0.000000e+00)
14.5          	bottomWall	(-4.861449e+01 -9.652557e-01 0.000000e+00)	(-1.013670e+00 -6.694735e-09 0.000000e+00)
15            	topWall	(-2.782472e-09 -8.739232e-07 0.000000e+00)	(1.402758e-08 -9.870238e-09 0.000000e+00)
15            	bottomWall	(-4.860982e+01 -9.651902e-01 0.000000e+00)	(-9.620105e-01 -7.168510e-09 0.000000e+00)
15.5          	topWall	(-2.776917e-09 -8.826310e-07 0.000000e+00)	(1.411835e-08 -9.934548e-09 0.000000e+00)
15.5          	bottomWall	(-4.860545e+01 -9.651289e-01 0.000000e+00)	(-9.158636e-01 -7.611342e-09 0.000000e+00)
16            	topWall	(-2.770744e-09 -8.905367e-07 0.000000e+00)	(1.419960e-08 -9.992113e-09 0.000000e+00)
16            	bottomWall	(-4.860137e+01 -9.650715e-01 0.000000e+00)	(-8.746006e-01 -8.024214e-09 0.000000e+00)
16.5          	topWall	(-2.763984e-09 -8.977052e-07 0.000000e+00)	(1.427229e-08 -1.004361e-08 0.000000e+00)
16.5          	bottomWall	(-4.859753e+01 -9.650176e-01 0.000000e+00)	(-8.376706e-01 -8.408520e-09 0.000000e+00)
17            	topWall	(-2.756702e-09 -9.041965e-07 0.000000e+00)	(1.433728e-08 -1.008966e-08 0.000000e+00)
17            	bottomWall	(-4.859393e+01 -9.649670e-01 0.000000e+00)	(-8.045903e-01 -8.765920e-09 0.000000e+00)
17.5          	topWall	(-2.749275e-09 -9.100764e-07 0.000000e+00)	(1.439536e-08 -1.013082e-08 0.000000e+00)
17.5          	bottomWall	(-4.859054e+01 -9.649194e-01 0.000000e+00)	(-7.749347e-01 -9.098213e-09 0.000000e+00)
18            	topWall	(-2.741720e-09 -9.153941e-07 0.000000e+00)	(1.444725e-08 -1.016758e-08 0.000000e+00)
18            	bottomWall	(-4.858734e+01 -9.648745e-01 0.000000e+00)	(-7.483295e-01 -9.407249e-09 0.000000e+00)
18.5          	topWall	(-2.734043e-09 -9.202015e-07 0.000000e+00)	(1.449359e-08 -1.020042e-08 0.000000e+00)
18.5          	bottomWall	(-4.858432e+01 -9.648322e-01 0.000000e+00)	(-7.244445e-01 -9.694859e-09 0.000000e+00)
19            	topWall	(-2.726343e-09 -9.245442e-07 0.000000e+00)	(1.453496e-08 -1.022973e-08 0.000000e+00)
19            	bottomWall	(-4.858147e+01 -9.647922e-01 0.000000e+00)	(-7.029878e-01 -9.962807e-09 0.000000e+00)
19.5          	topWall	(-2.718807e-09 -9.284666e-07 0.000000e+00)	(1.457186e-08 -1.025588e-08 0.000000e+00)
19.5          	bottomWall	(-4.857878e+01 -9.647543e-01 0.000000e+00)	(-6.837013e-01 -1.021276e-08 0.000000e+00)
20            	topWall	(-2.711498e-09 -9.320010e-07 0.000000e+00)	(1.460478e-08 -1.027921e-08 0.000000e+00)
20            	bottomWall	(-4.857623e+01 -9.647185e-01 0.000000e+00)	(-6.663559e-01 -1.044625e-08 0.000000e+00)
20.5          	topWall	(-2.704350e-09 -9.351954e-07 0.000000e+00)	(1.463415e-08 -1.030002e-08 0.000000e+00)
20.5          	bottomWall	(-4.857381e+01 -9.646845e-01 0.000000e+00)	(-6.507487e-01 -1.066471e-08 0.000000e+00)
21            	topWall	(-2.697406e-09 -9.380713e-07 0.000000e+00)	(1.466032e-08 -1.031857e-08 0.000000e+00)
21            	bottomWall	(-4.857151e+01 -9.646523e-01 0.000000e+00)	(-6.366989e-01 -1.086940e-08 0.000000e+00)
21.5          	topWall	(-2.690699e-09 -9.406592e-07 0.000000e+00)	(1.468365e-08 -1.033510e-08 0.000000e+00)
21.5          	bottomWall	(-4.856933e+01 -9.646217e-01 0.000000e+00)	(-6.240459e-01 -1.106149e-08 0.000000e+00)
22            	topWall	(-2.684253e-09 -9.429946e-07 0.000000e+00)	(1.470444e-08 -1.034984e-08 0.000000e+00)
22            	bottomWall	(-4.856726e+01 -9.645926e-01 0.000000e+00)	(-6.126465e-01 -1.124200e-08 0.000000e+00)
22.5          	topWall	(-2.678085e-09 -9.450957e-07 0.000000e+00)	(1.472296e-08 -1.036296e-08 0.000000e+00)
22.5          	bottomWall	(-4.856528e+01 -9.645649e-01 0.000000e+00)	(-6.023731e-01 -1.141184e-08 0.000000e+00)
23            	topWall	(-2.672256e-09 -9.469842e-07 0.000000e+00)	(1.473946e-08 -1.037465e-08 0.000000e+00)
23            	bottomWall	(-4.856340e+01 -9.645386e-01 0.000000e+00)	(-5.931115e-01 -1.157182e-08 0.000000e+00)
23.5          	topWall	(-2.666777e-09 -9.486812e-07 0.000000e+00)	(1.475415e-08 -1.038506e-08 0.000000e+00)
23.5          	bottomWall	(-4.856161e+01 -9.645134e-01 0.000000e+00)	(-5.847598e-01 -1.172265e-08 0.000000e+00)
24            	topWall	(-2.661585e-09 -9.502086e-07 0.000000e+00)	(1.476724e-08 -1.039434e-08 0.000000e+00)
24            	bottomWall	(-4.855990e+01 -9.644895e-01 0.000000e+00)	(-5.772267e-01 -1.186496e-08 0.000000e+00)
24.5          	topWall	(-2.656680e-09 -9.515831e-07 0.000000e+00)	(1.477888e-08 -1.040259e-08 0.000000e+00)
24.5          	bottomWall	(-4.855827e+01 -9.644666e-01 0.000000e+00)	(-5.704306e-01 -1.199931e-08 0.000000e+00)
25            	topWall	(-2.652058e-09 -9.528171e-07 0.000000e+00)	(1.478925e-08 -1.040994e-08 0.000000e+00)
25            	bottomWall	(-4.855671e+01 -9.644448e-01 0.000000e+00)	(-5.642981e-01 -1.212620e-08 0.000000e+00)
25.5          	topWall	(-2.647713e-09 -9.539247e-07 0.000000e+00)	(1.479848e-08 -1.041648e-08 0.000000e+00)
25.5          	bottomWall	(-4.855522e+01 -9.644239e-01 0.000000e+00)	(-5.587635e-01 -1.224607e-08 0.000000e+00)
26            	topWall	(-2.643638e-09 -9.549185e-07 0.000000e+00)	(1.480669e-08 -1.042230e-08 0.000000e+00)
26            	bottomWall	(-4.855380e+01 -9.644039e-01 0.000000e+00)	(-5.537678e-01 -1.235931e-08 0.000000e+00)
26.5          	topWall	(-2.639823e-09 -9.558099e-07 0.000000e+00)	(1.481400e-08 -1.042747e-08 0.000000e+00)
26.5          	bottomWall	(-4.855244e+01 -9.643848e-01 0.000000e+00)	(-5.492580e-01 -1.246628e-08 0.000000e+00)
27            	topWall	(-2.636258e-09 -9.566095e-07 0.000000e+00)	(1.482050e-08 -1.043208e-08 0.000000e+00)
27            	bottomWall	(-4.855113e+01 -9.643665e-01 0.000000e+00)	(-5.451864e-01 -1.256731e-08 0.000000e+00)
27.5          	topWall	(-2.632934e-09 -9.573268e-07 0.000000e+00)	(1.482628e-08 -1.043618e-08 0.000000e+00)
27.5          	bottomWall	(-4.854988e+01 -9.643490e-01 0.000000e+00)	(-5.415100e-01 -1.266269e-08 0.000000e+00)
28            	topWall	(-2.629837e-09 -9.579724e-07 0.000000e+00)	(1.483143e-08 -1.043983e-08 0.000000e+00)
28            	bottomWall	(-4.854868e+01 -9.643322e-01 0.000000e+00)	(-5.381904e-01 -1.275270e-08 0.000000e+00)
28.5          	topWall	(-2.626958e-09 -9.585512e-07 0.000000e+00)	(1.483600e-08 -1.044307e-08 0.000000e+00)
28.5          	bottomWall	(-4.854753e+01 -9.643161e-01 0.000000e+00)	(-5.351926e-01 -1.283760e-08 0.000000e+00)
29            	topWall	(-2.624284e-09 -9.590698e-07 0.000000e+00)	(1.484008e-08 -1.044596e-08 0.000000e+00)
29            	bottomWall	(-4.854643e+01 -9.643007e-01 0.000000e+00)	(-5.324855e-01 -1.291763e-08 0.000000e+00)
29.5          	topWall	(-2.621804e-09 -9.595345e-07 0.000000e+00)	(1.484370e-08 -1.044852e-08 0.000000e+00)
29.5          	bottomWall	(-4.854537e+01 -9.642859e-01 0.000000e+00)	(-5.300407e-01 -1.299302e-08 0.000000e+00)
30            	topWall	(-2.619507e-09 -9.599508e-07 0.000000e+00)	(1.484692e-08 -1.045081e-08 0.000000e+00)
30            	bottomWall	(-4.854435e+01 -9.642716e-01 0.000000e+00)	(-5.278328e-01 -1.306400e-08 0.000000e+00)
30.5          	topWall	(-2.617381e-09 -9.603236e-07 0.000000e+00)	(1.484978e-08 -1.045284e-08 0.000000e+00)
30.5          	bottomWall	(-4.854337e+01 -9.642579e-01 0.000000e+00)	(-5.258388e-01 -1.313076e-08 0.000000e+00)
31            	topWall	(-2.615416e-09 -9.606575e-07 0.000000e+00)	(1.485233e-08 -1.045464e-08 0.000000e+00)
31            	bottomWall	(-4.854243e+01 -9.642448e-01 0.000000e+00)	(-5.240380e-01 -1.319351e-08 0.000000e+00)
31.5          	topWall	(-2.613602e-09 -9.609565e-07 0.000000e+00)	(1.485460e-08 -1.045625e-08 0.000000e+00)
31.5          	bottomWall	(-4.854153e+01 -9.642322e-01 0.000000e+00)	(-5.224117e-01 -1.325244e-08 0.000000e+00)
32            	topWall	(-2.611929e-09 -9.612242e-07 0.000000e+00)	(1.485661e-08 -1.045768e-08 0.000000e+00)
32            	bottomWall	(-4.854066e+01 -9.642200e-01 0.000000e+00)	(-5.209430e-01 -1.330774e-08 0.000000e+00)
32.5          	topWall	(-2.610386e-09 -9.614638e-07 0.000000e+00)	(1.485841e-08 -1.045895e-08 0.000000e+00)
32.5          	bottomWall	(-4.853982e+01 -9.642083e-01 0.000000e+00)	(-5.196168e-01 -1.335959e-08 0.000000e+00)
33            	topWall	(-2.608966e-09 -9.616782e-07 0.000000e+00)	(1.486000e-08 -1.046008e-08 0.000000e+00)
33            	bottomWall	(-4.853902e+01 -9.641970e-01 0.000000e+00)	(-5.184191e-01 -1.340816e-08 0.000000e+00)
33.5          	topWall	(-2.607659e-09 -9.618701e-07 0.000000e+00)	(1.486142e-08 -1.046108e-08 0.000000e+00)
33.5          	bottomWall	(-4.853824e+01 -9.641862e-01 0.000000e+00)	(-5.173377e-01 -1.345363e-08 0.000000e+00)
34            	topWall	(-2.606457e-09 -9.620418e-07 0.000000e+00)	(1.486268e-08 -1.046198e-08 0.000000e+00)
34            	bottomWall	(-4.853749e+01 -9.641758e-01 0.000000e+00)	(-5.163612e-01 -1.349615e-08 0.000000e+00)
34.5          	topWall	(-2.605353e-09 -9.621954e-07 0.000000e+00)	(1.486380e-08 -1.046277e-08 0.000000e+00)
34.5          	bottomWall	(-4.853677e+01 -9.641657e-01 0.000000e+00)	(-5.154796e-01 -1.353588e-08 0.000000e+00)
35            	topWall	(-2.604340e-09 -9.623328e-07 0.000000e+00)	(1.486480e-08 -1.046348e-08 0.000000e+00)
35            	bottomWall	(-4.853608e+01 -9.641560e-01 0.000000e+00)	(-5.146836e-01 -1.357298e-08 0.000000e+00)
35.5          	topWall	(-2.603410e-09 -9.624558e-07 0.000000e+00)	(1.486569e-08 -1.046411e-08 0.000000e+00)
35.5          	bottomWall	(-4.853541e+01 -9.641467e-01 0.000000e+00)	(-5.139650e-01 -1.360760e-08 0.000000e+00)
36            	topWall	(-2.602557e-09 -9.625657e-07 0.000000e+00)	(1.486648e-08 -1.046467e-08 0.000000e+00)
36            	bottomWall	(-4.853477e+01 -9.641377e-01 0.000000e+00)	(-5.133162e-01 -1.363986e-08 0.000000e+00)
36.5          	topWall	(-2.601776e-09 -9.626640e-07 0.000000e+00)	(1.486719e-08 -1.046517e-08 0.000000e+00)
36.5          	bottomWall	(-4.853414e+01 -9.641290e-01 0.000000e+00)	(-5.127307e-01 -1.366991e-08 0.000000e+00)
37            	topWall	(-2.601060e-09 -9.627519e-07 0.000000e+00)	(1.486781e-08 -1.046561e-08 0.000000e+00)
37            	bottomWall	(-4.853354e+01 -9.641206e-01 0.000000e+00)	(-5.122021e-01 -1.369788e-08 0.000000e+00)
37.5          	topWall	(-2.600406e-09 -9.628304e-07 0.000000e+00)	(1.486837e-08 -1.046601e-08 0.000000e+00)
37.5          	bottomWall	(-4.853296e+01 -9.641125e-01 0.000000e+00)	(-5.117251e-01 -1.372389e-08 0.000000e+00)
38            	topWall	(-2.599807e-09 -9.629007e-07 0.000000e+00)	(1.486886e-08 -1.046636e-08 0.000000e+00)
38            	bottomWall	(-4.853240e+01 -9.641047e-01 0.000000e+00)	(-5.112946e-01 -1.374807e-08 0.000000e+00)
38.5          	topWall	(-2.599259e-09 -9.629635e-07 0.000000e+00)	(1.486931e-08 -1.046667e-08 0.000000e+00)
38.5          	bottomWall	(-4.853186e+01 -9.640971e-01 0.000000e+00)	(-5.109061e-01 -1.377052e-08 0.000000e+00)
39            	topWall	(-2.598759e-09 -9.630196e-07 0.000000e+00)	(1.486970e-08 -1.046695e-08 0.000000e+00)
39            	bottomWall	(-4.853134e+01 -9.640898e-01 0.000000e+00)	(-5.105555e-01 -1.379135e-08 0.000000e+00)
39.5          	topWall	(-2.598302e-09 -9.630697e-07 0.000000e+00)	(1.487005e-08 -1.046720e-08 0.000000e+00)
39.5          	bottomWall	(-4.853084e+01 -9.640828e-01 0.000000e+00)	(-5.102392e-01 -1.381067e-08 0.000000e+00)
40            	topWall	(-2.597885e-09 -9.631146e-07 0.000000e+00)	(1.487036e-08 -1.046742e-08 0.000000e+00)
40            	bottomWall	(-4.853035e+01 -9.640760e-01 0.000000e+00)	(-5.099539e-01 -1.382857e-08 0.000000e+00)
40.5          	topWall	(-2.597504e-09 -9.631546e-07 0.000000e+00)	(1.487064e-08 -1.046762e-08 0.000000e+00)
40.5          	bottomWall	(-4.852988e+01 -9.640694e-01 0.000000e+00)	(-5.096964e-01 -1.384515e-08 0.000000e+00)
41            	topWall	(-2.597157e-09 -9.631904e-07 0.000000e+00)	(1.487089e-08 -1.046779e-08 0.000000e+00)
41            	bottomWall	(-4.852942e+01 -9.640631e-01 0.000000e+00)	(-5.094642e-01 -1.386050e-08 0.000000e+00)
41.5          	topWall	(-2.596841e-09 -9.632223e-07 0.000000e+00)	(1.487111e-08 -1.046795e-08 0.000000e+00)
41.5          	bottomWall	(-4.852898e+01 -9.640569e-01 0.000000e+00)	(-5.092547e-01 -1.387469e-08 0.000000e+00)
42            	topWall	(-2.596552e-09 -9.632509e-07 0.000000e+00)	(1.487131e-08 -1.046809e-08 0.000000e+00)
42            	bottomWall	(-4.852856e+01 -9.640510e-01 0.000000e+00)	(-5.090658e-01 -1.388782e-08 0.000000e+00)
42.5          	topWall	(-2.596290e-09 -9.632764e-07 0.000000e+00)	(1.487148e-08 -1.046821e-08 0.000000e+00)
42.5          	bottomWall	(-4.852815e+01 -9.640453e-01 0.000000e+00)	(-5.088955e-01 -1.389994e-08 0.000000e+00)
43            	topWall	(-2.596051e-09 -9.632992e-07 0.000000e+00)	(1.487164e-08 -1.046833e-08 0.000000e+00)
43            	bottomWall	(-4.852775e+01 -9.640397e-01 0.000000e+00)	(-5.087418e-01 -1.391113e-08 0.000000e+00)
43.5          	topWall	(-2.595833e-09 -9.633195e-07 0.000000e+00)	(1.487178e-08 -1.046843e-08 0.000000e+00)
43.5          	bottomWall	(-4.852737e+01 -9.640343e-01 0.000000e+00)	(-5.086033e-01 -1.392146e-08 0.000000e+00)
44            	topWall	(-2.595635e-09 -9.633377e-07 0.000000e+00)	(1.487191e-08 -1.046851e-08 0.000000e+00)
44            	bottomWall	(-4.852699e+01 -9.640292e-01 0.000000e+00)	(-5.084784e-01 -1.393098e-08 0.000000e+00)
44.5          	topWall	(-2.595455e-09 -9.633539e-07 0.000000e+00)	(1.487202e-08 -1.046859e-08 0.000000e+00)
44.5          	bottomWall	(-4.852663e+01 -9.640241e-01 0.000000e+00)	(-5.083658e-01 -1.393976e-08 0.000000e+00)
45            	topWall	(-2.595292e-09 -9.633684e-07 0.000000e+00)	(1.487212e-08 -1.046867e-08 0.000000e+00)
45            	bottomWall	(-4.852628e+01 -9.640193e-01 0.000000e+00)	(-5.082643e-01 -1.394785e-08 0.000000e+00)
45.5          	topWall	(-2.595143e-09 -9.633813e-07 0.000000e+00)	(1.487221e-08 -1.046873e-08 0.000000e+00)
45.5          	bottomWall	(-4.852595e+01 -9.640146e-01 0.000000e+00)	(-5.081728e-01 -1.395530e-08 0.000000e+00)
46            	topWall	(-2.595008e-09 -9.633929e-07 0.000000e+00)	(1.487229e-08 -1.046879e-08 0.000000e+00)
46            	bottomWall	(-4.852562e+01 -9.640100e-01 0.000000e+00)	(-5.080903e-01 -1.396215e-08 0.000000e+00)
46.5          	topWall	(-2.594885e-09 -9.634032e-07 0.000000e+00)	(1.487236e-08 -1.046884e-08 0.000000e+00)
46.5          	bottomWall	(-4.852530e+01 -9.640056e-01 0.000000e+00)	(-5.080160e-01 -1.396846e-08 0.000000e+00)
47            	topWall	(-2.594774e-09 -9.634124e-07 0.000000e+00)	(1.487243e-08 -1.046888e-08 0.000000e+00)
47            	bottomWall	(-4.852500e+01 -9.640013e-01 0.000000e+00)	(-5.079490e-01 -1.397426e-08 0.000000e+00)
47.5          	topWall	(-2.594673e-09 -9.634206e-07 0.000000e+00)	(1.487248e-08 -1.046892e-08 0.000000e+00)
47.5          	bottomWall	(-4.852470e+01 -9.639972e-01 0.000000e+00)	(-5.078886e-01 -1.397958e-08 0.000000e+00)
48            	topWall	(-2.594581e-09 -9.634279e-07 0.000000e+00)	(1.487254e-08 -1.046896e-08 0.000000e+00)
48            	bottomWall	(-4.852441e+01 -9.639932e-01 0.000000e+00)	(-5.078342e-01 -1.398448e-08 0.000000e+00)
48.5          	topWall	(-2.594498e-09 -9.634344e-07 0.000000e+00)	(1.487258e-08 -1.046899e-08 0.000000e+00)
48.5          	bottomWall	(-4.852414e+01 -9.639893e-01 0.000000e+00)	(-5.077852e-01 -1.398897e-08 0.000000e+00)
49            	topWall	(-2.594423e-09 -9.634403e-07 0.000000e+00)	(1.487263e-08 -1.046902e-08 0.000000e+00)
49            	bottomWall	(-4.852387e+01 -9.639856e-01 0.000000e+00)	(-5.077410e-01 -1.399310e-08 0.000000e+00)
49.5          	topWall	(-2.594355e-09 -9.634455e-07 0.000000e+00)	(1.487266e-08 -1.046905e-08 0.000000e+00)
49.5          	bottomWall	(-4.852361e+01 -9.639819e-01 0.000000e+00)	(-5.077013e-01 -1.399688e-08 0.000000e+00)
50            	topWall	(-2.594293e-09 -9.634501e-07 0.000000e+00)	(1.487270e-08 -1.046908e-08 0.000000e+00)
50            	bottomWall	(-4.852335e+01 -9.639784e-01 0.000000e+00)	(-5.076654e-01 -1.400035e-08 0.000000e+00)
50.5          	topWall	(-2.594237e-09 -9.634543e-07 0.000000e+00)	(1.487273e-08 -1.046910e-08 0.000000e+00)
50.5          	bottomWall	(-4.852311e+01 -9.639750e-01 0.000000e+00)	(-5.076332e-01 -1.400353e-08 0.000000e+00)
51            	topWall	(-2.594186e-09 -9.634580e-07 0.000000e+00)	(1.487276e-08 -1.046912e-08 0.000000e+00)
51            	bottomWall	(-4.852287e+01 -9.639717e-01 0.000000e+00)	(-5.076041e-01 -1.400645e-08 0.000000e+00)
51.5          	topWall	(-2.594141e-09 -9.634613e-07 0.000000e+00)	(1.487278e-08 -1.046914e-08 0.000000e+00)
51.5          	bottomWall	(-4.852264e+01 -9.639685e-01 0.000000e+00)	(-5.075779e-01 -1.400912e-08 0.000000e+00)
52            	topWall	(-2.594099e-09 -9.634642e-07 0.000000e+00)	(1.487280e-08 -1.046915e-08 0.000000e+00)
52            	bottomWall	(-4.852242e+01 -9.639654e-01 0.000000e+00)	(-5.075543e-01 -1.401156e-08 0.000000e+00)
52.5          	topWall	(-2.594062e-09 -9.634668e-07 0.000000e+00)	(1.487283e-08 -1.046917e-08 0.000000e+00)
52.5          	bottomWall	(-4.852220e+01 -9.639624e-01 0.000000e+00)	(-5.075331e-01 -1.401380e-08 0.000000e+00)
53            	topWall	(-2.594028e-09 -9.634692e-07 0.000000e+00)	(1.487284e-08 -1.046918e-08 0.000000e+00)
53            	bottomWall	(-4.852199e+01 -9.639594e-01 0.000000e+00)	(-5.075140e-01 -1.401584e-08 0.000000e+00)
53.5          	topWall	(-2.593997e-09 -9.634713e-07 0.000000e+00)	(1.487286e-08 -1.046919e-08 0.000000e+00)
53.5          	bottomWall	(-4.852179e+01 -9.639566e-01 0.000000e+00)	(-5.074967e-01 -1.401772e-08 0.000000e+00)
54            	topWall	(-2.593969e-09 -9.634731e-07 0.000000e+00)	(1.487288e-08 -1.046920e-08 0.000000e+00)
54            	bottomWall	(-4.852159e+01 -9.639539e-01 0.000000e+00)	(-5.074812e-01 -1.401943e-08 0.000000e+00)
54.5          	topWall	(-2.593944e-09 -9.634748e-07 0.000000e+00)	(1.487289e-08 -1.046921e-08 0.000000e+00)
54.5          	bottomWall	(-4.852140e+01 -9.639512e-01 0.000000e+00)	(-5.074673e-01 -1.402099e-08 0.000000e+00)
55            	topWall	(-2.593922e-09 -9.634763e-07 0.000000e+00)	(1.487291e-08 -1.046922e-08 0.000000e+00)
55            	bottomWall	(-4.852122e+01 -9.639486e-01 0.000000e+00)	(-5.074547e-01 -1.402242e-08 0.000000e+00)
55.5          	topWall	(-2.593902e-09 -9.634776e-07 0.000000e+00)	(1.487292e-08 -1.046923e-08 0.000000e+00)
55.5          	bottomWall	(-4.852104e+01 -9.639461e-01 0.000000e+00)	(-5.074434e-01 -1.402372e-08 0.000000e+00)
56            	topWall	(-2.593884e-09 -9.634788e-07 0.000000e+00)	(1.487293e-08 -1.046924e-08 0.000000e+00)
56            	bottomWall	(-4.852087e+01 -9.639438e-01 0.000000e+00)	(-5.074335e-01 -1.402487e-08 0.000000e+00)
56.5          	topWall	(-2.593868e-09 -9.634798e-07 0.000000e+00)	(1.487294e-08 -1.046925e-08 0.000000e+00)
56.5          	bottomWall	(-4.852071e+01 -9.639415e-01 0.000000e+00)	(-5.074247e-01 -1.402592e-08 0.000000e+00)
57            	topWall	(-2.593853e-09 -9.634807e-07 0.000000e+00)	(1.487295e-08 -1.046925e-08 0.000000e+00)
57            	bottomWall	(-4.852055e+01 -9.639392e-01 0.000000e+00)	(-5.074167e-01 -1.402687e-08 0.000000e+00)
57.5          	topWall	(-2.593840e-09 -9.634815e-07 0.000000e+00)	(1.487296e-08 -1.046926e-08 0.000000e+00)
57.5          	bottomWall	(-4.852039e+01 -9.639371e-01 0.000000e+00)	(-5.074095e-01 -1.402775e-08 0.000000e+00)
58            	topWall	(-2.593828e-09 -9.634822e-07 0.000000e+00)	(1.487296e-08 -1.046926e-08 0.000000e+00)
58            	bottomWall	(-4.852024e+01 -9.639350e-01 0.000000e+00)	(-5.074030e-01 -1.402855e-08 0.000000e+00)
58.5          	topWall	(-2.593818e-09 -9.634829e-07 0.000000e+00)	(1.487297e-08 -1.046927e-08 0.000000e+00)
58.5          	bottomWall	(-4.852010e+01 -9.639330e-01 0.000000e+00)	(-5.073971e-01 -1.402928e-08 0.000000e+00)
59            	topWall	(-2.593809e-09 -9.634834e-07 0.000000e+00)	(1.487298e-08 -1.046927e-08 0.000000e+00)
59            	bottomWall	(-4.851997e+01 -9.639311e-01 0.000000e+00)	(-5.073921e-01 -1.402990e-08 0.000000e+00)
59.5          	topWall	(-2.593800e-09 -9.634839e-07 0.000000e+00)	(1.487298e-08 -1.046928e-08 0.000000e+00)
59.5          	bottomWall	(-4.851984e+01 -9.639293e-01 0.000000e+00)	(-5.073875e-01 -1.403048e-08 0.000000e+00)
60            	topWall	(-2.593793e-09 -9.634843e-07 0.000000e+00)	(1.487299e-08 -1.046928e-08 0.000000e+00)
60            	bottomWall	(-4.851971e+01 -9.639275e-01 0.000000e+00)	(-5.073834e-01 -1.403101e-08 0.000000e+00)
