/*--------------------------------*- C++ -*----------------------------------*\
| =========                 |                                                 |
| \\      /  F ield         | OpenFOAM: The Open Source CFD Toolbox           |
|  \\    /   O peration     | Version:  v2012                                 |
|   \\  /    A nd           | Website:  www.openfoam.com                      |
|    \\/     M anipulation  |                                                 |
\*---------------------------------------------------------------------------*/
FoamFile
{
    version     2.0;
    format      ascii;
    class       volScalarField;
    location    "45.5";
    object      k;
}
// * * * * * * * * * * * * * * * * * * * * * * * * * * * * * * * * * * * * * //

dimensions      [0 2 -2 0 0 0 0];


internalField   nonuniform List<scalar> 
209825
(
0.00102429
0.000933074
0.000855726
0.000789505
0.000733246
0.000686051
0.000646502
0.000613414
0.000585447
0.000561754
0.000541389
0.00052388
0.000508566
0.000495235
0.000483391
0.000472976
0.000463594
0.000455283
0.000447703
0.000440955
0.000434727
0.000429167
0.000423979
0.000419338
0.000414964
0.000411048
0.00040732
0.000403991
0.000400783
0.000397929
0.00039515
0.000392688
0.000390261
0.000388126
0.000385995
0.000384135
0.000382257
0.000380632
0.000378967
0.000377541
0.000376058
0.000374803
0.000373476
0.000372369
0.000371181
0.000370202
0.000369134
0.000368266
0.000367304
0.000366534
0.000365666
0.000364983
0.000364198
0.000363592
0.000362884
0.000362346
0.000361703
0.000361228
0.000360645
0.000360227
0.000359695
0.000359327
0.000358845
0.000358516
0.000358083
0.000357791
0.000357402
0.000357138
0.000356789
0.000356552
0.00035624
0.000356029
0.000355753
0.000355568
0.000355309
0.000355132
0.000354884
0.000354719
0.000354487
0.000354337
0.000354124
0.000353991
0.000353798
0.000353682
0.00035351
0.000353413
0.000353267
0.000353186
0.000353078
0.00035302
0.000352875
0.000352868
0.000352827
0.000356416
0.0105336
0.0118637
0.00102429
0.000933074
0.000855726
0.000789505
0.000733247
0.000686051
0.000646502
0.000613413
0.000585445
0.000561752
0.000541385
0.000523876
0.000508561
0.000495229
0.000483385
0.000472969
0.000463587
0.000455275
0.000447694
0.000440946
0.000434719
0.000429157
0.00042397
0.000419329
0.000414954
0.000411038
0.00040731
0.00040398
0.000400772
0.000397918
0.000395139
0.000392677
0.00039025
0.000388115
0.000385984
0.000384124
0.000382245
0.00038062
0.000378955
0.000377529
0.000376045
0.000374791
0.000373464
0.000372356
0.000371168
0.000370189
0.000369121
0.000368253
0.00036729
0.000366521
0.000365652
0.000364969
0.000364184
0.000363579
0.00036287
0.000362332
0.000361689
0.000361215
0.000360631
0.000360213
0.000359681
0.000359313
0.000358831
0.000358502
0.000358069
0.000357777
0.000357388
0.000357124
0.000356775
0.000356538
0.000356226
0.000356015
0.000355739
0.000355554
0.000355295
0.000355118
0.00035487
0.000354705
0.000354472
0.000354323
0.000354109
0.000353977
0.000353784
0.000353668
0.000353496
0.000353398
0.000353252
0.000353171
0.000353063
0.000353005
0.00035286
0.000352853
0.000352813
0.000356406
0.0105439
0.0118755
0.00102429
0.000933075
0.000855728
0.000789508
0.000733248
0.000686051
0.000646498
0.000613405
0.000585433
0.000561737
0.000541367
0.000523855
0.000508537
0.000495203
0.000483356
0.000472939
0.000463554
0.000455241
0.000447658
0.000440909
0.00043468
0.000429117
0.000423929
0.000419286
0.000414911
0.000410994
0.000407265
0.000403935
0.000400725
0.00039787
0.000395091
0.000392628
0.000390201
0.000388065
0.000385933
0.000384073
0.000382194
0.000380568
0.000378903
0.000377477
0.000375993
0.000374738
0.00037341
0.000372303
0.000371114
0.000370135
0.000369067
0.000368199
0.000367235
0.000366466
0.000365597
0.000364913
0.000364128
0.000363522
0.000362814
0.000362276
0.000361632
0.000361158
0.000360574
0.000360156
0.000359623
0.000359256
0.000358773
0.000358444
0.000358011
0.000357718
0.000357329
0.000357065
0.000356716
0.000356479
0.000356167
0.000355956
0.00035568
0.000355495
0.000355236
0.000355059
0.00035481
0.000354645
0.000354413
0.000354263
0.000354049
0.000353917
0.000353723
0.000353607
0.000353435
0.000353338
0.000353191
0.000353111
0.000353002
0.000352944
0.000352799
0.000352792
0.000352751
0.000356355
0.0105658
0.0118992
0.00102429
0.000933075
0.000855731
0.000789512
0.000733251
0.000686049
0.000646491
0.000613392
0.000585414
0.000561712
0.000541336
0.000523819
0.000508497
0.000495158
0.000483307
0.000472887
0.000463499
0.000455183
0.000447598
0.000440846
0.000434614
0.00042905
0.000423859
0.000419215
0.000414838
0.000410919
0.000407189
0.000403857
0.000400647
0.000397791
0.00039501
0.000392547
0.000390118
0.000387981
0.000385849
0.000383988
0.000382108
0.000380482
0.000378815
0.000377389
0.000375904
0.000374648
0.000373321
0.000372212
0.000371023
0.000370043
0.000368975
0.000368106
0.000367143
0.000366373
0.000365503
0.00036482
0.000364034
0.000363428
0.000362719
0.00036218
0.000361537
0.000361062
0.000360478
0.000360059
0.000359527
0.000359159
0.000358676
0.000358347
0.000357913
0.00035762
0.000357231
0.000356967
0.000356618
0.00035638
0.000356068
0.000355857
0.000355581
0.000355395
0.000355136
0.000354959
0.00035471
0.000354545
0.000354312
0.000354162
0.000353949
0.000353816
0.000353622
0.000353506
0.000353333
0.000353236
0.000353089
0.000353008
0.0003529
0.000352842
0.000352696
0.000352688
0.000352647
0.000356266
0.0106003
0.0119359
0.00102429
0.000933076
0.000855735
0.000789518
0.000733255
0.000686047
0.000646481
0.000613374
0.000585387
0.000561676
0.000541293
0.000523768
0.00050844
0.000495095
0.000483239
0.000472813
0.000463421
0.000455101
0.000447512
0.000440756
0.000434522
0.000428954
0.000423761
0.000419114
0.000414735
0.000410814
0.000407082
0.000403748
0.000400536
0.000397678
0.000394896
0.000392431
0.000390001
0.000387863
0.00038573
0.000383867
0.000381987
0.000380359
0.000378692
0.000377264
0.000375779
0.000374522
0.000373194
0.000372085
0.000370895
0.000369914
0.000368845
0.000367976
0.000367012
0.000366241
0.000365371
0.000364687
0.000363901
0.000363294
0.000362585
0.000362046
0.000361402
0.000360926
0.000360342
0.000359923
0.00035939
0.000359022
0.000358539
0.000358209
0.000357775
0.000357482
0.000357092
0.000356828
0.000356478
0.000356241
0.000355928
0.000355717
0.00035544
0.000355255
0.000354995
0.000354818
0.000354569
0.000354403
0.00035417
0.00035402
0.000353806
0.000353673
0.000353479
0.000353363
0.00035319
0.000353092
0.000352945
0.000352864
0.000352755
0.000352697
0.000352551
0.000352543
0.000352501
0.000356141
0.0106481
0.0119864
0.00102429
0.000933076
0.000855741
0.000789526
0.000733259
0.000686044
0.000646468
0.00061335
0.000585352
0.00056163
0.000541237
0.000523703
0.000508366
0.000495013
0.00048315
0.000472718
0.00046332
0.000454994
0.0004474
0.00044064
0.000434402
0.000428831
0.000423634
0.000418984
0.000414601
0.000410678
0.000406943
0.000403607
0.000400393
0.000397533
0.000394748
0.000392282
0.00038985
0.00038771
0.000385575
0.000383711
0.000381829
0.000380201
0.000378532
0.000377103
0.000375616
0.000374359
0.000373029
0.00037192
0.000370729
0.000369747
0.000368677
0.000367807
0.000366842
0.000366071
0.0003652
0.000364515
0.000363728
0.000363121
0.000362411
0.000361872
0.000361227
0.000360751
0.000360166
0.000359747
0.000359213
0.000358844
0.000358361
0.000358031
0.000357596
0.000357303
0.000356913
0.000356648
0.000356298
0.00035606
0.000355747
0.000355535
0.000355258
0.000355073
0.000354813
0.000354635
0.000354386
0.00035422
0.000353986
0.000353836
0.000353622
0.000353488
0.000353294
0.000353177
0.000353004
0.000352906
0.000352758
0.000352677
0.000352567
0.000352509
0.000352362
0.000352354
0.000352311
0.000355978
0.0107101
0.0120518
0.00102428
0.000933077
0.000855748
0.000789536
0.000733265
0.000686041
0.000646453
0.00061332
0.000585309
0.000561574
0.000541168
0.000523623
0.000508275
0.000494913
0.000483041
0.000472601
0.000463195
0.000454863
0.000447264
0.000440498
0.000434254
0.000428678
0.000423477
0.000418823
0.000414437
0.00041051
0.000406772
0.000403433
0.000400216
0.000397353
0.000394566
0.000392098
0.000389664
0.000387522
0.000385385
0.000383519
0.000381636
0.000380005
0.000378335
0.000376905
0.000375416
0.000374158
0.000372827
0.000371716
0.000370524
0.000369541
0.00036847
0.000367599
0.000366633
0.000365861
0.000364989
0.000364304
0.000363516
0.000362908
0.000362197
0.000361657
0.000361011
0.000360535
0.000359949
0.000359529
0.000358995
0.000358626
0.000358142
0.000357811
0.000357376
0.000357082
0.000356691
0.000356426
0.000356075
0.000355837
0.000355524
0.000355312
0.000355034
0.000354848
0.000354588
0.00035441
0.00035416
0.000353994
0.00035376
0.000353609
0.000353394
0.000353261
0.000353066
0.000352949
0.000352775
0.000352676
0.000352528
0.000352446
0.000352336
0.000352277
0.00035213
0.000352121
0.000352077
0.000355778
0.010787
0.0121328
0.00102428
0.000933078
0.000855757
0.000789548
0.000733273
0.000686037
0.000646434
0.000613285
0.000585257
0.000561506
0.000541086
0.000523527
0.000508167
0.000494793
0.000482911
0.000472462
0.000463048
0.000454708
0.000447101
0.000440328
0.000434079
0.000428497
0.000423291
0.000418632
0.000414241
0.000410311
0.000406568
0.000403226
0.000400005
0.00039714
0.00039435
0.000391878
0.000389442
0.000387298
0.000385158
0.000383291
0.000381405
0.000379772
0.0003781
0.000376668
0.000375178
0.000373918
0.000372586
0.000371473
0.00037028
0.000369296
0.000368223
0.000367352
0.000366384
0.000365611
0.000364738
0.000364052
0.000363263
0.000362654
0.000361942
0.000361401
0.000360755
0.000360277
0.000359691
0.00035927
0.000358735
0.000358365
0.00035788
0.000357549
0.000357113
0.000356819
0.000356428
0.000356162
0.000355811
0.000355572
0.000355258
0.000355045
0.000354767
0.000354581
0.00035432
0.000354141
0.000353891
0.000353725
0.00035349
0.000353339
0.000353123
0.000352989
0.000352794
0.000352676
0.000352502
0.000352403
0.000352254
0.000352171
0.00035206
0.000352001
0.000351854
0.000351844
0.000351798
0.000355541
0.0108796
0.0122303
0.00102428
0.000933079
0.000855767
0.000789561
0.000733281
0.000686033
0.000646413
0.000613245
0.000585198
0.000561429
0.000540991
0.000523416
0.000508042
0.000494655
0.000482761
0.0004723
0.000462876
0.000454527
0.000446912
0.000440132
0.000433875
0.000428287
0.000423074
0.00041841
0.000414014
0.000410078
0.000406332
0.000402985
0.000399761
0.000396892
0.000394098
0.000391624
0.000389184
0.000387037
0.000384895
0.000383025
0.000381136
0.000379502
0.000377827
0.000376394
0.000374902
0.00037364
0.000372305
0.000371191
0.000369996
0.000369011
0.000367937
0.000367063
0.000366095
0.00036532
0.000364446
0.000363759
0.000362969
0.000362359
0.000361645
0.000361104
0.000360456
0.000359978
0.000359391
0.000358969
0.000358433
0.000358062
0.000357577
0.000357245
0.000356808
0.000356513
0.000356121
0.000355854
0.000355502
0.000355263
0.000354948
0.000354735
0.000354457
0.00035427
0.000354008
0.000353829
0.000353579
0.000353412
0.000353176
0.000353025
0.000352808
0.000352674
0.000352477
0.000352359
0.000352184
0.000352084
0.000351935
0.000351852
0.00035174
0.00035168
0.000351532
0.000351522
0.000351474
0.000355265
0.0109886
0.0123452
0.00102428
0.00093308
0.000855778
0.000789577
0.000733291
0.000686029
0.00064639
0.0006132
0.000585131
0.000561341
0.000540884
0.000523291
0.000507899
0.000494497
0.000482589
0.000472116
0.000462681
0.000454321
0.000446696
0.000439907
0.000433642
0.000428047
0.000422828
0.000418157
0.000413755
0.000409814
0.000406062
0.000402711
0.000399482
0.000396608
0.000393811
0.000391333
0.00038889
0.00038674
0.000384594
0.000382721
0.00038083
0.000379193
0.000377516
0.00037608
0.000374585
0.000373321
0.000371985
0.000370869
0.000369672
0.000368685
0.000367609
0.000366735
0.000365764
0.000364988
0.000364113
0.000363424
0.000362632
0.000362021
0.000361307
0.000360764
0.000360115
0.000359636
0.000359047
0.000358625
0.000358088
0.000357716
0.00035723
0.000356897
0.000356459
0.000356163
0.00035577
0.000355503
0.00035515
0.000354911
0.000354595
0.000354381
0.000354102
0.000353914
0.000353652
0.000353473
0.000353221
0.000353054
0.000352818
0.000352666
0.000352448
0.000352313
0.000352116
0.000351997
0.000351821
0.000351721
0.00035157
0.000351486
0.000351373
0.000351313
0.000351165
0.000351153
0.000351104
0.000354951
0.0111145
0.0124783
0.00102427
0.000933081
0.00085579
0.000789595
0.000733303
0.000686025
0.000646364
0.00061315
0.000585056
0.000561242
0.000540763
0.000523149
0.000507739
0.00049432
0.000482397
0.000471909
0.000462461
0.000454089
0.000446454
0.000439655
0.000433381
0.000427777
0.00042255
0.000417872
0.000413463
0.000409516
0.000405758
0.000402402
0.000399168
0.000396289
0.000393488
0.000391005
0.000388558
0.000386405
0.000384256
0.000382379
0.000380485
0.000378845
0.000377165
0.000375726
0.000374229
0.000372963
0.000371624
0.000370507
0.000369307
0.000368318
0.00036724
0.000366364
0.000365392
0.000364614
0.000363737
0.000363047
0.000362254
0.000361641
0.000360925
0.000360381
0.000359731
0.000359251
0.000358661
0.000358237
0.000357699
0.000357326
0.000356839
0.000356505
0.000356066
0.00035577
0.000355375
0.000355108
0.000354754
0.000354513
0.000354197
0.000353982
0.000353702
0.000353514
0.000353251
0.000353071
0.000352819
0.000352651
0.000352414
0.000352261
0.000352043
0.000351907
0.000351709
0.000351589
0.000351412
0.000351311
0.00035116
0.000351075
0.000350961
0.0003509
0.000350751
0.000350738
0.000350687
0.000354598
0.0112577
0.0126302
0.00102427
0.000933083
0.000855804
0.000789614
0.000733316
0.00068602
0.000646335
0.000613094
0.000584974
0.000561133
0.00054063
0.000522993
0.000507562
0.000494124
0.000482183
0.00047168
0.000462217
0.000453832
0.000446184
0.000439374
0.00043309
0.000427476
0.000422241
0.000417555
0.000413139
0.000409184
0.00040542
0.000402058
0.000398818
0.000395935
0.000393128
0.000390641
0.000388189
0.000386032
0.000383879
0.000381999
0.000380101
0.000378458
0.000376775
0.000375333
0.000373833
0.000372564
0.000371223
0.000370103
0.000368901
0.00036791
0.00036683
0.000365951
0.000364977
0.000364198
0.000363319
0.000362627
0.000361832
0.000361218
0.0003605
0.000359955
0.000359303
0.000358822
0.00035823
0.000357806
0.000357266
0.000356892
0.000356403
0.000356069
0.000355628
0.000355331
0.000354936
0.000354667
0.000354312
0.000354071
0.000353753
0.000353538
0.000353257
0.000353068
0.000352804
0.000352623
0.00035237
0.000352201
0.000351964
0.00035181
0.000351591
0.000351454
0.000351255
0.000351135
0.000350957
0.000350855
0.000350702
0.000350617
0.000350501
0.000350439
0.000350289
0.000350276
0.000350222
0.000354206
0.0114184
0.0128018
0.00102427
0.000933084
0.000855819
0.000789636
0.000733331
0.000686016
0.000646305
0.000613034
0.000584884
0.000561014
0.000540483
0.000522822
0.000507368
0.000493908
0.000481948
0.000471427
0.000461948
0.000453549
0.000445888
0.000439065
0.00043277
0.000427146
0.0004219
0.000417206
0.000412781
0.000408819
0.000405048
0.000401679
0.000398433
0.000395543
0.000392731
0.000390239
0.000387783
0.00038562
0.000383463
0.000381579
0.000379677
0.000378031
0.000376344
0.000374899
0.000373396
0.000372124
0.00037078
0.000369657
0.000368453
0.000367459
0.000366377
0.000365496
0.00036452
0.000363739
0.000362857
0.000362164
0.000361367
0.000360751
0.000360031
0.000359485
0.000358831
0.000358348
0.000357755
0.000357329
0.000356788
0.000356413
0.000355923
0.000355587
0.000355145
0.000354847
0.00035445
0.00035418
0.000353824
0.000353582
0.000353263
0.000353048
0.000352765
0.000352576
0.000352311
0.000352129
0.000351875
0.000351706
0.000351467
0.000351313
0.000351092
0.000350955
0.000350754
0.000350633
0.000350454
0.000350351
0.000350197
0.000350111
0.000349993
0.000349931
0.00034978
0.000349766
0.00034971
0.000353775
0.0115967
0.0129938
0.00102426
0.000933086
0.000855836
0.00078966
0.000733348
0.000686012
0.000646272
0.000612969
0.000584786
0.000560885
0.000540324
0.000522635
0.000507156
0.000493673
0.000481692
0.000471152
0.000461655
0.00045324
0.000445564
0.000438728
0.00043242
0.000426784
0.000421528
0.000416824
0.00041239
0.00040842
0.000404641
0.000401264
0.000398011
0.000395115
0.000392297
0.000389799
0.000387338
0.00038517
0.000383008
0.00038112
0.000379214
0.000377563
0.000375873
0.000374424
0.000372918
0.000371643
0.000370295
0.000369169
0.000367962
0.000366966
0.00036588
0.000364998
0.000364019
0.000363236
0.000362352
0.000361656
0.000360857
0.00036024
0.000359518
0.00035897
0.000358314
0.00035783
0.000357235
0.000356808
0.000356265
0.000355888
0.000355396
0.000355059
0.000354616
0.000354317
0.000353919
0.000353648
0.000353291
0.000353047
0.000352727
0.00035251
0.000352227
0.000352037
0.00035177
0.000351588
0.000351333
0.000351163
0.000350923
0.000350768
0.000350546
0.000350408
0.000350206
0.000350084
0.000349903
0.000349799
0.000349644
0.000349557
0.000349438
0.000349375
0.000349222
0.000349207
0.000349148
0.000353303
0.0117924
0.0132066
0.00102426
0.000933087
0.000855854
0.000789687
0.000733366
0.000686008
0.000646238
0.0006129
0.000584681
0.000560745
0.000540152
0.000522433
0.000506926
0.000493418
0.000481415
0.000470853
0.000461338
0.000452904
0.000445212
0.000438361
0.00043204
0.000426392
0.000421125
0.000416409
0.000411965
0.000407986
0.000404198
0.000400813
0.000397553
0.00039465
0.000391826
0.000389321
0.000386854
0.000384681
0.000382514
0.000380621
0.00037871
0.000377055
0.00037536
0.000373908
0.000372397
0.000371119
0.000369768
0.000368639
0.000367428
0.00036643
0.000365341
0.000364456
0.000363474
0.000362688
0.000361802
0.000361104
0.000360303
0.000359684
0.000358959
0.00035841
0.000357752
0.000357266
0.000356669
0.00035624
0.000355695
0.000355317
0.000354824
0.000354486
0.000354041
0.00035374
0.00035334
0.000353068
0.00035271
0.000352465
0.000352144
0.000351926
0.000351641
0.00035145
0.000351183
0.000351
0.000350743
0.000350572
0.000350331
0.000350175
0.000349952
0.000349812
0.000349609
0.000349486
0.000349304
0.000349199
0.000349042
0.000348954
0.000348833
0.000348769
0.000348615
0.000348599
0.000348538
0.000352791
0.012005
0.013441
0.00102425
0.000933089
0.000855873
0.000789715
0.000733387
0.000686005
0.000646201
0.000612826
0.000584569
0.000560596
0.000539968
0.000522216
0.00050668
0.000493144
0.000481116
0.000470531
0.000460995
0.000452543
0.000444833
0.000437966
0.00043163
0.000425968
0.000420688
0.000415961
0.000411507
0.000407517
0.00040372
0.000400327
0.000397058
0.000394148
0.000391316
0.000388805
0.000386331
0.000384153
0.00038198
0.000380081
0.000378165
0.000376505
0.000374806
0.00037335
0.000371835
0.000370553
0.000369198
0.000368065
0.000366851
0.000365849
0.000364758
0.00036387
0.000362885
0.000362097
0.000361207
0.000360508
0.000359703
0.000359082
0.000358355
0.000357804
0.000357143
0.000356656
0.000356057
0.000355626
0.000355079
0.0003547
0.000354204
0.000353865
0.000353418
0.000353116
0.000352715
0.000352441
0.000352081
0.000351836
0.000351512
0.000351294
0.000351007
0.000350815
0.000350547
0.000350363
0.000350105
0.000349933
0.00034969
0.000349533
0.000349308
0.000349168
0.000348963
0.00034884
0.000348656
0.00034855
0.000348391
0.000348302
0.000348178
0.000348114
0.000347959
0.000347942
0.000347877
0.000352238
0.0122337
0.0136973
0.00102425
0.00093309
0.000855894
0.000789746
0.000733409
0.000686002
0.000646163
0.000612748
0.00058445
0.000560436
0.000539771
0.000521984
0.000506416
0.000492851
0.000480795
0.000470186
0.000460628
0.000452155
0.000444427
0.000437542
0.00043119
0.000425513
0.00042022
0.00041548
0.000411014
0.000407014
0.000403207
0.000399804
0.000396526
0.000393608
0.000390768
0.00038825
0.000385769
0.000383584
0.000381405
0.000379501
0.000377579
0.000375914
0.00037421
0.000372749
0.00037123
0.000369943
0.000368584
0.000367448
0.00036623
0.000365225
0.00036413
0.000363239
0.000362251
0.00036146
0.000360568
0.000359865
0.000359058
0.000358435
0.000357705
0.000357152
0.000356489
0.000355999
0.000355398
0.000354965
0.000354416
0.000354035
0.000353538
0.000353196
0.000352748
0.000352444
0.000352041
0.000351767
0.000351404
0.000351158
0.000350833
0.000350613
0.000350325
0.000350132
0.000349862
0.000349677
0.000349418
0.000349245
0.000349
0.000348842
0.000348616
0.000348475
0.000348268
0.000348143
0.000347958
0.00034785
0.00034769
0.000347599
0.000347474
0.000347409
0.000347252
0.000347234
0.000347166
0.000351644
0.0124772
0.013976
0.00102424
0.000933091
0.000855916
0.000789779
0.000733434
0.000686001
0.000646124
0.000612665
0.000584324
0.000560268
0.000539562
0.000521737
0.000506135
0.000492538
0.000480454
0.000469818
0.000460236
0.00045174
0.000443992
0.000437089
0.00043072
0.000425027
0.000419719
0.000414966
0.000410487
0.000406475
0.000402657
0.000399244
0.000395957
0.00039303
0.000390181
0.000387656
0.000385168
0.000382976
0.00038079
0.00037888
0.000376952
0.000375281
0.000373571
0.000372106
0.000370581
0.000369291
0.000367927
0.000366787
0.000365565
0.000364557
0.000363457
0.000362563
0.000361571
0.000360778
0.000359882
0.000359177
0.000358367
0.000357741
0.000357009
0.000356453
0.000355787
0.000355296
0.000354691
0.000354257
0.000353706
0.000353323
0.000352823
0.00035248
0.00035203
0.000351724
0.000351319
0.000351043
0.000350679
0.000350431
0.000350105
0.000349884
0.000349594
0.0003494
0.000349128
0.000348943
0.000348682
0.000348507
0.000348261
0.000348102
0.000347874
0.000347731
0.000347523
0.000347397
0.000347209
0.000347101
0.000346939
0.000346847
0.000346719
0.000346652
0.000346494
0.000346475
0.000346404
0.000351007
0.012734
0.0142772
0.00102424
0.000933093
0.000855939
0.000789815
0.000733461
0.000686
0.000646084
0.000612579
0.000584191
0.000560089
0.000539341
0.000521476
0.000505837
0.000492206
0.000480091
0.000469427
0.000459819
0.0004513
0.00044353
0.000436607
0.000430219
0.00042451
0.000419186
0.000414418
0.000409926
0.000405901
0.000402072
0.000398648
0.00039535
0.000392414
0.000389556
0.000387022
0.000384526
0.000382327
0.000380134
0.000378217
0.000376282
0.000374606
0.000372891
0.00037142
0.00036989
0.000368595
0.000367226
0.000366082
0.000364856
0.000363843
0.00036274
0.000361842
0.000360846
0.00036005
0.000359151
0.000358443
0.000357629
0.000357001
0.000356265
0.000355707
0.000355038
0.000354545
0.000353938
0.000353502
0.000352947
0.000352563
0.000352061
0.000351716
0.000351263
0.000350956
0.000350549
0.000350271
0.000349905
0.000349656
0.000349327
0.000349105
0.000348813
0.000348618
0.000348345
0.000348158
0.000347895
0.00034772
0.000347472
0.000347312
0.000347082
0.000346938
0.000346728
0.0003466
0.00034641
0.000346301
0.000346136
0.000346043
0.000345913
0.000345845
0.000345684
0.000345665
0.000345591
0.000350327
0.013002
0.014601
0.00102423
0.000933094
0.000855964
0.000789853
0.000733491
0.000686
0.000646043
0.00061249
0.000584052
0.000559902
0.000539108
0.0005212
0.000505522
0.000491855
0.000479707
0.000469013
0.000459377
0.000450833
0.00044304
0.000436095
0.000429688
0.00042396
0.00041862
0.000413837
0.00040933
0.000405292
0.00040145
0.000398014
0.000394706
0.000391759
0.000388892
0.000386349
0.000383844
0.000381637
0.000379436
0.000377512
0.000375571
0.000373889
0.000372167
0.00037069
0.000369155
0.000367855
0.000366481
0.000365332
0.000364101
0.000363084
0.000361977
0.000361075
0.000360076
0.000359276
0.000358373
0.000357662
0.000356845
0.000356213
0.000355474
0.000354914
0.000354242
0.000353746
0.000353136
0.000352698
0.000352141
0.000351754
0.000351249
0.000350902
0.000350447
0.000350138
0.000349729
0.00034945
0.000349082
0.000348831
0.0003485
0.000348276
0.000347983
0.000347786
0.000347511
0.000347323
0.000347059
0.000346882
0.000346632
0.000346471
0.000346239
0.000346093
0.000345881
0.000345752
0.00034556
0.000345449
0.000345283
0.000345188
0.000345055
0.000344986
0.000344823
0.000344803
0.000344725
0.000349603
0.0132786
0.014947
0.00102423
0.000933095
0.00085599
0.000789893
0.000733523
0.000686002
0.000646001
0.000612397
0.000583907
0.000559706
0.000538863
0.00052091
0.00050519
0.000491485
0.000479303
0.000468576
0.000458911
0.00045034
0.000442522
0.000435555
0.000429127
0.00042338
0.000418022
0.000413221
0.0004087
0.000404647
0.000400792
0.000397344
0.000394024
0.000391066
0.000388188
0.000385636
0.000383122
0.000380906
0.000378698
0.000376766
0.000374818
0.000373129
0.0003714
0.000369917
0.000368376
0.00036707
0.000365691
0.000364538
0.000363301
0.00036228
0.000361168
0.000360262
0.000359258
0.000358455
0.000357548
0.000356834
0.000356013
0.000355378
0.000354636
0.000354072
0.000353397
0.000352899
0.000352286
0.000351845
0.000351285
0.000350896
0.000350389
0.00035004
0.000349582
0.000349271
0.00034886
0.000348579
0.000348208
0.000347956
0.000347623
0.000347397
0.000347102
0.000346904
0.000346627
0.000346438
0.000346171
0.000345993
0.000345742
0.000345578
0.000345345
0.000345198
0.000344983
0.000344853
0.000344659
0.000344546
0.000344377
0.000344281
0.000344145
0.000344075
0.00034391
0.000343888
0.000343808
0.000348835
0.0135608
0.0153148
0.00102422
0.000933096
0.000856017
0.000789936
0.000733558
0.000686006
0.000645959
0.000612302
0.000583757
0.000559501
0.000538607
0.000520607
0.000504843
0.000491097
0.000478877
0.000468117
0.000458421
0.000449821
0.000441977
0.000434985
0.000428535
0.000422767
0.00041739
0.000412573
0.000408034
0.000403967
0.000400097
0.000396636
0.000393304
0.000390334
0.000387446
0.000384883
0.00038236
0.000380135
0.000377917
0.000375978
0.000374022
0.000372325
0.00037059
0.000369101
0.000367553
0.000366241
0.000364856
0.000363698
0.000362456
0.00036143
0.000360313
0.000359403
0.000358395
0.000357587
0.000356676
0.000355958
0.000355133
0.000354496
0.00035375
0.000353183
0.000352505
0.000352003
0.000351387
0.000350944
0.000350381
0.000349989
0.000349479
0.000349128
0.000348668
0.000348354
0.00034794
0.000347657
0.000347284
0.00034703
0.000346695
0.000346468
0.00034617
0.000345971
0.000345692
0.000345501
0.000345233
0.000345054
0.000344799
0.000344635
0.000344399
0.00034425
0.000344034
0.000343902
0.000343705
0.000343591
0.000343419
0.000343321
0.000343182
0.000343111
0.000342944
0.000342921
0.000342837
0.00034802
0.013845
0.0157034
0.00102421
0.000933096
0.000856045
0.000789982
0.000733595
0.000686011
0.000645916
0.000612203
0.000583601
0.000559288
0.00053834
0.000520289
0.000504479
0.00049069
0.000478431
0.000467635
0.000457906
0.000449276
0.000441404
0.000434387
0.000427914
0.000422124
0.000416727
0.00041189
0.000407335
0.000403251
0.000399366
0.000395891
0.000392546
0.000389564
0.000386664
0.00038409
0.000381556
0.000379322
0.000377096
0.000375148
0.000373183
0.000371479
0.000369736
0.00036824
0.000366686
0.000365368
0.000363977
0.000362813
0.000361565
0.000360534
0.000359412
0.000358498
0.000357484
0.000356673
0.000355757
0.000355035
0.000354206
0.000353565
0.000352815
0.000352245
0.000351563
0.000351059
0.000350439
0.000349993
0.000349427
0.000349033
0.00034852
0.000348166
0.000347703
0.000347387
0.000346971
0.000346686
0.00034631
0.000346054
0.000345716
0.000345488
0.000345188
0.000344987
0.000344705
0.000344514
0.000344243
0.000344062
0.000343806
0.00034364
0.000343401
0.000343251
0.000343032
0.000342898
0.000342699
0.000342583
0.000342409
0.000342309
0.000342167
0.000342095
0.000341924
0.000341901
0.000341814
0.000347159
0.014127
0.0161114
0.00102421
0.000933097
0.000856074
0.00079003
0.000733636
0.000686018
0.000645874
0.000612103
0.00058344
0.000559067
0.000538063
0.000519959
0.000504099
0.000490266
0.000477966
0.000467131
0.000457368
0.000448705
0.000440804
0.00043376
0.000427262
0.000421449
0.00041603
0.000411174
0.0004066
0.0004025
0.000398599
0.000395109
0.00039175
0.000388755
0.000385843
0.000383258
0.000380713
0.000378469
0.000376232
0.000374275
0.000372302
0.00037059
0.000368838
0.000367336
0.000365774
0.00036445
0.000363052
0.000361882
0.000360628
0.000359592
0.000358464
0.000357545
0.000356527
0.000355711
0.00035479
0.000354065
0.000353231
0.000352587
0.000351832
0.000351259
0.000350573
0.000350066
0.000349442
0.000348993
0.000348424
0.000348027
0.00034751
0.000347154
0.000346688
0.00034637
0.000345951
0.000345663
0.000345285
0.000345027
0.000344686
0.000344456
0.000344154
0.000343952
0.000343668
0.000343474
0.000343201
0.000343019
0.00034276
0.000342593
0.000342351
0.0003422
0.000341978
0.000341842
0.000341641
0.000341523
0.000341346
0.000341244
0.000341099
0.000341025
0.000340852
0.000340827
0.000340737
0.000346249
0.014402
0.0165369
0.0010242
0.000933097
0.000856105
0.00079008
0.000733679
0.000686028
0.000645832
0.000612
0.000583274
0.000558839
0.000537775
0.000519615
0.000503705
0.000489823
0.00047748
0.000466605
0.000456805
0.000448109
0.000440177
0.000433104
0.00042658
0.000420743
0.000415302
0.000410425
0.000405832
0.000401713
0.000397795
0.00039429
0.000390916
0.000387907
0.000384982
0.000382385
0.000379829
0.000377574
0.000375327
0.000373361
0.000371378
0.000369657
0.000367897
0.000366387
0.000364817
0.000363487
0.000362082
0.000360906
0.000359646
0.000358604
0.00035747
0.000356546
0.000355522
0.000354702
0.000353776
0.000353046
0.000352208
0.000351559
0.0003508
0.000350224
0.000349534
0.000349023
0.000348395
0.000347944
0.00034737
0.000346971
0.000346451
0.000346092
0.000345623
0.000345302
0.00034488
0.00034459
0.000344209
0.000343949
0.000343606
0.000343374
0.000343068
0.000342865
0.000342578
0.000342383
0.000342107
0.000341924
0.000341662
0.000341493
0.000341249
0.000341096
0.000340871
0.000340734
0.000340529
0.000340409
0.000340229
0.000340126
0.000339977
0.000339901
0.000339726
0.0003397
0.000339607
0.000345289
0.0146648
0.0169772
0.00102419
0.000933097
0.000856137
0.000790133
0.000733726
0.00068604
0.000645791
0.000611896
0.000583104
0.000558604
0.000537478
0.000519259
0.000503295
0.000489364
0.000476975
0.000466058
0.000456219
0.000447488
0.000439524
0.000432421
0.000425869
0.000420006
0.000414541
0.000409642
0.000405029
0.000400891
0.000396955
0.000393433
0.000390044
0.000387021
0.000384082
0.000381472
0.000378904
0.000376638
0.00037438
0.000372404
0.000370411
0.000368681
0.000366913
0.000365394
0.000363817
0.000362479
0.000361066
0.000359884
0.000358617
0.00035757
0.000356429
0.0003555
0.00035447
0.000353645
0.000352714
0.00035198
0.000351136
0.000350484
0.00034972
0.00034914
0.000348445
0.000347931
0.000347299
0.000346844
0.000346267
0.000345864
0.000345341
0.00034498