/*--------------------------------*- C++ -*----------------------------------*\
| =========                 |                                                 |
| \\      /  F ield         | OpenFOAM: The Open Source CFD Toolbox           |
|  \\    /   O peration     | Version:  v2012                                 |
|   \\  /    A nd           | Website:  www.openfoam.com                      |
|    \\/     M anipulation  |                                                 |
\*---------------------------------------------------------------------------*/
FoamFile
{
    version     2.0;
    format      ascii;
    class       volScalarField;
    location    "45.5";
    object      nut;
}
// * * * * * * * * * * * * * * * * * * * * * * * * * * * * * * * * * * * * * //

dimensions      [0 2 -1 0 0 0 0];


internalField   nonuniform List<scalar> 
209825
(
1.24453e-07
1.23614e-07
1.20393e-07
1.14853e-07
1.08128e-07
1.01276e-07
9.48396e-08
8.90688e-08
8.39677e-08
7.95191e-08
7.56187e-08
7.2222e-08
6.9224e-08
6.66006e-08
6.42616e-08
6.22013e-08
6.0344e-08
5.8699e-08
5.71999e-08
5.58671e-08
5.46391e-08
5.35443e-08
5.25255e-08
5.16153e-08
5.07594e-08
4.99942e-08
4.92678e-08
4.86198e-08
4.79965e-08
4.74426e-08
4.69049e-08
4.64287e-08
4.59601e-08
4.55476e-08
4.51372e-08
4.47787e-08
4.4417e-08
4.41041e-08
4.37842e-08
4.35099e-08
4.32251e-08
4.29838e-08
4.27285e-08
4.2515e-08
4.22867e-08
4.20981e-08
4.18918e-08
4.17242e-08
4.15388e-08
4.13899e-08
4.12202e-08
4.10896e-08
4.0936e-08
4.08203e-08
4.06787e-08
4.05745e-08
4.04498e-08
4.03553e-08
4.02406e-08
4.01593e-08
4.00489e-08
3.99774e-08
3.98767e-08
3.9812e-08
3.97194e-08
3.96622e-08
3.95755e-08
3.95173e-08
3.94427e-08
3.93882e-08
3.93196e-08
3.92666e-08
3.92057e-08
3.91557e-08
3.90971e-08
3.90473e-08
3.89893e-08
3.89406e-08
3.88846e-08
3.88381e-08
3.87847e-08
3.87395e-08
3.86888e-08
3.86441e-08
3.8596e-08
3.85514e-08
3.85068e-08
3.84611e-08
3.84225e-08
3.83748e-08
3.8327e-08
3.82739e-08
3.82472e-08
3.85645e-08
3.3301e-06
2.25519e-08
1.24453e-07
1.23613e-07
1.20393e-07
1.14854e-07
1.0813e-07
1.01278e-07
9.4842e-08
8.90713e-08
8.39702e-08
7.95215e-08
7.56209e-08
7.22241e-08
6.9226e-08
6.66024e-08
6.42633e-08
6.22029e-08
6.03454e-08
5.87003e-08
5.72011e-08
5.58682e-08
5.46401e-08
5.35452e-08
5.25264e-08
5.16161e-08
5.07601e-08
4.99949e-08
4.92684e-08
4.86204e-08
4.7997e-08
4.74431e-08
4.69053e-08
4.64291e-08
4.59605e-08
4.5548e-08
4.51374e-08
4.47789e-08
4.44172e-08
4.41043e-08
4.37844e-08
4.35101e-08
4.32252e-08
4.29839e-08
4.27285e-08
4.2515e-08
4.22867e-08
4.20981e-08
4.18918e-08
4.17241e-08
4.15387e-08
4.13899e-08
4.12201e-08
4.10895e-08
4.09359e-08
4.08202e-08
4.06786e-08
4.05744e-08
4.04497e-08
4.03551e-08
4.02404e-08
4.01591e-08
4.00487e-08
3.99772e-08
3.98765e-08
3.98117e-08
3.97192e-08
3.9662e-08
3.95753e-08
3.95171e-08
3.94424e-08
3.93879e-08
3.93193e-08
3.92663e-08
3.92055e-08
3.91554e-08
3.90968e-08
3.9047e-08
3.8989e-08
3.89403e-08
3.88843e-08
3.88378e-08
3.87844e-08
3.87392e-08
3.86884e-08
3.86437e-08
3.85956e-08
3.85511e-08
3.85064e-08
3.84608e-08
3.84222e-08
3.83745e-08
3.83266e-08
3.82735e-08
3.82468e-08
3.85644e-08
3.33089e-06
2.2731e-08
1.24453e-07
1.23614e-07
1.20396e-07
1.1486e-07
1.08138e-07
1.01287e-07
9.48518e-08
8.90812e-08
8.39798e-08
7.95306e-08
7.56295e-08
7.22321e-08
6.92335e-08
6.66093e-08
6.42697e-08
6.22088e-08
6.03509e-08
5.87053e-08
5.72057e-08
5.58724e-08
5.4644e-08
5.35487e-08
5.25296e-08
5.16191e-08
5.07628e-08
4.99974e-08
4.92706e-08
4.86224e-08
4.79989e-08
4.74448e-08
4.69069e-08
4.64305e-08
4.59617e-08
4.5549e-08
4.51384e-08
4.47797e-08
4.4418e-08
4.41049e-08
4.37849e-08
4.35105e-08
4.32256e-08
4.29842e-08
4.27287e-08
4.25151e-08
4.22867e-08
4.2098e-08
4.18916e-08
4.17239e-08
4.15385e-08
4.13895e-08
4.12197e-08
4.10891e-08
4.09354e-08
4.08197e-08
4.0678e-08
4.05737e-08
4.0449e-08
4.03544e-08
4.02397e-08
4.01584e-08
4.00479e-08
3.99764e-08
3.98756e-08
3.98108e-08
3.97183e-08
3.9661e-08
3.95743e-08
3.95161e-08
3.94414e-08
3.93869e-08
3.93182e-08
3.92652e-08
3.92043e-08
3.91542e-08
3.90957e-08
3.90459e-08
3.89878e-08
3.89391e-08
3.88831e-08
3.88365e-08
3.87832e-08
3.87379e-08
3.86871e-08
3.86424e-08
3.85943e-08
3.85497e-08
3.8505e-08
3.84594e-08
3.84208e-08
3.8373e-08
3.83252e-08
3.8272e-08
3.82453e-08
3.85636e-08
3.33315e-06
2.29849e-08
1.24452e-07
1.23614e-07
1.204e-07
1.14869e-07
1.08151e-07
1.01303e-07
9.48684e-08
8.90978e-08
8.3996e-08
7.95461e-08
7.5644e-08
7.22457e-08
6.9246e-08
6.66209e-08
6.42804e-08
6.22187e-08
6.036e-08
5.87137e-08
5.72134e-08
5.58795e-08
5.46505e-08
5.35547e-08
5.25351e-08
5.16241e-08
5.07674e-08
5.00016e-08
4.92745e-08
4.86259e-08
4.80021e-08
4.74477e-08
4.69094e-08
4.64328e-08
4.59638e-08
4.55509e-08
4.514e-08
4.47812e-08
4.44192e-08
4.4106e-08
4.37858e-08
4.35112e-08
4.32261e-08
4.29846e-08
4.2729e-08
4.25153e-08
4.22868e-08
4.20979e-08
4.18914e-08
4.17237e-08
4.15381e-08
4.13891e-08
4.12192e-08
4.10884e-08
4.09347e-08
4.08189e-08
4.06771e-08
4.05728e-08
4.04479e-08
4.03533e-08
4.02385e-08
4.01571e-08
4.00466e-08
3.9975e-08
3.98741e-08
3.98094e-08
3.97167e-08
3.96594e-08
3.95726e-08
3.95144e-08
3.94397e-08
3.93851e-08
3.93164e-08
3.92635e-08
3.92025e-08
3.91524e-08
3.90938e-08
3.9044e-08
3.89858e-08
3.89371e-08
3.88811e-08
3.88345e-08
3.87811e-08
3.87358e-08
3.8685e-08
3.86403e-08
3.85921e-08
3.85475e-08
3.85028e-08
3.84571e-08
3.84184e-08
3.83707e-08
3.83229e-08
3.82697e-08
3.82428e-08
3.85622e-08
3.33684e-06
2.32874e-08
1.24451e-07
1.23614e-07
1.20406e-07
1.14883e-07
1.0817e-07
1.01325e-07
9.48919e-08
8.91214e-08
8.40189e-08
7.95679e-08
7.56646e-08
7.22648e-08
6.92638e-08
6.66374e-08
6.42956e-08
6.22327e-08
6.03729e-08
5.87255e-08
5.72243e-08
5.58895e-08
5.46597e-08
5.35632e-08
5.25428e-08
5.16312e-08
5.07739e-08
5.00075e-08
4.92799e-08
4.86309e-08
4.80066e-08
4.74518e-08
4.69131e-08
4.64361e-08
4.59667e-08
4.55535e-08
4.51424e-08
4.47833e-08
4.4421e-08
4.41075e-08
4.37871e-08
4.35123e-08
4.3227e-08
4.29853e-08
4.27294e-08
4.25156e-08
4.22869e-08
4.20979e-08
4.18912e-08
4.17233e-08
4.15375e-08
4.13884e-08
4.12184e-08
4.10875e-08
4.09337e-08
4.08177e-08
4.06759e-08
4.05714e-08
4.04465e-08
4.03517e-08
4.02369e-08
4.01554e-08
4.00448e-08
3.99731e-08
3.98722e-08
3.98073e-08
3.97146e-08
3.96573e-08
3.95704e-08
3.95121e-08
3.94373e-08
3.93828e-08
3.9314e-08
3.9261e-08
3.92e-08
3.91498e-08
3.90912e-08
3.90413e-08
3.89832e-08
3.89344e-08
3.88783e-08
3.88317e-08
3.87782e-08
3.87329e-08
3.8682e-08
3.86373e-08
3.8589e-08
3.85444e-08
3.84996e-08
3.84539e-08
3.84152e-08
3.83675e-08
3.83196e-08
3.82663e-08
3.82394e-08
3.85603e-08
3.34199e-06
2.36284e-08
1.2445e-07
1.23615e-07
1.20414e-07
1.149e-07
1.08194e-07
1.01353e-07
9.49224e-08
8.9152e-08
8.40487e-08
7.95963e-08
7.56913e-08
7.22897e-08
6.9287e-08
6.66588e-08
6.43154e-08
6.22509e-08
6.03896e-08
5.8741e-08
5.72385e-08
5.59025e-08
5.46717e-08
5.35742e-08
5.2553e-08
5.16404e-08
5.07824e-08
5.00153e-08
4.9287e-08
4.86373e-08
4.80125e-08
4.74571e-08
4.6918e-08
4.64405e-08
4.59706e-08
4.5557e-08
4.51455e-08
4.4786e-08
4.44234e-08
4.41096e-08
4.37888e-08
4.35138e-08
4.32281e-08
4.29862e-08
4.27301e-08
4.2516e-08
4.22871e-08
4.20979e-08
4.1891e-08
4.17229e-08
4.15369e-08
4.13876e-08
4.12174e-08
4.10864e-08
4.09324e-08
4.08163e-08
4.06743e-08
4.05697e-08
4.04446e-08
4.03498e-08
4.02348e-08
4.01532e-08
4.00425e-08
3.99707e-08
3.98697e-08
3.98047e-08
3.97119e-08
3.96545e-08
3.95675e-08
3.95092e-08
3.94343e-08
3.93797e-08
3.93109e-08
3.92579e-08
3.91967e-08
3.91465e-08
3.90878e-08
3.90379e-08
3.89797e-08
3.89309e-08
3.88747e-08
3.88281e-08
3.87745e-08
3.87292e-08
3.86782e-08
3.86334e-08
3.85851e-08
3.85405e-08
3.84956e-08
3.84498e-08
3.8411e-08
3.83633e-08
3.83154e-08
3.8262e-08
3.82349e-08
3.85578e-08
3.34866e-06
2.40048e-08
1.24449e-07
1.23615e-07
1.20424e-07
1.14921e-07
1.08224e-07
1.01389e-07
9.49599e-08
8.91898e-08
8.40855e-08
7.96313e-08
7.57242e-08
7.23205e-08
6.93156e-08
6.66852e-08
6.43398e-08
6.22734e-08
6.04104e-08
5.87601e-08
5.72561e-08
5.59187e-08
5.46866e-08
5.35878e-08
5.25655e-08
5.1652e-08
5.07929e-08
5.0025e-08
4.92958e-08
4.86454e-08
4.80198e-08
4.74638e-08
4.6924e-08
4.64459e-08
4.59755e-08
4.55614e-08
4.51494e-08
4.47894e-08
4.44264e-08
4.41122e-08
4.3791e-08
4.35156e-08
4.32296e-08
4.29873e-08
4.27309e-08
4.25165e-08
4.22873e-08
4.20979e-08
4.18908e-08
4.17224e-08
4.15362e-08
4.13867e-08
4.12163e-08
4.10851e-08
4.09308e-08
4.08146e-08
4.06724e-08
4.05677e-08
4.04424e-08
4.03474e-08
4.02322e-08
4.01506e-08
4.00397e-08
3.99678e-08
3.98666e-08
3.98016e-08
3.97086e-08
3.9651e-08
3.9564e-08
3.95056e-08
3.94307e-08
3.9376e-08
3.9307e-08
3.9254e-08
3.91927e-08
3.91425e-08
3.90837e-08
3.90338e-08
3.89755e-08
3.89266e-08
3.88704e-08
3.88236e-08
3.877e-08
3.87246e-08
3.86735e-08
3.86287e-08
3.85803e-08
3.85356e-08
3.84906e-08
3.84449e-08
3.84059e-08
3.83582e-08
3.83102e-08
3.82568e-08
3.82295e-08
3.85548e-08
3.35689e-06
2.44176e-08
1.24447e-07
1.23616e-07
1.20436e-07
1.14946e-07
1.0826e-07
1.01431e-07
9.50048e-08
8.92349e-08
8.41293e-08
7.96732e-08
7.57637e-08
7.23573e-08
6.93498e-08
6.67169e-08
6.43691e-08
6.23004e-08
6.04353e-08
5.8783e-08
5.72772e-08
5.59381e-08
5.47044e-08
5.36042e-08
5.25805e-08
5.16657e-08
5.08056e-08
5.00365e-08
4.93064e-08
4.86551e-08
4.80286e-08
4.74718e-08
4.69312e-08
4.64525e-08
4.59814e-08
4.55667e-08
4.5154e-08
4.47936e-08
4.443e-08
4.41153e-08
4.37936e-08
4.35178e-08
4.32314e-08
4.29888e-08
4.2732e-08
4.25173e-08
4.22877e-08
4.2098e-08
4.18905e-08
4.17219e-08
4.15354e-08
4.13857e-08
4.1215e-08
4.10836e-08
4.0929e-08
4.08126e-08
4.06702e-08
4.05653e-08
4.04398e-08
4.03447e-08
4.02292e-08
4.01474e-08
4.00364e-08
3.99644e-08
3.9863e-08
3.97978e-08
3.97047e-08
3.9647e-08
3.95599e-08
3.95014e-08
3.94263e-08
3.93716e-08
3.93025e-08
3.92495e-08
3.9188e-08
3.91378e-08
3.90789e-08
3.90289e-08
3.89705e-08
3.89215e-08
3.88652e-08
3.88184e-08
3.87646e-08
3.87192e-08
3.8668e-08
3.86231e-08
3.85746e-08
3.85299e-08
3.84848e-08
3.8439e-08
3.83998e-08
3.83521e-08
3.83041e-08
3.82506e-08
3.8223e-08
3.85513e-08
3.36673e-06
2.48706e-08
1.24445e-07
1.23617e-07
1.2045e-07
1.14975e-07
1.08302e-07
1.0148e-07
9.5057e-08
8.92874e-08
8.41805e-08
7.9722e-08
7.58097e-08
7.24003e-08
6.93897e-08
6.67539e-08
6.44033e-08
6.2332e-08
6.04644e-08
5.88098e-08
5.73019e-08
5.59608e-08
5.47253e-08
5.36234e-08
5.25981e-08
5.16819e-08
5.08204e-08
5.00501e-08
4.93188e-08
4.86664e-08
4.80389e-08
4.74812e-08
4.69397e-08
4.64602e-08
4.59883e-08
4.55729e-08
4.51596e-08
4.47985e-08
4.44342e-08
4.4119e-08
4.37968e-08
4.35205e-08
4.32336e-08
4.29905e-08
4.27333e-08
4.25182e-08
4.22882e-08
4.20981e-08
4.18903e-08
4.17214e-08
4.15345e-08
4.13845e-08
4.12135e-08
4.10818e-08
4.0927e-08
4.08104e-08
4.06677e-08
4.05625e-08
4.04368e-08
4.03415e-08
4.02258e-08
4.01439e-08
4.00326e-08
3.99604e-08
3.98588e-08
3.97935e-08
3.97002e-08
3.96423e-08
3.95551e-08
3.94965e-08
3.94213e-08
3.93665e-08
3.92973e-08
3.92442e-08
3.91826e-08
3.91323e-08
3.90733e-08
3.90232e-08
3.89647e-08
3.89157e-08
3.88592e-08
3.88124e-08
3.87584e-08
3.87129e-08
3.86616e-08
3.86167e-08
3.8568e-08
3.85232e-08
3.8478e-08
3.84321e-08
3.83928e-08
3.83451e-08
3.8297e-08
3.82434e-08
3.82155e-08
3.85473e-08
3.37819e-06
2.53702e-08
1.24442e-07
1.23618e-07
1.20465e-07
1.15009e-07
1.08349e-07
1.01536e-07
9.51166e-08
8.93476e-08
8.42391e-08
7.97779e-08
7.58624e-08
7.24496e-08
6.94355e-08
6.67963e-08
6.44425e-08
6.23682e-08
6.04978e-08
5.88405e-08
5.73302e-08
5.59869e-08
5.47493e-08
5.36455e-08
5.26184e-08
5.17005e-08
5.08375e-08
5.00658e-08
4.93331e-08
4.86795e-08
4.80508e-08
4.7492e-08
4.69496e-08
4.64691e-08
4.59963e-08
4.55801e-08
4.5166e-08
4.48041e-08
4.44392e-08
4.41234e-08
4.38005e-08
4.35237e-08
4.32362e-08
4.29926e-08
4.27348e-08
4.25193e-08
4.22888e-08
4.20984e-08
4.18901e-08
4.17208e-08
4.15336e-08
4.13833e-08
4.12118e-08
4.10799e-08
4.09247e-08
4.08078e-08
4.06648e-08
4.05594e-08
4.04334e-08
4.03379e-08
4.02219e-08
4.01398e-08
4.00282e-08
3.99559e-08
3.98541e-08
3.97886e-08
3.96951e-08
3.9637e-08
3.95497e-08
3.94909e-08
3.94156e-08
3.93607e-08
3.92913e-08
3.92383e-08
3.91764e-08
3.91261e-08
3.90669e-08
3.90168e-08
3.89581e-08
3.8909e-08
3.88524e-08
3.88055e-08
3.87514e-08
3.87058e-08
3.86543e-08
3.86093e-08
3.85604e-08
3.85156e-08
3.84702e-08
3.84243e-08
3.83848e-08
3.83371e-08
3.82889e-08
3.82352e-08
3.8207e-08
3.85429e-08
3.39129e-06
2.59247e-08
1.24439e-07
1.23619e-07
1.20482e-07
1.15046e-07
1.08402e-07
1.01599e-07
9.5184e-08
8.94155e-08
8.43053e-08
7.98412e-08
7.5922e-08
7.25053e-08
6.94874e-08
6.68444e-08
6.4487e-08
6.24092e-08
6.05356e-08
5.88754e-08
5.73623e-08
5.60164e-08
5.47765e-08
5.36705e-08
5.26414e-08
5.17217e-08
5.08569e-08
5.00836e-08
4.93494e-08
4.86944e-08
4.80644e-08
4.75044e-08
4.69608e-08
4.64792e-08
4.60055e-08
4.55883e-08
4.51733e-08
4.48107e-08
4.44449e-08
4.41283e-08
4.38048e-08
4.35273e-08
4.32392e-08
4.2995e-08
4.27367e-08
4.25206e-08
4.22896e-08
4.20987e-08
4.18899e-08
4.17203e-08
4.15325e-08
4.13819e-08
4.121e-08
4.10778e-08
4.09222e-08
4.0805e-08
4.06617e-08
4.0556e-08
4.04296e-08
4.03339e-08
4.02175e-08
4.01353e-08
4.00234e-08
3.99509e-08
3.98489e-08
3.97832e-08
3.96894e-08
3.96311e-08
3.95436e-08
3.94847e-08
3.94092e-08
3.93542e-08
3.92846e-08
3.92316e-08
3.91694e-08
3.91191e-08
3.90598e-08
3.90095e-08
3.89507e-08
3.89015e-08
3.88447e-08
3.87977e-08
3.87435e-08
3.86978e-08
3.86461e-08
3.8601e-08
3.8552e-08
3.85071e-08
3.84615e-08
3.84155e-08
3.83758e-08
3.83281e-08
3.82797e-08
3.82259e-08
3.81975e-08
3.85379e-08
3.406e-06
2.65439e-08
1.24436e-07
1.2362e-07
1.20502e-07
1.15088e-07
1.08462e-07
1.01669e-07
9.5259e-08
8.94912e-08
8.43793e-08
7.99118e-08
7.59887e-08
7.25677e-08
6.95455e-08
6.68982e-08
6.45368e-08
6.24552e-08
6.0578e-08
5.89145e-08
5.73984e-08
5.60496e-08
5.4807e-08
5.36986e-08
5.26672e-08
5.17454e-08
5.08786e-08
5.01035e-08
4.93677e-08
4.87111e-08
4.80797e-08
4.75183e-08
4.69734e-08
4.64907e-08
4.60158e-08
4.55976e-08
4.51816e-08
4.4818e-08
4.44514e-08
4.4134e-08
4.38096e-08
4.35314e-08
4.32426e-08
4.29978e-08
4.27388e-08
4.25222e-08
4.22906e-08
4.20991e-08
4.18898e-08
4.17197e-08
4.15315e-08
4.13805e-08
4.12081e-08
4.10755e-08
4.09195e-08
4.0802e-08
4.06583e-08
4.05522e-08
4.04255e-08
4.03295e-08
4.02128e-08
4.01303e-08
4.00182e-08
3.99453e-08
3.9843e-08
3.97771e-08
3.96831e-08
3.96245e-08
3.95369e-08
3.94778e-08
3.94021e-08
3.9347e-08
3.92772e-08
3.92242e-08
3.91617e-08
3.91113e-08
3.90518e-08
3.90015e-08
3.89425e-08
3.88932e-08
3.88362e-08
3.87891e-08
3.87347e-08
3.86889e-08
3.8637e-08
3.85919e-08
3.85426e-08
3.84976e-08
3.84518e-08
3.84058e-08
3.83658e-08
3.83181e-08
3.82696e-08
3.82157e-08
3.81868e-08
3.85324e-08
3.42229e-06
2.72388e-08
1.24433e-07
1.23621e-07
1.20523e-07
1.15133e-07
1.08527e-07
1.01746e-07
9.5342e-08
8.95751e-08
8.44612e-08
7.99902e-08
7.60626e-08
7.26369e-08
6.96099e-08
6.6958e-08
6.4592e-08
6.25063e-08
6.06252e-08
5.8958e-08
5.74384e-08
5.60865e-08
5.4841e-08
5.37299e-08
5.2696e-08
5.17718e-08
5.09029e-08
5.01258e-08
4.93881e-08
4.87298e-08
4.80967e-08
4.75339e-08
4.69875e-08
4.65035e-08
4.60274e-08
4.5608e-08
4.51908e-08
4.48263e-08
4.44587e-08
4.41404e-08
4.38151e-08
4.35361e-08
4.32465e-08
4.3001e-08
4.27413e-08
4.2524e-08
4.22917e-08
4.20998e-08
4.18898e-08
4.17192e-08
4.15304e-08
4.13789e-08
4.12061e-08
4.1073e-08
4.09166e-08
4.07987e-08
4.06546e-08
4.05481e-08
4.0421e-08
4.03247e-08
4.02076e-08
4.01248e-08
4.00124e-08
3.99393e-08
3.98367e-08
3.97705e-08
3.96762e-08
3.96173e-08
3.95295e-08
3.94703e-08
3.93943e-08
3.93391e-08
3.92691e-08
3.9216e-08
3.91533e-08
3.91028e-08
3.90431e-08
3.89927e-08
3.89335e-08
3.88841e-08
3.88269e-08
3.87796e-08
3.8725e-08
3.86791e-08
3.8627e-08
3.85818e-08
3.85322e-08
3.84872e-08
3.84412e-08
3.83951e-08
3.83548e-08
3.8307e-08
3.82584e-08
3.82044e-08
3.81751e-08
3.85265e-08
3.44007e-06
2.80217e-08
1.2443e-07
1.23622e-07
1.20545e-07
1.15183e-07
1.08599e-07
1.01831e-07
9.54329e-08
8.96671e-08
8.45512e-08
8.00763e-08
7.6144e-08
7.27131e-08
6.96808e-08
6.70238e-08
6.4653e-08
6.25626e-08
6.06772e-08
5.9006e-08
5.74827e-08
5.61273e-08
5.48785e-08
5.37644e-08
5.27278e-08
5.18011e-08
5.09298e-08
5.01505e-08
4.94107e-08
4.87505e-08
4.81156e-08
4.75511e-08
4.70032e-08
4.65177e-08
4.60402e-08
4.56196e-08
4.52012e-08
4.48355e-08
4.44668e-08
4.41475e-08
4.38213e-08
4.35414e-08
4.32509e-08
4.30046e-08
4.27441e-08
4.25261e-08
4.22931e-08
4.21005e-08
4.189e-08
4.17188e-08
4.15293e-08
4.13774e-08
4.1204e-08
4.10704e-08
4.09135e-08
4.07952e-08
4.06506e-08
4.05438e-08
4.04161e-08
4.03196e-08
4.0202e-08
4.01189e-08
4.00061e-08
3.99327e-08
3.98298e-08
3.97633e-08
3.96687e-08
3.96096e-08
3.95215e-08
3.9462e-08
3.93858e-08
3.93305e-08
3.92602e-08
3.92071e-08
3.91441e-08
3.90935e-08
3.90336e-08
3.8983e-08
3.89237e-08
3.88742e-08
3.88167e-08
3.87693e-08
3.87144e-08
3.86685e-08
3.86161e-08
3.85707e-08
3.8521e-08
3.84758e-08
3.84295e-08
3.83833e-08
3.83428e-08
3.8295e-08
3.82462e-08
3.81921e-08
3.81623e-08
3.85201e-08
3.45923e-06
2.89057e-08
1.24426e-07
1.23623e-07
1.2057e-07
1.15236e-07
1.08676e-07
1.01923e-07
9.5532e-08
8.97674e-08
8.46494e-08
8.01703e-08
7.62329e-08
7.27964e-08
6.97585e-08
6.70959e-08
6.47197e-08
6.26243e-08
6.07342e-08
5.90586e-08
5.75312e-08
5.6172e-08
5.49198e-08
5.38024e-08
5.27627e-08
5.18332e-08
5.09593e-08
5.01776e-08
4.94355e-08
4.87733e-08
4.81365e-08
4.75701e-08
4.70205e-08
4.65335e-08
4.60544e-08
4.56324e-08
4.52127e-08
4.48458e-08
4.44759e-08
4.41555e-08
4.38282e-08
4.35473e-08
4.32558e-08
4.30087e-08
4.27473e-08
4.25286e-08
4.22948e-08
4.21015e-08
4.18902e-08
4.17184e-08
4.15283e-08
4.13758e-08
4.12018e-08
4.10677e-08
4.09102e-08
4.07914e-08
4.06464e-08
4.05391e-08
4.0411e-08
4.0314e-08
4.01959e-08
4.01126e-08
3.99994e-08
3.99256e-08
3.98224e-08
3.97556e-08
3.96607e-08
3.96012e-08
3.95128e-08
3.94532e-08
3.93767e-08
3.93212e-08
3.92507e-08
3.91975e-08
3.91341e-08
3.90834e-08
3.90233e-08
3.89726e-08
3.8913e-08
3.88634e-08
3.88057e-08
3.87582e-08
3.8703e-08
3.86569e-08
3.86042e-08
3.85588e-08
3.85087e-08
3.84635e-08
3.84169e-08
3.83706e-08
3.83298e-08
3.82819e-08
3.8233e-08
3.81787e-08
3.81485e-08
3.85132e-08
3.47958e-06
2.99047e-08
1.24422e-07
1.23623e-07
1.20596e-07
1.15294e-07
1.0876e-07
1.02023e-07
9.56394e-08
8.98763e-08
8.47561e-08
8.02726e-08
7.63296e-08
7.28871e-08
6.9843e-08
6.71744e-08
6.47925e-08
6.26916e-08
6.07964e-08
5.9116e-08
5.75841e-08
5.62209e-08
5.49648e-08
5.38439e-08
5.28009e-08
5.18684e-08
5.09916e-08
5.02073e-08
4.94628e-08
4.87983e-08
4.81593e-08
4.7591e-08
4.70395e-08
4.65507e-08
4.607e-08
4.56466e-08
4.52253e-08
4.48571e-08
4.44859e-08
4.41643e-08
4.38358e-08
4.35539e-08
4.32614e-08
4.30133e-08
4.2751e-08
4.25314e-08
4.22967e-08
4.21027e-08
4.18906e-08
4.17182e-08
4.15273e-08
4.13743e-08
4.11995e-08
4.1065e-08
4.09068e-08
4.07875e-08
4.06419e-08
4.05342e-08
4.04055e-08
4.03082e-08
4.01895e-08
4.01059e-08
3.99922e-08
3.99181e-08
3.98144e-08
3.97474e-08
3.9652e-08
3.95922e-08
3.95036e-08
3.94436e-08
3.93668e-08
3.93112e-08
3.92404e-08
3.91872e-08
3.91234e-08
3.90727e-08
3.90122e-08
3.89614e-08
3.89016e-08
3.88518e-08
3.87938e-08
3.87461e-08
3.86907e-08
3.86444e-08
3.85915e-08
3.85459e-08
3.84955e-08
3.84502e-08
3.84033e-08
3.83569e-08
3.83157e-08
3.82679e-08
3.82187e-08
3.81643e-08
3.81335e-08
3.85059e-08
3.50089e-06
3.10333e-08
1.24417e-07
1.23624e-07
1.20624e-07
1.15356e-07
1.0885e-07
1.02131e-07
9.57551e-08
8.99938e-08
8.48713e-08
8.03832e-08
7.64343e-08
7.29853e-08
6.99346e-08
6.72595e-08
6.48714e-08
6.27646e-08
6.08639e-08
5.91783e-08
5.76417e-08
5.6274e-08
5.50138e-08
5.3889e-08
5.28425e-08
5.19067e-08
5.10269e-08
5.02397e-08
4.94925e-08
4.88255e-08
4.81843e-08
4.76138e-08
4.70603e-08
4.65697e-08
4.60872e-08
4.56621e-08
4.52392e-08
4.48696e-08
4.44969e-08
4.41741e-08
4.38443e-08
4.35613e-08
4.32676e-08
4.30185e-08
4.27552e-08
4.25347e-08
4.22991e-08
4.21043e-08
4.18913e-08
4.17181e-08
4.15265e-08
4.13728e-08
4.11973e-08
4.10621e-08
4.09032e-08
4.07835e-08
4.06372e-08
4.0529e-08
4.03997e-08
4.0302e-08
4.01828e-08
4.00987e-08
3.99846e-08
3.99101e-08
3.9806e-08
3.97386e-08
3.96428e-08
3.95826e-08
3.94937e-08
3.94335e-08
3.93563e-08
3.93005e-08
3.92294e-08
3.91761e-08
3.91119e-08
3.90611e-08
3.90004e-08
3.89494e-08
3.88893e-08
3.88394e-08
3.87811e-08
3.87333e-08
3.86775e-08
3.86311e-08
3.85778e-08
3.85321e-08
3.84814e-08
3.8436e-08
3.83887e-08
3.83423e-08
3.83006e-08
3.82527e-08
3.82033e-08
3.81488e-08
3.81175e-08
3.84981e-08
3.52285e-06
3.23069e-08
1.24413e-07
1.23625e-07
1.20653e-07
1.15422e-07
1.08946e-07
1.02246e-07
9.58794e-08
9.01202e-08
8.49954e-08
8.05023e-08
7.65472e-08
7.30912e-08
7.00336e-08
6.73514e-08
6.49567e-08
6.28435e-08
6.09369e-08
5.92458e-08
5.7704e-08
5.63315e-08
5.50668e-08
5.39379e-08
5.28876e-08
5.19482e-08
5.10651e-08
5.02749e-08
4.95248e-08
4.88552e-08
4.82114e-08
4.76387e-08
4.70829e-08
4.65903e-08
4.61059e-08
4.5679e-08
4.52544e-08
4.48833e-08
4.4509e-08
4.41849e-08
4.38537e-08
4.35695e-08
4.32745e-08
4.30244e-08
4.27599e-08
4.25385e-08
4.23018e-08
4.21061e-08
4.18922e-08
4.17182e-08
4.15257e-08
4.13714e-08
4.11951e-08
4.10592e-08
4.08996e-08
4.07793e-08
4.06324e-08
4.05236e-08
4.03937e-08
4.02956e-08
4.01757e-08
4.00912e-08
3.99766e-08
3.99017e-08
3.97971e-08
3.97293e-08
3.96331e-08
3.95725e-08
3.94833e-08
3.94227e-08
3.93451e-08
3.92892e-08
3.92177e-08
3.91644e-08
3.90997e-08
3.90489e-08
3.89878e-08
3.89367e-08
3.88763e-08
3.88262e-08
3.87676e-08
3.87196e-08
3.86634e-08
3.86169e-08
3.85632e-08
3.85174e-08
3.84663e-08
3.84208e-08
3.83732e-08
3.83266e-08
3.82845e-08
3.82366e-08
3.81869e-08
3.81323e-08
3.81004e-08
3.84898e-08
3.54511e-06
3.37414e-08
1.24408e-07
1.23626e-07
1.20684e-07
1.15492e-07
1.09048e-07
1.02369e-07
9.60123e-08
9.02555e-08
8.51284e-08
8.06301e-08
7.66684e-08
7.32051e-08
7.01399e-08
6.74504e-08
6.50485e-08
6.29286e-08
6.10156e-08
5.93185e-08
5.77712e-08
5.63935e-08
5.51241e-08
5.39908e-08
5.29363e-08
5.19931e-08
5.11065e-08
5.0313e-08
4.95598e-08
4.88874e-08
4.82409e-08
4.76657e-08
4.71075e-08
4.66128e-08
4.61263e-08
4.56975e-08
4.52711e-08
4.48982e-08
4.45224e-08
4.41967e-08
4.3864e-08
4.35785e-08
4.32822e-08
4.30309e-08
4.27652e-08
4.25427e-08
4.23049e-08
4.21083e-08
4.18934e-08
4.17186e-08
4.15252e-08
4.13701e-08
4.11929e-08
4.10564e-08
4.0896e-08
4.0775e-08
4.06275e-08
4.05181e-08
4.03875e-08
4.02888e-08
4.01683e-08
4.00834e-08
3.99682e-08
3.98929e-08
3.97877e-08
3.97195e-08
3.96229e-08
3.95618e-08
3.94723e-08
3.94114e-08
3.93333e-08
3.92772e-08
3.92054e-08
3.91519e-08
3.90868e-08
3.90359e-08
3.89744e-08
3.89232e-08
3.88625e-08
3.88122e-08
3.87533e-08
3.8705e-08
3.86485e-08
3.86018e-08
3.85478e-08
3.85018e-08
3.84503e-08
3.84047e-08
3.83566e-08
3.831e-08
3.82674e-08
3.82195e-08
3.81695e-08
3.81148e-08
3.80823e-08
3.8481e-08
3.5672e-06
3.53535e-08
1.24402e-07
1.23626e-07
1.20717e-07
1.15566e-07
1.09157e-07
1.02499e-07
9.61539e-08
9.04e-08
8.52706e-08
8.07669e-08
7.67982e-08
7.33272e-08
7.0254e-08
6.75566e-08
6.51471e-08
6.302e-08
6.11002e-08
5.93968e-08
5.78436e-08
5.64604e-08
5.51858e-08
5.40477e-08
5.29889e-08
5.20416e-08
5.11511e-08
5.03541e-08
4.95976e-08
4.89221e-08
4.82728e-08
4.76949e-08
4.71342e-08
4.66371e-08
4.61484e-08
4.57176e-08
4.52892e-08
4.49146e-08
4.45369e-08
4.42097e-08
4.38754e-08
4.35884e-08
4.32907e-08
4.30382e-08
4.27712e-08
4.25476e-08
4.23086e-08
4.2111e-08
4.1895e-08
4.17193e-08
4.15248e-08
4.1369e-08
4.11909e-08
4.10536e-08
4.08924e-08
4.07707e-08
4.06225e-08
4.05124e-08
4.0381e-08
4.02819e-08
4.01606e-08
4.00753e-08
3.99595e-08
3.98836e-08
3.9778e-08
3.97093e-08
3.96122e-08
3.95506e-08
3.94607e-08
3.93995e-08
3.93209e-08
3.92646e-08
3.91924e-08
3.91388e-08
3.90733e-08
3.90223e-08
3.89603e-08
3.8909e-08
3.88479e-08
3.87974e-08
3.87381e-08
3.86897e-08
3.86328e-08
3.85859e-08
3.85315e-08
3.84853e-08
3.84334e-08
3.83876e-08
3.83392e-08
3.82924e-08
3.82493e-08
3.82014e-08
3.8151e-08
3.80962e-08
3.80631e-08
3.84717e-08
3.58858e-06
3.71603e-08
1.24397e-07
1.23627e-07
1.20751e-07
1.15644e-07
1.09272e-07
1.02638e-07
9.63044e-08
9.05537e-08
8.54221e-08
8.09129e-08
7.69369e-08
7.34576e-08
7.03761e-08
6.76702e-08
6.52527e-08
6.31179e-08
6.11909e-08
5.94807e-08
5.79212e-08
5.65321e-08
5.52521e-08
5.4109e-08
5.30454e-08
5.20938e-08
5.11992e-08
5.03985e-08
4.96384e-08
4.89597e-08
4.83072e-08
4.77265e-08
4.71631e-08
4.66635e-08
4.61724e-08
4.57394e-08
4.53089e-08
4.49323e-08
4.45528e-08
4.42239e-08
4.38879e-08
4.35994e-08
4.33001e-08
4.30463e-08
4.27779e-08
4.25531e-08
4.23128e-08
4.21142e-08
4.1897e-08
4.17204e-08
4.15248e-08
4.13681e-08
4.1189e-08
4.1051e-08
4.08888e-08
4.07665e-08
4.06174e-08
4.05066e-08
4.03745e-08
4.02748e-08
4.01527e-08
4.00669e-08
3.99505e-08
3.98741e-08
3.97678e-08
3.96987e-08
3.9601e-08
3.9539e-08
3.94487e-08
3.9387e-08
3.93079e-08
3.92514e-08
3.91788e-08
3.91251e-08
3.9059e-08
3.9008e-08
3.89455e-08
3.8894e-08
3.88326e-08
3.87819e-08
3.87222e-08
3.86736e-08
3.86163e-08
3.85692e-08
3.85143e-08
3.8468e-08
3.84157e-08
3.83697e-08
3.83208e-08
3.82739e-08
3.82303e-08
3.81823e-08
3.81316e-08
3.80767e-08
3.80429e-08
3.84618e-08
3.60865e-06
3.91787e-08
1.24391e-07
1.23627e-07
1.20787e-07
1.15726e-07
1.09393e-07
1.02784e-07
9.64638e-08
9.07169e-08
8.55831e-08
8.10682e-08
7.70846e-08
7.35967e-08
7.05062e-08
6.77915e-08
6.53655e-08
6.32225e-08
6.12879e-08
5.95705e-08
5.80043e-08
5.66089e-08
5.53232e-08
5.41746e-08
5.31061e-08
5.21498e-08
5.12509e-08
5.04461e-08
4.96823e-08
4.90001e-08
4.83444e-08
4.77606e-08
4.71943e-08
4.66921e-08
4.61984e-08
4.57631e-08
4.53303e-08
4.49517e-08
4.45701e-08
4.42394e-08
4.39015e-08
4.36115e-08
4.33105e-08
4.30553e-08
4.27854e-08
4.25593e-08
4.23177e-08
4.21179e-08
4.18996e-08
4.17218e-08
4.15251e-08
4.13675e-08
4.11874e-08
4.10485e-08
4.08853e-08
4.07622e-08
4.06123e-08
4.05008e-08
4.03678e-08
4.02675e-08
4.01446e-08
4.00583e-08
3.99412e-08
3.98642e-08
3.97574e-08
3.96877e-08
3.95895e-08
3.95269e-08
3.94361e-08
3.93741e-08
3.92944e-08
3.92376e-08
3.91646e-08
3.91107e-08
3.90441e-08
3.89931e-08
3.89301e-08
3.88784e-08
3.88166e-08
3.87657e-08
3.87056e-08
3.86567e-08
3.85989e-08
3.85516e-08
3.84963e-08
3.84498e-08
3.8397e-08
3.83509e-08
3.83015e-08
3.82544e-08
3.82102e-08
3.81622e-08
3.81111e-08
3.80561e-08
3.80216e-08
3.84512e-08
3.62669e-06
4.14258e-08
1.24385e-07
1.23627e-07
1.20824e-07
1.15812e-07
1.0952e-07
1.02939e-07
9.66324e-08
9.08896e-08
8.57539e-08
8.12331e-08
7.72415e-08
7.37446e-08
7.06448e-08
6.79208e-08
6.54858e-08
6.33341e-08
6.13914e-08
5.96664e-08
5.80931e-08
5.66911e-08
5.53992e-08
5.42449e-08
5.3171e-08
5.22098e-08
5.13063e-08
5.04973e-08
4.97294e-08
4.90435e-08
4.83843e-08
4.77973e-08
4.72279e-08
4.67229e-08
4.62265e-08
4.57887e-08
4.53535e-08
4.49727e-08
4.4589e-08
4.42563e-08
4.39165e-08
4.36248e-08
4.33221e-08
4.30652e-08
4.27938e-08
4.25664e-08
4.23233e-08
4.21223e-08
4.19026e-08
4.17238e-08
4.15259e-08
4.13673e-08
4.11861e-08
4.10463e-08
4.0882e-08
4.07581e-08
4.06073e-08
4.0495e-08
4.03611e-08
4.02602e-08
4.01364e-08
4.00495e-08
3.99317e-08
3.98541e-08
3.97466e-08
3.96764e-08
3.95775e-08
3.95144e-08
3.94232e-08
3.93607e-08
3.92804e-08
3.92233e-08
3.91499e-08
3.90958e-08
3.90287e-08
3.89776e-08
3.8914e-08
3.88622e-08
3.87999e-08
3.87488e-08
3.86882e-08
3.86391e-08
3.85809e-08
3.85333e-08
3.84775e-08
3.84308e-08
3.83775e-08
3.83312e-08
3.82813e-08
3.82341e-08
3.81893e-08
3.81412e-08
3.80897e-08
3.80346e-08
3.79994e-08
3.84401e-08
3.64192e-06
4.39183e-08
1.24379e-07
1.23627e-07
1.20862e-07
1.15901e-07
1.09653e-07
1.03101e-07
9.68101e-08
9.10721e-08
8.59345e-08
8.14077e-08
7.74079e-08
7.39016e-08
7.0792e-08
6.80582e-08
6.56137e-08
6.34529e-08
6.15017e-08
5.97686e-08
5.81877e-08
5.67788e-08
5.54803e-08
5.432e-08
5.32404e-08
5.2274e-08
5.13656e-08
5.0552e-08
4.978e-08
4.90901e-08
4.84272e-08
4.78367e-08
4.72641e-08
4.67561e-08
4.62568e-08
4.58164e-08
4.53786e-08
4.49955e-08
4.46095e-08
4.42747e-08
4.39329e-08
4.36393e-08
4.33347e-08
4.30763e-08
4.28032e-08
4.25743e-08
4.23297e-08
4.21274e-08
4.19063e-08
4.17264e-08
4.15271e-08
4.13675e-08
4.11851e-08
4.10443e-08
4.0879e-08
4.07542e-08
4.06024e-08
4.04893e-08
4.03544e-08
4.02529e-08
4.01281e-08
4.00406e-08
3.9922e-08
3.98438e-08
3.97356e-08
3.96649e-08
3.95653e-08
3.95016e-08
3.94099e-08
3.93468e-08
3.9266e-08
3.92085e-08
3.91346e-08
3.90803e-08
3.90126e-08
3.89615e-08
3.88972e-08
3.88453e-08
3.87825e-08
3.87312e-08
3.86702e-08
3.86208e-08
3.85621e-08
3.85143e-08
3.84579e-08
3.8411e-08
3.83572e-08
3.83107e-08
3.82602e-08
3.82129e-08
3.81675e-08
3.81193e-08
3.80673e-08
3.80122e-08
3.79762e-08
3.84282e-08
3.65347e-06
4.66714e-08
1.24372e-07
1.23627e-07
1.20901e-07
1.15994e-07
1.09793e-07
1.03272e-07
9.6997e-08
9.12645e-08
8.61253e-08
8.15924e-08
7.75841e-08
7.40679e-08
7.09482e-08
6.8204e-08
6.57495e-08
6.35792e-08
6.16189e-08
5.98773e-08
5.82886e-08
5.68722e-08
5.55669e-08
5.44001e-08
5.33146e-08
5.23426e-08
5.1429e-08
5.06107e-08
4.98341e-08
4.914e-08
4.84732e-08
4.78791e-08
4.7303e-08
4.67918e-08
4.62895e-08
4.58463e-08
4.54058e-08
4.50202e-08
4.46318e-08
4.42948e-08
4.39508e-08
4.36553e-08
4.33487e-08
4.30886e-08
4.28137e-08
4.25833e-08
4.2337e-08
4.21333e-08
4.19108e-08
4.17296e-08
4.15289e-08
4.13682e-08
4.11845e-08
4.10427e-08
4.08763e-08
4.07506e-08
4.05977e-08
4.04838e-08
4.03478e-08
4.02456e-08
4.01198e-08
4.00317e-08
3.99122e-08
3.98334e-08
3.97244e-08
3.96531e-08
3.95528e-08
3.94885e-08
3.93962e-08
3.93327e-08
3.92511e-08
3.91932e-08
3.91189e-08
3.90643e-08
3.89961e-08
3.89449e-08
3.888e-08
3.88279e-08
3.87646e-08
3.8713e-08
3.86515e-08
3.86018e-08
3.85426e-08
3.84945e-08
3.84376e-08
3.83905e-08
3.83361e-08
3.82894e-08
3.82383e-08
3.81909e-08
3.81447e-08
3.80965e-08
3.8044e-08
3.79888e-08
3.79521e-08
3.84156e-08
3.66043e-06
4.96987e-08
1.24366e-07
1.23626e-07
1.20942e-07
1.16091e-07
1.09939e-07
1.0345e-07
9.71934e-08
9.1467e-08
8.63264e-08
8.17873e-08
7.77702e-08
7.42439e-08
7.11135e-08
6.83585e-08
6.58936e-08
6.37132e-08
6.17435e-08
5.99929e-08
5.83958e-08
5.69716e-08
5.5659e-08
5.44854e-08
5.33936e-08
5.24157e-08
5.14967e-08
5.06733e-08
4.98919e-08
4.91935e-08
4.85225e-08
4.79246e-08
4.73448e-08
4.68302e-08
4.63247e-08
4.58785e-08
4.54351e-08
4.50469e-08
4.46559e-08
4.43166e-08
4.39703e-08
4.36727e-08
4.33641e-08
4.31021e-08
4.28254e-08
4.25933e-08
4.23453e-08
4.21401e-08
4.1916e-08
4.17335e-08
4.15314e-08