/*--------------------------------*- C++ -*----------------------------------*\
| =========                 |                                                 |
| \\      /  F ield         | OpenFOAM: The Open Source CFD Toolbox           |
|  \\    /   O peration     | Version:  v2012                                 |
|   \\  /    A nd           | Website:  www.openfoam.com                      |
|    \\/     M anipulation  |                                                 |
\*---------------------------------------------------------------------------*/
FoamFile
{
    version     2.0;
    format      ascii;
    class       volScalarField;
    location    "45.5";
    object      yPlus;
}
// * * * * * * * * * * * * * * * * * * * * * * * * * * * * * * * * * * * * * //

dimensions      [0 0 0 0 0 0 0];


internalField   uniform 0;

boundaryField
{
    inlet
    {
        type            calculated;
        value           uniform 0;
    }
    outlet
    {
        type            calculated;
        value           uniform 0;
    }
    topWall
    {
        type            calculated;
        value           nonuniform List<scalar> 
545
(
0.151768
0.261715
0.335754
0.394666
0.444537
0.48817
0.52714
0.562439
0.594742
0.624534
0.652177
0.677954
0.702087
0.724758
0.746117
0.766289
0.785381
0.803484
0.820678
0.837033
0.852611
0.867465
0.881646
0.895196
0.908155
0.92056
0.932443
0.943834
0.95476
0.965248
0.975319
0.984997
0.994301
1.00325
1.01186
1.02015
1.02813
1.03582
1.04323
1.05037
1.05726
1.06391
1.07032
1.07651
1.08249
1.08826
1.09384
1.09922
1.10443
1.10946
1.11433
1.11903
1.12358
1.12799
1.13225
1.13637
1.14036
1.14422
1.14796
1.15158
1.15509
1.15849
1.16178
1.16497
1.16806
1.17106
1.17396
1.17678
1.17951
1.18215
1.18472
1.18721
1.18959
1.1919
1.19418
1.19645
1.1987
1.20093
1.20315
1.20534
1.20752
1.20968
1.21183
1.21396
1.21607
1.21816
1.22024
1.2223
1.22434
1.22637
1.22838
1.23038
1.23236
1.23433
1.23628
1.23822
1.23996
1.24152
1.24308
1.24464
1.24619
1.24775
1.24931
1.25087
1.25242
1.25398
1.25554
1.25709
1.25865
1.2602
1.26175
1.26331
1.26486
1.26641
1.26797
1.26952
1.27107
1.27262
1.27417
1.27572
1.27727
1.27881
1.28036
1.28191
1.28346
1.285
1.28655
1.28809
1.28963
1.29118
1.29272
1.29426
1.2958
1.29734
1.29888
1.30042
1.30196
1.3035
1.30503
1.30657
1.3081
1.30964
1.31117
1.3127
1.31423
1.31576
1.31729
1.31882
1.32035
1.32188
1.3234
1.32493
1.32645
1.32797
1.3295
1.33102
1.33254
1.33406
1.33557
1.33709
1.33861
1.34012
1.34164
1.34315
1.34466
1.34617
1.34768
1.34919
1.35069
1.3522
1.3537
1.35521
1.35671
1.35821
1.35971
1.36121
1.3627
1.3642
1.36569
1.36719
1.36868
1.37017
1.37166
1.37314
1.37463
1.37611
1.3776
1.37908
1.38056
1.38204
1.38351
1.38499
1.38646
1.38793
1.38941
1.39087
1.39234
1.39381
1.39527
1.39673
1.3982
1.39965
1.40111
1.40257
1.40402
1.40547
1.40692
1.40837
1.40982
1.41126
1.41271
1.41415
1.41559
1.41703
1.41846
1.41989
1.42133
1.42276
1.42418
1.42561
1.42703
1.42845
1.42987
1.43129
1.43271
1.43412
1.43553
1.43694
1.43834
1.43975
1.44115
1.44255
1.44395
1.44535
1.44674
1.44813
1.44952
1.4509
1.45229
1.45367
1.45505
1.45643
1.4578
1.45917
1.46054
1.46191
1.46327
1.46463
1.46599
1.46735
1.4687
1.47005
1.4714
1.47275
1.47409
1.47543
1.47677
1.47811
1.47944
1.48077
1.4821
1.48342
1.48474
1.48606
1.48738
1.48869
1.49
1.4913
1.49261
1.49384
1.49499
1.49616
1.49733
1.49852
1.4997
1.5009
1.50211
1.50332
1.50454
1.50576
1.507
1.50824
1.50949
1.51075
1.51201
1.51328
1.51456
1.51585
1.51714
1.51844
1.51975
1.52107
1.52239
1.52372
1.52505
1.5264
1.52775
1.5291
1.53046
1.53183
1.53321
1.53459
1.53598
1.53737
1.53877
1.54018
1.54159
1.54301
1.54443
1.54586
1.5473
1.54874
1.55018
1.55163
1.55309
1.55455
1.55601
1.55748
1.55895
1.56043
1.56191
1.56339
1.56488
1.56637
1.56787
1.56936
1.57086
1.57237
1.57387
1.57538
1.57689
1.5784
1.57992
1.58143
1.58295
1.58446
1.58598
1.5875
1.58902
1.59053
1.59205
1.59357
1.59508
1.5966
1.59811
1.59962
1.60113
1.60263
1.60414
1.60564
1.60713
1.60862
1.61011
1.6116
1.61308
1.61455
1.61602
1.61748
1.61894
1.62039
1.62183
1.62326
1.62469
1.62611
1.62752
1.62892
1.63031
1.63169
1.63306
1.63442
1.63577
1.63711
1.63843
1.63975
1.64104
1.64233
1.6436
1.64486
1.6461
1.64733
1.64854
1.64973
1.65091
1.65207
1.65321
1.65434
1.65544
1.65653
1.65759
1.65864
1.65966
1.66067
1.66165
1.66261
1.66355
1.66446
1.66535
1.66622
1.66705
1.66787
1.66866
1.66942
1.67016
1.67087
1.67155
1.67221
1.67283
1.67343
1.67399
1.67453
1.67504
1.67551
1.67596
1.67637
1.67675
1.6771
1.67742
1.6777
1.67795
1.67817
1.67835
1.6785
1.67861
1.67869
1.67873
1.67874
1.67871
1.67865
1.67855
1.67841
1.67824
1.67803
1.67778
1.6775
1.67718
1.67683
1.67643
1.676
1.67553
1.67503
1.67449
1.67391
1.6733
1.67265
1.67196
1.67124
1.67047
1.66968
1.66884
1.66798
1.66697
1.66583
1.66464
1.66343
1.66218
1.66091
1.65961
1.65829
1.65694
1.65557
1.65418
1.65278
1.65135
1.64991
1.64846
1.647
1.64553
1.64405
1.64255
1.64106
1.63956
1.63806
1.63655
1.63504
1.63353
1.63202
1.63051
1.62901
1.6275
1.62601
1.62452
1.62303
1.62155
1.62009
1.61862
1.61717
1.61573
1.6143
1.61288
1.61147
1.61008
1.6087
1.60733
1.60599
1.60465
1.60334
1.60203
1.60075
1.59949
1.59824
1.59701
1.59581
1.59462
1.59346
1.59231
1.59119
1.59008
1.58901
1.58795
1.58692
1.58591
1.58493
1.58397
1.58304
1.58213
1.58125
1.58039
1.57956
1.57876
1.57799
1.57724
1.57652
1.57583
1.57517
1.57453
1.57393
1.57335
1.57281
1.57229
1.57181
1.57135
1.57093
1.57053
1.57017
1.56983
1.56953
1.56926
1.56902
1.56882
1.56864
1.5685
1.56838
1.5683
1.56826
1.56822
)
;
    }
    bottomWall
    {
        type            calculated;
        value           nonuniform List<scalar> 
449
(
0.00273631
0.00480068
0.00537528
0.00532797
0.00525685
0.00516083
0.00506346
0.00497233
0.00488868
0.00481224
0.00474229
0.00467816
0.00461914
0.0045645
0.00451372
0.00446641
0.00442214
0.00438062
0.00434151
0.00430459
0.00426963
0.00423648
0.00420494
0.0041749
0.00414622
0.00411881
0.00409254
0.00406736
0.00404316
0.00401989
0.00399748
0.00397587
0.00395501
0.00393485
0.00391535
0.00389648
0.00387819
0.00386044
0.00384322
0.00382648
0.00381021
0.00379438
0.00377896
0.00376395
0.00374931
0.00373504
0.00372112
0.00370754
0.00369428
0.00368134
0.00366869
0.00365633
0.00364423
0.0036324
0.00362081
0.00360946
0.00359835
0.00358745
0.00357676
0.00356627
0.00355598
0.00354587
0.00353595
0.0035262
0.00351662
0.0035072
0.00349795
0.00348883
0.00347987
0.00347106
0.00346238
0.00345383
0.00344541
0.00343713
0.00342896
0.00342092
0.00341299
0.00340518
0.00339747
0.00338987
0.00338238
0.00337499
0.0033677
0.0033605
0.0033534
0.00334639
0.00333947
0.00333264
0.0033259
0.00331923
0.00331265
0.00330615
0.00329972
0.00329337
0.0032871
0.0032809
0.00327476
0.0032687
0.0032627
0.00325678
0.00325091
0.00324511
0.00323937
0.00323369
0.00322807
0.00322251
0.00321701
0.00321156
0.00320617
0.00320083
0.00319554
0.00319031
0.00318512
0.00317999
0.0031749
0.00316986
0.00316487
0.00315992
0.00315502
0.00315017
0.00314535
0.00314058
0.00313586
0.00313117
0.00312652
0.00312192
0.00311735
0.00311283
0.00310833
0.00310388
0.00309947
0.00309509
0.00309074
0.00308643
0.00308216
0.00307792
0.00307371
0.00306953
0.00306539
0.00306128
0.0030572
0.00305315
0.00304913
0.00304515
0.00304119
0.00303726
0.00303335
0.00302948
0.00302564
0.00302182
0.00301803
0.00301426
0.00301052
0.00300681
0.00300312
0.00299946
0.00299583
0.00299221
0.00298863
0.00298506
0.00298152
0.002978
0.00297451
0.00297104
0.00296759
0.00296416
0.00296075
0.00295737
0.002954
0.00295066
0.00294734
0.00294404
0.00294076
0.00293768
0.00293478
0.00293187
0.00292896
0.00292603
0.0029231
0.00292016
0.00291721
0.00291425
0.00291128
0.0029083
0.00290531
0.00290232
0.00289932
0.0028963
0.00289328
0.00289025
0.00288722
0.00288417
0.00288112
0.00287805
0.00287498
0.00287191
0.00286882
0.00286573
0.00286263
0.00285952
0.0028564
0.00285328
0.00285015
0.00284701
0.00284386
0.00284071
0.00283755
0.00283438
0.00283121
0.00282803
0.00282484
0.00282165
0.00281845
0.00281524
0.00281203
0.00280881
0.00280559
0.00280236
0.00279912
0.00279588
0.00279263
0.00278938
0.00278612
0.00278286
0.00277959
0.00277631
0.00277304
0.00276975
0.00276646
0.00276317
0.00275987
0.00275656
0.00275326
0.00274995
0.00274663
0.00274331
0.00273999
0.00273666
0.00273333
0.00272999
0.00272665
0.00272331
0.00271996
0.00271661
0.00271326
0.0027099
0.00270654
0.00270318
0.00269981
0.00269645
0.00269307
0.0026897
0.00268632
0.00268295
0.00267957
0.00267619
0.0026728
0.00266942
0.00266602
0.00266264
0.00265924
0.00265586
0.00265245
0.00264907
0.00264566
0.00264227
0.00263886
0.00263547
0.00263206
0.00262867
0.00262526
0.00262186
0.00261845
0.00261506
0.00261164
0.00260825
0.00260483
0.00260144
0.00259802
0.00259463
0.00259122
0.00258782
0.00258441
0.00258101
0.0025776
0.00257421
0.0025708
0.00256741
0.002564
0.00256061
0.00255721
0.00255382
0.00255042
0.00254703
0.00254364
0.00254025
0.00253686
0.00253347
0.00253009
0.00252671
0.00252333
0.00251995
0.00251657
0.0025132
0.00250982
0.00250645
0.00250309
0.00249972
0.00249636
0.002493
0.00248965
0.00248629
0.00248294
0.00247959
0.00247625
0.0024729
0.00246957
0.00246623
0.00246291
0.00245957
0.00245625
0.00245292
0.00244962
0.00244629
0.00244299
0.00243968
0.00243638
0.00243308
0.00242979
0.00242649
0.00242321
0.00241992
0.00241666
0.00241337
0.00241011
0.00240684
0.00240359
0.00240033
0.00239708
0.00239383
0.00239059
0.00238735
0.00238413
0.00238089
0.00237768
0.00237445
0.00237125
0.00236803
0.00236484
0.00236164
0.00235845
0.00235526
0.00235209
0.0023489
0.00234539
0.00234155
0.00233778
0.00233406
0.0023304
0.00232678
0.00232322
0.0023197
0.00231624
0.00231282
0.00230946
0.00230613
0.00230285
0.00229961
0.00229643
0.00229327
0.00229016
0.00228709
0.00228406
0.00228106
0.00227811
0.00227518
0.0022723
0.00226945
0.00226664
0.00226385
0.0022611
0.00225838
0.0022557
0.00225304
0.00225042
0.00224782
0.00224526
0.00224272
0.00224021
0.00223772
0.00223527
0.00223284
0.00223044
0.00222806
0.00222571
0.00222337
0.00222107
0.00221879
0.00221653
0.00221429
0.00221208
0.00220989
0.00220772
0.00220557
0.00220344
0.00220133
0.00219925
0.00219717
0.00219513
0.00219309
0.00219109
0.00218909
0.00218712
0.00218516
0.00218322
0.00218129
0.00217939
0.0021775
0.00217563
0.00217377
0.00217193
0.0021701
0.0021683
0.00216649
0.00216472
0.00216294
0.00216121
0.00215945
0.00215775
0.00215601
0.00215434
0.00215262
0.00215099
0.00214928
0.00214769
0.00214599
0.00214443
0.00214275
0.00214121
0.00213954
0.00213802
0.00213639
0.00213485
0.00213331
0.00213162
0.00213041
0.0021282
0.0021279
0.00212483
)
;
    }
    symmetry
    {
        type            symmetryPlane;
    }
    frontAndBack
    {
        type            empty;
    }
}


// ************************************************************************* //
