/*--------------------------------*- C++ -*----------------------------------*\
| =========                 |                                                 |
| \\      /  F ield         | OpenFOAM: The Open Source CFD Toolbox           |
|  \\    /   O peration     | Version:  v2012                                 |
|   \\  /    A nd           | Website:  www.openfoam.com                      |
|    \\/     M anipulation  |                                                 |
\*---------------------------------------------------------------------------*/
FoamFile
{
    version     2.0;
    format      ascii;
    class       volVectorField;
    location    "21.5";
    object      wallShearStress;
}
// * * * * * * * * * * * * * * * * * * * * * * * * * * * * * * * * * * * * * //

dimensions      [0 2 -2 0 0 0 0];


internalField   uniform (0 0 0);

boundaryField
{
    inlet
    {
        type            calculated;
        value           uniform (0 0 0);
    }
    outlet
    {
        type            calculated;
        value           uniform (0 0 0);
    }
    topWall
    {
        type            calculated;
        value           nonuniform List<vector> 
545
(
(5.05146e-08 -3.55383e-08 0)
(5.05461e-08 -9.95454e-08 0)
(5.04739e-08 -1.66045e-07 0)
(5.03897e-08 -2.3056e-07 0)
(5.03087e-08 -2.92286e-07 0)
(5.0216e-08 -3.52018e-07 0)
(5.01114e-08 -4.10266e-07 0)
(4.99955e-08 -4.67003e-07 0)
(4.98693e-08 -5.22101e-07 0)
(4.97337e-08 -5.75559e-07 0)
(4.95895e-08 -6.27446e-07 0)
(4.94376e-08 -6.77822e-07 0)
(4.92788e-08 -7.26722e-07 0)
(4.91139e-08 -7.74176e-07 0)
(4.89434e-08 -8.20219e-07 0)
(4.87682e-08 -8.64889e-07 0)
(4.85888e-08 -9.08223e-07 0)
(4.84057e-08 -9.50257e-07 0)
(4.82196e-08 -9.91026e-07 0)
(4.80309e-08 -1.03057e-06 0)
(4.78401e-08 -1.06891e-06 0)
(4.76476e-08 -1.1061e-06 0)
(4.74539e-08 -1.14216e-06 0)
(4.72592e-08 -1.17712e-06 0)
(4.7064e-08 -1.21102e-06 0)
(4.68686e-08 -1.24389e-06 0)
(4.66732e-08 -1.27576e-06 0)
(4.64781e-08 -1.30666e-06 0)
(4.62837e-08 -1.33662e-06 0)
(4.609e-08 -1.36567e-06 0)
(4.58974e-08 -1.39383e-06 0)
(4.57059e-08 -1.42114e-06 0)
(4.55158e-08 -1.44761e-06 0)
(4.53273e-08 -1.47328e-06 0)
(4.51404e-08 -1.49817e-06 0)
(4.49554e-08 -1.52231e-06 0)
(4.47722e-08 -1.54571e-06 0)
(4.45911e-08 -1.5684e-06 0)
(4.4412e-08 -1.59041e-06 0)
(4.42352e-08 -1.61174e-06 0)
(4.40605e-08 -1.63244e-06 0)
(4.38882e-08 -1.65251e-06 0)
(4.37183e-08 -1.67197e-06 0)
(4.35507e-08 -1.69085e-06 0)
(4.33856e-08 -1.70916e-06 0)
(4.32229e-08 -1.72691e-06 0)
(4.30627e-08 -1.74414e-06 0)
(4.2905e-08 -1.76085e-06 0)
(4.27498e-08 -1.77706e-06 0)
(4.25971e-08 -1.79279e-06 0)
(4.24469e-08 -1.80804e-06 0)
(4.22992e-08 -1.82285e-06 0)
(4.2154e-08 -1.83721e-06 0)
(4.20112e-08 -1.85115e-06 0)
(4.18709e-08 -1.86467e-06 0)
(4.1733e-08 -1.87779e-06 0)
(4.15976e-08 -1.89053e-06 0)
(4.14645e-08 -1.90289e-06 0)
(4.13337e-08 -1.91488e-06 0)
(4.12053e-08 -1.92652e-06 0)
(4.10792e-08 -1.93782e-06 0)
(4.09553e-08 -1.94879e-06 0)
(4.08337e-08 -1.95944e-06 0)
(4.07142e-08 -1.96977e-06 0)
(4.05968e-08 -1.97981e-06 0)
(4.04816e-08 -1.98955e-06 0)
(4.03684e-08 -1.99901e-06 0)
(4.02572e-08 -2.00819e-06 0)
(4.01481e-08 -2.01711e-06 0)
(4.00404e-08 -2.02576e-06 0)
(3.99363e-08 -2.03418e-06 0)
(3.98272e-08 -2.04233e-06 0)
(3.97236e-08 -2.05015e-06 0)
(3.96334e-08 -2.05777e-06 0)
(3.95434e-08 -2.06528e-06 0)
(3.94539e-08 -2.07273e-06 0)
(3.93645e-08 -2.08016e-06 0)
(3.92752e-08 -2.08754e-06 0)
(3.9186e-08 -2.09487e-06 0)
(3.90969e-08 -2.10214e-06 0)
(3.90079e-08 -2.10936e-06 0)
(3.89191e-08 -2.11654e-06 0)
(3.88304e-08 -2.12366e-06 0)
(3.87418e-08 -2.13074e-06 0)
(3.86533e-08 -2.13777e-06 0)
(3.8565e-08 -2.14475e-06 0)
(3.84767e-08 -2.15168e-06 0)
(3.83887e-08 -2.15856e-06 0)
(3.83007e-08 -2.1654e-06 0)
(3.82129e-08 -2.17219e-06 0)
(3.81253e-08 -2.17894e-06 0)
(3.80376e-08 -2.18563e-06 0)
(3.79508e-08 -2.1923e-06 0)
(3.78608e-08 -2.19885e-06 0)
(3.77839e-08 -2.20552e-06 0)
(3.76515e-08 -2.21195e-06 0)
(3.751e-08 -2.21766e-06 0)
(3.7434e-08 -2.22319e-06 0)
(3.73628e-08 -2.22844e-06 0)
(3.72941e-08 -2.23354e-06 0)
(3.72251e-08 -2.23879e-06 0)
(3.7156e-08 -2.24407e-06 0)
(3.70866e-08 -2.24934e-06 0)
(3.7017e-08 -2.2546e-06 0)
(3.69471e-08 -2.25986e-06 0)
(3.68768e-08 -2.26512e-06 0)
(3.68063e-08 -2.27039e-06 0)
(3.67355e-08 -2.27566e-06 0)
(3.66644e-08 -2.28093e-06 0)
(3.65929e-08 -2.2862e-06 0)
(3.65212e-08 -2.29148e-06 0)
(3.64492e-08 -2.29676e-06 0)
(3.63769e-08 -2.30204e-06 0)
(3.63043e-08 -2.30732e-06 0)
(3.62313e-08 -2.3126e-06 0)
(3.61581e-08 -2.31789e-06 0)
(3.60845e-08 -2.32317e-06 0)
(3.60107e-08 -2.32846e-06 0)
(3.59365e-08 -2.33375e-06 0)
(3.5862e-08 -2.33904e-06 0)
(3.57872e-08 -2.34434e-06 0)
(3.57121e-08 -2.34963e-06 0)
(3.56367e-08 -2.35493e-06 0)
(3.5561e-08 -2.36022e-06 0)
(3.5485e-08 -2.36552e-06 0)
(3.54086e-08 -2.37082e-06 0)
(3.5332e-08 -2.37612e-06 0)
(3.5255e-08 -2.38142e-06 0)
(3.51777e-08 -2.38673e-06 0)
(3.51001e-08 -2.39203e-06 0)
(3.50222e-08 -2.39733e-06 0)
(3.4944e-08 -2.40264e-06 0)
(3.48654e-08 -2.40794e-06 0)
(3.47866e-08 -2.41325e-06 0)
(3.47074e-08 -2.41855e-06 0)
(3.46279e-08 -2.42386e-06 0)
(3.45481e-08 -2.42917e-06 0)
(3.4468e-08 -2.43447e-06 0)
(3.43876e-08 -2.43978e-06 0)
(3.43068e-08 -2.44509e-06 0)
(3.42257e-08 -2.4504e-06 0)
(3.41443e-08 -2.4557e-06 0)
(3.40626e-08 -2.46101e-06 0)
(3.39806e-08 -2.46632e-06 0)
(3.38983e-08 -2.47162e-06 0)
(3.38156e-08 -2.47693e-06 0)
(3.37326e-08 -2.48223e-06 0)
(3.36493e-08 -2.48754e-06 0)
(3.35657e-08 -2.49284e-06 0)
(3.34818e-08 -2.49815e-06 0)
(3.33975e-08 -2.50345e-06 0)
(3.33129e-08 -2.50875e-06 0)
(3.3228e-08 -2.51405e-06 0)
(3.31428e-08 -2.51935e-06 0)
(3.30573e-08 -2.52465e-06 0)
(3.29714e-08 -2.52995e-06 0)
(3.28852e-08 -2.53524e-06 0)
(3.27987e-08 -2.54054e-06 0)
(3.27119e-08 -2.54583e-06 0)
(3.26248e-08 -2.55112e-06 0)
(3.25373e-08 -2.55641e-06 0)
(3.24495e-08 -2.5617e-06 0)
(3.23614e-08 -2.56698e-06 0)
(3.2273e-08 -2.57227e-06 0)
(3.21842e-08 -2.57755e-06 0)
(3.20951e-08 -2.58283e-06 0)
(3.20057e-08 -2.5881e-06 0)
(3.1916e-08 -2.59338e-06 0)
(3.1826e-08 -2.59865e-06 0)
(3.17356e-08 -2.60392e-06 0)
(3.1645e-08 -2.60919e-06 0)
(3.1554e-08 -2.61445e-06 0)
(3.14626e-08 -2.61972e-06 0)
(3.1371e-08 -2.62498e-06 0)
(3.1279e-08 -2.63023e-06 0)
(3.11867e-08 -2.63548e-06 0)
(3.10941e-08 -2.64073e-06 0)
(3.10012e-08 -2.64598e-06 0)
(3.0908e-08 -2.65122e-06 0)
(3.08144e-08 -2.65646e-06 0)
(3.07205e-08 -2.6617e-06 0)
(3.06263e-08 -2.66693e-06 0)
(3.05318e-08 -2.67216e-06 0)
(3.0437e-08 -2.67738e-06 0)
(3.03418e-08 -2.6826e-06 0)
(3.02463e-08 -2.68782e-06 0)
(3.01505e-08 -2.69303e-06 0)
(3.00544e-08 -2.69824e-06 0)
(2.9958e-08 -2.70344e-06 0)
(2.98612e-08 -2.70864e-06 0)
(2.97641e-08 -2.71384e-06 0)
(2.96668e-08 -2.71903e-06 0)
(2.95691e-08 -2.72421e-06 0)
(2.94711e-08 -2.72939e-06 0)
(2.93727e-08 -2.73456e-06 0)
(2.92741e-08 -2.73973e-06 0)
(2.91751e-08 -2.7449e-06 0)
(2.90759e-08 -2.75006e-06 0)
(2.89763e-08 -2.75521e-06 0)
(2.88764e-08 -2.76036e-06 0)
(2.87762e-08 -2.7655e-06 0)
(2.86756e-08 -2.77063e-06 0)
(2.85748e-08 -2.77576e-06 0)
(2.84737e-08 -2.78089e-06 0)
(2.83722e-08 -2.78601e-06 0)
(2.82705e-08 -2.79112e-06 0)
(2.81684e-08 -2.79622e-06 0)
(2.8066e-08 -2.80132e-06 0)
(2.79634e-08 -2.80641e-06 0)
(2.78604e-08 -2.8115e-06 0)
(2.77571e-08 -2.81658e-06 0)
(2.76535e-08 -2.82165e-06 0)
(2.75496e-08 -2.82671e-06 0)
(2.74454e-08 -2.83177e-06 0)
(2.73409e-08 -2.83682e-06 0)
(2.72361e-08 -2.84186e-06 0)
(2.7131e-08 -2.8469e-06 0)
(2.70256e-08 -2.85193e-06 0)
(2.69199e-08 -2.85694e-06 0)
(2.68139e-08 -2.86196e-06 0)
(2.67077e-08 -2.86696e-06 0)
(2.66011e-08 -2.87196e-06 0)
(2.64942e-08 -2.87694e-06 0)
(2.63871e-08 -2.88192e-06 0)
(2.62796e-08 -2.88689e-06 0)
(2.61719e-08 -2.89185e-06 0)
(2.60638e-08 -2.8968e-06 0)
(2.59555e-08 -2.90175e-06 0)
(2.58469e-08 -2.90668e-06 0)
(2.5738e-08 -2.91161e-06 0)
(2.56288e-08 -2.91652e-06 0)
(2.55194e-08 -2.92143e-06 0)
(2.54096e-08 -2.92633e-06 0)
(2.52996e-08 -2.93122e-06 0)
(2.51893e-08 -2.93609e-06 0)
(2.50787e-08 -2.94096e-06 0)
(2.49679e-08 -2.94582e-06 0)
(2.48568e-08 -2.95067e-06 0)
(2.47454e-08 -2.95551e-06 0)
(2.46337e-08 -2.96033e-06 0)
(2.45218e-08 -2.96515e-06 0)
(2.44096e-08 -2.96996e-06 0)
(2.42971e-08 -2.97475e-06 0)
(2.41844e-08 -2.97953e-06 0)
(2.40714e-08 -2.98431e-06 0)
(2.39581e-08 -2.98907e-06 0)
(2.38446e-08 -2.99382e-06 0)
(2.37308e-08 -2.99856e-06 0)
(2.36168e-08 -3.00329e-06 0)
(2.35025e-08 -3.008e-06 0)
(2.3388e-08 -3.01271e-06 0)
(2.32732e-08 -3.0174e-06 0)
(2.31581e-08 -3.02208e-06 0)
(2.30429e-08 -3.02674e-06 0)
(2.29273e-08 -3.0314e-06 0)
(2.28116e-08 -3.03604e-06 0)
(2.26955e-08 -3.04067e-06 0)
(2.25793e-08 -3.04529e-06 0)
(2.24628e-08 -3.04989e-06 0)
(2.23461e-08 -3.05448e-06 0)
(2.22291e-08 -3.05906e-06 0)
(2.21119e-08 -3.06363e-06 0)
(2.19945e-08 -3.06818e-06 0)
(2.18769e-08 -3.07272e-06 0)
(2.1759e-08 -3.07724e-06 0)
(2.16413e-08 -3.08176e-06 0)
(2.15213e-08 -3.08621e-06 0)
(2.14091e-08 -3.09083e-06 0)
(2.12654e-08 -3.09516e-06 0)
(2.1112e-08 -3.09919e-06 0)
(2.09987e-08 -3.10343e-06 0)
(2.08943e-08 -3.10742e-06 0)
(2.07911e-08 -3.11129e-06 0)
(2.06872e-08 -3.11529e-06 0)
(2.05821e-08 -3.11936e-06 0)
(2.04758e-08 -3.12344e-06 0)
(2.03684e-08 -3.12753e-06 0)
(2.02598e-08 -3.13163e-06 0)
(2.015e-08 -3.13576e-06 0)
(2.00389e-08 -3.13992e-06 0)
(1.99266e-08 -3.1441e-06 0)
(1.98132e-08 -3.1483e-06 0)
(1.96984e-08 -3.15251e-06 0)
(1.95824e-08 -3.15675e-06 0)
(1.94652e-08 -3.16101e-06 0)
(1.93467e-08 -3.1653e-06 0)
(1.92269e-08 -3.1696e-06 0)
(1.91058e-08 -3.17392e-06 0)
(1.89834e-08 -3.17826e-06 0)
(1.88598e-08 -3.18262e-06 0)
(1.87348e-08 -3.18699e-06 0)
(1.86086e-08 -3.19139e-06 0)
(1.8481e-08 -3.1958e-06 0)
(1.83521e-08 -3.20023e-06 0)
(1.82219e-08 -3.20468e-06 0)
(1.80903e-08 -3.20914e-06 0)
(1.79574e-08 -3.21362e-06 0)
(1.78231e-08 -3.21811e-06 0)
(1.76875e-08 -3.22262e-06 0)
(1.75506e-08 -3.22714e-06 0)
(1.74122e-08 -3.23167e-06 0)
(1.72726e-08 -3.23622e-06 0)
(1.71315e-08 -3.24078e-06 0)
(1.69891e-08 -3.24535e-06 0)
(1.68452e-08 -3.24993e-06 0)
(1.67e-08 -3.25453e-06 0)
(1.65534e-08 -3.25913e-06 0)
(1.64055e-08 -3.26374e-06 0)
(1.62561e-08 -3.26836e-06 0)
(1.61053e-08 -3.27298e-06 0)
(1.59532e-08 -3.27761e-06 0)
(1.57996e-08 -3.28225e-06 0)
(1.56447e-08 -3.28689e-06 0)
(1.54883e-08 -3.29154e-06 0)
(1.53305e-08 -3.29619e-06 0)
(1.51714e-08 -3.30084e-06 0)
(1.50108e-08 -3.30549e-06 0)
(1.48489e-08 -3.31015e-06 0)
(1.46855e-08 -3.3148e-06 0)
(1.45207e-08 -3.31945e-06 0)
(1.43546e-08 -3.3241e-06 0)
(1.4187e-08 -3.32874e-06 0)
(1.40181e-08 -3.33338e-06 0)
(1.38478e-08 -3.33801e-06 0)
(1.36761e-08 -3.34264e-06 0)
(1.3503e-08 -3.34725e-06 0)
(1.33285e-08 -3.35186e-06 0)
(1.31527e-08 -3.35646e-06 0)
(1.29755e-08 -3.36104e-06 0)
(1.2797e-08 -3.36561e-06 0)
(1.26171e-08 -3.37017e-06 0)
(1.24359e-08 -3.37471e-06 0)
(1.22534e-08 -3.37923e-06 0)
(1.20695e-08 -3.38374e-06 0)
(1.18844e-08 -3.38822e-06 0)
(1.1698e-08 -3.39268e-06 0)
(1.15102e-08 -3.39712e-06 0)
(1.13213e-08 -3.40153e-06 0)
(1.1131e-08 -3.40592e-06 0)
(1.09396e-08 -3.41028e-06 0)
(1.07469e-08 -3.41461e-06 0)
(1.0553e-08 -3.41891e-06 0)
(1.03579e-08 -3.42317e-06 0)
(1.01617e-08 -3.42741e-06 0)
(9.96426e-09 -3.4316e-06 0)
(9.76575e-09 -3.43576e-06 0)
(9.56612e-09 -3.43987e-06 0)
(9.36542e-09 -3.44395e-06 0)
(9.16366e-09 -3.44798e-06 0)
(8.96087e-09 -3.45197e-06 0)
(8.75706e-09 -3.45591e-06 0)
(8.55228e-09 -3.4598e-06 0)
(8.34654e-09 -3.46364e-06 0)
(8.13989e-09 -3.46742e-06 0)
(7.93233e-09 -3.47115e-06 0)
(7.72392e-09 -3.47483e-06 0)
(7.51467e-09 -3.47844e-06 0)
(7.30464e-09 -3.48199e-06 0)
(7.09383e-09 -3.48548e-06 0)
(6.88231e-09 -3.4889e-06 0)
(6.6701e-09 -3.49225e-06 0)
(6.45724e-09 -3.49554e-06 0)
(6.24377e-09 -3.49875e-06 0)
(6.02974e-09 -3.50188e-06 0)
(5.81518e-09 -3.50494e-06 0)
(5.60014e-09 -3.50792e-06 0)
(5.38466e-09 -3.51082e-06 0)
(5.16879e-09 -3.51364e-06 0)
(4.95258e-09 -3.51636e-06 0)
(4.73608e-09 -3.519e-06 0)
(4.51933e-09 -3.52155e-06 0)
(4.30239e-09 -3.524e-06 0)
(4.08531e-09 -3.52636e-06 0)
(3.86814e-09 -3.52862e-06 0)
(3.65094e-09 -3.53077e-06 0)
(3.43377e-09 -3.53283e-06 0)
(3.21667e-09 -3.53478e-06 0)
(2.99972e-09 -3.53662e-06 0)
(2.78297e-09 -3.53835e-06 0)
(2.56648e-09 -3.53997e-06 0)
(2.35031e-09 -3.54146e-06 0)
(2.13454e-09 -3.54285e-06 0)
(1.91921e-09 -3.54411e-06 0)
(1.70439e-09 -3.54525e-06 0)
(1.49016e-09 -3.54626e-06 0)
(1.27659e-09 -3.54714e-06 0)
(1.06372e-09 -3.54789e-06 0)
(8.51649e-10 -3.54852e-06 0)
(6.4043e-10 -3.549e-06 0)
(4.3014e-10 -3.54935e-06 0)
(2.20849e-10 -3.54955e-06 0)
(1.26283e-11 -3.54962e-06 0)
(-1.94448e-10 -3.54953e-06 0)
(-4.00308e-10 -3.54931e-06 0)
(-6.04876e-10 -3.54892e-06 0)
(-8.08079e-10 -3.5484e-06 0)
(-1.00984e-09 -3.54771e-06 0)
(-1.21009e-09 -3.54687e-06 0)
(-1.40874e-09 -3.54587e-06 0)
(-1.60572e-09 -3.54471e-06 0)
(-1.80096e-09 -3.54339e-06 0)
(-1.99438e-09 -3.5419e-06 0)
(-2.18589e-09 -3.54024e-06 0)
(-2.37544e-09 -3.53843e-06 0)
(-2.56292e-09 -3.53643e-06 0)
(-2.74827e-09 -3.53427e-06 0)
(-2.9314e-09 -3.53192e-06 0)
(-3.11225e-09 -3.52941e-06 0)
(-3.29073e-09 -3.52672e-06 0)
(-3.46676e-09 -3.52385e-06 0)
(-3.64026e-09 -3.52079e-06 0)
(-3.81116e-09 -3.51757e-06 0)
(-3.97938e-09 -3.51414e-06 0)
(-4.14484e-09 -3.51055e-06 0)
(-4.30745e-09 -3.50676e-06 0)
(-4.46716e-09 -3.50279e-06 0)
(-4.62387e-09 -3.49863e-06 0)
(-4.77753e-09 -3.49429e-06 0)
(-4.92804e-09 -3.48975e-06 0)
(-5.07535e-09 -3.48503e-06 0)
(-5.21937e-09 -3.48011e-06 0)
(-5.36006e-09 -3.47501e-06 0)
(-5.49731e-09 -3.46971e-06 0)
(-5.63111e-09 -3.46423e-06 0)
(-5.76136e-09 -3.45855e-06 0)
(-5.88803e-09 -3.45269e-06 0)
(-6.01103e-09 -3.44663e-06 0)
(-6.13037e-09 -3.44039e-06 0)
(-6.24594e-09 -3.43395e-06 0)
(-6.35774e-09 -3.42733e-06 0)
(-6.4657e-09 -3.42051e-06 0)
(-6.56982e-09 -3.41352e-06 0)
(-6.67002e-09 -3.40633e-06 0)
(-6.76633e-09 -3.39896e-06 0)
(-6.85865e-09 -3.3914e-06 0)
(-6.94703e-09 -3.38367e-06 0)
(-7.03139e-09 -3.37574e-06 0)
(-7.11175e-09 -3.36765e-06 0)
(-7.18805e-09 -3.35936e-06 0)
(-7.26034e-09 -3.35092e-06 0)
(-7.32851e-09 -3.34228e-06 0)
(-7.39264e-09 -3.33349e-06 0)
(-7.45261e-09 -3.32451e-06 0)
(-7.5085e-09 -3.31538e-06 0)
(-7.56018e-09 -3.30606e-06 0)
(-7.60765e-09 -3.29661e-06 0)
(-7.65095e-09 -3.28695e-06 0)
(-7.68963e-09 -3.27723e-06 0)
(-7.72702e-09 -3.26709e-06 0)
(-7.75145e-09 -3.25715e-06 0)
(-7.76451e-09 -3.24601e-06 0)
(-7.78546e-09 -3.23316e-06 0)
(-7.80717e-09 -3.22049e-06 0)
(-7.82243e-09 -3.20794e-06 0)
(-7.83239e-09 -3.19525e-06 0)
(-7.83721e-09 -3.18255e-06 0)
(-7.83686e-09 -3.16983e-06 0)
(-7.83159e-09 -3.15715e-06 0)
(-7.8215e-09 -3.14447e-06 0)
(-7.80689e-09 -3.13182e-06 0)
(-7.78785e-09 -3.11917e-06 0)
(-7.76468e-09 -3.10659e-06 0)
(-7.73746e-09 -3.09402e-06 0)
(-7.70648e-09 -3.08152e-06 0)
(-7.67181e-09 -3.06905e-06 0)
(-7.63375e-09 -3.05667e-06 0)
(-7.59233e-09 -3.04433e-06 0)
(-7.54785e-09 -3.03208e-06 0)
(-7.50032e-09 -3.01988e-06 0)
(-7.45001e-09 -3.00778e-06 0)
(-7.39693e-09 -2.99574e-06 0)
(-7.34134e-09 -2.98382e-06 0)
(-7.28322e-09 -2.97196e-06 0)
(-7.22282e-09 -2.96023e-06 0)
(-7.16011e-09 -2.94857e-06 0)
(-7.09532e-09 -2.93703e-06 0)
(-7.02842e-09 -2.92558e-06 0)
(-6.95963e-09 -2.91427e-06 0)
(-6.88889e-09 -2.90304e-06 0)
(-6.81641e-09 -2.89195e-06 0)
(-6.74216e-09 -2.88096e-06 0)
(-6.66631e-09 -2.87011e-06 0)
(-6.58882e-09 -2.85936e-06 0)
(-6.50986e-09 -2.84877e-06 0)
(-6.42939e-09 -2.83828e-06 0)
(-6.34758e-09 -2.82794e-06 0)
(-6.26437e-09 -2.81772e-06 0)
(-6.17992e-09 -2.80765e-06 0)
(-6.09418e-09 -2.7977e-06 0)
(-6.0073e-09 -2.78791e-06 0)
(-5.91922e-09 -2.77824e-06 0)
(-5.83009e-09 -2.76874e-06 0)
(-5.73985e-09 -2.75936e-06 0)
(-5.64864e-09 -2.75015e-06 0)
(-5.55639e-09 -2.74106e-06 0)
(-5.46324e-09 -2.73215e-06 0)
(-5.36912e-09 -2.72337e-06 0)
(-5.27416e-09 -2.71476e-06 0)
(-5.17829e-09 -2.70629e-06 0)
(-5.08163e-09 -2.69799e-06 0)
(-4.98412e-09 -2.68983e-06 0)
(-4.88585e-09 -2.68185e-06 0)
(-4.78679e-09 -2.674e-06 0)
(-4.68701e-09 -2.66634e-06 0)
(-4.58647e-09 -2.65882e-06 0)
(-4.48524e-09 -2.65149e-06 0)
(-4.38329e-09 -2.64429e-06 0)
(-4.28069e-09 -2.63729e-06 0)
(-4.1774e-09 -2.63043e-06 0)
(-4.07348e-09 -2.62376e-06 0)
(-3.96889e-09 -2.61723e-06 0)
(-3.86371e-09 -2.6109e-06 0)
(-3.75789e-09 -2.60472e-06 0)
(-3.6515e-09 -2.59873e-06 0)
(-3.5445e-09 -2.59289e-06 0)
(-3.43696e-09 -2.58724e-06 0)
(-3.32883e-09 -2.58176e-06 0)
(-3.22018e-09 -2.57646e-06 0)
(-3.11098e-09 -2.57132e-06 0)
(-3.00128e-09 -2.56638e-06 0)
(-2.89106e-09 -2.5616e-06 0)
(-2.78036e-09 -2.55701e-06 0)
(-2.66916e-09 -2.55259e-06 0)
(-2.55751e-09 -2.54836e-06 0)
(-2.44539e-09 -2.5443e-06 0)
(-2.33282e-09 -2.54043e-06 0)
(-2.21979e-09 -2.53673e-06 0)
(-2.10634e-09 -2.53323e-06 0)
(-1.99244e-09 -2.5299e-06 0)
(-1.87812e-09 -2.52677e-06 0)
(-1.76337e-09 -2.52381e-06 0)
(-1.6482e-09 -2.52105e-06 0)
(-1.53263e-09 -2.51846e-06 0)
(-1.4167e-09 -2.51607e-06 0)
(-1.30045e-09 -2.51386e-06 0)
(-1.18401e-09 -2.51186e-06 0)
(-1.06752e-09 -2.50998e-06 0)
(-9.51273e-10 -2.50851e-06 0)
(-8.35466e-10 -2.50648e-06 0)
(-7.20892e-10 -2.50712e-06 0)
(-6.06219e-10 -2.49953e-06 0)
(-4.96426e-10 -2.51896e-06 0)
(-3.69905e-10 -2.44288e-06 0)
(-3.00704e-10 -2.64295e-06 0)
(-1.53054e-10 -2.30799e-06 0)
)
;
    }
    bottomWall
    {
        type            calculated;
        value           nonuniform List<vector> 
449
(
(-52.8971 -0.957882 0)
(-34.8679 -0.00280958 0)
(-34.4665 -0.000258248 0)
(-33.091 -0.000367223 0)
(-31.9521 -0.000318816 0)
(-30.9043 -0.000286664 0)
(-29.9822 -0.000250384 0)
(-29.1799 -0.000218353 0)
(-28.4747 -0.000192548 0)
(-27.8475 -0.000171386 0)
(-27.2862 -0.000153176 0)
(-26.7831 -0.000137354 0)
(-26.3298 -0.000123863 0)
(-25.9188 -0.000112519 0)
(-25.5428 -0.000102994 0)
(-25.1967 -9.49401e-05 0)
(-24.8756 -8.80846e-05 0)
(-24.5761 -8.21827e-05 0)
(-24.2952 -7.70539e-05 0)
(-24.0306 -7.25402e-05 0)
(-23.7804 -6.85163e-05 0)
(-23.5432 -6.49032e-05 0)
(-23.3176 -6.16148e-05 0)
(-23.1029 -5.86153e-05 0)
(-22.8977 -5.58798e-05 0)
(-22.7016 -5.33514e-05 0)
(-22.5137 -5.10022e-05 0)
(-22.3337 -4.88302e-05 0)
(-22.1607 -4.67931e-05 0)
(-21.9946 -4.48989e-05 0)
(-21.8345 -4.31421e-05 0)
(-21.6805 -4.14918e-05 0)
(-21.5317 -3.99347e-05 0)
(-21.3884 -3.84712e-05 0)
(-21.2497 -3.70819e-05 0)
(-21.1159 -3.57969e-05 0)
(-20.9861 -3.45778e-05 0)
(-20.8607 -3.34317e-05 0)
(-20.7387 -3.23365e-05 0)
(-20.6209 -3.12992e-05 0)
(-20.5061 -3.03072e-05 0)
(-20.3951 -2.93594e-05 0)
(-20.2868 -2.8447e-05 0)
(-20.1822 -2.75817e-05 0)
(-20.0799 -2.67527e-05 0)
(-19.981 -2.59635e-05 0)
(-19.8842 -2.52113e-05 0)
(-19.7906 -2.44885e-05 0)
(-19.6988 -2.38061e-05 0)
(-19.6099 -2.31501e-05 0)
(-19.5227 -2.25286e-05 0)
(-19.4381 -2.19175e-05 0)
(-19.3552 -2.13431e-05 0)
(-19.2746 -2.0797e-05 0)
(-19.1955 -2.02732e-05 0)
(-19.1186 -1.97662e-05 0)
(-19.0431 -1.92773e-05 0)
(-18.9696 -1.88148e-05 0)
(-18.8973 -1.83697e-05 0)
(-18.8269 -1.79395e-05 0)
(-18.7576 -1.75278e-05 0)
(-18.6901 -1.71263e-05 0)
(-18.6236 -1.67442e-05 0)
(-18.5588 -1.63797e-05 0)
(-18.4949 -1.60246e-05 0)
(-18.4326 -1.56722e-05 0)
(-18.3712 -1.53333e-05 0)
(-18.3112 -1.50103e-05 0)
(-18.2521 -1.46936e-05 0)
(-18.1944 -1.43846e-05 0)
(-18.1375 -1.40906e-05 0)
(-18.0819 -1.38147e-05 0)
(-18.0269 -1.35419e-05 0)
(-17.9732 -1.32683e-05 0)
(-17.9201 -1.30099e-05 0)
(-17.8683 -1.27547e-05 0)
(-17.817 -1.25114e-05 0)
(-17.767 -1.22738e-05 0)
(-17.7174 -1.20504e-05 0)
(-17.6689 -1.1834e-05 0)
(-17.6209 -1.16174e-05 0)
(-17.5739 -1.14007e-05 0)
(-17.5274 -1.11892e-05 0)
(-17.482 -1.09876e-05 0)
(-17.4369 -1.07956e-05 0)
(-17.3929 -1.06135e-05 0)
(-17.3491 -1.04371e-05 0)
(-17.3063 -1.02478e-05 0)
(-17.264 -1.00661e-05 0)
(-17.2225 -9.89374e-06 0)
(-17.1814 -9.73076e-06 0)
(-17.141 -9.57635e-06 0)
(-17.101 -9.42237e-06 0)
(-17.0618 -9.2689e-06 0)
(-17.0229 -9.12533e-06 0)
(-16.9847 -8.97965e-06 0)
(-16.9468 -8.8327e-06 0)
(-16.9097 -8.68858e-06 0)
(-16.8729 -8.55345e-06 0)
(-16.8368 -8.42156e-06 0)
(-16.8009 -8.29839e-06 0)
(-16.7657 -8.16873e-06 0)
(-16.7308 -8.04838e-06 0)
(-16.6964 -7.93051e-06 0)
(-16.6623 -7.81773e-06 0)
(-16.6288 -7.69613e-06 0)
(-16.5956 -7.58914e-06 0)
(-16.5628 -7.46837e-06 0)
(-16.5306 -7.36161e-06 0)
(-16.4986 -7.25195e-06 0)
(-16.4671 -7.15197e-06 0)
(-16.4358 -7.05971e-06 0)
(-16.405 -6.96565e-06 0)
(-16.3744 -6.8749e-06 0)
(-16.3443 -6.78552e-06 0)
(-16.3143 -6.6954e-06 0)
(-16.2849 -6.59599e-06 0)
(-16.2557 -6.50097e-06 0)
(-16.2269 -6.41568e-06 0)
(-16.1983 -6.3333e-06 0)
(-16.1702 -6.24093e-06 0)
(-16.1423 -6.15757e-06 0)
(-16.1147 -6.07914e-06 0)
(-16.0874 -6.00354e-06 0)
(-16.0605 -5.93216e-06 0)
(-16.0337 -5.86527e-06 0)
(-16.0072 -5.79621e-06 0)
(-15.9809 -5.7249e-06 0)
(-15.9549 -5.65433e-06 0)
(-15.9291 -5.57706e-06 0)
(-15.9037 -5.50501e-06 0)
(-15.8785 -5.43014e-06 0)
(-15.8537 -5.36545e-06 0)
(-15.8289 -5.30489e-06 0)
(-15.8046 -5.24176e-06 0)
(-15.7803 -5.18365e-06 0)
(-15.7564 -5.12923e-06 0)
(-15.7325 -5.07327e-06 0)
(-15.7089 -5.01979e-06 0)
(-15.6854 -4.95981e-06 0)
(-15.6624 -4.90683e-06 0)
(-15.6393 -4.85166e-06 0)
(-15.6166 -4.79315e-06 0)
(-15.5939 -4.73282e-06 0)
(-15.5717 -4.67223e-06 0)
(-15.5495 -4.61541e-06 0)
(-15.5278 -4.55419e-06 0)
(-15.5061 -4.50568e-06 0)
(-15.4847 -4.45651e-06 0)
(-15.4633 -4.41156e-06 0)
(-15.4423 -4.35988e-06 0)
(-15.4213 -4.32086e-06 0)
(-15.4005 -4.27531e-06 0)
(-15.3799 -4.23036e-06 0)
(-15.3595 -4.19085e-06 0)
(-15.3392 -4.14811e-06 0)
(-15.319 -4.10464e-06 0)
(-15.2991 -4.05956e-06 0)
(-15.2793 -4.02018e-06 0)
(-15.2596 -3.97165e-06 0)
(-15.2402 -3.92791e-06 0)
(-15.2208 -3.8875e-06 0)
(-15.2018 -3.84333e-06 0)
(-15.1828 -3.8056e-06 0)
(-15.164 -3.7771e-06 0)
(-15.1451 -3.74202e-06 0)
(-15.1266 -3.70049e-06 0)
(-15.1081 -3.66382e-06 0)
(-15.0899 -3.62501e-06 0)
(-15.0717 -3.58507e-06 0)
(-15.0537 -3.54984e-06 0)
(-15.0358 -3.50737e-06 0)
(-15.0182 -3.4803e-06 0)
(-15.0015 -3.46386e-06 0)
(-14.9859 -3.4341e-06 0)
(-14.9701 -3.40174e-06 0)
(-14.9545 -3.36736e-06 0)
(-14.9387 -3.332e-06 0)
(-14.923 -3.30691e-06 0)
(-14.9072 -3.27374e-06 0)
(-14.8915 -3.23484e-06 0)
(-14.8757 -3.20391e-06 0)
(-14.8599 -3.16902e-06 0)
(-14.8441 -3.13506e-06 0)
(-14.8284 -3.10839e-06 0)
(-14.8125 -3.08542e-06 0)
(-14.7966 -3.05879e-06 0)
(-14.7807 -3.02366e-06 0)
(-14.7649 -2.9865e-06 0)
(-14.7489 -2.95176e-06 0)
(-14.7332 -2.92789e-06 0)
(-14.7171 -2.90099e-06 0)
(-14.7013 -2.86485e-06 0)
(-14.6854 -2.84622e-06 0)
(-14.6694 -2.82376e-06 0)
(-14.6534 -2.79656e-06 0)
(-14.6374 -2.76265e-06 0)
(-14.6214 -2.73231e-06 0)
(-14.6054 -2.70168e-06 0)
(-14.5894 -2.6723e-06 0)
(-14.5734 -2.64479e-06 0)
(-14.5574 -2.61612e-06 0)
(-14.5414 -2.58557e-06 0)
(-14.5254 -2.55886e-06 0)
(-14.5094 -2.53413e-06 0)
(-14.4934 -2.50647e-06 0)
(-14.4775 -2.48431e-06 0)
(-14.4614 -2.46874e-06 0)
(-14.4452 -2.44828e-06 0)
(-14.4291 -2.42737e-06 0)
(-14.4129 -2.40436e-06 0)
(-14.3967 -2.38447e-06 0)
(-14.3804 -2.35806e-06 0)
(-14.3642 -2.32573e-06 0)
(-14.348 -2.29723e-06 0)
(-14.3319 -2.27294e-06 0)
(-14.3157 -2.2469e-06 0)
(-14.2996 -2.22008e-06 0)
(-14.2834 -2.18883e-06 0)
(-14.2675 -2.16024e-06 0)
(-14.2514 -2.13749e-06 0)
(-14.2354 -2.11099e-06 0)
(-14.2193 -2.09134e-06 0)
(-14.2033 -2.06716e-06 0)
(-14.1873 -2.04702e-06 0)
(-14.1712 -2.02672e-06 0)
(-14.1552 -1.9952e-06 0)
(-14.1393 -1.97631e-06 0)
(-14.1232 -1.95425e-06 0)
(-14.1073 -1.92419e-06 0)
(-14.0914 -1.90592e-06 0)
(-14.0754 -1.87711e-06 0)
(-14.0596 -1.85481e-06 0)
(-14.0437 -1.8378e-06 0)
(-14.0279 -1.8183e-06 0)
(-14.012 -1.80043e-06 0)
(-13.9961 -1.78353e-06 0)
(-13.9801 -1.77209e-06 0)
(-13.9641 -1.75367e-06 0)
(-13.9482 -1.73126e-06 0)
(-13.9322 -1.71134e-06 0)
(-13.9163 -1.68795e-06 0)
(-13.9004 -1.66307e-06 0)
(-13.8846 -1.64325e-06 0)
(-13.8688 -1.62504e-06 0)
(-13.853 -1.60167e-06 0)
(-13.8373 -1.58377e-06 0)
(-13.8215 -1.57061e-06 0)
(-13.8058 -1.55012e-06 0)
(-13.79 -1.53066e-06 0)
(-13.7743 -1.50876e-06 0)
(-13.7587 -1.48995e-06 0)
(-13.7431 -1.47486e-06 0)
(-13.7274 -1.45731e-06 0)
(-13.7118 -1.43734e-06 0)
(-13.6963 -1.41826e-06 0)
(-13.6808 -1.40553e-06 0)
(-13.6652 -1.39029e-06 0)
(-13.6496 -1.37134e-06 0)
(-13.6341 -1.35783e-06 0)
(-13.6186 -1.3405e-06 0)
(-13.6031 -1.32259e-06 0)
(-13.5877 -1.30628e-06 0)
(-13.5723 -1.29315e-06 0)
(-13.5568 -1.27962e-06 0)
(-13.5414 -1.26323e-06 0)
(-13.5259 -1.25032e-06 0)
(-13.5105 -1.23103e-06 0)
(-13.4952 -1.21312e-06 0)
(-13.4799 -1.19978e-06 0)
(-13.4646 -1.19102e-06 0)
(-13.4492 -1.18058e-06 0)
(-13.4339 -1.16637e-06 0)
(-13.4185 -1.14565e-06 0)
(-13.4034 -1.13295e-06 0)
(-13.388 -1.12309e-06 0)
(-13.3729 -1.10812e-06 0)
(-13.3576 -1.09727e-06 0)
(-13.3424 -1.08543e-06 0)
(-13.3271 -1.07072e-06 0)
(-13.312 -1.05461e-06 0)
(-13.2968 -1.03782e-06 0)
(-13.2819 -1.02772e-06 0)
(-13.2667 -1.01433e-06 0)
(-13.2518 -1.00047e-06 0)
(-13.2367 -9.86211e-07 0)
(-13.2219 -9.78112e-07 0)
(-13.2067 -9.7321e-07 0)
(-13.1918 -9.60612e-07 0)
(-13.1767 -9.47481e-07 0)
(-13.1618 -9.30159e-07 0)
(-13.1469 -9.17333e-07 0)
(-13.1321 -9.07734e-07 0)
(-13.1172 -8.94175e-07 0)
(-13.1026 -8.82354e-07 0)
(-13.0878 -8.74904e-07 0)
(-13.0731 -8.60479e-07 0)
(-13.0584 -8.49434e-07 0)
(-13.0438 -8.38773e-07 0)
(-13.0292 -8.23635e-07 0)
(-13.0147 -8.14801e-07 0)
(-13.0002 -7.98897e-07 0)
(-12.986 -7.83769e-07 0)
(-12.9716 -7.76139e-07 0)
(-12.9574 -7.73616e-07 0)
(-12.9428 -7.71658e-07 0)
(-12.9284 -7.58125e-07 0)
(-12.914 -7.44983e-07 0)
(-12.8998 -7.33679e-07 0)
(-12.8855 -7.21376e-07 0)
(-12.8714 -7.12334e-07 0)
(-12.8572 -7.02395e-07 0)
(-12.8433 -6.9118e-07 0)
(-12.8292 -6.86907e-07 0)
(-12.8151 -6.82577e-07 0)
(-12.8009 -6.7396e-07 0)
(-12.7868 -6.62722e-07 0)
(-12.7728 -6.53784e-07 0)
(-12.7589 -6.45609e-07 0)
(-12.7449 -6.36893e-07 0)
(-12.731 -6.2542e-07 0)
(-12.7172 -6.15915e-07 0)
(-12.7035 -6.10136e-07 0)
(-12.6897 -6.02646e-07 0)
(-12.6759 -5.92809e-07 0)
(-12.6623 -5.82472e-07 0)
(-12.6487 -5.7424e-07 0)
(-12.6352 -5.6769e-07 0)
(-12.6217 -5.61824e-07 0)
(-12.6081 -5.53361e-07 0)
(-12.5947 -5.44683e-07 0)
(-12.5813 -5.42543e-07 0)
(-12.5677 -5.34052e-07 0)
(-12.5544 -5.22984e-07 0)
(-12.541 -5.15202e-07 0)
(-12.5279 -5.13517e-07 0)
(-12.5143 -5.10063e-07 0)
(-12.501 -5.01048e-07 0)
(-12.4877 -4.94532e-07 0)
(-12.4745 -4.87539e-07 0)
(-12.4612 -4.78708e-07 0)
(-12.4482 -4.72563e-07 0)
(-12.435 -4.68017e-07 0)
(-12.4219 -4.61393e-07 0)
(-12.4088 -4.55749e-07 0)
(-12.3958 -4.48013e-07 0)
(-12.3829 -4.39077e-07 0)
(-12.3701 -4.32708e-07 0)
(-12.3572 -4.26526e-07 0)
(-12.3446 -4.18627e-07 0)
(-12.3319 -4.13661e-07 0)
(-12.3193 -4.08225e-07 0)
(-12.3067 -4.03275e-07 0)
(-12.2941 -3.96451e-07 0)
(-12.2802 -3.8693e-07 0)
(-12.2653 -3.80351e-07 0)
(-12.2505 -3.74873e-07 0)
(-12.236 -3.68435e-07 0)
(-12.2217 -3.63214e-07 0)
(-12.2076 -3.57867e-07 0)
(-12.1938 -3.5312e-07 0)
(-12.18 -3.49916e-07 0)
(-12.1664 -3.43868e-07 0)
(-12.1532 -3.37971e-07 0)
(-12.14 -3.34837e-07 0)
(-12.127 -3.31774e-07 0)
(-12.1141 -3.27729e-07 0)
(-12.1014 -3.2336e-07 0)
(-12.0888 -3.18957e-07 0)
(-12.0765 -3.12039e-07 0)
(-12.0644 -3.08872e-07 0)
(-12.0523 -3.04863e-07 0)
(-12.0406 -3.01163e-07 0)
(-12.0288 -2.97823e-07 0)
(-12.0173 -2.90656e-07 0)
(-12.0061 -2.84187e-07 0)
(-11.9951 -2.81748e-07 0)
(-11.9841 -2.80678e-07 0)
(-11.9732 -2.77775e-07 0)
(-11.9624 -2.74464e-07 0)
(-11.9518 -2.66939e-07 0)
(-11.9415 -2.65458e-07 0)
(-11.931 -2.62005e-07 0)
(-11.921 -2.56075e-07 0)
(-11.911 -2.56973e-07 0)
(-11.901 -2.59829e-07 0)
(-11.8907 -2.57355e-07 0)
(-11.8809 -2.51885e-07 0)
(-11.871 -2.46062e-07 0)
(-11.8616 -2.40253e-07 0)
(-11.8523 -2.35924e-07 0)
(-11.8432 -2.31614e-07 0)
(-11.8342 -2.29677e-07 0)
(-11.8253 -2.26939e-07 0)
(-11.8165 -2.23807e-07 0)
(-11.8078 -2.20816e-07 0)
(-11.7992 -2.17166e-07 0)
(-11.7908 -2.15617e-07 0)
(-11.7824 -2.13946e-07 0)
(-11.7741 -2.11275e-07 0)
(-11.7659 -2.10668e-07 0)
(-11.7577 -2.08236e-07 0)
(-11.7496 -2.06401e-07 0)
(-11.7416 -2.05287e-07 0)
(-11.7336 -2.05103e-07 0)
(-11.7255 -2.01696e-07 0)
(-11.7178 -1.98323e-07 0)
(-11.71 -1.97132e-07 0)
(-11.7024 -1.9283e-07 0)
(-11.695 -1.90767e-07 0)
(-11.6875 -1.88645e-07 0)
(-11.6803 -1.86323e-07 0)
(-11.673 -1.85983e-07 0)
(-11.6657 -1.85109e-07 0)
(-11.6585 -1.83528e-07 0)
(-11.6514 -1.81587e-07 0)
(-11.6443 -1.79647e-07 0)
(-11.6374 -1.77021e-07 0)
(-11.6305 -1.7391e-07 0)
(-11.6238 -1.70884e-07 0)
(-11.6172 -1.71603e-07 0)
(-11.6104 -1.70836e-07 0)
(-11.6038 -1.65064e-07 0)
(-11.5975 -1.64083e-07 0)
(-11.591 -1.6593e-07 0)
(-11.5845 -1.65264e-07 0)
(-11.5781 -1.6397e-07 0)
(-11.5717 -1.6102e-07 0)
(-11.5656 -1.58456e-07 0)
(-11.5594 -1.56567e-07 0)
(-11.5533 -1.52999e-07 0)
(-11.5474 -1.50805e-07 0)
(-11.5416 -1.4856e-07 0)
(-11.5358 -1.46162e-07 0)
(-11.5302 -1.47169e-07 0)
(-11.5244 -1.45947e-07 0)
(-11.5188 -1.46189e-07 0)
(-11.5129 -1.4285e-07 0)
(-11.5076 -1.42701e-07 0)
(-11.5018 -1.41817e-07 0)
(-11.4965 -1.42171e-07 0)
(-11.4907 -1.42787e-07 0)
(-11.4854 -1.39091e-07 0)
(-11.4798 -1.4953e-07 0)
(-11.4737 -1.3147e-07 0)
(-11.4696 -1.63468e-07 0)
(-11.4608 -1.13893e-07 0)
(-11.4608 -1.46355e-07 0)
(-11.4492 -1.51785e-07 0)
)
;
    }
    symmetry
    {
        type            symmetryPlane;
    }
    frontAndBack
    {
        type            empty;
    }
}


// ************************************************************************* //
