/*--------------------------------*- C++ -*----------------------------------*\
| =========                 |                                                 |
| \\      /  F ield         | OpenFOAM: The Open Source CFD Toolbox           |
|  \\    /   O peration     | Version:  v2012                                 |
|   \\  /    A nd           | Website:  www.openfoam.com                      |
|    \\/     M anipulation  |                                                 |
\*---------------------------------------------------------------------------*/
FoamFile
{
    version     2.0;
    format      ascii;
    class       volScalarField;
    location    "5.5";
    object      yPlus;
}
// * * * * * * * * * * * * * * * * * * * * * * * * * * * * * * * * * * * * * //

dimensions      [0 0 0 0 0 0 0];


internalField   uniform 0;

boundaryField
{
    inlet
    {
        type            calculated;
        value           uniform 0;
    }
    outlet
    {
        type            calculated;
        value           uniform 0;
    }
    topWall
    {
        type            calculated;
        value           nonuniform List<scalar> 
545
(
0.045154
0.0778592
0.0998821
0.117402
0.132226
0.145188
0.156757
0.167228
0.1768
0.18562
0.193795
0.201409
0.208529
0.215208
0.221493
0.22742
0.233021
0.238325
0.243354
0.248131
0.252673
0.256998
0.261119
0.265051
0.268806
0.272393
0.275824
0.279108
0.282252
0.285265
0.288154
0.290925
0.293584
0.296138
0.298591
0.300949
0.303215
0.305396
0.307493
0.309513
0.311457
0.313329
0.315133
0.316872
0.318548
0.320164
0.321723
0.323227
0.324679
0.32608
0.327432
0.328739
0.330001
0.33122
0.332398
0.333536
0.334637
0.335701
0.33673
0.337726
0.338689
0.339621
0.340522
0.341395
0.34224
0.343058
0.34385
0.344617
0.34536
0.346079
0.346776
0.347452
0.348098
0.348723
0.349342
0.349955
0.350563
0.351165
0.351763
0.352354
0.352941
0.353522
0.354098
0.35467
0.355236
0.355797
0.356353
0.356904
0.357451
0.357992
0.358529
0.359061
0.359589
0.360112
0.360631
0.361145
0.361607
0.362021
0.362434
0.362847
0.363259
0.363671
0.364082
0.364493
0.364904
0.365314
0.365723
0.366133
0.366541
0.36695
0.367357
0.367765
0.368172
0.368578
0.368984
0.36939
0.369795
0.370199
0.370603
0.371007
0.37141
0.371812
0.372214
0.372616
0.373017
0.373417
0.373817
0.374216
0.374615
0.375013
0.375411
0.375808
0.376205
0.3766
0.376996
0.377391
0.377785
0.378179
0.378572
0.378964
0.379356
0.379747
0.380138
0.380528
0.380917
0.381306
0.381694
0.382082
0.382468
0.382855
0.38324
0.383625
0.384009
0.384393
0.384775
0.385157
0.385539
0.38592
0.3863
0.386679
0.387058
0.387436
0.387813
0.388189
0.388565
0.38894
0.389314
0.389688
0.39006
0.390432
0.390803
0.391174
0.391543
0.391912
0.39228
0.392647
0.393014
0.393379
0.393744
0.394108
0.394471
0.394834
0.395195
0.395556
0.395915
0.396274
0.396632
0.39699
0.397346
0.397701
0.398056
0.398409
0.398762
0.399114
0.399465
0.399815
0.400164
0.400512
0.400859
0.401205
0.40155
0.401895
0.402238
0.40258
0.402922
0.403262
0.403601
0.40394
0.404277
0.404614
0.404949
0.405283
0.405616
0.405949
0.40628
0.40661
0.406939
0.407267
0.407594
0.40792
0.408245
0.408569
0.408891
0.409213
0.409533
0.409852
0.41017
0.410488
0.410803
0.411118
0.411432
0.411744
0.412055
0.412365
0.412674
0.412982
0.413289
0.413594
0.413898
0.414201
0.414503
0.414803
0.415102
0.4154
0.415697
0.415993
0.416287
0.41658
0.416872
0.417162
0.417451
0.417739
0.418026
0.418311
0.418595
0.418877
0.419159
0.419438
0.419717
0.419994
0.42027
0.420545
0.420818
0.42109
0.42136
0.421629
0.421897
0.422163
0.422428
0.422676
0.42291
0.423145
0.423381
0.423617
0.423855
0.424093
0.424332
0.424571
0.424812
0.425053
0.425294
0.425537
0.42578
0.426023
0.426267
0.426512
0.426757
0.427003
0.427248
0.427495
0.427741
0.427988
0.428235
0.428483
0.42873
0.428978
0.429226
0.429473
0.429721
0.429969
0.430216
0.430464
0.430711
0.430958
0.431204
0.431451
0.431696
0.431942
0.432186
0.43243
0.432674
0.432916
0.433158
0.433399
0.433639
0.433878
0.434116
0.434353
0.434588
0.434822
0.435055
0.435286
0.435516
0.435744
0.435971
0.436195
0.436418
0.436639
0.436857
0.437074
0.437288
0.4375
0.437709
0.437916
0.43812
0.438322
0.43852
0.438716
0.438909
0.439098
0.439284
0.439467
0.439646
0.439822
0.439994
0.440162
0.440326
0.440486
0.440641
0.440793
0.44094
0.441082
0.441219
0.441352
0.44148
0.441602
0.44172
0.441832
0.441938
0.442039
0.442134
0.442223
0.442306
0.442383
0.442453
0.442517
0.442574
0.442625
0.442668
0.442705
0.442734
0.442756
0.44277
0.442777
0.442775
0.442766
0.442749
0.442723
0.442689
0.442647
0.442596
0.442536
0.442467
0.442388
0.442301
0.442204
0.442098
0.441981
0.441855
0.441719
0.441573
0.441417
0.44125
0.441073
0.440885
0.440686
0.440477
0.440256
0.440024
0.439781
0.439527
0.439261
0.438984
0.438695
0.438394
0.438081
0.437756
0.43742
0.437071
0.43671
0.436336
0.435951
0.435553
0.435142
0.434719
0.434283
0.433835
0.433374
0.432901
0.432415
0.431916
0.431404
0.43088
0.430343
0.429793
0.42923
0.428655
0.428067
0.427467
0.426854
0.426229
0.425591
0.424941
0.424278
0.423603
0.422916
0.422217
0.421506
0.420784
0.420049
0.419303
0.418546
0.417778
0.416998
0.416207
0.415406
0.414594
0.413771
0.412939
0.412096
0.411148
0.410099
0.40905
0.408002
0.406956
0.405911
0.404868
0.403829
0.402792
0.40176
0.400731
0.399707
0.398688
0.397674
0.396666
0.395664
0.394668
0.393679
0.392697
0.391722
0.390754
0.389794
0.388842
0.387898
0.386962
0.386035
0.385117
0.384208
0.383308
0.382417
0.381536
0.380665
0.379804
0.378952
0.378111
0.377281
0.376461
0.375651
0.374852
0.374065
0.373288
0.372523
0.371769
0.371026
0.370295
0.369576
0.368869
0.368173
0.36749
0.366819
0.366161
0.365514
0.364881
0.36426
0.363652
0.363057
0.362474
0.361905
0.36135
0.360807
0.360279
0.359763
0.359262
0.358774
0.3583
0.35784
0.357395
0.356964
0.356546
0.356144
0.355756
0.355382
0.355024
0.35468
0.354351
0.354037
0.353738
0.353454
0.353186
0.352932
0.352695
0.352472
0.352265
0.352074
0.351898
0.351738
0.351594
0.351466
0.351353
0.351256
0.351175
0.35111
0.35106
0.351029
0.351003
)
;
    }
    bottomWall
    {
        type            calculated;
        value           nonuniform List<scalar> 
449
(
4.58185
3.01384
2.53621
2.321
2.18431
2.08431
2.00231
1.93341
1.87497
1.82441
1.77984
1.74007
1.70427
1.67177
1.64207
1.61476
1.58951
1.56605
1.54416
1.52368
1.50443
1.48629
1.46915
1.45292
1.4375
1.42284
1.40885
1.3955
1.38272
1.37048
1.35873
1.34744
1.33658
1.32612
1.31603
1.30629
1.29688
1.28777
1.27895
1.27041
1.26213
1.25409
1.24628
1.23869
1.2313
1.22412
1.21712
1.21031
1.20366
1.19718
1.19085
1.18467
1.17864
1.17274
1.16697
1.16133
1.15581
1.15041
1.14511
1.13993
1.13485
1.12986
1.12498
1.12018
1.11548
1.11086
1.10632
1.10187
1.09749
1.09319
1.08896
1.08481
1.08072
1.0767
1.07274
1.06884
1.06501
1.06123
1.05752
1.05385
1.05025
1.04669
1.04319
1.03973
1.03632
1.03297
1.02965
1.02638
1.02316
1.01998
1.01684
1.01374
1.01068
1.00765
1.00467
1.00172
0.998811
0.995935
0.993093
0.990284
0.987508
0.984764
0.982052
0.97937
0.976719
0.974096
0.971503
0.968937
0.966399
0.963889
0.961404
0.958946
0.956513
0.954105
0.951721
0.949362
0.947025
0.944712
0.942422
0.940154
0.937907
0.935682
0.933478
0.931294
0.929131
0.926988
0.924864
0.922759
0.920674
0.918606
0.916557
0.914526
0.912513
0.910516
0.908537
0.906575
0.904629
0.902699
0.900785
0.898887
0.897004
0.895137
0.893284
0.891446
0.889623
0.887814
0.886019
0.884237
0.88247
0.880716
0.878975
0.877247
0.875532
0.873829
0.872139
0.870462
0.868796
0.867143
0.865501
0.863871
0.862252
0.860644
0.859048
0.857463
0.855888
0.854325
0.852771
0.851229
0.849696
0.848174
0.846661
0.845158
0.843666
0.842268
0.840952
0.83963
0.838306
0.836978
0.835646
0.834311
0.832972
0.831629
0.830283
0.828933
0.82758
0.826223
0.824862
0.823498
0.822131
0.82076
0.819386
0.818009
0.816628
0.815244
0.813857
0.812467
0.811073
0.809677
0.808277
0.806875
0.805469
0.804061
0.80265
0.801236
0.799819
0.7984
0.796977
0.795552
0.794125
0.792695
0.791262
0.789827
0.788389
0.786949
0.785507
0.784062
0.782615
0.781166
0.779715
0.778261
0.776805
0.775348
0.773888
0.772426
0.770962
0.769497
0.768029
0.76656
0.765089
0.763616
0.762142
0.760666
0.759188
0.757709
0.756228
0.754745
0.753262
0.751777
0.75029
0.748802
0.747313
0.745823
0.744331
0.742839
0.741345
0.73985
0.738354
0.736857
0.73536
0.733861
0.732361
0.730861
0.72936
0.727858
0.726355
0.724852
0.723348
0.721844
0.720338
0.718833
0.717327
0.71582
0.714313
0.712806
0.711299
0.709791
0.708283
0.706774
0.705266
0.703757
0.702248
0.70074
0.699231
0.697722
0.696213
0.694705
0.693196
0.691687
0.690179
0.688671
0.687163
0.685656
0.684149
0.682642
0.681135
0.679629
0.678124
0.676618
0.675114
0.67361
0.672106
0.670603
0.669101
0.667599
0.666099
0.664598
0.663099
0.6616
0.660103
0.658606
0.65711
0.655614
0.65412
0.652627
0.651135
0.649643
0.648153
0.646664
0.645176
0.643689
0.642203
0.640719
0.639235
0.637753
0.636272
0.634792
0.633314
0.631837
0.630361
0.628887
0.627414
0.625943
0.624473
0.623004
0.621537
0.620072
0.618608
0.617145
0.615685
0.614225
0.612768
0.611312
0.609858
0.608405
0.606954
0.605505
0.604058
0.602612
0.601168
0.599727
0.598286
0.596848
0.595412
0.593977
0.592545
0.591114
0.589686
0.588259
0.586835
0.585412
0.583992
0.582574
0.581158
0.579742
0.578171
0.576461
0.574778
0.573117
0.57148
0.569866
0.568275
0.566706
0.565159
0.563634
0.562129
0.560644
0.55918
0.557734
0.556308
0.5549
0.553511
0.552139
0.550784
0.549447
0.548126
0.546821
0.545533
0.54426
0.543003
0.54176
0.540532
0.539319
0.53812
0.536935
0.535764
0.534606
0.533461
0.532329
0.53121
0.530103
0.529009
0.527926
0.526856
0.525797
0.524749
0.523713
0.522688
0.521674
0.52067
0.519677
0.518694
0.517721
0.516759
0.515806
0.514863
0.51393
0.513006
0.512091
0.511185
0.510289
0.509401
0.508522
0.507651
0.506789
0.505935
0.50509
0.504252
0.503423
0.502601
0.501787
0.500981
0.500182
0.499391
0.498607
0.49783
0.49706
0.496297
0.495541
0.494792
0.494049
0.493313
0.492583
0.491859
0.491142
0.49043
0.489725
0.489025
0.48833
0.48764
0.486956
0.486275
0.4856
0.484926
0.484248
0.483593
0.482956
0.481847
0.482494
0.480592
)
;
    }
    symmetry
    {
        type            symmetryPlane;
    }
    frontAndBack
    {
        type            empty;
    }
}


// ************************************************************************* //
