/*--------------------------------*- C++ -*----------------------------------*\
| =========                 |                                                 |
| \\      /  F ield         | OpenFOAM: The Open Source CFD Toolbox           |
|  \\    /   O peration     | Version:  v2012                                 |
|   \\  /    A nd           | Website:  www.openfoam.com                      |
|    \\/     M anipulation  |                                                 |
\*---------------------------------------------------------------------------*/
FoamFile
{
    version     2.0;
    format      ascii;
    class       volScalarField;
    location    "47.5";
    object      nut;
}
// * * * * * * * * * * * * * * * * * * * * * * * * * * * * * * * * * * * * * //

dimensions      [0 2 -1 0 0 0 0];


internalField   nonuniform List<scalar> 
209825
(
1.23956e-07
1.23126e-07
1.22264e-07
1.21218e-07
1.20057e-07
1.18859e-07
1.1773e-07
1.16687e-07
1.1577e-07
1.14949e-07
1.14243e-07
1.13612e-07
1.13073e-07
1.12587e-07
1.12172e-07
1.11793e-07
1.11471e-07
1.11172e-07
1.10917e-07
1.10678e-07
1.10475e-07
1.10282e-07
1.10118e-07
1.0996e-07
1.09826e-07
1.09696e-07
1.09585e-07
1.09476e-07
1.09384e-07
1.09292e-07
1.09215e-07
1.09137e-07
1.09071e-07
1.09005e-07
1.08949e-07
1.08893e-07
1.08844e-07
1.08795e-07
1.08753e-07
1.08711e-07
1.08673e-07
1.08636e-07
1.08604e-07
1.08572e-07
1.08543e-07
1.08516e-07
1.0849e-07
1.08467e-07
1.08443e-07
1.08423e-07
1.08401e-07
1.08382e-07
1.0836e-07
1.08347e-07
1.08326e-07
1.08315e-07
1.08296e-07
1.08287e-07
1.08271e-07
1.08262e-07
1.08245e-07
1.08235e-07
1.08222e-07
1.08211e-07
1.08198e-07
1.0819e-07
1.08178e-07
1.08168e-07
1.08156e-07
1.08146e-07
1.08135e-07
1.08128e-07
1.0812e-07
1.08115e-07
1.08108e-07
1.08103e-07
1.08097e-07
1.08092e-07
1.08086e-07
1.08082e-07
1.08076e-07
1.08073e-07
1.08068e-07
1.08064e-07
1.08058e-07
1.08052e-07
1.08043e-07
1.08038e-07
1.08037e-07
1.0803e-07
1.0803e-07
1.08022e-07
1.08045e-07
1.09082e-07
1.11875e-07
1.07673e-08
1.23956e-07
1.23126e-07
1.22264e-07
1.21218e-07
1.20057e-07
1.18859e-07
1.1773e-07
1.16687e-07
1.1577e-07
1.14949e-07
1.14244e-07
1.13613e-07
1.13074e-07
1.12587e-07
1.12173e-07
1.11794e-07
1.11471e-07
1.11172e-07
1.10918e-07
1.10679e-07
1.10476e-07
1.10282e-07
1.10118e-07
1.09961e-07
1.09827e-07
1.09696e-07
1.09585e-07
1.09477e-07
1.09385e-07
1.09293e-07
1.09215e-07
1.09138e-07
1.09072e-07
1.09006e-07
1.08949e-07
1.08893e-07
1.08844e-07
1.08795e-07
1.08753e-07
1.08711e-07
1.08673e-07
1.08637e-07
1.08605e-07
1.08573e-07
1.08544e-07
1.08516e-07
1.08491e-07
1.08467e-07
1.08444e-07
1.08423e-07
1.08401e-07
1.08382e-07
1.0836e-07
1.08347e-07
1.08326e-07
1.08315e-07
1.08296e-07
1.08287e-07
1.08271e-07
1.08262e-07
1.08246e-07
1.08235e-07
1.08223e-07
1.08211e-07
1.08198e-07
1.0819e-07
1.08178e-07
1.08169e-07
1.08156e-07
1.08146e-07
1.08136e-07
1.08128e-07
1.0812e-07
1.08115e-07
1.08108e-07
1.08104e-07
1.08097e-07
1.08093e-07
1.08086e-07
1.08082e-07
1.08076e-07
1.08073e-07
1.08069e-07
1.08065e-07
1.08059e-07
1.08052e-07
1.08043e-07
1.08038e-07
1.08038e-07
1.08031e-07
1.0803e-07
1.08023e-07
1.08045e-07
1.09085e-07
1.11876e-07
1.10969e-08
1.23956e-07
1.23126e-07
1.22264e-07
1.21218e-07
1.20057e-07
1.18859e-07
1.17731e-07
1.16688e-07
1.15771e-07
1.1495e-07
1.14244e-07
1.13613e-07
1.13074e-07
1.12588e-07
1.12173e-07
1.11794e-07
1.11471e-07
1.11172e-07
1.10918e-07
1.10679e-07
1.10476e-07
1.10282e-07
1.10118e-07
1.0996e-07
1.09826e-07
1.09696e-07
1.09585e-07
1.09476e-07
1.09384e-07
1.09292e-07
1.09215e-07
1.09137e-07
1.09071e-07
1.09005e-07
1.08949e-07
1.08892e-07
1.08844e-07
1.08795e-07
1.08752e-07
1.0871e-07
1.08673e-07
1.08636e-07
1.08604e-07
1.08572e-07
1.08543e-07
1.08515e-07
1.0849e-07
1.08467e-07
1.08443e-07
1.08423e-07
1.084e-07
1.08381e-07
1.08359e-07
1.08346e-07
1.08325e-07
1.08315e-07
1.08296e-07
1.08286e-07
1.0827e-07
1.08261e-07
1.08245e-07
1.08234e-07
1.08222e-07
1.0821e-07
1.08197e-07
1.08189e-07
1.08177e-07
1.08168e-07
1.08155e-07
1.08145e-07
1.08135e-07
1.08127e-07
1.08119e-07
1.08114e-07
1.08107e-07
1.08103e-07
1.08096e-07
1.08092e-07
1.08085e-07
1.08081e-07
1.08075e-07
1.08072e-07
1.08068e-07
1.08064e-07
1.08058e-07
1.08051e-07
1.08042e-07
1.08037e-07
1.08037e-07
1.0803e-07
1.08029e-07
1.08022e-07
1.08044e-07
1.09088e-07
1.11876e-07
1.15062e-08
1.23956e-07
1.23126e-07
1.22264e-07
1.21219e-07
1.20058e-07
1.18861e-07
1.17733e-07
1.16689e-07
1.15772e-07
1.14951e-07
1.14246e-07
1.13614e-07
1.13075e-07
1.12588e-07
1.12174e-07
1.11795e-07
1.11472e-07
1.11173e-07
1.10918e-07
1.10679e-07
1.10476e-07
1.10282e-07
1.10118e-07
1.0996e-07
1.09826e-07
1.09695e-07
1.09584e-07
1.09476e-07
1.09384e-07
1.09292e-07
1.09214e-07
1.09137e-07
1.0907e-07
1.09004e-07
1.08948e-07
1.08892e-07
1.08843e-07
1.08794e-07
1.08751e-07
1.08709e-07
1.08672e-07
1.08635e-07
1.08603e-07
1.08571e-07
1.08542e-07
1.08514e-07
1.08489e-07
1.08466e-07
1.08442e-07
1.08422e-07
1.08399e-07
1.0838e-07
1.08358e-07
1.08345e-07
1.08324e-07
1.08313e-07
1.08294e-07
1.08285e-07
1.08269e-07
1.0826e-07
1.08244e-07
1.08233e-07
1.08221e-07
1.08209e-07
1.08196e-07
1.08188e-07
1.08176e-07
1.08166e-07
1.08154e-07
1.08144e-07
1.08134e-07
1.08126e-07
1.08118e-07
1.08113e-07
1.08106e-07
1.08101e-07
1.08095e-07
1.0809e-07
1.08084e-07
1.0808e-07
1.08074e-07
1.08071e-07
1.08066e-07
1.08062e-07
1.08056e-07
1.0805e-07
1.08041e-07
1.08036e-07
1.08035e-07
1.08028e-07
1.08028e-07
1.0802e-07
1.08043e-07
1.09093e-07
1.11877e-07
1.19615e-08
1.23956e-07
1.23126e-07
1.22264e-07
1.2122e-07
1.2006e-07
1.18863e-07
1.17735e-07
1.16691e-07
1.15775e-07
1.14953e-07
1.14247e-07
1.13616e-07
1.13077e-07
1.1259e-07
1.12175e-07
1.11796e-07
1.11473e-07
1.11173e-07
1.10919e-07
1.10679e-07
1.10476e-07
1.10282e-07
1.10118e-07
1.0996e-07
1.09826e-07
1.09695e-07
1.09584e-07
1.09475e-07
1.09383e-07
1.09291e-07
1.09214e-07
1.09136e-07
1.0907e-07
1.09004e-07
1.08947e-07
1.08891e-07
1.08842e-07
1.08793e-07
1.0875e-07
1.08708e-07
1.08671e-07
1.08634e-07
1.08602e-07
1.0857e-07
1.08541e-07
1.08513e-07
1.08488e-07
1.08464e-07
1.08441e-07
1.0842e-07
1.08398e-07
1.08379e-07
1.08357e-07
1.08344e-07
1.08323e-07
1.08312e-07
1.08293e-07
1.08284e-07
1.08268e-07
1.08258e-07
1.08242e-07
1.08232e-07
1.08219e-07
1.08208e-07
1.08195e-07
1.08186e-07
1.08175e-07
1.08165e-07
1.08152e-07
1.08143e-07
1.08132e-07
1.08125e-07
1.08117e-07
1.08111e-07
1.08104e-07
1.081e-07
1.08093e-07
1.08089e-07
1.08082e-07
1.08078e-07
1.08073e-07
1.08069e-07
1.08065e-07
1.08061e-07
1.08055e-07
1.08048e-07
1.0804e-07
1.08034e-07
1.08034e-07
1.08027e-07
1.08026e-07
1.08019e-07
1.08042e-07
1.091e-07
1.11878e-07
1.24555e-08
1.23956e-07
1.23126e-07
1.22264e-07
1.21221e-07
1.20062e-07
1.18865e-07
1.17738e-07
1.16694e-07
1.15778e-07
1.14956e-07
1.1425e-07
1.13618e-07
1.13079e-07
1.12592e-07
1.12177e-07
1.11797e-07
1.11474e-07
1.11174e-07
1.1092e-07
1.1068e-07
1.10477e-07
1.10283e-07
1.10119e-07
1.0996e-07
1.09826e-07
1.09695e-07
1.09584e-07
1.09475e-07
1.09383e-07
1.09291e-07
1.09213e-07
1.09135e-07
1.09069e-07
1.09003e-07
1.08947e-07
1.0889e-07
1.08841e-07
1.08792e-07
1.08749e-07
1.08707e-07
1.0867e-07
1.08633e-07
1.08601e-07
1.08569e-07
1.0854e-07
1.08512e-07
1.08486e-07
1.08463e-07
1.08439e-07
1.08419e-07
1.08397e-07
1.08378e-07
1.08355e-07
1.08343e-07
1.08322e-07
1.08311e-07
1.08292e-07
1.08282e-07
1.08266e-07
1.08257e-07
1.08241e-07
1.0823e-07
1.08218e-07
1.08206e-07
1.08193e-07
1.08185e-07
1.08173e-07
1.08163e-07
1.08151e-07
1.08141e-07
1.08131e-07
1.08123e-07
1.08115e-07
1.08109e-07
1.08103e-07
1.08098e-07
1.08092e-07
1.08087e-07
1.08081e-07
1.08076e-07
1.08071e-07
1.08067e-07
1.08063e-07
1.08059e-07
1.08053e-07
1.08047e-07
1.08038e-07
1.08032e-07
1.08032e-07
1.08025e-07
1.08024e-07
1.08017e-07
1.0804e-07
1.0911e-07
1.1188e-07
1.2987e-08
1.23956e-07
1.23125e-07
1.22264e-07
1.21222e-07
1.20064e-07
1.18868e-07
1.17741e-07
1.16698e-07
1.15781e-07
1.1496e-07
1.14254e-07
1.13622e-07
1.13082e-07
1.12594e-07
1.12179e-07
1.11799e-07
1.11476e-07
1.11176e-07
1.10921e-07
1.10681e-07
1.10478e-07
1.10284e-07
1.10119e-07
1.09961e-07
1.09826e-07
1.09695e-07
1.09584e-07
1.09475e-07
1.09383e-07
1.0929e-07
1.09213e-07
1.09135e-07
1.09069e-07
1.09002e-07
1.08946e-07
1.08889e-07
1.0884e-07
1.08791e-07
1.08748e-07
1.08706e-07
1.08669e-07
1.08632e-07
1.086e-07
1.08568e-07
1.08538e-07
1.08511e-07
1.08485e-07
1.08462e-07
1.08438e-07
1.08418e-07
1.08395e-07
1.08376e-07
1.08354e-07
1.08341e-07
1.0832e-07
1.08309e-07
1.0829e-07
1.08281e-07
1.08264e-07
1.08255e-07
1.08239e-07
1.08228e-07
1.08216e-07
1.08204e-07
1.08191e-07
1.08183e-07
1.08171e-07
1.08162e-07
1.08149e-07
1.08139e-07
1.08129e-07
1.08121e-07
1.08113e-07
1.08108e-07
1.08101e-07
1.08096e-07
1.0809e-07
1.08085e-07
1.08079e-07
1.08074e-07
1.08069e-07
1.08065e-07
1.08061e-07
1.08057e-07
1.08051e-07
1.08045e-07
1.08036e-07
1.0803e-07
1.0803e-07
1.08023e-07
1.08022e-07
1.08015e-07
1.08038e-07
1.09122e-07
1.11882e-07
1.35562e-08
1.23955e-07
1.23125e-07
1.22265e-07
1.21223e-07
1.20067e-07
1.18872e-07
1.17745e-07
1.16703e-07
1.15786e-07
1.14964e-07
1.14258e-07
1.13625e-07
1.13085e-07
1.12598e-07
1.12182e-07
1.11802e-07
1.11478e-07
1.11178e-07
1.10923e-07
1.10683e-07
1.10479e-07
1.10285e-07
1.1012e-07
1.09961e-07
1.09827e-07
1.09695e-07
1.09584e-07
1.09475e-07
1.09382e-07
1.0929e-07
1.09212e-07
1.09134e-07
1.09068e-07
1.09002e-07
1.08945e-07
1.08888e-07
1.08839e-07
1.0879e-07
1.08747e-07
1.08705e-07
1.08668e-07
1.08631e-07
1.08598e-07
1.08566e-07
1.08537e-07
1.08509e-07
1.08483e-07
1.0846e-07
1.08436e-07
1.08416e-07
1.08394e-07
1.08375e-07
1.08352e-07
1.08339e-07
1.08318e-07
1.08307e-07
1.08288e-07
1.08279e-07
1.08262e-07
1.08253e-07
1.08237e-07
1.08226e-07
1.08214e-07
1.08202e-07
1.0819e-07
1.08181e-07
1.08169e-07
1.0816e-07
1.08147e-07
1.08137e-07
1.08127e-07
1.08119e-07
1.08111e-07
1.08105e-07
1.08099e-07
1.08094e-07
1.08087e-07
1.08083e-07
1.08077e-07
1.08072e-07
1.08067e-07
1.08063e-07
1.08058e-07
1.08055e-07
1.08049e-07
1.08043e-07
1.08034e-07
1.08028e-07
1.08028e-07
1.08021e-07
1.0802e-07
1.08012e-07
1.08036e-07
1.09137e-07
1.11885e-07
1.41639e-08
1.23955e-07
1.23125e-07
1.22265e-07
1.21225e-07
1.2007e-07
1.18876e-07
1.1775e-07
1.16708e-07
1.15791e-07
1.14969e-07
1.14262e-07
1.1363e-07
1.13089e-07
1.12601e-07
1.12185e-07
1.11805e-07
1.11481e-07
1.1118e-07
1.10925e-07
1.10684e-07
1.1048e-07
1.10286e-07
1.10121e-07
1.09962e-07
1.09827e-07
1.09696e-07
1.09584e-07
1.09475e-07
1.09382e-07
1.0929e-07
1.09212e-07
1.09134e-07
1.09067e-07
1.09001e-07
1.08944e-07
1.08887e-07
1.08838e-07
1.08789e-07
1.08746e-07
1.08704e-07
1.08666e-07
1.08629e-07
1.08597e-07
1.08565e-07
1.08535e-07
1.08508e-07
1.08482e-07
1.08459e-07
1.08435e-07
1.08414e-07
1.08392e-07
1.08373e-07
1.0835e-07
1.08337e-07
1.08316e-07
1.08305e-07
1.08286e-07
1.08277e-07
1.0826e-07
1.08251e-07
1.08235e-07
1.08224e-07
1.08212e-07
1.082e-07
1.08187e-07
1.08179e-07
1.08167e-07
1.08157e-07
1.08145e-07
1.08135e-07
1.08124e-07
1.08117e-07
1.08109e-07
1.08103e-07
1.08096e-07
1.08092e-07
1.08085e-07
1.0808e-07
1.08074e-07
1.0807e-07
1.08064e-07
1.0806e-07
1.08056e-07
1.08052e-07
1.08046e-07
1.0804e-07
1.08031e-07
1.08026e-07
1.08025e-07
1.08018e-07
1.08017e-07
1.0801e-07
1.08034e-07
1.09155e-07
1.11888e-07
1.48105e-08
1.23955e-07
1.23124e-07
1.22265e-07
1.21227e-07
1.20074e-07
1.18881e-07
1.17756e-07
1.16714e-07
1.15797e-07
1.14975e-07
1.14268e-07
1.13635e-07
1.13094e-07
1.12606e-07
1.12189e-07
1.11808e-07
1.11484e-07
1.11183e-07
1.10927e-07
1.10687e-07
1.10482e-07
1.10287e-07
1.10122e-07
1.09963e-07
1.09828e-07
1.09697e-07
1.09585e-07
1.09475e-07
1.09382e-07
1.0929e-07
1.09212e-07
1.09134e-07
1.09067e-07
1.09e-07
1.08944e-07
1.08887e-07
1.08837e-07
1.08788e-07
1.08745e-07
1.08703e-07
1.08665e-07
1.08628e-07
1.08595e-07
1.08563e-07
1.08534e-07
1.08506e-07
1.0848e-07
1.08457e-07
1.08433e-07
1.08412e-07
1.0839e-07
1.08371e-07
1.08348e-07
1.08335e-07
1.08314e-07
1.08303e-07
1.08284e-07
1.08274e-07
1.08258e-07
1.08249e-07
1.08233e-07
1.08222e-07
1.08209e-07
1.08198e-07
1.08185e-07
1.08176e-07
1.08165e-07
1.08155e-07
1.08142e-07
1.08133e-07
1.08122e-07
1.08114e-07
1.08106e-07
1.08101e-07
1.08094e-07
1.08089e-07
1.08082e-07
1.08078e-07
1.08071e-07
1.08067e-07
1.08061e-07
1.08058e-07
1.08053e-07
1.08049e-07
1.08044e-07
1.08037e-07
1.08029e-07
1.08023e-07
1.08022e-07
1.08015e-07
1.08014e-07
1.08007e-07
1.08032e-07
1.09177e-07
1.11891e-07
1.54962e-08
1.23955e-07
1.23124e-07
1.22266e-07
1.21229e-07
1.20078e-07
1.18887e-07
1.17763e-07
1.16721e-07
1.15804e-07
1.14982e-07
1.14274e-07
1.13641e-07
1.131e-07
1.12611e-07
1.12194e-07
1.11812e-07
1.11487e-07
1.11186e-07
1.1093e-07
1.10689e-07
1.10484e-07
1.10289e-07
1.10124e-07
1.09964e-07
1.09829e-07
1.09697e-07
1.09585e-07
1.09476e-07
1.09383e-07
1.0929e-07
1.09211e-07
1.09133e-07
1.09066e-07
1.09e-07
1.08943e-07
1.08886e-07
1.08836e-07
1.08787e-07
1.08744e-07
1.08702e-07
1.08664e-07
1.08626e-07
1.08594e-07
1.08562e-07
1.08532e-07
1.08504e-07
1.08478e-07
1.08455e-07
1.08431e-07
1.0841e-07
1.08388e-07
1.08369e-07
1.08346e-07
1.08333e-07
1.08312e-07
1.08301e-07
1.08282e-07
1.08272e-07
1.08256e-07
1.08247e-07
1.0823e-07
1.0822e-07
1.08207e-07
1.08195e-07
1.08182e-07
1.08174e-07
1.08162e-07
1.08152e-07
1.0814e-07
1.0813e-07
1.08119e-07
1.08112e-07
1.08103e-07
1.08098e-07
1.08091e-07
1.08086e-07
1.0808e-07
1.08075e-07
1.08069e-07
1.08064e-07
1.08058e-07
1.08055e-07
1.0805e-07
1.08046e-07
1.08041e-07
1.08035e-07
1.08026e-07
1.0802e-07
1.08019e-07
1.08012e-07
1.08011e-07
1.08004e-07
1.08029e-07
1.09201e-07
1.11895e-07
1.622e-08
1.23955e-07
1.23123e-07
1.22266e-07
1.21232e-07
1.20082e-07
1.18893e-07
1.1777e-07
1.16729e-07
1.15812e-07
1.14989e-07
1.14282e-07
1.13648e-07
1.13106e-07
1.12616e-07
1.12199e-07
1.11817e-07
1.11492e-07
1.1119e-07
1.10933e-07
1.10692e-07
1.10487e-07
1.10291e-07
1.10126e-07
1.09966e-07
1.0983e-07
1.09698e-07
1.09586e-07
1.09476e-07
1.09383e-07
1.0929e-07
1.09211e-07
1.09133e-07
1.09066e-07
1.08999e-07
1.08942e-07
1.08885e-07
1.08835e-07
1.08786e-07
1.08743e-07
1.087e-07
1.08662e-07
1.08625e-07
1.08592e-07
1.0856e-07
1.0853e-07
1.08502e-07
1.08476e-07
1.08453e-07
1.08429e-07
1.08408e-07
1.08386e-07
1.08366e-07
1.08344e-07
1.08331e-07
1.0831e-07
1.08298e-07
1.08279e-07
1.0827e-07
1.08253e-07
1.08244e-07
1.08228e-07
1.08217e-07
1.08204e-07
1.08193e-07
1.0818e-07
1.08171e-07
1.08159e-07
1.0815e-07
1.08137e-07
1.08127e-07
1.08116e-07
1.08109e-07
1.081e-07
1.08095e-07
1.08088e-07
1.08083e-07
1.08077e-07
1.08072e-07
1.08065e-07
1.08061e-07
1.08055e-07
1.08052e-07
1.08047e-07
1.08043e-07
1.08037e-07
1.08031e-07
1.08023e-07
1.08017e-07
1.08016e-07
1.08009e-07
1.08007e-07
1.08001e-07
1.08026e-07
1.09229e-07
1.11898e-07
1.69815e-08
1.23955e-07
1.23123e-07
1.22267e-07
1.21235e-07
1.20087e-07
1.189e-07
1.17778e-07
1.16737e-07
1.15821e-07
1.14998e-07
1.1429e-07
1.13655e-07
1.13113e-07
1.12623e-07
1.12205e-07
1.11822e-07
1.11496e-07
1.11194e-07
1.10937e-07
1.10695e-07
1.1049e-07
1.10294e-07
1.10128e-07
1.09968e-07
1.09832e-07
1.09699e-07
1.09587e-07
1.09477e-07
1.09383e-07
1.0929e-07
1.09211e-07
1.09133e-07
1.09066e-07
1.08998e-07
1.08941e-07
1.08884e-07
1.08834e-07
1.08784e-07
1.08741e-07
1.08699e-07
1.08661e-07
1.08623e-07
1.08591e-07
1.08558e-07
1.08528e-07
1.085e-07
1.08474e-07
1.08451e-07
1.08427e-07
1.08406e-07
1.08383e-07
1.08364e-07
1.08341e-07
1.08328e-07
1.08307e-07
1.08296e-07
1.08277e-07
1.08267e-07
1.0825e-07
1.08241e-07
1.08225e-07
1.08214e-07
1.08201e-07
1.0819e-07
1.08177e-07
1.08168e-07
1.08156e-07
1.08147e-07
1.08134e-07
1.08124e-07
1.08113e-07
1.08106e-07
1.08097e-07
1.08092e-07
1.08085e-07
1.0808e-07
1.08073e-07
1.08069e-07
1.08062e-07
1.08058e-07
1.08052e-07
1.08048e-07
1.08043e-07
1.0804e-07
1.08034e-07
1.08028e-07
1.08019e-07
1.08014e-07
1.08012e-07
1.08006e-07
1.08004e-07
1.07997e-07
1.08023e-07
1.09261e-07
1.11902e-07
1.77828e-08
1.23955e-07
1.23122e-07
1.22268e-07
1.21238e-07
1.20093e-07
1.18907e-07
1.17787e-07
1.16746e-07
1.1583e-07
1.15007e-07
1.14298e-07
1.13663e-07
1.13121e-07
1.1263e-07
1.12211e-07
1.11828e-07
1.11502e-07
1.11199e-07
1.10941e-07
1.10699e-07
1.10493e-07
1.10297e-07
1.1013e-07
1.0997e-07
1.09834e-07
1.09701e-07
1.09588e-07
1.09478e-07
1.09384e-07
1.0929e-07
1.09211e-07
1.09133e-07
1.09065e-07
1.08998e-07
1.08941e-07
1.08883e-07
1.08833e-07
1.08783e-07
1.0874e-07
1.08697e-07
1.08659e-07
1.08622e-07
1.08589e-07
1.08556e-07
1.08527e-07
1.08498e-07
1.08472e-07
1.08449e-07
1.08424e-07
1.08404e-07
1.08381e-07
1.08362e-07
1.08339e-07
1.08326e-07
1.08304e-07
1.08293e-07
1.08274e-07
1.08264e-07
1.08247e-07
1.08238e-07
1.08222e-07
1.08211e-07
1.08198e-07
1.08187e-07
1.08174e-07
1.08165e-07
1.08153e-07
1.08143e-07
1.08131e-07
1.08121e-07
1.0811e-07
1.08102e-07
1.08094e-07
1.08088e-07
1.08081e-07
1.08077e-07
1.0807e-07
1.08065e-07
1.08059e-07
1.08054e-07
1.08048e-07
1.08044e-07
1.0804e-07
1.08036e-07
1.0803e-07
1.08024e-07
1.08016e-07
1.0801e-07
1.08009e-07
1.08002e-07
1.08e-07
1.07993e-07
1.0802e-07
1.09297e-07
1.11905e-07
1.86265e-08
1.23954e-07
1.23122e-07
1.22268e-07
1.21241e-07
1.20099e-07
1.18916e-07
1.17796e-07
1.16757e-07
1.1584e-07
1.15017e-07
1.14308e-07
1.13673e-07
1.13129e-07
1.12638e-07
1.12218e-07
1.11834e-07
1.11508e-07
1.11204e-07
1.10946e-07
1.10703e-07
1.10497e-07
1.103e-07
1.10133e-07
1.09972e-07
1.09836e-07
1.09702e-07
1.09589e-07
1.09479e-07
1.09385e-07
1.09291e-07
1.09212e-07
1.09132e-07
1.09065e-07
1.08997e-07
1.0894e-07
1.08882e-07
1.08832e-07
1.08782e-07
1.08739e-07
1.08696e-07
1.08658e-07
1.0862e-07
1.08587e-07
1.08554e-07
1.08524e-07
1.08496e-07
1.0847e-07
1.08446e-07
1.08422e-07
1.08401e-07
1.08378e-07
1.08359e-07
1.08336e-07
1.08323e-07
1.08301e-07
1.0829e-07
1.08271e-07
1.08261e-07
1.08244e-07
1.08235e-07
1.08219e-07
1.08208e-07
1.08195e-07
1.08183e-07
1.0817e-07
1.08162e-07
1.0815e-07
1.0814e-07
1.08127e-07
1.08118e-07
1.08107e-07
1.08099e-07
1.0809e-07
1.08085e-07
1.08078e-07
1.08073e-07
1.08066e-07
1.08061e-07
1.08055e-07
1.0805e-07
1.08044e-07
1.0804e-07
1.08036e-07
1.08032e-07
1.08026e-07
1.08021e-07
1.08012e-07
1.08006e-07
1.08005e-07
1.07998e-07
1.07995e-07
1.07989e-07
1.08017e-07
1.09336e-07
1.11908e-07
1.95153e-08
1.23954e-07
1.23121e-07
1.22269e-07
1.21244e-07
1.20105e-07
1.18924e-07
1.17807e-07
1.16768e-07
1.15852e-07
1.15028e-07
1.14319e-07
1.13682e-07
1.13138e-07
1.12646e-07
1.12226e-07
1.11842e-07
1.11514e-07
1.1121e-07
1.10951e-07
1.10708e-07
1.10501e-07
1.10303e-07
1.10136e-07
1.09975e-07
1.09838e-07
1.09704e-07
1.09591e-07
1.0948e-07
1.09385e-07
1.09291e-07
1.09212e-07
1.09132e-07
1.09065e-07
1.08997e-07
1.08939e-07
1.08881e-07
1.08831e-07
1.08781e-07
1.08737e-07
1.08694e-07
1.08656e-07
1.08618e-07
1.08585e-07
1.08552e-07
1.08522e-07
1.08494e-07
1.08467e-07
1.08444e-07
1.08419e-07
1.08398e-07
1.08375e-07
1.08356e-07
1.08333e-07
1.0832e-07
1.08298e-07
1.08287e-07
1.08268e-07
1.08258e-07
1.08241e-07
1.08232e-07
1.08215e-07
1.08204e-07
1.08192e-07
1.0818e-07
1.08167e-07
1.08158e-07
1.08146e-07
1.08136e-07
1.08124e-07
1.08114e-07
1.08103e-07
1.08095e-07
1.08087e-07
1.08081e-07
1.08074e-07
1.08069e-07
1.08062e-07
1.08057e-07
1.08051e-07
1.08046e-07
1.0804e-07
1.08036e-07
1.08031e-07
1.08027e-07
1.08022e-07
1.08016e-07
1.08008e-07
1.08002e-07
1.08e-07
1.07994e-07
1.07991e-07
1.07985e-07
1.08014e-07
1.0938e-07
1.11909e-07
2.0452e-08
1.23954e-07
1.2312e-07
1.22269e-07
1.21248e-07
1.20112e-07
1.18934e-07
1.17818e-07
1.1678e-07
1.15864e-07
1.1504e-07
1.1433e-07
1.13693e-07
1.13148e-07
1.12655e-07
1.12235e-07
1.11849e-07
1.11521e-07
1.11216e-07
1.10957e-07
1.10713e-07
1.10505e-07
1.10307e-07
1.10139e-07
1.09978e-07
1.0984e-07
1.09706e-07
1.09593e-07
1.09481e-07
1.09386e-07
1.09292e-07
1.09212e-07
1.09133e-07
1.09065e-07
1.08997e-07
1.08939e-07
1.08881e-07
1.0883e-07
1.0878e-07
1.08736e-07
1.08693e-07
1.08654e-07
1.08616e-07
1.08583e-07
1.0855e-07
1.0852e-07
1.08491e-07
1.08465e-07
1.08441e-07
1.08417e-07
1.08396e-07
1.08373e-07
1.08353e-07
1.0833e-07
1.08317e-07
1.08295e-07
1.08284e-07
1.08264e-07
1.08254e-07
1.08238e-07
1.08228e-07
1.08212e-07
1.08201e-07
1.08188e-07
1.08176e-07
1.08163e-07
1.08154e-07
1.08142e-07
1.08132e-07
1.0812e-07
1.0811e-07
1.08099e-07
1.08091e-07
1.08083e-07
1.08077e-07
1.08069e-07
1.08065e-07
1.08058e-07
1.08053e-07
1.08046e-07
1.08042e-07
1.08036e-07
1.08032e-07
1.08027e-07
1.08023e-07
1.08017e-07
1.08012e-07
1.08004e-07
1.07998e-07
1.07996e-07
1.07989e-07
1.07986e-07
1.0798e-07
1.0801e-07
1.09428e-07
1.10088e-07
2.14397e-08
1.23954e-07
1.23119e-07
1.2227e-07
1.21252e-07
1.2012e-07
1.18944e-07
1.1783e-07
1.16793e-07
1.15877e-07
1.15053e-07
1.14343e-07
1.13705e-07
1.13159e-07
1.12665e-07
1.12244e-07
1.11858e-07
1.11529e-07
1.11223e-07
1.10963e-07
1.10718e-07
1.1051e-07
1.10311e-07
1.10143e-07
1.09981e-07
1.09843e-07
1.09709e-07
1.09594e-07
1.09482e-07
1.09388e-07
1.09293e-07
1.09213e-07
1.09133e-07
1.09065e-07
1.08996e-07
1.08938e-07
1.0888e-07
1.08829e-07
1.08779e-07
1.08735e-07
1.08691e-07
1.08652e-07
1.08614e-07
1.08581e-07
1.08548e-07
1.08518e-07
1.08489e-07
1.08462e-07
1.08438e-07
1.08414e-07
1.08393e-07
1.0837e-07
1.0835e-07
1.08327e-07
1.08313e-07
1.08292e-07
1.0828e-07
1.08261e-07
1.08251e-07
1.08234e-07
1.08224e-07
1.08208e-07
1.08197e-07
1.08184e-07
1.08172e-07
1.08159e-07
1.0815e-07
1.08138e-07
1.08128e-07
1.08116e-07
1.08106e-07
1.08095e-07
1.08087e-07
1.08078e-07
1.08072e-07
1.08065e-07
1.0806e-07
1.08053e-07
1.08048e-07
1.08042e-07
1.08037e-07
1.08031e-07
1.08027e-07
1.08022e-07
1.08018e-07
1.08012e-07
1.08007e-07
1.07999e-07
1.07994e-07
1.07991e-07
1.07985e-07
1.07981e-07
1.07975e-07
1.08006e-07
1.0948e-07
1.03883e-07
2.24815e-08
1.23954e-07
1.23119e-07
1.22271e-07
1.21256e-07
1.20128e-07
1.18955e-07
1.17843e-07
1.16806e-07
1.15891e-07
1.15067e-07
1.14356e-07
1.13717e-07
1.13171e-07
1.12676e-07
1.12254e-07
1.11867e-07
1.11537e-07
1.1123e-07
1.1097e-07
1.10724e-07
1.10515e-07
1.10316e-07
1.10147e-07
1.09984e-07
1.09846e-07
1.09711e-07
1.09597e-07
1.09484e-07
1.09389e-07
1.09294e-07
1.09213e-07
1.09133e-07
1.09065e-07
1.08996e-07
1.08938e-07
1.08879e-07
1.08828e-07
1.08777e-07
1.08733e-07
1.0869e-07
1.08651e-07
1.08612e-07
1.08579e-07
1.08546e-07
1.08515e-07
1.08486e-07
1.0846e-07
1.08436e-07
1.08411e-07
1.0839e-07
1.08366e-07
1.08347e-07
1.08324e-07
1.0831e-07
1.08288e-07
1.08277e-07
1.08257e-07
1.08247e-07
1.0823e-07
1.0822e-07
1.08204e-07
1.08193e-07
1.0818e-07
1.08168e-07
1.08155e-07
1.08146e-07
1.08134e-07
1.08124e-07
1.08111e-07
1.08102e-07
1.0809e-07
1.08083e-07
1.08074e-07
1.08068e-07
1.0806e-07
1.08055e-07
1.08048e-07
1.08044e-07
1.08037e-07
1.08032e-07
1.08026e-07
1.08022e-07
1.08017e-07
1.08013e-07
1.08007e-07
1.08002e-07
1.07994e-07
1.07989e-07
1.07986e-07
1.0798e-07
1.07975e-07
1.0797e-07
1.08003e-07
1.09536e-07
9.83448e-08
2.35807e-08
1.23953e-07
1.23118e-07
1.22272e-07
1.2126e-07
1.20136e-07
1.18966e-07
1.17856e-07
1.16821e-07
1.15906e-07
1.15081e-07
1.1437e-07
1.13731e-07
1.13184e-07
1.12688e-07
1.12265e-07
1.11876e-07
1.11546e-07
1.11238e-07
1.10977e-07
1.1073e-07
1.10521e-07
1.10321e-07
1.10152e-07
1.09988e-07
1.09849e-07
1.09714e-07
1.09599e-07
1.09486e-07
1.0939e-07
1.09295e-07
1.09214e-07
1.09133e-07
1.09065e-07
1.08996e-07
1.08937e-07
1.08878e-07
1.08827e-07
1.08776e-07
1.08732e-07
1.08688e-07
1.08649e-07
1.0861e-07
1.08577e-07
1.08543e-07
1.08513e-07
1.08484e-07
1.08457e-07
1.08433e-07
1.08408e-07
1.08386e-07
1.08363e-07
1.08344e-07
1.0832e-07
1.08306e-07
1.08285e-07
1.08273e-07
1.08253e-07
1.08243e-07
1.08226e-07
1.08216e-07
1.082e-07
1.08189e-07
1.08176e-07
1.08164e-07
1.08151e-07
1.08142e-07
1.0813e-07
1.0812e-07
1.08107e-07
1.08097e-07
1.08086e-07
1.08078e-07
1.08069e-07
1.08063e-07
1.08056e-07
1.08051e-07
1.08043e-07
1.08039e-07
1.08032e-07
1.08027e-07
1.08021e-07
1.08017e-07
1.08012e-07
1.08008e-07
1.08002e-07
1.07997e-07
1.07989e-07
1.07984e-07
1.07981e-07
1.07974e-07
1.0797e-07
1.07965e-07
1.07999e-07
1.09597e-07
9.34007e-08
2.47406e-08
1.23953e-07
1.23117e-07
1.22272e-07
1.21265e-07
1.20145e-07
1.18979e-07
1.17871e-07
1.16837e-07
1.15922e-07
1.15097e-07
1.14385e-07
1.13745e-07
1.13197e-07
1.127e-07
1.12276e-07
1.11887e-07
1.11555e-07
1.11247e-07
1.10985e-07
1.10737e-07
1.10527e-07
1.10327e-07
1.10157e-07
1.09992e-07
1.09853e-07
1.09717e-07
1.09602e-07
1.09488e-07
1.09392e-07
1.09296e-07
1.09215e-07
1.09134e-07
1.09065e-07
1.08996e-07
1.08937e-07
1.08878e-07
1.08826e-07
1.08775e-07
1.0873e-07
1.08686e-07
1.08647e-07
1.08608e-07
1.08574e-07
1.08541e-07
1.0851e-07
1.08481e-07
1.08454e-07
1.0843e-07
1.08405e-07
1.08383e-07
1.0836e-07
1.0834e-07
1.08317e-07
1.08303e-07
1.08281e-07
1.08269e-07
1.08249e-07
1.08239e-07
1.08222e-07
1.08212e-07
1.08196e-07
1.08184e-07
1.08171e-07
1.08159e-07
1.08146e-07
1.08137e-07
1.08125e-07
1.08115e-07
1.08102e-07
1.08092e-07
1.08081e-07
1.08073e-07
1.08064e-07
1.08058e-07
1.0805e-07
1.08045e-07
1.08038e-07
1.08033e-07
1.08026e-07
1.08022e-07
1.08016e-07
1.08011e-07
1.08006e-07
1.08002e-07
1.07996e-07
1.07992e-07
1.07984e-07
1.07979e-07
1.07975e-07
1.07969e-07
1.07964e-07
1.07959e-07
1.07994e-07
1.09662e-07
8.89817e-08
2.59645e-08
1.23953e-07
1.23116e-07
1.22273e-07
1.21269e-07
1.20154e-07
1.18991e-07
1.17886e-07
1.16853e-07
1.15939e-07
1.15114e-07
1.14401e-07
1.1376e-07
1.13211e-07
1.12713e-07
1.12288e-07
1.11898e-07
1.11566e-07
1.11256e-07
1.10993e-07
1.10745e-07
1.10534e-07
1.10333e-07
1.10162e-07
1.09997e-07
1.09857e-07
1.0972e-07
1.09604e-07
1.0949e-07
1.09394e-07
1.09298e-07
1.09216e-07
1.09135e-07
1.09065e-07
1.08996e-07
1.08936e-07
1.08877e-07
1.08825e-07
1.08774e-07
1.08729e-07
1.08685e-07
1.08645e-07
1.08606e-07
1.08572e-07
1.08538e-07
1.08508e-07
1.08478e-07
1.08451e-07
1.08426e-07
1.08401e-07
1.0838e-07
1.08356e-07
1.08337e-07
1.08313e-07
1.08299e-07
1.08277e-07
1.08265e-07
1.08245e-07
1.08234e-07
1.08217e-07
1.08207e-07
1.08191e-07
1.0818e-07
1.08167e-07
1.08155e-07
1.08141e-07
1.08132e-07
1.0812e-07
1.0811e-07
1.08097e-07
1.08087e-07
1.08076e-07
1.08068e-07
1.08059e-07
1.08053e-07
1.08045e-07
1.0804e-07
1.08033e-07
1.08028e-07
1.08021e-07
1.08016e-07
1.0801e-07
1.08006e-07
1.08e-07
1.07996e-07
1.0799e-07
1.07986e-07
1.07978e-07
1.07973e-07
1.07969e-07
1.07963e-07
1.07957e-07
1.07953e-07
1.0799e-07
1.09731e-07
8.50292e-08
2.72558e-08
1.23953e-07
1.23115e-07
1.22274e-07
1.21274e-07
1.20164e-07
1.19005e-07
1.17902e-07
1.16871e-07
1.15957e-07
1.15132e-07
1.14418e-07
1.13777e-07
1.13227e-07
1.12727e-07
1.12301e-07
1.1191e-07
1.11576e-07
1.11266e-07
1.11002e-07
1.10753e-07
1.10541e-07
1.10339e-07
1.10168e-07
1.10002e-07
1.09861e-07
1.09724e-07
1.09608e-07
1.09493e-07
1.09396e-07
1.09299e-07
1.09217e-07
1.09135e-07
1.09066e-07
1.08996e-07
1.08936e-07
1.08876e-07
1.08825e-07
1.08773e-07
1.08728e-07
1.08683e-07
1.08643e-07
1.08604e-07
1.0857e-07
1.08536e-07
1.08505e-07
1.08475e-07
1.08448e-07
1.08423e-07
1.08398e-07
1.08376e-07
1.08352e-07
1.08333e-07
1.08309e-07
1.08295e-07
1.08273e-07
1.0826e-07
1.08241e-07
1.0823e-07
1.08213e-07
1.08203e-07
1.08186e-07
1.08175e-07
1.08162e-07
1.0815e-07
1.08136e-07
1.08127e-07
1.08115e-07
1.08105e-07
1.08092e-07
1.08082e-07
1.08071e-07
1.08063e-07
1.08053e-07
1.08047e-07
1.08039e-07
1.08034e-07
1.08027e-07
1.08022e-07
1.08015e-07
1.0801e-07
1.08004e-07
1.08e-07
1.07994e-07
1.0799e-07
1.07984e-07
1.07979e-07
1.07973e-07
1.07967e-07
1.07963e-07
1.07957e-07
1.07951e-07
1.07947e-07
1.07985e-07
1.09803e-07
8.14932e-08
2.86174e-08
1.23952e-07
1.23113e-07
1.22275e-07
1.21279e-07
1.20174e-07
1.19019e-07
1.17919e-07
1.16889e-07
1.15976e-07
1.1515e-07
1.14437e-07
1.13794e-07
1.13243e-07
1.12742e-07
1.12315e-07
1.11923e-07
1.11588e-07
1.11277e-07
1.11012e-07
1.10761e-07
1.10549e-07
1.10346e-07
1.10174e-07
1.10007e-07
1.09866e-07
1.09728e-07
1.09611e-07
1.09496e-07
1.09398e-07
1.09301e-07
1.09219e-07
1.09136e-07
1.09066e-07
1.08996e-07
1.08936e-07
1.08876e-07
1.08824e-07
1.08771e-07
1.08726e-07
1.08681e-07
1.08641e-07
1.08602e-07
1.08567e-07
1.08533e-07
1.08502e-07
1.08472e-07
1.08445e-07
1.0842e-07
1.08394e-07
1.08372e-07
1.08349e-07
1.08329e-07
1.08305e-07
1.08291e-07
1.08268e-07
1.08256e-07
1.08236e-07
1.08225e-07
1.08208e-07
1.08198e-07
1.08181e-07
1.0817e-07
1.08157e-07
1.08145e-07
1.08131e-07
1.08122e-07
1.0811e-07
1.081e-07
1.08087e-07
1.08077e-07
1.08065e-07
1.08057e-07
1.08048e-07
1.08041e-07
1.08034e-07
1.08028e-07
1.08021e-07
1.08016e-07
1.08009e-07
1.08004e-07
1.07998e-07
1.07993e-07
1.07988e-07
1.07983e-07
1.07977e-07
1.07973e-07
1.07966e-07
1.07961e-07
1.07957e-07
1.07951e-07
1.07944e-07
1.0794e-07
1.0798e-07
1.09877e-07
7.83311e-08
3.00519e-08
1.23952e-07
1.23112e-07
1.22275e-07
1.21285e-07
1.20184e-07
1.19034e-07
1.17937e-07
1.16908e-07
1.15996e-07
1.1517e-07
1.14456e-07
1.13812e-07
1.1326e-07
1.12758e-07
1.1233e-07
1.11936e-07
1.11601e-07
1.11288e-07
1.11022e-07
1.10771e-07
1.10557e-07
1.10353e-07
1.1018e-07
1.10013e-07
1.09871e-07
1.09732e-07
1.09615e-07
1.09499e-07
1.09401e-07
1.09303e-07
1.0922e-07
1.09137e-07
1.09067e-07
1.08996e-07
1.08936e-07
1.08875e-07
1.08823e-07
1.0877e-07
1.08725e-07
1.0868e-07
1.08639e-07
1.086e-07
1.08565e-07
1.08531e-07
1.08499e-07
1.08469e-07
1.08441e-07
1.08416e-07
1.08391e-07
1.08369e-07
1.08345e-07
1.08325e-07
1.08301e-07
1.08286e-07
1.08264e-07
1.08251e-07
1.08231e-07
1.0822e-07
1.08203e-07
1.08193e-07
1.08176e-07
1.08165e-07
1.08151e-07
1.08139e-07
1.08125e-07
1.08116e-07
1.08104e-07
1.08094e-07
1.08081e-07
1.08071e-07
1.08059e-07
1.08051e-07
1.08042e-07
1.08035e-07
1.08027e-07
1.08022e-07
1.08015e-07
1.0801e-07
1.08002e-07
1.07998e-07
1.07991e-07
1.07987e-07
1.07981e-07
1.07977e-07
1.0797e-07
1.07966e-07
1.0796e-07
1.07954e-07
1.0795e-07
1.07944e-07
1.07937e-07
1.07934e-07
1.07975e-07
1.09951e-07
7.55064e-08
3.15614e-08
1.23952e-07
1.23111e-07
1.22276e-07
1.2129e-07
1.20195e-07
1.19049e-07
1.17955e-07
1.16929e-07
1.16017e-07
1.15191e-07
1.14476e-07
1.13831e-07
1.13278e-07
1.12775e-07
1.12346e-07
1.11951e-07
1.11614e-07
1.113e-07
1.11033e-07
1.1078e-07
1.10566e-07
1.10361e-07
1.10187e-07
1.10019e-07
1.09877e-07
1.09737e-07
1.09619e-07
1.09502e-07
1.09404e-07
1.09305e-07
1.09222e-07
1.09139e-07
1.09068e-07
1.08996e-07
1.08936e-07
1.08875e-07
1.08822e-07
1.08769e-07
1.08723e-07
1.08678e-07
1.08637e-07
1.08597e-07
1.08562e-07
1.08528e-07
1.08496e-07
1.08466e-07
1.08438e-07
1.08413e-07
1.08387e-07
1.08365e-07
1.08341e-07