/*--------------------------------*- C++ -*----------------------------------*\
| =========                 |                                                 |
| \\      /  F ield         | OpenFOAM: The Open Source CFD Toolbox           |
|  \\    /   O peration     | Version:  v2012                                 |
|   \\  /    A nd           | Website:  www.openfoam.com                      |
|    \\/     M anipulation  |                                                 |
\*---------------------------------------------------------------------------*/
FoamFile
{
    version     2.0;
    format      ascii;
    class       volScalarField;
    location    "47.5";
    object      omega;
}
// * * * * * * * * * * * * * * * * * * * * * * * * * * * * * * * * * * * * * //

dimensions      [0 0 -1 0 0 0 0];


internalField   nonuniform List<scalar> 
209825
(
8261.73
7569.19
6999.39
6542.13
6180.57
5895.92
5669.74
5488.42
5340.56
5219.02
5117.27
5031.85
4958.71
4896.32
4841.89
4794.89
4753.22
4716.93
4684.28
4655.68
4629.58
4606.66
4585.48
4566.83
4549.37
4534.03
4519.49
4506.72
4494.46
4483.76
4473.34
4464.29
4455.36
4447.66
4439.95
4433.37
4426.69
4421.03
4415.2
4410.3
4405.24
4400.98
4396.5
4392.83
4388.9
4385.69
4382.22
4379.38
4376.35
4373.87
4371.21
4369.08
4366.8
4364.84
4362.82
4361.13
4359.35
4357.86
4356.26
4354.98
4353.65
4352.6
4351.37
4350.52
4349.47
4348.74
4347.78
4347.18
4346.37
4345.93
4345.24
4344.88
4344.29
4343.98
4343.41
4343.07
4342.53
4342.24
4341.78
4341.55
4341.15
4340.98
4340.63
4340.56
4340.39
4340.49
4340.48
4340.79
4340.78
4341.25
4341.25
4342.03
4342.74
4371.32
4480.85
113132
8261.73
7569.19
6999.39
6542.13
6180.56
5895.9
5669.7
5488.38
5340.5
5218.96
5117.2
5031.77
4958.63
4896.24
4841.8
4794.8
4753.12
4716.83
4684.17
4655.57
4629.48
4606.55
4585.36
4566.71
4549.26
4533.91
4519.37
4506.6
4494.34
4483.64
4473.22
4464.17
4455.24
4447.53
4439.82
4433.24
4426.56
4420.9
4415.07
4410.17
4405.11
4400.85
4396.37
4392.7
4388.77
4385.56
4382.09
4379.25
4376.22
4373.74
4371.07
4368.94
4366.66
4364.71
4362.69
4361
4359.21
4357.72
4356.12
4354.85
4353.51
4352.46
4351.23
4350.39
4349.34
4348.6
4347.64
4347.04
4346.23
4345.79
4345.1
4344.74
4344.15
4343.84
4343.27
4342.92
4342.39
4342.1
4341.63
4341.41
4341.01
4340.84
4340.49
4340.42
4340.25
4340.35
4340.34
4340.64
4340.64
4341.11
4341.11
4341.88
4342.59
4371.23
4480.75
109834
8261.73
7569.2
6999.39
6542.11
6180.51
5895.81
5669.58
5488.22
5340.32
5218.75
5116.96
5031.51
4958.36
4895.94
4841.49
4794.48
4752.79
4716.49
4683.82
4655.21
4629.11
4606.18
4584.99
4566.33
4548.87
4533.52
4518.97
4506.2
4493.94
4483.23
4472.8
4463.75
4454.82
4447.12
4439.4
4432.81
4426.14
4420.47
4414.64
4409.74
4404.67
4400.42
4395.93
4392.26
4388.33
4385.12
4381.65
4378.81
4375.77
4373.29
4370.63
4368.49
4366.21
4364.26
4362.24
4360.55
4358.76
4357.27
4355.67
4354.39
4353.06
4352
4350.77
4349.93
4348.88
4348.15
4347.18
4346.58
4345.77
4345.33
4344.64
4344.28
4343.69
4343.38
4342.8
4342.46
4341.92
4341.64
4341.17
4340.95
4340.55
4340.38
4340.03
4339.95
4339.78
4339.88
4339.87
4340.17
4340.17
4340.64
4340.64
4341.41
4342.13
4370.86
4480.36
106047
8261.73
7569.21
6999.39
6542.07
6180.42
5895.66
5669.36
5487.94
5339.99
5218.37
5116.55
5031.07
4957.88
4895.44
4840.96
4793.93
4752.22
4715.91
4683.22
4654.6
4628.49
4605.55
4584.34
4565.67
4548.2
4532.85
4518.29
4505.52
4493.24
4482.53
4472.1
4463.04
4454.1
4446.4
4438.68
4432.09
4425.41
4419.74
4413.91
4409
4403.93
4399.67
4395.19
4391.51
4387.58
4384.36
4380.89
4378.05
4375.01
4372.53
4369.87
4367.73
4365.45
4363.49
4361.47
4359.78
4357.99
4356.5
4354.89
4353.62
4352.28
4351.23
4350
4349.15
4348.1
4347.36
4346.4
4345.8
4344.98
4344.54
4343.85
4343.49
4342.9
4342.59
4342.02
4341.67
4341.13
4340.85
4340.38
4340.15
4339.75
4339.58
4339.23
4339.16
4338.98
4339.08
4339.07
4339.37
4339.37
4339.84
4339.83
4340.61
4341.32
4370.21
4479.68
102153
8261.73
7569.23
6999.4
6542.02
6180.29
5895.43
5669.05
5487.55
5339.52
5217.84
5115.97
5030.43
4957.2
4894.72
4840.21
4793.15
4751.42
4715.07
4682.37
4653.73
4627.59
4604.64
4583.42
4564.74
4547.25
4531.89
4517.32
4504.54
4492.26
4481.54
4471.1
4462.03
4453.09
4445.37
4437.65
4431.05
4424.37
4418.7
4412.86
4407.95
4402.87
4398.61
4394.12
4390.44
4386.51
4383.29
4379.81
4376.97
4373.93
4371.44
4368.78
4366.64
4364.35
4362.4
4360.37
4358.68
4356.89
4355.4
4353.79
4352.51
4351.17
4350.12
4348.88
4348.04
4346.98
4346.25
4345.28
4344.68
4343.87
4343.42
4342.73
4342.37
4341.78
4341.47
4340.89
4340.55
4340.01
4339.72
4339.25
4339.02
4338.62
4338.45
4338.1
4338.02
4337.85
4337.95
4337.93
4338.23
4338.23
4338.69
4338.69
4339.46
4340.18
4369.28
4478.71
98256.3
8261.73
7569.25
6999.41
6541.96
6180.12
5895.15
5668.64
5487.04
5338.92
5217.15
5115.2
5029.6
4956.32
4893.79
4839.23
4792.13
4750.36
4713.99
4681.25
4652.59
4626.43
4603.45
4582.21
4563.52
4546.02
4530.64
4516.06
4503.26
4490.97
4480.24
4469.79
4460.71
4451.76
4444.04
4436.31
4429.7
4423.01
4417.33
4411.49
4406.57
4401.49
4397.23
4392.73
4389.05
4385.11
4381.89
4378.41
4375.56
4372.52
4370.03
4367.36
4365.22
4362.93
4360.97
4358.94
4357.25
4355.45
4353.96
4352.35
4351.07
4349.73
4348.67
4347.44
4346.59
4345.53
4344.8
4343.83
4343.22
4342.41
4341.96
4341.27
4340.91
4340.32
4340
4339.42
4339.08
4338.54
4338.25
4337.78
4337.55
4337.15
4336.97
4336.62
4336.55
4336.36
4336.46
4336.44
4336.74
4336.74
4337.19
4337.19
4337.96
4338.69
4368.07
4477.45
94396.7
8261.73
7569.28
6999.41
6541.88
6179.91
5894.79
5668.14
5486.41
5338.17
5216.3
5114.26
5028.58
4955.22
4892.63
4838.02
4790.87
4749.06
4712.64
4679.88
4651.18
4624.99
4601.99
4580.72
4562.01
4544.49
4529.09
4514.49
4501.68
4489.37
4478.63
4468.17
4459.08
4450.12
4442.39
4434.64
4428.03
4421.33
4415.65
4409.8
4404.87
4399.79
4395.51
4391.01
4387.33
4383.38
4380.15
4376.67
4373.81
4370.77
4368.28
4365.6
4363.46
4361.16
4359.2
4357.17
4355.47
4353.68
4352.18
4350.57
4349.29
4347.94
4346.88
4345.64
4344.79
4343.73
4343
4342.02
4341.42
4340.6
4340.15
4339.46
4339.09
4338.5
4338.19
4337.61
4337.26
4336.72
4336.43
4335.96
4335.73
4335.32
4335.15
4334.79
4334.72
4334.53
4334.62
4334.6
4334.89
4334.89
4335.34
4335.34
4336.11
4336.85
4366.57
4475.89
90593.1
8261.73
7569.32
6999.43
6541.79
6179.66
5894.37
5667.55
5485.65
5337.27
5215.28
5113.13
5027.35
4953.91
4891.25
4836.57
4789.36
4747.5
4711.04
4678.23
4649.49
4623.27
4600.24
4578.94
4560.2
4542.66
4527.24
4512.62
4499.79
4487.46
4476.71
4466.23
4457.13
4448.15
4440.41
4432.66
4426.04
4419.32
4413.63
4407.77
4402.84
4397.74
4393.46
4388.96
4385.26
4381.31
4378.08
4374.59
4371.73
4368.68
4366.18
4363.5
4361.35
4359.05
4357.09
4355.05
4353.35
4351.55
4350.05
4348.43
4347.15
4345.8
4344.74
4343.5
4342.64
4341.58
4340.84
4339.87
4339.26
4338.44
4337.99
4337.29
4336.93
4336.33
4336.01
4335.44
4335.09
4334.54
4334.25
4333.78
4333.55
4333.14
4332.96
4332.61
4332.53
4332.34
4332.42
4332.4
4332.69
4332.69
4333.13
4333.13
4333.89
4334.64
4364.78
4474.04
86854.3
8261.73
7569.36
6999.44
6541.68
6179.37
5893.87
5666.85
5484.77
5336.23
5214.09
5111.81
5025.92
4952.38
4889.63
4834.88
4787.61
4745.68
4709.16
4676.3
4647.52
4621.26
4598.19
4576.87
4558.1
4540.52
4525.08
4510.44
4497.59
4485.24
4474.46
4463.97
4454.85
4445.86
4438.1
4430.34
4423.7
4416.98
4411.28
4405.4
4400.46
4395.36
4391.07
4386.56
4382.86
4378.9
4375.66
4372.16
4369.29
4366.23
4363.73
4361.05
4358.89
4356.59
4354.62
4352.58
4350.87
4349.07
4347.57
4345.94
4344.66
4343.3
4342.24
4340.99
4340.14
4339.07
4338.33
4337.35
4336.74
4335.92
4335.46
4334.76
4334.39
4333.8
4333.48
4332.9
4332.55
4332
4331.71
4331.23
4331
4330.59
4330.41
4330.05
4329.97
4329.77
4329.86
4329.83
4330.11
4330.11
4330.55
4330.54
4331.3
4332.06
4362.7
4471.9
83183.3
8261.73
7569.4
6999.45
6541.56
6179.04
5893.31
5666.06
5483.77
5335.04
5212.73
5110.3
5024.29
4950.64
4887.79
4832.94
4785.59
4743.59
4707.02
4674.1
4645.27
4618.96
4595.85
4574.49
4555.68
4538.08
4522.6
4507.93
4495.06
4482.69
4471.89
4461.37
4452.24
4443.23
4435.46
4427.68
4421.03
4414.29
4408.58
4402.69
4397.74
4392.63
4388.33
4383.81
4380.1
4376.13
4372.88
4369.37
4366.5
4363.44
4360.93
4358.24
4356.07
4353.77
4351.79
4349.74
4348.03
4346.22
4344.72
4343.09
4341.8
4340.44
4339.37
4338.12
4337.26
4336.19
4335.45
4334.46
4333.85
4333.02
4332.57
4331.87
4331.49
4330.9
4330.57
4329.99
4329.64
4329.09
4328.79
4328.32
4328.08
4327.67
4327.49
4327.13
4327.04
4326.84
4326.92
4326.88
4327.16
4327.16
4327.58
4327.58
4328.34
4329.11
4360.32
4469.46
79578
8261.73
7569.45
6999.47
6541.42
6178.67
5892.68
5665.17
5482.64
5333.69
5211.2
5108.61
5022.45
4948.67
4885.7
4830.76
4783.32
4741.24
4704.6
4671.61
4642.73
4616.37
4593.21
4571.8
4552.96
4535.31
4519.81
4505.11
4492.2
4479.81
4468.99
4458.45
4449.3
4440.26
4432.47
4424.67
4418.01
4411.26
4405.53
4399.63
4394.67
4389.54
4385.23
4380.7
4376.98
4373
4369.74
4366.23
4363.35
4360.27
4357.76
4355.06
4352.89
4350.57
4348.6
4346.54
4344.83
4343.01
4341.5
4339.87
4338.57
4337.21
4336.13
4334.88
4334.01
4332.94
4332.19
4331.2
4330.59
4329.76
4329.3
4328.59
4328.22
4327.61
4327.29
4326.7
4326.35
4325.8
4325.5
4325.02
4324.78
4324.36
4324.18
4323.82
4323.73
4323.52
4323.59
4323.55
4323.82
4323.82
4324.24
4324.23
4324.98
4325.77
4357.63
4466.72
76032.9
8261.73
7569.51
6999.49
6541.27
6178.25
5891.97
5664.18
5481.39
5332.2
5209.49
5106.71
5020.39
4946.47
4883.38
4828.33
4780.79
4738.62
4701.89
4668.84
4639.89
4613.47
4590.26
4568.8
4549.91
4532.23
4516.69
4501.95
4489.02
4476.59
4465.74
4455.18
4446
4436.95
4429.14
4421.32
4414.64
4407.87
4402.12
4396.21
4391.24
4386.09
4381.77
4377.22
4373.49
4369.5
4366.24
4362.71
4359.83
4356.74
4354.22
4351.51
4349.33
4347.01
4345.03
4342.96
4341.24
4339.42
4337.9
4336.26
4334.96
4333.59
4332.52
4331.25
4330.38
4329.3
4328.55
4327.56
4326.94
4326.1
4325.64
4324.93
4324.55
4323.95
4323.62
4323.03
4322.68
4322.12
4321.82
4321.34
4321.09
4320.67
4320.49
4320.12
4320.03
4319.81
4319.88
4319.83
4320.09
4320.09
4320.5
4320.49
4321.24
4322.05
4354.64
4463.7
72544.1
8261.73
7569.57
6999.51
6541.1
6177.8
5891.2
5663.09
5480
5330.55
5207.61
5104.63
5018.13
4944.04
4880.81
4825.63
4777.98
4735.72
4698.91
4665.77
4636.75
4610.27
4587
4565.48
4546.55
4528.82
4513.24
4498.46
4485.49
4473.03
4462.15
4451.56
4442.36
4433.28
4425.45
4417.61
4410.91
4404.12
4398.36
4392.43
4387.43
4382.28
4377.94
4373.38
4369.64
4365.64
4362.36
4358.82
4355.93
4352.83
4350.3
4347.58
4345.4
4343.06
4341.07
4339
4337.27
4335.44
4333.92
4332.28
4330.97
4329.59
4328.51
4327.24
4326.37
4325.28
4324.53
4323.53
4322.91
4322.06
4321.59
4320.88
4320.5
4319.89
4319.56
4318.97
4318.61
4318.05
4317.75
4317.26
4317.01
4316.59
4316.4
4316.03
4315.93
4315.71
4315.77
4315.71
4315.96
4315.96
4316.35
4316.35
4317.09
4317.92
4351.33
4460.38
69118.1
8261.73
7569.64
6999.54
6540.93
6177.31
5890.36
5661.9
5478.49
5328.74
5205.55
5102.34
5015.64
4941.38
4878
4822.68
4774.91
4732.54
4695.63
4662.41
4633.31
4606.75
4583.42
4561.84
4542.85
4525.07
4509.45
4494.63
4481.62
4469.12
4458.21
4447.59
4438.36
4429.25
4421.4
4413.53
4406.81
4400
4394.22
4388.27
4383.26
4378.09
4373.74
4369.16
4365.41
4361.39
4358.1
4354.55
4351.64
4348.54
4346
4343.27
4341.07
4338.73
4336.73
4334.65
4332.92
4331.08
4329.55
4327.9
4326.59
4325.2
4324.11
4322.84
4321.95
4320.86
4320.1
4319.1
4318.47
4317.62
4317.15
4316.43
4316.04
4315.43
4315.1
4314.51
4314.15
4313.58
4313.27
4312.78
4312.53
4312.1
4311.91
4311.54
4311.44
4311.2
4311.25
4311.19
4311.43
4311.43
4311.81
4311.81
4312.54
4313.39
4347.7
4456.77
65761
8261.73
7569.71
6999.56
6540.73
6176.78
5889.45
5660.6
5476.84
5326.78
5203.31
5099.85
5012.94
4938.49
4874.94
4819.47
4771.57
4729.07
4692.06
4658.74
4629.55
4602.92
4579.51
4557.87
4538.83
4520.99
4505.31
4490.45
4477.4
4464.86
4453.92
4443.26
4434
4424.86
4416.98
4409.09
4402.34
4395.51
4389.71
4383.74
4378.71
4373.52
4369.15
4364.56
4360.79
4356.76
4353.45
4349.89
4346.97
4343.85
4341.3
4338.56
4336.36
4334
4332
4329.9
4328.16
4326.32
4324.78
4323.12
4321.8
4320.4
4319.31
4318.03
4317.14
4316.04
4315.28
4314.27
4313.63
4312.78
4312.3
4311.58
4311.19
4310.57
4310.23
4309.63
4309.27
4308.7
4308.39
4307.89
4307.64
4307.21
4307.01
4306.63
4306.53
4306.29
4306.33
4306.25
4306.48
4306.48
4306.85
4306.84
4307.57
4308.45
4343.74
4452.88
62478.3
8261.73
7569.79
6999.6
6540.53
6176.22
5888.46
5659.21
5475.07
5324.66
5200.89
5097.16
5010.01
4935.35
4871.62
4815.99
4767.95
4725.32
4688.19
4654.77
4625.49
4598.76
4575.28
4553.57
4534.46
4516.57
4500.84
4485.92
4472.83
4460.24
4449.26
4438.56
4429.27
4420.1
4412.19
4404.27
4397.5
4390.63
4384.81
4378.82
4373.77
4368.56
4364.18
4359.57
4355.78
4351.73
4348.41
4344.84
4341.91
4338.77
4336.21
4333.46
4331.24
4328.87
4326.86
4324.76
4323.01
4321.15
4319.61
4317.94
4316.61
4315.2
4314.1
4312.81
4311.92
4310.81
4310.04
4309.03
4308.39
4307.52
4307.04
4306.31
4305.91
4305.29
4304.95
4304.35
4303.98
4303.41
4303.09
4302.59
4302.33
4301.89
4301.69
4301.31
4301.2
4300.95
4300.98
4300.9
4301.11
4301.11
4301.46
4301.46
4302.18
4303.09
4339.44
4448.71
59275.4
8261.73
7569.88
6999.63
6540.31
6175.61
5887.41
5657.72
5473.16
5322.39
5198.29
5094.27
5006.87
4931.98
4868.05
4812.24
4764.04
4721.27
4684.02
4650.48
4621.1
4594.29
4570.72
4548.93
4529.75
4511.79
4496
4481.03
4467.89
4455.26
4444.23
4433.49
4424.17
4414.96
4407.02
4399.06
4392.27
4385.38
4379.53
4373.51
4368.44
4363.21
4358.81
4354.18
4350.37
4346.31
4342.97
4339.38
4336.44
4333.29
4330.71
4327.94
4325.71
4323.34
4321.31
4319.2
4317.44
4315.57
4314.02
4312.34
4311.01
4309.59
4308.48
4307.18
4306.28
4305.16
4304.39
4303.36
4302.72
4301.85
4301.36
4300.62
4300.22
4299.59
4299.25
4298.64
4298.27
4297.7
4297.37
4296.86
4296.6
4296.16
4295.95
4295.57
4295.45
4295.19
4295.21
4295.12
4295.32
4295.32
4295.65
4295.65
4296.35
4297.3
4334.8
4444.26
56157.1
8261.73
7569.97
6999.67
6540.08
6174.96
5886.29
5656.12
5471.12
5319.95
5195.5
5091.17
5003.49
4928.36
4864.22
4808.23
4759.85
4716.93
4679.55
4645.89
4616.4
4589.48
4565.83
4543.95
4524.7
4506.67
4490.82
4475.78
4462.59
4449.91
4438.84
4428.05
4418.68
4409.44
4401.46
4393.47
4386.65
4379.73
4373.85
4367.81
4362.72
4357.46
4353.04
4348.38
4344.56
4340.47
4337.13
4333.52
4330.56
4327.39
4324.8
4322.02
4319.78
4317.39
4315.35
4313.22
4311.46
4309.57
4308.02
4306.32
4304.98
4303.55
4302.44
4301.13
4300.22
4299.09
4298.31
4297.28
4296.63
4295.75
4295.25
4294.51
4294.1
4293.47
4293.12
4292.51
4292.14
4291.55
4291.23
4290.71
4290.44
4289.99
4289.78
4289.39
4289.27
4289.01
4289.01
4288.9
4289.09
4289.09
4289.4
4289.4
4290.1
4291.08
4329.8
4439.54
53127.9
8261.72
7570.06
6999.71
6539.85
6174.28
5885.1
5654.42
5468.96
5317.36
5192.53
5087.86
4999.89
4924.5
4860.13
4803.93
4755.38
4712.3
4674.76
4640.97
4611.36
4584.34
4560.59
4538.63
4519.29
4501.18
4485.26
4470.17
4456.92
4444.18
4433.06
4422.23
4412.82
4403.53
4395.52
4387.49
4380.63
4373.68
4367.78
4361.71
4356.59
4351.3
4346.86
4342.18
4338.34
4334.23
4330.87
4327.24
4324.26
4321.08
4318.48
4315.68
4313.42
4311.02
4308.97
4306.83
4305.05
4303.15
4301.59
4299.88
4298.53
4297.09
4295.97
4294.64
4293.73
4292.59
4291.81
4290.76
4290.11
4289.22
4288.71
4287.96
4287.55
4286.91
4286.56
4285.94
4285.56
4284.97
4284.64
4284.12
4283.85
4283.39
4283.17
4282.78
4282.65
4282.38
4282.37
4282.25
4282.42
4282.42
4282.72
4282.71
4283.4
4284.42
4324.42
4434.51
50191.8
8261.72
7570.17
6999.76
6539.59
6173.56
5883.84
5652.63
5466.66
5314.6
5189.37
5084.35
4996.06
4920.4
4855.78
4799.36
4750.62
4707.36
4669.67
4635.73
4606
4578.86
4555.01
4532.95
4513.53
4495.34
4479.35
4464.18
4450.87
4438.07
4426.9
4416.01
4406.56
4397.23
4389.17
4381.11
4374.22
4367.23
4361.3
4355.19
4350.05
4344.73
4340.27
4335.57
4331.7
4327.57
4324.19
4320.54
4317.55
4314.35
4311.73
4308.91
4306.64
4304.22
4302.16
4300
4298.21
4296.3
4294.73
4293.01
4291.65
4290.19
4289.06
4287.73
4286.8
4285.65
4284.86
4283.81
4283.14
4282.25
4281.74
4280.97
4280.55
4279.91
4279.55
4278.93
4278.55
4277.95
4277.61
4277.08
4276.8
4276.34
4276.12
4275.72
4275.58
4275.31
4275.28
4275.14
4275.31
4275.3
4275.58
4275.57
4276.25
4277.31
4318.65
4429.17
47352.7
8261.72
7570.27
6999.81
6539.33
6172.81
5882.52
5650.73
5464.23
5311.69
5186.02
5080.62
4992.01
4916.04
4851.16
4794.51
4745.56
4702.11
4664.26
4630.17
4600.31
4573.04
4549.08
4526.91
4507.4
4489.12
4473.06
4457.82
4444.44
4431.58
4420.35
4409.41
4399.91
4390.53
4382.43
4374.32
4367.39
4360.37
4354.4
4348.27
4343.1
4337.75
4333.26
4328.53
4324.64
4320.49
4317.09
4313.42
4310.4
4307.18
4304.55
4301.71
4299.42
4296.98
4294.91
4292.74
4290.94
4289.01
4287.43
4285.7
4284.32
4282.85
4281.72
4280.37
4279.43
4278.27
4277.47
4276.41
4275.74
4274.83
4274.31
4273.54
4273.11
4272.46
4272.1
4271.47
4271.08
4270.48
4270.14
4269.6
4269.31
4268.84
4268.61
4268.2
4268.06
4267.78
4267.74
4267.59
4267.74
4267.73
4267.99
4267.97
4268.64
4269.75
4312.48
4423.48
44614.1
8261.72
7570.39
6999.87
6539.06
6172.02
5881.13
5648.74
5461.67
5308.61
5182.5
5076.69
4987.72
4911.44
4846.28
4789.38
4740.21
4696.56
4658.53
4624.28
4594.27
4566.87
4542.79
4520.52
4500.91
4482.54
4466.39
4451.07
4437.62
4424.69
4413.4
4402.41
4392.85
4383.42
4375.28
4367.13
4360.16
4353.09
4347.09
4340.92
4335.72
4330.34
4325.83
4321.07
4317.16
4312.98
4309.55
4305.86
4302.83
4299.58
4296.93
4294.07
4291.77
4289.31
4287.23
4285.04
4283.22
4281.28
4279.69
4277.94
4276.55
4275.07
4273.92
4272.56
4271.62
4270.44
4269.63
4268.56
4267.88
4266.96
4266.43
4265.65
4265.22
4264.56
4264.19
4263.55
4263.16
4262.55
4262.2
4261.65
4261.36
4260.88
4260.65
4260.23
4260.08
4259.79
4259.74
4259.57
4259.71
4259.69
4259.93
4259.91
4260.56
4261.72
4305.88
4417.41
41978.9
8261.71
7570.5
6999.93
6538.79
6171.19
5879.67
5646.64
5458.98
5305.38
5178.78
5072.54
4983.19
4906.58
4841.13
4783.96
4734.56
4690.7
4652.48
4618.06
4587.9
4560.36
4536.15
4513.76
4494.05
4475.58
4459.34
4443.94
4430.41
4417.41
4406.06
4395
4385.39
4375.91
4367.72
4359.52
4352.51
4345.4
4339.36
4333.16
4327.92
4322.51
4317.96
4313.17
4309.23
4305.03
4301.58
4297.86
4294.81
4291.54
4288.87
4285.99
4283.67
4281.19
4279.09
4276.88
4275.06
4273.1
4271.49
4269.73
4268.33
4266.83
4265.67
4264.3
4263.34
4262.16
4261.34
4260.26
4259.56
4258.63
4258.1
4257.3
4256.86
4256.19
4255.82
4255.17
4254.78
4254.16
4253.8
4253.25
4252.95
4252.46
4252.22
4251.8
4251.64
4251.34
4251.28
4251.09
4251.21
4251.18
4251.41
4251.37
4252.02
4253.23
4298.83
4410.93
39449.9
8261.71
7570.62
6999.99
6538.5
6170.34
5878.15
5644.45
5456.16
5301.99
5174.88
5068.19
4978.44
4901.47
4835.71
4778.26
4728.61
4684.53
4646.11
4611.51
4581.19
4553.5
4529.16
4506.64
4486.81
4468.24
4451.91
4436.42
4422.81
4409.74
4398.32
4387.19
4377.52
4367.98
4359.74
4351.49
4344.43
4337.28
4331.2
4324.96
4319.69
4314.24
4309.66
4304.84
4300.87
4296.64
4293.16
4289.42
4286.35
4283.06
4280.36
4277.46
4275.12
4272.62
4270.51
4268.28
4266.44
4264.46
4262.84
4261.06
4259.65
4258.13
4256.97
4255.57
4254.61
4253.41
4252.58
4251.48
4250.78
4249.84
4249.29
4248.49
4248.04
4247.36
4246.98
4246.33
4245.93
4245.3
4244.94
4244.37
4244.07
4243.57
4243.32
4242.89
4242.72
4242.41
4242.34
4242.13
4242.24
4242.21
4242.41
4242.36
4243
4244.26
4291.3
4404.02
37029.5
8261.7
7570.75
7000.07
6538.21
6169.45
5876.57
5642.17
5453.21
5298.44
5170.79
5063.62
4973.45
4896.11
4830.01
4772.27
4722.36
4678.04
4639.41
4604.62
4574.13
4546.28
4521.79
4499.15
4479.2
4460.52
4444.09
4428.5
4414.81
4401.66
4390.16
4378.97
4369.24
4359.63
4351.34
4343.04
4335.93
4328.73
4322.61
4316.32
4311.02
4305.53
4300.92
4296.07
4292.07
4287.8
4284.3
4280.53
4277.43
4274.12
4271.4
4268.48
4266.12
4263.6
4261.47
4259.21
4257.36
4255.36
4253.73
4251.93
4250.51
4248.97
4247.79
4246.39
4245.41
4244.19
4243.35
4242.24
4241.53
4240.58
4240.02
4239.21
4238.75
4238.06
4237.67
4237.01
4236.6
4235.96
4235.59
4235.02
4234.71
4234.2
4233.95
4233.5
4233.33
4233.01
4232.92
4232.69
4232.79
4232.75
4232.93
4232.87
4233.5
4234.81
4283.27
4396.64
34719.8
8261.69
7570.88
7000.14
6537.9
6168.53
5874.93
5639.79
5450.14
5294.73
5166.52
5058.85
4968.23
4890.49
4824.05
4765.99
4715.8
4671.24
4632.39
4597.39
4566.72
4538.7
4514.07
4491.28
4471.21
4452.41
4435.88
4420.19
4406.41
4393.17
4381.6
4370.33
4360.53
4350.86
4342.51
4334.15
4327
4319.75
4313.58
4307.25
4301.9
4296.37
4291.73
4286.84
4282.81
4278.52
4274.99
4271.19
4268.06
4264.72
4261.98
4259.03
4256.65
4254.11
4251.96
4249.68
4247.81
4245.8
4244.15
4242.33
4240.9
4239.34
4238.15
4236.72
4235.73
4234.5
4233.65
4232.53
4231.81
4230.84
4230.27
4229.44
4228.97
4228.27
4227.88
4227.21
4226.79
4226.15
4225.77
4225.19
4224.87
4224.35
4224.08
4223.63
4223.45
4223.12
4223.02
4222.77
4222.85
4222.8
4222.96
4222.89
4223.51
4224.87
4274.69
4388.75
32522.5
8261.68
7571.02
7000.23
6537.6
6167.58
5873.23
5637.31
5446.94
5290.87
5162.06
5053.86
4962.78
4884.62
4817.81
4759.43
4708.95
4664.11
4625.03
4589.82
4558.95
4530.76
4505.97
4483.04
4462.84
4443.91
4427.27
4411.47
4397.61
4384.27
4372.62
4361.27
4351.41
4341.67
4333.26
4324.84
4317.63
4310.32
4304.11
4297.73
4292.34
4286.77
4282.1
4277.17
4273.11
4268.77
4265.21
4261.38
4258.23
4254.86
4252.1
4249.12
4246.72
4244.15
4241.98
4239.68
4237.79
4235.76
4234.09
4232.26
4230.81
4229.23
4228.02
4226.58
4225.58
4224.33
4223.47
4222.33
4221.6
4220.61
4220.04
4219.19
4218.72
4218
4217.6
4216.92
4216.5
4215.84
4215.46
4214.86
4214.54
4214
4213.73
4213.27
4213.08
4212.74
4212.63
4212.36
4212.42
4212.36
4212.5
4212.41
4213.02
4214.44
4265.53
4380.31
30439.2
8261.67
7571.16
7000.31
6537.29
6166.61
5871.47
5634.75
5443.61
5286.85
5157.42
5048.66
4957.09
4878.5
4811.31
4752.57
4701.78
4656.67
4617.35
4581.91
4550.84
4522.46
4497.51
4474.42
4454.08
4435.02
4418.26
4402.36
4388.39
4374.96
4363.22
4351.79
4341.85
4332.04
4323.57
4315.08
4307.82
4300.46
4294.2
4287.77
4282.33
4276.72
4272
4267.03
4262.94
4258.57
4254.98
4251.11
4247.94
4244.53
4241.75
4238.74
4236.31
4233.72
4231.53
4229.21
4227.3
4225.24
4223.56
4221.7
4220.24
4218.64
4217.42
4215.96
4214.94
4213.67
4212.8
4211.65
4210.91
4209.9
4209.31
4208.46
4207.97
4207.24
4206.83
4206.14
4205.71
4205.05
4204.65
4204.05
4203.71
4203.17
4202.89
4202.41
4202.21
4201.86
4201.74
4201.46
4201.49
4201.42
4201.54
4201.43
4202.03
4203.51
4255.75
4371.29
28471.2
8261.66
7571.31
7000.41
6536.97
6165.61
5869.65
5632.1
5440.17
5282.68
5152.6
5043.26
4951.18
4872.12
4804.53
4745.43
4694.32
4648.92
4609.33
4573.65
4542.37
4513.8
4488.67
4465.42
4444.93
4425.74
4408.85
4392.83
4378.76
4365.23
4353.4
4341.88
4331.87
4321.98
4313.44
4304.89
4297.56
4290.14
4283.83
4277.35
4271.87
4266.21
4261.45
4256.44
4252.3
4247.9
4244.27
4240.37
4237.17
4233.73
4230.92
4227.89
4225.43
4222.81
4220.6
4218.25
4216.32
4214.24
4212.55
4210.67
4209.19
4207.56
4206.33
4204.85
4203.81
4202.53
4201.64
4200.47
4199.72
4198.7
4198.1
4197.23
4196.73
4195.99
4195.57
4194.87
4194.43
4193.75
4193.35
4192.73
4192.39
4191.83
4191.54
4191.05
4190.84
4190.47
4190.34
4190.05
4190.06
4189.98
4190.08
4189.95
4190.54
4192.07
4245.34
4361.64
26619.7
8261.65
7571.45
7000.51
6536.66
6164.58
5867.78
5629.36
5436.61
5278.35
5147.6
5037.65
4945.03
4865.49
4797.47
4737.99
4686.55
4640.84
4600.98
4565.05
4533.55
4504.77
4479.46
4456.03
4435.4
4416.06
4399.04
4382.89
4368.71
4355.08
4343.16
4331.54
4321.45
4311.48
4302.87
4294.24
4286.86
4279.38
4273.01
4266.47
4260.95
4255.23
4250.43
4245.37
4241.2
4236.75
4233.1
4229.16
4225.92
4222.46
4219.61
4216.55
4214.06
4211.41
4209.19
4206.81
4204.86
4202.75
4201.04
4199.14
4197.64
4195.99
4194.74
4193.24
4192.19
4190.88
4189.99
4188.8
4188.03
4187
4186.38
4185.49
4184.98
4184.23
4183.8
4183.09
4182.65
4181.95
4181.54
4180.91
4180.56
4179.99
4179.69
4179.19
4178.96
4178.58
4178.44
4178.14
4178.13
4178.03
4178.1
4177.96
4178.53
4180.12
4234.3
4351.34
24885.9
8261.64
7571.61
7000.62
6536.34
6163.53
5865.86
5626.54
5432.93
5273.88
5142.42
5031.83
4938.65
4858.61
4790.15
4730.27
4678.47
4632.44
4592.29
4556.1
4524.37
4495.37
4469.87
4446.26
4425.47
4405.97
4388.82
4372.55
4358.25
4344.5
4332.48
4320.77
4310.59
4300.54
4291.85
4283.16
4275.71
4268.16
4261.73
4255.14
4249.56
4243.79
4238.95
4233.84
4229.63
4225.14
4221.44
4217.47
4214.2
4210.7
4207.83
4204.73
4202.22
4199.53
4197.28
4194.88
4192.91
4190.77
4189.04
4187.11
4185.6
4183.92
4182.66
4181.14
4180.07
4178.74
4177.83
4176.63
4175.85
4174.79
4174.16
4173.26
4172.74
4171.97
4171.53
4170.8
4170.35
4169.65
4169.23
4168.58
4168.22
4167.63
4167.33
4166.81
4166.58
4166.18
4166.03
4165.71
4165.68
4165.56
4165.62
4165.44
4166.01
4167.66
4222.63
4340.33
23270.6
8261.62
7571.76
7000.73
6536.02
6162.47
5863.89
5623.64
5429.13
5269.27
5137.06
5025.81
4932.05
4851.48
4782.55
4722.26
4670.08
4623.72
4583.27
4546.81
4514.83
4485.61
4459.9
4436.11
4415.14
4395.49
4378.2
4361.78
4347.37
4333.5
4321.38
4309.57
4299.3
4289.15
4280.39
4271.62
4264.1
4256.48
4250
4243.34
4237.71
4231.88
4226.99
4221.84
4217.58
4213.05
4209.31
4205.3
4202
4198.45
4195.55
4192.42
4189.88
4187.16
4184.89
4182.45
4180.46
4178.3
4176.55
4174.59
4173.06
4171.36
4170.08
4168.53
4167.45
4166.1
4165.17
4163.95
4163.15
4162.08
4161.43
4160.51
4159.98
4159.2
4158.74
4158.01
4157.55
4156.83
4156.4
4155.74
4155.36
4154.77
4154.45
4153.92
4153.67
4153.26
4153.1
4152.76
4152.72
4152.58
4152.61
4152.41
4152.97
4154.67
4210.32
4328.59
21769.6
8261.61
7571.92
7000.86
6535.7
6161.38
5861.88
5620.66
5425.23
5264.51
5131.53
5019.6
4925.22
4844.1
4774.69
4713.96
4661.4
4614.68
4573.92
4537.17
4504.94
4475.48
4449.56
4425.56
4404.43
4384.6
4367.16
4350.61
4336.06
4322.07
4309.84
4297.93
4287.56
4277.32
4268.48
4259.62
4252.03
4244.34
4237.8
4231.07
4225.38
4219.5
4214.56
4209.36
4205.06
4200.47
4196.7
4192.64
4189.3
4185.72
4182.79
4179.62
4177.05
4174.3
4172
4169.53
4167.52
4165.32
4163.55
4161.57
4160.02
4158.29
4156.99
4155.42
4154.31
4152.94
4152
4150.76
4149.95
4148.85
4148.19
4147.25
4146.7
4145.91
4145.44
4144.69
4144.22
4143.49
4143.05
4142.38
4141.99
4141.38
4141.05
4140.51
4140.25
4139.82
4139.64
4139.29
4139.23
4139.08
4139.08
4138.85
4139.4
4141.15
4197.39
4316.07
20378.3
8261.59
7572.09
7000.98
6535.38
6160.28
5859.82
5617.6
5421.22
5259.61
5125.84
5013.18
4918.16
4836.48
4766.56
4705.37
4652.41
4605.32
4564.24
4527.19
4494.69
4464.98
4438.84
4414.64
4393.31
4373.32
4355.72
4339.01
4324.34
4310.22
4297.87
4285.84
4275.38
4265.05
4256.12
4247.17
4239.51
4231.74
4225.13
4218.33
4212.59
4206.65
4201.66
4196.39
4192.05
4187.41
4183.6
4179.5
4176.12
4172.5
4169.53
4166.32
4163.72
4160.93
4158.61
4156.11
4154.07
4151.84
4150.05
4148.04
4146.47
4144.71
4143.39
4141.79
4140.67
4139.28
4138.32
4137.05
4136.23
4135.11
4134.44
4133.48
4132.91
4132.1
4131.63
4130.86
4130.38
4129.63
4129.18
4128.49
4128.09
4127.47
4127.12
4126.57
4126.29
4125.85
4125.66
4125.3
4125.21
4125.05
4125.02
4124.76
4125.3
4127.09
4183.81
4302.75
19091.6
8261.57
7572.25
7001.12
6535.06
6159.16
5857.72
5614.48
5417.1
5254.57
5119.97
5006.57
4910.89
4828.61
4758.17
4696.5
4643.12
4595.64
4554.22
4516.86
4484.08
4454.11
4427.74
4403.32
4381.8
4361.62
4343.86
4327
4312.19
4297.93
4285.47
4273.32
4262.75
4252.32
4243.3
4234.26
4226.52
4218.67
4211.99
4205.13
4199.32
4193.31
4188.27
4182.95
4178.55
4173.87
4170.01
4165.86
4162.45
4158.78
4155.78
4152.53
4149.89
4147.07
4144.71
4142.18
4140.12
4137.85
4136.04
4134
4132.41
4130.62
4129.28
4127.66
4126.52
4125.09
4124.12
4122.83
4121.99
4120.85
4120.16
4119.18
4118.6
4117.77
4117.28
4116.5
4116.01
4115.25
4114.79
4114.08
4113.67
4113.03
4112.67
4112.1
4111.81
4111.35
4111.15
4110.77
4110.67
4110.48
4110.43
4110.13
4110.67
4112.5
4169.6
4288.59
17904.4
8261.55
7572.42
7001.26
6534.75
6158.03
5855.59
5611.28
5412.89
5249.41
5113.95
4999.77
4903.4
4820.5
4749.51
4687.35
4633.53
4585.65
4543.88
4506.18
4473.11
4442.87
4416.26
4391.62
4369.9
4349.53
4331.6
4314.57
4299.61
4285.21
4272.63
4260.36
4249.68
4239.14
4230.03
4220.9
4213.07
4205.14
4198.39
4191.45
4185.58
4179.5
4174.4
4169.02
4164.57
4159.83
4155.93
4151.73
4148.28
4144.57
4141.52
4138.24
4135.56
4132.7
4130.32
4127.74
4125.65
4123.36
4121.52
4119.45
4117.83
4116.01
4114.65
4113
4111.84
4110.39
4109.4
4108.09
4107.23
4106.07
4105.36
4104.36
4103.77
4102.92
4102.42
4101.62
4101.12
4100.34
4099.86
4099.14
4098.72
4098.06
4097.69
4097.1
4096.8
4096.32
4096.11
4095.7
4095.59
4095.38
4095.31
4094.97
4095.5
4097.37
4154.75
4273.56
16811.2
8261.53
7572.59
7001.41
6534.45
6156.89
5853.42
5608.02
5408.58
5244.11
5107.76
4992.78
4895.7
4812.16
4740.6
4677.92
4623.64
4575.35
4533.2
4495.17
4461.79
4431.27
4404.41
4379.53
4357.6
4337.03
4318.92
4301.72
4286.61
4272.07
4259.35
4246.95
4236.16
4225.51
4216.3
4207.07
4199.16
4191.14
4184.31
4177.29
4171.36
4165.21
4160.05
4154.61
4150.11
4145.31
4141.36
4137.11
4133.61
4129.85
4126.77
4123.44
4120.73
4117.82
4115.41
4112.8
4110.68
4108.35
4106.49
4104.39
4102.75
4100.89
4099.51
4097.83
4096.65
4095.17
4094.16
4092.83
4091.95
4090.77
4090.04
4089.02
4088.4
4087.53
4087.02
4086.2
4085.69
4084.9
4084.41
4083.67
4083.23
4082.55
4082.17
4081.56
4081.25
4080.75
4080.52
4080.1
4079.97
4079.75
4079.65
4079.27
4079.79
4081.69
4139.26
4257.64
15806.3
8261.5
7572.76
7001.57
6534.14
6155.74
5851.22
5604.71
5404.17
5238.7
5101.43
4985.61
4887.79
4803.58
4731.43
4668.21
4613.46
4564.74
4522.2
4483.81
4450.12
4419.31
4392.18
4367.05
4344.91
4324.12
4305.83
4288.45
4273.19
4258.49
4245.64
4233.1
4222.2
4211.43
4202.11
4192.78
4184.78
4176.67
4169.76
4162.67
4156.66
4150.44
4145.22
4139.71
4135.15
4130.29
4126.29
4121.99
4118.45
4114.64
4111.52
4108.14
4105.39
4102.44
4100
4097.34
4095.2
4092.83
4090.94
4088.8
4087.14
4085.25
4083.85
4082.14
4080.93
4079.43
4078.39
4077.03
4076.14
4074.93
4074.18
4073.14
4072.51
4071.62
4071.09
4070.26
4069.73
4068.92
4068.42
4067.66
4067.21
4066.51
4066.12
4065.49
4065.16
4064.64
4064.4
4063.96
4063.81
4063.57
4063.45
4063.03
4063.54
4065.46
4123.13
4240.78
14883.8
8261.48
7572.93
7001.74
6533.85
6154.59
5848.99
5601.33
5399.68
5233.16
5094.94
4978.27
4879.68
4794.78
4722.01
4658.24
4602.99
4553.82
4510.88
4472.12
4438.1
4406.98
4379.58
4354.2
4331.82
4310.82
4292.33
4274.77
4259.34
4244.48
4231.49
4218.81
4207.79
4196.89
4187.47
4178.04
4169.94
4161.73
4154.74
4147.56
4141.48
4135.18
4129.9
4124.32
4119.7
4114.78
4110.73
4106.37
4102.78