/*--------------------------------*- C++ -*----------------------------------*\
| =========                 |                                                 |
| \\      /  F ield         | OpenFOAM: The Open Source CFD Toolbox           |
|  \\    /   O peration     | Version:  v2012                                 |
|   \\  /    A nd           | Website:  www.openfoam.com                      |
|    \\/     M anipulation  |                                                 |
\*---------------------------------------------------------------------------*/
FoamFile
{
    version     2.0;
    format      ascii;
    class       volVectorField;
    location    "47.5";
    object      wallShearStress;
}
// * * * * * * * * * * * * * * * * * * * * * * * * * * * * * * * * * * * * * //

dimensions      [0 2 -2 0 0 0 0];


internalField   uniform (0 0 0);

boundaryField
{
    inlet
    {
        type            calculated;
        value           uniform (0 0 0);
    }
    outlet
    {
        type            calculated;
        value           uniform (0 0 0);
    }
    topWall
    {
        type            calculated;
        value           nonuniform List<vector> 
545
(
(3.67464e-08 -2.58663e-08 0)
(3.6735e-08 -7.23581e-08 0)
(3.6715e-08 -1.20704e-07 0)
(3.66865e-08 -1.67651e-07 0)
(3.66507e-08 -2.12601e-07 0)
(3.66084e-08 -2.56129e-07 0)
(3.65601e-08 -2.98607e-07 0)
(3.65062e-08 -3.40015e-07 0)
(3.64471e-08 -3.80262e-07 0)
(3.63834e-08 -4.19347e-07 0)
(3.63155e-08 -4.57322e-07 0)
(3.62438e-08 -4.94231e-07 0)
(3.61687e-08 -5.30098e-07 0)
(3.60905e-08 -5.64945e-07 0)
(3.60096e-08 -5.98797e-07 0)
(3.59263e-08 -6.3168e-07 0)
(3.58408e-08 -6.63622e-07 0)
(3.57535e-08 -6.94646e-07 0)
(3.56646e-08 -7.24777e-07 0)
(3.55743e-08 -7.5404e-07 0)
(3.5483e-08 -7.82459e-07 0)
(3.53907e-08 -8.10056e-07 0)
(3.52977e-08 -8.36856e-07 0)
(3.52041e-08 -8.6288e-07 0)
(3.51102e-08 -8.8815e-07 0)
(3.50161e-08 -9.12688e-07 0)
(3.49219e-08 -9.36515e-07 0)
(3.48278e-08 -9.59651e-07 0)
(3.47338e-08 -9.82116e-07 0)
(3.46402e-08 -1.00393e-06 0)
(3.4547e-08 -1.02511e-06 0)
(3.44544e-08 -1.04568e-06 0)
(3.43623e-08 -1.06565e-06 0)
(3.4271e-08 -1.08504e-06 0)
(3.41804e-08 -1.10387e-06 0)
(3.40906e-08 -1.12216e-06 0)
(3.40017e-08 -1.13992e-06 0)
(3.39138e-08 -1.15716e-06 0)
(3.38269e-08 -1.17391e-06 0)
(3.3741e-08 -1.19017e-06 0)
(3.36563e-08 -1.20597e-06 0)
(3.35726e-08 -1.22131e-06 0)
(3.34901e-08 -1.23621e-06 0)
(3.34088e-08 -1.25068e-06 0)
(3.33287e-08 -1.26473e-06 0)
(3.32498e-08 -1.27838e-06 0)
(3.31721e-08 -1.29164e-06 0)
(3.30957e-08 -1.30452e-06 0)
(3.30206e-08 -1.31703e-06 0)
(3.29467e-08 -1.32919e-06 0)
(3.28741e-08 -1.341e-06 0)
(3.28028e-08 -1.35247e-06 0)
(3.27328e-08 -1.36361e-06 0)
(3.2664e-08 -1.37444e-06 0)
(3.25966e-08 -1.38496e-06 0)
(3.25304e-08 -1.39519e-06 0)
(3.24654e-08 -1.40512e-06 0)
(3.24018e-08 -1.41477e-06 0)
(3.23394e-08 -1.42415e-06 0)
(3.22782e-08 -1.43326e-06 0)
(3.22182e-08 -1.44212e-06 0)
(3.21595e-08 -1.45073e-06 0)
(3.2102e-08 -1.45909e-06 0)
(3.20457e-08 -1.46722e-06 0)
(3.19906e-08 -1.47513e-06 0)
(3.19366e-08 -1.48281e-06 0)
(3.18838e-08 -1.49027e-06 0)
(3.18321e-08 -1.49753e-06 0)
(3.17815e-08 -1.50459e-06 0)
(3.17321e-08 -1.51144e-06 0)
(3.16837e-08 -1.51811e-06 0)
(3.16367e-08 -1.52458e-06 0)
(3.1591e-08 -1.53081e-06 0)
(3.15459e-08 -1.53686e-06 0)
(3.15014e-08 -1.54284e-06 0)
(3.14569e-08 -1.54879e-06 0)
(3.14125e-08 -1.55471e-06 0)
(3.13682e-08 -1.5606e-06 0)
(3.13239e-08 -1.56645e-06 0)
(3.12796e-08 -1.57227e-06 0)
(3.12354e-08 -1.57805e-06 0)
(3.11912e-08 -1.5838e-06 0)
(3.11471e-08 -1.58951e-06 0)
(3.1103e-08 -1.59519e-06 0)
(3.10589e-08 -1.60083e-06 0)
(3.10149e-08 -1.60645e-06 0)
(3.0971e-08 -1.61202e-06 0)
(3.09271e-08 -1.61757e-06 0)
(3.08833e-08 -1.62308e-06 0)
(3.08395e-08 -1.62856e-06 0)
(3.07958e-08 -1.634e-06 0)
(3.07521e-08 -1.63941e-06 0)
(3.07085e-08 -1.6448e-06 0)
(3.0665e-08 -1.65014e-06 0)
(3.06212e-08 -1.65547e-06 0)
(3.05795e-08 -1.6607e-06 0)
(3.0541e-08 -1.6655e-06 0)
(3.05037e-08 -1.66985e-06 0)
(3.04678e-08 -1.67408e-06 0)
(3.04319e-08 -1.67833e-06 0)
(3.0396e-08 -1.68262e-06 0)
(3.036e-08 -1.68692e-06 0)
(3.03237e-08 -1.69122e-06 0)
(3.02873e-08 -1.69552e-06 0)
(3.02507e-08 -1.69983e-06 0)
(3.0214e-08 -1.70414e-06 0)
(3.0177e-08 -1.70846e-06 0)
(3.01399e-08 -1.71278e-06 0)
(3.01026e-08 -1.7171e-06 0)
(3.00652e-08 -1.72144e-06 0)
(3.00275e-08 -1.72577e-06 0)
(2.99897e-08 -1.73011e-06 0)
(2.99517e-08 -1.73446e-06 0)
(2.99135e-08 -1.73881e-06 0)
(2.98752e-08 -1.74316e-06 0)
(2.98367e-08 -1.74752e-06 0)
(2.97979e-08 -1.75189e-06 0)
(2.9759e-08 -1.75626e-06 0)
(2.972e-08 -1.76063e-06 0)
(2.96807e-08 -1.76501e-06 0)
(2.96413e-08 -1.76939e-06 0)
(2.96016e-08 -1.77378e-06 0)
(2.95618e-08 -1.77817e-06 0)
(2.95218e-08 -1.78257e-06 0)
(2.94816e-08 -1.78697e-06 0)
(2.94413e-08 -1.79137e-06 0)
(2.94007e-08 -1.79578e-06 0)
(2.936e-08 -1.80019e-06 0)
(2.93191e-08 -1.80461e-06 0)
(2.92779e-08 -1.80903e-06 0)
(2.92366e-08 -1.81346e-06 0)
(2.91951e-08 -1.81789e-06 0)
(2.91535e-08 -1.82232e-06 0)
(2.91116e-08 -1.82676e-06 0)
(2.90695e-08 -1.83121e-06 0)
(2.90273e-08 -1.83565e-06 0)
(2.89848e-08 -1.8401e-06 0)
(2.89422e-08 -1.84456e-06 0)
(2.88994e-08 -1.84902e-06 0)
(2.88564e-08 -1.85348e-06 0)
(2.88132e-08 -1.85794e-06 0)
(2.87698e-08 -1.86241e-06 0)
(2.87262e-08 -1.86689e-06 0)
(2.86824e-08 -1.87136e-06 0)
(2.86384e-08 -1.87585e-06 0)
(2.85942e-08 -1.88033e-06 0)
(2.85498e-08 -1.88482e-06 0)
(2.85053e-08 -1.88931e-06 0)
(2.84605e-08 -1.89381e-06 0)
(2.84155e-08 -1.89831e-06 0)
(2.83704e-08 -1.90281e-06 0)
(2.8325e-08 -1.90731e-06 0)
(2.82794e-08 -1.91182e-06 0)
(2.82337e-08 -1.91634e-06 0)
(2.81877e-08 -1.92085e-06 0)
(2.81416e-08 -1.92537e-06 0)
(2.80952e-08 -1.92989e-06 0)
(2.80486e-08 -1.93442e-06 0)
(2.80019e-08 -1.93895e-06 0)
(2.79549e-08 -1.94348e-06 0)
(2.79078e-08 -1.94801e-06 0)
(2.78604e-08 -1.95255e-06 0)
(2.78128e-08 -1.95709e-06 0)
(2.77651e-08 -1.96164e-06 0)
(2.77171e-08 -1.96618e-06 0)
(2.76689e-08 -1.97073e-06 0)
(2.76206e-08 -1.97529e-06 0)
(2.7572e-08 -1.97984e-06 0)
(2.75232e-08 -1.9844e-06 0)
(2.74742e-08 -1.98896e-06 0)
(2.7425e-08 -1.99352e-06 0)
(2.73756e-08 -1.99809e-06 0)
(2.7326e-08 -2.00265e-06 0)
(2.72762e-08 -2.00723e-06 0)
(2.72262e-08 -2.0118e-06 0)
(2.7176e-08 -2.01637e-06 0)
(2.71256e-08 -2.02095e-06 0)
(2.70749e-08 -2.02553e-06 0)
(2.70241e-08 -2.03011e-06 0)
(2.6973e-08 -2.0347e-06 0)
(2.69218e-08 -2.03928e-06 0)
(2.68703e-08 -2.04387e-06 0)
(2.68186e-08 -2.04846e-06 0)
(2.67668e-08 -2.05305e-06 0)
(2.67147e-08 -2.05765e-06 0)
(2.66624e-08 -2.06224e-06 0)
(2.66099e-08 -2.06684e-06 0)
(2.65571e-08 -2.07144e-06 0)
(2.65042e-08 -2.07604e-06 0)
(2.64511e-08 -2.08064e-06 0)
(2.63977e-08 -2.08525e-06 0)
(2.63442e-08 -2.08985e-06 0)
(2.62904e-08 -2.09446e-06 0)
(2.62364e-08 -2.09907e-06 0)
(2.61823e-08 -2.10368e-06 0)
(2.61279e-08 -2.10829e-06 0)
(2.60733e-08 -2.1129e-06 0)
(2.60184e-08 -2.11752e-06 0)
(2.59634e-08 -2.12213e-06 0)
(2.59082e-08 -2.12675e-06 0)
(2.58527e-08 -2.13137e-06 0)
(2.57971e-08 -2.13598e-06 0)
(2.57412e-08 -2.1406e-06 0)
(2.56851e-08 -2.14522e-06 0)
(2.56288e-08 -2.14984e-06 0)
(2.55723e-08 -2.15446e-06 0)
(2.55156e-08 -2.15909e-06 0)
(2.54587e-08 -2.16371e-06 0)
(2.54016e-08 -2.16833e-06 0)
(2.53442e-08 -2.17296e-06 0)
(2.52866e-08 -2.17758e-06 0)
(2.52289e-08 -2.1822e-06 0)
(2.51709e-08 -2.18683e-06 0)
(2.51127e-08 -2.19145e-06 0)
(2.50543e-08 -2.19608e-06 0)
(2.49957e-08 -2.2007e-06 0)
(2.49369e-08 -2.20533e-06 0)
(2.48778e-08 -2.20995e-06 0)
(2.48186e-08 -2.21458e-06 0)
(2.47591e-08 -2.2192e-06 0)
(2.46995e-08 -2.22383e-06 0)
(2.46396e-08 -2.22845e-06 0)
(2.45795e-08 -2.23307e-06 0)
(2.45192e-08 -2.2377e-06 0)
(2.44587e-08 -2.24232e-06 0)
(2.4398e-08 -2.24694e-06 0)
(2.43371e-08 -2.25156e-06 0)
(2.42759e-08 -2.25619e-06 0)
(2.42146e-08 -2.26081e-06 0)
(2.4153e-08 -2.26542e-06 0)
(2.40913e-08 -2.27004e-06 0)
(2.40293e-08 -2.27466e-06 0)
(2.39671e-08 -2.27928e-06 0)
(2.39048e-08 -2.28389e-06 0)
(2.38422e-08 -2.28851e-06 0)
(2.37794e-08 -2.29312e-06 0)
(2.37164e-08 -2.29773e-06 0)
(2.36532e-08 -2.30234e-06 0)
(2.35898e-08 -2.30695e-06 0)
(2.35261e-08 -2.31156e-06 0)
(2.34623e-08 -2.31616e-06 0)
(2.33983e-08 -2.32076e-06 0)
(2.33341e-08 -2.32537e-06 0)
(2.32696e-08 -2.32997e-06 0)
(2.3205e-08 -2.33456e-06 0)
(2.31401e-08 -2.33916e-06 0)
(2.30751e-08 -2.34375e-06 0)
(2.30098e-08 -2.34835e-06 0)
(2.29444e-08 -2.35294e-06 0)
(2.28787e-08 -2.35752e-06 0)
(2.28129e-08 -2.36211e-06 0)
(2.27468e-08 -2.36669e-06 0)
(2.26806e-08 -2.37127e-06 0)
(2.26142e-08 -2.37585e-06 0)
(2.25475e-08 -2.38042e-06 0)
(2.24807e-08 -2.38499e-06 0)
(2.24136e-08 -2.38956e-06 0)
(2.23464e-08 -2.39413e-06 0)
(2.2279e-08 -2.39869e-06 0)
(2.22113e-08 -2.40325e-06 0)
(2.21435e-08 -2.40781e-06 0)
(2.20755e-08 -2.41236e-06 0)
(2.20073e-08 -2.41691e-06 0)
(2.19389e-08 -2.42146e-06 0)
(2.18703e-08 -2.426e-06 0)
(2.18015e-08 -2.43054e-06 0)
(2.17326e-08 -2.43508e-06 0)
(2.16631e-08 -2.43961e-06 0)
(2.15954e-08 -2.44412e-06 0)
(2.15304e-08 -2.4484e-06 0)
(2.14663e-08 -2.45248e-06 0)
(2.1403e-08 -2.45652e-06 0)
(2.13393e-08 -2.4606e-06 0)
(2.1275e-08 -2.46474e-06 0)
(2.121e-08 -2.4689e-06 0)
(2.11443e-08 -2.4731e-06 0)
(2.10778e-08 -2.47733e-06 0)
(2.10106e-08 -2.48159e-06 0)
(2.09427e-08 -2.48588e-06 0)
(2.0874e-08 -2.49021e-06 0)
(2.08045e-08 -2.49456e-06 0)
(2.07343e-08 -2.49895e-06 0)
(2.06633e-08 -2.50338e-06 0)
(2.05916e-08 -2.50783e-06 0)
(2.0519e-08 -2.51232e-06 0)
(2.04457e-08 -2.51684e-06 0)
(2.03715e-08 -2.52139e-06 0)
(2.02966e-08 -2.52598e-06 0)
(2.02208e-08 -2.5306e-06 0)
(2.01443e-08 -2.53525e-06 0)
(2.00669e-08 -2.53993e-06 0)
(1.99886e-08 -2.54465e-06 0)
(1.99096e-08 -2.5494e-06 0)
(1.98296e-08 -2.55418e-06 0)
(1.97488e-08 -2.55899e-06 0)
(1.96672e-08 -2.56384e-06 0)
(1.95847e-08 -2.56872e-06 0)
(1.95013e-08 -2.57363e-06 0)
(1.9417e-08 -2.57857e-06 0)
(1.93319e-08 -2.58355e-06 0)
(1.92458e-08 -2.58855e-06 0)
(1.91589e-08 -2.59359e-06 0)
(1.9071e-08 -2.59866e-06 0)
(1.89822e-08 -2.60376e-06 0)
(1.88925e-08 -2.6089e-06 0)
(1.88019e-08 -2.61406e-06 0)
(1.87104e-08 -2.61925e-06 0)
(1.86179e-08 -2.62448e-06 0)
(1.85244e-08 -2.62973e-06 0)
(1.843e-08 -2.63502e-06 0)
(1.83347e-08 -2.64033e-06 0)
(1.82383e-08 -2.64568e-06 0)
(1.81411e-08 -2.65105e-06 0)
(1.80428e-08 -2.65646e-06 0)
(1.79436e-08 -2.66189e-06 0)
(1.78433e-08 -2.66735e-06 0)
(1.77421e-08 -2.67284e-06 0)
(1.76399e-08 -2.67836e-06 0)
(1.75367e-08 -2.6839e-06 0)
(1.74325e-08 -2.68948e-06 0)
(1.73273e-08 -2.69508e-06 0)
(1.7221e-08 -2.7007e-06 0)
(1.71138e-08 -2.70635e-06 0)
(1.70055e-08 -2.71203e-06 0)
(1.68963e-08 -2.71773e-06 0)
(1.6786e-08 -2.72346e-06 0)
(1.66746e-08 -2.72921e-06 0)
(1.65623e-08 -2.73498e-06 0)
(1.64489e-08 -2.74078e-06 0)
(1.63344e-08 -2.7466e-06 0)
(1.6219e-08 -2.75244e-06 0)
(1.61025e-08 -2.75831e-06 0)
(1.59849e-08 -2.76419e-06 0)
(1.58664e-08 -2.77009e-06 0)
(1.57468e-08 -2.77602e-06 0)
(1.56261e-08 -2.78196e-06 0)
(1.55044e-08 -2.78792e-06 0)
(1.53817e-08 -2.7939e-06 0)
(1.52579e-08 -2.79989e-06 0)
(1.51331e-08 -2.8059e-06 0)
(1.50073e-08 -2.81193e-06 0)
(1.48805e-08 -2.81797e-06 0)
(1.47526e-08 -2.82402e-06 0)
(1.46237e-08 -2.83009e-06 0)
(1.44938e-08 -2.83617e-06 0)
(1.43628e-08 -2.84225e-06 0)
(1.42309e-08 -2.84835e-06 0)
(1.40979e-08 -2.85446e-06 0)
(1.3964e-08 -2.86058e-06 0)
(1.3829e-08 -2.8667e-06 0)
(1.36931e-08 -2.87283e-06 0)
(1.35562e-08 -2.87896e-06 0)
(1.34183e-08 -2.8851e-06 0)
(1.32795e-08 -2.89124e-06 0)
(1.31397e-08 -2.89739e-06 0)
(1.2999e-08 -2.90353e-06 0)
(1.28573e-08 -2.90968e-06 0)
(1.27148e-08 -2.91582e-06 0)
(1.25713e-08 -2.92196e-06 0)
(1.24269e-08 -2.92809e-06 0)
(1.22817e-08 -2.93422e-06 0)
(1.21356e-08 -2.94035e-06 0)
(1.19886e-08 -2.94646e-06 0)
(1.18408e-08 -2.95257e-06 0)
(1.16922e-08 -2.95866e-06 0)
(1.15428e-08 -2.96475e-06 0)
(1.13926e-08 -2.97082e-06 0)
(1.12416e-08 -2.97688e-06 0)
(1.10899e-08 -2.98291e-06 0)
(1.09375e-08 -2.98894e-06 0)
(1.07843e-08 -2.99494e-06 0)
(1.06305e-08 -3.00092e-06 0)
(1.0476e-08 -3.00688e-06 0)
(1.03209e-08 -3.01282e-06 0)
(1.01652e-08 -3.01873e-06 0)
(1.00089e-08 -3.02461e-06 0)
(9.85201e-09 -3.03047e-06 0)
(9.69461e-09 -3.03629e-06 0)
(9.53671e-09 -3.04209e-06 0)
(9.37833e-09 -3.04785e-06 0)
(9.2195e-09 -3.05357e-06 0)
(9.06026e-09 -3.05926e-06 0)
(8.90063e-09 -3.06491e-06 0)
(8.74065e-09 -3.07052e-06 0)
(8.58036e-09 -3.07609e-06 0)
(8.41977e-09 -3.08161e-06 0)
(8.25894e-09 -3.08708e-06 0)
(8.09789e-09 -3.09251e-06 0)
(7.93666e-09 -3.09789e-06 0)
(7.77529e-09 -3.10322e-06 0)
(7.61382e-09 -3.1085e-06 0)
(7.45228e-09 -3.11372e-06 0)
(7.29071e-09 -3.11888e-06 0)
(7.12916e-09 -3.12399e-06 0)
(6.96767e-09 -3.12903e-06 0)
(6.80627e-09 -3.13402e-06 0)
(6.64501e-09 -3.13894e-06 0)
(6.48393e-09 -3.14379e-06 0)
(6.32309e-09 -3.14857e-06 0)
(6.16251e-09 -3.15329e-06 0)
(6.00225e-09 -3.15793e-06 0)
(5.84235e-09 -3.1625e-06 0)
(5.68285e-09 -3.167e-06 0)
(5.52382e-09 -3.17142e-06 0)
(5.36528e-09 -3.17575e-06 0)
(5.20729e-09 -3.18001e-06 0)
(5.0499e-09 -3.18419e-06 0)
(4.89316e-09 -3.18828e-06 0)
(4.73711e-09 -3.19229e-06 0)
(4.58181e-09 -3.1962e-06 0)
(4.42729e-09 -3.20003e-06 0)
(4.27362e-09 -3.20377e-06 0)
(4.12084e-09 -3.20741e-06 0)
(3.96901e-09 -3.21096e-06 0)
(3.81816e-09 -3.21442e-06 0)
(3.66836e-09 -3.21777e-06 0)
(3.51965e-09 -3.22103e-06 0)
(3.37209e-09 -3.22418e-06 0)
(3.22571e-09 -3.22724e-06 0)
(3.08058e-09 -3.23018e-06 0)
(2.93674e-09 -3.23303e-06 0)
(2.79423e-09 -3.23577e-06 0)
(2.65312e-09 -3.2384e-06 0)
(2.51345e-09 -3.24092e-06 0)
(2.37526e-09 -3.24333e-06 0)
(2.2386e-09 -3.24562e-06 0)
(2.10353e-09 -3.24781e-06 0)
(1.97008e-09 -3.24988e-06 0)
(1.83831e-09 -3.25184e-06 0)
(1.70825e-09 -3.25368e-06 0)
(1.57995e-09 -3.2554e-06 0)
(1.45346e-09 -3.25701e-06 0)
(1.32882e-09 -3.2585e-06 0)
(1.20606e-09 -3.25987e-06 0)
(1.08524e-09 -3.26112e-06 0)
(9.66385e-10 -3.26225e-06 0)
(8.49538e-10 -3.26326e-06 0)
(7.34737e-10 -3.26414e-06 0)
(6.22017e-10 -3.26491e-06 0)
(5.11415e-10 -3.26555e-06 0)
(4.02964e-10 -3.26608e-06 0)
(2.96697e-10 -3.26648e-06 0)
(1.92646e-10 -3.26675e-06 0)
(9.08409e-11 -3.26691e-06 0)
(-8.68553e-12 -3.26694e-06 0)
(-1.05923e-10 -3.26685e-06 0)
(-2.00771e-10 -3.26664e-06 0)
(-2.93523e-10 -3.26631e-06 0)
(-3.82872e-10 -3.26586e-06 0)
(-4.74467e-10 -3.26528e-06 0)
(-5.70481e-10 -3.2645e-06 0)
(-6.66514e-10 -3.26349e-06 0)
(-7.60929e-10 -3.26231e-06 0)
(-8.51133e-10 -3.26098e-06 0)
(-9.36938e-10 -3.25951e-06 0)
(-1.01838e-09 -3.25791e-06 0)
(-1.09556e-09 -3.25618e-06 0)
(-1.16856e-09 -3.25433e-06 0)
(-1.23752e-09 -3.25236e-06 0)
(-1.30256e-09 -3.25028e-06 0)
(-1.36381e-09 -3.24811e-06 0)
(-1.42139e-09 -3.24584e-06 0)
(-1.4754e-09 -3.24347e-06 0)
(-1.52596e-09 -3.24103e-06 0)
(-1.57318e-09 -3.2385e-06 0)
(-1.61717e-09 -3.2359e-06 0)
(-1.65803e-09 -3.23324e-06 0)
(-1.69585e-09 -3.23051e-06 0)
(-1.73074e-09 -3.22772e-06 0)
(-1.76278e-09 -3.22487e-06 0)
(-1.79208e-09 -3.22198e-06 0)
(-1.8187e-09 -3.21904e-06 0)
(-1.84275e-09 -3.21607e-06 0)
(-1.8643e-09 -3.21305e-06 0)
(-1.88343e-09 -3.21e-06 0)
(-1.90022e-09 -3.20693e-06 0)
(-1.91473e-09 -3.20383e-06 0)
(-1.92705e-09 -3.2007e-06 0)
(-1.93723e-09 -3.19756e-06 0)
(-1.94535e-09 -3.19441e-06 0)
(-1.95147e-09 -3.19124e-06 0)
(-1.95565e-09 -3.18806e-06 0)
(-1.95794e-09 -3.18488e-06 0)
(-1.95842e-09 -3.1817e-06 0)
(-1.95712e-09 -3.17852e-06 0)
(-1.95411e-09 -3.17534e-06 0)
(-1.94943e-09 -3.17217e-06 0)
(-1.94313e-09 -3.16901e-06 0)
(-1.93526e-09 -3.16586e-06 0)
(-1.92587e-09 -3.16272e-06 0)
(-1.915e-09 -3.1596e-06 0)
(-1.90269e-09 -3.1565e-06 0)
(-1.88899e-09 -3.15342e-06 0)
(-1.87393e-09 -3.15037e-06 0)
(-1.85755e-09 -3.14733e-06 0)
(-1.83989e-09 -3.14433e-06 0)
(-1.82098e-09 -3.14136e-06 0)
(-1.80086e-09 -3.13842e-06 0)
(-1.77956e-09 -3.13551e-06 0)
(-1.75712e-09 -3.13263e-06 0)
(-1.73357e-09 -3.1298e-06 0)
(-1.70893e-09 -3.127e-06 0)
(-1.68324e-09 -3.12425e-06 0)
(-1.65652e-09 -3.12153e-06 0)
(-1.62881e-09 -3.11886e-06 0)
(-1.60013e-09 -3.11624e-06 0)
(-1.57051e-09 -3.11366e-06 0)
(-1.53998e-09 -3.11114e-06 0)
(-1.50856e-09 -3.10866e-06 0)
(-1.47628e-09 -3.10624e-06 0)
(-1.44316e-09 -3.10386e-06 0)
(-1.40924e-09 -3.10155e-06 0)
(-1.37452e-09 -3.09928e-06 0)
(-1.33904e-09 -3.09708e-06 0)
(-1.30283e-09 -3.09493e-06 0)
(-1.2659e-09 -3.09284e-06 0)
(-1.22827e-09 -3.09081e-06 0)
(-1.18998e-09 -3.08885e-06 0)
(-1.15105e-09 -3.08694e-06 0)
(-1.1115e-09 -3.0851e-06 0)
(-1.07135e-09 -3.08333e-06 0)
(-1.03062e-09 -3.08162e-06 0)
(-9.89345e-10 -3.07997e-06 0)
(-9.47541e-10 -3.0784e-06 0)
(-9.0523e-10 -3.07689e-06 0)
(-8.62438e-10 -3.07545e-06 0)
(-8.19186e-10 -3.07408e-06 0)
(-7.75498e-10 -3.07278e-06 0)
(-7.31395e-10 -3.07155e-06 0)
(-6.86903e-10 -3.0704e-06 0)
(-6.42042e-10 -3.06931e-06 0)
(-5.96837e-10 -3.0683e-06 0)
(-5.5131e-10 -3.06736e-06 0)
(-5.05484e-10 -3.0665e-06 0)
(-4.59383e-10 -3.0657e-06 0)
(-4.13029e-10 -3.06501e-06 0)
(-3.66443e-10 -3.0643e-06 0)
(-3.19656e-10 -3.06396e-06 0)
(-2.72667e-10 -3.06275e-06 0)
(-2.25567e-10 -3.06467e-06 0)
(-1.7819e-10 -3.05636e-06 0)
(-1.31106e-10 -3.08099e-06 0)
(-8.32605e-11 -2.98858e-06 0)
(-3.64461e-11 -3.23393e-06 0)
(-7.11078e-12 -2.82455e-06 0)
)
;
    }
    bottomWall
    {
        type            calculated;
        value           nonuniform List<vector> 
449
(
(-48.4885 -0.963483 0)
(-19.7379 -0.00514948 0)
(-14.3386 -0.00113241 0)
(-12.037 -0.000542705 0)
(-10.6418 -0.000347109 0)
(-9.66693 -0.000247887 0)
(-8.94523 -0.000181944 0)
(-8.41871 -0.000123247 0)
(-8.09801 -5.01518e-05 0)
(-8.07461 7.77704e-05 0)
(-8.63976 0.000260225 0)
(-9.88039 0.000333884 0)
(-10.9551 0.000251752 0)
(-11.6283 0.000150285 0)
(-12.0017 8.26026e-05 0)
(-12.2052 4.34089e-05 0)
(-12.3056 1.91403e-05 0)
(-12.3395 2.58325e-06 0)
(-12.3237 -8.25211e-06 0)
(-12.2812 -1.46635e-05 0)
(-12.22 -1.8935e-05 0)
(-12.147 -2.13719e-05 0)
(-12.0681 -2.24916e-05 0)
(-11.9867 -2.28399e-05 0)
(-11.905 -2.2733e-05 0)
(-11.824 -2.2375e-05 0)
(-11.7445 -2.18574e-05 0)
(-11.6669 -2.12216e-05 0)
(-11.5915 -2.05345e-05 0)
(-11.5185 -1.983e-05 0)
(-11.4479 -1.91279e-05 0)
(-11.3797 -1.84396e-05 0)
(-11.3137 -1.77733e-05 0)
(-11.25 -1.71315e-05 0)
(-11.1885 -1.65254e-05 0)
(-11.1289 -1.5957e-05 0)
(-11.0713 -1.54098e-05 0)
(-11.0155 -1.488e-05 0)
(-10.9614 -1.43755e-05 0)
(-10.9091 -1.38966e-05 0)
(-10.8584 -1.3442e-05 0)
(-10.8092 -1.30109e-05 0)
(-10.7615 -1.26035e-05 0)
(-10.7151 -1.22163e-05 0)
(-10.67 -1.18474e-05 0)
(-10.6262 -1.14965e-05 0)
(-10.5836 -1.1165e-05 0)
(-10.542 -1.08472e-05 0)
(-10.5016 -1.05524e-05 0)
(-10.4621 -1.02933e-05 0)
(-10.4234 -1.00602e-05 0)
(-10.3855 -9.84098e-06 0)
(-10.3484 -9.62856e-06 0)
(-10.3119 -9.41964e-06 0)
(-10.2762 -9.21441e-06 0)
(-10.2411 -9.0114e-06 0)
(-10.2068 -8.81296e-06 0)
(-10.1731 -8.62077e-06 0)
(-10.1401 -8.4332e-06 0)
(-10.1077 -8.25103e-06 0)
(-10.076 -8.07525e-06 0)
(-10.0448 -7.90646e-06 0)
(-10.0142 -7.74224e-06 0)
(-9.98418 -7.58217e-06 0)
(-9.95471 -7.42677e-06 0)
(-9.92576 -7.27801e-06 0)
(-9.89733 -7.13429e-06 0)
(-9.86938 -6.9951e-06 0)
(-9.84192 -6.85896e-06 0)
(-9.81492 -6.73084e-06 0)
(-9.78835 -6.60876e-06 0)
(-9.7622 -6.48657e-06 0)
(-9.73648 -6.36667e-06 0)
(-9.71117 -6.25108e-06 0)
(-9.68626 -6.1395e-06 0)
(-9.66173 -6.02951e-06 0)
(-9.63759 -5.92271e-06 0)
(-9.61381 -5.81841e-06 0)
(-9.5904 -5.71704e-06 0)
(-9.56733 -5.61874e-06 0)
(-9.54461 -5.52307e-06 0)
(-9.52222 -5.43006e-06 0)
(-9.50015 -5.33974e-06 0)
(-9.4784 -5.2515e-06 0)
(-9.45696 -5.16556e-06 0)
(-9.43581 -5.08238e-06 0)
(-9.41495 -5.0011e-06 0)
(-9.39438 -4.92328e-06 0)
(-9.37407 -4.84689e-06 0)
(-9.35403 -4.77186e-06 0)
(-9.33426 -4.69918e-06 0)
(-9.31474 -4.62749e-06 0)
(-9.29547 -4.558e-06 0)
(-9.27644 -4.49007e-06 0)
(-9.25765 -4.42293e-06 0)
(-9.2391 -4.35869e-06 0)
(-9.22077 -4.29529e-06 0)
(-9.20267 -4.23314e-06 0)
(-9.18478 -4.17336e-06 0)
(-9.1671 -4.11391e-06 0)
(-9.14964 -4.05874e-06 0)
(-9.13235 -4.00611e-06 0)
(-9.11526 -3.95185e-06 0)
(-9.09835 -3.89869e-06 0)
(-9.08164 -3.84592e-06 0)
(-9.06511 -3.79384e-06 0)
(-9.04877 -3.74403e-06 0)
(-9.0326 -3.69467e-06 0)
(-9.01661 -3.64574e-06 0)
(-9.00079 -3.59901e-06 0)
(-8.98513 -3.55267e-06 0)
(-8.96964 -3.50656e-06 0)
(-8.95432 -3.46273e-06 0)
(-8.93914 -3.41929e-06 0)
(-8.92413 -3.37591e-06 0)
(-8.90927 -3.33454e-06 0)
(-8.89455 -3.29383e-06 0)
(-8.87998 -3.25297e-06 0)
(-8.86556 -3.21367e-06 0)
(-8.85127 -3.17552e-06 0)
(-8.83712 -3.13714e-06 0)
(-8.82311 -3.09975e-06 0)
(-8.80924 -3.064e-06 0)
(-8.79548 -3.02802e-06 0)
(-8.78186 -2.99228e-06 0)
(-8.76837 -2.95826e-06 0)
(-8.755 -2.92465e-06 0)
(-8.74175 -2.89096e-06 0)
(-8.72862 -2.8583e-06 0)
(-8.7156 -2.82681e-06 0)
(-8.7027 -2.79518e-06 0)
(-8.68992 -2.76373e-06 0)
(-8.67724 -2.73371e-06 0)
(-8.66468 -2.7042e-06 0)
(-8.65222 -2.67444e-06 0)
(-8.63987 -2.64545e-06 0)
(-8.62762 -2.61772e-06 0)
(-8.61547 -2.58983e-06 0)
(-8.60342 -2.56183e-06 0)
(-8.59148 -2.53511e-06 0)
(-8.57962 -2.50917e-06 0)
(-8.56787 -2.48287e-06 0)
(-8.55621 -2.45681e-06 0)
(-8.54464 -2.43197e-06 0)
(-8.53316 -2.40757e-06 0)
(-8.52177 -2.3828e-06 0)
(-8.51048 -2.3591e-06 0)
(-8.49926 -2.33751e-06 0)
(-8.48812 -2.31583e-06 0)
(-8.47706 -2.2929e-06 0)
(-8.46608 -2.27019e-06 0)
(-8.45519 -2.24832e-06 0)
(-8.44437 -2.22669e-06 0)
(-8.43364 -2.20489e-06 0)
(-8.42298 -2.18344e-06 0)
(-8.4124 -2.1628e-06 0)
(-8.4019 -2.14251e-06 0)
(-8.39147 -2.12203e-06 0)
(-8.38112 -2.10173e-06 0)
(-8.37084 -2.08223e-06 0)
(-8.36063 -2.06324e-06 0)
(-8.35049 -2.044e-06 0)
(-8.34042 -2.02472e-06 0)
(-8.33042 -2.00624e-06 0)
(-8.32049 -1.98839e-06 0)
(-8.31062 -1.97034e-06 0)
(-8.30083 -1.95216e-06 0)
(-8.29109 -1.93453e-06 0)
(-8.28143 -1.91771e-06 0)
(-8.27182 -1.90074e-06 0)
(-8.26228 -1.88393e-06 0)
(-8.25279 -1.86694e-06 0)
(-8.24338 -1.84854e-06 0)
(-8.23456 -1.83519e-06 0)
(-8.22624 -1.82364e-06 0)
(-8.2179 -1.80755e-06 0)
(-8.20955 -1.7926e-06 0)
(-8.20117 -1.77888e-06 0)
(-8.19277 -1.76505e-06 0)
(-8.18434 -1.75104e-06 0)
(-8.17589 -1.73669e-06 0)
(-8.16741 -1.72284e-06 0)
(-8.15891 -1.70928e-06 0)
(-8.15039 -1.69583e-06 0)
(-8.14184 -1.68195e-06 0)
(-8.13327 -1.66793e-06 0)
(-8.12468 -1.65441e-06 0)
(-8.11607 -1.64114e-06 0)
(-8.10743 -1.62782e-06 0)
(-8.09877 -1.61421e-06 0)
(-8.09009 -1.60061e-06 0)
(-8.08139 -1.58745e-06 0)
(-8.07267 -1.57445e-06 0)
(-8.06392 -1.56128e-06 0)
(-8.05515 -1.54794e-06 0)
(-8.04637 -1.53479e-06 0)
(-8.03756 -1.52195e-06 0)
(-8.02873 -1.50926e-06 0)
(-8.01989 -1.49629e-06 0)
(-8.01102 -1.4832e-06 0)
(-8.00213 -1.47052e-06 0)
(-7.99323 -1.45805e-06 0)
(-7.9843 -1.44551e-06 0)
(-7.97536 -1.43281e-06 0)
(-7.9664 -1.4202e-06 0)
(-7.95742 -1.4079e-06 0)
(-7.94842 -1.39578e-06 0)
(-7.9394 -1.38341e-06 0)
(-7.93036 -1.37095e-06 0)
(-7.92131 -1.35884e-06 0)
(-7.91224 -1.34698e-06 0)
(-7.90316 -1.33497e-06 0)
(-7.89405 -1.32364e-06 0)
(-7.88492 -1.31278e-06 0)
(-7.87577 -1.30138e-06 0)
(-7.86661 -1.28975e-06 0)
(-7.85742 -1.27794e-06 0)
(-7.84823 -1.26617e-06 0)
(-7.83901 -1.25472e-06 0)
(-7.82978 -1.24343e-06 0)
(-7.82054 -1.23194e-06 0)
(-7.81128 -1.22039e-06 0)
(-7.80201 -1.20918e-06 0)
(-7.79272 -1.19822e-06 0)
(-7.78342 -1.18703e-06 0)
(-7.77411 -1.17573e-06 0)
(-7.76478 -1.16479e-06 0)
(-7.75544 -1.1541e-06 0)
(-7.74609 -1.14322e-06 0)
(-7.73672 -1.13224e-06 0)
(-7.72735 -1.12155e-06 0)
(-7.71795 -1.11112e-06 0)
(-7.70855 -1.10055e-06 0)
(-7.69914 -1.08987e-06 0)
(-7.68971 -1.07946e-06 0)
(-7.68027 -1.0693e-06 0)
(-7.67082 -1.05902e-06 0)
(-7.66137 -1.04862e-06 0)
(-7.6519 -1.0385e-06 0)
(-7.64242 -1.02862e-06 0)
(-7.63293 -1.01861e-06 0)
(-7.62343 -1.0085e-06 0)
(-7.61392 -9.98682e-07 0)
(-7.6044 -9.89081e-07 0)
(-7.59487 -9.79341e-07 0)
(-7.58534 -9.6953e-07 0)
(-7.57579 -9.60015e-07 0)
(-7.56624 -9.50694e-07 0)
(-7.55667 -9.41209e-07 0)
(-7.54711 -9.31689e-07 0)
(-7.53753 -9.2248e-07 0)
(-7.52794 -9.13398e-07 0)
(-7.51835 -9.0417e-07 0)
(-7.50875 -8.94979e-07 0)
(-7.49915 -8.86053e-07 0)
(-7.48953 -8.77198e-07 0)
(-7.47991 -8.6824e-07 0)
(-7.47029 -8.5938e-07 0)
(-7.46066 -8.50746e-07 0)
(-7.45102 -8.42113e-07 0)
(-7.44138 -8.33415e-07 0)
(-7.43173 -8.24875e-07 0)
(-7.42208 -8.16524e-07 0)
(-7.41242 -8.08109e-07 0)
(-7.40276 -7.99673e-07 0)
(-7.39309 -7.91448e-07 0)
(-7.38342 -7.83346e-07 0)
(-7.37375 -7.75162e-07 0)
(-7.36407 -7.67028e-07 0)
(-7.35439 -7.59096e-07 0)
(-7.34471 -7.51201e-07 0)
(-7.33502 -7.43258e-07 0)
(-7.32534 -7.35565e-07 0)
(-7.31564 -7.28448e-07 0)
(-7.30593 -7.2119e-07 0)
(-7.29622 -7.13534e-07 0)
(-7.28651 -7.06065e-07 0)
(-7.2768 -6.98681e-07 0)
(-7.26708 -6.91227e-07 0)
(-7.25736 -6.83825e-07 0)
(-7.24764 -6.7658e-07 0)
(-7.23792 -6.69339e-07 0)
(-7.2282 -6.62074e-07 0)
(-7.21849 -6.54949e-07 0)
(-7.20877 -6.47949e-07 0)
(-7.19905 -6.40906e-07 0)
(-7.18933 -6.33895e-07 0)
(-7.17961 -6.27056e-07 0)
(-7.1699 -6.20253e-07 0)
(-7.16019 -6.1342e-07 0)
(-7.15047 -6.06705e-07 0)
(-7.14076 -6.00121e-07 0)
(-7.13106 -5.93506e-07 0)
(-7.12135 -5.86908e-07 0)
(-7.11165 -5.80473e-07 0)
(-7.10195 -5.74078e-07 0)
(-7.09225 -5.67662e-07 0)
(-7.08256 -5.61349e-07 0)
(-7.07287 -5.5516e-07 0)
(-7.06318 -5.48941e-07 0)
(-7.0535 -5.42749e-07 0)
(-7.04383 -5.3671e-07 0)
(-7.03415 -5.30705e-07 0)
(-7.02449 -5.2468e-07 0)
(-7.01483 -5.18763e-07 0)
(-7.00517 -5.12947e-07 0)
(-6.99552 -5.0711e-07 0)
(-6.98587 -5.01314e-07 0)
(-6.97623 -4.95664e-07 0)
(-6.9666 -4.90015e-07 0)
(-6.95697 -4.84362e-07 0)
(-6.94735 -4.78837e-07 0)
(-6.93774 -4.73381e-07 0)
(-6.92813 -4.679e-07 0)
(-6.91853 -4.62492e-07 0)
(-6.90894 -4.57205e-07 0)
(-6.89936 -4.51903e-07 0)
(-6.88978 -4.46615e-07 0)
(-6.88021 -4.4147e-07 0)
(-6.87065 -4.36342e-07 0)
(-6.86111 -4.31209e-07 0)
(-6.85156 -4.26183e-07 0)
(-6.84203 -4.21227e-07 0)
(-6.83251 -4.16253e-07 0)
(-6.823 -4.11345e-07 0)
(-6.81349 -4.06548e-07 0)
(-6.804 -4.01737e-07 0)
(-6.79452 -3.96949e-07 0)
(-6.78505 -3.9228e-07 0)
(-6.77558 -3.8788e-07 0)
(-6.76612 -3.83515e-07 0)
(-6.75666 -3.78987e-07 0)
(-6.74722 -3.74483e-07 0)
(-6.73779 -3.69972e-07 0)
(-6.72837 -3.65537e-07 0)
(-6.71896 -3.61187e-07 0)
(-6.70957 -3.56842e-07 0)
(-6.70018 -3.52561e-07 0)
(-6.69081 -3.48381e-07 0)
(-6.68145 -3.44162e-07 0)
(-6.6721 -3.39953e-07 0)
(-6.66277 -3.35852e-07 0)
(-6.65344 -3.31777e-07 0)
(-6.64413 -3.277e-07 0)
(-6.63484 -3.23716e-07 0)
(-6.62556 -3.19772e-07 0)
(-6.61629 -3.15835e-07 0)
(-6.60704 -3.11953e-07 0)
(-6.5978 -3.08147e-07 0)
(-6.58858 -3.04318e-07 0)
(-6.57937 -3.00571e-07 0)
(-6.57017 -2.96798e-07 0)
(-6.561 -2.93178e-07 0)
(-6.55183 -2.89686e-07 0)
(-6.54165 -2.85503e-07 0)
(-6.53057 -2.81024e-07 0)
(-6.51967 -2.76959e-07 0)
(-6.50891 -2.72977e-07 0)
(-6.49832 -2.68995e-07 0)
(-6.48787 -2.65148e-07 0)
(-6.47757 -2.61376e-07 0)
(-6.46742 -2.57679e-07 0)
(-6.45742 -2.54097e-07 0)
(-6.44754 -2.50577e-07 0)
(-6.43781 -2.47131e-07 0)
(-6.42821 -2.43795e-07 0)
(-6.41874 -2.40518e-07 0)
(-6.4094 -2.37299e-07 0)
(-6.40018 -2.34192e-07 0)
(-6.39108 -2.31135e-07 0)
(-6.3821 -2.28133e-07 0)
(-6.37323 -2.25227e-07 0)
(-6.36448 -2.22375e-07 0)
(-6.35584 -2.19564e-07 0)
(-6.34731 -2.16839e-07 0)
(-6.33887 -2.14171e-07 0)
(-6.33055 -2.11542e-07 0)
(-6.32233 -2.08977e-07 0)
(-6.31421 -2.06484e-07 0)
(-6.30617 -2.04017e-07 0)
(-6.29825 -2.01598e-07 0)
(-6.2904 -1.99255e-07 0)
(-6.28266 -1.96951e-07 0)
(-6.275 -1.94674e-07 0)
(-6.26743 -1.9255e-07 0)
(-6.25994 -1.90507e-07 0)
(-6.25253 -1.8842e-07 0)
(-6.2452 -1.86333e-07 0)
(-6.23796 -1.84298e-07 0)
(-6.23078 -1.8229e-07 0)
(-6.2237 -1.80305e-07 0)
(-6.21668 -1.78358e-07 0)
(-6.20975 -1.76472e-07 0)
(-6.20287 -1.74602e-07 0)
(-6.19609 -1.72759e-07 0)
(-6.18936 -1.70956e-07 0)
(-6.18272 -1.6921e-07 0)
(-6.17613 -1.6747e-07 0)
(-6.16962 -1.65758e-07 0)
(-6.16316 -1.64083e-07 0)
(-6.15678 -1.62462e-07 0)
(-6.15045 -1.60842e-07 0)
(-6.1442 -1.59252e-07 0)
(-6.138 -1.57688e-07 0)
(-6.13187 -1.56181e-07 0)
(-6.12578 -1.54669e-07 0)
(-6.11977 -1.53192e-07 0)
(-6.1138 -1.51722e-07 0)
(-6.1079 -1.5032e-07 0)
(-6.10204 -1.48908e-07 0)
(-6.09625 -1.47539e-07 0)
(-6.0905 -1.46151e-07 0)
(-6.08482 -1.44846e-07 0)
(-6.07917 -1.43525e-07 0)
(-6.0736 -1.42261e-07 0)
(-6.06804 -1.40946e-07 0)
(-6.06257 -1.39734e-07 0)
(-6.05711 -1.38483e-07 0)
(-6.05174 -1.37327e-07 0)
(-6.04637 -1.36088e-07 0)
(-6.0411 -1.34965e-07 0)
(-6.03581 -1.33768e-07 0)
(-6.03063 -1.32715e-07 0)
(-6.02543 -1.31543e-07 0)
(-6.02034 -1.30518e-07 0)
(-6.01522 -1.29363e-07 0)
(-6.01023 -1.28407e-07 0)
(-6.00518 -1.27293e-07 0)
(-6.00027 -1.26385e-07 0)
(-5.9953 -1.25268e-07 0)
(-5.99047 -1.24412e-07 0)
(-5.98556 -1.23333e-07 0)
(-5.98082 -1.22555e-07 0)
(-5.97598 -1.21491e-07 0)
(-5.97132 -1.20759e-07 0)
(-5.96653 -1.19726e-07 0)
(-5.96196 -1.19068e-07 0)
(-5.95722 -1.18146e-07 0)
(-5.95272 -1.17443e-07 0)
(-5.94804 -1.169e-07 0)
(-5.94357 -1.15576e-07 0)
(-5.939 -1.16773e-07 0)
(-5.93443 -1.12342e-07 0)
(-5.93022 -1.20347e-07 0)
(-5.925 -1.0311e-07 0)
(-5.9222 -1.33658e-07 0)
(-5.91446 -8.12205e-08 0)
(-5.916 -1.12053e-07 0)
(-5.90542 -1.40407e-07 0)
)
;
    }
    symmetry
    {
        type            symmetryPlane;
    }
    frontAndBack
    {
        type            empty;
    }
}


// ************************************************************************* //
