/*--------------------------------*- C++ -*----------------------------------*\
| =========                 |                                                 |
| \\      /  F ield         | OpenFOAM: The Open Source CFD Toolbox           |
|  \\    /   O peration     | Version:  v2012                                 |
|   \\  /    A nd           | Website:  www.openfoam.com                      |
|    \\/     M anipulation  |                                                 |
\*---------------------------------------------------------------------------*/
FoamFile
{
    version     2.0;
    format      ascii;
    class       volScalarField;
    location    "24";
    object      k;
}
// * * * * * * * * * * * * * * * * * * * * * * * * * * * * * * * * * * * * * //

dimensions      [0 2 -2 0 0 0 0];


internalField   nonuniform List<scalar> 
209825
(
0.00102115
0.00093134
0.000870312
0.000829471
0.000801302
0.000781069
0.000765981
0.000754386
0.000745257
0.000737927
0.000731946
0.000726999
0.000722859
0.000719361
0.000716376
0.000713814
0.000711595
0.000709663
0.000707966
0.000706483
0.000705163
0.000704
0.000702949
0.000702027
0.000701187
0.000700439
0.000699749
0.000699146
0.000698582
0.000698091
0.000697615
0.000697219
0.000696834
0.000696491
0.000696158
0.000695886
0.000695619
0.000695394
0.00069516
0.000694986
0.000694799
0.00069464
0.000694472
0.000694369
0.000694219
0.000694093
0.000693992
0.000693922
0.000693858
0.000693814
0.000693729
0.000693669
0.000693631
0.000693595
0.000693507
0.000693494
0.00069348
0.000693437
0.0006935
0.0006935
0.000693496
0.00069358
0.000693625
0.00069374
0.000693837
0.000693989
0.000694085
0.000694246
0.000694323
0.000694455
0.000694539
0.000694716
0.000694828
0.000695018
0.000695128
0.000695341
0.000695454
0.000695685
0.00069581
0.000696076
0.000696219
0.00069651
0.000696665
0.000696989
0.000697167
0.000697542
0.000697751
0.000698198
0.000698439
0.000698992
0.000699243
0.000700104
0.000700376
0.000711179
0.000754785
0.00193005
0.00102115
0.000931339
0.000870309
0.000829465
0.000801292
0.000781057
0.000765967
0.000754371
0.000745241
0.000737909
0.000731928
0.00072698
0.00072284
0.000719341
0.000716355
0.000713793
0.000711573
0.000709642
0.000707944
0.00070646
0.000705141
0.000703977
0.000702926
0.000702003
0.000701163
0.000700416
0.000699725
0.000699122
0.000698558
0.000698067
0.000697591
0.000697195
0.00069681
0.000696467
0.000696133
0.000695861
0.000695595
0.000695369
0.000695136
0.000694961
0.000694775
0.000694615
0.000694447
0.000694344
0.000694194
0.000694068
0.000693967
0.000693897
0.000693833
0.000693789
0.000693703
0.000693644
0.000693606
0.000693569
0.000693482
0.000693468
0.000693454
0.000693412
0.000693474
0.000693474
0.000693471
0.000693555
0.0006936
0.000693715
0.000693811
0.000693964
0.000694059
0.00069422
0.000694297
0.00069443
0.000694514
0.000694691
0.000694803
0.000694992
0.000695102
0.000695316
0.000695429
0.00069566
0.000695784
0.00069605
0.000696193
0.000696484
0.00069664
0.000696964
0.000697141
0.000697516
0.000697726
0.000698172
0.000698413
0.000698966
0.000699217
0.000700078
0.00070035
0.000711174
0.000754775
0.0019312
0.00102116
0.000931336
0.000870292
0.000829435
0.000801251
0.000781007
0.00076591
0.000754308
0.000745173
0.000737837
0.000731853
0.000726901
0.000722759
0.000719258
0.000716271
0.000713707
0.000711486
0.000709553
0.000707855
0.00070637
0.000705049
0.000703885
0.000702834
0.00070191
0.00070107
0.000700322
0.00069963
0.000699027
0.000698463
0.000697971
0.000697495
0.000697098
0.000696713
0.00069637
0.000696036
0.000695763
0.000695497
0.000695271
0.000695038
0.000694862
0.000694676
0.000694516
0.000694349
0.000694245
0.000694095
0.000693969
0.000693867
0.000693798
0.000693734
0.00069369
0.000693604
0.000693544
0.000693506
0.00069347
0.000693382
0.000693369
0.000693355
0.000693312
0.000693374
0.000693374
0.000693371
0.000693454
0.000693499
0.000693614
0.000693711
0.000693863
0.000693958
0.00069412
0.000694197
0.000694329
0.000694413
0.00069459
0.000694701
0.000694891
0.000695001
0.000695214
0.000695327
0.000695558
0.000695683
0.000695949
0.000696092
0.000696383
0.000696538
0.000696862
0.000697039
0.000697414
0.000697623
0.000698069
0.000698311
0.000698864
0.000699114
0.000699975
0.000700247
0.000711113
0.000754695
0.00193348
0.00102116
0.000931329
0.000870264
0.000829384
0.000801182
0.000780922
0.000765813
0.000754201
0.000745058
0.000737716
0.000731726
0.00072677
0.000722624
0.000719119
0.000716129
0.000713563
0.00071134
0.000709405
0.000707705
0.000706218
0.000704896
0.000703731
0.000702678
0.000701754
0.000700912
0.000700163
0.000699471
0.000698867
0.000698302
0.00069781
0.000697334
0.000696936
0.000696551
0.000696207
0.000695873
0.0006956
0.000695333
0.000695107
0.000694873
0.000694698
0.000694511
0.000694351
0.000694183
0.00069408
0.000693929
0.000693803
0.000693701
0.000693632
0.000693567
0.000693523
0.000693437
0.000693377
0.000693339
0.000693302
0.000693215
0.000693201
0.000693187
0.000693144
0.000693206
0.000693206
0.000693202
0.000693286
0.000693331
0.000693446
0.000693542
0.000693694
0.000693789
0.000693951
0.000694027
0.000694159
0.000694243
0.00069442
0.000694532
0.000694721
0.000694831
0.000695044
0.000695157
0.000695388
0.000695513
0.000695778
0.000695921
0.000696212
0.000696367
0.000696691
0.000696868
0.000697243
0.000697452
0.000697898
0.000698139
0.000698691
0.000698942
0.000699802
0.000700073
0.000711004
0.000754555
0.00193614
0.00102117
0.000931321
0.000870225
0.000829313
0.000801084
0.000780802
0.000765676
0.00075405
0.000744896
0.000737545
0.000731547
0.000726585
0.000722433
0.000718924
0.00071593
0.00071336
0.000711133
0.000709196
0.000707493
0.000706004
0.000704681
0.000703513
0.000702459
0.000701533
0.00070069
0.00069994
0.000699247
0.000698642
0.000698076
0.000697583
0.000697106
0.000696708
0.000696322
0.000695977
0.000695643
0.000695369
0.000695102
0.000694875
0.000694641
0.000694465
0.000694278
0.000694118
0.00069395
0.000693846
0.000693695
0.000693569
0.000693467
0.000693397
0.000693332
0.000693288
0.000693202
0.000693142
0.000693103
0.000693067
0.000692979
0.000692965
0.000692951
0.000692907
0.000692969
0.000692969
0.000692965
0.000693049
0.000693093
0.000693208
0.000693304
0.000693456
0.000693551
0.000693712
0.000693789
0.000693921
0.000694004
0.000694181
0.000694293
0.000694482
0.000694591
0.000694805
0.000694917
0.000695148
0.000695273
0.000695538
0.000695681
0.000695971
0.000696126
0.00069645
0.000696627
0.000697001
0.00069721
0.000697655
0.000697896
0.000698448
0.000698698
0.000699559
0.000699828
0.00071085
0.000754354
0.00193915
0.00102118
0.000931309
0.000870173
0.000829221
0.000800957
0.000780647
0.000765499
0.000753855
0.000744687
0.000737323
0.000731316
0.000726345
0.000722186
0.000718671
0.000715671
0.000713096
0.000710866
0.000708925
0.000707219
0.000705727
0.000704401
0.000703231
0.000702175
0.000701247
0.000700403
0.000699651
0.000698957
0.000698351
0.000697783
0.000697289
0.000696811
0.000696412
0.000696025
0.00069568
0.000695344
0.00069507
0.000694802
0.000694575
0.00069434
0.000694164
0.000693977
0.000693816
0.000693647
0.000693543
0.000693392
0.000693265
0.000693163
0.000693092
0.000693027
0.000692983
0.000692897
0.000692836
0.000692798
0.000692761
0.000692674
0.000692659
0.000692645
0.0006926
0.000692662
0.000692662
0.000692658
0.000692741
0.000692785
0.000692899
0.000692995
0.000693147
0.000693242
0.000693403
0.000693479
0.000693611
0.000693695
0.000693871
0.000693982
0.000694172
0.000694281
0.000694494
0.000694607
0.000694837
0.000694961
0.000695226
0.000695369
0.000695659
0.000695814
0.000696137
0.000696314
0.000696688
0.000696896
0.000697341
0.000697582
0.000698133
0.000698382
0.000699243
0.000699511
0.00071065
0.000754092
0.00194243
0.00102118
0.000931295
0.00087011
0.000829107
0.0008008
0.000780457
0.000765281
0.000753615
0.000744429
0.00073705
0.00073103
0.000726049
0.000721881
0.000718358
0.000715352
0.000712772
0.000710536
0.000708591
0.000706881
0.000705386
0.000704056
0.000702884
0.000701825
0.000700895
0.000700048
0.000699295
0.000698599
0.000697991
0.000697422
0.000696927
0.000696447
0.000696047
0.000695659
0.000695313
0.000694977
0.000694702
0.000694433
0.000694205
0.000693969
0.000693792
0.000693604
0.000693443
0.000693274
0.000693169
0.000693018
0.000692891
0.000692788
0.000692717
0.000692652
0.000692607
0.000692521
0.00069246
0.000692421
0.000692384
0.000692297
0.000692282
0.000692267
0.000692222
0.000692283
0.000692283
0.000692279
0.000692362
0.000692405
0.000692519
0.000692614
0.000692766
0.000692861
0.000693022
0.000693098
0.00069323
0.000693313
0.000693489
0.0006936
0.000693789
0.000693898
0.000694111
0.000694223
0.000694454
0.000694578
0.000694842
0.000694985
0.000695275
0.000695429
0.000695752
0.000695929
0.000696301
0.00069651
0.000696954
0.000697194
0.000697744
0.000697993
0.000698853
0.000699119
0.000710404
0.000753769
0.00194586
0.0010212
0.000931279
0.000870036
0.000828972
0.000800614
0.00078023
0.000765021
0.000753329
0.000744121
0.000736725
0.00073069
0.000725697
0.000721518
0.000717986
0.000714972
0.000712385
0.000710143
0.000708192
0.000706478
0.000704979
0.000703646
0.00070247
0.000701408
0.000700475
0.000699626
0.00069887
0.000698172
0.000697562
0.000696992
0.000696495
0.000696014
0.000695612
0.000695223
0.000694876
0.000694538
0.000694262
0.000693992
0.000693764
0.000693527
0.000693349
0.000693161
0.000692999
0.000692829
0.000692723
0.000692572
0.000692445
0.000692341
0.00069227
0.000692204
0.000692158
0.000692072
0.000692011
0.000691972
0.000691935
0.000691847
0.000691832
0.000691817
0.000691771
0.000691831
0.000691831
0.000691826
0.000691909
0.000691951
0.000692065
0.00069216
0.000692311
0.000692406
0.000692567
0.000692643
0.000692774
0.000692857
0.000693033
0.000693144
0.000693333
0.000693441
0.000693654
0.000693766
0.000693996
0.00069412
0.000694384
0.000694526
0.000694816
0.00069497
0.000695292
0.000695469
0.000695841
0.000696049
0.000696492
0.000696732
0.000697281
0.000697528
0.000698389
0.000698653
0.000710113
0.000753384
0.00194919
0.00102121
0.00093126
0.000869949
0.000828816
0.000800399
0.000779966
0.000764719
0.000752996
0.000743763
0.000736347
0.000730295
0.000725287
0.000721096
0.000717553
0.00071453
0.000711934
0.000709686
0.000707729
0.000706009
0.000704505
0.000703167
0.000701987
0.000700922
0.000699986
0.000699134
0.000698376
0.000697675
0.000697063
0.00069649
0.000695991
0.000695509
0.000695106
0.000694715
0.000694366
0.000694027
0.00069375
0.000693479
0.00069325
0.000693012
0.000692834
0.000692644
0.000692482
0.000692311
0.000692205
0.000692053
0.000691925
0.00069182
0.000691748
0.000691682
0.000691636
0.000691549
0.000691488
0.000691448
0.000691411
0.000691324
0.000691308
0.000691292
0.000691246
0.000691305
0.000691305
0.0006913
0.000691382
0.000691424
0.000691537
0.000691632
0.000691782
0.000691877
0.000692038
0.000692113
0.000692244
0.000692327
0.000692502
0.000692612
0.000692801
0.00069291
0.000693122
0.000693234
0.000693463
0.000693587
0.00069385
0.000693992
0.000694281
0.000694435
0.000694756
0.000694933
0.000695304
0.000695512
0.000695954
0.000696193
0.000696741
0.000696988
0.000697847
0.000698109
0.000709777
0.000752937
0.00195207
0.00102122
0.000931239
0.000869851
0.000828638
0.000800153
0.000779665
0.000764375
0.000752617
0.000743355
0.000735915
0.000729843
0.000724818
0.000720613
0.000717058
0.000714024
0.00071142
0.000709163
0.000707199
0.000705473
0.000703963
0.00070262
0.000701436
0.000700366
0.000699426
0.000698571
0.00069781
0.000697106
0.000696492
0.000695917
0.000695416
0.000694931
0.000694526
0.000694133
0.000693784
0.000693443
0.000693165
0.000692892
0.000692662
0.000692423
0.000692243
0.000692053
0.00069189
0.000691718
0.000691611
0.000691458
0.00069133
0.000691225
0.000691152
0.000691085
0.000691039
0.000690952
0.00069089
0.00069085
0.000690812
0.000690725
0.000690708
0.000690692
0.000690645
0.000690702
0.000690703
0.000690697
0.000690779
0.00069082
0.000690933
0.000691027
0.000691177
0.000691271
0.000691432
0.000691507
0.000691638
0.00069172
0.000691894
0.000692005
0.000692193
0.000692301
0.000692513
0.000692624
0.000692854
0.000692977
0.000693239
0.000693381
0.000693669
0.000693823
0.000694144
0.00069432
0.00069469
0.000694897
0.000695338
0.000695576
0.000696123
0.000696369
0.000697228
0.000697488
0.000709396
0.000752428
0.00195402
0.00102124
0.000931215
0.000869742
0.000828439
0.000799876
0.000779327
0.000763987
0.000752189
0.000742895
0.000735428
0.000729334
0.00072429
0.000720069
0.0007165
0.000713454
0.000710839
0.000708573
0.000706601
0.000704868
0.000703351
0.000702003
0.000700813
0.00069974
0.000698795
0.000697936
0.000697172
0.000696465
0.000695847
0.00069527
0.000694766
0.00069428
0.000693872
0.000693478
0.000693126
0.000692784
0.000692504
0.00069223
0.000691998
0.000691759
0.000691577
0.000691386
0.000691222
0.000691049
0.000690941
0.000690788
0.000690659
0.000690553
0.000690479
0.000690411
0.000690365
0.000690277
0.000690215
0.000690174
0.000690136
0.000690049
0.000690032
0.000690015
0.000689967
0.000690023
0.000690023
0.000690018
0.000690099
0.000690138
0.000690251
0.000690344
0.000690494
0.000690588
0.000690748
0.000690823
0.000690953
0.000691035
0.000691209
0.000691319
0.000691507
0.000691614
0.000691826
0.000691937
0.000692166
0.000692288
0.00069255
0.000692692
0.000692979
0.000693133
0.000693452
0.000693628
0.000693997
0.000694204
0.000694643
0.000694881
0.000695426
0.00069567
0.00069653
0.000696787
0.00070897
0.000751856
0.00195433
0.00102126
0.00093119
0.00086962
0.000828217
0.000799569
0.000778951
0.000763556
0.000751713
0.000742383
0.000734886
0.000728767
0.000723702
0.000719463
0.000715878
0.000712819
0.000710192
0.000707916
0.000705935
0.000704193
0.00070267
0.000701315
0.00070012
0.000699041
0.000698092
0.000697228
0.00069646
0.000695749
0.000695129
0.000694548
0.000694042
0.000693553
0.000693143
0.000692746
0.000692393
0.000692049
0.000691767
0.000691492
0.000691258
0.000691017
0.000690835
0.000690642
0.000690477
0.000690303
0.000690194
0.00069004
0.00068991
0.000689803
0.000689729
0.000689659
0.000689613
0.000689525
0.000689462
0.00068942
0.000689382
0.000689295
0.000689277
0.00068926
0.000689211
0.000689265
0.000689265
0.000689259
0.00068934
0.000689378
0.00068949
0.000689582
0.000689731
0.000689825
0.000689985
0.000690059
0.00069019
0.00069027
0.000690444
0.000690553
0.000690741
0.000690848
0.000691059
0.00069117
0.000691398
0.00069152
0.000691781
0.000691922
0.000692209
0.000692362
0.000692681
0.000692856
0.000693224
0.00069343
0.000693868
0.000694105
0.000694649
0.000694891
0.00069575
0.000696005
0.000708498
0.00075122
0.0019523
0.00102128
0.000931162
0.000869487
0.000827974
0.000799232
0.000778536
0.00076308
0.000751188
0.000741818
0.000734287
0.00072814
0.000723052
0.000718793
0.000715191
0.000712117
0.000709477
0.00070719
0.000705198
0.000703448
0.000701916
0.000700555
0.000699353
0.000698268
0.000697314
0.000696446
0.000695673
0.000694959
0.000694334
0.000693751
0.000693241
0.000692749
0.000692337
0.000691938
0.000691582
0.000691236
0.000690953
0.000690675
0.00069044
0.000690197
0.000690013
0.000689819
0.000689653
0.000689478
0.000689368
0.000689213
0.000689083
0.000688974
0.000688899
0.000688828
0.000688781
0.000688693
0.000688629
0.000688587
0.000688549
0.000688462
0.000688442
0.000688425
0.000688374
0.000688427
0.000688427
0.000688421
0.000688501
0.000688537
0.000688649
0.00068874
0.000688888
0.000688982
0.000689142
0.000689215
0.000689345
0.000689425
0.000689598
0.000689707
0.000689894
0.000690001
0.000690211
0.000690322
0.000690549
0.000690671
0.000690931
0.000691072
0.000691358
0.00069151
0.000691828
0.000692003
0.000692369
0.000692574
0.000693011
0.000693247
0.000693789
0.00069403
0.000694888
0.00069514
0.000707982
0.00075052
0.00194791
0.0010213
0.000931132
0.000869343
0.000827709
0.000798863
0.000778084
0.00076256
0.000750614
0.000741199
0.000733632
0.000727455
0.00072234
0.000718059
0.000714438
0.000711348
0.000708694
0.000706394
0.000704391
0.000702631
0.000701091
0.000699721
0.000698512
0.000697421
0.000696461
0.000695588
0.00069481
0.000694092
0.000693463
0.000692876
0.000692363
0.000691868
0.000691453
0.000691051
0.000690693
0.000690345
0.000690059
0.000689779
0.000689543
0.000689298
0.000689112
0.000688917
0.00068875
0.000688573
0.000688461
0.000688306
0.000688175
0.000688065
0.000687988
0.000687917
0.000687869
0.00068778
0.000687716
0.000687672
0.000687634
0.000687547
0.000687527
0.000687509
0.000687457
0.000687508
0.000687508
0.000687501
0.00068758
0.000687615
0.000687726
0.000687816
0.000687963
0.000688057
0.000688216
0.000688289
0.000688419
0.000688498
0.00068867
0.000688778
0.000688965
0.000689072
0.000689281
0.000689391
0.000689618
0.000689739
0.000689998
0.000690138
0.000690423
0.000690575
0.000690892
0.000691066
0.000691431
0.000691635
0.00069207
0.000692305
0.000692845
0.000693085
0.000693943
0.000694192
0.000707419
0.000749753
0.00194121
0.00102133
0.000931101
0.000869187
0.000827422
0.000798463
0.000777592
0.000761995
0.00074999
0.000740527
0.000732919
0.000726708
0.000721565
0.00071726
0.000713619
0.00071051
0.00070784
0.000705527
0.000703512
0.000701741
0.000700191
0.000698813
0.000697596
0.000696498
0.000695532
0.000694652
0.00069387
0.000693147
0.000692514
0.000691922
0.000691406
0.000690907
0.000690489
0.000690084
0.000689724
0.000689373
0.000689085
0.000688803
0.000688564
0.000688318
0.00068813
0.000687933
0.000687765
0.000687586
0.000687473
0.000687317
0.000687185
0.000687073
0.000686996
0.000686923
0.000686874
0.000686785
0.00068672
0.000686675
0.000686637
0.00068655
0.000686528
0.00068651
0.000686456
0.000686506
0.000686506
0.000686498
0.000686576
0.00068661
0.00068672
0.000686809
0.000686955
0.000687048
0.000687207
0.000687279
0.000687409
0.000687487
0.000687658
0.000687766
0.000687952
0.000688058
0.000688267
0.000688377
0.000688602
0.000688723
0.000688981
0.00068912
0.000689405
0.000689556
0.000689872
0.000690045
0.000690409
0.000690612
0.000691045
0.000691279
0.000691817
0.000692054
0.000692912
0.000693158
0.00070681
0.00074892
0.00193224
0.00102135
0.000931067
0.00086902
0.000827113
0.000798032
0.000777062
0.000761385
0.000749315
0.000739799
0.000732148
0.000725901
0.000720727
0.000716396
0.000712731
0.000709604
0.000706916
0.000704587
0.00070256
0.000700777
0.000699216
0.000697829
0.000696604
0.000695498
0.000694525
0.000693639
0.000692851
0.000692123
0.000691485
0.000690889
0.000690369
0.000689867
0.000689445
0.000689037
0.000688674
0.00068832
0.000688029
0.000687745
0.000687504
0.000687256
0.000687066
0.000686867
0.000686697
0.000686517
0.000686402
0.000686246
0.000686112
0.000685999
0.00068592
0.000685846
0.000685796
0.000685707
0.000685641
0.000685595
0.000685556
0.000685469
0.000685446
0.000685427
0.000685372
0.000685419
0.000685419
0.000685411
0.000685488
0.00068552
0.000685629
0.000685717
0.000685862
0.000685955
0.000686114
0.000686185
0.000686314
0.000686391
0.000686561
0.000686669
0.000686854
0.00068696
0.000687167
0.000687277
0.000687501
0.000687622
0.000687878
0.000688017
0.0006883
0.000688451
0.000688766
0.000688938
0.0006893
0.000689502
0.000689933
0.000690166
0.000690702
0.000690937
0.000691795
0.000692038
0.000706155
0.000748019
0.00192104
0.00102138
0.000931032
0.000868842
0.000826783
0.00079757
0.000776492
0.00076073
0.000748589
0.000739017
0.000731318
0.000725031
0.000719824
0.000715464
0.000711776
0.000708626
0.000705921
0.000703576
0.000701533
0.000699738
0.000698166
0.000696768
0.000695534
0.00069442
0.000693439
0.000692547
0.000691753
0.000691018
0.000690376
0.000689775
0.000689251
0.000688744
0.000688318
0.000687907
0.000687541
0.000687185
0.000686891
0.000686604
0.000686361
0.00068611
0.000685918
0.000685717
0.000685546
0.000685364
0.000685247
0.000685089
0.000684955
0.00068484
0.00068476
0.000684684
0.000684633
0.000684543
0.000684476
0.000684429
0.00068439
0.000684303
0.000684279
0.000684259
0.000684203
0.000684248
0.000684247
0.000684238
0.000684314
0.000684344
0.000684452
0.000684539
0.000684683
0.000684775
0.000684934
0.000685004
0.000685132
0.000685209
0.000685377
0.000685485
0.00068567
0.000685774
0.000685981
0.00068609
0.000686314
0.000686433
0.000686688
0.000686827
0.000687109
0.000687259
0.000687572
0.000687744
0.000688104
0.000688305
0.000688734
0.000688965
0.000689499
0.000689732
0.000690589
0.00069083
0.000705451
0.000747047
0.00190767
0.00102141
0.000930996
0.000868653
0.000826431
0.000797077
0.000775884
0.000760028
0.000747813
0.000738178
0.000730429
0.000724099
0.000718856
0.000714466
0.00071075
0.000707578
0.000704852
0.00070249
0.000700432
0.000698623
0.000697038
0.000695629
0.000694386
0.000693263
0.000692274
0.000691374
0.000690573
0.000689833
0.000689185
0.000688579
0.00068805
0.000687539
0.000687109
0.000686694
0.000686325
0.000685965
0.000685668
0.000685378
0.000685133
0.000684879
0.000684685
0.000684482
0.000684309
0.000684125
0.000684007
0.000683848
0.000683711
0.000683595
0.000683513
0.000683436
0.000683384
0.000683293
0.000683226
0.000683177
0.000683138
0.00068305
0.000683025
0.000683004
0.000682946
0.000682989
0.000682989
0.000682978
0.000683053
0.000683081
0.000683188
0.000683274
0.000683417
0.000683508
0.000683666
0.000683735
0.000683863
0.000683939
0.000684106
0.000684213
0.000684397
0.000684501
0.000684707
0.000684815
0.000685038
0.000685157
0.00068541
0.000685548
0.000685829
0.000685979
0.00068629
0.000686461
0.000686819
0.000687019
0.000687446
0.000687676
0.000688207
0.000688437
0.000689294
0.000689533
0.000704698
0.000746003
0.00189219
0.00102145
0.000930958
0.000868453
0.000826058
0.000796553
0.000775236
0.00075928
0.000746984
0.000737284
0.00072948
0.000723105
0.000717822
0.000713399
0.000709655
0.000706458
0.000703711
0.000701329
0.000699254
0.00069743
0.000695833
0.000694412
0.000693158
0.000692025
0.000691027
0.00069012
0.000689312
0.000688565
0.000687911
0.000687299
0.000686765
0.00068625
0.000685815
0.000685396
0.000685023
0.00068466
0.00068436
0.000684067
0.000683819
0.000683563
0.000683366
0.000683161
0.000682986
0.0006828
0.00068268
0.000682519
0.000682381
0.000682263
0.00068218
0.0006821
0.000682048
0.000681956
0.000681888
0.000681837
0.000681797
0.00068171
0.000681683
0.000681662
0.000681602
0.000681642
0.000681642
0.00068163
0.000681704
0.00068173
0.000681836
0.00068192
0.000682061
0.000682153
0.00068231
0.000682378
0.000682505
0.00068258
0.000682746
0.000682852
0.000683035
0.000683138
0.000683343
0.000683451
0.000683672
0.000683791
0.000684043
0.00068418
0.000684459
0.000684608
0.000684918
0.000685088
0.000685444
0.000685643
0.000686067
0.000686295
0.000686824
0.000687052
0.000687909
0.000688146
0.000703894
0.000744884
0.00187468
0.00102148
0.000930919
0.000868243
0.000825663
0.000795997
0.000774548
0.000758487
0.000746104
0.000736333
0.00072847
0.000722046
0.000716722
0.000712263
0.000708488
0.000705265
0.000702494
0.000700093
0.000698
0.00069616
0.000694548
0.000693115
0.000691849
0.000690706
0.000689699
0.000688783
0.000687967
0.000687213
0.000686553
0.000685935
0.000685396
0.000684875
0.000684436
0.000684013
0.000683636
0.000683269
0.000682965
0.000682669
0.000682418
0.000682159
0.00068196
0.000681752
0.000681575
0.000681387
0.000681264
0.000681102
0.000680963
0.000680843
0.000680758
0.000680676
0.000680623
0.00068053
0.00068046
0.000680409
0.000680368
0.000680281
0.000680252
0.00068023
0.000680169
0.000680206
0.000680206
0.000680193
0.000680265
0.000680288
0.000680393
0.000680476
0.000680616
0.000680707
0.000680863
0.00068093
0.000681056
0.00068113
0.000681295
0.0006814
0.000681583
0.000681685
0.000681889
0.000681996
0.000682216
0.000682334
0.000682584
0.000682721
0.000682999
0.000683147
0.000683455
0.000683624
0.000683978
0.000684175
0.000684596
0.000684823
0.000685349
0.000685574
0.000686431
0.000686666
0.000703038
0.000743685
0.00185523
0.00102151
0.000930879
0.000868023
0.000825248
0.000795411
0.000773821
0.000757647
0.000745172
0.000735325
0.0007274
0.000720923
0.000715555
0.000711058
0.00070725
0.000703999
0.000701203
0.00069878
0.000696668
0.000694811
0.000693184
0.000691737
0.000690459
0.000689305
0.000688288
0.000687363
0.000686539
0.000685777
0.00068511
0.000684486
0.00068394
0.000683415
0.00068297
0.000682542
0.000682162
0.000681791
0.000681483
0.000681183
0.000680929
0.000680667
0.000680465
0.000680254
0.000680075
0.000679884
0.00067976
0.000679596
0.000679455
0.000679333
0.000679246
0.000679163
0.000679107
0.000679014
0.000678943
0.00067889
0.000678849
0.000678761
0.000678731
0.000678708
0.000678645
0.000678679
0.000678679
0.000678664
0.000678735
0.000678756
0.00067886
0.000678941
0.000679079
0.000679169
0.000679325
0.00067939
0.000679516
0.000679589
0.000679752
0.000679856
0.000680039
0.00068014
0.000680342
0.000680449
0.000680668
0.000680784
0.000681033
0.000681169
0.000681445
0.000681592
0.000681899
0.000682067
0.000682419
0.000682615
0.000683033
0.000683258
0.000683781
0.000684003
0.000684859
0.000685093
0.000702126
0.000742405
0.00183392
0.00102155
0.000930838
0.000867793
0.000824812
0.000794794
0.000773055
0.00075676
0.000744187
0.00073426
0.000726268
0.000719735
0.00071432
0.000709782
0.00070594
0.000702659
0.000699836
0.00069739
0.000695257
0.000693382
0.000691739
0.000690277
0.000688986
0.00068782
0.000686793
0.000685858
0.000685025
0.000684255
0.00068358
0.000682949
0.000682398
0.000681867
0.000681417
0.000680984
0.000680599
0.000680224
0.000679912
0.000679608
0.000679351
0.000679086
0.00067888
0.000678667
0.000678485
0.000678292
0.000678165
0.000678
0.000677857
0.000677732
0.000677643
0.000677558
0.000677501
0.000677407
0.000677335
0.000677279
0.000677238
0.00067715
0.000677118
0.000677094
0.000677029
0.00067706
0.00067706
0.000677044
0.000677113
0.000677132
0.000677234
0.000677313
0.00067745
0.000677539
0.000677694
0.000677758
0.000677883
0.000677955
0.000678116
0.00067822
0.000678401
0.000678501
0.000678702
0.000678808
0.000679026
0.000679142
0.000679388
0.000679523
0.000679798
0.000679944
0.000680249
0.000680415
0.000680765
0.00068096
0.000681375
0.000681598
0.000682118
0.000682337
0.000683193
0.000683426
0.000701157
0.000741037
0.00181085
0.00102159
0.000930796
0.000867554
0.000824356
0.000794147
0.00077225
0.000755827
0.00074315
0.000733138
0.000725075
0.000718483
0.000713017
0.000708436
0.000704557
0.000701243
0.000698393
0.000695921
0.000693767
0.000691873
0.000690212
0.000688735
0.00068743
0.000686252
0.000685212
0.000684267
0.000683425
0.000682647
0.000681964
0.000681326
0.000680768
0.00068023
0.000679774
0.000679336
0.000678947
0.000678567
0.000678251
0.000677943
0.000677682
0.000677414
0.000677205
0.000676988
0.000676804
0.000676608
0.000676478
0.000676311
0.000676167
0.000676039
0.000675948
0.00067586
0.000675802
0.000675707
0.000675634
0.000675576
0.000675534
0.000675446
0.000675412
0.000675387
0.000675321
0.000675348
0.000675348
0.000675331
0.000675397
0.000675413
0.000675515
0.000675591
0.000675726
0.000675815
0.00067597
0.000676031
0.000676156
0.000676226
0.000676386
0.000676489
0.000676669
0.000676768
0.000676968
0.000677073
0.000677289
0.000677404
0.000677649
0.000677783
0.000678056
0.000678201
0.000678503
0.000678669
0.000679016
0.000679209
0.000679621
0.000679843
0.000680359
0.000680575
0.000681431
0.000681664
0.000700127
0.000739576
0.00178613
0.00102163
0.000930754
0.000867306
0.00082388
0.000793469
0.000771406
0.000754848
0.00074206
0.000731958
0.00072382
0.000717165
0.000711645
0.000707019
0.0007031
0.000699752
0.000696872
0.000694374
0.000692197
0.000690282
0.000688603
0.000687109
0.000685789
0.000684598
0.000683546
0.00068259
0.000681738
0.000680951
0.000680259
0.000679613
0.000679048
0.000678504
0.000678042
0.000677598
0.000677204
0.000676819
0.000676499
0.000676187
0.000675922
0.00067565
0.000675437
0.000675217
0.000675031
0.000674832
0.000674699
0.00067453
0.000674384
0.000674254
0.00067416
0.00067407
0.00067401
0.000673914
0.000673839
0.00067378
0.000673737
0.000673648
0.000673612
0.000673586
0.000673518
0.000673543
0.000673542
0.000673523
0.000673587
0.000673601
0.0006737
0.000673775
0.000673908
0.000673996
0.00067415
0.00067421
0.000674333
0.000674402
0.000674561
0.000674662
0.000674841
0.00067494
0.000675138
0.000675242
0.000675456
0.00067557
0.000675813
0.000675946
0.000676217
0.000676362
0.000676662
0.000676826
0.000677171
0.000677362
0.000677771
0.000677991
0.000678504
0.000678716
0.000679571
0.000679804
0.000699032
0.000738017
0.00175986
0.00102168
0.000930712
0.000867048
0.000823384
0.000792762
0.000770523
0.000753822
0.000740919
0.000730721
0.000722502
0.000715781
0.000710204
0.00070553
0.000701569
0.000698185
0.000695273
0.000692748
0.000690546
0.000688609
0.00068691
0.000685399
0.000684064
0.000682858
0.000681794
0.000680826
0.000679963
0.000679166
0.000678466
0.000677811
0.000677239
0.000676688
0.000676219
0.00067577
0.00067537
0.00067498
0.000674655
0.000674338
0.000674069
0.000673793
0.000673577
0.000673353
0.000673164
0.000672962
0.000672826
0.000672655
0.000672507
0.000672374
0.000672278
0.000672185
0.000672123
0.000672026
0.000671949
0.000671888
0.000671844
0.000671755
0.000671717
0.00067169
0.000671621
0.000671642
0.000671641
0.000671619
0.000671681
0.000671692
0.00067179
0.000671862
0.000671993
0.000672081
0.000672233
0.000672291
0.000672414
0.000672482
0.000672638
0.000672739
0.000672917
0.000673014
0.00067321
0.000673314
0.000673527
0.00067364
0.00067388
0.000674012
0.000674281
0.000674425
0.000674722
0.000674886
0.000675227
0.000675417
0.000675822
0.00067604
0.000676549
0.000676759
0.000677613
0.000677846
0.000697871
0.00073635
0.00173216
0.00102172
0.00093067
0.000866783
0.00082287
0.000792025
0.000769602
0.000752751
0.000739724
0.000729425
0.000721123
0.000714331
0.000708695
0.000703969
0.000699964
0.000696542
0.000693596
0.000691042
0.000688814
0.000686854
0.000685134
0.000683604
0.000682252
0.000681031
0.000679953
0.000678973
0.000678099
0.000677292
0.000676582
0.000675919
0.000675339
0.00067478
0.000674305
0.000673849
0.000673443
0.000673048
0.000672718
0.000672396
0.000672123
0.000671842
0.000671622
0.000671395
0.000671203
0.000670997
0.000670858
0.000670685
0.000670535
0.000670399
0.0006703
0.000670204
0.000670141
0.000670042
0.000669964
0.0006699
0.000669856
0.000669766
0.000669726
0.000669698