/*--------------------------------*- C++ -*----------------------------------*\
| =========                 |                                                 |
| \\      /  F ield         | OpenFOAM: The Open Source CFD Toolbox           |
|  \\    /   O peration     | Version:  v2012                                 |
|   \\  /    A nd           | Website:  www.openfoam.com                      |
|    \\/     M anipulation  |                                                 |
\*---------------------------------------------------------------------------*/
FoamFile
{
    version     2.0;
    format      ascii;
    class       volScalarField;
    location    "24";
    object      nut;
}
// * * * * * * * * * * * * * * * * * * * * * * * * * * * * * * * * * * * * * //

dimensions      [0 2 -1 0 0 0 0];


internalField   nonuniform List<scalar> 
209825
(
1.23794e-07
1.23214e-07
1.23375e-07
1.23857e-07
1.2441e-07
1.24926e-07
1.2539e-07
1.25791e-07
1.26147e-07
1.26454e-07
1.26729e-07
1.26967e-07
1.27183e-07
1.27371e-07
1.27545e-07
1.27695e-07
1.27837e-07
1.27959e-07
1.28076e-07
1.28177e-07
1.28275e-07
1.28359e-07
1.28442e-07
1.28513e-07
1.28583e-07
1.28643e-07
1.28703e-07
1.28755e-07
1.28807e-07
1.28852e-07
1.28897e-07
1.28937e-07
1.28978e-07
1.2901e-07
1.29044e-07
1.29073e-07
1.29107e-07
1.29133e-07
1.29161e-07
1.29185e-07
1.29214e-07
1.29232e-07
1.29252e-07
1.29276e-07
1.29295e-07
1.29306e-07
1.29326e-07
1.29339e-07
1.29359e-07
1.29371e-07
1.29384e-07
1.29398e-07
1.29415e-07
1.29422e-07
1.29429e-07
1.29442e-07
1.29449e-07
1.29448e-07
1.29466e-07
1.29479e-07
1.29484e-07
1.29502e-07
1.29515e-07
1.2955e-07
1.29561e-07
1.29589e-07
1.29607e-07
1.29635e-07
1.29649e-07
1.29666e-07
1.29682e-07
1.29698e-07
1.29719e-07
1.29732e-07
1.29745e-07
1.29756e-07
1.29777e-07
1.29795e-07
1.29809e-07
1.29829e-07
1.29846e-07
1.2987e-07
1.29884e-07
1.29911e-07
1.29928e-07
1.29961e-07
1.29983e-07
1.30025e-07
1.30052e-07
1.30104e-07
1.30134e-07
1.30215e-07
1.30252e-07
1.31361e-07
1.35756e-07
1.68821e-08
1.23794e-07
1.23214e-07
1.23375e-07
1.23857e-07
1.24409e-07
1.24926e-07
1.2539e-07
1.25791e-07
1.26147e-07
1.26454e-07
1.26729e-07
1.26966e-07
1.27183e-07
1.27371e-07
1.27545e-07
1.27695e-07
1.27837e-07
1.27959e-07
1.28076e-07
1.28177e-07
1.28275e-07
1.28359e-07
1.28442e-07
1.28513e-07
1.28583e-07
1.28643e-07
1.28703e-07
1.28755e-07
1.28807e-07
1.28852e-07
1.28897e-07
1.28937e-07
1.28979e-07
1.2901e-07
1.29044e-07
1.29074e-07
1.29108e-07
1.29134e-07
1.29161e-07
1.29185e-07
1.29214e-07
1.29232e-07
1.29252e-07
1.29276e-07
1.29295e-07
1.29306e-07
1.29326e-07
1.29339e-07
1.29359e-07
1.29372e-07
1.29384e-07
1.29398e-07
1.29415e-07
1.29422e-07
1.29429e-07
1.29442e-07
1.29449e-07
1.29448e-07
1.29466e-07
1.29479e-07
1.29484e-07
1.29503e-07
1.29515e-07
1.2955e-07
1.29561e-07
1.2959e-07
1.29608e-07
1.29635e-07
1.2965e-07
1.29666e-07
1.29682e-07
1.29698e-07
1.29719e-07
1.29732e-07
1.29746e-07
1.29757e-07
1.29778e-07
1.29795e-07
1.29809e-07
1.29829e-07
1.29846e-07
1.2987e-07
1.29885e-07
1.29911e-07
1.29929e-07
1.29961e-07
1.29983e-07
1.30025e-07
1.30052e-07
1.30104e-07
1.30134e-07
1.30215e-07
1.30253e-07
1.31364e-07
1.35758e-07
1.73938e-08
1.23794e-07
1.23213e-07
1.23373e-07
1.23855e-07
1.24407e-07
1.24923e-07
1.25387e-07
1.25788e-07
1.26144e-07
1.26451e-07
1.26726e-07
1.26964e-07
1.2718e-07
1.27368e-07
1.27542e-07
1.27692e-07
1.27834e-07
1.27956e-07
1.28073e-07
1.28174e-07
1.28272e-07
1.28356e-07
1.28439e-07
1.2851e-07
1.28581e-07
1.2864e-07
1.287e-07
1.28752e-07
1.28804e-07
1.28849e-07
1.28894e-07
1.28934e-07
1.28976e-07
1.29008e-07
1.29041e-07
1.29071e-07
1.29105e-07
1.29131e-07
1.29158e-07
1.29182e-07
1.29211e-07
1.29229e-07
1.29249e-07
1.29274e-07
1.29293e-07
1.29304e-07
1.29323e-07
1.29336e-07
1.29357e-07
1.29369e-07
1.29382e-07
1.29396e-07
1.29413e-07
1.29419e-07
1.29426e-07
1.29439e-07
1.29447e-07
1.29445e-07
1.29463e-07
1.29477e-07
1.29482e-07
1.295e-07
1.29513e-07
1.29547e-07
1.29558e-07
1.29587e-07
1.29605e-07
1.29632e-07
1.29647e-07
1.29663e-07
1.29679e-07
1.29695e-07
1.29716e-07
1.29729e-07
1.29743e-07
1.29754e-07
1.29775e-07
1.29793e-07
1.29806e-07
1.29826e-07
1.29844e-07
1.29867e-07
1.29882e-07
1.29909e-07
1.29926e-07
1.29959e-07
1.29981e-07
1.30022e-07
1.30049e-07
1.30101e-07
1.30131e-07
1.30212e-07
1.3025e-07
1.31365e-07
1.35759e-07
1.80288e-08
1.23794e-07
1.23213e-07
1.23371e-07
1.23852e-07
1.24404e-07
1.24919e-07
1.25383e-07
1.25784e-07
1.2614e-07
1.26446e-07
1.26721e-07
1.26959e-07
1.27176e-07
1.27363e-07
1.27537e-07
1.27688e-07
1.2783e-07
1.27952e-07
1.28069e-07
1.2817e-07
1.28268e-07
1.28352e-07
1.28435e-07
1.28506e-07
1.28576e-07
1.28636e-07
1.28696e-07
1.28748e-07
1.288e-07
1.28845e-07
1.2889e-07
1.2893e-07
1.28972e-07
1.29004e-07
1.29037e-07
1.29067e-07
1.29101e-07
1.29127e-07
1.29154e-07
1.29178e-07
1.29207e-07
1.29225e-07
1.29245e-07
1.2927e-07
1.29289e-07
1.293e-07
1.29319e-07
1.29332e-07
1.29353e-07
1.29365e-07
1.29378e-07
1.29392e-07
1.29409e-07
1.29416e-07
1.29423e-07
1.29436e-07
1.29443e-07
1.29442e-07
1.2946e-07
1.29473e-07
1.29478e-07
1.29496e-07
1.29509e-07
1.29544e-07
1.29555e-07
1.29583e-07
1.29601e-07
1.29629e-07
1.29643e-07
1.2966e-07
1.29675e-07
1.29692e-07
1.29713e-07
1.29725e-07
1.29739e-07
1.2975e-07
1.29771e-07
1.29789e-07
1.29803e-07
1.29823e-07
1.2984e-07
1.29864e-07
1.29878e-07
1.29905e-07
1.29922e-07
1.29955e-07
1.29977e-07
1.30019e-07
1.30046e-07
1.30098e-07
1.30128e-07
1.30209e-07
1.30246e-07
1.31369e-07
1.35761e-07
1.87331e-08
1.23795e-07
1.23212e-07
1.23369e-07
1.23848e-07
1.24399e-07
1.24914e-07
1.25377e-07
1.25778e-07
1.26134e-07
1.2644e-07
1.26715e-07
1.26953e-07
1.2717e-07
1.27358e-07
1.27531e-07
1.27682e-07
1.27824e-07
1.27946e-07
1.28063e-07
1.28164e-07
1.28262e-07
1.28346e-07
1.28429e-07
1.285e-07
1.28571e-07
1.2863e-07
1.28691e-07
1.28743e-07
1.28795e-07
1.2884e-07
1.28885e-07
1.28925e-07
1.28966e-07
1.28998e-07
1.29032e-07
1.29062e-07
1.29096e-07
1.29122e-07
1.29149e-07
1.29173e-07
1.29202e-07
1.2922e-07
1.2924e-07
1.29265e-07
1.29284e-07
1.29295e-07
1.29314e-07
1.29327e-07
1.29348e-07
1.2936e-07
1.29373e-07
1.29387e-07
1.29404e-07
1.29411e-07
1.29418e-07
1.29431e-07
1.29438e-07
1.29437e-07
1.29455e-07
1.29468e-07
1.29473e-07
1.29491e-07
1.29504e-07
1.29539e-07
1.2955e-07
1.29578e-07
1.29596e-07
1.29624e-07
1.29639e-07
1.29655e-07
1.29671e-07
1.29687e-07
1.29708e-07
1.29721e-07
1.29735e-07
1.29746e-07
1.29767e-07
1.29784e-07
1.29798e-07
1.29818e-07
1.29835e-07
1.29859e-07
1.29874e-07
1.299e-07
1.29918e-07
1.2995e-07
1.29972e-07
1.30014e-07
1.30041e-07
1.30093e-07
1.30123e-07
1.30204e-07
1.30241e-07
1.31373e-07
1.35763e-07
1.94965e-08
1.23795e-07
1.2321e-07
1.23365e-07
1.23843e-07
1.24393e-07
1.24907e-07
1.2537e-07
1.25771e-07
1.26126e-07
1.26433e-07
1.26708e-07
1.26946e-07
1.27162e-07
1.2735e-07
1.27524e-07
1.27675e-07
1.27817e-07
1.27939e-07
1.28056e-07
1.28157e-07
1.28255e-07
1.28339e-07
1.28422e-07
1.28493e-07
1.28564e-07
1.28624e-07
1.28684e-07
1.28736e-07
1.28788e-07
1.28833e-07
1.28878e-07
1.28918e-07
1.2896e-07
1.28992e-07
1.29026e-07
1.29055e-07
1.29089e-07
1.29115e-07
1.29143e-07
1.29167e-07
1.29196e-07
1.29214e-07
1.29234e-07
1.29258e-07
1.29277e-07
1.29289e-07
1.29308e-07
1.29321e-07
1.29342e-07
1.29354e-07
1.29367e-07
1.29381e-07
1.29398e-07
1.29405e-07
1.29412e-07
1.29425e-07
1.29432e-07
1.29431e-07
1.29449e-07
1.29462e-07
1.29467e-07
1.29485e-07
1.29498e-07
1.29533e-07
1.29544e-07
1.29572e-07
1.2959e-07
1.29618e-07
1.29633e-07
1.29649e-07
1.29665e-07
1.29681e-07
1.29702e-07
1.29715e-07
1.29729e-07
1.2974e-07
1.29761e-07
1.29778e-07
1.29792e-07
1.29812e-07
1.2983e-07
1.29853e-07
1.29868e-07
1.29895e-07
1.29912e-07
1.29944e-07
1.29966e-07
1.30008e-07
1.30035e-07
1.30087e-07
1.30117e-07
1.30198e-07
1.30235e-07
1.31379e-07
1.35766e-07
2.0317e-08
1.23795e-07
1.23209e-07
1.23361e-07
1.23837e-07
1.24385e-07
1.24899e-07
1.25361e-07
1.25762e-07
1.26117e-07
1.26423e-07
1.26699e-07
1.26936e-07
1.27153e-07
1.27341e-07
1.27515e-07
1.27666e-07
1.27808e-07
1.2793e-07
1.28047e-07
1.28148e-07
1.28247e-07
1.28331e-07
1.28414e-07
1.28485e-07
1.28556e-07
1.28615e-07
1.28676e-07
1.28728e-07
1.2878e-07
1.28825e-07
1.2887e-07
1.2891e-07
1.28952e-07
1.28984e-07
1.29018e-07
1.29047e-07
1.29082e-07
1.29108e-07
1.29135e-07
1.29159e-07
1.29188e-07
1.29206e-07
1.29226e-07
1.29251e-07
1.2927e-07
1.29281e-07
1.29301e-07
1.29314e-07
1.29334e-07
1.29347e-07
1.2936e-07
1.29374e-07
1.29391e-07
1.29397e-07
1.29405e-07
1.29418e-07
1.29425e-07
1.29424e-07
1.29441e-07
1.29455e-07
1.2946e-07
1.29478e-07
1.29491e-07
1.29525e-07
1.29537e-07
1.29565e-07
1.29583e-07
1.29611e-07
1.29625e-07
1.29642e-07
1.29658e-07
1.29674e-07
1.29695e-07
1.29708e-07
1.29722e-07
1.29733e-07
1.29754e-07
1.29772e-07
1.29785e-07
1.29805e-07
1.29823e-07
1.29846e-07
1.29861e-07
1.29888e-07
1.29905e-07
1.29938e-07
1.29959e-07
1.30001e-07
1.30028e-07
1.3008e-07
1.3011e-07
1.30191e-07
1.30228e-07
1.31387e-07
1.3577e-07
2.11948e-08
1.23796e-07
1.23207e-07
1.23356e-07
1.23829e-07
1.24376e-07
1.24889e-07
1.25351e-07
1.25751e-07
1.26106e-07
1.26413e-07
1.26688e-07
1.26926e-07
1.27143e-07
1.2733e-07
1.27504e-07
1.27655e-07
1.27798e-07
1.2792e-07
1.28037e-07
1.28138e-07
1.28237e-07
1.28321e-07
1.28404e-07
1.28475e-07
1.28546e-07
1.28606e-07
1.28666e-07
1.28718e-07
1.28771e-07
1.28816e-07
1.28861e-07
1.28901e-07
1.28943e-07
1.28975e-07
1.29009e-07
1.29038e-07
1.29073e-07
1.29099e-07
1.29126e-07
1.2915e-07
1.29179e-07
1.29198e-07
1.29218e-07
1.29242e-07
1.29261e-07
1.29273e-07
1.29292e-07
1.29305e-07
1.29326e-07
1.29338e-07
1.29351e-07
1.29365e-07
1.29382e-07
1.29389e-07
1.29396e-07
1.2941e-07
1.29417e-07
1.29415e-07
1.29433e-07
1.29446e-07
1.29452e-07
1.2947e-07
1.29483e-07
1.29517e-07
1.29528e-07
1.29557e-07
1.29575e-07
1.29603e-07
1.29617e-07
1.29634e-07
1.29649e-07
1.29666e-07
1.29687e-07
1.297e-07
1.29714e-07
1.29725e-07
1.29746e-07
1.29763e-07
1.29777e-07
1.29797e-07
1.29815e-07
1.29838e-07
1.29853e-07
1.2988e-07
1.29897e-07
1.2993e-07
1.29951e-07
1.29993e-07
1.3002e-07
1.30072e-07
1.30102e-07
1.30182e-07
1.30219e-07
1.31397e-07
1.35775e-07
2.21309e-08
1.23796e-07
1.23205e-07
1.2335e-07
1.2382e-07
1.24366e-07
1.24877e-07
1.25339e-07
1.25739e-07
1.26094e-07
1.264e-07
1.26675e-07
1.26913e-07
1.2713e-07
1.27318e-07
1.27492e-07
1.27643e-07
1.27786e-07
1.27908e-07
1.28025e-07
1.28127e-07
1.28225e-07
1.2831e-07
1.28393e-07
1.28464e-07
1.28535e-07
1.28595e-07
1.28656e-07
1.28708e-07
1.2876e-07
1.28805e-07
1.2885e-07
1.28891e-07
1.28932e-07
1.28964e-07
1.28998e-07
1.29028e-07
1.29062e-07
1.29088e-07
1.29116e-07
1.2914e-07
1.29169e-07
1.29188e-07
1.29208e-07
1.29232e-07
1.29251e-07
1.29263e-07
1.29282e-07
1.29296e-07
1.29316e-07
1.29329e-07
1.29342e-07
1.29356e-07
1.29373e-07
1.2938e-07
1.29387e-07
1.294e-07
1.29407e-07
1.29406e-07
1.29423e-07
1.29437e-07
1.29442e-07
1.29461e-07
1.29473e-07
1.29508e-07
1.29519e-07
1.29547e-07
1.29565e-07
1.29593e-07
1.29608e-07
1.29625e-07
1.2964e-07
1.29657e-07
1.29677e-07
1.2969e-07
1.29705e-07
1.29716e-07
1.29737e-07
1.29754e-07
1.29768e-07
1.29788e-07
1.29806e-07
1.29829e-07
1.29844e-07
1.29871e-07
1.29888e-07
1.2992e-07
1.29942e-07
1.29984e-07
1.3001e-07
1.30062e-07
1.30092e-07
1.30173e-07
1.3021e-07
1.31409e-07
1.35781e-07
2.31257e-08
1.23797e-07
1.23202e-07
1.23343e-07
1.23811e-07
1.24354e-07
1.24864e-07
1.25325e-07
1.25725e-07
1.2608e-07
1.26386e-07
1.26661e-07
1.26899e-07
1.27116e-07
1.27304e-07
1.27479e-07
1.2763e-07
1.27772e-07
1.27895e-07
1.28012e-07
1.28114e-07
1.28212e-07
1.28297e-07
1.2838e-07
1.28451e-07
1.28522e-07
1.28582e-07
1.28643e-07
1.28695e-07
1.28748e-07
1.28793e-07
1.28838e-07
1.28879e-07
1.28921e-07
1.28953e-07
1.28987e-07
1.29016e-07
1.29051e-07
1.29077e-07
1.29104e-07
1.29129e-07
1.29158e-07
1.29176e-07
1.29196e-07
1.29221e-07
1.2924e-07
1.29252e-07
1.29271e-07
1.29285e-07
1.29305e-07
1.29318e-07
1.29331e-07
1.29345e-07
1.29362e-07
1.29369e-07
1.29376e-07
1.29389e-07
1.29397e-07
1.29395e-07
1.29413e-07
1.29426e-07
1.29432e-07
1.2945e-07
1.29462e-07
1.29497e-07
1.29508e-07
1.29536e-07
1.29554e-07
1.29582e-07
1.29597e-07
1.29614e-07
1.29629e-07
1.29646e-07
1.29667e-07
1.2968e-07
1.29694e-07
1.29706e-07
1.29726e-07
1.29744e-07
1.29758e-07
1.29778e-07
1.29795e-07
1.29819e-07
1.29834e-07
1.2986e-07
1.29878e-07
1.2991e-07
1.29932e-07
1.29973e-07
1.3e-07
1.30052e-07
1.30081e-07
1.30162e-07
1.30199e-07
1.31424e-07
1.35788e-07
2.41793e-08
1.23798e-07
1.23199e-07
1.23336e-07
1.238e-07
1.2434e-07
1.2485e-07
1.2531e-07
1.25709e-07
1.26064e-07
1.2637e-07
1.26645e-07
1.26883e-07
1.27101e-07
1.27289e-07
1.27463e-07
1.27614e-07
1.27757e-07
1.2788e-07
1.27997e-07
1.28099e-07
1.28198e-07
1.28282e-07
1.28366e-07
1.28437e-07
1.28508e-07
1.28568e-07
1.28629e-07
1.28682e-07
1.28734e-07
1.2878e-07
1.28825e-07
1.28865e-07
1.28907e-07
1.28939e-07
1.28974e-07
1.29003e-07
1.29038e-07
1.29064e-07
1.29092e-07
1.29116e-07
1.29145e-07
1.29164e-07
1.29184e-07
1.29208e-07
1.29228e-07
1.29239e-07
1.29259e-07
1.29272e-07
1.29293e-07
1.29306e-07
1.29318e-07
1.29333e-07
1.2935e-07
1.29357e-07
1.29364e-07
1.29377e-07
1.29385e-07
1.29383e-07
1.29401e-07
1.29414e-07
1.2942e-07
1.29438e-07
1.2945e-07
1.29485e-07
1.29496e-07
1.29524e-07
1.29542e-07
1.29571e-07
1.29585e-07
1.29602e-07
1.29618e-07
1.29634e-07
1.29655e-07
1.29668e-07
1.29683e-07
1.29694e-07
1.29715e-07
1.29732e-07
1.29746e-07
1.29766e-07
1.29784e-07
1.29807e-07
1.29822e-07
1.29849e-07
1.29866e-07
1.29899e-07
1.2992e-07
1.29962e-07
1.29988e-07
1.3004e-07
1.3007e-07
1.3015e-07
1.30187e-07
1.3144e-07
1.35797e-07
2.529e-08
1.23798e-07
1.23196e-07
1.23328e-07
1.23787e-07
1.24326e-07
1.24834e-07
1.25293e-07
1.25692e-07
1.26046e-07
1.26352e-07
1.26628e-07
1.26866e-07
1.27083e-07
1.27271e-07
1.27446e-07
1.27597e-07
1.2774e-07
1.27863e-07
1.27981e-07
1.28083e-07
1.28182e-07
1.28266e-07
1.2835e-07
1.28422e-07
1.28493e-07
1.28553e-07
1.28614e-07
1.28666e-07
1.28719e-07
1.28765e-07
1.2881e-07
1.2885e-07
1.28893e-07
1.28925e-07
1.28959e-07
1.28989e-07
1.29023e-07
1.2905e-07
1.29077e-07
1.29102e-07
1.29131e-07
1.2915e-07
1.2917e-07
1.29194e-07
1.29214e-07
1.29226e-07
1.29245e-07
1.29259e-07
1.29279e-07
1.29292e-07
1.29305e-07
1.29319e-07
1.29337e-07
1.29344e-07
1.29351e-07
1.29364e-07
1.29372e-07
1.2937e-07
1.29387e-07
1.29401e-07
1.29406e-07
1.29425e-07
1.29437e-07
1.29471e-07
1.29483e-07
1.29511e-07
1.29529e-07
1.29557e-07
1.29572e-07
1.29589e-07
1.29605e-07
1.29622e-07
1.29642e-07
1.29655e-07
1.2967e-07
1.29681e-07
1.29702e-07
1.2972e-07
1.29734e-07
1.29753e-07
1.29771e-07
1.29795e-07
1.2981e-07
1.29836e-07
1.29854e-07
1.29886e-07
1.29907e-07
1.29949e-07
1.29975e-07
1.30027e-07
1.30056e-07
1.30137e-07
1.30174e-07
1.3146e-07
1.35807e-07
2.64558e-08
1.23799e-07
1.23193e-07
1.23319e-07
1.23774e-07
1.2431e-07
1.24816e-07
1.25274e-07
1.25673e-07
1.26027e-07
1.26333e-07
1.26608e-07
1.26846e-07
1.27064e-07
1.27252e-07
1.27427e-07
1.27579e-07
1.27722e-07
1.27845e-07
1.27963e-07
1.28065e-07
1.28164e-07
1.28249e-07
1.28332e-07
1.28404e-07
1.28476e-07
1.28536e-07
1.28597e-07
1.2865e-07
1.28702e-07
1.28748e-07
1.28793e-07
1.28834e-07
1.28876e-07
1.28909e-07
1.28943e-07
1.28973e-07
1.29007e-07
1.29034e-07
1.29062e-07
1.29086e-07
1.29115e-07
1.29134e-07
1.29155e-07
1.29179e-07
1.29199e-07
1.29211e-07
1.2923e-07
1.29244e-07
1.29264e-07
1.29277e-07
1.2929e-07
1.29304e-07
1.29322e-07
1.29329e-07
1.29337e-07
1.2935e-07
1.29358e-07
1.29356e-07
1.29373e-07
1.29386e-07
1.29392e-07
1.2941e-07
1.29422e-07
1.29457e-07
1.29469e-07
1.29497e-07
1.29514e-07
1.29543e-07
1.29558e-07
1.29575e-07
1.2959e-07
1.29607e-07
1.29628e-07
1.29641e-07
1.29656e-07
1.29667e-07
1.29688e-07
1.29706e-07
1.2972e-07
1.29739e-07
1.29757e-07
1.29781e-07
1.29796e-07
1.29822e-07
1.2984e-07
1.29872e-07
1.29893e-07
1.29935e-07
1.29961e-07
1.30013e-07
1.30042e-07
1.30123e-07
1.30159e-07
1.31482e-07
1.35818e-07
2.76795e-08
1.238e-07
1.23189e-07
1.23309e-07
1.23759e-07
1.24292e-07
1.24796e-07
1.25254e-07
1.25651e-07
1.26006e-07
1.26312e-07
1.26587e-07
1.26825e-07
1.27043e-07
1.27232e-07
1.27407e-07
1.27558e-07
1.27702e-07
1.27825e-07
1.27943e-07
1.28045e-07
1.28144e-07
1.2823e-07
1.28313e-07
1.28385e-07
1.28457e-07
1.28517e-07
1.28579e-07
1.28631e-07
1.28684e-07
1.2873e-07
1.28776e-07
1.28816e-07
1.28859e-07
1.28891e-07
1.28926e-07
1.28956e-07
1.2899e-07
1.29017e-07
1.29045e-07
1.29069e-07
1.29098e-07
1.29117e-07
1.29138e-07
1.29162e-07
1.29182e-07
1.29194e-07
1.29214e-07
1.29227e-07
1.29248e-07
1.29261e-07
1.29274e-07
1.29288e-07
1.29306e-07
1.29313e-07
1.29321e-07
1.29334e-07
1.29342e-07
1.2934e-07
1.29357e-07
1.2937e-07
1.29376e-07
1.29395e-07
1.29406e-07
1.29441e-07
1.29453e-07
1.29481e-07
1.29498e-07
1.29527e-07
1.29542e-07
1.2956e-07
1.29575e-07
1.29592e-07
1.29612e-07
1.29626e-07
1.29641e-07
1.29652e-07
1.29673e-07
1.2969e-07
1.29705e-07
1.29724e-07
1.29742e-07
1.29766e-07
1.29781e-07
1.29807e-07
1.29824e-07
1.29857e-07
1.29878e-07
1.29919e-07
1.29946e-07
1.29997e-07
1.30026e-07
1.30107e-07
1.30143e-07
1.31506e-07
1.35831e-07
2.89646e-08
1.23801e-07
1.23186e-07
1.23298e-07
1.23743e-07
1.24273e-07
1.24775e-07
1.25231e-07
1.25629e-07
1.25983e-07
1.26288e-07
1.26564e-07
1.26802e-07
1.2702e-07
1.27209e-07
1.27384e-07
1.27536e-07
1.2768e-07
1.27803e-07
1.27921e-07
1.28024e-07
1.28123e-07
1.28209e-07
1.28293e-07
1.28365e-07
1.28437e-07
1.28497e-07
1.28559e-07
1.28611e-07
1.28665e-07
1.2871e-07
1.28756e-07
1.28797e-07
1.28839e-07
1.28872e-07
1.28907e-07
1.28937e-07
1.28971e-07
1.28998e-07
1.29026e-07
1.29051e-07
1.2908e-07
1.29099e-07
1.2912e-07
1.29144e-07
1.29164e-07
1.29176e-07
1.29196e-07
1.29209e-07
1.2923e-07
1.29243e-07
1.29257e-07
1.29271e-07
1.29288e-07
1.29296e-07
1.29304e-07
1.29317e-07
1.29325e-07
1.29323e-07
1.29339e-07
1.29353e-07
1.29359e-07
1.29378e-07
1.29389e-07
1.29424e-07
1.29436e-07
1.29463e-07
1.29481e-07
1.2951e-07
1.29525e-07
1.29543e-07
1.29557e-07
1.29575e-07
1.29595e-07
1.29609e-07
1.29624e-07
1.29636e-07
1.29656e-07
1.29674e-07
1.29688e-07
1.29708e-07
1.29726e-07
1.29749e-07
1.29764e-07
1.29791e-07
1.29808e-07
1.2984e-07
1.29862e-07
1.29902e-07
1.29929e-07
1.2998e-07
1.30009e-07
1.3009e-07
1.30126e-07
1.31534e-07
1.35845e-07
3.03147e-08
1.23802e-07
1.23182e-07
1.23287e-07
1.23726e-07
1.24252e-07
1.24752e-07
1.25207e-07
1.25604e-07
1.25958e-07
1.26263e-07
1.26539e-07
1.26777e-07
1.26995e-07
1.27184e-07
1.2736e-07
1.27512e-07
1.27656e-07
1.27779e-07
1.27898e-07
1.28001e-07
1.281e-07
1.28186e-07
1.2827e-07
1.28343e-07
1.28415e-07
1.28475e-07
1.28537e-07
1.2859e-07
1.28643e-07
1.28689e-07
1.28735e-07
1.28776e-07
1.28819e-07
1.28851e-07
1.28886e-07
1.28916e-07
1.28951e-07
1.28978e-07
1.29006e-07
1.29031e-07
1.2906e-07
1.29079e-07
1.291e-07
1.29125e-07
1.29145e-07
1.29157e-07
1.29177e-07
1.2919e-07
1.29211e-07
1.29224e-07
1.29238e-07
1.29252e-07
1.29269e-07
1.29277e-07
1.29285e-07
1.29298e-07
1.29306e-07
1.29305e-07
1.29321e-07
1.29335e-07
1.2934e-07
1.29359e-07
1.2937e-07
1.29405e-07
1.29417e-07
1.29444e-07
1.29462e-07
1.29491e-07
1.29506e-07
1.29524e-07
1.29539e-07
1.29557e-07
1.29577e-07
1.2959e-07
1.29606e-07
1.29618e-07
1.29638e-07
1.29656e-07
1.2967e-07
1.2969e-07
1.29708e-07
1.29731e-07
1.29746e-07
1.29773e-07
1.2979e-07
1.29822e-07
1.29844e-07
1.29884e-07
1.29911e-07
1.29962e-07
1.29991e-07
1.30072e-07
1.30107e-07
1.31564e-07
1.35861e-07
3.17334e-08
1.23803e-07
1.23177e-07
1.23275e-07
1.23708e-07
1.2423e-07
1.24728e-07
1.25181e-07
1.25577e-07
1.25931e-07
1.26236e-07
1.26512e-07
1.2675e-07
1.26969e-07
1.27158e-07
1.27334e-07
1.27486e-07
1.2763e-07
1.27754e-07
1.27873e-07
1.27976e-07
1.28076e-07
1.28161e-07
1.28246e-07
1.28319e-07
1.28391e-07
1.28452e-07
1.28514e-07
1.28567e-07
1.2862e-07
1.28666e-07
1.28712e-07
1.28753e-07
1.28796e-07
1.28829e-07
1.28864e-07
1.28894e-07
1.28929e-07
1.28956e-07
1.28984e-07
1.29009e-07
1.29039e-07
1.29058e-07
1.29079e-07
1.29103e-07
1.29124e-07
1.29136e-07
1.29156e-07
1.29169e-07
1.2919e-07
1.29204e-07
1.29217e-07
1.29231e-07
1.29249e-07
1.29257e-07
1.29265e-07
1.29278e-07
1.29287e-07
1.29285e-07
1.29301e-07
1.29315e-07
1.29321e-07
1.29339e-07
1.2935e-07
1.29385e-07
1.29397e-07
1.29424e-07
1.29442e-07
1.29471e-07
1.29487e-07
1.29505e-07
1.29519e-07
1.29537e-07
1.29557e-07
1.29571e-07
1.29587e-07
1.29598e-07
1.29619e-07
1.29636e-07
1.29651e-07
1.2967e-07
1.29689e-07
1.29712e-07
1.29727e-07
1.29754e-07
1.29771e-07
1.29803e-07
1.29824e-07
1.29865e-07
1.29891e-07
1.29942e-07
1.29971e-07
1.30052e-07
1.30087e-07
1.31597e-07
1.35878e-07
3.32246e-08
1.23804e-07
1.23173e-07
1.23262e-07
1.23688e-07
1.24206e-07
1.24701e-07
1.25154e-07
1.25549e-07
1.25902e-07
1.26207e-07
1.26483e-07
1.26721e-07
1.2694e-07
1.27129e-07
1.27306e-07
1.27458e-07
1.27603e-07
1.27727e-07
1.27846e-07
1.27949e-07
1.28049e-07
1.28135e-07
1.2822e-07
1.28293e-07
1.28365e-07
1.28426e-07
1.28489e-07
1.28542e-07
1.28596e-07
1.28642e-07
1.28688e-07
1.28729e-07
1.28772e-07
1.28805e-07
1.2884e-07
1.28871e-07
1.28906e-07
1.28933e-07
1.28961e-07
1.28986e-07
1.29016e-07
1.29035e-07
1.29056e-07
1.29081e-07
1.29101e-07
1.29114e-07
1.29134e-07
1.29147e-07
1.29168e-07
1.29182e-07
1.29195e-07
1.29209e-07
1.29227e-07
1.29235e-07
1.29244e-07
1.29257e-07
1.29265e-07
1.29263e-07
1.29279e-07
1.29293e-07
1.29299e-07
1.29318e-07
1.29328e-07
1.29363e-07
1.29376e-07
1.29403e-07
1.2942e-07
1.2945e-07
1.29465e-07
1.29484e-07
1.29498e-07
1.29516e-07
1.29536e-07
1.2955e-07
1.29566e-07
1.29578e-07
1.29598e-07
1.29615e-07
1.29631e-07
1.2965e-07
1.29668e-07
1.29691e-07
1.29707e-07
1.29733e-07
1.2975e-07
1.29782e-07
1.29804e-07
1.29844e-07
1.2987e-07
1.29921e-07
1.2995e-07
1.30031e-07
1.30066e-07
1.31634e-07
1.35896e-07
3.47924e-08
1.23806e-07
1.23168e-07
1.23248e-07
1.23667e-07
1.2418e-07
1.24673e-07
1.25124e-07
1.25518e-07
1.25871e-07
1.26176e-07
1.26452e-07
1.26691e-07
1.2691e-07
1.27099e-07
1.27276e-07
1.27428e-07
1.27573e-07
1.27698e-07
1.27817e-07
1.2792e-07
1.28021e-07
1.28107e-07
1.28192e-07
1.28265e-07
1.28338e-07
1.28399e-07
1.28462e-07
1.28515e-07
1.28569e-07
1.28616e-07
1.28662e-07
1.28703e-07
1.28746e-07
1.2878e-07
1.28815e-07
1.28845e-07
1.28881e-07
1.28908e-07
1.28936e-07
1.28961e-07
1.28991e-07
1.29011e-07
1.29032e-07
1.29056e-07
1.29077e-07
1.2909e-07
1.2911e-07
1.29124e-07
1.29144e-07
1.29158e-07
1.29172e-07
1.29186e-07
1.29204e-07
1.29212e-07
1.29221e-07
1.29234e-07
1.29243e-07
1.29241e-07
1.29256e-07
1.2927e-07
1.29276e-07
1.29295e-07
1.29305e-07
1.2934e-07
1.29353e-07
1.29379e-07
1.29397e-07
1.29427e-07
1.29442e-07
1.29461e-07
1.29475e-07
1.29493e-07
1.29513e-07
1.29527e-07
1.29544e-07
1.29556e-07
1.29576e-07
1.29593e-07
1.29609e-07
1.29628e-07
1.29646e-07
1.29669e-07
1.29685e-07
1.29711e-07
1.29728e-07
1.2976e-07
1.29782e-07
1.29822e-07
1.29848e-07
1.29898e-07
1.29927e-07
1.30008e-07
1.30043e-07
1.31673e-07
1.35916e-07
3.64408e-08
1.23807e-07
1.23163e-07
1.23234e-07
1.23645e-07
1.24153e-07
1.24643e-07
1.25093e-07
1.25486e-07
1.25838e-07
1.26143e-07
1.26419e-07
1.26658e-07
1.26877e-07
1.27067e-07
1.27243e-07
1.27396e-07
1.27542e-07
1.27666e-07
1.27786e-07
1.2789e-07
1.27991e-07
1.28077e-07
1.28163e-07
1.28236e-07
1.28309e-07
1.2837e-07
1.28433e-07
1.28487e-07
1.28541e-07
1.28588e-07
1.28634e-07
1.28676e-07
1.28719e-07
1.28752e-07
1.28788e-07
1.28818e-07
1.28854e-07
1.28881e-07
1.2891e-07
1.28935e-07
1.28965e-07
1.28985e-07
1.29006e-07
1.2903e-07
1.29052e-07
1.29064e-07
1.29084e-07
1.29098e-07
1.29119e-07
1.29133e-07
1.29147e-07
1.29161e-07
1.29179e-07
1.29188e-07
1.29196e-07
1.29209e-07
1.29218e-07
1.29216e-07
1.29231e-07
1.29246e-07
1.29252e-07
1.2927e-07
1.29281e-07
1.29315e-07
1.29328e-07
1.29355e-07
1.29372e-07
1.29402e-07
1.29418e-07
1.29437e-07
1.29451e-07
1.29469e-07
1.29489e-07
1.29503e-07
1.2952e-07
1.29532e-07
1.29552e-07
1.29569e-07
1.29585e-07
1.29604e-07
1.29623e-07
1.29646e-07
1.29661e-07
1.29687e-07
1.29705e-07
1.29737e-07
1.29758e-07
1.29798e-07
1.29824e-07
1.29874e-07
1.29903e-07
1.29984e-07
1.30019e-07
1.31714e-07
1.35936e-07
3.8174e-08
1.23809e-07
1.23157e-07
1.23218e-07
1.23622e-07
1.24125e-07
1.24612e-07
1.25059e-07
1.25451e-07
1.25803e-07
1.26108e-07
1.26384e-07
1.26623e-07
1.26842e-07
1.27032e-07
1.27209e-07
1.27363e-07
1.27508e-07
1.27633e-07
1.27753e-07
1.27857e-07
1.27959e-07
1.28045e-07
1.28131e-07
1.28204e-07
1.28278e-07
1.2834e-07
1.28403e-07
1.28456e-07
1.28511e-07
1.28558e-07
1.28605e-07
1.28646e-07
1.2869e-07
1.28723e-07
1.28759e-07
1.2879e-07
1.28825e-07
1.28853e-07
1.28882e-07
1.28907e-07
1.28937e-07
1.28957e-07
1.28978e-07
1.29003e-07
1.29024e-07
1.29037e-07
1.29057e-07
1.29071e-07
1.29092e-07
1.29106e-07
1.2912e-07
1.29135e-07
1.29153e-07
1.29161e-07
1.2917e-07
1.29183e-07
1.29193e-07
1.29191e-07
1.29205e-07
1.2922e-07
1.29226e-07
1.29245e-07
1.29254e-07
1.29289e-07
1.29302e-07
1.29328e-07
1.29346e-07
1.29376e-07
1.29392e-07
1.29411e-07
1.29425e-07
1.29444e-07
1.29464e-07
1.29478e-07
1.29494e-07
1.29507e-07
1.29527e-07
1.29544e-07
1.2956e-07
1.29579e-07
1.29598e-07
1.29621e-07
1.29636e-07
1.29662e-07
1.2968e-07
1.29711e-07
1.29733e-07
1.29773e-07
1.29799e-07
1.29849e-07
1.29877e-07
1.29958e-07
1.29994e-07
1.31759e-07
1.35958e-07
3.99957e-08
1.2381e-07
1.23152e-07
1.23202e-07
1.23597e-07
1.24095e-07
1.24578e-07
1.25024e-07
1.25415e-07
1.25766e-07
1.2607e-07
1.26346e-07
1.26585e-07
1.26805e-07
1.26995e-07
1.27173e-07
1.27327e-07
1.27473e-07
1.27598e-07
1.27718e-07
1.27823e-07
1.27924e-07
1.28011e-07
1.28097e-07
1.28171e-07
1.28245e-07
1.28307e-07
1.2837e-07
1.28424e-07
1.28479e-07
1.28526e-07
1.28573e-07
1.28615e-07
1.28659e-07
1.28693e-07
1.28729e-07
1.28759e-07
1.28795e-07
1.28823e-07
1.28852e-07
1.28877e-07
1.28907e-07
1.28928e-07
1.28949e-07
1.28974e-07
1.28995e-07
1.29008e-07
1.29029e-07
1.29043e-07
1.29064e-07
1.29078e-07
1.29092e-07
1.29106e-07
1.29125e-07
1.29134e-07
1.29142e-07
1.29156e-07
1.29165e-07
1.29163e-07
1.29178e-07
1.29192e-07
1.29198e-07
1.29217e-07
1.29226e-07
1.29261e-07
1.29274e-07
1.293e-07
1.29318e-07
1.29349e-07
1.29364e-07
1.29384e-07
1.29398e-07
1.29416e-07
1.29436e-07
1.29451e-07
1.29468e-07
1.2948e-07
1.295e-07
1.29517e-07
1.29533e-07
1.29552e-07
1.29571e-07
1.29594e-07
1.2961e-07
1.29636e-07
1.29654e-07
1.29685e-07
1.29706e-07
1.29746e-07
1.29772e-07
1.29822e-07
1.2985e-07
1.29931e-07
1.29966e-07
1.31805e-07
1.3598e-07
4.19099e-08
1.23812e-07
1.23146e-07
1.23186e-07
1.23572e-07
1.24063e-07
1.24543e-07
1.24986e-07
1.25376e-07
1.25727e-07
1.26031e-07
1.26307e-07
1.26546e-07
1.26766e-07
1.26957e-07
1.27135e-07
1.27289e-07
1.27435e-07
1.27561e-07
1.27682e-07
1.27786e-07
1.27888e-07
1.27976e-07
1.28062e-07
1.28136e-07
1.2821e-07
1.28272e-07
1.28336e-07
1.2839e-07
1.28445e-07
1.28492e-07
1.2854e-07
1.28582e-07
1.28626e-07
1.2866e-07
1.28696e-07
1.28727e-07
1.28763e-07
1.28791e-07
1.2882e-07
1.28846e-07
1.28876e-07
1.28896e-07
1.28918e-07
1.28943e-07
1.28965e-07
1.28978e-07
1.28998e-07
1.29012e-07
1.29033e-07
1.29048e-07
1.29062e-07
1.29076e-07
1.29095e-07
1.29104e-07
1.29113e-07
1.29126e-07
1.29136e-07
1.29134e-07
1.29148e-07
1.29163e-07
1.29169e-07
1.29188e-07
1.29197e-07
1.29231e-07
1.29245e-07
1.29271e-07
1.29289e-07
1.29319e-07
1.29335e-07
1.29355e-07
1.29369e-07
1.29388e-07
1.29407e-07
1.29422e-07
1.29439e-07
1.29452e-07
1.29472e-07
1.29489e-07
1.29505e-07
1.29524e-07
1.29543e-07
1.29566e-07
1.29582e-07
1.29608e-07
1.29625e-07
1.29657e-07
1.29678e-07
1.29717e-07
1.29743e-07
1.29793e-07
1.29821e-07
1.29902e-07
1.29938e-07
1.31855e-07
1.36002e-07
4.39197e-08
1.23814e-07
1.2314e-07
1.23168e-07
1.23545e-07
1.2403e-07
1.24506e-07
1.24947e-07
1.25335e-07
1.25685e-07
1.25989e-07
1.26265e-07
1.26504e-07
1.26725e-07
1.26916e-07
1.27094e-07
1.27248e-07
1.27395e-07
1.27521e-07
1.27642e-07
1.27747e-07
1.2785e-07
1.27938e-07
1.28024e-07
1.28099e-07
1.28173e-07
1.28236e-07
1.283e-07
1.28354e-07
1.28409e-07
1.28457e-07
1.28505e-07
1.28547e-07
1.28591e-07
1.28625e-07
1.28662e-07
1.28693e-07
1.28729e-07
1.28757e-07
1.28787e-07
1.28812e-07
1.28843e-07
1.28864e-07
1.28885e-07
1.2891e-07
1.28932e-07
1.28945e-07
1.28966e-07
1.2898e-07
1.29001e-07
1.29016e-07
1.29031e-07
1.29045e-07
1.29063e-07
1.29073e-07
1.29082e-07
1.29096e-07
1.29105e-07
1.29104e-07
1.29118e-07
1.29132e-07
1.29139e-07
1.29157e-07
1.29166e-07
1.292e-07
1.29214e-07
1.29239e-07
1.29257e-07
1.29288e-07
1.29304e-07
1.29324e-07
1.29338e-07
1.29357e-07
1.29377e-07
1.29392e-07
1.29409e-07
1.29422e-07
1.29442e-07
1.29459e-07
1.29476e-07
1.29494e-07
1.29513e-07
1.29536e-07
1.29552e-07
1.29578e-07
1.29596e-07
1.29627e-07
1.29648e-07
1.29687e-07
1.29713e-07
1.29763e-07
1.2979e-07
1.29871e-07
1.29908e-07
1.31906e-07
1.36023e-07
4.60277e-08
1.23816e-07
1.23134e-07
1.2315e-07
1.23517e-07
1.23995e-07
1.24467e-07
1.24905e-07
1.25292e-07
1.25642e-07
1.25945e-07
1.26221e-07
1.26461e-07
1.26681e-07
1.26872e-07
1.27051e-07
1.27206e-07
1.27353e-07
1.27479e-07
1.27601e-07
1.27706e-07
1.27809e-07
1.27897e-07
1.27985e-07
1.28059e-07
1.28134e-07
1.28197e-07
1.28261e-07
1.28316e-07
1.28372e-07
1.28419e-07
1.28467e-07
1.2851e-07
1.28554e-07
1.28589e-07
1.28626e-07
1.28657e-07
1.28693e-07
1.28721e-07
1.28751e-07
1.28777e-07
1.28807e-07
1.28829e-07
1.2885e-07
1.28875e-07
1.28898e-07
1.28911e-07
1.28932e-07
1.28946e-07
1.28968e-07
1.28983e-07
1.28997e-07
1.29012e-07
1.2903e-07
1.2904e-07
1.29049e-07
1.29063e-07
1.29073e-07
1.29072e-07
1.29085e-07
1.291e-07
1.29106e-07
1.29124e-07
1.29133e-07
1.29167e-07
1.29181e-07
1.29206e-07
1.29225e-07
1.29255e-07
1.29271e-07
1.29291e-07
1.29305e-07
1.29325e-07
1.29344e-07
1.2936e-07
1.29377e-07
1.29391e-07
1.2941e-07
1.29427e-07
1.29444e-07
1.29462e-07
1.29482e-07
1.29505e-07
1.29521e-07
1.29547e-07
1.29564e-07
1.29595e-07
1.29617e-07
1.29656e-07
1.29681e-07
1.29731e-07
1.29758e-07
1.29839e-07
1.29876e-07
1.31959e-07
1.36043e-07
4.82356e-08
1.23818e-07
1.23128e-07
1.23131e-07
1.23487e-07
1.23959e-07
1.24426e-07
1.24862e-07
1.25247e-07
1.25596e-07
1.25899e-07
1.26175e-07
1.26414e-07
1.26635e-07
1.26827e-07
1.27006e-07
1.27161e-07
1.27309e-07
1.27435e-07
1.27558e-07
1.27663e-07
1.27767e-07
1.27855e-07
1.27943e-07
1.28018e-07
1.28093e-07
1.28156e-07
1.28221e-07
1.28276e-07
1.28332e-07
1.2838e-07
1.28428e-07
1.28471e-07
1.28516e-07
1.28551e-07
1.28588e-07
1.28619e-07
1.28655e-07
1.28684e-07
1.28714e-07
1.2874e-07
1.28771e-07
1.28792e-07
1.28814e-07
1.28839e-07
1.28862e-07
1.28875e-07
1.28896e-07
1.28911e-07
1.28932e-07