/*--------------------------------*- C++ -*----------------------------------*\
| =========                 |                                                 |
| \\      /  F ield         | OpenFOAM: The Open Source CFD Toolbox           |
|  \\    /   O peration     | Version:  v2012                                 |
|   \\  /    A nd           | Website:  www.openfoam.com                      |
|    \\/     M anipulation  |                                                 |
\*---------------------------------------------------------------------------*/
FoamFile
{
    version     2.0;
    format      ascii;
    class       volVectorField;
    location    "24";
    object      wallShearStress;
}
// * * * * * * * * * * * * * * * * * * * * * * * * * * * * * * * * * * * * * //

dimensions      [0 2 -2 0 0 0 0];


internalField   uniform (0 0 0);

boundaryField
{
    inlet
    {
        type            calculated;
        value           uniform (0 0 0);
    }
    outlet
    {
        type            calculated;
        value           uniform (0 0 0);
    }
    topWall
    {
        type            calculated;
        value           nonuniform List<vector> 
545
(
(3.58986e-08 -2.52663e-08 0)
(3.58941e-08 -7.06983e-08 0)
(3.58688e-08 -1.17934e-07 0)
(3.58349e-08 -1.63797e-07 0)
(3.57954e-08 -2.07701e-07 0)
(3.5749e-08 -2.50212e-07 0)
(3.56962e-08 -2.9169e-07 0)
(3.56373e-08 -3.32117e-07 0)
(3.5573e-08 -3.71403e-07 0)
(3.55036e-08 -4.09548e-07 0)
(3.54296e-08 -4.46602e-07 0)
(3.53515e-08 -4.82606e-07 0)
(3.52698e-08 -5.17587e-07 0)
(3.51847e-08 -5.51565e-07 0)
(3.50966e-08 -5.84564e-07 0)
(3.50059e-08 -6.16609e-07 0)
(3.49129e-08 -6.47729e-07 0)
(3.48179e-08 -6.77946e-07 0)
(3.47212e-08 -7.07285e-07 0)
(3.46231e-08 -7.3577e-07 0)
(3.45237e-08 -7.63425e-07 0)
(3.44233e-08 -7.90273e-07 0)
(3.43222e-08 -8.16337e-07 0)
(3.42204e-08 -8.41638e-07 0)
(3.41183e-08 -8.66199e-07 0)
(3.4016e-08 -8.9004e-07 0)
(3.39136e-08 -9.13183e-07 0)
(3.38112e-08 -9.35648e-07 0)
(3.37091e-08 -9.57454e-07 0)
(3.36073e-08 -9.78622e-07 0)
(3.3506e-08 -9.99168e-07 0)
(3.34052e-08 -1.01911e-06 0)
(3.33051e-08 -1.03847e-06 0)
(3.32057e-08 -1.05727e-06 0)
(3.31072e-08 -1.07551e-06 0)
(3.30095e-08 -1.09322e-06 0)
(3.29128e-08 -1.11041e-06 0)
(3.28171e-08 -1.1271e-06 0)
(3.27225e-08 -1.14331e-06 0)
(3.2629e-08 -1.15904e-06 0)
(3.25367e-08 -1.17431e-06 0)
(3.24456e-08 -1.18914e-06 0)
(3.23557e-08 -1.20353e-06 0)
(3.22671e-08 -1.21751e-06 0)
(3.21798e-08 -1.23108e-06 0)
(3.20938e-08 -1.24426e-06 0)
(3.20091e-08 -1.25706e-06 0)
(3.19257e-08 -1.26949e-06 0)
(3.18437e-08 -1.28155e-06 0)
(3.17631e-08 -1.29327e-06 0)
(3.16838e-08 -1.30466e-06 0)
(3.16059e-08 -1.31571e-06 0)
(3.15293e-08 -1.32645e-06 0)
(3.14541e-08 -1.33688e-06 0)
(3.13803e-08 -1.34701e-06 0)
(3.13078e-08 -1.35685e-06 0)
(3.12366e-08 -1.3664e-06 0)
(3.11668e-08 -1.37569e-06 0)
(3.10983e-08 -1.38471e-06 0)
(3.10311e-08 -1.39347e-06 0)
(3.09653e-08 -1.40199e-06 0)
(3.09007e-08 -1.41026e-06 0)
(3.08374e-08 -1.4183e-06 0)
(3.07753e-08 -1.42611e-06 0)
(3.07145e-08 -1.43369e-06 0)
(3.06549e-08 -1.44107e-06 0)
(3.05966e-08 -1.44823e-06 0)
(3.05394e-08 -1.4552e-06 0)
(3.04834e-08 -1.46196e-06 0)
(3.04285e-08 -1.46854e-06 0)
(3.03749e-08 -1.47494e-06 0)
(3.03218e-08 -1.48114e-06 0)
(3.02704e-08 -1.48711e-06 0)
(3.02215e-08 -1.4929e-06 0)
(3.01729e-08 -1.49863e-06 0)
(3.01245e-08 -1.50432e-06 0)
(3.00762e-08 -1.51e-06 0)
(3.00278e-08 -1.51564e-06 0)
(2.99795e-08 -1.52124e-06 0)
(2.99313e-08 -1.52681e-06 0)
(2.98831e-08 -1.53234e-06 0)
(2.98349e-08 -1.53784e-06 0)
(2.97868e-08 -1.5433e-06 0)
(2.97387e-08 -1.54873e-06 0)
(2.96907e-08 -1.55413e-06 0)
(2.96428e-08 -1.55949e-06 0)
(2.95949e-08 -1.56482e-06 0)
(2.9547e-08 -1.57012e-06 0)
(2.94992e-08 -1.57538e-06 0)
(2.94515e-08 -1.58061e-06 0)
(2.94038e-08 -1.58581e-06 0)
(2.93562e-08 -1.59098e-06 0)
(2.93087e-08 -1.59612e-06 0)
(2.9261e-08 -1.60121e-06 0)
(2.92149e-08 -1.60631e-06 0)
(2.91628e-08 -1.6113e-06 0)
(2.91111e-08 -1.61585e-06 0)
(2.90702e-08 -1.62002e-06 0)
(2.90315e-08 -1.62406e-06 0)
(2.89928e-08 -1.62809e-06 0)
(2.89541e-08 -1.63218e-06 0)
(2.89152e-08 -1.63628e-06 0)
(2.88761e-08 -1.64038e-06 0)
(2.88368e-08 -1.64447e-06 0)
(2.87974e-08 -1.64857e-06 0)
(2.87577e-08 -1.65267e-06 0)
(2.87179e-08 -1.65678e-06 0)
(2.86778e-08 -1.66089e-06 0)
(2.86376e-08 -1.66501e-06 0)
(2.85972e-08 -1.66913e-06 0)
(2.85566e-08 -1.67326e-06 0)
(2.85158e-08 -1.67738e-06 0)
(2.84748e-08 -1.68152e-06 0)
(2.84336e-08 -1.68565e-06 0)
(2.83922e-08 -1.68979e-06 0)
(2.83507e-08 -1.69393e-06 0)
(2.83089e-08 -1.69808e-06 0)
(2.8267e-08 -1.70223e-06 0)
(2.82248e-08 -1.70638e-06 0)
(2.81825e-08 -1.71054e-06 0)
(2.81399e-08 -1.7147e-06 0)
(2.80972e-08 -1.71887e-06 0)
(2.80543e-08 -1.72304e-06 0)
(2.80111e-08 -1.72721e-06 0)
(2.79678e-08 -1.73138e-06 0)
(2.79243e-08 -1.73556e-06 0)
(2.78805e-08 -1.73974e-06 0)
(2.78366e-08 -1.74393e-06 0)
(2.77925e-08 -1.74811e-06 0)
(2.77482e-08 -1.75231e-06 0)
(2.77036e-08 -1.7565e-06 0)
(2.76589e-08 -1.7607e-06 0)
(2.7614e-08 -1.7649e-06 0)
(2.75688e-08 -1.7691e-06 0)
(2.75235e-08 -1.77331e-06 0)
(2.74779e-08 -1.77752e-06 0)
(2.74322e-08 -1.78173e-06 0)
(2.73862e-08 -1.78595e-06 0)
(2.73401e-08 -1.79016e-06 0)
(2.72937e-08 -1.79439e-06 0)
(2.72471e-08 -1.79861e-06 0)
(2.72003e-08 -1.80284e-06 0)
(2.71534e-08 -1.80706e-06 0)
(2.71062e-08 -1.8113e-06 0)
(2.70588e-08 -1.81553e-06 0)
(2.70111e-08 -1.81977e-06 0)
(2.69633e-08 -1.82401e-06 0)
(2.69153e-08 -1.82825e-06 0)
(2.6867e-08 -1.83249e-06 0)
(2.68186e-08 -1.83674e-06 0)
(2.67699e-08 -1.84099e-06 0)
(2.67211e-08 -1.84524e-06 0)
(2.6672e-08 -1.84949e-06 0)
(2.66227e-08 -1.85375e-06 0)
(2.65732e-08 -1.85801e-06 0)
(2.65234e-08 -1.86227e-06 0)
(2.64735e-08 -1.86653e-06 0)
(2.64233e-08 -1.87079e-06 0)
(2.6373e-08 -1.87506e-06 0)
(2.63224e-08 -1.87933e-06 0)
(2.62716e-08 -1.8836e-06 0)
(2.62206e-08 -1.88787e-06 0)
(2.61693e-08 -1.89214e-06 0)
(2.61179e-08 -1.89642e-06 0)
(2.60662e-08 -1.90069e-06 0)
(2.60144e-08 -1.90497e-06 0)
(2.59623e-08 -1.90925e-06 0)
(2.59099e-08 -1.91353e-06 0)
(2.58574e-08 -1.91781e-06 0)
(2.58047e-08 -1.9221e-06 0)
(2.57517e-08 -1.92638e-06 0)
(2.56985e-08 -1.93067e-06 0)
(2.56451e-08 -1.93496e-06 0)
(2.55915e-08 -1.93924e-06 0)
(2.55376e-08 -1.94353e-06 0)
(2.54835e-08 -1.94782e-06 0)
(2.54293e-08 -1.95212e-06 0)
(2.53747e-08 -1.95641e-06 0)
(2.532e-08 -1.9607e-06 0)
(2.52651e-08 -1.965e-06 0)
(2.52099e-08 -1.96929e-06 0)
(2.51545e-08 -1.97359e-06 0)
(2.50989e-08 -1.97788e-06 0)
(2.5043e-08 -1.98218e-06 0)
(2.4987e-08 -1.98648e-06 0)
(2.49307e-08 -1.99078e-06 0)
(2.48742e-08 -1.99508e-06 0)
(2.48175e-08 -1.99937e-06 0)
(2.47605e-08 -2.00367e-06 0)
(2.47033e-08 -2.00797e-06 0)
(2.46459e-08 -2.01227e-06 0)
(2.45883e-08 -2.01657e-06 0)
(2.45305e-08 -2.02087e-06 0)
(2.44724e-08 -2.02517e-06 0)
(2.44141e-08 -2.02947e-06 0)
(2.43556e-08 -2.03377e-06 0)
(2.42968e-08 -2.03807e-06 0)
(2.42379e-08 -2.04237e-06 0)
(2.41787e-08 -2.04667e-06 0)
(2.41192e-08 -2.05096e-06 0)
(2.40596e-08 -2.05526e-06 0)
(2.39997e-08 -2.05956e-06 0)
(2.39396e-08 -2.06385e-06 0)
(2.38793e-08 -2.06815e-06 0)
(2.38188e-08 -2.07245e-06 0)
(2.3758e-08 -2.07674e-06 0)
(2.3697e-08 -2.08103e-06 0)
(2.36358e-08 -2.08532e-06 0)
(2.35744e-08 -2.08962e-06 0)
(2.35127e-08 -2.09391e-06 0)
(2.34508e-08 -2.09819e-06 0)
(2.33887e-08 -2.10248e-06 0)
(2.33264e-08 -2.10677e-06 0)
(2.32638e-08 -2.11105e-06 0)
(2.3201e-08 -2.11534e-06 0)
(2.3138e-08 -2.11962e-06 0)
(2.30748e-08 -2.1239e-06 0)
(2.30113e-08 -2.12818e-06 0)
(2.29477e-08 -2.13246e-06 0)
(2.28838e-08 -2.13673e-06 0)
(2.28196e-08 -2.141e-06 0)
(2.27553e-08 -2.14527e-06 0)
(2.26907e-08 -2.14954e-06 0)
(2.26259e-08 -2.15381e-06 0)
(2.25609e-08 -2.15808e-06 0)
(2.24957e-08 -2.16234e-06 0)
(2.24302e-08 -2.1666e-06 0)
(2.23645e-08 -2.17086e-06 0)
(2.22986e-08 -2.17511e-06 0)
(2.22325e-08 -2.17937e-06 0)
(2.21661e-08 -2.18362e-06 0)
(2.20996e-08 -2.18786e-06 0)
(2.20328e-08 -2.19211e-06 0)
(2.19658e-08 -2.19635e-06 0)
(2.18986e-08 -2.20059e-06 0)
(2.18311e-08 -2.20482e-06 0)
(2.17634e-08 -2.20906e-06 0)
(2.16956e-08 -2.21328e-06 0)
(2.16275e-08 -2.21751e-06 0)
(2.15591e-08 -2.22173e-06 0)
(2.14906e-08 -2.22595e-06 0)
(2.14219e-08 -2.23017e-06 0)
(2.13529e-08 -2.23438e-06 0)
(2.12837e-08 -2.23859e-06 0)
(2.12143e-08 -2.24279e-06 0)
(2.11447e-08 -2.24699e-06 0)
(2.10749e-08 -2.25119e-06 0)
(2.10048e-08 -2.25538e-06 0)
(2.09346e-08 -2.25957e-06 0)
(2.08641e-08 -2.26376e-06 0)
(2.07935e-08 -2.26794e-06 0)
(2.07226e-08 -2.27211e-06 0)
(2.06515e-08 -2.27628e-06 0)
(2.05802e-08 -2.28045e-06 0)
(2.05087e-08 -2.28461e-06 0)
(2.04369e-08 -2.28877e-06 0)
(2.0365e-08 -2.29292e-06 0)
(2.02929e-08 -2.29707e-06 0)
(2.02205e-08 -2.30121e-06 0)
(2.0148e-08 -2.30535e-06 0)
(2.00752e-08 -2.30948e-06 0)
(2.00023e-08 -2.31361e-06 0)
(1.99291e-08 -2.31773e-06 0)
(1.98558e-08 -2.32184e-06 0)
(1.97822e-08 -2.32595e-06 0)
(1.97085e-08 -2.33006e-06 0)
(1.96344e-08 -2.33415e-06 0)
(1.95616e-08 -2.33827e-06 0)
(1.94855e-08 -2.34232e-06 0)
(1.94068e-08 -2.34616e-06 0)
(1.93362e-08 -2.34986e-06 0)
(1.927e-08 -2.35351e-06 0)
(1.92026e-08 -2.35717e-06 0)
(1.91348e-08 -2.36088e-06 0)
(1.90661e-08 -2.36464e-06 0)
(1.89967e-08 -2.36841e-06 0)
(1.89265e-08 -2.3722e-06 0)
(1.88554e-08 -2.37603e-06 0)
(1.87836e-08 -2.37988e-06 0)
(1.8711e-08 -2.38376e-06 0)
(1.86375e-08 -2.38766e-06 0)
(1.85632e-08 -2.39159e-06 0)
(1.84881e-08 -2.39555e-06 0)
(1.84121e-08 -2.39954e-06 0)
(1.83353e-08 -2.40355e-06 0)
(1.82576e-08 -2.40758e-06 0)
(1.81791e-08 -2.41165e-06 0)
(1.80997e-08 -2.41574e-06 0)
(1.80194e-08 -2.41986e-06 0)
(1.79383e-08 -2.424e-06 0)
(1.78562e-08 -2.42817e-06 0)
(1.77733e-08 -2.43236e-06 0)
(1.76895e-08 -2.43659e-06 0)
(1.76047e-08 -2.44083e-06 0)
(1.75191e-08 -2.4451e-06 0)
(1.74325e-08 -2.4494e-06 0)
(1.7345e-08 -2.45372e-06 0)
(1.72566e-08 -2.45807e-06 0)
(1.71672e-08 -2.46244e-06 0)
(1.70768e-08 -2.46684e-06 0)
(1.69855e-08 -2.47126e-06 0)
(1.68933e-08 -2.4757e-06 0)
(1.68001e-08 -2.48017e-06 0)
(1.67059e-08 -2.48466e-06 0)
(1.66107e-08 -2.48917e-06 0)
(1.65145e-08 -2.49371e-06 0)
(1.64173e-08 -2.49827e-06 0)
(1.63191e-08 -2.50285e-06 0)
(1.622e-08 -2.50746e-06 0)
(1.61198e-08 -2.51208e-06 0)
(1.60186e-08 -2.51673e-06 0)
(1.59163e-08 -2.52139e-06 0)
(1.58131e-08 -2.52608e-06 0)
(1.57088e-08 -2.53079e-06 0)
(1.56034e-08 -2.53552e-06 0)
(1.5497e-08 -2.54026e-06 0)
(1.53896e-08 -2.54502e-06 0)
(1.52811e-08 -2.54981e-06 0)
(1.51716e-08 -2.55461e-06 0)
(1.5061e-08 -2.55942e-06 0)
(1.49493e-08 -2.56426e-06 0)
(1.48366e-08 -2.56911e-06 0)
(1.47228e-08 -2.57397e-06 0)
(1.46079e-08 -2.57885e-06 0)
(1.44919e-08 -2.58374e-06 0)
(1.43749e-08 -2.58865e-06 0)
(1.42568e-08 -2.59357e-06 0)
(1.41376e-08 -2.5985e-06 0)
(1.40173e-08 -2.60345e-06 0)
(1.38959e-08 -2.6084e-06 0)
(1.37734e-08 -2.61337e-06 0)
(1.36499e-08 -2.61834e-06 0)
(1.35252e-08 -2.62332e-06 0)
(1.33995e-08 -2.62831e-06 0)
(1.32727e-08 -2.63331e-06 0)
(1.31448e-08 -2.63831e-06 0)
(1.30158e-08 -2.64332e-06 0)
(1.28858e-08 -2.64833e-06 0)
(1.27546e-08 -2.65335e-06 0)
(1.26224e-08 -2.65836e-06 0)
(1.24891e-08 -2.66338e-06 0)
(1.23548e-08 -2.6684e-06 0)
(1.22193e-08 -2.67342e-06 0)
(1.20828e-08 -2.67844e-06 0)
(1.19453e-08 -2.68345e-06 0)
(1.18067e-08 -2.68846e-06 0)
(1.16671e-08 -2.69347e-06 0)
(1.15265e-08 -2.69847e-06 0)
(1.13848e-08 -2.70346e-06 0)
(1.12421e-08 -2.70845e-06 0)
(1.10984e-08 -2.71342e-06 0)
(1.09537e-08 -2.71838e-06 0)
(1.0808e-08 -2.72333e-06 0)
(1.06613e-08 -2.72827e-06 0)
(1.05137e-08 -2.73319e-06 0)
(1.03651e-08 -2.7381e-06 0)
(1.02156e-08 -2.74299e-06 0)
(1.00652e-08 -2.74786e-06 0)
(9.91387e-09 -2.75271e-06 0)
(9.76164e-09 -2.75753e-06 0)
(9.60853e-09 -2.76234e-06 0)
(9.45457e-09 -2.76712e-06 0)
(9.29977e-09 -2.77187e-06 0)
(9.14415e-09 -2.77659e-06 0)
(8.98773e-09 -2.78129e-06 0)
(8.83053e-09 -2.78595e-06 0)
(8.67257e-09 -2.79058e-06 0)
(8.51388e-09 -2.79518e-06 0)
(8.35448e-09 -2.79974e-06 0)
(8.19439e-09 -2.80426e-06 0)
(8.03364e-09 -2.80874e-06 0)
(7.87225e-09 -2.81318e-06 0)
(7.71026e-09 -2.81758e-06 0)
(7.54769e-09 -2.82193e-06 0)
(7.38457e-09 -2.82624e-06 0)
(7.22094e-09 -2.8305e-06 0)
(7.05681e-09 -2.8347e-06 0)
(6.89222e-09 -2.83886e-06 0)
(6.72722e-09 -2.84296e-06 0)
(6.56182e-09 -2.847e-06 0)
(6.39608e-09 -2.85098e-06 0)
(6.23001e-09 -2.85491e-06 0)
(6.06367e-09 -2.85877e-06 0)
(5.89708e-09 -2.86257e-06 0)
(5.73029e-09 -2.8663e-06 0)
(5.56333e-09 -2.86997e-06 0)
(5.39626e-09 -2.87356e-06 0)
(5.2291e-09 -2.87709e-06 0)
(5.0619e-09 -2.88054e-06 0)
(4.89471e-09 -2.88391e-06 0)
(4.72757e-09 -2.8872e-06 0)
(4.56053e-09 -2.89042e-06 0)
(4.39363e-09 -2.89355e-06 0)
(4.22692e-09 -2.89659e-06 0)
(4.06045e-09 -2.89956e-06 0)
(3.89426e-09 -2.90243e-06 0)
(3.72841e-09 -2.90521e-06 0)
(3.56294e-09 -2.9079e-06 0)
(3.39792e-09 -2.91049e-06 0)
(3.23338e-09 -2.91299e-06 0)
(3.06939e-09 -2.91539e-06 0)
(2.90599e-09 -2.91769e-06 0)
(2.74324e-09 -2.91989e-06 0)
(2.58119e-09 -2.92198e-06 0)
(2.41991e-09 -2.92396e-06 0)
(2.25944e-09 -2.92584e-06 0)
(2.09984e-09 -2.92761e-06 0)
(1.94117e-09 -2.92926e-06 0)
(1.78349e-09 -2.9308e-06 0)
(1.62686e-09 -2.93223e-06 0)
(1.47132e-09 -2.93353e-06 0)
(1.31695e-09 -2.93472e-06 0)
(1.1638e-09 -2.93579e-06 0)
(1.01193e-09 -2.93673e-06 0)
(8.61407e-10 -2.93755e-06 0)
(7.1228e-10 -2.93824e-06 0)
(5.64613e-10 -2.93881e-06 0)
(4.18467e-10 -2.93925e-06 0)
(2.73901e-10 -2.93955e-06 0)
(1.30974e-10 -2.93973e-06 0)
(-1.02532e-11 -2.93977e-06 0)
(-1.49723e-10 -2.93968e-06 0)
(-2.87378e-10 -2.93945e-06 0)
(-4.23159e-10 -2.93908e-06 0)
(-5.57012e-10 -2.93858e-06 0)
(-6.8888e-10 -2.93794e-06 0)
(-8.18708e-10 -2.93716e-06 0)
(-9.46445e-10 -2.93624e-06 0)
(-1.07204e-09 -2.93517e-06 0)
(-1.19543e-09 -2.93397e-06 0)
(-1.31659e-09 -2.93262e-06 0)
(-1.43545e-09 -2.93113e-06 0)
(-1.55197e-09 -2.9295e-06 0)
(-1.66611e-09 -2.92772e-06 0)
(-1.77782e-09 -2.9258e-06 0)
(-1.88706e-09 -2.92374e-06 0)
(-1.99379e-09 -2.92153e-06 0)
(-2.09797e-09 -2.91917e-06 0)
(-2.19955e-09 -2.91667e-06 0)
(-2.29852e-09 -2.91403e-06 0)
(-2.39481e-09 -2.91124e-06 0)
(-2.48841e-09 -2.90831e-06 0)
(-2.57927e-09 -2.90524e-06 0)
(-2.66735e-09 -2.90203e-06 0)
(-2.75262e-09 -2.89867e-06 0)
(-2.83504e-09 -2.89517e-06 0)
(-2.9146e-09 -2.89153e-06 0)
(-2.99117e-09 -2.88777e-06 0)
(-3.06538e-09 -2.88381e-06 0)
(-3.13587e-09 -2.87977e-06 0)
(-3.20651e-09 -2.87519e-06 0)
(-3.2813e-09 -2.86989e-06 0)
(-3.3543e-09 -2.86448e-06 0)
(-3.42211e-09 -2.859e-06 0)
(-3.48514e-09 -2.85339e-06 0)
(-3.54342e-09 -2.84769e-06 0)
(-3.59706e-09 -2.84189e-06 0)
(-3.64619e-09 -2.83601e-06 0)
(-3.69094e-09 -2.83006e-06 0)
(-3.73145e-09 -2.82404e-06 0)
(-3.76786e-09 -2.81796e-06 0)
(-3.80032e-09 -2.81182e-06 0)
(-3.82895e-09 -2.80563e-06 0)
(-3.85388e-09 -2.7994e-06 0)
(-3.87524e-09 -2.79313e-06 0)
(-3.89315e-09 -2.78683e-06 0)
(-3.90774e-09 -2.78051e-06 0)
(-3.91912e-09 -2.77416e-06 0)
(-3.9274e-09 -2.7678e-06 0)
(-3.93269e-09 -2.76142e-06 0)
(-3.93509e-09 -2.75505e-06 0)
(-3.93471e-09 -2.74867e-06 0)
(-3.93164e-09 -2.74229e-06 0)
(-3.92596e-09 -2.73592e-06 0)
(-3.91778e-09 -2.72956e-06 0)
(-3.90716e-09 -2.72322e-06 0)
(-3.89421e-09 -2.71689e-06 0)
(-3.87898e-09 -2.71059e-06 0)
(-3.86157e-09 -2.70432e-06 0)
(-3.84203e-09 -2.69807e-06 0)
(-3.82045e-09 -2.69186e-06 0)
(-3.79688e-09 -2.68569e-06 0)
(-3.77139e-09 -2.67955e-06 0)
(-3.74405e-09 -2.67346e-06 0)
(-3.71491e-09 -2.66742e-06 0)
(-3.68402e-09 -2.66142e-06 0)
(-3.65145e-09 -2.65547e-06 0)
(-3.61724e-09 -2.64958e-06 0)
(-3.58145e-09 -2.64375e-06 0)
(-3.54413e-09 -2.63797e-06 0)
(-3.50531e-09 -2.63226e-06 0)
(-3.46506e-09 -2.62661e-06 0)
(-3.42341e-09 -2.62103e-06 0)
(-3.38039e-09 -2.61552e-06 0)
(-3.33606e-09 -2.61007e-06 0)
(-3.29046e-09 -2.6047e-06 0)
(-3.2436e-09 -2.59941e-06 0)
(-3.19554e-09 -2.59419e-06 0)
(-3.14631e-09 -2.58905e-06 0)
(-3.09594e-09 -2.58399e-06 0)
(-3.04446e-09 -2.57901e-06 0)
(-2.99189e-09 -2.57412e-06 0)
(-2.93828e-09 -2.56931e-06 0)
(-2.88365e-09 -2.5646e-06 0)
(-2.82801e-09 -2.55997e-06 0)
(-2.77142e-09 -2.55543e-06 0)
(-2.71387e-09 -2.55098e-06 0)
(-2.65541e-09 -2.54663e-06 0)
(-2.59606e-09 -2.54237e-06 0)
(-2.53583e-09 -2.53821e-06 0)
(-2.47476e-09 -2.53415e-06 0)
(-2.41286e-09 -2.53019e-06 0)
(-2.35016e-09 -2.52633e-06 0)
(-2.28669e-09 -2.52257e-06 0)
(-2.22246e-09 -2.51891e-06 0)
(-2.15749e-09 -2.51536e-06 0)
(-2.09181e-09 -2.51192e-06 0)
(-2.02545e-09 -2.50858e-06 0)
(-1.95841e-09 -2.50535e-06 0)
(-1.89073e-09 -2.50223e-06 0)
(-1.82242e-09 -2.49922e-06 0)
(-1.75351e-09 -2.49632e-06 0)
(-1.68402e-09 -2.49353e-06 0)
(-1.61397e-09 -2.49085e-06 0)
(-1.54337e-09 -2.48829e-06 0)
(-1.47226e-09 -2.48584e-06 0)
(-1.40064e-09 -2.48351e-06 0)
(-1.32853e-09 -2.4813e-06 0)
(-1.25597e-09 -2.4792e-06 0)
(-1.18295e-09 -2.47722e-06 0)
(-1.10951e-09 -2.47535e-06 0)
(-1.03566e-09 -2.47361e-06 0)
(-9.6143e-10 -2.47199e-06 0)
(-8.86842e-10 -2.47049e-06 0)
(-8.11936e-10 -2.4691e-06 0)
(-7.36768e-10 -2.46786e-06 0)
(-6.61407e-10 -2.46667e-06 0)
(-5.85979e-10 -2.46582e-06 0)
(-5.10551e-10 -2.46435e-06 0)
(-4.35497e-10 -2.46546e-06 0)
(-3.60111e-10 -2.4584e-06 0)
(-2.86964e-10 -2.47788e-06 0)
(-2.05987e-10 -2.40331e-06 0)
(-1.51498e-10 -2.6004e-06 0)
(-7.14412e-11 -2.27103e-06 0)
)
;
    }
    bottomWall
    {
        type            calculated;
        value           nonuniform List<vector> 
449
(
(-48.5391 -0.964186 0)
(-19.7573 -0.00515491 0)
(-14.3532 -0.0011333 0)
(-12.0502 -0.000542801 0)
(-10.6558 -0.000346461 0)
(-9.68462 -0.000245917 0)
(-8.97268 -0.00017656 0)
(-8.47348 -0.000110099 0)
(-8.21624 -2.33559e-05 0)
(-8.31505 0.000147581 0)
(-9.2417 0.000313899 0)
(-10.4906 0.000310185 0)
(-11.3908 0.000203342 0)
(-11.9024 0.00011282 0)
(-12.1764 5.97284e-05 0)
(-12.3194 2.91784e-05 0)
(-12.3806 9.44716e-06 0)
(-12.3855 -4.02566e-06 0)
(-12.3521 -1.25995e-05 0)
(-12.2965 -1.78756e-05 0)
(-12.2256 -2.11615e-05 0)
(-12.1465 -2.28059e-05 0)
(-12.0635 -2.3453e-05 0)
(-11.9794 -2.34927e-05 0)
(-11.8958 -2.31732e-05 0)
(-11.8136 -2.26647e-05 0)
(-11.7332 -2.20386e-05 0)
(-11.6551 -2.13246e-05 0)
(-11.5795 -2.05789e-05 0)
(-11.5064 -1.98291e-05 0)
(-11.4359 -1.90922e-05 0)
(-11.3678 -1.83765e-05 0)
(-11.3022 -1.76873e-05 0)
(-11.2388 -1.70248e-05 0)
(-11.1777 -1.64024e-05 0)
(-11.1186 -1.58176e-05 0)
(-11.0616 -1.52518e-05 0)
(-11.0064 -1.47073e-05 0)
(-10.953 -1.41892e-05 0)
(-10.9014 -1.36974e-05 0)
(-10.8515 -1.32317e-05 0)
(-10.8031 -1.27906e-05 0)
(-10.7562 -1.23735e-05 0)
(-10.7107 -1.19794e-05 0)
(-10.6666 -1.1609e-05 0)
(-10.6236 -1.12558e-05 0)
(-10.5819 -1.0917e-05 0)
(-10.5414 -1.06149e-05 0)
(-10.5017 -1.03683e-05 0)
(-10.4628 -1.01521e-05 0)
(-10.4246 -9.94043e-06 0)
(-10.3872 -9.73124e-06 0)
(-10.3504 -9.52298e-06 0)
(-10.3143 -9.31928e-06 0)
(-10.279 -9.12101e-06 0)
(-10.2442 -8.92849e-06 0)
(-10.2102 -8.74285e-06 0)
(-10.1767 -8.56274e-06 0)
(-10.1439 -8.38797e-06 0)
(-10.1117 -8.22035e-06 0)
(-10.08 -8.05754e-06 0)
(-10.0489 -7.9001e-06 0)
(-10.0183 -7.74707e-06 0)
(-9.98817 -7.59935e-06 0)
(-9.95859 -7.45658e-06 0)
(-9.92949 -7.31779e-06 0)
(-9.90087 -7.1839e-06 0)
(-9.87269 -7.05818e-06 0)
(-9.84492 -6.9392e-06 0)
(-9.81756 -6.81989e-06 0)
(-9.79061 -6.70122e-06 0)
(-9.76407 -6.58527e-06 0)
(-9.73792 -6.47242e-06 0)
(-9.71216 -6.36217e-06 0)
(-9.68678 -6.25536e-06 0)
(-9.66175 -6.15134e-06 0)
(-9.63709 -6.05047e-06 0)
(-9.61277 -5.95222e-06 0)
(-9.58878 -5.85713e-06 0)
(-9.56512 -5.76444e-06 0)
(-9.54178 -5.6742e-06 0)
(-9.51874 -5.58635e-06 0)
(-9.49601 -5.50074e-06 0)
(-9.47357 -5.41701e-06 0)
(-9.45142 -5.33509e-06 0)
(-9.42955 -5.25524e-06 0)
(-9.40796 -5.17684e-06 0)
(-9.38664 -5.10098e-06 0)
(-9.36558 -5.02646e-06 0)
(-9.34477 -4.95402e-06 0)
(-9.32422 -4.88313e-06 0)
(-9.30391 -4.81347e-06 0)
(-9.28384 -4.74632e-06 0)
(-9.264 -4.68047e-06 0)
(-9.2444 -4.61685e-06 0)
(-9.225 -4.55656e-06 0)
(-9.20581 -4.49738e-06 0)
(-9.18683 -4.43819e-06 0)
(-9.16806 -4.37825e-06 0)
(-9.1495 -4.31899e-06 0)
(-9.13114 -4.26226e-06 0)
(-9.11298 -4.2062e-06 0)
(-9.09502 -4.15066e-06 0)
(-9.07725 -4.09771e-06 0)
(-9.05967 -4.04463e-06 0)
(-9.04227 -3.99271e-06 0)
(-9.02505 -3.94256e-06 0)
(-9.00801 -3.89257e-06 0)
(-8.99115 -3.84362e-06 0)
(-8.97446 -3.79648e-06 0)
(-8.95793 -3.74903e-06 0)
(-8.94158 -3.70297e-06 0)
(-8.92537 -3.65835e-06 0)
(-8.90934 -3.61375e-06 0)
(-8.89345 -3.56992e-06 0)
(-8.87773 -3.52797e-06 0)
(-8.86214 -3.48576e-06 0)
(-8.84672 -3.44415e-06 0)
(-8.83143 -3.40444e-06 0)
(-8.81629 -3.36472e-06 0)
(-8.80129 -3.32497e-06 0)
(-8.78643 -3.28726e-06 0)
(-8.7717 -3.24984e-06 0)
(-8.75711 -3.21226e-06 0)
(-8.74265 -3.17598e-06 0)
(-8.72832 -3.14089e-06 0)
(-8.71411 -3.10524e-06 0)
(-8.70004 -3.07046e-06 0)
(-8.68608 -3.03722e-06 0)
(-8.67225 -3.00378e-06 0)
(-8.65853 -2.97024e-06 0)
(-8.64495 -2.93836e-06 0)
(-8.63145 -2.90702e-06 0)
(-8.61809 -2.87537e-06 0)
(-8.60483 -2.84471e-06 0)
(-8.5917 -2.8154e-06 0)
(-8.57864 -2.78645e-06 0)
(-8.56571 -2.7577e-06 0)
(-8.55287 -2.73018e-06 0)
(-8.54014 -2.7023e-06 0)
(-8.5275 -2.67389e-06 0)
(-8.51497 -2.64552e-06 0)
(-8.50254 -2.61865e-06 0)
(-8.49021 -2.59201e-06 0)
(-8.47797 -2.56536e-06 0)
(-8.46584 -2.53885e-06 0)
(-8.45379 -2.51356e-06 0)
(-8.44184 -2.4884e-06 0)
(-8.42998 -2.46318e-06 0)
(-8.41822 -2.43817e-06 0)
(-8.40655 -2.41431e-06 0)
(-8.39496 -2.39049e-06 0)
(-8.38346 -2.36661e-06 0)
(-8.37205 -2.34294e-06 0)
(-8.36072 -2.32039e-06 0)
(-8.34948 -2.29785e-06 0)
(-8.33832 -2.27524e-06 0)
(-8.32725 -2.25277e-06 0)
(-8.31626 -2.23147e-06 0)
(-8.30534 -2.21022e-06 0)
(-8.29451 -2.18894e-06 0)
(-8.28374 -2.16778e-06 0)
(-8.27307 -2.14765e-06 0)
(-8.26246 -2.12796e-06 0)
(-8.25193 -2.10795e-06 0)
(-8.24147 -2.08797e-06 0)
(-8.23109 -2.06887e-06 0)
(-8.22077 -2.05027e-06 0)
(-8.21053 -2.03158e-06 0)
(-8.20035 -2.01244e-06 0)
(-8.19026 -1.99447e-06 0)
(-8.18021 -1.97654e-06 0)
(-8.17025 -1.95629e-06 0)
(-8.16091 -1.94166e-06 0)
(-8.15211 -1.92987e-06 0)
(-8.14328 -1.91367e-06 0)
(-8.13444 -1.89803e-06 0)
(-8.12557 -1.88291e-06 0)
(-8.11668 -1.86692e-06 0)
(-8.10776 -1.85112e-06 0)
(-8.09883 -1.83562e-06 0)
(-8.08987 -1.82037e-06 0)
(-8.0809 -1.80481e-06 0)
(-8.0719 -1.78892e-06 0)
(-8.06289 -1.7733e-06 0)
(-8.05385 -1.75808e-06 0)
(-8.04481 -1.74303e-06 0)
(-8.03573 -1.72766e-06 0)
(-8.02665 -1.71196e-06 0)
(-8.01754 -1.69671e-06 0)
(-8.00842 -1.68176e-06 0)
(-7.99928 -1.66692e-06 0)
(-7.99013 -1.65168e-06 0)
(-7.98095 -1.6365e-06 0)
(-7.97177 -1.6217e-06 0)
(-7.96257 -1.60728e-06 0)
(-7.95336 -1.59257e-06 0)
(-7.94412 -1.5777e-06 0)
(-7.93488 -1.56292e-06 0)
(-7.92562 -1.54857e-06 0)
(-7.91635 -1.53451e-06 0)
(-7.90706 -1.52076e-06 0)
(-7.89776 -1.50677e-06 0)
(-7.88844 -1.49259e-06 0)
(-7.87911 -1.47835e-06 0)
(-7.86977 -1.46385e-06 0)
(-7.86042 -1.44925e-06 0)
(-7.85106 -1.43471e-06 0)
(-7.84171 -1.42058e-06 0)
(-7.83233 -1.40642e-06 0)
(-7.82296 -1.392e-06 0)
(-7.81358 -1.37754e-06 0)
(-7.8042 -1.36356e-06 0)
(-7.7948 -1.34956e-06 0)
(-7.78541 -1.33546e-06 0)
(-7.77601 -1.3211e-06 0)
(-7.76663 -1.30714e-06 0)
(-7.75722 -1.29354e-06 0)
(-7.74783 -1.27966e-06 0)
(-7.73843 -1.26583e-06 0)
(-7.72903 -1.25207e-06 0)
(-7.71963 -1.23874e-06 0)
(-7.71024 -1.22522e-06 0)
(-7.70084 -1.21159e-06 0)
(-7.69146 -1.19804e-06 0)
(-7.68207 -1.18492e-06 0)
(-7.67269 -1.17172e-06 0)
(-7.6633 -1.15854e-06 0)
(-7.65393 -1.14539e-06 0)
(-7.64456 -1.13265e-06 0)
(-7.6352 -1.12001e-06 0)
(-7.62584 -1.10721e-06 0)
(-7.61648 -1.09442e-06 0)
(-7.60714 -1.082e-06 0)
(-7.5978 -1.06958e-06 0)
(-7.58847 -1.05698e-06 0)
(-7.57914 -1.04441e-06 0)
(-7.56984 -1.03202e-06 0)
(-7.56054 -1.01979e-06 0)
(-7.55125 -1.00749e-06 0)
(-7.54197 -9.95203e-07 0)
(-7.53271 -9.8336e-07 0)
(-7.52346 -9.71613e-07 0)
(-7.51422 -9.59782e-07 0)
(-7.50499 -9.4796e-07 0)
(-7.49578 -9.3654e-07 0)
(-7.48658 -9.25124e-07 0)
(-7.4774 -9.13739e-07 0)
(-7.46823 -9.02322e-07 0)
(-7.45908 -8.91267e-07 0)
(-7.44994 -8.80168e-07 0)
(-7.44082 -8.69005e-07 0)
(-7.43171 -8.57968e-07 0)
(-7.42263 -8.47174e-07 0)
(-7.41355 -8.3648e-07 0)
(-7.40451 -8.2568e-07 0)
(-7.39547 -8.15187e-07 0)
(-7.38646 -8.04782e-07 0)
(-7.37747 -7.94456e-07 0)
(-7.36849 -7.84043e-07 0)
(-7.35954 -7.7385e-07 0)
(-7.35061 -7.63818e-07 0)
(-7.3417 -7.53677e-07 0)
(-7.33281 -7.43404e-07 0)
(-7.32395 -7.3353e-07 0)
(-7.31511 -7.23623e-07 0)
(-7.3063 -7.13841e-07 0)
(-7.29751 -7.04208e-07 0)
(-7.28875 -6.94845e-07 0)
(-7.28 -6.85619e-07 0)
(-7.27128 -6.76373e-07 0)
(-7.26259 -6.67236e-07 0)
(-7.25392 -6.58386e-07 0)
(-7.24527 -6.49665e-07 0)
(-7.23664 -6.4098e-07 0)
(-7.22804 -6.32354e-07 0)
(-7.21946 -6.24026e-07 0)
(-7.2109 -6.15514e-07 0)
(-7.20237 -6.07028e-07 0)
(-7.19386 -5.98833e-07 0)
(-7.18538 -5.90506e-07 0)
(-7.17693 -5.82274e-07 0)
(-7.1685 -5.74239e-07 0)
(-7.1601 -5.66342e-07 0)
(-7.15172 -5.5852e-07 0)
(-7.14337 -5.5085e-07 0)
(-7.13505 -5.43175e-07 0)
(-7.12675 -5.35758e-07 0)
(-7.11848 -5.28259e-07 0)
(-7.11023 -5.2082e-07 0)
(-7.10201 -5.13629e-07 0)
(-7.09382 -5.064e-07 0)
(-7.08566 -4.99259e-07 0)
(-7.07752 -4.92199e-07 0)
(-7.06942 -4.85329e-07 0)
(-7.06133 -4.78483e-07 0)
(-7.05328 -4.71701e-07 0)
(-7.04526 -4.65136e-07 0)
(-7.03725 -4.58561e-07 0)
(-7.02928 -4.5211e-07 0)
(-7.02134 -4.45645e-07 0)
(-7.01342 -4.39347e-07 0)
(-7.00553 -4.33151e-07 0)
(-6.99767 -4.27025e-07 0)
(-6.98983 -4.20988e-07 0)
(-6.98202 -4.15167e-07 0)
(-6.97423 -4.09274e-07 0)
(-6.96648 -4.03508e-07 0)
(-6.95874 -3.97894e-07 0)
(-6.95104 -3.92281e-07 0)
(-6.94335 -3.86711e-07 0)
(-6.93571 -3.81357e-07 0)
(-6.92807 -3.75969e-07 0)
(-6.92047 -3.7065e-07 0)
(-6.91289 -3.65369e-07 0)
(-6.90535 -3.60171e-07 0)
(-6.89781 -3.5503e-07 0)
(-6.89032 -3.4996e-07 0)
(-6.88285 -3.4496e-07 0)
(-6.87541 -3.40079e-07 0)
(-6.86798 -3.35247e-07 0)
(-6.8606 -3.30438e-07 0)
(-6.85323 -3.25723e-07 0)
(-6.8459 -3.21035e-07 0)
(-6.83858 -3.16335e-07 0)
(-6.83131 -3.1174e-07 0)
(-6.82404 -3.0726e-07 0)
(-6.81683 -3.02754e-07 0)
(-6.80962 -2.98379e-07 0)
(-6.80246 -2.94102e-07 0)
(-6.7953 -2.89828e-07 0)
(-6.78819 -2.85665e-07 0)
(-6.78109 -2.81542e-07 0)
(-6.77403 -2.7748e-07 0)
(-6.76698 -2.7344e-07 0)
(-6.75998 -2.69497e-07 0)
(-6.75298 -2.65621e-07 0)
(-6.74603 -2.61775e-07 0)
(-6.73909 -2.5802e-07 0)
(-6.73219 -2.5429e-07 0)
(-6.7253 -2.50696e-07 0)
(-6.71844 -2.47047e-07 0)
(-6.7116 -2.43548e-07 0)
(-6.7048 -2.40044e-07 0)
(-6.69801 -2.36554e-07 0)
(-6.69126 -2.33061e-07 0)
(-6.68452 -2.2982e-07 0)
(-6.67781 -2.26534e-07 0)
(-6.67112 -2.23468e-07 0)
(-6.66445 -2.20235e-07 0)
(-6.65781 -2.17199e-07 0)
(-6.65118 -2.13898e-07 0)
(-6.6446 -2.10941e-07 0)
(-6.63801 -2.07835e-07 0)
(-6.63076 -2.03583e-07 0)
(-6.62289 -1.99212e-07 0)
(-6.61521 -1.95498e-07 0)
(-6.60764 -1.92025e-07 0)
(-6.60022 -1.88543e-07 0)
(-6.59292 -1.85173e-07 0)
(-6.58577 -1.8192e-07 0)
(-6.57873 -1.78893e-07 0)
(-6.57181 -1.75989e-07 0)
(-6.56499 -1.73287e-07 0)
(-6.55829 -1.70703e-07 0)
(-6.55167 -1.68132e-07 0)
(-6.54517 -1.65542e-07 0)
(-6.53875 -1.63065e-07 0)
(-6.53244 -1.60652e-07 0)
(-6.52622 -1.58337e-07 0)
(-6.52009 -1.56049e-07 0)
(-6.51404 -1.53829e-07 0)
(-6.50808 -1.51751e-07 0)
(-6.50219 -1.49677e-07 0)
(-6.4964 -1.47741e-07 0)
(-6.49066 -1.45808e-07 0)
(-6.48502 -1.4392e-07 0)
(-6.47943 -1.42056e-07 0)
(-6.47393 -1.40223e-07 0)
(-6.46849 -1.38366e-07 0)
(-6.46313 -1.36576e-07 0)
(-6.45783 -1.3492e-07 0)
(-6.4526 -1.33242e-07 0)
(-6.44743 -1.3166e-07 0)
(-6.44233 -1.3004e-07 0)
(-6.43728 -1.28493e-07 0)
(-6.4323 -1.26892e-07 0)
(-6.42738 -1.25349e-07 0)
(-6.42252 -1.23899e-07 0)
(-6.41771 -1.22426e-07 0)
(-6.41296 -1.21102e-07 0)
(-6.40825 -1.19716e-07 0)
(-6.40362 -1.18432e-07 0)
(-6.39901 -1.17101e-07 0)
(-6.39448 -1.15766e-07 0)
(-6.38998 -1.14478e-07 0)
(-6.38555 -1.13189e-07 0)
(-6.38114 -1.11961e-07 0)
(-6.37681 -1.10742e-07 0)
(-6.3725 -1.09521e-07 0)
(-6.36826 -1.08376e-07 0)
(-6.36404 -1.07135e-07 0)
(-6.3599 -1.06087e-07 0)
(-6.35576 -1.05043e-07 0)
(-6.3517 -1.0411e-07 0)
(-6.34764 -1.0321e-07 0)
(-6.34365 -1.02231e-07 0)
(-6.33966 -1.01376e-07 0)
(-6.33573 -1.00466e-07 0)
(-6.33182 -9.96674e-08 0)
(-6.32795 -9.87742e-08 0)
(-6.32411 -9.79682e-08 0)
(-6.32031 -9.71209e-08 0)
(-6.31653 -9.62694e-08 0)
(-6.31279 -9.53879e-08 0)
(-6.30908 -9.45232e-08 0)
(-6.30542 -9.35931e-08 0)
(-6.30178 -9.27419e-08 0)
(-6.29818 -9.19126e-08 0)
(-6.2946 -9.10953e-08 0)
(-6.29107 -9.02742e-08 0)
(-6.28756 -8.94754e-08 0)
(-6.28408 -8.87004e-08 0)
(-6.28063 -8.79357e-08 0)
(-6.27722 -8.71792e-08 0)
(-6.27383 -8.63574e-08 0)
(-6.27048 -8.57365e-08 0)
(-6.26714 -8.49627e-08 0)
(-6.26385 -8.44116e-08 0)
(-6.26055 -8.36748e-08 0)
(-6.25732 -8.31682e-08 0)
(-6.25406 -8.24832e-08 0)
(-6.25088 -8.20009e-08 0)
(-6.24766 -8.1417e-08 0)
(-6.24453 -8.10205e-08 0)
(-6.24134 -8.03685e-08 0)
(-6.23825 -7.99107e-08 0)
(-6.2351 -7.93618e-08 0)
(-6.23206 -7.8827e-08 0)
(-6.22895 -7.86025e-08 0)
(-6.22592 -7.75741e-08 0)
(-6.22289 -7.86254e-08 0)
(-6.21978 -7.53978e-08 0)
(-6.21701 -8.13685e-08 0)
(-6.21342 -6.89588e-08 0)
(-6.21166 -9.09506e-08 0)
(-6.20626 -5.33282e-08 0)
(-6.20761 -7.19389e-08 0)
(-6.20044 -9.56295e-08 0)
)
;
    }
    symmetry
    {
        type            symmetryPlane;
    }
    frontAndBack
    {
        type            empty;
    }
}


// ************************************************************************* //
