/*--------------------------------*- C++ -*----------------------------------*\
| =========                 |                                                 |
| \\      /  F ield         | OpenFOAM: The Open Source CFD Toolbox           |
|  \\    /   O peration     | Version:  v2012                                 |
|   \\  /    A nd           | Website:  www.openfoam.com                      |
|    \\/     M anipulation  |                                                 |
\*---------------------------------------------------------------------------*/
FoamFile
{
    version     2.0;
    format      ascii;
    class       volScalarField;
    location    "24";
    object      yPlus;
}
// * * * * * * * * * * * * * * * * * * * * * * * * * * * * * * * * * * * * * //

dimensions      [0 0 0 0 0 0 0];


internalField   uniform 0;

boundaryField
{
    inlet
    {
        type            calculated;
        value           uniform 0;
    }
    outlet
    {
        type            calculated;
        value           uniform 0;
    }
    topWall
    {
        type            calculated;
        value           nonuniform List<scalar> 
545
(
0.110034
0.18976
0.243448
0.286165
0.322327
0.353966
0.382225
0.407823
0.431248
0.452853
0.472901
0.491595
0.509099
0.525542
0.541035
0.555667
0.569516
0.582649
0.595122
0.606988
0.61829
0.629068
0.639357
0.649189
0.658594
0.667596
0.676219
0.684486
0.692417
0.700028
0.707339
0.714364
0.721117
0.727613
0.733864
0.739881
0.745676
0.751259
0.756639
0.761827
0.766829
0.771655
0.776312
0.780807
0.785147
0.789339
0.793387
0.797299
0.80108
0.804735
0.808268
0.811685
0.814991
0.818188
0.821282
0.824276
0.827174
0.82998
0.832697
0.835327
0.837875
0.840343
0.842735
0.845052
0.847297
0.849473
0.851582
0.853627
0.85561
0.857532
0.859397
0.861205
0.862935
0.86461
0.866271
0.867919
0.869553
0.871174
0.872783
0.874378
0.875961
0.877531
0.879088
0.880634
0.882167
0.883688
0.885197
0.886694
0.888179
0.889653
0.891115
0.892565
0.894005
0.895433
0.89685
0.898257
0.899523
0.900655
0.901788
0.90292
0.904051
0.905183
0.906314
0.907445
0.908576
0.909706
0.910836
0.911966
0.913095
0.914224
0.915353
0.916482
0.91761
0.918737
0.919865
0.920992
0.922118
0.923245
0.92437
0.925496
0.926621
0.927745
0.92887
0.929993
0.931117
0.932239
0.933362
0.934484
0.935605
0.936726
0.937847
0.938966
0.940086
0.941205
0.942323
0.943441
0.944558
0.945675
0.946791
0.947907
0.949022
0.950136
0.95125
0.952363
0.953476
0.954588
0.955699
0.95681
0.95792
0.959029
0.960138
0.961246
0.962353
0.96346
0.964566
0.965671
0.966775
0.967879
0.968982
0.970084
0.971185
0.972286
0.973386
0.974485
0.975583
0.97668
0.977777
0.978872
0.979967
0.981061
0.982154
0.983246
0.984337
0.985427
0.986517
0.987605
0.988693
0.989779
0.990865
0.991949
0.993033
0.994116
0.995197
0.996278
0.997357
0.998436
0.999513
1.00059
1.00166
1.00274
1.00381
1.00488
1.00595
1.00702
1.00809
1.00916
1.01023
1.01129
1.01235
1.01342
1.01448
1.01554
1.0166
1.01765
1.01871
1.01977
1.02082
1.02187
1.02292
1.02397
1.02502
1.02607
1.02711
1.02816
1.0292
1.03024
1.03128
1.03232
1.03336
1.03439
1.03542
1.03646
1.03749
1.03852
1.03955
1.04057
1.0416
1.04262
1.04364
1.04466
1.04568
1.0467
1.04771
1.04872
1.04974
1.05075
1.05175
1.05276
1.05376
1.05477
1.05577
1.05677
1.05777
1.05876
1.05976
1.06075
1.06174
1.06273
1.06371
1.0647
1.06568
1.06666
1.06764
1.06862
1.06959
1.07056
1.07153
1.0725
1.07347
1.07443
1.0754
1.07636
1.07732
1.07827
1.07923
1.08018
1.08113
1.08208
1.08302
1.08391
1.08475
1.0856
1.08645
1.0873
1.08817
1.08903
1.08991
1.09078
1.09167
1.09256
1.09345
1.09435
1.09526
1.09617
1.09708
1.098
1.09893
1.09986
1.1008
1.10174
1.10269
1.10364
1.1046
1.10556
1.10653
1.1075
1.10848
1.10946
1.11045
1.11144
1.11243
1.11343
1.11444
1.11545
1.11646
1.11748
1.1185
1.11952
1.12055
1.12159
1.12262
1.12366
1.12471
1.12576
1.12681
1.12786
1.12892
1.12998
1.13104
1.13211
1.13318
1.13425
1.13532
1.1364
1.13748
1.13856
1.13964
1.14072
1.14181
1.14289
1.14398
1.14507
1.14616
1.14725
1.14834
1.14943
1.15052
1.15161
1.1527
1.15379
1.15488
1.15597
1.15706
1.15814
1.15923
1.16031
1.16139
1.16247
1.16354
1.16461
1.16568
1.16675
1.16781
1.16887
1.16992
1.17097
1.17202
1.17306
1.1741
1.17513
1.17615
1.17717
1.17818
1.17918
1.18018
1.18117
1.18215
1.18312
1.18409
1.18505
1.18599
1.18693
1.18786
1.18878
1.18968
1.19058
1.19147
1.19234
1.1932
1.19405
1.19489
1.19571
1.19652
1.19731
1.1981
1.19886
1.19961
1.20035
1.20107
1.20177
1.20246
1.20313
1.20378
1.20442
1.20503
1.20563
1.20621
1.20677
1.20731
1.20783
1.20832
1.2088
1.20926
1.20969
1.2101
1.21049
1.21086
1.2112
1.21152
1.21182
1.21209
1.21233
1.21255
1.21275
1.21292
1.21306
1.21318
1.21327
1.21334
1.21337
1.21338
1.21337
1.21332
1.21325
1.21314
1.21301
1.21285
1.21266
1.21244
1.2122
1.21192
1.21161
1.21127
1.21091
1.21051
1.21009
1.20963
1.20914
1.20863
1.20808
1.2075
1.2069
1.20626
1.20559
1.2049
1.20417
1.20341
1.20263
1.20181
1.20097
1.2
1.1989
1.19778
1.19663
1.19545
1.19426
1.19305
1.19181
1.19056
1.18929
1.18801
1.18672
1.18541
1.1841
1.18277
1.18144
1.1801
1.17875
1.1774
1.17604
1.17468
1.17332
1.17196
1.1706
1.16924
1.16788
1.16652
1.16517
1.16382
1.16248
1.16114
1.15981
1.15848
1.15717
1.15586
1.15456
1.15327
1.15199
1.15072
1.14946
1.14822
1.14699
1.14577
1.14456
1.14337
1.14219
1.14103
1.13989
1.13876
1.13764
1.13655
1.13547
1.13441
1.13337
1.13234
1.13134
1.13036
1.12939
1.12845
1.12752
1.12662
1.12574
1.12488
1.12404
1.12323
1.12244
1.12167
1.12092
1.1202
1.1195
1.11883
1.11818
1.11756
1.11696
1.11638
1.11583
1.11531
1.11481
1.11434
1.1139
1.11348
1.11308
1.11272
1.11238
1.11207
1.11179
1.11153
1.1113
1.1111
1.11093
1.11078
1.11066
1.11057
1.11051
1.11045
)
;
    }
    bottomWall
    {
        type            calculated;
        value           nonuniform List<scalar> 
449
(
0.139463
0.0889746
0.0758362
0.0694864
0.0653423
0.0622936
0.0599602
0.0582684
0.0573771
0.0577211
0.0608524
0.0648338
0.0675584
0.0690587
0.0698492
0.0702581
0.0704323
0.0704464
0.0703513
0.0701929
0.0699902
0.0697633
0.0695247
0.0692819
0.0690396
0.0688006
0.0685662
0.0683376
0.0681156
0.0679003
0.0676919
0.0674902
0.067295
0.0671062
0.0669235
0.0667464
0.0665748
0.0664086
0.0662475
0.0660912
0.0659397
0.0657925
0.0656496
0.0655106
0.0653754
0.0652437
0.0651155
0.0649906
0.0648683
0.064748
0.0646298
0.0645135
0.0643992
0.0642869
0.0641766
0.0640681
0.0639615
0.0638567
0.0637536
0.0636522
0.0635524
0.0634542
0.0633575
0.0632623
0.0631686
0.0630762
0.0629852
0.0628955
0.062807
0.0627197
0.0626335
0.0625486
0.0624648
0.0623821
0.0623005
0.06222
0.0621405
0.0620621
0.0619846
0.0619081
0.0618325
0.0617578
0.061684
0.0616111
0.061539
0.0614678
0.0613974
0.0613278
0.0612589
0.0611908
0.0611235
0.0610569
0.060991
0.0609258
0.0608613
0.0607974
0.0607342
0.0606715
0.0606095
0.0605481
0.0604874
0.0604272
0.0603676
0.0603086
0.0602501
0.0601923
0.0601349
0.0600782
0.0600219
0.0599662
0.0599109
0.0598562
0.0598019
0.0597482
0.0596949
0.0596421
0.0595897
0.0595379
0.0594864
0.0594354
0.0593848
0.0593346
0.0592849
0.0592356
0.0591866
0.0591381
0.0590899
0.0590422
0.0589948
0.0589479
0.0589012
0.058855
0.058809
0.0587635
0.0587183
0.0586734
0.0586288
0.0585846
0.0585407
0.0584971
0.0584538
0.0584109
0.0583682
0.0583259
0.0582838
0.0582421
0.0582007
0.0581595
0.0581186
0.0580781
0.0580378
0.0579978
0.057958
0.0579186
0.0578794
0.0578405
0.0578018
0.0577634
0.0577253
0.0576874
0.0576497
0.0576123
0.0575752
0.0575383
0.0575016
0.0574651
0.0574289
0.0573929
0.0573572
0.0573216
0.0572863
0.0572511
0.0572163
0.0571836
0.0571528
0.0571218
0.0570908
0.0570596
0.0570284
0.0569971
0.0569657
0.0569342
0.0569026
0.0568709
0.0568391
0.0568073
0.0567753
0.0567433
0.0567112
0.056679
0.0566468
0.0566145
0.0565821
0.0565496
0.0565171
0.0564844
0.0564517
0.0564189
0.0563861
0.0563532
0.0563202
0.0562872
0.0562541
0.0562209
0.0561876
0.0561543
0.0561209
0.0560875
0.0560541
0.0560206
0.055987
0.0559535
0.0559199
0.0558862
0.0558525
0.0558188
0.0557851
0.0557513
0.0557176
0.0556837
0.0556499
0.0556161
0.0555822
0.0555484
0.0555145
0.0554806
0.0554467
0.0554128
0.0553789
0.055345
0.0553111
0.0552772
0.0552433
0.0552094
0.0551755
0.0551416
0.0551077
0.0550738
0.05504
0.0550062
0.0549724
0.0549386
0.0549049
0.0548711
0.0548374
0.0548038
0.0547701
0.0547365
0.054703
0.0546694
0.0546359
0.0546025
0.0545691
0.0545357
0.0545024
0.0544691
0.0544359
0.0544027
0.0543695
0.0543365
0.0543034
0.0542705
0.0542376
0.0542047
0.054172
0.0541393
0.0541067
0.0540741
0.0540416
0.0540092
0.0539769
0.0539446
0.0539124
0.0538802
0.0538481
0.0538161
0.0537842
0.0537523
0.0537205
0.0536887
0.0536571
0.0536255
0.053594
0.0535626
0.0535312
0.0535
0.0534688
0.0534377
0.0534067
0.0533757
0.0533449
0.0533141
0.0532834
0.0532528
0.0532223
0.0531919
0.0531616
0.0531313
0.0531011
0.053071
0.053041
0.0530111
0.0529813
0.0529516
0.0529219
0.0528923
0.0528628
0.0528334
0.0528041
0.0527748
0.0527457
0.0527166
0.0526876
0.0526587
0.0526298
0.0526011
0.0525724
0.0525438
0.0525153
0.052487
0.0524586
0.0524304
0.0524022
0.0523742
0.0523462
0.0523183
0.0522905
0.0522629
0.0522352
0.0522077
0.0521803
0.052153
0.0521257
0.0520986
0.0520714
0.0520445
0.0520175
0.0519908
0.051964
0.0519374
0.0519108
0.0518844
0.0518579
0.0518316
0.0518054
0.0517793
0.0517532
0.0517272
0.0517013
0.0516754
0.0516497
0.051624
0.0515984
0.0515728
0.0515446
0.0515141
0.0514842
0.0514547
0.0514258
0.0513974
0.0513695
0.051342
0.051315
0.0512884
0.0512622
0.0512363
0.0512109
0.0511858
0.0511611
0.0511367
0.0511127
0.051089
0.0510656
0.0510425
0.0510198
0.0509972
0.050975
0.0509531
0.0509315
0.05091
0.050889
0.0508681
0.0508475
0.0508271
0.050807
0.0507871
0.0507674
0.050748
0.0507288
0.0507098
0.0506911
0.0506725
0.0506541
0.0506359
0.050618
0.0506001
0.0505826
0.0505651
0.050548
0.0505309
0.0505141
0.0504974
0.0504809
0.0504645
0.0504484
0.0504322
0.0504164
0.0504005
0.0503849
0.0503693
0.050354
0.0503387
0.0503235
0.0503085
0.0502936
0.0502788
0.0502642
0.0502497
0.0502354
0.0502211
0.050207
0.050193
0.0501791
0.0501653
0.0501517
0.0501382
0.0501248
0.0501114
0.0500983
0.0500851
0.0500721
0.0500591
0.0500464
0.0500335
0.0500209
0.0500082
0.0499958
0.0499832
0.049971
0.0499585
0.0499464
0.0499342
0.0499217
0.0499106
0.0498962
0.0498891
0.0498674
0.0498729
0.049844
)
;
    }
    symmetry
    {
        type            symmetryPlane;
    }
    frontAndBack
    {
        type            empty;
    }
}


// ************************************************************************* //
