/*--------------------------------*- C++ -*----------------------------------*\
| =========                 |                                                 |
| \\      /  F ield         | OpenFOAM: The Open Source CFD Toolbox           |
|  \\    /   O peration     | Version:  v2012                                 |
|   \\  /    A nd           | Website:  www.openfoam.com                      |
|    \\/     M anipulation  |                                                 |
\*---------------------------------------------------------------------------*/
FoamFile
{
    version     2.0;
    format      ascii;
    class       volScalarField;
    location    "17.5";
    object      k;
}
// * * * * * * * * * * * * * * * * * * * * * * * * * * * * * * * * * * * * * //

dimensions      [0 2 -2 0 0 0 0];


internalField   nonuniform List<scalar> 
209825
(
0.00101956
0.000935801
0.000883354
0.000849561
0.000826228
0.000809248
0.000796225
0.00078602
0.000777694
0.000770906
0.000765137
0.000760317
0.000756108
0.000752516
0.000749321
0.000746587
0.000744096
0.000741956
0.000739964
0.000738251
0.000736631
0.000735234
0.000733897
0.000732765
0.000731655
0.000730713
0.000729781
0.000729013
0.000728231
0.00072756
0.000726922
0.000726394
0.000725851
0.000725404
0.000724933
0.000724531
0.000724128
0.000723805
0.00072346
0.000723193
0.000722895
0.000722647
0.000722384
0.000722182
0.000721969
0.00072179
0.000721613
0.000721474
0.000721303
0.000721202
0.00072106
0.000720945
0.000720843
0.000720787
0.000720675
0.000720609
0.000720574
0.000720526
0.00072039
0.000720408
0.000720408
0.000720407
0.000720387
0.000720551
0.000720674
0.000720674
0.000720801
0.00072095
0.000721222
0.000721435
0.000721585
0.000721744
0.000721973
0.000722229
0.000722496
0.00072286
0.000723181
0.000723584
0.000723871
0.000724343
0.000724684
0.000725273
0.00072569
0.000726469
0.000726928
0.00072787
0.000728428
0.000729603
0.000730328
0.000731901
0.000732799
0.000735549
0.000736192
0.000746139
0.00994605
0.00974223
0.00101956
0.000935799
0.000883347
0.00084955
0.000826214
0.000809231
0.000796205
0.000785999
0.000777672
0.000770882
0.000765112
0.000760291
0.000756081
0.000752489
0.000749293
0.000746558
0.000744067
0.000741926
0.000739933
0.000738221
0.0007366
0.000735203
0.000733866
0.000732733
0.000731623
0.000730681
0.000729749
0.000728981
0.000728199
0.000727527
0.000726889
0.00072636
0.000725817
0.000725371
0.000724899
0.000724497
0.000724094
0.000723771
0.000723426
0.000723159
0.000722861
0.000722613
0.00072235
0.000722148
0.000721935
0.000721756
0.000721579
0.000721439
0.000721268
0.000721168
0.000721025
0.000720911
0.000720809
0.000720752
0.00072064
0.000720575
0.000720539
0.000720491
0.000720355
0.000720373
0.000720373
0.000720372
0.000720352
0.000720516
0.000720639
0.000720639
0.000720766
0.000720915
0.000721187
0.0007214
0.00072155
0.000721709
0.000721938
0.000722194
0.000722461
0.000722825
0.000723147
0.000723549
0.000723836
0.000724308
0.000724649
0.000725238
0.000725655
0.000726434
0.000726893
0.000727836
0.000728393
0.000729569
0.000730294
0.000731866
0.000732765
0.000735515
0.000736156
0.00074612
0.00995437
0.00975374
0.00101957
0.000935787
0.000883315
0.0008495
0.000826149
0.000809156
0.000796121
0.000785907
0.000777575
0.00077078
0.000765006
0.000760181
0.000755968
0.000752373
0.000749175
0.000746438
0.000743945
0.000741802
0.000739808
0.000738094
0.000736473
0.000735074
0.000733736
0.000732602
0.000731491
0.000730548
0.000729615
0.000728847
0.000728064
0.000727392
0.000726753
0.000726224
0.00072568
0.000725233
0.000724761
0.000724359
0.000723956
0.000723632
0.000723287
0.000723019
0.000722721
0.000722473
0.00072221
0.000722007
0.000721794
0.000721615
0.000721437
0.000721298
0.000721127
0.000721026
0.000720884
0.000720769
0.000720667
0.00072061
0.000720498
0.000720432
0.000720396
0.000720349
0.000720213
0.000720231
0.000720231
0.00072023
0.00072021
0.000720373
0.000720496
0.000720496
0.000720623
0.000720773
0.000721044
0.000721257
0.000721408
0.000721566
0.000721795
0.000722051
0.000722318
0.000722682
0.000723003
0.000723406
0.000723693
0.000724165
0.000724506
0.000725095
0.000725512
0.000726291
0.00072675
0.000727692
0.00072825
0.000729425
0.00073015
0.000731723
0.000732621
0.000735371
0.000736009
0.000746004
0.00997216
0.00978039
0.00101957
0.000935767
0.00088326
0.000849414
0.00082604
0.000809028
0.000795979
0.000785753
0.00077741
0.000770608
0.000764827
0.000759996
0.000755778
0.000752179
0.000748976
0.000746236
0.000743739
0.000741594
0.000739597
0.000737881
0.000736257
0.000734857
0.000733517
0.000732382
0.000731269
0.000730325
0.000729391
0.000728621
0.000727837
0.000727164
0.000726524
0.000725994
0.00072545
0.000725002
0.000724529
0.000724127
0.000723723
0.000723398
0.000723052
0.000722784
0.000722486
0.000722237
0.000721974
0.000721771
0.000721557
0.000721378
0.0007212
0.00072106
0.000720889
0.000720788
0.000720645
0.00072053
0.000720428
0.000720371
0.000720259
0.000720193
0.000720157
0.00072011
0.000719974
0.000719991
0.000719991
0.00071999
0.00071997
0.000720133
0.000720256
0.000720256
0.000720383
0.000720532
0.000720803
0.000721017
0.000721167
0.000721326
0.000721554
0.000721811
0.000722077
0.000722441
0.000722762
0.000723165
0.000723453
0.000723924
0.000724265
0.000724855
0.000725271
0.00072605
0.000726509
0.000727451
0.000728009
0.000729184
0.000729908
0.00073148
0.000732378
0.000735128
0.000735761
0.000745803
0.01
0.00982244
0.00101958
0.000935738
0.000883182
0.000849294
0.000825886
0.000808848
0.000795778
0.000785535
0.000777179
0.000770365
0.000764574
0.000759735
0.000755509
0.000751904
0.000748696
0.000745951
0.000743449
0.0007413
0.0007393
0.00073758
0.000735954
0.000734551
0.000733208
0.000732071
0.000730956
0.00073001
0.000729074
0.000728303
0.000727517
0.000726843
0.000726202
0.000725671
0.000725125
0.000724676
0.000724202
0.000723799
0.000723394
0.000723069
0.000722722
0.000722453
0.000722154
0.000721905
0.000721641
0.000721437
0.000721223
0.000721043
0.000720865
0.000720725
0.000720553
0.000720452
0.000720309
0.000720194
0.000720091
0.000720035
0.000719922
0.000719856
0.00071982
0.000719772
0.000719637
0.000719653
0.000719654
0.000719652
0.000719631
0.000719794
0.000719917
0.000719917
0.000720044
0.000720193
0.000720464
0.000720677
0.000720828
0.000720987
0.000721215
0.000721471
0.000721738
0.000722102
0.000722422
0.000722825
0.000723113
0.000723585
0.000723925
0.000724515
0.000724931
0.00072571
0.000726168
0.000727111
0.000727668
0.000728843
0.000729567
0.000731138
0.000732035
0.000734784
0.000735411
0.000745518
0.0100387
0.00988054
0.00101959
0.000935701
0.000883081
0.000849137
0.000825686
0.000808614
0.000795517
0.000785253
0.000776879
0.00077005
0.000764247
0.000759396
0.000755162
0.000751548
0.000748332
0.000745581
0.000743074
0.00074092
0.000738915
0.000737191
0.000735561
0.000734154
0.000732808
0.000731668
0.000730551
0.000729602
0.000728664
0.00072789
0.000727103
0.000726427
0.000725784
0.000725251
0.000724704
0.000724253
0.000723779
0.000723374
0.000722968
0.000722641
0.000722294
0.000722024
0.000721724
0.000721474
0.000721209
0.000721005
0.00072079
0.00072061
0.000720431
0.000720291
0.000720119
0.000720017
0.000719874
0.000719758
0.000719655
0.000719598
0.000719486
0.000719419
0.000719382
0.000719335
0.000719199
0.000719216
0.000719216
0.000719214
0.000719192
0.000719355
0.000719478
0.000719478
0.000719604
0.000719753
0.000720024
0.000720238
0.000720389
0.000720547
0.000720775
0.000721032
0.000721297
0.000721661
0.000721982
0.000722385
0.000722672
0.000723144
0.000723485
0.000724074
0.00072449
0.000725269
0.000725727
0.000726669
0.000727226
0.0007284
0.000729124
0.000730694
0.00073159
0.000734339
0.000734957
0.000745148
0.0100887
0.00995532
0.0010196
0.000935655
0.000882957
0.000848945
0.00082544
0.000808327
0.000795197
0.000784906
0.000776509
0.000769662
0.000763843
0.00075898
0.000754733
0.000751109
0.000747885
0.000745125
0.000742611
0.000740451
0.00073844
0.000736711
0.000735076
0.000733665
0.000732316
0.000731172
0.000730051
0.0007291
0.000728158
0.000727382
0.000726592
0.000725914
0.000725269
0.000724734
0.000724185
0.000723733
0.000723256
0.00072285
0.000722442
0.000722115
0.000721766
0.000721495
0.000721194
0.000720943
0.000720678
0.000720473
0.000720257
0.000720076
0.000719896
0.000719755
0.000719583
0.00071948
0.000719337
0.000719221
0.000719117
0.00071906
0.000718947
0.000718881
0.000718843
0.000718796
0.00071866
0.000718676
0.000718676
0.000718674
0.000718652
0.000718813
0.000718936
0.000718936
0.000719063
0.000719212
0.000719481
0.000719695
0.000719847
0.000720006
0.000720233
0.000720489
0.000720755
0.000721118
0.000721438
0.000721842
0.000722129
0.000722602
0.000722941
0.000723531
0.000723946
0.000724725
0.000725183
0.000726125
0.000726682
0.000727855
0.000728578
0.000730147
0.000731041
0.000733789
0.000734397
0.000744691
0.0101506
0.0100473
0.00101961
0.000935601
0.00088281
0.000848717
0.000825148
0.000807985
0.000794815
0.000784492
0.00077607
0.0007692
0.000763363
0.000758483
0.000754223
0.000750587
0.000747352
0.000744583
0.00074206
0.000739892
0.000737875
0.000736139
0.000734499
0.000733083
0.000731728
0.00073058
0.000729456
0.000728501
0.000727556
0.000726776
0.000725984
0.000725303
0.000724655
0.000724118
0.000723566
0.000723112
0.000722634
0.000722226
0.000721816
0.000721488
0.000721137
0.000720865
0.000720563
0.000720311
0.000720044
0.000719838
0.000719621
0.000719439
0.000719259
0.000719117
0.000718944
0.000718841
0.000718697
0.000718581
0.000718476
0.000718418
0.000718306
0.000718239
0.000718201
0.000718153
0.000718018
0.000718032
0.000718032
0.00071803
0.000718007
0.000718168
0.00071829
0.00071829
0.000718417
0.000718566
0.000718834
0.000719049
0.000719201
0.00071936
0.000719587
0.000719843
0.000720107
0.000720471
0.000720791
0.000721195
0.000721482
0.000721954
0.000722294
0.000722884
0.000723298
0.000724077
0.000724535
0.000725476
0.000726033
0.000727204
0.000727927
0.000729494
0.000730387
0.000733134
0.000733729
0.000744147
0.010225
0.0101571
0.00101963
0.000935539
0.000882639
0.000848453
0.000824809
0.000807588
0.000794372
0.000784012
0.000775559
0.000768663
0.000762804
0.000757906
0.000753629
0.000749979
0.000746732
0.000743952
0.000741419
0.000739242
0.000737217
0.000735474
0.000733827
0.000732405
0.000731045
0.000729892
0.000728763
0.000727804
0.000726855
0.000726072
0.000725276
0.000724592
0.00072394
0.0007234
0.000722847
0.00072239
0.000721909
0.0007215
0.000721088
0.000720757
0.000720405
0.000720131
0.000719828
0.000719574
0.000719306
0.000719099
0.000718881
0.000718699
0.000718517
0.000718375
0.0007182
0.000718096
0.000717952
0.000717835
0.00071773
0.000717672
0.000717559
0.000717491
0.000717453
0.000717405
0.00071727
0.000717283
0.000717283
0.000717281
0.000717257
0.000717417
0.000717539
0.000717539
0.000717665
0.000717814
0.000718081
0.000718296
0.000718449
0.000718608
0.000718834
0.000719091
0.000719354
0.000719717
0.000720036
0.000720441
0.000720728
0.000721201
0.00072154
0.00072213
0.000722543
0.000723322
0.000723779
0.00072472
0.000725276
0.000726447
0.000727169
0.000728734
0.000729625
0.000732371
0.000732952
0.000743514
0.0103122
0.0102851
0.00101965
0.000935468
0.000882446
0.000848152
0.000824424
0.000807136
0.000793867
0.000783464
0.000774976
0.000768051
0.000762167
0.000757247
0.000752952
0.000749285
0.000746023
0.000743231
0.000740687
0.0007385
0.000736465
0.000734715
0.00073306
0.000731631
0.000730265
0.000729106
0.000727971
0.000727007
0.000726053
0.000725266
0.000724466
0.000723779
0.000723124
0.000722581
0.000722024
0.000721565
0.000721082
0.00072067
0.000720256
0.000719923
0.000719568
0.000719293
0.000718988
0.000718733
0.000718463
0.000718255
0.000718035
0.000717852
0.000717669
0.000717526
0.00071735
0.000717246
0.0007171
0.000716983
0.000716877
0.000716819
0.000716705
0.000716637
0.000716598
0.00071655
0.000716415
0.000716427
0.000716427
0.000716425
0.000716399
0.000716558
0.000716679
0.000716679
0.000716805
0.000716954
0.00071722
0.000717436
0.000717589
0.000717749
0.000717974
0.00071823
0.000718493
0.000718856
0.000719174
0.000719579
0.000719867
0.000720339
0.000720678
0.000721268
0.00072168
0.000722458
0.000722916
0.000723856
0.000724412
0.000725581
0.000726302
0.000727865
0.000728753
0.000731499
0.000732063
0.000742792
0.0104124
0.0104317
0.00101967
0.00093539
0.00088223
0.000847814
0.00082399
0.000806627
0.000793299
0.000782848
0.000774319
0.000767361
0.000761449
0.000756505
0.000752189
0.000748504
0.000745226
0.000742419
0.000739862
0.000737663
0.000735618
0.000733858
0.000732195
0.000730759
0.000729385
0.00072822
0.000727079
0.000726109
0.00072515
0.000724359
0.000723554
0.000722863
0.000722204
0.000721657
0.000721097
0.000720634
0.000720148
0.000719734
0.000719317
0.000718982
0.000718625
0.000718348
0.000718041
0.000717784
0.000717513
0.000717303
0.000717082
0.000716897
0.000716713
0.000716569
0.000716392
0.000716286
0.00071614
0.000716023
0.000715915
0.000715856
0.000715743
0.000715674
0.000715634
0.000715586
0.000715452
0.000715462
0.000715462
0.000715459
0.000715432
0.00071559
0.00071571
0.00071571
0.000715836
0.000715985
0.00071625
0.000716466
0.000716619
0.000716779
0.000717004
0.00071726
0.000717522
0.000717884
0.000718202
0.000718607
0.000718895
0.000719367
0.000719706
0.000720295
0.000720707
0.000721485
0.000721942
0.000722881
0.000723437
0.000724604
0.000725324
0.000726885
0.00072777
0.000730515
0.00073106
0.000741978
0.0105258
0.0105972
0.00101969
0.000935304
0.000881991
0.00084744
0.000823509
0.000806062
0.000792667
0.000782162
0.000773589
0.000766594
0.00076065
0.000755679
0.000751339
0.000747634
0.000744337
0.000741514
0.000738943
0.000736732
0.000734675
0.000732905
0.000731232
0.000729787
0.000728405
0.000727232
0.000726085
0.000725109
0.000724144
0.000723347
0.000722538
0.000721842
0.000721178
0.000720627
0.000720063
0.000719598
0.000719108
0.000718691
0.000718271
0.000717934
0.000717574
0.000717295
0.000716985
0.000716727
0.000716454
0.000716242
0.000716019
0.000715833
0.000715647
0.000715502
0.000715324
0.000715217
0.00071507
0.000714952
0.000714843
0.000714784
0.000714669
0.0007146
0.000714559
0.000714511
0.000714377
0.000714386
0.000714386
0.000714383
0.000714354
0.000714511
0.00071463
0.00071463
0.000714756
0.000714904
0.000715167
0.000715384
0.000715538
0.000715699
0.000715922
0.000716178
0.000716439
0.000716801
0.000717118
0.000717524
0.000717811
0.000718284
0.000718621
0.000719211
0.000719621
0.000720399
0.000720856
0.000721793
0.000722349
0.000723515
0.000724233
0.000725791
0.000726674
0.000729417
0.000729942
0.000741072
0.0106525
0.0107819
0.00101972
0.000935211
0.000881729
0.00084703
0.00082298
0.000805441
0.000791972
0.000781407
0.000772785
0.000765748
0.000759769
0.000754768
0.000750402
0.000746674
0.000743357
0.000740516
0.000737929
0.000735703
0.000733634
0.000731852
0.000730168
0.000728714
0.000727323
0.000726142
0.000724987
0.000724005
0.000723033
0.00072223
0.000721416
0.000720715
0.000720046
0.000719491
0.000718922
0.000718453
0.00071796
0.000717539
0.000717116
0.000716776
0.000716413
0.000716131
0.000715819
0.000715559
0.000715284
0.00071507
0.000714845
0.000714658
0.00071447
0.000714323
0.000714144
0.000714036
0.000713888
0.000713769
0.000713659
0.000713599
0.000713484
0.000713414
0.000713372
0.000713324
0.000713191
0.000713198
0.000713198
0.000713193
0.000713162
0.000713318
0.000713437
0.000713437
0.000713562
0.00071371
0.000713972
0.000714189
0.000714344
0.000714505
0.000714727
0.000714983
0.000715243
0.000715604
0.00071592
0.000716326
0.000716613
0.000717087
0.000717423
0.000718013
0.000718422
0.000719199
0.000719655
0.000720592
0.000721147
0.000722311
0.000723028
0.000724583
0.000725462
0.000728204
0.000728706
0.000740071
0.010792
0.010986
0.00101975
0.00093511
0.000881445
0.000846583
0.000822403
0.000804762
0.000791212
0.000780581
0.000771905
0.000764823
0.000758805
0.00075377
0.000749376
0.000745623
0.000742284
0.000739423
0.000736819
0.000734577
0.000732493
0.000730699
0.000729003
0.000727538
0.000726138
0.000724948
0.000723785
0.000722795
0.000721816
0.000721006
0.000720186
0.000719479
0.000718805
0.000718245
0.000717671
0.000717198
0.000716701
0.000716277
0.00071585
0.000715507
0.000715141
0.000714856
0.000714542
0.000714279
0.000714001
0.000713786
0.000713559
0.00071337
0.000713179
0.000713032
0.000712851
0.000712742
0.000712593
0.000712473
0.000712361
0.0007123
0.000712185
0.000712114
0.000712071
0.000712022
0.00071189
0.000711895
0.000711895
0.00071189
0.000711857
0.000712011
0.000712129
0.000712129
0.000712254
0.000712402
0.000712661
0.000712879
0.000713035
0.000713196
0.000713417
0.000713673
0.000713931
0.000714291
0.000714606
0.000715014
0.0007153
0.000715774
0.00071611
0.000716699
0.000717107
0.000717883
0.000718339
0.000719274
0.000719829
0.00072099
0.000721706
0.000723257
0.000724133
0.000726873
0.000727351
0.000738974
0.0109441
0.0112096
0.00101978
0.000935003
0.000881139
0.000846099
0.000821778
0.000804026
0.000790387
0.000779685
0.000770949
0.000763817
0.000757757
0.000752686
0.00074826
0.00074448
0.000741117
0.000738235
0.00073561
0.000733352
0.000731253
0.000729444
0.000727736
0.000726259
0.000724848
0.000723649
0.000722476
0.000721478
0.000720492
0.000719674
0.000718847
0.000718135
0.000717454
0.000716889
0.00071631
0.000715832
0.000715331
0.000714903
0.000714472
0.000714125
0.000713756
0.000713468
0.00071315
0.000712886
0.000712605
0.000712387
0.000712158
0.000711967
0.000711775
0.000711625
0.000711443
0.000711332
0.000711182
0.000711061
0.000710947
0.000710886
0.00071077
0.000710698
0.000710654
0.000710605
0.000710473
0.000710477
0.000710476
0.00071047
0.000710435
0.000710588
0.000710704
0.000710704
0.000710829
0.000710976
0.000711233
0.000711452
0.000711608
0.00071177
0.00071199
0.000712245
0.000712502
0.000712862
0.000713175
0.000713584
0.00071387
0.000714343
0.000714679
0.000715268
0.000715674
0.000716449
0.000716905
0.000717839
0.000718393
0.000719552
0.000720266
0.000721813
0.000722685
0.000725423
0.000725875
0.00073778
0.0111081
0.0114528
0.00101981
0.000934888
0.00088081
0.000845579
0.000821105
0.000803232
0.000789497
0.000778717
0.000769916
0.00076273
0.000756624
0.000751515
0.000747054
0.000743245
0.000739854
0.000736949
0.000734304
0.000732027
0.00072991
0.000728086
0.000726364
0.000724875
0.000723452
0.000722242
0.00072106
0.000720053
0.000719058
0.000718233
0.000717398
0.000716679
0.000715992
0.000715421
0.000714836
0.000714353
0.000713847
0.000713415
0.00071298
0.000712629
0.000712256
0.000711965
0.000711644
0.000711377
0.000711093
0.000710873
0.000710641
0.000710448
0.000710253
0.000710103
0.000709918
0.000709806
0.000709654
0.000709532
0.000709417
0.000709354
0.000709238
0.000709165
0.000709119
0.00070907
0.00070894
0.000708941
0.00070894
0.000708933
0.000708895
0.000709046
0.000709161
0.000709161
0.000709285
0.000709432
0.000709687
0.000709906
0.000710064
0.000710225
0.000710444
0.000710699
0.000710955
0.000711313
0.000711626
0.000712034
0.000712321
0.000712794
0.000713128
0.000713718
0.000714122
0.000714896
0.000715351
0.000716284
0.000716837
0.000717993
0.000718705
0.000720248
0.000721116
0.000723852
0.000724276
0.000736486
0.0112828
0.0117156
0.00101985
0.000934767
0.00088046
0.000845023
0.000820384
0.000802381
0.000788542
0.000777677
0.000768807
0.000761562
0.000755407
0.000750254
0.000745757
0.000741915
0.000738496
0.000735565
0.000732897
0.0007306
0.000728465
0.000726625
0.000724888
0.000723385
0.000721949
0.000720728
0.000719534
0.000718518
0.000717513
0.00071668
0.000715838
0.000715112
0.000714417
0.000713839
0.000713249
0.00071276
0.000712249
0.000711813
0.000711373
0.000711018
0.000710641
0.000710346
0.000710022
0.000709751
0.000709465
0.000709242
0.000709007
0.000708812
0.000708614
0.000708462
0.000708275
0.000708161
0.000708008
0.000707885
0.000707767
0.000707704
0.000707586
0.000707513
0.000707465
0.000707416
0.000707287
0.000707286
0.000707284
0.000707276
0.000707235
0.000707385
0.000707498
0.000707498
0.000707622
0.000707769
0.000708021
0.00070824
0.000708398
0.000708561
0.000708778
0.000709033
0.000709287
0.000709644
0.000709955
0.000710365
0.00071065
0.000711124
0.000711457
0.000712046
0.000712448
0.000713222
0.000713676
0.000714607
0.000715159
0.000716312
0.000717022
0.000718561
0.000719424
0.000722158
0.000722552
0.000735089
0.011467
0.0119977
0.00101989
0.00093464
0.000880089
0.000844431
0.000819615
0.000801471
0.00078752
0.000776565
0.000767619
0.000760312
0.000754103
0.000748905
0.000744367
0.000740491
0.000737041
0.000734083
0.00073139
0.000729071
0.000726916
0.000725058
0.000723304
0.000721787
0.000720338
0.000719104
0.000717899
0.000716872
0.000715858
0.000715015
0.000714164
0.000713431
0.000712728
0.000712143
0.000711546
0.000711052
0.000710535
0.000710094
0.000709649
0.000709289
0.000708908
0.000708609
0.000708281
0.000708008
0.000707717
0.000707491
0.000707254
0.000707056
0.000706856
0.000706702
0.000706513
0.000706396
0.000706242
0.000706117
0.000705998
0.000705933
0.000705815
0.00070574
0.000705691
0.000705642
0.000705514
0.000705511
0.000705508
0.000705498
0.000705455
0.000705602
0.000705714
0.000705714
0.000705837
0.000705983
0.000706233
0.000706452
0.000706612
0.000706774
0.00070699
0.000707245
0.000707496
0.000707853
0.000708163
0.000708572
0.000708858
0.000709332
0.000709664
0.000710252
0.000710652
0.000711425
0.000711878
0.000712807
0.000713358
0.000714508
0.000715216
0.00071675
0.000717607
0.000720339
0.000720702
0.000733588
0.011659
0.0122988
0.00101993
0.000934508
0.000879697
0.000843804
0.000818798
0.000800505
0.000786434
0.000775381
0.000766354
0.00075898
0.000752713
0.000747465
0.000742885
0.000738971
0.000735488
0.0007325
0.000729781
0.000727439
0.000725262
0.000723385
0.000721614
0.000720081
0.000718617
0.00071737
0.000716152
0.000715114
0.000714089
0.000713236
0.000712377
0.000711635
0.000710923
0.000710332
0.000709727
0.000709227
0.000708704
0.000708257
0.000707806
0.000707442
0.000707056
0.000706753
0.000706421
0.000706144
0.00070585
0.000705621
0.00070538
0.00070518
0.000704977
0.00070482
0.000704629
0.000704511
0.000704354
0.000704228
0.000704107
0.000704041
0.000703921
0.000703845
0.000703794
0.000703745
0.000703618
0.000703613
0.000703609
0.000703598
0.000703552
0.000703697
0.000703807
0.000703807
0.000703929
0.000704075
0.000704321
0.000704541
0.000704701
0.000704865
0.000705079
0.000705333
0.000705583
0.000705938
0.000706246
0.000706656
0.000706941
0.000707415
0.000707746
0.000708334
0.000708732
0.000709503
0.000709955
0.000710882
0.000711432
0.000712579
0.000713283
0.000714812
0.000715665
0.000718394
0.000718723
0.000731979
0.0118568
0.0126184
0.00101998
0.00093437
0.000879285
0.000843142
0.000817933
0.00079948
0.000785281
0.000774124
0.000765011
0.000757564
0.000751236
0.000745935
0.000741309
0.000737355
0.000733836
0.000730817
0.00072807
0.000725702
0.000723503
0.000721605
0.000719815
0.000718266
0.000716785
0.000715524
0.000714293
0.000713243
0.000712206
0.000711343
0.000710474
0.000709723
0.000709002
0.000708403
0.000707791
0.000707283
0.000706754
0.000706302
0.000705845
0.000705476
0.000705084
0.000704777
0.00070444
0.00070416
0.000703862
0.00070363
0.000703385
0.000703182
0.000702975
0.000702817
0.000702623
0.000702502
0.000702344
0.000702217
0.000702092
0.000702025
0.000701905
0.000701827
0.000701774
0.000701724
0.000701599
0.000701591
0.000701586
0.000701574
0.000701524
0.000701668
0.000701775
0.000701775
0.000701896
0.000702042
0.000702285
0.000702505
0.000702666
0.00070283
0.000703042
0.000703296
0.000703544
0.000703898
0.000704204
0.000704614
0.000704899
0.000705372
0.000705702
0.000706289
0.000706685
0.000707455
0.000707906
0.00070883
0.000709379
0.000710522
0.000711224
0.000712747
0.000713594
0.000716319
0.000716615
0.000730259
0.0120578
0.0129557
0.00102002
0.000934227
0.000878852
0.000842445
0.000817022
0.000798399
0.000784063
0.000772795
0.00076359
0.000756065
0.000749671
0.000744314
0.000739638
0.000735642
0.000732085
0.000729033
0.000726255
0.00072386
0.000721637
0.000719718
0.000717907
0.00071634
0.000714842
0.000713565
0.00071232
0.000711257
0.000710208
0.000709334
0.000708454
0.000707694
0.000706963
0.000706355
0.000705735
0.000705221
0.000704684
0.000704226
0.000703763
0.000703388
0.000702991
0.000702679
0.000702338
0.000702053
0.000701751
0.000701515
0.000701267
0.000701061
0.000700851
0.00070069
0.000700493
0.00070037
0.000700209
0.00070008
0.000699954
0.000699885
0.000699763
0.000699684
0.000699629
0.000699579
0.000699455
0.000699444
0.000699438
0.000699425
0.000699371
0.000699512
0.000699618
0.000699618
0.000699737
0.000699883
0.000700123
0.000700343
0.000700504
0.000700669
0.000700879
0.000701132
0.000701378
0.00070173
0.000702034
0.000702445
0.000702729
0.000703203
0.000703531
0.000704118
0.000704511
0.000705278
0.000705728
0.00070665
0.000707198
0.000708337
0.000709036
0.000710553
0.000711393
0.000714115
0.000714375
0.000728426
0.0122591
0.0133096
0.00102008
0.00093408
0.000878401
0.000841714
0.000816064
0.00079726
0.000782779
0.000771393
0.00076209
0.000754483
0.000748019
0.000742601
0.000737874
0.000733832
0.000730234
0.000727146
0.000724336
0.000721913
0.000719664
0.000717721
0.000715889
0.000714302
0.000712787
0.000711494
0.000710233
0.000709156
0.000708094
0.000707208
0.000706317
0.000705546
0.000704806
0.000704189
0.00070356
0.000703038
0.000702494
0.000702029
0.000701559
0.000701179
0.000700775
0.000700458
0.000700112
0.000699823
0.000699517
0.000699277
0.000699024
0.000698815
0.000698601
0.000698438
0.000698238
0.000698112
0.000697949
0.000697819
0.000697689
0.000697619
0.000697496
0.000697415
0.000697358
0.000697307
0.000697184
0.000697171
0.000697164
0.000697148
0.000697092
0.00069723
0.000697333
0.000697333
0.000697451
0.000697596
0.000697832
0.000698053
0.000698215
0.00069838
0.000698588
0.000698841
0.000699084
0.000699435
0.000699736
0.000700148
0.000700431
0.000700904
0.000701231
0.000701817
0.000702207
0.000702973
0.000703421
0.00070434
0.000704886
0.000706021
0.000706717
0.000708228
0.000709061
0.000711778
0.000712002
0.000726475
0.0124574
0.0136788
0.00102013
0.000933928
0.000877932
0.00084095
0.00081506
0.000796064
0.00078143
0.000769918
0.000760511
0.000752817
0.000746279
0.000740797
0.000736014
0.000731924
0.000728283
0.000725157
0.000722313
0.000719859
0.000717582
0.000715614
0.00071376
0.000712153
0.000710618
0.000709307
0.000708031
0.000706939
0.000705863
0.000704964
0.000704061
0.00070328
0.000702528
0.000701902
0.000701264
0.000700733
0.000700182
0.00069971
0.000699233
0.000698846
0.000698436
0.000698113
0.000697762
0.000697469
0.000697158
0.000696913
0.000696656
0.000696444
0.000696226
0.00069606
0.000695856
0.000695728
0.000695563
0.00069543
0.000695298
0.000695225
0.000695101
0.000695019
0.000694959
0.000694908
0.000694785
0.000694769
0.000694761
0.000694744
0.000694684
0.00069482
0.00069492
0.00069492
0.000695037
0.00069518
0.000695413
0.000695633
0.000695796
0.000695961
0.000696168
0.00069642
0.00069666
0.00069701
0.000697309
0.00069772
0.000698002
0.000698475
0.0006988
0.000699385
0.000699773
0.000700537
0.000700984
0.0007019
0.000702444
0.000703574
0.000704266
0.00070577
0.000706597
0.000709308
0.000709495
0.000724403
0.0126488
0.0140613
0.00102019
0.000933773
0.000877444
0.000840154
0.00081401
0.000794813
0.000780015
0.000768371
0.000758854
0.000751068
0.00074445
0.000738901
0.000734059
0.000729918
0.000726231
0.000723065
0.000720184
0.000717698
0.000715392
0.000713398
0.000711519
0.00070989
0.000708335
0.000707006
0.000705712
0.000704605
0.000703514
0.000702602
0.000701686
0.000700894
0.00070013
0.000699494
0.000698845
0.000698306
0.000697746
0.000697268
0.000696782
0.000696389
0.000695973
0.000695644
0.000695286
0.000694989
0.000694672
0.000694424
0.000694162
0.000693946
0.000693724
0.000693554
0.000693348
0.000693216
0.000693048
0.000692914
0.000692778
0.000692704
0.000692578
0.000692494
0.000692431
0.00069238
0.000692258
0.000692239
0.000692229
0.000692211
0.000692147
0.00069228
0.000692377
0.000692377
0.000692492
0.000692635
0.000692863
0.000693083
0.000693246
0.000693413
0.000693617
0.000693868
0.000694106
0.000694453
0.00069475
0.000695161
0.000695442
0.000695915
0.000696238
0.000696822
0.000697207
0.000697968
0.000698413
0.000699326
0.000699868
0.000700993
0.000701681
0.000703178
0.000703998
0.000706703
0.000706852
0.000722205
0.0128291
0.014455
0.00102025
0.000933615
0.00087694
0.000839325
0.000812915
0.000793506
0.000778536
0.000766752
0.000757119
0.000749235
0.000742534
0.000736914
0.000732009
0.000727813
0.000724078
0.000720869
0.00071795
0.00071543
0.000713092
0.000711071
0.000709166
0.000707514
0.000705938
0.000704589
0.000703277
0.000702153
0.000701047
0.00070012
0.000699191
0.000698386
0.000697611
0.000696963
0.000696304
0.000695756
0.000695187
0.000694701
0.000694207
0.000693807
0.000693383
0.000693048
0.000692685
0.000692382
0.00069206
0.000691807
0.00069154
0.000691321
0.000691093
0.000690921
0.000690711
0.000690576
0.000690405
0.000690269
0.000690129
0.000690053
0.000689925
0.00068984
0.000689774
0.000689722
0.0006896
0.000689579
0.000689568
0.000689547
0.000689479
0.00068961
0.000689703
0.000689703
0.000689816
0.000689958
0.000690182
0.000690402
0.000690565
0.000690732
0.000690934
0.000691184
0.000691419
0.000691765
0.000692059
0.00069247
0.00069275
0.000693222
0.000693543
0.000694126
0.000694508
0.000695266
0.000695709
0.000696618
0.000697158
0.000698278
0.000698962
0.000700451
0.000701263
0.00070396
0.000704072
0.000719877
0.0129937
0.0148568
0.00102031
0.000933455
0.00087642
0.000838466
0.000811777
0.000792143
0.000776993
0.000765062
0.000755306
0.000747318
0.00074053
0.000734834
0.000729863
0.00072561
0.000721824
0.00071857
0.00071561
0.000713054
0.000710683
0.000708632
0.000706701
0.000705024
0.000703425
0.000702056
0.000700724
0.000699583
0.00069846
0.000697518
0.000696575
0.000695758
0.000694969
0.00069431
0.00069364
0.000693082
0.000692503
0.000692009
0.000691507
0.000691099
0.000690668
0.000690326
0.000689956
0.000689648
0.00068932
0.000689062
0.00068879
0.000688566
0.000688334
0.000688158
0.000687944
0.000687806
0.000687632
0.000687493
0.00068735
0.000687272
0.000687142
0.000687055
0.000686986
0.000686933
0.000686812
0.000686787