/*--------------------------------*- C++ -*----------------------------------*\
| =========                 |                                                 |
| \\      /  F ield         | OpenFOAM: The Open Source CFD Toolbox           |
|  \\    /   O peration     | Version:  v2012                                 |
|   \\  /    A nd           | Website:  www.openfoam.com                      |
|    \\/     M anipulation  |                                                 |
\*---------------------------------------------------------------------------*/
FoamFile
{
    version     2.0;
    format      ascii;
    class       volScalarField;
    location    "17.5";
    object      nut;
}
// * * * * * * * * * * * * * * * * * * * * * * * * * * * * * * * * * * * * * //

dimensions      [0 2 -1 0 0 0 0];


internalField   nonuniform List<scalar> 
209825
(
1.23249e-07
1.14809e-07
1.07472e-07
1.02163e-07
9.82922e-08
9.53817e-08
9.30958e-08
9.12737e-08
8.97664e-08
8.85245e-08
8.74599e-08
8.65639e-08
8.57776e-08
8.51032e-08
8.45001e-08
8.39822e-08
8.35091e-08
8.31013e-08
8.27212e-08
8.23932e-08
8.20832e-08
8.18147e-08
8.15572e-08
8.13383e-08
8.11244e-08
8.09418e-08
8.07607e-08
8.06107e-08
8.04596e-08
8.0328e-08
8.02023e-08
8.00975e-08
7.99916e-08
7.9903e-08
7.98086e-08
7.97273e-08
7.96495e-08
7.9584e-08
7.95141e-08
7.94587e-08
7.93965e-08
7.93453e-08
7.92956e-08
7.92515e-08
7.9205e-08
7.91666e-08
7.91307e-08
7.90962e-08
7.90588e-08
7.90331e-08
7.90019e-08
7.89606e-08
7.89383e-08
7.89259e-08
7.88924e-08
7.8878e-08
7.88551e-08
7.88258e-08
7.87778e-08
7.87684e-08
7.87684e-08
7.87681e-08
7.87508e-08
7.87606e-08
7.87625e-08
7.87596e-08
7.87747e-08
7.87776e-08
7.88113e-08
7.88402e-08
7.88394e-08
7.88508e-08
7.88765e-08
7.89029e-08
7.89313e-08
7.89767e-08
7.90055e-08
7.90541e-08
7.90749e-08
7.91246e-08
7.91564e-08
7.92214e-08
7.92598e-08
7.93513e-08
7.93864e-08
7.94897e-08
7.9531e-08
7.96458e-08
7.971e-08
7.98449e-08
7.99185e-08
8.01223e-08
8.01815e-08
8.08789e-08
3.2972e-06
1.7e-08
1.23249e-07
1.14811e-07
1.07474e-07
1.02165e-07
9.82936e-08
9.53828e-08
9.30966e-08
9.12743e-08
8.97668e-08
8.85247e-08
8.74599e-08
8.65637e-08
8.57773e-08
8.51028e-08
8.44996e-08
8.39816e-08
8.35084e-08
8.31005e-08
8.27203e-08
8.23923e-08
8.20823e-08
8.18137e-08
8.15561e-08
8.13372e-08
8.11232e-08
8.09406e-08
8.07595e-08
8.06094e-08
8.04583e-08
8.03267e-08
8.02009e-08
8.00961e-08
7.99901e-08
7.99015e-08
7.98071e-08
7.97257e-08
7.9648e-08
7.95824e-08
7.95126e-08
7.94571e-08
7.93949e-08
7.93437e-08
7.9294e-08
7.92499e-08
7.92034e-08
7.91649e-08
7.9129e-08
7.90945e-08
7.90571e-08
7.90314e-08
7.90002e-08
7.89589e-08
7.89366e-08
7.89242e-08
7.88906e-08
7.88763e-08
7.88533e-08
7.88241e-08
7.87761e-08
7.87666e-08
7.87666e-08
7.87664e-08
7.87491e-08
7.87589e-08
7.87607e-08
7.87578e-08
7.87729e-08
7.87758e-08
7.88095e-08
7.88383e-08
7.88376e-08
7.8849e-08
7.88747e-08
7.89011e-08
7.89294e-08
7.89749e-08
7.90037e-08
7.90522e-08
7.9073e-08
7.91228e-08
7.91545e-08
7.92195e-08
7.9258e-08
7.93495e-08
7.93846e-08
7.94878e-08
7.95291e-08
7.96439e-08
7.97082e-08
7.98431e-08
7.99167e-08
8.01204e-08
8.01795e-08
8.08779e-08
3.29739e-06
1.71545e-08
1.23252e-07
1.14817e-07
1.07481e-07
1.02171e-07
9.82988e-08
9.53869e-08
9.30995e-08
9.12763e-08
8.9768e-08
8.85251e-08
8.74597e-08
8.65629e-08
8.57761e-08
8.51011e-08
8.44975e-08
8.39791e-08
8.35056e-08
8.30974e-08
8.2717e-08
8.23887e-08
8.20784e-08
8.18096e-08
8.15519e-08
8.13328e-08
8.11187e-08
8.09359e-08
8.07546e-08
8.06045e-08
8.04532e-08
8.03215e-08
8.01956e-08
8.00907e-08
7.99846e-08
7.98959e-08
7.98015e-08
7.972e-08
7.96421e-08
7.95765e-08
7.95066e-08
7.94511e-08
7.93888e-08
7.93376e-08
7.92878e-08
7.92436e-08
7.91971e-08
7.91586e-08
7.91227e-08
7.90881e-08
7.90507e-08
7.90249e-08
7.89938e-08
7.89524e-08
7.89301e-08
7.89177e-08
7.88841e-08
7.88697e-08
7.88467e-08
7.88174e-08
7.87695e-08
7.87599e-08
7.87599e-08
7.87597e-08
7.87423e-08
7.87521e-08
7.87539e-08
7.87509e-08
7.8766e-08
7.8769e-08
7.88026e-08
7.88315e-08
7.88308e-08
7.88421e-08
7.88678e-08
7.88942e-08
7.89224e-08
7.89679e-08
7.89967e-08
7.90452e-08
7.9066e-08
7.91157e-08
7.91475e-08
7.92124e-08
7.92509e-08
7.93423e-08
7.93774e-08
7.94806e-08
7.9522e-08
7.96367e-08
7.97009e-08
7.98358e-08
7.99093e-08
8.01131e-08
8.0172e-08
8.08725e-08
3.29723e-06
1.73805e-08
1.23256e-07
1.14829e-07
1.07494e-07
1.02182e-07
9.83077e-08
9.53937e-08
9.31046e-08
9.12797e-08
8.977e-08
8.85259e-08
8.74595e-08
8.65617e-08
8.5774e-08
8.50983e-08
8.4494e-08
8.3975e-08
8.3501e-08
8.30923e-08
8.27114e-08
8.23828e-08
8.20721e-08
8.1803e-08
8.15449e-08
8.13255e-08
8.11111e-08
8.09281e-08
8.07466e-08
8.05962e-08
8.04447e-08
8.03128e-08
8.01868e-08
8.00817e-08
7.99755e-08
7.98866e-08
7.97921e-08
7.97105e-08
7.96325e-08
7.95668e-08
7.94967e-08
7.94411e-08
7.93788e-08
7.93275e-08
7.92775e-08
7.92333e-08
7.91867e-08
7.91481e-08
7.91122e-08
7.90776e-08
7.90401e-08
7.90143e-08
7.89831e-08
7.89417e-08
7.89193e-08
7.89069e-08
7.88733e-08
7.88588e-08
7.88358e-08
7.88065e-08
7.87586e-08
7.87489e-08
7.87489e-08
7.87486e-08
7.87311e-08
7.87409e-08
7.87426e-08
7.87396e-08
7.87547e-08
7.87577e-08
7.87912e-08
7.882e-08
7.88194e-08
7.88307e-08
7.88563e-08
7.88827e-08
7.89109e-08
7.89563e-08
7.8985e-08
7.90336e-08
7.90544e-08
7.91041e-08
7.91358e-08
7.92007e-08
7.9239e-08
7.93305e-08
7.93656e-08
7.94687e-08
7.951e-08
7.96246e-08
7.96889e-08
7.98237e-08
7.98971e-08
8.01008e-08
8.01594e-08
8.08632e-08
3.29687e-06
1.76547e-08
1.23262e-07
1.14846e-07
1.07512e-07
1.02198e-07
9.83203e-08
9.54034e-08
9.31117e-08
9.12846e-08
8.97729e-08
8.85272e-08
8.74592e-08
8.65601e-08
8.57712e-08
8.50945e-08
8.44892e-08
8.39694e-08
8.34946e-08
8.30852e-08
8.27037e-08
8.23745e-08
8.20633e-08
8.17937e-08
8.15352e-08
8.13154e-08
8.11006e-08
8.09172e-08
8.07354e-08
8.05847e-08
8.04329e-08
8.03008e-08
8.01745e-08
8.00692e-08
7.99627e-08
7.98737e-08
7.97789e-08
7.96971e-08
7.9619e-08
7.95531e-08
7.94829e-08
7.94272e-08
7.93647e-08
7.93133e-08
7.92632e-08
7.92189e-08
7.91722e-08
7.91335e-08
7.90975e-08
7.90628e-08
7.90252e-08
7.89994e-08
7.89681e-08
7.89267e-08
7.89042e-08
7.88917e-08
7.88581e-08
7.88436e-08
7.88205e-08
7.87912e-08
7.87433e-08
7.87334e-08
7.87333e-08
7.8733e-08
7.87155e-08
7.87252e-08
7.87268e-08
7.87237e-08
7.87388e-08
7.87418e-08
7.87751e-08
7.8804e-08
7.88034e-08
7.88147e-08
7.88402e-08
7.88665e-08
7.88947e-08
7.894e-08
7.89687e-08
7.90172e-08
7.9038e-08
7.90877e-08
7.91193e-08
7.91842e-08
7.92225e-08
7.93138e-08
7.93489e-08
7.9452e-08
7.94933e-08
7.96077e-08
7.96719e-08
7.98066e-08
7.988e-08
8.00837e-08
8.01417e-08
8.085e-08
3.29634e-06
1.79682e-08
1.23269e-07
1.14867e-07
1.07535e-07
1.02218e-07
9.83367e-08
9.54161e-08
9.31211e-08
9.12911e-08
8.97769e-08
8.85289e-08
8.7459e-08
8.65582e-08
8.57677e-08
8.50896e-08
8.44831e-08
8.39622e-08
8.34864e-08
8.30761e-08
8.26938e-08
8.23638e-08
8.20519e-08
8.17817e-08
8.15226e-08
8.13023e-08
8.1087e-08
8.09032e-08
8.07209e-08
8.05699e-08
8.04177e-08
8.02852e-08
8.01586e-08
8.0053e-08
7.99462e-08
7.98569e-08
7.97619e-08
7.96799e-08
7.96015e-08
7.95354e-08
7.9465e-08
7.94092e-08
7.93465e-08
7.92949e-08
7.92447e-08
7.92002e-08
7.91534e-08
7.91146e-08
7.90785e-08
7.90438e-08
7.9006e-08
7.89801e-08
7.89488e-08
7.89073e-08
7.88847e-08
7.88722e-08
7.88385e-08
7.88239e-08
7.88008e-08
7.87714e-08
7.87235e-08
7.87133e-08
7.87133e-08
7.8713e-08
7.86952e-08
7.87049e-08
7.87064e-08
7.87031e-08
7.87182e-08
7.87213e-08
7.87544e-08
7.87833e-08
7.87828e-08
7.8794e-08
7.88194e-08
7.88457e-08
7.88737e-08
7.8919e-08
7.89476e-08
7.89961e-08
7.90169e-08
7.90665e-08
7.90981e-08
7.91629e-08
7.92011e-08
7.92923e-08
7.93274e-08
7.94303e-08
7.94717e-08
7.95859e-08
7.965e-08
7.97846e-08
7.98579e-08
8.00614e-08
8.01188e-08
8.0833e-08
3.29569e-06
1.83181e-08
1.23278e-07
1.14893e-07
1.07563e-07
1.02243e-07
9.8357e-08
9.54319e-08
9.31328e-08
9.12992e-08
8.97818e-08
8.85311e-08
8.74587e-08
8.65558e-08
8.57635e-08
8.50837e-08
8.44757e-08
8.39534e-08
8.34764e-08
8.3065e-08
8.26816e-08
8.23507e-08
8.2038e-08
8.1767e-08
8.15072e-08
8.12862e-08
8.10703e-08
8.0886e-08
8.07032e-08
8.05516e-08
8.0399e-08
8.02661e-08
8.0139e-08
8.00331e-08
7.99259e-08
7.98363e-08
7.9741e-08
7.96588e-08
7.958e-08
7.95137e-08
7.94431e-08
7.9387e-08
7.93241e-08
7.92723e-08
7.92219e-08
7.91773e-08
7.91302e-08
7.90914e-08
7.90551e-08
7.90203e-08
7.89824e-08
7.89564e-08
7.8925e-08
7.88834e-08
7.88607e-08
7.88481e-08
7.88143e-08
7.87997e-08
7.87764e-08
7.8747e-08
7.86991e-08
7.86886e-08
7.86886e-08
7.86883e-08
7.86703e-08
7.86799e-08
7.86812e-08
7.86777e-08
7.86929e-08
7.8696e-08
7.87289e-08
7.87578e-08
7.87574e-08
7.87686e-08
7.87938e-08
7.88201e-08
7.88479e-08
7.88931e-08
7.89217e-08
7.89702e-08
7.89909e-08
7.90405e-08
7.90719e-08
7.91367e-08
7.91747e-08
7.92659e-08
7.93009e-08
7.94036e-08
7.94451e-08
7.9559e-08
7.96231e-08
7.97575e-08
7.98306e-08
8.0034e-08
8.00907e-08
8.0812e-08
3.29496e-06
1.87047e-08
1.23289e-07
1.14924e-07
1.07598e-07
1.02273e-07
9.83814e-08
9.54508e-08
9.31468e-08
9.13089e-08
8.97878e-08
8.85338e-08
8.74586e-08
8.65531e-08
8.57585e-08
8.50767e-08
8.44669e-08
8.3943e-08
8.34645e-08
8.30518e-08
8.26672e-08
8.23352e-08
8.20215e-08
8.17496e-08
8.14889e-08
8.12671e-08
8.10505e-08
8.08655e-08
8.0682e-08
8.05299e-08
8.03767e-08
8.02434e-08
8.01158e-08
8.00094e-08
7.99018e-08
7.98118e-08
7.97161e-08
7.96336e-08
7.95545e-08
7.94879e-08
7.9417e-08
7.93606e-08
7.92975e-08
7.92455e-08
7.91947e-08
7.91499e-08
7.91027e-08
7.90637e-08
7.90273e-08
7.89924e-08
7.89543e-08
7.89282e-08
7.88966e-08
7.8855e-08
7.8832e-08
7.88194e-08
7.87856e-08
7.87708e-08
7.87474e-08
7.8718e-08
7.86701e-08
7.86593e-08
7.86592e-08
7.86588e-08
7.86407e-08
7.86501e-08
7.86513e-08
7.86475e-08
7.86627e-08
7.86659e-08
7.86985e-08
7.87275e-08
7.87272e-08
7.87382e-08
7.87633e-08
7.87895e-08
7.88171e-08
7.88622e-08
7.88907e-08
7.89392e-08
7.89599e-08
7.90094e-08
7.90408e-08
7.91054e-08
7.91432e-08
7.92343e-08
7.92693e-08
7.93718e-08
7.94133e-08
7.95269e-08
7.95909e-08
7.97252e-08
7.97981e-08
8.00014e-08
8.00571e-08
8.07871e-08
3.29419e-06
1.91308e-08
1.23302e-07
1.14961e-07
1.07637e-07
1.02308e-07
9.84098e-08
9.54729e-08
9.31632e-08
9.13204e-08
8.97949e-08
8.85371e-08
8.74585e-08
8.65501e-08
8.57528e-08
8.50687e-08
8.44568e-08
8.3931e-08
8.34507e-08
8.30365e-08
8.26505e-08
8.23172e-08
8.20023e-08
8.17293e-08
8.14676e-08
8.1245e-08
8.10275e-08
8.08417e-08
8.06575e-08
8.05046e-08
8.03509e-08
8.02169e-08
8.00887e-08
7.99818e-08
7.98737e-08
7.97833e-08
7.96872e-08
7.96042e-08
7.95248e-08
7.94578e-08
7.93865e-08
7.93299e-08
7.92665e-08
7.92142e-08
7.91631e-08
7.91181e-08
7.90706e-08
7.90315e-08
7.89949e-08
7.89598e-08
7.89215e-08
7.88953e-08
7.88636e-08
7.88219e-08
7.87987e-08
7.8786e-08
7.87521e-08
7.87372e-08
7.87137e-08
7.86842e-08
7.86364e-08
7.86251e-08
7.8625e-08
7.86245e-08
7.86061e-08
7.86154e-08
7.86164e-08
7.86124e-08
7.86276e-08
7.86308e-08
7.86631e-08
7.86921e-08
7.86919e-08
7.87029e-08
7.87277e-08
7.87539e-08
7.87813e-08
7.88263e-08
7.88546e-08
7.89031e-08
7.89239e-08
7.89732e-08
7.90044e-08
7.9069e-08
7.91066e-08
7.91975e-08
7.92325e-08
7.93348e-08
7.93763e-08
7.94896e-08
7.95535e-08
7.96875e-08
7.97602e-08
7.99634e-08
8.0018e-08
8.0758e-08
3.29342e-06
1.96012e-08
1.23316e-07
1.15002e-07
1.07683e-07
1.02348e-07
9.84425e-08
9.54984e-08
9.31822e-08
9.13337e-08
8.98032e-08
8.8541e-08
8.74586e-08
8.65467e-08
8.57465e-08
8.50596e-08
8.44453e-08
8.39173e-08
8.3435e-08
8.30191e-08
8.26314e-08
8.22967e-08
8.19804e-08
8.17062e-08
8.14434e-08
8.12196e-08
8.10011e-08
8.08145e-08
8.06294e-08
8.04758e-08
8.03213e-08
8.01867e-08
8.00578e-08
7.99503e-08
7.98416e-08
7.97507e-08
7.96541e-08
7.95707e-08
7.94908e-08
7.94235e-08
7.93517e-08
7.92947e-08
7.9231e-08
7.91784e-08
7.9127e-08
7.90817e-08
7.9034e-08
7.89946e-08
7.89579e-08
7.89226e-08
7.8884e-08
7.88577e-08
7.88259e-08
7.8784e-08
7.87606e-08
7.87478e-08
7.87137e-08
7.86988e-08
7.86751e-08
7.86455e-08
7.85978e-08
7.8586e-08
7.85859e-08
7.85853e-08
7.85666e-08
7.85757e-08
7.85765e-08
7.85721e-08
7.85874e-08
7.85906e-08
7.86226e-08
7.86516e-08
7.86516e-08
7.86624e-08
7.8687e-08
7.87131e-08
7.87403e-08
7.87851e-08
7.88134e-08
7.88618e-08
7.88825e-08
7.89318e-08
7.89629e-08
7.90273e-08
7.90647e-08
7.91554e-08
7.91904e-08
7.92924e-08
7.9334e-08
7.94468e-08
7.95106e-08
7.96444e-08
7.97168e-08
7.99198e-08
7.99733e-08
8.07248e-08
3.29265e-06
2.01223e-08
1.23331e-07
1.15048e-07
1.07734e-07
1.02394e-07
9.84795e-08
9.55273e-08
9.32038e-08
9.13488e-08
8.98127e-08
8.85456e-08
8.74588e-08
8.65431e-08
8.57394e-08
8.50495e-08
8.44324e-08
8.3902e-08
8.34175e-08
8.29995e-08
8.261e-08
8.22736e-08
8.19558e-08
8.16802e-08
8.1416e-08
8.11911e-08
8.09715e-08
8.07838e-08
8.05978e-08
8.04433e-08
8.0288e-08
8.01526e-08
8.00229e-08
7.99147e-08
7.98054e-08
7.97139e-08
7.96168e-08
7.95329e-08
7.94524e-08
7.93847e-08
7.93125e-08
7.92551e-08
7.9191e-08
7.9138e-08
7.90862e-08
7.90407e-08
7.89926e-08
7.8953e-08
7.89161e-08
7.88806e-08
7.88418e-08
7.88152e-08
7.87832e-08
7.87413e-08
7.87176e-08
7.87047e-08
7.86705e-08
7.86554e-08
7.86315e-08
7.86019e-08
7.85542e-08
7.85418e-08
7.85417e-08
7.8541e-08
7.85219e-08
7.8531e-08
7.85314e-08
7.85267e-08
7.8542e-08
7.85453e-08
7.85768e-08
7.86059e-08
7.8606e-08
7.86167e-08
7.86411e-08
7.86671e-08
7.8694e-08
7.87387e-08
7.87668e-08
7.88151e-08
7.88359e-08
7.88851e-08
7.89159e-08
7.89802e-08
7.90173e-08
7.91078e-08
7.91428e-08
7.92445e-08
7.92861e-08
7.93985e-08
7.94622e-08
7.95957e-08
7.96678e-08
7.98706e-08
7.99228e-08
8.06873e-08
3.2919e-06
2.07015e-08
1.23349e-07
1.151e-07
1.07791e-07
1.02444e-07
9.85209e-08
9.55597e-08
9.32281e-08
9.1366e-08
8.98235e-08
8.85509e-08
8.74592e-08
8.65392e-08
8.57316e-08
8.50384e-08
8.44181e-08
8.3885e-08
8.3398e-08
8.29777e-08
8.25862e-08
8.22479e-08
8.19284e-08
8.16512e-08
8.13856e-08
8.11594e-08
8.09385e-08
8.07497e-08
8.05626e-08
8.04071e-08
8.02508e-08
8.01146e-08
7.99841e-08
7.98751e-08
7.97651e-08
7.96729e-08
7.95752e-08
7.94907e-08
7.94096e-08
7.93414e-08
7.92687e-08
7.92109e-08
7.91463e-08
7.9093e-08
7.90407e-08
7.89949e-08
7.89464e-08
7.89066e-08
7.88694e-08
7.88337e-08
7.87945e-08
7.87678e-08
7.87356e-08
7.86935e-08
7.86696e-08
7.86565e-08
7.86222e-08
7.86069e-08
7.85828e-08
7.85531e-08
7.85055e-08
7.84926e-08
7.84924e-08
7.84916e-08
7.84721e-08
7.8481e-08
7.84811e-08
7.8476e-08
7.84913e-08
7.84947e-08
7.85257e-08
7.85548e-08
7.85552e-08
7.85657e-08
7.85898e-08
7.86157e-08
7.86423e-08
7.86868e-08
7.87147e-08
7.8763e-08
7.87838e-08
7.88328e-08
7.88635e-08
7.89276e-08
7.89644e-08
7.90547e-08
7.90896e-08
7.9191e-08
7.92327e-08
7.93446e-08
7.94081e-08
7.95413e-08
7.96131e-08
7.98157e-08
7.98663e-08
8.06454e-08
3.29115e-06
2.13475e-08
1.23368e-07
1.15156e-07
1.07855e-07
1.025e-07
9.85669e-08
9.55958e-08
9.32551e-08
9.13851e-08
8.98357e-08
8.85569e-08
8.74598e-08
8.6535e-08
8.57232e-08
8.50262e-08
8.44025e-08
8.38663e-08
8.33765e-08
8.29538e-08
8.256e-08
8.22196e-08
8.18981e-08
8.16193e-08
8.1352e-08
8.11243e-08
8.0902e-08
8.0712e-08
8.05236e-08
8.0367e-08
8.02098e-08
8.00726e-08
7.99411e-08
7.98313e-08
7.97204e-08
7.96276e-08
7.95292e-08
7.94441e-08
7.93623e-08
7.92936e-08
7.92203e-08
7.9162e-08
7.9097e-08
7.90432e-08
7.89904e-08
7.89442e-08
7.88953e-08
7.88552e-08
7.88177e-08
7.87819e-08
7.87423e-08
7.87154e-08
7.8683e-08
7.86407e-08
7.86165e-08
7.86032e-08
7.85687e-08
7.85533e-08
7.85289e-08
7.84992e-08
7.84517e-08
7.84381e-08
7.84378e-08
7.84369e-08
7.84169e-08
7.84256e-08
7.84254e-08
7.842e-08
7.84352e-08
7.84387e-08
7.84692e-08
7.84983e-08
7.84988e-08
7.85093e-08
7.8533e-08
7.85588e-08
7.85851e-08
7.86294e-08
7.86571e-08
7.87054e-08
7.87261e-08
7.8775e-08
7.88054e-08
7.88694e-08
7.89059e-08
7.89959e-08
7.90308e-08
7.91317e-08
7.91735e-08
7.92849e-08
7.93482e-08
7.94811e-08
7.95525e-08
7.97549e-08
7.98039e-08
8.0599e-08
3.29038e-06
2.20699e-08
1.23388e-07
1.15218e-07
1.07924e-07
1.02562e-07
9.86176e-08
9.56356e-08
9.32851e-08
9.14064e-08
8.98493e-08
8.85638e-08
8.74607e-08
8.65307e-08
8.57142e-08
8.5013e-08
8.43856e-08
8.38461e-08
8.33532e-08
8.29277e-08
8.25313e-08
8.21887e-08
8.18651e-08
8.15844e-08
8.13153e-08
8.10859e-08
8.08621e-08
8.06707e-08
8.0481e-08
8.03232e-08
8.01648e-08
8.00266e-08
7.98941e-08
7.97833e-08
7.96715e-08
7.95779e-08
7.94787e-08
7.9393e-08
7.93104e-08
7.92411e-08
7.91672e-08
7.91083e-08
7.90428e-08
7.89885e-08
7.89352e-08
7.88886e-08
7.88393e-08
7.87988e-08
7.8761e-08
7.87249e-08
7.8685e-08
7.86578e-08
7.86252e-08
7.85828e-08
7.85581e-08
7.85447e-08
7.851e-08
7.84944e-08
7.84698e-08
7.84399e-08
7.83927e-08
7.83784e-08
7.83779e-08
7.83769e-08
7.83564e-08
7.83649e-08
7.83643e-08
7.83584e-08
7.83736e-08
7.83772e-08
7.84071e-08
7.84363e-08
7.8437e-08
7.84472e-08
7.84707e-08
7.84963e-08
7.85222e-08
7.85663e-08
7.85938e-08
7.8642e-08
7.86627e-08
7.87114e-08
7.87416e-08
7.88055e-08
7.88416e-08
7.89313e-08
7.89661e-08
7.90666e-08
7.91085e-08
7.92192e-08
7.92824e-08
7.94149e-08
7.9486e-08
7.96881e-08
7.97353e-08
8.05481e-08
3.28952e-06
2.28787e-08
1.2341e-07
1.15285e-07
1.07999e-07
1.0263e-07
9.86731e-08
9.56794e-08
9.33181e-08
9.14299e-08
8.98645e-08
8.85716e-08
8.7462e-08
8.65263e-08
8.57046e-08
8.49989e-08
8.43674e-08
8.38241e-08
8.33279e-08
8.28994e-08
8.25002e-08
8.21551e-08
8.18292e-08
8.15464e-08
8.12753e-08
8.10442e-08
8.08187e-08
8.06258e-08
8.04346e-08
8.02754e-08
8.01158e-08
7.99765e-08
7.98428e-08
7.9731e-08
7.96182e-08
7.95237e-08
7.94237e-08
7.93372e-08
7.92539e-08
7.91839e-08
7.91093e-08
7.90498e-08
7.89837e-08
7.89289e-08
7.8875e-08
7.8828e-08
7.87782e-08
7.87373e-08
7.86992e-08
7.86628e-08
7.86224e-08
7.8595e-08
7.85622e-08
7.85195e-08
7.84945e-08
7.84809e-08
7.8446e-08
7.84302e-08
7.84053e-08
7.83753e-08
7.83283e-08
7.83133e-08
7.83126e-08
7.83114e-08
7.82903e-08
7.82986e-08
7.82976e-08
7.82912e-08
7.83064e-08
7.831e-08
7.83394e-08
7.83685e-08
7.83694e-08
7.83795e-08
7.84026e-08
7.84281e-08
7.84536e-08
7.84975e-08
7.85248e-08
7.85728e-08
7.85935e-08
7.86421e-08
7.8672e-08
7.87357e-08
7.87714e-08
7.88608e-08
7.88956e-08
7.89956e-08
7.90376e-08
7.91476e-08
7.92106e-08
7.93426e-08
7.94133e-08
7.96151e-08
7.96604e-08
8.04924e-08
3.28845e-06
2.37849e-08
1.23433e-07
1.15357e-07
1.08081e-07
1.02703e-07
9.87336e-08
9.57271e-08
9.33543e-08
9.14558e-08
8.98812e-08
8.85804e-08
8.74638e-08
8.65217e-08
8.56945e-08
8.49839e-08
8.43478e-08
8.38006e-08
8.33006e-08
8.28689e-08
8.24667e-08
8.21189e-08
8.17904e-08
8.15053e-08
8.12321e-08
8.0999e-08
8.07717e-08
8.05771e-08
8.03844e-08
8.02237e-08
8.00627e-08
7.99222e-08
7.97872e-08
7.96744e-08
7.95605e-08
7.9465e-08
7.93641e-08
7.92768e-08
7.91926e-08
7.91219e-08
7.90465e-08
7.89864e-08
7.89197e-08
7.88643e-08
7.88097e-08
7.87622e-08
7.87119e-08
7.86707e-08
7.86322e-08
7.85954e-08
7.85546e-08
7.85269e-08
7.84938e-08
7.8451e-08
7.84255e-08
7.84117e-08
7.83765e-08
7.83605e-08
7.83352e-08
7.83052e-08
7.82584e-08
7.82426e-08
7.82418e-08
7.82403e-08
7.82186e-08
7.82267e-08
7.82252e-08
7.82183e-08
7.82334e-08
7.82372e-08
7.82659e-08
7.8295e-08
7.82962e-08
7.83061e-08
7.83288e-08
7.83541e-08
7.83792e-08
7.84228e-08
7.84498e-08
7.84978e-08
7.85184e-08
7.85668e-08
7.85965e-08
7.86599e-08
7.86953e-08
7.87843e-08
7.8819e-08
7.89185e-08
7.89605e-08
7.90699e-08
7.91326e-08
7.92642e-08
7.93344e-08
7.95359e-08
7.95791e-08
8.04318e-08
3.28701e-06
2.47995e-08
1.23457e-07
1.15435e-07
1.08169e-07
1.02782e-07
9.87992e-08
9.57791e-08
9.33937e-08
9.14842e-08
8.98998e-08
8.85903e-08
8.7466e-08
8.65172e-08
8.56839e-08
8.49679e-08
8.4327e-08
8.37754e-08
8.32715e-08
8.28362e-08
8.24307e-08
8.208e-08
8.17487e-08
8.14612e-08
8.11857e-08
8.09505e-08
8.07211e-08
8.05248e-08
8.03303e-08
8.01681e-08
8.00056e-08
7.98637e-08
7.97274e-08
7.96133e-08
7.94982e-08
7.94018e-08
7.92999e-08
7.92117e-08
7.91265e-08
7.9055e-08
7.89789e-08
7.8918e-08
7.88506e-08
7.87946e-08
7.87393e-08
7.86913e-08
7.86404e-08
7.85987e-08
7.85598e-08
7.85227e-08
7.84814e-08
7.84534e-08
7.842e-08
7.83769e-08
7.8351e-08
7.83369e-08
7.83016e-08
7.82853e-08
7.82597e-08
7.82295e-08
7.81831e-08
7.81664e-08
7.81653e-08
7.81635e-08
7.81412e-08
7.8149e-08
7.81471e-08
7.81397e-08
7.81547e-08
7.81585e-08
7.81865e-08
7.82156e-08
7.8217e-08
7.82268e-08
7.8249e-08
7.82742e-08
7.82988e-08
7.83421e-08
7.83689e-08
7.84167e-08
7.84373e-08
7.84855e-08
7.85149e-08
7.8578e-08
7.8613e-08
7.87016e-08
7.87362e-08
7.88351e-08
7.88773e-08
7.89859e-08
7.90484e-08
7.91794e-08
7.92492e-08
7.94503e-08
7.94914e-08
8.03663e-08
3.28496e-06
2.59343e-08
1.23483e-07
1.15517e-07
1.08263e-07
1.02867e-07
9.88701e-08
9.58354e-08
9.34366e-08
9.15151e-08
8.99202e-08
8.86014e-08
8.74688e-08
8.65128e-08
8.5673e-08
8.49512e-08
8.4305e-08
8.37487e-08
8.32405e-08
8.28013e-08
8.23923e-08
8.20384e-08
8.17042e-08
8.1414e-08
8.11359e-08
8.08985e-08
8.0667e-08
8.04687e-08
8.02723e-08
8.01084e-08
7.99443e-08
7.9801e-08
7.96632e-08
7.95478e-08
7.94315e-08
7.93339e-08
7.92309e-08
7.91418e-08
7.90556e-08
7.89832e-08
7.89062e-08
7.88446e-08
7.87764e-08
7.87197e-08
7.86637e-08
7.86152e-08
7.85636e-08
7.85215e-08
7.8482e-08
7.84446e-08
7.84027e-08
7.83744e-08
7.83406e-08
7.82974e-08
7.82709e-08
7.82566e-08
7.8221e-08
7.82044e-08
7.81784e-08
7.81482e-08
7.8102e-08
7.80846e-08
7.80831e-08
7.8081e-08
7.80581e-08
7.80656e-08
7.80631e-08
7.80552e-08
7.807e-08
7.8074e-08
7.81012e-08
7.81303e-08
7.81319e-08
7.81414e-08
7.81632e-08
7.81882e-08
7.82124e-08
7.82553e-08
7.82818e-08
7.83295e-08
7.83501e-08
7.83981e-08
7.84271e-08
7.849e-08
7.85245e-08
7.86126e-08
7.86472e-08
7.87455e-08
7.87877e-08
7.88955e-08
7.89577e-08
7.90883e-08
7.91575e-08
7.93583e-08
7.9397e-08
8.02955e-08
3.28201e-06
2.72011e-08
1.2351e-07
1.15605e-07
1.08364e-07
1.02959e-07
9.89463e-08
9.58962e-08
9.34831e-08
9.15488e-08
8.99425e-08
8.86138e-08
8.74724e-08
8.65085e-08
8.56616e-08
8.49337e-08
8.42818e-08
8.37205e-08
8.32076e-08
8.27644e-08
8.23515e-08
8.19942e-08
8.16568e-08
8.13637e-08
8.10829e-08
8.0843e-08
8.06092e-08
8.04088e-08
8.02105e-08
8.00447e-08
7.98789e-08
7.9734e-08
7.95946e-08
7.94778e-08
7.93601e-08
7.92613e-08
7.91572e-08
7.9067e-08
7.89797e-08
7.89064e-08
7.88284e-08
7.8766e-08
7.86971e-08
7.86397e-08
7.85828e-08
7.85336e-08
7.84814e-08
7.84387e-08
7.83988e-08
7.8361e-08
7.83185e-08
7.82898e-08
7.82557e-08
7.82122e-08
7.81852e-08
7.81706e-08
7.81347e-08
7.81178e-08
7.80914e-08
7.8061e-08
7.80152e-08
7.79969e-08
7.79951e-08
7.79927e-08
7.7969e-08
7.79762e-08
7.79732e-08
7.79646e-08
7.79793e-08
7.79834e-08
7.80098e-08
7.80388e-08
7.80407e-08
7.805e-08
7.80713e-08
7.80962e-08
7.81198e-08
7.81624e-08
7.81886e-08
7.82361e-08
7.82566e-08
7.83044e-08
7.8333e-08
7.83956e-08
7.84297e-08
7.85173e-08
7.85518e-08
7.86495e-08
7.86918e-08
7.87987e-08
7.88606e-08
7.89905e-08
7.90592e-08
7.92596e-08
7.92959e-08
8.02192e-08
3.2778e-06
2.86123e-08
1.23538e-07
1.15697e-07
1.08471e-07
1.03057e-07
9.90282e-08
9.59616e-08
9.35332e-08
9.15854e-08
8.9967e-08
8.86276e-08
8.74767e-08
8.65044e-08
8.56501e-08
8.49154e-08
8.42575e-08
8.36908e-08
8.3173e-08
8.27253e-08
8.23083e-08
8.19473e-08
8.16065e-08
8.13104e-08
8.10266e-08
8.07841e-08
8.05478e-08
8.03451e-08
8.01446e-08
7.99769e-08
7.98092e-08
7.96627e-08
7.95215e-08
7.94033e-08
7.92841e-08
7.9184e-08
7.90787e-08
7.89874e-08
7.88988e-08
7.88246e-08
7.87456e-08
7.86823e-08
7.86125e-08
7.85543e-08
7.84966e-08
7.84467e-08
7.83938e-08
7.83505e-08
7.831e-08
7.82718e-08
7.82286e-08
7.81995e-08
7.81651e-08
7.81213e-08
7.80937e-08
7.80788e-08
7.80426e-08
7.80254e-08
7.79985e-08
7.79681e-08
7.79225e-08
7.79033e-08
7.79011e-08
7.78984e-08
7.78739e-08
7.78809e-08
7.78772e-08
7.78681e-08
7.78826e-08
7.78867e-08
7.79123e-08
7.79412e-08
7.79433e-08
7.79525e-08
7.79732e-08
7.79979e-08
7.8021e-08
7.80632e-08
7.8089e-08
7.81363e-08
7.81568e-08
7.82043e-08
7.82326e-08
7.82949e-08
7.83285e-08
7.84155e-08
7.845e-08
7.85469e-08
7.85893e-08
7.86953e-08
7.87569e-08
7.88862e-08
7.89543e-08
7.91542e-08
7.9188e-08
8.01374e-08
3.27191e-06
3.01799e-08
1.23568e-07
1.15795e-07
1.08585e-07
1.03161e-07
9.91158e-08
9.60318e-08
9.35873e-08
9.1625e-08
8.99937e-08
8.8643e-08
8.7482e-08
8.65007e-08
8.56383e-08
8.48966e-08
8.42322e-08
8.36597e-08
8.31366e-08
8.26841e-08
8.22628e-08
8.18978e-08
8.15533e-08
8.12539e-08
8.09671e-08
8.07217e-08
8.04827e-08
8.02777e-08
8.00749e-08
7.9905e-08
7.97353e-08
7.9587e-08
7.9444e-08
7.93242e-08
7.92034e-08
7.91019e-08
7.89953e-08
7.89028e-08
7.8813e-08
7.87377e-08
7.86575e-08
7.85933e-08
7.85226e-08
7.84635e-08
7.84049e-08
7.83544e-08
7.83006e-08
7.82568e-08
7.82156e-08
7.8177e-08
7.8133e-08
7.81035e-08
7.80688e-08
7.80247e-08
7.79964e-08
7.79811e-08
7.79446e-08
7.79271e-08
7.78998e-08
7.78692e-08
7.78239e-08
7.78038e-08
7.78012e-08
7.77981e-08
7.77728e-08
7.77794e-08
7.77751e-08
7.77654e-08
7.77796e-08
7.77838e-08
7.78086e-08
7.78373e-08
7.78396e-08
7.78486e-08
7.78689e-08
7.78932e-08
7.79158e-08
7.79576e-08
7.79831e-08
7.80302e-08
7.80505e-08
7.80978e-08
7.81257e-08
7.81876e-08
7.82207e-08
7.83072e-08
7.83415e-08
7.84377e-08
7.84801e-08
7.85852e-08
7.86464e-08
7.87751e-08
7.88425e-08
7.90419e-08
7.90731e-08
8.00498e-08
3.26383e-06
3.19158e-08
1.23598e-07
1.15898e-07
1.08706e-07
1.03272e-07
9.92093e-08
9.61071e-08
9.36455e-08
9.16679e-08
9.00229e-08
8.866e-08
8.74883e-08
8.64975e-08
8.56266e-08
8.48772e-08
8.42059e-08
8.36272e-08
8.30984e-08
8.26409e-08
8.22149e-08
8.18457e-08
8.14973e-08
8.11944e-08
8.09043e-08
8.06558e-08
8.0414e-08
8.02064e-08
8.00011e-08
7.9829e-08
7.96572e-08
7.9507e-08
7.93621e-08
7.92405e-08
7.91179e-08
7.9015e-08
7.8907e-08
7.88132e-08
7.8722e-08
7.86456e-08
7.85643e-08
7.84991e-08
7.84273e-08
7.83674e-08
7.83078e-08
7.82565e-08
7.82019e-08
7.81574e-08
7.81155e-08
7.80764e-08
7.80317e-08
7.80018e-08
7.79666e-08
7.79223e-08
7.78933e-08
7.78776e-08
7.78408e-08
7.78229e-08
7.7795e-08
7.77642e-08
7.77193e-08
7.76982e-08
7.76951e-08
7.76917e-08
7.76656e-08
7.76718e-08
7.76667e-08
7.76564e-08
7.76703e-08
7.76746e-08
7.76985e-08
7.77271e-08
7.77296e-08
7.77384e-08
7.77581e-08
7.77822e-08
7.78041e-08
7.78455e-08
7.78706e-08
7.79174e-08
7.79377e-08
7.79847e-08
7.80122e-08
7.80738e-08
7.81063e-08
7.81921e-08
7.82264e-08
7.83217e-08
7.83642e-08
7.84684e-08
7.85292e-08
7.86571e-08
7.87239e-08
7.89227e-08
7.89512e-08
7.9956e-08
3.253e-06
3.38322e-08
1.23629e-07
1.16006e-07
1.08834e-07
1.0339e-07
9.9309e-08
9.61875e-08
9.37079e-08
9.17141e-08
9.00546e-08
8.8679e-08
8.74958e-08
8.64948e-08
8.56148e-08
8.48574e-08
8.41787e-08
8.35935e-08
8.30587e-08
8.25958e-08
8.21648e-08
8.17911e-08
8.14386e-08
8.11319e-08
8.08382e-08
8.05865e-08
8.03417e-08
8.01314e-08
7.99234e-08
7.97488e-08
7.95748e-08
7.94226e-08
7.92756e-08
7.91521e-08
7.90278e-08
7.89233e-08
7.88137e-08
7.87187e-08
7.8626e-08
7.85483e-08
7.84658e-08
7.83995e-08
7.83267e-08
7.82658e-08
7.82051e-08
7.8153e-08
7.80975e-08
7.80523e-08
7.80097e-08
7.79701e-08
7.79246e-08
7.78941e-08
7.78585e-08
7.78139e-08
7.77842e-08
7.7768e-08
7.77309e-08
7.77126e-08
7.76842e-08
7.76532e-08
7.76085e-08
7.75864e-08
7.7583e-08
7.75792e-08
7.75521e-08
7.7558e-08
7.75521e-08
7.75412e-08
7.75547e-08
7.75591e-08
7.7582e-08
7.76104e-08
7.76132e-08
7.76218e-08
7.76408e-08
7.76646e-08
7.7686e-08
7.77268e-08
7.77515e-08
7.77981e-08
7.78183e-08
7.78649e-08
7.7892e-08
7.79532e-08
7.79852e-08
7.80703e-08
7.81044e-08
7.81989e-08
7.82414e-08
7.83446e-08
7.8405e-08
7.85321e-08
7.85982e-08
7.87964e-08
7.88221e-08
7.98558e-08
3.23878e-06
3.59393e-08
1.23661e-07
1.16118e-07
1.08968e-07
1.03515e-07
9.94149e-08
9.62734e-08
9.37748e-08
9.17639e-08
9.00891e-08
8.86999e-08
8.75046e-08
8.64929e-08
8.56033e-08
8.48373e-08
8.41508e-08
8.35586e-08
8.30174e-08
8.25487e-08
8.21125e-08
8.17341e-08
8.1377e-08
8.10664e-08
8.07689e-08
8.05138e-08
8.02657e-08
8.00525e-08
7.98418e-08
7.96646e-08
7.94882e-08
7.93338e-08
7.91845e-08
7.90592e-08
7.89329e-08
7.88267e-08
7.87156e-08
7.8619e-08
7.85248e-08
7.84459e-08
7.8362e-08
7.82945e-08
7.82206e-08
7.81587e-08
7.80969e-08
7.80439e-08
7.79875e-08
7.79415e-08
7.78981e-08
7.78579e-08
7.78115e-08
7.77805e-08
7.77445e-08
7.76996e-08
7.76691e-08
7.76525e-08
7.76149e-08
7.75962e-08
7.75672e-08
7.75361e-08
7.74916e-08
7.74685e-08
7.74645e-08
7.74604e-08
7.74324e-08
7.74378e-08
7.74311e-08
7.74195e-08
7.74327e-08
7.74371e-08
7.7459e-08
7.74871e-08
7.74902e-08
7.74986e-08
7.7517e-08
7.75405e-08
7.75612e-08
7.76016e-08
7.76258e-08
7.76721e-08
7.76921e-08
7.77385e-08
7.77651e-08
7.78259e-08
7.78573e-08
7.79416e-08
7.79756e-08
7.80692e-08
7.81117e-08
7.82138e-08
7.82738e-08
7.84e-08
7.84654e-08
7.86629e-08
7.86858e-08
7.9749e-08
3.2205e-06
3.82464e-08
1.23694e-07
1.16236e-07
1.09109e-07
1.03647e-07
9.95272e-08
9.63648e-08
9.38464e-08
9.18175e-08
9.01266e-08
8.8723e-08
8.7515e-08
8.64919e-08
8.5592e-08
8.4817e-08
8.41222e-08
8.35226e-08
8.29746e-08
8.24999e-08
8.2058e-08
8.16745e-08
8.13128e-08
8.0998e-08
8.06964e-08
8.04377e-08
8.01862e-08
7.99699e-08
7.97562e-08
7.95763e-08
7.93973e-08
7.92406e-08
7.9089e-08
7.89615e-08
7.88332e-08
7.87253e-08
7.86124e-08
7.85143e-08
7.84184e-08
7.83381e-08
7.82529e-08
7.81842e-08
7.8109e-08
7.8046e-08
7.7983e-08
7.79292e-08
7.78717e-08
7.78249e-08
7.77806e-08
7.77399e-08
7.76925e-08
7.7661e-08
7.76244e-08
7.75792e-08
7.75479e-08
7.75307e-08
7.74928e-08
7.74737e-08
7.7444e-08
7.74127e-08
7.73685e-08
7.73443e-08
7.73398e-08
7.73352e-08
7.73062e-08
7.73113e-08
7.73037e-08
7.72915e-08
7.73041e-08
7.73086e-08
7.73294e-08
7.73573e-08
7.73605e-08
7.73688e-08
7.73865e-08
7.74097e-08
7.74297e-08
7.74696e-08
7.74933e-08
7.75392e-08
7.75591e-08
7.76051e-08
7.76313e-08
7.76916e-08
7.77225e-08
7.78059e-08
7.78398e-08
7.79325e-08
7.7975e-08
7.8076e-08
7.81354e-08
7.82608e-08
7.83254e-08
7.85222e-08
7.85422e-08
7.96352e-08
3.19744e-06
4.07607e-08
1.23727e-07
1.16358e-07
1.09257e-07
1.03786e-07
9.96463e-08
9.64621e-08
9.39228e-08
9.18751e-08
9.01672e-08
8.87486e-08
8.7527e-08
8.64919e-08
8.55813e-08
8.47967e-08
8.40931e-08
8.34857e-08
8.29305e-08
8.24493e-08
8.20015e-08
8.16127e-08
8.1246e-08
8.09266e-08
8.06208e-08
8.03583e-08
8.01031e-08
7.98835e-08
7.96667e-08
7.94839e-08
7.93022e-08
7.91431e-08
7.8989e-08
7.88593e-08
7.87288e-08
7.8619e-08
7.85042e-08
7.84046e-08
7.83069e-08
7.82252e-08
7.81384e-08
7.80684e-08
7.7992e-08
7.79278e-08
7.78636e-08
7.78087e-08
7.77502e-08
7.77025e-08
7.76572e-08
7.76159e-08
7.75675e-08
7.75354e-08
7.74984e-08