/*--------------------------------*- C++ -*----------------------------------*\
| =========                 |                                                 |
| \\      /  F ield         | OpenFOAM: The Open Source CFD Toolbox           |
|  \\    /   O peration     | Version:  v2012                                 |
|   \\  /    A nd           | Website:  www.openfoam.com                      |
|    \\/     M anipulation  |                                                 |
\*---------------------------------------------------------------------------*/
FoamFile
{
    version     2.0;
    format      ascii;
    class       volScalarField;
    location    "17.5";
    object      yPlus;
}
// * * * * * * * * * * * * * * * * * * * * * * * * * * * * * * * * * * * * * //

dimensions      [0 0 0 0 0 0 0];


internalField   uniform 0;

boundaryField
{
    inlet
    {
        type            calculated;
        value           uniform 0;
    }
    outlet
    {
        type            calculated;
        value           uniform 0;
    }
    topWall
    {
        type            calculated;
        value           nonuniform List<scalar> 
545
(
0.120354
0.207891
0.266774
0.313514
0.353064
0.387648
0.418516
0.446456
0.472005
0.495548
0.517374
0.537707
0.556726
0.574573
0.59137
0.607215
0.622195
0.636383
0.649842
0.662629
0.674793
0.686378
0.697423
0.707963
0.718031
0.727656
0.736863
0.745677
0.754121
0.762214
0.769977
0.777425
0.784576
0.791445
0.798045
0.804391
0.810493
0.816364
0.822014
0.827455
0.832694
0.837742
0.842606
0.847295
0.851816
0.856176
0.860383
0.864442
0.86836
0.872143
0.875795
0.879323
0.882731
0.886024
0.889206
0.892281
0.895255
0.89813
0.90091
0.9036
0.906201
0.908719
0.911154
0.913512
0.915793
0.918002
0.920141
0.922212
0.924217
0.92616
0.928041
0.929864
0.931606
0.93329
0.934959
0.936614
0.938253
0.939879
0.941489
0.943086
0.944669
0.946237
0.947792
0.949333
0.950861
0.952375
0.953877
0.955365
0.95684
0.958302
0.959752
0.961189
0.962614
0.964026
0.965426
0.966816
0.96806
0.969172
0.970283
0.971393
0.972502
0.97361
0.974717
0.975823
0.976929
0.978033
0.979136
0.980238
0.981339
0.982439
0.983538
0.984636
0.985733
0.986829
0.987924
0.989017
0.99011
0.991201
0.992291
0.99338
0.994468
0.995555
0.99664
0.997725
0.998808
0.99989
1.00097
1.00205
1.00313
1.0042
1.00528
1.00635
1.00743
1.0085
1.00957
1.01064
1.0117
1.01277
1.01384
1.0149
1.01596
1.01702
1.01808
1.01914
1.02019
1.02125
1.0223
1.02335
1.0244
1.02545
1.0265
1.02754
1.02859
1.02963
1.03067
1.03171
1.03275
1.03378
1.03481
1.03585
1.03688
1.03791
1.03893
1.03996
1.04098
1.042
1.04302
1.04404
1.04506
1.04607
1.04709
1.0481
1.0491
1.05011
1.05112
1.05212
1.05312
1.05412
1.05512
1.05611
1.05711
1.0581
1.05909
1.06007
1.06106
1.06204
1.06302
1.064
1.06498
1.06595
1.06692
1.06789
1.06886
1.06983
1.07079
1.07175
1.07271
1.07367
1.07462
1.07557
1.07652
1.07747
1.07841
1.07936
1.0803
1.08123
1.08217
1.0831
1.08403
1.08496
1.08588
1.08681
1.08773
1.08864
1.08956
1.09047
1.09138
1.09229
1.09319
1.09409
1.09499
1.09589
1.09678
1.09767
1.09856
1.09945
1.10033
1.10121
1.10209
1.10296
1.10383
1.1047
1.10557
1.10643
1.10729
1.10814
1.109
1.10985
1.1107
1.11154
1.11238
1.11322
1.11406
1.11489
1.11572
1.11654
1.11737
1.11819
1.119
1.11981
1.12062
1.12143
1.12223
1.12303
1.12383
1.12462
1.12541
1.1262
1.12698
1.12776
1.12854
1.12931
1.13008
1.13085
1.13161
1.13237
1.13313
1.13388
1.13463
1.13533
1.13598
1.13665
1.13731
1.13798
1.13865
1.13932
1.14
1.14067
1.14136
1.14204
1.14273
1.14342
1.14411
1.1448
1.1455
1.14619
1.1469
1.1476
1.1483
1.14901
1.14972
1.15043
1.15114
1.15185
1.15257
1.15328
1.154
1.15472
1.15543
1.15615
1.15687
1.15759
1.15831
1.15904
1.15976
1.16048
1.1612
1.16192
1.16264
1.16336
1.16408
1.1648
1.16552
1.16623
1.16695
1.16766
1.16837
1.16908
1.16979
1.17049
1.17119
1.17189
1.17259
1.17328
1.17397
1.17466
1.17534
1.17601
1.17669
1.17736
1.17802
1.17868
1.17933
1.17998
1.18062
1.18126
1.18189
1.18251
1.18313
1.18373
1.18433
1.18493
1.18551
1.18609
1.18666
1.18721
1.18776
1.1883
1.18883
1.18935
1.18986
1.19035
1.19084
1.19131
1.19177
1.19222
1.19266
1.19308
1.19349
1.19388
1.19427
1.19463
1.19498
1.19532
1.19564
1.19594
1.19622
1.19649
1.19674
1.19698
1.19719
1.19739
1.19757
1.19772
1.19786
1.19798
1.19807
1.19815
1.1982
1.19823
1.19824
1.19822
1.19819
1.19812
1.19804
1.19793
1.19779
1.19763
1.19744
1.19723
1.19699
1.19672
1.19642
1.1961
1.19575
1.19537
1.19496
1.19452
1.19405
1.19355
1.19302
1.19246
1.19187
1.19125
1.19059
1.18991
1.18919
1.18843
1.18765
1.18683
1.18598
1.18509
1.18417
1.18321
1.18222
1.1812
1.18014
1.17905
1.17792
1.17675
1.17555
1.17431
1.17304
1.17174
1.17039
1.16901
1.1676
1.16615
1.16466
1.16314
1.16158
1.15999
1.15836
1.1567
1.155
1.15327
1.1515
1.1497
1.14787
1.146
1.14409
1.14216
1.14019
1.13819
1.13615
1.13409
1.13199
1.12986
1.1277
1.12551
1.12305
1.12033
1.1176
1.11487
1.11213
1.1094
1.10666
1.10393
1.1012
1.09848
1.09576
1.09305
1.09035
1.08766
1.08498
1.08231
1.07965
1.07701
1.07438
1.07177
1.06918
1.0666
1.06404
1.0615
1.05898
1.05648
1.054
1.05155
1.04911
1.0467
1.04431
1.04195
1.03961
1.03729
1.035
1.03274
1.03051
1.0283
1.02612
1.02397
1.02185
1.01975
1.01769
1.01566
1.01365
1.01168
1.00974
1.00783
1.00595
1.00411
1.00229
1.00052
0.998771
0.997062
0.995383
0.993742
0.992133
0.990563
0.989025
0.987526
0.98606
0.984633
0.983241
0.981889
0.980571
0.979294
0.978052
0.976851
0.975686
0.974563
0.973476
0.972432
0.971424
0.970459
0.969531
0.968647
0.9678
0.966997
0.966233
0.965512
0.964831
0.964193
0.963596
0.963042
0.962529
0.96206
0.961633
0.961249
0.960907
0.960607
0.960349
0.960133
0.959955
0.959838
0.959694
)
;
    }
    bottomWall
    {
        type            calculated;
        value           nonuniform List<scalar> 
449
(
0.00275231
0.00482403
0.0053943
0.00534476
0.00527306
0.00517616
0.00507504
0.00497946
0.0048934
0.00481662
0.0047474
0.0046839
0.00462473
0.00456895
0.00451615
0.00446593
0.00441815
0.00437262
0.00432916
0.00428773
0.00424814
0.00421032
0.00417418
0.00413957
0.00410643
0.00407469
0.00404427
0.00401503
0.00398701
0.00395996
0.00393398
0.00390894
0.00388488
0.00386161
0.00383922
0.00381748
0.00379656
0.00377626
0.00375666
0.00373765
0.00371922
0.00370139
0.00368403
0.00366722
0.00365081
0.00363496
0.00361942
0.00360443
0.00358969
0.00357549
0.00356152
0.00354808
0.00353478
0.00352196
0.00350933
0.00349712
0.00348508
0.00347339
0.00346189
0.00345072
0.00343971
0.00342902
0.00341845
0.00340818
0.00339808
0.00338825
0.00337854
0.00336908
0.00335975
0.00335064
0.00334162
0.00333282
0.00332416
0.0033157
0.00330732
0.00329914
0.00329104
0.00328311
0.00327526
0.00326761
0.00326006
0.00325267
0.00324536
0.00323816
0.00323105
0.00322407
0.00321719
0.00321049
0.00320381
0.00319726
0.00319075
0.00318437
0.00317806
0.00317187
0.00316573
0.00315973
0.0031538
0.00314794
0.00314214
0.00313642
0.00313077
0.00312522
0.0031197
0.00311428
0.00310892
0.00310366
0.00309842
0.00309332
0.0030882
0.00308318
0.00307817
0.00307323
0.00306835
0.00306354
0.00305879
0.00305412
0.00304953
0.00304496
0.00304043
0.00303597
0.00303157
0.00302718
0.00302283
0.00301852
0.00301424
0.00301002
0.00300585
0.00300175
0.00299769
0.0029937
0.00298972
0.00298579
0.00298184
0.00297795
0.00297407
0.00297023
0.00296641
0.00296266
0.00295891
0.00295527
0.00295161
0.00294806
0.00294453
0.00294106
0.00293762
0.0029342
0.00293083
0.00292742
0.00292409
0.00292075
0.00291748
0.00291417
0.00291095
0.00290771
0.00290453
0.00290139
0.00289828
0.00289522
0.00289215
0.00288917
0.00288616
0.00288319
0.00288023
0.00287726
0.00287431
0.00287145
0.0028686
0.00286579
0.00286301
0.00286027
0.00285754
0.00285485
0.00285215
0.00284961
0.00284718
0.00284476
0.00284233
0.0028399
0.00283744
0.00283504
0.0028326
0.00283016
0.00282772
0.00282528
0.00282283
0.00282042
0.00281801
0.00281565
0.00281324
0.00281083
0.00280836
0.00280595
0.00280351
0.00280104
0.00279862
0.00279621
0.00279382
0.00279141
0.00278902
0.00278662
0.00278422
0.00278181
0.0027794
0.00277696
0.00277453
0.00277209
0.0027696
0.00276709
0.00276461
0.00276212
0.00275965
0.00275719
0.00275478
0.00275239
0.00275001
0.00274761
0.00274527
0.00274291
0.00274059
0.00273822
0.00273585
0.00273347
0.00273104
0.00272863
0.00272619
0.00272375
0.00272137
0.00271888
0.0027165
0.00271409
0.00271166
0.00270927
0.00270683
0.00270438
0.00270197
0.00269947
0.00269698
0.00269444
0.00269201
0.00268958
0.00268721
0.00268486
0.00268254
0.00268017
0.00267781
0.00267546
0.00267306
0.00267065
0.00266829
0.00266588
0.00266351
0.00266109
0.00265868
0.0026563
0.00265394
0.00265155
0.00264915
0.00264674
0.00264438
0.00264196
0.00263961
0.00263722
0.00263482
0.00263239
0.00262997
0.0026276
0.00262519
0.0026229
0.00262055
0.00261818
0.00261575
0.00261336
0.00261101
0.00260871
0.00260636
0.00260401
0.0026017
0.00259934
0.00259704
0.00259479
0.00259256
0.00259035
0.00258802
0.00258577
0.00258347
0.0025812
0.00257883
0.00257646
0.00257418
0.0025719
0.00256972
0.00256742
0.00256515
0.00256288
0.00256061
0.00255828
0.0025561
0.00255384
0.00255165
0.00254952
0.00254732
0.00254526
0.00254313
0.00254086
0.00253852
0.00253617
0.002534
0.00253182
0.00252965
0.00252748
0.00252527
0.00252312
0.00252098
0.00251874
0.00251654
0.00251436
0.00251226
0.00251007
0.00250798
0.00250584
0.0025038
0.00250168
0.00249954
0.0024974
0.0024953
0.00249325
0.00249118
0.00248911
0.00248701
0.00248496
0.00248289
0.00248072
0.00247868
0.00247663
0.00247454
0.00247234
0.00247022
0.00246821
0.00246617
0.0024642
0.00246227
0.00246028
0.00245827
0.00245629
0.00245428
0.00245233
0.0024504
0.00244842
0.00244647
0.00244455
0.00244256
0.00244063
0.00243868
0.00243669
0.00243454
0.00243222
0.00242993
0.00242772
0.0024255
0.00242337
0.00242127
0.00241919
0.00241719
0.00241522
0.00241316
0.00241114
0.00240918
0.00240728
0.00240542
0.00240368
0.00240183
0.00240009
0.00239831
0.00239655
0.00239488
0.00239324
0.00239144
0.0023897
0.00238806
0.00238647
0.00238508
0.00238351
0.00238202
0.00238054
0.00237902
0.0023775
0.00237614
0.00237485
0.00237354
0.00237226
0.00237086
0.00236949
0.00236804
0.00236666
0.00236528
0.00236388
0.0023626
0.00236129
0.00236003
0.00235882
0.00235754
0.00235628
0.00235501
0.00235377
0.00235259
0.00235152
0.00235043
0.00234924
0.00234823
0.00234705
0.00234599
0.00234479
0.00234369
0.00234253
0.00234152
0.00234048
0.00233946
0.00233842
0.00233742
0.00233637
0.00233529
0.00233426
0.00233341
0.00233238
0.00233143
0.00233058
0.00232964
0.00232877
0.00232788
0.00232697
0.00232613
0.00232518
0.0023243
0.00232329
0.00232239
0.0023216
0.0023208
0.00232003
0.00231921
0.00231828
0.0023174
0.00231649
0.00231558
0.0023146
0.00231372
0.00231293
0.00231178
0.00231147
0.00230988
)
;
    }
    symmetry
    {
        type            symmetryPlane;
    }
    frontAndBack
    {
        type            empty;
    }
}


// ************************************************************************* //
