/*--------------------------------*- C++ -*----------------------------------*\
| =========                 |                                                 |
| \\      /  F ield         | OpenFOAM: The Open Source CFD Toolbox           |
|  \\    /   O peration     | Version:  v2012                                 |
|   \\  /    A nd           | Website:  www.openfoam.com                      |
|    \\/     M anipulation  |                                                 |
\*---------------------------------------------------------------------------*/
FoamFile
{
    version     2.0;
    format      ascii;
    class       volScalarField;
    location    "46.5";
    object      k;
}
// * * * * * * * * * * * * * * * * * * * * * * * * * * * * * * * * * * * * * //

dimensions      [0 2 -2 0 0 0 0];


internalField   nonuniform List<scalar> 
209825
(
0.00102411
0.000931878
0.000855663
0.000793134
0.000742553
0.000701851
0.000669129
0.000642595
0.000620938
0.000603023
0.000588104
0.000575511
0.00056483
0.000555659
0.000547757
0.000540876
0.000534868
0.000529578
0.000524904
0.000520753
0.000517045
0.000513731
0.000510741
0.000508057
0.000505609
0.000503408
0.000501381
0.000499557
0.000497859
0.000496331
0.000494896
0.000493609
0.000492384
0.00049129
0.000490239
0.000489307
0.000488397
0.000487595
0.000486805
0.000486114
0.000485425
0.000484825
0.000484222
0.000483704
0.000483172
0.000482721
0.000482253
0.00048186
0.000481446
0.000481103
0.000480734
0.000480433
0.000480106
0.00047985
0.000479554
0.000479337
0.000479073
0.000478882
0.00047865
0.000478483
0.000478279
0.000478128
0.000477951
0.000477816
0.000477659
0.00047755
0.000477402
0.000477299
0.000477166
0.000477084
0.000476974
0.00047691
0.000476819
0.000476768
0.000476683
0.000476631
0.000476552
0.000476508
0.000476438
0.000476403
0.000476344
0.000476317
0.00047627
0.000476253
0.000476215
0.000476216
0.000476207
0.00047624
0.00047624
0.000476284
0.000476284
0.000476342
0.000476524
0.000484275
0.000509171
0.00123871
0.00102411
0.000931878
0.000855663
0.000793134
0.000742553
0.00070185
0.000669127
0.000642592
0.000620933
0.000603018
0.000588098
0.000575505
0.000564823
0.000555651
0.000547749
0.000540868
0.000534859
0.000529568
0.000524894
0.000520743
0.000517035
0.00051372
0.00051073
0.000508045
0.000505598
0.000503397
0.00050137
0.000499545
0.000497847
0.000496319
0.000494884
0.000493596
0.000492371
0.000491278
0.000490227
0.000489294
0.000488385
0.000487582
0.000486792
0.000486101
0.000485412
0.000484812
0.000484209
0.000483691
0.000483158
0.000482708
0.00048224
0.000481847
0.000481433
0.00048109
0.000480721
0.00048042
0.000480093
0.000479837
0.000479541
0.000479323
0.00047906
0.000478869
0.000478636
0.00047847
0.000478265
0.000478114
0.000477937
0.000477802
0.000477645
0.000477536
0.000477388
0.000477285
0.000477152
0.00047707
0.00047696
0.000476896
0.000476805
0.000476754
0.000476669
0.000476617
0.000476538
0.000476494
0.000476424
0.000476388
0.000476329
0.000476303
0.000476256
0.000476239
0.000476201
0.000476202
0.000476193
0.000476225
0.000476226
0.000476269
0.000476269
0.000476327
0.00047651
0.000484274
0.000509165
0.00123941
0.00102411
0.000931879
0.000855664
0.000793133
0.000742549
0.000701842
0.000669116
0.000642577
0.000620914
0.000602995
0.000588072
0.000575477
0.000564793
0.000555619
0.000547715
0.000540832
0.000534821
0.00052953
0.000524854
0.000520701
0.000516992
0.000513677
0.000510686
0.000508001
0.000505553
0.000503351
0.000501323
0.000499498
0.0004978
0.000496271
0.000494836
0.000493547
0.000492322
0.000491228
0.000490176
0.000489244
0.000488334
0.000487531
0.00048674
0.00048605
0.00048536
0.00048476
0.000484157
0.000483639
0.000483106
0.000482655
0.000482187
0.000481794
0.00048138
0.000481036
0.000480667
0.000480366
0.000480039
0.000479783
0.000479487
0.000479269
0.000479005
0.000478815
0.000478582
0.000478415
0.00047821
0.00047806
0.000477883
0.000477748
0.000477591
0.000477481
0.000477333
0.00047723
0.000477097
0.000477015
0.000476904
0.000476841
0.00047675
0.000476698
0.000476613
0.000476562
0.000476482
0.000476438
0.000476368
0.000476333
0.000476274
0.000476248
0.0004762
0.000476183
0.000476145
0.000476146
0.000476137
0.000476169
0.000476169
0.000476213
0.000476213
0.000476271
0.000476454
0.000484247
0.000509121
0.00124081
0.00102411
0.00093188
0.000855665
0.000793132
0.000742544
0.00070183
0.000669097
0.000642551
0.000620883
0.000602958
0.00058803
0.00057543
0.000564742
0.000555564
0.000547657
0.000540771
0.000534758
0.000529464
0.000524787
0.000520632
0.000516921
0.000513604
0.000510612
0.000507925
0.000505476
0.000503273
0.000501245
0.000499418
0.000497719
0.00049619
0.000494754
0.000493465
0.000492239
0.000491144
0.000490092
0.000489159
0.000488249
0.000487446
0.000486655
0.000485963
0.000485273
0.000484673
0.000484069
0.000483551
0.000483018
0.000482567
0.000482098
0.000481705
0.000481291
0.000480947
0.000480578
0.000480276
0.000479949
0.000479693
0.000479397
0.000479178
0.000478915
0.000478724
0.000478491
0.000478324
0.000478119
0.000477969
0.000477791
0.000477656
0.000477499
0.000477389
0.000477241
0.000477138
0.000477004
0.000476923
0.000476812
0.000476748
0.000476657
0.000476605
0.00047652
0.000476469
0.000476389
0.000476345
0.000476275
0.000476239
0.00047618
0.000476154
0.000476106
0.000476089
0.000476051
0.000476052
0.000476043
0.000476074
0.000476074
0.000476118
0.000476118
0.000476176
0.00047636
0.000484197
0.000509047
0.00124254
0.00102411
0.000931881
0.000855667
0.000793131
0.000742535
0.000701813
0.00066907
0.000642515
0.000620838
0.000602905
0.00058797
0.000575363
0.00056467
0.000555487
0.000547575
0.000540685
0.000534669
0.000529372
0.000524691
0.000520534
0.000516821
0.000513502
0.000510508
0.000507819
0.000505368
0.000503164
0.000501134
0.000499307
0.000497606
0.000496076
0.000494639
0.000493349
0.000492122
0.000491027
0.000489974
0.00048904
0.000488129
0.000487325
0.000486533
0.000485841
0.000485151
0.00048455
0.000483946
0.000483427
0.000482894
0.000482442
0.000481973
0.00048158
0.000481165
0.000480821
0.000480451
0.00048015
0.000479822
0.000479566
0.000479269
0.000479051
0.000478787
0.000478596
0.000478363
0.000478196
0.00047799
0.00047784
0.000477662
0.000477526
0.000477369
0.00047726
0.000477111
0.000477008
0.000476874
0.000476793
0.000476681
0.000476618
0.000476526
0.000476475
0.000476389
0.000476338
0.000476258
0.000476214
0.000476144
0.000476108
0.000476049
0.000476022
0.000475974
0.000475957
0.000475919
0.000475919
0.000475909
0.000475941
0.000475941
0.000475984
0.000475984
0.000476042
0.000476227
0.000484126
0.000508941
0.00124449
0.00102411
0.000931883
0.000855669
0.000793129
0.000742525
0.000701791
0.000669035
0.000642468
0.000620779
0.000602836
0.000587892
0.000575277
0.000564576
0.000555387
0.000547469
0.000540574
0.000534553
0.000529252
0.000524568
0.000520407
0.000516691
0.000513369
0.000510372
0.000507682
0.000505229
0.000503022
0.000500991
0.000499162
0.00049746
0.000495928
0.000494489
0.000493198
0.00049197
0.000490874
0.00048982
0.000488885
0.000487973
0.000487169
0.000486376
0.000485684
0.000484992
0.000484391
0.000483786
0.000483267
0.000482733
0.000482281
0.000481811
0.000481418
0.000481002
0.000480658
0.000480288
0.000479986
0.000479658
0.000479401
0.000479104
0.000478885
0.000478621
0.000478429
0.000478196
0.000478029
0.000477823
0.000477672
0.000477494
0.000477359
0.000477201
0.000477092
0.000476943
0.00047684
0.000476706
0.000476624
0.000476512
0.000476449
0.000476357
0.000476305
0.00047622
0.000476168
0.000476088
0.000476044
0.000475973
0.000475937
0.000475878
0.000475851
0.000475803
0.000475786
0.000475748
0.000475747
0.000475737
0.000475768
0.000475768
0.00047581
0.00047581
0.000475868
0.000476055
0.000484033
0.000508804
0.00124662
0.00102411
0.000931885
0.000855672
0.000793127
0.000742512
0.000701764
0.000668993
0.00064241
0.000620708
0.000602752
0.000587796
0.000575171
0.000564461
0.000555263
0.000547339
0.000540437
0.000534411
0.000529104
0.000524416
0.000520251
0.000516531
0.000513206
0.000510206
0.000507512
0.000505057
0.000502848
0.000500814
0.000498983
0.000497279
0.000495745
0.000494305
0.000493013
0.000491783
0.000490686
0.000489631
0.000488695
0.000487782
0.000486976
0.000486183
0.000485489
0.000484797
0.000484195
0.000483589
0.000483069
0.000482535
0.000482082
0.000481612
0.000481218
0.000480801
0.000480457
0.000480086
0.000479784
0.000479455
0.000479198
0.0004789
0.000478681
0.000478417
0.000478225
0.000477991
0.000477823
0.000477617
0.000477466
0.000477288
0.000477152
0.000476994
0.000476884
0.000476735
0.000476632
0.000476498
0.000476416
0.000476304
0.00047624
0.000476148
0.000476096
0.00047601
0.000475958
0.000475878
0.000475834
0.000475763
0.000475727
0.000475667
0.00047564
0.000475592
0.000475574
0.000475537
0.000475535
0.000475524
0.000475555
0.000475555
0.000475596
0.000475596
0.000475654
0.000475843
0.00048392
0.000508636
0.00124881
0.00102411
0.000931887
0.000855676
0.000793124
0.000742497
0.000701731
0.000668942
0.000642342
0.000620622
0.000602651
0.000587682
0.000575044
0.000564324
0.000555117
0.000547184
0.000540275
0.000534241
0.000528928
0.000524234
0.000520065
0.00051634
0.000513011
0.000510007
0.00050731
0.000504852
0.00050264
0.000500603
0.00049877
0.000497064
0.000495528
0.000494086
0.000492792
0.000491561
0.000490461
0.000489405
0.000488467
0.000487553
0.000486747
0.000485952
0.000485257
0.000484564
0.000483961
0.000483354
0.000482834
0.000482298
0.000481844
0.000481374
0.000480979
0.000480562
0.000480217
0.000479845
0.000479542
0.000479213
0.000478956
0.000478658
0.000478438
0.000478173
0.00047798
0.000477746
0.000477578
0.000477372
0.00047722
0.000477042
0.000476906
0.000476747
0.000476637
0.000476488
0.000476384
0.000476249
0.000476167
0.000476055
0.000475991
0.000475899
0.000475846
0.00047576
0.000475708
0.000475628
0.000475583
0.000475512
0.000475476
0.000475416
0.000475389
0.00047534
0.000475322
0.000475284
0.000475282
0.000475271
0.0004753
0.0004753
0.00047534
0.00047534
0.000475399
0.00047559
0.000483787
0.000508436
0.00125093
0.0010241
0.00093189
0.00085568
0.000793121
0.000742479
0.000701694
0.000668884
0.000642262
0.000620523
0.000602534
0.000587549
0.000574897
0.000564164
0.000554946
0.000547003
0.000540085
0.000534044
0.000528724
0.000524023
0.000519848
0.000516118
0.000512784
0.000509776
0.000507075
0.000504613
0.000502398
0.000500358
0.000498521
0.000496813
0.000495275
0.000493831
0.000492534
0.000491301
0.0004902
0.000489142
0.000488203
0.000487287
0.000486479
0.000485683
0.000484987
0.000484293
0.000483688
0.000483081
0.000482559
0.000482022
0.000481568
0.000481096
0.000480701
0.000480283
0.000479937
0.000479565
0.000479261
0.000478931
0.000478673
0.000478375
0.000478154
0.000477889
0.000477696
0.000477461
0.000477293
0.000477086
0.000476934
0.000476755
0.000476618
0.000476459
0.000476349
0.000476199
0.000476096
0.00047596
0.000475878
0.000475765
0.000475701
0.000475608
0.000475556
0.00047547
0.000475417
0.000475336
0.000475291
0.00047522
0.000475183
0.000475123
0.000475096
0.000475046
0.000475029
0.000474991
0.000474988
0.000474975
0.000475004
0.000475004
0.000475043
0.000475043
0.000475101
0.000475295
0.000483634
0.000508204
0.00125274
0.0010241
0.000931893
0.000855685
0.000793118
0.000742459
0.000701651
0.000668817
0.000642172
0.00062041
0.000602401
0.000587397
0.00057473
0.000563982
0.000554751
0.000546797
0.000539869
0.000533818
0.00052849
0.000523782
0.0005196
0.000515864
0.000512524
0.000509511
0.000506806
0.00050434
0.000502121
0.000500077
0.000498238
0.000496526
0.000494985
0.000493538
0.00049224
0.000491004
0.000489901
0.000488841
0.0004879
0.000486982
0.000486173
0.000485375
0.000484678
0.000483982
0.000483376
0.000482768
0.000482245
0.000481707
0.000481252
0.000480779
0.000480383
0.000479964
0.000479617
0.000479244
0.00047894
0.000478609
0.00047835
0.000478051
0.00047783
0.000477564
0.00047737
0.000477135
0.000476966
0.000476759
0.000476606
0.000476427
0.00047629
0.00047613
0.00047602
0.000475869
0.000475765
0.00047563
0.000475547
0.000475434
0.000475369
0.000475276
0.000475223
0.000475137
0.000475084
0.000475003
0.000474958
0.000474886
0.000474849
0.000474788
0.00047476
0.000474711
0.000474693
0.000474654
0.000474651
0.000474637
0.000474665
0.000474664
0.000474703
0.000474702
0.000474761
0.000474958
0.000483462
0.00050794
0.00125392
0.0010241
0.000931897
0.00085569
0.000793115
0.000742436
0.000701604
0.000668742
0.00064207
0.000620283
0.000602251
0.000587227
0.000574541
0.000563777
0.000554532
0.000546564
0.000539625
0.000533564
0.000528227
0.00052351
0.000519321
0.000515578
0.000512232
0.000509213
0.000506503
0.000504032
0.000501808
0.000499761
0.000497918
0.000496203
0.000494659
0.000493209
0.000491907
0.000490669
0.000489564
0.000488501
0.000487558
0.000486639
0.000485828
0.000485028
0.000484329
0.000483632
0.000483025
0.000482415
0.000481891
0.000481352
0.000480895
0.000480421
0.000480024
0.000479604
0.000479256
0.000478882
0.000478577
0.000478245
0.000477986
0.000477686
0.000477464
0.000477197
0.000477003
0.000476767
0.000476597
0.000476389
0.000476236
0.000476056
0.000475919
0.000475759
0.000475648
0.000475497
0.000475393
0.000475257
0.000475173
0.00047506
0.000474994
0.000474901
0.000474848
0.000474761
0.000474708
0.000474627
0.000474581
0.000474509
0.000474471
0.00047441
0.000474382
0.000474332
0.000474313
0.000474275
0.000474271
0.000474256
0.000474282
0.000474282
0.000474319
0.000474318
0.000474377
0.000474578
0.00048327
0.000507643
0.00125401
0.0010241
0.000931901
0.000855696
0.000793111
0.000742411
0.000701551
0.000668659
0.000641956
0.000620142
0.000602084
0.000587037
0.000574331
0.000563549
0.000554287
0.000546305
0.000539353
0.000533281
0.000527933
0.000523207
0.000519009
0.000515259
0.000511906
0.000508881
0.000506165
0.000503688
0.00050146
0.000499408
0.000497561
0.000495842
0.000494294
0.000492841
0.000491537
0.000490296
0.000489188
0.000488122
0.000487177
0.000486256
0.000485442
0.000484641
0.00048394
0.000483241
0.000482632
0.000482021
0.000481495
0.000480955
0.000480497
0.000480022
0.000479623
0.000479202
0.000478853
0.000478478
0.000478173
0.00047784
0.000477579
0.000477278
0.000477056
0.000476788
0.000476593
0.000476356
0.000476186
0.000475977
0.000475824
0.000475643
0.000475505
0.000475344
0.000475233
0.000475082
0.000474977
0.00047484
0.000474756
0.000474642
0.000474576
0.000474483
0.000474429
0.000474342
0.000474289
0.000474206
0.00047416
0.000474088
0.00047405
0.000473988
0.000473959
0.000473909
0.00047389
0.000473852
0.000473846
0.00047383
0.000473855
0.000473855
0.00047389
0.000473889
0.000473948
0.000474154
0.000483059
0.000507312
0.00125262
0.0010241
0.000931905
0.000855702
0.000793107
0.000742384
0.000701493
0.000668567
0.000641832
0.000619986
0.0006019
0.000586828
0.000574099
0.000563297
0.000554017
0.00054602
0.000539053
0.000532968
0.000527609
0.000522873
0.000518665
0.000514907
0.000511546
0.000508514
0.000505791
0.000503309
0.000501075
0.000499018
0.000497166
0.000495443
0.000493892
0.000492435
0.000491127
0.000489883
0.000488772
0.000487704
0.000486756
0.000485832
0.000485017
0.000484213
0.00048351
0.000482809
0.000482199
0.000481585
0.000481058
0.000480516
0.000480057
0.00047958
0.00047918
0.000478758
0.000478408
0.000478032
0.000477725
0.000477391
0.00047713
0.000476828
0.000476604
0.000476335
0.00047614
0.000475902
0.000475731
0.000475522
0.000475367
0.000475186
0.000475048
0.000474886
0.000474774
0.000474622
0.000474517
0.00047438
0.000474295
0.000474181
0.000474114
0.00047402
0.000473966
0.000473878
0.000473825
0.000473742
0.000473695
0.000473622
0.000473584
0.000473522
0.000473492
0.000473441
0.000473422
0.000473383
0.000473377
0.000473359
0.000473383
0.000473382
0.000473417
0.000473415
0.000473474
0.000473685
0.000482829
0.000506948
0.00124977
0.0010241
0.00093191
0.000855709
0.000793102
0.000742355
0.00070143
0.000668468
0.000641696
0.000619817
0.0006017
0.0005866
0.000573846
0.000563022
0.000553722
0.000545707
0.000538724
0.000532625
0.000527253
0.000522506
0.000518288
0.00051452
0.000511151
0.000508111
0.000505382
0.000502893
0.000500653
0.000498591
0.000496734
0.000495006
0.00049345
0.000491989
0.000490678
0.00048943
0.000488316
0.000487245
0.000486294
0.000485367
0.000484549
0.000483743
0.000483038
0.000482335
0.000481723
0.000481107
0.000480578
0.000480035
0.000479574
0.000479095
0.000478694
0.000478271
0.000477919
0.000477542
0.000477234
0.000476899
0.000476636
0.000476333
0.000476109
0.000475839
0.000475642
0.000475404
0.000475232
0.000475022
0.000474867
0.000474684
0.000474545
0.000474383
0.00047427
0.000474118
0.000474012
0.000473874
0.000473789
0.000473674
0.000473607
0.000473512
0.000473457
0.000473369
0.000473315
0.000473232
0.000473185
0.000473111
0.000473073
0.000473009
0.00047298
0.000472928
0.000472908
0.000472869
0.000472862
0.000472842
0.000472865
0.000472864
0.000472897
0.000472895
0.000472954
0.000473171
0.00048258
0.000506549
0.00124547
0.0010241
0.000931915
0.000855717
0.000793098
0.000742323
0.000701362
0.00066836
0.000641549
0.000619633
0.000601482
0.000586351
0.00057357
0.000562722
0.000553401
0.000545367
0.000538367
0.000532253
0.000526867
0.000522107
0.000517878
0.0005141
0.000510721
0.000507673
0.000504936
0.000502439
0.000500193
0.000498125
0.000496263
0.00049453
0.000492969
0.000491504
0.000490188
0.000488937
0.000487819
0.000486744
0.000485791
0.000484861
0.00048404
0.000483231
0.000482524
0.000481818
0.000481204
0.000480586
0.000480056
0.00047951
0.000479048
0.000478567
0.000478165
0.000477739
0.000477387
0.000477008
0.000476699
0.000476362
0.000476099
0.000475794
0.000475569
0.000475298
0.0004751
0.000474861
0.000474688
0.000474477
0.000474321
0.000474137
0.000473998
0.000473834
0.000473721
0.000473568
0.000473462
0.000473323
0.000473238
0.000473122
0.000473054
0.000472958
0.000472903
0.000472814
0.00047276
0.000472676
0.000472629
0.000472554
0.000472515
0.000472451
0.000472421
0.000472369
0.000472348
0.000472308
0.000472301
0.000472279
0.0004723
0.000472299
0.00047233
0.000472327
0.000472387
0.00047261
0.000482311
0.000506113
0.00123974
0.0010241
0.00093192
0.000855726
0.000793093
0.000742289
0.000701289
0.000668244
0.00064139
0.000619434
0.000601246
0.000586083
0.000573272
0.000562398
0.000553054
0.000544999
0.00053798
0.000531849
0.000526448
0.000521675
0.000517434
0.000513644
0.000510256
0.000507198
0.000504452
0.000501949
0.000499695
0.000497621
0.000495752
0.000494013
0.000492448
0.000490977
0.000489657
0.000488402
0.00048728
0.000486202
0.000485245
0.000484312
0.000483488
0.000482676
0.000481967
0.000481258
0.000480642
0.000480022
0.000479489
0.000478941
0.000478477
0.000477995
0.00047759
0.000477163
0.000476809
0.000476429
0.000476118
0.00047578
0.000475516
0.000475209
0.000474983
0.000474711
0.000474512
0.000474271
0.000474098
0.000473885
0.000473729
0.000473544
0.000473404
0.000473239
0.000473126
0.000472972
0.000472865
0.000472726
0.00047264
0.000472523
0.000472454
0.000472358
0.000472302
0.000472213
0.000472158
0.000472073
0.000472025
0.00047195
0.00047191
0.000471846
0.000471815
0.000471762
0.000471741
0.0004717
0.000471692
0.000471669
0.000471688
0.000471686
0.000471716
0.000471712
0.000471772
0.000472002
0.000482022
0.000505641
0.00123263
0.00102409
0.000931926
0.000855735
0.000793088
0.000742253
0.000701211
0.00066812
0.00064122
0.000619221
0.000600994
0.000585795
0.000572952
0.00056205
0.00055268
0.000544602
0.000537564
0.000531415
0.000525998
0.00052121
0.000516955
0.000513154
0.000509754
0.000506687
0.000503932
0.000501419
0.000499159
0.000497077
0.000495202
0.000493457
0.000491886
0.00049041
0.000489085
0.000487825
0.000486699
0.000485617
0.000484656
0.00048372
0.000482893
0.000482078
0.000481365
0.000480654
0.000480035
0.000479412
0.000478878
0.000478327
0.000477861
0.000477377
0.000476971
0.000476542
0.000476186
0.000475804
0.000475492
0.000475152
0.000474886
0.000474579
0.000474351
0.000474078
0.000473878
0.000473636
0.000473461
0.000473248
0.00047309
0.000472904
0.000472764
0.000472598
0.000472483
0.000472329
0.000472222
0.000472081
0.000471994
0.000471876
0.000471807
0.00047171
0.000471654
0.000471564
0.000471508
0.000471423
0.000471374
0.000471298
0.000471258
0.000471193
0.000471161
0.000471107
0.000471085
0.000471044
0.000471035
0.00047101
0.000471027
0.000471025
0.000471053
0.000471048
0.000471109
0.000471346
0.000481712
0.000505129
0.00122416
0.00102409
0.000931932
0.000855745
0.000793083
0.000742215
0.000701128
0.000667988
0.000641039
0.000618993
0.000600723
0.000585487
0.00057261
0.000561677
0.00055228
0.000544178
0.000537118
0.000530949
0.000525514
0.000520711
0.000516442
0.000512627
0.000509216
0.000506138
0.000503373
0.000500852
0.000498583
0.000496493
0.000494611
0.00049286
0.000491282
0.000489801
0.000488471
0.000487206
0.000486076
0.000484989
0.000484024
0.000483084
0.000482254
0.000481435
0.00048072
0.000480006
0.000479384
0.000478758
0.000478221
0.000477668
0.0004772
0.000476713
0.000476305
0.000475874
0.000475517
0.000475133
0.00047482
0.000474478
0.000474211
0.000473901
0.000473672
0.000473397
0.000473196
0.000472953
0.000472777
0.000472562
0.000472404
0.000472217
0.000472075
0.000471908
0.000471793
0.000471637
0.00047153
0.000471388
0.000471301
0.000471182
0.000471112
0.000471014
0.000470957
0.000470866
0.00047081
0.000470724
0.000470675
0.000470598
0.000470557
0.000470491
0.000470458
0.000470403
0.000470381
0.000470339
0.000470329
0.000470302
0.000470318
0.000470315
0.000470341
0.000470335
0.000470396
0.000470642
0.000481381
0.000504575
0.00121438
0.00102409
0.000931939
0.000855755
0.000793078
0.000742175
0.00070104
0.000667847
0.000640846
0.000618751
0.000600436
0.000585158
0.000572245
0.000561279
0.000551853
0.000543725
0.000536641
0.000530452
0.000524998
0.000520178
0.000515893
0.000512065
0.000508641
0.000505551
0.000502776
0.000500245
0.000497967
0.000495869
0.000493979
0.000492221
0.000490637
0.00048915
0.000487814
0.000486543
0.000485408
0.000484317
0.000483348
0.000482404
0.00048157
0.000480748
0.000480029
0.000479312
0.000478687
0.000478058
0.000477518
0.000476963
0.000476492
0.000476003
0.000475593
0.00047516
0.000474801
0.000474415
0.0004741
0.000473756
0.000473487
0.000473176
0.000472946
0.000472669
0.000472467
0.000472222
0.000472045
0.000471829
0.000471669
0.000471481
0.000471339
0.00047117
0.000471054
0.000470898
0.000470789
0.000470647
0.000470558
0.000470438
0.000470368
0.000470269
0.000470211
0.000470119
0.000470063
0.000469976
0.000469926
0.000469848
0.000469806
0.000469739
0.000469706
0.00046965
0.000469627
0.000469585
0.000469573
0.000469544
0.000469558
0.000469555
0.000469579
0.000469572
0.000469633
0.000469889
0.000481026
0.000503978
0.00120335
0.00102409
0.000931945
0.000855766
0.000793073
0.000742133
0.000700948
0.000667699
0.000640642
0.000618494
0.00060013
0.000584809
0.000571857
0.000560856
0.000551399
0.000543243
0.000536134
0.000529922
0.000524449
0.00051961
0.000515309
0.000511466
0.000508028
0.000504926
0.000502139
0.000499598
0.00049731
0.000495203
0.000493306
0.00049154
0.000489949
0.000488455
0.000487114
0.000485837
0.000484697
0.000483601
0.000482627
0.000481678
0.000480841
0.000480015
0.000479292
0.000478571
0.000477944
0.000477312
0.000476769
0.000476211
0.000475738
0.000475246
0.000474834
0.000474398
0.000474037
0.000473649
0.000473332
0.000472986
0.000472716
0.000472403
0.000472171
0.000471893
0.000471689
0.000471443
0.000471264
0.000471047
0.000470886
0.000470697
0.000470553
0.000470383
0.000470266
0.000470109
0.000469999
0.000469856
0.000469766
0.000469645
0.000469574
0.000469474
0.000469415
0.000469323
0.000469266
0.000469178
0.000469127
0.000469049
0.000469006
0.000468938
0.000468904
0.000468847
0.000468823
0.00046878
0.000468767
0.000468736
0.000468749
0.000468744
0.000468766
0.000468758
0.000468819
0.000469085
0.000480646
0.000503334
0.0011911
0.00102409
0.000931952
0.000855778
0.000793068
0.000742089
0.00070085
0.000667543
0.000640426
0.000618222
0.000599808
0.00058444
0.000571446
0.000560408
0.000550917
0.000542732
0.000535597
0.000529361
0.000523866
0.000519008
0.000514689
0.00051083
0.000507378
0.000504262
0.000501463
0.000498911
0.000496613
0.000494497
0.00049259
0.000490816
0.000489218
0.000487717
0.000486369
0.000485087
0.000483941
0.000482839
0.000481861
0.000480908
0.000480066
0.000479235
0.000478509
0.000477785
0.000477153
0.000476518
0.000475973
0.000475411
0.000474936
0.000474441
0.000474026
0.000473588
0.000473225
0.000472834
0.000472516
0.000472167
0.000471896
0.000471581
0.000471347
0.000471067
0.000470862
0.000470614
0.000470434
0.000470215
0.000470053
0.000469862
0.000469717
0.000469546
0.000469428
0.000469269
0.000469159
0.000469015
0.000468924
0.000468802
0.00046873
0.000468628
0.000468569
0.000468476
0.000468418
0.000468329
0.000468278
0.000468198
0.000468154
0.000468085
0.00046805
0.000467993
0.000467968
0.000467923
0.00046791
0.000467877
0.000467887
0.000467882
0.000467902
0.000467892
0.000467954
0.00046823
0.000480238
0.00050264
0.00117771
0.00102408
0.00093196
0.00085579
0.000793063
0.000742044
0.000700749
0.000667379
0.000640199
0.000617937
0.000599467
0.00058405
0.000571012
0.000559935
0.000550409
0.000542192
0.000535028
0.000528767
0.000523249
0.00051837
0.000514033
0.000510157
0.000506689
0.000503559
0.000500747
0.000498183
0.000495874
0.000493748
0.000491832
0.00049005
0.000488444
0.000486935
0.000485581
0.000484292
0.00048314
0.000482033
0.000481049
0.000480091
0.000479244
0.000478409
0.000477679
0.00047695
0.000476316
0.000475677
0.000475128
0.000474564
0.000474085
0.000473587
0.00047317
0.000472729
0.000472364
0.000471971
0.00047165
0.000471299
0.000471026
0.000470709
0.000470473
0.000470191
0.000469984
0.000469735
0.000469553
0.000469333
0.000469169
0.000468977
0.000468831
0.000468658
0.000468539
0.000468379
0.000468269
0.000468123
0.000468031
0.000467908
0.000467834
0.000467732
0.000467672
0.000467577
0.000467519
0.000467429
0.000467376
0.000467296
0.000467251
0.000467181
0.000467145
0.000467086
0.00046706
0.000467015
0.000467001
0.000466966
0.000466974
0.000466968
0.000466986
0.000466973
0.000467036
0.000467323
0.000479797
0.000501894
0.00116324
0.00102408
0.000931967
0.000855804
0.000793058
0.000741996
0.000700642
0.000667207
0.000639962
0.000617636
0.000599109
0.000583641
0.000570555
0.000559436
0.000549872
0.000541622
0.000534428
0.00052814
0.000522598
0.000517697
0.00051334
0.000509446
0.000505962
0.000502817
0.000499991
0.000497414
0.000495094
0.000492957
0.000491031
0.00048924
0.000487625
0.000486109
0.000484747
0.000483451
0.000482293
0.00048118
0.000480191
0.000479227
0.000478375
0.000477536
0.000476801
0.000476068
0.00047543
0.000474787
0.000474235
0.000473667
0.000473186
0.000472685
0.000472265
0.000471821
0.000471453
0.000471057
0.000470735
0.000470381
0.000470106
0.000469787
0.000469549
0.000469265
0.000469056
0.000468805
0.000468622
0.0004684
0.000468235
0.000468041
0.000467894
0.000467719
0.000467599
0.000467438
0.000467326
0.000467179
0.000467086
0.000466961
0.000466887
0.000466783
0.000466722
0.000466627
0.000466567
0.000466477
0.000466423
0.000466341
0.000466296
0.000466224
0.000466188
0.000466127
0.000466101
0.000466054
0.000466038
0.000466002
0.000466008
0.000466001
0.000466016
0.000466002
0.000466065
0.000466364
0.000479317
0.000501094
0.00114775
0.00102408
0.000931975
0.000855817
0.000793053
0.000741947
0.000700532
0.000667028
0.000639713
0.000617322
0.000598734
0.00058321
0.000570075
0.000558912
0.000549309
0.000541023
0.000533797
0.000527481
0.000521912
0.000516988
0.00051261
0.000508697
0.000505195
0.000502035
0.000499195
0.000496604
0.000494272
0.000492123
0.000490187
0.000488386
0.000486762
0.000485238
0.000483868
0.000482565
0.0004814
0.00048028
0.000479285
0.000478316
0.000477459
0.000476614
0.000475875
0.000475138
0.000474496
0.000473849
0.000473293
0.000472721
0.000472236
0.000471732
0.00047131
0.000470862
0.000470492
0.000470093
0.000469769
0.000469413
0.000469135
0.000468813
0.000468574
0.000468288
0.000468077
0.000467823
0.000467639
0.000467415
0.000467248
0.000467052
0.000466904
0.000466728
0.000466606
0.000466444
0.000466331
0.000466183
0.000466089
0.000465963
0.000465887
0.000465782
0.00046572
0.000465623
0.000465563
0.000465471
0.000465417
0.000465334
0.000465287
0.000465215
0.000465177
0.000465115
0.000465087
0.00046504
0.000465023
0.000464985
0.000464989
0.00046498
0.000464993
0.000464977
0.00046504
0.000465352
0.000478792
0.000500238
0.00113131
0.00102408
0.000931983
0.000855832
0.000793048
0.000741897
0.000700417
0.000666841
0.000639453
0.000616993
0.000598341
0.00058276
0.000569572
0.000558363
0.000548717
0.000540394
0.000533135
0.000526788
0.000521193
0.000516244
0.000511843
0.00050791
0.00050439
0.000501212
0.000498357
0.000495752
0.000493407
0.000491246
0.000489299
0.000487487
0.000485854
0.000484321
0.000482943
0.000481632
0.00048046
0.000479333
0.000478332
0.000477357
0.000476495
0.000475645
0.000474901
0.000474158
0.000473512
0.00047286
0.000472301
0.000471725
0.000471237
0.000470729
0.000470304
0.000469853
0.000469481
0.000469078
0.000468751
0.000468392
0.000468112
0.000467788
0.000467547
0.000467258
0.000467046
0.00046679
0.000466603
0.000466378
0.00046621
0.000466012
0.000465863
0.000465684
0.000465561
0.000465397
0.000465284
0.000465134
0.000465039
0.000464911
0.000464834
0.000464728
0.000464665
0.000464567
0.000464505
0.000464412
0.000464357
0.000464273
0.000464225
0.000464151
0.000464112
0.000464049
0.00046402
0.000463971
0.000463953
0.000463914
0.000463915
0.000463905
0.000463916
0.000463897
0.000463961
0.000464286
0.000478214
0.000499323
0.001114
0.00102407
0.000931991
0.000855847
0.000793044
0.000741845
0.000700298
0.000666647
0.000639183
0.000616651
0.000597931
0.000582289
0.000569047
0.000557788
0.000548098
0.000539736
0.000532441
0.000526062
0.000520438
0.000515463
0.000511039
0.000507084
0.000503545
0.000500349
0.000497478
0.000494858
0.000492499
0.000490326
0.000488367
0.000486544
0.000484901
0.000483358
0.000481971
0.000480652
0.000479473
0.000478339
0.000477331
0.000476349
0.000475481
0.000474626
0.000473877
0.000473129
0.000472478
0.000471822
0.000471259
0.000470679
0.000470187
0.000469676
0.000469247
0.000468793
0.000468417
0.000468012
0.000467682
0.00046732
0.000467038