/*--------------------------------*- C++ -*----------------------------------*\
| =========                 |                                                 |
| \\      /  F ield         | OpenFOAM: The Open Source CFD Toolbox           |
|  \\    /   O peration     | Version:  v2012                                 |
|   \\  /    A nd           | Website:  www.openfoam.com                      |
|    \\/     M anipulation  |                                                 |
\*---------------------------------------------------------------------------*/
FoamFile
{
    version     2.0;
    format      ascii;
    class       volScalarField;
    location    "46.5";
    object      nut;
}
// * * * * * * * * * * * * * * * * * * * * * * * * * * * * * * * * * * * * * //

dimensions      [0 2 -1 0 0 0 0];


internalField   nonuniform List<scalar> 
209825
(
1.23958e-07
1.23117e-07
1.22248e-07
1.21225e-07
1.20118e-07
1.18998e-07
1.17958e-07
1.17007e-07
1.16179e-07
1.15441e-07
1.14811e-07
1.1425e-07
1.13774e-07
1.13344e-07
1.12981e-07
1.12648e-07
1.12368e-07
1.12107e-07
1.11887e-07
1.11679e-07
1.11505e-07
1.11338e-07
1.11198e-07
1.11062e-07
1.10948e-07
1.10837e-07
1.10743e-07
1.1065e-07
1.10573e-07
1.10495e-07
1.1043e-07
1.10365e-07
1.1031e-07
1.10254e-07
1.10208e-07
1.1016e-07
1.1012e-07
1.10079e-07
1.10044e-07
1.10009e-07
1.09979e-07
1.09948e-07
1.09922e-07
1.09896e-07
1.09872e-07
1.09849e-07
1.09829e-07
1.0981e-07
1.09791e-07
1.09775e-07
1.09757e-07
1.09741e-07
1.09723e-07
1.09713e-07
1.09696e-07
1.09688e-07
1.09672e-07
1.09666e-07
1.09652e-07
1.09646e-07
1.09632e-07
1.09624e-07
1.09614e-07
1.09604e-07
1.09594e-07
1.09587e-07
1.09577e-07
1.09568e-07
1.09558e-07
1.0955e-07
1.09542e-07
1.09536e-07
1.0953e-07
1.09526e-07
1.0952e-07
1.09517e-07
1.09512e-07
1.09509e-07
1.09505e-07
1.09502e-07
1.09498e-07
1.09496e-07
1.09494e-07
1.09491e-07
1.09486e-07
1.09483e-07
1.09482e-07
1.09481e-07
1.09481e-07
1.09478e-07
1.09478e-07
1.09472e-07
1.09496e-07
1.10548e-07
1.1339e-07
1.09482e-08
1.23958e-07
1.23117e-07
1.22248e-07
1.21225e-07
1.20118e-07
1.18998e-07
1.17959e-07
1.17007e-07
1.16179e-07
1.15441e-07
1.14812e-07
1.1425e-07
1.13774e-07
1.13345e-07
1.12981e-07
1.12649e-07
1.12368e-07
1.12107e-07
1.11887e-07
1.1168e-07
1.11506e-07
1.11338e-07
1.11198e-07
1.11063e-07
1.10949e-07
1.10837e-07
1.10743e-07
1.10651e-07
1.10573e-07
1.10495e-07
1.10431e-07
1.10365e-07
1.1031e-07
1.10254e-07
1.10208e-07
1.1016e-07
1.1012e-07
1.10079e-07
1.10045e-07
1.1001e-07
1.09979e-07
1.09948e-07
1.09923e-07
1.09896e-07
1.09873e-07
1.0985e-07
1.0983e-07
1.09811e-07
1.09792e-07
1.09775e-07
1.09757e-07
1.09741e-07
1.09723e-07
1.09714e-07
1.09696e-07
1.09688e-07
1.09673e-07
1.09666e-07
1.09653e-07
1.09646e-07
1.09632e-07
1.09624e-07
1.09614e-07
1.09604e-07
1.09594e-07
1.09587e-07
1.09577e-07
1.09569e-07
1.09558e-07
1.0955e-07
1.09542e-07
1.09536e-07
1.0953e-07
1.09526e-07
1.09521e-07
1.09517e-07
1.09512e-07
1.09509e-07
1.09505e-07
1.09502e-07
1.09498e-07
1.09497e-07
1.09494e-07
1.09492e-07
1.09486e-07
1.09484e-07
1.09482e-07
1.09481e-07
1.09481e-07
1.09479e-07
1.09479e-07
1.09472e-07
1.09496e-07
1.10551e-07
1.13391e-07
1.12833e-08
1.23958e-07
1.23117e-07
1.22248e-07
1.21225e-07
1.20119e-07
1.18999e-07
1.17959e-07
1.17008e-07
1.1618e-07
1.15442e-07
1.14812e-07
1.14251e-07
1.13774e-07
1.13345e-07
1.12981e-07
1.12649e-07
1.12368e-07
1.12107e-07
1.11887e-07
1.1168e-07
1.11505e-07
1.11338e-07
1.11198e-07
1.11062e-07
1.10948e-07
1.10836e-07
1.10743e-07
1.1065e-07
1.10573e-07
1.10495e-07
1.1043e-07
1.10364e-07
1.10309e-07
1.10253e-07
1.10207e-07
1.1016e-07
1.1012e-07
1.10078e-07
1.10044e-07
1.10009e-07
1.09978e-07
1.09947e-07
1.09922e-07
1.09895e-07
1.09872e-07
1.09849e-07
1.09829e-07
1.0981e-07
1.09791e-07
1.09774e-07
1.09756e-07
1.0974e-07
1.09722e-07
1.09713e-07
1.09695e-07
1.09687e-07
1.09672e-07
1.09665e-07
1.09652e-07
1.09645e-07
1.09631e-07
1.09623e-07
1.09613e-07
1.09603e-07
1.09593e-07
1.09586e-07
1.09576e-07
1.09568e-07
1.09557e-07
1.09549e-07
1.09541e-07
1.09535e-07
1.09529e-07
1.09525e-07
1.0952e-07
1.09516e-07
1.09511e-07
1.09508e-07
1.09504e-07
1.09501e-07
1.09497e-07
1.09495e-07
1.09493e-07
1.09491e-07
1.09485e-07
1.09483e-07
1.09481e-07
1.0948e-07
1.0948e-07
1.09477e-07
1.09477e-07
1.09471e-07
1.09495e-07
1.10554e-07
1.13392e-07
1.16995e-08
1.23958e-07
1.23117e-07
1.22248e-07
1.21226e-07
1.20119e-07
1.19e-07
1.17961e-07
1.17009e-07
1.16181e-07
1.15443e-07
1.14813e-07
1.14251e-07
1.13775e-07
1.13345e-07
1.12982e-07
1.12649e-07
1.12368e-07
1.12107e-07
1.11887e-07
1.11679e-07
1.11505e-07
1.11338e-07
1.11198e-07
1.11062e-07
1.10948e-07
1.10836e-07
1.10742e-07
1.10649e-07
1.10572e-07
1.10494e-07
1.10429e-07
1.10363e-07
1.10308e-07
1.10253e-07
1.10206e-07
1.10159e-07
1.10119e-07
1.10077e-07
1.10043e-07
1.10008e-07
1.09977e-07
1.09946e-07
1.09921e-07
1.09894e-07
1.09871e-07
1.09848e-07
1.09827e-07
1.09809e-07
1.0979e-07
1.09773e-07
1.09755e-07
1.09739e-07
1.09721e-07
1.09711e-07
1.09694e-07
1.09686e-07
1.0967e-07
1.09664e-07
1.0965e-07
1.09644e-07
1.0963e-07
1.09622e-07
1.09612e-07
1.09602e-07
1.09592e-07
1.09585e-07
1.09575e-07
1.09566e-07
1.09556e-07
1.09548e-07
1.0954e-07
1.09534e-07
1.09528e-07
1.09523e-07
1.09518e-07
1.09515e-07
1.0951e-07
1.09507e-07
1.09502e-07
1.095e-07
1.09496e-07
1.09494e-07
1.09492e-07
1.09489e-07
1.09484e-07
1.09481e-07
1.09479e-07
1.09478e-07
1.09478e-07
1.09476e-07
1.09476e-07
1.09469e-07
1.09494e-07
1.10559e-07
1.13392e-07
1.21623e-08
1.23958e-07
1.23117e-07
1.22249e-07
1.21226e-07
1.20121e-07
1.19001e-07
1.17962e-07
1.17011e-07
1.16183e-07
1.15445e-07
1.14815e-07
1.14253e-07
1.13776e-07
1.13346e-07
1.12983e-07
1.1265e-07
1.12369e-07
1.12107e-07
1.11887e-07
1.1168e-07
1.11505e-07
1.11337e-07
1.11197e-07
1.11061e-07
1.10947e-07
1.10835e-07
1.10742e-07
1.10649e-07
1.10571e-07
1.10493e-07
1.10428e-07
1.10362e-07
1.10308e-07
1.10252e-07
1.10205e-07
1.10158e-07
1.10117e-07
1.10076e-07
1.10042e-07
1.10006e-07
1.09976e-07
1.09945e-07
1.09919e-07
1.09893e-07
1.09869e-07
1.09846e-07
1.09826e-07
1.09807e-07
1.09788e-07
1.09771e-07
1.09753e-07
1.09738e-07
1.0972e-07
1.0971e-07
1.09692e-07
1.09685e-07
1.09669e-07
1.09662e-07
1.09649e-07
1.09642e-07
1.09628e-07
1.0962e-07
1.0961e-07
1.096e-07
1.0959e-07
1.09583e-07
1.09573e-07
1.09565e-07
1.09554e-07
1.09546e-07
1.09538e-07
1.09532e-07
1.09526e-07
1.09522e-07
1.09517e-07
1.09513e-07
1.09508e-07
1.09505e-07
1.09501e-07
1.09498e-07
1.09494e-07
1.09492e-07
1.0949e-07
1.09487e-07
1.09482e-07
1.09479e-07
1.09477e-07
1.09476e-07
1.09477e-07
1.09474e-07
1.09474e-07
1.09468e-07
1.09492e-07
1.10566e-07
1.13393e-07
1.26644e-08
1.23958e-07
1.23117e-07
1.22249e-07
1.21227e-07
1.20122e-07
1.19004e-07
1.17965e-07
1.17013e-07
1.16185e-07
1.15447e-07
1.14817e-07
1.14255e-07
1.13778e-07
1.13348e-07
1.12984e-07
1.12651e-07
1.12369e-07
1.12108e-07
1.11888e-07
1.1168e-07
1.11505e-07
1.11337e-07
1.11197e-07
1.11061e-07
1.10947e-07
1.10835e-07
1.10741e-07
1.10648e-07
1.10571e-07
1.10492e-07
1.10427e-07
1.10361e-07
1.10307e-07
1.1025e-07
1.10204e-07
1.10156e-07
1.10116e-07
1.10075e-07
1.1004e-07
1.10005e-07
1.09974e-07
1.09944e-07
1.09918e-07
1.09891e-07
1.09868e-07
1.09845e-07
1.09824e-07
1.09806e-07
1.09786e-07
1.0977e-07
1.09752e-07
1.09736e-07
1.09718e-07
1.09708e-07
1.09691e-07
1.09683e-07
1.09667e-07
1.0966e-07
1.09647e-07
1.0964e-07
1.09627e-07
1.09618e-07
1.09608e-07
1.09598e-07
1.09588e-07
1.09582e-07
1.09572e-07
1.09563e-07
1.09552e-07
1.09544e-07
1.09536e-07
1.0953e-07
1.09524e-07
1.0952e-07
1.09515e-07
1.09511e-07
1.09506e-07
1.09503e-07
1.09499e-07
1.09496e-07
1.09492e-07
1.0949e-07
1.09488e-07
1.09485e-07
1.0948e-07
1.09477e-07
1.09475e-07
1.09474e-07
1.09474e-07
1.09472e-07
1.09472e-07
1.09465e-07
1.0949e-07
1.10576e-07
1.13395e-07
1.32047e-08
1.23958e-07
1.23117e-07
1.22249e-07
1.21228e-07
1.20124e-07
1.19006e-07
1.17968e-07
1.17016e-07
1.16188e-07
1.1545e-07
1.14819e-07
1.14257e-07
1.1378e-07
1.13349e-07
1.12985e-07
1.12652e-07
1.1237e-07
1.12109e-07
1.11888e-07
1.1168e-07
1.11505e-07
1.11338e-07
1.11197e-07
1.11061e-07
1.10947e-07
1.10834e-07
1.1074e-07
1.10647e-07
1.1057e-07
1.10491e-07
1.10426e-07
1.1036e-07
1.10305e-07
1.10249e-07
1.10203e-07
1.10155e-07
1.10115e-07
1.10073e-07
1.10039e-07
1.10004e-07
1.09973e-07
1.09942e-07
1.09916e-07
1.0989e-07
1.09866e-07
1.09843e-07
1.09823e-07
1.09804e-07
1.09785e-07
1.09768e-07
1.0975e-07
1.09734e-07
1.09716e-07
1.09706e-07
1.09689e-07
1.09681e-07
1.09665e-07
1.09658e-07
1.09645e-07
1.09638e-07
1.09625e-07
1.09616e-07
1.09606e-07
1.09596e-07
1.09586e-07
1.09579e-07
1.09569e-07
1.09561e-07
1.0955e-07
1.09542e-07
1.09534e-07
1.09528e-07
1.09522e-07
1.09518e-07
1.09512e-07
1.09509e-07
1.09504e-07
1.09501e-07
1.09496e-07
1.09494e-07
1.0949e-07
1.09488e-07
1.09485e-07
1.09483e-07
1.09478e-07
1.09475e-07
1.09473e-07
1.09472e-07
1.09472e-07
1.09469e-07
1.09469e-07
1.09463e-07
1.09488e-07
1.10588e-07
1.13397e-07
1.37832e-08
1.23958e-07
1.23117e-07
1.2225e-07
1.2123e-07
1.20127e-07
1.19009e-07
1.17971e-07
1.1702e-07
1.16192e-07
1.15453e-07
1.14823e-07
1.1426e-07
1.13783e-07
1.13352e-07
1.12987e-07
1.12654e-07
1.12372e-07
1.1211e-07
1.11889e-07
1.11681e-07
1.11506e-07
1.11338e-07
1.11197e-07
1.11061e-07
1.10946e-07
1.10834e-07
1.1074e-07
1.10647e-07
1.10569e-07
1.1049e-07
1.10425e-07
1.10359e-07
1.10304e-07
1.10248e-07
1.10202e-07
1.10154e-07
1.10113e-07
1.10072e-07
1.10037e-07
1.10002e-07
1.09971e-07
1.0994e-07
1.09914e-07
1.09888e-07
1.09864e-07
1.09841e-07
1.09821e-07
1.09802e-07
1.09783e-07
1.09766e-07
1.09748e-07
1.09732e-07
1.09714e-07
1.09704e-07
1.09687e-07
1.09679e-07
1.09663e-07
1.09656e-07
1.09643e-07
1.09636e-07
1.09622e-07
1.09614e-07
1.09604e-07
1.09594e-07
1.09584e-07
1.09577e-07
1.09567e-07
1.09558e-07
1.09548e-07
1.0954e-07
1.09531e-07
1.09526e-07
1.09519e-07
1.09515e-07
1.0951e-07
1.09507e-07
1.09502e-07
1.09498e-07
1.09494e-07
1.09491e-07
1.09487e-07
1.09485e-07
1.09483e-07
1.0948e-07
1.09476e-07
1.09473e-07
1.0947e-07
1.09469e-07
1.09469e-07
1.09467e-07
1.09467e-07
1.0946e-07
1.09486e-07
1.10603e-07
1.13399e-07
1.44009e-08
1.23958e-07
1.23116e-07
1.2225e-07
1.21232e-07
1.2013e-07
1.19013e-07
1.17976e-07
1.17025e-07
1.16196e-07
1.15457e-07
1.14826e-07
1.14263e-07
1.13786e-07
1.13354e-07
1.1299e-07
1.12656e-07
1.12374e-07
1.12111e-07
1.1189e-07
1.11682e-07
1.11506e-07
1.11338e-07
1.11197e-07
1.11061e-07
1.10946e-07
1.10834e-07
1.10739e-07
1.10646e-07
1.10568e-07
1.10489e-07
1.10424e-07
1.10358e-07
1.10303e-07
1.10247e-07
1.102e-07
1.10152e-07
1.10112e-07
1.1007e-07
1.10035e-07
1.1e-07
1.09969e-07
1.09938e-07
1.09912e-07
1.09886e-07
1.09862e-07
1.09839e-07
1.09819e-07
1.098e-07
1.0978e-07
1.09764e-07
1.09745e-07
1.0973e-07
1.09712e-07
1.09702e-07
1.09684e-07
1.09676e-07
1.0966e-07
1.09654e-07
1.0964e-07
1.09634e-07
1.0962e-07
1.09611e-07
1.09601e-07
1.09591e-07
1.09581e-07
1.09574e-07
1.09564e-07
1.09556e-07
1.09545e-07
1.09537e-07
1.09529e-07
1.09523e-07
1.09517e-07
1.09512e-07
1.09507e-07
1.09504e-07
1.09499e-07
1.09496e-07
1.09491e-07
1.09488e-07
1.09484e-07
1.09482e-07
1.0948e-07
1.09477e-07
1.09473e-07
1.0947e-07
1.09467e-07
1.09466e-07
1.09466e-07
1.09464e-07
1.09464e-07
1.09457e-07
1.09483e-07
1.10621e-07
1.13402e-07
1.50581e-08
1.23958e-07
1.23116e-07
1.2225e-07
1.21233e-07
1.20133e-07
1.19017e-07
1.17981e-07
1.1703e-07
1.16201e-07
1.15462e-07
1.14831e-07
1.14267e-07
1.13789e-07
1.13358e-07
1.12993e-07
1.12658e-07
1.12376e-07
1.12113e-07
1.11892e-07
1.11683e-07
1.11507e-07
1.11339e-07
1.11198e-07
1.11061e-07
1.10946e-07
1.10833e-07
1.10739e-07
1.10645e-07
1.10567e-07
1.10489e-07
1.10423e-07
1.10357e-07
1.10302e-07
1.10245e-07
1.10199e-07
1.10151e-07
1.1011e-07
1.10069e-07
1.10034e-07
1.09998e-07
1.09967e-07
1.09936e-07
1.0991e-07
1.09884e-07
1.0986e-07
1.09837e-07
1.09816e-07
1.09797e-07
1.09778e-07
1.09761e-07
1.09743e-07
1.09727e-07
1.09709e-07
1.09699e-07
1.09681e-07
1.09673e-07
1.09657e-07
1.09651e-07
1.09637e-07
1.09631e-07
1.09617e-07
1.09609e-07
1.09598e-07
1.09588e-07
1.09578e-07
1.09571e-07
1.09561e-07
1.09553e-07
1.09542e-07
1.09534e-07
1.09526e-07
1.0952e-07
1.09514e-07
1.09509e-07
1.09504e-07
1.09501e-07
1.09496e-07
1.09492e-07
1.09488e-07
1.09485e-07
1.09481e-07
1.09479e-07
1.09477e-07
1.09474e-07
1.0947e-07
1.09467e-07
1.09464e-07
1.09463e-07
1.09463e-07
1.0946e-07
1.0946e-07
1.09454e-07
1.0948e-07
1.10642e-07
1.13406e-07
1.57549e-08
1.23958e-07
1.23116e-07
1.22251e-07
1.21235e-07
1.20137e-07
1.19022e-07
1.17986e-07
1.17036e-07
1.16207e-07
1.15467e-07
1.14836e-07
1.14272e-07
1.13794e-07
1.13361e-07
1.12996e-07
1.12661e-07
1.12378e-07
1.12115e-07
1.11894e-07
1.11684e-07
1.11508e-07
1.11339e-07
1.11198e-07
1.11061e-07
1.10946e-07
1.10833e-07
1.10739e-07
1.10645e-07
1.10567e-07
1.10488e-07
1.10422e-07
1.10356e-07
1.103e-07
1.10244e-07
1.10197e-07
1.10149e-07
1.10108e-07
1.10067e-07
1.10032e-07
1.09996e-07
1.09965e-07
1.09934e-07
1.09908e-07
1.09881e-07
1.09857e-07
1.09834e-07
1.09814e-07
1.09795e-07
1.09775e-07
1.09758e-07
1.0974e-07
1.09724e-07
1.09706e-07
1.09696e-07
1.09679e-07
1.09671e-07
1.09655e-07
1.09648e-07
1.09634e-07
1.09628e-07
1.09614e-07
1.09606e-07
1.09595e-07
1.09585e-07
1.09575e-07
1.09568e-07
1.09558e-07
1.0955e-07
1.09539e-07
1.09531e-07
1.09523e-07
1.09517e-07
1.0951e-07
1.09506e-07
1.09501e-07
1.09497e-07
1.09492e-07
1.09489e-07
1.09484e-07
1.09482e-07
1.09478e-07
1.09476e-07
1.09473e-07
1.09471e-07
1.09466e-07
1.09463e-07
1.0946e-07
1.09459e-07
1.09459e-07
1.09456e-07
1.09456e-07
1.0945e-07
1.09477e-07
1.10666e-07
1.13409e-07
1.64906e-08
1.23958e-07
1.23115e-07
1.22251e-07
1.21238e-07
1.20141e-07
1.19028e-07
1.17992e-07
1.17042e-07
1.16213e-07
1.15474e-07
1.14842e-07
1.14277e-07
1.13798e-07
1.13366e-07
1.13e-07
1.12664e-07
1.12381e-07
1.12117e-07
1.11896e-07
1.11686e-07
1.1151e-07
1.1134e-07
1.11199e-07
1.11061e-07
1.10946e-07
1.10833e-07
1.10738e-07
1.10644e-07
1.10566e-07
1.10487e-07
1.10421e-07
1.10355e-07
1.10299e-07
1.10242e-07
1.10195e-07
1.10147e-07
1.10106e-07
1.10065e-07
1.1003e-07
1.09994e-07
1.09963e-07
1.09932e-07
1.09906e-07
1.09879e-07
1.09855e-07
1.09832e-07
1.09811e-07
1.09792e-07
1.09772e-07
1.09756e-07
1.09737e-07
1.09722e-07
1.09703e-07
1.09693e-07
1.09675e-07
1.09667e-07
1.09651e-07
1.09645e-07
1.09631e-07
1.09624e-07
1.09611e-07
1.09602e-07
1.09592e-07
1.09582e-07
1.09572e-07
1.09565e-07
1.09555e-07
1.09546e-07
1.09536e-07
1.09528e-07
1.09519e-07
1.09513e-07
1.09507e-07
1.09502e-07
1.09497e-07
1.09494e-07
1.09489e-07
1.09485e-07
1.09481e-07
1.09478e-07
1.09474e-07
1.09472e-07
1.09469e-07
1.09467e-07
1.09463e-07
1.09459e-07
1.09457e-07
1.09455e-07
1.09455e-07
1.09452e-07
1.09452e-07
1.09447e-07
1.09474e-07
1.10694e-07
1.13412e-07
1.72644e-08
1.23957e-07
1.23115e-07
1.22252e-07
1.2124e-07
1.20145e-07
1.19034e-07
1.17999e-07
1.17049e-07
1.1622e-07
1.1548e-07
1.14848e-07
1.14283e-07
1.13804e-07
1.1337e-07
1.13004e-07
1.12668e-07
1.12384e-07
1.1212e-07
1.11898e-07
1.11688e-07
1.11511e-07
1.11341e-07
1.112e-07
1.11062e-07
1.10946e-07
1.10833e-07
1.10738e-07
1.10644e-07
1.10565e-07
1.10486e-07
1.1042e-07
1.10353e-07
1.10298e-07
1.10241e-07
1.10194e-07
1.10145e-07
1.10104e-07
1.10063e-07
1.10027e-07
1.09992e-07
1.09961e-07
1.09929e-07
1.09903e-07
1.09876e-07
1.09852e-07
1.09829e-07
1.09808e-07
1.09789e-07
1.09769e-07
1.09753e-07
1.09734e-07
1.09718e-07
1.097e-07
1.0969e-07
1.09672e-07
1.09664e-07
1.09648e-07
1.09641e-07
1.09628e-07
1.09621e-07
1.09607e-07
1.09599e-07
1.09588e-07
1.09578e-07
1.09568e-07
1.09561e-07
1.09551e-07
1.09543e-07
1.09532e-07
1.09524e-07
1.09515e-07
1.09509e-07
1.09503e-07
1.09499e-07
1.09493e-07
1.0949e-07
1.09485e-07
1.09481e-07
1.09477e-07
1.09474e-07
1.0947e-07
1.09468e-07
1.09465e-07
1.09463e-07
1.09459e-07
1.09455e-07
1.09452e-07
1.09451e-07
1.09451e-07
1.09448e-07
1.09448e-07
1.09442e-07
1.0947e-07
1.10726e-07
1.13416e-07
1.80787e-08
1.23957e-07
1.23114e-07
1.22253e-07
1.21243e-07
1.2015e-07
1.1904e-07
1.18007e-07
1.17057e-07
1.16228e-07
1.15488e-07
1.14855e-07
1.1429e-07
1.13809e-07
1.13376e-07
1.13009e-07
1.12672e-07
1.12388e-07
1.12123e-07
1.119e-07
1.1169e-07
1.11513e-07
1.11343e-07
1.11201e-07
1.11062e-07
1.10947e-07
1.10833e-07
1.10738e-07
1.10643e-07
1.10564e-07
1.10485e-07
1.10419e-07
1.10352e-07
1.10296e-07
1.10239e-07
1.10192e-07
1.10143e-07
1.10102e-07
1.1006e-07
1.10025e-07
1.09989e-07
1.09958e-07
1.09927e-07
1.099e-07
1.09873e-07
1.09849e-07
1.09826e-07
1.09805e-07
1.09786e-07
1.09766e-07
1.09749e-07
1.09731e-07
1.09715e-07
1.09696e-07
1.09686e-07
1.09669e-07
1.0966e-07
1.09644e-07
1.09637e-07
1.09624e-07
1.09617e-07
1.09603e-07
1.09595e-07
1.09585e-07
1.09574e-07
1.09564e-07
1.09557e-07
1.09547e-07
1.09539e-07
1.09528e-07
1.0952e-07
1.09511e-07
1.09505e-07
1.09499e-07
1.09494e-07
1.09489e-07
1.09485e-07
1.0948e-07
1.09477e-07
1.09472e-07
1.09469e-07
1.09466e-07
1.09463e-07
1.09461e-07
1.09458e-07
1.09454e-07
1.09451e-07
1.09448e-07
1.09446e-07
1.09446e-07
1.09443e-07
1.09443e-07
1.09438e-07
1.09466e-07
1.10761e-07
1.13418e-07
1.89361e-08
1.23957e-07
1.23114e-07
1.22253e-07
1.21246e-07
1.20156e-07
1.19048e-07
1.18015e-07
1.17066e-07
1.16237e-07
1.15496e-07
1.14863e-07
1.14297e-07
1.13816e-07
1.13381e-07
1.13014e-07
1.12676e-07
1.12392e-07
1.12127e-07
1.11903e-07
1.11692e-07
1.11515e-07
1.11344e-07
1.11202e-07
1.11063e-07
1.10947e-07
1.10833e-07
1.10737e-07
1.10643e-07
1.10564e-07
1.10484e-07
1.10418e-07
1.10351e-07
1.10294e-07
1.10237e-07
1.1019e-07
1.10141e-07
1.101e-07
1.10058e-07
1.10022e-07
1.09987e-07
1.09955e-07
1.09924e-07
1.09897e-07
1.0987e-07
1.09846e-07
1.09823e-07
1.09802e-07
1.09782e-07
1.09763e-07
1.09746e-07
1.09727e-07
1.09711e-07
1.09693e-07
1.09683e-07
1.09665e-07
1.09657e-07
1.0964e-07
1.09633e-07
1.0962e-07
1.09613e-07
1.09599e-07
1.09591e-07
1.0958e-07
1.0957e-07
1.0956e-07
1.09553e-07
1.09543e-07
1.09534e-07
1.09524e-07
1.09516e-07
1.09507e-07
1.09501e-07
1.09494e-07
1.0949e-07
1.09484e-07
1.09481e-07
1.09476e-07
1.09472e-07
1.09468e-07
1.09465e-07
1.09461e-07
1.09459e-07
1.09456e-07
1.09453e-07
1.0945e-07
1.09446e-07
1.09443e-07
1.09441e-07
1.09441e-07
1.09439e-07
1.09438e-07
1.09433e-07
1.09462e-07
1.108e-07
1.13421e-07
1.98392e-08
1.23957e-07
1.23113e-07
1.22254e-07
1.21249e-07
1.20162e-07
1.19055e-07
1.18024e-07
1.17075e-07
1.16246e-07
1.15505e-07
1.14871e-07
1.14304e-07
1.13823e-07
1.13388e-07
1.13019e-07
1.12681e-07
1.12396e-07
1.1213e-07
1.11906e-07
1.11695e-07
1.11517e-07
1.11346e-07
1.11203e-07
1.11064e-07
1.10948e-07
1.10833e-07
1.10737e-07
1.10642e-07
1.10563e-07
1.10483e-07
1.10417e-07
1.10349e-07
1.10293e-07
1.10235e-07
1.10188e-07
1.10139e-07
1.10098e-07
1.10055e-07
1.1002e-07
1.09984e-07
1.09952e-07
1.09921e-07
1.09894e-07
1.09867e-07
1.09843e-07
1.09819e-07
1.09798e-07
1.09779e-07
1.09759e-07
1.09742e-07
1.09723e-07
1.09708e-07
1.09689e-07
1.09679e-07
1.09661e-07
1.09652e-07
1.09636e-07
1.09629e-07
1.09616e-07
1.09609e-07
1.09595e-07
1.09586e-07
1.09576e-07
1.09566e-07
1.09556e-07
1.09549e-07
1.09538e-07
1.0953e-07
1.09519e-07
1.09511e-07
1.09502e-07
1.09496e-07
1.0949e-07
1.09485e-07
1.0948e-07
1.09476e-07
1.09471e-07
1.09468e-07
1.09463e-07
1.0946e-07
1.09456e-07
1.09454e-07
1.09451e-07
1.09448e-07
1.09445e-07
1.09441e-07
1.09438e-07
1.09436e-07
1.09436e-07
1.09433e-07
1.09432e-07
1.09428e-07
1.09458e-07
1.10844e-07
1.13421e-07
2.0791e-08
1.23957e-07
1.23112e-07
1.22255e-07
1.21253e-07
1.20168e-07
1.19064e-07
1.18034e-07
1.17085e-07
1.16256e-07
1.15515e-07
1.14881e-07
1.14313e-07
1.13831e-07
1.13395e-07
1.13026e-07
1.12687e-07
1.12401e-07
1.12134e-07
1.1191e-07
1.11698e-07
1.11519e-07
1.11348e-07
1.11205e-07
1.11065e-07
1.10948e-07
1.10833e-07
1.10737e-07
1.10642e-07
1.10562e-07
1.10482e-07
1.10415e-07
1.10348e-07
1.10291e-07
1.10234e-07
1.10186e-07
1.10137e-07
1.10095e-07
1.10053e-07
1.10017e-07
1.09981e-07
1.09949e-07
1.09918e-07
1.09891e-07
1.09864e-07
1.09839e-07
1.09816e-07
1.09794e-07
1.09775e-07
1.09755e-07
1.09738e-07
1.09719e-07
1.09703e-07
1.09685e-07
1.09674e-07
1.09656e-07
1.09648e-07
1.09632e-07
1.09625e-07
1.09611e-07
1.09604e-07
1.0959e-07
1.09582e-07
1.09571e-07
1.09561e-07
1.09551e-07
1.09544e-07
1.09534e-07
1.09525e-07
1.09514e-07
1.09506e-07
1.09497e-07
1.09491e-07
1.09485e-07
1.0948e-07
1.09475e-07
1.09471e-07
1.09466e-07
1.09462e-07
1.09458e-07
1.09455e-07
1.0945e-07
1.09448e-07
1.09445e-07
1.09443e-07
1.09439e-07
1.09436e-07
1.09432e-07
1.09431e-07
1.0943e-07
1.09428e-07
1.09426e-07
1.09422e-07
1.09453e-07
1.10892e-07
1.12312e-07
2.17945e-08
1.23956e-07
1.23112e-07
1.22255e-07
1.21256e-07
1.20174e-07
1.19073e-07
1.18044e-07
1.17096e-07
1.16267e-07
1.15525e-07
1.14891e-07
1.14322e-07
1.13839e-07
1.13402e-07
1.13032e-07
1.12693e-07
1.12406e-07
1.12139e-07
1.11914e-07
1.11701e-07
1.11522e-07
1.1135e-07
1.11206e-07
1.11066e-07
1.10949e-07
1.10834e-07
1.10737e-07
1.10642e-07
1.10562e-07
1.10481e-07
1.10414e-07
1.10346e-07
1.10289e-07
1.10232e-07
1.10184e-07
1.10134e-07
1.10093e-07
1.1005e-07
1.10014e-07
1.09978e-07
1.09946e-07
1.09914e-07
1.09888e-07
1.0986e-07
1.09836e-07
1.09812e-07
1.09791e-07
1.09771e-07
1.09751e-07
1.09734e-07
1.09715e-07
1.09699e-07
1.0968e-07
1.0967e-07
1.09652e-07
1.09643e-07
1.09627e-07
1.0962e-07
1.09606e-07
1.09599e-07
1.09585e-07
1.09577e-07
1.09566e-07
1.09556e-07
1.09546e-07
1.09539e-07
1.09529e-07
1.0952e-07
1.09509e-07
1.09501e-07
1.09492e-07
1.09486e-07
1.09479e-07
1.09475e-07
1.09469e-07
1.09465e-07
1.0946e-07
1.09457e-07
1.09452e-07
1.09449e-07
1.09445e-07
1.09442e-07
1.09439e-07
1.09437e-07
1.09433e-07
1.0943e-07
1.09426e-07
1.09425e-07
1.09424e-07
1.09422e-07
1.0942e-07
1.09416e-07
1.09449e-07
1.10943e-07
1.05979e-07
2.2853e-08
1.23956e-07
1.23111e-07
1.22256e-07
1.2126e-07
1.20181e-07
1.19082e-07
1.18055e-07
1.17108e-07
1.16279e-07
1.15537e-07
1.14901e-07
1.14332e-07
1.13848e-07
1.1341e-07
1.1304e-07
1.12699e-07
1.12412e-07
1.12144e-07
1.11918e-07
1.11705e-07
1.11525e-07
1.11353e-07
1.11208e-07
1.11068e-07
1.1095e-07
1.10834e-07
1.10738e-07
1.10641e-07
1.10561e-07
1.1048e-07
1.10413e-07
1.10345e-07
1.10288e-07
1.1023e-07
1.10181e-07
1.10132e-07
1.1009e-07
1.10047e-07
1.10011e-07
1.09975e-07
1.09943e-07
1.09911e-07
1.09884e-07
1.09856e-07
1.09832e-07
1.09808e-07
1.09786e-07
1.09767e-07
1.09747e-07
1.09729e-07
1.09711e-07
1.09695e-07
1.09676e-07
1.09665e-07
1.09647e-07
1.09639e-07
1.09622e-07
1.09615e-07
1.09601e-07
1.09594e-07
1.0958e-07
1.09571e-07
1.09561e-07
1.09551e-07
1.0954e-07
1.09533e-07
1.09523e-07
1.09514e-07
1.09504e-07
1.09496e-07
1.09487e-07
1.09481e-07
1.09474e-07
1.09469e-07
1.09463e-07
1.0946e-07
1.09454e-07
1.09451e-07
1.09446e-07
1.09443e-07
1.09439e-07
1.09436e-07
1.09433e-07
1.09431e-07
1.09427e-07
1.09424e-07
1.0942e-07
1.09419e-07
1.09418e-07
1.09415e-07
1.09414e-07
1.0941e-07
1.09444e-07
1.11e-07
1.00325e-07
2.39697e-08
1.23956e-07
1.2311e-07
1.22257e-07
1.21264e-07
1.20189e-07
1.19092e-07
1.18067e-07
1.1712e-07
1.16291e-07
1.15549e-07
1.14913e-07
1.14343e-07
1.13858e-07
1.13419e-07
1.13048e-07
1.12706e-07
1.12418e-07
1.12149e-07
1.11923e-07
1.11708e-07
1.11528e-07
1.11355e-07
1.1121e-07
1.11069e-07
1.10951e-07
1.10835e-07
1.10738e-07
1.10641e-07
1.10561e-07
1.10479e-07
1.10412e-07
1.10343e-07
1.10286e-07
1.10228e-07
1.10179e-07
1.10129e-07
1.10088e-07
1.10044e-07
1.10008e-07
1.09971e-07
1.09939e-07
1.09907e-07
1.0988e-07
1.09852e-07
1.09828e-07
1.09804e-07
1.09782e-07
1.09762e-07
1.09742e-07
1.09725e-07
1.09706e-07
1.0969e-07
1.09671e-07
1.0966e-07
1.09642e-07
1.09633e-07
1.09617e-07
1.09609e-07
1.09596e-07
1.09589e-07
1.09575e-07
1.09566e-07
1.09555e-07
1.09545e-07
1.09535e-07
1.09528e-07
1.09517e-07
1.09509e-07
1.09498e-07
1.0949e-07
1.09481e-07
1.09475e-07
1.09468e-07
1.09463e-07
1.09457e-07
1.09454e-07
1.09448e-07
1.09445e-07
1.0944e-07
1.09437e-07
1.09432e-07
1.0943e-07
1.09427e-07
1.09424e-07
1.09421e-07
1.09418e-07
1.09414e-07
1.09412e-07
1.09411e-07
1.09409e-07
1.09407e-07
1.09403e-07
1.09438e-07
1.1106e-07
9.52782e-08
2.5148e-08
1.23956e-07
1.23109e-07
1.22258e-07
1.21268e-07
1.20197e-07
1.19103e-07
1.18079e-07
1.17133e-07
1.16305e-07
1.15562e-07
1.14925e-07
1.14354e-07
1.13868e-07
1.13429e-07
1.13056e-07
1.12714e-07
1.12425e-07
1.12155e-07
1.11928e-07
1.11713e-07
1.11532e-07
1.11358e-07
1.11213e-07
1.11071e-07
1.10953e-07
1.10836e-07
1.10738e-07
1.10641e-07
1.1056e-07
1.10478e-07
1.10411e-07
1.10342e-07
1.10284e-07
1.10225e-07
1.10177e-07
1.10127e-07
1.10085e-07
1.10041e-07
1.10005e-07
1.09968e-07
1.09936e-07
1.09903e-07
1.09876e-07
1.09848e-07
1.09823e-07
1.09799e-07
1.09778e-07
1.09758e-07
1.09737e-07
1.0972e-07
1.09701e-07
1.09685e-07
1.09666e-07
1.09655e-07
1.09637e-07
1.09628e-07
1.09611e-07
1.09604e-07
1.0959e-07
1.09583e-07
1.09569e-07
1.0956e-07
1.0955e-07
1.0954e-07
1.09529e-07
1.09522e-07
1.09511e-07
1.09503e-07
1.09492e-07
1.09484e-07
1.09475e-07
1.09469e-07
1.09462e-07
1.09457e-07
1.09451e-07
1.09447e-07
1.09442e-07
1.09438e-07
1.09433e-07
1.0943e-07
1.09426e-07
1.09423e-07
1.0942e-07
1.09417e-07
1.09414e-07
1.09411e-07
1.09407e-07
1.09405e-07
1.09404e-07
1.09401e-07
1.09399e-07
1.09396e-07
1.09433e-07
1.11125e-07
9.07669e-08
2.63913e-08
1.23955e-07
1.23108e-07
1.22259e-07
1.21273e-07
1.20205e-07
1.19114e-07
1.18092e-07
1.17147e-07
1.16319e-07
1.15575e-07
1.14938e-07
1.14366e-07
1.1388e-07
1.13439e-07
1.13065e-07
1.12722e-07
1.12432e-07
1.12161e-07
1.11933e-07
1.11717e-07
1.11536e-07
1.11361e-07
1.11215e-07
1.11073e-07
1.10954e-07
1.10837e-07
1.10739e-07
1.10641e-07
1.1056e-07
1.10477e-07
1.10409e-07
1.1034e-07
1.10282e-07
1.10223e-07
1.10174e-07
1.10124e-07
1.10082e-07
1.10038e-07
1.10002e-07
1.09964e-07
1.09932e-07
1.09899e-07
1.09872e-07
1.09844e-07
1.09819e-07
1.09795e-07
1.09773e-07
1.09753e-07
1.09732e-07
1.09715e-07
1.09696e-07
1.0968e-07
1.0966e-07
1.09649e-07
1.09631e-07
1.09622e-07
1.09606e-07
1.09598e-07
1.09584e-07
1.09577e-07
1.09563e-07
1.09554e-07
1.09543e-07
1.09533e-07
1.09523e-07
1.09515e-07
1.09505e-07
1.09496e-07
1.09486e-07
1.09478e-07
1.09468e-07
1.09462e-07
1.09455e-07
1.0945e-07
1.09444e-07
1.0944e-07
1.09435e-07
1.09431e-07
1.09426e-07
1.09423e-07
1.09419e-07
1.09416e-07
1.09413e-07
1.0941e-07
1.09407e-07
1.09404e-07
1.094e-07
1.09398e-07
1.09397e-07
1.09394e-07
1.09392e-07
1.09389e-07
1.09427e-07
1.11194e-07
8.67318e-08
2.77029e-08
1.23955e-07
1.23108e-07
1.22259e-07
1.21277e-07
1.20214e-07
1.19126e-07
1.18106e-07
1.17162e-07
1.16334e-07
1.1559e-07
1.14952e-07
1.14379e-07
1.13892e-07
1.1345e-07
1.13075e-07
1.12731e-07
1.1244e-07
1.12168e-07
1.11939e-07
1.11722e-07
1.1154e-07
1.11365e-07
1.11218e-07
1.11075e-07
1.10956e-07
1.10838e-07
1.10739e-07
1.10641e-07
1.10559e-07
1.10477e-07
1.10408e-07
1.10339e-07
1.1028e-07
1.10221e-07
1.10172e-07
1.10121e-07
1.10079e-07
1.10035e-07
1.09998e-07
1.09961e-07
1.09928e-07
1.09895e-07
1.09868e-07
1.09839e-07
1.09814e-07
1.0979e-07
1.09768e-07
1.09748e-07
1.09727e-07
1.0971e-07
1.0969e-07
1.09674e-07
1.09655e-07
1.09644e-07
1.09625e-07
1.09616e-07
1.096e-07
1.09592e-07
1.09578e-07
1.0957e-07
1.09557e-07
1.09548e-07
1.09537e-07
1.09527e-07
1.09516e-07
1.09509e-07
1.09498e-07
1.0949e-07
1.09479e-07
1.09471e-07
1.09462e-07
1.09455e-07
1.09448e-07
1.09443e-07
1.09437e-07
1.09433e-07
1.09428e-07
1.09424e-07
1.09419e-07
1.09416e-07
1.09411e-07
1.09409e-07
1.09405e-07
1.09403e-07
1.09399e-07
1.09396e-07
1.09392e-07
1.0939e-07
1.09389e-07
1.09386e-07
1.09384e-07
1.09381e-07
1.09421e-07
1.11265e-07
8.31219e-08
2.90859e-08
1.23955e-07
1.23107e-07
1.2226e-07
1.21282e-07
1.20223e-07
1.19138e-07
1.18121e-07
1.17178e-07
1.1635e-07
1.15605e-07
1.14966e-07
1.14392e-07
1.13904e-07
1.13461e-07
1.13085e-07
1.1274e-07
1.12448e-07
1.12175e-07
1.11946e-07
1.11728e-07
1.11545e-07
1.11369e-07
1.11221e-07
1.11077e-07
1.10957e-07
1.10839e-07
1.1074e-07
1.10641e-07
1.10559e-07
1.10476e-07
1.10407e-07
1.10337e-07
1.10279e-07
1.10219e-07
1.10169e-07
1.10119e-07
1.10076e-07
1.10032e-07
1.09994e-07
1.09957e-07
1.09924e-07
1.09891e-07
1.09863e-07
1.09835e-07
1.09809e-07
1.09785e-07
1.09763e-07
1.09742e-07
1.09722e-07
1.09704e-07
1.09685e-07
1.09668e-07
1.09649e-07
1.09638e-07
1.09619e-07
1.0961e-07
1.09593e-07
1.09585e-07
1.09571e-07
1.09564e-07
1.0955e-07
1.09541e-07
1.0953e-07
1.0952e-07
1.09509e-07
1.09502e-07
1.09492e-07
1.09483e-07
1.09472e-07
1.09464e-07
1.09455e-07
1.09448e-07
1.09441e-07
1.09436e-07
1.0943e-07
1.09426e-07
1.0942e-07
1.09417e-07
1.09411e-07
1.09408e-07
1.09404e-07
1.09401e-07
1.09397e-07
1.09395e-07
1.09391e-07
1.09389e-07
1.09385e-07
1.09382e-07
1.09381e-07
1.09378e-07
1.09375e-07
1.09373e-07
1.09414e-07
1.11338e-07
7.98935e-08
3.05428e-08
1.23955e-07
1.23105e-07
1.22261e-07
1.21287e-07
1.20232e-07
1.19151e-07
1.18136e-07
1.17194e-07
1.16366e-07
1.15621e-07
1.14982e-07
1.14407e-07
1.13918e-07
1.13473e-07
1.13097e-07
1.1275e-07
1.12457e-07
1.12183e-07
1.11952e-07
1.11733e-07
1.1155e-07
1.11373e-07
1.11225e-07
1.1108e-07
1.10959e-07
1.1084e-07
1.10741e-07
1.10641e-07
1.10559e-07
1.10475e-07
1.10406e-07
1.10335e-07
1.10277e-07
1.10217e-07
1.10167e-07
1.10116e-07
1.10072e-07
1.10028e-07
1.09991e-07
1.09953e-07
1.0992e-07
1.09887e-07
1.09859e-07
1.0983e-07
1.09804e-07
1.0978e-07
1.09757e-07
1.09737e-07
1.09716e-07
1.09698e-07
1.09679e-07
1.09662e-07
1.09643e-07
1.09631e-07
1.09613e-07
1.09604e-07
1.09587e-07
1.09579e-07
1.09565e-07
1.09557e-07
1.09543e-07
1.09534e-07
1.09523e-07
1.09513e-07
1.09502e-07
1.09494e-07
1.09484e-07
1.09476e-07
1.09465e-07
1.09456e-07
1.09447e-07
1.09441e-07
1.09433e-07
1.09428e-07
1.09422e-07
1.09418e-07
1.09412e-07
1.09409e-07
1.09403e-07
1.094e-07
1.09395e-07
1.09393e-07
1.09389e-07
1.09386e-07
1.09382e-07
1.0938e-07
1.09376e-07
1.09374e-07
1.09372e-07
1.0937e-07
1.09366e-07
1.09365e-07
1.09408e-07
1.11413e-07
7.70095e-08
3.20757e-08
1.23954e-07
1.23104e-07
1.22262e-07
1.21292e-07
1.20242e-07
1.19165e-07
1.18152e-07
1.17211e-07
1.16384e-07
1.15638e-07
1.14998e-07
1.14422e-07
1.13932e-07
1.13486e-07
1.13108e-07
1.1276e-07
1.12466e-07
1.12191e-07
1.1196e-07
1.1174e-07
1.11555e-07
1.11377e-07
1.11228e-07
1.11083e-07
1.10962e-07
1.10842e-07
1.10742e-07
1.10642e-07
1.10559e-07
1.10474e-07
1.10405e-07
1.10334e-07
1.10275e-07
1.10214e-07
1.10164e-07
1.10113e-07
1.10069e-07
1.10024e-07
1.09987e-07
1.09949e-07
1.09916e-07
1.09882e-07
1.09854e-07
1.09825e-07
1.09799e-07
1.09774e-07
1.09752e-07
1.09731e-07
1.0971e-07
1.09692e-07
1.09672e-07