/*--------------------------------*- C++ -*----------------------------------*\
| =========                 |                                                 |
| \\      /  F ield         | OpenFOAM: The Open Source CFD Toolbox           |
|  \\    /   O peration     | Version:  v2012                                 |
|   \\  /    A nd           | Website:  www.openfoam.com                      |
|    \\/     M anipulation  |                                                 |
\*---------------------------------------------------------------------------*/
FoamFile
{
    version     2.0;
    format      ascii;
    class       volVectorField;
    location    "46.5";
    object      wallShearStress;
}
// * * * * * * * * * * * * * * * * * * * * * * * * * * * * * * * * * * * * * //

dimensions      [0 2 -2 0 0 0 0];


internalField   uniform (0 0 0);

boundaryField
{
    inlet
    {
        type            calculated;
        value           uniform (0 0 0);
    }
    outlet
    {
        type            calculated;
        value           uniform (0 0 0);
    }
    topWall
    {
        type            calculated;
        value           nonuniform List<vector> 
545
(
(3.67466e-08 -2.58665e-08 0)
(3.67353e-08 -7.23586e-08 0)
(3.67152e-08 -1.20705e-07 0)
(3.66867e-08 -1.67652e-07 0)
(3.66509e-08 -2.12602e-07 0)
(3.66086e-08 -2.56131e-07 0)
(3.65603e-08 -2.98609e-07 0)
(3.65063e-08 -3.40017e-07 0)
(3.64473e-08 -3.80264e-07 0)
(3.63835e-08 -4.19349e-07 0)
(3.63156e-08 -4.57325e-07 0)
(3.62439e-08 -4.94233e-07 0)
(3.61688e-08 -5.30101e-07 0)
(3.60905e-08 -5.64948e-07 0)
(3.60096e-08 -5.988e-07 0)
(3.59262e-08 -6.31683e-07 0)
(3.58407e-08 -6.63624e-07 0)
(3.57534e-08 -6.94648e-07 0)
(3.56644e-08 -7.24779e-07 0)
(3.55741e-08 -7.54042e-07 0)
(3.54827e-08 -7.82461e-07 0)
(3.53904e-08 -8.10058e-07 0)
(3.52973e-08 -8.36857e-07 0)
(3.52038e-08 -8.62881e-07 0)
(3.51098e-08 -8.88151e-07 0)
(3.50156e-08 -9.12689e-07 0)
(3.49214e-08 -9.36515e-07 0)
(3.48273e-08 -9.59651e-07 0)
(3.47333e-08 -9.82116e-07 0)
(3.46397e-08 -1.00393e-06 0)
(3.45464e-08 -1.02511e-06 0)
(3.44537e-08 -1.04568e-06 0)
(3.43616e-08 -1.06565e-06 0)
(3.42702e-08 -1.08504e-06 0)
(3.41796e-08 -1.10387e-06 0)
(3.40898e-08 -1.12216e-06 0)
(3.40009e-08 -1.13992e-06 0)
(3.39129e-08 -1.15716e-06 0)
(3.3826e-08 -1.17391e-06 0)
(3.37401e-08 -1.19017e-06 0)
(3.36553e-08 -1.20596e-06 0)
(3.35716e-08 -1.2213e-06 0)
(3.3489e-08 -1.2362e-06 0)
(3.34077e-08 -1.25067e-06 0)
(3.33275e-08 -1.26472e-06 0)
(3.32486e-08 -1.27837e-06 0)
(3.31709e-08 -1.29163e-06 0)
(3.30945e-08 -1.30451e-06 0)
(3.30193e-08 -1.31703e-06 0)
(3.29454e-08 -1.32918e-06 0)
(3.28728e-08 -1.34099e-06 0)
(3.28014e-08 -1.35246e-06 0)
(3.27314e-08 -1.3636e-06 0)
(3.26626e-08 -1.37443e-06 0)
(3.25951e-08 -1.38495e-06 0)
(3.25289e-08 -1.39517e-06 0)
(3.24639e-08 -1.40511e-06 0)
(3.24002e-08 -1.41476e-06 0)
(3.23378e-08 -1.42413e-06 0)
(3.22766e-08 -1.43325e-06 0)
(3.22166e-08 -1.44211e-06 0)
(3.21579e-08 -1.45071e-06 0)
(3.21003e-08 -1.45908e-06 0)
(3.2044e-08 -1.46721e-06 0)
(3.19888e-08 -1.47511e-06 0)
(3.19348e-08 -1.48279e-06 0)
(3.1882e-08 -1.49026e-06 0)
(3.18303e-08 -1.49751e-06 0)
(3.17797e-08 -1.50457e-06 0)
(3.17302e-08 -1.51142e-06 0)
(3.16818e-08 -1.51809e-06 0)
(3.16347e-08 -1.52456e-06 0)
(3.1589e-08 -1.53079e-06 0)
(3.1544e-08 -1.53684e-06 0)
(3.14994e-08 -1.54282e-06 0)
(3.14549e-08 -1.54877e-06 0)
(3.14105e-08 -1.55469e-06 0)
(3.13661e-08 -1.56058e-06 0)
(3.13218e-08 -1.56643e-06 0)
(3.12775e-08 -1.57225e-06 0)
(3.12333e-08 -1.57803e-06 0)
(3.11891e-08 -1.58377e-06 0)
(3.11449e-08 -1.58949e-06 0)
(3.11008e-08 -1.59517e-06 0)
(3.10567e-08 -1.60081e-06 0)
(3.10127e-08 -1.60642e-06 0)
(3.09688e-08 -1.612e-06 0)
(3.09249e-08 -1.61754e-06 0)
(3.0881e-08 -1.62305e-06 0)
(3.08372e-08 -1.62853e-06 0)
(3.07935e-08 -1.63398e-06 0)
(3.07498e-08 -1.63939e-06 0)
(3.07061e-08 -1.64477e-06 0)
(3.06627e-08 -1.65011e-06 0)
(3.06188e-08 -1.65544e-06 0)
(3.05771e-08 -1.66067e-06 0)
(3.05385e-08 -1.66547e-06 0)
(3.05013e-08 -1.66982e-06 0)
(3.04653e-08 -1.67405e-06 0)
(3.04294e-08 -1.6783e-06 0)
(3.03935e-08 -1.68259e-06 0)
(3.03574e-08 -1.68689e-06 0)
(3.03212e-08 -1.69119e-06 0)
(3.02847e-08 -1.69549e-06 0)
(3.02481e-08 -1.6998e-06 0)
(3.02114e-08 -1.70411e-06 0)
(3.01744e-08 -1.70842e-06 0)
(3.01373e-08 -1.71275e-06 0)
(3.01e-08 -1.71707e-06 0)
(3.00625e-08 -1.7214e-06 0)
(3.00248e-08 -1.72574e-06 0)
(2.9987e-08 -1.73008e-06 0)
(2.9949e-08 -1.73442e-06 0)
(2.99108e-08 -1.73877e-06 0)
(2.98724e-08 -1.74313e-06 0)
(2.98339e-08 -1.74749e-06 0)
(2.97951e-08 -1.75185e-06 0)
(2.97562e-08 -1.75622e-06 0)
(2.97171e-08 -1.76059e-06 0)
(2.96778e-08 -1.76497e-06 0)
(2.96384e-08 -1.76935e-06 0)
(2.95987e-08 -1.77374e-06 0)
(2.95589e-08 -1.77813e-06 0)
(2.95189e-08 -1.78253e-06 0)
(2.94787e-08 -1.78693e-06 0)
(2.94383e-08 -1.79133e-06 0)
(2.93977e-08 -1.79574e-06 0)
(2.9357e-08 -1.80015e-06 0)
(2.9316e-08 -1.80457e-06 0)
(2.92749e-08 -1.80899e-06 0)
(2.92336e-08 -1.81342e-06 0)
(2.9192e-08 -1.81785e-06 0)
(2.91503e-08 -1.82228e-06 0)
(2.91085e-08 -1.82672e-06 0)
(2.90664e-08 -1.83116e-06 0)
(2.90241e-08 -1.83561e-06 0)
(2.89816e-08 -1.84006e-06 0)
(2.8939e-08 -1.84451e-06 0)
(2.88961e-08 -1.84897e-06 0)
(2.88531e-08 -1.85343e-06 0)
(2.88099e-08 -1.8579e-06 0)
(2.87664e-08 -1.86237e-06 0)
(2.87228e-08 -1.86684e-06 0)
(2.8679e-08 -1.87132e-06 0)
(2.8635e-08 -1.8758e-06 0)
(2.85908e-08 -1.88028e-06 0)
(2.85464e-08 -1.88477e-06 0)
(2.85018e-08 -1.88926e-06 0)
(2.8457e-08 -1.89376e-06 0)
(2.8412e-08 -1.89825e-06 0)
(2.83668e-08 -1.90276e-06 0)
(2.83215e-08 -1.90726e-06 0)
(2.82759e-08 -1.91177e-06 0)
(2.82301e-08 -1.91628e-06 0)
(2.81841e-08 -1.9208e-06 0)
(2.81379e-08 -1.92532e-06 0)
(2.80915e-08 -1.92984e-06 0)
(2.8045e-08 -1.93436e-06 0)
(2.79982e-08 -1.93889e-06 0)
(2.79512e-08 -1.94342e-06 0)
(2.7904e-08 -1.94796e-06 0)
(2.78566e-08 -1.95249e-06 0)
(2.7809e-08 -1.95703e-06 0)
(2.77613e-08 -1.96158e-06 0)
(2.77133e-08 -1.96612e-06 0)
(2.76651e-08 -1.97067e-06 0)
(2.76167e-08 -1.97522e-06 0)
(2.75681e-08 -1.97978e-06 0)
(2.75192e-08 -1.98433e-06 0)
(2.74702e-08 -1.98889e-06 0)
(2.7421e-08 -1.99346e-06 0)
(2.73716e-08 -1.99802e-06 0)
(2.7322e-08 -2.00259e-06 0)
(2.72721e-08 -2.00716e-06 0)
(2.72221e-08 -2.01173e-06 0)
(2.71718e-08 -2.0163e-06 0)
(2.71214e-08 -2.02088e-06 0)
(2.70707e-08 -2.02546e-06 0)
(2.70198e-08 -2.03004e-06 0)
(2.69688e-08 -2.03463e-06 0)
(2.69175e-08 -2.03921e-06 0)
(2.6866e-08 -2.0438e-06 0)
(2.68143e-08 -2.04839e-06 0)
(2.67624e-08 -2.05298e-06 0)
(2.67103e-08 -2.05757e-06 0)
(2.66579e-08 -2.06217e-06 0)
(2.66054e-08 -2.06676e-06 0)
(2.65527e-08 -2.07136e-06 0)
(2.64997e-08 -2.07596e-06 0)
(2.64465e-08 -2.08057e-06 0)
(2.63932e-08 -2.08517e-06 0)
(2.63396e-08 -2.08977e-06 0)
(2.62858e-08 -2.09438e-06 0)
(2.62318e-08 -2.09899e-06 0)
(2.61776e-08 -2.1036e-06 0)
(2.61231e-08 -2.10821e-06 0)
(2.60685e-08 -2.11282e-06 0)
(2.60137e-08 -2.11743e-06 0)
(2.59586e-08 -2.12205e-06 0)
(2.59033e-08 -2.12666e-06 0)
(2.58479e-08 -2.13128e-06 0)
(2.57922e-08 -2.1359e-06 0)
(2.57363e-08 -2.14051e-06 0)
(2.56802e-08 -2.14513e-06 0)
(2.56238e-08 -2.14975e-06 0)
(2.55673e-08 -2.15437e-06 0)
(2.55106e-08 -2.15899e-06 0)
(2.54536e-08 -2.16362e-06 0)
(2.53964e-08 -2.16824e-06 0)
(2.5339e-08 -2.17286e-06 0)
(2.52815e-08 -2.17748e-06 0)
(2.52236e-08 -2.18211e-06 0)
(2.51656e-08 -2.18673e-06 0)
(2.51074e-08 -2.19135e-06 0)
(2.5049e-08 -2.19598e-06 0)
(2.49903e-08 -2.2006e-06 0)
(2.49315e-08 -2.20523e-06 0)
(2.48724e-08 -2.20985e-06 0)
(2.48131e-08 -2.21447e-06 0)
(2.47536e-08 -2.2191e-06 0)
(2.46939e-08 -2.22372e-06 0)
(2.4634e-08 -2.22834e-06 0)
(2.45739e-08 -2.23297e-06 0)
(2.45136e-08 -2.23759e-06 0)
(2.4453e-08 -2.24221e-06 0)
(2.43923e-08 -2.24683e-06 0)
(2.43313e-08 -2.25145e-06 0)
(2.42701e-08 -2.25607e-06 0)
(2.42088e-08 -2.26069e-06 0)
(2.41472e-08 -2.26531e-06 0)
(2.40854e-08 -2.26993e-06 0)
(2.40234e-08 -2.27454e-06 0)
(2.39612e-08 -2.27916e-06 0)
(2.38988e-08 -2.28377e-06 0)
(2.38361e-08 -2.28838e-06 0)
(2.37733e-08 -2.293e-06 0)
(2.37103e-08 -2.29761e-06 0)
(2.3647e-08 -2.30221e-06 0)
(2.35836e-08 -2.30682e-06 0)
(2.35199e-08 -2.31143e-06 0)
(2.3456e-08 -2.31603e-06 0)
(2.3392e-08 -2.32063e-06 0)
(2.33277e-08 -2.32523e-06 0)
(2.32632e-08 -2.32983e-06 0)
(2.31985e-08 -2.33443e-06 0)
(2.31337e-08 -2.33902e-06 0)
(2.30686e-08 -2.34362e-06 0)
(2.30033e-08 -2.34821e-06 0)
(2.29378e-08 -2.3528e-06 0)
(2.28721e-08 -2.35738e-06 0)
(2.28062e-08 -2.36197e-06 0)
(2.27401e-08 -2.36655e-06 0)
(2.26738e-08 -2.37112e-06 0)
(2.26073e-08 -2.3757e-06 0)
(2.25406e-08 -2.38027e-06 0)
(2.24738e-08 -2.38484e-06 0)
(2.24067e-08 -2.38941e-06 0)
(2.23394e-08 -2.39398e-06 0)
(2.22719e-08 -2.39854e-06 0)
(2.22042e-08 -2.4031e-06 0)
(2.21364e-08 -2.40765e-06 0)
(2.20683e-08 -2.4122e-06 0)
(2.20001e-08 -2.41675e-06 0)
(2.19316e-08 -2.4213e-06 0)
(2.1863e-08 -2.42584e-06 0)
(2.17941e-08 -2.43038e-06 0)
(2.17252e-08 -2.43491e-06 0)
(2.16556e-08 -2.43945e-06 0)
(2.15879e-08 -2.44395e-06 0)
(2.15229e-08 -2.44823e-06 0)
(2.14587e-08 -2.45231e-06 0)
(2.13954e-08 -2.45635e-06 0)
(2.13317e-08 -2.46043e-06 0)
(2.12673e-08 -2.46456e-06 0)
(2.12022e-08 -2.46873e-06 0)
(2.11364e-08 -2.47292e-06 0)
(2.10699e-08 -2.47715e-06 0)
(2.10027e-08 -2.48141e-06 0)
(2.09347e-08 -2.4857e-06 0)
(2.0866e-08 -2.49002e-06 0)
(2.07965e-08 -2.49438e-06 0)
(2.07262e-08 -2.49876e-06 0)
(2.06552e-08 -2.50319e-06 0)
(2.05834e-08 -2.50764e-06 0)
(2.05108e-08 -2.51213e-06 0)
(2.04374e-08 -2.51664e-06 0)
(2.03632e-08 -2.5212e-06 0)
(2.02882e-08 -2.52578e-06 0)
(2.02124e-08 -2.5304e-06 0)
(2.01358e-08 -2.53505e-06 0)
(2.00583e-08 -2.53973e-06 0)
(1.998e-08 -2.54444e-06 0)
(1.99009e-08 -2.54919e-06 0)
(1.98209e-08 -2.55397e-06 0)
(1.97401e-08 -2.55878e-06 0)
(1.96584e-08 -2.56363e-06 0)
(1.95758e-08 -2.5685e-06 0)
(1.94924e-08 -2.57341e-06 0)
(1.94081e-08 -2.57835e-06 0)
(1.93228e-08 -2.58332e-06 0)
(1.92367e-08 -2.58833e-06 0)
(1.91497e-08 -2.59336e-06 0)
(1.90618e-08 -2.59843e-06 0)
(1.89729e-08 -2.60353e-06 0)
(1.88832e-08 -2.60866e-06 0)
(1.87925e-08 -2.61382e-06 0)
(1.87009e-08 -2.61901e-06 0)
(1.86083e-08 -2.62423e-06 0)
(1.85148e-08 -2.62949e-06 0)
(1.84203e-08 -2.63477e-06 0)
(1.83249e-08 -2.64008e-06 0)
(1.82285e-08 -2.64542e-06 0)
(1.81311e-08 -2.6508e-06 0)
(1.80328e-08 -2.6562e-06 0)
(1.79335e-08 -2.66163e-06 0)
(1.78332e-08 -2.66708e-06 0)
(1.77319e-08 -2.67257e-06 0)
(1.76296e-08 -2.67809e-06 0)
(1.75263e-08 -2.68363e-06 0)
(1.7422e-08 -2.6892e-06 0)
(1.73167e-08 -2.69479e-06 0)
(1.72104e-08 -2.70041e-06 0)
(1.71031e-08 -2.70606e-06 0)
(1.69947e-08 -2.71173e-06 0)
(1.68853e-08 -2.71743e-06 0)
(1.6775e-08 -2.72316e-06 0)
(1.66635e-08 -2.7289e-06 0)
(1.65511e-08 -2.73467e-06 0)
(1.64376e-08 -2.74047e-06 0)
(1.63231e-08 -2.74628e-06 0)
(1.62075e-08 -2.75212e-06 0)
(1.60909e-08 -2.75798e-06 0)
(1.59733e-08 -2.76386e-06 0)
(1.58546e-08 -2.76976e-06 0)
(1.57349e-08 -2.77568e-06 0)
(1.56141e-08 -2.78162e-06 0)
(1.54923e-08 -2.78757e-06 0)
(1.53695e-08 -2.79354e-06 0)
(1.52456e-08 -2.79953e-06 0)
(1.51207e-08 -2.80554e-06 0)
(1.49948e-08 -2.81156e-06 0)
(1.48678e-08 -2.81759e-06 0)
(1.47398e-08 -2.82364e-06 0)
(1.46108e-08 -2.8297e-06 0)
(1.44808e-08 -2.83578e-06 0)
(1.43497e-08 -2.84186e-06 0)
(1.42176e-08 -2.84795e-06 0)
(1.40846e-08 -2.85406e-06 0)
(1.39505e-08 -2.86017e-06 0)
(1.38154e-08 -2.86628e-06 0)
(1.36794e-08 -2.87241e-06 0)
(1.35423e-08 -2.87853e-06 0)
(1.34043e-08 -2.88467e-06 0)
(1.32654e-08 -2.8908e-06 0)
(1.31255e-08 -2.89694e-06 0)
(1.29846e-08 -2.90308e-06 0)
(1.28428e-08 -2.90921e-06 0)
(1.27001e-08 -2.91535e-06 0)
(1.25565e-08 -2.92148e-06 0)
(1.2412e-08 -2.92761e-06 0)
(1.22666e-08 -2.93373e-06 0)
(1.21203e-08 -2.93985e-06 0)
(1.19732e-08 -2.94596e-06 0)
(1.18252e-08 -2.95205e-06 0)
(1.16765e-08 -2.95814e-06 0)
(1.15269e-08 -2.96422e-06 0)
(1.13765e-08 -2.97028e-06 0)
(1.12254e-08 -2.97633e-06 0)
(1.10735e-08 -2.98236e-06 0)
(1.09209e-08 -2.98837e-06 0)
(1.07676e-08 -2.99436e-06 0)
(1.06136e-08 -3.00034e-06 0)
(1.0459e-08 -3.00629e-06 0)
(1.03037e-08 -3.01221e-06 0)
(1.01478e-08 -3.01812e-06 0)
(9.99132e-09 -3.02399e-06 0)
(9.83427e-09 -3.02983e-06 0)
(9.67668e-09 -3.03565e-06 0)
(9.5186e-09 -3.04143e-06 0)
(9.36003e-09 -3.04718e-06 0)
(9.20101e-09 -3.05289e-06 0)
(9.04158e-09 -3.05857e-06 0)
(8.88176e-09 -3.06421e-06 0)
(8.72159e-09 -3.0698e-06 0)
(8.56109e-09 -3.07536e-06 0)
(8.40031e-09 -3.08087e-06 0)
(8.23927e-09 -3.08633e-06 0)
(8.07802e-09 -3.09175e-06 0)
(7.91658e-09 -3.09711e-06 0)
(7.75501e-09 -3.10243e-06 0)
(7.59332e-09 -3.10769e-06 0)
(7.43157e-09 -3.1129e-06 0)
(7.26979e-09 -3.11805e-06 0)
(7.10802e-09 -3.12314e-06 0)
(6.94631e-09 -3.12817e-06 0)
(6.78469e-09 -3.13314e-06 0)
(6.62321e-09 -3.13804e-06 0)
(6.46191e-09 -3.14287e-06 0)
(6.30084e-09 -3.14764e-06 0)
(6.14004e-09 -3.15234e-06 0)
(5.97955e-09 -3.15697e-06 0)
(5.81942e-09 -3.16152e-06 0)
(5.65969e-09 -3.166e-06 0)
(5.50042e-09 -3.1704e-06 0)
(5.34165e-09 -3.17472e-06 0)
(5.18343e-09 -3.17896e-06 0)
(5.0258e-09 -3.18311e-06 0)
(4.86882e-09 -3.18718e-06 0)
(4.71253e-09 -3.19117e-06 0)
(4.55698e-09 -3.19507e-06 0)
(4.40222e-09 -3.19887e-06 0)
(4.24831e-09 -3.20259e-06 0)
(4.09529e-09 -3.20621e-06 0)
(3.94321e-09 -3.20974e-06 0)
(3.79212e-09 -3.21317e-06 0)
(3.64207e-09 -3.2165e-06 0)
(3.49311e-09 -3.21973e-06 0)
(3.3453e-09 -3.22286e-06 0)
(3.19868e-09 -3.22589e-06 0)
(3.0533e-09 -3.22881e-06 0)
(2.90921e-09 -3.23163e-06 0)
(2.76647e-09 -3.23434e-06 0)
(2.62511e-09 -3.23694e-06 0)
(2.48519e-09 -3.23944e-06 0)
(2.34676e-09 -3.24182e-06 0)
(2.20986e-09 -3.24409e-06 0)
(2.07455e-09 -3.24624e-06 0)
(1.94086e-09 -3.24829e-06 0)
(1.80885e-09 -3.25021e-06 0)
(1.67855e-09 -3.25202e-06 0)
(1.55002e-09 -3.25372e-06 0)
(1.4233e-09 -3.25529e-06 0)
(1.29843e-09 -3.25675e-06 0)
(1.17545e-09 -3.25808e-06 0)
(1.0544e-09 -3.2593e-06 0)
(9.35323e-10 -3.26039e-06 0)
(8.18259e-10 -3.26137e-06 0)
(7.03243e-10 -3.26222e-06 0)
(5.90313e-10 -3.26295e-06 0)
(4.79505e-10 -3.26355e-06 0)
(3.70852e-10 -3.26404e-06 0)
(2.64387e-10 -3.2644e-06 0)
(1.60143e-10 -3.26464e-06 0)
(5.81495e-11 -3.26475e-06 0)
(-4.15596e-11 -3.26475e-06 0)
(-1.38974e-10 -3.26462e-06 0)
(-2.33994e-10 -3.26436e-06 0)
(-3.26909e-10 -3.26399e-06 0)
(-4.16428e-10 -3.26349e-06 0)
(-5.0816e-10 -3.26287e-06 0)
(-6.04285e-10 -3.26204e-06 0)
(-7.00474e-10 -3.26098e-06 0)
(-7.95054e-10 -3.25974e-06 0)
(-8.854e-10 -3.25836e-06 0)
(-9.71337e-10 -3.25683e-06 0)
(-1.0529e-09 -3.25518e-06 0)
(-1.13018e-09 -3.25339e-06 0)
(-1.20328e-09 -3.25148e-06 0)
(-1.27231e-09 -3.24946e-06 0)
(-1.33742e-09 -3.24733e-06 0)
(-1.39872e-09 -3.2451e-06 0)
(-1.45634e-09 -3.24277e-06 0)
(-1.51038e-09 -3.24035e-06 0)
(-1.56095e-09 -3.23785e-06 0)
(-1.60817e-09 -3.23526e-06 0)
(-1.65215e-09 -3.23261e-06 0)
(-1.69298e-09 -3.22988e-06 0)
(-1.73076e-09 -3.2271e-06 0)
(-1.7656e-09 -3.22425e-06 0)
(-1.79758e-09 -3.22135e-06 0)
(-1.8268e-09 -3.2184e-06 0)
(-1.85334e-09 -3.21541e-06 0)
(-1.87728e-09 -3.21238e-06 0)
(-1.89872e-09 -3.20931e-06 0)
(-1.91772e-09 -3.2062e-06 0)
(-1.93437e-09 -3.20307e-06 0)
(-1.94873e-09 -3.19991e-06 0)
(-1.96088e-09 -3.19674e-06 0)
(-1.97089e-09 -3.19354e-06 0)
(-1.97883e-09 -3.19033e-06 0)
(-1.98474e-09 -3.18711e-06 0)
(-1.98871e-09 -3.18388e-06 0)
(-1.99079e-09 -3.18065e-06 0)
(-1.99102e-09 -3.17741e-06 0)
(-1.98948e-09 -3.17418e-06 0)
(-1.98621e-09 -3.17095e-06 0)
(-1.98126e-09 -3.16773e-06 0)
(-1.97469e-09 -3.16451e-06 0)
(-1.96653e-09 -3.16131e-06 0)
(-1.95684e-09 -3.15812e-06 0)
(-1.94565e-09 -3.15495e-06 0)
(-1.93302e-09 -3.1518e-06 0)
(-1.91898e-09 -3.14868e-06 0)
(-1.90358e-09 -3.14557e-06 0)
(-1.88684e-09 -3.14249e-06 0)
(-1.86882e-09 -3.13944e-06 0)
(-1.84953e-09 -3.13642e-06 0)
(-1.82903e-09 -3.13343e-06 0)
(-1.80733e-09 -3.13048e-06 0)
(-1.78448e-09 -3.12756e-06 0)
(-1.76051e-09 -3.12468e-06 0)
(-1.73544e-09 -3.12184e-06 0)
(-1.70932e-09 -3.11905e-06 0)
(-1.68215e-09 -3.11629e-06 0)
(-1.65399e-09 -3.11358e-06 0)
(-1.62484e-09 -3.11092e-06 0)
(-1.59475e-09 -3.1083e-06 0)
(-1.56374e-09 -3.10574e-06 0)
(-1.53182e-09 -3.10322e-06 0)
(-1.49904e-09 -3.10076e-06 0)
(-1.46541e-09 -3.09835e-06 0)
(-1.43096e-09 -3.096e-06 0)
(-1.39572e-09 -3.0937e-06 0)
(-1.3597e-09 -3.09146e-06 0)
(-1.32294e-09 -3.08928e-06 0)
(-1.28546e-09 -3.08716e-06 0)
(-1.24727e-09 -3.0851e-06 0)
(-1.20842e-09 -3.0831e-06 0)
(-1.16891e-09 -3.08117e-06 0)
(-1.12877e-09 -3.0793e-06 0)
(-1.08803e-09 -3.0775e-06 0)
(-1.0467e-09 -3.07576e-06 0)
(-1.00482e-09 -3.07409e-06 0)
(-9.62402e-10 -3.07249e-06 0)
(-9.19473e-10 -3.07096e-06 0)
(-8.76055e-10 -3.0695e-06 0)
(-8.32171e-10 -3.0681e-06 0)
(-7.87846e-10 -3.06679e-06 0)
(-7.431e-10 -3.06554e-06 0)
(-6.9796e-10 -3.06436e-06 0)
(-6.52445e-10 -3.06326e-06 0)
(-6.06582e-10 -3.06223e-06 0)
(-5.60392e-10 -3.06128e-06 0)
(-5.139e-10 -3.0604e-06 0)
(-4.67128e-10 -3.05959e-06 0)
(-4.20101e-10 -3.05889e-06 0)
(-3.72838e-10 -3.05817e-06 0)
(-3.25372e-10 -3.05781e-06 0)
(-2.777e-10 -3.0566e-06 0)
(-2.29919e-10 -3.05851e-06 0)
(-1.81851e-10 -3.05021e-06 0)
(-1.34105e-10 -3.07478e-06 0)
(-8.54907e-11 -2.98255e-06 0)
(-3.83085e-11 -3.22742e-06 0)
(-8.08646e-12 -2.81882e-06 0)
)
;
    }
    bottomWall
    {
        type            calculated;
        value           nonuniform List<vector> 
449
(
(-48.4894 -0.963496 0)
(-19.7383 -0.00514958 0)
(-14.3389 -0.00113242 0)
(-12.0372 -0.0005427 0)
(-10.6421 -0.000347083 0)
(-9.66739 -0.000247823 0)
(-8.94599 -0.000181775 0)
(-8.42033 -0.00012285 0)
(-8.10152 -4.93202e-05 0)
(-8.082 8.03936e-05 0)
(-8.66145 0.000262483 0)
(-9.90333 0.000333108 0)
(-10.9713 0.000249889 0)
(-11.6383 0.000148851 0)
(-12.0079 8.17419e-05 0)
(-12.2092 4.28776e-05 0)
(-12.3082 1.87823e-05 0)
(-12.341 2.33649e-06 0)
(-12.3245 -8.4154e-06 0)
(-12.2816 -1.47785e-05 0)
(-12.2199 -1.90159e-05 0)
(-12.1467 -2.1423e-05 0)
(-12.0677 -2.25255e-05 0)
(-11.9863 -2.28621e-05 0)
(-11.9044 -2.27473e-05 0)
(-11.8235 -2.23839e-05 0)
(-11.7439 -2.18624e-05 0)
(-11.6662 -2.1224e-05 0)
(-11.5909 -2.0535e-05 0)
(-11.5179 -1.9829e-05 0)
(-11.4473 -1.91257e-05 0)
(-11.379 -1.84369e-05 0)
(-11.3131 -1.777e-05 0)
(-11.2494 -1.71279e-05 0)
(-11.1879 -1.65216e-05 0)
(-11.1284 -1.59532e-05 0)
(-11.0707 -1.54057e-05 0)
(-11.0149 -1.4876e-05 0)
(-10.9609 -1.43716e-05 0)
(-10.9086 -1.38928e-05 0)
(-10.8579 -1.34383e-05 0)
(-10.8087 -1.30073e-05 0)
(-10.761 -1.26e-05 0)
(-10.7146 -1.2213e-05 0)
(-10.6696 -1.18443e-05 0)
(-10.6258 -1.14936e-05 0)
(-10.5831 -1.11621e-05 0)
(-10.5416 -1.08445e-05 0)
(-10.5012 -1.055e-05 0)
(-10.4617 -1.02911e-05 0)
(-10.4231 -1.00581e-05 0)
(-10.3852 -9.83898e-06 0)
(-10.348 -9.62661e-06 0)
(-10.3116 -9.4177e-06 0)
(-10.2758 -9.21254e-06 0)
(-10.2408 -9.00956e-06 0)
(-10.2065 -8.81117e-06 0)
(-10.1728 -8.61905e-06 0)
(-10.1398 -8.43152e-06 0)
(-10.1074 -8.2494e-06 0)
(-10.0757 -8.07371e-06 0)
(-10.0445 -7.90497e-06 0)
(-10.0139 -7.7408e-06 0)
(-9.98389 -7.58077e-06 0)
(-9.95443 -7.42543e-06 0)
(-9.92549 -7.27672e-06 0)
(-9.89706 -7.13302e-06 0)
(-9.86912 -6.99385e-06 0)
(-9.84166 -6.85775e-06 0)
(-9.81467 -6.72974e-06 0)
(-9.7881 -6.60769e-06 0)
(-9.76195 -6.48549e-06 0)
(-9.73624 -6.36562e-06 0)
(-9.71093 -6.25007e-06 0)
(-9.68602 -6.1385e-06 0)
(-9.6615 -6.02854e-06 0)
(-9.63736 -5.92176e-06 0)
(-9.61358 -5.81749e-06 0)
(-9.59017 -5.71614e-06 0)
(-9.56711 -5.61787e-06 0)
(-9.5444 -5.52221e-06 0)
(-9.52201 -5.42922e-06 0)
(-9.49995 -5.33892e-06 0)
(-9.47819 -5.25068e-06 0)
(-9.45676 -5.16476e-06 0)
(-9.43561 -5.08159e-06 0)
(-9.41476 -5.00033e-06 0)
(-9.39418 -4.92252e-06 0)
(-9.37388 -4.84613e-06 0)
(-9.35385 -4.77112e-06 0)
(-9.33408 -4.69843e-06 0)
(-9.31456 -4.62675e-06 0)
(-9.29529 -4.55727e-06 0)
(-9.27627 -4.48933e-06 0)
(-9.25748 -4.42219e-06 0)
(-9.23893 -4.35796e-06 0)
(-9.22061 -4.29455e-06 0)
(-9.20251 -4.23242e-06 0)
(-9.18462 -4.17264e-06 0)
(-9.16695 -4.11317e-06 0)
(-9.14949 -4.05804e-06 0)
(-9.1322 -4.00542e-06 0)
(-9.11511 -3.95113e-06 0)
(-9.09821 -3.89798e-06 0)
(-9.0815 -3.8452e-06 0)
(-9.06498 -3.79312e-06 0)
(-9.04864 -3.74331e-06 0)
(-9.03247 -3.69395e-06 0)
(-9.01648 -3.64502e-06 0)
(-9.00066 -3.5983e-06 0)
(-8.98501 -3.55196e-06 0)
(-8.96953 -3.50584e-06 0)
(-8.9542 -3.46203e-06 0)
(-8.93903 -3.41858e-06 0)
(-8.92402 -3.3752e-06 0)
(-8.90916 -3.33384e-06 0)
(-8.89445 -3.29313e-06 0)
(-8.87988 -3.25227e-06 0)
(-8.86546 -3.21298e-06 0)
(-8.85118 -3.17483e-06 0)
(-8.83704 -3.13646e-06 0)
(-8.82303 -3.09908e-06 0)
(-8.80915 -3.06333e-06 0)
(-8.7954 -3.02735e-06 0)
(-8.78179 -2.99162e-06 0)
(-8.7683 -2.95761e-06 0)
(-8.75493 -2.924e-06 0)
(-8.74168 -2.89032e-06 0)
(-8.72855 -2.85767e-06 0)
(-8.71554 -2.82618e-06 0)
(-8.70264 -2.79455e-06 0)
(-8.68986 -2.76312e-06 0)
(-8.67719 -2.73312e-06 0)
(-8.66463 -2.7036e-06 0)
(-8.65217 -2.67385e-06 0)
(-8.63982 -2.64488e-06 0)
(-8.62757 -2.61716e-06 0)
(-8.61543 -2.58928e-06 0)
(-8.60338 -2.56129e-06 0)
(-8.59144 -2.53459e-06 0)
(-8.57959 -2.50866e-06 0)
(-8.56784 -2.48236e-06 0)
(-8.55618 -2.45631e-06 0)
(-8.54462 -2.43149e-06 0)
(-8.53314 -2.4071e-06 0)
(-8.52175 -2.38234e-06 0)
(-8.51046 -2.35867e-06 0)
(-8.49924 -2.33712e-06 0)
(-8.4881 -2.31543e-06 0)
(-8.47704 -2.2925e-06 0)
(-8.46607 -2.26981e-06 0)
(-8.45518 -2.24794e-06 0)
(-8.44436 -2.22632e-06 0)
(-8.43363 -2.20453e-06 0)
(-8.42298 -2.1831e-06 0)
(-8.4124 -2.16248e-06 0)
(-8.4019 -2.1422e-06 0)
(-8.39147 -2.12173e-06 0)
(-8.38112 -2.10145e-06 0)
(-8.37084 -2.08196e-06 0)
(-8.36063 -2.06298e-06 0)
(-8.35049 -2.04375e-06 0)
(-8.34043 -2.02449e-06 0)
(-8.33043 -2.00602e-06 0)
(-8.3205 -1.98819e-06 0)
(-8.31063 -1.97015e-06 0)
(-8.30084 -1.95198e-06 0)
(-8.29111 -1.93437e-06 0)
(-8.28144 -1.91756e-06 0)
(-8.27183 -1.9006e-06 0)
(-8.26229 -1.8838e-06 0)
(-8.25281 -1.86683e-06 0)
(-8.2434 -1.84844e-06 0)
(-8.23458 -1.8351e-06 0)
(-8.22626 -1.82355e-06 0)
(-8.21792 -1.80748e-06 0)
(-8.20957 -1.79254e-06 0)
(-8.20119 -1.77883e-06 0)
(-8.19279 -1.76502e-06 0)
(-8.18436 -1.75101e-06 0)
(-8.1759 -1.73668e-06 0)
(-8.16743 -1.72285e-06 0)
(-8.15893 -1.7093e-06 0)
(-8.15041 -1.69586e-06 0)
(-8.14186 -1.682e-06 0)
(-8.13329 -1.66798e-06 0)
(-8.1247 -1.65448e-06 0)
(-8.11608 -1.64123e-06 0)
(-8.10745 -1.62792e-06 0)
(-8.09879 -1.61432e-06 0)
(-8.0901 -1.60073e-06 0)
(-8.0814 -1.58759e-06 0)
(-8.07268 -1.5746e-06 0)
(-8.06393 -1.56144e-06 0)
(-8.05516 -1.54811e-06 0)
(-8.04638 -1.53498e-06 0)
(-8.03757 -1.52215e-06 0)
(-8.02874 -1.50947e-06 0)
(-8.01989 -1.49652e-06 0)
(-8.01102 -1.48344e-06 0)
(-8.00214 -1.47077e-06 0)
(-7.99323 -1.45831e-06 0)
(-7.9843 -1.44578e-06 0)
(-7.97536 -1.43309e-06 0)
(-7.96639 -1.4205e-06 0)
(-7.95741 -1.40821e-06 0)
(-7.94841 -1.3961e-06 0)
(-7.93939 -1.38375e-06 0)
(-7.93035 -1.3713e-06 0)
(-7.9213 -1.3592e-06 0)
(-7.91223 -1.34735e-06 0)
(-7.90314 -1.33537e-06 0)
(-7.89403 -1.32412e-06 0)
(-7.8849 -1.31326e-06 0)
(-7.87574 -1.30181e-06 0)
(-7.86657 -1.29019e-06 0)
(-7.85739 -1.27838e-06 0)
(-7.84819 -1.26663e-06 0)
(-7.83897 -1.25519e-06 0)
(-7.82974 -1.24391e-06 0)
(-7.82049 -1.23243e-06 0)
(-7.81123 -1.22088e-06 0)
(-7.80195 -1.20969e-06 0)
(-7.79266 -1.19874e-06 0)
(-7.78336 -1.18756e-06 0)
(-7.77404 -1.17627e-06 0)
(-7.76471 -1.16533e-06 0)
(-7.75536 -1.15465e-06 0)
(-7.746 -1.14378e-06 0)
(-7.73663 -1.13281e-06 0)
(-7.72725 -1.12213e-06 0)
(-7.71786 -1.11171e-06 0)
(-7.70845 -1.10115e-06 0)
(-7.69903 -1.09047e-06 0)
(-7.6896 -1.08006e-06 0)
(-7.68016 -1.06992e-06 0)
(-7.6707 -1.05964e-06 0)
(-7.66124 -1.04925e-06 0)
(-7.65176 -1.03913e-06 0)
(-7.64228 -1.02926e-06 0)
(-7.63278 -1.01925e-06 0)
(-7.62327 -1.00915e-06 0)
(-7.61376 -9.99339e-07 0)
(-7.60424 -9.89743e-07 0)
(-7.5947 -9.80009e-07 0)
(-7.58516 -9.70201e-07 0)
(-7.57561 -9.60689e-07 0)
(-7.56605 -9.5137e-07 0)
(-7.55647 -9.41887e-07 0)
(-7.5469 -9.3237e-07 0)
(-7.53731 -9.2316e-07 0)
(-7.52772 -9.14078e-07 0)
(-7.51812 -9.04851e-07 0)
(-7.50851 -8.95663e-07 0)
(-7.4989 -8.86738e-07 0)
(-7.48928 -8.77881e-07 0)
(-7.47965 -8.68923e-07 0)
(-7.47002 -8.60064e-07 0)
(-7.46038 -8.51428e-07 0)
(-7.45074 -8.42791e-07 0)
(-7.44109 -8.34091e-07 0)
(-7.43143 -8.25548e-07 0)
(-7.42177 -8.17192e-07 0)
(-7.41211 -8.08773e-07 0)
(-7.40244 -8.00334e-07 0)
(-7.39276 -7.92106e-07 0)
(-7.38309 -7.83997e-07 0)
(-7.3734 -7.75809e-07 0)
(-7.36372 -7.67669e-07 0)
(-7.35403 -7.59728e-07 0)
(-7.34434 -7.51827e-07 0)
(-7.33464 -7.43878e-07 0)
(-7.32495 -7.36229e-07 0)
(-7.31525 -7.29115e-07 0)
(-7.30553 -7.21795e-07 0)
(-7.29581 -7.14098e-07 0)
(-7.28609 -7.06597e-07 0)
(-7.27637 -6.9922e-07 0)
(-7.26664 -6.91779e-07 0)
(-7.25692 -6.84374e-07 0)
(-7.24719 -6.77116e-07 0)
(-7.23746 -6.69863e-07 0)
(-7.22774 -6.62587e-07 0)
(-7.21801 -6.55445e-07 0)
(-7.20829 -6.48432e-07 0)
(-7.19856 -6.4138e-07 0)
(-7.18884 -6.34354e-07 0)
(-7.17911 -6.27498e-07 0)
(-7.16939 -6.20683e-07 0)
(-7.15967 -6.13836e-07 0)
(-7.14995 -6.07103e-07 0)
(-7.14024 -6.00505e-07 0)
(-7.13052 -5.93877e-07 0)
(-7.12081 -5.87259e-07 0)
(-7.1111 -5.80808e-07 0)
(-7.1014 -5.74401e-07 0)
(-7.0917 -5.67967e-07 0)
(-7.082 -5.61635e-07 0)
(-7.07231 -5.55431e-07 0)
(-7.06261 -5.49195e-07 0)
(-7.05293 -5.42983e-07 0)
(-7.04325 -5.3693e-07 0)
(-7.03357 -5.30909e-07 0)
(-7.0239 -5.24863e-07 0)
(-7.01424 -5.18929e-07 0)
(-7.00458 -5.13099e-07 0)
(-6.99492 -5.07242e-07 0)
(-6.98527 -5.01427e-07 0)
(-6.97563 -4.95763e-07 0)
(-6.966 -4.90094e-07 0)
(-6.95637 -4.84421e-07 0)
(-6.94675 -4.78882e-07 0)
(-6.93713 -4.73407e-07 0)
(-6.92752 -4.67905e-07 0)
(-6.91793 -4.62482e-07 0)
(-6.90834 -4.57179e-07 0)
(-6.89875 -4.51856e-07 0)
(-6.88918 -4.46552e-07 0)
(-6.87961 -4.41392e-07 0)
(-6.87006 -4.36245e-07 0)
(-6.86051 -4.31093e-07 0)
(-6.85097 -4.26053e-07 0)
(-6.84144 -4.21078e-07 0)
(-6.83192 -4.16086e-07 0)
(-6.82242 -4.11165e-07 0)
(-6.81292 -4.06349e-07 0)
(-6.80343 -4.0152e-07 0)
(-6.79395 -3.96719e-07 0)
(-6.78448 -3.92037e-07 0)
(-6.77503 -3.87621e-07 0)
(-6.76557 -3.83239e-07 0)
(-6.75612 -3.78694e-07 0)
(-6.74669 -3.74175e-07 0)
(-6.73726 -3.69651e-07 0)
(-6.72786 -3.65207e-07 0)
(-6.71845 -3.60845e-07 0)
(-6.70907 -3.56499e-07 0)
(-6.69969 -3.52202e-07 0)
(-6.69033 -3.47989e-07 0)
(-6.68098 -3.43751e-07 0)
(-6.67164 -3.39531e-07 0)
(-6.66232 -3.35418e-07 0)
(-6.65301 -3.3133e-07 0)
(-6.64371 -3.27242e-07 0)
(-6.63444 -3.23247e-07 0)
(-6.62517 -3.1929e-07 0)
(-6.61592 -3.15341e-07 0)
(-6.60668 -3.1145e-07 0)
(-6.59746 -3.07632e-07 0)
(-6.58824 -3.03791e-07 0)
(-6.57906 -3.00035e-07 0)
(-6.56987 -2.96251e-07 0)
(-6.56072 -2.92621e-07 0)
(-6.55157 -2.89119e-07 0)
(-6.54141 -2.8492e-07 0)
(-6.53035 -2.80427e-07 0)
(-6.51947 -2.76351e-07 0)
(-6.50874 -2.72359e-07 0)
(-6.49817 -2.68369e-07 0)
(-6.48774 -2.64514e-07 0)
(-6.47747 -2.60733e-07 0)
(-6.46735 -2.57029e-07 0)
(-6.45737 -2.53438e-07 0)
(-6.44752 -2.49912e-07 0)
(-6.43782 -2.4646e-07 0)
(-6.42824 -2.43117e-07 0)
(-6.4188 -2.39835e-07 0)
(-6.40948 -2.36611e-07 0)
(-6.40029 -2.33499e-07 0)
(-6.39122 -2.30437e-07 0)
(-6.38227 -2.2743e-07 0)
(-6.37343 -2.2452e-07 0)
(-6.36471 -2.21664e-07 0)
(-6.35609 -2.18849e-07 0)
(-6.34759 -2.1612e-07 0)
(-6.33918 -2.13449e-07 0)
(-6.33089 -2.10817e-07 0)
(-6.32269 -2.08249e-07 0)
(-6.3146 -2.05754e-07 0)
(-6.3066 -2.03284e-07 0)
(-6.2987 -2.00864e-07 0)
(-6.29088 -1.9852e-07 0)
(-6.28317 -1.96216e-07 0)
(-6.27554 -1.9394e-07 0)
(-6.268 -1.91801e-07 0)
(-6.26053 -1.89758e-07 0)
(-6.25316 -1.87678e-07 0)
(-6.24585 -1.85584e-07 0)
(-6.23864 -1.83548e-07 0)
(-6.2315 -1.81541e-07 0)
(-6.22444 -1.79556e-07 0)
(-6.21745 -1.77611e-07 0)
(-6.21055 -1.75726e-07 0)
(-6.20371 -1.73856e-07 0)
(-6.19695 -1.72014e-07 0)
(-6.19025 -1.70212e-07 0)
(-6.18364 -1.68467e-07 0)
(-6.17707 -1.66727e-07 0)
(-6.1706 -1.65017e-07 0)
(-6.16417 -1.63343e-07 0)
(-6.15782 -1.61724e-07 0)
(-6.15152 -1.60104e-07 0)
(-6.1453 -1.58517e-07 0)
(-6.13912 -1.56953e-07 0)
(-6.13302 -1.55448e-07 0)
(-6.12696 -1.53937e-07 0)
(-6.12098 -1.52463e-07 0)
(-6.11503 -1.50995e-07 0)
(-6.10917 -1.49594e-07 0)
(-6.10333 -1.48183e-07 0)
(-6.09758 -1.46817e-07 0)
(-6.09185 -1.45431e-07 0)
(-6.0862 -1.44128e-07 0)
(-6.08058 -1.42809e-07 0)
(-6.07503 -1.41547e-07 0)
(-6.06951 -1.40234e-07 0)
(-6.06406 -1.39026e-07 0)
(-6.05863 -1.37776e-07 0)
(-6.05329 -1.36624e-07 0)
(-6.04795 -1.35387e-07 0)
(-6.0427 -1.34267e-07 0)
(-6.03744 -1.33073e-07 0)
(-6.03229 -1.32022e-07 0)
(-6.02712 -1.30853e-07 0)
(-6.02206 -1.29831e-07 0)
(-6.01696 -1.2868e-07 0)
(-6.01199 -1.27725e-07 0)
(-6.00697 -1.26615e-07 0)
(-6.00209 -1.25708e-07 0)
(-5.99714 -1.24597e-07 0)
(-5.99234 -1.23741e-07 0)
(-5.98746 -1.22669e-07 0)
(-5.98275 -1.21888e-07 0)
(-5.97793 -1.20833e-07 0)
(-5.9733 -1.20098e-07 0)
(-5.96854 -1.19076e-07 0)
(-5.96398 -1.18411e-07 0)
(-5.95927 -1.17503e-07 0)
(-5.95479 -1.1679e-07 0)
(-5.95014 -1.16265e-07 0)
(-5.9457 -1.1493e-07 0)
(-5.94115 -1.16136e-07 0)
(-5.93661 -1.11711e-07 0)
(-5.93243 -1.19688e-07 0)
(-5.92723 -1.02531e-07 0)
(-5.92445 -1.32943e-07 0)
(-5.91675 -8.07532e-08 0)
(-5.91829 -1.11364e-07 0)
(-5.90776 -1.39702e-07 0)
)
;
    }
    symmetry
    {
        type            symmetryPlane;
    }
    frontAndBack
    {
        type            empty;
    }
}


// ************************************************************************* //
