/*--------------------------------*- C++ -*----------------------------------*\
| =========                 |                                                 |
| \\      /  F ield         | OpenFOAM: The Open Source CFD Toolbox           |
|  \\    /   O peration     | Version:  v2012                                 |
|   \\  /    A nd           | Website:  www.openfoam.com                      |
|    \\/     M anipulation  |                                                 |
\*---------------------------------------------------------------------------*/
FoamFile
{
    version     2.0;
    format      ascii;
    class       volScalarField;
    location    "46.5";
    object      yPlus;
}
// * * * * * * * * * * * * * * * * * * * * * * * * * * * * * * * * * * * * * //

dimensions      [0 0 0 0 0 0 0];


internalField   uniform 0;

boundaryField
{
    inlet
    {
        type            calculated;
        value           uniform 0;
    }
    outlet
    {
        type            calculated;
        value           uniform 0;
    }
    topWall
    {
        type            calculated;
        value           nonuniform List<scalar> 
545
(
0.111339
0.191981
0.246295
0.289519
0.326113
0.358134
0.386737
0.41265
0.436368
0.458246
0.47855
0.497488
0.515223
0.531887
0.54759
0.562425
0.576469
0.589789
0.602445
0.614486
0.625958
0.636901
0.647351
0.657339
0.666894
0.676044
0.684811
0.693218
0.701285
0.70903
0.716471
0.723622
0.7305
0.737116
0.743485
0.749618
0.755526
0.761219
0.766707
0.772
0.777105
0.782032
0.786787
0.791378
0.795812
0.800095
0.804234
0.808234
0.8121
0.815839
0.819455
0.822952
0.826336
0.82961
0.832779
0.835846
0.838816
0.841692
0.844477
0.847175
0.849788
0.852321
0.854775
0.857153
0.859458
0.861692
0.863859
0.86596
0.867997
0.869973
0.871889
0.873748
0.875528
0.877251
0.87896
0.880655
0.882337
0.884006
0.885662
0.887304
0.888934
0.890552
0.892156
0.893748
0.895328
0.896896
0.898452
0.899995
0.901527
0.903047
0.904555
0.906052
0.907538
0.909012
0.910475
0.911927
0.913235
0.914405
0.915575
0.916746
0.917916
0.919086
0.920255
0.921425
0.922594
0.923764
0.924933
0.926102
0.927271
0.92844
0.929608
0.930777
0.931945
0.933113
0.93428
0.935448
0.936615
0.937782
0.938949
0.940116
0.941282
0.942448
0.943614
0.94478
0.945945
0.94711
0.948275
0.949439
0.950604
0.951767
0.952931
0.954094
0.955257
0.95642
0.957582
0.958744
0.959905
0.961066
0.962227
0.963387
0.964547
0.965707
0.966866
0.968024
0.969183
0.97034
0.971498
0.972655
0.973811
0.974967
0.976122
0.977277
0.978432
0.979586
0.980739
0.981892
0.983045
0.984197
0.985348
0.986499
0.987649
0.988798
0.989947
0.991096
0.992244
0.993391
0.994538
0.995683
0.996829
0.997973
0.999117
1.00026
1.0014
1.00255
1.00369
1.00483
1.00597
1.00711
1.00824
1.00938
1.01052
1.01165
1.01279
1.01392
1.01506
1.01619
1.01732
1.01845
1.01959
1.02071
1.02184
1.02297
1.0241
1.02522
1.02635
1.02747
1.0286
1.02972
1.03084
1.03196
1.03308
1.0342
1.03532
1.03643
1.03755
1.03866
1.03978
1.04089
1.042
1.04311
1.04422
1.04533
1.04643
1.04754
1.04864
1.04975
1.05085
1.05195
1.05305
1.05415
1.05525
1.05634
1.05744
1.05853
1.05963
1.06072
1.06181
1.0629
1.06398
1.06507
1.06616
1.06724
1.06832
1.0694
1.07048
1.07156
1.07264
1.07371
1.07479
1.07586
1.07693
1.078
1.07907
1.08013
1.0812
1.08226
1.08333
1.08439
1.08545
1.0865
1.08756
1.08861
1.08967
1.09072
1.09177
1.09281
1.09386
1.0949
1.09595
1.09699
1.09803
1.09907
1.1001
1.10114
1.10217
1.1032
1.10423
1.10525
1.10628
1.10725
1.10816
1.10908
1.11
1.11093
1.11187
1.11281
1.11376
1.11472
1.11568
1.11665
1.11763
1.11861
1.1196
1.1206
1.1216
1.12261
1.12362
1.12465
1.12567
1.12671
1.12775
1.12879
1.12985
1.13091
1.13197
1.13304
1.13412
1.1352
1.13629
1.13739
1.13849
1.1396
1.14071
1.14183
1.14295
1.14408
1.14522
1.14636
1.14751
1.14866
1.14982
1.15098
1.15215
1.15332
1.1545
1.15568
1.15687
1.15807
1.15926
1.16047
1.16167
1.16288
1.1641
1.16532
1.16654
1.16777
1.169
1.17024
1.17148
1.17272
1.17397
1.17522
1.17647
1.17772
1.17898
1.18024
1.18151
1.18277
1.18404
1.18531
1.18658
1.18785
1.18913
1.19041
1.19168
1.19296
1.19424
1.19552
1.1968
1.19808
1.19936
1.20064
1.20191
1.20319
1.20447
1.20575
1.20702
1.20829
1.20956
1.21083
1.2121
1.21336
1.21462
1.21588
1.21713
1.21838
1.21963
1.22087
1.22211
1.22334
1.22456
1.22579
1.227
1.22821
1.22941
1.23061
1.2318
1.23298
1.23416
1.23532
1.23648
1.23763
1.23877
1.2399
1.24103
1.24214
1.24324
1.24433
1.24541
1.24648
1.24754
1.24858
1.24962
1.25064
1.25164
1.25264
1.25362
1.25458
1.25554
1.25647
1.2574
1.2583
1.2592
1.26007
1.26093
1.26177
1.2626
1.26341
1.2642
1.26497
1.26572
1.26646
1.26717
1.26787
1.26855
1.26921
1.26985
1.27047
1.27106
1.27164
1.2722
1.27273
1.27324
1.27373
1.2742
1.27465
1.27507
1.27548
1.27585
1.27621
1.27654
1.27685
1.27714
1.2774
1.27764
1.27786
1.27805
1.27822
1.27836
1.27848
1.27857
1.27865
1.27869
1.27872
1.27872
1.27869
1.27864
1.27857
1.27847
1.27835
1.27819
1.27798
1.27774
1.27747
1.27717
1.27685
1.2765
1.27613
1.27573
1.27531
1.27487
1.27442
1.27394
1.27345
1.27294
1.27242
1.27189
1.27134
1.27078
1.27021
1.26962
1.26903
1.26844
1.26783
1.26722
1.2666
1.26598
1.26535
1.26471
1.26408
1.26344
1.2628
1.26216
1.26152
1.26088
1.26024
1.2596
1.25896
1.25832
1.25769
1.25705
1.25643
1.2558
1.25518
1.25457
1.25396
1.25336
1.25276
1.25217
1.25159
1.25101
1.25044
1.24988
1.24933
1.24879
1.24825
1.24773
1.24721
1.24671
1.24621
1.24573
1.24526
1.2448
1.24435
1.24391
1.24348
1.24306
1.24266
1.24227
1.2419
1.24153
1.24118
1.24085
1.24052
1.24021
1.23992
1.23964
1.23937
1.23912
1.23888
1.23866
1.23845
1.23826
1.23808
1.23792
1.23777
1.23764
1.23752
1.23742
1.23734
1.23727
1.23722
1.23718
1.23716
1.23714
)
;
    }
    bottomWall
    {
        type            calculated;
        value           nonuniform List<scalar> 
449
(
0.139392
0.0889319
0.0757983
0.0694489
0.0653004
0.0622381
0.059871
0.0580853
0.0569751
0.0569064
0.0589111
0.0629931
0.0663027
0.0682884
0.0693644
0.0699433
0.0702261
0.0703197
0.0702727
0.0701502
0.069974
0.069764
0.0695367
0.0693017
0.0690648
0.0688294
0.0685974
0.0683703
0.0681491
0.0679342
0.0677256
0.0675235
0.0673276
0.0671378
0.066954
0.0667756
0.0666024
0.0664344
0.0662713
0.066113
0.0659592
0.0658096
0.0656642
0.0655226
0.0653847
0.0652503
0.0651193
0.0649914
0.0648667
0.0647446
0.0646249
0.0645073
0.0643918
0.0642783
0.0641668
0.0640573
0.0639499
0.0638443
0.0637406
0.0636388
0.0635387
0.0634404
0.0633438
0.0632488
0.0631554
0.0630635
0.0629731
0.0628841
0.0627966
0.0627104
0.0626255
0.0625418
0.0624594
0.0623781
0.0622981
0.0622192
0.0621414
0.0620647
0.0619891
0.0619145
0.061841
0.0617684
0.0616968
0.0616261
0.0615564
0.0614875
0.0614195
0.0613524
0.0612861
0.0612205
0.0611558
0.0610918
0.0610286
0.0609661
0.0609044
0.0608433
0.0607829
0.0607233
0.0606642
0.0606058
0.0605481
0.0604909
0.0604342
0.0603782
0.0603227
0.0602678
0.0602135
0.0601596
0.0601064
0.0600536
0.0600014
0.0599497
0.0598984
0.0598477
0.0597974
0.0597476
0.0596982
0.0596493
0.0596009
0.0595529
0.0595053
0.0594581
0.0594113
0.0593649
0.059319
0.0592734
0.0592282
0.0591833
0.0591389
0.0590948
0.059051
0.0590077
0.0589646
0.0589219
0.0588796
0.0588375
0.0587958
0.0587544
0.0587133
0.0586726
0.0586321
0.0585919
0.058552
0.0585125
0.0584731
0.0584341
0.0583954
0.0583569
0.0583186
0.0582806
0.0582429
0.0582054
0.0581682
0.0581312
0.0580945
0.058058
0.0580217
0.0579857
0.0579499
0.0579144
0.0578791
0.057844
0.0578091
0.0577744
0.05774
0.0577058
0.0576717
0.0576379
0.0576043
0.0575709
0.0575377
0.0575046
0.0574718
0.0574411
0.0574121
0.057383
0.0573538
0.0573245
0.0572951
0.0572657
0.0572361
0.0572064
0.0571766
0.0571468
0.0571168
0.0570867
0.0570566
0.0570263
0.056996
0.0569655
0.056935
0.0569043
0.0568736
0.0568428
0.0568119
0.0567809
0.0567498
0.0567186
0.0566874
0.056656
0.0566246
0.0565931
0.0565614
0.0565297
0.056498
0.0564661
0.0564342
0.0564021
0.05637
0.0563378
0.0563056
0.0562732
0.0562408
0.0562082
0.0561756
0.0561429
0.0561101
0.0560772
0.0560443
0.0560113
0.0559782
0.0559451
0.0559118
0.0558785
0.0558452
0.0558117
0.0557782
0.0557446
0.055711
0.0556773
0.0556435
0.0556097
0.0555758
0.0555418
0.0555078
0.0554737
0.0554395
0.0554053
0.0553711
0.0553367
0.0553023
0.0552679
0.0552334
0.0551988
0.0551642
0.0551295
0.0550948
0.05506
0.0550252
0.0549903
0.0549554
0.0549204
0.0548854
0.0548503
0.0548152
0.05478
0.0547448
0.0547095
0.0546742
0.0546389
0.0546035
0.054568
0.0545326
0.054497
0.0544615
0.0544259
0.0543902
0.0543546
0.0543189
0.0542831
0.0542473
0.0542115
0.0541757
0.0541398
0.0541038
0.0540678
0.0540318
0.0539957
0.0539596
0.0539235
0.0538874
0.0538512
0.053815
0.0537788
0.0537425
0.0537063
0.05367
0.0536337
0.0535973
0.053561
0.0535246
0.0534882
0.0534518
0.0534154
0.053379
0.0533426
0.0533061
0.0532697
0.0532332
0.0531967
0.0531602
0.0531237
0.0530872
0.0530507
0.0530142
0.0529777
0.0529412
0.0529046
0.0528681
0.0528316
0.0527951
0.0527585
0.052722
0.0526855
0.052649
0.0526125
0.052576
0.0525395
0.052503
0.0524665
0.05243
0.0523936
0.0523571
0.0523207
0.0522843
0.0522479
0.0522115
0.0521751
0.0521387
0.0521024
0.052066
0.0520296
0.0519933
0.051957
0.0519207
0.0518844
0.0518481
0.0518119
0.0517757
0.0517395
0.0517033
0.0516672
0.0516311
0.051595
0.0515589
0.0515229
0.0514869
0.051451
0.051415
0.0513791
0.0513433
0.0513075
0.0512717
0.0512359
0.0511962
0.0511529
0.0511103
0.0510682
0.0510267
0.0509858
0.0509454
0.0509055
0.0508663
0.0508275
0.0507892
0.0507514
0.0507141
0.0506773
0.050641
0.050605
0.0505696
0.0505346
0.0505
0.0504658
0.050432
0.0503986
0.0503656
0.050333
0.0503008
0.0502689
0.0502374
0.0502063
0.0501755
0.050145
0.0501149
0.050085
0.0500555
0.0500262
0.0499974
0.0499687
0.0499404
0.0499124
0.0498847
0.0498572
0.04983
0.0498031
0.0497765
0.04975
0.0497239
0.049698
0.0496724
0.049647
0.0496219
0.049597
0.0495723
0.0495478
0.0495236
0.0494996
0.0494758
0.0494522
0.0494289
0.0494057
0.0493827
0.0493599
0.0493374
0.049315
0.0492929
0.0492708
0.049249
0.0492273
0.0492059
0.0491845
0.0491635
0.0491425
0.0491218
0.049101
0.0490808
0.0490603
0.0490403
0.0490201
0.0490005
0.0489805
0.0489612
0.0489415
0.0489226
0.048903
0.0488844
0.0488651
0.0488467
0.0488276
0.0488094
0.0487907
0.0487721
0.0487549
0.0487335
0.0487221
0.0486904
0.0486968
0.0486534
)
;
    }
    symmetry
    {
        type            symmetryPlane;
    }
    frontAndBack
    {
        type            empty;
    }
}


// ************************************************************************* //
