/*--------------------------------*- C++ -*----------------------------------*\
| =========                 |                                                 |
| \\      /  F ield         | OpenFOAM: The Open Source CFD Toolbox           |
|  \\    /   O peration     | Version:  v2012                                 |
|   \\  /    A nd           | Website:  www.openfoam.com                      |
|    \\/     M anipulation  |                                                 |
\*---------------------------------------------------------------------------*/
FoamFile
{
    version     2.0;
    format      ascii;
    class       volVectorField;
    location    "6";
    object      wallShearStress;
}
// * * * * * * * * * * * * * * * * * * * * * * * * * * * * * * * * * * * * * //

dimensions      [0 2 -2 0 0 0 0];


internalField   uniform (0 0 0);

boundaryField
{
    inlet
    {
        type            calculated;
        value           uniform (0 0 0);
    }
    outlet
    {
        type            calculated;
        value           uniform (0 0 0);
    }
    topWall
    {
        type            calculated;
        value           nonuniform List<vector> 
545
(
(8.9109e-09 -6.25029e-09 0)
(8.9213e-09 -1.75837e-08 0)
(8.86586e-09 -2.92751e-08 0)
(8.83852e-09 -4.0609e-08 0)
(8.81343e-09 -5.14372e-08 0)
(8.78643e-09 -6.18998e-08 0)
(8.75618e-09 -7.20886e-08 0)
(8.72261e-09 -8.19997e-08 0)
(8.68595e-09 -9.16102e-08 0)
(8.64651e-09 -1.00918e-07 0)
(8.60456e-09 -1.09936e-07 0)
(8.56037e-09 -1.18673e-07 0)
(8.51419e-09 -1.27136e-07 0)
(8.46624e-09 -1.3533e-07 0)
(8.41676e-09 -1.43262e-07 0)
(8.36593e-09 -1.5094e-07 0)
(8.31395e-09 -1.58368e-07 0)
(8.26099e-09 -1.65556e-07 0)
(8.20721e-09 -1.72509e-07 0)
(8.15277e-09 -1.79234e-07 0)
(8.09779e-09 -1.85738e-07 0)
(8.04242e-09 -1.92027e-07 0)
(7.98676e-09 -1.98108e-07 0)
(7.93092e-09 -2.03988e-07 0)
(7.87499e-09 -2.09673e-07 0)
(7.81908e-09 -2.15168e-07 0)
(7.76326e-09 -2.2048e-07 0)
(7.7076e-09 -2.25616e-07 0)
(7.65217e-09 -2.3058e-07 0)
(7.59704e-09 -2.35378e-07 0)
(7.54225e-09 -2.40016e-07 0)
(7.48785e-09 -2.445e-07 0)
(7.4339e-09 -2.48833e-07 0)
(7.38042e-09 -2.53022e-07 0)
(7.32745e-09 -2.57071e-07 0)
(7.27502e-09 -2.60985e-07 0)
(7.22315e-09 -2.64769e-07 0)
(7.17188e-09 -2.68427e-07 0)
(7.12121e-09 -2.71963e-07 0)
(7.07116e-09 -2.75381e-07 0)
(7.02175e-09 -2.78686e-07 0)
(6.97298e-09 -2.81882e-07 0)
(6.92487e-09 -2.84971e-07 0)
(6.87741e-09 -2.87959e-07 0)
(6.83062e-09 -2.90848e-07 0)
(6.78449e-09 -2.93641e-07 0)
(6.73901e-09 -2.96343e-07 0)
(6.6942e-09 -2.98956e-07 0)
(6.65005e-09 -3.01483e-07 0)
(6.60654e-09 -3.03927e-07 0)
(6.56368e-09 -3.06292e-07 0)
(6.52146e-09 -3.08579e-07 0)
(6.47986e-09 -3.10791e-07 0)
(6.43888e-09 -3.12932e-07 0)
(6.39851e-09 -3.15003e-07 0)
(6.35874e-09 -3.17007e-07 0)
(6.31955e-09 -3.18946e-07 0)
(6.28094e-09 -3.20822e-07 0)
(6.24288e-09 -3.22637e-07 0)
(6.20538e-09 -3.24394e-07 0)
(6.1684e-09 -3.26095e-07 0)
(6.13194e-09 -3.27741e-07 0)
(6.09598e-09 -3.29333e-07 0)
(6.06051e-09 -3.30875e-07 0)
(6.02551e-09 -3.32368e-07 0)
(5.99097e-09 -3.33813e-07 0)
(5.95686e-09 -3.35211e-07 0)
(5.92317e-09 -3.36565e-07 0)
(5.88994e-09 -3.37877e-07 0)
(5.85683e-09 -3.39143e-07 0)
(5.82525e-09 -3.40385e-07 0)
(5.78907e-09 -3.4155e-07 0)
(5.75527e-09 -3.42684e-07 0)
(5.73022e-09 -3.4382e-07 0)
(5.70534e-09 -3.44893e-07 0)
(5.68057e-09 -3.45959e-07 0)
(5.65585e-09 -3.47028e-07 0)
(5.63118e-09 -3.48091e-07 0)
(5.60654e-09 -3.49142e-07 0)
(5.58196e-09 -3.50182e-07 0)
(5.55741e-09 -3.51212e-07 0)
(5.53292e-09 -3.52234e-07 0)
(5.50846e-09 -3.53247e-07 0)
(5.48405e-09 -3.5425e-07 0)
(5.45969e-09 -3.55245e-07 0)
(5.43538e-09 -3.5623e-07 0)
(5.41111e-09 -3.57207e-07 0)
(5.38689e-09 -3.58175e-07 0)
(5.36272e-09 -3.59134e-07 0)
(5.33859e-09 -3.60084e-07 0)
(5.31454e-09 -3.61027e-07 0)
(5.29042e-09 -3.61958e-07 0)
(5.26687e-09 -3.62891e-07 0)
(5.24111e-09 -3.63783e-07 0)
(5.22485e-09 -3.64807e-07 0)
(5.16842e-09 -3.65542e-07 0)
(5.10116e-09 -3.66257e-07 0)
(5.07853e-09 -3.67219e-07 0)
(5.05971e-09 -3.67895e-07 0)
(5.04197e-09 -3.68534e-07 0)
(5.02437e-09 -3.69232e-07 0)
(5.00678e-09 -3.69959e-07 0)
(4.98914e-09 -3.70676e-07 0)
(4.97144e-09 -3.71382e-07 0)
(4.95369e-09 -3.72085e-07 0)
(4.93588e-09 -3.7279e-07 0)
(4.91801e-09 -3.73496e-07 0)
(4.90008e-09 -3.742e-07 0)
(4.88209e-09 -3.74903e-07 0)
(4.86405e-09 -3.75605e-07 0)
(4.84595e-09 -3.76306e-07 0)
(4.82778e-09 -3.77006e-07 0)
(4.80956e-09 -3.77705e-07 0)
(4.79128e-09 -3.78404e-07 0)
(4.77294e-09 -3.79101e-07 0)
(4.75454e-09 -3.79797e-07 0)
(4.73609e-09 -3.80492e-07 0)
(4.71757e-09 -3.81186e-07 0)
(4.699e-09 -3.81879e-07 0)
(4.68036e-09 -3.8257e-07 0)
(4.66167e-09 -3.83261e-07 0)
(4.64292e-09 -3.83951e-07 0)
(4.62411e-09 -3.84639e-07 0)
(4.60524e-09 -3.85326e-07 0)
(4.58631e-09 -3.86012e-07 0)
(4.56733e-09 -3.86697e-07 0)
(4.54829e-09 -3.8738e-07 0)
(4.52918e-09 -3.88062e-07 0)
(4.51002e-09 -3.88743e-07 0)
(4.49081e-09 -3.89423e-07 0)
(4.47153e-09 -3.90101e-07 0)
(4.4522e-09 -3.90778e-07 0)
(4.4328e-09 -3.91454e-07 0)
(4.41335e-09 -3.92128e-07 0)
(4.39385e-09 -3.92801e-07 0)
(4.37428e-09 -3.93473e-07 0)
(4.35466e-09 -3.94143e-07 0)
(4.33498e-09 -3.94811e-07 0)
(4.31524e-09 -3.95478e-07 0)
(4.29545e-09 -3.96144e-07 0)
(4.2756e-09 -3.96808e-07 0)
(4.25569e-09 -3.97471e-07 0)
(4.23573e-09 -3.98132e-07 0)
(4.21571e-09 -3.98792e-07 0)
(4.19563e-09 -3.9945e-07 0)
(4.1755e-09 -4.00106e-07 0)
(4.15531e-09 -4.00761e-07 0)
(4.13507e-09 -4.01414e-07 0)
(4.11477e-09 -4.02065e-07 0)
(4.09441e-09 -4.02715e-07 0)
(4.074e-09 -4.03363e-07 0)
(4.05354e-09 -4.04009e-07 0)
(4.03301e-09 -4.04654e-07 0)
(4.01244e-09 -4.05297e-07 0)
(3.99181e-09 -4.05938e-07 0)
(3.97112e-09 -4.06577e-07 0)
(3.95038e-09 -4.07214e-07 0)
(3.92959e-09 -4.0785e-07 0)
(3.90874e-09 -4.08483e-07 0)
(3.88784e-09 -4.09115e-07 0)
(3.86689e-09 -4.09745e-07 0)
(3.84588e-09 -4.10373e-07 0)
(3.82482e-09 -4.10999e-07 0)
(3.80371e-09 -4.11623e-07 0)
(3.78254e-09 -4.12245e-07 0)
(3.76132e-09 -4.12865e-07 0)
(3.74005e-09 -4.13483e-07 0)
(3.71873e-09 -4.14099e-07 0)
(3.69736e-09 -4.14713e-07 0)
(3.67593e-09 -4.15324e-07 0)
(3.65445e-09 -4.15934e-07 0)
(3.63293e-09 -4.16541e-07 0)
(3.61135e-09 -4.17147e-07 0)
(3.58972e-09 -4.1775e-07 0)
(3.56804e-09 -4.18351e-07 0)
(3.54632e-09 -4.18949e-07 0)
(3.52454e-09 -4.19546e-07 0)
(3.50271e-09 -4.2014e-07 0)
(3.48084e-09 -4.20731e-07 0)
(3.45891e-09 -4.21321e-07 0)
(3.43694e-09 -4.21908e-07 0)
(3.41492e-09 -4.22493e-07 0)
(3.39286e-09 -4.23075e-07 0)
(3.37074e-09 -4.23655e-07 0)
(3.34858e-09 -4.24232e-07 0)
(3.32637e-09 -4.24807e-07 0)
(3.30412e-09 -4.2538e-07 0)
(3.28182e-09 -4.2595e-07 0)
(3.25947e-09 -4.26517e-07 0)
(3.23708e-09 -4.27082e-07 0)
(3.21464e-09 -4.27645e-07 0)
(3.19216e-09 -4.28204e-07 0)
(3.16963e-09 -4.28762e-07 0)
(3.14706e-09 -4.29316e-07 0)
(3.12445e-09 -4.29868e-07 0)
(3.1018e-09 -4.30417e-07 0)
(3.0791e-09 -4.30963e-07 0)
(3.05636e-09 -4.31507e-07 0)
(3.03357e-09 -4.32048e-07 0)
(3.01075e-09 -4.32586e-07 0)
(2.98789e-09 -4.33121e-07 0)
(2.96498e-09 -4.33654e-07 0)
(2.94203e-09 -4.34183e-07 0)
(2.91905e-09 -4.3471e-07 0)
(2.89602e-09 -4.35234e-07 0)
(2.87296e-09 -4.35755e-07 0)
(2.84986e-09 -4.36273e-07 0)
(2.82671e-09 -4.36788e-07 0)
(2.80354e-09 -4.373e-07 0)
(2.78032e-09 -4.37809e-07 0)
(2.75707e-09 -4.38314e-07 0)
(2.73378e-09 -4.38817e-07 0)
(2.71045e-09 -4.39317e-07 0)
(2.68709e-09 -4.39813e-07 0)
(2.6637e-09 -4.40307e-07 0)
(2.64027e-09 -4.40797e-07 0)
(2.61681e-09 -4.41284e-07 0)
(2.59331e-09 -4.41768e-07 0)
(2.56978e-09 -4.42249e-07 0)
(2.54622e-09 -4.42726e-07 0)
(2.52263e-09 -4.432e-07 0)
(2.49901e-09 -4.43671e-07 0)
(2.47535e-09 -4.44138e-07 0)
(2.45167e-09 -4.44602e-07 0)
(2.42795e-09 -4.45063e-07 0)
(2.40421e-09 -4.4552e-07 0)
(2.38043e-09 -4.45974e-07 0)
(2.35663e-09 -4.46425e-07 0)
(2.33281e-09 -4.46871e-07 0)
(2.30895e-09 -4.47315e-07 0)
(2.28507e-09 -4.47755e-07 0)
(2.26116e-09 -4.48191e-07 0)
(2.23723e-09 -4.48624e-07 0)
(2.21327e-09 -4.49053e-07 0)
(2.18929e-09 -4.49478e-07 0)
(2.16529e-09 -4.499e-07 0)
(2.14126e-09 -4.50318e-07 0)
(2.11722e-09 -4.50733e-07 0)
(2.09315e-09 -4.51144e-07 0)
(2.06905e-09 -4.51551e-07 0)
(2.04494e-09 -4.51954e-07 0)
(2.02081e-09 -4.52353e-07 0)
(1.99666e-09 -4.52749e-07 0)
(1.97249e-09 -4.53141e-07 0)
(1.94831e-09 -4.53529e-07 0)
(1.92411e-09 -4.53913e-07 0)
(1.89989e-09 -4.54293e-07 0)
(1.87565e-09 -4.54669e-07 0)
(1.8514e-09 -4.55041e-07 0)
(1.82714e-09 -4.55409e-07 0)
(1.80286e-09 -4.55774e-07 0)
(1.77857e-09 -4.56134e-07 0)
(1.75427e-09 -4.5649e-07 0)
(1.72995e-09 -4.56842e-07 0)
(1.70563e-09 -4.5719e-07 0)
(1.68129e-09 -4.57534e-07 0)
(1.65695e-09 -4.57873e-07 0)
(1.63259e-09 -4.58209e-07 0)
(1.60823e-09 -4.5854e-07 0)
(1.58386e-09 -4.58867e-07 0)
(1.55949e-09 -4.5919e-07 0)
(1.53511e-09 -4.59509e-07 0)
(1.51072e-09 -4.59823e-07 0)
(1.48634e-09 -4.60133e-07 0)
(1.46189e-09 -4.60437e-07 0)
(1.43774e-09 -4.60747e-07 0)
(1.41227e-09 -4.6102e-07 0)
(1.39235e-09 -4.61427e-07 0)
(1.34913e-09 -4.61559e-07 0)
(1.29836e-09 -4.61724e-07 0)
(1.27429e-09 -4.62203e-07 0)
(1.25475e-09 -4.62423e-07 0)
(1.23613e-09 -4.62594e-07 0)
(1.2175e-09 -4.62816e-07 0)
(1.19872e-09 -4.63067e-07 0)
(1.17971e-09 -4.63311e-07 0)
(1.16048e-09 -4.63545e-07 0)
(1.14102e-09 -4.63774e-07 0)
(1.12133e-09 -4.64005e-07 0)
(1.10141e-09 -4.64235e-07 0)
(1.08125e-09 -4.64464e-07 0)
(1.06087e-09 -4.6469e-07 0)
(1.04026e-09 -4.64914e-07 0)
(1.01942e-09 -4.65136e-07 0)
(9.98355e-10 -4.65356e-07 0)
(9.77058e-10 -4.65574e-07 0)
(9.55531e-10 -4.65789e-07 0)
(9.33778e-10 -4.66002e-07 0)
(9.11796e-10 -4.66212e-07 0)
(8.89588e-10 -4.6642e-07 0)
(8.67154e-10 -4.66624e-07 0)
(8.44494e-10 -4.66825e-07 0)
(8.21609e-10 -4.67023e-07 0)
(7.98501e-10 -4.67218e-07 0)
(7.75169e-10 -4.67409e-07 0)
(7.51616e-10 -4.67596e-07 0)
(7.27841e-10 -4.6778e-07 0)
(7.03847e-10 -4.67959e-07 0)
(6.79634e-10 -4.68135e-07 0)
(6.55203e-10 -4.68306e-07 0)
(6.30557e-10 -4.68472e-07 0)
(6.05695e-10 -4.68634e-07 0)
(5.8062e-10 -4.68791e-07 0)
(5.55334e-10 -4.68943e-07 0)
(5.29838e-10 -4.69089e-07 0)
(5.04134e-10 -4.6923e-07 0)
(4.78223e-10 -4.69366e-07 0)
(4.52108e-10 -4.69496e-07 0)
(4.25791e-10 -4.69619e-07 0)
(3.99274e-10 -4.69737e-07 0)
(3.72559e-10 -4.69848e-07 0)
(3.45649e-10 -4.69952e-07 0)
(3.18546e-10 -4.7005e-07 0)
(2.91253e-10 -4.7014e-07 0)
(2.63772e-10 -4.70223e-07 0)
(2.36107e-10 -4.70299e-07 0)
(2.0826e-10 -4.70367e-07 0)
(1.80235e-10 -4.70427e-07 0)
(1.52034e-10 -4.70479e-07 0)
(1.23662e-10 -4.70522e-07 0)
(9.51207e-11 -4.70556e-07 0)
(6.64152e-11 -4.70582e-07 0)
(3.75488e-11 -4.70598e-07 0)
(8.52542e-12 -4.70605e-07 0)
(-2.06508e-11 -4.70602e-07 0)
(-4.99756e-11 -4.70589e-07 0)
(-7.94446e-11 -4.70566e-07 0)
(-1.09053e-10 -4.70533e-07 0)
(-1.38797e-10 -4.70488e-07 0)
(-1.68671e-10 -4.70433e-07 0)
(-1.9867e-10 -4.70366e-07 0)
(-2.28788e-10 -4.70287e-07 0)
(-2.59022e-10 -4.70197e-07 0)
(-2.89364e-10 -4.70094e-07 0)
(-3.19809e-10 -4.69979e-07 0)
(-3.50352e-10 -4.69851e-07 0)
(-3.80986e-10 -4.6971e-07 0)
(-4.11706e-10 -4.69555e-07 0)
(-4.42503e-10 -4.69387e-07 0)
(-4.73373e-10 -4.69204e-07 0)
(-5.04308e-10 -4.69008e-07 0)
(-5.35301e-10 -4.68796e-07 0)
(-5.66346e-10 -4.6857e-07 0)
(-5.97434e-10 -4.68328e-07 0)
(-6.28558e-10 -4.68071e-07 0)
(-6.5971e-10 -4.67798e-07 0)
(-6.90883e-10 -4.67508e-07 0)
(-7.22068e-10 -4.67202e-07 0)
(-7.53257e-10 -4.66879e-07 0)
(-7.84442e-10 -4.66538e-07 0)
(-8.15613e-10 -4.6618e-07 0)
(-8.46762e-10 -4.65804e-07 0)
(-8.7788e-10 -4.6541e-07 0)
(-9.08957e-10 -4.64997e-07 0)
(-9.39984e-10 -4.64565e-07 0)
(-9.70951e-10 -4.64114e-07 0)
(-1.00185e-09 -4.63644e-07 0)
(-1.03267e-09 -4.63153e-07 0)
(-1.06339e-09 -4.62642e-07 0)
(-1.09402e-09 -4.6211e-07 0)
(-1.12454e-09 -4.61558e-07 0)
(-1.15493e-09 -4.60984e-07 0)
(-1.18519e-09 -4.60389e-07 0)
(-1.21531e-09 -4.59771e-07 0)
(-1.24527e-09 -4.59131e-07 0)
(-1.27506e-09 -4.58469e-07 0)
(-1.30468e-09 -4.57784e-07 0)
(-1.33411e-09 -4.57075e-07 0)
(-1.36333e-09 -4.56343e-07 0)
(-1.39234e-09 -4.55587e-07 0)
(-1.42112e-09 -4.54806e-07 0)
(-1.44967e-09 -4.54002e-07 0)
(-1.47796e-09 -4.53172e-07 0)
(-1.50599e-09 -4.52317e-07 0)
(-1.53374e-09 -4.51437e-07 0)
(-1.56121e-09 -4.50531e-07 0)
(-1.58837e-09 -4.49599e-07 0)
(-1.61522e-09 -4.48641e-07 0)
(-1.64173e-09 -4.47656e-07 0)
(-1.66791e-09 -4.46645e-07 0)
(-1.69374e-09 -4.45607e-07 0)
(-1.71919e-09 -4.44541e-07 0)
(-1.74427e-09 -4.43448e-07 0)
(-1.76895e-09 -4.42327e-07 0)
(-1.79323e-09 -4.41178e-07 0)
(-1.81708e-09 -4.40001e-07 0)
(-1.84051e-09 -4.38796e-07 0)
(-1.86348e-09 -4.37562e-07 0)
(-1.886e-09 -4.36299e-07 0)
(-1.90805e-09 -4.35008e-07 0)
(-1.92961e-09 -4.33688e-07 0)
(-1.95068e-09 -4.32338e-07 0)
(-1.97123e-09 -4.30959e-07 0)
(-1.99126e-09 -4.29551e-07 0)
(-2.01076e-09 -4.28113e-07 0)
(-2.02971e-09 -4.26646e-07 0)
(-2.04811e-09 -4.25149e-07 0)
(-2.06593e-09 -4.23623e-07 0)
(-2.08317e-09 -4.22066e-07 0)
(-2.09982e-09 -4.2048e-07 0)
(-2.11587e-09 -4.18865e-07 0)
(-2.1313e-09 -4.17219e-07 0)
(-2.1461e-09 -4.15544e-07 0)
(-2.16027e-09 -4.13839e-07 0)
(-2.1738e-09 -4.12105e-07 0)
(-2.18667e-09 -4.10341e-07 0)
(-2.19888e-09 -4.08548e-07 0)
(-2.21041e-09 -4.06725e-07 0)
(-2.22127e-09 -4.04873e-07 0)
(-2.23144e-09 -4.02993e-07 0)
(-2.24091e-09 -4.01083e-07 0)
(-2.24968e-09 -3.99145e-07 0)
(-2.25774e-09 -3.97179e-07 0)
(-2.26508e-09 -3.95184e-07 0)
(-2.27171e-09 -3.93162e-07 0)
(-2.2776e-09 -3.91112e-07 0)
(-2.28277e-09 -3.89035e-07 0)
(-2.2872e-09 -3.8693e-07 0)
(-2.2909e-09 -3.84799e-07 0)
(-2.29385e-09 -3.82642e-07 0)
(-2.29606e-09 -3.80459e-07 0)
(-2.29753e-09 -3.78251e-07 0)
(-2.29825e-09 -3.76017e-07 0)
(-2.29822e-09 -3.73759e-07 0)
(-2.29745e-09 -3.71477e-07 0)
(-2.29593e-09 -3.69171e-07 0)
(-2.29367e-09 -3.66842e-07 0)
(-2.29066e-09 -3.64491e-07 0)
(-2.28691e-09 -3.62117e-07 0)
(-2.28243e-09 -3.59722e-07 0)
(-2.27722e-09 -3.57306e-07 0)
(-2.27127e-09 -3.5487e-07 0)
(-2.26461e-09 -3.52414e-07 0)
(-2.25722e-09 -3.4994e-07 0)
(-2.24913e-09 -3.47447e-07 0)
(-2.24033e-09 -3.44936e-07 0)
(-2.23084e-09 -3.42409e-07 0)
(-2.22066e-09 -3.39865e-07 0)
(-2.20981e-09 -3.37306e-07 0)
(-2.19828e-09 -3.34732e-07 0)
(-2.18609e-09 -3.32144e-07 0)
(-2.17326e-09 -3.29543e-07 0)
(-2.15979e-09 -3.2693e-07 0)
(-2.14569e-09 -3.24305e-07 0)
(-2.13098e-09 -3.21669e-07 0)
(-2.11566e-09 -3.19025e-07 0)
(-2.0998e-09 -3.16361e-07 0)
(-2.08314e-09 -3.13723e-07 0)
(-2.06683e-09 -3.10931e-07 0)
(-2.04611e-09 -3.08404e-07 0)
(-2.01997e-09 -3.0553e-07 0)
(-1.99506e-09 -3.02057e-07 0)
(-1.9717e-09 -2.98877e-07 0)
(-1.94847e-09 -2.95767e-07 0)
(-1.92504e-09 -2.92643e-07 0)
(-1.90133e-09 -2.89533e-07 0)
(-1.87737e-09 -2.86469e-07 0)
(-1.85319e-09 -2.83453e-07 0)
(-1.82881e-09 -2.80478e-07 0)
(-1.80428e-09 -2.7754e-07 0)
(-1.77963e-09 -2.7464e-07 0)
(-1.75488e-09 -2.71781e-07 0)
(-1.73005e-09 -2.68963e-07 0)
(-1.70518e-09 -2.66184e-07 0)
(-1.68028e-09 -2.63446e-07 0)
(-1.65538e-09 -2.60749e-07 0)
(-1.63049e-09 -2.58091e-07 0)
(-1.60563e-09 -2.55474e-07 0)
(-1.58082e-09 -2.52897e-07 0)
(-1.55608e-09 -2.5036e-07 0)
(-1.53141e-09 -2.47863e-07 0)
(-1.50683e-09 -2.45406e-07 0)
(-1.48236e-09 -2.42988e-07 0)
(-1.45799e-09 -2.4061e-07 0)
(-1.43374e-09 -2.38272e-07 0)
(-1.40962e-09 -2.35972e-07 0)
(-1.38564e-09 -2.33712e-07 0)
(-1.36179e-09 -2.3149e-07 0)
(-1.3381e-09 -2.29306e-07 0)
(-1.31455e-09 -2.27161e-07 0)
(-1.29116e-09 -2.25054e-07 0)
(-1.26793e-09 -2.22984e-07 0)
(-1.24485e-09 -2.20952e-07 0)
(-1.22194e-09 -2.18958e-07 0)
(-1.19919e-09 -2.17e-07 0)
(-1.17661e-09 -2.15078e-07 0)
(-1.15419e-09 -2.13194e-07 0)
(-1.13194e-09 -2.11345e-07 0)
(-1.10985e-09 -2.09532e-07 0)
(-1.08792e-09 -2.07755e-07 0)
(-1.06616e-09 -2.06013e-07 0)
(-1.04456e-09 -2.04306e-07 0)
(-1.02311e-09 -2.02634e-07 0)
(-1.00182e-09 -2.00996e-07 0)
(-9.80687e-10 -1.99393e-07 0)
(-9.59703e-10 -1.97824e-07 0)
(-9.38867e-10 -1.96289e-07 0)
(-9.18177e-10 -1.94787e-07 0)
(-8.97628e-10 -1.93319e-07 0)
(-8.77218e-10 -1.91883e-07 0)
(-8.56943e-10 -1.90481e-07 0)
(-8.36799e-10 -1.89111e-07 0)
(-8.16783e-10 -1.87774e-07 0)
(-7.96891e-10 -1.86469e-07 0)
(-7.77118e-10 -1.85197e-07 0)
(-7.57461e-10 -1.83956e-07 0)
(-7.37917e-10 -1.82746e-07 0)
(-7.1848e-10 -1.81569e-07 0)
(-6.99147e-10 -1.80422e-07 0)
(-6.79913e-10 -1.79307e-07 0)
(-6.60776e-10 -1.78223e-07 0)
(-6.4173e-10 -1.77169e-07 0)
(-6.22771e-10 -1.76147e-07 0)
(-6.03897e-10 -1.75155e-07 0)
(-5.85102e-10 -1.74193e-07 0)
(-5.66383e-10 -1.73262e-07 0)
(-5.47736e-10 -1.72361e-07 0)
(-5.29157e-10 -1.7149e-07 0)
(-5.10643e-10 -1.70649e-07 0)
(-4.9219e-10 -1.69838e-07 0)
(-4.73795e-10 -1.69057e-07 0)
(-4.55455e-10 -1.68306e-07 0)
(-4.37166e-10 -1.67584e-07 0)
(-4.18925e-10 -1.66891e-07 0)
(-4.00729e-10 -1.66229e-07 0)
(-3.82576e-10 -1.65595e-07 0)
(-3.64462e-10 -1.64991e-07 0)
(-3.46386e-10 -1.64416e-07 0)
(-3.28344e-10 -1.6387e-07 0)
(-3.10336e-10 -1.63354e-07 0)
(-2.92359e-10 -1.62867e-07 0)
(-2.7441e-10 -1.62408e-07 0)
(-2.56488e-10 -1.61979e-07 0)
(-2.3859e-10 -1.61579e-07 0)
(-2.20712e-10 -1.61207e-07 0)
(-2.02847e-10 -1.60865e-07 0)
(-1.84985e-10 -1.60548e-07 0)
(-1.67119e-10 -1.60275e-07 0)
(-1.49205e-10 -1.59982e-07 0)
(-1.31324e-10 -1.59875e-07 0)
(-1.131e-10 -1.59264e-07 0)
(-9.60212e-11 -1.60386e-07 0)
(-7.46321e-11 -1.55456e-07 0)
(-7.14356e-11 -1.68101e-07 0)
(-4.09364e-11 -1.46724e-07 0)
)
;
    }
    bottomWall
    {
        type            calculated;
        value           nonuniform List<vector> 
449
(
(-48.7959 -0.967775 0)
(-19.8536 -0.00518261 0)
(-14.4274 -0.00113711 0)
(-12.122 -0.000542362 0)
(-10.7354 -0.0003444 0)
(-9.77408 -0.000245566 0)
(-9.0591 -0.000185483 0)
(-8.5062 -0.000145091 0)
(-8.06587 -0.000116657 0)
(-7.70634 -9.59638e-05 0)
(-7.40674 -8.04182e-05 0)
(-7.15295 -6.84068e-05 0)
(-6.93509 -5.8915e-05 0)
(-6.74595 -5.12767e-05 0)
(-6.58015 -4.50336e-05 0)
(-6.4336 -3.9861e-05 0)
(-6.30311 -3.55247e-05 0)
(-6.18619 -3.18525e-05 0)
(-6.08083 -2.87149e-05 0)
(-5.9854 -2.60124e-05 0)
(-5.89855 -2.36681e-05 0)
(-5.8192 -2.16212e-05 0)
(-5.74642 -1.98232e-05 0)
(-5.67943 -1.82354e-05 0)
(-5.61757 -1.68263e-05 0)
(-5.56028 -1.55699e-05 0)
(-5.50709 -1.4445e-05 0)
(-5.45757 -1.3434e-05 0)
(-5.41136 -1.2522e-05 0)
(-5.36815 -1.16964e-05 0)
(-5.32766 -1.09469e-05 0)
(-5.28965 -1.02643e-05 0)
(-5.2539 -9.64096e-06 0)
(-5.22022 -9.07027e-06 0)
(-5.18844 -8.54651e-06 0)
(-5.15841 -8.0647e-06 0)
(-5.12998 -7.62052e-06 0)
(-5.10305 -7.21019e-06 0)
(-5.0775 -6.8304e-06 0)
(-5.05323 -6.47821e-06 0)
(-5.03014 -6.15106e-06 0)
(-5.00816 -5.84665e-06 0)
(-4.98721 -5.56295e-06 0)
(-4.96723 -5.29816e-06 0)
(-4.94815 -5.05065e-06 0)
(-4.92991 -4.81898e-06 0)
(-4.91246 -4.60184e-06 0)
(-4.89575 -4.39808e-06 0)
(-4.87975 -4.20662e-06 0)
(-4.8644 -4.02653e-06 0)
(-4.84967 -3.85693e-06 0)
(-4.83552 -3.69705e-06 0)
(-4.82193 -3.54617e-06 0)
(-4.80886 -3.40364e-06 0)
(-4.79628 -3.26888e-06 0)
(-4.78417 -3.14134e-06 0)
(-4.77251 -3.02052e-06 0)
(-4.76126 -2.90598e-06 0)
(-4.75042 -2.7973e-06 0)
(-4.73995 -2.6941e-06 0)
(-4.72985 -2.59602e-06 0)
(-4.72009 -2.50275e-06 0)
(-4.71066 -2.41398e-06 0)
(-4.70154 -2.32943e-06 0)
(-4.69272 -2.24885e-06 0)
(-4.68418 -2.17201e-06 0)
(-4.67591 -2.09868e-06 0)
(-4.66791 -2.02866e-06 0)
(-4.66015 -1.96176e-06 0)
(-4.65263 -1.8978e-06 0)
(-4.64534 -1.83663e-06 0)
(-4.63827 -1.77808e-06 0)
(-4.6314 -1.72201e-06 0)
(-4.62474 -1.66829e-06 0)
(-4.61827 -1.6168e-06 0)
(-4.61198 -1.56742e-06 0)
(-4.60587 -1.52004e-06 0)
(-4.59994 -1.47456e-06 0)
(-4.59416 -1.43088e-06 0)
(-4.58855 -1.38891e-06 0)
(-4.58308 -1.34857e-06 0)
(-4.57776 -1.30978e-06 0)
(-4.57258 -1.27246e-06 0)
(-4.56754 -1.23654e-06 0)
(-4.56263 -1.20196e-06 0)
(-4.55785 -1.16866e-06 0)
(-4.55318 -1.13657e-06 0)
(-4.54864 -1.10563e-06 0)
(-4.5442 -1.07581e-06 0)
(-4.53988 -1.04704e-06 0)
(-4.53566 -1.01929e-06 0)
(-4.53155 -9.92494e-07 0)
(-4.52753 -9.66626e-07 0)
(-4.52361 -9.41642e-07 0)
(-4.51978 -9.17504e-07 0)
(-4.51604 -8.94177e-07 0)
(-4.51239 -8.71625e-07 0)
(-4.50882 -8.49818e-07 0)
(-4.50533 -8.28725e-07 0)
(-4.50192 -8.08316e-07 0)
(-4.49859 -7.88563e-07 0)
(-4.49533 -7.69441e-07 0)
(-4.49214 -7.50924e-07 0)
(-4.48903 -7.32988e-07 0)
(-4.48598 -7.1561e-07 0)
(-4.48299 -6.9877e-07 0)
(-4.48007 -6.82445e-07 0)
(-4.47721 -6.66618e-07 0)
(-4.47441 -6.51268e-07 0)
(-4.47167 -6.36379e-07 0)
(-4.46898 -6.21932e-07 0)
(-4.46635 -6.07912e-07 0)
(-4.46377 -5.94303e-07 0)
(-4.46125 -5.8109e-07 0)
(-4.45877 -5.68259e-07 0)
(-4.45634 -5.55796e-07 0)
(-4.45396 -5.43688e-07 0)
(-4.45163 -5.31923e-07 0)
(-4.44935 -5.20488e-07 0)
(-4.4471 -5.09372e-07 0)
(-4.4449 -4.98564e-07 0)
(-4.44274 -4.88054e-07 0)
(-4.44062 -4.7783e-07 0)
(-4.43855 -4.67885e-07 0)
(-4.43651 -4.58208e-07 0)
(-4.4345 -4.4879e-07 0)
(-4.43254 -4.39624e-07 0)
(-4.43061 -4.307e-07 0)
(-4.42871 -4.22011e-07 0)
(-4.42685 -4.13549e-07 0)
(-4.42502 -4.05307e-07 0)
(-4.42322 -3.97278e-07 0)
(-4.42146 -3.89455e-07 0)
(-4.41973 -3.81831e-07 0)
(-4.41802 -3.74401e-07 0)
(-4.41635 -3.67158e-07 0)
(-4.4147 -3.60097e-07 0)
(-4.41308 -3.53211e-07 0)
(-4.41149 -3.46495e-07 0)
(-4.40993 -3.39945e-07 0)
(-4.40839 -3.33555e-07 0)
(-4.40687 -3.27321e-07 0)
(-4.40539 -3.21237e-07 0)
(-4.40392 -3.15299e-07 0)
(-4.40248 -3.09504e-07 0)
(-4.40106 -3.03846e-07 0)
(-4.39967 -2.98322e-07 0)
(-4.3983 -2.92927e-07 0)
(-4.39695 -2.87658e-07 0)
(-4.39562 -2.8251e-07 0)
(-4.39431 -2.77481e-07 0)
(-4.39302 -2.72567e-07 0)
(-4.39175 -2.67763e-07 0)
(-4.3905 -2.63068e-07 0)
(-4.38927 -2.58476e-07 0)
(-4.38806 -2.53986e-07 0)
(-4.38687 -2.49592e-07 0)
(-4.38569 -2.45292e-07 0)
(-4.38453 -2.41081e-07 0)
(-4.38339 -2.36954e-07 0)
(-4.38227 -2.32908e-07 0)
(-4.38116 -2.28934e-07 0)
(-4.38007 -2.25026e-07 0)
(-4.379 -2.21173e-07 0)
(-4.37794 -2.17358e-07 0)
(-4.3769 -2.1356e-07 0)
(-4.37587 -2.09742e-07 0)
(-4.37486 -2.05851e-07 0)
(-4.37387 -2.0164e-07 0)
(-4.3729 -1.9781e-07 0)
(-4.37194 -1.89867e-07 0)
(-4.37104 -1.88076e-07 0)
(-4.37009 -1.946e-07 0)
(-4.36918 -1.89198e-07 0)
(-4.36838 -1.67777e-07 0)
(-4.3677 -1.51583e-07 0)
(-4.36704 -1.49202e-07 0)
(-4.36636 -1.49892e-07 0)
(-4.36568 -1.51773e-07 0)
(-4.36497 -1.54015e-07 0)
(-4.36424 -1.56223e-07 0)
(-4.3635 -1.58188e-07 0)
(-4.36273 -1.59827e-07 0)
(-4.36195 -1.61131e-07 0)
(-4.36116 -1.62122e-07 0)
(-4.36035 -1.62832e-07 0)
(-4.35953 -1.63291e-07 0)
(-4.3587 -1.63525e-07 0)
(-4.35786 -1.63559e-07 0)
(-4.35701 -1.63413e-07 0)
(-4.35615 -1.63107e-07 0)
(-4.35528 -1.62657e-07 0)
(-4.35441 -1.62076e-07 0)
(-4.35353 -1.61378e-07 0)
(-4.35264 -1.60574e-07 0)
(-4.35175 -1.59673e-07 0)
(-4.35085 -1.58686e-07 0)
(-4.34995 -1.57619e-07 0)
(-4.34905 -1.5648e-07 0)
(-4.34814 -1.55277e-07 0)
(-4.34723 -1.54014e-07 0)
(-4.34632 -1.52698e-07 0)
(-4.34541 -1.51334e-07 0)
(-4.34449 -1.49926e-07 0)
(-4.34358 -1.48479e-07 0)
(-4.34266 -1.46996e-07 0)
(-4.34174 -1.45481e-07 0)
(-4.34082 -1.43938e-07 0)
(-4.33991 -1.4237e-07 0)
(-4.33899 -1.40779e-07 0)
(-4.33807 -1.39169e-07 0)
(-4.33715 -1.37542e-07 0)
(-4.33624 -1.35901e-07 0)
(-4.33532 -1.34247e-07 0)
(-4.33441 -1.32582e-07 0)
(-4.3335 -1.3091e-07 0)
(-4.33259 -1.2923e-07 0)
(-4.33168 -1.27546e-07 0)
(-4.33077 -1.25858e-07 0)
(-4.32987 -1.24168e-07 0)
(-4.32897 -1.22478e-07 0)
(-4.32807 -1.20789e-07 0)
(-4.32717 -1.19102e-07 0)
(-4.32628 -1.17418e-07 0)
(-4.32539 -1.15738e-07 0)
(-4.32451 -1.14063e-07 0)
(-4.32362 -1.12395e-07 0)
(-4.32274 -1.10733e-07 0)
(-4.32187 -1.09079e-07 0)
(-4.321 -1.07434e-07 0)
(-4.32013 -1.05798e-07 0)
(-4.31927 -1.04173e-07 0)
(-4.31841 -1.02558e-07 0)
(-4.31755 -1.00954e-07 0)
(-4.3167 -9.93616e-08 0)
(-4.31585 -9.77816e-08 0)
(-4.31501 -9.62143e-08 0)
(-4.31417 -9.46602e-08 0)
(-4.31334 -9.31196e-08 0)
(-4.31251 -9.15928e-08 0)
(-4.31169 -9.00804e-08 0)
(-4.31087 -8.85825e-08 0)
(-4.31006 -8.70995e-08 0)
(-4.30925 -8.56315e-08 0)
(-4.30845 -8.41789e-08 0)
(-4.30765 -8.27419e-08 0)
(-4.30686 -8.13205e-08 0)
(-4.30607 -7.99151e-08 0)
(-4.30528 -7.85257e-08 0)
(-4.30451 -7.71525e-08 0)
(-4.30374 -7.57957e-08 0)
(-4.30297 -7.44552e-08 0)
(-4.30221 -7.31313e-08 0)
(-4.30145 -7.18239e-08 0)
(-4.3007 -7.05331e-08 0)
(-4.29996 -6.9259e-08 0)
(-4.29922 -6.80015e-08 0)
(-4.29849 -6.67607e-08 0)
(-4.29776 -6.55366e-08 0)
(-4.29704 -6.43292e-08 0)
(-4.29632 -6.31385e-08 0)
(-4.29561 -6.19644e-08 0)
(-4.29491 -6.0807e-08 0)
(-4.29421 -5.96661e-08 0)
(-4.29351 -5.85417e-08 0)
(-4.29282 -5.74338e-08 0)
(-4.29214 -5.63422e-08 0)
(-4.29147 -5.52668e-08 0)
(-4.2908 -5.42077e-08 0)
(-4.29013 -5.31647e-08 0)
(-4.28947 -5.21376e-08 0)
(-4.28882 -5.11265e-08 0)
(-4.28817 -5.01312e-08 0)
(-4.28753 -4.91516e-08 0)
(-4.2869 -4.81876e-08 0)
(-4.28627 -4.7239e-08 0)
(-4.28564 -4.63057e-08 0)
(-4.28502 -4.53877e-08 0)
(-4.28441 -4.44846e-08 0)
(-4.2838 -4.35965e-08 0)
(-4.2832 -4.27232e-08 0)
(-4.28261 -4.18645e-08 0)
(-4.28202 -4.10202e-08 0)
(-4.28143 -4.01903e-08 0)
(-4.28085 -3.93746e-08 0)
(-4.28028 -3.8573e-08 0)
(-4.27971 -3.77852e-08 0)
(-4.27915 -3.70111e-08 0)
(-4.2786 -3.62507e-08 0)
(-4.27804 -3.55036e-08 0)
(-4.2775 -3.47698e-08 0)
(-4.27696 -3.4049e-08 0)
(-4.27643 -3.33412e-08 0)
(-4.2759 -3.26461e-08 0)
(-4.27537 -3.19637e-08 0)
(-4.27486 -3.12937e-08 0)
(-4.27434 -3.06359e-08 0)
(-4.27384 -2.99903e-08 0)
(-4.27334 -2.93567e-08 0)
(-4.27284 -2.87348e-08 0)
(-4.27235 -2.81245e-08 0)
(-4.27186 -2.75257e-08 0)
(-4.27138 -2.69382e-08 0)
(-4.27091 -2.63619e-08 0)
(-4.27044 -2.57964e-08 0)
(-4.26997 -2.52419e-08 0)
(-4.26951 -2.46979e-08 0)
(-4.26906 -2.41645e-08 0)
(-4.26861 -2.36414e-08 0)
(-4.26816 -2.31285e-08 0)
(-4.26772 -2.26256e-08 0)
(-4.26729 -2.21326e-08 0)
(-4.26686 -2.16492e-08 0)
(-4.26643 -2.11754e-08 0)
(-4.26601 -2.07111e-08 0)
(-4.2656 -2.02559e-08 0)
(-4.26518 -1.98099e-08 0)
(-4.26478 -1.93728e-08 0)
(-4.26438 -1.89445e-08 0)
(-4.26398 -1.85249e-08 0)
(-4.26359 -1.81138e-08 0)
(-4.2632 -1.7711e-08 0)
(-4.26282 -1.73165e-08 0)
(-4.26244 -1.69301e-08 0)
(-4.26206 -1.65516e-08 0)
(-4.26169 -1.61809e-08 0)
(-4.26133 -1.58179e-08 0)
(-4.26097 -1.54625e-08 0)
(-4.26061 -1.51144e-08 0)
(-4.26026 -1.47737e-08 0)
(-4.25991 -1.44401e-08 0)
(-4.25957 -1.41135e-08 0)
(-4.25923 -1.37938e-08 0)
(-4.25889 -1.34809e-08 0)
(-4.25856 -1.31747e-08 0)
(-4.25823 -1.2875e-08 0)
(-4.25791 -1.25818e-08 0)
(-4.25759 -1.22949e-08 0)
(-4.25727 -1.20142e-08 0)
(-4.25696 -1.17397e-08 0)
(-4.25665 -1.14713e-08 0)
(-4.25635 -1.12089e-08 0)
(-4.25605 -1.09525e-08 0)
(-4.25575 -1.07022e-08 0)
(-4.25546 -1.04579e-08 0)
(-4.25517 -1.02199e-08 0)
(-4.25488 -9.98862e-09 0)
(-4.2546 -9.76517e-09 0)
(-4.25432 -9.55117e-09 0)
(-4.25404 -9.3533e-09 0)
(-4.25377 -9.17004e-09 0)
(-4.2535 -9.16509e-09 0)
(-4.25322 -8.60334e-09 0)
(-4.25297 -1.10338e-08 0)
(-4.25248 -1.39755e-08 0)
(-4.25194 -1.31363e-08 0)
(-4.25147 -1.15359e-08 0)
(-4.25106 -9.92091e-09 0)
(-4.25071 -8.69646e-09 0)
(-4.2504 -7.80353e-09 0)
(-4.25012 -7.1185e-09 0)
(-4.24986 -6.56014e-09 0)
(-4.24962 -6.0883e-09 0)
(-4.2494 -5.68205e-09 0)
(-4.24919 -5.32731e-09 0)
(-4.249 -5.01347e-09 0)
(-4.24881 -4.73276e-09 0)
(-4.24864 -4.47952e-09 0)
(-4.24848 -4.24951e-09 0)
(-4.24832 -4.03937e-09 0)
(-4.24818 -3.8464e-09 0)
(-4.24804 -3.6684e-09 0)
(-4.2479 -3.50356e-09 0)
(-4.24777 -3.3504e-09 0)
(-4.24765 -3.20764e-09 0)
(-4.24753 -3.07423e-09 0)
(-4.24742 -2.94925e-09 0)
(-4.24732 -2.83189e-09 0)
(-4.24721 -2.72147e-09 0)
(-4.24711 -2.61741e-09 0)
(-4.24702 -2.51915e-09 0)
(-4.24693 -2.42624e-09 0)
(-4.24684 -2.33825e-09 0)
(-4.24675 -2.25483e-09 0)
(-4.24667 -2.17562e-09 0)
(-4.24659 -2.10034e-09 0)
(-4.24651 -2.02871e-09 0)
(-4.24644 -1.96049e-09 0)
(-4.24637 -1.89545e-09 0)
(-4.2463 -1.83339e-09 0)
(-4.24623 -1.77413e-09 0)
(-4.24617 -1.71749e-09 0)
(-4.24611 -1.66331e-09 0)
(-4.24605 -1.61146e-09 0)
(-4.24599 -1.5618e-09 0)
(-4.24593 -1.5142e-09 0)
(-4.24587 -1.46856e-09 0)
(-4.24582 -1.42476e-09 0)
(-4.24577 -1.38271e-09 0)
(-4.24572 -1.34232e-09 0)
(-4.24567 -1.30351e-09 0)
(-4.24562 -1.26618e-09 0)
(-4.24558 -1.23028e-09 0)
(-4.24553 -1.19572e-09 0)
(-4.24549 -1.16245e-09 0)
(-4.24545 -1.1304e-09 0)
(-4.24541 -1.09952e-09 0)
(-4.24537 -1.06975e-09 0)
(-4.24533 -1.04105e-09 0)
(-4.24529 -1.01336e-09 0)
(-4.24525 -9.86633e-10 0)
(-4.24522 -9.6084e-10 0)
(-4.24518 -9.35935e-10 0)
(-4.24515 -9.11882e-10 0)
(-4.24512 -8.88642e-10 0)
(-4.24508 -8.66186e-10 0)
(-4.24505 -8.44482e-10 0)
(-4.24502 -8.23499e-10 0)
(-4.24499 -8.03207e-10 0)
(-4.24496 -7.83584e-10 0)
(-4.24493 -7.64603e-10 0)
(-4.24491 -7.46245e-10 0)
(-4.24488 -7.28483e-10 0)
(-4.24485 -7.11298e-10 0)
(-4.24483 -6.94673e-10 0)
(-4.2448 -6.78592e-10 0)
(-4.24478 -6.63039e-10 0)
(-4.24475 -6.47997e-10 0)
(-4.24473 -6.3346e-10 0)
(-4.24471 -6.19418e-10 0)
(-4.24468 -6.05865e-10 0)
(-4.24466 -5.92799e-10 0)
(-4.24464 -5.80224e-10 0)
(-4.24462 -5.68157e-10 0)
(-4.2446 -5.56606e-10 0)
(-4.24458 -5.45624e-10 0)
(-4.24456 -5.3524e-10 0)
(-4.24454 -5.25617e-10 0)
(-4.24452 -5.16786e-10 0)
(-4.2445 -5.09367e-10 0)
(-4.24448 -5.02922e-10 0)
(-4.24447 -5.01705e-10 0)
(-4.24445 -4.96583e-10 0)
(-4.24443 -5.37379e-10 0)
(-4.24441 -4.55985e-10 0)
(-4.2444 -1.11616e-09 0)
(-4.24432 8.11879e-10 0)
(-4.24446 7.51653e-11 0)
(-4.24432 -2.04974e-09 0)
)
;
    }
    symmetry
    {
        type            symmetryPlane;
    }
    frontAndBack
    {
        type            empty;
    }
}


// ************************************************************************* //
