/*--------------------------------*- C++ -*----------------------------------*\
| =========                 |                                                 |
| \\      /  F ield         | OpenFOAM: The Open Source CFD Toolbox           |
|  \\    /   O peration     | Version:  v2012                                 |
|   \\  /    A nd           | Website:  www.openfoam.com                      |
|    \\/     M anipulation  |                                                 |
\*---------------------------------------------------------------------------*/
FoamFile
{
    version     2.0;
    format      ascii;
    class       volScalarField;
    location    "6";
    object      yPlus;
}
// * * * * * * * * * * * * * * * * * * * * * * * * * * * * * * * * * * * * * //

dimensions      [0 0 0 0 0 0 0];


internalField   uniform 0;

boundaryField
{
    inlet
    {
        type            calculated;
        value           uniform 0;
    }
    outlet
    {
        type            calculated;
        value           uniform 0;
    }
    topWall
    {
        type            calculated;
        value           nonuniform List<scalar> 
545
(
0.0546693
0.0946314
0.121292
0.14247
0.160378
0.176029
0.18999
0.202616
0.214149
0.224765
0.234595
0.24374
0.252281
0.260284
0.267804
0.274886
0.281569
0.287888
0.293871
0.299544
0.304931
0.31005
0.314922
0.319561
0.323983
0.328201
0.332228
0.336075
0.339753
0.34327
0.346635
0.349858
0.352945
0.355903
0.35874
0.361461
0.364072
0.366578
0.368985
0.371296
0.373518
0.375653
0.377707
0.379681
0.381581
0.38341
0.38517
0.386864
0.388496
0.390068
0.391582
0.393041
0.394448
0.395804
0.397112
0.398373
0.39959
0.400763
0.401896
0.402989
0.404044
0.405062
0.406045
0.406995
0.407912
0.408798
0.409653
0.41048
0.411279
0.412051
0.412796
0.413518
0.414204
0.414867
0.415523
0.416172
0.416815
0.41745
0.418079
0.418702
0.419318
0.419927
0.420531
0.421128
0.421719
0.422303
0.422882
0.423454
0.424021
0.424582
0.425137
0.425686
0.426229
0.426768
0.427299
0.427828
0.428295
0.428711
0.429127
0.429541
0.429955
0.430368
0.430779
0.43119
0.4316
0.43201
0.432418
0.432825
0.433232
0.433637
0.434042
0.434446
0.434848
0.43525
0.435651
0.436051
0.43645
0.436848
0.437245
0.43764
0.438035
0.438429
0.438822
0.439214
0.439605
0.439995
0.440383
0.440771
0.441158
0.441543
0.441928
0.442311
0.442694
0.443075
0.443455
0.443834
0.444212
0.444588
0.444964
0.445338
0.445712
0.446084
0.446455
0.446825
0.447193
0.44756
0.447927
0.448292
0.448655
0.449018
0.449379
0.449739
0.450098
0.450455
0.450811
0.451166
0.45152
0.451872
0.452223
0.452573
0.452921
0.453268
0.453614
0.453958
0.454301
0.454643
0.454983
0.455322
0.45566
0.455996
0.45633
0.456664
0.456995
0.457326
0.457655
0.457982
0.458308
0.458633
0.458956
0.459277
0.459597
0.459916
0.460233
0.460548
0.460862
0.461174
0.461485
0.461794
0.462102
0.462408
0.462713
0.463015
0.463317
0.463616
0.463914
0.464211
0.464505
0.464799
0.46509
0.46538
0.465668
0.465954
0.466239
0.466521
0.466803
0.467082
0.46736
0.467636
0.46791
0.468182
0.468453
0.468721
0.468988
0.469254
0.469517
0.469778
0.470038
0.470296
0.470552
0.470806
0.471058
0.471308
0.471557
0.471803
0.472048
0.47229
0.472531
0.47277
0.473007
0.473241
0.473474
0.473705
0.473934
0.474161
0.474385
0.474608
0.474829
0.475048
0.475264
0.475479
0.475691
0.475902
0.47611
0.476316
0.47652
0.476722
0.476922
0.477119
0.477315
0.477508
0.477699
0.477888
0.478075
0.478259
0.478442
0.478622
0.4788
0.478975
0.479149
0.47932
0.479489
0.479655
0.479819
0.479981
0.480141
0.480298
0.480453
0.480606
0.480757
0.480892
0.481018
0.481143
0.481267
0.481391
0.481514
0.481637
0.481759
0.48188
0.482001
0.48212
0.482239
0.482356
0.482473
0.482589
0.482703
0.482816
0.482928
0.483039
0.483148
0.483255
0.483362
0.483466
0.483569
0.48367
0.483769
0.483866
0.483962
0.484055
0.484146
0.484235
0.484321
0.484405
0.484486
0.484565
0.484641
0.484714
0.484785
0.484852
0.484916
0.484977
0.485035
0.485089
0.48514
0.485187
0.48523
0.48527
0.485305
0.485336
0.485363
0.485386
0.485404
0.485418
0.485427
0.485431
0.48543
0.485424
0.485412
0.485395
0.485373
0.485344
0.48531
0.48527
0.485224
0.485172
0.485113
0.485047
0.484975
0.484895
0.484809
0.484715
0.484614
0.484505
0.484389
0.484265
0.484132
0.483991
0.483842
0.483684
0.483517
0.483341
0.483157
0.482962
0.482758
0.482545
0.482321
0.482088
0.481844
0.481589
0.481324
0.481048
0.480761
0.480463
0.480153
0.479832
0.479498
0.479153
0.478795
0.478425
0.478042
0.477647
0.477238
0.476817
0.476381
0.475933
0.47547
0.474993
0.474503
0.473997
0.473478
0.472943
0.472394
0.471829
0.471249
0.470654
0.470043
0.469417
0.468774
0.468115
0.46744
0.466748
0.46604
0.465315
0.464573
0.463814
0.463038
0.462245
0.461434
0.460605
0.459759
0.458895
0.458014
0.457114
0.456196
0.45526
0.454306
0.453333
0.452342
0.451333
0.450305
0.449258
0.448193
0.44711
0.446008
0.444887
0.443748
0.44259
0.441414
0.440219
0.439006
0.437775
0.436525
0.435257
0.43397
0.432666
0.431344
0.430003
0.428645
0.42727
0.425877
0.424467
0.42304
0.421596
0.420135
0.418658
0.417165
0.415655
0.41413
0.412589
0.411034
0.409463
0.407877
0.406278
0.404664
0.403037
0.401396
0.399742
0.398076
0.396397
0.394707
0.393004
0.391105
0.389021
0.38695
0.384893
0.382849
0.380819
0.378804
0.376804
0.37482
0.372851
0.370899
0.368964
0.367046
0.365146
0.363263
0.361398
0.359552
0.357725
0.355916
0.354126
0.352356
0.350605
0.348874
0.347163
0.345472
0.343801
0.34215
0.34052
0.33891
0.337322
0.335753
0.334206
0.33268
0.331175
0.329691
0.328228
0.326787
0.325367
0.323968
0.322591
0.321236
0.319903
0.318591
0.317301
0.316033
0.314787
0.313563
0.312361
0.311182
0.310024
0.30889
0.307777
0.306687
0.305619
0.304575
0.303552
0.302553
0.301577
0.300623
0.299692
0.298785
0.297901
0.29704
0.296202
0.295388
0.294598
0.293831
0.293087
0.292368
0.291673
0.291001
0.290353
0.28973
0.289131
0.288556
0.288006
0.28748
0.286979
0.286502
0.286051
0.285624
0.285221
0.284844
0.284492
0.284165
0.283863
0.283586
0.283334
0.283108
0.282907
0.282732
0.282583
0.282457
0.282369
0.282252
)
;
    }
    bottomWall
    {
        type            calculated;
        value           nonuniform List<scalar> 
449
(
0.139831
0.0891913
0.0760319
0.0696931
0.065586
0.0625807
0.0602483
0.0583808
0.0568496
0.0555682
0.0544773
0.0535359
0.0527143
0.0519905
0.0513476
0.0507725
0.050255
0.0497868
0.0493609
0.0489721
0.0486155
0.0482874
0.0479845
0.0477039
0.0474434
0.0472009
0.0469746
0.0467629
0.0465645
0.0463783
0.046203
0.0460379
0.0458821
0.0457348
0.0455953
0.0454632
0.0453378
0.0452186
0.0451052
0.0449973
0.0448944
0.0447962
0.0447024
0.0446128
0.044527
0.0444448
0.0443661
0.0442906
0.0442182
0.0441486
0.0440817
0.0440173
0.0439554
0.0438958
0.0438384
0.043783
0.0437296
0.043678
0.0436283
0.0435802
0.0435337
0.0434888
0.0434453
0.0434032
0.0433625
0.043323
0.0432848
0.0432477
0.0432118
0.0431769
0.043143
0.0431102
0.0430783
0.0430473
0.0430172
0.0429879
0.0429594
0.0429317
0.0429047
0.0428785
0.042853
0.0428281
0.0428039
0.0427803
0.0427572
0.0427348
0.042713
0.0426916
0.0426708
0.0426505
0.0426307
0.0426114
0.0425925
0.042574
0.042556
0.0425384
0.0425212
0.0425044
0.0424879
0.0424718
0.0424561
0.0424407
0.0424257
0.042411
0.0423965
0.0423824
0.0423686
0.0423551
0.0423419
0.0423289
0.0423162
0.0423037
0.0422915
0.0422795
0.0422678
0.0422563
0.042245
0.0422339
0.0422231
0.0422125
0.042202
0.0421918
0.0421817
0.0421718
0.0421621
0.0421526
0.0421433
0.0421341
0.0421251
0.0421162
0.0421075
0.042099
0.0420906
0.0420823
0.0420742
0.0420662
0.0420584
0.0420507
0.0420431
0.0420356
0.0420283
0.0420211
0.042014
0.042007
0.0420001
0.0419934
0.0419867
0.0419802
0.0419737
0.0419674
0.0419611
0.041955
0.0419489
0.041943
0.0419371
0.0419313
0.0419256
0.04192
0.0419145
0.041909
0.0419036
0.0418983
0.0418931
0.041888
0.0418829
0.0418779
0.041873
0.0418682
0.0418634
0.0418588
0.0418542
0.0418499
0.0418453
0.041841
0.0418372
0.0418339
0.0418307
0.0418275
0.0418242
0.0418208
0.0418173
0.0418138
0.0418101
0.0418064
0.0418026
0.0417987
0.0417948
0.0417908
0.0417867
0.0417827
0.0417785
0.0417744
0.0417702
0.041766
0.0417617
0.0417574
0.0417531
0.0417488
0.0417445
0.0417401
0.0417358
0.0417314
0.041727
0.0417226
0.0417182
0.0417138
0.0417094
0.041705
0.0417006
0.0416962
0.0416918
0.0416874
0.041683
0.0416786
0.0416742
0.0416698
0.0416654
0.041661
0.0416567
0.0416523
0.041648
0.0416437
0.0416394
0.0416351
0.0416308
0.0416265
0.0416223
0.0416181
0.0416138
0.0416097
0.0416055
0.0416013
0.0415972
0.0415931
0.041589
0.0415849
0.0415808
0.0415768
0.0415728
0.0415688
0.0415648
0.0415609
0.0415569
0.041553
0.0415492
0.0415453
0.0415415
0.0415377
0.0415339
0.0415302
0.0415265
0.0415228
0.0415191
0.0415154
0.0415118
0.0415082
0.0415047
0.0415011
0.0414976
0.0414941
0.0414907
0.0414872
0.0414838
0.0414805
0.0414771
0.0414738
0.0414705
0.0414672
0.041464
0.0414608
0.0414576
0.0414544
0.0414513
0.0414482
0.0414451
0.0414421
0.0414391
0.0414361
0.0414331
0.0414302
0.0414273
0.0414244
0.0414215
0.0414187
0.0414159
0.0414131
0.0414104
0.0414077
0.041405
0.0414023
0.0413997
0.0413971
0.0413945
0.0413919
0.0413894
0.0413869
0.0413844
0.041382
0.0413795
0.0413771
0.0413747
0.0413724
0.0413701
0.0413678
0.0413655
0.0413632
0.041361
0.0413588
0.0413566
0.0413545
0.0413523
0.0413502
0.0413481
0.0413461
0.0413441
0.041342
0.04134
0.0413381
0.0413361
0.0413342
0.0413323
0.0413304
0.0413286
0.0413267
0.0413249
0.0413231
0.0413214
0.0413196
0.0413179
0.0413162
0.0413145
0.0413128
0.0413112
0.0413095
0.0413079
0.0413063
0.0413048
0.0413032
0.0413017
0.0413002
0.0412987
0.0412972
0.0412957
0.0412943
0.0412929
0.0412915
0.0412901
0.0412887
0.0412873
0.041286
0.0412847
0.0412834
0.041282
0.0412808
0.0412784
0.0412758
0.0412735
0.0412715
0.0412698
0.0412683
0.041267
0.0412657
0.0412645
0.0412635
0.0412625
0.0412615
0.0412606
0.0412598
0.041259
0.0412583
0.0412575
0.0412569
0.0412562
0.0412556
0.041255
0.0412544
0.0412539
0.0412534
0.0412529
0.0412524
0.0412519
0.0412515
0.041251
0.0412506
0.0412502
0.0412498
0.0412495
0.0412491
0.0412488
0.0412484
0.0412481
0.0412478
0.0412475
0.0412472
0.0412469
0.0412466
0.0412464
0.0412461
0.0412458
0.0412456
0.0412454
0.0412451
0.0412449
0.0412447
0.0412445
0.0412443
0.0412441
0.0412439
0.0412437
0.0412435
0.0412433
0.0412432
0.041243
0.0412428
0.0412427
0.0412425
0.0412424
0.0412422
0.0412421
0.0412419
0.0412418
0.0412417
0.0412415
0.0412414
0.0412413
0.0412411
0.041241
0.0412409
0.0412408
0.0412407
0.0412406
0.0412405
0.0412404
0.0412403
0.0412402
0.0412401
0.04124
0.0412399
0.0412398
0.0412397
0.0412396
0.0412395
0.0412394
0.0412393
0.0412392
0.0412392
0.0412388
0.0412395
0.0412388
)
;
    }
    symmetry
    {
        type            symmetryPlane;
    }
    frontAndBack
    {
        type            empty;
    }
}


// ************************************************************************* //
