/*--------------------------------*- C++ -*----------------------------------*\
| =========                 |                                                 |
| \\      /  F ield         | OpenFOAM: The Open Source CFD Toolbox           |
|  \\    /   O peration     | Version:  v2012                                 |
|   \\  /    A nd           | Website:  www.openfoam.com                      |
|    \\/     M anipulation  |                                                 |
\*---------------------------------------------------------------------------*/
FoamFile
{
    version     2.0;
    format      ascii;
    class       volVectorField;
    location    "50";
    object      wallShearStress;
}
// * * * * * * * * * * * * * * * * * * * * * * * * * * * * * * * * * * * * * //

dimensions      [0 2 -2 0 0 0 0];


internalField   uniform (0 0 0);

boundaryField
{
    inlet
    {
        type            calculated;
        value           uniform (0 0 0);
    }
    outlet
    {
        type            calculated;
        value           uniform (0 0 0);
    }
    topWall
    {
        type            calculated;
        value           nonuniform List<vector> 
545
(
(1.48727e-08 -1.04691e-08 0)
(1.48659e-08 -2.92886e-08 0)
(1.48521e-08 -4.88565e-08 0)
(1.48317e-08 -6.78505e-08 0)
(1.48055e-08 -8.60235e-08 0)
(1.47742e-08 -1.03607e-07 0)
(1.47383e-08 -1.20748e-07 0)
(1.46981e-08 -1.37439e-07 0)
(1.46539e-08 -1.5364e-07 0)
(1.46062e-08 -1.69351e-07 0)
(1.45553e-08 -1.84592e-07 0)
(1.45016e-08 -1.9938e-07 0)
(1.44454e-08 -2.13726e-07 0)
(1.43869e-08 -2.27639e-07 0)
(1.43265e-08 -2.41128e-07 0)
(1.42643e-08 -2.54205e-07 0)
(1.42007e-08 -2.66881e-07 0)
(1.41359e-08 -2.79168e-07 0)
(1.40699e-08 -2.91075e-07 0)
(1.40032e-08 -3.02613e-07 0)
(1.39357e-08 -3.13794e-07 0)
(1.38678e-08 -3.24627e-07 0)
(1.37994e-08 -3.35123e-07 0)
(1.37309e-08 -3.45291e-07 0)
(1.36622e-08 -3.55142e-07 0)
(1.35936e-08 -3.64685e-07 0)
(1.35251e-08 -3.7393e-07 0)
(1.34567e-08 -3.82885e-07 0)
(1.33888e-08 -3.91561e-07 0)
(1.33212e-08 -3.99964e-07 0)
(1.3254e-08 -4.08105e-07 0)
(1.31874e-08 -4.15992e-07 0)
(1.31214e-08 -4.23632e-07 0)
(1.30561e-08 -4.31033e-07 0)
(1.29914e-08 -4.38204e-07 0)
(1.29275e-08 -4.4515e-07 0)
(1.28644e-08 -4.51881e-07 0)
(1.28021e-08 -4.58402e-07 0)
(1.27407e-08 -4.64721e-07 0)
(1.26801e-08 -4.70844e-07 0)
(1.26204e-08 -4.76777e-07 0)
(1.25617e-08 -4.82526e-07 0)
(1.25038e-08 -4.88098e-07 0)
(1.2447e-08 -4.93498e-07 0)
(1.2391e-08 -4.98732e-07 0)
(1.23361e-08 -5.03806e-07 0)
(1.22821e-08 -5.08724e-07 0)
(1.22291e-08 -5.13491e-07 0)
(1.2177e-08 -5.18113e-07 0)
(1.21259e-08 -5.22593e-07 0)
(1.20759e-08 -5.26938e-07 0)
(1.20267e-08 -5.31151e-07 0)
(1.19786e-08 -5.35236e-07 0)
(1.19314e-08 -5.39197e-07 0)
(1.18852e-08 -5.43039e-07 0)
(1.18399e-08 -5.46765e-07 0)
(1.17955e-08 -5.5038e-07 0)
(1.17521e-08 -5.53885e-07 0)
(1.17096e-08 -5.57287e-07 0)
(1.1668e-08 -5.60586e-07 0)
(1.16273e-08 -5.63787e-07 0)
(1.15875e-08 -5.66893e-07 0)
(1.15486e-08 -5.69907e-07 0)
(1.15105e-08 -5.72832e-07 0)
(1.14733e-08 -5.7567e-07 0)
(1.14369e-08 -5.78424e-07 0)
(1.14013e-08 -5.81098e-07 0)
(1.13665e-08 -5.83693e-07 0)
(1.13326e-08 -5.86212e-07 0)
(1.12994e-08 -5.88657e-07 0)
(1.12669e-08 -5.91031e-07 0)
(1.12355e-08 -5.93333e-07 0)
(1.12049e-08 -5.95545e-07 0)
(1.11749e-08 -5.97689e-07 0)
(1.11451e-08 -5.99807e-07 0)
(1.11155e-08 -6.01912e-07 0)
(1.10859e-08 -6.04006e-07 0)
(1.10564e-08 -6.06084e-07 0)
(1.1027e-08 -6.08147e-07 0)
(1.09976e-08 -6.10195e-07 0)
(1.09683e-08 -6.12227e-07 0)
(1.0939e-08 -6.14246e-07 0)
(1.09098e-08 -6.16249e-07 0)
(1.08807e-08 -6.18239e-07 0)
(1.08516e-08 -6.20213e-07 0)
(1.08226e-08 -6.22174e-07 0)
(1.07936e-08 -6.2412e-07 0)
(1.07647e-08 -6.26052e-07 0)
(1.07359e-08 -6.27971e-07 0)
(1.07072e-08 -6.29875e-07 0)
(1.06785e-08 -6.31766e-07 0)
(1.06498e-08 -6.33642e-07 0)
(1.06213e-08 -6.35506e-07 0)
(1.05929e-08 -6.37355e-07 0)
(1.05642e-08 -6.39195e-07 0)
(1.0537e-08 -6.41001e-07 0)
(1.05119e-08 -6.42655e-07 0)
(1.04876e-08 -6.4415e-07 0)
(1.04642e-08 -6.45605e-07 0)
(1.04409e-08 -6.47066e-07 0)
(1.04175e-08 -6.48538e-07 0)
(1.03941e-08 -6.50013e-07 0)
(1.03706e-08 -6.51485e-07 0)
(1.03469e-08 -6.52956e-07 0)
(1.03232e-08 -6.54427e-07 0)
(1.02994e-08 -6.55898e-07 0)
(1.02755e-08 -6.5737e-07 0)
(1.02516e-08 -6.58842e-07 0)
(1.02275e-08 -6.60314e-07 0)
(1.02033e-08 -6.61785e-07 0)
(1.01791e-08 -6.63257e-07 0)
(1.01547e-08 -6.64729e-07 0)
(1.01302e-08 -6.662e-07 0)
(1.01057e-08 -6.67672e-07 0)
(1.00811e-08 -6.69143e-07 0)
(1.00563e-08 -6.70615e-07 0)
(1.00315e-08 -6.72086e-07 0)
(1.00066e-08 -6.73557e-07 0)
(9.98155e-09 -6.75027e-07 0)
(9.95644e-09 -6.76498e-07 0)
(9.93123e-09 -6.77968e-07 0)
(9.90593e-09 -6.79438e-07 0)
(9.88054e-09 -6.80908e-07 0)
(9.85505e-09 -6.82377e-07 0)
(9.82946e-09 -6.83846e-07 0)
(9.80379e-09 -6.85315e-07 0)
(9.77801e-09 -6.86783e-07 0)
(9.75214e-09 -6.88251e-07 0)
(9.72618e-09 -6.89718e-07 0)
(9.70012e-09 -6.91185e-07 0)
(9.67397e-09 -6.92651e-07 0)
(9.64772e-09 -6.94117e-07 0)
(9.62138e-09 -6.95583e-07 0)
(9.59494e-09 -6.97047e-07 0)
(9.56841e-09 -6.98511e-07 0)
(9.54179e-09 -6.99975e-07 0)
(9.51506e-09 -7.01438e-07 0)
(9.48825e-09 -7.029e-07 0)
(9.46133e-09 -7.04362e-07 0)
(9.43433e-09 -7.05823e-07 0)
(9.40723e-09 -7.07283e-07 0)
(9.38003e-09 -7.08742e-07 0)
(9.35274e-09 -7.10201e-07 0)
(9.32535e-09 -7.11658e-07 0)
(9.29787e-09 -7.13115e-07 0)
(9.2703e-09 -7.14571e-07 0)
(9.24263e-09 -7.16026e-07 0)
(9.21486e-09 -7.1748e-07 0)
(9.187e-09 -7.18933e-07 0)
(9.15905e-09 -7.20385e-07 0)
(9.131e-09 -7.21837e-07 0)
(9.10286e-09 -7.23287e-07 0)
(9.07462e-09 -7.24736e-07 0)
(9.04629e-09 -7.26184e-07 0)
(9.01786e-09 -7.2763e-07 0)
(8.98934e-09 -7.29076e-07 0)
(8.96073e-09 -7.3052e-07 0)
(8.93202e-09 -7.31964e-07 0)
(8.90322e-09 -7.33406e-07 0)
(8.87432e-09 -7.34846e-07 0)
(8.84533e-09 -7.36286e-07 0)
(8.81625e-09 -7.37724e-07 0)
(8.78707e-09 -7.3916e-07 0)
(8.75781e-09 -7.40596e-07 0)
(8.72844e-09 -7.4203e-07 0)
(8.69899e-09 -7.43462e-07 0)
(8.66944e-09 -7.44893e-07 0)
(8.6398e-09 -7.46322e-07 0)
(8.61006e-09 -7.4775e-07 0)
(8.58024e-09 -7.49177e-07 0)
(8.55032e-09 -7.50601e-07 0)
(8.52031e-09 -7.52024e-07 0)
(8.49021e-09 -7.53446e-07 0)
(8.46002e-09 -7.54865e-07 0)
(8.42973e-09 -7.56283e-07 0)
(8.39935e-09 -7.577e-07 0)
(8.36889e-09 -7.59114e-07 0)
(8.33833e-09 -7.60526e-07 0)
(8.30768e-09 -7.61937e-07 0)
(8.27694e-09 -7.63346e-07 0)
(8.24611e-09 -7.64753e-07 0)
(8.21519e-09 -7.66158e-07 0)
(8.18418e-09 -7.67561e-07 0)
(8.15308e-09 -7.68962e-07 0)
(8.1219e-09 -7.70361e-07 0)
(8.09062e-09 -7.71758e-07 0)
(8.05925e-09 -7.73152e-07 0)
(8.0278e-09 -7.74545e-07 0)
(7.99626e-09 -7.75935e-07 0)
(7.96463e-09 -7.77323e-07 0)
(7.93291e-09 -7.78709e-07 0)
(7.9011e-09 -7.80093e-07 0)
(7.86921e-09 -7.81474e-07 0)
(7.83723e-09 -7.82853e-07 0)
(7.80517e-09 -7.8423e-07 0)
(7.77302e-09 -7.85604e-07 0)
(7.74078e-09 -7.86976e-07 0)
(7.70846e-09 -7.88345e-07 0)
(7.67605e-09 -7.89711e-07 0)
(7.64356e-09 -7.91076e-07 0)
(7.61098e-09 -7.92437e-07 0)
(7.57832e-09 -7.93796e-07 0)
(7.54558e-09 -7.95152e-07 0)
(7.51275e-09 -7.96506e-07 0)
(7.47984e-09 -7.97857e-07 0)
(7.44685e-09 -7.99205e-07 0)
(7.41377e-09 -8.0055e-07 0)
(7.38062e-09 -8.01892e-07 0)
(7.34738e-09 -8.03232e-07 0)
(7.31406e-09 -8.04568e-07 0)
(7.28066e-09 -8.05902e-07 0)
(7.24719e-09 -8.07233e-07 0)
(7.21363e-09 -8.0856e-07 0)
(7.17999e-09 -8.09885e-07 0)
(7.14628e-09 -8.11206e-07 0)
(7.11248e-09 -8.12525e-07 0)
(7.07861e-09 -8.1384e-07 0)
(7.04467e-09 -8.15152e-07 0)
(7.01064e-09 -8.16461e-07 0)
(6.97654e-09 -8.17766e-07 0)
(6.94237e-09 -8.19069e-07 0)
(6.90812e-09 -8.20367e-07 0)
(6.87379e-09 -8.21663e-07 0)
(6.83939e-09 -8.22955e-07 0)
(6.80492e-09 -8.24244e-07 0)
(6.77037e-09 -8.25529e-07 0)
(6.73576e-09 -8.2681e-07 0)
(6.70107e-09 -8.28088e-07 0)
(6.66631e-09 -8.29363e-07 0)
(6.63147e-09 -8.30633e-07 0)
(6.59657e-09 -8.319e-07 0)
(6.5616e-09 -8.33164e-07 0)
(6.52656e-09 -8.34423e-07 0)
(6.49145e-09 -8.35679e-07 0)
(6.45628e-09 -8.36931e-07 0)
(6.42104e-09 -8.38179e-07 0)
(6.38573e-09 -8.39423e-07 0)
(6.35035e-09 -8.40663e-07 0)
(6.31491e-09 -8.41899e-07 0)
(6.27941e-09 -8.43132e-07 0)
(6.24384e-09 -8.4436e-07 0)
(6.20821e-09 -8.45584e-07 0)
(6.17252e-09 -8.46803e-07 0)
(6.13677e-09 -8.48019e-07 0)
(6.10095e-09 -8.49231e-07 0)
(6.06508e-09 -8.50438e-07 0)
(6.02914e-09 -8.51641e-07 0)
(5.99315e-09 -8.52839e-07 0)
(5.9571e-09 -8.54033e-07 0)
(5.92099e-09 -8.55223e-07 0)
(5.88482e-09 -8.56408e-07 0)
(5.8486e-09 -8.57589e-07 0)
(5.81233e-09 -8.58765e-07 0)
(5.776e-09 -8.59937e-07 0)
(5.73961e-09 -8.61104e-07 0)
(5.70318e-09 -8.62267e-07 0)
(5.66669e-09 -8.63424e-07 0)
(5.63015e-09 -8.64577e-07 0)
(5.59356e-09 -8.65726e-07 0)
(5.55692e-09 -8.66869e-07 0)
(5.52024e-09 -8.68008e-07 0)
(5.4835e-09 -8.69141e-07 0)
(5.44672e-09 -8.7027e-07 0)
(5.40989e-09 -8.71394e-07 0)
(5.37302e-09 -8.72513e-07 0)
(5.3361e-09 -8.73627e-07 0)
(5.29919e-09 -8.74735e-07 0)
(5.26197e-09 -8.7584e-07 0)
(5.22583e-09 -8.76932e-07 0)
(5.19122e-09 -8.77968e-07 0)
(5.15712e-09 -8.78949e-07 0)
(5.12344e-09 -8.79919e-07 0)
(5.08962e-09 -8.80895e-07 0)
(5.05551e-09 -8.8188e-07 0)
(5.02108e-09 -8.82869e-07 0)
(4.98633e-09 -8.83861e-07 0)
(4.95125e-09 -8.84856e-07 0)
(4.91583e-09 -8.85855e-07 0)
(4.88008e-09 -8.86858e-07 0)
(4.844e-09 -8.87864e-07 0)
(4.80757e-09 -8.88874e-07 0)
(4.77081e-09 -8.89887e-07 0)
(4.73371e-09 -8.90903e-07 0)
(4.69626e-09 -8.91921e-07 0)
(4.65847e-09 -8.92943e-07 0)
(4.62033e-09 -8.93968e-07 0)
(4.58184e-09 -8.94995e-07 0)
(4.54301e-09 -8.96024e-07 0)
(4.50382e-09 -8.97056e-07 0)
(4.46428e-09 -8.9809e-07 0)
(4.42439e-09 -8.99126e-07 0)
(4.38415e-09 -9.00163e-07 0)
(4.34355e-09 -9.01203e-07 0)
(4.30259e-09 -9.02243e-07 0)
(4.26128e-09 -9.03286e-07 0)
(4.2196e-09 -9.04329e-07 0)
(4.17757e-09 -9.05373e-07 0)
(4.13518e-09 -9.06418e-07 0)
(4.09243e-09 -9.07463e-07 0)
(4.04932e-09 -9.08509e-07 0)
(4.00584e-09 -9.09554e-07 0)
(3.962e-09 -9.106e-07 0)
(3.91781e-09 -9.11646e-07 0)
(3.87324e-09 -9.1269e-07 0)
(3.82832e-09 -9.13734e-07 0)
(3.78304e-09 -9.14777e-07 0)
(3.73739e-09 -9.15819e-07 0)
(3.69138e-09 -9.16859e-07 0)
(3.64501e-09 -9.17898e-07 0)
(3.59827e-09 -9.18934e-07 0)
(3.55118e-09 -9.19968e-07 0)
(3.50373e-09 -9.20999e-07 0)
(3.45592e-09 -9.22028e-07 0)
(3.40775e-09 -9.23053e-07 0)
(3.35923e-09 -9.24075e-07 0)
(3.31035e-09 -9.25093e-07 0)
(3.26112e-09 -9.26107e-07 0)
(3.21154e-09 -9.27117e-07 0)
(3.16161e-09 -9.28122e-07 0)
(3.11133e-09 -9.29122e-07 0)
(3.0607e-09 -9.30116e-07 0)
(3.00974e-09 -9.31105e-07 0)
(2.95843e-09 -9.32087e-07 0)
(2.90678e-09 -9.33063e-07 0)
(2.85481e-09 -9.34033e-07 0)
(2.8025e-09 -9.34995e-07 0)
(2.74986e-09 -9.35949e-07 0)
(2.6969e-09 -9.36895e-07 0)
(2.64362e-09 -9.37833e-07 0)
(2.59002e-09 -9.38763e-07 0)
(2.53611e-09 -9.39683e-07 0)
(2.4819e-09 -9.40593e-07 0)
(2.42738e-09 -9.41493e-07 0)
(2.37257e-09 -9.42383e-07 0)
(2.31746e-09 -9.43262e-07 0)
(2.26207e-09 -9.44129e-07 0)
(2.20639e-09 -9.44984e-07 0)
(2.15045e-09 -9.45827e-07 0)
(2.09423e-09 -9.46658e-07 0)
(2.03775e-09 -9.47475e-07 0)
(1.98102e-09 -9.48278e-07 0)
(1.92404e-09 -9.49067e-07 0)
(1.86682e-09 -9.49841e-07 0)
(1.80936e-09 -9.506e-07 0)
(1.75169e-09 -9.51343e-07 0)
(1.69379e-09 -9.5207e-07 0)
(1.63569e-09 -9.5278e-07 0)
(1.57739e-09 -9.53472e-07 0)
(1.5189e-09 -9.54146e-07 0)
(1.46024e-09 -9.54802e-07 0)
(1.4014e-09 -9.55439e-07 0)
(1.3424e-09 -9.56056e-07 0)
(1.28325e-09 -9.56653e-07 0)
(1.22397e-09 -9.57229e-07 0)
(1.16456e-09 -9.57784e-07 0)
(1.10503e-09 -9.58317e-07 0)
(1.0454e-09 -9.58827e-07 0)
(9.85681e-10 -9.59314e-07 0)
(9.25882e-10 -9.59777e-07 0)
(8.66016e-10 -9.60216e-07 0)
(8.06098e-10 -9.6063e-07 0)
(7.46142e-10 -9.61018e-07 0)
(6.8616e-10 -9.6138e-07 0)
(6.26168e-10 -9.61715e-07 0)
(5.66179e-10 -9.62023e-07 0)
(5.0621e-10 -9.62303e-07 0)
(4.46274e-10 -9.62553e-07 0)
(3.86388e-10 -9.62775e-07 0)
(3.26567e-10 -9.62966e-07 0)
(2.66829e-10 -9.63127e-07 0)
(2.07189e-10 -9.63256e-07 0)
(1.47664e-10 -9.63354e-07 0)
(8.8271e-11 -9.63418e-07 0)
(2.90285e-11 -9.6345e-07 0)
(-3.00463e-11 -9.63448e-07 0)
(-8.89352e-11 -9.63411e-07 0)
(-1.4762e-10 -9.63339e-07 0)
(-2.06081e-10 -9.63232e-07 0)
(-2.64301e-10 -9.63088e-07 0)
(-3.2226e-10 -9.62907e-07 0)
(-3.79939e-10 -9.62688e-07 0)
(-4.37317e-10 -9.62431e-07 0)
(-4.94375e-10 -9.62135e-07 0)
(-5.51093e-10 -9.618e-07 0)
(-6.07451e-10 -9.61425e-07 0)
(-6.63428e-10 -9.61009e-07 0)
(-7.19003e-10 -9.60552e-07 0)
(-7.74156e-10 -9.60053e-07 0)
(-8.28866e-10 -9.59512e-07 0)
(-8.83111e-10 -9.58928e-07 0)
(-9.3687e-10 -9.583e-07 0)
(-9.90123e-10 -9.57628e-07 0)
(-1.04285e-09 -9.56912e-07 0)
(-1.09502e-09 -9.56151e-07 0)
(-1.14663e-09 -9.55344e-07 0)
(-1.19764e-09 -9.54492e-07 0)
(-1.24804e-09 -9.53592e-07 0)
(-1.2978e-09 -9.52646e-07 0)
(-1.3469e-09 -9.51653e-07 0)
(-1.39533e-09 -9.50612e-07 0)
(-1.44306e-09 -9.49523e-07 0)
(-1.49007e-09 -9.48385e-07 0)
(-1.53634e-09 -9.47199e-07 0)
(-1.58185e-09 -9.45963e-07 0)
(-1.62657e-09 -9.44678e-07 0)
(-1.6705e-09 -9.43343e-07 0)
(-1.7136e-09 -9.41958e-07 0)
(-1.75586e-09 -9.40523e-07 0)
(-1.79726e-09 -9.39037e-07 0)
(-1.83778e-09 -9.37501e-07 0)
(-1.8774e-09 -9.35914e-07 0)
(-1.9161e-09 -9.34275e-07 0)
(-1.95387e-09 -9.32586e-07 0)
(-1.99069e-09 -9.30845e-07 0)
(-2.02653e-09 -9.29053e-07 0)
(-2.0614e-09 -9.2721e-07 0)
(-2.09526e-09 -9.25316e-07 0)
(-2.1281e-09 -9.2337e-07 0)
(-2.15991e-09 -9.21373e-07 0)
(-2.19068e-09 -9.19325e-07 0)
(-2.22038e-09 -9.17226e-07 0)
(-2.24902e-09 -9.15077e-07 0)
(-2.27657e-09 -9.12876e-07 0)
(-2.30302e-09 -9.10625e-07 0)
(-2.32837e-09 -9.08325e-07 0)
(-2.3526e-09 -9.05974e-07 0)
(-2.37571e-09 -9.03574e-07 0)
(-2.39768e-09 -9.01124e-07 0)
(-2.4185e-09 -8.98626e-07 0)
(-2.43818e-09 -8.9608e-07 0)
(-2.4567e-09 -8.93485e-07 0)
(-2.47407e-09 -8.90843e-07 0)
(-2.49026e-09 -8.88155e-07 0)
(-2.50529e-09 -8.8542e-07 0)
(-2.51914e-09 -8.8264e-07 0)
(-2.53183e-09 -8.79814e-07 0)
(-2.54333e-09 -8.76944e-07 0)
(-2.55366e-09 -8.74031e-07 0)
(-2.56282e-09 -8.71075e-07 0)
(-2.57081e-09 -8.68076e-07 0)
(-2.57762e-09 -8.65037e-07 0)
(-2.58327e-09 -8.61957e-07 0)
(-2.58776e-09 -8.58837e-07 0)
(-2.59109e-09 -8.55679e-07 0)
(-2.59326e-09 -8.52483e-07 0)
(-2.59429e-09 -8.4925e-07 0)
(-2.59419e-09 -8.45983e-07 0)
(-2.59294e-09 -8.42677e-07 0)
(-2.59063e-09 -8.39346e-07 0)
(-2.58698e-09 -8.3594e-07 0)
(-2.58173e-09 -8.3218e-07 0)
(-2.57484e-09 -8.28063e-07 0)
(-2.56631e-09 -8.23873e-07 0)
(-2.55631e-09 -8.19706e-07 0)
(-2.545e-09 -8.15581e-07 0)
(-2.53247e-09 -8.1148e-07 0)
(-2.51878e-09 -8.07395e-07 0)
(-2.50399e-09 -8.0333e-07 0)
(-2.48817e-09 -7.9929e-07 0)
(-2.47137e-09 -7.95278e-07 0)
(-2.45366e-09 -7.91294e-07 0)
(-2.43508e-09 -7.87339e-07 0)
(-2.4157e-09 -7.83415e-07 0)
(-2.39556e-09 -7.79522e-07 0)
(-2.37471e-09 -7.75663e-07 0)
(-2.3532e-09 -7.71839e-07 0)
(-2.33106e-09 -7.6805e-07 0)
(-2.30833e-09 -7.64297e-07 0)
(-2.28507e-09 -7.60581e-07 0)
(-2.26129e-09 -7.56903e-07 0)
(-2.23703e-09 -7.53265e-07 0)
(-2.21234e-09 -7.49665e-07 0)
(-2.18723e-09 -7.46107e-07 0)
(-2.16174e-09 -7.42589e-07 0)
(-2.13589e-09 -7.39113e-07 0)
(-2.1097e-09 -7.35679e-07 0)
(-2.08321e-09 -7.32287e-07 0)
(-2.05642e-09 -7.28939e-07 0)
(-2.02937e-09 -7.25634e-07 0)
(-2.00207e-09 -7.22373e-07 0)
(-1.97454e-09 -7.19157e-07 0)
(-1.9468e-09 -7.15985e-07 0)
(-1.91885e-09 -7.12858e-07 0)
(-1.89072e-09 -7.09777e-07 0)
(-1.86242e-09 -7.06741e-07 0)
(-1.83395e-09 -7.03751e-07 0)
(-1.80534e-09 -7.00808e-07 0)
(-1.77658e-09 -6.97911e-07 0)
(-1.74769e-09 -6.9506e-07 0)
(-1.71868e-09 -6.92257e-07 0)
(-1.68956e-09 -6.895e-07 0)
(-1.66032e-09 -6.86791e-07 0)
(-1.63098e-09 -6.84128e-07 0)
(-1.60154e-09 -6.81514e-07 0)
(-1.57201e-09 -6.78947e-07 0)
(-1.54239e-09 -6.76428e-07 0)
(-1.51269e-09 -6.73957e-07 0)
(-1.4829e-09 -6.71534e-07 0)
(-1.45303e-09 -6.6916e-07 0)
(-1.42309e-09 -6.66834e-07 0)
(-1.39307e-09 -6.64556e-07 0)
(-1.36298e-09 -6.62327e-07 0)
(-1.33282e-09 -6.60146e-07 0)
(-1.30258e-09 -6.58015e-07 0)
(-1.27228e-09 -6.55932e-07 0)
(-1.24191e-09 -6.53899e-07 0)
(-1.21147e-09 -6.51914e-07 0)
(-1.18096e-09 -6.49979e-07 0)
(-1.15038e-09 -6.48094e-07 0)
(-1.11974e-09 -6.46258e-07 0)
(-1.08903e-09 -6.44471e-07 0)
(-1.05825e-09 -6.42735e-07 0)
(-1.02741e-09 -6.41048e-07 0)
(-9.96498e-10 -6.39411e-07 0)
(-9.65522e-10 -6.37824e-07 0)
(-9.3448e-10 -6.36287e-07 0)
(-9.03373e-10 -6.34801e-07 0)
(-8.722e-10 -6.33364e-07 0)
(-8.40963e-10 -6.31979e-07 0)
(-8.09661e-10 -6.30644e-07 0)
(-7.78296e-10 -6.29359e-07 0)
(-7.46869e-10 -6.28126e-07 0)
(-7.1538e-10 -6.26943e-07 0)
(-6.8383e-10 -6.25811e-07 0)
(-6.52221e-10 -6.24731e-07 0)
(-6.20555e-10 -6.23701e-07 0)
(-5.88832e-10 -6.22723e-07 0)
(-5.57055e-10 -6.21796e-07 0)
(-5.25225e-10 -6.20921e-07 0)
(-4.93344e-10 -6.20097e-07 0)
(-4.61416e-10 -6.19325e-07 0)
(-4.2944e-10 -6.18604e-07 0)
(-3.97422e-10 -6.17935e-07 0)
(-3.65362e-10 -6.17319e-07 0)
(-3.33264e-10 -6.16752e-07 0)
(-3.01131e-10 -6.16243e-07 0)
(-2.68964e-10 -6.15769e-07 0)
(-2.36773e-10 -6.15403e-07 0)
(-2.04538e-10 -6.14903e-07 0)
(-1.72342e-10 -6.15065e-07 0)
(-1.39922e-10 -6.13215e-07 0)
(-1.08175e-10 -6.18003e-07 0)
(-7.42394e-11 -5.99363e-07 0)
(-4.79374e-11 -6.48482e-07 0)
(-2.00926e-11 -5.66352e-07 0)
)
;
    }
    bottomWall
    {
        type            calculated;
        value           nonuniform List<vector> 
449
(
(-48.5234 -0.963978 0)
(-19.7481 -0.00515435 0)
(-14.3412 -0.00113467 0)
(-12.0318 -0.000545441 0)
(-10.6259 -0.000351476 0)
(-9.63211 -0.000255981 0)
(-8.87408 -0.000198475 0)
(-8.2706 -0.000159808 0)
(-7.7752 -0.000132319 0)
(-7.35859 -0.000111973 0)
(-7.0016 -9.63733e-05 0)
(-6.69119 -8.40671e-05 0)
(-6.41805 -7.41497e-05 0)
(-6.17526 -6.60226e-05 0)
(-5.95758 -5.9266e-05 0)
(-5.76094 -5.35768e-05 0)
(-5.58215 -4.87328e-05 0)
(-5.41865 -4.45682e-05 0)
(-5.26837 -4.09569e-05 0)
(-5.12961 -3.78014e-05 0)
(-5.00097 -3.50253e-05 0)
(-4.88126 -3.25676e-05 0)
(-4.7695 -3.03797e-05 0)
(-4.66484 -2.84219e-05 0)
(-4.56654 -2.66618e-05 0)
(-4.474 -2.50725e-05 0)
(-4.38666 -2.36319e-05 0)
(-4.30405 -2.23212e-05 0)
(-4.22575 -2.11246e-05 0)
(-4.15141 -2.00288e-05 0)
(-4.08069 -1.90222e-05 0)
(-4.01331 -1.80951e-05 0)
(-3.94902 -1.7239e-05 0)
(-3.88757 -1.64465e-05 0)
(-3.82877 -1.57113e-05 0)
(-3.77243 -1.50277e-05 0)
(-3.71838 -1.43908e-05 0)
(-3.66647 -1.37963e-05 0)
(-3.61656 -1.32404e-05 0)
(-3.56852 -1.27196e-05 0)
(-3.52223 -1.2231e-05 0)
(-3.4776 -1.17718e-05 0)
(-3.43453 -1.13397e-05 0)
(-3.39292 -1.09324e-05 0)
(-3.35269 -1.0548e-05 0)
(-3.31377 -1.01849e-05 0)
(-3.27609 -9.84128e-06 0)
(-3.23958 -9.51583e-06 0)
(-3.20418 -9.20722e-06 0)
(-3.16984 -8.91426e-06 0)
(-3.1365 -8.63588e-06 0)
(-3.10412 -8.37108e-06 0)
(-3.07264 -8.11896e-06 0)
(-3.04204 -7.87869e-06 0)
(-3.01226 -7.64951e-06 0)
(-2.98327 -7.43073e-06 0)
(-2.95504 -7.22169e-06 0)
(-2.92753 -7.02182e-06 0)
(-2.90071 -6.83056e-06 0)
(-2.87456 -6.6474e-06 0)
(-2.84904 -6.47188e-06 0)
(-2.82413 -6.30356e-06 0)
(-2.79981 -6.14203e-06 0)
(-2.77604 -5.98693e-06 0)
(-2.75282 -5.83791e-06 0)
(-2.73013 -5.69463e-06 0)
(-2.70793 -5.55681e-06 0)
(-2.68621 -5.42414e-06 0)
(-2.66496 -5.29638e-06 0)
(-2.64416 -5.17327e-06 0)
(-2.62379 -5.05458e-06 0)
(-2.60383 -4.9401e-06 0)
(-2.58428 -4.82961e-06 0)
(-2.56512 -4.72294e-06 0)
(-2.54634 -4.6199e-06 0)
(-2.52792 -4.52032e-06 0)
(-2.50985 -4.42404e-06 0)
(-2.49212 -4.33092e-06 0)
(-2.47472 -4.24081e-06 0)
(-2.45764 -4.15358e-06 0)
(-2.44087 -4.06911e-06 0)
(-2.42441 -3.98726e-06 0)
(-2.40823 -3.90795e-06 0)
(-2.39233 -3.83105e-06 0)
(-2.37671 -3.75646e-06 0)
(-2.36136 -3.6841e-06 0)
(-2.34627 -3.61386e-06 0)
(-2.33142 -3.54568e-06 0)
(-2.31682 -3.47945e-06 0)
(-2.30246 -3.41511e-06 0)
(-2.28833 -3.35259e-06 0)
(-2.27442 -3.29181e-06 0)
(-2.26074 -3.23271e-06 0)
(-2.24726 -3.17522e-06 0)
(-2.23399 -3.11928e-06 0)
(-2.22093 -3.06484e-06 0)
(-2.20806 -3.01185e-06 0)
(-2.19538 -2.96024e-06 0)
(-2.18289 -2.90997e-06 0)
(-2.17058 -2.861e-06 0)
(-2.15845 -2.81327e-06 0)
(-2.14649 -2.76675e-06 0)
(-2.13471 -2.72139e-06 0)
(-2.12308 -2.67715e-06 0)
(-2.11162 -2.634e-06 0)
(-2.10032 -2.5919e-06 0)
(-2.08916 -2.55081e-06 0)
(-2.07816 -2.5107e-06 0)
(-2.06731 -2.47154e-06 0)
(-2.0566 -2.4333e-06 0)
(-2.04603 -2.39595e-06 0)
(-2.03559 -2.35946e-06 0)
(-2.02529 -2.32381e-06 0)
(-2.01513 -2.28896e-06 0)
(-2.00508 -2.25489e-06 0)
(-1.99517 -2.22159e-06 0)
(-1.98538 -2.18902e-06 0)
(-1.97571 -2.15716e-06 0)
(-1.96615 -2.126e-06 0)
(-1.95671 -2.09551e-06 0)
(-1.94739 -2.06567e-06 0)
(-1.93817 -2.03646e-06 0)
(-1.92907 -2.00787e-06 0)
(-1.92007 -1.97988e-06 0)
(-1.91117 -1.95246e-06 0)
(-1.90237 -1.92562e-06 0)
(-1.89368 -1.89932e-06 0)
(-1.88508 -1.87355e-06 0)
(-1.87658 -1.8483e-06 0)
(-1.86818 -1.82356e-06 0)
(-1.85986 -1.7993e-06 0)
(-1.85164 -1.77553e-06 0)
(-1.84351 -1.75222e-06 0)
(-1.83546 -1.72936e-06 0)
(-1.8275 -1.70694e-06 0)
(-1.81963 -1.68495e-06 0)
(-1.81184 -1.66338e-06 0)
(-1.80412 -1.64221e-06 0)
(-1.79649 -1.62145e-06 0)
(-1.78894 -1.60106e-06 0)
(-1.78146 -1.58106e-06 0)
(-1.77406 -1.56142e-06 0)
(-1.76674 -1.54214e-06 0)
(-1.75949 -1.52321e-06 0)
(-1.7523 -1.50462e-06 0)
(-1.74519 -1.48637e-06 0)
(-1.73815 -1.46843e-06 0)
(-1.73118 -1.45082e-06 0)
(-1.72428 -1.43351e-06 0)
(-1.71744 -1.41651e-06 0)
(-1.71066 -1.3998e-06 0)
(-1.70395 -1.38337e-06 0)
(-1.6973 -1.36723e-06 0)
(-1.69072 -1.35136e-06 0)
(-1.68419 -1.33576e-06 0)
(-1.67773 -1.32043e-06 0)
(-1.67132 -1.30535e-06 0)
(-1.66497 -1.29052e-06 0)
(-1.65868 -1.27593e-06 0)
(-1.65245 -1.26158e-06 0)
(-1.64627 -1.24747e-06 0)
(-1.64014 -1.23359e-06 0)
(-1.63407 -1.21993e-06 0)
(-1.62805 -1.20649e-06 0)
(-1.62209 -1.19326e-06 0)
(-1.61617 -1.18025e-06 0)
(-1.61031 -1.16743e-06 0)
(-1.60449 -1.15483e-06 0)
(-1.59873 -1.14245e-06 0)
(-1.59301 -1.13012e-06 0)
(-1.58734 -1.11843e-06 0)
(-1.58172 -1.10633e-06 0)
(-1.57614 -1.09319e-06 0)
(-1.57093 -1.08302e-06 0)
(-1.56603 -1.07479e-06 0)
(-1.56112 -1.06444e-06 0)
(-1.5562 -1.05375e-06 0)
(-1.55128 -1.04374e-06 0)
(-1.54635 -1.03371e-06 0)
(-1.54142 -1.02379e-06 0)
(-1.53648 -1.01394e-06 0)
(-1.53154 -1.00415e-06 0)
(-1.52659 -9.94419e-07 0)
(-1.52164 -9.84749e-07 0)
(-1.51668 -9.75134e-07 0)
(-1.51171 -9.65576e-07 0)
(-1.50674 -9.56073e-07 0)
(-1.50177 -9.46625e-07 0)
(-1.49679 -9.37232e-07 0)
(-1.49181 -9.27894e-07 0)
(-1.48683 -9.18612e-07 0)
(-1.48184 -9.09385e-07 0)
(-1.47684 -9.00214e-07 0)
(-1.47185 -8.91099e-07 0)
(-1.46685 -8.8204e-07 0)
(-1.46185 -8.73038e-07 0)
(-1.45684 -8.64092e-07 0)
(-1.45183 -8.55204e-07 0)
(-1.44683 -8.46372e-07 0)
(-1.44181 -8.37598e-07 0)
(-1.4368 -8.28882e-07 0)
(-1.43179 -8.20223e-07 0)
(-1.42677 -8.11622e-07 0)
(-1.42175 -8.0308e-07 0)
(-1.41673 -7.94595e-07 0)
(-1.41171 -7.86169e-07 0)
(-1.40669 -7.77802e-07 0)
(-1.40167 -7.69494e-07 0)
(-1.39665 -7.61244e-07 0)
(-1.39163 -7.53054e-07 0)
(-1.38661 -7.44923e-07 0)
(-1.38159 -7.3685e-07 0)
(-1.37657 -7.28838e-07 0)
(-1.37155 -7.20884e-07 0)
(-1.36653 -7.1299e-07 0)
(-1.36152 -7.05156e-07 0)
(-1.3565 -6.97381e-07 0)
(-1.35148 -6.89665e-07 0)
(-1.34647 -6.82009e-07 0)
(-1.34146 -6.74413e-07 0)
(-1.33645 -6.66876e-07 0)
(-1.33145 -6.594e-07 0)
(-1.32644 -6.51982e-07 0)
(-1.32144 -6.44624e-07 0)
(-1.31644 -6.37326e-07 0)
(-1.31145 -6.30088e-07 0)
(-1.30645 -6.22908e-07 0)
(-1.30146 -6.15789e-07 0)
(-1.29648 -6.08728e-07 0)
(-1.2915 -6.01727e-07 0)
(-1.28652 -5.94785e-07 0)
(-1.28154 -5.87902e-07 0)
(-1.27657 -5.81078e-07 0)
(-1.27161 -5.74313e-07 0)
(-1.26665 -5.67607e-07 0)
(-1.26169 -5.6096e-07 0)
(-1.25674 -5.54371e-07 0)
(-1.25179 -5.4784e-07 0)
(-1.24685 -5.41368e-07 0)
(-1.24191 -5.34954e-07 0)
(-1.23698 -5.28597e-07 0)
(-1.23206 -5.22299e-07 0)
(-1.22714 -5.16058e-07 0)
(-1.22223 -5.09874e-07 0)
(-1.21732 -5.03748e-07 0)
(-1.21242 -4.97679e-07 0)
(-1.20753 -4.91667e-07 0)
(-1.20264 -4.85711e-07 0)
(-1.19776 -4.79812e-07 0)
(-1.19289 -4.73968e-07 0)
(-1.18802 -4.68181e-07 0)
(-1.18316 -4.6245e-07 0)
(-1.17831 -4.56774e-07 0)
(-1.17347 -4.51154e-07 0)
(-1.16863 -4.45588e-07 0)
(-1.1638 -4.40077e-07 0)
(-1.15898 -4.34621e-07 0)
(-1.15417 -4.29219e-07 0)
(-1.14937 -4.23871e-07 0)
(-1.14457 -4.18577e-07 0)
(-1.13978 -4.13336e-07 0)
(-1.135 -4.08149e-07 0)
(-1.13023 -4.03014e-07 0)
(-1.12547 -3.97932e-07 0)
(-1.12072 -3.92903e-07 0)
(-1.11598 -3.87925e-07 0)
(-1.11125 -3.82999e-07 0)
(-1.10652 -3.78125e-07 0)
(-1.10181 -3.73302e-07 0)
(-1.0971 -3.6853e-07 0)
(-1.09241 -3.63808e-07 0)
(-1.08772 -3.59136e-07 0)
(-1.08304 -3.54514e-07 0)
(-1.07838 -3.49942e-07 0)
(-1.07372 -3.4542e-07 0)
(-1.06908 -3.40946e-07 0)
(-1.06444 -3.3652e-07 0)
(-1.05982 -3.32143e-07 0)
(-1.05521 -3.27814e-07 0)
(-1.0506 -3.23533e-07 0)
(-1.04601 -3.19299e-07 0)
(-1.04143 -3.15112e-07 0)
(-1.03686 -3.10971e-07 0)
(-1.0323 -3.06877e-07 0)
(-1.02775 -3.02829e-07 0)
(-1.02322 -2.98826e-07 0)
(-1.01869 -2.94869e-07 0)
(-1.01418 -2.90956e-07 0)
(-1.00968 -2.87089e-07 0)
(-1.00519 -2.83265e-07 0)
(-1.00071 -2.79485e-07 0)
(-0.996239 -2.75749e-07 0)
(-0.991784 -2.72056e-07 0)
(-0.987341 -2.68406e-07 0)
(-0.982909 -2.64798e-07 0)
(-0.97849 -2.61232e-07 0)
(-0.974083 -2.57708e-07 0)
(-0.969689 -2.54226e-07 0)
(-0.965306 -2.50785e-07 0)
(-0.960936 -2.47384e-07 0)
(-0.956578 -2.44024e-07 0)
(-0.952233 -2.40704e-07 0)
(-0.947901 -2.37423e-07 0)
(-0.943581 -2.34182e-07 0)
(-0.939274 -2.3098e-07 0)
(-0.93498 -2.27817e-07 0)
(-0.930698 -2.24691e-07 0)
(-0.926429 -2.21604e-07 0)
(-0.922174 -2.18554e-07 0)
(-0.917931 -2.15542e-07 0)
(-0.913701 -2.12566e-07 0)
(-0.909485 -2.09627e-07 0)
(-0.905281 -2.06725e-07 0)
(-0.901091 -2.03858e-07 0)
(-0.896914 -2.01026e-07 0)
(-0.89275 -1.9823e-07 0)
(-0.8886 -1.95469e-07 0)
(-0.884463 -1.92742e-07 0)
(-0.880339 -1.90049e-07 0)
(-0.876229 -1.8739e-07 0)
(-0.872133 -1.84765e-07 0)
(-0.86805 -1.82172e-07 0)
(-0.86398 -1.79613e-07 0)
(-0.859924 -1.77086e-07 0)
(-0.855882 -1.74591e-07 0)
(-0.851853 -1.72128e-07 0)
(-0.847838 -1.69696e-07 0)
(-0.843837 -1.67296e-07 0)
(-0.83985 -1.64926e-07 0)
(-0.835876 -1.62587e-07 0)
(-0.831916 -1.60278e-07 0)
(-0.82797 -1.57999e-07 0)
(-0.824038 -1.5575e-07 0)
(-0.82012 -1.5353e-07 0)
(-0.816216 -1.51338e-07 0)
(-0.812325 -1.49176e-07 0)
(-0.808449 -1.47041e-07 0)
(-0.804587 -1.44935e-07 0)
(-0.800738 -1.42856e-07 0)
(-0.796904 -1.40805e-07 0)
(-0.793083 -1.38781e-07 0)
(-0.789277 -1.36783e-07 0)
(-0.785484 -1.34812e-07 0)
(-0.781706 -1.32867e-07 0)
(-0.777942 -1.30948e-07 0)
(-0.774192 -1.29055e-07 0)
(-0.770455 -1.27186e-07 0)
(-0.766733 -1.25342e-07 0)
(-0.763026 -1.23521e-07 0)
(-0.759332 -1.21727e-07 0)
(-0.755652 -1.19952e-07 0)
(-0.751987 -1.18164e-07 0)
(-0.748338 -1.16526e-07 0)
(-0.744696 -1.14899e-07 0)
(-0.740664 -1.12912e-07 0)
(-0.73629 -1.10801e-07 0)
(-0.731995 -1.08901e-07 0)
(-0.72777 -1.07102e-07 0)
(-0.723616 -1.05292e-07 0)
(-0.719533 -1.03518e-07 0)
(-0.715518 -1.01788e-07 0)
(-0.711569 -1.00105e-07 0)
(-0.707686 -9.8467e-08 0)
(-0.703866 -9.68727e-08 0)
(-0.700107 -9.53207e-08 0)
(-0.696408 -9.38096e-08 0)
(-0.692768 -9.2338e-08 0)
(-0.689184 -9.09045e-08 0)
(-0.685656 -8.95078e-08 0)
(-0.682182 -8.81465e-08 0)
(-0.67876 -8.68194e-08 0)
(-0.67539 -8.55253e-08 0)
(-0.672069 -8.42631e-08 0)
(-0.668797 -8.30317e-08 0)
(-0.665573 -8.183e-08 0)
(-0.662395 -8.0657e-08 0)
(-0.659263 -7.95119e-08 0)
(-0.656175 -7.83936e-08 0)
(-0.65313 -7.73014e-08 0)
(-0.650127 -7.62343e-08 0)
(-0.647166 -7.51916e-08 0)
(-0.644245 -7.41725e-08 0)
(-0.641363 -7.31763e-08 0)
(-0.63852 -7.22022e-08 0)
(-0.635714 -7.12497e-08 0)
(-0.632946 -7.03179e-08 0)
(-0.630213 -6.94063e-08 0)
(-0.627516 -6.85143e-08 0)
(-0.624853 -6.76414e-08 0)
(-0.622224 -6.67869e-08 0)
(-0.619628 -6.59503e-08 0)
(-0.617064 -6.51311e-08 0)
(-0.614532 -6.43288e-08 0)
(-0.612032 -6.35429e-08 0)
(-0.609561 -6.2773e-08 0)
(-0.607121 -6.20186e-08 0)
(-0.604709 -6.12792e-08 0)
(-0.602326 -6.05546e-08 0)
(-0.599972 -5.98443e-08 0)
(-0.597645 -5.91478e-08 0)
(-0.595344 -5.84649e-08 0)
(-0.593071 -5.77951e-08 0)
(-0.590823 -5.71382e-08 0)
(-0.588601 -5.64937e-08 0)
(-0.586403 -5.58614e-08 0)
(-0.58423 -5.5241e-08 0)
(-0.582081 -5.46322e-08 0)
(-0.579956 -5.40347e-08 0)
(-0.577854 -5.34481e-08 0)
(-0.575775 -5.28723e-08 0)
(-0.573718 -5.2307e-08 0)
(-0.571683 -5.1752e-08 0)
(-0.569669 -5.12069e-08 0)
(-0.567676 -5.06716e-08 0)
(-0.565705 -5.01459e-08 0)
(-0.563753 -4.96295e-08 0)
(-0.561822 -4.91223e-08 0)
(-0.55991 -4.86241e-08 0)
(-0.558018 -4.81346e-08 0)
(-0.556145 -4.76538e-08 0)
(-0.55429 -4.71814e-08 0)
(-0.552453 -4.67173e-08 0)
(-0.550635 -4.62615e-08 0)
(-0.548834 -4.58137e-08 0)
(-0.547051 -4.53738e-08 0)
(-0.545284 -4.49419e-08 0)
(-0.543535 -4.45178e-08 0)
(-0.541802 -4.41015e-08 0)
(-0.540085 -4.3693e-08 0)
(-0.538383 -4.32924e-08 0)
(-0.536698 -4.28998e-08 0)
(-0.535027 -4.25154e-08 0)
(-0.533372 -4.21394e-08 0)
(-0.53173 -4.17723e-08 0)
(-0.530104 -4.14147e-08 0)
(-0.52849 -4.10675e-08 0)
(-0.526891 -4.07322e-08 0)
(-0.525304 -4.041e-08 0)
(-0.523729 -4.01041e-08 0)
(-0.522166 -3.98269e-08 0)
(-0.520613 -3.95481e-08 0)
(-0.519072 -3.93272e-08 0)
(-0.517537 -3.93883e-08 0)
(-0.515991 -3.87066e-08 0)
(-0.514509 -3.78373e-08 0)
(-0.51303 -5.00025e-08 0)
(-0.510597 -1.40004e-08 0)
(-0.511947 -3.69153e-08 0)
(-0.507665 -5.56533e-08 0)
)
;
    }
    symmetry
    {
        type            symmetryPlane;
    }
    frontAndBack
    {
        type            empty;
    }
}


// ************************************************************************* //
