/*--------------------------------*- C++ -*----------------------------------*\
| =========                 |                                                 |
| \\      /  F ield         | OpenFOAM: The Open Source CFD Toolbox           |
|  \\    /   O peration     | Version:  v2012                                 |
|   \\  /    A nd           | Website:  www.openfoam.com                      |
|    \\/     M anipulation  |                                                 |
\*---------------------------------------------------------------------------*/
FoamFile
{
    version     2.0;
    format      ascii;
    class       volScalarField;
    location    "50";
    object      yPlus;
}
// * * * * * * * * * * * * * * * * * * * * * * * * * * * * * * * * * * * * * //

dimensions      [0 0 0 0 0 0 0];


internalField   uniform 0;

boundaryField
{
    inlet
    {
        type            calculated;
        value           uniform 0;
    }
    outlet
    {
        type            calculated;
        value           uniform 0;
    }
    topWall
    {
        type            calculated;
        value           nonuniform List<scalar> 
545
(
0.0708346
0.122139
0.156687
0.184171
0.207425
0.227759
0.245908
0.262333
0.27735
0.291185
0.304009
0.315953
0.327122
0.3376
0.347458
0.356756
0.365542
0.373862
0.381751
0.389244
0.39637
0.403154
0.409619
0.415787
0.421676
0.427304
0.432686
0.437837
0.442769
0.447495
0.452027
0.456373
0.460545
0.464551
0.468399
0.472097
0.475653
0.479073
0.482363
0.485531
0.48858
0.491517
0.494347
0.497074
0.499703
0.502239
0.504684
0.507043
0.50932
0.511518
0.51364
0.515689
0.517668
0.51958
0.521428
0.523214
0.524941
0.52661
0.528225
0.529786
0.531297
0.532758
0.534173
0.535542
0.536867
0.53815
0.539392
0.540595
0.54176
0.542889
0.543983
0.545042
0.546056
0.547036
0.548006
0.548969
0.549922
0.550867
0.551804
0.552732
0.553652
0.554564
0.555468
0.556364
0.557252
0.558132
0.559004
0.559869
0.560726
0.561576
0.562418
0.563253
0.56408
0.564901
0.565714
0.56652
0.567246
0.567895
0.568543
0.56919
0.569837
0.570483
0.571128
0.571773
0.572417
0.57306
0.573703
0.574345
0.574986
0.575626
0.576266
0.576905
0.577544
0.578181
0.578818
0.579454
0.580089
0.580724
0.581358
0.58199
0.582623
0.583254
0.583884
0.584514
0.585143
0.585771
0.586398
0.587025
0.58765
0.588275
0.588899
0.589522
0.590144
0.590765
0.591385
0.592004
0.592623
0.59324
0.593857
0.594472
0.595087
0.595701
0.596313
0.596925
0.597536
0.598146
0.598754
0.599362
0.599969
0.600575
0.601179
0.601783
0.602386
0.602987
0.603588
0.604187
0.604785
0.605383
0.605979
0.606574
0.607168
0.60776
0.608352
0.608942
0.609532
0.61012
0.610707
0.611293
0.611877
0.612461
0.613043
0.613624
0.614204
0.614782
0.615359
0.615935
0.61651
0.617083
0.617656
0.618227
0.618796
0.619364
0.619931
0.620497
0.621061
0.621624
0.622186
0.622746
0.623305
0.623862
0.624418
0.624973
0.625526
0.626078
0.626628
0.627177
0.627725
0.628271
0.628815
0.629358
0.6299
0.63044
0.630978
0.631515
0.63205
0.632584
0.633117
0.633647
0.634176
0.634704
0.63523
0.635754
0.636277
0.636798
0.637318
0.637836
0.638352
0.638866
0.639379
0.63989
0.6404
0.640908
0.641414
0.641918
0.64242
0.642921
0.64342
0.643917
0.644413
0.644906
0.645398
0.645888
0.646377
0.646863
0.647347
0.64783
0.648311
0.64879
0.649267
0.649742
0.650215
0.650687
0.651156
0.651623
0.652089
0.652552
0.653014
0.653473
0.653931
0.654386
0.65484
0.655291
0.655741
0.656188
0.656634
0.657077
0.657518
0.657957
0.658394
0.658829
0.659262
0.659692
0.660121
0.660547
0.660971
0.661393
0.661813
0.662231
0.662646
0.663036
0.663403
0.663771
0.664141
0.664512
0.664884
0.665258
0.665633
0.666009
0.666386
0.666764
0.667143
0.667523
0.667905
0.668287
0.66867
0.669053
0.669438
0.669823
0.670209
0.670595
0.670982
0.671369
0.671757
0.672145
0.672533
0.672922
0.673311
0.673699
0.674088
0.674476
0.674865
0.675253
0.675641
0.676028
0.676415
0.676801
0.677187
0.677572
0.677956
0.678338
0.67872
0.679101
0.679481
0.679859
0.680235
0.68061
0.680983
0.681355
0.681725
0.682092
0.682457
0.68282
0.683181
0.683539
0.683894
0.684247
0.684596
0.684943
0.685286
0.685626
0.685962
0.686295
0.686623
0.686948
0.687269
0.687585
0.687897
0.688205
0.688507
0.688805
0.689097
0.689384
0.689666
0.689942
0.690212
0.690476
0.690734
0.690985
0.69123
0.691468
0.691699
0.691923
0.69214
0.692349
0.69255
0.692743
0.692928
0.693105
0.693273
0.693432
0.693582
0.693722
0.693854
0.693975
0.694087
0.694188
0.694279
0.69436
0.69443
0.694488
0.694535
0.694571
0.694595
0.694607
0.694607
0.694595
0.69457
0.694531
0.69448
0.694416
0.694338
0.694246
0.69414
0.694019
0.693885
0.693735
0.693571
0.693392
0.693197
0.692987
0.692761
0.692518
0.69226
0.691986
0.691694
0.691386
0.691061
0.690719
0.69036
0.689983
0.689588
0.689176
0.688745
0.688297
0.68783
0.687344
0.68684
0.686318
0.685776
0.685216
0.684636
0.684037
0.683419
0.682782
0.682125
0.681449
0.680753
0.680038
0.679303
0.678548
0.677774
0.67698
0.676166
0.675333
0.67448
0.673607
0.672715
0.671803
0.670872
0.669921
0.668951
0.667962
0.666954
0.665927
0.664881
0.663817
0.662734
0.661633
0.660513
0.659376
0.658221
0.657049
0.655859
0.654653
0.65343
0.65219
0.650934
0.649663
0.648376
0.647074
0.645609
0.643989
0.64237
0.640753
0.639138
0.637527
0.63592
0.634318
0.632722
0.631132
0.629549
0.627974
0.626408
0.62485
0.623302
0.621763
0.620236
0.618719
0.617213
0.615719
0.614238
0.612769
0.611313
0.60987
0.608441
0.607026
0.605625
0.604239
0.602868
0.601512
0.600172
0.598847
0.597538
0.596245
0.594969
0.593709
0.592467
0.591241
0.590032
0.588841
0.587668
0.586512
0.585374
0.584255
0.583153
0.582071
0.581007
0.579961
0.578935
0.577928
0.57694
0.575972
0.575023
0.574094
0.573185
0.572296
0.571427
0.570578
0.56975
0.568943
0.568156
0.56739
0.566645
0.565921
0.565218
0.564537
0.563877
0.563239
0.562623
0.562028
0.561456
0.560905
0.560377
0.559871
0.559387
0.558926
0.558488
0.558072
0.557679
0.557309
0.556962
0.556638
0.556337
0.556059
0.555805
0.555573
0.555366
0.555181
0.55502
0.554883
0.554768
0.554678
0.55461
0.55457
0.55454
)
;
    }
    bottomWall
    {
        type            calculated;
        value           nonuniform List<scalar> 
449
(
0.13944
0.088954
0.0758045
0.0694333
0.0652505
0.0621245
0.0596298
0.0575666
0.0558159
0.0542999
0.0529664
0.051779
0.0507112
0.0497427
0.0488582
0.0480451
0.0472936
0.0465959
0.0459452
0.0453361
0.044764
0.044225
0.0437158
0.0432335
0.0427756
0.0423399
0.0419246
0.041528
0.0411485
0.0407849
0.0404361
0.0401009
0.0397783
0.0394676
0.039168
0.0388788
0.0385993
0.0383289
0.0380671
0.0378134
0.0375674
0.0373286
0.0370967
0.0368713
0.0366521
0.0364387
0.036231
0.0360285
0.0358311
0.0356386
0.0354507
0.0352672
0.035088
0.0349128
0.0347415
0.0345739
0.0344099
0.0342494
0.0340921
0.0339381
0.0337871
0.0336391
0.0334939
0.0333515
0.0332117
0.0330745
0.0329398
0.0328074
0.0326774
0.0325496
0.032424
0.0323004
0.032179
0.0320594
0.0319418
0.0318261
0.0317121
0.0316
0.0314895
0.0313806
0.0312734
0.0311677
0.0310635
0.0309609
0.0308596
0.0307598
0.0306613
0.0305642
0.0304683
0.0303737
0.0302804
0.0301882
0.0300973
0.0300074
0.0299187
0.0298311
0.0297445
0.029659
0.0295745
0.029491
0.0294085
0.0293269
0.0292463
0.0291666
0.0290877
0.0290098
0.0289327
0.0288564
0.0287809
0.0287063
0.0286324
0.0285593
0.028487
0.0284154
0.0283445
0.0282743
0.0282048
0.0281361
0.0280679
0.0280005
0.0279337
0.0278675
0.027802
0.027737
0.0276727
0.027609
0.0275458
0.0274832
0.0274212
0.0273597
0.0272987
0.0272383
0.0271785
0.0271191
0.0270602
0.0270018
0.026944
0.0268866
0.0268296
0.0267732
0.0267172
0.0266616
0.0266065
0.0265519
0.0264976
0.0264438
0.0263904
0.0263374
0.0262848
0.0262327
0.0261809
0.0261295
0.0260784
0.0260278
0.0259775
0.0259276
0.0258781
0.0258289
0.02578
0.0257315
0.0256834
0.0256356
0.0255881
0.0255409
0.0254941
0.0254475
0.0254013
0.0253554
0.0253098
0.0252645
0.0252196
0.0251748
0.0251304
0.0250889
0.0250497
0.0250103
0.0249709
0.0249314
0.0248918
0.0248521
0.0248122
0.0247723
0.0247322
0.0246921
0.0246518
0.0246114
0.0245709
0.0245304
0.0244897
0.0244489
0.024408
0.024367
0.0243259
0.0242847
0.0242435
0.0242021
0.0241606
0.0241191
0.0240774
0.0240357
0.0239939
0.023952
0.02391
0.0238679
0.0238257
0.0237835
0.0237412
0.0236987
0.0236563
0.0236137
0.0235711
0.0235284
0.0234856
0.0234427
0.0233998
0.0233568
0.0233137
0.0232706
0.0232274
0.0231841
0.0231408
0.0230974
0.023054
0.0230105
0.0229669
0.0229233
0.0228796
0.0228359
0.0227921
0.0227483
0.0227044
0.0226605
0.0226165
0.0225724
0.0225284
0.0224842
0.0224401
0.0223959
0.0223516
0.0223073
0.022263
0.0222187
0.0221743
0.0221298
0.0220854
0.0220409
0.0219964
0.0219518
0.0219072
0.0218626
0.021818
0.0217733
0.0217286
0.0216839
0.0216392
0.0215944
0.0215497
0.0215049
0.0214601
0.0214153
0.0213704
0.0213256
0.0212807
0.0212359
0.021191
0.0211461
0.0211012
0.0210563
0.0210114
0.0209665
0.0209216
0.0208766
0.0208317
0.0207868
0.0207419
0.020697
0.0206521
0.0206072
0.0205623
0.0205174
0.0204725
0.0204276
0.0203827
0.0203379
0.020293
0.0202482
0.0202034
0.0201585
0.0201137
0.020069
0.0200242
0.0199795
0.0199347
0.01989
0.0198454
0.0198007
0.019756
0.0197114
0.0196668
0.0196223
0.0195777
0.0195332
0.0194887
0.0194443
0.0193998
0.0193554
0.0193111
0.0192667
0.0192224
0.0191782
0.0191339
0.0190897
0.0190456
0.0190014
0.0189573
0.0189133
0.0188693
0.0188253
0.0187814
0.0187375
0.0186936
0.0186498
0.018606
0.0185623
0.0185186
0.018475
0.0184314
0.0183879
0.0183444
0.0183009
0.0182575
0.0182142
0.0181709
0.0181276
0.0180844
0.0180413
0.0179982
0.0179551
0.0179121
0.0178692
0.0178263
0.0177835
0.0177407
0.017698
0.0176553
0.0176127
0.0175702
0.0175277
0.0174852
0.0174429
0.0174006
0.0173583
0.0173161
0.0172739
0.0172271
0.0171762
0.017126
0.0170765
0.0170277
0.0169796
0.0169322
0.0168854
0.0168392
0.0167937
0.0167488
0.0167045
0.0166608
0.0166177
0.0165751
0.016533
0.0164915
0.0164505
0.01641
0.01637
0.0163305
0.0162915
0.0162529
0.0162148
0.0161771
0.0161399
0.0161031
0.0160667
0.0160308
0.0159952
0.01596
0.0159252
0.0158908
0.0158568
0.0158231
0.0157898
0.0157568
0.0157242
0.0156919
0.0156599
0.0156283
0.0155969
0.0155659
0.0155352
0.0155048
0.0154747
0.0154449
0.0154154
0.0153862
0.0153572
0.0153285
0.0153001
0.0152719
0.015244
0.0152164
0.015189
0.0151618
0.0151349
0.0151082
0.0150818
0.0150556
0.0150296
0.0150038
0.0149783
0.0149529
0.0149278
0.0149029
0.0148782
0.0148537
0.0148294
0.0148053
0.0147813
0.0147576
0.0147341
0.0147107
0.0146875
0.0146645
0.0146416
0.014619
0.0145965
0.0145741
0.0145519
0.0145299
0.014508
0.0144862
0.0144646
0.0144431
0.0144217
0.0144003
0.0143788
0.0143581
0.0143375
0.0143035
0.0143224
0.0142623
)
;
    }
    symmetry
    {
        type            symmetryPlane;
    }
    frontAndBack
    {
        type            empty;
    }
}


// ************************************************************************* //
