/*--------------------------------*- C++ -*----------------------------------*\
| =========                 |                                                 |
| \\      /  F ield         | OpenFOAM: The Open Source CFD Toolbox           |
|  \\    /   O peration     | Version:  v2012                                 |
|   \\  /    A nd           | Website:  www.openfoam.com                      |
|    \\/     M anipulation  |                                                 |
\*---------------------------------------------------------------------------*/
FoamFile
{
    version     2.0;
    format      ascii;
    class       volScalarField;
    location    "40";
    object      k;
}
// * * * * * * * * * * * * * * * * * * * * * * * * * * * * * * * * * * * * * //

dimensions      [0 2 -2 0 0 0 0];


internalField   nonuniform List<scalar> 
209825
(
0.00102412
0.000931009
0.000855291
0.000795307
0.000748599
0.000712247
0.000683761
0.000661102
0.000642862
0.000627935
0.000615602
0.000605262
0.000596535
0.000589078
0.000582676
0.000577121
0.000572284
0.000568039
0.000564296
0.000560981
0.000558025
0.000555391
0.000553017
0.000550892
0.000548957
0.000547222
0.000545625
0.000544193
0.000542858
0.000541665
0.000540544
0.00053954
0.000538586
0.00053774
0.000536927
0.000536208
0.000535504
0.00053489
0.000534285
0.00053376
0.000533233
0.000532783
0.000532331
0.000531939
0.000531542
0.000531209
0.000530863
0.000530573
0.000530267
0.000530014
0.000529748
0.000529536
0.00052931
0.000529123
0.000528924
0.000528773
0.000528588
0.000528466
0.000528302
0.000528196
0.00052805
0.000527963
0.000527837
0.000527759
0.000527656
0.000527558
0.000527465
0.000527418
0.000527356
0.000527325
0.000527267
0.00052724
0.000527185
0.000527171
0.000527139
0.00052716
0.00052716
0.000527208
0.000527208
0.000527276
0.000527286
0.000527365
0.000527384
0.000527469
0.000527499
0.000527596
0.000527637
0.000527751
0.000527799
0.000527938
0.000527989
0.000528123
0.000528342
0.000536979
0.000565162
0.00138751
0.00102412
0.000931009
0.000855291
0.000795306
0.000748597
0.000712244
0.000683757
0.000661097
0.000642855
0.000627927
0.000615593
0.000605252
0.000596526
0.000589067
0.000582665
0.000577109
0.000572272
0.000568027
0.000564284
0.000560968
0.000558012
0.000555377
0.000553004
0.000550878
0.000548943
0.000547208
0.000545611
0.000544178
0.000542844
0.00054165
0.000540529
0.000539525
0.000538571
0.000537726
0.000536912
0.000536193
0.000535489
0.000534875
0.00053427
0.000533745
0.000533218
0.000532767
0.000532315
0.000531924
0.000531526
0.000531194
0.000530847
0.000530557
0.000530252
0.000529998
0.000529732
0.00052952
0.000529294
0.000529107
0.000528908
0.000528757
0.000528572
0.00052845
0.000528286
0.00052818
0.000528034
0.000527946
0.000527821
0.000527743
0.00052764
0.000527542
0.000527448
0.000527402
0.00052734
0.000527309
0.000527251
0.000527224
0.000527168
0.000527155
0.000527122
0.000527144
0.000527144
0.000527191
0.000527191
0.00052726
0.000527269
0.000527349
0.000527368
0.000527452
0.000527483
0.000527579
0.00052762
0.000527735
0.000527782
0.000527921
0.000527972
0.000528106
0.000528326
0.000536978
0.000565153
0.0013883
0.00102412
0.00093101
0.000855292
0.000795303
0.000748589
0.00071223
0.000683737
0.000661073
0.000642827
0.000627895
0.000615558
0.000605214
0.000596485
0.000589024
0.00058262
0.000577063
0.000572224
0.000567978
0.000564233
0.000560917
0.000557959
0.000555324
0.00055295
0.000550824
0.000548887
0.000547152
0.000545554
0.000544121
0.000542787
0.000541592
0.000540471
0.000539466
0.000538512
0.000537666
0.000536852
0.000536133
0.000535429
0.000534815
0.000534209
0.000533684
0.000533157
0.000532706
0.000532254
0.000531862
0.000531464
0.000531132
0.000530785
0.000530495
0.000530189
0.000529936
0.00052967
0.000529457
0.000529231
0.000529044
0.000528845
0.000528694
0.000528508
0.000528387
0.000528223
0.000528117
0.000527971
0.000527883
0.000527757
0.000527679
0.000527576
0.000527478
0.000527384
0.000527338
0.000527276
0.000527245
0.000527187
0.000527159
0.000527104
0.00052709
0.000527058
0.000527079
0.000527079
0.000527126
0.000527126
0.000527195
0.000527204
0.000527283
0.000527302
0.000527387
0.000527417
0.000527514
0.000527555
0.000527669
0.000527716
0.000527855
0.000527906
0.00052804
0.00052826
0.000536945
0.000565102
0.00138989
0.00102412
0.000931012
0.000855292
0.000795297
0.000748574
0.000712206
0.000683704
0.000661032
0.000642779
0.000627841
0.000615498
0.00060515
0.000596416
0.000588952
0.000582545
0.000576985
0.000572144
0.000567895
0.000564149
0.00056083
0.000557871
0.000555235
0.000552859
0.000550732
0.000548794
0.000547059
0.00054546
0.000544026
0.00054269
0.000541495
0.000540373
0.000539368
0.000538413
0.000537567
0.000536752
0.000536032
0.000535328
0.000534713
0.000534107
0.000533582
0.000533054
0.000532603
0.000532151
0.000531759
0.000531361
0.000531028
0.000530681
0.000530391
0.000530085
0.000529831
0.000529565
0.000529352
0.000529126
0.000528938
0.000528739
0.000528588
0.000528402
0.000528281
0.000528116
0.00052801
0.000527864
0.000527776
0.000527651
0.000527572
0.000527469
0.000527371
0.000527277
0.00052723
0.000527168
0.000527137
0.000527079
0.000527052
0.000526996
0.000526982
0.00052695
0.000526971
0.00052697
0.000527017
0.000527017
0.000527086
0.000527095
0.000527174
0.000527193
0.000527277
0.000527308
0.000527404
0.000527445
0.000527559
0.000527606
0.000527745
0.000527796
0.000527929
0.00052815
0.000536885
0.000565014
0.00139176
0.00102412
0.000931015
0.000855292
0.000795288
0.000748554
0.000712173
0.000683658
0.000660974
0.000642711
0.000627764
0.000615414
0.000605059
0.00059632
0.000588851
0.000582439
0.000576875
0.000572031
0.000567779
0.000564029
0.000560708
0.000557747
0.000555109
0.000552731
0.000550602
0.000548663
0.000546926
0.000545326
0.000543891
0.000542554
0.000541358
0.000540235
0.000539229
0.000538273
0.000537426
0.000536611
0.000535891
0.000535186
0.000534571
0.000533964
0.000533438
0.00053291
0.000532458
0.000532005
0.000531613
0.000531214
0.000530882
0.000530534
0.000530244
0.000529937
0.000529684
0.000529417
0.000529204
0.000528977
0.000528789
0.00052859
0.000528439
0.000528253
0.000528131
0.000527967
0.00052786
0.000527714
0.000527626
0.0005275
0.000527422
0.000527318
0.00052722
0.000527126
0.000527079
0.000527017
0.000526986
0.000526927
0.0005269
0.000526844
0.00052683
0.000526797
0.000526818
0.000526817
0.000526864
0.000526864
0.000526932
0.000526941
0.00052702
0.000527038
0.000527123
0.000527153
0.000527249
0.00052729
0.000527404
0.000527451
0.000527589
0.00052764
0.000527773
0.000527995
0.000536799
0.000564889
0.00139387
0.00102412
0.000931019
0.000855292
0.000795277
0.000748527
0.000712129
0.000683598
0.000660899
0.000642623
0.000627665
0.000615305
0.000604942
0.000596195
0.000588719
0.000582301
0.000576733
0.000571884
0.000567628
0.000563875
0.000560551
0.000557587
0.000554945
0.000552566
0.000550434
0.000548494
0.000546754
0.000545153
0.000543716
0.000542378
0.00054118
0.000540056
0.000539049
0.000538092
0.000537244
0.000536428
0.000535707
0.000535001
0.000534385
0.000533778
0.000533251
0.000532723
0.000532271
0.000531817
0.000531424
0.000531025
0.000530692
0.000530343
0.000530053
0.000529746
0.000529492
0.000529225
0.000529011
0.000528785
0.000528596
0.000528397
0.000528245
0.000528059
0.000527937
0.000527772
0.000527666
0.000527519
0.000527431
0.000527305
0.000527226
0.000527123
0.000527024
0.00052693
0.000526883
0.00052682
0.000526789
0.00052673
0.000526703
0.000526647
0.000526633
0.000526599
0.000526619
0.000526619
0.000526665
0.000526665
0.000526732
0.000526741
0.00052682
0.000526838
0.000526922
0.000526952
0.000527048
0.000527089
0.000527202
0.000527249
0.000527387
0.000527438
0.000527571
0.000527795
0.000536687
0.000564727
0.00139617
0.00102412
0.000931023
0.000855293
0.000795264
0.000748495
0.000712075
0.000683524
0.000660807
0.000642515
0.000627543
0.000615171
0.000604797
0.000596041
0.000588557
0.000582132
0.000576557
0.000571703
0.000567442
0.000563684
0.000560356
0.000557389
0.000554744
0.000552361
0.000550227
0.000548284
0.000546543
0.000544939
0.0005435
0.000542161
0.000540961
0.000539836
0.000538827
0.000537869
0.00053702
0.000536203
0.00053548
0.000534774
0.000534157
0.000533549
0.000533021
0.000532492
0.000532039
0.000531585
0.000531191
0.000530792
0.000530458
0.000530109
0.000529818
0.00052951
0.000529256
0.000528988
0.000528774
0.000528547
0.000528359
0.000528158
0.000528006
0.00052782
0.000527698
0.000527533
0.000527426
0.000527279
0.00052719
0.000527064
0.000526985
0.000526881
0.000526783
0.000526689
0.000526641
0.000526578
0.000526547
0.000526488
0.00052646
0.000526404
0.00052639
0.000526356
0.000526375
0.000526374
0.000526419
0.000526419
0.000526487
0.000526495
0.000526573
0.000526591
0.000526675
0.000526705
0.0005268
0.000526841
0.000526954
0.000527001
0.000527139
0.000527188
0.000527322
0.000527547
0.000536551
0.000564528
0.00139856
0.00102412
0.000931028
0.000855293
0.000795249
0.000748456
0.000712012
0.000683436
0.000660697
0.000642386
0.000627398
0.000615011
0.000604624
0.000595857
0.000588364
0.00058193
0.000576348
0.000571487
0.00056722
0.000563457
0.000560124
0.000557153
0.000554504
0.000552118
0.000549981
0.000548034
0.00054629
0.000544684
0.000543243
0.000541901
0.0005407
0.000539573
0.000538563
0.000537603
0.000536753
0.000535934
0.00053521
0.000534502
0.000533885
0.000533275
0.000532747
0.000532216
0.000531763
0.000531308
0.000530914
0.000530513
0.000530178
0.000529829
0.000529537
0.000529229
0.000528974
0.000528706
0.000528492
0.000528264
0.000528075
0.000527874
0.000527722
0.000527535
0.000527412
0.000527247
0.00052714
0.000526992
0.000526903
0.000526777
0.000526698
0.000526594
0.000526495
0.0005264
0.000526352
0.000526289
0.000526258
0.000526198
0.000526171
0.000526115
0.0005261
0.000526065
0.000526084
0.000526082
0.000526127
0.000526127
0.000526193
0.000526201
0.000526279
0.000526297
0.00052638
0.00052641
0.000526505
0.000526545
0.000526658
0.000526704
0.000526842
0.000526891
0.000527024
0.000527252
0.00053639
0.000564291
0.00140085
0.00102412
0.000931034
0.000855294
0.00079523
0.000748411
0.000711938
0.000683335
0.00066057
0.000642237
0.000627228
0.000614825
0.000604423
0.000595644
0.000588139
0.000581696
0.000576104
0.000571236
0.000566962
0.000563193
0.000559855
0.000556878
0.000554225
0.000551834
0.000549693
0.000547744
0.000545997
0.000544387
0.000542944
0.0005416
0.000540396
0.000539267
0.000538255
0.000537293
0.000536441
0.000535621
0.000534896
0.000534187
0.000533567
0.000532957
0.000532428
0.000531896
0.000531441
0.000530985
0.00053059
0.000530189
0.000529853
0.000529503
0.00052921
0.000528902
0.000528646
0.000528377
0.000528162
0.000527934
0.000527744
0.000527543
0.00052739
0.000527203
0.00052708
0.000526914
0.000526806
0.000526658
0.000526569
0.000526442
0.000526363
0.000526259
0.00052616
0.000526065
0.000526016
0.000525952
0.000525921
0.000525861
0.000525833
0.000525777
0.000525762
0.000525726
0.000525744
0.000525742
0.000525786
0.000525786
0.000525852
0.000525859
0.000525937
0.000525954
0.000526037
0.000526066
0.000526161
0.0005262
0.000526313
0.000526359
0.000526496
0.000526545
0.000526678
0.000526908
0.000536205
0.000564017
0.0014028
0.00102412
0.000931041
0.000855295
0.00079521
0.00074836
0.000711853
0.000683218
0.000660425
0.000642066
0.000627036
0.000614613
0.000604194
0.0005954
0.000587882
0.000581428
0.000575826
0.000570948
0.000566667
0.000562891
0.000559546
0.000556563
0.000553905
0.00055151
0.000549365
0.000547411
0.000545661
0.000544048
0.000542602
0.000541255
0.000540049
0.000538917
0.000537902
0.000536939
0.000536085
0.000535263
0.000534536
0.000533825
0.000533205
0.000532592
0.000532062
0.000531529
0.000531073
0.000530616
0.00053022
0.000529817
0.000529481
0.00052913
0.000528837
0.000528527
0.000528271
0.000528001
0.000527785
0.000527556
0.000527366
0.000527164
0.000527011
0.000526823
0.000526699
0.000526533
0.000526425
0.000526276
0.000526187
0.000526059
0.00052598
0.000525875
0.000525777
0.000525681
0.000525631
0.000525567
0.000525535
0.000525475
0.000525447
0.000525391
0.000525375
0.000525338
0.000525356
0.000525353
0.000525395
0.000525395
0.000525461
0.000525468
0.000525545
0.000525561
0.000525644
0.000525672
0.000525767
0.000525806
0.000525918
0.000525964
0.0005261
0.000526148
0.000526282
0.000526515
0.000535995
0.000563704
0.00140404
0.00102412
0.000931048
0.000855296
0.000795187
0.000748303
0.000711759
0.000683088
0.000660262
0.000641874
0.000626818
0.000614374
0.000603936
0.000595125
0.000587593
0.000581125
0.000575513
0.000570625
0.000566334
0.00056255
0.000559198
0.000556209
0.000553545
0.000551145
0.000548994
0.000547036
0.000545282
0.000543665
0.000542216
0.000540865
0.000539656
0.000538522
0.000537505
0.000536539
0.000535683
0.000534859
0.00053413
0.000533417
0.000532795
0.000532181
0.000531649
0.000531115
0.000530658
0.000530199
0.000529802
0.000529399
0.000529061
0.000528709
0.000528415
0.000528105
0.000527847
0.000527576
0.00052736
0.00052713
0.00052694
0.000526737
0.000526583
0.000526394
0.00052627
0.000526103
0.000525994
0.000525845
0.000525755
0.000525628
0.000525547
0.000525442
0.000525344
0.000525247
0.000525197
0.000525133
0.0005251
0.00052504
0.000525011
0.000524955
0.000524939
0.000524901
0.000524917
0.000524914
0.000524955
0.000524955
0.000525019
0.000525026
0.000525102
0.000525118
0.000525201
0.000525228
0.000525322
0.000525361
0.000525472
0.000525518
0.000525654
0.000525701
0.000525834
0.000526071
0.000535762
0.000563352
0.00140405
0.00102412
0.000931057
0.000855297
0.000795162
0.00074824
0.000711654
0.000682943
0.000660081
0.000641661
0.000626577
0.000614108
0.000603648
0.000594819
0.00058727
0.000580789
0.000575163
0.000570264
0.000565963
0.00056217
0.00055881
0.000555814
0.000553143
0.000550737
0.000548581
0.000546618
0.000544859
0.000543238
0.000541785
0.000540431
0.000539219
0.000538081
0.000537062
0.000536093
0.000535234
0.000534408
0.000533677
0.000532962
0.000532338
0.000531723
0.000531189
0.000530653
0.000530195
0.000529734
0.000529336
0.000528931
0.000528593
0.000528239
0.000527944
0.000527633
0.000527375
0.000527103
0.000526886
0.000526655
0.000526463
0.000526259
0.000526105
0.000525916
0.00052579
0.000525623
0.000525514
0.000525364
0.000525274
0.000525145
0.000525064
0.000524959
0.000524861
0.000524763
0.000524713
0.000524647
0.000524615
0.000524554
0.000524525
0.000524468
0.000524452
0.000524413
0.000524428
0.000524424
0.000524464
0.000524464
0.000524527
0.000524533
0.000524609
0.000524624
0.000524706
0.000524733
0.000524826
0.000524864
0.000524975
0.00052502
0.000525155
0.000525202
0.000525335
0.000525576
0.000535506
0.000562961
0.00140241
0.00102412
0.000931066
0.000855299
0.000795134
0.00074817
0.000711539
0.000682784
0.000659881
0.000641425
0.00062631
0.000613814
0.000603331
0.000594481
0.000586914
0.000580417
0.000574777
0.000569866
0.000565554
0.000561751
0.000558382
0.000555377
0.000552699
0.000550286
0.000548125
0.000546156
0.000544392
0.000542767
0.000541309
0.000539951
0.000538735
0.000537594
0.000536571
0.0005356
0.000534738
0.000533909
0.000533176
0.000532459
0.000531833
0.000531216
0.00053068
0.000530142
0.000529682
0.00052922
0.000528821
0.000528414
0.000528075
0.00052772
0.000527424
0.000527111
0.000526852
0.000526579
0.000526361
0.000526129
0.000525937
0.000525732
0.000525577
0.000525386
0.000525261
0.000525092
0.000524983
0.000524832
0.000524741
0.000524612
0.000524531
0.000524425
0.000524326
0.000524228
0.000524177
0.000524111
0.000524078
0.000524016
0.000523987
0.00052393
0.000523913
0.000523873
0.000523887
0.000523883
0.00052392
0.00052392
0.000523982
0.000523988
0.000524063
0.000524077
0.000524159
0.000524185
0.000524278
0.000524315
0.000524425
0.000524469
0.000524604
0.00052465
0.000524782
0.000525029
0.000535226
0.00056253
0.00139912
0.00102412
0.000931076
0.000855301
0.000795105
0.000748095
0.000711413
0.00068261
0.000659663
0.000641168
0.000626019
0.000613493
0.000602984
0.000594111
0.000586525
0.00058001
0.000574354
0.000569429
0.000565105
0.000561291
0.000557912
0.000554899
0.000552213
0.000549792
0.000547624
0.000545649
0.000543879
0.000542249
0.000540787
0.000539424
0.000538205
0.000537059
0.000536034
0.000535059
0.000534194
0.000533362
0.000532627
0.000531908
0.000531279
0.000530659
0.000530122
0.000529582
0.00052912
0.000528657
0.000528255
0.000527847
0.000527506
0.00052715
0.000526852
0.000526539
0.000526278
0.000526004
0.000525785
0.000525552
0.000525359
0.000525153
0.000524997
0.000524806
0.000524679
0.00052451
0.0005244
0.000524249
0.000524156
0.000524027
0.000523945
0.000523839
0.00052374
0.000523641
0.000523589
0.000523522
0.000523488
0.000523426
0.000523397
0.00052334
0.000523322
0.000523281
0.000523293
0.000523288
0.000523324
0.000523324
0.000523385
0.000523389
0.000523464
0.000523477
0.000523558
0.000523584
0.000523676
0.000523712
0.000523821
0.000523865
0.000523999
0.000524044
0.000524176
0.000524429
0.000534922
0.000562057
0.0013942
0.00102412
0.000931087
0.000855303
0.000795073
0.000748014
0.000711277
0.000682421
0.000659426
0.000640889
0.000625702
0.000613144
0.000602606
0.000593709
0.0005861
0.000579566
0.000573894
0.000568954
0.000564616
0.00056079
0.0005574
0.000554377
0.000551682
0.000549254
0.000547078
0.000545097
0.000543321
0.000541685
0.000540217
0.000538851
0.000537626
0.000536477
0.000535448
0.000534469
0.000533601
0.000532766
0.000532028
0.000531306
0.000530675
0.000530053
0.000529513
0.000528971
0.000528507
0.000528042
0.000527639
0.000527229
0.000526886
0.000526529
0.00052623
0.000525915
0.000525653
0.000525377
0.000525157
0.000524923
0.000524729
0.000524521
0.000524365
0.000524172
0.000524045
0.000523875
0.000523764
0.000523612
0.000523519
0.000523389
0.000523306
0.0005232
0.0005231
0.000523
0.000522948
0.00052288
0.000522846
0.000522783
0.000522754
0.000522696
0.000522677
0.000522635
0.000522646
0.00052264
0.000522674
0.000522673
0.000522733
0.000522737
0.00052281
0.000522823
0.000522903
0.000522928
0.000523019
0.000523055
0.000523163
0.000523206
0.000523339
0.000523383
0.000523516
0.000523774
0.000534593
0.000561542
0.00138769
0.00102412
0.000931099
0.000855306
0.000795039
0.000747926
0.000711131
0.000682218
0.00065917
0.000640587
0.00062536
0.000612766
0.000602198
0.000593274
0.000585642
0.000579087
0.000573396
0.000568439
0.000564087
0.000560248
0.000556846
0.000553813
0.000551108
0.000548671
0.000546487
0.000544499
0.000542716
0.000541074
0.000539601
0.000538229
0.000537
0.000535846
0.000534812
0.00053383
0.000532959
0.00053212
0.000531379
0.000530654
0.00053002
0.000529395
0.000528853
0.000528309
0.000527843
0.000527375
0.000526971
0.000526559
0.000526214
0.000525855
0.000525555
0.000525238
0.000524975
0.000524698
0.000524476
0.000524241
0.000524046
0.000523837
0.000523679
0.000523486
0.000523357
0.000523186
0.000523074
0.000522922
0.000522828
0.000522697
0.000522613
0.000522507
0.000522407
0.000522306
0.000522253
0.000522184
0.000522149
0.000522086
0.000522056
0.000521997
0.000521978
0.000521935
0.000521944
0.000521937
0.000521969
0.000521968
0.000522026
0.00052203
0.000522102
0.000522114
0.000522193
0.000522217
0.000522307
0.000522342
0.00052245
0.000522492
0.000522624
0.000522666
0.000522799
0.000523064
0.00053424
0.000560983
0.00137961
0.00102412
0.000931112
0.000855308
0.000795003
0.000747833
0.000710974
0.000682
0.000658896
0.000640263
0.000624992
0.00061236
0.000601759
0.000592805
0.000585147
0.00057857
0.000572859
0.000567885
0.000563517
0.000559664
0.000556249
0.000553204
0.000550489
0.000548042
0.00054585
0.000543854
0.000542064
0.000540415
0.000538936
0.000537558
0.000536324
0.000535165
0.000534127
0.000533141
0.000532266
0.000531424
0.000530679
0.000529951
0.000529314
0.000528686
0.000528142
0.000527595
0.000527126
0.000526656
0.00052625
0.000525836
0.00052549
0.000525128
0.000524826
0.000524508
0.000524244
0.000523965
0.000523742
0.000523505
0.000523309
0.000523098
0.00052294
0.000522745
0.000522616
0.000522444
0.000522331
0.000522177
0.000522082
0.000521951
0.000521866
0.000521759
0.000521659
0.000521557
0.000521502
0.000521433
0.000521397
0.000521333
0.000521303
0.000521244
0.000521224
0.00052118
0.000521187
0.000521179
0.000521208
0.000521208
0.000521264
0.000521266
0.000521337
0.000521348
0.000521427
0.00052145
0.000521539
0.000521573
0.000521679
0.000521721
0.000521852
0.000521893
0.000522026
0.000522299
0.000533861
0.000560378
0.00137001
0.00102412
0.000931125
0.000855312
0.000794964
0.000747734
0.000710808
0.000681767
0.000658603
0.000639917
0.000624598
0.000611926
0.000601288
0.000592303
0.000584618
0.000578016
0.000572284
0.00056729
0.000562905
0.000559037
0.000555609
0.000552551
0.000549825
0.000547368
0.000545166
0.000543161
0.000541364
0.000539708
0.000538222
0.000536838
0.000535598
0.000534435
0.000533392
0.000532401
0.000531521
0.000530675
0.000529927
0.000529195
0.000528555
0.000527924
0.000527377
0.000526828
0.000526357
0.000525884
0.000525475
0.000525059
0.000524711
0.000524347
0.000524044
0.000523723
0.000523458
0.000523177
0.000522953
0.000522714
0.000522517
0.000522305
0.000522145
0.000521949
0.000521818
0.000521645
0.000521531
0.000521377
0.000521281
0.000521149
0.000521063
0.000520955
0.000520855
0.000520752
0.000520696
0.000520625
0.000520589
0.000520524
0.000520494
0.000520434
0.000520414
0.000520368
0.000520374
0.000520364
0.000520391
0.00052039
0.000520444
0.000520446
0.000520516
0.000520526
0.000520603
0.000520625
0.000520713
0.000520747
0.000520852
0.000520893
0.000521023
0.000521062
0.000521195
0.000521476
0.000533456
0.000559725
0.00135893
0.00102412
0.000931139
0.000855315
0.000794924
0.000747629
0.000710631
0.00068152
0.000658291
0.000639548
0.000624179
0.000611462
0.000600786
0.000591768
0.000584053
0.000577425
0.000571669
0.000566655
0.000562251
0.000558367
0.000554924
0.000551853
0.000549114
0.000546647
0.000544435
0.000542421
0.000540615
0.000538951
0.000537458
0.000536068
0.000534822
0.000533653
0.000532605
0.000531609
0.000530725
0.000529874
0.000529122
0.000528387
0.000527744
0.000527109
0.000526559
0.000526007
0.000525533
0.000525057
0.000524647
0.000524228
0.000523877
0.000523512
0.000523206
0.000522884
0.000522617
0.000522334
0.000522108
0.000521868
0.000521669
0.000521455
0.000521295
0.000521097
0.000520965
0.000520791
0.000520676
0.00052052
0.000520424
0.00052029
0.000520203
0.000520094
0.000519994
0.00051989
0.000519833
0.000519761
0.000519724
0.000519659
0.000519627
0.000519567
0.000519546
0.0005195
0.000519503
0.000519492
0.000519517
0.000519515
0.000519567
0.000519568
0.000519636
0.000519646
0.000519722
0.000519743
0.00051983
0.000519862
0.000519966
0.000520006
0.000520135
0.000520173
0.000520306
0.000520596
0.000533021
0.00055902
0.00134644
0.00102412
0.000931154
0.00085532
0.000794882
0.000747519
0.000710443
0.000681258
0.000657961
0.000639156
0.000623733
0.000610969
0.000600252
0.000591198
0.000583451
0.000576795
0.000571015
0.000565979
0.000561555
0.000557653
0.000554194
0.000551109
0.000548357
0.000545878
0.000543656
0.000541632
0.000539817
0.000538145
0.000536644
0.000535247
0.000533995
0.000532819
0.000531765
0.000530764
0.000529876
0.000529021
0.000528264
0.000527525
0.000526878
0.00052624
0.000525687
0.000525131
0.000524654
0.000524176
0.000523763
0.000523341
0.000522988
0.000522621
0.000522313
0.000521989
0.00052172
0.000521435
0.000521207
0.000520965
0.000520765
0.000520549
0.000520387
0.000520188
0.000520055
0.000519879
0.000519763
0.000519607
0.000519509
0.000519374
0.000519286
0.000519177
0.000519076
0.00051897
0.000518913
0.000518839
0.000518801
0.000518735
0.000518703
0.000518642
0.000518621
0.000518573
0.000518575
0.000518561
0.000518585
0.000518582
0.000518631
0.000518632
0.000518698
0.000518707
0.000518781
0.000518801
0.000518887
0.000518918
0.000519021
0.000519061
0.000519188
0.000519224
0.000519357
0.000519657
0.000532557
0.000558261
0.0013326
0.00102413
0.00093117
0.000855325
0.000794839
0.000747403
0.000710246
0.000680982
0.000657611
0.000638741
0.000623261
0.000610448
0.000599687
0.000590594
0.000582813
0.000576127
0.000570321
0.000565261
0.000560816
0.000556895
0.000553419
0.000550319
0.000547554
0.000545061
0.000542828
0.000540793
0.000538968
0.000537288
0.000535779
0.000534374
0.000533115
0.000531933
0.000530874
0.000529867
0.000528973
0.000528113
0.000527352
0.000526608
0.000525958
0.000525316
0.000524759
0.0005242
0.00052372
0.000523239
0.000522823
0.000522398
0.000522043
0.000521673
0.000521363
0.000521037
0.000520766
0.000520479
0.000520249
0.000520005
0.000519804
0.000519586
0.000519423
0.000519222
0.000519087
0.00051891
0.000518793
0.000518635
0.000518536
0.0005184
0.000518311
0.0005182
0.0005181
0.000517993
0.000517934
0.000517859
0.00051782
0.000517753
0.00051772
0.000517659
0.000517636
0.000517588
0.000517587
0.000517572
0.000517593
0.000517589
0.000517636
0.000517636
0.000517701
0.000517708
0.000517781
0.0005178
0.000517885
0.000517915
0.000518016
0.000518055
0.00051818
0.000518215
0.000518348
0.000518659
0.000532059
0.000557443
0.00131746
0.00102413
0.000931187
0.00085533
0.000794793
0.000747281
0.000710039
0.000680691
0.000657243
0.000638304
0.000622763
0.000609896
0.000599089
0.000589955
0.000582138
0.000575421
0.000569586
0.000564501
0.000560034
0.000556093
0.000552599
0.000549482
0.000546702
0.000544196
0.000541951
0.000539905
0.00053807
0.00053638
0.000534862
0.000533449
0.000532183
0.000530994
0.000529928
0.000528915
0.000528016
0.000527151
0.000526385
0.000525637
0.000524982
0.000524336
0.000523775
0.000523213
0.00052273
0.000522245
0.000521826
0.000521399
0.000521041
0.000520668
0.000520356
0.000520027
0.000519754
0.000519465
0.000519233
0.000518987
0.000518784
0.000518564
0.000518399
0.000518197
0.000518061
0.000517882
0.000517764
0.000517604
0.000517504
0.000517367
0.000517277
0.000517165
0.000517064
0.000516955
0.000516895
0.000516819
0.000516779
0.000516711
0.000516677
0.000516615
0.000516592
0.000516543
0.00051654
0.000516523
0.000516541
0.000516536
0.00051658
0.00051658
0.000516642
0.000516648
0.000516721
0.000516738
0.000516821
0.00051685
0.00051695
0.000516988
0.000517112
0.000517145
0.000517278
0.0005176
0.000531524
0.000556564
0.00130111
0.00102413
0.000931204
0.000855336
0.000794746
0.000747154
0.000709823
0.000680386
0.000656856
0.000637845
0.000622239
0.000609316
0.000598459
0.000589281
0.000581426
0.000574675
0.000568811
0.000563699
0.000559208
0.000555246
0.000551733
0.000548598
0.000545803
0.000543283
0.000541024
0.000538966
0.00053712
0.00053542
0.000533893
0.000532472
0.000531197
0.000530001
0.000528929
0.000527909
0.000527004
0.000526133
0.000525363
0.00052461
0.00052395
0.0005233
0.000522735
0.000522169
0.000521682
0.000521194
0.000520772
0.000520342
0.000519981
0.000519605
0.000519291
0.000518959
0.000518684
0.000518392
0.000518159
0.00051791
0.000517705
0.000517483
0.000517317
0.000517112
0.000516975
0.000516795
0.000516675
0.000516514
0.000516412
0.000516274
0.000516182
0.00051607
0.000515968
0.000515858
0.000515797
0.000515719
0.000515678
0.000515608
0.000515574
0.000515511
0.000515487
0.000515437
0.000515433
0.000515413
0.000515429
0.000515423
0.000515463
0.000515463
0.000515523
0.000515528
0.000515598
0.000515614
0.000515696
0.000515724
0.000515822
0.000515859
0.000515981
0.000516012
0.000516145
0.000516479
0.000530944
0.000555623
0.00128361
0.00102413
0.000931223
0.000855342
0.000794698
0.000747023
0.000709597
0.000680067
0.000656451
0.000637362
0.000621689
0.000608706
0.000597796
0.000588573
0.000580677
0.000573891
0.000567994
0.000562855
0.000558338
0.000554353
0.00055082
0.000547667
0.000544854
0.000542319
0.000540047
0.000537976
0.000536119
0.000534408
0.000532872
0.000531441
0.000530158
0.000528954
0.000527874
0.000526848
0.000525937
0.00052506
0.000524284
0.000523526
0.000522861
0.000522207
0.000521638
0.000521067
0.000520577
0.000520085
0.00051966
0.000519226
0.000518862
0.000518483
0.000518166
0.000517832
0.000517554
0.00051726
0.000517024
0.000516773
0.000516567
0.000516342
0.000516174
0.000515968
0.000515829
0.000515647
0.000515525
0.000515363
0.000515259
0.00051512
0.000515027
0.000514913
0.000514811
0.0005147
0.000514637
0.000514557
0.000514515
0.000514444
0.00051441
0.000514346
0.000514321
0.00051427
0.000514263
0.000514241
0.000514255
0.000514247
0.000514284
0.000514284
0.000514341
0.000514345
0.000514414
0.000514428
0.000514509
0.000514535
0.000514632
0.000514667
0.000514788
0.000514817
0.00051495
0.000515297
0.000530311
0.000554615
0.00126505
0.00102413
0.000931242
0.00085535
0.000794648
0.000746886
0.000709361
0.000679734
0.000656027
0.000636857
0.000621112
0.000608066
0.000597101
0.00058783
0.000579891
0.000573067
0.000567136
0.000561967
0.000557424
0.000553415
0.00054986
0.000546688
0.000543857
0.000541306
0.000539019
0.000536935
0.000535065
0.000533343
0.000531796
0.000530356
0.000529064
0.000527852
0.000526765
0.000525732
0.000524813
0.00052393
0.000523149
0.000522385
0.000521715
0.000521056
0.000520482
0.000519907
0.000519413
0.000518917
0.000518488
0.000518051
0.000517684
0.000517302
0.000516982
0.000516645
0.000516365
0.000516068
0.00051583
0.000515576
0.000515368
0.000515141
0.000514971
0.000514763
0.000514621
0.000514438
0.000514315
0.000514151
0.000514046
0.000513905
0.00051381
0.000513695
0.000513593
0.00051348
0.000513415
0.000513334
0.000513291
0.000513219
0.000513183
0.000513118
0.000513092
0.000513041
0.000513032
0.000513007
0.000513018
0.000513009
0.000513043
0.000513042
0.000513096
0.000513099
0.000513166
0.000513179
0.000513258
0.000513282
0.000513378
0.000513412
0.000513531
0.000513558
0.000513691
0.000514051
0.000529618
0.000553539
0.00124551
0.00102413
0.000931261
0.000855358
0.000794598
0.000746745
0.000709117
0.000679387
0.000655585
0.00063633
0.000620509
0.000607397
0.000596374
0.000587051
0.000579067
0.000572203
0.000566237
0.000561037
0.000556465
0.000552431
0.000548853
0.00054566
0.000542811
0.000540243
0.00053794
0.000535842
0.000533959
0.000532225
0.000530667
0.000529217
0.000527916
0.000526694
0.000525599
0.000524558
0.000523633
0.000522743
0.000521956
0.000521186
0.000520511
0.000519846
0.000519268
0.000518689
0.00051819
0.00051769
0.000517258
0.000516816
0.000516446
0.00051606
0.000515738
0.000515397
0.000515115
0.000514815
0.000514575
0.000514318