/*--------------------------------*- C++ -*----------------------------------*\
| =========                 |                                                 |
| \\      /  F ield         | OpenFOAM: The Open Source CFD Toolbox           |
|  \\    /   O peration     | Version:  v2012                                 |
|   \\  /    A nd           | Website:  www.openfoam.com                      |
|    \\/     M anipulation  |                                                 |
\*---------------------------------------------------------------------------*/
FoamFile
{
    version     2.0;
    format      ascii;
    class       volVectorField;
    location    "40";
    object      wallShearStress;
}
// * * * * * * * * * * * * * * * * * * * * * * * * * * * * * * * * * * * * * //

dimensions      [0 2 -2 0 0 0 0];


internalField   uniform (0 0 0);

boundaryField
{
    inlet
    {
        type            calculated;
        value           uniform (0 0 0);
    }
    outlet
    {
        type            calculated;
        value           uniform (0 0 0);
    }
    topWall
    {
        type            calculated;
        value           nonuniform List<vector> 
545
(
(3.6739e-08 -2.5861e-08 0)
(3.67277e-08 -7.23437e-08 0)
(3.67073e-08 -1.20679e-07 0)
(3.66787e-08 -1.67617e-07 0)
(3.66427e-08 -2.12557e-07 0)
(3.66001e-08 -2.56076e-07 0)
(3.65516e-08 -2.98544e-07 0)
(3.64974e-08 -3.39942e-07 0)
(3.6438e-08 -3.80179e-07 0)
(3.6374e-08 -4.19254e-07 0)
(3.63057e-08 -4.5722e-07 0)
(3.62336e-08 -4.94118e-07 0)
(3.61581e-08 -5.29975e-07 0)
(3.60795e-08 -5.64812e-07 0)
(3.59981e-08 -5.98653e-07 0)
(3.59143e-08 -6.31526e-07 0)
(3.58284e-08 -6.63456e-07 0)
(3.57406e-08 -6.94469e-07 0)
(3.56512e-08 -7.2459e-07 0)
(3.55605e-08 -7.53841e-07 0)
(3.54686e-08 -7.82249e-07 0)
(3.53758e-08 -8.09835e-07 0)
(3.52822e-08 -8.36623e-07 0)
(3.51881e-08 -8.62635e-07 0)
(3.50937e-08 -8.87894e-07 0)
(3.4999e-08 -9.1242e-07 0)
(3.49043e-08 -9.36235e-07 0)
(3.48097e-08 -9.59359e-07 0)
(3.47152e-08 -9.81813e-07 0)
(3.46211e-08 -1.00361e-06 0)
(3.45274e-08 -1.02478e-06 0)
(3.44342e-08 -1.04534e-06 0)
(3.43416e-08 -1.0653e-06 0)
(3.42497e-08 -1.08468e-06 0)
(3.41586e-08 -1.1035e-06 0)
(3.40683e-08 -1.12177e-06 0)
(3.39789e-08 -1.13952e-06 0)
(3.38905e-08 -1.15675e-06 0)
(3.3803e-08 -1.17349e-06 0)
(3.37167e-08 -1.18974e-06 0)
(3.36314e-08 -1.20552e-06 0)
(3.35472e-08 -1.22085e-06 0)
(3.34642e-08 -1.23574e-06 0)
(3.33824e-08 -1.2502e-06 0)
(3.33018e-08 -1.26424e-06 0)
(3.32224e-08 -1.27788e-06 0)
(3.31443e-08 -1.29113e-06 0)
(3.30675e-08 -1.304e-06 0)
(3.29919e-08 -1.3165e-06 0)
(3.29175e-08 -1.32865e-06 0)
(3.28445e-08 -1.34044e-06 0)
(3.27727e-08 -1.3519e-06 0)
(3.27023e-08 -1.36304e-06 0)
(3.26331e-08 -1.37386e-06 0)
(3.25652e-08 -1.38437e-06 0)
(3.24986e-08 -1.39458e-06 0)
(3.24333e-08 -1.4045e-06 0)
(3.23692e-08 -1.41415e-06 0)
(3.23064e-08 -1.42351e-06 0)
(3.22448e-08 -1.43262e-06 0)
(3.21845e-08 -1.44147e-06 0)
(3.21254e-08 -1.45007e-06 0)
(3.20675e-08 -1.45842e-06 0)
(3.20108e-08 -1.46654e-06 0)
(3.19553e-08 -1.47444e-06 0)
(3.1901e-08 -1.48211e-06 0)
(3.18478e-08 -1.48957e-06 0)
(3.17958e-08 -1.49682e-06 0)
(3.17449e-08 -1.50386e-06 0)
(3.16951e-08 -1.51071e-06 0)
(3.16463e-08 -1.51737e-06 0)
(3.1599e-08 -1.52384e-06 0)
(3.1553e-08 -1.53006e-06 0)
(3.15076e-08 -1.5361e-06 0)
(3.14628e-08 -1.54207e-06 0)
(3.14181e-08 -1.54801e-06 0)
(3.13734e-08 -1.55393e-06 0)
(3.13288e-08 -1.55981e-06 0)
(3.12842e-08 -1.56566e-06 0)
(3.12396e-08 -1.57147e-06 0)
(3.11951e-08 -1.57724e-06 0)
(3.11506e-08 -1.58298e-06 0)
(3.11062e-08 -1.58869e-06 0)
(3.10618e-08 -1.59436e-06 0)
(3.10175e-08 -1.59999e-06 0)
(3.09732e-08 -1.6056e-06 0)
(3.0929e-08 -1.61117e-06 0)
(3.08848e-08 -1.6167e-06 0)
(3.08407e-08 -1.62221e-06 0)
(3.07966e-08 -1.62768e-06 0)
(3.07526e-08 -1.63312e-06 0)
(3.07087e-08 -1.63852e-06 0)
(3.06648e-08 -1.64389e-06 0)
(3.0621e-08 -1.64923e-06 0)
(3.05769e-08 -1.65455e-06 0)
(3.05348e-08 -1.65978e-06 0)
(3.04957e-08 -1.66457e-06 0)
(3.04583e-08 -1.66891e-06 0)
(3.04221e-08 -1.67313e-06 0)
(3.0386e-08 -1.67738e-06 0)
(3.03499e-08 -1.68166e-06 0)
(3.03136e-08 -1.68596e-06 0)
(3.02771e-08 -1.69025e-06 0)
(3.02405e-08 -1.69455e-06 0)
(3.02037e-08 -1.69884e-06 0)
(3.01667e-08 -1.70315e-06 0)
(3.01295e-08 -1.70746e-06 0)
(3.00921e-08 -1.71178e-06 0)
(3.00546e-08 -1.71609e-06 0)
(3.00169e-08 -1.72042e-06 0)
(2.9979e-08 -1.72475e-06 0)
(2.9941e-08 -1.72908e-06 0)
(2.99027e-08 -1.73342e-06 0)
(2.98643e-08 -1.73776e-06 0)
(2.98257e-08 -1.74211e-06 0)
(2.97869e-08 -1.74646e-06 0)
(2.9748e-08 -1.75082e-06 0)
(2.97088e-08 -1.75518e-06 0)
(2.96695e-08 -1.75955e-06 0)
(2.963e-08 -1.76392e-06 0)
(2.95903e-08 -1.7683e-06 0)
(2.95504e-08 -1.77267e-06 0)
(2.95103e-08 -1.77706e-06 0)
(2.94701e-08 -1.78145e-06 0)
(2.94296e-08 -1.78584e-06 0)
(2.9389e-08 -1.79024e-06 0)
(2.93482e-08 -1.79464e-06 0)
(2.93072e-08 -1.79904e-06 0)
(2.9266e-08 -1.80345e-06 0)
(2.92246e-08 -1.80787e-06 0)
(2.9183e-08 -1.81228e-06 0)
(2.91412e-08 -1.81671e-06 0)
(2.90993e-08 -1.82113e-06 0)
(2.90571e-08 -1.82556e-06 0)
(2.90148e-08 -1.83e-06 0)
(2.89723e-08 -1.83444e-06 0)
(2.89296e-08 -1.83888e-06 0)
(2.88866e-08 -1.84332e-06 0)
(2.88435e-08 -1.84777e-06 0)
(2.88002e-08 -1.85223e-06 0)
(2.87567e-08 -1.85668e-06 0)
(2.8713e-08 -1.86115e-06 0)
(2.86692e-08 -1.86561e-06 0)
(2.86251e-08 -1.87008e-06 0)
(2.85808e-08 -1.87455e-06 0)
(2.85363e-08 -1.87903e-06 0)
(2.84916e-08 -1.88351e-06 0)
(2.84468e-08 -1.88799e-06 0)
(2.84017e-08 -1.89247e-06 0)
(2.83564e-08 -1.89696e-06 0)
(2.8311e-08 -1.90146e-06 0)
(2.82653e-08 -1.90595e-06 0)
(2.82194e-08 -1.91045e-06 0)
(2.81734e-08 -1.91496e-06 0)
(2.81271e-08 -1.91946e-06 0)
(2.80806e-08 -1.92397e-06 0)
(2.8034e-08 -1.92849e-06 0)
(2.79871e-08 -1.933e-06 0)
(2.794e-08 -1.93752e-06 0)
(2.78927e-08 -1.94204e-06 0)
(2.78452e-08 -1.94657e-06 0)
(2.77976e-08 -1.95109e-06 0)
(2.77497e-08 -1.95562e-06 0)
(2.77016e-08 -1.96016e-06 0)
(2.76533e-08 -1.96469e-06 0)
(2.76048e-08 -1.96923e-06 0)
(2.75561e-08 -1.97378e-06 0)
(2.75071e-08 -1.97832e-06 0)
(2.7458e-08 -1.98287e-06 0)
(2.74087e-08 -1.98742e-06 0)
(2.73592e-08 -1.99197e-06 0)
(2.73094e-08 -1.99652e-06 0)
(2.72595e-08 -2.00108e-06 0)
(2.72093e-08 -2.00564e-06 0)
(2.7159e-08 -2.0102e-06 0)
(2.71084e-08 -2.01476e-06 0)
(2.70576e-08 -2.01933e-06 0)
(2.70066e-08 -2.0239e-06 0)
(2.69554e-08 -2.02847e-06 0)
(2.6904e-08 -2.03304e-06 0)
(2.68524e-08 -2.03762e-06 0)
(2.68006e-08 -2.04219e-06 0)
(2.67485e-08 -2.04677e-06 0)
(2.66963e-08 -2.05135e-06 0)
(2.66438e-08 -2.05593e-06 0)
(2.65911e-08 -2.06052e-06 0)
(2.65383e-08 -2.0651e-06 0)
(2.64852e-08 -2.06969e-06 0)
(2.64319e-08 -2.07428e-06 0)
(2.63784e-08 -2.07887e-06 0)
(2.63246e-08 -2.08346e-06 0)
(2.62707e-08 -2.08805e-06 0)
(2.62165e-08 -2.09265e-06 0)
(2.61622e-08 -2.09724e-06 0)
(2.61076e-08 -2.10184e-06 0)
(2.60528e-08 -2.10644e-06 0)
(2.59978e-08 -2.11104e-06 0)
(2.59426e-08 -2.11564e-06 0)
(2.58872e-08 -2.12024e-06 0)
(2.58315e-08 -2.12484e-06 0)
(2.57757e-08 -2.12944e-06 0)
(2.57196e-08 -2.13405e-06 0)
(2.56633e-08 -2.13865e-06 0)
(2.56068e-08 -2.14326e-06 0)
(2.55501e-08 -2.14787e-06 0)
(2.54932e-08 -2.15247e-06 0)
(2.54361e-08 -2.15708e-06 0)
(2.53787e-08 -2.16169e-06 0)
(2.53212e-08 -2.1663e-06 0)
(2.52634e-08 -2.1709e-06 0)
(2.52054e-08 -2.17551e-06 0)
(2.51472e-08 -2.18012e-06 0)
(2.50888e-08 -2.18473e-06 0)
(2.50302e-08 -2.18934e-06 0)
(2.49714e-08 -2.19395e-06 0)
(2.49123e-08 -2.19856e-06 0)
(2.4853e-08 -2.20317e-06 0)
(2.47936e-08 -2.20778e-06 0)
(2.47339e-08 -2.21239e-06 0)
(2.4674e-08 -2.217e-06 0)
(2.46138e-08 -2.22161e-06 0)
(2.45535e-08 -2.22621e-06 0)
(2.4493e-08 -2.23082e-06 0)
(2.44322e-08 -2.23543e-06 0)
(2.43713e-08 -2.24004e-06 0)
(2.43101e-08 -2.24464e-06 0)
(2.42487e-08 -2.24925e-06 0)
(2.41871e-08 -2.25385e-06 0)
(2.41253e-08 -2.25845e-06 0)
(2.40632e-08 -2.26306e-06 0)
(2.4001e-08 -2.26766e-06 0)
(2.39386e-08 -2.27226e-06 0)
(2.38759e-08 -2.27686e-06 0)
(2.38131e-08 -2.28145e-06 0)
(2.375e-08 -2.28605e-06 0)
(2.36867e-08 -2.29064e-06 0)
(2.36232e-08 -2.29524e-06 0)
(2.35595e-08 -2.29983e-06 0)
(2.34956e-08 -2.30442e-06 0)
(2.34315e-08 -2.30901e-06 0)
(2.33671e-08 -2.31359e-06 0)
(2.33026e-08 -2.31818e-06 0)
(2.32379e-08 -2.32276e-06 0)
(2.31729e-08 -2.32734e-06 0)
(2.31078e-08 -2.33192e-06 0)
(2.30424e-08 -2.3365e-06 0)
(2.29768e-08 -2.34107e-06 0)
(2.29111e-08 -2.34565e-06 0)
(2.28451e-08 -2.35022e-06 0)
(2.27789e-08 -2.35478e-06 0)
(2.27126e-08 -2.35935e-06 0)
(2.2646e-08 -2.36391e-06 0)
(2.25792e-08 -2.36847e-06 0)
(2.25122e-08 -2.37303e-06 0)
(2.2445e-08 -2.37758e-06 0)
(2.23776e-08 -2.38213e-06 0)
(2.231e-08 -2.38668e-06 0)
(2.22423e-08 -2.39122e-06 0)
(2.21743e-08 -2.39576e-06 0)
(2.21061e-08 -2.4003e-06 0)
(2.20377e-08 -2.40484e-06 0)
(2.19691e-08 -2.40937e-06 0)
(2.19004e-08 -2.4139e-06 0)
(2.18314e-08 -2.41842e-06 0)
(2.17622e-08 -2.42294e-06 0)
(2.16929e-08 -2.42746e-06 0)
(2.16234e-08 -2.43197e-06 0)
(2.15534e-08 -2.43649e-06 0)
(2.14849e-08 -2.44097e-06 0)
(2.1419e-08 -2.44523e-06 0)
(2.13545e-08 -2.44929e-06 0)
(2.12907e-08 -2.45331e-06 0)
(2.12265e-08 -2.45737e-06 0)
(2.11617e-08 -2.46148e-06 0)
(2.10961e-08 -2.46563e-06 0)
(2.10299e-08 -2.4698e-06 0)
(2.09629e-08 -2.474e-06 0)
(2.08951e-08 -2.47824e-06 0)
(2.08267e-08 -2.48251e-06 0)
(2.07574e-08 -2.48681e-06 0)
(2.06874e-08 -2.49114e-06 0)
(2.06166e-08 -2.49551e-06 0)
(2.05451e-08 -2.49991e-06 0)
(2.04727e-08 -2.50434e-06 0)
(2.03996e-08 -2.5088e-06 0)
(2.03256e-08 -2.51329e-06 0)
(2.02509e-08 -2.51782e-06 0)
(2.01753e-08 -2.52238e-06 0)
(2.00989e-08 -2.52697e-06 0)
(2.00217e-08 -2.53159e-06 0)
(1.99437e-08 -2.53625e-06 0)
(1.98648e-08 -2.54093e-06 0)
(1.9785e-08 -2.54565e-06 0)
(1.97044e-08 -2.55041e-06 0)
(1.9623e-08 -2.55519e-06 0)
(1.95406e-08 -2.56e-06 0)
(1.94574e-08 -2.56485e-06 0)
(1.93733e-08 -2.56973e-06 0)
(1.92883e-08 -2.57464e-06 0)
(1.92024e-08 -2.57958e-06 0)
(1.91156e-08 -2.58455e-06 0)
(1.90279e-08 -2.58956e-06 0)
(1.89393e-08 -2.59459e-06 0)
(1.88497e-08 -2.59966e-06 0)
(1.87592e-08 -2.60475e-06 0)
(1.86678e-08 -2.60988e-06 0)
(1.85754e-08 -2.61504e-06 0)
(1.84821e-08 -2.62022e-06 0)
(1.83878e-08 -2.62544e-06 0)
(1.82926e-08 -2.63069e-06 0)
(1.81963e-08 -2.63596e-06 0)
(1.80991e-08 -2.64127e-06 0)
(1.8001e-08 -2.6466e-06 0)
(1.79018e-08 -2.65196e-06 0)
(1.78017e-08 -2.65735e-06 0)
(1.77005e-08 -2.66277e-06 0)
(1.75984e-08 -2.66822e-06 0)
(1.74952e-08 -2.67369e-06 0)
(1.7391e-08 -2.67919e-06 0)
(1.72858e-08 -2.68471e-06 0)
(1.71796e-08 -2.69027e-06 0)
(1.70724e-08 -2.69584e-06 0)
(1.69641e-08 -2.70145e-06 0)
(1.68548e-08 -2.70707e-06 0)
(1.67445e-08 -2.71272e-06 0)
(1.66332e-08 -2.7184e-06 0)
(1.65207e-08 -2.7241e-06 0)
(1.64073e-08 -2.72982e-06 0)
(1.62928e-08 -2.73556e-06 0)
(1.61772e-08 -2.74132e-06 0)
(1.60607e-08 -2.74711e-06 0)
(1.5943e-08 -2.75291e-06 0)
(1.58243e-08 -2.75874e-06 0)
(1.57045e-08 -2.76458e-06 0)
(1.55837e-08 -2.77045e-06 0)
(1.54619e-08 -2.77633e-06 0)
(1.5339e-08 -2.78222e-06 0)
(1.5215e-08 -2.78814e-06 0)
(1.509e-08 -2.79407e-06 0)
(1.49639e-08 -2.80001e-06 0)
(1.48368e-08 -2.80597e-06 0)
(1.47086e-08 -2.81194e-06 0)
(1.45794e-08 -2.81792e-06 0)
(1.44491e-08 -2.82392e-06 0)
(1.43178e-08 -2.82992e-06 0)
(1.41855e-08 -2.83593e-06 0)
(1.40522e-08 -2.84196e-06 0)
(1.39178e-08 -2.84799e-06 0)
(1.37824e-08 -2.85403e-06 0)
(1.3646e-08 -2.86007e-06 0)
(1.35086e-08 -2.86612e-06 0)
(1.33702e-08 -2.87217e-06 0)
(1.32309e-08 -2.87822e-06 0)
(1.30905e-08 -2.88427e-06 0)
(1.29492e-08 -2.89033e-06 0)
(1.28069e-08 -2.89638e-06 0)
(1.26636e-08 -2.90244e-06 0)
(1.25195e-08 -2.90848e-06 0)
(1.23744e-08 -2.91453e-06 0)
(1.22284e-08 -2.92057e-06 0)
(1.20815e-08 -2.9266e-06 0)
(1.19337e-08 -2.93262e-06 0)
(1.1785e-08 -2.93863e-06 0)
(1.16355e-08 -2.94463e-06 0)
(1.14852e-08 -2.95062e-06 0)
(1.1334e-08 -2.9566e-06 0)
(1.1182e-08 -2.96256e-06 0)
(1.10293e-08 -2.9685e-06 0)
(1.08757e-08 -2.97442e-06 0)
(1.07215e-08 -2.98033e-06 0)
(1.05665e-08 -2.98621e-06 0)
(1.04108e-08 -2.99207e-06 0)
(1.02544e-08 -2.99791e-06 0)
(1.00974e-08 -3.00372e-06 0)
(9.93978e-09 -3.0095e-06 0)
(9.78152e-09 -3.01525e-06 0)
(9.6227e-09 -3.02097e-06 0)
(9.46332e-09 -3.02666e-06 0)
(9.30342e-09 -3.03231e-06 0)
(9.14302e-09 -3.03793e-06 0)
(8.98217e-09 -3.04351e-06 0)
(8.82087e-09 -3.04905e-06 0)
(8.65918e-09 -3.05454e-06 0)
(8.49712e-09 -3.06e-06 0)
(8.33472e-09 -3.06541e-06 0)
(8.17202e-09 -3.07077e-06 0)
(8.00906e-09 -3.07608e-06 0)
(7.84586e-09 -3.08134e-06 0)
(7.68247e-09 -3.08655e-06 0)
(7.51892e-09 -3.09171e-06 0)
(7.35526e-09 -3.09681e-06 0)
(7.19152e-09 -3.10185e-06 0)
(7.02773e-09 -3.10683e-06 0)
(6.86395e-09 -3.11175e-06 0)
(6.70022e-09 -3.1166e-06 0)
(6.53656e-09 -3.12139e-06 0)
(6.37304e-09 -3.12611e-06 0)
(6.20969e-09 -3.13076e-06 0)
(6.04656e-09 -3.13534e-06 0)
(5.88368e-09 -3.13984e-06 0)
(5.72112e-09 -3.14427e-06 0)
(5.55891e-09 -3.14862e-06 0)
(5.3971e-09 -3.1529e-06 0)
(5.23574e-09 -3.15709e-06 0)
(5.07488e-09 -3.1612e-06 0)
(4.91456e-09 -3.16522e-06 0)
(4.75484e-09 -3.16915e-06 0)
(4.59576e-09 -3.173e-06 0)
(4.43737e-09 -3.17676e-06 0)
(4.27973e-09 -3.18042e-06 0)
(4.12288e-09 -3.18399e-06 0)
(3.96688e-09 -3.18746e-06 0)
(3.81178e-09 -3.19084e-06 0)
(3.65762e-09 -3.19412e-06 0)
(3.50447e-09 -3.19729e-06 0)
(3.35237e-09 -3.20036e-06 0)
(3.20137e-09 -3.20333e-06 0)
(3.05152e-09 -3.20619e-06 0)
(2.90289e-09 -3.20894e-06 0)
(2.75551e-09 -3.21159e-06 0)
(2.60944e-09 -3.21412e-06 0)
(2.46473e-09 -3.21654e-06 0)
(2.32144e-09 -3.21885e-06 0)
(2.1796e-09 -3.22105e-06 0)
(2.03928e-09 -3.22312e-06 0)
(1.90052e-09 -3.22508e-06 0)
(1.76338e-09 -3.22693e-06 0)
(1.62789e-09 -3.22865e-06 0)
(1.49411e-09 -3.23025e-06 0)
(1.36208e-09 -3.23173e-06 0)
(1.23185e-09 -3.23308e-06 0)
(1.10347e-09 -3.23432e-06 0)
(9.76973e-10 -3.23543e-06 0)
(8.52413e-10 -3.23641e-06 0)
(7.29829e-10 -3.23727e-06 0)
(6.09263e-10 -3.238e-06 0)
(4.90755e-10 -3.2386e-06 0)
(3.74346e-10 -3.23908e-06 0)
(2.60074e-10 -3.23943e-06 0)
(1.47976e-10 -3.23965e-06 0)
(3.80882e-11 -3.23974e-06 0)
(-6.95539e-11 -3.23971e-06 0)
(-1.74916e-10 -3.23954e-06 0)
(-2.77967e-10 -3.23925e-06 0)
(-3.78672e-10 -3.23882e-06 0)
(-4.77016e-10 -3.23827e-06 0)
(-5.72906e-10 -3.23759e-06 0)
(-6.66583e-10 -3.23679e-06 0)
(-7.56904e-10 -3.23585e-06 0)
(-8.48592e-10 -3.23479e-06 0)
(-9.45013e-10 -3.23347e-06 0)
(-1.04225e-09 -3.23184e-06 0)
(-1.1373e-09 -3.23006e-06 0)
(-1.22802e-09 -3.22812e-06 0)
(-1.31418e-09 -3.22604e-06 0)
(-1.39585e-09 -3.22383e-06 0)
(-1.4731e-09 -3.22149e-06 0)
(-1.54605e-09 -3.21902e-06 0)
(-1.61482e-09 -3.21645e-06 0)
(-1.67954e-09 -3.21376e-06 0)
(-1.74034e-09 -3.21098e-06 0)
(-1.79733e-09 -3.2081e-06 0)
(-1.85064e-09 -3.20513e-06 0)
(-1.90037e-09 -3.20207e-06 0)
(-1.94663e-09 -3.19894e-06 0)
(-1.98954e-09 -3.19574e-06 0)
(-2.02919e-09 -3.19247e-06 0)
(-2.06569e-09 -3.18914e-06 0)
(-2.09914e-09 -3.18576e-06 0)
(-2.12963e-09 -3.18232e-06 0)
(-2.15725e-09 -3.17884e-06 0)
(-2.18209e-09 -3.17531e-06 0)
(-2.20423e-09 -3.17175e-06 0)
(-2.22377e-09 -3.16815e-06 0)
(-2.24078e-09 -3.16452e-06 0)
(-2.25533e-09 -3.16087e-06 0)
(-2.26751e-09 -3.15719e-06 0)
(-2.27738e-09 -3.1535e-06 0)
(-2.28502e-09 -3.1498e-06 0)
(-2.29049e-09 -3.14608e-06 0)
(-2.29385e-09 -3.14236e-06 0)
(-2.29518e-09 -3.13863e-06 0)
(-2.29452e-09 -3.1349e-06 0)
(-2.29194e-09 -3.13118e-06 0)
(-2.28749e-09 -3.12746e-06 0)
(-2.28124e-09 -3.12375e-06 0)
(-2.27322e-09 -3.12005e-06 0)
(-2.26349e-09 -3.11637e-06 0)
(-2.2521e-09 -3.11271e-06 0)
(-2.2391e-09 -3.10906e-06 0)
(-2.22452e-09 -3.10544e-06 0)
(-2.20842e-09 -3.10184e-06 0)
(-2.19084e-09 -3.09827e-06 0)
(-2.17182e-09 -3.09472e-06 0)
(-2.15139e-09 -3.09122e-06 0)
(-2.1296e-09 -3.08774e-06 0)
(-2.10648e-09 -3.0843e-06 0)
(-2.08207e-09 -3.0809e-06 0)
(-2.0564e-09 -3.07754e-06 0)
(-2.0295e-09 -3.07423e-06 0)
(-2.00142e-09 -3.07095e-06 0)
(-1.97217e-09 -3.06773e-06 0)
(-1.9418e-09 -3.06455e-06 0)
(-1.91033e-09 -3.06142e-06 0)
(-1.87779e-09 -3.05835e-06 0)
(-1.84421e-09 -3.05533e-06 0)
(-1.80961e-09 -3.05236e-06 0)
(-1.77404e-09 -3.04945e-06 0)
(-1.7375e-09 -3.0466e-06 0)
(-1.70004e-09 -3.04381e-06 0)
(-1.66166e-09 -3.04108e-06 0)
(-1.62242e-09 -3.03841e-06 0)
(-1.58231e-09 -3.03581e-06 0)
(-1.54139e-09 -3.03327e-06 0)
(-1.49966e-09 -3.0308e-06 0)
(-1.45715e-09 -3.0284e-06 0)
(-1.41389e-09 -3.02606e-06 0)
(-1.3699e-09 -3.0238e-06 0)
(-1.32521e-09 -3.02161e-06 0)
(-1.27985e-09 -3.0195e-06 0)
(-1.23382e-09 -3.01745e-06 0)
(-1.18718e-09 -3.01548e-06 0)
(-1.13992e-09 -3.01359e-06 0)
(-1.09209e-09 -3.01178e-06 0)
(-1.0437e-09 -3.01004e-06 0)
(-9.94775e-10 -3.00838e-06 0)
(-9.45345e-10 -3.0068e-06 0)
(-8.95433e-10 -3.00531e-06 0)
(-8.45061e-10 -3.00389e-06 0)
(-7.94255e-10 -3.00255e-06 0)
(-7.43037e-10 -3.0013e-06 0)
(-6.91433e-10 -3.00013e-06 0)
(-6.39468e-10 -2.99904e-06 0)
(-5.87169e-10 -2.99805e-06 0)
(-5.34561e-10 -2.99712e-06 0)
(-4.81678e-10 -2.99631e-06 0)
(-4.28551e-10 -2.9955e-06 0)
(-3.7523e-10 -2.99505e-06 0)
(-3.21727e-10 -2.99378e-06 0)
(-2.68187e-10 -2.99557e-06 0)
(-2.14346e-10 -2.98738e-06 0)
(-1.61104e-10 -3.01139e-06 0)
(-1.05947e-10 -2.92102e-06 0)
(-5.5803e-11 -3.16081e-06 0)
(-1.7336e-11 -2.76062e-06 0)
)
;
    }
    bottomWall
    {
        type            calculated;
        value           nonuniform List<vector> 
449
(
(-48.4972 -0.963604 0)
(-19.7413 -0.0051504 0)
(-14.3413 -0.00113254 0)
(-12.0395 -0.000542681 0)
(-10.6446 -0.000346913 0)
(-9.67079 -0.00024737 0)
(-8.9516 -0.000180576 0)
(-8.432 -0.000120002 0)
(-8.1268 -4.33983e-05 0)
(-8.13478 9.82848e-05 0)
(-8.81093 0.000277264 0)
(-10.0581 0.00032746 0)
(-11.0811 0.000237437 0)
(-11.7066 0.000139314 0)
(-12.0512 7.60154e-05 0)
(-12.2374 3.93178e-05 0)
(-12.3264 1.63326e-05 0)
(-12.3519 6.43535e-07 0)
(-12.3308 -9.53585e-06 0)
(-12.2845 -1.56105e-05 0)
(-12.2203 -1.95962e-05 0)
(-12.1456 -2.17799e-05 0)
(-12.0655 -2.27607e-05 0)
(-11.9834 -2.30194e-05 0)
(-11.9012 -2.28517e-05 0)
(-11.8199 -2.24513e-05 0)
(-11.7401 -2.19032e-05 0)
(-11.6624 -2.12458e-05 0)
(-11.587 -2.05425e-05 0)
(-11.5139 -1.9826e-05 0)
(-11.4434 -1.91151e-05 0)
(-11.3752 -1.8421e-05 0)
(-11.3093 -1.77508e-05 0)
(-11.2457 -1.71061e-05 0)
(-11.1843 -1.64992e-05 0)
(-11.1248 -1.59302e-05 0)
(-11.0673 -1.53817e-05 0)
(-11.0116 -1.48519e-05 0)
(-10.9576 -1.43483e-05 0)
(-10.9054 -1.38704e-05 0)
(-10.8548 -1.34164e-05 0)
(-10.8057 -1.29861e-05 0)
(-10.758 -1.25797e-05 0)
(-10.7118 -1.21934e-05 0)
(-10.6668 -1.18257e-05 0)
(-10.623 -1.14757e-05 0)
(-10.5805 -1.11446e-05 0)
(-10.539 -1.08273e-05 0)
(-10.4987 -1.05347e-05 0)
(-10.4592 -1.02775e-05 0)
(-10.4206 -1.00449e-05 0)
(-10.3828 -9.82648e-06 0)
(-10.3457 -9.61437e-06 0)
(-10.3093 -9.40563e-06 0)
(-10.2736 -9.20083e-06 0)
(-10.2386 -8.99825e-06 0)
(-10.2043 -8.80024e-06 0)
(-10.1707 -8.60855e-06 0)
(-10.1377 -8.42119e-06 0)
(-10.1054 -8.23957e-06 0)
(-10.0736 -8.06443e-06 0)
(-10.0425 -7.89604e-06 0)
(-10.012 -7.7322e-06 0)
(-9.98198 -7.5724e-06 0)
(-9.95255 -7.41751e-06 0)
(-9.92364 -7.26891e-06 0)
(-9.89524 -7.12537e-06 0)
(-9.86733 -6.98624e-06 0)
(-9.8399 -6.85038e-06 0)
(-9.81294 -6.72286e-06 0)
(-9.7864 -6.60091e-06 0)
(-9.76028 -6.47851e-06 0)
(-9.73459 -6.35855e-06 0)
(-9.70932 -6.2431e-06 0)
(-9.68443 -6.13149e-06 0)
(-9.65994 -6.02154e-06 0)
(-9.63583 -5.91474e-06 0)
(-9.61208 -5.81037e-06 0)
(-9.5887 -5.70901e-06 0)
(-9.56567 -5.61064e-06 0)
(-9.54298 -5.51488e-06 0)
(-9.52063 -5.42181e-06 0)
(-9.49859 -5.33147e-06 0)
(-9.47687 -5.2431e-06 0)
(-9.45547 -5.1571e-06 0)
(-9.43435 -5.07386e-06 0)
(-9.41353 -4.99252e-06 0)
(-9.39299 -4.91464e-06 0)
(-9.37272 -4.83829e-06 0)
(-9.35272 -4.76328e-06 0)
(-9.33298 -4.69042e-06 0)
(-9.3135 -4.6186e-06 0)
(-9.29427 -4.5491e-06 0)
(-9.27528 -4.4811e-06 0)
(-9.25653 -4.4139e-06 0)
(-9.23802 -4.34964e-06 0)
(-9.21972 -4.28624e-06 0)
(-9.20166 -4.22415e-06 0)
(-9.18381 -4.16435e-06 0)
(-9.16617 -4.10484e-06 0)
(-9.14875 -4.04994e-06 0)
(-9.1315 -3.99744e-06 0)
(-9.11444 -3.94302e-06 0)
(-9.09758 -3.88994e-06 0)
(-9.0809 -3.83719e-06 0)
(-9.06441 -3.78509e-06 0)
(-9.04811 -3.73545e-06 0)
(-9.03197 -3.68612e-06 0)
(-9.01602 -3.63724e-06 0)
(-9.00024 -3.59069e-06 0)
(-8.98462 -3.54439e-06 0)
(-8.96917 -3.49839e-06 0)
(-8.95388 -3.45471e-06 0)
(-8.93874 -3.41141e-06 0)
(-8.92376 -3.36813e-06 0)
(-8.90893 -3.32695e-06 0)
(-8.89425 -3.28634e-06 0)
(-8.87971 -3.24563e-06 0)
(-8.86532 -3.20653e-06 0)
(-8.85107 -3.16851e-06 0)
(-8.83695 -3.13033e-06 0)
(-8.82297 -3.09316e-06 0)
(-8.80912 -3.05755e-06 0)
(-8.7954 -3.02172e-06 0)
(-8.78181 -2.98624e-06 0)
(-8.76834 -2.95242e-06 0)
(-8.75499 -2.91896e-06 0)
(-8.74177 -2.88546e-06 0)
(-8.72866 -2.85307e-06 0)
(-8.71567 -2.82175e-06 0)
(-8.70279 -2.79028e-06 0)
(-8.69003 -2.7591e-06 0)
(-8.67738 -2.72933e-06 0)
(-8.66483 -2.69999e-06 0)
(-8.65239 -2.67041e-06 0)
(-8.64005 -2.64168e-06 0)
(-8.62782 -2.61421e-06 0)
(-8.61569 -2.5865e-06 0)
(-8.60366 -2.55869e-06 0)
(-8.59173 -2.53221e-06 0)
(-8.57989 -2.50648e-06 0)
(-8.56814 -2.48036e-06 0)
(-8.55649 -2.45454e-06 0)
(-8.54494 -2.42993e-06 0)
(-8.53347 -2.40574e-06 0)
(-8.52209 -2.3811e-06 0)
(-8.5108 -2.35816e-06 0)
(-8.49958 -2.33713e-06 0)
(-8.48844 -2.3152e-06 0)
(-8.47738 -2.29228e-06 0)
(-8.46641 -2.26973e-06 0)
(-8.45552 -2.24805e-06 0)
(-8.4447 -2.22658e-06 0)
(-8.43397 -2.20498e-06 0)
(-8.42331 -2.18376e-06 0)
(-8.41273 -2.16333e-06 0)
(-8.40222 -2.1432e-06 0)
(-8.39179 -2.1229e-06 0)
(-8.38143 -2.10282e-06 0)
(-8.37114 -2.08351e-06 0)
(-8.36093 -2.06468e-06 0)
(-8.35078 -2.04561e-06 0)
(-8.3407 -2.02655e-06 0)
(-8.3307 -2.00826e-06 0)
(-8.32075 -1.99061e-06 0)
(-8.31088 -1.97271e-06 0)
(-8.30106 -1.95469e-06 0)
(-8.29132 -1.93727e-06 0)
(-8.28164 -1.92064e-06 0)
(-8.27201 -1.90381e-06 0)
(-8.26246 -1.88714e-06 0)
(-8.25296 -1.87036e-06 0)
(-8.24352 -1.8521e-06 0)
(-8.23468 -1.83885e-06 0)
(-8.22635 -1.82735e-06 0)
(-8.21799 -1.81138e-06 0)
(-8.20962 -1.79658e-06 0)
(-8.20122 -1.78303e-06 0)
(-8.1928 -1.76935e-06 0)
(-8.18435 -1.75546e-06 0)
(-8.17587 -1.74125e-06 0)
(-8.16738 -1.72755e-06 0)
(-8.15885 -1.71416e-06 0)
(-8.1503 -1.70082e-06 0)
(-8.14173 -1.68707e-06 0)
(-8.13313 -1.6732e-06 0)
(-8.12452 -1.65983e-06 0)
(-8.11587 -1.64669e-06 0)
(-8.10721 -1.63348e-06 0)
(-8.09851 -1.62e-06 0)
(-8.0898 -1.60654e-06 0)
(-8.08107 -1.5935e-06 0)
(-8.07231 -1.58063e-06 0)
(-8.06353 -1.56757e-06 0)
(-8.05473 -1.55435e-06 0)
(-8.0459 -1.54134e-06 0)
(-8.03706 -1.52862e-06 0)
(-8.02819 -1.51603e-06 0)
(-8.0193 -1.50316e-06 0)
(-8.01039 -1.49019e-06 0)
(-8.00146 -1.47763e-06 0)
(-7.99251 -1.46527e-06 0)
(-7.98354 -1.45281e-06 0)
(-7.97455 -1.4402e-06 0)
(-7.96554 -1.4277e-06 0)
(-7.95651 -1.41552e-06 0)
(-7.94746 -1.40348e-06 0)
(-7.93839 -1.39119e-06 0)
(-7.92931 -1.37882e-06 0)
(-7.9202 -1.36683e-06 0)
(-7.91108 -1.35515e-06 0)
(-7.90194 -1.34408e-06 0)
(-7.89276 -1.33304e-06 0)
(-7.88357 -1.32145e-06 0)
(-7.87436 -1.30987e-06 0)
(-7.86513 -1.29827e-06 0)
(-7.85589 -1.28649e-06 0)
(-7.84663 -1.27478e-06 0)
(-7.83735 -1.26342e-06 0)
(-7.82806 -1.25218e-06 0)
(-7.81875 -1.2407e-06 0)
(-7.80942 -1.2292e-06 0)
(-7.80008 -1.21807e-06 0)
(-7.79073 -1.20716e-06 0)
(-7.78135 -1.19599e-06 0)
(-7.77197 -1.18471e-06 0)
(-7.76257 -1.17383e-06 0)
(-7.75316 -1.16319e-06 0)
(-7.74373 -1.15232e-06 0)
(-7.73429 -1.14132e-06 0)
(-7.72483 -1.13068e-06 0)
(-7.71536 -1.12029e-06 0)
(-7.70588 -1.10971e-06 0)
(-7.69639 -1.099e-06 0)
(-7.68688 -1.08861e-06 0)
(-7.67736 -1.07848e-06 0)
(-7.66783 -1.06816e-06 0)
(-7.65829 -1.05773e-06 0)
(-7.64874 -1.04762e-06 0)
(-7.63918 -1.03774e-06 0)
(-7.6296 -1.02767e-06 0)
(-7.62001 -1.01752e-06 0)
(-7.61042 -1.00769e-06 0)
(-7.60081 -9.98056e-07 0)
(-7.5912 -9.8823e-07 0)
(-7.58157 -9.78359e-07 0)
(-7.57194 -9.68815e-07 0)
(-7.5623 -9.59416e-07 0)
(-7.55265 -9.49833e-07 0)
(-7.54299 -9.40271e-07 0)
(-7.53333 -9.31004e-07 0)
(-7.52365 -9.21816e-07 0)
(-7.51397 -9.12483e-07 0)
(-7.50428 -9.03232e-07 0)
(-7.49459 -8.94227e-07 0)
(-7.48488 -8.8524e-07 0)
(-7.47517 -8.76157e-07 0)
(-7.46546 -8.67216e-07 0)
(-7.45574 -8.58473e-07 0)
(-7.44602 -8.49694e-07 0)
(-7.43629 -8.40866e-07 0)
(-7.42656 -8.32224e-07 0)
(-7.41682 -8.23744e-07 0)
(-7.40707 -8.15176e-07 0)
(-7.39733 -8.06595e-07 0)
(-7.38758 -7.98239e-07 0)
(-7.37783 -7.8997e-07 0)
(-7.36807 -7.81632e-07 0)
(-7.35831 -7.73355e-07 0)
(-7.34855 -7.65265e-07 0)
(-7.33879 -7.57194e-07 0)
(-7.32903 -7.49311e-07 0)
(-7.31926 -7.41885e-07 0)
(-7.30948 -7.34402e-07 0)
(-7.2997 -7.26516e-07 0)
(-7.28992 -7.18596e-07 0)
(-7.28014 -7.10886e-07 0)
(-7.27036 -7.03279e-07 0)
(-7.26058 -6.95678e-07 0)
(-7.2508 -6.88148e-07 0)
(-7.24102 -6.80724e-07 0)
(-7.23124 -6.73268e-07 0)
(-7.22147 -6.65778e-07 0)
(-7.2117 -6.58447e-07 0)
(-7.20193 -6.51243e-07 0)
(-7.19216 -6.43977e-07 0)
(-7.1824 -6.3676e-07 0)
(-7.17264 -6.29723e-07 0)
(-7.16288 -6.22707e-07 0)
(-7.15313 -6.15643e-07 0)
(-7.14339 -6.08725e-07 0)
(-7.13365 -6.01928e-07 0)
(-7.12391 -5.95083e-07 0)
(-7.11419 -5.88269e-07 0)
(-7.10446 -5.81642e-07 0)
(-7.09475 -5.7502e-07 0)
(-7.08504 -5.68373e-07 0)
(-7.07533 -5.61859e-07 0)
(-7.06564 -5.5546e-07 0)
(-7.05595 -5.49006e-07 0)
(-7.04627 -5.42612e-07 0)
(-7.0366 -5.36385e-07 0)
(-7.02693 -5.30153e-07 0)
(-7.01728 -5.23898e-07 0)
(-7.00764 -5.17802e-07 0)
(-6.998 -5.11771e-07 0)
(-6.98837 -5.05709e-07 0)
(-6.97876 -4.99724e-07 0)
(-6.96915 -4.93891e-07 0)
(-6.95955 -4.88016e-07 0)
(-6.94997 -4.82159e-07 0)
(-6.9404 -4.76465e-07 0)
(-6.93084 -4.70799e-07 0)
(-6.92128 -4.65107e-07 0)
(-6.91175 -4.5954e-07 0)
(-6.90222 -4.54057e-07 0)
(-6.89271 -4.48552e-07 0)
(-6.8832 -4.43104e-07 0)
(-6.87372 -4.37801e-07 0)
(-6.86424 -4.3248e-07 0)
(-6.85478 -4.27174e-07 0)
(-6.84533 -4.22006e-07 0)
(-6.8359 -4.16875e-07 0)
(-6.82648 -4.11734e-07 0)
(-6.81707 -4.067e-07 0)
(-6.80768 -4.0174e-07 0)
(-6.7983 -3.96773e-07 0)
(-6.78894 -3.91869e-07 0)
(-6.77959 -3.87089e-07 0)
(-6.77026 -3.8249e-07 0)
(-6.76094 -3.77988e-07 0)
(-6.75162 -3.73417e-07 0)
(-6.74232 -3.6879e-07 0)
(-6.73303 -3.64151e-07 0)
(-6.72377 -3.59611e-07 0)
(-6.71452 -3.5512e-07 0)
(-6.70529 -3.50635e-07 0)
(-6.69607 -3.46216e-07 0)
(-6.68687 -3.41881e-07 0)
(-6.67769 -3.37544e-07 0)
(-6.66852 -3.33253e-07 0)
(-6.65938 -3.29058e-07 0)
(-6.65025 -3.24876e-07 0)
(-6.64114 -3.20711e-07 0)
(-6.63205 -3.16645e-07 0)
(-6.62297 -3.12604e-07 0)
(-6.61392 -3.08584e-07 0)
(-6.60488 -3.04632e-07 0)
(-6.59587 -3.00738e-07 0)
(-6.58687 -2.96831e-07 0)
(-6.57789 -2.93023e-07 0)
(-6.56893 -2.89169e-07 0)
(-6.56 -2.85489e-07 0)
(-6.55107 -2.81929e-07 0)
(-6.54118 -2.77623e-07 0)
(-6.53041 -2.73042e-07 0)
(-6.51982 -2.6891e-07 0)
(-6.50938 -2.64874e-07 0)
(-6.49911 -2.60846e-07 0)
(-6.48898 -2.56962e-07 0)
(-6.47901 -2.53151e-07 0)
(-6.46918 -2.49424e-07 0)
(-6.45951 -2.4581e-07 0)
(-6.44996 -2.42264e-07 0)
(-6.44056 -2.38789e-07 0)
(-6.43128 -2.35425e-07 0)
(-6.42215 -2.32124e-07 0)
(-6.41313 -2.28889e-07 0)
(-6.40425 -2.25764e-07 0)
(-6.39548 -2.22698e-07 0)
(-6.38683 -2.19693e-07 0)
(-6.3783 -2.16792e-07 0)
(-6.36988 -2.13951e-07 0)
(-6.36156 -2.11153e-07 0)
(-6.35337 -2.0843e-07 0)
(-6.34527 -2.05761e-07 0)
(-6.33728 -2.03134e-07 0)
(-6.32938 -2.00573e-07 0)
(-6.32159 -1.98083e-07 0)
(-6.31389 -1.95628e-07 0)
(-6.3063 -1.93221e-07 0)
(-6.29878 -1.90887e-07 0)
(-6.29137 -1.88596e-07 0)
(-6.28403 -1.86333e-07 0)
(-6.2768 -1.84134e-07 0)
(-6.26964 -1.81989e-07 0)
(-6.26257 -1.79877e-07 0)
(-6.25557 -1.77816e-07 0)
(-6.24866 -1.75861e-07 0)
(-6.24182 -1.73943e-07 0)
(-6.23506 -1.72019e-07 0)
(-6.22837 -1.70115e-07 0)
(-6.22176 -1.68263e-07 0)
(-6.21521 -1.6643e-07 0)
(-6.20875 -1.64627e-07 0)
(-6.20234 -1.62857e-07 0)
(-6.19601 -1.61143e-07 0)
(-6.18974 -1.59439e-07 0)
(-6.18354 -1.57769e-07 0)
(-6.1774 -1.56126e-07 0)
(-6.17134 -1.54539e-07 0)
(-6.16532 -1.52957e-07 0)
(-6.15938 -1.51412e-07 0)
(-6.15348 -1.4988e-07 0)
(-6.14766 -1.48406e-07 0)
(-6.14187 -1.46929e-07 0)
(-6.13617 -1.45495e-07 0)
(-6.1305 -1.44055e-07 0)
(-6.1249 -1.42685e-07 0)
(-6.11934 -1.41307e-07 0)
(-6.11385 -1.39983e-07 0)
(-6.10839 -1.38627e-07 0)
(-6.10301 -1.37359e-07 0)
(-6.09765 -1.36069e-07 0)
(-6.09238 -1.34852e-07 0)
(-6.08711 -1.33581e-07 0)
(-6.08193 -1.32413e-07 0)
(-6.07675 -1.31196e-07 0)
(-6.07167 -1.30088e-07 0)
(-6.06658 -1.28897e-07 0)
(-6.06159 -1.27815e-07 0)
(-6.05659 -1.26659e-07 0)
(-6.05169 -1.25641e-07 0)
(-6.04676 -1.24521e-07 0)
(-6.04195 -1.23538e-07 0)
(-6.0371 -1.22435e-07 0)
(-6.03238 -1.21504e-07 0)
(-6.0276 -1.20449e-07 0)
(-6.02296 -1.19571e-07 0)
(-6.01825 -1.18532e-07 0)
(-6.01369 -1.17682e-07 0)
(-6.00905 -1.1668e-07 0)
(-6.00457 -1.15889e-07 0)
(-5.99999 -1.14925e-07 0)
(-5.99558 -1.14172e-07 0)
(-5.99106 -1.13249e-07 0)
(-5.98673 -1.12534e-07 0)
(-5.98227 -1.11743e-07 0)
(-5.97799 -1.10974e-07 0)
(-5.97359 -1.10577e-07 0)
(-5.96934 -1.09208e-07 0)
(-5.96505 -1.10438e-07 0)
(-5.9607 -1.06149e-07 0)
(-5.95676 -1.13852e-07 0)
(-5.95178 -9.73994e-08 0)
(-5.94919 -1.26567e-07 0)
(-5.94181 -7.6598e-08 0)
(-5.94335 -1.05283e-07 0)
(-5.9333 -1.33336e-07 0)
)
;
    }
    symmetry
    {
        type            symmetryPlane;
    }
    frontAndBack
    {
        type            empty;
    }
}


// ************************************************************************* //
