/*--------------------------------*- C++ -*----------------------------------*\
| =========                 |                                                 |
| \\      /  F ield         | OpenFOAM: The Open Source CFD Toolbox           |
|  \\    /   O peration     | Version:  v2012                                 |
|   \\  /    A nd           | Website:  www.openfoam.com                      |
|    \\/     M anipulation  |                                                 |
\*---------------------------------------------------------------------------*/
FoamFile
{
    version     2.0;
    format      ascii;
    class       volScalarField;
    location    "59.5";
    object      k;
}
// * * * * * * * * * * * * * * * * * * * * * * * * * * * * * * * * * * * * * //

dimensions      [0 2 -2 0 0 0 0];


internalField   nonuniform List<scalar> 
209825
(
0.00102387
0.000932292
0.000856783
0.00079334
0.000739812
0.000694578
0.000656518
0.000624411
0.000597356
0.000574388
0.000554864
0.000538102
0.000523688
0.000511164
0.000500266
0.000490694
0.000482271
0.000474804
0.000468167
0.000462238
0.000456916
0.000452135
0.000447803
0.000443896
0.000440322
0.000437092
0.000434109
0.00043141
0.000428895
0.000426621
0.000424478
0.000422547
0.000420708
0.000419056
0.000417464
0.000416043
0.000414657
0.000413428
0.000412214
0.000411146
0.000410075
0.000409144
0.000408196
0.000407381
0.000406537
0.000405822
0.000405068
0.000404439
0.000403763
0.00040321
0.000402601
0.000402113
0.000401564
0.00040113
0.000400636
0.00040025
0.000399804
0.00039946
0.000399057
0.000398752
0.000398386
0.000398115
0.000397782
0.000397542
0.00039724
0.000397025
0.000396751
0.000396559
0.00039631
0.00039614
0.000395914
0.000395761
0.000395559
0.000395424
0.000395235
0.000395108
0.000394927
0.000394807
0.000394634
0.000394522
0.000394356
0.000394249
0.000394091
0.000393991
0.000393841
0.000393748
0.000393606
0.000393523
0.000393391
0.000393304
0.00039323
0.000393065
0.000393148
0.000399393
0.000419462
0.00100751
0.00102387
0.000932292
0.000856783
0.00079334
0.000739812
0.000694578
0.000656518
0.00062441
0.000597355
0.000574386
0.000554861
0.000538099
0.000523685
0.00051116
0.000500262
0.000490689
0.000482266
0.000474799
0.000468161
0.000462231
0.000456909
0.000452128
0.000447796
0.000443889
0.000440315
0.000437084
0.000434101
0.000431403
0.000428887
0.000426613
0.00042447
0.000422539
0.000420699
0.000419048
0.000417456
0.000416035
0.000414648
0.00041342
0.000412205
0.000411137
0.000410066
0.000409135
0.000408187
0.000407371
0.000406528
0.000405812
0.000405059
0.00040443
0.000403754
0.0004032
0.000402591
0.000402103
0.000401554
0.00040112
0.000400626
0.00040024
0.000399794
0.00039945
0.000399047
0.000398742
0.000398376
0.000398105
0.000397772
0.000397532
0.00039723
0.000397015
0.00039674
0.000396549
0.0003963
0.00039613
0.000395904
0.00039575
0.000395548
0.000395414
0.000395224
0.000395097
0.000394916
0.000394797
0.000394624
0.000394511
0.000394345
0.000394239
0.000394081
0.00039398
0.000393831
0.000393737
0.000393595
0.000393512
0.000393381
0.000393293
0.00039322
0.000393055
0.000393138
0.000399394
0.000419457
0.00100807
0.00102387
0.000932292
0.000856783
0.00079334
0.000739813
0.000694577
0.000656515
0.000624405
0.000597348
0.000574377
0.00055485
0.000538086
0.000523669
0.000511143
0.000500243
0.000490668
0.000482244
0.000474775
0.000468136
0.000462206
0.000456883
0.000452101
0.000447767
0.000443859
0.000440285
0.000437053
0.00043407
0.000431371
0.000428854
0.00042658
0.000424436
0.000422505
0.000420665
0.000419013
0.00041742
0.000415999
0.000414612
0.000413383
0.000412168
0.0004111
0.000410029
0.000409098
0.000408149
0.000407333
0.00040649
0.000405774
0.000405021
0.000404391
0.000403715
0.000403161
0.000402553
0.000402064
0.000401515
0.000401081
0.000400587
0.0004002
0.000399754
0.00039941
0.000399007
0.000398701
0.000398335
0.000398065
0.000397732
0.000397491
0.000397189
0.000396974
0.0003967
0.000396508
0.000396259
0.000396089
0.000395863
0.000395709
0.000395507
0.000395373
0.000395183
0.000395056
0.000394875
0.000394755
0.000394582
0.00039447
0.000394304
0.000394197
0.000394039
0.000393938
0.000393789
0.000393695
0.000393553
0.00039347
0.000393339
0.000393251
0.000393177
0.000393013
0.000393096
0.000399375
0.000419427
0.00100921
0.00102387
0.000932292
0.000856784
0.000793341
0.000739813
0.000694576
0.000656511
0.000624398
0.000597336
0.000574361
0.000554831
0.000538063
0.000523643
0.000511113
0.000500211
0.000490633
0.000482207
0.000474736
0.000468095
0.000462162
0.000456838
0.000452054
0.000447719
0.00044381
0.000440234
0.000437002
0.000434017
0.000431317
0.000428799
0.000426524
0.00042438
0.000422448
0.000420607
0.000418954
0.000417361
0.000415939
0.000414552
0.000413323
0.000412107
0.000411038
0.000409967
0.000409035
0.000408086
0.00040727
0.000406426
0.00040571
0.000404956
0.000404327
0.00040365
0.000403096
0.000402487
0.000401999
0.000401449
0.000401015
0.00040052
0.000400134
0.000399688
0.000399343
0.00039894
0.000398634
0.000398268
0.000397997
0.000397664
0.000397423
0.000397121
0.000396906
0.000396631
0.00039644
0.000396191
0.00039602
0.000395794
0.00039564
0.000395438
0.000395303
0.000395114
0.000394987
0.000394805
0.000394686
0.000394513
0.0003944
0.000394234
0.000394127
0.000393969
0.000393868
0.000393719
0.000393625
0.000393483
0.0003934
0.000393268
0.00039318
0.000393107
0.000392942
0.000393026
0.000399342
0.000419374
0.00101072
0.00102387
0.000932292
0.000856784
0.000793342
0.000739813
0.000694574
0.000656505
0.000624387
0.00059732
0.00057434
0.000554804
0.000538031
0.000523606
0.000511072
0.000500165
0.000490584
0.000482154
0.00047468
0.000468036
0.000462101
0.000456774
0.000451988
0.000447651
0.00044374
0.000440163
0.000436928
0.000433942
0.000431241
0.000428722
0.000426446
0.0004243
0.000422367
0.000420525
0.000418872
0.000417278
0.000415855
0.000414467
0.000413237
0.000412021
0.000410951
0.000409879
0.000408947
0.000407997
0.000407181
0.000406337
0.00040562
0.000404866
0.000404236
0.000403559
0.000403005
0.000402395
0.000401906
0.000401356
0.000400922
0.000400427
0.00040004
0.000399593
0.000399249
0.000398846
0.000398539
0.000398173
0.000397902
0.000397568
0.000397327
0.000397025
0.00039681
0.000396535
0.000396343
0.000396094
0.000395923
0.000395697
0.000395543
0.000395341
0.000395206
0.000395016
0.000394889
0.000394707
0.000394588
0.000394414
0.000394301
0.000394135
0.000394029
0.00039387
0.000393769
0.00039362
0.000393526
0.000393383
0.0003933
0.000393169
0.00039308
0.000393007
0.000392842
0.000392928
0.000399293
0.000419298
0.00101242
0.00102387
0.000932291
0.000856785
0.000793344
0.000739814
0.000694571
0.000656497
0.000624372
0.000597299
0.000574311
0.000554768
0.000537989
0.000523558
0.000511018
0.000500106
0.00049052
0.000482086
0.000474608
0.00046796
0.000462022
0.000456691
0.000451903
0.000447563
0.00044365
0.00044007
0.000436834
0.000433846
0.000431142
0.000428622
0.000426344
0.000424197
0.000422263
0.000420419
0.000418765
0.00041717
0.000415746
0.000414357
0.000413126
0.000411909
0.000410839
0.000409766
0.000408833
0.000407882
0.000407065
0.00040622
0.000405503
0.000404748
0.000404118
0.00040344
0.000402886
0.000402275
0.000401786
0.000401236
0.000400801
0.000400306
0.000399918
0.000399471
0.000399127
0.000398723
0.000398416
0.00039805
0.000397778
0.000397445
0.000397203
0.000396901
0.000396685
0.00039641
0.000396218
0.000395969
0.000395797
0.000395571
0.000395417
0.000395214
0.00039508
0.00039489
0.000394762
0.00039458
0.000394461
0.000394287
0.000394174
0.000394008
0.000393901
0.000393742
0.000393641
0.000393491
0.000393397
0.000393254
0.000393172
0.00039304
0.000392951
0.000392877
0.000392713
0.0003928
0.00039923
0.0004192
0.00101426
0.00102387
0.000932291
0.000856786
0.000793345
0.000739814
0.000694568
0.000656488
0.000624355
0.000597273
0.000574277
0.000554725
0.000537938
0.000523499
0.000510952
0.000500034
0.000490442
0.000482002
0.000474519
0.000467867
0.000461924
0.00045659
0.000451798
0.000447455
0.000443538
0.000439956
0.000436717
0.000433727
0.000431021
0.000428499
0.000426219
0.00042407
0.000422134
0.000420289
0.000418633
0.000417037
0.000415612
0.000414221
0.000412989
0.000411771
0.0004107
0.000409626
0.000408692
0.000407741
0.000406923
0.000406077
0.000405359
0.000404603
0.000403972
0.000403294
0.000402739
0.000402128
0.000401638
0.000401088
0.000400652
0.000400156
0.000399768
0.000399321
0.000398976
0.000398572
0.000398265
0.000397898
0.000397626
0.000397292
0.00039705
0.000396747
0.000396532
0.000396256
0.000396064
0.000395814
0.000395643
0.000395416
0.000395262
0.000395059
0.000394924
0.000394733
0.000394606
0.000394424
0.000394304
0.00039413
0.000394017
0.00039385
0.000393743
0.000393584
0.000393483
0.000393333
0.000393238
0.000393096
0.000393013
0.00039288
0.000392792
0.000392718
0.000392553
0.000392642
0.000399153
0.000419079
0.00101617
0.00102387
0.000932291
0.000856787
0.000793347
0.000739815
0.000694564
0.000656476
0.000624334
0.000597242
0.000574235
0.000554674
0.000537877
0.000523429
0.000510874
0.000499947
0.000490348
0.000481902
0.000474413
0.000467755
0.000461808
0.000456469
0.000451672
0.000447326
0.000443406
0.00043982
0.000436578
0.000433585
0.000430876
0.000428351
0.000426069
0.000423919
0.00042198
0.000420134
0.000418476
0.000416878
0.000415451
0.00041406
0.000412826
0.000411607
0.000410534
0.000409459
0.000408524
0.000407572
0.000406753
0.000405906
0.000405188
0.000404431
0.000403799
0.00040312
0.000402564
0.000401952
0.000401462
0.000400911
0.000400475
0.000399978
0.00039959
0.000399142
0.000398796
0.000398391
0.000398084
0.000397716
0.000397444
0.00039711
0.000396868
0.000396564
0.000396348
0.000396072
0.00039588
0.000395629
0.000395458
0.00039523
0.000395076
0.000394873
0.000394738
0.000394547
0.000394419
0.000394237
0.000394117
0.000393943
0.000393829
0.000393662
0.000393555
0.000393396
0.000393294
0.000393144
0.000393049
0.000392906
0.000392823
0.000392691
0.000392601
0.000392527
0.000392363
0.000392455
0.000399063
0.000418936
0.00101802
0.00102387
0.00093229
0.000856788
0.00079335
0.000739816
0.000694559
0.000656463
0.00062431
0.000597206
0.000574187
0.000554614
0.000537806
0.000523347
0.000510782
0.000499847
0.00049024
0.000481786
0.00047429
0.000467626
0.000461672
0.000456328
0.000451527
0.000447176
0.000443251
0.000439661
0.000436416
0.000433419
0.000430708
0.00042818
0.000425896
0.000423742
0.000421802
0.000419953
0.000418293
0.000416693
0.000415265
0.000413871
0.000412636
0.000411415
0.000410341
0.000409265
0.000408329
0.000407375
0.000406555
0.000405707
0.000404988
0.00040423
0.000403597
0.000402917
0.00040236
0.000401748
0.000401257
0.000400705
0.000400268
0.00039977
0.000399382
0.000398933
0.000398587
0.000398181
0.000397874
0.000397505
0.000397233
0.000396898
0.000396655
0.000396351
0.000396135
0.000395858
0.000395665
0.000395415
0.000395243
0.000395015
0.000394861
0.000394657
0.000394521
0.00039433
0.000394202
0.000394019
0.000393899
0.000393724
0.000393611
0.000393443
0.000393336
0.000393176
0.000393075
0.000392924
0.000392829
0.000392686
0.000392602
0.00039247
0.00039238
0.000392306
0.000392141
0.000392236
0.000398959
0.00041877
0.00101963
0.00102387
0.00093229
0.00085679
0.000793353
0.000739816
0.000694554
0.000656448
0.000624283
0.000597165
0.000574133
0.000554546
0.000537725
0.000523254
0.000510678
0.000499733
0.000490116
0.000481653
0.000474149
0.000467478
0.000461518
0.000456168
0.00045136
0.000447004
0.000443075
0.000439481
0.000436231
0.000433231
0.000430516
0.000427985
0.000425697
0.000423541
0.000421597
0.000419746
0.000418084
0.000416482
0.000415051
0.000413656
0.000412419
0.000411196
0.000410121
0.000409043
0.000408105
0.00040715
0.000406329
0.000405479
0.000404759
0.000404
0.000403366
0.000402685
0.000402127
0.000401514
0.000401022
0.000400469
0.000400031
0.000399533
0.000399144
0.000398694
0.000398347
0.000397941
0.000397633
0.000397264
0.000396991
0.000396655
0.000396412
0.000396108
0.000395891
0.000395614
0.00039542
0.000395169
0.000394997
0.000394768
0.000394614
0.000394409
0.000394274
0.000394082
0.000393954
0.000393771
0.00039365
0.000393475
0.000393361
0.000393193
0.000393085
0.000392925
0.000392823
0.000392672
0.000392577
0.000392433
0.000392349
0.000392217
0.000392126
0.000392052
0.000391888
0.000391986
0.000398843
0.000418581
0.00102072
0.00102387
0.00093229
0.000856791
0.000793356
0.000739818
0.000694548
0.000656431
0.000624252
0.00059712
0.000574072
0.00055447
0.000537634
0.00052315
0.000510561
0.000499604
0.000489976
0.000481504
0.000473991
0.000467311
0.000461344
0.000455986
0.000451173
0.000446811
0.000442876
0.000439277
0.000436023
0.000433018
0.000430299
0.000427764
0.000425473
0.000423313
0.000421367
0.000419513
0.000417848
0.000416243
0.000414811
0.000413413
0.000412174
0.000410949
0.000409872
0.000408792
0.000407853
0.000406896
0.000406073
0.000405222
0.000404501
0.00040374
0.000403106
0.000402423
0.000401864
0.00040125
0.000400757
0.000400203
0.000399764
0.000399265
0.000398875
0.000398425
0.000398077
0.00039767
0.000397361
0.000396991
0.000396718
0.000396381
0.000396138
0.000395833
0.000395615
0.000395337
0.000395143
0.000394892
0.000394719
0.00039449
0.000394335
0.00039413
0.000393994
0.000393802
0.000393674
0.00039349
0.000393369
0.000393193
0.000393079
0.000392911
0.000392803
0.000392642
0.00039254
0.000392388
0.000392293
0.000392149
0.000392064
0.000391931
0.00039184
0.000391766
0.000391602
0.000391704
0.000398715
0.000418369
0.00102093
0.00102387
0.000932289
0.000856793
0.000793359
0.000739819
0.000694542
0.000656413
0.000624219
0.000597069
0.000574004
0.000554385
0.000537533
0.000523034
0.000510431
0.000499461
0.000489821
0.000481338
0.000473815
0.000467126
0.00046115
0.000455785
0.000450964
0.000446595
0.000442654
0.00043905
0.00043579
0.00043278
0.000430057
0.000427518
0.000425223
0.00042306
0.00042111
0.000419253
0.000417585
0.000415977
0.000414542
0.000413142
0.000411901
0.000410674
0.000409594
0.000408512
0.000407572
0.000406613
0.000405789
0.000404936
0.000404213
0.000403451
0.000402815
0.000402131
0.000401571
0.000400955
0.000400461
0.000399906
0.000399467
0.000398967
0.000398575
0.000398124
0.000397776
0.000397368
0.000397058
0.000396687
0.000396413
0.000396076
0.000395832
0.000395526
0.000395308
0.000395029
0.000394835
0.000394582
0.000394409
0.00039418
0.000394024
0.000393819
0.000393682
0.00039349
0.000393361
0.000393177
0.000393055
0.000392879
0.000392764
0.000392595
0.000392487
0.000392326
0.000392224
0.000392071
0.000391976
0.000391831
0.000391746
0.000391613
0.000391521
0.000391447
0.000391283
0.000391389
0.000398574
0.000418134
0.00101995
0.00102387
0.000932288
0.000856795
0.000793363
0.00073982
0.000694535
0.000656393
0.000624182
0.000597014
0.000573929
0.000554292
0.000537422
0.000522906
0.000510287
0.000499303
0.00048965
0.000481155
0.00047362
0.000466921
0.000460936
0.000455562
0.000450734
0.000446357
0.00044241
0.000438799
0.000435534
0.000432518
0.00042979
0.000427247
0.000424947
0.00042278
0.000420827
0.000418965
0.000417295
0.000415684
0.000414246
0.000412843
0.000411599
0.000410369
0.000409288
0.000408204
0.000407261
0.0004063
0.000405474
0.00040462
0.000403895
0.000403131
0.000402494
0.000401808
0.000401247
0.00040063
0.000400135
0.000399578
0.000399138
0.000398636
0.000398244
0.000397792
0.000397442
0.000397033
0.000396723
0.000396351
0.000396076
0.000395738
0.000395493
0.000395186
0.000394968
0.000394689
0.000394494
0.00039424
0.000394067
0.000393837
0.000393681
0.000393475
0.000393338
0.000393145
0.000393015
0.00039283
0.000392708
0.000392531
0.000392417
0.000392247
0.000392138
0.000391977
0.000391874
0.000391721
0.000391625
0.00039148
0.000391394
0.000391261
0.000391168
0.000391093
0.00039093
0.000391042
0.000398421
0.000417874
0.00101777
0.00102387
0.000932288
0.000856797
0.000793367
0.000739822
0.000694527
0.000656371
0.000624141
0.000596953
0.000573848
0.00055419
0.0005373
0.000522766
0.00051013
0.00049913
0.000489463
0.000480954
0.000473408
0.000466697
0.000460701
0.000455318
0.000450481
0.000446097
0.000442142
0.000438524
0.000435252
0.000432231
0.000429498
0.000426949
0.000424645
0.000422473
0.000420516
0.00041865
0.000416976
0.000415362
0.000413921
0.000412514
0.000411268
0.000410035
0.000408952
0.000407865
0.00040692
0.000405957
0.000405129
0.000404272
0.000403546
0.00040278
0.000402141
0.000401454
0.000400892
0.000400273
0.000399776
0.000399218
0.000398777
0.000398274
0.000397881
0.000397427
0.000397077
0.000396667
0.000396355
0.000395983
0.000395707
0.000395368
0.000395122
0.000394814
0.000394595
0.000394315
0.000394119
0.000393865
0.000393691
0.00039346
0.000393304
0.000393097
0.000392959
0.000392766
0.000392636
0.00039245
0.000392328
0.00039215
0.000392035
0.000391865
0.000391756
0.000391593
0.00039149
0.000391337
0.00039124
0.000391094
0.000391008
0.000390874
0.000390781
0.000390706
0.000390543
0.00039066
0.000398255
0.000417589
0.00101443
0.00102387
0.000932287
0.000856799
0.000793372
0.000739824
0.00069452
0.000656347
0.000624098
0.000596888
0.00057376
0.000554079
0.000537168
0.000522614
0.00050996
0.000498942
0.000489259
0.000480736
0.000473176
0.000466454
0.000460447
0.000455053
0.000450206
0.000445813
0.00044185
0.000438225
0.000434946
0.000431919
0.000429179
0.000426625
0.000424315
0.000422139
0.000420177
0.000418307
0.000416629
0.000415011
0.000413566
0.000412157
0.000410907
0.000409672
0.000408585
0.000407496
0.000406548
0.000405583
0.000404753
0.000403894
0.000403166
0.000402398
0.000401757
0.000401068
0.000400504
0.000399884
0.000399386
0.000398826
0.000398384
0.000397879
0.000397485
0.00039703
0.000396679
0.000396267
0.000395955
0.000395581
0.000395304
0.000394964
0.000394718
0.000394409
0.000394189
0.000393908
0.000393711
0.000393456
0.000393281
0.00039305
0.000392893
0.000392685
0.000392547
0.000392353
0.000392222
0.000392036
0.000391913
0.000391735
0.000391619
0.000391448
0.000391338
0.000391175
0.000391072
0.000390917
0.000390821
0.000390674
0.000390588
0.000390453
0.000390359
0.000390284
0.000390121
0.000390245
0.000398077
0.000417279
0.00100993
0.00102387
0.000932286
0.000856802
0.000793377
0.000739826
0.000694511
0.000656322
0.000624051
0.000596817
0.000573665
0.00055396
0.000537026
0.00052245
0.000509776
0.00049874
0.00048904
0.0004805
0.000472926
0.00046619
0.000460171
0.000454766
0.000449909
0.000445506
0.000441535
0.000437901
0.000434615
0.00043158
0.000428834
0.000426274
0.000423959
0.000421777
0.00041981
0.000417936
0.000416253
0.000414631
0.000413183
0.000411769
0.000410517
0.000409278
0.000408188
0.000407096
0.000406146
0.000405178
0.000404346
0.000403484
0.000402754
0.000401984
0.000401341
0.00040065
0.000400084
0.000399462
0.000398963
0.000398401
0.000397957
0.000397451
0.000397056
0.000396599
0.000396247
0.000395834
0.000395521
0.000395145
0.000394868
0.000394526
0.000394279
0.000393969
0.000393748
0.000393466
0.000393269
0.000393013
0.000392837
0.000392605
0.000392447
0.000392239
0.0003921
0.000391905
0.000391774
0.000391587
0.000391463
0.000391284
0.000391168
0.000390996
0.000390886
0.000390722
0.000390618
0.000390463
0.000390366
0.000390218
0.000390132
0.000389997
0.000389902
0.000389826
0.000389663
0.000389794
0.000397887
0.000416942
0.00100431
0.00102387
0.000932285
0.000856804
0.000793382
0.000739828
0.000694502
0.000656295
0.000624002
0.000596742
0.000573563
0.000553833
0.000536874
0.000522275
0.000509578
0.000498522
0.000488803
0.000480247
0.000472657
0.000465907
0.000459874
0.000454457
0.000449589
0.000445176
0.000441195
0.000437552
0.000434258
0.000431216
0.000428463
0.000425896
0.000423575
0.000421387
0.000419415
0.000417536
0.000415848
0.000414222
0.000412769
0.000411352
0.000410095
0.000408853
0.000407761
0.000406665
0.000405712
0.000404741
0.000403906
0.000403042
0.00040231
0.000401537
0.000400893
0.000400199
0.000399632
0.000399007
0.000398506
0.000397943
0.000397497
0.00039699
0.000396593
0.000396135
0.000395781
0.000395367
0.000395052
0.000394675
0.000394397
0.000394054
0.000393806
0.000393495
0.000393273
0.00039299
0.000392792
0.000392535
0.000392359
0.000392125
0.000391967
0.000391757
0.000391618
0.000391422
0.00039129
0.000391102
0.000390978
0.000390798
0.000390681
0.000390509
0.000390398
0.000390233
0.000390129
0.000389973
0.000389876
0.000389727
0.000389639
0.000389504
0.000389408
0.000389332
0.00038917
0.000389308
0.000397683
0.000416576
0.00099759
0.00102387
0.000932284
0.000856807
0.000793388
0.000739831
0.000694493
0.000656267
0.000623949
0.000596662
0.000573455
0.000553697
0.000536711
0.000522087
0.000509367
0.000498289
0.00048855
0.000479976
0.000472369
0.000465603
0.000459556
0.000454126
0.000449246
0.000444822
0.00044083
0.000437178
0.000433875
0.000430825
0.000428064
0.00042549
0.000423162
0.000420968
0.000418991
0.000417106
0.000415414
0.000413782
0.000412325
0.000410904
0.000409643
0.000408397
0.000407301
0.000406202
0.000405246
0.000404272
0.000403435
0.000402568
0.000401833
0.000401058
0.000400411
0.000399715
0.000399146
0.000398519
0.000398016
0.000397451
0.000397004
0.000396494
0.000396096
0.000395636
0.000395281
0.000394865
0.000394549
0.000394171
0.000393891
0.000393547
0.000393298
0.000392985
0.000392763
0.000392478
0.000392279
0.000392021
0.000391844
0.000391609
0.00039145
0.00039124
0.0003911
0.000390903
0.000390771
0.000390582
0.000390457
0.000390276
0.000390159
0.000389985
0.000389874
0.000389708
0.000389603
0.000389446
0.000389348
0.000389199
0.000389111
0.000388975
0.000388878
0.000388801
0.000388639
0.000388787
0.000397464
0.000416181
0.000989811
0.00102387
0.000932283
0.00085681
0.000793394
0.000739834
0.000694484
0.000656237
0.000623893
0.000596577
0.00057334
0.000553552
0.000536538
0.000521887
0.000509142
0.000498041
0.000488281
0.000479687
0.000472061
0.000465279
0.000459217
0.000453773
0.00044888
0.000444443
0.000440441
0.000436779
0.000433466
0.000430407
0.000427638
0.000425056
0.000422722
0.000420521
0.000418537
0.000416647
0.000414949
0.000413312
0.000411851
0.000410425
0.00040916
0.00040791
0.00040681
0.000405707
0.000404748
0.00040377
0.00040293
0.00040206
0.000401322
0.000400545
0.000399896
0.000399197
0.000398626
0.000397997
0.000397492
0.000396925
0.000396475
0.000395964
0.000395564
0.000395102
0.000394746
0.000394328
0.000394011
0.000393631
0.00039335
0.000393004
0.000392754
0.00039244
0.000392217
0.000391931
0.000391731
0.000391472
0.000391294
0.000391058
0.000390898
0.000390686
0.000390546
0.000390348
0.000390215
0.000390025
0.0003899
0.000389717
0.0003896
0.000389425
0.000389313
0.000389147
0.000389041
0.000388883
0.000388784
0.000388634
0.000388545
0.000388409
0.000388311
0.000388233
0.000388072
0.000388228
0.000397231
0.000415755
0.00098101
0.00102386
0.000932281
0.000856813
0.0007934
0.000739837
0.000694474
0.000656206
0.000623834
0.000596488
0.000573218
0.000553399
0.000536354
0.000521675
0.000508903
0.000497777
0.000487994
0.000479379
0.000471735
0.000464935
0.000458856
0.000453397
0.00044849
0.000444041
0.000440027
0.000436353
0.000433031
0.000429962
0.000427185
0.000424595
0.000422253
0.000420045
0.000418054
0.000416157
0.000414454
0.000412812
0.000411345
0.000409914
0.000408645
0.00040739
0.000406287
0.00040518
0.000404217
0.000403236
0.000402392
0.000401519
0.000400779
0.000399998
0.000399346
0.000398645
0.000398071
0.00039744
0.000396933
0.000396363
0.000395912
0.000395399
0.000394997
0.000394533
0.000394175
0.000393756
0.000393437
0.000393056
0.000392774
0.000392426
0.000392175
0.000391859
0.000391635
0.000391347
0.000391146
0.000390886
0.000390707
0.000390469
0.000390309
0.000390096
0.000389955
0.000389756
0.000389622
0.000389431
0.000389305
0.000389122
0.000389003
0.000388827
0.000388715
0.000388547
0.000388441
0.000388282
0.000388183
0.000388031
0.000387942
0.000387805
0.000387706
0.000387627
0.000387467
0.000387633
0.00039698
0.000415294
0.000971233
0.00102386
0.00093228
0.000856816
0.000793407
0.00073984
0.000694464
0.000656174
0.000623773
0.000596394
0.00057309
0.000553238
0.000536161
0.00052145
0.00050865
0.000497498
0.000487691
0.000479053
0.000471388
0.000464569
0.000458474
0.000452999
0.000448077
0.000443614
0.000439587
0.000435902
0.000432569
0.00042949
0.000426704
0.000424104
0.000421754
0.000419539
0.000417542
0.000415638
0.000413928
0.00041228
0.000410808
0.000409372
0.000408098
0.000406838
0.000405731
0.000404619
0.000403653
0.000402668
0.000401821
0.000400944
0.000400201
0.000399417
0.000398762
0.000398059
0.000397482
0.000396848
0.000396339
0.000395767
0.000395314
0.000394798
0.000394394
0.000393928
0.000393569
0.000393147
0.000392828
0.000392444
0.00039216
0.000391811
0.000391558
0.000391241
0.000391016
0.000390727
0.000390525
0.000390263
0.000390083
0.000389844
0.000389683
0.000389469
0.000389327
0.000389126
0.000388992
0.000388799
0.000388673
0.000388488
0.000388369
0.000388192
0.000388079
0.00038791
0.000387803
0.000387643
0.000387543
0.000387391
0.0003873
0.000387163
0.000387062
0.000386983
0.000386823
0.000387
0.000396711
0.000414796
0.000960526
0.00102386
0.000932279
0.000856819
0.000793414
0.000739844
0.000694454
0.00065614
0.000623708
0.000596295
0.000572956
0.000553068
0.000535956
0.000521214
0.000508384
0.000497204
0.000487371
0.00047871
0.000471023
0.000464184
0.000458069
0.000452577
0.00044764
0.000443162
0.000439122
0.000435425
0.00043208
0.000428991
0.000426194
0.000423586
0.000421227
0.000419003
0.000416998
0.000415088
0.000413372
0.000411717
0.000410239
0.000408797
0.000407518
0.000406254
0.000405141
0.000404026
0.000403055
0.000402066
0.000401216
0.000400335
0.000399588
0.000398801
0.000398144
0.000397437
0.000396858
0.000396221
0.000395709
0.000395134
0.000394679
0.000394161
0.000393756
0.000393287
0.000392926
0.000392502
0.000392181
0.000391795
0.00039151
0.000391159
0.000390905
0.000390586
0.000390359
0.000390069
0.000389866
0.000389602
0.000389421
0.000389181
0.000389019
0.000388803
0.000388661
0.000388459
0.000388324
0.00038813
0.000388002
0.000387817
0.000387697
0.000387518
0.000387405
0.000387235
0.000387127
0.000386965
0.000386865
0.000386711
0.00038662
0.000386482
0.00038638
0.0003863
0.000386141
0.000386328
0.000396418
0.000414261
0.000948942
0.00102386
0.000932277
0.000856822
0.000793421
0.000739848
0.000694443
0.000656105
0.000623641
0.000596192
0.000572815
0.000552889
0.000535742
0.000520966
0.000508103
0.000496894
0.000487033
0.000478347
0.000470637
0.000463777
0.000457643
0.000452133
0.000447178
0.000442686
0.000438631
0.000434921
0.000431564
0.000428463
0.000425656
0.000423038
0.00042067
0.000418438
0.000416425
0.000414506
0.000412783
0.000411122
0.000409638
0.00040819
0.000406906
0.000405636
0.000404519
0.000403398
0.000402423
0.00040143
0.000400576
0.000399691
0.000398941
0.00039815
0.00039749
0.000396779
0.000396198
0.000395557
0.000395044
0.000394466
0.000394009
0.000393488
0.00039308
0.000392609
0.000392246
0.00039182
0.000391497
0.000391109
0.000390823
0.00039047
0.000390214
0.000389893
0.000389665
0.000389373
0.000389169
0.000388903
0.000388722
0.00038848
0.000388317
0.0003881
0.000387956
0.000387753
0.000387617
0.000387422
0.000387293
0.000387106
0.000386985
0.000386806
0.000386692
0.00038652
0.000386412
0.000386249
0.000386148
0.000385993
0.000385901
0.000385762
0.000385659
0.000385577
0.000385419
0.000385618
0.000396098
0.000413686
0.000936534
0.00102386
0.000932276
0.000856825
0.000793429
0.000739853
0.000694433
0.000656068
0.000623571
0.000596084
0.000572668
0.000552703
0.000535518
0.000520705
0.000507809
0.000496569
0.000486679
0.000477967
0.000470232
0.000463349
0.000457195
0.000451665
0.000446693
0.000442184
0.000438115
0.00043439
0.000431021
0.000427908
0.000425089
0.00042246
0.000420083
0.000417842
0.00041582
0.000413894
0.000412164
0.000410495
0.000409005
0.00040755
0.00040626
0.000404984
0.000403862
0.000402737
0.000401757
0.000400759
0.000399901
0.000399012
0.000398259
0.000397463
0.0003968
0.000396086
0.000395501
0.000394858
0.000394341
0.000393761
0.000393301
0.000392777
0.000392368
0.000391894
0.000391529
0.000391101
0.000390776
0.000390386
0.000390098
0.000389742
0.000389486
0.000389163
0.000388933
0.000388639
0.000388434
0.000388166
0.000387983
0.00038774
0.000387576
0.000387358
0.000387213
0.000387008
0.000386871
0.000386674
0.000386545
0.000386357
0.000386235
0.000386054
0.000385939
0.000385766
0.000385657
0.000385493
0.000385391
0.000385235
0.000385141
0.000385002
0.000384897
0.000384815
0.000384658
0.000384869
0.000395743
0.000413069
0.000923359
0.00102386
0.000932274
0.000856828
0.000793437
0.000739857
0.000694422
0.000656031
0.000623499
0.000595972
0.000572514
0.000552508
0.000535283
0.000520433
0.000507502
0.000496228
0.000486308
0.000477568
0.000469807
0.000462901
0.000456724
0.000451174
0.000446184
0.000441658
0.000437572
0.000433833
0.00043045
0.000427324
0.000424494
0.000421854
0.000419466
0.000417215
0.000415185
0.00041325
0.000411512
0.000409836
0.000408338
0.000406877
0.000405581
0.000404299
0.000403172
0.000402041
0.000401057
0.000400053
0.000399191
0.000398298
0.00039754
0.000396741
0.000396074
0.000395357
0.000394769
0.000394122
0.000393603
0.000393019
0.000392557
0.00039203
0.000391618
0.000391142
0.000390775
0.000390343
0.000390017
0.000389624
0.000389335
0.000388977
0.000388718
0.000388394
0.000388163
0.000387866
0.00038766
0.000387391
0.000387206
0.000386961
0.000386796
0.000386576
0.000386431
0.000386224
0.000386086
0.000385888
0.000385758
0.000385568
0.000385445
0.000385263
0.000385147
0.000384972
0.000384862
0.000384697
0.000384594
0.000384437
0.000384342
0.000384201
0.000384096
0.000384012
0.000383856
0.00038408
0.000395348
0.000412409
0.000909477
0.00102386
0.000932272
0.000856832
0.000793445
0.000739863
0.000694411
0.000655992
0.000623424
0.000595856
0.000572355
0.000552306
0.000535038
0.000520149
0.00050718
0.000495873
0.000485921
0.00047715
0.000469363
0.000462431
0.000456231
0.00045066
0.00044565
0.000441106
0.000437004
0.000433249
0.000429851
0.000426712
0.000423869
0.000421217
0.000418819
0.000416558
0.000414518
0.000412574
0.000410828
0.000409143
0.000407639
0.000406171
0.000404868
0.00040358
0.000402447
0.00040131
0.000400321
0.000399313
0.000398446
0.000397547
0.000396786
0.000395983
0.000395312
0.00039459
0.000393999
0.000393349
0.000392826
0.000392239
0.000391774
0.000391245
0.00039083