/*--------------------------------*- C++ -*----------------------------------*\
| =========                 |                                                 |
| \\      /  F ield         | OpenFOAM: The Open Source CFD Toolbox           |
|  \\    /   O peration     | Version:  v2012                                 |
|   \\  /    A nd           | Website:  www.openfoam.com                      |
|    \\/     M anipulation  |                                                 |
\*---------------------------------------------------------------------------*/
FoamFile
{
    version     2.0;
    format      ascii;
    class       volScalarField;
    location    "59.5";
    object      omega;
}
// * * * * * * * * * * * * * * * * * * * * * * * * * * * * * * * * * * * * * //

dimensions      [0 0 -1 0 0 0 0];


internalField   nonuniform List<scalar> 
209825
(
8261.79
7570.38
6999.55
6538.61
6171.79
5881.47
5649.87
5463.69
5311.55
5186.31
5081.33
4993.13
4917.56
4853.04
4796.73
4748.1
4704.94
4667.36
4633.52
4603.88
4576.83
4553.05
4531.08
4511.73
4493.61
4477.68
4462.58
4449.32
4436.58
4425.46
4414.62
4405.21
4395.92
4387.91
4379.89
4373.03
4366.07
4360.17
4354.1
4348.99
4343.7
4339.26
4334.58
4330.74
4326.64
4323.27
4319.65
4316.67
4313.49
4310.88
4308.08
4305.82
4303.42
4301.38
4299.24
4297.46
4295.57
4294
4292.3
4290.94
4289.49
4288.38
4287.05
4286.13
4284.99
4284.21
4283.17
4282.51
4281.61
4281.11
4280.35
4279.94
4279.31
4278.96
4278.35
4277.98
4277.39
4277.05
4276.52
4276.24
4275.78
4275.56
4275.15
4274.99
4274.65
4274.6
4274.46
4274.62
4274.62
4274.89
4274.89
4275.51
4276.26
4304.19
4412.03
113060
8261.79
7570.38
6999.55
6538.6
6171.78
5881.45
5649.84
5463.64
5311.49
5186.25
5081.27
4993.06
4917.48
4852.96
4796.65
4748
4704.85
4667.26
4633.42
4603.78
4576.72
4552.95
4530.97
4511.62
4493.5
4477.57
4462.46
4449.2
4436.46
4425.34
4414.5
4405.09
4395.8
4387.79
4379.76
4372.9
4365.95
4360.05
4353.98
4348.86
4343.57
4339.13
4334.46
4330.61
4326.51
4323.14
4319.52
4316.54
4313.36
4310.75
4307.95
4305.69
4303.29
4301.25
4299.1
4297.33
4295.43
4293.87
4292.16
4290.8
4289.35
4288.24
4286.91
4285.99
4284.86
4284.08
4283.03
4282.37
4281.48
4280.97
4280.22
4279.81
4279.17
4278.83
4278.22
4277.84
4277.25
4276.91
4276.38
4276.11
4275.64
4275.42
4275.01
4274.85
4274.51
4274.46
4274.32
4274.48
4274.48
4274.75
4274.75
4275.37
4276.12
4304.1
4411.93
109761
8261.79
7570.38
6999.56
6538.59
6171.73
5881.37
5649.72
5463.5
5311.32
5186.05
5081.04
4992.81
4917.22
4852.68
4796.35
4747.7
4704.53
4666.93
4633.09
4603.43
4576.37
4552.59
4530.6
4511.25
4493.12
4477.19
4462.08
4448.82
4436.07
4424.94
4414.11
4404.69
4395.4
4387.38
4379.36
4372.49
4365.54
4359.63
4353.56
4348.44
4343.15
4338.71
4334.03
4330.19
4326.08
4322.72
4319.09
4316.11
4312.93
4310.32
4307.52
4305.26
4302.86
4300.81
4298.67
4296.89
4294.99
4293.43
4291.72
4290.36
4288.91
4287.8
4286.47
4285.55
4284.41
4283.63
4282.59
4281.93
4281.03
4280.53
4279.77
4279.36
4278.73
4278.38
4277.77
4277.39
4276.8
4276.46
4275.93
4275.66
4275.19
4274.97
4274.56
4274.4
4274.06
4274.01
4273.87
4274.02
4274.02
4274.3
4274.3
4274.91
4275.66
4303.74
4411.56
105973
8261.79
7570.4
6999.56
6538.56
6171.65
5881.23
5649.52
5463.24
5311.01
5185.7
5080.65
4992.39
4916.76
4852.2
4795.85
4747.17
4703.99
4666.37
4632.51
4602.84
4575.77
4551.98
4529.98
4510.61
4492.48
4476.54
4461.42
4448.15
4435.4
4424.27
4413.42
4404
4394.71
4386.69
4378.66
4371.79
4364.83
4358.92
4352.85
4347.72
4342.43
4337.99
4333.31
4329.46
4325.35
4321.98
4318.36
4315.37
4312.19
4309.58
4306.78
4304.51
4302.11
4300.07
4297.92
4296.14
4294.24
4292.68
4290.97
4289.61
4288.16
4287.04
4285.71
4284.79
4283.65
4282.87
4281.83
4281.17
4280.27
4279.76
4279.01
4278.6
4277.96
4277.61
4277
4276.62
4276.03
4275.69
4275.16
4274.88
4274.42
4274.2
4273.79
4273.62
4273.29
4273.23
4273.09
4273.24
4273.24
4273.51
4273.51
4274.13
4274.88
4303.11
4410.92
102079
8261.79
7570.41
6999.57
6538.52
6171.54
5881.03
5649.24
5462.88
5310.58
5185.2
5080.1
4991.79
4916.12
4851.52
4795.13
4746.43
4703.22
4665.57
4631.69
4602
4574.91
4551.1
4529.09
4509.71
4491.57
4475.61
4460.49
4447.21
4434.45
4423.3
4412.45
4403.03
4393.72
4385.7
4377.66
4370.79
4363.82
4357.91
4351.83
4346.7
4341.41
4336.96
4332.28
4328.42
4324.31
4320.94
4317.31
4314.33
4311.14
4308.53
4305.72
4303.46
4301.05
4299
4296.86
4295.07
4293.18
4291.61
4289.9
4288.54
4287.08
4285.97
4284.64
4283.71
4282.57
4281.79
4280.74
4280.08
4279.18
4278.67
4277.92
4277.5
4276.87
4276.52
4275.91
4275.53
4274.94
4274.6
4274.07
4273.79
4273.32
4273.1
4272.69
4272.52
4272.19
4272.13
4271.98
4272.13
4272.13
4272.4
4272.4
4273.01
4273.78
4302.21
4409.99
98181.7
8261.79
7570.43
6999.58
6538.47
6171.39
5880.77
5648.87
5462.41
5310.01
5184.55
5079.38
4991
4915.28
4850.63
4794.2
4745.45
4702.2
4664.53
4630.62
4600.91
4573.79
4549.96
4527.93
4508.53
4490.37
4474.4
4459.26
4445.97
4433.2
4422.05
4411.19
4401.75
4392.44
4384.4
4376.36
4369.48
4362.51
4356.59
4350.51
4345.37
4340.07
4335.62
4330.93
4327.07
4322.96
4319.58
4315.95
4312.96
4309.77
4307.16
4304.35
4302.08
4299.67
4297.62
4295.47
4293.68
4291.78
4290.21
4288.5
4287.14
4285.68
4284.56
4283.23
4282.3
4281.16
4280.38
4279.33
4278.66
4277.77
4277.25
4276.5
4276.08
4275.44
4275.09
4274.48
4274.1
4273.51
4273.17
4272.64
4272.36
4271.89
4271.67
4271.25
4271.09
4270.75
4270.69
4270.54
4270.69
4270.69
4270.95
4270.95
4271.55
4272.33
4301.03
4408.79
94321.4
8261.79
7570.46
6999.59
6538.41
6171.21
5880.45
5648.41
5461.82
5309.31
5183.75
5078.48
4990.03
4914.23
4849.52
4793.04
4744.24
4700.95
4663.24
4629.29
4599.55
4572.41
4548.55
4526.5
4507.08
4488.9
4472.91
4457.75
4444.45
4431.66
4420.49
4409.62
4400.17
4390.85
4382.8
4374.75
4367.86
4360.88
4354.96
4348.86
4343.73
4338.42
4333.96
4329.26
4325.4
4321.28
4317.9
4314.26
4311.27
4308.07
4305.46
4302.64
4300.37
4297.96
4295.9
4293.75
4291.96
4290.06
4288.49
4286.77
4285.4
4283.94
4282.82
4281.49
4280.56
4279.41
4278.63
4277.58
4276.91
4276.01
4275.5
4274.74
4274.32
4273.68
4273.33
4272.72
4272.34
4271.74
4271.4
4270.87
4270.58
4270.11
4269.89
4269.47
4269.31
4268.97
4268.91
4268.75
4268.89
4268.89
4269.15
4269.15
4269.75
4270.54
4299.58
4407.31
90517.2
8261.79
7570.49
6999.61
6538.33
6170.99
5880.07
5647.86
5461.12
5308.47
5182.79
5077.42
4988.87
4912.99
4848.2
4791.65
4742.8
4699.46
4661.7
4627.71
4597.93
4570.75
4546.86
4524.78
4505.34
4487.13
4471.12
4455.95
4442.62
4429.82
4418.63
4407.74
4398.28
4388.95
4380.89
4372.83
4365.93
4358.94
4353
4346.9
4341.75
4336.44
4331.97
4327.27
4323.4
4319.27
4315.89
4312.24
4309.24
4306.04
4303.42
4300.6
4298.32
4295.91
4293.85
4291.69
4289.9
4287.99
4286.42
4284.7
4283.33
4281.87
4280.74
4279.4
4278.47
4277.32
4276.54
4275.48
4274.82
4273.91
4273.4
4272.63
4272.22
4271.57
4271.22
4270.6
4270.22
4269.62
4269.28
4268.75
4268.46
4267.99
4267.76
4267.35
4267.18
4266.84
4266.77
4266.61
4266.75
4266.75
4267
4267
4267.6
4268.39
4297.84
4405.55
86777.8
8261.79
7570.53
6999.63
6538.25
6170.74
5879.63
5647.23
5460.31
5307.5
5181.67
5076.17
4987.51
4911.53
4846.67
4790.04
4741.12
4697.71
4659.9
4625.86
4596.04
4568.82
4544.9
4522.78
4503.3
4485.07
4469.04
4453.84
4440.49
4427.66
4416.46
4405.56
4396.08
4386.73
4378.66
4370.58
4363.67
4356.67
4350.72
4344.61
4339.45
4334.13
4329.65
4324.94
4321.07
4316.93
4313.54
4309.89
4306.88
4303.68
4301.05
4298.22
4295.94
4293.52
4291.46
4289.29
4287.5
4285.58
4284.01
4282.28
4280.91
4279.44
4278.32
4276.97
4276.04
4274.88
4274.09
4273.04
4272.37
4271.46
4270.94
4270.18
4269.76
4269.11
4268.76
4268.14
4267.76
4267.16
4266.81
4266.27
4265.99
4265.51
4265.28
4264.86
4264.69
4264.35
4264.28
4264.11
4264.25
4264.24
4264.49
4264.49
4265.08
4265.89
4295.81
4403.51
83106.1
8261.79
7570.57
6999.65
6538.15
6170.45
5879.12
5646.5
5459.38
5306.38
5180.39
5074.75
4985.96
4909.87
4844.91
4788.19
4739.19
4695.72
4657.84
4623.75
4593.87
4566.6
4542.64
4520.48
4500.98
4482.71
4466.65
4451.42
4438.05
4425.2
4413.98
4403.05
4393.56
4384.19
4376.1
4368
4361.08
4354.07
4348.11
4341.98
4336.82
4331.48
4327
4322.27
4318.39
4314.25
4310.84
4307.18
4304.17
4300.96
4298.33
4295.49
4293.2
4290.78
4288.71
4286.54
4284.74
4282.82
4281.24
4279.51
4278.14
4276.66
4275.53
4274.18
4273.25
4272.09
4271.29
4270.24
4269.56
4268.65
4268.13
4267.36
4266.94
4266.29
4265.93
4265.31
4264.93
4264.32
4263.98
4263.44
4263.15
4262.67
4262.44
4262.02
4261.85
4261.5
4261.43
4261.25
4261.38
4261.38
4261.61
4261.61
4262.2
4263.03
4293.5
4401.19
79500.2
8261.79
7570.61
6999.67
6538.04
6170.13
5878.55
5645.69
5458.33
5305.13
5178.95
5073.15
4984.21
4908
4842.92
4786.1
4737.02
4693.46
4655.52
4621.36
4591.43
4564.11
4540.1
4517.89
4498.35
4480.04
4463.95
4448.69
4435.29
4422.41
4411.17
4400.22
4390.7
4381.31
4373.21
4365.1
4358.16
4351.13
4345.15
4339.02
4333.84
4328.49
4323.99
4319.26
4315.37
4311.21
4307.8
4304.13
4301.11
4297.89
4295.25
4292.41
4290.11
4287.68
4285.61
4283.43
4281.63
4279.7
4278.12
4276.38
4275
4273.52
4272.39
4271.03
4270.09
4268.93
4268.13
4267.07
4266.39
4265.47
4264.95
4264.18
4263.75
4263.1
4262.74
4262.12
4261.73
4261.13
4260.78
4260.23
4259.94
4259.46
4259.23
4258.8
4258.63
4258.28
4258.2
4258.01
4258.14
4258.13
4258.36
4258.35
4258.94
4259.79
4290.89
4398.6
75954.5
8261.78
7570.67
6999.7
6537.92
6169.77
5877.92
5644.78
5457.17
5303.73
5177.35
5071.36
4982.27
4905.91
4840.71
4783.78
4734.59
4690.95
4652.93
4618.69
4588.7
4561.32
4537.25
4515
4495.41
4477.07
4460.94
4445.64
4432.21
4419.3
4408.03
4397.06
4387.52
4378.11
4369.98
4361.85
4354.89
4347.84
4341.86
4335.7
4330.51
4325.14
4320.64
4315.89
4311.99
4307.82
4304.4
4300.72
4297.7
4294.46
4291.82
4288.97
4286.66
4284.22
4282.14
4279.96
4278.15
4276.21
4274.62
4272.88
4271.5
4270.01
4268.87
4267.51
4266.57
4265.4
4264.6
4263.53
4262.85
4261.93
4261.4
4260.62
4260.19
4259.54
4259.17
4258.55
4258.16
4257.55
4257.2
4256.65
4256.36
4255.87
4255.64
4255.21
4255.03
4254.68
4254.6
4254.4
4254.52
4254.51
4254.73
4254.72
4255.3
4256.17
4287.98
4395.73
72465.2
8261.78
7570.72
6999.73
6537.79
6169.38
5877.23
5643.78
5455.89
5302.19
5175.58
5069.39
4980.12
4903.6
4838.26
4781.2
4731.91
4688.17
4650.06
4615.74
4585.68
4558.23
4534.11
4511.81
4492.17
4473.78
4457.6
4442.27
4428.8
4415.86
4404.56
4393.56
4383.99
4374.56
4366.41
4358.25
4351.28
4344.21
4338.21
4332.03
4326.82
4321.44
4316.93
4312.17
4308.25
4304.07
4300.64
4296.95
4293.91
4290.67
4288.01
4285.16
4282.84
4280.39
4278.3
4276.11
4274.29
4272.35
4270.76
4269.01
4267.62
4266.12
4264.98
4263.61
4262.66
4261.49
4260.68
4259.61
4258.93
4258
4257.47
4256.68
4256.25
4255.59
4255.23
4254.6
4254.21
4253.59
4253.24
4252.69
4252.39
4251.9
4251.66
4251.23
4251.05
4250.69
4250.61
4250.4
4250.51
4250.5
4250.71
4250.69
4251.27
4252.16
4284.77
4392.59
69038.8
8261.78
7570.78
6999.77
6537.65
6168.96
5876.47
5642.69
5454.48
5300.51
5173.64
5067.23
4977.76
4901.07
4835.58
4778.39
4728.97
4685.12
4646.91
4612.51
4582.37
4554.85
4530.66
4508.3
4488.61
4470.16
4453.95
4438.57
4425.06
4412.09
4400.75
4389.72
4380.12
4370.66
4362.49
4354.31
4347.31
4340.22
4334.2
4328.01
4322.78
4317.38
4312.85
4308.08
4304.14
4299.95
4296.51
4292.81
4289.76
4286.51
4283.84
4280.97
4278.64
4276.18
4274.09
4271.89
4270.06
4268.12
4266.52
4264.76
4263.36
4261.86
4260.71
4259.33
4258.38
4257.2
4256.39
4255.31
4254.62
4253.69
4253.15
4252.36
4251.92
4251.26
4250.89
4250.26
4249.87
4249.25
4248.89
4248.33
4248.03
4247.54
4247.3
4246.86
4246.67
4246.32
4246.23
4246.01
4246.11
4246.09
4246.29
4246.27
4246.84
4247.76
4281.24
4389.18
65681.4
8261.77
7570.85
6999.81
6537.5
6168.5
5875.65
5641.51
5452.96
5298.67
5171.54
5064.88
4975.2
4898.32
4832.66
4775.32
4725.77
4681.8
4643.49
4608.99
4578.76
4551.16
4526.9
4504.47
4484.72
4466.22
4449.96
4434.53
4420.99
4407.97
4396.6
4385.53
4375.91
4366.41
4358.21
4350
4342.98
4335.87
4329.83
4323.61
4318.37
4312.95
4308.4
4303.61
4299.67
4295.46
4292
4288.29
4285.23
4281.96
4279.28
4276.4
4274.07
4271.59
4269.49
4267.28
4265.45
4263.49
4261.88
4260.12
4258.71
4257.2
4256.05
4254.67
4253.7
4252.51
4251.7
4250.61
4249.92
4248.98
4248.44
4247.64
4247.2
4246.53
4246.16
4245.52
4245.13
4244.51
4244.14
4243.58
4243.28
4242.78
4242.53
4242.09
4241.9
4241.54
4241.44
4241.21
4241.31
4241.29
4241.48
4241.45
4242.01
4242.96
4277.39
4385.51
62398.5
8261.77
7570.92
6999.85
6537.34
6168.01
5874.77
5640.24
5451.32
5296.7
5169.26
5062.34
4972.43
4895.34
4829.5
4771.99
4722.31
4678.2
4639.78
4605.17
4574.85
4547.16
4522.83
4500.33
4480.51
4461.95
4445.63
4430.16
4416.57
4403.51
4392.1
4380.99
4371.33
4361.8
4353.57
4345.34
4338.29
4331.15
4325.08
4318.85
4313.58
4308.15
4303.58
4298.77
4294.81
4290.58
4287.11
4283.38
4280.31
4277.03
4274.34
4271.45
4269.1
4266.61
4264.51
4262.28
4260.44
4258.47
4256.86
4255.08
4253.67
4252.15
4250.99
4249.6
4248.63
4247.43
4246.61
4245.52
4244.82
4243.87
4243.32
4242.52
4242.08
4241.4
4241.03
4240.39
4239.99
4239.36
4239
4238.43
4238.12
4237.62
4237.36
4236.92
4236.72
4236.36
4236.26
4236.01
4236.1
4236.07
4236.25
4236.22
4236.77
4237.75
4273.22
4381.59
59195.5
8261.76
7571
6999.9
6537.17
6167.48
5873.83
5638.87
5449.55
5294.57
5166.81
5059.61
4969.44
4892.13
4826.09
4768.41
4718.57
4674.33
4635.78
4601.06
4570.63
4542.86
4518.44
4495.86
4475.97
4457.35
4440.97
4425.44
4411.8
4398.69
4387.24
4376.08
4366.39
4356.83
4348.57
4340.3
4333.22
4326.06
4319.97
4313.71
4308.42
4302.96
4298.38
4293.54
4289.57
4285.32
4281.84
4278.09
4275
4271.71
4269.01
4266.1
4263.74
4261.24
4259.12
4256.89
4255.04
4253.06
4251.43
4249.65
4248.23
4246.69
4245.53
4244.13
4243.15
4241.95
4241.12
4240.02
4239.31
4238.36
4237.81
4237
4236.55
4235.87
4235.49
4234.84
4234.44
4233.8
4233.44
4232.86
4232.55
4232.04
4231.78
4231.33
4231.13
4230.76
4230.65
4230.4
4230.48
4230.44
4230.61
4230.57
4231.11
4232.13
4268.71
4377.4
56077.2
8261.76
7571.08
6999.95
6536.99
6166.92
5872.82
5637.41
5447.67
5292.3
5164.19
5056.68
4966.25
4888.7
4822.44
4764.58
4714.56
4670.17
4631.48
4596.64
4566.11
4538.23
4513.72
4491.06
4471.1
4452.4
4435.96
4420.37
4406.68
4393.51
4382.02
4370.82
4361.09
4351.48
4343.19
4334.89
4327.78
4320.58
4314.47
4308.18
4302.87
4297.39
4292.78
4287.93
4283.93
4279.67
4276.17
4272.4
4269.3
4265.99
4263.27
4260.35
4257.98
4255.46
4253.34
4251.09
4249.23
4247.23
4245.6
4243.81
4242.38
4240.83
4239.66
4238.25
4237.27
4236.05
4235.22
4234.11
4233.4
4232.43
4231.87
4231.06
4230.6
4229.91
4229.53
4228.88
4228.47
4227.83
4227.46
4226.88
4226.56
4226.04
4225.78
4225.32
4225.12
4224.74
4224.63
4224.36
4224.43
4224.39
4224.54
4224.49
4225.02
4226.09
4263.85
4372.95
53048
8261.75
7571.17
7000
6536.8
6166.33
5871.76
5635.86
5445.66
5289.88
5161.4
5053.56
4962.83
4885.03
4818.55
4760.47
4710.28
4665.73
4626.9
4591.92
4561.27
4533.28
4508.68
4485.92
4465.88
4447.11
4430.6
4414.94
4401.19
4387.98
4376.43
4365.19
4355.41
4345.76
4337.43
4329.1
4321.96
4314.73
4308.58
4302.27
4296.93
4291.42
4286.79
4281.92
4277.9
4273.61
4270.09
4266.31
4263.19
4259.86
4257.13
4254.19
4251.81
4249.28
4247.14
4244.87
4243.01
4241
4239.36
4237.55
4236.12
4234.55
4233.37
4231.95
4230.96
4229.73
4228.89
4227.78
4227.06
4226.09
4225.52
4224.69
4224.23
4223.54
4223.15
4222.49
4222.08
4221.43
4221.06
4220.47
4220.15
4219.62
4219.36
4218.89
4218.68
4218.3
4218.18
4217.9
4217.96
4217.91
4218.05
4217.99
4218.51
4219.62
4258.62
4368.21
50112.1
8261.75
7571.26
7000.06
6536.61
6165.71
5870.63
5634.22
5443.54
5287.31
5158.44
5050.24
4959.21
4881.12
4814.4
4756.11
4705.72
4660.99
4622.01
4586.89
4556.11
4528.01
4503.3
4480.45
4460.32
4441.47
4424.89
4409.16
4395.35
4382.07
4370.47
4359.18
4349.36
4339.66
4331.3
4322.92
4315.74
4308.48
4302.3
4295.95
4290.59
4285.05
4280.4
4275.5
4271.46
4267.16
4263.62
4259.81
4256.68
4253.33
4250.58
4247.63
4245.22
4242.68
4240.53
4238.25
4236.37
4234.35
4232.7
4230.88
4229.43
4227.86
4226.67
4225.23
4224.23
4222.99
4222.15
4221.02
4220.29
4219.31
4218.74
4217.9
4217.43
4216.73
4216.34
4215.67
4215.26
4214.61
4214.22
4213.63
4213.3
4212.77
4212.5
4212.03
4211.81
4211.42
4211.3
4211.01
4211.05
4210.99
4211.11
4211.04
4211.56
4212.71
4253.02
4363.15
47273.3
8261.74
7571.35
7000.13
6536.41
6165.05
5869.45
5632.49
5441.29
5284.59
5155.3
5046.73
4955.36
4876.98
4810
4751.48
4700.89
4655.97
4616.82
4581.55
4550.64
4522.41
4497.59
4474.63
4454.42
4435.48
4418.82
4403.01
4389.14
4375.8
4364.14
4352.79
4342.92
4333.18
4324.77
4316.35
4309.14
4301.83
4295.62
4289.24
4283.85
4278.28
4273.61
4268.68
4264.62
4260.28
4256.73
4252.9
4249.75
4246.38
4243.61
4240.64
4238.22
4235.66
4233.49
4231.2
4229.31
4227.27
4225.61
4223.77
4222.32
4220.73
4219.53
4218.08
4217.07
4215.82
4214.97
4213.83
4213.1
4212.11
4211.52
4210.68
4210.2
4209.49
4209.09
4208.42
4208
4207.34
4206.95
4206.35
4206.02
4205.48
4205.2
4204.72
4204.5
4204.1
4203.97
4203.67
4203.7
4203.63
4203.74
4203.66
4204.16
4205.37
4247.02
4357.75
44535
8261.73
7571.45
7000.2
6536.2
6164.37
5868.2
5630.67
5438.92
5281.72
5151.98
5043.01
4951.3
4872.6
4805.35
4746.57
4695.77
4650.65
4611.32
4575.89
4544.84
4516.48
4491.54
4468.47
4448.16
4429.12
4412.38
4396.5
4382.55
4369.14
4357.43
4346.02
4336.09
4326.3
4317.85
4309.38
4302.13
4294.79
4288.54
4282.13
4276.71
4271.1
4266.4
4261.44
4257.35
4253
4249.42
4245.57
4242.39
4239
4236.22
4233.23
4230.79
4228.21
4226.03
4223.72
4221.81
4219.76
4218.09
4216.24
4214.77
4213.17
4211.96
4210.5
4209.48
4208.22
4207.35
4206.21
4205.46
4204.46
4203.87
4203.01
4202.53
4201.81
4201.4
4200.73
4200.3
4199.63
4199.24
4198.63
4198.29
4197.74
4197.46
4196.97
4196.74
4196.34
4196.2
4195.89
4195.9
4195.82
4195.92
4195.82
4196.31
4197.57
4240.6
4351.98
41900.3
8261.72
7571.56
7000.27
6535.98
6163.66
5866.9
5628.76
5436.43
5278.7
5148.49
5039.1
4947.01
4867.99
4800.44
4741.4
4690.36
4645.03
4605.52
4569.92
4538.71
4510.21
4485.15
4461.96
4441.54
4422.41
4405.58
4389.61
4375.59
4362.11
4350.33
4338.85
4328.88
4319.03
4310.53
4302.01
4294.72
4287.33
4281.05
4274.6
4269.14
4263.51
4258.78
4253.79
4249.67
4245.29
4241.68
4237.81
4234.62
4231.2
4228.4
4225.38
4222.93
4220.33
4218.14
4215.8
4213.89
4211.82
4210.13
4208.27
4206.79
4205.17
4203.95
4202.47
4201.44
4200.17
4199.29
4198.13
4197.38
4196.37
4195.77
4194.9
4194.41
4193.68
4193.27
4192.58
4192.15
4191.48
4191.08
4190.46
4190.11
4189.55
4189.26
4188.77
4188.53
4188.12
4187.97
4187.66
4187.65
4187.56
4187.64
4187.52
4188.01
4189.32
4233.74
4345.81
39371.9
8261.71
7571.67
7000.35
6535.76
6162.92
5865.54
5626.76
5433.83
5275.54
5144.83
5034.99
4942.51
4863.13
4795.27
4735.96
4684.67
4639.12
4599.41
4563.63
4532.26
4503.6
4478.41
4455.1
4434.57
4415.33
4398.4
4382.35
4368.25
4354.69
4342.84
4331.3
4321.26
4311.36
4302.8
4294.24
4286.9
4279.47
4273.15
4266.65
4261.16
4255.49
4250.73
4245.71
4241.56
4237.15
4233.52
4229.62
4226.41
4222.97
4220.14
4217.11
4214.63
4212.01
4209.8
4207.45
4205.52
4203.43
4201.73
4199.85
4198.36
4196.72
4195.49
4194
4192.96
4191.67
4190.78
4189.61
4188.85
4187.82
4187.21
4186.34
4185.83
4185.1
4184.68
4183.98
4183.55
4182.86
4182.46
4181.83
4181.47
4180.91
4180.61
4180.1
4179.86
4179.44
4179.28
4178.96
4178.94
4178.83
4178.9
4178.76
4179.24
4180.61
4226.41
4339.21
36952.1
8261.7
7571.78
7000.44
6535.53
6162.15
5864.12
5624.67
5431.1
5272.23
5140.99
5030.68
4937.79
4858.04
4789.85
4730.24
4678.69
4632.91
4592.98
4557.01
4525.47
4496.66
4471.32
4447.88
4427.23
4407.88
4390.86
4374.7
4360.52
4346.88
4334.96
4323.35
4313.25
4303.28
4294.67
4286.05
4278.67
4271.19
4264.82
4258.29
4252.76
4247.05
4242.25
4237.2
4233.03
4228.58
4224.92
4221
4217.76
4214.29
4211.45
4208.39
4205.89
4203.25
4201.02
4198.65
4196.7
4194.59
4192.88
4190.98
4189.48
4187.82
4186.58
4185.07
4184.02
4182.71
4181.82
4180.63
4179.86
4178.82
4178.2
4177.31
4176.8
4176.05
4175.62
4174.92
4174.48
4173.79
4173.37
4172.74
4172.37
4171.8
4171.49
4170.98
4170.72
4170.3
4170.13
4169.8
4169.76
4169.64
4169.69
4169.53
4170
4171.43
4218.59
4332.15
34643.1
8261.69
7571.9
7000.53
6535.3
6161.36
5862.65
5622.5
5428.26
5268.77
5136.98
5026.18
4932.84
4852.7
4784.17
4724.25
4672.43
4626.39
4586.25
4550.07
4518.35
4489.37
4463.88
4440.3
4419.53
4400.06
4382.93
4366.68
4352.4
4338.68
4326.68
4314.99
4304.83
4294.79
4286.13
4277.45
4270.02
4262.48
4256.08
4249.49
4243.93
4238.18
4233.35
4228.25
4224.05
4219.57
4215.89
4211.93
4208.67
4205.17
4202.31
4199.22
4196.71
4194.03
4191.79
4189.39
4187.43
4185.3
4183.58
4181.66
4180.14
4178.46
4177.21
4175.69
4174.62
4173.3
4172.39
4171.19
4170.41
4169.36
4168.72
4167.82
4167.3
4166.54
4166.11
4165.39
4164.94
4164.24
4163.82
4163.17
4162.8
4162.22
4161.9
4161.38
4161.12
4160.68
4160.51
4160.16
4160.11
4159.98
4160
4159.83
4160.29
4161.77
4210.23
4324.58
32446.7
8261.67
7572.02
7000.63
6535.07
6160.55
5861.13
5620.25
5425.31
5265.17
5132.8
5021.47
4927.68
4847.13
4778.23
4717.98
4665.87
4619.57
4579.19
4542.8
4510.89
4481.73
4456.09
4432.36
4411.45
4391.86
4374.62
4358.26
4343.89
4330.08
4318
4306.23
4296
4285.9
4277.17
4268.43
4260.94
4253.35
4246.9
4240.27
4234.67
4228.87
4224
4218.87
4214.63
4210.12
4206.41
4202.42
4199.13
4195.6
4192.71
4189.6
4187.06
4184.37
4182.11
4179.68
4177.7
4175.55
4173.81
4171.87
4170.34
4168.64
4167.37
4165.84
4164.75
4163.41
4162.5
4161.28
4160.49
4159.42
4158.78
4157.86
4157.33
4156.56
4156.12
4155.39
4154.94
4154.22
4153.8
4153.14
4152.76
4152.16
4151.84
4151.3
4151.03
4150.58
4150.4
4150.05
4149.98
4149.84
4149.84
4149.64
4150.09
4151.64
4201.3
4316.48
30364.4
8261.66
7572.15
7000.73
6534.83
6159.71
5859.56
5617.91
5422.24
5261.42
5128.45
5016.57
4922.29
4841.31
4772.03
4711.44
4659.02
4612.44
4571.82
4535.2
4503.09
4473.75
4447.94
4424.05
4403.01
4383.28
4365.93
4349.46
4334.99
4321.07
4308.91
4297.06
4286.75
4276.58
4267.79
4258.98
4251.44
4243.8
4237.29
4230.61
4224.96
4219.12
4214.22
4209.05
4204.77
4200.22
4196.48
4192.45
4189.14
4185.58
4182.67
4179.52
4176.96
4174.24
4171.96
4169.51
4167.51
4165.34
4163.58
4161.62
4160.08
4158.36
4157.07
4155.51
4154.42
4153.06
4152.13
4150.9
4150.1
4149.01
4148.36
4147.43
4146.89
4146.1
4145.65
4144.91
4144.45
4143.73
4143.29
4142.62
4142.23
4141.62
4141.29
4140.74
4140.47
4140.01
4139.81
4139.45
4139.37
4139.21
4139.19
4138.97
4139.41
4141.01
4191.77
4307.79
28397.5
8261.64
7572.27
7000.84
6534.59
6158.85
5857.94
5615.49
5419.06
5257.53
5123.92
5011.48
4916.69
4835.25
4765.57
4704.62
4651.88
4605.01
4564.13
4527.27
4494.95
4465.41
4439.43
4415.38
4394.19
4374.33
4356.85
4340.26
4325.69
4311.67
4299.42
4287.48
4277.09
4266.84
4257.98
4249.11
4241.51
4233.81
4227.25
4220.52
4214.82
4208.93
4203.98
4198.77
4194.46
4189.87
4186.09
4182.03
4178.69
4175.1
4172.16
4168.99
4166.4
4163.65
4161.35
4158.87
4156.86
4154.66
4152.88
4150.9
4149.34
4147.6
4146.3
4144.72
4143.61
4142.23
4141.29
4140.04
4139.23
4138.13
4137.46
4136.51
4135.96
4135.16
4134.7
4133.95
4133.48
4132.75
4132.3
4131.62
4131.22
4130.6
4130.26
4129.7
4129.41
4128.94
4128.74
4128.36
4128.26
4128.1
4128.06
4127.8
4128.24
4129.9
4181.62
4298.5
26547.2
8261.63
7572.41
7000.96
6534.35
6157.96
5856.27
5613
5415.77
5253.51
5119.23
5006.19
4910.87
4828.96
4758.86
4697.52
4644.45
4597.28
4556.12
4519.02
4486.47
4456.73
4430.56
4406.34
4385
4364.99
4347.38
4330.66
4315.98
4301.86
4289.51
4277.48
4267.02
4256.68
4247.75
4238.81
4231.14
4223.38
4216.77
4209.98
4204.23
4198.29
4193.3
4188.04
4183.69
4179.07
4175.25
4171.16
4167.78
4164.16
4161.19
4157.98
4155.37
4152.59
4150.27
4147.76
4145.73
4143.5
4141.71
4139.7
4138.13
4136.36
4135.04
4133.44
4132.32
4130.92
4129.96
4128.7
4127.87
4126.75
4126.07
4125.11
4124.54
4123.73
4123.26
4122.5
4122.02
4121.27
4120.82
4120.12
4119.72
4119.08
4118.73
4118.16
4117.86
4117.38
4117.17
4116.77
4116.67
4116.48
4116.42
4116.14
4116.56
4118.29
4170.86
4288.55
24814.8
8261.61
7572.54
7001.08
6534.11
6157.07
5854.56
5610.43
5412.38
5249.34
5114.37
5000.71
4904.84
4822.42
4751.88
4690.15
4636.73
4589.23
4547.79
4510.43
4477.65
4447.69
4421.33
4396.92
4375.42
4355.26
4337.52
4320.67
4305.87
4291.64
4279.19
4267.06
4256.51
4246.09
4237.09
4228.07
4220.34
4212.51
4205.84
4198.99
4193.2
4187.2
4182.17
4176.86
4172.47
4167.8
4163.95
4159.81
4156.4
4152.75
4149.75
4146.51
4143.87
4141.05
4138.71
4136.18
4134.12
4131.86
4130.06
4128.02
4126.43
4124.64
4123.3
4121.68
4120.54
4119.12
4118.15
4116.87
4116.03
4114.89
4114.2
4113.22
4112.64
4111.81
4111.33
4110.56
4110.07
4109.31
4108.84
4108.14
4107.72
4107.07
4106.71
4106.12
4105.82
4105.32
4105.09
4104.69
4104.57
4104.37
4104.29
4103.97
4104.39
4106.17
4159.49
4277.91
23201.1
8261.59
7572.68
7001.21
6533.87
6156.15
5852.8
5607.79
5408.88
5245.05
5109.35
4995.03
4898.59
4815.65
4744.65
4682.51
4628.71
4580.88
4539.15
4501.5
4468.48
4438.3
4411.73
4387.14
4365.47
4345.15
4327.26
4310.28
4295.36
4281.01
4268.46
4256.23
4245.59
4235.08
4225.99
4216.9
4209.1
4201.2
4194.47
4187.56
4181.71
4175.66
4170.58
4165.22
4160.79
4156.07
4152.18
4148
4144.56
4140.86
4137.83
4134.56
4131.89
4129.04
4126.67
4124.11
4122.03
4119.75
4117.92
4115.86
4114.25
4112.43
4111.08
4109.44
4108.28
4106.83
4105.85
4104.55
4103.69
4102.54
4101.83
4100.83
4100.24
4099.39
4098.9
4098.11
4097.61
4096.84
4096.37
4095.65
4095.22
4094.56
4094.19
4093.59
4093.27
4092.75
4092.52
4092.1
4091.96
4091.75
4091.65
4091.3
4091.71
4093.55
4147.5
4266.54
21701.7
8261.56
7572.82
7001.35
6533.63
6155.22
5851.01
5605.07
5405.27
5240.61
5104.17
4989.17
4892.12
4808.65
4737.17
4674.59
4620.41
4572.23
4530.18
4492.25
4458.98
4428.55
4401.78
4376.99
4355.14
4334.65
4316.61
4299.49
4284.44
4269.97
4257.31
4244.97
4234.23
4223.63
4214.46
4205.29
4197.41
4189.44
4182.65
4175.67
4169.77
4163.65
4158.52
4153.11
4148.64
4143.87
4139.94
4135.72
4132.24
4128.51
4125.45
4122.14
4119.44
4116.55
4114.16
4111.56
4109.46
4107.15
4105.3
4103.21
4101.58
4099.73
4098.36
4096.7
4095.52
4094.05
4093.05
4091.73
4090.86
4089.68
4088.96
4087.94
4087.34
4086.48
4085.97
4085.17
4084.66
4083.87
4083.39
4082.65
4082.22
4081.54
4081.16
4080.54
4080.21
4079.68
4079.44
4079
4078.85
4078.62
4078.51
4078.11
4078.52
4080.41
4134.89
4254.42
20312
8261.54
7572.96
7001.49
6533.4
6154.27
5849.18
5602.3
5401.58
5236.05
5098.83
4983.13
4885.45
4801.41
4729.43
4666.4
4611.82
4563.27
4520.9
4482.67
4449.12
4418.45
4391.46
4366.46
4344.43
4323.76
4305.57
4288.29
4273.11
4258.51
4245.73
4233.28
4222.45
4211.75
4202.5
4193.23
4185.29
4177.23
4170.37
4163.33
4157.37
4151.19
4146.01
4140.55
4136.02
4131.2
4127.23
4122.97
4119.45
4115.67
4112.58
4109.23
4106.5
4103.58
4101.16
4098.53
4096.4
4094.05
4092.18
4090.07
4088.42
4086.54
4085.15
4083.46
4082.26
4080.77
4079.75
4078.41
4077.52
4076.33
4075.59
4074.55
4073.93
4073.05
4072.53
4071.72
4071.2
4070.4
4069.9
4069.15
4068.7
4068.01
4067.62
4066.98
4066.64
4066.1
4065.84
4065.39
4065.22
4064.97
4064.84
4064.41
4064.81
4066.75
4121.66
4241.49
19027
8261.52
7573.11
7001.64
6533.17
6153.32
5847.31
5599.45
5397.78
5231.37
5093.34
4976.9
4878.57
4793.94
4721.44
4657.94
4602.94
4554.01
4511.3
4472.75
4438.93
4408
4380.77
4355.56
4333.33
4312.48
4294.13
4276.69
4261.38
4246.63
4233.74
4221.17
4210.23
4199.43
4190.09
4180.74
4172.71
4164.57
4157.65
4150.53
4144.51
4138.27
4133.03
4127.51
4122.93
4118.07
4114.05
4109.74
4106.18
4102.36
4099.23
4095.84
4093.08
4090.11
4087.67
4085
4082.85
4080.47
4078.58
4076.43
4074.76
4072.85
4071.44
4069.72
4068.51
4066.99
4065.95
4064.59
4063.68
4062.47
4061.71
4060.66
4060.02
4059.12
4058.59
4057.76
4057.23
4056.41
4055.91
4055.14
4054.68
4053.97
4053.56
4052.91
4052.56
4052
4051.73
4051.26
4051.07
4050.81
4050.66
4050.2
4050.58
4052.57
4107.81
4227.75
17841.4
8261.49
7573.25
7001.79
6532.94
6152.35
5845.41
5596.55
5393.9
5226.56
5087.69
4970.5
4871.49
4786.25
4713.21
4649.21
4593.77
4544.44
4501.38
4462.51
4428.4
4397.19
4369.73
4344.28
4321.86
4300.81
4282.29
4264.69
4249.23
4234.35
4221.33
4208.64
4197.59
4186.68
4177.24
4167.79
4159.68
4151.47
4144.46
4137.27
4131.18
4124.88
4119.58
4114
4109.38
4104.45
4100.39
4096.03
4092.43
4088.56
4085.4
4081.96
4079.17
4076.16
4073.69
4070.99
4068.8
4066.39
4064.47
4062.3
4060.6
4058.66
4057.23
4055.49
4054.25
4052.71
4051.65
4050.26
4049.34
4048.1
4047.33
4046.25
4045.6
4044.68
4044.14
4043.29
4042.74
4041.91
4041.39
4040.61
4040.14
4039.41
4038.99
4038.33
4037.96
4037.38
4037.09
4036.61
4036.41
4036.12
4035.96
4035.46
4035.83
4037.86
4093.33
4213.14
16749.8
8261.46
7573.4
7001.96
6532.71
6151.38
5843.48
5593.59
5389.93
5221.64
5081.9
4963.92
4864.21
4778.33
4704.72
4640.22
4584.33
4534.58
4491.15
4451.94
4417.52
4386.04
4358.32
4332.64
4310
4288.76
4270.05
4252.29
4236.67
4221.64
4208.49
4195.67
4184.51
4173.49
4163.95
4154.41
4146.21
4137.9
4130.83
4123.56
4117.4
4111.02
4105.67
4100.02
4095.34
4090.36
4086.25
4081.84
4078.2
4074.28
4071.08
4067.6
4064.77
4061.72
4059.21
4056.47
4054.26
4051.82
4049.87
4047.66
4045.95
4043.97
4042.52
4040.74
4039.49
4037.91
4036.84
4035.42
4034.49
4033.22
4032.43
4031.33
4030.66
4029.73
4029.17
4028.3
4027.74
4026.89
4026.36
4025.56
4025.08
4024.33
4023.9
4023.22
4022.84
4022.24
4021.94
4021.44
4021.22
4020.92
4020.74
4020.19
4020.56
4022.61
4078.22
4197.65
15746.5
8261.44
7573.55
7002.12
6532.5
6150.4
5841.52
5590.57
5385.87
5216.6
5075.97
4957.17
4856.73
4770.2
4696
4630.96
4574.6
4524.42
4480.61
4441.04
4406.31
4374.53
4346.55
4320.62
4297.77
4276.32
4257.43
4239.48
4223.71
4208.52
4195.24
4182.28
4171
4159.86
4150.23
4140.57
4132.29
4123.89
4116.73
4109.38
4103.15
4096.7
4091.29
4085.57
4080.84
4075.8
4071.63
4067.17
4063.48
4059.52
4056.27
4052.75
4049.87
4046.79
4044.25
4041.47
4039.23
4036.74
4034.77
4032.53
4030.78
4028.78
4027.3
4025.49
4024.21
4022.61
4021.52
4020.08
4019.12
4017.83
4017.02
4015.9
4015.21
4014.26
4013.68
4012.79
4012.23
4011.36
4010.81
4009.99
4009.49
4008.73
4008.29
4007.58
4007.19
4006.57
4006.26
4005.74
4005.5
4005.18
4004.99
4004.4
4004.76
4006.83
4062.49
4181.25
14825.6
8261.4
7573.7
7002.3
6532.29
6149.42
5839.55
5587.51
5381.74
5211.46
5069.9
4950.25
4849.06
4761.84
4687.04
4621.45
4564.6
4513.97
4469.76
4429.82
4394.76
4362.68
4334.43
4308.24
4285.16
4263.49
4244.4
4226.27
4210.33
4194.98
4181.56
4168.46
4157.06
4145.8
4136.05
4126.29
4117.91
4109.42
4102.18
4094.74
4088.44
4081.91
4076.43
4070.65
4065.86
4060.75
4056.54
4052.01
4048.28
4044.26
4040.97
4037.4
4034.49
4031.36
4028.78
4025.96
4023.69