/*--------------------------------*- C++ -*----------------------------------*\
| =========                 |                                                 |
| \\      /  F ield         | OpenFOAM: The Open Source CFD Toolbox           |
|  \\    /   O peration     | Version:  v2012                                 |
|   \\  /    A nd           | Website:  www.openfoam.com                      |
|    \\/     M anipulation  |                                                 |
\*---------------------------------------------------------------------------*/
FoamFile
{
    version     2.0;
    format      ascii;
    class       volScalarField;
    location    "59.5";
    object      yPlus;
}
// * * * * * * * * * * * * * * * * * * * * * * * * * * * * * * * * * * * * * //

dimensions      [0 0 0 0 0 0 0];


internalField   uniform 0;

boundaryField
{
    inlet
    {
        type            calculated;
        value           uniform 0;
    }
    outlet
    {
        type            calculated;
        value           uniform 0;
    }
    topWall
    {
        type            calculated;
        value           nonuniform List<scalar> 
545
(
0.111329
0.191964
0.246273
0.289493
0.326084
0.358102
0.386703
0.412614
0.43633
0.458206
0.478509
0.497446
0.515179
0.531842
0.547545
0.562378
0.576422
0.589742
0.602397
0.614438
0.625909
0.636852
0.647302
0.657289
0.666845
0.675995
0.684762
0.693169
0.701236
0.708981
0.716422
0.723574
0.730451
0.737068
0.743437
0.74957
0.755478
0.761172
0.76666
0.771953
0.777059
0.781986
0.786742
0.791334
0.795768
0.800052
0.804191
0.808191
0.812058
0.815797
0.819413
0.822911
0.826295
0.82957
0.832739
0.835808
0.838778
0.841654
0.84444
0.847138
0.849752
0.852285
0.854739
0.857118
0.859423
0.861658
0.863825
0.865927
0.867964
0.86994
0.871857
0.873717
0.875497
0.87722
0.878929
0.880625
0.882308
0.883977
0.885633
0.887276
0.888907
0.890524
0.892129
0.893722
0.895302
0.89687
0.898426
0.89997
0.901503
0.903023
0.904532
0.906029
0.907515
0.90899
0.910453
0.911906
0.913214
0.914385
0.915556
0.916726
0.917897
0.919067
0.920237
0.921407
0.922577
0.923747
0.924916
0.926086
0.927255
0.928424
0.929593
0.930762
0.931931
0.933099
0.934267
0.935435
0.936603
0.937771
0.938938
0.940105
0.941272
0.942439
0.943605
0.944771
0.945937
0.947102
0.948268
0.949433
0.950597
0.951762
0.952926
0.95409
0.955253
0.956416
0.957579
0.958741
0.959903
0.961065
0.962226
0.963387
0.964547
0.965707
0.966867
0.968026
0.969185
0.970344
0.971501
0.972659
0.973816
0.974973
0.976129
0.977284
0.978439
0.979594
0.980748
0.981902
0.983055
0.984207
0.985359
0.986511
0.987662
0.988812
0.989962
0.991111
0.992259
0.993407
0.994555
0.995701
0.996847
0.997993
0.999138
1.00028
1.00143
1.00257
1.00371
1.00485
1.00599
1.00713
1.00827
1.00941
1.01055
1.01168
1.01282
1.01396
1.01509
1.01622
1.01736
1.01849
1.01962
1.02075
1.02188
1.02301
1.02414
1.02526
1.02639
1.02751
1.02864
1.02976
1.03088
1.03201
1.03313
1.03425
1.03536
1.03648
1.0376
1.03871
1.03983
1.04094
1.04205
1.04316
1.04428
1.04538
1.04649
1.0476
1.0487
1.04981
1.05091
1.05202
1.05312
1.05422
1.05532
1.05641
1.05751
1.0586
1.0597
1.06079
1.06188
1.06297
1.06406
1.06515
1.06624
1.06732
1.0684
1.06949
1.07057
1.07165
1.07272
1.0738
1.07488
1.07595
1.07702
1.07809
1.07916
1.08023
1.0813
1.08236
1.08343
1.08449
1.08555
1.08661
1.08767
1.08872
1.08978
1.09083
1.09188
1.09293
1.09398
1.09502
1.09607
1.09711
1.09815
1.09919
1.10023
1.10126
1.1023
1.10333
1.10436
1.10539
1.10642
1.10738
1.1083
1.10922
1.11014
1.11108
1.11202
1.11296
1.11391
1.11487
1.11584
1.11681
1.11779
1.11877
1.11976
1.12076
1.12177
1.12278
1.12379
1.12482
1.12585
1.12688
1.12793
1.12897
1.13003
1.13109
1.13216
1.13323
1.13431
1.1354
1.13649
1.13759
1.13869
1.1398
1.14092
1.14204
1.14316
1.1443
1.14544
1.14658
1.14773
1.14889
1.15005
1.15121
1.15239
1.15356
1.15474
1.15593
1.15712
1.15832
1.15952
1.16073
1.16194
1.16315
1.16437
1.1656
1.16683
1.16806
1.16929
1.17053
1.17178
1.17302
1.17428
1.17553
1.17679
1.17805
1.17931
1.18058
1.18184
1.18311
1.18439
1.18566
1.18694
1.18822
1.1895
1.19078
1.19206
1.19335
1.19463
1.19592
1.19721
1.19849
1.19978
1.20106
1.20235
1.20364
1.20492
1.2062
1.20749
1.20877
1.21005
1.21132
1.2126
1.21387
1.21514
1.2164
1.21767
1.21893
1.22018
1.22143
1.22268
1.22392
1.22516
1.22639
1.22762
1.22884
1.23005
1.23126
1.23246
1.23366
1.23484
1.23602
1.23719
1.23836
1.23951
1.24066
1.24179
1.24292
1.24404
1.24514
1.24624
1.24732
1.2484
1.24946
1.25051
1.25155
1.25257
1.25358
1.25458
1.25557
1.25654
1.2575
1.25844
1.25937
1.26028
1.26118
1.26206
1.26293
1.26377
1.26461
1.26542
1.26622
1.267
1.26776
1.2685
1.26923
1.26994
1.27062
1.27129
1.27194
1.27257
1.27317
1.27376
1.27433
1.27487
1.2754
1.2759
1.27639
1.27685
1.27729
1.2777
1.2781
1.27847
1.27882
1.27915
1.27945
1.27974
1.27999
1.28023
1.28045
1.28064
1.2808
1.28095
1.28107
1.28117
1.28124
1.28129
1.28132
1.28133
1.28131
1.28127
1.28121
1.28112
1.28098
1.28081
1.28062
1.2804
1.28015
1.27987
1.27958
1.27926
1.27892
1.27856
1.27818
1.27779
1.27737
1.27695
1.27651
1.27605
1.27558
1.2751
1.27461
1.27411
1.2736
1.27309
1.27256
1.27203
1.2715
1.27095
1.27041
1.26985
1.2693
1.26874
1.26818
1.26762
1.26706
1.2665
1.26594
1.26538
1.26482
1.26426
1.2637
1.26315
1.2626
1.26205
1.2615
1.26096
1.26043
1.2599
1.25938
1.25886
1.25834
1.25784
1.25734
1.25685
1.25636
1.25588
1.25541
1.25495
1.2545
1.25406
1.25362
1.2532
1.25278
1.25238
1.25198
1.2516
1.25122
1.25086
1.25051
1.25016
1.24984
1.24952
1.24921
1.24892
1.24863
1.24836
1.24811
1.24786
1.24763
1.24741
1.2472
1.24701
1.24683
1.24666
1.2465
1.24636
1.24624
1.24612
1.24602
1.24594
1.24587
1.24581
1.24576
1.24573
1.24572
1.24571
)
;
    }
    bottomWall
    {
        type            calculated;
        value           nonuniform List<scalar> 
449
(
0.139379
0.0889238
0.0757908
0.0694407
0.0652901
0.0622224
0.0598432
0.0580231
0.056832
0.0566346
0.0581107
0.0621257
0.0657103
0.0679316
0.0691444
0.0698028
0.0701378
0.0702671
0.0702465
0.0701399
0.069976
0.0697742
0.0695523
0.069321
0.0690865
0.0688527
0.0686215
0.0683949
0.0681739
0.0679589
0.0677501
0.0675476
0.0673513
0.0671611
0.0669767
0.0667978
0.0666241
0.0664556
0.066292
0.0661331
0.0659788
0.0658288
0.0656828
0.0655407
0.0654024
0.0652676
0.0651361
0.0650078
0.0648827
0.0647603
0.0646403
0.0645224
0.0644065
0.0642927
0.064181
0.0640712
0.0639634
0.0638575
0.0637536
0.0636515
0.0635512
0.0634526
0.0633558
0.0632605
0.0631669
0.0630748
0.0629842
0.0628951
0.0628073
0.062721
0.0626358
0.062552
0.0624694
0.062388
0.0623078
0.0622287
0.0621507
0.0620739
0.0619981
0.0619234
0.0618497
0.061777
0.0617053
0.0616345
0.0615646
0.0614956
0.0614275
0.0613603
0.0612938
0.0612282
0.0611633
0.0610992
0.0610359
0.0609733
0.0609114
0.0608503
0.0607898
0.06073
0.0606709
0.0606124
0.0605545
0.0604972
0.0604405
0.0603843
0.0603288
0.0602738
0.0602193
0.0601654
0.0601121
0.0600592
0.0600069
0.0599551
0.0599038
0.0598529
0.0598025
0.0597527
0.0597032
0.0596542
0.0596057
0.0595576
0.0595099
0.0594626
0.0594158
0.0593693
0.0593232
0.0592776
0.0592323
0.0591874
0.0591428
0.0590987
0.0590548
0.0590114
0.0589683
0.0589255
0.058883
0.0588409
0.0587991
0.0587576
0.0587165
0.0586757
0.0586351
0.0585949
0.0585549
0.0585153
0.0584759
0.0584368
0.058398
0.0583594
0.0583211
0.058283
0.0582452
0.0582077
0.0581704
0.0581334
0.0580966
0.05806
0.0580237
0.0579876
0.0579518
0.0579162
0.0578808
0.0578457
0.0578107
0.057776
0.0577415
0.0577072
0.0576732
0.0576393
0.0576057
0.0575722
0.0575389
0.0575059
0.057473
0.0574422
0.0574132
0.057384
0.0573548
0.0573255
0.0572961
0.0572666
0.057237
0.0572073
0.0571775
0.0571476
0.0571176
0.0570875
0.0570573
0.0570271
0.0569967
0.0569662
0.0569356
0.056905
0.0568743
0.0568434
0.0568125
0.0567815
0.0567504
0.0567192
0.0566879
0.0566566
0.0566251
0.0565936
0.056562
0.0565303
0.0564985
0.0564667
0.0564347
0.0564027
0.0563706
0.0563384
0.0563062
0.0562738
0.0562414
0.0562089
0.0561763
0.0561436
0.0561109
0.056078
0.0560451
0.0560122
0.0559791
0.055946
0.0559128
0.0558796
0.0558462
0.0558128
0.0557794
0.0557459
0.0557123
0.0556786
0.0556449
0.0556112
0.0555773
0.0555434
0.0555095
0.0554755
0.0554414
0.0554073
0.0553731
0.0553389
0.0553046
0.0552702
0.0552358
0.0552014
0.0551669
0.0551323
0.0550977
0.055063
0.0550283
0.0549936
0.0549588
0.0549239
0.054889
0.0548541
0.0548191
0.0547841
0.054749
0.0547139
0.0546787
0.0546435
0.0546083
0.054573
0.0545377
0.0545023
0.0544669
0.0544315
0.0543961
0.0543606
0.054325
0.0542895
0.0542539
0.0542182
0.0541826
0.0541469
0.0541111
0.0540753
0.0540395
0.0540036
0.0539677
0.0539318
0.0538958
0.0538599
0.0538239
0.0537878
0.0537518
0.0537157
0.0536796
0.0536435
0.0536074
0.0535713
0.0535351
0.0534989
0.0534627
0.0534265
0.0533903
0.053354
0.0533177
0.0532815
0.0532452
0.0532089
0.0531726
0.0531362
0.0530999
0.0530636
0.0530272
0.0529908
0.0529545
0.0529181
0.0528817
0.0528453
0.0528089
0.0527725
0.0527361
0.0526997
0.0526633
0.0526269
0.0525905
0.0525541
0.0525176
0.0524812
0.0524448
0.0524084
0.052372
0.0523356
0.0522992
0.0522628
0.0522264
0.05219
0.0521536
0.0521173
0.0520809
0.0520445
0.0520081
0.0519717
0.0519353
0.0518989
0.0518626
0.0518262
0.0517899
0.0517535
0.0517172
0.0516809
0.0516446
0.0516084
0.0515721
0.0515359
0.0514996
0.0514634
0.0514272
0.0513911
0.0513549
0.0513188
0.0512827
0.0512466
0.0512065
0.0511628
0.0511196
0.0510771
0.0510351
0.0509936
0.0509527
0.0509124
0.0508725
0.0508332
0.0507943
0.0507559
0.0507181
0.0506806
0.0506437
0.0506071
0.050571
0.0505353
0.0505001
0.0504652
0.0504308
0.0503967
0.050363
0.0503297
0.0502968
0.0502642
0.050232
0.0502001
0.0501685
0.0501373
0.0501064
0.0500758
0.0500455
0.0500155
0.0499859
0.0499564
0.0499274
0.0498986
0.0498701
0.0498418
0.0498138
0.0497861
0.0497587
0.0497315
0.0497046
0.0496778
0.0496514
0.0496252
0.0495993
0.0495735
0.049548
0.0495227
0.0494977
0.0494728
0.0494483
0.0494238
0.0493997
0.0493756
0.0493519
0.0493282
0.0493049
0.0492816
0.0492587
0.0492358
0.0492132
0.0491907
0.0491684
0.0491462
0.0491244
0.0491025
0.049081
0.0490595
0.0490383
0.049017
0.0489962
0.0489752
0.0489548
0.048934
0.0489139
0.0488934
0.0488736
0.0488533
0.0488338
0.0488137
0.0487946
0.0487746
0.0487557
0.0487361
0.0487168
0.0486987
0.0486765
0.0486644
0.0486317
0.048638
0.0485929
)
;
    }
    symmetry
    {
        type            symmetryPlane;
    }
    frontAndBack
    {
        type            empty;
    }
}


// ************************************************************************* //
