/*--------------------------------*- C++ -*----------------------------------*\
| =========                 |                                                 |
| \\      /  F ield         | OpenFOAM: The Open Source CFD Toolbox           |
|  \\    /   O peration     | Version:  v2012                                 |
|   \\  /    A nd           | Website:  www.openfoam.com                      |
|    \\/     M anipulation  |                                                 |
\*---------------------------------------------------------------------------*/
FoamFile
{
    version     2.0;
    format      ascii;
    class       volScalarField;
    location    "31.5";
    object      k;
}
// * * * * * * * * * * * * * * * * * * * * * * * * * * * * * * * * * * * * * //

dimensions      [0 2 -2 0 0 0 0];


internalField   nonuniform List<scalar> 
209825
(
0.00102331
0.000929636
0.000858177
0.000805703
0.000767321
0.000738769
0.000717052
0.00070013
0.000686693
0.000675814
0.000666893
0.000659466
0.000653228
0.000647926
0.00064339
0.000639472
0.000636071
0.000633098
0.000630481
0.000628174
0.00062612
0.0006243
0.000622659
0.000621197
0.000619869
0.000618685
0.000617591
0.000616619
0.000615711
0.000614911
0.000614151
0.00061348
0.000612846
0.000612288
0.000611744
0.00061127
0.000610808
0.000610417
0.000610021
0.000609687
0.000609353
0.000609079
0.000608785
0.000608546
0.00060831
0.000608103
0.000607886
0.000607712
0.000607531
0.000607398
0.00060726
0.000607144
0.000607013
0.000606922
0.000606826
0.000606727
0.000606654
0.000606576
0.000606489
0.000606448
0.000606372
0.000606332
0.000606245
0.00060623
0.000606197
0.00060626
0.000606316
0.000606395
0.000606395
0.00060649
0.000606501
0.000606595
0.000606638
0.000606757
0.000606819
0.000606952
0.000607013
0.000607152
0.000607224
0.000607379
0.000607458
0.000607627
0.000607719
0.000607914
0.000608017
0.000608236
0.000608351
0.0006086
0.000608727
0.000609031
0.000609159
0.000609558
0.000609807
0.000619693
0.000654153
0.00163606
0.00102331
0.000929636
0.000858176
0.0008057
0.000767316
0.000738762
0.000717043
0.000700121
0.000686682
0.000675802
0.00066688
0.000659452
0.000653214
0.000647911
0.000643374
0.000639456
0.000636055
0.000633082
0.000630464
0.000628157
0.000626103
0.000624282
0.000622641
0.000621179
0.000619851
0.000618667
0.000617573
0.0006166
0.000615693
0.000614892
0.000614132
0.000613461
0.000612827
0.000612269
0.000611725
0.000611251
0.000610789
0.000610397
0.000610002
0.000609668
0.000609334
0.00060906
0.000608765
0.000608526
0.00060829
0.000608083
0.000607866
0.000607693
0.000607511
0.000607378
0.00060724
0.000607124
0.000606993
0.000606902
0.000606806
0.000606707
0.000606634
0.000606555
0.000606469
0.000606428
0.000606352
0.000606312
0.000606224
0.00060621
0.000606176
0.00060624
0.000606295
0.000606375
0.000606375
0.000606469
0.000606481
0.000606575
0.000606618
0.000606736
0.000606798
0.000606932
0.000606993
0.000607131
0.000607203
0.000607358
0.000607437
0.000607607
0.000607698
0.000607893
0.000607997
0.000608215
0.00060833
0.000608579
0.000608706
0.00060901
0.000609138
0.000609537
0.000609786
0.00061969
0.000654142
0.00163701
0.00102331
0.000929637
0.000858171
0.000805687
0.000767295
0.000738733
0.000717008
0.000700079
0.000686636
0.000675753
0.000666827
0.000659396
0.000653155
0.000647851
0.000643312
0.000639392
0.00063599
0.000633015
0.000630396
0.000628088
0.000626033
0.000624212
0.00062257
0.000621107
0.000619779
0.000618594
0.000617499
0.000616527
0.000615618
0.000614818
0.000614057
0.000613386
0.000612751
0.000612193
0.000611649
0.000611174
0.000610712
0.00061032
0.000609925
0.000609591
0.000609256
0.000608982
0.000608687
0.000608448
0.000608212
0.000608005
0.000607788
0.000607614
0.000607432
0.000607299
0.000607161
0.000607046
0.000606914
0.000606823
0.000606726
0.000606628
0.000606554
0.000606476
0.000606389
0.000606348
0.000606272
0.000606233
0.000606145
0.00060613
0.000606096
0.00060616
0.000606215
0.000606295
0.000606295
0.000606389
0.000606401
0.000606494
0.000606537
0.000606656
0.000606718
0.000606851
0.000606912
0.00060705
0.000607122
0.000607277
0.000607356
0.000607525
0.000607617
0.000607812
0.000607915
0.000608133
0.000608248
0.000608498
0.000608624
0.000608928
0.000609056
0.000609455
0.000609704
0.000619646
0.000654077
0.0016389
0.00102331
0.000929639
0.000858164
0.000805665
0.000767259
0.000738684
0.000716947
0.00070001
0.000686559
0.000675669
0.000666738
0.000659302
0.000653057
0.000647749
0.000643207
0.000639285
0.00063588
0.000632903
0.000630283
0.000627973
0.000625917
0.000624094
0.00062245
0.000620987
0.000619657
0.000618472
0.000617376
0.000616403
0.000615494
0.000614693
0.000613932
0.000613259
0.000612625
0.000612066
0.000611521
0.000611046
0.000610584
0.000610191
0.000609796
0.000609461
0.000609126
0.000608852
0.000608557
0.000608318
0.000608081
0.000607874
0.000607656
0.000607483
0.000607301
0.000607167
0.000607029
0.000606913
0.000606782
0.000606691
0.000606594
0.000606495
0.000606421
0.000606343
0.000606256
0.000606215
0.000606139
0.000606099
0.000606011
0.000605997
0.000605962
0.000606026
0.000606081
0.00060616
0.00060616
0.000606254
0.000606266
0.000606359
0.000606402
0.00060652
0.000606582
0.000606715
0.000606776
0.000606914
0.000606986
0.000607141
0.00060722
0.000607389
0.00060748
0.000607675
0.000607778
0.000607996
0.000608111
0.00060836
0.000608486
0.000608791
0.000608918
0.000609317
0.000609567
0.000619566
0.000653964
0.00164108
0.00102331
0.000929641
0.000858153
0.000805635
0.000767208
0.000738615
0.000716862
0.000699911
0.000686449
0.00067555
0.000666612
0.000659169
0.000652919
0.000647606
0.00064306
0.000639134
0.000635725
0.000632746
0.000630123
0.00062781
0.000625752
0.000623927
0.000622282
0.000620817
0.000619486
0.000618299
0.000617203
0.000616228
0.000615318
0.000614516
0.000613754
0.000613081
0.000612446
0.000611887
0.000611341
0.000610866
0.000610403
0.00061001
0.000609614
0.000609278
0.000608943
0.000608668
0.000608373
0.000608133
0.000607896
0.000607689
0.000607471
0.000607297
0.000607115
0.000606981
0.000606843
0.000606727
0.000606595
0.000606504
0.000606407
0.000606308
0.000606234
0.000606156
0.000606068
0.000606027
0.000605951
0.000605911
0.000605823
0.000605808
0.000605773
0.000605836
0.000605892
0.00060597
0.00060597
0.000606064
0.000606075
0.000606169
0.000606211
0.000606329
0.000606391
0.000606524
0.000606584
0.000606723
0.000606795
0.000606949
0.000607027
0.000607197
0.000607288
0.000607482
0.000607586
0.000607803
0.000607918
0.000608167
0.000608293
0.000608597
0.000608724
0.000609122
0.000609372
0.000619453
0.000653804
0.00164355
0.00102332
0.000929644
0.000858138
0.000805595
0.000767141
0.000738525
0.000716752
0.000699784
0.000686308
0.000675397
0.000666448
0.000658997
0.000652739
0.00064742
0.000642868
0.000638938
0.000635525
0.000632542
0.000629915
0.0006276
0.000625539
0.000623712
0.000622064
0.000620598
0.000619265
0.000618076
0.000616978
0.000616002
0.000615091
0.000614288
0.000613524
0.000612851
0.000612214
0.000611654
0.000611108
0.000610631
0.000610168
0.000609774
0.000609377
0.000609042
0.000608706
0.000608431
0.000608135
0.000607895
0.000607657
0.00060745
0.000607231
0.000607057
0.000606874
0.00060674
0.000606602
0.000606485
0.000606353
0.000606262
0.000606164
0.000606065
0.000605991
0.000605913
0.000605825
0.000605784
0.000605707
0.000605668
0.00060558
0.000605564
0.000605529
0.000605591
0.000605646
0.000605724
0.000605724
0.000605817
0.000605828
0.000605922
0.000605964
0.000606082
0.000606143
0.000606276
0.000606336
0.000606474
0.000606546
0.0006067
0.000606779
0.000606947
0.000607039
0.000607233
0.000607336
0.000607553
0.000607667
0.000607916
0.000608042
0.000608345
0.000608472
0.00060887
0.000609121
0.000619306
0.000653597
0.00164624
0.00102332
0.000929647
0.000858121
0.000805546
0.00076706
0.000738414
0.000716616
0.000699627
0.000686134
0.000675208
0.000666247
0.000658785
0.000652518
0.000647191
0.000642633
0.000638696
0.000635278
0.00063229
0.000629659
0.00062734
0.000625276
0.000623446
0.000621796
0.000620326
0.000618991
0.000617801
0.000616701
0.000615723
0.00061481
0.000614006
0.000613241
0.000612566
0.000611928
0.000611367
0.00061082
0.000610343
0.000609878
0.000609484
0.000609086
0.00060875
0.000608413
0.000608137
0.000607841
0.0006076
0.000607362
0.000607154
0.000606935
0.000606761
0.000606578
0.000606443
0.000606304
0.000606187
0.000606055
0.000605963
0.000605865
0.000605766
0.000605691
0.000605613
0.000605525
0.000605483
0.000605407
0.000605367
0.000605279
0.000605263
0.000605227
0.000605289
0.000605344
0.00060542
0.00060542
0.000605513
0.000605524
0.000605617
0.000605659
0.000605777
0.000605838
0.00060597
0.00060603
0.000606168
0.00060624
0.000606393
0.000606472
0.00060664
0.000606731
0.000606924
0.000607027
0.000607244
0.000607358
0.000607606
0.000607732
0.000608035
0.000608161
0.000608559
0.00060881
0.000619126
0.000653342
0.00164902
0.00102332
0.000929651
0.0008581
0.000805488
0.000766963
0.000738282
0.000716455
0.000699441
0.000685926
0.000674983
0.000666007
0.000658533
0.000652255
0.000646918
0.000642352
0.000638408
0.000634983
0.00063199
0.000629354
0.000627031
0.000624963
0.000623129
0.000621476
0.000620003
0.000618665
0.000617472
0.00061637
0.00061539
0.000614476
0.000613669
0.000612903
0.000612227
0.000611588
0.000611025
0.000610477
0.000609998
0.000609533
0.000609137
0.000608739
0.000608402
0.000608064
0.000607788
0.00060749
0.000607249
0.00060701
0.000606802
0.000606582
0.000606407
0.000606224
0.000606088
0.000605949
0.000605832
0.000605699
0.000605607
0.000605509
0.000605409
0.000605334
0.000605255
0.000605167
0.000605125
0.000605049
0.000605008
0.00060492
0.000604904
0.000604866
0.000604928
0.000604983
0.000605058
0.000605058
0.00060515
0.000605161
0.000605254
0.000605296
0.000605413
0.000605474
0.000605606
0.000605666
0.000605803
0.000605874
0.000606027
0.000606105
0.000606273
0.000606364
0.000606557
0.00060666
0.000606876
0.00060699
0.000607237
0.000607362
0.000607665
0.000607791
0.000608188
0.00060844
0.000618912
0.000653039
0.0016517
0.00102333
0.000929656
0.000858077
0.000805421
0.000766851
0.000738129
0.000716267
0.000699224
0.000685685
0.000674721
0.000665728
0.000658239
0.000651949
0.000646601
0.000642025
0.000638072
0.000634641
0.000631641
0.000628999
0.00062667
0.000624598
0.00062276
0.000621103
0.000619627
0.000618286
0.00061709
0.000615985
0.000615003
0.000614086
0.000613278
0.00061251
0.000611832
0.000611191
0.000610627
0.000610077
0.000609597
0.00060913
0.000608734
0.000608334
0.000607996
0.000607658
0.00060738
0.000607082
0.00060684
0.0006066
0.000606392
0.000606171
0.000605995
0.000605811
0.000605675
0.000605535
0.000605418
0.000605284
0.000605191
0.000605093
0.000604993
0.000604918
0.000604839
0.00060475
0.000604708
0.000604631
0.000604591
0.000604503
0.000604486
0.000604447
0.000604508
0.000604562
0.000604636
0.000604636
0.000604728
0.000604738
0.000604831
0.000604872
0.000604989
0.000605049
0.000605181
0.00060524
0.000605377
0.000605448
0.000605601
0.000605679
0.000605846
0.000605937
0.000606129
0.000606231
0.000606447
0.000606561
0.000606807
0.000606932
0.000607234
0.000607359
0.000607756
0.000608009
0.000618667
0.000652688
0.00165396
0.00102334
0.000929662
0.00085805
0.000805345
0.000766723
0.000737955
0.000716053
0.000698977
0.00068541
0.000674422
0.000665409
0.000657903
0.000651598
0.000646238
0.000641651
0.000637689
0.000634249
0.000631241
0.000628593
0.000626258
0.00062418
0.000622338
0.000620676
0.000619196
0.000617852
0.000616653
0.000615545
0.00061456
0.000613641
0.00061283
0.00061206
0.000611379
0.000610737
0.000610171
0.00060962
0.000609139
0.00060867
0.000608272
0.000607872
0.000607532
0.000607193
0.000606914
0.000606615
0.000606372
0.000606132
0.000605922
0.000605701
0.000605524
0.000605339
0.000605203
0.000605062
0.000604944
0.00060481
0.000604717
0.000604618
0.000604517
0.000604441
0.000604363
0.000604273
0.000604231
0.000604153
0.000604113
0.000604025
0.000604007
0.000603967
0.000604027
0.000604081
0.000604153
0.000604153
0.000604245
0.000604254
0.000604347
0.000604387
0.000604503
0.000604564
0.000604695
0.000604754
0.00060489
0.000604961
0.000605113
0.000605191
0.000605358
0.000605448
0.000605639
0.000605741
0.000605956
0.000606069
0.000606315
0.00060644
0.00060674
0.000606865
0.000607261
0.000607516
0.000618389
0.000652288
0.00165539
0.00102334
0.000929668
0.00085802
0.000805259
0.00076658
0.000737759
0.000715812
0.000698698
0.0006851
0.000674086
0.00066505
0.000657525
0.000651204
0.000645829
0.00064123
0.000637257
0.000633807
0.000630791
0.000628135
0.000625794
0.00062371
0.000621861
0.000620195
0.000618711
0.000617362
0.000616159
0.000615048
0.00061406
0.000613138
0.000612324
0.000611552
0.000610869
0.000610225
0.000609657
0.000609104
0.000608621
0.000608151
0.000607752
0.000607349
0.000607009
0.000606668
0.000606388
0.000606088
0.000605844
0.000605602
0.000605392
0.00060517
0.000604993
0.000604807
0.00060467
0.000604528
0.000604409
0.000604275
0.000604181
0.000604081
0.000603981
0.000603904
0.000603825
0.000603735
0.000603692
0.000603614
0.000603574
0.000603485
0.000603467
0.000603425
0.000603485
0.000603538
0.000603608
0.000603609
0.000603699
0.000603708
0.000603801
0.00060384
0.000603956
0.000604016
0.000604147
0.000604205
0.000604341
0.000604411
0.000604563
0.00060464
0.000604806
0.000604896
0.000605086
0.000605188
0.000605402
0.000605515
0.00060576
0.000605884
0.000606184
0.000606307
0.000606703
0.00060696
0.000618079
0.000651839
0.00165539
0.00102335
0.000929676
0.000857987
0.000805164
0.000766421
0.000737542
0.000715545
0.000698389
0.000684755
0.000673711
0.00066465
0.000657104
0.000650764
0.000645373
0.00064076
0.000636775
0.000633314
0.000630289
0.000627625
0.000625276
0.000623185
0.00062133
0.000619659
0.000618169
0.000616816
0.000615609
0.000614494
0.000613503
0.000612577
0.000611761
0.000610985
0.0006103
0.000609653
0.000609083
0.000608528
0.000608043
0.000607572
0.000607171
0.000606767
0.000606425
0.000606082
0.000605801
0.0006055
0.000605255
0.000605012
0.000604801
0.000604578
0.0006044
0.000604213
0.000604075
0.000603932
0.000603813
0.000603678
0.000603583
0.000603483
0.000603381
0.000603304
0.000603225
0.000603134
0.000603091
0.000603013
0.000602972
0.000602883
0.000602864
0.00060282
0.00060288
0.000602932
0.000603001
0.000603001
0.00060309
0.000603099
0.000603191
0.00060323
0.000603345
0.000603404
0.000603534
0.000603592
0.000603727
0.000603797
0.000603948
0.000604025
0.000604191
0.00060428
0.00060447
0.000604571
0.000604784
0.000604896
0.00060514
0.000605264
0.000605562
0.000605685
0.00060608
0.00060634
0.000617737
0.00065134
0.00165342
0.00102336
0.000929684
0.000857951
0.000805061
0.000766246
0.000737302
0.00071525
0.000698047
0.000684375
0.000673298
0.000664209
0.000656639
0.000650278
0.00064487
0.000640241
0.000636243
0.00063277
0.000629734
0.000627061
0.000624703
0.000622605
0.000620744
0.000619066
0.000617571
0.000616212
0.000615001
0.000613882
0.000612886
0.000611957
0.000611137
0.000610359
0.000609671
0.000609021
0.000608449
0.000607891
0.000607405
0.000606931
0.000606528
0.000606123
0.000605779
0.000605435
0.000605152
0.00060485
0.000604603
0.000604359
0.000604147
0.000603923
0.000603744
0.000603556
0.000603417
0.000603273
0.000603153
0.000603017
0.000602921
0.000602821
0.000602719
0.00060264
0.000602561
0.00060247
0.000602426
0.000602347
0.000602306
0.000602217
0.000602198
0.000602152
0.00060221
0.000602262
0.000602328
0.000602328
0.000602417
0.000602425
0.000602517
0.000602555
0.000602669
0.000602728
0.000602857
0.000602915
0.000603049
0.000603119
0.000603269
0.000603345
0.00060351
0.000603598
0.000603787
0.000603888
0.000604101
0.000604212
0.000604455
0.000604578
0.000604875
0.000604997
0.000605391
0.000605654
0.000617362
0.00065079
0.00164948
0.00102337
0.000929693
0.000857912
0.000804948
0.000766056
0.000737041
0.000714928
0.000697674
0.000683958
0.000672845
0.000663726
0.000656129
0.000649746
0.000644318
0.000639673
0.000635659
0.000632174
0.000629126
0.000626442
0.000624075
0.000621969
0.0006201
0.000618415
0.000616914
0.00061555
0.000614334
0.00061321
0.00061221
0.000611277
0.000610454
0.000609672
0.000608981
0.000608328
0.000607753
0.000607193
0.000606704
0.000606228
0.000605823
0.000605416
0.00060507
0.000604724
0.00060444
0.000604137
0.000603888
0.000603643
0.00060343
0.000603204
0.000603024
0.000602835
0.000602695
0.00060255
0.000602429
0.000602292
0.000602196
0.000602094
0.000601992
0.000601912
0.000601833
0.000601741
0.000601697
0.000601617
0.000601576
0.000601487
0.000601466
0.000601418
0.000601476
0.000601526
0.000601591
0.000601591
0.000601678
0.000601686
0.000601777
0.000601814
0.000601927
0.000601986
0.000602114
0.000602171
0.000602305
0.000602374
0.000602523
0.000602599
0.000602763
0.000602851
0.000603039
0.000603139
0.00060335
0.000603461
0.000603703
0.000603825
0.000604121
0.000604242
0.000604635
0.000604901
0.000616956
0.000650188
0.00164361
0.00102338
0.000929703
0.000857871
0.000804826
0.000765849
0.000736757
0.000714578
0.000697268
0.000683506
0.000672353
0.0006632
0.000655575
0.000649167
0.000643718
0.000639054
0.000635024
0.000631524
0.000628464
0.000625768
0.000623391
0.000621276
0.000619399
0.000617707
0.000616199
0.000614829
0.000613607
0.000612478
0.000611473
0.000610536
0.000609708
0.000608923
0.000608229
0.000607573
0.000606995
0.000606432
0.000605941
0.000605462
0.000605055
0.000604645
0.000604298
0.00060395
0.000603664
0.000603359
0.000603109
0.000602862
0.000602647
0.000602421
0.00060224
0.000602049
0.000601907
0.000601761
0.00060164
0.000601502
0.000601404
0.000601302
0.000601199
0.000601119
0.000601039
0.000600946
0.000600901
0.000600821
0.000600779
0.00060069
0.000600669
0.000600618
0.000600675
0.000600725
0.000600786
0.000600786
0.000600873
0.000600879
0.00060097
0.000601006
0.000601119
0.000601176
0.000601304
0.000601361
0.000601493
0.000601562
0.00060171
0.000601785
0.000601948
0.000602035
0.000602222
0.000602322
0.000602532
0.000602643
0.000602883
0.000603004
0.000603299
0.000603418
0.000603811
0.00060408
0.000616516
0.000649532
0.00163583
0.00102339
0.000929714
0.000857827
0.000804695
0.000765627
0.000736452
0.000714201
0.00069683
0.000683017
0.000671821
0.000662632
0.000654975
0.000648541
0.000643068
0.000638384
0.000634336
0.00063082
0.000627746
0.000625039
0.000622651
0.000620525
0.000618639
0.000616939
0.000615424
0.000614047
0.000612819
0.000611684
0.000610675
0.000609733
0.000608901
0.000608112
0.000607413
0.000606754
0.000606173
0.000605607
0.000605113
0.000604632
0.000604222
0.00060381
0.00060346
0.00060311
0.000602823
0.000602516
0.000602264
0.000602015
0.000601799
0.000601572
0.000601389
0.000601197
0.000601054
0.000600907
0.000600784
0.000600645
0.000600546
0.000600443
0.00060034
0.000600258
0.000600178
0.000600084
0.000600038
0.000599958
0.000599916
0.000599826
0.000599804
0.000599751
0.000599806
0.000599855
0.000599914
0.000599914
0.000599999
0.000600005
0.000600095
0.00060013
0.000600242
0.000600299
0.000600426
0.000600482
0.000600613
0.000600681
0.000600829
0.000600903
0.000601065
0.000601152
0.000601337
0.000601436
0.000601645
0.000601755
0.000601994
0.000602114
0.000602408
0.000602525
0.000602917
0.000603191
0.000616043
0.000648822
0.00162619
0.00102341
0.000929726
0.00085778
0.000804556
0.00076539
0.000736124
0.000713796
0.000696359
0.000682491
0.000671248
0.00066202
0.000654329
0.000647866
0.000642368
0.000637662
0.000633595
0.000630062
0.000626973
0.000624252
0.000621852
0.000619716
0.00061782
0.000616111
0.000614588
0.000613204
0.000611969
0.000610829
0.000609814
0.000608866
0.00060803
0.000607236
0.000606534
0.00060587
0.000605286
0.000604717
0.00060422
0.000603736
0.000603323
0.000602909
0.000602557
0.000602205
0.000601915
0.000601606
0.000601353
0.000601102
0.000600885
0.000600655
0.000600471
0.000600278
0.000600133
0.000599984
0.000599861
0.000599721
0.000599621
0.000599516
0.000599412
0.000599329
0.000599249
0.000599154
0.000599108
0.000599026
0.000598984
0.000598894
0.000598871
0.000598815
0.000598869
0.000598917
0.000598973
0.000598973
0.000599057
0.000599062
0.000599151
0.000599185
0.000599296
0.000599352
0.000599478
0.000599533
0.000599663
0.000599731
0.000599877
0.000599951
0.000600112
0.000600198
0.000600382
0.00060048
0.000600688
0.000600797
0.000601035
0.000601154
0.000601446
0.000601562
0.000601953
0.000602232
0.000615536
0.000648055
0.00161473
0.00102342
0.000929739
0.00085773
0.000804407
0.000765136
0.000735774
0.000713363
0.000695855
0.000681928
0.000670635
0.000661364
0.000653637
0.000647142
0.000641617
0.000636887
0.0006328
0.000629249
0.000626143
0.000623408
0.000620995
0.000618847
0.000616941
0.000615223
0.000613691
0.000612299
0.000611057
0.00060991
0.000608889
0.000607936
0.000607094
0.000606296
0.00060559
0.000604922
0.000604334
0.000603761
0.000603261
0.000602773
0.000602358
0.000601941
0.000601587
0.000601232
0.00060094
0.000600629
0.000600373
0.000600121
0.000599902
0.000599671
0.000599485
0.00059929
0.000599144
0.000598993
0.000598869
0.000598728
0.000598626
0.000598521
0.000598416
0.000598332
0.000598251
0.000598155
0.000598108
0.000598025
0.000597983
0.000597893
0.000597868
0.00059781
0.000597863
0.000597909
0.000597962
0.000597962
0.000598044
0.000598049
0.000598137
0.00059817
0.000598279
0.000598334
0.00059846
0.000598514
0.000598643
0.00059871
0.000598855
0.000598928
0.000599088
0.000599173
0.000599356
0.000599453
0.000599659
0.000599768
0.000600004
0.000600122
0.000600412
0.000600527
0.000600916
0.000601202
0.000614993
0.000647228
0.00160153
0.00102343
0.000929753
0.000857679
0.000804251
0.000764867
0.000735402
0.000712901
0.000695319
0.000681327
0.000669981
0.000660664
0.000652898
0.00064637
0.000640815
0.00063606
0.00063195
0.000628379
0.000625256
0.000622506
0.000620079
0.000617918
0.000616001
0.000614272
0.000612731
0.000611331
0.000610081
0.000608927
0.0006079
0.000606941
0.000606094
0.00060529
0.000604579
0.000603907
0.000603315
0.000602738
0.000602235
0.000601744
0.000601326
0.000600905
0.000600548
0.000600191
0.000599897
0.000599583
0.000599326
0.000599071
0.00059885
0.000598617
0.00059843
0.000598233
0.000598085
0.000597933
0.000597807
0.000597665
0.000597562
0.000597455
0.00059735
0.000597264
0.000597183
0.000597086
0.000597038
0.000596954
0.000596911
0.000596821
0.000596795
0.000596734
0.000596785
0.000596831
0.00059688
0.00059688
0.00059696
0.000596964
0.000597052
0.000597083
0.000597191
0.000597245
0.00059737
0.000597423
0.000597551
0.000597617
0.000597761
0.000597833
0.000597991
0.000598076
0.000598257
0.000598354
0.000598559
0.000598666
0.0005989
0.000599017
0.000599306
0.000599419
0.000599807
0.000600099
0.000614412
0.000646339
0.00158663
0.00102344
0.000929769
0.000857625
0.000804085
0.000764583
0.000735008
0.000712412
0.000694749
0.000680689
0.000669285
0.00065992
0.000652112
0.000645547
0.000639962
0.000635179
0.000631045
0.000627453
0.000624312
0.000621544
0.000619102
0.000616928
0.000614999
0.000613259
0.000611709
0.000610299
0.000609041
0.000607879
0.000606845
0.00060588
0.000605027
0.000604218
0.000603502
0.000602825
0.000602228
0.000601648
0.00060114
0.000600646
0.000600224
0.000599801
0.000599441
0.00059908
0.000598784
0.000598468
0.000598208
0.000597951
0.000597728
0.000597493
0.000597304
0.000597106
0.000596956
0.000596802
0.000596675
0.000596531
0.000596427
0.000596319
0.000596212
0.000596125
0.000596043
0.000595945
0.000595896
0.000595812
0.000595768
0.000595677
0.00059565
0.000595586
0.000595636
0.00059568
0.000595726
0.000595726
0.000595804
0.000595807
0.000595894
0.000595924
0.000596031
0.000596084
0.000596207
0.000596259
0.000596386
0.000596451
0.000596594
0.000596665
0.000596822
0.000596905
0.000597085
0.000597181
0.000597384
0.000597491
0.000597723
0.000597839
0.000598126
0.000598237
0.000598624
0.000598923
0.000613792
0.000645383
0.00157011
0.00102346
0.000929785
0.000857568
0.000803912
0.000764284
0.000734592
0.000711895
0.000694145
0.000680014
0.000668548
0.000659131
0.000651278
0.000644675
0.000639056
0.000634244
0.000630084
0.00062647
0.000623308
0.000620523
0.000618065
0.000615877
0.000613934
0.000612183
0.000610622
0.000609203
0.000607936
0.000606766
0.000605724
0.000604752
0.000603893
0.000603078
0.000602356
0.000601674
0.000601073
0.000600488
0.000599977
0.000599478
0.000599053
0.000598627
0.000598264
0.0005979
0.0005976
0.000597282
0.00059702
0.00059676
0.000596535
0.000596299
0.000596108
0.000595907
0.000595755
0.000595599
0.000595471
0.000595325
0.000595219
0.00059511
0.000595003
0.000594913
0.000594831
0.000594732
0.000594682
0.000594596
0.000594552
0.000594461
0.000594432
0.000594366
0.000594414
0.000594456
0.000594498
0.000594498
0.000594574
0.000594576
0.000594662
0.000594691
0.000594796
0.000594848
0.00059497
0.000595021
0.000595147
0.000595211
0.000595352
0.000595423
0.000595578
0.000595661
0.000595839
0.000595934
0.000596135
0.000596241
0.000596471
0.000596586
0.000596871
0.00059698
0.000597366
0.000597673
0.000613131
0.000644358
0.00155205
0.00102347
0.000929803
0.00085751
0.00080373
0.000763969
0.000734154
0.00071135
0.000693509
0.0006793
0.000667769
0.000658296
0.000650396
0.000643752
0.000638097
0.000633254
0.000629067
0.000625429
0.000622246
0.000619441
0.000616967
0.000614763
0.000612807
0.000611043
0.00060947
0.000608041
0.000606764
0.000605586
0.000604536
0.000603557
0.000602691
0.00060187
0.000601142
0.000600455
0.000599849
0.000599259
0.000598744
0.000598241
0.000597812
0.000597382
0.000597015
0.000596648
0.000596346
0.000596025
0.00059576
0.000595497
0.000595271
0.000595031
0.000594838
0.000594636
0.000594482
0.000594324
0.000594194
0.000594047
0.000593939
0.000593828
0.00059372
0.000593629
0.000593546
0.000593445
0.000593394
0.000593308
0.000593263
0.000593171
0.000593141
0.000593071
0.000593118
0.000593158
0.000593197
0.000593196
0.00059327
0.000593272
0.000593356
0.000593383
0.000593487
0.000593538
0.000593658
0.000593708
0.000593833
0.000593896
0.000594036
0.000594106
0.000594259
0.000594341
0.000594517
0.000594611
0.00059481
0.000594915
0.000595143
0.000595257
0.00059554
0.000595647
0.000596031
0.000596347
0.000612425
0.000643256
0.00153254
0.00102349
0.000929822
0.00085745
0.000803541
0.00076364
0.000733694
0.000710777
0.000692839
0.000678549
0.000666949
0.000657416
0.000649465
0.000642778
0.000637085
0.00063221
0.000627993
0.00062433
0.000621123
0.000618299
0.000615806
0.000613586
0.000611615
0.000609838
0.000608253
0.000606812
0.000605526
0.000604339
0.00060328
0.000602293
0.00060142
0.000600592
0.000599859
0.000599165
0.000598554
0.000597959
0.000597439
0.000596932
0.000596499
0.000596065
0.000595695
0.000595325
0.000595019
0.000594695
0.000594427
0.000594161
0.000593933
0.000593691
0.000593496
0.000593291
0.000593135
0.000592975
0.000592843
0.000592694
0.000592585
0.000592472
0.000592363
0.00059227
0.000592187
0.000592084
0.000592032
0.000591944
0.000591899
0.000591806
0.000591775
0.000591702
0.000591746
0.000591785
0.00059182
0.000591819
0.00059189
0.000591891
0.000591974
0.000591999
0.000592102
0.000592152
0.000592271
0.00059232
0.000592442
0.000592504
0.000592643
0.000592712
0.000592864
0.000592944
0.000593118
0.000593211
0.000593409
0.000593512
0.000593739
0.000593851
0.000594132
0.000594237
0.000594619
0.000594945
0.000611668
0.000642076
0.00151166
0.00102351
0.000929842
0.000857389
0.000803344
0.000763296
0.000733213
0.000710176
0.000692136
0.000677759
0.000666086
0.000656491
0.000648486
0.000641753
0.00063602
0.000631109
0.000626862
0.000623171
0.000619941
0.000617095
0.000614583
0.000612345
0.000610359
0.000608568
0.00060697
0.000605517
0.00060422
0.000603023
0.000601956
0.00060096
0.000600079
0.000599245
0.000598505
0.000597805
0.000597188
0.000596588
0.000596063
0.000595551
0.000595114
0.000594676
0.000594302
0.000593928
0.000593619
0.000593292
0.000593021
0.000592752
0.000592521
0.000592277
0.00059208
0.000591872
0.000591714
0.000591551
0.000591418
0.000591267
0.000591155
0.000591041
0.000590931
0.000590836
0.000590752
0.000590647
0.000590594
0.000590505
0.000590459
0.000590365
0.000590333
0.000590258
0.000590299
0.000590336
0.000590367
0.000590366
0.000590434
0.000590434
0.000590516
0.000590539
0.000590641
0.000590688
0.000590806
0.000590854
0.000590975
0.000591036
0.000591173
0.000591241
0.000591391
0.00059147
0.000591642
0.000591734
0.00059193
0.000592032
0.000592256
0.000592367
0.000592645
0.000592748
0.000593129
0.000593465
0.000610853
0.000640813
0.0014895
0.00102352
0.000929864
0.000857326
0.00080314
0.000762938
0.000732711
0.000709548
0.0006914
0.000676932
0.000665181
0.00065552
0.000647459
0.000640676
0.000634901
0.000629953
0.000625673
0.000621953
0.000618697
0.000615829
0.000613296
0.00061104
0.000609037
0.000607231
0.00060562
0.000604155
0.000602846
0.000601639
0.000600562
0.000599558
0.000598668
0.000597826
0.000597079
0.000596373
0.00059575
0.000595145
0.000594615
0.000594098
0.000593656
0.000593213
0.000592836
0.000592457
0.000592145
0.000591814
0.00059154
0.000591268
0.000591035
0.000590788
0.000590588
0.000590378
0.000590217
0.000590052
0.000589917
0.000589764
0.00058965
0.000589534
0.000589423
0.000589325
0.000589241
0.000589135
0.00058908
0.00058899
0.000588943
0.000588848
0.000588815
0.000588736
0.000588776
0.00058881
0.000588837
0.000588836
0.0005889
0.0005889
0.00058898
0.000589002
0.000589101
0.000589148
0.000589264
0.00058931
0.000589429
0.000589489
0.000589624
0.000589691
0.000589839
0.000589917
0.000590087
0.000590178
0.000590371
0.000590472
0.000590694
0.000590804
0.00059108
0.000591181
0.000591559
0.000591906
0.000609971
0.000639464
0.00146617
0.00102354
0.000929887
0.000857261
0.000802929
0.000762566
0.000732187
0.000708892
0.000690631
0.000676067
0.000664234
0.000654504
0.000646382
0.000639548
0.000633727
0.00062874
0.000624426
0.000620676
0.000617393
0.0006145
0.000611945
0.00060967
0.000607649
0.000605828
0.000604202
0.000602724
0.000601403
0.000600185
0.000599098
0.000598084
0.000597186
0.000596336
0.000595582
0.000594868
0.000594239
0.000593628
0.000593093
0.00059257
0.000592124
0.000591676
0.000591295
0.000590912
0.000590595
0.000590262
0.000589984
0.000589709
0.000589472
0.000589223
0.00058902
0.000588807
0.000588644
0.000588476
0.000588339
0.000588184
0.000588068
0.00058795
0.000587837