/*--------------------------------*- C++ -*----------------------------------*\
| =========                 |                                                 |
| \\      /  F ield         | OpenFOAM: The Open Source CFD Toolbox           |
|  \\    /   O peration     | Version:  v2012                                 |
|   \\  /    A nd           | Website:  www.openfoam.com                      |
|    \\/     M anipulation  |                                                 |
\*---------------------------------------------------------------------------*/
FoamFile
{
    version     2.0;
    format      ascii;
    class       volScalarField;
    location    "31.5";
    object      nut;
}
// * * * * * * * * * * * * * * * * * * * * * * * * * * * * * * * * * * * * * //

dimensions      [0 2 -1 0 0 0 0];


internalField   nonuniform List<scalar> 
209825
(
1.2389e-07
1.22934e-07
1.22515e-07
1.22533e-07
1.22804e-07
1.23169e-07
1.23566e-07
1.23944e-07
1.24307e-07
1.24632e-07
1.24938e-07
1.25207e-07
1.25462e-07
1.25684e-07
1.25896e-07
1.2608e-07
1.26258e-07
1.26411e-07
1.26561e-07
1.2669e-07
1.26818e-07
1.26927e-07
1.27037e-07
1.2713e-07
1.27225e-07
1.27305e-07
1.27388e-07
1.27457e-07
1.27529e-07
1.2759e-07
1.27653e-07
1.27705e-07
1.27763e-07
1.2781e-07
1.2786e-07
1.27899e-07
1.27945e-07
1.27982e-07
1.28023e-07
1.28055e-07
1.28092e-07
1.28124e-07
1.28155e-07
1.28181e-07
1.28214e-07
1.28237e-07
1.28265e-07
1.28285e-07
1.28309e-07
1.2833e-07
1.28354e-07
1.28371e-07
1.28391e-07
1.28411e-07
1.28429e-07
1.28443e-07
1.28462e-07
1.28475e-07
1.28484e-07
1.28497e-07
1.28504e-07
1.28517e-07
1.28516e-07
1.28528e-07
1.2854e-07
1.28566e-07
1.28592e-07
1.28616e-07
1.28627e-07
1.28653e-07
1.28667e-07
1.28693e-07
1.28715e-07
1.28744e-07
1.28767e-07
1.28794e-07
1.28808e-07
1.28833e-07
1.28848e-07
1.28871e-07
1.28888e-07
1.28908e-07
1.28927e-07
1.28947e-07
1.28969e-07
1.2899e-07
1.2901e-07
1.29036e-07
1.29056e-07
1.29088e-07
1.29111e-07
1.29151e-07
1.29188e-07
1.30388e-07
1.34223e-07
1.44071e-08
1.2389e-07
1.22934e-07
1.22515e-07
1.22533e-07
1.22804e-07
1.23169e-07
1.23566e-07
1.23944e-07
1.24307e-07
1.24632e-07
1.24938e-07
1.25207e-07
1.25462e-07
1.25684e-07
1.25896e-07
1.2608e-07
1.26258e-07
1.26411e-07
1.26561e-07
1.2669e-07
1.26818e-07
1.26927e-07
1.27037e-07
1.2713e-07
1.27225e-07
1.27305e-07
1.27388e-07
1.27457e-07
1.27529e-07
1.2759e-07
1.27653e-07
1.27705e-07
1.27763e-07
1.2781e-07
1.2786e-07
1.27899e-07
1.27945e-07
1.27982e-07
1.28023e-07
1.28055e-07
1.28092e-07
1.28124e-07
1.28155e-07
1.28181e-07
1.28214e-07
1.28237e-07
1.28265e-07
1.28285e-07
1.28309e-07
1.2833e-07
1.28354e-07
1.28371e-07
1.28391e-07
1.28411e-07
1.28429e-07
1.28443e-07
1.28462e-07
1.28476e-07
1.28484e-07
1.28497e-07
1.28504e-07
1.28517e-07
1.28516e-07
1.28528e-07
1.2854e-07
1.28567e-07
1.28592e-07
1.28616e-07
1.28627e-07
1.28653e-07
1.28667e-07
1.28694e-07
1.28715e-07
1.28744e-07
1.28767e-07
1.28794e-07
1.28808e-07
1.28833e-07
1.28848e-07
1.28871e-07
1.28888e-07
1.28908e-07
1.28927e-07
1.28947e-07
1.28969e-07
1.2899e-07
1.29011e-07
1.29036e-07
1.29056e-07
1.29088e-07
1.29111e-07
1.29152e-07
1.29188e-07
1.3039e-07
1.34224e-07
1.48466e-08
1.2389e-07
1.22934e-07
1.22515e-07
1.22532e-07
1.22803e-07
1.23167e-07
1.23564e-07
1.23942e-07
1.24304e-07
1.24629e-07
1.24935e-07
1.25204e-07
1.25459e-07
1.25681e-07
1.25893e-07
1.26077e-07
1.26255e-07
1.26408e-07
1.26558e-07
1.26687e-07
1.26815e-07
1.26924e-07
1.27034e-07
1.27127e-07
1.27223e-07
1.27303e-07
1.27385e-07
1.27454e-07
1.27526e-07
1.27587e-07
1.2765e-07
1.27703e-07
1.2776e-07
1.27807e-07
1.27857e-07
1.27897e-07
1.27942e-07
1.27979e-07
1.2802e-07
1.28052e-07
1.28089e-07
1.28121e-07
1.28153e-07
1.28179e-07
1.28212e-07
1.28235e-07
1.28262e-07
1.28283e-07
1.28307e-07
1.28328e-07
1.28351e-07
1.28368e-07
1.28389e-07
1.28409e-07
1.28427e-07
1.2844e-07
1.28459e-07
1.28473e-07
1.28482e-07
1.28495e-07
1.28502e-07
1.28515e-07
1.28514e-07
1.28526e-07
1.28538e-07
1.28564e-07
1.2859e-07
1.28614e-07
1.28625e-07
1.28651e-07
1.28665e-07
1.28691e-07
1.28712e-07
1.28742e-07
1.28765e-07
1.28791e-07
1.28805e-07
1.2883e-07
1.28846e-07
1.28869e-07
1.28885e-07
1.28906e-07
1.28925e-07
1.28944e-07
1.28966e-07
1.28988e-07
1.29008e-07
1.29033e-07
1.29054e-07
1.29086e-07
1.29109e-07
1.29149e-07
1.29186e-07
1.30393e-07
1.34224e-07
1.53922e-08
1.23891e-07
1.22934e-07
1.22514e-07
1.22531e-07
1.228e-07
1.23164e-07
1.23561e-07
1.23938e-07
1.243e-07
1.24625e-07
1.24931e-07
1.252e-07
1.25455e-07
1.25677e-07
1.25889e-07
1.26073e-07
1.26251e-07
1.26404e-07
1.26554e-07
1.26683e-07
1.26811e-07
1.2692e-07
1.2703e-07
1.27123e-07
1.27219e-07
1.27299e-07
1.27381e-07
1.2745e-07
1.27522e-07
1.27583e-07
1.27647e-07
1.27699e-07
1.27756e-07
1.27803e-07
1.27853e-07
1.27893e-07
1.27938e-07
1.27976e-07
1.28017e-07
1.28049e-07
1.28086e-07
1.28118e-07
1.28149e-07
1.28175e-07
1.28208e-07
1.28231e-07
1.28258e-07
1.28279e-07
1.28303e-07
1.28324e-07
1.28348e-07
1.28365e-07
1.28385e-07
1.28405e-07
1.28423e-07
1.28437e-07
1.28456e-07
1.2847e-07
1.28478e-07
1.28491e-07
1.28498e-07
1.28511e-07
1.2851e-07
1.28522e-07
1.28534e-07
1.28561e-07
1.28586e-07
1.2861e-07
1.28621e-07
1.28647e-07
1.28661e-07
1.28687e-07
1.28709e-07
1.28738e-07
1.28761e-07
1.28788e-07
1.28802e-07
1.28827e-07
1.28842e-07
1.28865e-07
1.28882e-07
1.28902e-07
1.28921e-07
1.28941e-07
1.28963e-07
1.28984e-07
1.29005e-07
1.2903e-07
1.2905e-07
1.29082e-07
1.29105e-07
1.29145e-07
1.29182e-07
1.30396e-07
1.34225e-07
1.59975e-08
1.23891e-07
1.22934e-07
1.22513e-07
1.22528e-07
1.22797e-07
1.2316e-07
1.23556e-07
1.23933e-07
1.24295e-07
1.2462e-07
1.24926e-07
1.25195e-07
1.25449e-07
1.25671e-07
1.25884e-07
1.26067e-07
1.26245e-07
1.26399e-07
1.26549e-07
1.26678e-07
1.26806e-07
1.26915e-07
1.27025e-07
1.27118e-07
1.27213e-07
1.27293e-07
1.27376e-07
1.27445e-07
1.27517e-07
1.27578e-07
1.27641e-07
1.27694e-07
1.27751e-07
1.27798e-07
1.27848e-07
1.27888e-07
1.27933e-07
1.27971e-07
1.28012e-07
1.28044e-07
1.28081e-07
1.28113e-07
1.28144e-07
1.2817e-07
1.28203e-07
1.28226e-07
1.28254e-07
1.28274e-07
1.28298e-07
1.2832e-07
1.28343e-07
1.2836e-07
1.28381e-07
1.284e-07
1.28418e-07
1.28432e-07
1.28451e-07
1.28465e-07
1.28474e-07
1.28487e-07
1.28494e-07
1.28507e-07
1.28506e-07
1.28518e-07
1.2853e-07
1.28556e-07
1.28582e-07
1.28605e-07
1.28616e-07
1.28642e-07
1.28657e-07
1.28683e-07
1.28704e-07
1.28733e-07
1.28756e-07
1.28783e-07
1.28797e-07
1.28822e-07
1.28837e-07
1.2886e-07
1.28877e-07
1.28897e-07
1.28917e-07
1.28936e-07
1.28958e-07
1.28979e-07
1.29e-07
1.29025e-07
1.29046e-07
1.29078e-07
1.291e-07
1.29141e-07
1.29178e-07
1.30402e-07
1.34225e-07
1.66539e-08
1.23891e-07
1.22934e-07
1.22511e-07
1.22525e-07
1.22793e-07
1.23155e-07
1.2355e-07
1.23927e-07
1.24289e-07
1.24613e-07
1.24919e-07
1.25188e-07
1.25442e-07
1.25664e-07
1.25877e-07
1.2606e-07
1.26238e-07
1.26392e-07
1.26542e-07
1.26671e-07
1.26799e-07
1.26908e-07
1.27018e-07
1.27111e-07
1.27207e-07
1.27287e-07
1.27369e-07
1.27439e-07
1.27511e-07
1.27571e-07
1.27635e-07
1.27687e-07
1.27745e-07
1.27792e-07
1.27842e-07
1.27882e-07
1.27927e-07
1.27964e-07
1.28005e-07
1.28037e-07
1.28074e-07
1.28107e-07
1.28138e-07
1.28164e-07
1.28197e-07
1.2822e-07
1.28248e-07
1.28268e-07
1.28292e-07
1.28314e-07
1.28337e-07
1.28354e-07
1.28375e-07
1.28394e-07
1.28413e-07
1.28426e-07
1.28445e-07
1.28459e-07
1.28468e-07
1.28481e-07
1.28488e-07
1.28501e-07
1.285e-07
1.28512e-07
1.28524e-07
1.2855e-07
1.28576e-07
1.28599e-07
1.2861e-07
1.28636e-07
1.28651e-07
1.28677e-07
1.28698e-07
1.28727e-07
1.2875e-07
1.28777e-07
1.28791e-07
1.28816e-07
1.28831e-07
1.28855e-07
1.28871e-07
1.28892e-07
1.28911e-07
1.2893e-07
1.28952e-07
1.28974e-07
1.28994e-07
1.29019e-07
1.2904e-07
1.29072e-07
1.29095e-07
1.29135e-07
1.29172e-07
1.3041e-07
1.34226e-07
1.73597e-08
1.23891e-07
1.22934e-07
1.2251e-07
1.22522e-07
1.22788e-07
1.23149e-07
1.23543e-07
1.23919e-07
1.24281e-07
1.24605e-07
1.24911e-07
1.25179e-07
1.25434e-07
1.25656e-07
1.25868e-07
1.26052e-07
1.2623e-07
1.26383e-07
1.26534e-07
1.26662e-07
1.26791e-07
1.269e-07
1.2701e-07
1.27103e-07
1.27199e-07
1.27279e-07
1.27361e-07
1.27431e-07
1.27503e-07
1.27564e-07
1.27627e-07
1.27679e-07
1.27737e-07
1.27784e-07
1.27835e-07
1.27874e-07
1.2792e-07
1.27957e-07
1.27998e-07
1.2803e-07
1.28067e-07
1.28099e-07
1.28131e-07
1.28157e-07
1.2819e-07
1.28213e-07
1.2824e-07
1.28261e-07
1.28285e-07
1.28306e-07
1.2833e-07
1.28347e-07
1.28368e-07
1.28387e-07
1.28406e-07
1.28419e-07
1.28438e-07
1.28452e-07
1.28461e-07
1.28474e-07
1.28481e-07
1.28494e-07
1.28493e-07
1.28505e-07
1.28517e-07
1.28543e-07
1.28569e-07
1.28592e-07
1.28603e-07
1.28629e-07
1.28644e-07
1.2867e-07
1.28691e-07
1.2872e-07
1.28743e-07
1.2877e-07
1.28784e-07
1.28809e-07
1.28825e-07
1.28848e-07
1.28864e-07
1.28885e-07
1.28904e-07
1.28924e-07
1.28945e-07
1.28967e-07
1.28987e-07
1.29012e-07
1.29033e-07
1.29065e-07
1.29088e-07
1.29128e-07
1.29165e-07
1.30419e-07
1.34227e-07
1.81152e-08
1.23892e-07
1.22934e-07
1.22507e-07
1.22518e-07
1.22782e-07
1.23141e-07
1.23535e-07
1.2391e-07
1.24271e-07
1.24595e-07
1.24901e-07
1.25169e-07
1.25424e-07
1.25646e-07
1.25858e-07
1.26042e-07
1.2622e-07
1.26373e-07
1.26524e-07
1.26653e-07
1.26781e-07
1.2689e-07
1.27001e-07
1.27094e-07
1.27189e-07
1.2727e-07
1.27352e-07
1.27421e-07
1.27494e-07
1.27555e-07
1.27618e-07
1.27671e-07
1.27728e-07
1.27775e-07
1.27826e-07
1.27866e-07
1.27911e-07
1.27948e-07
1.27989e-07
1.28021e-07
1.28059e-07
1.28091e-07
1.28122e-07
1.28148e-07
1.28181e-07
1.28205e-07
1.28232e-07
1.28253e-07
1.28277e-07
1.28298e-07
1.28322e-07
1.28339e-07
1.28359e-07
1.28379e-07
1.28397e-07
1.28411e-07
1.2843e-07
1.28444e-07
1.28453e-07
1.28466e-07
1.28473e-07
1.28486e-07
1.28485e-07
1.28497e-07
1.28509e-07
1.28535e-07
1.28561e-07
1.28584e-07
1.28595e-07
1.28621e-07
1.28635e-07
1.28661e-07
1.28683e-07
1.28712e-07
1.28735e-07
1.28762e-07
1.28776e-07
1.28801e-07
1.28816e-07
1.2884e-07
1.28856e-07
1.28877e-07
1.28896e-07
1.28916e-07
1.28937e-07
1.28959e-07
1.28979e-07
1.29004e-07
1.29025e-07
1.29057e-07
1.2908e-07
1.2912e-07
1.29157e-07
1.30431e-07
1.34229e-07
1.89212e-08
1.23892e-07
1.22933e-07
1.22505e-07
1.22513e-07
1.22775e-07
1.23133e-07
1.23525e-07
1.239e-07
1.24261e-07
1.24584e-07
1.24889e-07
1.25158e-07
1.25412e-07
1.25634e-07
1.25847e-07
1.2603e-07
1.26209e-07
1.26362e-07
1.26513e-07
1.26641e-07
1.2677e-07
1.26879e-07
1.2699e-07
1.27083e-07
1.27179e-07
1.27259e-07
1.27341e-07
1.27411e-07
1.27483e-07
1.27544e-07
1.27608e-07
1.2766e-07
1.27718e-07
1.27765e-07
1.27816e-07
1.27855e-07
1.27901e-07
1.27938e-07
1.27979e-07
1.28012e-07
1.28049e-07
1.28081e-07
1.28113e-07
1.28138e-07
1.28172e-07
1.28195e-07
1.28223e-07
1.28243e-07
1.28267e-07
1.28289e-07
1.28312e-07
1.28329e-07
1.2835e-07
1.2837e-07
1.28388e-07
1.28402e-07
1.28421e-07
1.28435e-07
1.28444e-07
1.28457e-07
1.28464e-07
1.28477e-07
1.28477e-07
1.28488e-07
1.285e-07
1.28526e-07
1.28552e-07
1.28575e-07
1.28586e-07
1.28612e-07
1.28626e-07
1.28652e-07
1.28673e-07
1.28702e-07
1.28726e-07
1.28752e-07
1.28767e-07
1.28792e-07
1.28807e-07
1.2883e-07
1.28847e-07
1.28868e-07
1.28887e-07
1.28907e-07
1.28928e-07
1.2895e-07
1.2897e-07
1.28995e-07
1.29016e-07
1.29048e-07
1.2907e-07
1.2911e-07
1.29148e-07
1.30446e-07
1.34231e-07
1.97783e-08
1.23893e-07
1.22933e-07
1.22502e-07
1.22507e-07
1.22767e-07
1.23123e-07
1.23514e-07
1.23888e-07
1.24248e-07
1.24571e-07
1.24876e-07
1.25145e-07
1.25399e-07
1.25621e-07
1.25833e-07
1.26017e-07
1.26196e-07
1.26349e-07
1.265e-07
1.26629e-07
1.26757e-07
1.26867e-07
1.26977e-07
1.27071e-07
1.27166e-07
1.27247e-07
1.27329e-07
1.27399e-07
1.27471e-07
1.27532e-07
1.27596e-07
1.27648e-07
1.27707e-07
1.27754e-07
1.27804e-07
1.27844e-07
1.27889e-07
1.27927e-07
1.27968e-07
1.28e-07
1.28038e-07
1.2807e-07
1.28102e-07
1.28127e-07
1.28161e-07
1.28184e-07
1.28212e-07
1.28232e-07
1.28257e-07
1.28278e-07
1.28301e-07
1.28319e-07
1.28339e-07
1.28359e-07
1.28378e-07
1.28392e-07
1.28411e-07
1.28425e-07
1.28434e-07
1.28447e-07
1.28454e-07
1.28467e-07
1.28466e-07
1.28478e-07
1.28489e-07
1.28516e-07
1.28541e-07
1.28564e-07
1.28575e-07
1.28601e-07
1.28615e-07
1.28641e-07
1.28662e-07
1.28692e-07
1.28715e-07
1.28742e-07
1.28756e-07
1.28781e-07
1.28797e-07
1.2882e-07
1.28836e-07
1.28857e-07
1.28876e-07
1.28896e-07
1.28918e-07
1.28939e-07
1.2896e-07
1.28985e-07
1.29006e-07
1.29037e-07
1.2906e-07
1.291e-07
1.29138e-07
1.30463e-07
1.34234e-07
2.06866e-08
1.23893e-07
1.22933e-07
1.22499e-07
1.22501e-07
1.22758e-07
1.23112e-07
1.23502e-07
1.23875e-07
1.24234e-07
1.24557e-07
1.24862e-07
1.2513e-07
1.25385e-07
1.25606e-07
1.25819e-07
1.26003e-07
1.26181e-07
1.26335e-07
1.26485e-07
1.26614e-07
1.26743e-07
1.26853e-07
1.26963e-07
1.27057e-07
1.27153e-07
1.27233e-07
1.27316e-07
1.27385e-07
1.27458e-07
1.27519e-07
1.27583e-07
1.27635e-07
1.27694e-07
1.27741e-07
1.27791e-07
1.27831e-07
1.27877e-07
1.27914e-07
1.27956e-07
1.27988e-07
1.28025e-07
1.28058e-07
1.28089e-07
1.28115e-07
1.28149e-07
1.28172e-07
1.282e-07
1.2822e-07
1.28245e-07
1.28266e-07
1.2829e-07
1.28307e-07
1.28328e-07
1.28348e-07
1.28366e-07
1.2838e-07
1.28399e-07
1.28413e-07
1.28422e-07
1.28435e-07
1.28443e-07
1.28456e-07
1.28455e-07
1.28467e-07
1.28478e-07
1.28504e-07
1.2853e-07
1.28552e-07
1.28564e-07
1.28589e-07
1.28604e-07
1.2863e-07
1.28651e-07
1.2868e-07
1.28703e-07
1.2873e-07
1.28744e-07
1.2877e-07
1.28785e-07
1.28808e-07
1.28825e-07
1.28846e-07
1.28865e-07
1.28885e-07
1.28906e-07
1.28928e-07
1.28948e-07
1.28973e-07
1.28994e-07
1.29026e-07
1.29048e-07
1.29088e-07
1.29127e-07
1.30484e-07
1.34238e-07
2.16446e-08
1.23894e-07
1.22933e-07
1.22496e-07
1.22494e-07
1.22748e-07
1.231e-07
1.23488e-07
1.2386e-07
1.24219e-07
1.24541e-07
1.24846e-07
1.25114e-07
1.25368e-07
1.2559e-07
1.25802e-07
1.25986e-07
1.26165e-07
1.26319e-07
1.26469e-07
1.26599e-07
1.26727e-07
1.26837e-07
1.26948e-07
1.27041e-07
1.27137e-07
1.27218e-07
1.27301e-07
1.27371e-07
1.27443e-07
1.27504e-07
1.27568e-07
1.27621e-07
1.27679e-07
1.27726e-07
1.27777e-07
1.27817e-07
1.27863e-07
1.279e-07
1.27942e-07
1.27974e-07
1.28011e-07
1.28044e-07
1.28076e-07
1.28102e-07
1.28135e-07
1.28158e-07
1.28186e-07
1.28207e-07
1.28231e-07
1.28253e-07
1.28276e-07
1.28294e-07
1.28314e-07
1.28334e-07
1.28353e-07
1.28367e-07
1.28386e-07
1.284e-07
1.28409e-07
1.28423e-07
1.2843e-07
1.28443e-07
1.28443e-07
1.28454e-07
1.28465e-07
1.28491e-07
1.28517e-07
1.28539e-07
1.28551e-07
1.28576e-07
1.2859e-07
1.28616e-07
1.28637e-07
1.28666e-07
1.28689e-07
1.28717e-07
1.28731e-07
1.28757e-07
1.28772e-07
1.28796e-07
1.28812e-07
1.28833e-07
1.28852e-07
1.28872e-07
1.28894e-07
1.28915e-07
1.28936e-07
1.2896e-07
1.28981e-07
1.29013e-07
1.29035e-07
1.29075e-07
1.29114e-07
1.30507e-07
1.34241e-07
2.26514e-08
1.23894e-07
1.22932e-07
1.22493e-07
1.22486e-07
1.22737e-07
1.23086e-07
1.23473e-07
1.23844e-07
1.24202e-07
1.24524e-07
1.24828e-07
1.25096e-07
1.2535e-07
1.25572e-07
1.25784e-07
1.25968e-07
1.26147e-07
1.26301e-07
1.26452e-07
1.26581e-07
1.2671e-07
1.2682e-07
1.26931e-07
1.27024e-07
1.27121e-07
1.27201e-07
1.27284e-07
1.27354e-07
1.27427e-07
1.27488e-07
1.27552e-07
1.27605e-07
1.27663e-07
1.27711e-07
1.27761e-07
1.27802e-07
1.27847e-07
1.27885e-07
1.27926e-07
1.27959e-07
1.27996e-07
1.28029e-07
1.28061e-07
1.28087e-07
1.2812e-07
1.28144e-07
1.28171e-07
1.28192e-07
1.28217e-07
1.28238e-07
1.28262e-07
1.28279e-07
1.283e-07
1.2832e-07
1.28339e-07
1.28353e-07
1.28372e-07
1.28386e-07
1.28395e-07
1.28409e-07
1.28416e-07
1.28429e-07
1.28429e-07
1.28441e-07
1.28451e-07
1.28477e-07
1.28503e-07
1.28525e-07
1.28536e-07
1.28562e-07
1.28576e-07
1.28602e-07
1.28623e-07
1.28652e-07
1.28675e-07
1.28702e-07
1.28717e-07
1.28742e-07
1.28758e-07
1.28781e-07
1.28798e-07
1.28819e-07
1.28838e-07
1.28858e-07
1.28879e-07
1.28901e-07
1.28922e-07
1.28946e-07
1.28967e-07
1.28999e-07
1.29021e-07
1.29061e-07
1.291e-07
1.30533e-07
1.34245e-07
2.37097e-08
1.23895e-07
1.22932e-07
1.22489e-07
1.22478e-07
1.22725e-07
1.23072e-07
1.23456e-07
1.23826e-07
1.24183e-07
1.24504e-07
1.24808e-07
1.25076e-07
1.2533e-07
1.25552e-07
1.25765e-07
1.25949e-07
1.26128e-07
1.26281e-07
1.26433e-07
1.26562e-07
1.26691e-07
1.26801e-07
1.26912e-07
1.27006e-07
1.27102e-07
1.27183e-07
1.27266e-07
1.27336e-07
1.27409e-07
1.2747e-07
1.27535e-07
1.27587e-07
1.27646e-07
1.27693e-07
1.27744e-07
1.27784e-07
1.2783e-07
1.27868e-07
1.2791e-07
1.27942e-07
1.2798e-07
1.28012e-07
1.28044e-07
1.2807e-07
1.28104e-07
1.28127e-07
1.28155e-07
1.28176e-07
1.28201e-07
1.28222e-07
1.28246e-07
1.28263e-07
1.28284e-07
1.28304e-07
1.28323e-07
1.28337e-07
1.28356e-07
1.28371e-07
1.2838e-07
1.28393e-07
1.28401e-07
1.28414e-07
1.28414e-07
1.28425e-07
1.28435e-07
1.28461e-07
1.28487e-07
1.28509e-07
1.28521e-07
1.28546e-07
1.2856e-07
1.28586e-07
1.28607e-07
1.28636e-07
1.28659e-07
1.28686e-07
1.28701e-07
1.28727e-07
1.28742e-07
1.28766e-07
1.28782e-07
1.28804e-07
1.28822e-07
1.28843e-07
1.28864e-07
1.28885e-07
1.28906e-07
1.28931e-07
1.28952e-07
1.28983e-07
1.29006e-07
1.29045e-07
1.29085e-07
1.30563e-07
1.3425e-07
2.48226e-08
1.23896e-07
1.22932e-07
1.22484e-07
1.22469e-07
1.22712e-07
1.23056e-07
1.23438e-07
1.23807e-07
1.24163e-07
1.24484e-07
1.24787e-07
1.25055e-07
1.25309e-07
1.25531e-07
1.25743e-07
1.25927e-07
1.26106e-07
1.2626e-07
1.26412e-07
1.26541e-07
1.2667e-07
1.26781e-07
1.26892e-07
1.26986e-07
1.27082e-07
1.27163e-07
1.27246e-07
1.27317e-07
1.2739e-07
1.27451e-07
1.27516e-07
1.27568e-07
1.27627e-07
1.27675e-07
1.27726e-07
1.27766e-07
1.27812e-07
1.2785e-07
1.27891e-07
1.27924e-07
1.27962e-07
1.27994e-07
1.28026e-07
1.28052e-07
1.28086e-07
1.2811e-07
1.28138e-07
1.28159e-07
1.28183e-07
1.28205e-07
1.28229e-07
1.28246e-07
1.28267e-07
1.28287e-07
1.28306e-07
1.2832e-07
1.28339e-07
1.28354e-07
1.28363e-07
1.28377e-07
1.28384e-07
1.28397e-07
1.28398e-07
1.28409e-07
1.28419e-07
1.28445e-07
1.28471e-07
1.28492e-07
1.28504e-07
1.28529e-07
1.28543e-07
1.28569e-07
1.2859e-07
1.28618e-07
1.28641e-07
1.28669e-07
1.28684e-07
1.2871e-07
1.28725e-07
1.28749e-07
1.28765e-07
1.28787e-07
1.28806e-07
1.28826e-07
1.28847e-07
1.28869e-07
1.2889e-07
1.28914e-07
1.28935e-07
1.28967e-07
1.28989e-07
1.29028e-07
1.29069e-07
1.30596e-07
1.34254e-07
2.59935e-08
1.23897e-07
1.22932e-07
1.2248e-07
1.2246e-07
1.22698e-07
1.23039e-07
1.23419e-07
1.23786e-07
1.24141e-07
1.24461e-07
1.24764e-07
1.25032e-07
1.25286e-07
1.25507e-07
1.2572e-07
1.25904e-07
1.26083e-07
1.26237e-07
1.26389e-07
1.26518e-07
1.26648e-07
1.26758e-07
1.2687e-07
1.26964e-07
1.2706e-07
1.27141e-07
1.27225e-07
1.27295e-07
1.27369e-07
1.2743e-07
1.27495e-07
1.27548e-07
1.27607e-07
1.27654e-07
1.27706e-07
1.27746e-07
1.27792e-07
1.2783e-07
1.27872e-07
1.27904e-07
1.27942e-07
1.27975e-07
1.28007e-07
1.28033e-07
1.28067e-07
1.28091e-07
1.28119e-07
1.2814e-07
1.28164e-07
1.28186e-07
1.2821e-07
1.28228e-07
1.28249e-07
1.28269e-07
1.28287e-07
1.28302e-07
1.28321e-07
1.28336e-07
1.28345e-07
1.28359e-07
1.28366e-07
1.2838e-07
1.2838e-07
1.28391e-07
1.28401e-07
1.28427e-07
1.28453e-07
1.28473e-07
1.28486e-07
1.28511e-07
1.28525e-07
1.28551e-07
1.28571e-07
1.286e-07
1.28622e-07
1.2865e-07
1.28666e-07
1.28691e-07
1.28707e-07
1.28731e-07
1.28747e-07
1.28769e-07
1.28788e-07
1.28808e-07
1.28829e-07
1.28851e-07
1.28872e-07
1.28896e-07
1.28917e-07
1.28949e-07
1.28971e-07
1.2901e-07
1.29051e-07
1.30633e-07
1.34258e-07
2.72259e-08
1.23898e-07
1.22931e-07
1.22475e-07
1.22449e-07
1.22683e-07
1.2302e-07
1.23398e-07
1.23763e-07
1.24117e-07
1.24437e-07
1.24739e-07
1.25007e-07
1.2526e-07
1.25482e-07
1.25695e-07
1.25879e-07
1.26058e-07
1.26213e-07
1.26364e-07
1.26494e-07
1.26624e-07
1.26734e-07
1.26846e-07
1.2694e-07
1.27037e-07
1.27118e-07
1.27202e-07
1.27273e-07
1.27346e-07
1.27408e-07
1.27473e-07
1.27526e-07
1.27585e-07
1.27632e-07
1.27684e-07
1.27724e-07
1.2777e-07
1.27808e-07
1.2785e-07
1.27883e-07
1.27921e-07
1.27954e-07
1.27986e-07
1.28012e-07
1.28046e-07
1.2807e-07
1.28098e-07
1.2812e-07
1.28144e-07
1.28166e-07
1.2819e-07
1.28208e-07
1.28229e-07
1.28249e-07
1.28268e-07
1.28282e-07
1.28301e-07
1.28316e-07
1.28326e-07
1.28339e-07
1.28347e-07
1.2836e-07
1.28361e-07
1.28372e-07
1.28381e-07
1.28407e-07
1.28433e-07
1.28453e-07
1.28466e-07
1.28491e-07
1.28505e-07
1.28531e-07
1.28551e-07
1.2858e-07
1.28602e-07
1.2863e-07
1.28646e-07
1.28671e-07
1.28687e-07
1.28712e-07
1.28727e-07
1.2875e-07
1.28768e-07
1.28789e-07
1.2881e-07
1.28831e-07
1.28852e-07
1.28877e-07
1.28898e-07
1.28929e-07
1.28951e-07
1.2899e-07
1.29032e-07
1.30674e-07
1.34261e-07
2.85235e-08
1.23899e-07
1.22931e-07
1.2247e-07
1.22438e-07
1.22667e-07
1.23001e-07
1.23376e-07
1.23739e-07
1.24092e-07
1.24411e-07
1.24713e-07
1.2498e-07
1.25234e-07
1.25455e-07
1.25668e-07
1.25852e-07
1.26032e-07
1.26186e-07
1.26338e-07
1.26468e-07
1.26598e-07
1.26709e-07
1.2682e-07
1.26915e-07
1.27012e-07
1.27093e-07
1.27177e-07
1.27248e-07
1.27322e-07
1.27383e-07
1.27449e-07
1.27502e-07
1.27561e-07
1.27609e-07
1.2766e-07
1.27701e-07
1.27747e-07
1.27785e-07
1.27828e-07
1.2786e-07
1.27898e-07
1.27931e-07
1.27964e-07
1.2799e-07
1.28024e-07
1.28048e-07
1.28076e-07
1.28098e-07
1.28122e-07
1.28144e-07
1.28168e-07
1.28186e-07
1.28207e-07
1.28227e-07
1.28246e-07
1.28261e-07
1.2828e-07
1.28295e-07
1.28305e-07
1.28319e-07
1.28326e-07
1.2834e-07
1.28341e-07
1.28352e-07
1.2836e-07
1.28386e-07
1.28412e-07
1.28432e-07
1.28445e-07
1.28469e-07
1.28484e-07
1.28509e-07
1.28529e-07
1.28558e-07
1.2858e-07
1.28609e-07
1.28624e-07
1.2865e-07
1.28666e-07
1.2869e-07
1.28706e-07
1.28729e-07
1.28747e-07
1.28768e-07
1.28789e-07
1.2881e-07
1.28832e-07
1.28856e-07
1.28877e-07
1.28908e-07
1.2893e-07
1.28969e-07
1.29012e-07
1.30718e-07
1.34263e-07
2.98901e-08
1.239e-07
1.22931e-07
1.22465e-07
1.22427e-07
1.2265e-07
1.2298e-07
1.23352e-07
1.23713e-07
1.24065e-07
1.24383e-07
1.24685e-07
1.24951e-07
1.25205e-07
1.25426e-07
1.25639e-07
1.25824e-07
1.26003e-07
1.26158e-07
1.2631e-07
1.2644e-07
1.2657e-07
1.26681e-07
1.26793e-07
1.26888e-07
1.26985e-07
1.27067e-07
1.27151e-07
1.27222e-07
1.27296e-07
1.27358e-07
1.27423e-07
1.27476e-07
1.27536e-07
1.27584e-07
1.27635e-07
1.27676e-07
1.27723e-07
1.27761e-07
1.27803e-07
1.27836e-07
1.27874e-07
1.27907e-07
1.2794e-07
1.27966e-07
1.28e-07
1.28024e-07
1.28053e-07
1.28074e-07
1.28099e-07
1.28121e-07
1.28145e-07
1.28163e-07
1.28184e-07
1.28204e-07
1.28223e-07
1.28238e-07
1.28257e-07
1.28272e-07
1.28282e-07
1.28296e-07
1.28304e-07
1.28318e-07
1.28319e-07
1.2833e-07
1.28338e-07
1.28364e-07
1.2839e-07
1.28409e-07
1.28422e-07
1.28447e-07
1.28461e-07
1.28486e-07
1.28506e-07
1.28535e-07
1.28557e-07
1.28586e-07
1.28601e-07
1.28627e-07
1.28643e-07
1.28668e-07
1.28684e-07
1.28706e-07
1.28724e-07
1.28746e-07
1.28767e-07
1.28788e-07
1.28809e-07
1.28834e-07
1.28855e-07
1.28886e-07
1.28908e-07
1.28947e-07
1.2899e-07
1.30766e-07
1.34264e-07
3.13297e-08
1.23901e-07
1.22931e-07
1.22459e-07
1.22414e-07
1.22632e-07
1.22957e-07
1.23327e-07
1.23686e-07
1.24036e-07
1.24353e-07
1.24654e-07
1.2492e-07
1.25174e-07
1.25395e-07
1.25608e-07
1.25793e-07
1.25973e-07
1.26127e-07
1.2628e-07
1.2641e-07
1.26541e-07
1.26652e-07
1.26764e-07
1.26859e-07
1.26956e-07
1.27038e-07
1.27123e-07
1.27194e-07
1.27268e-07
1.2733e-07
1.27396e-07
1.27449e-07
1.27508e-07
1.27557e-07
1.27609e-07
1.2765e-07
1.27696e-07
1.27735e-07
1.27777e-07
1.2781e-07
1.27848e-07
1.27881e-07
1.27914e-07
1.27941e-07
1.27975e-07
1.27999e-07
1.28028e-07
1.28049e-07
1.28074e-07
1.28096e-07
1.2812e-07
1.28138e-07
1.2816e-07
1.2818e-07
1.28199e-07
1.28214e-07
1.28233e-07
1.28248e-07
1.28258e-07
1.28272e-07
1.2828e-07
1.28294e-07
1.28296e-07
1.28307e-07
1.28314e-07
1.2834e-07
1.28366e-07
1.28385e-07
1.28398e-07
1.28422e-07
1.28436e-07
1.28462e-07
1.28482e-07
1.2851e-07
1.28532e-07
1.28561e-07
1.28577e-07
1.28603e-07
1.28619e-07
1.28644e-07
1.2866e-07
1.28682e-07
1.287e-07
1.28722e-07
1.28743e-07
1.28764e-07
1.28786e-07
1.2881e-07
1.28831e-07
1.28862e-07
1.28884e-07
1.28922e-07
1.28967e-07
1.30817e-07
1.34263e-07
3.28463e-08
1.23902e-07
1.2293e-07
1.22453e-07
1.22402e-07
1.22613e-07
1.22934e-07
1.233e-07
1.23657e-07
1.24006e-07
1.24321e-07
1.24622e-07
1.24888e-07
1.25141e-07
1.25363e-07
1.25576e-07
1.2576e-07
1.2594e-07
1.26095e-07
1.26248e-07
1.26378e-07
1.26509e-07
1.2662e-07
1.26733e-07
1.26828e-07
1.26926e-07
1.27008e-07
1.27093e-07
1.27164e-07
1.27238e-07
1.273e-07
1.27366e-07
1.2742e-07
1.2748e-07
1.27528e-07
1.2758e-07
1.27621e-07
1.27668e-07
1.27707e-07
1.27749e-07
1.27782e-07
1.27821e-07
1.27854e-07
1.27887e-07
1.27914e-07
1.27948e-07
1.27972e-07
1.28001e-07
1.28023e-07
1.28048e-07
1.2807e-07
1.28094e-07
1.28112e-07
1.28133e-07
1.28154e-07
1.28173e-07
1.28188e-07
1.28207e-07
1.28223e-07
1.28233e-07
1.28247e-07
1.28255e-07
1.28269e-07
1.28271e-07
1.28282e-07
1.28289e-07
1.28315e-07
1.28341e-07
1.28359e-07
1.28373e-07
1.28396e-07
1.28411e-07
1.28436e-07
1.28456e-07
1.28484e-07
1.28506e-07
1.28535e-07
1.28551e-07
1.28577e-07
1.28593e-07
1.28618e-07
1.28634e-07
1.28657e-07
1.28675e-07
1.28697e-07
1.28717e-07
1.28739e-07
1.2876e-07
1.28784e-07
1.28805e-07
1.28837e-07
1.28858e-07
1.28897e-07
1.28943e-07
1.30872e-07
1.34259e-07
3.44438e-08
1.23903e-07
1.2293e-07
1.22447e-07
1.22388e-07
1.22593e-07
1.22909e-07
1.23272e-07
1.23626e-07
1.23973e-07
1.24288e-07
1.24588e-07
1.24853e-07
1.25107e-07
1.25328e-07
1.25541e-07
1.25726e-07
1.25906e-07
1.26061e-07
1.26214e-07
1.26345e-07
1.26476e-07
1.26587e-07
1.267e-07
1.26795e-07
1.26893e-07
1.26976e-07
1.27061e-07
1.27132e-07
1.27207e-07
1.27269e-07
1.27335e-07
1.27389e-07
1.27449e-07
1.27498e-07
1.2755e-07
1.27591e-07
1.27638e-07
1.27677e-07
1.2772e-07
1.27753e-07
1.27791e-07
1.27825e-07
1.27858e-07
1.27885e-07
1.27919e-07
1.27944e-07
1.27972e-07
1.27994e-07
1.28019e-07
1.28041e-07
1.28066e-07
1.28084e-07
1.28106e-07
1.28126e-07
1.28146e-07
1.28161e-07
1.2818e-07
1.28196e-07
1.28206e-07
1.2822e-07
1.28228e-07
1.28242e-07
1.28244e-07
1.28255e-07
1.28262e-07
1.28288e-07
1.28314e-07
1.28332e-07
1.28345e-07
1.28369e-07
1.28383e-07
1.28408e-07
1.28428e-07
1.28456e-07
1.28478e-07
1.28507e-07
1.28523e-07
1.28549e-07
1.28565e-07
1.28591e-07
1.28607e-07
1.2863e-07
1.28648e-07
1.2867e-07
1.2869e-07
1.28712e-07
1.28733e-07
1.28758e-07
1.28779e-07
1.2881e-07
1.28831e-07
1.28869e-07
1.28917e-07
1.30931e-07
1.31102e-07
3.61261e-08
1.23904e-07
1.2293e-07
1.2244e-07
1.22374e-07
1.22572e-07
1.22882e-07
1.23242e-07
1.23594e-07
1.23939e-07
1.24253e-07
1.24552e-07
1.24817e-07
1.2507e-07
1.25291e-07
1.25504e-07
1.25689e-07
1.25869e-07
1.26025e-07
1.26178e-07
1.26309e-07
1.2644e-07
1.26552e-07
1.26665e-07
1.26761e-07
1.26859e-07
1.26941e-07
1.27027e-07
1.27098e-07
1.27173e-07
1.27236e-07
1.27302e-07
1.27356e-07
1.27417e-07
1.27465e-07
1.27518e-07
1.27559e-07
1.27607e-07
1.27645e-07
1.27688e-07
1.27722e-07
1.27761e-07
1.27794e-07
1.27828e-07
1.27854e-07
1.27889e-07
1.27913e-07
1.27942e-07
1.27964e-07
1.2799e-07
1.28012e-07
1.28036e-07
1.28055e-07
1.28076e-07
1.28097e-07
1.28117e-07
1.28132e-07
1.28151e-07
1.28167e-07
1.28177e-07
1.28192e-07
1.282e-07
1.28214e-07
1.28217e-07
1.28227e-07
1.28234e-07
1.28259e-07
1.28285e-07
1.28303e-07
1.28317e-07
1.2834e-07
1.28354e-07
1.28379e-07
1.28398e-07
1.28427e-07
1.28448e-07
1.28477e-07
1.28494e-07
1.2852e-07
1.28536e-07
1.28562e-07
1.28578e-07
1.28601e-07
1.28619e-07
1.28641e-07
1.28661e-07
1.28683e-07
1.28705e-07
1.28729e-07
1.2875e-07
1.28781e-07
1.28802e-07
1.2884e-07
1.28889e-07
1.30992e-07
1.25518e-07
3.78965e-08
1.23905e-07
1.2293e-07
1.22434e-07
1.22359e-07
1.2255e-07
1.22855e-07
1.2321e-07
1.23559e-07
1.23903e-07
1.24215e-07
1.24514e-07
1.24778e-07
1.25031e-07
1.25252e-07
1.25465e-07
1.2565e-07
1.25831e-07
1.25986e-07
1.2614e-07
1.26271e-07
1.26403e-07
1.26514e-07
1.26628e-07
1.26724e-07
1.26823e-07
1.26905e-07
1.26991e-07
1.27063e-07
1.27138e-07
1.27201e-07
1.27268e-07
1.27322e-07
1.27382e-07
1.27431e-07
1.27484e-07
1.27526e-07
1.27573e-07
1.27612e-07
1.27655e-07
1.27689e-07
1.27728e-07
1.27761e-07
1.27795e-07
1.27822e-07
1.27857e-07
1.27881e-07
1.27911e-07
1.27933e-07
1.27958e-07
1.2798e-07
1.28005e-07
1.28024e-07
1.28045e-07
1.28066e-07
1.28086e-07
1.28101e-07
1.2812e-07
1.28136e-07
1.28147e-07
1.28162e-07
1.2817e-07
1.28184e-07
1.28187e-07
1.28198e-07
1.28204e-07
1.28229e-07
1.28255e-07
1.28272e-07
1.28286e-07
1.28309e-07
1.28323e-07
1.28348e-07
1.28367e-07
1.28395e-07
1.28417e-07
1.28446e-07
1.28462e-07
1.28489e-07
1.28505e-07
1.28531e-07
1.28547e-07
1.28571e-07
1.28589e-07
1.28611e-07
1.28631e-07
1.28653e-07
1.28675e-07
1.28699e-07
1.2872e-07
1.28751e-07
1.28772e-07
1.2881e-07
1.2886e-07
1.31055e-07
1.20515e-07
3.9758e-08
1.23907e-07
1.2293e-07
1.22427e-07
1.22344e-07
1.22527e-07
1.22826e-07
1.23177e-07
1.23523e-07
1.23865e-07
1.24176e-07
1.24474e-07
1.24737e-07
1.2499e-07
1.25211e-07
1.25424e-07
1.25609e-07
1.2579e-07
1.25946e-07
1.261e-07
1.26231e-07
1.26363e-07
1.26475e-07
1.26589e-07
1.26685e-07
1.26784e-07
1.26867e-07
1.26953e-07
1.27025e-07
1.27101e-07
1.27164e-07
1.27231e-07
1.27285e-07
1.27346e-07
1.27395e-07
1.27448e-07
1.2749e-07
1.27538e-07
1.27577e-07
1.2762e-07
1.27654e-07
1.27693e-07
1.27727e-07
1.27761e-07
1.27788e-07
1.27823e-07
1.27848e-07
1.27877e-07
1.27899e-07
1.27925e-07
1.27947e-07
1.27972e-07
1.27991e-07
1.28012e-07
1.28033e-07
1.28053e-07
1.28068e-07
1.28088e-07
1.28104e-07
1.28115e-07
1.2813e-07
1.28138e-07
1.28153e-07
1.28156e-07
1.28166e-07
1.28172e-07
1.28197e-07
1.28223e-07
1.2824e-07
1.28254e-07
1.28276e-07
1.28291e-07
1.28316e-07
1.28335e-07
1.28363e-07
1.28384e-07
1.28413e-07
1.28429e-07
1.28456e-07
1.28473e-07
1.28499e-07
1.28515e-07
1.28539e-07
1.28556e-07
1.28579e-07
1.28599e-07
1.28621e-07
1.28643e-07
1.28667e-07
1.28688e-07
1.28719e-07
1.2874e-07
1.28777e-07
1.28829e-07
1.31119e-07
1.16042e-07
4.17125e-08
1.23908e-07
1.2293e-07
1.2242e-07
1.22328e-07
1.22503e-07
1.22796e-07
1.23143e-07
1.23486e-07
1.23826e-07
1.24135e-07
1.24432e-07
1.24695e-07
1.24947e-07
1.25168e-07
1.25381e-07
1.25566e-07
1.25747e-07
1.25903e-07
1.26057e-07
1.26189e-07
1.26321e-07
1.26434e-07
1.26548e-07
1.26644e-07
1.26744e-07
1.26827e-07
1.26913e-07
1.26986e-07
1.27061e-07
1.27125e-07
1.27192e-07
1.27247e-07
1.27308e-07
1.27357e-07
1.27411e-07
1.27453e-07
1.275e-07
1.2754e-07
1.27583e-07
1.27618e-07
1.27657e-07
1.2769e-07
1.27725e-07
1.27752e-07
1.27787e-07
1.27812e-07
1.27841e-07
1.27864e-07
1.2789e-07
1.27912e-07
1.27937e-07
1.27956e-07
1.27978e-07