/*--------------------------------*- C++ -*----------------------------------*\
| =========                 |                                                 |
| \\      /  F ield         | OpenFOAM: The Open Source CFD Toolbox           |
|  \\    /   O peration     | Version:  v2012                                 |
|   \\  /    A nd           | Website:  www.openfoam.com                      |
|    \\/     M anipulation  |                                                 |
\*---------------------------------------------------------------------------*/
FoamFile
{
    version     2.0;
    format      ascii;
    class       volVectorField;
    location    "31.5";
    object      wallShearStress;
}
// * * * * * * * * * * * * * * * * * * * * * * * * * * * * * * * * * * * * * //

dimensions      [0 2 -2 0 0 0 0];


internalField   uniform (0 0 0);

boundaryField
{
    inlet
    {
        type            calculated;
        value           uniform (0 0 0);
    }
    outlet
    {
        type            calculated;
        value           uniform (0 0 0);
    }
    topWall
    {
        type            calculated;
        value           nonuniform List<vector> 
545
(
(3.66094e-08 -2.57693e-08 0)
(3.65985e-08 -7.209e-08 0)
(3.65766e-08 -1.20255e-07 0)
(3.6547e-08 -1.67025e-07 0)
(3.651e-08 -2.11803e-07 0)
(3.64665e-08 -2.55164e-07 0)
(3.64168e-08 -2.97477e-07 0)
(3.63614e-08 -3.38721e-07 0)
(3.63006e-08 -3.78808e-07 0)
(3.62351e-08 -4.17735e-07 0)
(3.61653e-08 -4.55554e-07 0)
(3.60916e-08 -4.92309e-07 0)
(3.60143e-08 -5.28025e-07 0)
(3.59339e-08 -5.62723e-07 0)
(3.58507e-08 -5.96426e-07 0)
(3.57649e-08 -6.29164e-07 0)
(3.5677e-08 -6.6096e-07 0)
(3.55872e-08 -6.91841e-07 0)
(3.54957e-08 -7.21831e-07 0)
(3.54029e-08 -7.50955e-07 0)
(3.53089e-08 -7.79236e-07 0)
(3.52139e-08 -8.06697e-07 0)
(3.51182e-08 -8.33361e-07 0)
(3.5022e-08 -8.59252e-07 0)
(3.49253e-08 -8.8439e-07 0)
(3.48285e-08 -9.08798e-07 0)
(3.47315e-08 -9.32497e-07 0)
(3.46347e-08 -9.55505e-07 0)
(3.4538e-08 -9.77845e-07 0)
(3.44417e-08 -9.99535e-07 0)
(3.43458e-08 -1.02059e-06 0)
(3.42504e-08 -1.04104e-06 0)
(3.41556e-08 -1.06089e-06 0)
(3.40616e-08 -1.08017e-06 0)
(3.39683e-08 -1.09888e-06 0)
(3.38759e-08 -1.11706e-06 0)
(3.37844e-08 -1.1347e-06 0)
(3.36938e-08 -1.15184e-06 0)
(3.36043e-08 -1.16847e-06 0)
(3.35159e-08 -1.18463e-06 0)
(3.34285e-08 -1.20032e-06 0)
(3.33423e-08 -1.21555e-06 0)
(3.32573e-08 -1.23035e-06 0)
(3.31735e-08 -1.24472e-06 0)
(3.3091e-08 -1.25867e-06 0)
(3.30097e-08 -1.27223e-06 0)
(3.29296e-08 -1.28539e-06 0)
(3.28509e-08 -1.29818e-06 0)
(3.27734e-08 -1.31059e-06 0)
(3.26972e-08 -1.32266e-06 0)
(3.26224e-08 -1.33438e-06 0)
(3.25488e-08 -1.34576e-06 0)
(3.24766e-08 -1.35682e-06 0)
(3.24057e-08 -1.36756e-06 0)
(3.2336e-08 -1.378e-06 0)
(3.22677e-08 -1.38814e-06 0)
(3.22007e-08 -1.39799e-06 0)
(3.2135e-08 -1.40756e-06 0)
(3.20705e-08 -1.41686e-06 0)
(3.20074e-08 -1.4259e-06 0)
(3.19454e-08 -1.43468e-06 0)
(3.18848e-08 -1.44322e-06 0)
(3.18253e-08 -1.45151e-06 0)
(3.17671e-08 -1.45957e-06 0)
(3.17101e-08 -1.46741e-06 0)
(3.16543e-08 -1.47502e-06 0)
(3.15997e-08 -1.48242e-06 0)
(3.15462e-08 -1.48961e-06 0)
(3.14939e-08 -1.4966e-06 0)
(3.14426e-08 -1.5034e-06 0)
(3.13925e-08 -1.51001e-06 0)
(3.13436e-08 -1.51642e-06 0)
(3.12962e-08 -1.52259e-06 0)
(3.12498e-08 -1.52858e-06 0)
(3.12038e-08 -1.5345e-06 0)
(3.1158e-08 -1.54039e-06 0)
(3.11122e-08 -1.54626e-06 0)
(3.10665e-08 -1.5521e-06 0)
(3.10207e-08 -1.55789e-06 0)
(3.09751e-08 -1.56365e-06 0)
(3.09294e-08 -1.56938e-06 0)
(3.08839e-08 -1.57507e-06 0)
(3.08383e-08 -1.58072e-06 0)
(3.07928e-08 -1.58635e-06 0)
(3.07474e-08 -1.59194e-06 0)
(3.0702e-08 -1.59749e-06 0)
(3.06567e-08 -1.60301e-06 0)
(3.06114e-08 -1.6085e-06 0)
(3.05661e-08 -1.61395e-06 0)
(3.0521e-08 -1.61938e-06 0)
(3.04758e-08 -1.62476e-06 0)
(3.04308e-08 -1.63012e-06 0)
(3.03858e-08 -1.63545e-06 0)
(3.03409e-08 -1.64073e-06 0)
(3.02959e-08 -1.64601e-06 0)
(3.02512e-08 -1.65118e-06 0)
(3.02095e-08 -1.65592e-06 0)
(3.01714e-08 -1.66023e-06 0)
(3.01343e-08 -1.66442e-06 0)
(3.00974e-08 -1.66862e-06 0)
(3.00604e-08 -1.67286e-06 0)
(3.00232e-08 -1.67712e-06 0)
(2.99859e-08 -1.68137e-06 0)
(2.99484e-08 -1.68562e-06 0)
(2.99107e-08 -1.68988e-06 0)
(2.98729e-08 -1.69414e-06 0)
(2.98348e-08 -1.69841e-06 0)
(2.97966e-08 -1.70268e-06 0)
(2.97582e-08 -1.70696e-06 0)
(2.97196e-08 -1.71124e-06 0)
(2.96809e-08 -1.71553e-06 0)
(2.96419e-08 -1.71982e-06 0)
(2.96028e-08 -1.72411e-06 0)
(2.95635e-08 -1.72841e-06 0)
(2.95239e-08 -1.73272e-06 0)
(2.94843e-08 -1.73703e-06 0)
(2.94444e-08 -1.74134e-06 0)
(2.94043e-08 -1.74566e-06 0)
(2.93641e-08 -1.74998e-06 0)
(2.93236e-08 -1.7543e-06 0)
(2.9283e-08 -1.75863e-06 0)
(2.92422e-08 -1.76297e-06 0)
(2.92012e-08 -1.7673e-06 0)
(2.91599e-08 -1.77165e-06 0)
(2.91186e-08 -1.77599e-06 0)
(2.9077e-08 -1.78034e-06 0)
(2.90352e-08 -1.7847e-06 0)
(2.89932e-08 -1.78906e-06 0)
(2.89511e-08 -1.79342e-06 0)
(2.89087e-08 -1.79778e-06 0)
(2.88662e-08 -1.80215e-06 0)
(2.88234e-08 -1.80653e-06 0)
(2.87805e-08 -1.81091e-06 0)
(2.87373e-08 -1.81529e-06 0)
(2.8694e-08 -1.81967e-06 0)
(2.86505e-08 -1.82406e-06 0)
(2.86067e-08 -1.82845e-06 0)
(2.85628e-08 -1.83285e-06 0)
(2.85187e-08 -1.83725e-06 0)
(2.84744e-08 -1.84165e-06 0)
(2.84298e-08 -1.84606e-06 0)
(2.83851e-08 -1.85047e-06 0)
(2.83402e-08 -1.85489e-06 0)
(2.82951e-08 -1.8593e-06 0)
(2.82497e-08 -1.86372e-06 0)
(2.82042e-08 -1.86815e-06 0)
(2.81585e-08 -1.87257e-06 0)
(2.81125e-08 -1.877e-06 0)
(2.80664e-08 -1.88144e-06 0)
(2.802e-08 -1.88587e-06 0)
(2.79735e-08 -1.89031e-06 0)
(2.79267e-08 -1.89476e-06 0)
(2.78798e-08 -1.8992e-06 0)
(2.78326e-08 -1.90365e-06 0)
(2.77853e-08 -1.9081e-06 0)
(2.77377e-08 -1.91256e-06 0)
(2.76899e-08 -1.91701e-06 0)
(2.76419e-08 -1.92147e-06 0)
(2.75937e-08 -1.92594e-06 0)
(2.75453e-08 -1.9304e-06 0)
(2.74967e-08 -1.93487e-06 0)
(2.74479e-08 -1.93934e-06 0)
(2.73989e-08 -1.94382e-06 0)
(2.73496e-08 -1.94829e-06 0)
(2.73002e-08 -1.95277e-06 0)
(2.72505e-08 -1.95725e-06 0)
(2.72006e-08 -1.96173e-06 0)
(2.71505e-08 -1.96622e-06 0)
(2.71002e-08 -1.97071e-06 0)
(2.70497e-08 -1.9752e-06 0)
(2.6999e-08 -1.97969e-06 0)
(2.69481e-08 -1.98418e-06 0)
(2.6897e-08 -1.98868e-06 0)
(2.68456e-08 -1.99318e-06 0)
(2.6794e-08 -1.99768e-06 0)
(2.67422e-08 -2.00218e-06 0)
(2.66902e-08 -2.00669e-06 0)
(2.6638e-08 -2.01119e-06 0)
(2.65856e-08 -2.0157e-06 0)
(2.6533e-08 -2.02021e-06 0)
(2.64801e-08 -2.02472e-06 0)
(2.6427e-08 -2.02923e-06 0)
(2.63737e-08 -2.03375e-06 0)
(2.63202e-08 -2.03826e-06 0)
(2.62665e-08 -2.04278e-06 0)
(2.62126e-08 -2.0473e-06 0)
(2.61584e-08 -2.05182e-06 0)
(2.61041e-08 -2.05634e-06 0)
(2.60495e-08 -2.06086e-06 0)
(2.59947e-08 -2.06539e-06 0)
(2.59396e-08 -2.06991e-06 0)
(2.58844e-08 -2.07444e-06 0)
(2.5829e-08 -2.07896e-06 0)
(2.57733e-08 -2.08349e-06 0)
(2.57174e-08 -2.08802e-06 0)
(2.56613e-08 -2.09255e-06 0)
(2.56049e-08 -2.09708e-06 0)
(2.55484e-08 -2.10161e-06 0)
(2.54916e-08 -2.10614e-06 0)
(2.54346e-08 -2.11067e-06 0)
(2.53774e-08 -2.11521e-06 0)
(2.532e-08 -2.11974e-06 0)
(2.52624e-08 -2.12427e-06 0)
(2.52045e-08 -2.12881e-06 0)
(2.51464e-08 -2.13334e-06 0)
(2.50881e-08 -2.13787e-06 0)
(2.50296e-08 -2.14241e-06 0)
(2.49709e-08 -2.14694e-06 0)
(2.49119e-08 -2.15148e-06 0)
(2.48527e-08 -2.15601e-06 0)
(2.47933e-08 -2.16054e-06 0)
(2.47337e-08 -2.16508e-06 0)
(2.46739e-08 -2.16961e-06 0)
(2.46138e-08 -2.17414e-06 0)
(2.45536e-08 -2.17868e-06 0)
(2.44931e-08 -2.18321e-06 0)
(2.44324e-08 -2.18774e-06 0)
(2.43714e-08 -2.19227e-06 0)
(2.43103e-08 -2.1968e-06 0)
(2.42489e-08 -2.20133e-06 0)
(2.41873e-08 -2.20586e-06 0)
(2.41255e-08 -2.21039e-06 0)
(2.40635e-08 -2.21492e-06 0)
(2.40013e-08 -2.21944e-06 0)
(2.39388e-08 -2.22397e-06 0)
(2.38761e-08 -2.22849e-06 0)
(2.38132e-08 -2.23301e-06 0)
(2.37501e-08 -2.23753e-06 0)
(2.36868e-08 -2.24205e-06 0)
(2.36232e-08 -2.24657e-06 0)
(2.35595e-08 -2.25109e-06 0)
(2.34955e-08 -2.2556e-06 0)
(2.34313e-08 -2.26012e-06 0)
(2.33669e-08 -2.26463e-06 0)
(2.33022e-08 -2.26914e-06 0)
(2.32374e-08 -2.27365e-06 0)
(2.31723e-08 -2.27815e-06 0)
(2.31071e-08 -2.28266e-06 0)
(2.30416e-08 -2.28716e-06 0)
(2.29759e-08 -2.29166e-06 0)
(2.291e-08 -2.29615e-06 0)
(2.28438e-08 -2.30065e-06 0)
(2.27775e-08 -2.30514e-06 0)
(2.27109e-08 -2.30963e-06 0)
(2.26442e-08 -2.31412e-06 0)
(2.25772e-08 -2.3186e-06 0)
(2.251e-08 -2.32308e-06 0)
(2.24426e-08 -2.32756e-06 0)
(2.2375e-08 -2.33204e-06 0)
(2.23072e-08 -2.33651e-06 0)
(2.22391e-08 -2.34098e-06 0)
(2.21709e-08 -2.34545e-06 0)
(2.21025e-08 -2.34991e-06 0)
(2.20338e-08 -2.35437e-06 0)
(2.1965e-08 -2.35883e-06 0)
(2.18959e-08 -2.36328e-06 0)
(2.18266e-08 -2.36773e-06 0)
(2.17571e-08 -2.37218e-06 0)
(2.16875e-08 -2.37662e-06 0)
(2.16176e-08 -2.38106e-06 0)
(2.15475e-08 -2.38549e-06 0)
(2.14772e-08 -2.38992e-06 0)
(2.14067e-08 -2.39435e-06 0)
(2.1336e-08 -2.39877e-06 0)
(2.12651e-08 -2.40319e-06 0)
(2.1194e-08 -2.4076e-06 0)
(2.11228e-08 -2.41201e-06 0)
(2.10512e-08 -2.41643e-06 0)
(2.09795e-08 -2.42079e-06 0)
(2.09107e-08 -2.42495e-06 0)
(2.0845e-08 -2.42892e-06 0)
(2.07797e-08 -2.43285e-06 0)
(2.0714e-08 -2.43681e-06 0)
(2.06478e-08 -2.44082e-06 0)
(2.05808e-08 -2.44486e-06 0)
(2.0513e-08 -2.44894e-06 0)
(2.04445e-08 -2.45304e-06 0)
(2.03753e-08 -2.45717e-06 0)
(2.03052e-08 -2.46133e-06 0)
(2.02344e-08 -2.46552e-06 0)
(2.01628e-08 -2.46975e-06 0)
(2.00905e-08 -2.474e-06 0)
(2.00173e-08 -2.47828e-06 0)
(1.99433e-08 -2.4826e-06 0)
(1.98685e-08 -2.48695e-06 0)
(1.97928e-08 -2.49132e-06 0)
(1.97164e-08 -2.49573e-06 0)
(1.96391e-08 -2.50017e-06 0)
(1.95609e-08 -2.50464e-06 0)
(1.94819e-08 -2.50914e-06 0)
(1.94021e-08 -2.51367e-06 0)
(1.93213e-08 -2.51822e-06 0)
(1.92397e-08 -2.52281e-06 0)
(1.91573e-08 -2.52743e-06 0)
(1.90739e-08 -2.53208e-06 0)
(1.89896e-08 -2.53676e-06 0)
(1.89045e-08 -2.54147e-06 0)
(1.88184e-08 -2.54621e-06 0)
(1.87314e-08 -2.55098e-06 0)
(1.86435e-08 -2.55578e-06 0)
(1.85546e-08 -2.56061e-06 0)
(1.84648e-08 -2.56546e-06 0)
(1.83741e-08 -2.57035e-06 0)
(1.82824e-08 -2.57526e-06 0)
(1.81897e-08 -2.5802e-06 0)
(1.80961e-08 -2.58518e-06 0)
(1.80015e-08 -2.59017e-06 0)
(1.79059e-08 -2.5952e-06 0)
(1.78094e-08 -2.60025e-06 0)
(1.77118e-08 -2.60533e-06 0)
(1.76133e-08 -2.61044e-06 0)
(1.75138e-08 -2.61557e-06 0)
(1.74132e-08 -2.62073e-06 0)
(1.73116e-08 -2.62592e-06 0)
(1.7209e-08 -2.63113e-06 0)
(1.71054e-08 -2.63637e-06 0)
(1.70008e-08 -2.64163e-06 0)
(1.68951e-08 -2.64691e-06 0)
(1.67884e-08 -2.65222e-06 0)
(1.66806e-08 -2.65756e-06 0)
(1.65718e-08 -2.66291e-06 0)
(1.64619e-08 -2.66829e-06 0)
(1.6351e-08 -2.67369e-06 0)
(1.6239e-08 -2.67912e-06 0)
(1.6126e-08 -2.68456e-06 0)
(1.60119e-08 -2.69002e-06 0)
(1.58967e-08 -2.69551e-06 0)
(1.57804e-08 -2.70101e-06 0)
(1.56631e-08 -2.70653e-06 0)
(1.55446e-08 -2.71207e-06 0)
(1.54251e-08 -2.71763e-06 0)
(1.53046e-08 -2.7232e-06 0)
(1.51829e-08 -2.72879e-06 0)
(1.50602e-08 -2.7344e-06 0)
(1.49363e-08 -2.74002e-06 0)
(1.48114e-08 -2.74565e-06 0)
(1.46854e-08 -2.7513e-06 0)
(1.45584e-08 -2.75696e-06 0)
(1.44302e-08 -2.76263e-06 0)
(1.4301e-08 -2.76831e-06 0)
(1.41707e-08 -2.774e-06 0)
(1.40393e-08 -2.7797e-06 0)
(1.39068e-08 -2.78541e-06 0)
(1.37733e-08 -2.79113e-06 0)
(1.36387e-08 -2.79685e-06 0)
(1.35031e-08 -2.80258e-06 0)
(1.33664e-08 -2.80831e-06 0)
(1.32286e-08 -2.81404e-06 0)
(1.30898e-08 -2.81978e-06 0)
(1.295e-08 -2.82551e-06 0)
(1.28091e-08 -2.83125e-06 0)
(1.26672e-08 -2.83698e-06 0)
(1.25243e-08 -2.84272e-06 0)
(1.23804e-08 -2.84845e-06 0)
(1.22356e-08 -2.85417e-06 0)
(1.20897e-08 -2.85989e-06 0)
(1.19429e-08 -2.8656e-06 0)
(1.17951e-08 -2.8713e-06 0)
(1.16463e-08 -2.87699e-06 0)
(1.14966e-08 -2.88267e-06 0)
(1.1346e-08 -2.88833e-06 0)
(1.11945e-08 -2.89399e-06 0)
(1.10421e-08 -2.89962e-06 0)
(1.08889e-08 -2.90524e-06 0)
(1.07348e-08 -2.91084e-06 0)
(1.05798e-08 -2.91642e-06 0)
(1.0424e-08 -2.92198e-06 0)
(1.02675e-08 -2.92752e-06 0)
(1.01101e-08 -2.93303e-06 0)
(9.95203e-09 -2.93851e-06 0)
(9.7932e-09 -2.94397e-06 0)
(9.63365e-09 -2.94939e-06 0)
(9.47342e-09 -2.95479e-06 0)
(9.31253e-09 -2.96015e-06 0)
(9.15101e-09 -2.96548e-06 0)
(8.98887e-09 -2.97077e-06 0)
(8.82616e-09 -2.97602e-06 0)
(8.66289e-09 -2.98123e-06 0)
(8.4991e-09 -2.9864e-06 0)
(8.33482e-09 -2.99152e-06 0)
(8.17008e-09 -2.9966e-06 0)
(8.00491e-09 -3.00163e-06 0)
(7.83934e-09 -3.00661e-06 0)
(7.67342e-09 -3.01154e-06 0)
(7.50717e-09 -3.01642e-06 0)
(7.34062e-09 -3.02124e-06 0)
(7.17383e-09 -3.02601e-06 0)
(7.00682e-09 -3.03071e-06 0)
(6.83964e-09 -3.03536e-06 0)
(6.67232e-09 -3.03994e-06 0)
(6.50491e-09 -3.04445e-06 0)
(6.33744e-09 -3.0489e-06 0)
(6.16996e-09 -3.05328e-06 0)
(6.00251e-09 -3.05759e-06 0)
(5.83514e-09 -3.06182e-06 0)
(5.66788e-09 -3.06598e-06 0)
(5.50079e-09 -3.07007e-06 0)
(5.33392e-09 -3.07407e-06 0)
(5.1673e-09 -3.07799e-06 0)
(5.00099e-09 -3.08183e-06 0)
(4.83504e-09 -3.08558e-06 0)
(4.66949e-09 -3.08924e-06 0)
(4.50439e-09 -3.09282e-06 0)
(4.33981e-09 -3.0963e-06 0)
(4.17577e-09 -3.09969e-06 0)
(4.01235e-09 -3.10299e-06 0)
(3.84959e-09 -3.10619e-06 0)
(3.68754e-09 -3.10928e-06 0)
(3.52626e-09 -3.11228e-06 0)
(3.3658e-09 -3.11517e-06 0)
(3.20622e-09 -3.11796e-06 0)
(3.04757e-09 -3.12064e-06 0)
(2.88991e-09 -3.12322e-06 0)
(2.73328e-09 -3.12568e-06 0)
(2.57776e-09 -3.12803e-06 0)
(2.42339e-09 -3.13027e-06 0)
(2.27022e-09 -3.13239e-06 0)
(2.11833e-09 -3.13439e-06 0)
(1.96775e-09 -3.13628e-06 0)
(1.81856e-09 -3.13804e-06 0)
(1.67079e-09 -3.13968e-06 0)
(1.52452e-09 -3.1412e-06 0)
(1.37979e-09 -3.14259e-06 0)
(1.23665e-09 -3.14386e-06 0)
(1.09518e-09 -3.145e-06 0)
(9.55403e-10 -3.14602e-06 0)
(8.1739e-10 -3.1469e-06 0)
(6.81188e-10 -3.14765e-06 0)
(5.46848e-10 -3.14827e-06 0)
(4.14421e-10 -3.14876e-06 0)
(2.83956e-10 -3.14911e-06 0)
(1.55502e-10 -3.14933e-06 0)
(2.91063e-11 -3.14941e-06 0)
(-9.51842e-11 -3.14936e-06 0)
(-2.17324e-10 -3.14917e-06 0)
(-3.37268e-10 -3.14884e-06 0)
(-4.54974e-10 -3.14837e-06 0)
(-5.70398e-10 -3.14777e-06 0)
(-6.835e-10 -3.14703e-06 0)
(-7.94239e-10 -3.14615e-06 0)
(-9.02576e-10 -3.14513e-06 0)
(-1.00847e-09 -3.14397e-06 0)
(-1.1119e-09 -3.14268e-06 0)
(-1.21281e-09 -3.14124e-06 0)
(-1.31117e-09 -3.13967e-06 0)
(-1.40697e-09 -3.13796e-06 0)
(-1.50013e-09 -3.13611e-06 0)
(-1.59075e-09 -3.13413e-06 0)
(-1.67827e-09 -3.13199e-06 0)
(-1.76508e-09 -3.12974e-06 0)
(-1.85599e-09 -3.1271e-06 0)
(-1.94918e-09 -3.12399e-06 0)
(-2.03957e-09 -3.12074e-06 0)
(-2.12528e-09 -3.11735e-06 0)
(-2.20615e-09 -3.11383e-06 0)
(-2.28229e-09 -3.11018e-06 0)
(-2.3538e-09 -3.10641e-06 0)
(-2.4208e-09 -3.10252e-06 0)
(-2.4834e-09 -3.09854e-06 0)
(-2.54176e-09 -3.09445e-06 0)
(-2.596e-09 -3.09028e-06 0)
(-2.64625e-09 -3.08602e-06 0)
(-2.69263e-09 -3.08168e-06 0)
(-2.73527e-09 -3.07727e-06 0)
(-2.77429e-09 -3.0728e-06 0)
(-2.80979e-09 -3.06827e-06 0)
(-2.84188e-09 -3.06368e-06 0)
(-2.87068e-09 -3.05904e-06 0)
(-2.89629e-09 -3.05436e-06 0)
(-2.91881e-09 -3.04964e-06 0)
(-2.93834e-09 -3.04488e-06 0)
(-2.95496e-09 -3.0401e-06 0)
(-2.96878e-09 -3.03529e-06 0)
(-2.97988e-09 -3.03047e-06 0)
(-2.98835e-09 -3.02562e-06 0)
(-2.99426e-09 -3.02077e-06 0)
(-2.9977e-09 -3.01591e-06 0)
(-2.99875e-09 -3.01104e-06 0)
(-2.99747e-09 -3.00618e-06 0)
(-2.99394e-09 -3.00132e-06 0)
(-2.98822e-09 -2.99646e-06 0)
(-2.98039e-09 -2.99162e-06 0)
(-2.9705e-09 -2.98679e-06 0)
(-2.95862e-09 -2.98199e-06 0)
(-2.94481e-09 -2.9772e-06 0)
(-2.92912e-09 -2.97243e-06 0)
(-2.9116e-09 -2.96769e-06 0)
(-2.89232e-09 -2.96299e-06 0)
(-2.87131e-09 -2.95831e-06 0)
(-2.84864e-09 -2.95367e-06 0)
(-2.82435e-09 -2.94907e-06 0)
(-2.79848e-09 -2.94451e-06 0)
(-2.77108e-09 -2.93999e-06 0)
(-2.74218e-09 -2.93552e-06 0)
(-2.71184e-09 -2.9311e-06 0)
(-2.68009e-09 -2.92673e-06 0)
(-2.64697e-09 -2.9224e-06 0)
(-2.61252e-09 -2.91814e-06 0)
(-2.57677e-09 -2.91393e-06 0)
(-2.53975e-09 -2.90978e-06 0)
(-2.50151e-09 -2.90569e-06 0)
(-2.46207e-09 -2.90167e-06 0)
(-2.42146e-09 -2.8977e-06 0)
(-2.37972e-09 -2.89381e-06 0)
(-2.33687e-09 -2.88998e-06 0)
(-2.29294e-09 -2.88623e-06 0)
(-2.24797e-09 -2.88255e-06 0)
(-2.20198e-09 -2.87894e-06 0)
(-2.15499e-09 -2.8754e-06 0)
(-2.10704e-09 -2.87194e-06 0)
(-2.05815e-09 -2.86856e-06 0)
(-2.00835e-09 -2.86527e-06 0)
(-1.95766e-09 -2.86205e-06 0)
(-1.90611e-09 -2.85891e-06 0)
(-1.85372e-09 -2.85586e-06 0)
(-1.80052e-09 -2.8529e-06 0)
(-1.74653e-09 -2.85002e-06 0)
(-1.69178e-09 -2.84723e-06 0)
(-1.63629e-09 -2.84452e-06 0)
(-1.58009e-09 -2.84191e-06 0)
(-1.5232e-09 -2.83939e-06 0)
(-1.46565e-09 -2.83697e-06 0)
(-1.40746e-09 -2.83463e-06 0)
(-1.34866e-09 -2.8324e-06 0)
(-1.28927e-09 -2.83025e-06 0)
(-1.22932e-09 -2.82821e-06 0)
(-1.16882e-09 -2.82626e-06 0)
(-1.10782e-09 -2.82441e-06 0)
(-1.04632e-09 -2.82266e-06 0)
(-9.84365e-10 -2.82101e-06 0)
(-9.21972e-10 -2.81945e-06 0)
(-8.59172e-10 -2.81801e-06 0)
(-7.95989e-10 -2.81666e-06 0)
(-7.32456e-10 -2.81542e-06 0)
(-6.68599e-10 -2.81427e-06 0)
(-6.04454e-10 -2.81325e-06 0)
(-5.40047e-10 -2.81225e-06 0)
(-4.75429e-10 -2.81162e-06 0)
(-4.10587e-10 -2.81024e-06 0)
(-3.45711e-10 -2.81176e-06 0)
(-2.8033e-10 -2.80393e-06 0)
(-2.16106e-10 -2.82635e-06 0)
(-1.47809e-10 -2.74145e-06 0)
(-9.31567e-11 -2.96639e-06 0)
(-3.77831e-11 -2.59081e-06 0)
)
;
    }
    bottomWall
    {
        type            calculated;
        value           nonuniform List<vector> 
449
(
(-48.5138 -0.963834 0)
(-19.7477 -0.00515217 0)
(-14.3461 -0.00113282 0)
(-12.0439 -0.000542696 0)
(-10.6493 -0.000346668 0)
(-9.6769 -0.000246654 0)
(-8.96123 -0.000178639 0)
(-8.45144 -0.000115274 0)
(-8.16907 -3.36932e-05 0)
(-8.22147 0.000123889 0)
(-9.03058 0.00029709 0)
(-10.2814 0.000318927 0)
(-11.2409 0.00021975 0)
(-11.807 0.000125536 0)
(-12.115 6.75777e-05 0)
(-12.2789 3.40688e-05 0)
(-12.3534 1.27621e-05 0)
(-12.3683 -1.78326e-06 0)
(-12.3407 -1.11205e-05 0)
(-12.2897 -1.67846e-05 0)
(-12.222 -2.04079e-05 0)
(-12.145 -2.229e-05 0)
(-12.0635 -2.3098e-05 0)
(-11.9805 -2.3248e-05 0)
(-11.8975 -2.30058e-05 0)
(-11.8158 -2.25524e-05 0)
(-11.7357 -2.19668e-05 0)
(-11.6578 -2.12826e-05 0)
(-11.5823 -2.05598e-05 0)
(-11.5093 -1.98293e-05 0)
(-11.4387 -1.91086e-05 0)
(-11.3706 -1.84078e-05 0)
(-11.3048 -1.77329e-05 0)
(-11.2412 -1.70848e-05 0)
(-11.1799 -1.64768e-05 0)
(-11.1205 -1.59072e-05 0)
(-11.063 -1.53574e-05 0)
(-11.0074 -1.48277e-05 0)
(-10.9536 -1.43246e-05 0)
(-10.9015 -1.3848e-05 0)
(-10.8509 -1.33951e-05 0)
(-10.8019 -1.29658e-05 0)
(-10.7543 -1.25599e-05 0)
(-10.7081 -1.21747e-05 0)
(-10.6632 -1.18084e-05 0)
(-10.6195 -1.14588e-05 0)
(-10.577 -1.11277e-05 0)
(-10.5356 -1.08104e-05 0)
(-10.4953 -1.05186e-05 0)
(-10.4559 -1.02626e-05 0)
(-10.4174 -1.00292e-05 0)
(-10.3796 -9.81051e-06 0)
(-10.3426 -9.59765e-06 0)
(-10.3062 -9.38699e-06 0)
(-10.2706 -9.18057e-06 0)
(-10.2357 -8.97529e-06 0)
(-10.2015 -8.77464e-06 0)
(-10.168 -8.58071e-06 0)
(-10.1351 -8.39081e-06 0)
(-10.1029 -8.20714e-06 0)
(-10.0713 -8.03083e-06 0)
(-10.0404 -7.86133e-06 0)
(-10.01 -7.69564e-06 0)
(-9.98012 -7.53419e-06 0)
(-9.95084 -7.379e-06 0)
(-9.92209 -7.23042e-06 0)
(-9.89384 -7.08621e-06 0)
(-9.86609 -6.94589e-06 0)
(-9.83882 -6.80976e-06 0)
(-9.81202 -6.68224e-06 0)
(-9.78564 -6.56064e-06 0)
(-9.75969 -6.4397e-06 0)
(-9.73415 -6.32181e-06 0)
(-9.70902 -6.20682e-06 0)
(-9.68429 -6.09456e-06 0)
(-9.65994 -5.98488e-06 0)
(-9.63598 -5.87845e-06 0)
(-9.61238 -5.77529e-06 0)
(-9.58914 -5.67528e-06 0)
(-9.56624 -5.57816e-06 0)
(-9.54368 -5.48389e-06 0)
(-9.52145 -5.39234e-06 0)
(-9.49953 -5.30404e-06 0)
(-9.47792 -5.21828e-06 0)
(-9.45661 -5.13466e-06 0)
(-9.43558 -5.05352e-06 0)
(-9.41484 -4.97378e-06 0)
(-9.39438 -4.89629e-06 0)
(-9.37418 -4.82044e-06 0)
(-9.35425 -4.74639e-06 0)
(-9.33458 -4.67491e-06 0)
(-9.31516 -4.60466e-06 0)
(-9.29598 -4.53716e-06 0)
(-9.27703 -4.47063e-06 0)
(-9.25832 -4.40528e-06 0)
(-9.23984 -4.34277e-06 0)
(-9.22157 -4.28095e-06 0)
(-9.20352 -4.2209e-06 0)
(-9.18568 -4.1622e-06 0)
(-9.16805 -4.10638e-06 0)
(-9.1506 -4.05477e-06 0)
(-9.13333 -4.00231e-06 0)
(-9.11625 -3.94857e-06 0)
(-9.09935 -3.89689e-06 0)
(-9.08264 -3.84572e-06 0)
(-9.06611 -3.795e-06 0)
(-9.04976 -3.74686e-06 0)
(-9.03357 -3.69887e-06 0)
(-9.01755 -3.65115e-06 0)
(-9.0017 -3.6062e-06 0)
(-8.98601 -3.56112e-06 0)
(-8.97048 -3.51628e-06 0)
(-8.9551 -3.47407e-06 0)
(-8.93987 -3.43177e-06 0)
(-8.9248 -3.38962e-06 0)
(-8.90987 -3.34973e-06 0)
(-8.89508 -3.31001e-06 0)
(-8.88044 -3.27035e-06 0)
(-8.86593 -3.23247e-06 0)
(-8.85155 -3.19523e-06 0)
(-8.83731 -3.15796e-06 0)
(-8.8232 -3.12183e-06 0)
(-8.80922 -3.08696e-06 0)
(-8.79536 -3.05194e-06 0)
(-8.78162 -3.01732e-06 0)
(-8.76801 -2.98435e-06 0)
(-8.75451 -2.95164e-06 0)
(-8.74114 -2.91873e-06 0)
(-8.72788 -2.88708e-06 0)
(-8.71472 -2.85651e-06 0)
(-8.70168 -2.82557e-06 0)
(-8.68875 -2.79495e-06 0)
(-8.67593 -2.76601e-06 0)
(-8.66321 -2.73714e-06 0)
(-8.65059 -2.70788e-06 0)
(-8.63808 -2.67979e-06 0)
(-8.62567 -2.65292e-06 0)
(-8.61335 -2.62547e-06 0)
(-8.60113 -2.59808e-06 0)
(-8.58901 -2.57219e-06 0)
(-8.57698 -2.5468e-06 0)
(-8.56504 -2.52091e-06 0)
(-8.5532 -2.49571e-06 0)
(-8.54144 -2.47224e-06 0)
(-8.52976 -2.4502e-06 0)
(-8.51816 -2.4275e-06 0)
(-8.50665 -2.40395e-06 0)
(-8.49522 -2.38096e-06 0)
(-8.48387 -2.3582e-06 0)
(-8.4726 -2.33526e-06 0)
(-8.46142 -2.3129e-06 0)
(-8.45031 -2.29136e-06 0)
(-8.43929 -2.27002e-06 0)
(-8.42833 -2.24841e-06 0)
(-8.41747 -2.22729e-06 0)
(-8.40667 -2.20702e-06 0)
(-8.39595 -2.18696e-06 0)
(-8.3853 -2.16659e-06 0)
(-8.37472 -2.14656e-06 0)
(-8.36422 -2.1274e-06 0)
(-8.35378 -2.10855e-06 0)
(-8.34341 -2.08933e-06 0)
(-8.33312 -2.07027e-06 0)
(-8.32289 -2.05209e-06 0)
(-8.31273 -2.03441e-06 0)
(-8.30263 -2.01626e-06 0)
(-8.2926 -1.9981e-06 0)
(-8.28264 -1.98078e-06 0)
(-8.27274 -1.96415e-06 0)
(-8.26289 -1.94699e-06 0)
(-8.25312 -1.93008e-06 0)
(-8.24339 -1.91335e-06 0)
(-8.23374 -1.89492e-06 0)
(-8.2247 -1.88136e-06 0)
(-8.21617 -1.86973e-06 0)
(-8.20762 -1.85375e-06 0)
(-8.19905 -1.83897e-06 0)
(-8.19045 -1.82529e-06 0)
(-8.18182 -1.81127e-06 0)
(-8.17317 -1.7971e-06 0)
(-8.16449 -1.78284e-06 0)
(-8.15579 -1.76907e-06 0)
(-8.14706 -1.75543e-06 0)
(-8.1383 -1.74169e-06 0)
(-8.12952 -1.72767e-06 0)
(-8.12072 -1.71374e-06 0)
(-8.11189 -1.70016e-06 0)
(-8.10303 -1.68674e-06 0)
(-8.09415 -1.67313e-06 0)
(-8.08525 -1.65934e-06 0)
(-8.07632 -1.64573e-06 0)
(-8.06737 -1.63241e-06 0)
(-8.0584 -1.61923e-06 0)
(-8.0494 -1.60579e-06 0)
(-8.04038 -1.59218e-06 0)
(-8.03134 -1.57895e-06 0)
(-8.02228 -1.56594e-06 0)
(-8.0132 -1.55293e-06 0)
(-8.00409 -1.53969e-06 0)
(-7.99496 -1.52647e-06 0)
(-7.98582 -1.51357e-06 0)
(-7.97665 -1.50094e-06 0)
(-7.96746 -1.48805e-06 0)
(-7.95825 -1.47496e-06 0)
(-7.94902 -1.46222e-06 0)
(-7.93977 -1.44999e-06 0)
(-7.9305 -1.43802e-06 0)
(-7.9212 -1.42618e-06 0)
(-7.91188 -1.41428e-06 0)
(-7.90254 -1.40215e-06 0)
(-7.89318 -1.38987e-06 0)
(-7.88381 -1.37735e-06 0)
(-7.87441 -1.36475e-06 0)
(-7.865 -1.35258e-06 0)
(-7.85558 -1.34064e-06 0)
(-7.84613 -1.32846e-06 0)
(-7.83667 -1.31608e-06 0)
(-7.8272 -1.30405e-06 0)
(-7.81771 -1.29231e-06 0)
(-7.8082 -1.2804e-06 0)
(-7.79868 -1.26828e-06 0)
(-7.78915 -1.25641e-06 0)
(-7.77961 -1.24483e-06 0)
(-7.77005 -1.23318e-06 0)
(-7.76047 -1.22131e-06 0)
(-7.75089 -1.20961e-06 0)
(-7.74129 -1.19824e-06 0)
(-7.73169 -1.18682e-06 0)
(-7.72207 -1.17521e-06 0)
(-7.71244 -1.16372e-06 0)
(-7.7028 -1.15256e-06 0)
(-7.69315 -1.14137e-06 0)
(-7.68349 -1.13003e-06 0)
(-7.67383 -1.11878e-06 0)
(-7.66416 -1.10785e-06 0)
(-7.65447 -1.09691e-06 0)
(-7.64478 -1.08584e-06 0)
(-7.63508 -1.07487e-06 0)
(-7.62538 -1.06417e-06 0)
(-7.61567 -1.05347e-06 0)
(-7.60595 -1.04265e-06 0)
(-7.59623 -1.03195e-06 0)
(-7.5865 -1.02147e-06 0)
(-7.57677 -1.01099e-06 0)
(-7.56703 -1.00041e-06 0)
(-7.55729 -9.89958e-07 0)
(-7.54755 -9.7972e-07 0)
(-7.53781 -9.69469e-07 0)
(-7.52806 -9.59134e-07 0)
(-7.51831 -9.48954e-07 0)
(-7.50856 -9.38987e-07 0)
(-7.49881 -9.28973e-07 0)
(-7.48906 -9.18898e-07 0)
(-7.4793 -9.09022e-07 0)
(-7.46955 -8.99332e-07 0)
(-7.4598 -8.89551e-07 0)
(-7.45005 -8.79727e-07 0)
(-7.4403 -8.70164e-07 0)
(-7.43056 -8.60708e-07 0)
(-7.42081 -8.51169e-07 0)
(-7.41107 -8.41649e-07 0)
(-7.40134 -8.32382e-07 0)
(-7.3916 -8.23164e-07 0)
(-7.38188 -8.13884e-07 0)
(-7.37215 -8.04699e-07 0)
(-7.36243 -7.95758e-07 0)
(-7.35272 -7.8677e-07 0)
(-7.34301 -7.77724e-07 0)
(-7.33331 -7.68828e-07 0)
(-7.32361 -7.60274e-07 0)
(-7.31392 -7.51899e-07 0)
(-7.30423 -7.43389e-07 0)
(-7.29455 -7.3481e-07 0)
(-7.28487 -7.26282e-07 0)
(-7.27521 -7.17655e-07 0)
(-7.26556 -7.0917e-07 0)
(-7.25591 -7.0088e-07 0)
(-7.24628 -6.92572e-07 0)
(-7.23666 -6.84212e-07 0)
(-7.22705 -6.76097e-07 0)
(-7.21745 -6.68085e-07 0)
(-7.20786 -6.60007e-07 0)
(-7.19829 -6.51992e-07 0)
(-7.18873 -6.44207e-07 0)
(-7.17918 -6.36398e-07 0)
(-7.16965 -6.28557e-07 0)
(-7.16012 -6.20893e-07 0)
(-7.15062 -6.13354e-07 0)
(-7.14113 -6.05761e-07 0)
(-7.13166 -5.98226e-07 0)
(-7.12219 -5.90913e-07 0)
(-7.11275 -5.836e-07 0)
(-7.10332 -5.76268e-07 0)
(-7.09391 -5.69104e-07 0)
(-7.08451 -5.62064e-07 0)
(-7.07513 -5.54978e-07 0)
(-7.06577 -5.4797e-07 0)
(-7.05643 -5.41146e-07 0)
(-7.0471 -5.34338e-07 0)
(-7.03779 -5.2751e-07 0)
(-7.0285 -5.20862e-07 0)
(-7.01923 -5.1429e-07 0)
(-7.00997 -5.07705e-07 0)
(-7.00073 -5.01191e-07 0)
(-6.99151 -4.94857e-07 0)
(-6.98232 -4.88504e-07 0)
(-6.97314 -4.82187e-07 0)
(-6.96398 -4.76011e-07 0)
(-6.95484 -4.69917e-07 0)
(-6.94572 -4.63788e-07 0)
(-6.93662 -4.57772e-07 0)
(-6.92754 -4.5187e-07 0)
(-6.91848 -4.45983e-07 0)
(-6.90944 -4.4012e-07 0)
(-6.90043 -4.34439e-07 0)
(-6.89143 -4.28777e-07 0)
(-6.88246 -4.23145e-07 0)
(-6.8735 -4.17605e-07 0)
(-6.86457 -4.12172e-07 0)
(-6.85566 -4.06721e-07 0)
(-6.84677 -4.01356e-07 0)
(-6.8379 -3.96103e-07 0)
(-6.82906 -3.90882e-07 0)
(-6.82023 -3.85675e-07 0)
(-6.81143 -3.80609e-07 0)
(-6.80265 -3.75577e-07 0)
(-6.7939 -3.70569e-07 0)
(-6.78516 -3.65632e-07 0)
(-6.77645 -3.6079e-07 0)
(-6.76776 -3.55948e-07 0)
(-6.7591 -3.51164e-07 0)
(-6.75045 -3.46481e-07 0)
(-6.74183 -3.41868e-07 0)
(-6.73324 -3.37344e-07 0)
(-6.72466 -3.32937e-07 0)
(-6.7161 -3.285e-07 0)
(-6.70757 -3.24082e-07 0)
(-6.69906 -3.19713e-07 0)
(-6.69058 -3.1543e-07 0)
(-6.68211 -3.11146e-07 0)
(-6.67368 -3.06924e-07 0)
(-6.66526 -3.02785e-07 0)
(-6.65687 -2.9868e-07 0)
(-6.6485 -2.94591e-07 0)
(-6.64016 -2.90612e-07 0)
(-6.63184 -2.86647e-07 0)
(-6.62355 -2.8271e-07 0)
(-6.61527 -2.78814e-07 0)
(-6.60704 -2.75005e-07 0)
(-6.59881 -2.71196e-07 0)
(-6.59063 -2.67499e-07 0)
(-6.58245 -2.63774e-07 0)
(-6.57431 -2.60248e-07 0)
(-6.56618 -2.5676e-07 0)
(-6.55718 -2.52451e-07 0)
(-6.5474 -2.47913e-07 0)
(-6.5378 -2.43867e-07 0)
(-6.52834 -2.39964e-07 0)
(-6.51905 -2.36067e-07 0)
(-6.50989 -2.32299e-07 0)
(-6.50089 -2.28592e-07 0)
(-6.49203 -2.24969e-07 0)
(-6.48331 -2.21435e-07 0)
(-6.47472 -2.17998e-07 0)
(-6.46628 -2.14654e-07 0)
(-6.45794 -2.11436e-07 0)
(-6.44975 -2.08311e-07 0)
(-6.44166 -2.0526e-07 0)
(-6.43371 -2.02296e-07 0)
(-6.42586 -1.99404e-07 0)
(-6.41813 -1.96576e-07 0)
(-6.41049 -1.93813e-07 0)
(-6.40298 -1.9113e-07 0)
(-6.39556 -1.88504e-07 0)
(-6.38825 -1.85945e-07 0)
(-6.38103 -1.83472e-07 0)
(-6.37391 -1.81053e-07 0)
(-6.36688 -1.78685e-07 0)
(-6.35995 -1.76387e-07 0)
(-6.35309 -1.74144e-07 0)
(-6.34634 -1.71924e-07 0)
(-6.33966 -1.69758e-07 0)
(-6.33307 -1.6765e-07 0)
(-6.32655 -1.65587e-07 0)
(-6.32013 -1.63567e-07 0)
(-6.31377 -1.61606e-07 0)
(-6.3075 -1.59695e-07 0)
(-6.30129 -1.57796e-07 0)
(-6.29517 -1.55941e-07 0)
(-6.28911 -1.54127e-07 0)
(-6.28313 -1.52353e-07 0)
(-6.2772 -1.50602e-07 0)
(-6.27136 -1.48899e-07 0)
(-6.26556 -1.47246e-07 0)
(-6.25985 -1.45626e-07 0)
(-6.25418 -1.4402e-07 0)
(-6.2486 -1.42461e-07 0)
(-6.24305 -1.40933e-07 0)
(-6.23758 -1.39449e-07 0)
(-6.23215 -1.37969e-07 0)
(-6.2268 -1.36537e-07 0)
(-6.22148 -1.35116e-07 0)
(-6.21624 -1.33718e-07 0)
(-6.21104 -1.3232e-07 0)
(-6.2059 -1.30965e-07 0)
(-6.2008 -1.29655e-07 0)
(-6.19577 -1.28399e-07 0)
(-6.19077 -1.27144e-07 0)
(-6.18584 -1.25928e-07 0)
(-6.18093 -1.24718e-07 0)
(-6.17609 -1.23569e-07 0)
(-6.17127 -1.22401e-07 0)
(-6.16652 -1.21292e-07 0)
(-6.16179 -1.20165e-07 0)
(-6.15713 -1.19114e-07 0)
(-6.15248 -1.18032e-07 0)
(-6.14791 -1.17023e-07 0)
(-6.14334 -1.15954e-07 0)
(-6.13885 -1.14971e-07 0)
(-6.13435 -1.13926e-07 0)
(-6.12995 -1.12974e-07 0)
(-6.12552 -1.1195e-07 0)
(-6.1212 -1.11044e-07 0)
(-6.11685 -1.10057e-07 0)
(-6.1126 -1.09201e-07 0)
(-6.10831 -1.08244e-07 0)
(-6.10414 -1.07407e-07 0)
(-6.09992 -1.0647e-07 0)
(-6.09582 -1.05667e-07 0)
(-6.09166 -1.04771e-07 0)
(-6.08763 -1.03998e-07 0)
(-6.08353 -1.03142e-07 0)
(-6.07957 -1.02398e-07 0)
(-6.07553 -1.01599e-07 0)
(-6.07163 -1.00898e-07 0)
(-6.06765 -1.00191e-07 0)
(-6.0638 -9.95029e-08 0)
(-6.05987 -9.89105e-08 0)
(-6.05607 -9.81298e-08 0)
(-6.0522 -9.79175e-08 0)
(-6.04842 -9.65989e-08 0)
(-6.04466 -9.78578e-08 0)
(-6.04076 -9.39159e-08 0)
(-6.03733 -1.00972e-07 0)
(-6.03285 -8.61668e-08 0)
(-6.03063 -1.12478e-07 0)
(-6.02399 -6.75858e-08 0)
(-6.02548 -9.21775e-08 0)
(-6.01654 -1.18807e-07 0)
)
;
    }
    symmetry
    {
        type            symmetryPlane;
    }
    frontAndBack
    {
        type            empty;
    }
}


// ************************************************************************* //
