/*--------------------------------*- C++ -*----------------------------------*\
| =========                 |                                                 |
| \\      /  F ield         | OpenFOAM: The Open Source CFD Toolbox           |
|  \\    /   O peration     | Version:  v2012                                 |
|   \\  /    A nd           | Website:  www.openfoam.com                      |
|    \\/     M anipulation  |                                                 |
\*---------------------------------------------------------------------------*/
FoamFile
{
    version     2.0;
    format      ascii;
    class       volScalarField;
    location    "31.5";
    object      yPlus;
}
// * * * * * * * * * * * * * * * * * * * * * * * * * * * * * * * * * * * * * //

dimensions      [0 0 0 0 0 0 0];


internalField   uniform 0;

boundaryField
{
    inlet
    {
        type            calculated;
        value           uniform 0;
    }
    outlet
    {
        type            calculated;
        value           uniform 0;
    }
    topWall
    {
        type            calculated;
        value           nonuniform List<scalar> 
545
(
0.111129
0.191624
0.245834
0.288975
0.325498
0.357456
0.386002
0.411862
0.43553
0.457361
0.477622
0.496517
0.514211
0.530836
0.546502
0.5613
0.575309
0.588595
0.601216
0.613225
0.624665
0.635576
0.645995
0.655953
0.665479
0.674599
0.683338
0.691717
0.699757
0.707475
0.714889
0.722014
0.728866
0.735457
0.741801
0.74791
0.753793
0.759463
0.764928
0.770198
0.775281
0.780186
0.78492
0.78949
0.793903
0.798166
0.802285
0.806265
0.810112
0.813832
0.817429
0.820908
0.824274
0.827531
0.830683
0.833733
0.836687
0.839547
0.842316
0.844998
0.847596
0.850114
0.852553
0.854917
0.857208
0.859429
0.861582
0.863669
0.865694
0.867657
0.869561
0.871408
0.873176
0.874887
0.876585
0.878269
0.87994
0.881597
0.883241
0.884873
0.886491
0.888097
0.88969
0.891271
0.89284
0.894396
0.89594
0.897473
0.898993
0.900502
0.901999
0.903484
0.904959
0.906421
0.907873
0.909314
0.910612
0.911773
0.912934
0.914095
0.915255
0.916416
0.917576
0.918736
0.919896
0.921055
0.922215
0.923374
0.924533
0.925692
0.926851
0.928009
0.929167
0.930325
0.931483
0.93264
0.933797
0.934954
0.93611
0.937267
0.938423
0.939578
0.940734
0.941889
0.943043
0.944197
0.945351
0.946505
0.947658
0.948811
0.949964
0.951116
0.952268
0.953419
0.95457
0.95572
0.956871
0.95802
0.959169
0.960318
0.961466
0.962614
0.963762
0.964909
0.966055
0.967201
0.968346
0.969491
0.970635
0.971779
0.972922
0.974065
0.975207
0.976349
0.97749
0.97863
0.97977
0.980909
0.982047
0.983185
0.984323
0.985459
0.986595
0.98773
0.988865
0.989999
0.991132
0.992265
0.993397
0.994528
0.995658
0.996788
0.997916
0.999044
1.00017
1.0013
1.00242
1.00355
1.00467
1.0058
1.00692
1.00804
1.00916
1.01028
1.0114
1.01252
1.01363
1.01475
1.01587
1.01698
1.01809
1.01921
1.02032
1.02143
1.02254
1.02365
1.02475
1.02586
1.02697
1.02807
1.02917
1.03028
1.03138
1.03248
1.03358
1.03467
1.03577
1.03687
1.03796
1.03905
1.04015
1.04124
1.04233
1.04341
1.0445
1.04559
1.04667
1.04776
1.04884
1.04992
1.051
1.05208
1.05315
1.05423
1.0553
1.05638
1.05745
1.05852
1.05959
1.06065
1.06172
1.06278
1.06385
1.06491
1.06597
1.06703
1.06808
1.06914
1.07019
1.07124
1.0723
1.07334
1.07439
1.07544
1.07648
1.07752
1.07857
1.07961
1.08064
1.08168
1.08271
1.08375
1.08478
1.08581
1.08683
1.08786
1.08888
1.0899
1.09092
1.09194
1.09296
1.09397
1.09499
1.096
1.09701
1.09801
1.09902
1.10002
1.10102
1.10197
1.10286
1.10375
1.10465
1.10556
1.10648
1.1074
1.10833
1.10926
1.1102
1.11114
1.1121
1.11305
1.11402
1.11499
1.11596
1.11694
1.11793
1.11893
1.11992
1.12093
1.12194
1.12296
1.12398
1.12501
1.12605
1.12709
1.12813
1.12918
1.13024
1.1313
1.13237
1.13345
1.13452
1.13561
1.1367
1.13779
1.13889
1.14
1.14111
1.14222
1.14334
1.14446
1.14559
1.14673
1.14786
1.149
1.15015
1.1513
1.15246
1.15361
1.15478
1.15594
1.15711
1.15829
1.15946
1.16064
1.16182
1.16301
1.1642
1.16539
1.16658
1.16778
1.16898
1.17018
1.17138
1.17258
1.17379
1.175
1.17621
1.17742
1.17863
1.17984
1.18105
1.18226
1.18347
1.18468
1.18589
1.1871
1.18831
1.18952
1.19073
1.19194
1.19314
1.19434
1.19554
1.19674
1.19793
1.19912
1.20031
1.2015
1.20268
1.20386
1.20503
1.2062
1.20736
1.20852
1.20967
1.21081
1.21195
1.21309
1.21421
1.21533
1.21644
1.21755
1.21864
1.21973
1.22081
1.22188
1.22294
1.22399
1.22502
1.22605
1.22707
1.22808
1.22907
1.23006
1.23103
1.23198
1.23293
1.23386
1.23478
1.23568
1.23657
1.23744
1.2383
1.23914
1.23996
1.24077
1.24156
1.24234
1.24309
1.24383
1.24455
1.24526
1.24594
1.2466
1.24724
1.24787
1.24847
1.24905
1.24961
1.25015
1.25066
1.25116
1.25163
1.25208
1.2525
1.2529
1.25328
1.25363
1.25396
1.25427
1.25455
1.2548
1.25503
1.25523
1.25541
1.25556
1.25568
1.25578
1.25585
1.2559
1.25592
1.25591
1.25587
1.2558
1.25571
1.25559
1.25545
1.25527
1.25507
1.25484
1.25458
1.2543
1.25398
1.25364
1.25327
1.25288
1.25245
1.252
1.25147
1.25085
1.2502
1.24952
1.24882
1.24809
1.24733
1.24655
1.24575
1.24493
1.24409
1.24323
1.24236
1.24147
1.24057
1.23966
1.23873
1.23779
1.23684
1.23589
1.23493
1.23396
1.23298
1.232
1.23102
1.23003
1.22904
1.22805
1.22706
1.22606
1.22507
1.22408
1.22309
1.22211
1.22113
1.22015
1.21918
1.21821
1.21725
1.2163
1.21535
1.21441
1.21348
1.21255
1.21164
1.21074
1.20984
1.20896
1.20809
1.20723
1.20638
1.20554
1.20472
1.20391
1.20312
1.20233
1.20157
1.20081
1.20008
1.19936
1.19865
1.19796
1.19729
1.19663
1.19599
1.19537
1.19477
1.19418
1.19362
1.19307
1.19254
1.19203
1.19154
1.19107
1.19062
1.19019
1.18978
1.18939
1.18902
1.18867
1.18835
1.18804
1.18776
1.1875
1.18725
1.18704
1.18684
1.18666
1.18651
1.18638
1.18627
1.18619
1.18612
1.18608
1.18605
)
;
    }
    bottomWall
    {
        type            calculated;
        value           nonuniform List<scalar> 
449
(
0.139427
0.0889531
0.0758174
0.0694682
0.0653226
0.0622688
0.0599219
0.0581926
0.0572121
0.0573954
0.0601533
0.0641841
0.0671123
0.0687816
0.0696729
0.0701425
0.0703551
0.0703974
0.070319
0.0701735
0.0699798
0.0697591
0.0695247
0.0692849
0.0690447
0.0688072
0.0685737
0.0683457
0.068124
0.0679089
0.0677004
0.0674984
0.0673028
0.0671134
0.06693
0.066752
0.0665793
0.0664118
0.0662492
0.0660913
0.0659379
0.0657888
0.0656438
0.0655026
0.065365
0.065231
0.0651004
0.0649729
0.0648485
0.0647267
0.0646073
0.0644901
0.0643749
0.0642617
0.0641506
0.0640415
0.0639344
0.0638293
0.063726
0.0636247
0.0635252
0.0634274
0.0633313
0.0632368
0.063144
0.0630527
0.0629629
0.0628745
0.0627876
0.062702
0.0626176
0.0625345
0.0624527
0.062372
0.0622925
0.0622142
0.0621369
0.0620608
0.0619857
0.0619117
0.0618387
0.0617666
0.0616955
0.0616252
0.0615559
0.0614874
0.0614198
0.061353
0.061287
0.0612219
0.0611575
0.0610938
0.0610309
0.0609686
0.0609071
0.0608463
0.0607861
0.0607266
0.0606677
0.0606095
0.0605518
0.0604946
0.060438
0.060382
0.0603265
0.0602716
0.0602172
0.0601633
0.06011
0.0600571
0.0600047
0.0599529
0.0599015
0.0598505
0.0598
0.05975
0.0597004
0.0596512
0.0596025
0.0595541
0.0595062
0.0594587
0.0594115
0.0593648
0.0593184
0.0592724
0.0592268
0.0591815
0.0591366
0.059092
0.0590478
0.0590039
0.0589603
0.0589171
0.0588742
0.0588316
0.0587893
0.0587473
0.0587056
0.0586643
0.0586232
0.0585823
0.0585418
0.0585016
0.0584616
0.0584218
0.0583823
0.0583431
0.0583041
0.0582653
0.0582269
0.0581887
0.0581507
0.0581129
0.0580755
0.0580382
0.0580012
0.0579644
0.0579278
0.0578915
0.0578554
0.0578194
0.0577838
0.0577483
0.057713
0.057678
0.0576431
0.0576085
0.057574
0.0575398
0.0575057
0.0574718
0.0574382
0.0574066
0.0573769
0.057347
0.057317
0.057287
0.0572568
0.0572265
0.0571961
0.0571656
0.057135
0.0571043
0.0570735
0.0570426
0.0570116
0.0569804
0.0569492
0.0569179
0.0568865
0.0568549
0.0568233
0.0567916
0.0567597
0.0567278
0.0566958
0.0566637
0.0566315
0.0565992
0.0565668
0.0565343
0.0565018
0.0564691
0.0564363
0.0564035
0.0563706
0.0563375
0.0563044
0.0562711
0.0562378
0.0562044
0.0561709
0.0561373
0.0561036
0.0560699
0.0560361
0.0560022
0.0559683
0.0559342
0.0559001
0.0558659
0.0558317
0.0557974
0.055763
0.0557286
0.0556941
0.0556595
0.0556248
0.0555902
0.0555554
0.0555206
0.0554857
0.0554508
0.0554159
0.0553809
0.0553458
0.0553107
0.0552755
0.0552403
0.055205
0.0551698
0.0551344
0.055099
0.0550636
0.0550282
0.0549927
0.0549572
0.0549216
0.0548861
0.0548505
0.0548148
0.0547792
0.0547435
0.0547078
0.0546721
0.0546363
0.0546006
0.0545648
0.054529
0.0544932
0.0544574
0.0544216
0.0543858
0.0543499
0.0543141
0.0542783
0.0542424
0.0542066
0.0541707
0.0541349
0.054099
0.0540631
0.0540273
0.0539914
0.0539556
0.0539198
0.053884
0.0538482
0.0538124
0.0537767
0.0537409
0.0537052
0.0536696
0.0536339
0.0535983
0.0535627
0.0535271
0.0534916
0.0534561
0.0534206
0.0533852
0.0533498
0.0533144
0.0532791
0.0532438
0.0532086
0.0531734
0.0531382
0.0531031
0.0530681
0.0530331
0.0529981
0.0529632
0.0529283
0.0528934
0.0528587
0.0528239
0.0527892
0.0527546
0.0527201
0.0526856
0.0526511
0.0526167
0.0525824
0.0525481
0.0525138
0.0524797
0.0524456
0.0524115
0.0523775
0.0523436
0.0523097
0.0522759
0.0522422
0.0522085
0.0521749
0.0521413
0.0521079
0.0520744
0.0520411
0.0520078
0.0519746
0.0519414
0.0519084
0.0518753
0.0518424
0.0518094
0.0517766
0.0517439
0.0517112
0.0516786
0.051646
0.0516136
0.0515812
0.0515488
0.0515166
0.0514844
0.0514524
0.0514203
0.0513884
0.0513565
0.0513248
0.051293
0.0512579
0.0512196
0.0511821
0.051145
0.0511086
0.0510727
0.0510374
0.0510026
0.0509683
0.0509346
0.0509013
0.0508685
0.0508363
0.0508044
0.050773
0.050742
0.0507115
0.0506813
0.0506516
0.0506222
0.0505933
0.0505647
0.0505365
0.0505086
0.0504811
0.0504539
0.0504271
0.0504005
0.0503743
0.0503484
0.0503228
0.0502975
0.0502725
0.0502478
0.0502234
0.0501992
0.0501753
0.0501516
0.0501283
0.0501051
0.0500823
0.0500596
0.0500372
0.050015
0.0499931
0.0499714
0.0499499
0.0499286
0.0499075
0.0498866
0.049866
0.0498455
0.0498253
0.0498052
0.0497853
0.0497656
0.0497461
0.0497267
0.0497075
0.0496885
0.0496697
0.0496509
0.0496325
0.049614
0.0495959
0.0495777
0.0495599
0.049542
0.0495245
0.0495069
0.0494897
0.0494724
0.0494555
0.0494384
0.0494217
0.0494049
0.0493885
0.0493719
0.0493558
0.0493394
0.0493236
0.0493074
0.0492918
0.0492758
0.0492603
0.0492446
0.0492292
0.0492139
0.0491981
0.0491841
0.0491658
0.0491568
0.0491297
0.0491358
0.0490993
)
;
    }
    symmetry
    {
        type            symmetryPlane;
    }
    frontAndBack
    {
        type            empty;
    }
}


// ************************************************************************* //
