/*--------------------------------*- C++ -*----------------------------------*\
| =========                 |                                                 |
| \\      /  F ield         | OpenFOAM: The Open Source CFD Toolbox           |
|  \\    /   O peration     | Version:  v2012                                 |
|   \\  /    A nd           | Website:  www.openfoam.com                      |
|    \\/     M anipulation  |                                                 |
\*---------------------------------------------------------------------------*/
FoamFile
{
    version     2.0;
    format      ascii;
    class       volScalarField;
    location    "11.5";
    object      omega;
}
// * * * * * * * * * * * * * * * * * * * * * * * * * * * * * * * * * * * * * //

dimensions      [0 0 -1 0 0 0 0];


internalField   nonuniform List<scalar> 
209825
(
8228.83
7757.41
7512.14
7369.64
7276.97
7212.5
7164.99
7129.07
7100.87
7078.57
7060.34
7045.51
7033.03
7022.69
7013.78
7006.3
6999.74
6994.19
6989.22
6985.02
6981.16
6977.9
6974.93
6972.47
6970.01
6967.97
6966.11
6964.6
6962.98
6961.71
6960.49
6959.52
6958.58
6957.87
6956.92
6956.3
6955.75
6955.34
6954.6
6954.3
6954.06
6953.76
6952.92
6953.46
6953.47
6953.46
6953.44
6953.38
6953.2
6953.52
6953.52
6954.56
6955.29
6955.29
6955.29
6956.39
6957.28
6957.54
6957.66
6957.66
6958.43
6959.42
6959.42
6960.08
6961.49
6961.49
6961.49
6962.68
6962.68
6963.89
6965.46
6966.56
6968.18
6969.26
6969.26
6970.51
6971.85
6972.93
6974.92
6975.98
6977.01
6978.97
6980.06
6981.99
6983.88
6986.28
6988.24
6991.53
6993.69
6998.67
7001.14
7010.07
7011
7058.99
7272.13
116308
8228.83
7757.36
7512.03
7369.49
7276.79
7212.3
7164.78
7128.85
7100.63
7078.32
7060.08
7045.25
7032.76
7022.42
7013.5
7006.03
6999.45
6993.91
6988.93
6984.73
6980.87
6977.61
6974.64
6972.18
6969.71
6967.67
6965.81
6964.3
6962.67
6961.41
6960.19
6959.22
6958.27
6957.56
6956.61
6956
6955.45
6955.04
6954.29
6953.99
6953.75
6953.45
6952.62
6953.16
6953.16
6953.15
6953.13
6953.07
6952.89
6953.21
6953.21
6954.25
6954.98
6954.98
6954.98
6956.08
6956.97
6957.23
6957.35
6957.35
6958.12
6959.11
6959.11
6959.77
6961.18
6961.18
6961.18
6962.37
6962.37
6963.58
6965.15
6966.25
6967.87
6968.95
6968.95
6970.2
6971.53
6972.62
6974.61
6975.67
6976.69
6978.66
6979.75
6981.68
6983.57
6985.97
6987.93
6991.22
6993.39
6998.36
7000.83
7009.76
7010.69
7058.77
7272.01
113014
8228.82
7757.15
7511.64
7368.97
7276.18
7211.61
7164.04
7128.07
7099.82
7077.48
7059.22
7044.36
7031.86
7021.5
7012.58
7005.09
6998.51
6992.95
6987.97
6983.76
6979.9
6976.63
6973.65
6971.19
6968.72
6966.68
6964.81
6963.29
6961.67
6960.4
6959.18
6958.21
6957.26
6956.55
6955.6
6954.98
6954.43
6954.02
6953.27
6952.97
6952.73
6952.42
6951.59
6952.13
6952.13
6952.12
6952.1
6952.04
6951.86
6952.18
6952.18
6953.21
6953.94
6953.94
6953.94
6955.05
6955.93
6956.19
6956.31
6956.31
6957.08
6958.08
6958.08
6958.73
6960.14
6960.15
6960.14
6961.33
6961.33
6962.54
6964.11
6965.21
6966.83
6967.91
6967.91
6969.17
6970.5
6971.58
6973.57
6974.64
6975.66
6977.62
6978.72
6980.65
6982.53
6984.94
6986.9
6990.19
6992.35
6997.33
6999.8
7008.73
7009.64
7057.92
7271.35
109234
8228.8
7756.77
7510.96
7368.07
7275.12
7210.43
7162.77
7126.72
7098.42
7076.03
7057.73
7042.85
7030.32
7019.93
7010.98
7003.48
6996.88
6991.31
6986.31
6982.1
6978.22
6974.94
6971.96
6969.49
6967.01
6964.97
6963.09
6961.57
6959.95
6958.67
6957.45
6956.47
6955.52
6954.8
6953.85
6953.23
6952.68
6952.27
6951.52
6951.21
6950.97
6950.66
6949.83
6950.36
6950.37
6950.36
6950.34
6950.28
6950.1
6950.41
6950.41
6951.44
6952.17
6952.17
6952.17
6953.27
6954.16
6954.42
6954.54
6954.54
6955.31
6956.3
6956.3
6956.95
6958.37
6958.37
6958.37
6959.56
6959.56
6960.76
6962.33
6963.43
6965.05
6966.14
6966.14
6967.39
6968.72
6969.81
6971.8
6972.87
6973.89
6975.85
6976.95
6978.88
6980.76
6983.17
6985.12
6988.42
6990.58
6995.56
6998.03
7006.96
7007.86
7056.42
7270.12
105348
8228.76
7756.23
7509.98
7366.78
7273.6
7208.75
7160.95
7124.81
7096.42
7073.97
7055.61
7040.68
7028.11
7017.69
7008.71
7001.18
6994.56
6988.98
6983.96
6979.73
6975.84
6972.55
6969.55
6967.07
6964.58
6962.53
6960.65
6959.12
6957.49
6956.21
6954.98
6954
6953.04
6952.32
6951.37
6950.74
6950.19
6949.77
6949.02
6948.71
6948.46
6948.16
6947.32
6947.85
6947.85
6947.85
6947.83
6947.76
6947.57
6947.89
6947.88
6948.92
6949.64
6949.64
6949.64
6950.74
6951.62
6951.88
6952.01
6952
6952.77
6953.77
6953.77
6954.42
6955.83
6955.83
6955.83
6957.02
6957.02
6958.23
6959.8
6960.9
6962.51
6963.6
6963.61
6964.86
6966.19
6967.27
6969.26
6970.34
6971.36
6973.32
6974.42
6976.35
6978.23
6980.64
6982.6
6985.9
6988.06
6993.03
6995.5
7004.43
7005.31
7054.28
7268.31
101462
8228.71
7755.53
7508.71
7365.09
7271.62
7206.55
7158.59
7122.31
7093.82
7071.28
7052.85
7037.85
7025.23
7014.77
7005.75
6998.19
6991.54
6985.93
6980.89
6976.64
6972.73
6969.42
6966.41
6963.92
6961.42
6959.35
6957.46
6955.92
6954.28
6953
6951.76
6950.77
6949.81
6949.08
6948.12
6947.5
6946.93
6946.51
6945.76
6945.45
6945.2
6944.89
6944.05
6944.57
6944.57
6944.57
6944.55
6944.48
6944.29
6944.6
6944.59
6945.62
6946.34
6946.34
6946.34
6947.44
6948.32
6948.58
6948.7
6948.7
6949.47
6950.46
6950.46
6951.11
6952.53
6952.53
6952.53
6953.72
6953.72
6954.92
6956.49
6957.59
6959.2
6960.3
6960.3
6961.55
6962.89
6963.97
6965.96
6967.04
6968.06
6970.02
6971.13
6973.06
6974.94
6977.35
6979.3
6982.61
6984.77
6989.74
6992.2
7001.14
7001.98
7051.46
7265.86
97614.2
8228.65
7754.67
7507.14
7363.01
7269.18
7203.84
7155.67
7119.22
7090.6
7067.95
7049.43
7034.36
7021.67
7011.15
7002.09
6994.48
6987.8
6982.15
6977.08
6972.81
6968.88
6965.55
6962.52
6960.01
6957.5
6955.42
6953.51
6951.97
6950.31
6949.02
6947.77
6946.78
6945.81
6945.08
6944.11
6943.48
6942.91
6942.48
6941.73
6941.41
6941.15
6940.84
6940
6940.51
6940.51
6940.51
6940.49
6940.42
6940.22
6940.53
6940.52
6941.55
6942.26
6942.26
6942.26
6943.36
6944.24
6944.49
6944.61
6944.61
6945.38
6946.37
6946.38
6947.02
6948.43
6948.44
6948.44
6949.62
6949.63
6950.83
6952.4
6953.5
6955.11
6956.21
6956.21
6957.46
6958.8
6959.88
6961.87
6962.96
6963.98
6965.94
6967.05
6968.98
6970.86
6973.27
6975.23
6978.53
6980.69
6985.66
6988.12
6997.05
6997.86
7047.98
7262.7
93824.6
8228.59
7753.64
7505.26
7360.53
7266.26
7200.59
7152.17
7115.53
7086.75
7063.97
7045.34
7030.18
7017.41
7006.83
6997.71
6990.05
6983.32
6977.64
6972.54
6968.23
6964.27
6960.92
6957.87
6955.34
6952.81
6950.72
6948.79
6947.23
6945.57
6944.26
6943
6942
6941.02
6940.28
6939.31
6938.67
6938.09
6937.66
6936.9
6936.58
6936.32
6936.01
6935.15
6935.66
6935.66
6935.66
6935.63
6935.56
6935.35
6935.66
6935.64
6936.67
6937.37
6937.38
6937.37
6938.47
6939.35
6939.6
6939.72
6939.72
6940.5
6941.48
6941.49
6942.12
6943.54
6943.55
6943.55
6944.73
6944.73
6945.94
6947.5
6948.61
6950.21
6951.32
6951.32
6952.57
6953.91
6954.99
6956.97
6958.07
6959.09
6961.06
6962.17
6964.1
6965.97
6968.4
6970.35
6973.66
6975.81
6980.78
6983.24
6992.17
6992.93
7043.82
7258.73
90101.7
8228.51
7752.44
7503.08
7357.64
7262.86
7196.81
7148.1
7111.23
7082.26
7059.33
7040.57
7025.3
7012.45
7001.79
6992.6
6984.88
6978.1
6972.37
6967.23
6962.89
6958.9
6955.52
6952.45
6949.89
6947.34
6945.23
6943.29
6941.71
6940.03
6938.71
6937.44
6936.43
6935.44
6934.69
6933.71
6933.06
6932.47
6932.04
6931.27
6930.94
6930.68
6930.36
6929.5
6930
6930
6929.99
6929.96
6929.89
6929.67
6929.97
6929.96
6930.98
6931.68
6931.68
6931.67
6932.77
6933.64
6933.89
6934.01
6934.01
6934.79
6935.78
6935.78
6936.41
6937.83
6937.84
6937.84
6939.02
6939.02
6940.22
6941.78
6942.89
6944.49
6945.61
6945.61
6946.86
6948.2
6949.29
6951.26
6952.38
6953.39
6955.36
6956.47
6958.4
6960.28
6962.7
6964.65
6967.97
6970.12
6975.08
6977.54
6986.47
6987.18
7038.97
7253.95
86448.1
8228.42
7751.08
7500.6
7354.34
7258.97
7192.49
7143.44
7106.31
7077.12
7054.02
7035.12
7019.72
7006.77
6996.01
6986.75
6978.97
6972.13
6966.35
6961.16
6956.78
6952.75
6949.34
6946.23
6943.65
6941.08
6938.94
6936.98
6935.39
6933.69
6932.36
6931.07
6930.05
6929.04
6928.28
6927.29
6926.63
6926.04
6925.6
6924.82
6924.49
6924.21
6923.89
6923.02
6923.51
6923.51
6923.5
6923.47
6923.39
6923.17
6923.46
6923.44
6924.46
6925.15
6925.15
6925.14
6926.24
6927.11
6927.36
6927.48
6927.47
6928.25
6929.24
6929.24
6929.87
6931.29
6931.3
6931.3
6932.48
6932.48
6933.68
6935.24
6936.35
6937.94
6939.07
6939.07
6940.32
6941.66
6942.75
6944.72
6945.84
6946.86
6948.83
6949.95
6951.88
6953.75
6956.18
6958.12
6961.44
6963.59
6968.56
6971.01
6979.94
6980.59
7033.41
7248.34
82861.9
8228.33
7749.56
7497.81
7350.63
7254.6
7187.62
7138.19
7100.76
7071.33
7048.02
7028.96
7013.43
7000.35
6989.5
6980.14
6972.29
6965.38
6959.54
6954.3
6949.87
6945.8
6942.35
6939.22
6936.6
6934
6931.84
6929.86
6928.25
6926.53
6925.18
6923.88
6922.84
6921.82
6921.05
6920.05
6919.38
6918.77
6918.32
6917.54
6917.2
6916.91
6916.59
6915.71
6916.18
6916.18
6916.17
6916.14
6916.05
6915.82
6916.11
6916.08
6917.1
6917.77
6917.78
6917.77
6918.86
6919.73
6919.97
6920.09
6920.09
6920.87
6921.85
6921.86
6922.48
6923.9
6923.91
6923.91
6925.09
6925.09
6926.29
6927.84
6928.96
6930.54
6931.69
6931.69
6932.93
6934.28
6935.37
6937.33
6938.47
6939.48
6941.45
6942.57
6944.51
6946.37
6948.81
6950.75
6954.08
6956.22
6961.18
6963.63
6972.56
6973.15
7027.14
7241.9
79337.3
8228.23
7747.88
7494.71
7346.5
7249.72
7182.19
7132.34
7094.57
7064.87
7041.34
7022.09
7006.4
6993.19
6982.23
6972.78
6964.83
6957.85
6951.95
6946.65
6942.17
6938.05
6934.56
6931.38
6928.74
6926.11
6923.92
6921.91
6920.27
6918.54
6917.17
6915.84
6914.79
6913.75
6912.97
6911.96
6911.28
6910.66
6910.2
6909.41
6909.05
6908.76
6908.43
6907.54
6908
6908
6907.99
6907.95
6907.86
6907.62
6907.9
6907.87
6908.87
6909.54
6909.54
6909.54
6910.63
6911.49
6911.72
6911.85
6911.84
6912.63
6913.61
6913.61
6914.22
6915.64
6915.66
6915.66
6916.84
6916.84
6918.04
6919.58
6920.7
6922.28
6923.44
6923.44
6924.68
6926.03
6927.12
6929.07
6930.23
6931.24
6933.21
6934.34
6936.27
6938.14
6940.58
6942.52
6945.85
6947.99
6952.95
6955.39
6964.31
6964.83
7020.15
7234.6
75865
8228.13
7746.03
7491.3
7341.95
7244.35
7176.21
7125.88
7087.73
7057.73
7033.96
7014.5
6998.64
6985.28
6974.19
6964.63
6956.59
6949.53
6943.55
6938.18
6933.65
6929.48
6925.94
6922.72
6920.04
6917.37
6915.16
6913.11
6911.45
6909.7
6908.3
6906.96
6905.89
6904.83
6904.04
6903.01
6902.31
6901.68
6901.21
6900.42
6900.05
6899.74
6899.41
6898.51
6898.95
6898.95
6898.94
6898.9
6898.8
6898.54
6898.81
6898.78
6899.78
6900.43
6900.44
6900.43
6901.51
6902.37
6902.6
6902.72
6902.72
6903.51
6904.48
6904.49
6905.09
6906.51
6906.53
6906.53
6907.71
6907.71
6908.9
6910.44
6911.57
6913.14
6914.31
6914.31
6915.55
6916.9
6917.99
6919.94
6921.11
6922.12
6924.09
6925.23
6927.16
6929.02
6931.48
6933.41
6936.75
6938.88
6943.84
6946.27
6955.19
6955.63
7012.42
7226.44
72451.5
8228.03
7744.03
7487.58
7336.97
7238.47
7169.65
7118.8
7080.25
7049.91
7025.87
7006.18
6990.13
6976.61
6965.38
6955.7
6947.55
6940.39
6934.34
6928.9
6924.3
6920.07
6916.49
6913.22
6910.49
6907.79
6905.54
6903.47
6901.78
6899.99
6898.58
6897.21
6896.12
6895.05
6894.23
6893.19
6892.48
6891.83
6891.35
6890.54
6890.16
6889.85
6889.51
6888.6
6889.02
6889.02
6889.01
6888.96
6888.85
6888.59
6888.85
6888.8
6889.8
6890.44
6890.44
6890.43
6891.51
6892.36
6892.59
6892.71
6892.71
6893.5
6894.47
6894.47
6895.07
6896.49
6896.51
6896.51
6897.69
6897.69
6898.88
6900.42
6901.55
6903.1
6904.29
6904.29
6905.53
6906.88
6907.98
6909.92
6911.11
6912.12
6914.09
6915.23
6917.16
6919.02
6921.48
6923.4
6926.75
6928.88
6933.83
6936.26
6945.17
6945.54
7003.94
7217.4
69102.9
8227.92
7741.86
7483.55
7331.58
7232.09
7162.53
7111.11
7072.1
7041.4
7017.05
6997.12
6980.86
6967.16
6955.78
6945.96
6937.7
6930.44
6924.3
6918.78
6914.11
6909.82
6906.18
6902.86
6900.09
6897.35
6895.06
6892.95
6891.23
6889.42
6887.97
6886.58
6885.47
6884.37
6883.54
6882.48
6881.76
6881.09
6880.6
6879.78
6879.39
6879.06
6878.71
6877.79
6878.19
6878.19
6878.17
6878.12
6878.01
6877.73
6877.98
6877.92
6878.91
6879.54
6879.54
6879.53
6880.61
6881.45
6881.67
6881.79
6881.79
6882.59
6883.55
6883.56
6884.14
6885.56
6885.59
6885.59
6886.76
6886.76
6887.95
6889.48
6890.61
6892.16
6893.37
6893.37
6894.6
6895.96
6897.05
6898.98
6900.19
6901.2
6903.17
6904.32
6906.26
6908.11
6910.58
6912.5
6915.85
6917.97
6922.92
6925.33
6934.24
6934.52
6994.69
7207.46
65824.8
8227.81
7739.54
7479.21
7325.76
7225.19
7154.83
7102.78
7063.28
7032.19
7007.51
6987.31
6970.82
6956.93
6945.38
6935.42
6927.03
6919.66
6913.42
6907.82
6903.07
6898.72
6895.01
6891.63
6888.81
6886.03
6883.7
6881.55
6879.79
6877.95
6876.48
6875.06
6873.92
6872.81
6871.95
6870.88
6870.13
6869.45
6868.95
6868.11
6867.71
6867.36
6867.01
6866.08
6866.45
6866.45
6866.43
6866.36
6866.25
6865.96
6866.19
6866.13
6867.11
6867.72
6867.72
6867.72
6868.78
6869.62
6869.83
6869.96
6869.95
6870.75
6871.71
6871.72
6872.29
6873.72
6873.74
6873.74
6874.91
6874.91
6876.1
6877.62
6878.76
6880.3
6881.52
6881.52
6882.75
6884.11
6885.21
6887.13
6888.36
6889.36
6891.34
6892.49
6894.43
6896.27
6898.75
6900.66
6904.02
6906.14
6911.08
6913.49
6922.39
6922.58
6984.67
7196.62
62622.3
8227.7
7737.07
7474.57
7319.52
7217.78
7146.54
7093.83
7053.79
7022.27
6997.24
6976.74
6960.01
6945.9
6934.17
6924.05
6915.53
6908.04
6901.69
6896
6891.17
6886.74
6882.96
6879.53
6876.65
6873.82
6871.44
6869.25
6867.46
6865.59
6864.09
6862.64
6861.47
6860.33
6859.45
6858.36
6857.59
6856.89
6856.37
6855.53
6855.11
6854.75
6854.38
6853.44
6853.79
6853.79
6853.76
6853.69
6853.57
6853.26
6853.48
6853.41
6854.38
6854.98
6854.97
6854.97
6856.03
6856.86
6857.06
6857.19
6857.18
6857.98
6858.94
6858.95
6859.5
6860.93
6860.96
6860.96
6862.13
6862.13
6863.32
6864.83
6865.97
6867.5
6868.74
6868.74
6869.97
6871.33
6872.43
6874.33
6875.59
6876.59
6878.57
6879.73
6881.67
6883.5
6885.99
6887.9
6891.26
6893.37
6898.31
6900.71
6909.6
6909.69
6973.86
7184.86
59500.4
8227.6
7734.45
7469.63
7312.85
7209.86
7137.68
7084.23
7043.62
7011.63
6986.22
6965.41
6948.4
6934.07
6922.14
6911.86
6903.19
6895.57
6889.11
6883.31
6878.39
6873.88
6870.03
6866.53
6863.6
6860.71
6858.29
6856.05
6854.22
6852.31
6850.77
6849.29
6848.1
6846.93
6846.03
6844.91
6844.13
6843.4
6842.87
6842.01
6841.57
6841.19
6840.82
6839.87
6840.19
6840.18
6840.16
6840.07
6839.94
6839.62
6839.83
6839.75
6840.71
6841.28
6841.28
6841.27
6842.33
6843.14
6843.34
6843.47
6843.47
6844.27
6845.22
6845.23
6845.77
6847.2
6847.23
6847.23
6848.39
6848.4
6849.58
6851.08
6852.23
6853.74
6855
6855
6856.23
6857.6
6858.7
6860.59
6861.87
6862.87
6864.85
6866.02
6867.96
6869.78
6872.28
6874.18
6877.55
6879.65
6884.59
6886.97
6895.85
6895.85
6962.23
7172.15
56463.6
8227.5
7731.68
7464.38
7305.75
7201.42
7128.22
7074
7032.77
7000.28
6974.46
6953.3
6936
6921.43
6909.29
6898.82
6889.99
6882.23
6875.65
6869.74
6864.72
6860.13
6856.21
6852.63
6849.64
6846.69
6844.22
6841.93
6840.06
6838.11
6836.53
6835.02
6833.79
6832.59
6831.67
6830.53
6829.72
6828.98
6828.43
6827.55
6827.09
6826.7
6826.32
6825.34
6825.64
6825.63
6825.6
6825.5
6825.37
6825.03
6825.23
6825.13
6826.08
6826.63
6826.63
6826.62
6827.67
6828.47
6828.66
6828.79
6828.79
6829.59
6830.54
6830.55
6831.07
6832.51
6832.54
6832.54
6833.7
6833.7
6834.89
6836.37
6837.53
6839.03
6840.31
6840.31
6841.53
6842.9
6844
6845.88
6847.18
6848.18
6850.16
6851.34
6853.28
6855.1
6857.61
6859.5
6862.88
6864.97
6869.9
6872.27
6881.13
6881.03
6949.77
7158.49
53515.9
8227.4
7728.77
7458.83
7298.23
7192.46
7118.18
7063.12
7021.22
6988.2
6961.93
6940.41
6922.8
6907.96
6895.6
6884.93
6875.93
6868.02
6861.31
6855.28
6850.16
6845.47
6841.47
6837.82
6834.75
6831.75
6829.22
6826.88
6824.96
6822.97
6821.36
6819.8
6818.55
6817.31
6816.36
6815.2
6814.37
6813.59
6813.02
6812.13
6811.66
6811.24
6810.85
6809.86
6810.12
6810.12
6810.08
6809.96
6809.82
6809.47
6809.65
6809.54
6810.48
6811.01
6811.01
6811
6812.04
6812.83
6813
6813.14
6813.14
6813.95
6814.89
6814.89
6815.4
6816.83
6816.88
6816.88
6818.03
6818.03
6819.21
6820.69
6821.85
6823.33
6824.63
6824.63
6825.86
6827.22
6828.33
6830.2
6831.52
6832.52
6834.5
6835.68
6837.63
6839.44
6841.96
6843.84
6847.22
6849.31
6854.23
6856.58
6865.44
6865.22
6936.46
7143.85
50661.1
8227.31
7725.72
7452.98
7290.29
7182.98
7107.54
7051.59
7008.98
6975.38
6948.65
6926.73
6908.79
6893.67
6881.06
6870.18
6861.01
6852.93
6846.08
6839.92
6834.69
6829.9
6825.81
6822.08
6818.94
6815.87
6813.28
6810.89
6808.92
6806.88
6805.23
6803.63
6802.34
6801.07
6800.09
6798.9
6798.04
6797.24
6796.65
6795.74
6795.25
6794.81
6794.41
6793.41
6793.64
6793.63
6793.58
6793.45
6793.3
6792.94
6793.1
6792.97
6793.9
6794.41
6794.41
6794.39
6795.42
6796.2
6796.36
6796.5
6796.5
6797.31
6798.25
6798.25
6798.75
6800.17
6800.22
6800.22
6801.37
6801.37
6802.55
6804.01
6805.18
6806.64
6807.97
6807.97
6809.19
6810.56
6811.67
6813.52
6814.87
6815.87
6817.84
6819.03
6820.98
6822.78
6825.31
6827.18
6830.58
6832.65
6837.56
6839.9
6848.75
6848.42
6922.29
7128.22
47902.7
8227.24
7722.54
7446.85
7281.93
7172.98
7096.32
7039.41
6996.05
6961.83
6934.59
6912.25
6893.96
6878.54
6865.67
6854.57
6845.2
6836.95
6829.94
6823.66
6818.31
6813.41
6809.22
6805.4
6802.19
6799.05
6796.39
6793.94
6791.92
6789.83
6788.13
6786.5
6785.17
6783.86
6782.85
6781.63
6780.74
6779.91
6779.31
6778.38
6777.86
6777.39
6776.99
6775.97
6776.17
6776.15
6776.09
6775.94
6775.79
6775.41
6775.55
6775.4
6776.32
6776.81
6776.81
6776.78
6777.81
6778.57
6778.72
6778.86
6778.86
6779.68
6780.6
6780.6
6781.09
6782.51
6782.57
6782.57
6783.71
6783.71
6784.89
6786.33
6787.51
6788.95
6790.3
6790.3
6791.52
6792.89
6794.01
6795.84
6797.21
6798.21
6800.18
6801.38
6803.34
6805.12
6807.66
6809.52
6812.92
6814.99
6819.89
6822.22
6831.05
6830.6
6907.21
7111.56
45243.7
8227.17
7719.23
7440.42
7273.15
7162.47
7084.5
7026.57
6982.41
6947.54
6919.77
6896.98
6878.31
6862.56
6849.42
6838.08
6828.5
6820.07
6812.9
6806.47
6801
6795.99
6791.7
6787.78
6784.49
6781.27
6778.55
6776.03
6773.95
6771.81
6770.06
6768.39
6767.01
6765.67
6764.62
6763.37
6762.46
6761.6
6760.97
6760.01
6759.47
6758.98
6758.56
6757.53
6757.69
6757.67
6757.6
6757.44
6757.28
6756.88
6757
6756.83
6757.74
6758.2
6758.2
6758.17
6759.19
6759.93
6760.07
6760.21
6760.22
6761.03
6761.95
6761.95
6762.41
6763.84
6763.9
6763.9
6765.04
6765.03
6766.21
6767.64
6768.82
6770.25
6771.62
6771.62
6772.83
6774.2
6775.32
6777.14
6778.53
6779.53
6781.51
6782.71
6784.67
6786.44
6788.99
6790.84
6794.25
6796.31
6801.2
6803.51
6812.33
6811.75
6891.22
7093.86
42686.7
8227.11
7715.8
7433.72
7263.96
7151.45
7072.09
7013.08
6968.06
6932.5
6904.16
6880.9
6861.83
6845.74
6832.3
6820.71
6810.91
6802.29
6794.95
6788.36
6782.75
6777.62
6773.22
6769.21
6765.82
6762.53
6759.73
6757.14
6755
6752.81
6751.01
6749.29
6747.87
6746.48
6745.4
6744.12
6743.17
6742.28
6741.62
6740.65
6740.08
6739.57
6739.14
6738.09
6738.21
6738.18
6738.09
6737.92
6737.75
6737.34
6737.44
6737.25
6738.14
6738.57
6738.57
6738.54
6739.54
6740.27
6740.39
6740.54
6740.54
6741.36
6742.27
6742.27
6742.72
6744.14
6744.21
6744.2
6745.33
6745.33
6746.5
6747.92
6749.11
6750.51
6751.9
6751.9
6753.12
6754.49
6755.61
6757.41
6758.83
6759.83
6761.8
6763.01
6764.97
6766.73
6769.29
6771.13
6774.54
6776.59
6781.47
6783.76
6792.57
6791.86
6874.29
7075.08
40234.1
8227.07
7712.25
7426.74
7254.37
7139.91
7059.08
6998.94
6953.01
6916.72
6887.77
6864
6844.51
6828.06
6814.32
6802.45
6792.41
6783.58
6776.06
6769.32
6763.56
6758.3
6753.79
6749.67
6746.19
6742.81
6739.94
6737.28
6735.07
6732.82
6730.97
6729.19
6727.73
6726.3
6725.18
6723.86
6722.88
6721.95
6721.27
6720.27
6719.68
6719.14
6718.69
6717.62
6717.72
6717.67
6717.56
6717.37
6717.2
6716.78
6716.85
6716.63
6717.51
6717.91
6717.91
6717.87
6718.87
6719.58
6719.68
6719.84
6719.84
6720.66
6721.56
6721.56
6721.98
6723.4
6723.47
6723.47
6724.6
6724.59
6725.76
6727.16
6728.36
6729.74
6731.15
6731.15
6732.36
6733.73
6734.86
6736.63
6738.08
6739.08
6741.05
6742.27
6744.24
6745.98
6748.55
6750.38
6753.79
6755.83
6760.7
6762.97
6771.77
6770.93
6856.39
7055.2
37887.8
8227.05
7708.59
7419.49
7244.37
7127.87
7045.49
6984.14
6937.26
6900.19
6870.6
6846.3
6826.36
6809.52
6795.45
6783.29
6773.01
6763.96
6756.25
6749.33
6743.43
6738.03
6733.39
6729.16
6725.58
6722.11
6719.16
6716.42
6714.15
6711.83
6709.92
6708.09
6706.58
6705.1
6703.94
6702.59
6701.57
6700.6
6699.89
6698.87
6698.25
6697.68
6697.22
6696.14
6696.19
6696.13
6696
6695.79
6695.61
6695.18
6695.22
6694.98
6695.84
6696.22
6696.21
6696.17
6697.15
6697.84
6697.93
6698.09
6698.09
6698.91
6699.8
6699.8
6700.2
6701.62
6701.69
6701.69
6702.81
6702.81
6703.97
6705.35
6706.56
6707.91
6709.35
6709.35
6710.56
6711.92
6713.06
6714.81
6716.28
6717.28
6719.25
6720.48
6722.44
6724.18
6726.75
6728.57
6731.99
6734.01
6738.86
6741.11
6749.91
6748.93
6837.49
7034.19
35649.4
8227.04
7704.82
7411.98
7233.97
7115.32
7031.31
6968.7
6920.8
6882.91
6852.65
6827.78
6807.36
6790.12
6775.7
6763.24
6752.69
6743.41
6735.49
6728.4
6722.33
6716.79
6712.02
6707.67
6703.99
6700.42
6697.38
6694.56
6692.22
6689.84
6687.87
6685.97
6684.41
6682.88
6681.68
6680.29
6679.23
6678.23
6677.49
6676.43
6675.78
6675.18
6674.7
6673.61
6673.62
6673.54
6673.4
6673.17
6672.98
6672.53
6672.55
6672.28
6673.12
6673.47
6673.47
6673.41
6674.38
6675.04
6675.11
6675.29
6675.29
6676.1
6676.98
6676.98
6677.36
6678.78
6678.86
6678.85
6679.96
6679.96
6681.12
6682.48
6683.69
6685.02
6686.48
6686.49
6687.69
6689.05
6690.2
6691.92
6693.42
6694.42
6696.38
6697.62
6699.59
6701.3
6703.89
6705.69
6709.11
6711.13
6715.96
6718.19
6726.97
6725.86
6817.57
7012
33520.3
8227.06
7700.96
7404.21
7223.18
7102.27
7016.55
6952.6
6903.63
6864.88
6833.9
6808.44
6787.52
6769.85
6755.06
6742.28
6731.46
6721.93
6713.8
6706.51
6700.27
6694.57
6689.67
6685.19
6681.4
6677.73
6674.6
6671.69
6669.27
6666.82
6664.79
6662.84
6661.22
6659.64
6658.39
6656.95
6655.86
6654.81
6654.04
6652.96
6652.28
6651.64
6651.15
6650.04
6650
6649.9
6649.74
6649.49
6649.29
6648.84
6648.82
6648.52
6649.35
6649.66
6649.66
6649.59
6650.55
6651.19
6651.24
6651.42
6651.42
6652.24
6653.1
6653.1
6653.46
6654.87
6654.95
6654.95
6656.05
6656.05
6657.21
6658.54
6659.76
6661.06
6662.54
6662.55
6663.75
6665.11
6666.26
6667.96
6669.48
6670.48
6672.44
6673.68
6675.66
6677.36
6679.95
6681.74
6685.16
6687.16
6691.98
6694.19
6702.96
6701.71
6796.59
6988.6
31501.5
8227.1
7697
7396.2
7212.01
7088.74
7001.21
6935.85
6885.76
6846.1
6814.37
6788.28
6766.84
6748.71
6733.53
6720.42
6709.3
6699.51
6691.15
6683.66
6677.24
6671.38
6666.34
6661.73
6657.82
6654.04
6650.82
6647.81
6645.31
6642.79
6640.69
6638.67
6636.99
6635.35
6634.06
6632.58
6631.44
6630.35
6629.54
6628.43
6627.72
6627.04
6626.53
6625.41
6625.33
6625.2
6625.02
6624.75
6624.54
6624.08
6624.03
6623.69
6624.5
6624.78
6624.78
6624.7
6625.65
6626.26
6626.29
6626.48
6626.48
6627.29
6628.14
6628.14
6628.48
6629.88
6629.97
6629.97
6631.06
6631.06
6632.21
6633.52
6634.75
6636.02
6637.52
6637.53
6638.73
6640.08
6641.24
6642.92
6644.46
6645.46
6647.42
6648.66
6650.64
6652.32
6654.93
6656.7
6660.12
6662.11
6666.91
6669.09
6677.84
6676.46
6774.52
6963.94
29593.8
8227.16
7692.97
7387.96
7200.47
7074.72
6985.29
6918.46
6867.2
6826.57
6794.06
6767.31
6745.3
6726.7
6711.11
6697.64
6686.21
6676.15
6667.56
6659.85
6653.24
6647.21
6642.02
6637.26
6633.23
6629.34
6626.01
6622.92
6620.33
6617.73
6615.55
6613.46
6611.73
6610.03
6608.68
6607.16
6605.97
6604.84
6603.99
6602.85
6602.1
6601.39
6600.86
6599.72
6599.6
6599.43
6599.24
6598.95
6598.72
6598.25
6598.17
6597.8
6598.58
6598.84
6598.83
6598.74
6599.67
6600.24
6600.27
6600.46
6600.46
6601.27
6602.1
6602.1
6602.42
6603.81
6603.9
6603.9
6604.98
6604.98
6606.13
6607.41
6608.65
6609.89
6611.41
6611.42
6612.62
6613.97
6615.14
6616.78
6618.35
6619.34
6621.3
6622.55
6624.53
6626.2
6628.8
6630.56
6633.98
6635.96
6640.74
6642.89
6651.63
6650.11
6751.33
6937.99
27797.7
8227.25
7688.86
7379.49
7188.57
7060.22
6968.81
6900.43
6847.93
6806.3
6772.96
6745.51
6722.92
6703.81
6687.8
6673.95
6662.2
6651.85
6643
6635.07
6628.26
6622.05
6616.7
6611.8
6607.63
6603.63
6600.19
6596.99
6594.31
6591.63
6589.38
6587.22
6585.42
6583.66
6582.26
6580.68
6579.45
6578.27
6577.38
6576.2
6575.42
6574.67
6574.12
6572.96
6572.79
6572.59
6572.38
6572.06
6571.83
6571.34
6571.23
6570.82
6571.58
6571.8
6571.8
6571.69
6572.61
6573.14
6573.16
6573.35
6573.35
6574.16
6574.96
6574.97
6575.26
6576.65
6576.74
6576.74
6577.81
6577.8
6578.95
6580.2
6581.45
6582.66
6584.2
6584.22
6585.4
6586.75
6587.93
6589.54
6591.13
6592.13
6594.08
6595.33
6597.32
6598.96
6601.58
6603.32
6606.74
6608.7
6613.46
6615.59
6624.3
6622.66
6726.96
6910.73
26113.9
8227.36
7684.68
7370.81
7176.31
7045.25
6951.78
6881.77
6827.97
6785.29
6751.07
6722.9
6699.69
6680.06
6663.59
6649.35
6637.26
6626.61
6617.49
6609.32
6602.31
6595.91
6590.38
6585.33
6581.02
6576.89
6573.34
6570.04
6567.26
6564.49
6562.16
6559.93
6558.06
6556.23
6554.77
6553.14
6551.86
6550.63
6549.7
6548.49
6547.66
6546.87
6546.3
6545.12
6544.9
6544.67
6544.44
6544.09
6543.85
6543.34
6543.21
6542.75
6543.49
6543.68
6543.68
6543.55
6544.45
6544.95
6544.96
6545.15
6545.15
6545.95
6546.73
6546.74
6547.01
6548.38
6548.48
6548.48
6549.53
6549.53
6550.68
6551.9
6553.15
6554.32
6555.89
6555.9
6557.09
6558.43
6559.61
6561.2
6562.81
6563.8
6565.75
6567
6568.99
6570.62
6573.24
6574.96
6578.37
6580.32
6585.06
6587.16
6595.85
6594.09
6701.34
6882.12
24542.5
8227.51
7680.45
7361.93
7163.71
7029.83
6934.19
6862.48
6807.33
6763.54
6728.41
6699.47
6675.62
6655.43
6638.49
6623.84
6611.38
6600.42
6591.02
6582.6
6575.37
6568.77
6563.07
6557.85
6553.4
6549.14
6545.47
6542.05
6539.18
6536.31
6533.9
6531.58
6529.64
6527.74
6526.23
6524.54
6523.21
6521.92
6520.95
6519.7
6518.83
6518
6517.4
6516.2
6515.93
6515.66
6515.41
6515.04
6514.78
6514.26
6514.1
6513.6
6514.3
6514.46
6514.46
6514.31
6515.19
6515.65
6515.66
6515.85
6515.84
6516.63
6517.4
6517.41
6517.65
6519.01
6519.11
6519.11
6520.15
6520.15
6521.29
6522.48
6523.74
6524.88
6526.47
6526.48
6527.66
6528.99
6530.18
6531.74
6533.36
6534.36
6536.3
6537.56
6539.55
6541.15
6543.77
6545.48
6548.89
6550.82
6555.53
6557.6
6566.27
6564.39
6674.41
6852.14
23082.8
8227.68
7676.18
7352.85
7150.78
7013.97
6916.06
6842.58
6786.01
6741.06
6704.97
6675.23
6650.7
6629.94
6612.5
6597.41
6584.58
6573.28
6563.59
6554.91
6547.44
6540.64
6534.75
6529.36
6524.76
6520.36
6516.57
6513.02
6510.05
6507.09
6504.59
6502.18
6500.17
6498.2
6496.62
6494.87
6493.49
6492.14
6491.13
6489.83
6488.92
6488.04
6487.42
6486.19
6485.87
6485.56
6485.29
6484.89
6484.62
6484.07
6483.89
6483.34
6484.01
6484.14
6484.14
6483.97
6484.83
6485.25
6485.25
6485.44
6485.42
6486.21
6486.95
6486.96
6487.19
6488.53
6488.63
6488.63
6489.66
6489.65
6490.79
6491.94
6493.22
6494.31
6495.93
6495.93
6497.11
6498.43
6499.64
6501.16
6502.8
6503.79
6505.73
6506.99
6508.98
6510.56
6513.19
6514.88
6518.27
6520.19
6524.88
6526.92
6535.55
6533.56
6646.12
6820.76
21729.4
8227.89
7671.86
7343.6
7137.54
6997.67
6897.4
6822.07
6764.01
6717.85
6680.77
6650.19
6624.95
6603.58
6585.62
6570.08
6556.85
6545.2
6535.21
6526.25
6518.54
6511.51
6505.43
6499.86
6495.1
6490.55
6486.63
6482.96
6479.87
6476.81
6474.22
6471.73
6469.64
6467.58
6465.94
6464.13
6462.69
6461.28
6460.22
6458.88
6457.93
6457
6456.35
6455.09
6454.72
6454.37
6454.07
6453.64
6453.35
6452.79
6452.58
6451.99
6452.62
6452.72
6452.72
6452.52
6453.36
6453.74
6453.74
6453.92
6453.9
6454.68
6455.4
6455.41
6455.6
6456.94
6457.04
6457.03
6458.05
6458.04
6459.18
6460.29
6461.57
6462.63
6464.26
6464.26
6465.44
6466.75
6467.96
6469.45
6471.11
6472.1
6474.03
6475.29
6477.28
6478.84
6481.47
6483.14
6486.52
6488.43
6493.08
6495.09
6503.69
6501.59
6616.4
6787.95
20477.1
8228.13
7667.52
7334.19
7123.99
6980.95
6878.23
6800.97
6741.36
6693.93
6655.8
6624.35
6598.37
6576.36
6557.85
6541.84
6528.2
6516.18
6505.86
6496.62
6488.65
6481.4
6475.11
6469.35
6464.42
6459.72
6455.66
6451.86
6448.66
6445.49
6442.8
6440.21
6438.04
6435.91
6434.19
6432.32
6430.82
6429.34
6428.23
6426.85
6425.85
6424.87
6424.18
6422.9
6422.48
6422.09
6421.76
6421.3
6420.99
6420.41
6420.18
6419.54
6420.13
6420.2
6420.19
6419.96
6420.78
6421.12
6421.12
6421.29
6421.26
6422.03
6422.72
6422.73
6422.9
6424.22
6424.32
6424.32
6425.31
6425.31
6426.44
6427.51
6428.8
6429.82
6431.46
6431.47
6432.64
6433.93
6435.16
6436.61
6438.29
6439.28
6441.2
6442.45
6444.45
6445.99
6448.61
6450.26
6453.63
6455.52
6460.14
6462.12
6470.68
6468.49
6585.18
6753.69
19320.6
8228.41
7663.16
7324.63
7110.16
6963.83
6858.56
6779.28
6718.05
6669.31
6630.09
6597.71
6570.96
6548.29
6529.21
6512.69
6498.62
6486.22
6475.57
6466.02
6457.79
6450.29
6443.79
6437.83
6432.72
6427.86
6423.66
6419.72
6416.4
6413.12
6410.33
6407.64
6405.38
6403.16
6401.37
6399.43
6397.87
6396.33
6395.16
6393.73
6392.68
6391.65
6390.93
6389.62
6389.14
6388.7
6388.34
6387.85
6387.53
6386.92
6386.66
6385.98
6386.52
6386.56
6386.56
6386.29
6387.09
6387.39
6387.39
6387.55
6387.5
6388.27
6388.93
6388.94
6389.08
6390.38
6390.48
6390.48
6391.46
6391.45
6392.58
6393.61
6394.9
6395.88
6397.54
6397.54
6398.71
6399.99
6401.23
6402.64
6404.33
6405.32
6407.23
6408.48
6410.48
6411.99
6414.61
6416.25
6419.6
6421.47
6426.06
6428
6436.52
6434.24
6552.43
6717.94
18254.4
8228.72
7658.79
7314.94
7096.07
6946.31
6838.39
6757.02
6694.11
6643.99
6603.63
6570.3
6542.73
6519.37
6499.69
6482.65
6468.13
6455.32
6444.32
6434.46
6425.95
6418.2
6411.47
6405.3
6400.01
6394.99
6390.63
6386.55
6383.1
6379.7
6376.8
6374.01
6371.66
6369.35
6367.48
6365.47
6363.84
6362.23
6361.01
6359.52
6358.43
6357.33
6356.58
6355.24
6354.71
6354.22
6353.83
6353.3
6352.96
6352.32
6352.04
6351.31
6351.8
6351.83
6351.81
6351.51
6352.28
6352.54
6352.54
6352.69
6352.62
6353.38
6354.01
6354.02
6354.14
6355.42
6355.52
6355.51
6356.47
6356.47
6357.59
6358.58
6359.88
6360.8
6362.48
6362.48
6363.65
6364.91
6366.16
6367.53
6369.23
6370.22
6372.12
6373.36
6375.36
6376.85
6379.47
6381.08
6384.42
6386.27
6390.82
6392.74
6401.2
6398.84
6518.07
6680.69
17272.9
8229.07
7654.42
7305.13
7081.72
6928.43
6817.75
6734.2
6669.54
6617.99
6576.44
6542.11
6513.7
6489.61
6469.31
6451.73
6436.73
6423.5
6412.13
6401.94
6393.13
6385.12
6378.16
6371.77
6366.29
6361.09
6356.57
6352.34
6348.76
6345.23
6342.22
6339.33
6336.88
6334.48
6332.53
6330.44
6328.74
6327.06
6325.78
6324.23
6323.09
6321.93
6321.14
6319.77
6319.18
6318.64
6318.22
6317.65