/*--------------------------------*- C++ -*----------------------------------*\
| =========                 |                                                 |
| \\      /  F ield         | OpenFOAM: The Open Source CFD Toolbox           |
|  \\    /   O peration     | Version:  v2012                                 |
|   \\  /    A nd           | Website:  www.openfoam.com                      |
|    \\/     M anipulation  |                                                 |
\*---------------------------------------------------------------------------*/
FoamFile
{
    version     2.0;
    format      ascii;
    class       volScalarField;
    location    "11.5";
    object      yPlus;
}
// * * * * * * * * * * * * * * * * * * * * * * * * * * * * * * * * * * * * * //

dimensions      [0 0 0 0 0 0 0];


internalField   uniform 0;

boundaryField
{
    inlet
    {
        type            calculated;
        value           uniform 0;
    }
    outlet
    {
        type            calculated;
        value           uniform 0;
    }
    topWall
    {
        type            calculated;
        value           nonuniform List<scalar> 
545
(
0.0916687
0.158142
0.202865
0.238429
0.268496
0.294789
0.318257
0.339498
0.35892
0.376817
0.393406
0.40886
0.423313
0.436875
0.449636
0.461674
0.473053
0.483829
0.494051
0.50376
0.512996
0.52179
0.530173
0.538172
0.545811
0.553113
0.560097
0.566782
0.573185
0.579321
0.585205
0.59085
0.596269
0.601473
0.606472
0.611278
0.615898
0.620343
0.624619
0.628736
0.632699
0.636517
0.640195
0.64374
0.647158
0.650453
0.653631
0.656697
0.659656
0.662511
0.665268
0.667929
0.6705
0.672983
0.675382
0.6777
0.679941
0.682106
0.6842
0.686225
0.688183
0.690076
0.691908
0.693681
0.695396
0.697055
0.698661
0.700216
0.701721
0.703179
0.70459
0.705956
0.707261
0.708523
0.709772
0.711011
0.712238
0.713455
0.71466
0.715855
0.717038
0.718211
0.719374
0.720526
0.721668
0.7228
0.723922
0.725034
0.726135
0.727227
0.72831
0.729383
0.730446
0.7315
0.732544
0.733582
0.734508
0.735334
0.736159
0.736984
0.737808
0.738631
0.739453
0.740275
0.741096
0.741916
0.742735
0.743553
0.74437
0.745187
0.746003
0.746818
0.747632
0.748445
0.749257
0.750068
0.750879
0.751688
0.752497
0.753304
0.754111
0.754917
0.755721
0.756525
0.757328
0.758129
0.75893
0.75973
0.760528
0.761326
0.762122
0.762918
0.763712
0.764506
0.765298
0.766089
0.766879
0.767667
0.768455
0.769242
0.770027
0.770811
0.771594
0.772376
0.773157
0.773936
0.774714
0.775491
0.776267
0.777041
0.777814
0.778586
0.779357
0.780126
0.780894
0.78166
0.782426
0.783189
0.783952
0.784713
0.785473
0.786231
0.786988
0.787744
0.788498
0.78925
0.790002
0.790751
0.791499
0.792246
0.792991
0.793735
0.794477
0.795218
0.795957
0.796694
0.79743
0.798165
0.798897
0.799628
0.800358
0.801086
0.801812
0.802536
0.803259
0.80398
0.804699
0.805417
0.806133
0.806847
0.807559
0.80827
0.808979
0.809686
0.810391
0.811094
0.811796
0.812495
0.813193
0.813889
0.814583
0.815275
0.815965
0.816654
0.81734
0.818024
0.818706
0.819387
0.820065
0.820741
0.821415
0.822088
0.822758
0.823426
0.824092
0.824755
0.825417
0.826077
0.826734
0.827389
0.828042
0.828693
0.829342
0.829988
0.830632
0.831274
0.831914
0.832551
0.833186
0.833819
0.834449
0.835078
0.835703
0.836327
0.836947
0.837566
0.838182
0.838796
0.839407
0.840016
0.840622
0.841226
0.841827
0.842426
0.843022
0.843616
0.844207
0.844795
0.845381
0.845965
0.846545
0.847123
0.847699
0.848271
0.848841
0.849408
0.849973
0.850535
0.851094
0.85165
0.852203
0.852754
0.853302
0.853847
0.854389
0.854929
0.855465
0.855998
0.85653
0.857024
0.857488
0.857954
0.858421
0.858891
0.859363
0.859836
0.860311
0.860789
0.861267
0.861748
0.86223
0.862714
0.863199
0.863686
0.864174
0.864663
0.865153
0.865645
0.866138
0.866631
0.867126
0.867622
0.868118
0.868615
0.869112
0.86961
0.870109
0.870607
0.871106
0.871605
0.872104
0.872603
0.873102
0.873601
0.874099
0.874596
0.875093
0.875589
0.876084
0.876578
0.877071
0.877562
0.878052
0.878541
0.879027
0.879512
0.879995
0.880476
0.880954
0.881429
0.881903
0.882373
0.88284
0.883304
0.883764
0.884221
0.884675
0.885124
0.885569
0.88601
0.886446
0.886878
0.887304
0.887726
0.888142
0.888552
0.888957
0.889356
0.889748
0.890134
0.890513
0.890885
0.89125
0.891607
0.891957
0.892298
0.892631
0.892956
0.893272
0.893579
0.893877
0.894164
0.894442
0.89471
0.894967
0.895214
0.895449
0.895673
0.895886
0.896086
0.896274
0.896449
0.896612
0.896761
0.896897
0.897019
0.897126
0.897219
0.897297
0.89736
0.897407
0.897439
0.897454
0.897453
0.897435
0.8974
0.897347
0.897276
0.897187
0.897079
0.896953
0.896807
0.896641
0.896456
0.89625
0.896024
0.895777
0.895508
0.895218
0.894906
0.894572
0.894215
0.893835
0.893432
0.893005
0.892554
0.89208
0.89158
0.891057
0.890507
0.889933
0.889333
0.888707
0.888055
0.887377
0.886672
0.88594
0.88518
0.884394
0.88358
0.882738
0.881868
0.88097
0.880043
0.879088
0.878105
0.877093
0.876051
0.874981
0.873882
0.872754
0.871597
0.87041
0.869195
0.86795
0.866676
0.865373
0.864041
0.86268
0.86129
0.859872
0.858424
0.856949
0.855444
0.853912
0.852352
0.850764
0.849148
0.847505
0.845834
0.844137
0.842413
0.840663
0.838887
0.837085
0.835258
0.833407
0.83153
0.829631
0.827707
0.825548
0.823164
0.820782
0.818399
0.816019
0.813641
0.811267
0.808897
0.806533
0.804177
0.801828
0.799488
0.797157
0.794837
0.792529
0.790233
0.78795
0.785681
0.783426
0.781186
0.778963
0.776755
0.774565
0.772393
0.770239
0.768103
0.765987
0.76389
0.761814
0.759759
0.757725
0.755713
0.753723
0.751755
0.749811
0.74789
0.745992
0.744119
0.742271
0.740448
0.738649
0.736877
0.735131
0.733411
0.731717
0.73005
0.728411
0.726799
0.725215
0.723659
0.722131
0.720631
0.719161
0.717719
0.716306
0.714923
0.71357
0.712246
0.710953
0.70969
0.708457
0.707255
0.706084
0.704944
0.703835
0.702758
0.701712
0.700699
0.699717
0.698767
0.69785
0.696966
0.696114
0.695295
0.694509
0.693756
0.693037
0.692351
0.691699
0.691081
0.690497
0.689947
0.689432
0.688952
0.688506
0.688096
0.68772
0.687379
0.687072
0.686799
0.686557
0.686346
0.686161
0.68603
0.685863
)
;
    }
    bottomWall
    {
        type            calculated;
        value           nonuniform List<scalar> 
449
(
0.139617
0.0890643
0.0759123
0.0695554
0.0654078
0.0623599
0.0600354
0.0583724
0.0575728
0.0580618
0.0613552
0.0651663
0.0676824
0.0690448
0.0697646
0.070133
0.0702794
0.0702686
0.0701461
0.0699586
0.0697236
0.0694588
0.0691772
0.0688854
0.0685903
0.0682945
0.0680021
0.0677134
0.067431
0.0671545
0.0668854
0.066623
0.0663681
0.0661204
0.0658803
0.0656472
0.0654214
0.0652023
0.0649901
0.064784
0.0645845
0.0643903
0.0642026
0.0640191
0.0638421
0.0636688
0.0635017
0.0633377
0.0631798
0.0630245
0.0628748
0.0627277
0.0625856
0.0624458
0.0623107
0.0621778
0.062049
0.0619226
0.0617998
0.061679
0.0615618
0.0614463
0.0613344
0.0612237
0.0611166
0.0610106
0.0609078
0.0608063
0.0607076
0.0606104
0.0605155
0.0604224
0.060331
0.0602414
0.0601534
0.0600672
0.0599825
0.0598995
0.0598177
0.0597378
0.0596587
0.0595816
0.0595054
0.0594311
0.0593577
0.0592854
0.0592148
0.0591447
0.0590766
0.0590084
0.0589428
0.0588768
0.058813
0.058749
0.0586867
0.0586249
0.0585644
0.0585044
0.0584452
0.0583872
0.0583295
0.058273
0.0582173
0.058163
0.058109
0.0580563
0.0580036
0.0579523
0.0579012
0.0578508
0.0578011
0.0577524
0.057704
0.0576564
0.0576094
0.0575632
0.0575171
0.0574724
0.0574282
0.0573847
0.057342
0.0572999
0.0572579
0.0572166
0.0571758
0.0571352
0.0570952
0.0570557
0.0570167
0.0569782
0.0569402
0.0569025
0.0568659
0.0568292
0.0567938
0.0567584
0.0567237
0.0566891
0.056655
0.0566209
0.0565873
0.0565538
0.0565206
0.056488
0.0564549
0.056423
0.0563907
0.0563591
0.0563267
0.0562953
0.0562635
0.0562331
0.0562031
0.0561742
0.0561461
0.0561183
0.0560912
0.0560638
0.0560367
0.0560096
0.0559825
0.0559557
0.0559295
0.0559031
0.0558773
0.0558524
0.0558271
0.0558023
0.0557776
0.0557526
0.0557275
0.0557029
0.0556791
0.0556561
0.0556347
0.0556133
0.0555918
0.0555711
0.0555499
0.0555287
0.0555072
0.0554849
0.0554629
0.0554413
0.0554202
0.0554001
0.0553804
0.0553605
0.0553412
0.055322
0.0553026
0.0552837
0.0552648
0.0552456
0.0552269
0.055208
0.0551888
0.0551703
0.0551515
0.0551326
0.0551141
0.0550956
0.0550768
0.0550586
0.0550401
0.0550216
0.0550038
0.0549852
0.0549673
0.0549487
0.05493
0.0549118
0.0548934
0.0548755
0.0548586
0.0548406
0.0548233
0.0548057
0.0547867
0.0547692
0.0547516
0.0547346
0.0547181
0.0547011
0.054685
0.0546687
0.0546527
0.0546371
0.0546214
0.0546061
0.0545912
0.0545751
0.0545589
0.0545425
0.0545256
0.0545093
0.0544947
0.0544793
0.0544643
0.0544492
0.054433
0.0544188
0.0544046
0.0543904
0.0543758
0.0543626
0.0543478
0.0543332
0.0543189
0.0543045
0.0542911
0.0542776
0.0542652
0.0542512
0.0542375
0.0542252
0.0542122
0.0541993
0.0541862
0.0541734
0.0541597
0.0541461
0.0541316
0.0541177
0.0541055
0.0540922
0.0540792
0.0540665
0.0540537
0.0540402
0.0540263
0.0540126
0.0539998
0.053988
0.0539752
0.0539621
0.0539504
0.0539368
0.0539227
0.0539109
0.0538979
0.0538842
0.0538725
0.0538597
0.0538461
0.0538342
0.0538213
0.0538079
0.0537954
0.0537819
0.0537689
0.0537558
0.0537423
0.0537301
0.0537171
0.0537039
0.0536912
0.0536794
0.0536653
0.0536514
0.0536394
0.0536261
0.053612
0.0535999
0.0535865
0.0535737
0.053561
0.0535475
0.0535356
0.0535228
0.0535093
0.0534977
0.0534848
0.0534713
0.0534595
0.0534466
0.0534332
0.0534218
0.0534093
0.0533963
0.0533851
0.0533726
0.0533597
0.0533485
0.053336
0.0533232
0.0533121
0.0532996
0.0532869
0.0532758
0.0532634
0.0532507
0.0532397
0.0532273
0.0532148
0.0532038
0.0531916
0.0531791
0.053168
0.0531563
0.0531438
0.0531329
0.0531206
0.053109
0.0530965
0.0530845
0.0530743
0.0530629
0.0530512
0.0530412
0.0530294
0.0530185
0.0530073
0.0529964
0.0529846
0.0529721
0.0529613
0.0529492
0.0529376
0.0529244
0.0529127
0.0529008
0.0528894
0.0528787
0.0528684
0.0528567
0.052845
0.0528346
0.0528244
0.0528131
0.052803
0.0527924
0.0527828
0.0527738
0.0527644
0.0527565
0.0527474
0.0527389
0.0527295
0.0527204
0.0527115
0.0527037
0.0526951
0.0526868
0.0526795
0.052671
0.0526631
0.052655
0.0526476
0.0526399
0.0526326
0.052626
0.052618
0.0526109
0.0526029
0.0525959
0.0525892
0.0525819
0.0525757
0.0525688
0.0525619
0.0525547
0.0525481
0.0525424
0.0525355
0.0525293
0.0525231
0.0525167
0.0525114
0.0525052
0.0524998
0.0524939
0.052489
0.0524836
0.0524779
0.0524732
0.0524678
0.0524625
0.0524578
0.0524515
0.0524463
0.0524415
0.052436
0.0524313
0.0524263
0.052421
0.0524168
0.0524122
0.0524071
0.0524032
0.0523983
0.0523943
0.05239
0.0523864
0.0523825
0.0523778
0.0523739
0.0523701
0.0523656
0.0523615
0.0523575
0.0523533
0.0523496
0.0523463
0.0523411
0.0523383
0.0523322
0.0523343
0.0523227
)
;
    }
    symmetry
    {
        type            symmetryPlane;
    }
    frontAndBack
    {
        type            empty;
    }
}


// ************************************************************************* //
