/*--------------------------------*- C++ -*----------------------------------*\
| =========                 |                                                 |
| \\      /  F ield         | OpenFOAM: The Open Source CFD Toolbox           |
|  \\    /   O peration     | Version:  v2012                                 |
|   \\  /    A nd           | Website:  www.openfoam.com                      |
|    \\/     M anipulation  |                                                 |
\*---------------------------------------------------------------------------*/
FoamFile
{
    version     2.0;
    format      ascii;
    class       volScalarField;
    location    "35.5";
    object      k;
}
// * * * * * * * * * * * * * * * * * * * * * * * * * * * * * * * * * * * * * //

dimensions      [0 2 -2 0 0 0 0];


internalField   nonuniform List<scalar> 
209825
(
0.00102473
0.000931171
0.000852811
0.000789256
0.000738576
0.000698363
0.000666035
0.000639827
0.00061813
0.000600065
0.000584695
0.000571621
0.000560243
0.000550419
0.000541701
0.00053409
0.00052723
0.000521198
0.000515684
0.000510812
0.000506299
0.000502304
0.000498555
0.000495231
0.000492079
0.000489287
0.000486614
0.000484244
0.000481953
0.000479936
0.000477958
0.000476222
0.000474505
0.000473011
0.000471515
0.000470227
0.000468916
0.000467794
0.00046664
0.00046566
0.00046464
0.000463786
0.000462882
0.000462138
0.000461333
0.000460682
0.000459966
0.000459393
0.000458759
0.00045826
0.000457695
0.00045726
0.000456763
0.000456384
0.000455939
0.000455607
0.000455223
0.000454934
0.000454587
0.000454348
0.000454042
0.00045383
0.000453565
0.000453398
0.00045315
0.000453008
0.000452791
0.000452676
0.000452481
0.000452381
0.000452202
0.000452114
0.000451976
0.000451918
0.000451818
0.000451789
0.000451725
0.000451741
0.000451735
0.000451805
0.000451806
0.000451905
0.000451946
0.000452078
0.000452149
0.00045232
0.000452414
0.000452633
0.000452748
0.00045304
0.000453163
0.000453632
0.000453697
0.000458442
0.0112407
0.0123315
0.00102473
0.000931171
0.000852811
0.000789257
0.000738575
0.00069836
0.000666031
0.000639822
0.000618123
0.000600058
0.000584686
0.000571611
0.000560233
0.000550407
0.000541689
0.000534078
0.000527217
0.000521184
0.00051567
0.000510798
0.000506285
0.000502289
0.00049854
0.000495215
0.000492064
0.000489271
0.000486598
0.000484227
0.000481936
0.000479919
0.000477941
0.000476205
0.000474488
0.000472993
0.000471497
0.000470209
0.000468898
0.000467776
0.000466621
0.000465642
0.000464621
0.000463768
0.000462864
0.00046212
0.000461314
0.000460663
0.000459947
0.000459374
0.00045874
0.000458241
0.000457675
0.000457241
0.000456744
0.000456364
0.000455919
0.000455588
0.000455203
0.000454915
0.000454567
0.000454328
0.000454022
0.00045381
0.000453546
0.000453379
0.00045313
0.000452988
0.000452772
0.000452656
0.000452461
0.000452361
0.000452182
0.000452094
0.000451956
0.000451898
0.000451798
0.000451769
0.000451705
0.000451721
0.000451714
0.000451785
0.000451786
0.000451885
0.000451926
0.000452058
0.000452128
0.0004523
0.000452393
0.000452612
0.000452728
0.000453019
0.000453142
0.000453611
0.000453676
0.000458428
0.0112508
0.0123446
0.00102473
0.000931173
0.000852813
0.000789255
0.000738567
0.000698346
0.000666011
0.000639796
0.000618092
0.000600022
0.000584646
0.000571568
0.000560186
0.000550358
0.000541637
0.000534023
0.000527161
0.000521126
0.00051561
0.000510736
0.000506222
0.000502225
0.000498475
0.000495149
0.000491996
0.000489203
0.000486529
0.000484158
0.000481866
0.000479848
0.000477869
0.000476133
0.000474415
0.00047292
0.000471423
0.000470135
0.000468823
0.0004677
0.000466546
0.000465566
0.000464545
0.000463691
0.000462787
0.000462042
0.000461237
0.000460585
0.000459869
0.000459296
0.000458662
0.000458162
0.000457596
0.000457161
0.000456664
0.000456284
0.000455839
0.000455508
0.000455123
0.000454834
0.000454487
0.000454247
0.000453941
0.000453729
0.000453464
0.000453297
0.000453048
0.000452906
0.00045269
0.000452574
0.000452379
0.000452279
0.0004521
0.000452012
0.000451873
0.000451815
0.000451715
0.000451686
0.000451622
0.000451638
0.000451631
0.000451701
0.000451702
0.000451801
0.000451842
0.000451973
0.000452044
0.000452215
0.000452308
0.000452527
0.000452642
0.000452934
0.000453056
0.000453525
0.000453589
0.000458355
0.0112723
0.0123733
0.00102473
0.000931177
0.000852816
0.000789252
0.000738555
0.000698322
0.000665977
0.000639752
0.000618039
0.000599961
0.000584579
0.000571494
0.000560108
0.000550274
0.000541549
0.000533932
0.000527066
0.000521028
0.00051551
0.000510633
0.000506116
0.000502117
0.000498365
0.000495038
0.000491883
0.000489088
0.000486413
0.00048404
0.000481747
0.000479728
0.000477748
0.000476011
0.000474292
0.000472796
0.000471299
0.000470009
0.000468697
0.000467574
0.000466418
0.000465438
0.000464416
0.000463562
0.000462657
0.000461912
0.000461106
0.000460454
0.000459737
0.000459163
0.000458529
0.000458029
0.000457463
0.000457028
0.00045653
0.00045615
0.000455705
0.000455373
0.000454988
0.000454699
0.000454351
0.000454111
0.000453805
0.000453592
0.000453327
0.00045316
0.000452911
0.000452769
0.000452552
0.000452436
0.000452241
0.00045214
0.000451961
0.000451873
0.000451734
0.000451676
0.000451576
0.000451547
0.000451482
0.000451497
0.00045149
0.00045156
0.000451561
0.000451659
0.0004517
0.000451831
0.000451901
0.000452072
0.000452165
0.000452383
0.000452499
0.00045279
0.000452912
0.00045338
0.000453444
0.00045823
0.011306
0.0124185
0.00102473
0.000931182
0.000852821
0.000789247
0.000738536
0.000698289
0.000665928
0.000639689
0.000617964
0.000599875
0.000584484
0.000571391
0.000559996
0.000550156
0.000541425
0.000533803
0.000526932
0.00052089
0.000515367
0.000510487
0.000505967
0.000501965
0.00049821
0.000494881
0.000491724
0.000488926
0.000486249
0.000483874
0.00048158
0.000479559
0.000477578
0.000475839
0.000474119
0.000472622
0.000471123
0.000469832
0.000468519
0.000467395
0.000466238
0.000465257
0.000464234
0.000463379
0.000462474
0.000461728
0.000460921
0.000460268
0.000459551
0.000458977
0.000458342
0.000457842
0.000457275
0.000456839
0.000456341
0.00045596
0.000455515
0.000455182
0.000454797
0.000454507
0.000454159
0.000453919
0.000453612
0.000453399
0.000453134
0.000452967
0.000452717
0.000452575
0.000452358
0.000452242
0.000452046
0.000451945
0.000451766
0.000451678
0.000451539
0.00045148
0.00045138
0.00045135
0.000451285
0.0004513
0.000451292
0.000451361
0.000451361
0.00045146
0.0004515
0.000451631
0.0004517
0.000451871
0.000451964
0.000452181
0.000452296
0.000452586
0.000452708
0.000453176
0.000453238
0.000458054
0.0113526
0.012481
0.00102473
0.000931188
0.000852826
0.000789242
0.000738513
0.000698245
0.000665865
0.000639608
0.000617868
0.000599765
0.00058436
0.000571256
0.000559852
0.000550004
0.000541265
0.000533635
0.000526758
0.000520711
0.000515183
0.000510298
0.000505774
0.000501768
0.00049801
0.000494677
0.000491517
0.000488717
0.000486037
0.00048366
0.000481363
0.00047934
0.000477357
0.000475616
0.000473894
0.000472396
0.000470895
0.000469603
0.000468289
0.000467163
0.000466005
0.000465023
0.000463999
0.000463143
0.000462236
0.00046149
0.000460682
0.000460028
0.00045931
0.000458735
0.000458099
0.000457599
0.000457031
0.000456595
0.000456096
0.000455715
0.000455268
0.000454936
0.000454549
0.00045426
0.000453911
0.00045367
0.000453363
0.00045315
0.000452884
0.000452716
0.000452466
0.000452323
0.000452106
0.00045199
0.000451794
0.000451692
0.000451513
0.000451425
0.000451285
0.000451226
0.000451125
0.000451095
0.000451029
0.000451043
0.000451035
0.000451103
0.000451103
0.000451201
0.00045124
0.000451371
0.00045144
0.00045161
0.000451702
0.000451919
0.000452033
0.000452323
0.000452444
0.000452911
0.000452972
0.000457825
0.0114129
0.0125617
0.00102473
0.000931196
0.000852833
0.000789235
0.000738484
0.000698192
0.000665788
0.000639509
0.000617749
0.000599628
0.000584209
0.000571091
0.000559675
0.000549816
0.000541067
0.000533429
0.000526544
0.00052049
0.000514956
0.000510066
0.000505536
0.000501525
0.000497763
0.000494426
0.000491262
0.000488458
0.000485775
0.000483395
0.000481095
0.000479071
0.000477084
0.000475342
0.000473618
0.000472117
0.000470615
0.000469321
0.000468005
0.000466877
0.000465718
0.000464734
0.000463709
0.000462852
0.000461944
0.000461196
0.000460387
0.000459733
0.000459014
0.000458438
0.000457801
0.000457299
0.00045673
0.000456294
0.000455794
0.000455412
0.000454965
0.000454632
0.000454244
0.000453954
0.000453604
0.000453364
0.000453056
0.000452842
0.000452575
0.000452407
0.000452157
0.000452014
0.000451795
0.000451679
0.000451483
0.000451381
0.000451201
0.000451112
0.000450972
0.000450913
0.000450812
0.000450781
0.000450714
0.000450727
0.000450718
0.000450785
0.000450785
0.000450882
0.000450921
0.00045105
0.000451119
0.000451288
0.00045138
0.000451596
0.000451709
0.000451998
0.000452118
0.000452584
0.000452644
0.000457543
0.0114876
0.0126616
0.00102473
0.000931205
0.000852842
0.000789227
0.00073845
0.000698129
0.000665696
0.000639391
0.000617607
0.000599466
0.000584028
0.000570894
0.000559464
0.000549592
0.000540832
0.000533184
0.00052629
0.000520227
0.000514686
0.000509789
0.000505253
0.000501236
0.000497468
0.000494127
0.000490958
0.000488151
0.000485464
0.000483081
0.000480777
0.000478749
0.00047676
0.000475015
0.000473288
0.000471785
0.00047028
0.000468985
0.000467666
0.000466537
0.000465376
0.000464391
0.000463364
0.000462505
0.000461595
0.000460847
0.000460036
0.00045938
0.00045866
0.000458083
0.000457445
0.000456942
0.000456373
0.000455935
0.000455434
0.000455051
0.000454603
0.000454269
0.000453881
0.00045359
0.00045324
0.000452998
0.000452689
0.000452475
0.000452208
0.000452039
0.000451788
0.000451644
0.000451426
0.000451309
0.000451112
0.00045101
0.00045083
0.00045074
0.0004506
0.00045054
0.000450438
0.000450407
0.000450339
0.000450351
0.000450341
0.000450406
0.000450406
0.000450502
0.00045054
0.000450669
0.000450736
0.000450904
0.000450996
0.00045121
0.000451324
0.000451611
0.00045173
0.000452195
0.000452252
0.000457208
0.0115772
0.0127814
0.00102473
0.000931216
0.000852852
0.000789218
0.000738411
0.000698056
0.00066559
0.000639255
0.000617443
0.000599278
0.000583819
0.000570666
0.000559219
0.000549332
0.000540559
0.000532899
0.000525994
0.000519922
0.000514372
0.000509467
0.000504924
0.0005009
0.000497126
0.000493779
0.000490606
0.000487793
0.000485102
0.000482714
0.000480407
0.000478376
0.000476383
0.000474635
0.000472905
0.000471399
0.000469892
0.000468593
0.000467273
0.000466141
0.000464978
0.000463991
0.000462962
0.000462101
0.00046119
0.00046044
0.000459628
0.00045897
0.000458249
0.00045767
0.000457031
0.000456527
0.000455956
0.000455517
0.000455015
0.000454632
0.000454182
0.000453847
0.000453458
0.000453167
0.000452815
0.000452573
0.000452263
0.000452048
0.00045178
0.000451611
0.000451359
0.000451215
0.000450995
0.000450878
0.000450681
0.000450578
0.000450397
0.000450307
0.000450166
0.000450106
0.000450003
0.000449971
0.000449902
0.000449913
0.000449902
0.000449965
0.000449965
0.00045006
0.000450097
0.000450225
0.000450291
0.000450458
0.000450549
0.000450762
0.000450875
0.000451161
0.000451279
0.000451742
0.000451798
0.000456819
0.0116823
0.0129219
0.00102473
0.000931228
0.000852863
0.000789208
0.000738367
0.000697974
0.00066547
0.000639099
0.000617257
0.000599064
0.00058358
0.000570406
0.00055894
0.000549036
0.000540247
0.000532574
0.000525657
0.000519574
0.000514013
0.000509099
0.000504548
0.000500517
0.000496736
0.000493382
0.000490203
0.000487385
0.000484688
0.000482296
0.000479984
0.000477949
0.000475952
0.0004742
0.000472467
0.000470958
0.000469448
0.000468147
0.000466823
0.000465689
0.000464523
0.000463534
0.000462503
0.00046164
0.000460727
0.000459975
0.000459161
0.000458502
0.000457779
0.000457199
0.000456558
0.000456053
0.00045548
0.00045504
0.000454537
0.000454152
0.000453702
0.000453366
0.000452975
0.000452683
0.00045233
0.000452087
0.000451776
0.000451561
0.000451291
0.000451121
0.000450869
0.000450724
0.000450504
0.000450385
0.000450187
0.000450084
0.000449903
0.000449812
0.000449671
0.000449609
0.000449506
0.000449474
0.000449404
0.000449413
0.0004494
0.000449461
0.000449461
0.000449554
0.00044959
0.000449717
0.000449783
0.000449948
0.000450038
0.00045025
0.000450362
0.000450646
0.000450763
0.000451225
0.000451278
0.000456375
0.0118031
0.013084
0.00102473
0.000931242
0.000852876
0.000789198
0.000738318
0.000697881
0.000665335
0.000638925
0.000617048
0.000598823
0.000583312
0.000570113
0.000558626
0.000548703
0.000539897
0.000532208
0.000525277
0.000519182
0.00051361
0.000508686
0.000504125
0.000500085
0.000496296
0.000492935
0.000489749
0.000486925
0.000484222
0.000481825
0.000479508
0.000477468
0.000475467
0.000473711
0.000471974
0.000470462
0.000468947
0.000467643
0.000466317
0.00046518
0.000464011
0.000463019
0.000461986
0.000461121
0.000460205
0.000459451
0.000458635
0.000457974
0.000457249
0.000456668
0.000456025
0.000455518
0.000454944
0.000454503
0.000453998
0.000453612
0.00045316
0.000452823
0.000452431
0.000452138
0.000451784
0.00045154
0.000451228
0.000451011
0.00045074
0.00045057
0.000450316
0.000450171
0.000449949
0.00044983
0.000449632
0.000449528
0.000449346
0.000449255
0.000449113
0.00044905
0.000448946
0.000448913
0.000448841
0.000448849
0.000448835
0.000448893
0.000448893
0.000448985
0.000449019
0.000449145
0.00044921
0.000449374
0.000449462
0.000449673
0.000449783
0.000450066
0.000450182
0.000450642
0.000450692
0.000455876
0.01194
0.0132682
0.00102473
0.000931257
0.000852891
0.000789186
0.000738265
0.000697779
0.000665186
0.000638733
0.000616816
0.000598556
0.000583014
0.000569789
0.000558277
0.000548332
0.000539508
0.000531802
0.000524855
0.000518746
0.000513161
0.000508225
0.000503654
0.000499605
0.000495807
0.000492438
0.000489244
0.000486413
0.000483704
0.000481301
0.000478978
0.000476933
0.000474927
0.000473166
0.000471425
0.000469908
0.00046839
0.000467083
0.000465752
0.000464613
0.000463441
0.000462446
0.00046141
0.000460542
0.000459624
0.000458868
0.000458049
0.000457387
0.000456659
0.000456076
0.000455431
0.000454923
0.000454347
0.000453904
0.000453397
0.00045301
0.000452556
0.000452218
0.000451825
0.00045153
0.000451175
0.00045093
0.000450616
0.000450399
0.000450127
0.000449955
0.000449701
0.000449554
0.000449332
0.000449212
0.000449013
0.000448908
0.000448726
0.000448633
0.00044849
0.000448427
0.000448322
0.000448288
0.000448215
0.000448221
0.000448205
0.00044826
0.00044826
0.000448351
0.000448383
0.000448507
0.000448571
0.000448734
0.000448821
0.00044903
0.000449139
0.00044942
0.000449534
0.000449992
0.000450039
0.000455321
0.0120929
0.0134752
0.00102472
0.000931273
0.000852908
0.000789174
0.000738206
0.000697668
0.000665022
0.000638521
0.000616561
0.000598263
0.000582687
0.000569431
0.000557892
0.000547925
0.000539079
0.000531354
0.00052439
0.000518265
0.000512666
0.000507718
0.000503135
0.000499075
0.000495267
0.000491889
0.000488687
0.000485848
0.000483132
0.000480722
0.000478393
0.000476342
0.000474331
0.000472565
0.000470819
0.000469298
0.000467775
0.000466464
0.00046513
0.000463987
0.000462811
0.000461813
0.000460774
0.000459904
0.000458982
0.000458224
0.000457403
0.000456738
0.000456008
0.000455423
0.000454775
0.000454265
0.000453687
0.000453242
0.000452734
0.000452345
0.00045189
0.00045155
0.000451155
0.000450859
0.000450502
0.000450256
0.000449941
0.000449723
0.000449449
0.000449277
0.000449021
0.000448873
0.00044865
0.000448529
0.000448329
0.000448223
0.00044804
0.000447947
0.000447803
0.000447739
0.000447633
0.000447597
0.000447524
0.000447527
0.000447509
0.000447562
0.000447561
0.00044765
0.000447681
0.000447804
0.000447866
0.000448026
0.000448113
0.000448319
0.000448428
0.000448706
0.000448819
0.000449275
0.000449318
0.00045471
0.0122616
0.0137056
0.00102472
0.000931291
0.000852926
0.000789162
0.000738143
0.000697548
0.000664845
0.000638291
0.000616283
0.000597943
0.00058233
0.000569041
0.000557473
0.000547479
0.00053861
0.000530864
0.000523881
0.000517739
0.000512125
0.000507163
0.000502567
0.000498495
0.000494677
0.000491289
0.000488077
0.00048523
0.000482506
0.000480089
0.000477753
0.000475696
0.000473678
0.000471907
0.000470155
0.00046863
0.000467102
0.000465786
0.000464448
0.000463301
0.000462122
0.000461121
0.000460077
0.000459204
0.00045828
0.000457518
0.000456694
0.000456027
0.000455294
0.000454707
0.000454057
0.000453545
0.000452965
0.000452518
0.000452007
0.000451617
0.00045116
0.000450818
0.000450422
0.000450125
0.000449766
0.000449518
0.000449202
0.000448982
0.000448707
0.000448533
0.000448276
0.000448127
0.000447903
0.000447781
0.00044758
0.000447473
0.00044729
0.000447196
0.000447051
0.000446985
0.000446877
0.000446841
0.000446766
0.000446767
0.000446747
0.000446796
0.000446795
0.000446882
0.000446911
0.000447032
0.000447093
0.000447252
0.000447337
0.000447541
0.000447648
0.000447924
0.000448035
0.000448488
0.000448529
0.000454041
0.0124456
0.0139599
0.00102472
0.000931311
0.000852946
0.000789149
0.000738076
0.000697418
0.000664653
0.000638042
0.000615982
0.000597597
0.000581943
0.000568618
0.000557018
0.000546995
0.000538101
0.000530332
0.000523329
0.000517168
0.000511537
0.00050656
0.000501949
0.000497865
0.000494035
0.000490636
0.000487415
0.000484558
0.000481825
0.0004794
0.000477057
0.000474992
0.000472968
0.000471191
0.000469433
0.000467903
0.00046637
0.000465049
0.000463706
0.000462555
0.000461372
0.000460367
0.00045932
0.000458443
0.000457515
0.000456751
0.000455924
0.000455253
0.000454518
0.000453928
0.000453276
0.000452762
0.000452179
0.00045173
0.000451217
0.000450825
0.000450365
0.000450022
0.000449623
0.000449325
0.000448964
0.000448715
0.000448397
0.000448176
0.000447899
0.000447724
0.000447465
0.000447316
0.00044709
0.000446967
0.000446764
0.000446657
0.000446472
0.000446377
0.000446231
0.000446164
0.000446055
0.000446018
0.000445942
0.00044594
0.000445917
0.000445964
0.000445962
0.000446047
0.000446074
0.000446193
0.000446252
0.000446409
0.000446492
0.000446694
0.0004468
0.000447073
0.000447182
0.000447633
0.000447669
0.000453314
0.012644
0.0142384
0.00102472
0.000931332
0.000852968
0.000789136
0.000738005
0.000697279
0.000664448
0.000637774
0.000615659
0.000597223
0.000581525
0.000568161
0.000556527
0.000546473
0.000537551
0.000529758
0.000522733
0.000516552
0.000510902
0.000505908
0.000501282
0.000497184
0.000493341
0.00048993
0.000486698
0.000483832
0.000481089
0.000478656
0.000476304
0.000474232
0.000472201
0.000470417
0.000468653
0.000467116
0.000465578
0.000464252
0.000462904
0.000461748
0.00046056
0.000459551
0.0004585
0.00045762
0.000456688
0.00045592
0.00045509
0.000454417
0.000453678
0.000453086
0.00045243
0.000451914
0.000451328
0.000450877
0.000450361
0.000449967
0.000449506
0.000449161
0.000448759
0.000448459
0.000448096
0.000447846
0.000447526
0.000447303
0.000447024
0.000446848
0.000446588
0.000446437
0.00044621
0.000446085
0.000445882
0.000445773
0.000445588
0.000445492
0.000445344
0.000445276
0.000445166
0.000445127
0.00044505
0.000445046
0.000445019
0.000445063
0.000445059
0.000445142
0.000445167
0.000445284
0.000445341
0.000445496
0.000445578
0.000445777
0.000445881
0.000446152
0.000446259
0.000446706
0.000446739
0.000452529
0.0128558
0.0145415
0.00102472
0.000931354
0.000852992
0.000789123
0.000737929
0.000697132
0.000664229
0.000637488
0.000615313
0.000596824
0.000581078
0.000567672
0.000556
0.000545913
0.000536961
0.000529141
0.000522092
0.000515889
0.00051022
0.000505207
0.000500565
0.000496452
0.000492595
0.000489172
0.000485927
0.00048305
0.000480297
0.000477855
0.000475494
0.000473414
0.000471375
0.000469584
0.000467813
0.00046627
0.000464725
0.000463394
0.00046204
0.00046088
0.000459686
0.000458673
0.000457617
0.000456734
0.000455797
0.000455026
0.000454192
0.000453516
0.000452774
0.000452178
0.00045152
0.000451001
0.000450412
0.000449959
0.00044944
0.000449044
0.00044858
0.000448233
0.000447829
0.000447527
0.000447162
0.000446909
0.000446588
0.000446364
0.000446082
0.000445905
0.000445643
0.000445491
0.000445262
0.000445136
0.000444931
0.000444822
0.000444635
0.000444538
0.000444389
0.00044432
0.000444208
0.000444167
0.000444088
0.000444082
0.000444053
0.000444092
0.000444088
0.000444168
0.000444191
0.000444306
0.000444361
0.000444513
0.000444593
0.00044479
0.000444892
0.000445159
0.000445264
0.000445709
0.000445738
0.000451683
0.0130794
0.0148692
0.00102471
0.000931378
0.000853018
0.00078911
0.00073785
0.000696976
0.000663996
0.000637184
0.000614944
0.000596397
0.000580601
0.00056715
0.000555437
0.000545315
0.00053633
0.000528482
0.000521406
0.00051518
0.000509489
0.000504457
0.000499798
0.000495668
0.000491796
0.000488359
0.000485102
0.000482213
0.000479449
0.000476996
0.000474626
0.000472537
0.000470489
0.000468691
0.000466913
0.000465363
0.000463811
0.000462474
0.000461114
0.000459949
0.00045875
0.000457732
0.000456671
0.000455784
0.000454843
0.000454068
0.00045323
0.00045255
0.000451804
0.000451206
0.000450544
0.000450022
0.00044943
0.000448974
0.000448453
0.000448054
0.000447587
0.000447238
0.000446831
0.000446528
0.00044616
0.000445906
0.000445582
0.000445356
0.000445072
0.000444894
0.00044463
0.000444476
0.000444245
0.000444118
0.000443912
0.000443801
0.000443613
0.000443515
0.000443365
0.000443294
0.00044318
0.000443138
0.000443058
0.000443049
0.000443016
0.000443052
0.000443046
0.000443124
0.000443144
0.000443256
0.000443309
0.000443459
0.000443537
0.000443731
0.000443831
0.000444095
0.000444198
0.000444639
0.000444664
0.000450776
0.0133129
0.0152214
0.00102471
0.000931403
0.000853046
0.000789098
0.000737768
0.000696811
0.00066375
0.000636862
0.000614553
0.000595945
0.000580094
0.000566594
0.000554838
0.000544677
0.000535659
0.000527779
0.000520676
0.000514424
0.000508711
0.000503658
0.000498979
0.000494832
0.000490944
0.000487492
0.000484222
0.00048132
0.000478544
0.000476081
0.0004737
0.000471602
0.000469545
0.000467739
0.000465952
0.000464395
0.000462836
0.000461493
0.000460126
0.000458955
0.000457751
0.000456728
0.000455662
0.000454769
0.000453824
0.000453045
0.000452202
0.000451519
0.000450769
0.000450167
0.000449501
0.000448976
0.000448381
0.000447922
0.000447398
0.000446997
0.000446527
0.000446175
0.000445766
0.000445461
0.00044509
0.000444834
0.000444507
0.00044428
0.000443994
0.000443813
0.000443548
0.000443392
0.00044316
0.000443031
0.000442823
0.000442711
0.000442522
0.000442422
0.00044227
0.000442198
0.000442082
0.000442038
0.000441956
0.000441945
0.000441908
0.000441941
0.000441933
0.000442008
0.000442026
0.000442135
0.000442186
0.000442333
0.000442409
0.0004426
0.000442698
0.000442959
0.000443058
0.000443496
0.000443517
0.000449807
0.0135538
0.0155977
0.00102471
0.00093143
0.000853076
0.000789086
0.000737682
0.000696639
0.000663492
0.000636522
0.00061414
0.000595466
0.000579557
0.000566005
0.000554204
0.000544002
0.000534946
0.000527034
0.0005199
0.000513622
0.000507884
0.000502809
0.00049811
0.000493944
0.000490039
0.000486571
0.000483286
0.000480371
0.000477582
0.000475107
0.000472715
0.000470607
0.000468541
0.000466726
0.00046493
0.000463366
0.000461799
0.000460448
0.000459075
0.000457898
0.000456687
0.000455659
0.000454587
0.00045369
0.000452739
0.000451956
0.000451109
0.000450421
0.000449667
0.000449062
0.000448392
0.000447864
0.000447265
0.000446803
0.000446275
0.000445872
0.000445399
0.000445045
0.000444632
0.000444325
0.000443951
0.000443693
0.000443364
0.000443135
0.000442846
0.000442664
0.000442396
0.000442239
0.000442004
0.000441874
0.000441664
0.000441551
0.00044136
0.000441258
0.000441106
0.000441031
0.000440914
0.000440868
0.000440784
0.00044077
0.00044073
0.000440758
0.000440749
0.00044082
0.000440835
0.000440942
0.00044099
0.000441134
0.000441208
0.000441395
0.000441491
0.000441748
0.000441846
0.000442279
0.000442296
0.000448775
0.0137994
0.0159976
0.00102471
0.000931458
0.000853109
0.000789075
0.000737593
0.000696459
0.00066322
0.000636165
0.000613705
0.000594962
0.00057899
0.000565384
0.000553533
0.000543287
0.000534193
0.000526245
0.00051908
0.000512773
0.000507009
0.00050191
0.000497189
0.000493004
0.00048908
0.000485596
0.000482294
0.000479365
0.000476563
0.000474076
0.000471671
0.000469553
0.000467476
0.000465652
0.000463847
0.000462274
0.000460699
0.000459341
0.000457961
0.000456777
0.00045556
0.000454526
0.000453448
0.000452545
0.000451589
0.000450801
0.000449949
0.000449257
0.000448499
0.00044789
0.000447216
0.000446684
0.000446081
0.000445616
0.000445084
0.000444678
0.000444201
0.000443845
0.000443429
0.000443119
0.000442743
0.000442482
0.00044215
0.000441919
0.000441627
0.000441443
0.000441173
0.000441014
0.000440777
0.000440646
0.000440434
0.000440319
0.000440127
0.000440024
0.000439869
0.000439793
0.000439673
0.000439625
0.00043954
0.000439523
0.000439479
0.000439504
0.000439492
0.000439559
0.000439572
0.000439676
0.000439721
0.000439862
0.000439934
0.000440117
0.000440211
0.000440464
0.000440558
0.000440987
0.000441001
0.000447677
0.0140462
0.0164199
0.0010247
0.000931487
0.000853144
0.000789064
0.000737502
0.000696272
0.000662937
0.000635791
0.000613249
0.000594431
0.000578394
0.000564729
0.000552827
0.000542535
0.000533399
0.000525413
0.000518215
0.000511877
0.000506085
0.000500961
0.000496217
0.00049201
0.000488067
0.000484565
0.000481247
0.000478302
0.000475486
0.000472985
0.000470569
0.000468438
0.00046635
0.000464516
0.000462702
0.00046112
0.000459536
0.000458171
0.000456782
0.000455591
0.000454367
0.000453327
0.000452243
0.000451335
0.000450373
0.00044958
0.000448722
0.000448026
0.000447263
0.00044665
0.000445971
0.000445436
0.000444829
0.00044436
0.000443825
0.000443415
0.000442935
0.000442575
0.000442156
0.000441844
0.000441464
0.000441201
0.000440866
0.000440633
0.000440338
0.000440152
0.00043988
0.000439719
0.00043948
0.000439346
0.000439133
0.000439016
0.000438822
0.000438717
0.000438561
0.000438483
0.000438361
0.000438311
0.000438223
0.000438204
0.000438156
0.000438176
0.000438162
0.000438225
0.000438235
0.000438336
0.000438379
0.000438516
0.000438585
0.000438765
0.000438856
0.000439105
0.000439197
0.00043962
0.00043963
0.000446514
0.0142903
0.0168633
0.0010247
0.000931518
0.000853181
0.000789055
0.000737408
0.000696079
0.000662641
0.0006354
0.000612771
0.000593876
0.000577769
0.000564043
0.000552085
0.000541744
0.000532564
0.000524539
0.000517304
0.000510934
0.000505113
0.000499962
0.000495193
0.000490964
0.000487
0.000483479
0.000480143
0.000477182
0.00047435
0.000471836
0.000469406
0.000467264
0.000465164
0.000463319
0.000461494
0.000459903
0.00045831
0.000456936
0.000455539
0.000454341
0.000453109
0.000452063
0.000450972
0.000450058
0.000449089
0.000448291
0.000447428
0.000446727
0.000445959
0.000445341
0.000444658
0.000444119
0.000443507
0.000443035
0.000442495
0.000442083
0.000441599
0.000441236
0.000440813
0.000440498
0.000440115
0.000439849
0.000439511
0.000439276
0.000438978
0.00043879
0.000438515
0.000438352
0.00043811
0.000437974
0.000437759
0.00043764
0.000437445
0.000437339
0.00043718
0.0004371
0.000436976
0.000436923
0.000436834
0.000436812
0.000436759
0.000436776
0.000436759
0.000436817
0.000436825
0.000436922
0.000436961
0.000437095
0.000437161
0.000437337
0.000437427
0.000437671
0.000437759
0.000438178
0.000438184
0.000445282
0.0145274
0.0173256
0.00102469
0.000931549
0.000853221
0.000789047
0.000737312
0.000695878
0.000662335
0.000634993
0.000612272
0.000593295
0.000577115
0.000563324
0.000551308
0.000540914
0.000531688
0.000523621
0.000516349
0.000509945
0.000504092
0.000498913
0.000494118
0.000489865
0.000485879
0.000482338
0.000478983
0.000476005
0.000473157
0.000470628
0.000468184
0.000466028
0.000463916
0.00046206
0.000460224
0.000458623
0.00045702
0.000455637
0.000454232
0.000453026
0.000451786
0.000450732
0.000449634
0.000448714
0.000447739
0.000446935
0.000446066
0.00044536
0.000444586
0.000443964
0.000443276
0.000442732
0.000442116
0.00044164
0.000441096
0.00044068
0.000440192
0.000439826
0.000439399
0.000439082
0.000438695
0.000438426
0.000438085
0.000437848
0.000437546
0.000437355
0.000437078
0.000436913
0.000436668
0.00043653
0.000436313
0.000436192
0.000435995
0.000435887
0.000435726
0.000435644
0.000435518
0.000435463
0.00043537
0.000435345
0.000435289
0.000435301
0.000435281
0.000435335
0.000435339
0.000435433
0.000435469
0.000435599
0.000435663
0.000435834
0.000435921
0.000436161
0.000436245
0.000436658
0.000436661
0.00044398
0.0147526
0.0178041
0.00102469
0.000931582
0.000853263
0.00078904
0.000737215
0.000695672
0.000662017
0.00063457
0.000611753
0.00059269
0.000576433
0.000562573
0.000550495
0.000540047
0.000530772
0.000522661
0.000515349
0.000508908
0.000503023
0.000497814
0.000492991
0.000488713
0.000484704
0.000481141
0.000477767
0.000474771
0.000471905
0.000469361
0.000466901
0.000464732
0.000462607
0.000460739
0.000458891
0.00045728
0.000455667
0.000454274
0.000452859
0.000451645
0.000450397
0.000449336
0.00044823
0.000447303
0.000446322
0.000445512
0.000444636
0.000443925
0.000443145
0.000442518
0.000441824
0.000441277
0.000440656
0.000440176
0.000439627
0.000439207
0.000438714
0.000438345
0.000437914
0.000437594
0.000437203
0.000436932
0.000436587
0.000436347
0.000436041
0.000435849
0.000435568
0.000435401
0.000435153
0.000435013
0.000434793
0.000434671
0.000434472
0.000434361
0.000434199
0.000434114
0.000433985
0.000433928
0.000433833
0.000433805
0.000433745
0.000433753
0.000433729
0.000433777
0.000433779
0.000433869
0.000433901
0.000434027
0.000434088
0.000434255
0.000434339
0.000434574
0.000434655
0.000435062
0.000435061
0.000442606
0.0149603
0.0182954
0.00102468
0.000931616
0.000853308
0.000789035
0.000737117
0.00069546
0.000661689
0.000634132
0.000611215
0.00059206
0.000575723
0.00056179
0.000549648
0.000539143
0.000529816
0.000521658
0.000514304
0.000507825
0.000501905
0.000496664
0.000491812
0.000487508
0.000483474
0.000479889
0.000476494
0.000473479
0.000470595
0.000468034
0.000465559
0.000463375
0.000461236
0.000459356
0.000457496
0.000455873
0.000454249
0.000452847
0.000451422
0.000450199
0.000448942
0.000447873
0.000446759
0.000445826
0.000444836
0.00044402
0.000443138
0.000442421
0.000441635
0.000441003
0.000440303
0.000439751
0.000439125
0.00043864
0.000438086
0.000437663
0.000437166
0.000436793
0.000436358
0.000436034
0.00043564
0.000435365
0.000435016