/*--------------------------------*- C++ -*----------------------------------*\
| =========                 |                                                 |
| \\      /  F ield         | OpenFOAM: The Open Source CFD Toolbox           |
|  \\    /   O peration     | Version:  v2012                                 |
|   \\  /    A nd           | Website:  www.openfoam.com                      |
|    \\/     M anipulation  |                                                 |
\*---------------------------------------------------------------------------*/
FoamFile
{
    version     2.0;
    format      ascii;
    class       volScalarField;
    location    "35.5";
    object      nut;
}
// * * * * * * * * * * * * * * * * * * * * * * * * * * * * * * * * * * * * * //

dimensions      [0 2 -1 0 0 0 0];


internalField   nonuniform List<scalar> 
209825
(
1.2493e-07
1.22346e-07
1.16193e-07
1.08612e-07
1.01241e-07
9.47633e-08
8.92402e-08
8.46015e-08
8.06694e-08
7.7345e-08
7.4485e-08
7.20344e-08
6.989e-08
6.80327e-08
6.63798e-08
6.49349e-08
6.36308e-08
6.24837e-08
6.14351e-08
6.05086e-08
5.96507e-08
5.88915e-08
5.81798e-08
5.75484e-08
5.69503e-08
5.64203e-08
5.59138e-08
5.54639e-08
5.50294e-08
5.46472e-08
5.42726e-08
5.39429e-08
5.3617e-08
5.33329e-08
5.30492e-08
5.28036e-08
5.25542e-08
5.23404e-08
5.21207e-08
5.19333e-08
5.17385e-08
5.15737e-08
5.13997e-08
5.12566e-08
5.11019e-08
5.09744e-08
5.08355e-08
5.07247e-08
5.06011e-08
5.05012e-08
5.03921e-08
5.03081e-08
5.02076e-08
5.01313e-08
5.00396e-08
4.99806e-08
4.9898e-08
4.98362e-08
4.97646e-08
4.97047e-08
4.96378e-08
4.95918e-08
4.95262e-08
4.94849e-08
4.94241e-08
4.93835e-08
4.93251e-08
4.92871e-08
4.92383e-08
4.92023e-08
4.91541e-08
4.9118e-08
4.90761e-08
4.90426e-08
4.90089e-08
4.89781e-08
4.89516e-08
4.89282e-08
4.89121e-08
4.88961e-08
4.8879e-08
4.88639e-08
4.88525e-08
4.88386e-08
4.88302e-08
4.8818e-08
4.88107e-08
4.87997e-08
4.87922e-08
4.8783e-08
4.87729e-08
4.87625e-08
4.87435e-08
4.91314e-08
3.68294e-06
2.44215e-08
1.2493e-07
1.22346e-07
1.16194e-07
1.08614e-07
1.01243e-07
9.47656e-08
8.92425e-08
8.46037e-08
8.06714e-08
7.73468e-08
7.44866e-08
7.20359e-08
6.98913e-08
6.80338e-08
6.63809e-08
6.49358e-08
6.36316e-08
6.24844e-08
6.14357e-08
6.05092e-08
5.96511e-08
5.88919e-08
5.81801e-08
5.75486e-08
5.69505e-08
5.64204e-08
5.59139e-08
5.54639e-08
5.50294e-08
5.46472e-08
5.42725e-08
5.39427e-08
5.36168e-08
5.33327e-08
5.3049e-08
5.28033e-08
5.25539e-08
5.23401e-08
5.21203e-08
5.19329e-08
5.17381e-08
5.15733e-08
5.13993e-08
5.12562e-08
5.11014e-08
5.09739e-08
5.08351e-08
5.07242e-08
5.06006e-08
5.05007e-08
5.03916e-08
5.03076e-08
5.02071e-08
5.01307e-08
5.00391e-08
4.998e-08
4.98974e-08
4.98356e-08
4.97639e-08
4.97041e-08
4.96371e-08
4.95912e-08
4.95256e-08
4.94843e-08
4.94235e-08
4.93829e-08
4.93244e-08
4.92865e-08
4.92376e-08
4.92016e-08
4.91534e-08
4.91173e-08
4.90754e-08
4.90419e-08
4.90082e-08
4.89774e-08
4.89509e-08
4.89275e-08
4.89114e-08
4.88953e-08
4.88783e-08
4.88632e-08
4.88517e-08
4.88378e-08
4.88295e-08
4.88172e-08
4.88099e-08
4.8799e-08
4.87914e-08
4.87822e-08
4.87721e-08
4.87617e-08
4.87427e-08
4.9131e-08
3.68331e-06
2.46189e-08
1.24929e-07
1.22348e-07
1.162e-07
1.08622e-07
1.01253e-07
9.47752e-08
8.92516e-08
8.46121e-08
8.06792e-08
7.73538e-08
7.44929e-08
7.20415e-08
6.98963e-08
6.80382e-08
6.63847e-08
6.49392e-08
6.36346e-08
6.2487e-08
6.14379e-08
6.0511e-08
5.96527e-08
5.88932e-08
5.81811e-08
5.75494e-08
5.6951e-08
5.64208e-08
5.59141e-08
5.54639e-08
5.50292e-08
5.46468e-08
5.4272e-08
5.39422e-08
5.36161e-08
5.33319e-08
5.3048e-08
5.28023e-08
5.25528e-08
5.23389e-08
5.2119e-08
5.19315e-08
5.17366e-08
5.15717e-08
5.13977e-08
5.12545e-08
5.10997e-08
5.09721e-08
5.08332e-08
5.07223e-08
5.05987e-08
5.04987e-08
5.03895e-08
5.03054e-08
5.02049e-08
5.01285e-08
5.00368e-08
4.99777e-08
4.98951e-08
4.98333e-08
4.97616e-08
4.97017e-08
4.96347e-08
4.95887e-08
4.95231e-08
4.94818e-08
4.94209e-08
4.93803e-08
4.93219e-08
4.92839e-08
4.9235e-08
4.91989e-08
4.91507e-08
4.91146e-08
4.90727e-08
4.90392e-08
4.90055e-08
4.89746e-08
4.89481e-08
4.89247e-08
4.89085e-08
4.88924e-08
4.88753e-08
4.88602e-08
4.88488e-08
4.88348e-08
4.88264e-08
4.88142e-08
4.88068e-08
4.87959e-08
4.87883e-08
4.8779e-08
4.8769e-08
4.87585e-08
4.87395e-08
4.91288e-08
3.68405e-06
2.49064e-08
1.24928e-07
1.22351e-07
1.1621e-07
1.08636e-07
1.01269e-07
9.47912e-08
8.9267e-08
8.46264e-08
8.06922e-08
7.73656e-08
7.45035e-08
7.20509e-08
6.99046e-08
6.80456e-08
6.63913e-08
6.49449e-08
6.36396e-08
6.24913e-08
6.14417e-08
6.05142e-08
5.96554e-08
5.88954e-08
5.81829e-08
5.75508e-08
5.6952e-08
5.64215e-08
5.59144e-08
5.5464e-08
5.5029e-08
5.46464e-08
5.42713e-08
5.39412e-08
5.3615e-08
5.33305e-08
5.30465e-08
5.28006e-08
5.25509e-08
5.23369e-08
5.21169e-08
5.19292e-08
5.17342e-08
5.15692e-08
5.1395e-08
5.12517e-08
5.10968e-08
5.09691e-08
5.08301e-08
5.07191e-08
5.05954e-08
5.04954e-08
5.03861e-08
5.03019e-08
5.02013e-08
5.01249e-08
5.00331e-08
4.99739e-08
4.98912e-08
4.98294e-08
4.97576e-08
4.96978e-08
4.96307e-08
4.95847e-08
4.95189e-08
4.94776e-08
4.94167e-08
4.93761e-08
4.93176e-08
4.92796e-08
4.92307e-08
4.91946e-08
4.91463e-08
4.91102e-08
4.90683e-08
4.90347e-08
4.9001e-08
4.89701e-08
4.89435e-08
4.892e-08
4.89038e-08
4.88876e-08
4.88705e-08
4.88553e-08
4.88438e-08
4.88299e-08
4.88214e-08
4.88092e-08
4.88018e-08
4.87908e-08
4.87832e-08
4.87739e-08
4.87638e-08
4.87533e-08
4.87342e-08
4.9125e-08
3.68519e-06
2.52544e-08
1.24927e-07
1.22356e-07
1.16223e-07
1.08656e-07
1.01291e-07
9.4814e-08
8.92887e-08
8.46466e-08
8.07106e-08
7.73822e-08
7.45184e-08
7.20642e-08
6.99165e-08
6.80561e-08
6.64005e-08
6.49531e-08
6.36467e-08
6.24975e-08
6.1447e-08
6.05187e-08
5.96592e-08
5.88985e-08
5.81854e-08
5.75528e-08
5.69535e-08
5.64224e-08
5.59149e-08
5.54641e-08
5.50288e-08
5.46458e-08
5.42703e-08
5.394e-08
5.36134e-08
5.33287e-08
5.30444e-08
5.27983e-08
5.25483e-08
5.23341e-08
5.21139e-08
5.19261e-08
5.17308e-08
5.15657e-08
5.13913e-08
5.12479e-08
5.10928e-08
5.0965e-08
5.08258e-08
5.07147e-08
5.05909e-08
5.04907e-08
5.03813e-08
5.02971e-08
5.01963e-08
5.01198e-08
5.00279e-08
4.99686e-08
4.98859e-08
4.9824e-08
4.97522e-08
4.96923e-08
4.96251e-08
4.9579e-08
4.95132e-08
4.94719e-08
4.94109e-08
4.93702e-08
4.93116e-08
4.92736e-08
4.92247e-08
4.91885e-08
4.91402e-08
4.91041e-08
4.90621e-08
4.90285e-08
4.89947e-08
4.89638e-08
4.89371e-08
4.89135e-08
4.88971e-08
4.88808e-08
4.88637e-08
4.88485e-08
4.88369e-08
4.88229e-08
4.88144e-08
4.88021e-08
4.87947e-08
4.87836e-08
4.8776e-08
4.87667e-08
4.87566e-08
4.8746e-08
4.87269e-08
4.91197e-08
3.68676e-06
2.56522e-08
1.24925e-07
1.22362e-07
1.16241e-07
1.08682e-07
1.0132e-07
9.48435e-08
8.9317e-08
8.46728e-08
8.07346e-08
7.74039e-08
7.45378e-08
7.20816e-08
6.99319e-08
6.80698e-08
6.64126e-08
6.49637e-08
6.3656e-08
6.25056e-08
6.14539e-08
6.05247e-08
5.96642e-08
5.89027e-08
5.81888e-08
5.75554e-08
5.69554e-08
5.64238e-08
5.59157e-08
5.54644e-08
5.50285e-08
5.4645e-08
5.42692e-08
5.39384e-08
5.36115e-08
5.33264e-08
5.30418e-08
5.27953e-08
5.25451e-08
5.23306e-08
5.21101e-08
5.1922e-08
5.17265e-08
5.15612e-08
5.13866e-08
5.12429e-08
5.10876e-08
5.09597e-08
5.08203e-08
5.0709e-08
5.0585e-08
5.04848e-08
5.03751e-08
5.02908e-08
5.01899e-08
5.01133e-08
5.00212e-08
4.99619e-08
4.9879e-08
4.9817e-08
4.97451e-08
4.96852e-08
4.96178e-08
4.95717e-08
4.95058e-08
4.94644e-08
4.94033e-08
4.93626e-08
4.9304e-08
4.92658e-08
4.92169e-08
4.91807e-08
4.91324e-08
4.90961e-08
4.90541e-08
4.90205e-08
4.89866e-08
4.89556e-08
4.89288e-08
4.8905e-08
4.88886e-08
4.88721e-08
4.8855e-08
4.88397e-08
4.8828e-08
4.8814e-08
4.88054e-08
4.8793e-08
4.87856e-08
4.87744e-08
4.87668e-08
4.87574e-08
4.87472e-08
4.87365e-08
4.87173e-08
4.91129e-08
3.6888e-06
2.60963e-08
1.24923e-07
1.2237e-07
1.16263e-07
1.08714e-07
1.01356e-07
9.48799e-08
8.93519e-08
8.47053e-08
8.07642e-08
7.74306e-08
7.45619e-08
7.21031e-08
6.9951e-08
6.80867e-08
6.64276e-08
6.49768e-08
6.36675e-08
6.25156e-08
6.14626e-08
6.0532e-08
5.96704e-08
5.89078e-08
5.8193e-08
5.75587e-08
5.69579e-08
5.64255e-08
5.59167e-08
5.54647e-08
5.50282e-08
5.46442e-08
5.42678e-08
5.39365e-08
5.36091e-08
5.33236e-08
5.30386e-08
5.27917e-08
5.25411e-08
5.23262e-08
5.21054e-08
5.19171e-08
5.17213e-08
5.15556e-08
5.13808e-08
5.12369e-08
5.10813e-08
5.09532e-08
5.08136e-08
5.07021e-08
5.05779e-08
5.04774e-08
5.03676e-08
5.02831e-08
5.01821e-08
5.01053e-08
5.00131e-08
4.99535e-08
4.98705e-08
4.98084e-08
4.97365e-08
4.96765e-08
4.9609e-08
4.95627e-08
4.94967e-08
4.94553e-08
4.9394e-08
4.93533e-08
4.92946e-08
4.92563e-08
4.92073e-08
4.91711e-08
4.91227e-08
4.90864e-08
4.90443e-08
4.90106e-08
4.89767e-08
4.89456e-08
4.89186e-08
4.88947e-08
4.88781e-08
4.88614e-08
4.88443e-08
4.88289e-08
4.88171e-08
4.8803e-08
4.87943e-08
4.87819e-08
4.87743e-08
4.87631e-08
4.87554e-08
4.87459e-08
4.87357e-08
4.87249e-08
4.87057e-08
4.91045e-08
3.69132e-06
2.65877e-08
1.24921e-07
1.22379e-07
1.16288e-07
1.08751e-07
1.01399e-07
9.49234e-08
8.93935e-08
8.4744e-08
8.07996e-08
7.74627e-08
7.45906e-08
7.21288e-08
6.99739e-08
6.81071e-08
6.64455e-08
6.49926e-08
6.36813e-08
6.25276e-08
6.1473e-08
6.0541e-08
5.96779e-08
5.89141e-08
5.81981e-08
5.75628e-08
5.6961e-08
5.64277e-08
5.5918e-08
5.54652e-08
5.5028e-08
5.46433e-08
5.42662e-08
5.39344e-08
5.36064e-08
5.33204e-08
5.30348e-08
5.27875e-08
5.25364e-08
5.23211e-08
5.20999e-08
5.19112e-08
5.1715e-08
5.15491e-08
5.13739e-08
5.12297e-08
5.10739e-08
5.09455e-08
5.08056e-08
5.06939e-08
5.05694e-08
5.04688e-08
5.03587e-08
5.0274e-08
5.01727e-08
5.00958e-08
5.00034e-08
4.99436e-08
4.98605e-08
4.97983e-08
4.97262e-08
4.96661e-08
4.95984e-08
4.95521e-08
4.94858e-08
4.94444e-08
4.9383e-08
4.93422e-08
4.92834e-08
4.9245e-08
4.9196e-08
4.91596e-08
4.91112e-08
4.90748e-08
4.90327e-08
4.89988e-08
4.89648e-08
4.89337e-08
4.89065e-08
4.88824e-08
4.88656e-08
4.88486e-08
4.88315e-08
4.88161e-08
4.88041e-08
4.87899e-08
4.87812e-08
4.87686e-08
4.8761e-08
4.87497e-08
4.87419e-08
4.87323e-08
4.8722e-08
4.87111e-08
4.86918e-08
4.90946e-08
3.69434e-06
2.71307e-08
1.24918e-07
1.22389e-07
1.16318e-07
1.08795e-07
1.01449e-07
9.4974e-08
8.94421e-08
8.47892e-08
8.08409e-08
7.75001e-08
7.46242e-08
7.21589e-08
7.00007e-08
6.81308e-08
6.64665e-08
6.50112e-08
6.36975e-08
6.25417e-08
6.14852e-08
6.05514e-08
5.96868e-08
5.89215e-08
5.82041e-08
5.75675e-08
5.69646e-08
5.64302e-08
5.59195e-08
5.54659e-08
5.50277e-08
5.46422e-08
5.42644e-08
5.39319e-08
5.36032e-08
5.33166e-08
5.30304e-08
5.27826e-08
5.2531e-08
5.23153e-08
5.20935e-08
5.19044e-08
5.17078e-08
5.15415e-08
5.1366e-08
5.12214e-08
5.10652e-08
5.09365e-08
5.07963e-08
5.06844e-08
5.05596e-08
5.04587e-08
5.03483e-08
5.02634e-08
5.01619e-08
5.00848e-08
4.99921e-08
4.99321e-08
4.98488e-08
4.97865e-08
4.97142e-08
4.96541e-08
4.95862e-08
4.95397e-08
4.94733e-08
4.94317e-08
4.93702e-08
4.93293e-08
4.92703e-08
4.92319e-08
4.91828e-08
4.91464e-08
4.90978e-08
4.90614e-08
4.90191e-08
4.89852e-08
4.89511e-08
4.89198e-08
4.88925e-08
4.88681e-08
4.88511e-08
4.88337e-08
4.88167e-08
4.88011e-08
4.8789e-08
4.87747e-08
4.87658e-08
4.87531e-08
4.87454e-08
4.8734e-08
4.87261e-08
4.87164e-08
4.87061e-08
4.8695e-08
4.86756e-08
4.90831e-08
3.69786e-06
2.7732e-08
1.24915e-07
1.22401e-07
1.16352e-07
1.08845e-07
1.01506e-07
9.5032e-08
8.94977e-08
8.4841e-08
8.08884e-08
7.7543e-08
7.46629e-08
7.21934e-08
7.00315e-08
6.81582e-08
6.64907e-08
6.50325e-08
6.37162e-08
6.2558e-08
6.14992e-08
6.05635e-08
5.9697e-08
5.893e-08
5.82111e-08
5.75731e-08
5.69688e-08
5.64332e-08
5.59214e-08
5.54667e-08
5.50275e-08
5.46411e-08
5.42625e-08
5.39292e-08
5.35997e-08
5.33124e-08
5.30255e-08
5.27771e-08
5.25249e-08
5.23086e-08
5.20863e-08
5.18968e-08
5.16997e-08
5.15329e-08
5.13569e-08
5.1212e-08
5.10554e-08
5.09264e-08
5.07858e-08
5.06735e-08
5.05484e-08
5.04472e-08
5.03365e-08
5.02514e-08
5.01496e-08
5.00723e-08
4.99792e-08
4.9919e-08
4.98355e-08
4.9773e-08
4.97006e-08
4.96404e-08
4.95722e-08
4.95256e-08
4.94589e-08
4.94173e-08
4.93555e-08
4.93146e-08
4.92555e-08
4.92169e-08
4.91677e-08
4.91312e-08
4.90826e-08
4.9046e-08
4.90037e-08
4.89696e-08
4.89353e-08
4.8904e-08
4.88764e-08
4.88518e-08
4.88346e-08
4.88168e-08
4.87998e-08
4.87841e-08
4.87717e-08
4.87573e-08
4.87483e-08
4.87355e-08
4.87277e-08
4.87161e-08
4.87082e-08
4.86983e-08
4.86879e-08
4.86766e-08
4.86571e-08
4.907e-08
3.70188e-06
2.84007e-08
1.24911e-07
1.22413e-07
1.16391e-07
1.08901e-07
1.0157e-07
9.50974e-08
8.95606e-08
8.48996e-08
8.0942e-08
7.75916e-08
7.47066e-08
7.22326e-08
7.00664e-08
6.81892e-08
6.65182e-08
6.50567e-08
6.37374e-08
6.25765e-08
6.15153e-08
6.05773e-08
5.97087e-08
5.89398e-08
5.82191e-08
5.75795e-08
5.69737e-08
5.64367e-08
5.59236e-08
5.54677e-08
5.50274e-08
5.464e-08
5.42603e-08
5.39261e-08
5.35958e-08
5.33077e-08
5.30201e-08
5.27709e-08
5.2518e-08
5.23011e-08
5.20782e-08
5.18881e-08
5.16905e-08
5.15233e-08
5.13467e-08
5.12014e-08
5.10443e-08
5.09149e-08
5.07739e-08
5.06613e-08
5.05358e-08
5.04343e-08
5.03232e-08
5.02378e-08
5.01357e-08
5.00581e-08
4.99647e-08
4.99042e-08
4.98205e-08
4.97578e-08
4.96852e-08
4.9625e-08
4.95564e-08
4.95097e-08
4.94427e-08
4.94011e-08
4.9339e-08
4.9298e-08
4.92387e-08
4.92e-08
4.91507e-08
4.91141e-08
4.90654e-08
4.90286e-08
4.89862e-08
4.8952e-08
4.89176e-08
4.88861e-08
4.88583e-08
4.88335e-08
4.88159e-08
4.87977e-08
4.87807e-08
4.87648e-08
4.87523e-08
4.87377e-08
4.87286e-08
4.87156e-08
4.87077e-08
4.86959e-08
4.86879e-08
4.86779e-08
4.86673e-08
4.86559e-08
4.86362e-08
4.90553e-08
3.70636e-06
2.91469e-08
1.24907e-07
1.22428e-07
1.16433e-07
1.08963e-07
1.01641e-07
9.51703e-08
8.96308e-08
8.49651e-08
8.1002e-08
7.7646e-08
7.47556e-08
7.22765e-08
7.01055e-08
6.8224e-08
6.6549e-08
6.50838e-08
6.37613e-08
6.25974e-08
6.15333e-08
6.05928e-08
5.97219e-08
5.89509e-08
5.82281e-08
5.75868e-08
5.69793e-08
5.64407e-08
5.59261e-08
5.5469e-08
5.50274e-08
5.46388e-08
5.4258e-08
5.39229e-08
5.35915e-08
5.33026e-08
5.3014e-08
5.27641e-08
5.25104e-08
5.22929e-08
5.20693e-08
5.18786e-08
5.16803e-08
5.15126e-08
5.13355e-08
5.11896e-08
5.10321e-08
5.09022e-08
5.07607e-08
5.06477e-08
5.05218e-08
5.042e-08
5.03084e-08
5.02227e-08
5.01202e-08
5.00424e-08
4.99486e-08
4.98878e-08
4.98039e-08
4.97409e-08
4.96681e-08
4.96078e-08
4.95389e-08
4.94919e-08
4.94247e-08
4.9383e-08
4.93207e-08
4.92796e-08
4.92201e-08
4.91811e-08
4.91318e-08
4.9095e-08
4.90462e-08
4.90093e-08
4.89668e-08
4.89324e-08
4.88979e-08
4.88663e-08
4.88382e-08
4.8813e-08
4.87951e-08
4.87764e-08
4.87595e-08
4.87434e-08
4.87306e-08
4.87159e-08
4.87065e-08
4.86934e-08
4.86853e-08
4.86735e-08
4.86653e-08
4.86552e-08
4.86444e-08
4.86327e-08
4.8613e-08
4.90389e-08
3.71125e-06
2.99828e-08
1.24903e-07
1.22443e-07
1.16479e-07
1.09032e-07
1.0172e-07
9.5251e-08
8.97085e-08
8.50377e-08
8.10686e-08
7.77064e-08
7.48099e-08
7.23252e-08
7.0149e-08
6.82627e-08
6.65832e-08
6.51141e-08
6.37879e-08
6.26206e-08
6.15535e-08
6.06101e-08
5.97366e-08
5.89632e-08
5.82383e-08
5.7595e-08
5.69856e-08
5.64453e-08
5.59291e-08
5.54705e-08
5.50275e-08
5.46376e-08
5.42556e-08
5.39193e-08
5.35869e-08
5.3297e-08
5.30075e-08
5.27567e-08
5.25022e-08
5.22839e-08
5.20595e-08
5.18681e-08
5.16691e-08
5.15008e-08
5.13231e-08
5.11767e-08
5.10185e-08
5.08882e-08
5.07462e-08
5.06327e-08
5.05064e-08
5.04042e-08
5.02921e-08
5.0206e-08
5.01032e-08
5.00251e-08
4.99309e-08
4.98697e-08
4.97855e-08
4.97223e-08
4.96493e-08
4.95888e-08
4.95195e-08
4.94724e-08
4.94048e-08
4.9363e-08
4.93004e-08
4.92592e-08
4.91995e-08
4.91603e-08
4.91109e-08
4.9074e-08
4.9025e-08
4.8988e-08
4.89454e-08
4.89108e-08
4.8876e-08
4.88443e-08
4.8816e-08
4.87905e-08
4.87722e-08
4.8753e-08
4.8736e-08
4.87197e-08
4.87066e-08
4.86917e-08
4.86822e-08
4.86689e-08
4.86607e-08
4.86486e-08
4.86403e-08
4.863e-08
4.86191e-08
4.86072e-08
4.85873e-08
4.90209e-08
3.71644e-06
3.09212e-08
1.24898e-07
1.2246e-07
1.1653e-07
1.09107e-07
1.01807e-07
9.53395e-08
8.9794e-08
8.51175e-08
8.11418e-08
7.77729e-08
7.48699e-08
7.2379e-08
7.0197e-08
6.83054e-08
6.66211e-08
6.51476e-08
6.38173e-08
6.26463e-08
6.15758e-08
6.06294e-08
5.9753e-08
5.8977e-08
5.82497e-08
5.76041e-08
5.69927e-08
5.64505e-08
5.59325e-08
5.54723e-08
5.50277e-08
5.46365e-08
5.42531e-08
5.39156e-08
5.3582e-08
5.3291e-08
5.30004e-08
5.27487e-08
5.24932e-08
5.2274e-08
5.20488e-08
5.18567e-08
5.16569e-08
5.1488e-08
5.13095e-08
5.11626e-08
5.10038e-08
5.0873e-08
5.07304e-08
5.06164e-08
5.04895e-08
5.03869e-08
5.02743e-08
5.01878e-08
5.00845e-08
5.00061e-08
4.99114e-08
4.98499e-08
4.97653e-08
4.97019e-08
4.96286e-08
4.9568e-08
4.94983e-08
4.9451e-08
4.93831e-08
4.93411e-08
4.92782e-08
4.92368e-08
4.91769e-08
4.91376e-08
4.9088e-08
4.90509e-08
4.90018e-08
4.89646e-08
4.89218e-08
4.88871e-08
4.88521e-08
4.88202e-08
4.87917e-08
4.87658e-08
4.8747e-08
4.87274e-08
4.87103e-08
4.86938e-08
4.86804e-08
4.86653e-08
4.86555e-08
4.8642e-08
4.86337e-08
4.86214e-08
4.8613e-08
4.86024e-08
4.85914e-08
4.85791e-08
4.85591e-08
4.90012e-08
3.72181e-06
3.19762e-08
1.24892e-07
1.22478e-07
1.16585e-07
1.09189e-07
1.01901e-07
9.5436e-08
8.98872e-08
8.52047e-08
8.1222e-08
7.78457e-08
7.49356e-08
7.24379e-08
7.02497e-08
6.83523e-08
6.66627e-08
6.51844e-08
6.38496e-08
6.26747e-08
6.16004e-08
6.06506e-08
5.97711e-08
5.89923e-08
5.82623e-08
5.76143e-08
5.70006e-08
5.64564e-08
5.59364e-08
5.54744e-08
5.50282e-08
5.46354e-08
5.42505e-08
5.39117e-08
5.35767e-08
5.32846e-08
5.29928e-08
5.27401e-08
5.24835e-08
5.22635e-08
5.20373e-08
5.18444e-08
5.16438e-08
5.14741e-08
5.12949e-08
5.11473e-08
5.09878e-08
5.08564e-08
5.07132e-08
5.05987e-08
5.04712e-08
5.03681e-08
5.02549e-08
5.01681e-08
5.00642e-08
4.99855e-08
4.98903e-08
4.98283e-08
4.97434e-08
4.96797e-08
4.96061e-08
4.95454e-08
4.94752e-08
4.94276e-08
4.93594e-08
4.93173e-08
4.9254e-08
4.92126e-08
4.91523e-08
4.91128e-08
4.90631e-08
4.90258e-08
4.89766e-08
4.89392e-08
4.88962e-08
4.88613e-08
4.88261e-08
4.8794e-08
4.87653e-08
4.87389e-08
4.87197e-08
4.86995e-08
4.86823e-08
4.86655e-08
4.86518e-08
4.86365e-08
4.86265e-08
4.86128e-08
4.86042e-08
4.85917e-08
4.85831e-08
4.85724e-08
4.85612e-08
4.85485e-08
4.85284e-08
4.89798e-08
3.72715e-06
3.31625e-08
1.24887e-07
1.22497e-07
1.16644e-07
1.09277e-07
1.02003e-07
9.55407e-08
8.99884e-08
8.52996e-08
8.13092e-08
7.7925e-08
7.50071e-08
7.25022e-08
7.03072e-08
6.84035e-08
6.67082e-08
6.52246e-08
6.38851e-08
6.27057e-08
6.16274e-08
6.06739e-08
5.9791e-08
5.90091e-08
5.82762e-08
5.76256e-08
5.70094e-08
5.6463e-08
5.59409e-08
5.5477e-08
5.50288e-08
5.46344e-08
5.42479e-08
5.39076e-08
5.35712e-08
5.32778e-08
5.29847e-08
5.27309e-08
5.24732e-08
5.22521e-08
5.20249e-08
5.18312e-08
5.16296e-08
5.14592e-08
5.12791e-08
5.11308e-08
5.09706e-08
5.08386e-08
5.06946e-08
5.05795e-08
5.04514e-08
5.03479e-08
5.0234e-08
5.01467e-08
5.00424e-08
4.99632e-08
4.98675e-08
4.9805e-08
4.97198e-08
4.96557e-08
4.95818e-08
4.95209e-08
4.94502e-08
4.94024e-08
4.93338e-08
4.92915e-08
4.92278e-08
4.91863e-08
4.91257e-08
4.90859e-08
4.90361e-08
4.89987e-08
4.89492e-08
4.89117e-08
4.88685e-08
4.88334e-08
4.87979e-08
4.87656e-08
4.87367e-08
4.87099e-08
4.869e-08
4.86693e-08
4.8652e-08
4.86349e-08
4.86208e-08
4.86053e-08
4.85951e-08
4.85811e-08
4.85723e-08
4.85596e-08
4.85508e-08
4.85398e-08
4.85285e-08
4.85154e-08
4.84952e-08
4.89566e-08
3.73223e-06
3.44952e-08
1.2488e-07
1.22518e-07
1.16706e-07
1.09371e-07
1.02113e-07
9.56536e-08
9.00978e-08
8.54022e-08
8.14036e-08
7.8011e-08
7.50848e-08
7.2572e-08
7.03696e-08
6.84592e-08
6.67577e-08
6.52684e-08
6.39237e-08
6.27396e-08
6.16569e-08
6.06995e-08
5.98128e-08
5.90276e-08
5.82916e-08
5.76381e-08
5.70192e-08
5.64704e-08
5.5946e-08
5.548e-08
5.50298e-08
5.46335e-08
5.42453e-08
5.39035e-08
5.35655e-08
5.32707e-08
5.29762e-08
5.27212e-08
5.24622e-08
5.22401e-08
5.20118e-08
5.18171e-08
5.16145e-08
5.14433e-08
5.12623e-08
5.11132e-08
5.09521e-08
5.08195e-08
5.06747e-08
5.0559e-08
5.04302e-08
5.03261e-08
5.02116e-08
5.01238e-08
5.00189e-08
4.99393e-08
4.9843e-08
4.978e-08
4.96943e-08
4.96299e-08
4.95557e-08
4.94946e-08
4.94233e-08
4.93753e-08
4.93062e-08
4.92638e-08
4.91997e-08
4.9158e-08
4.90971e-08
4.90571e-08
4.90071e-08
4.89694e-08
4.89198e-08
4.8882e-08
4.88387e-08
4.88033e-08
4.87676e-08
4.87351e-08
4.87059e-08
4.86786e-08
4.86582e-08
4.86369e-08
4.86194e-08
4.8602e-08
4.85875e-08
4.85718e-08
4.85612e-08
4.8547e-08
4.8538e-08
4.85249e-08
4.8516e-08
4.85047e-08
4.84932e-08
4.84797e-08
4.84594e-08
4.89315e-08
3.73673e-06
3.59904e-08
1.24874e-07
1.22539e-07
1.16773e-07
1.09473e-07
1.0223e-07
9.57749e-08
9.02156e-08
8.55127e-08
8.15055e-08
7.81038e-08
7.51687e-08
7.26475e-08
7.04372e-08
6.85196e-08
6.68113e-08
6.5316e-08
6.39656e-08
6.27764e-08
6.1689e-08
6.07273e-08
5.98366e-08
5.90478e-08
5.83084e-08
5.76519e-08
5.70301e-08
5.64786e-08
5.59517e-08
5.54834e-08
5.50311e-08
5.46329e-08
5.42427e-08
5.38992e-08
5.35596e-08
5.32633e-08
5.29673e-08
5.27109e-08
5.24506e-08
5.22273e-08
5.19978e-08
5.18021e-08
5.15985e-08
5.14263e-08
5.12443e-08
5.10944e-08
5.09325e-08
5.07991e-08
5.06535e-08
5.05371e-08
5.04076e-08
5.03029e-08
5.01876e-08
5.00993e-08
4.99937e-08
4.99137e-08
4.98167e-08
4.97532e-08
4.96671e-08
4.96023e-08
4.95277e-08
4.94664e-08
4.93945e-08
4.93463e-08
4.92767e-08
4.92342e-08
4.91695e-08
4.91277e-08
4.90665e-08
4.90261e-08
4.8976e-08
4.8938e-08
4.88882e-08
4.88502e-08
4.88067e-08
4.8771e-08
4.8735e-08
4.87023e-08
4.86728e-08
4.86452e-08
4.8624e-08
4.86021e-08
4.85845e-08
4.85667e-08
4.85518e-08
4.85358e-08
4.85249e-08
4.85103e-08
4.85011e-08
4.84878e-08
4.84787e-08
4.84671e-08
4.84553e-08
4.84413e-08
4.84209e-08
4.89046e-08
3.74028e-06
3.76644e-08
1.24866e-07
1.22562e-07
1.16844e-07
1.0958e-07
1.02356e-07
9.59048e-08
9.03418e-08
8.56314e-08
8.1615e-08
7.82036e-08
7.5259e-08
7.27288e-08
7.05101e-08
6.85847e-08
6.68693e-08
6.53674e-08
6.4011e-08
6.28163e-08
6.17238e-08
6.07575e-08
5.98626e-08
5.90698e-08
5.83268e-08
5.7667e-08
5.70421e-08
5.64878e-08
5.59582e-08
5.54875e-08
5.50328e-08
5.46325e-08
5.42403e-08
5.38949e-08
5.35535e-08
5.32556e-08
5.2958e-08
5.27002e-08
5.24384e-08
5.22139e-08
5.19831e-08
5.17862e-08
5.15815e-08
5.14083e-08
5.12253e-08
5.10744e-08
5.09116e-08
5.07774e-08
5.0631e-08
5.05139e-08
5.03835e-08
5.02782e-08
5.01621e-08
5.00732e-08
4.9967e-08
4.98865e-08
4.97888e-08
4.97247e-08
4.96381e-08
4.95729e-08
4.94978e-08
4.94363e-08
4.93638e-08
4.93153e-08
4.92452e-08
4.92025e-08
4.91374e-08
4.90953e-08
4.90337e-08
4.89931e-08
4.89428e-08
4.89046e-08
4.88545e-08
4.88163e-08
4.87725e-08
4.87366e-08
4.87003e-08
4.86673e-08
4.86375e-08
4.86095e-08
4.85876e-08
4.85651e-08
4.85472e-08
4.85289e-08
4.85136e-08
4.84973e-08
4.8486e-08
4.84712e-08
4.84617e-08
4.84481e-08
4.84388e-08
4.84269e-08
4.84149e-08
4.84003e-08
4.83799e-08
4.88758e-08
3.74241e-06
3.95336e-08
1.24859e-07
1.22585e-07
1.16919e-07
1.09694e-07
1.0249e-07
9.60433e-08
9.04767e-08
8.57585e-08
8.17323e-08
7.83107e-08
7.5356e-08
7.28162e-08
7.05885e-08
6.86548e-08
6.69317e-08
6.54228e-08
6.40599e-08
6.28594e-08
6.17615e-08
6.07902e-08
5.98907e-08
5.90938e-08
5.83469e-08
5.76836e-08
5.70554e-08
5.6498e-08
5.59655e-08
5.54922e-08
5.5035e-08
5.46324e-08
5.4238e-08
5.38907e-08
5.35473e-08
5.32477e-08
5.29483e-08
5.2689e-08
5.24257e-08
5.21998e-08
5.19677e-08
5.17696e-08
5.15636e-08
5.13894e-08
5.12052e-08
5.10534e-08
5.08895e-08
5.07545e-08
5.06071e-08
5.04892e-08
5.0358e-08
5.0252e-08
5.01351e-08
5.00455e-08
4.99386e-08
4.98576e-08
4.97591e-08
4.96944e-08
4.96073e-08
4.95417e-08
4.94661e-08
4.94044e-08
4.93312e-08
4.92823e-08
4.92117e-08
4.91689e-08
4.91032e-08
4.90609e-08
4.89989e-08
4.8958e-08
4.89074e-08
4.8869e-08
4.88187e-08
4.87802e-08
4.87362e-08
4.87e-08
4.86633e-08
4.86301e-08
4.85999e-08
4.85715e-08
4.85488e-08
4.85258e-08
4.85075e-08
4.84888e-08
4.8473e-08
4.84564e-08
4.84447e-08
4.84296e-08
4.84198e-08
4.84059e-08
4.83963e-08
4.83841e-08
4.83718e-08
4.83566e-08
4.83361e-08
4.8845e-08
3.74259e-06
4.16142e-08
1.24851e-07
1.2261e-07
1.16998e-07
1.09815e-07
1.02631e-07
9.61907e-08
9.06205e-08
8.58941e-08
8.18577e-08
7.84253e-08
7.54599e-08
7.29099e-08
7.06726e-08
6.873e-08
6.69988e-08
6.54825e-08
6.41127e-08
6.29059e-08
6.18022e-08
6.08257e-08
5.99213e-08
5.91199e-08
5.83688e-08
5.77017e-08
5.70699e-08
5.65093e-08
5.59737e-08
5.54977e-08
5.50378e-08
5.46327e-08
5.4236e-08
5.38866e-08
5.35411e-08
5.32396e-08
5.29384e-08
5.26775e-08
5.24125e-08
5.21852e-08
5.19515e-08
5.17522e-08
5.15448e-08
5.13695e-08
5.11841e-08
5.10313e-08
5.08663e-08
5.07304e-08
5.0582e-08
5.04632e-08
5.03312e-08
5.02244e-08
5.01066e-08
5.00163e-08
4.99086e-08
4.9827e-08
4.97278e-08
4.96624e-08
4.95747e-08
4.95086e-08
4.94325e-08
4.93705e-08
4.92966e-08
4.92474e-08
4.91763e-08
4.91332e-08
4.90669e-08
4.90245e-08
4.89621e-08
4.89208e-08
4.887e-08
4.88312e-08
4.87807e-08
4.87419e-08
4.86977e-08
4.86611e-08
4.86241e-08
4.85906e-08
4.856e-08
4.85312e-08
4.85078e-08
4.84841e-08
4.84654e-08
4.84462e-08
4.843e-08
4.8413e-08
4.84009e-08
4.83854e-08
4.83753e-08
4.8361e-08
4.83512e-08
4.83386e-08
4.83261e-08
4.83102e-08
4.82897e-08
4.8812e-08
3.74022e-06
4.39229e-08
1.24842e-07
1.22635e-07
1.17081e-07
1.09942e-07
1.02781e-07
9.6347e-08
9.07733e-08
8.60384e-08
8.19913e-08
7.85476e-08
7.55708e-08
7.30101e-08
7.07626e-08
6.88107e-08
6.70708e-08
6.55465e-08
6.41694e-08
6.29559e-08
6.1846e-08
6.08639e-08
5.99543e-08
5.91481e-08
5.83926e-08
5.77215e-08
5.70859e-08
5.65218e-08
5.59829e-08
5.55039e-08
5.50412e-08
5.46335e-08
5.42343e-08
5.38826e-08
5.3535e-08
5.32314e-08
5.29283e-08
5.26656e-08
5.23989e-08
5.217e-08
5.19348e-08
5.17341e-08
5.15253e-08
5.13488e-08
5.1162e-08
5.10081e-08
5.08419e-08
5.07051e-08
5.05556e-08
5.0436e-08
5.03029e-08
5.01954e-08
5.00765e-08
4.99856e-08
4.9877e-08
4.97948e-08
4.96948e-08
4.96287e-08
4.95404e-08
4.94737e-08
4.9397e-08
4.93348e-08
4.92601e-08
4.92106e-08
4.91389e-08
4.90956e-08
4.90287e-08
4.8986e-08
4.89231e-08
4.88815e-08
4.88305e-08
4.87913e-08
4.87406e-08
4.87014e-08
4.86569e-08
4.86201e-08
4.85827e-08
4.85488e-08
4.85179e-08
4.84886e-08
4.84645e-08
4.84401e-08
4.8421e-08
4.84011e-08
4.83845e-08
4.83671e-08
4.83546e-08
4.83387e-08
4.83283e-08
4.83136e-08
4.83035e-08
4.82905e-08
4.82778e-08
4.8261e-08
4.82406e-08
4.87769e-08
3.73462e-06
4.64751e-08
1.24833e-07
1.22661e-07
1.17168e-07
1.10076e-07
1.0294e-07
9.65124e-08
9.09353e-08
8.61917e-08
8.21335e-08
7.86778e-08
7.56891e-08
7.3117e-08
7.08588e-08
6.88969e-08
6.71478e-08
6.56151e-08
6.42302e-08
6.30096e-08
6.18932e-08
6.09051e-08
5.99899e-08
5.91787e-08
5.84185e-08
5.77431e-08
5.71034e-08
5.65356e-08
5.59933e-08
5.55111e-08
5.50453e-08
5.46349e-08
5.4233e-08
5.38789e-08
5.35289e-08
5.32233e-08
5.2918e-08
5.26534e-08
5.23848e-08
5.21543e-08
5.19174e-08
5.17152e-08
5.15049e-08
5.13271e-08
5.1139e-08
5.09839e-08
5.08165e-08
5.06786e-08
5.0528e-08
5.04074e-08
5.02733e-08
5.01649e-08
5.0045e-08
4.99533e-08
4.98438e-08
4.9761e-08
4.96601e-08
4.95932e-08
4.95043e-08
4.94371e-08
4.93597e-08
4.92972e-08
4.92217e-08
4.91719e-08
4.90995e-08
4.9056e-08
4.89884e-08
4.89456e-08
4.88821e-08
4.88401e-08
4.87888e-08
4.87493e-08
4.86983e-08
4.86588e-08
4.8614e-08
4.85769e-08
4.8539e-08
4.85048e-08
4.84734e-08
4.84438e-08
4.84188e-08
4.83938e-08
4.83742e-08
4.83536e-08
4.83365e-08
4.83188e-08
4.83057e-08
4.82895e-08
4.82787e-08
4.82636e-08
4.82532e-08
4.82398e-08
4.82267e-08
4.82091e-08
4.81887e-08
4.87395e-08
3.72505e-06
4.92847e-08
1.24823e-07
1.22688e-07
1.17258e-07
1.10217e-07
1.03107e-07
9.6687e-08
9.11068e-08
8.63541e-08
8.22843e-08
7.88161e-08
7.5815e-08
7.32308e-08
7.09613e-08
6.89889e-08
6.72301e-08
6.56885e-08
6.42954e-08
6.30673e-08
6.19439e-08
6.09494e-08
6.00284e-08
5.92118e-08
5.84466e-08
5.77666e-08
5.71226e-08
5.65509e-08
5.60048e-08
5.55193e-08
5.50502e-08
5.46369e-08
5.42321e-08
5.38756e-08
5.3523e-08
5.32151e-08
5.29076e-08
5.26411e-08
5.23705e-08
5.21382e-08
5.18995e-08
5.16958e-08
5.14838e-08
5.13047e-08
5.11151e-08
5.09587e-08
5.079e-08
5.0651e-08
5.04992e-08
5.03775e-08
5.02423e-08
5.01331e-08
5.00121e-08
4.99196e-08
4.98091e-08
4.97257e-08
4.96237e-08
4.95561e-08
4.94664e-08
4.93986e-08
4.93206e-08
4.92577e-08
4.91814e-08
4.91312e-08
4.90582e-08
4.90144e-08
4.89461e-08
4.8903e-08
4.8839e-08
4.87967e-08
4.8745e-08
4.87052e-08
4.86538e-08
4.8614e-08
4.85689e-08
4.85314e-08
4.84931e-08
4.84586e-08
4.84267e-08
4.83966e-08
4.83709e-08
4.83451e-08
4.8325e-08
4.83037e-08
4.82861e-08
4.82679e-08
4.82543e-08
4.82377e-08
4.82265e-08
4.82109e-08
4.82003e-08
4.81864e-08
4.8173e-08
4.81544e-08
4.81342e-08
4.86998e-08
3.71068e-06
5.23636e-08
1.24813e-07
1.22716e-07
1.17351e-07
1.10363e-07
1.03282e-07
9.68709e-08
9.12877e-08
8.6526e-08
8.24441e-08
7.89629e-08
7.59486e-08
7.33519e-08
7.10704e-08
6.90869e-08
6.73178e-08
6.57668e-08
6.4365e-08
6.3129e-08
6.19982e-08
6.09971e-08
6.00698e-08
5.92475e-08
5.8477e-08
5.77921e-08
5.71436e-08
5.65678e-08
5.60177e-08
5.55287e-08
5.50561e-08
5.46396e-08
5.42319e-08
5.38726e-08
5.35174e-08
5.32071e-08
5.28972e-08
5.26286e-08
5.23559e-08
5.21217e-08
5.18811e-08
5.16758e-08
5.14621e-08
5.12815e-08
5.10904e-08
5.09327e-08
5.07625e-08
5.06224e-08
5.04692e-08
5.03465e-08
5.02101e-08
5.00999e-08
4.99778e-08
4.98844e-08
4.97729e-08
4.96887e-08
4.95858e-08
4.95173e-08
4.94269e-08
4.93585e-08
4.92797e-08
4.92165e-08
4.91392e-08
4.90886e-08
4.9015e-08
4.89709e-08
4.89018e-08
4.88585e-08
4.87939e-08
4.87511e-08
4.86992e-08
4.86589e-08
4.86072e-08
4.85671e-08
4.85216e-08
4.84838e-08
4.8445e-08
4.84101e-08
4.83777e-08
4.83472e-08
4.83207e-08
4.82942e-08
4.82734e-08
4.82513e-08
4.82333e-08
4.82146e-08
4.82004e-08
4.81833e-08
4.81717e-08
4.81557e-08
4.81447e-08
4.81303e-08
4.81166e-08
4.80969e-08
4.80769e-08
4.86575e-08
3.69068e-06
5.57208e-08
1.24803e-07
1.22744e-07
1.17449e-07
1.10517e-07
1.03465e-07
9.70642e-08
9.14784e-08
8.67074e-08
8.26131e-08
7.91183e-08
7.60903e-08
7.34804e-08
7.11863e-08
6.91912e-08
6.74113e-08
6.58504e-08
6.44394e-08
6.3195e-08
6.20564e-08
6.10482e-08
6.01143e-08
5.9286e-08
5.85099e-08
5.78199e-08
5.71666e-08
5.65863e-08
5.60321e-08
5.55393e-08
5.50631e-08
5.46433e-08
5.42323e-08
5.38702e-08
5.35122e-08
5.31994e-08
5.28869e-08
5.26161e-08
5.23411e-08
5.2105e-08
5.18623e-08
5.16553e-08
5.14398e-08
5.12577e-08
5.10648e-08
5.09057e-08
5.07341e-08
5.05927e-08
5.04382e-08
5.03143e-08
5.01766e-08
5.00655e-08
4.99421e-08