/*--------------------------------*- C++ -*----------------------------------*\
| =========                 |                                                 |
| \\      /  F ield         | OpenFOAM: The Open Source CFD Toolbox           |
|  \\    /   O peration     | Version:  v2012                                 |
|   \\  /    A nd           | Website:  www.openfoam.com                      |
|    \\/     M anipulation  |                                                 |
\*---------------------------------------------------------------------------*/
FoamFile
{
    version     2.0;
    format      ascii;
    class       volVectorField;
    location    "35.5";
    object      wallShearStress;
}
// * * * * * * * * * * * * * * * * * * * * * * * * * * * * * * * * * * * * * //

dimensions      [0 2 -2 0 0 0 0];


internalField   uniform (0 0 0);

boundaryField
{
    inlet
    {
        type            calculated;
        value           uniform (0 0 0);
    }
    outlet
    {
        type            calculated;
        value           uniform (0 0 0);
    }
    topWall
    {
        type            calculated;
        value           nonuniform List<vector> 
545
(
(6.46185e-08 -4.54782e-08 0)
(6.46129e-08 -1.27268e-07 0)
(6.45574e-08 -2.12291e-07 0)
(6.44877e-08 -2.94831e-07 0)
(6.44084e-08 -3.73836e-07 0)
(6.43155e-08 -4.50321e-07 0)
(6.42102e-08 -5.24939e-07 0)
(6.4093e-08 -5.97652e-07 0)
(6.39648e-08 -6.68301e-07 0)
(6.38267e-08 -7.36884e-07 0)
(6.36796e-08 -8.0349e-07 0)
(6.35245e-08 -8.68197e-07 0)
(6.33621e-08 -9.31048e-07 0)
(6.31932e-08 -9.92082e-07 0)
(6.30185e-08 -1.05134e-06 0)
(6.28387e-08 -1.10887e-06 0)
(6.26544e-08 -1.16473e-06 0)
(6.24663e-08 -1.21895e-06 0)
(6.22748e-08 -1.27158e-06 0)
(6.20806e-08 -1.32266e-06 0)
(6.1884e-08 -1.37224e-06 0)
(6.16856e-08 -1.42036e-06 0)
(6.14858e-08 -1.46706e-06 0)
(6.1285e-08 -1.51238e-06 0)
(6.10834e-08 -1.55636e-06 0)
(6.08815e-08 -1.59904e-06 0)
(6.06796e-08 -1.64045e-06 0)
(6.04779e-08 -1.68064e-06 0)
(6.02768e-08 -1.71964e-06 0)
(6.00764e-08 -1.75749e-06 0)
(5.98769e-08 -1.79421e-06 0)
(5.96787e-08 -1.82985e-06 0)
(5.94819e-08 -1.86443e-06 0)
(5.92866e-08 -1.89799e-06 0)
(5.9093e-08 -1.93056e-06 0)
(5.89012e-08 -1.96216e-06 0)
(5.87114e-08 -1.99284e-06 0)
(5.85237e-08 -2.02261e-06 0)
(5.83381e-08 -2.0515e-06 0)
(5.81548e-08 -2.07954e-06 0)
(5.79739e-08 -2.10675e-06 0)
(5.77954e-08 -2.13317e-06 0)
(5.76194e-08 -2.15881e-06 0)
(5.74458e-08 -2.1837e-06 0)
(5.72749e-08 -2.20786e-06 0)
(5.71066e-08 -2.23131e-06 0)
(5.69409e-08 -2.25408e-06 0)
(5.67778e-08 -2.27618e-06 0)
(5.66175e-08 -2.29764e-06 0)
(5.64598e-08 -2.31848e-06 0)
(5.63048e-08 -2.33871e-06 0)
(5.61525e-08 -2.35835e-06 0)
(5.60029e-08 -2.37743e-06 0)
(5.5856e-08 -2.39595e-06 0)
(5.57118e-08 -2.41393e-06 0)
(5.55702e-08 -2.4314e-06 0)
(5.54313e-08 -2.44836e-06 0)
(5.5295e-08 -2.46484e-06 0)
(5.51612e-08 -2.48084e-06 0)
(5.50301e-08 -2.49638e-06 0)
(5.49015e-08 -2.51148e-06 0)
(5.47754e-08 -2.52615e-06 0)
(5.46518e-08 -2.54039e-06 0)
(5.45306e-08 -2.55423e-06 0)
(5.44119e-08 -2.56768e-06 0)
(5.42956e-08 -2.58074e-06 0)
(5.41816e-08 -2.59343e-06 0)
(5.40699e-08 -2.60576e-06 0)
(5.39605e-08 -2.61774e-06 0)
(5.38532e-08 -2.62938e-06 0)
(5.37486e-08 -2.6407e-06 0)
(5.36442e-08 -2.65167e-06 0)
(5.35436e-08 -2.66222e-06 0)
(5.34488e-08 -2.67248e-06 0)
(5.33545e-08 -2.6826e-06 0)
(5.32606e-08 -2.69268e-06 0)
(5.31668e-08 -2.70271e-06 0)
(5.3073e-08 -2.71267e-06 0)
(5.29794e-08 -2.72257e-06 0)
(5.28859e-08 -2.73241e-06 0)
(5.27925e-08 -2.74218e-06 0)
(5.26992e-08 -2.7519e-06 0)
(5.2606e-08 -2.76155e-06 0)
(5.25129e-08 -2.77114e-06 0)
(5.24199e-08 -2.78066e-06 0)
(5.2327e-08 -2.79013e-06 0)
(5.22343e-08 -2.79954e-06 0)
(5.21417e-08 -2.80889e-06 0)
(5.20492e-08 -2.81818e-06 0)
(5.19569e-08 -2.82741e-06 0)
(5.18647e-08 -2.83658e-06 0)
(5.17726e-08 -2.8457e-06 0)
(5.16808e-08 -2.85476e-06 0)
(5.15883e-08 -2.86374e-06 0)
(5.14998e-08 -2.87273e-06 0)
(5.13946e-08 -2.88152e-06 0)
(5.12902e-08 -2.88952e-06 0)
(5.12116e-08 -2.89689e-06 0)
(5.11366e-08 -2.904e-06 0)
(5.10621e-08 -2.9111e-06 0)
(5.09875e-08 -2.9183e-06 0)
(5.09126e-08 -2.92552e-06 0)
(5.08374e-08 -2.93273e-06 0)
(5.07618e-08 -2.93994e-06 0)
(5.06859e-08 -2.94715e-06 0)
(5.06097e-08 -2.95438e-06 0)
(5.05331e-08 -2.96161e-06 0)
(5.04561e-08 -2.96885e-06 0)
(5.03788e-08 -2.97609e-06 0)
(5.03012e-08 -2.98333e-06 0)
(5.02232e-08 -2.99059e-06 0)
(5.01448e-08 -2.99785e-06 0)
(5.00661e-08 -3.00511e-06 0)
(4.99871e-08 -3.01238e-06 0)
(4.99076e-08 -3.01966e-06 0)
(4.98279e-08 -3.02694e-06 0)
(4.97477e-08 -3.03423e-06 0)
(4.96673e-08 -3.04152e-06 0)
(4.95864e-08 -3.04882e-06 0)
(4.95052e-08 -3.05612e-06 0)
(4.94236e-08 -3.06343e-06 0)
(4.93417e-08 -3.07075e-06 0)
(4.92594e-08 -3.07807e-06 0)
(4.91768e-08 -3.08539e-06 0)
(4.90937e-08 -3.09272e-06 0)
(4.90103e-08 -3.10005e-06 0)
(4.89266e-08 -3.10739e-06 0)
(4.88425e-08 -3.11473e-06 0)
(4.8758e-08 -3.12208e-06 0)
(4.86731e-08 -3.12943e-06 0)
(4.85879e-08 -3.13679e-06 0)
(4.85023e-08 -3.14415e-06 0)
(4.84164e-08 -3.15152e-06 0)
(4.833e-08 -3.15889e-06 0)
(4.82433e-08 -3.16626e-06 0)
(4.81562e-08 -3.17364e-06 0)
(4.80688e-08 -3.18102e-06 0)
(4.79809e-08 -3.18841e-06 0)
(4.78927e-08 -3.1958e-06 0)
(4.78042e-08 -3.20319e-06 0)
(4.77152e-08 -3.21059e-06 0)
(4.76259e-08 -3.21799e-06 0)
(4.75361e-08 -3.22539e-06 0)
(4.7446e-08 -3.2328e-06 0)
(4.73556e-08 -3.24021e-06 0)
(4.72647e-08 -3.24763e-06 0)
(4.71735e-08 -3.25504e-06 0)
(4.70819e-08 -3.26247e-06 0)
(4.69899e-08 -3.26989e-06 0)
(4.68975e-08 -3.27732e-06 0)
(4.68047e-08 -3.28474e-06 0)
(4.67116e-08 -3.29218e-06 0)
(4.6618e-08 -3.29961e-06 0)
(4.65241e-08 -3.30705e-06 0)
(4.64298e-08 -3.31449e-06 0)
(4.63351e-08 -3.32193e-06 0)
(4.624e-08 -3.32938e-06 0)
(4.61445e-08 -3.33682e-06 0)
(4.60487e-08 -3.34427e-06 0)
(4.59524e-08 -3.35172e-06 0)
(4.58558e-08 -3.35918e-06 0)
(4.57588e-08 -3.36663e-06 0)
(4.56614e-08 -3.37409e-06 0)
(4.55636e-08 -3.38154e-06 0)
(4.54654e-08 -3.389e-06 0)
(4.53668e-08 -3.39647e-06 0)
(4.52678e-08 -3.40393e-06 0)
(4.51684e-08 -3.41139e-06 0)
(4.50686e-08 -3.41886e-06 0)
(4.49685e-08 -3.42632e-06 0)
(4.48679e-08 -3.43379e-06 0)
(4.4767e-08 -3.44125e-06 0)
(4.46656e-08 -3.44872e-06 0)
(4.45639e-08 -3.45619e-06 0)
(4.44618e-08 -3.46366e-06 0)
(4.43593e-08 -3.47113e-06 0)
(4.42563e-08 -3.4786e-06 0)
(4.4153e-08 -3.48607e-06 0)
(4.40493e-08 -3.49354e-06 0)
(4.39452e-08 -3.50101e-06 0)
(4.38407e-08 -3.50848e-06 0)
(4.37358e-08 -3.51595e-06 0)
(4.36305e-08 -3.52342e-06 0)
(4.35248e-08 -3.53089e-06 0)
(4.34187e-08 -3.53836e-06 0)
(4.33122e-08 -3.54582e-06 0)
(4.32054e-08 -3.55329e-06 0)
(4.30981e-08 -3.56076e-06 0)
(4.29904e-08 -3.56822e-06 0)
(4.28823e-08 -3.57569e-06 0)
(4.27739e-08 -3.58315e-06 0)
(4.2665e-08 -3.59061e-06 0)
(4.25557e-08 -3.59807e-06 0)
(4.24461e-08 -3.60553e-06 0)
(4.2336e-08 -3.61298e-06 0)
(4.22255e-08 -3.62044e-06 0)
(4.21147e-08 -3.62789e-06 0)
(4.20034e-08 -3.63534e-06 0)
(4.18918e-08 -3.64279e-06 0)
(4.17798e-08 -3.65023e-06 0)
(4.16673e-08 -3.65768e-06 0)
(4.15545e-08 -3.66512e-06 0)
(4.14412e-08 -3.67255e-06 0)
(4.13276e-08 -3.67999e-06 0)
(4.12136e-08 -3.68742e-06 0)
(4.10992e-08 -3.69485e-06 0)
(4.09844e-08 -3.70228e-06 0)
(4.08692e-08 -3.7097e-06 0)
(4.07536e-08 -3.71712e-06 0)
(4.06376e-08 -3.72453e-06 0)
(4.05212e-08 -3.73194e-06 0)
(4.04044e-08 -3.73935e-06 0)
(4.02872e-08 -3.74675e-06 0)
(4.01697e-08 -3.75415e-06 0)
(4.00517e-08 -3.76155e-06 0)
(3.99333e-08 -3.76894e-06 0)
(3.98146e-08 -3.77633e-06 0)
(3.96955e-08 -3.78371e-06 0)
(3.9576e-08 -3.79108e-06 0)
(3.94561e-08 -3.79846e-06 0)
(3.93358e-08 -3.80582e-06 0)
(3.92151e-08 -3.81318e-06 0)
(3.9094e-08 -3.82054e-06 0)
(3.89726e-08 -3.82789e-06 0)
(3.88507e-08 -3.83524e-06 0)
(3.87285e-08 -3.84258e-06 0)
(3.86059e-08 -3.84991e-06 0)
(3.84829e-08 -3.85724e-06 0)
(3.83595e-08 -3.86456e-06 0)
(3.82358e-08 -3.87187e-06 0)
(3.81116e-08 -3.87918e-06 0)
(3.79871e-08 -3.88648e-06 0)
(3.78622e-08 -3.89378e-06 0)
(3.7737e-08 -3.90106e-06 0)
(3.76113e-08 -3.90834e-06 0)
(3.74853e-08 -3.91562e-06 0)
(3.73589e-08 -3.92288e-06 0)
(3.72322e-08 -3.93014e-06 0)
(3.7105e-08 -3.93739e-06 0)
(3.69775e-08 -3.94464e-06 0)
(3.68496e-08 -3.95187e-06 0)
(3.67214e-08 -3.9591e-06 0)
(3.65928e-08 -3.96632e-06 0)
(3.64638e-08 -3.97353e-06 0)
(3.63345e-08 -3.98073e-06 0)
(3.62048e-08 -3.98792e-06 0)
(3.60747e-08 -3.99511e-06 0)
(3.59443e-08 -4.00228e-06 0)
(3.58135e-08 -4.00945e-06 0)
(3.56823e-08 -4.0166e-06 0)
(3.55508e-08 -4.02375e-06 0)
(3.5419e-08 -4.03089e-06 0)
(3.52868e-08 -4.03802e-06 0)
(3.51542e-08 -4.04513e-06 0)
(3.50213e-08 -4.05224e-06 0)
(3.4888e-08 -4.05934e-06 0)
(3.47544e-08 -4.06643e-06 0)
(3.46205e-08 -4.0735e-06 0)
(3.44862e-08 -4.08057e-06 0)
(3.43516e-08 -4.08762e-06 0)
(3.42166e-08 -4.09467e-06 0)
(3.40813e-08 -4.1017e-06 0)
(3.39456e-08 -4.10872e-06 0)
(3.38097e-08 -4.11573e-06 0)
(3.36733e-08 -4.12272e-06 0)
(3.35368e-08 -4.12972e-06 0)
(3.33994e-08 -4.13667e-06 0)
(3.32647e-08 -4.14369e-06 0)
(3.31205e-08 -4.15055e-06 0)
(3.29739e-08 -4.15706e-06 0)
(3.28448e-08 -4.16339e-06 0)
(3.27218e-08 -4.16959e-06 0)
(3.25976e-08 -4.17578e-06 0)
(3.24725e-08 -4.18209e-06 0)
(3.23459e-08 -4.18845e-06 0)
(3.22179e-08 -4.19486e-06 0)
(3.20885e-08 -4.20129e-06 0)
(3.19577e-08 -4.20777e-06 0)
(3.18254e-08 -4.2143e-06 0)
(3.16917e-08 -4.22087e-06 0)
(3.15565e-08 -4.22748e-06 0)
(3.14198e-08 -4.23413e-06 0)
(3.12816e-08 -4.24083e-06 0)
(3.11419e-08 -4.24757e-06 0)
(3.10007e-08 -4.25435e-06 0)
(3.0858e-08 -4.26118e-06 0)
(3.07137e-08 -4.26805e-06 0)
(3.05679e-08 -4.27496e-06 0)
(3.04205e-08 -4.28191e-06 0)
(3.02716e-08 -4.2889e-06 0)
(3.01211e-08 -4.29593e-06 0)
(2.9969e-08 -4.30301e-06 0)
(2.98152e-08 -4.31012e-06 0)
(2.96599e-08 -4.31728e-06 0)
(2.95029e-08 -4.32447e-06 0)
(2.93443e-08 -4.33171e-06 0)
(2.91841e-08 -4.33898e-06 0)
(2.90221e-08 -4.34629e-06 0)
(2.88585e-08 -4.35364e-06 0)
(2.86933e-08 -4.36103e-06 0)
(2.85263e-08 -4.36845e-06 0)
(2.83577e-08 -4.37591e-06 0)
(2.81873e-08 -4.38341e-06 0)
(2.80152e-08 -4.39094e-06 0)
(2.78414e-08 -4.39851e-06 0)
(2.76658e-08 -4.40611e-06 0)
(2.74885e-08 -4.41375e-06 0)
(2.73095e-08 -4.42142e-06 0)
(2.71286e-08 -4.42912e-06 0)
(2.6946e-08 -4.43685e-06 0)
(2.67617e-08 -4.44461e-06 0)
(2.65755e-08 -4.45241e-06 0)
(2.63875e-08 -4.46023e-06 0)
(2.61978e-08 -4.46808e-06 0)
(2.60062e-08 -4.47596e-06 0)
(2.58128e-08 -4.48387e-06 0)
(2.56176e-08 -4.4918e-06 0)
(2.54206e-08 -4.49976e-06 0)
(2.52218e-08 -4.50774e-06 0)
(2.50211e-08 -4.51574e-06 0)
(2.48186e-08 -4.52377e-06 0)
(2.46142e-08 -4.53182e-06 0)
(2.4408e-08 -4.53988e-06 0)
(2.42e-08 -4.54797e-06 0)
(2.39901e-08 -4.55607e-06 0)
(2.37784e-08 -4.56419e-06 0)
(2.35648e-08 -4.57232e-06 0)
(2.33493e-08 -4.58047e-06 0)
(2.31321e-08 -4.58863e-06 0)
(2.2913e-08 -4.5968e-06 0)
(2.2692e-08 -4.60498e-06 0)
(2.24692e-08 -4.61318e-06 0)
(2.22446e-08 -4.62137e-06 0)
(2.20181e-08 -4.62957e-06 0)
(2.17898e-08 -4.63778e-06 0)
(2.15598e-08 -4.64599e-06 0)
(2.13278e-08 -4.65419e-06 0)
(2.10941e-08 -4.6624e-06 0)
(2.08586e-08 -4.67061e-06 0)
(2.06213e-08 -4.67881e-06 0)
(2.03823e-08 -4.687e-06 0)
(2.01414e-08 -4.69519e-06 0)
(1.98988e-08 -4.70336e-06 0)
(1.96545e-08 -4.71153e-06 0)
(1.94085e-08 -4.71968e-06 0)
(1.91608e-08 -4.72781e-06 0)
(1.89113e-08 -4.73593e-06 0)
(1.86602e-08 -4.74403e-06 0)
(1.84074e-08 -4.7521e-06 0)
(1.81531e-08 -4.76015e-06 0)
(1.78971e-08 -4.76818e-06 0)
(1.76395e-08 -4.77618e-06 0)
(1.73803e-08 -4.78414e-06 0)
(1.71196e-08 -4.79207e-06 0)
(1.68574e-08 -4.79997e-06 0)
(1.65937e-08 -4.80783e-06 0)
(1.63286e-08 -4.81564e-06 0)
(1.6062e-08 -4.82342e-06 0)
(1.5794e-08 -4.83115e-06 0)
(1.55247e-08 -4.83883e-06 0)
(1.52541e-08 -4.84646e-06 0)
(1.49821e-08 -4.85404e-06 0)
(1.4709e-08 -4.86156e-06 0)
(1.44346e-08 -4.86903e-06 0)
(1.4159e-08 -4.87642e-06 0)
(1.38823e-08 -4.88376e-06 0)
(1.36045e-08 -4.89103e-06 0)
(1.33257e-08 -4.89823e-06 0)
(1.30459e-08 -4.90535e-06 0)
(1.27652e-08 -4.91241e-06 0)
(1.24835e-08 -4.91938e-06 0)
(1.2201e-08 -4.92627e-06 0)
(1.19178e-08 -4.93307e-06 0)
(1.16338e-08 -4.93979e-06 0)
(1.13491e-08 -4.94641e-06 0)
(1.10638e-08 -4.95294e-06 0)
(1.0778e-08 -4.95937e-06 0)
(1.04916e-08 -4.96571e-06 0)
(1.02049e-08 -4.97193e-06 0)
(9.91775e-09 -4.97805e-06 0)
(9.63031e-09 -4.98406e-06 0)
(9.34266e-09 -4.98996e-06 0)
(9.05483e-09 -4.99573e-06 0)
(8.76693e-09 -5.00139e-06 0)
(8.47899e-09 -5.00692e-06 0)
(8.19113e-09 -5.01233e-06 0)
(7.90339e-09 -5.0176e-06 0)
(7.61587e-09 -5.02274e-06 0)
(7.32863e-09 -5.02774e-06 0)
(7.04177e-09 -5.03261e-06 0)
(6.75535e-09 -5.03733e-06 0)
(6.46948e-09 -5.0419e-06 0)
(6.18421e-09 -5.04632e-06 0)
(5.89966e-09 -5.05059e-06 0)
(5.61589e-09 -5.05469e-06 0)
(5.33301e-09 -5.05865e-06 0)
(5.05109e-09 -5.06242e-06 0)
(4.77023e-09 -5.06605e-06 0)
(4.49051e-09 -5.06949e-06 0)
(4.21204e-09 -5.07276e-06 0)
(3.9349e-09 -5.07585e-06 0)
(3.65919e-09 -5.07877e-06 0)
(3.38499e-09 -5.0815e-06 0)
(3.11243e-09 -5.08405e-06 0)
(2.84156e-09 -5.0864e-06 0)
(2.57252e-09 -5.08857e-06 0)
(2.30537e-09 -5.09053e-06 0)
(2.04024e-09 -5.09231e-06 0)
(1.7772e-09 -5.09387e-06 0)
(1.51638e-09 -5.09524e-06 0)
(1.25785e-09 -5.09639e-06 0)
(1.00173e-09 -5.09734e-06 0)
(7.48103e-10 -5.09807e-06 0)
(4.97083e-10 -5.0986e-06 0)
(2.48761e-10 -5.0989e-06 0)
(3.23903e-12 -5.09899e-06 0)
(-2.39384e-10 -5.09885e-06 0)
(-4.79012e-10 -5.0985e-06 0)
(-7.15543e-10 -5.09791e-06 0)
(-9.48887e-10 -5.09711e-06 0)
(-1.17894e-09 -5.09606e-06 0)
(-1.40562e-09 -5.0948e-06 0)
(-1.62882e-09 -5.09329e-06 0)
(-1.84846e-09 -5.09156e-06 0)
(-2.06444e-09 -5.08958e-06 0)
(-2.27669e-09 -5.08738e-06 0)
(-2.48511e-09 -5.08493e-06 0)
(-2.68964e-09 -5.08226e-06 0)
(-2.89017e-09 -5.07933e-06 0)
(-3.08664e-09 -5.07618e-06 0)
(-3.27897e-09 -5.07277e-06 0)
(-3.46711e-09 -5.06914e-06 0)
(-3.65096e-09 -5.06525e-06 0)
(-3.83048e-09 -5.06114e-06 0)
(-4.00558e-09 -5.05676e-06 0)
(-4.17623e-09 -5.05217e-06 0)
(-4.34234e-09 -5.04732e-06 0)
(-4.50389e-09 -5.04225e-06 0)
(-4.66079e-09 -5.03692e-06 0)
(-4.81302e-09 -5.03137e-06 0)
(-4.96051e-09 -5.02556e-06 0)
(-5.10323e-09 -5.01954e-06 0)
(-5.2411e-09 -5.01326e-06 0)
(-5.37412e-09 -5.00678e-06 0)
(-5.50219e-09 -5.00003e-06 0)
(-5.62531e-09 -4.99309e-06 0)
(-5.74339e-09 -4.98588e-06 0)
(-5.8564e-09 -4.97851e-06 0)
(-5.9648e-09 -4.97078e-06 0)
(-6.06787e-09 -4.96295e-06 0)
(-6.17003e-09 -4.95409e-06 0)
(-6.27586e-09 -4.94395e-06 0)
(-6.37841e-09 -4.93362e-06 0)
(-6.47279e-09 -4.92324e-06 0)
(-6.55927e-09 -4.91265e-06 0)
(-6.63802e-09 -4.90196e-06 0)
(-6.70916e-09 -4.89111e-06 0)
(-6.77299e-09 -4.8802e-06 0)
(-6.82966e-09 -4.86914e-06 0)
(-6.87954e-09 -4.85805e-06 0)
(-6.92275e-09 -4.84683e-06 0)
(-6.95965e-09 -4.83559e-06 0)
(-6.99035e-09 -4.82426e-06 0)
(-7.01521e-09 -4.81293e-06 0)
(-7.03432e-09 -4.80152e-06 0)
(-7.04801e-09 -4.79012e-06 0)
(-7.05638e-09 -4.77866e-06 0)
(-7.05974e-09 -4.76724e-06 0)
(-7.05816e-09 -4.75577e-06 0)
(-7.05194e-09 -4.74435e-06 0)
(-7.04114e-09 -4.73291e-06 0)
(-7.02605e-09 -4.72153e-06 0)
(-7.0067e-09 -4.71013e-06 0)
(-6.98338e-09 -4.69881e-06 0)
(-6.9561e-09 -4.68749e-06 0)
(-6.92513e-09 -4.67626e-06 0)
(-6.89049e-09 -4.66505e-06 0)
(-6.85242e-09 -4.65393e-06 0)
(-6.81092e-09 -4.64283e-06 0)
(-6.76624e-09 -4.63185e-06 0)
(-6.71836e-09 -4.6209e-06 0)
(-6.66751e-09 -4.61007e-06 0)
(-6.61368e-09 -4.59929e-06 0)
(-6.55709e-09 -4.58863e-06 0)
(-6.4977e-09 -4.57803e-06 0)
(-6.43574e-09 -4.56757e-06 0)
(-6.37116e-09 -4.55717e-06 0)
(-6.30417e-09 -4.54692e-06 0)
(-6.23473e-09 -4.53674e-06 0)
(-6.16303e-09 -4.52671e-06 0)
(-6.08904e-09 -4.51676e-06 0)
(-6.01293e-09 -4.50698e-06 0)
(-5.93466e-09 -4.49728e-06 0)
(-5.8544e-09 -4.48774e-06 0)
(-5.77211e-09 -4.4783e-06 0)
(-5.68795e-09 -4.46903e-06 0)
(-5.60188e-09 -4.45986e-06 0)
(-5.51403e-09 -4.45087e-06 0)
(-5.42439e-09 -4.44199e-06 0)
(-5.33307e-09 -4.43329e-06 0)
(-5.24005e-09 -4.42471e-06 0)
(-5.14544e-09 -4.41631e-06 0)
(-5.04922e-09 -4.40803e-06 0)
(-4.9515e-09 -4.39994e-06 0)
(-4.85224e-09 -4.39198e-06 0)
(-4.75156e-09 -4.38421e-06 0)
(-4.64943e-09 -4.37657e-06 0)
(-4.54594e-09 -4.36914e-06 0)
(-4.44107e-09 -4.36184e-06 0)
(-4.33492e-09 -4.35474e-06 0)
(-4.22746e-09 -4.34778e-06 0)
(-4.11878e-09 -4.34103e-06 0)
(-4.00886e-09 -4.33443e-06 0)
(-3.89778e-09 -4.32804e-06 0)
(-3.78553e-09 -4.32179e-06 0)
(-3.67219e-09 -4.31576e-06 0)
(-3.55773e-09 -4.30989e-06 0)
(-3.44225e-09 -4.30422e-06 0)
(-3.32573e-09 -4.29872e-06 0)
(-3.20824e-09 -4.29343e-06 0)
(-3.08977e-09 -4.28832e-06 0)
(-2.97039e-09 -4.28341e-06 0)
(-2.85011e-09 -4.27868e-06 0)
(-2.72898e-09 -4.27416e-06 0)
(-2.607e-09 -4.26982e-06 0)
(-2.48423e-09 -4.2657e-06 0)
(-2.36068e-09 -4.26176e-06 0)
(-2.23639e-09 -4.25804e-06 0)
(-2.11138e-09 -4.2545e-06 0)
(-1.9857e-09 -4.25118e-06 0)
(-1.85935e-09 -4.24805e-06 0)
(-1.73238e-09 -4.24514e-06 0)
(-1.60481e-09 -4.24242e-06 0)
(-1.4767e-09 -4.23992e-06 0)
(-1.34809e-09 -4.23761e-06 0)
(-1.21906e-09 -4.23555e-06 0)
(-1.0897e-09 -4.23358e-06 0)
(-9.60175e-10 -4.23221e-06 0)
(-8.30561e-10 -4.22976e-06 0)
(-7.01362e-10 -4.23172e-06 0)
(-5.71652e-10 -4.21969e-06 0)
(-4.44752e-10 -4.25319e-06 0)
(-3.08574e-10 -4.12527e-06 0)
(-2.0238e-10 -4.46367e-06 0)
(-8.54005e-11 -3.89836e-06 0)
)
;
    }
    bottomWall
    {
        type            calculated;
        value           nonuniform List<vector> 
449
(
(-52.7583 -0.956208 0)
(-34.774 -0.00280159 0)
(-34.3804 -0.000255769 0)
(-33.0142 -0.000364402 0)
(-31.8856 -0.00031603 0)
(-30.8467 -0.000284902 0)
(-29.9275 -0.000249842 0)
(-29.1259 -0.000217848 0)
(-28.4238 -0.000191195 0)
(-27.8032 -0.000169355 0)
(-27.2496 -0.000151285 0)
(-26.752 -0.000136153 0)
(-26.3014 -0.000123483 0)
(-25.89 -0.000112774 0)
(-25.5123 -0.000103518 0)
(-25.1641 -9.54739e-05 0)
(-24.8413 -8.8448e-05 0)
(-24.541 -8.22864e-05 0)
(-24.2603 -7.68715e-05 0)
(-23.997 -7.20563e-05 0)
(-23.7492 -6.77419e-05 0)
(-23.5153 -6.38678e-05 0)
(-23.294 -6.03683e-05 0)
(-23.0841 -5.7194e-05 0)
(-22.8845 -5.4298e-05 0)
(-22.6945 -5.16375e-05 0)
(-22.5131 -4.91982e-05 0)
(-22.3398 -4.69516e-05 0)
(-22.1738 -4.48751e-05 0)
(-22.0147 -4.29484e-05 0)
(-21.862 -4.11627e-05 0)
(-21.7152 -3.95013e-05 0)
(-21.5739 -3.79555e-05 0)
(-21.4377 -3.6509e-05 0)
(-21.3064 -3.51558e-05 0)
(-21.1795 -3.3891e-05 0)
(-21.0568 -3.27067e-05 0)
(-20.9381 -3.15916e-05 0)
(-20.8232 -3.05472e-05 0)
(-20.7117 -2.95612e-05 0)
(-20.6035 -2.86314e-05 0)
(-20.4984 -2.77514e-05 0)
(-20.3963 -2.69191e-05 0)
(-20.2969 -2.61296e-05 0)
(-20.2003 -2.53728e-05 0)
(-20.1062 -2.46512e-05 0)
(-20.0145 -2.39672e-05 0)
(-19.9251 -2.33082e-05 0)
(-19.838 -2.26777e-05 0)
(-19.753 -2.20784e-05 0)
(-19.67 -2.15013e-05 0)
(-19.589 -2.09496e-05 0)
(-19.5099 -2.04251e-05 0)
(-19.4325 -1.992e-05 0)
(-19.3569 -1.94399e-05 0)
(-19.2829 -1.89792e-05 0)
(-19.2105 -1.8539e-05 0)
(-19.1395 -1.81179e-05 0)
(-19.07 -1.77137e-05 0)
(-19.0019 -1.7326e-05 0)
(-18.9351 -1.69535e-05 0)
(-18.8695 -1.65954e-05 0)
(-18.8052 -1.62503e-05 0)
(-18.742 -1.59181e-05 0)
(-18.6801 -1.55979e-05 0)
(-18.6191 -1.52891e-05 0)
(-18.5593 -1.499e-05 0)
(-18.5004 -1.47014e-05 0)
(-18.4426 -1.44216e-05 0)
(-18.3857 -1.41514e-05 0)
(-18.3298 -1.38887e-05 0)
(-18.2747 -1.3635e-05 0)
(-18.2205 -1.33885e-05 0)
(-18.1672 -1.31497e-05 0)
(-18.1147 -1.29175e-05 0)
(-18.063 -1.26921e-05 0)
(-18.0121 -1.2473e-05 0)
(-17.9619 -1.22601e-05 0)
(-17.9125 -1.20528e-05 0)
(-17.8637 -1.18519e-05 0)
(-17.8157 -1.16557e-05 0)
(-17.7683 -1.14655e-05 0)
(-17.7217 -1.12792e-05 0)
(-17.6756 -1.10983e-05 0)
(-17.6302 -1.09217e-05 0)
(-17.5854 -1.07497e-05 0)
(-17.5412 -1.05826e-05 0)
(-17.4976 -1.04194e-05 0)
(-17.4545 -1.026e-05 0)
(-17.412 -1.01044e-05 0)
(-17.3701 -9.95249e-06 0)
(-17.3287 -9.80459e-06 0)
(-17.2878 -9.66028e-06 0)
(-17.2474 -9.51929e-06 0)
(-17.2075 -9.38161e-06 0)
(-17.168 -9.24708e-06 0)
(-17.1291 -9.11556e-06 0)
(-17.0906 -8.98676e-06 0)
(-17.0526 -8.86086e-06 0)
(-17.015 -8.73786e-06 0)
(-16.9778 -8.61771e-06 0)
(-16.9411 -8.50017e-06 0)
(-16.9047 -8.38526e-06 0)
(-16.8688 -8.27248e-06 0)
(-16.8333 -8.16262e-06 0)
(-16.7981 -8.0544e-06 0)
(-16.7634 -7.94914e-06 0)
(-16.729 -7.84511e-06 0)
(-16.695 -7.74404e-06 0)
(-16.6613 -7.6443e-06 0)
(-16.628 -7.54708e-06 0)
(-16.5951 -7.45163e-06 0)
(-16.5625 -7.35863e-06 0)
(-16.5301 -7.26696e-06 0)
(-16.4982 -7.17737e-06 0)
(-16.4665 -7.08941e-06 0)
(-16.4352 -7.00298e-06 0)
(-16.4042 -6.91775e-06 0)
(-16.3735 -6.83425e-06 0)
(-16.343 -6.7527e-06 0)
(-16.3129 -6.67236e-06 0)
(-16.2831 -6.59365e-06 0)
(-16.2535 -6.51636e-06 0)
(-16.2242 -6.4406e-06 0)
(-16.1952 -6.36605e-06 0)
(-16.1664 -6.29325e-06 0)
(-16.138 -6.22161e-06 0)
(-16.1097 -6.15099e-06 0)
(-16.0818 -6.08167e-06 0)
(-16.054 -6.01336e-06 0)
(-16.0266 -5.94615e-06 0)
(-15.9993 -5.87994e-06 0)
(-15.9723 -5.81489e-06 0)
(-15.9455 -5.75147e-06 0)
(-15.919 -5.68888e-06 0)
(-15.8927 -5.62746e-06 0)
(-15.8666 -5.56703e-06 0)
(-15.8407 -5.5077e-06 0)
(-15.8151 -5.44918e-06 0)
(-15.7896 -5.39145e-06 0)
(-15.7644 -5.33464e-06 0)
(-15.7394 -5.27887e-06 0)
(-15.7146 -5.22359e-06 0)
(-15.6899 -5.16938e-06 0)
(-15.6655 -5.11563e-06 0)
(-15.6413 -5.0634e-06 0)
(-15.6172 -5.01113e-06 0)
(-15.5934 -4.96061e-06 0)
(-15.5697 -4.91015e-06 0)
(-15.5462 -4.86171e-06 0)
(-15.5229 -4.8126e-06 0)
(-15.4998 -4.7654e-06 0)
(-15.4769 -4.71791e-06 0)
(-15.4541 -4.67212e-06 0)
(-15.4315 -4.62597e-06 0)
(-15.4091 -4.58135e-06 0)
(-15.3868 -4.53655e-06 0)
(-15.3647 -4.49303e-06 0)
(-15.3427 -4.44968e-06 0)
(-15.321 -4.40733e-06 0)
(-15.2993 -4.36486e-06 0)
(-15.2778 -4.32383e-06 0)
(-15.2565 -4.28288e-06 0)
(-15.2354 -4.24275e-06 0)
(-15.2143 -4.20316e-06 0)
(-15.1935 -4.16446e-06 0)
(-15.1727 -4.12605e-06 0)
(-15.1521 -4.0879e-06 0)
(-15.1317 -4.05058e-06 0)
(-15.1114 -4.01312e-06 0)
(-15.0912 -3.97707e-06 0)
(-15.0712 -3.94057e-06 0)
(-15.0512 -3.90609e-06 0)
(-15.0326 -3.87868e-06 0)
(-15.015 -3.85092e-06 0)
(-14.9974 -3.81775e-06 0)
(-14.9797 -3.78571e-06 0)
(-14.962 -3.75359e-06 0)
(-14.9442 -3.72218e-06 0)
(-14.9265 -3.69082e-06 0)
(-14.9086 -3.65979e-06 0)
(-14.8908 -3.62861e-06 0)
(-14.8728 -3.59818e-06 0)
(-14.8549 -3.56721e-06 0)
(-14.8369 -3.53712e-06 0)
(-14.8188 -3.50654e-06 0)
(-14.8008 -3.47703e-06 0)
(-14.7827 -3.44667e-06 0)
(-14.7645 -3.41717e-06 0)
(-14.7463 -3.38671e-06 0)
(-14.7281 -3.35748e-06 0)
(-14.7098 -3.32823e-06 0)
(-14.6915 -3.29914e-06 0)
(-14.6732 -3.26996e-06 0)
(-14.6548 -3.24129e-06 0)
(-14.6364 -3.2126e-06 0)
(-14.6179 -3.18403e-06 0)
(-14.5994 -3.15525e-06 0)
(-14.5809 -3.12693e-06 0)
(-14.5624 -3.09831e-06 0)
(-14.5438 -3.07059e-06 0)
(-14.5252 -3.04249e-06 0)
(-14.5066 -3.01513e-06 0)
(-14.4879 -2.98714e-06 0)
(-14.4692 -2.96003e-06 0)
(-14.4505 -2.9324e-06 0)
(-14.4317 -2.90551e-06 0)
(-14.4129 -2.87863e-06 0)
(-14.3941 -2.85197e-06 0)
(-14.3753 -2.8253e-06 0)
(-14.3564 -2.79852e-06 0)
(-14.3375 -2.7723e-06 0)
(-14.3186 -2.74578e-06 0)
(-14.2996 -2.71959e-06 0)
(-14.2807 -2.693e-06 0)
(-14.2617 -2.66755e-06 0)
(-14.2427 -2.6415e-06 0)
(-14.2237 -2.61653e-06 0)
(-14.2046 -2.5906e-06 0)
(-14.1856 -2.56573e-06 0)
(-14.1665 -2.54047e-06 0)
(-14.1474 -2.5158e-06 0)
(-14.1283 -2.49103e-06 0)
(-14.1091 -2.46672e-06 0)
(-14.09 -2.44214e-06 0)
(-14.0708 -2.41843e-06 0)
(-14.0516 -2.39355e-06 0)
(-14.0324 -2.37014e-06 0)
(-14.0132 -2.34608e-06 0)
(-13.994 -2.32251e-06 0)
(-13.9747 -2.29904e-06 0)
(-13.9555 -2.27572e-06 0)
(-13.9362 -2.25261e-06 0)
(-13.9169 -2.22982e-06 0)
(-13.8976 -2.20699e-06 0)
(-13.8783 -2.18446e-06 0)
(-13.859 -2.16201e-06 0)
(-13.8397 -2.13999e-06 0)
(-13.8203 -2.11772e-06 0)
(-13.801 -2.0954e-06 0)
(-13.7817 -2.07355e-06 0)
(-13.7623 -2.05173e-06 0)
(-13.743 -2.0301e-06 0)
(-13.7236 -2.00863e-06 0)
(-13.7042 -1.98793e-06 0)
(-13.6849 -1.96661e-06 0)
(-13.6655 -1.94603e-06 0)
(-13.6462 -1.92522e-06 0)
(-13.6268 -1.90489e-06 0)
(-13.6074 -1.88422e-06 0)
(-13.588 -1.86417e-06 0)
(-13.5687 -1.84362e-06 0)
(-13.5493 -1.8242e-06 0)
(-13.5299 -1.80408e-06 0)
(-13.5106 -1.78486e-06 0)
(-13.4912 -1.76493e-06 0)
(-13.4718 -1.74607e-06 0)
(-13.4524 -1.72673e-06 0)
(-13.4331 -1.70794e-06 0)
(-13.4137 -1.68909e-06 0)
(-13.3944 -1.67053e-06 0)
(-13.3751 -1.65194e-06 0)
(-13.3558 -1.6337e-06 0)
(-13.3364 -1.6157e-06 0)
(-13.3171 -1.59772e-06 0)
(-13.2978 -1.57984e-06 0)
(-13.2785 -1.56231e-06 0)
(-13.2592 -1.54462e-06 0)
(-13.2399 -1.52709e-06 0)
(-13.2206 -1.50986e-06 0)
(-13.2014 -1.49311e-06 0)
(-13.1821 -1.47625e-06 0)
(-13.1629 -1.45935e-06 0)
(-13.1436 -1.44235e-06 0)
(-13.1244 -1.42599e-06 0)
(-13.1052 -1.40994e-06 0)
(-13.086 -1.3935e-06 0)
(-13.0668 -1.3778e-06 0)
(-13.0477 -1.36175e-06 0)
(-13.0285 -1.34617e-06 0)
(-13.0094 -1.3302e-06 0)
(-12.9903 -1.31491e-06 0)
(-12.9712 -1.29963e-06 0)
(-12.9521 -1.2845e-06 0)
(-12.9331 -1.26934e-06 0)
(-12.914 -1.25454e-06 0)
(-12.895 -1.23995e-06 0)
(-12.876 -1.2256e-06 0)
(-12.857 -1.21086e-06 0)
(-12.838 -1.19669e-06 0)
(-12.8191 -1.18209e-06 0)
(-12.8002 -1.16833e-06 0)
(-12.7813 -1.15444e-06 0)
(-12.7624 -1.14074e-06 0)
(-12.7435 -1.12698e-06 0)
(-12.7247 -1.11379e-06 0)
(-12.7059 -1.09998e-06 0)
(-12.6871 -1.08709e-06 0)
(-12.6683 -1.07366e-06 0)
(-12.6496 -1.06068e-06 0)
(-12.6309 -1.04789e-06 0)
(-12.6122 -1.03511e-06 0)
(-12.5936 -1.02237e-06 0)
(-12.575 -1.01017e-06 0)
(-12.5563 -9.98054e-07 0)
(-12.5378 -9.86164e-07 0)
(-12.5192 -9.73568e-07 0)
(-12.5007 -9.61661e-07 0)
(-12.4822 -9.49897e-07 0)
(-12.4638 -9.38327e-07 0)
(-12.4453 -9.26821e-07 0)
(-12.4269 -9.15396e-07 0)
(-12.4085 -9.04051e-07 0)
(-12.3902 -8.93038e-07 0)
(-12.3718 -8.82095e-07 0)
(-12.3536 -8.71062e-07 0)
(-12.3353 -8.60247e-07 0)
(-12.3171 -8.4944e-07 0)
(-12.2989 -8.38929e-07 0)
(-12.2808 -8.28388e-07 0)
(-12.2626 -8.17851e-07 0)
(-12.2445 -8.07462e-07 0)
(-12.2264 -7.97456e-07 0)
(-12.2084 -7.87407e-07 0)
(-12.1904 -7.77417e-07 0)
(-12.1725 -7.67464e-07 0)
(-12.1545 -7.57922e-07 0)
(-12.1367 -7.48324e-07 0)
(-12.1188 -7.38902e-07 0)
(-12.101 -7.29332e-07 0)
(-12.0832 -7.20249e-07 0)
(-12.0655 -7.11177e-07 0)
(-12.0477 -7.02052e-07 0)
(-12.0301 -6.92958e-07 0)
(-12.0124 -6.84317e-07 0)
(-11.9948 -6.75552e-07 0)
(-11.9772 -6.66963e-07 0)
(-11.9597 -6.58115e-07 0)
(-11.9422 -6.49806e-07 0)
(-11.9248 -6.41111e-07 0)
(-11.9073 -6.32972e-07 0)
(-11.89 -6.247e-07 0)
(-11.8726 -6.16785e-07 0)
(-11.8553 -6.08503e-07 0)
(-11.8381 -6.00835e-07 0)
(-11.8208 -5.92857e-07 0)
(-11.8037 -5.85242e-07 0)
(-11.7865 -5.77589e-07 0)
(-11.7694 -5.70142e-07 0)
(-11.7523 -5.62662e-07 0)
(-11.7353 -5.55441e-07 0)
(-11.7183 -5.48049e-07 0)
(-11.7014 -5.41184e-07 0)
(-11.6844 -5.33417e-07 0)
(-11.6658 -5.24131e-07 0)
(-11.6454 -5.15619e-07 0)
(-11.6254 -5.07835e-07 0)
(-11.6057 -5.00419e-07 0)
(-11.5863 -4.92858e-07 0)
(-11.5671 -4.85463e-07 0)
(-11.5483 -4.78194e-07 0)
(-11.5297 -4.71271e-07 0)
(-11.5114 -4.64078e-07 0)
(-11.4934 -4.57436e-07 0)
(-11.4756 -4.50942e-07 0)
(-11.4581 -4.44594e-07 0)
(-11.4408 -4.38368e-07 0)
(-11.4238 -4.32456e-07 0)
(-11.407 -4.26435e-07 0)
(-11.3904 -4.20575e-07 0)
(-11.3741 -4.15052e-07 0)
(-11.3579 -4.09397e-07 0)
(-11.3421 -4.04128e-07 0)
(-11.3263 -3.98803e-07 0)
(-11.3109 -3.93723e-07 0)
(-11.2955 -3.88531e-07 0)
(-11.2805 -3.83838e-07 0)
(-11.2655 -3.78992e-07 0)
(-11.2508 -3.74319e-07 0)
(-11.2362 -3.69557e-07 0)
(-11.2219 -3.64907e-07 0)
(-11.2077 -3.60706e-07 0)
(-11.1937 -3.56211e-07 0)
(-11.1798 -3.51937e-07 0)
(-11.1661 -3.47868e-07 0)
(-11.1526 -3.43882e-07 0)
(-11.1392 -3.39696e-07 0)
(-11.126 -3.35735e-07 0)
(-11.113 -3.31817e-07 0)
(-11.1 -3.28146e-07 0)
(-11.0873 -3.24442e-07 0)
(-11.0746 -3.20828e-07 0)
(-11.0622 -3.17347e-07 0)
(-11.0498 -3.13895e-07 0)
(-11.0376 -3.10538e-07 0)
(-11.0255 -3.07214e-07 0)
(-11.0136 -3.03868e-07 0)
(-11.0017 -3.00785e-07 0)
(-10.9901 -2.97625e-07 0)
(-10.9785 -2.94453e-07 0)
(-10.967 -2.91476e-07 0)
(-10.9557 -2.8846e-07 0)
(-10.9445 -2.8563e-07 0)
(-10.9333 -2.82686e-07 0)
(-10.9224 -2.79868e-07 0)
(-10.9114 -2.76888e-07 0)
(-10.9007 -2.7433e-07 0)
(-10.89 -2.7155e-07 0)
(-10.8794 -2.6893e-07 0)
(-10.8689 -2.66364e-07 0)
(-10.8586 -2.63899e-07 0)
(-10.8483 -2.61338e-07 0)
(-10.8382 -2.59066e-07 0)
(-10.828 -2.56532e-07 0)
(-10.8181 -2.54256e-07 0)
(-10.8081 -2.51826e-07 0)
(-10.7984 -2.49754e-07 0)
(-10.7886 -2.47405e-07 0)
(-10.779 -2.4537e-07 0)
(-10.7694 -2.43061e-07 0)
(-10.76 -2.41209e-07 0)
(-10.7505 -2.38868e-07 0)
(-10.7413 -2.36959e-07 0)
(-10.732 -2.34877e-07 0)
(-10.723 -2.33047e-07 0)
(-10.7137 -2.30784e-07 0)
(-10.7049 -2.2905e-07 0)
(-10.6958 -2.26886e-07 0)
(-10.6872 -2.25216e-07 0)
(-10.6782 -2.232e-07 0)
(-10.6697 -2.21338e-07 0)
(-10.6609 -2.19597e-07 0)
(-10.6525 -2.17843e-07 0)
(-10.6438 -2.16389e-07 0)
(-10.6356 -2.14535e-07 0)
(-10.6271 -2.13195e-07 0)
(-10.6189 -2.11177e-07 0)
(-10.6105 -2.10383e-07 0)
(-10.6024 -2.07913e-07 0)
(-10.5943 -2.084e-07 0)
(-10.5861 -2.04209e-07 0)
(-10.5783 -2.08305e-07 0)
(-10.5698 -1.98246e-07 0)
(-10.5628 -2.13645e-07 0)
(-10.5531 -1.84014e-07 0)
(-10.5485 -2.29768e-07 0)
(-10.535 -1.56035e-07 0)
(-10.5365 -2.04306e-07 0)
(-10.5187 -2.33877e-07 0)
)
;
    }
    symmetry
    {
        type            symmetryPlane;
    }
    frontAndBack
    {
        type            empty;
    }
}


// ************************************************************************* //
