/*--------------------------------*- C++ -*----------------------------------*\
| =========                 |                                                 |
| \\      /  F ield         | OpenFOAM: The Open Source CFD Toolbox           |
|  \\    /   O peration     | Version:  v2012                                 |
|   \\  /    A nd           | Website:  www.openfoam.com                      |
|    \\/     M anipulation  |                                                 |
\*---------------------------------------------------------------------------*/
FoamFile
{
    version     2.0;
    format      ascii;
    class       volScalarField;
    location    "35.5";
    object      yPlus;
}
// * * * * * * * * * * * * * * * * * * * * * * * * * * * * * * * * * * * * * //

dimensions      [0 0 0 0 0 0 0];


internalField   uniform 0;

boundaryField
{
    inlet
    {
        type            calculated;
        value           uniform 0;
    }
    outlet
    {
        type            calculated;
        value           uniform 0;
    }
    topWall
    {
        type            calculated;
        value           nonuniform List<scalar> 
545
(
0.147618
0.254596
0.326621
0.383922
0.432425
0.474857
0.512751
0.547071
0.578475
0.607433
0.634299
0.659348
0.682796
0.704819
0.725564
0.745153
0.763689
0.781262
0.79795
0.81382
0.828933
0.843341
0.857093
0.87023
0.882792
0.894814
0.906328
0.917363
0.927945
0.938101
0.947851
0.957218
0.966221
0.974878
0.983206
0.991222
0.998939
1.00637
1.01353
1.02044
1.02709
1.03351
1.03971
1.04568
1.05145
1.05702
1.0624
1.0676
1.07262
1.07747
1.08216
1.08669
1.09108
1.09532
1.09943
1.1034
1.10724
1.11096
1.11456
1.11804
1.12142
1.12469
1.12786
1.13092
1.1339
1.13678
1.13957
1.14227
1.1449
1.14744
1.14991
1.1523
1.15458
1.1568
1.15899
1.16117
1.16333
1.16547
1.1676
1.1697
1.1718
1.17387
1.17593
1.17797
1.17999
1.182
1.18399
1.18596
1.18792
1.18987
1.19179
1.19371
1.19561
1.19749
1.19936
1.20121
1.20288
1.20437
1.20586
1.20735
1.20884
1.21033
1.21182
1.21331
1.2148
1.21629
1.21778
1.21926
1.22075
1.22224
1.22372
1.2252
1.22669
1.22817
1.22965
1.23114
1.23262
1.2341
1.23558
1.23706
1.23853
1.24001
1.24149
1.24297
1.24444
1.24592
1.24739
1.24886
1.25033
1.25181
1.25328
1.25475
1.25622
1.25768
1.25915
1.26062
1.26208
1.26355
1.26501
1.26647
1.26793
1.26939
1.27085
1.27231
1.27377
1.27523
1.27668
1.27814
1.27959
1.28104
1.28249
1.28394
1.28539
1.28684
1.28829
1.28973
1.29118
1.29262
1.29406
1.2955
1.29694
1.29838
1.29982
1.30126
1.30269
1.30412
1.30556
1.30699
1.30841
1.30984
1.31127
1.31269
1.31412
1.31554
1.31696
1.31838
1.3198
1.32122
1.32263
1.32404
1.32546
1.32687
1.32827
1.32968
1.33109
1.33249
1.33389
1.33529
1.33669
1.33809
1.33949
1.34088
1.34227
1.34366
1.34505
1.34644
1.34782
1.34921
1.35059
1.35197
1.35335
1.35472
1.3561
1.35747
1.35884
1.36021
1.36157
1.36294
1.3643
1.36566
1.36702
1.36837
1.36973
1.37108
1.37243
1.37378
1.37512
1.37647
1.37781
1.37915
1.38048
1.38182
1.38315
1.38448
1.38581
1.38713
1.38846
1.38978
1.3911
1.39241
1.39373
1.39504
1.39635
1.39765
1.39896
1.40026
1.40156
1.40285
1.40415
1.40544
1.40673
1.40801
1.4093
1.41058
1.41185
1.41313
1.4144
1.41567
1.41694
1.4182
1.41946
1.42072
1.42198
1.42323
1.42448
1.42573
1.42697
1.42821
1.42945
1.43069
1.43192
1.43315
1.43438
1.4356
1.43682
1.43804
1.43925
1.44046
1.44167
1.44281
1.44388
1.44496
1.44604
1.44713
1.44823
1.44934
1.45045
1.45157
1.45269
1.45382
1.45496
1.45611
1.45726
1.45842
1.45958
1.46075
1.46193
1.46311
1.4643
1.4655
1.4667
1.46791
1.46912
1.47034
1.47156
1.47279
1.47403
1.47527
1.47652
1.47777
1.47903
1.48029
1.48156
1.48283
1.48411
1.48539
1.48668
1.48797
1.48927
1.49057
1.49187
1.49318
1.49449
1.49581
1.49713
1.49845
1.49977
1.5011
1.50243
1.50377
1.5051
1.50644
1.50778
1.50912
1.51047
1.51181
1.51316
1.51451
1.51586
1.51721
1.51856
1.51991
1.52126
1.52261
1.52396
1.52531
1.52665
1.528
1.52935
1.53069
1.53203
1.53337
1.5347
1.53603
1.53736
1.53869
1.54001
1.54133
1.54264
1.54394
1.54525
1.54654
1.54783
1.54912
1.55039
1.55166
1.55292
1.55418
1.55542
1.55666
1.55789
1.55911
1.56031
1.56151
1.5627
1.56388
1.56504
1.56619
1.56733
1.56846
1.56957
1.57067
1.57176
1.57283
1.57388
1.57492
1.57595
1.57695
1.57794
1.57891
1.57987
1.5808
1.58172
1.58262
1.58349
1.58435
1.58518
1.586
1.58679
1.58755
1.5883
1.58902
1.58972
1.59039
1.59104
1.59166
1.59226
1.59283
1.59337
1.59389
1.59437
1.59483
1.59526
1.59566
1.59603
1.59638
1.59668
1.59696
1.59721
1.59743
1.59761
1.59776
1.59787
1.59796
1.59801
1.59802
1.598
1.59795
1.59786
1.59773
1.59757
1.59737
1.59714
1.59687
1.59656
1.59622
1.59583
1.59541
1.59496
1.59446
1.59393
1.59336
1.59275
1.5921
1.59142
1.5907
1.58993
1.58913
1.5883
1.58742
1.58651
1.58556
1.58457
1.58354
1.58248
1.58138
1.58024
1.57907
1.57785
1.57661
1.57518
1.57358
1.57194
1.57029
1.5686
1.56689
1.56516
1.56341
1.56164
1.55986
1.55806
1.55625
1.55443
1.5526
1.55076
1.54892
1.54707
1.54522
1.54336
1.54151
1.53965
1.5378
1.53594
1.53409
1.53224
1.53041
1.52857
1.52675
1.52493
1.52313
1.52133
1.51954
1.51776
1.51601
1.51425
1.51252
1.5108
1.5091
1.50741
1.50574
1.50409
1.50246
1.50084
1.49925
1.49767
1.49612
1.49459
1.49308
1.49159
1.49013
1.48869
1.48727
1.48588
1.48451
1.48317
1.48186
1.48057
1.47931
1.47807
1.47687
1.47569
1.47455
1.47342
1.47234
1.47127
1.47025
1.46925
1.46828
1.46734
1.46644
1.46557
1.46473
1.46392
1.46315
1.4624
1.4617
1.46102
1.46038
1.45978
1.45921
1.45867
1.45817
1.4577
1.45727
1.45688
1.45652
1.4562
1.45591
1.45566
1.45544
1.45526
1.45512
1.45501
1.45495
1.45488
)
;
    }
    bottomWall
    {
        type            calculated;
        value           nonuniform List<scalar> 
449
(
0.00274019
0.00480491
0.00537854
0.0053309
0.00525952
0.00516321
0.00506557
0.00497416
0.0048903
0.00481368
0.0047436
0.00467933
0.00462019
0.00456543
0.00451455
0.00446715
0.00442283
0.00438126
0.00434212
0.00430513
0.00427013
0.00423691
0.0042053
0.00417517
0.00414639
0.00411887
0.00409251
0.00406722
0.00404292
0.00401956
0.00399706
0.00397537
0.00395443
0.0039342
0.00391463
0.00389569
0.00387734
0.00385953
0.00384225
0.00382546
0.00380913
0.00379323
0.00377776
0.00376267
0.00374797
0.00373364
0.00371965
0.00370598
0.00369265
0.00367961
0.00366688
0.00365442
0.00364223
0.0036303
0.00361862
0.00360717
0.00359596
0.00358495
0.00357416
0.00356355
0.00355315
0.00354293
0.00353289
0.00352302
0.00351332
0.00350377
0.00349438
0.00348514
0.00347605
0.00346709
0.00345828
0.00344959
0.00344104
0.00343261
0.00342431
0.00341611
0.00340805
0.00340008
0.00339223
0.00338449
0.00337685
0.00336931
0.00336187
0.00335453
0.00334728
0.00334012
0.00333305
0.00332607
0.00331918
0.00331237
0.00330564
0.00329899
0.00329242
0.00328592
0.0032795
0.00327315
0.00326688
0.00326067
0.00325454
0.00324846
0.00324246
0.00323652
0.00323064
0.00322483
0.00321908
0.00321338
0.00320774
0.00320216
0.00319664
0.00319117
0.00318576
0.00318039
0.00317509
0.00316982
0.00316462
0.00315945
0.00315434
0.00314927
0.00314426
0.00313929
0.00313436
0.00312948
0.00312464
0.00311984
0.00311509
0.00311038
0.00310571
0.00310107
0.00309648
0.00309192
0.00308741
0.00308293
0.00307849
0.00307408
0.00306972
0.00306538
0.00306109
0.00305682
0.00305259
0.00304839
0.00304422
0.00304009
0.00303599
0.00303191
0.00302788
0.00302387
0.00301989
0.00301594
0.00301202
0.00300813
0.00300427
0.00300043
0.00299663
0.00299285
0.00298909
0.00298537
0.00298166
0.00297799
0.00297434
0.00297072
0.00296711
0.00296354
0.00295999
0.00295646
0.00295296
0.00294948
0.00294602
0.00294259
0.00293917
0.00293578
0.00293241
0.00292907
0.00292574
0.00292262
0.00291967
0.00291673
0.00291377
0.00291081
0.00290784
0.00290486
0.00290187
0.00289888
0.00289588
0.00289287
0.00288985
0.00288683
0.00288379
0.00288075
0.0028777
0.00287465
0.00287158
0.00286851
0.00286544
0.00286235
0.00285926
0.00285616
0.00285305
0.00284994
0.00284682
0.0028437
0.00284057
0.00283743
0.00283429
0.00283113
0.00282798
0.00282481
0.00282165
0.00281847
0.0028153
0.0028121
0.00280892
0.00280571
0.00280252
0.00279931
0.0027961
0.00279288
0.00278966
0.00278643
0.00278321
0.00277997
0.00277673
0.00277349
0.00277024
0.00276699
0.00276373
0.00276047
0.00275721
0.00275394
0.00275067
0.0027474
0.00274412
0.00274084
0.00273755
0.00273427
0.00273098
0.00272769
0.00272439
0.00272109
0.00271779
0.00271449
0.00271118
0.00270788
0.00270456
0.00270126
0.00269794
0.00269463
0.00269131
0.00268799
0.00268467
0.00268135
0.00267803
0.0026747
0.00267138
0.00266805
0.00266473
0.0026614
0.00265808
0.00265474
0.00265142
0.00264809
0.00264476
0.00264143
0.00263811
0.00263477
0.00263145
0.00262811
0.00262479
0.00262145
0.00261813
0.0026148
0.00261148
0.00260815
0.00260483
0.0026015
0.00259819
0.00259485
0.00259155
0.00258822
0.00258491
0.00258158
0.00257828
0.00257496
0.00257166
0.00256834
0.00256504
0.00256173
0.00255843
0.00255513
0.00255183
0.00254853
0.00254525
0.00254195
0.00253867
0.00253538
0.0025321
0.00252882
0.00252555
0.00252227
0.002519
0.00251574
0.00251248
0.00250922
0.00250596
0.00250272
0.00249947
0.00249623
0.00249298
0.00248975
0.00248651
0.00248329
0.00248006
0.00247685
0.00247362
0.00247042
0.0024672
0.002464
0.0024608
0.00245761
0.00245441
0.00245123
0.00244804
0.00244487
0.0024417
0.00243854
0.00243537
0.00243222
0.00242906
0.00242593
0.00242278
0.00241965
0.00241652
0.0024134
0.00241027
0.00240716
0.00240405
0.00240095
0.00239784
0.00239475
0.00239167
0.00238859
0.00238551
0.00238244
0.00237938
0.00237632
0.00237327
0.00237022
0.00236719
0.00236415
0.00236113
0.0023581
0.00235509
0.00235207
0.00234908
0.00234607
0.00234277
0.00233915
0.0023356
0.00233209
0.00232865
0.00232524
0.0023219
0.00231859
0.00231534
0.00231213
0.00230898
0.00230585
0.00230279
0.00229975
0.00229676
0.0022938
0.0022909
0.00228802
0.00228519
0.00228238
0.00227962
0.00227688
0.00227419
0.00227152
0.0022689
0.00226628
0.00226373
0.00226118
0.00225869
0.0022562
0.00225376
0.00225133
0.00224895
0.00224657
0.00224424
0.00224192
0.00223964
0.00223738
0.00223515
0.00223293
0.00223075
0.00222857
0.00222644
0.00222431
0.00222222
0.00222013
0.00221808
0.00221604
0.00221403
0.00221203
0.00221006
0.0022081
0.00220617
0.00220424
0.00220235
0.00220046
0.00219861
0.00219675
0.00219493
0.0021931
0.00219132
0.00218952
0.00218777
0.002186
0.00218429
0.00218254
0.00218086
0.00217914
0.00217749
0.0021758
0.00217418
0.00217251
0.00217092
0.00216928
0.00216772
0.0021661
0.00216457
0.00216298
0.00216147
0.0021599
0.00215842
0.00215688
0.00215541
0.00215389
0.00215244
0.00215096
0.0021495
0.00214806
0.00214657
0.00214524
0.0021436
0.00214257
0.00214047
0.00214022
0.00213744
)
;
    }
    symmetry
    {
        type            symmetryPlane;
    }
    frontAndBack
    {
        type            empty;
    }
}


// ************************************************************************* //
